/*--------------------------------*- C++ -*----------------------------------*\
  =========                 |
  \\      /  F ield         | OpenFOAM: The Open Source CFD Toolbox
   \\    /   O peration     | Website:  https://openfoam.org
    \\  /    A nd           | Version:  10
     \\/     M anipulation  |
\*---------------------------------------------------------------------------*/
FoamFile
{
    format      ascii;
    class       volScalarField;
    location    "18";
    object      nut;
}
// * * * * * * * * * * * * * * * * * * * * * * * * * * * * * * * * * * * * * //

dimensions      [0 2 -1 0 0 0 0];

internalField   nonuniform List<scalar> 
102400
(
1.04573e-09
1.33876e-09
1.55024e-09
1.18692e-09
4.73337e-10
8.42234e-10
1.81983e-09
1.64553e-09
1.67085e-09
1.89248e-09
9.90806e-10
2.62857e-09
1.8409e-09
1.11364e-09
1.72908e-09
1.86944e-09
1.94106e-09
8.81927e-10
1.54502e-09
1.81232e-09
1.86758e-09
1.6982e-09
1.98038e-09
1.61409e-09
1.71766e-09
1.94769e-09
1.88552e-09
1.75652e-09
1.91081e-09
9.51778e-10
1.81144e-09
1.67659e-09
1.72173e-09
1.83794e-09
1.37357e-09
9.06574e-10
8.57164e-10
2.1691e-09
1.53013e-09
9.18463e-10
4.48172e-14
2.68371e-13
1.31907e-13
1.07781e-13
5.60146e-15
2.51787e-13
2.84512e-13
1.91933e-13
1.73877e-13
1.5248e-12
1.99093e-13
8.16882e-13
1.28022e-13
1.69741e-13
3.69052e-13
9.46872e-13
1.24916e-12
3.99802e-14
2.93345e-13
1.51872e-13
7.54954e-13
3.60702e-13
9.69827e-13
2.88561e-13
1.36112e-13
1.65888e-13
2.78121e-13
6.39121e-13
1.07835e-13
2.19151e-14
1.76067e-12
2.56525e-13
2.28133e-13
3.50812e-13
3.40196e-14
5.17669e-14
4.2966e-14
5.7335e-13
2.39581e-13
1.54876e-13
3.15256e-09
3.53418e-09
2.3078e-09
1.24164e-09
1.22752e-09
2.20387e-09
2.10104e-09
3.07793e-09
2.72951e-09
1.69191e-09
3.27262e-09
4.77013e-09
3.01311e-09
3.17898e-09
3.11989e-09
2.35841e-09
1.71221e-09
1.23676e-09
2.18642e-09
1.84718e-09
1.58388e-09
2.60876e-09
2.18847e-09
2.39674e-09
1.98603e-09
1.89547e-09
2.63223e-09
1.61793e-09
2.51629e-09
2.78989e-09
2.06665e-09
2.13668e-09
2.37975e-09
2.53667e-09
1.77486e-09
1.42381e-09
2.99314e-09
3.069e-09
1.85704e-09
1.26564e-09
8.55499e-13
1.27729e-12
1.10958e-12
2.41816e-12
1.04651e-12
8.28458e-13
1.29221e-13
8.6196e-14
8.35247e-14
1.33101e-12
2.73248e-13
2.39418e-12
1.23376e-13
6.72958e-13
7.80957e-13
4.79821e-13
3.3341e-13
2.59859e-12
4.75512e-13
2.11476e-12
1.46616e-12
2.76255e-13
4.29449e-13
1.25573e-13
1.60296e-13
3.26459e-13
4.31976e-13
9.83336e-14
6.47934e-13
5.36925e-13
1.02243e-12
5.30709e-13
5.71864e-13
1.02827e-13
1.30387e-12
1.80008e-13
1.30768e-13
4.72668e-12
1.02503e-12
8.1313e-13
8.07134e-10
1.95782e-09
2.27947e-10
8.84773e-10
1.62318e-09
4.4646e-10
8.18276e-13
6.18495e-10
2.25981e-09
6.7605e-10
4.13897e-10
1.9939e-09
1.89999e-09
4.42231e-10
6.33068e-10
2.12022e-09
5.11774e-10
8.42913e-10
1.21251e-09
8.71169e-10
1.63802e-09
2.54565e-09
1.29416e-10
1.17366e-09
1.56017e-09
1.56948e-09
9.02071e-10
1.84994e-09
2.6985e-09
9.79335e-10
3.89755e-10
2.20856e-09
1.90176e-09
4.61537e-13
1.60044e-09
1.43482e-09
1.01887e-09
1.34244e-09
9.18005e-13
1.42537e-09
2.14032e-13
1.21139e-09
3.685e-12
2.05754e-13
4.62074e-13
2.23955e-13
3.05485e-12
5.06528e-12
6.81527e-13
4.61279e-13
5.60596e-10
1.13153e-12
2.70956e-11
1.24023e-12
1.60589e-12
2.98009e-12
2.27431e-12
1.6833e-12
3.81643e-12
3.98928e-13
3.28679e-13
7.34317e-13
8.73019e-11
2.0424e-13
7.63363e-13
1.979e-12
3.68283e-11
1.13229e-13
3.3781e-12
1.44933e-09
8.60217e-13
2.98816e-13
7.2702e-13
1.16387e-09
9.0952e-13
4.23579e-13
6.82745e-10
1.2757e-11
6.19748e-10
4.78983e-13
4.22474e-12
3.04406e-13
1.12305e-09
1.0894e-09
7.43478e-10
2.63167e-10
7.85474e-10
9.84684e-12
3.65213e-12
2.05393e-09
1.23798e-09
1.21462e-09
2.67625e-12
3.02671e-10
1.21252e-09
3.63236e-11
2.40873e-09
1.20629e-09
2.03962e-13
8.16692e-11
2.11097e-09
5.85138e-10
1.16107e-09
2.01831e-09
7.98697e-12
2.55279e-10
8.01532e-11
1.55069e-09
3.53191e-12
6.57151e-10
1.16858e-09
3.11004e-12
1.222e-13
8.94692e-11
2.25583e-09
1.65361e-09
1.15574e-10
6.28997e-10
6.49032e-10
5.02069e-10
4.81633e-10
1.63818e-12
6.87417e-13
1.25819e-12
4.54973e-13
9.41651e-13
9.78795e-12
1.39402e-10
7.7615e-10
2.06081e-13
2.27997e-12
7.90014e-13
5.35192e-12
3.36161e-10
3.00389e-13
2.30927e-13
2.51586e-14
3.64495e-13
1.06465e-09
4.77631e-12
3.33782e-13
9.29076e-10
2.00359e-13
6.14847e-13
3.32075e-10
2.03805e-12
1.95661e-13
6.93555e-11
2.9689e-13
2.59341e-13
5.00988e-10
2.54514e-09
2.20822e-09
1.40055e-12
8.0219e-13
3.56832e-10
6.6212e-13
9.11566e-10
1.37667e-12
6.97725e-13
4.38561e-12
2.20355e-09
2.16066e-09
5.28501e-10
1.82971e-10
1.828e-10
1.20615e-11
9.43254e-10
1.59156e-09
6.23913e-12
2.8522e-12
1.29727e-09
3.16307e-11
6.55933e-10
6.8359e-13
1.00084e-09
2.47032e-12
1.72893e-09
9.76134e-10
9.80076e-13
5.03178e-10
1.29822e-12
1.70275e-09
6.31044e-13
1.58025e-09
2.15985e-09
6.37319e-10
1.83149e-12
1.25557e-09
2.89075e-12
9.9684e-12
7.05388e-14
4.52167e-13
3.2577e-09
2.32755e-10
2.71661e-12
5.92753e-10
4.68036e-13
6.13539e-11
4.17913e-11
1.25458e-13
7.53629e-10
4.24808e-14
2.09822e-10
9.93737e-10
1.89801e-13
1.11031e-09
1.43133e-12
6.71862e-13
6.99299e-10
4.23779e-13
1.73005e-10
2.84251e-13
4.21979e-13
9.43941e-10
2.83783e-12
2.28911e-09
2.43332e-10
3.78183e-14
1.55091e-09
7.31727e-10
1.7724e-10
9.90692e-13
1.53575e-09
8.72496e-13
4.66516e-10
1.2047e-09
7.63831e-10
6.28194e-13
3.75029e-12
1.13428e-12
1.13199e-09
1.95384e-12
2.11677e-13
6.30797e-10
1.59382e-09
5.54071e-10
8.23591e-10
1.03394e-11
3.40175e-13
2.88503e-09
1.27171e-12
2.0175e-09
2.33406e-10
1.69989e-12
1.89e-12
2.37117e-12
4.1509e-13
9.06558e-12
8.59515e-10
3.14666e-09
1.92433e-09
6.71136e-10
5.59481e-13
2.2866e-12
5.69921e-13
7.92761e-11
2.18792e-13
3.99323e-10
5.45327e-10
1.00986e-12
8.71231e-10
4.96826e-10
6.51523e-10
1.40773e-12
9.04537e-13
1.19749e-12
6.37398e-10
9.44868e-10
1.58224e-09
1.33384e-09
4.44631e-13
1.85969e-09
2.1374e-09
2.11227e-10
1.84699e-11
1.58575e-12
1.08522e-12
4.78427e-10
1.57623e-09
2.28526e-13
1.31214e-09
4.814e-13
2.46702e-12
1.68815e-12
4.65836e-11
1.64615e-12
4.35949e-13
2.30212e-09
2.31918e-12
1.8956e-13
7.54568e-13
3.81435e-13
1.58822e-12
1.20051e-09
1.95072e-09
3.41785e-12
1.10707e-09
4.09849e-10
7.09636e-13
2.07979e-09
4.37617e-13
8.2514e-13
3.55849e-13
2.71538e-09
1.99643e-09
7.6775e-10
9.11429e-13
1.42114e-10
8.84043e-13
1.23681e-12
1.51644e-11
8.84806e-12
1.12522e-13
4.44615e-13
4.21509e-10
9.01132e-13
1.16462e-10
8.57217e-13
1.17304e-13
1.11622e-09
1.23861e-09
3.79211e-10
1.09061e-10
1.06024e-09
2.59434e-13
1.18625e-09
4.91438e-13
7.27969e-12
2.45147e-10
6.84334e-13
2.04131e-10
4.16424e-12
1.89799e-09
6.23119e-13
1.4297e-09
9.83041e-13
1.88656e-12
5.5014e-13
9.18415e-10
3.63474e-10
1.94247e-09
3.09834e-10
3.1929e-10
2.12452e-12
9.59737e-10
2.37743e-09
1.6208e-12
5.48404e-13
1.18022e-12
8.71683e-13
1.60107e-09
2.02105e-10
2.56762e-12
7.00047e-10
5.81254e-10
3.197e-12
1.80543e-09
2.56347e-10
1.85637e-12
8.60789e-12
6.89106e-13
9.23094e-10
4.58529e-10
1.21743e-12
5.07872e-12
6.47879e-14
9.18252e-13
3.97013e-10
1.79952e-09
2.99691e-09
1.56527e-11
1.03507e-09
3.95933e-13
1.03502e-13
1.0122e-12
1.93975e-09
1.54647e-12
1.29358e-13
1.79222e-09
6.78176e-13
8.01327e-10
6.94478e-10
1.37475e-12
2.83801e-12
1.41312e-12
1.43145e-12
3.25687e-10
1.17682e-09
1.13296e-09
4.74867e-11
2.54713e-12
2.04519e-09
2.12367e-09
2.99904e-13
2.30181e-09
1.53615e-11
3.72884e-11
5.91868e-13
4.76079e-13
1.76376e-09
1.57951e-09
1.46661e-13
8.08629e-14
1.1051e-09
2.0421e-13
4.11478e-12
9.78522e-13
2.90746e-09
3.16314e-13
5.73545e-13
1.37746e-12
4.49589e-12
2.0721e-13
8.13343e-10
5.33576e-10
4.52733e-12
1.64193e-09
3.69575e-10
4.81926e-13
1.22512e-09
4.51386e-13
7.40619e-13
1.90723e-09
8.2758e-10
1.1089e-09
4.26128e-12
6.57388e-12
3.63738e-10
4.28019e-13
1.36068e-09
2.33407e-10
4.38171e-13
1.09618e-11
3.32816e-12
4.63667e-13
2.13968e-10
9.09766e-14
7.95639e-10
7.3604e-10
1.0092e-12
8.46886e-10
2.24284e-09
1.18929e-09
4.0915e-10
5.40256e-10
2.14903e-12
2.62098e-13
4.7472e-13
2.17494e-09
2.13724e-12
1.52551e-09
3.5742e-13
1.23802e-11
4.06482e-13
1.47178e-09
1.91319e-09
1.13471e-12
2.84757e-13
1.32876e-09
3.21352e-10
2.15235e-09
1.14798e-09
5.15055e-13
1.29288e-12
2.37768e-09
7.43628e-10
6.00087e-12
6.65991e-11
3.99623e-12
4.07944e-10
1.62467e-09
1.99308e-09
5.82766e-13
3.32219e-10
2.07215e-12
2.92488e-10
2.55774e-09
6.32992e-13
5.11378e-13
7.8837e-10
2.96808e-12
3.2371e-13
1.48288e-13
7.53758e-13
4.31187e-10
1.23374e-13
9.04157e-10
5.41583e-10
2.79869e-13
3.24104e-10
2.61118e-13
1.93677e-13
2.27084e-13
2.02001e-09
7.76522e-11
2.3414e-10
1.81229e-13
2.4095e-10
8.96836e-13
1.07714e-09
4.89528e-12
2.58724e-12
7.47996e-10
7.55341e-10
1.00963e-09
3.82585e-12
3.24529e-13
1.43001e-09
8.57284e-13
7.49638e-14
1.93465e-13
1.9936e-12
6.02974e-10
9.14534e-13
3.80625e-13
9.87135e-13
1.86506e-12
2.22796e-09
8.63773e-11
4.85943e-13
2.86807e-09
3.07131e-09
1.117e-09
1.29886e-09
5.60994e-13
1.14392e-09
4.43656e-13
1.73598e-09
1.68098e-09
6.53516e-10
1.59642e-11
2.93692e-10
7.23263e-13
1.23719e-13
4.88236e-10
2.20282e-12
1.40008e-09
9.68851e-14
7.11347e-13
3.61825e-13
1.73116e-13
2.72954e-09
6.1174e-10
3.73928e-13
6.71323e-13
6.05092e-10
6.94319e-13
1.01006e-09
2.15566e-10
2.0005e-09
1.82685e-09
9.95159e-10
1.69495e-09
1.52992e-13
7.56158e-10
7.53225e-10
2.1537e-09
7.20507e-13
1.31731e-09
1.70164e-09
1.00943e-09
2.09171e-13
1.2081e-09
7.20349e-13
1.68011e-13
6.87649e-10
1.30992e-09
7.67359e-13
1.43558e-13
7.8895e-10
8.67802e-10
5.3133e-13
8.59392e-10
8.15397e-13
1.02726e-09
1.12421e-09
2.0522e-12
5.98535e-10
1.10746e-12
1.59002e-09
1.12644e-09
1.99088e-13
7.26234e-13
9.73111e-13
1.19824e-09
2.87115e-11
1.8766e-10
1.74828e-09
1.07121e-13
3.99209e-13
1.27827e-13
9.27311e-10
3.06308e-12
5.77705e-10
1.13364e-09
1.46483e-12
1.76863e-10
2.29697e-12
4.35897e-13
3.59711e-12
1.58878e-09
2.07194e-09
1.82294e-13
1.1508e-12
8.07045e-10
1.06091e-09
1.89548e-12
5.66869e-11
9.61541e-13
3.13463e-13
6.24818e-10
7.06134e-10
1.86587e-13
3.55844e-10
3.85771e-13
3.16301e-10
1.73365e-13
9.77972e-14
1.33871e-09
1.7223e-13
9.81269e-10
8.31809e-11
8.8771e-10
1.01409e-09
6.82806e-10
2.39072e-10
7.75805e-10
1.74018e-09
1.0709e-12
5.46793e-13
6.90433e-10
4.08557e-10
1.8114e-13
5.77499e-11
5.65599e-14
6.28176e-11
5.39442e-11
3.17404e-10
1.33569e-11
2.49493e-13
5.85651e-12
4.20775e-12
8.17349e-10
2.54374e-12
1.41479e-10
6.86767e-13
8.85586e-10
2.40125e-13
1.3835e-13
8.37533e-10
1.63405e-13
6.86313e-14
5.1396e-10
4.22408e-13
1.76588e-09
2.46287e-13
4.56645e-13
1.16179e-12
2.74984e-13
1.71917e-10
5.67481e-10
2.0385e-13
1.09245e-12
1.31523e-13
3.21258e-10
2.81222e-13
1.12637e-13
3.20078e-13
2.64943e-10
6.55266e-13
1.3503e-09
5.48657e-14
2.6536e-12
4.61012e-10
1.46304e-09
1.4323e-09
1.22945e-09
3.8198e-13
8.36415e-10
1.02628e-09
9.84309e-14
4.23564e-13
1.60823e-10
1.6729e-13
2.22163e-13
5.66835e-10
1.29967e-09
8.86107e-10
1.48541e-10
4.20471e-10
3.10546e-10
3.99084e-10
2.21147e-13
2.38674e-10
5.84452e-14
6.16399e-14
8.74718e-10
3.5136e-10
8.3664e-13
1.21467e-09
5.34497e-10
4.465e-13
5.86956e-13
1.40888e-10
1.58219e-13
1.51674e-10
9.9415e-10
2.81447e-09
7.67032e-10
1.42604e-13
6.02105e-10
9.05746e-10
1.02228e-12
1.30274e-12
6.36632e-10
1.99347e-13
1.93152e-13
4.23475e-13
1.79292e-13
5.60381e-10
1.77808e-09
1.65477e-09
1.30878e-13
5.56855e-11
1.4051e-12
3.26745e-12
4.94861e-10
1.59302e-13
2.99846e-10
2.2692e-13
7.64611e-11
1.04042e-09
3.80474e-13
9.95151e-13
1.62557e-09
1.04465e-09
5.16133e-13
6.28315e-14
1.82107e-13
1.23426e-09
1.09258e-13
1.24513e-10
9.66636e-14
2.65771e-13
8.99301e-13
1.53623e-09
4.33745e-14
1.82586e-13
6.40317e-13
3.67399e-13
4.6613e-10
1.25729e-11
1.66688e-12
5.00918e-10
2.29553e-13
8.92168e-13
7.71934e-10
1.478e-13
1.45455e-10
6.23943e-10
2.0674e-13
5.86325e-10
4.26141e-10
6.88207e-13
2.74927e-10
3.52738e-13
3.25382e-13
3.88505e-10
1.55312e-10
4.61331e-14
3.9138e-10
1.29501e-10
7.65978e-10
7.67374e-14
5.62634e-14
3.09602e-10
1.05478e-09
1.02494e-09
3.52403e-11
1.96254e-13
6.59964e-12
3.45165e-14
1.53824e-09
7.68281e-13
5.43091e-13
5.76353e-10
8.54314e-10
1.34463e-09
5.64662e-11
2.01408e-12
1.01665e-09
7.6961e-10
2.29186e-13
1.24332e-12
4.00183e-10
4.64991e-10
6.40371e-13
3.3479e-14
2.25447e-13
7.36e-13
5.93637e-10
1.26856e-14
1.02581e-09
4.01299e-13
1.2949e-13
7.53712e-11
5.16048e-13
6.78239e-10
2.93189e-10
5.63415e-13
4.85624e-13
3.68147e-10
1.05445e-13
1.31343e-09
1.83585e-12
2.36613e-13
3.09359e-10
8.70716e-14
1.90489e-14
6.6353e-10
2.37231e-13
9.50115e-12
1.33598e-13
4.52251e-11
7.60394e-13
2.5793e-10
7.30778e-13
6.35332e-14
2.17941e-10
7.97225e-10
1.61611e-13
7.59991e-10
5.78084e-10
2.56355e-11
1.21259e-10
3.99963e-13
1.19232e-13
9.35894e-13
1.17831e-10
3.32794e-13
1.10203e-09
4.53388e-10
4.84174e-12
2.60476e-13
5.02315e-10
1.07197e-13
1.65942e-13
6.42767e-10
3.82595e-10
1.39591e-13
1.39701e-13
4.76683e-13
9.68944e-13
1.02502e-13
1.83363e-11
8.09448e-12
8.46018e-10
2.90325e-10
1.10907e-13
9.72315e-10
1.56059e-13
1.70183e-10
8.79965e-10
3.72145e-10
2.84285e-10
1.05926e-09
7.39359e-10
1.62046e-13
1.9054e-13
8.69851e-14
4.8702e-10
2.97548e-13
2.65853e-13
5.72204e-14
1.16081e-12
1.16829e-10
1.0678e-09
1.60401e-13
1.25099e-13
4.72314e-10
4.33243e-11
9.14389e-10
3.25139e-10
1.58172e-13
8.84267e-11
4.42102e-12
3.21402e-10
4.56253e-10
5.02972e-10
7.17187e-11
3.11114e-10
1.59129e-13
1.25414e-13
1.25712e-13
2.4533e-10
9.27781e-13
2.47836e-10
1.95904e-10
1.54037e-13
4.39986e-11
9.2026e-13
6.83923e-15
1.36608e-10
1.48199e-13
5.02281e-13
1.24682e-13
1.791e-10
3.74231e-10
4.48154e-10
8.52384e-10
3.11442e-11
3.68119e-10
1.04469e-09
2.30832e-10
6.36022e-10
4.81649e-10
1.30884e-13
7.03396e-10
4.93836e-10
3.73477e-10
4.01364e-10
8.04584e-10
2.40115e-12
6.82598e-10
6.13231e-13
6.20621e-10
3.20051e-13
1.61736e-13
7.94807e-10
2.5967e-13
1.24173e-13
1.10242e-09
3.48317e-10
9.05347e-10
6.69653e-10
2.17143e-12
2.44938e-13
5.73626e-13
1.19121e-10
2.37531e-13
5.28994e-10
1.9172e-10
8.02439e-10
1.35805e-09
1.2729e-10
1.72527e-10
7.2952e-10
1.9618e-13
1.92286e-10
4.65641e-10
9.70562e-14
3.71941e-10
5.39554e-13
4.59096e-10
5.9307e-13
6.69726e-10
1.04054e-12
1.31906e-13
1.22367e-12
9.49403e-13
3.56603e-13
9.69882e-13
3.18339e-11
2.98388e-10
3.78676e-13
2.90801e-13
3.44901e-13
2.72782e-13
6.74172e-10
3.87449e-10
1.30676e-13
2.33623e-13
6.41424e-13
2.75633e-13
6.06632e-10
5.68572e-10
3.70844e-10
4.16765e-10
4.75326e-10
1.20617e-13
7.6079e-14
2.37728e-13
2.847e-13
8.76278e-13
1.05778e-12
4.02581e-13
8.30224e-14
1.43217e-13
3.36635e-11
4.97505e-10
7.81071e-14
3.79749e-13
3.46251e-13
2.41414e-10
4.39112e-10
9.53368e-13
3.30317e-10
4.11136e-13
1.30005e-13
5.55789e-12
2.06846e-12
1.3716e-10
1.35607e-10
2.60863e-10
1.03184e-12
1.10452e-12
5.97338e-10
4.68813e-13
8.40562e-11
5.95789e-10
7.31978e-11
4.90697e-11
3.75265e-10
3.68319e-10
2.55264e-13
1.40529e-12
3.59041e-13
1.10604e-12
7.65907e-11
8.73562e-11
3.1488e-13
3.62701e-13
3.0953e-11
6.5046e-10
2.84078e-11
1.39869e-10
6.6061e-11
3.07833e-10
1.3699e-12
1.38415e-13
3.65999e-13
1.23326e-12
3.50244e-10
2.51292e-10
8.40115e-13
1.00102e-10
5.41975e-13
1.9374e-12
4.42657e-11
3.15527e-13
2.69918e-10
5.27103e-13
2.77065e-13
3.00314e-13
2.17468e-13
1.23692e-13
9.41749e-13
3.60965e-10
2.37091e-13
3.40802e-13
1.72961e-13
1.71208e-10
3.4593e-13
3.24205e-13
5.81052e-10
5.52968e-11
1.57004e-13
3.54288e-13
1.48044e-13
4.72783e-13
7.15174e-13
3.177e-13
2.97548e-10
3.30898e-13
1.78714e-13
3.03063e-12
1.86615e-13
6.61518e-11
1.01957e-12
3.92374e-13
1.8971e-13
2.3881e-12
2.72938e-13
1.2929e-13
1.27446e-12
4.30003e-11
5.35343e-13
3.795e-13
4.38028e-13
1.83134e-10
1.48387e-10
6.14092e-10
2.94351e-10
6.14745e-10
5.68654e-10
2.88517e-10
1.64017e-10
2.1349e-10
5.67486e-11
7.71881e-10
4.79827e-10
5.08714e-10
6.15928e-10
3.71197e-10
2.57095e-10
2.70946e-10
7.75523e-10
4.51444e-10
1.57071e-10
2.93486e-10
3.72463e-12
3.42615e-12
9.26997e-11
6.10818e-10
3.15388e-10
6.24722e-10
1.97433e-10
1.47026e-10
5.32324e-10
3.45038e-10
5.73179e-10
8.26511e-11
5.40068e-10
3.91294e-10
1.9698e-10
2.45654e-10
5.43969e-10
2.12903e-10
4.95837e-10
1.6496e-09
1.46745e-09
1.22959e-09
1.71728e-09
1.63676e-09
2.06095e-09
1.84855e-09
1.5971e-09
1.9287e-09
9.16872e-10
1.14354e-09
9.01897e-10
1.52419e-09
1.96749e-09
8.53795e-10
1.69566e-09
1.73745e-09
1.88984e-09
1.81108e-09
8.64812e-10
8.08864e-10
9.25027e-10
1.49214e-09
1.18583e-09
1.88792e-09
1.84504e-09
1.59537e-09
1.14232e-09
1.91895e-09
1.48427e-09
9.08927e-10
7.80016e-10
1.86506e-09
1.84141e-09
1.16796e-09
8.9439e-10
1.16036e-09
1.5937e-09
7.44742e-10
1.18293e-09
5.4187e-13
7.45713e-13
3.7041e-14
1.69576e-13
6.72871e-13
2.27928e-13
6.97962e-13
9.24297e-13
2.31821e-12
1.66144e-13
1.08195e-13
5.39598e-14
1.46461e-13
4.39322e-13
2.72456e-14
1.1374e-12
5.94063e-13
4.91992e-13
4.78943e-14
2.36254e-14
4.09141e-13
6.7536e-14
1.55809e-13
4.1127e-14
7.90657e-14
6.53851e-13
1.10776e-12
5.30971e-14
3.41571e-13
6.6657e-14
5.30229e-14
6.47126e-13
9.90497e-13
1.48839e-12
3.23266e-14
2.70281e-13
1.66157e-13
4.37514e-13
3.61775e-13
8.13129e-14
2.9581e-09
1.46497e-09
1.70173e-09
1.9746e-09
2.51663e-09
2.41921e-09
1.25028e-09
2.8496e-09
2.6665e-09
2.633e-09
2.05421e-09
2.954e-09
1.62053e-09
2.18306e-09
1.72303e-09
2.06223e-09
1.57432e-09
2.38682e-09
1.92387e-09
1.2864e-09
1.44875e-09
1.1749e-09
3.17398e-09
1.71021e-09
3.06049e-09
1.84989e-09
2.03315e-09
1.61227e-09
2.74447e-09
1.90078e-09
1.14264e-09
1.39876e-09
2.57657e-09
1.99943e-09
1.49918e-09
1.63875e-09
2.10971e-09
2.07679e-09
2.69782e-09
2.05785e-09
7.55387e-13
1.51145e-12
2.01446e-12
2.65905e-13
1.64647e-14
1.02667e-12
6.04114e-10
1.27662e-12
2.55334e-12
1.28859e-12
1.07478e-13
1.07674e-13
1.75072e-13
1.05747e-12
7.85634e-14
1.44613e-13
1.09865e-12
8.20206e-13
4.20799e-13
1.39418e-12
7.46182e-13
9.04405e-13
2.36015e-13
6.95415e-13
7.17361e-13
5.47938e-12
5.28315e-14
9.5267e-13
1.04359e-12
3.43276e-12
9.84063e-14
2.17019e-12
4.65034e-14
3.45932e-10
1.168e-12
1.61955e-13
8.09099e-13
1.65232e-13
5.79274e-13
2.68438e-12
1.65472e-09
4.39021e-11
1.14373e-09
2.36028e-09
2.35358e-09
2.38479e-09
9.36848e-10
1.10606e-09
1.57665e-09
7.49259e-10
1.79547e-09
2.15195e-09
1.30622e-09
2.25021e-09
7.57138e-10
2.40058e-09
4.88791e-10
2.30217e-09
3.24498e-10
1.98015e-09
1.0381e-09
1.10478e-09
1.21104e-09
2.65499e-09
1.04467e-09
6.57547e-10
1.57307e-09
1.5709e-09
6.46913e-11
2.08938e-09
1.78663e-09
2.11146e-09
1.4289e-09
5.91185e-13
2.44022e-11
3.21813e-09
2.92183e-09
1.74588e-09
1.46845e-09
3.40032e-09
1.39782e-13
2.26614e-13
3.4163e-12
3.95365e-12
2.72799e-13
2.42629e-12
5.62537e-13
1.38497e-12
5.58401e-13
7.57317e-13
2.03102e-13
1.1146e-11
4.56609e-13
2.56018e-13
8.28427e-13
4.57397e-14
3.38061e-13
1.19673e-11
2.62587e-12
1.30483e-12
6.32003e-13
2.32268e-13
5.49973e-10
4.01133e-12
2.56737e-12
2.67866e-13
8.12092e-14
1.00486e-12
1.12708e-09
9.59631e-13
2.56227e-12
2.84618e-10
1.78964e-12
2.95222e-13
1.27134e-12
3.0171e-13
1.81595e-12
6.85848e-13
1.1254e-09
1.1411e-12
5.65966e-10
7.51716e-10
1.70091e-09
9.82392e-13
3.03695e-12
1.64302e-09
2.98821e-09
4.28756e-10
9.89795e-10
2.89942e-10
3.38896e-10
5.35349e-13
1.5818e-10
8.82777e-10
1.58472e-09
2.22145e-09
1.48691e-09
1.16744e-09
2.41034e-09
1.30261e-09
1.87296e-10
1.85661e-09
9.6675e-14
8.13824e-13
1.59861e-10
7.67957e-10
6.42463e-10
5.63667e-12
7.13542e-10
9.27146e-10
2.27216e-12
6.73603e-14
1.43763e-09
2.65648e-09
1.33924e-09
8.20778e-13
1.44778e-09
5.38651e-13
8.35334e-14
2.62245e-09
6.83749e-13
2.9812e-13
4.06686e-12
1.8582e-09
5.06348e-11
3.41474e-13
8.84842e-14
4.25155e-13
1.31641e-09
5.72576e-13
2.55777e-12
5.19759e-12
9.52615e-13
1.00654e-09
1.40405e-12
2.87996e-13
1.58554e-13
3.96745e-12
1.68809e-12
7.32785e-13
2.2651e-13
1.38477e-12
1.86027e-10
7.70728e-13
1.41688e-09
1.85461e-12
4.19363e-10
5.28181e-10
4.73938e-13
6.86711e-12
8.55367e-11
7.81015e-11
3.29539e-10
1.09028e-12
3.51476e-13
1.08125e-09
2.05406e-12
6.9286e-10
2.96746e-12
1.67518e-10
1.99783e-09
6.60905e-13
2.61768e-13
6.73316e-14
8.32692e-10
1.14966e-11
8.26545e-12
3.69919e-13
6.17385e-10
4.3893e-10
2.69088e-10
3.56042e-09
5.43424e-11
8.02467e-13
4.13042e-10
5.07339e-12
1.27568e-09
3.77569e-12
4.07996e-13
2.07267e-13
6.20575e-10
6.30405e-10
1.063e-12
8.84535e-10
8.85123e-13
2.46789e-12
1.1488e-12
5.54581e-11
1.13827e-09
2.30941e-09
2.13975e-10
1.55065e-12
4.32095e-14
2.66345e-11
2.0712e-12
1.08769e-13
1.13823e-12
5.76637e-10
9.65082e-10
2.03276e-12
2.7903e-13
1.14936e-11
1.94189e-11
1.57296e-12
7.28043e-10
1.79591e-09
7.13864e-10
5.23284e-11
9.99187e-13
5.42047e-10
2.70056e-10
7.44176e-13
1.01457e-09
2.12242e-12
1.96762e-11
7.12612e-13
1.79581e-12
2.62605e-09
6.02294e-10
1.64472e-09
2.33852e-13
2.00061e-12
9.36032e-13
8.64572e-10
8.44149e-12
2.0022e-13
4.07781e-12
3.92226e-13
1.20864e-12
7.9681e-10
5.84413e-12
6.72488e-10
3.92831e-10
1.61212e-10
9.28686e-10
1.55938e-09
7.12708e-10
3.02033e-13
4.89857e-12
1.71608e-09
8.4285e-13
9.23115e-13
1.62059e-09
3.06446e-10
5.12034e-14
2.98918e-10
1.09595e-09
9.34361e-10
1.6474e-13
7.55252e-13
7.28277e-10
7.46302e-14
7.94525e-13
2.90026e-09
1.76673e-09
6.08433e-12
1.03845e-11
1.68359e-12
6.12107e-12
1.23005e-09
1.19034e-09
1.94001e-10
8.23601e-10
9.91505e-13
2.18939e-09
2.68974e-12
1.07856e-09
5.55574e-10
1.56924e-09
5.33993e-14
5.48388e-13
3.18179e-12
1.85545e-09
5.94419e-13
4.82406e-10
2.34328e-12
1.83885e-09
1.04362e-09
6.33191e-13
1.44314e-11
7.17912e-10
5.74068e-13
9.06187e-13
7.7344e-10
1.0584e-11
7.48533e-13
3.18575e-13
1.50241e-13
1.74444e-09
3.96242e-11
4.42648e-13
7.99225e-10
1.46018e-09
2.10156e-13
3.6772e-13
4.07341e-10
1.37749e-09
2.66929e-11
3.73596e-12
2.01947e-13
1.01687e-11
7.96498e-13
1.22966e-12
2.02946e-10
8.56202e-13
1.51587e-09
6.25602e-10
1.16144e-12
2.78668e-13
9.13772e-12
9.61811e-12
1.99985e-12
7.74395e-13
3.69953e-13
2.66995e-13
5.71794e-13
3.29473e-10
1.28026e-11
1.2163e-13
1.32956e-12
7.92131e-12
5.12156e-13
7.42524e-10
5.69922e-11
4.12304e-10
1.54356e-09
1.86043e-09
1.58979e-09
2.04747e-13
4.04349e-13
8.85441e-10
2.22055e-09
1.07197e-12
9.97608e-10
1.94952e-09
2.6432e-13
4.72702e-13
5.23161e-10
1.15576e-09
3.72738e-10
1.60642e-12
2.02956e-13
4.73046e-10
1.19061e-12
2.71725e-12
2.8769e-13
9.3252e-13
1.58235e-09
1.50113e-09
2.97266e-09
1.46054e-13
1.63631e-12
8.46833e-12
5.50929e-10
1.65644e-09
4.67796e-13
2.31664e-12
7.42111e-10
1.89133e-09
1.1861e-09
1.06037e-13
3.72121e-10
1.68301e-13
8.40306e-13
6.81783e-11
1.99148e-13
7.53408e-10
4.83999e-10
2.72888e-09
4.7698e-14
6.52073e-13
1.85124e-10
1.94994e-13
3.38386e-12
1.60171e-12
1.80078e-13
1.38916e-12
2.86705e-12
1.78886e-09
9.13312e-12
6.04021e-10
4.83336e-10
1.00255e-09
2.01333e-09
2.54741e-09
4.71752e-11
1.71937e-12
8.69441e-14
4.65224e-13
5.64397e-13
1.45829e-11
9.07079e-10
3.64893e-10
9.27716e-10
8.22139e-14
4.83971e-10
3.39928e-10
2.75579e-13
2.58357e-13
3.22087e-09
2.10167e-10
1.79263e-13
2.51179e-09
3.02315e-11
1.20982e-12
1.19197e-09
3.91603e-13
4.00526e-10
1.21717e-13
1.14111e-10
1.44949e-09
3.66969e-13
4.13139e-09
4.66458e-12
5.70222e-13
7.64768e-13
1.27244e-09
1.6759e-09
5.34929e-13
3.48479e-12
6.47906e-13
1.33301e-13
2.51606e-12
8.48959e-13
1.59971e-13
1.55483e-11
2.83941e-12
7.54727e-13
9.35837e-10
4.12764e-13
8.63398e-14
2.29207e-13
5.24024e-13
4.75976e-13
2.42702e-09
2.62823e-13
2.61775e-09
4.46646e-10
1.4639e-10
2.43731e-13
6.85857e-13
6.20405e-10
3.23992e-13
1.42968e-09
3.76331e-13
2.0301e-13
8.10047e-10
1.8601e-12
2.16172e-09
5.4165e-13
7.35263e-10
1.56114e-12
4.92776e-14
3.6474e-09
1.48733e-09
3.06088e-13
6.40612e-11
8.99536e-12
1.22318e-12
4.39473e-10
9.31823e-10
1.07352e-09
2.30003e-13
1.27123e-09
2.85005e-09
2.02263e-10
1.56665e-12
1.25858e-09
1.02955e-09
2.37175e-09
1.07243e-09
2.10994e-10
6.31941e-10
3.24325e-10
2.75335e-09
1.93495e-12
1.44799e-13
2.49666e-12
1.35323e-12
3.36045e-09
1.92474e-12
1.17436e-10
9.78687e-10
1.98376e-12
7.11346e-10
9.50459e-13
1.86822e-09
1.34083e-09
6.88762e-14
6.19452e-13
1.41204e-09
1.01482e-09
1.0683e-13
2.57232e-12
6.99343e-13
6.56361e-12
2.80364e-13
3.25668e-13
1.06898e-09
1.36858e-13
2.3505e-13
1.10167e-09
1.31994e-12
1.66799e-12
6.26089e-14
1.60482e-13
2.94829e-13
1.54373e-09
2.1016e-13
1.22279e-12
8.02304e-14
1.69432e-09
4.10333e-13
3.92387e-10
9.79843e-13
1.16878e-10
3.13433e-09
5.32531e-13
2.06563e-12
5.97637e-14
1.32938e-13
2.17474e-14
2.17267e-10
1.99843e-13
8.03022e-13
5.88546e-13
3.72595e-13
3.98133e-13
1.08891e-09
1.19652e-09
4.38206e-14
1.15815e-12
2.3922e-09
2.29011e-09
2.07474e-09
1.30541e-14
4.14072e-10
2.18552e-12
1.42668e-09
3.25795e-10
1.11763e-09
1.61598e-12
2.63669e-13
9.75782e-11
2.06451e-09
7.52681e-10
5.6658e-10
4.96336e-13
1.11753e-09
6.41622e-10
5.85211e-13
4.97411e-13
9.3005e-11
1.93458e-12
2.03076e-12
5.56913e-13
2.42549e-13
6.6673e-13
1.3681e-09
1.96641e-09
1.2076e-09
3.96656e-12
3.17569e-13
5.29757e-13
1.29565e-12
3.4148e-13
6.25982e-10
1.18543e-11
1.68209e-13
2.27004e-13
1.51257e-09
2.00281e-13
5.34093e-13
7.39554e-10
2.2921e-13
1.75351e-09
1.80626e-13
1.46717e-09
9.76918e-13
8.06358e-14
2.98146e-13
1.36701e-13
1.73955e-12
1.51998e-12
2.33366e-13
1.45541e-12
1.99785e-12
5.1546e-13
4.04127e-10
1.5844e-09
4.41166e-13
2.08709e-09
1.03299e-12
2.28488e-11
1.08097e-09
8.59956e-10
2.09031e-12
1.34626e-13
1.15756e-12
1.77968e-11
3.26829e-13
1.19134e-13
2.57886e-13
1.11739e-09
1.08351e-09
2.45544e-10
2.74162e-13
1.0599e-09
1.56768e-09
2.31053e-09
1.31512e-12
1.22278e-09
3.54945e-13
1.0149e-09
3.44143e-10
1.09336e-13
2.34289e-12
1.70195e-10
2.22485e-10
9.55047e-10
2.82123e-13
1.07309e-10
1.1038e-09
8.11674e-13
2.19046e-10
8.4097e-10
1.70312e-13
4.95873e-10
1.95726e-13
6.26934e-12
3.6318e-13
3.15847e-13
3.78949e-13
2.75739e-12
1.6587e-12
3.62208e-13
8.00943e-10
2.53816e-11
1.88222e-09
1.75423e-13
5.83057e-10
4.63442e-10
5.60689e-10
4.82484e-13
2.60028e-13
9.30891e-13
1.95084e-12
1.89474e-13
1.54069e-11
2.38661e-10
6.87173e-14
6.33748e-13
5.43209e-10
5.69073e-10
5.8484e-11
1.14476e-09
1.36165e-13
3.53267e-10
3.42717e-10
3.09215e-13
5.06275e-11
1.95116e-10
2.54459e-11
7.28963e-10
6.95461e-10
1.75753e-13
2.02105e-10
2.02299e-13
6.97979e-11
5.71181e-10
8.42056e-10
1.29322e-12
1.06171e-09
4.28827e-13
6.61754e-13
1.7017e-13
8.5757e-14
2.04017e-13
4.34769e-10
5.99596e-10
4.63389e-14
3.23896e-13
9.85989e-14
1.19118e-09
9.13585e-10
1.82121e-10
3.22658e-10
2.60718e-13
1.38302e-13
1.99102e-10
4.82216e-12
1.38514e-09
3.53421e-10
1.39912e-09
1.70062e-13
1.25215e-10
8.46525e-10
4.94697e-11
2.92473e-10
1.17683e-09
2.41881e-13
2.86091e-13
1.34118e-12
5.4746e-10
8.00373e-13
1.44149e-09
5.35632e-10
1.46431e-09
2.49836e-13
4.77871e-13
4.5702e-12
2.05455e-13
1.13046e-09
7.7332e-10
6.52871e-10
3.01652e-13
8.49553e-10
5.42054e-13
4.00496e-13
1.77553e-13
9.4021e-11
1.18567e-12
5.57298e-14
3.02204e-13
4.55644e-13
1.33843e-09
1.7976e-13
8.53405e-10
4.39689e-11
6.28797e-13
1.39196e-13
1.09823e-13
1.27918e-13
4.40564e-13
1.11961e-09
1.92214e-13
2.58211e-13
1.18354e-13
4.28839e-12
3.95124e-13
5.91507e-13
3.27734e-13
8.28803e-10
2.3268e-13
4.66618e-10
2.09873e-13
7.10529e-14
3.58224e-10
3.87778e-10
5.93957e-10
2.92901e-10
3.79471e-13
3.50249e-13
1.57841e-13
4.18713e-10
1.37881e-11
9.90006e-14
1.00331e-09
1.36994e-09
4.84931e-10
4.21424e-13
4.88002e-14
1.79595e-13
1.64142e-10
8.04642e-12
1.83482e-10
5.5332e-10
7.62773e-11
2.81957e-13
3.56751e-13
1.28385e-09
2.6078e-13
4.08906e-13
2.14345e-13
1.37762e-10
4.73575e-10
3.02696e-13
3.1051e-11
1.35462e-10
2.30676e-10
1.2288e-09
4.64033e-10
9.07417e-10
1.5989e-10
3.1166e-10
7.8497e-10
9.70864e-14
6.03799e-13
2.15677e-13
2.57852e-13
2.52701e-13
4.56514e-10
7.22354e-12
1.06521e-09
1.72899e-13
1.20492e-13
2.88519e-13
1.20024e-13
5.15368e-13
3.7873e-14
6.51129e-10
1.71607e-13
1.22841e-13
2.64749e-13
9.39199e-13
3.73389e-13
2.6515e-10
1.23125e-10
2.98229e-14
2.89265e-13
1.03917e-13
1.17321e-10
1.43071e-13
4.95893e-10
1.0823e-13
1.11937e-13
8.80604e-10
1.79664e-14
1.72492e-13
6.75839e-10
3.35551e-14
2.14541e-10
8.80195e-11
6.05689e-14
5.54181e-14
5.99103e-11
2.56018e-10
1.29994e-10
2.65608e-10
2.93875e-10
2.50756e-10
1.69457e-11
8.03442e-13
1.21124e-13
2.96621e-10
4.08279e-10
1.77578e-13
5.17795e-10
1.23437e-09
7.8555e-10
1.45624e-10
7.02923e-13
4.16799e-14
7.22112e-14
4.55969e-10
2.11739e-13
3.76426e-10
9.54091e-10
1.11336e-10
4.99605e-13
5.91235e-10
6.08937e-10
2.3181e-13
8.20544e-14
1.18587e-09
3.1527e-10
2.98674e-10
1.05044e-13
5.08396e-15
6.45353e-10
2.77684e-13
1.67529e-10
5.09181e-13
5.97959e-14
1.01486e-13
3.58081e-10
6.79206e-14
5.09542e-13
2.23772e-10
6.71361e-13
1.43128e-10
2.07353e-13
2.21449e-13
8.03042e-10
5.17651e-10
5.04395e-14
9.79998e-14
1.81551e-14
5.40581e-14
4.00841e-14
6.14624e-14
1.26491e-10
1.85947e-13
5.55385e-13
1.2495e-12
6.97498e-14
4.13748e-14
3.58533e-13
9.27288e-14
9.23133e-14
4.63402e-14
6.93853e-14
3.26036e-10
6.47743e-10
3.85422e-10
6.59444e-14
6.55325e-14
2.76395e-10
7.60133e-11
3.90558e-10
4.54698e-13
7.53141e-14
2.50389e-10
1.89333e-12
3.85926e-13
9.75068e-14
5.19878e-10
1.01284e-13
4.00496e-13
3.98436e-14
4.25668e-14
2.35028e-10
1.17081e-13
3.60454e-14
1.06922e-12
5.31218e-14
2.5594e-10
9.58558e-10
8.23249e-14
1.90028e-10
3.26411e-13
4.83481e-14
2.87476e-14
2.23663e-14
3.24272e-10
6.59045e-14
2.38672e-10
1.09872e-13
1.50155e-13
4.46925e-10
9.13479e-14
7.85281e-10
3.87877e-14
8.08499e-11
4.08638e-14
1.44701e-13
1.37751e-12
1.65624e-13
3.04372e-10
1.06651e-13
5.70634e-10
2.18562e-13
3.69955e-14
2.09963e-13
7.8912e-14
2.033e-10
3.38144e-10
3.90848e-14
5.44317e-13
3.60053e-14
1.15654e-10
5.69185e-11
1.49052e-13
4.06363e-10
1.07337e-13
3.65397e-13
3.67001e-14
6.72542e-13
6.22658e-10
1.98565e-13
1.07158e-10
1.75299e-10
2.08007e-10
1.84729e-13
9.29901e-15
1.71178e-10
9.70803e-14
5.14547e-10
7.25002e-10
1.76989e-13
1.7171e-13
2.98556e-10
1.74278e-13
7.21359e-14
5.71614e-13
4.8721e-12
8.10113e-14
7.27393e-14
7.20428e-13
5.73502e-14
9.11846e-13
2.50452e-10
1.59861e-10
1.94917e-12
4.28453e-14
5.91968e-14
1.84685e-11
3.23119e-14
3.92126e-10
1.19194e-13
9.66417e-14
7.5575e-13
2.57413e-10
1.42905e-13
2.15377e-10
2.0174e-13
1.65453e-13
4.08867e-13
5.54915e-13
4.64975e-10
1.26518e-12
1.00434e-11
1.75263e-10
2.78789e-13
6.35006e-10
3.33489e-13
4.65786e-13
7.26022e-11
7.34654e-11
2.32031e-13
7.42678e-11
3.47364e-13
4.89686e-10
1.54394e-12
4.73075e-10
1.68437e-13
5.86751e-13
4.05175e-13
1.12921e-11
3.98348e-11
1.58716e-13
1.11661e-10
5.39922e-12
2.75387e-11
2.3288e-11
4.43979e-13