/*--------------------------------*- C++ -*----------------------------------*\
  =========                 |
  \\      /  F ield         | OpenFOAM: The Open Source CFD Toolbox
   \\    /   O peration     | Website:  https://openfoam.org
    \\  /    A nd           | Version:  10
     \\/     M anipulation  |
\*---------------------------------------------------------------------------*/
FoamFile
{
    format      ascii;
    class       volSymmTensorField;
    location    "50";
    object      UPrime2Mean;
}
// * * * * * * * * * * * * * * * * * * * * * * * * * * * * * * * * * * * * * //

dimensions      [0 2 -2 0 0 0 0];

internalField   nonuniform List<symmTensor> 
25600
(
(0.00466528 8.22973e-07 3.1413e-05 1.61779e-07 -5.22917e-08 0.000192745)
(0.00456468 2.18027e-06 0.000122414 1.73465e-07 4.64133e-08 0.000174151)
(0.00451364 -2.80812e-07 0.000109182 1.76731e-07 2.86886e-07 0.000158195)
(0.00440279 -5.90593e-06 6.27981e-05 1.91995e-07 6.99493e-07 0.000159656)
(0.00456301 -4.64322e-06 -3.45681e-05 1.96852e-07 9.35572e-07 0.000176709)
(0.00457114 5.98228e-07 -1.70449e-05 1.92598e-07 7.40924e-07 0.000192332)
(0.00442534 9.78364e-07 3.8436e-05 2.10199e-07 7.04001e-07 0.000215873)
(0.00442109 -1.69459e-06 4.94696e-05 2.48505e-07 1.171e-06 0.000251864)
(0.00461933 -5.67261e-06 2.39216e-05 2.92694e-07 1.26072e-06 0.000269093)
(0.00470051 -3.59506e-06 1.04914e-05 2.86414e-07 1.00795e-06 0.000261127)
(0.00480782 6.05797e-07 8.2181e-05 2.60474e-07 5.15489e-07 0.000245031)
(0.00463398 1.68085e-06 0.00015912 2.54278e-07 3.76142e-07 0.000240436)
(0.00470789 -7.22678e-07 0.000163925 2.40021e-07 2.5906e-07 0.000241016)
(0.00452893 -5.13699e-06 8.54009e-05 2.35735e-07 7.28032e-07 0.000234249)
(0.00474033 -5.58627e-06 1.70235e-05 2.58509e-07 1.13386e-06 0.000232124)
(0.0046176 5.54027e-07 7.63235e-05 2.96423e-07 4.04356e-07 0.000262701)
(0.00461102 3.99155e-06 0.000128983 3.16867e-07 -6.81208e-07 0.000296024)
(0.00440431 -2.62103e-06 0.000132397 3.06514e-07 -1.09521e-06 0.000278212)
(0.00456203 -8.68626e-06 3.08323e-05 3.05002e-07 -7.66342e-07 0.000240027)
(0.0046642 -7.87332e-06 -3.16055e-05 2.6398e-07 -1.28545e-07 0.00021656)
(0.0046633 -9.70233e-09 4.91846e-05 2.16588e-07 -1.02039e-08 0.000199749)
(0.00441421 1.2147e-06 0.000142399 2.03003e-07 -1.53757e-07 0.000191771)
(0.00433013 -1.66521e-06 0.000165291 1.86711e-07 -6.09557e-07 0.000201022)
(0.00452791 -5.85259e-06 0.00011018 1.87498e-07 -7.5462e-07 0.000216764)
(0.0045903 -4.74615e-06 4.88194e-05 1.70057e-07 -4.99902e-07 0.000219902)
(0.0047537 -2.74563e-07 7.73277e-05 1.52198e-07 -3.21213e-07 0.000217122)
(0.00443945 3.72716e-06 0.000154722 1.60588e-07 3.73145e-08 0.000213297)
(0.0042686 -6.59307e-07 0.000173096 1.59965e-07 -3.26331e-07 0.00020997)
(0.00435783 -5.07016e-06 6.84333e-05 1.8679e-07 -1.07502e-06 0.000198627)
(0.00437177 -4.97449e-06 3.0826e-05 1.87887e-07 -1.36468e-06 0.000188072)
(0.00438509 9.03348e-07 3.95859e-05 1.87208e-07 -1.27445e-06 0.000177431)
(0.00435241 3.30011e-06 0.000103567 2.09705e-07 -9.45146e-07 0.000168559)
(0.00421624 -1.53464e-06 0.000104487 2.19621e-07 -6.99453e-07 0.000167162)
(0.00424766 -6.62875e-06 3.42188e-05 2.31076e-07 -7.80407e-07 0.000191425)
(0.00441395 -6.05646e-06 -1.65606e-05 2.1844e-07 -9.0287e-07 0.000219226)
(0.00450187 1.15899e-06 2.08327e-05 2.06854e-07 -1.04927e-06 0.000221049)
(0.00440781 1.5233e-06 4.993e-05 2.1203e-07 -6.90299e-07 0.000202269)
(0.00438225 -3.41649e-06 8.43896e-05 1.9025e-07 -3.47531e-07 0.000184096)
(0.00456136 -7.91172e-06 3.3984e-05 1.76392e-07 -1.71488e-07 0.000186405)
(0.00478319 -5.92878e-06 -1.42322e-05 1.6357e-07 -1.17485e-07 0.000198141)
(0.0220184 -8.48619e-05 0.000475205 5.31475e-06 6.58108e-06 0.000945301)
(0.0215917 -6.75929e-05 0.000679171 5.62094e-06 6.3407e-06 0.000859413)
(0.0219659 -7.34582e-05 0.000617403 6.12464e-06 8.88395e-06 0.000798135)
(0.0210092 -9.06548e-05 0.000507504 6.36069e-06 1.13046e-05 0.000808997)
(0.0213816 -0.000106052 0.000170287 6.49324e-06 1.32782e-05 0.000894376)
(0.0210486 -8.4594e-05 -8.97716e-06 6.53958e-06 1.41254e-05 0.000978911)
(0.0210885 -7.21723e-05 -9.08717e-06 6.9507e-06 1.47046e-05 0.00109647)
(0.0208667 -9.0204e-05 2.56208e-05 7.81233e-06 8.4804e-06 0.00123774)
(0.0217652 -0.000125174 0.000321225 8.24066e-06 -1.14782e-06 0.00125895)
(0.0221003 -0.000141863 0.000499187 7.08669e-06 -4.45209e-06 0.00122729)
(0.0233415 -0.000120511 0.000595435 6.16167e-06 -4.24246e-06 0.00119513)
(0.0224183 -9.42717e-05 0.000607526 5.89463e-06 -1.73904e-06 0.0012097)
(0.023325 -9.48354e-05 0.000578051 6.06688e-06 -2.21214e-06 0.00122034)
(0.0216156 -9.7245e-05 0.000482465 5.91731e-06 -1.15394e-06 0.00118277)
(0.0223498 -0.000100226 0.000307647 6.45093e-06 -3.07489e-07 0.00122191)
(0.0215671 -8.22713e-05 0.00043284 7.59327e-06 -7.53285e-06 0.00143048)
(0.0228608 -8.43764e-05 0.000622992 7.97792e-06 -1.43539e-05 0.00160561)
(0.0218937 -9.28683e-05 0.000664238 7.93789e-06 -1.3325e-05 0.00149897)
(0.0222841 -0.000120984 0.000584129 8.27347e-06 -6.89626e-06 0.00125833)
(0.0219163 -0.000126259 0.000393092 7.89679e-06 -1.53078e-06 0.00108178)
(0.0217507 -0.000107546 0.000521224 6.91104e-06 -4.50639e-07 0.000992826)
(0.0216336 -7.57476e-05 0.000696804 6.30238e-06 -2.62265e-06 0.000997689)
(0.0208334 -8.21024e-05 0.000958275 5.57012e-06 -8.01607e-06 0.00108911)
(0.0219225 -0.000100122 0.00104173 5.27961e-06 -8.97843e-06 0.0011809)
(0.0217059 -0.000110348 0.00088487 5.27283e-06 -5.16866e-06 0.00117804)
(0.0226071 -9.44267e-05 0.000860742 4.83045e-06 -2.5889e-06 0.0011302)
(0.0213284 -2.7383e-05 0.000858948 4.37733e-06 7.64914e-08 0.00107258)
(0.0200155 -2.08013e-05 0.000959489 4.29357e-06 1.41464e-06 0.00103516)
(0.0196488 -4.63499e-05 0.000709692 4.47809e-06 -4.80111e-07 0.000997564)
(0.0197606 -6.49966e-05 0.000533644 4.56245e-06 -2.5652e-06 0.000998189)
(0.019668 -6.82921e-05 0.000417892 4.58395e-06 -7.41019e-07 0.000969747)
(0.0200406 -5.00998e-05 0.000539998 5.12561e-06 5.77541e-07 0.000915603)
(0.0195149 -4.7186e-05 0.000574271 5.81977e-06 3.44526e-06 0.000890697)
(0.0192645 -7.28892e-05 0.000467532 6.22646e-06 5.2077e-06 0.000984337)
(0.0196002 -9.53122e-05 0.000306508 6.45084e-06 7.19024e-06 0.00109507)
(0.0197994 -9.32639e-05 0.000276342 6.71685e-06 6.81049e-06 0.0010686)
(0.0207969 -8.08111e-05 0.000317811 7.1504e-06 3.96193e-06 0.000971748)
(0.0205571 -9.14621e-05 0.000528115 6.32937e-06 3.50648e-06 0.000908049)
(0.0215883 -0.000111384 0.000525925 5.43929e-06 6.89524e-06 0.000916531)
(0.0214191 -0.000106247 0.000455358 5.3099e-06 8.11371e-06 0.000972532)
(0.0385282 -0.000319377 0.00112539 3.01584e-05 3.16129e-05 0.00174753)
(0.038302 -0.000323179 0.00126041 3.28679e-05 2.65452e-05 0.00165915)
(0.0395691 -0.000326932 0.0011436 3.48769e-05 2.77045e-05 0.00163243)
(0.0374771 -0.00032602 0.000885597 3.23479e-05 3.32009e-05 0.00166824)
(0.0390077 -0.000335919 0.000534729 2.85877e-05 4.58968e-05 0.00180271)
(0.036899 -0.000301235 -2.80505e-05 2.83643e-05 5.40141e-05 0.00193781)
(0.0380514 -0.000281452 -0.000111677 3.41822e-05 4.67973e-05 0.00207088)
(0.0364059 -0.000324574 8.96142e-05 4.56644e-05 1.97813e-05 0.00214811)
(0.0382744 -0.000417118 0.000586276 5.07172e-05 -2.63155e-07 0.00197238)
(0.0374194 -0.000444494 0.000750959 4.24131e-05 -3.89025e-06 0.00188441)
(0.0395864 -0.000411118 0.000733553 3.63272e-05 -2.29048e-06 0.00192334)
(0.0379539 -0.000348818 0.000648086 3.47382e-05 1.37174e-05 0.00205054)
(0.0394624 -0.000339292 0.000526103 3.58106e-05 2.34738e-05 0.00213984)
(0.0362526 -0.000315922 0.000430522 3.37854e-05 1.17628e-05 0.00214497)
(0.0376308 -0.000317721 0.000209222 3.10576e-05 -3.51106e-06 0.00224573)
(0.0376643 -0.000304063 0.000445415 3.20025e-05 -1.35776e-05 0.00256416)
(0.040722 -0.000352726 0.000643779 3.5293e-05 -7.54771e-08 0.00279713)
(0.0393095 -0.000392382 0.00081373 3.84606e-05 1.27218e-05 0.00264277)
(0.0403789 -0.000418479 0.00106252 4.17225e-05 1.90171e-05 0.00226538)
(0.0383871 -0.000371245 0.00114429 4.18245e-05 1.92102e-05 0.00198187)
(0.0385144 -0.000362422 0.00136775 3.76829e-05 1.56606e-05 0.00191102)
(0.0389483 -0.000343865 0.0014843 3.41652e-05 1.33878e-05 0.00210709)
(0.038918 -0.000366586 0.00183311 3.11898e-05 5.61988e-06 0.00223495)
(0.0395576 -0.000376204 0.00200737 2.80842e-05 -4.41244e-06 0.00216821)
(0.0391456 -0.000328857 0.00202428 2.5288e-05 -7.84719e-06 0.00207235)
(0.0391809 -0.000273243 0.00194104 2.34302e-05 -4.32802e-06 0.0020686)
(0.0371736 -0.00012723 0.00195181 2.18848e-05 1.21248e-05 0.00204093)
(0.036083 -9.72718e-05 0.00179635 2.22996e-05 2.78242e-05 0.00195848)
(0.0342699 -0.000141729 0.00135413 2.31052e-05 3.5384e-05 0.00184654)
(0.0349507 -0.000185527 0.00084639 2.34835e-05 4.07509e-05 0.0018559)
(0.0345181 -0.000220128 0.000636374 2.45327e-05 5.33408e-05 0.0018383)
(0.0348623 -0.000223415 0.000878842 2.73277e-05 5.38934e-05 0.00177046)
(0.0344402 -0.000209234 0.0010452 3.01452e-05 5.9314e-05 0.0017794)
(0.0342131 -0.000248892 0.00084292 3.1574e-05 6.51024e-05 0.00184593)
(0.034461 -0.00026287 0.000734241 3.32736e-05 7.23382e-05 0.00187306)
(0.0338098 -0.000296492 0.000646223 3.60861e-05 6.06239e-05 0.00181035)
(0.0355773 -0.000318207 0.000764303 3.89993e-05 3.43013e-05 0.00171875)
(0.0356774 -0.000350528 0.00101311 3.54276e-05 2.5453e-05 0.00165264)
(0.0376535 -0.000375109 0.00112567 3.03422e-05 3.64842e-05 0.00167781)
(0.0369363 -0.000336511 0.00100318 2.90712e-05 3.93858e-05 0.00178699)
(0.0439603 -0.000589306 0.00112137 8.61995e-05 7.33984e-05 0.00243679)
(0.0445287 -0.000625895 0.00117842 9.52798e-05 8.01564e-05 0.00237967)
(0.0465008 -0.000610448 0.00117672 9.70072e-05 7.27535e-05 0.00236907)
(0.0441298 -0.000561156 0.000987288 8.74656e-05 7.54468e-05 0.00245483)
(0.0466275 -0.000571811 0.000809993 7.62994e-05 9.87145e-05 0.00259481)
(0.0441618 -0.00052793 0.000187386 7.85312e-05 0.000112573 0.00265486)
(0.0452128 -0.000491601 0.000315076 9.88294e-05 8.23922e-05 0.00258116)
(0.043126 -0.000556602 0.000684458 0.000131557 3.26114e-05 0.00250808)
(0.0451957 -0.000632018 0.00103256 0.000136586 2.2765e-05 0.00225138)
(0.0426914 -0.00060179 0.000744164 0.000118349 2.48328e-05 0.00216293)
(0.0445268 -0.000553859 0.000639609 0.000106734 1.58158e-05 0.00227024)
(0.0411759 -0.000474159 0.000588818 0.000108536 2.92295e-05 0.00242714)
(0.0438796 -0.000489193 0.00065924 0.000115432 5.5749e-05 0.00264361)
(0.0409195 -0.000502169 0.000660413 0.000107258 4.64802e-05 0.0028613)
(0.0434771 -0.000566181 0.000386411 9.12245e-05 3.41624e-05 0.00291404)
(0.0443445 -0.000588158 0.000506922 8.66743e-05 3.43486e-05 0.00295769)
(0.0493007 -0.000672823 0.000832549 9.52454e-05 7.39539e-05 0.00293465)
(0.0473601 -0.000670343 0.00128379 0.000105234 8.66309e-05 0.00282037)
(0.0480647 -0.000643307 0.00185969 0.000111247 6.50693e-05 0.00270111)
(0.044224 -0.000527555 0.0020003 0.000108983 4.68149e-05 0.00271196)
(0.0458863 -0.000532851 0.00200335 0.000100602 7.43682e-05 0.00287155)
(0.0453221 -0.000552219 0.00169935 9.81646e-05 9.28943e-05 0.00320719)
(0.0464321 -0.000642536 0.00186274 9.40428e-05 6.5446e-05 0.00299755)
(0.0454293 -0.000611997 0.00212162 7.81324e-05 9.56339e-06 0.00261926)
(0.0457557 -0.000500142 0.00227575 6.50266e-05 -1.53167e-05 0.00249713)
(0.0447127 -0.000387435 0.00213486 5.85088e-05 -1.01713e-05 0.00272651)
(0.0423904 -0.000216002 0.00230315 5.50288e-05 2.83263e-05 0.00286632)
(0.0420145 -0.000191 0.00215604 5.84773e-05 6.80435e-05 0.00274449)
(0.0399612 -0.000257963 0.00166763 6.40902e-05 0.000100309 0.00260995)
(0.0405434 -0.000326062 0.000825404 7.04766e-05 0.000126249 0.00255432)
(0.0407577 -0.000357882 0.000529126 7.76784e-05 0.000142042 0.00247671)
(0.0410564 -0.000388511 0.000985426 8.46617e-05 0.0001219 0.00249182)
(0.0420526 -0.000367465 0.00144003 9.17995e-05 0.000121374 0.00257671)
(0.042033 -0.000423873 0.00129203 9.49145e-05 0.000136036 0.00246885)
(0.042255 -0.000402189 0.00125629 9.31949e-05 0.000148842 0.0023376)
(0.041002 -0.000468476 0.0011984 9.50799e-05 0.00012665 0.002394)
(0.0424227 -0.000545314 0.00128487 9.87185e-05 8.41835e-05 0.00245037)
(0.0407055 -0.000590231 0.00121507 9.42922e-05 6.0706e-05 0.00235361)
(0.0424852 -0.000635175 0.00133179 8.50332e-05 6.06558e-05 0.00234548)
(0.0415535 -0.000595491 0.000970156 8.21921e-05 6.48866e-05 0.00245393)
(0.0413959 -0.000736823 0.000679004 0.000172287 0.000125403 0.00269592)
(0.0410408 -0.00079817 0.000825112 0.000191146 0.000142801 0.00250109)
(0.0436507 -0.000743531 0.00109351 0.000197513 0.00013313 0.00251881)
(0.0421724 -0.000689111 0.000859232 0.000183509 0.000130916 0.00271541)
(0.0453206 -0.000750191 0.000837511 0.000171434 0.000138656 0.00288517)
(0.0425893 -0.000668724 0.000583542 0.000179417 0.000122227 0.00284406)
(0.0434611 -0.000655652 0.00100871 0.000209867 6.76516e-05 0.00265573)
(0.0417668 -0.00072155 0.0012293 0.000250456 2.64593e-05 0.00263074)
(0.0427412 -0.000693958 0.00121896 0.00025004 2.44065e-05 0.00247559)
(0.0404212 -0.000566219 0.000689191 0.000227145 2.05218e-05 0.00240048)
(0.0409776 -0.000501851 0.000785922 0.000216721 -9.3441e-06 0.00240819)
(0.0382808 -0.000487563 0.000862507 0.000230468 -3.82378e-06 0.00248158)
(0.0403894 -0.000617239 0.00106349 0.000245743 5.31948e-05 0.00273409)
(0.0402854 -0.000644485 0.0011189 0.000233127 9.5472e-05 0.0029153)
(0.0428435 -0.000708861 0.000759104 0.000200337 9.15127e-05 0.00286385)
(0.0452873 -0.00073053 0.000619975 0.000187121 8.81009e-05 0.0026764)
(0.0481668 -0.000815757 0.0010416 0.000208974 0.000115276 0.00253342)
(0.0469954 -0.000788971 0.00171838 0.000225537 0.000113633 0.00250355)
(0.0462785 -0.000721323 0.00221043 0.000218342 8.3624e-05 0.00262522)
(0.0421984 -0.00054496 0.00205631 0.000202255 9.29662e-05 0.00284789)
(0.0437501 -0.000612889 0.00154659 0.000198233 0.000176667 0.00311434)
(0.0430755 -0.000688571 0.00103468 0.000205128 0.000202187 0.00339592)
(0.0452703 -0.000798144 0.00115173 0.000191746 0.000133607 0.00299747)
(0.0424814 -0.000641942 0.00159979 0.000156523 5.28832e-05 0.0026044)
(0.0428345 -0.000491512 0.00168506 0.000132357 2.11685e-05 0.00261192)
(0.0401043 -0.000395342 0.00159489 0.000120194 1.02726e-05 0.00303657)
(0.0393701 -0.000283829 0.00201468 0.000114309 3.3495e-05 0.00338166)
(0.0381125 -0.000296951 0.00223033 0.000120759 7.6766e-05 0.00328564)
(0.0378791 -0.000308964 0.00187731 0.000131025 0.000132892 0.00321494)
(0.0371683 -0.000360305 0.000881413 0.000148819 0.000161744 0.00320435)
(0.0385455 -0.000417604 0.00062511 0.000169937 0.000161334 0.00303024)
(0.038811 -0.000511457 0.00125259 0.000186595 0.00012549 0.00299815)
(0.0405124 -0.000503649 0.00177602 0.000200192 0.000126659 0.00304063)
(0.0405172 -0.000564151 0.00161075 0.000200102 0.000148924 0.00282699)
(0.04171 -0.00053885 0.00164594 0.000189 0.000188558 0.00273033)
(0.0407788 -0.000631638 0.00169467 0.000187081 0.000172201 0.00291168)
(0.0419787 -0.000729183 0.00188529 0.000188982 0.000134496 0.00299606)
(0.0397522 -0.000760209 0.00156388 0.000184489 0.000103028 0.00288455)
(0.0415745 -0.000809533 0.00128251 0.000173229 8.47631e-05 0.00287687)
(0.0394755 -0.000738026 0.00055073 0.000164831 9.19393e-05 0.00284244)
(0.0357942 -0.000805392 0.000810727 0.00028029 0.000161618 0.00252901)
(0.0348772 -0.000829526 0.0010768 0.000307987 0.000147193 0.00236085)
(0.0371071 -0.000795531 0.00119945 0.000318883 0.000144985 0.00250435)
(0.0374364 -0.000755943 0.00091998 0.000307984 0.000150339 0.00279491)
(0.0382129 -0.000861894 0.000963252 0.000300431 0.000133064 0.00295191)
(0.0374521 -0.000814616 0.00105062 0.000306359 7.9706e-05 0.00287595)
(0.0375704 -0.000842347 0.00131572 0.000340816 2.10027e-05 0.00274751)
(0.036814 -0.000805788 0.00137652 0.000386399 -1.32277e-05 0.00276184)
(0.0361432 -0.000687254 0.00133722 0.000384786 -3.69887e-05 0.00267877)
(0.0348954 -0.000527078 0.00085838 0.000359216 -3.27662e-05 0.00254566)
(0.0343592 -0.000466355 0.00102069 0.000352 -4.58237e-05 0.00242043)
(0.0332717 -0.000526265 0.000865287 0.000371394 -7.63093e-06 0.00237831)
(0.0337432 -0.000703968 0.000931595 0.00039457 9.78246e-05 0.00246045)
(0.0358995 -0.0006608 0.000942509 0.000386436 0.000160377 0.0025216)
(0.0374948 -0.000593929 0.000644374 0.000355749 0.000133123 0.00259784)
(0.0394758 -0.000626542 0.000647286 0.000356787 0.00012784 0.00255706)
(0.0404796 -0.000782654 0.00116525 0.000394231 0.000154372 0.00244649)
(0.0392735 -0.000840507 0.00177882 0.000399201 0.000139459 0.00235515)
(0.0375949 -0.000796274 0.00209118 0.000361429 0.000125457 0.00255253)
(0.0357567 -0.000647716 0.00189846 0.000322633 0.000179638 0.00280306)
(0.0355703 -0.000748429 0.00116293 0.000328324 0.000290537 0.00303219)
(0.0352338 -0.000855877 0.00058143 0.000346705 0.000310922 0.00324259)
(0.0368065 -0.000779986 0.000641411 0.000328336 0.000237841 0.00299961)
(0.0342694 -0.000503493 0.00106338 0.000283126 0.000165537 0.00275038)
(0.0348785 -0.000350724 0.00126089 0.000251138 0.000120393 0.0028771)
(0.0320449 -0.000388993 0.00129207 0.000232275 7.0663e-05 0.00327812)
(0.032321 -0.000337932 0.00192703 0.000222957 4.73495e-05 0.00362913)
(0.0313818 -0.000361271 0.00228775 0.000229969 7.07917e-05 0.00354467)
(0.0324517 -0.000353705 0.00206687 0.000236955 0.000129373 0.00346176)
(0.0324974 -0.000382633 0.00106741 0.000254357 0.000133976 0.0034668)
(0.0332625 -0.000475341 0.000865452 0.000291149 0.000127077 0.00314374)
(0.0334239 -0.000619659 0.001316 0.000318992 0.00012496 0.00299697)
(0.0337926 -0.000580365 0.00183286 0.000334191 0.000142671 0.00316564)
(0.0346023 -0.000633593 0.00167975 0.000331665 0.000178032 0.0030934)
(0.0358186 -0.000623063 0.00180062 0.000319375 0.000232864 0.00302905)
(0.0349337 -0.000729708 0.00180178 0.000319261 0.00021662 0.003198)
(0.0362991 -0.000830281 0.00215989 0.000315165 0.000194549 0.00332917)
(0.0349006 -0.000840188 0.00179232 0.000303838 0.00019098 0.00322729)
(0.0359409 -0.000862436 0.00141062 0.000291365 0.000175209 0.00309472)
(0.0344517 -0.000804309 0.000662043 0.000276234 0.000159045 0.00282351)
(0.029189 -0.000764442 0.00105258 0.000398197 0.000176458 0.00235844)
(0.0286863 -0.00079564 0.00124197 0.000428524 0.000156415 0.00235986)
(0.0304399 -0.000836751 0.00127079 0.000434665 0.000147297 0.00262061)
(0.0303596 -0.000812115 0.000877768 0.000430712 0.000143686 0.00293601)
(0.0323271 -0.000907745 0.000883136 0.000429685 0.000113568 0.00307172)
(0.0312833 -0.000904698 0.000913329 0.00043707 5.51272e-05 0.00296743)
(0.0318212 -0.000885716 0.00104425 0.000495238 -7.05654e-06 0.00291205)
(0.0310699 -0.000787928 0.00119628 0.000542677 -5.9251e-05 0.00285147)
(0.0309753 -0.000661378 0.00149316 0.000523919 -9.42706e-05 0.00263496)
(0.0284894 -0.000545205 0.00111467 0.000495419 -5.04697e-05 0.00252512)
(0.0288355 -0.000503916 0.00120414 0.000486611 -7.54839e-06 0.00252335)
(0.0271677 -0.000573467 0.000970964 0.00049948 6.13207e-05 0.00243)
(0.0268751 -0.000683785 0.000546454 0.000537131 0.000174207 0.00241589)
(0.0267971 -0.000557909 0.000517585 0.00055303 0.000211928 0.00252042)
(0.028489 -0.000427177 0.000518495 0.000540794 0.000189671 0.00255898)
(0.0290915 -0.000530924 0.00092065 0.000553312 0.000191288 0.00259689)
(0.0309224 -0.000720315 0.0014625 0.000588819 0.000183065 0.0025671)
(0.02987 -0.000832753 0.00192103 0.000577631 0.000149341 0.00250664)
(0.0296762 -0.000811805 0.00233513 0.000524474 0.000167019 0.00280777)
(0.0276322 -0.000743163 0.00229375 0.000483143 0.000241333 0.00298011)
(0.027644 -0.000841013 0.00159095 0.000501367 0.000370013 0.00307282)
(0.0262082 -0.000912054 0.000815697 0.000525804 0.000395724 0.00325487)
(0.027366 -0.000728223 0.000851953 0.000505273 0.000330561 0.00315391)
(0.0262592 -0.000437802 0.00113397 0.000454288 0.000252316 0.00291328)
(0.0268776 -0.000312329 0.00138468 0.000419021 0.000201718 0.00294731)
(0.025556 -0.000411132 0.00139957 0.000392711 0.000145776 0.00322486)
(0.0258961 -0.00036985 0.00197695 0.000374036 9.22294e-05 0.00352104)
(0.0259266 -0.000369304 0.00232713 0.000377847 8.64644e-05 0.00348434)
(0.0270643 -0.00035658 0.00227179 0.00039045 0.000122447 0.00338648)
(0.0274858 -0.000383177 0.0015175 0.000409115 0.000119442 0.00332032)
(0.0286256 -0.000456284 0.00126644 0.00044599 0.000116562 0.00305)
(0.0279169 -0.000569346 0.00172407 0.0004711 0.000118939 0.00285694)
(0.0284631 -0.000469454 0.00219868 0.000479596 0.000145388 0.00298511)
(0.0277502 -0.000485373 0.00217435 0.000478061 0.000221052 0.00304321)
(0.02867 -0.000534094 0.0020353 0.000468741 0.000304912 0.0031183)
(0.0272829 -0.000640471 0.00190102 0.000471795 0.000303276 0.00331409)
(0.0277779 -0.000755557 0.00202006 0.000465568 0.0002906 0.00348857)
(0.0271929 -0.000784887 0.00163611 0.000450056 0.000285414 0.00324722)
(0.0285471 -0.000811357 0.00134984 0.000441541 0.000238263 0.00292162)
(0.0290732 -0.000736122 0.000884611 0.000408073 0.000203228 0.00257474)
(0.0228364 -0.000598446 0.00124027 0.000499532 0.000186129 0.00225354)
(0.0228419 -0.00069017 0.00125322 0.00054205 0.000165555 0.00228486)
(0.0234237 -0.00077038 0.00116321 0.00054486 0.000121789 0.00252476)
(0.0246149 -0.0007984 0.000965162 0.000543526 9.76022e-05 0.00276591)
(0.0248299 -0.000849594 0.000813091 0.000562962 8.20997e-05 0.00286006)
(0.0254764 -0.000841075 0.000924204 0.000592497 4.72945e-05 0.00280738)
(0.0243763 -0.000814479 0.000910975 0.000654966 5.57798e-06 0.00274225)
(0.0246247 -0.000704321 0.00114567 0.000680216 -3.36406e-05 0.00269992)
(0.024308 -0.000653488 0.00145868 0.000643572 -6.90689e-05 0.0025894)
(0.0244449 -0.000591794 0.00142296 0.000611756 -1.76095e-05 0.00258764)
(0.0233512 -0.000532595 0.00150223 0.000600534 5.26861e-05 0.00268964)
(0.0234278 -0.000583585 0.00167579 0.00061483 0.000104181 0.00277033)
(0.0221743 -0.000616597 0.00122142 0.000668951 0.000196362 0.00282032)
(0.0221607 -0.000492782 0.00113343 0.000699834 0.000250074 0.00274733)
(0.0217764 -0.000412834 0.00101205 0.000700556 0.000257285 0.00261668)
(0.0230182 -0.000517722 0.00134682 0.000721293 0.000231769 0.00263571)
(0.0244754 -0.000705401 0.00179159 0.000756319 0.000170059 0.0026239)
(0.0246034 -0.00083113 0.00213914 0.000747888 0.000146589 0.00264239)
(0.0233409 -0.000826142 0.00254106 0.00069979 0.000198979 0.00290839)
(0.022861 -0.000793134 0.00250478 0.000668042 0.000284702 0.00299616)
(0.0218955 -0.000884025 0.00199449 0.000694103 0.000373081 0.00311519)
(0.0218383 -0.00094887 0.00145649 0.000710736 0.000354134 0.00324277)
(0.0212427 -0.000776755 0.00147141 0.000690763 0.000275093 0.00308859)
(0.0207739 -0.000535427 0.00155745 0.000649558 0.00020594 0.00282625)
(0.0209637 -0.000418355 0.00163247 0.000615048 0.000192179 0.00281714)
(0.0204365 -0.000489539 0.0014971 0.00057609 0.000166778 0.00303206)
(0.0198536 -0.000421537 0.00171571 0.000539039 0.000123902 0.00323738)
(0.019716 -0.000392629 0.00202636 0.000527713 0.000125695 0.00322092)
(0.0203593 -0.000358278 0.00213061 0.000549577 0.000144524 0.0031749)
(0.0214096 -0.000364986 0.00160994 0.000581823 0.000137484 0.0030798)
(0.0223731 -0.000365797 0.00158682 0.000611239 0.000138487 0.0028943)
(0.02232 -0.000394218 0.0021034 0.000619693 0.000128859 0.00274734)
(0.0222058 -0.000317464 0.00250756 0.000616534 0.000155725 0.00282877)
(0.0216496 -0.000319524 0.00247934 0.00061868 0.000252348 0.00285894)
(0.0221558 -0.000444461 0.00222319 0.00062454 0.000356812 0.00289059)
(0.0213338 -0.00054944 0.00209772 0.000633166 0.000382909 0.00306744)
(0.0209412 -0.00060737 0.00197646 0.000612091 0.000375263 0.00313853)
(0.0210561 -0.000660227 0.00171052 0.000578115 0.000318011 0.0029117)
(0.0217208 -0.000698517 0.00144104 0.00056335 0.000235204 0.00264889)
(0.0236429 -0.000565665 0.00131952 0.000514586 0.000207161 0.00239034)
(0.0183111 -0.000437444 0.00156743 0.00058748 0.000157128 0.00235702)
(0.0188471 -0.000595801 0.00149731 0.000627126 0.000102743 0.00236212)
(0.01916 -0.000699169 0.00125656 0.000648841 7.21539e-05 0.00245592)
(0.0199347 -0.000758624 0.000887703 0.000663908 0.000101715 0.00254281)
(0.0199928 -0.000781171 0.00069101 0.000691086 0.000103478 0.00260354)
(0.0204397 -0.000760923 0.00103462 0.000724733 5.62316e-05 0.00262751)
(0.0204219 -0.000796372 0.00136366 0.00077327 1.00191e-05 0.00259709)
(0.0210714 -0.000734844 0.00154857 0.000782369 -1.8558e-06 0.00256905)
(0.0215577 -0.000760862 0.0017254 0.000739891 -2.42537e-05 0.00254948)
(0.0219128 -0.000782973 0.00176944 0.000702891 3.13518e-05 0.00255807)
(0.0208403 -0.000651416 0.00177333 0.000692975 0.000111102 0.00258528)
(0.0211805 -0.000649955 0.00201078 0.000714631 0.000109514 0.00264493)
(0.0204815 -0.000606844 0.00184325 0.00076028 0.00013322 0.00263275)
(0.0202645 -0.000475905 0.00166353 0.000781313 0.000214483 0.00266444)
(0.0192729 -0.00036118 0.00150608 0.000808761 0.00027296 0.00275056)
(0.0193538 -0.000390732 0.00152939 0.000861758 0.000274647 0.00284391)
(0.0206263 -0.000606431 0.00190018 0.000902192 0.000212416 0.00284649)
(0.0210621 -0.000811895 0.00215212 0.000896786 0.000190618 0.00288184)
(0.0206138 -0.000919967 0.0023384 0.000852998 0.000257329 0.00300087)
(0.0202477 -0.00100038 0.00230899 0.000833063 0.000317266 0.00300458)
(0.0197624 -0.00108819 0.002045 0.000862523 0.000324328 0.00304148)
(0.0200158 -0.00109857 0.00182676 0.000888723 0.000261967 0.00300954)
(0.0189381 -0.00090944 0.00192377 0.000884087 0.0001862 0.00284193)
(0.0181657 -0.000662272 0.00189663 0.000860155 0.000143871 0.00263835)
(0.0177761 -0.000527393 0.00177399 0.000816082 0.000163801 0.00257812)
(0.0174105 -0.00054685 0.00144268 0.000753719 0.000137942 0.00275399)
(0.0163113 -0.000427825 0.00135701 0.000693414 0.000101839 0.00296003)
(0.0163219 -0.000365638 0.00165443 0.000656696 0.000141576 0.00297412)
(0.0166584 -0.000374622 0.0018653 0.000678825 0.000188407 0.0028833)
(0.0174367 -0.000388469 0.00156471 0.000732205 0.000186184 0.00279212)
(0.0172483 -0.000308824 0.00147287 0.000765484 0.000177203 0.00263925)
(0.0174203 -0.000252066 0.00188053 0.000755751 0.000155631 0.00254916)
(0.0168207 -0.000206179 0.00223415 0.000737177 0.000189025 0.00263536)
(0.0163191 -0.000252708 0.00221888 0.00075048 0.000279426 0.0026529)
(0.0164603 -0.000447097 0.00202325 0.000776828 0.000335527 0.00266075)
(0.0163164 -0.000520919 0.00182394 0.000773844 0.000349516 0.00275983)
(0.016497 -0.000487274 0.00167004 0.000720508 0.000342333 0.00273407)
(0.0163778 -0.000489941 0.0016029 0.000662701 0.000286573 0.00265697)
(0.0168175 -0.000508499 0.00157552 0.000651533 0.0002244 0.00260305)
(0.0179594 -0.000388128 0.00166519 0.000608508 0.000198481 0.0024985)
(0.015528 -0.000336217 0.00174978 0.000686126 0.000127365 0.00227426)
(0.0167312 -0.000592682 0.00180867 0.000707992 3.11368e-05 0.00234203)
(0.0170698 -0.00073836 0.00150197 0.000732377 1.75516e-05 0.00233854)
(0.0177011 -0.000787389 0.0010498 0.000776756 6.56206e-05 0.00227773)
(0.0176906 -0.000835175 0.000870096 0.000828147 6.65823e-05 0.00227992)
(0.0179032 -0.000829919 0.00116708 0.000861536 2.46716e-05 0.00230689)
(0.0179916 -0.000837986 0.00148288 0.000898663 1.95364e-05 0.00234136)
(0.0178876 -0.000784193 0.00163311 0.000895587 2.17004e-05 0.00242783)
(0.0183575 -0.00080464 0.00179532 0.000858054 -1.96481e-06 0.00247761)
(0.0185238 -0.000884639 0.00184456 0.000810919 4.87065e-05 0.00249561)
(0.0181333 -0.000784601 0.00179324 0.000784261 0.000140251 0.00246092)
(0.0185412 -0.000748466 0.0018659 0.000803959 0.000125414 0.00238216)
(0.0182587 -0.000640761 0.00175551 0.000838887 8.76564e-05 0.00227546)
(0.0179192 -0.000490364 0.00165933 0.000846853 0.00010445 0.00236213)
(0.0175601 -0.000377266 0.00161559 0.000875607 0.000148355 0.00263854)
(0.0169077 -0.00035564 0.00155399 0.000935745 0.000206819 0.00293044)
(0.0177374 -0.000532621 0.00170975 0.000996063 0.000238502 0.00306038)
(0.0182642 -0.00078368 0.00198549 0.00102006 0.000258486 0.00303163)
(0.0188293 -0.000971671 0.00204415 0.000990296 0.000294864 0.00290051)
(0.0185397 -0.00114807 0.00201419 0.000963203 0.000296186 0.00279928)
(0.0184301 -0.00127103 0.00192906 0.000994333 0.000233602 0.00280425)
(0.0185466 -0.00126863 0.0018474 0.00104123 0.00016581 0.00271693)
(0.0178633 -0.00109142 0.00184785 0.00106357 0.000111767 0.00250958)
(0.0169379 -0.000846701 0.00184462 0.00106195 7.00584e-05 0.0023462)
(0.0162154 -0.000684066 0.00168057 0.00101326 7.12383e-05 0.00230601)
(0.0157954 -0.000632884 0.00139265 0.000920875 4.86791e-05 0.00244257)
(0.0151466 -0.000478342 0.00109751 0.000835429 3.16337e-05 0.0026105)
(0.0143858 -0.000382624 0.00114498 0.000779265 0.000101716 0.00262364)
(0.0148243 -0.000436568 0.0013888 0.000796105 0.000167319 0.00246985)
(0.0152514 -0.000475367 0.00135307 0.000857047 0.000163443 0.00236317)
(0.0145995 -0.000328054 0.00124477 0.000883663 0.000147335 0.00228097)
(0.0143337 -0.000202834 0.00153743 0.000862319 0.000132578 0.00226012)
(0.0135534 -0.000167103 0.00176476 0.000844034 0.000172017 0.00234018)
(0.0131018 -0.000267867 0.00177675 0.000869638 0.000241974 0.00237924)
(0.0126461 -0.000473228 0.00159068 0.000899362 0.000236788 0.00229787)
(0.0123979 -0.000538512 0.00138635 0.000882264 0.000221028 0.00228791)
(0.0129612 -0.000469133 0.00120507 0.000808464 0.000240718 0.00228125)
(0.013094 -0.000383031 0.00125112 0.000736954 0.000238211 0.00231728)
(0.0134029 -0.000341635 0.00133591 0.000735728 0.000214749 0.00238343)
(0.0144495 -0.00024683 0.00161823 0.00071163 0.000194713 0.00236847)
(0.0127633 -0.000267522 0.00138688 0.000806734 0.000165444 0.00199201)
(0.013617 -0.000477216 0.0014914 0.000814505 9.22213e-05 0.00209829)
(0.0138226 -0.000599494 0.00132447 0.000818319 7.23087e-05 0.00208423)
(0.0144328 -0.000663507 0.00104884 0.00086556 5.8953e-05 0.00200105)
(0.0148226 -0.00072679 0.00101793 0.000925681 8.76642e-06 0.00194559)
(0.0149827 -0.000749724 0.00121521 0.000960278 -4.36315e-05 0.00196885)
(0.0150105 -0.000746266 0.00134317 0.000979455 -3.94988e-05 0.00203429)
(0.0146136 -0.000691219 0.00143895 0.000960171 -1.4288e-05 0.0021799)
(0.0147888 -0.000661066 0.0016422 0.000918234 1.27866e-05 0.00229547)
(0.0148918 -0.000729402 0.00167997 0.000873517 8.53847e-05 0.00232679)
(0.014813 -0.000739316 0.00151854 0.000846783 0.000159139 0.00232211)
(0.0149139 -0.000745388 0.00149479 0.000868304 0.000139501 0.0022773)