# y+ ()       
# Time        	patch         	min           	max           	average       
10            	bottomWall	1.316990e+00	3.538859e+00	2.071392e+00
10            	topWall	1.347391e+00	3.593503e+00	2.079327e+00
