# y+ ()       
# Time        	patch         	min           	max           	average       
30            	bottomWall	2.759756e+00	4.900641e+00	3.497395e+00
30            	topWall	2.750973e+00	4.824793e+00	3.545087e+00
