/*--------------------------------*- C++ -*----------------------------------*\
  =========                 |
  \\      /  F ield         | OpenFOAM: The Open Source CFD Toolbox
   \\    /   O peration     | Website:  https://openfoam.org
    \\  /    A nd           | Version:  10
     \\/     M anipulation  |
\*---------------------------------------------------------------------------*/
FoamFile
{
    format      ascii;
    class       volScalarField;
    location    "32.5";
    object      p;
}
// * * * * * * * * * * * * * * * * * * * * * * * * * * * * * * * * * * * * * //

dimensions      [0 2 -2 0 0 0 0];

internalField   nonuniform List<scalar> 
102400
(
-0.0112334
-0.0249119
-0.00654423
0.0144126
-0.00300801
-0.0182725
-0.00822673
-0.00238361
-0.0160487
-0.0176876
-0.00151822
-0.0175554
-0.0348693
-0.0418248
-6.3698e-05
-0.00414139
-0.00188793
-0.00126702
-0.0131606
-0.00202778
-0.00900457
-0.0140973
-0.00230344
-0.00485802
-0.016493
-0.00812784
-0.00455981
-0.00624185
-0.00127947
-0.00980902
0.00298013
9.72988e-05
-0.0123967
-0.0126308
-0.0105234
-0.0167038
-0.0106964
0.0015505
-0.00549
-0.00654968
-0.0108914
-0.0248486
-0.00624618
0.0146009
-0.002574
-0.0181226
-0.00810247
-0.00211415
-0.0157107
-0.0171984
-0.000872934
-0.0174224
-0.0349198
-0.0417605
-0.000588943
-0.00406989
-0.00153417
-0.000749706
-0.012788
-0.00180124
-0.00850546
-0.0137556
-0.00199066
-0.00452974
-0.0164866
-0.00840436
-0.00434037
-0.0062068
-0.000741231
-0.00951034
0.00222537
0.000314508
-0.0120923
-0.0125235
-0.010202
-0.0162269
-0.0112182
0.0015087
-0.00474411
-0.00614444
-0.0104743
-0.0247501
-0.00666458
0.0140475
-0.00226876
-0.0178144
-0.00825149
-0.00261722
-0.0155859
-0.0169383
-0.000488205
-0.0173013
-0.0347413
-0.0423242
-0.00225642
-0.00410849
-0.0015832
-0.000406381
-0.0124307
-0.00175982
-0.0082023
-0.0134714
-0.00191083
-0.00414565
-0.0169125
-0.00960371
-0.00397142
-0.00683923
-0.000575745
-0.00874513
0.000771285
-1.7027e-05
-0.0119779
-0.0117398
-0.00989785
-0.0159067
-0.0125633
0.000793832
-0.00399197
-0.00572239
-0.00989077
-0.0239003
-0.00743233
0.0127797
-0.00186539
-0.0174444
-0.00872776
-0.00333136
-0.0158531
-0.0171235
-0.000647863
-0.0173094
-0.0339098
-0.0424652
-0.00418954
-0.00476628
-0.00215123
-0.00038272
-0.0121547
-0.00222838
-0.00821821
-0.0135488
-0.00206147
-0.00374608
-0.0176282
-0.0120317
-0.00357382
-0.00817236
-0.000433853
-0.0076356
-0.00102149
-0.0010493
-0.0121114
-0.0103025
-0.009511
-0.0159267
-0.0134233
-0.000790267
-0.00350026
-0.00555269
-0.00928369
-0.0223668
-0.0082722
0.0120622
-0.00115737
-0.0172304
-0.00941686
-0.00359547
-0.0160386
-0.0172313
-0.00116624
-0.0173378
-0.0322591
-0.0422582
-0.00615191
-0.00613401
-0.0027944
-0.000534923
-0.011919
-0.00325498
-0.0079661
-0.0141231
-0.00216801
-0.00333173
-0.0186386
-0.014912
-0.00330965
-0.00979999
-0.000284728
-0.00551108
-0.00160237
-0.00297696
-0.0120717
-0.00861311
-0.00911608
-0.015757
-0.0132972
-0.00308673
-0.00292764
-0.00563681
-0.00905809
-0.0224576
-0.00877275
0.0122695
-4.92055e-06
-0.0173407
-0.0100275
-0.00442319
-0.0163382
-0.0166349
-0.00185774
-0.0175843
-0.0302354
-0.0418276
-0.00820778
-0.00756585
-0.00306901
-0.000642275
-0.0112933
-0.00406821
-0.00746023
-0.0149589
-0.00214208
-0.00259873
-0.0198665
-0.0170449
-0.00297855
-0.0116745
0.000155873
-0.00209057
-0.000386715
-0.00526603
-0.0115672
-0.00827304
-0.00980858
-0.0151438
-0.0123417
-0.00516437
-0.00255556
-0.00609775
-0.00899772
-0.0219094
-0.00851605
0.011799
0.000858388
-0.0168168
-0.0100355
-0.00598536
-0.0167056
-0.0151183
-0.00248433
-0.0189182
-0.0304776
-0.0405897
-0.00974116
-0.00876477
-0.00279496
-0.000471636
-0.00956416
-0.00293184
-0.00680328
-0.0154806
-0.00201446
-0.00138228
-0.0206649
-0.0177866
-0.0021083
-0.0133637
-0.00213464
0.00121552
0.00116814
-0.00606394
-0.0098972
-0.00907874
-0.0113908
-0.0142569
-0.0103241
-0.0066815
-0.00281202
-0.00685437
-0.00884923
-0.019059
-0.00748458
0.0107182
0.00141365
-0.0159256
-0.00993475
-0.00751828
-0.0168727
-0.0131557
-0.00262409
-0.0213714
-0.033061
-0.0381111
-0.0102602
-0.0103749
-0.00199633
-0.000288251
-0.00726069
0.000537851
-0.00563249
-0.0156788
-0.00192557
-0.000327377
-0.0212086
-0.0184861
-0.00130036
-0.0132382
-0.00661614
0.00307932
0.00209335
-0.00644385
-0.00879468
-0.00929723
-0.0125997
-0.0128232
-0.00798058
-0.00919692
-0.00264456
-0.00658218
-0.00825741
-0.0148163
-0.00602593
0.00964494
0.00207796
-0.0152875
-0.0105569
-0.00865893
-0.016706
-0.011057
-0.00289719
-0.0248074
-0.0375912
-0.0337107
-0.00953954
-0.0121625
-0.000930932
-3.42543e-07
-0.00501585
0.00335074
-0.00495284
-0.0164137
-0.00208016
0.000418579
-0.0213153
-0.0201241
-0.00176065
-0.0117048
-0.0101058
0.00342999
0.00165924
-0.00839034
-0.0081756
-0.00871562
-0.0127295
-0.0103238
-0.00690108
-0.0121505
-0.0019977
-0.00462858
-0.0075347
-0.0118158
-0.00485465
0.00841908
0.00229388
-0.0147639
-0.0120248
-0.00971964
-0.0165013
-0.00888739
-0.00421899
-0.0270726
-0.0412221
-0.0284057
-0.00864015
-0.0139421
-0.000325803
0.000743159
-0.00437822
0.0044897
-0.00475991
-0.0174033
-0.00262754
0.00119782
-0.0197497
-0.0209548
-0.00266844
-0.010202
-0.0126886
0.00260596
0.000393719
-0.0104136
-0.00850774
-0.00700504
-0.0120743
-0.00652114
-0.00691732
-0.013591
-0.00195908
-0.00273746
-0.00666143
-0.00961952
-0.0045015
0.00754384
0.00230556
-0.0153415
-0.0138214
-0.0108094
-0.0174624
-0.00779092
-0.00430492
-0.0261084
-0.0434295
-0.0238347
-0.00882893
-0.0155799
0.000357621
0.00273298
-0.00433034
0.00401336
-0.00447339
-0.0176065
-0.00370313
0.00192331
-0.0166703
-0.019999
-0.00215192
-0.00753243
-0.0142737
0.000659113
-0.000293047
-0.00971378
-0.0101872
-0.00419745
-0.00932031
-0.00137607
-0.0062542
-0.0125885
-0.00285002
-0.00203202
-0.00629634
-0.00841379
-0.00446366
0.00698939
0.00206315
-0.0162168
-0.0149774
-0.0111505
-0.0202226
-0.00826057
-0.00331456
-0.024321
-0.043434
-0.0194948
-0.00923365
-0.0156216
0.000947207
0.0056842
-0.00221727
0.00362228
-0.00608802
-0.0184177
-0.0039082
0.00260855
-0.0152161
-0.0193423
-0.00178735
-0.00391449
-0.0139294
-0.00145265
-0.0012542
-0.0100354
-0.0110686
-0.00211995
-0.00778856
0.00449891
-0.00306198
-0.008556
-0.00454027
-0.00222289
-0.00715074
-0.00823893
-0.00461166
0.00557965
0.00156732
-0.0129969
-0.0153548
-0.0101238
-0.0196281
-0.0087305
-0.00255338
-0.0209976
-0.0385721
-0.0160711
-0.00950919
-0.0147489
-0.000230019
0.00831596
0.000957991
0.00215428
-0.0102854
-0.0175416
-0.00364844
0.002644
-0.0119838
-0.0170737
-0.00322724
-0.00286436
-0.0117894
-0.00241316
-0.00222254
-0.0127711
-0.0125656
-0.00487917
-0.00716761
0.0116773
0.00275562
-0.00520798
-0.00719586
-0.00343518
-0.00875654
-0.00857344
-0.00365809
0.00464751
0.000953662
-0.0110333
-0.0149477
-0.0085344
-0.0152725
-0.00739087
-0.00287816
-0.0171948
-0.0290612
-0.0121802
-0.0106777
-0.0156901
-0.00300512
0.00833731
0.00205186
0.000362571
-0.0102051
-0.0181014
-0.00406939
0.00421778
-0.00829077
-0.0156274
-0.005915
-0.00315513
-0.00923677
-0.00131657
-0.000994821
-0.0138818
-0.0100382
-0.00421979
-0.00695547
0.0098448
0.00741836
-0.00304491
-0.00837788
-0.00271021
-0.00820439
-0.00671126
-0.00163035
0.00250157
0.000470071
-0.0117434
-0.0164999
-0.00676932
-0.0102574
-0.00633974
-0.00458865
-0.0092908
-0.0252279
-0.00893713
-0.00986974
-0.0166038
-0.00364855
0.00885907
0.00274173
-0.00249988
-0.00683824
-0.0136141
-0.0040578
0.0023293
-0.00614186
-0.0124668
-0.00587595
-0.00549025
-0.00632036
0.00183061
0.000509446
-0.010882
-0.00621319
-0.00101368
-0.00234242
0.00772624
0.0110096
-0.00187632
-0.00812664
-0.00236459
-0.00559549
-0.00687445
-0.000797283
0.000620076
-0.002018
-0.0129281
-0.0107732
-0.00555154
-0.00602978
-0.00415475
-0.00561282
-0.01268
-0.0234959
-0.00536536
-0.010542
-0.0159207
-0.00146625
0.0108019
0.00270614
-0.00443166
-0.00544671
-0.00895109
-0.00332312
0.0011312
-0.00234923
-0.00749278
-0.00512525
-0.00426357
-0.0049386
0.00295589
0.00152071
-0.0117088
-0.00870934
0.00192077
0.000722897
0.00107662
0.00935192
0.00136428
-0.00425284
-0.00208912
-0.00581761
-0.00861097
-0.00674137
-0.00175792
-0.00167041
-0.0095171
-0.0115988
-0.0048986
-0.00213947
-0.00547754
-0.00704229
-0.00993841
-0.0169625
-0.00304557
-0.0106089
-0.0159557
-0.00257712
0.0095097
0.00157331
-0.00627769
-0.004724
-0.0075215
-0.00750443
-0.00383671
-0.000823891
-0.00302273
-0.00624752
-0.00924156
-0.00343311
0.00335013
0.00217469
-0.0131139
-0.0126372
0.00139249
0.0013962
0.00437607
0.0107204
0.00427576
-0.0100056
-0.00444337
-0.00629662
-0.0127611
-0.0133741
-0.00261932
-0.00249261
-0.011597
-0.0168154
-0.00872414
-0.00607721
-0.00799785
0.00208224
-0.0116487
-0.0168824
-0.00232016
-0.00525283
-0.0150604
-0.00449762
0.0034774
0.000152312
-0.00408304
-0.00482172
-0.00929155
-0.00738936
-0.00476553
-0.00126588
-0.00264786
-0.00562304
-0.00397033
-0.00424409
-0.000371013
-0.00141844
-0.0156765
-0.0076172
0.0108409
0.001956
-0.00353384
0.0085523
-0.00184187
-0.0094507
-0.000727692
-0.00480144
-0.0139938
-0.02013
-0.00754774
-0.00778384
-0.0147151
-0.0165797
-0.00662989
-0.00827199
-0.0145347
-0.00683061
-0.00931612
-0.00400216
-0.00292318
-0.0020729
-0.0126366
-0.0064332
0.00593722
0.000264154
-0.0107601
-0.0162055
-0.008679
-0.00965577
-0.0071333
-0.000279747
0.000841578
-0.0042534
-0.00543644
-0.00692503
-0.00518749
-0.00532805
-0.0158163
-3.04867e-05
0.00384726
-0.00444259
0.00396858
0.00594207
-0.00235964
0.00160973
0.00134916
-0.00762927
-0.0140226
-0.00550953
0.00393756
-0.00172046
-0.00780406
-0.00747144
-0.00637411
-0.0125621
-0.020099
-0.00400347
-0.00728339
-0.0153543
-0.00650569
0.00240582
-0.00765215
-0.000539847
0.00701392
-0.00638774
-0.010682
-0.00692709
-0.00683692
-0.0160937
-0.00685348
0.00191605
-0.000966559
-0.00746554
0.00262013
0.0013728
-0.0087555
-0.00706731
-0.0116033
-0.00947354
0.00314771
-0.0124859
-0.010886
0.00379259
-0.00394038
-0.00307696
-0.00270785
-0.0133878
-0.0117451
-0.00242016
0.000664788
-0.00490747
-0.00751711
-0.00623402
-0.00922293
-0.0142335
-0.022388
-0.0175706
-0.00940728
-0.012018
-0.00266559
0.0064653
-0.0049361
-0.00591729
0.00201562
-0.00230519
0.000909575
-0.00946105
-0.0125019
-0.00787468
-0.007396
-0.00141122
-0.00337396
-0.0109304
0.00480058
-0.000352241
-0.0196345
-0.0192664
-0.00780157
0.0025205
0.00594416
-0.0240004
-0.0327398
-0.00113728
-0.00215785
-0.000943282
0.0021253
-0.00450859
-0.00796392
-0.00370597
-0.000692182
-0.00751248
-0.00878879
-0.0044626
-0.00726612
-0.0135169
-0.0330743
-0.0174804
-0.000104614
-0.0158041
0.00369744
0.00705754
-0.00695874
0.00507915
-0.00033748
-0.00292035
-0.000228342
-0.00870933
-0.0125495
-0.00179654
-0.0102253
-0.00355704
-0.00496124
-0.0138329
-0.000771782
-0.00715582
-0.0247143
-0.0146711
-0.00207844
0.00282871
0.000919094
-0.00695153
-0.00518727
0.00655716
0.00850277
0.00349535
0.00605442
-0.0065777
-0.00832532
-0.00401779
-0.011708
-0.00958965
-0.00559546
0.00643584
-0.00230184
-0.0150591
-0.020678
-0.0133903
-0.00156456
0.001244
-0.00110088
-0.00831372
-0.0166306
-0.00531725
-0.00451596
-0.00723211
-0.000327974
0.00394899
-0.00351278
0.0020336
-0.0128292
-0.0018252
0.00261314
-0.0165321
-0.0065921
-0.00487314
-0.0133229
-0.00408772
-0.000770824
0.00876267
0.00399648
-0.00525118
-0.00194072
-0.00982587
-0.0114115
0.00102301
0.00714792
-0.0116091
-0.00815481
-0.00695832
-0.00400438
-0.00971028
-0.0106534
0.00747888
0.00165214
-0.0101751
-0.0177666
-0.0127433
-0.00671347
-0.00853834
-0.0103769
-0.01457
-0.00301179
-0.00197955
-0.0157741
-0.000847678
-0.000477492
-0.0130739
-0.00298839
0.00122953
-0.00608099
0.00204962
-0.00467855
-0.0190633
0.000114542
-0.0106335
-0.0184378
-0.00618169
0.00574208
0.00975239
-0.0139637
-0.0059232
0.00468825
-0.00742243
-0.000731238
0.00312582
-0.0142881
-0.0128832
0.00597019
0.00210058
-0.0145653
-0.0115776
0.00322011
0.0163814
0.00201858
-0.0188255
-0.0241691
-0.025022
-0.0211868
-0.00640648
-0.0125319
-0.0130051
-0.00865849
0.0030273
0.00253168
-0.00607146
-0.00791757
-0.00130273
0.00187797
-0.00411491
-0.0128884
-0.00407092
-0.00440743
-0.00318609
-0.00178695
-0.0176131
-0.016229
-0.000786884
0.00499875
-0.00896102
-0.00850656
0.0159472
-0.00122873
-0.0109117
0.00992808
-0.00449028
-0.0167803
0.000248704
-8.29052e-06
0.00166787
-0.00171582
-0.0048432
-0.0133691
-0.014975
-0.00877907
-0.0358149
-0.0388479
-0.0230617
-0.0105055
-0.00739454
-0.0249445
-0.0219294
-0.0226389
0.0054408
-0.0112978
-0.0183343
0.0282892
0.0191693
-0.00653506
-0.0153692
-0.0114399
0.0115683
0.0143288
-0.00512031
-0.0117173
-0.0128501
-0.0145848
0.0108327
0.00625618
-0.0191916
-0.0121287
-0.00317763
-0.000801388
-0.0136144
0.00342212
0.00271425
0.00787542
-0.00302818
0.0142146
0.0101315
-0.0123395
-0.0152536
-0.0160054
0.0211812
0.00355494
-0.0402011
-0.0155478
0.00469859
-0.0058043
-0.00507854
-0.0150644
-0.0299243
0.00238931
0.0174723
-0.0141226
-0.00926661
0.0140704
0.0037994
0.00372829
-0.0119215
-0.0110006
-0.00655971
0.00353643
-0.00249912
-0.00982565
-0.0141185
0.0093946
0.00579953
-0.0238817
-0.00401687
0.00762729
0.0069223
-0.0300744
-0.0244905
0.00228181
-0.00822846
-0.00177913
-0.00174414
-0.00888061
-0.032312
-0.0375199
0.00514329
-0.0159463
-0.0270902
-0.0182032
-0.0234355
-0.00596397
-0.00644991
-0.00993443
0.00240004
0.00236443
-0.0188419
0.00394063
0.0154435
-0.0057074
-0.014973
0.0296311
0.0283656
-0.0251169
-0.0341328
-0.012279
-0.0119726
-0.00510926
-0.0215005
-0.0250285
0.000718902
0.00980282
-0.0180272
0.0146712
0.022958
-0.00353127
-0.00133655
-0.0302979
-0.00560598
6.04178e-05
-0.0150909
-0.00573268
-0.0146441
0.00992767
-0.0195684
-0.0242164
0.000258167
-0.0261234
-0.0273907
0.00325279
-0.0169381
-0.0105246
0.0128623
0.0155333
0.0225611
0.00600872
-0.0211018
-0.00577553
-0.00628187
-0.0157071
-0.0216076
0.00109538
-0.000567256
-0.0313433
-0.0169046
-0.0190304
-0.031245
-0.00942779
0.0111002
-0.00807758
-0.0148721
-0.0146941
-0.0115974
0.00257602
-0.00439588
-0.000450497
0.0424798
-0.00467112
-0.00657946
-0.00416101
-0.00560442
-0.00553956
-0.0266222
-0.0111244
0.00926337
-0.00422452
-0.0368535
-0.0252367
-0.00178295
-0.0203504
-0.0548801
-0.00395156
0.0298213
0.013487
0.00409727
-0.0228314
-0.026909
0.0263178
0.000913983
-0.016651
0.0119212
-0.0141877
-0.0259719
-0.0212909
-0.00204073
-0.00465323
-0.0149813
0.030628
0.0340417
-0.0200976
-0.02113
-0.015157
-0.00763213
0.0106342
0.00857038
-0.00377069
-0.0180196
-0.030106
-0.00942736
-0.00176169
-0.0128628
-0.0234943
-0.00610448
-0.00713926
-0.00472608
-0.0214477
-0.0260482
-0.00344935
-0.0084746
-0.0339171
-0.0355485
-0.00822916
-0.0191002
0.00322357
-0.00563158
-0.0155596
0.0202406
0.0232429
0.010332
-0.000689738
-0.00805638
-0.0258764
-0.0287501
-0.0178797
0.0233513
-0.00246108
-0.00647019
0.0268964
0.0103348
0.013781
-0.0115663
-0.0270469
0.0190126
0.0309322
-0.00549022
-0.0175722
-0.0211258
-0.0281467
0.00727923
0.0179337
-0.0269704
-0.0323756
-0.00755581
-0.0490416
-0.0165076
0.0236671
0.0373509
-0.00412617
-0.0314035
-0.0185856
-0.01086
-0.0323362
0.0390311
0.0617289
0.00238822
-0.00708908
-0.00377609
-0.014345
0.0184384
0.034843
0.00265311
0.00194131
0.0129725
-0.0462581
0.0404528
0.0108804
-0.0398671
-0.00574793
-0.0096926
0.0411895
0.0244131
-0.0207709
-0.0341812
-0.00740272
-0.0101837
-0.0295412
-0.0105854
0.0206439
0.0170935
-0.0188024
-0.0350354
-0.00848814
-0.000951701
-0.000921832
0.00121184
0.0105715
0.0102771
-0.00336055
-0.0090011
-0.000802623
-0.00356718
-0.00710154
-0.00307053
-0.00200796
-0.00640827
-0.0201648
-0.00128733
-0.00138155
-0.00240549
0.00576412
-0.00120004
-0.0017069
-0.00151483
0.00298273
0.00937365
0.0141556
0.00427421
-0.0150821
-0.00665042
-0.00354963
-0.00790427
0.00980637
0.0103792
0.0012408
-0.000143681
0.00433084
0.00230694
-0.0018706
0.00064368
0.00154942
-0.00179869
-0.00372182
-0.00105808
-0.000774714
0.00124904
0.0104029
0.010257
-0.00340213
-0.00907405
-0.00094138
-0.00361369
-0.00712158
-0.00318782
-0.00202353
-0.0063321
-0.0202071
-0.00183712
-0.0014772
-0.00247683
0.00569028
-0.00114765
-0.00184994
-0.00152123
0.00298019
0.00921141
0.0142788
0.004357
-0.0154295
-0.00668728
-0.00355632
-0.00792279
0.00977691
0.0103147
0.00131205
-8.5624e-05
0.00427782
0.00239316
-0.00184664
0.000625491
0.00141408
-0.00181878
-0.00369147
-0.00115279
-0.000754332
0.000864025
0.0101339
0.0104458
-0.00351942
-0.00932207
-0.00133276
-0.00379901
-0.00716311
-0.00324039
-0.00207509
-0.00659786
-0.0204423
-0.00344959
-0.00188376
-0.00278558
0.00567833
-0.00110727
-0.00223402
-0.00151245
0.00304851
0.00891594
0.0144754
0.00405966
-0.0164715
-0.00672784
-0.003719
-0.00798842
0.00975302
0.00912217
0.00119131
3.00635e-05
0.00423955
0.00244827
-0.00184279
-0.000338153
0.000983658
-0.00183094
-0.00364695
-0.00116588
-0.000895496
7.66559e-05
0.00976539
0.0103693
-0.00423067
-0.0100133
-0.00225976
-0.00449048
-0.00748399
-0.00325484
-0.00229463
-0.00759604
-0.0210584
-0.00567054
-0.00253179
-0.003565
0.00546742
-0.00129409
-0.00309695
-0.00168567
0.00276235
0.00841973
0.0143806
0.00332664
-0.0182756
-0.00679672
-0.00411834
-0.00821747
0.00926831
0.00853814
0.00096184
-0.000122212
0.00387404
0.00232586
-0.00218051
-0.00221264
0.00029773
-0.00207022
-0.00364399
-0.000939271
-0.00114235
-0.000424951
0.00960317
0.00969611
-0.00566376
-0.0110532
-0.00353483
-0.00557819
-0.00804101
-0.00312915
-0.00243851
-0.00890638
-0.022073
-0.00787731
-0.0031648
-0.00445978
0.00503597
-0.00175042
-0.00443792
-0.00189885
0.00192422
0.0076729
0.014241
0.00245466
-0.0199145
-0.00693421
-0.00453821
-0.00861918
0.00854854
0.00842227
0.000857241
-0.000476982
0.00310127
0.00220867
-0.00278634
-0.00245268
-0.000302228
-0.00237394
-0.0034908
-0.000750532
-0.00163234
-0.00081455
0.00984342
0.00818979
-0.00746082
-0.0120146
-0.00456818
-0.00680566
-0.0088281
-0.00306931
-0.00208315
-0.0100123
-0.0235826
-0.00996713
-0.00389701
-0.00507501
0.00443638
-0.00242945
-0.00613399
-0.00217921
0.000555068
0.00652684
0.013957
0.00121575
-0.0208421
-0.00702971
-0.00505839
-0.00950967
0.00766995
0.00849135
0.000497605
-0.000979742
0.00187714
0.00216983
-0.00354655
-0.0029088
-0.000904975
-0.00278908
-0.00317569
-0.00103218
-0.00220311
-0.000676515
0.0103481
0.0063814
-0.00908193
-0.0125957
-0.00502693
-0.00833219
-0.00975718
-0.00329165
-0.00234354
-0.0113055
-0.0256714
-0.0113444
-0.00468207
-0.00531186
0.00376206
-0.00318846
-0.00749915
-0.0023042
-0.000643412
0.00506942
0.0131734
-0.000496801
-0.0209957
-0.00665116
-0.00549386
-0.01139
0.00628228
0.00868268
-4.65163e-05
-0.00164124
0.000637689
0.00226278
-0.00440845
-0.00311337
-0.00184078
-0.00333102
-0.00291253
-0.00199672
-0.00245724
0.000575608
0.0106438
0.00549383
-0.010047
-0.0128246
-0.00488016
-0.0103404
-0.0100409
-0.00357226
-0.00338278
-0.0135528
-0.0275537
-0.0115532
-0.00517371
-0.00523653
0.00307599
-0.00362023
-0.00850565
-0.00225904
-0.000967233
0.00398375
0.0117278
-0.00246457
-0.0211267
-0.00572589
-0.00510428
-0.014685
0.0044262
0.00860691
-0.00158777
-0.00270445
-0.000379318
0.00240294
-0.00533007
-0.00320921
-0.00323833
-0.00369914
-0.00306201
-0.00304009
-0.00217673
0.00253323
0.0107489
0.00565255
-0.0103823
-0.0128288
-0.00441973
-0.0127637
-0.00941522
-0.00336749
-0.00483779
-0.0170715
-0.0293372
-0.0111351
-0.00520936
-0.00485619
0.00282958
-0.00360775
-0.00937891
-0.00174816
4.45774e-05
0.0034582
0.00911329
-0.0039992
-0.0213715
-0.00420011
-0.00408285
-0.0175993
0.00311834
0.00836397
-0.00343454
-0.00391765
-0.00100729
0.00238892
-0.00603355
-0.00341666
-0.00474497
-0.0035029
-0.00236455
-0.00404001
-0.00176952
0.00389838
0.0105047
0.00588724
-0.0100773
-0.012762
-0.00422753
-0.0156719
-0.00847092
-0.00280995
-0.00629583
-0.0203016
-0.027225
-0.0107954
-0.00482475
-0.00446126
0.00168232
-0.00393636
-0.0100048
-0.000821971
0.0017904
0.00317127
0.00617261
-0.00472834
-0.0212857
-0.00218801
-0.00275096
-0.0190758
0.00277873
0.00805685
-0.00513715
-0.0051807
-0.00106908
0.00194419
-0.00621385
-0.00372988
-0.00578384
-0.00332427
-0.00224174
-0.0053934
-0.00307202
0.00445493
0.00994391
0.00613592
-0.00934464
-0.0126804
-0.00443354
-0.0186977
-0.00833039
-0.00217965
-0.00736132
-0.0221738
-0.022817
-0.0106121
-0.00440835
-0.00421771
0.000449992
-0.00488332
-0.0102526
0.000204983
0.00305322
0.00270302
0.00321036
-0.00468012
-0.0198156
-4.98783e-05
-0.000974857
-0.019673
0.00220412
0.00786127
-0.00602856
-0.0058154
-5.26742e-05
0.000957923
-0.00512946
-0.00392016
-0.00692847
-0.00356655
-0.00166453
-0.00681031
-0.00509113
0.00435288
0.00985904
0.00679313
-0.00880881
-0.0126493
-0.00502531
-0.0218302
-0.00818895
-0.00121098
-0.00817201
-0.021548
-0.0192912
-0.0106612
-0.00395536
-0.00414554
-0.000300109
-0.00416173
-0.00935159
0.0013417
0.00364284
0.00161579
0.000874325
-0.003835
-0.0165039
0.00196475
0.000715968
-0.0190283
0.00100786
0.0076575
-0.00522144
-0.0051111
0.00190175
-0.000276831
-0.00545155
-0.0038609
-0.00693229
-0.00450644
-0.00187365
-0.00921146
-0.00724463
0.00332387
0.00996549
0.00798306
-0.00794536
-0.0118357
-0.00512139
-0.022669
-0.00856063
0.000522269
-0.00850213
-0.0181321
-0.0167492
-0.0103357
-0.00339192
-0.0028921
0.000147733
-0.00205676
-0.00736244
0.00152143
0.00384053
0.000504129
-0.000105297
-0.00186711
-0.011409
0.0035981
0.00175919
-0.017024
-0.000484269
0.00699812
-0.00458466
-0.00409568
0.00300633
-0.00110259
-0.0053695
-0.0037117
-0.00626021
-0.00557026
-0.00335582
-0.0114621
-0.00815991
0.00135778
0.00854965
0.00879172
-0.00621007
-0.00922558
-0.00387222
-0.0200191
-0.00905265
0.000333216
-0.00904295
-0.0108902
-0.0146113
-0.0104465
-0.00451576
-0.00273247
-3.08406e-06
-0.000983341
-0.00755598
0.00114752
0.00460614
4.51054e-05
-0.00178825
-0.00165754
-0.00895126
0.00525471
0.00216234
-0.0150408
-0.00177397
0.00669967
-0.00450179
-0.00453034
0.00281909
-0.00170893
-0.00423893
-0.00292771
-0.00708547
-0.00697488
-0.00381668
-0.0115691
-0.00781565
2.85246e-05
0.00644408
0.00842932
-0.00470024
-0.00609605
-0.00079755
-0.0149631
-0.0108247
-0.00125566
-0.00842295
-0.010939
-0.0132851
-0.0090316
-0.00601494
-0.00335091
-0.00122652
-0.000836432
-0.00563543
0.000796093
0.00417691
-0.00226262
-0.00626255
-0.00374819
-0.00789199
0.00449752
0.00206712
-0.0129297
-0.00202016
0.00577631
-0.00480379
-0.00525322
0.000954401
-0.00373294
-0.00325154
-0.00250034
-0.00989189
-0.0099653
-0.00498605
-0.00903514
-0.00816685
0.000451067
0.00515663
0.00488938
-0.00408116
-0.00422598
-0.000694853
-0.0129897
-0.0115689
-0.00284427
-0.00757026
-0.0109698
-0.0115428
-0.00964616
-0.00875159
-0.00174
0.000340534
0.000170662
-0.00497452
-0.000279735
0.00472061
-0.00320942
-0.00692973
-0.00699987
-0.0065632
0.00172886
-0.000463329
-0.0106569
-0.00160284
0.0047233
-0.00465309
-0.00686133
-0.00158672
-0.0047304
-0.00239704
-0.00378461
-0.0123533
-0.0107993
-0.00635892
-0.00648948
-0.00957102
0.000184996
0.00336497
0.00399763
-0.00399485
-0.0100454
-0.00305405
-0.0117077
-0.0116737
-0.00242852
-0.00658205
-0.00973739
-0.0094688
-0.0123634
-0.0109077
-0.000255913
-0.000923487
0.000264099
-0.00364473
-0.00393584
0.00265904
-0.00305739
-0.00854377
-0.006863
-0.00691823
-0.00391551
-0.00036952
-0.00697815
-0.00229203
0.00365454
-0.00446733
-0.00691422
-0.00266033
-0.00452545
-0.00215288
-0.00253056
-0.0117279
-0.0101295
-0.00754434
-0.00726648
-0.00667032
0.000995411
0.00248908
0.00147122
-0.00429529
-0.0111473
-0.00389837
-0.0110872
-0.0141009
-0.00377905
-0.00739651
-0.009456
-0.00546474
-0.0102149
-0.00997181
-0.000344914
-0.00338779
-0.00565231
-0.00418327
-0.00761658
-0.000431358
-0.0013326
-0.0111031
-0.012828
-0.00995188
-0.00833186
-0.00427913
-0.00835523
-0.00308077
-0.000562885
-0.00426635
-0.00614397
-0.0028226
-0.000835605
-0.00146247
-0.00771218
-0.00969496
-0.00799178
-0.0105412
-0.00600936
-0.0085462
-0.0012639
0.000725615
0.00202959
-0.00259298
-0.00848826
-0.00310206
-0.0129155
-0.0143216
-0.00206186
-0.00723634
-0.0069301
-0.00845174
-0.00930342
-0.00603477
-0.000170771
-0.00262393
0.00716385
-0.00471469
-0.0107261
-0.00304329
-0.0018303
-0.00661462
-0.00887107
-0.0026916
-0.00119611
-0.0041506
-0.00664494
-0.00218823
-0.000777706
-0.00295794
-0.00334125
-0.00206863
-0.00189399
0.000902672
-0.00608505
-0.00917983
-0.00710902
-0.00414166
-0.00604493
-0.0110778
-0.00325098
-8.50544e-05
0.00225329
0.00147623
-0.00475898
-0.00290234
-0.0125003
-0.0146962
-0.0051781
-0.00458616
-0.00552855
-0.00414509
-0.0059874
-0.00121206
0.000126994
-0.0077728
-0.000355111
-0.00360507
-0.00917487
0.00173007
0.000670943
-0.00590805
-0.0108926
-0.00717363
-0.00226279
-0.00434153
-0.00396655
-0.00530641
-0.00646559
-0.0033323
-0.000766084
-0.00065313
-0.00739518
-0.00167162
0.00398942
-0.0056834
-0.00665312
-0.0117793
-0.00569895
-0.0103577
-0.00417956
-0.000704063
0.00265975
0.000501281
-0.00543204
-0.00156255
-0.0108364
-0.014767
-0.0108146
-0.00766318
-0.00418574
0.00333448
-0.00356578
-0.000318753
-0.00205421
-0.00823838
0.00480799
0.00044229
-0.00795461
-0.00155664
-0.00294418
-0.0111455
-0.0107955
-0.00388617
-0.0107745
-0.00495108
-0.00101469
-0.00972574
-0.0104277
-0.00579349
-0.000645878
0.00097529
-0.00607986
-0.00185587
-0.000453368
-0.00745237
-0.00412414
-0.000235069
-0.00960473
-0.0055377
-0.000853594
9.77165e-05
-0.00194159
-0.00198413
-0.00641244
-0.000386106
-0.00496542
-0.0159775
-0.0155774
-0.000816497
0.000199906
0.00574385
0.0025257
-0.00100219
-0.000261458
-0.00222637
-0.00099913
-0.00090431
-0.00607052
-0.00691419
0.00158497
-0.00257425
-0.00868174
-0.00154048
0.000937942
-0.000805256
-0.00159451
-0.0111007
-0.00576641
-0.000868205
-0.00151268
-0.00179414
-0.00511012
0.000879878
0.00339575
-0.00415519
-0.00452921
-0.00454816
-0.00727871
-0.00515649
-0.000481336
-0.00898078
-0.00811876
-0.00403504
-0.00477563
-0.00558999
-0.013489
-0.0222263
-0.015611
-0.00145466
0.00174276
0.004964
-0.00608017
-0.00685427
-0.00266353
-0.00684108
-0.00421034
0.00401457
0.00170678
-0.00305952
0.00485648
-0.0113107
-0.00547243
-0.0020379
-0.000940067
0.000738419
-0.00391528
-0.0038498
-0.00341492
-0.00481268
-0.00202003
0.0046734
-0.0049795
0.00139164
0.0054137
-0.0116173
-0.00366934
0.000445997
-0.00398635
-0.0026683
-0.00199961
-0.00547969
-0.00554508
-0.00471189
-0.00211146
-0.00437061
-0.0159906
-0.0182109
-0.016515
-0.00830861
-0.00425075
-0.000844942
0.00193342
-0.00987514
-0.00122376
-3.55986e-05
-0.00458791
0.00808061
0.00296834
-0.00540372
0.01006
-0.00015587
0.00173115
-0.00155904
-0.000690964
-0.00869125
-0.0171627
-0.00447028
-0.0041241
-0.00164786
0.002739
0.0017917
-0.00310106
-0.000642808
-0.00229489
0.00107426
0.00757088
0.00322676
-0.00765855
0.00456332
0.00159379
-0.0118279
-0.0108442
-0.000942415
-0.000304435
-0.00158593
-0.0150485
-0.0135893
-0.00172891
-0.013319
-0.0233403
-0.00461428
-0.00890262
-0.0124761
0.00827056
0.00184231
-0.0090144
0.0106582
0.0021838
-0.00351429
0.00100546
-0.00372789
-0.00302614
-0.00168665
-0.00656118
-0.0191881
-0.009287
0.00192469
-0.00546365
-0.00238513
-0.00434198
-0.0110078
-0.00864536
-0.00534852
-0.00558726
-0.00166497
-0.00368574
-0.00452253
-0.00241472
0.00275481
0.00392943
-0.00249362
-0.0117474
-0.0144708
-0.00337363
0.00422876
-0.00559989
-0.00896809
-0.00571769
-0.0205981
-0.00478066
0.00420015
-0.0122972
-0.010083
0.00052363
-0.00150241
-0.00445501
0.0116356
0.00691714
-0.00699375
-0.00740461
-0.0115684
8.10887e-06
0.0104654
-0.00299395
-0.0100861
-0.00438749
-0.00980011
-0.0145082
-0.00170873
7.03746e-05
-0.0122768
-0.00441604
0.0179232
0.00334409
0.00207582
-0.00462836
-0.000802259
-0.0132379
0.00234532
0.0283277
0.00253864
-0.0109781
-0.00729425
0.00438945
0.00268291
-0.0175068
-0.00572543
-0.00308982
-0.0168245
0.00383207
0.00139247
-0.0114432
-0.00141479
-0.00127229
-0.00473633
0.0116222
0.025138
0.00277312
-0.00797319
-0.0109199
-0.0161395
-0.0100263
-0.00481634
-0.0154885
-0.00793735
-0.00114051
-0.000952385
-0.0145534
-0.00348773
0.0265373
0.0129334
0.00776332
-0.00225474
-0.0047506
0.00921169
0.0072112
-0.0124453
-0.00483076
-0.00678749
-0.00734725
-0.00567173
-0.00837596
-0.0167719
-0.0104952
-0.00787231
-0.038872
-0.0490585
-0.00968161
0.00381646
0.00210155
-0.00456104
-0.0107212
0.000417264
-0.00464105
0.000604986
0.00256263
-0.00564713
-0.000550235
-0.00822115
-0.00618452
0.00968334
-0.00827832
-0.0392297
-0.0221402
0.00132483
0.00112216
-0.00859192
-0.0115513
0.00152989
0.00194001
-0.0192151
-0.0124155
-0.00210251
0.00443751
-0.0054576
-0.0155305
-0.0198002
-0.000859048
0.000492991
0.000344644
-0.0150549
-0.00746645
-0.0300809
-0.030094
-0.0055553
-0.038226
-0.0248101
0.027124
0.00976559
0.00198565
-0.0012127
-0.000804542
0.00217602
-0.0131414
-0.000859063
-0.0123992
-0.0159773
-0.00559211
-0.00753775
-0.00874853
-0.00690202
0.00843081
-0.0170547
0.00428947
0.00709759
-0.0535603
-0.0345246
0.00137865
0.00418825
-0.0141911
-0.00167609
0.0161953
-0.0103582
-0.0314423
-0.00939315
-1.80345e-05
-0.0171921
-0.0156617
0.00452718
-0.0101952
-0.0237429
-0.0258787
-0.0158168
0.00284075
-0.0160754
-0.0109559
0.000372065
-0.00260888
-0.0124364
-0.00335893
0.000115031
-0.0119491
-0.00654425
0.00505478
-0.0040938
-0.0140664
-0.00461664
-0.000114314
-0.0109656
0.00559192
-0.00450472
-0.0105876
0.0110977
-0.00825003
-0.0168915
-0.022857
-0.00406943
0.00233974
7.62197e-05
0.00525397
-0.00858903
-0.0194803
-0.00952756
-0.00204773
0.0272103
-0.00697035
-0.0382175
-0.00428943
0.014902
0.00245387
-0.0184578
-0.0101152
0.0100703
-0.00710592
-0.0196158
-0.0228981
-0.0732951
-0.0192568
0.00456578
0.0293576
0.017849
-0.0208457
-0.00954187
-0.019252
-0.0380373
0.00359619
0.0106909
-0.0439769
-0.0205696
-0.00925842
-0.0395571
0.027671
0.0244472
-0.0143643
0.021444
0.0211888
-0.0313952
-0.0280566
0.0136074
0.0323503
-0.00382267
-0.00836761
0.00275002
0.0132623
-0.0186964
-0.0433915
-0.0329182
0.0349912
-0.0275509
0.0109608
0.0471195
0.0308586
-0.0258147
-0.0315853
-0.00882205
0.0200046
-0.0113886
-0.00248915
-0.0363586
-0.0650807
-0.0496776
-0.0134057
0.0211999
0.0440069
0.0387558
0.00849573
0.0370182
0.0376898
0.0118209
5.5237e-05
-0.0235785
-0.0194262
-0.0152861
0.00130012
-0.00140351
0.0133825
-0.00773053
-0.00668357
0.0333977
0.0028496
-0.0228636
0.00687598
0.0167142
0.0086052
-0.0269948
-0.0459269
0.00435694
-0.00585798
-0.00780664
0.00109858
0.00230007
0.0121485
0.00608231