/*--------------------------------*- C++ -*----------------------------------*\
  =========                 |
  \\      /  F ield         | OpenFOAM: The Open Source CFD Toolbox
   \\    /   O peration     | Website:  https://openfoam.org
    \\  /    A nd           | Version:  10
     \\/     M anipulation  |
\*---------------------------------------------------------------------------*/
FoamFile
{
    format      ascii;
    class       volScalarField;
    location    "10";
    object      nut;
}
// * * * * * * * * * * * * * * * * * * * * * * * * * * * * * * * * * * * * * //

dimensions      [0 2 -1 0 0 0 0];

internalField   nonuniform List<scalar> 
25600
(
2.68072e-07
1.10088e-07
8.5735e-09
4.39333e-07
2.22991e-09
6.76915e-08
2.74903e-07
1.9394e-10
2.50691e-07
9.07894e-08
2.69766e-08
3.42927e-08
1.06282e-07
1.31841e-07
8.3625e-09
1.64322e-07
1.06877e-07
8.31557e-09
1.01591e-07
1.69091e-07
4.46564e-09
2.23793e-07
7.28135e-08
6.85882e-09
3.13704e-07
4.92466e-09
2.39218e-07
1.947e-07
5.10261e-10
2.37921e-07
5.26835e-08
2.78491e-08
6.35697e-08
1.1065e-07
2.92922e-08
6.45712e-08
9.34489e-08
1.54853e-08
1.98852e-07
1.12385e-08
1.94818e-07
1.48131e-07
5.28319e-09
3.7897e-07
5.66933e-09
4.81407e-08
1.97644e-07
9.62752e-10
7.63491e-08
4.44723e-08
2.12115e-07
3.99855e-09
1.4593e-07
1.92589e-07
5.30503e-09
2.34705e-07
6.50772e-08
4.36448e-09
2.0026e-07
1.87496e-08
2.54601e-09
3.00127e-07
6.16243e-09
1.21275e-07
1.3485e-07
4.32406e-09
3.45283e-07
2.62107e-08
3.11994e-08
6.65004e-08
4.31611e-08
9.58821e-08
8.84128e-09
2.1239e-07
1.16713e-08
1.89076e-08
1.119e-07
1.41384e-08
2.33661e-07
6.39562e-09
2.16452e-07
4.68326e-08
7.09696e-09
2.17114e-07
1.85188e-08
1.0372e-07
3.09363e-08
9.3048e-08
8.45361e-09
2.25534e-08
2.78809e-07
2.26537e-09
1.64123e-07
1.3812e-07
9.89311e-09
7.44018e-08
1.63457e-07
2.98321e-09
1.77889e-07
9.89512e-09
5.23681e-09
3.23792e-07
5.95251e-09
3.48292e-07
1.79994e-08
9.96059e-09
2.61455e-07
1.32129e-08
3.59299e-07
5.05375e-09
3.79748e-08
2.44634e-07
7.81725e-09
1.24238e-07
2.97791e-08
1.41808e-08
4.74904e-08
1.40677e-07
1.10744e-07
6.21949e-09
1.32951e-07
3.41469e-08
1.12693e-07
1.29547e-08
6.53582e-08
1.62695e-07
4.89654e-09
3.09298e-07
2.00383e-09
4.19648e-08
2.4373e-07
2.07164e-09
4.03295e-08
1.58934e-07
2.02628e-08
3.08156e-09
3.19998e-07
2.52081e-09
2.46631e-07
1.41327e-08
5.01408e-08
2.60859e-07
9.14354e-09
5.01557e-07
9.53829e-09
1.68763e-07
6.55981e-08
8.05383e-09
5.13332e-07
2.27175e-09
3.89726e-08
4.34239e-07
3.71163e-09
5.14402e-08
2.68008e-07
8.02192e-09
5.86916e-08
3.02794e-07
1.78641e-08
1.86668e-08
1.48877e-08
3.71567e-08
2.55064e-07
5.44082e-09
2.33624e-07
1.65828e-07
5.10617e-09
3.81941e-07
1.53052e-09
6.15487e-08
1.69677e-07
1.67617e-08
5.46752e-09
2.14047e-07
1.29552e-08
4.2936e-09
3.15771e-07
4.7133e-09
2.55221e-07
2.19735e-08
3.3717e-07
2.44442e-08
1.23012e-08
5.33211e-07
1.15745e-08
3.73081e-07
9.4024e-09
6.38189e-09
4.79219e-07
6.9529e-09
8.73177e-08
5.35991e-07
3.60538e-09
8.93326e-08
3.3575e-07
1.33957e-08
2.65169e-07
2.28645e-07
1.80039e-08
1.86604e-07
4.78311e-09
5.05895e-08
2.73149e-07
9.33226e-09
4.1979e-07
1.4407e-07
9.36724e-09
3.18523e-07
5.40329e-09
4.22627e-08
1.35952e-07
1.14194e-07
6.40982e-09
2.03083e-07
7.34561e-09
2.31524e-08
1.99677e-07
1.05671e-08
6.85486e-08
2.99227e-08
5.64931e-07
5.04223e-09
1.47091e-07
4.1153e-07
1.53225e-08
4.77952e-07
8.95916e-09
1.92579e-08
3.38736e-07
1.19553e-08
2.39326e-07
4.46938e-07
6.87954e-09
3.00506e-07
1.19082e-07
1.79413e-08
4.84248e-07
5.00496e-08
1.89372e-08
2.73779e-07
7.76229e-09
9.96065e-08
2.17866e-07
1.40793e-08
5.60228e-07
1.12395e-07
1.53139e-08
2.492e-07
1.54587e-08
2.71705e-08
1.56968e-07
1.7362e-07
1.11062e-08
1.40758e-07
1.01001e-08
6.21241e-08
1.16428e-07
7.80392e-08
6.56559e-09
6.05899e-08
5.9268e-07
5.98534e-09
4.73787e-07
2.21701e-07
2.10509e-08
5.04806e-07
1.36651e-08
4.19088e-08
2.13505e-07
1.63606e-08
3.9351e-07
2.38217e-07
8.01802e-09
3.92276e-07
2.55784e-08
3.30433e-08
4.99058e-07
1.6608e-08
2.18344e-08
2.78887e-07
1.48306e-08
1.78657e-07
1.34796e-07
2.19026e-08
7.12118e-07
7.53801e-08
2.50096e-08
2.14125e-07
1.83814e-08
2.50265e-08
2.22389e-07
1.74548e-07
1.72825e-08
9.20458e-08
5.05818e-08
1.01883e-07
9.7299e-08
1.50599e-07
8.9634e-09
2.11553e-07
5.1988e-07
1.06668e-08
6.64415e-07
8.35268e-08
3.02034e-08
5.2142e-07
3.05168e-08
6.67432e-08
1.31964e-07
2.83488e-08
4.61081e-07
1.11014e-07
9.84184e-09
3.03214e-07
2.92805e-08
1.25488e-07
4.51623e-07
2.33376e-08
3.24861e-08
2.73384e-07
3.22982e-08
2.59139e-07
8.5197e-08
3.55038e-08
7.94659e-07
8.20049e-08
5.38861e-08
1.77759e-07
2.1337e-08
3.06148e-08
2.64521e-07
1.66946e-07
2.94342e-08
9.63549e-08
1.94679e-07
1.44354e-07
1.0666e-07
1.80083e-07
2.11288e-08
3.0875e-07
4.28986e-07
2.73811e-08
7.67409e-07
3.38209e-08
4.90791e-08
5.41018e-07
7.80731e-08
9.7674e-08
1.08463e-07
6.90552e-08
4.3354e-07
1.15855e-07
2.16297e-08
2.38327e-07
5.76654e-08
2.26752e-07
4.34082e-07
3.70477e-08
5.17367e-08
2.51049e-07
8.32579e-08
2.95337e-07
1.02659e-07
8.30712e-08
7.7645e-07
1.38182e-07
1.23037e-07
1.09071e-07
2.58548e-08
5.41175e-08
3.00008e-07
1.68353e-07
5.78528e-08
1.43135e-07
3.41306e-07
1.96837e-07
1.1492e-07
2.14447e-07
5.18512e-08
3.66101e-07
4.25863e-07
9.63221e-08
7.80876e-07
2.78656e-08
8.08632e-08
6.09055e-07
1.98477e-07
1.50831e-07
1.25936e-07
1.64701e-07
4.22137e-07
1.65956e-07
5.10586e-08
2.61062e-07
1.34333e-07
2.91341e-07
4.69945e-07
6.16104e-08
5.67711e-08
2.10818e-07
1.69638e-07
3.02633e-07
1.48507e-07
1.93523e-07
6.82165e-07
2.83082e-07
2.38788e-07
8.74003e-08
3.80099e-08
1.14584e-07
2.93426e-07
2.03857e-07
1.11858e-07
2.30753e-07
5.08747e-07
2.89446e-07
1.29126e-07
2.70354e-07
1.22421e-07
3.88381e-07
4.9678e-07
2.59379e-07
8.03418e-07
3.67536e-08
1.28274e-07
7.15917e-07
4.03491e-07
2.20653e-07
1.83752e-07
2.5631e-07
4.62902e-07
2.45394e-07
1.0718e-07
3.50044e-07
2.52331e-07
3.13552e-07
5.47959e-07
1.23022e-07
7.45152e-08
1.71862e-07
3.44573e-07
3.11038e-07
2.71316e-07
3.16748e-07
7.25536e-07
5.66727e-07
3.58102e-07
1.01684e-07
5.25438e-08
2.0723e-07
2.32862e-07
2.22445e-07
2.04489e-07
3.39862e-07
6.96188e-07
4.29815e-07
1.51195e-07
3.62936e-07
2.43181e-07
4.91338e-07
6.55116e-07
4.18193e-07
7.30101e-07
4.84399e-08
1.91295e-07
9.31577e-07
7.20551e-07
3.48038e-07
2.59568e-07
3.62144e-07
5.96842e-07
3.53336e-07
1.8589e-07
5.27499e-07
4.49142e-07
3.5425e-07
6.47376e-07
1.97198e-07
1.12251e-07
2.99197e-07
4.95844e-07
4.10853e-07
4.73557e-07
4.1602e-07
8.53752e-07
9.62053e-07
5.33075e-07
1.30992e-07
1.56845e-07
3.88425e-07
2.751e-07
2.78171e-07
3.27506e-07
4.87513e-07
1.03727e-06
6.78632e-07
2.10782e-07
5.21625e-07
4.24938e-07
6.44715e-07
9.50726e-07
7.45405e-07
7.20177e-07
5.69373e-08
3.04833e-07
1.24734e-06
1.0836e-06
4.72954e-07
3.44324e-07
4.8055e-07
7.88833e-07
4.82576e-07
2.88294e-07
7.03675e-07
6.37031e-07
3.44002e-07
8.64803e-07
3.35904e-07
1.93626e-07
4.38103e-07
7.19019e-07
4.21735e-07
7.84758e-07
5.03678e-07
1.22009e-06
1.36326e-06
5.57537e-07
2.9394e-07
4.45474e-07
5.00996e-07
4.99945e-07
4.11061e-07
5.5226e-07
6.18982e-07
1.37893e-06
9.50622e-07
3.42893e-07
6.84703e-07
6.00985e-07
9.2962e-07
1.18034e-06
8.36053e-07
6.94569e-07
8.43299e-08
6.40015e-07
1.81961e-06
1.60307e-06
6.98434e-07
3.11303e-07
6.47305e-07
1.0078e-06
6.76047e-07
5.31613e-07
1.02334e-06
8.55196e-07
2.38834e-07
9.70909e-07
4.54367e-07
3.81802e-07
7.81668e-07
1.00029e-06
7.78693e-07
1.12434e-06
2.62067e-07
1.3159e-06
2.02695e-06
1.14165e-06
1.15026e-06
1.81837e-06
1.42438e-06
6.93787e-07
7.00499e-07
9.5816e-07
9.61614e-07
1.75116e-06
1.23234e-06
5.59782e-07
8.24441e-07
5.87094e-07
1.25715e-06
1.46314e-06
1.08202e-06
9.78296e-07
2.09124e-07
1.15821e-06
2.74704e-06
2.16827e-06
1.24523e-06
1.12287e-06
1.36867e-06
1.49965e-06
9.7551e-07
7.33747e-07
1.2374e-06
1.17017e-06
4.8208e-07
9.72509e-07
4.3841e-07
4.8735e-07
9.7738e-07
9.5426e-07
8.06023e-07
1.72331e-06
5.75658e-07
1.1784e-06
1.58133e-06
1.21948e-06
1.59939e-06
2.90284e-06
3.21718e-06
1.88633e-06
1.16205e-06
1.20495e-06
1.26004e-06
2.07393e-06
1.33283e-06
8.43489e-07
1.02952e-06
6.17271e-07
1.34771e-06
1.63746e-06
1.91728e-06
1.98197e-06
6.40786e-07
1.2321e-06
3.02802e-06
1.36849e-06
5.77339e-07
1.59095e-06
2.52729e-06
2.78255e-06
1.52978e-06
1.08345e-06
1.57623e-06
1.12951e-06
8.75361e-07
1.58851e-06
5.09088e-07
4.68158e-07
1.12756e-06
1.07921e-06
1.27195e-06
2.12088e-06
4.42286e-07
1.4449e-06
2.6817e-06
2.37266e-06
2.32771e-06
2.83482e-06
4.1155e-06
2.98707e-06
2.07359e-06
1.84337e-06
2.21716e-06
2.48143e-06
1.00253e-06
9.15457e-07
1.3065e-06
1.39783e-06
1.65657e-06
2.01875e-06
2.46297e-06
2.39552e-06
1.01558e-06
1.27734e-06
3.07689e-06
2.20168e-06
1.41963e-06
1.37766e-06
2.81495e-06
4.35078e-06
3.34943e-06
1.34483e-06
2.37015e-06
1.74575e-06
5.96803e-07
1.76223e-06
1.32123e-06
7.68403e-07
1.60177e-06
1.28462e-06
1.3865e-06
2.47643e-06
5.7172e-07
1.64876e-06
2.39206e-06
1.85172e-06
2.50664e-06
1.48845e-06
2.98464e-06
2.38636e-06
2.57994e-06
3.32908e-06
3.86337e-06
3.44118e-06
1.00336e-06
1.09461e-06
1.20365e-06
1.72643e-06
2.37844e-06
3.65218e-06
3.15965e-06
2.3762e-06
6.11833e-07
1.68252e-06
3.19042e-06
4.313e-06
3.73881e-06
2.96565e-06
2.33921e-06
4.60076e-06
4.88547e-06
3.41949e-06
2.92464e-06
1.87878e-06
1.36256e-06
2.55532e-06
1.78473e-06
1.74747e-06
3.10499e-06
1.87823e-06
1.48366e-06
2.24453e-06
1.59017e-06
1.69372e-06
1.44486e-06
1.1389e-06
2.60911e-06
2.51129e-06
1.80695e-06
2.90478e-06
2.88692e-06
4.00643e-06
3.58542e-06
3.35805e-06
2.61209e-06
2.57808e-06
2.59241e-06
2.00482e-06
1.52437e-06
3.13018e-06
5.86021e-06
3.84491e-06
1.78842e-06
4.03959e-06
2.92992e-06
4.32374e-06
3.37846e-06
4.35938e-06
2.48832e-06
3.06921e-06
3.77264e-06
4.58876e-06
2.87409e-06
2.09932e-06
2.41747e-06
2.81009e-06
1.99844e-06
2.1318e-06
2.66216e-06
3.10143e-06
4.48335e-06
2.56564e-06
8.04438e-07
4.55205e-06
5.69524e-06
4.00896e-06
3.79906e-06
4.06012e-06
3.44864e-06
2.40991e-06
1.66624e-06
3.58696e-06
4.31487e-06
4.0466e-06
3.24867e-06
2.43549e-06
3.1524e-06
2.42407e-06
2.19582e-06
5.20616e-06
4.93235e-06
5.14871e-06
7.17098e-06
7.70372e-06
5.40458e-06
6.10326e-06
6.85319e-06
3.86979e-06
3.47394e-06
2.79923e-06
3.23984e-06
4.49312e-06
1.72372e-06
3.30616e-06
3.95096e-06
4.93058e-06
4.26127e-06
3.83814e-06
2.694e-06
6.33992e-06
5.29241e-06
4.83599e-06
1.80032e-06
4.558e-06
3.19547e-06
3.81697e-06
3.01415e-06
4.80461e-06
3.32307e-06
5.36572e-06
3.17979e-06
3.81483e-06
7.5887e-06
6.16741e-06
3.56773e-06
6.87117e-06
5.95317e-06
5.17191e-06
5.12471e-06
1.25865e-05
5.90991e-06
7.68959e-06
1.08655e-05
5.3161e-06
7.692e-06
1.19069e-05
1.49018e-05
9.06414e-06
6.53988e-06
2.49241e-06
5.55731e-06
5.75561e-06
2.69228e-06
6.61201e-06
7.50681e-06
1.02095e-05
6.49343e-06
4.96902e-06
2.53269e-06
1.24248e-05
7.64436e-06
9.55938e-06
8.40409e-06
2.7148e-06
3.0674e-06
2.95825e-06
3.54948e-06
6.53971e-06
1.2642e-05
1.00161e-05
8.48451e-06
3.88996e-06
7.55125e-06
5.67922e-06
8.45173e-06
1.26371e-05
2.51952e-06
3.53418e-06
8.38755e-06
8.57846e-06
1.02106e-05
3.88726e-06
2.79345e-06
4.95915e-06
7.40956e-06
1.38937e-05
1.27689e-05
1.0533e-05
9.18234e-06
4.01712e-06
7.38622e-06
7.22908e-06
5.68542e-06
1.08479e-05
1.29335e-05
1.18623e-05
1.02934e-05
6.48759e-06
5.33044e-06
1.44189e-05
1.14313e-05
2.09808e-05
1.99676e-05
1.47029e-05
1.31017e-05
4.29345e-06
6.70037e-06
1.73972e-05
1.23898e-05
1.29989e-05
1.17682e-05
3.75721e-06
8.66691e-06
4.81551e-06
1.47084e-05
8.08398e-06
3.6386e-06
6.48007e-06
5.25287e-06
1.57474e-05
1.05751e-05
3.88624e-06
5.18757e-06
8.39357e-06
8.4231e-06
1.28368e-05
1.01591e-05
1.00717e-05
7.06038e-06
8.74817e-06
7.20231e-06
7.43296e-06
8.45752e-06
4.56767e-06
1.44184e-05
6.44445e-06
9.04924e-06
5.18776e-06
1.17998e-05
1.11964e-05
1.83861e-05
2.81354e-05
2.23837e-05
2.27345e-05
6.51718e-06
3.60778e-06
1.34657e-05
1.84812e-05
1.2948e-05
1.67578e-05
1.1976e-05
5.64343e-06
8.57529e-06
7.56535e-06
9.6385e-06
2.71729e-06
1.09481e-05
9.17675e-06
1.22271e-05
1.91899e-05
1.20242e-05
1.15261e-05
7.93206e-06
5.22659e-06
1.06635e-05
1.29351e-05
6.52954e-06
4.12787e-06
6.93365e-06
1.21881e-05
5.67596e-06
4.48298e-06
8.45392e-06
2.3873e-05
1.03535e-05
8.56407e-06
1.18946e-05
9.07397e-06
1.90726e-05
4.82586e-06
1.85867e-05
1.73365e-05
1.50558e-05
8.74095e-06
1.59648e-05
9.11841e-06
2.03209e-05
1.94651e-05
1.53558e-05
1.58928e-05
9.75667e-06
8.41912e-06
5.90868e-06
1.09685e-05
7.62776e-06
4.1155e-06
1.4915e-05
1.33117e-05
1.67015e-05
1.18542e-05
7.37276e-06
1.111e-05
4.57269e-06
5.69109e-06
1.51382e-05
1.09284e-05
7.30148e-06
6.99535e-06
9.90714e-06
1.01451e-05
3.86749e-06
3.46941e-06
2.3335e-05
3.75138e-05
9.79174e-06
1.06589e-05
7.01282e-06
1.58256e-05
1.58546e-05
3.71251e-06
1.12379e-05
6.70364e-06
9.09327e-06
2.20304e-05
1.88668e-05
2.22949e-05
2.33909e-05
1.7208e-05
1.26648e-05
9.14605e-06
9.65092e-06
1.1393e-05
1.06483e-05
1.51772e-05
1.01738e-05
6.71256e-06
1.24155e-05
1.15917e-05
1.41514e-05
1.06444e-05
6.68541e-06
6.13598e-06
7.70249e-06
9.0005e-06
1.62232e-05
8.40123e-06
6.22818e-06
9.61683e-06
1.09073e-05
6.58721e-06
4.34799e-06
9.04784e-06
2.99763e-05
2.81307e-05
1.05045e-05
1.03926e-05
1.07192e-05
1.43317e-05
8.95968e-06
6.4282e-06
8.46584e-06
6.58449e-06
4.85287e-06
1.38197e-05
2.54413e-05
2.85544e-05
1.79474e-05
1.09219e-05
6.61935e-06
4.51536e-06
5.94302e-06
1.13605e-05
1.47744e-05
1.47548e-05
8.46803e-06
6.90963e-06
9.68978e-06
1.26356e-05
1.56369e-05
1.55771e-05
9.11631e-06
6.115e-06
8.66759e-06
1.33858e-05
1.76654e-05
1.13732e-05
1.14338e-05
1.67661e-05
1.1798e-05
7.51192e-06
1.23572e-05
1.57936e-05
2.11262e-05
1.40907e-05
7.37492e-06
9.64684e-06
9.33511e-06
1.08487e-05
9.34752e-06
9.8806e-06
1.10638e-05
9.14931e-06
7.35844e-06
2.26724e-05
3.14767e-05
2.25494e-05
1.0988e-05
6.32055e-06
5.20933e-06
3.79755e-06
6.83719e-06
1.55065e-05
2.09971e-05
1.58832e-05
1.00354e-05
1.07534e-05
1.33792e-05
1.75256e-05
1.81605e-05
1.85535e-05
1.31128e-05
1.09894e-05
1.58281e-05
2.09235e-05
2.13869e-05
1.73299e-05
1.9345e-05
1.8477e-05
1.22467e-05
1.30509e-05
1.85508e-05
1.62051e-05
1.30138e-05
7.32281e-06
7.29538e-06
1.07862e-05
1.13117e-05
1.34769e-05
1.07854e-05
1.18575e-05
1.17528e-05
1.03254e-05
1.37846e-05
2.45614e-05
2.5009e-05
1.69562e-05
8.94098e-06
7.1165e-06
9.89345e-06
8.00996e-06
1.27589e-05
2.31538e-05
2.85186e-05
2.11547e-05
1.64922e-05
1.71564e-05
1.92689e-05
2.11648e-05
2.01254e-05
2.0802e-05
1.75601e-05
1.90742e-05
2.17464e-05
2.49226e-05
2.39832e-05
2.0911e-05
2.00967e-05
1.64045e-05
1.36203e-05
1.72509e-05
1.94019e-05
1.3981e-05
9.57779e-06
7.50512e-06
1.17077e-05
1.55448e-05
1.58491e-05
1.51952e-05
1.17867e-05
1.25671e-05
1.21037e-05
1.11388e-05
1.41943e-05
1.94193e-05
2.00486e-05
1.60971e-05
1.21463e-05
1.24874e-05
1.60907e-05
1.55482e-05
1.9708e-05
3.06668e-05
3.24071e-05
2.35485e-05
2.03407e-05
2.05837e-05
2.19983e-05
2.19157e-05
2.12108e-05
2.17189e-05
2.01447e-05
2.25002e-05
2.28546e-05
2.52467e-05
2.43067e-05
2.09723e-05
1.77079e-05
1.51044e-05
1.55821e-05
1.80253e-05
1.73987e-05
1.21642e-05
1.07765e-05
1.17332e-05
1.55148e-05
1.85125e-05
1.73713e-05
1.51195e-05
1.25212e-05
1.31042e-05
1.27108e-05
1.14222e-05
1.21266e-05
1.61933e-05
1.89169e-05
1.80355e-05
1.70112e-05
1.71337e-05
1.96192e-05
1.9532e-05
2.37454e-05
3.30025e-05
3.08901e-05
2.28581e-05
2.10536e-05
2.08711e-05
2.18315e-05
2.13509e-05
2.13699e-05
2.13548e-05
2.06985e-05
2.20628e-05
2.13372e-05
2.3219e-05
2.2789e-05
1.94969e-05
1.54754e-05
1.52782e-05
1.65359e-05
1.65286e-05
1.50796e-05
1.22596e-05
1.36773e-05
1.45176e-05
1.5569e-05
1.73849e-05
1.63995e-05
1.4964e-05
1.3347e-05
1.3869e-05
1.39629e-05
1.24216e-05
9.32954e-06
1.4014e-05
1.81336e-05
1.97072e-05
2.03401e-05
1.95257e-05
2.09839e-05
2.05106e-05
2.36097e-05
3.01715e-05
2.79283e-05
2.25185e-05
2.12377e-05
1.98412e-05
2.00214e-05
2.00444e-05
2.07146e-05
2.08063e-05
2.05842e-05
2.06309e-05
1.94044e-05
1.98543e-05
2.01278e-05
1.90049e-05
1.49466e-05
1.4875e-05
1.61427e-05
1.50418e-05
1.35272e-05
1.20881e-05
1.50575e-05
1.62939e-05
1.45826e-05
1.38471e-05
1.41066e-05
1.49179e-05
1.44766e-05
4.04081e-07
1.4457e-08
9.10302e-09
5.42278e-07
1.27006e-09
8.17333e-08
2.38314e-07
6.72192e-10
2.27172e-07
5.56964e-08
4.69304e-08
1.58239e-08
1.01432e-07
1.37921e-07
7.7685e-09
1.83367e-07
1.16678e-07
1.02007e-08
8.56335e-08
2.14065e-07
5.39324e-09
2.52104e-07
4.69008e-08
2.97133e-09
3.96657e-07
4.16595e-09
2.19237e-07
2.46196e-07
1.09765e-09
2.62985e-07
4.37346e-08
2.0481e-08
1.26972e-07
3.47808e-08
3.39959e-08
1.1458e-07
2.56567e-08
4.38514e-08
1.09257e-07
9.49347e-09
2.6877e-07
6.38814e-08
8.66291e-09
4.47656e-07
3.832e-09
5.92581e-08
1.7767e-07
1.26061e-09
5.13938e-08
4.74713e-08
2.04565e-07
2.29128e-09
2.09713e-07
1.33714e-07
6.32072e-09
2.77335e-07
4.92292e-08
6.64527e-09
1.70319e-07
5.59595e-08
3.66872e-09
2.98361e-07
9.36788e-09
1.20751e-07
1.72719e-07
4.68999e-09
3.39547e-07
3.73208e-08
8.99233e-09
6.6621e-08
5.57136e-08
5.73655e-08
8.38448e-09
1.60986e-07
1.77665e-08
8.06974e-08
4.31316e-08
2.44995e-08
1.85284e-07
6.02658e-09
2.24166e-07
4.74632e-08
2.40834e-08
2.29281e-07
1.5184e-08
1.17964e-07
1.9251e-08
8.34806e-08
9.1316e-09
5.99241e-08
2.11415e-07
2.08513e-09
2.61166e-07
6.09007e-08
2.26006e-08
8.16032e-08
1.79746e-07
5.12003e-09
1.38416e-07
6.12831e-08
5.51376e-09
2.83222e-07
9.35319e-09
3.59487e-07
5.45291e-09
5.5201e-09
2.6456e-07
1.51509e-08
3.54589e-07
5.30927e-09
6.25652e-08
2.05045e-07
7.23387e-09
1.12905e-07
6.43154e-08
6.29239e-08
3.12214e-08
1.25277e-07
8.84174e-08
5.91059e-09
9.94842e-08
4.5478e-08
2.27406e-07
5.91482e-09
7.37339e-08
1.46671e-07
5.09579e-09
3.31973e-07
5.9747e-09
9.37484e-08
1.36553e-07
2.41733e-09
1.08667e-07
1.21887e-07
6.20964e-08
2.34975e-09
4.12054e-07
2.08267e-09
2.30285e-07
1.9463e-08
1.31103e-08
2.05308e-07
1.47786e-08
4.76288e-07
4.66737e-09
1.59124e-07
8.77264e-08
8.62791e-09
5.50673e-07
1.21099e-09
5.81399e-08
4.00553e-07
2.83291e-09
4.42226e-08
3.66919e-07
1.56266e-08
4.06887e-08
2.60457e-07
2.31408e-08
3.42775e-08
7.86117e-09
6.23165e-08
3.69214e-07
3.18547e-09
2.9835e-07
9.16037e-08
3.79424e-09
4.81468e-07
7.02065e-09
9.42244e-08
1.12356e-07
5.12005e-08
2.61052e-09
2.68696e-07
5.2833e-08
5.27675e-09
4.5963e-07
5.46182e-09
3.14925e-07
1.58091e-08
1.97539e-07
1.9883e-08
2.51655e-08
4.50263e-07
5.23416e-09
3.97593e-07
1.92256e-08
1.23728e-08
5.53822e-07
3.08499e-09
6.34061e-08
5.43585e-07
1.52063e-09
1.02541e-07
5.05849e-07
1.82613e-08
1.86546e-07
1.66897e-07
2.15472e-08
2.62912e-07
2.5558e-09
1.16283e-07
3.4836e-07
4.18446e-09
4.7702e-07
3.19709e-08
5.25439e-09
4.88423e-07
2.55426e-08
6.1552e-08
1.35176e-07
2.38046e-07
6.88758e-09
3.85711e-07
4.35084e-08
3.02791e-08
3.33291e-07
1.42407e-08
2.27946e-07
2.10409e-08
3.92403e-07
1.11002e-08
6.22784e-08
3.15182e-07
4.6317e-09
5.30805e-07
1.50651e-08
4.21599e-08
4.5842e-07
6.42243e-09
1.46771e-07
4.82092e-07
5.42549e-09
3.75012e-07
3.04984e-07
3.02378e-08
4.04884e-07
2.49449e-08
2.14029e-08
3.71952e-07
6.12519e-09
1.63611e-07
2.8136e-07
5.20478e-09
5.22245e-07
1.55937e-08
1.21326e-08
4.78501e-07
9.60698e-08
5.18326e-08
1.80073e-07
3.57433e-07
1.58548e-08
4.38926e-07
5.41863e-08
8.37337e-08
2.23975e-07
6.03696e-08
1.14943e-07
3.43144e-08
3.63234e-07
1.72545e-08
1.87789e-07
1.73115e-07
4.68543e-09
5.91899e-07
2.2928e-08
7.34728e-08
3.68145e-07
9.7939e-09
2.45951e-07
2.46654e-07
1.03193e-08
5.53114e-07
8.70868e-08
6.20027e-08
4.46485e-07
1.72915e-08
2.73941e-08
3.83097e-07
1.41611e-08
1.9191e-07
1.97035e-07
7.33437e-09
5.41809e-07
1.32804e-08
3.2761e-08
4.73604e-07
1.68535e-07
6.53907e-08
2.50213e-07
4.14935e-07
2.83765e-08
4.34733e-07
8.32582e-08
1.31839e-07
1.71585e-07
1.35245e-07
1.1671e-07
7.58762e-08
2.38361e-07
2.67369e-08
2.71841e-07
1.31539e-07
8.97506e-09
6.37064e-07
4.41174e-08
9.66589e-08
2.93341e-07
1.76891e-08
2.84374e-07
1.17266e-07
2.35983e-08
5.49937e-07
7.97653e-08
1.173e-07
3.81436e-07
2.10982e-08
4.74602e-08
3.98707e-07
3.01122e-08
2.29102e-07
1.19856e-07
1.61076e-08
5.02318e-07
2.12061e-08
9.91206e-08
4.89032e-07
2.44983e-07
8.86669e-08
2.99551e-07
4.5518e-07
4.51882e-08
4.23638e-07
1.12933e-07
1.82845e-07
1.66079e-07
2.04539e-07
1.88659e-07
1.18259e-07
1.33931e-07
4.19653e-08
3.30155e-07
1.52161e-07
2.26163e-08
6.43122e-07
7.31276e-08
1.19911e-07
2.63666e-07
4.53102e-08
2.3841e-07
1.14988e-07
1.03376e-07
5.26e-07
1.40679e-07
1.71289e-07
3.35063e-07
2.89449e-08
8.07326e-08
4.24922e-07
7.7687e-08
2.68828e-07
8.63491e-08
4.36543e-08
4.87946e-07
5.51684e-08
2.18763e-07
4.71829e-07
3.42634e-07
1.21139e-07
3.57579e-07
5.06081e-07
6.30559e-08
4.45958e-07
1.5911e-07
2.77706e-07
1.63063e-07
3.0768e-07
3.16554e-07
1.61471e-07
1.15848e-07
6.41425e-08
3.7713e-07
1.85594e-07
6.30683e-08
6.57576e-07
1.22297e-07
1.54552e-07
2.99933e-07
8.11582e-08
2.2994e-07
1.52172e-07
2.00284e-07
5.48166e-07
1.98421e-07
2.03283e-07
3.64385e-07
5.20975e-08
1.31194e-07
4.43654e-07
1.64905e-07
3.13007e-07
1.36044e-07
1.11827e-07
5.18124e-07
1.72759e-07
3.89496e-07
5.061e-07
4.40066e-07
1.31189e-07
4.20669e-07
5.05539e-07
9.50571e-08
4.82914e-07
2.12529e-07
3.9393e-07
1.81446e-07
4.55485e-07
4.40857e-07
2.16979e-07
1.45125e-07
1.07107e-07
4.62546e-07
2.50279e-07
1.50365e-07
6.94076e-07
1.95577e-07
2.44947e-07
3.88197e-07
1.14696e-07
2.71114e-07
2.13322e-07
2.72138e-07
7.00495e-07
2.83684e-07
2.14754e-07
3.54772e-07
1.27072e-07
2.5356e-07
4.8776e-07
3.27959e-07
3.82166e-07
2.05391e-07
2.71165e-07
7.2468e-07
4.23111e-07
5.49131e-07
6.47807e-07
6.09908e-07
1.55035e-07
4.96585e-07
4.86907e-07
1.38453e-07
5.47798e-07
3.27771e-07
4.94197e-07
2.19437e-07
6.72817e-07
6.02666e-07
3.25848e-07
1.91148e-07
1.7977e-07
5.80703e-07
3.3554e-07
3.33614e-07
8.21473e-07
3.08424e-07
3.95364e-07
4.80813e-07
1.92417e-07
4.27928e-07
2.54266e-07
3.4594e-07
8.81868e-07
3.48676e-07
2.62734e-07
4.23488e-07
2.77118e-07
4.08065e-07
5.76988e-07
5.3765e-07
4.73508e-07
3.25843e-07
3.95183e-07
1.04662e-06
8.01663e-07
6.19639e-07
6.66923e-07
7.58353e-07
3.09944e-07
6.52856e-07
4.61468e-07
2.02416e-07
6.41247e-07
5.32316e-07
6.80702e-07
3.50046e-07
8.84814e-07
7.47633e-07
5.23248e-07
3.19159e-07
2.91817e-07
7.79205e-07
4.09881e-07
5.26188e-07
9.60175e-07
4.42903e-07
6.99671e-07
6.41479e-07
2.62406e-07
6.95503e-07
4.17873e-07
5.66945e-07
1.1395e-06
3.62467e-07
4.25838e-07
6.35675e-07
5.41674e-07
6.99583e-07
7.07854e-07
1.00809e-06
5.76909e-07
6.03475e-07
4.00011e-07
1.79352e-06
1.94632e-06
1.1355e-06
7.03086e-07
1.04575e-06
9.23681e-07
1.04223e-06
5.52786e-07
2.93687e-07
8.35123e-07
7.8408e-07
9.91344e-07
5.58657e-07
1.16149e-06
9.05838e-07
6.5809e-07
5.4812e-07
4.07203e-07
1.01907e-06
3.83637e-07
6.95222e-07
1.20592e-06
4.87603e-07
1.15553e-06
1.0032e-06
3.12087e-07
1.05349e-06
9.73691e-07
8.99762e-07
1.1807e-06
6.76833e-07
1.20478e-06
1.64083e-06
9.65005e-07
9.79054e-07
9.95704e-07
1.44764e-06
1.13456e-06
1.48571e-06
6.47436e-07
2.13786e-06
3.61275e-06
2.5459e-06
1.00033e-06
1.14995e-06
1.86635e-06
2.20627e-06
7.40851e-07
6.4231e-07
9.97693e-07
1.23728e-06
1.40932e-06
2.78556e-07
1.21578e-06
8.67627e-07
7.14724e-07
9.51956e-07
6.83156e-07
9.59694e-07
2.7708e-07
1.12702e-06
1.46743e-06
8.3103e-07
1.37341e-06
1.59801e-06
9.72424e-07
1.12517e-06
1.01409e-06
2.10777e-06
1.20874e-06
9.99324e-07
1.64192e-06
2.64997e-06
1.45401e-06
1.08074e-06
1.27484e-06
2.00906e-06
1.70644e-06
2.24135e-06
1.16783e-06
3.12058e-06
2.64473e-06
2.52735e-06
9.44714e-07
1.35023e-06
1.12654e-06
2.95131e-06
1.32894e-06
1.10944e-06
1.75468e-06
1.86967e-06
1.29319e-06
5.79527e-07
1.03143e-06
8.61191e-07
5.01516e-07
1.04141e-06
4.77404e-07
1.73791e-06
1.05241e-06
8.08244e-07
1.26545e-06
9.4188e-07
1.23344e-06
1.47792e-06
1.35055e-06
1.92984e-06
9.27074e-07
1.6825e-06
1.83069e-06
1.20072e-06
8.59747e-07
1.83223e-06
1.28501e-06
1.09974e-06
1.5066e-06
2.74715e-06
1.84644e-06
2.61858e-06
1.46716e-06
2.96625e-06
1.98991e-06
1.57077e-06
1.41205e-06
1.81628e-06
1.30994e-06
1.96427e-06
2.22635e-06
1.19744e-06
2.49469e-06
2.16341e-06
1.1987e-06
1.60904e-06
1.65705e-06
9.48642e-07
6.06304e-07
5.76917e-07
4.57621e-07
2.9545e-06
2.11295e-06
1.81949e-06
2.69772e-06
5.94004e-07
1.67926e-06
2.86536e-06
1.35362e-06
1.37202e-06
1.68871e-06
3.41588e-06
2.79236e-06
1.49955e-06
7.70481e-07
2.13619e-06
2.39045e-06
2.02306e-06
1.40829e-06
2.9952e-06
1.55812e-06
2.87598e-06
2.1136e-06
1.08698e-06
4.20786e-06
5.53307e-07
1.40021e-06
1.24093e-06
2.66428e-06
3.48001e-06
1.91514e-06
1.31838e-06
2.18329e-06
2.60548e-06
1.18863e-06
2.09822e-06
1.19284e-06
9.06504e-07
6.57375e-07
9.04245e-07
1.08006e-06
3.38043e-06
2.71028e-06
1.98206e-06
3.06842e-06
1.00443e-06
2.00394e-06
2.72697e-06
2.1093e-06
1.79135e-06
2.7873e-06
6.22126e-06
4.07723e-06
1.60098e-06
8.43186e-07
2.95369e-06
3.08902e-06
3.07234e-06
1.92595e-06
4.09102e-06
4.1781e-06
2.67998e-06
1.83964e-06
2.42894e-06
4.98885e-06
2.16201e-06
2.99071e-06
2.90824e-06
2.98453e-06
3.95151e-06
2.55087e-06
1.56267e-06
2.83812e-06
2.72955e-06
2.33498e-06
2.97688e-06
1.37101e-06
7.08723e-07
2.52489e-06
1.39796e-06
2.13251e-06
2.60338e-06
3.38666e-06
3.33488e-06
2.91623e-06
2.11706e-06
1.64189e-06
3.09207e-06
2.95153e-06
2.44827e-06
4.42199e-06
5.05994e-06
3.87113e-06
1.07191e-06
1.1091e-06
3.28255e-06
3.31763e-06
3.37587e-06
1.98843e-06
5.87492e-06
6.01737e-06
3.7796e-06
2.39542e-06
4.86214e-06
5.40141e-06
4.01808e-06
5.83499e-06
4.3248e-06
3.0753e-06
4.45092e-06
3.72486e-06
2.61111e-06
2.71156e-06
3.24772e-06
4.54625e-06
1.80318e-06
1.82288e-06
2.17135e-06
3.99874e-06
1.57936e-06
2.56474e-06
3.72624e-06
4.4567e-06
5.5009e-06
2.06627e-06
1.80543e-06
1.62768e-06
3.5365e-06
3.93247e-06
3.47943e-06
4.61694e-06
4.02299e-06
2.74162e-06
1.64786e-06
1.79562e-06
3.89994e-06
3.79486e-06
1.6839e-06
2.11991e-06
6.50163e-06
4.01258e-06
4.68678e-06
2.76856e-06
4.05058e-06
2.91357e-06
2.58628e-06
4.7442e-06
4.77353e-06
3.55598e-06
3.8723e-06
3.5984e-06
2.56612e-06
2.82114e-06
3.78863e-06
4.59237e-06
1.58274e-06
2.8009e-06
3.74541e-06
4.336e-06
2.28329e-06
1.7403e-06
6.86002e-06
4.65913e-06
4.71222e-06
2.41068e-06
1.57098e-06
1.06611e-06
5.35757e-06
6.7893e-06
5.58335e-06
4.08032e-06
4.67898e-06
3.67065e-06
3.25591e-06
2.78499e-06
3.1565e-06
2.95545e-06
1.1233e-06
2.64985e-06
5.17381e-06
3.51421e-06
4.9626e-06
3.80009e-06
3.32455e-06
1.5858e-06
2.36558e-06
4.80509e-06
7.07723e-06
3.52287e-06
3.42156e-06
4.77485e-06
3.71016e-06
3.54463e-06
4.09557e-06
5.76292e-06
4.794e-06
2.16144e-06
3.93462e-06
4.25246e-06
4.16441e-06
3.4502e-06
6.01257e-06
4.04922e-06
3.24636e-06
3.77904e-06
1.27729e-06
2.22381e-06
6.44202e-06
6.0416e-06
4.74917e-06
4.9789e-06
5.1149e-06
4.28473e-06
4.01205e-06
4.49584e-06
2.82165e-06
6.20159e-06
2.83482e-06
4.26071e-06
4.32889e-06
6.0993e-06
6.21656e-06
6.3603e-06
8.31501e-06
4.09635e-06
5.41905e-06
6.134e-06
5.73223e-06
4.94943e-06
5.53728e-06
7.82359e-06
7.73576e-06
2.97151e-06
3.55464e-06
6.58921e-06
6.30427e-06
5.69993e-06
6.19195e-06
4.32154e-06
5.68269e-06
6.52369e-06
3.96487e-06
3.85166e-06
4.61987e-06
4.02562e-06
2.08693e-06
4.73595e-06
5.61576e-06
3.02435e-06
3.49947e-06
7.41003e-06
6.85789e-06
3.13246e-06
4.18091e-06
6.98835e-06
2.81234e-06
3.14831e-06
3.38368e-06
2.83998e-06
6.861e-06
6.36335e-06
1.03418e-05
1.4731e-05
1.52137e-05
8.22061e-06
9.02863e-06
5.7639e-06
4.83861e-06
6.27991e-06
8.89985e-06
1.12168e-05
9.56175e-06
1.96039e-06
3.69393e-06
8.51979e-06
7.26742e-06
9.13671e-06
6.70322e-06
3.56615e-06
7.73304e-06
6.85044e-06
3.9225e-06
5.67929e-06
4.97131e-06
3.48029e-06
3.66929e-06
5.98644e-06
5.08403e-06
5.74777e-06
4.595e-06
4.43513e-06
4.91976e-06
4.77816e-06
3.55174e-06
4.31859e-06
4.84487e-06
8.62244e-06
7.45113e-06
2.60855e-06
6.42449e-06
4.66141e-06
9.78908e-06
2.48236e-05
1.41844e-05
9.2707e-06
9.50549e-06
6.55468e-06
6.7152e-06
8.23134e-06
1.26476e-05
1.06989e-05
6.72557e-06
2.34395e-06
5.08844e-06
8.50233e-06
5.83224e-06
8.41029e-06
4.90162e-06
2.63776e-06
7.41314e-06
3.79535e-06
5.22474e-06
6.64823e-06
4.56848e-06
2.84595e-06
3.96762e-06
3.70529e-06
5.54724e-06
5.43654e-06
4.37252e-06
3.56434e-06
5.82095e-06
4.57692e-06
4.81122e-06
3.39312e-06
4.99835e-06
7.98659e-06
2.02728e-06
4.81702e-06
6.31744e-06
3.59192e-06
2.11666e-05
2.59169e-05
1.13637e-05
1.17024e-05
1.05872e-05
8.93312e-06
7.71259e-06
7.9873e-06
1.14552e-05
7.35953e-06
4.00159e-06
3.04755e-06
7.10055e-06
4.77448e-06
3.22099e-06
5.57022e-06
2.91062e-06
2.7657e-06
5.20018e-06
3.95962e-06
5.13855e-06
5.03711e-06
3.41265e-06
2.72389e-06
2.54221e-06
2.64909e-06
2.56186e-06
2.57992e-06
4.12856e-06
4.36976e-06
4.07795e-06
5.15029e-06
7.87666e-06
2.5305e-06
2.07593e-06
2.06112e-06
6.52976e-06
4.793e-06
1.26679e-05
1.05231e-05
2.72628e-05
2.09404e-05
1.2621e-05
1.52102e-05
1.17857e-05
1.03732e-05
6.96027e-06
6.66279e-06
8.21276e-06
6.85478e-06
4.19084e-06
7.2632e-06
9.56411e-06
4.15462e-06
4.0266e-06
5.52504e-06
4.3669e-06
8.33423e-06
4.40736e-06
8.52278e-06
9.03503e-06
3.20063e-06
4.36151e-06
3.46166e-06
3.3407e-06
7.38048e-06
9.56676e-06
1.07157e-05
6.52263e-06
4.44456e-06
9.35802e-06
1.25588e-05
6.36242e-06
2.98048e-06
3.34337e-06
3.63222e-06
2.54092e-06
1.12301e-05
2.02202e-05
1.73792e-05
2.65016e-05
1.67956e-05
1.21747e-05
1.37936e-05
1.23999e-05
1.17122e-05
7.57356e-06
8.22894e-06
8.59855e-06
8.52423e-06
6.69903e-06
1.52212e-05
1.51077e-05
8.63641e-06
1.28746e-05
1.04452e-05
1.30927e-05
1.48439e-05
1.00029e-05
1.92722e-05
1.39111e-05
7.68758e-06
1.15147e-05
9.33646e-06
1.13683e-05
1.93011e-05
2.0958e-05
2.04704e-05
1.19395e-05
1.02965e-05
2.1374e-05
1.82213e-05
4.70284e-06
9.44218e-06
1.60526e-05
1.2978e-05
1.44834e-05
2.25534e-05
2.34798e-05
2.00203e-05
2.34569e-05
1.40637e-05
1.14414e-05
1.39976e-05
1.52312e-05
1.47853e-05
1.29087e-05
1.42656e-05
1.58937e-05
1.4637e-05
1.54575e-05
2.55253e-05
2.2265e-05
1.87486e-05
2.18487e-05
1.77553e-05
2.19542e-05
1.88817e-05
1.9325e-05
2.56739e-05
1.81964e-05
1.77179e-05
2.04555e-05
1.95913e-05
2.47342e-05
3.01896e-05
2.77463e-05
2.39544e-05
1.66436e-05
2.27357e-05
2.9521e-05
1.77323e-05
1.2145e-05
2.19407e-05
2.56993e-05
2.42502e-05
2.76903e-05
3.00681e-05
2.2828e-05
2.00771e-05
2.10265e-05
1.4571e-05
1.42507e-05
1.75946e-05
1.90745e-05
2.05041e-05
2.03773e-05
2.14546e-05
2.43094e-05
2.23256e-05
2.55254e-05
3.13027e-05
2.45279e-05
2.45921e-05
2.52673e-05
2.31923e-05
2.57781e-05
2.25378e-05
2.5741e-05
2.75317e-05
2.40355e-05
2.6511e-05
2.84151e-05
3.00887e-05