/*--------------------------------*- C++ -*----------------------------------*\
  =========                 |
  \\      /  F ield         | OpenFOAM: The Open Source CFD Toolbox
   \\    /   O peration     | Website:  https://openfoam.org
    \\  /    A nd           | Version:  10
     \\/     M anipulation  |
\*---------------------------------------------------------------------------*/
FoamFile
{
    format      ascii;
    class       surfaceScalarField;
    location    "10";
    object      phi_0;
}
// * * * * * * * * * * * * * * * * * * * * * * * * * * * * * * * * * * * * * //

dimensions      [0 3 -1 0 0 0 0];

internalField   nonuniform List<scalar> 
74080
(
0.00513416
-9.98694e-08
-8.56429e-08
0.00513413
6.85074e-08
5.69105e-08
0.00513421
-8.47421e-08
-1.65522e-08
0.00513412
4.54903e-08
1.38051e-09
0.00513422
-5.99438e-08
2.45948e-08
0.00513416
-2.30985e-08
-2.51347e-08
0.00513418
8.88762e-08
2.21614e-08
0.00513419
-7.97414e-08
2.41262e-08
0.00513416
7.02081e-08
-2.3983e-08
0.00513421
-6.24801e-08
3.62837e-08
0.00513414
1.12e-07
2.38729e-08
0.00513416
1.99743e-08
-2.96047e-08
0.00513414
-1.82422e-08
5.56339e-08
0.00513417
1.49432e-08
-1.55994e-08
0.00513417
-1.12037e-07
-6.02976e-09
0.00513419
5.34877e-08
2.14289e-08
0.00513417
-1.55618e-08
-6.19415e-10
0.00513418
-1.60694e-08
2.44815e-08
0.00513421
-1.21895e-08
5.71903e-09
0.00513415
-2.58877e-08
-4.22156e-08
0.00513422
3.18134e-08
8.47777e-08
0.00513417
-6.57423e-08
-5.45622e-08
0.00513422
1.11294e-08
1.4085e-08
0.0051342
3.91874e-08
6.77137e-08
0.00513413
3.97307e-08
-1.13523e-07
0.00513422
2.86749e-08
1.51299e-07
0.00513414
-8.29103e-08
-1.05528e-07
0.00513421
6.48873e-08
2.11276e-08
0.00513419
-8.20091e-08
8.03967e-08
0.00513415
4.82474e-08
-1.40033e-07
0.00513421
5.67777e-08
1.37111e-07
0.00513411
-2.98374e-08
-4.055e-08
0.00513421
5.13492e-08
-5.01912e-08
0.00513416
-1.02791e-07
6.78523e-08
0.00513415
1.33256e-07
-2.25802e-08
0.00513421
-1.13567e-07
-3.8369e-08
0.00513413
1.9514e-08
6.55036e-08
0.00513424
-1.14808e-08
-6.48351e-08
0.00513414
-3.55613e-08
9.50991e-09
1.7093e-07
7.40959e-08
0.00466715
-1.61393e-08
-8.44718e-08
0.00466717
4.76067e-08
7.96839e-08
0.00466719
-8.68451e-08
-4.59708e-08
0.00466714
9.68408e-08
3.26378e-08
0.00466719
-9.0157e-08
-2.05572e-08
0.00466712
4.71266e-08
2.48779e-08
0.0046672
-9.10121e-09
-7.49171e-09
0.00466714
-1.01344e-08
2.04841e-08
0.00466717
3.99182e-08
1.76768e-08
0.00466714
-4.90933e-08
-2.04651e-08
0.00466718
6.33953e-08
8.62836e-08
0.00466719
-1.87934e-08
-6.11973e-08
0.00466716
2.92302e-08
5.96711e-08
0.00466722
-4.42092e-08
1.51259e-08
0.0046671
3.5319e-08
-5.9749e-08
0.0046672
-4.02815e-08
6.49781e-08
0.00466715
2.24295e-08
-1.89176e-08
0.00466716
-7.28941e-10
1.00286e-08
0.00466718
-2.04076e-08
2.24121e-08
0.00466713
2.05893e-08
-5.70435e-08
0.0046672
-2.31276e-08
7.78511e-08
0.00466712
1.08659e-08
-3.87037e-08
0.00466717
-2.34072e-08
-4.68109e-09
0.00466716
4.06634e-08
6.37573e-08
0.00466715
-1.01506e-08
-7.64622e-08
0.00466722
1.5681e-08
9.39574e-08
0.00466712
-2.05092e-08
-5.61205e-08
0.0046672
1.45995e-08
6.64928e-09
0.00466714
-2.1337e-08
4.50279e-08
0.00466714
2.96776e-08
-7.41823e-08
0.00466722
-1.7536e-08
6.51808e-08
0.00466711
3.0274e-08
1.59998e-08
0.00466724
-8.95189e-09
-6.62516e-08
0.00466711
-2.92732e-08
5.00404e-08
0.0046672
7.16349e-08
1.49866e-08
0.00466718
-8.17145e-08
-8.25622e-08
0.00466711
6.51896e-08
1.08944e-07
0.00466722
-5.62269e-08
-1.01216e-07
0.00466708
4.39193e-08
4.10793e-08
1.09386e-08
5.86684e-08
0.0042426
6.96692e-08
-1.44786e-08
0.00424268
-2.34443e-08
2.01084e-08
0.00424263
-3.66923e-08
-1.07723e-08
0.00424265
7.39223e-08
4.62981e-08
0.00424265
-8.71938e-08
-5.89067e-08
0.00424263
6.68998e-08
9.03552e-08
0.00424266
-4.22144e-08
-6.47698e-08
0.00424262
3.01895e-08
5.21688e-08
0.00424267
-1.17101e-08
2.08586e-08
0.00424261
1.28289e-08
-4.39075e-08
0.00424268
7.21281e-10
9.98822e-08
0.00424263
2.33849e-08
-7.95903e-08
0.00424265
1.13384e-08
6.41195e-08
0.00424266
-5.18758e-08
2.07225e-08
0.00424262
7.8555e-08
-4.11941e-08
0.00424268
-9.29446e-08
5.75014e-08
0.00424262
7.69453e-08
-1.38881e-08
0.00424266
-4.22903e-08
1.15959e-08
0.00424264
1.37066e-08
2.26569e-08
0.00424265
-1.51262e-09
-3.61788e-08
0.00424264
-3.21899e-09
5.44046e-08
0.00424263
5.89591e-09
-2.26115e-08
0.00424265
-2.40672e-08
4.77247e-09
0.00424265
4.41918e-08
2.68172e-08
0.00424262
-1.19475e-08
-4.08797e-08
0.00424268
5.73211e-09
4.56799e-08
0.00424262
-5.1433e-09
-2.58631e-08
0.00424265
1.51448e-08
1.80744e-08
0.00424265
-3.46916e-08
-4.8424e-09
0.00424263
5.46017e-08
-2.3069e-09
0.00424266
-5.20387e-08
-1.43314e-08
0.00424261
7.28116e-08
4.7146e-08
0.00424269
-5.84758e-08
-4.8935e-08
0.00424259
2.77314e-08
8.49406e-09
0.00424269
2.19469e-08
4.66691e-08
0.00424262
-4.6431e-08
-8.09421e-08
0.00424264
6.00281e-08
9.26994e-08
0.00424267
-6.78081e-08
-7.17204e-08
0.0042426
8.19666e-08
3.75715e-08
-6.3183e-08
7.04691e-09
0.00385672
9.91917e-08
3.59701e-08
0.00385677
-6.7223e-08
-3.11615e-08
0.00385671
1.54172e-08
3.59143e-08
0.00385676
3.71663e-08
1.54992e-08
0.00385673
-5.62542e-08
-4.63696e-08
0.00385675
4.81548e-08
9.45854e-08
0.00385673
-2.37067e-08
-7.19677e-08
0.00385675
1.07521e-08
7.09927e-08
0.00385674
-4.5128e-09
1.6529e-09
0.00385674
2.22907e-08
-1.69874e-08
0.00385676
-3.01653e-08
7.18982e-08
0.00385674
5.52732e-08
-4.40332e-08
0.00385677
-3.11057e-08
3.95679e-08
0.00385672
-4.50542e-09
2.44451e-08
0.00385677
5.08244e-08
-1.92751e-08
0.00385673
-6.27989e-08
2.71326e-08
0.00385675
6.00916e-08
1.12268e-08
0.00385673
-3.25234e-08
1.07738e-10
0.00385674
3.00152e-08
1.61069e-08
0.00385676
-3.70078e-08
-5.88815e-09
0.00385672
5.58976e-08
1.59441e-08
0.00385676
-4.74668e-08
-4.24999e-09
0.00385672
2.9515e-08
1.80631e-08
0.00385677
-6.28143e-09
-1.5821e-08
0.00385671
2.70693e-08
1.36471e-08
0.00385678
-2.81461e-08
-4.29914e-09
0.00385672
2.01155e-08
-1.8872e-09
0.00385674
1.81372e-08
2.68721e-08
0.00385675
-5.5376e-08
-4.33831e-08
0.00385674
8.53962e-08
4.79191e-08
0.00385675
-8.87699e-08
-5.61782e-08
0.00385673
1.06416e-07
6.15192e-08
0.00385677
-9.01939e-08
-3.5558e-08
0.00385671
6.59177e-08
-1.36621e-08
0.00385678
-1.69434e-08
5.50722e-08
0.00385671
-1.65731e-09
-6.44005e-08
0.00385677
2.50773e-08
5.68043e-08
0.00385671
-2.48998e-08
-3.23208e-08
0.00385675
4.97789e-08
2.09534e-08
-6.71359e-08
-1.17861e-08
0.00350596
7.10358e-08
5.35949e-08
0.00350595
-5.57057e-08
-4.44503e-08
0.00350594
2.0825e-08
4.66557e-08
0.00350595
2.76851e-08
5.06718e-09
0.00350595
-4.65189e-08
-1.97813e-08
0.00350595
3.69872e-08
6.36883e-08
0.00350594
3.95356e-10
-3.86515e-08
0.00350596
-2.022e-08
5.62509e-08
0.00350593
2.49702e-08
2.71973e-09
0.00350597
-3.22091e-09
-3.76333e-10
0.00350593
-5.90949e-09
4.41207e-08
0.00350597
3.91178e-08
-4.18159e-09
0.00350594
-2.68782e-08
1.15689e-08
0.00350594
1.1559e-08
3.7801e-08
0.00350597
2.591e-08
-4.82689e-09
0.00350592
-2.26199e-08
8.22187e-09
0.00350597
2.00495e-08
3.42728e-08
0.00350591
1.08112e-08
-1.22043e-08
0.00350597
-3.28089e-09
2.09159e-08
0.00350593
-1.71105e-08
8.76773e-09
0.00350595
6.22811e-08
-3.04384e-09
0.00350595
-6.39499e-08
8.01619e-09
0.00350593
6.35252e-08
1.73973e-08
0.00350597
-5.22135e-08
-2.52929e-08
0.00350591
8.38564e-08
2.73849e-08
0.00350599
-8.48294e-08
-1.5999e-08
0.00350591
7.54933e-08
-6.23797e-10
0.00350597
-1.87779e-08
3.02693e-08
0.00350593
-3.29375e-08
-4.8267e-08
0.00350597
7.11293e-08
4.92799e-08
0.00350593
-7.35003e-08
-5.25427e-08
0.00350596
9.91414e-08
4.49437e-08
0.00350595
-8.95169e-08
-1.67561e-08
0.00350594
7.91733e-08
-1.47355e-08
0.00350597
-3.67602e-08
3.30489e-08
0.00350593
3.00798e-08
-2.74301e-08
0.00350598
-1.25722e-08
2.13848e-08
0.00350591
3.29311e-08
-3.7599e-09
0.00350599
-1.46537e-08
1.14397e-08
-1.27872e-08
-2.07546e-08
0.00318709
2.66126e-08
6.06973e-08
0.00318704
-1.43301e-08
-3.71996e-08
0.00318707
-8.14381e-09
3.55702e-08
0.00318705
5.78426e-08
1.1102e-08
0.00318709
-7.71839e-08
-6.51462e-09
0.00318704
6.64388e-08
4.19948e-08
0.00318707
-1.18074e-08
-1.02451e-08
0.00318705
-1.70524e-08
4.04535e-08
0.00318707
2.92778e-08
1.11766e-08
0.00318708
-1.32828e-08
3.73139e-09
0.00318705
1.41249e-08
3.76863e-08
0.00318709
2.0109e-08
1.30942e-08
0.00318705
-7.90454e-09
2.99527e-09
0.00318707
9.21858e-10
4.21419e-08
0.00318707
3.90601e-08
1.49053e-09
0.00318706
-2.60983e-08
7.68886e-09
0.00318706
2.69016e-08
3.48773e-08
0.00318705
1.62745e-08
-9.94155e-09
0.00318708
-1.55202e-08
2.16739e-08
0.00318704
9.75216e-09
1.20783e-08
0.00318709
4.04485e-08
-4.80943e-09
0.00318704
-3.68875e-08
1.64177e-09
0.00318707
5.05399e-08
2.77134e-08
0.00318706
-4.87263e-08
-2.94251e-08
0.00318706
9.16969e-08
2.04174e-08
0.00318708
-9.6471e-08
1.48374e-10
0.00318704
9.7344e-08
-2.32026e-08
0.00318708
-4.28573e-08
4.69939e-08
0.00318703
1.40749e-09
-5.90753e-08
0.00318711
2.8141e-08
4.28862e-08
0.00318702
-1.82566e-08
-3.00733e-08
0.0031871
4.29667e-08
9.61016e-09
0.00318703
-3.42373e-08
1.23323e-08
0.00318708
4.25952e-08
-2.01814e-08
0.00318706
-1.47626e-08
1.46739e-08
0.00318707
2.99961e-08
3.99435e-09
0.00318707
-2.18552e-08
-6.81325e-09
0.00318704
6.43595e-08
1.1458e-08
0.00318709
-5.8629e-08
1.46297e-08
3.70888e-08
-2.96281e-08
0.0028972
1.37139e-08
6.58646e-08
0.00289718
6.59371e-09
-3.10627e-08
0.00289719
-2.31138e-08
2.7957e-08
0.00289718
7.70926e-08
1.6254e-08
0.00289722
-1.06155e-07
1.70171e-09
0.00289716
1.10611e-07
3.28042e-08
0.00289722
-5.19263e-08
-1.53079e-10
0.00289716
2.36288e-08
3.98696e-08
0.00289721
-4.30758e-09
1.06665e-08
0.00289718
1.41521e-08
1.12721e-08
0.0028972
-1.60945e-09
3.56328e-08
0.00289719
4.10098e-08
1.96947e-08
0.0028972
-2.35319e-08
8.1987e-09
0.00289718
1.93393e-08
3.62222e-08
0.0028972
3.46312e-08
1.26144e-08
0.00289719
-3.04956e-08
7.89695e-09
0.00289718
5.69139e-08
3.20249e-08
0.0028972
-1.42335e-08
-2.22977e-09
0.00289719
1.34767e-08
2.11976e-08
0.00289718
5.1933e-11
1.03655e-08
0.0028972
4.86069e-08
4.98408e-09
0.00289717
-3.05561e-08
-1.42866e-08
0.00289719
5.46309e-08
4.59715e-08
0.00289718
-4.53503e-08
-3.96779e-08
0.0028972
8.38626e-08
1.62991e-08
0.00289718
-7.37298e-08
1.71008e-08
0.00289719
7.82549e-08
-4.79645e-08
0.00289719
-2.47506e-08
6.70329e-08
0.00289718
-4.55217e-10
-7.26166e-08
0.00289722
1.59575e-08
4.74733e-08
0.00289716
1.88985e-08
-2.32137e-08
0.00289723
-7.56502e-09
-1.06389e-08
0.00289715
2.98522e-08
3.37222e-08
0.00289723
-1.62994e-08
-2.47578e-08
0.00289716
3.68833e-08
7.18024e-10
0.00289722
-5.967e-09
2.49553e-08
0.00289717
7.37197e-09
-1.88901e-08
0.0028972
4.92074e-08
1.65681e-08
0.00289718
-5.21425e-08
2.11543e-08
4.44532e-08
-3.77946e-08
0.00263367
3.72902e-08
6.85312e-08
0.0026337
-8.8374e-09
-2.69519e-08
0.00263366
6.41073e-10
2.9187e-08
0.0026337
5.26952e-08
1.4066e-08
0.00263369
-9.12659e-08
1.47754e-08
0.00263368
1.20084e-07
2.34945e-08
0.0026337
-6.99629e-08
8.30815e-09
0.00263366
5.30912e-08
4.52039e-08
0.0026337
-3.36849e-08
5.16463e-09
0.00263368
4.70734e-08
2.25258e-08
0.0026337
-3.11528e-08
3.28489e-08
0.00263367
8.83196e-08
2.44895e-08
0.00263371
-7.2361e-08
1.43839e-08
0.00263366
7.52564e-08
3.21034e-08
0.00263372
-7.47045e-09
1.78881e-08
0.00263367
2.4115e-09
1.27912e-08
0.00263369
5.80718e-08
2.8123e-08
0.00263368
-1.95807e-08
3.45097e-09
0.00263369
2.68899e-08
2.0478e-08
0.00263367
-5.13838e-10
6.04556e-09
0.0026337
5.6833e-08
1.44366e-08
0.00263367
-3.25261e-08
-2.6398e-08
0.00263368
8.06385e-08
5.73495e-08
0.00263369
-7.11805e-08
-4.75671e-08
0.00263369
1.02756e-07
1.63186e-08
0.00263368
-6.71726e-08
2.0877e-08
0.00263369
6.75722e-08
-5.60561e-08
0.00263368
-7.64368e-09
7.22156e-08
0.00263369
-1.52755e-08
-7.71639e-08
0.00263369
2.69158e-08
5.01991e-08
0.00263368
2.30206e-08
-2.61029e-08
0.0026337
-2.06252e-08
-9.26644e-09
0.00263366
6.10294e-08
2.97017e-08
0.00263371
-5.3728e-08
-1.1462e-08
0.00263366
7.1235e-08
-1.37485e-08
0.00263371
-3.43513e-08
3.86577e-08
0.00263366
4.10645e-08
-2.21958e-08
0.00263371
1.23153e-08
1.48826e-08
0.00263366
-1.50096e-08
3.11053e-08
1.48009e-08
-4.23918e-08
0.00239414
6.27373e-08
6.74673e-08
0.00239417
-3.34089e-08
-2.27209e-08
0.00239412
4.02487e-08
3.33053e-08
0.00239419
2.57748e-09
7.02073e-09
0.00239413
-4.19215e-08
3.11519e-08
0.00239417
9.31875e-08
1.39886e-08
0.00239415
-4.93199e-08
1.61683e-08
0.00239416
4.57518e-08
4.80193e-08
0.00239415
-2.26823e-08
3.72719e-09
0.00239417
4.40958e-08
2.95279e-08
0.00239415
-2.85307e-08
3.28189e-08
0.00239415
1.1504e-07
2.6842e-08
0.00239417
-1.08026e-07
1.97492e-08
0.00239413
1.27549e-07
3.22191e-08
0.00239419
-5.41637e-08
1.76824e-08
0.00239413
4.86707e-08
2.32845e-08
0.00239417
4.14687e-08
1.98883e-08
0.00239413
-2.98671e-10
1.3991e-08
0.00239418
7.25011e-09
1.92549e-08
0.00239412
3.82909e-08
2.18805e-09
0.00239419
3.17148e-08
2.46032e-08
0.00239412
-4.75248e-09
-3.45821e-08
0.00239416
8.64218e-08
6.16931e-08
0.00239415
-8.43961e-08
-4.87842e-08
0.00239416
1.17252e-07
1.53303e-08
0.00239414
-6.11445e-08
2.03893e-08
0.00239415
6.51637e-08
-5.32719e-08
0.00239415
-5.33643e-09
6.4123e-08
0.00239415
-1.5584e-08
-6.79581e-08
0.00239416
2.84717e-08
4.20888e-08
0.00239415
2.90257e-08
-1.90593e-08
0.00239416
-2.86835e-08
-1.01653e-08
0.00239414
7.8962e-08
2.27326e-08
0.00239417
-7.55815e-08
9.7657e-09
0.00239415
8.15573e-08
-3.60183e-08
0.00239416
-3.53363e-08
6.04781e-08
0.00239413
4.74728e-08
-2.98766e-08
0.00239417
-8.87973e-09
2.21124e-08
0.00239413
1.22012e-08
3.24237e-08
-1.13417e-08
-3.97146e-08
0.0021764
7.05382e-08
6.0959e-08
0.00217642
-4.20861e-08
-1.37701e-08
0.00217638
6.70961e-08
3.60803e-08
0.00217644
-4.00796e-08
5.26784e-09
0.00217639
6.58546e-09
4.11113e-08
0.00217643
6.27421e-08
9.4756e-09
0.00217639
-1.71854e-08
2.28054e-08
0.00217643
2.23184e-08
5.02723e-08
0.00217639
1.47544e-08
5.79734e-09
0.00217645
1.21005e-08
3.25776e-08
0.00217639
9.41135e-09
3.83801e-08
0.00217643
1.08125e-07
2.46751e-08
0.00217641
-1.07568e-07
2.77607e-08
0.00217641
1.44225e-07
3.18679e-08
0.00217643
-6.41183e-08
1.64062e-08
0.0021764
6.51476e-08
3.44606e-08
0.00217641
4.77881e-08
1.09525e-08
0.0021764
7.21381e-09
2.15456e-08
0.00217644
-9.36458e-09
1.69602e-08
0.00217638
8.56345e-08
1.92647e-10
0.00217645
-6.68353e-09
3.0589e-08
0.00217637
4.23872e-08
-3.73081e-08
0.00217643
6.84032e-08
6.10706e-08
0.00217639
-7.1222e-08
-4.63702e-08
0.00217644
1.06218e-07
1.1953e-08
0.00217639
-3.12445e-08
2.1023e-08
0.00217642
4.04074e-08
-4.98442e-08
0.0021764
1.03401e-08
5.5478e-08
0.00217642
-2.61999e-08
-5.69827e-08
0.00217641
3.52834e-08
3.02647e-08
0.00217641
3.24808e-08
-6.40742e-09
0.00217641
-4.03581e-08
-1.58036e-08
0.0021764
9.72776e-08
2.40506e-08
0.00217642
-1.02044e-07
2.0013e-08
0.00217641
9.11252e-08
-4.67755e-08
0.00217641
-3.307e-08
7.8112e-08
0.0021764
4.24806e-08
-3.87956e-08
0.00217642
-1.9947e-08
3.39777e-08
0.0021764
2.30337e-08
2.62302e-08
-2.24753e-08
-2.67989e-08
0.00197847
7.06196e-08
5.42975e-08
0.00197848
-4.14817e-08
-3.16575e-09
0.00197846
8.10348e-08
3.80674e-08
0.0019785
-6.84922e-08
7.52968e-09
0.00197846
4.15959e-08
4.48946e-08
0.00197849
4.58945e-08
1.54247e-08
0.00197846
7.44472e-09
2.24638e-08
0.00197849
8.02036e-09
5.65369e-08
0.00197845
5.08149e-08
6.14542e-09
0.00197852
-1.99455e-08
3.6102e-08
0.00197845
5.30762e-08
4.46609e-08
0.0019785
9.17711e-08
2.12576e-08
0.00197846
-9.0898e-08
3.79283e-08
0.00197849
1.37175e-07
3.13239e-08
0.00197847
-4.29758e-08
1.56136e-08
0.00197849
4.67641e-08
4.51008e-08
0.00197846
8.97127e-08
3.93161e-09
0.00197848
-1.76468e-08
2.90702e-08
0.00197849
3.21246e-09
1.6451e-08
0.00197846
1.05524e-07
-7.07512e-10
0.00197851
-2.2154e-08
3.5637e-08
0.00197844
7.08838e-08
-3.6397e-08
0.00197849
5.94854e-08
5.6784e-08
0.00197845
-6.03077e-08
-3.94844e-08
0.00197851
8.96574e-08
8.13179e-09
0.00197845
5.1258e-09
2.23686e-08
0.0019785
-6.18968e-10
-4.46684e-08
0.00197846
4.36064e-08
4.84101e-08
0.0019785
-6.06293e-08
-4.6996e-08
0.00197847
6.32927e-08
2.23412e-08
0.00197849
1.15386e-08
5.35794e-09
0.00197847
-3.62143e-08
-1.78652e-08
0.00197848
9.64238e-08
2.873e-08
0.00197848
-1.21427e-07
2.58676e-08
0.00197848
9.28038e-08
-4.52804e-08
0.00197847
-3.21548e-08
8.65046e-08
0.00197847
3.30413e-08
-3.71952e-08
0.00197848
-3.18109e-08
4.344e-08
0.00197847
2.64585e-08
2.32047e-08
-3.00705e-08
-1.15486e-08
0.00179855
6.30786e-08
5.49185e-08
0.00179855
-3.63014e-08
5.31594e-09
0.00179853
8.6177e-08
4.29314e-08
0.00179856
-8.68161e-08
1.16613e-08
0.00179854
6.68116e-08
4.71153e-08
0.00179855
4.18615e-08
2.57137e-08
0.00179854
2.33101e-08
1.92011e-08
0.00179856
3.82741e-09
6.66937e-08
0.00179853
7.78692e-08
4.51433e-09
0.00179858
-4.02036e-08
4.35076e-08
0.00179852
8.57564e-08
4.88113e-08
0.00179857
8.49655e-08
2.19083e-08
0.00179853
-8.14425e-08
4.44404e-08
0.00179857
1.30844e-07
3.26271e-08
0.00179854
-1.65339e-08
1.43516e-08
0.00179857
1.54301e-08
5.49244e-08
0.00179852
1.46699e-07
-9.83951e-10
0.00179856
-6.14601e-08
3.48885e-08
0.00179855
3.65241e-08
1.65869e-08
0.00179855
9.89104e-08
-9.23258e-10
0.00179856
-1.02504e-08
3.97315e-08
0.00179853
6.65766e-08
-3.24427e-08
0.00179855
7.65463e-08
5.08972e-08
0.00179854
-7.62672e-08
-3.05735e-08
0.00179857
9.31059e-08
6.62791e-09
0.00179853
1.8619e-08
2.33352e-08
0.00179856
-3.13253e-08
-3.62e-08
0.00179853
6.50559e-08
4.2673e-08
0.00179857
-9.69146e-08
-3.60341e-08
0.00179853
9.24879e-08
1.84791e-08
0.00179857
-2.41023e-08
1.60198e-08
0.00179853
-2.18516e-08
-1.51075e-08
0.00179856
7.29726e-08
3.4829e-08
0.00179855
-1.28808e-07
3.43374e-08
0.00179856
7.53092e-08
-3.89591e-08
0.00179854
-2.38957e-08
9.50219e-08
0.00179855
7.69808e-09
-3.0737e-08
0.00179855
-3.81852e-08
5.17247e-08
0.00179855
1.63305e-08
2.58383e-08
-3.13004e-08
7.24499e-10
0.00163498
4.53132e-08
6.07507e-08
0.00163497
-2.70594e-08
1.29503e-08
0.00163497
8.13618e-08
5.31292e-08
0.00163498
-9.40489e-08
1.62412e-08
0.00163498
8.166e-08
5.256e-08
0.00163497
4.92096e-08
3.728e-08
0.00163497
3.23096e-08
1.86392e-08
0.00163498
7.44937e-09
7.83803e-08
0.00163497
9.71787e-08
3.69363e-09
0.001635
-5.11076e-08
5.4669e-08
0.00163496
1.06255e-07
5.14331e-08
0.00163499
8.871e-08
2.62289e-08
0.00163496
-8.51197e-08
4.81285e-08
0.00163499
1.31941e-07
3.82155e-08
0.00163497
6.91997e-10
1.24426e-08
0.00163499
-1.4484e-08
6.62938e-08
0.00163495
1.95318e-07
-3.37443e-09
0.00163499
-1.0323e-07
4.14226e-08
0.00163497
6.4146e-08
1.83567e-08
0.00163498
8.51082e-08
1.08319e-09
0.00163497
8.33809e-09
4.41279e-08
0.00163497
4.3315e-08
-2.55405e-08
0.00163497
1.07066e-07
4.55786e-08
0.00163498
-1.14321e-07
-1.91378e-08
0.00163498
1.11704e-07
7.75964e-09
0.00163497
2.12133e-09
2.74754e-08
0.00163497
-4.48301e-08
-2.46291e-08
0.00163497
5.76086e-08
4.0216e-08
0.00163499
-1.19348e-07
-2.2183e-08
0.00163497
9.82127e-08
1.82855e-08
0.00163499
-5.37451e-08
3.07267e-08
0.00163496
-2.30319e-08
-8.81065e-09
0.00163498
4.63747e-08
4.3335e-08
0.00163497
-1.44212e-07
4.71924e-08
0.00163499
5.09166e-08
-2.93742e-08
0.00163496
-2.07057e-08
1.08207e-07
0.00163498
-2.91106e-08
-2.18852e-08
0.00163497
-4.21527e-08
6.37638e-08
0.00163499
-8.43566e-09
3.18517e-08
-2.47798e-08
1.34154e-08
0.00148606
2.20979e-08
7.4752e-08
0.00148605
-2.4851e-08
2.23758e-08
0.00148606
7.1098e-08
6.49357e-08
0.00148606
-9.61717e-08
2.52854e-08
0.00148607
8.59332e-08
6.66395e-08
0.00148605
6.06739e-08
5.5386e-08
0.00148606
3.37599e-08
1.98141e-08
0.00148606
1.4972e-08
8.99398e-08
0.00148606
1.09549e-07
8.26837e-09
0.00148609
-5.61465e-08
7.13052e-08
0.00148605
1.1168e-07
5.79445e-08
0.00148607
9.70203e-08
3.22671e-08
0.00148606
-1.02835e-07
4.91387e-08
0.00148608
1.37342e-07
4.92732e-08
0.00148606
5.33668e-09
1.49246e-08
0.00148608
-4.5883e-08
8.27754e-08
0.00148604
2.24304e-07
-6.24189e-09
0.00148607
-1.38897e-07
4.84403e-08
0.00148606
7.31814e-08
2.34132e-08
0.00148607
7.38466e-08
9.71164e-09
0.00148606
1.36371e-08
5.22678e-08
0.00148605
1.29788e-08
-1.75129e-08
0.00148605
1.28186e-07
4.04092e-08
0.00148607
-1.59077e-07
-1.82726e-09
0.00148606
1.21889e-07
1.91947e-08
0.00148606
-3.20399e-08
3.74176e-08
0.00148605
-5.97473e-08
-1.06581e-08
0.00148606
2.77477e-08
3.96965e-08
0.00148606
-1.40339e-07
-2.03706e-10
0.00148606
7.7615e-08
2.80027e-08
0.00148606
-7.94576e-08
5.26306e-08
0.00148605
-5.01111e-08
-7.90512e-11
0.00148606
2.28712e-08
5.61758e-08
0.00148606
-1.82422e-07
6.69471e-08
0.00148607
2.9248e-08
-7.77381e-09
0.00148605
-4.32861e-08
1.29928e-07
0.00148606
-6.53146e-08
-1.12387e-08
0.00148605
-6.09538e-08
8.01708e-08
0.00148607
-3.67562e-08
4.31189e-08
-2.58725e-08
3.64256e-08
0.00134813
-6.37457e-09
9.58959e-08
0.00134812
-4.503e-08
1.30931e-08
0.00134813
5.5515e-08
7.13763e-08
0.00134814
-1.05569e-07
5.478e-08
0.00134816
7.89205e-08
1.11103e-07
0.00134815
5.56782e-08
8.13693e-08
0.00134817
2.49285e-08
1.03202e-08
0.00134817
1.27429e-08
1.00526e-07
0.00134818
1.11218e-07
3.32754e-08
0.00134821
-6.81653e-08
1.1458e-07
0.00134818
9.97514e-08
6.6101e-08
0.0013482
9.53936e-08
1.84376e-08
0.00134818
-1.27618e-07
4.3636e-08
0.0013482
1.35141e-07
7.92016e-08
0.00134819
-3.23913e-09
4.08489e-08
0.00134819
-8.55036e-08
1.04056e-07
0.00134816
2.23766e-07
-2.40955e-08
0.00134817
-1.7203e-07
5.06806e-08
0.00134818
5.9483e-08
4.58878e-08
0.00134818
5.83804e-08
4.60593e-08
0.00134818
-5.90253e-09
6.44628e-08
0.00134816
-2.66272e-08
-2.56086e-08
0.00134817
1.23771e-07
3.35224e-08
0.00134816
-2.01782e-07
3.45711e-08
0.00134817
1.00683e-07
6.63774e-08
0.00134816
-7.53368e-08
5.55484e-08
0.00134814
-9.62754e-08
-2.77771e-09
0.00134816
-1.56747e-08
3.76918e-08
0.00134815
-1.75653e-07
4.0945e-08
0.00134816
3.28052e-08
6.50763e-08
0.00134815
-1.18988e-07
8.55384e-08
0.00134815
-1.03741e-07
-1.1158e-09
0.00134815
-9.61768e-09
7.25253e-08
0.00134816
-2.37509e-07
1.16485e-07
0.00134816
-1.99734e-09
4.58954e-08
0.00134814
-9.49632e-08
1.65631e-07
0.00134814
-1.041e-07
-1.27773e-08
0.00134813
-1.01666e-07
9.99742e-08
0.00134814
-6.18203e-08
7.82571e-08
-5.24714e-08
8.69094e-08
0.00121073
-4.44432e-08
5.67011e-08
0.00121073
-8.55171e-08
-4.25479e-08
0.00121077
2.96683e-08
1.02745e-07
0.00121078
-1.24188e-07
1.14494e-07
0.00121082
5.01698e-08
1.68301e-07
0.00121083
2.56701e-08
4.86687e-08
0.00121088
1.24185e-09
-3.08901e-08
0.00121088
-5.65471e-09
1.27559e-07
0.00121092
8.96543e-08
8.81725e-08
0.00121094
-9.14699e-08
1.43552e-07
0.00121092
6.76915e-08
1.61084e-08
0.00121095
6.94388e-08
-4.64486e-08
0.00121091
-1.43419e-07
6.21079e-08
0.00121093
1.09528e-07
1.32635e-07
0.00121091
-2.60935e-08
6.40505e-08
0.00121089
-1.30102e-07
7.66344e-08
0.00121089
1.9185e-07
-8.30985e-08
0.00121088
-1.99161e-07
7.41644e-08
0.0012109
2.91279e-08
1.0117e-07
0.0012109
2.17002e-08
8.29067e-08
0.00121089
-4.51987e-08
2.36784e-08
0.00121087
-7.40275e-08
-6.29911e-08
0.00121089
9.3911e-08
5.7428e-08
0.00121086
-2.33472e-07
1.26342e-07
0.00121087
4.49564e-08
1.30247e-07
0.00121083
-1.20025e-07
2.95388e-08
0.00121081
-1.45604e-07
-1.85986e-08
0.00121083
-6.29026e-08
5.50564e-08
0.00121081
-2.09384e-07
1.28098e-07
0.00121084
-3.24942e-08
9.6565e-08
0.00121081
-1.65603e-07
9.11963e-08
0.00121081
-1.69424e-07
-4.03643e-08
0.0012108
-4.97915e-08
1.37492e-07
0.0012108
-2.84204e-07
2.02146e-07
0.00121079
-5.35995e-08
1.03459e-07
0.00121077
-1.54388e-07
1.57678e-07
0.00121075
-1.48917e-07
-6.04558e-08
0.00121073
-1.45679e-07
1.48028e-07
0.00121073
-8.68478e-08
1.36368e-07
-1.01216e-07
1.31427e-07
0.00106659
-7.66865e-08
-3.80316e-08
0.00106661
-1.1146e-07
-1.27406e-08
0.00106666
4.14541e-09
1.83271e-07
0.00106668
-1.45482e-07
9.16275e-08
0.00106674
1.35319e-08
1.0783e-07
0.00106677
-1.47169e-08
-5.89633e-08
0.00106682
-1.79056e-08
-1.03708e-08
0.00106682
-3.30725e-08
1.67681e-07
0.00106688
5.01801e-08
4.80123e-08
0.00106687
-1.12569e-07
4.67207e-08
0.00106687
2.35251e-08
-7.09933e-08
0.0010669
4.33719e-08
-4.61079e-08
0.00106684
-1.51964e-07
1.33985e-07
0.00106688
5.94678e-08
9.29139e-08
0.00106684
-5.32179e-08
-4.93058e-09
0.00106684
-1.62477e-07
1.50728e-09
0.00106686
1.51717e-07
-7.54839e-08
0.00106684
-2.06307e-07
1.49829e-07
0.00106686
-1.37942e-08
8.31708e-08
0.00106687
-2.23288e-08
1.45057e-08
0.00106684
-7.79381e-08
-3.42583e-08
0.00106683
-1.06693e-07
-1.02204e-08
0.00106684
5.82692e-08
1.39142e-07
0.00106678
-2.56027e-07
1.63081e-07
0.00106679
-2.06384e-08
6.03878e-08
0.00106674
-1.46947e-07
-3.38268e-08
0.00106672
-1.75249e-07
1.74886e-08
0.00106674
-9.74178e-08
1.16028e-07
0.00106671
-2.3132e-07
1.32e-07
0.00106674
-9.59801e-08
2.64835e-08
0.00106669
-1.93188e-07
6.76401e-08
0.00106669
-2.13507e-07
-3.56173e-08
0.00106666
-8.3012e-08
2.60831e-07
0.00106664
-3.16423e-07
1.50135e-07
0.00106662
-1.10455e-07
3.69718e-08
0.0010666
-1.93243e-07
7.58445e-08
0.00106657
-1.82165e-07
-5.58424e-08
0.00106655
-1.7876e-07
2.24329e-07
0.00106656
-1.19431e-07
8.7925e-08
-1.49905e-07
5.61809e-08
0.000922597
-8.28704e-08
-3.04767e-08
0.000922632
-1.27192e-07
7.35963e-08
0.000922681
-2.13764e-08
1.22918e-07
0.000922706
-1.564e-07
-3.50133e-08
0.000922774
-1.46162e-08
3.04141e-08
0.000922805
-4.24762e-08
-1.01955e-07
0.000922849
-2.95684e-08
5.01485e-08
0.000922848
-6.56941e-08
7.74251e-08
0.000922904
2.19765e-08
-8.01736e-08
0.000922875
-1.21631e-07
-1.53958e-08
0.000922909
-7.03228e-09
-6.80765e-08
0.000922918
2.36602e-08
1.16224e-08
0.000922866
-1.56813e-07
1.05317e-07
0.000922923
1.72028e-08
-3.25244e-08
0.000922884
-6.05759e-08
-3.12088e-08
0.000922893
-1.68509e-07
8.03599e-09
0.000922924
1.16108e-07
-1.07901e-08
0.000922885
-1.98716e-07
1.32389e-07
0.000922898
-5.03495e-08
-2.55836e-08
0.000922898
-4.7268e-08
-1.73252e-08
0.000922859
-9.01945e-08
1.87485e-08
0.000922847
-1.28408e-07
6.46366e-08
0.000922835
2.14459e-08
1.17119e-07
0.000922763
-2.64771e-07
7.49286e-08
0.000922779
-6.24356e-08
-3.49209e-08
0.000922734
-1.46632e-07
-5.87481e-09
0.000922727
-1.87623e-07
6.49283e-08
0.000922731
-1.22957e-07
7.97368e-08
0.00092269
-2.40724e-07
2.4737e-08
0.000922706
-1.39543e-07
-1.95231e-09
0.000922651
-2.00298e-07
7.46681e-08
0.000922642
-2.3653e-07
-8.6777e-09
0.000922604
-1.12337e-07
2.40524e-07
0.000922582
-3.27287e-07
-5.06636e-08
0.000922555
-1.48246e-07
1.61147e-08
0.00092254
-2.08631e-07
4.90427e-08
0.000922514
-1.9992e-07
4.37497e-10
0.000922519
-1.96229e-07
1.76904e-07
0.000922538
-1.36984e-07
-4.66025e-08
-1.75787e-07
1.8133e-08
0.000785687
-8.05956e-08
-2.36265e-08
0.000785731
-1.35496e-07
5.16632e-08
0.000785775
-3.82933e-08
-1.70627e-08
0.00078581
-1.51423e-07
-9.44312e-08
0.000785872
-3.18833e-08
-1.21076e-08
0.000785904
-5.81199e-08
-1.17617e-07
0.000785936
-3.51039e-08
3.85668e-08
0.000785942
-8.57618e-08
-5.24503e-08
0.000785993
1.13529e-08
-1.00495e-07
0.000785965
-1.1795e-07
-2.55606e-09
0.00078601
-1.97329e-08
-4.86391e-08
0.000786
1.21038e-08
2.05152e-08
0.000785971
-1.47614e-07
3.56332e-08
0.000786021
-7.03931e-09
-6.94573e-08
0.000785984
-5.35452e-08
1.06213e-08
0.000785992
-1.6029e-07
1.14906e-08
0.000786006
8.08049e-08
2.21091e-09
0.000785956
-1.83981e-07
6.04034e-08
0.000785963
-7.534e-08
-6.39999e-08
0.00078595
-6.0169e-08
2.25972e-08
0.000785906
-9.50317e-08
3.86804e-08
0.000785888
-1.39796e-07
3.51638e-08
0.000785866
-7.56041e-09
4.3751e-08
0.00078581
-2.53454e-07
-3.41915e-10
0.000785828
-8.11222e-08
-5.79263e-08
0.000785787
-1.38306e-07
2.70041e-08
0.000785777
-1.93002e-07
1.99936e-08
0.000785769
-1.36105e-07
-2.13149e-09
0.000785727
-2.34267e-07
-3.25107e-08
0.000785733
-1.61745e-07
1.17434e-08
0.00078568
-1.93904e-07
2.40295e-08
0.000785663
-2.44932e-07
-1.90571e-08
0.000785629
-1.3217e-07
1.3251e-07
0.00078561
-3.12919e-07
-1.43015e-07
0.000785586
-1.65312e-07
8.29744e-08
0.000785588
-2.02246e-07
8.07304e-09
0.00078557
-2.02319e-07
2.1301e-08
0.000785593
-1.95999e-07
7.9056e-08
0.00078562
-1.40054e-07
-8.12905e-08
-1.7967e-07
3.82005e-08
0.000659828
-7.70938e-08
-6.21717e-08
0.000659877
-1.33233e-07
-2.24744e-08
0.000659917
-4.48979e-08
-1.0256e-07
0.000659959
-1.35393e-07
-9.8753e-08
0.00066001
-4.07388e-08
-5.3651e-08
0.000660041
-6.02607e-08
-1.1721e-07
0.000660066
-3.12621e-08
7.67872e-09
0.000660079
-8.79311e-08
-9.99773e-08
0.000660119
1.20848e-08
-4.6936e-08
0.000660098
-1.0394e-07
2.58288e-09
0.000660135
-2.00329e-08
-3.64808e-08
0.000660115
5.99139e-09
1.48385e-08
0.000660103
-1.27841e-07
9.89302e-10
0.000660129
-2.22566e-08
-5.11652e-08
0.000660096
-4.25397e-08
2.62146e-08
0.000660092
-1.49509e-07
-1.40309e-08
0.000660088
4.9506e-08
-9.66956e-09
0.000660039
-1.65825e-07
9.91456e-09
0.000660038
-9.14526e-08
-5.3898e-08
0.000660017
-6.58575e-08
2.6539e-08
0.000659976
-9.49139e-08
-4.57125e-09
0.000659959
-1.40344e-07
-1.4538e-08
0.000659939
-2.48288e-08
-8.4342e-09
0.0006599
-2.27471e-07
-4.57431e-08
0.000659912
-8.82934e-08
-5.92272e-08
0.000659876
-1.27614e-07
3.73172e-09
0.000659864
-1.86001e-07
-5.13788e-08
0.000659848
-1.34756e-07
-4.36288e-08
0.000659812
-2.17286e-07
-4.66684e-08
0.000659809
-1.66945e-07
-3.08117e-10
0.000659764
-1.79739e-07
-3.29325e-08
0.000659744
-2.36412e-07
-1.38129e-08
0.000659722
-1.37591e-07
5.23147e-08
0.000659707
-2.82234e-07
-1.12878e-07
0.000659691
-1.66332e-07
1.18916e-07
0.000659704
-1.87725e-07
-3.78538e-08
0.000659694
-1.93333e-07
3.50786e-08
0.000659729
-1.85362e-07
8.2586e-09
0.000659759
-1.37154e-07
-6.15865e-08
-1.69881e-07
1.46845e-08
0.000546967
-7.04402e-08
-1.00718e-07
0.000547016
-1.21554e-07
-7.71514e-08
0.000547054
-4.21867e-08
-1.2371e-07
0.000547098
-1.12259e-07
-9.0926e-08
0.000547136
-4.07312e-08
-7.24684e-08
0.000547166
-5.07468e-08
-8.9699e-08
0.000547185
-2.20406e-08
-2.67152e-09
0.000547198
-7.81827e-08
-8.23328e-08
0.000547224
1.60463e-08
1.27733e-09
0.000547207
-8.63535e-08
-6.22859e-09
0.000547228
-1.64729e-08
-2.24501e-08
0.000547205
2.88631e-09
5.48834e-09
0.000547197
-1.07753e-07
-1.35217e-08
0.0005472
-3.35484e-08
-4.10327e-08
0.000547172
-3.34918e-08
8.70808e-09
0.000547154
-1.41379e-07
-4.20193e-08
0.000547142
2.48573e-08
-2.2079e-08
0.0005471
-1.46429e-07
-2.2921e-08
0.000547094
-9.87282e-08
-5.03132e-08
0.000547073
-6.59503e-08
-5.47543e-09
0.000547041
-8.97386e-08
-4.50446e-08
0.000547026
-1.31798e-07
-4.40123e-08
0.000547014
-3.20383e-08
-4.31852e-08
0.000546987
-1.95758e-07
-7.15439e-08
0.00054699
-8.85398e-08
-6.45416e-08
0.000546961
-1.14842e-07
-3.58021e-08