/*--------------------------------*- C++ -*----------------------------------*\
  =========                 |
  \\      /  F ield         | OpenFOAM: The Open Source CFD Toolbox
   \\    /   O peration     | Website:  https://openfoam.org
    \\  /    A nd           | Version:  10
     \\/     M anipulation  |
\*---------------------------------------------------------------------------*/
FoamFile
{
    format      ascii;
    class       surfaceScalarField;
    location    "10";
    object      phi_0;
}
// * * * * * * * * * * * * * * * * * * * * * * * * * * * * * * * * * * * * * //

dimensions      [0 3 -1 0 0 0 0];

internalField   nonuniform List<scalar> 
74080
(
0.000647108
3.20346e-08
2.43717e-08
0.000647099
-7.72873e-09
6.73751e-09
0.00064713
-5.23488e-08
-1.25221e-08
0.00064715
-3.12095e-08
-1.24632e-08
0.000647127
1.6497e-08
5.18314e-09
0.000647081
4.81558e-08
1.00653e-08
0.000647059
2.14054e-08
5.04367e-10
0.000647081
-1.58915e-08
-2.36379e-08
0.000647134
-3.77831e-08
-3.6001e-08
0.000647182
-2.14056e-08
-3.63739e-08
0.000647202
6.28219e-09
-2.48183e-08
0.000647192
4.0182e-08
-1.34543e-08
0.000647173
4.49559e-08
-6.26764e-09
0.000647153
4.44539e-08
-2.82091e-12
0.000647133
4.15582e-08
-2.22164e-09
0.000647117
3.83619e-08
-3.38824e-10
0.0006471
3.35509e-08
-2.22015e-09
0.000647093
2.13748e-08
-9.9994e-10
0.000647093
1.1786e-08
-2.63682e-09
0.000647096
8.23665e-09
-3.92869e-09
0.000647097
1.08411e-08
-2.72643e-09
0.000647092
6.62775e-09
-1.77802e-09
0.000647099
-2.57948e-09
-3.01455e-09
0.000647103
-1.09744e-08
2.1531e-09
0.000647124
-2.52142e-08
-6.4348e-09
0.000647113
2.25191e-09
6.56649e-09
0.000647131
-3.43306e-08
-8.8054e-09
0.000647123
-1.08787e-08
6.53347e-09
0.000647126
-1.55989e-08
3.5438e-10
0.000647159
-5.06896e-08
-1.32204e-08
0.000647117
2.5927e-08
1.92841e-08
0.000647144
-4.08975e-08
-1.56987e-08
0.000647143
-2.89029e-08
4.06665e-09
0.000647112
1.44419e-08
2.15426e-08
0.00064714
-4.43351e-08
-5.99875e-09
0.000647153
-3.65355e-08
7.63546e-09
0.000647107
3.74552e-08
2.95792e-08
0.000647109
-1.75841e-08
1.57213e-08
0.000647148
-5.95491e-08
-1.02768e-09
-1.8706e-08
1.66952e-08
0.000593629
8.31574e-09
9.92753e-09
0.000593635
-3.64607e-09
-2.33007e-09
0.000593607
-1.72428e-08
3.66272e-09
0.000593586
-1.02789e-08
6.68453e-09
0.0005936
-4.33897e-09
1.23795e-09
0.000593621
2.68632e-08
-1.11072e-08
0.000593626
2.38098e-08
-1.3902e-08
0.000593612
1.32664e-08
-2.1037e-08
0.000593598
-4.74446e-09
-2.2161e-08
0.00059359
6.43871e-09
-2.46632e-08
0.000593586
2.17665e-08
-2.14884e-08
0.00059358
5.29634e-08
-2.06669e-08
0.000593586
3.67785e-08
-1.787e-08
0.000593592
3.46496e-08
-1.02188e-08
0.000593596
3.60676e-08
-1.33909e-08
0.000593594
3.79003e-08
-4.14161e-09
0.000593582
4.40131e-08
-3.20589e-09
0.000593581
2.16931e-08
6.61185e-10
0.000593584
1.1082e-08
-1.50841e-09
0.000593589
6.62878e-09
-1.07082e-09
0.000593588
1.92098e-08
2.02319e-09
0.000593583
1.32891e-08
1.78008e-09
0.000593582
3.22872e-09
3.01841e-09
0.000593601
-2.95507e-08
3.81257e-09
0.000593602
-1.86991e-08
4.02824e-09
0.000593615
-1.18234e-08
5.20283e-09
0.00059361
-2.18173e-08
2.12647e-09
0.000593612
-1.93833e-08
9.27995e-09
0.000593631
-2.86191e-08
-1.72895e-09
0.000593619
-3.11015e-08
3.07914e-09
0.000593635
-1.14458e-09
7.66315e-09
0.000593624
-1.21809e-08
-8.88451e-09
0.000593607
-2.39277e-08
1.56545e-08
0.000593633
-1.48129e-08
7.2391e-09
0.000593632
-2.47706e-08
-3.27707e-09
0.00059361
-2.10727e-08
2.66423e-08
0.000593613
2.85318e-08
2.11256e-08
0.000593631
-2.56681e-08
8.27546e-09
0.000593609
-3.17303e-08
1.92579e-08
-2.84432e-08
2.97735e-08
0.000540554
1.33822e-08
6.72036e-09
0.000540553
7.0059e-09
1.19527e-09
0.000540536
-4.58604e-09
1.22552e-08
0.000540523
-3.48876e-09
9.21237e-09
0.00054054
-1.88591e-08
-5.44914e-09
0.000540548
3.3625e-08
-2.17793e-08
0.000540542
3.90543e-08
-1.55579e-08
0.00054053
2.89013e-08
-2.01367e-08
0.000540526
2.40586e-09
-1.9104e-08
0.000540528
1.25692e-08
-2.44972e-08
0.000540527
2.90032e-08
-2.36825e-08
0.000540509
7.63667e-08
-2.84253e-08
0.000540516
3.15496e-08
-2.69619e-08
0.00054052
3.5269e-08
-1.67244e-08
0.000540527
3.47102e-08
-2.35048e-08
0.000540524
4.19764e-08
-4.78055e-09
0.000540505
6.31194e-08
-3.83267e-09
0.000540507
1.91141e-08
3.50356e-09
0.000540512
1.08855e-08
-1.8949e-09
0.000540521
1.77552e-09
7.70689e-10
0.000540517
3.11731e-08
5.74745e-09
0.000540505
2.69899e-08
4.34509e-09
0.000540504
8.00555e-09
7.2452e-09
0.000540528
-4.89331e-08
5.48008e-09
0.000540529
-1.50095e-08
1.16495e-08
0.000540542
-2.0464e-08
5.94334e-09
0.000540534
-1.25736e-08
1.18073e-08
0.000540536
-2.68933e-08
1.13793e-08
0.000540556
-3.69603e-08
8.46707e-10
0.000540551
-2.79617e-08
1.04385e-08
0.00054056
-6.73511e-09
3.052e-09
0.000540544
1.20877e-08
-1.31681e-09
0.000540536
-3.17318e-08
1.64368e-08
0.000540556
-2.09793e-08
4.70211e-09
0.000540562
-1.85829e-08
2.85184e-09
0.000540547
-1.82479e-08
3.50292e-08
0.000540529
5.29565e-08
2.26619e-08
0.000540549
-3.51993e-08
1.6861e-08
0.000540539
-2.53784e-08
3.11251e-08
-4.59601e-08
3.56676e-08
0.000491933
2.76964e-08
8.73833e-09
0.000491927
2.21276e-08
5.48839e-09
0.000491909
8.97056e-09
1.33706e-08
0.000491899
2.96989e-09
7.05457e-09
0.000491928
-4.45024e-08
-8.6129e-09
0.00049193
4.78382e-08
-2.7339e-08
0.000491916
6.17874e-08
-1.63061e-08
0.000491905
4.43978e-08
-2.77159e-08
0.000491903
7.06441e-09
-2.68145e-08
0.000491914
1.11672e-08
-3.20154e-08
0.000491911
3.61219e-08
-2.78336e-08
0.00049188
1.12512e-07
-3.6293e-08
0.000491894
1.91718e-08
-3.24126e-08
0.000491894
4.16773e-08
-1.9544e-08
0.000491911
2.70739e-08
-3.27508e-08
0.000491903
4.8472e-08
-7.10711e-10
0.000491874
9.38084e-08
-3.2536e-09
0.000491882
1.04253e-08
8.36275e-09
0.000491886
1.24923e-08
-3.8548e-09
0.000491904
-1.14193e-08
2.09481e-09
0.000491895
4.98651e-08
8.77437e-09
0.000491872
5.0448e-08
5.72384e-09
0.000491873
1.28026e-08
8.88832e-09
0.000491903
-7.30521e-08
6.95073e-09
0.000491905
-1.00694e-08
1.70695e-08
0.000491922
-3.32838e-08
8.61787e-09
0.000491904
3.71494e-09
1.97377e-08
0.00049191
-3.81972e-08
1.46113e-08
0.000491931
-4.51687e-08
5.88856e-09
0.000491933
-2.88622e-08
1.26861e-08
0.000491938
-9.76926e-09
6.97854e-09
0.000491911
4.51051e-08
2.64955e-09
0.000491912
-4.70799e-08
1.47905e-08
0.00049193
-2.13398e-08
1.15467e-08
0.000491944
-1.93708e-08
4.24437e-09
0.000491929
-1.27147e-08
4.41505e-08
0.000491892
9.63935e-08
3.49327e-08
0.00049192
-5.39651e-08
2.83676e-08
0.000491911
-1.58926e-08
3.82308e-08
-7.58895e-08
4.51082e-08
0.000447649
5.68927e-08
9.88995e-09
0.000447635
4.34828e-08
1.15096e-08
0.000447616
2.62079e-08
1.2174e-08
0.00044761
8.94842e-09
1.95158e-09
0.000447657
-8.8462e-08
-1.37316e-08
0.000447647
7.41039e-08
-3.42178e-08
0.000447621
9.51071e-08
-1.61654e-08
0.000447611
6.07504e-08
-3.90819e-08
0.000447613
8.00927e-09
-3.80422e-08
0.000447643
-6.56138e-09
-4.08649e-08
0.000447634
4.38499e-08
-3.14558e-08
0.000447587
1.64792e-07
-4.57407e-08
0.000447609
-1.91423e-09
-3.61664e-08
0.000447602
5.96809e-08
-2.22823e-08
0.000447636
6.15435e-09
-4.37149e-08
0.00044762
6.19747e-08
7.13651e-09
0.000447577
1.40819e-07
-2.42388e-09
0.000447592
-6.26763e-09
1.54372e-08
0.000447595
1.8498e-08
-8.9356e-09
0.00044763
-4.09402e-08
3.12074e-09
0.000447611
7.91289e-08
1.15463e-08
0.000447572
8.81022e-08
5.44823e-09
0.000447579
1.6936e-08
8.48057e-09
0.000447613
-9.93889e-08
6.82584e-09
0.000447621
-9.45836e-09
2.3268e-08
0.000447641
-5.203e-08
1.18795e-08
0.000447608
3.10309e-08
2.89591e-08
0.00044762
-5.63065e-08
1.87083e-08
0.000447642
-4.95098e-08
1.15064e-08
0.000447656
-4.12714e-08
1.5155e-08
0.000447652
-5.94058e-09
1.34615e-08
0.000447613
8.86574e-08
6.29134e-09
0.000447625
-7.33463e-08
1.25732e-08
0.000447638
-1.11766e-08
2.14708e-08
0.000447669
-3.52076e-08
5.29377e-09
0.000447647
-7.2526e-10
5.79185e-08
0.000447589
1.63362e-07
5.17301e-08
0.000447625
-8.27862e-08
4.31934e-08
0.000447617
-5.20274e-10
4.63966e-08
-1.27756e-07
5.69276e-08
0.000407331
1.04511e-07
8.79769e-09
0.000407308
7.13311e-08
1.89829e-08
0.00040728
5.68442e-08
7.62252e-09
0.00040728
1.55806e-08
-7.2522e-09
0.000407355
-1.62776e-07
-2.07627e-08
0.000407331
1.14324e-07
-4.45112e-08
0.000407292
1.39589e-07
-1.46644e-08
0.000407279
8.3485e-08
-5.55694e-08
0.000407284
9.62118e-09
-5.40417e-08
0.00040734
-4.77308e-08
-5.07856e-08
0.000407318
5.59048e-08
-3.46566e-08
0.000407254
2.3565e-07
-5.62888e-08
0.000407285
-3.18626e-08
-3.68328e-08
0.00040727
9.25096e-08
-2.56657e-08
0.000407333
-4.05529e-08
-5.60125e-08
0.0004073
8.94445e-08
1.99331e-08
0.000407241
2.06569e-07
-1.19392e-09
0.000407264
-3.08965e-08
2.5513e-08
0.000407266
3.12629e-08
-1.83566e-08
0.000407328
-9.88511e-08
4.41355e-09
0.000407291
1.26535e-07
1.36402e-08
0.000407234
1.43028e-07
3.50874e-09
0.000407247
2.32343e-08
5.73181e-09
0.000407283
-1.26772e-07
4.84512e-09
0.000407305
-2.08274e-08
3.10149e-08
0.000407327
-7.75147e-08
1.50259e-08
0.000407274
7.49135e-08
3.94951e-08
0.000407293
-8.41183e-08
2.48525e-08
0.000407314
-4.80547e-08
1.71879e-08
0.000407348
-7.11249e-08
1.96073e-08
0.000407332
5.58393e-09
2.3251e-08
0.000407276
1.45114e-07
8.43615e-09
0.000407299
-1.1033e-07
1.10148e-08
0.00040731
9.14865e-09
3.47296e-08
0.000407365
-7.60772e-08
5.41019e-09
0.000407328
2.4647e-08
7.96092e-08
0.000407248
2.52196e-07
7.43074e-08
0.000407291
-1.19843e-07
6.03461e-08
0.000407282
2.58106e-08
5.6308e-08
-2.14131e-07
7.18155e-08
0.000370626
1.7978e-07
3.21885e-09
0.000370594
1.05163e-07
2.8438e-08
0.00037055
1.11518e-07
-5.12443e-10
0.000370561
1.94734e-08
-2.02553e-08
0.000370673
-2.78965e-07
-3.07141e-08
0.000370629
1.73754e-07
-5.91735e-08
0.000370575
1.96723e-07
-1.09977e-08
0.000370552
1.2116e-07
-7.83551e-08
0.000370563
8.77413e-09
-7.44034e-08
0.000370657
-1.26548e-07
-5.96383e-08
0.000370615
7.68744e-08
-3.8273e-08
0.000370535
3.25284e-07
-6.70684e-08
0.00037057
-6.45741e-08
-3.32423e-08
0.000370547
1.41531e-07
-3.12585e-08
0.000370652
-1.27262e-07
-6.86397e-08
0.00037059
1.42038e-07
3.71455e-08
0.000370519
2.91739e-07
4.69412e-10
0.000370543
-5.86999e-08
3.92174e-08
0.000370548
4.99462e-08
-3.37062e-08
0.000370649
-1.99902e-07
6.70539e-09
0.000370585
2.024e-07
1.3885e-08
0.000370507
2.16147e-07
2.51787e-10
0.000370525
3.87759e-08
-9.30472e-11
0.00037056
-1.55745e-07
7.45059e-10
0.00037061
-5.74294e-08
4.21919e-08
0.000370628
-1.0538e-07
1.70612e-08
0.000370549
1.38499e-07
5.20319e-08
0.000370578
-1.22553e-07
3.32983e-08
0.000370596
-3.85916e-08
2.19372e-08
0.000370659
-1.29614e-07
2.88201e-08
0.000370623
3.16643e-08
3.48593e-08
0.000370551
2.12378e-07
8.77723e-09
0.000370582
-1.56739e-07
1.22077e-08
0.000370592
3.94594e-08
5.04526e-08
0.000370684
-1.56075e-07
5.45312e-09
0.000370619
6.94292e-08
1.1038e-07
0.00037052
3.59975e-07
1.02748e-07
0.000370563
-1.56808e-07
8.01657e-08
0.000370558
6.17852e-08
6.84671e-08
-3.49875e-07
8.89957e-08
0.000337216
2.87969e-07
-5.72832e-09
0.000337175
1.4202e-07
4.10057e-08
0.0003371
2.04517e-07
-1.21368e-08
0.000337132
1.27086e-08
-3.7358e-08
0.000337288
-4.4853e-07
-4.38637e-08
0.000337222
2.52873e-07
-7.77179e-08
0.00033715
2.67218e-07
-3.79599e-09
0.000337109
1.86447e-07
-1.07216e-07
0.000337132
-8.35825e-10
-9.99711e-08
0.000337273
-2.57585e-07
-6.52316e-08
0.000337203
1.10356e-07
-4.23606e-08
0.00033711
4.31595e-07
-7.52995e-08
0.000337137
-8.82564e-08
-2.3391e-08
0.000337116
2.0174e-07
-4.00644e-08
0.000337273
-2.67961e-07
-7.91931e-08
0.000337171
2.32341e-07
5.77651e-08
0.000337091
3.93238e-07
5.01255e-09
0.000337104
-7.96843e-08
5.73183e-08
0.000337122
6.75219e-08
-5.66272e-08
0.000337273
-3.58808e-07
1.10722e-08
0.00033717
3.16269e-07
1.20742e-08
0.000337073
3.05606e-07
-1.4847e-09
0.000337087
7.66153e-08
-7.10582e-09
0.000337127
-1.90399e-07
-8.19965e-09
0.000337215
-1.34298e-07
5.86903e-08
0.000337222
-1.29526e-07
1.83013e-08
0.000337115
2.20934e-07
6.76546e-08
0.000337149
-1.68494e-07
4.52376e-08
0.000337169
-2.27578e-08
2.4929e-08
0.00033727
-2.28079e-07
4.69492e-08
0.000337205
7.86156e-08
4.71174e-08
0.000337119
2.83282e-07
8.17889e-09
0.00033715
-2.07163e-07
1.75124e-08
0.000337167
7.31392e-08
6.79431e-08
0.000337303
-2.88871e-07
7.43283e-09
0.000337202
1.42328e-07
1.50031e-07
0.000337086
4.80027e-07
1.38074e-07
0.000337115
-1.7859e-07
1.03411e-07
0.000337126
9.96243e-08
8.31453e-08
-5.48849e-07
1.08377e-07
0.000306808
4.2924e-07
-1.71362e-08
0.000306756
1.78802e-07
5.76299e-08
0.000306636
3.50203e-07
-2.50487e-08
0.000306705
-1.62611e-08
-5.88719e-08
0.000306906
-6.81354e-07
-5.88757e-08
0.000306819
3.45153e-07
-9.8692e-08
0.000306725
3.49147e-07
1.33722e-08
0.000306652
2.90116e-07
-1.38596e-07
0.000306701
-3.38353e-08
-1.30147e-07
0.000306894
-4.55397e-07
-6.39551e-08
0.000306792
1.5417e-07
-4.60603e-08
0.000306689
5.51022e-07
-7.77398e-08
0.000306691
-8.8002e-08
-5.00928e-09
0.000306687
2.6131e-07
-5.25197e-08
0.000306901
-4.74046e-07
-8.49463e-08
0.000306749
3.7056e-07
8.01437e-08
0.000306666
5.07736e-07
1.31009e-08
0.000306651
-7.97823e-08
8.06672e-08
0.0003067
7.03848e-08
-8.8527e-08
0.000306905
-5.86938e-07
1.98946e-08
0.000306757
4.7341e-07
8.74623e-09
0.000306641
4.10841e-07
-3.67439e-10
0.000306636
1.54242e-07
-1.54949e-08
0.000306692
-2.41855e-07
-2.009e-08
0.000306829
-2.66654e-07
8.4287e-08
0.000306814
-1.47125e-07
1.85226e-08
0.000306681
3.15979e-07
8.76172e-08
0.000306713
-2.20421e-07
6.44655e-08
0.000306742
-7.20745e-09
2.57943e-08
0.000306886
-3.76856e-07
7.88576e-08
0.000306786
1.51405e-07
5.75425e-08
0.000306687
3.46341e-07
7.16202e-09
0.000306707
-2.54693e-07
2.83719e-08
0.000306744
9.7148e-08
8.67187e-08
0.000306927
-4.85628e-07
1.41385e-08
0.000306785
2.44045e-07
1.99293e-07
0.000306655
6.03055e-07
1.8232e-07
0.000306652
-1.66435e-07
1.33886e-07
0.000306698
1.2406e-07
9.95582e-08
-8.22773e-07
1.30678e-07
0.00027914
5.89201e-07
-2.99671e-08
0.00027907
2.12036e-07
8.17969e-08
0.000278889
5.59749e-07
-3.3195e-08
0.000279015
-8.31987e-08
-8.38896e-08
0.000279256
-9.86337e-07
-7.23271e-08
0.000279158
4.31832e-07
-1.19669e-07
0.000279031
4.40585e-07
4.34018e-08
0.000278913
4.38737e-07
-1.67437e-07
0.000279005
-1.08899e-07
-1.64735e-07
0.000279249
-7.36034e-07
-4.99435e-08
0.000279118
1.9592e-07
-4.72488e-08
0.000279004
6.8159e-07
-6.96286e-08
0.000278962
-4.79239e-08
2.48921e-08
0.000278998
3.00889e-07
-6.72386e-08
0.000279262
-7.53967e-07
-8.12549e-08
0.000279062
5.59321e-07
1.03095e-07
0.000278976
6.32582e-07
2.93317e-08
0.000278915
-4.53381e-08
1.10132e-07
0.000279019
3.74301e-08
-1.29273e-07
0.000279273
-8.9128e-07
3.78057e-08
0.000279081
6.67957e-07
6.61314e-09
0.000278943
5.30926e-07
1.05078e-08
0.000278902
2.88375e-07
-2.11671e-08
0.000278994
-3.30765e-07
-3.33066e-08
0.000279181
-4.6935e-07
1.24374e-07
0.000279137
-1.59509e-07
1.86912e-08
0.000278981
4.13935e-07
1.14689e-07
0.000279
-2.77387e-07
9.44258e-08
0.000279052
-5.12336e-09
2.53766e-08
0.000279236
-5.85023e-07
1.32442e-07
0.000279098
2.50153e-07
6.50142e-08
0.000278989
3.86969e-07
9.3354e-09
0.000278986
-2.94883e-07
4.92778e-08
0.00027906
9.18964e-08
1.06743e-07
0.000279284
-7.49851e-07
3.17982e-08
0.000279105
3.6418e-07
2.59239e-07
0.00027896
7.18356e-07
2.39582e-07
0.000278904
-1.06311e-07
1.76692e-07
0.000279009
1.13967e-07
1.16875e-07
-1.17926e-06
1.58013e-07
0.000253971
7.4166e-07
-4.15316e-08
0.000253869
2.3886e-07
1.18019e-07
0.000253619
8.30016e-07
-2.71379e-08
0.000253818
-2.01581e-07
-1.11161e-07
0.00025409
-1.3762e-06
-7.80171e-08
0.000253997
4.81354e-07
-1.35414e-07
0.00025382
5.41545e-07
9.21728e-08
0.00025365
6.27403e-07
-1.8569e-07
0.000253803
-2.47618e-07
-2.0127e-07
0.000254091
-1.12058e-06
-1.29094e-08
0.000253942
2.11902e-07
-4.32931e-08
0.000253807
8.22656e-07
-4.5026e-08
0.000253706
4.07823e-08
7.01515e-08
0.000253809
2.9389e-07
-8.14707e-08
0.000254109
-1.11483e-06
-6.20613e-08
0.00025387
7.90495e-07
1.26247e-07
0.000253776
7.68944e-07
5.84276e-08
0.000253651
3.01761e-08
1.47144e-07
0.000253839
-5.74234e-08
-1.77747e-07
0.000254126
-1.27731e-06
7.1446e-08
0.000253903
8.78798e-07
1.10902e-08
0.000253733
6.70104e-07
3.48283e-08
0.000253643
4.87914e-07
-1.92563e-08
0.000253791
-4.82608e-07
-4.4385e-08
0.000254023
-7.59526e-07
1.86727e-07
0.000253951
-1.78234e-07
2.00361e-08
0.00025377
5.02656e-07
1.52347e-07
0.000253766
-3.4593e-07
1.40507e-07
0.000253857
-3.32847e-08
2.51727e-08
0.000254072
-8.56587e-07
2.11012e-07
0.000253899
3.66913e-07
6.88244e-08
0.000253779
3.87699e-07
1.86514e-08
0.000253743
-3.3282e-07
8.40949e-08
0.000253873
3.42218e-08
1.29938e-07
0.000254126
-1.08693e-06
6.82632e-08
0.000253922
4.78668e-07
3.30044e-07
0.000253753
8.13575e-07
3.15557e-07
0.000253631
6.59891e-09
2.37321e-07
0.00025382
4.66814e-08
1.33624e-07
-1.62584e-06
1.9559e-07
0.000231083
8.44123e-07
-4.74066e-08
0.000230926
2.53607e-07
1.74286e-07
0.000230607
1.13547e-06
7.18338e-09
0.000230893
-3.79646e-07
-1.37876e-07
0.000231184
-1.86468e-06
-6.79715e-08
0.000231118
4.46924e-07
-1.40249e-07
0.000230867
6.49679e-07
1.6812e-07
0.000230644
8.31792e-07
-1.80745e-07
0.000230871
-4.70338e-07
-2.37316e-07
0.000231193
-1.63789e-06
5.23753e-08
0.000231045
1.64641e-07
-2.88288e-08
0.000230872
9.78131e-07
8.91485e-10
0.000230706
1.70445e-07
1.37917e-07
0.000230898
2.10721e-07
-9.0602e-08
0.000231212
-1.56319e-06
-2.03914e-08
0.000230955
1.0461e-06
1.52102e-07
0.000230833
9.23925e-07
1.07811e-07
0.000230641
1.35e-07
1.9442e-07
0.000230941
-2.43559e-07
-2.30035e-07
0.000231237
-1.75041e-06
1.2902e-07
0.000231005
1.06468e-06
2.94174e-08
0.000230783
8.34973e-07
7.90805e-08
0.000230637
7.44938e-07
-5.58773e-10
0.000230862
-7.25856e-07
-4.77633e-08
0.000231126
-1.15182e-06
2.79223e-07
0.000231036
-2.25983e-07
2.52474e-08
0.000230823
5.6691e-07
2.06324e-07
0.000230791
-4.49373e-07
2.13354e-07
0.000230937
-1.13053e-07
3.02935e-08
0.000231168
-1.19241e-06
3.21173e-07
0.00023097
4.81275e-07
7.13348e-08
0.00023083
3.28357e-07
4.1345e-08
0.00023076
-3.9013e-07
1.39057e-07
0.000230962
-1.00037e-07
1.58732e-07
0.000231225
-1.5045e-06
1.32889e-07
0.000231016
5.49132e-07
4.13813e-07
0.000230807
8.7356e-07
4.19068e-07
0.000230614
1.58118e-07
3.23672e-07
0.000230909
-9.63618e-08
1.49121e-07
-2.17178e-06
2.51637e-07
0.000210276
8.427e-07
-4.24085e-08
0.000210033
2.44666e-07
2.59137e-07
0.000209657
1.43273e-06
7.68563e-08
0.000210025
-6.11691e-07
-1.58985e-07
0.000210334
-2.48298e-06
-2.79064e-08
0.000210319
2.70955e-07
-1.23823e-07
0.000209965
7.51175e-07
2.83896e-07
0.000209699
1.00405e-06
-1.36976e-07
0.000210003
-7.93989e-07
-2.67895e-07
0.000210354
-2.33359e-06
1.64962e-07
0.000210227
9.65851e-09
2.15019e-09
0.000209991
1.13274e-06
9.09302e-08
0.000209763
3.15865e-07
2.36032e-07
0.000210059
2.1407e-08
-8.87758e-08
0.000210369
-2.12129e-06
5.34722e-08
0.000210119
1.30271e-06
1.84527e-07
0.000209937
1.10884e-06
1.84939e-07
0.000209687
2.34905e-07
2.56388e-07
0.000210115
-5.40287e-07
-2.83066e-07
0.0002104
-2.32885e-06
2.18475e-07
0.000210188
1.17878e-06
6.90973e-08
0.000209884
1.03687e-06
1.51121e-07
0.000209688
1.0342e-06
4.27265e-08
0.000210002
-1.08318e-06
-3.81847e-08
0.000210285
-1.66647e-06
4.06178e-07
0.000210191
-3.35558e-07
3.82843e-08
0.000209932
5.83415e-07
2.85571e-07
0.000209876
-6.33736e-07
3.2616e-07
0.000210089
-2.66193e-07
4.54582e-08
0.000210317
-1.59408e-06
4.67601e-07
0.000210109
5.63319e-07
7.78346e-08
0.000209936
1.83083e-07
8.50746e-08
0.000209836
-5.11263e-07
2.23831e-07
0.00021012
-3.34722e-07
1.98395e-07
0.000210377
-2.01672e-06
2.33518e-07
0.000210187
5.26018e-07
5.14094e-07
0.000209913
8.77756e-07
5.59332e-07
0.000209656
3.10305e-07
4.44016e-07
0.000210066
-3.28849e-07
1.65505e-07
-2.84465e-06
3.35983e-07
0.000191364
6.79355e-07
-1.98558e-08
0.000191009
1.76745e-07
3.92445e-07
0.000190597
1.64325e-06
2.09268e-07
0.000191024
-8.81525e-07
-1.69978e-07
0.000191359
-3.26917e-06
4.60045e-08
0.000191409
-1.02536e-07
-7.45003e-08
0.000190933
8.13745e-07
4.58175e-07
0.00019064
1.067e-06
-3.49124e-08
0.000191006
-1.23151e-06
-2.90009e-07
0.00019139
-3.27071e-06
3.31488e-07
0.000191301
-2.98722e-07
6.41416e-08
0.000190978
1.28112e-06
2.24311e-07
0.000190701
4.31086e-07
3.75889e-07
0.000191092
-2.91559e-07
-7.10035e-08
0.000191398
-2.83495e-06
1.63098e-07
0.000191178
1.54438e-06
2.32713e-07
0.000190903
1.32835e-06
3.0507e-07
0.000190616
2.69993e-07
3.38823e-07
0.000191159
-9.46743e-07
-3.35741e-07
0.000191435
-3.04648e-06
3.41483e-07
0.000191272
1.17759e-06
1.36575e-07
0.000190851
1.28807e-06
2.62302e-07
0.00019062
1.30182e-06
1.28864e-07
0.000191017
-1.56618e-06
-1.20184e-08
0.000191314
-2.33164e-06
5.64889e-07
0.000191231
-5.38961e-07
6.54923e-08
0.000190914
5.15494e-07
4.07626e-07
0.000190846
-9.75523e-07
4.97991e-07
0.000191125
-5.15011e-07
7.48789e-08
0.000191334
-2.06539e-06
6.49616e-07
0.000191129
5.84727e-07
9.9612e-08
0.000190912
-8.55247e-08
1.66422e-07
0.000190796
-7.68526e-07
3.51807e-07
0.000191153
-6.8232e-07
2.49121e-07
0.000191398
-2.65473e-06
3.69142e-07
0.000191248
3.584e-07
6.36483e-07
0.000190886
7.99618e-07
7.52189e-07
0.000190583
3.97522e-07
6.09389e-07
0.000191087
-6.50175e-07
1.82912e-07
-3.70289e-06
4.55393e-07
0.000174172
3.1233e-07
3.30612e-08
0.000173721
-3.98369e-08
6.31734e-07
0.000173295
1.66654e-06
4.41175e-07
0.000173736
-1.17467e-06
-1.70262e-07
0.000174105
-4.25505e-06
1.44195e-07
0.000174218
-7.08443e-07
3.42675e-08
0.000173639
7.58013e-07
7.41886e-07
0.000173333
9.3627e-07
1.49421e-07
0.000173726
-1.80942e-06
-3.06927e-07
0.000174145
-4.50434e-06
5.26403e-07
0.0001741
-7.70159e-07
1.56163e-07
0.000173697
1.38621e-06
4.4852e-07
0.00017339
4.58309e-07
5.82996e-07
0.000173843
-7.42931e-07
-4.86125e-08
0.000174143
-3.75702e-06
2.98091e-07
0.000173965
1.77449e-06
3.16901e-07
0.000173592
1.55165e-06
5.16382e-07
0.000173299
1.509e-07
4.60998e-07
0.000173919
-1.4602e-06
-4.01418e-07
0.000174189
-3.93526e-06
4.76629e-07
0.000174082
1.04244e-06
2.42395e-07
0.00017354
1.55983e-06
4.53403e-07
0.000173296
1.47543e-06
2.89056e-07
0.00017375
-2.18059e-06
1.87539e-08
0.000174061
-3.16628e-06
7.28267e-07
0.000173993
-8.47725e-07
1.19243e-07
0.000173625
2.77642e-07
6.28122e-07
0.000173564
-1.57255e-06
7.58061e-07
0.000173881
-8.73889e-07
1.11739e-07
0.000174057
-2.61117e-06
8.47617e-07
0.000173867
5.25835e-07
1.5823e-07
0.00017362
-5.50851e-07
3.39233e-07
0.000173507
-1.26205e-06
5.50289e-07
0.000173902
-1.15573e-06
2.99746e-07
0.000174134
-3.44689e-06
5.11128e-07
0.000174033
1.49012e-08
7.86305e-07
0.000173587
5.6366e-07
1.03748e-06
0.000173255
3.42606e-07
8.38133e-07
0.000173808
-1.0442e-06
1.88433e-07
-4.81051e-06
5.84658e-07
0.000158568
-3.11981e-07
1.29726e-07
0.000158158
-6.19392e-07
1.19173e-06
0.000157688
1.45754e-06
9.04925e-07
0.000158074
-1.51059e-06
-1.77882e-07
0.000158459
-5.4874e-06
1.78641e-07
0.00015864
-1.57746e-06
2.35779e-07
0.000158066
4.34703e-07
1.30444e-06
0.000157721
5.81044e-07
5.20535e-07
0.000158075
-2.55287e-06
-3.58727e-07
0.000158492
-6.0785e-06
6.16992e-07
0.000158496
-1.40785e-06
2.73495e-07
0.00015813
1.29081e-06
9.34309e-07
0.000157801
3.47823e-07
9.80389e-07
0.000158223
-1.32627e-06
-6.32373e-08
0.000158477
-4.93001e-06
3.50557e-07
0.000158344
1.98216e-06
4.57403e-07
0.00015799
1.59027e-06
1.007e-06
0.000157706
-2.19046e-07
7.29979e-07
0.000158307
-2.08276e-06
-5.18752e-07
0.000158552
-5.03254e-06
5.20956e-07
0.000158496
7.85434e-07
3.98272e-07
0.000157911
1.734e-06
8.85099e-07
0.000157659
1.48506e-06
6.37056e-07
0.000158115
-2.94616e-06
2.76608e-08
0.000158403
-4.15582e-06
7.79774e-07
0.000158357
-1.28266e-06
2.32523e-07
0.000158036
-3.2691e-07
1.13758e-06
0.000157969
-2.4829e-06
1.20083e-06
0.000158247
-1.34247e-06
1.21082e-07
0.000158358
-3.23686e-06
9.59525e-07
0.000158203
3.38292e-07
2.94016e-07
0.000158032
-1.41848e-06
8.04546e-07
0.000157929
-2.10115e-06
9.38695e-07
0.000158282
-1.77151e-06
3.11659e-07
0.000158473
-4.4371e-06
5.37471e-07
0.000158426
-5.48616e-07
9.79658e-07
0.000157999
1.64614e-09
1.57236e-06
0.000157597
1.20957e-07
1.20792e-06
0.00015811
-1.4999e-06
1.09179e-07
-6.25225e-06
5.97728e-07
0.000144502
-1.5242e-06
3.31835e-07
0.000144389
-1.87553e-06
2.63514e-06
0.000143769
1.1995e-06
1.95425e-06
0.000143944
-1.91395e-06
-2.94429e-07
0.000144301
-7.24738e-06
-1.22066e-07
0.00014464
-2.98829e-06
6.3735e-07
0.000144309
-3.94665e-07
2.61466e-06
0.000143835
1.7396e-07
1.35961e-06
0.000143957
-3.4239e-06
-5.5897e-07
0.000144261
-8.17695e-06
2.41686e-07
0.000144412
-2.47463e-06
3.95592e-07
0.000144384
5.86129e-07
2.18248e-06
0.000143969
1.72708e-07
1.93737e-06
0.000144141
-1.98811e-06
-2.46749e-07
0.000144268
-6.54645e-06
-1.06537e-08
0.000144298
1.85127e-06
6.98437e-07
0.000144219
1.03714e-06
2.29964e-06
0.000143846
-7.49628e-07
1.47526e-06
0.000144235
-2.78847e-06
-8.04051e-07
0.000144405
-6.5699e-06
1.90439e-07
0.000144479
2.00334e-07
6.38183e-07
0.000144042
1.56294e-06
2.02006e-06
0.0001437
1.39532e-06
1.49928e-06
0.00014401
-3.85366e-06
-8.89076e-08
0.000144205
-5.44906e-06
4.03169e-07
0.000144273
-2.10567e-06
4.64007e-07
0.000144213
-1.63418e-06
2.43421e-06
0.000144024
-3.52962e-06
2.09603e-06
0.000144114
-1.84267e-06
-6.63529e-09
0.00014412
-4.13655e-06
6.79017e-07
0.000144105
-3.0258e-07
5.58493e-07
0.000144238
-3.03886e-06
2.09267e-06
0.000144043
-3.14188e-06
1.86878e-06
0.000144187
-2.52919e-06
1.77676e-07
0.000144305
-5.89647e-06
1.30871e-07
0.000144411
-1.63907e-06
1.25825e-06
0.00014422
-1.16097e-06
2.8103e-06
0.0001436
-8.55726e-08
1.95621e-06
0.00014387
-2.05937e-06
-2.28795e-07
-8.30759e-06
1.49876e-07
0.000131631
-4.06834e-06
8.88069e-07
0.000131884
-3.82046e-06
5.75872e-06
0.000131021
1.4234e-06
3.9235e-06
0.000130848
-2.49956e-06
-9.1065e-07
0.000131131
-1.02152e-05
-1.27975e-06
0.000131871
-5.61128e-06
1.49526e-06
0.000131945
-1.78635e-06
5.40189e-06
0.00013127
2.10293e-07
2.9387e-06
0.000130854
-4.29298e-06
-1.23908e-06
0.000130887
-1.12472e-05
-1.19377e-06
0.00013154
-4.76824e-06
6.4239e-07
0.000132107
-1.07716e-06
4.99781e-06
0.000131457
3.31807e-07
3.87834e-06
0.000131098
-2.65345e-06
-1.02125e-06
0.000131124
-9.17349e-06
-1.42428e-06
0.000131696
4.16433e-07
1.25149e-06
0.000131967
-3.91639e-07
5.18192e-06
0.000131245
-8.81288e-07
3.01123e-06
0.000131198
-3.5676e-06
-1.65027e-06
0.000131294
-9.1649e-06
-1.06624e-06
0.000131805
-1.40609e-06
1.13305e-06
0.000131637
9.12806e-07
4.58242e-06
0.000130959
1.60722e-06
3.2323e-06
0.0001309
-4.87002e-06
-6.99429e-07
0.000131035
-7.64187e-06
-9.75157e-07
0.000131507
-4.10031e-06
9.78881e-07
0.000131747
-3.71139e-06
5.25019e-06
0.000131204
-4.06134e-06
3.69831e-06
0.000131006
-2.28017e-06
-6.19913e-07
0.000131013
-6.09206e-06
-5.7975e-07
0.000131417
-2.2978e-06
1.06201e-06
0.000131879
-5.46669e-06
4.93837e-06
0.000131339
-3.72122e-06
3.6902e-06
0.000131077
-3.40559e-06
-5.03003e-07
0.000131211
-8.54234e-06
-1.30768e-06
0.000131766
-4.03763e-06
1.82929e-06
0.000131894
-2.93301e-06
5.45601e-06
0.000130917
2.0557e-07
3.30423e-06
0.000130671
-2.83659e-06
-1.22171e-06
-1.15208e-05
-1.33327e-06
0.00011859
-7.96251e-06
2.54436e-06
0.000118671
-5.55322e-06
1.06424e-05
0.00011795
2.20071e-06
5.88061e-06
0.000117661
-3.84617e-06
-2.93114e-06
0.00011772
-1.46118e-05
-3.39664e-06
0.000118923
-9.37071e-06
3.39399e-06
0.000119165
-3.09291e-06
9.77261e-06
0.000118639
8.50105e-07
4.47371e-06
0.000117641
-5.34518e-06
-3.13174e-06
0.000117256
-1.53183e-05
-3.78871e-06
0.000118681
-8.46753e-06
1.72548e-06
0.000119514
-3.07218e-06
9.7407e-06
0.000118771
1.0891e-06
6.08343e-06
0.000117981
-3.6506e-06
-3.2416e-06
0.000118057
-1.32125e-05
-4.00959e-06
0.000119435
-2.879e-06
2.78529e-06
0.00011951
-2.12545e-06
9.76378e-06
0.000118486
-1.89263e-07
4.46164e-06
0.000118079
-4.71372e-06
-3.89787e-06
0.00011806
-1.30799e-05
-3.42506e-06
0.000119292
-4.29584e-06
2.46065e-06
0.000119155
2.25631e-07
8.81677e-06
0.000118087
2.3404e-06
5.1439e-06
0.000117681
-6.22106e-06
-2.67224e-06
0.000117865
-1.11983e-05
-3.53641e-06
0.000118871
-7.59323e-06
2.33284e-06
0.000118888
-5.70523e-06
9.67979e-06
0.000118083
-3.53547e-06
5.21795e-06
0.000117877
-3.06984e-06
-2.51389e-06
0.000118101
-9.77546e-06
-3.19252e-06
0.000119075
-6.16714e-06
2.22192e-06
0.000119258
-7.8118e-06
9.34711e-06
0.000118345
-3.19318e-06
5.54385e-06
0.00011784
-4.73041e-06
-2.69187e-06
0.000118123
-1.28073e-05
-3.89637e-06
0.000119209
-7.85557e-06
3.35119e-06
0.000119303
-4.51117e-06
9.65763e-06
0.000118363
1.11589e-06
4.49992e-06
0.000117558
-4.187e-06
-3.46713e-06
-1.59046e-05
-3.78581e-06
0.00010398
-1.11211e-05
6.14276e-06
0.00010352
-6.30135e-06
1.53809e-05
0.000104078
1.96321e-06
5.22821e-06
0.000104017
-6.46333e-06
-6.94336e-06
0.000103322
-1.86561e-05
-5.21804e-06
0.00010439
-1.23301e-05
6.97907e-06
0.000104595
-3.76794e-06
1.4046e-05
0.000105182
7.88285e-07
3.72679e-06
0.000103946
-7.11811e-06
-6.78377e-06
0.000102934
-1.8926e-05
-6.18576e-06
0.000104519
-1.16026e-05
4.78358e-06
0.000104997
-4.27879e-06
1.49341e-05
0.000105131
1.24436e-06
5.95798e-06
0.00010446
-5.71184e-06
-7.44267e-06
0.000104244
-1.71488e-05
-6.34289e-06
0.000105686
-6.25356e-06
6.17879e-06
0.000105152
-3.36089e-06
1.42755e-05
0.000104944
3.89001e-08
3.49886e-06
0.000104509
-6.6763e-06
-7.98727e-06
0.000103928
-1.66716e-05
-5.59737e-06
0.000105369
-6.8138e-06
5.50093e-06
0.000105016
-7.62104e-08
1.33194e-05
0.000104467
2.30275e-06
4.98849e-06
0.000104096
-8.32673e-06
-6.54575e-06
0.000103946
-1.48217e-05
-5.83846e-06
0.000104779
-1.08262e-05
5.38804e-06
0.000104229
-6.72561e-06
1.40859e-05
0.000104195
-3.07583e-06
4.45644e-06
0.000104399
-4.99413e-06
-6.32738e-06
0.000104486
-1.4033e-05
-5.94977e-06
0.000105342
-1.0136e-05
4.86875e-06
0.000104783
-8.99978e-06
1.36499e-05
0.000104488
-2.6829e-06
4.95673e-06
0.000104246
-7.09431e-06
-7.06009e-06
0.000104212
-1.70361e-05
-6.19913e-06
0.000105081
-1.10379e-05
6.70086e-06
0.000104956
-5.18116e-06
1.38065e-05
0.000105151
1.29512e-06
3.47007e-06
0.000104033
-6.47932e-06
-7.20117e-06
-1.97158e-05
-5.76529e-06
8.85499e-05
-1.18345e-05
1.06548e-05
8.83264e-05
-6.90748e-06
1.6738e-05
9.08945e-05
-7.00433e-07
5.87906e-07
9.05922e-05
-9.02636e-06
-1.14427e-05
8.86255e-05
-1.98167e-05
-4.68159e-06
8.9105e-05
-1.28604e-05
1.13077e-05
8.98429e-05
-4.63104e-06
1.51643e-05
9.20777e-05
-1.28775e-06
-5.34233e-07
9.0472e-05
-8.80725e-06
-1.09289e-05
8.8581e-05