/*--------------------------------*- C++ -*----------------------------------*\
  =========                 |
  \\      /  F ield         | OpenFOAM: The Open Source CFD Toolbox
   \\    /   O peration     | Website:  https://openfoam.org
    \\  /    A nd           | Version:  10
     \\/     M anipulation  |
\*---------------------------------------------------------------------------*/
FoamFile
{
    format      ascii;
    class       volScalarField;
    location    "10";
    object      pMean;
}
// * * * * * * * * * * * * * * * * * * * * * * * * * * * * * * * * * * * * * //

dimensions      [0 2 -2 0 0 0 0];

internalField   nonuniform List<scalar> 
25600
(
2.30732e-05
1.46155e-05
4.15947e-06
9.52915e-06
2.46806e-06
3.27692e-06
1.33437e-06
-7.85681e-06
-4.86876e-07
5.51501e-07
-2.58281e-06
-2.68408e-06
1.1606e-06
2.30453e-06
1.22993e-06
9.55198e-06
1.25236e-05
1.27642e-05
2.13693e-05
2.51235e-05
2.24958e-05
3.06947e-05
3.06307e-05
2.77202e-05
3.26482e-05
3.11012e-05
4.12669e-05
4.14483e-05
3.43695e-05
3.98238e-05
3.87173e-05
3.74451e-05
3.92325e-05
3.87941e-05
3.42504e-05
3.53672e-05
3.55711e-05
3.12616e-05
2.85018e-05
2.11961e-05
2.43718e-05
1.75228e-05
6.75469e-06
1.08917e-05
3.0616e-06
2.33498e-06
2.1169e-06
-4.35577e-06
-2.62592e-06
-8.3541e-07
-6.87856e-07
-6.04772e-06
9.04986e-07
2.95353e-06
-4.78762e-07
9.80395e-06
1.24375e-05
1.26613e-05
2.25948e-05
2.48874e-05
2.48363e-05
3.14206e-05
2.79495e-05
3.19799e-05
3.29424e-05
3.20863e-05
4.17193e-05
3.88824e-05
3.79012e-05
3.64967e-05
3.48788e-05
3.62321e-05
3.62913e-05
3.86476e-05
3.33256e-05
3.38888e-05
3.59086e-05
3.40557e-05
3.25722e-05
2.33247e-05
2.59756e-05
1.77281e-05
1.10718e-05
1.10332e-05
3.91067e-06
2.79851e-06
9.19231e-07
-1.22704e-06
-5.56348e-06
-2.92664e-06
-6.08768e-07
-7.38706e-06
5.61175e-07
3.28904e-06
4.94605e-07
8.39832e-06
1.41277e-05
1.27122e-05
2.19687e-05
2.46417e-05
2.67638e-05
3.21806e-05
2.67335e-05
3.63169e-05
3.43748e-05
3.57253e-05
4.06117e-05
3.65978e-05
4.08319e-05
3.07256e-05
3.13197e-05
3.70017e-05
3.38486e-05
3.59764e-05
3.47529e-05
3.28413e-05
3.47869e-05
3.92261e-05
3.52296e-05
2.62643e-05
2.63473e-05
1.77987e-05
1.47267e-05
8.3127e-06
5.83975e-06
3.61175e-06
-1.20393e-06
1.23042e-06
-7.96686e-06
-4.98402e-06
-1.89712e-06
-7.00683e-06
-1.45731e-06
3.11142e-06
8.06093e-07
7.12604e-06
1.75782e-05
1.40951e-05
2.30047e-05
2.42088e-05
3.01099e-05
3.21429e-05
2.68324e-05
3.91424e-05
3.38894e-05
3.92872e-05
3.83432e-05
3.54701e-05
4.02238e-05
2.49809e-05
3.05408e-05
3.99347e-05
2.97263e-05
3.23477e-05
3.72628e-05
3.02099e-05
3.77338e-05
4.52969e-05
3.61545e-05
3.06593e-05
2.68937e-05
1.92602e-05
1.59932e-05
4.52289e-06
9.02905e-06
4.59049e-06
-3.30098e-06
1.24934e-06
-9.70615e-06
-8.27579e-06
-4.59011e-06
-5.54087e-06
-3.74199e-06
3.14473e-06
1.75301e-06
8.51365e-06
1.96707e-05
1.5941e-05
2.26435e-05
2.37988e-05
3.46119e-05
2.92661e-05
2.91829e-05
4.05034e-05
3.30362e-05
4.34965e-05
3.72553e-05
3.4739e-05
3.68318e-05
2.10978e-05
3.20543e-05
4.06958e-05
2.31991e-05
3.05605e-05
3.64633e-05
2.82191e-05
4.51789e-05
4.89279e-05
3.8061e-05
3.60291e-05
2.80606e-05
2.05018e-05
1.44815e-05
5.20384e-07
1.27275e-05
5.7467e-06
-5.10663e-06
-4.06338e-07
-1.08267e-05
-1.29905e-05
-6.69598e-06
-3.59751e-06
-6.59914e-06
2.00908e-06
3.52055e-06
1.14358e-05
2.06017e-05
1.86554e-05
2.10851e-05
2.68482e-05
3.91132e-05
2.61679e-05
3.38359e-05
3.96967e-05
3.29499e-05
4.71375e-05
3.71106e-05
3.27326e-05
3.20059e-05
1.91898e-05
3.38559e-05
3.62395e-05
1.6445e-05
2.90557e-05
3.08298e-05
3.0709e-05
5.36558e-05
5.15728e-05
4.24275e-05
4.13115e-05
2.90738e-05
2.03394e-05
1.00104e-05
-3.18466e-06
1.66429e-05
6.28506e-06
-7.40805e-06
-3.11962e-06
-1.32875e-05
-1.93688e-05
-7.95922e-06
-1.92801e-06
-9.22912e-06
1.02527e-06
7.40038e-06
1.53646e-05
2.16117e-05
2.09678e-05
1.99591e-05
3.25963e-05
4.10964e-05
2.39878e-05
3.76341e-05
3.74545e-05
3.41952e-05
5.02712e-05
3.65276e-05
2.85017e-05
2.62515e-05
1.87966e-05
3.34987e-05
2.84128e-05
1.2135e-05
2.47497e-05
2.46259e-05
3.7081e-05
6.12851e-05
5.54807e-05
4.84625e-05
4.66384e-05
2.80242e-05
1.74978e-05
2.24623e-06
-5.77058e-06
2.05825e-05
6.30055e-06
-9.85167e-06
-6.99905e-06
-1.85947e-05
-2.59068e-05
-8.5897e-06
-1.28483e-06
-1.16899e-05
9.46776e-07
1.41356e-05
2.0274e-05
2.26063e-05
2.24018e-05
2.14599e-05
3.85713e-05
4.04243e-05
2.27567e-05
3.8706e-05
3.51816e-05
3.57947e-05
5.3327e-05
3.58466e-05
2.3833e-05
2.07811e-05
1.81579e-05
2.90464e-05
1.89672e-05
8.49879e-06
1.75717e-05
2.03778e-05
4.35452e-05
6.73304e-05
6.14453e-05
5.5451e-05
5.04423e-05
2.44064e-05
1.0713e-05
-8.25645e-06
-7.20378e-06
2.24782e-05
4.94291e-06
-1.2067e-05
-1.28748e-05
-2.62506e-05
-3.14889e-05
-1.0049e-05
-2.84738e-06
-1.38351e-05
2.9183e-06
2.24135e-05
2.47688e-05
2.22716e-05
2.26618e-05
2.46476e-05
4.21849e-05
3.78688e-05
2.14503e-05
3.79498e-05
3.22227e-05
3.64765e-05
5.55908e-05
3.56204e-05
1.84516e-05
1.55438e-05
1.58825e-05
2.06527e-05
8.98243e-06
2.00475e-06
1.04131e-05
1.86612e-05
4.82163e-05
7.1903e-05
6.84854e-05
6.22798e-05
5.19418e-05
1.81676e-05
-5.68846e-07
-2.02611e-05
-7.67429e-06
2.26965e-05
3.38514e-06
-1.46659e-05
-2.12743e-05
-3.46681e-05
-3.66436e-05
-1.4123e-05
-7.3998e-06
-1.43885e-05
8.00443e-06
3.13119e-05
2.8198e-05
1.94781e-05
2.2116e-05
2.74861e-05
4.28335e-05
3.50544e-05
1.96929e-05
3.43953e-05
2.72118e-05
3.50164e-05
5.73477e-05
3.52905e-05
1.1697e-05
1.02457e-05
1.05638e-05
8.82087e-06
-3.06515e-06
-7.7375e-06
4.83814e-06
1.68598e-05
4.98211e-05
7.56409e-05
7.59701e-05
6.68065e-05
5.08641e-05
6.70994e-06
-1.89278e-05
-3.56951e-05
-1.15148e-05
1.9232e-05
8.79088e-07
-2.00068e-05
-3.32863e-05
-4.49428e-05
-4.51632e-05
-2.43297e-05
-1.52447e-05
-1.33481e-05
1.44662e-05
3.75579e-05
2.78434e-05
1.30325e-05
2.00888e-05
2.82112e-05
3.96908e-05
3.08581e-05
1.6521e-05
2.69922e-05
1.90373e-05
3.06148e-05
5.81486e-05
3.2402e-05
2.28229e-06
3.16676e-06
7.23404e-07
-5.57359e-06
-1.92094e-05
-2.20064e-05
-4.80819e-07
1.32003e-05
4.64652e-05
7.73567e-05
8.11056e-05
6.67355e-05
4.60241e-05
-1.00165e-05
-4.25845e-05
-5.44354e-05
-2.08394e-05
1.29713e-05
-2.67387e-06
-2.9814e-05
-4.89194e-05
-5.84181e-05
-6.10191e-05
-4.11483e-05
-2.4239e-05
-1.1496e-05
1.82595e-05
3.75667e-05
2.01027e-05
-4.01057e-07
1.46411e-05
2.60618e-05
3.23462e-05
2.15539e-05
6.99847e-06
1.39411e-05
6.80364e-06
2.3855e-05
5.70156e-05
2.35128e-05
-1.15926e-05
-7.2377e-06
-1.35431e-05
-2.39457e-05
-4.10889e-05
-3.91224e-05
-5.56671e-06
5.87763e-06
3.74808e-05
7.61849e-05
8.21251e-05
6.27884e-05
3.9298e-05
-4.12072e-05
-7.68569e-05
-8.18798e-05
-4.31793e-05
-3.07436e-06
-1.18859e-05
-4.56615e-05
-7.20941e-05
-8.25616e-05
-8.92541e-05
-6.62822e-05
-3.5982e-05
-1.37928e-05
1.49029e-05
2.5889e-05
1.09503e-07
-2.31047e-05
3.26055e-06
1.53641e-05
1.58309e-05
4.22439e-06
-1.22862e-05
-1.0355e-05
-1.62916e-05
1.16557e-05
5.02599e-05
4.52597e-06
-3.3895e-05
-2.64243e-05
-3.64779e-05
-5.38217e-05
-7.56984e-05
-6.39517e-05
-1.72288e-05
-1.25956e-05
1.5166e-05
6.5328e-05
7.16589e-05
4.90257e-05
2.10291e-05
-9.31611e-05
-0.000127352
-0.000124966
-8.36032e-05
-3.5414e-05
-3.38947e-05
-7.3904e-05
-0.000109671
-0.000129211
-0.000140004
-0.000105824
-5.81282e-05
-2.96983e-05
-5.39894e-06
-6.11581e-06
-4.34576e-05
-6.59971e-05
-2.57223e-05
-1.62244e-05
-2.19542e-05
-2.92956e-05
-4.52991e-05
-4.79428e-05
-5.13945e-05
-7.53164e-06
3.25363e-05
-2.84579e-05
-6.67964e-05
-5.5219e-05
-7.20478e-05
-0.000101374
-0.000124445
-9.58428e-05
-3.46206e-05
-4.10775e-05
-1.94747e-05
4.57342e-05
5.20951e-05
2.54871e-05
-1.31461e-05
-0.000183877
-0.000210757
-0.00020692
-0.000164959
-9.88295e-05
-8.12285e-05
-0.000122947
-0.000173517
-0.000210897
-0.000224921
-0.000174949
-0.000115393
-8.15839e-05
-6.10001e-05
-7.47995e-05
-0.000122801
-0.000142
-9.25815e-05
-9.53161e-05
-0.000103282
-9.86084e-05
-0.000114116
-0.000122174
-0.000114943
-5.18697e-05
-1.63742e-05
-9.28707e-05
-0.000132529
-0.000116432
-0.000140219
-0.000184627
-0.000205486
-0.000158001
-8.37346e-05
-0.000102903
-9.08884e-05
-5.61499e-06
4.03768e-06
-2.6777e-05
-8.54685e-05
-0.000338532
-0.00035253
-0.000350837
-0.000309202
-0.000216129
-0.000177085
-0.000227063
-0.000290593
-0.00034194
-0.000352369
-0.000283501
-0.000228422
-0.000201549
-0.000189797
-0.000223606
-0.000276098
-0.000277397
-0.000219317
-0.000239692
-0.000242071
-0.000218067
-0.000233183
-0.000238748
-0.000216341
-0.00013439
-0.000103075
-0.000193317
-0.000231848
-0.000214335
-0.000252607
-0.000306947
-0.000313718
-0.00024384
-0.000154956
-0.000195469
-0.00020075
-9.6351e-05
-8.71742e-05
-0.000129936
-0.000219006
-0.000559755
-0.000560491
-0.00057537
-0.000526913
-0.000389605
-0.000318486
-0.000367455
-0.000452138
-0.000526757
-0.000528633
-0.000442647
-0.000400704
-0.000386112
-0.000400611
-0.00047597
-0.0005251
-0.000497379
-0.000428799
-0.00046159
-0.000441491
-0.000392523
-0.00040991
-0.000405009
-0.000358073
-0.000262258
-0.000237586
-0.00034129
-0.000384012
-0.000378351
-0.000447593
-0.000509117
-0.000484435
-0.000385244
-0.000278888
-0.000349148
-0.000367776
-0.000244344
-0.000243036
-0.000299718
-0.000424279
-0.000805771
-0.000793375
-0.000834359
-0.000761246
-0.000559506
-0.000465585
-0.000513804
-0.000608703
-0.000715029
-0.000710406
-0.000629191
-0.00059951
-0.000578593
-0.000633828
-0.00077649
-0.000827303
-0.000763564
-0.000686442
-0.000710422
-0.00063603
-0.000552975
-0.00058221
-0.000582867
-0.000517764
-0.000410454
-0.00039343
-0.000521952
-0.000586596
-0.000612321
-0.000724889
-0.000783886
-0.000701678
-0.000565582
-0.000465548
-0.000584193
-0.000599951
-0.000456776
-0.0004666
-0.000541744
-0.000683308
-0.000994959
-0.000967329
-0.00104485
-0.000931605
-0.00065425
-0.000543375
-0.000606148
-0.000718818
-0.00087131
-0.00091007
-0.000881421
-0.000876049
-0.000841756
-0.000930282
-0.00113356
-0.00117606
-0.00109461
-0.00103654
-0.00101076
-0.000827933
-0.00069943
-0.000723791
-0.000695813
-0.000595012
-0.000521407
-0.000537324
-0.00070363
-0.000804711
-0.000896
-0.00106883
-0.00111915
-0.000951704
-0.00075808
-0.00067946
-0.000846972
-0.000861981
-0.00070124
-0.000713461
-0.000780076
-0.000916674
-0.00109423
-0.00107399
-0.00118343
-0.00104543
-0.000724498
-0.000596171
-0.000670881
-0.000831458
-0.00103063
-0.00111284
-0.00116412
-0.00119776
-0.00117535
-0.00131162
-0.00151153
-0.00150177
-0.00141644
-0.00137961
-0.00126624
-0.000945453
-0.000783692
-0.000795333
-0.000693994
-0.000518543
-0.000469971
-0.000529527
-0.000756025
-0.000907283
-0.00108192
-0.00132403
-0.00132978
-0.0010698
-0.000868331
-0.000841286
-0.00106544
-0.00107591
-0.000903311
-0.000916635
-0.000949678
-0.00103072
-0.00108195
-0.00109846
-0.00122904
-0.00112791
-0.000819413
-0.000691891
-0.00075164
-0.0009675
-0.00119535
-0.00125438
-0.00131765
-0.00134079
-0.00132281
-0.00151745
-0.00169637
-0.00161435
-0.0015425
-0.00153022
-0.00131715
-0.000924303
-0.000778485
-0.000795194
-0.000650646
-0.000433948
-0.000377062
-0.000439043
-0.00070791
-0.000900055
-0.00110912
-0.00140094
-0.00135736
-0.00103133
-0.000872787
-0.000950577
-0.00120072
-0.00113049
-0.000876943
-0.000840402
-0.000847562
-0.000944604
-0.00107887
-0.00104707
-0.00115907
-0.00109721
-0.000805644
-0.000646107
-0.00068491
-0.000947606
-0.00118078
-0.00119177
-0.00119625
-0.00114902
-0.0010842
-0.00130101
-0.00141554
-0.00129424
-0.00133144
-0.00138111
-0.0011506
-0.000845199
-0.000809434
-0.000869648
-0.000721146
-0.000507435
-0.000411469
-0.00042769
-0.000667567
-0.000872563
-0.00111033
-0.00142458
-0.00134762
-0.000999419
-0.000898327
-0.00103771
-0.00122392
-0.00103162
-0.000697263
-0.000673577
-0.000696742
-0.000873053
-0.00113724
-0.00104611
-0.0011342
-0.00102145
-0.000675547
-0.000482148
-0.000511524
-0.000828234
-0.00107656
-0.00105204
-0.000985607
-0.000871036
-0.000734206
-0.000910229
-0.000960292
-0.000848402
-0.000972816
-0.00105651
-0.000857225
-0.000699075
-0.000799758
-0.000886641
-0.000691546
-0.00047053
-0.00038266
-0.000385813
-0.00059787
-0.000776642
-0.0010128
-0.00132879
-0.00125944
-0.00095648
-0.000884398
-0.000966409
-0.00104432
-0.000796676
-0.000468184
-0.000494859
-0.000590727
-0.000892707
-0.0010883
-0.00103783
-0.00113797
-0.000931365
-0.000466608
-0.000272202
-0.000357081
-0.000687688
-0.000905516
-0.000825226
-0.000772034
-0.00068605
-0.000518442
-0.000649214
-0.000687827
-0.000635056
-0.000708734
-0.000671052
-0.000502098
-0.000486894
-0.000669846
-0.000731501
-0.00049609
-0.000272002
-0.000216249
-0.000258544
-0.000468422
-0.000620378
-0.000808898
-0.00108607
-0.00108039
-0.000897521
-0.000843083
-0.000796348
-0.000776097
-0.000544799
-0.000262958
-0.000271828
-0.000395337
-0.000789188
-0.000946732
-0.000966843
-0.00105476
-0.000757113
-0.000208467
-6.47767e-05
-0.000218431
-0.000512107
-0.00066374
-0.000541909
-0.000559076
-0.00049227
-0.000278344
-0.000388184
-0.000493611
-0.000511967
-0.000540345
-0.000414224
-0.000227102
-0.000296076
-0.000497734
-0.000524745
-0.000283281
-6.28465e-05
-4.08811e-05
-0.00013697
-0.000383004
-0.000518838
-0.000634688
-0.000831689
-0.000893834
-0.000817322
-0.000747909
-0.000615197
-0.000598333
-0.000446207
-0.000178744
-0.000104953
-0.000205061
-0.000608847
-0.000785038
-0.000832901
-0.000915127
-0.000574245
-7.80254e-07
0.000117754
-8.38344e-05
-0.000359483
-0.000443696
-0.00029031
-0.000340458
-0.000254722
1.37299e-05
-7.90882e-05
-0.000255387
-0.000333847
-0.00036934
-0.000217363
-2.64654e-05
-0.000120662
-0.000328341
-0.000375582
-0.00013718
7.87616e-05
9.27417e-05
-4.33413e-05
-0.00031866
-0.000406393
-0.000462852
-0.000606381
-0.000717483
-0.000708495
-0.000651182
-0.000473922
-0.000494434
-0.000417809
-0.000143741
1.06956e-05
-3.80088e-05
-0.000448437
-0.000626978
-0.000675504
-0.000771644
-0.000435224
0.00014325
0.000233987
2.97823e-05
-0.000216827
-0.000261838
-7.14585e-05
-0.000125441
-5.09647e-05
0.000225185
0.00015275
-5.68463e-05
-0.000180353
-0.000211324
-7.57953e-05
0.000124534
4.1883e-05
-0.000168178
-0.000263373
-4.42503e-05
0.000194147
0.000215332
5.21715e-05
-0.000210317
-0.000243508
-0.000279587
-0.000418165
-0.000559006
-0.00057104
-0.000542722
-0.000361905
-0.000405915
-0.000385634
-0.000103583
0.000124457
0.000107737
-0.000288107
-0.000519368
-0.00056744
-0.000658087
-0.000346076
0.000225905
0.000308232
0.00012412
-0.000112385
-0.000148788
6.33558e-05
1.23673e-05
7.1751e-05
0.000356118
0.000278454
5.83052e-05
-7.24523e-05
-0.000123723
3.3232e-06
0.000207068
0.000127046
-9.28852e-05
-0.000190609
1.35589e-05
0.000259241
0.000286412
0.000150567
-8.93957e-05
-9.79611e-05
-0.000107521
-0.000239782
-0.000423072
-0.000449519
-0.000429744
-0.000258979
-0.000332002
-0.000344838
-6.44414e-05
0.000207896
0.000209286
-0.000176303
-0.000442698
-0.000510782
-0.000587692
-0.000295957
0.000268496
0.000365552
0.000181008
-6.27127e-05
-0.00011114
0.000115461
8.47688e-05
0.000136784
0.000417328
0.000332846
0.000100811
-2.55904e-05
-7.04959e-05
5.09674e-05
0.000234443
0.000165879
-1.71854e-05
-0.000146746
3.92282e-05
0.00027835
0.000318039
0.000219958
-9.24994e-06
-1.84341e-05
-1.06041e-05
-0.000128972
-0.000304894
-0.000342423
-0.000340745
-0.000185109
-0.000280222
-0.000309324
-1.78131e-05
0.000257887
0.000242671
-0.000116708
-0.000397864
-0.000474453
-0.000554236
-0.000267941
0.000291905
0.000390644
0.000205362
-4.91697e-05
-0.000110989
0.000124484
0.000114795
0.000171114
0.000445011
0.000347599
0.000116428
2.18107e-06
-4.05105e-05
8.01804e-05
0.000250165
0.000185686
9.45569e-06
-0.000123249
4.93271e-05
0.000278122
0.000329782
0.000253043
2.13486e-05
1.36554e-05
2.43696e-05
-9.03655e-05
-0.000253463
-0.000289972
-0.000302866
-0.000159837
-0.000259108
-0.000287741
8.58009e-06
0.00028081
0.00025401
-8.87671e-05
-0.000384285
-0.000467697
-0.000544165
-0.000260009
0.000301169
0.000399347
0.000208133
-5.00325e-05
-0.000111963
0.000127705
0.000127324
0.000187507
0.000448961
0.000344076
0.000116856
1.17335e-05
-2.50791e-05
8.8654e-05
0.000243515
0.000187004
2.90555e-05
-0.000112925
4.72393e-05
0.000272157
0.000332474
0.000260189
2.73672e-05
1.77234e-05
2.85176e-05
-8.13773e-05
-0.000238232
-0.000279216
-0.000300379
-0.000160654
-0.000254274
-0.000273476
1.86304e-05
0.000280792
0.000253118
-8.05386e-05
-0.000382598
-0.00046684
-0.000545227
-0.000259584
0.000301246
0.000400383
0.000208056
-5.2616e-05
-0.000114991
0.000127778
0.000130012
0.000188013
0.000445052
0.000339053
0.000117477
1.56564e-05
-2.32905e-05
8.59931e-05
0.000241563
0.000190434
3.08245e-05
-0.000114057
4.57624e-05
0.000270788
0.000334409
0.000261482
2.70229e-05
1.62292e-05
2.36164e-05
-8.41956e-05
-0.000240603
-0.000281833
-0.000306109
-0.000167375
-0.000257453
-0.000273775
1.76891e-05
0.000278568
0.000249788
-8.08234e-05
2.41151e-05
1.19487e-05
3.11497e-06
9.55378e-06
-3.78333e-07
1.06334e-06
-1.69561e-07
-8.70283e-06
-2.17381e-06
-1.12142e-06
-2.47024e-06
-3.47793e-06
6.6473e-07
2.01939e-06
8.62407e-07
1.01769e-05
1.3757e-05
1.33255e-05
2.09284e-05
2.52632e-05
2.23265e-05
2.97011e-05
2.88101e-05
2.69292e-05
3.26331e-05
2.88361e-05
4.02063e-05
4.14584e-05
3.23926e-05
3.82653e-05
3.72011e-05
3.66904e-05
3.97263e-05
3.70165e-05
3.41078e-05
3.61426e-05
3.49119e-05
3.23179e-05
2.76475e-05
2.08932e-05
2.33201e-05
1.3687e-05
4.51904e-06
9.18699e-06
-5.60379e-07
-1.60723e-07
4.3424e-07
-5.89448e-06
-4.45465e-06
-1.55592e-06
-1.43978e-06
-7.23293e-06
9.57275e-07
1.94444e-06
5.71898e-08
1.14694e-05
1.35053e-05
1.29658e-05
2.10223e-05
2.38477e-05
2.34319e-05
2.86901e-05
2.53712e-05
3.13137e-05
3.26866e-05
3.00564e-05
4.12781e-05
3.94539e-05
3.59272e-05
3.46932e-05
3.41251e-05
3.55196e-05
3.62104e-05
3.71251e-05
3.29995e-05
3.45921e-05
3.50394e-05
3.47012e-05
3.24242e-05
2.25016e-05
2.25686e-05
1.32328e-05
7.77634e-06
7.09008e-06
-2.01779e-07
-4.32258e-08
-1.56892e-06
-3.45836e-06
-7.01536e-06
-2.94218e-06
-2.26229e-06
-8.18323e-06
9.8382e-07
2.16679e-06
1.67806e-06
9.49485e-06
1.45924e-05
1.1648e-05
1.9248e-05
2.28031e-05
2.34379e-05
2.80444e-05
2.38629e-05
3.5259e-05
3.30761e-05
3.43108e-05
4.0394e-05
3.71288e-05
3.88966e-05
2.81324e-05
3.09937e-05
3.65746e-05
3.315e-05
3.49791e-05
3.47718e-05
3.33168e-05
3.36926e-05
3.93051e-05
3.54315e-05
2.48042e-05
1.97898e-05
1.20298e-05
9.94407e-06
1.99235e-06
1.88141e-06
5.2373e-07
-4.56806e-06
-8.52558e-07
-8.35579e-06
-4.5773e-06
-3.3579e-06
-6.83625e-06
-1.50844e-06
2.37933e-06
1.84639e-06
6.94954e-06
1.67406e-05
1.02798e-05
1.94811e-05
2.11381e-05
2.44042e-05
2.6623e-05
2.34554e-05
3.73882e-05
3.23614e-05
3.91127e-05
3.89522e-05
3.62788e-05
3.88709e-05
2.20722e-05
3.00774e-05
3.98581e-05
2.91378e-05
3.24154e-05
3.84583e-05
3.01246e-05
3.60338e-05
4.45912e-05
3.55447e-05
2.79378e-05
1.66065e-05
1.18215e-05
9.8294e-06
-2.81316e-06
5.36824e-06
8.37319e-07
-6.06998e-06
9.81152e-07
-9.27053e-06
-8.08107e-06
-4.58762e-06
-4.62315e-06
-5.12209e-06
2.96994e-06
1.48523e-06
6.13127e-06
1.68193e-05
8.84951e-06
1.78187e-05
1.81466e-05
2.58628e-05
2.28475e-05
2.54473e-05
3.90793e-05
3.30112e-05
4.55864e-05
3.94227e-05
3.56919e-05
3.60302e-05
1.84568e-05
3.16307e-05
4.14582e-05
2.33183e-05
3.18794e-05
3.82088e-05
2.68297e-05
4.23917e-05
4.61946e-05
3.46468e-05
3.04308e-05
1.45224e-05
1.15511e-05
7.49033e-06
-6.19824e-06
9.05707e-06
2.11368e-06
-5.14334e-06
2.21572e-06
-9.81666e-06
-1.33186e-05
-4.92989e-06
-2.20512e-06
-8.64964e-06
3.16875e-06
1.40575e-06
6.74816e-06
1.4446e-05
8.2304e-06
1.37249e-05
1.62976e-05
2.60017e-05
1.76522e-05
3.00151e-05
4.06791e-05
3.62559e-05
5.27635e-05
4.19289e-05
3.44746e-05
3.22356e-05
1.72186e-05
3.36518e-05
3.78333e-05
1.78818e-05
3.18312e-05
3.19414e-05
2.70213e-05
4.88101e-05
4.49138e-05
3.45414e-05
3.18991e-05
1.33821e-05
1.04021e-05
4.11815e-06
-7.73526e-06
1.25154e-05
4.24181e-06
-2.93081e-06
2.81569e-06
-1.15082e-05
-1.87732e-05
-3.75414e-06
4.30392e-08
-1.12561e-05
2.59258e-06
1.97003e-06
6.94204e-06
1.01529e-05
5.60113e-06
7.81685e-06
1.57736e-05
2.42985e-05
1.44427e-05
3.6031e-05
4.33462e-05
4.17873e-05
5.96321e-05
4.4351e-05
3.21968e-05
2.83015e-05
1.78518e-05
3.2812e-05
2.90807e-05
1.4769e-05
2.88647e-05
2.38496e-05
2.98728e-05
5.26407e-05
4.33006e-05
3.46647e-05
3.30001e-05
1.33274e-05
9.29958e-06
3.9557e-07
-7.52852e-06
1.64201e-05
7.41516e-06
2.89982e-07
2.3916e-06
-1.49282e-05
-2.25534e-05
-1.30323e-06
2.45839e-06
-1.33453e-05
6.22906e-07
2.14903e-06
5.3871e-06
3.99309e-06
7.59862e-07
4.0827e-06
1.5759e-05
2.09174e-05
1.40601e-05
4.24058e-05
4.81757e-05
4.83318e-05
6.58794e-05
4.5912e-05
3.00316e-05
2.51252e-05
1.88361e-05
2.77113e-05
1.75539e-05
1.08696e-05
2.08183e-05
1.66841e-05
3.22277e-05
5.48381e-05
4.32414e-05
3.57389e-05
3.44041e-05
1.30403e-05
6.48463e-06
-4.26874e-06
-6.39579e-06
2.08509e-05
1.20123e-05
4.62695e-06
-2.25112e-07
-2.03545e-05
-2.59745e-05
1.78139e-06
4.57165e-06
-1.5613e-05
-1.84303e-06
8.58367e-07
1.05215e-06
-5.62073e-06
-5.28173e-06
2.43117e-06
1.42584e-05
1.78194e-05
1.56305e-05
4.91472e-05
5.40968e-05
5.50549e-05
7.13351e-05
4.7243e-05
2.73789e-05
2.12411e-05
1.6713e-05
1.78537e-05
5.58912e-06
3.16621e-06
1.01648e-05
9.50058e-06
3.15725e-05
5.57123e-05
4.39656e-05
3.67071e-05
3.56148e-05
1.26709e-05
2.24477e-06
-9.27582e-06
-4.32481e-06
2.57665e-05
1.7539e-05
8.25423e-06
-5.1792e-06
-2.66512e-05
-2.88193e-05
5.30078e-06
5.19575e-06
-1.90071e-05
-5.3899e-06
-3.66093e-06
-6.24506e-06
-1.75267e-05
-1.00524e-05
2.08831e-06
1.07848e-05
1.45475e-05
1.76834e-05
5.63494e-05
5.98779e-05
6.14352e-05
7.62961e-05
4.87529e-05
2.39741e-05
1.58016e-05
9.35942e-06
4.27968e-06
-7.9191e-06
-9.07093e-06
-1.47493e-06
5.63368e-07
2.67455e-05
5.62164e-05
4.72405e-05
3.88667e-05
3.7652e-05
9.37469e-06
-5.96144e-06
-1.52212e-05
-2.05629e-06
2.97865e-05
2.21621e-05
9.60103e-06
-1.25769e-05
-3.53784e-05
-3.28638e-05
8.09476e-06
3.12957e-06
-2.35525e-05
-1.20923e-05
-1.36103e-05
-1.7909e-05
-3.369e-05
-1.57755e-05
-1.04027e-06
4.03711e-06
1.06366e-05
1.90987e-05
6.20978e-05
6.25516e-05
6.55379e-05
8.05757e-05
4.93427e-05
1.8053e-05
5.82816e-06
-6.2785e-06
-1.42384e-05
-2.61334e-05
-2.64619e-05
-1.52074e-05
-1.33327e-05
1.53936e-05
5.47668e-05
5.06023e-05
4.07757e-05
3.85816e-05
2.02068e-06
-1.86016e-05
-2.34313e-05
-1.01409e-06
3.13022e-05
2.42626e-05
7.51853e-06
-2.26284e-05
-4.73833e-05
-3.97964e-05
7.24084e-06
-3.1672e-06
-3.13147e-05
-2.51249e-05
-2.98706e-05
-3.37274e-05
-5.14442e-05
-2.31048e-05
-9.23929e-06
-7.7229e-06
3.23721e-06
1.86443e-05
6.45847e-05
6.14445e-05
6.79903e-05
8.53197e-05
4.71196e-05
7.42321e-06
-1.22695e-05
-3.01473e-05
-3.5796e-05
-4.96187e-05
-4.71841e-05
-3.29591e-05
-3.19404e-05
7.66098e-08
5.40617e-05
5.58136e-05
4.2842e-05
3.73699e-05
-1.24647e-05
-3.85022e-05
-3.69132e-05
-5.07691e-06
2.69192e-05
1.99222e-05
-3.71754e-06
-4.07357e-05
-6.50529e-05
-5.18595e-05
2.71124e-07
-1.59025e-05
-4.51111e-05
-4.91645e-05
-5.5176e-05
-5.80243e-05
-7.60985e-05
-3.86557e-05
-2.74853e-05
-2.62051e-05
-1.0824e-05
1.12844e-05
5.77e-05
5.10248e-05
6.45151e-05
8.41946e-05
3.64394e-05
-1.47346e-05
-4.4928e-05
-6.33656e-05
-6.49542e-05
-8.31151e-05
-7.56773e-05
-6.00747e-05
-6.17065e-05
-2.31048e-05
4.98367e-05
5.79756e-05
3.96048e-05
3.00417e-05
-3.4576e-05
-6.55796e-05
-6.02059e-05
-2.05632e-05
1.17077e-05
6.28496e-06
-2.77761e-05
-7.34332e-05
-9.46578e-05
-7.13912e-05
-1.28207e-05
-3.54171e-05
-6.78451e-05
-8.42759e-05
-8.98779e-05
-9.27231e-05
-0.000113733
-7.03732e-05
-5.7111e-05
-5.15763e-05
-3.36189e-05
-5.86004e-06
3.88797e-05
2.87688e-05
5.28127e-05
7.35434e-05
1.16507e-05
-5.18708e-05
-8.99289e-05
-0.000100543
-9.69272e-05
-0.00012283
-0.000109181
-9.48766e-05
-0.000100354
-5.13888e-05
4.16143e-05
5.61937e-05
3.13944e-05
1.46942e-05
-6.96532e-05
-0.000103616
-9.79834e-05
-5.66681e-05
-2.43363e-05
-2.65616e-05
-7.50975e-05
-0.000129466
-0.000148905
-0.000107625
-3.73374e-05
-6.51018e-05
-0.000104161
-0.000134013
-0.000138334
-0.000148123
-0.000177227
-0.000129744
-0.0001071
-9.11049e-05
-7.61869e-05
-4.85647e-05
-4.32583e-06
-1.09282e-05
2.75245e-05
4.41309e-05
-4.03998e-05
-0.000118816
-0.000156579
-0.00015014
-0.000142143
-0.000176448
-0.000155771
-0.000146952
-0.000155352
-9.31128e-05
2.16884e-05
4.18648e-05
9.78236e-06
-1.28883e-05
-0.000119497
-0.00015848
-0.000156162
-0.000119073
-8.87413e-05
-9.15595e-05
-0.000159727
-0.000222085
-0.000238751
-0.000171192
-7.93947e-05
-0.000106321
-0.000148191
-0.000185222
-0.000189198
-0.000213638
-0.000262036
-0.000213954
-0.000176853
-0.000147342
-0.000137165
-0.000112051
-7.38895e-05
-6.94217e-05
-7.69482e-06
-5.03878e-06
-0.000119796
-0.000211365
-0.000239656
-0.000209456
-0.000195651
-0.000235598
-0.000212519
-0.000212245
-0.000224382
-0.00014839
-1.05987e-05
1.4822e-05
-2.74257e-05
-5.67596e-05
-0.000187437
-0.000239123
-0.000249742
-0.000219058
-0.000184498
-0.000189581
-0.000283585
-0.0003543
-0.000370729
-0.000273109
-0.000164815
-0.000191003
-0.000225055
-0.000251883
-0.000254074
-0.000301355
-0.000361137
-0.000310492
-0.000260245
-0.000218531
-0.000217542
-0.000206254
-0.000167972
-0.000142567
-5.33562e-05
-7.30453e-05
-0.000229382
-0.00033009
-0.000347847
-0.000294864
-0.000275284
-0.000312757
-0.000295509
-0.000308299
-0.000313449
-0.000211932
-5.36095e-05
-3.38271e-05
-7.88693e-05
-0.0001103
-0.000262703
-0.000339182
-0.000369625
-0.000334481
-0.000288722
-0.000304418
-0.000426831
-0.000500395
-0.000502225
-0.000373607
-0.00025383
-0.000274742
-0.000296644
-0.000309717
-0.000320153
-0.000387881
-0.000451483
-0.000393458
-0.000322458
-0.000267791
-0.000278713
-0.000286763
-0.000244293
-0.000195905
-9.25446e-05
-0.000141309
-0.000344226
-0.000455039
-0.000447287
-0.000374166
-0.000368905
-0.000409543
-0.000401687
-0.000441847
-0.000435977
-0.000294161
-0.000114857
-9.98506e-05
-0.000134425
-0.000161726
-0.000365046
-0.000486899
-0.000517055
-0.000451829
-0.000395858
-0.00042824
-0.000577788
-0.000643318
-0.000629351
-0.000477813
-0.000372168
-0.000390417
-0.000388138
-0.000388586
-0.000413513
-0.000506056
-0.000558108
-0.000488071
-0.000379341
-0.000313817
-0.000345639
-0.000357821
-0.000291274
-0.000218865
-0.000125145
-0.000227837
-0.00046251
-0.000578372
-0.000554541
-0.000464918
-0.000483519
-0.000526811
-0.000547718
-0.000622173
-0.000616663
-0.000446539
-0.000243473
-0.000215051
-0.000229538
-0.000243347
-0.000479746
-0.000653973
-0.000650017
-0.00051871
-0.000433517
-0.000479287
-0.000666688
-0.00074418
-0.000722673
-0.000553074
-0.000475022
-0.000500183
-0.000464299
-0.000444746
-0.000516462
-0.000633419
-0.000681841
-0.000595014
-0.000442388
-0.000368515
-0.000428686
-0.000425803
-0.000314743
-0.000206323
-0.000134139
-0.000301552
-0.000585575
-0.000705061
-0.000646833
-0.000547143
-0.000607175
-0.000657789
-0.000686336
-0.000771101
-0.000775611
-0.00060093
-0.000371111
-0.000308269
-0.000298067
-0.000317018
-0.000578643
-0.000819557
-0.00072924
-0.000533356
-0.000442932
-0.00052242
-0.000728601
-0.000802488
-0.000801927
-0.000636154
-0.000578265
-0.000592379
-0.000524125
-0.000487298
-0.000616854
-0.000765391
-0.000797553
-0.000693147
-0.000494238
-0.000435404
-0.000532068
-0.000520356
-0.000386376
-0.000250277
-0.00019319
-0.000429329
-0.000757443
-0.000857385
-0.000728221
-0.000609912
-0.000704883
-0.000761643
-0.000796584
-0.000899017
-0.000915144
-0.000716872
-0.000458043
-0.000363836
-0.000330879
-0.000354357
-0.000734685
-0.00105637
-0.00086613
-0.000558306
-0.000471259
-0.000582645
-0.000772929
-0.000847139
-0.000858738
-0.000704262
-0.000677267
-0.000696241
-0.000593289
-0.0005585
-0.000758031
-0.000929702
-0.000949548
-0.000823041
-0.000569544
-0.000528488
-0.000669238
-0.000693393
-0.000565279
-0.000400114
-0.000331405
-0.000645323
-0.00100697
-0.00104204
-0.000810277
-0.000660141
-0.000768734
-0.000858709
-0.000934839
-0.00104314
-0.0010502
-0.000797508
-0.000494142
-0.000391615
-0.000355046
-0.00041609
-0.000872452
-0.0012696
-0.00103841
-0.000636289
-0.000498374
-0.000610936
-0.000789903
-0.000870204
-0.000865993
-0.000700011
-0.000698599
-0.000753544
-0.000598834
-0.000563061
-0.00083703
-0.0010283
-0.00105584
-0.000905371
-0.000605172
-0.000597658
-0.000766466
-0.000808111
-0.000698661
-0.000481204
-0.000410444
-0.000805254
-0.00118087
-0.00115367
-0.000817475
-0.000638812
-0.000766765
-0.000893756
-0.0010246
-0.00113566
-0.00110902
-0.000849322
-0.000558102
-0.000455206
-0.000376296
-0.000463548
-0.000911992
-0.00132762
-0.00106405
-0.000692055
-0.000533183
-0.00058674
-0.000762819
-0.000833681
-0.000798563
-0.000624656
-0.000658215
-0.000718902
-0.000515675
-0.000459747
-0.000780135
-0.00101652
-0.00102829
-0.000834186
-0.00051919
-0.000576723
-0.000796679
-0.00080264
-0.000662036
-0.000416163
-0.000341864
-0.000811398
-0.00121115
-0.00113246
-0.000720568
-0.000506121
-0.000663937
-0.000843335
-0.000994908
-0.00104155
-0.000986498
-0.000746861
-0.000519519
-0.000422853
-0.000329234
-0.00043261
-0.000829501
-0.00122084
-0.000881094
-0.000570224
-0.000472942
-0.000498673
-0.000682256
-0.000725947
-0.000672318
-0.000498304
-0.000575189
-0.000621322
-0.000377668
-0.000312697
-0.000640028
-0.000862128
-0.00085822
-0.000640083
-0.000321424
-0.000444291
-0.000726383
-0.000705655
-0.000514541
-0.00023471
-0.000183419
-0.000770893
-0.00117884
-0.00106537
-0.000609289
-0.000374861
-0.00056611
-0.000752567
-0.000856954
-0.000794863
-0.000705561
-0.000517267
-0.000380941
-0.000315565
-0.000209342
-0.00032368
-0.000662469
-0.000973068
-0.000589886
-0.000339803
-0.000285988
-0.000321678
-0.000527733
-0.000559738
-0.000497306
-0.000326406
-0.00042515
-0.000467472
-0.000189674
-0.000116436
-0.000458388
-0.000658812
-0.000638469
-0.000409058
-8.57887e-05
-0.000250452
-0.000583913
-0.000537881
-0.000294497
3.46339e-05
5.75999e-05
-0.000628029
-0.00101649
-0.00088449
-0.000435046
-0.000239301
-0.000463934
-0.000600961
-0.000634265
-0.000518885
-0.00042671
-0.000282835
-0.000211121
-0.000154874
-2.61991e-05
-0.000157133
-0.000488048
-0.000752687
-0.000329739
-6.81019e-05
-5.7708e-05
-0.000129914
-0.000348999
-0.000380212
-0.000294539
-0.000119163
-0.000243544
-0.000290121
-2.77789e-05
6.51391e-05
-0.000279882
-0.000498929
-0.000487695
-0.000260733
7.82713e-05
-9.59314e-05
-0.000452269
-0.000396911
-0.000125188
0.000226025
0.000228469
-0.000461549
-0.000786934
-0.000635082
-0.000226452
-8.69923e-05
-0.000324435
-0.000376608