/*--------------------------------*- C++ -*----------------------------------*\
  =========                 |
  \\      /  F ield         | OpenFOAM: The Open Source CFD Toolbox
   \\    /   O peration     | Website:  https://openfoam.org
    \\  /    A nd           | Version:  10
     \\/     M anipulation  |
\*---------------------------------------------------------------------------*/
FoamFile
{
    format      ascii;
    class       volScalarField;
    location    "10";
    object      pPrime2Mean;
}
// * * * * * * * * * * * * * * * * * * * * * * * * * * * * * * * * * * * * * //

dimensions      [0 4 -4 0 0 0 0];

internalField   nonuniform List<scalar> 
25600
(
6.4313e-10
6.92117e-10
6.97841e-10
6.74352e-10
6.21708e-10
5.58217e-10
4.68015e-10
3.77273e-10
3.02959e-10
2.16008e-10
1.57098e-10
1.26658e-10
8.23569e-11
7.29429e-11
6.82416e-11
5.03146e-11
6.26909e-11
6.40199e-11
6.74993e-11
9.62809e-11
1.23952e-10
1.62246e-10
2.25992e-10
3.02546e-10
3.77914e-10
4.47029e-10
5.17726e-10
5.7413e-10
5.8847e-10
6.10447e-10
6.39775e-10
6.43075e-10
6.71441e-10
7.10892e-10
7.40621e-10
7.77846e-10
8.25612e-10
8.95563e-10
9.91486e-10
7.97895e-10
8.56713e-10
8.22281e-10
8.14302e-10
7.87315e-10
7.26508e-10
6.49879e-10
5.32255e-10
4.1893e-10
3.23043e-10
2.06771e-10
1.39392e-10
1.11348e-10
6.28484e-11
5.2174e-11
4.98621e-11
3.5436e-11
4.03774e-11
4.14009e-11
4.98781e-11
7.87409e-11
1.18937e-10
1.70437e-10
2.54262e-10
3.5534e-10
4.49007e-10
5.3318e-10
6.02627e-10
6.48038e-10
6.43524e-10
6.38848e-10
6.43263e-10
6.34091e-10
6.62267e-10
7.05437e-10
7.54801e-10
8.00807e-10
8.58494e-10
9.23729e-10
9.13236e-10
8.8434e-10
9.89789e-10
9.45951e-10
9.47783e-10
9.30398e-10
8.7151e-10
7.72566e-10
6.25025e-10
4.80562e-10
3.38898e-10
1.91468e-10
1.1635e-10
8.26431e-11
3.51238e-11
3.06611e-11
3.37611e-11
2.39415e-11
2.6742e-11
2.73655e-11
3.84236e-11
7.01973e-11
1.15271e-10
1.82979e-10
2.89194e-10
4.11356e-10
5.35154e-10
6.41488e-10
7.10787e-10
7.35746e-10
7.01088e-10
6.58328e-10
6.24687e-10
6.10368e-10
6.38628e-10
6.88568e-10
7.64789e-10
8.26726e-10
9.14837e-10
9.94684e-10
9.81031e-10
9.93954e-10
1.10707e-09
1.07687e-09
1.10069e-09
1.10636e-09
1.05805e-09
9.31417e-10
7.52882e-10
5.57759e-10
3.50293e-10
1.75442e-10
9.2356e-11
5.16491e-11
1.88836e-11
2.99753e-11
3.68e-11
3.31605e-11
3.29352e-11
2.39154e-11
3.67405e-11
6.69755e-11
1.09262e-10
1.99091e-10
3.28589e-10
4.80455e-10
6.51836e-10
7.89765e-10
8.59713e-10
8.50769e-10
7.66225e-10
6.6857e-10
5.89604e-10
5.69478e-10
5.97141e-10
6.6091e-10
7.73915e-10
8.71563e-10
1.00462e-09
1.09626e-09
1.08629e-09
1.11538e-09
1.22074e-09
1.21408e-09
1.27108e-09
1.32245e-09
1.29516e-09
1.14255e-09
9.27219e-10
6.53333e-10
3.65758e-10
1.64848e-10
6.93904e-11
3.10079e-11
3.02186e-11
5.88517e-11
6.6812e-11
6.74869e-11
5.35364e-11
2.85509e-11
4.20332e-11
6.3597e-11
1.06779e-10
2.23943e-10
3.82226e-10
5.81347e-10
8.16386e-10
9.96431e-10
1.06597e-09
1.00375e-09
8.40272e-10
6.61316e-10
5.30406e-10
5.04005e-10
5.3484e-10
6.29313e-10
7.92747e-10
9.45714e-10
1.13368e-09
1.23304e-09
1.23075e-09
1.25068e-09
1.32602e-09
1.34586e-09
1.45688e-09
1.59017e-09
1.59924e-09
1.42728e-09
1.15842e-09
7.71201e-10
3.9254e-10
1.56479e-10
4.76916e-11
3.53146e-11
7.94596e-11
1.22347e-10
1.30129e-10
1.23714e-10
8.14309e-11
3.86049e-11
4.78048e-11
6.1307e-11
1.15089e-10
2.64292e-10
4.63479e-10
7.27951e-10
1.04195e-09
1.2803e-09
1.35194e-09
1.21151e-09
9.22521e-10
6.29263e-10
4.42262e-10
4.1084e-10
4.55699e-10
5.97985e-10
8.19907e-10
1.05276e-09
1.31096e-09
1.42593e-09
1.42543e-09
1.39621e-09
1.41054e-09
1.45579e-09
1.65772e-09
1.9234e-09
1.99187e-09
1.80929e-09
1.45873e-09
9.21498e-10
4.32409e-10
1.43411e-10
3.54696e-11
8.32038e-11
1.8039e-10
2.34215e-10
2.34794e-10
1.98613e-10
1.14185e-10
4.88477e-11
5.10884e-11
6.65159e-11
1.41929e-10
3.30888e-10
5.86845e-10
9.33054e-10
1.34404e-09
1.66638e-09
1.75347e-09
1.49626e-09
1.01038e-09
5.66187e-10
3.28872e-10
2.97971e-10
3.66724e-10
5.64405e-10
8.56834e-10
1.20527e-09
1.56227e-09
1.70855e-09
1.67896e-09
1.54407e-09
1.45615e-09
1.52342e-09
1.87013e-09
2.33866e-09
2.50295e-09
2.31467e-09
1.84455e-09
1.1165e-09
4.81963e-10
1.22972e-10
4.98994e-11
2.01817e-10
3.57968e-10
4.15218e-10
3.89154e-10
2.93548e-10
1.48209e-10
5.30369e-11
5.43116e-11
8.60998e-11
1.9531e-10
4.40528e-10
7.71643e-10
1.21396e-09
1.73712e-09
2.18539e-09
2.3192e-09
1.88753e-09
1.10355e-09
4.7203e-10
2.03384e-10
1.80993e-10
2.74689e-10
5.28863e-10
9.13345e-10
1.42331e-09
1.92377e-09
2.11775e-09
2.00375e-09
1.68926e-09
1.44129e-09
1.52572e-09
2.08904e-09
2.86374e-09
3.1715e-09
2.97448e-09
2.33976e-09
1.36859e-09
5.36381e-10
9.79628e-11
1.18024e-10
4.34357e-10
6.50406e-10
6.91373e-10
6.04953e-10
4.11014e-10
1.76225e-10
4.82365e-11
6.51702e-11
1.3054e-10
2.92692e-10
6.19473e-10
1.04601e-09
1.59215e-09
2.23224e-09
2.87001e-09
3.11373e-09
2.42864e-09
1.20326e-09
3.52298e-10
9.69336e-11
9.24196e-11
1.92594e-10
4.96824e-10
1.00362e-09
1.72876e-09
2.44365e-09
2.70399e-09
2.42492e-09
1.82757e-09
1.35062e-09
1.44662e-09
2.31078e-09
3.54032e-09
4.04828e-09
3.82533e-09
2.97174e-09
1.68792e-09
5.93398e-10
7.77689e-11
2.79744e-10
8.53738e-10
1.11225e-09
1.09441e-09
8.99105e-10
5.53999e-10
1.91029e-10
4.16217e-11
1.02895e-10
2.21588e-10
4.63255e-10
9.11528e-10
1.45317e-09
2.09575e-09
2.83341e-09
3.748e-09
4.22473e-09
3.1852e-09
1.31137e-09
2.2455e-10
7.22177e-11
8.28736e-11
1.35763e-10
4.7479e-10
1.14167e-09
2.14792e-09
3.1863e-09
3.53896e-09
2.98472e-09
1.95436e-09
1.17362e-09
1.27174e-09
2.53296e-09
4.42717e-09
5.19493e-09
4.90785e-09
3.76545e-09
2.08455e-09
6.55754e-10
7.51029e-11
5.9481e-10
1.57682e-09
1.81751e-09
1.66393e-09
1.28996e-09
7.24814e-10
1.91144e-10
5.21496e-11
2.00983e-10
3.93855e-10
7.49683e-10
1.38183e-09
2.05639e-09
2.76753e-09
3.5339e-09
4.83627e-09
5.77255e-09
4.25349e-09
1.42992e-09
1.27953e-10
2.37597e-10
2.30689e-10
1.21236e-10
4.68586e-10
1.34334e-09
2.71042e-09
4.23819e-09
4.72306e-09
3.74546e-09
2.06342e-09
9.21448e-10
1.00815e-09
2.75651e-09
5.5981e-09
6.68485e-09
6.25766e-09
4.73289e-09
2.57051e-09
7.33316e-10
1.06358e-10
1.15226e-09
2.79087e-09
2.85853e-09
2.44612e-09
1.80011e-09
9.31217e-10
1.80126e-10
1.18021e-10
4.19859e-10
6.99233e-10
1.2092e-09
2.12768e-09
2.94526e-09
3.66892e-09
4.30688e-09
6.13063e-09
7.92288e-09
5.76674e-09
1.56361e-09
1.34007e-10
7.62445e-10
6.4666e-10
1.65295e-10
4.8373e-10
1.62941e-09
3.44494e-09
5.71055e-09
6.38849e-09
4.79377e-09
2.1507e-09
6.41192e-10
6.97167e-10
2.98682e-09
7.15666e-09
8.59533e-09
7.89585e-09
5.86353e-09
3.15985e-09
8.44023e-10
1.86754e-10
2.08156e-09
4.80053e-09
4.34262e-09
3.49015e-09
2.45692e-09
1.1873e-09
1.67685e-10
3.0407e-10
8.54177e-10
1.20217e-09
1.91169e-09
3.29026e-09
4.24382e-09
4.89727e-09
5.10255e-09
7.5996e-09
1.09035e-08
7.90946e-09
1.72346e-09
3.54882e-10
1.90173e-09
1.48121e-09
2.8157e-10
5.25994e-10
2.02323e-09
4.37036e-09
7.74445e-09
8.70618e-09
6.25262e-09
2.22092e-09
4.26036e-10
4.26316e-10
3.23808e-09
9.22921e-09
1.10024e-08
9.81075e-09
7.0992e-09
3.87272e-09
1.02093e-09
3.33041e-10
3.57083e-09
8.07283e-09
6.39279e-09
4.84492e-09
3.29403e-09
1.51491e-09
1.7479e-10
7.16672e-10
1.64575e-09
1.97569e-09
2.93301e-09
5.05713e-09
6.11575e-09
6.5959e-09
5.84409e-09
9.18718e-09
1.50275e-08
1.09356e-08
1.93989e-09
9.50089e-10
4.02273e-09
2.92439e-09
4.71751e-10
6.04658e-10
2.55359e-09
5.48431e-09
1.05153e-08
1.18891e-08
8.30597e-09
2.28725e-09
4.3018e-10
3.40474e-10
3.5241e-09
1.19634e-08
1.39842e-08
1.19629e-08
8.35371e-09
4.73515e-09
1.32833e-09
5.6153e-10
5.89006e-09
1.33066e-08
9.13499e-09
6.56017e-09
4.35835e-09
1.95745e-09
2.42507e-10
1.52217e-09
2.99559e-09
3.08599e-09
4.34461e-09
7.65286e-09
8.76587e-09
8.98961e-09
6.43867e-09
1.08357e-08
2.07204e-08
1.51822e-08
2.26982e-09
2.1369e-09
7.65102e-09
5.20339e-09
7.29519e-10
7.35167e-10
3.25307e-09
6.74582e-09
1.42483e-08
1.61976e-08
1.12265e-08
2.37672e-09
8.86257e-10
6.38564e-10
3.86344e-09
1.55095e-08
1.75966e-08
1.42718e-08
9.45296e-09
5.79146e-09
1.89231e-09
8.96918e-10
9.42551e-09
2.1532e-08
1.26534e-08
8.68348e-09
5.71707e-09
2.59326e-09
4.50653e-10
2.9676e-09
5.19061e-09
4.58812e-09
6.20949e-09
1.13145e-08
1.2443e-08
1.23925e-08
6.79918e-09
1.24731e-08
2.85622e-08
2.11015e-08
2.82705e-09
4.20341e-09
1.35404e-08
8.56e-09
1.04071e-09
9.48635e-10
4.16476e-09
8.05863e-09
1.92457e-08
2.19614e-08
1.54213e-08
2.534e-09
2.11628e-09
1.54986e-09
4.2963e-09
2.00187e-08
2.18892e-08
1.66508e-08
1.00576e-08
7.12235e-09
2.97663e-09
1.3925e-09
1.47609e-08
3.42226e-08
1.70118e-08
1.12669e-08
7.48021e-09
3.5703e-09
9.53924e-10
5.42628e-09
8.63837e-09
6.50543e-09
8.53153e-09
1.62631e-08
1.74314e-08
1.72279e-08
6.83318e-09
1.40436e-08
3.93281e-08
2.92738e-08
3.81456e-09
7.53355e-09
2.27746e-08
1.32258e-08
1.38334e-09
1.30041e-09
5.33473e-09
9.21926e-09
2.59378e-08
2.9628e-08
2.14823e-08
2.83003e-09
4.56462e-09
3.30635e-09
4.92201e-09
2.56109e-08
2.68779e-08
1.89845e-08
1.00853e-08
8.87351e-09
5.09242e-09
2.13048e-09
2.27137e-08
5.34196e-08
2.21913e-08
1.43832e-08
9.84513e-09
5.12683e-09
1.99585e-09
9.42885e-09
1.39611e-08
8.85544e-09
1.12008e-08
2.25896e-08
2.40594e-08
2.41141e-08
6.6202e-09
1.56069e-08
5.40658e-08
4.04411e-08
5.5827e-09
1.26524e-08
3.70144e-08
1.93954e-08
1.83312e-09
1.93033e-09
6.82534e-09
1.00578e-08
3.49548e-08
3.98191e-08
3.02204e-08
3.39317e-09
8.81485e-09
6.08539e-09
5.8948e-09
3.23644e-08
3.25618e-08
2.11487e-08
9.26275e-09
1.13513e-08
9.26698e-09
3.27495e-09
3.4565e-08
8.19262e-08
2.80469e-08
1.80346e-08
1.3149e-08
7.69342e-09
3.95749e-09
1.57756e-08
2.20506e-08
1.16419e-08
1.39651e-08
3.00287e-08
3.27774e-08
3.38562e-08
6.26977e-09
1.7334e-08
7.41389e-08
5.55104e-08
8.74198e-09
2.02782e-08
5.87409e-08
2.71084e-08
2.53037e-09
3.06967e-09
8.70563e-09
1.03761e-08
4.72863e-08
5.34277e-08
4.2697e-08
4.45936e-09
1.56762e-08
1.00743e-08
7.56654e-09
4.02235e-08
3.868e-08
2.29939e-08
7.79109e-09
1.50584e-08
1.74556e-08
5.0961e-09
5.22604e-08
1.23503e-07
3.43572e-08
2.21241e-08
1.77101e-08
1.1896e-08
7.31358e-09
2.5628e-08
3.43155e-08
1.51104e-08
1.67297e-08
3.78495e-08
4.42216e-08
4.76405e-08
6.36045e-09
1.95185e-08
1.01195e-07
7.55163e-08
1.42968e-08
3.14003e-08
9.16815e-08
3.62196e-08
3.80278e-09
5.11177e-09
1.10936e-08
1.00861e-08
6.43828e-08
7.1757e-08
6.04818e-08
6.36841e-09
2.61841e-08
1.55741e-08
1.05107e-08
4.91886e-08
4.49989e-08
2.46018e-08
6.51184e-09
2.04934e-08
3.3248e-08
8.03268e-09
7.89093e-08
1.84263e-07
4.09063e-08
2.65056e-08
2.44631e-08
1.8582e-08
1.23121e-08
4.02356e-08
5.19135e-08
1.94671e-08
1.94746e-08
4.51406e-08
5.94753e-08
6.66583e-08
7.43322e-09
2.30782e-08
1.36374e-07
1.01553e-07
2.34705e-08
4.79618e-08
1.41389e-07
4.68218e-08
6.41952e-09
8.64187e-09
1.41748e-08
9.53026e-09
8.92036e-08
9.64767e-08
8.34403e-08
9.58199e-09
3.92972e-08
2.14541e-08
1.54286e-08
5.86197e-08
5.33012e-08
2.72147e-08
8.31489e-09
2.77993e-08
6.22533e-08
1.22351e-08
1.18446e-07
2.66956e-07
4.6829e-08
3.07611e-08
3.27635e-08
2.88635e-08
2.12668e-08
6.12998e-08
7.615e-08
2.52175e-08
2.43467e-08
5.5176e-08
7.81439e-08
9.01473e-08
1.09879e-08
2.90123e-08
1.84564e-07
1.33913e-07
3.76831e-08
7.13365e-08
2.15042e-07
5.82879e-08
1.15006e-08
1.47472e-08
1.78103e-08
1.00048e-08
1.25825e-07
1.30404e-07
1.08097e-07
1.4793e-08
5.20826e-08
2.97125e-08
2.08385e-08
6.37605e-08
6.13632e-08
3.20555e-08
1.98283e-08
3.8113e-08
1.10051e-07
1.87289e-08
1.78772e-07
3.75112e-07
5.37742e-08
3.36986e-08
4.39338e-08
4.04253e-08
3.37378e-08
8.79221e-08
9.3455e-08
3.09503e-08
3.09062e-08
6.91106e-08
9.98415e-08
1.16114e-07
1.7559e-08
3.62148e-08
2.50004e-07
1.80723e-07
5.61568e-08
1.10297e-07
3.25676e-07
6.68608e-08
2.11765e-08
2.1916e-08
2.02352e-08
1.31441e-08
1.7335e-07
1.75255e-07
1.34484e-07
2.50292e-08
6.45947e-08
4.49743e-08
2.89129e-08
6.11844e-08
6.58186e-08
4.1069e-08
5.58351e-08
5.20457e-08
1.54326e-07
2.49799e-08
2.48261e-07
4.73057e-07
5.49666e-08
3.47343e-08
5.66315e-08
4.43591e-08
5.32796e-08
1.09682e-07
9.81629e-08
3.62872e-08
4.19888e-08
8.38645e-08
1.13203e-07
1.27507e-07
2.65603e-08
4.46028e-08
3.24065e-07
2.33427e-07
7.2095e-08
1.78851e-07
4.66927e-07
6.30883e-08
3.41268e-08
2.68482e-08
2.29561e-08
1.94206e-08
2.33369e-07
2.33983e-07
1.84843e-07
3.29398e-08
7.00206e-08
6.09807e-08
3.50934e-08
4.29921e-08
7.13932e-08
4.73806e-08
1.05332e-07
6.42537e-08
2.06831e-07
3.20037e-08
3.07572e-07
5.90154e-07
5.74662e-08
3.68273e-08
7.02737e-08
5.49351e-08
8.70288e-08
1.42806e-07
8.86905e-08
4.23162e-08
5.65636e-08
1.12095e-07
1.24509e-07
1.55504e-07
3.85199e-08
5.21879e-08
4.00351e-07
3.0149e-07
1.3648e-07
2.91413e-07
6.09438e-07
5.8157e-08
4.52868e-08
3.47582e-08
2.43461e-08
2.64508e-08
3.15192e-07
2.8361e-07
2.52558e-07
3.84755e-08
6.78325e-08
7.28505e-08
4.04693e-08
6.28064e-08
7.61268e-08
4.99725e-08
9.93704e-08
7.7993e-08
2.66069e-07
3.97143e-08
3.53136e-07
6.74913e-07
5.71958e-08
4.69104e-08
8.31589e-08
6.43422e-08
1.33547e-07
1.75754e-07
9.10558e-08
6.16642e-08
7.75491e-08
1.78139e-07
1.39864e-07
2.27719e-07
5.82064e-08
5.81908e-08
4.33334e-07
3.77437e-07
1.90964e-07
4.02109e-07
6.92846e-07
6.18625e-08
4.81397e-08
4.42049e-08
3.47217e-08
3.49999e-08
3.08242e-07
2.79452e-07
2.80283e-07
4.28894e-08
6.4382e-08
1.05339e-07
4.55749e-08
8.18114e-08
7.66201e-08
6.08104e-08
9.2874e-08
8.80507e-08
2.99332e-07
5.36814e-08
3.80523e-07
6.10776e-07
5.0822e-08
5.94892e-08
9.61975e-08
7.87033e-08
1.91066e-07
2.25454e-07
1.01006e-07
9.93254e-08
9.60836e-08
2.29567e-07
1.58677e-07
2.68122e-07
6.34832e-08
5.97242e-08
4.26536e-07
4.14073e-07
2.29939e-07
4.42995e-07
6.9207e-07
6.34064e-08
4.82741e-08
5.63613e-08
4.22512e-08
3.58324e-08
2.36988e-07
2.51944e-07
2.9418e-07
3.82241e-08
6.22252e-08
1.18464e-07
4.53442e-08
1.01291e-07
9.18895e-08
7.73933e-08
6.52901e-08
8.24653e-08
2.79176e-07
6.70802e-08
3.79418e-07
5.53416e-07
5.0493e-08
6.47841e-08
1.09674e-07
8.3087e-08
2.74326e-07
2.55226e-07
1.10436e-07
1.17285e-07
1.09606e-07
2.73673e-07
1.60769e-07
2.93265e-07
5.37478e-08
5.78921e-08
3.68034e-07
4.36505e-07
2.61329e-07
4.47535e-07
6.35709e-07
6.12516e-08
4.82016e-08
7.24155e-08
4.30305e-08
3.46016e-08
1.96304e-07
2.1691e-07
2.77782e-07
3.32771e-08
6.31606e-08
1.13619e-07
3.94068e-08
1.2952e-07
1.00655e-07
8.47939e-08
5.63036e-08
7.40921e-08
2.38273e-07
7.2357e-08
3.66297e-07
4.75927e-07
5.23064e-08
5.7456e-08
1.13462e-07
8.2954e-08
3.15612e-07
2.77373e-07
1.19134e-07
1.19904e-07
1.15472e-07
3.10002e-07
1.58998e-07
3.55159e-07
4.51522e-08
5.4378e-08
3.14864e-07
4.66198e-07
2.71272e-07
4.428e-07
6.54766e-07
6.03301e-08
5.22444e-08
8.18288e-08
4.26042e-08
3.58794e-08
1.67472e-07
2.04611e-07
2.79884e-07
3.04879e-08
6.50492e-08
1.16766e-07
3.849e-08
1.3756e-07
1.04844e-07
8.9172e-08
5.2438e-08
7.04521e-08
2.34932e-07
7.32615e-08
3.62658e-07
4.38973e-07
5.38211e-08
5.70332e-08
1.14117e-07
7.91045e-08
3.40355e-07
2.75305e-07
1.21453e-07
1.13531e-07
1.1584e-07
3.31674e-07
1.57506e-07
3.71736e-07
4.25828e-08
5.26726e-08
2.89232e-07
4.69916e-07
2.62837e-07
4.26395e-07
6.62275e-07
6.07231e-08
5.43785e-08
7.9571e-08
4.17215e-08
3.70122e-08
1.60117e-07
1.94683e-07
2.95578e-07
2.93691e-08
6.47249e-08
1.09055e-07
3.87396e-08
1.42581e-07
9.99267e-08
9.10998e-08
5.12755e-08
7.16773e-08
2.11852e-07
7.61303e-08
3.52906e-07
4.30596e-07
5.45679e-08
5.92819e-08
1.09143e-07
7.7793e-08
3.39195e-07
2.72484e-07
1.26339e-07
1.11383e-07
1.1486e-07
3.19261e-07
1.60765e-07
3.7375e-07
4.23103e-08
5.24534e-08
2.8567e-07
4.68863e-07
2.485e-07
4.26196e-07
6.59922e-07
5.89576e-08
5.55971e-08
7.18689e-08
3.92956e-08
3.81178e-08
1.69031e-07
1.94329e-07
2.87141e-07
2.91725e-08
6.46104e-08
1.04243e-07
3.94771e-08
1.43022e-07
9.69545e-08
9.19478e-08
4.99309e-08
7.49882e-08
2.01393e-07
7.90052e-08
3.5396e-07
4.25033e-07
5.47835e-08
5.96166e-08
1.09458e-07
7.8339e-08
3.36751e-07
2.76037e-07
1.27294e-07
1.1372e-07
1.14795e-07
3.17134e-07
1.665e-07
3.75735e-07
4.24672e-08
5.38823e-08
2.89677e-07
4.73628e-07
2.46819e-07
4.35007e-07
6.6234e-07
5.75452e-08
5.84743e-08
6.88638e-08
3.64181e-08
3.86237e-08
1.79253e-07
1.97269e-07
2.76187e-07
2.92195e-08
6.82739e-10
7.06451e-10
7.09241e-10
6.87032e-10
6.35329e-10
5.72347e-10
4.85816e-10
3.93009e-10
3.16177e-10
2.2902e-10
1.66301e-10
1.33116e-10
8.56826e-11
7.52677e-11
7.18271e-11
5.26004e-11
6.58893e-11
6.89297e-11
7.35091e-11
1.00944e-10
1.2453e-10
1.62606e-10
2.25019e-10
2.99556e-10
3.7868e-10
4.53229e-10
5.29183e-10
5.92848e-10
6.14726e-10
6.42087e-10
6.76027e-10
6.81461e-10
7.1011e-10
7.49107e-10
7.75192e-10
8.0863e-10
8.49021e-10
9.04806e-10
9.63903e-10
8.07785e-10
8.50467e-10
8.20998e-10
8.17597e-10
7.94882e-10
7.36886e-10
6.64076e-10
5.5181e-10
4.35878e-10
3.37987e-10
2.20855e-10
1.48131e-10
1.16174e-10
6.45836e-11
5.42904e-11
5.35105e-11
3.73088e-11
4.30891e-11
4.76399e-11
5.61685e-11
8.18224e-11
1.19886e-10
1.71101e-10
2.53502e-10
3.5428e-10
4.51382e-10
5.40418e-10
6.12943e-10
6.65686e-10
6.70892e-10
6.6975e-10
6.79724e-10
6.75123e-10
7.02523e-10
7.45827e-10
7.91302e-10
8.32718e-10
8.80937e-10
9.31359e-10
9.20185e-10
8.84119e-10
9.70803e-10
9.3601e-10
9.4599e-10
9.33159e-10
8.78905e-10
7.88489e-10
6.46288e-10
4.99424e-10
3.58116e-10
2.07887e-10
1.27012e-10
8.88658e-11
3.72843e-11
3.37872e-11
3.65891e-11
2.33815e-11
2.81467e-11
3.30671e-11
4.24568e-11
7.26516e-11
1.19471e-10
1.86716e-10
2.91092e-10
4.121e-10
5.37962e-10
6.4716e-10
7.18098e-10
7.54341e-10
7.29968e-10
6.90155e-10
6.65711e-10
6.56645e-10
6.85793e-10
7.37342e-10
8.09723e-10
8.65677e-10
9.37397e-10
9.97553e-10
9.78138e-10
9.81284e-10
1.07364e-09
1.0552e-09
1.0897e-09
1.10107e-09
1.06244e-09
9.49977e-10
7.76609e-10
5.81891e-10
3.75936e-10
1.94574e-10
1.05531e-10
5.78936e-11
1.86451e-11
3.05597e-11
3.44076e-11
2.67817e-11
3.23081e-11
2.77095e-11
3.84999e-11
7.11561e-11
1.16413e-10
2.03512e-10
3.27883e-10
4.76653e-10
6.49594e-10
7.87815e-10
8.62718e-10
8.70807e-10
7.96438e-10
7.04024e-10
6.37589e-10
6.24406e-10
6.56046e-10
7.23636e-10
8.33318e-10
9.20117e-10
1.02829e-09
1.09613e-09
1.07484e-09
1.08846e-09
1.16655e-09
1.17519e-09
1.24584e-09
1.30729e-09
1.29701e-09
1.16355e-09
9.55255e-10
6.85254e-10
3.98123e-10
1.86207e-10
8.37051e-11
3.34038e-11
2.30385e-11
5.18866e-11
5.41198e-11
5.26035e-11
4.89927e-11
2.83202e-11
4.22691e-11
6.98348e-11
1.14645e-10
2.25594e-10
3.73846e-10
5.67761e-10
8.02867e-10
9.81591e-10
1.06315e-09
1.02387e-09
8.72414e-10
7.04484e-10
5.88385e-10
5.70739e-10
6.10202e-10
7.11623e-10
8.72155e-10
1.00871e-09
1.16315e-09
1.23211e-09
1.20777e-09
1.20274e-09
1.24401e-09
1.28406e-09
1.41245e-09
1.56312e-09
1.59631e-09
1.44917e-09
1.19237e-09
8.13138e-10
4.31424e-10
1.79426e-10
5.98416e-11
2.74198e-11
5.81594e-11
9.96642e-11
9.92953e-11
9.45138e-11
6.80889e-11
3.19615e-11
4.72281e-11
6.95954e-11
1.225e-10
2.60436e-10
4.42648e-10
6.97583e-10
1.00804e-09
1.24602e-09
1.33903e-09
1.22912e-09
9.58686e-10
6.81915e-10
5.11243e-10
4.90822e-10
5.50775e-10
7.06022e-10
9.28074e-10
1.13988e-09
1.35343e-09
1.42479e-09
1.38368e-09
1.31746e-09
1.29414e-09
1.36498e-09
1.58946e-09
1.88017e-09
1.97867e-09
1.82932e-09
1.49871e-09
9.75041e-10
4.77704e-10
1.66834e-10
4.01591e-11
5.52385e-11
1.33527e-10
1.83969e-10
1.75017e-10
1.46697e-10
8.61703e-11
3.53199e-11
5.10464e-11
7.74068e-11
1.48071e-10
3.17806e-10
5.45746e-10
8.73594e-10
1.27685e-09
1.60331e-09
1.72242e-09
1.50819e-09
1.05327e-09
6.29352e-10
4.05687e-10
3.87792e-10
4.82111e-10
7.06119e-10
1.00692e-09
1.33001e-09
1.62714e-09
1.70594e-09
1.60841e-09
1.42385e-09
1.29579e-09
1.39498e-09
1.77501e-09
2.27422e-09
2.47341e-09
2.32771e-09
1.8898e-09
1.18294e-09
5.32846e-10
1.4502e-10
3.96271e-11
1.37851e-10
2.6733e-10
3.20464e-10
2.86365e-10
2.08549e-10
1.01721e-10
3.55982e-11
5.87217e-11
1.0179e-10
1.98566e-10
4.1062e-10
6.95548e-10
1.10556e-09
1.6194e-09
2.07869e-09
2.25686e-09
1.88979e-09
1.15516e-09
5.43165e-10
2.78981e-10
2.70586e-10
4.08146e-10
7.15175e-10
1.12301e-09
1.60304e-09
2.02357e-09
2.11237e-09
1.89077e-09
1.51553e-09
1.23902e-09
1.3625e-09
1.96807e-09
2.77597e-09
3.121e-09
2.96986e-09
2.38527e-09
1.44725e-09
5.91941e-10
1.16976e-10
8.07093e-11
3.08539e-10
4.89866e-10
5.2892e-10
4.39904e-10
2.80102e-10
1.11126e-10
3.44022e-11
8.21547e-11
1.55469e-10
2.89615e-10
5.58616e-10
9.09696e-10
1.40627e-09
2.04104e-09
2.69911e-09
3.00117e-09
2.41577e-09
1.26537e-09
4.2617e-10
1.53349e-10
1.60452e-10
3.35384e-10
7.39015e-10
1.29661e-09
1.98745e-09
2.59595e-09
2.69335e-09
2.24872e-09
1.58741e-09
1.10627e-09
1.25263e-09
2.16869e-09
3.4354e-09
3.97194e-09
3.78414e-09
3.00692e-09
1.77617e-09
6.50668e-10
9.08639e-11
1.94235e-10
6.24115e-10
8.45626e-10
8.33273e-10
6.45492e-10
3.61709e-10
1.11873e-10
4.60748e-11
1.47469e-10
2.62237e-10
4.46824e-10
7.92194e-10
1.21547e-09
1.79209e-09
2.54017e-09
3.49038e-09
4.03458e-09
3.14822e-09
1.38691e-09
2.92967e-10
7.80377e-11
9.15602e-11
2.72667e-10
7.88184e-10
1.54985e-09
2.51795e-09
3.4171e-09
3.51738e-09
2.71271e-09
1.63178e-09
8.9822e-10
1.06126e-09
2.38108e-09
4.33229e-09
5.09033e-09
4.79994e-09
3.77323e-09
2.1789e-09
7.11196e-10
7.86325e-11
4.26227e-10
1.18247e-09
1.39546e-09
1.26428e-09
9.15768e-10
4.54075e-10
1.06597e-10
1.00918e-10
2.98038e-10
4.60607e-10
7.06004e-10
1.15511e-09
1.65301e-09
2.29253e-09
3.11003e-09
4.47286e-09
5.46341e-09
4.17692e-09
1.52642e-09
1.80334e-10
1.39608e-10
1.18278e-10
2.30394e-10
8.76985e-10
1.91054e-09
3.23417e-09
4.58549e-09
4.68245e-09
3.32777e-09
1.64229e-09
6.42879e-10
8.02115e-10
2.61689e-09
5.59952e-09
6.5567e-09
6.03934e-09
4.69464e-09
2.66334e-09
7.80148e-10
9.19144e-11
8.484e-10
2.14675e-09
2.2188e-09
1.85928e-09
1.2661e-09
5.6183e-10
1.05683e-10
2.55279e-10
6.08138e-10
8.08493e-10
1.11473e-09
1.71462e-09
2.28511e-09
2.95653e-09
3.73688e-09
5.65444e-09
7.43004e-09
5.62921e-09
1.69957e-09
1.56514e-10
4.71479e-10
3.19779e-10
2.1923e-10
1.02432e-09
2.41378e-09
4.1752e-09
6.234e-09
6.32072e-09
4.1569e-09
1.6099e-09
4.08809e-10
5.21212e-10
2.895e-09
7.42669e-09
8.47295e-09
7.50454e-09
5.7639e-09
3.23996e-09
8.70153e-10
1.40819e-10
1.56672e-09
3.7829e-09
3.41528e-09
2.66053e-09
1.71454e-09
6.93548e-10
1.29417e-10
5.97344e-10
1.18834e-09
1.38312e-09
1.73308e-09
2.57099e-09
3.2013e-09
3.87633e-09
4.40513e-09
7.03041e-09
1.01238e-08
7.68236e-09
1.93788e-09
3.27587e-10
1.26456e-09
8.06698e-10
2.50123e-10
1.25753e-09
3.10118e-09
5.37003e-09
8.55056e-09
8.60897e-09
5.285e-09
1.53992e-09
3.21633e-10
3.16106e-10
3.24771e-09
1.01037e-08
1.09633e-08
9.16909e-09
6.95476e-09
3.92712e-09
9.98258e-10
2.32273e-10
2.73938e-09
6.51661e-09
5.10371e-09
3.71248e-09
2.28458e-09
8.66902e-10
2.17751e-10
1.26456e-09
2.19735e-09
2.28502e-09
2.63383e-09
3.8714e-09
4.53102e-09
5.22061e-09
5.10081e-09
8.59158e-09
1.379e-08
1.05832e-08
2.30547e-09
8.44186e-10
2.7778e-09
1.73418e-09
3.3972e-10
1.61344e-09
4.01808e-09
6.83319e-09
1.17995e-08
1.17804e-08
6.83387e-09
1.44338e-09
5.76401e-10
3.65367e-10
3.7094e-09
1.4059e-08
1.4177e-08
1.09717e-08
8.22822e-09
4.75855e-09
1.18914e-09
3.79324e-10
4.59739e-09
1.10184e-08
7.42402e-09
5.06325e-09
3.00922e-09
1.10964e-09
4.46674e-10
2.46875e-09
3.84496e-09
3.63174e-09
3.89408e-09
5.81558e-09
6.44346e-09
7.27946e-09
5.81583e-09
1.0333e-08
1.87422e-08
1.46632e-08
2.91663e-09
1.90029e-09
5.33906e-09
3.30717e-09
5.14335e-10
2.14302e-09
5.21654e-09
8.55374e-09
1.63548e-08
1.61355e-08
8.97655e-09
1.35347e-09
1.45368e-09
9.64739e-10
4.33053e-09
1.9925e-08
1.83097e-08
1.28071e-08
9.53888e-09
5.77774e-09
1.46948e-09
5.93696e-10
7.45882e-09
1.83123e-08
1.05307e-08
6.76564e-09
3.94407e-09
1.4707e-09
9.91567e-10
4.51421e-09
6.39415e-09
5.56466e-09
5.61052e-09
8.67465e-09
9.17055e-09
1.05413e-08
6.58176e-09
1.23254e-08
2.53743e-08
2.03678e-08
3.95639e-09
3.74207e-09
9.35794e-09
5.81258e-09
8.27508e-10
2.91226e-09
6.75835e-09
1.05071e-08
2.27547e-08
2.20483e-08
1.19617e-08
1.3316e-09
3.33476e-09
2.57635e-09
5.18607e-09
2.86589e-08
2.36465e-08
1.45388e-08
1.08767e-08
7.06558e-09
1.89323e-09
9.15791e-10
1.17684e-08
2.99152e-08
1.45951e-08
8.88512e-09
5.18638e-09
2.0328e-09
2.24805e-09
7.82363e-09
1.0164e-08
8.27006e-09
7.94327e-09
1.28286e-08
1.29946e-08
1.57989e-08
7.47192e-09
1.47356e-08
3.41704e-08
2.82759e-08
5.71691e-09
6.66969e-09
1.52937e-08
9.60804e-09
1.35384e-09
4.00246e-09
8.72783e-09
1.26652e-08
3.17567e-08
2.9978e-08
1.61571e-08
1.47504e-09
6.70333e-09
5.9102e-09
6.36403e-09
4.16925e-08
3.06112e-08
1.60396e-08
1.23254e-08
8.73668e-09
2.5306e-09
1.42591e-09
1.81244e-08
4.79928e-08
1.9841e-08
1.1523e-08
6.9103e-09
2.94066e-09
5.04332e-09
1.28906e-08
1.53421e-08
1.19146e-08
1.10598e-08
1.87287e-08
1.81895e-08
2.4245e-08
8.6631e-09
1.78817e-08
4.56974e-08
3.90722e-08
8.65655e-09
1.10718e-08
2.36842e-08
1.52121e-08
2.26779e-09
5.53476e-09
1.12673e-08
1.50676e-08
4.44007e-08
4.04572e-08
2.20942e-08
1.93022e-09
1.21801e-08
1.20321e-08
7.93586e-09
6.11339e-08
3.98838e-08
1.73969e-08
1.4095e-08
1.09536e-08
3.52861e-09
2.27024e-09
2.72536e-08
7.54998e-08
2.66685e-08
1.48677e-08
9.39109e-09
4.45151e-09
1.11625e-08
2.04456e-08
2.18971e-08
1.67266e-08
1.54594e-08
2.73617e-08
2.51514e-08
3.78403e-08
1.04287e-08
2.24737e-08
6.06709e-08
5.36639e-08
1.35525e-08
1.73681e-08
3.51067e-08
2.33147e-08
3.7964e-09
7.65819e-09
1.46198e-08
1.79395e-08
6.2073e-08
5.40689e-08
3.05626e-08
2.92435e-09
2.04812e-08
2.26065e-08
1.01771e-08
9.02575e-08
5.26554e-08
1.90554e-08
1.65931e-08
1.39917e-08
5.07576e-09
3.71638e-09
4.01325e-08
1.16293e-07
3.56306e-08
1.92903e-08
1.318e-08
6.91123e-09
2.41083e-08
3.1163e-08
2.99786e-08
2.30046e-08
2.1594e-08
3.9865e-08
3.40204e-08
5.93939e-08
1.32798e-08
2.9746e-08
7.98296e-08
7.29511e-08
2.15781e-08
2.6194e-08
5.01761e-08
3.47023e-08
6.23141e-09
1.05431e-08
1.91237e-08
2.1785e-08
8.64128e-08
7.14123e-08
4.27105e-08
4.75976e-09
3.21375e-08
3.92326e-08
1.31906e-08
1.34872e-07
7.08914e-08
2.16862e-08
1.98222e-08
1.80757e-08
7.6301e-09
6.13029e-09
5.75303e-08
1.75354e-07
4.75609e-08
2.49059e-08
1.90719e-08
1.07124e-08
5.08215e-08
4.53463e-08
3.87504e-08
3.07491e-08
3.00607e-08
5.77347e-08
4.48253e-08
9.21528e-08
1.72936e-08
4.1475e-08
1.04075e-07
9.80145e-08
3.3896e-08
3.76448e-08
6.962e-08
5.07071e-08
1.01805e-08
1.44476e-08
2.5507e-08
2.72777e-08
1.18683e-07
9.25142e-08
5.99688e-08
7.77177e-09
4.90609e-08
6.30931e-08
1.7285e-08
2.06053e-07
9.48379e-08
2.46937e-08
2.48068e-08
2.31222e-08
1.11948e-08
9.47707e-09
8.05438e-08
2.54894e-07
6.29324e-08
3.2378e-08
2.80857e-08
1.68425e-08
1.00736e-07
6.18856e-08
5.0134e-08
4.17064e-08
4.27334e-08
8.36437e-08
5.74725e-08
1.33092e-07
2.31092e-08
5.98926e-08
1.33612e-07
1.29099e-07
5.27377e-08
5.21327e-08
9.45294e-08
6.98535e-08
1.55879e-08
1.94324e-08
3.62831e-08
3.54305e-08
1.60728e-07
1.17505e-07
8.52941e-08
1.18445e-08
6.8687e-08
9.51825e-08
2.15203e-08
3.03358e-07
1.24797e-07
2.91844e-08
3.33098e-08
2.69317e-08
1.63288e-08
1.36938e-08
1.11713e-07
3.57601e-07
8.30236e-08
4.09416e-08
3.78912e-08
2.78164e-08
1.9616e-07
8.41126e-08
5.54281e-08
5.06324e-08
5.87178e-08
1.15775e-07
6.72104e-08
1.88415e-07
2.94436e-08
8.14332e-08
1.75147e-07
1.6561e-07
8.1944e-08
6.51691e-08
1.13395e-07
8.90171e-08
2.25573e-08
2.60104e-08
4.40341e-08
4.92893e-08
2.35005e-07
1.42112e-07
1.11821e-07
1.65893e-08
8.48816e-08
1.38482e-07
2.59035e-08
4.19415e-07
1.7687e-07
3.57142e-08
4.40543e-08
2.86348e-08
2.33715e-08
1.87955e-08
1.62892e-07
4.65158e-07
9.85564e-08
4.59717e-08
5.08599e-08
4.34764e-08
2.79971e-07
1.03053e-07
6.15062e-08
6.33837e-08
8.64904e-08
1.33918e-07
7.5492e-08
2.25451e-07
3.73702e-08
1.17521e-07
2.16687e-07
1.97727e-07
1.14325e-07
7.66779e-08
1.16299e-07
9.82601e-08
2.90985e-08
3.6158e-08
4.93511e-08
6.67671e-08
3.11327e-07
1.67287e-07
1.65967e-07
2.39182e-08
9.34921e-08
1.5887e-07
3.0089e-08
5.15521e-07
2.77739e-07
4.26774e-08
5.19484e-08
3.04936e-08
3.25817e-08
2.28984e-08
2.60162e-07
5.83113e-07
1.14724e-07
5.00128e-08
6.54446e-08
6.28164e-08
3.60834e-07
1.25483e-07
7.3798e-08
6.98361e-08
1.30419e-07
1.69352e-07
8.25877e-08
2.05084e-07
4.3393e-08
1.82166e-07
2.51076e-07
2.33557e-07
1.72329e-07
8.49992e-08
1.14525e-07
9.77085e-08
3.47673e-08
5.27722e-08
5.00967e-08
8.98902e-08
3.30957e-07
1.94045e-07
2.36214e-07
2.9655e-08
9.80997e-08
1.84673e-07
3.70864e-08
5.31842e-07
3.56555e-07
4.59586e-08
5.58912e-08
3.37109e-08
4.85436e-08
2.70282e-08
3.11217e-07
5.8153e-07
1.34343e-07
5.68783e-08
7.23791e-08
8.75939e-08
4.19255e-07
1.44806e-07
8.7762e-08
6.87383e-08
2.10157e-07
1.91775e-07
1.06177e-07
2.36281e-07
5.08865e-08
2.58087e-07
2.87554e-07
2.58137e-07
2.53415e-07
9.47448e-08
1.10191e-07
1.08993e-07
3.66467e-08
8.95263e-08
4.62e-08
1.02659e-07
2.65734e-07
2.00998e-07
2.83718e-07
3.46999e-08
9.55457e-08
1.92206e-07
3.98949e-08
4.65561e-07
4.09101e-07
5.50998e-08
5.29081e-08
3.598e-08
5.67327e-08
2.86403e-08
2.92901e-07
4.99e-07
1.19567e-07
7.22137e-08
7.54342e-08
1.15192e-07
5.08113e-07
1.62804e-07
1.02672e-07
6.36537e-08
2.7175e-07
2.01833e-07
1.31184e-07
3.01054e-07
5.7524e-08
3.05425e-07
2.86343e-07
2.79252e-07
3.86316e-07
1.15439e-07
1.14637e-07
1.3117e-07
3.94469e-08
1.07515e-07
3.32878e-08
1.33982e-07
1.74576e-07
1.87963e-07
3.27011e-07
3.65187e-08
9.27447e-08
2.14195e-07
4.36593e-08
4.55738e-07
3.90446e-07
5.94131e-08
4.86507e-08
3.44539e-08
4.67151e-08
2.97922e-08
2.60524e-07
5.00756e-07
1.19137e-07
8.54737e-08
8.06943e-08
1.35494e-07
5.16718e-07
1.83581e-07
1.25382e-07
5.94933e-08
2.95961e-07
2.00502e-07
1.52572e-07
3.29817e-07
5.95563e-08
3.07134e-07
3.30391e-07
2.88508e-07
4.75698e-07
1.51485e-07
1.19779e-07
1.28829e-07
4.06679e-08
1.11547e-07
2.40222e-08
1.55792e-07
1.49031e-07
1.74292e-07
2.91635e-07
3.18221e-08
8.48163e-08
2.32093e-07
4.34409e-08
4.49134e-07
3.89782e-07
6.62569e-08
4.45017e-08
3.35809e-08
4.24083e-08
3.16452e-08
2.36134e-07
5.09997e-07
1.17922e-07
1.06845e-07
8.35532e-08
1.45396e-07
5.10761e-07
1.96754e-07
1.64638e-07
6.26108e-08
3.0166e-07
2.08903e-07
1.66931e-07
3.19434e-07
6.43828e-08
2.93644e-07
3.70321e-07
2.96663e-07
6.2824e-07
1.68272e-07
1.36824e-07
1.15692e-07
4.10531e-08
9.65884e-08
2.2442e-08
1.74665e-07
1.48171e-07
1.70134e-07
2.68486e-07
3.69859e-08
7.9816e-08
2.30999e-07
4.46954e-08
4.38224e-07
3.8989e-07
7.12753e-08
4.26214e-08
3.39933e-08
4.19267e-08
3.05888e-08
2.37258e-07
5.16893e-07
1.1502e-07
1.18582e-07
8.60221e-08
1.41858e-07
4.89393e-07
2.00672e-07
1.73355e-07
6.34523e-08
2.95592e-07
2.17183e-07
1.75229e-07
3.0742e-07
6.59016e-08