/*--------------------------------*- C++ -*----------------------------------*\
  =========                 |
  \\      /  F ield         | OpenFOAM: The Open Source CFD Toolbox
   \\    /   O peration     | Website:  https://openfoam.org
    \\  /    A nd           | Version:  10
     \\/     M anipulation  |
\*---------------------------------------------------------------------------*/
FoamFile
{
    format      ascii;
    class       volVectorField;
    location    "10";
    object      U_0;
}
// * * * * * * * * * * * * * * * * * * * * * * * * * * * * * * * * * * * * * //

dimensions      [0 1 -1 0 0 0 0];

internalField   nonuniform List<vector> 
25600
(
(1.035 -9.29502e-05 0.00067344)
(1.0337 0.000499663 -0.000666335)
(1.03532 -4.71022e-05 9.97448e-05)
(1.03446 0.000330104 0.00034788)
(1.03429 0.000271266 -0.00049269)
(1.03517 0.000190809 0.000101271)
(1.03397 4.35903e-05 -3.88324e-05)
(1.03479 0.000380047 -3.30357e-05)
(1.03485 5.20917e-05 -2.41438e-05)
(1.03456 -0.000265291 -6.17317e-05)
(1.03463 0.000836464 0.000141854)
(1.03479 -0.0003574 -0.000112311)
(1.0352 -3.97483e-06 5.59453e-05)
(1.03444 0.000692158 7.2022e-05)
(1.03512 -0.000528114 -5.15202e-05)
(1.03553 0.000391041 -9.78597e-05)
(1.03464 9.77664e-05 0.00017694)
(1.0353 -0.000400772 -5.50077e-05)
(1.03569 0.000649492 -0.000249814)
(1.03469 -0.000530276 0.000228355)
(1.03539 0.000265251 -0.00019417)
(1.03559 0.000137378 0.000107171)
(1.03468 -0.000674461 -0.000114799)
(1.03546 0.000698395 -0.000184748)
(1.03494 -0.000747176 0.000543936)
(1.03511 5.47816e-05 -0.000558458)
(1.03548 -0.000118584 0.000108824)
(1.03452 -0.000740244 0.000440464)
(1.0351 0.000470417 -0.000568181)
(1.03515 -0.000931632 0.000379998)
(1.03469 -0.000142451 -0.000162891)
(1.03489 4.66345e-05 -0.000104421)
(1.03488 -0.000856849 0.000510859)
(1.03446 0.000237154 -0.000606871)
(1.03487 -0.000321359 0.000368177)
(1.03486 -0.000583972 0.000247118)
(1.03453 0.000354909 -0.000514812)
(1.0351 -0.000245774 0.000679674)
(1.03417 0.000164813 -0.000347879)
(1.03493 6.27951e-05 -0.000207003)
(1.03506 -2.10758e-05 0.000411663)
(1.03383 0.000147229 -0.000545158)
(1.03521 0.00052925 0.000196692)
(1.03456 -0.000147888 0.000118035)
(1.03432 0.000588733 -0.000338978)
(1.03491 0.000170275 4.7847e-05)
(1.03419 -0.000246179 -4.49392e-05)
(1.03468 0.000685815 2.6252e-05)
(1.03453 -0.000483677 -0.000124603)
(1.03502 3.78866e-05 0.000141162)
(1.03449 0.000331108 3.7245e-05)
(1.03455 -0.000221021 -7.73373e-05)
(1.03555 -1.80748e-05 0.000227548)
(1.03421 0.000145096 -8.52304e-05)
(1.03504 -0.000118188 5.99767e-05)
(1.03574 -0.000180463 -5.33366e-05)
(1.03442 0.000244656 7.68341e-05)
(1.03546 -0.000289612 -1.93056e-05)
(1.03561 0.000364492 -0.000247068)
(1.03461 -0.000373791 0.000158795)
(1.03567 0.000408267 -0.00011002)
(1.03507 2.52072e-05 6.48833e-05)
(1.03501 -0.000569334 -0.000203659)
(1.03539 0.000755455 2.12072e-05)
(1.03465 -0.000967904 0.000325969)
(1.03543 0.000439319 -0.00053899)
(1.03497 -0.000390268 0.000178345)
(1.03489 -0.000769152 0.000276038)
(1.03503 0.000653296 -0.000404047)
(1.03484 -0.00103635 0.00014286)
(1.0352 -1.50462e-05 -3.32932e-05)
(1.03456 0.000149859 -3.25954e-05)
(1.03489 -0.000687587 0.000290791)
(1.03473 -5.55614e-05 -0.000347736)
(1.03459 -1.21862e-05 0.000284486)
(1.03501 -0.000499702 0.000296916)
(1.03474 9.35598e-05 -0.000380866)
(1.03505 0.000216791 0.000497416)
(1.03428 -0.00015406 -0.000207766)
(1.03489 0.000346324 -0.000108443)
(1.03483 -0.000167624 6.65547e-05)
(1.03417 5.64868e-05 -0.000355947)
(1.03507 0.00098541 0.000317244)
(1.03452 -0.000610231 -0.000183614)
(1.03456 0.000996342 -0.000125349)
(1.03445 0.000119468 -2.71651e-06)
(1.03442 -0.000425673 -0.000113196)
(1.03458 0.000670236 8.14048e-05)
(1.03428 -0.000665595 -0.000133765)
(1.03529 0.000119504 0.000233053)
(1.03441 -0.000212267 -5.38534e-06)
(1.03448 0.000164498 9.00214e-06)
(1.03554 -0.000458288 0.000252607)
(1.03433 -9.13003e-06 -6.81441e-05)
(1.03484 2.60698e-05 9.75064e-05)
(1.03585 -0.000614183 -6.20032e-05)
(1.03453 0.00037691 8.67893e-05)
(1.03541 -0.000276802 -0.00010383)
(1.03562 0.000274283 -0.000163827)
(1.0347 -0.000332209 0.000103268)
(1.03574 0.000671463 -5.6464e-05)
(1.03472 -0.000311547 -2.82322e-06)
(1.03532 -0.000129081 -0.000238098)
(1.03513 0.000494552 0.000202745)
(1.03465 -0.0010629 -8.18708e-06)
(1.03561 0.000787564 -0.000350875)
(1.03443 -0.000810993 0.000192562)
(1.03542 -0.000406292 3.96358e-05)
(1.03487 0.000431945 -0.000137726)
(1.03458 -0.000942152 -0.000136117)
(1.03571 0.000123736 4.92139e-05)
(1.0343 0.000261381 5.81183e-05)
(1.03471 -0.000621474 4.75348e-05)
(1.03505 -0.000198968 -0.000109401)
(1.03448 0.000285386 0.000320052)
(1.03495 -0.000675202 0.000292885)
(1.03514 0.000300668 -0.000208097)
(1.03489 0.000367791 0.000360635)
(1.0343 -0.000457364 -0.000141002)
(1.03504 0.000777777 5.85219e-05)
(1.03449 -0.000458647 -0.000256186)
(1.03473 0.00040049 -0.000173)
(1.0347 0.00105351 0.00039396)
(1.03456 -0.000841707 -0.000462937)
(1.03489 0.00150252 7.73109e-05)
(1.0338 -7.57564e-05 -4.14355e-05)
(1.03462 -0.000368312 -0.000257219)
(1.03449 0.000347609 0.000200427)
(1.03409 -0.00061233 -5.89074e-05)
(1.03539 -5.82242e-05 0.000166036)
(1.03452 -0.000543321 0.00011405)
(1.03436 0.000404975 5.93151e-05)
(1.03541 -0.000875317 0.000244163)
(1.03459 7.67215e-05 0.000130558)
(1.03457 -0.000242605 -3.9595e-05)
(1.03601 -0.000549065 1.13591e-05)
(1.03468 6.10837e-05 8.25224e-05)
(1.03538 1.70326e-05 -0.000281892)
(1.03557 0.000129362 1.25426e-05)
(1.03492 -0.000342448 -4.04146e-06)
(1.03569 0.00112113 -4.49992e-05)
(1.03444 -0.00091979 -1.08409e-05)
(1.03564 0.000551268 -0.000284997)
(1.03466 -3.32011e-05 0.000313678)
(1.03487 -0.000966196 -0.000264571)
(1.03563 0.000895215 -0.0001985)
(1.03402 -0.00104133 0.000208241)
(1.03588 -7.97982e-06 -0.000159946)
(1.03461 -6.01049e-05 1.12553e-05)
(1.03458 -0.000591026 -0.000274949)
(1.03615 0.000360805 -1.89806e-05)
(1.03397 0.000254128 0.000117959)
(1.03453 -0.000696414 -8.7046e-05)
(1.03544 0.00011029 -9.43047e-06)
(1.03422 9.45762e-05 0.000545343)
(1.03502 -0.000738551 0.000214361)
(1.03557 0.000858323 5.40013e-06)
(1.03447 -4.54277e-07 0.000320592)
(1.03459 -0.000395013 -0.000169788)
(1.03512 0.0011208 0.000272384)
(1.0343 -0.000593196 -0.000499627)
(1.03525 0.00086892 -5.66302e-05)
(1.03418 0.00078632 0.000451047)
(1.03482 -0.000634296 -0.000614054)
(1.03511 0.00184156 0.000211881)
(1.03311 -0.000323503 -0.000126607)
(1.03472 -0.000200579 -0.000411838)
(1.0344 -0.000235564 0.000427615)
(1.03398 -0.000396265 -4.98538e-05)
(1.03534 -0.000448249 5.79385e-05)
(1.03474 -0.000661218 0.000433314)
(1.03424 0.000344781 -3.4027e-06)
(1.0353 -0.00101631 0.000299984)
(1.03478 2.49936e-05 0.000366231)
(1.03439 -0.000526814 -0.000248482)
(1.03607 -0.000338989 0.000140501)
(1.03493 -0.000523762 8.97943e-07)
(1.03545 0.000670571 -0.000418439)
(1.03536 -0.000394064 0.000213429)
(1.0354 6.66921e-05 -0.000174263)
(1.03534 0.0012499 2.6411e-05)
(1.0343 -0.0014472 3.89635e-05)
(1.03595 0.0012593 -0.000403146)
(1.03404 -0.000800935 0.000423832)
(1.0353 -0.000683274 -0.000461937)
(1.03556 0.00074986 -0.00013495)
(1.03377 -0.000905323 0.000303041)
(1.03613 0.000121301 -0.0003606)
(1.03444 -0.000536653 7.32727e-05)
(1.03486 -9.14536e-05 -0.000287493)
(1.03633 0.000686784 -0.000282293)
(1.03355 -3.46813e-05 0.000159555)
(1.03459 -0.000486311 -0.000158997)
(1.03562 0.000642061 3.45939e-05)
(1.03387 -0.00056131 0.000870867)
(1.03547 -0.000251943 0.0001569)
(1.03569 0.00113605 0.000280941)
(1.03399 -0.000451735 0.000320822)
(1.03509 -2.55958e-05 -0.000222955)
(1.035 0.00112739 0.000455495)
(1.0343 -0.000538059 -0.000584044)
(1.03563 0.00129543 -0.000118695)
(1.0337 0.000378164 0.000527873)
(1.03523 -0.000151012 -0.000590935)
(1.03509 0.00198351 0.000215309)
(1.03245 -0.000440646 -0.000276502)
(1.03467 -3.13184e-05 -0.0005437)
(1.03435 -0.000777605 0.000687499)
(1.03394 -0.000243317 -0.000149061)
(1.03521 -0.000948482 5.9918e-05)
(1.03502 -0.000612979 0.000807606)
(1.03412 5.39187e-05 -0.00015529)
(1.0352 -0.000875624 0.000485658)
(1.0349 -0.000178076 0.000543185)
(1.03432 -0.000614946 -0.000454664)
(1.03601 -0.000388248 0.000259691)
(1.03533 -0.000943165 -0.00019116)
(1.03546 0.00118351 -0.000516323)
(1.03517 -0.000892633 0.00041624)
(1.03598 0.000780413 -0.00031693)
(1.03471 0.000832059 0.000203418)
(1.03443 -0.00142618 8.67954e-05)
(1.03607 0.00152391 -0.000571231)
(1.0334 -0.00151853 0.000552085)
(1.03587 -0.000365042 -0.000646618)
(1.03548 0.000541643 -8.75233e-05)
(1.03361 -0.000506451 0.000440481)
(1.03612 -8.71164e-05 -0.000548733)
(1.03446 -0.000786388 8.93984e-05)
(1.03536 0.000466126 -0.000285974)
(1.0362 0.000978053 -0.00065336)
(1.0332 -0.000370185 8.62782e-05)
(1.03495 0.000144917 -0.000129131)
(1.03541 0.000826377 0.000114446)
(1.03363 -0.00110112 0.00123117)
(1.03611 0.000426781 0.000287023)
(1.03545 0.000927391 0.000476444)
(1.03369 -0.000618451 0.000366583)
(1.03561 0.000252086 -0.000279857)
(1.03475 0.00100419 0.000508926)
(1.03445 -0.000484391 -0.000593421)
(1.03579 0.00166688 -0.000414263)
(1.0333 -2.479e-07 0.00078005)
(1.03575 0.000568402 -0.000494633)
(1.03493 0.00202907 -5.00559e-06)
(1.03189 -0.000487899 -0.000493846)
(1.03451 3.8081e-05 -0.000578426)
(1.03426 -0.00115949 0.000928932)
(1.03387 -0.000302636 -0.000296425)
(1.0351 -0.00129534 0.000282764)
(1.03531 -0.000630769 0.00109633)
(1.03406 -0.000385883 -0.000326596)
(1.03514 -0.000417231 0.000799158)
(1.03493 -0.000403507 0.000653039)
(1.03424 -0.000647295 -0.000627427)
(1.03587 -0.000663107 0.000342146)
(1.03584 -0.00109817 -0.000480528)
(1.03546 0.00140257 -0.000555823)
(1.03511 -0.000942213 0.000637574)
(1.03641 0.00133951 -0.000395025)
(1.03403 0.000254808 0.000434806)
(1.0347 -0.0011031 0.000129032)
(1.0359 0.00118179 -0.000688017)
(1.03291 -0.00199926 0.000654456)
(1.03651 -0.000190883 -0.000808298)
(1.03546 0.000579079 6.199e-06)
(1.03339 -2.85987e-05 0.000589233)
(1.03596 -0.000536194 -0.000607997)
(1.03475 -0.000833687 6.74109e-05)
(1.03589 0.00102109 -0.000327645)
(1.03584 0.00107673 -0.00115107)
(1.03304 -0.000477951 -0.000139924)
(1.03529 0.000897944 1.37404e-05)
(1.03489 0.000718291 0.000160854)
(1.03361 -0.00108988 0.00166558)
(1.03667 0.000717942 0.000546866)
(1.03506 0.000691723 0.000516192)
(1.03357 -0.000544755 0.000486365)
(1.03604 0.000377516 -0.000439639)
(1.03452 0.000924201 0.000494213)
(1.03468 -0.000345726 -0.000704998)
(1.03587 0.0019805 -0.00089944)
(1.03308 -0.000333227 0.00123362)
(1.0363 0.00139406 -0.000422219)
(1.03451 0.00205972 -0.000364446)
(1.03135 -0.000270003 -0.000794189)
(1.03429 0.000177906 -0.000670829)
(1.03414 -0.00148947 0.00106735)
(1.03383 -0.000611021 -0.000363533)
(1.03499 -0.00143926 0.000682253)
(1.03549 -0.000866407 0.00135167)
(1.0342 -0.000722175 -0.000399594)
(1.03516 0.000280764 0.00122368)
(1.03476 -0.00050424 0.000660179)
(1.03414 -0.000698354 -0.000850765)
(1.03574 -0.00114802 0.000313384)
(1.03642 -0.00110441 -0.000873162)
(1.03552 0.00152782 -0.000550285)
(1.0351 -0.000646086 0.000915831)
(1.0366 0.00155321 -0.000358951)
(1.03337 -0.000169707 0.000757188)
(1.03491 -0.000825358 0.000189446)
(1.03557 0.000573425 -0.000809126)
(1.03262 -0.0023172 0.00063973)
(1.03722 -0.000137645 -0.00088713)
(1.03554 0.00100582 0.0001695)
(1.03299 0.000434866 0.00079415)
(1.03567 -0.00113521 -0.000590649)
(1.03527 -0.000758483 -3.9237e-05)
(1.03637 0.00149256 -0.000400591)
(1.03538 0.00115638 -0.00180596)
(1.03308 -0.000153322 -0.000447131)
(1.03558 0.00145955 0.000212331)
(1.03432 0.000845767 0.000197012)
(1.03361 -0.000804033 0.00221911)
(1.03706 0.000383901 0.000859376)
(1.03474 0.000729711 0.00047083)
(1.03349 -0.000532766 0.000690847)
(1.03638 0.000432934 -0.000770237)
(1.03426 0.000873814 0.000503692)
(1.03494 -0.000236482 -0.00110778)
(1.03576 0.00211313 -0.0015028)
(1.03296 -0.000348758 0.00193586)
(1.03687 0.00231084 -0.000445433)
(1.03405 0.00199614 -0.000962468)
(1.0309 7.27352e-05 -0.00129706)
(1.03387 0.000196509 -0.000852049)
(1.03383 -0.00181854 0.00126325)
(1.03382 -0.00084768 -0.000249915)
(1.03489 -0.0014829 0.00115082)
(1.0356 -0.00142235 0.00155106)
(1.03455 -0.000956125 -0.000422993)
(1.0352 0.0013049 0.00168933)
(1.0344 -0.000375787 0.000643023)
(1.03386 -0.000914166 -0.00107749)
(1.03561 -0.00175531 0.000190195)
(1.0371 -0.00100857 -0.00138331)
(1.03564 0.00179168 -0.000463474)
(1.03505 -0.000168793 0.00132726)
(1.03659 0.00166722 -0.000198776)
(1.03281 -0.000472064 0.00122591)
(1.03503 -0.000919021 0.000409474)
(1.03513 -0.000161294 -0.000879493)
(1.03249 -0.00263822 0.000588516)
(1.03807 -0.000137794 -0.00083778)
(1.03569 0.00196676 0.000389288)
(1.03231 0.000817831 0.00118309)
(1.03534 -0.00200675 -0.000364609)
(1.03597 -0.000628063 -0.000149975)
(1.03678 0.00175196 -0.000575646)
(1.035 0.00126784 -0.00273874)
(1.03316 0.00022788 -0.000923194)
(1.03576 0.00187859 0.000336985)
(1.03374 0.00160135 0.000229815)
(1.03335 -0.000660651 0.00289602)
(1.03738 -0.000416688 0.00115978)
(1.03456 0.000901667 0.000304355)
(1.03337 -0.000693501 0.000787033)
(1.03668 0.000480541 -0.00122765)
(1.03407 0.00078686 0.000583994)
(1.03516 -0.000109297 -0.00188303)
(1.03573 0.00222427 -0.00217721)
(1.03305 -5.26415e-05 0.00284644)
(1.03723 0.00312375 -0.000615881)
(1.03338 0.00223122 -0.00180654)
(1.03043 0.000939734 -0.002209)
(1.03335 0.000325648 -0.00136133)
(1.03355 -0.00213936 0.0015553)
(1.03382 -0.00115869 2.1738e-05)
(1.03457 -0.00159122 0.00169228)
(1.03557 -0.00212764 0.00191146)
(1.03526 -0.000913254 -0.000236429)
(1.03532 0.00276401 0.00219961)
(1.03366 5.51305e-05 0.000514192)
(1.03338 -0.00122806 -0.00143857)
(1.03558 -0.00251324 -0.000173231)
(1.03792 -0.00086859 -0.00205738)
(1.03581 0.00230841 -0.000265199)
(1.03492 0.000372982 0.00192588)
(1.03634 0.00187116 0.000166952)
(1.03213 -0.000580653 0.00187148)
(1.03499 -0.0012923 0.00067468)
(1.03472 -0.000829397 -0.00106592)
(1.03251 -0.00291762 0.000452826)
(1.03914 -6.7839e-05 -0.000572865)
(1.03587 0.00360962 0.000776818)
(1.03116 0.00104643 0.00179974)
(1.03495 -0.00317046 -7.98065e-05)
(1.03683 -0.000542399 -0.000295695)
(1.03711 0.00193539 -0.000774107)
(1.03463 0.00171995 -0.003838)
(1.0333 0.000564717 -0.00159203)
(1.03612 0.00247197 0.000418942)
(1.03312 0.00284113 0.000347832)
(1.03262 -0.00090714 0.0036347)
(1.03765 -0.0014239 0.00139744)
(1.03451 0.00118815 0.000103505)
(1.0332 -0.000974962 0.000761723)
(1.03693 0.00051423 -0.00189472)
(1.03381 0.000781921 0.000623205)
(1.0353 -0.000460088 -0.00331797)
(1.03562 0.00232048 -0.00302622)
(1.03312 0.000723073 0.00415454)
(1.03752 0.00383896 -0.000849768)
(1.03282 0.00269572 -0.00324763)
(1.02986 0.00192585 -0.00394274)
(1.03243 0.000353561 -0.00211774)
(1.03296 -0.00214675 0.00210988)
(1.03369 -0.00119049 0.000376792)
(1.0341 -0.00190453 0.00212179)
(1.03551 -0.003201 0.00215029)
(1.03625 -0.000676423 -0.000117987)
(1.03542 0.00481953 0.00280253)
(1.03253 0.000850924 0.000470523)
(1.03251 -0.00157867 -0.00193976)
(1.03551 -0.00326929 -0.000835344)
(1.03892 -0.000461647 -0.00282922)
(1.03602 0.00314262 6.24791e-05)
(1.03464 0.00105731 0.00271052)
(1.03593 0.0023768 0.000728985)
(1.03135 -0.000856766 0.00289995)
(1.03484 -0.00232247 0.00129888)
(1.03435 -0.00147349 -0.0012871)
(1.03258 -0.00321832 0.000413754)
(1.04044 0.000304384 -0.000232596)
(1.03597 0.00608558 0.00123076)
(1.02946 0.000733265 0.00295697)
(1.03454 -0.00493279 0.00061383)
(1.03783 -0.000629815 -0.000381012)
(1.03746 0.00205223 -0.00114203)
(1.03427 0.00193946 -0.00538804)
(1.03335 0.000455407 -0.00279373)
(1.03658 0.00354953 0.000187931)
(1.03226 0.00481356 0.000471419)
(1.03141 -0.00150424 0.00452613)
(1.038 -0.00288838 0.00157203)
(1.03454 0.00134767 -0.000490669)
(1.0329 -0.00129649 0.000391171)
(1.03717 0.000837792 -0.00257326)
(1.03356 0.0008164 0.000568859)
(1.03531 -0.000929345 -0.00533318)
(1.03584 0.00273755 -0.00407707)
(1.03325 0.00176792 0.00564933)
(1.03743 0.00460643 -0.00142687)
(1.03196 0.0040972 -0.00562143)
(1.02898 0.00384942 -0.0068736)
(1.03139 0.000846141 -0.0034371)
(1.03238 -0.00204843 0.00267433)
(1.03316 -0.00126637 0.000599574)
(1.03298 -0.00220146 0.0022839)
(1.03527 -0.00415255 0.00226306)
(1.03764 6.61475e-05 -4.08275e-05)
(1.03554 0.00754095 0.00336856)
(1.03085 0.00210087 0.000142297)
(1.03122 -0.00169626 -0.00311664)
(1.03547 -0.00415381 -0.00210766)
(1.04007 7.07012e-05 -0.00374532)
(1.03622 0.00450343 0.000596304)
(1.03423 0.00201306 0.00374289)
(1.03511 0.00339807 0.00131646)
(1.03007 -0.00099711 0.00404473)
(1.03469 -0.0037769 0.00206397)
(1.03422 -0.00201055 -0.00166543)
(1.03276 -0.00358956 0.000358651)
(1.04203 0.00124969 0.000261776)
(1.0357 0.00967824 0.00200669)
(1.02693 -1.91062e-05 0.00463943)
(1.03417 -0.0072763 0.00117932)
(1.03899 -0.000986316 -0.000529645)
(1.03754 0.00241409 -0.00136685)
(1.03362 0.00232955 -0.00718644)
(1.03357 0.000167685 -0.00439304)
(1.03752 0.00508207 -0.000185039)
(1.03104 0.00726635 0.000491647)
(1.02931 -0.00217968 0.00526209)
(1.03823 -0.00427951 0.0016246)
(1.03467 0.00164507 -0.00137281)
(1.0326 -0.00165733 -0.000643735)
(1.03729 0.0014536 -0.00375084)
(1.03287 0.00112343 0.000316397)
(1.03527 -0.00230232 -0.00896742)
(1.03605 0.00322048 -0.00529562)
(1.03331 0.00344508 0.00811709)
(1.03745 0.00573361 -0.00245304)
(1.03111 0.0057035 -0.0102747)
(1.02743 0.005653 -0.0118755)
(1.02945 0.00143331 -0.00519968)
(1.03117 -0.00142049 0.00312419)
(1.03213 -0.000963685 -0.000100474)
(1.03132 -0.00253635 0.000748314)
(1.03478 -0.00517029 0.00053299)
(1.03903 0.0012363 -0.000907901)
(1.03535 0.0111578 0.00414422)
(1.02865 0.00410442 -0.000509119)
(1.02927 -0.00149678 -0.00560879)
(1.03514 -0.0047947 -0.00416322)
(1.04153 0.00122228 -0.00437881)
(1.03658 0.00652855 0.00145127)
(1.03381 0.00367394 0.00496641)
(1.03405 0.00534723 0.00195189)
(1.02844 -0.00112515 0.0057774)
(1.03474 -0.00552689 0.00375835)
(1.03444 -0.00223203 -0.0020589)
(1.03314 -0.00378225 0.000135721)
(1.04386 0.00352706 0.000154417)
(1.03494 0.0144424 0.00281789)
(1.02351 -0.00185421 0.00754601)
(1.03372 -0.010669 0.00225095)
(1.04029 -0.00133082 -0.000950628)
(1.03738 0.00305918 -0.0022104)
(1.03229 0.00200166 -0.0100128)
(1.03337 -0.000728109 -0.00724374)
(1.03854 0.00761657 -0.00121521)
(1.02949 0.0107725 0.000325896)
(1.02644 -0.00310266 0.00610144)
(1.03811 -0.00611301 0.00157768)
(1.03447 0.00193683 -0.00306064)
(1.03215 -0.00148162 -0.00243362)
(1.03735 0.00284959 -0.00511259)
(1.0319 0.00108594 -0.000622905)
(1.03562 -0.00335398 -0.0135978)
(1.0372 0.0037786 -0.00699693)
(1.03402 0.00486859 0.0110614)
(1.03809 0.00704914 -0.00374516)
(1.03065 0.00918655 -0.0165474)
(1.02578 0.00942077 -0.0187118)
(1.02781 0.00230146 -0.00787459)
(1.03026 -0.00121343 0.00309114)
(1.03056 -0.00131317 -0.00165141)
(1.02876 -0.00255073 -0.00264084)
(1.03409 -0.00564865 -0.00344821)
(1.0406 0.00344486 -0.00321601)
(1.0346 0.0158182 0.00428078)
(1.02578 0.00660013 -0.00265145)
(1.0269 -0.000998132 -0.0106075)
(1.03461 -0.00580871 -0.00798308)
(1.04304 0.00252076 -0.00530709)
(1.03708 0.00977149 0.00248978)
(1.03386 0.00625597 0.00626939)
(1.03304 0.00926988 0.00228166)
(1.02647 -0.000188453 0.00749066)
(1.0351 -0.0073585 0.00598226)
(1.03535 -0.00203711 -0.00262949)
(1.03431 -0.0036149 -0.000462058)
(1.04635 0.00776542 0.000137192)
(1.0333 0.0218829 0.00445649)
(1.01743 -0.00327945 0.010383)
(1.03182 -0.0143515 0.0019308)
(1.04125 -0.00162616 -0.00166613)
(1.03621 0.00467862 -0.00293373)
(1.03002 0.00250116 -0.0133998)
(1.03338 -0.00168256 -0.0106385)
(1.04002 0.0112307 -0.00293693)
(1.02757 0.0157605 -0.00101536)
(1.02209 -0.00286523 0.00665526)
(1.03723 -0.00673657 0.00230613)
(1.03454 0.00254271 -0.00502243)
(1.03227 -0.000716751 -0.00594408)
(1.03683 0.00535281 -0.0076475)
(1.02974 0.0019796 -0.00201077)
(1.03657 -0.00628246 -0.0197559)
(1.03944 0.00411235 -0.0072115)
(1.03591 0.00726787 0.0170575)
(1.04287 0.00773998 -0.0038038)
(1.03589 0.0110549 -0.0238023)
(1.02795 0.0134374 -0.0258763)
(1.02874 0.00459042 -0.00928834)
(1.03159 -2.10397e-05 0.00405867)
(1.03127 -0.000225797 -0.002724)
(1.02829 -0.00153574 -0.00668871)
(1.03373 -0.006247 -0.00966442)
(1.04133 0.0060621 -0.00650623)
(1.03327 0.0224804 0.00513872)
(1.02291 0.0103946 -0.00551358)
(1.0253 -0.000150252 -0.0174405)
(1.03388 -0.00650634 -0.01351)
(1.04456 0.00431989 -0.00764543)
(1.03828 0.0134207 0.00210652)
(1.03461 0.00945209 0.00763446)
(1.03459 0.014568 0.00407332)
(1.02549 0.00230938 0.00861203)
(1.03281 -0.00785394 0.00516504)
(1.03531 -0.00143985 -0.00604552)
(1.03631 -0.00335097 -0.00270324)
(1.05268 0.0140483 -0.000249173)
(1.03452 0.0322538 0.00691828)
(1.00533 -0.00383064 0.0121889)
(1.02114 -0.0179637 -0.00171071)
(1.03627 -0.00155606 -0.00542869)
(1.03208 0.00661283 -0.00548623)
(1.0277 0.00238317 -0.0187999)
(1.0347 -0.0030401 -0.0154264)
(1.04243 0.0157969 -0.00589629)
(1.02714 0.0213356 -0.00343662)
(1.01807 -0.00344169 0.0078262)
(1.03608 -0.00765153 0.0055369)
(1.03641 0.0028297 -0.00401234)
(1.03375 0.000497869 -0.00776781)
(1.03615 0.00893543 -0.0101131)
(1.027 0.00204102 -0.00502768)
(1.03854 -0.00974331 -0.0264319)
(1.04435 0.00165292 -0.00636355)
(1.0365 0.00711686 0.0254811)
(1.04626 0.00755554 0.000487156)
(1.04541 0.0143348 -0.0261254)
(1.03824 0.0185035 -0.0310419)
(1.03574 0.00517548 -0.011589)
(1.03836 -0.00318003 0.00439354)
(1.03618 -0.00349014 0.000245183)
(1.03172 -0.00114555 -0.00326233)
(1.03508 -0.00476366 -0.0115026)
(1.0413 0.0103723 -0.00928352)
(1.03138 0.0301952 0.00557094)
(1.01901 0.0137659 -0.00844962)
(1.02578 0.00062959 -0.0231148)
(1.03283 -0.00772205 -0.0207832)
(1.04346 0.00563346 -0.016438)
(1.0389 0.0171659 -0.00433104)
(1.03331 0.0121482 0.00691402)
(1.03672 0.0200126 0.00797651)
(1.02544 0.00548668 0.00800228)
(1.02421 -0.00884437 -0.00516228)
(1.0289 -0.00237609 -0.018819)
(1.03609 -0.00458556 -0.00969222)
(1.0619 0.0204866 0.000324325)
(1.03903 0.0463236 0.00954329)
(0.990689 -0.000830925 0.00816993)
(1.00106 -0.0206968 -0.0145396)
(1.01556 -0.00270519 -0.0170513)
(1.01254 0.00642325 -0.0119726)
(1.01644 0.00157667 -0.0255882)
(1.03353 -0.00457084 -0.019943)
(1.04439 0.0219249 -0.00940446)
(1.02659 0.0278303 -0.00939214)
(1.01607 -0.00462937 0.00574184)
(1.03609 -0.00970721 0.00875496)
(1.03923 0.00297725 5.38765e-06)
(1.03372 0.00186014 -0.0067169)
(1.03522 0.0129887 -0.00994093)
(1.02453 0.00309237 -0.00642895)
(1.03808 -0.0124705 -0.0308988)
(1.04848 0.0037213 -0.00209388)
(1.03349 0.00742519 0.0348692)
(1.0442 3.90997e-05 0.00201898)
(1.05148 0.0111753 -0.0244697)
(1.04757 0.0259812 -0.0278118)
(1.03983 0.0116528 -0.0154804)
(1.04354 -0.00315213 -0.00231339)
(1.03987 -0.00415772 0.00476179)
(1.03461 0.000386914 0.0119003)
(1.03409 -0.0032815 -0.00320648)
(1.03407 0.0160091 -0.00943763)
(1.02598 0.0429149 0.00732208)
(1.01563 0.0213431 -0.00655454)
(1.0307 0.00412713 -0.0246493)
(1.03269 -0.00749947 -0.0264307)
(1.03915 0.00549317 -0.0296885)
(1.0381 0.0205069 -0.0147843)
(1.02935 0.0174534 0.00793996)
(1.03831 0.0267782 0.0176846)
(1.03339 0.00728946 0.0138496)
(1.02608 -0.0129084 -0.0198435)
(1.02623 -0.00604263 -0.0418906)
(1.03313 -0.00636985 -0.0204543)
(1.06556 0.0288829 0.000931991)
(1.04959 0.0623304 0.0103694)
(1.00156 0.00475696 0.0043326)
(1.00256 -0.0213092 -0.0291282)
(0.997475 -0.00286739 -0.0325068)
(0.982069 0.00238545 -0.0189252)
(0.986785 -0.00388969 -0.0330247)
(1.01469 -0.00758734 -0.0246874)
(1.039 0.026221 -0.0145172)
(1.01789 0.032804 -0.0176764)
(1.01325 -0.00509547 0.00152704)
(1.04025 -0.0114639 0.00554464)
(1.03827 0.00135429 0.000837519)
(1.02408 0.0040495 -0.00513384)
(1.03393 0.017888 -0.00983384)
(1.02371 0.00179757 -0.00706593)
(1.03078 -0.0134564 -0.0363631)
(1.05441 0.00599946 0.00137098)
(1.03109 0.010791 0.0460971)
(1.04105 -0.00114592 0.00492312)
(1.04816 0.0130792 -0.018405)
(1.03972 0.0323573 -0.0253856)
(1.04152 0.0133516 -0.0264521)
(1.05366 -0.00874638 -0.0157724)
(1.04591 -0.00848536 0.00735077)
(1.02458 0.000696263 0.0304261)
(1.02173 -0.00168513 0.00540905)
(1.02948 0.0191577 -0.0131562)
(1.02096 0.0504424 0.0104427)
(1.00161 0.0285849 -0.00141575)
(1.02151 0.0107444 -0.0253)
(1.03026 -0.0047562 -0.0305325)
(1.04047 0.00405471 -0.03848)
(1.03767 0.0228025 -0.0204259)
(1.01403 0.0246879 0.0051075)
(1.02191 0.0308381 0.0214871)
(1.03433 0.00393036 0.0251918)
(1.04442 -0.0190328 -0.0254173)
(1.04284 -0.0106364 -0.0586076)
(1.03379 -0.0101967 -0.0274833)
(1.05543 0.0332199 0.00116106)
(1.05893 0.0729581 0.00839153)
(1.04499 0.00757724 0.00333259)
(1.03388 -0.0236 -0.0366482)
(1.00454 -0.00276174 -0.0394074)
(0.958995 -0.00111547 -0.0157137)
(0.943334 -0.0103069 -0.036778)
(0.967992 -0.0154711 -0.0283209)
(1.00742 0.0247529 -0.0149022)
(0.996623 0.0349295 -0.0201753)
(1.00252 -0.00641977 0.00182372)
(1.03251 -0.0110982 0.00396291)
(1.02116 0.00290145 0.000524351)
(1.00631 0.00642393 -0.00823175)
(1.02552 0.0196922 -0.0085743)
(1.01012 0.00130093 -0.0017219)
(1.02111 -0.0146217 -0.0444843)
(1.06339 0.00971662 0.00364524)
(1.03574 0.0196782 0.0519729)
(1.05144 0.00337071 -0.00336656)
(1.04777 0.0168971 -0.0173071)
(1.02718 0.0363228 -0.0161911)
(1.05037 0.0142518 -0.0276239)
(1.07485 -0.00365934 -0.0258386)
(1.06173 -0.0014241 0.0070334)
(1.02562 0.000571519 0.0417742)
(1.03079 -0.00888082 0.0143994)
(1.04376 0.020544 -0.00455007)
(1.01028 0.065088 0.0190643)
(0.981195 0.0383782 -0.00102749)
(1.01462 0.0112959 -0.0282525)
(1.04228 -0.0106457 -0.0287092)
(1.05243 -0.0013509 -0.0387704)
(1.04613 0.0307487 -0.0226175)
(1.01548 0.0376478 -0.00350745)
(1.00501 0.0312456 0.0164428)
(1.00461 -0.00606378 0.0272259)
(1.02721 -0.0310921 -0.0373093)
(1.04074 -0.0159453 -0.0727448)
(1.02334 -0.00896496 -0.0314443)
(1.01856 0.0446193 0.0013191)
(1.05217 0.0838528 0.00390675)
(1.10232 0.00479483 0.00396111)
(1.08429 -0.0265337 -0.0326491)
(1.03328 0.00347314 -0.028686)
(0.946817 0.00319133 -0.00768472)
(0.907361 -0.0134408 -0.0348444)
(0.918462 -0.0273062 -0.019667)
(0.954249 0.0151631 -0.010447)
(0.974473 0.03506 -0.020848)
(0.993722 -0.00332833 0.0122902)
(1.01198 -0.0135702 0.00920238)
(0.998806 0.00238583 -0.00625962)
(0.985094 0.0120701 -0.017094)
(1.0012 0.0221701 -0.00521693)
(0.984012 0.00071424 0.00511073)
(1.00267 -0.0192357 -0.0566414)
(1.05072 0.0119964 0.00211193)
(1.04135 0.0251878 0.0569065)
(1.07598 0.00573132 -0.0106706)
(1.05115 0.026398 -0.0164785)
(1.01658 0.0445457 -0.010624)
(1.05192 0.017813 -0.0279594)
(1.07579 0.00758064 -0.0327966)
(1.08055 0.00718564 -0.00305521)
(1.05266 -0.00372105 0.0414405)
(1.05153 -0.0218366 0.0297441)
(1.04054 0.0232486 0.0125861)
(0.99468 0.0840199 0.0185575)
(0.98333 0.0405003 -0.00419555)
(1.04319 0.00353775 -0.0323851)
(1.06513 -0.0215858 -0.023035)
(1.0531 -0.0141876 -0.03453)
(1.07419 0.0350442 -0.0218689)
(1.04016 0.0483769 -0.013587)
(1.01394 0.035641 -0.000494801)
(1.00563 -0.00814999 0.0167163)
(0.982326 -0.0442086 -0.055359)
(0.995585 -0.0256777 -0.0804952)
(0.985837 -0.00955136 -0.0221654)
(0.958836 0.0542533 0.00265694)
(1.07842 0.0864255 0.000415186)
(1.1327 -0.0128373 0.0171915)
(1.09985 -0.0323241 -0.0160341)
(1.05757 0.0132423 -0.015323)
(0.944552 0.0144781 -0.00452487)
(0.905389 -0.0147457 -0.0277265)
(0.888659 -0.0334972 -0.000293205)
(0.907443 0.00837492 -0.00226226)
(0.964487 0.0321625 -0.010095)
(0.995973 -0.000876963 0.0346746)
(0.984361 -0.0170038 0.0186486)
(0.974543 0.00277398 -0.0136467)
(0.963416 0.0165005 -0.0267858)
(0.982112 0.0254167 -0.00238158)
(0.972013 0.00110658 0.00589298)
(0.957351 -0.026485 -0.0716965)
(0.997454 0.0146444 0.00172837)
(1.02733 0.0278203 0.0663946)
(1.0737 0.0140641 -0.0112249)
(1.02184 0.0434802 -0.0386458)
(0.998981 0.0502267 -0.0411946)
(1.02658 0.0218074 -0.0288898)
(1.05499 0.0107734 -0.0163839)
(1.13734 0.00287901 0.00208627)
(1.08869 -0.0110163 0.0362207)
(1.04465 -0.0296277 0.018388)
(1.02265 0.0338148 0.00821923)
(1.00357 0.0987832 0.0189405)
(0.975049 0.0361161 0.00852515)
(1.06125 -0.003059 -0.0434214)
(1.08553 -0.0281682 -0.0326604)
(1.02245 -0.0184101 -0.0114884)
(1.05022 0.0421059 0.00464476)
(0.999118 0.0519331 -0.010147)
(1.02363 0.033725 0.00527121)
(1.07865 -0.00832334 0.0158637)
(0.956635 -0.050558 -0.065791)
(0.92655 -0.0274521 -0.0643462)
(0.87176 0.00042089 0.00719461)
(0.866042 0.069795 0.00348654)
(1.14991 0.0810374 0.0166018)
(1.07017 -0.0331475 0.0385092)
(0.969773 -0.03981 -0.0157084)
(0.986639 0.0229123 -0.0182974)
(0.91445 0.0213313 -0.0065347)
(0.921616 -0.0156128 -0.0231269)
(0.850499 -0.0286304 0.0271524)
(0.853919 0.00933043 0.000274774)
(0.967597 0.0334816 -0.00111268)
(1.00651 0.0022175 0.0582954)
(0.94182 -0.0201718 0.0274082)
(0.924288 0.00306329 -0.0335539)
(0.916603 0.0159735 -0.0607215)
(0.944765 0.021793 -0.00971582)
(0.957447 -0.00591899 -0.00158352)
(0.877908 -0.032103 -0.0930637)
(0.953014 0.0133539 0.034144)
(0.977017 0.0198922 0.0819323)
(1.04321 0.0139696 -0.0273686)
(1.03403 0.0528595 -0.0393073)
(1.01613 0.0596153 -0.0222167)
(1.01728 0.0356552 0.00809001)
(1.1062 0.00130316 0.0114376)
(1.17572 -0.00666673 0.00941924)
(1.0067 -0.00811675 0.00855717)
(0.956845 -0.0322895 -0.00810662)
(0.973298 0.0445942 -0.0096816)
(1.01752 0.110655 0.0179874)
(0.955798 0.0252123 0.0199501)
(1.09281 -0.0248485 -0.0509577)
(1.08931 -0.0393729 -0.0230348)
(0.926888 -0.00859322 0.0219427)
(1.00294 0.0666004 0.00458512)
(0.975121 0.0496341 -0.00815215)
(1.07685 0.0142711 0.0215026)
(1.18809 -0.0172972 0.0136596)
(0.921231 -0.0542454 -0.0567224)
(0.824689 -0.0187856 -0.0575352)
(0.763185 0.0200989 0.0126413)
(0.85004 0.066279 0.0268418)
(1.19176 0.0564516 0.0369323)
(0.951951 -0.0349442 0.0300838)
(0.806286 -0.0378299 -0.0325548)
(0.882951 0.0244557 -0.0319597)
(0.852899 0.00768744 -0.00557466)
(0.914358 -0.015276 -0.00757999)
(0.787819 -0.0117637 0.0429298)
(0.793416 0.00168782 -0.0142316)
(0.981784 0.0302998 -0.00304164)
(1.08883 0.00442388 0.066359)
(0.848803 -0.0256079 -0.00213111)
(0.791444 0.00693976 -0.0568473)
(0.832117 0.0148529 -0.0546017)
(0.892877 0.0199569 0.0190122)
(0.946591 -0.00837221 0.00464707)
(0.725769 -0.0383242 -0.0893762)
(0.899624 0.00215298 0.0790144)
(0.873721 -1.47776e-05 0.0528956)
(0.922636 0.00198176 -0.0704218)