/*--------------------------------*- C++ -*----------------------------------*\
  =========                 |
  \\      /  F ield         | OpenFOAM: The Open Source CFD Toolbox
   \\    /   O peration     | Website:  https://openfoam.org
    \\  /    A nd           | Version:  10
     \\/     M anipulation  |
\*---------------------------------------------------------------------------*/
FoamFile
{
    format      ascii;
    class       volVectorField;
    location    "10";
    object      UMean;
}
// * * * * * * * * * * * * * * * * * * * * * * * * * * * * * * * * * * * * * //

dimensions      [0 1 -1 0 0 0 0];

internalField   nonuniform List<vector> 
25600
(
(1.05454 -1.11162e-06 1.14533e-06)
(1.05454 3.96991e-08 1.21671e-06)
(1.05454 -5.36239e-07 9.71121e-07)
(1.05454 8.00175e-07 1.24184e-06)
(1.05454 -2.78007e-07 9.55023e-07)
(1.05454 1.17735e-06 1.12513e-06)
(1.05454 2.64557e-07 1.11975e-06)
(1.05454 5.8407e-07 1.0772e-06)
(1.05454 8.72352e-07 1.05387e-06)
(1.05454 3.52342e-07 1.14625e-06)
(1.05454 1.17558e-06 9.24192e-07)
(1.05454 -1.94717e-07 1.10175e-06)
(1.05454 7.06158e-07 1.0556e-06)
(1.05454 7.3949e-09 9.07164e-07)
(1.05454 2.91074e-07 1.05645e-06)
(1.05454 7.92573e-07 9.28099e-07)
(1.05454 -2.197e-07 9.41362e-07)
(1.05454 6.35835e-07 8.83338e-07)
(1.05454 -1.62073e-07 7.73976e-07)
(1.05454 4.80316e-07 8.56765e-07)
(1.05454 1.27686e-07 8.63368e-07)
(1.05454 1.38697e-07 5.13727e-07)
(1.05454 6.35439e-07 9.2791e-07)
(1.05454 4.00645e-08 4.05502e-07)
(1.05454 5.28578e-07 7.48916e-07)
(1.05454 -2.37821e-07 7.56516e-07)
(1.05454 3.63635e-07 2.36431e-07)
(1.05454 4.58611e-07 1.05862e-06)
(1.05454 -8.16899e-08 1.99037e-07)
(1.05454 1.05636e-06 8.41334e-07)
(1.05454 -3.18325e-07 7.87981e-07)
(1.05454 4.93508e-07 4.90401e-07)
(1.05454 -6.27041e-08 1.05654e-06)
(1.05454 -1.16987e-08 7.89492e-07)
(1.05454 5.76867e-07 9.22837e-07)
(1.05454 -8.65274e-07 1.02058e-06)
(1.05454 9.97953e-07 1.08155e-06)
(1.05454 -8.7172e-07 8.97895e-07)
(1.05454 6.08539e-07 1.29767e-06)
(1.05454 -9.63235e-07 9.04911e-07)
(1.05454 4.65245e-07 1.43826e-06)
(1.05454 6.36018e-08 1.21025e-06)
(1.05454 2.90229e-07 1.13374e-06)
(1.05454 7.62043e-07 1.3047e-06)
(1.05454 1.55744e-08 9.98935e-07)
(1.05454 1.26743e-06 1.31289e-06)
(1.05454 1.38932e-07 9.82259e-07)
(1.05454 1.31621e-06 1.33649e-06)
(1.05454 5.24538e-07 9.49173e-07)
(1.05454 9.88337e-07 1.22908e-06)
(1.05454 1.07718e-06 1.03379e-06)
(1.05454 5.17478e-07 9.71702e-07)
(1.05454 1.0856e-06 1.28807e-06)
(1.05454 3.58842e-07 7.8514e-07)
(1.05454 9.21992e-07 1.16155e-06)
(1.05454 2.20394e-07 9.86097e-07)
(1.05454 6.47759e-07 8.82463e-07)
(1.05454 8.49419e-08 1.01447e-06)
(1.05454 3.13055e-07 7.92465e-07)
(1.05454 3.62067e-08 9.18364e-07)
(1.05454 1.29822e-07 9.58951e-07)
(1.05454 1.11099e-07 5.69594e-07)
(1.05454 1.62781e-07 1.00482e-06)
(1.05454 1.70973e-07 5.36905e-07)
(1.05454 1.17445e-07 8.15657e-07)
(1.05454 2.98386e-07 8.31632e-07)
(1.05454 1.38826e-07 4.27731e-07)
(1.05454 5.41142e-07 1.01588e-06)
(1.05454 1.38564e-07 4.24179e-07)
(1.05454 6.06101e-07 9.29261e-07)
(1.05454 1.23411e-08 8.3631e-07)
(1.05454 6.27152e-07 8.25188e-07)
(1.05454 -8.62319e-08 9.60396e-07)
(1.05454 4.14338e-07 1.15325e-06)
(1.05454 1.40172e-07 9.70246e-07)
(1.05454 -1.90925e-07 1.20661e-06)
(1.05454 5.24858e-07 1.30625e-06)
(1.05454 -4.58405e-07 9.28505e-07)
(1.05454 6.51852e-07 1.62596e-06)
(1.05454 -4.22541e-07 8.70294e-07)
(1.05454 7.95519e-07 1.89133e-06)
(1.05454 -2.89589e-07 1.43629e-06)
(1.05454 9.25457e-07 1.74965e-06)
(1.05454 3.68994e-07 1.39085e-06)
(1.05454 7.15587e-07 1.536e-06)
(1.05454 1.07876e-06 1.55973e-06)
(1.05454 6.76415e-07 1.2178e-06)
(1.05454 1.54608e-06 1.77161e-06)
(1.05454 6.81724e-07 1.04677e-06)
(1.05454 1.69455e-06 1.64054e-06)
(1.05454 7.77631e-07 1.20917e-06)
(1.05454 1.49453e-06 1.24804e-06)
(1.05454 7.0727e-07 1.52074e-06)
(1.05454 1.11484e-06 9.95897e-07)
(1.05454 9.09702e-07 1.39997e-06)
(1.05454 4.22728e-07 1.15553e-06)
(1.05454 1.09077e-06 1.13105e-06)
(1.05454 -8.92222e-08 1.19414e-06)
(1.05454 9.22322e-07 1.05299e-06)
(1.05454 -1.92024e-07 1.11865e-06)
(1.05454 6.74031e-07 1.16279e-06)
(1.05454 4.84152e-08 8.68545e-07)
(1.05454 5.87001e-07 1.19678e-06)
(1.05454 3.61089e-07 8.00244e-07)
(1.05454 3.85048e-07 1.09122e-06)
(1.05454 5.45626e-07 9.44299e-07)
(1.05454 5.28016e-07 8.7016e-07)
(1.05454 6.8203e-07 1.01541e-06)
(1.05454 6.28448e-07 8.41134e-07)
(1.05454 6.91404e-07 1.13927e-06)
(1.05454 4.31467e-07 9.7505e-07)
(1.05454 7.93425e-07 1.37722e-06)
(1.05454 9.25738e-10 9.61725e-07)
(1.05454 9.28642e-07 1.71741e-06)
(1.05454 -2.07694e-07 1.21691e-06)
(1.05454 5.69057e-07 1.59709e-06)
(1.05454 5.85299e-08 1.67515e-06)
(1.05454 1.60628e-07 1.35983e-06)
(1.05454 5.13728e-07 1.97545e-06)
(1.05454 -3.02888e-07 1.34098e-06)
(1.05454 8.4199e-07 2.25214e-06)
(1.05454 2.05629e-07 1.84662e-06)
(1.05454 1.38201e-06 2.26375e-06)
(1.05454 5.24483e-07 1.59018e-06)
(1.05454 1.38258e-06 2.12376e-06)
(1.05454 1.10123e-06 1.73247e-06)
(1.05454 1.44784e-06 1.72495e-06)
(1.05454 1.58661e-06 1.99328e-06)
(1.05454 1.52207e-06 1.464e-06)
(1.05454 1.84718e-06 1.95138e-06)
(1.05454 1.36425e-06 1.51369e-06)
(1.05454 2.08792e-06 1.66619e-06)
(1.05454 9.06329e-07 1.65204e-06)
(1.05454 1.98959e-06 1.46398e-06)
(1.05454 7.53019e-07 1.54432e-06)
(1.05454 1.18363e-06 1.46232e-06)
(1.05454 9.40568e-07 1.47057e-06)
(1.05454 4.14257e-07 1.39265e-06)
(1.05454 9.3278e-07 1.46037e-06)
(1.05454 3.05499e-08 1.34871e-06)
(1.05454 1.01667e-06 1.44859e-06)
(1.05454 -4.38268e-08 1.28973e-06)
(1.05454 1.19563e-06 1.38194e-06)
(1.05454 1.92136e-07 1.18917e-06)
(1.05454 1.16492e-06 1.38095e-06)
(1.05454 4.73739e-07 1.11951e-06)
(1.05454 1.33311e-06 1.33784e-06)
(1.05454 6.33888e-07 1.07957e-06)
(1.05454 1.26599e-06 1.31024e-06)
(1.05454 8.4511e-07 1.35681e-06)
(1.05454 8.84695e-07 1.29527e-06)
(1.05454 1.06642e-06 1.85127e-06)
(1.05454 3.0119e-07 1.20285e-06)
(1.05454 1.26431e-06 2.26548e-06)
(1.05454 -1.76369e-07 1.56853e-06)
(1.05454 1.13552e-06 2.14939e-06)
(1.05454 -2.25911e-07 2.04777e-06)
(1.05454 9.09079e-07 2.03487e-06)
(1.05454 1.42323e-07 2.26636e-06)
(1.05454 5.53312e-07 2.02104e-06)
(1.05454 6.05991e-07 2.72353e-06)
(1.05454 1.09307e-06 2.50472e-06)
(1.05454 1.26112e-06 2.75012e-06)
(1.05454 1.18879e-06 2.17402e-06)
(1.05454 1.51134e-06 2.64333e-06)
(1.05454 1.6546e-06 2.19499e-06)
(1.05454 1.80866e-06 2.35379e-06)
(1.05454 1.97365e-06 2.30049e-06)
(1.05454 2.21496e-06 2.14933e-06)
(1.05454 2.07815e-06 2.27202e-06)
(1.05454 2.2387e-06 2.11163e-06)
(1.05454 2.2121e-06 2.12312e-06)
(1.05454 1.73058e-06 2.00836e-06)
(1.05454 2.16341e-06 2.05913e-06)
(1.05454 1.16981e-06 1.82537e-06)
(1.05454 1.63861e-06 1.96402e-06)
(1.05454 8.52811e-07 1.89918e-06)
(1.05454 1.165e-06 1.75396e-06)
(1.05454 5.91611e-07 1.996e-06)
(1.05454 9.30757e-07 1.68028e-06)
(1.05454 8.33625e-07 1.95796e-06)
(1.05454 5.90407e-07 1.74339e-06)
(1.05454 1.4934e-06 1.82866e-06)
(1.05454 5.74034e-07 1.64659e-06)
(1.05454 1.95578e-06 1.79442e-06)
(1.05454 5.22218e-07 1.49036e-06)
(1.05454 2.48306e-06 1.76719e-06)
(1.05454 4.80219e-07 1.42562e-06)
(1.05454 2.49859e-06 1.74744e-06)
(1.05454 8.18872e-07 1.74732e-06)
(1.05454 1.9086e-06 1.78966e-06)
(1.05454 1.11257e-06 2.28076e-06)
(1.05454 1.09574e-06 1.81925e-06)
(1.05454 1.32228e-06 2.73769e-06)
(1.05454 3.92433e-07 2.20617e-06)
(1.05454 1.27698e-06 2.83299e-06)
(1.05454 1.18406e-07 2.5651e-06)
(1.05454 1.33342e-06 2.89738e-06)
(1.05454 1.67924e-07 2.70226e-06)
(1.05454 1.46562e-06 2.87611e-06)
(1.05454 1.01334e-06 3.3698e-06)
(1.05454 1.90761e-06 3.30712e-06)
(1.05454 1.41511e-06 3.3279e-06)
(1.05454 2.14755e-06 3.03129e-06)
(1.05454 1.58421e-06 3.16391e-06)
(1.05454 2.72742e-06 2.97631e-06)
(1.05454 1.91677e-06 2.95929e-06)
(1.05454 3.01332e-06 2.93854e-06)
(1.05454 2.56723e-06 2.85349e-06)
(1.05454 3.03529e-06 2.86001e-06)
(1.05454 2.84311e-06 2.80604e-06)
(1.05454 2.89103e-06 2.6912e-06)
(1.05454 2.56059e-06 2.57623e-06)
(1.05454 2.47371e-06 2.66954e-06)
(1.05454 1.98497e-06 2.34259e-06)
(1.05454 1.71629e-06 2.56295e-06)
(1.05454 1.43788e-06 2.42817e-06)
(1.05454 1.38633e-06 2.33264e-06)
(1.05454 9.06413e-07 2.56578e-06)
(1.05454 1.53948e-06 2.23581e-06)
(1.05454 9.09365e-07 2.57676e-06)
(1.05454 1.49443e-06 2.30101e-06)
(1.05454 1.56186e-06 2.50953e-06)
(1.05454 1.64323e-06 2.12869e-06)
(1.05454 2.22201e-06 2.42589e-06)
(1.05454 1.45674e-06 1.95748e-06)
(1.05454 3.11909e-06 2.2602e-06)
(1.05454 1.14647e-06 2.00879e-06)
(1.05454 3.47872e-06 2.14405e-06)
(1.05454 1.18206e-06 2.42491e-06)
(1.05454 3.11938e-06 2.26137e-06)
(1.05454 1.13573e-06 2.92021e-06)
(1.05454 2.38971e-06 2.58901e-06)
(1.05454 1.10504e-06 3.31433e-06)
(1.05454 1.54668e-06 3.0923e-06)
(1.05454 1.02033e-06 3.61973e-06)
(1.05454 1.15087e-06 3.31638e-06)
(1.05454 1.28499e-06 3.88369e-06)
(1.05454 9.55885e-07 3.35015e-06)
(1.05454 1.9194e-06 3.80496e-06)
(1.05454 2.32206e-06 4.249e-06)
(1.05454 2.07945e-06 4.23809e-06)
(1.05454 2.41058e-06 4.16937e-06)
(1.05454 2.55186e-06 4.02148e-06)
(1.05454 2.30051e-06 3.92172e-06)
(1.05454 3.51773e-06 3.93421e-06)
(1.05454 2.41159e-06 3.72511e-06)
(1.05454 4.15152e-06 3.90548e-06)
(1.05454 2.99659e-06 3.60955e-06)
(1.05454 4.39847e-06 3.83878e-06)
(1.05454 3.18481e-06 3.51161e-06)
(1.05454 4.15429e-06 3.59697e-06)
(1.05454 2.79857e-06 3.22846e-06)
(1.05454 3.39909e-06 3.50184e-06)
(1.05454 2.13112e-06 3.03775e-06)
(1.05454 2.2541e-06 3.31291e-06)
(1.05454 1.72539e-06 3.14694e-06)
(1.05454 1.63627e-06 3.12802e-06)
(1.05454 1.50007e-06 3.33404e-06)
(1.05454 1.76177e-06 3.07372e-06)
(1.05454 1.63414e-06 3.42157e-06)
(1.05454 2.02356e-06 3.08088e-06)
(1.05454 2.25469e-06 3.4406e-06)
(1.05454 2.47386e-06 2.70181e-06)
(1.05454 2.81989e-06 3.3504e-06)
(1.05454 2.58153e-06 2.44485e-06)
(1.05454 3.69777e-06 3.03118e-06)
(1.05454 2.45287e-06 2.63132e-06)
(1.05454 4.07361e-06 2.78111e-06)
(1.05454 2.36037e-06 3.21038e-06)
(1.05454 3.91218e-06 2.91679e-06)
(1.05454 1.78468e-06 3.78338e-06)
(1.05454 3.46165e-06 3.4778e-06)
(1.05454 1.11779e-06 4.1565e-06)
(1.05454 2.79528e-06 4.11752e-06)
(1.05454 7.44115e-07 4.6411e-06)
(1.05454 2.58552e-06 4.29816e-06)
(1.05454 9.99537e-07 5.00101e-06)
(1.05454 2.42851e-06 4.25705e-06)
(1.05454 1.81513e-06 4.83421e-06)
(1.05454 4.0926e-06 5.42245e-06)
(1.05454 1.91179e-06 5.46533e-06)
(1.05454 4.12626e-06 5.35075e-06)
(1.05454 2.29069e-06 5.23575e-06)
(1.05454 3.95009e-06 5.10328e-06)
(1.05454 3.49297e-06 5.10154e-06)
(1.05454 3.91678e-06 4.96892e-06)
(1.05454 4.59969e-06 5.11244e-06)
(1.05454 4.29997e-06 4.7631e-06)
(1.05454 5.26583e-06 5.1397e-06)
(1.05454 4.1588e-06 4.49296e-06)
(1.05454 5.18481e-06 4.89087e-06)
(1.05454 3.24122e-06 4.09781e-06)
(1.05454 4.42385e-06 4.73159e-06)
(1.05454 2.04503e-06 3.88025e-06)
(1.05454 3.25597e-06 4.45103e-06)
(1.05454 1.54796e-06 3.98263e-06)
(1.05454 2.50654e-06 4.28983e-06)
(1.05454 1.66912e-06 4.24728e-06)
(1.05454 2.53414e-06 4.29016e-06)
(1.05454 2.28527e-06 4.45409e-06)
(1.05454 2.80713e-06 4.20669e-06)
(1.05454 3.18842e-06 4.52254e-06)
(1.05454 3.17728e-06 3.56105e-06)
(1.05454 3.95454e-06 4.41378e-06)
(1.05454 3.47356e-06 3.11124e-06)
(1.05454 4.80144e-06 4.00348e-06)
(1.05454 3.66138e-06 3.29835e-06)
(1.05454 4.99862e-06 3.70459e-06)
(1.05454 3.77524e-06 3.98499e-06)
(1.05454 4.70324e-06 3.86546e-06)
(1.05454 2.97601e-06 4.71819e-06)
(1.05454 4.08314e-06 4.57974e-06)
(1.05454 1.69635e-06 5.27283e-06)
(1.05454 3.575e-06 5.32289e-06)
(1.05454 9.96711e-07 5.99893e-06)
(1.05454 3.7945e-06 5.4979e-06)
(1.05454 1.08667e-06 6.40309e-06)
(1.05454 3.99288e-06 5.43245e-06)
(1.05454 1.72454e-06 6.11786e-06)
(1.05454 5.55447e-06 6.91514e-06)
(1.05454 2.16526e-06 7.19373e-06)
(1.05454 5.73501e-06 6.8047e-06)
(1.05454 2.18367e-06 6.90936e-06)
(1.05454 5.84868e-06 6.65842e-06)
(1.05454 3.21928e-06 6.73997e-06)
(1.05454 6.08981e-06 6.69818e-06)
(1.05454 4.47831e-06 6.76657e-06)
(1.05454 6.512e-06 6.46575e-06)
(1.05454 5.31387e-06 6.79304e-06)
(1.05454 6.14543e-06 6.04915e-06)
(1.05454 5.27375e-06 6.52232e-06)
(1.05454 4.59972e-06 5.48579e-06)
(1.05454 4.58958e-06 6.3651e-06)
(1.05454 2.64001e-06 5.13678e-06)
(1.05454 3.63121e-06 6.09506e-06)
(1.05454 1.66524e-06 5.1442e-06)
(1.05454 3.11655e-06 6.04061e-06)
(1.05454 1.80917e-06 5.49047e-06)
(1.05454 3.59503e-06 6.15036e-06)
(1.05454 2.62976e-06 5.81686e-06)
(1.05454 4.14656e-06 5.92495e-06)
(1.05454 3.72147e-06 5.85073e-06)
(1.05454 4.4662e-06 4.98882e-06)
(1.05454 4.98962e-06 5.64027e-06)
(1.05454 4.73648e-06 4.33701e-06)
(1.05454 6.04396e-06 5.15746e-06)
(1.05454 4.93989e-06 4.45476e-06)
(1.05454 6.33075e-06 4.9287e-06)
(1.05454 5.1078e-06 5.10672e-06)
(1.05454 5.90455e-06 5.17951e-06)
(1.05454 4.11087e-06 5.84721e-06)
(1.05454 4.76396e-06 6.05976e-06)
(1.05454 2.41797e-06 6.61329e-06)
(1.05454 4.08362e-06 6.91407e-06)
(1.05454 1.66561e-06 7.70173e-06)
(1.05454 4.52708e-06 7.06984e-06)
(1.05454 1.75598e-06 8.21217e-06)
(1.05454 5.09137e-06 6.95307e-06)
(1.05454 2.22353e-06 7.89998e-06)
(1.05454 6.55491e-06 8.96833e-06)
(1.05454 2.82689e-06 9.51924e-06)
(1.05454 6.81315e-06 8.8031e-06)
(1.05454 2.56664e-06 9.32379e-06)
(1.05454 7.29817e-06 8.84893e-06)
(1.05454 3.39772e-06 9.25087e-06)
(1.05454 8.06871e-06 9.083e-06)
(1.05454 4.56694e-06 9.26986e-06)
(1.05454 8.78571e-06 8.84528e-06)
(1.05454 5.14761e-06 9.17541e-06)
(1.05454 8.53114e-06 8.2783e-06)
(1.05454 4.73393e-06 8.72908e-06)
(1.05454 6.59749e-06 7.56412e-06)
(1.05454 3.70599e-06 8.49977e-06)
(1.05454 3.95543e-06 7.07593e-06)
(1.05454 2.70474e-06 8.30776e-06)
(1.05454 2.55786e-06 6.94474e-06)
(1.05454 2.48468e-06 8.46511e-06)
(1.05454 2.74097e-06 7.33308e-06)
(1.05454 3.70208e-06 8.74076e-06)
(1.05454 3.49135e-06 7.69985e-06)
(1.05454 4.93888e-06 8.37299e-06)
(1.05454 4.4735e-06 7.61851e-06)
(1.05454 5.70346e-06 7.14677e-06)
(1.05454 5.97155e-06 7.21449e-06)
(1.05454 6.21822e-06 6.25387e-06)
(1.05454 7.11806e-06 6.59642e-06)
(1.05454 6.52738e-06 6.29486e-06)
(1.05454 7.60727e-06 6.42903e-06)
(1.05454 6.61509e-06 6.89324e-06)
(1.05454 7.12868e-06 6.82525e-06)
(1.05454 5.1324e-06 7.62141e-06)
(1.05454 5.57261e-06 7.99433e-06)
(1.05454 2.88219e-06 8.56099e-06)
(1.05454 4.71131e-06 9.10311e-06)
(1.05454 2.15899e-06 9.8967e-06)
(1.05454 5.16137e-06 9.27243e-06)
(1.05454 2.49686e-06 1.04852e-05)
(1.05454 5.93465e-06 9.09528e-06)
(1.05454 3.00065e-06 1.02275e-05)
(1.05454 7.30579e-06 1.19706e-05)
(1.05454 3.30465e-06 1.28084e-05)
(1.05454 7.44275e-06 1.1748e-05)
(1.05454 2.82277e-06 1.27649e-05)
(1.05454 8.11991e-06 1.20487e-05)
(1.05454 3.6403e-06 1.29577e-05)
(1.05454 9.32639e-06 1.24957e-05)
(1.05454 4.84145e-06 1.31057e-05)
(1.05454 1.029e-05 1.22217e-05)
(1.05454 5.04713e-06 1.28627e-05)
(1.05454 1.0212e-05 1.14553e-05)
(1.05454 4.02714e-06 1.20848e-05)
(1.05454 8.04082e-06 1.05925e-05)
(1.05454 2.18187e-06 1.16621e-05)
(1.05454 4.95278e-06 1.00031e-05)
(1.05454 7.83614e-07 1.14987e-05)
(1.05454 3.61553e-06 9.81632e-06)
(1.05454 6.43519e-07 1.19391e-05)
(1.05454 4.21199e-06 1.03211e-05)
(1.05454 2.41034e-06 1.24082e-05)
(1.05454 5.08044e-06 1.062e-05)
(1.05454 4.34064e-06 1.1901e-05)
(1.05454 6.02912e-06 1.03307e-05)
(1.05454 5.74299e-06 1.04414e-05)
(1.05454 7.61644e-06 9.59786e-06)
(1.05454 6.82545e-06 9.2305e-06)
(1.05454 8.49515e-06 8.73855e-06)
(1.05454 7.593e-06 9.121e-06)
(1.05454 8.87684e-06 8.59909e-06)
(1.05454 7.9111e-06 9.71689e-06)
(1.05454 8.09947e-06 9.09922e-06)
(1.05454 5.93475e-06 1.04981e-05)
(1.05454 5.87332e-06 1.05709e-05)
(1.05454 3.00636e-06 1.17024e-05)
(1.05454 5.00213e-06 1.20185e-05)
(1.05454 2.30219e-06 1.32084e-05)
(1.05454 5.64091e-06 1.22894e-05)
(1.05454 2.88224e-06 1.37923e-05)
(1.05454 6.63742e-06 1.22019e-05)
(1.05454 3.44795e-06 1.35859e-05)
(1.05454 7.90277e-06 1.63321e-05)
(1.05454 3.20929e-06 1.77317e-05)
(1.05454 7.79844e-06 1.61584e-05)
(1.05454 2.49049e-06 1.78562e-05)
(1.05455 8.60001e-06 1.68281e-05)
(1.05454 3.47828e-06 1.84042e-05)
(1.05454 1.01855e-05 1.75332e-05)
(1.05454 4.89935e-06 1.87234e-05)
(1.05454 1.12414e-05 1.71427e-05)
(1.05454 4.76988e-06 1.82926e-05)
(1.05454 1.10851e-05 1.60405e-05)
(1.05454 3.08953e-06 1.71666e-05)
(1.05454 8.42726e-06 1.49813e-05)
(1.05454 1.87084e-07 1.6512e-05)
(1.05454 4.86421e-06 1.43e-05)
(1.05454 -1.72703e-06 1.62945e-05)
(1.05454 3.88708e-06 1.41238e-05)
(1.05454 -1.95606e-06 1.7011e-05)
(1.05454 5.16657e-06 1.48542e-05)
(1.05454 4.39833e-08 1.76531e-05)
(1.05454 6.58782e-06 1.50473e-05)
(1.05454 2.40487e-06 1.69414e-05)
(1.05454 7.81078e-06 1.44286e-05)
(1.05454 4.2323e-06 1.52074e-05)
(1.05454 9.81325e-06 1.32117e-05)
(1.05454 5.85029e-06 1.35623e-05)
(1.05454 1.04651e-05 1.1999e-05)
(1.05454 7.04962e-06 1.33109e-05)
(1.05454 1.07116e-05 1.19435e-05)
(1.05454 7.96565e-06 1.39892e-05)
(1.05454 9.42201e-06 1.25742e-05)
(1.05454 5.60149e-06 1.49116e-05)
(1.05454 5.95797e-06 1.43542e-05)
(1.05454 2.09523e-06 1.65034e-05)
(1.05454 4.92914e-06 1.61532e-05)
(1.05454 1.67456e-06 1.81871e-05)
(1.05454 5.77015e-06 1.65237e-05)
(1.05454 2.52313e-06 1.87965e-05)
(1.05454 7.00224e-06 1.66594e-05)
(1.05454 3.30453e-06 1.86455e-05)
(1.05454 7.75165e-06 2.27683e-05)
(1.05454 1.58023e-06 2.53272e-05)
(1.05454 7.33163e-06 2.27497e-05)
(1.05454 7.21581e-07 2.57039e-05)
(1.05454 8.3392e-06 2.3972e-05)
(1.05454 2.12476e-06 2.67053e-05)
(1.05454 1.03183e-05 2.50281e-05)
(1.05454 3.71769e-06 2.71883e-05)
(1.05454 1.12442e-05 2.4496e-05)
(1.05454 3.2043e-06 2.64816e-05)
(1.05454 1.08242e-05 2.29172e-05)
(1.05454 8.47161e-07 2.49508e-05)
(1.05454 7.28312e-06 2.15486e-05)
(1.05454 -3.13592e-06 2.40533e-05)
(1.05454 3.11444e-06 2.06953e-05)
(1.05454 -5.38886e-06 2.37447e-05)
(1.05454 2.48884e-06 2.05526e-05)
(1.05454 -5.60868e-06 2.47567e-05)
(1.05454 4.49329e-06 2.16425e-05)
(1.05454 -3.38603e-06 2.56389e-05)
(1.05454 6.5564e-06 2.17771e-05)
(1.05454 -8.57191e-07 2.46355e-05)
(1.05454 8.21838e-06 2.07971e-05)
(1.05454 1.27881e-06 2.26022e-05)
(1.05454 1.10947e-05 1.89829e-05)
(1.05454 3.28736e-06 2.03497e-05)
(1.05454 1.18567e-05 1.73174e-05)
(1.05454 4.59455e-06 1.99918e-05)
(1.05454 1.23727e-05 1.74587e-05)
(1.05454 6.18951e-06 2.07908e-05)
(1.05454 1.06377e-05 1.81577e-05)
(1.05454 3.06489e-06 2.18117e-05)
(1.05454 5.56486e-06 2.02897e-05)
(1.05454 -1.05321e-06 2.38399e-05)
(1.05454 4.35568e-06 2.23571e-05)
(1.05454 -9.08831e-07 2.56431e-05)
(1.05454 5.23727e-06 2.27732e-05)
(1.05454 3.75941e-07 2.64241e-05)
(1.05454 6.64919e-06 2.32343e-05)
(1.05454 1.54958e-06 2.64048e-05)
(1.05453 6.96224e-06 3.2245e-05)
(1.05453 -2.37216e-06 3.64469e-05)
(1.05453 6.12885e-06 3.25286e-05)
(1.05453 -3.23627e-06 3.73652e-05)
(1.05453 7.4694e-06 3.45541e-05)
(1.05453 -1.1855e-06 3.89359e-05)
(1.05453 9.68054e-06 3.60077e-05)
(1.05453 4.50763e-07 3.95696e-05)
(1.05453 1.01033e-05 3.52357e-05)
(1.05453 -5.42972e-07 3.84049e-05)
(1.05453 9.36644e-06 3.29761e-05)
(1.05452 -3.61179e-06 3.6298e-05)
(1.05452 4.60977e-06 3.11377e-05)
(1.05452 -8.66357e-06 3.51084e-05)
(1.05452 -9.56411e-08 2.99692e-05)
(1.05452 -1.10797e-05 3.45971e-05)
(1.05453 -5.99026e-07 2.98142e-05)
(1.05453 -1.13288e-05 3.6038e-05)
(1.05453 2.02332e-06 3.15454e-05)
(1.05453 -8.64384e-06 3.73012e-05)
(1.05453 4.53813e-06 3.15959e-05)
(1.05453 -6.05609e-06 3.5883e-05)
(1.05453 6.58951e-06 3.02323e-05)
(1.05453 -3.377e-06 3.35011e-05)
(1.05453 1.05908e-05 2.77415e-05)
(1.05453 -1.00403e-06 3.04189e-05)
(1.05453 1.12861e-05 2.5525e-05)
(1.05453 1.58706e-07 3.00504e-05)
(1.05453 1.25817e-05 2.60151e-05)
(1.05453 2.58634e-06 3.10274e-05)
(1.05453 1.0543e-05 2.67043e-05)
(1.05452 -2.03134e-06 3.21092e-05)
(1.05452 3.67953e-06 2.93064e-05)
(1.05453 -6.77253e-06 3.46429e-05)
(1.05453 2.7697e-06 3.16231e-05)
(1.05453 -5.99172e-06 3.64316e-05)
(1.05453 3.81501e-06 3.19807e-05)
(1.05453 -4.32274e-06 3.75235e-05)
(1.05453 5.58375e-06 3.29445e-05)
(1.05453 -2.59935e-06 3.77146e-05)
(1.05429 3.73711e-06 4.66103e-05)
(1.05429 -9.9787e-06 5.3243e-05)
(1.05429 2.58107e-06 4.76348e-05)
(1.05429 -1.08479e-05 5.51731e-05)
(1.0543 4.57714e-06 5.05775e-05)
(1.05429 -8.00502e-06 5.72123e-05)
(1.0543 6.91166e-06 5.24295e-05)
(1.05429 -6.63187e-06 5.80924e-05)
(1.05429 6.41411e-06 5.14872e-05)
(1.05429 -8.01985e-06 5.63292e-05)
(1.05429 5.64259e-06 4.81535e-05)
(1.05428 -1.1832e-05 5.35026e-05)
(1.05429 -4.99592e-07 4.59319e-05)
(1.05428 -1.80198e-05 5.21387e-05)
(1.05429 -5.74836e-06 4.41532e-05)
(1.05429 -2.05301e-05 5.1131e-05)
(1.05429 -6.18912e-06 4.38836e-05)
(1.05429 -2.07373e-05 5.33942e-05)
(1.05429 -2.81734e-06 4.67353e-05)
(1.05429 -1.73032e-05 5.50593e-05)
(1.05429 -1.41593e-07 4.62844e-05)
(1.05429 -1.48093e-05 5.30258e-05)
(1.05429 2.08374e-06 4.47628e-05)
(1.05429 -1.10439e-05 5.05052e-05)
(1.05429 7.06662e-06 4.14655e-05)
(1.05429 -8.57325e-06 4.63051e-05)
(1.05429 6.80866e-06 3.86517e-05)
(1.05429 -7.52948e-06 4.62213e-05)
(1.05429 9.44208e-06 3.98172e-05)
(1.05429 -3.60135e-06 4.72341e-05)
(1.05429 6.79268e-06 4.0182e-05)
(1.05428 -1.04179e-05 4.82224e-05)
(1.05429 -2.18666e-06 4.35164e-05)
(1.05428 -1.54895e-05 5.14524e-05)
(1.05429 -2.20044e-06 4.58875e-05)
(1.05429 -1.44106e-05 5.27706e-05)
(1.05429 -1.10959e-06 4.59577e-05)
(1.05429 -1.27481e-05 5.44912e-05)
(1.05429 1.52209e-06 4.79127e-05)
(1.05429 -1.01486e-05 5.48946e-05)
(1.05236 -3.58786e-06 6.7017e-05)
(1.05232 -2.16578e-05 7.71341e-05)
(1.05236 -4.76272e-06 6.97511e-05)
(1.05233 -2.25031e-05 8.02456e-05)
(1.05236 -1.52979e-06 7.36532e-05)
(1.05233 -1.9057e-05 8.24811e-05)
(1.05236 1.04622e-06 7.62952e-05)
(1.05233 -1.84001e-05 8.38954e-05)
(1.05236 -7.62639e-07 7.52049e-05)
(1.05233 -1.99857e-05 8.10362e-05)
(1.05236 -1.22355e-06 7.05355e-05)
(1.05232 -2.49688e-05 7.78236e-05)
(1.05235 -8.96641e-06 6.84182e-05)
(1.05232 -3.30816e-05 7.62445e-05)
(1.05235 -1.47401e-05 6.54741e-05)
(1.05232 -3.59376e-05 7.4697e-05)
(1.05235 -1.50729e-05 6.55396e-05)
(1.05233 -3.57048e-05 7.87356e-05)
(1.05235 -1.04925e-05 6.99723e-05)
(1.05233 -3.1503e-05 8.05764e-05)
(1.05235 -8.0949e-06 6.8398e-05)
(1.05233 -2.96191e-05 7.8014e-05)
(1.05235 -5.37759e-06 6.69034e-05)
(1.05233 -2.3755e-05 7.52226e-05)
(1.05235 5.245e-07 6.18701e-05)
(1.05232 -2.14902e-05 6.93905e-05)
(1.05235 -2.06196e-06 5.85417e-05)
(1.05232 -1.98352e-05 7.02182e-05)
(1.05235 2.92162e-06 6.03437e-05)
(1.05232 -1.34559e-05 7.05687e-05)
(1.05234 -1.02822e-06 5.99911e-05)
(1.05232 -2.31053e-05 7.14604e-05)
(1.05234 -1.25618e-05 6.44622e-05)
(1.05232 -2.73406e-05 7.51251e-05)
(1.05235 -1.15897e-05 6.62286e-05)
(1.05232 -2.64572e-05 7.54276e-05)
(1.05235 -1.10938e-05 6.61257e-05)
(1.05232 -2.50659e-05 7.86984e-05)
(1.05236 -7.02654e-06 6.93101e-05)
(1.05232 -2.12531e-05 7.89299e-05)
(1.04474 -1.99266e-05 9.4573e-05)
(1.04466 -3.93907e-05 0.000109228)
(1.04475 -2.08097e-05 9.90517e-05)
(1.04466 -3.95105e-05 0.000113338)
(1.04475 -1.57335e-05 0.000104666)
(1.04466 -3.58337e-05 0.000116302)
(1.04475 -1.28357e-05 0.000108855)
(1.04466 -3.62239e-05 0.000117598)
(1.04475 -1.55082e-05 0.00010763)
(1.04466 -3.76645e-05 0.000113996)
(1.04474 -1.5215e-05 0.000102117)
(1.04465 -4.45927e-05 0.000110343)
(1.04474 -2.40818e-05 9.93274e-05)
(1.04465 -5.52372e-05 0.000107458)
(1.04474 -2.95316e-05 9.49158e-05)
(1.04466 -5.91108e-05 0.000105239)
(1.04474 -2.99686e-05 9.50435e-05)
(1.04466 -5.80533e-05 0.000110566)
(1.04474 -2.31064e-05 0.000100766)
(1.04466 -5.36639e-05 0.000112537)
(1.04474 -2.20961e-05 9.78333e-05)
(1.04465 -5.37246e-05 0.000109055)
(1.04474 -1.82699e-05 9.5454e-05)
(1.04465 -4.48318e-05 0.000105174)
(1.04474 -1.22059e-05 8.80306e-05)
(1.04465 -4.43971e-05 9.8216e-05)
(1.04473 -1.86039e-05 8.40342e-05)
(1.04465 -4.09067e-05 0.000100259)
(1.04473 -9.73345e-06 8.5772e-05)
(1.04465 -3.16069e-05 9.99691e-05)
(1.04472 -1.61839e-05 8.48347e-05)
(1.04464 -4.47634e-05 0.000100705)
(1.04472 -3.03394e-05 9.04904e-05)
(1.04465 -4.58241e-05 0.000104247)
(1.04473 -2.88924e-05 9.24653e-05)
(1.04465 -4.56365e-05 0.000104107)
(1.04473 -3.0162e-05 9.29872e-05)
(1.04465 -4.38927e-05 0.000109599)
(1.04474 -2.4078e-05 9.7635e-05)
(1.04466 -3.79664e-05 0.000110381)
(1.02747 -4.49489e-05 0.000125877)
(1.02731 -6.47389e-05 0.00014376)
(1.02747 -4.52894e-05 0.000132179)
(1.02732 -6.26295e-05 0.000150766)
(1.02748 -3.84544e-05 0.000140026)
(1.02732 -5.95366e-05 0.000153896)
(1.02748 -3.59798e-05 0.0001451)
(1.02732 -6.13773e-05 0.000154417)
(1.02747 -4.02649e-05 0.000145089)
(1.02731 -6.13109e-05 0.000149551)
(1.02746 -3.9363e-05 0.000136858)
(1.02731 -7.07961e-05 0.000143519)
(1.02745 -4.93868e-05 0.000132916)
(1.02731 -8.40342e-05 0.00013973)
(1.02745 -5.34482e-05 0.000127027)
(1.0273 -8.98049e-05 0.000135498)
(1.02745 -5.37446e-05 0.000126439)
(1.0273 -8.78429e-05 0.00014242)
(1.02745 -4.24555e-05 0.000135836)
(1.0273 -8.39572e-05 0.000144555)
(1.02744 -4.2967e-05 0.00013026)
(1.02729 -8.7818e-05 0.000138767)
(1.02744 -3.64452e-05 0.000128086)
(1.02729 -7.58207e-05 0.000135005)
(1.02744 -3.05263e-05 0.000119245)
(1.02728 -7.9553e-05 0.000126798)
(1.02744 -4.16209e-05 0.00011394)
(1.02728 -7.16475e-05 0.000131854)
(1.02744 -2.69012e-05 0.000116374)
(1.02728 -5.93208e-05 0.000131991)
(1.02743 -3.72575e-05 0.000113574)
(1.02727 -7.72988e-05 0.000132849)
(1.02743 -5.32975e-05 0.000121167)
(1.02728 -7.24727e-05 0.000137981)
(1.02744 -5.2837e-05 0.00012398)
(1.02729 -7.47985e-05 0.000135675)
(1.02745 -5.78744e-05 0.000124441)
(1.0273 -7.15822e-05 0.000143781)
(1.02746 -4.85279e-05 0.000131754)
(1.02731 -6.21743e-05 0.000144924)
(0.998619 -8.16214e-05 0.000159711)
(0.998363 -0.000100203 0.000178501)
(0.998623 -7.99342e-05 0.000171032)
(0.998363 -9.45281e-05 0.00019047)
(0.998625 -7.0627e-05 0.000179455)
(0.998361 -9.13492e-05 0.00019341)
(0.998618 -6.86164e-05 0.000186467)
(0.998354 -9.37484e-05 0.000196022)
(0.998608 -7.70447e-05 0.000188926)
(0.998352 -8.96824e-05 0.000187185)
(0.998592 -7.74542e-05 0.000175027)
(0.998345 -0.000101949 0.000179641)
(0.998573 -8.82819e-05 0.000171617)
(0.998347 -0.000117515 0.000176176)
(0.998564 -9.07639e-05 0.000160992)
(0.998349 -0.000128879 0.000168623)
(0.998558 -9.1237e-05 0.000160532)
(0.998351 -0.000125157 0.00018142)
(0.998552 -7.49349e-05 0.000176287)
(0.998347 -0.00012314 0.00018111)
(0.998545 -7.92122e-05 0.000165814)
(0.998346 -0.000132108 0.00017352)
(0.998548 -6.64765e-05 0.000168059)
(0.998345 -0.000117775 0.000169697)
(0.998548 -6.14517e-05 0.000155952)
(0.99834 -0.000129841 0.000156465)
(0.998554 -7.7747e-05 0.000149777)
(0.998349 -0.000115107 0.000167832)
(0.998562 -5.51078e-05 0.000152352)
(0.998345 -0.000100516 0.000165258)
(0.998558 -7.06467e-05 0.000144569)
(0.998344 -0.000123861 0.000167212)
(0.998574 -8.59656e-05 0.000155964)
(0.998356 -0.000109975 0.000174842)
(0.998588 -8.86789e-05 0.000157826)
(0.998361 -0.000116648 0.000166393)
(0.998603 -9.82427e-05 0.000159285)
(0.998367 -0.000110452 0.000179277)
(0.998616 -8.42943e-05 0.000170676)
(0.998367 -9.7144e-05 0.000177846)
(0.957884 -0.000124391 0.000184272)
(0.957573 -0.000145287 0.000207601)
(0.957898 -0.00011841 0.000214216)
(0.957568 -0.000135585 0.000225542)
(0.957908 -0.000109407 0.000218058)
(0.95756 -0.000136605 0.000225294)
(0.957907 -0.000107302 0.000229989)
(0.957541 -0.000139961 0.000234156)
(0.957901 -0.000119974 0.000236332)
(0.957533 -0.000129398 0.000212691)
(0.957885 -0.000124527 0.000211785)
(0.957521 -0.000143137 0.000207146)
(0.957861 -0.000135172 0.000215773)
(0.957524 -0.000157163 0.000203744)
(0.957847 -0.000136098 0.00019127)
(0.957534 -0.000169226 0.000188552)
(0.957841 -0.000137602 0.000191534)
(0.957549 -0.000160322 0.000216163)
(0.957834 -0.000116421 0.000213608)
(0.957561 -0.000161784 0.00020764)
(0.957828 -0.000127112 0.000190589)
(0.957582 -0.00017872 0.000203803)
(0.957837 -0.000104724 0.000204299)
(0.957592 -0.000164857 0.000199278)
(0.957832 -0.000100396 0.00018153)
(0.9576 -0.000187773 0.000170339)
(0.957838 -0.000119769 0.000177066)
(0.957614 -0.000165099 0.000193892)
(0.957842 -8.81844e-05 0.000178412)
(0.957601 -0.000151342 0.000183768)
(0.957829 -0.000109854 0.000161309)
(0.957593 -0.00018161 0.000193248)
(0.957841 -0.000119819 0.000184764)
(0.957595 -0.000157558 0.000205163)
(0.957848 -0.000130024 0.000177187)
(0.957591 -0.000168776 0.000185643)
(0.957861 -0.000143968 0.00018587)
(0.957589 -0.000158902 0.000212003)
(0.957873 -0.000124263 0.000203907)
(0.957581 -0.000144127 0.000198828)
(0.906148 -0.000176892 0.000158728)
(0.90584 -0.000185512 0.000211928)
(0.906171 -0.00016393 0.000233095)
(0.905818 -0.000173253 0.000235777)
(0.906178 -0.000151414 0.000207549)
(0.905799 -0.000176783 0.000201015)
(0.906171 -0.000143479 0.000231648)
(0.90574 -0.000185671 0.000229572)
(0.906153 -0.000157293 0.00024698)
(0.905712 -0.000163006 0.000161056)
(0.90616 -0.000172134 0.000192987)
(0.905707 -0.000176104 0.0001752)
(0.906165 -0.000187256 0.000235744)
(0.90571 -0.000187257 0.000173774)
(0.906173 -0.000185955 0.00017237)
(0.905746 -0.000214772 0.000126534)
(0.906194 -0.000186681 0.000186325)
(0.90577 -0.000201842 0.000192653)
(0.906174 -0.000167273 0.00021824)
(0.905785 -0.000210151 0.000148947)
(0.906153 -0.000188589 0.000168364)
(0.905823 -0.000227202 0.000165531)
(0.906135 -0.000157517 0.000221696)
(0.905816 -0.000214103 0.000164406)
(0.906111 -0.000159041 0.000143139)
(0.905825 -0.000251205 0.000111476)
(0.906109 -0.000173997 0.000165173)
(0.905848 -0.00021209 0.000189162)
(0.906083 -0.000130832 0.000162949)
(0.90584 -0.000199741 0.000138039)
(0.906053 -0.000158528 0.000117211)
(0.905836 -0.000238972 0.000176296)
(0.906066 -0.000158222 0.000190816)
(0.905839 -0.000204178 0.000196886)
(0.906068 -0.000180205 0.000148014)
(0.905834 -0.00021757 0.00015363)
(0.906082 -0.000196235 0.000168581)
(0.905844 -0.000201087 0.000224146)
(0.906098 -0.000168391 0.000202025)
(0.90584 -0.000185564 0.000178603)
(0.844778 -0.000200781 1.19516e-05)
(0.844572 -0.000197851 0.000134614)
(0.844721 -0.000176453 0.00016327)
(0.844494 -0.00018025 0.000147911)
(0.844748 -0.000179335 1.48161e-05)
(0.844471 -0.000196033 2.66041e-05)
(0.844752 -0.000161917 9.21253e-05)
(0.844383 -0.000212976 0.000185183)
(0.844787 -0.000176315 0.000116756)
(0.8444 -0.000183536 -2.48164e-05)
(0.844846 -0.000197204 3.87934e-05)
(0.844377 -0.00020015 2.23052e-05)
(0.844869 -0.000216337 0.000219157)
(0.844372 -0.000219748 2.981e-05)