/*--------------------------------*- C++ -*----------------------------------*\
  =========                 |
  \\      /  F ield         | OpenFOAM: The Open Source CFD Toolbox
   \\    /   O peration     | Website:  https://openfoam.org
    \\  /    A nd           | Version:  10
     \\/     M anipulation  |
\*---------------------------------------------------------------------------*/
FoamFile
{
    format      ascii;
    class       volSymmTensorField;
    location    "10";
    object      UPrime2Mean;
}
// * * * * * * * * * * * * * * * * * * * * * * * * * * * * * * * * * * * * * //

dimensions      [0 2 -2 0 0 0 0];

internalField   nonuniform List<symmTensor> 
25600
(
(1.93904e-06 -8.74173e-09 -1.03302e-09 6.1877e-10 3.55163e-11 2.30742e-12)
(1.9222e-06 -9.7358e-09 -5.72271e-10 3.69786e-10 1.96753e-11 1.08576e-12)
(1.93685e-06 -1.03597e-08 -1.40761e-09 3.11812e-10 2.30944e-11 2.0735e-12)
(1.94332e-06 -6.62251e-09 -1.26798e-09 2.24772e-10 1.76191e-11 1.75202e-12)
(1.94054e-06 -5.73288e-09 -1.43869e-09 1.77515e-10 1.60508e-11 2.00398e-12)
(1.94943e-06 -7.11577e-09 -1.71291e-09 1.49092e-10 1.53991e-11 2.24616e-12)
(1.95374e-06 -8.42074e-09 -1.87198e-09 1.28407e-10 1.4325e-11 2.29539e-12)
(1.9641e-06 -6.60427e-09 -2.04154e-09 9.73781e-11 1.23686e-11 2.58583e-12)
(1.97164e-06 -3.18534e-09 -1.80548e-09 6.46993e-11 6.99446e-12 1.96424e-12)
(1.97478e-06 1.44041e-09 -1.66337e-09 3.01983e-11 7.04519e-13 1.60875e-12)
(1.9729e-06 4.1776e-09 -1.32691e-09 1.68123e-11 -2.26338e-12 1.00152e-12)
(1.9684e-06 6.45493e-09 -1.24282e-09 2.25223e-11 -4.16146e-12 8.66307e-13)
(1.96299e-06 6.42069e-09 -1.03455e-09 2.17921e-11 -3.60944e-12 6.34351e-13)
(1.95843e-06 6.70045e-09 -8.96541e-10 2.35831e-11 -3.20091e-12 4.50597e-13)
(1.95339e-06 6.02156e-09 -8.09233e-10 1.94727e-11 -2.70501e-12 3.91967e-13)
(1.94904e-06 5.48267e-09 -6.45636e-10 1.60315e-11 -1.89367e-12 2.29282e-13)
(1.94568e-06 4.66287e-09 -6.47263e-10 1.16955e-11 -1.65387e-12 2.45739e-13)
(1.94305e-06 3.93686e-09 -4.36018e-10 8.38856e-12 -9.60759e-13 1.25446e-13)
(1.94254e-06 3.27734e-09 -3.7487e-10 6.22335e-12 -8.17321e-13 1.51096e-13)
(1.94055e-06 2.59149e-09 -4.6767e-11 4.62433e-12 -2.74751e-13 8.12007e-14)
(1.94048e-06 1.57084e-09 1.61779e-10 2.87186e-12 -4.18178e-14 8.16089e-14)
(1.93885e-06 4.2269e-10 3.39416e-10 1.67471e-12 -1.26934e-13 1.44623e-13)
(1.94089e-06 -9.81497e-10 4.18902e-10 1.83112e-12 -2.75861e-13 1.40755e-13)
(1.94179e-06 -1.5778e-09 3.84233e-10 2.99615e-12 -3.62957e-13 1.24422e-13)
(1.94273e-06 -3.35456e-09 1.90596e-10 6.58227e-12 -3.14528e-13 5.42584e-14)
(1.94687e-06 -1.94293e-09 3.87202e-12 6.89948e-12 2.62079e-13 3.02443e-14)
(1.94063e-06 -5.87026e-09 -5.29482e-10 1.87041e-11 1.6025e-12 1.51761e-13)
(1.95803e-06 -1.27605e-09 -6.35021e-10 4.97377e-12 7.77089e-13 2.62362e-13)
(1.93634e-06 -5.67857e-09 -1.37616e-09 2.12628e-11 4.44722e-12 1.04271e-12)
(1.97062e-06 -2.22551e-09 -1.28332e-09 1.63148e-11 1.89094e-12 8.91289e-13)
(1.93266e-06 -4.34744e-10 -1.57856e-09 4.01187e-11 2.13798e-12 1.51126e-12)
(1.96928e-06 -6.02437e-09 -1.83495e-09 7.49009e-11 1.11901e-11 2.36323e-12)
(1.94074e-06 3.82152e-09 -1.15267e-09 6.02934e-11 -1.77007e-13 8.68442e-13)
(1.95605e-06 -4.52939e-09 -1.74974e-09 9.15058e-11 1.00354e-11 2.35603e-12)
(1.95272e-06 1.67528e-09 -8.63856e-10 1.47025e-10 1.01375e-11 1.33525e-12)
(1.94502e-06 -3.35257e-09 -1.10902e-09 1.88754e-10 1.32924e-11 1.56597e-12)
(1.96293e-06 5.57662e-09 -1.40489e-10 2.45464e-10 1.42214e-11 1.26864e-12)
(1.92593e-06 -8.49322e-09 -9.2371e-10 3.60746e-10 2.39954e-11 2.18753e-12)
(1.98029e-06 5.25165e-09 6.92945e-10 5.73713e-10 4.51173e-11 4.20591e-12)
(1.90873e-06 2.12074e-08 1.20858e-09 7.24253e-10 4.5696e-11 3.18896e-12)
(1.67963e-06 -3.3837e-09 -2.52755e-10 1.85821e-11 -4.03943e-12 2.8771e-12)
(1.6574e-06 -4.06282e-09 7.48832e-10 1.49088e-11 -4.43089e-12 2.08514e-12)
(1.65802e-06 -4.28819e-09 -2.77823e-10 1.63696e-11 -1.19904e-12 1.04911e-12)
(1.65976e-06 -3.8611e-09 -5.878e-10 1.36588e-11 1.13472e-13 6.91455e-13)
(1.65708e-06 -3.46672e-09 -1.00998e-09 1.05953e-11 1.36614e-12 8.755e-13)
(1.66305e-06 -3.29387e-09 -1.23397e-09 1.33645e-11 1.83768e-12 1.06404e-12)
(1.66018e-06 -3.68131e-09 -1.29537e-09 1.71941e-11 2.23487e-12 1.09683e-12)
(1.66057e-06 -2.5075e-09 -1.59742e-09 9.58788e-12 2.21229e-12 1.58384e-12)
(1.66129e-06 -1.63568e-09 -1.62464e-09 9.77911e-12 1.35342e-12 1.66563e-12)
(1.66238e-06 1.28807e-09 -1.83536e-09 5.46122e-12 -1.47913e-12 2.17069e-12)
(1.6632e-06 2.17114e-09 -1.70388e-09 6.32954e-12 -1.74663e-12 1.90756e-12)
(1.66335e-06 4.67276e-09 -1.73909e-09 1.51889e-11 -4.24546e-12 2.13154e-12)
(1.66271e-06 4.46817e-09 -1.39249e-09 1.36581e-11 -3.13819e-12 1.54348e-12)
(1.66228e-06 6.13993e-09 -1.12116e-09 2.43344e-11 -3.78697e-12 9.04969e-13)
(1.65914e-06 5.96296e-09 -9.6639e-10 2.20419e-11 -3.51644e-12 7.76198e-13)
(1.6562e-06 5.83825e-09 -6.54045e-10 2.13349e-11 -2.39549e-12 3.07219e-13)
(1.65326e-06 5.3722e-09 -7.67376e-10 1.8784e-11 -2.62803e-12 3.87869e-13)
(1.65119e-06 4.17183e-09 -4.90613e-10 1.18444e-11 -1.33825e-12 1.72092e-13)
(1.6509e-06 4.03482e-09 -5.53111e-10 1.21208e-11 -1.71564e-12 2.89345e-13)
(1.64867e-06 2.94371e-09 -9.7698e-11 8.44255e-12 -4.72096e-13 9.01085e-14)
(1.64794e-06 2.07711e-09 7.61551e-11 6.81917e-12 3.68693e-14 7.27513e-14)
(1.64613e-06 1.29667e-10 3.28989e-10 2.32899e-12 -1.77992e-13 1.92877e-13)
(1.6483e-06 -1.03205e-09 4.83528e-10 2.20868e-12 -2.95666e-13 1.89881e-13)
(1.64884e-06 -2.55572e-09 4.55584e-10 4.66278e-12 -7.36906e-13 2.04566e-13)
(1.65219e-06 -2.56718e-09 5.14043e-10 6.83449e-12 -7.08301e-13 2.13658e-13)
(1.65089e-06 -3.9102e-09 9.77477e-11 1.21889e-11 -3.30501e-13 2.49088e-14)
(1.65553e-06 -4.36885e-09 4.54641e-11 1.26005e-11 -1.51024e-13 3.91369e-14)
(1.65592e-06 -4.1146e-09 -5.3905e-10 1.17369e-11 1.38052e-12 2.20901e-13)
(1.66069e-06 -4.13022e-09 -8.30666e-10 1.09836e-11 2.12323e-12 4.67043e-13)
(1.66212e-06 -2.49e-09 -9.87129e-10 6.04215e-12 1.33383e-12 7.3133e-13)
(1.65892e-06 -1.879e-09 -1.43474e-09 7.74845e-12 1.47541e-12 1.61934e-12)
(1.66683e-06 -1.69801e-09 -1.19332e-09 7.09063e-12 1.4188e-12 1.06012e-12)
(1.65325e-06 -2.22098e-10 -1.26844e-09 6.94531e-13 -2.07233e-13 1.33649e-12)
(1.66835e-06 -5.88063e-10 -1.25807e-09 1.94866e-12 1.17328e-12 1.86909e-12)
(1.65532e-06 2.46154e-10 -7.1661e-10 8.21833e-12 4.99912e-13 8.51518e-13)
(1.65874e-06 -7.75978e-10 -4.08422e-10 1.08227e-11 -3.71756e-13 8.21779e-13)
(1.65855e-06 1.35216e-10 -4.52627e-10 1.25246e-11 -1.65481e-12 1.36791e-12)
(1.65701e-06 -3.64423e-09 2.2009e-10 2.12803e-11 -3.00773e-12 2.34813e-12)
(1.65505e-06 -3.51891e-10 6.9533e-10 1.39779e-11 -2.89352e-12 2.95679e-12)
(1.6554e-06 4.3e-11 -8.44146e-10 1.03283e-11 -2.11218e-12 3.17557e-12)
(1.69857e-06 -2.21896e-09 1.85676e-10 1.5067e-11 -6.23728e-12 3.95578e-12)
(1.68018e-06 -4.90283e-09 1.31159e-09 1.98938e-11 -6.83526e-12 3.95392e-12)
(1.68257e-06 -3.73369e-09 1.22752e-10 1.40105e-11 -2.72936e-12 1.65443e-12)
(1.68472e-06 -4.59055e-09 -3.00153e-10 1.71942e-11 -9.14931e-13 9.40059e-13)
(1.68218e-06 -3.83615e-09 -8.03119e-10 1.28023e-11 1.12373e-12 9.05355e-13)
(1.68713e-06 -3.4526e-09 -1.21932e-09 2.02595e-11 1.70683e-12 1.13474e-12)
(1.6851e-06 -4.36202e-09 -1.32662e-09 2.85955e-11 2.51703e-12 1.23653e-12)
(1.6868e-06 -2.84248e-09 -1.96374e-09 1.42053e-11 3.43391e-12 2.35702e-12)
(1.68957e-06 -2.45446e-09 -2.008e-09 1.73435e-11 2.62594e-12 2.51538e-12)
(1.69091e-06 1.85345e-09 -2.38607e-09 9.9526e-12 -2.77326e-12 3.64055e-12)
(1.69141e-06 2.14726e-09 -2.1886e-09 1.32841e-11 -1.60467e-12 3.17568e-12)
(1.69058e-06 6.18459e-09 -2.31017e-09 3.1358e-11 -6.62077e-12 3.93526e-12)
(1.68921e-06 4.85008e-09 -1.64533e-09 2.11758e-11 -2.95835e-12 2.48564e-12)
(1.68902e-06 8.17621e-09 -1.30264e-09 4.57666e-11 -5.46913e-12 1.25978e-12)
(1.68395e-06 7.29545e-09 -1.14372e-09 3.4298e-11 -5.01408e-12 1.3008e-12)
(1.68087e-06 7.34955e-09 -6.63735e-10 3.61045e-11 -3.20766e-12 4.86238e-13)
(1.67676e-06 6.80123e-09 -1.07596e-09 3.34816e-11 -4.54447e-12 7.36392e-13)
(1.67514e-06 4.65278e-09 -6.30499e-10 1.92834e-11 -2.06918e-12 3.01499e-13)
(1.67507e-06 5.33703e-09 -9.6514e-10 2.4913e-11 -3.98948e-12 7.67831e-13)
(1.67188e-06 3.39534e-09 -1.07936e-10 1.59958e-11 -5.90173e-13 1.23501e-13)
(1.67033e-06 2.78093e-09 -4.39573e-11 1.65846e-11 4.25976e-13 1.47834e-13)
(1.66787e-06 -2.8007e-10 4.05294e-10 7.15128e-12 -1.86327e-13 4.28872e-13)
(1.67071e-06 -1.59679e-09 6.60996e-10 4.65878e-12 -5.52155e-13 3.32306e-13)
(1.67216e-06 -3.48309e-09 7.1266e-10 1.00064e-11 -1.37902e-12 5.25711e-13)
(1.67561e-06 -2.79019e-09 9.99464e-10 1.18344e-11 -1.60942e-12 7.12946e-13)
(1.67361e-06 -5.3633e-09 3.6371e-10 2.41457e-11 -1.68236e-12 1.54538e-13)
(1.67982e-06 -4.9496e-09 5.52161e-10 2.01009e-11 -1.80583e-12 2.79549e-13)
(1.68069e-06 -5.88084e-09 -4.16243e-10 2.4939e-11 1.24726e-12 1.91056e-13)
(1.68714e-06 -4.36474e-09 -5.23875e-10 1.47202e-11 1.45861e-12 2.71512e-13)
(1.68862e-06 -3.03248e-09 -9.7577e-10 1.24362e-11 1.44234e-12 8.75902e-13)
(1.68524e-06 -1.73293e-09 -1.30846e-09 1.57422e-11 1.20212e-12 1.7919e-12)
(1.69227e-06 -8.54627e-10 -1.18862e-09 1.35076e-11 7.09187e-13 1.14336e-12)
(1.68003e-06 -3.5912e-10 -1.2677e-09 7.16835e-12 1.06676e-12 1.81904e-12)
(1.69358e-06 1.0992e-09 -1.02887e-09 3.31652e-12 8.54803e-13 2.02696e-12)
(1.67998e-06 5.64414e-10 -5.44657e-10 7.77871e-12 7.39355e-13 8.48428e-13)
(1.68401e-06 6.56854e-11 1.90568e-10 1.41167e-11 -7.74363e-13 6.51462e-13)
(1.68093e-06 6.43386e-11 -1.01131e-10 2.27616e-11 -3.596e-12 1.41944e-12)
(1.68123e-06 -4.14656e-09 9.37942e-10 3.19199e-11 -8.3444e-12 3.47889e-12)
(1.68478e-06 -7.5127e-10 9.62726e-10 1.62996e-11 -6.22226e-12 4.00459e-12)
(1.67857e-06 -7.4529e-10 -5.10511e-10 1.04077e-11 -4.00835e-12 3.26209e-12)
(1.67492e-06 -6.97061e-10 5.07581e-10 1.66693e-11 -2.9419e-12 5.41533e-12)
(1.6565e-06 -5.68653e-09 1.96921e-09 4.35072e-11 -4.62586e-12 6.98873e-12)
(1.66004e-06 -1.84788e-09 5.5426e-10 1.95584e-11 -9.1449e-13 2.57431e-12)
(1.66131e-06 -4.75972e-09 -9.76373e-11 1.86527e-11 8.04414e-14 1.44957e-12)
(1.66072e-06 -3.23851e-09 -6.91433e-10 2.20867e-11 2.7067e-12 1.1503e-12)
(1.66405e-06 -2.22552e-09 -1.3694e-09 3.0796e-11 1.70412e-12 1.54236e-12)
(1.66261e-06 -4.14323e-09 -1.40423e-09 4.04639e-11 3.38026e-12 1.6889e-12)
(1.66486e-06 -2.22319e-09 -2.5697e-09 2.56876e-11 5.18999e-12 4.15189e-12)
(1.66985e-06 -3.1903e-09 -2.45951e-09 2.68074e-11 5.54675e-12 3.92999e-12)
(1.67112e-06 2.67961e-09 -3.05952e-09 1.97199e-11 -4.74116e-12 6.35854e-12)
(1.67176e-06 1.51435e-09 -2.66532e-09 3.79551e-11 7.3702e-13 5.13649e-12)
(1.66981e-06 7.87956e-09 -2.90788e-09 7.26139e-11 -8.71807e-12 6.9375e-12)
(1.66819e-06 4.33953e-09 -1.73743e-09 3.91043e-11 2.51089e-13 3.74482e-12)
(1.66863e-06 1.05734e-08 -1.47033e-09 8.61837e-11 -7.60184e-12 1.778e-12)
(1.66056e-06 7.94363e-09 -1.2996e-09 4.78366e-11 -6.08222e-12 2.40869e-12)
(1.65802e-06 8.87025e-09 -6.03966e-10 6.35534e-11 -4.1374e-12 1.27332e-12)
(1.65178e-06 8.07884e-09 -1.5522e-09 6.31368e-11 -7.50815e-12 1.58542e-12)
(1.65143e-06 4.60758e-09 -8.24252e-10 4.06003e-11 -3.53159e-12 6.95084e-13)
(1.65158e-06 6.87233e-09 -1.6615e-09 5.56044e-11 -9.23216e-12 2.19634e-12)
(1.64713e-06 3.17938e-09 -1.16068e-10 3.26079e-11 -2.91081e-13 1.89734e-13)
(1.64457e-06 3.67259e-09 -3.35891e-10 4.4733e-11 2.02614e-12 6.21235e-13)
(1.6414e-06 -1.39589e-09 4.54301e-10 2.68522e-11 5.4651e-13 1.27298e-12)
(1.64524e-06 -2.28021e-09 8.45302e-10 1.55936e-11 -6.65958e-13 5.87297e-13)
(1.64862e-06 -4.99233e-09 1.11125e-09 2.71497e-11 -2.67893e-12 1.59179e-12)
(1.65086e-06 -2.89251e-09 1.74973e-09 2.55481e-11 -3.42408e-12 2.17668e-12)
(1.64896e-06 -7.77943e-09 6.8362e-10 5.78188e-11 -4.66441e-12 6.49743e-13)
(1.6563e-06 -5.13549e-09 1.26538e-09 3.85811e-11 -4.48557e-12 1.27357e-12)
(1.65804e-06 -8.63791e-09 -3.32123e-10 6.19845e-11 8.89943e-13 3.08731e-13)
(1.66722e-06 -4.40027e-09 -1.73119e-10 2.87142e-11 7.57541e-13 2.93779e-13)
(1.66726e-06 -3.77787e-09 -1.04937e-09 3.53609e-11 1.93816e-12 1.47624e-12)
(1.66513e-06 -2.02578e-09 -1.20884e-09 4.47305e-11 3.33937e-12 2.64974e-12)
(1.67029e-06 1.11615e-09 -1.30595e-09 3.38272e-11 -7.49916e-13 1.76314e-12)
(1.65894e-06 -1.21594e-09 -1.22159e-09 4.09621e-11 7.21061e-12 3.24598e-12)
(1.67211e-06 4.30146e-09 -7.49684e-10 3.40391e-11 2.73408e-12 2.58169e-12)
(1.65599e-06 2.69481e-10 -3.50213e-10 1.30482e-11 1.72608e-12 1.28576e-12)
(1.66044e-06 1.72456e-09 1.11823e-09 2.04423e-11 2.07977e-12 1.27915e-12)
(1.65411e-06 -8.81994e-10 4.43423e-10 4.20262e-11 -3.72202e-12 1.57364e-12)
(1.65805e-06 -5.21746e-09 1.80754e-09 5.58276e-11 -1.5436e-11 5.60093e-12)
(1.66203e-06 -1.19926e-09 1.40328e-09 2.81397e-11 -9.54483e-12 5.6231e-12)
(1.65511e-06 -4.77809e-09 6.75962e-11 2.56678e-11 -5.48029e-12 3.32646e-12)
(1.65109e-06 1.78664e-09 6.82944e-10 5.84576e-11 -4.57625e-12 6.80405e-12)
(1.63197e-06 -7.62792e-09 2.74158e-09 1.21711e-10 -6.04076e-12 1.15732e-11)
(1.6375e-06 4.21501e-10 8.90853e-10 6.32064e-11 1.08263e-12 3.86318e-12)
(1.63645e-06 -5.93927e-09 -2.85936e-11 4.0791e-11 -1.35723e-13 2.46852e-12)
(1.63952e-06 -3.14736e-09 -6.73832e-10 6.09301e-11 5.16368e-12 1.51591e-12)
(1.63972e-06 -1.35678e-09 -1.72752e-09 9.77119e-11 2.06792e-12 2.46839e-12)
(1.63915e-06 -5.24046e-09 -1.51958e-09 1.18825e-10 9.14294e-12 2.75174e-12)
(1.64243e-06 -2.30566e-09 -3.59083e-09 8.6592e-11 1.15997e-11 8.6971e-12)
(1.65082e-06 -5.09714e-09 -3.03056e-09 7.20615e-11 1.46977e-11 6.53148e-12)
(1.65203e-06 3.74157e-09 -3.88201e-09 5.40017e-11 -7.34288e-12 1.13888e-11)
(1.65315e-06 8.14107e-10 -3.09863e-09 1.10277e-10 5.66328e-12 8.19819e-12)
(1.64911e-06 1.10613e-08 -3.5085e-09 1.91209e-10 -1.17621e-11 1.164e-11)
(1.64737e-06 3.90373e-09 -1.52906e-09 9.75336e-11 7.31427e-12 5.37559e-12)
(1.64847e-06 1.45724e-08 -1.58106e-09 1.79223e-10 -1.10962e-11 2.58532e-12)
(1.63603e-06 8.24607e-09 -1.36147e-09 7.4449e-11 -5.93693e-12 4.68901e-12)
(1.63534e-06 1.12312e-08 -4.35602e-10 1.32745e-10 -4.2151e-12 4.12023e-12)
(1.62536e-06 9.48647e-09 -2.26183e-09 1.41616e-10 -1.11099e-11 3.57027e-12)
(1.62783e-06 4.17021e-09 -1.06994e-09 1.12997e-10 -6.83944e-12 1.895e-12)
(1.6278e-06 8.88881e-09 -2.83362e-09 1.33998e-10 -2.07921e-11 6.35236e-12)
(1.62192e-06 1.94101e-09 -6.54881e-11 7.73487e-11 1.90261e-12 3.56553e-13)
(1.61842e-06 5.09878e-09 -9.80681e-10 1.24675e-10 7.59689e-12 2.79713e-12)
(1.61383e-06 -3.32114e-09 4.79557e-10 9.6942e-11 5.01752e-12 4.2069e-12)
(1.61981e-06 -3.17233e-09 1.01477e-09 5.72413e-11 6.90472e-13 1.11493e-12)
(1.62523e-06 -6.90692e-09 1.70315e-09 7.09716e-11 -5.20014e-12 4.81357e-12)
(1.62544e-06 -3.44437e-09 2.90822e-09 6.124e-11 -7.78694e-12 6.19145e-12)
(1.62417e-06 -1.06173e-08 1.06145e-09 1.37003e-10 -1.04639e-11 2.33246e-12)
(1.63229e-06 -5.36086e-09 2.33106e-09 9.94861e-11 -9.61839e-12 4.45988e-12)
(1.63542e-06 -1.20601e-08 -3.12032e-10 1.52801e-10 -7.49968e-13 8.12458e-13)
(1.64786e-06 -4.39159e-09 3.04121e-10 6.97557e-11 -1.08541e-13 7.7208e-13)
(1.64592e-06 -5.32055e-09 -1.29399e-09 1.01997e-10 4.05519e-12 3.20812e-12)
(1.64631e-06 -1.643e-09 -1.15812e-09 1.36935e-10 7.81691e-12 5.0691e-12)
(1.64783e-06 3.1796e-09 -1.6383e-09 1.19357e-10 -1.31692e-12 3.85603e-12)
(1.63888e-06 -1.43324e-09 -1.05972e-09 1.41567e-10 2.05708e-11 7.13236e-12)
(1.65021e-06 8.57798e-09 -3.57727e-10 1.15986e-10 5.72996e-12 3.85323e-12)
(1.63109e-06 -5.14384e-10 -1.53502e-11 3.646e-11 2.61532e-12 3.36056e-12)
(1.63684e-06 4.30822e-09 2.5691e-09 6.90164e-11 1.15774e-11 5.51078e-12)
(1.62515e-06 -1.70441e-09 1.17393e-09 1.32926e-10 -3.77158e-12 2.52596e-12)
(1.63523e-06 -6.81553e-09 2.94496e-09 1.69263e-10 -3.23685e-11 9.5572e-12)
(1.63909e-06 -8.75239e-10 1.83405e-09 9.65554e-11 -1.58109e-11 7.96933e-12)
(1.63291e-06 -7.2839e-09 1.03289e-09 7.70896e-11 -1.50792e-11 3.87575e-12)
(1.63014e-06 5.39462e-09 6.24235e-10 1.95053e-10 -9.70023e-12 9.52776e-12)
(1.6097e-06 -1.04741e-08 3.64787e-09 3.42416e-10 -4.26091e-12 1.89826e-11)
(1.61737e-06 4.40079e-09 1.10126e-09 2.05805e-10 7.80014e-12 6.38127e-12)
(1.61199e-06 -8.05243e-09 -1.74854e-10 1.02527e-10 1.6333e-12 5.19473e-12)
(1.62188e-06 -2.78419e-09 -8.06592e-10 1.78866e-10 1.25463e-11 2.19302e-12)
(1.61684e-06 5.58245e-10 -2.39273e-09 2.88619e-10 3.19741e-12 5.13008e-12)
(1.61715e-06 -6.37728e-09 -1.64072e-09 3.37074e-10 2.83944e-11 5.50304e-12)
(1.6212e-06 -1.63638e-09 -5.18331e-09 2.81069e-10 2.46684e-11 2.06104e-11)
(1.63377e-06 -7.90512e-09 -3.65406e-09 1.97573e-10 3.83881e-11 1.21442e-11)
(1.63503e-06 5.20354e-09 -4.81071e-09 1.43802e-10 -8.56693e-12 2.13601e-11)
(1.63737e-06 -2.00543e-10 -3.4269e-09 3.07756e-10 1.49315e-11 1.39296e-11)
(1.63016e-06 1.5625e-08 -3.9896e-09 5.06161e-10 -1.28563e-11 1.81795e-11)
(1.62874e-06 3.16723e-09 -9.48572e-10 2.7024e-10 2.10905e-11 8.02995e-12)
(1.63026e-06 2.00028e-08 -1.63722e-09 3.79676e-10 -1.49069e-11 4.71635e-12)
(1.61245e-06 7.45347e-09 -1.23945e-09 1.31756e-10 -5.09003e-13 1.00279e-11)
(1.61551e-06 1.47819e-08 -1.00849e-10 3.04642e-10 1.74028e-12 1.27916e-11)
(1.59919e-06 1.07288e-08 -3.27697e-09 3.51936e-10 -1.15753e-11 8.11319e-12)
(1.60681e-06 3.30476e-09 -1.42036e-09 3.3614e-10 -1.35245e-11 5.66007e-12)
(1.60546e-06 1.13775e-08 -4.69672e-09 3.28188e-10 -4.27196e-11 1.755e-11)
(1.5987e-06 -1.0363e-09 3.27853e-11 2.01234e-10 1.03962e-11 9.61794e-13)
(1.59426e-06 7.60664e-09 -2.14924e-09 3.42626e-10 2.35362e-11 1.05367e-11)
(1.58698e-06 -6.56374e-09 4.14462e-10 3.13293e-10 2.23405e-11 1.27976e-11)
(1.59662e-06 -3.93436e-09 1.14523e-09 1.92739e-10 7.92124e-12 2.51008e-12)
(1.60387e-06 -9.84166e-09 2.58005e-09 1.89877e-10 -1.1133e-11 1.41926e-11)
(1.60145e-06 -4.57765e-09 4.6951e-09 1.49881e-10 -1.77406e-11 1.7105e-11)
(1.60181e-06 -1.40442e-08 1.45967e-09 3.22857e-10 -2.10528e-11 8.02481e-12)
(1.60973e-06 -5.13707e-09 3.96472e-09 2.77903e-10 -1.922e-11 1.42386e-11)
(1.61458e-06 -1.66709e-08 -3.98333e-10 3.89455e-10 -6.01659e-12 2.59165e-12)
(1.63135e-06 -4.33099e-09 9.86208e-10 1.92949e-10 -3.56286e-13 2.49894e-12)
(1.62647e-06 -7.93671e-09 -1.64657e-09 2.8124e-10 1.3144e-11 7.48299e-12)
(1.63193e-06 -9.14528e-10 -1.21615e-09 3.87062e-10 2.22859e-11 1.1999e-11)
(1.62697e-06 6.27161e-09 -2.22032e-09 3.64793e-10 -2.67905e-12 9.23502e-12)
(1.62196e-06 -1.56292e-09 -7.82043e-10 4.13415e-10 5.03607e-11 1.69007e-11)
(1.62972e-06 1.45687e-08 2.23876e-10 3.37352e-10 1.33548e-11 7.55472e-12)
(1.60724e-06 -2.53495e-09 5.23276e-10 1.09715e-10 3.4404e-12 1.01665e-11)
(1.61517e-06 8.49522e-09 4.79269e-09 2.16877e-10 4.23037e-11 2.12799e-11)
(1.59562e-06 -3.51546e-09 2.08279e-09 3.72303e-10 1.98511e-12 6.82157e-12)
(1.61536e-06 -8.47204e-09 4.35322e-09 4.54786e-10 -5.95502e-11 1.78576e-11)
(1.61666e-06 -7.13749e-10 2.25618e-09 2.76882e-10 -1.95584e-11 1.40234e-11)
(1.61376e-06 -1.14798e-08 2.13779e-09 2.18347e-10 -3.26008e-11 8.07158e-12)
(1.61196e-06 1.10378e-08 1.69179e-10 5.74896e-10 -3.51824e-11 1.56191e-11)
(1.58947e-06 -1.44259e-08 4.75394e-09 8.82135e-10 4.5254e-13 3.03415e-11)
(1.59906e-06 1.0698e-08 1.00886e-09 5.87042e-10 1.55621e-11 1.11451e-11)
(1.58698e-06 -1.20814e-08 -6.72005e-10 2.80605e-10 7.13232e-12 1.2144e-11)
(1.6085e-06 -2.33833e-09 -1.13422e-09 4.86275e-10 3.15353e-11 3.59427e-12)
(1.59481e-06 3.44275e-09 -3.44659e-09 8.04744e-10 7.32046e-12 1.33668e-11)
(1.59625e-06 -8.21349e-09 -1.71824e-09 9.37387e-10 8.72314e-11 1.30943e-11)
(1.60078e-06 -4.79647e-10 -7.62221e-09 8.26954e-10 5.51092e-11 5.25196e-11)
(1.61876e-06 -1.27335e-08 -4.19393e-09 5.5508e-10 9.92529e-11 2.634e-11)
(1.6211e-06 6.91729e-09 -5.71813e-09 3.64961e-10 5.10927e-13 4.24017e-11)
(1.62537e-06 -1.40353e-09 -3.42293e-09 7.81021e-10 2.54411e-11 2.68979e-11)
(1.61339e-06 2.21383e-08 -4.09903e-09 1.28058e-09 -7.68129e-12 2.554e-11)
(1.6123e-06 2.78939e-09 3.00918e-10 7.30569e-10 4.29192e-11 1.31377e-11)
(1.61331e-06 2.7169e-08 -1.56842e-09 8.12011e-10 -1.69248e-11 1.03735e-11)
(1.58988e-06 5.47057e-09 -7.81566e-10 2.79151e-10 1.80409e-11 2.23163e-11)
(1.59881e-06 2.0443e-08 4.36613e-10 7.26978e-10 3.08529e-11 3.50982e-11)
(1.57253e-06 1.15872e-08 -4.69761e-09 8.99876e-10 8.73394e-13 1.84689e-11)
(1.58865e-06 2.34813e-09 -1.943e-09 9.42851e-10 -2.50846e-11 1.6212e-11)
(1.58373e-06 1.39704e-08 -7.47741e-09 7.82057e-10 -7.7532e-11 4.5496e-11)
(1.57802e-06 -6.36282e-09 3.04258e-10 5.28876e-10 3.52254e-11 3.242e-12)
(1.5725e-06 1.19531e-08 -4.1297e-09 8.98133e-10 5.99074e-11 3.34384e-11)
(1.56056e-06 -1.17122e-08 4.38413e-10 9.04552e-10 7.17525e-11 3.52103e-11)
(1.57588e-06 -4.16831e-09 1.13594e-09 5.79781e-10 3.19091e-11 6.90424e-12)
(1.58381e-06 -1.44981e-08 3.91705e-09 5.09386e-10 -2.46355e-11 4.04636e-11)
(1.57947e-06 -6.71674e-09 7.40178e-09 3.62264e-10 -3.85156e-11 4.6527e-11)
(1.58247e-06 -1.75488e-08 1.89485e-09 7.27361e-10 -4.14888e-11 2.74558e-11)
(1.58819e-06 -4.46664e-09 6.38461e-09 7.65087e-10 -4.0764e-11 4.27637e-11)
(1.5953e-06 -2.24801e-08 -7.43639e-10 9.85596e-10 -2.24809e-11 9.49609e-12)
(1.61725e-06 -4.53644e-09 1.94529e-09 5.31107e-10 1.69259e-12 7.69742e-12)
(1.60933e-06 -1.22779e-08 -2.06285e-09 7.08246e-10 4.65656e-11 1.8033e-11)
(1.62277e-06 9.64917e-10 -1.53612e-09 9.94878e-10 6.08391e-11 3.2026e-11)
(1.60766e-06 1.036e-08 -2.9727e-09 1.0177e-09 -5.99099e-12 2.1197e-11)
(1.60848e-06 -1.10868e-09 -3.029e-10 1.07498e-09 1.03047e-10 3.90636e-11)
(1.60957e-06 2.2119e-08 1.05565e-09 8.27238e-10 2.50947e-11 1.80573e-11)
(1.5848e-06 -6.3797e-09 1.41143e-09 2.98203e-10 6.28226e-12 2.80492e-11)
(1.59583e-06 1.50235e-08 8.06635e-09 6.27306e-10 1.29051e-10 6.64788e-11)
(1.56515e-06 -6.7542e-09 3.14448e-09 9.80933e-10 1.96e-11 2.05286e-11)
(1.59868e-06 -9.50648e-09 6.015e-09 1.14539e-09 -9.83443e-11 3.44584e-11)
(1.59434e-06 -1.48112e-09 2.52134e-09 7.29437e-10 -8.07165e-12 3.06784e-11)
(1.59887e-06 -1.69343e-08 3.40967e-09 5.56436e-10 -5.80136e-11 2.29874e-11)
(1.59649e-06 1.87814e-08 -5.55573e-10 1.50487e-09 -1.19442e-10 3.31783e-11)
(1.57171e-06 -1.97683e-08 5.86623e-09 2.09877e-09 3.57651e-12 4.40587e-11)
(1.58207e-06 2.01091e-08 3.12481e-10 1.48579e-09 8.97035e-12 2.28986e-11)
(1.56071e-06 -1.90964e-08 -1.68724e-09 7.51675e-10 2.9463e-11 3.06032e-11)
(1.60089e-06 -1.41946e-09 -1.70899e-09 1.22832e-09 8.11664e-11 7.86202e-12)
(1.57368e-06 7.76394e-09 -4.98765e-09 2.01322e-09 1.72283e-11 3.87291e-11)
(1.57667e-06 -1.03768e-08 -1.67308e-09 2.37691e-09 2.40132e-10 3.33322e-11)
(1.58067e-06 1.8604e-09 -1.12169e-08 2.21362e-09 1.21301e-10 1.34807e-10)
(1.60542e-06 -2.03817e-08 -4.35386e-09 1.50354e-09 2.45854e-10 6.57656e-11)
(1.61091e-06 9.29144e-09 -6.2999e-09 8.91083e-10 4.41761e-11 8.89803e-11)
(1.61759e-06 -2.69686e-09 -2.83641e-09 1.81851e-09 2.03442e-11 6.33732e-11)
(1.59914e-06 3.09731e-08 -3.47949e-09 3.03619e-09 3.77187e-12 3.1542e-11)
(1.5978e-06 3.14338e-09 2.22903e-09 1.8583e-09 6.27085e-11 2.31756e-11)
(1.59671e-06 3.55863e-08 -1.13704e-09 1.71582e-09 -1.31774e-11 2.52247e-11)
(1.56893e-06 2.27028e-09 2.77569e-10 6.51424e-10 6.45806e-11 5.00632e-11)
(1.58549e-06 2.8962e-08 1.31948e-09 1.69424e-09 1.26708e-10 8.35434e-11)
(1.54488e-06 1.15876e-08 -6.55382e-09 2.2127e-09 4.76064e-11 4.24648e-11)
(1.57354e-06 1.86458e-09 -2.82959e-09 2.41081e-09 -4.05439e-11 4.46279e-11)
(1.56171e-06 1.58533e-08 -1.13476e-08 1.77499e-09 -1.13309e-10 1.08988e-10)
(1.56128e-06 -1.44884e-08 9.14337e-10 1.31492e-09 9.7408e-11 1.14914e-11)
(1.55342e-06 1.89399e-08 -6.9997e-09 2.20193e-09 1.30553e-10 9.10063e-11)
(1.53433e-06 -1.95999e-08 6.33907e-10 2.35283e-09 1.91495e-10 8.48189e-11)
(1.55766e-06 -3.42532e-09 9.49105e-10 1.57116e-09 9.59449e-11 2.30208e-11)
(1.5643e-06 -2.23015e-08 6.00502e-09 1.35841e-09 -4.88838e-11 1.13751e-10)
(1.56072e-06 -1.00478e-08 1.15576e-08 8.65597e-10 -7.31816e-11 1.27893e-10)
(1.56684e-06 -2.03171e-08 2.4408e-09 1.55773e-09 -8.39424e-11 9.16695e-11)
(1.56722e-06 -3.2868e-09 9.87898e-09 1.97628e-09 -9.50384e-11 1.27161e-10)
(1.57721e-06 -2.95232e-08 -1.4972e-09 2.4174e-09 -6.92393e-11 3.5565e-11)
(1.60518e-06 -5.71496e-09 3.37578e-09 1.405e-09 9.89499e-12 2.33886e-11)
(1.5955e-06 -1.86959e-08 -2.36034e-09 1.64474e-09 1.4595e-10 4.59483e-11)
(1.6201e-06 4.46753e-09 -2.28162e-09 2.32724e-09 1.57877e-10 9.20454e-11)
(1.58982e-06 1.5533e-08 -3.77541e-09 2.55789e-09 -2.0998e-11 4.6035e-11)
(1.59836e-06 2.15802e-10 3.12769e-10 2.53896e-09 1.68709e-10 8.4356e-11)
(1.58873e-06 3.08193e-08 2.3567e-09 1.80917e-09 3.47995e-11 4.69792e-11)
(1.56459e-06 -1.22607e-08 2.83414e-09 7.45822e-10 1.56736e-11 6.83881e-11)
(1.57891e-06 2.45891e-08 1.25822e-08 1.62322e-09 3.42963e-10 1.73817e-10)
(1.53366e-06 -1.21293e-08 4.27986e-09 2.35591e-09 5.62079e-11 5.81273e-11)
(1.58524e-06 -9.12646e-09 7.82905e-09 2.63468e-09 -1.41382e-10 6.85241e-11)
(1.57121e-06 -4.5772e-09 2.67562e-09 1.73609e-09 5.86712e-11 7.873e-11)
(1.58949e-06 -2.3803e-08 4.79782e-09 1.30404e-09 -7.85388e-11 7.05628e-11)
(1.58372e-06 2.8632e-08 -1.44516e-09 3.51973e-09 -3.57642e-10 9.54485e-11)
(1.55713e-06 -2.65342e-08 6.99134e-09 4.56829e-09 -4.40958e-11 6.34526e-11)
(1.56551e-06 3.30578e-08 -1.15597e-09 3.41049e-09 -7.18762e-11 6.05181e-11)
(1.53264e-06 -3.07783e-08 -3.13236e-09 1.96525e-09 9.61092e-11 7.86618e-11)
(1.60078e-06 3.80248e-10 -2.39874e-09 2.8689e-09 2.03719e-10 2.25375e-11)
(1.55341e-06 1.34698e-08 -6.965e-09 4.5739e-09 3.09503e-11 1.1229e-10)
(1.55886e-06 -1.30577e-08 -1.34502e-09 5.50816e-09 5.906e-10 8.63273e-11)
(1.56018e-06 5.39764e-09 -1.62618e-08 5.43049e-09 2.67524e-10 3.3521e-10)
(1.59393e-06 -3.23508e-08 -3.51014e-09 3.89397e-09 5.84473e-10 1.76368e-10)
(1.60593e-06 1.27149e-08 -5.8743e-09 2.1054e-09 1.9021e-10 2.00107e-10)
(1.61481e-06 -4.12522e-09 -1.14942e-09 3.86341e-09 -5.03335e-11 1.7853e-10)
(1.58832e-06 4.25692e-08 -1.39503e-09 6.68027e-09 3.54303e-12 4.64001e-11)
(1.58492e-06 4.93861e-09 4.72889e-09 4.43637e-09 4.30531e-11 4.4185e-11)
(1.58009e-06 4.44087e-08 5.27334e-11 3.59515e-09 -1.31724e-12 6.15212e-11)
(1.55086e-06 -1.42835e-09 2.36702e-09 1.55028e-09 1.67944e-10 1.07579e-10)
(1.57554e-06 4.0992e-08 2.71743e-09 3.76396e-09 3.80018e-10 1.76801e-10)
(1.51634e-06 1.02794e-08 -8.78659e-09 5.10639e-09 1.66613e-10 1.07753e-10)
(1.56178e-06 2.47481e-09 -4.32958e-09 5.63619e-09 -4.56878e-11 1.21061e-10)
(1.5386e-06 1.5732e-08 -1.60082e-08 3.81832e-09 -9.83939e-11 2.39371e-10)
(1.55041e-06 -2.53767e-08 2.43795e-09 2.98318e-09 2.25061e-10 3.98016e-11)
(1.53725e-06 2.9336e-08 -1.07403e-08 4.95878e-09 2.3719e-10 2.20673e-10)
(1.50839e-06 -3.099e-08 1.41154e-09 5.51481e-09 4.24488e-10 1.88734e-10)
(1.54192e-06 -1.31505e-09 4.72998e-10 3.88093e-09 2.40195e-10 8.62652e-11)
(1.54475e-06 -3.51953e-08 9.41569e-09 3.53541e-09 -7.01237e-11 3.1753e-10)
(1.54772e-06 -1.43442e-08 1.79124e-08 2.03429e-09 -9.64771e-11 3.52639e-10)
(1.55573e-06 -2.1541e-08 3.48322e-09 3.17361e-09 -1.6729e-10 2.96713e-10)
(1.54631e-06 -2.01411e-09 1.48393e-08 4.71349e-09 -2.31023e-10 3.79927e-10)
(1.56e-06 -3.77593e-08 -2.88343e-09 5.68432e-09 -1.86494e-10 1.33106e-10)
(1.59501e-06 -9.15606e-09 5.63818e-09 3.54705e-09 3.2309e-11 7.22542e-11)
(1.58648e-06 -2.71507e-08 -2.29787e-09 3.52966e-09 4.08011e-10 1.26769e-10)
(1.62503e-06 1.00745e-08 -3.56314e-09 4.94765e-09 3.7949e-10 2.75224e-10)
(1.57384e-06 2.16238e-08 -4.29311e-09 5.83817e-09 -8.11152e-11 1.06505e-10)
(1.59173e-06 2.81715e-09 8.87452e-10 5.52253e-09 1.74987e-10 1.76989e-10)
(1.56655e-06 3.96077e-08 4.4822e-09 3.59317e-09 -5.66286e-13 1.26512e-10)
(1.54791e-06 -2.00099e-08 5.19361e-09 1.69001e-09 3.72636e-11 1.50592e-10)
(1.56448e-06 3.75325e-08 1.86975e-08 3.73813e-09 8.06863e-10 3.9772e-10)
(1.50167e-06 -2.02068e-08 5.59859e-09 5.16483e-09 1.0282e-10 1.62579e-10)
(1.57493e-06 -6.7106e-09 9.4986e-09 5.62888e-09 -1.82679e-10 1.46323e-10)
(1.54673e-06 -1.20149e-08 2.8139e-09 3.89231e-09 2.79726e-10 2.08837e-10)
(1.58766e-06 -3.16335e-08 6.45326e-09 2.82856e-09 -4.32742e-11 2.20515e-10)
(1.57351e-06 3.97821e-08 -2.20581e-09 7.42401e-09 -9.42898e-10 3.49079e-10)
(1.54668e-06 -3.48369e-08 8.18722e-09 9.08563e-09 -2.98582e-10 1.4358e-10)
(1.54815e-06 4.92658e-08 -3.78726e-09 7.14675e-09 -3.68639e-10 2.0457e-10)
(1.50301e-06 -4.89586e-08 -4.68413e-09 4.98544e-09 2.83712e-10 2.09674e-10)
(1.61062e-06 3.8821e-09 -2.94065e-09 6.25574e-09 4.98024e-10 7.62645e-11)
(1.53423e-06 2.00634e-08 -9.20391e-09 9.41012e-09 1.60353e-11 3.34501e-10)
(1.54385e-06 -1.64314e-08 -2.24049e-10 1.16085e-08 1.30634e-09 2.38978e-10)
(1.53906e-06 9.73901e-09 -2.29757e-08 1.22841e-08 5.85557e-10 8.1575e-10)
(1.58509e-06 -4.9894e-08 -3.45033e-10 9.61172e-09 1.33465e-09 4.92965e-10)
(1.60801e-06 1.84409e-08 -3.18405e-09 4.88982e-09 6.36202e-10 4.87465e-10)
(1.61773e-06 -5.56516e-09 2.53069e-09 7.55837e-09 -2.77626e-10 5.66129e-10)
(1.58236e-06 5.73051e-08 3.18281e-09 1.36054e-08 -9.64095e-11 1.73852e-10)
(1.57338e-06 8.80437e-09 7.74803e-09 9.99161e-09 -1.21975e-10 1.23183e-10)
(1.56359e-06 5.23739e-08 2.98217e-09 7.56001e-09 3.72035e-11 1.65053e-10)
(1.53752e-06 -4.22894e-09 6.17813e-09 3.62144e-09 4.09069e-10 2.24748e-10)
(1.56869e-06 5.68905e-08 5.22898e-09 7.82031e-09 9.73977e-10 3.59137e-10)
(1.48769e-06 6.9729e-09 -1.10414e-08 1.09169e-08 4.12082e-10 3.32842e-10)
(1.55369e-06 4.93399e-09 -6.80903e-09 1.22e-08 -2.86779e-12 3.50249e-10)
(1.51442e-06 1.17389e-08 -2.06109e-08 7.91487e-09 1.07262e-10 4.98723e-10)
(1.54833e-06 -3.82884e-08 5.95739e-09 6.18028e-09 4.58824e-10 1.38286e-10)
(1.52415e-06 4.34673e-08 -1.48241e-08 1.02253e-08 3.57767e-10 5.07287e-10)
(1.48325e-06 -4.67683e-08 3.35459e-09 1.17664e-08 7.95865e-10 4.30697e-10)
(1.52851e-06 2.13092e-09 -1.96937e-10 8.87185e-09 5.57023e-10 3.34584e-10)
(1.52539e-06 -5.55254e-08 1.53748e-08 8.89061e-09 -2.62177e-12 8.94214e-10)
(1.54371e-06 -1.86203e-08 2.79792e-08 4.72931e-09 4.23039e-11 9.82506e-10)
(1.54952e-06 -2.061e-08 5.53503e-09 6.16906e-09 -2.63511e-10 9.48521e-10)
(1.52553e-06 -1.39679e-09 2.1942e-08 1.03279e-08 -5.17933e-10 1.16367e-09)
(1.54382e-06 -4.71984e-08 -4.95202e-09 1.27539e-08 -4.25471e-10 5.00618e-10)
(1.58737e-06 -1.64139e-08 9.59844e-09 8.56135e-09 1.06764e-10 2.38032e-10)
(1.58476e-06 -3.72954e-08 -1.04258e-09 7.14433e-09 1.04597e-09 3.64788e-10)
(1.63869e-06 1.78595e-08 -5.23699e-09 9.62804e-09 8.80938e-10 8.40237e-10)