/*--------------------------------*- C++ -*----------------------------------*\
  =========                 |
  \\      /  F ield         | OpenFOAM: The Open Source CFD Toolbox
   \\    /   O peration     | Website:  https://openfoam.org
    \\  /    A nd           | Version:  10
     \\/     M anipulation  |
\*---------------------------------------------------------------------------*/
FoamFile
{
    format      ascii;
    class       volScalarField;
    location    "20";
    object      p;
}
// * * * * * * * * * * * * * * * * * * * * * * * * * * * * * * * * * * * * * //

dimensions      [0 2 -2 0 0 0 0];

internalField   nonuniform List<scalar> 
102400
(
-0.00741204
-0.00868918
0.00810503
-0.00542226
-0.0071094
-0.00112837
0.00373373
-0.00829339
-0.00932032
0.00806358
0.00482219
-0.00390421
-0.0127337
-0.000105225
-0.00290574
-0.000643344
0.00323412
0.000890933
-0.0228172
-0.000311391
-0.0064513
-0.0225355
0.00813802
0.00381708
-0.00189701
-0.0126609
-0.00443035
-0.00103985
-0.00702898
0.00759494
0.00757321
0.00225811
-0.0309036
-0.00795587
0.00302871
-0.0110429
0.0103391
-0.0012215
-0.015346
-0.00210501
-0.0287954
-0.0203702
-0.00573854
-0.0258712
-0.0221914
-0.0226163
-0.0108419
-0.0296207
-0.0320783
-0.0127106
-0.0192957
-0.0257724
-0.035768
-0.0217876
-0.0252182
-0.0221071
-0.0193945
-0.0214471
-0.0326352
-0.016224
-0.0283466
-0.0462667
-0.0132442
-0.0173591
-0.0168416
-0.0303475
-0.020735
-0.0236182
-0.0224777
-0.0118819
-0.0167682
-0.0202025
-0.0545775
-0.0258493
-0.0149157
-0.0328102
-0.0120312
-0.0148538
-0.0393347
-0.0177243
-0.0214095
-0.0221258
0.00572902
-0.0111271
-0.00886472
-0.0115577
-0.00569818
-0.0217861
-0.0209483
-0.00123484
-0.00412661
-0.0163912
-0.0242697
-0.0134026
-0.0162629
-0.0151791
-0.00920549
-0.00836236
-0.037132
-0.0115809
-0.018201
-0.0372455
-0.00427198
-0.0132114
-0.0152739
-0.0149739
-0.0163766
-0.0130184
-0.0208942
-0.00450059
-0.000687681
-0.0119449
-0.0465482
-0.0212987
-0.00826496
-0.0228156
-0.00376711
-0.013501
-0.0304229
-0.0144746
-0.0250977
-0.0283204
-0.00327522
-0.0123235
-0.0201219
-0.00904319
-0.0121017
-0.0272734
-0.0223022
0.00105778
-0.0116195
-0.0258244
-0.0249634
-0.0190992
-0.0168742
-0.0149314
-0.0160115
-0.0130204
-0.0463226
-0.0202782
-0.015624
-0.0341583
-0.0127879
-0.0129633
-0.0222495
-0.0278228
-0.0251794
-0.0103144
-0.026553
-0.0120395
-0.00487884
-0.0131515
-0.045276
-0.0286114
-0.0168686
-0.0249058
-0.00353426
-0.0218901
-0.0269845
-0.0221064
-0.0137273
-0.0192515
-0.00756579
-0.0133501
-0.0206566
-0.00606099
-0.00506305
-0.0183791
-0.0201021
-0.000941517
-0.00561334
-0.0207848
-0.0152971
-0.015594
-0.0147984
-0.00743735
-0.0118101
-0.00951727
-0.0289829
-0.0144132
-0.0164351
-0.0317675
-0.00698679
-0.00431736
-0.0114352
-0.0246455
-0.0199917
-0.0108351
-0.0118471
-0.00565549
0.000604701
-0.00298197
-0.0425056
-0.0155857
-0.00981088
-0.0186934
-0.0031939
-0.0182609
-0.0237417
-0.0164303
-0.0156104
-0.0215521
-0.00710097
-0.0231536
-0.026477
-0.0134232
-0.00300355
-0.0203119
-0.0229228
-0.0110102
-0.00590174
-0.0190453
-0.0312937
-0.0191048
-0.0182952
-0.00832872
-0.0101718
-0.0120395
-0.0350214
-0.0120447
-0.0248863
-0.0420772
0.000671164
-0.00657771
-0.0122777
-0.0254598
-0.0163597
-0.0159566
-0.020475
-0.00436316
0.000571481
-0.00553988
-0.0459672
-0.0172067
-0.00778398
-0.0218779
-0.00496499
-0.0178372
-0.0321013
-0.0165576
-0.0164285
-0.0174036
-0.000405026
-0.0248173
-0.0331292
-0.0177247
-0.00549605
-0.0221355
-0.0217215
-0.00733188
-0.00739426
-0.0118429
-0.0265979
-0.0187934
-0.0213085
-0.0129445
-0.000312655
-0.00888236
-0.0337903
-0.0112195
-0.0192989
-0.0421604
0.000622606
-0.00536439
-0.0120505
-0.022569
-0.0164778
-0.0121239
-0.0279939
-0.00776632
0.00205433
-0.0161456
-0.0446659
-0.0143984
-0.00743764
-0.0256789
-0.00569208
-0.00718172
-0.0295369
-0.0154254
-0.0180726
-0.0174936
0.00144429
-0.0196768
-0.0365209
-0.0198766
-0.016947
-0.0256814
-0.0227023
-0.00576385
-0.012616
-0.0075143
-0.0228261
-0.0164165
-0.0328722
-0.0216183
0.000305276
-0.0156614
-0.0340999
-0.0196355
-0.0233132
-0.0454067
-0.0134577
-0.00789203
-0.0168981
-0.0204846
-0.0208503
-0.0114832
-0.032275
-0.0207212
-0.00547631
-0.0140002
-0.0608575
-0.0143034
-0.00521338
-0.0275712
-0.00922328
-0.00527022
-0.021362
-0.0162841
-0.0180716
-0.0235677
-0.00242707
-0.0090083
-0.0284882
-0.0160165
-0.0147857
-0.0230666
-0.0251858
-0.000427807
-0.0117904
-0.0149468
-0.0194134
-0.0186127
-0.0307626
-0.0204631
0.00128405
-0.0125257
-0.0284747
-0.0189604
-0.0272111
-0.0357865
-0.012961
-0.00463562
-0.0215505
-0.0205411
-0.0182953
-0.0106011
-0.0286133
-0.025838
-0.00725795
-0.00514578
-0.0571998
-0.0210531
-0.00669059
-0.0191
0.000267896
-0.00554615
-0.0211229
-0.0141085
-0.0158053
-0.0235666
-0.00162839
-0.00895295
-0.0277404
-0.00678347
-0.015875
-0.0221039
-0.0282976
0.00245564
-0.021679
-0.0165037
-0.012566
-0.0286061
-0.0266211
-0.0204657
0.00250655
-0.0150754
-0.0417441
-0.0202902
-0.030491
-0.0307787
0.00338487
-0.00218515
-0.0200103
-0.0282106
-0.0214085
-0.0161748
-0.0231748
-0.0185746
-0.00906374
-0.0123666
-0.0591656
-0.0296996
-0.013851
-0.0203194
0.00208568
-0.00807766
-0.0232082
-0.00957733
-0.0154383
-0.0204526
-0.00306706
-0.011542
-0.0319551
0.00172065
-0.0218844
-0.031154
-0.020141
0.00527769
-0.0313245
-0.00971809
-0.0136165
-0.0334599
-0.0242055
-0.0174215
0.00266889
-0.000710941
-0.0356609
-0.0248051
-0.0360371
-0.0348008
0.00104753
-0.00189745
-0.0134595
-0.0340373
-0.0313842
-0.0142426
-0.0237867
-0.0127581
-0.00710679
-0.00643809
-0.0477333
-0.0283285
-0.0152741
-0.0283553
-0.00923142
-0.0108379
-0.0282243
-0.0145538
-0.0206476
-0.0168996
-0.00897211
-0.0185549
-0.0431353
-0.0121833
-0.00864715
-0.0341252
-0.014546
0.00499231
-0.0252667
-0.0109368
-0.0199761
-0.0357837
-0.0282847
-0.0158012
-0.00673223
0.000727949
-0.025777
-0.0147045
-0.0374246
-0.0309335
-0.00153845
-0.000533065
-0.0106444
-0.0254443
-0.0221846
-0.0133137
-0.0266323
-0.0124798
0.00235856
-0.000844079
-0.0324956
-0.0104764
-0.00758274
-0.0346219
-0.013042
-0.00123016
-0.0277428
-0.0195702
-0.0274951
-0.00796848
-0.00729015
-0.0109938
-0.0202817
-0.00778545
-0.00582624
-0.0326015
-0.0203468
0.00477003
-0.0112994
-0.0134869
-0.0242158
-0.0242266
-0.0225409
-0.0172885
-0.0119677
-0.00360471
-0.0185241
-0.0177732
-0.0363602
-0.0120665
-0.00873609
0.00366689
-0.011377
-0.0183167
-0.0155736
-0.0139703
-0.0227134
-0.0321281
-0.00147135
-0.00951167
-0.0284625
-0.00977417
-0.00898423
-0.0282204
-0.00748036
0.00571331
-0.0222808
-0.0194363
-0.0268412
-0.013439
-0.00411505
-0.022106
-0.0353495
0.0108651
-0.0104864
-0.037314
-0.0222297
0.000225313
-0.00371351
-0.00736385
-0.0255628
-0.0288804
-0.0179541
-0.00789501
-0.00283158
-0.020605
-0.0154139
-0.0201428
-0.0359905
-0.0158898
-0.0113713
-0.0134548
-0.0261553
-0.0185546
-0.0122647
-0.013476
-0.0114688
-0.0299424
-0.00711998
-0.00863383
-0.0335028
-0.0136686
-0.014715
-0.0257374
-0.00828667
0.00332145
-0.0224266
-0.0209006
-0.0222512
-0.0214837
-0.00168086
-0.0210432
-0.046494
-0.0173437
-0.0203497
-0.0332498
-0.00970299
-0.0032918
-0.00813095
-0.0141542
-0.019425
-0.033015
-0.0287571
-0.0274612
0.00846258
-0.018251
-0.0298076
-0.0284188
-0.0309842
-0.0214838
-0.00403658
-0.0162791
-0.0212765
-0.00841856
-0.00908962
-0.0177079
-0.0130212
-0.0207665
-0.0149599
-0.0018685
-0.0299038
-0.0196453
-0.00602042
-0.0272441
-0.0155156
0.00709146
-0.025624
-0.0389635
-0.019659
-0.00735623
-0.00567096
-0.0168929
-0.0377296
-0.00322358
-0.0179413
-0.020156
-0.0111548
-0.0140343
-0.0265447
-0.00793783
-0.01233
-0.0286405
-0.0354006
-0.0281303
-0.0075088
-0.00758513
-0.0269663
-0.0288259
-0.0194233
-0.0195758
-0.00980421
-0.0164892
-0.0101596
-0.0207912
-0.0247846
-0.0263823
-0.0220944
-0.00241082
-0.0117691
-0.025601
-0.0300028
-0.0362102
-0.016184
-0.0511845
-0.00287162
0.00597435
-0.0159353
-0.0304172
-0.0372699
-0.00406838
0.00693563
-0.00157022
-0.0295866
-0.00803019
-0.0313283
-0.0195322
-0.01416
-0.00743024
-0.0271807
-0.0174388
-0.0300017
-0.0390693
-0.0221799
-0.0193437
-0.000691343
-0.0146226
-0.0239512
-0.0188579
-0.0175498
-0.0174465
-0.0351013
-0.0216651
-0.00905646
-0.0162866
-0.0227867
-0.0255165
-0.0189477
-0.00575773
-0.0127058
-0.00881847
-0.0277486
-0.0273313
-0.0144208
-0.0191891
-0.0242881
0.00557584
-0.00923682
-0.0226518
-0.0375961
-0.0111784
0.0170256
-0.0184222
-0.0255993
-0.0148042
-0.0193358
-0.0130749
-0.0134454
-0.00661735
-0.0160337
0.00830172
-0.0170514
-0.0362151
-0.0301497
-0.0234158
-8.62551e-05
-0.00864891
-0.0290076
-0.0241326
-0.0207774
-0.0175141
-0.00863141
-0.0104004
-0.00747065
-0.0231212
-0.0101123
-0.0202845
-0.0122583
-0.00364542
-0.0133259
-0.000812296
-0.0235831
-0.0382254
-0.0184955
-0.0114797
-0.0127792
0.000865003
-0.00680652
-0.0190576
-0.032146
-0.0119584
-0.000373202
-0.0124882
-0.0167884
-0.0119461
-0.0202954
-0.0140263
-0.0186334
-0.0086997
0.00237261
0.00428245
-0.00764582
-0.0232596
-0.0281377
-0.0287765
-0.00146064
-0.0030832
-0.0254863
-0.01357
-0.0245767
-0.0194082
-0.00246198
-0.0184193
-0.00965687
-0.0295706
-0.0231325
-0.0176269
-0.0109656
-0.00585794
-0.00338279
-0.00973252
-0.0275752
-0.0347839
-0.0211231
-0.0186783
-0.0099984
-0.00521948
-0.0168478
-0.0266031
-0.0279311
-0.0163436
-0.00506516
-0.0062174
-0.0190595
-0.0295415
-0.020406
-0.00916527
-0.0235731
-0.0208689
-0.017264
-0.00837119
-0.00685602
-0.0172939
-0.0136444
-0.030925
-0.00715273
0.000820091
-0.0159712
-0.0183361
-0.0101825
-0.00566502
-0.0112456
-0.0177173
-0.0223341
-0.014418
-0.0191576
-0.0151493
-0.00623442
-0.00647483
0.012966
-0.0192058
-0.0207382
-0.0206345
-0.00894458
-0.00713062
-0.0146592
-0.00429424
-0.0125474
-0.0291435
-0.0145018
-0.00628373
0.00365372
-0.0126379
-0.0182533
-0.00760963
-0.0138727
0.000310932
-0.0291209
-0.0136424
-0.0135201
-0.0140909
-0.0139888
-0.00924555
-0.0147727
-0.0351077
-0.0221194
-0.00323056
-0.0350653
-0.0118711
-0.00193207
-0.00880444
-0.0174
-0.0161547
-0.00421011
-0.0101985
-0.0158276
-0.0128082
0.00587021
-0.00588296
-0.0123955
-0.0236669
-0.019613
-0.0293937
-0.00582972
-0.00572261
0.00408473
0.00419227
-0.0095651
-0.028179
-0.0195789
-0.00825957
0.000545466
0.00158303
-0.00220786
-0.0161546
-0.0190199
-0.00856253
-0.0133879
-0.0177815
0.000226175
-0.000705786
-0.0169036
-0.0231687
-0.00778716
-0.0131693
-0.00596395
-0.00553978
-0.024286
-0.0191333
-0.0105871
-0.0199334
-0.0173352
-0.00265368
-0.00740522
-0.0141369
-0.0142608
-0.0128471
-0.00455019
-0.00480203
-0.00239236
-0.0161696
-0.0177297
-0.0153869
-0.0144886
-0.0106771
-0.0132264
-0.00605172
-0.0107966
-0.0226249
-0.0189606
-0.00548076
-0.00127161
-0.00301246
-0.00981282
-0.00770354
0.00405424
0.000746088
-0.00307122
-0.0123354
-0.00330537
-0.00764482
-0.00739667
-0.0137677
-0.00688097
-0.0165842
-0.00934197
-0.00823465
-0.0255332
-0.0209528
-0.016399
-0.0273768
-0.0210552
-0.0116152
-0.00629766
-0.0135183
-0.00904571
-0.00974632
0.00100156
-0.0200482
-0.0106683
-0.00629643
-0.0103516
-0.0120004
-0.0100088
-0.0101611
-0.00857608
-0.000651721
-0.00514315
-0.010573
-0.0174002
-0.0144818
0.00596394
-0.00320566
-0.00847789
-0.0106527
-0.0127503
-0.00430199
-0.00112008
-0.0069269
0.000659801
0.00207849
-0.000566677
-0.0140706
-0.0165161
-0.01215
-0.0137974
-0.0107905
-0.00910264
-0.00925787
-0.00680786
-0.0145481
-0.00700006
-0.00266728
-0.00850461
-0.0166585
-0.00922452
-0.00811773
-0.00808122
-0.0183052
-0.00729377
-0.00363635
-0.0131037
-0.00717127
-0.0078863
-0.0132476
-0.0106935
-0.011145
-0.012365
-0.00786318
-0.0107923
-0.0140616
-0.0128875
-0.00463366
-0.0108792
-0.00276925
-0.0029746
-0.0110809
-0.00297362
-0.00662464
-0.00534067
0.00173934
-0.00581184
-0.00959097
-0.0149805
-0.0177452
-0.0127082
-0.00897347
-0.00811255
-0.00769213
-0.00787573
-0.0142073
-0.00952089
-0.00149224
-0.00664788
-0.0146728
-0.0137212
-0.00782866
-0.0068903
-0.0125485
-0.0123151
-0.00872327
-0.00774052
-0.0023215
-0.00125345
-0.009277
-0.0125159
-0.00657624
-0.0158358
-0.0090884
-0.00805751
-9.44792e-06
-0.00861899
-0.00605892
-0.0126093
-0.004355
-0.00597482
-0.00883613
-0.00749809
-0.0137387
0.000612568
0.0011747
-0.00461355
-0.00314448
-0.0126629
-0.00852631
-0.00623013
-0.00502098
-0.00143003
-0.00931837
-0.00995864
-0.0112024
-0.00997773
-0.00405259
-0.00582214
-0.0005037
-0.0131739
-0.0156304
-0.00591519
0.00176055
-0.00774829
-0.00531179
-0.00965941
-0.00492097
-0.00200138
-9.29557e-05
-0.00865897
-0.0111512
-0.00603006
-0.00642979
-0.00649789
-0.00403246
-0.00230009
-0.00389391
-0.00705251
-0.00527565
-0.00611067
-0.00299684
-0.00635532
-0.00895593
-0.00462492
0.00203693
-0.00228791
-0.00655178
-0.010915
-0.00904547
-0.0106931
-0.00892032
-0.0083116
-0.00333673
-0.00677453
-0.00858159
-0.0099445
-0.00486059
-0.00573237
-0.00833235
-0.0113268
-0.0103879
-0.00570076
-0.00431215
-0.00359677
-0.00355646
-0.0081997
-0.00855756
-0.00414814
-0.00728161
-0.0135731
-0.00661095
-0.0101075
-0.00741848
-0.00553339
-0.00289436
-0.00320528
-0.00996522
-0.0112043
-0.00271109
-0.00308777
-0.00679661
-0.0057633
-0.00393061
-0.0018378
0.000235447
-0.00270951
-0.00452327
-0.00651974
-0.00700399
-0.014187
-0.00968379
-0.0103128
-0.00749057
-0.00698968
-0.0082192
-0.00995622
-0.00576221
-0.00074897
0.0012327
-0.00497071
-0.00560096
-0.00280666
-0.00303698
-0.0030312
-0.00275431
-0.00521815
-0.00519165
-0.00124314
-0.00925301
-0.0045098
-0.00626453
-0.00680981
-0.00513172
-0.00518554
-0.00523937
-0.00468511
-0.00953774
-0.00702143
-0.00900331
-0.00697693
-0.000862545
-0.00810388
-0.0123746
-0.00869513
0.00116833
-0.00416254
-0.000919625
-0.0100923
-0.00732353
-0.0079991
-0.00818085
-0.00634527
-0.00686644
-0.0103329
-0.00778708
-0.00663181
-0.0100554
-0.0059522
-0.00510997
-0.00488104
-0.00486989
-0.00442839
-0.0058351
-0.0054266
-0.0022379
-0.0081425
-0.00589548
-0.00220243
-0.00601842
-0.00683515
-0.00230194
-0.0093335
-0.00779343
-0.00382121
-0.00533316
-0.00228239
-0.00353743
-0.00133163
-0.00429346
-0.00900746
0.00131965
-0.00466753
-0.0049098
-0.00704399
-0.00489124
-0.001981
-0.0020727
-0.00314343
-0.00297033
-0.00789229
-0.0079619
-0.00425569
-0.00620494
-0.003049
-0.00560538
-0.00606505
-0.00799504
-0.0036411
-0.00290729
-0.00398424
-0.00593591
-0.00421373
-0.00368514
-0.00609993
-0.010611
-0.00613761
-0.000885788
-0.00469188
-0.00687271
-0.00610949
-0.00679314
-0.00502602
-0.00354591
-0.00876017
-0.00520486
-0.0058213
-0.00477699
-0.00462563
-0.00531527
-0.00782938
-0.00869345
-0.00530273
-0.0019613
-0.00379172
-0.00572389
-0.004293
-0.00708462
-0.00811765
-0.00592487
-0.00548282
-0.00632029
-0.00671876
-0.00747135
-0.00856576
-0.00625036
-0.00841824
-0.00686775
-0.00655569
-0.00511969
-0.0053491
-0.0057968
-0.00442485
-0.0025572
-0.0033526
-0.00802006
-0.00967897
-0.00365372
-0.00495186
-0.00970921
-0.00760955
-0.0067408
-0.00659239
-0.00917355
-0.00219721
-0.00381331
-0.00623229
-0.00434857
-0.00430672
-0.00211798
-0.00309163
-0.00568132
-0.00189611
-0.00234115
-0.00353496
-0.00352348
-0.00209969
-0.00408865
-0.00403677
-0.000791121
-0.000438317
-0.000916635
-0.00415553
-0.00482991
-0.00487143
-0.00352452
-0.0025134
-0.0033418
-0.00531321
-0.00511735
-0.00514401
-0.002894
-0.00360125
-0.00288706
-0.00330844
-0.00203052
-0.00227755
-0.00432191
-0.00265444
-0.00299628
-0.00126823
-0.00248016
-0.00210959
-0.00286436
-0.0136996
-0.00404336
-0.00372702
-0.0174083
-0.00603246
0.0227525
0.00929458
-0.018571
-0.0126991
0.00735501
-0.00804796
-0.0127636
-0.00944628
-0.00566246
-0.0110207
0.010325
-0.0051059
-0.0136492
-0.00962105
-0.00562849
-0.0194039
-0.021033
0.00567123
0.000820736
0.00232146
0.00318496
-0.0196825
-0.0204343
-0.000852856
0.00611978
0.00101149
-0.00273177
-0.0100616
0.000494938
-0.00258379
-0.0192421
-0.00822666
0.0122647
0.010114
-0.0238294
-0.0368265
-0.0179935
-0.025002
-0.0401594
-0.0297929
0.00223964
-0.0126338
-0.0340236
-0.0334947
-0.0140874
-0.0299515
-0.0389443
-0.0265294
-0.0287026
-0.0286143
-0.0110319
-0.0292355
-0.0300258
-0.0171843
-0.0260507
-0.0432124
-0.0372786
-0.00926475
-0.0212986
-0.0146369
-0.0154101
-0.0439214
-0.0372407
-0.0168783
-0.00967074
-0.0203932
-0.0245058
-0.0342907
-0.021127
-0.020044
-0.0434066
-0.0226766
-0.00201779
-0.0108096
-0.0469133
-0.0268972
-0.0172011
-0.0130233
-0.0323188
-0.0168137
0.0115494
-0.00132036
-0.0344531
-0.0246241
0.00461915
-0.0199283
-0.0208695
-0.0228329
-0.0184435
-0.0224744
0.00230059
-0.0194958
-0.0286242
-0.0216214
-0.0188376
-0.0333951
-0.0359635
0.00453517
-0.0131274
-0.00921264
0.000226641
-0.0359509
-0.0346254
-0.00934908
-0.00563144
-0.010669
-0.00892192
-0.0238859
-0.0124319
-0.0172112
-0.0330322
-0.0238463
0.0017057
0.00271011
-0.0379324
-0.0247674
-0.0236461
-0.013115
-0.0387671
-0.0201657
0.0119562
-0.000422311
-0.0357232
-0.031859
-0.00443234
-0.0241538
-0.0254078
-0.0314751
-0.0163134
-0.0309778
0.000615312
-0.0185543
-0.0352445
-0.0311327
-0.0255532
-0.0386226
-0.0396427
-0.0147785
-0.0180824
-0.0174928
-0.00169528
-0.0373851
-0.0427453
-0.0194357
-0.0130736
-0.0127944
-0.019904
-0.0269526
-0.0161793
-0.0226367
-0.0302955
-0.0217447
-0.00889623
-0.0018997
-0.0375489
-0.0210942
-0.00990938
-0.00716841
-0.0305521
-0.0166995
0.0114293
0.0003424
-0.0312831
-0.0155542
-0.00700768
-0.0283355
-0.0214243
-0.0226626
-0.0128011
-0.0302096
0.00617863
-0.0130515
-0.0265205
-0.0151994
-0.0174423
-0.0346873
-0.0394947
-0.0130188
-0.0137439
-0.0157663
-0.0102976
-0.0312749
-0.0372403
-0.0118817
0.000486946
-0.0126939
-0.0286276
-0.0301348
-0.0066696
-0.0212531
-0.0314569
-0.0163767
-0.000240085
-0.00878376
-0.0339978
-0.0357512
-0.0149586
-0.0117167
-0.0289398
-0.0186701
0.00369482
-0.00477269
-0.0276281
-0.0187977
-0.00944553
-0.0410953
-0.0234254
-0.0208378
-0.0229368
-0.0249335
-0.00635172
-0.0174659
-0.0304506
-0.0228274
-0.0174893
-0.0284561
-0.0413823
-0.00495824
-0.0142586
-0.0139628
-0.0118106
-0.0273376
-0.033601
-0.00809561
-0.00951942
-0.0158274
-0.0265213
-0.0308806
-0.00922991
-0.0181031
-0.0381635
-0.0191049
0.000627546
-0.0157593
-0.04738
-0.0336068
-0.0187432
-0.0144449
-0.0282026
-0.0169588
0.00144437
-0.00784335
-0.02197
-0.0196758
-0.0116919
-0.0337723
-0.0307838
-0.02371
-0.0104352
-0.0211912
-0.00841572
-0.0115638
-0.0209747
-0.0281477
-0.0175043
-0.0290965
-0.0350657
-0.00234199
-0.0153647
-0.0139028
-0.00201189
-0.0263415
-0.0308341
-0.00734447
-0.0101463
-0.0174395
-0.0204077
-0.0220245
-0.0158854
-0.0150447
-0.0242706
-0.017036
0.00712899
-0.0142102
-0.0455873
-0.0307642
-0.0254724
-0.0131317
-0.0326807
-0.0299616
-0.00261996
-0.011373
-0.0322083
-0.013623
-0.0108705
-0.0213484
-0.0282576
-0.0332854
-0.032432
-0.0301716
0.00239966
-0.0239166
-0.0250077
-0.0301232
-0.0158475
-0.0390295
-0.0397064
-0.011269
-0.0188143
-0.0185331
-0.0120958
-0.0311959
-0.0391715
-0.00999764
-0.00551515
-0.0170172
-0.0280557
-0.0192329
-0.0178918
-0.0207918
-0.0365755
-0.026754
0.00295441
-0.00841802
-0.0331562
-0.0192471
-0.0275843
-0.0122229
-0.0335258
-0.0404789
-0.0156432
-0.00130605
-0.0262699
-0.0114985
-0.000363802
-0.0175225
-0.0166381
-0.0220676
-0.0369053
-0.0383024
0.00371364
-0.0133128
-0.0311598
-0.0327626
-0.0164338
-0.0286119
-0.0357341
-0.012038
-0.0148205
-0.0109199
-0.0114072
-0.0279346
-0.042787
-0.0116733
0.00204763
-0.00736709
-0.0233479
-0.0227301
-0.0112936
-0.011358
-0.0390287
-0.0284299
-0.00735934
-0.00984169
-0.0295353
-0.023712
-0.0207649
-0.0140767
-0.0354586
-0.048126
-0.0157085
-0.0074117
-0.0284192
-0.0159668
-0.00191361
-0.0231446
-0.0171732
-0.0348131
-0.0218797
-0.0127608
-0.0126288
-0.00621123
-0.0342288
-0.0353276
-0.0224046
-0.0335673
-0.0276876
-0.00213211
-0.00792962
-0.00865936
-0.0079814
-0.0338881
-0.0401766
-0.018663
-0.00649998
-0.0110409
-0.0112633
-0.019166
-0.0107656
-0.0127883
-0.0299722
-0.0155879
-0.015866
-0.0126766
-0.0302719
-0.0303425
-0.0101881
0.00281009
-0.0291774
-0.0324386
-0.00523449
-0.00976723
-0.0402081
-0.0169894
-0.0094504
-0.0243179
-0.0388792
-0.0445363
-0.0222244
-0.0214567
-0.00755154
-0.0027521
-0.0280398
-0.0302397
-0.0295512
-0.041363
-0.0309178
-0.00467471
-0.0160006
-0.0152175
-0.00481732
-0.0266485
-0.035219
-0.0257829
-0.00692043
-0.0147688
-0.0158897
-0.0202262
-0.0114921
-0.00611306
-0.0362717
-0.0111183
-0.0133155
-0.0174589
-0.0255408
-0.0382715
-0.0195798
0.00284702
-0.0182769
-0.0262533
-0.000214104
-0.000666592
-0.0356243
-0.0167142
-0.0150928
-0.0250042
-0.0388837
-0.0553065
-0.0284454
-0.0217724
-0.0041649
-0.00787809
-0.0231655
-0.0152947
-0.0322194
-0.0448963
-0.0315661
-0.00589569
-0.0142749
-0.0125568
-0.00362748
-0.0281042
-0.0385202
-0.0152308
0.00035088
-0.00562963
-0.0191626
-0.0285492
-0.0175412
-0.0144107
-0.0433411
-0.014199
-0.000612343
-0.027051
-0.0150637
-0.0381907
-0.0290536
-0.0101847
-0.0244814
-0.0326421
-0.00624594
-0.00535237
-0.0221031
-0.0205366
-0.00651155
-0.0308658
-0.0291062
-0.0429716
-0.0352184
-0.0184838
-0.0083023
-0.00343397
-0.0233229
-0.0112458
-0.0281124
-0.0496848
-0.0268114
-0.0154483
-0.00179561
-0.0122651
-0.00702518
-0.0263082
-0.0413464
-0.0213571
0.00219096
-0.00959055
-0.0201914
-0.0255762
-0.0129248
-0.0186432
-0.0375584
-0.00929823
0.00622797
-0.0429125
-0.0289024
-0.0264951
-0.0289699
-0.021539
-0.0227169
-0.0291915
0.00148105
-0.0198108
-0.0159329
-0.0165343
-0.00480191
-0.0371605
-0.0347153
-0.0511224
-0.0273171
-0.0133528
-0.0173676
-0.0101708
-0.0242152
-0.0230868
-0.0205943
-0.0342037
-0.0203081
-0.0110121
-0.00445324
-0.0132955
-0.0206794
-0.0311293
-0.0432697
-0.0254561
-0.00349648
-0.00572886
-0.0246035
-0.0237905
-0.0119172
-0.0240645
-0.041808
-0.028584
-0.015405
-0.00624558
-0.0131399
-0.024529
-0.0193115
-0.0210798
-0.0216916
-0.0246935
0.00591042
-0.0252522
-0.0309148
-0.0169029
-0.0206744
-0.0227678
-0.0287317
-0.042272
-0.0205503
-0.0215437
-0.00455934
-0.00737694
-0.0219023
-0.0052484
-0.0257909
-0.0325722
-0.0139382
-0.0110203
-0.00586283
-0.0131323
-0.0224206
-0.0253871
-0.0416983
-0.0410778
-0.00206208
-0.0130616
-0.0169547
-0.0256917
-0.0185798
-0.0227862
-0.0449376
-0.04315
-0.0260684
-0.00810087
-0.01245
-0.0194191
-0.0135032
-0.0227661
-0.0092201
-0.0223011
0.00421812
-0.0126039
-0.031587
-0.00302585
-0.0206167
-0.0226056
-0.0243589
-0.0373361
-0.0209352
-0.0177932
-0.00105852
-0.0227131
-0.0138307
-0.0178299
-0.0259082
-0.0256548
-0.0149446
-0.0213688
-0.0209042
-0.0189129
-0.0127208
-0.0155944
-0.0535113
-0.0407369
0.00690266
-0.0133773
-0.0117827
-0.0372337
-0.0252888
-0.0228979
-0.0361729
-0.0225995
-0.0254082
-0.0205974
-0.0313161
-0.0320246
-0.0058375
-0.026491
-0.0287102
-0.0217497
-0.00185879
-0.0255054
-0.0367074
-0.0208005
-0.0167564
-0.0320473
-0.00574525
-0.0510145
-0.0342535
-0.0309252
-0.00760362
-0.0084707
-0.0343366
-0.00238954
-0.0251962
-0.0322377
-0.0161505
-0.0150435
-0.0334768
-0.00976944
-0.0341743
-0.0213651
-0.0268509
-0.0226264
-0.000976696
-0.0212502
-0.0166765
-0.0330896
-0.0370847
-0.0345535
-0.0373
-0.00652124
-0.0037643
-0.0073095
-0.0258185
-0.0401866
-0.0119775
-0.00594131
-0.018946
-0.030396
0.00126263
-0.0333314
-0.0283166
-0.0135865
-0.00773235
-0.0320111
-0.00840445
-0.0299878
-0.0256403
-0.0287674
-0.0152437
-0.0145612
-0.0238733
-0.0175725
-0.0163149
-0.0322361
-0.0289387
-0.0253199
-0.0150246
-0.00685689
-0.0101241
-0.0242291
-0.0363874
-0.0199103
0.00118001
-0.00980938
-0.0115013
-0.0107062
-0.0112527
-0.0207977
-0.0466703
-0.039378
-0.0157148
-0.0153292
-0.0120988
-0.0360548
-0.0173372
-0.000976995
-0.0106915
-0.0383029
-0.00576209
-0.0249208
-0.0316312
-0.0116449
-0.00843756
-0.0252905
-0.0138659
-0.0197322
-0.0175835
-0.0179442
-0.0162575
-0.0159431
-0.0127981
-0.0176925
-0.0127066
-0.0309823
-0.0243132
-0.0208907
-0.0145778
-0.0116369
-0.0178142
-0.0298771
-0.0370256
-0.019182
-0.0210812
-0.00700191
-0.00313002
-0.00563099
-0.0113009
-0.0233535
-0.0228724
-0.0344513
-0.0112459
-0.0179795
-0.0169227
-0.0196103
-0.020983
-0.00621582
-0.0025625
-0.0245768
-0.021728
-0.0138938
-0.0394356
-0.0177379
-0.00823874
-0.00578889
-0.00753037
-0.0272703
-0.0368074
-0.0211979
-0.0255625
-0.0224977
-0.00192587
-0.00828501
-0.0153229
-0.0282989
-0.0344446
-0.0299717
-0.0184887
-0.00837827
-0.0103777
-0.021323
-0.0281622
-0.0188957
-0.0133716
-0.0216415
-0.0267732
-0.017436
-0.0248299
-0.0140681
-0.023985
-0.0460856
-0.0223677
-0.0107993
-0.00576178
-0.0175427
-0.0233853
-0.0076603
-0.014302
-0.0240557
-0.00105306
-0.0405246
-0.0483165
-0.0339837
-0.00705939
-0.00181903
-0.00617665
-0.0199319
-0.0233523
-0.0198815
-0.0218199
-0.0116132
-0.0170012
-0.0331771
-0.0130329
-0.0257752
-0.0306899
-0.0216142
-0.00567975
-0.00927296
-0.0109635
-0.0166838
-0.0164085
-0.0148335
-0.0174487
0.00196219
-0.0137361
-0.0230602
-0.0318177
-0.0176039
-0.0248313
-0.0238014
-0.0227887
-0.0360577
-0.0168915
-0.0131795
-0.0192708
-0.00993941
-0.0112546
-0.0150412
-0.00506467
-0.0343834
-0.0168137
-0.0245992
-0.0238681
-0.00491737
0.00655365
-0.00109586
-0.0122216
-0.0317911
-0.0200101
-0.0136694
-0.014783
-0.0276709
-0.0231654
-0.0129944
-0.0201061
-0.013295
-0.0137906
-0.0113386
-0.00312355
-0.00341603
-0.0193333
-0.0139982
-0.0143483
-0.0031051
-0.011938
-0.0176535
-0.00253557
-0.0301055
-0.0209719
-0.00949355
-0.00598481
-0.0326796
-0.0278235
-0.00974253
-0.0104835
-0.00864936
-0.00830667
-0.0114271
-0.00669567
-0.0225884
-0.0166227
-0.0188646
-0.0241617
-0.00846612
0.00234938
0.00554888
-0.00931407
-0.0103071
-0.0190777
-0.0172108
-0.0151664
-0.0184942
-0.0191109
-0.027003
-0.0276314
-0.0113905
-0.0126652
0.000287036
-0.0175935
0.00262496
-0.0118505
-0.0251497
-0.0177214
-0.00221147
-0.0086037
-0.015834
-0.0221075
-0.0181741
-0.0214141
-0.00550926
0.0060999
-0.0165487
-0.0144925
-0.0102393
-0.0188611
-0.0113121
-0.0057697
-0.0168129
-0.00701972
-0.0110001
-0.0164386
-0.0059387
-0.0126432
-0.000205077
-0.00268812
-0.00481447
-0.01719
-0.0059598
-0.0128747
-0.0149665
-0.0095047
-0.00821475
-0.0125707
-0.0250825
-0.0213056
-0.00606866
-0.0153881
-0.00852705
-0.00492816
-0.00451516
-0.00245826
-0.00143365
-0.00115433
0.00420236
-0.00308659
-0.0120658
-0.00656519
-0.0108152
-0.016838
-0.0107028
-0.00303855
-0.0105884
-0.0089119
-0.011157
-0.00914719
-0.00820028
-0.00831402
-0.00842576
-0.00889205
-0.00239996
-0.0149155
-0.00648158
-0.0040727
-0.00567849
-0.000184325
-0.00536022
-0.0152564
-0.00457993
-0.0196805
-0.00742718
-0.0051813
-0.00621684
-0.00260729
-0.012852
-0.0176403
-0.00585391
-0.00673881
-0.012905
-0.0138087
-0.010993
-0.00619139
-0.00818336
-0.00740579
-0.00713596
-0.00128432
-0.00596882
-0.0118166
-0.00881182
-0.0115552
-0.00647693
-0.00629892
-0.014063
-0.00664957
-0.0131616
-0.0042209
-0.00463259
-0.00887474
-0.00406178
-0.00417711
-0.00461257
-0.00823522
-0.00575709
-0.00782913
-0.00320368
-0.00069519
-0.0015287
-0.010422
-0.00588897
-0.00999836
-0.0111156
-0.00489554
-0.00969108
-0.00888097
-0.0116005
-0.0123927
-0.00688717
-0.00361771
-0.00996665
-0.00460655
-0.0135739
-0.00705859
-0.00719271
-0.00358154
-0.00654077
-0.00885869
-0.00961556
-0.00449383
-0.00625409
-0.00809596
-0.0100818
-0.00957465
-0.0082244
-0.00905895
-0.0058674
-0.00472317
-0.0061647
-0.00959393
-0.00171116
-0.0113621
-0.0106792
-0.00706299
-0.00566844
-0.0066857
-0.00539955
-0.00183211
-0.00350653
-0.00671258
-0.0102977
-0.011057
-0.00764265
-0.0037236
-0.00942281
-0.00974884
-0.0141107
-0.0143842
-0.00940039
-0.00484803
-0.00945125
-0.0132333
-0.00792204
-0.00754106
-0.00570643
-0.000317016
-0.00559282
-0.0078812
-0.00435463
-0.00536126
-0.0063578
-0.00480191
-0.00802261
-0.00637973
-0.00630442
-0.00536089
-0.00962388
-0.00423036
-0.00658051
-0.00331747
-0.00395302
-0.00701075
-0.0117866
-0.00663042
-0.0066468
-0.00591107
-0.00347737
-0.00314867
-0.00304955
-0.010334
-0.0102159
-0.01108
-0.0115561
-0.0046877
-0.00936662
-0.0078589
-0.00625442
-0.0103328
-0.00897158
-0.00472375
-0.00420966
-0.00731092
-0.00780198
-0.006011
-0.00140742
-0.00257287
-0.00518321
-0.006524
-0.00510173
-0.00704098
-0.00769153
-0.0086637
-0.00903231
-0.00852316
-0.00765731
-0.00722635
-0.00741166
-0.00972196
-0.00794206
-0.00624507
-0.00478736
-0.0104081
-0.0123047
-0.00449898
-0.00311365
-0.00709805
-0.0105932
-0.00362274
-0.00314588
-0.00563068
-0.00896901
-0.00854937
-0.00858116
-0.00689735
-0.00696835
-0.0077022
-0.00818311
-0.00990471
-0.0082664
-0.00865928
-0.00405219
-0.00573618
-0.00826339
-0.00725339
-0.00350919
-0.00402432
-0.0054564
-0.00507722
-0.00453651
-0.00500902
-0.00532106
-0.00754513
-0.00797482
-0.00775401
-0.00459415
-0.00564847
-0.00509193
-0.00316663
-0.00512033
-0.00698342
-0.00588443
-0.00611304
-0.00435402
-0.00507301
-0.00611217
-0.00525988
-0.00943017
-0.00749731
-0.00302121
-0.00504219
-0.00417524
-0.0037908
-0.00738143
-0.0100951
-0.00706898
-0.00854543
-0.00508928
-0.00527271
-0.00405961
-0.00845817
-0.00669226
-0.00606926
-0.00452022
-0.00623894
-0.00512105
-0.00654416
-0.00615131
-0.0113168
-0.00135489
-0.00444412
-0.00666824
-0.00649356
-0.00588346
-0.00824696
-0.00454212
-0.00559484
-0.00834944
-0.00813991
-0.00637716
-0.0076866
-0.00510363
-0.00765769
-0.00919722
-0.00643417
-0.00800432
-0.00516915
-0.00435115
-0.00425977
-0.00347808
-0.00614888
-0.00606182
-0.00828206
-0.0129514
-0.00985022
-0.0094516
-0.00795575
-0.00678429
-0.00604639
-0.00655039
-0.00808708
-0.00936158
-0.00865731
-0.00850419
-0.00887138
-0.0075508
-0.00788486
-0.00894134
-0.00923419
-0.00674834
-0.00617045
-0.00584192
-0.00580552
-0.00812736
-0.00948389
-0.0100962
-0.00918777
-0.00500697
-0.00795506
-0.0066534
-0.00492588
-0.00380779
-0.00455413
-0.00569553
-0.0049072
-0.00363683
-0.00350721
-0.0050852
-0.00454832
-0.00494886
-0.00472397
-0.00378415
-0.00429539
-0.00449436
-0.00515614
-0.00546602
-0.00586618
-0.00546554
-0.00526071
-0.00469823
-0.00589952
-0.00679285
-0.00753145
-0.00722542
-0.00558003
-0.00704186
-0.00617059
-0.0047917
-0.00456785
-0.00368089
-0.0022617
-0.00237553
-0.00519727
-0.00623758
-0.00593036
-0.00340068
-0.00534674
-0.00640932
-0.00958697
-0.00459413
0.00546948
-0.00711271
0.00608429
0.00360275
-0.00348348
-0.00858835
-0.000910443
-0.00763339
-0.0109319
-0.00837306
-0.011956
-0.0105424
0.00751646
0.00535268
-0.00646224
-0.0117814
-0.0126871
-0.0191184
-0.00988353
0.00105189
0.0147085
0.00784654
-0.0118709
-0.00677477
-0.012544
0.00399914
-0.000972752
0.00343223
-0.019854
-0.00633133
0.0113353
-0.000610487
-0.0128627