/*--------------------------------*- C++ -*----------------------------------*\
  =========                 |
  \\      /  F ield         | OpenFOAM: The Open Source CFD Toolbox
   \\    /   O peration     | Website:  https://openfoam.org
    \\  /    A nd           | Version:  10
     \\/     M anipulation  |
\*---------------------------------------------------------------------------*/
FoamFile
{
    format      ascii;
    class       volVectorField;
    location    "55";
    object      U;
}
// * * * * * * * * * * * * * * * * * * * * * * * * * * * * * * * * * * * * * //

dimensions      [0 1 -1 0 0 0 0];

internalField   nonuniform List<vector> 
25600
(
(1.1088 -0.00659145 -0.00514672)
(1.10719 -0.00469884 -0.00243829)
(1.10395 0.00130007 0.000238472)
(1.10192 0.00696816 0.00227296)
(1.09993 0.0116073 0.00343058)
(1.09963 0.0175083 0.00331433)
(1.10199 0.0184887 0.00300369)
(1.10535 0.0191861 0.00267994)
(1.10869 0.018368 0.0025678)
(1.11205 0.0154126 0.00325377)
(1.11155 0.0140205 0.00291249)
(1.10889 0.0116021 0.00293707)
(1.10687 0.00941928 0.00230025)
(1.10193 0.00647508 -0.000315019)
(1.10025 0.0034855 -0.000934635)
(1.09962 -0.00110474 -0.000969712)
(1.09622 -0.00372374 -0.00101564)
(1.0971 -0.00668043 0.000336251)
(1.09682 -0.00874937 0.00173804)
(1.09389 -0.00771492 0.00278898)
(1.09656 -0.00950618 0.00329105)
(1.09828 -0.00828476 0.00342367)
(1.09634 -0.00777516 0.00227517)
(1.0983 -0.0079476 0.000821885)
(1.09769 -0.00730287 -0.000164067)
(1.09458 -0.0079656 -0.00115224)
(1.09502 -0.0106213 -0.00172785)
(1.0947 -0.0138028 -0.0019705)
(1.09641 -0.0126378 -0.00221745)
(1.10121 -0.00998747 -0.00272234)
(1.10483 -0.00443077 -0.00205544)
(1.10677 0.00456329 -0.00158342)
(1.10704 0.00938043 -0.00124464)
(1.10743 0.0119837 -0.000591601)
(1.10646 0.0129285 -0.00184978)
(1.10437 0.00784193 -0.00240779)
(1.10487 0.00242438 -0.00319302)
(1.10573 -0.00157923 -0.00509628)
(1.10585 -0.00619595 -0.00572123)
(1.10717 -0.00790855 -0.0061076)
(1.1017 -0.0110092 -0.0060688)
(1.10355 -0.00617283 -0.00327657)
(1.104 0.000744759 3.87667e-05)
(1.10304 0.00770206 0.00231714)
(1.10201 0.0124914 0.00259461)
(1.10108 0.0170035 0.00203185)
(1.10201 0.0177889 0.000328216)
(1.10543 0.0164972 0.000115703)
(1.10751 0.0160066 0.00208304)
(1.10965 0.0141299 0.00377759)
(1.10954 0.0143196 0.00491753)
(1.10719 0.0144728 0.00473465)
(1.10539 0.0123024 0.00212019)
(1.10075 0.00848323 -0.00125463)
(1.09768 0.00580345 -0.00268028)
(1.09582 0.00123304 -0.00207887)
(1.09319 -0.00167822 0.000258757)
(1.09421 -0.00356288 0.00258076)
(1.09526 -0.0081274 0.00457345)
(1.09317 -0.00857528 0.00537671)
(1.09522 -0.0094008 0.00425144)
(1.09784 -0.00945626 0.00291004)
(1.09631 -0.0064439 0.000101954)
(1.09886 -0.00499802 -0.00262815)
(1.09979 -0.00413423 -0.00368118)
(1.0963 -0.00412582 -0.00335539)
(1.09539 -0.00967517 -0.00192408)
(1.09648 -0.015985 -0.000661695)
(1.0996 -0.0168638 0.000407082)
(1.1046 -0.0152967 0.000247954)
(1.10979 -0.00885894 0.000214455)
(1.11068 0.00250472 0.000176722)
(1.10769 0.0102793 -0.000317587)
(1.10654 0.0154367 -3.60638e-05)
(1.10283 0.0160263 -0.000561002)
(1.0991 0.0095481 -0.00029711)
(1.09989 0.00242218 -0.000858634)
(1.09894 -0.00579659 -0.00323085)
(1.09789 -0.0118428 -0.00478246)
(1.09943 -0.0129195 -0.00645134)
(1.07328 -0.022408 -0.00381201)
(1.07454 -0.0161551 -5.62554e-05)
(1.07834 -0.00768355 0.00341935)
(1.0837 0.00380092 0.00448637)
(1.08942 0.0110583 0.00265329)
(1.09405 0.0156084 0.000168704)
(1.09652 0.0171476 -0.00243096)
(1.1014 0.016104 -0.00126187)
(1.10505 0.0161914 0.00279724)
(1.10773 0.0133593 0.00569092)
(1.10924 0.0132874 0.00813267)
(1.10571 0.0146405 0.00643247)
(1.10261 0.014466 0.000398991)
(1.09889 0.012956 -0.00470565)
(1.09577 0.0104924 -0.00627118)
(1.09395 0.00424344 -0.00286454)
(1.09262 -0.000648494 0.00379507)
(1.09281 -0.00264078 0.00748511)
(1.09377 -0.00637035 0.008329)
(1.09214 -0.0062666 0.00667819)
(1.09159 -0.0079413 0.00255044)
(1.09299 -0.0104928 -0.000590964)
(1.09081 -0.00787859 -0.00439548)
(1.09339 -0.00479355 -0.00849175)
(1.0968 -0.00151548 -0.00985072)
(1.09467 -0.00146197 -0.00785808)
(1.09474 -0.0103439 -0.00394176)
(1.09766 -0.0212865 -0.00030988)
(1.10027 -0.0255656 0.0018436)
(1.10343 -0.023797 0.000805986)
(1.10887 -0.0136946 -0.000712767)
(1.10985 0.0022302 -0.000385403)
(1.10615 0.0147448 0.000535074)
(1.1063 0.0226396 0.00243217)
(1.10406 0.0209945 0.00253806)
(1.10197 0.0123779 0.00140175)
(1.10071 0.00269666 -0.000101493)
(1.09227 -0.00996307 -0.00249517)
(1.08332 -0.0179186 -0.00361943)
(1.07649 -0.0220841 -0.00472316)
(1.03141 -0.0362579 0.000849289)
(1.02768 -0.0327534 0.00520934)
(1.0295 -0.0245962 0.00643557)
(1.0391 -0.00823262 0.00306827)
(1.05218 0.00536563 -0.00221527)
(1.06484 0.0150256 -0.00665672)
(1.07276 0.0169276 -0.00778485)
(1.08174 0.0138306 -0.00289337)
(1.08652 0.0115206 0.00534995)
(1.08936 0.0101335 0.0120209)
(1.09493 0.0152118 0.0146699)
(1.0975 0.0199474 0.00690114)
(1.10101 0.0199391 -0.0068683)
(1.09711 0.0155354 -0.013828)
(1.08746 0.0108771 -0.0101508)
(1.08172 0.00728989 0.00140189)
(1.08645 0.00610115 0.0123795)
(1.09784 0.0048614 0.0136807)
(1.10618 0.000914214 0.0085943)
(1.10007 -0.00110716 0.00228016)
(1.08331 -0.00542756 -0.00239845)
(1.071 -0.0102816 -0.0035056)
(1.06447 -0.00983383 -0.00652014)
(1.07178 -0.00534738 -0.012747)
(1.08128 0.000167335 -0.014932)
(1.0774 -0.000971108 -0.011459)
(1.07447 -0.0120792 -0.0059196)
(1.07701 -0.0260622 -8.48447e-05)
(1.07816 -0.0326778 0.0025075)
(1.08084 -0.0289401 0.000129217)
(1.08411 -0.0150715 -0.00308715)
(1.08221 0.0032361 -0.00357138)
(1.08034 0.0171358 -0.00208927)
(1.08872 0.0251389 -0.000141916)
(1.09756 0.0230254 -0.00130324)
(1.10091 0.0158624 -0.0037398)
(1.09314 0.00415559 -0.00324836)
(1.07345 -0.0122083 -0.00199088)
(1.05715 -0.0230302 -0.000310969)
(1.04216 -0.0324912 -7.65356e-05)
(1.01468 -0.041962 0.00692236)
(1.00875 -0.0368457 0.0128009)
(1.01294 -0.0218339 0.0110449)
(1.02983 -0.000103836 0.00340489)
(1.04224 0.0128138 -0.00556801)
(1.04711 0.0160651 -0.0097775)
(1.04989 0.0117897 -0.00549875)
(1.05901 0.00959541 0.0081357)
(1.06773 0.0091816 0.0260903)
(1.07516 0.00876756 0.0348361)
(1.08308 0.0121367 0.0259872)
(1.0863 0.0155279 -0.00117096)
(1.08556 0.0194038 -0.0261422)
(1.07615 0.0207911 -0.0239544)
(1.07001 0.0184194 -0.0024064)
(1.07722 0.0113426 0.0197799)
(1.09864 0.00523579 0.0293071)
(1.11915 0.00657636 0.0200167)
(1.12348 0.0124541 0.0012734)
(1.10091 0.0156384 -0.0124291)
(1.0698 0.00578112 -0.0133061)
(1.05524 -0.0115247 -0.00723057)
(1.05229 -0.0204042 -0.00736697)
(1.06058 -0.0148019 -0.014048)
(1.06113 -0.00227017 -0.0163305)
(1.04597 0.00182512 -0.0136413)
(1.03717 -0.00701261 -0.00579026)
(1.03153 -0.0211147 0.00833612)
(1.0231 -0.0269153 0.0180524)
(1.02557 -0.0193193 0.0183496)
(1.03866 -0.00262528 0.0161707)
(1.05683 0.0158336 0.0179284)
(1.07568 0.0296455 0.0196565)
(1.09339 0.0367149 0.015751)
(1.09998 0.0328366 0.00505224)
(1.09327 0.0218497 -0.00420525)
(1.07776 0.00455846 -0.00278461)
(1.06013 -0.0150986 0.00211213)
(1.04817 -0.0285979 0.00437716)
(1.03005 -0.0391229 0.00381306)
(1.00026 -0.0432441 0.0136789)
(1.00942 -0.028127 0.0169726)
(1.0227 -0.00809487 0.012113)
(1.03806 0.0104323 0.00253137)
(1.04304 0.0189628 -0.0028815)
(1.04556 0.0174602 0.00244913)
(1.05211 0.0094283 0.0205336)
(1.0644 0.00444803 0.0466666)
(1.06794 0.00259322 0.0599269)
(1.06406 0.00681583 0.0443815)
(1.06287 0.0176148 0.00903151)
(1.06624 0.0294306 -0.028857)
(1.07237 0.0310521 -0.0425948)
(1.06827 0.0217026 -0.0244882)
(1.06132 0.0144012 0.00208219)
(1.06734 0.0094252 0.0229297)
(1.09549 0.00712916 0.0310156)
(1.12364 0.0126132 0.0188213)
(1.12628 0.0264092 -0.00936907)
(1.1023 0.0341282 -0.0279504)
(1.0789 0.0167769 -0.0245522)
(1.06983 -0.0115688 -0.0148386)
(1.06333 -0.0219638 -0.0147073)
(1.05812 -0.00628104 -0.0247409)
(1.04751 0.0151572 -0.0324645)
(1.03842 0.017725 -0.0317406)
(1.04215 0.00181657 -0.0125855)
(1.0436 -0.0195685 0.0191319)
(1.03914 -0.0281873 0.0388332)
(1.0458 -0.0202563 0.0431068)
(1.05834 -0.00144298 0.0425439)
(1.06534 0.0211162 0.0424606)
(1.0703 0.0379202 0.0361525)
(1.08048 0.0446531 0.0206088)
(1.08673 0.0382121 0.000854621)
(1.08035 0.0242927 -0.00989299)
(1.0576 0.00528902 -0.00269335)
(1.02789 -0.018308 0.00775428)
(1.01049 -0.0379984 0.0114501)
(0.999611 -0.0483367 0.0112395)
(0.937471 -0.0283093 -0.0288429)
(0.962705 -0.00399721 -0.0259208)
(0.995053 0.0200355 -0.0233028)
(1.02487 0.0344691 -0.0227426)
(1.03403 0.0308047 -0.00905433)
(1.0319 0.0158473 0.0175265)
(1.02705 -0.00254543 0.0484017)
(1.03166 -0.00536126 0.0671648)
(1.03581 0.00691782 0.054694)
(1.03437 0.0200221 0.0187477)
(1.03288 0.0229802 -0.0185904)
(1.03654 0.0161025 -0.0443189)
(1.0492 0.0104618 -0.0440339)
(1.06154 0.0157064 -0.0222806)
(1.07329 0.0202329 0.0053038)
(1.08097 0.00710074 0.0293812)
(1.09533 -0.00205285 0.0374582)
(1.10743 0.0160892 0.0146423)
(1.10733 0.045225 -0.0257464)
(1.10769 0.0492867 -0.0322654)
(1.1048 0.0163495 -0.00691242)
(1.08572 -0.0248844 0.00915385)
(1.05827 -0.0348182 -0.00316519)
(1.04238 -0.0156059 -0.0303188)
(1.04539 -0.000226283 -0.0414953)
(1.0696 -0.00483511 -0.0246383)
(1.09498 -0.0257336 0.0154109)
(1.09735 -0.0441942 0.0443305)
(1.08746 -0.038067 0.0457151)
(1.08204 -0.0106537 0.0458452)
(1.07796 0.0231533 0.0475726)
(1.07247 0.0420459 0.0387055)
(1.06715 0.0397058 0.0167075)
(1.0664 0.0342797 -0.00736847)
(1.06097 0.0285812 -0.0199244)
(1.04663 0.0247001 -0.0107278)
(1.01679 0.0112723 0.0141339)
(0.974812 -0.0205864 0.0229241)
(0.946068 -0.0469692 0.00898876)
(0.930532 -0.0484797 -0.0143828)
(0.905393 -0.0239173 -0.0602043)
(0.915281 -0.0158225 -0.0336108)
(0.946891 -0.00397355 -0.0223518)
(0.985582 0.00502817 -0.0141032)
(0.996528 0.00849801 0.0062443)
(0.996503 0.00339298 0.0272498)
(0.989025 -0.00979698 0.0442225)
(0.994475 -0.00893913 0.0439962)
(1.00589 0.00954342 0.0204312)
(1.01649 0.0254239 -0.00732459)
(1.01917 0.0242513 -0.0254166)
(1.01416 0.00999161 -0.0302682)
(1.02463 -0.00818609 -0.0144034)
(1.06778 -0.0102814 0.0101933)
(1.11253 0.000747983 0.0332768)
(1.09155 0.00478947 0.0474512)
(1.03963 0.00688755 0.0318526)
(1.03227 0.0219979 -0.0182268)
(1.09478 0.0466202 -0.0453839)
(1.16876 0.0547117 -0.010118)
(1.16105 0.0274414 0.0212911)
(1.07576 -0.0147949 0.00817849)
(1.00785 -0.0379619 -0.0251986)
(1.00826 -0.0405165 -0.0313501)
(1.05375 -0.0325211 0.00385098)
(1.09311 -0.0238853 0.0453546)
(1.08103 -0.0254531 0.0629202)
(1.02852 -0.0321067 0.0484624)
(0.98514 -0.028031 0.0328264)
(0.992145 -0.00244785 0.0281878)
(1.02837 0.0295923 0.0180227)
(1.04583 0.0403161 0.00850784)
(1.04339 0.0369165 -0.00195467)
(1.03649 0.0381272 -0.0157224)
(1.01366 0.0318916 -0.0113799)
(0.992287 0.0186388 0.019554)
(0.979058 -0.00116318 0.0433436)
(0.962731 -0.0270735 0.0214911)
(0.939229 -0.0382349 -0.0261136)
(0.911303 -0.0329229 -0.062051)
(0.942094 -0.0547474 -0.027505)
(0.920642 -0.0551783 0.00941144)
(0.94455 -0.0335983 0.0271998)
(0.964028 -0.0129055 0.0373619)
(0.966847 -0.00269811 0.0392344)
(0.97764 0.00453611 0.0348964)
(0.97768 0.00536126 0.0437053)
(0.97857 0.00311857 0.0468538)
(0.99877 0.0121776 0.0171784)
(1.02413 0.018368 -0.0241636)
(1.01609 0.0066578 -0.0366437)
(1.00315 -0.0156872 -0.00428803)
(1.01879 -0.0310356 0.0486617)
(1.05633 -0.017861 0.0731046)
(1.0542 0.0113332 0.0556304)
(0.999155 0.0308557 0.0202193)
(0.982302 0.0278091 -0.0114088)
(1.04366 0.013738 -0.0144058)
(1.13995 0.0187787 0.0173095)
(1.17938 0.0381837 0.0254048)
(1.11178 0.0322461 -0.00681749)
(1.01398 -0.00830193 -0.0150218)
(0.975748 -0.043455 0.0178027)
(0.975648 -0.0486461 0.0696315)
(0.986854 -0.0193468 0.0884375)
(1.00181 0.0107773 0.0622359)
(1.00484 0.00414219 0.0337307)
(1.00028 -0.0215875 0.0136399)
(0.994534 -0.0417804 -0.00155654)
(1.00284 -0.0357436 -0.0213292)
(1.00769 -0.00546739 -0.0355012)
(0.987007 0.012708 -0.0254156)
(0.977928 0.0239582 -0.0211291)
(0.987118 0.0481527 -0.0269028)
(0.98598 0.0503601 -0.00158443)
(0.985436 0.0211066 0.0450086)
(0.987212 -0.0064833 0.0626655)
(0.980898 -0.0209452 0.0292973)
(0.974636 -0.0268159 -0.0215233)
(0.968718 -0.0383087 -0.0476269)
(0.922762 -0.0593676 -0.00721158)
(0.927198 -0.0458402 0.0247289)
(0.952228 -0.029561 0.0486319)
(0.948652 -0.0324902 0.0438056)
(0.944997 -0.0216334 0.0322889)
(0.947673 0.00898632 0.0376962)
(0.959174 0.0190138 0.0527788)
(0.979692 0.00603774 0.0414274)
(0.99467 0.00696788 -0.0112961)
(0.985299 0.00921117 -0.0458154)
(0.969063 -0.0096142 -0.0215201)
(0.977161 -0.0308816 0.0327978)
(1.00209 -0.0394575 0.0756426)
(1.0134 -0.0182686 0.0860293)
(0.983463 0.0192837 0.0664078)
(0.964851 0.0396191 0.0162937)
(1.0243 0.0303906 -0.0247244)
(1.11822 0.0153397 -0.0122203)
(1.15491 0.0203841 0.0143326)
(1.10144 0.0384995 0.00977229)
(0.998313 0.0378906 0.0152915)
(0.922851 0.00678171 0.0428824)
(0.905134 -0.0275229 0.0512173)
(0.909377 -0.0292482 0.0424546)
(0.924197 0.00516172 0.0159045)
(0.956313 0.0205319 -0.00518055)
(0.976872 -0.00733085 -0.00752596)
(0.994511 -0.0318947 -0.00734274)
(1.01613 -0.0362968 -0.0204148)
(1.01706 -0.0150219 -0.0573143)
(0.981616 0.0128595 -0.0822431)
(0.933783 0.0142475 -0.0726935)
(0.920516 0.0278739 -0.0585183)
(0.941821 0.0604828 -0.0374236)
(0.96371 0.0448623 0.00370723)
(0.971809 -0.0139686 0.0436673)
(0.977677 -0.0421097 0.0489295)
(0.993339 -0.0338863 0.0140896)
(1.00127 -0.0301683 -0.0174553)
(0.970127 -0.0458814 -0.0228874)
(0.924746 -0.0533611 -0.0223825)
(0.932024 -0.0395367 -0.00678397)
(0.916922 -0.0344082 0.00367505)
(0.869935 -0.0443606 -0.0119218)
(0.884742 -0.0224511 -0.00202753)
(0.946018 0.0145148 0.0238863)
(0.993602 0.0248029 0.0306944)
(0.995169 0.0163629 0.00460223)
(0.960861 0.0200333 -0.0402105)
(0.91746 0.00407747 -0.0455975)
(0.906177 -0.0380077 -0.00873825)
(0.945706 -0.0601807 0.0370057)
(0.991661 -0.0485891 0.074388)
(0.980408 -0.00096871 0.0965298)
(0.951369 0.0400384 0.0714953)
(0.982394 0.0355609 -0.00134748)
(1.05783 0.0101488 -0.0317568)
(1.10673 0.00827173 -0.00311575)
(1.0983 0.0302892 0.00762387)
(1.04895 0.0437421 -0.00595381)
(0.980924 0.0382474 0.0220969)
(0.938568 0.00391892 0.0696452)
(0.932054 -0.0325535 0.0651099)
(0.946655 -0.0185638 0.0168402)
(0.983623 0.0254365 -0.0158945)
(1.02592 0.0324433 -0.0134834)
(1.02318 0.00202144 -0.025183)
(1.00686 -0.0196077 -0.0410339)
(0.977826 -0.0327004 -0.0421416)
(0.936619 -0.021199 -0.0557604)
(0.925403 0.00637026 -0.0600946)
(0.932366 0.00800831 -0.050492)
(0.9548 0.0191477 -0.0541018)
(0.990744 0.0496206 -0.0374007)
(0.99984 0.0302017 0.0183451)
(0.965433 -0.025453 0.0662115)
(0.944361 -0.0482867 0.0495081)
(0.974328 -0.0440947 0.00035858)
(1.00074 -0.0409244 -0.010104)
(0.968984 -0.0468736 -0.00987425)
(0.934976 -0.0406696 -0.0454484)
(0.942893 -0.0246805 -0.0341068)
(0.891047 -0.0310474 -0.00552882)
(0.80462 -0.0560135 -0.007621)
(0.835786 -0.0310298 -0.0179991)
(0.920129 0.0207076 -0.0154153)
(0.94428 0.026634 0.00255122)
(0.944639 0.0112895 -0.0108808)
(0.937093 0.0182805 -0.0467577)
(0.908747 0.00199085 -0.0405574)
(0.883775 -0.0407039 -0.0135926)
(0.919636 -0.0548374 0.014819)
(0.969357 -0.0341386 0.0632005)
(0.954196 0.00504164 0.103994)
(0.958771 0.0241863 0.0564879)
(1.02107 0.00798928 -0.0327664)
(1.07836 -0.00435805 -0.0328002)
(1.08945 0.00815931 0.0128986)
(1.06843 0.0255674 0.000447721)
(1.04622 0.0254848 -0.0250051)
(1.01386 0.0154851 0.0170895)
(0.961593 -0.0130479 0.0609576)
(0.904366 -0.0316012 0.0371651)
(0.906906 -0.0120579 -0.0028957)
(0.968821 0.0185069 -0.0102222)
(1.02236 0.0171718 -0.0147718)
(1.03931 -0.00435941 -0.0541766)
(1.05831 -0.0129234 -0.0583422)
(1.00488 -0.0229691 -0.00603401)
(0.916101 -0.0236205 0.0208761)
(0.911071 -0.0140609 0.0222357)
(0.92395 -0.00929937 0.014876)
(0.942856 0.0239646 -0.0118635)
(0.985104 0.0674884 -0.00610698)
(0.996124 0.0371846 0.0525728)
(0.956637 -0.0220424 0.0811428)
(0.913931 -0.0477451 0.0292906)
(0.906256 -0.0547128 -0.0130622)
(0.944231 -0.0488727 0.000735458)
(0.959084 -0.0436073 -0.00856256)
(0.940081 -0.0217182 -0.070127)
(0.956302 -0.0096967 -0.0498738)
(0.903969 -0.00645972 -0.00334749)
(0.80434 -0.036681 0.0125861)
(0.808668 -0.0353836 0.00887772)
(0.863514 0.00402349 0.0191837)
(0.901532 0.0133564 0.0387601)
(0.949804 0.0106542 0.011421)
(0.99609 0.0165893 -0.0121495)
(0.986845 -0.000108751 -0.00361404)
(0.905352 -0.0238701 -0.0110707)
(0.877143 -0.0319684 -0.0045559)
(0.898757 -0.0322773 0.0451621)
(0.917239 -0.00605385 0.0676362)
(0.945024 0.0170279 -0.0244333)
(0.972986 0.00861514 -0.0974123)
(1.02705 0.00520476 -0.0459057)
(1.05274 0.00458153 0.0150846)
(1.01007 -0.00572939 0.00130204)
(0.983303 -0.0111581 -0.00997476)
(0.989492 -0.00780706 0.0264986)
(0.94447 -0.0117207 0.0345615)
(0.871144 -0.00953395 0.00379522)
(0.865785 0.00302379 -0.0116058)
(0.911473 0.0113176 -0.0112624)
(0.963884 0.00242352 -0.0298314)
(1.01441 -0.0221939 -0.063857)
(1.07559 -0.025521 -0.0446538)
(1.02673 -0.021937 0.0211517)
(0.942852 -0.0281279 0.0450714)
(0.928754 -0.0196614 0.0356454)
(0.888777 0.00468618 0.0150074)
(0.883119 0.0430764 -0.0246065)
(0.943035 0.0575775 -0.0243698)
(0.942207 0.013818 0.0383773)
(0.891356 -0.0283022 0.0596322)
(0.873951 -0.042465 0.00838502)
(0.871498 -0.0678595 -0.0161442)
(0.915243 -0.0704968 0.000272699)
(0.95541 -0.0386232 -0.0257043)
(0.980153 -0.0110567 -0.0552625)
(0.934565 0.0200745 -0.0325159)
(0.846435 0.033385 -0.0192836)
(0.818425 -0.021807 -0.00255888)
(0.827791 -0.0641658 0.0432642)
(0.840013 -0.040761 0.0942599)
(0.890967 -0.0101581 0.0981092)
(1.00039 0.00110203 0.0671463)
(1.06329 0.00182514 0.0569256)
(1.01376 -0.00157064 0.0193302)
(0.930223 -0.0077558 -0.00421364)
(0.864829 -0.0190998 0.0447163)
(0.751159 -0.0372294 0.0639279)
(0.736883 -0.0341657 -0.0200041)
(0.820716 -0.0144812 -0.120802)
(0.889057 -0.00451203 -0.0965408)
(0.975199 0.000152788 0.00573859)
(0.993724 -0.00274249 0.0334279)
(0.895885 -0.0211902 -0.00366313)
(0.834083 -0.0311992 0.00932734)
(0.833815 -0.022434 0.0308477)
(0.837303 -0.00925139 -0.00359973)
(0.850211 -0.00454417 -0.0160602)
(0.877149 -0.00823152 0.00834791)
(0.88658 -0.017856 0.00145635)
(0.94364 -0.0281554 -0.0427871)
(0.986109 -0.0412733 -0.0586051)
(0.955783 -0.0281956 7.03239e-05)
(0.883432 -0.0177105 0.0697136)
(0.870575 -0.0334644 0.0719366)
(0.886524 -0.0274731 0.0381582)
(0.863833 -0.00224857 -0.0134077)
(0.877463 0.0274649 -0.0588481)
(0.911332 0.0474781 -0.0176924)
(0.865124 0.0153943 0.0553079)
(0.837972 -0.0294986 0.0471014)
(0.891038 -0.0393207 -0.000160718)
(0.909266 -0.061644 -0.00251077)
(0.912658 -0.074144 0.00519154)
(0.956632 -0.0403938 -0.0318209)
(0.989956 0.0101008 -0.0350209)
(0.889226 0.0578312 -0.0343764)
(0.87448 0.0519671 -0.0361237)
(0.888351 -0.025149 -0.0103155)
(0.812128 -0.0900491 0.0352788)
(0.810816 -0.078576 0.0808936)
(0.944927 -0.0325962 0.0839791)
(1.01601 -0.00638343 0.0855814)
(0.981546 -0.0107574 0.0751029)
(0.922962 -0.0145076 0.0181158)
(0.833612 0.000212709 0.0225791)
(0.74404 0.00867828 0.0608837)
(0.691087 -0.0289016 0.0154505)
(0.733109 -0.0703675 -0.0714703)
(0.830949 -0.0474183 -0.0885263)
(0.883275 -0.00634831 -0.0031422)
(0.921823 0.00698332 0.0682963)
(0.887212 -0.0098643 0.029122)
(0.795988 -0.0259124 -0.0106997)
(0.750163 -0.0214887 0.032133)
(0.766916 -0.0283403 0.0268702)
(0.81931 -0.0358548 -0.033699)
(0.860172 -0.0246926 -0.00481825)
(0.876212 -0.0252535 0.0291932)
(0.887652 -0.0448881 -0.0246265)
(0.948528 -0.0417611 -0.0819099)
(0.970998 -0.0212024 -0.0670547)
(0.906136 -0.00411499 0.0107695)
(0.872563 -0.00575726 0.0722411)
(0.884666 -0.0245146 0.0592573)
(0.882999 -0.0283087 0.00653629)
(0.868429 -0.0194704 -0.0567828)
(0.854322 0.0123342 -0.0650719)
(0.859353 0.038678 0.00712172)
(0.835713 -0.00503458 0.0572749)
(0.832018 -0.0526704 0.0335125)
(0.894774 -0.0440108 -0.000664094)
(0.915852 -0.04799 -0.00326118)
(0.927697 -0.0682809 -0.0130164)
(0.993172 -0.04131 -0.0334053)
(0.920977 0.0426002 -0.0381937)
(0.901296 0.0793478 -0.0488257)
(0.945063 0.0538679 -0.0152543)
(0.854951 -0.0259367 0.0443936)
(0.756108 -0.0994139 0.0358949)
(0.838073 -0.0897329 -0.0153656)
(1.00095 -0.0185731 -0.0254472)
(1.00215 0.0140999 0.036565)
(0.94375 -0.00519262 0.0457336)
(0.851536 -0.0127891 0.00554236)
(0.745991 0.00104058 0.020684)
(0.747851 -0.0014998 0.026633)
(0.773345 -0.0456637 -0.0279058)
(0.772308 -0.0851568 -0.0506227)
(0.799627 -0.0546615 0.00755607)
(0.849343 -0.00585262 0.0749323)
(0.925757 0.00675318 0.0512028)
(0.801387 -0.0212209 0.00264705)
(0.634416 -0.0444783 0.0144948)
(0.660179 -0.0422584 0.0583841)
(0.755043 -0.048724 0.00867338)
(0.762341 -0.0495046 -0.042649)
(0.768067 -0.0319966 0.00651932)
(0.852805 -0.0476855 0.00189257)
(0.900341 -0.0783601 -0.0875339)
(0.940576 -0.0565185 -0.127825)
(0.981795 -0.00627709 -0.0888409)
(0.931725 0.0150597 -0.00896466)
(0.90096 0.000721331 0.055035)
(0.893403 -0.0240442 0.0375961)
(0.890858 -0.0341991 -0.0308869)
(0.863661 -0.0256454 -0.0688073)
(0.813593 2.74709e-05 -0.0436419)
(0.823173 0.0123956 0.0200083)
(0.823705 -0.0277926 0.0574684)
(0.824105 -0.0631999 0.024635)
(0.87258 -0.0437428 -0.0112487)
(0.88783 -0.0379163 -0.0115476)
(0.92921 -0.0581265 -0.0244876)
(0.979393 -0.0238734 -0.0368481)
(0.874648 0.0621608 -0.0441604)
(0.946017 0.0809825 -0.056976)
(0.972296 0.0505211 0.0141729)
(0.873621 -0.0335756 0.0746467)
(0.783775 -0.111046 0.0237967)
(0.837193 -0.0935835 -0.0836165)
(0.942738 -0.00419868 -0.0907434)
(0.936646 0.0310784 -0.0069155)
(0.913184 0.00547602 0.0137003)
(0.843808 -0.0078541 0.00352126)
(0.775496 -0.00922562 0.0285152)
(0.788734 -0.0195029 0.0268041)
(0.785982 -0.048221 -0.0140533)
(0.738039 -0.0816646 -0.0239349)
(0.730684 -0.0700344 0.0176634)
(0.846435 -0.025077 0.0389535)
(0.927163 0.00758428 0.0163348)
(0.770724 -0.0103315 -0.011356)
(0.645862 -0.0537457 0.0107719)
(0.697721 -0.0640286 0.0364853)
(0.777682 -0.0612411 -0.0173885)
(0.761864 -0.0584321 -0.0387314)
(0.779787 -0.055786 -0.00227048)
(0.880131 -0.079251 -0.0394546)
(0.895316 -0.0958949 -0.119267)
(0.905919 -0.0599725 -0.137689)
(0.964207 1.34734e-05 -0.0969265)
(0.933656 0.022811 -0.0217406)
(0.901971 0.0042465 0.0344949)
(0.884214 -0.0185843 0.00747582)
(0.864895 -0.0251913 -0.0448467)
(0.834778 -0.0187013 -0.0494042)
(0.797956 -0.00929052 -0.0216411)
(0.809448 -0.00599643 0.0228671)
(0.820824 -0.0350391 0.0415987)
(0.824378 -0.0608215 -0.0113053)
(0.830596 -0.0360794 -0.0472542)
(0.867113 -0.0264546 -0.0292895)
(0.940793 -0.0412273 -0.0205223)
(0.924998 0.00287209 -0.0205762)
(0.880105 0.0649038 -0.0635279)
(0.965149 0.0710928 -0.052198)
(0.998856 0.0394277 0.0335626)
(0.931206 -0.0308349 0.077015)
(0.796615 -0.0979197 0.0385657)
(0.796426 -0.0874785 -0.0629883)
(0.879992 -0.0089854 -0.0863444)
(0.897675 0.0219447 -0.0274774)
(0.879677 -0.00057366 -0.00168061)
(0.814408 -0.0117085 0.00280393)
(0.758068 -0.0161384 0.0268148)
(0.755521 -0.0242684 0.0288114)
(0.758477 -0.0504473 -0.0195447)
(0.757608 -0.0837689 -0.0666038)
(0.739486 -0.0761709 -0.0332243)
(0.784688 -0.0306809 0.0262116)
(0.860264 0.00515958 0.00360597)
(0.791979 -0.0101303 -0.0467519)
(0.726384 -0.0533908 -0.00913931)
(0.740394 -0.0676487 0.0278098)
(0.755491 -0.0700103 -0.00143372)
(0.744765 -0.0646824 -0.00319755)
(0.773114 -0.0675697 -0.00039848)
(0.837635 -0.0926615 -0.056489)
(0.831271 -0.0963883 -0.107452)
(0.857397 -0.0582043 -0.113169)
(0.924275 -0.00360421 -0.0837774)
(0.896535 0.0155297 -0.0161715)
(0.875706 0.00191967 0.0266963)
(0.866792 -0.0135858 -0.00545709)
(0.846798 -0.0186399 -0.0400898)
(0.815411 -0.013727 -0.0275251)
(0.792588 -0.0117928 -0.00219366)
(0.812469 -0.01519 0.0262084)
(0.824422 -0.0354652 0.0225675)
(0.800545 -0.0519352 -0.0377411)
(0.792558 -0.0290012 -0.0660327)
(0.87048 -0.0191087 -0.0361293)
(0.928245 -0.019231 -0.00831508)
(0.883121 0.0254362 -0.0137116)
(0.868264 0.059805 -0.0687487)
(0.979507 0.058515 -0.0301855)
(1.03466 0.0249747 0.0312242)
(0.932034 -0.030667 0.0658442)
(0.786836 -0.0849445 0.0549682)
(0.769637 -0.0874915 -0.026413)
(0.850001 -0.0305691 -0.0574555)
(0.881268 -0.000521712 -0.00444961)
(0.856602 -0.00924254 0.0118022)
(0.79455 -0.00746216 0.00559432)
(0.741394 -0.00596974 0.032082)
(0.778975 -0.021959 0.00604318)
(0.830039 -0.0511318 -0.0694101)
(0.784029 -0.0759346 -0.0792848)
(0.703005 -0.0673426 -0.00865556)
(0.709443 -0.0373718 0.0311982)
(0.739082 -0.0136167 -0.027786)
(0.671846 -0.0302757 -0.0597322)
(0.67001 -0.061026 0.0143749)
(0.719012 -0.0613486 0.056926)
(0.715785 -0.0588598 0.0290401)
(0.703977 -0.0597646 0.0200385)
(0.746859 -0.0713585 -0.0146406)
(0.779203 -0.0954493 -0.0722725)
(0.772833 -0.0910709 -0.0742894)
(0.819336 -0.051582 -0.0626906)
(0.879512 -0.00385726 -0.0468778)
(0.864352 0.0124085 0.00812341)
(0.861307 0.00200861 0.0389054)
(0.859179 -0.0105496 0.00577852)
(0.835104 -0.010714 -0.0274708)
(0.807314 -0.00518462 -0.0148068)
(0.797034 -0.0101014 0.00944577)
(0.819507 -0.0132298 0.0202755)
(0.817772 -0.0234732 0.00302772)
(0.775095 -0.0392914 -0.0457402)
(0.78096 -0.0260188 -0.0647178)
(0.882389 -0.0116453 -0.0274421)
(0.914875 0.00152319 0.007929)
(0.85413 0.0377544 -0.0219938)
(0.869147 0.055945 -0.0487717)
(1.00044 0.0475765 -0.00603529)
(1.03194 0.0138957 0.0154566)
(0.913032 -0.0272542 0.0439749)
(0.774833 -0.0679956 0.0559421)
(0.750532 -0.0787565 0.0124238)
(0.801701 -0.0412174 0.00540993)
(0.839877 -0.016059 0.04633)
(0.827141 -0.0116608 0.047822)
(0.757952 0.00124185 0.0362926)
(0.750306 0.00412535 0.0302161)
(0.858706 -0.0195703 -0.0349791)
(0.879587 -0.0445681 -0.0974033)
(0.766076 -0.0579443 -0.0668595)
(0.678468 -0.0568429 0.00975218)
(0.68288 -0.0382707 0.0125311)
(0.682684 -0.0223644 -0.051049)
(0.635514 -0.0425846 -0.0516963)
(0.673751 -0.0657238 0.0226186)
(0.743225 -0.0511498 0.0552986)
(0.737242 -0.0455011 0.0332286)
(0.727012 -0.0567424 0.0218243)
(0.756615 -0.0734422 -0.03218)
(0.73539 -0.0882614 -0.0790194)
(0.713348 -0.082756 -0.0265758)
(0.785911 -0.051271 0.0148096)
(0.861707 -0.0082352 0.0167843)
(0.858764 0.0100701 0.048637)
(0.859828 0.00179519 0.0580117)
(0.852435 -0.00791491 0.0179391)
(0.823386 -0.00342626 -0.0120284)
(0.79721 0.00295566 -0.00322656)
(0.798798 -0.00394691 0.00551696)
(0.821728 -0.00634841 -0.00325236)
(0.807182 -0.0149258 -0.0229965)
(0.761718 -0.0319443 -0.0525771)
(0.784593 -0.0252022 -0.0583944)
(0.890679 -0.00341845 -0.0131661)
(0.903452 0.0178362 0.00999591)
(0.832702 0.0424855 -0.0358974)
(0.893658 0.0527245 -0.0159476)
(1.0225 0.0352422 0.00386301)
(1.02691 0.00329534 0.00308331)
(0.887691 -0.0230664 0.0310392)
(0.737855 -0.0487901 0.0567577)
(0.703847 -0.0634675 0.0548159)
(0.736957 -0.0488436 0.0727849)
(0.765283 -0.0293656 0.102264)
(0.758237 -0.00772515 0.0832503)
(0.717213 0.0138159 0.0517115)
(0.789266 0.00536904 0.0107157)
(0.935624 -0.0211657 -0.065898)
(0.917229 -0.0301836 -0.100679)
(0.760064 -0.0403783 -0.0509164)
(0.672055 -0.0512546 0.0119687)
(0.695737 -0.0390961 -0.0056758)
(0.691219 -0.0254623 -0.0556611)
(0.630534 -0.0462427 -0.035498)
(0.652585 -0.0695826 0.0225102)
(0.731449 -0.0459756 0.0454891)
(0.749953 -0.0317378 0.0210695)
(0.739035 -0.0476232 0.00667618)
(0.737051 -0.063787 -0.0342065)
(0.688782 -0.0700109 -0.0635782)
(0.663582 -0.0751029 0.00354302)
(0.721899 -0.0599433 0.0775917)
(0.791765 -0.0158506 0.0937218)
(0.804489 0.00940689 0.0949094)
(0.833385 0.00174503 0.0707116)
(0.830378 -0.00626289 0.0276964)
(0.808854 0.00366523 -0.00318739)
(0.807439 0.00989626 -0.0116995)
(0.822985 0.000544175 -0.01558)
(0.835573 -0.00211395 -0.0307864)
(0.800698 -0.00934606 -0.0456843)
(0.765287 -0.0262495 -0.0532676)
(0.799025 -0.0209268 -0.0390842)
(0.886028 0.00359013 -0.00215085)
(0.88271 0.0252954 -0.00438876)
(0.827791 0.0457416 -0.0344909)
(0.93732 0.0445209 0.00980965)
(1.06093 0.0203268 -0.000872259)
(1.01747 -0.00308819 -0.00879471)
(0.831494 -0.0126919 0.0284377)
(0.680747 -0.0348367 0.0543437)
(0.673661 -0.0589528 0.0623746)
(0.690817 -0.0571238 0.0965707)
(0.670652 -0.0351228 0.124353)
(0.671141 -0.00248104 0.0989778)
(0.720339 0.0155117 0.0533646)
(0.874535 -0.00471572 -0.0124555)
(0.998578 -0.0262323 -0.0773827)
(0.93658 -0.0182229 -0.0786994)
(0.769884 -0.0265087 -0.0281503)
(0.678839 -0.0472308 -0.00228188)
(0.695516 -0.0372832 -0.0357222)
(0.65506 -0.0225927 -0.0485771)
(0.594407 -0.0471456 -0.00177197)
(0.628246 -0.0698835 0.0303631)
(0.689034 -0.0405022 0.0285498)
(0.712766 -0.0217952 -0.00355669)
(0.721743 -0.0381854 -0.0185319)
(0.698189 -0.0506514 -0.0356542)
(0.627455 -0.0534805 -0.0377069)
(0.589829 -0.0653976 0.0106449)
(0.6044 -0.0611772 0.0744169)
(0.66859 -0.0197226 0.10265)
(0.735047 0.00862807 0.0891823)
(0.809309 0.00087088 0.0571826)
(0.820096 -0.00542992 0.0259921)
(0.816803 0.00515034 -0.00393521)
(0.841206 0.00825204 -0.0240477)
(0.858904 0.000170721 -0.0345268)
(0.851565 0.0010239 -0.0565243)
(0.801251 -0.00544223 -0.0656041)
(0.77757 -0.0204575 -0.0446733)
(0.810229 -0.014011 -0.0189145)
(0.860081 0.00963909 -0.00475222)
(0.851443 0.0297665 -0.0181324)
(0.831352 0.0459953 -0.0170691)
(1.00582 0.029256 0.0169223)
(1.0994 0.0070698 -0.0180906)
(0.978595 -0.000563025 -0.0118391)
(0.75873 -0.00112749 0.0332096)
(0.653925 -0.0281859 0.0496024)
(0.674815 -0.0529363 0.0567613)
(0.650045 -0.0487634 0.094624)
(0.591947 -0.0300774 0.118416)
(0.638359 -0.00174261 0.0885984)
(0.776599 0.00822186 0.0252225)
(0.93845 -0.0150022 -0.0576681)
(0.994642 -0.0254647 -0.0919865)
(0.898339 -0.00773117 -0.0444064)
(0.761906 -0.0168842 -0.0119678)
(0.67333 -0.0414607 -0.0264472)
(0.643081 -0.0318439 -0.0484521)
(0.585809 -0.0180571 -0.0231607)
(0.573916 -0.0440164 0.0207441)
(0.612766 -0.062446 0.0275483)
(0.645017 -0.0317265 0.00861536)
(0.675942 -0.0143669 -0.0211253)
(0.69148 -0.0281667 -0.0346059)
(0.620765 -0.0385564 -0.0383777)
(0.539499 -0.0427906 -0.0299239)
(0.555016 -0.05687 -0.0105089)
(0.602226 -0.0557748 0.00428092)
(0.65591 -0.0185373 0.028565)
(0.730723 0.00791525 0.0319454)
(0.808937 -0.00118358 0.024236)
(0.818187 -0.00498058 0.0152231)
(0.832912 0.00396547 -0.00636731)
(0.863428 0.00289056 -0.0281812)
(0.87088 -0.00108253 -0.0508138)