/*--------------------------------*- C++ -*----------------------------------*\
  =========                 |
  \\      /  F ield         | OpenFOAM: The Open Source CFD Toolbox
   \\    /   O peration     | Website:  https://openfoam.org
    \\  /    A nd           | Version:  10
     \\/     M anipulation  |
\*---------------------------------------------------------------------------*/
FoamFile
{
    format      ascii;
    class       volVectorField;
    location    "55";
    object      UMean;
}
// * * * * * * * * * * * * * * * * * * * * * * * * * * * * * * * * * * * * * //

dimensions      [0 1 -1 0 0 0 0];

internalField   nonuniform List<vector> 
25600
(
(1.05568 0.00013754 -8.66766e-05)
(1.05567 0.000150456 -8.06292e-05)
(1.05567 0.000157765 -8.00673e-05)
(1.05567 0.000144558 -8.28641e-05)
(1.05567 0.00013187 -8.8411e-05)
(1.05568 0.000102048 -9.50933e-05)
(1.05568 6.4679e-05 -0.000100809)
(1.05568 3.07345e-05 -0.000106643)
(1.05567 -1.01342e-05 -0.000110993)
(1.05566 -4.15859e-05 -0.000116863)
(1.05564 -7.15869e-05 -0.000122886)
(1.05563 -9.84254e-05 -0.000125741)
(1.05561 -0.0001193 -0.000133436)
(1.05561 -0.000136787 -0.000134557)
(1.05562 -0.000145129 -0.000130647)
(1.05561 -0.000150889 -0.000131462)
(1.05562 -0.000141454 -0.000128968)
(1.05563 -0.000137026 -0.000126415)
(1.05563 -0.000114926 -0.000127904)
(1.05565 -0.000100586 -0.000130857)
(1.05566 -8.1675e-05 -0.000135123)
(1.05566 -5.8446e-05 -0.000139983)
(1.05567 -4.45725e-05 -0.000145405)
(1.05567 -2.48168e-05 -0.000145942)
(1.05567 -5.6436e-06 -0.000147246)
(1.05568 1.43677e-05 -0.000146543)
(1.0557 3.39315e-05 -0.00014465)
(1.05571 6.35064e-05 -0.000141352)
(1.05572 9.49558e-05 -0.000138492)
(1.05573 0.000120498 -0.000134854)
(1.05572 0.000145084 -0.000130936)
(1.05572 0.000151684 -0.000130224)
(1.05571 0.00014195 -0.000126953)
(1.05571 0.000132158 -0.000127592)
(1.0557 0.000113194 -0.00012778)
(1.0557 9.60981e-05 -0.000122909)
(1.0557 9.54583e-05 -0.000121545)
(1.0557 9.70404e-05 -0.00011437)
(1.05569 0.000105304 -0.0001059)
(1.05569 0.000123007 -9.66136e-05)
(1.05555 8.28259e-05 -7.86623e-05)
(1.05554 0.000102522 -7.04751e-05)
(1.05554 0.000109323 -6.78467e-05)
(1.05554 0.000101846 -7.07658e-05)
(1.05553 8.3944e-05 -7.53492e-05)
(1.05553 5.82771e-05 -7.9746e-05)
(1.05553 2.04021e-05 -8.46827e-05)
(1.05553 -9.9187e-06 -8.23544e-05)
(1.05552 -4.3357e-05 -8.59239e-05)
(1.05551 -7.47127e-05 -9.14449e-05)
(1.05549 -0.000100634 -9.8689e-05)
(1.05548 -0.00013014 -0.000106919)
(1.05547 -0.00015673 -0.000114886)
(1.05547 -0.000176149 -0.00011402)
(1.05548 -0.000187206 -0.000110193)
(1.05548 -0.000198137 -0.000105636)
(1.05549 -0.000190383 -0.000103158)
(1.05551 -0.000189307 -0.000104346)
(1.05551 -0.000174833 -0.000109233)
(1.05553 -0.00015413 -0.000117865)
(1.05554 -0.000137927 -0.000125085)
(1.05554 -0.000115087 -0.000129743)
(1.05554 -9.93784e-05 -0.000133697)
(1.05555 -8.86632e-05 -0.000128651)
(1.05555 -7.28325e-05 -0.000123573)
(1.05555 -6.31249e-05 -0.000116248)
(1.05556 -5.18783e-05 -0.000112546)
(1.05557 -2.19827e-05 -0.00010894)
(1.05558 1.29287e-05 -0.000108801)
(1.05557 4.52578e-05 -0.000110465)
(1.05556 7.71802e-05 -0.000110204)
(1.05554 8.87334e-05 -0.000111258)
(1.05553 7.93147e-05 -0.000111207)
(1.05552 6.35624e-05 -0.00011082)
(1.05551 3.58579e-05 -0.000111367)
(1.05552 1.74556e-05 -0.000108036)
(1.05553 1.23651e-05 -0.000110366)
(1.05553 1.35761e-05 -0.000105834)
(1.05554 3.41343e-05 -9.97365e-05)
(1.05554 5.85656e-05 -9.03916e-05)
(1.05493 -0.000115052 2.04883e-05)
(1.05497 -7.97211e-05 2.40342e-05)
(1.05501 -5.97937e-05 2.07291e-05)
(1.05504 -5.50701e-05 1.19309e-05)
(1.05506 -7.67379e-05 4.82009e-06)
(1.05506 -0.000101051 -5.04326e-07)
(1.05506 -0.000141895 -2.48886e-06)
(1.05507 -0.000173272 2.89452e-06)
(1.05505 -0.00021155 -3.29466e-06)
(1.05504 -0.000247791 -1.3423e-05)
(1.05501 -0.00027392 -2.63574e-05)
(1.05499 -0.00030515 -4.46377e-05)
(1.05498 -0.000334894 -5.24132e-05)
(1.05497 -0.00036219 -4.92831e-05)
(1.05498 -0.000385757 -4.11182e-05)
(1.05498 -0.000405168 -3.07775e-05)
(1.05498 -0.000402851 -3.03902e-05)
(1.05499 -0.000402806 -4.2614e-05)
(1.05499 -0.00039179 -5.42017e-05)
(1.05499 -0.000373813 -6.81815e-05)
(1.055 -0.000363048 -7.42347e-05)
(1.05499 -0.000341294 -7.41027e-05)
(1.05499 -0.000321588 -6.98022e-05)
(1.055 -0.00030709 -5.72758e-05)
(1.055 -0.000293655 -3.94934e-05)
(1.05499 -0.000292622 -2.25909e-05)
(1.05499 -0.000284415 -1.11198e-05)
(1.05499 -0.000250761 -5.10076e-06)
(1.05498 -0.000204041 -5.19074e-06)
(1.05498 -0.00015634 -8.93503e-06)
(1.05496 -0.000113573 -4.56332e-06)
(1.05493 -9.96351e-05 -1.51981e-06)
(1.05491 -0.000113396 7.9407e-07)
(1.0549 -0.000144484 1.45305e-06)
(1.05487 -0.000186264 -1.82226e-06)
(1.05487 -0.000209999 -1.92254e-06)
(1.05486 -0.000225082 -3.6328e-06)
(1.05485 -0.000223148 4.42442e-07)
(1.05487 -0.000191712 6.08525e-06)
(1.0549 -0.000159822 1.15513e-05)
(1.05271 -0.000581626 8.34519e-05)
(1.0528 -0.000521354 7.80375e-05)
(1.05288 -0.000466515 6.32132e-05)
(1.05297 -0.000432269 5.23504e-05)
(1.05303 -0.000437951 4.88581e-05)
(1.05306 -0.000457362 5.21024e-05)
(1.05307 -0.000499253 6.28162e-05)
(1.05308 -0.000526697 7.34877e-05)
(1.05306 -0.00056139 6.46245e-05)
(1.05306 -0.000584531 4.57466e-05)
(1.05303 -0.000609486 1.74434e-05)
(1.053 -0.000647486 -1.17334e-05)
(1.05296 -0.000689518 -1.32237e-05)
(1.05292 -0.000725409 4.54481e-06)
(1.05289 -0.000753396 2.32172e-05)
(1.05288 -0.000773367 3.34478e-05)
(1.05288 -0.000784964 1.81705e-05)
(1.05285 -0.000799744 -1.0751e-05)
(1.0528 -0.000805782 -2.94158e-05)
(1.05274 -0.000803674 -3.91116e-05)
(1.05271 -0.000803157 -3.79906e-05)
(1.0527 -0.000789324 -3.12226e-05)
(1.05271 -0.000770147 -2.51028e-05)
(1.05273 -0.000752052 -9.70405e-06)
(1.05272 -0.000749274 1.65599e-05)
(1.0527 -0.000757746 4.04657e-05)
(1.0527 -0.000750925 5.62272e-05)
(1.0527 -0.000715541 6.48921e-05)
(1.0527 -0.000662231 6.2086e-05)
(1.0527 -0.000606693 5.79883e-05)
(1.05269 -0.00056414 6.23003e-05)
(1.05267 -0.000555715 6.9709e-05)
(1.05267 -0.000579875 7.47411e-05)
(1.05267 -0.000622566 7.79818e-05)
(1.05264 -0.000672275 7.6654e-05)
(1.05261 -0.000704903 8.23135e-05)
(1.05257 -0.000735418 8.80317e-05)
(1.05256 -0.000730858 9.11646e-05)
(1.05259 -0.000696271 9.06724e-05)
(1.05263 -0.000651352 8.38492e-05)
(1.04834 -0.00100605 0.00030671)
(1.04843 -0.000932326 0.000287854)
(1.04853 -0.000866714 0.000263022)
(1.04861 -0.000843053 0.000251589)
(1.04864 -0.000863905 0.000255381)
(1.04867 -0.000895731 0.000272541)
(1.04869 -0.000927943 0.000291575)
(1.04871 -0.00094526 0.000298365)
(1.04869 -0.000977209 0.000270382)
(1.04868 -0.000993974 0.000217285)
(1.04864 -0.00101793 0.000159274)
(1.0486 -0.0010446 0.000133291)
(1.04854 -0.00107595 0.000172926)
(1.0485 -0.00111001 0.000237632)
(1.04847 -0.00114778 0.000272272)
(1.04845 -0.00117058 0.000270509)
(1.0484 -0.0011773 0.000233252)
(1.04831 -0.00117549 0.000197387)
(1.0482 -0.00118305 0.000193041)
(1.04809 -0.00119979 0.000221497)
(1.04804 -0.00121751 0.000261236)
(1.04804 -0.00120252 0.000294262)
(1.04805 -0.00115881 0.0003141)
(1.04807 -0.00110825 0.000344367)
(1.04805 -0.00109234 0.00038763)
(1.04806 -0.00109427 0.000426645)
(1.04811 -0.00108709 0.000461316)
(1.04815 -0.00105621 0.000479666)
(1.04821 -0.0010068 0.00046413)
(1.04829 -0.000958025 0.000440546)
(1.04835 -0.000931511 0.000422625)
(1.04838 -0.000942079 0.000404365)
(1.04838 -0.000988915 0.00037471)
(1.04836 -0.00105157 0.000346288)
(1.04829 -0.00111993 0.000327056)
(1.04824 -0.00116813 0.000330994)
(1.0482 -0.00120569 0.00034007)
(1.0482 -0.001194 0.000336648)
(1.04822 -0.00115116 0.000327402)
(1.04826 -0.00108703 0.000313606)
(1.04299 -0.00150626 0.000437314)
(1.04307 -0.00142745 0.000422348)
(1.04312 -0.00138126 0.000407475)
(1.04315 -0.00137921 0.000409566)
(1.04314 -0.00140977 0.000426429)
(1.04314 -0.00143835 0.000441458)
(1.04313 -0.00145257 0.000438418)
(1.04312 -0.00144741 0.000390385)
(1.04306 -0.0014471 0.000295448)
(1.04304 -0.00143297 0.000204037)
(1.043 -0.00144958 0.000160908)
(1.04299 -0.001472 0.000189311)
(1.04295 -0.00152421 0.000283572)
(1.04293 -0.00155677 0.000367693)
(1.0429 -0.00157871 0.000407325)
(1.04292 -0.00157497 0.000407279)
(1.04289 -0.00157789 0.000381512)
(1.04282 -0.00157058 0.000352479)
(1.04271 -0.00158269 0.000361252)
(1.04263 -0.00161368 0.000425854)
(1.0426 -0.00164878 0.000498194)
(1.04261 -0.00162748 0.000553074)
(1.04262 -0.00157005 0.000586261)
(1.04265 -0.00151677 0.000631551)
(1.04267 -0.00152929 0.000700365)
(1.04275 -0.0015538 0.000770338)
(1.04282 -0.0015729 0.000833959)
(1.04288 -0.0015566 0.000839574)
(1.04292 -0.00151106 0.000786444)
(1.04298 -0.00145908 0.000718484)
(1.04298 -0.00143682 0.000653214)
(1.04298 -0.00145524 0.000584809)
(1.04295 -0.00151266 0.000513421)
(1.04294 -0.00158469 0.000467442)
(1.04287 -0.00167 0.000453657)
(1.04282 -0.00172158 0.000472849)
(1.04276 -0.00176125 0.000492643)
(1.04278 -0.00174379 0.00048689)
(1.04282 -0.00168848 0.000471177)
(1.0429 -0.00159915 0.000450081)
(1.03856 -0.0020032 0.00146226)
(1.03876 -0.00195672 0.00155719)
(1.03889 -0.00196539 0.00163543)
(1.03895 -0.00202171 0.00171895)
(1.03898 -0.00208767 0.00178544)
(1.03904 -0.00213375 0.00180389)
(1.03908 -0.00214802 0.00176183)
(1.03915 -0.00212159 0.00165607)
(1.03919 -0.0021056 0.00153737)
(1.03927 -0.00210574 0.00147322)
(1.03931 -0.00214056 0.00148101)
(1.03939 -0.00215296 0.00154479)
(1.0394 -0.00216451 0.00164024)
(1.03942 -0.00215936 0.00170245)
(1.03938 -0.00218554 0.00171717)
(1.03936 -0.00219563 0.00167884)
(1.03928 -0.00218816 0.00161343)
(1.03919 -0.00217326 0.00154245)
(1.03908 -0.00221859 0.00153635)
(1.03898 -0.00228979 0.0015898)
(1.03886 -0.00234524 0.00160376)
(1.03877 -0.00231337 0.0015686)
(1.03872 -0.00223951 0.00152171)
(1.03872 -0.00218985 0.00153224)
(1.03871 -0.00219612 0.00159856)
(1.03872 -0.00219591 0.00166283)
(1.03864 -0.00219447 0.00168179)
(1.03853 -0.00213948 0.00161697)
(1.0384 -0.00206559 0.00153633)
(1.03833 -0.00200793 0.00146705)
(1.03823 -0.00202693 0.00138841)
(1.03816 -0.00210049 0.00131489)
(1.03809 -0.00217367 0.00127032)
(1.03806 -0.00222067 0.00128267)
(1.03799 -0.00226946 0.00133474)
(1.03797 -0.0022875 0.0013998)
(1.03795 -0.00231766 0.00142087)
(1.03803 -0.00228974 0.00139287)
(1.03816 -0.00220826 0.00137269)
(1.03835 -0.00209036 0.00138488)
(1.03361 -0.00312518 0.00313358)
(1.03395 -0.00308102 0.00326952)
(1.03422 -0.00306891 0.00334064)
(1.0344 -0.00307045 0.00340529)
(1.03452 -0.0030867 0.00341752)
(1.03467 -0.00310793 0.00338179)
(1.03476 -0.00312224 0.00329663)
(1.03488 -0.00311267 0.00317962)
(1.03491 -0.00313922 0.00308644)
(1.03495 -0.0032158 0.00305181)
(1.03489 -0.00331036 0.00305605)
(1.03487 -0.00336406 0.0030761)
(1.03477 -0.00339719 0.00307627)
(1.03465 -0.00338368 0.00301925)
(1.03437 -0.0033855 0.00292266)
(1.0341 -0.00339085 0.00279108)
(1.03385 -0.00340068 0.00266)
(1.03374 -0.0034038 0.00258041)
(1.03353 -0.00345883 0.00261318)
(1.0332 -0.00353121 0.00266179)
(1.03277 -0.00359615 0.00264122)
(1.03245 -0.00358112 0.00262024)
(1.03229 -0.00352299 0.00264026)
(1.03224 -0.00344944 0.00273348)
(1.03211 -0.0033774 0.00280452)
(1.03195 -0.00330684 0.00279821)
(1.03173 -0.00327422 0.00272545)
(1.03162 -0.00321498 0.0026497)
(1.03164 -0.00314185 0.00262803)
(1.03179 -0.00307283 0.00260553)
(1.03185 -0.0030944 0.00259409)
(1.03191 -0.00315045 0.00261424)
(1.03198 -0.00320386 0.00263506)
(1.03207 -0.00325245 0.00268964)
(1.03213 -0.00330587 0.00278049)
(1.03233 -0.0033199 0.00284538)
(1.03249 -0.0033336 0.00282843)
(1.03274 -0.00329377 0.00278588)
(1.03296 -0.00324145 0.00281514)
(1.03327 -0.00317266 0.00294082)
(1.02473 -0.00353904 0.00343056)
(1.02487 -0.00342766 0.00346472)
(1.02495 -0.00335674 0.00341519)
(1.02497 -0.0033256 0.00332514)
(1.02494 -0.0033311 0.00320137)
(1.02489 -0.00331863 0.00308781)
(1.02471 -0.00332386 0.00295291)
(1.02455 -0.00333135 0.00280107)
(1.02431 -0.00337853 0.00265579)
(1.02406 -0.00344566 0.00254647)
(1.0237 -0.00349722 0.0024945)
(1.02349 -0.00348775 0.00246071)
(1.02324 -0.00345401 0.00234046)
(1.02298 -0.00341575 0.00215844)
(1.02267 -0.00342095 0.00203076)
(1.02255 -0.0034621 0.00199281)
(1.0225 -0.0035348 0.00204863)
(1.0225 -0.00356823 0.00214692)
(1.02228 -0.0035905 0.00223527)
(1.02202 -0.00361664 0.00230115)
(1.02172 -0.00369597 0.00244471)
(1.02162 -0.00373034 0.00265391)
(1.02168 -0.00370472 0.00280808)
(1.02183 -0.00362138 0.00286137)
(1.02196 -0.00354886 0.00281418)
(1.02214 -0.00353702 0.00277316)
(1.02224 -0.00356669 0.00276048)
(1.02242 -0.00355014 0.00279593)
(1.02263 -0.00349596 0.00284408)
(1.02292 -0.00338342 0.00288734)
(1.02308 -0.0033189 0.00300427)
(1.02332 -0.00328041 0.00314402)
(1.02355 -0.0032774 0.00321152)
(1.02374 -0.00332916 0.00329832)
(1.02387 -0.00345206 0.0033985)
(1.02408 -0.00353852 0.00341335)
(1.02422 -0.0035946 0.00331326)
(1.02441 -0.00360372 0.00320117)
(1.0245 -0.00362902 0.00318884)
(1.02464 -0.00360467 0.00329913)
(1.01581 -0.00384278 0.0021668)
(1.01568 -0.00369273 0.00211146)
(1.0154 -0.00364993 0.00199078)
(1.01522 -0.00362006 0.00185593)
(1.01503 -0.00358074 0.00177908)
(1.01495 -0.00356168 0.00173732)
(1.01479 -0.0036178 0.00168035)
(1.01467 -0.00365143 0.00160514)
(1.01447 -0.00366417 0.00152971)
(1.01434 -0.00365761 0.00148596)
(1.01424 -0.00361678 0.00148996)
(1.01431 -0.0034916 0.00146386)
(1.01425 -0.00336228 0.00133173)
(1.01424 -0.00325244 0.00120016)
(1.01425 -0.00320018 0.00114728)
(1.01447 -0.00321158 0.0011991)
(1.01461 -0.00328669 0.00138012)
(1.01464 -0.00332263 0.0015807)
(1.01445 -0.00334197 0.00175286)
(1.01437 -0.0033612 0.00189616)
(1.01434 -0.00346043 0.00206215)
(1.01463 -0.00354561 0.00215884)
(1.01499 -0.00357334 0.00214732)
(1.01542 -0.00352564 0.00207511)
(1.0158 -0.00349482 0.00204454)
(1.0162 -0.00351522 0.00207994)
(1.01644 -0.00352371 0.00210446)
(1.01669 -0.00349536 0.00213724)
(1.0168 -0.00347018 0.00215375)
(1.01691 -0.00342445 0.00221719)
(1.0169 -0.00346286 0.00241466)
(1.01701 -0.00347873 0.00260843)
(1.01706 -0.00349648 0.00268512)
(1.01706 -0.00362874 0.00273522)
(1.01696 -0.00383727 0.00273135)
(1.01692 -0.00393458 0.00263176)
(1.01676 -0.00396563 0.00243997)
(1.01663 -0.00399137 0.00228835)
(1.0163 -0.00404773 0.00223556)
(1.01607 -0.00398315 0.00220624)
(1.00736 -0.00326648 -0.00121289)
(1.00732 -0.00310795 -0.00114948)
(1.00711 -0.00307833 -0.00111012)
(1.00716 -0.00298808 -0.00098176)
(1.00723 -0.00286383 -0.000719388)
(1.00737 -0.0028131 -0.000516503)
(1.00726 -0.00288399 -0.000395383)
(1.00726 -0.00293014 -0.000297561)
(1.00722 -0.00296548 -0.000140079)
(1.00743 -0.00301482 9.80778e-05)
(1.00769 -0.0030364 0.000339611)
(1.00816 -0.0029758 0.000433583)
(1.0084 -0.00294538 0.000398087)
(1.00874 -0.00295758 0.000309625)
(1.00911 -0.00306612 0.00020432)
(1.00965 -0.00320676 0.000232112)
(1.00991 -0.00336366 0.000397245)
(1.01014 -0.00346764 0.000523241)
(1.01021 -0.00359507 0.000625149)
(1.01044 -0.00373085 0.000703972)
(1.01059 -0.00390804 0.000760534)
(1.01101 -0.00405042 0.000676976)
(1.01128 -0.00409423 0.000455232)
(1.01158 -0.00406118 0.000249271)
(1.01167 -0.00406689 0.000230046)
(1.01176 -0.00408442 0.000252505)
(1.01159 -0.00407799 0.000245215)
(1.01147 -0.00404875 0.00027671)
(1.01113 -0.00398869 0.000266823)
(1.01092 -0.00386336 0.000249143)
(1.01057 -0.00379346 0.000306665)
(1.01032 -0.00371914 0.000263527)
(1.0099 -0.00368577 0.000110402)
(1.00953 -0.00376509 -3.93687e-05)
(1.0091 -0.00388882 -0.000251828)
(1.00885 -0.00388865 -0.000510686)
(1.00858 -0.00384568 -0.000735072)
(1.00838 -0.00380464 -0.000845561)
(1.00792 -0.00371338 -0.000941695)
(1.00763 -0.00349211 -0.00112795)
(0.999013 -0.00323279 -0.00207536)
(0.999199 -0.0031417 -0.00182377)
(0.999127 -0.00309739 -0.00168613)
(0.999505 -0.00290842 -0.00151296)
(0.999893 -0.00270542 -0.00126818)
(1.00027 -0.00266929 -0.00113164)
(1.00038 -0.00279432 -0.00111825)
(1.00077 -0.00283853 -0.00115268)
(1.00105 -0.00288714 -0.00103968)
(1.00158 -0.00295776 -0.000793099)
(1.00205 -0.00298956 -0.000575277)
(1.00273 -0.00295551 -0.00048247)
(1.00305 -0.00301805 -0.000467692)
(1.00356 -0.00310935 -0.000612369)
(1.00398 -0.00328309 -0.000812564)
(1.00448 -0.00339957 -0.000811841)
(1.00458 -0.00350597 -0.000700167)
(1.00469 -0.00357881 -0.000711556)
(1.00466 -0.00370668 -0.000721627)
(1.00468 -0.00385387 -0.000699995)
(1.00444 -0.00400728 -0.000687998)
(1.0044 -0.00409217 -0.000824497)
(1.00409 -0.00410126 -0.00105389)
(1.00391 -0.00408488 -0.00120516)
(1.00345 -0.00410614 -0.00123201)
(1.00307 -0.0040999 -0.00132481)
(1.00236 -0.00409211 -0.00143661)
(1.00175 -0.00405039 -0.00150997)
(1.00088 -0.00398062 -0.00168123)
(1.00047 -0.00386967 -0.00187949)
(1.00008 -0.00377932 -0.00202147)
(0.999979 -0.00369072 -0.0022491)
(0.999716 -0.00370507 -0.00244366)
(0.999595 -0.00387196 -0.00245706)
(0.999282 -0.00404879 -0.00243656)
(0.999213 -0.00402405 -0.00243478)
(0.99908 -0.00393007 -0.00239187)
(0.999133 -0.0038095 -0.00226946)
(0.999043 -0.00361861 -0.002193)
(0.999094 -0.00338322 -0.00221436)
(0.994507 -0.00313025 -0.00204503)
(0.994801 -0.00297839 -0.00181777)
(0.994742 -0.00286212 -0.00179877)
(0.995297 -0.00269912 -0.00185674)
(0.995858 -0.00253898 -0.00197553)
(0.996483 -0.00248782 -0.0022132)
(0.9968 -0.00252387 -0.00252527)
(0.997274 -0.00249517 -0.00277262)
(0.997444 -0.00249036 -0.00277188)
(0.997764 -0.00247277 -0.00262535)
(0.997872 -0.00243738 -0.00242856)
(0.998221 -0.00241493 -0.0022338)
(0.998147 -0.00247536 -0.00202632)
(0.998287 -0.00253426 -0.00198759)
(0.998167 -0.00270331 -0.00195187)
(0.998284 -0.00279247 -0.00176716)
(0.997975 -0.00288156 -0.0017509)
(0.997679 -0.00297672 -0.00199771)
(0.997143 -0.00311632 -0.00221346)
(0.996772 -0.00321506 -0.00234897)
(0.996068 -0.00325782 -0.0024848)
(0.995554 -0.0032166 -0.00275449)
(0.994859 -0.00319871 -0.0030338)
(0.994547 -0.0031795 -0.00322183)
(0.99405 -0.00315909 -0.00331393)
(0.993785 -0.00314364 -0.00343429)
(0.993209 -0.0032256 -0.00348179)
(0.992775 -0.00328746 -0.00342951)
(0.992146 -0.00336849 -0.0033928)
(0.992161 -0.00341145 -0.00338083)
(0.992161 -0.00344641 -0.0033736)
(0.992588 -0.00354084 -0.00343295)
(0.992921 -0.00378753 -0.00330428)
(0.993407 -0.00408463 -0.00296257)
(0.99346 -0.00424431 -0.00267291)
(0.993821 -0.00417079 -0.00253356)
(0.993954 -0.0040727 -0.0024769)
(0.994198 -0.00388059 -0.00236499)
(0.994332 -0.00357999 -0.00228775)
(0.994521 -0.00327789 -0.00225411)
(0.98901 -0.00146308 -0.00182287)
(0.989257 -0.00140244 -0.00184924)
(0.989347 -0.00150332 -0.00196898)
(0.990034 -0.00160613 -0.00203614)
(0.990293 -0.00159036 -0.00218827)
(0.990664 -0.00152919 -0.00256205)
(0.990591 -0.00154858 -0.00306495)
(0.990567 -0.00158518 -0.00344035)
(0.989976 -0.00162499 -0.00367315)
(0.989705 -0.00167158 -0.00376259)
(0.989314 -0.00175993 -0.00373279)
(0.98928 -0.00183765 -0.00373686)
(0.989035 -0.00195321 -0.00382256)
(0.989583 -0.00210571 -0.00387142)
(0.989678 -0.00229804 -0.00371036)
(0.989792 -0.00237747 -0.00358964)
(0.989156 -0.00245983 -0.00387087)
(0.988428 -0.00258351 -0.00421669)
(0.987526 -0.00270286 -0.00422645)
(0.987139 -0.00270077 -0.00405709)
(0.986504 -0.00258829 -0.00399793)
(0.986261 -0.00247099 -0.00398823)
(0.98573 -0.00243953 -0.00389692)
(0.985629 -0.00240656 -0.00378061)
(0.985417 -0.00236083 -0.00356846)
(0.985736 -0.0023312 -0.00329474)
(0.985607 -0.00240339 -0.00295595)
(0.985832 -0.00243687 -0.00256576)
(0.985983 -0.00253976 -0.00229639)
(0.98668 -0.00254911 -0.00217016)
(0.987063 -0.00248918 -0.00216408)
(0.987832 -0.00246814 -0.00217218)
(0.988148 -0.00257098 -0.00195305)
(0.988634 -0.00266966 -0.0016461)
(0.988586 -0.00269011 -0.0014931)
(0.98904 -0.00255773 -0.00148063)
(0.988984 -0.00239822 -0.00156803)
(0.989109 -0.00217443 -0.0016385)
(0.989027 -0.00185763 -0.00177904)
(0.989173 -0.00156889 -0.0018701)
(0.982248 -6.5085e-05 -0.00308085)
(0.982552 -9.62028e-05 -0.00316021)
(0.982443 -0.000319655 -0.00313965)
(0.982531 -0.000471144 -0.00307533)
(0.982136 -0.000488276 -0.00317896)
(0.982331 -0.000391715 -0.00348122)
(0.981766 -0.000393491 -0.00383066)
(0.981226 -0.000436706 -0.00412061)
(0.980355 -0.000529612 -0.0044799)
(0.980141 -0.000641993 -0.00482321)
(0.979858 -0.000852608 -0.00508959)
(0.980174 -0.00106261 -0.00537702)
(0.98022 -0.00137808 -0.00562912)
(0.980787 -0.00156055 -0.0056441)
(0.980433 -0.00165049 -0.00551766)
(0.979985 -0.00175646 -0.00551864)
(0.978795 -0.00201981 -0.00562754)
(0.978043 -0.00214003 -0.00545843)
(0.977399 -0.00203433 -0.00488127)
(0.977452 -0.00176168 -0.00433751)
(0.977316 -0.0015058 -0.00415828)
(0.977543 -0.00125805 -0.00389274)
(0.977253 -0.00119984 -0.00358556)
(0.977506 -0.00121205 -0.0034651)
(0.977609 -0.00126611 -0.003302)
(0.978296 -0.00128766 -0.00308475)
(0.978337 -0.00142207 -0.00287692)
(0.978988 -0.00147392 -0.00264713)
(0.979412 -0.00158829 -0.00257076)
(0.980162 -0.00157854 -0.00269997)
(0.980487 -0.00153158 -0.00300006)
(0.981122 -0.00144677 -0.00311427)
(0.981087 -0.00143871 -0.00292035)
(0.981532 -0.00142071 -0.00268015)
(0.981365 -0.00134669 -0.00253359)
(0.981746 -0.00110848 -0.00253164)
(0.981582 -0.000916331 -0.00261876)
(0.981916 -0.00070037 -0.00274009)
(0.981922 -0.000402797 -0.00289622)
(0.982326 -0.000120636 -0.00298349)
(0.973811 0.00081974 -0.00340266)
(0.973817 0.000653498 -0.00342002)
(0.973314 0.000385297 -0.00343355)
(0.973285 0.000190572 -0.00367788)
(0.973123 0.000148173 -0.00409522)
(0.973415 0.000269 -0.00439603)
(0.972593 0.000269572 -0.00450916)
(0.971899 0.000167778 -0.0046677)
(0.970984 -3.32885e-05 -0.00502995)
(0.970589 -0.000279552 -0.00535495)
(0.969969 -0.000624116 -0.0054857)
(0.969732 -0.000892512 -0.00555511)
(0.969088 -0.00115023 -0.00552086)
(0.968891 -0.00119456 -0.0052172)
(0.968206 -0.00120535 -0.00482776)
(0.967995 -0.00129119 -0.00451417)
(0.967283 -0.00140375 -0.00425665)
(0.967024 -0.00114565 -0.00385123)
(0.967396 -0.000736373 -0.00337419)
(0.968506 -0.000407248 -0.00328135)
(0.969027 -0.00026704 -0.00348367)
(0.969757 -0.000139498 -0.00345787)
(0.970223 -0.00018856 -0.0034962)
(0.971136 -0.00025352 -0.00372122)
(0.971685 -0.000334214 -0.00370607)
(0.972725 -0.000318459 -0.00348269)
(0.972899 -0.000427181 -0.00319771)
(0.973551 -0.000436305 -0.0028899)
(0.973999 -0.000477273 -0.00284043)
(0.974673 -0.000443432 -0.00306961)
(0.974855 -0.000393509 -0.00324429)
(0.975028 -0.000241165 -0.00309175)
(0.974689 -0.000149424 -0.00288382)
(0.975 -0.000100057 -0.00278476)
(0.974754 2.34002e-05 -0.00287494)
(0.974869 0.000246496 -0.00301361)
(0.974457 0.000390617 -0.00305015)
(0.9746 0.000600857 -0.00305146)
(0.974309 0.000818451 -0.00316659)
(0.974294 0.000924574 -0.00325892)
(0.965848 0.00143652 -0.00280307)
(0.966422 0.00109655 -0.00283595)
(0.966285 0.000717398 -0.0030913)
(0.966409 0.000532346 -0.00368682)
(0.966002 0.0005908 -0.00421151)
(0.966078 0.000759096 -0.00429939)
(0.965246 0.000651585 -0.0039761)
(0.96461 0.000346252 -0.00360791)
(0.963336 6.82295e-05 -0.00337321)
(0.962267 -0.000162048 -0.0031387)
(0.961083 -0.000419805 -0.00273293)
(0.960647 -0.000533952 -0.00234406)
(0.959804 -0.000569078 -0.00204939)
(0.959548 -0.00046343 -0.00174878)
(0.959047 -0.000316107 -0.00149396)
(0.959106 -0.000189005 -0.00162998)
(0.958605 -9.63896e-05 -0.00204373)
(0.959238 0.000131976 -0.00248933)
(0.960573 0.000349742 -0.00296747)
(0.962204 0.000563478 -0.0035632)
(0.963273 0.000680216 -0.00405111)
(0.964666 0.000795243 -0.00420451)
(0.965457 0.000826608 -0.00435646)
(0.966374 0.00088243 -0.0043445)
(0.966672 0.000968454 -0.00395929)
(0.96732 0.0011586 -0.00330487)
(0.966894 0.00120159 -0.00265046)
(0.967156 0.00119199 -0.00206974)
(0.967123 0.00105767 -0.00202782)
(0.967344 0.00104757 -0.00231489)
(0.967071 0.00111351 -0.00244439)
(0.966982 0.00133241 -0.00235257)
(0.966531 0.00140465 -0.00242144)
(0.966719 0.00145048 -0.00257073)
(0.966518 0.00152009 -0.00271312)
(0.966615 0.00160713 -0.00264324)
(0.966144 0.00163833 -0.00231551)
(0.96633 0.00177191 -0.00216057)
(0.965883 0.00184417 -0.00234108)
(0.965872 0.00174015 -0.00259487)
(0.961787 0.00211915 -0.00203163)
(0.962062 0.00196281 -0.00181915)
(0.961165 0.00182533 -0.00179666)
(0.960251 0.00181603 -0.00185936)
(0.959364 0.00193862 -0.00173909)
(0.959219 0.00201144 -0.00123287)
(0.958248 0.00172215 -0.000578854)
(0.957616 0.0013599 -9.49626e-05)
(0.956293 0.00103449 9.5062e-06)
(0.95551 0.000718608 4.83069e-05)
(0.954829 0.00033075 0.000202315)
(0.954838 0.000209005 0.000104556)
(0.95415 0.000252724 -0.000371345)
(0.95382 0.000367389 -0.000727157)
(0.953138 0.000439063 -0.000877811)
(0.953053 0.000563871 -0.00132438)
(0.95269 0.000599386 -0.00199422)
(0.95339 0.000683354 -0.0024425)
(0.954158 0.00083999 -0.00276894)
(0.954869 0.0010723 -0.00313276)
(0.955347 0.00116102 -0.00345321)
(0.956254 0.00126246 -0.00357311)
(0.95662 0.0013242 -0.00371251)
(0.957406 0.00143103 -0.0036826)
(0.957703 0.00155502 -0.00332536)
(0.958361 0.00181432 -0.00272293)
(0.958387 0.00198512 -0.00204166)
(0.958994 0.0019744 -0.00162567)
(0.958802 0.0019086 -0.00181561)
(0.958809 0.00209817 -0.00227573)
(0.958413 0.00235734 -0.00261833)
(0.958484 0.00261915 -0.00273219)
(0.958373 0.0025997 -0.00285184)
(0.958873 0.00253851 -0.00278595)
(0.959257 0.00248538 -0.00259123)
(0.95995 0.00249244 -0.00225679)
(0.960025 0.00250455 -0.00187488)
(0.960616 0.00256364 -0.00178502)
(0.960703 0.00253881 -0.00193753)
(0.961375 0.00237335 -0.00207463)
(0.952396 0.0024295 -0.00212485)
(0.951901 0.00248882 -0.00175815)
(0.950713 0.00250125 -0.00124169)
(0.949858 0.00244324 -0.000645816)
(0.949137 0.00234249 7.41626e-05)
(0.949246 0.00227 0.000727367)
(0.948541 0.00201488 0.00101606)
(0.947993 0.00167488 0.00080968)
(0.94698 0.00122434 0.000313802)
(0.946626 0.00076052 2.77398e-05)
(0.94596 0.000366172 -9.74894e-05)
(0.945472 0.000308077 -0.000550035)
(0.944355 0.000411067 -0.00112113)
(0.943918 0.00059744 -0.00120564)
(0.943745 0.000802022 -0.00119629)
(0.943944 0.00106114 -0.00149815)
(0.9438 0.00130688 -0.00166118)
(0.944415 0.00146548 -0.00157653)
(0.944793 0.00165116 -0.0016296)
(0.944847 0.00196813 -0.00203173)
(0.944876 0.00215456 -0.00251685)
(0.945415 0.00236899 -0.0027058)
(0.945907 0.00244873 -0.00293726)
(0.947002 0.00253564 -0.00308786)
(0.947671 0.00263363 -0.00294097)
(0.948657 0.00296259 -0.00272377)
(0.949321 0.0030714 -0.00252692)
(0.950245 0.00301072 -0.00254816)
(0.950093 0.00297761 -0.00293948)
(0.950197 0.0031659 -0.00321767)
(0.949858 0.00327487 -0.00311431)
(0.949975 0.00336029 -0.00283503)
(0.950079 0.00322335 -0.00283181)
(0.950842 0.00311317 -0.00279101)
(0.951435 0.00291322 -0.00289739)
(0.95204 0.00283552 -0.00296283)
(0.952185 0.00278526 -0.00287441)
(0.952625 0.00267276 -0.00275638)
(0.95275 0.00250307 -0.00261725)
(0.952993 0.00242587 -0.00238096)
(0.936183 0.00270425 -0.00163593)
(0.935956 0.00272294 -0.00109748)
(0.935228 0.00264681 -0.000418061)
(0.935045 0.00253107 0.000436885)
(0.934909 0.00231262 0.000927113)
(0.935269 0.00222173 0.00117246)
(0.934877 0.00209306 0.00122122)
(0.934605 0.00185176 0.00132066)
(0.933702 0.00142079 0.00124036)
(0.933426 0.00113194 0.00120818)
(0.932915 0.000923424 0.00106142)
(0.93265 0.000988517 0.000629055)
(0.931998 0.00106773 0.000221578)
(0.932558 0.00130773 4.56559e-05)
(0.933263 0.00161576 -0.00040558)
(0.934131 0.00199404 -0.000978479)
(0.934689 0.0021322 -0.00114784)
(0.935693 0.00220984 -0.00127878)
(0.935754 0.00231403 -0.00192759)
(0.935882 0.00273389 -0.00253842)
(0.936161 0.00304932 -0.00276783)
(0.937175 0.00324743 -0.0023069)
(0.937927 0.00329043 -0.00206569)
(0.938934 0.00343827 -0.00195492)
(0.939335 0.00355573 -0.00194702)
(0.939887 0.00373158 -0.00211168)
(0.93984 0.00359961 -0.0024361)
(0.939642 0.00351061 -0.00270336)
(0.938409 0.00349674 -0.00312374)
(0.93804 0.00358604 -0.0032442)
(0.937812 0.00351452 -0.0028749)
(0.93829 0.00340845 -0.00233636)
(0.938716 0.00310945 -0.00226812)
(0.939273 0.0029506 -0.00229044)
(0.938971 0.0027391 -0.00263198)
(0.938717 0.00272854 -0.00271716)
(0.938282 0.00275406 -0.00263781)
(0.937988 0.00269918 -0.00232242)
(0.937314 0.00256721 -0.00211514)
(0.936876 0.00261632 -0.00180599)
(0.918626 0.00319408 -0.000258426)
(0.918595 0.00311561 0.000580722)
(0.918459 0.00303309 0.00126806)
(0.91897 0.00297175 0.00193731)
(0.919494 0.00276747 0.00194292)
(0.920209 0.00271864 0.00200995)
(0.920513 0.0026153 0.00227656)
(0.920935 0.00239542 0.0028045)
(0.920848 0.00209127 0.00296323)
(0.920978 0.00192242 0.00292772)
(0.920882 0.00180682 0.00267418)
(0.920859 0.00184979 0.00229888)
(0.920515 0.00188682 0.00205464)
(0.921092 0.00206976 0.00169774)
(0.921987 0.00234377 0.000661317)
(0.923471 0.00266337 -0.000534707)
(0.924811 0.0026921 -0.000994518)
(0.925853 0.00275493 -0.00143697)
(0.92623 0.00296845 -0.00206042)
(0.927086 0.00335837 -0.00204653)
(0.928195 0.00352224 -0.00156509)
(0.929636 0.00357396 -0.000796539)
(0.930942 0.00359196 -0.000368888)
(0.931751 0.00379896 -0.000159933)
(0.931537 0.00392212 -0.000291391)
(0.930634 0.00397268 -0.00061048)
(0.928889 0.00374777 -0.00106126)
(0.926694 0.00362652 -0.00134429)
(0.924681 0.00356498 -0.0017648)
(0.92395 0.00352465 -0.00212154)
(0.92366 0.00337212 -0.00222661)
(0.924151 0.00318888 -0.00191374)
(0.924483 0.00298447 -0.00173616)
(0.923931 0.00304977 -0.00151321)
(0.922726 0.00307369 -0.00150457)
(0.921801 0.00317507 -0.00123369)
(0.921228 0.00315349 -0.000959467)
(0.920408 0.00308332 -0.000551984)
(0.91936 0.00302858 -0.000668828)
(0.9188 0.00317 -0.000541667)
(0.901979 0.0027639 0.00219115)
(0.901987 0.00273806 0.00287179)
(0.902573 0.00278949 0.00321522)
(0.903519 0.00283242 0.00353615)
(0.905047 0.00272903 0.00344848)
(0.906119 0.00279715 0.00367269)
(0.907129 0.00282883 0.00397175)
(0.907865 0.00281575 0.00418355)
(0.908885 0.00272653 0.00389775)
(0.909137 0.00275002 0.00371454)
(0.909331 0.00283117 0.00370417)
(0.908769 0.00299592 0.00391444)
(0.908434 0.00305546 0.00420478)
(0.908159 0.00309305 0.00401811)
(0.909243 0.00320156 0.00287875)
(0.910866 0.00333285 0.00176437)
(0.91303 0.00330628 0.0015126)
(0.913949 0.00338365 0.000936845)
(0.915542 0.00358274 0.000247011)
(0.916906 0.00383696 0.000471676)