/*--------------------------------*- C++ -*----------------------------------*\
  =========                 |
  \\      /  F ield         | OpenFOAM: The Open Source CFD Toolbox
   \\    /   O peration     | Website:  https://openfoam.org
    \\  /    A nd           | Version:  10
     \\/     M anipulation  |
\*---------------------------------------------------------------------------*/
FoamFile
{
    format      ascii;
    class       volScalarField;
    location    "40";
    object      nut;
}
// * * * * * * * * * * * * * * * * * * * * * * * * * * * * * * * * * * * * * //

dimensions      [0 2 -1 0 0 0 0];

internalField   nonuniform List<scalar> 
25600
(
1.88746e-08
1.59178e-08
1.72551e-08
1.42965e-08
2.77225e-08
1.41719e-08
2.2712e-08
3.28117e-08
1.53732e-08
6.67284e-08
8.47923e-09
4.0781e-08
2.02305e-08
4.0264e-08
4.52546e-09
2.82533e-08
2.50902e-08
1.65032e-08
5.09411e-08
3.96309e-09
4.52911e-08
6.70483e-09
2.01281e-08
2.37982e-08
7.40126e-09
2.18569e-08
1.7615e-08
1.71895e-08
1.15434e-08
4.13709e-08
1.40049e-08
2.67604e-08
2.96651e-08
3.87201e-08
3.76343e-08
2.16408e-08
1.22284e-08
1.89438e-08
1.0768e-08
1.74056e-08
1.68915e-08
1.93267e-08
4.96224e-09
2.02958e-08
9.58678e-09
7.72382e-09
3.2397e-08
5.72371e-09
1.09739e-08
1.64145e-08
2.07466e-09
3.17422e-08
3.88465e-09
3.62472e-08
5.24573e-09
1.21567e-08
1.74502e-08
2.87212e-09
5.88652e-08
4.23429e-09
5.34003e-08
1.53449e-09
1.18533e-08
2.54389e-08
5.88493e-09
1.61395e-08
8.79438e-09
2.34849e-08
8.65474e-09
3.00261e-08
7.1986e-09
2.18626e-08
1.48957e-08
5.40217e-09
1.85364e-08
1.21086e-08
8.18546e-09
1.34699e-08
1.46171e-08
8.10097e-09
1.20691e-08
2.2021e-08
2.08486e-09
3.82674e-08
3.29129e-09
6.43218e-09
2.71805e-08
3.41098e-09
1.78474e-08
7.40887e-09
8.07456e-09
1.03317e-08
1.48034e-09
2.73303e-08
5.92831e-09
1.75568e-08
1.35304e-08
2.61944e-09
4.02085e-08
2.70483e-09
4.06142e-08
2.48967e-09
1.23526e-08
2.32025e-08
6.7342e-09
1.13399e-08
8.70262e-09
2.62371e-08
6.37529e-09
3.29986e-08
1.98678e-09
1.83349e-08
1.13134e-08
7.28494e-09
2.33827e-08
4.43171e-09
1.00084e-08
3.71734e-09
1.6841e-08
2.63073e-09
9.75288e-09
1.81133e-08
1.89646e-09
3.80091e-08
3.26125e-09
7.22419e-09
1.85531e-08
2.37367e-09
1.98976e-08
7.66674e-09
1.87435e-08
6.49112e-09
3.86382e-09
1.09406e-08
7.4492e-09
1.95198e-08
1.23162e-08
7.88217e-09
1.63321e-08
3.59907e-09
2.32424e-08
7.09651e-09
1.11957e-08
2.05866e-08
9.31264e-09
8.28468e-09
1.10027e-08
2.54436e-08
6.71725e-09
3.43447e-08
3.01793e-09
1.89008e-08
1.28922e-08
7.27212e-09
2.89531e-08
4.43283e-09
1.31165e-08
1.23402e-09
1.93167e-08
1.79388e-09
8.73343e-09
1.58078e-08
2.61091e-09
2.89796e-08
4.16568e-09
1.16099e-08
1.51751e-08
2.07984e-09
1.69985e-08
8.80266e-09
2.16516e-08
8.19053e-09
1.32354e-08
3.29992e-09
8.45577e-09
1.71982e-08
1.06373e-08
1.77338e-08
5.54253e-09
7.62789e-09
1.25204e-08
1.14628e-08
1.06503e-08
1.78753e-08
1.43609e-08
7.64494e-09
1.52386e-08
2.16244e-08
8.02318e-09
3.2013e-08
7.51061e-09
2.26113e-08
1.61653e-08
8.91844e-09
2.78156e-08
5.61011e-09
1.46505e-08
3.10928e-09
1.7137e-08
2.52826e-09
8.1087e-09
1.49022e-08
5.02912e-09
1.9198e-08
5.4141e-09
1.54034e-08
1.43862e-08
6.73578e-09
1.30171e-08
9.84863e-09
2.15931e-08
9.01816e-09
2.01543e-08
4.17804e-09
9.42764e-09
1.41548e-08
7.76822e-09
2.61758e-08
5.30472e-09
1.50249e-08
7.07554e-09
1.31492e-08
1.04269e-08
1.67119e-08
2.01462e-08
8.04404e-09
2.32485e-08
1.7245e-08
1.16867e-08
2.85503e-08
1.23731e-08
2.80533e-08
1.75535e-08
1.21848e-08
2.65742e-08
7.5923e-09
1.84129e-08
6.43816e-09
1.5679e-08
4.56278e-09
2.48399e-08
2.21972e-08
2.81458e-08
2.54434e-08
1.82023e-08
3.60411e-08
1.41249e-08
3.2979e-08
2.3699e-08
2.02229e-08
3.90034e-08
1.00456e-08
4.15505e-08
1.84248e-08
2.49854e-08
3.1341e-08
1.24499e-08
4.36973e-08
1.54461e-08
3.5705e-08
1.8009e-08
3.2046e-08
2.20939e-08
2.65195e-08
4.07833e-08
5.26286e-09
4.93509e-08
1.89043e-08
2.6201e-08
4.47861e-08
3.47603e-09
5.21048e-08
2.00076e-08
2.53896e-08
4.4217e-08
4.3287e-09
4.08939e-08
2.29203e-08
2.30065e-08
2.72834e-08
3.39588e-07
3.38452e-07
3.49429e-07
3.38097e-07
3.39533e-07
3.53035e-07
3.27214e-07
3.56196e-07
3.35273e-07
3.39382e-07
3.54654e-07
3.25096e-07
3.58324e-07
3.3298e-07
3.44523e-07
3.47374e-07
3.31407e-07
3.56017e-07
3.30103e-07
3.52901e-07
3.32168e-07
3.53862e-07
3.32457e-07
3.44466e-07
3.55111e-07
3.17438e-07
3.70357e-07
3.24605e-07
3.43604e-07
3.60012e-07
3.13038e-07
3.72263e-07
3.25456e-07
3.41418e-07
3.60584e-07
3.18275e-07
3.59733e-07
3.38916e-07
3.36191e-07
3.50215e-07
3.30445e-06
3.31254e-06
3.31949e-06
3.30632e-06
3.31366e-06
3.32045e-06
3.29889e-06
3.32784e-06
3.30248e-06
3.31471e-06
3.31941e-06
3.30212e-06
3.32306e-06
3.3083e-06
3.31273e-06
3.31859e-06
3.30495e-06
3.32294e-06
3.30515e-06
3.32105e-06
3.3046e-06
3.32657e-06
3.29921e-06
3.32312e-06
3.31682e-06
3.29785e-06
3.33534e-06
3.29778e-06
3.31557e-06
3.32824e-06
3.28705e-06
3.34207e-06
3.2942e-06
3.31618e-06
3.32574e-06
3.29462e-06
3.32551e-06
3.31388e-06
3.30146e-06
3.32696e-06
1.72861e-05
1.7315e-05
1.73044e-05
1.73018e-05
1.73083e-05
1.73076e-05
1.72985e-05
1.73161e-05
1.72965e-05
1.73126e-05
1.73037e-05
1.73082e-05
1.73036e-05
1.73147e-05
1.72967e-05
1.73197e-05
1.72965e-05
1.73159e-05
1.73047e-05
1.73073e-05
1.73082e-05
1.73133e-05
1.72957e-05
1.73231e-05
1.72965e-05
1.73113e-05
1.73099e-05
1.73048e-05
1.73041e-05
1.7318e-05
1.72883e-05
1.73271e-05
1.72897e-05
1.73131e-05
1.73077e-05
1.73003e-05
1.7305e-05
1.73169e-05
1.7284e-05
1.73291e-05
4.85723e-05
4.86212e-05
4.85874e-05
4.8606e-05
4.86001e-05
4.86007e-05
4.86009e-05
4.86038e-05
4.85988e-05
4.86054e-05
4.85989e-05
4.86079e-05
4.85936e-05
4.86174e-05
4.85842e-05
4.86242e-05
4.85827e-05
4.86188e-05
4.85953e-05
4.86006e-05
4.86109e-05
4.85935e-05
4.86056e-05
4.86046e-05
4.85942e-05
4.86093e-05
4.85924e-05
4.8609e-05
4.85902e-05
4.86106e-05
4.85879e-05
4.86101e-05
4.85911e-05
4.86019e-05
4.86002e-05
4.85969e-05
4.85952e-05
4.86128e-05
4.85758e-05
4.86278e-05
8.76848e-05
8.77296e-05
8.76903e-05
8.77211e-05
8.76996e-05
8.77148e-05
8.77042e-05
8.7711e-05
8.77089e-05
8.77056e-05
8.77135e-05
8.77043e-05
8.77085e-05
8.77141e-05
8.76956e-05
8.77253e-05
8.76863e-05
8.77286e-05
8.76885e-05
8.77179e-05
8.77024e-05
8.77027e-05
8.7713e-05
8.76944e-05
8.77179e-05
8.76915e-05
8.77142e-05
8.77022e-05
8.76978e-05
8.77182e-05
8.76877e-05
8.77192e-05
8.76973e-05
8.77027e-05
8.77167e-05
8.76903e-05
8.77179e-05
8.77043e-05
8.76972e-05
8.77257e-05
0.00012244
0.000122461
0.000122437
0.00012246
0.000122438
0.000122462
0.000122434
0.000122461
0.000122441
0.000122446
0.000122457
0.000122432
0.00012246
0.000122439
0.000122445
0.000122453
0.000122433
0.00012246
0.000122429
0.000122462
0.000122428
0.000122461
0.000122433
0.000122448
0.000122457
0.00012242
0.000122477
0.000122419
0.000122459
0.000122452
0.000122425
0.000122475
0.000122425
0.000122456
0.000122459
0.000122424
0.000122478
0.000122426
0.00012246
0.00012245
0.000150195
0.000150188
0.000150187
0.00015019
0.000150182
0.000150199
0.000150169
0.000150208
0.000150169
0.000150194
0.000150192
0.000150168
0.000150209
0.000150166
0.000150197
0.000150184
0.000150181
0.000150195
0.000150177
0.000150198
0.000150173
0.000150207
0.000150165
0.000150208
0.000150182
0.000150176
0.000150219
0.000150152
0.00015022
0.000150178
0.000150179
0.000150219
0.000150157
0.000150215
0.000150185
0.000150175
0.00015022
0.000150158
0.000150216
0.000150174
0.000171571
0.000171542
0.000171563
0.000171546
0.000171556
0.000171558
0.000171539
0.000171575
0.00017153
0.00017157
0.000171549
0.000171543
0.000171576
0.000171528
0.000171578
0.000171541
0.00017156
0.000171559
0.00017155
0.000171565
0.000171547
0.000171573
0.000171538
0.000171579
0.000171545
0.000171558
0.000171576
0.00017153
0.000171589
0.000171538
0.00017156
0.000171575
0.000171529
0.000171586
0.00017154
0.000171557
0.000171571
0.000171531
0.00017158
0.000171533
0.000187472
0.000187441
0.000187472
0.000187441
0.000187468
0.000187453
0.000187452
0.000187473
0.000187438
0.000187478
0.000187447
0.00018746
0.000187473
0.00018744
0.000187486
0.00018744
0.000187478
0.000187456
0.000187463
0.000187468
0.000187455
0.000187476
0.000187447
0.000187481
0.00018745
0.000187466
0.000187472
0.000187442
0.000187485
0.000187443
0.000187466
0.000187469
0.000187441
0.00018748
0.000187443
0.000187464
0.000187461
0.000187446
0.000187471
0.000187441
0.000198831
0.000198813
0.000198839
0.000198809
0.00019884
0.000198816
0.000198829
0.000198834
0.000198816
0.000198843
0.000198817
0.000198836
0.000198833
0.00019882
0.000198849
0.000198811
0.00019885
0.000198818
0.000198839
0.000198829
0.000198827
0.00019884
0.000198817
0.000198844
0.000198818
0.000198832
0.000198834
0.000198813
0.000198844
0.000198812
0.00019883
0.00019883
0.000198811
0.000198838
0.000198813
0.000198826
0.000198825
0.000198818
0.000198828
0.000198818
0.000206483
0.000206478
0.000206492
0.000206472
0.000206498
0.000206475
0.000206491
0.000206487
0.000206482
0.000206495
0.00020648
0.000206493
0.000206487
0.000206484
0.000206497
0.000206474
0.000206503
0.000206473
0.000206498
0.000206479
0.000206487
0.000206489
0.000206475
0.000206494
0.000206474
0.000206484
0.000206486
0.000206469
0.000206493
0.000206469
0.000206483
0.000206483
0.000206469
0.000206489
0.000206472
0.000206479
0.000206483
0.000206475
0.000206483
0.00020648
0.000211135
0.000211136
0.000211141
0.00021113
0.000211148
0.000211131
0.000211145
0.000211138
0.000211138
0.000211143
0.000211137
0.000211142
0.000211139
0.000211137
0.000211143
0.00021113
0.000211148
0.000211125
0.000211147
0.000211127
0.000211139
0.000211134
0.000211128
0.00021114
0.000211126
0.000211132
0.000211136
0.000211121
0.000211141
0.000211122
0.000211133
0.000211134
0.000211123
0.000211139
0.000211127
0.000211131
0.000211138
0.000211128
0.000211138
0.000211134
0.000213378
0.000213378
0.000213381
0.000213374
0.000213385
0.000213374
0.000213383
0.000213378
0.000213379
0.00021338
0.000213378
0.000213377
0.000213379
0.000213375
0.000213379
0.000213371
0.000213381
0.000213365
0.000213382
0.000213364
0.000213377
0.00021337
0.000213368
0.000213375
0.000213366
0.00021337
0.000213374
0.000213361
0.000213379
0.000213363
0.000213373
0.000213373
0.000213366
0.000213379
0.00021337
0.000213373
0.000213379
0.000213369
0.000213381
0.000213375
0.000213698
0.000213696
0.000213699
0.000213694
0.000213701
0.000213693
0.000213699
0.000213695
0.000213695
0.000213695
0.000213695
0.000213691
0.000213696
0.000213689
0.000213694
0.000213688
0.000213695
0.000213684
0.000213696
0.000213682
0.000213693
0.000213686
0.000213687
0.00021369
0.000213686
0.000213687
0.000213693
0.000213681
0.000213697
0.000213684
0.000213693
0.000213692
0.000213688
0.000213697
0.000213691
0.000213693
0.000213699
0.00021369
0.0002137
0.000213694
0.000212498
0.000212495
0.000212498
0.000212493
0.000212499
0.000212492
0.000212497
0.000212494
0.000212493
0.000212493
0.000212493
0.000212489
0.000212494
0.000212487
0.000212493
0.000212486
0.000212492
0.000212484
0.000212493
0.000212483
0.000212492
0.000212486
0.000212489
0.00021249
0.000212488
0.000212488
0.000212494
0.000212484
0.000212498
0.000212486
0.000212495
0.000212494
0.000212491
0.000212497
0.000212494
0.000212494
0.000212499
0.000212492
0.000212501
0.000212494
0.00021011
0.000210107
0.00021011
0.000210105
0.00021011
0.000210104
0.000210107
0.000210105
0.000210104
0.000210104
0.000210104
0.000210101
0.000210106
0.000210098
0.000210105
0.000210098
0.000210104
0.000210098
0.000210105
0.000210097
0.000210105
0.000210099
0.000210103
0.000210103
0.000210103
0.000210102
0.000210108
0.000210099
0.000210112
0.000210101
0.000210109
0.000210107
0.000210106
0.00021011
0.000210108
0.000210107
0.000210112
0.000210105
0.000210113
0.000210106
0.000206804
0.0002068
0.000206803
0.000206797
0.000206803
0.000206797
0.0002068
0.000206798
0.000206797
0.000206797
0.000206797
0.000206794
0.000206799
0.000206793
0.000206799
0.000206793
0.000206799
0.000206793
0.000206799
0.000206793
0.0002068
0.000206795
0.000206799
0.000206798
0.000206799
0.000206798
0.000206803
0.000206795
0.000206807
0.000206797
0.000206804
0.000206802
0.000206801
0.000206804
0.000206803
0.000206801
0.000206806
0.000206799
0.000206806
0.0002068
0.000202797
0.000202793
0.000202796
0.000202791
0.000202796
0.00020279
0.000202794
0.000202791
0.000202791
0.000202791
0.000202792
0.000202789
0.000202793
0.000202788
0.000202794
0.000202788
0.000202794
0.000202789
0.000202795
0.000202789
0.000202795
0.000202791
0.000202794
0.000202794
0.000202795
0.000202793
0.000202799
0.000202791
0.000202801
0.000202792
0.000202799
0.000202796
0.000202796
0.000202798
0.000202797
0.000202795
0.000202799
0.000202793
0.000202799
0.000202793
0.000198267
0.000198263
0.000198267
0.000198262
0.000198267
0.000198261
0.000198265
0.000198262
0.000198263
0.000198262
0.000198263
0.000198261
0.000198265
0.00019826
0.000198266
0.00019826
0.000198266
0.000198261
0.000198267
0.000198262
0.000198267
0.000198264
0.000198267
0.000198266
0.000198267
0.000198266
0.00019827
0.000198264
0.000198272
0.000198264
0.00019827
0.000198267
0.000198268
0.000198268
0.000198268
0.000198266
0.00019827
0.000198263
0.000198269
0.000198264
0.000193357
0.000193354
0.000193357
0.000193352
0.000193357
0.000193352
0.000193356
0.000193353
0.000193354
0.000193354
0.000193355
0.000193352
0.000193357
0.000193352
0.000193357
0.000193353
0.000193358
0.000193354
0.000193359
0.000193354
0.000193359
0.000193356
0.000193359
0.000193358
0.000193359
0.000193357
0.000193362
0.000193355
0.000193363
0.000193355
0.000193361
0.000193358
0.000193358
0.000193359
0.000193359
0.000193356
0.00019336
0.000193354
0.00019336
0.000193354
0.000188182
0.000188179
0.000188181
0.000188177
0.000188182
0.000188177
0.000188181
0.000188178
0.000188179
0.000188179
0.00018818
0.000188178
0.000188182
0.000188177
0.000188183
0.000188178
0.000188183
0.000188179
0.000188184
0.00018818
0.000188185
0.000188181
0.000188184
0.000188183
0.000188184
0.000188182
0.000188186
0.00018818
0.000188188
0.00018818
0.000188186
0.000188183
0.000188183
0.000188183
0.000188183
0.00018818
0.000188185
0.000188178
0.000188184
0.000188178
0.000182835
0.000182833
0.000182835
0.000182831
0.000182836
0.000182831
0.000182835
0.000182833
0.000182834
0.000182833
0.000182835
0.000182832
0.000182837
0.000182832
0.000182837
0.000182833
0.000182838
0.000182834
0.000182838
0.000182835
0.000182839
0.000182836
0.000182838
0.000182837
0.000182838
0.000182836
0.000182841
0.000182834
0.000182842
0.000182834
0.000182839
0.000182837
0.000182836
0.000182837
0.000182837
0.000182833
0.000182839
0.000182832
0.000182837
0.000182833
0.000177365
0.000177363
0.000177366
0.000177361
0.000177367
0.000177362
0.000177365
0.000177364
0.000177364
0.000177364
0.000177366
0.000177363
0.000177368
0.000177363
0.000177368
0.000177365
0.000177368
0.000177365
0.000177369
0.000177365
0.00017737
0.000177367
0.000177369
0.000177368
0.000177369
0.000177366
0.000177372
0.000177364
0.000177372
0.000177365
0.000177368
0.000177368
0.000177366
0.000177366
0.000177368
0.000177363
0.000177369
0.000177362
0.000177367
0.000177363
0.000171999
0.000171997
0.000172
0.000171995
0.000172001
0.000171996
0.000171999
0.000171998
0.000171999
0.000171998
0.000172001
0.000171996
0.000172003
0.000171998
0.000172002
0.000172
0.000172002
0.000172
0.000172004
0.000172
0.000172004
0.000172001
0.000172002
0.000172002
0.000172004
0.000171999
0.000172006
0.000171998
0.000172005
0.000172
0.000172001
0.000172002
0.000172
0.000171999
0.000172003
0.000171996
0.000172003
0.000171996
0.000172
0.000171998
0.000165681
0.000165678
0.000165684
0.000165677
0.000165682
0.00016568
0.00016568
0.000165681
0.000165682
0.000165679
0.000165685
0.000165678
0.000165684
0.000165681
0.000165683
0.000165682
0.000165684
0.000165682
0.000165686
0.000165682
0.000165685
0.000165684
0.000165684
0.000165683
0.000165687
0.00016568
0.000165689
0.00016568
0.000165685
0.000165685
0.000165681
0.000165684
0.000165683
0.000165679
0.000165687
0.000165677
0.000165684
0.00016568
0.00016568
0.000165681
1.80286e-08
1.63826e-08
1.4878e-08
1.18035e-08
2.56141e-08
1.21822e-08
2.28972e-08
2.56956e-08
1.06625e-08
4.73792e-08
9.67442e-09
3.78264e-08
1.45649e-08
3.4127e-08
4.90676e-09
2.64131e-08
2.18801e-08
1.12427e-08
4.9198e-08
5.52083e-09
4.48406e-08
9.38934e-09
1.62382e-08
2.11828e-08
6.93092e-09
1.74533e-08
1.60965e-08
1.3568e-08
9.97806e-09
2.67092e-08
1.80852e-08
2.46202e-08
2.19373e-08
2.78763e-08
2.63702e-08
2.52152e-08
9.85808e-09
2.13539e-08
1.13165e-08
1.31674e-08
1.86537e-08
1.90342e-08
4.50713e-09
2.12444e-08
9.32523e-09
7.4311e-09
3.01454e-08
4.7085e-09
9.34377e-09
1.12215e-08
4.14823e-09
2.58746e-08
2.50397e-09
3.69626e-08
4.57722e-09
1.79383e-08
1.10214e-08
2.07038e-09
5.37003e-08
4.2088e-09
5.38245e-08
2.03492e-09
1.34986e-08
2.24323e-08
6.38443e-09
1.414e-08
8.93589e-09
2.27578e-08
7.14127e-09
2.91308e-08
6.8878e-09
2.41301e-08
1.37814e-08
7.55847e-09
1.63735e-08
1.09142e-08
8.41126e-09
1.07372e-08
1.66267e-08
6.64417e-09
1.39346e-08
1.95615e-08
2.10433e-09
3.75528e-08
3.60238e-09
5.74134e-09
2.54337e-08
2.63837e-09
1.81886e-08
6.51814e-09
1.21389e-08
6.73775e-09
1.74925e-09
2.4525e-08
5.15755e-09
2.22419e-08
1.07663e-08
3.87686e-09
3.28991e-08
2.76416e-09
4.11256e-08
3.04839e-09
1.56113e-08
2.00552e-08
7.45338e-09
9.42806e-09
8.97146e-09
2.77201e-08
6.35629e-09
3.85863e-08
2.51672e-09
2.39052e-08
9.05673e-09
8.89913e-09
2.36307e-08
4.23223e-09
1.20013e-08
2.52039e-09
2.11059e-08
2.29035e-09
1.09402e-08
1.69629e-08
2.11744e-09
3.66493e-08
3.35347e-09
7.33709e-09
1.75824e-08
1.54703e-09
1.87464e-08
6.6666e-09
1.97685e-08
6.23292e-09
7.58069e-09
6.60556e-09
6.22521e-09
2.03103e-08
1.08991e-08
1.32363e-08
1.14416e-08
3.47001e-09
2.26819e-08
5.46156e-09
1.45622e-08
1.78916e-08
1.12196e-08
6.9832e-09
1.1135e-08
2.69265e-08
6.9663e-09
4.00575e-08
3.14342e-09
2.35734e-08
9.29923e-09
7.90637e-09
3.01535e-08
4.01173e-09
1.56746e-08
1.44253e-09
2.16896e-08
1.85084e-09
8.88411e-09
1.61601e-08
3.31011e-09
2.72008e-08
4.07784e-09
1.14776e-08
1.49269e-08
2.17511e-09
1.43551e-08
7.7569e-09
2.00164e-08
7.89926e-09
1.62312e-08
2.5359e-09
7.72886e-09
1.53864e-08
9.24444e-09
2.34035e-08
5.50237e-09
9.27822e-09
1.01762e-08
8.27425e-09
1.29308e-08
1.63711e-08
1.72196e-08
7.77666e-09
1.57333e-08
2.25372e-08
8.18506e-09
3.57797e-08
7.3021e-09
2.57047e-08
1.47978e-08
9.3627e-09
3.14374e-08
5.00448e-09
1.74936e-08
3.23733e-09
1.80336e-08
2.61896e-09
8.10871e-09
1.57013e-08
6.50135e-09
1.71458e-08
5.17281e-09
1.43792e-08
1.44571e-08
7.95826e-09
1.08636e-08
9.3705e-09
1.83101e-08
8.31342e-09
2.1561e-08
3.62217e-09
1.1147e-08
1.04702e-08
6.40887e-09
2.97739e-08
5.56786e-09
1.94821e-08
5.43928e-09
1.09178e-08
1.11863e-08
1.60878e-08
2.25305e-08
9.10048e-09
2.4033e-08
1.81092e-08
1.16098e-08
3.12413e-08
1.23785e-08
3.07218e-08
1.82101e-08
1.25068e-08
3.10357e-08
6.77238e-09
2.11768e-08
6.74187e-09
1.59545e-08
5.31563e-09
2.33842e-08
2.2994e-08
2.9284e-08
2.29595e-08
2.0481e-08
3.38901e-08
1.50225e-08
3.37959e-08
2.09215e-08
2.31339e-08
3.4979e-08
1.11357e-08
4.13868e-08
1.57349e-08
3.01024e-08
2.66358e-08
1.37959e-08
4.42338e-08
1.35513e-08
4.04095e-08
1.46523e-08
3.32967e-08
2.20453e-08
2.48584e-08
4.28168e-08
4.4098e-09
5.04577e-08
1.9191e-08
2.53228e-08
4.67446e-08
3.55689e-09
5.42733e-08
2.12002e-08
2.47033e-08
4.76216e-08
3.48555e-09
4.30665e-08
2.33435e-08
2.17985e-08
2.91566e-08
3.35631e-07
3.37268e-07
3.47996e-07
3.33901e-07
3.40426e-07
3.48332e-07
3.2674e-07
3.54305e-07
3.31199e-07
3.41011e-07
3.48549e-07
3.26457e-07
3.55429e-07
3.28739e-07
3.47212e-07
3.40375e-07
3.33066e-07
3.53094e-07
3.26165e-07
3.5489e-07
3.26204e-07
3.5443e-07
3.30049e-07
3.4099e-07
3.5542e-07
3.13072e-07
3.69962e-07
3.22007e-07
3.40758e-07
3.59696e-07
3.08847e-07
3.71875e-07
3.23192e-07
3.3762e-07
3.61728e-07
3.12734e-07
3.59953e-07
3.36472e-07
3.32683e-07
3.50268e-07
3.2901e-06
3.29979e-06
3.30725e-06
3.291e-06
3.30397e-06
3.30418e-06
3.28891e-06
3.31346e-06
3.28989e-06
3.30349e-06
3.30457e-06
3.29154e-06
3.31006e-06
3.29344e-06
3.30455e-06
3.30076e-06
3.29651e-06
3.30818e-06
3.29163e-06
3.31085e-06
3.28841e-06
3.3158e-06
3.28568e-06
3.30853e-06
3.30595e-06
3.28176e-06
3.32415e-06
3.28294e-06
3.30212e-06
3.31548e-06
3.27215e-06
3.32938e-06
3.28061e-06
3.30074e-06
3.31545e-06
3.27718e-06
3.31502e-06
3.29891e-06
3.28786e-06
3.31469e-06
1.72508e-05
1.72775e-05
1.727e-05
1.72633e-05
1.72756e-05
1.72682e-05
1.72667e-05
1.72764e-05
1.72646e-05
1.72736e-05
1.72709e-05
1.72698e-05
1.72706e-05
1.72747e-05
1.72654e-05
1.72783e-05
1.72642e-05
1.72764e-05
1.72687e-05
1.72709e-05
1.72697e-05
1.72766e-05
1.72585e-05
1.72836e-05
1.72613e-05
1.727e-05
1.72751e-05
1.72635e-05
1.72685e-05
1.72781e-05
1.72513e-05
1.72883e-05
1.72527e-05
1.72736e-05
1.72728e-05
1.72595e-05
1.7271e-05
1.72773e-05
1.72489e-05
1.72913e-05
4.85288e-05
4.85736e-05
4.85441e-05
4.85585e-05
4.85562e-05
4.85536e-05
4.85566e-05
4.85554e-05
4.85562e-05
4.85541e-05
4.85581e-05
4.85545e-05
4.85532e-05
4.85634e-05
4.85428e-05
4.85711e-05
4.85387e-05
4.85679e-05
4.85484e-05
4.85518e-05
4.85624e-05
4.85447e-05
4.85576e-05
4.85548e-05
4.85475e-05
4.85586e-05
4.85473e-05
4.85571e-05
4.85468e-05
4.85586e-05
4.85446e-05
4.85598e-05
4.85465e-05
4.85538e-05
4.85552e-05
4.85498e-05
4.85503e-05
4.85663e-05
4.85312e-05
4.8581e-05
8.76513e-05
8.76965e-05
8.76586e-05
8.7686e-05
8.76675e-05
8.76805e-05
8.76691e-05
8.76784e-05
8.76725e-05
8.76713e-05
8.76794e-05
8.76658e-05
8.76785e-05
8.76717e-05
8.76675e-05
8.7683e-05
8.76561e-05
8.76898e-05
8.76551e-05
8.76822e-05
8.76677e-05
8.76679e-05
8.76791e-05
8.76598e-05
8.76847e-05
8.76578e-05
8.76817e-05
8.76681e-05
8.76676e-05
8.76824e-05
8.76601e-05
8.76826e-05
8.767e-05
8.76675e-05
8.76876e-05
8.76576e-05
8.76857e-05
8.76741e-05
8.76629e-05
8.76954e-05
0.000122417
0.000122445
0.000122417
0.00012244
0.00012242
0.00012244
0.000122414
0.000122442
0.000122417
0.000122431
0.000122432
0.000122417
0.000122438
0.000122418
0.00012243
0.000122428
0.000122421
0.000122437
0.000122414
0.000122442
0.000122411
0.000122443
0.000122417
0.000122429
0.000122442
0.000122403
0.000122461
0.000122404
0.000122441
0.000122437
0.00012241
0.000122457
0.000122412
0.000122434
0.000122447
0.000122402
0.000122463
0.000122408
0.00012244
0.000122435
0.000150183
0.000150182
0.000150175
0.000150182
0.000150173
0.000150188
0.000150162
0.000150198
0.000150158
0.000150189
0.000150177
0.000150168
0.000150194
0.000150163
0.000150189
0.000150175
0.000150178
0.000150184
0.000150173
0.00015019
0.000150167
0.000150201
0.00015016
0.000150199
0.000150179
0.000150167
0.000150215
0.000150146
0.000150211
0.000150176
0.000150168
0.000150215
0.000150149
0.000150205
0.000150182
0.000150161
0.000150217
0.000150145
0.000150208
0.000150166
0.000171569
0.000171542
0.00017156
0.000171545
0.000171555
0.000171555
0.00017154
0.000171572
0.00017153
0.000171572
0.000171544
0.00017155
0.000171569
0.000171535
0.000171575
0.000171543
0.000171562
0.000171558
0.000171552
0.000171566
0.000171547
0.000171575
0.000171538
0.000171579
0.000171548
0.000171555
0.00017158
0.000171527
0.000171589
0.000171541
0.000171554
0.00017158
0.000171524
0.000171586
0.00017154
0.000171551
0.000171575
0.000171525
0.000171582
0.00017153
0.000187476
0.000187446
0.000187476
0.000187447
0.000187474
0.000187456
0.00018746
0.000187476
0.000187445
0.000187485
0.00018745
0.000187471
0.000187472
0.000187451
0.000187488
0.000187448
0.000187484
0.000187461
0.00018747
0.000187474
0.000187458
0.000187484
0.00018745
0.000187487
0.000187455
0.000187469
0.00018748
0.000187444
0.000187491
0.000187449
0.000187467
0.000187478
0.00018744
0.000187488
0.000187445
0.000187467
0.000187468
0.000187447
0.000187478
0.000187444
0.00019884
0.000198823
0.000198847
0.000198819
0.00019885
0.000198824
0.000198841
0.000198841
0.000198827
0.000198853
0.000198825
0.00019885
0.000198838
0.000198834
0.000198855
0.000198822
0.00019886
0.000198826
0.000198849
0.000198839
0.000198834
0.000198851
0.000198822
0.000198855
0.000198825
0.00019884
0.000198844
0.000198819
0.000198853
0.00019882
0.000198836
0.000198842
0.000198816
0.00019885
0.000198819
0.000198836
0.000198835
0.000198825
0.000198839
0.000198825
0.000206495
0.000206491
0.000206503
0.000206485
0.00020651
0.000206486
0.000206505
0.000206497
0.000206496
0.000206507
0.000206491
0.000206508
0.000206495
0.0002065
0.000206506
0.000206488
0.000206515
0.000206483
0.000206511
0.000206491
0.000206497
0.000206503
0.000206484
0.000206508
0.000206484
0.000206496
0.000206497
0.00020648
0.000206505
0.000206481
0.000206493
0.000206497
0.000206478
0.000206504
0.000206482
0.000206492
0.000206495
0.000206486
0.000206497
0.000206491
0.00021115
0.000211151
0.000211155
0.000211146
0.000211161
0.000211145
0.00021116
0.000211151
0.000211154
0.000211156
0.000211151
0.000211157
0.00021115
0.000211155
0.000211153
0.000211146
0.000211161
0.000211138
0.000211161
0.00021114
0.000211152
0.000211149
0.000211139
0.000211155
0.000211138
0.000211147
0.000211149
0.000211135
0.000211154
0.000211137
0.000211146
0.00021115
0.000211135
0.000211156
0.000211139
0.000211147
0.000211152
0.000211142
0.000211153
0.000211148
0.000213393
0.000213394
0.000213395
0.000213391
0.0002134
0.000213389
0.000213399
0.000213392
0.000213394
0.000213394
0.000213393
0.000213393
0.000213392
0.000213392
0.000213391
0.000213387
0.000213395
0.00021338
0.000213397
0.000213379
0.000213391
0.000213385
0.000213382
0.000213391
0.00021338
0.000213386
0.000213389
0.000213377
0.000213394
0.00021338
0.000213387
0.000213391
0.00021338
0.000213396
0.000213383
0.00021339
0.000213394
0.000213385
0.000213396
0.000213391
0.000213713
0.000213713
0.000213714
0.000213711
0.000213716
0.000213709
0.000213715
0.000213711
0.000213711
0.000213711
0.000213711
0.000213708
0.00021371
0.000213707
0.000213708
0.000213705
0.000213709
0.0002137
0.000213711
0.000213698
0.000213709
0.000213702
0.000213702
0.000213707
0.000213701
0.000213704
0.000213709
0.000213698
0.000213713
0.000213701
0.000213708
0.000213711
0.000213702
0.000213715
0.000213705
0.000213711
0.000213714
0.000213707
0.000213716
0.00021371
0.000212514
0.000212513
0.000212514
0.00021251
0.000212515
0.000212509
0.000212513
0.00021251
0.000212509
0.00021251
0.000212509
0.000212506
0.000212509
0.000212505
0.000212508
0.000212504
0.000212508
0.000212501
0.000212509
0.0002125
0.000212508
0.000212503
0.000212505
0.000212507
0.000212504
0.000212506
0.000212511
0.000212501
0.000212515
0.000212504
0.000212511
0.000212512
0.000212506
0.000212516
0.000212509
0.000212512
0.000212515
0.000212509
0.000212517
0.000212511
0.000210126
0.000210124
0.000210126
0.000210122
0.000210126
0.000210121
0.000210123
0.000210122
0.00021012
0.000210121
0.00021012
0.000210118
0.000210121
0.000210116
0.00021012
0.000210116
0.00021012
0.000210115
0.000210121
0.000210115
0.000210121
0.000210117
0.000210119
0.000210121
0.000210119
0.00021012
0.000210125
0.000210116
0.000210128
0.000210119
0.000210125
0.000210126
0.000210121
0.000210128
0.000210123
0.000210125
0.000210128
0.000210122
0.000210129
0.000210123
0.000206819
0.000206817
0.000206819
0.000206815
0.000206819
0.000206814
0.000206816
0.000206815
0.000206814
0.000206814
0.000206813
0.000206812
0.000206815
0.000206811
0.000206815
0.000206811
0.000206815
0.00020681
0.000206816
0.000206811
0.000206816
0.000206813
0.000206815
0.000206816
0.000206815
0.000206815
0.00020682
0.000206812
0.000206823
0.000206814
0.00020682
0.00020682
0.000206817
0.000206822
0.000206818
0.000206819
0.000206821
0.000206816
0.000206822
0.000206817
0.000202812
0.00020281
0.000202812
0.000202808
0.000202812
0.000202807
0.00020281
0.000202808
0.000202807
0.000202808
0.000202807
0.000202806
0.000202809
0.000202805
0.000202809
0.000202806
0.00020281
0.000202806
0.000202811
0.000202807
0.000202811
0.000202809
0.00020281
0.000202811
0.000202811
0.00020281
0.000202815
0.000202808
0.000202817
0.000202809
0.000202815
0.000202814
0.000202811
0.000202815
0.000202812
0.000202812
0.000202815
0.00020281
0.000202815
0.00020281
0.000198282
0.00019828
0.000198282
0.000198279
0.000198282
0.000198278
0.000198281
0.000198279
0.000198279
0.000198279
0.000198279
0.000198278
0.00019828
0.000198277
0.000198281
0.000198278
0.000198282
0.000198278
0.000198283
0.000198279
0.000198283
0.000198281
0.000198282
0.000198283
0.000198283
0.000198282
0.000198286
0.00019828
0.000198288
0.000198281
0.000198286
0.000198284
0.000198283
0.000198285
0.000198283
0.000198283
0.000198285
0.00019828
0.000198285
0.00019828
0.000193372
0.000193371
0.000193372
0.000193369
0.000193372
0.000193368
0.000193371
0.000193369
0.00019337
0.00019337
0.00019337
0.000193369
0.000193372
0.000193369
0.000193373
0.00019337
0.000193373
0.00019337
0.000193374
0.000193371
0.000193375
0.000193373
0.000193374
0.000193374
0.000193374
0.000193374
0.000193377
0.000193371
0.000193379
0.000193372
0.000193376
0.000193375
0.000193373
0.000193375
0.000193373
0.000193373
0.000193375
0.00019337
0.000193375
0.00019337
0.000188196
0.000188195
0.000188196
0.000188193
0.000188197
0.000188193
0.000188196
0.000188194
0.000188194
0.000188195
0.000188195
0.000188194
0.000188197
0.000188194
0.000188198
0.000188195
0.000188198
0.000188196
0.000188199
0.000188196
0.000188199
0.000188198
0.000188199
0.000188199
0.000188199
0.000188198
0.000188201
0.000188196
0.000188203
0.000188196
0.0001882
0.000188199
0.000188197
0.000188199
0.000188197
0.000188196
0.000188199
0.000188194
0.000188198
0.000188194
0.000182849
0.000182848
0.000182849
0.000182847
0.00018285
0.000182847
0.00018285
0.000182848
0.000182848
0.000182849
0.000182849
0.000182848
0.000182851
0.000182848
0.000182852
0.000182849
0.000182852
0.00018285
0.000182853
0.00018285
0.000182853
0.000182852
0.000182853
0.000182853
0.000182853
0.000182852
0.000182855
0.000182849
0.000182856
0.00018285
0.000182853
0.000182852
0.00018285
0.000182852
0.000182851
0.000182849
0.000182853
0.000182847
0.000182852
0.000182848
0.000177379
0.000177378
0.00017738
0.000177377
0.000177381
0.000177377
0.000177379
0.000177379
0.000177379
0.000177379
0.00017738
0.000177378
0.000177382
0.000177379
0.000177382
0.00017738
0.000177382
0.00017738
0.000177383
0.000177381
0.000177383
0.000177382
0.000177382
0.000177383
0.000177383
0.000177381
0.000177385