/*--------------------------------*- C++ -*----------------------------------*\
  =========                 |
  \\      /  F ield         | OpenFOAM: The Open Source CFD Toolbox
   \\    /   O peration     | Website:  https://openfoam.org
    \\  /    A nd           | Version:  10
     \\/     M anipulation  |
\*---------------------------------------------------------------------------*/
FoamFile
{
    format      ascii;
    class       volVectorField;
    location    "40";
    object      U;
}
// * * * * * * * * * * * * * * * * * * * * * * * * * * * * * * * * * * * * * //

dimensions      [0 1 -1 0 0 0 0];

internalField   nonuniform List<vector> 
25600
(
(1.13613 2.38176e-06 -5.52076e-07)
(1.13612 6.67228e-06 1.05019e-06)
(1.13612 -3.15236e-06 -3.7337e-07)
(1.13613 8.6958e-06 8.8515e-07)
(1.13612 -9.65211e-06 -9.48301e-08)
(1.13613 -7.14323e-06 3.38012e-07)
(1.13613 6.21474e-06 1.01159e-06)
(1.13612 -1.05599e-05 -1.31451e-06)
(1.13614 -3.52455e-07 2.9772e-06)
(1.13613 1.16898e-06 -2.92638e-06)
(1.13613 8.64749e-06 3.43985e-06)
(1.13613 9.0445e-06 -1.79483e-06)
(1.13612 3.34406e-07 9.60419e-07)
(1.13612 4.50944e-06 1.38312e-06)
(1.13612 -7.9136e-06 -1.79184e-06)
(1.13613 -1.10724e-06 2.43393e-06)
(1.13612 2.78093e-06 -7.65636e-07)
(1.13613 -2.77147e-06 2.49639e-07)
(1.13612 6.56905e-06 1.08885e-06)
(1.13612 -1.36648e-05 -3.55012e-07)
(1.13613 7.11323e-06 5.19669e-07)
(1.13611 2.60948e-06 9.53164e-07)
(1.13613 -2.11144e-06 -8.40332e-07)
(1.13612 7.69886e-07 1.36817e-06)
(1.13613 -2.18205e-06 -1.58986e-08)
(1.13612 -1.23122e-06 -1.70361e-07)
(1.13613 -6.02728e-06 1.19478e-06)
(1.13613 4.33734e-06 -6.75178e-07)
(1.13613 -1.00534e-05 1.30195e-06)
(1.13613 8.03694e-06 -9.74057e-07)
(1.13613 -1.16048e-06 1.85972e-06)
(1.13613 -1.30768e-06 -1.23403e-06)
(1.13613 -4.93873e-06 1.16123e-06)
(1.13614 -5.41129e-06 4.12466e-07)
(1.13613 1.03135e-05 -1.08562e-06)
(1.13613 2.75281e-06 2.62626e-06)
(1.13613 2.19943e-06 -2.39856e-06)
(1.13613 -1.1725e-06 2.58318e-06)
(1.13612 2.04562e-06 -1.37196e-06)
(1.13613 -3.26798e-06 1.38954e-06)
(1.13613 -1.71643e-07 1.48773e-06)
(1.13612 5.8335e-06 -7.01184e-08)
(1.13613 -6.4183e-06 2.73675e-08)
(1.13613 8.55591e-06 1.26511e-06)
(1.13612 -7.37586e-06 -8.33894e-07)
(1.13613 1.48857e-07 1.43463e-06)
(1.13613 2.13478e-06 -1.55062e-07)
(1.13612 -5.55111e-06 -7.65971e-08)
(1.13613 3.93064e-06 2.06252e-06)
(1.13612 -4.04341e-06 -2.3429e-06)
(1.13613 7.32839e-06 3.53244e-06)
(1.13613 -1.16285e-06 -2.38695e-06)
(1.13613 3.28012e-06 2.09197e-06)
(1.13613 -2.2846e-07 3.33036e-07)
(1.13612 -1.7398e-06 -1.4329e-06)
(1.13613 4.94735e-07 3.55005e-06)
(1.13612 -8.64067e-07 -3.12235e-06)
(1.13613 1.55419e-06 3.26202e-06)
(1.13612 -4.98959e-07 -1.42102e-06)
(1.13612 -1.36854e-06 7.94852e-07)
(1.13613 -5.43808e-07 1.30993e-06)
(1.13611 3.5929e-06 -1.39463e-06)
(1.13614 -2.70226e-06 2.2888e-06)
(1.13612 8.64232e-07 -1.39658e-06)
(1.13613 7.44844e-07 1.87786e-06)
(1.13613 -2.80212e-06 -9.07742e-07)
(1.13612 4.35569e-07 1.01078e-06)
(1.13613 7.33654e-07 6.61132e-07)
(1.13613 -4.26951e-06 -1.02431e-06)
(1.13612 5.3299e-06 2.28131e-06)
(1.13613 -3.69518e-06 -1.74226e-06)
(1.13613 2.26335e-06 2.25944e-06)
(1.13612 -2.03539e-06 -1.2923e-06)
(1.13613 -2.70893e-06 1.43628e-06)
(1.13612 6.11404e-06 -1.37826e-07)
(1.13613 -2.89103e-06 2.83515e-07)
(1.13612 4.98731e-06 8.43709e-07)
(1.13613 -4.06423e-06 -6.75533e-07)
(1.13613 3.96423e-06 1.76893e-06)
(1.13612 -2.26577e-06 -1.16678e-06)
(1.13613 3.91218e-07 2.49914e-06)
(1.13612 3.64018e-06 -7.23351e-07)
(1.13613 -3.37026e-06 7.43105e-07)
(1.13613 5.49565e-06 8.57169e-07)
(1.13612 -5.86871e-06 -4.23412e-07)
(1.13613 2.03771e-06 1.51461e-06)
(1.13612 -1.30193e-06 -3.31674e-07)
(1.13612 -1.66609e-06 6.07028e-07)
(1.13613 1.96167e-06 1.31783e-06)
(1.13612 -3.12061e-06 -1.30837e-06)
(1.13613 7.77764e-06 2.86787e-06)
(1.13612 -4.3937e-06 -2.12196e-06)
(1.13613 7.81045e-06 2.77378e-06)
(1.13613 -5.09081e-06 -7.71506e-07)
(1.13612 2.90183e-06 -1.41555e-07)
(1.13613 -6.42493e-07 3.11684e-06)
(1.13612 -2.85515e-06 -3.62776e-06)
(1.13613 6.22766e-06 4.91065e-06)
(1.13612 -7.12962e-06 -3.16166e-06)
(1.13612 6.30434e-06 2.14774e-06)
(1.13613 -6.43565e-06 1.17439e-06)
(1.13612 6.70681e-06 -2.27476e-06)
(1.13613 -3.69812e-06 3.97461e-06)
(1.13612 2.2506e-07 -2.90123e-06)
(1.13612 2.74013e-06 3.03318e-06)
(1.13613 -5.51191e-06 -1.20518e-06)
(1.13612 4.05138e-06 7.12474e-07)
(1.13612 -3.09367e-06 1.79225e-06)
(1.13613 -1.68143e-07 -2.73258e-06)
(1.13612 2.01338e-06 4.7847e-06)
(1.13613 -2.43996e-06 -4.46357e-06)
(1.13613 2.82798e-06 5.00891e-06)
(1.13612 -3.19236e-06 -3.0604e-06)
(1.13613 6.79859e-08 1.95318e-06)
(1.13612 3.80127e-06 9.00199e-07)
(1.13613 -2.52221e-06 -1.59255e-06)
(1.13612 5.4757e-06 3.20533e-06)
(1.13613 -4.09257e-06 -2.62077e-06)
(1.13613 4.008e-06 3.45956e-06)
(1.13612 -1.61934e-06 -2.30348e-06)
(1.13613 1.12199e-07 2.15662e-06)
(1.13612 1.19711e-06 -2.75259e-07)
(1.13613 3.42564e-07 9.15436e-07)
(1.13613 7.35625e-07 6.24437e-07)
(1.13612 -1.46839e-06 2.83692e-07)
(1.13613 2.10142e-06 1.1346e-06)
(1.13612 -2.75409e-06 2.42989e-08)
(1.13612 2.31102e-06 9.8702e-07)
(1.13613 -9.9708e-07 6.17288e-07)
(1.13612 -4.92219e-07 1.72149e-07)
(1.13613 4.75478e-06 1.45095e-06)
(1.13612 -5.22057e-06 -7.98124e-07)
(1.13613 8.60083e-06 2.51838e-06)
(1.13613 -7.45201e-06 -1.22603e-06)
(1.13612 5.75997e-06 1.20349e-06)
(1.13613 -1.4812e-06 1.99983e-06)
(1.13612 -2.97844e-06 -2.83761e-06)
(1.13613 7.67215e-06 5.12856e-06)
(1.13612 -9.39458e-06 -3.76851e-06)
(1.13612 9.98437e-06 3.19469e-06)
(1.13613 -8.88457e-06 5.79529e-07)
(1.13612 7.90229e-06 -1.99462e-06)
(1.13613 -4.11838e-06 4.41071e-06)
(1.13613 6.37844e-07 -3.37075e-06)
(1.13612 3.61683e-06 3.66296e-06)
(1.13613 -6.43056e-06 -1.46979e-06)
(1.13612 7.65119e-06 1.03188e-06)
(1.13612 -6.97923e-06 1.91321e-06)
(1.13613 5.27274e-06 -2.94965e-06)
(1.13612 -2.06182e-06 5.57858e-06)
(1.13613 -3.77584e-07 -5.34536e-06)
(1.13613 3.70622e-06 6.06167e-06)
(1.13612 -4.83848e-06 -3.41164e-06)
(1.13613 4.10117e-06 1.68268e-06)
(1.13612 -3.63306e-07 2.2556e-06)
(1.13613 -9.15568e-07 -3.08478e-06)
(1.13612 4.18367e-06 4.64199e-06)
(1.13613 -3.23999e-06 -3.13045e-06)
(1.13613 2.86902e-06 3.53257e-06)
(1.13612 -3.12981e-07 -1.74621e-06)
(1.13613 -1.9014e-07 1.35952e-06)
(1.13612 3.34713e-07 5.54373e-07)
(1.13613 2.98632e-06 8.92467e-07)
(1.13613 -2.67129e-06 4.07576e-07)
(1.13612 1.97338e-06 1.23055e-06)
(1.13613 7.75024e-07 3.70706e-07)
(1.13612 -3.13955e-06 9.06193e-07)
(1.13612 5.01606e-06 9.37676e-07)
(1.13613 -4.2797e-06 2.81536e-07)
(1.13612 3.25584e-06 1.60537e-06)
(1.13612 1.90907e-06 -1.68609e-07)
(1.13613 -3.70098e-06 1.20943e-06)
(1.13612 8.57672e-06 1.35993e-06)
(1.13613 -8.067e-06 -6.71134e-07)
(1.13613 7.11733e-06 1.95338e-06)
(1.13612 -2.27285e-06 9.57083e-07)
(1.13612 -2.06072e-06 -1.46574e-06)
(1.13613 7.14768e-06 4.55448e-06)
(1.13612 -8.81056e-06 -3.63096e-06)
(1.13612 9.97091e-06 4.06093e-06)
(1.13613 -8.64874e-06 -4.3999e-07)
(1.13612 8.02117e-06 -6.01362e-07)
(1.13613 -4.52149e-06 3.5667e-06)
(1.13613 1.81638e-06 -2.6686e-06)
(1.13612 2.71804e-06 3.64157e-06)
(1.13613 -6.15534e-06 -1.55852e-06)
(1.13612 9.60741e-06 1.67653e-06)
(1.13612 -1.0544e-05 1.39111e-06)
(1.13613 1.01699e-05 -2.21303e-06)
(1.13612 -6.10365e-06 5.34974e-06)
(1.13613 1.89776e-06 -5.07521e-06)
(1.13612 4.34117e-06 6.1125e-06)
(1.13612 -7.16572e-06 -2.85412e-06)
(1.13613 8.03566e-06 8.74118e-07)
(1.13612 -3.5857e-06 3.79276e-06)
(1.13613 1.09977e-06 -4.36012e-06)
(1.13612 3.72338e-06 5.7977e-06)
(1.13613 -2.82814e-06 -3.26512e-06)
(1.13613 2.51468e-06 3.26456e-06)
(1.13612 8.18749e-07 -7.02395e-07)
(1.13613 -3.47607e-07 5.17249e-07)
(1.13612 5.5283e-08 1.61806e-06)
(1.13613 4.66406e-06 6.82329e-07)
(1.13613 -5.16126e-06 4.2674e-07)
(1.13612 5.24679e-06 2.18904e-06)
(1.13613 -7.77374e-07 -5.31543e-07)
(1.13613 -2.69678e-06 2.35048e-06)
(1.13612 7.08134e-06 2.05729e-07)
(1.13613 -7.15595e-06 7.28e-07)
(1.13613 6.80531e-06 2.49661e-06)
(1.13612 -1.25617e-06 -1.49883e-06)
(1.13613 -1.89676e-06 3.35613e-06)
(1.13612 7.68953e-06 -2.02917e-07)
(1.13613 -7.91237e-06 5.34061e-07)
(1.13613 7.80853e-06 2.24389e-06)
(1.13612 -3.03369e-06 3.60668e-08)
(1.13613 -2.26905e-07 3.93815e-07)
(1.13613 5.07355e-06 3.11965e-06)
(1.13612 -6.12189e-06 -2.48959e-06)
(1.13612 8.14603e-06 4.32816e-06)
(1.13613 -7.01609e-06 -1.37146e-06)
(1.13612 7.80422e-06 1.31352e-06)
(1.13613 -5.273e-06 1.97237e-06)
(1.13613 4.35369e-06 -1.19019e-06)
(1.13612 4.53556e-07 3.25202e-06)
(1.13613 -4.22342e-06 -1.55531e-06)
(1.13612 1.0672e-05 2.64175e-06)
(1.13612 -1.32236e-05 4.43717e-07)
(1.13613 1.47975e-05 -9.46787e-07)
(1.13611 -9.56026e-06 4.74311e-06)
(1.13613 3.77658e-06 -4.53489e-06)
(1.13612 5.64497e-06 6.20066e-06)
(1.13612 -9.87456e-06 -2.57104e-06)
(1.13613 1.21778e-05 7.22535e-07)
(1.13611 -6.73116e-06 4.58055e-06)
(1.13613 2.6312e-06 -4.86115e-06)
(1.13612 4.0036e-06 6.46294e-06)
(1.13612 -3.63273e-06 -3.08206e-06)
(1.13613 3.31877e-06 2.95473e-06)
(1.13612 1.0262e-06 3.86129e-07)
(1.13613 -7.22351e-07 -2.90966e-07)
(1.13612 8.93891e-07 2.94412e-06)
(1.13612 5.19412e-06 5.54007e-08)
(1.13613 -6.46315e-06 9.59798e-07)
(1.13612 7.88696e-06 2.83599e-06)
(1.13612 -2.56635e-06 -1.35389e-06)
(1.13613 -1.68703e-06 3.98428e-06)
(1.13612 8.4266e-06 -9.04533e-07)
(1.13613 -9.36133e-06 1.74504e-06)
(1.13613 1.00605e-05 2.89496e-06)
(1.13612 -3.7306e-06 -2.46033e-06)
(1.13613 5.20982e-08 5.5777e-06)
(1.13612 7.0136e-06 -2.18292e-06)
(1.13612 -7.40563e-06 2.46684e-06)
(1.13613 8.27373e-06 1.87719e-06)
(1.13612 -3.70309e-06 -4.67484e-07)
(1.13613 1.99289e-06 2.36565e-06)
(1.13612 2.29253e-06 1.26596e-06)
(1.13612 -2.27866e-06 -6.24574e-07)
(1.13612 4.96091e-06 3.95363e-06)
(1.13613 -4.25832e-06 -1.81938e-06)
(1.13612 7.11546e-06 3.16289e-06)
(1.13613 -6.13735e-06 2.45174e-07)
(1.13613 7.4975e-06 5.55855e-07)
(1.13611 -2.83978e-06 2.81246e-06)
(1.13614 -1.39225e-06 -1.70917e-06)
(1.13612 1.07266e-05 4.00486e-06)
(1.13612 -1.52275e-05 -8.90834e-07)
(1.13613 1.87469e-05 7.47045e-07)
(1.13611 -1.25214e-05 3.91814e-06)
(1.13614 5.33024e-06 -3.88037e-06)
(1.13612 7.18678e-06 6.44658e-06)
(1.13612 -1.27185e-05 -2.62098e-06)
(1.13613 1.62582e-05 1.18613e-06)
(1.13611 -9.3479e-06 4.72152e-06)
(1.13614 3.85982e-06 -4.77527e-06)
(1.13612 5.14406e-06 6.89309e-06)
(1.13612 -5.05178e-06 -2.92264e-06)
(1.13613 4.88932e-06 2.87183e-06)
(1.13611 1.07816e-06 1.34319e-06)
(1.13611 -1.13686e-06 -7.47473e-07)
(1.1361 2.2252e-06 4.27482e-06)
(1.1361 5.07139e-06 -7.20646e-07)
(1.13611 -7.0081e-06 1.88219e-06)
(1.1361 1.01295e-05 3.17832e-06)
(1.1361 -4.16939e-06 -1.99417e-06)
(1.13611 -4.80543e-07 5.82654e-06)
(1.1361 9.53929e-06 -2.38306e-06)
(1.13611 -1.1232e-05 3.33624e-06)
(1.13611 1.28916e-05 2.81781e-06)
(1.1361 -5.76294e-06 -3.06836e-06)
(1.13611 1.55071e-06 7.83518e-06)
(1.1361 6.60383e-06 -4.48626e-06)
(1.13611 -6.96208e-06 5.10211e-06)
(1.13611 8.56296e-06 8.13856e-07)
(1.1361 -3.99344e-06 -3.50056e-07)
(1.13611 3.91265e-06 4.17576e-06)
(1.1361 -2.26343e-07 -7.47627e-07)
(1.1361 1.62087e-06 1.6958e-06)
(1.1361 1.74775e-06 3.20166e-06)
(1.13611 -1.32142e-06 -1.97817e-06)
(1.1361 6.54031e-06 5.03268e-06)
(1.13611 -7.07374e-06 -1.57409e-06)
(1.13611 1.1002e-05 2.49047e-06)
(1.13609 -6.25649e-06 2.38213e-06)
(1.13612 1.75356e-06 -1.93235e-06)
(1.13609 1.07715e-05 5.66574e-06)
(1.13611 -1.69548e-05 -2.48268e-06)
(1.13612 2.25614e-05 2.71469e-06)
(1.13609 -1.50013e-05 3.06231e-06)
(1.13613 6.56021e-06 -3.31391e-06)
(1.13609 9.0815e-06 7.08438e-06)
(1.13611 -1.55107e-05 -3.1579e-06)
(1.13612 2.00354e-05 2.30281e-06)
(1.13609 -1.13389e-05 4.36451e-06)
(1.13612 4.40109e-06 -4.30404e-06)
(1.1361 7.004e-06 7.35763e-06)
(1.1361 -7.16001e-06 -3.0368e-06)
(1.13611 7.0485e-06 3.36274e-06)
(1.13609 8.38967e-07 1.83767e-06)
(1.13584 -1.69235e-06 -1.01987e-06)
(1.13583 4.03711e-06 5.67717e-06)
(1.13583 4.6288e-06 -1.64146e-06)
(1.13584 -7.18294e-06 3.09043e-06)
(1.13583 1.22582e-05 3.40064e-06)
(1.13583 -5.78828e-06 -2.59134e-06)
(1.13584 1.00529e-06 7.89037e-06)
(1.13582 1.03128e-05 -4.16917e-06)
(1.13584 -1.2559e-05 5.40867e-06)
(1.13584 1.53565e-05 2.36645e-06)
(1.13582 -7.17948e-06 -3.33027e-06)
(1.13584 2.76352e-06 1.00492e-05)
(1.13582 6.62123e-06 -6.89976e-06)
(1.13583 -6.54066e-06 8.11495e-06)
(1.13584 8.82236e-06 -5.72308e-07)
(1.13582 -3.91603e-06 1.06038e-07)
(1.13584 5.443e-06 5.92862e-06)
(1.13583 -2.24425e-06 -2.79226e-06)
(1.13583 5.27674e-06 4.33311e-06)
(1.13583 -1.31935e-06 2.21113e-06)
(1.13584 1.63755e-06 -1.84192e-06)
(1.13582 6.05808e-06 6.83228e-06)
(1.13584 -8.05849e-06 -3.32694e-06)
(1.13584 1.46391e-05 4.51968e-06)
(1.13582 -9.80049e-06 2.03541e-06)
(1.13585 5.09772e-06 -2.19754e-06)
(1.13582 1.0535e-05 7.49256e-06)
(1.13583 -1.83239e-05 -4.08161e-06)
(1.13584 2.60567e-05 4.66724e-06)
(1.13581 -1.72067e-05 2.48064e-06)
(1.13586 7.73545e-06 -3.03518e-06)
(1.13581 1.10011e-05 8.2059e-06)
(1.13583 -1.81206e-05 -4.14604e-06)
(1.13584 2.36705e-05 3.98817e-06)
(1.13581 -1.29212e-05 3.63179e-06)
(1.13585 4.73236e-06 -3.57159e-06)
(1.13582 9.2813e-06 7.90201e-06)
(1.13583 -9.37549e-06 -3.35945e-06)
(1.13584 9.42241e-06 4.23586e-06)
(1.13582 7.51803e-07 2.06704e-06)
(1.13337 -2.49818e-06 -1.2654e-06)
(1.13335 6.23852e-06 7.34111e-06)
(1.13335 4.00281e-06 -2.97347e-06)
(1.13336 -7.04548e-06 4.70932e-06)
(1.13336 1.42608e-05 3.45989e-06)
(1.13335 -7.11379e-06 -3.34019e-06)
(1.13337 2.4144e-06 1.0439e-05)
(1.13335 1.12039e-05 -6.6301e-06)
(1.13336 -1.36684e-05 8.22897e-06)
(1.13336 1.7471e-05 1.38473e-06)
(1.13335 -8.00106e-06 -3.34822e-06)
(1.13337 3.43881e-06 1.24511e-05)
(1.13335 7.12884e-06 -9.76546e-06)
(1.13335 -6.26733e-06 1.18487e-05)
(1.13337 8.99848e-06 -2.53266e-06)
(1.13335 -3.29512e-06 9.84773e-07)
(1.13336 6.24603e-06 7.6598e-06)
(1.13335 -3.28862e-06 -5.03563e-06)
(1.13336 8.16029e-06 7.39301e-06)
(1.13336 -3.74546e-06 9.62935e-07)
(1.13336 4.38403e-06 -1.50581e-06)
(1.13335 5.68432e-06 8.72596e-06)
(1.13336 -8.80681e-06 -5.19156e-06)
(1.13336 1.80679e-05 6.78128e-06)
(1.13334 -1.28495e-05 1.73467e-06)
(1.13337 8.1825e-06 -2.56778e-06)
(1.13335 1.05822e-05 9.65738e-06)
(1.13336 -1.95024e-05 -5.9184e-06)
(1.13337 2.93611e-05 6.86022e-06)
(1.13333 -1.89694e-05 2.0356e-06)
(1.13339 8.77236e-06 -3.04316e-06)
(1.13334 1.30321e-05 9.88643e-06)
(1.13336 -2.03856e-05 -5.66408e-06)
(1.13337 2.69008e-05 6.21006e-06)
(1.13333 -1.37974e-05 2.67585e-06)
(1.13338 4.56569e-06 -2.84801e-06)
(1.13335 1.20302e-05 8.78351e-06)
(1.13335 -1.1655e-05 -4.15671e-06)
(1.13337 1.17513e-05 5.62384e-06)
(1.13334 1.00623e-06 2.00903e-06)
(1.12185 -3.3919e-06 -2.00463e-06)
(1.12182 8.49166e-06 1.01647e-05)
(1.12183 3.19134e-06 -6.85087e-06)
(1.12183 -6.21533e-06 8.31991e-06)
(1.12183 1.53791e-05 1.83652e-06)
(1.12182 -7.70362e-06 -4.55258e-06)
(1.12184 3.7153e-06 1.46841e-05)
(1.12182 1.14431e-05 -1.25434e-05)
(1.12183 -1.34699e-05 1.44287e-05)
(1.12183 1.81882e-05 -2.74503e-06)
(1.12182 -7.53515e-06 -2.26902e-06)
(1.12183 3.51981e-06 1.51876e-05)
(1.12183 7.82706e-06 -1.48673e-05)
(1.12181 -5.57601e-06 1.80729e-05)
(1.12185 8.61014e-06 -7.06641e-06)
(1.12181 -1.75045e-06 2.79401e-06)
(1.12184 5.99807e-06 9.4527e-06)
(1.12182 -2.99813e-06 -8.81419e-06)
(1.12182 9.84464e-06 1.19348e-05)
(1.12183 -5.12663e-06 -1.79287e-06)
(1.12183 6.79254e-06 -1.21733e-06)
(1.12182 4.95666e-06 1.126e-05)
(1.12183 -8.26672e-06 -8.81263e-06)
(1.12183 1.97638e-05 1.02368e-05)
(1.12182 -1.41889e-05 3.5737e-07)
(1.12183 1.04806e-05 -3.60772e-06)
(1.12183 1.01073e-05 1.28397e-05)
(1.12181 -1.88178e-05 -9.76322e-06)
(1.12185 3.02375e-05 1.01445e-05)
(1.1218 -1.86011e-05 7.01185e-07)
(1.12185 8.92799e-06 -4.02587e-06)
(1.12181 1.45035e-05 1.28541e-05)
(1.12183 -2.08817e-05 -9.54434e-06)
(1.12184 2.79811e-05 9.86688e-06)
(1.12181 -1.28677e-05 4.4154e-07)
(1.12184 3.69717e-06 -2.81413e-06)
(1.12183 1.4499e-05 1.07392e-05)
(1.12181 -1.28825e-05 -7.31633e-06)
(1.12186 1.31118e-05 8.56878e-06)
(1.1218 1.91378e-06 4.95048e-07)
(1.09485 -3.96158e-06 2.37269e-06)
(1.0948 1.02419e-05 1.00609e-05)
(1.09483 2.05726e-06 -1.31433e-05)
(1.09482 -4.44706e-06 1.75186e-05)
(1.09483 1.48795e-05 -8.69959e-06)
(1.09482 -7.10776e-06 1.7601e-06)
(1.09483 4.57268e-06 1.41066e-05)
(1.09482 1.07753e-05 -1.99592e-05)
(1.09482 -1.16394e-05 2.65502e-05)
(1.09483 1.69396e-05 -1.71242e-05)
(1.09482 -5.7002e-06 8.22304e-06)
(1.09482 2.86822e-06 1.09374e-05)
(1.09483 8.50404e-06 -1.92987e-05)
(1.0948 -4.62047e-06 2.77323e-05)
(1.09485 7.67087e-06 -1.93938e-05)
(1.09479 4.19492e-07 1.13539e-05)
(1.09484 4.57933e-06 6.2789e-06)
(1.09481 -1.1631e-06 -1.31941e-05)
(1.09482 9.56265e-06 1.96401e-05)
(1.09482 -4.93857e-06 -1.08369e-05)
(1.09481 8.32365e-06 3.1697e-06)
(1.09483 3.65412e-06 1.15635e-05)
(1.09481 -5.85337e-06 -1.53552e-05)
(1.09483 1.84621e-05 1.78816e-05)
(1.09482 -1.27122e-05 -7.19243e-06)
(1.09482 1.10395e-05 -1.67052e-06)
(1.09484 9.1629e-06 1.52558e-05)
(1.0948 -1.58606e-05 -1.78103e-05)
(1.09486 2.76977e-05 1.84563e-05)
(1.09479 -1.54751e-05 -7.22521e-06)
(1.09485 7.78582e-06 -1.7609e-06)
(1.09481 1.50605e-05 1.47037e-05)
(1.09482 -1.91468e-05 -1.71965e-05)
(1.09484 2.6264e-05 1.83603e-05)
(1.0948 -1.01547e-05 -8.57353e-06)
(1.09483 2.27635e-06 1.40493e-06)
(1.09483 1.60395e-05 1.04171e-05)
(1.0948 -1.28839e-05 -1.29353e-05)
(1.09486 1.33894e-05 1.59485e-05)
(1.09479 2.88784e-06 -7.89398e-06)
(1.05387 -3.97297e-06 1.42021e-05)
(1.05381 1.09006e-05 -3.09879e-06)
(1.05386 1.15385e-06 -6.32258e-06)
(1.05382 -2.53219e-06 1.76056e-05)
(1.05385 1.32134e-05 -1.92926e-05)
(1.05383 -5.56925e-06 1.72827e-05)
(1.05384 4.54361e-06 -3.55219e-06)
(1.05384 9.89226e-06 -9.64931e-06)
(1.05383 -9.33703e-06 2.55115e-05)
(1.05385 1.46e-05 -2.93416e-05)
(1.05383 -3.22922e-06 2.6982e-05)
(1.05384 1.63318e-06 -1.05205e-05)
(1.05385 9.16821e-06 -6.07538e-06)
(1.05381 -3.95929e-06 2.41706e-05)
(1.05387 6.85735e-06 -2.91931e-05)
(1.0538 2.10365e-06 2.64085e-05)
(1.05387 3.07194e-06 -1.0511e-05)
(1.05382 9.72824e-07 -5.1595e-06)
(1.05385 7.96183e-06 1.98048e-05)
(1.05383 -3.26728e-06 -2.18038e-05)
(1.05384 7.99281e-06 1.58358e-05)
(1.05385 3.26757e-06 -2.69617e-07)
(1.05382 -3.58739e-06 -1.34835e-05)
(1.05386 1.56855e-05 2.31419e-05)
(1.05382 -9.28996e-06 -2.09304e-05)
(1.05384 9.29397e-06 1.10194e-05)
(1.05385 9.21194e-06 5.37279e-06)
(1.05381 -1.29597e-05 -1.85347e-05)
(1.05388 2.3723e-05 2.58957e-05)
(1.0538 -1.09637e-05 -2.21808e-05)
(1.05387 5.32957e-06 1.17042e-05)
(1.05383 1.55471e-05 3.88018e-06)
(1.05383 -1.68908e-05 -1.59976e-05)
(1.05386 2.31957e-05 2.3473e-05)
(1.05382 -6.77637e-06 -2.12995e-05)
(1.05385 5.44538e-07 1.44259e-05)
(1.05385 1.6731e-05 -1.89466e-06)
(1.05382 -1.21668e-05 -7.95345e-06)
(1.05388 1.29079e-05 1.68038e-05)
(1.0538 3.48306e-06 -1.70384e-05)
(1.0025 -3.39139e-06 1.37729e-05)
(1.00244 1.05586e-05 -1.10689e-05)
(1.00249 5.95176e-07 4.55806e-06)
(1.00245 -8.701e-07 4.17443e-06)
(1.00248 1.10302e-05 -1.17814e-05)
(1.00245 -3.67595e-06 1.61956e-05)
(1.00248 3.85096e-06 -1.3954e-05)
(1.00247 9.13084e-06 5.9858e-06)
(1.00246 -7.31174e-06 6.73833e-06)
(1.00248 1.21727e-05 -1.8444e-05)
(1.00245 -1.00473e-06 2.52458e-05)
(1.00247 3.21732e-07 -2.28786e-05)
(1.00248 9.70265e-06 1.21476e-05)
(1.00244 -3.7158e-06 3.43509e-06)
(1.0025 6.37714e-06 -1.76892e-05)
(1.00243 3.0231e-06 2.44259e-05)
(1.0025 1.91306e-06 -2.16492e-05)
(1.00244 2.70231e-06 9.57602e-06)
(1.00248 6.13586e-06 4.75913e-06)
(1.00246 -1.37076e-06 -1.70463e-05)
(1.00247 6.85637e-06 1.95039e-05)
(1.00247 3.4514e-06 -1.40667e-05)
(1.00246 -2.16284e-06 7.36499e-08)
(1.00248 1.30746e-05 1.26314e-05)
(1.00245 -6.01699e-06 -2.21417e-05)
(1.00248 6.9609e-06 2.01373e-05)
(1.00247 9.68209e-06 -1.15304e-05)
(1.00245 -1.09511e-05 -4.43583e-06)
(1.0025 2.01706e-05 1.68161e-05)
(1.00243 -7.16313e-06 -2.50819e-05)
(1.0025 3.01503e-06 2.18292e-05)
(1.00245 1.56845e-05 -1.28924e-05)
(1.00246 -1.48993e-05 -1.9153e-06)
(1.00249 2.02543e-05 1.32595e-05)
(1.00244 -4.17202e-06 -2.07927e-05)
(1.00249 -6.39605e-07 1.96853e-05)
(1.00247 1.64712e-05 -1.38989e-05)
(1.00245 -1.11352e-05 3.88237e-06)
(1.0025 1.21395e-05 5.14157e-06)
(1.00243 3.48034e-06 -1.18576e-05)
(0.943888 -2.46894e-06 6.36369e-06)
(0.943838 9.29596e-06 -8.5885e-06)
(0.943884 7.12539e-07 4.34526e-06)
(0.943841 -4.12564e-09 -1.55512e-06)
(0.943883 9.04981e-06 -5.12785e-06)
(0.943844 -1.9459e-06 7.6504e-06)
(0.943876 2.77742e-06 -1.05307e-05)
(0.943856 8.6877e-06 6.6121e-06)
(0.943859 -5.99859e-06 -2.04915e-06)
(0.943873 1.02791e-05 -7.45002e-06)
(0.94385 4.04567e-07 1.28176e-05)
(0.94387 -5.89701e-07 -1.73648e-05)
(0.943866 9.82691e-06 1.28648e-05)
(0.943846 -3.73629e-06 -6.74259e-06)
(0.94389 6.21949e-06 -5.22595e-06)
(0.943829 3.0647e-06 1.15441e-05)
(0.943896 1.40715e-06 -1.66845e-05)
(0.943834 3.5837e-06 1.10635e-05)
(0.943883 4.57073e-06 -5.02634e-06)
(0.943849 2.41395e-07 -7.06475e-06)
(0.94387 5.33022e-06 1.12948e-05)
(0.94386 3.95438e-06 -1.48567e-05)
(0.943858 -1.60467e-06 6.71317e-06)
(0.943872 1.1037e-05 -1.07567e-08)
(0.94385 -3.56986e-06 -1.24205e-05)
(0.94387 4.78758e-06 1.48948e-05)
(0.943864 1.00297e-05 -1.66243e-05)
(0.943847 -9.61523e-06 6.03444e-06)
(0.94389 1.7255e-05 1.98172e-06)
(0.943829 -4.49929e-06 -1.49623e-05)
(0.943891 1.34913e-06 1.70848e-05)
(0.943845 1.51488e-05 -1.81817e-05)
(0.943862 -1.29603e-05 7.76435e-06)
(0.943875 1.74509e-05 -2.52591e-07)
(0.943843 -2.37405e-06 -1.12595e-05)
(0.943877 -1.15901e-06 1.33083e-05)
(0.943858 1.52101e-05 -1.49966e-05)
(0.943854 -9.58274e-06 7.80335e-06)
(0.943881 1.08841e-05 -3.2722e-06)
(0.943838 3.25143e-06 -4.78217e-06)
(0.880633 -1.85496e-06 1.91035e-06)
(0.880599 7.95117e-06 -6.15786e-06)
(0.880633 1.03506e-06 1.72043e-06)
(0.880598 1.9759e-07 -2.0599e-06)
(0.880636 7.6716e-06 -4.23134e-06)
(0.880597 -9.32546e-07 4.15648e-06)
(0.880632 1.99407e-06 -8.17825e-06)
(0.880606 8.11147e-06 4.25145e-06)
(0.880618 -5.13171e-06 -3.37655e-06)
(0.880621 8.88648e-06 -4.55737e-06)
(0.880607 9.47513e-07 6.74989e-06)
(0.880623 -8.82993e-07 -1.23042e-05)
(0.880615 9.28186e-06 8.54764e-06)
(0.880606 -3.5976e-06 -7.13199e-06)
(0.880634 5.96575e-06 -2.2647e-06)
(0.880588 2.7029e-06 4.83522e-06)
(0.880644 1.2665e-06 -1.11634e-05)
(0.880587 3.6918e-06 6.75071e-06)
(0.880637 3.57612e-06 -6.14206e-06)
(0.880598 1.05136e-06 -3.49903e-06)
(0.880625 4.14581e-06 4.57728e-06)
(0.880609 4.19544e-06 -1.09895e-05)
(0.880613 -1.51764e-06 5.35062e-06)
(0.88062 9.63648e-06 -5.1015e-06)
(0.880606 -2.28113e-06 -5.55364e-06)
(0.880619 3.40619e-06 6.24559e-06)
(0.880616 9.77347e-06 -1.30892e-05)
(0.880602 -8.5652e-06 6.37553e-06)
(0.880636 1.49466e-05 -5.45233e-06)
(0.880588 -2.9555e-06 -6.47008e-06)
(0.880638 4.49727e-07 7.67043e-06)
(0.880599 1.39912e-05 -1.45533e-05)
(0.880618 -1.11394e-05 7.70981e-06)
(0.880622 1.48547e-05 -6.51038e-06)
(0.880603 -1.10902e-06 -4.55304e-06)
(0.880625 -1.43262e-06 5.34827e-06)
(0.880613 1.3576e-05 -1.12065e-05)
(0.88061 -7.91123e-06 5.55909e-06)
(0.880628 9.27374e-06 -5.48648e-06)
(0.8806 3.18819e-06 -2.40989e-06)
(0.814783 -1.47232e-06 2.06785e-07)
(0.814761 6.78621e-06 -5.31341e-06)
(0.814783 1.1883e-06 7.59715e-07)
(0.814758 2.26376e-07 -2.54823e-06)
(0.814787 6.55658e-06 -3.59146e-06)
(0.814755 -4.08e-07 2.51408e-06)
(0.814786 1.52398e-06 -7.25053e-06)
(0.81476 7.24375e-06 3.59e-06)
(0.814776 -4.33577e-06 -4.56661e-06)
(0.81477 7.62449e-06 -2.6976e-06)
(0.814766 1.06231e-06 3.53824e-06)
(0.814773 -8.3696e-07 -9.9352e-06)
(0.814768 8.24373e-06 6.42806e-06)
(0.814763 -3.23203e-06 -7.3257e-06)
(0.81478 5.46772e-06 -1.50813e-06)
(0.814749 2.21723e-06 2.06836e-06)
(0.81479 1.19132e-06 -9.22093e-06)
(0.814744 3.43826e-06 4.21872e-06)
(0.814788 2.83516e-06 -6.20657e-06)
(0.81475 1.36453e-06 -3.0676e-06)
(0.81478 3.30209e-06 1.24943e-06)
(0.814759 3.99066e-06 -8.68482e-06)
(0.814769 -1.36872e-06 2.44448e-06)
(0.814769 8.34191e-06 -6.09945e-06)
(0.814763 -1.58053e-06 -3.5112e-06)
(0.81477 2.63259e-06 6.18315e-07)
(0.81477 8.88131e-06 -9.12941e-06)
(0.814757 -7.40025e-06 2.75138e-06)
(0.814786 1.28337e-05 -6.88033e-06)
(0.814747 -2.06646e-06 -3.4796e-06)
(0.814788 1.05585e-07 1.34634e-06)
(0.814756 1.242e-05 -1.02945e-05)
(0.814773 -9.42458e-06 4.25289e-06)
(0.814774 1.25661e-05 -7.52894e-06)
(0.814763 -3.24838e-07 -2.38661e-06)
(0.814776 -1.51564e-06 7.54387e-07)
(0.814771 1.19218e-05 -8.1305e-06)
(0.814765 -6.49013e-06 2.76614e-06)
(0.814782 7.76998e-06 -5.36572e-06)
(0.81476 3.08632e-06 -2.14179e-06)
(0.747913 -1.20387e-06 -5.74801e-07)
(0.747895 5.73796e-06 -4.55772e-06)
(0.747911 1.2119e-06 5.41644e-07)
(0.747893 1.86445e-07 -2.96388e-06)
(0.747914 5.56205e-06 -2.4607e-06)
(0.747889 -1.48718e-07 9.15173e-07)
(0.747914 1.17667e-06 -5.77538e-06)
(0.747891 6.26831e-06 2.64542e-06)
(0.747907 -3.62782e-06 -5.1312e-06)
(0.747897 6.40973e-06 -1.11037e-06)
(0.7479 1.0187e-06 5.29666e-07)
(0.747899 -7.40988e-07 -7.53505e-06)
(0.7479 7.03455e-06 4.30773e-06)
(0.747893 -2.77611e-06 -7.70808e-06)
(0.747906 4.76686e-06 -6.32479e-07)
(0.747884 1.7633e-06 -6.83799e-07)
(0.747913 1.0912e-06 -7.91169e-06)
(0.747879 3.00423e-06 2.44416e-06)
(0.747914 2.26258e-06 -6.94668e-06)
(0.747881 1.40404e-06 -2.90011e-06)
(0.747909 2.63823e-06 -1.10361e-06)
(0.747888 3.58896e-06 -7.70867e-06)
(0.747901 -1.19477e-06 1.20631e-07)
(0.747897 7.10088e-06 -6.2214e-06)
(0.747896 -1.11678e-06 -3.69596e-06)
(0.747898 2.08583e-06 -2.07806e-06)
(0.747902 7.76826e-06 -7.09314e-06)
(0.747889 -6.20444e-06 -4.85649e-07)
(0.747914 1.08303e-05 -6.25826e-06)
(0.747883 -1.4435e-06 -3.36354e-06)
(0.747917 -1.04705e-08 -1.53273e-06)
(0.74789 1.07176e-05 -7.70075e-06)
(0.747906 -7.82328e-06 1.43731e-06)
(0.747904 1.05318e-05 -6.87854e-06)
(0.747898 1.23852e-07 -1.95044e-06)
(0.747905 -1.43276e-06 -1.24414e-06)
(0.747906 1.02861e-05 -6.18276e-06)
(0.747896 -5.29629e-06 1.14791e-06)
(0.747913 6.46023e-06 -4.84089e-06)
(0.747893 2.88195e-06 -1.81919e-06)
(0.681211 -1.02454e-06 -9.9659e-07)
(0.681196 4.79173e-06 -3.58431e-06)
(0.681209 1.12943e-06 2.80716e-07)
(0.681194 1.02458e-07 -2.9135e-06)
(0.68121 4.66482e-06 -1.71593e-06)
(0.681191 -5.78767e-08 -2.97948e-07)
(0.681209 8.93973e-07 -4.37408e-06)
(0.681191 5.28779e-06 1.19664e-06)
(0.681204 -3.04311e-06 -4.82076e-06)
(0.681194 5.28569e-06 -8.44335e-07)
(0.681199 8.96265e-07 -1.58022e-06)
(0.681194 -6.70717e-07 -5.66649e-06)
(0.681199 5.85364e-06 1.65931e-06)
(0.681191 -2.33372e-06 -7.30628e-06)
(0.681202 3.99857e-06 -7.75488e-07)
(0.681185 1.39426e-06 -3.09507e-06)
(0.681207 9.5346e-07 -6.58628e-06)
(0.681182 2.52426e-06 2.5688e-07)
(0.681209 1.81245e-06 -7.34075e-06)
(0.681182 1.29912e-06 -2.98152e-06)
(0.681207 2.11468e-06 -3.05703e-06)
(0.681187 3.11728e-06 -7.07287e-06)
(0.681202 -1.01768e-06 -1.57743e-06)
(0.681195 5.96786e-06 -6.23915e-06)
(0.681198 -7.94396e-07 -4.21098e-06)
(0.681197 1.67019e-06 -3.16099e-06)
(0.681204 6.65354e-06 -6.3338e-06)
(0.681191 -5.1084e-06 -2.15006e-06)
(0.681213 9.01416e-06 -5.41756e-06)
(0.681186 -9.63096e-07 -3.74169e-06)
(0.681215 -6.81377e-08 -2.3821e-06)
(0.681193 9.08977e-06 -6.19341e-06)
(0.681207 -6.39939e-06 4.8462e-09)
(0.681204 8.7253e-06 -5.8593e-06)
(0.681201 3.87853e-07 -1.68171e-06)
(0.681204 -1.30036e-06 -1.89335e-06)
(0.681207 8.72859e-06 -4.66845e-06)
(0.681197 -4.29685e-06 3.68863e-07)
(0.681213 5.30841e-06 -4.08102e-06)
(0.681194 2.59922e-06 -1.31857e-06)
(0.615563 -9.113e-07 -1.16724e-06)
(0.615549 3.94474e-06 -2.77879e-06)
(0.61556 9.77873e-07 -1.04781e-07)
(0.615547 -9.85808e-12 -2.70254e-06)
(0.61556 3.8521e-06 -1.56563e-06)
(0.615544 -5.59261e-08 -1.07149e-06)
(0.615558 6.518e-07 -3.66951e-06)
(0.615544 4.36225e-06 -1.81402e-07)
(0.615554 -2.55231e-06 -4.42277e-06)
(0.615546 4.2778e-06 -1.50217e-06)
(0.615551 7.53799e-07 -2.74289e-06)
(0.615545 -6.29589e-07 -4.93548e-06)
(0.615552 4.78796e-06 -5.63282e-07)
(0.615542 -1.93382e-06 -6.69611e-06)
(0.615554 3.25674e-06 -1.81247e-06)
(0.61554 1.11232e-06 -4.4623e-06)
(0.615557 7.94335e-07 -5.80266e-06)
(0.615538 2.06999e-06 -1.79022e-06)
(0.615559 1.46298e-06 -7.1325e-06)
(0.615538 1.13229e-06 -3.41169e-06)
(0.615559 1.69953e-06 -4.25337e-06)
(0.615542 2.64959e-06 -6.48614e-06)
(0.615556 -8.49294e-07 -2.68076e-06)
(0.615548 4.96103e-06 -6.02496e-06)
(0.615553 -5.56569e-07 -4.36307e-06)
(0.615551 1.33245e-06 -3.46284e-06)
(0.615558 5.62263e-06 -5.82908e-06)
(0.615546 -4.16626e-06 -2.54332e-06)
(0.615566 7.41557e-06 -4.71488e-06)
(0.615543 -5.98621e-07 -3.65113e-06)
(0.615567 -1.26884e-07 -2.30229e-06)
(0.615549 7.62249e-06 -5.05636e-06)
(0.615561 -5.20071e-06 -4.22294e-07)
(0.615557 7.14081e-06 -4.78691e-06)
(0.615556 5.27269e-07 -1.25794e-06)
(0.615557 -1.18065e-06 -1.89055e-06)
(0.61556 7.30564e-06 -3.41528e-06)
(0.61555 -3.48475e-06 2.42956e-08)
(0.615565 4.28809e-06 -3.22988e-06)
(0.615548 2.27848e-06 -9.64933e-07)
(0.55161 -8.39789e-07 -1.25059e-06)
(0.551597 3.19902e-06 -2.35821e-06)
(0.551607 7.97379e-07 -5.52218e-07)
(0.551595 -9.71082e-08 -2.63922e-06)
(0.551607 3.12767e-06 -1.78342e-06)
(0.551593 -8.56073e-08 -1.65065e-06)
(0.551605 4.42534e-07 -3.5809e-06)
(0.551593 3.54022e-06 -1.24847e-06)
(0.551601 -2.13517e-06 -4.32465e-06)
(0.551594 3.40108e-06 -2.36673e-06)
(0.551599 6.2707e-07 -3.4174e-06)
(0.551593 -6.06454e-07 -4.91757e-06)
(0.551601 3.8759e-06 -2.00349e-06)
(0.551591 -1.58615e-06 -6.34663e-06)
(0.551603 2.59217e-06 -2.86683e-06)
(0.55159 9.05359e-07 -4.98228e-06)
(0.551604 6.29529e-07 -5.52686e-06)
(0.551589 1.67618e-06 -3.08414e-06)
(0.551606 1.18586e-06 -6.62369e-06)
(0.55159 9.45677e-07 -3.81941e-06)
(0.551607 1.36854e-06 -4.62489e-06)
(0.551593 2.21493e-06 -5.89704e-06)
(0.551606 -7.03943e-07 -3.13786e-06)
(0.551599 4.08135e-06 -5.50701e-06)
(0.551605 -3.83206e-07 -4.09911e-06)
(0.551601 1.04196e-06 -3.30661e-06)
(0.551609 4.69973e-06 -5.12711e-06)
(0.551597 -3.38509e-06 -2.27061e-06)
(0.551615 6.03093e-06 -4.03471e-06)
(0.551595 -3.37104e-07 -3.0785e-06)
(0.551615 -1.96821e-07 -1.89426e-06)
(0.5516 6.33084e-06 -4.01557e-06)
(0.55161 -4.22338e-06 -3.58615e-07)
(0.551605 5.76752e-06 -3.78649e-06)
(0.551607 5.74645e-07 -7.92487e-07)
(0.551605 -1.08808e-06 -1.6565e-06)
(0.551609 6.0379e-06 -2.4732e-06)
(0.551599 -2.83525e-06 -1.411e-07)
(0.551612 3.3992e-06 -2.54333e-06)