# y+ ()       
# Time        	patch         	min           	max           	average       
61            	bottomWall	1.161185e+00	3.784794e+00	2.099423e+00
61            	topWall	1.266846e+00	3.586216e+00	2.108776e+00
