/*--------------------------------*- C++ -*----------------------------------*\
  =========                 |
  \\      /  F ield         | OpenFOAM: The Open Source CFD Toolbox
   \\    /   O peration     | Website:  https://openfoam.org
    \\  /    A nd           | Version:  10
     \\/     M anipulation  |
\*---------------------------------------------------------------------------*/
FoamFile
{
    format      ascii;
    class       volScalarField;
    location    "95";
    object      pMean;
}
// * * * * * * * * * * * * * * * * * * * * * * * * * * * * * * * * * * * * * //

dimensions      [0 2 -2 0 0 0 0];

internalField   nonuniform List<scalar> 
102400
(
0.000533633
0.000584101
0.000683599
0.000767999
0.000785365
0.000771647
0.000754963
0.000749118
0.000718581
0.000645572
0.000543559
0.000442628
0.000413845
0.000447302
0.000428906
0.000353937
0.000346047
0.000420903
0.000518326
0.000585865
0.00061508
0.000658097
0.000771914
0.000926852
0.000978774
0.000907609
0.000782077
0.000668144
0.000604489
0.000585854
0.000617892
0.000620854
0.000595665
0.000568513
0.000561863
0.000516106
0.000462178
0.000456846
0.000484833
0.000509502
0.000528102
0.000579662
0.000679989
0.000764821
0.000781009
0.000766649
0.000750049
0.000743445
0.000712656
0.000639493
0.00053822
0.000437752
0.0004092
0.000442724
0.000423209
0.000346458
0.000338133
0.000413905
0.000512299
0.000580646
0.000610415
0.000654547
0.000769232
0.000923826
0.000975567
0.000904016
0.000779222
0.000666786
0.00060351
0.000584253
0.000615815
0.000618847
0.000593459
0.000565763
0.000558312
0.000511661
0.000457938
0.000453283
0.000481179
0.000504716
0.000501971
0.000552813
0.000655338
0.00074237
0.000758541
0.000742885
0.000724886
0.000715815
0.000682815
0.000609989
0.000507929
0.000407997
0.000378592
0.000412263
0.000391846
0.000314028
0.00030623
0.000381029
0.000478347
0.000546785
0.000578248
0.00062714
0.000746993
0.000902337
0.000951858
0.000877358
0.000752875
0.000643786
0.000583417
0.000564638
0.000595754
0.000598066
0.000572508
0.000543002
0.000532371
0.000482844
0.000428278
0.000427005
0.000458038
0.000480701
0.000439655
0.000484475
0.000584165
0.000677121
0.000697805
0.000678063
0.000656892
0.000644574
0.000610332
0.000537406
0.000432628
0.000332447
0.000304269
0.000339957
0.000322564
0.000246926
0.00023849
0.0003098
0.000401283
0.000469145
0.000504865
0.000560004
0.000685976
0.000840049
0.00088611
0.000809739
0.000685166
0.000581485
0.000526665
0.00050952
0.000540587
0.000542182
0.000515232
0.000481776
0.000466173
0.000414132
0.000360587
0.000367168
0.00040283
0.000422592
0.000336348
0.000367819
0.000456089
0.000550872
0.000575657
0.000551762
0.000529648
0.000519477
0.000483463
0.000411721
0.000307237
0.000211229
0.000189661
0.000226025
0.000210556
0.000138068
0.000123265
0.000185854
0.000272981
0.000344972
0.000387184
0.000447875
0.000575056
0.000724793
0.000770897
0.000693215
0.000570247
0.000474772
0.000430145
0.000418002
0.000447721
0.000443274
0.000412026
0.000373671
0.000353621
0.000301023
0.000252113
0.000267577
0.00031038
0.000326352
0.000187515
0.000207265
0.000282548
0.00037866
0.000398239
0.000369426
0.000353612
0.00034387
0.000308361
0.000237391
0.000138383
5.88953e-05
4.72119e-05
7.30118e-05
5.20808e-05
-2.69109e-05
-5.02778e-05
5.51424e-06
9.40735e-05
0.000179478
0.0002294
0.000285045
0.000404546
0.000548153
0.000602213
0.00053432
0.000417144
0.00032973
0.000292471
0.00028837
0.000317072
0.000306495
0.000271397
0.000230448
0.000205944
0.000151092
0.000106178
0.000131354
0.000174268
0.000182421
6.82577e-06
2.45117e-05
9.37605e-05
0.0001886
0.00021138
0.00017762
0.00016363
0.0001549
0.000108481
2.06846e-05
-7.17459e-05
-0.00012177
-0.000128656
-0.000125644
-0.000154994
-0.000233152
-0.000258612
-0.000202602
-0.000112224
-2.08706e-05
2.74745e-05
7.2362e-05
0.000174303
0.000313564
0.000387469
0.000341105
0.000234657
0.000152359
0.000118514
0.000121711
0.000148432
0.000125034
8.3419e-05
4.32944e-05
2.11644e-05
-2.44151e-05
-5.68835e-05
-2.8227e-05
3.19258e-06
8.55619e-07
-0.000176251
-0.000152849
-8.70273e-05
8.23307e-06
3.4096e-05
-4.78233e-06
-2.05469e-05
-2.49533e-05
-8.66167e-05
-0.000202439
-0.000301778
-0.000331112
-0.00032393
-0.000333205
-0.000361768
-0.000428232
-0.000450503
-0.000403607
-0.000332747
-0.000255577
-0.000215935
-0.000184795
-0.000100608
4.28649e-05
0.000143082
0.000120067
2.54071e-05
-5.05621e-05
-7.93413e-05
-6.7399e-05
-4.43962e-05
-8.09094e-05
-0.000131564
-0.000173971
-0.000189514
-0.000217328
-0.000230036
-0.000197122
-0.000183711
-0.0001937
-0.000348127
-0.000321224
-0.000260875
-0.000161548
-0.000129799
-0.000167461
-0.000183379
-0.000179689
-0.000250556
-0.00040062
-0.00051762
-0.00054123
-0.000522132
-0.000522714
-0.000543076
-0.000598389
-0.000623785
-0.000598262
-0.000548926
-0.000485807
-0.000451745
-0.00044052
-0.000383747
-0.000239328
-0.000112972
-0.000114762
-0.000191508
-0.000252941
-0.000276765
-0.000263103
-0.000241631
-0.000278134
-0.000333259
-0.000383998
-0.000400157
-0.000412302
-0.000409756
-0.000368285
-0.000359748
-0.000372569
-0.000514226
-0.000494478
-0.000443728
-0.000339368
-0.00029002
-0.000318214
-0.000323936
-0.00031229
-0.000387301
-0.000551635
-0.000678356
-0.000707832
-0.000700779
-0.000711397
-0.000732791
-0.000764922
-0.000776903
-0.00076879
-0.000740649
-0.000683239
-0.000655355
-0.000667028
-0.000637291
-0.000511654
-0.000373868
-0.000344696
-0.000401094
-0.000442175
-0.000460459
-0.000456651
-0.000441232
-0.000470488
-0.000518154
-0.000562365
-0.000577483
-0.000583352
-0.000584844
-0.000549029
-0.000529445
-0.000534859
-0.000666643
-0.000649112
-0.000614875
-0.000521053
-0.000452159
-0.000453426
-0.000448133
-0.000431307
-0.000480902
-0.000621979
-0.00074604
-0.000792419
-0.000817408
-0.000861851
-0.000893809
-0.000907327
-0.000910305
-0.000927024
-0.00092741
-0.000877041
-0.000849448
-0.000869377
-0.000849886
-0.000738265
-0.000606112
-0.000552774
-0.000583128
-0.000608414
-0.000623018
-0.000631095
-0.000633483
-0.00066474
-0.000696134
-0.000715279
-0.000715953
-0.000730652
-0.000757195
-0.000732273
-0.00068979
-0.000679964
-0.000752752
-0.000733509
-0.000715814
-0.00064803
-0.000569742
-0.000538869
-0.000524647
-0.000507106
-0.000521839
-0.000627964
-0.00075338
-0.000821572
-0.000863662
-0.000927013
-0.000968923
-0.000983062
-0.00100214
-0.00104901
-0.00107259
-0.00103282
-0.00100153
-0.00101439
-0.000989453
-0.000881584
-0.000764072
-0.000718438
-0.000734994
-0.000749403
-0.000760573
-0.000783355
-0.000803441
-0.000831926
-0.000849301
-0.000849619
-0.000835046
-0.000856406
-0.000908472
-0.000884063
-0.00080653
-0.000770365
-0.000783312
-0.000758041
-0.000739295
-0.000678855
-0.000591522
-0.000551695
-0.000549583
-0.00055204
-0.000562433
-0.000639434
-0.000753715
-0.000828436
-0.000868983
-0.000917734
-0.000957376
-0.000971205
-0.00100345
-0.00107667
-0.00111957
-0.0011037
-0.00107637
-0.0010801
-0.00105667
-0.000958193
-0.000851048
-0.000816114
-0.000832591
-0.000845526
-0.000858666
-0.000895777
-0.000935909
-0.000956223
-0.000964195
-0.000962371
-0.000940934
-0.000954852
-0.00100821
-0.000980713
-0.000868084
-0.000805796
-0.000787796
-0.000771561
-0.000741895
-0.000671227
-0.000570236
-0.000527438
-0.000554332
-0.000603097
-0.000632101
-0.000677097
-0.000746994
-0.000796299
-0.000820962
-0.000865576
-0.000908581
-0.000920503
-0.000948814
-0.00102609
-0.00107992
-0.00108143
-0.00106225
-0.00105402
-0.00103451
-0.000964058
-0.00086909
-0.000823463
-0.00083823
-0.000862219
-0.000884084
-0.000935354
-0.000991691
-0.00101367
-0.00101447
-0.00101504
-0.000993396
-0.000991485
-0.0010303
-0.00101493
-0.000902356
-0.000815345
-0.000801911
-0.00080521
-0.000785663
-0.000726638
-0.000629751
-0.000562397
-0.000571437
-0.000633343
-0.000672877
-0.000685148
-0.000708438
-0.00073038
-0.00074965
-0.000800052
-0.000865013
-0.000891869
-0.000902762
-0.000952462
-0.000995262
-0.000994301
-0.000963424
-0.000939869
-0.000926076
-0.000881909
-0.000803419
-0.000749349
-0.000756464
-0.000787491
-0.00082522
-0.000880711
-0.000939075
-0.000967638
-0.000977229
-0.000984302
-0.000960754
-0.000937944
-0.000959145
-0.000973628
-0.000902033
-0.000822302
-0.000782701
-0.000804981
-0.000794155
-0.000754671
-0.000690665
-0.000629176
-0.000611035
-0.00064108
-0.000667261
-0.000667107
-0.00066566
-0.000674104
-0.000692175
-0.000741332
-0.000804587
-0.000830814
-0.000823346
-0.000839963
-0.000861763
-0.000856192
-0.000826067
-0.000802765
-0.000793817
-0.000763091
-0.000688029
-0.000626842
-0.00063031
-0.000668259
-0.000718814
-0.000771179
-0.000818471
-0.000853121
-0.000865279
-0.000870819
-0.000843644
-0.000791913
-0.000791534
-0.000832124
-0.00081702
-0.000777766
-0.000664868
-0.000692695
-0.00069618
-0.000688929
-0.00067853
-0.000654566
-0.000623567
-0.000608562
-0.00061212
-0.000613167
-0.000617387
-0.000631591
-0.000645624
-0.000675366
-0.000716926
-0.000730993
-0.000710343
-0.00069953
-0.000700892
-0.00069841
-0.000683695
-0.000668169
-0.000664612
-0.000641504
-0.00057178
-0.000501653
-0.000494998
-0.000537431
-0.000591051
-0.000632247
-0.000660959
-0.000684465
-0.000703466
-0.000710714
-0.000682222
-0.000622991
-0.000598461
-0.000630805
-0.000649471
-0.000647364
-0.000528582
-0.000556997
-0.000574512
-0.00059074
-0.000611544
-0.000625172
-0.000610013
-0.000574839
-0.000551089
-0.000534501
-0.000519058
-0.000521564
-0.000528873
-0.000543405
-0.00056946
-0.00058522
-0.000579653
-0.000569604
-0.000555224
-0.000546893
-0.000542103
-0.000528348
-0.00051736
-0.00050793
-0.000468073
-0.000412221
-0.000387571
-0.000401951
-0.00043378
-0.000458486
-0.000466689
-0.000472181
-0.000492836
-0.000513403
-0.000504478
-0.0004654
-0.000432566
-0.000439266
-0.000466433
-0.000495108
-0.000441634
-0.000463461
-0.000476679
-0.000494876
-0.000522884
-0.00055205
-0.000563415
-0.000546067
-0.000521099
-0.000488344
-0.000448025
-0.000424351
-0.000417939
-0.000423594
-0.000441233
-0.000453655
-0.000455314
-0.000453681
-0.000444683
-0.000434666
-0.000433455
-0.000429656
-0.000425438
-0.000426907
-0.000411604
-0.000371838
-0.000336663
-0.00032203
-0.000331421
-0.000345558
-0.000335787
-0.000317694
-0.000326769
-0.000352741
-0.000364184
-0.000346934
-0.000320762
-0.00032258
-0.000358694
-0.000404481
-0.000388655
-0.000388945
-0.00039842
-0.000425138
-0.000450009
-0.000469111
-0.000482175
-0.000478815
-0.000467588
-0.000441486
-0.00039802
-0.000359523
-0.000341975
-0.000347828
-0.000363392
-0.000368499
-0.000369119
-0.000370964
-0.000368714
-0.000364757
-0.000364162
-0.000359375
-0.000353285
-0.000353113
-0.000347674
-0.000323972
-0.000298652
-0.000292138
-0.00030364
-0.000315637
-0.000301026
-0.000274143
-0.000269827
-0.000282961
-0.000294628
-0.000292485
-0.000283609
-0.000291441
-0.000324844
-0.000367031
-0.000351996
-0.000340822
-0.000341478
-0.000365615
-0.000389598
-0.000407167
-0.000416537
-0.00040748
-0.000390208
-0.00036509
-0.0003288
-0.000297151
-0.000285074
-0.00029206
-0.000310854
-0.000319907
-0.000321039
-0.000323604
-0.000324866
-0.000326382
-0.000328175
-0.000323966
-0.000319834
-0.000322268
-0.000323989
-0.000315777
-0.000305509
-0.000303952
-0.000309124
-0.000310655
-0.000292172
-0.000259568
-0.000243632
-0.000254741
-0.00027146
-0.00027912
-0.000280489
-0.000288795
-0.000310426
-0.00034052
-0.000309031
-0.00030227
-0.000301198
-0.000319234
-0.000336397
-0.000345792
-0.000349929
-0.000340032
-0.000324119
-0.000309976
-0.000291414
-0.000268853
-0.000250392
-0.000240909
-0.000246873
-0.0002514
-0.000244291
-0.000238929
-0.000240122
-0.000246372
-0.000254199
-0.000254311
-0.000254181
-0.00025755
-0.00026173
-0.000259988
-0.000254887
-0.000252074
-0.000253181
-0.000251532
-0.000236662
-0.000212763
-0.000199395
-0.000209287
-0.000229938
-0.000246466
-0.000256258
-0.000266316
-0.000278854
-0.000298058
-0.00025788
-0.000265099
-0.000267237
-0.000277432
-0.000286959
-0.00029306
-0.000299275
-0.000294587
-0.000283312
-0.000276326
-0.00026906
-0.000259719
-0.00024865
-0.000234082
-0.000227886
-0.000224077
-0.000213717
-0.000204173
-0.000197158
-0.000193952
-0.000196779
-0.000193516
-0.000186533
-0.000183124
-0.000179189
-0.000175905
-0.000173777
-0.000171865
-0.000169855
-0.000167674
-0.000160935
-0.000150647
-0.000142665
-0.000144959
-0.000156907
-0.000168863
-0.000178458
-0.000191662
-0.000208145
-0.000232869
-0.000172104
-0.000183607
-0.000183423
-0.00018782
-0.000195119
-0.00020011
-0.000206475
-0.000204865
-0.000196531
-0.000192013
-0.000187396
-0.000182304
-0.000178561
-0.000168704
-0.000161622
-0.00015656
-0.000149493
-0.000146921
-0.000142339
-0.00013537
-0.000134061
-0.00013117
-0.000122318
-0.000117296
-0.000115182
-0.000116093
-0.000121868
-0.000126201
-0.000124887
-0.000119902
-0.000111196
-0.000100555
-8.86271e-05
-8.09917e-05
-8.26574e-05
-8.7635e-05
-9.31265e-05
-0.000105804
-0.000122947
-0.000145977
-6.50282e-05
-7.31724e-05
-7.37789e-05
-7.88928e-05
-8.87407e-05
-9.82386e-05
-0.000108727
-0.000111349
-0.000107247
-0.000105555
-0.000104699
-0.000103468
-0.0001023
-9.5749e-05
-9.07599e-05
-8.84968e-05
-8.4473e-05
-8.35012e-05
-7.99579e-05
-7.20922e-05
-6.74186e-05
-6.23664e-05
-5.13946e-05
-4.28567e-05
-4.07449e-05
-4.43804e-05
-5.36286e-05
-6.1993e-05
-6.23256e-05
-5.60434e-05
-4.75386e-05
-4.01028e-05
-3.22878e-05
-2.49671e-05
-2.36698e-05
-2.23994e-05
-1.99797e-05
-2.6493e-05
-3.75387e-05
-4.97345e-05
8.45409e-06
1.15409e-08
-3.85599e-06
-8.44485e-06
-1.71458e-05
-2.9192e-05
-4.11967e-05
-4.51615e-05
-4.1114e-05
-3.73903e-05
-3.52097e-05
-3.35167e-05
-3.15751e-05
-2.41338e-05
-1.65287e-05
-1.06567e-05
-3.41152e-06
6.91197e-07
5.5553e-06
1.56597e-05
2.5193e-05
3.35382e-05
4.28655e-05
4.99304e-05
5.25029e-05
5.06138e-05
4.39372e-05
3.56045e-05
3.13707e-05
3.29895e-05
3.63984e-05
3.72933e-05
3.7115e-05
3.78626e-05
3.56424e-05
3.36939e-05
3.48623e-05
3.0403e-05
2.30731e-05
1.72927e-05
0.000149576
0.000143133
0.000135507
0.000127507
0.000119439
0.000109631
9.88573e-05
9.15075e-05
9.13532e-05
9.43258e-05
9.79922e-05
0.00010044
0.000102481
0.00010863
0.000113702
0.000116926
0.00012131
0.000122989
0.000124129
0.000129838
0.000135174
0.000139947
0.000146538
0.000152001
0.000153265
0.00015305
0.000151698
0.000147869
0.000141961
0.000140529
0.000145129
0.000148485
0.000150441
0.000155523
0.000158745
0.000159888
0.000162852
0.000162105
0.00015711
0.00015354
0.000198722
0.000193817
0.000187076
0.000180152
0.000175583
0.000172804
0.000168404
0.000163267
0.000162024
0.00016255
0.000163846
0.000164634
0.000164341
0.000166643
0.000169303
0.000170819
0.00017485
0.000177295
0.000178891
0.000184496
0.000189547
0.000193124
0.000197683
0.000201813
0.000204308
0.000206495
0.000210217
0.000211775
0.000209365
0.000206525
0.000208473
0.000211289
0.000211202
0.000212274
0.000212291
0.000209334
0.000208425
0.000208148
0.00020485
0.000201785
0.000260945
0.000257851
0.00025294
0.000247699
0.000242097
0.000238523
0.000236461
0.000232091
0.000230219
0.000231111
0.00023257
0.000235155
0.000236675
0.000240128
0.000243832
0.000244859
0.000248181
0.000252899
0.000255692
0.000259119
0.000262568
0.000266123
0.000271483
0.00027523
0.000275654
0.000276193
0.000278275
0.000278596
0.000275738
0.000271624
0.000269719
0.000271567
0.000271706
0.000271127
0.000270584
0.00026806
0.000266987
0.000267315
0.000264837
0.000261823
0.000309476
0.000307151
0.000302917
0.000300119
0.000294959
0.000290318
0.000289459
0.000286617
0.000283458
0.000282221
0.000282314
0.000284171
0.000284161
0.000285595
0.000289673
0.000290998
0.000291473
0.000293581
0.000295729
0.000297827
0.000298668
0.000299124
0.000302217
0.000305825
0.000306539
0.000307503
0.000311248
0.000314077
0.00031442
0.000314065
0.000311994
0.000312479
0.000313987
0.000313419
0.000314461
0.000314709
0.000314475
0.000314661
0.000312527
0.000309706
0.0003432
0.000341241
0.000338152
0.000336393
0.000331664
0.000325616
0.000324506
0.000322659
0.000320554
0.000319595
0.000319067
0.000321053
0.000321553
0.000321541
0.000323671
0.000324571
0.000325378
0.000327122
0.000329565
0.000332871
0.000335181
0.000336614
0.000340298
0.000345173
0.000348264
0.000349797
0.000352614
0.000354553
0.000354087
0.000354567
0.000353965
0.000352851
0.000353287
0.000351857
0.000349664
0.000347647
0.000346291
0.000346294
0.000345853
0.00034438
0.000419674
0.000416875
0.000415723
0.000414233
0.000410822
0.000407947
0.000407654
0.000406077
0.000404486
0.000403714
0.000402948
0.000403932
0.00040355
0.000401953
0.000402693
0.000403913
0.000404947
0.000406096
0.00040689
0.000409047
0.000411263
0.00041279
0.000415562
0.000419367
0.000423691
0.000427129
0.000430068
0.000432279
0.000431916
0.00043209
0.00043244
0.000431177
0.000430758
0.000430555
0.000429723
0.00042792
0.000425994
0.000424621
0.000423467
0.00042244
0.00025456
0.000216989
0.000273557
0.000337262
0.000380012
0.000325317
0.000187007
0.000108775
0.000186524
0.000351247
0.000416846
0.000408779
0.000388163
0.000348734
0.000258335
0.000149474
0.000102508
0.000137195
0.000238229
0.00025144
0.00018524
0.00019848
0.000305451
0.000451164
0.00055894
0.000601641
0.000578185
0.000557094
0.000577835
0.00053974
0.000435077
0.000346619
0.000309576
0.000348881
0.000391849
0.000390045
0.000349566
0.000331502
0.000337209
0.000317146
0.000249816
0.000212825
0.000270565
0.000334678
0.000376824
0.000320834
0.000181534
0.000104182
0.000182657
0.000347636
0.000412196
0.000403418
0.0003828
0.000343593
0.000253928
0.000145197
9.86521e-05
0.000133878
0.000235445
0.000248615
0.000182291
0.000195367
0.000302162
0.000447663
0.000554407
0.000596743
0.000572779
0.00055163
0.000572436
0.0005351
0.000431847
0.000344537
0.000308195
0.000347298
0.000390012
0.000387546
0.000346943
0.00032888
0.000334412
0.000313148
0.000222004
0.000183932
0.000244022
0.000310393
0.000350852
0.000291869
0.000150689
7.15661e-05
0.000151685
0.00031849
0.000381906
0.000369907
0.000346176
0.000307037
0.000219004
0.000110294
6.24341e-05
9.72939e-05
0.000200405
0.000215655
0.000150991
0.000165518
0.000272421
0.000418463
0.000525287
0.000564041
0.000536484
0.000516958
0.000543339
0.000508003
0.000406596
0.000321548
0.000287408
0.000326317
0.000368454
0.000365818
0.000323859
0.000306875
0.000313368
0.000288808
0.000165199
0.000124979
0.0001824
0.000250296
0.000292278
0.000232879
8.80783e-05
5.2717e-06
8.98119e-05
0.000263367
0.00032549
0.000306799
0.000274323
0.000232246
0.000148484
3.85534e-05
-1.6093e-05
1.57353e-05
0.000124193
0.000147903
8.89465e-05
0.000103947
0.000209303
0.000351457
0.000452781
0.000487185
0.000460669
0.000446942
0.000482925
0.000453742
0.000355905
0.00027362
0.000239643
0.000274781
0.000313438
0.00031076
0.000270665
0.000255247
0.00026387
0.000236028
7.93359e-05
3.24283e-05
8.36405e-05
0.000156928
0.000209567
0.000152517
-3.30965e-06
-9.40506e-05
1.54608e-06
0.000186259
0.000248396
0.000217918
0.000170592
0.000119967
4.00269e-05
-6.92724e-05
-0.000128472
-9.90858e-05
1.72326e-05
5.73944e-05
6.85566e-06
1.91526e-05
0.000115777
0.00024624
0.00034078
0.000376045
0.000356168
0.000344693
0.000387091
0.000368872
0.000278135
0.000193223
0.000156412
0.000181107
0.000215124
0.000214968
0.000179957
0.000169095
0.000180753
0.000151826
-3.9951e-05
-8.67959e-05
-3.84412e-05
5.08293e-05
0.000122663
6.3892e-05
-0.00011339
-0.000217466
-0.000115293
7.79728e-05
0.000143027
0.000100611
3.47865e-05
-2.24451e-05
-9.76588e-05
-0.000200083
-0.000259296
-0.000231682
-0.000108622
-5.06316e-05
-9.01307e-05
-8.8472e-05
-1.16394e-05
0.000101553
0.000190893
0.000226806
0.000210626
0.000194464
0.000246141
0.0002479
0.00016565
7.42544e-05
2.97709e-05
4.48569e-05
7.59628e-05
8.18126e-05
5.66417e-05
5.21439e-05
6.61651e-05
3.14993e-05
-0.000175292
-0.000217321
-0.000162564
-6.24131e-05
1.66416e-05
-4.88903e-05
-0.000234766
-0.000348855
-0.000257438
-7.1163e-05
-1.56024e-05
-6.99223e-05
-0.000131771
-0.00018507
-0.000253262
-0.000341657
-0.000388935
-0.000364858
-0.00024796
-0.000183282
-0.000212839
-0.000223479
-0.000171245
-7.89156e-05
3.44927e-06
3.86687e-05
1.82207e-05
3.07367e-06
6.81445e-05
8.89333e-05
1.75099e-05
-7.33789e-05
-0.000122278
-0.000112649
-8.12936e-05
-6.49953e-05
-8.07398e-05
-8.19306e-05
-6.91908e-05
-0.000106469
-0.0002971
-0.000342278
-0.000305315
-0.000221998
-0.000149257
-0.00019886
-0.000372607
-0.000490433
-0.00041265
-0.000243579
-0.000199313
-0.000252178
-0.000303774
-0.000346732
-0.000402152
-0.000479337
-0.000528704
-0.000522675
-0.000418478
-0.000345992
-0.000363322
-0.000383932
-0.000353055
-0.000273225
-0.00019812
-0.000171132
-0.000190369
-0.000198223
-0.000122821
-8.23498e-05
-0.000138452
-0.000231162
-0.000281314
-0.000266171
-0.000235228
-0.000212973
-0.000222136
-0.000226983
-0.000213372
-0.000240146
-0.000387552
-0.000453413
-0.000448586
-0.000399584
-0.000347501
-0.000382077
-0.00052254
-0.000624769
-0.000561711
-0.000413306
-0.000372659
-0.000410521
-0.000445155
-0.000473345
-0.000513605
-0.00059733
-0.000675608
-0.00069148
-0.000586817
-0.00049859
-0.000501248
-0.000527845
-0.000510421
-0.000437889
-0.000370932
-0.000353103
-0.000375986
-0.000381886
-0.000305596
-0.000245995
-0.00028162
-0.000366945
-0.000412294
-0.00039764
-0.000369347
-0.000343236
-0.000353096
-0.000360465
-0.000333677
-0.000333514
-0.000444452
-0.000528959
-0.000558999
-0.000543194
-0.000511569
-0.000536476
-0.000646677
-0.000728467
-0.000684188
-0.000560288
-0.000520388
-0.000538689
-0.000558798
-0.000582083
-0.000612336
-0.000697625
-0.000811009
-0.000846074
-0.000738566
-0.000622504
-0.000604702
-0.000636816
-0.000629039
-0.000565356
-0.000502857
-0.000488001
-0.000511833
-0.000527778
-0.0004665
-0.000405077
-0.000423163
-0.000489846
-0.000531324
-0.000517658
-0.000480543
-0.000446525
-0.000457685
-0.000460788
-0.000412996
-0.00039144
-0.000473649
-0.000572439
-0.00063101
-0.000641653
-0.000628659
-0.000646654
-0.000729855
-0.000804604
-0.0007784
-0.000664962
-0.000615415
-0.000621278
-0.000640122
-0.00067626
-0.000694893
-0.000761828
-0.000890493
-0.000954421
-0.000862848
-0.000738958
-0.000710857
-0.000748708
-0.000748455
-0.000685506
-0.00061485
-0.000586395
-0.000587007
-0.000600624
-0.000585558
-0.000563735
-0.000583757
-0.000626419
-0.000652005
-0.000625161
-0.000566702
-0.000519109
-0.000522925
-0.000517645
-0.000458089
-0.00042687
-0.000485477
-0.000579164
-0.000653648
-0.000682472
-0.000690341
-0.000713061
-0.000785608
-0.000865712
-0.000858478
-0.000752822
-0.000675289
-0.000647641
-0.000652163
-0.000692386
-0.0007121
-0.00076694
-0.00089236
-0.000975418
-0.000936068
-0.000857366
-0.000842027
-0.000882402
-0.000887668
-0.000820896
-0.000732226
-0.000676466
-0.000647977
-0.000652865
-0.000666718
-0.000688982
-0.000722355
-0.000738999
-0.00073945
-0.000701319
-0.000633397
-0.000571767
-0.00055905
-0.000541362
-0.000474212
-0.00044371
-0.000518432
-0.000597936
-0.000662307
-0.000691632
-0.000702561
-0.000729566
-0.000806254
-0.000895102
-0.000900838
-0.000801853
-0.000708203
-0.000655008
-0.000633833
-0.000654689
-0.000669935
-0.000722711
-0.000839224
-0.000931225
-0.000944703
-0.000917989
-0.000914955
-0.000943466
-0.000945746
-0.000893458
-0.000805608
-0.000734853
-0.0006927
-0.000687041
-0.000712969
-0.000764707
-0.000800154
-0.000785263
-0.000758239
-0.000719436
-0.000663459
-0.0006088
-0.000586028
-0.000564126
-0.000504983
-0.000479716
-0.000569278
-0.000634452
-0.000677672
-0.000690282
-0.000685638
-0.000709098
-0.000785105
-0.000867982
-0.000879327
-0.000784826
-0.000680779
-0.0006324
-0.000623015
-0.000642873
-0.000657057
-0.00069657
-0.000794592
-0.00088788
-0.000924609
-0.000916777
-0.000903634
-0.000907554
-0.000903589
-0.000878619
-0.000824692
-0.000766879
-0.000716759
-0.000697984
-0.000728877
-0.000796482
-0.000828266
-0.000787944
-0.000732474
-0.000686153
-0.00064927
-0.000609509
-0.000583778
-0.000570152
-0.000534226
-0.000523665
-0.000585576
-0.00064466
-0.000681234
-0.000689591
-0.000676055
-0.000679144
-0.000723625
-0.000784967
-0.000807166
-0.000731974
-0.000626932
-0.000583442
-0.000593219
-0.000632446
-0.000669869
-0.000706996
-0.000776497
-0.000843102
-0.000863622
-0.000846026
-0.000822481
-0.000814226
-0.000808874
-0.000812754
-0.00080373
-0.000776339
-0.000737648
-0.00072763
-0.000757779
-0.000803475
-0.000805256
-0.000741405
-0.000657864
-0.000600064
-0.000565225
-0.000539969
-0.000532623
-0.000545372
-0.000542233
-0.000543111
-0.00053669
-0.000581589
-0.000620139
-0.000642942
-0.000649172
-0.000658956
-0.000683402
-0.000721964
-0.000747137
-0.000697433
-0.000597887
-0.000541854
-0.000542528
-0.000584709
-0.000637217
-0.000673336
-0.000720349
-0.000758066
-0.000749121
-0.000716883
-0.000691356
-0.000679395
-0.000680699
-0.000697968
-0.000712434
-0.000717034
-0.000712835
-0.000731838
-0.000773555
-0.000785934
-0.00073732
-0.000638652
-0.000550008
-0.000504521
-0.00048446
-0.000470348
-0.000481216
-0.000520337
-0.000537774
-0.00052416
-0.000474933
-0.000503966
-0.000535821
-0.000560023
-0.000577557
-0.00060083
-0.000620318
-0.000646222
-0.000674152
-0.000647662
-0.000572788
-0.000517482
-0.000497854
-0.00052152
-0.000571072
-0.000606205
-0.000642429
-0.000663557
-0.000641983
-0.000598592
-0.000561423
-0.000554194
-0.00057549
-0.000605468
-0.00061992
-0.000630364
-0.000646463
-0.000678554
-0.000720529
-0.000718366
-0.00064433
-0.000532848
-0.000435263
-0.000387519
-0.000380013
-0.000386636
-0.000407826
-0.000443616
-0.000472818
-0.000472549
-0.000427459
-0.000440162
-0.000445227
-0.000449224
-0.000458088
-0.000488548
-0.000516441
-0.000531821
-0.000541078
-0.000516326
-0.000458132
-0.000418703
-0.000397637
-0.000400933
-0.000437072
-0.000467361
-0.000496455
-0.000528116
-0.000525741
-0.000484694
-0.000435773
-0.000415564
-0.000432816
-0.000461415
-0.000478958
-0.000490545
-0.000509004
-0.000535873
-0.000573764
-0.000580997
-0.000527751
-0.000435852
-0.000348251
-0.000297198
-0.00029186
-0.000306243
-0.000322821
-0.000345578
-0.000379751
-0.000409608
-0.000327751
-0.0003467
-0.000349869
-0.000335366
-0.000319408
-0.00034341
-0.000382881
-0.000404455
-0.000412386
-0.000393273
-0.000353917
-0.000329816
-0.000310786
-0.000296719
-0.000308997
-0.000323074
-0.000341277
-0.000371889
-0.00038484
-0.000367567
-0.000330835
-0.000300114
-0.000299905
-0.000317011
-0.00032752
-0.000335056
-0.000348834
-0.000366087
-0.00038981
-0.000404785
-0.000387189
-0.000338588
-0.000281094
-0.000237142
-0.000224298
-0.000225888
-0.000229629
-0.000236746
-0.000258193
-0.000294238
-0.000241823
-0.00026084
-0.00026767
-0.000257689
-0.000235488
-0.000239581
-0.0002732
-0.000307924
-0.000337477
-0.00034973
-0.000335972
-0.0003248
-0.000314387
-0.000300423
-0.000301971
-0.000304953
-0.000308552
-0.000321158
-0.000329386
-0.000326687
-0.000306999
-0.00027028
-0.000245966
-0.000246078
-0.000252141
-0.000256892
-0.000265204
-0.000274264
-0.000288077
-0.000308659
-0.000323694
-0.000319236
-0.000301551
-0.000275634
-0.000250176
-0.000230549
-0.000215073
-0.000203987
-0.000201042
-0.00021655
-0.000256185
-0.000257331
-0.000250996
-0.000235104
-0.000207513
-0.000196809
-0.000219011
-0.000255353
-0.00030048
-0.000337752
-0.000347186
-0.000344452
-0.000338991
-0.000334128
-0.000339954
-0.000342259
-0.000338054
-0.000337157
-0.000336192
-0.000330292
-0.00031686
-0.000287652
-0.000260109
-0.000250339
-0.000251265
-0.000252927
-0.00024966
-0.000247801
-0.000258463
-0.000278688
-0.000298952
-0.000305499
-0.000299954
-0.000284509
-0.000268148
-0.000256297
-0.000247846
-0.000243916
-0.000240861
-0.000247317
-0.000274622
-0.000264418
-0.000254586
-0.000244336
-0.000224639
-0.000211325
-0.000221607
-0.00024506
-0.000277281
-0.000305323
-0.000311641
-0.000304429
-0.000296411
-0.000292862
-0.00030012
-0.000305222
-0.000302429
-0.000299093
-0.000290398
-0.000278151
-0.000266186
-0.000249261
-0.000232198
-0.000225777
-0.000224838
-0.000222571
-0.000217355
-0.000214842
-0.000225335
-0.000244768
-0.000265331
-0.000275081
-0.000275015
-0.000273554
-0.000270935
-0.000269867
-0.00027136
-0.000276562
-0.000277633
-0.000278164
-0.000247188
-0.000246576
-0.000246364
-0.000248015
-0.000241168
-0.000231895
-0.000236168
-0.000246154
-0.000257042
-0.000264533
-0.00026317
-0.000258033
-0.000251013
-0.000244791
-0.000250607
-0.000258307
-0.000256363
-0.000250309
-0.000236226
-0.000220814
-0.000212431
-0.00020185
-0.000187769
-0.000177688
-0.000168962
-0.000160622
-0.000154177
-0.000149374
-0.000150674
-0.000160348
-0.000176712
-0.000191208
-0.000199274
-0.000205534
-0.000210263
-0.000211064
-0.000213111
-0.000223592
-0.000231835
-0.000239632
-0.000156448
-0.000158933
-0.000158697
-0.000163667
-0.000167299
-0.00016837
-0.000175025
-0.000181546
-0.000185793
-0.000189038
-0.000189661
-0.000188366
-0.000185489
-0.000177554
-0.000175122
-0.000174645
-0.000169027
-0.000162641
-0.000153173
-0.000141735
-0.000136296
-0.000130934
-0.000120669
-0.000112115
-0.000104843
-0.000100025
-0.000100465
-0.000100614
-9.67047e-05
-9.60312e-05
-0.000103125
-0.000114573
-0.000121233
-0.000125275
-0.000129034
-0.000127783
-0.000125067
-0.000132302
-0.000140237
-0.000147546
-6.80487e-05
-6.99089e-05
-6.88945e-05
-7.42066e-05
-8.37315e-05
-9.26893e-05
-0.000102629
-0.000110413
-0.000116119
-0.000121229
-0.000124991
-0.000128648
-0.000131343
-0.000126986
-0.000122507
-0.000119014
-0.000112013
-0.000106857
-0.000100537
-9.08925e-05
-8.51749e-05
-8.06787e-05
-7.27315e-05
-6.4674e-05
-5.81044e-05
-5.37503e-05
-5.5458e-05
-5.94557e-05
-5.8865e-05
-5.59032e-05
-5.81058e-05
-6.49731e-05
-7.03034e-05
-7.26364e-05
-7.53673e-05
-7.27987e-05
-6.4758e-05
-6.374e-05
-6.46961e-05
-6.43414e-05
9.18969e-06
2.23898e-06
-3.30322e-06
-9.639e-06
-1.62796e-05
-2.4496e-05
-3.27439e-05
-3.7991e-05
-3.81148e-05
-3.71134e-05
-3.62702e-05
-3.74487e-05
-3.96415e-05
-3.66756e-05
-3.32156e-05
-3.02851e-05
-2.59955e-05
-2.42184e-05
-2.3102e-05
-1.84813e-05
-1.56602e-05
-1.49173e-05
-1.13886e-05
-4.69871e-06
1.3585e-06
6.67067e-06
8.81689e-06
7.21379e-06
5.93648e-06
8.84165e-06
1.17538e-05
1.11973e-05
1.03468e-05
1.13655e-05
8.47215e-06
5.66277e-06
8.57271e-06
1.01152e-05
1.07743e-05
1.33514e-05
0.000146216
0.000138914
0.000132083
0.000125787
0.000119506
0.000111962
0.000103911
9.95197e-05
0.000101695
0.000105351
0.000107111
0.000107778
0.000108068
0.000112736
0.000117284
0.000118795
0.000121607
0.000123644
0.000124994