/*--------------------------------*- C++ -*----------------------------------*\
  =========                 |
  \\      /  F ield         | OpenFOAM: The Open Source CFD Toolbox
   \\    /   O peration     | Website:  https://openfoam.org
    \\  /    A nd           | Version:  10
     \\/     M anipulation  |
\*---------------------------------------------------------------------------*/
FoamFile
{
    format      ascii;
    class       volVectorField;
    location    "7";
    object      U;
}
// * * * * * * * * * * * * * * * * * * * * * * * * * * * * * * * * * * * * * //

dimensions      [0 1 -1 0 0 0 0];

internalField   nonuniform List<vector> 
25600
(
(0.0864892 -0.00015355 0.00771874)
(0.0807352 0.000218138 0.0116078)
(0.0734943 0.000140072 -0.00085436)
(0.0629165 0.000439507 -0.0202018)
(0.0574405 0.000460345 -0.016051)
(0.0604546 -5.12227e-06 -0.000667928)
(0.0667029 -0.000193875 -0.00675025)
(0.0704953 -0.000570731 -0.0154516)
(0.0769182 -0.000416137 -0.0128571)
(0.0858538 0.000189689 -0.0141688)
(0.0905456 8.01554e-05 -0.0144892)
(0.0831072 0.0002618 -0.0136252)
(0.0690285 0.000229665 -0.0137153)
(0.0651338 -0.000362046 -0.0046332)
(0.0711396 -0.000174982 -0.000439708)
(0.0610957 0.00061943 -0.00258999)
(0.0449773 0.000509286 0.00667156)
(0.0541838 -0.000566787 0.00507724)
(0.0800522 -0.000953864 -0.0164958)
(0.0933252 0.000237596 -0.0259925)
(0.0914875 0.00120944 -0.0174958)
(0.0748351 0.000872589 -0.0164954)
(0.0589772 -8.45627e-05 -0.00920671)
(0.0568304 -0.00103172 0.00325321)
(0.0574828 -0.000649609 0.00402397)
(0.0518926 0.000272552 0.0038967)
(0.044729 0.000486712 0.00402832)
(0.0473592 0.000362355 0.0112228)
(0.0527303 0.000271594 0.0268308)
(0.0618522 0.000266801 0.026481)
(0.0802059 0.000335627 0.00711912)
(0.0986807 4.32132e-05 -0.00716006)
(0.105631 -5.53955e-05 -0.00712838)
(0.109747 0.000290934 -0.00453105)
(0.122061 0.000146961 -0.00215583)
(0.131284 -0.000220767 0.00313536)
(0.121481 -0.000276731 0.00539824)
(0.0967247 0.000118782 -0.00589201)
(0.0861035 0.000173203 -0.00934354)
(0.0873353 -0.000280742 0.000981461)
(0.262514 -0.000441776 0.0189679)
(0.25001 0.000783549 0.0284698)
(0.236506 0.00101929 -0.00816148)
(0.203767 0.0025155 -0.0524127)
(0.187786 0.00215467 -0.0405154)
(0.193423 -0.000283247 -0.00649676)
(0.207542 -0.00121221 -0.011867)
(0.212199 -0.00186442 -0.0263719)
(0.215627 -0.0003207 -0.0230855)
(0.237348 0.00139778 -0.0263944)
(0.265172 0.000740642 -0.0307035)
(0.267007 0.00120666 -0.0343805)
(0.242541 8.27723e-05 -0.0379823)
(0.21325 -0.00165744 -0.0195409)
(0.201281 0.000286399 -0.0053228)
(0.177238 0.00332297 -0.00161697)
(0.160236 0.00172261 0.02299)
(0.178585 -0.00312139 0.0203497)
(0.223059 -0.00314296 -0.0241279)
(0.2492 0.00331612 -0.0419167)
(0.265873 0.00747481 -0.0345573)
(0.254686 0.00421307 -0.0433207)
(0.221729 -0.00161483 -0.0286903)
(0.187997 -0.00473317 0.00118343)
(0.156299 -0.00211818 0.00425496)
(0.142449 0.00186665 0.00633397)
(0.139089 0.00298839 0.0141918)
(0.149649 0.00251391 0.0349227)
(0.160614 0.00142349 0.0624562)
(0.181694 0.00133447 0.0539791)
(0.237101 0.00100979 0.00615911)
(0.284248 -0.000333694 -0.0298167)
(0.288515 -0.000640719 -0.0261394)
(0.295722 -0.000369942 -0.00901148)
(0.33982 -0.0020369 0.00332501)
(0.380358 -0.00258621 0.0121109)
(0.378153 -0.000930707 0.0194147)
(0.31629 0.00086223 -0.00290355)
(0.286104 0.000587944 -0.0124265)
(0.279295 -0.00137104 0.00446248)
(0.449343 -0.000381601 0.0194588)
(0.43923 0.000840551 0.0574034)
(0.426891 0.00111279 0.0232991)
(0.38273 0.00492712 -0.0612866)
(0.35286 0.00483497 -0.0731113)
(0.351926 -0.000365583 -0.031215)
(0.364509 -0.00252764 -0.0218756)
(0.351513 -0.0026786 -0.0306648)
(0.337413 0.00161082 -0.0258021)
(0.354264 0.0038516 -0.0247605)
(0.388052 0.00073006 -0.0244075)
(0.434686 0.00177975 -0.0347451)
(0.462056 0.000675081 -0.0563922)
(0.40767 -0.0029161 -0.0460397)
(0.341882 0.000975347 -0.0235786)
(0.30868 0.00574072 -0.0150528)
(0.309546 0.002746 0.019505)
(0.307274 -0.00686439 0.0356952)
(0.327236 -0.0059991 -0.0124139)
(0.346445 0.00676304 -0.0361751)
(0.391853 0.0168113 -0.0263993)
(0.441083 0.0114237 -0.0474153)
(0.423892 0.000115023 -0.0467656)
(0.352975 -0.00677962 -0.0092541)
(0.263345 -0.00373842 -0.00208916)
(0.229204 0.0027601 -0.000187622)
(0.237652 0.00563685 0.014586)
(0.269948 0.00654996 0.0468301)
(0.289075 0.0042985 0.0878541)
(0.288985 0.00263854 0.0899386)
(0.354469 0.000974273 0.0340471)
(0.436209 -0.00134055 -0.0343929)
(0.438854 -0.000514833 -0.0503991)
(0.432174 -0.000249301 -0.0260512)
(0.477864 -0.00542453 0.00213679)
(0.519508 -0.0088427 0.0133115)
(0.575824 -0.00396247 0.0298621)
(0.547238 0.00244984 0.0137083)
(0.514432 0.00196139 -0.00373811)
(0.489712 -0.00214071 0.00496237)
(0.62861 0.00152273 0.00637174)
(0.63421 0.000392051 0.0669581)
(0.614803 -0.00105062 0.0904304)
(0.574652 0.00414543 -0.0174789)
(0.554464 0.00575554 -0.086162)
(0.546571 -0.000323331 -0.0664301)
(0.567513 -0.00303165 -0.0515829)
(0.516932 -0.00353982 -0.0468271)
(0.451062 0.00454657 -0.0301849)
(0.455352 0.00920336 -0.0217859)
(0.458721 0.00319046 -0.00662615)
(0.489317 -0.000158688 -0.00538824)
(0.608332 -0.00182178 -0.0436041)
(0.630041 -0.00341005 -0.0636306)
(0.516695 0.00388973 -0.0516892)
(0.46886 0.00783549 -0.0547297)
(0.531311 -0.000759446 -0.0347087)
(0.499868 -0.014916 0.0157385)
(0.426145 -0.0107421 -0.00365934)
(0.415226 0.00957666 -0.0256681)
(0.43584 0.0256222 -0.00284636)
(0.52669 0.0180817 -0.0141816)
(0.5941 0.00308694 -0.0386522)
(0.542609 -0.00522521 -0.0114896)
(0.406124 -0.00284238 -0.00332094)
(0.325134 0.00297737 -0.0130443)
(0.324539 0.0051243 -0.00325478)
(0.384881 0.00840882 0.0364129)
(0.451726 0.00934601 0.0973692)
(0.427536 0.00737925 0.123768)
(0.431123 0.00254167 0.0830643)
(0.523429 -0.00298128 -0.00367794)
(0.545584 -0.000331768 -0.0558551)
(0.524806 0.00204474 -0.0440915)
(0.571627 -0.00384561 -0.00889073)
(0.581708 -0.011813 0.00612243)
(0.626404 -0.0105204 0.0263306)
(0.656499 0.000298119 0.0211654)
(0.698355 0.00438054 0.0100667)
(0.695329 0.000644352 0.0172421)
(0.762487 0.00685955 0.0116814)
(0.812416 0.00300747 0.0402135)
(0.79846 -0.00330572 0.123838)
(0.737261 -0.000518061 0.0579312)
(0.735777 0.00191215 -0.0478275)
(0.719265 -0.00475503 -0.0616575)
(0.783741 -0.00631258 -0.0659745)
(0.742242 -0.00292497 -0.0753867)
(0.59425 0.00875686 -0.0500812)
(0.560074 0.0153168 -0.0284987)
(0.551535 0.00908031 -0.00067777)
(0.527803 0.000737873 0.0215066)
(0.630217 -0.00805741 -0.00924527)
(0.748646 -0.00782276 -0.0488284)
(0.662858 0.0072436 -0.0545778)
(0.593542 0.0104651 -0.0949166)
(0.796855 -0.00211672 -0.146054)
(0.883388 -0.0198837 -0.0759729)
(0.608644 -0.0187762 -0.0174848)
(0.483127 0.00988723 -0.0257525)
(0.465056 0.0336092 0.0151979)
(0.551448 0.0213669 0.0303716)
(0.707939 0.000308966 -0.014887)
(0.722074 -0.00530391 -0.00513199)
(0.579082 0.00112113 0.00805939)
(0.454966 0.00499936 -0.0175951)
(0.417974 0.00205401 -0.029697)
(0.473052 0.00465624 0.00395027)
(0.583793 0.0109764 0.0792554)
(0.580565 0.0149669 0.136934)
(0.525256 0.00990757 0.122966)
(0.571275 -0.000990346 0.0392206)
(0.600553 0.000289498 -0.0389508)
(0.567072 0.00419359 -0.0471762)
(0.62384 -0.000398008 -0.0162404)
(0.65129 -0.00778552 -0.00506362)
(0.665588 -0.0111908 0.0169471)
(0.663721 -0.00328961 0.0217623)
(0.737916 0.00259841 0.014788)
(0.811406 0.00326465 0.0411292)
(0.804865 0.00939726 0.036276)
(0.900167 0.00594676 0.0200552)
(0.943325 -0.00209069 0.108394)
(0.867106 -0.00475198 0.105731)
(0.877224 -0.0049751 0.000483435)
(0.825907 -0.0110514 -0.0347106)
(0.90419 -0.0139772 -0.0374123)
(0.932523 -0.00666804 -0.0631288)
(0.760019 0.011944 -0.0694632)
(0.708609 0.0216009 -0.0602976)
(0.713221 0.0153893 -0.0308657)
(0.649327 0.00450667 0.0170723)
(0.680162 -0.0141038 0.0178881)
(0.802413 -0.0149959 -0.0232917)
(0.761516 0.0125572 -0.0383994)
(0.58713 0.00973114 -0.080715)
(0.679598 -0.0205592 -0.163694)
(1.15195 -0.0270793 -0.184513)
(0.95353 -0.017491 -0.0818488)
(0.581196 0.0108892 -0.0314108)
(0.507843 0.041459 0.0395403)
(0.564653 0.022763 0.0789035)
(0.781143 -0.01035 -0.00673192)
(0.882579 -0.0120363 -0.0198352)
(0.76151 0.00417546 0.0224313)
(0.619657 0.00925679 -0.00613515)
(0.539481 -0.000192998 -0.052302)
(0.552384 -0.0032053 -0.0400351)
(0.679387 0.00662545 0.0384295)
(0.706812 0.0198053 0.122132)
(0.630878 0.0201625 0.142558)
(0.627175 0.00606944 0.0768154)
(0.63807 0.00399927 -0.0137488)
(0.586388 0.00711615 -0.0415347)
(0.632321 0.00109516 -0.0145643)
(0.689387 -0.00453657 -0.0132973)
(0.725498 -0.00628722 -0.00311039)
(0.693093 -0.00167786 0.0168847)
(0.727941 0.00131471 0.0144623)
(0.826315 0.00314229 0.0518023)
(0.844178 0.0101574 0.0525756)
(0.91105 0.0051674 0.0174124)
(0.976869 -0.00321136 0.0799936)
(0.918019 -0.00785956 0.112449)
(0.948539 -0.0123327 0.0271541)
(0.881024 -0.0173237 -0.0201804)
(0.916598 -0.0216398 -0.0210194)
(1.02687 -0.0122762 -0.0380023)
(0.862488 0.0111157 -0.0507028)
(0.818928 0.0198605 -0.0770783)
(0.898305 0.0176028 -0.0921743)
(0.849498 0.0111459 -0.0435727)
(0.836613 -0.0149703 0.0138958)
(0.876848 -0.0231358 0.00303594)
(0.837491 0.0192868 -0.0391064)
(0.624361 0.0210995 -0.0658124)
(0.507169 -0.0425285 -0.0382398)
(0.974696 -0.0585323 -0.106133)
(1.16354 -0.016804 -0.130772)
(0.768014 0.0161063 -0.0569324)
(0.578789 0.0445743 0.0663413)
(0.555497 0.0209461 0.125693)
(0.769027 -0.0320341 0.0124638)
(0.966465 -0.0296695 -0.0640242)
(0.89593 0.00498679 0.0173137)
(0.779604 0.0150771 0.0274677)
(0.691682 0.000342807 -0.0465565)
(0.640361 -0.0115096 -0.0788398)
(0.741774 -0.00405636 -0.0110849)
(0.806743 0.0178341 0.0853885)
(0.737979 0.0281446 0.137893)
(0.699593 0.0165285 0.104304)
(0.680843 0.0113668 0.0126406)
(0.614612 0.0125512 -0.0335195)
(0.63616 0.00305884 -0.00638188)
(0.690612 -0.00384373 -0.00515773)
(0.755637 -0.000963104 -0.0227168)
(0.740191 0.00523721 -0.0045104)
(0.729958 0.00333764 0.00498848)
(0.840454 0.00268612 0.0485378)
(0.901871 0.00940678 0.0523191)
(0.933111 0.00606726 0.0225164)
(0.975679 -0.00644815 0.0572701)
(0.923011 -0.0135276 0.0959414)
(0.95043 -0.0183595 0.0332785)
(0.909251 -0.0211589 -0.021019)
(0.894554 -0.0306697 -0.0186645)
(1.04279 -0.0196289 -0.0305541)
(0.920586 0.0131384 -0.0418984)
(0.851367 0.014202 -0.0575658)
(0.975284 0.00482288 -0.0976134)
(0.965696 0.00789105 -0.0964139)
(0.986927 -0.014879 -0.0163506)
(1.00087 -0.0265287 0.00612309)
(0.870271 0.023053 -0.0531913)
(0.695102 0.0376109 -0.0522988)
(0.616526 -0.0371394 0.0399439)
(0.835267 -0.0792461 0.0249072)
(1.19716 -0.0267766 -0.0947723)
(0.959332 0.024436 -0.0810209)
(0.658659 0.0497719 0.0563648)
(0.561137 0.0199752 0.122406)
(0.743863 -0.0556356 0.0446384)
(1.00066 -0.0596867 -0.0823198)
(0.974563 -0.00376506 -0.0229184)
(0.878886 0.019644 0.0642044)
(0.843265 0.00400259 0.0260978)
(0.780122 -0.0160746 -0.0560913)
(0.792241 -0.0170011 -0.0357096)
(0.85444 0.00667257 0.0563728)
(0.819459 0.0276762 0.123546)
(0.771319 0.0262282 0.11661)
(0.733415 0.0214886 0.0359345)
(0.655745 0.0199659 -0.0233988)
(0.65814 0.00776219 0.00123653)
(0.693306 -0.00240404 0.0134811)
(0.759356 0.00256859 -0.0210849)
(0.775801 0.0151929 -0.0254204)
(0.736235 0.0100701 -0.0185705)
(0.842369 -0.000281235 0.0268909)
(0.915239 0.00386883 0.0267049)
(0.955956 0.0082373 0.0186666)
(0.994737 -0.00760548 0.037569)
(0.952624 -0.0205525 0.07507)
(0.955273 -0.0258413 0.03946)
(0.945362 -0.0234878 -0.019345)
(0.890096 -0.0383577 -0.0238421)
(1.01517 -0.028911 -0.0325535)
(0.970217 0.0158512 -0.0429581)
(0.887381 0.0136616 -0.0340082)
(0.973956 -0.00725221 -0.0663927)
(0.972565 -0.00158124 -0.0874377)
(1.00944 -0.0228294 -0.022913)
(1.0723 -0.0300821 -0.00748048)
(0.90272 0.0261964 -0.0608961)
(0.786845 0.0447304 -0.0366472)
(0.790244 -0.030219 0.0304594)
(0.850217 -0.092272 0.0486722)
(1.19051 -0.0452374 -0.0458053)
(1.07389 0.0308449 -0.0732646)
(0.740408 0.06315 0.0262623)
(0.652775 0.0245669 0.0902587)
(0.772373 -0.0671263 0.0549874)
(0.999659 -0.0831918 -0.0682894)
(0.990988 -0.0201089 -0.0786135)
(0.928492 0.00802241 0.0486847)
(0.983057 0.00208798 0.118871)
(0.985188 -0.0134325 0.0485577)
(0.922504 -0.0239928 -0.00620418)
(0.878286 -0.0084672 0.0484415)
(0.843842 0.0198715 0.112633)
(0.809789 0.0308879 0.115265)
(0.779724 0.0310791 0.0497315)
(0.704358 0.0279838 -0.0127099)
(0.697 0.0142696 -0.000372696)
(0.715249 0.00122357 0.0242179)
(0.761592 0.00568224 -0.00809087)
(0.797676 0.0253187 -0.0346752)
(0.756002 0.0221787 -0.0447661)
(0.82068 -0.00313824 -0.0117177)
(0.885394 -0.00406784 -0.0131371)
(0.949849 0.00651154 -0.00759131)
(1.02161 -0.00662517 0.0102405)
(1.02764 -0.0254746 0.057162)
(1.00723 -0.0336203 0.0507091)
(0.993281 -0.0261415 -0.00531282)
(0.917484 -0.0423946 -0.025117)
(0.970014 -0.0382257 -0.0353362)
(1.0072 0.0167435 -0.0357069)
(0.958387 0.0189434 -0.0175897)
(0.968362 -0.0102069 -0.0418398)
(0.967765 -0.00758762 -0.051455)
(1.0041 -0.0292275 -0.0190818)
(1.04853 -0.0323138 -0.0309231)
(0.90982 0.0288028 -0.0598995)
(0.883966 0.0440654 -0.02464)
(0.922208 -0.0259642 0.0104335)
(0.903337 -0.0982257 0.033725)
(1.13991 -0.0627539 -0.0228654)
(1.07333 0.0348393 -0.0618137)
(0.801455 0.0795907 0.0173251)
(0.771242 0.0375887 0.0864826)
(0.833669 -0.0644523 0.0509134)
(0.97944 -0.0956431 -0.0498599)
(1.00596 -0.0309884 -0.11227)
(0.952318 -0.0053783 -0.0181342)
(0.971072 -0.0152265 0.116945)
(1.06359 -0.0183533 0.124088)
(1.10032 -0.0237388 0.0418908)
(0.969446 -0.0177163 0.0412359)
(0.860415 0.00915532 0.0997859)
(0.83053 0.0308599 0.1068)
(0.828044 0.0374374 0.0513115)
(0.77626 0.0338311 -0.00765279)
(0.760696 0.0188318 -0.0134755)
(0.760839 0.00531186 0.0125598)
(0.780762 0.00877995 -0.00244409)
(0.803532 0.0335737 -0.0379303)
(0.778449 0.036731 -0.0665971)
(0.813977 0.000268531 -0.0515015)
(0.872966 -0.0112254 -0.0406492)
(0.932304 0.000400019 -0.0410945)
(1.01052 -0.00808302 -0.0174634)
(1.07456 -0.0298269 0.0402007)
(1.06882 -0.0396379 0.0517096)
(1.02508 -0.0278211 0.0077641)
(0.952146 -0.0435913 -0.0151359)
(0.943054 -0.0449924 -0.0264284)
(1.01311 0.0127693 -0.0227238)
(1.02451 0.024395 -0.00938999)
(0.986642 -0.00651706 -0.0241424)
(0.971084 -0.0109907 -0.0215083)
(1.01628 -0.0319198 -0.0229366)
(1.01824 -0.0285432 -0.0472477)
(0.90749 0.0296701 -0.0411859)
(0.933094 0.0372351 -0.0114263)
(0.992592 -0.0236008 0.00194813)
(0.939481 -0.0917033 0.0249012)
(1.02988 -0.0663336 -0.00819449)
(0.998879 0.0381821 -0.0494015)
(0.829301 0.0853338 0.0194621)
(0.827345 0.0465281 0.0890379)
(0.888738 -0.0571185 0.0459875)
(0.977522 -0.105545 -0.0461585)
(1.0271 -0.0413994 -0.109589)
(1.00364 -0.00267432 -0.0432186)
(0.934538 -0.0183907 0.0701332)
(0.9474 -0.0345188 0.113172)
(1.11257 -0.0344493 0.0605554)
(1.0931 -0.0229083 0.0240702)
(0.940784 -0.00113325 0.0740535)
(0.884303 0.0231171 0.107416)
(0.908759 0.036996 0.0679453)
(0.901613 0.0371763 0.00704009)
(0.881115 0.0226486 -0.0165113)
(0.837543 0.00917218 -0.00291914)
(0.816948 0.00985067 -0.00549937)
(0.807017 0.0364692 -0.0372876)
(0.787573 0.0465158 -0.077205)
(0.820893 0.00573508 -0.068331)
(0.880651 -0.019868 -0.0476111)
(0.926722 -0.0104671 -0.0601675)
(0.99517 -0.0136006 -0.0280597)
(1.0704 -0.0344361 0.0341469)
(1.07611 -0.0443805 0.0413262)
(1.02243 -0.0298913 0.0106618)
(0.974847 -0.0450313 -0.00252029)
(0.949035 -0.0496146 -0.0100809)
(1.00194 0.00644907 -0.00716517)
(1.04855 0.0268421 -0.00188331)
(1.01732 -0.00135989 -0.0137558)
(0.985887 -0.0142105 -0.00990835)
(1.01919 -0.0332238 -0.0270552)
(1.01172 -0.0223734 -0.049394)
(0.92632 0.0286386 -0.0254194)
(0.940069 0.0278207 -0.0147986)
(0.991529 -0.0270935 -0.00745059)
(0.965963 -0.0794343 0.0223542)
(0.944166 -0.0626967 0.00520632)
(0.911767 0.0311259 -0.0135334)
(0.825636 0.0797643 0.0407075)
(0.847903 0.0506577 0.0797969)
(0.934525 -0.0499175 0.0404991)
(0.998937 -0.108555 -0.0404731)
(1.01468 -0.0478869 -0.0946271)
(1.00197 0.00214874 -0.0444758)
(0.953244 -0.012504 0.0381293)
(0.926691 -0.04692 0.0695693)
(1.08658 -0.0534707 0.0529701)
(1.158 -0.0281243 0.0159239)
(1.01506 -0.00824126 0.0455166)
(0.915205 0.00565709 0.102559)
(0.935046 0.0204381 0.0946127)
(0.995751 0.029655 0.0378879)
(1.02613 0.0261669 0.00171647)
(0.950661 0.0175131 0.00101651)
(0.865452 0.0107433 -0.00328099)
(0.811722 0.0336512 -0.0353899)
(0.789981 0.0512901 -0.0821657)
(0.833491 0.00911269 -0.0714125)
(0.903322 -0.0246484 -0.0434159)
(0.92689 -0.0237501 -0.0554107)
(0.984867 -0.0227179 -0.0198589)
(1.05278 -0.0363276 0.0389366)
(1.05339 -0.0458683 0.0362277)
(1.01331 -0.0348736 0.00973287)
(1.00319 -0.0503691 0.00492906)
(0.971016 -0.0538756 0.00528653)
(0.981842 0.000357733 0.0115152)
(1.03128 0.0276698 0.00890092)
(1.03966 0.00308289 -0.010547)
(1.00481 -0.0158103 -0.0124714)
(1.00376 -0.0326377 -0.0306891)
(1.00152 -0.0169303 -0.0463853)
(0.944975 0.0288173 -0.023386)
(0.942762 0.0215284 -0.0279536)
(0.973326 -0.0311179 -0.0190824)
(0.976208 -0.0674102 0.0282175)
(0.921768 -0.0486001 0.0200592)
(0.821306 0.0219158 0.000724241)
(0.773624 0.0604807 0.0277778)
(0.852419 0.0364789 0.0466738)
(0.969127 -0.0524538 0.0290894)
(1.02495 -0.113616 -0.0288532)
(1.01875 -0.0565509 -0.0790066)
(0.997834 0.00263178 -0.0423119)
(0.954479 -0.00751074 0.0230823)
(0.930047 -0.0534021 0.0316237)
(1.06613 -0.0709 0.0165979)
(1.16951 -0.0274085 0.00183293)
(1.05148 -0.000259874 0.0284225)
(0.91855 -0.00607867 0.0847326)
(0.890137 -0.00638192 0.0941824)
(0.968426 0.000736665 0.053448)
(1.10318 0.0148641 0.0221932)
(1.07522 0.027567 0.0201073)
(0.946223 0.0180292 0.0136971)
(0.842726 0.0282768 -0.0313807)
(0.8107 0.0469005 -0.0859697)
(0.865497 0.00961855 -0.0714846)
(0.928217 -0.0231313 -0.0341012)
(0.931847 -0.0302173 -0.0432331)
(0.977216 -0.0287398 -0.0171115)
(1.03816 -0.0333039 0.03177)
(1.04881 -0.0435694 0.0290705)
(1.03964 -0.0415241 0.00253277)
(1.04959 -0.0569431 0.000888897)
(0.993685 -0.055848 0.0118636)
(0.95436 -0.00281067 0.0296054)
(1.00344 0.0263194 0.0265702)
(1.05086 0.00545357 -0.00483864)
(1.01986 -0.0136765 -0.0157921)
(0.982744 -0.0282214 -0.0337665)
(0.963681 -0.0133559 -0.0493093)
(0.931834 0.0285315 -0.0220896)
(0.955423 0.0224744 -0.0169677)
(0.983984 -0.0249327 -0.015659)
(0.963056 -0.0535894 0.0362395)
(0.923904 -0.0316396 0.0455874)
(0.845428 0.0174957 -0.00274024)
(0.824129 0.0366281 -0.0259768)
(0.905406 0.012835 -0.00817796)
(1.00734 -0.0580887 0.019038)
(1.04037 -0.11222 -0.00632881)
(1.01262 -0.0613126 -0.0581845)
(0.983451 0.00118547 -0.0413955)
(0.957138 -0.0032184 0.0100942)
(0.947683 -0.0533689 0.0151312)
(1.04096 -0.0849979 -0.00888799)
(1.14468 -0.0346614 -0.0224915)
(1.08278 0.0115642 0.0159872)
(0.960684 0.00104217 0.0776835)
(0.880418 -0.0187043 0.0819272)
(0.912122 -0.029847 0.0401547)
(1.08084 -0.0144636 0.0205456)
(1.1331 0.0245749 0.0345186)
(1.03498 0.0292074 0.030898)
(0.91429 0.02719 -0.025847)
(0.857405 0.0378075 -0.0793903)
(0.90127 0.00794441 -0.0626814)
(0.949383 -0.0178155 -0.0268628)
(0.950036 -0.0311812 -0.0353844)
(0.976917 -0.0324349 -0.0215872)
(1.02544 -0.0306197 0.0193476)
(1.05746 -0.041222 0.0190718)
(1.07684 -0.0480312 -0.0120324)
(1.08535 -0.0608551 -0.0117105)
(1.00876 -0.05384 0.0104782)
(0.934929 -0.00526068 0.0398027)
(0.98623 0.0230072 0.0475329)
(1.06192 0.00924675 0.00994072)
(1.02312 -0.00897254 -0.0175188)
(0.964634 -0.0220413 -0.0371108)
(0.936799 -0.00879719 -0.0517692)
(0.904741 0.0275786 -0.0159998)
(0.950242 0.0232984 0.00728853)
(1.00764 -0.0130736 -0.00177055)
(0.972247 -0.03428 0.0376144)
(0.92867 -0.0239389 0.0699661)
(0.901921 0.00243318 0.0114702)
(0.895654 0.015241 -0.0576745)
(0.941496 -0.00651746 -0.0399903)
(1.01498 -0.0694234 0.0288101)
(1.0413 -0.113604 0.029764)
(0.999571 -0.0645953 -0.0313107)
(0.96185 -0.00156415 -0.0408126)
(0.956445 -0.00169394 -0.00119642)
(0.974078 -0.0485069 0.00958872)
(1.03183 -0.0847863 -0.0127206)
(1.09879 -0.0416837 -0.0342826)
(1.07395 0.0128237 -0.00114862)
(0.986726 0.00905034 0.0711481)
(0.907207 -0.0164225 0.0796242)
(0.90108 -0.0444569 0.0325731)
(1.02201 -0.0390775 0.0191835)
(1.11275 0.015044 0.0450717)
(1.08632 0.0381104 0.0428119)
(0.993831 0.0314066 -0.020956)
(0.915976 0.0335238 -0.0754634)
(0.932069 0.00980113 -0.0590443)
(0.974917 -0.00950823 -0.0264608)
(0.978989 -0.0252254 -0.0351379)
(0.987689 -0.0304755 -0.0306349)
(1.01739 -0.0288096 0.00447343)
(1.0643 -0.0414405 0.00766444)
(1.1016 -0.0523598 -0.0255767)
(1.0991 -0.0610935 -0.0243787)
(1.01628 -0.0481622 0.00838838)
(0.935507 -0.00548536 0.046207)
(0.977122 0.0201483 0.0686689)
(1.06502 0.0164723 0.031906)
(1.03225 0.00196617 -0.0161521)
(0.948567 -0.013179 -0.0404472)
(0.910947 -0.00247123 -0.0481664)
(0.887084 0.0261929 -0.0111003)
(0.942581 0.0173361 0.0190851)
(1.01969 -0.00938616 0.00472933)
(1.00485 -0.0192697 0.0333389)
(0.948999 -0.0138996 0.0825255)
(0.902631 -0.0023086 0.0395509)
(0.892603 -0.00184109 -0.0324332)
(0.944714 -0.0298058 -0.00802317)
(1.00486 -0.0850635 0.0716568)
(1.02602 -0.117005 0.0787174)
(0.987922 -0.0694923 0.000961358)
(0.952287 -0.00709095 -0.0397545)
(0.95891 -0.00263676 -0.00425241)
(0.991793 -0.0439133 0.0166712)
(1.03665 -0.0805737 -0.00394974)
(1.07011 -0.0450406 -0.0301247)
(1.0618 0.0110959 -0.0119486)
(0.993307 0.0109143 0.050124)
(0.921584 -0.0170683 0.0614387)
(0.903566 -0.0507967 0.0252051)
(0.964709 -0.0527207 0.0350266)
(1.04117 0.0068405 0.075572)
(1.0544 0.0441969 0.0716601)
(1.01348 0.0367088 -0.00375802)
(0.953515 0.0312524 -0.075053)
(0.959335 0.0126887 -0.0640692)
(1.01302 -0.000931288 -0.0327427)
(1.01526 -0.0142083 -0.0373368)
(1.01362 -0.0223677 -0.0420223)
(1.02851 -0.0268162 -0.0159537)
(1.07083 -0.0451674 -0.0051945)
(1.10738 -0.0554932 -0.0307212)
(1.09859 -0.0572622 -0.0320804)
(1.02407 -0.0403889 0.00555056)
(0.95738 -0.00246145 0.049599)
(0.97489 0.020386 0.0831473)
(1.05042 0.0227547 0.0552791)
(1.04552 0.0152755 -0.00738868)
(0.94484 -0.000117513 -0.0391021)
(0.889127 -0.00294879 -0.0402784)
(0.894786 0.0117222 -0.0144668)
(0.948801 0.00747288 0.00936733)
(1.00332 -0.00770261 -0.00222811)
(1.00688 -0.0136353 0.0159194)
(0.978989 -0.0124909 0.0688881)
(0.943348 -0.00427557 0.0718228)
(0.950968 -0.00594848 0.0442734)
(1.00133 -0.034275 0.0622985)
(1.01247 -0.0860121 0.105451)
(0.996283 -0.114575 0.104182)
(0.97538 -0.0760577 0.0254449)
(0.964642 -0.0190795 -0.0335923)
(0.981542 -0.0081645 -0.00605997)
(1.01167 -0.0401994 0.0269592)
(1.04803 -0.0745126 0.0148672)
(1.06349 -0.0487574 -0.0214028)
(1.05942 0.00410046 -0.0206279)
(1.00435 0.0100846 0.0385302)
(0.930805 -0.0154357 0.055553)
(0.89894 -0.0510647 0.0204002)
(0.909098 -0.0583643 0.0415308)
(0.935446 0.00174173 0.0961561)
(0.961958 0.0442069 0.0985269)
(0.980726 0.0327242 0.0317174)
(0.973023 0.0228984 -0.0564452)
(0.994957 0.0120552 -0.0685786)
(1.05696 0.00235502 -0.0230265)
(1.04773 -0.00329882 -0.0234616)
(1.04158 -0.0145218 -0.0334036)
(1.05614 -0.0248772 -0.0224114)
(1.08102 -0.0462289 -0.0103031)
(1.09541 -0.0558558 -0.0222513)
(1.09073 -0.0531641 -0.0286289)
(1.04669 -0.0367543 0.00174879)
(0.995665 -0.00451354 0.0477492)
(0.976397 0.0187393 0.0810299)
(1.00277 0.0271601 0.0636375)
(1.01868 0.0266441 0.00354578)
(0.971778 0.0102507 -0.0394931)
(0.933852 -0.0135087 -0.0474269)
(0.931676 -0.0117483 -0.0336734)
(0.962288 -0.00305637 -0.0117343)
(0.988132 -0.00403442 0.000149513)
(0.987867 -0.00963534 0.0181395)
(0.990889 -0.0198946 0.0370782)
(0.981662 -0.0157501 0.0388994)
(0.974404 -0.0107137 0.0426866)
(0.998667 -0.0348231 0.0578259)
(0.995024 -0.07753 0.0742948)
(0.956764 -0.102038 0.0769868)
(0.949332 -0.0806684 0.0256494)
(0.974851 -0.0378807 -0.0292881)
(1.00743 -0.0209563 -0.0207612)
(1.02943 -0.0401309 0.0126144)
(1.05069 -0.0662683 0.0269597)
(1.05478 -0.0437939 -0.000140421)
(1.04924 0.0083077 -0.019248)
(1.01238 0.0209965 0.0297899)
(0.949333 -0.00562837 0.05598)
(0.913727 -0.0477494 0.0246836)
(0.899506 -0.0567066 0.0314511)
(0.890411 0.000636719 0.0679002)
(0.90477 0.0305584 0.0864881)
(0.94423 0.00607387 0.0739224)
(0.983531 -0.00568704 0.00714545)
(1.03445 -0.00310302 -0.0351562)
(1.07661 -0.000802036 0.0125349)
(1.0726 0.00125457 0.00839873)
(1.06452 -0.0135804 -0.00857329)
(1.07095 -0.0244635 -0.0159896)
(1.0876 -0.0403965 -0.0138311)
(1.09183 -0.0500321 -0.0105175)
(1.09039 -0.0530872 -0.00973905)
(1.06243 -0.0407527 -0.0014777)
(1.00779 -0.00497366 0.0286)
(0.958803 0.0231182 0.0619068)
(0.952624 0.0243461 0.0529713)
(0.97001 0.0103287 0.00295736)
(0.970389 -0.00715525 -0.0449792)
(0.981769 -0.0276781 -0.0687621)
(0.984153 -0.0222152 -0.0631516)
(0.993521 -0.00197644 -0.0324392)
(0.998887 0.00331 0.0029934)
(0.980208 -0.00157196 0.0241593)
(0.974834 -0.00943638 0.0196247)
(0.965437 -0.00847397 -0.00269012)
(0.951709 -0.00777413 -0.0140635)
(0.992237 -0.0330807 -0.00354996)
(1.0284 -0.0675914 0.019155)
(0.990478 -0.0813037 0.0386182)
(0.958153 -0.0722511 0.0146029)
(0.966772 -0.0543776 -0.0321698)
(0.997799 -0.0419134 -0.0420527)
(1.03151 -0.0413866 -0.0175883)
(1.05341 -0.0514417 0.0205806)
(1.04588 -0.0361341 0.0315455)
(1.02811 0.00153113 0.0158135)
(0.99694 0.0154313 0.0301558)
(0.960283 0.000127299 0.032416)
(0.94129 -0.0371382 0.00533394)
(0.916233 -0.0491217 0.0151312)
(0.891514 0.000534083 0.0365815)
(0.903066 0.013947 0.0581279)
(0.938853 -0.0243988 0.0868148)
(0.981715 -0.0376714 0.0625159)
(1.04395 -0.0235619 0.0188054)
(1.09475 -0.0178924 0.0468097)
(1.1158 -0.00365558 0.0322618)
(1.10924 -0.0124135 0.00398967)
(1.08721 -0.0210884 -0.00776023)
(1.09086 -0.0356845 -0.00697649)
(1.10123 -0.0469848 -0.00421569)
(1.1008 -0.0536337 -0.00730918)
(1.05702 -0.0427726 -0.0168306)
(0.995132 -0.00645605 0.00157864)
(0.9582 0.0223634 0.0449825)
(0.946953 0.0231554 0.0574262)
(0.948008 0.00503098 0.0233337)
(0.950125 -0.0176491 -0.0317637)
(0.994152 -0.039124 -0.0742444)
(1.02111 -0.0334326 -0.0729885)
(1.01077 -0.00491802 -0.0387705)
(0.997072 0.0114134 -0.00172796)
(0.975327 0.0078197 0.017704)
(0.965992 -0.0047545 0.0117724)
(0.949409 -0.0083541 -0.0182001)
(0.933235 -0.00977419 -0.0501127)
(0.994629 -0.0334773 -0.0583404)
(1.0733 -0.0604276 -0.0337545)
(1.05124 -0.0584938 0.000741793)
(0.99788 -0.047202 -0.00394749)
(0.976192 -0.050022 -0.0418037)
(0.987799 -0.0588193 -0.0629217)
(1.02805 -0.0534693 -0.0503473)
(1.06331 -0.0438437 -0.00298197)
(1.04099 -0.0263307 0.0400272)
(0.985727 0.00210323 0.0393169)
(0.941413 0.0161645 0.0227618)
(0.927255 0.0154179 -0.00828103)
(0.937413 -0.00391053 -0.0452294)
(0.934762 -0.0232264 -0.0314572)
(0.919452 0.00408431 0.00801755)
(0.936847 0.00733694 0.0431541)
(0.977872 -0.0396067 0.0773752)
(1.00327 -0.0625483 0.0770345)
(1.04944 -0.0492044 0.0525532)
(1.10817 -0.0525945 0.0522585)
(1.1527 -0.0304909 0.0337486)
(1.15736 -0.0209399 0.00188947)
(1.12259 -0.0154658 -0.00816333)
(1.10914 -0.0288886 -0.00273989)
(1.10612 -0.04796 0.000281193)
(1.10462 -0.0549658 -0.00723479)
(1.06741 -0.0387896 -0.0245884)
(1.00565 -0.00557311 -0.013189)
(0.968876 0.017172 0.0393153)
(0.940454 0.0175662 0.0751376)
(0.926235 0.00331205 0.0610819)
(0.938866 -0.0197976 0.00911234)
(0.998615 -0.0458952 -0.0487855)
(1.03917 -0.0408394 -0.0598363)
(1.01584 -0.00718662 -0.0283653)
(0.980554 0.0153526 -0.00846274)
(0.965628 0.0171549 -0.0124369)
(0.973847 0.00880926 -0.0223649)
(0.960448 -0.00113744 -0.0375958)
(0.930379 -0.017963 -0.0625074)
(0.969993 -0.0491774 -0.0850151)
(1.0584 -0.0643074 -0.0748748)
(1.06753 -0.0415259 -0.0370741)
(1.01855 -0.0219594 -0.0260394)
(0.987794 -0.0351228 -0.0447655)
(0.988081 -0.0604535 -0.0559255)
(1.01029 -0.0604552 -0.0466506)
(1.02706 -0.0366998 -0.0110952)
(0.993904 -0.00772231 0.0315549)
(0.935137 0.0125552 0.045957)
(0.895012 0.0147947 0.0415899)
(0.881583 0.0122612 0.0223695)
(0.901294 0.00527304 -0.0223058)
(0.937993 -0.00565217 -0.0415877)
(0.965025 0.0103452 -0.0119177)
(0.984898 0.0111057 0.0290645)
(1.01371 -0.0336009 0.0619722)
(1.02961 -0.0681307 0.0668543)
(1.0589 -0.07395 0.0547957)
(1.09959 -0.0664788 0.044016)
(1.15321 -0.0490489 0.0311575)
(1.15674 -0.0359893 0.00675684)
(1.10842 -0.0234567 -0.00668326)
(1.0891 -0.0264767 -0.00990785)
(1.10369 -0.0413795 -0.00419919)
(1.12594 -0.0519596 -0.00232794)
(1.10704 -0.0367271 -0.0188554)
(1.03749 -0.00148958 -0.021242)
(0.97457 0.0212634 0.0252444)
(0.922919 0.0201763 0.0775617)
(0.895376 0.00385093 0.0845965)
(0.913343 -0.0211241 0.0455307)
(0.977763 -0.0510141 -0.0117533)
(1.03588 -0.0520215 -0.0338541)
(1.04734 -0.017921 -0.0111806)
(1.02933 0.0110156 -0.00528449)
(1.00813 0.0195547 -0.0341006)
(1.00946 0.0176019 -0.0536982)
(1.00694 0.00850142 -0.0546028)
(0.985199 -0.0177118 -0.0636127)
(0.982267 -0.0562639 -0.0867243)
(1.0128 -0.0738976 -0.0921287)
(1.03734 -0.0491773 -0.0650147)
(1.04028 -0.0150491 -0.0436491)
(1.02281 -0.0122266 -0.0440412)
(0.985258 -0.0341355 -0.0415337)
(0.95433 -0.0432207 -0.0265443)
(0.958767 -0.0275388 -0.00721028)
(0.969401 0.00339152 0.0131739)
(0.965885 0.0309901 0.0255259)
(0.951322 0.0337206 0.0356566)
(0.931356 0.0212024 0.0354393)
(0.93624 0.00800597 0.00391812)
(0.961895 0.00103464 -0.0229058)
(0.984856 0.0145835 -0.0120111)
(1.00225 0.0187907 0.0170732)
(1.02894 -0.0168756 0.0455686)
(1.04419 -0.0545614 0.051338)
(1.05729 -0.0743816 0.0436555)
(1.09377 -0.0817888 0.0365315)
(1.15761 -0.0601328 0.0295575)
(1.16724 -0.0351775 0.0158549)
(1.10115 -0.0224261 0.00161976)
(1.0487 -0.0324847 -0.0182696)
(1.06527 -0.0466469 -0.0237767)
(1.12175 -0.0464336 -0.0152766)
(1.12596 -0.0223267 -0.016758)
(1.05336 0.0113763 -0.0183482)
(0.973801 0.0253003 0.0152443)
(0.916722 0.0171993 0.0690951)
(0.891002 -0.000539113 0.0909071)
(0.91374 -0.0223668 0.0649517)
(0.97066 -0.0469895 0.0177021)
(1.01476 -0.0522937 -0.00802154)
(1.03646 -0.0305952 0.0085603)
(1.04493 -0.00381174 0.0215252)
(1.03341 0.0169558 -0.00765142)
(1.0236 0.0286094 -0.0445673)
(1.02284 0.0195647 -0.0621365)
(1.02489 -0.0126874 -0.072852)
(1.03227 -0.0452869 -0.084682)
(1.0338 -0.0618447 -0.0897552)
(1.02602 -0.0561485 -0.0754119)
(1.02512 -0.0321549 -0.0462347)
(1.03158 -0.0148608 -0.0279996)
(1.01539 -0.0148808 -0.0245777)
(0.971334 -0.0224604 -0.0223225)
(0.940201 -0.0272625 -0.0198697)
(0.933412 -0.0138894 -0.0218132)