/*--------------------------------*- C++ -*----------------------------------*\
  =========                 |
  \\      /  F ield         | OpenFOAM: The Open Source CFD Toolbox
   \\    /   O peration     | Website:  https://openfoam.org
    \\  /    A nd           | Version:  10
     \\/     M anipulation  |
\*---------------------------------------------------------------------------*/
FoamFile
{
    format      ascii;
    class       volScalarField;
    location    "20";
    object      nut;
}
// * * * * * * * * * * * * * * * * * * * * * * * * * * * * * * * * * * * * * //

dimensions      [0 2 -1 0 0 0 0];

internalField   nonuniform List<scalar> 
25600
(
3.29598e-06
3.29881e-06
3.29983e-06
3.30253e-06
3.28951e-06
3.29917e-06
3.30265e-06
3.3012e-06
3.29915e-06
3.28665e-06
3.30267e-06
3.29256e-06
3.31341e-06
3.29283e-06
3.2991e-06
3.2804e-06
3.3057e-06
3.29397e-06
3.3145e-06
3.31071e-06
3.29994e-06
3.29587e-06
3.28297e-06
3.2792e-06
3.27521e-06
3.28467e-06
3.27547e-06
3.28915e-06
3.29484e-06
3.28359e-06
3.30067e-06
3.29738e-06
3.29125e-06
3.29765e-06
3.2992e-06
3.29947e-06
3.29069e-06
3.29736e-06
3.30631e-06
3.29076e-06
2.5923e-06
2.58662e-06
2.58641e-06
2.59228e-06
2.58538e-06
2.59419e-06
2.58584e-06
2.59009e-06
2.5899e-06
2.58626e-06
2.59329e-06
2.58469e-06
2.58985e-06
2.5915e-06
2.58604e-06
2.58855e-06
2.59226e-06
2.58297e-06
2.59784e-06
2.58521e-06
2.59726e-06
2.58726e-06
2.5815e-06
2.59422e-06
2.5771e-06
2.59125e-06
2.58399e-06
2.58536e-06
2.5902e-06
2.58424e-06
2.59344e-06
2.58469e-06
2.58675e-06
2.58986e-06
2.58601e-06
2.59038e-06
2.58634e-06
2.58665e-06
2.59155e-06
2.58382e-06
2.04364e-06
2.02731e-06
2.03886e-06
2.03118e-06
2.03566e-06
2.04657e-06
2.02213e-06
2.04419e-06
2.02929e-06
2.03634e-06
2.0417e-06
2.02394e-06
2.03545e-06
2.035e-06
2.02664e-06
2.04547e-06
2.02905e-06
2.0348e-06
2.03929e-06
2.02135e-06
2.05268e-06
2.02747e-06
2.03518e-06
2.05192e-06
2.02719e-06
2.04902e-06
2.03457e-06
2.04255e-06
2.03389e-06
2.03762e-06
2.04489e-06
2.02544e-06
2.03943e-06
2.03489e-06
2.03329e-06
2.03462e-06
2.03182e-06
2.03839e-06
2.03016e-06
2.03084e-06
1.78783e-06
1.76827e-06
1.7918e-06
1.76647e-06
1.78885e-06
1.78998e-06
1.7619e-06
1.80052e-06
1.76132e-06
1.78975e-06
1.78362e-06
1.76314e-06
1.78853e-06
1.76886e-06
1.77474e-06
1.79137e-06
1.76627e-06
1.78891e-06
1.77589e-06
1.76985e-06
1.80422e-06
1.76251e-06
1.79079e-06
1.79279e-06
1.77284e-06
1.80081e-06
1.77482e-06
1.79559e-06
1.77274e-06
1.79023e-06
1.78862e-06
1.76832e-06
1.7891e-06
1.77377e-06
1.7848e-06
1.77515e-06
1.77618e-06
1.7877e-06
1.76787e-06
1.78097e-06
1.57266e-06
1.56062e-06
1.58722e-06
1.54687e-06
1.59561e-06
1.57117e-06
1.55526e-06
1.59864e-06
1.53689e-06
1.59862e-06
1.56256e-06
1.55462e-06
1.58505e-06
1.54455e-06
1.57703e-06
1.57675e-06
1.55432e-06
1.58902e-06
1.55348e-06
1.57369e-06
1.59417e-06
1.54672e-06
1.59573e-06
1.57275e-06
1.57257e-06
1.59372e-06
1.56248e-06
1.59471e-06
1.55566e-06
1.59411e-06
1.57192e-06
1.56271e-06
1.58078e-06
1.55904e-06
1.58575e-06
1.55674e-06
1.57304e-06
1.57859e-06
1.55151e-06
1.58197e-06
1.37768e-06
1.386e-06
1.39964e-06
1.35599e-06
1.43118e-06
1.37085e-06
1.3853e-06
1.40955e-06
1.34156e-06
1.43808e-06
1.35751e-06
1.38254e-06
1.39566e-06
1.34679e-06
1.41032e-06
1.3794e-06
1.37654e-06
1.40674e-06
1.35657e-06
1.41079e-06
1.39956e-06
1.36501e-06
1.42166e-06
1.37484e-06
1.4065e-06
1.40278e-06
1.38158e-06
1.41451e-06
1.36487e-06
1.42635e-06
1.37499e-06
1.39101e-06
1.38797e-06
1.37445e-06
1.41147e-06
1.36073e-06
1.40299e-06
1.38526e-06
1.36514e-06
1.40933e-06
1.20523e-06
1.23961e-06
1.22257e-06
1.19488e-06
1.28354e-06
1.19344e-06
1.24821e-06
1.2243e-06
1.1791e-06
1.29384e-06
1.17341e-06
1.24373e-06
1.21086e-06
1.17855e-06
1.26268e-06
1.20124e-06
1.22995e-06
1.23312e-06
1.18795e-06
1.27089e-06
1.22129e-06
1.21688e-06
1.2565e-06
1.20311e-06
1.26768e-06
1.2259e-06
1.23184e-06
1.24489e-06
1.20104e-06
1.27694e-06
1.20007e-06
1.24944e-06
1.20398e-06
1.22147e-06
1.25067e-06
1.1907e-06
1.26005e-06
1.20257e-06
1.20968e-06
1.25218e-06
1.06097e-06
1.11437e-06
1.05586e-06
1.06188e-06
1.14403e-06
1.04656e-06
1.13429e-06
1.04441e-06
1.05048e-06
1.15238e-06
1.01992e-06
1.12817e-06
1.03223e-06
1.04083e-06
1.12152e-06
1.04975e-06
1.10838e-06
1.06596e-06
1.04835e-06
1.14192e-06
1.06698e-06
1.09797e-06
1.09467e-06
1.06067e-06
1.14357e-06
1.06927e-06
1.11043e-06
1.08116e-06
1.06516e-06
1.13619e-06
1.05274e-06
1.13009e-06
1.03057e-06
1.09917e-06
1.09504e-06
1.05261e-06
1.13348e-06
1.03331e-06
1.08251e-06
1.10282e-06
9.46005e-07
9.98897e-07
9.04679e-07
9.50602e-07
1.01147e-06
9.33921e-07
1.03052e-06
8.7781e-07
9.49551e-07
1.01166e-06
9.02857e-07
1.01987e-06
8.68408e-07
9.27253e-07
9.8462e-07
9.30982e-07
1.0014e-06
9.10446e-07
9.33444e-07
1.01921e-06
9.42868e-07
9.97491e-07
9.39323e-07
9.45689e-07
1.02508e-06
9.40757e-07
1.00905e-06
9.25706e-07
9.54529e-07
9.99434e-07
9.36357e-07
1.0205e-06
8.75032e-07
9.99597e-07
9.45341e-07
9.47709e-07
1.01159e-06
8.85881e-07
9.74706e-07
9.62446e-07
8.57628e-07
8.89908e-07
7.72723e-07
8.49919e-07
8.94125e-07
8.54363e-07
9.29834e-07
7.32585e-07
8.64526e-07
8.82106e-07
8.21112e-07
9.11446e-07
7.2717e-07
8.23817e-07
8.62562e-07
8.44016e-07
9.02175e-07
7.73325e-07
8.33066e-07
9.09469e-07
8.50356e-07
9.04565e-07
7.97697e-07
8.51579e-07
9.13587e-07
8.4305e-07
9.17224e-07
7.84876e-07
8.60987e-07
8.71125e-07
8.50433e-07
9.12176e-07
7.4356e-07
9.09436e-07
8.11648e-07
8.71508e-07
8.91751e-07
7.6415e-07
8.74049e-07
8.40206e-07
7.9034e-07
7.95298e-07
6.58459e-07
7.53175e-07
8.05489e-07
8.05001e-07
8.39405e-07
6.07315e-07
7.84704e-07
7.80236e-07
7.72281e-07
8.11284e-07
6.06703e-07
7.19659e-07
7.70805e-07
7.8569e-07
8.16177e-07
6.53534e-07
7.40818e-07
8.25436e-07
7.86188e-07
8.1731e-07
6.73129e-07
7.68481e-07
8.18549e-07
7.75837e-07
8.32175e-07
6.62734e-07
7.7403e-07
7.6025e-07
7.91787e-07
8.09462e-07
6.34876e-07
8.18277e-07
7.05252e-07
8.18821e-07
7.82795e-07
6.64573e-07
7.7184e-07
7.45551e-07
7.41725e-07
7.30064e-07
5.61053e-07
6.66708e-07
7.59076e-07
7.85888e-07
7.78476e-07
5.00957e-07
7.14441e-07
7.24001e-07
7.55608e-07
7.4174e-07
5.0759e-07
6.21047e-07
7.27564e-07
7.54436e-07
7.6021e-07
5.4697e-07
6.65441e-07
7.84438e-07
7.48992e-07
7.45463e-07
5.62528e-07
6.95287e-07
7.54214e-07
7.3909e-07
7.64141e-07
5.58874e-07
6.86765e-07
6.80186e-07
7.58142e-07
7.30266e-07
5.47723e-07
7.22417e-07
6.34757e-07
7.8648e-07
7.03937e-07
5.85668e-07
6.72137e-07
6.86636e-07
7.18137e-07
7.21083e-07
5.09867e-07
6.16904e-07
7.75565e-07
7.99629e-07
7.82583e-07
4.34214e-07
6.75043e-07
7.48237e-07
7.71817e-07
7.34317e-07
4.65716e-07
5.653e-07
7.7233e-07
7.54297e-07
7.56648e-07
4.64647e-07
6.39353e-07
8.14428e-07
7.39856e-07
7.0588e-07
4.68034e-07
6.46241e-07
7.41141e-07
7.36078e-07
7.42532e-07
4.88739e-07
6.00153e-07
6.52979e-07
7.54385e-07
7.0751e-07
5.06993e-07
6.27817e-07
6.22259e-07
7.7954e-07
6.82546e-07
5.54689e-07
5.92112e-07
6.77181e-07
7.05108e-07
8.79186e-07
6.7409e-07
6.57e-07
9.18865e-07
8.1433e-07
9.53382e-07
5.29242e-07
7.18302e-07
9.4444e-07
7.97141e-07
8.62203e-07
6.43862e-07
6.36834e-07
9.93059e-07
7.60477e-07
9.07133e-07
5.68443e-07
7.13299e-07
9.7042e-07
7.43037e-07
7.66561e-07
4.90441e-07
6.44505e-07
8.11275e-07
7.35498e-07
8.53657e-07
5.71708e-07
5.30122e-07
7.42373e-07
7.83745e-07
8.34046e-07
6.5871e-07
5.58404e-07
7.47941e-07
7.88595e-07
8.1637e-07
7.22448e-07
5.52136e-07
7.69393e-07
7.67381e-07
1.56837e-06
1.32603e-06
1.0039e-06
1.46344e-06
7.78155e-07
1.60981e-06
1.03499e-06
1.01752e-06
1.57624e-06
8.55776e-07
1.44539e-06
1.2652e-06
1.08828e-06
1.65652e-06
8.39332e-07
1.6242e-06
1.22026e-06
1.02789e-06
1.50519e-06
8.10601e-07
1.2886e-06
1.00422e-06
8.65249e-07
1.21304e-06
6.35861e-07
1.37102e-06
1.08676e-06
6.05409e-07
1.2156e-06
8.22873e-07
1.41985e-06
1.26558e-06
7.14228e-07
1.31328e-06
8.28598e-07
1.47764e-06
1.3731e-06
7.24699e-07
1.33981e-06
2.55719e-06
3.44175e-06
2.68478e-06
2.75584e-06
3.56273e-06
2.5742e-06
3.39402e-06
2.2226e-06
2.47107e-06
3.62764e-06
2.58218e-06
3.36982e-06
2.52469e-06
3.07471e-06
3.73757e-06
2.85914e-06
3.70072e-06
2.69413e-06
2.61618e-06
3.60567e-06
2.53057e-06
3.13707e-06
2.50414e-06
2.57223e-06
3.12059e-06
2.06386e-06
2.9101e-06
2.37761e-06
1.86238e-06
3.06955e-06
1.89668e-06
3.17637e-06
2.48535e-06
2.05803e-06
3.09592e-06
2.45733e-06
3.42991e-06
2.86777e-06
2.41715e-06
3.5473e-06
7.36907e-06
6.99646e-06
6.19939e-06
7.18633e-06
8.63358e-06
7.5605e-06
6.76485e-06
5.4866e-06
6.61976e-06
8.56492e-06
7.49887e-06
7.24401e-06
5.86913e-06
7.86741e-06
8.43381e-06
8.08463e-06
7.53248e-06
6.27904e-06
6.94997e-06
8.56311e-06
7.20193e-06
6.93508e-06
6.11619e-06
7.02406e-06
7.65068e-06
6.65655e-06
6.21921e-06
5.65517e-06
5.64344e-06
7.54354e-06
6.04963e-06
6.82556e-06
5.23368e-06
5.79458e-06
7.45812e-06
7.36231e-06
7.22741e-06
6.40746e-06
6.83385e-06
8.39236e-06
1.39339e-05
1.20757e-05
1.3071e-05
1.40417e-05
1.61867e-05
1.38753e-05
1.14673e-05
1.20356e-05
1.37067e-05
1.60935e-05
1.42334e-05
1.24672e-05
1.27927e-05
1.48141e-05
1.5483e-05
1.49297e-05
1.24899e-05
1.29952e-05
1.38129e-05
1.57837e-05
1.35824e-05
1.22745e-05
1.26063e-05
1.37231e-05
1.4453e-05
1.32545e-05
1.13802e-05
1.18483e-05
1.21477e-05
1.44853e-05
1.26974e-05
1.19447e-05
1.09663e-05
1.23974e-05
1.49198e-05
1.43164e-05
1.23678e-05
1.28724e-05
1.36327e-05
1.54714e-05
1.95727e-05
1.88704e-05
2.12719e-05
2.20991e-05
2.34544e-05
1.86973e-05
1.79795e-05
2.03849e-05
2.23232e-05
2.36616e-05
1.98485e-05
1.91065e-05
2.13184e-05
2.2333e-05
2.28132e-05
2.03844e-05
1.87772e-05
2.11688e-05
2.18462e-05
2.29148e-05
1.91887e-05
1.89571e-05
2.05004e-05
2.12365e-05
2.1719e-05
1.92197e-05
1.81898e-05
1.96032e-05
2.02849e-05
2.20565e-05
1.90416e-05
1.81631e-05
1.88821e-05
2.11844e-05
2.31466e-05
2.02262e-05
1.87299e-05
2.07557e-05
2.1492e-05
2.27312e-05
2.40716e-05
2.66733e-05
2.85608e-05
2.97196e-05
2.76565e-05
2.26127e-05
2.60198e-05
2.83527e-05
3.03266e-05
2.85514e-05
2.41559e-05
2.68229e-05
2.87541e-05
2.92924e-05
2.77917e-05
2.44112e-05
2.62845e-05
2.86452e-05
2.93383e-05
2.76287e-05
2.38597e-05
2.64985e-05
2.76639e-05
2.83918e-05
2.70783e-05
2.40513e-05
2.58685e-05
2.69979e-05
2.83931e-05
2.77125e-05
2.39087e-05
2.55304e-05
2.69994e-05
3.00055e-05
2.87197e-05
2.45109e-05
2.61057e-05
2.80457e-05
2.8917e-05
2.77635e-05
2.90966e-05
3.36225e-05
3.45079e-05
3.47812e-05
2.93699e-05
2.79203e-05
3.36192e-05
3.48906e-05
3.57255e-05
3.07768e-05
2.90956e-05
3.36718e-05
3.45092e-05
3.42407e-05
3.03576e-05
2.91165e-05
3.32004e-05
3.47066e-05
3.44417e-05
3.0168e-05
2.91026e-05
3.32206e-05
3.34787e-05
3.376e-05
3.02178e-05
2.92516e-05
3.28185e-05
3.3359e-05
3.45004e-05
3.07599e-05
2.89679e-05
3.26764e-05
3.42156e-05
3.61368e-05
3.12387e-05
2.91254e-05
3.29422e-05
3.40761e-05
3.42111e-05
3.05126e-05
3.44896e-05
3.89145e-05
3.86507e-05
3.69022e-05
3.13916e-05
3.4064e-05
3.95366e-05
3.93328e-05
3.81736e-05
3.25923e-05
3.44916e-05
3.87509e-05
3.84871e-05
3.67314e-05
3.26992e-05
3.4341e-05
3.85958e-05
3.88381e-05
3.68969e-05
3.25852e-05
3.45848e-05
3.82885e-05
3.77569e-05
3.67758e-05
3.29078e-05
3.46903e-05
3.82686e-05
3.81357e-05
3.78122e-05
3.30209e-05
3.45564e-05
3.8484e-05
3.95055e-05
3.88454e-05
3.3079e-05
3.42732e-05
3.83372e-05
3.83835e-05
3.69823e-05
3.29206e-05
3.92592e-05
4.23449e-05
4.07112e-05
3.78152e-05
3.46117e-05
3.96468e-05
4.32718e-05
4.15572e-05
3.90702e-05
3.51633e-05
3.92934e-05
4.19739e-05
4.06358e-05
3.80431e-05
3.57213e-05
3.90461e-05
4.21676e-05
4.08999e-05
3.81541e-05
3.56404e-05
3.93172e-05
4.1627e-05
4.03342e-05
3.84407e-05
3.60288e-05
3.94651e-05
4.19964e-05
4.09381e-05
3.93758e-05
3.58443e-05
3.96418e-05
4.25008e-05
4.23311e-05
3.96638e-05
3.56391e-05
3.8999e-05
4.19831e-05
4.07584e-05
3.84515e-05
3.58738e-05
4.27299e-05
4.39765e-05
4.14405e-05
3.89162e-05
3.82048e-05
4.37175e-05
4.48956e-05
4.23135e-05
3.97643e-05
3.80818e-05
4.28043e-05
4.35057e-05
4.16153e-05
3.92937e-05
3.88638e-05
4.25193e-05
4.39143e-05
4.16625e-05
3.93628e-05
3.87777e-05
4.27212e-05
4.33799e-05
4.16598e-05
3.97956e-05
3.9164e-05
4.29718e-05
4.39925e-05
4.22498e-05
4.04945e-05
3.89534e-05
4.34378e-05
4.46022e-05
4.33262e-05
4.0199e-05
3.85752e-05
4.25527e-05
4.38739e-05
4.17988e-05
3.97027e-05
3.89156e-05
4.46831e-05
4.43223e-05
4.17578e-05
4.03116e-05
4.12814e-05
4.59227e-05
4.50474e-05
4.24811e-05
4.06112e-05
4.06567e-05
4.47711e-05
4.38737e-05
4.21634e-05
4.0596e-05
4.14569e-05
4.44733e-05
4.43471e-05
4.1975e-05
4.06558e-05
4.13575e-05
4.46408e-05
4.398e-05
4.23595e-05
4.1074e-05
4.17402e-05
4.49849e-05
4.46657e-05
4.28369e-05
4.16054e-05
4.16496e-05
4.56348e-05
4.5186e-05
4.34877e-05
4.09434e-05
4.11783e-05
4.46199e-05
4.44532e-05
4.22524e-05
4.0952e-05
4.14275e-05
4.53241e-05
4.40094e-05
4.20307e-05
4.1612e-05
4.33225e-05
4.65139e-05
4.44639e-05
4.24987e-05
4.14176e-05
4.24431e-05
4.53961e-05
4.36595e-05
4.25553e-05
4.16695e-05
4.31373e-05
4.50977e-05
4.40929e-05
4.21804e-05
4.17639e-05
4.30323e-05
4.52954e-05
4.39178e-05
4.27502e-05
4.21064e-05
4.34353e-05
4.56808e-05
4.45733e-05
4.31202e-05
4.25684e-05
4.34818e-05
4.6378e-05
4.48835e-05
4.34011e-05
4.17231e-05
4.29843e-05
4.53395e-05
4.42883e-05
4.24845e-05
4.20003e-05
4.30561e-05
4.50469e-05
4.34348e-05
4.22244e-05
4.24952e-05
4.42348e-05
4.60048e-05
4.3619e-05
4.24222e-05
4.19445e-05
4.3317e-05
4.50838e-05
4.3202e-05
4.2748e-05
4.22983e-05
4.38591e-05
4.47956e-05
4.35467e-05
4.22672e-05
4.24578e-05
4.37564e-05
4.50576e-05
4.35097e-05
4.28805e-05
4.27199e-05
4.4196e-05
4.54337e-05
4.41054e-05
4.31843e-05
4.31656e-05
4.43323e-05
4.60609e-05
4.41758e-05
4.32035e-05
4.227e-05
4.38546e-05
4.50817e-05
4.37664e-05
4.25389e-05
4.26364e-05
4.37535e-05
4.42091e-05
4.27339e-05
4.22089e-05
4.28129e-05
4.42001e-05
4.48666e-05
4.26927e-05
4.21731e-05
4.20557e-05
4.33863e-05
4.42047e-05
4.25967e-05
4.26435e-05
4.24019e-05
4.37798e-05
4.39342e-05
4.28489e-05
4.21373e-05
4.26391e-05
4.36822e-05
4.426e-05
4.28832e-05
4.27158e-05
4.28385e-05
4.4159e-05
4.4599e-05
4.3428e-05
4.29893e-05
4.32804e-05
4.43173e-05
4.50883e-05
4.32902e-05
4.28469e-05
4.24184e-05
4.38956e-05
4.42146e-05
4.30497e-05
4.23509e-05
4.2768e-05
4.36686e-05
4.30473e-05
4.19018e-05
4.1888e-05
4.25701e-05
4.34892e-05
4.34141e-05
4.16964e-05
4.16794e-05
4.17285e-05
4.28471e-05
4.3003e-05
4.18254e-05
4.21906e-05
4.20101e-05
4.31167e-05
4.27535e-05
4.20042e-05
4.17202e-05
4.23222e-05
4.30226e-05
4.31257e-05
4.20628e-05
4.22308e-05
4.24777e-05
4.35289e-05
4.34217e-05
4.25716e-05
4.2493e-05
4.29076e-05
4.36554e-05
4.37572e-05
4.22837e-05
4.22657e-05
4.21245e-05
4.33125e-05
4.29995e-05
4.21682e-05
4.18697e-05
4.24101e-05
4.30089e-05
4.16928e-05
4.08975e-05
4.12267e-05
4.18558e-05
4.23496e-05
4.18194e-05
4.05863e-05
4.09082e-05
4.10097e-05
4.18842e-05
4.16146e-05
4.08513e-05
4.13936e-05
4.12091e-05
4.20595e-05
4.13845e-05
4.09813e-05
4.09934e-05
4.15815e-05
4.19651e-05
4.17835e-05
4.10418e-05
4.14286e-05
4.17046e-05
4.24922e-05
4.20434e-05
4.15244e-05
4.1686e-05
4.21111e-05
4.25614e-05
4.22442e-05
4.11446e-05
4.14222e-05
4.1424e-05
4.23044e-05
4.15909e-05
4.11085e-05
4.10833e-05
4.16341e-05
4.19587e-05
4.02347e-05
3.97163e-05
4.02581e-05
4.08016e-05
4.09837e-05
4.0187e-05
3.93434e-05
3.98849e-05
3.99897e-05
4.06581e-05
4.01312e-05
3.96789e-05
4.03136e-05
4.01129e-05
4.0767e-05
3.99158e-05
3.97813e-05
3.99908e-05
4.05276e-05
4.06706e-05
4.03253e-05
3.98383e-05
4.03575e-05
4.06222e-05
4.121e-05
4.05616e-05
4.03011e-05
4.06119e-05
4.09997e-05
4.12194e-05
4.06632e-05
3.98746e-05
4.03374e-05
4.04057e-05
4.10451e-05
4.00929e-05
3.98805e-05
4.00293e-05
4.05474e-05
4.06749e-05
3.85297e-05
3.81808e-05
3.88388e-05
3.93184e-05
3.93182e-05
3.83727e-05
3.77775e-05
3.8459e-05
3.85577e-05
3.90758e-05
3.84108e-05
3.81402e-05
3.88245e-05
3.86191e-05
3.91402e-05
3.82022e-05
3.82258e-05
3.85675e-05
3.90583e-05
3.90455e-05
3.86085e-05
3.82857e-05
3.88758e-05
3.91192e-05
3.9587e-05
3.8836e-05
3.87309e-05
3.91282e-05
3.9471e-05
3.9547e-05
3.88736e-05
3.82924e-05
3.88552e-05
3.89591e-05
3.94512e-05
3.83702e-05
3.831e-05
3.85621e-05
3.90437e-05
3.90627e-05
4.59071e-06
4.59644e-06
4.59764e-06
4.59527e-06
4.583e-06
4.59508e-06
4.59921e-06
4.59767e-06
4.59328e-06
4.5794e-06
4.59992e-06
4.59038e-06
4.61251e-06
4.58708e-06
4.59523e-06
4.57237e-06
4.60451e-06
4.5908e-06
4.61464e-06
4.60883e-06
4.59654e-06
4.59377e-06
4.57573e-06
4.56919e-06
4.56697e-06
4.57474e-06
4.56686e-06
4.58446e-06
4.58771e-06
4.57719e-06
4.59809e-06
4.59446e-06
4.58709e-06
4.59448e-06
4.59686e-06
4.59539e-06
4.58617e-06
4.59458e-06
4.60298e-06
4.58545e-06
3.40811e-06
3.39911e-06
3.39919e-06
3.40201e-06
3.40087e-06
3.4084e-06
3.39334e-06
3.40352e-06
3.40285e-06
3.40178e-06
3.40682e-06
3.39625e-06
3.39826e-06
3.40604e-06
3.39635e-06
3.40903e-06
3.40503e-06
3.39647e-06
3.4104e-06
3.38736e-06
3.41286e-06
3.40074e-06
3.39543e-06
3.41446e-06
3.39071e-06
3.40522e-06
3.40183e-06
3.40031e-06
3.40062e-06
3.40069e-06
3.40678e-06
3.39542e-06
3.40518e-06
3.40504e-06
3.39621e-06
3.40311e-06
3.40201e-06
3.40145e-06
3.40105e-06
3.39622e-06
2.86268e-06
2.84736e-06
2.85938e-06
2.84664e-06
2.85537e-06
2.8644e-06
2.8393e-06
2.86596e-06
2.8471e-06
2.85581e-06
2.86094e-06
2.84427e-06
2.85539e-06
2.85343e-06
2.84502e-06
2.866e-06
2.84896e-06
2.85596e-06
2.85799e-06
2.83612e-06
2.87285e-06
2.84482e-06
2.85228e-06
2.86896e-06
2.84214e-06
2.86504e-06
2.85173e-06
2.86088e-06
2.8493e-06
2.85613e-06
2.86253e-06
2.84369e-06
2.86155e-06
2.8538e-06
2.85196e-06
2.85347e-06
2.84994e-06
2.85991e-06
2.84893e-06
2.84805e-06
2.51047e-06
2.49268e-06
2.51687e-06
2.48554e-06
2.51337e-06
2.50906e-06
2.48439e-06
2.52792e-06
2.48298e-06
2.51354e-06
2.50624e-06
2.48878e-06
2.51324e-06
2.49142e-06
2.49827e-06
2.51426e-06
2.49049e-06
2.5152e-06
2.49609e-06
2.48957e-06
2.5277e-06
2.48191e-06
2.51252e-06
2.51147e-06
2.4898e-06
2.52034e-06
2.4942e-06
2.51826e-06
2.49155e-06
2.5115e-06
2.50855e-06
2.49195e-06
2.5161e-06
2.49499e-06
2.5082e-06
2.49702e-06
2.49735e-06
2.51471e-06
2.48941e-06
2.50169e-06
2.20158e-06
2.19394e-06
2.22223e-06
2.17287e-06
2.22872e-06
2.19387e-06
2.18899e-06
2.23637e-06
2.16594e-06
2.23006e-06
2.19243e-06
2.19029e-06
2.21846e-06
2.17642e-06
2.20828e-06
2.20456e-06
2.18819e-06
2.22482e-06
2.17991e-06
2.2029e-06
2.22311e-06
2.17276e-06
2.22717e-06
2.19542e-06
2.19651e-06
2.22008e-06
2.18818e-06
2.22808e-06
2.18087e-06
2.2221e-06
2.19808e-06
2.19686e-06
2.21679e-06
2.18696e-06
2.21909e-06
2.18301e-06
2.20259e-06
2.21641e-06
2.17815e-06
2.21099e-06
1.9209e-06
1.93988e-06
1.95517e-06
1.90039e-06
1.98289e-06
1.90472e-06
1.94294e-06
1.96785e-06
1.88962e-06
1.98693e-06
1.90443e-06
1.93877e-06
1.94912e-06
1.90061e-06
1.95758e-06
1.92211e-06
1.93112e-06
1.96235e-06
1.90048e-06
1.95895e-06
1.94278e-06
1.90969e-06
1.97356e-06
1.91148e-06
1.94916e-06
1.94456e-06
1.92523e-06
1.9705e-06
1.90592e-06
1.97253e-06
1.91582e-06
1.94701e-06
1.94371e-06
1.92104e-06
1.96599e-06
1.89903e-06
1.9542e-06
1.94365e-06
1.90708e-06
1.95909e-06
1.66807e-06
1.72632e-06
1.70833e-06
1.67001e-06
1.76179e-06
1.64428e-06
1.74155e-06
1.7131e-06
1.65873e-06
1.76844e-06
1.64472e-06
1.72937e-06
1.69736e-06
1.66586e-06
1.73271e-06
1.66753e-06
1.71492e-06
1.72008e-06
1.66129e-06
1.74638e-06
1.68544e-06
1.6912e-06
1.73817e-06
1.6637e-06
1.73938e-06
1.68894e-06
1.70504e-06
1.73433e-06
1.66803e-06
1.75286e-06
1.66144e-06
1.73783e-06
1.69002e-06
1.69933e-06
1.73499e-06
1.64749e-06
1.74569e-06
1.68966e-06
1.67904e-06
1.73275e-06
1.44802e-06
1.54377e-06
1.48238e-06
1.48043e-06
1.5523e-06
1.41974e-06
1.57224e-06
1.47424e-06
1.47397e-06
1.55886e-06
1.4206e-06
1.54971e-06
1.46583e-06
1.47164e-06
1.52121e-06
1.44626e-06
1.5296e-06
1.49758e-06
1.46173e-06
1.55071e-06
1.45672e-06
1.51078e-06
1.51564e-06
1.45616e-06
1.55181e-06
1.45585e-06
1.52404e-06
1.51304e-06
1.46976e-06
1.5511e-06
1.43826e-06
1.55992e-06
1.45742e-06
1.52079e-06
1.51479e-06
1.43441e-06
1.56365e-06
1.45721e-06
1.49252e-06
1.51947e-06
1.26364e-06
1.37808e-06
1.2844e-06
1.32577e-06
1.34918e-06
1.23305e-06
1.41789e-06
1.26153e-06
1.32799e-06
1.35276e-06
1.23549e-06
1.38346e-06
1.26454e-06
1.30995e-06
1.31908e-06
1.26033e-06
1.36255e-06
1.30175e-06
1.29651e-06
1.36606e-06
1.26212e-06
1.35529e-06
1.31005e-06
1.28773e-06
1.37328e-06
1.25132e-06
1.37231e-06
1.30916e-06
1.31e-06
1.35816e-06
1.24834e-06
1.39994e-06
1.25497e-06
1.37849e-06
1.30267e-06
1.25954e-06
1.39177e-06
1.25783e-06
1.34013e-06
1.3151e-06
1.10863e-06
1.22192e-06
1.12333e-06
1.19536e-06
1.15667e-06
1.07834e-06
1.26733e-06
1.08679e-06
1.20869e-06
1.15703e-06
1.08412e-06
1.21953e-06
1.10241e-06
1.16828e-06
1.13225e-06
1.10303e-06
1.20692e-06
1.14137e-06
1.15548e-06
1.1941e-06
1.09819e-06
1.21247e-06
1.13142e-06
1.15212e-06
1.20073e-06
1.07785e-06
1.23603e-06
1.13212e-06
1.1829e-06
1.17331e-06
1.09025e-06
1.24749e-06
1.09139e-06
1.26135e-06
1.10566e-06
1.1152e-06
1.22325e-06
1.10138e-06
1.20841e-06
1.12607e-06
9.70534e-07
1.07703e-06
9.99106e-07
1.07985e-06
9.83713e-07
9.47647e-07
1.1236e-06
9.52538e-07
1.10389e-06
9.84488e-07
9.56039e-07
1.06055e-06
9.83222e-07
1.03781e-06
9.68037e-07
9.63225e-07
1.06828e-06
1.017e-06
1.03014e-06
1.04128e-06
9.56006e-07
1.07897e-06
9.86776e-07
1.04013e-06
1.03788e-06
9.29501e-07
1.1071e-06
9.91419e-07
1.08086e-06
1.00234e-06
9.56406e-07
1.09791e-06
9.69658e-07
1.15991e-06
9.33924e-07
9.89754e-07
1.06108e-06
9.85621e-07
1.08798e-06
9.63749e-07
8.34814e-07
9.51763e-07
9.09257e-07
9.81323e-07
8.40538e-07
8.30357e-07
9.99685e-07
8.56983e-07
1.01453e-06
8.49593e-07
8.35669e-07
9.20491e-07
9.10772e-07
9.2416e-07
8.29535e-07
8.27988e-07
9.59161e-07
9.27014e-07
9.2296e-07
9.11189e-07
8.24067e-07
9.58862e-07
8.76599e-07
9.49037e-07
8.92938e-07
7.98756e-07
9.90822e-07
8.90709e-07
9.97063e-07
8.54188e-07
8.36767e-07
9.54193e-07
8.91439e-07
1.07627e-06
7.92218e-07
8.68023e-07
9.18454e-07
9.08555e-07
9.83922e-07
8.34163e-07
6.90682e-07
8.55895e-07
8.59548e-07
9.1371e-07
7.32939e-07
7.18907e-07
9.14427e-07
8.09208e-07
9.55288e-07
7.60076e-07
7.15665e-07
8.21772e-07
8.96874e-07
8.46596e-07
7.23632e-07
6.93709e-07
8.91766e-07
8.77118e-07
8.46882e-07
8.05023e-07
6.96775e-07
8.5456e-07
8.02153e-07
8.85327e-07
7.68857e-07
6.81052e-07
9.01243e-07
8.34594e-07
9.32639e-07
7.30544e-07
7.2113e-07
8.32046e-07
8.59486e-07
1.01851e-06
6.75246e-07
7.42077e-07
8.09241e-07
8.7473e-07
9.12567e-07
7.36591e-07
5.50989e-07
8.0565e-07
9.05615e-07
9.03378e-07
6.72111e-07
6.17442e-07
9.03194e-07
8.52977e-07
9.42222e-07
7.15188e-07
6.14709e-07
7.8648e-07
9.76854e-07
8.41198e-07
6.80432e-07
5.88089e-07
8.74084e-07
9.05422e-07
8.26749e-07
7.2029e-07
5.83262e-07
7.81904e-07
7.8856e-07
8.66095e-07
6.58195e-07
5.85721e-07
8.64015e-07
8.44073e-07
8.88384e-07
6.19639e-07
6.19155e-07
7.60141e-07
8.96092e-07
9.86504e-07
5.66353e-07
6.25781e-07
7.48832e-07
9.23453e-07
8.95745e-07
6.63392e-07
5.08909e-07
9.31267e-07
1.22937e-06
9.74953e-07
7.59092e-07
5.47263e-07
1.09384e-06
1.12973e-06
9.7759e-07
7.81867e-07
6.00434e-07
8.86417e-07
1.2748e-06
9.65772e-07
8.37627e-07
5.94709e-07
1.00487e-06
1.1778e-06
8.89643e-07
7.24234e-07
5.59552e-07
8.44806e-07
9.89714e-07
9.36342e-07
6.15263e-07
5.56495e-07
9.70837e-07
1.04336e-06
8.76331e-07
5.67059e-07
5.99899e-07
8.54651e-07
1.12376e-06
9.61173e-07
5.52117e-07
5.79256e-07
8.49904e-07
1.2172e-06
9.76116e-07
6.99376e-07
9.39798e-07
1.73095e-06
1.9141e-06
1.33398e-06
1.45696e-06
9.16734e-07
1.85498e-06
1.72143e-06
1.1757e-06
1.41415e-06
9.56161e-07
1.57162e-06
1.91304e-06
1.44503e-06
1.59629e-06
1.02206e-06
1.83275e-06
1.84003e-06
1.21401e-06
1.34102e-06
9.56995e-07
1.53309e-06
1.64131e-06
1.36404e-06
1.21422e-06
8.35483e-07
1.57516e-06
1.59946e-06
1.07677e-06
1.10966e-06
8.14936e-07
1.54593e-06
1.68883e-06
1.07858e-06
1.14139e-06
8.90968e-07
1.61381e-06
1.90768e-06
1.40262e-06
1.40517e-06
3.01271e-06
3.69124e-06
2.72266e-06
2.91019e-06
3.43829e-06
3.13378e-06
3.60885e-06
2.53113e-06
2.37519e-06
3.29321e-06
3.02066e-06
3.61165e-06
2.70499e-06
3.09183e-06
3.4392e-06
3.17074e-06
3.87235e-06
2.67092e-06
2.67201e-06
3.21649e-06
2.87802e-06
3.48169e-06
2.74946e-06
3.0168e-06
3.05726e-06
2.64038e-06
3.17708e-06
2.44844e-06
2.37429e-06
2.8421e-06
2.33909e-06
3.3666e-06
2.3401e-06
2.26519e-06
2.73337e-06
2.95716e-06
3.60597e-06
2.86692e-06
2.99153e-06
3.2882e-06
7.56075e-06
6.68615e-06
4.85867e-06
6.51947e-06
7.73168e-06
7.60477e-06
6.31075e-06
4.63194e-06
5.64709e-06
7.59054e-06
7.61277e-06
6.86927e-06
4.52643e-06
6.7213e-06
7.34896e-06
7.73879e-06
6.82003e-06
4.63431e-06
6.18354e-06
7.24526e-06
7.20687e-06
6.76285e-06
5.1366e-06
6.64466e-06
6.87726e-06
6.85938e-06
5.99405e-06
4.54176e-06
5.74759e-06
6.60761e-06
6.50697e-06
6.31831e-06
3.6154e-06
5.48478e-06
6.57601e-06
7.66549e-06
6.728e-06
4.93733e-06
6.52385e-06
7.13158e-06
1.339e-05
1.04384e-05
1.02196e-05
1.26942e-05
1.43036e-05
1.28227e-05
9.93179e-06
9.64257e-06
1.18654e-05
1.44363e-05
1.32205e-05
1.0669e-05
9.47371e-06
1.2733e-05
1.35995e-05
1.32258e-05
1.03661e-05
9.63613e-06
1.23781e-05
1.35989e-05
1.2948e-05
1.10409e-05
1.02463e-05
1.25736e-05
1.30657e-05
1.25189e-05
1.01063e-05
9.65748e-06
1.18762e-05
1.29589e-05
1.23616e-05
9.79694e-06
7.94148e-06
1.18172e-05
1.3319e-05
1.3651e-05
1.04787e-05
9.88261e-06
1.2474e-05
1.3363e-05
1.8881e-05
1.58533e-05
1.81665e-05
2.08899e-05
2.068e-05
1.75086e-05
1.55131e-05
1.73396e-05
2.05044e-05
2.13398e-05
1.80785e-05
1.58764e-05
1.72461e-05
2.06444e-05
2.00248e-05
1.81597e-05
1.56593e-05
1.74479e-05
2.06598e-05
2.02846e-05
1.8678e-05
1.66772e-05
1.78647e-05
2.03862e-05
1.98854e-05
1.81771e-05
1.61118e-05
1.76061e-05
2.02671e-05
2.002e-05
1.78181e-05
1.45358e-05
1.59537e-05
2.08788e-05
2.05388e-05
1.90436e-05
1.55613e-05
1.76673e-05
2.04389e-05
2.02174e-05
2.45166e-05
2.32058e-05
2.74496e-05
2.84775e-05
2.54143e-05
2.2954e-05
2.32062e-05
2.66481e-05
2.88454e-05
2.64716e-05
2.32046e-05
2.32281e-05
2.65017e-05
2.82374e-05
2.50898e-05
2.37283e-05
2.30837e-05
2.69114e-05
2.85253e-05
2.5895e-05
2.47502e-05
2.38378e-05
2.68194e-05
2.81056e-05
2.56909e-05
2.42959e-05
2.39207e-05
2.7003e-05
2.84386e-05
2.56637e-05
2.30886e-05
2.17586e-05
2.64253e-05
2.95462e-05
2.61782e-05
2.43905e-05
2.26404e-05
2.71302e-05
2.82487e-05
2.60892e-05
3.09361e-05
3.15568e-05
3.59885e-05
3.37531e-05
3.00826e-05
2.99581e-05
3.18927e-05
3.5466e-05
3.49241e-05
3.09212e-05
2.98566e-05
3.17245e-05
3.51752e-05
3.38403e-05
3.01088e-05
3.07624e-05
3.15835e-05
3.58084e-05
3.43141e-05
3.12961e-05
3.15123e-05
3.17615e-05
3.52913e-05
3.40519e-05
3.11171e-05
3.13265e-05
3.24012e-05
3.56827e-05
3.43976e-05
3.03844e-05
2.95475e-05
3.08282e-05
3.64311e-05
3.55354e-05
3.11076e-05
3.06822e-05
3.10491e-05
3.60791e-05
3.41741e-05
3.15319e-05
3.74572e-05
3.94054e-05
4.20737e-05
3.75676e-05
3.58246e-05
3.73649e-05
3.99102e-05
4.2013e-05
3.91334e-05
3.60031e-05
3.71695e-05
3.9582e-05
4.16218e-05
3.79891e-05
3.61207e-05
3.80474e-05
3.95125e-05
4.23225e-05
3.85478e-05
3.70971e-05
3.81464e-05
3.91672e-05
4.17126e-05
3.84318e-05
3.68852e-05
3.83171e-05
4.00412e-05
4.19867e-05
3.84229e-05
3.55373e-05
3.68528e-05
3.96659e-05
4.3592e-05
3.93401e-05
3.64773e-05
3.73632e-05
3.91775e-05
4.26614e-05
3.84833e-05
3.71653e-05
4.30942e-05
4.54287e-05
4.56956e-05
4.11746e-05
4.17437e-05
4.37334e-05
4.59453e-05
4.6087e-05
4.25524e-05
4.13311e-05
4.36005e-05
4.54654e-05
4.57473e-05
4.17184e-05
4.21991e-05
4.4148e-05
4.55279e-05
4.63227e-05
4.21613e-05
4.25903e-05
4.36888e-05
4.49378e-05
4.58154e-05
4.20658e-05
4.23967e-05
4.41296e-05
4.57115e-05
4.58007e-05
4.16907e-05
4.10426e-05
4.35778e-05
4.64189e-05
4.76471e-05
4.23272e-05
4.18932e-05
4.32806e-05
4.55162e-05
4.66422e-05
4.20428e-05
4.24665e-05
4.723e-05
4.9239e-05
4.77241e-05
4.46927e-05
4.66255e-05
4.82655e-05
4.96891e-05
4.83776e-05
4.55468e-05
4.59106e-05
4.82189e-05
4.91154e-05
4.82553e-05
4.51548e-05
4.71292e-05
4.83576e-05
4.93106e-05
4.85439e-05
4.5325e-05
4.69331e-05
4.76241e-05
4.87039e-05
4.81542e-05
4.51919e-05
4.68029e-05
4.81749e-05
4.91874e-05
4.78981e-05
4.47172e-05
4.59621e-05
4.86026e-05
5.05183e-05
4.95548e-05
4.50542e-05
4.64557e-05
4.76267e-05
4.95644e-05
4.87221e-05
4.51148e-05
4.66951e-05
4.97328e-05
5.11706e-05
4.88525e-05
4.76473e-05
4.98689e-05
5.08733e-05
5.15212e-05
4.95481e-05
4.79505e-05
4.91152e-05
5.08845e-05
5.09467e-05
4.97251e-05
4.79127e-05
5.03507e-05
5.06727e-05
5.12344e-05
4.96425e-05
4.77999e-05
4.97476e-05
4.99196e-05
5.06934e-05
4.93245e-05
4.76346e-05
4.9693e-05
5.04364e-05
5.08749e-05
4.90089e-05
4.73447e-05
4.95615e-05
5.15751e-05
5.23653e-05
5.02765e-05
4.73759e-05
4.96067e-05
5.02059e-05
5.16034e-05
4.96164e-05
4.75365e-05
4.949e-05
5.08155e-05
5.17496e-05
4.93744e-05
4.96524e-05
5.14604e-05
5.1884e-05
5.19871e-05
4.99719e-05
4.95343e-05
5.0831e-05
5.19227e-05
5.1498e-05
5.04231e-05
4.96844e-05
5.18952e-05
5.1468e-05
5.18202e-05
4.99774e-05
4.93864e-05
5.10822e-05
5.08392e-05
5.13371e-05
4.96986e-05
4.92071e-05
5.10894e-05
5.12371e-05
5.13179e-05
4.95072e-05
4.92604e-05
5.15946e-05
5.27328e-05
5.26563e-05
5.03472e-05
4.90098e-05
5.12537e-05
5.12509e-05
5.21622e-05
4.9767e-05
4.91304e-05
5.08724e-05
5.08204e-05
5.14108e-05
4.93715e-05
5.06007e-05
5.17065e-05
5.17375e-05
5.15376e-05
4.98233e-05
5.02242e-05
5.12721e-05
5.1787e-05
5.1183e-05
5.0458e-05
5.04171e-05
5.2102e-05
5.11916e-05
5.14886e-05
4.9725e-05
5.00473e-05
5.12171e-05
5.07308e-05
5.10335e-05
4.94755e-05
4.9872e-05
5.12649e-05
5.09903e-05
5.09417e-05
4.95134e-05
5.02842e-05
5.22092e-05
5.25525e-05
5.19849e-05
4.9976e-05
4.98123e-05
5.16178e-05
5.11461e-05
5.17218e-05
4.93954e-05
4.98531e-05
5.10844e-05
5.00751e-05
5.04568e-05
4.8878e-05
5.06038e-05
5.1e-05
5.08217e-05
5.04894e-05
4.91959e-05
5.0103e-05
5.07664e-05
5.08777e-05
5.0275e-05
4.99113e-05
5.02497e-05
5.1373e-05
5.02159e-05
5.05359e-05
4.89943e-05
4.98879e-05
5.04915e-05
4.99086e-05
5.00895e-05
4.87731e-05
4.97286e-05
5.05632e-05
5.00533e-05
5.00209e-05
4.90568e-05
5.04222e-05
5.1744e-05
5.1505e-05
5.07488e-05
4.92295e-05
4.98114e-05
5.10354e-05
5.02625e-05
5.06392e-05
4.86121e-05
4.97818e-05
5.04392e-05
4.88339e-05
4.90917e-05
4.79391e-05
4.98612e-05
4.96928e-05
4.94228e-05
4.90535e-05
4.81606e-05
4.93247e-05
4.96278e-05
4.94892e-05
4.89558e-05
4.88762e-05
4.93895e-05
5.00556e-05
4.88072e-05
4.91669e-05
4.78738e-05
4.90775e-05
4.92079e-05
4.86151e-05
4.8725e-05
4.76787e-05
4.89359e-05
4.92947e-05
4.86826e-05