/*--------------------------------*- C++ -*----------------------------------*\
  =========                 |
  \\      /  F ield         | OpenFOAM: The Open Source CFD Toolbox
   \\    /   O peration     | Website:  https://openfoam.org
    \\  /    A nd           | Version:  10
     \\/     M anipulation  |
\*---------------------------------------------------------------------------*/
FoamFile
{
    format      ascii;
    class       volScalarField;
    location    "20";
    object      p;
}
// * * * * * * * * * * * * * * * * * * * * * * * * * * * * * * * * * * * * * //

dimensions      [0 2 -2 0 0 0 0];

internalField   nonuniform List<scalar> 
25600
(
-0.000765437
-0.000460894
-0.000119031
-0.000729461
-1.39247e-06
-9.82504e-05
-0.000298955
0.000382029
9.72683e-05
-0.000360178
1.13272e-05
0.000265046
-0.000228133
8.73507e-05
0.00018392
-0.000536883
-0.000175079
0.000130712
-0.000366605
-0.000585401
-0.000267691
-0.000391579
-0.000918853
-0.000325904
-0.000282896
-0.00105017
-0.000213475
-0.000461081
-0.000949706
-6.46783e-05
-0.00071226
-0.00062936
-0.000479982
-0.000736725
-0.000266759
-0.000932841
-0.000512835
-0.000414556
-0.000995584
-0.000332648
-0.000836485
-0.000554501
-0.000194208
-0.000715019
1.21818e-05
-0.000196546
-8.09216e-05
0.000334124
-0.000166373
-8.91933e-05
0.000134609
4.3608e-05
-9.82209e-05
0.000340373
9.98303e-05
-0.000469853
0.000117003
-5.48657e-06
-0.000526722
-0.000177711
-0.000421245
-0.000844829
-0.000565961
-0.000273627
-0.000760853
-0.000922391
-7.35815e-06
-0.00062499
-0.000950953
-0.000137179
-0.000543408
-0.000606667
-0.000674026
-0.000457166
-0.000324501
-0.00103776
-0.00036339
-0.000447669
-0.0010584
-0.000313715
-0.000964338
-0.000635188
-0.000274917
-0.00062047
-0.000145301
-0.000137856
0.000372076
6.12704e-05
-0.000377581
0.000428726
9.3475e-05
-0.000170379
0.000314743
0.000318606
-7.2549e-05
-0.000187567
0.000391565
-0.000266789
-0.000633828
0.000333267
-0.00074368
-0.00118914
-0.000127006
-0.000453645
-0.00103722
-0.00071496
-9.65895e-05
-0.000559957
-0.000955551
-0.000371061
-0.000215398
-0.00063617
-0.000844124
-0.000291533
-0.000330876
-0.000970093
-0.000463011
-0.000579671
-0.000935332
-0.000434244
-0.00111992
-0.000677307
-0.000323592
-0.000605328
-0.000409595
0.000137088
0.000785997
-0.000405935
-0.000309888
0.000844635
-0.000377187
-0.000119032
0.00062615
5.29644e-05
9.35604e-05
0.000165896
0.000478071
-0.000435239
-0.000571709
0.00063383
-0.00118897
-0.00131264
7.70754e-05
-0.000885899
-0.00101705
-0.000570941
-0.000324582
-0.00027825
-0.00109143
-0.000529101
0.000138147
-0.000705579
-0.000949069
-0.00025317
-0.000178785
-0.000931778
-0.000670012
-0.000496588
-0.000747267
-0.000689187
-0.0013167
-0.000689443
-0.000338526
-0.000783354
-0.00051525
0.000633753
0.000887247
-0.000806702
2.53403e-05
0.000973608
-0.000659621
0.000185566
0.000631241
-0.000100682
0.000557344
0.00029944
0.00043646
-0.000435517
-0.000379807
0.000668458
-0.00163573
-0.0012316
-2.79021e-05
-0.00124923
-0.000777687
-0.000765998
-0.000442058
7.77373e-05
-0.00129418
-0.000488657
0.000351732
-0.000782712
-0.00100714
-0.000223505
7.5994e-05
-0.000990376
-0.000831116
-0.000331833
-0.000678958
-0.00097278
-0.00154259
-0.000644971
-0.000444791
-0.0011278
-0.000378964
0.00110482
0.000737984
-0.000896603
0.000386418
0.000836981
-0.000762384
0.000388282
0.000391496
7.4307e-05
0.000935639
0.000191407
0.000474532
-0.000271765
-0.000121746
0.000446047
-0.0020172
-0.00111972
-0.000407502
-0.0014478
-0.000418941
-0.00102505
-0.000360981
0.000175468
-0.00137667
-0.00023192
0.000356742
-0.000854114
-0.000991423
-0.000190821
0.000247239
-0.00105608
-0.000870001
-0.00023706
-0.000739798
-0.00121611
-0.00176006
-0.000575278
-0.000711145
-0.00155158
-4.37622e-05
0.00146102
0.000568545
-0.000538846
0.000666115
0.000554457
-0.000770792
0.00034213
0.000224104
0.000478066
0.00107123
0.000132055
0.000585823
-0.000122324
0.000251908
0.000101374
-0.00242101
-0.00112515
-0.000901154
-0.00153203
-0.000351135
-0.00114123
-0.000176933
-7.79028e-05
-0.00129184
0.00013086
0.000143212
-0.000816441
-0.000893074
-0.000231057
0.000351854
-0.000991376
-0.000836967
-0.000135969
-0.000755456
-0.00156247
-0.00195265
-0.000544291
-0.00113634
-0.00192271
0.00037983
0.00172844
0.000447731
-0.000402184
0.000847403
0.000202145
-0.000980544
5.00936e-05
0.000310473
0.000848218
0.000912533
0.000214292
0.000688967
3.2906e-05
0.00073953
-0.000310503
-0.00292015
-0.00125589
-0.00142289
-0.00164016
-0.000477435
-0.00102331
-0.000167078
-0.000556616
-0.000907102
0.000405688
-0.000209221
-0.000591626
-0.000787787
-0.000388247
0.000461936
-0.000772304
-0.000744791
-7.05003e-05
-0.000711672
-0.00197853
-0.0021193
-0.000597468
-0.00167583
-0.00224487
0.000821469
0.00196451
0.000392207
-0.00020369
0.00110786
0.000247609
-0.00151771
-0.000326455
0.000635069
0.0014101
0.000657205
0.00042043
0.000746625
0.000293651
0.00130628
-0.000824436
-0.0035201
-0.00141171
-0.00201828
-0.00183113
-0.000458703
-0.000654497
-0.000161566
-0.00112491
-0.000379174
0.000550855
-0.000648495
-0.000180959
-0.000709185
-0.000708953
0.000594249
-0.000455147
-0.000623181
1.11663e-05
-0.000893509
-0.00243543
-0.00226696
-0.000782291
-0.00229694
-0.00251476
0.00123429
0.00222997
0.000331618
-8.65648e-05
0.0014764
-5.36032e-05
-0.00222948
-0.000657215
0.00108622
0.0015741
0.000335579
0.000690548
0.000833091
0.000673148
0.00189546
-0.00137822
-0.0042091
-0.00164518
-0.00268291
-0.00208717
-0.000314785
-0.000181598
-0.000433975
-0.00160351
0.000231242
0.00053134
-0.00119011
0.000290422
-0.000791008
-0.000976153
0.000785132
-0.000100504
-0.000483145
0.000148526
-0.00116374
-0.00294069
-0.00232891
-0.00109587
-0.00301925
-0.00276142
0.00167347
0.00251495
0.000279223
7.63198e-05
0.00189541
-0.000849611
-0.00328611
-0.000890228
0.00155193
0.00172907
0.000280074
0.000866815
0.00099972
0.00116148
0.00233096
-0.00197719
-0.00488172
-0.00195153
-0.003348
-0.00241422
8.96301e-06
0.00021076
-0.00103153
-0.0018993
0.000817997
0.000396814
-0.00095424
0.000915018
-0.000923783
-0.00158167
0.000928818
0.000374862
-0.000265054
0.000295126
-0.00147967
-0.00347749
-0.00230847
-0.0015969
-0.0037527
-0.00297908
0.002147
0.00287244
-2.65985e-05
0.000284061
0.00238674
-0.00218968
-0.00456191
-0.00110223
0.00185723
0.00168338
0.000111088
0.000942773
0.00116878
0.00168965
0.00278867
-0.00253373
-0.00584917
-0.00233132
-0.00387773
-0.00272703
0.000470716
0.000243272
-0.00182381
-0.00184586
0.0012893
9.02151e-05
-0.0015747
0.00122122
-0.00112885
-0.00192813
0.000968589
0.00072078
-4.32343e-05
0.000348964
-0.00210832
-0.00415825
-0.002223
-0.0023134
-0.00510809
-0.00303505
0.00266065
0.00317551
-0.000223045
0.000587016
0.0026812
-0.00464795
-0.00573655
-0.00130689
0.0023764
0.00132376
-0.000300649
0.000729921
0.00137969
0.0020352
0.00333802
-0.00270763
-0.00678018
-0.00298316
-0.00455044
-0.0029994
0.00106531
-0.000245612
-0.00272728
-0.00128197
0.00165771
-0.000476442
-0.00180165
0.00140634
-0.00172677
-0.0028757
0.00125537
0.0012742
0.000290724
0.000263916
-0.0032421
-0.00489644
-0.00207215
-0.00327038
-0.00570265
-0.00321558
0.00320163
0.0033048
0.000391841
0.00116804
0.00295419
-0.0059493
-0.00696722
-0.00160165
0.00297438
0.000807877
-0.00088196
0.000708861
0.00260613
0.00181872
0.00379072
-0.00259033
-0.00764533
-0.00367674
-0.00490503
-0.00321881
0.00174657
-0.000351463
-0.00346631
-0.00131536
0.00187903
-0.00149418
-0.0022972
0.00128308
-0.0010662
-0.00394632
0.000782584
0.00123656
0.000387483
-5.08666e-05
-0.00522612
-0.00559484
-0.00191243
-0.00479209
-0.00631428
-0.0035875
0.00372028
0.0035033
-0.000410142
0.00155855
0.00328774
-0.00619767
-0.0082517
-0.00216456
0.00331698
0.000266514
-0.00133697
0.00110679
0.00352759
0.00126173
0.00341346
-0.0025712
-0.00862238
-0.00442445
-0.00585784
-0.0034285
0.00247807
-0.000500655
-0.0041068
-0.00153778
0.00171158
-0.00297774
-0.00252442
0.000900488
-0.00355726
-0.00510531
0.000342438
0.00200372
0.000504777
-0.00111368
-0.00870669
-0.00574893
-0.00212377
-0.00572198
-0.00664407
-0.00369685
0.00448742
0.00396606
-0.000917153
0.00144497
0.00349872
-0.0063349
-0.00952704
-0.00281246
0.00357171
-6.81568e-05
-0.000782511
0.00376312
0.00409989
0.00120839
0.0033726
-0.00281715
-0.00977699
-0.00525854
-0.00716785
-0.00375374
0.00307763
-6.136e-05
-0.00429372
-0.00252507
0.0010152
-0.00438356
-0.00212077
0.00111195
-0.00446532
-0.00733324
-0.000634985
0.00165163
0.00045062
-0.00198069
-0.00958392
-0.00463926
-0.00185398
-0.0063884
-0.00696043
-0.00352877
0.00539705
0.00444991
-0.00106143
0.000446711
0.00364942
-0.00728184
-0.0107618
-0.00352972
0.00368213
-0.00019047
0.000498771
0.00388577
0.00446894
0.00190863
0.00327261
-0.00368343
-0.0110169
-0.00590913
-0.00808512
-0.0037
0.00318028
0.000127408
-0.00437853
-0.0030347
0.000190731
-0.00496871
-0.00295835
0.00261182
-0.00272081
-0.00582129
-0.00157793
0.00146297
0.00058619
-0.00244886
-0.00723014
-0.000639289
-0.00183318
-0.00637715
-0.00728434
-0.00293764
0.00602507
0.0051918
-0.00144357
0.000367924
0.00416121
-0.00833271
-0.0119223
-0.00350275
0.0033618
-0.000588961
0.000796167
0.0029816
0.00504745
0.00122665
0.0033103
-0.00456827
-0.0120941
-0.00624633
-0.00783802
-0.00370923
0.00310753
4.10838e-05
-0.00443531
-0.00303691
7.98406e-05
-0.00531464
-0.00358524
0.00452865
-0.00213022
-0.0100173
-0.00358686
0.00142193
0.00148328
-0.00215534
-0.00458505
0.00147158
-0.00238065
-0.00622016
-0.00762467
-0.00212315
0.00681048
0.00637546
-0.00204344
0.000679965
0.00445936
-0.00927634
-0.0125913
-0.00411208
0.00266757
-0.000177055
-0.000206104
0.00165246
0.00581323
-0.000465594
0.00260058
-0.004369
-0.0124322
-0.00671846
-0.00730645
-0.00340308
0.00290099
0.000253775
-0.00427526
-0.00318089
-0.000125072
-0.0057696
-0.00458273
0.0062917
-0.00207234
-0.0129235
-0.00544833
0.0012557
0.00220714
-0.00102838
-0.0033123
0.00168929
-0.0022227
-0.00635749
-0.00787472
-0.00147995
0.00811871
0.00786391
-0.00183123
0.00132906
0.00480266
-0.00883805
-0.0138453
-0.00559437
0.00208291
0.000790515
-0.00290303
0.00090184
0.00672727
-0.00202222
0.00111547
-0.00382196
-0.0120858
-0.00703777
-0.00725408
-0.00254927
0.00224671
0.000430259
-0.00371653
-0.00327997
-0.000451515
-0.00695366
-0.00559025
0.0076518
-0.00219707
-0.0147636
-0.00602863
0.00143904
0.00343903
0.000333438
-0.00239133
0.00115411
-0.00203664
-0.00686967
-0.00789539
-0.00104236
0.00972423
0.00846883
-0.00174503
0.00158871
0.00518412
-0.00760703
-0.0146932
-0.00681499
0.00127184
0.00132754
-0.00641739
0.00139171
0.0079795
-0.00320281
-0.00120254
-0.00364984
-0.0114175
-0.00756386
-0.00688199
-0.00101359
0.00121908
0.000112605
-0.00379391
-0.00396655
-0.000563946
-0.00860687
-0.00626066
0.00853129
-0.00369923
-0.0161781
-0.00585841
0.00386324
0.00589587
0.00175252
-0.00242494
0.000199285
-0.00240955
-0.00748308
-0.00703857
-0.000476208
0.0108683
0.00932167
-0.00202507
0.00111432
0.00505547
-0.00721994
-0.0150718
-0.00798684
0.00164422
0.00227443
-0.00909337
0.00272168
0.00969635
-0.004365
-0.00341982
-0.00317517
-0.0109228
-0.00843707
-0.0057925
0.000462187
-3.05981e-05
-0.000599025
-0.00461851
-0.00437808
-0.000177554
-0.0094791
-0.00641304
0.0100416
-0.00571957
-0.0200768
-0.00590504
0.00729119
0.00822331
0.00311761
-0.00189501
-0.000791793
-0.00315168
-0.00834459
-0.00614716
-0.000235073
0.0112699
0.0108055
-0.00202546
-7.1988e-05
0.00454601
-0.00724967
-0.0160481
-0.00795457
0.00475446
0.00380485
-0.01155
0.00358512
0.011388
-0.00576264
-0.00458523
-0.00223517
-0.0100388
-0.00900684
-0.00429898
0.00202335
6.20552e-05
-0.00127131
-0.00551704
-0.00453464
0.000171549
-0.00911466
-0.0054767
0.0114524
-0.00771089
-0.023251
-0.00539163
0.0102013
0.00991608
0.00434231
-0.00133116
-0.00141932
-0.00359622
-0.00877023
-0.00543541
-0.000278927
0.0113935
0.0120653
-0.00228195
-0.000778599
0.004576
-0.0076623
-0.0165092
-0.006117
0.00912237
0.00515286
-0.0118929
0.00375845
0.0127703
-0.00646956
-0.0045618
-0.0011237
-0.00890659
-0.00898538
-0.00250216
0.00365181
0.00142464
-0.00186304
-0.00622396
-0.00472871
0.000704218
-0.00826786
-0.00381796
0.0125523
-0.00861064
-0.0250064
-0.00437284
0.0126735
0.0112299
0.0049012
-0.00100735
-0.00180112
-0.00385216
-0.00794612
-0.0048106
-0.000404857
0.0116718
0.0127543
-0.00302254
-0.00117186
0.00478737
-0.00812054
-0.0169073
-0.00294984
0.0123091
0.00613846
-0.0112317
0.00355224
0.0140758
-0.0062796
-0.00406662
0.000256922
-0.0078072
-0.00858725
-0.000686596
0.00516895
0.00294115
-0.0025407
-0.006699
-0.00443667
0.00125499
-0.00758378
-0.0020689
0.0134503
-0.00858637
-0.0258837
-0.00270447
0.0147025
0.0120871
0.00500252
-0.000571656
-0.00180563
-0.00389766
-0.00707217
-0.00512251
-0.000472571
0.0121476
0.0131355
-0.00338348
-0.00165206
0.00491835
-0.00844367
-0.0167772
-3.66643e-05
0.0142475
0.00694171
-0.0103765
0.00325632
0.0152795
-0.00475771
-0.0033996
0.00188675
-0.00587148
-0.00744602
0.00101776
0.00623584
0.00337858
-0.00306573
-0.00660664
-0.00386296
0.00149439
-0.0067898
7.29877e-06
0.0141294
-0.00867797
-0.0265428
-0.000482345
0.0160366
0.0127306
0.00512201
-6.69351e-05
-0.00138588
-0.00406155
-0.00683642
-0.00503928
-0.00035379
0.0126859
0.0133697
-0.0032721
-0.00186594
0.00500186
-0.00892267
-0.0157938
0.00190491
0.0152804
0.00765643
-0.00986146
0.00310437
0.0161293
-0.00339897
-0.00261025
0.00280275
-0.00382521
-0.0055314
0.00253954
0.00690167
0.00322197
-0.00318015
-0.00642442
-0.00342208
0.00159764
-0.00583862
0.0014777
0.0145309
-0.00920852
-0.0269688
0.0014835
0.0167287
0.0131654
0.00530788
0.000494394
-0.000998834
-0.00428455
-0.00679719
-0.0049578
-0.000193342
0.0130434
0.0136294
-0.00303013
-0.00204816
0.00497016
-0.00893707
-0.0148871
0.00274286
0.01559
0.00803732
-0.00958494
0.00322158
0.0165757
-0.00271019
-0.00194665
0.00305076
-0.00301987
-0.00357885
0.00395057
0.00749032
0.00309976
-0.00316615
-0.00647302
-0.0031207
0.00147421
-0.00509604
0.00236986
0.0148661
-0.00984414
-0.0258898
0.00296657
0.0170171
0.0134334
0.0056081
0.0009638
-0.000984071
-0.00448345
-0.00677703
-0.00487704
-5.45791e-05
0.0131857
0.0136521
-0.00289957
-0.00207908
0.00492276
-0.00885784
-0.0146194
0.00286504
0.0154495
0.00814229
-0.00933938
0.00343783
0.0165686
-0.00233099
-0.0015182
0.00300249
-0.00279718
-0.00212921
0.00503588
0.00784854
0.00301947
-0.00317146
-0.00640163
-0.00286452
0.00113927
-0.00491688
0.0029307
0.0149289
-0.00998574
-0.0237882
0.00387482
0.0172579
0.0137878
0.00583149
0.00114406
-0.00119522
-0.00459232
-0.00673327
-0.00477133
5.09847e-06
0.0131758
0.013527
-0.00285265
-0.00205801
0.00488009
-0.00886796
-0.0145432
0.00287437
0.0153762
0.0081104
-0.00909737
0.0035875
0.0165154
-0.00194922
-0.00129364
0.00283474
-0.00258944
-0.0013758
0.00550456
0.007901
0.00296277
-0.003184
-0.00617048
-0.002666
0.000872898
-0.00489567
0.00331646
0.0148602
-0.00981467
-0.022744
0.00426475
0.0175699
0.0140118
0.00585849
0.00112722
-0.00129746
-0.0046192
-0.00665252
-0.00472616
2.3265e-05
0.0131452
0.0133834
-0.0028536
-0.00202926
0.00483959
-0.0088613
-0.0144901
0.00290577
0.0152953
0.00800253
-0.00895948
0.00370142
0.0165424
-0.00170527
-0.0012521
0.00280229
-0.00244107
-0.00121236
0.0055164
0.00784355
0.00291377
-0.00316859
-0.00596277
-0.00253963
0.00081971
-0.00479354
0.00354066
0.0147777
-0.00976609
-0.0224206
0.00449052
0.0176918
0.0140242
0.00582485
0.00108851
-0.0013412
-0.00459019
-0.00659818
-0.00472355
2.76631e-05
0.01314
0.0133185
-0.0028796
-0.00201555
0.0048149
-0.00885442
-0.0144125
0.00295289
0.015259
0.00786432
-0.00891926
0.00382254
0.0165856
-0.00165317
-0.00122399
0.00286891
-0.00236589
-0.00114093
0.00549032
0.00772959
0.00287598
-0.00317709
-0.00586341
-0.00245584
0.000869593
-0.00472342
0.00362443
0.0147118
-0.00984212
-0.0223911
0.00460127
0.0177261
0.0140263
0.00580761
0.00107555
-0.00134818
-0.000742881
-0.000501177
-0.000105308
-0.000701379
-5.72237e-05
-6.66007e-05
-0.000276862
0.000393494
0.000110435
-0.00040231
7.39872e-05
0.000282562
-0.000258146
0.000118359
0.000174926
-0.000541408
-0.000177017
0.000144065
-0.000413713
-0.000567608
-0.000210471
-0.000501821
-0.000895227
-0.000262694
-0.000367651
-0.00103964
-0.000171806
-0.000509126
-0.000928315
3.26715e-06
-0.000804697
-0.000663812
-0.000341101
-0.000755322
-0.000372461
-0.000851593
-0.00048009
-0.000458912
-0.00100653
-0.000340108
-0.000839589
-0.000635084
-0.000166145
-0.000708027
-3.69935e-05
-0.00013405
-0.000105209
0.000361205
-0.000113559
-0.0001814
0.000181962
0.000100946
-0.000141724
0.000308496
9.66743e-05
-0.000445245
6.25546e-05
6.96023e-06
-0.000499554
-0.000230549
-0.00041451
-0.000887121
-0.000583466
-0.000242473
-0.000771919
-0.000934979
3.87813e-05
-0.00064427
-0.000912422
-9.00622e-05
-0.000663737
-0.00056932
-0.000532651
-0.000567312
-0.000394295
-0.000915647
-0.000366019
-0.000542548
-0.00105363
-0.000298942
-0.00100079
-0.000738201
-0.000216948
-0.000643926
-0.000187342
-5.99025e-05
0.000258913
0.000117122
-0.000319799
0.000285293
0.000126723
-8.01136e-05
0.000223224
0.000227832
-5.12128e-05
-0.000153716
0.000291602
-0.000219124
-0.00057451
0.00012487
-0.000750368
-0.0011834
-0.000233037
-0.000446711
-0.000983581
-0.000694388
-4.57422e-05
-0.000514717
-0.00091377
-0.000410266
-0.000335698
-0.00049499
-0.000765683
-0.000449743
-0.000303351
-0.000849991
-0.000517643
-0.000650873
-0.000937662
-0.000388999
-0.00120841
-0.000797955
-0.000239506
-0.000670951
-0.000427748
0.000207956
0.000588267
-0.000313568
-0.000310553
0.000691632
-0.000180361
-3.09077e-05
0.000466148
-8.32564e-05
0.000151069
0.000192086
0.000370825
-0.000333734
-0.000541837
0.000335289
-0.00115757
-0.0013294
-2.64595e-05
-0.000832973
-0.000934406
-0.00057122
-0.000224917
-0.000157724
-0.00109449
-0.000649481
0.000141641
-0.000475599
-0.000987291
-0.000427841
-4.95973e-05
-0.000877085
-0.000831967
-0.000575858
-0.000788394
-0.000621648
-0.00147224
-0.000823532
-0.000258739
-0.00086504
-0.000506126
0.000718102
0.000711531
-0.00067683
-8.60707e-05
0.000873461
-0.000401222
0.000207398
0.000408512
-0.000245453
0.000656225
0.000326129
0.000377229
-0.000263974
-0.000427945
0.000377897
-0.00158374
-0.00132544
-8.38157e-05
-0.0011611
-0.000690835
-0.000690819
-0.000248492
0.000216382
-0.00149495
-0.000641063
0.00049508
-0.000542208
-0.00115226
-0.000360769
0.00020665
-0.00103212
-0.00104158
-0.000379998
-0.000701436
-0.000897034
-0.00181357
-0.000808061
-0.000374254
-0.00116078
-0.000342246
0.00114918
0.000653803
-0.000805561
0.00014787
0.000905637
-0.00042992
0.000301999
7.2208e-05
-8.06233e-05
0.00111504
0.000250322
0.000458132
-0.000158007
-0.000277824
0.000280802
-0.00201177
-0.00129401
-0.000343366
-0.00132928
-0.00042794
-0.000898936
-2.05551e-05
0.000288952
-0.00192594
-0.000367496
0.000643991
-0.000634457
-0.00120251
-0.000288161
0.000367109
-0.00119384
-0.00114016
-0.000258911
-0.000679498
-0.00120125
-0.00215883
-0.000782244
-0.000623079
-0.00139585
1.29029e-05
0.00146088
0.000542897
-0.000880321
0.000330258
0.00102646
-0.000408787
0.000174734
-0.000106143
0.000371242
0.00141632
0.000259198
0.000592502
-8.236e-05
-5.74026e-06
3.99054e-06
-0.00250918
-0.0012869
-0.00062344
-0.00140135
-0.000375886
-0.000884917
0.000438715
-9.27206e-05
-0.00214254
6.37175e-05
0.00054084
-0.000641197
-0.00116058
-0.000323492
0.000446981
-0.00125255
-0.00112526
-0.000137275
-0.00062821
-0.00158919
-0.00248096
-0.000833974
-0.000939825
-0.00151414
0.000430891
0.00170935
0.000445028
-0.000816384
0.000576124
0.00129776
-0.000612924
-0.000120933
-7.2473e-06
0.000828883
0.00159584
0.000434728
0.000650954
-3.22708e-05
0.000419927
-0.000431647
-0.00310655
-0.00134808
-0.000800511
-0.00152684
-0.000484915
-0.000587723
0.000793381
-0.000755285
-0.00212766
0.000429084
0.000301728
-0.000501793
-0.00115259
-0.000496889
0.000514533
-0.00124603
-0.00104483
1.17711e-05
-0.000572691
-0.00203082
-0.00280867
-0.000976805
-0.00131921
-0.00160126
0.000884919
0.00198062
0.00028342
-0.000756776
0.000946174
0.00118248
-0.00104856
-0.000407356
0.000326844
0.00119771
0.00180253
0.00074352
0.000556818
2.18339e-05
0.00100925
-0.00106393
-0.00380569
-0.0014034
-0.000883699
-0.00180878
-0.00049801
7.94728e-06
0.000768716
-0.00163783
-0.00181757
0.000623619
2.7547e-06
-0.000262468
-0.00123644
-0.000797889
0.000561511
-0.00121691
-0.000903586
0.000176944
-0.000601711
-0.00250751
-0.00322937
-0.00117745
-0.00174345
-0.00175439
0.0013545
0.00232857
1.85707e-05
-0.000634625
0.00146379
0.00077779
-0.00195869
-0.000592631
0.000849448
0.00140974
0.00200604
0.00109879
0.000309331
2.56752e-05
0.00169907
-0.00185175
-0.00459665
-0.00146098
-0.000877546
-0.00223175
-0.000320936
0.000912829
0.000340251
-0.00262217
-0.00141725
0.000595982
-0.00017847
-5.09886e-05
-0.00153294
-0.00126195
0.000583561
-0.00114691
-0.000639849
0.000387705
-0.000656183
-0.00311302
-0.00380574
-0.00148569
-0.00226979
-0.00181496
0.00194598
0.00268491
-0.000509888
-0.00041291
0.00204592
0.000439196
-0.00301226
-0.000718692
0.0013306
0.00156504
0.00182143
0.00135606
-8.37053e-06
0.000218963
0.00219619
-0.00279843
-0.005394
-0.00158876
-0.000939671
-0.00272964
0.000103645
0.00186571
-0.000567161
-0.00372028
-0.00114364
0.000294072
-0.000219473
0.000184217
-0.00176063
-0.00222975
0.000377874
-0.00101058
-0.000300636
0.000564487
-0.000712109
-0.00389426
-0.00449528
-0.00195188
-0.00301499
-0.00201842
0.00275729
0.00316946
-0.00141254
-0.000171948
0.00244227
8.19773e-05
-0.0040824
-0.000784455
0.00182718
0.00173525
0.00168494
0.00149822
-0.000290319
0.000483466
0.00215972
-0.00371895
-0.00628485
-0.00188409
-0.00103484
-0.00326192
0.000752532
0.00296249
-0.00198629
-0.00498121
-0.0011621
-0.000219246
-0.000606944
-1.83675e-05
-0.00207008
-0.00169621
-2.21255e-05
-0.000869153
0.000185809
0.000858872
-0.000954945
-0.00492099
-0.00557494
-0.00275267
-0.00372608
-0.00216471
0.00380916
0.00350087
-0.00288605
0.000164795
0.00265224
0.000565788
-0.00508809
-0.000897282
0.00243907
0.00207383
0.0011747
0.00152209
-0.000500455
0.000683882
0.00163835
-0.00421352
-0.00690166
-0.00216157
-0.00156594
-0.00391218
0.00154168
0.00403132
-0.00392434
-0.00626984
-0.00183183
-0.00107657
-0.0012305
-0.000219415
-0.00259115
-0.00322725
-0.00108655
-0.000912524
0.000745422
0.00163051
-0.00127346
-0.00609537
-0.00688393
-0.00382683
-0.00427666
-0.00234563
0.00519979
0.00350069
-0.00526413
0.000465892
0.00287559
0.000534901
-0.00621257
-0.00101622
0.00326836
0.00229928
0.000422188
0.00177765
-0.00138698
0.000559129
0.00181332
-0.0040565
-0.00730271
-0.00194559
-0.00229637
-0.00528768
0.00214796
0.00438113
-0.0068904
-0.00775919
-0.00156508
-0.00209437
-0.00143337
-4.56509e-05
-0.00260071
-0.00531809
-0.00359162
-0.00141533
0.00142977
0.00177858
-0.00214116
-0.00709663
-0.00861961
-0.00459925
-0.00482438
-0.00255078
0.00679172
0.00330358
-0.006202
0.000194007
0.00368673
-0.0002746
-0.00761875
-0.00150162
0.00428845
0.00208547
-0.00116419
0.00244794
-0.00177597
0.000369573
0.00357584
-0.00362105
-0.00733525
-0.00126551
-0.00279434
-0.00607104
0.00271142
0.00349078
-0.00962044
-0.00958756
-0.00161201
-0.00349977
-0.00240273
0.000168166
-0.0038287
-0.00748824
-0.00528417
-9.31219e-05
0.00281964
0.00188569
-0.00264036
-0.00789929
-0.00940035
-0.00462517
-0.00572618
-0.00208167
0.0081814
0.00196123
-0.00695186
-0.00137275
0.00405164
-0.00141427
-0.00826667
-0.00121194
0.00498867
0.000643353
-0.00316147
0.00338646
-0.00247221
-0.000166746
0.00385781
-0.0047353
-0.00879346
-0.000667895
-0.00277587
-0.00697512
0.00287856
0.0030205
-0.00932572
-0.00892761
-0.00113297
-0.00432925
-0.0054542
9.48822e-05
-0.00497618
-0.0121241
-0.00615422
0.00139052
0.00240161
0.000889279
-0.00366364
-0.00801957
-0.0101601
-0.00506764
-0.00677075
-0.00190666
0.00808974
-0.00034653
-0.00604697
-0.00380151
0.00356892
-0.00283121
-0.00841996
-0.000696359
0.00634477
-0.000367038
-0.00360331
0.00460287
-0.00203611
-0.00128056
0.00345521
-0.00590307
-0.0108827
-0.000415667
-0.00206437
-0.00784973
0.00278729
0.00423137
-0.00790893
-0.0058561
-0.000603692
-0.00382131
-0.00490566
-0.000482081
-0.00536147
-0.0125637
-0.00683543
-0.00131324
-0.00066232
-0.000108889
-0.00371784
-0.00821339
-0.0111219
-0.00590369
-0.0085154
-0.0027192
0.00714956
-0.00154001
-0.00805979
-0.00676679
0.000333638
-0.0049338
-0.00975404
-0.00132162
0.00649016
-0.0013341
-0.00174317
0.00433934
-0.00218424
-0.00111967
0.00447352
-0.00604344
-0.0113713
7.44173e-06
-0.00131517
-0.00869644
0.00127131
0.00457917
-0.00647027
-0.0032572
-0.000694544
-0.00450066
-0.00288849
0.00208011
-0.00369818
-0.0102993
-0.00677459
-0.00227781
-0.000279183
-0.000337415
-0.00375267
-0.00842896
-0.0112362
-0.00663802
-0.00936676
-0.00365287
0.00613458
-0.000487148
-0.0103296
-0.00915681
0.00103469
-0.0042447
-0.0115427
-0.00315021
0.00575142
-0.00234652
-0.000901987
0.00462458
-0.00281199
-0.00203997
0.00516292
-0.00572402
-0.0110911
0.000709051
-0.00117289
-0.00959319
0.00192106
0.00393237
-0.0052555
-0.00185554
-0.00176706
-0.00578622
-0.000758927
0.00273989
-0.00450355
-0.00799761
-0.00583291
-0.00228434
0.000221791
-0.00095148
-0.00371932
-0.00867042
-0.0101512
-0.00749735
-0.00969753
-0.00368437
0.00740532
0.00155254
-0.00854758
-0.00771324
0.0068373
-0.000766851
-0.014359
-0.00413265
0.00593284
-0.00358744
-0.00209298
0.00483745
-0.00403112
-0.00384254
0.00594576
-0.00533133
-0.0120022
0.00081404
-0.00130902
-0.0101228
0.000572309
0.00311091
-0.00424384
-0.00157435
-0.00329143
-0.0072631
0.000861441
0.00371784
-0.00587125
-0.00948635
-0.00617981
-0.00271559
0.000738012
-0.00169788
-0.00312687
-0.0076564
-0.00928453
-0.00838001
-0.00958061
-0.00357355
0.00576141
0.00259876
-0.00461791
-0.00490697
0.00702688
0.00261381
-0.0133271
-0.00342003
0.00676538
-0.00513763
-0.00471578
0.00545399
-0.00571444
-0.00589015
0.00584075
-0.0056212
-0.0132371
0.000101007
-0.00207398
-0.010493
-0.00079351
0.00294665
-0.00415044
-0.00255803
-0.00478533
-0.00786025
0.00239129
0.00412401
-0.00745115
-0.0114579
-0.00656224
-0.00173866
0.00169965
-0.00247611
-0.00227578
-0.00617532
-0.00899609
-0.00894711
-0.00938179
-0.00318073
0.00501642
0.00271767
-0.0058142
-0.00511216
0.00673322
0.00474588
-0.0134644
-0.00244099
0.00795334
-0.00682476
-0.0080737
0.00606309
-0.00807249
-0.00863633
0.0057726
-0.00641536
-0.0149156
-0.00104647
-0.0031041
-0.0110384
-0.00229057
0.00270459
-0.0049308
-0.00386546
-0.00580209
-0.0083003
0.00293681
0.00493962
-0.00876687
-0.0135269
-0.00626416
0.00179224
0.00343925
-0.00307685
-0.00206879
-0.00544085
-0.00888373
-0.00932604
-0.00935523
-0.00254166
0.00521193
0.00287509
-0.00707875
-0.00623143
0.00691864
0.00575797
-0.0141956
-0.00198196
0.00941259
-0.00863891
-0.0104501
0.00637087
-0.0106681
-0.0106383
0.00631432
-0.00763671
-0.017068
-0.0024144
-0.00447442
-0.0109144
-0.002568
0.00290424
-0.00596154
-0.00531172
-0.00658295
-0.00793755
0.00247512
0.00585802
-0.0100322
-0.0154037
-0.00530886
0.00637494
0.00518481
-0.00407602
-0.00270294
-0.00506985
-0.00892874
-0.00951707
-0.00940534
-0.00202968
0.00601919
0.00358147
-0.00788556
-0.00640248
0.00709168
0.00582826
-0.0148309
-0.00150219
0.0101264
-0.00990055
-0.010418
0.00687143
-0.0129531
-0.0120397
0.00694454
-0.00875524
-0.0216124
-0.00295424
-0.00438487
-0.0103561
-0.00130248
0.00407021
-0.0070887
-0.00656135
-0.00669287
-0.00724185
0.000832145
0.00626676
-0.0107681
-0.0171758
-0.0039029
0.0104501
0.00631455
-0.00482743
-0.00305339
-0.00558195
-0.00896577
-0.00930241
-0.00924666
-0.00175731
0.00714384
0.00467328
-0.0081118
-0.00554849
0.0072666
0.00492722
-0.0159574
-0.000617068
0.0103839
-0.00947537
-0.00870297
0.00726008
-0.0138193
-0.0121091
0.00681996
-0.00945254
-0.0253927
-0.00181223
-0.00273515
-0.00997049
0.00049929
0.00482544
-0.00813712
-0.00746144
-0.00650636
-0.00763656
0.000496349
0.00731714
-0.0102117
-0.0187743
-0.00199576
0.0137305
0.00686069
-0.00517598
-0.00315654
-0.00576966
-0.00887695
-0.00906531
-0.00910356
-0.00156099
0.00814109
0.00508453
-0.00723163
-0.00441616
0.00783704
0.00258683
-0.0168753
0.000587921
0.0110391
-0.00843787
-0.00707048
0.00736675
-0.0135409
-0.0102814
0.00614404
-0.00941841
-0.0237887
-0.00058128
-0.0010606
-0.0102987
0.00116847
0.00509159
-0.00836889
-0.00805158
-0.00617536
-0.00857547
0.00272263
0.00909407
-0.0090162
-0.0198348
0.000565713
0.0160959
0.00757036
-0.00512295
-0.00386275
-0.00568804
-0.00872939
-0.00888199
-0.00892473
-0.00146731
0.00809602
0.00510587
-0.00596265
-0.00501443
0.00697117
0.000420444
-0.0166275
0.0020665
0.0115129
-0.00786448
-0.0064549
0.00696843
-0.0125325
-0.00764284
0.00530477
-0.00904464
-0.019561
-9.68687e-05
0.000401343
-0.0109738
0.0010649
0.0052003
-0.00815189
-0.00852608
-0.00556337
-0.00851412
0.00618747
0.0108836
-0.00829903
-0.0198622
0.00336132
0.0184189
0.00893152
-0.00476604
-0.00395188
-0.00544453
-0.00866377
-0.00878434
-0.00868184
-0.00155875
0.00805448
0.00564423
-0.005294
-0.00551877
0.00659542
-0.000482812
-0.0152859
0.00299762
0.0114835
-0.00752045
-0.00623442
0.00646859
-0.0113571
-0.00621884
0.00450372
-0.00930085
-0.0169739
0.000756229
0.0019318
-0.0110825
0.00102126
0.00535119
-0.00834024
-0.008933
-0.00478994
-0.00665999
0.00885639
0.0122724
-0.00878568
-0.0186366
0.00584315
0.0204163
0.0101013
-0.00438724
-0.003743
-0.00525174
-0.00864745
-0.0085707
-0.00841364
-0.00164088
0.00834186
0.00624701
-0.00494371
-0.00519062
0.00656354
-0.000588323
-0.0143962
0.00315704
0.0112373
-0.00708964
-0.00586399
0.00610751
-0.0105863
-0.00586244
0.0040451
-0.00974114
-0.0159218
0.00186522
0.00295231
-0.0106925
0.00136778
0.00536767
-0.00853028
-0.00927924
-0.00437612
-0.0044114
0.0100974
0.0132003
-0.0093299
-0.0173016
0.00723884
0.0214965
0.0106398
-0.00411387
-0.00358546
-0.00522633
-0.00859225
-0.00833989
-0.00825922
-0.00163124
0.00851639
0.00640833
-0.00478026
-0.00493921
0.00656685
-0.000751653
-0.0140983
0.00311648
0.0110846
-0.00665092
-0.00549306
0.00594935
-0.0102207
-0.00584196
0.003833
-0.00990913
-0.0154398
0.00237996
0.00329153
-0.010174
0.00159954
0.00528272
-0.00853044
-0.00937423
-0.00404826
-0.00317065
0.0105118
0.0134831
-0.0096834
-0.016612
0.0076634
0.0216661
0.0107504
-0.00392631
-0.00354888
-0.00524711
-0.00849765
-0.00824197
-0.00820329
-0.00161288
0.00849771
0.0064047
-0.00474331
-0.00485632
0.00656513
-0.000858548