/*--------------------------------*- C++ -*----------------------------------*\
  =========                 |
  \\      /  F ield         | OpenFOAM: The Open Source CFD Toolbox
   \\    /   O peration     | Website:  https://openfoam.org
    \\  /    A nd           | Version:  10
     \\/     M anipulation  |
\*---------------------------------------------------------------------------*/
FoamFile
{
    format      ascii;
    class       volScalarField;
    location    "20";
    object      pMean;
}
// * * * * * * * * * * * * * * * * * * * * * * * * * * * * * * * * * * * * * //

dimensions      [0 2 -2 0 0 0 0];

internalField   nonuniform List<scalar> 
25600
(
-1.05017e-07
-7.23004e-07
-2.39714e-07
-2.70944e-07
-3.63582e-07
-2.36093e-07
-2.49931e-07
-1.87356e-07
-1.43825e-07
-9.84014e-08
-4.72103e-08
-6.39195e-09
2.93724e-08
5.98103e-08
5.58583e-08
7.10063e-08
5.89552e-08
3.32526e-08
1.32687e-08
-3.42718e-08
-6.42871e-08
-1.15647e-07
-1.65026e-07
-2.0592e-07
-2.66456e-07
-2.96724e-07
-3.38428e-07
-3.65441e-07
-3.87201e-07
-4.08884e-07
-4.14572e-07
-4.43208e-07
-4.50246e-07
-4.72377e-07
-4.59511e-07
-5.15984e-07
-4.26612e-07
-4.33048e-07
-8.76926e-07
-1.64922e-07
-1.62373e-07
-7.59606e-07
-2.8733e-07
-3.1421e-07
-4.10399e-07
-2.72995e-07
-2.89695e-07
-2.04244e-07
-1.58939e-07
-1.01152e-07
-4.1086e-08
4.52685e-09
4.47218e-08
7.5174e-08
6.71476e-08
8.91137e-08
7.1681e-08
4.92856e-08
2.64955e-08
-2.76863e-08
-4.61394e-08
-1.08601e-07
-1.52176e-07
-1.90243e-07
-2.55604e-07
-2.74556e-07
-3.16717e-07
-3.37994e-07
-3.60247e-07
-3.71671e-07
-3.77777e-07
-4.11571e-07
-4.18014e-07
-4.41309e-07
-4.44379e-07
-4.98286e-07
-4.27546e-07
-4.26818e-07
-8.66766e-07
-2.35264e-07
-2.50535e-07
-8.18427e-07
-3.51663e-07
-3.85683e-07
-4.71039e-07
-3.24079e-07
-3.41622e-07
-2.22994e-07
-1.86717e-07
-1.03848e-07
-3.72202e-08
1.77534e-08
6.55313e-08
8.83697e-08
7.97758e-08
1.12004e-07
8.52463e-08
7.00545e-08
3.76257e-08
-2.29507e-08
-2.76005e-08
-1.09443e-07
-1.3655e-07
-1.81113e-07
-2.49855e-07
-2.51301e-07
-2.9948e-07
-3.10122e-07
-3.34698e-07
-3.3323e-07
-3.45346e-07
-3.83566e-07
-3.85059e-07
-4.19453e-07
-4.31223e-07
-4.87791e-07
-4.11624e-07
-4.14762e-07
-8.12697e-07
-2.25744e-07
-3.04351e-07
-8.7324e-07
-4.09747e-07
-4.66618e-07
-5.26722e-07
-3.81021e-07
-3.89879e-07
-2.35276e-07
-2.23027e-07
-9.46842e-08
-3.81661e-08
4.26746e-08
9.06108e-08
1.0082e-07
9.82881e-08
1.37074e-07
1.00896e-07
9.34713e-08
4.26994e-08
-1.53315e-08
-7.83897e-09
-1.13741e-07
-1.11339e-07
-1.79917e-07
-2.3925e-07
-2.20171e-07
-2.81604e-07
-2.77031e-07
-3.08189e-07
-2.88688e-07
-3.18511e-07
-3.47909e-07
-3.56206e-07
-4.03142e-07
-4.28878e-07
-4.80888e-07
-4.12027e-07
-4.0231e-07
-8.2882e-07
-2.57878e-07
-3.58397e-07
-9.24747e-07
-4.75308e-07
-5.63713e-07
-5.83882e-07
-4.52687e-07
-4.28556e-07
-2.51484e-07
-2.70234e-07
-7.30484e-08
-5.03484e-08
8.99203e-08
1.0819e-07
1.10827e-07
1.19998e-07
1.54776e-07
1.22572e-07
1.10883e-07
3.74093e-08
-9.16815e-09
2.37372e-09
-1.17685e-07
-8.03311e-08
-1.93944e-07
-2.17252e-07
-1.8532e-07
-2.55359e-07
-2.38615e-07
-2.8265e-07
-2.42571e-07
-3.00281e-07
-2.96613e-07
-3.39088e-07
-3.91286e-07
-4.3797e-07
-4.78841e-07
-4.02348e-07
-3.81284e-07
-8.4755e-07
-2.67823e-07
-4.28985e-07
-9.68738e-07
-5.50072e-07
-6.72699e-07
-6.48605e-07
-5.35091e-07
-4.46613e-07
-2.80434e-07
-3.2002e-07
-4.28128e-08
-7.52058e-08
1.74065e-07
1.03633e-07
1.26907e-07
1.34719e-07
1.62982e-07
1.59575e-07
1.11793e-07
2.52765e-08
-1.5347e-08
8.09607e-10
-1.10778e-07
-4.9825e-08
-2.18371e-07
-1.76335e-07
-1.43708e-07
-2.07165e-07
-1.98219e-07
-2.56374e-07
-1.99019e-07
-2.81874e-07
-2.18808e-07
-3.44434e-07
-3.76402e-07
-4.71823e-07
-4.69964e-07
-3.76323e-07
-3.57312e-07
-8.73659e-07
-2.88266e-07
-5.0223e-07
-9.9852e-07
-6.39622e-07
-7.92867e-07
-7.32686e-07
-6.15743e-07
-4.44127e-07
-3.31148e-07
-3.61875e-07
-1.84279e-08
-1.0322e-07
3.037e-07
6.50986e-08
1.59498e-07
1.25265e-07
1.7073e-07
2.15333e-07
8.37535e-08
8.50853e-09
-5.65384e-08
-6.45878e-09
-8.85443e-08
-2.89337e-08
-2.46713e-07
-1.19051e-07
-8.6925e-08
-1.26249e-07
-1.67887e-07
-2.27824e-07
-1.66866e-07
-2.46915e-07
-1.0784e-07
-3.84776e-07
-3.53239e-07
-5.46514e-07
-4.35641e-07
-3.38102e-07
-3.34429e-07
-9.03776e-07
-3.1935e-07
-5.64956e-07
-1.01803e-06
-7.46471e-07
-9.36762e-07
-8.41967e-07
-6.71464e-07
-4.30805e-07
-4.05829e-07
-3.95633e-07
-1.65846e-08
-1.12976e-07
4.77153e-07
-1.02424e-08
2.09875e-07
7.12501e-08
1.94925e-07
2.79097e-07
1.63871e-08
-1.71522e-08
-1.49916e-07
3.41763e-09
-5.79628e-08
-2.1472e-08
-2.69083e-07
-4.61041e-08
1.08122e-08
-6.35394e-09
-1.58257e-07
-1.96674e-07
-1.47868e-07
-1.64116e-07
3.09465e-08
-4.62704e-07
-3.24819e-07
-6.75727e-07
-3.47501e-07
-2.99854e-07
-3.09104e-07
-9.45274e-07
-3.69178e-07
-6.02641e-07
-1.02705e-06
-8.64077e-07
-1.1275e-06
-9.72191e-07
-6.8406e-07
-4.20713e-07
-4.95927e-07
-4.42085e-07
-3.96426e-08
-8.23057e-08
6.88971e-07
-1.12641e-07
2.63718e-07
-3.088e-08
2.55308e-07
3.35202e-07
-8.91123e-08
-7.46224e-08
-3.03752e-07
5.47393e-08
-3.73268e-08
-1.95491e-08
-2.90748e-07
4.49076e-08
1.76008e-07
1.42705e-07
-1.72143e-07
-1.67575e-07
-1.37139e-07
-9.3814e-09
1.8968e-07
-5.68261e-07
-3.008e-07
-8.61904e-07
-1.91641e-07
-2.85437e-07
-2.71975e-07
-1.02224e-06
-4.3155e-07
-6.1398e-07
-1.02551e-06
-9.92966e-07
-1.389e-06
-1.10168e-06
-6.52857e-07
-4.27459e-07
-5.93493e-07
-5.29363e-07
-6.61594e-08
-6.94134e-09
9.30176e-07
-2.31217e-07
2.89724e-07
-1.68012e-07
3.49746e-07
3.7391e-07
-2.28984e-07
-1.93405e-07
-5.06722e-07
1.68429e-07
-4.39446e-08
-1.16331e-08
-3.26031e-07
1.81984e-07
4.36867e-07
3.04985e-07
-2.02594e-07
-1.51338e-07
-1.11191e-07
2.35607e-07
3.65335e-07
-6.91529e-07
-3.02235e-07
-1.07661e-06
3.85864e-08
-3.00778e-07
-2.13011e-07
-1.16963e-06
-4.80556e-07
-6.19018e-07
-1.0017e-06
-1.15354e-06
-1.7238e-06
-1.19461e-06
-5.95363e-07
-4.49752e-07
-7.06433e-07
-6.7641e-07
-6.27929e-08
9.63699e-08
1.21619e-06
-3.68356e-07
2.68134e-07
-3.13899e-07
4.47645e-07
4.02203e-07
-4.05095e-07
-3.96934e-07
-7.36157e-07
3.35533e-07
-8.74194e-08
1.46028e-08
-3.92135e-07
4.0021e-07
8.00027e-07
4.72349e-07
-2.37084e-07
-1.59856e-07
-4.56748e-08
5.72462e-07
5.63763e-07
-8.24093e-07
-3.40676e-07
-1.31226e-06
3.15547e-07
-3.28248e-07
-1.33973e-07
-1.39871e-06
-4.83545e-07
-6.38946e-07
-9.41366e-07
-1.37608e-06
-2.12276e-06
-1.23064e-06
-5.30445e-07
-4.82116e-07
-8.56002e-07
-8.79699e-07
-6.37708e-09
1.91643e-07
1.56573e-06
-5.51216e-07
2.1285e-07
-4.36155e-07
5.27878e-07
4.44356e-07
-6.43131e-07
-6.80434e-07
-9.65377e-07
5.37872e-07
-1.69713e-07
5.3684e-08
-4.86068e-07
7.46793e-07
1.252e-06
6.44584e-07
-2.7576e-07
-1.85339e-07
1.01699e-07
9.89381e-07
8.05226e-07
-9.66018e-07
-3.89072e-07
-1.5389e-06
6.0545e-07
-3.56023e-07
-7.10762e-08
-1.67553e-06
-4.14681e-07
-6.63411e-07
-8.4638e-07
-1.68396e-06
-2.54716e-06
-1.21371e-06
-4.74017e-07
-5.25361e-07
-1.06253e-06
-1.11993e-06
1.11217e-07
2.57179e-07
1.97973e-06
-8.04848e-07
1.42117e-07
-5.40881e-07
5.91211e-07
5.10937e-07
-9.61374e-07
-1.04044e-06
-1.20548e-06
7.79457e-07
-2.88665e-07
1.00561e-07
-6.00499e-07
1.25487e-06
1.76857e-06
8.19078e-07
-3.26785e-07
-2.22035e-07
3.57931e-07
1.47818e-06
1.09512e-06
-1.12024e-06
-4.1986e-07
-1.75539e-06
9.10238e-07
-3.8317e-07
-5.67966e-08
-1.96569e-06
-2.71417e-07
-6.87294e-07
-7.50879e-07
-2.07785e-06
-2.97441e-06
-1.13257e-06
-4.48048e-07
-6.08141e-07
-1.32524e-06
-1.38915e-06
2.92771e-07
2.75991e-07
2.43316e-06
-1.13552e-06
6.91998e-08
-6.34813e-07
6.29894e-07
5.97437e-07
-1.32653e-06
-1.43386e-06
-1.44746e-06
1.04837e-06
-4.74041e-07
1.49662e-07
-7.10822e-07
1.94436e-06
2.3074e-06
9.69806e-07
-4.00342e-07
-2.51063e-07
7.41743e-07
2.03778e-06
1.42524e-06
-1.27268e-06
-3.91512e-07
-1.95328e-06
1.22514e-06
-4.39511e-07
-7.99669e-08
-2.22083e-06
-6.64522e-08
-7.61457e-07
-7.33193e-07
-2.56294e-06
-3.40158e-06
-9.47113e-07
-5.24083e-07
-8.02195e-07
-1.65953e-06
-1.70182e-06
5.41052e-07
1.91938e-07
2.84479e-06
-1.5749e-06
-1.613e-08
-7.00342e-07
6.19653e-07
6.18593e-07
-1.74193e-06
-1.87403e-06
-1.64443e-06
1.28111e-06
-8.01706e-07
1.97908e-07
-8.42187e-07
2.85361e-06
2.79806e-06
1.0051e-06
-5.23782e-07
-2.9751e-07
1.28247e-06
2.65e-06
1.75099e-06
-1.40759e-06
-2.82654e-07
-2.08303e-06
1.51134e-06
-6.11539e-07
-1.46823e-07
-2.42534e-06
2.41453e-07
-9.76087e-07
-8.86509e-07
-3.22641e-06
-3.92674e-06
-5.9062e-07
-8.28983e-07
-1.15613e-06
-2.0939e-06
-2.15702e-06
8.83661e-07
-1.26345e-07
3.12881e-06
-2.19783e-06
-2.02705e-07
-6.92625e-07
3.8913e-07
5.55987e-07
-2.1705e-06
-2.40796e-06
-1.69336e-06
1.36474e-06
-1.37112e-06
1.81953e-07
-1.07021e-06
4.01884e-06
3.10358e-06
8.14681e-07
-7.91612e-07
-3.9302e-07
2.02412e-06
3.21483e-06
1.97367e-06
-1.53363e-06
-1.04208e-07
-2.07258e-06
1.65531e-06
-9.85936e-07
-3.12732e-07
-2.63522e-06
7.2215e-07
-1.62432e-06
-1.40913e-06
-4.27428e-06
-4.76204e-06
-1.82546e-07
-1.63111e-06
-1.8183e-06
-2.79263e-06
-2.95522e-06
1.21841e-06
-9.74457e-07
3.02775e-06
-3.1801e-06
-6.78732e-07
-6.88731e-07
-2.79191e-07
1.77143e-07
-2.77005e-06
-3.17533e-06
-1.61813e-06
1.02289e-06
-2.32639e-06
1.50946e-10
-1.57884e-06
5.33983e-06
2.86608e-06
1.47085e-07
-1.35039e-06
-7.6697e-07
2.91955e-06
3.49887e-06
1.93124e-06
-1.75748e-06
9.29361e-10
-1.94824e-06
1.37754e-06
-1.75588e-06
-7.54509e-07
-3.00296e-06
1.32187e-06
-3.18118e-06
-2.80744e-06
-6.20999e-06
-6.29018e-06
-1.28787e-07
-3.51316e-06
-3.14264e-06
-4.09622e-06
-4.38923e-06
1.23097e-06
-2.85506e-06
2.07212e-06
-5.00987e-06
-1.77145e-06
-9.9056e-07
-1.93865e-06
-6.9606e-07
-3.82479e-06
-4.40166e-06
-1.60877e-06
-2.5044e-07
-4.00186e-06
-7.37165e-07
-2.59319e-06
6.49833e-06
1.53874e-06
-1.43813e-06
-2.67469e-06
-1.64554e-06
3.65601e-06
3.03119e-06
1.19848e-06
-2.46085e-06
-2.4525e-07
-1.94095e-06
1.7435e-07
-3.34829e-06
-1.89753e-06
-3.80495e-06
1.72438e-06
-6.45171e-06
-5.55794e-06
-9.50601e-06
-9.04922e-06
-1.16941e-06
-7.30091e-06
-5.51574e-06
-6.32741e-06
-7.01273e-06
2.13675e-07
-6.58439e-06
-1.43365e-07
-7.94377e-06
-3.95215e-06
-2.36646e-06
-5.31352e-06
-2.63139e-06
-5.71026e-06
-6.57767e-06
-2.27812e-06
-3.17026e-06
-6.74774e-06
-2.35325e-06
-4.74064e-06
6.86011e-06
-1.74856e-06
-4.4817e-06
-5.21574e-06
-3.7119e-06
3.74395e-06
1.10335e-06
-6.53751e-07
-4.09519e-06
-1.32327e-06
-2.64926e-06
-2.7589e-06
-6.25648e-06
-4.18367e-06
-5.5759e-06
1.29583e-06
-1.14315e-05
-9.59377e-06
-1.38206e-05
-1.2692e-05
-3.61271e-06
-1.32201e-05
-8.87167e-06
-9.20174e-06
-1.06823e-05
-2.14373e-06
-1.21731e-05
-3.42748e-06
-1.16483e-05
-6.99012e-06
-5.0687e-06
-1.06694e-05
-5.35137e-06
-7.90671e-06
-9.36775e-06
-3.98621e-06
-8.14613e-06
-1.06031e-05
-4.60652e-06
-7.50481e-06
6.00944e-06
-7.01734e-06
-8.96809e-06
-8.82552e-06
-6.40991e-06
2.85243e-06
-2.23468e-06
-3.52711e-06
-6.33695e-06
-2.82667e-06
-4.33997e-06
-7.61003e-06
-1.0516e-05
-7.60032e-06
-8.21122e-06
-2.54161e-07
-1.73419e-05
-1.38934e-05
-1.77621e-05
-1.44914e-05
-4.6777e-06
-2.0445e-05
-1.3049e-05
-1.21612e-05
-1.34535e-05
-3.40062e-06
-1.86845e-05
-6.93979e-06
-1.4517e-05
-8.91819e-06
-7.06967e-06
-1.7396e-05
-9.34823e-06
-1.04658e-05
-1.13037e-05
-4.5236e-06
-1.42073e-05
-1.50675e-05
-6.67268e-06
-9.30306e-06
6.28664e-06
-1.3187e-05
-1.38746e-05
-1.19927e-05
-8.56232e-06
3.46436e-06
-5.9053e-06
-6.42678e-06
-7.90001e-06
-2.78607e-06
-4.5859e-06
-1.34863e-05
-1.57281e-05
-1.14093e-05
-1.00276e-05
-7.14653e-07
-2.30896e-05
-1.7705e-05
-1.82976e-05
-9.85289e-06
-1.64918e-06
-2.85131e-05
-1.69697e-05
-1.26395e-05
-1.04954e-05
1.81042e-07
-2.46558e-05
-1.0172e-05
-1.40386e-05
-4.0196e-06
-4.61524e-06
-2.54906e-05
-1.29851e-05
-1.03728e-05
-8.16941e-06
-1.13993e-06
-2.08372e-05
-1.91305e-05
-6.43264e-06
-4.8417e-06
1.16132e-05
-1.87156e-05
-1.85169e-05
-1.21524e-05
-4.3234e-06
8.60723e-06
-8.99796e-06
-9.25618e-06
-6.46899e-06
3.35317e-06
-8.87134e-07
-1.98772e-05
-2.13771e-05
-1.30804e-05
-6.26985e-06
2.98851e-06
-2.92949e-05
-1.96658e-05
-1.14332e-05
6.5116e-06
5.56261e-06
-3.65901e-05
-1.91885e-05
-6.67526e-06
2.64603e-06
7.77673e-06
-3.04478e-05
-1.14367e-05
-5.73503e-06
1.09422e-05
3.94503e-07
-3.41285e-05
-1.74349e-05
-6.86774e-06
4.09722e-06
6.59621e-06
-2.71822e-05
-2.28015e-05
-4.83848e-07
9.00571e-06
2.20418e-05
-2.34599e-05
-2.18744e-05
-6.05521e-06
8.58819e-06
1.81187e-05
-1.21529e-05
-1.13221e-05
9.15818e-07
1.90264e-05
6.23729e-06
-2.63402e-05
-2.63206e-05
-9.13575e-06
7.17757e-06
9.93786e-06
-3.46065e-05
-1.80059e-05
2.89411e-06
2.77987e-05
1.38325e-05
-4.31729e-05
-1.80597e-05
5.32637e-06
2.36528e-05
1.67968e-05
-3.54419e-05
-9.88513e-06
9.37495e-06
3.23494e-05
6.88206e-06
-4.41336e-05
-1.9035e-05
4.42435e-06
2.38454e-05
1.47465e-05
-3.3055e-05
-2.30459e-05
1.2529e-05
3.03961e-05
3.29104e-05
-2.79031e-05
-2.20143e-05
6.67198e-06
3.01556e-05
2.84746e-05
-1.62368e-05
-1.26053e-05
1.46729e-05
4.11475e-05
1.31389e-05
-3.3156e-05
-2.87003e-05
1.14323e-06
2.77797e-05
1.79749e-05
-3.96484e-05
-1.39412e-05
2.01579e-05
5.19842e-05
2.14175e-05
-4.95491e-05
-1.37695e-05
2.22532e-05
4.4091e-05
2.37595e-05
-3.9943e-05
-5.43136e-06
2.71299e-05
5.05307e-05
1.07915e-05
-5.19864e-05
-1.93632e-05
1.7342e-05
4.38307e-05
2.31392e-05
-3.9101e-05
-2.05729e-05
2.86218e-05
5.12039e-05
4.17012e-05
-3.23356e-05
-1.98522e-05
2.22578e-05
4.83671e-05
3.75452e-05
-2.07756e-05
-1.27998e-05
3.11376e-05
6.18601e-05
1.91695e-05
-3.98244e-05
-2.98718e-05
1.41494e-05
4.51621e-05
2.49779e-05
-4.31453e-05
-1.08606e-05
3.39645e-05
6.74134e-05
2.56621e-05
-5.15094e-05
-1.13027e-05
3.52221e-05
5.99302e-05
2.74637e-05
-4.33159e-05
-1.00118e-06
4.09411e-05
6.6045e-05
1.34474e-05
-5.74045e-05
-2.01019e-05
2.93614e-05
5.99755e-05
2.7243e-05
-4.48658e-05
-1.93124e-05
4.18601e-05
6.59464e-05
4.82202e-05
-3.48491e-05
-1.65843e-05
3.49519e-05
6.34397e-05
4.3616e-05
-2.49448e-05
-1.28314e-05
4.35679e-05
7.87828e-05
2.07039e-05
-4.43769e-05
-2.98499e-05
2.48021e-05
6.20114e-05
2.86395e-05
-4.61125e-05
-8.95407e-06
4.14457e-05
7.77297e-05
2.78403e-05
-5.44766e-05
-9.56384e-06
4.34697e-05
6.85037e-05
2.80082e-05
-4.6041e-05
-1.65069e-06
4.72742e-05
7.20444e-05
1.36551e-05
-6.12944e-05
-2.02115e-05
3.55051e-05
6.82152e-05
2.93222e-05
-4.81274e-05
-1.87436e-05
4.96304e-05
7.46217e-05
4.97879e-05
-3.73522e-05
-1.73043e-05
4.20201e-05
7.08097e-05
4.46426e-05
-2.70496e-05
-1.40424e-05
4.94555e-05
8.79421e-05
2.00212e-05
-4.77764e-05
-2.8311e-05
3.0666e-05
6.92495e-05
2.99278e-05
-4.94807e-05
-9.9831e-06
4.34375e-05
7.96924e-05
2.70953e-05
-5.84612e-05
-1.09683e-05
4.51677e-05
7.1167e-05
2.72452e-05
-5.05638e-05
-3.00465e-06
4.87858e-05
7.34321e-05
1.38752e-05
-6.331e-05
-2.42338e-05
3.61718e-05
7.12321e-05
2.92285e-05
-5.25933e-05
-2.06505e-05
5.13836e-05
7.68937e-05
4.92572e-05
-3.88538e-05
-1.807e-05
4.32386e-05
7.21436e-05
4.45026e-05
-3.12535e-05
-1.66538e-05
5.05065e-05
9.11197e-05
1.83809e-05
-5.06412e-05
-3.12387e-05
3.18648e-05
7.30362e-05
2.94692e-05
-5.14991e-05
-1.14613e-05
4.2245e-05
7.78702e-05
2.61114e-05
-5.91767e-05
-1.16955e-05
4.37121e-05
7.03365e-05
2.52233e-05
-5.26637e-05
-4.8184e-06
4.71539e-05
7.26588e-05
1.24388e-05
-6.61027e-05
-2.58881e-05
3.42713e-05
7.03326e-05
2.85635e-05
-5.38444e-05
-2.27763e-05
4.98256e-05
7.45911e-05
4.79007e-05
-4.03669e-05
-1.9336e-05
4.08159e-05
7.06673e-05
4.34032e-05
-3.18336e-05
-1.86309e-05
4.8673e-05
9.06527e-05
1.64572e-05
-5.24832e-05
-3.0943e-05
3.02267e-05
7.15231e-05
2.82364e-05
-5.21317e-05
-1.14302e-05
4.04313e-05
7.60354e-05
2.42928e-05
-6.06104e-05
-1.18196e-05
4.23191e-05
6.72585e-05
2.34218e-05
-5.29853e-05
-5.29584e-06
4.55835e-05
7.01784e-05
1.10324e-05
-6.67506e-05
-2.66508e-05
3.28355e-05
6.87515e-05
2.71069e-05
-5.49525e-05
-2.38613e-05
4.83962e-05
7.26992e-05
4.63555e-05
-4.07496e-05
-1.97583e-05
3.91602e-05
6.87937e-05
4.17337e-05
-3.27751e-05
-1.92657e-05
4.72915e-05
8.89402e-05
1.44849e-05
-5.3766e-05
-3.14851e-05
2.8916e-05
6.95983e-05
2.65927e-05
-5.28443e-05
-1.14974e-05
3.98914e-05
7.42482e-05
2.26635e-05
-6.08498e-05
-1.15357e-05
4.18436e-05
6.61591e-05
2.17424e-05
-5.35613e-05
-4.88965e-06
4.48682e-05
6.83779e-05
9.08603e-06
-6.74402e-05
-2.62153e-05
3.21196e-05
6.73693e-05
2.54746e-05
-5.56124e-05
-2.31938e-05
4.79027e-05
7.13145e-05
4.48153e-05
-4.12917e-05
-2.00415e-05
3.81668e-05
6.77891e-05
4.04918e-05
-3.33326e-05
-1.93786e-05
4.68792e-05
8.73604e-05
1.27142e-05
-5.42556e-05
-3.16463e-05
2.81782e-05
6.87897e-05
2.47923e-05
-5.39629e-05
-1.14901e-05
3.97218e-05
7.38067e-05
2.15818e-05
-6.19657e-05
-1.13248e-05
4.19197e-05
6.58329e-05
2.06382e-05
-5.45679e-05
-4.67717e-06
4.48408e-05
6.79095e-05
7.99855e-06
-6.87141e-05
-2.61782e-05
3.21267e-05
6.73955e-05
2.44818e-05
-5.68094e-05
-2.281e-05
4.79693e-05
7.1029e-05
4.40628e-05
-4.21447e-05
-2.03993e-05
3.78735e-05
6.77853e-05
3.98117e-05
-3.42251e-05
-1.96111e-05
4.70168e-05
8.6989e-05
1.17046e-05
-5.53748e-05
-3.21425e-05
2.81383e-05
6.88774e-05
2.353e-05
-1.12754e-07
-6.7899e-07
-2.04817e-07
-2.2461e-07
-3.18111e-07
-1.92851e-07
-2.12362e-07
-1.55984e-07
-1.16798e-07
-7.43229e-08
-2.60174e-08
1.11319e-08
4.30134e-08
7.29413e-08
7.09749e-08
8.61764e-08
7.15988e-08
4.35048e-08
2.35967e-08
-2.18962e-08
-4.88074e-08
-9.76262e-08
-1.46738e-07
-1.88254e-07
-2.49128e-07
-2.82069e-07
-3.31091e-07
-3.68756e-07
-3.96599e-07
-4.21463e-07
-4.26944e-07
-4.51195e-07
-4.51743e-07
-4.68788e-07
-4.49703e-07
-4.97929e-07
-3.95574e-07
-3.97617e-07
-7.85141e-07
-1.27093e-07
-1.20537e-07
-7.03726e-07
-2.42212e-07
-2.56508e-07
-3.54686e-07
-2.26249e-07
-2.55919e-07
-1.80953e-07
-1.39181e-07
-8.34175e-08
-2.42383e-08
2.02657e-08
5.89109e-08
9.14765e-08
8.89299e-08
1.08997e-07
8.6996e-08
6.20824e-08
4.06221e-08
-9.19092e-09
-2.40189e-08
-8.61007e-08
-1.31117e-07
-1.71658e-07
-2.3895e-07
-2.67603e-07
-3.23044e-07
-3.57013e-07
-3.82243e-07
-3.96296e-07
-3.9775e-07
-4.22278e-07
-4.1545e-07
-4.30795e-07
-4.19226e-07
-4.62833e-07
-3.77834e-07
-3.71226e-07
-7.71424e-07
-1.5078e-07
-1.61609e-07
-7.39308e-07
-2.79687e-07
-2.98894e-07
-3.90584e-07
-2.66173e-07
-3.08284e-07
-2.05623e-07
-1.69607e-07
-8.71971e-08
-2.04333e-08
3.43344e-08
8.35005e-08
1.16822e-07
1.18852e-07
1.4212e-07
1.03921e-07
8.42446e-08
5.72847e-08
7.05568e-09
4.50772e-09
-8.07914e-08
-1.10868e-07
-1.58677e-07
-2.32856e-07
-2.56595e-07
-3.30276e-07
-3.55688e-07
-3.78119e-07
-3.72725e-07
-3.71427e-07
-3.92402e-07
-3.75569e-07
-3.92222e-07
-3.81066e-07
-4.20242e-07
-3.43073e-07
-3.36373e-07
-7.37082e-07
-1.54392e-07
-1.86827e-07
-7.72317e-07
-3.11431e-07
-3.48308e-07
-4.23731e-07
-3.23398e-07
-3.71093e-07
-2.3615e-07
-2.13109e-07
-8.1092e-08
-2.13185e-08
5.78873e-08
1.13929e-07
1.50486e-07
1.60984e-07
1.75154e-07
1.18789e-07
1.04718e-07
6.82426e-08
2.96421e-08
3.40794e-08
-8.10198e-08
-7.98137e-08
-1.50303e-07
-2.21785e-07
-2.50906e-07
-3.54429e-07
-3.64628e-07
-3.806e-07
-3.45574e-07
-3.48222e-07
-3.53708e-07
-3.32711e-07
-3.46315e-07
-3.3439e-07
-3.73378e-07
-3.19631e-07
-3.0156e-07
-7.3315e-07
-1.58928e-07
-2.17973e-07
-8.02482e-07
-3.424e-07
-4.01892e-07
-4.52456e-07
-4.03714e-07
-4.39086e-07
-2.79329e-07
-2.63261e-07
-5.85675e-08
-3.34345e-08
9.99302e-08
1.44431e-07
1.98878e-07
2.14095e-07
1.98584e-07
1.32088e-07
1.13641e-07
7.3781e-08
5.97981e-08
5.64277e-08
-8.35212e-08
-4.04512e-08
-1.47964e-07
-1.98469e-07
-2.62278e-07
-3.9659e-07
-3.85665e-07
-3.86402e-07
-3.11951e-07
-3.2834e-07
-2.99906e-07
-2.94809e-07
-2.86131e-07
-2.77583e-07
-3.25434e-07
-2.9266e-07
-2.64272e-07
-7.28221e-07
-1.37417e-07
-2.59957e-07
-8.25389e-07
-3.7575e-07
-4.49537e-07
-4.80421e-07
-5.11036e-07
-5.1113e-07
-3.47423e-07
-3.08411e-07
-2.46487e-08
-6.41768e-08
1.68568e-07
1.65901e-07
2.7445e-07
2.67683e-07
2.04242e-07
1.39998e-07
9.54898e-08
8.24227e-08
9.54921e-08
6.95609e-08
-8.29761e-08
5.36183e-09
-1.39323e-07
-1.56294e-07
-3.01241e-07
-4.51837e-07
-4.24338e-07
-3.85191e-07
-2.69619e-07
-3.09897e-07
-2.27569e-07
-2.67179e-07
-1.94998e-07
-2.21263e-07
-2.77696e-07
-2.69873e-07
-2.32785e-07
-7.13687e-07
-9.82735e-08
-3.09151e-07
-8.39607e-07
-4.10293e-07
-4.78274e-07
-5.17602e-07
-6.42965e-07
-5.95424e-07
-4.46805e-07
-3.29407e-07
1.05525e-08
-1.11644e-07
2.63749e-07
1.72099e-07
3.92897e-07
3.05817e-07
1.88918e-07
1.3005e-07
4.23462e-08
1.11208e-07
1.25746e-07
7.45581e-08
-8.05736e-08
5.56196e-08
-1.04944e-07
-9.8729e-08
-3.78489e-07
-5.17524e-07
-4.85404e-07
-3.57802e-07
-2.2388e-07
-2.95176e-07
-1.42825e-07
-2.56156e-07
-5.68226e-08
-1.81426e-07
-2.23382e-07
-2.59175e-07
-2.0303e-07
-6.66598e-07
-4.03037e-08
-3.64688e-07
-8.56707e-07
-4.36482e-07
-4.79193e-07
-5.72853e-07
-7.95874e-07
-7.13754e-07
-5.7216e-07
-3.17215e-07
3.12827e-08
-1.68224e-07
3.75145e-07
1.64848e-07
5.63449e-07
3.10252e-07
1.51928e-07
8.08679e-08
-4.18255e-08
1.74535e-07
1.39639e-07
7.54421e-08
-9.36503e-08
1.23996e-07
-2.24633e-08
-3.54882e-08
-4.95006e-07
-5.98944e-07
-5.6735e-07
-2.81172e-07
-1.79864e-07
-2.78826e-07
-6.25907e-08
-2.52909e-07
1.39661e-07
-1.76872e-07
-1.5616e-07
-2.81654e-07
-1.53397e-07
-5.75484e-07
2.26234e-08
-4.2494e-07
-8.90452e-07
-4.28457e-07
-4.53185e-07
-6.50507e-07
-9.69978e-07
-8.89945e-07
-6.937e-07
-2.72423e-07
2.75412e-08
-2.322e-07
4.84386e-07
1.61648e-07
7.84549e-07
2.65764e-07
7.91475e-08
-3.18446e-08
-1.40006e-07
2.76456e-07
1.28764e-07
7.27029e-08
-1.42048e-07
2.37948e-07
1.21532e-07
2.67723e-08
-6.46305e-07
-7.12904e-07
-6.59935e-07
-1.37125e-07
-1.46059e-07
-2.6455e-07
-6.0791e-09
-2.39156e-07
3.93149e-07
-2.1916e-07
-7.63574e-08
-3.63163e-07
-5.08072e-08
-4.38525e-07
8.9054e-08
-5.06995e-07
-9.56541e-07
-3.62474e-07
-4.07851e-07
-7.47645e-07
-1.18489e-06
-1.14244e-06
-7.82985e-07
-2.02764e-07
1.34987e-08
-3.26743e-07
5.75348e-07
1.79621e-07
1.04422e-06
1.75941e-07
-5.4265e-08
-2.33982e-07
-2.36166e-07
4.18792e-07
9.54031e-08
4.73264e-08
-2.49394e-07
4.35972e-07
3.30191e-07
9.41351e-08
-8.41651e-07
-8.84066e-07
-7.3807e-07
9.0724e-08
-1.20222e-07
-2.62491e-07
4.56828e-09
-1.90889e-07
6.96413e-07
-3.08491e-07
-1.72181e-08
-5.23344e-07
1.32221e-07
-2.6986e-07
1.79917e-07
-6.45941e-07
-1.05591e-06
-2.18136e-07
-3.50239e-07
-8.58539e-07
-1.48587e-06
-1.4769e-06
-8.23555e-07
-1.14966e-07
1.26931e-08
-4.99853e-07
6.49686e-07
2.23519e-07
1.33886e-06
4.30638e-08
-2.90533e-07
-5.35702e-07
-3.24614e-07
6.11254e-07
4.26612e-08
-4.30175e-08
-4.30019e-07
7.53722e-07
6.08155e-07
1.92705e-07
-1.11418e-06
-1.14896e-06
-7.77836e-07
4.1566e-07
-8.76528e-08
-3.03008e-07
-5.19953e-08
-1.00743e-07
1.04929e-06
-4.30639e-07
-2.55511e-08
-7.70648e-07
4.06509e-07
-7.01337e-08
3.1681e-07
-8.88031e-07
-1.19069e-06
-1.54002e-08
-2.66159e-07
-9.84983e-07
-1.91978e-06
-1.89364e-06
-8.11301e-07
3.01467e-08
3.80491e-08
-8.16687e-07
7.02885e-07
2.72746e-07
1.68398e-06
-1.4353e-07
-6.8586e-07
-9.63183e-07
-4.10204e-07
9.00729e-07
-3.07748e-08
-2.53562e-07
-7.05877e-07
1.20387e-06
9.77742e-07
3.50988e-07
-1.52125e-06
-1.52684e-06
-7.59759e-07
8.67418e-07
-2.87732e-08
-4.341e-07
-1.92264e-07
2.43598e-08
1.47031e-06
-5.90996e-07
-1.70243e-07
-1.11326e-06
7.52389e-07
2.05024e-07
5.16479e-07
-1.26995e-06
-1.40095e-06
2.19791e-07
-1.15742e-07
-1.15128e-06
-2.5297e-06
-2.42366e-06
-7.55998e-07
2.96616e-07
7.78093e-08
-1.33183e-06
7.12602e-07
2.95054e-07
2.1275e-06
-4.25109e-07
-1.28632e-06
-1.57126e-06
-5.12519e-07
1.34787e-06
-1.31123e-07
-6.52104e-07
-1.1168e-06
1.80282e-06
1.4804e-06
5.737e-07
-2.14744e-06
-2.05695e-06
-6.79539e-07
1.48702e-06
5.41684e-08
-7.20547e-07
-4.55835e-07
1.46951e-07
2.00708e-06
-8.02784e-07
-5.18439e-07
-1.58964e-06
1.14349e-06
6.31645e-07
7.73184e-07
-1.83342e-06
-1.80657e-06
4.86735e-07
1.43919e-07
-1.40568e-06
-3.35199e-06
-3.12459e-06
-6.36589e-07
7.81313e-07
9.13383e-08
-2.10557e-06
5.96066e-07
2.59129e-07
2.72426e-06
-8.42919e-07
-2.14854e-06
-2.47363e-06
-6.163e-07
2.03093e-06
-2.90612e-07
-1.31634e-06
-1.75366e-06
2.56819e-06
2.19559e-06
8.5887e-07
-3.0979e-06
-2.79681e-06
-5.32358e-07
2.36894e-06
1.5882e-07
-1.21911e-06
-9.19085e-07
2.27168e-07
2.72693e-06
-1.11635e-06
-1.15978e-06
-2.28701e-06
1.57946e-06
1.28581e-06
1.06744e-06
-2.63796e-06
-2.54983e-06
7.71787e-07
5.3919e-07
-1.80782e-06
-4.45971e-06
-4.08251e-06
-4.24392e-07
1.56805e-06
2.81865e-08
-3.22852e-06
2.3274e-07
1.53902e-07
3.50219e-06
-1.48714e-06
-3.32904e-06
-3.79644e-06
-7.19051e-07
3.01434e-06
-5.66305e-07
-2.38376e-06
-2.69974e-06
3.51913e-06
3.18217e-06
1.14192e-06
-4.53577e-06
-3.85475e-06
-3.14997e-07
3.56987e-06
2.13144e-07
-2.0314e-06
-1.69505e-06
2.09876e-07
3.68111e-06
-1.61817e-06
-2.21233e-06
-3.30772e-06
2.06929e-06
2.21804e-06
1.36016e-06
-3.84986e-06
-3.77308e-06
1.08111e-06
1.01071e-06
-2.47795e-06
-5.94457e-06
-5.37435e-06
-1.06879e-07
2.69028e-06
-2.10161e-07
-4.85032e-06
-5.45958e-07
-2.47887e-08
4.42869e-06
-2.42363e-06
-4.95198e-06
-5.76257e-06
-8.05093e-07
4.35795e-06
-1.03966e-06
-4.02382e-06
-4.06096e-06
4.63118e-06
4.46373e-06
1.34956e-06
-6.63447e-06
-5.3307e-06
-5.25604e-08
5.17114e-06
1.83191e-07
-3.26436e-06
-2.93634e-06
7.95678e-08
4.88578e-06
-2.44231e-06
-3.85713e-06
-4.79214e-06
2.59765e-06
3.44231e-06
1.58157e-06
-5.66608e-06
-5.7513e-06
1.3209e-06
1.48406e-06
-3.61132e-06
-7.92265e-06
-7.13768e-06
2.9318e-07
4.13794e-06
-7.66833e-07
-7.14316e-06
-1.97907e-06
-3.62379e-07
5.41613e-06
-3.86759e-06
-7.11099e-06
-8.58437e-06
-9.97312e-07
6.02329e-06
-1.88789e-06
-6.41867e-06
-6.00871e-06
5.80043e-06
5.96241e-06
1.29183e-06
-9.59857e-06
-7.45339e-06
1.95202e-07
7.01781e-06
-1.18074e-07
-5.07035e-06
-4.87396e-06
-2.76717e-07
6.26946e-06
-3.82953e-06
-6.28982e-06
-6.89904e-06
3.04965e-06
4.92686e-06
1.61272e-06
-8.39324e-06
-8.76789e-06
1.29433e-06
1.66876e-06
-5.51293e-06
-1.062e-05
-9.66167e-06
6.8533e-07
5.72638e-06
-1.96261e-06
-1.03673e-05
-4.43011e-06
-1.05614e-06
6.22825e-06
-6.0046e-06
-1.01817e-05
-1.26973e-05
-1.33996e-06
7.86631e-06
-3.37386e-06
-9.75095e-06
-8.84384e-06
6.85886e-06
7.55448e-06
7.53545e-07
-1.36279e-05
-1.05685e-05
2.1867e-07
9.13347e-06
-8.84451e-07
-7.62933e-06
-7.79064e-06
-9.78372e-07
7.61018e-06
-6.12454e-06
-9.84083e-06
-9.99702e-06
3.22663e-06
6.46857e-06
1.19711e-06
-1.25533e-05
-1.373e-05
3.66438e-07
9.47928e-07
-8.74667e-06
-1.44341e-05
-1.36752e-05
4.45811e-07
6.9048e-06
-4.26893e-06
-1.49779e-05
-8.57516e-06
-2.57601e-06
6.36127e-06
-9.30783e-06
-1.42077e-05
-1.86444e-05
-2.48176e-06
9.31776e-06
-5.98836e-06
-1.43541e-05
-1.31564e-05
7.33619e-06
8.75632e-06
-8.02116e-07
-1.91514e-05
-1.53665e-05
-4.43783e-07
1.07661e-05
-2.59439e-06
-1.13675e-05
-1.23609e-05
-2.5304e-06
8.39271e-06
-9.82296e-06
-1.48896e-05
-1.47234e-05
2.52511e-06
7.66561e-06
-1.37138e-07
-1.90733e-05
-2.15694e-05
-2.60552e-06
-1.88983e-06
-1.4043e-05
-2.0275e-05
-2.00802e-05
-1.29702e-06
6.5782e-06
-8.28179e-06
-2.154e-05
-1.52091e-05
-5.78614e-06
5.02193e-06
-1.39519e-05
-2.04621e-05
-2.72445e-05
-4.83419e-06
9.38414e-06
-1.04142e-05
-2.10009e-05
-1.96512e-05
6.62055e-06
8.84123e-06
-3.85309e-06
-2.67334e-05
-2.27086e-05
-2.62752e-06
1.15101e-05
-5.6707e-06
-1.66987e-05
-1.93258e-05
-5.82966e-06
7.7585e-06
-1.53312e-05
-2.22683e-05
-2.20689e-05
-7.16784e-08
7.27098e-06
-3.09495e-06
-2.84182e-05
-3.30804e-05
-7.96917e-06
-7.00473e-06
-2.1405e-05
-2.9011e-05
-3.00051e-05
-5.20745e-06
4.65843e-06
-1.39482e-05
-3.05442e-05
-2.43901e-05
-1.05815e-05
2.29079e-06
-2.0157e-05
-2.8464e-05
-3.88892e-05
-9.16593e-06
7.53542e-06
-1.71026e-05
-3.04465e-05
-2.91498e-05
4.31461e-06
7.38326e-06
-8.88037e-06
-3.70538e-05
-3.31101e-05
-6.46422e-06
1.01361e-05
-1.03812e-05
-2.44589e-05
-2.90462e-05
-1.08e-05
5.49583e-06
-2.28516e-05
-3.24992e-05
-3.29893e-05
-5.34568e-06
5.08592e-06
-8.113e-06
-4.04392e-05
-4.62913e-05
-1.41359e-05
-1.21592e-05
-3.00281e-05
-4.12256e-05
-4.24247e-05
-1.02732e-05
2.40794e-06
-2.03394e-05
-4.18461e-05
-3.52508e-05
-1.53436e-05
9.04762e-07
-2.72005e-05
-4.07423e-05
-5.28004e-05
-1.34892e-05
6.1215e-06
-2.53367e-05
-4.31905e-05
-4.08882e-05
1.42275e-06
6.51792e-06
-1.45715e-05
-4.98066e-05
-4.56093e-05
-1.08514e-05
9.9522e-06
-1.55154e-05
-3.42912e-05
-4.05756e-05
-1.62126e-05
4.49901e-06
-3.16456e-05
-4.6135e-05
-4.67368e-05
-1.20682e-05
2.42456e-06
-1.40793e-05
-5.33475e-05
-6.06222e-05
-1.68849e-05
-1.29896e-05
-3.84219e-05
-5.59515e-05
-5.58979e-05
-1.28303e-05
5.55736e-06
-2.58386e-05
-5.43238e-05
-4.61565e-05
-1.59653e-05
4.56989e-06
-3.39657e-05
-5.34154e-05
-6.77982e-05
-1.59014e-05
7.86749e-06
-3.29344e-05
-5.79314e-05
-5.53538e-05
2.59891e-07
1.00851e-05
-1.85987e-05
-6.37327e-05
-5.88578e-05
-1.26532e-05
1.21924e-05
-1.97049e-05
-4.55824e-05
-5.24059e-05
-1.83516e-05
7.49978e-06
-3.93374e-05
-6.18466e-05
-6.17776e-05
-1.61197e-05
4.1094e-06
-1.89967e-05
-6.69736e-05
-6.924e-05
-1.28291e-05
-7.85232e-06
-4.50917e-05
-7.13125e-05
-6.76779e-05
-9.67867e-06
1.32522e-05
-2.99698e-05
-6.77247e-05
-5.46237e-05
-1.12087e-05
1.3613e-05
-4.06093e-05
-6.94575e-05
-7.89156e-05
-1.17158e-05
1.74023e-05
-3.87081e-05
-7.42475e-05
-6.50883e-05
5.13548e-06
1.80092e-05
-2.0688e-05
-7.83012e-05
-6.93304e-05
-8.56022e-06
2.2041e-05
-2.18997e-05
-5.7907e-05
-6.16911e-05
-1.44432e-05
1.77721e-05
-4.46532e-05
-7.71794e-05
-7.33211e-05
-1.44718e-05
1.19511e-05
-2.15861e-05
-7.79175e-05
-7.54395e-05
-2.01352e-06
4.0425e-06
-4.96335e-05
-8.4561e-05
-7.31585e-05
-6.13917e-07
2.87517e-05
-3.10388e-05
-7.80587e-05
-5.82218e-05
-2.00782e-06
2.48278e-05
-4.37115e-05
-8.07751e-05
-8.53158e-05
-2.06483e-06
3.10544e-05
-4.15266e-05
-8.83868e-05
-7.18654e-05
1.55348e-05
3.34773e-05
-1.93707e-05
-9.09955e-05
-7.40877e-05
1.32404e-06
3.51244e-05
-2.16042e-05
-6.84648e-05
-6.67391e-05
-5.84804e-06
3.15081e-05
-4.61445e-05
-8.98669e-05
-7.96058e-05
-7.34148e-06
2.2396e-05
-2.15465e-05
-8.46041e-05
-7.31185e-05
1.04044e-05
1.39738e-05
-4.97717e-05
-9.18828e-05
-7.4936e-05
1.02113e-05
3.93242e-05
-3.09399e-05
-8.59387e-05
-5.77404e-05
8.90445e-06
3.28396e-05
-4.65472e-05
-8.98115e-05
-8.49047e-05
1.02972e-05
4.55195e-05
-4.05796e-05
-9.7817e-05
-7.1272e-05
2.79786e-05
4.51898e-05
-1.85302e-05
-9.90486e-05
-7.44465e-05
1.34346e-05
4.85954e-05
-1.96101e-05
-7.5329e-05
-6.67918e-05
5.10502e-06
4.55574e-05
-4.48884e-05
-9.60692e-05
-7.98339e-05
1.4893e-06
3.49441e-05
-1.95966e-05
-8.69541e-05
-7.14848e-05
1.97568e-05
2.54065e-05
-4.83032e-05
-9.59611e-05
-7.21212e-05
1.7824e-05
4.6809e-05
-2.81712e-05
-8.86632e-05
-5.74271e-05
1.33904e-05
3.98584e-05