/*--------------------------------*- C++ -*----------------------------------*\
  =========                 |
  \\      /  F ield         | OpenFOAM: The Open Source CFD Toolbox
   \\    /   O peration     | Website:  https://openfoam.org
    \\  /    A nd           | Version:  10
     \\/     M anipulation  |
\*---------------------------------------------------------------------------*/
FoamFile
{
    format      ascii;
    class       volScalarField;
    location    "20";
    object      pPrime2Mean;
}
// * * * * * * * * * * * * * * * * * * * * * * * * * * * * * * * * * * * * * //

dimensions      [0 4 -4 0 0 0 0];

internalField   nonuniform List<scalar> 
25600
(
8.90299e-08
1.22867e-07
9.58446e-08
1.20467e-07
1.52959e-07
9.53616e-08
1.35694e-07
1.37575e-07
9.55826e-08
1.02034e-07
1.11614e-07
1.21191e-07
9.27928e-08
1.53987e-07
1.52519e-07
8.5952e-08
1.7662e-07
1.85879e-07
1.09935e-07
1.51442e-07
1.87807e-07
1.36137e-07
1.38837e-07
1.7368e-07
1.27428e-07
1.62912e-07
1.86815e-07
1.3848e-07
1.81419e-07
1.65089e-07
1.48741e-07
1.61889e-07
1.31905e-07
1.72696e-07
1.46577e-07
1.33369e-07
1.78087e-07
1.16336e-07
1.17798e-07
1.22875e-07
9.21674e-08
1.21734e-07
9.00946e-08
1.28859e-07
1.4734e-07
9.14042e-08
1.32929e-07
1.18323e-07
1.08537e-07
1.06141e-07
1.06746e-07
1.24588e-07
9.44548e-08
1.68377e-07
1.60226e-07
1.04003e-07
1.87015e-07
1.7601e-07
1.40153e-07
1.67687e-07
1.60772e-07
1.53534e-07
1.69221e-07
1.56843e-07
1.44934e-07
2.1285e-07
2.00137e-07
1.48747e-07
1.98133e-07
1.80378e-07
1.57852e-07
1.47671e-07
1.67208e-07
2.11389e-07
1.488e-07
1.83014e-07
2.1477e-07
1.18402e-07
1.27221e-07
1.22179e-07
1.14487e-07
1.29119e-07
9.87027e-08
1.49073e-07
1.27301e-07
9.61747e-08
1.36388e-07
9.34786e-08
1.30834e-07
1.23616e-07
9.71086e-08
1.29326e-07
1.13534e-07
1.67437e-07
1.64393e-07
1.5558e-07
2.1334e-07
1.90112e-07
2.17839e-07
2.20578e-07
1.74104e-07
2.00227e-07
1.99094e-07
1.52695e-07
1.71381e-07
2.41133e-07
2.05434e-07
1.60726e-07
2.04338e-07
1.98658e-07
1.55106e-07
1.3006e-07
1.98712e-07
2.13067e-07
1.43556e-07
2.09849e-07
2.01957e-07
1.11138e-07
1.31523e-07
1.17054e-07
1.47388e-07
1.38968e-07
1.24111e-07
1.74772e-07
1.17451e-07
1.38051e-07
1.53816e-07
8.8595e-08
1.68957e-07
1.46731e-07
1.04251e-07
1.57619e-07
1.33319e-07
1.64829e-07
1.82916e-07
2.00072e-07
2.2016e-07
2.0255e-07
2.83731e-07
2.57708e-07
2.00525e-07
2.3836e-07
2.01582e-07
1.5185e-07
1.89613e-07
2.40458e-07
2.14119e-07
1.86609e-07
2.23113e-07
2.31709e-07
1.59286e-07
1.36159e-07
2.23916e-07
1.9633e-07
1.47221e-07
2.13273e-07
1.75749e-07
1.20964e-07
1.38641e-07
1.23711e-07
1.68204e-07
1.43011e-07
1.50005e-07
1.93023e-07
1.3603e-07
2.08304e-07
1.81326e-07
1.16329e-07
2.21732e-07
1.81358e-07
1.43257e-07
1.90299e-07
1.47391e-07
1.89812e-07
2.07997e-07
2.10247e-07
2.0649e-07
2.05357e-07
3.13688e-07
2.63935e-07
2.27452e-07
2.61984e-07
1.92408e-07
1.71621e-07
2.16886e-07
2.34704e-07
2.4496e-07
2.35459e-07
2.58226e-07
2.73982e-07
1.78557e-07
1.67996e-07
2.50231e-07
1.98756e-07
1.76324e-07
2.1643e-07
1.70726e-07
1.49964e-07
1.50805e-07
1.37032e-07
1.76371e-07
1.46702e-07
1.72861e-07
2.17248e-07
1.87144e-07
2.76591e-07
2.1277e-07
1.5823e-07
2.69257e-07
2.30981e-07
1.93211e-07
2.0348e-07
1.76504e-07
2.46031e-07
2.24739e-07
2.08727e-07
2.10206e-07
2.17535e-07
3.22816e-07
2.66923e-07
2.63233e-07
2.7618e-07
1.93968e-07
2.20672e-07
2.57606e-07
2.45701e-07
3.04107e-07
2.95732e-07
2.98158e-07
3.15783e-07
2.00825e-07
2.12564e-07
2.8182e-07
2.30154e-07
2.25782e-07
2.31499e-07
1.95154e-07
1.91441e-07
1.70283e-07
1.50893e-07
1.89611e-07
1.62688e-07
2.1049e-07
2.68865e-07
2.71105e-07
3.40446e-07
2.49154e-07
2.08783e-07
3.17791e-07
2.9502e-07
2.36326e-07
2.05991e-07
2.40592e-07
3.24877e-07
2.39727e-07
2.33991e-07
2.54701e-07
2.50007e-07
3.39194e-07
3.00544e-07
3.1498e-07
2.89332e-07
2.1903e-07
2.98534e-07
3.16595e-07
2.89984e-07
3.90775e-07
3.62163e-07
3.43317e-07
3.48917e-07
2.24461e-07
2.64933e-07
3.21556e-07
2.91731e-07
2.9444e-07
2.68305e-07
2.55523e-07
2.53284e-07
2.06042e-07
1.74855e-07
2.25213e-07
2.04455e-07
2.83847e-07
3.60176e-07
3.89962e-07
4.15337e-07
3.07184e-07
2.91475e-07
3.98162e-07
3.83978e-07
2.84477e-07
2.33333e-07
3.44656e-07
4.179e-07
2.76589e-07
3.09886e-07
3.35511e-07
3.04716e-07
3.93893e-07
3.87263e-07
3.87859e-07
3.15438e-07
2.78189e-07
4.04551e-07
4.0397e-07
3.8388e-07
5.09596e-07
4.43233e-07
4.00039e-07
3.80377e-07
2.65881e-07
3.29305e-07
3.83875e-07
3.98759e-07
3.9763e-07
3.5185e-07
3.70182e-07
3.54501e-07
2.68254e-07
2.22383e-07
2.96064e-07
2.9162e-07
4.10011e-07
4.9837e-07
5.41925e-07
5.18884e-07
4.21062e-07
4.40119e-07
5.45489e-07
5.20735e-07
3.66387e-07
3.09487e-07
4.97953e-07
5.39247e-07
3.63489e-07
4.36372e-07
4.43219e-07
3.94337e-07
5.1273e-07
5.38933e-07
4.90816e-07
3.79333e-07
3.89834e-07
5.39343e-07
5.34769e-07
5.44672e-07
6.74646e-07
5.50354e-07
4.86621e-07
4.41046e-07
3.47953e-07
4.23822e-07
4.99273e-07
5.75622e-07
5.72974e-07
5.29469e-07
5.69102e-07
5.128e-07
3.70514e-07
3.0449e-07
4.23653e-07
4.49658e-07
6.04687e-07
6.86842e-07
7.3746e-07
6.9205e-07
6.37606e-07
6.94057e-07
8.07012e-07
7.49913e-07
5.23099e-07
4.59119e-07
7.13948e-07
7.10186e-07
5.206e-07
6.10438e-07
5.92124e-07
5.598e-07
7.23676e-07
7.6916e-07
6.55994e-07
5.17907e-07
5.68128e-07
7.1443e-07
7.29956e-07
7.93321e-07
9.08922e-07
7.05146e-07
6.38421e-07
5.77444e-07
4.99018e-07
5.81843e-07
7.11151e-07
8.63009e-07
8.75876e-07
8.64809e-07
8.90337e-07
7.56324e-07
5.44354e-07
4.41709e-07
6.41027e-07
7.09319e-07
8.90543e-07
9.5105e-07
1.02211e-06
1.00035e-06
1.01363e-06
1.10715e-06
1.24617e-06
1.13361e-06
8.07396e-07
7.21898e-07
1.02726e-06
9.60722e-07
7.60073e-07
8.44017e-07
8.21071e-07
8.38217e-07
1.05111e-06
1.10247e-06
9.23028e-07
7.66341e-07
8.31014e-07
9.43581e-07
1.01099e-06
1.16406e-06
1.24812e-06
9.43459e-07
8.82837e-07
8.19572e-07
7.48695e-07
8.572e-07
1.06613e-06
1.32853e-06
1.39851e-06
1.43176e-06
1.38744e-06
1.13601e-06
8.33576e-07
6.65565e-07
1.00141e-06
1.11891e-06
1.29474e-06
1.33372e-06
1.45726e-06
1.49494e-06
1.58574e-06
1.73935e-06
1.93849e-06
1.7678e-06
1.28192e-06
1.1581e-06
1.48586e-06
1.34133e-06
1.10283e-06
1.17181e-06
1.19058e-06
1.2731e-06
1.53941e-06
1.60168e-06
1.3734e-06
1.17056e-06
1.19176e-06
1.26088e-06
1.41963e-06
1.69265e-06
1.72221e-06
1.31052e-06
1.25547e-06
1.22912e-06
1.15894e-06
1.30478e-06
1.60405e-06
2.01e-06
2.22335e-06
2.30663e-06
2.1357e-06
1.7311e-06
1.31686e-06
1.04022e-06
1.58379e-06
1.72468e-06
1.85757e-06
1.89549e-06
2.11461e-06
2.24241e-06
2.41898e-06
2.68037e-06
2.98371e-06
2.75491e-06
2.0215e-06
1.82265e-06
2.11642e-06
1.88726e-06
1.60049e-06
1.67553e-06
1.7631e-06
1.90033e-06
2.2458e-06
2.30797e-06
2.05678e-06
1.77208e-06
1.68595e-06
1.70599e-06
1.98681e-06
2.40711e-06
2.36326e-06
1.85067e-06
1.81874e-06
1.89483e-06
1.83083e-06
2.01307e-06
2.45174e-06
3.03012e-06
3.45944e-06
3.51876e-06
3.17506e-06
2.61643e-06
2.06502e-06
1.64252e-06
2.46733e-06
2.56412e-06
2.6145e-06
2.73547e-06
3.08073e-06
3.30537e-06
3.59761e-06
4.08357e-06
4.58061e-06
4.24618e-06
3.1779e-06
2.78777e-06
2.97086e-06
2.67244e-06
2.3421e-06
2.44501e-06
2.57464e-06
2.7614e-06
3.2004e-06
3.24334e-06
2.988e-06
2.59067e-06
2.37178e-06
2.3381e-06
2.78274e-06
3.35561e-06
3.24406e-06
2.55327e-06
2.54022e-06
2.8661e-06
2.80887e-06
2.98691e-06
3.51319e-06
4.31585e-06
5.08834e-06
5.11346e-06
4.50002e-06
3.83e-06
3.15614e-06
2.5611e-06
3.78107e-06
3.75239e-06
3.76757e-06
4.00818e-06
4.4809e-06
4.76115e-06
5.20244e-06
6.13244e-06
6.95391e-06
6.48561e-06
4.90424e-06
4.18533e-06
4.19862e-06
3.85474e-06
3.47543e-06
3.62075e-06
3.72795e-06
3.93929e-06
4.48343e-06
4.5236e-06
4.28718e-06
3.8008e-06
3.34558e-06
3.18898e-06
3.82538e-06
4.51727e-06
4.37388e-06
3.59775e-06
3.67331e-06
4.3089e-06
4.13616e-06
4.28838e-06
5.08206e-06
6.10475e-06
7.23604e-06
7.14669e-06
6.2397e-06
5.49075e-06
4.70997e-06
3.90363e-06
5.57291e-06
5.3926e-06
5.53439e-06
5.91397e-06
6.44856e-06
6.71788e-06
7.41337e-06
8.99374e-06
1.02426e-05
9.60939e-06
7.3308e-06
6.10271e-06
6.00519e-06
5.67541e-06
5.23444e-06
5.31374e-06
5.34561e-06
5.58378e-06
6.2e-06
6.21569e-06
6.01299e-06
5.48681e-06
4.76283e-06
4.44497e-06
5.26305e-06
6.07978e-06
6.05437e-06
5.00271e-06
5.31591e-06
6.32891e-06
5.92604e-06
5.94447e-06
6.99648e-06
8.52113e-06
9.96872e-06
9.72383e-06
8.64784e-06
7.73882e-06
6.75345e-06
5.83525e-06
7.76017e-06
7.51392e-06
7.96438e-06
8.50831e-06
9.02241e-06
9.2874e-06
1.05758e-05
1.30427e-05
1.48453e-05
1.39076e-05
1.06324e-05
8.77363e-06
8.62352e-06
8.32844e-06
7.73178e-06
7.45374e-06
7.49713e-06
7.86351e-06
8.4055e-06
8.41897e-06
8.33665e-06
7.77156e-06
6.66964e-06
6.25763e-06
7.34803e-06
8.35145e-06
8.55305e-06
7.63717e-06
7.65218e-06
8.67349e-06
8.01885e-06
7.50251e-06
8.21866e-06
1.0284e-05
1.24772e-05
1.2479e-05
1.15424e-05
1.05375e-05
9.29766e-06
8.34593e-06
1.0224e-05
1.0234e-05
1.13343e-05
1.22116e-05
1.25482e-05
1.28161e-05
1.46883e-05
1.81612e-05
2.05254e-05
1.92019e-05
1.45759e-05
1.1974e-05
1.19304e-05
1.18764e-05
1.11462e-05
1.06009e-05
1.05528e-05
1.07965e-05
1.09627e-05
1.09315e-05
1.09256e-05
1.02202e-05
8.92966e-06
8.74552e-06
9.95674e-06
1.11669e-05
1.18537e-05
1.05861e-05
1.04328e-05
1.17689e-05
1.08633e-05
9.72807e-06
1.00022e-05
1.23053e-05
1.51288e-05
1.54073e-05
1.44123e-05
1.33718e-05
1.20541e-05
1.10275e-05
1.30181e-05
1.34468e-05
1.51717e-05
1.65552e-05
1.69293e-05
1.74587e-05
2.02102e-05
2.4613e-05
2.73052e-05
2.53644e-05
1.93636e-05
1.59389e-05
1.61191e-05
1.64483e-05
1.5558e-05
1.47009e-05
1.41232e-05
1.39511e-05
1.36268e-05
1.33506e-05
1.35639e-05
1.30922e-05
1.18163e-05
1.18142e-05
1.30771e-05
1.42678e-05
1.52857e-05
1.35137e-05
1.34204e-05
1.54616e-05
1.45066e-05
1.29091e-05
1.28208e-05
1.55286e-05
1.8441e-05
1.88847e-05
1.79173e-05
1.70226e-05
1.56479e-05
1.41134e-05
1.66487e-05
1.76245e-05
2.02403e-05
2.21741e-05
2.25893e-05
2.32517e-05
2.66915e-05
3.24686e-05
3.58846e-05
3.27177e-05
2.54062e-05
2.1144e-05
2.17141e-05
2.24834e-05
2.10989e-05
1.98269e-05
1.86103e-05
1.82507e-05
1.71675e-05
1.62071e-05
1.68847e-05
1.65176e-05
1.48563e-05
1.52057e-05
1.74693e-05
1.89901e-05
1.96198e-05
1.68053e-05
1.67835e-05
1.98519e-05
1.90957e-05
1.70779e-05
1.63713e-05
1.94664e-05
2.20258e-05
2.22091e-05
2.18704e-05
2.16109e-05
2.01993e-05
1.79852e-05
2.1164e-05
2.22479e-05
2.55851e-05
2.8281e-05
2.87093e-05
2.91028e-05
3.30286e-05
4.01248e-05
4.43918e-05
3.98241e-05
3.08273e-05
2.66122e-05
2.80069e-05
2.90663e-05
2.71056e-05
2.57705e-05
2.40326e-05
2.34118e-05
2.11121e-05
1.94685e-05
2.05105e-05
2.00367e-05
1.76208e-05
1.80865e-05
2.20232e-05
2.50863e-05
2.51621e-05
2.08464e-05
2.04248e-05
2.46107e-05
2.42641e-05
2.1487e-05
2.04039e-05
2.37266e-05
2.61036e-05
2.60849e-05
2.67114e-05
2.69246e-05
2.51365e-05
2.2628e-05
2.52401e-05
2.60343e-05
2.99788e-05
3.38067e-05
3.45091e-05
3.47155e-05
3.88239e-05
4.66257e-05
5.11769e-05
4.53371e-05
3.47235e-05
3.10282e-05
3.26524e-05
3.35282e-05
3.14778e-05
3.02954e-05
2.86261e-05
2.79064e-05
2.42366e-05
2.23698e-05
2.40464e-05
2.31136e-05
1.95555e-05
1.98609e-05
2.51044e-05
3.02142e-05
3.08362e-05
2.51993e-05
2.43895e-05
2.96959e-05
2.99263e-05
2.62965e-05
2.46396e-05
2.81973e-05
3.04702e-05
3.09768e-05
3.15058e-05
3.15244e-05
2.94338e-05
2.67261e-05
2.84867e-05
2.85656e-05
3.28185e-05
3.80174e-05
3.95457e-05
3.97207e-05
4.35239e-05
5.08412e-05
5.57159e-05
4.95325e-05
3.77005e-05
3.45537e-05
3.55632e-05
3.63637e-05
3.42721e-05
3.28177e-05
3.15523e-05
3.1016e-05
2.67002e-05
2.46743e-05
2.64229e-05
2.52859e-05
2.1093e-05
2.1375e-05
2.66527e-05
3.24273e-05
3.46035e-05
2.85426e-05
2.77407e-05
3.36452e-05
3.43472e-05
3.04692e-05
2.81271e-05
3.1085e-05
3.33491e-05
3.43294e-05
3.42275e-05
3.42837e-05
3.26612e-05
3.00682e-05
3.07338e-05
3.01831e-05
3.47471e-05
4.10714e-05
4.35049e-05
4.35124e-05
4.64203e-05
5.30256e-05
5.85949e-05
5.27616e-05
4.02551e-05
3.75409e-05
3.76579e-05
3.87879e-05
3.61596e-05
3.38782e-05
3.25473e-05
3.26508e-05
2.8945e-05
2.67413e-05
2.7816e-05
2.65942e-05
2.18479e-05
2.21991e-05
2.69722e-05
3.23156e-05
3.52598e-05
2.92661e-05
2.92269e-05
3.59747e-05
3.63457e-05
3.25877e-05
3.08619e-05
3.29033e-05
3.52298e-05
3.62917e-05
3.56741e-05
3.62295e-05
3.50889e-05
3.25137e-05
3.16663e-05
3.08807e-05
3.56226e-05
4.25868e-05
4.62235e-05
4.67258e-05
4.91175e-05
5.49048e-05
6.07951e-05
5.53747e-05
4.24984e-05
4.00114e-05
3.91414e-05
4.02015e-05
3.70307e-05
3.44227e-05
3.31781e-05
3.36127e-05
3.09623e-05
2.8419e-05
2.85793e-05
2.74645e-05
2.20943e-05
2.28272e-05
2.74185e-05
3.18431e-05
3.48082e-05
2.96287e-05
3.05157e-05
3.85026e-05
3.85452e-05
3.398e-05
3.30959e-05
3.44611e-05
3.69644e-05
3.79074e-05
3.65196e-05
3.76058e-05
3.72097e-05
3.41992e-05
3.2545e-05
3.13364e-05
3.63492e-05
4.35021e-05
4.75278e-05
4.81434e-05
5.0878e-05
5.63516e-05
6.25201e-05
5.71585e-05
4.37521e-05
4.12416e-05
3.97447e-05
4.07158e-05
3.70442e-05
3.41879e-05
3.35858e-05
3.44238e-05
3.23861e-05
2.99891e-05
2.93369e-05
2.87018e-05
2.24345e-05
2.32574e-05
2.80516e-05
3.18729e-05
3.45447e-05
3.0306e-05
3.17105e-05
4.13569e-05
4.08097e-05
3.52788e-05
3.43798e-05
3.58856e-05
3.84032e-05
3.89632e-05
3.72144e-05
3.84124e-05
3.92272e-05
3.6002e-05
3.32329e-05
3.17209e-05
3.67613e-05
4.40699e-05
4.78151e-05
4.86743e-05
5.21778e-05
5.81459e-05
6.40886e-05
5.81106e-05
4.37386e-05
4.08126e-05
3.90321e-05
4.02908e-05
3.65774e-05
3.34787e-05
3.34121e-05
3.50909e-05
3.3301e-05
3.11088e-05
2.98869e-05
2.94365e-05
2.2558e-05
2.31717e-05
2.81351e-05
3.22008e-05
3.48244e-05
3.07881e-05
3.21924e-05
4.26382e-05
4.15915e-05
3.54688e-05
3.45537e-05
3.67346e-05
3.94369e-05
3.95825e-05
3.78529e-05
3.90611e-05
4.04842e-05
3.72e-05
3.29672e-05
3.15319e-05
3.63282e-05
4.37376e-05
4.72916e-05
4.84049e-05
5.23917e-05
5.92379e-05
6.50299e-05
5.84325e-05
4.31436e-05
3.97185e-05
3.83082e-05
3.95591e-05
3.60202e-05
3.27111e-05
3.29137e-05
3.51558e-05
3.35741e-05
3.12394e-05
3.03148e-05
2.96803e-05
2.26683e-05
2.27283e-05
2.75399e-05
3.17996e-05
3.44574e-05
3.07823e-05
3.17381e-05
4.23145e-05
4.08891e-05
3.46291e-05
3.36524e-05
3.68478e-05
3.98477e-05
3.96847e-05
3.80343e-05
3.86245e-05
4.01803e-05
3.69143e-05
3.22882e-05
3.09757e-05
3.54823e-05
4.27249e-05
4.60694e-05
4.72635e-05
5.15553e-05
5.89857e-05
6.46505e-05
5.81324e-05
4.24511e-05
3.84829e-05
3.79179e-05
3.90851e-05
3.56547e-05
3.22745e-05
3.22682e-05
3.47069e-05
3.31583e-05
3.08567e-05
2.99793e-05
2.97316e-05
2.27222e-05
2.23853e-05
2.68413e-05
3.10869e-05
3.36931e-05
3.0757e-05
3.10007e-05
4.12467e-05
3.98195e-05
3.36421e-05
3.24306e-05
3.64247e-05
3.97515e-05
3.94628e-05
3.7639e-05
3.78582e-05
3.92589e-05
3.60794e-05
3.17764e-05
3.04798e-05
3.47456e-05
4.17766e-05
4.49185e-05
4.6097e-05
5.04186e-05
5.78912e-05
6.34261e-05
5.73046e-05
4.18709e-05
3.77976e-05
3.74693e-05
3.85905e-05
3.51985e-05
3.17557e-05
3.17301e-05
3.40327e-05
3.27022e-05
3.03526e-05
2.9597e-05
2.94068e-05
2.26565e-05
2.21654e-05
2.64188e-05
3.05252e-05
3.29261e-05
3.03111e-05
3.03728e-05
4.01706e-05
3.91734e-05
3.30319e-05
3.17599e-05
3.59692e-05
3.94807e-05
3.92375e-05
3.71747e-05
3.71749e-05
3.85656e-05
3.54904e-05
3.14263e-05
3.01497e-05
3.43321e-05
4.12069e-05
4.41992e-05
4.53309e-05
4.95961e-05
5.69309e-05
6.23619e-05
5.64882e-05
4.13446e-05
3.73365e-05
3.7049e-05
3.81908e-05
3.48379e-05
3.1452e-05
3.13984e-05
3.35779e-05
3.23357e-05
2.99993e-05
2.9187e-05
2.89951e-05
2.24351e-05
2.1935e-05
2.60826e-05
3.01463e-05
3.24109e-05
2.9824e-05
2.99502e-05
3.9493e-05
3.86619e-05
3.25913e-05
3.13785e-05
3.55595e-05
3.91693e-05
3.88594e-05
3.68488e-05
3.67182e-05
3.80893e-05
3.50903e-05
3.12344e-05
3.00056e-05
3.41903e-05
4.10279e-05
4.40079e-05
4.50977e-05
4.93375e-05
5.66105e-05
6.19449e-05
5.61102e-05
4.10578e-05
3.71059e-05
3.68448e-05
3.80011e-05
3.46663e-05
3.13144e-05
3.12411e-05
3.3403e-05
3.21884e-05
2.98511e-05
2.90422e-05
2.88224e-05
2.23041e-05
2.18153e-05
2.59352e-05
2.9963e-05
3.21981e-05
2.95944e-05
2.97779e-05
3.92086e-05
3.84431e-05
3.24115e-05
3.12728e-05
3.54509e-05
3.90841e-05
3.87193e-05
3.67129e-05
3.65655e-05
3.78806e-05
3.49112e-05
8.97055e-08
1.24174e-07
1.00319e-07
1.20822e-07
1.50203e-07
9.31647e-08
1.38029e-07
1.40075e-07
9.09397e-08
1.03131e-07
1.16098e-07
1.17997e-07
9.30296e-08
1.53014e-07
1.52441e-07
9.01465e-08
1.7446e-07
1.8781e-07
1.14171e-07
1.54791e-07
1.87896e-07
1.3506e-07
1.43799e-07
1.70724e-07
1.27407e-07
1.74059e-07
1.90436e-07
1.43092e-07
1.96067e-07
1.7331e-07
1.48665e-07
1.68243e-07
1.33471e-07
1.63705e-07
1.42459e-07
1.27485e-07
1.73144e-07
1.16234e-07
1.1746e-07
1.25572e-07
9.05109e-08
1.22647e-07
9.34091e-08
1.2793e-07
1.44737e-07
9.00422e-08
1.31386e-07
1.18191e-07
1.0383e-07
1.0424e-07
1.12406e-07
1.25147e-07
9.16021e-08
1.66645e-07
1.61209e-07
1.02014e-07
1.75635e-07
1.71662e-07
1.39486e-07
1.63319e-07
1.58633e-07
1.57211e-07
1.73564e-07
1.56485e-07
1.4714e-07
2.21533e-07
2.04801e-07
1.51455e-07
2.12638e-07
1.87583e-07
1.52906e-07
1.5404e-07
1.62785e-07
1.92407e-07
1.41922e-07
1.75822e-07
2.07406e-07
1.16856e-07
1.25079e-07
1.21385e-07
1.07783e-07
1.27885e-07
9.74324e-08
1.42748e-07
1.28419e-07
9.69794e-08
1.32579e-07
9.64628e-08
1.27945e-07
1.21254e-07
1.06508e-07
1.32358e-07
1.08565e-07
1.66698e-07
1.67848e-07
1.4598e-07
1.95994e-07
1.86626e-07
2.14104e-07
2.10894e-07
1.77763e-07
2.11132e-07
2.01763e-07
1.5315e-07
1.72405e-07
2.43623e-07
2.06855e-07
1.59903e-07
2.12787e-07
1.95619e-07
1.4871e-07
1.35653e-07
1.84914e-07
1.91907e-07
1.39921e-07
2.06168e-07
2.00881e-07
1.11037e-07
1.25961e-07
1.13221e-07
1.34382e-07
1.33583e-07
1.14183e-07
1.62689e-07
1.21641e-07
1.34015e-07
1.47453e-07
9.18935e-08
1.62339e-07
1.4362e-07
1.1156e-07
1.55703e-07
1.2762e-07
1.65203e-07
1.87694e-07
1.85057e-07
2.07266e-07
2.07191e-07
2.75986e-07
2.45706e-07
2.1124e-07
2.52011e-07
2.02416e-07
1.4906e-07
1.86774e-07
2.39108e-07
2.12834e-07
1.85979e-07
2.23613e-07
2.21945e-07
1.62569e-07
1.41319e-07
2.02567e-07
1.79429e-07
1.46912e-07
2.12535e-07
1.83896e-07
1.16434e-07
1.25285e-07
1.14255e-07
1.53829e-07
1.38636e-07
1.34958e-07
1.8068e-07
1.42626e-07
1.91668e-07
1.7124e-07
1.14963e-07
2.06393e-07
1.75667e-07
1.42332e-07
1.79979e-07
1.41073e-07
1.88323e-07
2.10619e-07
1.90768e-07
2.06811e-07
2.19401e-07
2.98024e-07
2.53862e-07
2.4143e-07
2.74371e-07
1.95149e-07
1.63172e-07
2.11768e-07
2.32098e-07
2.42517e-07
2.3372e-07
2.53158e-07
2.74273e-07
1.9857e-07
1.72441e-07
2.26583e-07
1.87682e-07
1.75735e-07
2.22719e-07
1.89682e-07
1.3727e-07
1.30506e-07
1.23469e-07
1.68317e-07
1.50568e-07
1.56955e-07
2.08954e-07
1.93827e-07
2.42664e-07
2.01567e-07
1.5025e-07
2.44913e-07
2.17579e-07
1.80915e-07
1.83899e-07
1.6703e-07
2.36064e-07
2.18347e-07
1.83392e-07
2.23382e-07
2.3402e-07
2.95493e-07
2.59716e-07
2.73198e-07
2.89784e-07
2.03429e-07
2.05579e-07
2.50602e-07
2.42297e-07
3.01129e-07
2.87954e-07
2.92623e-07
3.38102e-07
2.36569e-07
2.15193e-07
2.59222e-07
2.16895e-07
2.18467e-07
2.50126e-07
2.19944e-07
1.71849e-07
1.47693e-07
1.36059e-07
1.95174e-07
1.76279e-07
1.90757e-07
2.59063e-07
2.64126e-07
2.88527e-07
2.40803e-07
1.91599e-07
2.83141e-07
2.69902e-07
2.0981e-07
1.85177e-07
2.25653e-07
2.99918e-07
2.16173e-07
1.98145e-07
2.7595e-07
2.62599e-07
3.02998e-07
2.89738e-07
3.16848e-07
3.11824e-07
2.35363e-07
2.755e-07
3.02875e-07
2.85149e-07
3.82212e-07
3.43292e-07
3.42285e-07
3.98863e-07
2.73757e-07
2.70112e-07
3.02142e-07
2.63192e-07
2.77519e-07
3.03443e-07
2.76226e-07
2.25325e-07
1.81932e-07
1.59905e-07
2.4738e-07
2.19458e-07
2.44169e-07
3.31534e-07
3.50053e-07
3.45789e-07
3.00008e-07
2.56704e-07
3.44271e-07
3.35017e-07
2.41188e-07
2.23649e-07
3.19385e-07
3.6976e-07
2.33707e-07
2.5574e-07
3.58665e-07
3.13123e-07
3.52917e-07
3.66227e-07
3.82282e-07
3.53889e-07
2.99643e-07
3.71833e-07
3.81031e-07
3.72457e-07
4.74638e-07
4.12444e-07
4.1466e-07
4.59942e-07
3.31008e-07
3.50753e-07
3.66968e-07
3.39111e-07
3.68623e-07
3.99014e-07
3.70274e-07
3.0755e-07
2.36614e-07
2.08795e-07
3.35057e-07
2.88714e-07
3.23791e-07
4.28943e-07
4.55146e-07
4.25867e-07
4.04169e-07
3.6942e-07
4.50433e-07
4.17212e-07
3.03365e-07
3.2274e-07
4.4994e-07
4.58671e-07
2.98642e-07
3.53197e-07
4.62965e-07
4.05948e-07
4.72175e-07
5.08505e-07
4.81105e-07
4.32576e-07
4.12089e-07
5.0639e-07
5.11173e-07
5.17374e-07
5.93148e-07
5.2188e-07
5.31603e-07
5.45015e-07
4.36482e-07
4.75568e-07
4.81185e-07
4.73646e-07
5.24729e-07
5.64568e-07
5.25325e-07
4.27199e-07
3.19725e-07
2.96584e-07
4.74183e-07
3.9649e-07
4.36916e-07
5.58783e-07
5.95498e-07
5.56112e-07
5.88346e-07
5.58312e-07
6.18808e-07
5.37528e-07
4.30784e-07
4.95461e-07
6.23526e-07
5.97994e-07
4.3034e-07
4.85464e-07
6.03266e-07
5.78088e-07
6.80666e-07
7.34434e-07
6.47874e-07
5.84929e-07
5.94152e-07
7.10521e-07
7.259e-07
7.36461e-07
7.80961e-07
7.09063e-07
7.18705e-07
7.00482e-07
6.35976e-07
6.94007e-07
7.02264e-07
7.17815e-07
7.92266e-07
8.39468e-07
7.73909e-07
6.03608e-07
4.50005e-07
4.45211e-07
6.92441e-07
5.64758e-07
6.03052e-07
7.50081e-07
8.03758e-07
7.82724e-07
8.94548e-07
8.533e-07
8.59794e-07
7.18366e-07
6.54101e-07
7.70125e-07
8.73086e-07
8.3132e-07
6.45265e-07
6.78644e-07
8.33883e-07
8.72394e-07
1.00017e-06
1.0877e-06
9.32104e-07
8.55508e-07
8.75002e-07
1.02131e-06
1.06868e-06
1.09226e-06
1.13072e-06
1.00428e-06
9.84984e-07
9.62834e-07
9.81376e-07
1.08232e-06
1.11099e-06
1.14595e-06
1.23685e-06
1.28275e-06
1.15238e-06
8.67966e-07
6.72899e-07
6.99424e-07
1.0238e-06
8.25992e-07
8.69953e-07
1.05979e-06
1.13768e-06
1.15141e-06
1.35801e-06
1.28414e-06
1.18652e-06
9.95371e-07
1.00111e-06
1.17945e-06
1.24144e-06
1.19245e-06
9.64309e-07
9.84909e-07
1.20822e-06
1.31429e-06
1.46343e-06
1.63786e-06
1.40744e-06
1.29373e-06
1.2954e-06
1.49546e-06
1.62204e-06
1.7046e-06
1.7805e-06
1.46128e-06
1.37745e-06
1.41818e-06
1.56926e-06
1.75021e-06
1.80604e-06
1.86746e-06
1.96324e-06
1.98827e-06
1.72129e-06
1.27558e-06
1.06163e-06
1.1098e-06
1.55676e-06
1.25508e-06
1.32374e-06
1.58982e-06
1.72561e-06
1.78386e-06
2.07781e-06
1.91148e-06
1.66828e-06
1.46336e-06
1.56917e-06
1.80811e-06
1.80346e-06
1.71647e-06
1.45574e-06
1.49566e-06
1.80956e-06
1.94324e-06
2.13858e-06
2.38654e-06
2.13971e-06
1.98836e-06
1.95447e-06
2.20678e-06
2.56571e-06
2.85637e-06
2.96461e-06
2.18422e-06
1.97876e-06
2.19607e-06
2.62353e-06
2.98375e-06
3.09153e-06
3.11343e-06
3.15682e-06
3.11268e-06
2.59034e-06
1.9213e-06
1.71561e-06
1.77264e-06
2.45074e-06
1.99328e-06
2.11297e-06
2.47753e-06
2.67907e-06
2.78802e-06
3.19551e-06
2.85026e-06
2.41709e-06
2.25446e-06
2.44943e-06
2.65095e-06
2.46928e-06
2.30449e-06
2.08619e-06
2.27745e-06
2.74798e-06
2.89547e-06
3.05016e-06
3.41881e-06
3.28391e-06
3.02033e-06
2.95385e-06
3.32638e-06
4.13011e-06
4.99481e-06
5.16042e-06
3.3883e-06
2.89355e-06
3.35038e-06
4.14677e-06
4.78226e-06
5.06518e-06
5.24621e-06
5.15063e-06
4.91004e-06
3.96275e-06
2.98799e-06
2.81256e-06
2.85674e-06
3.81337e-06
3.11867e-06
3.31071e-06
3.89145e-06
4.21202e-06
4.27222e-06
4.71122e-06
4.1558e-06
3.58787e-06
3.49315e-06
3.66454e-06
3.64859e-06
3.24785e-06
2.94689e-06
2.84456e-06
3.40125e-06
4.20501e-06
4.40451e-06
4.53238e-06
4.81001e-06
5.01858e-06
4.46309e-06
4.48541e-06
5.02391e-06
6.37796e-06
8.38549e-06
8.80706e-06
5.57979e-06
4.3054e-06
5.04563e-06
6.38708e-06
7.36769e-06
7.97673e-06
8.37712e-06
7.93825e-06
7.45338e-06
5.90417e-06
4.51471e-06
4.51564e-06
4.5875e-06
5.41827e-06
4.57674e-06
4.87115e-06
5.75385e-06
6.30205e-06
6.51316e-06
6.89162e-06
5.96869e-06
5.28113e-06
5.20496e-06
5.33097e-06
5.03347e-06
4.28068e-06
3.75616e-06
3.82535e-06
5.01929e-06
6.2003e-06
6.37815e-06
6.60535e-06
7.21688e-06
7.85523e-06
7.32327e-06
7.24985e-06
7.13342e-06
8.90875e-06
1.14359e-05
1.1032e-05
6.43846e-06
4.67344e-06
6.31245e-06
8.63162e-06
1.01915e-05
1.14691e-05
1.21138e-05
1.13567e-05
1.0679e-05
8.36459e-06
6.56115e-06
6.48563e-06
6.42163e-06
7.44702e-06
6.56696e-06
6.86248e-06
7.94335e-06
8.67247e-06
9.25602e-06
9.45345e-06
8.24024e-06
7.59351e-06
7.57371e-06
7.66417e-06
7.09101e-06
5.62752e-06
4.63003e-06
5.07578e-06
7.37211e-06
9.12193e-06
9.28734e-06
9.26164e-06
1.01867e-05
1.1216e-05
1.04934e-05
9.00287e-06
8.53387e-06
1.11926e-05
1.39323e-05
1.29709e-05
7.52216e-06
5.7225e-06
7.83587e-06
1.06972e-05
1.26039e-05
1.39968e-05
1.53075e-05
1.49767e-05
1.39211e-05
1.09759e-05
8.66775e-06
8.42677e-06
8.39485e-06
1.05063e-05
9.78035e-06
1.00353e-05
1.0998e-05
1.1737e-05
1.24069e-05
1.26114e-05
1.0934e-05
1.0505e-05
1.07741e-05
1.08941e-05
9.69031e-06
7.03267e-06
6.01897e-06
7.63063e-06
1.14542e-05
1.31628e-05
1.22487e-05
1.1608e-05
1.27909e-05
1.37137e-05
1.285e-05
1.13263e-05
1.18368e-05
1.54324e-05
1.80862e-05
1.58193e-05
9.4297e-06
7.62076e-06
9.96912e-06
1.40148e-05
1.75094e-05
1.82514e-05
1.87429e-05
1.85502e-05
1.71217e-05
1.39171e-05
1.12773e-05
1.09901e-05
1.11196e-05
1.39817e-05
1.34868e-05
1.37759e-05
1.43363e-05
1.5006e-05
1.59816e-05
1.66888e-05
1.48685e-05
1.52993e-05
1.6129e-05
1.60892e-05
1.32642e-05
9.33141e-06
8.42041e-06
1.07906e-05
1.49066e-05
1.60136e-05
1.4905e-05
1.44561e-05
1.58874e-05
1.65992e-05
1.61603e-05
1.48922e-05
1.63686e-05
1.99337e-05
2.13591e-05
1.81612e-05
1.16657e-05
9.71176e-06
1.28269e-05
1.89954e-05
2.33909e-05
2.36365e-05
2.30547e-05
2.2924e-05
2.12396e-05
1.7509e-05
1.46883e-05
1.40373e-05
1.42136e-05
1.71008e-05
1.65762e-05
1.67939e-05
1.71551e-05
1.75437e-05
1.84542e-05
1.95829e-05
1.87277e-05
2.02534e-05
2.12137e-05
2.07819e-05
1.67267e-05
1.21395e-05
1.10838e-05
1.32273e-05
1.66709e-05
1.81479e-05
1.80171e-05
1.82308e-05
1.99895e-05
2.04548e-05
2.06604e-05
1.97635e-05
2.13609e-05
2.46086e-05
2.48035e-05
2.16004e-05
1.49529e-05
1.27397e-05
1.64366e-05
2.3357e-05
2.7851e-05
2.92821e-05
2.87675e-05
2.81516e-05
2.65016e-05
2.20696e-05
1.83663e-05
1.6867e-05
1.69794e-05
2.09041e-05
2.0024e-05
1.96318e-05
1.95169e-05
1.903e-05
1.98422e-05
2.13875e-05
2.15556e-05
2.35404e-05
2.44777e-05
2.38539e-05
1.95955e-05
1.48853e-05
1.34306e-05
1.48755e-05
1.82713e-05
2.05722e-05
2.10382e-05
2.18315e-05
2.39775e-05
2.40241e-05
2.47902e-05
2.42369e-05
2.60568e-05
2.96143e-05
3.0192e-05
2.6985e-05
1.94996e-05
1.66104e-05
2.02579e-05
2.69789e-05
3.14496e-05
3.41454e-05
3.45218e-05
3.35903e-05
3.17542e-05
2.71418e-05
2.24027e-05
2.02932e-05
2.06316e-05
2.48769e-05
2.3858e-05
2.25382e-05
2.13224e-05
2.00711e-05
2.12769e-05
2.35209e-05
2.44455e-05
2.63997e-05
2.67926e-05
2.58908e-05
2.15994e-05
1.68742e-05
1.55463e-05
1.63804e-05
2.03068e-05
2.36554e-05
2.45253e-05
2.59853e-05
2.85288e-05
2.8336e-05
2.90932e-05
2.86124e-05
3.10366e-05
3.54648e-05
3.71059e-05
3.29865e-05
2.44761e-05
2.07001e-05
2.40395e-05
3.0894e-05
3.56577e-05
3.81957e-05
3.83136e-05
3.63837e-05
3.51242e-05
3.18416e-05
2.68101e-05
2.41889e-05
2.46197e-05
2.81003e-05
2.72594e-05
2.52406e-05
2.33202e-05
2.14375e-05
2.34155e-05
2.62805e-05
2.76901e-05
2.92763e-05
2.86074e-05
2.71701e-05
2.26034e-05
1.81393e-05
1.74141e-05
1.79828e-05
2.24232e-05
2.67901e-05
2.85887e-05
3.08519e-05
3.29932e-05
3.33561e-05
3.37685e-05
3.3857e-05
3.6738e-05
4.14513e-05
4.30029e-05
3.90529e-05
2.96288e-05
2.47537e-05
2.75048e-05
3.46572e-05
4.11514e-05
4.42107e-05
4.20285e-05
3.79675e-05
3.67232e-05
3.46397e-05
2.98018e-05
2.67275e-05
2.74168e-05
3.02186e-05
2.94867e-05
2.67251e-05
2.53696e-05
2.30052e-05
2.54046e-05
2.88544e-05
3.08409e-05
3.24042e-05
3.09744e-05
2.90139e-05
2.41474e-05
1.97383e-05
1.91976e-05
1.97838e-05
2.46191e-05
3.00058e-05
3.23115e-05
3.52299e-05
3.73866e-05
3.81156e-05
3.71679e-05
3.74215e-05
4.09172e-05
4.54988e-05
4.76557e-05
4.42139e-05
3.38085e-05
2.79568e-05
3.01834e-05
3.70695e-05
4.47383e-05
4.97834e-05
4.70542e-05
4.10767e-05
3.84003e-05
3.68533e-05
3.1997e-05
2.85892e-05
2.92978e-05
3.151e-05
3.05551e-05
2.69782e-05
2.65097e-05
2.43498e-05
2.69577e-05
3.10421e-05
3.32284e-05
3.44618e-05
3.25447e-05
3.04017e-05
2.5824e-05
2.15962e-05
2.08485e-05
2.1259e-05
2.61418e-05
3.20396e-05
3.44152e-05
3.80606e-05
4.01464e-05
4.07328e-05
3.87781e-05
3.81787e-05
4.30004e-05
4.73202e-05
5.1196e-05
4.80737e-05
3.63895e-05
2.96372e-05
3.19932e-05
3.84413e-05
4.5708e-05
5.15102e-05
5.04118e-05
4.50256e-05
4.15263e-05
3.93125e-05
3.40801e-05
3.04466e-05
3.09229e-05
3.26104e-05
3.12002e-05
2.66663e-05
2.64556e-05
2.4909e-05
2.77475e-05
3.21627e-05
3.45323e-05
3.54122e-05
3.3351e-05
3.12288e-05
2.72086e-05
2.37294e-05
2.23663e-05
2.22341e-05
2.67274e-05
3.25787e-05
3.47991e-05
3.90247e-05
4.01071e-05
4.03013e-05
3.88062e-05
3.75723e-05
4.32351e-05
4.7543e-05
5.31492e-05
5.0237e-05
3.75132e-05
3.03786e-05
3.3052e-05
3.95923e-05
4.6088e-05
5.14396e-05
5.18803e-05
4.776e-05
4.5125e-05
4.16897e-05
3.57829e-05
3.22645e-05
3.25983e-05
3.34854e-05
3.15334e-05
2.66489e-05
2.6252e-05
2.52046e-05
2.84069e-05
3.2803e-05
3.51774e-05
3.58117e-05
3.35727e-05
3.1656e-05
2.825e-05
2.4772e-05
2.32877e-05
2.25939e-05
2.68101e-05
3.23649e-05
3.44668e-05
3.92285e-05
3.99352e-05
3.93784e-05
3.84469e-05
3.67031e-05
4.21339e-05
4.72305e-05
5.38566e-05
5.11037e-05
3.79752e-05
3.07784e-05
3.38715e-05
4.11082e-05
4.70161e-05
5.15381e-05
5.23944e-05
4.93655e-05
4.8664e-05
4.46363e-05
3.74977e-05
3.36712e-05
3.38792e-05
3.39048e-05
3.16641e-05
2.66461e-05
2.63973e-05
2.53041e-05
2.85293e-05
3.30772e-05
3.5302e-05
3.58171e-05
3.35441e-05
3.22072e-05
2.92352e-05
2.57025e-05
2.3675e-05
2.28279e-05
2.68371e-05
3.19368e-05
3.43031e-05
3.91714e-05
3.99859e-05
3.90239e-05
3.81911e-05
3.60928e-05
4.13814e-05
4.69838e-05
5.41085e-05
5.20817e-05
3.84571e-05
3.10329e-05
3.44569e-05
4.22638e-05
4.76724e-05
5.14874e-05
5.17501e-05
4.95944e-05
5.05058e-05
4.71558e-05
3.8866e-05
3.44642e-05
3.46378e-05
3.37886e-05
3.15634e-05
2.65861e-05
2.6668e-05
2.535e-05
2.84023e-05
3.27936e-05
3.50375e-05
3.53138e-05
3.31724e-05
3.20994e-05
2.93715e-05
2.57791e-05
2.35257e-05
2.2559e-05
2.64144e-05
3.13923e-05
3.39821e-05
3.86619e-05
3.97272e-05
3.85351e-05
3.79578e-05
3.55599e-05
4.09398e-05
4.65962e-05
5.36814e-05
5.22556e-05
3.8713e-05
3.10311e-05
3.45745e-05
4.26371e-05
4.76674e-05
5.10663e-05
5.08678e-05
4.88552e-05
5.0872e-05
4.83455e-05
3.94453e-05
3.47341e-05
3.47134e-05
3.32618e-05
3.11121e-05
2.62749e-05
2.64776e-05
2.51432e-05
2.80235e-05
3.23352e-05
3.44986e-05
3.47285e-05
3.2664e-05
3.16285e-05
2.89989e-05
2.53805e-05
2.30475e-05
2.20682e-05
2.58738e-05
3.08342e-05
3.35011e-05
3.80679e-05
3.91971e-05
3.78626e-05
3.74565e-05
3.49746e-05
4.03763e-05
4.60328e-05