/*--------------------------------*- C++ -*----------------------------------*\
  =========                 |
  \\      /  F ield         | OpenFOAM: The Open Source CFD Toolbox
   \\    /   O peration     | Website:  https://openfoam.org
    \\  /    A nd           | Version:  10
     \\/     M anipulation  |
\*---------------------------------------------------------------------------*/
FoamFile
{
    format      ascii;
    class       volVectorField;
    location    "20";
    object      U;
}
// * * * * * * * * * * * * * * * * * * * * * * * * * * * * * * * * * * * * * //

dimensions      [0 1 -1 0 0 0 0];

internalField   nonuniform List<vector> 
25600
(
(1.05623 -0.000294984 0.000172136)
(1.05455 0.00105217 -5.97364e-05)
(1.05303 -0.000575711 0.000901101)
(1.05591 0.00107883 -0.000302201)
(1.05223 0.000294082 0.000468334)
(1.05371 -6.13398e-05 0.000530821)
(1.05361 0.00111903 -0.000356711)
(1.05187 -0.000999463 0.000633451)
(1.05352 0.00104414 -0.000535382)
(1.05319 -0.000282576 5.80888e-05)
(1.05374 -6.88619e-05 0.000181309)
(1.05259 0.000325526 -0.000902128)
(1.05375 -0.000326723 0.000234403)
(1.05354 0.000405234 -0.000535491)
(1.05253 -0.00120962 -0.000180294)
(1.05502 -0.000471229 -0.000327982)
(1.05385 -0.000436279 -0.000323181)
(1.05387 -0.00186475 8.79016e-05)
(1.05522 -0.000102616 -0.000670798)
(1.05509 -0.000188351 0.000571731)
(1.05539 -0.0016037 -0.000470348)
(1.05506 0.000947935 -0.000100938)
(1.05639 0.000225501 0.00064411)
(1.05566 -0.000344449 -0.000376244)
(1.05461 0.000255422 0.000266179)
(1.05736 0.000987665 0.000134835)
(1.05465 0.000172695 0.000122128)
(1.05498 -0.000279663 -0.000139284)
(1.057 0.00117967 0.000163013)
(1.05333 -0.000492892 4.95883e-05)
(1.05607 0.000606935 -0.000472537)
(1.05517 -0.000687085 0.000372131)
(1.05467 -0.000349542 2.48164e-06)
(1.05667 0.000491959 -0.000808906)
(1.05379 -0.00140507 0.000205507)
(1.05694 0.000256959 0.000194201)
(1.05526 0.000121108 -0.000566524)
(1.05464 -0.000903899 0.000246223)
(1.05711 0.000367144 -0.000187546)
(1.05353 0.000119383 0.000332441)
(1.05659 0.000676895 4.19791e-05)
(1.05442 0.000748868 0.00013655)
(1.05318 0.000269678 0.00100761)
(1.05603 0.00142047 -0.000359094)
(1.05191 0.000146913 0.000821206)
(1.05409 0.00131334 0.000420881)
(1.05281 0.00064143 -0.000321053)
(1.05193 -0.00116757 0.000891901)
(1.05401 0.00133575 -0.000829497)
(1.05248 -0.000227043 0.000151924)
(1.05393 -0.000617731 6.06343e-05)
(1.05272 0.000829503 -0.0008834)
(1.05352 -0.00020598 4.53818e-05)
(1.05305 -0.000375147 -0.000645202)
(1.0523 -0.000889944 5.20791e-05)
(1.05515 -0.000974465 -0.000624026)
(1.05312 -0.00103322 -0.000410911)
(1.05423 -0.00262276 0.000199149)
(1.05607 0.000138299 -0.000639372)
(1.05415 -0.000792644 0.000230671)
(1.05613 -0.00220109 -0.000207356)
(1.05609 0.00156847 4.7905e-05)
(1.0555 -0.000192742 0.000220134)
(1.05582 -0.000566053 0.000217399)
(1.05535 0.000939176 0.000210112)
(1.05708 0.000641736 2.88833e-05)
(1.05432 0.000128504 0.000518116)
(1.05542 0.000801301 -0.000430456)
(1.05669 0.000390658 0.000377244)
(1.05338 0.000133543 -7.31477e-05)
(1.05566 0.00072433 -0.000395231)
(1.05474 -0.00153573 0.000643642)
(1.05537 0.000114275 -0.000567822)
(1.05599 -0.000269425 -0.00060874)
(1.05395 -0.00118612 0.000289625)
(1.05742 0.000184755 -9.95578e-05)
(1.05483 -0.000689796 -0.000559877)
(1.05499 -0.000191589 0.000131476)
(1.05736 0.000308648 -9.39704e-05)
(1.05343 -0.000118515 0.00029865)
(1.05697 0.00166668 -0.000202869)
(1.05419 0.000515404 0.000490328)
(1.05359 0.000938042 0.00115152)
(1.05581 0.00162434 -0.000415619)
(1.05211 0.000489781 0.00124232)
(1.05415 0.00256612 0.000318528)
(1.05147 -0.000124811 -0.000181585)
(1.05245 -0.000901593 0.00108915)
(1.05434 0.00154614 -0.00116011)
(1.05149 -0.000866198 0.000277435)
(1.05461 -0.000599881 -0.000101434)
(1.05293 0.00169154 -0.00095701)
(1.05271 -0.000785579 -0.00020217)
(1.05291 -0.000333402 -0.000676479)
(1.052 -0.000741607 0.000231574)
(1.05488 -0.00187511 -0.00102897)
(1.05241 -0.00163731 -0.0004499)
(1.05487 -0.00319371 0.000253695)
(1.0568 5.38828e-05 -0.000745443)
(1.05307 -0.00192438 -4.55895e-05)
(1.05741 -0.0019661 8.99016e-05)
(1.05682 0.00181745 -8.42922e-06)
(1.05453 -0.000914765 2.68988e-05)
(1.05659 5.009e-06 0.000824036)
(1.05567 0.00150879 0.000145279)
(1.05665 -0.000138624 9.56081e-05)
(1.05475 0.000962735 0.000726246)
(1.05524 0.00140204 -0.000519478)
(1.05643 -7.10607e-05 0.000367162)
(1.05362 0.00114698 -0.000127034)
(1.05465 -3.93176e-05 -4.56253e-05)
(1.05463 -0.00147803 0.000516721)
(1.05579 -0.00025162 -0.00117168)
(1.05554 -0.000754557 -0.000265146)
(1.05418 -0.00080442 0.000273317)
(1.0574 -0.000573898 -0.000603197)
(1.05492 -0.000887846 -0.000315288)
(1.05549 3.17293e-05 -5.90622e-05)
(1.05721 0.000165558 -6.09148e-05)
(1.05383 -0.000348526 0.000421335)
(1.05729 0.00232366 -0.000395689)
(1.05385 0.000572864 0.000921422)
(1.05406 0.00126813 0.00127701)
(1.05567 0.00180967 -0.000396214)
(1.05264 0.0015848 0.00166158)
(1.05365 0.00319923 0.000261027)
(1.05008 -0.000667969 9.84452e-05)
(1.05324 -0.000277012 0.00113046)
(1.05407 0.00103852 -0.00147673)
(1.05078 -0.0019015 0.000478351)
(1.05592 0.00035563 -0.000368806)
(1.05259 0.00197991 -0.00109728)
(1.05191 -0.00126553 -0.000421912)
(1.05307 0.000470958 -0.000655209)
(1.0511 -0.00147101 0.000200209)
(1.05443 -0.00278667 -0.00149037)
(1.05205 -0.00241918 -0.000465916)
(1.05553 -0.00343533 9.1764e-05)
(1.05707 -0.000604476 -0.00092614)
(1.05252 -0.00328399 -9.85104e-05)
(1.05903 -0.00100679 0.000109335)
(1.05692 0.00153478 -0.000164465)
(1.05403 -0.00152108 0.000201459)
(1.0577 0.00134006 0.00121338)
(1.05525 0.00134368 0.000183486)
(1.05661 -0.000477397 0.000355351)
(1.0555 0.00225789 0.000794622)
(1.05461 0.00136513 -0.000543223)
(1.05646 0.000660592 0.000227823)
(1.05341 0.0015546 7.25472e-05)
(1.05358 -0.000790447 0.000307253)
(1.05455 -0.00111596 4.29962e-05)
(1.05594 -0.00128723 -0.00161596)
(1.05552 -0.000707975 0.000116473)
(1.0541 -0.000990522 2.14202e-05)
(1.05735 -0.00121493 -0.0010728)
(1.05529 -0.000911232 4.38801e-05)
(1.05583 -0.000327842 -0.000315292)
(1.05705 -4.07365e-06 -2.38663e-05)
(1.05459 -0.000293802 0.000536228)
(1.05758 0.00272151 -0.00037727)
(1.05342 0.000854859 0.0013306)
(1.05448 0.00110842 0.00146257)
(1.056 0.00235853 -0.000281345)
(1.05312 0.00312401 0.00205315)
(1.05257 0.00338767 0.000309132)
(1.04896 -0.000589697 0.000602006)
(1.0537 0.000130019 0.0010479)
(1.05321 -0.000422499 -0.00172558)
(1.05097 -0.00262121 0.000703121)
(1.0574 0.00176938 -0.000768635)
(1.05179 0.00167226 -0.0012691)
(1.05161 -0.000640373 -0.000536881)
(1.0528 0.00116747 -0.000650885)
(1.04968 -0.00301534 5.20023e-07)
(1.05418 -0.00326982 -0.00189663)
(1.05193 -0.00360723 -0.000590181)
(1.05613 -0.00374544 -0.000284272)
(1.05691 -0.0016168 -0.00103596)
(1.05273 -0.00473697 -0.000196487)
(1.06081 0.000284386 -0.000189715)
(1.05645 0.00080476 -0.000124753)
(1.05432 -0.00145459 0.000576436)
(1.05863 0.00291144 0.00146336)
(1.05436 0.000481424 0.000539228)
(1.05723 0.000220434 0.00075835)
(1.05605 0.0029607 0.000748774)
(1.05406 0.00146069 -0.000595977)
(1.05652 0.0024373 0.00011521)
(1.05257 0.0010353 0.000567991)
(1.05268 -0.00105453 0.00046993)
(1.05423 -0.00118548 -0.000725465)
(1.05605 -0.0024203 -0.00178417)
(1.05569 -0.000698811 0.000202963)
(1.05379 -0.00154721 -0.000399757)
(1.05741 -0.00142501 -0.00139461)
(1.05553 -0.0014141 0.000180669)
(1.05612 -0.00100375 -0.000368846)
(1.05718 -4.1326e-05 -7.92982e-05)
(1.05547 -8.90534e-05 0.000598064)
(1.05785 0.00330163 -0.000216749)
(1.05275 0.000940231 0.00168214)
(1.05498 0.000747003 0.00181666)
(1.0569 0.00334688 -8.39368e-05)
(1.05331 0.00472882 0.0024165)
(1.05121 0.00379751 0.000554714)
(1.04792 0.00017296 0.0013663)
(1.05337 -0.000159061 0.000847194)
(1.05225 -0.00248549 -0.00193359)
(1.05214 -0.00291671 0.000819127)
(1.05874 0.00298986 -0.00130351)
(1.05103 0.00176125 -0.00129373)
(1.05158 0.00103702 -0.000600077)
(1.05159 0.00117498 -0.000702663)
(1.04821 -0.00448347 -0.000236658)
(1.05403 -0.00342256 -0.00236921)
(1.05174 -0.00554546 -0.00104579)
(1.05678 -0.00401328 -0.000748459)
(1.05642 -0.0029828 -0.00110558)
(1.05371 -0.00624702 -0.000654624)
(1.0626 0.00161989 -0.000659189)
(1.05577 5.27025e-05 0.000127514)
(1.05533 -0.000552844 0.000946879)
(1.05896 0.00401554 0.00170969)
(1.05347 -0.000241238 0.00113861)
(1.05817 0.00164651 0.00122975)
(1.05628 0.00270966 0.000527857)
(1.05419 0.00234935 -0.000811657)
(1.05616 0.00469947 6.38904e-05)
(1.05112 5.68448e-05 0.00130706)
(1.05205 -0.000793782 0.000395599)
(1.05362 -0.00181207 -0.00159805)
(1.0562 -0.00353692 -0.001877)
(1.05601 -0.00100626 -0.000125051)
(1.05357 -0.00200119 -0.0007575)
(1.05737 -0.0014452 -0.00166559)
(1.05552 -0.00257175 0.000152879)
(1.05665 -0.00159753 -0.000142272)
(1.05756 -0.000102897 -0.00034385)
(1.05635 0.000144635 0.000724592)
(1.05797 0.0039713 5.08101e-05)
(1.05182 0.000634965 0.00222144)
(1.05576 0.000508364 0.00234864)
(1.05822 0.00454108 0.000155159)
(1.05333 0.00655294 0.0028533)
(1.04979 0.00504168 0.00104825)
(1.04655 0.00100798 0.00237228)
(1.05207 -0.00128522 0.000616383)
(1.05144 -0.00490959 -0.00211625)
(1.05408 -0.00340051 0.000596983)
(1.06012 0.00404167 -0.00178776)
(1.05059 0.00305651 -0.000988624)
(1.05128 0.00304678 -0.000776006)
(1.04956 0.000538291 -0.00070438)
(1.04691 -0.00522755 -0.000351569)
(1.05351 -0.0040206 -0.00304089)
(1.05153 -0.00820873 -0.00189328)
(1.05754 -0.00421746 -0.0011917)
(1.05554 -0.00463037 -0.00147173)
(1.05538 -0.00787722 -0.00167215)
(1.06448 0.00261867 -0.00108212)
(1.05511 -0.000119517 0.000392419)
(1.0566 0.000744892 0.00123982)
(1.05881 0.00481418 0.00207954)
(1.0529 -0.000256226 0.00217329)
(1.05896 0.00285586 0.00186051)
(1.05642 0.00185754 7.72175e-05)
(1.05513 0.00434004 -0.00110398)
(1.05518 0.00687659 0.000221485)
(1.04928 -0.000879211 0.00223656)
(1.0515 -6.37281e-06 0.000149346)
(1.05259 -0.00309146 -0.00261327)
(1.05644 -0.00488748 -0.00214469)
(1.05651 -0.00133257 -0.000784657)
(1.05346 -0.0019242 -0.00103906)
(1.05701 -0.00156396 -0.00202017)
(1.05538 -0.00409965 0.000147439)
(1.05747 -0.00210011 0.000238463)
(1.0581 -0.000232773 -0.000758234)
(1.05741 0.000812662 0.00104677)
(1.05766 0.00441229 0.000443586)
(1.05074 5.53951e-05 0.00318631)
(1.05681 0.000223151 0.00318989)
(1.05992 0.00587773 0.00043848)
(1.05345 0.00898831 0.00336666)
(1.04809 0.00723067 0.00206421)
(1.04438 0.00165235 0.00381461)
(1.04995 -0.00332335 0.000576193)
(1.05078 -0.00800107 -0.00260515)
(1.05664 -0.00442795 -0.000177383)
(1.06199 0.00559489 -0.0019383)
(1.0504 0.00578374 -0.000309093)
(1.05023 0.00519267 -0.00104201)
(1.04707 0.000113672 -0.000560068)
(1.04557 -0.00551768 -0.000434261)
(1.05219 -0.00547884 -0.00437135)
(1.05134 -0.0110505 -0.0033407)
(1.05837 -0.00486906 -0.00170744)
(1.05424 -0.00664497 -0.002435)
(1.05743 -0.00962609 -0.00332913)
(1.06662 0.00341778 -0.00159251)
(1.05464 0.000379248 0.000635866)
(1.05788 0.00213833 0.00143872)
(1.05837 0.00555028 0.00253335)
(1.05234 0.000341812 0.00369167)
(1.05929 0.00334904 0.00243108)
(1.05696 0.00080543 -0.000795741)
(1.05676 0.00729986 -0.00160833)
(1.05338 0.00883867 0.000559095)
(1.04734 -0.00117414 0.00366654)
(1.05079 0.000883796 5.93003e-05)
(1.05097 -0.00511979 -0.00396836)
(1.057 -0.00650534 -0.0026837)
(1.05747 -0.0014886 -0.00137585)
(1.05333 -0.00138773 -0.00122604)
(1.05612 -0.00183962 -0.00247326)
(1.05514 -0.00572124 0.000321414)
(1.05857 -0.00276203 0.000710667)
(1.05898 -6.04334e-05 -0.00109591)
(1.0585 0.00199764 0.00147515)
(1.05692 0.00443875 0.00120971)
(1.04951 -0.000903917 0.00491791)
(1.0581 -0.000305253 0.00452994)
(1.06206 0.00728276 0.000822865)
(1.05376 0.0124016 0.00386768)
(1.04606 0.0102455 0.00378936)
(1.04112 0.00183058 0.00617121)
(1.04674 -0.00578613 0.000846487)
(1.04999 -0.0120931 -0.00374975)
(1.05977 -0.00641061 -0.00158121)
(1.06457 0.00805849 -0.00152517)
(1.0503 0.00958016 0.000847933)
(1.04862 0.0074411 -0.0014711)
(1.04415 0.000939737 -0.000307605)
(1.04331 -0.00535863 -0.000592651)
(1.0494 -0.00787011 -0.00674559)
(1.05018 -0.0143713 -0.00584469)
(1.05823 -0.00628439 -0.00280121)
(1.05216 -0.00905511 -0.00457029)
(1.05952 -0.0120413 -0.00596945)
(1.06886 0.00432085 -0.00225023)
(1.05413 0.00162873 0.000753365)
(1.05885 0.00340445 0.00136226)
(1.05771 0.00669186 0.00302269)
(1.05161 0.00134434 0.00578779)
(1.05905 0.00291525 0.00267281)
(1.05805 -0.000128719 -0.00232017)
(1.05882 0.0105624 -0.00227018)
(1.05099 0.0106711 0.00112267)
(1.04525 -0.000340077 0.00576333)
(1.04948 0.00152866 0.000233951)
(1.04885 -0.00779877 -0.00596392)
(1.05798 -0.00796839 -0.00365137)
(1.05878 -0.00120476 -0.00177784)
(1.05302 -0.000313536 -0.00134831)
(1.05476 -0.00189912 -0.00289087)
(1.05475 -0.00736168 0.000760564)
(1.05997 -0.00351828 0.00137178)
(1.06021 0.00123463 -0.00106996)
(1.05943 0.00382515 0.00205792)
(1.05556 0.0036836 0.00258024)
(1.04832 -0.00265607 0.00799941)
(1.05937 -0.000896179 0.00654663)
(1.06429 0.00907516 0.00141185)
(1.05436 0.0164599 0.00456813)
(1.04372 0.0138647 0.00677381)
(1.03689 0.00140942 0.00971544)
(1.04198 -0.00933048 0.000877311)
(1.04715 -0.0177574 -0.00660499)
(1.06196 -0.00936994 -0.00366015)
(1.06738 0.011274 -0.000297574)
(1.05033 0.014124 0.00244122)
(1.04767 0.0103498 -0.00189061)
(1.04152 0.00299405 -1.98055e-05)
(1.03801 -0.00553399 -0.00166595)
(1.04121 -0.0108333 -0.0114081)
(1.04348 -0.019004 -0.0101652)
(1.05333 -0.00946466 -0.00496402)
(1.04624 -0.0116538 -0.00821528)
(1.05946 -0.0151429 -0.00996964)
(1.07035 0.00422217 -0.00295393)
(1.05288 0.00330315 0.000886418)
(1.05911 0.00480142 0.000744282)
(1.05666 0.00787016 0.0036006)
(1.04981 0.00211969 0.0084772)
(1.05799 0.00169751 0.00215908)
(1.05955 -0.000601267 -0.00483678)
(1.06085 0.0140358 -0.00339044)
(1.04839 0.0132122 0.00222822)
(1.04302 0.00193292 0.00943688)
(1.04709 0.00134947 0.000693246)
(1.04617 -0.0119712 -0.00892577)
(1.05957 -0.00938255 -0.00478624)
(1.06042 0.000271946 -0.00162099)
(1.0522 0.00109292 -0.00111183)
(1.05274 -0.00239655 -0.00311291)
(1.05412 -0.00970091 0.00161806)
(1.06186 -0.00393024 0.00238377)
(1.0618 0.00412016 -0.000615807)
(1.05965 0.00603992 0.00261456)
(1.05436 0.00174946 0.00544794)
(1.04792 -0.00519658 0.0134504)
(1.0596 -0.00171477 0.00931865)
(1.06466 0.0114429 0.0013797)
(1.05516 0.0216324 0.00559976)
(1.04273 0.0175044 0.0122492)
(1.03221 0.000824036 0.0143246)
(1.03319 -0.0131401 -0.00140852)
(1.03735 -0.0258551 -0.0121996)
(1.05807 -0.0141599 -0.00644009)
(1.06777 0.0144907 0.0017365)
(1.0507 0.0187817 0.00445334)
(1.04922 0.0154237 -0.00280339)
(1.04094 0.00822199 0.000249182)
(1.02769 -0.0053089 -0.00314181)
(1.02158 -0.0145734 -0.0182324)
(1.02212 -0.0261267 -0.0155921)
(1.03452 -0.0151449 -0.00699001)
(1.02943 -0.0158288 -0.0121266)
(1.05048 -0.0205606 -0.014135)
(1.0666 0.00335296 -0.00305093)
(1.04881 0.00482971 0.00160715)
(1.05703 0.00508633 -0.000317862)
(1.0537 0.00907368 0.00438612)
(1.04532 0.00328862 0.0118734)
(1.05554 -0.000321669 0.000893698)
(1.06067 -0.00266292 -0.00828614)
(1.06193 0.0161619 -0.00484939)
(1.04589 0.0166668 0.0041385)
(1.04012 0.00568827 0.0149352)
(1.04192 0.001112 0.00108134)
(1.04179 -0.0153868 -0.0137229)
(1.06233 -0.0106942 -0.00684591)
(1.06209 0.00205754 -0.000831102)
(1.04915 0.00394687 -0.000240173)
(1.04982 -0.00154981 -0.00304775)
(1.05378 -0.0121721 0.00341092)
(1.064 -0.00343663 0.00448166)
(1.06312 0.0104557 -0.000137628)
(1.05911 0.0095915 0.00291954)
(1.05535 -0.00333425 0.0116255)
(1.04817 -0.00786928 0.0210864)
(1.05501 -0.00111616 0.0107551)
(1.06028 0.0134507 0.00116004)
(1.05597 0.0260876 0.00981135)
(1.04484 0.0209523 0.0204524)
(1.02864 0.00050599 0.0153854)
(1.01651 -0.0158274 -0.0104189)
(1.01302 -0.0330246 -0.020456)
(1.04062 -0.0205494 -0.00816286)
(1.06168 0.0143806 0.00487181)
(1.0501 0.0204756 0.00583858)
(1.0519 0.0202635 -0.00572278)
(1.04415 0.0162196 0.000943403)
(1.01518 -0.000117453 -0.00308926)
(0.995967 -0.0137354 -0.0236522)
(0.993073 -0.0331195 -0.0144709)
(1.00341 -0.0206137 0.000455956)
(1.0018 -0.0192266 -0.00911185)
(1.0306 -0.0291906 -0.0130013)
(1.05283 -0.0011192 0.00179136)
(1.03694 0.00645357 0.00423071)
(1.05047 0.0048648 -0.00163808)
(1.04626 0.00856267 0.00628693)
(1.03349 0.0033372 0.0165012)
(1.04916 -0.00339082 -0.00219059)
(1.05868 -0.00595882 -0.0134594)
(1.06005 0.017209 -0.00576659)
(1.0445 0.0217465 0.0088068)
(1.03743 0.0109667 0.0231907)
(1.03234 -0.00218334 0.00156577)
(1.03196 -0.0221492 -0.0188468)
(1.06359 -0.0088716 -0.00926481)
(1.0632 0.00788605 -0.00102132)
(1.04314 0.00543253 0.00109064)
(1.04499 -0.00390996 -0.00187125)
(1.0517 -0.0157094 0.00629707)
(1.06392 -0.000807314 0.00714091)
(1.06383 0.0199385 0.000353855)
(1.05926 0.0122181 0.00386489)
(1.06049 -0.0108979 0.022728)
(1.04302 -0.0100312 0.0251178)
(1.03952 -0.000452503 0.00376708)
(1.04879 0.0150947 -0.00120944)
(1.05353 0.0297482 0.0192114)
(1.04764 0.023953 0.0277229)
(1.02591 0.00284043 0.00721274)
(0.995033 -0.014941 -0.0231256)
(0.980078 -0.0391741 -0.0234176)
(1.01247 -0.02773 -0.00433568)
(1.04975 0.0133966 0.0112056)
(1.04299 0.0210532 0.00660118)
(1.04462 0.0250712 -0.012908)
(1.04997 0.0257331 0.00341153)
(1.01637 0.00725567 0.00263552)
(0.991038 -0.00998023 -0.0238975)
(0.986413 -0.036043 -0.000348424)
(0.986622 -0.0220769 0.0254972)
(0.985319 -0.0192625 0.00571432)
(1.01132 -0.0377852 -0.00581267)
(1.03241 -0.00738039 0.0107661)
(1.0194 0.00482307 0.0103475)
(1.03993 0.00201693 -0.001711)
(1.03123 0.00896617 0.00899078)
(1.01356 0.00524383 0.0219056)
(1.04044 -0.00959708 -0.00527942)
(1.05063 -0.0156914 -0.0170175)
(1.05118 0.0140545 -0.00330794)
(1.043 0.0271324 0.0173605)
(1.03309 0.0183988 0.035157)
(1.01606 -0.00136708 0.00170122)
(1.01604 -0.0267688 -0.0289233)
(1.06084 -0.00962451 -0.0157314)
(1.05911 0.01364 -0.00149119)
(1.03201 0.0118624 0.00711677)
(1.03516 -0.00213739 0.00286354)
(1.04056 -0.0162504 0.0107071)
(1.05405 0.00634217 0.00930398)
(1.06389 0.0355784 -0.000230172)
(1.06702 0.0151209 0.0097127)
(1.05252 -0.0198819 0.0270721)
(1.01389 -0.00985112 0.0104212)
(1.01409 0.000650334 -0.0142085)
(1.03513 0.0148007 0.00127311)
(1.04184 0.0311178 0.0330432)
(1.04942 0.0271706 0.0261167)
(1.0307 0.0103709 -0.00551793)
(0.982142 -0.00967992 -0.0219935)
(0.952059 -0.0454648 -0.0134527)
(0.984127 -0.0363584 0.00803954)
(1.0366 0.0109121 0.0279086)
(1.02568 0.0203967 0.0104439)
(1.02189 0.0281516 -0.0236647)
(1.05455 0.0337918 0.00811479)
(1.0362 0.0147072 0.00808732)
(1.01213 -0.0029034 -0.027133)
(1.00522 -0.0379889 0.0196101)
(0.991721 -0.0264983 0.0552738)
(0.984764 -0.0180368 0.0102915)
(0.995738 -0.0460653 -0.00969255)
(1.00927 -0.0140534 0.016914)
(1.00213 0.00559931 0.0135783)
(1.02874 0.00106993 -0.00537847)
(1.01331 0.00991515 0.01115)
(0.997651 0.00704306 0.0257822)
(1.0383 -0.0149193 -0.0102474)
(1.0401 -0.0239164 -0.0185533)
(1.03544 0.00995359 0.0023919)
(1.03968 0.0329442 0.0289892)
(1.02914 0.0245249 0.0535401)
(1.00262 -0.00604707 0.00954199)
(0.992753 -0.0267851 -0.0448132)
(1.04569 0.00376701 -0.0414461)
(1.05826 0.0275834 -0.0105207)
(1.02696 0.0117887 0.0195967)
(1.01082 -0.00559963 0.00812944)
(0.999162 -0.0129186 0.00809212)
(1.02572 0.0196192 0.00807278)
(1.07392 0.0514454 0.0056288)
(1.08647 0.0131241 0.0235408)
(0.999842 -0.0281614 0.00932771)
(0.965329 -0.0177639 -0.0193506)
(0.994827 -0.00044247 -0.0356046)
(1.01425 0.0160934 0.00860377)
(1.0142 0.029829 0.0402286)
(1.04479 0.0293721 0.00142795)
(1.03527 0.0206482 -0.0142989)
(0.972911 -0.00554616 -0.00617445)
(0.92622 -0.046368 -0.0071959)
(0.958901 -0.0351738 0.0237487)
(1.01436 0.0123044 0.0510783)
(0.987141 0.0167358 0.0123491)
(0.981375 0.0307442 -0.0329861)
(1.05116 0.0405911 0.0133518)
(1.0518 0.0159357 0.00267081)
(1.0254 -7.27269e-05 -0.0352639)
(1.01332 -0.0401331 0.0344117)
(0.990602 -0.0315848 0.0567772)
(0.969795 -0.016146 -0.0196015)
(0.961853 -0.0485953 -0.02953)
(0.992516 -0.018641 0.0212193)
(0.998186 0.00598426 0.0193233)
(1.00777 0.00669349 -0.0160297)
(0.993529 0.0184851 0.0129644)
(1.00102 0.0099081 0.0354559)
(1.05066 -0.0196213 -0.0186866)
(1.03207 -0.0324131 -0.0247953)
(1.01896 0.00015978 0.0103379)
(1.03932 0.0405501 0.0470416)
(1.03041 0.0327654 0.0797985)
(0.992153 -0.0121524 0.0169046)
(0.954759 -0.0275077 -0.0779601)
(1.0226 0.0171578 -0.0741544)
(1.05978 0.0345509 -0.0018951)
(1.02152 0.0122068 0.0287043)
(0.972517 0.00695133 -0.012689)
(0.941468 0.000469591 -0.00786609)
(0.99958 0.0271567 0.0099133)
(1.10154 0.0626925 0.0211658)
(1.08857 0.0156912 0.027889)
(0.933424 -0.0470681 -0.0280117)
(0.930912 -0.0230546 -0.0382398)
(0.975214 0.00438943 -0.0250396)
(0.96282 0.0178124 0.0325596)
(0.979432 0.0258051 0.0256682)
(1.03315 0.0314222 -0.0244767)
(1.02913 0.0281948 0.0135319)
(0.949809 -0.00569073 0.0102739)
(0.897816 -0.041781 -0.0221529)
(0.954038 -0.0251436 0.031596)
(1.00294 0.013166 0.0584261)
(0.940646 0.0158726 0.00801141)
(0.948381 0.0377753 -0.0163307)
(1.05776 0.0340301 0.0104713)
(1.04311 0.00881994 -0.0187694)
(1.02647 0.00643322 -0.022663)
(1.0143 -0.0374318 0.0396258)
(0.96252 -0.0234039 0.0146994)
(0.934092 -0.00114977 -0.0650703)
(0.921496 -0.053671 -0.0247011)
(0.974538 -0.0301997 0.0443242)
(0.978335 0.0107481 0.0140023)
(0.973607 0.016668 -0.0206627)
(0.980293 0.022187 0.0358538)
(1.00768 0.00576597 0.0419293)
(1.05027 -0.0296429 -0.0309203)
(1.00463 -0.0386446 -0.0248748)
(0.992684 -0.00367067 0.0205755)
(1.03939 0.0483067 0.0629359)
(1.04282 0.0319393 0.0994209)
(0.975078 -0.0137014 -0.0116992)
(0.882217 -0.010565 -0.116922)
(0.977228 0.0264954 -0.0513947)
(1.05735 0.0210651 0.0273467)
(1.01059 0.0168325 0.0014095)
(0.921272 0.0303291 -0.0414553)
(0.907371 0.00729866 -0.0160239)
(1.022 0.0322907 0.0107264)
(1.16305 0.0681447 0.0158714)
(1.0782 0.00115339 -0.00877133)
(0.889039 -0.0565855 -0.0425678)
(0.906486 -0.0245207 -0.0364037)
(0.933558 0.00152153 -0.00771054)
(0.931607 0.0108356 0.0402592)
(0.955323 0.0298979 -0.0141638)
(1.01405 0.0332406 -0.0282294)
(1.02065 0.0153178 0.0453862)
(0.92704 -0.0100606 0.00262349)
(0.892565 -0.036677 -0.0383418)
(0.971362 -0.0214657 0.0160775)
(0.97839 0.0221802 0.0404062)
(0.904708 0.0281807 0.0323825)
(0.950453 0.0377231 -0.000186852)
(1.04157 0.0262471 -0.0282196)
(1.01517 0.0118429 -0.0169291)
(1.03423 0.0206542 -0.00201077)
(0.991519 -0.0295284 0.00546239)
(0.917488 -0.0109282 -0.0160206)
(0.930625 0.00702742 -0.0621865)
(0.89675 -0.0721864 -0.0143475)
(0.940048 -0.0402234 0.0523027)
(0.945735 0.0247496 0.0210246)
(0.967988 0.0182707 -0.008025)
(1.0009 0.0167017 0.0266311)
(1.02082 0.0050834 0.023914)
(1.03147 -0.0350606 -0.0183206)
(0.951637 -0.0440235 -0.00876895)
(0.95402 -0.00230769 0.0240956)
(1.03995 0.0476899 0.0825201)
(1.05387 0.0251608 0.105022)
(0.937718 0.00235609 -0.0492785)
(0.84497 0.00904275 -0.109002)
(0.998681 0.00278096 -0.0390588)
(1.06488 -0.00799835 -0.0227989)
(0.93098 0.0319259 -0.036819)
(0.876277 0.0561984 -0.0101752)
(0.91018 -0.00515661 0.0145896)
(1.08508 -0.00099055 0.0101173)
(1.24631 0.0389404 -0.0138957)
(1.06605 -0.0160031 -0.0415798)
(0.827028 -0.0520972 -0.0428881)
(0.846033 -0.010722 -0.0570213)
(0.89613 0.00629156 -0.0150118)
(0.916156 0.0139826 0.0310599)
(0.909079 0.0389605 -0.0306859)
(0.979376 0.0241197 -0.00718448)
(1.00686 0.00137602 0.0507022)
(0.949562 -0.00830692 0.00226676)
(0.942873 -0.0277764 -0.0113895)
(0.969187 -0.00299709 0.0221599)
(0.972334 0.0343381 0.0584327)
(0.935541 0.0252461 0.0703434)
(0.935781 0.0391038 -0.0027986)
(1.01047 0.0210919 -0.0424501)
(1.00471 0.0126196 0.00752647)
(1.03512 0.0384252 -0.0149335)
(0.936762 -0.0249784 -0.0194073)
(0.894723 -0.0122574 0.029875)
(0.967634 0.00931204 -0.0330942)
(0.851581 -0.0857977 -0.0211118)
(0.894204 -0.0454139 0.0592417)
(0.93879 0.0341662 0.0406744)
(0.977177 0.0103759 -0.0111596)
(1.02769 0.010731 -0.00551518)
(1.0404 0.0102104 0.0353589)
(0.999084 -0.0359975 0.0094751)
(0.895747 -0.0396889 -0.00804036)
(0.933804 0.0131151 0.0437861)
(1.02636 0.0357664 0.118795)
(1.0016 0.0145436 0.0905772)
(0.906917 0.0298066 -0.0523213)
(0.900339 0.0158205 -0.0609994)
(1.0515 -0.0234037 -0.0473969)
(1.01455 0.00603789 -0.0599138)
(0.875075 0.0777541 -0.0229514)
(0.884223 0.0733447 0.00930291)
(0.91733 -0.0179539 0.0197311)
(1.07555 -0.0369923 0.0205855)
(1.14053 0.00420549 0.00109978)
(0.943286 -0.0280033 -0.0268344)
(0.776497 -0.04839 -0.0557688)
(0.816518 0.00919632 -0.0640275)
(0.86914 0.0145802 -0.0125709)
(0.875073 0.0206871 0.0250514)
(0.888344 0.0440821 -0.0174569)
(0.950128 0.0109324 0.00717019)
(0.997016 -0.0104455 0.0526219)
(1.02626 -0.0138128 0.0241278)
(0.987497 -0.0225088 0.00685665)
(0.960184 0.0116781 0.0412643)
(1.01122 0.0159314 0.0958445)
(0.93915 0.0199615 0.0809802)
(0.92452 0.0550584 -0.0191351)
(1.02333 0.0039871 -0.0439866)
(0.977595 0.00756175 0.0276688)
(1.00952 0.0588396 -0.0224805)
(0.906726 -0.0252013 0.00249043)
(0.900978 -0.0327912 0.107947)
(0.981391 0.0131984 -0.0205523)
(0.813638 -0.0798649 -0.0341361)
(0.840261 -0.0522282 0.1042)
(0.901388 0.0388098 0.0838545)
(0.951347 0.00519541 -0.0169327)
(1.01798 0.00483888 0.0160916)
(1.02636 0.0141165 0.090979)
(0.930093 -0.033835 0.00485299)
(0.842935 -0.0382555 -0.0216166)
(0.941095 0.0196646 0.0871572)
(0.971504 0.0281522 0.122892)
(0.889732 0.0182046 0.0215101)
(0.889342 0.0490861 -0.050088)
(0.969973 0.00714189 -0.0151805)
(1.01571 -0.0349993 -0.0491101)
(0.909455 0.0269257 -0.0626436)
(0.867917 0.101068 0.00213675)
(0.889339 0.0860469 0.0163002)
(0.915227 -0.0171368 0.0350736)
(0.982847 -0.0424187 0.0457593)
(0.931392 -0.000689451 0.0113821)
(0.816561 -0.0354387 -0.02664)
(0.77411 -0.0391382 -0.0337369)
(0.834506 0.0222451 -0.0267569)
(0.880517 0.0134905 -0.00393427)
(0.850169 0.0290922 0.00341465)
(0.884545 0.039142 -0.0183619)
(0.937203 -0.0138457 -0.00845288)
(0.994545 -0.0205894 0.0323137)
(1.04374 -0.0137437 0.0231548)
(0.950156 -0.0168127 -0.00452092)
(0.931112 0.0106732 0.044864)
(0.988265 -0.00533838 0.112707)
(0.885853 0.0304188 0.074729)
(0.939397 0.065916 -0.0322906)
(1.02329 -0.00728108 -0.0265391)
(0.945413 0.0116886 0.0520291)
(1.02004 0.067931 -0.0188729)
(0.943902 -0.035955 0.0228516)
(0.945149 -0.0425657 0.125546)
(0.963019 0.0302252 -0.046821)
(0.811184 -0.0601163 -0.0447235)
(0.794966 -0.0539058 0.161888)
(0.836406 0.0416194 0.093418)
(0.919895 0.00946536 -0.0293589)
(1.00722 -0.00615355 0.081088)
(0.997036 0.0123422 0.129468)
(0.87065 -0.0196907 -0.0375295)
(0.814044 -0.0390655 -0.0298494)
(0.944327 0.020529 0.11718)
(0.872164 0.0270836 0.0858388)
(0.816424 0.000946019 -0.0356068)
(0.944057 0.0432782 -0.0544876)
(0.965297 0.0102753 -0.0337189)
(0.894468 -0.0374087 -0.0628671)
(0.802285 0.0223123 -0.0541913)
(0.84652 0.107319 0.0093601)
(0.903656 0.105327 0.0110984)
(0.951241 -0.0208303 0.0659067)
(0.9217 -0.0530918 0.0755588)
(0.841126 -0.0049041 0.0123993)
(0.797355 -0.0371258 -0.0127897)
(0.779843 -0.0163138 -0.000461271)
(0.869638 0.0278787 0.0126627)
(0.912836 0.00933494 -0.00887922)
(0.848291 0.0295702 -0.00601294)
(0.894843 0.018441 -0.00688006)
(0.92802 -0.0363154 -6.12552e-05)
(0.975643 -0.0216484 0.0333547)
(0.994204 -0.000645174 0.0294491)
(0.85559 -0.00478851 0.0138087)
(0.861101 0.00502766 0.0738251)
(0.8819 -0.00757307 0.109342)
(0.793341 0.0458929 0.0455579)
(0.956635 0.0738906 -0.0460207)
(0.972681 -0.0106389 -0.00385091)
(0.916995 0.0149427 0.0695644)
(1.04076 0.0640211 0.00278169)
(0.945619 -0.0524235 0.0454515)
(0.949569 -0.0359343 0.106343)
(0.95084 0.0551811 -0.0461083)
(0.802729 -0.0469421 -0.0426327)
(0.788544 -0.0521474 0.166204)
(0.849681 0.0505806 0.0829304)
(0.902193 0.0101664 -0.0238332)
(0.947159 -0.0262358 0.133981)
(0.977916 0.00461559 0.14847)
(0.926346 -0.00994907 -0.0584856)
(0.865813 -0.0255556 -0.022695)
(0.959229 0.02899 0.124163)
(0.881429 0.018421 0.0450148)
(0.79575 -0.0270583 -0.0456841)
(0.931297 0.0315177 -0.0419506)
(0.909806 0.0191287 -0.0526068)
(0.876185 -0.0454448 -0.0761909)
(0.838099 -0.00441559 -0.0106312)
(0.829118 0.106531 0.0386915)
(0.958976 0.100595 0.00850322)
(0.949358 -0.0274238 0.0638928)
(0.848324 -0.0490111 0.0645739)
(0.802161 -0.000551149 0.0165159)
(0.800373 -0.0230036 0.0100147)
(0.787492 -0.00308084 0.0408261)
(0.920395 0.0346272 0.0386014)
(0.939364 0.0188303 0.00508831)
(0.863693 0.0249735 0.0148711)
(0.957502 0.00456421 0.00860766)
(0.926053 -0.0399978 0.0297369)
(0.896962 -0.0202268 0.0666553)
(0.85097 0.0100166 0.0590767)
(0.717827 0.00747709 0.0351204)
(0.783716 -0.00450739 0.0720512)
(0.810983 -0.00546344 0.0930687)
(0.773391 0.059374 8.0431e-05)
(0.986452 0.0781032 -0.0638674)
(0.923611 -0.019741 0.00770589)
(0.920541 0.00813846 0.0479967)
(1.04821 0.0563023 0.0132972)
(0.931936 -0.0567769 0.059643)
(0.95721 -0.0204835 0.0672825)
(0.959243 0.0765007 -0.052395)
(0.800205 -0.0381306 -0.0321308)
(0.802609 -0.0535908 0.134308)
(0.905296 0.051194 0.0669206)
(0.899373 0.0134404 -0.0117445)
(0.85829 -0.0370752 0.147256)
(0.97014 -0.0190132 0.124987)
(1.01836 -0.0113351 -0.0751383)
(0.909285 -0.0134981 -0.00660067)
(0.94698 0.0226372 0.109957)
(0.912974 0.0144392 -0.00370891)
(0.763735 -0.0328971 -0.0508921)
(0.856338 0.0218753 0.00903077)
(0.911207 0.00831165 -0.0545777)
(0.841766 -0.062666 -0.113967)
(0.833922 -0.0165932 0.023702)
(0.858298 0.104705 0.0740215)
(1.00009 0.0837499 0.0325972)
(0.891485 -0.0282314 0.0633634)
(0.763961 -0.039375 0.0332569)
(0.763686 -0.00700496 0.0104957)
(0.782214 -0.0260748 0.037434)
(0.798888 -0.0117788 0.0718351)
(0.924732 0.0401668 0.0440722)
(0.92877 0.0290622 0.00296108)
(0.938753 0.015144 0.0195241)
(0.997785 0.00772623 0.0374444)
(0.854415 -0.029712 0.0478694)
(0.745446 -0.0218551 0.0823382)
(0.691932 0.016869 0.0787121)
(0.694182 0.0118187 0.00209072)
(0.796839 -0.0166886 0.0383109)
(0.783337 0.000744799 0.0924001)
(0.77013 0.0716474 -0.0287285)
(0.991707 0.066986 -0.0520594)
(0.886183 -0.0354146 0.019324)
(0.869028 -0.0115751 0.0054348)
(1.00377 0.0461796 0.0118806)
(0.891781 -0.0529386 0.0512755)
(0.942293 -0.00411759 0.016537)
(0.972703 0.0861804 -0.0613294)
(0.817638 -0.0322435 -0.00697325)
(0.792076 -0.0462797 0.088013)
(0.921216 0.0550929 0.0108329)