/*--------------------------------*- C++ -*----------------------------------*\
  =========                 |
  \\      /  F ield         | OpenFOAM: The Open Source CFD Toolbox
   \\    /   O peration     | Website:  https://openfoam.org
    \\  /    A nd           | Version:  10
     \\/     M anipulation  |
\*---------------------------------------------------------------------------*/
FoamFile
{
    format      ascii;
    class       volSymmTensorField;
    location    "20";
    object      UPrime2Mean;
}
// * * * * * * * * * * * * * * * * * * * * * * * * * * * * * * * * * * * * * //

dimensions      [0 2 -2 0 0 0 0];

internalField   nonuniform List<symmTensor> 
25600
(
(0.00016144 4.11208e-07 1.19107e-07 2.06161e-07 -5.59986e-08 8.53465e-08)
(0.000160067 3.63911e-07 2.83232e-07 2.12289e-07 -2.03292e-08 6.58417e-08)
(0.0001613 1.36279e-07 1.60755e-07 1.48829e-07 -2.20474e-08 5.29184e-08)
(0.000160698 4.38193e-07 5.45262e-08 2.27937e-07 -2.22816e-08 4.75612e-08)
(0.000160455 -1.01263e-07 2.1349e-07 1.83232e-07 -3.39925e-08 6.73324e-08)
(0.000161496 2.62548e-07 -2.34935e-08 1.84086e-07 -7.29149e-08 7.52212e-08)
(0.00016069 -1.6639e-07 5.82993e-08 2.49438e-07 -7.79583e-08 8.35977e-08)
(0.000161611 -1.03336e-07 3.30593e-08 2.74492e-07 -1.08628e-07 8.1801e-08)
(0.000161937 -1.07506e-07 -6.50844e-08 4.02491e-07 -1.11724e-07 6.70465e-08)
(0.00016225 -4.54006e-07 1.66006e-07 3.97858e-07 -8.20961e-08 5.91881e-08)
(0.000162384 -2.78022e-07 -6.87646e-08 3.60289e-07 -8.23221e-08 5.17931e-08)
(0.000162737 -6.06344e-07 1.221e-07 3.57225e-07 -4.66015e-08 3.7358e-08)
(0.000163602 -4.98034e-07 1.55226e-07 3.33548e-07 -5.18754e-08 4.08727e-08)
(0.000163382 -7.45026e-07 3.58025e-08 4.107e-07 -5.54343e-08 5.04459e-08)
(0.000164488 -5.99762e-07 2.0342e-07 3.7235e-07 -6.02453e-08 4.92953e-08)
(0.000164588 -4.65407e-07 2.57628e-08 3.9974e-07 -1.00525e-07 5.99256e-08)
(0.000164246 -4.99166e-07 2.04431e-07 5.00607e-07 -1.09048e-07 5.96412e-08)
(0.000164987 -3.75581e-07 4.12992e-08 4.9795e-07 -1.19043e-07 5.74327e-08)
(0.000164983 -1.10304e-07 1.65774e-07 5.51256e-07 -1.36804e-07 5.89002e-08)
(0.000164934 -3.30225e-07 1.81657e-07 4.82647e-07 -1.18093e-07 6.29398e-08)
(0.000164765 -3.98315e-08 7.72582e-09 3.837e-07 -9.51883e-08 6.43323e-08)
(0.000164871 2.29528e-07 3.47557e-07 3.2295e-07 -6.11491e-08 6.96677e-08)
(0.000164699 -1.84673e-07 5.01396e-08 2.31414e-07 -5.27915e-08 7.05762e-08)
(0.000163767 1.43441e-07 1.23529e-07 2.99904e-07 -4.70595e-08 7.15326e-08)
(0.000164357 1.70487e-07 1.96392e-07 3.03077e-07 -5.60396e-08 7.87932e-08)
(0.00016409 1.90561e-07 1.14836e-07 3.13953e-07 -9.0568e-08 7.86839e-08)
(0.000163039 -2.37924e-07 1.29604e-07 3.37397e-07 -7.2339e-08 8.28255e-08)
(0.000164244 1.53267e-07 8.49247e-08 2.79177e-07 -7.19635e-08 7.96325e-08)
(0.000163008 -9.50973e-08 1.48064e-07 3.05552e-07 -5.61537e-08 6.89926e-08)
(0.000163084 -8.38782e-08 -8.8961e-09 2.63401e-07 -2.7976e-08 6.54266e-08)
(0.000163783 5.26177e-08 1.4871e-07 2.54785e-07 -5.86153e-08 7.05096e-08)
(0.000162401 -1.57937e-07 1.02004e-07 3.53891e-07 -6.79016e-08 9.82242e-08)
(0.000163441 3.56357e-07 -7.55576e-08 3.77409e-07 -1.02615e-07 1.11846e-07)
(0.000162433 -5.3906e-08 7.51551e-08 4.50374e-07 -1.43635e-07 1.13297e-07)
(0.000162538 3.3015e-07 2.39619e-07 4.45099e-07 -1.51281e-07 1.26691e-07)
(0.000162904 4.08677e-07 1.13005e-08 4.12661e-07 -1.49279e-07 1.24811e-07)
(0.000161309 2.63373e-07 1.42416e-07 3.58015e-07 -1.12955e-07 1.26032e-07)
(0.000162456 3.86537e-07 2.23754e-07 2.29759e-07 -9.95827e-08 1.22812e-07)
(0.000161144 5.00849e-07 1.56208e-07 2.25219e-07 -9.1222e-08 1.07075e-07)
(0.000160848 2.97438e-07 3.1767e-07 1.9836e-07 -7.02547e-08 1.05181e-07)
(0.000161476 6.55672e-07 1.96312e-07 3.19236e-07 -5.09955e-08 7.38101e-08)
(0.000159854 4.4147e-07 3.81787e-07 2.90074e-07 2.21362e-09 5.93659e-08)
(0.000161217 3.91643e-07 2.11256e-07 2.80467e-07 -1.68249e-08 5.01628e-08)
(0.000160343 2.83167e-07 1.23149e-07 3.77485e-07 -6.86472e-09 4.48448e-08)
(0.000160279 5.42038e-08 2.71046e-07 2.42187e-07 2.27291e-09 7.68709e-08)
(0.00016117 1.23701e-07 -4.94311e-08 2.76435e-07 -3.23015e-08 8.13979e-08)
(0.000160279 -4.26964e-07 1.52176e-07 2.89858e-07 -2.15052e-08 8.27685e-08)
(0.000161701 -1.85939e-07 1.15193e-08 2.8086e-07 -7.31071e-08 8.75224e-08)
(0.000161597 -2.49015e-07 -9.46726e-08 4.11455e-07 -7.67008e-08 8.04125e-08)
(0.000162066 -6.77643e-07 1.91359e-07 3.31346e-07 -3.34038e-08 7.27162e-08)
(0.000162441 -5.0881e-07 -5.89377e-08 2.83513e-07 -3.87342e-08 7.07465e-08)
(0.000162604 -6.32769e-07 1.60268e-07 3.08821e-07 -9.85537e-09 7.32431e-08)
(0.000163486 -8.51374e-07 1.10065e-07 3.224e-07 -1.56444e-08 8.86066e-08)
(0.000163554 -7.5401e-07 1.31964e-07 3.33567e-07 -2.90483e-08 8.12824e-08)
(0.000164832 -7.59075e-07 1.77488e-07 2.9953e-07 -4.8909e-08 8.88073e-08)
(0.000164791 -6.50167e-07 3.72133e-08 4.39521e-07 -1.02483e-07 1.04223e-07)
(0.000164662 -5.85804e-07 2.70178e-07 4.86838e-07 -1.18772e-07 8.29136e-08)
(0.000165681 -3.93639e-07 6.41654e-08 5.13725e-07 -1.15547e-07 8.84004e-08)
(0.000165224 7.11933e-08 1.23438e-07 6.21258e-07 -1.23927e-07 9.43426e-08)
(0.000165275 -4.22736e-07 1.73189e-07 5.51259e-07 -9.54812e-08 9.06446e-08)
(0.000165562 2.99664e-07 9.90686e-08 4.64732e-07 -6.27693e-08 8.93252e-08)
(0.000164669 3.83372e-07 2.32531e-07 3.4307e-07 -4.14479e-08 8.6994e-08)
(0.000164607 -9.83099e-08 1.05636e-07 2.37396e-07 -4.29885e-08 8.96988e-08)
(0.000164137 3.88865e-07 2.07304e-07 3.36228e-07 -2.57517e-08 8.54251e-08)
(0.00016438 3.98343e-07 8.49213e-08 2.60107e-07 -5.49297e-08 8.74018e-08)
(0.000163898 1.81151e-07 1.83979e-07 2.59204e-07 -7.85255e-08 1.06725e-07)
(0.000163281 7.76634e-08 6.30283e-08 3.00271e-07 -5.57669e-08 1.08439e-07)
(0.000164385 1.91894e-07 2.65811e-08 2.56319e-07 -8.72933e-08 1.03303e-07)
(0.000162973 -9.36437e-08 1.49227e-07 2.81155e-07 -6.29682e-08 1.06844e-07)
(0.000163225 1.81363e-07 -5.37106e-08 2.11639e-07 -3.519e-08 9.96085e-08)
(0.000163572 -1.06536e-07 2.52923e-07 2.37516e-07 -5.55343e-08 1.07027e-07)
(0.00016284 1.10095e-07 4.11002e-08 3.09212e-07 -4.11327e-08 1.48923e-07)
(0.000163532 4.99622e-07 -7.15804e-08 3.14113e-07 -6.59938e-08 1.42099e-07)
(0.000162604 1.65681e-07 1.71723e-07 3.55119e-07 -8.49684e-08 1.13137e-07)
(0.000163182 7.03852e-07 1.54432e-07 2.98728e-07 -9.07593e-08 1.23612e-07)
(0.000163045 5.64879e-07 -1.03227e-08 3.66897e-07 -7.98756e-08 1.04243e-07)
(0.000161687 7.25554e-07 1.48463e-07 3.22076e-07 -4.24365e-08 9.14099e-08)
(0.00016272 7.44321e-07 2.87149e-07 2.40604e-07 -5.30002e-08 8.54153e-08)
(0.000161152 6.51138e-07 2.15092e-07 3.08069e-07 -5.48263e-08 7.18795e-08)
(0.000160851 5.94812e-07 3.494e-07 2.62824e-07 -6.08963e-08 8.57864e-08)
(0.000161431 9.03306e-07 2.67142e-07 4.26336e-07 -5.7716e-08 1.00297e-07)
(0.000159822 4.23813e-07 4.60094e-07 3.02139e-07 -1.07013e-08 8.87042e-08)
(0.000161093 6.13849e-07 2.22905e-07 4.2511e-07 -5.10038e-08 6.75149e-08)
(0.000160047 9.40656e-08 1.87341e-07 4.24306e-07 -3.97575e-08 6.47589e-08)
(0.000160117 1.35124e-07 3.16128e-07 3.43395e-07 -2.28179e-08 9.72625e-08)
(0.000160543 -2.12546e-07 -8.62071e-08 4.39167e-07 -2.13376e-08 8.6785e-08)
(0.000160138 -6.80747e-07 2.32704e-07 3.91566e-07 -4.12292e-10 8.86566e-08)
(0.000161944 -2.64147e-07 -4.60828e-08 4.47336e-07 -6.54664e-08 1.07259e-07)
(0.000161212 -5.15169e-07 -1.18024e-07 4.14225e-07 -5.56625e-08 1.18077e-07)
(0.000162009 -1.0096e-06 1.68974e-07 3.03589e-07 -1.00938e-08 1.12998e-07)
(0.000162662 -6.39492e-07 -8.09274e-08 3.53548e-07 -2.04847e-08 1.10122e-07)
(0.000162245 -9.10391e-07 1.50743e-07 3.69277e-07 -1.15383e-08 1.26086e-07)
(0.000163497 -1.20672e-06 7.69279e-08 4.19119e-07 6.95013e-09 1.4257e-07)
(0.000163804 -7.61458e-07 2.46915e-07 2.61618e-07 9.80778e-09 1.07478e-07)
(0.000164899 -1.17952e-06 1.79589e-07 3.34208e-07 -1.46509e-09 1.41037e-07)
(0.000165173 -7.55664e-07 1.00374e-07 4.80157e-07 -4.49054e-08 1.67701e-07)
(0.000165348 -7.52664e-07 3.63185e-07 3.25509e-07 -8.4373e-08 1.22746e-07)
(0.000166762 -3.89186e-07 6.16691e-08 4.24795e-07 -6.22833e-08 1.53299e-07)
(0.000165665 1.42659e-07 1.2155e-07 4.99743e-07 -7.39333e-08 1.64358e-07)
(0.000166153 -3.4604e-07 2.1785e-07 5.12823e-07 -7.56839e-08 1.38577e-07)
(0.000166694 6.92673e-07 1.84171e-07 5.03386e-07 -3.07626e-08 1.38221e-07)
(0.000164488 4.44284e-07 1.73894e-07 3.16431e-07 -3.89473e-08 1.21542e-07)
(0.000164859 1.83024e-07 2.66913e-07 3.6016e-07 -4.23122e-08 1.16822e-07)
(0.000164592 7.12669e-07 2.79389e-07 4.22151e-07 -5.55244e-09 1.05603e-07)
(0.000164178 4.07456e-07 3.9855e-08 2.63116e-07 -5.663e-08 1.03653e-07)
(0.000163908 1.77083e-07 2.27949e-07 3.15597e-07 -2.29776e-08 1.49747e-07)
(0.000163419 3.26708e-07 3.0223e-08 3.34114e-07 -5.19997e-09 1.37569e-07)
(0.000164245 -6.86233e-08 1.54002e-08 3.59265e-07 -6.8888e-08 1.16564e-07)
(0.000163227 2.68515e-08 1.43919e-07 3.15094e-07 -3.61971e-08 1.28564e-07)
(0.000163075 7.4161e-08 -2.14391e-10 2.65316e-07 -2.16331e-08 1.20291e-07)
(0.000163388 -2.8049e-07 2.94365e-07 3.81323e-07 -1.61369e-08 1.46264e-07)
(0.000163237 2.57038e-07 -4.43934e-08 3.52467e-07 5.00627e-09 1.9555e-07)
(0.000163438 3.32134e-07 8.81233e-09 4.39424e-07 -2.00778e-08 1.69175e-07)
(0.000162735 4.49988e-07 2.82819e-07 3.93422e-07 -4.29091e-08 1.39472e-07)
(0.000163388 6.21387e-07 3.87903e-08 3.43638e-07 -5.91124e-08 1.55853e-07)
(0.000163207 7.16408e-07 6.22772e-09 4.87558e-07 -4.38797e-08 1.30954e-07)
(0.000161973 8.98753e-07 2.04713e-07 3.54859e-07 -4.59758e-08 1.12085e-07)
(0.000162658 8.69511e-07 2.78138e-07 3.98669e-07 -6.61418e-08 1.0628e-07)
(0.000161187 7.56546e-07 3.1812e-07 4.22154e-07 -7.4374e-08 9.83836e-08)
(0.000161103 8.41763e-07 3.08777e-07 3.49581e-07 -1.04865e-07 1.09337e-07)
(0.000161248 1.04306e-06 4.0852e-07 5.7201e-07 -1.04464e-08 1.68458e-07)
(0.000159851 4.92521e-07 5.6251e-07 4.15063e-07 -5.12698e-09 1.52923e-07)
(0.000161004 7.2144e-07 2.75394e-07 5.90812e-07 -4.95139e-08 1.09686e-07)
(0.000159867 5.96835e-08 3.02189e-07 4.31642e-07 -6.07486e-08 1.10895e-07)
(0.000159883 4.75288e-08 3.77326e-07 5.24873e-07 -5.17632e-08 1.28715e-07)
(0.000159926 -5.77208e-07 -6.11568e-08 5.54736e-07 -1.07706e-08 1.01171e-07)
(0.000160404 -8.24807e-07 3.48144e-07 5.42151e-07 -2.86627e-08 1.02607e-07)
(0.000162235 -3.42296e-07 -7.33244e-08 7.31345e-07 -1.13367e-07 1.22538e-07)
(0.000160856 -9.00093e-07 -5.09254e-08 4.57734e-07 -8.86607e-08 1.47919e-07)
(0.000162249 -1.1624e-06 1.82067e-07 4.79454e-07 -3.32875e-08 1.40264e-07)
(0.000162837 -6.97896e-07 -6.99801e-08 6.50368e-07 -4.62136e-08 1.35605e-07)
(0.00016184 -1.34049e-06 1.81895e-07 5.66449e-07 -8.23751e-08 1.64516e-07)
(0.000163817 -1.35172e-06 8.87021e-08 5.62031e-07 -2.66962e-08 1.76296e-07)
(0.000163804 -1.0391e-06 3.86953e-07 3.38204e-07 2.31324e-08 1.16791e-07)
(0.000164856 -1.65955e-06 2.22676e-07 6.66097e-07 2.6884e-08 1.87299e-07)
(0.000165714 -7.92296e-07 2.27272e-07 6.1709e-07 -2.32271e-08 2.21812e-07)
(0.000165907 -9.80068e-07 4.60655e-07 3.30217e-07 -8.60567e-08 1.65986e-07)
(0.000167627 -3.19965e-07 9.93057e-08 5.41737e-07 -1.50737e-08 2.45722e-07)
(0.000166138 1.46279e-07 2.46568e-07 4.8224e-07 -5.87162e-08 2.46904e-07)
(0.000167309 1.04492e-08 3.26629e-07 5.84838e-07 -1.0588e-07 1.94865e-07)
(0.000167668 1.05959e-06 2.62625e-07 5.68248e-07 -2.16417e-08 2.11347e-07)
(0.000164396 5.16061e-07 2.68943e-07 3.60638e-07 -5.39832e-08 1.74658e-07)
(0.000165454 6.91627e-07 4.68069e-07 6.24925e-07 -2.82944e-08 1.56956e-07)
(0.000164833 1.05695e-06 3.59793e-07 5.59698e-07 1.66691e-08 1.37358e-07)
(0.000163867 2.77135e-07 8.55824e-08 3.85757e-07 -4.86653e-08 1.44124e-07)
(0.000164181 4.4345e-07 2.8569e-07 4.92494e-07 5.667e-08 2.1916e-07)
(0.00016329 3.60725e-07 4.80936e-08 4.9301e-07 3.10229e-08 1.77733e-07)
(0.000164207 -2.40536e-07 7.35257e-08 5.55906e-07 -4.96254e-08 1.32751e-07)
(0.000163599 1.40792e-07 2.03444e-07 3.54305e-07 -1.05506e-08 1.51945e-07)
(0.000162824 -3.32904e-07 1.13861e-07 3.99244e-07 6.40731e-09 1.63542e-07)
(0.000163513 -3.11791e-07 2.54114e-07 5.17496e-07 4.54752e-08 2.19408e-07)
(0.000163543 9.42103e-08 -6.86199e-08 4.29495e-07 3.7604e-08 2.55116e-07)
(0.000163523 9.24852e-08 1.56708e-07 6.52846e-07 6.68477e-09 2.0944e-07)
(0.000162731 4.79025e-07 3.77975e-07 5.09661e-07 -3.0438e-08 2.07684e-07)
(0.000163415 2.92386e-07 -5.94941e-08 5.854e-07 -3.66074e-08 2.34965e-07)
(0.000163521 8.33714e-07 1.38231e-07 6.50563e-07 -1.7455e-08 2.05619e-07)
(0.000162068 7.12144e-07 3.08607e-07 4.78097e-07 -6.20768e-08 1.82975e-07)
(0.000162544 8.9738e-07 3.24988e-07 6.69146e-07 -7.96834e-08 1.89669e-07)
(0.000161328 8.29162e-07 4.51854e-07 5.30575e-07 -1.13285e-07 1.85465e-07)
(0.000161425 1.0668e-06 3.09091e-07 5.07151e-07 -1.25113e-07 1.70307e-07)
(0.000161021 1.06468e-06 6.14711e-07 9.32742e-07 9.47376e-08 2.62484e-07)
(0.000159827 5.10332e-07 7.22647e-07 8.25933e-07 3.764e-08 2.42386e-07)
(0.00016096 7.11626e-07 3.84758e-07 9.17754e-07 2.68753e-08 1.90311e-07)
(0.000159652 6.30391e-08 4.69571e-07 6.88452e-07 -2.85445e-08 1.827e-07)
(0.000159469 -2.75821e-07 4.51882e-07 9.32336e-07 -2.30609e-08 1.91534e-07)
(0.000159574 -9.06629e-07 6.10729e-08 7.82099e-07 5.0552e-08 1.641e-07)
(0.000160931 -9.55442e-07 4.91109e-07 8.22935e-07 -3.61645e-08 1.45733e-07)
(0.000162468 -6.51104e-07 -1.04479e-07 1.02024e-06 -1.71498e-07 1.61418e-07)
(0.000160812 -1.32667e-06 4.80308e-08 6.3046e-07 -1.45231e-07 2.03518e-07)
(0.00016283 -1.12116e-06 2.12159e-07 8.76091e-07 -2.6763e-08 1.87891e-07)
(0.000162904 -8.64127e-07 -1.23432e-08 1.08442e-06 -8.33419e-08 1.8567e-07)
(0.00016179 -1.67471e-06 2.49187e-07 9.04727e-07 -2.19157e-07 2.27482e-07)
(0.000164255 -1.37834e-06 1.15174e-07 7.98338e-07 -1.03018e-07 2.41324e-07)
(0.000163586 -1.67092e-06 4.86605e-07 7.04704e-07 2.5857e-08 1.54589e-07)
(0.00016516 -2.04032e-06 2.86528e-07 1.2493e-06 7.4535e-09 2.44224e-07)
(0.000166335 -1.00939e-06 3.3356e-07 8.33155e-07 -1.04144e-07 2.81186e-07)
(0.000166242 -1.39816e-06 5.1769e-07 6.78954e-07 -1.31421e-07 2.37841e-07)
(0.00016824 -2.64076e-07 2.06682e-07 9.32125e-07 1.69305e-08 3.57795e-07)
(0.000166651 8.37945e-08 4.58715e-07 7.74961e-07 -1.06681e-07 3.19709e-07)
(0.000168562 4.39715e-07 4.15401e-07 9.43483e-07 -1.62847e-07 2.68205e-07)
(0.000168253 1.33119e-06 3.85951e-07 7.6123e-07 -2.58901e-08 3.12723e-07)
(0.000164468 6.0335e-07 4.53968e-07 6.59879e-07 -7.81271e-08 2.39462e-07)
(0.000166304 1.38891e-06 6.31453e-07 1.04111e-06 1.39494e-08 2.1521e-07)
(0.000164776 1.14186e-06 4.32659e-07 7.1359e-07 2.64669e-08 1.99429e-07)
(0.000163795 2.27074e-07 1.56241e-07 7.04618e-07 -1.81625e-08 2.23761e-07)
(0.000164563 8.24089e-07 3.31618e-07 9.0113e-07 1.50547e-07 3.13342e-07)
(0.000163025 1.67724e-07 4.98965e-08 8.12611e-07 2.41924e-08 2.32806e-07)
(0.000164436 -1.04728e-07 1.30385e-07 7.94546e-07 -4.91689e-08 1.6615e-07)
(0.000163798 1.62905e-08 2.8616e-07 5.03723e-07 6.87394e-10 2.03887e-07)
(0.000162748 -7.64447e-07 1.61515e-07 6.62822e-07 3.56935e-08 2.70552e-07)
(0.000163909 -3.09828e-07 1.24925e-07 6.09649e-07 1.14918e-07 3.50806e-07)
(0.000163846 -3.46968e-07 -2.48063e-08 5.83897e-07 5.24996e-08 3.35498e-07)
(0.000163896 -1.57764e-07 2.80195e-07 8.97344e-07 6.65916e-09 2.79123e-07)
(0.000162777 1.54848e-07 3.73494e-07 7.26903e-07 -3.20486e-08 3.18234e-07)
(0.000163716 1.38413e-08 -9.17891e-08 9.49086e-07 -4.77108e-09 3.44773e-07)
(0.000164005 7.23041e-07 3.23185e-07 8.24908e-07 3.88777e-08 3.05817e-07)
(0.000162199 3.22368e-07 5.01325e-07 8.04017e-07 -1.83317e-08 2.72644e-07)
(0.000162712 8.78717e-07 5.04264e-07 1.11384e-06 -4.81239e-08 2.95798e-07)
(0.000161586 8.27146e-07 6.00175e-07 7.68718e-07 -1.14846e-07 2.92481e-07)
(0.000161726 1.1243e-06 4.96659e-07 8.43894e-07 -5.15009e-08 2.56152e-07)
(0.000160894 9.95668e-07 8.84704e-07 1.64771e-06 1.96087e-07 3.50275e-07)
(0.000159899 4.1547e-07 1.01e-06 1.67378e-06 8.75658e-08 3.57124e-07)
(0.000161116 6.99584e-07 5.92679e-07 1.59668e-06 1.50178e-07 3.14045e-07)
(0.000159396 -2.57202e-08 6.94235e-07 1.39169e-06 2.34148e-08 2.69527e-07)
(0.000159069 -6.84286e-07 5.68193e-07 1.77016e-06 3.4556e-08 3.10076e-07)
(0.000159562 -1.15389e-06 3.12182e-07 1.41668e-06 1.58041e-07 2.97052e-07)
(0.000161463 -1.17266e-06 6.60349e-07 1.42943e-06 8.66373e-09 2.30084e-07)
(0.000162715 -1.24133e-06 -1.1609e-07 1.51172e-06 -2.23673e-07 2.56255e-07)
(0.000161227 -1.6511e-06 1.88043e-07 1.26225e-06 -1.70404e-07 3.32354e-07)
(0.000163584 -1.04751e-06 3.14099e-07 1.60196e-06 7.42795e-08 3.07653e-07)
(0.000163016 -1.09395e-06 1.06926e-07 1.64426e-06 -1.43876e-07 3.01258e-07)
(0.00016215 -1.86731e-06 3.21937e-07 1.51345e-06 -4.07006e-07 3.6302e-07)
(0.000164566 -1.50865e-06 1.2256e-07 1.356e-06 -1.50428e-07 4.01035e-07)
(0.000163511 -2.43635e-06 6.01137e-07 1.45054e-06 5.9136e-08 2.58489e-07)
(0.000166025 -2.28299e-06 3.43183e-07 1.94676e-06 -4.43269e-08 3.45491e-07)
(0.000166991 -1.55688e-06 3.80202e-07 1.21638e-06 -2.37303e-07 4.18917e-07)
(0.000166744 -1.87142e-06 5.63706e-07 1.38561e-06 -1.58041e-07 3.96538e-07)
(0.000168917 -2.1541e-07 3.9938e-07 1.47492e-06 4.32232e-08 5.11128e-07)
(0.000167377 -1.10182e-07 6.55872e-07 1.472e-06 -2.03422e-07 4.26003e-07)
(0.000170084 8.73831e-07 4.89512e-07 1.64097e-06 -1.88143e-07 4.27992e-07)
(0.000168593 1.50162e-06 6.35534e-07 1.24076e-06 -2.24903e-08 4.60927e-07)
(0.000164857 8.46547e-07 7.00081e-07 1.48402e-06 -1.21124e-07 3.25406e-07)
(0.000167183 2.14166e-06 8.1332e-07 1.7434e-06 5.70197e-08 3.33514e-07)
(0.000164522 9.75551e-07 5.3618e-07 1.01291e-06 1.89179e-08 3.30466e-07)
(0.000164093 3.81308e-07 3.01994e-07 1.48659e-06 6.80043e-08 3.64265e-07)
(0.000164916 1.10425e-06 3.46082e-07 1.83773e-06 2.28792e-07 4.54335e-07)
(0.000163011 -1.07632e-08 -6.68198e-09 1.44372e-06 -3.70337e-08 3.27611e-07)
(0.000164831 2.27914e-07 1.9235e-07 1.26796e-06 -1.94557e-08 2.39148e-07)
(0.000163687 -3.77125e-07 3.53695e-07 1.08063e-06 2.62175e-08 3.18386e-07)
(0.000162984 -1.07056e-06 9.28753e-08 1.25804e-06 7.14438e-08 4.83782e-07)
(0.000164328 -4.48484e-07 -3.85803e-08 8.34396e-07 1.94295e-07 5.5523e-07)
(0.000164177 -9.83843e-07 6.59154e-08 1.0108e-06 8.6246e-08 4.36014e-07)
(0.0001646 -4.53343e-07 3.63033e-07 1.31865e-06 1.63775e-08 4.02788e-07)
(0.000163134 -4.04348e-07 3.46747e-07 1.2822e-06 -3.84227e-08 4.80638e-07)
(0.000164398 -1.6945e-07 -1.76064e-09 1.61737e-06 5.05426e-08 4.81279e-07)
(0.000164646 2.99702e-07 5.11439e-07 1.23194e-06 1.47934e-07 4.43002e-07)
(0.000162747 -8.37178e-08 7.99549e-07 1.57717e-06 5.87747e-08 3.81774e-07)
(0.000163335 8.28629e-07 7.51191e-07 1.91359e-06 -1.65108e-08 4.06649e-07)
(0.000161951 6.96645e-07 8.08866e-07 1.28939e-06 -8.65377e-08 4.18844e-07)
(0.000162099 1.09372e-06 9.19079e-07 1.48232e-06 1.01273e-07 3.68018e-07)
(0.000161081 8.27679e-07 1.225e-06 2.95316e-06 2.90338e-07 4.51623e-07)
(0.000160438 3.30491e-07 1.38308e-06 3.27544e-06 1.63578e-07 5.71395e-07)
(0.00016168 7.27919e-07 8.36374e-07 2.86902e-06 3.10578e-07 5.20105e-07)
(0.000159354 -1.89194e-07 9.32648e-07 2.78669e-06 8.73283e-08 4.05212e-07)
(0.000159087 -1.02982e-06 7.22803e-07 3.29775e-06 9.37993e-08 5.36684e-07)
(0.000159957 -1.44161e-06 6.2097e-07 2.68279e-06 2.92854e-07 5.31909e-07)
(0.00016203 -1.60572e-06 8.18374e-07 2.62728e-06 8.74738e-08 3.79618e-07)
(0.00016329 -1.98218e-06 -1.25086e-07 2.66788e-06 -2.53593e-07 4.27623e-07)
(0.000162215 -1.9269e-06 3.60727e-07 2.78243e-06 -9.08129e-08 5.92844e-07)
(0.00016461 -1.0413e-06 4.54829e-07 2.88147e-06 2.81808e-07 5.6109e-07)
(0.000163357 -1.2172e-06 2.6801e-07 2.60559e-06 -2.53726e-07 4.81256e-07)
(0.000162724 -2.0356e-06 2.83223e-07 2.71784e-06 -6.00646e-07 6.3248e-07)
(0.000164799 -1.83613e-06 8.65673e-08 2.44545e-06 -1.31694e-07 7.33405e-07)
(0.000163972 -3.12351e-06 6.70961e-07 2.66314e-06 1.44878e-07 4.50355e-07)
(0.000167336 -2.53479e-06 2.81506e-07 2.9067e-06 -7.63681e-08 5.45241e-07)
(0.000167771 -2.38494e-06 3.32929e-07 2.10407e-06 -3.49158e-07 7.04186e-07)
(0.000167738 -2.18723e-06 5.98175e-07 2.46036e-06 -1.08686e-07 6.87744e-07)
(0.000169742 -3.12659e-07 5.66052e-07 2.21941e-06 7.21636e-08 7.58342e-07)
(0.000168605 -3.30132e-07 7.07037e-07 2.7505e-06 -2.77719e-07 6.71425e-07)
(0.000172176 1.22351e-06 5.98265e-07 2.7662e-06 -8.78794e-08 7.54583e-07)
(0.000168992 1.63277e-06 1.02828e-06 2.28728e-06 2.17309e-08 6.58174e-07)
(0.000165637 1.22898e-06 1.0094e-06 3.0811e-06 -1.84702e-07 4.7498e-07)
(0.000168051 2.76867e-06 1.07648e-06 2.87023e-06 9.48583e-08 6.0203e-07)
(0.000164338 7.26226e-07 7.06669e-07 1.7816e-06 5.16224e-08 5.69375e-07)
(0.000164808 5.91018e-07 5.05446e-07 3.10245e-06 2.45904e-07 5.96499e-07)
(0.000165465 1.17228e-06 2.04974e-07 3.64045e-06 2.31405e-07 6.99163e-07)
(0.000163533 -3.06486e-08 -1.32197e-07 2.67883e-06 -9.69229e-08 5.16345e-07)
(0.000165278 5.09974e-07 3.05067e-07 2.44001e-06 1.26629e-07 3.84954e-07)
(0.000163479 -1.0315e-06 3.218e-07 2.5054e-06 8.80588e-08 5.65718e-07)
(0.000163559 -1.34314e-06 -9.2831e-08 2.4193e-06 1.38474e-07 8.76878e-07)
(0.000164634 -9.05956e-07 -2.47583e-07 1.50946e-06 3.26025e-07 8.67931e-07)
(0.000164658 -1.75014e-06 1.73267e-07 1.95229e-06 2.26771e-07 6.14287e-07)
(0.000165707 -8.32707e-07 3.93759e-07 2.15604e-06 5.78984e-08 6.4899e-07)
(0.000164035 -9.96785e-07 3.36131e-07 2.60176e-06 -1.53667e-08 7.18708e-07)
(0.000165631 -2.89327e-07 1.20713e-07 2.98413e-06 1.93464e-07 6.98969e-07)
(0.000165725 -2.97861e-07 6.5312e-07 2.36293e-06 3.3462e-07 7.03393e-07)
(0.000164178 -3.11964e-07 1.17856e-06 3.25682e-06 1.78814e-07 5.54071e-07)
(0.000164658 7.07818e-07 9.65836e-07 3.39265e-06 1.62404e-08 5.76018e-07)
(0.000162735 5.28309e-07 1.1527e-06 2.41916e-06 -1.20812e-08 6.58784e-07)
(0.000162792 1.1004e-06 1.4959e-06 2.62726e-06 3.28686e-07 5.51247e-07)
(0.000162012 6.63203e-07 1.69777e-06 5.50382e-06 5.16213e-07 6.89335e-07)
(0.000161899 3.44519e-07 1.82712e-06 6.196e-06 3.80729e-07 1.06272e-06)
(0.000162947 8.22177e-07 1.09241e-06 5.29103e-06 6.12853e-07 9.55284e-07)
(0.000159959 -2.33502e-07 1.14349e-06 5.54391e-06 3.0075e-07 7.29175e-07)
(0.000159878 -1.24124e-06 8.66999e-07 5.93464e-06 2.44168e-07 9.95369e-07)
(0.000160886 -1.87786e-06 8.37188e-07 4.96131e-06 4.70202e-07 1.00897e-06)
(0.000162991 -2.27174e-06 9.00198e-07 4.90999e-06 2.37668e-07 7.15858e-07)
(0.000164655 -2.70578e-06 -1.751e-07 5.11687e-06 -1.68036e-07 7.58642e-07)
(0.000164078 -2.1879e-06 4.65705e-07 5.68626e-06 1.86186e-07 1.12547e-06)
(0.000166262 -9.33516e-07 6.04454e-07 5.06119e-06 6.08167e-07 1.0582e-06)
(0.000164096 -1.14808e-06 4.008e-07 4.52853e-06 -3.95834e-07 7.59154e-07)
(0.000163451 -2.12854e-06 2.31478e-09 4.94642e-06 -7.26126e-07 1.18164e-06)
(0.000165202 -2.18934e-06 -2.36806e-08 4.33737e-06 -2.43293e-08 1.38704e-06)
(0.000165061 -3.60764e-06 5.37962e-07 4.70124e-06 3.29612e-07 8.24204e-07)
(0.000168967 -2.9074e-06 -1.72196e-08 4.69997e-06 3.44891e-09 9.81606e-07)
(0.000168925 -3.21641e-06 1.57415e-07 3.88812e-06 -3.82408e-07 1.26316e-06)
(0.000169231 -2.46519e-06 5.78639e-07 4.05922e-06 2.50862e-08 1.17943e-06)
(0.000170765 -6.07315e-07 5.9366e-07 3.57198e-06 1.19202e-07 1.23133e-06)
(0.000170611 -4.08535e-07 6.55449e-07 4.94938e-06 -2.03988e-07 1.2394e-06)
(0.000175146 1.50685e-06 8.12016e-07 4.63178e-06 2.54389e-07 1.3306e-06)
(0.000169916 1.86059e-06 1.57031e-06 4.38817e-06 1.3281e-07 9.34672e-07)
(0.00016699 1.71785e-06 1.45527e-06 5.77467e-06 -2.91561e-07 7.96607e-07)
(0.000169092 3.33776e-06 1.44195e-06 4.70599e-06 1.27233e-07 1.15394e-06)
(0.000164401 5.19798e-07 9.94899e-07 3.35648e-06 2.18786e-07 9.987e-07)
(0.000166166 8.35942e-07 6.81183e-07 5.9479e-06 5.32306e-07 1.02097e-06)
(0.000166889 1.06575e-06 -1.59085e-07 6.7005e-06 1.23779e-07 1.17421e-06)
(0.000164949 7.33093e-08 -2.42089e-07 4.93678e-06 -6.2171e-08 8.81307e-07)
(0.000165869 5.8714e-07 4.74449e-07 4.93798e-06 4.56162e-07 6.97135e-07)
(0.000163706 -1.81229e-06 2.23273e-07 5.26892e-06 1.79982e-07 1.10345e-06)
(0.000164656 -1.70468e-06 -2.78914e-07 4.58203e-06 2.66583e-07 1.57397e-06)
(0.000164914 -1.73478e-06 -3.58717e-07 3.06875e-06 6.21907e-07 1.38728e-06)
(0.000165509 -2.59366e-06 3.96593e-07 3.61166e-06 5.32542e-07 1.0258e-06)
(0.000167582 -1.32293e-06 5.84718e-07 3.85136e-06 1.36233e-07 1.10525e-06)
(0.000165957 -1.3951e-06 4.08334e-07 5.25197e-06 1.06537e-07 1.07554e-06)
(0.000167786 -3.4527e-07 2.30219e-07 5.73887e-06 4.92653e-07 1.13656e-06)
(0.000167877 -7.47505e-07 8.15399e-07 5.18051e-06 6.63315e-07 1.20611e-06)
(0.000167093 -2.66848e-07 1.64666e-06 6.65015e-06 4.42206e-07 8.57284e-07)
(0.000167208 6.07796e-07 1.18081e-06 6.33972e-06 1.52992e-07 9.59265e-07)
(0.000164362 4.93614e-07 1.62948e-06 4.86342e-06 1.94054e-07 1.20729e-06)
(0.000163995 1.13836e-06 2.19153e-06 4.80001e-06 7.3988e-07 9.29917e-07)
(0.000164233 6.96043e-07 2.21368e-06 1.04937e-05 1.15893e-06 1.36492e-06)
(0.000164775 6.14168e-07 2.12137e-06 1.1451e-05 9.65795e-07 2.18845e-06)
(0.000165433 1.1449e-06 1.17734e-06 1.00612e-05 1.39889e-06 1.96074e-06)
(0.000161717 1.23696e-07 1.1449e-06 1.0772e-05 1.07348e-06 1.58189e-06)
(0.000161689 -1.25636e-06 7.15863e-07 1.06592e-05 7.35097e-07 2.00269e-06)
(0.00016244 -2.39131e-06 7.5986e-07 9.26546e-06 8.4761e-07 2.08808e-06)
(0.000164667 -2.90027e-06 7.19686e-07 9.12859e-06 6.66169e-07 1.54591e-06)
(0.000167109 -3.17087e-06 -5.19782e-07 9.69931e-06 2.86435e-07 1.48371e-06)
(0.000167066 -2.43935e-06 2.4602e-07 1.08397e-05 8.449e-07 2.25035e-06)
(0.000168734 -4.99997e-07 6.34385e-07 8.97088e-06 1.11847e-06 1.99029e-06)
(0.000165138 -7.92362e-07 2.01092e-07 8.38373e-06 -4.07075e-07 1.26605e-06)
(0.000164151 -2.11063e-06 -7.6194e-07 8.81426e-06 -6.6849e-07 2.32063e-06)
(0.000165662 -2.4798e-06 -4.54291e-07 7.64335e-06 1.87004e-07 2.62746e-06)
(0.000166391 -3.81337e-06 -6.75523e-08 8.26276e-06 7.73114e-07 1.62626e-06)
(0.000170498 -3.34734e-06 -7.64357e-07 8.06466e-06 3.69818e-07 2.00182e-06)
(0.000170018 -3.85809e-06 -3.31963e-07 7.04413e-06 -2.24397e-07 2.37066e-06)
(0.000170619 -2.92118e-06 2.39745e-07 6.66775e-06 3.06489e-07 2.0666e-06)
(0.000171889 -9.63754e-07 2.81602e-07 6.20747e-06 3.07032e-07 2.21779e-06)
(0.000173611 -3.3197e-07 4.42102e-07 8.70472e-06 2.94987e-07 2.44789e-06)
(0.000179241 1.71888e-06 1.06264e-06 8.00789e-06 9.48077e-07 2.30993e-06)
(0.000171752 2.20941e-06 2.30568e-06 8.43218e-06 3.0561e-07 1.36472e-06)
(0.00016929 2.30192e-06 2.07829e-06 1.02971e-05 -4.76866e-07 1.47479e-06)
(0.000170591 3.8886e-06 1.89348e-06 7.86815e-06 1.19011e-07 2.21958e-06)
(0.000164962 3.69921e-07 1.36628e-06 6.25181e-06 6.38505e-07 1.81707e-06)
(0.000168604 9.64808e-07 7.08206e-07 1.06698e-05 1.02017e-06 1.88997e-06)
(0.000169843 8.70927e-07 -9.53516e-07 1.17957e-05 4.54101e-08 2.14608e-06)
(0.000167652 2.00522e-07 -4.90873e-07 9.03801e-06 2.52669e-07 1.62846e-06)
(0.000167122 5.88927e-07 4.97075e-07 9.51727e-06 1.04226e-06 1.41646e-06)
(0.000165127 -2.41401e-06 -4.36604e-08 1.02606e-05 3.15957e-07 2.16678e-06)
(0.000166599 -1.99023e-06 -4.92179e-07 8.63942e-06 6.04016e-07 2.75958e-06)
(0.000165488 -2.83518e-06 -4.34822e-07 5.95483e-06 1.26117e-06 2.38649e-06)
(0.000166977 -3.28904e-06 7.2758e-07 6.33991e-06 1.06135e-06 1.98492e-06)
(0.000170666 -1.69572e-06 9.81841e-07 7.0479e-06 3.27052e-07 1.88298e-06)
(0.000169618 -1.36264e-06 4.44503e-07 1.00536e-05 4.64704e-07 1.6625e-06)
(0.000171851 -1.49131e-07 1.10713e-07 1.11282e-05 1.04537e-06 2.05851e-06)
(0.000172224 -6.15052e-07 8.48615e-07 1.10543e-05 1.28681e-06 2.14561e-06)
(0.000172518 1.08882e-07 1.99794e-06 1.31152e-05 1.10178e-06 1.47038e-06)
(0.000171956 7.87076e-07 1.26208e-06 1.23498e-05 6.08147e-07 1.86276e-06)
(0.000167391 6.65111e-07 2.08532e-06 9.98149e-06 7.19229e-07 2.40886e-06)
(0.000166134 1.23908e-06 2.89012e-06 9.16674e-06 1.59536e-06 1.77279e-06)
(0.000167834 1.50172e-06 2.70299e-06 1.94362e-05 2.6029e-06 3.17914e-06)
(0.000168872 1.74114e-06 2.1236e-06 2.04842e-05 2.29794e-06 4.74199e-06)
(0.000168709 2.57633e-06 1.0685e-06 1.8914e-05 3.35994e-06 4.45034e-06)
(0.000164005 1.68617e-06 9.12656e-07 2.0078e-05 3.23527e-06 3.86795e-06)
(0.000163495 -5.08183e-07 2.5386e-07 1.92249e-05 2.21839e-06 4.3311e-06)
(0.000163692 -2.32065e-06 5.37299e-07 1.73547e-05 2.04218e-06 4.68842e-06)
(0.000166048 -2.53785e-06 4.96488e-07 1.69097e-05 2.01853e-06 3.69766e-06)
(0.000168906 -2.57696e-06 -1.00413e-06 1.8313e-05 1.75352e-06 3.3418e-06)
(0.000169412 -1.51544e-06 5.00069e-09 2.01291e-05 2.40197e-06 4.77592e-06)
(0.000170734 1.13152e-06 8.90712e-07 1.61561e-05 2.17548e-06 4.02376e-06)
(0.000164875 5.5425e-07 -3.95544e-07 1.57201e-05 1.80627e-07 2.64895e-06)
(0.000162787 -1.50566e-06 -1.83577e-06 1.57485e-05 -2.10891e-07 4.7221e-06)
(0.000164536 -1.93612e-06 -9.51021e-07 1.37782e-05 8.04377e-07 5.13219e-06)
(0.000166108 -3.01475e-06 -7.45459e-07 1.47392e-05 1.98128e-06 3.56488e-06)
(0.000169258 -3.05152e-06 -1.37233e-06 1.42573e-05 1.43965e-06 4.46826e-06)
(0.000168411 -3.68164e-06 -5.7766e-07 1.25891e-05 3.90796e-07 4.73606e-06)
(0.000169435 -3.19038e-06 -2.91516e-07 1.15904e-05 9.91921e-07 3.77256e-06)
(0.000171486 -1.08237e-06 -2.68048e-07 1.12311e-05 8.85492e-07 4.3138e-06)
(0.000176689 1.61634e-07 2.63043e-07 1.48999e-05 1.39292e-06 4.98007e-06)
(0.000183788 1.52487e-06 1.44405e-06 1.39991e-05 2.12541e-06 4.01568e-06)
(0.000174578 2.37613e-06 3.45416e-06 1.57567e-05 6.3018e-07 2.14751e-06)
(0.000172656 2.99137e-06 2.82827e-06 1.79097e-05 -8.9987e-07 2.88225e-06)
(0.000172575 4.24647e-06 2.40718e-06 1.30868e-05 -8.77912e-08 4.21183e-06)
(0.000166066 1.06329e-07 1.76127e-06 1.1269e-05 1.4644e-06 3.49769e-06)
(0.00017261 9.85006e-07 2.82393e-07 1.85465e-05 1.90263e-06 3.74735e-06)
(0.000175248 5.53006e-07 -2.53982e-06 2.05862e-05 2.9879e-07 4.14195e-06)
(0.000172312 2.3599e-07 -1.16435e-06 1.6594e-05 1.13453e-06 3.28062e-06)
(0.000169916 6.34437e-07 2.64612e-07 1.78382e-05 1.91484e-06 3.07401e-06)
(0.000168728 -2.54609e-06 -4.35324e-07 1.93851e-05 5.68209e-07 4.20332e-06)
(0.000169886 -2.31822e-06 -6.75888e-07 1.61653e-05 1.40615e-06 4.87919e-06)
(0.000166563 -4.25305e-06 -4.17015e-07 1.12908e-05 2.35477e-06 4.4218e-06)
(0.000169105 -3.87205e-06 1.43423e-06 1.10537e-05 1.89307e-06 4.01329e-06)
(0.000175243 -1.63704e-06 1.83656e-06 1.23827e-05 8.40325e-07 3.23954e-06)