/*--------------------------------*- C++ -*----------------------------------*\
  =========                 |
  \\      /  F ield         | OpenFOAM: The Open Source CFD Toolbox
   \\    /   O peration     | Website:  https://openfoam.org
    \\  /    A nd           | Version:  10
     \\/     M anipulation  |
\*---------------------------------------------------------------------------*/
FoamFile
{
    format      ascii;
    class       volScalarField;
    location    "50";
    object      p;
}
// * * * * * * * * * * * * * * * * * * * * * * * * * * * * * * * * * * * * * //

dimensions      [0 2 -2 0 0 0 0];

internalField   nonuniform List<scalar> 
25600
(
0.000482308
0.000845719
0.00127853
0.000643486
0.00089924
0.00147511
0.00119515
0.00160509
0.00221693
0.00204838
0.00212004
0.0022927
0.00208826
0.00221991
0.00222794
0.00191413
0.00152172
0.00136976
0.00147331
0.00138144
0.000423588
-0.000335998
0.000461878
0.000223601
-0.000579444
0.000151338
0.000250725
0.000292978
0.000613373
0.000117813
0.000637277
0.000998714
0.000166209
0.000569873
0.00115061
0.000535585
0.000598761
0.000861032
0.000620855
0.000688207
0.000133461
0.0011397
0.00115839
0.000350564
0.00117846
0.00135213
0.00128596
0.00188783
0.00231945
0.00238207
0.00231877
0.0024167
0.0024733
0.00207002
0.00200713
0.00222808
0.00135026
0.00115127
0.00168864
0.0010703
0.000313798
-9.92334e-05
0.000149507
-4.20757e-05
-0.000425927
2.34045e-05
-3.47106e-05
0.00030428
0.000508801
0.000146885
0.000568335
0.00075886
0.000229941
0.000354726
0.000853739
0.000713858
0.000667796
0.000457272
0.000779375
0.00083609
-1.4476e-05
0.00125703
0.000853865
0.00032087
0.00129699
0.00101684
0.00154741
0.00215008
0.00245691
0.00295205
0.00242051
0.00249173
0.0028671
0.00193702
0.00172688
0.00231473
0.00133486
0.00114031
0.0018068
0.000835106
0.00021795
4.21516e-05
-0.000338743
-0.000442247
-0.000225138
-0.000181226
-0.000221982
0.00029441
0.000269602
0.000272621
0.000342224
0.000431348
0.000417598
7.77654e-05
0.000553969
0.000945326
0.000676776
0.000125831
0.000867859
0.000839763
0.000123199
0.0011819
0.000527815
0.000509027
0.00110619
0.000639496
0.00174704
0.00209244
0.00269297
0.00353003
0.00261026
0.00269417
0.00308201
0.00181814
0.00156328
0.00215943
0.00132529
0.00125288
0.00184892
0.000743331
0.000187815
0.000102095
-0.000962814
-0.000812415
-0.00023037
-0.000539775
-0.000386131
0.000234731
0.000173753
0.000441395
3.88145e-05
0.000186453
0.000469593
-0.000304308
0.000365205
0.00119572
0.000618621
-1.93637e-05
0.000894563
0.000751165
0.000372499
0.000957661
0.000347788
0.000691774
0.000722587
0.000519987
0.00193728
0.00209368
0.00314568
0.00382027
0.0025727
0.00286939
0.00296933
0.00164416
0.00141503
0.00188762
0.00147704
0.00155997
0.0019546
0.000882163
0.000289928
-0.000173256
-0.00157179
-0.00116595
-0.000377264
-0.000850672
-0.000513986
0.00010867
7.56659e-05
0.000368398
-0.000227629
0.000181332
0.000329959
-0.000650202
0.000318253
0.00128262
0.000441572
-4.16578e-05
0.000820392
0.000597269
0.000615483
0.000733569
0.000321037
0.000808988
0.000377736
0.000269051
0.00153563
0.00189776
0.00379329
0.00430666
0.0029836
0.0031903
0.00280046
0.00159781
0.00108932
0.00131055
0.00158331
0.00186827
0.00218534
0.00124792
0.000382425
-0.000368295
-0.00209384
-0.00208387
-0.000779497
-0.00129858
-0.000679145
7.0225e-05
5.40789e-05
0.000168493
-0.000395179
-3.84984e-06
-0.000193954
-0.000951918
0.000480641
0.00131573
0.00033934
0.000214183
0.000622641
0.000398522
0.0008712
0.000718167
0.000753102
0.000845366
-2.69685e-05
7.53367e-05
0.0010189
0.0020131
0.00395002
0.00400661
0.00309288
0.00334188
0.00273679
0.00162889
0.000279523
0.000754041
0.00184733
0.00214214
0.00239569
0.00132796
0.000379462
-0.000507651
-0.00241754
-0.00226706
-0.00121527
-0.00179296
-0.00086933
-3.16502e-05
-7.85039e-05
3.26835e-05
-0.000311485
-0.000171292
-0.000933177
-0.0012756
0.000463044
0.0010672
0.000134345
0.000242324
0.000292666
0.000263782
0.00100429
0.000583065
0.000667549
0.00099982
-0.000221165
-0.00036175
-0.000183996
0.00199965
0.00421287
0.003835
0.00324287
0.00310187
0.00235923
0.00138813
-0.000237089
0.000385302
0.00190569
0.00199509
0.0022514
0.00106492
0.000395323
-0.00071976
-0.00280842
-0.00246397
-0.00149367
-0.00174781
-0.000800172
-3.73569e-05
-8.48881e-05
0.00026558
0.000289731
-0.000570553
-0.00160173
-0.00143261
0.000245351
0.000643711
-8.36528e-06
1.04973e-05
-0.000114127
0.000235034
0.00118544
0.000486167
0.000362228
0.000716741
-0.000421304
-0.000533202
0.000350639
0.00285373
0.00492918
0.00430577
0.00333362
0.00196087
0.00176574
0.00149725
-2.90758e-05
0.000341925
0.00221386
0.00321491
0.00202802
0.00111004
0.00112954
-0.000469628
-0.00356451
-0.00330056
-0.00242139
-0.00264404
-0.00140117
-0.00039603
-0.000114099
0.00075461
0.000913275
-0.00134106
-0.00280235
-0.0018275
-0.000133615
0.000355812
4.22095e-05
-0.000111388
-0.000626973
1.173e-06
0.0016292
-7.35254e-05
-0.000546626
0.000877481
-0.000251299
-0.000924407
5.89113e-05
0.00324942
0.00572857
0.00450945
0.00175944
-0.000368734
0.00114133
0.0016909
0.000300703
0.000587465
0.00266898
0.0019854
0.000160406
0.00103632
0.00203984
-0.000182461
-0.00432256
-0.00367073
-0.0028463
-0.00308994
-0.00202621
-0.000489446
4.65631e-05
0.0010594
0.000877174
-0.00214951
-0.00299097
-0.00173532
-0.000659468
5.42752e-05
8.19333e-05
-0.000339513
0.000158426
0.000268116
0.00186157
-0.000499534
0.000317736
0.0010254
-0.000274188
-0.00102518
0.000755645
0.00472296
0.00624842
0.00400046
7.57193e-05
-0.00198236
0.000904906
0.00119718
0.000218807
0.000999341
0.00257688
5.38028e-05
-0.00109094
0.00175193
0.00206922
-0.00102137
-0.00380811
-0.00295827
-0.00275916
-0.00306365
-0.000954929
0.000627689
0.000676931
0.00223215
0.000912178
-0.00318828
-0.00461972
-0.00239929
-0.00157693
6.02061e-05
-4.55133e-05
-0.00091407
-0.00217988
0.000403531
0.00185497
-0.0016237
-0.000537639
0.000714963
-9.74954e-05
-0.0008023
0.00156921
0.00493239
0.00605023
0.00301418
-0.000934387
0.000226446
0.00103022
0.000850187
0.000808484
0.000982414
0.00148795
-0.000619158
0.000196814
0.00242023
0.00184093
-0.00161794
-0.00415436
-0.00341695
-0.00313622
-0.0028413
4.34274e-05
0.00145162
0.000890741
0.00229876
0.00097735
-0.00285804
-0.00348451
-0.00192829
-0.00159498
0.00030642
0.000644734
-0.0012829
-0.00341241
0.000394939
0.00152556
-0.00273064
-0.00149602
0.00162424
-0.000147361
-5.17684e-05
0.00173204
0.00316834
0.00481477
0.00211293
-0.00149005
-0.000184996
0.000586585
0.000410336
0.00153005
0.00107607
0.00108428
0.000387755
0.000851212
0.00159858
0.00161632
-0.0016871
-0.00464232
-0.00413978
-0.00407482
-0.00336842
8.0344e-05
0.00105537
0.00112709
0.00176851
0.00024291
-0.00282667
-0.00335203
-0.00216971
-0.00123149
0.00120347
0.0010728
-0.00101079
-0.000989677
0.00133241
-0.00117692
-0.0038893
-0.0024003
0.000317362
-0.00100084
0.000735045
0.00118524
0.00191905
0.00478366
0.0026947
-0.00095789
-0.000110979
1.65605e-05
0.000848281
0.00212966
0.000874864
0.000202215
0.00074612
0.000703883
0.00124388
0.0018472
-0.00149583
-0.00420044
-0.00393228
-0.00449586
-0.00268526
0.000522202
-0.000373593
0.000304699
0.00163582
0.000738624
-0.00213325
-0.00378937
-0.00207111
-0.000668188
0.000956815
0.00101297
-0.000826518
-0.0017317
0.00030883
-0.00148825
-0.00321025
-0.00276119
-0.0014258
-0.0019457
0.00160492
-0.000558208
0.00206317
0.00629321
0.00459775
0.000336938
-0.000332437
-0.000431758
0.00202166
0.00235976
-0.000946883
-0.000186625
0.00116919
0.000744939
0.00144622
0.00209563
-0.00104223
-0.00328011
-0.00328207
-0.00385587
-0.00245654
-0.000546431
-0.00135193
6.24784e-05
0.00151982
0.00183985
-0.00155681
-0.00445406
-0.00269639
-0.00132746
0.000240318
0.000937608
-0.000762784
-0.00230512
-0.00117895
-0.00187892
-0.00337132
-0.00287421
-0.00248642
-0.000852638
0.000798324
-0.00161883
0.00274965
0.00761327
0.00455932
0.000776561
0.000528555
0.000287933
0.00173791
0.00139092
-0.000703332
0.000941835
0.00185264
0.00053028
0.00146207
0.00200506
-0.000938213
-0.00269086
-0.00282288
-0.00362063
-0.0023586
-0.000436963
-0.000997394
-1.09608e-05
0.00148012
0.00124945
-0.00211605
-0.00450482
-0.00287718
-0.00186922
-0.000923813
0.000570353
-0.000501611
-0.00176099
-0.0019607
-0.00215532
-0.00395637
-0.00414471
-0.00345552
-0.000291508
-0.00035273
-0.00284723
0.00160252
0.00720702
0.00445982
0.00124902
0.000858458
0.00146266
0.00235566
0.00192319
0.000633226
0.0019826
0.00208505
0.000205659
0.00158564
0.00172018
-0.000991787
-0.00216362
-0.00262954
-0.00373819
-0.00242238
-0.000154295
-0.000286458
0.000108795
0.00166579
0.00122102
-0.00230184
-0.00402281
-0.00249184
-0.00232485
-0.00182976
0.000562661
0.000197832
-0.00341911
-0.0031267
-0.00143007
-0.00432906
-0.0060848
-0.00463828
-0.0013977
-0.00207687
-0.00569717
0.000469706
0.00758323
0.00466331
0.00127944
0.00121903
0.00262768
0.00222929
0.00177425
0.00121547
0.00243404
0.00217148
0.000171843
0.0017584
0.00149023
-0.000934693
-0.00156892
-0.00199316
-0.00365705
-0.00240052
-0.000263564
7.95197e-05
0.000446821
0.0017424
0.000996757
-0.00242525
-0.00386796
-0.00184912
-0.00286544
-0.00267513
0.000899063
0.00114007
-0.00605516
-0.00460322
0.000163345
-0.00445643
-0.00798791
-0.00603346
-0.00324346
-0.00335714
-0.00744159
0.00124299
0.00885534
0.00568533
0.00193503
0.00110109
0.0021199
0.00171905
0.00229405
0.00210874
0.00266649
0.0018921
0.000368654
0.00209198
0.00134358
-0.000681624
-0.000999799
-0.00123316
-0.00313103
-0.00215874
-8.33761e-05
0.000536685
0.00111173
0.00202764
0.000467467
-0.00292204
-0.00400599
-0.00135413
-0.00337111
-0.00360543
0.00129624
0.00136274
-0.00863997
-0.00530989
0.00191954
-0.00492339
-0.0096668
-0.00704452
-0.00377211
-0.00410625
-0.00746932
0.00333904
0.0108169
0.00693059
0.0031774
0.00102434
0.00126548
0.00136584
0.00302023
0.0027001
0.00239228
0.0013118
0.000931975
0.00253214
0.00126648
-0.000471107
-0.000511881
-0.000586143
-0.0026455
-0.00205237
4.09999e-05
0.000944689
0.00174019
0.00223657
-0.000291896
-0.00360706
-0.00410079
-0.00109338
-0.00365517
-0.0048277
0.00149121
6.30627e-05
-0.00995106
-0.00213706
0.00305521
-0.00576289
-0.011245
-0.00784425
-0.00329619
-0.00405434
-0.00586837
0.00580115
0.0124461
0.00792308
0.00412115
0.000672737
0.000821671
0.00183684
0.00362846
0.00301979
0.00210154
0.000843467
0.00135818
0.0027872
0.0012933
-0.000309687
-6.57709e-05
-0.000325658
-0.00265143
-0.00207776
0.00024426
0.0013199
0.00227018
0.0022861
-0.0011936
-0.00440142
-0.00409712
-0.00112816
-0.00402301
-0.00652934
0.00126169
-0.00249869
-0.00975803
-0.000205424
0.00364894
-0.00674167
-0.012821
-0.00887153
-0.00257619
-0.00353074
-0.00309956
0.00808675
0.0135583
0.00854092
0.00425944
0.000538709
0.00108392
0.002583
0.00410871
0.00322934
0.00170183
0.000426411
0.00158677
0.00294842
0.00141985
-0.000273512
0.000245075
-0.000384071
-0.00263566
-0.00185509
0.000409943
0.00171041
0.00297173
0.00239283
-0.00201919
-0.0052201
-0.00426372
-0.00127457
-0.00476862
-0.00844108
0.000666598
-0.00456444
-0.00801542
0.00244546
0.00395404
-0.00734354
-0.0134892
-0.00875078
-0.00175481
-0.00232232
-0.000633552
0.00967749
0.0142869
0.0089602
0.00418142
0.000521832
0.00136419
0.00323641
0.00452173
0.00345012
0.00135232
0.000159883
0.00167564
0.00301518
0.00147932
-0.000245528
0.00062348
-0.000212331
-0.00219834
-0.0013219
0.000449718
0.00197261
0.00385997
0.00281292
-0.00245028
-0.00579888
-0.00453553
-0.00113489
-0.00535818
-0.00974459
-0.000116813
-0.00519683
-0.00521322
0.00565658
0.00457203
-0.0075756
-0.0133428
-0.00806869
-0.00114459
-0.00124836
0.0011566
0.0104776
0.014159
0.00894188
0.0040124
0.000549122
0.00162867
0.00372147
0.00489887
0.00367057
0.00112274
1.20146e-05
0.00163784
0.00304899
0.00148479
-0.000154296
0.000908006
0.000188338
-0.00142853
-0.000717647
0.00038343
0.0020689
0.0046841
0.00332128
-0.00262296
-0.00610516
-0.00471597
-0.000603441
-0.00601388
-0.0103139
-0.00146161
-0.00425328
-0.00225746
0.00892591
0.00539328
-0.00719216
-0.0127892
-0.00743731
-0.00077415
-0.00056282
0.00176967
0.0102911
0.0135686
0.0087911
0.00391639
0.000626613
0.00187942
0.00408112
0.00525957
0.00385431
0.000994115
-8.98285e-05
0.00163434
0.00308632
0.00147939
-6.26717e-05
0.00112194
0.000767207
-0.000758618
-0.000359487
0.000226278
0.00190447
0.00524778
0.00380982
-0.00265552
-0.00653955
-0.0047485
0.000121338
-0.00661473
-0.0123081
-0.00309094
-0.00200496
0.000790342
0.0114625
0.00605953
-0.00653579
-0.0122165
-0.00705317
-0.000628209
-0.000226276
0.00202778
0.0100281
0.0130771
0.00869986
0.00389022
0.000714531
0.00202714
0.00437798
0.00554468
0.00397335
0.000953696
-0.000115021
0.00169249
0.00310593
0.00144286
-2.65953e-06
0.00131072
0.00130447
-0.000459492
-0.000366558
-0.000123221
0.00169985
0.00567541
0.0043154
-0.00253032
-0.00702247
-0.00461925
0.000393131
-0.00687068
-0.0122445
-0.00290836
0.000811442
0.00345825
0.0128454
0.00625152
-0.00625736
-0.0119352
-0.00688998
-0.000635836
8.95096e-06
0.00222727
0.00983564
0.0127218
0.00863868
0.00388309
0.000779731
0.00211623
0.00459571
0.00571295
0.0040654
0.00100574
-4.71169e-05
0.00175846
0.00309048
0.0013739
4.36952e-05
0.0014515
0.00167064
-0.000789219
-0.000629672
-0.000416838
0.00169334
0.00599492
0.00476981
-0.00228369
-0.00720097
-0.00468475
-0.000231689
-0.00664254
-0.0109389
-0.000705549
0.00297476
0.00521455
0.0134547
0.00612558
-0.00613477
-0.0117802
-0.00681315
-0.000655551
0.0001417
0.00241061
0.00974907
0.0124991
0.00858021
0.00387258
0.000820919
0.00217508
0.00472197
0.00578776
0.00412669
0.00110435
1.29602e-05
0.00179504
0.00304134
0.00132308
7.00303e-05
0.00153407
0.00178078
-0.000889308
-0.000803288
-0.000498634
0.0018192
0.00633565
0.00510633
-0.00219296
-0.00724968
-0.00473229
-0.000522513
-0.00638562
-0.0101821
0.000905363
0.00407573
0.0060407
0.0135268
0.00599054
-0.00604906
-0.0116772
-0.00676835
-0.000680242
0.00026449
0.00258698
0.00972636
0.0123468
0.0084923
0.00385392
0.000858449
0.0022086
0.00476061
0.00582228
0.00418846
0.00117126
5.05116e-05
0.00179697
0.00298669
0.00128224
5.5679e-05
0.00155284
0.00171596
-0.000951174
-0.000809268
-0.000381798
0.00199835
0.00649631
0.00518535
-0.00219076
-0.00718299
-0.00471242
-0.000659232
-0.00627122
-0.0099123
0.00140292
0.00444377
0.00649764
0.0134282
0.00586352
-0.00599471
-0.0116066
-0.00672523
-0.000683842
0.000373569
0.00273296
0.00970585
0.0122262
0.00840932
0.00382907
0.00088171
0.00219794
0.00474404
0.00585747
0.00426161
0.00118908
4.52692e-05
0.00178163
0.00295203
0.00125468
3.40101e-05
0.00152919
0.0016784
-0.000924308
-0.000742158
-0.000257663
0.00208075
0.00647519
0.00512742
-0.00219743
-0.00709064
-0.00463422
-0.000693858
-0.00626126
-0.00979071
0.00148398
0.00463216
0.00674749
0.0133148
0.00575911
-0.00598448
-0.0115445
-0.00668314
-0.000672162
0.000454381
0.00282684
0.00968003
0.0121457
0.00836082
0.00381054
0.000873551
0.00216909
0.00473256
0.00587435
0.00428257
0.00119857
4.95681e-05
0.00178497
0.00294028
0.00124536
2.47751e-05
0.00152696
0.00167389
-0.000882912
-0.000681401
-0.000190874
0.00207667
0.00641062
0.00504944
-0.00221152
-0.00704777
-0.00458358
-0.000704126
-0.00624767
-0.00968056
0.00149648
0.00470381
0.00685632
0.0132174
0.00568109
-0.00599592
-0.0115074
-0.00664874
-0.000658127
0.00049728
0.00287287
0.00967491
0.0121123
0.00833927
0.00379674
0.000875509
0.00216522
0.00471507
0.00586172
0.00428684
0.00120963
4.83569e-05
0.00179443
0.00294328
0.00125019
3.3185e-05
0.00153553
0.00166673
-0.00085538
-0.0006563
-0.00017956
0.00208017
0.00638859
0.00501293
-0.00223961
-0.00705667
-0.00457367
-0.000712296
-0.00623323
-0.00959792
0.00151307
0.00472838
0.00690485
0.0131722
0.00045701
0.000896458
0.00137013
0.00065218
0.000860895
0.00151066
0.0011829
0.0014803
0.00222743
0.00213587
0.00210501
0.00228166
0.00224662
0.00214471
0.00221231
0.00198931
0.00146209
0.00140863
0.00147502
0.0013487
0.000474271
-0.000388592
0.000351628
0.000214698
-0.000544867
5.87725e-05
0.000202652
0.000344941
0.000570827
9.77796e-05
0.000666136
0.00104234
0.000219849
0.000599515
0.00122181
0.000611326
0.000627823
0.000855758
0.000675033
0.000726412
0.000142543
0.00122471
0.00123531
0.000350992
0.00110178
0.00133683
0.0012593
0.00171896
0.00238017
0.00262195
0.00223012
0.00245992
0.0025424
0.00191899
0.00201606
0.00227239
0.00128637
0.00125868
0.00171504
0.00103342
0.000363289
-0.000176283
1.50121e-05
-5.50349e-05
-0.000394591
-0.000129657
-0.000115327
0.000379233
0.000447588
0.000112397
0.000628084
0.000795434
0.000254774
0.000383801
0.00093082
0.000790129
0.000678482
0.00047089
0.000865693
0.000876561
8.14573e-05
0.00138326
0.000927049
0.000316395
0.00120405
0.000929432
0.0014497
0.00193793
0.00250693
0.00301456
0.00239274
0.0025831
0.00279134
0.0017684
0.00176792
0.00235505
0.00137559
0.00131619
0.00181738
0.000772904
0.000186442
-0.000133922
-0.000519182
-0.000474048
-0.00027961
-0.000381151
-0.000281104
0.000357965
0.000189937
0.000244393
0.000436633
0.000483176
0.00043321
8.26925e-05
0.000606516
0.00102158
0.000684556
0.000195945
0.00101137
0.000911958
0.0002631
0.00133433
0.00060502
0.00046386
0.000832985
0.000410894
0.00156276
0.00194032
0.00278642
0.00363604
0.00270306
0.00279142
0.00292446
0.00172449
0.00163804
0.00223145
0.00148675
0.00141085
0.00176287
0.000635656
2.64628e-05
-0.000235001
-0.00108266
-0.00102231
-0.000469191
-0.000791374
-0.000460954
0.000236265
0.00012052
0.000466139
0.000129605
0.000176762
0.000432304
-0.000298428
0.000435902
0.00127241
0.000611004
0.00014172
0.0011185
0.000855063
0.0006201
0.00111571
0.000300532
0.000506796
0.000359464
4.87436e-05
0.00160724
0.00187674
0.00319533
0.00422049
0.00309261
0.00310898
0.00287328
0.00168233
0.00153312
0.00216211
0.00185579
0.00162584
0.00159818
0.000548111
-0.000215859
-0.000588877
-0.00163276
-0.0014141
-0.000736745
-0.00103842
-0.000555181
8.89188e-05
7.65068e-05
0.000448024
-0.00011455
2.95289e-05
0.000244446
-0.000720728
0.000393669
0.00137707
0.000471765
0.000344367
0.00110413
0.000780709
0.000829927
0.000884184
0.000312807
0.000592102
-0.000343538
-0.000371395
0.00119851
0.00185384
0.0040749
0.00494547
0.00354506
0.00315757
0.00244873
0.00154494
0.00119639
0.00171876
0.00225943
0.0020179
0.00176766
0.000629713
-0.000333183
-0.000746515
-0.00200492
-0.0019999
-0.001167
-0.00130287
-0.000725171
5.5081e-05
0.000154196
0.000330606
-0.000294642
-0.000192253
-0.000300822
-0.000975388
0.000586137
0.00138037
0.000427078
0.000823682
0.000967369
0.000609242
0.00113657
0.000648955
3.55735e-05
0.00070457
-0.000458024
-0.000412321
0.000856403
0.00207027
0.00499348
0.00535029
0.00328544
0.00246633
0.00194319
0.00135105
0.000747853
0.00119671
0.00226399
0.00187171
0.0014509
0.00050837
-0.00018125
-0.000493295
-0.00203069
-0.00207003
-0.0012194
-0.00137187
-0.000689356
9.4047e-05
1.02572e-05
0.000224594
-0.000148708
-0.00048343
-0.00115675
-0.00131202
0.000600393
0.0011969
0.000454298
0.000760427
0.00074263
0.000588675
0.00124887
0.000615566
0.000503834
0.000263164
-0.000926949
-0.000390991
0.000595274
0.00307966
0.00538507
0.00358558
0.0019212
0.00174415
0.00190031
0.00126455
-0.000283051
0.000659276
0.00226802
0.00212254
0.0016167
0.000515528
7.80142e-05
-0.00013126
-0.00215707
-0.00227521
-0.00145512
-0.00150364
-0.00065607
1.92452e-05
3.51961e-05
0.000612697
0.000156881
-0.000894535
-0.00175192
-0.00144724
0.000331528
0.000838491
0.000518913
0.000634108
0.000341224
0.000587228
0.0015217
-0.000395154
-0.00104966
-0.000652819
-0.000776926
0.00116699
0.00120964
0.0030534
0.00439349
0.00243084
0.0018942
0.00185334
0.00200004
0.00150949
-0.000276348
0.000413192
0.00251111
0.0025857
0.00120074
0.000572822
0.000896991
-4.66907e-05
-0.00270772
-0.0029258
-0.00233449
-0.00227813
-0.00105017
-0.000160848
6.86124e-05
0.00063193
0.00014623
-0.00175102
-0.00263652
-0.00123364
0.000506422
0.000868252
0.000745609
0.000563948
0.000422674
0.000988422
0.00153157
-0.000818992
-0.00153384
-2.11397e-05
-0.000296526
-0.00122029
0.000699354
0.00284553
0.00422456
0.00279161
0.0017747
0.00103912
0.00131594
0.00158334
0.000183323
0.000426846
0.00270353
0.00205354
0.000329757
0.00118322
0.00176303
-0.000991608
-0.00399054
-0.00338844
-0.00267731
-0.00299575
-0.00211769
-0.000821605
-0.000205909
0.000839182
0.000380801
-0.00234802
-0.00313948
-0.00148388
-0.00027857
0.000506525
0.000692439
0.000197363
0.000288146
0.0012514
0.00177636
-0.00156213
-0.00203333
-0.000230995
-0.000334197
-0.000676112
0.000838866
0.00325102
0.00474471
0.00246944
0.00026485
0.000600509
0.00167299
0.00169195
0.000200184
0.00115182
0.00342578
0.00135079
4.91401e-05
0.00139563
0.00149698
-0.00074568
-0.00337185
-0.0032774
-0.00331669
-0.0038965
-0.00141972
-0.00028235
-0.000232298
0.00135482
0.000400364
-0.00308246
-0.00303555
-0.00125105
-0.000387461
0.000591657
0.00156352
0.000205713
-0.000355082
0.00180496
0.00199989
-0.00225524
-0.00251167
-0.000345553
-5.22575e-05
-8.46991e-05
0.00142394
0.00339458
0.00489333
0.00148496
-0.00119064
0.00269018
0.00271465
0.00209604
0.000413737
0.00173576
0.00298778
0.000306878
-0.00076971
0.000480977
0.0018202
0.000776155
-0.00231291
-0.00341879
-0.00331985
-0.00248902
-0.000126644
-0.000844266
-0.000988517
0.00129931
0.000860248
-0.00282402
-0.00274779
-0.000838339
-0.000392787
0.00087819
0.00278613
0.000910993
-0.00062888
0.00254716
0.00135049
-0.00344185
-0.00343298
-0.000293916
0.000515909
0.000499005
0.00207521
0.00355118
0.00515694
0.00103871
-0.00142785
0.00314998
0.0037734
0.00232892
0.000562619
0.00226595
0.00259128
5.84358e-05
-0.00132012
0.000198613
0.00280035
0.00208332
-0.00141131
-0.00358618
-0.00374119
-0.00187318
-0.000785086
-0.00154984
-0.000917496
0.000934504
0.000508714
-0.00307674
-0.00299432
-0.00011072
0.000150435
5.01943e-05
0.000895003
-0.00062419
-0.0003246
0.00360489
-7.66028e-05
-0.00400472
-0.00415835
-0.000564992
0.000424487
0.000672489
0.0024398
0.00450208
0.00625838
0.000771618
-0.0011098
0.00427649
0.00493766
0.00232333
0.000576298
0.00179043
0.00175724
-0.000130453
-0.00123032
0.00100121
0.0038484
0.00173913
-0.00204038
-0.00364259
-0.00377805
-0.00218928
-0.00159108
-0.00150592
-0.000330674
0.00105052
0.000750834
-0.00226529
-0.00150545
0.000648903
-0.00129449
-0.00173391
0.000525096
-0.0014539
-0.000330937
0.0019661
-8.85086e-05
-0.00299969
-0.00391448
-0.000914451
0.000967361
0.00185376
0.00440817
0.00570576
0.00706707
0.00145455
-0.00116393
0.00363616
0.00492181
0.00233569
0.000539515
8.77335e-05
0.000370191
-0.000640863
-0.000898145
0.00109624
0.00296311
0.000812273
-0.0023153
-0.00326887
-0.00391242
-0.00323435
-0.00232232
-0.00131462
0.000427267
0.00214618
0.0030119
-0.00164896
0.000116289
0.00111251
-0.00306512
-0.00306594
-0.000510201
-0.00244442
-0.0027528
0.000385727
-0.000457392
-0.0029577
-0.00404027
-0.00101193
0.00152825
0.00281767
0.00471966
0.00696286
0.007596
0.00106458
-0.00231125
0.00277742
0.00385056
0.00127064
0.000300622
-0.000665387
4.50801e-05
-0.0010384
-0.00110192
0.00128918
0.00262642
0.00067963
-0.00237479
-0.00342253
-0.00382429
-0.00382668
-0.0031438
-0.00193138
-0.000944268
0.0016449
0.00275289
-0.00178427
0.000502371
0.000633623
-0.00441445
-0.00414332
-0.0012934
-0.00178833
-0.00226937
-0.000794166
-0.00159534
-0.00415772
-0.00476247
-0.00118323
0.00129814
0.00373843
0.00604606
0.00563975
0.00528516
0.000467033
-0.00289043
0.0014128
0.00281807
0.000788206
0.000714202
0.000544668
0.000765212
-0.000934729
-0.00110953
0.00162469
0.00254808
0.0007412
-0.00219884
-0.00377746
-0.00437918
-0.00478872
-0.00412931
-0.00215649
-0.00126795
0.00141247
0.00238116
-0.00138442
5.97429e-05
0.000120372
-0.00419308
-0.00389139
-0.000781226
6.07693e-06
-0.00194006
-0.0025254
-0.00268119
-0.00531415
-0.00559837
-0.00206667
0.00056052
0.00448589
0.00577873
0.00373329
0.0042906
-6.18275e-06
-0.00356081
0.00060701
0.002292
0.00099933
0.00175444
0.00181495
0.00174811
-0.000799663
-0.000545633
0.00213656
0.00274007
0.000629008
-0.00202623
-0.00383315
-0.00458025
-0.00473201
-0.0045296
-0.00177024
-0.000960634
0.00174068
0.00195084
-0.0010911
-0.000604577
-0.000196023
-0.00433904
-0.00447693
0.000851903
0.00283068
-0.00258428
-0.00415987
-0.00343591
-0.00585156
-0.00625601
-0.00365723
-0.000271489
0.00536339
0.00509776
0.00239693
0.00418198
-0.000155769
-0.00450539
-0.000163431
0.00209869
0.00234272
0.00356997
0.00372652
0.00230487
-0.00122122
-0.000115167
0.00262106
0.00309019
0.00065913
-0.00168736
-0.00300065
-0.00364561
-0.00390626
-0.00457495
-0.00102856
-0.00010548
0.00219707
0.00178245
-0.00110624
-0.000962009
-0.000338571
-0.00463911
-0.00471268
0.00279849
0.0054089
-0.00347396
-0.00497875
-0.00438851
-0.00707741
-0.00722847
-0.00509959
-0.000408425
0.00637883
0.00426824
0.00230312
0.00458568
-2.54214e-06
-0.00527232
-0.00068076
0.00265179
0.00398412
0.00458236
0.0045147
0.00233088
-0.0013351
0.000483951
0.00302186
0.00331877
0.00117544
-0.00118151
-0.00245124
-0.0028418
-0.00363421
-0.00475516
-0.000422331
0.000844716
0.00261393
0.00168315
-0.00142048
-0.000672026
9.45299e-05
-0.00474339
-0.00621095
0.00311598
0.00698641
-0.00442169
-0.00559218
-0.00552466
-0.00805795
-0.00812658
-0.00607213
-0.000259076
0.00663656
0.00377159
0.002175
0.004919
0.00025427
-0.0053181
-0.000920848
0.00331762
0.00503856
0.00487236
0.00480744
0.00216932
-0.0012241
0.00106406
0.00328443
0.00355282
0.00184449
-0.000555676
-0.00204046
-0.0024588
-0.00438242
-0.00492
0.000112114
0.00163083
0.00274643
0.0012991
-0.00200306
-0.000345138
0.000947629
-0.00451648
-0.00839956
0.00296013
0.00730452
-0.00585393
-0.00654581
-0.00683442
-0.00907201
-0.00894605
-0.00667338
0.000114505
0.00662068
0.00260435
0.00213409
0.0052524
0.000584908
-0.00510648
-0.000923632
0.00407363
0.00561113
0.00486989
0.00497173
0.00194372
-0.00112553
0.00143901
0.00349803
0.0036977
0.00209716
-2.82273e-05
-0.00156905
-0.00264687
-0.00544863
-0.00455391
0.000572707
0.00201006
0.00236458
0.000497286
-0.00288275
2.50602e-06
0.00191965
-0.00440229
-0.00984513
0.00289748
0.00662013
-0.00671404
-0.00792917
-0.00854732
-0.0101762
-0.00961399
-0.00657942
0.000902382
0.00586225
0.00131176
0.00247296
0.00548752
0.000879236
-0.004697
-0.00070218
0.00450489
0.00558288
0.0047059
0.00508561
0.00179874
-0.000993103
0.00163142
0.00361887
0.00354726
0.00183051
0.000258581
-0.00109473
-0.00265542
-0.00594034
-0.00387399
0.000996228
0.00219891
0.00172601
-0.000612526
-0.00365345
0.000350957
0.0027576
-0.00471129
-0.01041
0.00299951
0.00636911
-0.00666645
-0.00914713
-0.00948401
-0.0107917
-0.0096545
-0.0057817
0.00153666
0.00480747
0.00091497
0.00302924
0.00576019
0.00110714
-0.00415613
-0.000459581
0.004549
0.0050358
0.00468193
0.00525748
0.00186883
-0.00075068
0.00172747
0.00362851
0.00321615
0.00145287
0.000440731
-0.000886831
-0.00271028
-0.00594949
-0.00322979
0.00141229
0.00258854
0.00119433
-0.00220631
-0.00424114
0.000659859
0.00332766
-0.00528175
-0.0107675
0.00311834
0.0062068
-0.0055877
-0.00902766
-0.0090755
-0.0108796
-0.0092589
-0.00515279
0.00157931
0.00391328
0.000942064
0.00346169
0.00602231
0.00138249
-0.00368743
-0.000395997
0.00433863
0.00454853
0.00494377
0.00552007
0.00210989
-0.000523275
0.00184412
0.00371314
0.0029381
0.000972493
0.000394686
-0.000993002
-0.00284741
-0.00561601
-0.00268018
0.00178363
0.00283653
0.000771941
-0.00313189
-0.00456019
0.00111932
0.00376089
-0.00569651
-0.0114195
0.00281362
0.0057735
-0.0043444
-0.00768988
-0.00799032
-0.0104082
-0.0089222
-0.00504524
0.00130309
0.0034802
0.00104619
0.00380417
0.00624194
0.00165329
-0.00342162
-0.000436402
0.00407518
0.00426463
0.00533939
0.00581904
0.00234222
-0.000372736
0.00203383
0.0038589
0.00263512
0.000471218
0.000221465
-0.00103724
-0.00273942
-0.00517116
-0.00230354
0.00208699
0.00296228
0.000378984
-0.00360157
-0.00470105
0.00145365
0.00408538
-0.00579631
-0.0114658
0.00283829
0.00538408
-0.00349265
-0.00597154
-0.00704883
-0.00973049
-0.00846018
-0.00499597
0.00120251
0.00320584
0.00108095
0.00395615
0.00638475
0.00183545
-0.00331727
-0.000403784
0.00387041
0.00419726
0.00569558
0.00605552
0.00248377
-0.000258005
0.00226947
0.00397479
0.00232557
0.000128656
0.000219706
-0.000800989
-0.00240831
-0.0048211
-0.00208792
0.00234588
0.00305213
0.000103463
-0.00368087
-0.00490293
0.00150641
0.00433207
-0.00571899
-0.0105694
0.00325095
0.00470885
-0.00291761
-0.00453843
-0.00634627
-0.00920378
-0.00816272
-0.00490422
0.00121757
0.00298456
0.00102671
0.00400525
0.00646851
0.00194165
-0.00323438
-0.000313616
0.00372027
0.0042243
0.00594244
0.00619
0.00252586
-0.000111742
0.00247478
0.00401004
0.00214506
9.78721e-05
0.000389072
-0.000523443
-0.00220445
-0.00466286
-0.00190396
0.00257324
0.00311139
-1.02755e-05
-0.00381316
-0.00505168
0.00153782
0.00443103
-0.00550932
-0.00971926
0.00320938
0.0038813
-0.00227956
-0.00345149
-0.00586249
-0.0088404
-0.00797717
-0.00478357
0.00121014
0.00281134
0.0010276
0.00403398
0.00650295
0.00202197
-0.00308308
-0.000241131
0.00353272
0.00424561
0.00605994
0.00622435
0.00254994
2.51678e-05
0.00259056
0.00401114
0.00209247
0.000173307
0.000537035
-0.000404116
-0.00216379
-0.0045233
-0.00172428
0.00272544
0.00308217
-4.1014e-05
-0.00387462
-0.0050771
0.00146262
0.00439646
-0.00521802
-0.00912812
0.00288765
0.00357051
-0.00159198
-0.00273644
-0.0055944
-0.00861287
-0.0078618
-0.00473684
0.0012006
0.00272299
0.00102071
0.00404111
0.00650107
0.00205733
-0.00296522
-0.000200763
0.00340935
0.00422876
0.00609094
0.00621467
0.00254829
9.351e-05
0.00263695
0.00399229
0.00206065
0.00023911
0.000612001
-0.000401962
-0.00214096
-0.00433142
-0.00161247
0.00278508
0.00302453
-3.93264e-05
-0.00386496
-0.00506998
0.00138981
0.00432123
-0.0050274
-0.00892367
0.00293516
0.00356805
-0.00117518
-0.00235598
-0.00548659
-0.0084946
-0.00780276
-0.00471005
0.00120507
0.00267901
0.00101334
0.00405391
0.0064915
0.00207368
-0.00289047
-0.000176417
0.00334047
0.00420911
0.00609177
0.00618747
0.00252618
0.000115834
0.00265154
0.00397412
0.00204008
0.000267825
0.000610654
-0.000430124
-0.00212094
-0.00424594
-0.00158815
0.0028048
0.00298385
-4.64004e-05
-0.00384902
-0.00504542
0.00134498
0.00425246
-0.00493287
-0.00870749
0.00288605
0.00355364
-0.00101893
-0.00222331
-0.00547333
-0.00845107
-0.00777082
-0.00469694
0.00120789
0.00265983
0.00101107
0.0040674
0.00648477
0.00207553
-0.00285531