/*--------------------------------*- C++ -*----------------------------------*\
  =========                 |
  \\      /  F ield         | OpenFOAM: The Open Source CFD Toolbox
   \\    /   O peration     | Website:  https://openfoam.org
    \\  /    A nd           | Version:  10
     \\/     M anipulation  |
\*---------------------------------------------------------------------------*/
FoamFile
{
    format      ascii;
    class       surfaceScalarField;
    location    "50";
    object      phi;
}
// * * * * * * * * * * * * * * * * * * * * * * * * * * * * * * * * * * * * * //

dimensions      [0 3 -1 0 0 0 0];

internalField   nonuniform List<scalar> 
74080
(
0.00522008
1.18872e-05
-2.66281e-05
0.00521743
1.5797e-05
-2.65985e-05
0.00521808
1.10123e-05
-2.82102e-05
0.00521645
2.75922e-05
-2.85652e-05
0.00522167
2.16405e-05
-2.42841e-05
0.0052182
2.86769e-05
-1.87596e-05
0.00520603
3.34862e-05
-2.09393e-05
0.00519346
2.17749e-05
-1.23817e-05
0.0051752
1.87696e-05
-6.29588e-06
0.00516109
-1.84711e-06
-4.61267e-06
0.00515589
-2.04493e-05
-8.915e-07
0.00515251
-3.42016e-05
1.68736e-05
0.00515868
-4.9961e-05
1.64823e-05
0.00517105
-5.83263e-05
1.79366e-05
0.00518315
-5.46929e-05
3.51846e-05
0.00519806
-5.22146e-05
2.52599e-05
0.0052138
-5.51775e-05
3.21258e-05
0.00523274
-3.77715e-05
3.42756e-05
0.00525018
-3.58996e-05
2.51328e-05
0.00526617
-3.16257e-05
2.96897e-05
0.0052748
-1.33906e-05
1.94112e-05
0.00528113
-1.3603e-05
1.30796e-05
0.005286
-3.05728e-06
1.28003e-05
0.00527776
6.86438e-06
1.40557e-05
0.0052734
1.11334e-05
1.53333e-05
0.00526976
1.1485e-05
1.74175e-05
0.00525799
1.95143e-05
3.03849e-05
0.00525434
2.19204e-05
2.53501e-05
0.00524574
2.25171e-05
2.60317e-05
0.00523551
3.00534e-05
2.75559e-05
0.00523271
2.46665e-05
1.57351e-05
0.0052225
3.21202e-05
1.06924e-05
0.00521721
2.50159e-05
-4.7119e-06
0.00522012
1.98649e-05
-1.20737e-05
0.00522283
2.26598e-05
-1.97616e-05
0.00522742
1.76414e-05
-2.62e-05
0.00523645
1.30974e-05
-2.86943e-05
0.00523898
1.04755e-05
-3.01351e-05
0.00523446
1.36743e-05
-2.64987e-05
2.01823e-06
-3.12899e-05
0.00474654
2.23424e-05
-2.97201e-05
0.00474788
1.77273e-05
-3.13743e-05
0.00474421
1.49694e-05
-3.21824e-05
0.00474632
2.38445e-05
-2.9097e-05
0.00474929
1.74493e-05
-2.4215e-05
0.00474146
3.6254e-05
-1.33474e-05
0.00473075
4.52111e-05
-1.41275e-05
0.00471302
4.13995e-05
-7.13049e-06
0.00469304
3.9692e-05
2.43377e-06
0.00467947
1.06984e-05
1.52865e-06
0.00467251
-1.67981e-05
1.13287e-05
0.00467282
-4.22361e-05
2.89318e-05
0.00468181
-6.63619e-05
2.85628e-05
0.00469298
-7.62464e-05
3.69926e-05
0.00470812
-7.42986e-05
4.99492e-05
0.00472477
-7.16044e-05
3.883e-05
0.00473847
-7.32483e-05
4.74059e-05
0.00475959
-6.41375e-05
4.76334e-05
0.00477566
-6.05649e-05
3.71354e-05
0.00478931
-5.49872e-05
4.08734e-05
0.00480103
-3.37486e-05
2.53299e-05
0.00480516
-2.47649e-05
1.51446e-05
0.00480845
-1.02683e-05
1.13305e-05
0.00480239
1.10084e-05
1.06499e-05
0.00479878
1.54083e-05
1.33121e-05
0.00479318
1.79572e-05
1.66369e-05
0.00478291
3.1236e-05
3.31768e-05
0.0047787
2.85616e-05
2.9471e-05
0.00476831
3.50812e-05
2.78488e-05
0.00476091
4.1128e-05
3.05048e-05
0.00475485
3.69457e-05
1.63189e-05
0.00474582
4.84074e-05
9.23231e-06
0.00474154
3.60673e-05
-2.21437e-06
0.00474324
2.59609e-05
-9.38631e-06
0.00474581
2.70003e-05
-1.44738e-05
0.00475026
1.87636e-05
-2.12974e-05
0.00475722
1.28781e-05
-2.56438e-05
0.00475836
1.46207e-05
-2.77783e-05
0.00476035
1.65804e-05
-2.82389e-05
1.28703e-05
-3.32344e-05
0.00431612
3.13305e-05
-3.44666e-05
0.00431859
1.84612e-05
-3.75189e-05
0.00431269
1.93728e-05
-3.68814e-05
0.00431874
1.54538e-05
-3.25922e-05
0.00431913
1.54096e-05
-2.62481e-05
0.00431008
4.50053e-05
-1.27092e-05
0.00430083
5.64894e-05
-1.1901e-05
0.00427857
6.61642e-05
-4.14341e-06
0.00425967
6.17374e-05
8.12974e-06
0.00424569
2.52969e-05
1.00638e-05
0.00423309
-9.65737e-06
2.83831e-05
0.00423208
-5.11589e-05
4.12209e-05
0.00423742
-8.13632e-05
4.23075e-05
0.00424403
-8.93331e-05
5.47376e-05
0.00425851
-8.82362e-05
5.78676e-05
0.00427351
-8.25675e-05
4.95312e-05
0.00428708
-8.5715e-05
5.80617e-05
0.00431047
-9.17035e-05
5.81335e-05
0.00433008
-9.13585e-05
5.44244e-05
0.00434821
-8.73841e-05
5.66695e-05
0.00436595
-6.46356e-05
3.71746e-05
0.00437172
-4.15922e-05
2.19459e-05
0.00437272
-1.73575e-05
1.26691e-05
0.0043679
1.46079e-05
7.82882e-06
0.00436424
2.11718e-05
1.28187e-05
0.00435694
2.76874e-05
2.19077e-05
0.00435093
4.09608e-05
3.66515e-05
0.0043463
3.6469e-05
3.47403e-05
0.00433726
4.64355e-05
3.24338e-05
0.00433187
5.13561e-05
3.36458e-05
0.00432057
5.59692e-05
1.73826e-05
0.00431232
6.73282e-05
5.94327e-06
0.00430625
5.23157e-05
-4.27569e-06
0.004306
3.49387e-05
-1.08154e-05
0.00431095
2.94476e-05
-1.12496e-05
0.00431768
1.93029e-05
-1.76379e-05
0.00432363
1.56933e-05
-2.30732e-05
0.00432392
2.14046e-05
-2.64781e-05
0.00432893
1.89641e-05
-3.23222e-05
2.67044e-05
-3.632e-05
0.0039247
3.86493e-05
-4.80292e-05
0.00392737
2.08867e-05
-5.0933e-05
0.00392414
2.23568e-05
-4.55608e-05
0.0039311
5.13889e-06
-3.74241e-05
0.00392691
1.40334e-05
-2.58554e-05
0.00391912
4.93985e-05
-9.26932e-06
0.00390958
6.63302e-05
-6.22248e-06
0.00388636
9.31158e-05
3.04957e-06
0.00387159
8.49092e-05
1.71778e-05
0.00385581
4.63783e-05
2.42493e-05
0.00383734
4.22162e-06
4.636e-05
0.00383069
-5.79074e-05
5.18012e-05
0.00382586
-8.91754e-05
5.12384e-05
0.00382404
-8.97238e-05
5.55719e-05
0.00383116
-8.26242e-05
4.20722e-05
0.00383837
-6.9578e-05
3.55629e-05
0.00384886
-8.296e-05
4.49346e-05
0.00386852
-0.000113783
5.19554e-05
0.00388928
-0.000128911
6.07321e-05
0.00391387
-0.000134433
6.02162e-05
0.00394082
-0.000112052
3.53104e-05
0.003957
-7.3629e-05
1.57068e-05
0.00396398
-3.32697e-05
2.79443e-06
0.00396604
1.15974e-05
-1.13599e-06
0.00396499
2.46577e-05
1.49001e-05
0.00395854
3.8154e-05
3.38159e-05
0.00395551
5.07065e-05
4.79613e-05
0.00394988
4.652e-05
4.98802e-05
0.0039439
5.39781e-05
4.55039e-05
0.00393879
6.08476e-05
3.99227e-05
0.00392488
7.79153e-05
2.12858e-05
0.00391678
8.70661e-05
7.68842e-06
0.00390848
6.92572e-05
-1.94986e-06
0.0039082
3.98107e-05
-1.08087e-05
0.00391644
2.74805e-05
-1.21686e-05
0.00392447
2.18621e-05
-1.72541e-05
0.00392837
2.39201e-05
-1.798e-05
0.00392937
2.93047e-05
-2.20335e-05
0.00393432
2.14583e-05
-3.54901e-05
3.90145e-05
-4.3642e-05
0.00356874
4.86103e-05
-6.27144e-05
0.00357309
2.30103e-05
-5.18141e-05
0.00357391
1.95924e-05
-4.0282e-05
0.00357766
-5.30997e-06
-3.74581e-05
0.00356808
1.24315e-05
-3.20896e-05
0.00355885
4.67955e-05
-1.76379e-05
0.00354611
7.23099e-05
-1.1897e-05
0.00352935
0.000117681
5.90389e-06
0.00352616
0.000113684
3.29667e-05
0.00351653
7.97457e-05
5.553e-05
0.00350182
1.97409e-05
8.28763e-05
0.00348892
-6.88539e-05
7.14127e-05
0.00347209
-9.36382e-05
4.56888e-05
0.00346097
-7.53378e-05
2.1412e-05
0.00345769
-4.91825e-05
-1.28009e-05
0.00345623
-2.74613e-05
-2.11126e-05
0.0034519
-5.7163e-05
-1.16248e-05
0.0034424
-0.000115076
6.1584e-06
0.00343743
-0.000156415
2.7139e-05
0.00344968
-0.000184758
2.04377e-05
0.00347982
-0.000176293
-9.34902e-06
0.00351329
-0.000131832
-2.81714e-05
0.00353969
-7.06491e-05
-3.86444e-05
0.00356065
-5.08682e-06
-3.21446e-05
0.00357447
2.44054e-05
2.37474e-06
0.00358266
4.81296e-05
3.25406e-05
0.00359154
6.14194e-05
4.97615e-05
0.00359102
5.75494e-05
5.6151e-05
0.00358779
5.89082e-05
5.34973e-05
0.00358129
7.00999e-05
4.62011e-05
0.00356723
0.000101651
2.4709e-05
0.00355616
0.000116031
9.1709e-07
0.00354352
9.63593e-05
-1.88373e-05
0.00354535
4.57536e-05
-2.5528e-05
0.00355916
2.38768e-05
-1.27876e-05
0.00356809
2.89118e-05
1.62659e-06
0.00356921
3.77929e-05
8.75125e-06
0.00356858
4.14995e-05
-1.2985e-05
0.00356963
3.33028e-05
-4.93848e-05
5.78037e-05
-6.51798e-05
0.0032373
6.4909e-05
-8.93065e-05
0.00324555
3.39991e-05
-6.36858e-05
0.00325938
1.48972e-05
-3.70381e-05
0.00326467
-2.29508e-05
-2.98046e-05
0.00325084
-8.77166e-06
-2.76076e-05
0.00323171
2.53925e-05
-2.49673e-05
0.00320395
7.80692e-05
-2.08279e-05
0.00319326
0.00015724
8.3773e-06
0.00320967
0.000170779
5.06236e-05
0.00321891
0.000136463
9.06215e-05
0.00321308
3.83287e-05
0.000129067
0.0031983
-9.99306e-05
0.000118085
0.00318842
-0.000132448
7.27999e-05
0.00319113
-8.83736e-05
9.6868e-06
0.00319427
-2.13166e-05
-5.86628e-05
0.00318514
2.42164e-05
-8.20514e-05
0.00313971
-1.29668e-05
-6.8968e-05
0.00305821
-9.03083e-05
-3.44911e-05
0.00297816
-0.000158028
-1.10574e-05
0.00293008
-0.000217021
-3.12073e-05
0.00293558
-0.000241379
-7.78679e-05
0.00298287
-0.000211097
-0.000109578
0.00304274
-0.00013549
-0.000119583
0.00310385
-4.71429e-05
-9.0798e-05
0.00315546
4.34355e-06
-2.69067e-05
0.00319644
4.85764e-05
2.17687e-05
0.00322439
7.27437e-05
5.79939e-05
0.00323323
6.61733e-05
7.45462e-05
0.00324159
5.41312e-05
6.49479e-05
0.00324761
7.38045e-05
4.41605e-05
0.00324556
0.000126342
1.57107e-05
0.00323367
0.000148212
-3.54373e-06
0.00321481
0.000108873
-2.06497e-05
0.00321268
2.54521e-05
-2.46907e-05
0.00322424
1.01443e-05
-4.78661e-06
0.00323295
4.98897e-05
2.55855e-05
0.00323974
6.37474e-05
4.47668e-05
0.0032429
5.31806e-05
9.66117e-06
0.00323973
4.14476e-05
-5.4859e-05
7.09442e-05
-8.84615e-05
0.00290764
8.09117e-05
-7.02965e-05
0.00292996
3.07835e-05
-1.9997e-05
0.0029682
-1.01421e-05
-1.02854e-05
0.00297702
-5.35351e-05
-4.6098e-05
0.00294614
-4.67857e-05
-6.01956e-05
0.00289832
-1.22177e-05
-3.58686e-05
0.00285909
8.29873e-05
3.06005e-06
0.00287234
0.000200099
2.72143e-05
0.00291397
0.000222285
3.59048e-05
0.00292209
0.000180941
6.21999e-05
0.00288902
5.38203e-05
9.69741e-05
0.00286003
-0.000117291
9.22132e-05
0.00288801
-0.000184506
7.8426e-05
0.00295342
-0.000153317
5.45579e-05
0.00299247
-4.74118e-05
-4.4472e-06
0.0029686
5.00064e-05
-6.39867e-05
0.00287499
3.28947e-05
-8.61372e-05
0.0027525
-5.26096e-05
-5.19559e-05
0.00264644
-0.000146903
-3.40532e-06
0.00257322
-0.000237445
-9.56743e-07
0.00255193
-0.000303666
-3.85283e-05
0.0025748
-0.000295329
-8.38751e-05
0.00262507
-0.000207621
-0.000120162
0.00270109
-9.70005e-05
-0.000112557
0.00277901
-2.18355e-05
-5.02662e-05
0.00284487
4.37067e-05
2.53469e-05
0.00288355
8.37179e-05
8.7025e-05
0.00289616
7.18762e-05
9.77006e-05
0.00291134
4.22761e-05
7.51121e-05
0.00293278
6.38506e-05
5.55452e-05
0.0029492
0.000135132
1.93453e-05
0.00293672
0.000165485
-2.29247e-05
0.00290278
0.000100155
-4.64191e-05
0.0028854
-5.19029e-06
-1.0145e-05
0.00288637
2.81184e-05
4.6931e-05
0.00288888
0.000119481
7.7333e-05
0.00290146
9.82749e-05
8.33354e-05
0.00291804
3.25993e-05
2.41268e-05
0.00292118
2.12983e-05
-5.91538e-05
7.78068e-05
-9.07481e-05
0.00260214
0.000110467
-2.46284e-05
0.0026188
1.79776e-05
-2.31138e-05
0.00260326
-3.02839e-05
-8.94427e-05
0.00254246
-6.81404e-05
-0.000139442
0.00249161
-9.39369e-05
-9.7018e-05
0.00249214
-7.58326e-05
-2.3401e-05
0.00254115
4.38835e-05
3.6603e-05
0.00261014
0.000196641
3.43907e-05
0.00264521
0.000237459
1.82491e-05
0.00261591
0.000205903
5.23988e-05
0.00255116
9.11264e-05
6.29167e-05
0.00250852
-8.28019e-05
4.12534e-05
0.00253293
-0.000191674
3.89576e-05
0.00259743
-0.000215367
3.7281e-05
0.00265935
-0.000120848
9.59034e-06
0.00267774
1.73946e-05
-3.32808e-05
0.00261901
5.76835e-05
-7.33086e-05
0.00252726
-1.1134e-05
-8.01093e-05
0.00245075
-0.000115748
-6.13183e-05
0.00240811
-0.000222387
-5.52457e-05
0.00240215
-0.000324605
-3.87551e-05
0.00241248
-0.000352844
5.6072e-07
0.00243436
-0.000276736
3.42415e-05
0.00246751
-0.000162137
6.99745e-05
0.00249568
-6.67447e-05
0.000117778
0.00251771
2.73355e-05
0.000155036
0.00252496
8.86973e-05
0.000157714
0.00252311
8.26026e-05
0.000113608
0.00254747
6.3484e-05
6.93088e-05
0.00261273
9.88066e-05
3.65444e-05
0.00268936
0.000153579
-2.23139e-05
0.00270431
0.000144512
-8.29565e-05
0.00265799
5.48311e-05
-9.84656e-05
0.00262056
-8.73109e-06
-4.56985e-05
0.00260831
0.000111261
3.23635e-05
0.00259385
0.000202416
0.000111177
0.00258892
6.89807e-05
0.000145918
0.00259895
-5.59585e-05
5.27789e-05
0.00260176
-3.3438e-06
-5.06604e-05
0.000117998
-5.30574e-05
0.00233266
0.000145032
-1.88407e-05
0.00227274
3.76813e-05
-6.72927e-05
0.00219349
-1.32454e-05
-0.000143176
0.00211114
-7.02375e-05
-0.000166352
0.00209385
-0.000146903
-0.000145577
0.00217414
-0.00014264
-9.58488e-05
0.00229101
2.85882e-05
-7.18581e-06
0.00237945
0.000215331
1.44491e-05
0.00240962
0.000232332
6.01112e-05
0.00238627
0.000205613
0.000150579
0.00232073
0.000149944
0.000150504
0.00225441
4.87269e-06
7.28735e-05
0.00222676
-0.000138184
-1.42645e-05
0.00224663
-0.000213285
-8.10396e-05
0.00233162
-0.000147664
-8.68468e-05
0.00238775
1.01526e-05
-4.70682e-05
0.00231522
9.12495e-05
-3.97525e-05
0.00219064
2.90064e-05
-8.40776e-05
0.00211728
-7.22653e-05
-0.000133837
0.00211723
-0.000176586
-0.000138903
0.00215133
-0.000298776
-6.06336e-05
0.00217981
-0.000364334
3.83113e-05
0.00221569
-0.000323676
8.63093e-05
0.00226658
-0.00023026
0.000148949
0.00229967
-0.000139061
0.00025101
0.00230269
-4.37666e-05
0.000314704
0.00227017
4.51009e-05
0.000272462
0.0022415
7.69377e-05
0.000166985
0.00227573
9.22292e-05
8.2159e-05
0.00237473
0.000126279
-2.81067e-06
0.00245943
0.000129749
-7.38883e-05
0.0024501
7.86797e-05
-8.27669e-05
0.00239847
4.5374e-06
-6.21529e-05
0.00239679
1.8913e-05
-3.31351e-05
0.00241821
0.000206557
5.11839e-05
0.00238677
0.000255743
0.000182635
0.00233206
1.8319e-05
0.00015981
0.00232753
-0.000128773
-1.77777e-05
0.00235689
-5.71487e-06
-8.80319e-05
0.000163363
-3.72335e-05
0.00208457
0.000137676
-9.58416e-06
0.00202781
4.37718e-05
-0.000168191
0.00198201
9.34469e-06
-0.000241789
0.00193362
-6.84494e-05
-0.000170462
0.00193643
-0.000185886
-9.90718e-05
0.00200579
-0.000164197
-3.67822e-05
0.00206834
6.32562e-05
-2.55826e-05
0.00209553
0.000239478
-2.24974e-05
0.00213252
0.000185374
0.000129894
0.00217276
0.000142903
0.000298333
0.00213056
0.000163164
0.000291013
0.00202422
6.28801e-05
9.21666e-05
0.00196694
-0.000117973
-0.000161718
0.00201891
-0.000245183
-0.000256875
0.00212774
-0.000189303
-0.000130144
0.00212704
1.99436e-05
4.98288e-06
0.00199847
0.000106471
-3.94673e-05
0.00190454
2.66524e-05
-0.000166907
0.00190282
-5.38323e-05
-0.000144362
0.00190507
-0.000139843
-9.67977e-06
0.00186451
-0.000304844
5.35595e-05
0.00184706
-0.000405655
-2.67474e-06
0.00189846
-0.000358295
-1.41636e-05
0.00194528
-0.000232874
0.000123544
0.00193638
-0.000142576
0.000265906
0.00192124
-7.21282e-05
0.000294817
0.001929
3.059e-05
0.0002104
0.00197257
0.000104046
0.000101684
0.00205501
0.000124347
5.43644e-05
0.00214292
0.000118969
9.06055e-06
0.00217211
7.01062e-05
-1.96319e-05
0.00214188
2.76654e-05
-2.44362e-05
0.00214567
-3.68937e-07
-2.57311e-05
0.00220674
5.71586e-05
1.32783e-05
0.00223589
0.000262273
0.000146231
0.00217212
0.000275716
0.000235333
0.00209743
-2.58082e-05
8.52652e-05
0.0021029
-0.000183043
-8.83784e-05
0.00214174
-2.24523e-05
-6.72295e-05
0.000162566
1.73636e-05
0.00188514
9.09568e-05
-1.77572e-06
0.00186929
4.94417e-06
-0.00025037
0.00186955
8.68533e-06
-0.000251724
0.00183428
-5.15839e-05
-9.65639e-05
0.00181029
-0.000170196
-5.55736e-05
0.00184023
-0.000120523
-9.72049e-05
0.00184756
0.000150046
-0.000130034
0.00180409
0.000309805
2.76083e-06
0.00180661
0.000148809
0.000237399
0.0018692
3.17121e-05
0.000333063
0.00189466
7.25903e-05
0.000263214
0.00186356
1.25996e-05
5.06564e-05
0.0018277
-0.000125932
-0.000184727
0.00183663
-0.000243039
-0.000208103
0.00187832
-0.000199559
-6.65182e-05
0.00185133
-8.56601e-06
2.31858e-05
0.00176477
1.38527e-05
-2.84149e-05
0.00172727
-5.10056e-05
-6.74281e-05
0.00174131
-1.72391e-05
3.09944e-05
0.00172984
-8.43244e-05
9.99021e-05
0.00169532
-0.000346859
1.8762e-06
0.00168218
-0.000477505
-0.000174407
0.00169065
-0.000357826
-0.000177557
0.00166566
-0.000178656
1.02923e-05
0.00162324
-9.48053e-05
0.000141791
0.00163638
-2.48084e-05
0.000171441
0.0017094
0.000105227
0.000114015
0.00178955
0.000168617
5.10944e-05
0.00183978
0.000130294
4.50098e-05
0.00187426
6.64176e-05
2.32519e-05
0.00189226
-3.04734e-06
5.78577e-06
0.00189801
1.8577e-06
1.06095e-06
0.00192454
4.12901e-05
-1.70105e-06
0.00197191
0.000118407
5.41639e-05
0.00199306
0.000278527
0.000186922
0.00194385
0.000210231
0.000210535
0.00189515
-0.000109436
4.91982e-06
0.00191645
-0.000219791
-0.000132555
0.00194471
-4.17256e-05
-2.67236e-05
0.000136583
0.000105248
0.00166168
3.00023e-05
-0.000121353
0.00167898
-3.16411e-05
-0.00027237
0.00169798
4.3858e-05
-0.000199605
0.00164321
1.21475e-05
-8.31188e-05
0.0016133
-0.000134754
-5.97173e-05
0.0016627
-6.34262e-05
-0.000115045
0.00165881
0.000294835
-0.000133286
0.00158514
0.000462082
3.8097e-05
0.001572
0.000176692
0.000226154
0.0016352
-6.72749e-05
0.000264652
0.00169613
-6.65675e-05
0.000174574
0.00173595
-7.57844e-05
-7.0232e-05
0.00172442
-8.49871e-05
-0.000225742
0.00165605
-0.000139705
-9.48247e-05
0.00159546
-0.000155053
3.53127e-05
0.00154658
-6.48544e-05
1.10183e-05
0.00149181
-0.000116397
7.43828e-06
0.00147748
-0.000152019
9.15334e-05
0.00150301
-4.40081e-05
0.000138698
0.00151363
-0.000104362
6.56429e-05
0.00151006
-0.000378104
-6.78296e-05
0.00152417
-0.000495741
-0.00019048
0.00155887
-0.000342214
-0.000198023
0.00155555
-0.000139564
-0.000128025
0.00152016
-3.29975e-05
-0.000113013
0.00154097
4.93813e-05
-9.97621e-05
0.0016234
0.00013865
-8.92088e-05
0.00167482
0.000126443
-7.75468e-05
0.00167143
6.87393e-05
-3.63279e-05
0.00166266
4.06397e-05
-1.24349e-05
0.00164127
2.00357e-05
1.41321e-05
0.00161869
4.47579e-05
5.70728e-05
0.00164055
7.73631e-05
8.41338e-05
0.00169127
0.000136344
0.000126242
0.00170579
0.000234558
0.000185355
0.00165145
0.000127936
0.000107191
0.00160406
-0.000139765
-8.01381e-05
0.00161946
-0.000211044
-6.45169e-05
0.00165817
-2.15684e-05
6.221e-05
0.00012022
5.72319e-05
0.0014674
-4.16604e-06
-0.000248436
0.00148079
-2.62155e-05
-0.000224227
0.00148047
0.000111957
-0.00013173
0.00140291
8.87527e-05
-4.72928e-05
0.00138522
-0.000108373
-3.90896e-07
0.00145568
-1.25148e-05
-7.86093e-05
0.00147515
0.000429167
-0.000116836
0.00144749
0.000579366
5.27583e-05
0.00145636
0.000200337
0.000199199
0.00150475
-0.000161082
0.000191114
0.00153834
-0.000212857
6.40919e-05
0.00155669
-0.000147984
-0.000167246
0.00155405
-5.67467e-05
-0.000213596
0.00151555
-9.093e-05
-1.5693e-05
0.00148869
-0.000142928
1.61111e-05
0.00146564
-8.23901e-05
-0.000114385
0.0014023
-0.000162926
-2.43341e-05
0.00134435
-0.000238448
0.000175153
0.00133089
-0.000132834
0.000146963
0.0013397
-0.000138805
-4.01581e-05
0.00134728
-0.000352757
-0.00013325
0.0013533
-0.000471411
-0.000120443
0.00135705
-0.00033256
-9.65453e-05
0.00132449
-0.000108561
-0.00010776
0.00130199
1.05509e-05
-0.000113427
0.00136291
2.4267e-05
-6.71593e-05
0.0014272
4.22536e-05
-7.90427e-05
0.00140011
3.63491e-05
-8.25227e-05
0.00135445
2.02748e-05
-1.26501e-06
0.00135373
4.17417e-05
2.75357e-05
0.00135422
4.06509e-05
2.60441e-05
0.0013849
4.88447e-06
8.41828e-05
0.00148199
-8.02151e-06
0.000108328
0.00156471
6.97123e-05
0.000107746
0.00155972
0.000177938
9.44244e-05
0.00147773
0.000103979
4.10426e-06
0.00139297
-9.70519e-05
-7.98411e-06
0.00139273
-0.000161761
7.73705e-05
0.00146959
-1.46609e-05
1.78466e-05
9.96438e-05
-0.000157326
0.00124434
-4.16151e-05
-0.000200772
0.00126363
-6.01088e-05
-9.42435e-05
0.00127344
0.000124561
-2.93812e-05
0.001223
0.000102256
2.03563e-05
0.00122581
-0.000107132
2.33139e-05
0.00130473
5.20893e-05
-9.1399e-05
0.00135476
0.000523235
-8.85539e-05
0.0013617
0.000597507
0.000105312
0.00135346
0.000169892
0.000186918
0.00134164
-0.000224664
9.79182e-05
0.00131537
-0.000289636
-3.77307e-05
0.00131998
-0.000223965
-0.000166558
0.00137528
-0.000150948
-0.00013886
0.00139145
-0.000126624
1.40384e-05
0.001367
-8.58867e-05
-4.28948e-05
0.00135294
-3.8802e-05
-0.00016109
0.00129939
-0.000194597
3.08866e-05
0.00121075
-0.000309839
0.000241709
0.00116976
-0.000176259
0.000110052
0.00119731
-0.000117776
-0.00012273
0.00122834
-0.000286323
-0.000151582
0.0012088
-0.000422039
-5.3442e-05
0.00116912
-0.000326903
2.26237e-05
0.00115149
-0.000110138
8.60941e-06
0.0011901
-7.54558e-06
1.45035e-05
0.00123599
-4.82863e-05
5.85016e-05
0.00119232
-4.3805e-05
3.26282e-05
0.00112739
-4.40013e-05
2.46424e-05
0.00118587
-6.40178e-05
3.07613e-05
0.00129468
-7.51122e-06
-4.41877e-05
0.00133538
-2.00526e-05
-2.64746e-05
0.00135955
-0.000123177
7.78371e-05
0.00138485
-0.00010612
5.68859e-05
0.00136502
2.4944e-05
5.98887e-06
0.00132242
0.000109868
-8.71457e-06
0.00126842
5.55895e-05
-7.65812e-06
0.00122
-7.78079e-05
5.01707e-05
0.00125499
-0.000144711
1.45954e-05
0.00132851
-1.95482e-05
-0.000179266
8.63897e-05
-0.000274063
0.00106538
-0.000136429
-6.40917e-05
0.00108531
-0.000177282
8.47744e-05
0.00111948
4.84601e-05
9.7452e-05
0.0011126
4.06175e-05
6.65377e-05
0.00110756
-8.89281e-05
5.2137e-06
0.00116265
0.000169726
-8.31104e-05
0.00125398
0.000560017
-7.29748e-06
0.00127489
0.000542968
0.000139425
0.00119337
0.000172887
0.000101065
0.00111357
-0.000199044
3.61453e-06
0.00108983
-0.000315607
-2.75598e-05
0.00113109
-0.000308602
-7.80433e-05
0.00121543
-0.000260594
-9.40581e-05
0.00123894
-0.000143469
-4.22884e-05
0.00122104
-3.13367e-05
-8.49765e-05
0.00122701
-3.29436e-05
-8.44194e-05
0.0011834
-0.000216966
0.000105546
0.00109221
-0.000308672
0.000199718
0.00105616
-0.000177143
5.81797e-05
0.00107858
-9.93002e-05
-8.12824e-05
0.00108683
-0.000185625
-0.000111287
0.0010535
-0.00032879
-4.289e-05
0.00102825
-0.000353705
7.76776e-05
0.00106802
-0.000206516
0.000143854
0.00115023
-0.000100004
0.000178055
0.00116188
-0.000121664
0.000163444
0.0010863
-0.000103516
0.000106522
0.00107526
-0.000129714
0.000118794
0.00118051
-0.000150925
7.29683e-05
0.0012267
-1.27497e-05
-4.34074e-05
0.00115847
-1.57152e-05
4.49536e-05
0.00110808
-0.000201157
0.000140685
0.00110367
-0.000197573
1.23e-05
0.00110477
-5.76356e-05
-9.29579e-05
0.00112065
2.94327e-07
-6.76441e-05
0.00112858
-8.83944e-06
-2.86634e-05
0.00111186
-8.77833e-05
-1.83189e-05
0.0011352
-0.000149194
-0.000146832
0.00115959
4.69342e-06
-0.000301599
8.46611e-05
-0.000250329
0.00101323
-0.000256763
-2.62892e-05
0.00102265
-0.000306878
0.000146112
0.00102863
-2.61475e-05
0.000154796
0.000996101
2.03273e-05
7.6888e-05
0.000976564
-2.02942e-05
1.13474e-05
0.00106659
0.000220911
5.70145e-06
0.00116789
0.000556144
5.41458e-05
0.00112702
0.000575838
5.55858e-05
0.00103641
0.00018405
1.22069e-05
0.00101539
-0.000244201
2.18141e-05
0.00102532
-0.000332747
2.76883e-05
0.00103324
-0.000267305
-5.10244e-05
0.00106276
-0.000234003
-8.47077e-05
0.00109727
-0.000147381
-4.89523e-05
0.00113598
-5.54065e-05
-6.02293e-05
0.00116245
-5.66572e-05
1.21476e-05
0.00109498
-0.000182375
0.000128769
0.00100492
-0.00027113
0.000104261
0.000999343
-0.000196097
1.32355e-05
0.00101517
-9.66884e-05
-4.39752e-05
0.000986165
-0.000105084
-7.8085e-05
0.000939674
-0.000249988
-5.31807e-05
0.000934068
-0.00036775
4.42034e-05
0.000991495
-0.000314669
0.000193424
0.00104482
-0.000210502
0.000275189
0.00102917
-0.000164398
0.000165793
0.000989899
-0.000133013
9.38823e-05
0.000993235
-0.000186614
0.000181147
0.00102481
-0.000165576
0.000108015
0.00102053
2.78184e-05
-3.30761e-05
0.000986133
-1.93379e-05
6.09996e-05
0.000957066
-0.000234454
8.65098e-05
0.000941376
-0.000207398
-5.30638e-05
0.000943352
-9.60026e-05
-0.000104255
0.000973589
-6.33925e-05
-0.000104908
0.00100755
-6.16404e-05
-8.70458e-05
0.0010143
-0.000126391
-7.47379e-05
0.00102576
-0.000131997
-0.000200118
0.00103573
8.75231e-05
-0.000323511
8.95395e-05
-0.000236994
0.000969877
-0.000308457
-3.88843e-05
0.000965671
-0.000352143
0.000126274
0.000954165
-5.53155e-05
0.000170562
0.00091621
3.75347e-05
0.000118896
0.000917922
2.17074e-05
8.46992e-05
0.000998248
0.000237082
5.585e-05
0.00103919
0.000604543
1.69754e-05
0.00100848
0.000598753
7.83219e-06
0.00097016
0.000119566
3.87905e-05
0.000941935
-0.000299018
4.1532e-05
0.000947012
-0.000327197
1.85646e-05
0.000971189
-0.000204569
-3.00789e-05
0.000994161
-0.000161922
-4.63773e-05
0.00101845
-0.000129582
-4.60416e-05
0.00106124
-8.24829e-05
-5.33451e-05
0.00107302
-5.60511e-05
5.22719e-05
0.000991099
-0.000125852
0.000124536
0.000908761
-0.000228243
3.28659e-05
0.000907991
-0.000207747
-4.58514e-05
0.000916382
-0.000101607
-6.61066e-05
0.000881906
-8.95681e-05
-2.95195e-05
0.000840957
-0.000224697
5.57807e-06
0.000835389
-0.000332247
1.34507e-05
0.00086506
-0.000321192
0.000122517
0.000882156
-0.000240849
0.000186848
0.000872336
-0.000162732
5.24869e-05
0.000865635
-0.000121646
5.19397e-06
0.000869585
-0.000186436
0.000104774
0.00089752
-0.000146483
4.28456e-05
0.000944392
6.37229e-06
-8.81895e-06
0.000946733
-7.28861e-05
5.49032e-05
0.00088517
-0.000181834
-1.97258e-05
0.000833441
-0.000109965
-8.80589e-05
0.000832877
-7.91309e-05
-7.10093e-05
0.000865225
-6.299e-05
-0.000139254
0.000901625
-6.20734e-05
-0.000148228
0.000915666
-0.000136524
-9.96122e-05
0.000921637
-5.9944e-05
-0.000206267
0.000939917
0.000209303
-0.000323341
0.000107417
-0.000232306
0.000896207
-0.000317696
1.70591e-05
0.000871895
-0.000358088
0.000132318
0.000840043
-8.17849e-05
0.000187033
0.000819243
2.56298e-05
0.000153669
0.000863265
4.22461e-06
0.000114196
0.000922206
0.000251257
6.42712e-05
0.000929256
0.000659789
1.69536e-06
0.00092974
0.000562631
8.9252e-06
0.0008929
4.53608e-05
5.90443e-05
0.000836173
-0.000312353
4.67315e-05
0.000852398
-0.000315725
1.72558e-05
0.000897879
-0.00017218
-2.64362e-05
0.000911886
-0.000139497
-4.34674e-05
0.000923056
-0.000154188
-3.55165e-05
0.000954163
-0.000124284
-1.78011e-05
0.000945287
-6.70385e-05
8.06499e-05
0.000865587
-8.99679e-05
0.000117263
0.000799554
-0.000180522
1.68006e-05
0.000795693
-0.000192722
-7.08696e-05
0.000799809
-0.000107523
-7.57612e-05
0.000778397
-0.000122468
2.77196e-05
0.000753238
-0.000233385
6.86523e-05
0.000756303
-0.000280207
-1.41713e-05
0.000791871
-0.000271835
-1.89636e-05
0.000804437
-0.000236762
1.91492e-05
0.000783932
-0.000171627
-4.2918e-05
0.000776557
-0.000122492
-4.62603e-05
0.000779231
-0.000163242
1.42826e-05
0.000811686
-0.000130982
-9.98949e-06
0.000870351
-5.54535e-05
9.42642e-06
0.000850936
-0.000122912
3.80034e-05
0.000766418
-0.000107149
-5.79315e-05
0.000729095
-2.26569e-05
-7.23444e-05
0.000741929
-5.05314e-05
-5.24854e-05
0.000767853
-2.89442e-05
-0.000136687
0.000810015
-3.93176e-05
-0.000140979
0.000833648
-0.000112922
-9.39792e-05
0.000828047
5.66316e-05
-0.000206766
0.000851316
0.000314063
-0.000288323
0.000100186
-0.000152977
0.0008245
-0.000331744
5.88386e-05
0.000777879
-0.000355
0.000128398
0.000736565
-0.000106472
0.00018532
0.000741283
-8.93398e-06
0.000142294
0.000794607
-3.26648e-05
9.54876e-05
0.00082009
0.000289493
4.13663e-05
0.000848402
0.000673712
-1.55932e-05
0.000888484
0.00044075
3.88008e-05
0.000824627
-2.0939e-05
6.99696e-05
0.000740889
-0.000274983
2.59434e-05
0.00075476
-0.000298315
5.9719e-06
0.000774466
-0.000178778
-2.98283e-05
0.000735129
-0.000147648
-3.71625e-05
0.00071897
-0.000185783
2.67557e-06
0.000753807
-0.000170924
3.81073e-05
0.000763924
-9.95262e-05
9.67159e-05
0.0007151
-8.22524e-05
9.17043e-05
0.000671531
-0.000150203
-5.46485e-06
0.000669441
-0.000175243
-8.51523e-05
0.000678286
-0.000128806
-6.00445e-05
0.000675629
-0.000165984
5.1734e-05
0.000660812
-0.000227181
6.06055e-05
0.000676956
-0.000245741
-4.02901e-05
0.000734481
-0.000266913
-8.31369e-05
0.000751822
-0.00024763
-7.1445e-05
0.000721856
-0.00017815
-7.49576e-05
0.000705068
-0.000118022
-5.33881e-05
0.00070661
-0.000133559
-2.91849e-05
0.000749307
-0.000135795
-3.77272e-05
0.000806224
-0.000120336
-1.29755e-05
0.000765391
-0.000141219
6.34789e-06
0.000673091
-4.52655e-05
-3.96995e-05
0.000646415
3.00738e-05
-3.74346e-05
0.000668725
-9.69091e-06
-5.75176e-05
0.000707457
2.97532e-06
-0.000101413
0.000758095
-5.06017e-05
-4.9638e-05
0.000767874
-7.01937e-05
-5.52326e-05
0.000741873
0.00020908
-0.000202898
0.000774117
0.000366154
-0.000202222
3.03443e-05
-3.36775e-05
0.000738944
-0.00035833
7.97104e-05
0.000677355
-0.000331547
0.000124252
0.000657704
-9.08698e-05
0.000150828
0.0006859
-2.52577e-05
9.69558e-05
0.000706154
-2.84632e-05
5.99035e-05
0.000715817
0.000347891
1.01794e-06
0.000794955
0.000611475
-2.47618e-05
0.000836686
0.000287857
6.07132e-05
0.000755517
-6.2706e-05
5.06314e-05
0.000668928
-0.000221664
8.20916e-06
0.000613883
-0.000235756
-1.36611e-06
0.000550303
-0.000154986
-4.12998e-05
0.000503657
-0.000151095
-3.65907e-05
0.000530093
-0.000218628
9.54633e-06
0.000606785
-0.00022445
3.22301e-05
0.000650215
-0.000144341
6.10587e-05
0.00062335
-8.47543e-05
4.25588e-05
0.00058311
-0.000124335
-2.58178e-05
0.00057853
-0.000155039
-8.03794e-05
0.000600495
-0.000154191
-4.78493e-05
0.000611785
-0.000187842
3.47089e-05
0.000597983
-0.00018173
1.31044e-05
0.000608275
-0.000204296
-5.39151e-05
0.000650141
-0.000278411
-7.11224e-05
0.000662113
-0.000267621
-7.59962e-05
0.000645923
-0.00019482
-5.4439e-05
0.000631995
-0.000117787
-2.52121e-05
0.000635423
-0.000113466
-3.5622e-05
0.000688219
-0.000166001
-4.32614e-05
0.000735898
-0.000176701
-2.73365e-05
0.000684411
-0.00012291
-2.85722e-05
0.00060427
1.36847e-05
-3.00953e-05
0.000582033
6.80235e-05
5.52092e-06
0.00060037
4.35596e-05
-4.06093e-05
0.000653212
1.60263e-05
-6.69138e-05
0.00071073
-8.70239e-05
2.77417e-06
0.000699593
1.45052e-05
-5.62674e-05
0.000666798
0.000378174
-0.000198835
0.000726487
0.000354604
-0.000118602
-8.69421e-05
4.91325e-05
0.000627415
-0.000376462
9.70969e-05
0.000574253
-0.000302817
0.000119657
0.000597822
-6.40303e-05
0.000110374
0.000609099
2.93979e-06
6.49689e-05
0.000583398
4.98943e-05
3.29908e-05
0.000638227
0.000375547
-2.61813e-05
0.000762246
0.000467756
-1.93897e-06
0.000771184
0.000164754
6.13836e-05
0.000674087
-6.67159e-05
2.24334e-05
0.00058045
-0.000164902
5.09724e-06
0.000503243
-0.000174277
-1.80314e-06
0.000451844
-0.000135613
-4.42795e-05
0.000444475
-0.000152845
-3.23787e-05
0.000482468
-0.000224095
-2.16858e-06
0.000544956
-0.000239559
3.81781e-06
0.000574993
-0.000161016
1.99251e-05
0.000547549
-8.52929e-05
2.18032e-06
0.000514048
-9.99221e-05
-3.86364e-05
0.000520472
-0.000125514
-7.53407e-05
0.000550873
-0.000160357
-3.7998e-05
0.000555826
-0.000170082
1.43169e-05
0.000540607