/*--------------------------------*- C++ -*----------------------------------*\
  =========                 |
  \\      /  F ield         | OpenFOAM: The Open Source CFD Toolbox
   \\    /   O peration     | Website:  https://openfoam.org
    \\  /    A nd           | Version:  10
     \\/     M anipulation  |
\*---------------------------------------------------------------------------*/
FoamFile
{
    format      ascii;
    class       surfaceScalarField;
    location    "50";
    object      phi_0;
}
// * * * * * * * * * * * * * * * * * * * * * * * * * * * * * * * * * * * * * //

dimensions      [0 3 -1 0 0 0 0];

internalField   nonuniform List<scalar> 
74080
(
0.00505877
8.43446e-08
9.14542e-09
0.00505836
-2.32603e-07
5.45314e-08
0.0050588
2.73648e-07
-1.33071e-07
0.00505846
-2.66513e-07
1.30373e-07
0.00505865
1.26274e-07
-1.36952e-07
0.00505865
2.94895e-08
1.02115e-07
0.00505847
-1.67802e-07
-9.99577e-08
0.00505875
2.60822e-07
9.78442e-08
0.00505845
-2.87077e-07
-1.30915e-07
0.00505867
2.57944e-07
1.30034e-07
0.00505856
-1.77543e-07
-1.3366e-07
0.00505856
4.04603e-08
5.8703e-08
0.00505859
1.58762e-07
4.11413e-08
0.00505858
-3.12627e-07
-1.94421e-07
0.00505853
3.81289e-07
2.94441e-07
0.0050586
-2.98907e-07
-3.44295e-07
0.00505856
8.37925e-08
2.51647e-07
0.00505857
1.27921e-07
-1.24473e-07
0.0050586
-2.53283e-07
-5.49447e-08
0.00505853
2.64819e-07
1.5734e-07
0.00505858
-1.66256e-07
-1.87909e-07
0.00505852
7.9174e-08
1.13985e-07
0.00505861
-3.29769e-08
-2.69421e-08
0.00505852
-2.43669e-08
-9.54691e-08
0.00505865
1.56075e-08
1.18881e-07
0.00505853
-6.01992e-08
-1.19845e-07
0.00505863
9.25395e-08
4.44444e-08
0.00505856
-1.2573e-07
1.91402e-08
0.00505858
1.53105e-07
-7.93143e-08
0.00505859
-1.86042e-07
7.02571e-08
0.00505862
1.19517e-07
-8.515e-08
0.00505859
-7.61557e-08
5.39594e-08
0.00505864
-3.61342e-08
-7.31192e-08
0.00505864
1.16247e-07
5.83369e-08
0.0050585
-1.7174e-07
-4.18976e-08
0.00505879
1.8364e-07
-3.94093e-08
0.0050584
-1.87484e-07
1.02197e-07
0.00505874
1.77328e-07
-1.5812e-07
0.0050585
-7.58011e-08
1.64164e-07
-1.14644e-08
-1.24244e-07
0.00459863
-1.79025e-07
-2.97676e-08
0.00459817
1.95787e-07
3.94559e-08
0.00459868
-1.81529e-07
-5.98422e-08
0.00459826
9.96363e-08
2.86424e-08
0.00459848
-4.72776e-08
-1.15843e-08
0.0045985
-2.01917e-08
-2.3308e-08
0.00459827
5.86608e-08
2.51194e-08
0.00459863
-7.26639e-08
-9.84373e-09
0.00459824
4.85306e-08
-5.97059e-08
0.00459856
3.76731e-09
1.21773e-07
0.00459838
-4.8912e-08
-1.88071e-07
0.00459841
3.90792e-08
1.66985e-07
0.00459849
5.72553e-08
-8.82062e-08
0.00459836
-1.82464e-07
-7.42959e-08
0.00459848
2.70891e-07
2.14126e-07
0.00459841
-2.41939e-07
-3.15318e-07
0.00459842
9.4304e-08
2.84155e-07
0.00459844
8.13948e-08
-1.92767e-07
0.00459841
-2.0013e-07
3.93474e-08
0.00459842
2.27026e-07
6.45188e-08
0.00459845
-1.77481e-07
-1.21526e-07
0.00459839
1.27633e-07
9.13427e-08
0.00459848
-1.02367e-07
-4.61765e-08
0.00459837
5.4708e-08
-3.40112e-08
0.00459847
-2.63294e-08
5.03764e-08
0.00459839
-4.32864e-08
-5.42757e-08
0.00459845
9.06693e-08
2.64838e-09
0.00459841
-1.33943e-07
3.00772e-08
0.00459844
1.40181e-07
-6.17131e-08
0.00459841
-1.32351e-07
4.1635e-08
0.00459847
3.34209e-08
-4.12993e-08
0.00459838
5.53295e-08
2.00425e-08
0.00459846
-1.55638e-07
-4.34826e-08
0.00459846
1.45928e-07
4.37164e-08
0.00459831
-5.10325e-08
-4.74137e-08
0.00459863
-1.05997e-07
3.08343e-09
0.00459819
2.02426e-07
2.3775e-08
0.00459862
-2.00329e-07
-4.81154e-08
0.00459837
1.09704e-07
3.52756e-08
3.86995e-08
-1.91449e-08
0.00418028
-3.66076e-07
-1.58062e-08
0.00417994
5.01741e-07
-1.14712e-08
0.00418033
-5.1684e-07
2.00925e-08
0.00418
3.73171e-07
-4.88052e-08
0.00418018
-1.8077e-07
5.88897e-08
0.00418019
-5.67323e-08
-8.74408e-08
0.00418
2.44026e-07
8.81339e-08
0.0041803
-3.51523e-07
-7.09843e-08
0.00417997
3.42616e-07
-1.06189e-08
0.00418026
-2.3846e-07
1.01737e-07
0.00418007
9.04179e-08
-1.97992e-07
0.00418013
2.35626e-08
2.11379e-07
0.0041802
-4.02614e-08
-1.6025e-07
0.00418004
-2.08514e-08
1.63914e-08
0.00418022
1.02618e-07
1.21823e-07
0.00418008
-1.22072e-07
-2.37129e-07
0.00418014
5.57654e-08
2.436e-07
0.00418015
5.07534e-08
-1.96101e-07
0.0041801
-1.35836e-07
9.31128e-08
0.00418015
1.68071e-07
-2.4225e-08
0.00418014
-1.53853e-07
-3.08762e-08
0.00418011
1.3929e-07
3.43691e-08
0.00418016
-1.35373e-07
-4.24082e-08
0.0041801
9.66331e-08
2.37306e-08
0.00418016
-5.38859e-08
-3.76596e-08
0.0041801
-2.79256e-08
4.2562e-08
0.00418016
8.09012e-08
-6.67893e-08
0.00418011
-1.23872e-07
5.85327e-08
0.00418015
1.15637e-07
-4.65657e-08
0.00418012
-8.65675e-08
3.36949e-09
0.00418015
-2.96157e-08
1.17022e-08
0.00418011
1.31619e-07
-2.14003e-08
0.00418014
-2.15795e-07
-1.11316e-08
0.00418016
1.48162e-07
2.85685e-08
0.00418005
3.96212e-08
-5.33586e-08
0.00418027
-2.98366e-07
3.71095e-08
0.00417998
4.57668e-07
-3.53896e-08
0.00418027
-4.45985e-07
2.21296e-08
0.00418009
2.38637e-07
-3.11434e-08
6.63146e-08
1.82995e-08
0.00379995
-4.34319e-07
2.49005e-08
0.0037998
6.33588e-07
-7.49771e-08
0.0038
-6.78643e-07
9.13804e-08
0.00379981
5.19897e-07
-1.03323e-07
0.00379993
-2.66192e-07
9.30565e-08
0.00379991
-5.88089e-08
-1.03185e-07
0.00379983
3.30474e-07
1.00198e-07
0.00379998
-5.00151e-07
-8.24079e-08
0.00379979
5.15525e-07
4.18438e-09
0.00379998
-3.95816e-07
8.79219e-08
0.00379984
1.97742e-07
-1.85306e-07
0.0037999
-7.25581e-09
2.09252e-07
0.00379993
-1.00819e-07
-1.76195e-07
0.00379981
1.09501e-07
6.06922e-08
0.00379998
-5.44614e-08
5.15885e-08
0.00379982
9.01071e-09
-1.52002e-07
0.00379992
-6.84212e-09
1.69748e-07
0.0037999
4.55286e-08
-1.56782e-07
0.00379986
-8.46602e-08
1.05465e-07
0.00379992
1.05751e-07
-8.02577e-08
0.00379987
-1.0596e-07
4.499e-08
0.0037999
1.11561e-07
-2.35676e-08
0.00379989
-1.22623e-07
-2.74377e-08
0.00379988
9.95477e-08
6.07854e-08
0.00379991
-6.26099e-08
-1.08114e-07
0.00379986
-6.70922e-09
1.21652e-07
0.00379992
5.17964e-08
-1.25745e-07
0.00379986
-9.09459e-08
8.08379e-08
0.00379991
7.95081e-08
-2.8166e-08
0.00379989
-5.28078e-08
-3.80648e-08
0.00379987
-4.71391e-08
5.98558e-08
0.00379991
1.3634e-07
-5.88228e-08
0.00379986
-2.01291e-07
8.85084e-09
0.00379992
1.11864e-07
2.8896e-08
0.00379985
9.70626e-08
-6.78326e-08
0.00379994
-3.79421e-07
6.60507e-08
0.00379983
5.52252e-07
-7.24557e-08
0.00379995
-5.39866e-07
5.93018e-08
0.00379986
2.91046e-07
-5.33144e-08
6.91313e-08
1.33165e-08
0.00345421
-3.88672e-07
5.94982e-08
0.00345424
6.03623e-07
-1.18361e-07
0.00345426
-6.79317e-07
1.34678e-07
0.0034542
5.48693e-07
-1.30337e-07
0.00345427
-3.07398e-07
1.01415e-07
0.00345421
-2.52467e-08
-9.52031e-08
0.00345424
3.19332e-07
8.5048e-08
0.00345425
-5.19969e-07
-6.87135e-08
0.00345421
5.63795e-07
1.24862e-09
0.00345428
-4.63854e-07
7.91084e-08
0.00345419
2.65461e-07
-1.62613e-07
0.00345426
-4.70198e-08
1.82507e-07
0.00345425
-1.1588e-07
-1.59685e-07
0.00345418
1.83876e-07
7.27215e-08
0.00345431
-1.66852e-07
5.83295e-09
0.00345417
1.1983e-07
-8.14551e-08
0.00345426
-7.52623e-08
9.43455e-08
0.00345424
5.758e-08
-1.00379e-07
0.0034542
-5.12967e-08
8.73177e-08
0.00345427
5.42731e-08
-1.01758e-07
0.0034542
-5.164e-08
8.89152e-08
0.00345426
6.33292e-08
-6.22502e-08
0.00345422
-7.98314e-08
-1.39338e-08
0.00345424
7.22655e-08
8.0933e-08
0.00345424
-5.53459e-08
-1.48826e-07
0.00345421
1.43291e-08
1.65632e-07
0.00345427
1.17185e-08
-1.52924e-07
0.0034542
-4.13247e-08
8.3084e-08
0.00345426
3.31718e-08
-4.65431e-09
0.00345423
-2.42414e-08
-7.33329e-08
0.00345421
-4.23351e-08
9.63644e-08
0.00345428
1.00196e-07
-8.14191e-08
0.00345419
-1.4492e-07
1.95569e-08
0.00345426
6.12725e-08
2.87877e-08
0.00345424
1.16199e-07
-7.41441e-08
0.00345421
-3.63176e-07
7.71193e-08
0.00345426
5.16669e-07
-8.62377e-08
0.00345423
-5.16125e-07
7.01201e-08
0.00345422
2.92445e-07
-5.35891e-08
3.45805e-08
-2.59828e-09
0.00313994
-2.68597e-07
7.87878e-08
0.0031401
4.63241e-07
-1.35752e-07
0.00313998
-5.69969e-07
1.48784e-07
0.00314003
4.93537e-07
-1.31893e-07
0.00314005
-3.17047e-07
9.16101e-08
0.00313998
3.3758e-08
-7.49499e-08
0.00314008
2.35033e-07
6.18138e-08
0.00313998
-4.39006e-07
-4.92577e-08
0.00314005
5.10718e-07
-6.33325e-09
0.00314003
-4.55002e-07
6.98096e-08
0.00313999
2.95823e-07
-1.35445e-07
0.00314006
-9.32233e-08
1.4533e-07
0.00314001
-8.86468e-08
-1.29741e-07
0.00314
2.00214e-07
6.39968e-08
0.00314007
-2.23035e-07
-1.81353e-08
0.00313998
1.9059e-07
-3.04758e-08
0.00314005
-1.24192e-07
3.07803e-08
0.00314003
6.99604e-08
-4.41973e-08
0.00313999
-2.75763e-08
5.3687e-08
0.00314006
1.30098e-08
-9.52168e-08
0.00313999
1.21257e-09
1.01607e-07
0.00314005
8.26175e-09
-7.9863e-08
0.00314
-2.2536e-08
-5.0701e-09
0.00314004
2.84428e-08
8.50363e-08
0.00314002
-3.39295e-08
-1.61791e-07
0.00314
2.81351e-08
1.78371e-07
0.00314005
-2.68393e-08
-1.55208e-07
0.00313999
1.0177e-08
7.27025e-08
0.00314005
-1.34912e-08
1.6389e-08
0.00314002
-6.16363e-10
-9.51908e-08
0.00313999
-2.51151e-08
1.15879e-07
0.00314008
4.44294e-08
-9.14998e-08
0.00313997
-7.07907e-08
2.33402e-08
0.00314004
1.03204e-08
2.81069e-08
0.00314005
1.03213e-07
-7.24738e-08
0.00313995
-2.79974e-07
7.4013e-08
0.0031401
3.92672e-07
-8.16181e-08
0.00313998
-4.13401e-07
6.28721e-08
0.00314002
2.55126e-07
-4.25891e-08
-2.0958e-08
-1.6653e-08
0.00285428
-1.14525e-07
8.15195e-08
0.0028545
2.65813e-07
-1.32301e-07
0.00285432
-4.00941e-07
1.41811e-07
0.00285443
3.86912e-07
-1.18904e-07
0.00285441
-3.04835e-07
7.45664e-08
0.00285433
1.00242e-07
-5.40305e-08
0.00285448
1.10953e-07
3.98404e-08
0.00285431
-3.00252e-07
-3.14325e-08
0.00285445
3.93286e-07
-1.12129e-08
0.00285437
-3.94344e-07
5.7753e-08
0.00285437
2.94672e-07
-1.08094e-07
0.00285443
-1.35447e-07
1.08185e-07
0.00285436
-4.00017e-08
-9.75392e-08
0.0028544
1.7434e-07
4.75896e-08
0.00285441
-2.33104e-07
-2.81831e-08
0.00285436
2.23772e-07
-9.6119e-10
0.00285441
-1.5138e-07
-1.4725e-08
0.0028544
7.66516e-08
1.17326e-09
0.00285437
-9.34574e-09
1.67737e-08
0.00285442
-1.77305e-08
-7.3351e-08
0.00285436
4.49447e-08
9.20516e-08
0.00285442
-4.09321e-08
-7.99495e-08
0.00285436
3.45882e-08
-9.92227e-10
0.00285441
-2.13796e-08
7.8672e-08
0.00285438
-4.81741e-09
-1.52463e-07
0.00285438
3.39086e-08
1.64997e-07
0.00285442
-5.75711e-08
-1.38579e-07
0.00285436
5.54228e-08
5.57769e-08
0.00285442
-5.68181e-08
3.08597e-08
0.00285439
2.06731e-08
-1.03427e-07
0.00285436
-6.87476e-09
1.18665e-07
0.00285444
-1.37564e-08
-8.94993e-08
0.00285434
4.49193e-09
2.19214e-08
0.00285441
-3.89824e-08
2.49193e-08
0.00285443
7.71659e-08
-6.60048e-08
0.0028543
-1.70102e-07
6.19809e-08
0.0028545
2.30975e-07
-6.9179e-08
0.00285433
-2.76574e-07
4.92857e-08
0.00285439
1.97462e-07
-3.11684e-08
-8.50251e-08
-2.45823e-08
0.00259463
3.93234e-08
7.06973e-08
0.00259487
5.2845e-08
-1.13103e-07
0.00259465
-2.13626e-07
1.20248e-07
0.00259479
2.53546e-07
-9.67514e-08
0.00259475
-2.77862e-07
5.58339e-08
0.00259469
1.56617e-07
-3.78746e-08
0.00259483
-2.2026e-08
2.52181e-08
0.00259465
-1.45192e-07
-2.2558e-08
0.00259482
2.47336e-07
-9.31818e-09
0.00259471
-3.08837e-07
4.19606e-08
0.00259473
2.70605e-07
-8.14825e-08
0.00259478
-1.71671e-07
7.42718e-08
0.0025947
1.60059e-08
-6.98482e-08
0.00259477
1.22946e-07
3.0448e-08
0.00259474
-2.12762e-07
-2.99923e-08
0.00259473
2.25254e-07
1.33833e-08
0.00259475
-1.59365e-07
-4.21219e-08
0.00259475
7.4369e-08
3.22981e-08
0.00259472
4.51516e-09
-1.5503e-08
0.00259477
-3.92368e-08
-4.45694e-08
0.00259472
7.61916e-08
6.81224e-08
0.00259476
-7.96869e-08
-6.75933e-08
0.00259472
8.28156e-08
-1.67096e-09
0.00259476
-6.91459e-08
6.66832e-08
0.00259473
2.67881e-08
-1.30508e-07
0.00259473
3.06845e-08
1.37803e-07
0.00259476
-7.87548e-08
-1.12479e-07
0.00259471
9.02259e-08
3.75229e-08
0.00259477
-9.50536e-08
3.85257e-08
0.00259474
3.90677e-08
-9.80578e-08
0.00259472
4.65557e-09
1.09052e-07
0.00259479
-6.30772e-08
-7.97129e-08
0.00259469
6.77709e-08
1.8336e-08
0.00259476
-8.17076e-08
2.00138e-08
0.00259479
4.46841e-08
-5.49819e-08
0.00259465
-5.96531e-08
4.59143e-08
0.00259485
6.27053e-08
-5.39303e-08
0.00259467
-1.34982e-07
3.52091e-08
0.00259475
1.2867e-07
-2.32609e-08
-1.47033e-07
-2.35265e-08
0.00235861
1.67609e-07
5.23842e-08
0.00235883
-1.48423e-07
-8.49964e-08
0.00235862
-4.00065e-08
9.27065e-08
0.00235877
1.10833e-07
-6.97769e-08
0.00235871
-2.45108e-07
3.75979e-08
0.00235867
1.90757e-07
-2.63525e-08
0.0023588
-1.44002e-07
1.70632e-08
0.00235862
-3.81423e-09
-1.91562e-08
0.00235879
9.60733e-08
-1.6826e-10
0.00235867
-2.21306e-07
2.41787e-08
0.00235871
2.29638e-07
-5.69462e-08
0.00235874
-2.01621e-07
4.72961e-08
0.00235867
6.6454e-08
-4.72869e-08
0.00235874
5.88665e-08
1.68023e-08
0.0023587
-1.78894e-07
-2.73369e-08
0.00235871
2.03175e-07
1.58507e-08
0.00235871
-1.54732e-07
-5.39792e-08
0.00235872
6.26515e-08
5.14788e-08
0.00235869
1.40271e-08
-4.01295e-08
0.00235873
-5.70032e-08
-1.34863e-08
0.00235869
9.42989e-08
3.77408e-08
0.00235873
-1.09599e-07
-4.65319e-08
0.00235869
1.18698e-07
-4.51377e-09
0.00235873
-1.14932e-07
5.46205e-08
0.0023587
5.59305e-08
-1.01397e-07
0.00235871
1.71615e-08
1.04783e-07
0.00235872
-9.17396e-08
-8.172e-08
0.00235869
1.10533e-07
2.21956e-08
0.00235873
-1.28323e-07
4.2126e-08
0.0023587
5.06351e-08
-8.37727e-08
0.0023587
6.91599e-09
9.19983e-08
0.00235875
-1.03866e-07
-6.40408e-08
0.00235867
1.14853e-07
1.39671e-08
0.00235872
-1.217e-07
1.58946e-08
0.00235875
1.13084e-08
-4.31977e-08
0.00235862
3.25525e-08
2.93219e-08
0.00235881
-9.40931e-08
-3.90083e-08
0.00235864
-7.95257e-09
2.36612e-08
0.00235873
5.12297e-08
-1.72908e-08
-2.01324e-07
-1.64709e-08
0.00214406
2.53871e-07
2.99822e-08
0.00214425
-3.27243e-07
-5.47354e-08
0.00214406
1.01679e-07
6.74397e-08
0.00214421
-3.42368e-08
-3.66148e-08
0.00214414
-2.1661e-07
2.35461e-08
0.00214412
1.91948e-07
-2.00417e-08
0.00214422
-2.47231e-07
1.38092e-08
0.00214407
1.04093e-07
-1.63041e-08
0.00214422
-4.84893e-08
1.79852e-08
0.00214411
-1.49794e-07
7.63417e-09
0.00214415
1.72383e-07
-3.61336e-08
0.00214417
-2.28444e-07
2.60641e-08
0.00214411
1.02262e-07
-2.68091e-08
0.00214418
-1.05045e-08
1.25414e-08
0.00214413
-1.48452e-07
-2.17119e-08
0.00214416
1.62325e-07
1.1218e-08
0.00214414
-1.47025e-07
-5.58254e-08
0.00214416
4.12908e-08
6.61299e-08
0.00214414
1.59702e-08
-5.18931e-08
0.00214416
-7.75131e-08
1.82772e-08
0.00214413
9.52408e-08
4.80407e-09
0.00214416
-1.34838e-07
-2.24562e-08
0.00214413
1.40125e-07
-5.53169e-09
0.00214416
-1.60521e-07
5.01277e-08
0.00214414
7.59311e-08
-6.90921e-08
0.00214415
-1.02711e-08
7.10271e-08
0.00214415
-1.00586e-07
-5.17172e-08
0.00214413
1.14266e-07
1.45453e-08
0.00214417
-1.59572e-07
4.72872e-08
0.00214414
4.91077e-08
-6.20075e-08
0.00214414
-4.81253e-09
7.01571e-08
0.00214417
-1.39824e-07
-4.62929e-08
0.00214412
1.43897e-07
1.24061e-08
0.00214416
-1.64586e-07
1.81372e-08
0.00214418
-2.32534e-08
-2.95608e-08
0.00214408
9.15575e-08
1.27394e-08
0.00214423
-2.32569e-07
-2.63287e-08
0.00214408
9.1088e-08
1.86552e-08
0.00214417
-3.4563e-08
-8.29062e-09
-2.5126e-07
-4.33406e-09
0.00194902
2.85702e-07
-2.99341e-10
0.00194917
-4.84802e-07
-2.82768e-08
0.00194901
1.99803e-07
5.69281e-08
0.00194914
-1.79641e-07
1.21843e-08
0.00194907
-2.03978e-07
1.46458e-08
0.00194907
1.52052e-07
-2.38733e-08
0.00194913
-3.35236e-07
1.22489e-08
0.00194902
1.67547e-07
-2.6589e-09
0.00194915
-1.82643e-07
5.38936e-08
0.00194904
-1.09987e-07
-3.88425e-09
0.00194909
9.5673e-08
-2.65355e-08
0.0019491
-2.5947e-07
8.13064e-09
0.00194906
1.17789e-07
2.82875e-09
0.00194912
-8.37255e-08
2.90977e-08
0.00194906
-1.36049e-07
-1.18846e-08
0.00194909
1.01491e-07
-2.75719e-09
0.00194908
-1.46237e-07
-5.18002e-08
0.0019491
9.65091e-09
8.86081e-08
0.00194908
5.47323e-09
-4.02048e-08
0.00194909
-1.09096e-07
4.99301e-08
0.00194908
7.30606e-08
-3.34408e-08
0.00194909
-1.64049e-07
9.90483e-10
0.00194908
1.44505e-07
6.72806e-09
0.0019491
-2.11167e-07
6.64928e-08
0.00194907
7.9239e-08
-3.48399e-08
0.00194909
-5.87681e-08
3.42775e-08
0.00194909
-1.13674e-07
-2.61819e-08
0.00194908
9.92154e-08
2.34699e-08
0.0019491
-1.94471e-07
6.76748e-08
0.00194908
2.70787e-08
-3.54075e-08
0.00194908
-3.71618e-08
3.8378e-08
0.0019491
-1.78885e-07
-3.05805e-08
0.00194906
1.51521e-07
2.35813e-08
0.0019491
-2.16151e-07
3.786e-08
0.0019491
-6.55264e-08
-1.37987e-08
0.00194903
1.05813e-07
-9.06058e-09
0.00194915
-3.56484e-07
-1.85667e-08
0.00194903
1.53751e-07
3.01847e-08
0.00194911
-1.32077e-07
1.62624e-08
-3.04015e-07
1.24537e-08
0.00177164
2.54337e-07
-5.72502e-08
0.00177174
-6.27737e-07
-1.34256e-08
0.00177162
2.50688e-07
8.45587e-08
0.00177173
-3.26751e-07
9.58257e-08
0.00177166
-2.19964e-07
6.98635e-09
0.00177167
6.53856e-08
-5.61246e-08
0.00177171
-4.15632e-07
8.46141e-09
0.00177163
1.82551e-07
4.69057e-08
0.00177173
-3.08736e-07
1.26376e-07
0.00177164
-1.1345e-07
-1.47026e-08
0.00177169
-7.09897e-09
-4.80618e-08
0.00177169
-3.01288e-07
-1.09881e-08
0.00177166
1.11349e-07
6.62548e-08
0.0017717
-1.63754e-07
8.90131e-08
0.00177165
-1.54553e-07
7.3696e-11
0.00177169
1.56162e-08
-3.97433e-08
0.00177168
-1.6181e-07
-4.39858e-08
0.0017717
-3.31941e-08
1.43598e-07
0.00177168
-2.29804e-08
1.39599e-08
0.00177168
-1.63149e-07
7.75956e-08
0.00177168
1.82534e-08
-9.26873e-08
0.00177169
-2.06168e-07
1.74788e-08
0.00177169
1.31022e-07
5.47984e-08
0.00177169
-2.73474e-07
1.26469e-07
0.00177167
5.4561e-08
-3.76679e-09
0.00177169
-1.38944e-07
-2.29402e-08
0.00177169
-1.40433e-07
-1.06957e-08
0.00177169
6.24794e-08
7.0093e-08
0.0017717
-2.39802e-07
1.24441e-07
0.00177167
-2.62648e-08
-1.2755e-08
0.00177168
-1.00809e-07
-2.10234e-08
0.0017717
-2.31114e-07
-2.26591e-08
0.00177167
1.35527e-07
6.91305e-08
0.00177169
-2.83857e-07
9.74085e-08
0.00177169
-1.26878e-07
1.45393e-09
0.00177164
6.49021e-08
-5.56235e-08
0.00177174
-4.73048e-07
-1.85782e-08
0.00177164
1.77113e-07
7.95642e-08
0.0017717
-2.4467e-07
7.83776e-08
-3.70349e-07
2.89188e-08
0.00161005
1.58289e-07
-1.63515e-07
0.00161013
-7.60579e-07
1.63201e-09
0.00161004
2.5766e-07
1.82354e-07
0.00161011
-4.76228e-07
2.1986e-07
0.00161004
-2.69993e-07
-2.82963e-08
0.00161008
-6.70335e-08
-1.35935e-07
0.0016101
-4.93848e-07
1.62655e-08
0.00161005
1.52782e-07
1.61333e-07
0.0016101
-4.27525e-07
2.40483e-07
0.00161003
-1.63838e-07
-5.1448e-08
0.00161009
-1.38544e-07
-1.22979e-07
0.00161009
-3.56908e-07
-1.63104e-08
0.00161007
8.33196e-08
1.99646e-07
0.00161009
-2.51798e-07
2.00895e-07
0.00161005
-2.10158e-07
-7.19996e-09
0.0016101
-9.74685e-08
-1.14797e-07
0.0016101
-1.998e-07
-1.63342e-08
0.00161011
-8.80369e-08
2.63223e-07
0.00161009
-7.40777e-08
1.15159e-07
0.00161008
-2.48635e-07
7.52085e-08
0.0016101
-7.52541e-08
-1.92748e-07
0.00161011
-2.6839e-07
4.03831e-08
0.00161011
9.79959e-08
1.71889e-07
0.0016101
-3.52822e-07
2.34437e-07
0.00161009
-6.59112e-09
-4.19536e-09
0.00161012
-2.57584e-07
-1.23396e-07
0.00161013
-1.88711e-07
4.70385e-09
0.00161012
2.7845e-09
1.80385e-07
0.0016101
-3.01792e-07
2.20743e-07
0.00161008
-1.17907e-07
-2.68305e-08
0.00161011
-2.0158e-07
-1.33178e-07
0.00161012
-3.04207e-07
-1.11032e-08
0.00161009
9.40589e-08
1.79657e-07
0.00161009
-3.73289e-07
2.03219e-07
0.00161008
-2.16926e-07
-8.453e-09
0.00161007
-3.53113e-08
-1.47933e-07
0.00161013
-5.88683e-07
-8.47226e-09
0.00161005
1.6141e-07
1.995e-07
0.00161009
-3.71964e-07
1.85539e-07
-4.5632e-07
1.57607e-08
0.00146219
2.02219e-08
-2.94268e-07
0.00146224
-8.65606e-07
7.83187e-08
0.00146215
2.28946e-07
3.53063e-07
0.00146218
-6.32643e-07
3.14869e-07
0.00146213
-3.4895e-07
-1.42868e-07
0.0014622
-2.19884e-07
-2.3421e-07
0.00146221
-5.55896e-07
9.51688e-08
0.00146217
8.80673e-08
3.42271e-07
0.00146218
-5.45815e-07
3.31635e-07
0.00146214
-2.56433e-07
-1.63974e-07
0.00146222
-2.78643e-07
-2.21158e-07
0.00146223
-4.08394e-07
5.5314e-08
0.0014622
3.58921e-08
4.10841e-07
0.0014622
-3.58093e-07
3.0429e-07
0.00146218
-3.02814e-07
-7.72307e-08
0.00146226
-2.21792e-07
-1.98327e-07
0.00146227
-2.47753e-07
8.38445e-08
0.00146226
-1.56481e-07
4.44436e-07
0.00146223
-1.61009e-07
1.97551e-07
0.00146224
-3.69297e-07
-5.22801e-09
0.00146228
-1.94786e-07
-3.08549e-07
0.00146229
-3.38417e-07
1.2517e-07
0.00146228
4.41866e-08
3.59685e-07
0.00146225
-4.6387e-07
3.20739e-07
0.00146226
-1.09508e-07
-8.92349e-08
0.00146231
-4.02654e-07
-2.48134e-07
0.00146231
-2.47697e-07
7.20829e-08
0.00146228
-8.11149e-08
3.52728e-07
0.00146224
-3.93689e-07
2.88155e-07
0.00146223
-2.51843e-07
-1.30816e-07
0.00146228
-3.2661e-07
-2.67923e-07
0.00146228
-3.85897e-07
6.35553e-08
0.00146223
2.68791e-08
3.59075e-07
0.00146221
-4.94698e-07
2.92427e-07
0.00146219
-3.38086e-07
-9.38388e-08
0.00146222
-1.75043e-07
-2.58117e-07
0.00146225
-6.8648e-07
7.33249e-08
0.00146216
1.13876e-07
3.86988e-07
0.00146218
-5.17847e-07
2.70328e-07
-5.60574e-07
-8.03197e-08
0.00132554
-1.03779e-07
-3.10746e-07
0.00132553
-9.13959e-07
2.80434e-07
0.00132545
1.5735e-07
4.8217e-07
0.00132546
-7.98307e-07
2.3838e-07
0.00132546
-4.2511e-07
-3.13366e-07
0.00132555
-3.41759e-07
-2.12895e-07
0.00132552
-5.80246e-07
2.9559e-07
0.00132549
-1.51799e-08
4.73797e-07
0.00132549
-6.72934e-07
2.63015e-07
0.00132552
-3.59004e-07
-3.38263e-07
0.00132562
-3.78302e-07
-1.95053e-07
0.00132561
-4.3407e-07
2.66641e-07
0.00132556
-4.60327e-08
5.87478e-07
0.00132556
-4.92625e-07
2.51868e-07
0.00132559
-4.06344e-07
-2.04681e-07
0.00132569
-3.17475e-07
-1.70125e-07
0.00132568
-2.93381e-07
2.92113e-07
0.00132565
-2.55032e-07
5.67219e-07
0.00132563
-2.96036e-07
1.20865e-07
0.00132567
-4.98655e-07
-1.53963e-07
0.00132574
-2.97569e-07
-3.14836e-07
0.00132572
-3.96738e-07
3.27021e-07
0.00132568
-4.76773e-08
4.9854e-07
0.00132565
-6.19325e-07
2.31639e-07
0.0013257
-2.31626e-07
-2.54421e-07
0.00132576
-5.2879e-07
-2.74744e-07
0.00132573
-2.98133e-07
2.49225e-07
0.00132566
-2.01383e-07
4.71717e-07
0.00132561
-5.24377e-07
1.85188e-07
0.00132563
-4.00063e-07
-3.06982e-07
0.00132568
-4.27269e-07
-2.81937e-07
0.00132564
-4.53452e-07
2.6158e-07
0.00132556
-7.59509e-08
5.00938e-07
0.00132552
-6.51684e-07
2.24142e-07
0.00132552
-4.61681e-07
-2.44225e-07
0.00132557
-2.95814e-07
-2.54026e-07
0.00132555
-7.42855e-07
2.8345e-07
0.00132545
2.65535e-08
5.237e-07
0.00132546
-6.83271e-07
1.88336e-07
-6.55007e-07
-2.5178e-07
0.00119727
-1.59939e-07
-8.58188e-08
0.00119719
-9.22229e-07
4.85891e-07
0.00119715
1.67559e-08
3.57126e-07
0.0011972
-9.37449e-07
-6.91559e-09
0.00119724
-4.28301e-07
-3.40272e-07
0.00119731
-3.93377e-07
3.61064e-08
0.00119725
-5.87271e-07
4.81766e-07
0.00119726
-1.80838e-07
3.53565e-07
0.00119729
-7.77772e-07
3.15135e-08
0.00119737
-4.02669e-07
-3.73175e-07
0.00119744
-3.94861e-07
8.27983e-08
0.00119739
-4.64133e-07
4.77765e-07
0.00119736
-1.96676e-07
5.08524e-07
0.00119742
-6.31649e-07
1.42997e-08
0.00119749
-4.56457e-07
-2.18973e-07
0.00119756
-3.54591e-07
5.20206e-08
0.00119751
-3.61389e-07
4.60874e-07
0.00119748
-4.09386e-07
4.32681e-07
0.00119751
-4.5084e-07
-1.22796e-07
0.00119756
-5.64641e-07
-1.87766e-07
0.0011976
-3.46076e-07
-1.07642e-07
0.00119753
-4.59475e-07
5.1753e-07
0.00119751
-2.09492e-07
3.67841e-07
0.0011975
-7.85079e-07
-4.70379e-08
0.00119757
-3.00231e-07
-3.1156e-07
0.00119757
-5.87783e-07
-8.61159e-08
0.00119749
-3.53388e-07
4.2328e-07
0.00119742
-3.77686e-07
3.40852e-07
0.0011974
-6.58108e-07
-8.21335e-08
0.00119743
-4.8448e-07
-3.44021e-07
0.00119742
-4.55026e-07
-4.63155e-08
0.00119732
-5.20586e-07
4.62522e-07
0.00119725
-2.32895e-07
4.02559e-07
0.00119724
-8.04878e-07
-1.67155e-08
0.00119725
-5.09604e-07
-2.74415e-07
0.00119727
-3.4767e-07
-2.01785e-08
0.00119718
-7.75217e-07
4.8101e-07
0.00119713
-1.20306e-07
3.93779e-07
0.00119718
-8.33342e-07
-6.56883e-08
-6.67424e-07
-3.01751e-07
0.00107472
-2.26948e-07
1.73389e-07
0.00107465
-9.50861e-07
4.16975e-07
0.00107471
-1.35828e-07
2.44829e-08
0.00107477
-9.3666e-07
-9.97276e-08
0.0010748
-3.55203e-07
-9.65874e-08
0.00107485
-4.56502e-07
2.82456e-07
0.0010748
-6.32361e-07
3.81388e-07
0.00107489
-3.44391e-07
3.66613e-08
0.00107494
-7.59493e-07
-5.48375e-08
0.00107499
-3.68913e-07
-1.35309e-07
0.00107501
-4.18584e-07
3.76188e-07
0.00107497
-5.65032e-07
3.75135e-07
0.00107501
-3.49857e-07
1.95393e-07
0.00107509
-6.71467e-07
-1.34058e-07
0.00107511
-4.34111e-07
4.62814e-09
0.00107513
-4.13911e-07
2.33538e-07
0.00107507
-4.85878e-07
3.43171e-07
0.0010751
-5.50153e-07
9.70106e-08
0.00107513
-5.11193e-07
-2.39963e-07
0.00107514
-5.40135e-07
2.68737e-08
0.00107512
-4.11247e-07
9.80797e-08
0.00107504
-5.68244e-07
4.23709e-07
0.00107507
-3.75541e-07
5.94281e-09
0.00107505
-8.32204e-07
-1.9085e-07
0.00107507
-2.84346e-07
-1.03077e-07
0.00107499
-6.37486e-07
1.32878e-07
0.00107491
-4.5574e-07
3.41693e-07
0.00107489
-5.34585e-07
1.94965e-08
0.00107487
-6.75299e-07
-1.9009e-07
0.00107486
-4.72994e-07
-8.51426e-08
0.00107479
-4.80399e-07
2.15e-07
0.0010747
-6.29366e-07
3.8705e-07
0.00107469
-3.73881e-07
9.8674e-08
0.0010747
-8.3856e-07
-1.3696e-07
0.00107468
-4.54952e-07
-4.15403e-08
0.00107467
-4.06787e-07
2.15413e-07
0.00107459
-8.33546e-07
3.85984e-07
0.00107463
-2.60482e-07
5.05287e-08
0.00107469
-8.54094e-07
-1.77077e-07
-5.7682e-07
-7.38107e-08
0.00095614
-3.43192e-07
1.39312e-07
0.000956104
-9.09453e-07
1.79209e-07
0.000956219
-2.01762e-07
-1.3017e-07
0.000956226
-8.30294e-07
8.37905e-08
0.00095625
-3.4833e-07
7.15813e-08
0.000956308
-5.48076e-07
2.30288e-07
0.000956296
-6.23503e-07
1.21096e-07
0.000956402
-4.05894e-07
-8.88049e-08
0.000956396
-6.58342e-07
1.09774e-07
0.000956423
-3.96149e-07
5.06614e-08
0.000956437
-4.94114e-07
3.27105e-07
0.000956438
-6.29234e-07
6.63137e-08
0.000956491
-3.93202e-07
3.64286e-08
0.000956504
-6.37535e-07
-5.60898e-08
0.000956479
-4.4531e-07
1.80843e-07
0.000956488
-5.15572e-07
9.81714e-08
0.000956452
-5.44047e-07
1.11011e-07
0.000956483
-5.79372e-07
-7.29344e-08
0.000956449
-4.88991e-07
-9.31622e-08
0.000956429
-5.3921e-07
1.89578e-07
0.000956389
-5.12871e-07
1.81136e-08
0.000956351
-6.13379e-07
1.75552e-07
0.000956366
-4.25315e-07
-1.68643e-07
0.000956293
-7.70086e-07
-3.50714e-08
0.00095628
-2.98841e-07
8.81641e-08
0.000956191
-6.99763e-07
9.36017e-08
0.000956167
-5.05368e-07
1.2399e-07
0.000956149
-5.59431e-07
-1.03284e-07
0.000956103
-6.07011e-07
-1.17839e-08
0.000956068
-4.84544e-07
1.40304e-07
0.000956024
-5.41032e-07
1.63062e-07
0.00095599
-6.74703e-07
1.52463e-07
0.000956017
-3.98846e-07
-4.91513e-08
0.000956002
-7.78161e-07
-9.35845e-10
0.00095598
-4.25728e-07
1.47324e-07
0.000956017
-5.07434e-07
1.3896e-07
0.000955985
-8.1456e-07
1.40263e-07
0.000956069
-2.98034e-07
-1.0661e-07
0.000956083
-7.74101e-07
-2.14865e-09
-5.19661e-07
1.16692e-07
0.000840743
-3.90277e-07
4.31342e-08
0.000840697
-7.8033e-07
7.69016e-08
0.000840811
-2.52965e-07
-9.41796e-08
0.000840781
-7.21521e-07
1.98246e-07
0.000840823
-3.93288e-07
-4.10515e-08
0.000840871
-5.47288e-07
1.40294e-07
0.000840843
-5.53612e-07
-3.66038e-09
0.000840922
-4.33844e-07
-2.44317e-08
0.000840879
-5.79747e-07
1.7359e-07
0.000840909
-4.57495e-07
-3.30053e-08
0.000840916
-4.98591e-07
1.65219e-07
0.000840895
-6.01772e-07
-6.78072e-08
0.000840918
-3.95578e-07
5.39711e-08
0.000840888
-6.0621e-07
-1.51765e-08
0.000840866
-4.65385e-07
1.2925e-07
0.000840866
-5.38533e-07
-8.74773e-08
0.000840823
-5.00926e-07
8.50187e-08
0.000840825
-5.72447e-07
-8.66637e-08
0.000840767
-4.58012e-07
3.17319e-08
0.000840761
-5.52009e-07
1.04792e-07
0.00084071
-5.25941e-07
-9.82001e-08
0.000840688
-5.62721e-07
1.07283e-07
0.00084067
-4.23238e-07
-1.26423e-07
0.0008406
-7.01416e-07
9.30774e-08
0.000840607
-3.34488e-07
5.02665e-08
0.000840543
-6.7668e-07
-7.30818e-09
0.000840545
-4.74201e-07
7.87629e-08
0.000840521
-5.34111e-07
-5.6596e-08
0.000840496
-5.53442e-07
1.0707e-07
0.00084049
-5.08518e-07
8.67522e-08
0.000840492
-5.33165e-07
1.94593e-08
0.00084048
-6.22287e-07
8.21992e-08
0.000840521
-3.89457e-07
-4.44992e-08
0.000840513
-7.12792e-07
9.71803e-08
0.000840521
-4.17363e-07
6.77809e-08
0.00084059
-5.36607e-07
5.7323e-09
0.000840554
-6.94309e-07
6.90022e-08
0.000840648
-3.21234e-07
-7.86456e-08
0.00084064
-6.88402e-07
1.28709e-07
-5.05263e-07
3.16876e-08
0.000728831
-3.71255e-07
7.2473e-08
0.000728766
-6.56958e-07
-1.8008e-08
0.000728879
-2.9535e-07
-2.93753e-08
0.000728806
-6.03508e-07
1.2979e-07
0.000728858
-4.13303e-07
-1.44514e-07
0.000728867
-4.78844e-07
1.68367e-07
0.000728823
-5.0119e-07
-1.17028e-07
0.000728889
-4.34623e-07
5.12434e-08
0.000728817
-5.01713e-07
6.62305e-08
0.000728848
-4.67901e-07
-1.04353e-07
0.000728831
-4.40448e-07
1.14251e-07
0.000728794
-5.50398e-07
-1.02495e-07
0.000728811
-3.8459e-07
5.31425e-08
0.000728766
-5.43897e-07
-4.55625e-08
0.000728753
-4.44361e-07
5.7602e-08
0.00072874
-4.93794e-07
-1.19498e-07
0.000728703
-4.42118e-07
1.13602e-07
0.000728696
-5.46797e-07
-1.20348e-07
0.000728655
-4.03219e-07
6.81384e-08
0.000728658
-5.25546e-07
-6.35635e-09
0.00072861
-4.67654e-07
-6.55311e-08
0.000728612
-5.07727e-07
8.60523e-08
0.000728594
-3.97987e-07
-9.06566e-08
0.000728559
-6.23676e-07
9.20021e-08
0.000728582
-3.34731e-07
-2.8109e-08
0.000728547
-5.90825e-07
-1.59627e-09
0.00072856
-4.41396e-07
6.32257e-08
0.000728565
-4.9113e-07
-5.9845e-08
0.000728556
-4.91449e-07
1.05431e-07
0.000728573
-4.92256e-07
-3.72949e-08
0.0007286
-4.66963e-07
1.63982e-08
0.000728581
-5.52521e-07
4.05207e-08
0.000728651
-3.79382e-07
-5.06402e-08
0.00072863
-6.19363e-07
8.72715e-08
0.000728656
-3.90574e-07
-4.58671e-08
0.000728724
-5.04311e-07
1.93651e-08
0.000728666
-5.6738e-07
2.37735e-08
0.000728779
-3.56107e-07
-4.92769e-08
0.000728735
-5.76791e-07
1.04657e-07
-4.81318e-07
-7.98648e-08
0.000621667
-3.18043e-07
4.88014e-08
0.000621627
-5.42251e-07
-8.62143e-08
0.000621708
-3.15456e-07
3.57805e-08
0.000621611
-4.71852e-07
-2.25162e-08
0.000621686
-4.06286e-07
-8.2581e-08
0.00062164
-3.99113e-07
1.1034e-07
0.000621622
-4.38867e-07
-1.81e-07
0.000621665
-4.03431e-07
1.15628e-07
0.000621582
-4.11085e-07
-8.2231e-08
0.000621632
-4.39067e-07
-4.60341e-08
0.000621589
-3.67888e-07
4.9392e-08
0.000621569
-4.82178e-07
-1.00278e-07
0.000621586
-3.53984e-07
2.88043e-08
0.00062154
-4.5039e-07
-5.6358e-08
0.000621547
-4.10039e-07
2.43231e-08
0.00062153
-4.21281e-07
-1.11435e-07
0.000621516
-3.8094e-07
1.06721e-07
0.00062151
-4.94555e-07
-1.52911e-07
0.000621495
-3.32352e-07
7.95483e-08
0.000621503
-4.74562e-07
-5.60385e-08
0.000621472
-3.97212e-07
-3.4435e-08