/*--------------------------------*- C++ -*----------------------------------*\
  =========                 |
  \\      /  F ield         | OpenFOAM: The Open Source CFD Toolbox
   \\    /   O peration     | Website:  https://openfoam.org
    \\  /    A nd           | Version:  10
     \\/     M anipulation  |
\*---------------------------------------------------------------------------*/
FoamFile
{
    format      ascii;
    class       volScalarField;
    location    "50";
    object      pMean;
}
// * * * * * * * * * * * * * * * * * * * * * * * * * * * * * * * * * * * * * //

dimensions      [0 2 -2 0 0 0 0];

internalField   nonuniform List<scalar> 
25600
(
0.000111395
0.000112609
0.000109206
0.000106898
0.000108009
0.000105036
0.000101713
9.98622e-05
9.45253e-05
8.94142e-05
8.6241e-05
8.18265e-05
7.87827e-05
7.55613e-05
7.07842e-05
6.78312e-05
6.80263e-05
7.06385e-05
7.19906e-05
7.21327e-05
7.41151e-05
8.19264e-05
8.76e-05
8.76003e-05
9.32349e-05
9.86409e-05
9.99119e-05
0.000102902
0.000103271
0.000105053
0.000108073
0.000106003
0.000107017
0.000110436
0.000108643
0.000107631
0.00010967
0.000108939
0.000108881
0.000110219
0.000113851
0.000116361
0.000112138
0.000113216
0.000114143
0.000110886
0.000109154
0.000105474
9.95833e-05
9.34089e-05
8.82361e-05
8.3186e-05
7.73861e-05
7.20042e-05
6.87161e-05
6.46092e-05
6.25768e-05
6.61769e-05
6.57563e-05
6.49871e-05
6.83456e-05
7.36901e-05
7.87556e-05
8.06346e-05
8.54573e-05
8.89974e-05
9.11362e-05
9.43515e-05
9.4586e-05
9.68858e-05
9.88324e-05
9.82235e-05
9.9537e-05
0.000103123
0.000103733
0.000103706
0.000105472
0.000107343
0.000110517
0.00011055
0.000114213
0.000117166
0.000113507
0.000116815
0.0001161
0.000113782
0.000112787
0.00010671
0.000101487
9.38434e-05
8.60717e-05
8.06631e-05
7.19671e-05
6.45744e-05
6.23515e-05
5.76915e-05
5.44251e-05
5.79165e-05
5.6676e-05
5.59899e-05
6.00761e-05
6.31449e-05
6.74752e-05
7.199e-05
7.57057e-05
7.7179e-05
8.01908e-05
8.23821e-05
8.29866e-05
8.52369e-05
8.62967e-05
8.83444e-05
8.91784e-05
9.2471e-05
9.61018e-05
9.7053e-05
9.84438e-05
0.000102971
0.000108963
0.00010903
0.00011212
0.000114984
0.000113756
0.000117762
0.000115602
0.000115276
0.000113485
0.0001062
0.000101744
9.12577e-05
8.12273e-05
7.46377e-05
6.29703e-05
5.45605e-05
5.22817e-05
4.7356e-05
4.42212e-05
4.66518e-05
4.52625e-05
4.50278e-05
4.88107e-05
5.02443e-05
5.43803e-05
6.08474e-05
6.30712e-05
6.36743e-05
6.80799e-05
6.97929e-05
7.09542e-05
7.21469e-05
7.28948e-05
7.69444e-05
7.66385e-05
8.06325e-05
8.7395e-05
8.86627e-05
8.99943e-05
9.69521e-05
0.00010454
0.000105964
0.000102518
0.000105533
0.000107175
0.000110591
0.000108449
0.000109989
0.000106593
9.93484e-05
9.42848e-05
8.06079e-05
6.94779e-05
6.06865e-05
4.68794e-05
3.82567e-05
3.52279e-05
3.08e-05
2.72626e-05
2.72448e-05
2.63427e-05
2.66566e-05
2.98633e-05
3.09178e-05
3.49215e-05
4.1504e-05
4.18892e-05
4.20584e-05
4.67849e-05
4.76542e-05
4.8499e-05
4.92858e-05
5.13209e-05
5.6243e-05
5.55701e-05
6.14558e-05
7.00067e-05
7.17648e-05
7.5385e-05
8.48824e-05
9.29327e-05
9.62065e-05
8.7007e-05
8.92734e-05
9.26557e-05
9.48756e-05
9.40813e-05
9.73327e-05
9.33929e-05
8.7668e-05
8.02928e-05
6.3349e-05
5.10249e-05
3.90793e-05
2.39699e-05
1.47044e-05
1.04608e-05
7.57668e-06
3.96485e-06
2.61869e-06
2.66119e-06
2.62751e-06
5.27502e-06
6.5469e-06
1.05137e-05
1.77586e-05
1.8226e-05
1.94483e-05
2.40484e-05
2.37031e-05
2.35917e-05
2.4234e-05
2.6991e-05
3.01443e-05
3.04197e-05
3.93073e-05
4.84243e-05
5.07567e-05
5.72961e-05
6.78774e-05
7.60832e-05
8.16011e-05
5.61571e-05
5.68141e-05
6.10699e-05
6.2761e-05
6.42714e-05
6.83183e-05
6.43163e-05
5.96174e-05
4.90226e-05
3.14513e-05
1.80009e-05
1.90474e-06
-1.36643e-05
-2.35295e-05
-2.88326e-05
-3.01989e-05
-3.33562e-05
-3.34444e-05
-3.22194e-05
-3.33308e-05
-3.19364e-05
-3.29857e-05
-3.04823e-05
-2.3302e-05
-2.32311e-05
-2.1707e-05
-1.90365e-05
-2.14166e-05
-2.27635e-05
-2.20306e-05
-2.05257e-05
-1.96616e-05
-1.52728e-05
-1.89287e-06
8.57132e-06
1.36997e-05
2.41435e-05
3.63976e-05
4.58548e-05
5.288e-05
-3.53065e-06
-2.09557e-06
4.68949e-06
8.93619e-06
1.27996e-05
1.81686e-05
1.97517e-05
1.76471e-05
4.95588e-06
-1.19561e-05
-2.53033e-05
-4.38067e-05
-5.94029e-05
-7.00575e-05
-7.66145e-05
-7.8144e-05
-8.02331e-05
-7.74153e-05
-7.56033e-05
-7.60379e-05
-7.47847e-05
-7.88042e-05
-7.72903e-05
-6.96993e-05
-6.84099e-05
-6.74195e-05
-6.79031e-05
-7.44984e-05
-8.01793e-05
-8.51146e-05
-9.17175e-05
-9.44955e-05
-8.59369e-05
-6.90312e-05
-5.66445e-05
-4.91736e-05
-3.69402e-05
-2.35889e-05
-1.35764e-05
-5.52913e-06
-0.000101664
-9.58101e-05
-8.17334e-05
-6.89694e-05
-5.90492e-05
-5.19939e-05
-5.01017e-05
-5.2787e-05
-6.95236e-05
-8.91552e-05
-0.000104729
-0.000122276
-0.000133469
-0.000142692
-0.000148522
-0.000146436
-0.000143215
-0.000139713
-0.000140898
-0.000142544
-0.000147056
-0.000158548
-0.000159865
-0.00015457
-0.000156315
-0.000154764
-0.000151725
-0.000154547
-0.000161499
-0.000174438
-0.000193153
-0.000202396
-0.000190696
-0.000169515
-0.000155238
-0.000143738
-0.000127431
-0.000114858
-0.000109141
-0.000103767
-0.000193997
-0.00018445
-0.000162895
-0.000146861
-0.000139717
-0.00013479
-0.000129193
-0.000130316
-0.000149726
-0.000172806
-0.000193232
-0.000209656
-0.000218178
-0.000229057
-0.000236696
-0.000233473
-0.000224548
-0.00021364
-0.000205728
-0.000200023
-0.000205274
-0.000219117
-0.000217727
-0.000213321
-0.000221841
-0.000229008
-0.000231804
-0.00024053
-0.000256061
-0.000280013
-0.000309503
-0.000323258
-0.000306912
-0.000286993
-0.000274668
-0.000256584
-0.000230825
-0.00021148
-0.000201277
-0.00019503
-0.000237965
-0.000222892
-0.00019929
-0.000187636
-0.000189612
-0.00019093
-0.000190311
-0.000198571
-0.000222729
-0.00024579
-0.000263292
-0.000274076
-0.000278939
-0.000288173
-0.000291508
-0.000286339
-0.000281851
-0.000274803
-0.000263939
-0.000260327
-0.000275094
-0.000297731
-0.000307134
-0.000321001
-0.000343873
-0.000360425
-0.000376373
-0.000400676
-0.00042568
-0.000453661
-0.000480877
-0.000480347
-0.000444325
-0.000409261
-0.000381645
-0.000346397
-0.000310735
-0.000284249
-0.000261385
-0.000244943
-0.00032304
-0.000286308
-0.000239987
-0.0002226
-0.000234618
-0.000251837
-0.000271265
-0.000295406
-0.000324115
-0.000344218
-0.000360983
-0.000381069
-0.000406403
-0.000430003
-0.000438087
-0.000434304
-0.000429603
-0.000423391
-0.0004151
-0.000411663
-0.000422486
-0.000439294
-0.000452568
-0.00047404
-0.000494007
-0.000505865
-0.000532124
-0.000572552
-0.00060405
-0.000623998
-0.000637982
-0.000622754
-0.000580498
-0.000546969
-0.000518962
-0.000479942
-0.000442674
-0.000414126
-0.000379536
-0.000348031
-0.000446177
-0.000417308
-0.000387902
-0.000392659
-0.000423914
-0.000455028
-0.000484275
-0.000502958
-0.000516693
-0.000523376
-0.000531929
-0.000544741
-0.000562842
-0.000579161
-0.000581086
-0.000575474
-0.000575121
-0.000572937
-0.000555337
-0.00052616
-0.000509331
-0.000515208
-0.000532898
-0.000557085
-0.000574644
-0.000592918
-0.000634284
-0.000684479
-0.000719865
-0.000737655
-0.000742526
-0.000718106
-0.000673556
-0.000643322
-0.000617895
-0.000579096
-0.000544688
-0.000519852
-0.000491289
-0.000466379
-0.000622835
-0.000602166
-0.000590013
-0.000602648
-0.000621915
-0.000639257
-0.00064946
-0.000641359
-0.000641176
-0.000644264
-0.000648596
-0.000658237
-0.000671321
-0.0006734
-0.000668163
-0.000671524
-0.0006824
-0.000679092
-0.000645305
-0.000593444
-0.000566262
-0.000585855
-0.000627037
-0.000662051
-0.000680363
-0.000704361
-0.000754577
-0.000803225
-0.000828513
-0.000841049
-0.00084609
-0.000823909
-0.000788484
-0.000766657
-0.000737414
-0.000691067
-0.000653258
-0.000643296
-0.000642976
-0.000637703
-0.000757259
-0.000716025
-0.000686678
-0.000680493
-0.000689769
-0.000716941
-0.000724669
-0.000706767
-0.000709977
-0.000728437
-0.000743539
-0.000755911
-0.000757733
-0.000740143
-0.000724102
-0.00072857
-0.000735942
-0.000731477
-0.000711434
-0.000686934
-0.000691197
-0.000732984
-0.000768567
-0.000772911
-0.000764587
-0.000779156
-0.000818865
-0.000860158
-0.000901098
-0.000946806
-0.000979034
-0.00096085
-0.000917498
-0.000874669
-0.00082391
-0.000775074
-0.000759515
-0.000778404
-0.000796803
-0.000787498
-0.00081552
-0.000745067
-0.000688623
-0.000672847
-0.000710103
-0.000771887
-0.000790555
-0.000781049
-0.000794239
-0.00081306
-0.000833768
-0.000857197
-0.000861825
-0.000846639
-0.00084523
-0.00085365
-0.000851474
-0.000838844
-0.000821391
-0.000812321
-0.00083368
-0.000861601
-0.000854588
-0.000819881
-0.000805581
-0.000824969
-0.000853549
-0.000892766
-0.000961842
-0.00104085
-0.00107711
-0.00103467
-0.000956945
-0.000889918
-0.000836342
-0.00080594
-0.000811651
-0.000849776
-0.000875675
-0.000861296
-0.000844869
-0.000759778
-0.000684611
-0.000668037
-0.000729665
-0.000801608
-0.000809354
-0.00078628
-0.0007991
-0.000842565
-0.000901449
-0.000967533
-0.00099553
-0.000996749
-0.0010084
-0.001017
-0.00100051
-0.000950562
-0.000887162
-0.000862527
-0.000897503
-0.000928626
-0.000919527
-0.000896478
-0.000903065
-0.000921829
-0.000932538
-0.000969731
-0.00104943
-0.0011168
-0.00111081
-0.00103346
-0.000949664
-0.000894848
-0.000855
-0.000818386
-0.000814832
-0.000857759
-0.000893721
-0.000888691
-0.000930035
-0.000842177
-0.000749588
-0.000732042
-0.000806382
-0.000861658
-0.000831348
-0.000784927
-0.000819053
-0.000907068
-0.00100116
-0.00107202
-0.00107246
-0.00104717
-0.00104318
-0.00104509
-0.00103177
-0.000960022
-0.000885754
-0.0008916
-0.000970651
-0.00102727
-0.00103181
-0.00102224
-0.00102949
-0.001026
-0.00101264
-0.0010358
-0.00110439
-0.00115231
-0.00113379
-0.00107051
-0.00101434
-0.000985467
-0.000952228
-0.000887715
-0.000850904
-0.000886833
-0.000935276
-0.000951386
-0.000968179
-0.000879836
-0.000784805
-0.000788488
-0.00088391
-0.00091969
-0.000857067
-0.000802072
-0.000857334
-0.000970451
-0.00107278
-0.00112941
-0.00109426
-0.00103656
-0.001019
-0.00103086
-0.00103915
-0.000994768
-0.000971984
-0.0010331
-0.00113685
-0.00116736
-0.00112381
-0.00107469
-0.00105679
-0.00103986
-0.00101908
-0.00104404
-0.00111386
-0.00115229
-0.00114008
-0.00110164
-0.00105743
-0.00102151
-0.000965903
-0.000873062
-0.000830881
-0.000881784
-0.000945314
-0.000976017
-0.00094976
-0.000869902
-0.000777284
-0.000801302
-0.00091657
-0.000940929
-0.00084579
-0.000784496
-0.000861247
-0.000987297
-0.00109323
-0.00114553
-0.00109255
-0.00102618
-0.00101301
-0.00105113
-0.00108446
-0.00107061
-0.00109611
-0.00117202
-0.00123541
-0.00119379
-0.00109323
-0.00102966
-0.00102723
-0.00101327
-0.000998383
-0.00101046
-0.00104957
-0.00106287
-0.00105555
-0.00103842
-0.000995907
-0.00094118
-0.000869537
-0.000788023
-0.000786364
-0.000878074
-0.000941082
-0.000955667
-0.000893031
-0.000820283
-0.00072565
-0.000762718
-0.000879058
-0.000885428
-0.000773857
-0.000718021
-0.000816048
-0.000948834
-0.00105999
-0.00111033
-0.00104648
-0.00097471
-0.000965523
-0.00102721
-0.00108108
-0.0010921
-0.00112498
-0.00117141
-0.00118986
-0.00110301
-0.000983447
-0.000943362
-0.000972169
-0.000976668
-0.000962386
-0.000946602
-0.000947258
-0.000944358
-0.00095765
-0.00095478
-0.000890803
-0.000806564
-0.00073751
-0.00070459
-0.000760527
-0.000872306
-0.000897277
-0.000883837
-0.000770256
-0.000719805
-0.00062072
-0.000669494
-0.000781994
-0.000778132
-0.00066425
-0.000608155
-0.000708971
-0.000839042
-0.000952415
-0.000990389
-0.000914842
-0.000840012
-0.000841249
-0.000916293
-0.000965985
-0.0009828
-0.00102049
-0.00106818
-0.00107916
-0.000966922
-0.00083976
-0.000830642
-0.000882898
-0.000897323
-0.000890767
-0.000869458
-0.000862652
-0.000863123
-0.000885693
-0.00085735
-0.000751614
-0.000646392
-0.000582277
-0.000577291
-0.000666686
-0.00077093
-0.000746922
-0.000718901
-0.000618574
-0.000593704
-0.000505483
-0.000551342
-0.000652374
-0.000637996
-0.000519489
-0.000458991
-0.000554468
-0.000688929
-0.000799331
-0.00080774
-0.000704821
-0.000637935
-0.000666995
-0.000742792
-0.000774403
-0.000803864
-0.000857273
-0.000917098
-0.000924723
-0.000800233
-0.000689912
-0.000701113
-0.000752423
-0.000760034
-0.000743205
-0.000716869
-0.000704689
-0.000718676
-0.000746286
-0.000690024
-0.000568051
-0.00047438
-0.00043131
-0.000444104
-0.000526133
-0.000592317
-0.000541488
-0.00052904
-0.000461896
-0.000444625
-0.000377947
-0.000419363
-0.000497843
-0.000483657
-0.000367814
-0.000310034
-0.000402257
-0.000541445
-0.000654404
-0.000633982
-0.000514469
-0.000465411
-0.000516682
-0.000581127
-0.000579379
-0.000608044
-0.000663759
-0.000713502
-0.000715767
-0.000596969
-0.000501718
-0.000517124
-0.00054997
-0.000546145
-0.000515163
-0.000476935
-0.000468884
-0.000502605
-0.000538545
-0.000470899
-0.000358658
-0.000298718
-0.000297381
-0.000334465
-0.000401989
-0.000421815
-0.000353518
-0.000362689
-0.000283529
-0.000264956
-0.000225042
-0.000263259
-0.000319344
-0.000313106
-0.000213278
-0.000163186
-0.000256824
-0.000399686
-0.000504646
-0.000464812
-0.00034964
-0.000319165
-0.000370941
-0.000409207
-0.000381873
-0.000401125
-0.000439854
-0.000479771
-0.000488141
-0.000385693
-0.000305124
-0.000308038
-0.000316928
-0.000303473
-0.000271315
-0.00024251
-0.000255934
-0.000308996
-0.000347373
-0.000277776
-0.000184259
-0.000158554
-0.000197438
-0.000251446
-0.000293992
-0.000268138
-0.00017711
-0.000189748
-0.000100498
-8.84712e-05
-5.38702e-05
-8.80584e-05
-0.000134877
-0.000141841
-8.02301e-05
-4.90408e-05
-0.00013251
-0.000255896
-0.000340851
-0.000295999
-0.000196364
-0.000171051
-0.000207431
-0.000227441
-0.00019553
-0.000196339
-0.000212122
-0.000251375
-0.000276931
-0.000196774
-0.000125048
-0.000115881
-0.000106642
-8.72593e-05
-7.16602e-05
-6.47276e-05
-9.94187e-05
-0.000167291
-0.000204065
-0.000126298
-4.23683e-05
-3.77292e-05
-0.000104053
-0.000158098
-0.000171371
-0.000113247
-1.13936e-06
-9.37541e-06
6.70968e-05
6.16131e-05
0.000101933
8.33775e-05
3.14959e-05
1.00035e-06
2.71573e-05
4.45557e-05
-1.67688e-05
-0.000113563
-0.000186766
-0.000150196
-6.53401e-05
-3.10384e-05
-4.67004e-05
-5.54758e-05
-2.77772e-05
-2.79025e-05
-2.6172e-05
-6.03803e-05
-9.30027e-05
-3.21915e-05
3.3303e-05
4.88369e-05
5.87401e-05
7.37437e-05
8.09671e-05
8.01713e-05
2.70121e-05
-6.09731e-05
-0.000107881
-2.49804e-05
6.1805e-05
6.38554e-05
-6.89918e-07
-4.37259e-05
-3.00227e-05
5.0881e-05
0.000173914
0.00016993
0.000205123
0.000185007
0.000221967
0.000214469
0.000157361
0.000112483
0.000122078
0.000133964
8.55853e-05
8.04332e-06
-5.60001e-05
-3.02616e-05
4.36708e-05
8.99155e-05
9.61962e-05
9.59501e-05
0.000110832
0.000103321
0.000111184
7.79701e-05
3.70687e-05
9.25218e-05
0.000152351
0.000165607
0.000171929
0.000185767
0.000197685
0.000202176
0.000143385
3.94524e-05
-2.51053e-05
6.01201e-05
0.00015575
0.000164723
0.000110868
8.35151e-05
0.000106859
0.000198799
0.000324377
0.000315597
0.000306787
0.000275422
0.000306892
0.000298865
0.000246174
0.000201515
0.000203291
0.000206385
0.000160122
9.90113e-05
4.95209e-05
6.97598e-05
0.000132341
0.000181922
0.000197486
0.000200959
0.000213054
0.000198458
0.000204098
0.000172386
0.000131815
0.000178782
0.000236129
0.000248069
0.000248187
0.000260382
0.000274267
0.000282765
0.000227357
0.000121317
5.41422e-05
0.00013611
0.000232872
0.000251817
0.000209111
0.000188116
0.000214445
0.000304317
0.000422755
0.000414636
0.000361203
0.000328896
0.000353532
0.000344993
0.000299281
0.000260428
0.000261958
0.000259449
0.000210552
0.00015554
0.000116252
0.000136466
0.000191488
0.000235677
0.000255672
0.000265301
0.000276006
0.000260201
0.000264923
0.000230543
0.000186385
0.000230314
0.000287
0.00029707
0.000292316
0.000301659
0.000313459
0.000322796
0.000271522
0.000169649
0.000104996
0.000185793
0.000279563
0.000301626
0.000265441
0.000246675
0.000271107
0.000354154
0.000464003
0.000458911
0.000379606
0.000347557
0.000370682
0.000362663
0.0003224
0.000288014
0.000289036
0.00028585
0.000237005
0.00018107
0.000143551
0.000163865
0.000213777
0.000255397
0.000277265
0.000290231
0.000301582
0.000285565
0.000287318
0.000252031
0.00020829
0.000248863
0.000304517
0.000313902
0.000307759
0.000316355
0.000327169
0.000335824
0.000286227
0.000188281
0.000126158
0.000205323
0.000297106
0.000319255
0.000286677
0.000271651
0.000294077
0.000371282
0.00047627
0.000472915
0.000385673
0.00035261
0.000373999
0.000365626
0.000327252
0.000295788
0.000297487
0.000292759
0.000241506
0.00018558
0.000148775
0.000168219
0.000217083
0.000259041
0.0002833
0.000296851
0.000307786
0.000290193
0.000290743
0.000255921
0.000212647
0.000252433
0.000306856
0.000314766
0.000309158
0.000318632
0.00032973
0.000338337
0.000288121
0.000191319
0.000130353
0.000210253
0.000301069
0.000323055
0.000292503
0.000278487
0.000299537
0.000374932
0.000479648
0.000477486
0.000110254
0.000111587
0.000107996
0.00010567
0.000107168
0.000104164
0.000100466
9.90787e-05
9.42758e-05
8.87675e-05
8.5584e-05
8.19694e-05
7.82108e-05
7.4609e-05
7.06426e-05
6.73671e-05
6.79236e-05
7.07873e-05
7.18523e-05
7.22466e-05
7.39558e-05
8.16352e-05
8.78313e-05
8.8198e-05
9.35206e-05
9.87885e-05
0.000100615
0.000103259
0.000103345
0.000105313
0.000108186
0.000105913
0.000106541
0.000110086
0.000108426
0.000107307
0.000109126
0.000108375
0.000108314
0.00010913
0.000112701
0.000115049
0.000110418
0.000111579
0.000112829
0.000109726
0.000107594
0.000104219
9.8878e-05
9.24553e-05
8.76894e-05
8.31717e-05
7.64414e-05
7.12047e-05
6.87057e-05
6.44062e-05
6.31678e-05
6.67748e-05
6.5884e-05
6.54744e-05
6.84552e-05
7.37054e-05
7.94859e-05
8.19196e-05
8.62877e-05
8.97939e-05
9.27878e-05
9.5358e-05
9.5133e-05
9.78644e-05
9.95873e-05
9.85772e-05
9.95812e-05
0.000103149
0.000103806
0.000103682
0.000105315
0.000107015
0.000109908
0.000109459
0.00011196
0.000114306
0.000110291
0.000113812
0.000113473
0.000111534
0.000110227
0.000104577
9.97374e-05
9.21378e-05
8.54482e-05
7.99966e-05
7.06773e-05
6.3905e-05
6.22319e-05
5.77305e-05
5.51134e-05
5.83069e-05
5.68626e-05
5.6522e-05
6.01193e-05
6.34444e-05
6.88159e-05
7.35813e-05
7.68063e-05
7.88788e-05
8.25953e-05
8.39546e-05
8.41277e-05
8.67244e-05
8.71073e-05
8.85426e-05
8.92636e-05
9.23975e-05
9.59409e-05
9.66493e-05
9.78019e-05
0.000101944
0.00010729
0.000106905
0.000106333
0.000108366
0.000106871
0.000111405
0.000110222
0.000111059
0.000109726
0.000103055
9.8908e-05
8.86807e-05
7.92525e-05
7.23627e-05
6.08893e-05
5.30045e-05
5.07371e-05
4.66127e-05
4.36789e-05
4.53542e-05
4.41967e-05
4.40921e-05
4.74274e-05
4.9732e-05
5.50407e-05
6.13636e-05
6.37207e-05
6.5429e-05
6.99848e-05
7.09207e-05
7.16917e-05
7.2625e-05
7.21512e-05
7.53889e-05
7.52055e-05
7.87977e-05
8.50089e-05
8.60248e-05
8.7355e-05
9.38433e-05
9.99613e-05
0.000100568
9.18145e-05
9.40648e-05
9.60889e-05
0.000100792
0.000100053
0.000103268
0.000101158
9.52188e-05
9.08776e-05
7.72075e-05
6.50854e-05
5.55762e-05
4.26795e-05
3.43135e-05
3.1328e-05
2.85029e-05
2.47886e-05
2.43403e-05
2.42161e-05
2.44016e-05
2.77646e-05
3.07391e-05
3.58496e-05
4.18536e-05
4.32499e-05
4.47785e-05
4.92709e-05
4.9514e-05
4.96727e-05
4.89167e-05
4.84728e-05
5.18132e-05
5.0937e-05
5.58372e-05
6.34475e-05
6.43283e-05
6.80643e-05
7.70669e-05
8.35829e-05
8.61804e-05
7.08368e-05
7.39112e-05
7.90025e-05
8.36798e-05
8.44483e-05
8.86969e-05
8.58361e-05
8.14198e-05
7.43246e-05
5.65648e-05
4.25128e-05
3.03813e-05
1.75294e-05
9.43023e-06
6.25163e-06
5.24229e-06
8.92531e-07
-5.97488e-07
4.54325e-09
-5.86896e-07
3.32515e-06
6.64386e-06
9.80286e-06
1.59338e-05
1.83606e-05
2.06064e-05
2.47732e-05
2.43806e-05
2.32173e-05
2.154e-05
2.15747e-05
2.35995e-05
2.34847e-05
3.07064e-05
3.82914e-05
3.87251e-05
4.4598e-05
5.47281e-05
6.07663e-05
6.5355e-05
3.54976e-05
3.89006e-05
4.80517e-05
5.41889e-05
5.75442e-05
6.21951e-05
5.97294e-05
5.6942e-05
4.61605e-05
2.4754e-05
9.28333e-06
-4.72794e-06
-1.65184e-05
-2.42117e-05
-2.70411e-05
-2.7932e-05
-3.29533e-05
-3.34049e-05
-3.18405e-05
-3.25498e-05
-2.832e-05
-2.81686e-05
-2.83943e-05
-2.24701e-05
-2.08107e-05
-2.08451e-05
-2.07607e-05
-2.51382e-05
-2.89416e-05
-3.12206e-05
-3.26336e-05
-3.23636e-05
-2.9524e-05
-1.84818e-05
-9.47538e-06
-5.14718e-06
5.45489e-06
1.71507e-05
2.38869e-05
3.07638e-05
-7.04134e-06
-4.95167e-06
2.9344e-06
7.68129e-06
1.05762e-05
1.47753e-05
1.52196e-05
1.24653e-05
-2.06626e-06
-2.23417e-05
-3.53946e-05
-4.99036e-05
-6.14924e-05
-6.8856e-05
-7.08184e-05
-7.07444e-05
-7.35213e-05
-7.06518e-05
-6.73596e-05
-6.62215e-05
-6.18723e-05
-6.52055e-05
-6.54915e-05
-5.5925e-05
-5.09936e-05
-4.85207e-05
-4.82715e-05
-5.5235e-05
-6.37831e-05
-7.24225e-05
-8.0987e-05
-8.42855e-05
-7.94951e-05
-6.77376e-05
-5.82154e-05
-4.99277e-05
-3.57974e-05
-2.2676e-05
-1.58936e-05
-9.16344e-06
-6.60033e-05
-5.98503e-05
-4.44425e-05
-3.42866e-05
-2.88037e-05
-2.12692e-05
-1.86123e-05
-2.27258e-05
-3.78509e-05
-5.54332e-05
-6.88298e-05
-8.60194e-05
-9.85039e-05
-0.000108419
-0.000113332
-0.000113038
-0.000112305
-0.000109026
-0.000107998
-0.000107652
-0.000108307
-0.000117774
-0.000118215
-0.000110973
-0.000109061
-0.000106836
-0.000104537
-0.000109579
-0.000120882
-0.000137234
-0.000156711
-0.000167644
-0.000162942
-0.000150047
-0.000138679
-0.000123253
-0.000102147
-8.59778e-05
-7.71487e-05
-6.87854e-05
-0.000143255
-0.000131665
-0.000111884
-0.000102744
-9.92064e-05
-8.97058e-05
-8.26914e-05
-8.41882e-05
-9.9222e-05
-0.00011749
-0.000132933
-0.000148275
-0.000158057
-0.000169384
-0.000175028
-0.000168138
-0.000159304
-0.000153465
-0.000152124
-0.000153717
-0.000162525
-0.000174514
-0.000173541
-0.000174515
-0.000183033
-0.000187665
-0.000191703
-0.000202778
-0.000217435
-0.00023723
-0.000259512
-0.000269804
-0.000261977
-0.000250578
-0.000240621
-0.000217993
-0.000188409
-0.000167286
-0.000155461
-0.000146514
-0.000255104
-0.000237138
-0.00020972
-0.000191896
-0.000180533
-0.000164534
-0.000154726
-0.000156613
-0.000174608
-0.000191167
-0.00020088
-0.000207712
-0.000214367
-0.000227802
-0.000231234
-0.000218613
-0.000208992
-0.000206152
-0.000206814
-0.000210367
-0.000220224
-0.000233079
-0.000236236
-0.000243944
-0.000260076
-0.000272813
-0.000291838
-0.000320744
-0.000345988
-0.000368748
-0.000387268
-0.00038487
-0.00037058
-0.000366268
-0.000359825
-0.000336368
-0.000307349
-0.000289198
-0.00027404
-0.000261508
-0.00036615
-0.000335958
-0.000290079
-0.000257662
-0.000239403
-0.000225504
-0.000219319
-0.00022355
-0.000244757
-0.000263468
-0.000275313
-0.000288944
-0.000310288
-0.000331043
-0.000330531
-0.00031278
-0.000305365
-0.00030717
-0.000305628
-0.000302887
-0.000307407
-0.00031961
-0.000322206
-0.000326179
-0.000337518
-0.000354418
-0.000388225
-0.000428276
-0.000460105
-0.00048769
-0.000502786
-0.000486366
-0.000465428
-0.000470855
-0.00046993
-0.000445231
-0.000424811
-0.000417733
-0.000401776
-0.000381837
-0.00046027
-0.000418294
-0.000364409
-0.000322258
-0.000296429
-0.000277518
-0.000268073
-0.000272823
-0.000295667
-0.000317187
-0.000332671
-0.000355281
-0.000382458
-0.000404695
-0.00040226
-0.000387907
-0.000385881
-0.000388334
-0.000386564
-0.000385033
-0.000392641
-0.000414624
-0.000427142
-0.000426812
-0.000420445
-0.000429073
-0.000462304
-0.000500653
-0.000539665
-0.000575119
-0.000591006
-0.000568808
-0.000541341
-0.00054052
-0.000539438
-0.000521718
-0.000520047
-0.000526726
-0.000514094
-0.000488928
-0.000526432
-0.000462519
-0.000404994
-0.000368273
-0.000339432
-0.000313454
-0.000304059
-0.000315765
-0.00035271
-0.000380005
-0.000395425
-0.00042672
-0.000460793
-0.000476017
-0.000465817
-0.000461875
-0.000474463
-0.000480404
-0.000483081
-0.000493021
-0.000518391
-0.000549818
-0.000560026
-0.000550348
-0.000535922
-0.000538686
-0.000555204
-0.000577824
-0.000619409
-0.000663512
-0.000679836
-0.000645437
-0.000599041
-0.000584685
-0.000574354
-0.000567275
-0.000598101
-0.000635766
-0.000629164
-0.000586599
-0.000541132
-0.000477282
-0.000437058
-0.000413759
-0.000380793
-0.000340832
-0.000322456
-0.000343875
-0.000394528
-0.000426973
-0.000445017
-0.000488905
-0.000547519
-0.000579926
-0.000577987
-0.000587138
-0.000605104
-0.000607236
-0.000605551
-0.000618837
-0.000652012
-0.00069039
-0.00070603
-0.000701694
-0.000684495
-0.000666133
-0.000646241
-0.000644185
-0.000679879
-0.000722818
-0.000734546
-0.000694101
-0.00065325
-0.000652897
-0.000647703
-0.000648328
-0.000693208
-0.000735043
-0.000708218
-0.000626251
-0.000537692
-0.00049789
-0.00048016
-0.000457001
-0.000407206
-0.000355044
-0.000344137
-0.000390483
-0.000463564
-0.000495762
-0.000506682
-0.000558678
-0.000636738
-0.000677769
-0.000682947
-0.000698558
-0.000711791
-0.000704301
-0.000693699
-0.000707823
-0.000753674
-0.000818853
-0.000875775
-0.000898499
-0.000880962
-0.000833025
-0.000779184
-0.000760771
-0.000783181
-0.00080914
-0.000809137
-0.000777758
-0.000756357
-0.000757833
-0.000732678
-0.000712687
-0.000742531
-0.000774266
-0.000729043
-0.000623354
-0.000582622
-0.000544896
-0.000516222
-0.000473943
-0.000429609
-0.000396527
-0.000408624
-0.000478485
-0.000556224
-0.000588213
-0.000601088
-0.000652875
-0.000711753
-0.000732498
-0.000735336
-0.000755861
-0.000769671
-0.00076137
-0.000757539
-0.000786871
-0.000854193
-0.000948904
-0.00102868
-0.00105737
-0.00102522
-0.000941546
-0.000865182
-0.000842951
-0.000855307
-0.000862294
-0.000865747
-0.000855634
-0.000852897
-0.000843308
-0.000796384
-0.000762334
-0.000784729
-0.000817935
-0.000773517
-0.000666751
-0.000696777
-0.000640704
-0.000575038
-0.000513056
-0.000491642
-0.000500873
-0.00054795
-0.000633592
-0.000715247
-0.000754393
-0.000776294
-0.000810537
-0.000814896
-0.000786623
-0.000781382
-0.000812842
-0.000830571
-0.000826212
-0.000842968
-0.000896748
-0.000985758
-0.00108994
-0.0011534
-0.0011542
-0.00109083
-0.000987072
-0.000907607
-0.000891355
-0.000902033
-0.000904076
-0.00092134
-0.000935607
-0.000943034
-0.000925827
-0.000874352
-0.000844388
-0.000877379
-0.000924984
-0.000884248
-0.000778414
-0.000786266
-0.000711835
-0.000600119
-0.000517083
-0.000512353
-0.000562539
-0.000651785
-0.00074038
-0.000804512
-0.000830795
-0.000856254
-0.000875482
-0.000841445
-0.00078865
-0.00079466
-0.000855943
-0.000886054
-0.000892336
-0.000927209
-0.000984653
-0.00106407
-0.00114849
-0.00118145
-0.00116286
-0.00109102
-0.000998295
-0.000946554
-0.000946974
-0.000950364
-0.000947564
-0.000984553
-0.00101868
-0.00101961
-0.000987703
-0.000931465
-0.000905583
-0.000941805
-0.000993853
-0.000954286
-0.00085911
-0.000781641
-0.000692728
-0.000546808
-0.000455473
-0.000475602
-0.000572569
-0.000693949
-0.00076257
-0.000789945
-0.000805139
-0.00084583
-0.000858688
-0.000807665
-0.000755547
-0.000783633
-0.000863488
-0.00090278
-0.000921094
-0.000962698
-0.0010044
-0.0010575
-0.00110936
-0.00110921
-0.00107985
-0.00102132
-0.000966338
-0.000951316
-0.000960933
-0.000950981
-0.000950243
-0.00101894
-0.00107081
-0.00106376
-0.00101601
-0.000950293
-0.000914379
-0.000937271
-0.000981113
-0.000935118
-0.000846535
-0.000743796
-0.000656039
-0.000494334
-0.000404402
-0.000440705
-0.000562415
-0.000685956
-0.00072049
-0.000716894
-0.000736855
-0.000807107
-0.00082967
-0.000783099
-0.000739659
-0.000771878
-0.000845483
-0.000877425
-0.000903817
-0.000936438
-0.00094824
-0.000976734
-0.00100161
-0.000984948
-0.000965208
-0.00093577
-0.000918739
-0.000930632
-0.000948637
-0.000929296
-0.000934999
-0.00102322
-0.00107688
-0.00105715
-0.000997536
-0.000927277
-0.000885721
-0.00089185
-0.000913606
-0.000857426
-0.000785322
-0.000696343
-0.000611066
-0.000434408
-0.000333799
-0.000374784
-0.000512069
-0.00062285
-0.000631167
-0.000622399
-0.00066886
-0.00077734
-0.000819281
-0.000782414
-0.000745149
-0.000779061
-0.00084714
-0.00086465
-0.000870944
-0.000863166
-0.000848845
-0.000862678
-0.000878339
-0.000872215
-0.000872982
-0.000863856
-0.000872158
-0.000901846
-0.000929915
-0.000911079
-0.000931234
-0.00102302
-0.00105474
-0.00101369
-0.000939495
-0.000870704
-0.000840437
-0.000840739
-0.000839832
-0.000772059
-0.000718771
-0.000649774
-0.000563034
-0.000364176
-0.000244855
-0.000291501
-0.000434006
-0.000524788
-0.000533086
-0.000545236
-0.000626982
-0.000768935
-0.000819075
-0.000785323
-0.000757942
-0.000808267
-0.000865863
-0.000862911
-0.000842103
-0.000794086
-0.000756883
-0.000760224
-0.000776022
-0.000781596
-0.000787778
-0.000787069
-0.000813813
-0.000864864
-0.000906598
-0.000888586
-0.000917044
-0.0010001
-0.00100887
-0.000950919
-0.000860278
-0.000799747
-0.000792972
-0.000799541
-0.000777216
-0.000695671
-0.000658655
-0.000580907
-0.000482909
-0.00025764
-0.000115025
-0.000164464
-0.000312417
-0.000402959
-0.000437804
-0.000476712
-0.000579082
-0.000729142
-0.00076968
-0.000737767
-0.000729902
-0.000798624
-0.000850846
-0.000834868
-0.000801472
-0.000728783
-0.000664687
-0.000651407
-0.000658479
-0.00066391
-0.00066434
-0.000670213
-0.000728258
-0.000805881
-0.000852114
-0.00083186
-0.000858382
-0.0009316
-0.000927078
-0.000856768
-0.000754006
-0.000703898
-0.0007239
-0.000740869
-0.000694922
-0.000603538
-0.000582908
-0.000478246
-0.000376116
-0.000127153
3.92847e-05
-1.61986e-05
-0.000171579
-0.000274863
-0.000335611
-0.000392402
-0.000501348
-0.000639954
-0.000661174
-0.000629285
-0.000640592
-0.000728143
-0.000786445
-0.000769518
-0.000732669
-0.000642651
-0.000557483
-0.000527938
-0.000522598
-0.0005163
-0.000506662
-0.000522267
-0.000613947
-0.000711028
-0.000753621
-0.00072213
-0.000743229
-0.000817819
-0.00080602
-0.000731339
-0.000622823
-0.000581141
-0.000624283
-0.000654194
-0.000591031
-0.000494416
-0.000479405
-0.000366955
-0.000262178
-4.33494e-06
0.000168412
0.000116088
-3.39124e-05
-0.000144257
-0.000224647
-0.000293301
-0.000402634
-0.000525668
-0.000528599
-0.000483132
-0.000499321
-0.000606625
-0.000680729
-0.000669132
-0.000629607
-0.000533191
-0.000444186
-0.000410488
-0.000396135
-0.000383553
-0.000365986
-0.000379154
-0.000486008
-0.000582079
-0.000607266
-0.000560849
-0.000583443
-0.000667435
-0.000655675
-0.000588458
-0.000490031
-0.000458794
-0.000515691
-0.0005501
-0.000481123
-0.00038345
-0.000367392
-0.000259233
-0.000155446
0.000107371
0.000289498
0.000237855
9.40856e-05
-1.53972e-05
-0.000102079
-0.000175298
-0.000285909
-0.000403528
-0.000390515
-0.000329316
-0.00033993
-0.000456493
-0.000544247
-0.000547083
-0.000513551
-0.000414835
-0.000328568
-0.000301535
-0.000284875