/*--------------------------------*- C++ -*----------------------------------*\
  =========                 |
  \\      /  F ield         | OpenFOAM: The Open Source CFD Toolbox
   \\    /   O peration     | Website:  https://openfoam.org
    \\  /    A nd           | Version:  10
     \\/     M anipulation  |
\*---------------------------------------------------------------------------*/
FoamFile
{
    format      ascii;
    class       surfaceScalarField;
    location    "42.5";
    object      phi;
}
// * * * * * * * * * * * * * * * * * * * * * * * * * * * * * * * * * * * * * //

dimensions      [0 3 -1 0 0 0 0];

internalField   nonuniform List<scalar> 
300480
(
7.84271e-06
-4.95551e-09
-8.71566e-09
7.82871e-06
1.91072e-08
-6.53753e-09
7.83989e-06
-4.37289e-09
-7.07021e-09
7.83371e-06
1.21831e-08
-8.43237e-09
7.83276e-06
6.57395e-09
-5.53138e-09
7.84021e-06
-6.30843e-10
-9.32864e-09
7.82788e-06
1.79208e-08
-5.68798e-09
7.84096e-06
-6.07383e-09
-9.23413e-09
7.83114e-06
1.56036e-08
-6.18257e-09
7.8345e-06
3.162e-09
-8.65001e-09
7.83856e-06
2.54707e-09
-7.18752e-09
7.82912e-06
1.56627e-08
-7.64195e-09
7.84039e-06
-4.13258e-09
-8.31629e-09
7.83175e-06
1.49605e-08
-7.37358e-09
7.83599e-06
2.47596e-09
-7.60603e-09
7.83679e-06
6.11999e-09
-8.60187e-09
7.83351e-06
1.00563e-08
-6.31756e-09
7.83757e-06
3.06391e-09
-9.42647e-09
7.8356e-06
8.61286e-09
-6.27294e-09
7.83537e-06
7.2257e-09
-8.24967e-09
7.83812e-06
4.08814e-09
-7.5311e-09
7.83579e-06
9.33221e-09
-7.58707e-09
7.83545e-06
7.1665e-09
-6.92502e-09
7.8407e-06
1.72914e-09
-8.58331e-09
7.83273e-06
1.45323e-08
-6.03931e-09
7.83986e-06
-3.88497e-10
-8.12809e-09
7.83765e-06
9.35084e-09
-7.32058e-09
7.83447e-06
9.34697e-09
-6.90001e-09
7.84091e-06
4.3689e-10
-7.16149e-09
7.83387e-06
1.35294e-08
-8.06287e-09
7.84069e-06
-4.38699e-10
-5.63e-09
7.8339e-06
1.35174e-08
-8.70768e-09
7.83861e-06
1.6596e-09
-5.88036e-09
7.83891e-06
6.01679e-09
-8.23086e-09
7.83087e-06
1.39343e-08
-5.24873e-09
7.84463e-06
-6.92081e-09
-9.42942e-09
7.8295e-06
2.08533e-08
-4.81108e-09
7.83921e-06
-3.18837e-09
-8.35715e-09
7.83778e-06
7.62178e-09
-7.32614e-09
1.24868e-08
-5.65566e-09
2.6584e-05
2.9416e-09
-2.38529e-08
2.65646e-05
5.55326e-08
-2.17372e-08
2.65824e-05
-1.35762e-09
-2.22574e-08
2.65687e-05
4.41438e-08
-2.49762e-08
2.65726e-05
2.17215e-08
-1.94806e-08
2.65777e-05
1.4355e-08
-2.7586e-08
2.65632e-05
5.10337e-08
-1.90461e-08
2.65813e-05
-3.20657e-09
-2.80876e-08
2.65645e-05
5.11679e-08
-1.98394e-08
2.65741e-05
1.42965e-08
-2.74449e-08
2.65744e-05
2.2552e-08
-2.15877e-08
2.65652e-05
4.50648e-08
-2.57699e-08
2.65799e-05
2.84872e-09
-2.38938e-08
2.65664e-05
4.86507e-08
-2.46388e-08
2.6576e-05
1.4263e-08
-2.34495e-08
2.65737e-05
2.99386e-08
-2.63877e-08
2.65723e-05
3.28357e-08
-2.11728e-08
2.65771e-05
2.02005e-08
-2.81394e-08
2.65746e-05
3.22891e-08
-2.02771e-08
2.65757e-05
2.81137e-08
-2.67044e-08
2.65791e-05
2.20321e-08
-2.22538e-08
2.65761e-05
3.42559e-08
-2.49335e-08
2.65774e-05
2.71193e-08
-2.17245e-08
2.65833e-05
1.75222e-08
-2.62059e-08
2.65731e-05
4.55114e-08
-1.9872e-08
2.65849e-05
9.01836e-09
-2.58823e-08
2.65787e-05
3.71391e-08
-2.15348e-08
2.65779e-05
2.99686e-08
-2.33448e-08
2.65849e-05
1.46694e-08
-2.19031e-08
2.65755e-05
4.31045e-08
-2.45258e-08
2.65857e-05
9.5311e-09
-1.9118e-08
2.65746e-05
4.51605e-08
-2.62226e-08
2.65837e-05
1.23068e-08
-1.86774e-08
2.658e-05
2.93615e-08
-2.54739e-08
2.65727e-05
4.02365e-08
-1.7867e-08
2.65891e-05
-2.96596e-09
-2.73732e-08
2.65669e-05
6.13907e-08
-1.63921e-08
2.65844e-05
-6.67631e-10
-2.66781e-08
2.65757e-05
3.51414e-08
-1.99949e-08
3.5001e-08
-2.18537e-08
5.06417e-05
2.73845e-08
-3.99434e-08
5.06207e-05
1.0786e-07
-4.03962e-08
5.06398e-05
1.58236e-08
-3.8534e-08
5.06229e-05
9.37704e-08
-4.42431e-08
5.06284e-05
5.05508e-08
-3.53647e-08
5.06314e-05
4.65239e-08
-4.80429e-08
5.06165e-05
9.97584e-08
-3.463e-08
5.06353e-05
1.45521e-08
-4.9185e-08
5.06159e-05
1.04564e-07
-3.57478e-08
5.06274e-05
3.93134e-08
-4.8659e-08
5.06257e-05
6.04218e-08
-3.81419e-08
5.06172e-05
8.98204e-08
-4.674e-08
5.06322e-05
2.58519e-08
-4.12903e-08
5.06176e-05
9.96725e-08
-4.5226e-08
5.0629e-05
4.087e-08
-4.10263e-08
5.06255e-05
7.16092e-08
-4.74093e-08
5.06256e-05
7.10141e-08
-3.83074e-08
5.06305e-05
5.42333e-08
-4.97007e-08
5.06285e-05
7.22417e-08
-3.68563e-08
5.06303e-05
6.54098e-08
-4.81693e-08
5.06345e-05
5.61662e-08
-3.92634e-08
5.06318e-05
7.60295e-08
-4.56879e-08
5.06344e-05
6.27401e-08
-3.86119e-08
5.06407e-05
4.99004e-08
-4.70876e-08
5.06306e-05
9.30413e-08
-3.61682e-08
5.06442e-05
3.34762e-08
-4.66286e-08
5.0637e-05
8.27678e-08
-3.80077e-08
5.0638e-05
6.50879e-08
-4.30981e-08
5.06448e-05
4.57628e-08
-3.86511e-08
5.06354e-05
8.86269e-08
-4.40844e-08
5.06467e-05
3.46853e-08
-3.50049e-08
5.06343e-05
9.41168e-08
-4.62468e-08
5.06453e-05
3.69068e-08
-3.39604e-08
5.06397e-05
7.02662e-08
-4.54102e-08
5.06332e-05
8.1116e-08
-3.27177e-08
5.06498e-05
1.65989e-08
-4.77082e-08
5.06253e-05
1.18947e-07
-3.04905e-08
5.06451e-05
1.50553e-08
-4.71911e-08
5.06331e-05
8.08722e-08
-3.46073e-08
7.10767e-08
-4.109e-08
8.09797e-05
7.09057e-08
-5.78441e-08
8.09575e-05
1.77751e-07
-6.15169e-08
8.09773e-05
4.99846e-08
-5.60983e-08
8.09573e-05
1.62707e-07
-6.58209e-08
8.09639e-05
9.54711e-08
-5.24399e-08
8.09645e-05
9.81166e-08
-7.07664e-08
8.0949e-05
1.65863e-07
-5.14512e-08
8.09675e-05
4.98021e-08
-7.23074e-08
8.09455e-05
1.77377e-07
-5.3178e-08
8.0958e-05
8.06578e-08
-7.19695e-08
8.09539e-05
1.18094e-07
-5.63198e-08
8.09456e-05
1.51796e-07
-6.98484e-08
8.09602e-05
6.7312e-08
-6.05316e-08
8.09443e-05
1.69543e-07
-6.83001e-08
8.09567e-05
8.47976e-08
-6.03442e-08
8.0952e-05
1.32818e-07
-7.12232e-08
8.09532e-05
1.26635e-07
-5.72412e-08
8.09579e-05
1.07437e-07
-7.44999e-08
8.09566e-05
1.30186e-07
-5.5256e-08
8.09591e-05
1.2135e-07
-7.27068e-08
8.09641e-05
1.08463e-07
-5.86495e-08
8.09619e-05
1.36708e-07
-6.95591e-08
8.09658e-05
1.16146e-07
-5.77733e-08
8.09729e-05
1.00954e-07
-7.12707e-08
8.09634e-05
1.5904e-07
-5.47985e-08
8.09789e-05
7.5396e-08
-7.06242e-08
8.09715e-05
1.48038e-07
-5.70892e-08
8.09745e-05
1.16865e-07
-6.58272e-08
8.09815e-05
9.61246e-08
-5.80007e-08
8.09731e-05
1.5172e-07
-6.68471e-08
8.09854e-05
7.77178e-08
-5.3245e-08
8.09726e-05
1.62176e-07
-6.93822e-08
8.09857e-05
7.78002e-08
-5.15186e-08
8.09786e-05
1.30968e-07
-6.84073e-08
8.09734e-05
1.38587e-07
-4.96693e-08
8.09902e-05
5.44177e-08
-7.10369e-08
8.09643e-05
1.95157e-07
-4.64625e-08
8.09862e-05
4.67797e-08
-7.0321e-08
8.09713e-05
1.46703e-07
-5.14485e-08
1.22886e-07
-6.23845e-08
0.000118591
1.35716e-07
-7.71614e-08
0.000118568
2.66139e-07
-8.42754e-08
0.000118588
1.0421e-07
-7.56612e-08
0.000118565
2.51836e-07
-8.82436e-08
0.000118573
1.58772e-07
-7.06151e-08
0.000118571
1.71115e-07
-9.51393e-08
0.000118555
2.50508e-07
-6.86953e-08
0.000118572
1.05015e-07
-9.68204e-08
0.000118547
2.70496e-07
-7.09397e-08
0.00011856
1.40545e-07
-9.68398e-08
0.000118553
1.96951e-07
-7.49174e-08
0.000118544
2.32513e-07
-9.42849e-08
0.000118557
1.29183e-07
-8.0556e-08
0.00011854
2.59234e-07
-9.27167e-08
0.000118552
1.48181e-07
-8.08979e-08
0.000118545
2.14867e-07
-9.66212e-08
0.000118547
2.01059e-07
-7.68232e-08
0.000118551
1.81762e-07
-1.02286e-07
0.00011855
2.07487e-07
-7.43446e-08
0.000118553
1.97515e-07
-9.95637e-08
0.000118558
1.80701e-07
-7.98602e-08
0.000118556
2.17744e-07
-9.56559e-08
0.000118561
1.89169e-07
-7.90805e-08
0.000118569
1.7239e-07
-9.78393e-08
0.000118561
2.44914e-07
-7.54784e-08
0.000118578
1.36864e-07
-9.73968e-08
0.000118571
2.34472e-07
-7.85994e-08
0.000118576
1.86947e-07
-9.09517e-08
0.000118584
1.68005e-07
-8.0139e-08
0.000118578
2.33467e-07
-9.21161e-08
0.000118591
1.41047e-07
-7.38867e-08
0.000118579
2.50943e-07
-9.58456e-08
0.000118595
1.36777e-07
-7.06068e-08
0.000118587
2.13549e-07
-9.4741e-08
0.000118584
2.14184e-07
-6.84915e-08
0.000118601
1.12921e-07
-9.73535e-08
0.000118575
2.91324e-07
-6.40524e-08
0.000118599
9.69912e-08
-9.60306e-08
0.000118582
2.34036e-07
-7.01371e-08
1.92477e-07
-8.58979e-08
0.000164427
2.24282e-07
-9.80044e-08
0.000164405
3.71263e-07
-1.05589e-07
0.000164426
1.82261e-07
-9.96343e-08
0.000164401
3.60901e-07
-1.09584e-07
0.00016441
2.4118e-07
-8.9133e-08
0.000164405
2.67512e-07
-1.21303e-07
0.00016439
3.53449e-07
-8.48101e-08
0.000164404
1.82749e-07
-1.22775e-07
0.000164378
3.83579e-07
-8.72238e-08
0.00016439
2.20739e-07
-1.22751e-07
0.00016438
2.97534e-07
-9.24398e-08
0.00016437
3.32578e-07
-1.18937e-07
0.000164381
2.13355e-07
-1.00419e-07
0.000164361
3.6834e-07
-1.16076e-07
0.000164372
2.32496e-07
-1.01845e-07
0.000164363
3.18887e-07
-1.22752e-07
0.000164364
2.94344e-07
-9.42369e-08
0.000164366
2.78345e-07
-1.32168e-07
0.000164364
3.05343e-07
-9.31699e-08
0.000164366
2.94077e-07
-1.26383e-07
0.000164371
2.74577e-07
-1.02413e-07
0.000164369
3.19346e-07
-1.21511e-07
0.000164375
2.83135e-07
-1.02231e-07
0.000164382
2.65351e-07
-1.25017e-07
0.000164375
3.50808e-07
-9.69117e-08
0.000164393
2.19795e-07
-1.25936e-07
0.000164388
3.42529e-07
-1.01524e-07
0.000164394
2.76012e-07
-1.16733e-07
0.000164403
2.63416e-07
-1.05187e-07
0.000164399
3.33921e-07
-1.18246e-07
0.000164413
2.2592e-07
-9.54504e-08
0.000164404
3.61804e-07
-1.26382e-07
0.000164422
2.14635e-07
-8.93478e-08
0.000164415
3.18933e-07
-1.23689e-07
0.000164415
3.09139e-07
-8.92475e-08
0.000164432
1.9346e-07
-1.25242e-07
0.000164408
4.07496e-07
-8.30512e-08
0.000164434
1.68553e-07
-1.24458e-07
0.000164416
3.4218e-07
-8.84745e-08
2.8138e-07
-1.12501e-07
0.000219305
3.42867e-07
-1.27541e-07
0.000219284
4.87066e-07
-1.16028e-07
0.000219308
2.85596e-07
-1.29568e-07
0.000219282
4.91182e-07
-1.31659e-07
0.000219294
3.38931e-07
-1.01678e-07
0.000219286
3.90033e-07
-1.52535e-07
0.000219274
4.71597e-07
-9.59645e-08
0.000219286
2.84107e-07
-1.50357e-07
0.000219259
5.15186e-07
-1.00558e-07
0.000219272
3.20845e-07
-1.48152e-07
0.000219258
4.20232e-07
-1.08431e-07
0.000219248
4.49525e-07
-1.40315e-07
0.000219256
3.21584e-07
-1.21355e-07
0.000219235
4.95714e-07
-1.35616e-07
0.000219243
3.36308e-07
-1.19493e-07
0.000219232
4.4563e-07
-1.50866e-07
0.000219231
4.06507e-07
-1.06703e-07
0.000219231
3.95062e-07
-1.59937e-07
0.000219225
4.25628e-07
-1.13057e-07
0.000219228
4.09067e-07
-1.485e-07
0.000219229
3.91064e-07
-1.26465e-07
0.000219225
4.40855e-07
-1.43545e-07
0.000219232
3.97405e-07
-1.25569e-07
0.000219235
3.81401e-07
-1.52105e-07
0.000219231
4.74296e-07
-1.1531e-07
0.000219245
3.2577e-07
-1.5505e-07
0.000219242
4.72132e-07
-1.25338e-07
0.000219249
3.82556e-07
-1.38256e-07
0.000219256
3.835e-07
-1.33185e-07
0.000219258
4.53339e-07
-1.45e-07
0.000219269
3.3069e-07
-1.11718e-07
0.000219265
4.95092e-07
-1.62534e-07
0.000219283
3.12803e-07
-1.06467e-07
0.000219277
4.44189e-07
-1.50025e-07
0.000219282
4.24537e-07
-1.13866e-07
0.000219298
2.97694e-07
-1.52276e-07
0.000219279
5.38315e-07
-9.85833e-08
0.000219308
2.66464e-07
-1.59745e-07
0.000219289
4.68952e-07
-1.01748e-07
3.85575e-07
-1.37719e-07
0.000283784
4.97345e-07
-1.80624e-07
0.000283762
6.14945e-07
-1.13306e-07
0.00028379
4.01328e-07
-1.47202e-07
0.000283765
6.49952e-07
-1.70747e-07
0.000283781
4.43641e-07
-9.30086e-08
0.000283772
5.36289e-07
-1.89846e-07
0.000283764
6.039e-07
-1.01932e-07
0.000283778
4.0344e-07
-1.72512e-07
0.000283749
6.64646e-07
-1.12936e-07
0.000283766
4.34394e-07
-1.65436e-07
0.000283749
5.6516e-07
-1.26466e-07
0.000283742
5.78762e-07
-1.51197e-07
0.000283747
4.48649e-07
-1.40205e-07
0.000283728
6.417e-07
-1.55246e-07
0.000283732
4.55743e-07
-1.2563e-07
0.000283721
5.88337e-07
-1.7707e-07
0.000283718
5.40886e-07
-1.19762e-07
0.000283717
5.24834e-07
-1.74499e-07
0.000283707
5.66978e-07
-1.35878e-07
0.000283709
5.40742e-07
-1.62299e-07
0.000283709
5.26466e-07
-1.49154e-07
0.000283699
5.82345e-07
-1.61643e-07
0.000283709
5.26417e-07
-1.41967e-07
0.000283705
5.22722e-07
-1.82345e-07
0.000283703
6.11576e-07
-1.26664e-07
0.000283712
4.51854e-07
-1.78182e-07
0.000283709
6.24713e-07
-1.55938e-07
0.000283717
5.04363e-07
-1.48875e-07
0.000283716
5.23699e-07
-1.57328e-07
0.000283727
5.94605e-07
-1.81146e-07
0.000283728
4.54008e-07
-1.12986e-07
0.000283731
6.42778e-07
-1.98818e-07
0.000283748
4.38604e-07
-1.31027e-07
0.000283738
5.84318e-07
-1.6193e-07
0.000283752
5.52061e-07
-1.38665e-07
0.000283763
4.37233e-07
-1.88981e-07
0.000283748
6.71285e-07
-9.31133e-08
0.00028378
3.88174e-07
-2.02965e-07
0.000283761
6.2429e-07
-1.21522e-07
4.87917e-07
-1.34892e-07
0.000358046
6.57506e-07
-2.27682e-07
0.00035802
7.8019e-07
-1.46319e-07
0.000358048
5.10289e-07
-1.05521e-07
0.000358029
8.28304e-07
-2.38964e-07
0.000358042
5.65978e-07
-7.04868e-08
0.000358039
6.84778e-07
-2.06411e-07
0.000358028
7.56259e-07
-1.19746e-07
0.00035805
5.28868e-07
-1.69843e-07
0.000358018
8.28816e-07
-1.30761e-07
0.000358039
5.56427e-07
-1.62637e-07
0.000358025
7.181e-07
-1.40459e-07
0.00035802
7.23488e-07
-1.58002e-07
0.000358024
5.82477e-07
-1.37277e-07
0.000358011
7.92731e-07
-1.73466e-07
0.000358012
5.97177e-07
-1.28234e-07
0.000358004
7.27976e-07
-1.7589e-07
0.000358
6.91263e-07
-1.40745e-07
0.000358
6.67408e-07
-1.72543e-07
0.00035799
7.13377e-07
-1.47647e-07
0.000357988
6.87476e-07
-1.71886e-07
0.000357994
6.6995e-07
-1.57881e-07
0.000357975
7.4135e-07
-1.80793e-07
0.00035799
6.61127e-07
-1.39978e-07
0.00035798
6.81261e-07
-2.09934e-07
0.00035798
7.64324e-07
-1.42707e-07
0.000357984
5.87683e-07
-1.74184e-07
0.000357979
7.92437e-07
-1.96374e-07
0.000357991
6.48745e-07
-1.61303e-07
0.000357975
6.71738e-07
-1.51698e-07
0.000358
7.47625e-07
-2.35491e-07
0.000357986
6.12111e-07
-1.12096e-07
0.000357991
7.84249e-07
-2.06505e-07
0.000358014
5.87364e-07
-1.75326e-07
0.000357989
7.58681e-07
-1.74053e-07
0.000358014
6.62148e-07
-1.26565e-07
0.000358019
6.17817e-07
-2.58868e-07
0.000358003
8.21444e-07
-7.69418e-08
0.000358035
4.99353e-07
-2.05754e-07
0.000358023
8.2639e-07
-1.95553e-07
5.90525e-07
-8.44139e-08
0.000441781
7.87143e-07
-1.68095e-07
0.000441768
9.60892e-07
-2.60306e-07
0.000441768
6.56192e-07
-3.09472e-08
0.000441775
9.69746e-07
-2.67941e-07
0.000441766
7.33453e-07
-1.02072e-07
0.000441775
8.21137e-07
-1.59058e-07
0.000441757
9.15221e-07
-1.62975e-07
0.000441781
6.71633e-07
-1.42607e-07
0.000441754
9.7746e-07
-1.35875e-07
0.000441766
7.03806e-07
-1.63309e-07
0.000441761
8.60129e-07
-1.18009e-07
0.000441757
8.65502e-07
-1.65612e-07
0.000441755
7.38878e-07
-1.24807e-07
0.000441754
9.16787e-07
-1.47169e-07
0.00044175
7.52886e-07
-1.45296e-07
0.000441747
8.71591e-07
-1.43945e-07
0.000441746
8.21688e-07
-1.31792e-07
0.000441744
8.24268e-07
-1.74722e-07
0.000441744
8.5094e-07
-1.22621e-07
0.000441733
8.32798e-07
-1.73567e-07
0.000441749
8.11469e-07
-1.39985e-07
0.000441731
8.97477e-07
-1.86749e-07
0.000441741
7.99816e-07
-1.30241e-07
0.000441738
8.3198e-07
-1.91857e-07
0.000441739
9.16595e-07
-1.79101e-07
0.000441741
7.40564e-07
-1.44531e-07
0.000441733
9.38601e-07
-1.98475e-07
0.000441759
8.06786e-07
-2.08275e-07
0.000441721
8.42829e-07
-1.10529e-07
0.000441763
8.66113e-07
-2.64191e-07
0.000441746
8.09206e-07
-1.47717e-07
0.000441735
9.36376e-07
-1.84807e-07
0.000441778
7.06288e-07
-1.85144e-07
0.000441737
9.84309e-07
-2.4385e-07
0.000441762
7.69499e-07
-7.18152e-08
0.000441767
7.82245e-07
-2.96781e-07
0.000441757
1.02111e-06
-1.44975e-07
0.000441763
6.03353e-07
-1.16397e-07
0.00044178
1.0154e-06
-2.92306e-07
7.50565e-07
-8.64477e-08
0.000534128
9.8009e-07
-5.72868e-08
0.000534178
1.04681e-06
-3.19072e-07
0.000534122
8.8265e-07
-7.39472e-08
0.000534157
1.0695e-06
-1.74411e-07
0.000534134
8.93851e-07
-2.03951e-07
0.000534134
9.99178e-07
-9.88847e-08
0.000534129
1.02048e-06
-1.73856e-07
0.000534122
8.59416e-07
-1.58064e-07
0.000534119
1.09494e-06
-8.81203e-08
0.00053411
8.47592e-07
-1.83068e-07
0.000534103
1.02791e-06
-9.74266e-08
0.000534109
9.67962e-07
-1.24692e-07
0.000534088
9.10107e-07
-1.39879e-07
0.000534097
1.03601e-06
-8.68127e-08
0.00053409
8.76935e-07
-1.21809e-07
0.00053408
1.03226e-06
-1.39769e-07
0.000534091
9.30654e-07
-5.91399e-08
0.000534078
9.60036e-07
-1.6433e-07
0.000534085
9.85707e-07
-7.63044e-08
0.000534081
9.47836e-07
-1.30566e-07
0.000534081
9.51667e-07
-1.16108e-07
0.000534085
1.0248e-06
-1.27619e-07
0.000534087
9.13518e-07
-1.26954e-07
0.000534079
9.8667e-07
-1.17269e-07
0.000534099
1.00899e-06
-1.65023e-07
0.000534095
9.07182e-07
-1.4466e-07
0.000534083
1.06997e-06
-1.14952e-07
0.000534131
9.00952e-07
-2.36469e-07
0.000534083
1.0458e-06
-8.23989e-08
0.000534125
9.48457e-07
-2.24491e-07
0.000534129
9.73679e-07
-1.65946e-07
0.000534103
1.1188e-06
-2.02442e-07
0.000534154
7.90297e-07
-1.16929e-07
0.000534117
1.18223e-06
-2.95445e-07
0.00053415
9.04606e-07
-9.50572e-08
0.000534127
9.35066e-07
-2.13329e-07
0.000534168
1.17791e-06
-2.63544e-07
0.000534124
7.74385e-07
-7.39552e-08
0.000534164
1.1435e-06
-2.48322e-07
9.10681e-07
-2.20755e-07
0.000633756
1.25814e-06
-1.03126e-07
0.00063387
1.08077e-06
-2.18693e-07
0.000633799
1.07153e-06
-2.13898e-07
0.00063382
1.21663e-06
-7.04453e-08
0.000633835
9.35646e-07
-2.205e-07
0.000633789
1.23437e-06
-1.43669e-07
0.000633827
1.08338e-06
-1.1799e-07
0.000633784
1.03578e-06
-2.1634e-07
0.000633787
1.21405e-06
-4.98568e-08
0.000633781
9.31301e-07
-1.50636e-07
0.000633746
1.20674e-06
-1.34025e-07
0.000633767
1.06697e-06
-8.37457e-08
0.000633725
1.05883e-06
-1.30746e-07
0.000633727
1.14693e-06
-7.59168e-08
0.000633722
9.7403e-07
-3.48963e-08
0.0006337
1.16463e-06
-1.44958e-07
0.000633707
1.06161e-06
-1.6847e-08
0.000633701
1.05674e-06
-9.01575e-08
0.000633681
1.1052e-06
-4.95659e-08
0.000633699
1.0294e-06
-1.77023e-08
0.000633684
1.05013e-06
-9.172e-08
0.000633677
1.176e-06
-4.57509e-08
0.000633702
9.56989e-07
-6.13808e-08
0.000633656
1.13251e-06
-5.59137e-08
0.000633696
1.05057e-06
-3.08568e-08
0.00063369
1.00681e-06
-1.3752e-07
0.000633671
1.22625e-06
-1.84027e-08
0.000633727
9.2073e-07
-1.68226e-07
0.000633681
1.20473e-06
-2.7791e-08
0.000633723
9.95734e-07
-1.47019e-07
0.000633738
1.08042e-06
-9.85615e-08
0.000633719
1.27967e-06
-2.07667e-07
0.000633784
8.48759e-07
-6.84841e-08
0.000633721
1.34364e-06
-2.06067e-07
0.000633815
9.48471e-07
-1.372e-07
0.000633738
1.1204e-06
-1.40663e-07
0.000633823
1.2737e-06
-2.50301e-07
0.000633795
9.05975e-07
-1.48645e-07
0.000633778
1.32121e-06
-1.28033e-07
9.14323e-07
-2.59854e-07
0.000739037
1.39716e-06
-1.45574e-07
0.000739151
1.14927e-06
-1.28943e-07
0.000739142
1.16396e-06
-2.66864e-07
0.000739113
1.4241e-06
-1.04285e-07
0.00073919
8.71537e-07
-8.05524e-08
0.000739122
1.37723e-06
-1.70866e-07
0.00073919
1.12785e-06
-8.01336e-08
0.000739161
1.18054e-06
-2.58389e-07
0.000739144
1.34205e-06
-7.92096e-08
0.00073916
9.31607e-07
-6.39213e-08
0.000739105
1.30157e-06
-1.11278e-07
0.000739143
1.12147e-06
-1.08558e-07
0.000739088
1.22836e-06
-1.47317e-07
0.000739079
1.23076e-06
-9.8462e-08
0.000739056
1.03203e-06
2.58446e-08
0.000739038
1.20347e-06
-5.70172e-08
0.000739029
1.16316e-06
-6.02224e-08
0.000739029
1.18986e-06
-4.9958e-08
0.000738995
1.19385e-06
-4.17282e-08
0.000738987
1.094e-06
9.28823e-08
0.000739005
1.0324e-06
3.4794e-08
0.00073896
1.31487e-06
-2.83017e-08
0.000739015
1.01567e-06
2.05132e-08
0.000738932
1.24962e-06
-2.29239e-08
0.000738952
1.06625e-06
1.45756e-07
0.00073895
9.78227e-07
-8.20535e-09
0.000738908
1.36063e-06
5.29084e-08
0.000738973
9.37348e-07
-8.94189e-08
0.000738905
1.33145e-06
6.59979e-08
0.000738936
9.79584e-07
5.8886e-09
0.000738966
1.06041e-06
5.71804e-08
0.000738927
1.40516e-06
-1.21991e-07
0.000739044
8.65313e-07
-5.2541e-08
0.000738936
1.50729e-06
-9.32459e-08
0.000739056
8.97452e-07
-2.44808e-08
0.000738999
1.16194e-06
-3.83724e-08
0.000739042
1.38227e-06
-1.8181e-07
0.000739109
9.28637e-07
-1.49881e-07
0.000739005
1.54847e-06
-1.35561e-07
8.12531e-07
-8.08189e-08
0.000848391
1.34427e-06
6.61301e-08
0.000848456
1.07473e-06
1.60097e-08
0.000848537
1.11282e-06
-1.96023e-07
0.000848491
1.66808e-06
-2.62555e-07
0.000848585
8.59864e-07
1.58007e-10
0.000848517
1.38347e-06
-9.25726e-09
0.000848592
1.01603e-06
6.60522e-08
0.000848634
1.19954e-06
-2.45717e-07
0.00084862
1.52262e-06
-2.05852e-07
0.000848657
9.44404e-07
-3.19258e-08
0.000848576
1.29285e-06
4.81214e-08
0.000848642
9.68656e-07
2.14416e-08
0.000848618
1.30257e-06
-2.0708e-07
0.000848621
1.34727e-06
-2.08429e-07
0.000848578
1.10562e-06
-2.82652e-08
0.000848527
1.16032e-06
1.14415e-07
0.000848531
1.04508e-06
3.83259e-08
0.000848528
1.26056e-06
-1.09561e-07
0.000848529
1.3101e-06
-1.4128e-07
0.000848459
1.21966e-06
4.75668e-08
0.000848481
9.37039e-07
2.5243e-07
0.000848425
1.25726e-06
1.06482e-07
0.000848514
1.01689e-06
4.42511e-08
0.000848462
1.39104e-06
-9.71396e-08
0.000848427
1.16139e-06
1.84686e-07
0.000848411
8.49183e-07
2.3464e-07
0.00084833
1.3209e-06
2.38611e-07
0.000848403
8.87589e-07
-3.63613e-08
0.000848335
1.48774e-06
3.74216e-08
0.000848303
1.03567e-06
1.08161e-07
0.000848325
9.21567e-07
3.18599e-07
0.000848243
1.35423e-06
1.43182e-07
0.000848393
7.87049e-07
-1.83123e-09
0.000848307
1.68242e-06
-7.73692e-08
0.000848369
9.30874e-07
4.34317e-08
0.000848354
1.03961e-06
2.69696e-07
0.000848335
1.33222e-06
-1.86704e-09
0.000848482
8.32258e-07
-3.67748e-08
0.000848367
1.76644e-06
-2.36357e-07
7.93308e-07
2.10142e-08
0.000960893
1.36287e-06
2.14751e-07
0.000960839
9.19039e-07
3.62045e-07
0.000960934
7.86783e-07
1.33224e-07
0.000960933
1.71064e-06
-3.52673e-07
0.000961057
9.20997e-07
-1.94308e-07
0.000960994
1.46096e-06
7.87047e-08
0.000960992
8.43875e-07
4.0499e-07
0.000961068
9.40051e-07
4.67222e-08
0.00096111
1.54476e-06
-3.06417e-07
0.00096122
1.00693e-06
-2.0575e-07
0.000961125
1.379e-06
1.09263e-07
0.000961141
7.26956e-07
3.92621e-07
0.00096115
1.08937e-06
2.22469e-08
0.000961212
1.30206e-06
-3.07082e-07
0.000961244
1.1918e-06
-2.78599e-07
0.000961151
1.22545e-06
1.20553e-07
0.000961121
8.13743e-07
3.63256e-07
0.000961092
1.05732e-06
5.77413e-08
0.000961167
1.24287e-06
-2.641e-07
0.000961126
1.36794e-06
-2.63374e-07
0.000961108
9.70233e-07
2.41862e-07
0.000960998
1.10481e-06
4.16971e-07
0.00096106
7.78512e-07
2.63319e-07
0.000961116
1.34463e-06
-1.83381e-07
0.000961121
1.31888e-06
-7.05611e-08
0.000961104
8.38838e-07
2.90801e-07
0.000960957
1.189e-06
5.75089e-07
0.000960988
6.0508e-07
2.17016e-07
0.000960973
1.46289e-06
-5.60439e-08
0.000960932
1.17661e-06
-7.11442e-08
0.000960922
8.97205e-07
3.85713e-07
0.000960751
1.23337e-06
5.72214e-07
0.00096084
4.776e-07
2.69542e-07
0.000960829
1.66593e-06
-6.23812e-08
0.000960874
1.05851e-06
-1.70106e-07
0.000960866
1.03216e-06
4.3504e-07
0.00096076
1.19524e-06
4.06571e-07
0.000960897
5.04994e-07
3.00675e-07
0.000960852
1.77101e-06
-2.37144e-07
8.63344e-07
-1.71724e-07
0.00107651
1.38345e-06
-2.0696e-08
0.00107639
9.08279e-07
5.5217e-07
0.00107639
4.33012e-07
6.80683e-07
0.00107636
1.47628e-06
-5.44142e-08
0.00107652
7.72592e-07
-4.20993e-07
0.00107654
1.51889e-06
-1.81315e-07
0.00107648
8.17722e-07
5.70897e-07
0.00107648
6.44e-07
5.81357e-07
0.0010765
1.31791e-06
-5.35926e-08
0.00107668
8.62917e-07
-4.09903e-07
0.00107668
1.46822e-06
-1.50676e-07
0.00107664
6.39609e-07
5.96502e-07
0.0010766
8.31586e-07
5.49351e-07
0.00107664
1.02809e-06
-3.61361e-08
0.00107678
1.04435e-06
-4.9177e-07
0.00107676
1.29069e-06
-1.96958e-07
0.00107672
7.10549e-07
5.29398e-07
0.00107662
8.0716e-07
5.27901e-07
0.00107668
9.30486e-07
-3.56403e-08
0.00107673
1.25682e-06
-5.37153e-07
0.00107677
9.9588e-07
-1.54711e-07
0.00107664
1.06865e-06
5.05958e-07
0.00107657
5.25702e-07
6.90794e-07
0.00107663
1.04211e-06
5.42463e-08
0.00107672
1.24757e-06
-3.53832e-07
0.0010768
8.42573e-07
-4.59793e-08
0.00107667
1.17467e-06
6.91526e-07
0.00107661
3.0885e-07
6.89648e-07
0.0010766
1.16807e-06
1.33672e-07
0.0010766
1.11316e-06
-3.24498e-07
0.00107664
8.81158e-07
2.77171e-08
0.00107645
1.25153e-06
7.44836e-07
0.0010764
1.76102e-07
7.4014e-07
0.00107638
1.39179e-06
2.26674e-07
0.00107644
9.82907e-07
-4.23014e-07
0.00107649
1.05107e-06
1.30219e-07
0.00107635
1.20421e-06
6.21364e-07
0.00107638
1.86804e-07
8.22025e-07
0.00107633
1.51505e-06
1.07885e-07
7.36548e-07
-3.80899e-07
0.00119618
1.19319e-06
-3.13784e-07
0.00119611
8.93088e-07
3.39147e-07
0.00119607
2.13523e-07
9.40453e-07
0.00119598
1.23379e-06
4.62956e-07
0.00119608
4.53828e-07
-2.73092e-07
0.00119616
1.34904e-06
-4.63784e-07
0.00119613
7.82635e-07
3.457e-07
0.0011961
4.63274e-07
8.45849e-07
0.00119604
1.09329e-06
4.27607e-07
0.00119618
5.49205e-07
-2.76375e-07
0.00119626
1.34707e-06
-4.31737e-07
0.00119626
5.60837e-07
3.92704e-07
0.00119619
6.90322e-07
8.24404e-07
0.00119616
7.8586e-07
4.66061e-07
0.00119628
7.32613e-07
-3.20151e-07
0.00119633
1.15737e-06
-4.76965e-07
0.00119635
6.05365e-07
3.0255e-07
0.00119625
6.71954e-07
7.89917e-07
0.00119624
6.49194e-07
4.38722e-07
0.00119629
9.62886e-07
-3.78067e-07
0.00119638
8.08811e-07
-4.89078e-07
0.00119634
9.90922e-07
2.12636e-07
0.00119623
3.95837e-07
8.57934e-07
0.00119621
7.53824e-07
4.89831e-07
0.00119626
9.94646e-07
-2.55566e-07
0.0011964
6.52835e-07
-3.94072e-07
0.00119638
1.13115e-06
3.93877e-07
0.00119631
1.50835e-07
9.08093e-07
0.00119627
8.63861e-07
5.40785e-07
0.00119625
8.73432e-07
-2.3054e-07
0.00119634
6.58839e-07
-3.56794e-07
0.00119625
1.23557e-06
4.55498e-07
0.00119615
1.5739e-08
9.34073e-07
0.00119608
1.11991e-06
6.65519e-07
0.00119609
7.359e-07
-3.06476e-07
0.00119619
8.62911e-07
-2.51221e-07
0.0011961
1.196e-06
3.64452e-07
0.00119608
1.7649e-08
1.03609e-06
0.00119599
1.26549e-06
5.98641e-07
4.54248e-07
-2.32388e-07
0.00132205
8.86031e-07
-2.98671e-07
0.00132203
7.823e-07
7.65212e-08
0.00132202
3.67865e-08
7.63446e-07
0.00132194
1.06406e-06
6.84003e-07
0.00132196
1.577e-07
5.69444e-08
0.00132203
1.05103e-06
-4.18248e-07
0.00132202
6.43822e-07
1.0003e-07
0.00132202
3.0582e-07
6.84931e-07
0.00132195
9.43637e-07
6.505e-07
0.00132201
2.4768e-07
3.50152e-08
0.00132206
1.10314e-06
-3.96403e-07
0.00132209
3.96433e-07
1.37904e-07
0.00132206
5.71765e-07
6.71406e-07
0.001322
6.33932e-07
6.90045e-07
0.00132207
4.42603e-07
1.87491e-08
0.0013221
9.24249e-07
-4.01446e-07
0.00132215
4.20713e-07
4.8967e-08
0.0013221
5.64249e-07
6.52665e-07
0.00132208
4.69158e-07
6.53991e-07
0.00132209
6.88797e-07
-2.44067e-08
0.00132215
5.3077e-07
-4.21091e-07
0.00132218
8.0365e-07
-5.12135e-08
0.0013221
2.91884e-07
6.61874e-07
0.00132207
5.49672e-07
6.54959e-07
0.00132207
7.48219e-07
4.02491e-08
0.00132215
3.686e-07
-3.83539e-07
0.00132219
9.81049e-07
7.44603e-08
0.00132216
4.50793e-08
7.17585e-07
0.00132215
6.40472e-07
6.94937e-07
0.0013221
6.43511e-07
5.92041e-08
0.00132216
3.36291e-07
-3.7194e-07
0.00132215
1.09803e-06
1.27007e-07
0.00132209
-1.04161e-07
7.20303e-07
0.00132204
9.17582e-07
8.0143e-07
0.001322
4.9628e-07
3.17105e-09
0.00132207
5.59927e-07
-2.78008e-07
0.00132203
1.06921e-06
4.61855e-08
0.00132203
-1.11014e-07
8.1805e-07
0.00132196
1.08752e-06
7.59311e-07
1.97509e-07
7.42648e-08
0.00145693
5.88599e-07
-1.1453e-07
0.0014569
6.41958e-07
1.46623e-08
0.00145692
-1.30031e-07
4.653e-07
0.00145688
9.31131e-07
5.61447e-07
0.00145687
-5.99386e-08
2.35611e-07
0.00145691
7.61934e-07
-2.05375e-07
0.00145689
4.79052e-07
6.20723e-08
0.00145692
1.3835e-07
4.02002e-07
0.00145687
8.25453e-07
5.51863e-07
0.00145689
1.58336e-08
2.0338e-07
0.00145691
8.66032e-07
-1.87883e-07
0.00145692
2.1186e-07
7.4516e-08
0.00145693
4.38407e-07
3.93008e-07
0.00145688
5.20546e-07
5.82166e-07
0.00145692
2.21375e-07
1.84933e-07
0.00145691
7.13043e-07
-1.56534e-07
0.00145695
2.2567e-07
-3.55966e-09
0.00145694
4.53298e-07
3.94368e-07
0.00145693
3.40372e-07
5.44648e-07
0.00145693
4.84084e-07
1.57997e-07
0.00145694
2.99593e-07
-1.69232e-07
0.00145698
5.92214e-07
-8.21091e-08
0.00145694
1.92258e-07
3.94376e-07
0.00145694
3.90217e-07
5.09792e-07
0.00145692
5.62536e-07
1.93864e-07
0.00145694
1.20617e-07
-1.79611e-07
0.00145698
7.96369e-07
-2.02466e-08
0.00145696
-4.17488e-08
4.24043e-07
0.00145699
4.66745e-07
5.3722e-07
0.00145694
4.82488e-07
2.09701e-07
0.00145696
5.51304e-08
-1.78082e-07
0.00145697
9.18085e-07
2.35458e-08
0.00145694
-2.11723e-07
4.18702e-07
0.00145695
7.4537e-07
6.14674e-07
0.0014569
3.20785e-07
1.61554e-07
0.00145693
2.76768e-07
-9.06459e-08
0.00145691
8.94488e-07
-5.10194e-08
0.00145692
-2.34685e-07
5.0049e-07
0.0014569
9.34318e-07
5.82009e-07
1.85755e-08
2.19219e-07
0.00160351
3.55485e-07
1.91344e-08
0.00160348
5.30162e-07
6.72475e-08
0.0016035
-2.64811e-07
2.50194e-07
0.0016035
8.1112e-07
3.48437e-07
0.00160347
-1.98118e-07
2.40575e-07
0.0016035
5.34423e-07
-5.64647e-08
0.00160347
3.53527e-07
1.32996e-07
0.0016035
-1.09865e-08
1.90372e-07
0.00160348
7.18382e-07
3.62913e-07
0.00160348
-1.49384e-07
2.04879e-07
0.00160349
6.85039e-07
-3.00472e-08
0.00160348
6.79745e-08
1.15969e-07
0.0016035
3.15465e-07
1.88107e-07
0.00160348
4.20476e-07
3.86609e-07
0.0016035
5.6644e-08
1.72947e-07
0.00160348
5.62998e-07
2.20734e-08
0.0016035
7.65488e-08
4.46298e-08
0.0016035
3.54845e-07
2.09036e-07
0.0016035
2.35837e-07
3.47034e-07
0.00160351
3.29776e-07
1.56499e-07
0.00160348
1.56831e-07
1.24622e-08
0.00160352
4.20446e-07
-1.40833e-08
0.0016035
1.15558e-07
2.23385e-07
0.00160351
2.56505e-07
2.90345e-07
0.0016035
4.27867e-07
1.85526e-07
0.00160348
-4.57984e-08
-2.07102e-08
0.00160353
6.38282e-07
7.15065e-09
0.00160349
-9.76175e-08
2.27924e-07
0.00160353
3.22743e-07
3.01761e-07
0.00160351
3.78128e-07
1.99374e-07
0.00160349
-1.31237e-07
-2.23692e-08
0.00160353
7.6103e-07
4.24187e-08
0.00160349
-2.81338e-07
2.23397e-07
0.00160353
5.87954e-07
3.59311e-07
0.00160349
2.03835e-07
1.54018e-07
0.0016035
7.17342e-08
6.31366e-08
0.0016035
7.38678e-07
-2.11629e-08
0.00160349
-3.2673e-07
2.89322e-07
0.00160351
7.84249e-07
3.33812e-07
-8.83163e-08
2.04527e-07
0.00176408
1.85268e-07
5.5762e-08
0.00176406
4.5598e-07
1.1445e-07
0.00176406
-3.49877e-07
1.24301e-07
0.00176408
7.02663e-07
1.97948e-07
0.00176403
-2.6694e-07
1.95794e-07
0.00176408
3.66639e-07
-1.96997e-08
0.00176404
2.75446e-07
1.93205e-07
0.00176407
-1.21414e-07
5.81935e-08
0.00176407
6.23882e-07
2.3185e-07
0.00176405
-2.52187e-07
1.48e-07
0.00176406
5.55916e-07
2.62514e-08
0.00176405
-2.63279e-08
1.49247e-07
0.00176407
2.21029e-07
6.81049e-08
0.00176405
3.38829e-07
2.51984e-07
0.00176407
-5.69504e-08
1.03226e-07
0.00176405
4.6382e-07
9.15948e-08
0.00176406
-2.30768e-08
7.704e-08
0.00176406
2.80011e-07