/*--------------------------------*- C++ -*----------------------------------*\
  =========                 |
  \\      /  F ield         | OpenFOAM: The Open Source CFD Toolbox
   \\    /   O peration     | Website:  https://openfoam.org
    \\  /    A nd           | Version:  10
     \\/     M anipulation  |
\*---------------------------------------------------------------------------*/
FoamFile
{
    format      ascii;
    class       volVectorField;
    location    "42.5";
    object      UMean;
}
// * * * * * * * * * * * * * * * * * * * * * * * * * * * * * * * * * * * * * //

dimensions      [0 1 -1 0 0 0 0];

internalField   nonuniform List<vector> 
102400
(
(0.0595483 1.04923e-06 -0.000135274)
(0.0596016 2.96194e-06 -5.54522e-05)
(0.0594891 3.20031e-06 -1.24994e-05)
(0.0595268 9.9245e-07 -4.01262e-05)
(0.0594502 4.75381e-07 -0.000107383)
(0.0595627 1.6341e-06 -0.000132423)
(0.059457 3.12125e-06 -6.17067e-05)
(0.059497 2.52048e-06 -2.66325e-05)
(0.0594221 1.70762e-06 -4.74543e-05)
(0.0594728 5.67739e-07 -0.000115586)
(0.0594241 1.12126e-06 -0.000114912)
(0.0594777 2.94132e-06 -8.10245e-05)
(0.0593823 2.88236e-06 -9.09502e-06)
(0.0594294 1.41647e-06 -5.0167e-05)
(0.0593708 -3.46344e-07 -9.31553e-05)
(0.0595147 -8.5843e-08 -0.000128256)
(0.0594449 3.3092e-06 -3.34011e-05)
(0.0595534 2.21497e-06 -1.34827e-05)
(0.0594231 2.40047e-07 -1.25471e-05)
(0.0596144 -1.52019e-06 -0.000122989)
(0.0595142 6.80045e-07 -9.2729e-05)
(0.0596832 1.92452e-06 -6.59285e-05)
(0.0594871 2.34891e-06 2.62182e-06)
(0.0596686 -6.91167e-08 -4.53758e-05)
(0.0595265 1.13402e-06 -0.00010877)
(0.0597095 4.77312e-08 -0.00012349)
(0.0595889 2.50686e-06 -6.32345e-05)
(0.0596781 2.63869e-06 -1.99248e-05)
(0.0595728 -4.09515e-07 -5.32208e-05)
(0.0597045 -6.42745e-07 -0.000130909)
(0.0596154 1.75826e-07 -0.000126698)
(0.0597172 1.81732e-06 -7.36588e-05)
(0.0596033 2.2521e-06 -1.13746e-05)
(0.0596417 1.69395e-07 -4.84924e-05)
(0.0595993 -1.38725e-06 -0.000110986)
(0.0596777 1.03744e-06 -0.000113627)
(0.0595928 2.70821e-06 -6.70478e-05)
(0.0595975 2.02977e-06 -1.39559e-05)
(0.0595254 7.37238e-07 -4.90379e-05)
(0.0596126 -3.1434e-07 -0.000121519)
(0.172045 2.58374e-05 -0.000326048)
(0.172248 3.41252e-05 -0.000254932)
(0.171992 3.36331e-05 -0.000162687)
(0.172143 3.66765e-05 -0.000221151)
(0.171862 2.90576e-05 -0.000311489)
(0.172121 3.00259e-05 -0.000367094)
(0.171866 3.53252e-05 -0.000226414)
(0.172029 3.61631e-05 -0.000205823)
(0.171784 3.4641e-05 -0.000192936)
(0.171945 3.50176e-05 -0.000345946)
(0.171709 2.79271e-05 -0.000307938)
(0.171926 3.66003e-05 -0.000302584)
(0.171661 3.41403e-05 -0.000137441)
(0.171866 3.67838e-05 -0.000260133)
(0.1716 2.34888e-05 -0.000270255)
(0.171948 2.42105e-05 -0.000390908)
(0.171749 2.21457e-05 -0.000141835)
(0.172144 2.96524e-05 -0.000181645)
(0.171762 2.14677e-05 -0.000116532)
(0.172259 1.81799e-05 -0.0003557)
(0.171865 1.65548e-05 -0.000243899)
(0.172439 2.41406e-05 -0.000302704)
(0.171945 2.59167e-05 -0.00012204)
(0.172487 2.34945e-05 -0.000258505)
(0.172042 2.11422e-05 -0.000312074)
(0.17252 1.6683e-05 -0.000338322)
(0.172172 2.36403e-05 -0.000255742)
(0.172534 2.59834e-05 -0.000190922)
(0.172219 2.21095e-05 -0.000242543)
(0.172552 1.89078e-05 -0.000373114)
(0.172247 2.01391e-05 -0.000347688)
(0.172567 2.19304e-05 -0.000275033)
(0.172311 2.86838e-05 -0.000140579)
(0.172433 2.60311e-05 -0.00023957)
(0.172225 2.19074e-05 -0.000278454)
(0.172395 2.37164e-05 -0.000339199)
(0.172241 3.07944e-05 -0.000208206)
(0.17233 3.59164e-05 -0.000141543)
(0.172122 2.79238e-05 -0.000205544)
(0.172279 2.95468e-05 -0.000319289)
(0.281049 0.000101322 -0.000617116)
(0.281432 0.000119317 -0.000593508)
(0.280984 0.000111671 -0.000371364)
(0.281329 0.000120455 -0.000586172)
(0.28086 0.000108215 -0.000607204)
(0.28121 0.000113117 -0.000768103)
(0.280784 0.000116229 -0.000449869)
(0.281146 0.000120182 -0.00047912)
(0.280709 0.000116599 -0.000437273)
(0.281071 0.000122385 -0.000741604)
(0.280573 0.000108452 -0.000606931)
(0.281049 0.000125207 -0.00057497)
(0.280505 0.000111988 -0.000313193)
(0.280969 0.000122782 -0.000555738)
(0.280439 9.98642e-05 -0.000585928)
(0.281018 0.000101454 -0.00073438)
(0.280536 9.51854e-05 -0.000410503)
(0.281143 0.000102926 -0.00049964)
(0.280643 8.76207e-05 -0.00040166)
(0.281298 8.87174e-05 -0.0008163)
(0.280724 7.98531e-05 -0.000554547)
(0.28152 8.8499e-05 -0.000642742)
(0.280915 9.29178e-05 -0.000315103)
(0.281669 8.61836e-05 -0.000634121)
(0.281052 8.97572e-05 -0.000593817)
(0.281704 7.77779e-05 -0.000800099)
(0.281146 9.02272e-05 -0.00044546)
(0.281825 8.98923e-05 -0.000499318)
(0.281235 8.79512e-05 -0.000455246)
(0.281816 8.64573e-05 -0.000760304)
(0.28128 8.71082e-05 -0.00067192)
(0.281771 9.03503e-05 -0.000639309)
(0.28137 0.000103188 -0.000347983)
(0.281678 9.94756e-05 -0.000623079)
(0.281302 9.46198e-05 -0.000559995)
(0.281588 9.87065e-05 -0.000769675)
(0.281268 0.000101952 -0.000390952)
(0.281639 0.000112763 -0.00042471)
(0.281237 0.000101896 -0.0004249)
(0.281537 0.000115457 -0.000716918)
(0.384877 0.000245204 -0.000943907)
(0.385563 0.000276823 -0.000986379)
(0.384783 0.000256086 -0.000618894)
(0.385453 0.000277653 -0.000976768)
(0.384669 0.000252491 -0.000899459)
(0.385355 0.00027288 -0.00118234)
(0.384557 0.000256906 -0.000715252)
(0.385314 0.000280174 -0.000861409)
(0.384557 0.00025949 -0.000670431)
(0.385192 0.00028021 -0.00116025)
(0.384424 0.000250067 -0.000923627)
(0.385107 0.000278113 -0.000932908)
(0.384398 0.000251323 -0.000559433)
(0.385069 0.000277211 -0.000889932)
(0.38429 0.000234612 -0.000799896)
(0.385023 0.000252086 -0.00114569)
(0.384303 0.0002315 -0.000637856)
(0.385064 0.000245203 -0.000867064)
(0.384425 0.000216874 -0.000643368)
(0.385173 0.000225029 -0.00132434)
(0.384556 0.000208785 -0.00089792)
(0.385339 0.000225331 -0.00110475)
(0.384645 0.000219349 -0.000609123)
(0.385512 0.000222156 -0.00110023)
(0.384804 0.000224272 -0.000990612)
(0.385567 0.000216181 -0.00133177)
(0.384776 0.000221411 -0.000753466)
(0.385696 0.000234488 -0.000949096)
(0.38488 0.000223165 -0.000711938)
(0.385694 0.000227179 -0.00120566)
(0.38498 0.000225441 -0.00103193)
(0.385678 0.000229877 -0.00102911)
(0.38512 0.000244221 -0.000601267)
(0.385743 0.000245171 -0.00100664)
(0.385098 0.000238597 -0.000889386)
(0.385679 0.000256255 -0.00117872)
(0.385031 0.00024219 -0.000696162)
(0.385651 0.000255422 -0.000879971)
(0.384976 0.000247003 -0.000662661)
(0.385614 0.00027258 -0.00122066)
(0.483073 0.00045654 -0.000857129)
(0.48396 0.000499335 -0.00105383)
(0.482965 0.000456403 -0.000497252)
(0.483986 0.000499891 -0.00106117)
(0.48301 0.000454455 -0.000927195)
(0.483926 0.000501371 -0.00128954)
(0.482926 0.000459131 -0.000641587)
(0.483902 0.000507292 -0.000875082)
(0.482927 0.000462367 -0.000596239)
(0.48384 0.000506307 -0.00126488)
(0.482857 0.000453451 -0.000908547)
(0.483728 0.000496425 -0.00104048)
(0.482766 0.000456008 -0.00055148)
(0.483681 0.000496567 -0.000967266)
(0.482717 0.000436873 -0.000882668)
(0.483606 0.000474659 -0.00125565)
(0.482627 0.000427249 -0.000630708)
(0.483636 0.000452067 -0.000895051)
(0.482746 0.000406796 -0.000641838)
(0.4836 0.000436857 -0.00134341)
(0.482792 0.000398642 -0.000972557)
(0.483626 0.000447091 -0.00107428)
(0.482848 0.000416899 -0.000614531)
(0.483654 0.000449683 -0.0010305)
(0.482831 0.00042921 -0.000903053)
(0.483657 0.000440495 -0.00131144)
(0.482799 0.000426472 -0.000762163)
(0.48373 0.000439305 -0.000945427)
(0.482924 0.000431132 -0.0007477)
(0.483824 0.000447541 -0.00131778)
(0.482967 0.000436551 -0.000981279)
(0.483923 0.000446409 -0.00108427)
(0.48312 0.000451744 -0.000543309)
(0.484025 0.00046589 -0.00105356)
(0.483138 0.000450525 -0.000884068)
(0.484016 0.000473511 -0.00125254)
(0.483104 0.00045588 -0.000634739)
(0.484078 0.000477134 -0.000859318)
(0.483222 0.000453866 -0.000602789)
(0.484062 0.000502212 -0.00124083)
(0.575908 0.000664215 -0.000255116)
(0.576845 0.000714429 -0.000411687)
(0.575901 0.000646096 7.57593e-05)
(0.577001 0.000717233 -0.000362496)
(0.575851 0.000656595 -0.000226682)
(0.576976 0.000716793 -0.000582879)
(0.575923 0.000660929 1.71494e-05)
(0.576961 0.000715048 -0.000263466)
(0.576001 0.000659742 8.21037e-06)
(0.57696 0.000713924 -0.000721054)
(0.575953 0.000665799 -0.000283151)
(0.576865 0.000709684 -0.000514196)
(0.575825 0.000657253 5.216e-05)
(0.576872 0.000704451 -0.0004765)
(0.575794 0.000648418 -0.000367154)
(0.576675 0.000696301 -0.000671652)
(0.575684 0.000644468 -0.000148191)
(0.576605 0.000663885 -0.000321609)
(0.575572 0.000627477 -0.000144896)
(0.576574 0.000666228 -0.000645082)
(0.575557 0.000620616 -0.000442275)
(0.576465 0.000669362 -0.000473124)
(0.575637 0.00064106 1.82565e-05)
(0.576466 0.000677134 -0.000448389)
(0.575598 0.000646166 -0.000297837)
(0.576405 0.000672593 -0.000695728)
(0.575545 0.000644272 -0.000133218)
(0.576475 0.000656051 -0.000272893)
(0.57564 0.00064562 -0.000118454)
(0.576623 0.000677911 -0.000727761)
(0.575638 0.000650987 -0.000306285)
(0.576718 0.000670869 -0.000564139)
(0.575717 0.000660831 9.80725e-05)
(0.57687 0.000687862 -0.000579098)
(0.575838 0.000666621 -0.000319959)
(0.576829 0.000690854 -0.000740595)
(0.575857 0.000666234 -1.59931e-05)
(0.576949 0.000696094 -0.000339904)
(0.575951 0.000664183 3.79318e-05)
(0.576878 0.000721801 -0.000642568)
(0.663392 0.000768742 0.000633973)
(0.664259 0.000827349 0.000551905)
(0.663465 0.000756964 0.00107592)
(0.664288 0.000831851 0.000573292)
(0.663541 0.000773598 0.00074999)
(0.664286 0.000833578 0.000319554)
(0.663583 0.000773966 0.000983331)
(0.664341 0.000818431 0.000662569)
(0.663635 0.000769788 0.00101232)
(0.664254 0.000823419 0.000352574)
(0.663571 0.000776819 0.000799099)
(0.664258 0.000822674 0.000524225)
(0.663431 0.000760865 0.000952972)
(0.664166 0.000813673 0.000527513)
(0.663419 0.000765284 0.000618442)
(0.664017 0.000819706 0.000321273)
(0.663293 0.000772212 0.00076394)
(0.664017 0.000784908 0.000751064)
(0.663257 0.000766037 0.000788902)
(0.663977 0.00079459 0.000372773)
(0.663188 0.000774412 0.000626976)
(0.66388 0.000792115 0.000545747)
(0.663215 0.000766965 0.00100952)
(0.663962 0.000795773 0.000575756)
(0.663161 0.000765065 0.000728676)
(0.663874 0.000799097 0.000368185)
(0.663107 0.000759287 0.000940789)
(0.663968 0.000784485 0.000792953)
(0.663191 0.000762795 0.0009347)
(0.664014 0.000804181 0.000451005)
(0.663212 0.000773599 0.000690341)
(0.664019 0.000800479 0.000576428)
(0.663282 0.000772004 0.00100603)
(0.664092 0.000811626 0.000577535)
(0.663268 0.000787499 0.000734882)
(0.664085 0.000815844 0.000360377)
(0.663267 0.000773162 0.000871271)
(0.664215 0.00081154 0.000697554)
(0.663366 0.000776802 0.00089046)
(0.664269 0.000831706 0.000326533)
(0.744795 0.000763318 0.00144188)
(0.74541 0.000801072 0.00145397)
(0.744876 0.000748801 0.00178828)
(0.74547 0.000798698 0.00151607)
(0.744917 0.000750599 0.00149623)
(0.745519 0.00080621 0.00135634)
(0.744964 0.000749316 0.00163828)
(0.745519 0.000792116 0.00156103)
(0.744967 0.000747883 0.00165439)
(0.74555 0.000801576 0.00131661)
(0.744933 0.000754206 0.00148446)
(0.745468 0.000795685 0.00144904)
(0.744904 0.000744145 0.00172238)
(0.745421 0.000787209 0.00148373)
(0.744892 0.000756149 0.00146397)
(0.745397 0.000804544 0.00130985)
(0.744869 0.000768141 0.00165734)
(0.745418 0.000788481 0.00162806)
(0.744784 0.00076761 0.00170095)
(0.745396 0.000802643 0.00137919)
(0.744729 0.000790358 0.00154078)
(0.745345 0.000798766 0.00149108)
(0.744713 0.000766257 0.00181698)
(0.745243 0.000797534 0.00152997)
(0.74468 0.000765311 0.00158717)
(0.745185 0.000800533 0.00138655)
(0.744623 0.000754575 0.0016998)
(0.745152 0.000771481 0.00162112)
(0.744622 0.000753453 0.00171688)
(0.745198 0.000793293 0.00136016)
(0.744689 0.000764806 0.00151538)
(0.745145 0.000800819 0.00144588)
(0.744696 0.000751637 0.00175821)
(0.745243 0.000802943 0.00147608)
(0.744747 0.000774469 0.00151392)
(0.745295 0.000814054 0.00132544)
(0.744747 0.000763555 0.00161625)
(0.74538 0.000806843 0.00163007)
(0.744777 0.000759878 0.00161605)
(0.745475 0.00081465 0.00132127)
(0.818404 0.000662609 0.00178953)
(0.818631 0.00069671 0.00171028)
(0.818434 0.000639702 0.0019665)
(0.818691 0.000691059 0.00171334)
(0.818526 0.000640218 0.00175622)
(0.818707 0.000698306 0.00160751)
(0.818492 0.000636289 0.00180893)
(0.818758 0.000680949 0.00181719)
(0.818551 0.000628327 0.00183585)
(0.818779 0.000679716 0.00165493)
(0.818539 0.000645001 0.00174175)
(0.818753 0.000679144 0.00173651)
(0.81854 0.000637057 0.00192326)
(0.818774 0.000676674 0.00175371)
(0.818504 0.000651954 0.00182105)
(0.818728 0.000700917 0.00165727)
(0.818493 0.000663014 0.00193471)
(0.818767 0.000706111 0.00185215)
(0.818463 0.000674054 0.00195452)
(0.818744 0.000720025 0.00169138)
(0.818451 0.000692523 0.00183101)
(0.818741 0.000715281 0.00177004)
(0.818443 0.000673772 0.0020085)
(0.818698 0.000714352 0.00178289)
(0.818445 0.000677275 0.0018139)
(0.818661 0.000718895 0.00168433)
(0.818397 0.000670321 0.00189815)
(0.818672 0.000692978 0.00187023)
(0.818406 0.000662303 0.00191594)
(0.818642 0.000703602 0.00174464)
(0.818375 0.000665766 0.00179481)
(0.818598 0.000706132 0.00180855)
(0.818386 0.000639173 0.00199998)
(0.818607 0.000697173 0.00181035)
(0.81842 0.00066083 0.0017875)
(0.818645 0.000715565 0.00166665)
(0.818425 0.000655469 0.00186505)
(0.818648 0.000701461 0.00179632)
(0.818401 0.000649134 0.00187633)
(0.818638 0.000709033 0.00164957)
(0.881478 0.000553027 0.0012812)
(0.881434 0.000598839 0.00135126)
(0.881506 0.00053591 0.00138622)
(0.881439 0.000592622 0.00135197)
(0.881499 0.000543162 0.00132084)
(0.881446 0.000601756 0.00128492)
(0.881526 0.000539756 0.00136021)
(0.881468 0.000579986 0.00137672)
(0.881562 0.000525534 0.0013686)
(0.881473 0.000579187 0.00128939)
(0.881567 0.000534414 0.00130312)
(0.881499 0.000579494 0.00133942)
(0.881567 0.000527081 0.00137379)
(0.881506 0.000579768 0.00135331)
(0.881574 0.000544086 0.00128877)
(0.881496 0.000602801 0.00130577)
(0.881574 0.000555679 0.00133589)
(0.88147 0.000606848 0.00137761)
(0.881569 0.000566784 0.00134532)
(0.881475 0.000618316 0.00130167)
(0.881546 0.000579493 0.00130796)
(0.881494 0.000613603 0.00137584)
(0.88156 0.000561871 0.00141914)
(0.881504 0.000609319 0.00139355)
(0.881558 0.000572344 0.00131556)
(0.881525 0.000616668 0.00131425)
(0.881572 0.000572542 0.0013567)
(0.881521 0.00059992 0.001398)
(0.881565 0.000563855 0.00136779)
(0.881493 0.000612689 0.00134732)
(0.881523 0.000571298 0.00132791)
(0.881475 0.000611401 0.00140244)
(0.881531 0.000548304 0.00143284)
(0.881461 0.000601829 0.00140756)
(0.881509 0.000558866 0.00134518)
(0.881454 0.000611093 0.00132425)
(0.881479 0.000551573 0.00135127)
(0.881415 0.000595891 0.00136474)
(0.881461 0.000544053 0.00135759)
(0.88141 0.000603082 0.00128049)
(0.932141 0.000494782 0.000710799)
(0.931917 0.000525198 0.000762639)
(0.932131 0.000477526 0.000738786)
(0.931912 0.000519704 0.000765432)
(0.932124 0.000485872 0.000702728)
(0.931905 0.000526076 0.000741948)
(0.932129 0.000481216 0.000720452)
(0.931908 0.000509395 0.000783809)
(0.932138 0.000469303 0.000726871)
(0.931907 0.000506043 0.000749369)
(0.932139 0.000474249 0.000697604)
(0.93191 0.000508405 0.000763461)
(0.932149 0.000470911 0.000736745)
(0.931906 0.000507783 0.000771311)
(0.932149 0.000481634 0.000707059)
(0.931909 0.000525018 0.000741994)
(0.932157 0.000494965 0.000729569)
(0.931924 0.000529963 0.000789783)
(0.932155 0.000502223 0.000736172)
(0.93193 0.000541907 0.000754033)
(0.932155 0.000515794 0.00071582)
(0.931936 0.000539248 0.000782721)
(0.932159 0.000499409 0.000766466)
(0.931944 0.00053366 0.000794307)
(0.932157 0.000506082 0.000730571)
(0.931955 0.000538838 0.000758219)
(0.932166 0.000507856 0.000742613)
(0.931972 0.000528572 0.000801345)
(0.932167 0.000499743 0.00074721)
(0.931972 0.00054079 0.000765474)
(0.932172 0.000506652 0.000720086)
(0.931957 0.000541244 0.000778356)
(0.932167 0.000492372 0.000757504)
(0.931945 0.000531985 0.000783144)
(0.93216 0.000499425 0.00071501)
(0.931932 0.000540863 0.000752057)
(0.932158 0.000498117 0.000737238)
(0.931925 0.000529357 0.000794896)
(0.932149 0.000490003 0.000743694)
(0.93192 0.000528146 0.000752298)
(0.970343 0.000466681 0.00035606)
(0.970082 0.000491021 0.000419622)
(0.970339 0.000457219 0.000367124)
(0.970073 0.000486688 0.000423361)
(0.970333 0.00046324 0.000356321)
(0.97007 0.000493602 0.000413996)
(0.970337 0.000462711 0.000361403)
(0.970071 0.000481789 0.000428019)
(0.970336 0.000452006 0.000367066)
(0.970068 0.000477662 0.0004186)
(0.970333 0.000456875 0.000357333)
(0.970069 0.000481758 0.00042214)
(0.970332 0.000456084 0.000370635)
(0.970071 0.000480319 0.00042669)
(0.970331 0.000461926 0.000360958)
(0.970072 0.000492823 0.000415008)
(0.970337 0.000472872 0.000366942)
(0.970077 0.000496051 0.000425472)
(0.97034 0.000477961 0.000369412)
(0.970081 0.000503621 0.000411923)
(0.97034 0.000485986 0.000362184)
(0.970085 0.000502929 0.000420101)
(0.970344 0.000475805 0.000380355)
(0.970085 0.000497962 0.000428241)
(0.970345 0.000478909 0.000371557)
(0.970085 0.000502455 0.000420502)
(0.970349 0.000478635 0.000373123)
(0.970092 0.000495377 0.000431522)
(0.970352 0.000470507 0.000373793)
(0.970091 0.000500426 0.000417403)
(0.970354 0.000476178 0.000361741)
(0.970092 0.000501945 0.000419006)
(0.970358 0.000465939 0.000372804)
(0.970086 0.000493771 0.000422156)
(0.970356 0.000470687 0.000361943)
(0.97008 0.000501641 0.000415803)
(0.970354 0.000469685 0.000369241)
(0.970083 0.000493435 0.000432563)
(0.970349 0.000462013 0.000371945)
(0.970083 0.000491825 0.000418502)
(0.997461 0.000449251 0.000191287)
(0.997219 0.000467152 0.000248403)
(0.997459 0.000444234 0.000195236)
(0.997214 0.000462844 0.000252848)
(0.997457 0.000447434 0.000195358)
(0.997211 0.000467295 0.00025129)
(0.997458 0.000447657 0.000196817)
(0.997213 0.000459119 0.000256885)
(0.997457 0.000438734 0.000201478)
(0.997211 0.000455984 0.000257247)
(0.997452 0.000442718 0.000200608)
(0.997211 0.000459288 0.000257984)
(0.99745 0.000441615 0.000205001)
(0.997211 0.000456941 0.000260939)
(0.997449 0.000445602 0.000204207)
(0.99721 0.000466361 0.000255953)
(0.997451 0.000454578 0.000202731)
(0.997211 0.000469503 0.000256347)
(0.997454 0.000457409 0.000202246)
(0.997211 0.000475037 0.000252823)
(0.997457 0.000462738 0.000197507)
(0.997212 0.000475455 0.000253002)
(0.997461 0.000455471 0.000202639)
(0.997212 0.000470455 0.000256875)
(0.997462 0.000455897 0.000199975)
(0.997214 0.000473647 0.000253143)
(0.997465 0.000456192 0.000198287)
(0.997218 0.000468895 0.000253414)
(0.997466 0.000448564 0.00019679)
(0.997217 0.000470229 0.00024714)
(0.997467 0.000453732 0.000189592)
(0.997217 0.000471542 0.00024459)
(0.997469 0.000448408 0.000192388)
(0.997215 0.000466199 0.000247523)
(0.997467 0.000450234 0.000192305)
(0.997215 0.000472854 0.000247074)
(0.997468 0.000451408 0.000195551)
(0.997219 0.000467601 0.000252538)
(0.997465 0.000445913 0.000197363)
(0.99722 0.000466679 0.000249241)
(1.01539 0.000406618 0.000124948)
(1.0152 0.00041978 0.000175092)
(1.01539 0.000404168 0.000126793)
(1.0152 0.000416476 0.000178338)
(1.01539 0.000405006 0.000128572)
(1.0152 0.000419857 0.000178067)
(1.01539 0.000406461 0.000129107)
(1.0152 0.000415632 0.000179909)
(1.01539 0.000400893 0.000132268)
(1.0152 0.000412623 0.000181355)
(1.01539 0.000403445 0.000132917)
(1.0152 0.000415007 0.000181486)
(1.01538 0.000404179 0.000134917)
(1.0152 0.000414464 0.000184062)
(1.01538 0.000407061 0.000136461)
(1.01519 0.000420383 0.00018259)
(1.01538 0.000412821 0.000134435)
(1.01519 0.000423206 0.000182056)
(1.01539 0.000414326 0.0001342)
(1.01519 0.000426007 0.000181181)
(1.01539 0.000417548 0.000132264)
(1.01519 0.000427209 0.000180674)
(1.01539 0.000412643 0.000133773)
(1.01519 0.000422799 0.000182692)
(1.01539 0.00041129 0.000133536)
(1.01519 0.000424563 0.000180334)
(1.01539 0.000411405 0.000130663)
(1.0152 0.000421648 0.000178401)
(1.01539 0.000406541 0.000129066)
(1.0152 0.000421314 0.000175296)
(1.01539 0.000410214 0.000124827)
(1.0152 0.000423541 0.000172114)
(1.01539 0.000406855 0.000124997)
(1.0152 0.000418994 0.000173662)
(1.01539 0.000406206 0.000125843)
(1.0152 0.000423166 0.000173685)
(1.01539 0.000407539 0.000126226)
(1.0152 0.000420648 0.000175749)
(1.01539 0.00040463 0.000127262)
(1.0152 0.000419327 0.000175691)
(1.0262 0.000345605 0.000103119)
(1.02608 0.000355171 0.000143271)
(1.0262 0.000344886 0.00010363)
(1.02608 0.000353409 0.000145185)
(1.0262 0.000344703 0.000105998)
(1.02608 0.000355518 0.000145653)
(1.0262 0.000345852 0.000106109)
(1.02608 0.000354251 0.000146068)
(1.0262 0.000342559 0.000108099)
(1.02608 0.000351561 0.000147835)
(1.0262 0.000343376 0.000108668)
(1.02608 0.000353431 0.000147542)
(1.0262 0.000345294 0.000109058)
(1.02608 0.000353808 0.000149273)
(1.0262 0.000346546 0.000110757)
(1.02608 0.000356984 0.000149355)
(1.0262 0.000350268 0.000109296)
(1.02607 0.000359872 0.000148452)
(1.0262 0.000351413 0.000109501)
(1.02607 0.000361094 0.000149091)
(1.0262 0.000352935 0.000109497)
(1.02607 0.000362051 0.000148693)
(1.0262 0.000350234 0.000109969)
(1.02607 0.000358798 0.00014984)
(1.0262 0.000347988 0.000110288)
(1.02607 0.000359491 0.000148591)
(1.0262 0.000348277 0.000107724)
(1.02607 0.000357968 0.000146324)
(1.0262 0.000345601 0.000106672)
(1.02607 0.00035638 0.000145045)
(1.0262 0.00034673 0.000104474)
(1.02607 0.000357378 0.000142281)
(1.0262 0.000344757 0.000103243)
(1.02608 0.000354522 0.000142854)
(1.0262 0.000343319 0.000104089)
(1.02608 0.000357024 0.000143252)
(1.0262 0.000345764 0.00010339)
(1.02608 0.000356605 0.00014371)
(1.0262 0.000344563 0.000103908)
(1.02608 0.000354851 0.000144389)
(1.032 0.000275437 9.85356e-05)
(1.03193 0.000282914 0.000128429)
(1.032 0.000275514 9.80509e-05)
(1.03193 0.000282544 0.000128695)
(1.032 0.000275194 9.98148e-05)
(1.03193 0.00028401 0.000130044)
(1.032 0.000276051 0.000100215)
(1.03193 0.00028419 0.000129394)
(1.032 0.000274616 0.000100459)
(1.03193 0.000282203 0.00013076)
(1.032 0.000274621 0.00010156)
(1.03193 0.000283122 0.000130802)
(1.032 0.000276761 0.000100723)
(1.03193 0.000284389 0.000130856)
(1.032 0.000277674 0.000101845)
(1.03193 0.000286305 0.000131937)
(1.032 0.000279625 0.000101461)
(1.03193 0.000288621 0.00013058)
(1.032 0.000280765 0.000100962)
(1.03193 0.00028946 0.000131536)
(1.032 0.000281206 0.000102452)
(1.03193 0.000289748 0.00013213)
(1.032 0.000279669 0.000102357)
(1.03193 0.000287791 0.000132172)
(1.032 0.000277577 0.00010293)
(1.03193 0.0002873 0.000132359)
(1.032 0.000277619 0.000101771)
(1.03193 0.0002862 0.000130052)
(1.032 0.000276344 0.000100338)
(1.03193 0.000284338 0.000129604)
(1.032 0.000275827 0.000100108)
(1.03193 0.000284522 0.000128277)
(1.032 0.000274784 9.82425e-05)
(1.03193 0.000283592 0.000127659)
(1.032 0.000273485 9.88162e-05)
(1.03193 0.000284726 0.000129032)
(1.032 0.000275253 9.86561e-05)
(1.03193 0.000284865 0.000128472)
(1.032 0.000275215 9.80485e-05)
(1.03193 0.000283071 0.000128933)
(1.03468 0.000207497 9.34988e-05)
(1.03466 0.000214074 0.000114873)
(1.03468 0.000207767 9.31818e-05)
(1.03466 0.00021466 0.000113998)
(1.03468 0.000207623 9.34997e-05)
(1.03466 0.00021589 0.000115264)
(1.03469 0.000208153 9.46708e-05)
(1.03466 0.000216366 0.00011487)
(1.03469 0.000207798 9.38019e-05)
(1.03466 0.000215016 0.000115038)
(1.03469 0.000207578 9.49072e-05)
(1.03466 0.000215201 0.000115938)
(1.03469 0.000209323 9.42503e-05)
(1.03466 0.000216689 0.000114859)
(1.03469 0.000210382 9.40886e-05)
(1.03466 0.000217922 0.00011588)
(1.03469 0.000211149 9.47783e-05)
(1.03466 0.000219376 0.000115069)
(1.03469 0.000212056 9.36624e-05)
(1.03466 0.000220017 0.000115144)
(1.03469 0.000212008 9.53039e-05)
(1.03466 0.000219978 0.000116783)
(1.03469 0.00021096 9.56992e-05)
(1.03466 0.000218877 0.000116112)
(1.03469 0.000209358 9.55013e-05)
(1.03466 0.000217943 0.000116745)
(1.03469 0.000209268 9.58263e-05)
(1.03466 0.000216844 0.000115414)
(1.03468 0.000208657 9.4018e-05)
(1.03466 0.000215271 0.000114577)
(1.03468 0.000207629 9.44677e-05)
(1.03466 0.000215018 0.000114856)
(1.03468 0.000206726 9.33193e-05)
(1.03465 0.000215003 0.000113522)
(1.03468 0.000205801 9.29295e-05)
(1.03465 0.000215475 0.000114952)
(1.03468 0.000206833 9.39534e-05)
(1.03465 0.000215553 0.000114787)
(1.03468 0.000207399 9.2689e-05)
(1.03466 0.00021431 0.000114316)
(1.03573 0.000147449 8.06733e-05)
(1.03572 0.000152693 9.52188e-05)
(1.03573 0.000147648 8.08596e-05)
(1.03572 0.000153608 9.43713e-05)
(1.03573 0.000147502 8.0322e-05)
(1.03572 0.000154718 9.49015e-05)
(1.03573 0.000147806 8.15298e-05)
(1.03572 0.000155208 9.50108e-05)
(1.03573 0.000147986 8.06766e-05)
(1.03572 0.000154315 9.44166e-05)
(1.03573 0.000147987 8.11646e-05)
(1.03572 0.000154184 9.54242e-05)
(1.03573 0.000149183 8.10576e-05)
(1.03572 0.000155453 9.44069e-05)
(1.03573 0.000150132 8.01886e-05)
(1.03572 0.000156421 9.47307e-05)
(1.03573 0.000150453 8.10642e-05)
(1.03572 0.000157222 9.46926e-05)
(1.03573 0.00015093 8.02189e-05)
(1.03572 0.000157566 9.41721e-05)
(1.03573 0.000150842 8.11534e-05)
(1.03572 0.0001575 9.58074e-05)
(1.03573 0.000150093 8.20992e-05)
(1.03572 0.00015681 9.53584e-05)
(1.03573 0.000148881 8.1507e-05)
(1.03572 0.000155779 9.56171e-05)
(1.03573 0.000148632 8.22901e-05)
(1.03572 0.000154696 9.53111e-05)
(1.03573 0.000148326 8.1017e-05)
(1.03572 0.000153486 9.42664e-05)
(1.03573 0.000147325 8.11488e-05)
(1.03572 0.000153211 9.50439e-05)
(1.03573 0.000146416 8.09263e-05)
(1.03572 0.00015355 9.40078e-05)
(1.03573 0.000145728 8.0039e-05)
(1.03572 0.000153681 9.47729e-05)
(1.03573 0.000146384 8.12728e-05)
(1.03572 0.000153674 9.52891e-05)
(1.03573 0.000147234 8.03476e-05)
(1.03572 0.000152869 9.4416e-05)
(1.03606 0.000100153 6.24235e-05)
(1.03606 0.000104124 7.15902e-05)
(1.03606 0.000100225 6.2665e-05)
(1.03605 0.000105139 7.11143e-05)
(1.03606 0.000100076 6.20909e-05)
(1.03605 0.000106178 7.11348e-05)
(1.03606 0.000100316 6.28052e-05)
(1.03605 0.000106627 7.12741e-05)
(1.03606 0.000100791 6.23562e-05)
(1.03605 0.000106103 7.06354e-05)
(1.03606 0.000101086 6.23651e-05)
(1.03606 0.00010586 7.12091e-05)
(1.03606 0.000101929 6.23665e-05)
(1.03606 0.000106794 7.06192e-05)
(1.03606 0.000102694 6.15339e-05)
(1.03606 0.00010769 7.05305e-05)
(1.03606 0.000102801 6.2051e-05)
(1.03606 0.00010811 7.07222e-05)
(1.03606 0.000102913 6.16886e-05)
(1.03606 0.000108181 7.02824e-05)
(1.03606 0.000102786 6.21301e-05)
(1.03606 0.000108161 7.1377e-05)
(1.03606 0.000102259 6.30701e-05)
(1.03606 0.000107735 7.13599e-05)
(1.03606 0.000101362 6.27175e-05)
(1.03606 0.000106775 7.14086e-05)
(1.03606 0.000101125 6.33101e-05)
(1.03606 0.000105793 7.15296e-05)
(1.03606 0.000101021 6.27121e-05)
(1.03606 0.000104902 7.0809e-05)
(1.03606 0.00010008 6.26046e-05)
(1.03606 0.000104657 7.13442e-05)
(1.03606 9.90559e-05 6.26991e-05)
(1.03606 0.000104965 7.08266e-05)
(1.03606 9.84095e-05 6.20204e-05)
(1.03605 0.000104949 7.10996e-05)
(1.03606 9.88862e-05 6.28239e-05)
(1.03605 0.000104838 7.17695e-05)
(1.03606 9.98047e-05 6.24451e-05)
(1.03605 0.000104231 7.11317e-05)
(1.03614 6.5591e-05 4.39841e-05)
(1.03614 6.82886e-05 4.94327e-05)
(1.03614 6.55747e-05 4.40452e-05)
(1.03614 6.923e-05 4.92211e-05)
(1.03614 6.53752e-05 4.36697e-05)
(1.03614 7.02027e-05 4.90516e-05)
(1.03614 6.56166e-05 4.39503e-05)
(1.03614 7.05888e-05 4.89724e-05)
(1.03614 6.62294e-05 4.37721e-05)
(1.03614 7.02606e-05 4.8528e-05)
(1.03614 6.66914e-05 4.36344e-05)
(1.03614 6.99858e-05 4.87244e-05)
(1.03614 6.73237e-05 4.35256e-05)
(1.03614 7.06447e-05 4.84404e-05)
(1.03614 6.7892e-05 4.29647e-05)
(1.03614 7.14092e-05 4.82887e-05)
(1.03614 6.78573e-05 4.31299e-05)
(1.03614 7.16672e-05 4.83856e-05)
(1.03614 6.78094e-05 4.30627e-05)
(1.03614 7.16139e-05 4.82139e-05)
(1.03614 6.76345e-05 4.33719e-05)
(1.03614 7.15677e-05 4.88603e-05)
(1.03614 6.72108e-05 4.40831e-05)
(1.03614 7.13071e-05 4.9086e-05)
(1.03614 6.65894e-05 4.40821e-05)
(1.03614 7.0531e-05 4.91494e-05)
(1.03614 6.64429e-05 4.44164e-05)
(1.03614 6.96273e-05 4.92659e-05)
(1.03614 6.63755e-05 4.4208e-05)
(1.03614 6.89481e-05 4.89683e-05)
(1.03614 6.54957e-05 4.40937e-05)
(1.03614 6.87019e-05 4.92096e-05)
(1.03614 6.43773e-05 4.41549e-05)
(1.03614 6.89371e-05 4.90197e-05)
(1.03614 6.38037e-05 4.38286e-05)
(1.03614 6.89251e-05 4.91315e-05)
(1.03614 6.42027e-05 4.42015e-05)
(1.03614 6.86813e-05 4.96133e-05)
(1.03614 6.51073e-05 4.41001e-05)
(1.03614 6.82461e-05 4.93079e-05)
(1.03616 4.21989e-05 2.87262e-05)
(1.03616 4.37733e-05 3.18059e-05)
(1.03616 4.21436e-05 2.86335e-05)
(1.03616 4.46558e-05 3.1724e-05)
(1.03616 4.1913e-05 2.83927e-05)
(1.03616 4.5544e-05 3.15024e-05)
(1.03616 4.21874e-05 2.84696e-05)
(1.03616 4.58658e-05 3.12365e-05)
(1.03616 4.28264e-05 2.84115e-05)
(1.03616 4.55896e-05 3.09156e-05)
(1.03616 4.3375e-05 2.82496e-05)
(1.03616 4.53479e-05 3.09237e-05)
(1.03616 4.38965e-05 2.8053e-05)
(1.03616 4.57969e-05 3.08174e-05)
(1.03616 4.42297e-05 2.77001e-05)
(1.03616 4.64129e-05 3.07059e-05)
(1.03616 4.41227e-05 2.76725e-05)
(1.03616 4.66494e-05 3.06973e-05)
(1.03616 4.40197e-05 2.77195e-05)
(1.03616 4.65646e-05 3.06716e-05)
(1.03616 4.38287e-05 2.8e-05)
(1.03616 4.64801e-05 3.10894e-05)
(1.03616 4.34472e-05 2.85081e-05)
(1.03616 4.6296e-05 3.1379e-05)
(1.03616 4.30293e-05 2.8705e-05)
(1.03616 4.56768e-05 3.14809e-05)
(1.03616 4.29696e-05 2.89194e-05)
(1.03616 4.48505e-05 3.1571e-05)
(1.03616 4.28681e-05 2.88911e-05)
(1.03616 4.42999e-05 3.1544e-05)
(1.03616 4.2068e-05 2.88506e-05)
(1.03616 4.41409e-05 3.16636e-05)
(1.03616 4.10132e-05 2.88623e-05)
(1.03616 4.43093e-05 3.15724e-05)
(1.03616 4.05369e-05 2.87275e-05)
(1.03616 4.43057e-05 3.16361e-05)
(1.03616 4.09137e-05 2.88459e-05)
(1.03616 4.39763e-05 3.19232e-05)
(1.03616 4.17076e-05 2.88344e-05)
(1.03616 4.36113e-05 3.18278e-05)
(1.03617 2.69951e-05 1.77826e-05)
(1.03617 2.77508e-05 1.94765e-05)
(1.03617 2.69172e-05 1.75969e-05)
(1.03617 2.85837e-05 1.94438e-05)
(1.03617 2.66889e-05 1.73986e-05)
(1.03617 2.93906e-05 1.92046e-05)
(1.03617 2.69926e-05 1.7433e-05)
(1.03617 2.96315e-05 1.88449e-05)
(1.03617 2.76056e-05 1.74414e-05)
(1.03617 2.93664e-05 1.85602e-05)
(1.03617 2.81869e-05 1.72876e-05)