# y+ ()       
# Time        	patch         	min           	max           	average       
30            	bottomWall	1.293327e+00	5.094181e+00	2.860430e+00
30            	topWall	1.472719e+00	4.085668e+00	2.445893e+00
