/*--------------------------------*- C++ -*----------------------------------*\
  =========                 |
  \\      /  F ield         | OpenFOAM: The Open Source CFD Toolbox
   \\    /   O peration     | Website:  https://openfoam.org
    \\  /    A nd           | Version:  10
     \\/     M anipulation  |
\*---------------------------------------------------------------------------*/
FoamFile
{
    format      ascii;
    class       volScalarField;
    location    "4";
    object      p;
}
// * * * * * * * * * * * * * * * * * * * * * * * * * * * * * * * * * * * * * //

dimensions      [0 2 -2 0 0 0 0];

internalField   nonuniform List<scalar> 
25600
(
-0.00468016
-0.00211914
0.00225221
0.00498232
-0.00275882
-0.00637038
-0.00425078
0.00263836
0.00529679
0.000509197
0.0036302
0.000900952
-0.00586656
-0.00170987
0.00314777
0.00229911
-0.000104729
-0.000694899
0.00119016
-0.000266663
-0.00403154
-0.00673334
-0.000832259
0.00573533
0.00400692
-0.00272471
-0.00900592
0.00197713
0.00964664
-0.00138457
-0.00719879
-0.00365349
8.35891e-05
0.00505195
0.00610726
-0.00101539
-0.00641174
-0.00155281
0.0069471
0.00223136
-0.00468576
-0.0021521
0.00224418
0.00504781
-0.00271248
-0.00640263
-0.00431734
0.00259005
0.00535845
0.000545545
0.00360672
0.000918784
-0.00586429
-0.00171181
0.0031869
0.00232447
-0.00011671
-0.000709673
0.00122962
-0.000230463
-0.00401945
-0.00677403
-0.000875032
0.00575978
0.0040474
-0.00270822
-0.00904828
0.00190821
0.00969728
-0.00131973
-0.00720727
-0.00368861
2.03479e-05
0.00504651
0.00615936
-0.000976176
-0.00645473
-0.00162957
0.00698515
0.00228825
-0.00483029
-0.00222347
0.00222932
0.00512395
-0.00278941
-0.00655854
-0.00449716
0.00250925
0.00546173
0.00054695
0.00363065
0.000967038
-0.0058634
-0.00173823
0.00320155
0.00232655
-0.000142967
-0.000736701
0.00129465
-0.00023999
-0.00409968
-0.00686941
-0.000943018
0.00582385
0.00414797
-0.00275087
-0.00925302
0.00179923
0.00981515
-0.00130853
-0.00727295
-0.00373812
-8.23059e-05
0.00503224
0.00626242
-0.0009805
-0.00655017
-0.00171697
0.00707919
0.00235906
-0.00512292
-0.0023975
0.00217993
0.00522106
-0.00299758
-0.00694306
-0.00453079
0.00241055
0.0055085
0.000490517
0.0035901
0.00102297
-0.00592418
-0.00179786
0.00318374
0.00225341
-0.000210131
-0.00083379
0.00138322
-0.00028641
-0.00433079
-0.00705553
-0.00102103
0.00592673
0.00431806
-0.0027931
-0.00963404
0.00162525
0.0099722
-0.00137874
-0.00744338
-0.00377763
-0.000161986
0.00506212
0.00631934
-0.00104548
-0.00671246
-0.00179105
0.007251
0.00252249
-0.00537719
-0.00273045
0.0019824
0.00527385
-0.00313848
-0.00755744
-0.00441439
0.0024421
0.00555104
0.000373524
0.00346841
0.00105602
-0.00626514
-0.00197836
0.00307856
0.00210917
-0.000364776
-0.00104266
0.00141271
-0.000268863
-0.00461589
-0.00737938
-0.00118451
0.0058814
0.00445714
-0.00245168
-0.00990285
0.00133899
0.0101247
-0.00150303
-0.00771403
-0.00387011
-0.000203531
0.00518559
0.00665717
-0.00110651
-0.00694504
-0.00187063
0.00735941
0.00284979
-0.00542178
-0.00314391
0.00157982
0.00519076
-0.00267786
-0.00799333
-0.00432111
0.00239336
0.005617
0.000122974
0.0032323
0.00102949
-0.00685861
-0.00238089
0.00305765
0.00203436
-0.000610417
-0.00129604
0.00139411
-0.000236272
-0.00462716
-0.00771224
-0.0014051
0.0058178
0.00449036
-0.00202482
-0.00971476
0.00107307
0.0101132
-0.00171892
-0.00783531
-0.00401824
-0.000232116
0.00521263
0.00672547
-0.00132805
-0.00722257
-0.00217079
0.00710771
0.00312174
-0.00522542
-0.00356429
0.00110167
0.00499898
-0.00193551
-0.00769862
-0.00417206
0.00229584
0.00526585
-0.000376996
0.00286595
0.000919467
-0.00735462
-0.0028835
0.00313744
0.00212006
-0.000879715
-0.00149286
0.00150545
-0.000241985
-0.00455265
-0.00791275
-0.00163885
0.00587128
0.00458212
-0.00189727
-0.00953768
0.000874819
0.00988302
-0.00214566
-0.00792466
-0.00401359
-0.000291443
0.00499485
0.00653552
-0.00170051
-0.00745638
-0.00272465
0.00669089
0.00334503
-0.00473914
-0.00398649
0.0005557
0.00496146
-0.00135063
-0.00672281
-0.00390786
0.00193236
0.0046878
-0.000992733
0.00249513
0.000757565
-0.00752302
-0.00334456
0.00328716
0.00237275
-0.00120734
-0.0017392
0.001779
-0.000105708
-0.00464944
-0.00805663
-0.00193195
0.00599988
0.00491855
-0.00176116
-0.00942505
0.000479248
0.00955218
-0.00248256
-0.00799116
-0.0039357
-0.000317952
0.00457882
0.00621607
-0.0022343
-0.00759566
-0.00344501
0.00618595
0.00363539
-0.00414161
-0.00422393
0.000203827
0.00495624
-0.000904444
-0.00582245
-0.00335149
0.00132981
0.00396546
-0.00131636
0.00248314
0.000664858
-0.00737531
-0.00369427
0.00337228
0.0027737
-0.00154231
-0.00220333
0.00178567
0.00022338
-0.00473699
-0.00813658
-0.00237641
0.00599392
0.00526522
-0.00139425
-0.00911787
7.68612e-05
0.00933971
-0.0023986
-0.00788843
-0.00354974
-0.000226096
0.00430058
0.00580889
-0.00289709
-0.00776124
-0.00354476
0.00566896
0.00392633
-0.00337952
-0.00401442
0.000347333
0.00512533
-0.000212103
-0.00507809
-0.00294911
0.000540861
0.00327477
-0.00116304
0.00287595
0.000804924
-0.00722729
-0.00336538
0.00372306
0.00330652
-0.00163153
-0.00272424
0.00208768
0.000910696
-0.00460745
-0.00823715
-0.00312191
0.00549205
0.0052879
-0.000954569
-0.00883667
-0.000444358
0.00919662
-0.00205254
-0.00775477
-0.00356433
-0.000136881
0.00428468
0.00560578
-0.00330332
-0.007915
-0.00362942
0.00619384
0.00445432
-0.0028792
-0.00387752
-0.000158634
0.00508303
0.000502296
-0.00457091
-0.00269331
-1.20769e-05
0.00258965
-0.00096761
0.00278521
0.00106405
-0.00687409
-0.00322281
0.00381097
0.00357967
-0.00143246
-0.00303377
0.00225505
0.00173214
-0.00414415
-0.0083212
-0.00389039
0.00486498
0.00507234
-0.000727811
-0.00855206
-0.00118049
0.00901773
-0.00149173
-0.00749628
-0.00355382
-0.00011073
0.00431769
0.00567542
-0.00325858
-0.00809105
-0.00392035
0.00522644
0.00460933
-0.00215675
-0.00356204
-0.000507964
0.00423468
0.000858427
-0.00357893
-0.00204329
-4.93658e-05
0.00186307
-0.000696174
0.00179983
0.00088183
-0.00639796
-0.00324954
0.00363862
0.00320563
-0.00133386
-0.00288526
0.00207268
0.00231713
-0.00279855
-0.00725232
-0.00378813
0.00380975
0.0029521
-0.000544898
-0.00769694
-0.00198356
0.00862743
-0.000211112
-0.00635944
-0.00343235
-0.000228906
0.00399392
0.00638893
-0.00216756
-0.00731206
-0.00381697
0.00437941
0.00484435
-0.00115167
-0.00353581
-0.000934894
0.00328269
0.00105237
-0.00251925
-0.00191236
-0.000193561
0.00144952
-0.00105484
0.000679016
8.42627e-05
-0.00541075
-0.0024668
0.00344439
0.00256943
-0.00131025
-0.0026029
0.00196028
0.00256454
-0.00205648
-0.00585426
-0.00307858
0.00329905
0.00278273
6.1119e-05
-0.00597223
-0.00208264
0.00767269
0.000668345
-0.00545774
-0.00358834
-0.00141644
0.0032188
0.00682152
-0.000723735
-0.0062445
-0.00345095
0.00371915
0.00537109
-0.00063733
-0.00364584
-0.0012039
0.00227116
0.00105389
-0.00213591
-0.00180832
-0.000496611
0.0010709
-0.000501678
0.000493295
-0.000536125
-0.00458635
-0.00137389
0.00369592
0.00210066
-0.0013755
-0.00233787
0.00150488
0.0023404
-0.00166944
-0.00495903
-0.00222841
0.0030716
0.00280037
0.0007237
-0.00460387
-0.00196048
0.00656304
0.00094226
-0.00430405
-0.00362177
-0.00154687
0.002862
0.00549435
-0.000151433
-0.00522536
-0.00326755
0.00260163
0.00486945
4.77792e-05
-0.00350095
-0.000928617
0.00159464
0.00162163
-0.00158254
-0.00118697
-0.000454336
0.000579321
5.82352e-05
0.00115941
-0.000546532
-0.00421448
-0.0013395
0.00357067
0.00197567
-0.0013574
-0.00217142
0.000721065
0.00195953
-0.0010486
-0.00402408
-0.001403
0.00253192
0.00247141
0.000811383
-0.00362648
-0.00170959
0.00520217
0.00129706
-0.00313934
-0.00297231
-0.00136436
0.00243079
0.00490162
0.000318239
-0.00421291
-0.00283323
0.0015246
0.00415738
0.000555348
-0.00277217
-0.000476546
0.00114181
0.00164178
-0.00080035
-0.000410441
-0.000220262
0.00016507
0.000224293
0.00155745
-0.000393045
-0.00349058
-0.00120468
0.00325323
0.00190981
-0.00112845
-0.00168709
0.000233341
0.00158444
-0.00051655
-0.00293037
-0.00104664
0.00190447
0.00190831
0.000874079
-0.00284215
-0.00133836
0.0041453
0.00135303
-0.00220513
-0.00210708
-0.000910631
0.0018617
0.00420594
0.000593702
-0.00346611
-0.00232487
0.000819053
0.00331441
0.000916924
-0.00205942
-5.69716e-05
0.000834461
0.00149085
-0.000174544
8.12316e-05
0.000148144
3.16141e-05
0.000435945
0.0016788
-0.00020031
-0.00267602
-0.000813532
0.00286121
0.00179512
-0.000731046
-0.00115944
0.000110744
0.00124544
-0.000168331
-0.00210508
-0.000773992
0.00164884
0.00154625
0.000864019
-0.00196381
-0.000935031
0.00345655
0.00091541
-0.00153211
-0.00128931
-0.000450532
0.00138635
0.00354135
0.000694693
-0.00267122
-0.00115371
0.000407308
0.00268704
0.0010581
-0.00145945
0.000231899
0.000692572
0.00125075
0.000197167
0.000352595
0.000374479
5.3083e-06
0.000666038
0.00162993
-7.97787e-05
-0.00187316
-0.000444866
0.00241199
0.00160522
-0.000348029
-0.00075896
0.000129621
0.00106774
2.68983e-05
-0.00147091
-0.00060303
0.00142248
0.00111552
0.000809383
-0.0012129
-0.000630833
0.00290878
0.000901343
-0.000997959
-0.000700184
-0.000150017
0.000933334
0.00266059
0.000699951
-0.00198901
-0.000800631
0.000178001
0.00200282
0.0010859
-0.00101199
0.000365693
0.000623531
0.000685909
0.000385905
0.000421311
0.000538913
3.24261e-05
0.000710739
0.00150552
-3.06459e-05
-0.00122877
-0.000159564
0.0018528
0.00138534
-4.19987e-05
-0.000479434
0.000251932
0.000910125
9.90348e-05
-0.000994796
-0.000406686
0.00119487
0.000832353
0.000743185
-0.000636599
-0.000448934
0.00241325
0.000847667
-0.000648732
-0.000270388
-1.23285e-05
0.000609336
0.00193513
0.000662959
-0.00150838
-0.000552488
6.9629e-05
0.00146033
0.00107799
-0.000682165
0.000405674
0.00060454
0.000473335
0.000462292
0.000404942
0.000641238
7.6251e-05
0.00064726
0.00136734
-2.51427e-05
-0.000727801
4.08431e-05
0.00134175
0.00121115
0.00018823
-0.000297062
0.000318723
0.000756288
0.000133027
-0.000618514
-0.000232948
0.000968772
0.000647227
0.000648801
-0.00022077
-0.000281599
0.0019394
0.000786045
-0.000407853
7.5346e-05
7.01413e-05
0.000396396
0.00141797
0.000598949
-0.00112698
-0.000290715
3.37123e-05
0.00099425
0.00103931
-0.000450225
0.000446815
0.000634912
0.000329262
0.000483195
0.000373152
0.000692392
0.000152295
0.00053348
0.00124483
-4.18011e-05
-0.000363634
0.000192884
0.00095547
0.00106625
0.000327267
-0.000185818
0.00035369
0.000611131
0.00015796
-0.000342598
-8.2479e-05
0.00076131
0.00052683
0.000574969
2.87487e-05
-0.000127376
0.00151059
0.00074422
-0.000155168
0.000326329
0.000164513
0.000272114
0.00110581
0.000530142
-0.00082693
-0.000101478
4.60489e-05
0.000654867
0.00100026
-0.000266242
0.000428104
0.000698135
0.000197676
0.000474626
0.000449886
0.000695338
0.000254684
0.000448601
0.00113201
-4.17011e-05
-0.000126846
0.000349237
0.000664319
0.000933174
0.000428459
-0.000113769
0.000366641
0.000517336
0.000166259
-0.000139989
4.68223e-05
0.000589597
0.000445589
0.000511511
0.000182388
2.18151e-05
0.00116343
0.000702051
-1.27214e-05
0.000509248
0.000294775
0.0002049
0.000905306
0.000466299
-0.000572724
0.000122371
9.08735e-05
0.00040911
0.000966809
-0.000104218
0.000357195
0.000770927
9.76596e-05
0.00044735
0.000487024
0.000639643
0.000362395
0.000394598
0.00101946
2.77096e-05
2.61772e-06
0.000495429
0.000470888
0.000793232
0.000502041
-6.83134e-05
0.000379113
0.000488537
0.000182529
3.22154e-05
0.000165242
0.000448808
0.000389611
0.000461555
0.00027647
0.000140491
0.00090971
0.000666722
3.52708e-05
0.000616309
0.000412814
0.000130989
0.000782904
0.000425327
-0.000365399
0.000250759
0.000143484
0.000255287
0.000923989
4.58747e-05
0.000248056
0.000847727
6.66487e-05
0.00038935
0.000526557
0.000552699
0.000461187
0.000378185
0.000900913
0.000123092
5.50812e-05
0.000591317
0.000365147
0.000624458
0.000584421
-2.08542e-05
0.000366204
0.000509616
0.000156011
0.000144018
0.00027827
0.000325388
0.000351061
0.000438656
0.00031558
0.000212905
0.000746693
0.000641389
3.08377e-05
0.000626364
0.00050563
0.000109181
0.000696275
0.000412494
-0.000214518
0.000342083
0.000209684
0.000164678
0.000864415
0.00019547
0.000121608
0.000886022
0.000164638
0.000307265
0.000562979
0.000467392
0.000515454
0.000420341
0.000746847
0.000212375
7.80257e-05
0.000623226
0.000342446
0.000472648
0.000597534
4.12044e-05
0.000313912
0.000569649
0.000131255
0.000194716
0.000377368
0.000242451
0.000320049
0.000458643
0.000322222
0.000252843
0.000660453
0.000632707
4.70064e-05
0.000573849
0.00059185
0.000104053
0.000607268
0.000442254
-0.000100827
0.000403324
0.0002922
0.000107531
0.000773842
0.000349089
1.73469e-05
0.000852261
0.000324415
0.000221273
0.000572266
0.000416577
0.000498111
0.000484723
0.000608283
0.00026566
0.000114764
0.000597592
0.000348794
0.000355078
0.000571559
0.000117561
0.000272836
0.00057539
0.000117628
0.00018619
0.000485405
0.000214304
0.000271188
0.000519158
0.000330205
0.00024879
0.000617234
0.000642536
8.70312e-05
0.000474579
0.000661502
0.00013502
0.000511334
0.000494893
-1.22874e-05
0.000423406
0.000361526
6.62893e-05
0.000654919
0.000500987
-2.40654e-05
0.000741436
0.000523097
0.000134684
0.000535642
0.000417628
0.00042562
0.000542989
0.000537995
0.000267508
0.000170642
0.000554065
0.000390325
0.000292412
0.000520656
0.000187467
0.000243994
0.00057439
0.000138497
0.000135742
0.000573857
0.000248053
0.000190678
0.00057044
0.000383431
0.000199016
0.000566559
0.00066739
0.000162827
0.000378406
0.000694077
0.000237158
0.000418511
0.000541578
8.2076e-05
0.000395245
0.00044309
6.47584e-05
0.00052982
0.000614099
1.5674e-05
0.000563166
0.000652034
0.00016917
0.000461513
0.000457685
0.000335182
0.000545451
0.000546126
0.000247683
0.00021146
0.0005312
0.000415812
0.000268509
0.0005029
0.000248876
0.000214961
0.00058975
0.00021732
9.51851e-05
0.000600797
0.000347301
0.000105532
0.000543313
0.000494887
0.000180615
0.000480217
0.00068383
0.000256805
0.000281553
0.000670478
0.000350518
0.000357464
0.000549522
0.000190024
0.000343987
0.000497768
0.000112289
0.000398193
0.000655661
0.000136078
0.000366196
0.000682104
0.000270046
0.000376133
0.000493445
0.000304028
0.000484084
0.000587866
0.000291447
0.000212742
0.000508944
0.000446719
0.000257769
0.000486406
0.000315402
0.000180676
0.000561574
0.000346217
5.69651e-05
0.000531481
0.000493456
8.80605e-05
0.000423371
0.000602452
0.000236226
0.00034981
0.000653358
0.000369722
0.000249335
0.000593389
0.00042138
0.000294206
0.000512361
0.000289386
0.000310119
0.000516716
0.000214272
0.000307076
0.000621226
0.000298636
0.000257739
0.000616677
0.000398016
0.000327099
0.000488716
0.000327989
0.00039193
0.000594042
0.000379414
0.00019517
0.000461272
0.000497039
0.000269293
0.000445841
0.000401199
0.000172613
0.000485838
0.000484603
8.27469e-05
0.00039134
0.000601776
0.000162309
0.000272388
0.000622402
0.000365495
0.000255692
0.00056282
0.000471589
0.000267786
0.000483244
0.000463439
0.000314425
0.000456145
0.000366985
0.000309592
0.000505592
0.00030335
0.00027667
0.000547329
0.000436806
0.000240327
0.000490598
0.000467562
0.000339155
0.000457002
0.000367461
0.000345952
0.000551588
0.000450682
0.000222345
0.000402509
0.000507074
0.000302719
0.000403356
0.000459672
0.000211366
0.000398808
0.000547404
0.000176143
0.000286209
0.000606219
0.000299227
0.000194475
0.000545566
0.000482365
0.000246574
0.0004394
0.000521699
0.000333745
0.000382141
0.000462074
0.000383049
0.000412239
0.000383487
0.000341345
0.000485947
0.000372967
0.000294392
0.000477491
0.000483292
0.000280498
0.000386293
0.000478612
0.000395299
0.000420557
0.000379935
0.000345642
0.000494357
0.000473005
0.000287027
0.00037396
0.000479775
0.000345153
0.000392048
0.000460325
0.000270711
0.000360586
0.000524304
0.000279572
0.000270825
0.000525063
0.000380399
0.000225247
0.000456474
0.000505506
0.000292294
0.000348161
0.000516783
0.000406009
0.000320939
0.000436652
0.000458225
0.000394173
0.000363981
0.000391285
0.000474881
0.000392684
0.00794471
0.00467514
-0.00235122
-0.00338965
0.000530875
0.00778685
0.00443024
-0.00461315
-0.00408339
0.00370529
0.00487103
-0.00354553
-0.00894083
0.000897979
0.00788833
0.00405054
-0.00161933
-0.0021543
-0.000970303
0.00133197
0.00519658
0.0046193
0.000376965
-0.00194722
-0.00236694
-0.00113144
0.00209224
0.00419596
0.00291497
0.000526974
0.00513011
0.00930427
-0.00105292
-0.0123674
-0.00410796
0.00522397
0.00497104
-0.00494471
-0.00662238
0.00213418
0.00793553
0.00468586
-0.00236989
-0.00342007
0.000497315
0.0078045
0.00444136
-0.00463793
-0.00411109
0.00372404
0.00490377
-0.00355658
-0.00899953
0.000848243
0.00791012
0.00406591
-0.00165387
-0.0021812
-0.000979916
0.00128771
0.00515469
0.00462737
0.000369933
-0.00196119
-0.00238696
-0.00121631
0.00201984
0.0041847
0.00291763
0.00050584
0.00512166
0.00935617
-0.00101273
-0.0124011
-0.00414498
0.00520411
0.00498287
-0.00492041
-0.00667692
0.00209634
0.00791131
0.00468009
-0.00236911
-0.00342237
0.000434821
0.00782804
0.0044603
-0.00471393
-0.00416423
0.00375877
0.00493963
-0.0035931
-0.00903838
0.000789475
0.00792738
0.00407013
-0.00173
-0.00221585
-0.00101389
0.00121612
0.00507053
0.00462292
0.000369993
-0.00198512
-0.00237544
-0.00131805
0.00186812
0.00415957
0.00294705
0.000436043
0.00509678
0.00946587
-0.000990197
-0.0124769
-0.00419704
0.00517438
0.00501621
-0.0048858
-0.00672378
0.00204798
0.00780232
0.00462948
-0.00235445
-0.0033754
0.000357669
0.0077438
0.00438228
-0.00484374
-0.00419509
0.00377143
0.0049615
-0.00363351
-0.00908342
0.000574781
0.00777672
0.00402609
-0.00174391
-0.00218542
-0.00113063
0.000888852
0.00469771
0.00459904
0.000440497
-0.0020721
-0.00232163
-0.0014157
0.00149215
0.00395821
0.00294968
0.000342455
0.0050075
0.00960632
-0.000983865
-0.0125765
-0.00415478
0.00503747
0.00496702
-0.00479922
-0.00680566
0.0019725
0.00744822
0.00448933
-0.00228243
-0.0033241
4.71759e-05
0.00727489
0.00416314
-0.00491911
-0.00430195
0.00364998
0.00492636
-0.00361182
-0.0089895
9.60861e-05
0.00719715
0.00382861
-0.00160784
-0.00195499
-0.00117492
0.000322088
0.00378416
0.00425916
0.000680831
-0.00210884
-0.00240843
-0.00162802
0.000905588
0.00350803
0.00290503
-2.63044e-06
0.00469692
0.00969598
-0.000928184
-0.0125552
-0.00418156
0.0045883
0.00470783
-0.0044442
-0.00686482
0.0017883
0.00675353
0.00424796
-0.0021706
-0.00334651
-0.000606056
0.00613946
0.00369801
-0.00426551
-0.00432447
0.00329542
0.00469352
-0.00340379
-0.00857546
-0.000338937
0.00631977
0.00341713
-0.00147677
-0.00152914
-0.000962217
-0.000113469
0.00270827
0.0035979
0.000956204
-0.00192054
-0.00261629
-0.00186298
4.80915e-05
0.00289969
0.00293346
-0.000242495
0.00411156
0.00945593
-0.000862868
-0.0124472
-0.00424609
0.00377991
0.00371624
-0.00410447
-0.00670397
0.00156597
0.00617169
0.00406757
-0.00195894
-0.00350384
-0.0010279
0.005127
0.00320776
-0.00358225
-0.00409364
0.0028239
0.00403192
-0.00296565
-0.00794061
-0.000483595
0.00538124
0.00289413
-0.00151023
-0.00115645
-0.000684614
-0.000409527
0.00177497
0.00275413
0.00104481
-0.00169821
-0.00249564
-0.00194506
-0.000814147
0.00221008
0.00296016
-0.000115786
0.00370048
0.00909422
-0.000587819
-0.0120497
-0.00426164
0.00310271
0.00301498
-0.0038587
-0.00652475
0.00131736
0.00569115
0.00402328
-0.00155994
-0.00378743
-0.00130093
0.00427474
0.00314368
-0.00302371
-0.00388728
0.00249064
0.00335503
-0.00302055
-0.00735008
-0.000372146
0.00457654
0.00226208
-0.00168309
-0.00093181
-0.000458303
-0.000651974
0.000967908
0.00196561
0.000871485
-0.0015833
-0.00219981
-0.00184792
-0.00111008
0.00155904
0.00267174
0.00022607
0.00343444
0.00873741
3.7089e-05
-0.0110453
-0.00421475
0.00257123
0.00253293
-0.0034424
-0.00628898
0.000960193
0.00492091
0.00408987
-0.00101233
-0.00369052
-0.00146061
0.00352018
0.00329505
-0.00252965
-0.00381818
0.00234621
0.00301207
-0.00331899
-0.00713461
-0.000298894
0.00399687
0.00183471
-0.00179108
-0.000878676
-0.00022794
-0.000689832
0.000410128
0.00127236
0.000301252
-0.00157724
-0.00176051
-0.00169567
-0.000963051
0.00114763
0.00241221
0.000603679
0.00322356
0.00834878
0.000703199
-0.00959256
-0.00392851
0.00209109
0.00204913
-0.00298571
-0.00568967
0.000664762
0.00393559
0.00365827
-0.000446287
-0.00311783
-0.00119638
0.00295941
0.0032666
-0.00191085
-0.00384003
0.00203543
0.00292106
-0.00297742
-0.00689359
-0.000465751
0.00338508
0.00163286
-0.00162516
-0.000979968
-0.000181643
-0.000463481
2.22153e-05
0.000930742
-0.000287125
-0.0015213
-0.00135349
-0.00117675
-0.000695015
0.000840405
0.00209434
0.000611759
0.00291254
0.00799757
0.00134547
-0.00804971
-0.00327496
0.0016843
0.00177819
-0.00242018
-0.00490715
0.000704768
0.00348299
0.00323765
-7.16724e-05
-0.00244662
-0.000694923
0.00289978
0.00344179
-0.0010705
-0.00378657
0.00138733
0.0023197
-0.00217062
-0.00607358
-0.000665805
0.00259594
0.00149933
-0.000930466
-0.00084657
-0.000635819
-7.49173e-05
0.000129891
0.00149987
-0.000134897
-0.00176016
-0.00125094
-0.000149798
-2.15144e-05
0.000760034
0.00176772
0.000313262
0.002302
0.00733579
0.0019219
-0.00665028
-0.0024724
0.00146262
0.00160427
-0.00181079
-0.0040842
0.00101796
0.00342664
0.00296524
0.000463224
-0.00186989
-0.000335318
0.00311997
0.00333292
-0.000297715
-0.00320248
0.000945324
0.00155939
-0.00137236
-0.00466351
-0.000502141
0.00182081
0.00119204
0.000186572
-3.39469e-05
-0.000677458
-0.000215217
0.000938663
0.00223163
0.00044764
-0.00184894
-0.00161762
0.000966295
0.00103679
0.000940372
0.00155881
-2.30227e-05
0.00154531
0.00638806
0.00219699
-0.00516533
-0.00190672
0.0017466
0.00139673
-0.00148704
-0.00361124
0.00121249
0.00313795
0.00214456
0.000555861
-0.00130359
-0.000178016
0.00205901
0.00238213
-0.000187498
-0.00200984
0.00060159
0.00104468
-0.000923968
-0.00314405
-0.000229169
0.00110503
0.000843748
0.000862865
0.000701461
-0.000760513
-0.000725452
0.000542177
0.00190322
0.000859412
-0.00235158
-0.00201977
0.00129935
0.00158758
0.000811577
0.00113252
-0.000445808
0.000803525
0.00535929
0.00200427
-0.0038598
-0.00229296
0.00155707
0.000612574
-0.00140454
-0.00342138
0.000736742
0.00214713
0.00141575
0.000544508
-0.00103988
-0.000436632
0.00134812
0.00160199
-0.000144703
-0.00156884
0.000221469
0.00107367
-0.000455539
-0.00225213
-0.000448846
0.000577782
0.000768389
0.00114917
0.000717152
-0.000883282
-0.00099738
0.000276027
0.00161737
0.000912287
-0.00187874
-0.00182577
0.00120744
0.00142185
0.000439542
0.000621088
-0.000747532
0.000627739
0.00464564
0.00178086
-0.00293051
-0.00259515
0.00102944
0.000250317
-0.0013469
-0.00310906
0.000424918
0.00173018
0.00144641
0.000748547
-0.00095529
-0.000764576
0.00128233
0.00174055
0.000189012
-0.00153446
0.000276583
0.00153715
-7.44112e-05
-0.0018031
-0.000810232
3.15669e-07
0.000849997
0.00133971
0.0003722
-0.000992891
-0.000947935
0.000196189
0.0017297
0.00111484
-0.00155155
-0.00174932
0.00105686
0.00130053
0.000290794
0.000252232
-0.000720884
0.000794787
0.00422955
0.0017808
-0.00236798
-0.00231023
0.000808748
0.000484209
-0.00105733
-0.00287127
0.000156132
0.00171574
0.00158294
0.000874982
-0.000868675
-0.00099359
0.00128085
0.0019964
0.000400422
-0.00171921
0.000234106
0.00174989
0.000248701
-0.001493
-0.000988139
-0.000407556
0.00102602
0.00133329
9.7699e-05
-0.000997946
-0.000506696
0.000323786
0.00176521
0.000931052
-0.00125459
-0.00134025
0.00103052
0.00134612
0.000272512
0.000198874
-0.000490069
0.000870396
0.00399674
0.00170195
-0.00193467
-0.0020883
0.000698458
0.000673398
-0.000728197
-0.00267497
1.96498e-05
0.00177684
0.00140462
0.000917541
-0.00071624
-0.00114495
0.00111013
0.0019979
0.000509649
-0.00152478
0.000163765
0.00177544
0.000418585
-0.00109775
-0.00102424
-0.000664589
0.00114414
0.00127586
-3.67563e-05
-0.000964217
-0.000410503
0.000438324
0.00168684
0.000827804
-0.00102942
-0.00104957
0.00100733
0.00125625
0.000282978
0.000254977
-0.000232799
0.000848309
0.00362948
0.00149282
-0.00148294
-0.00205698
0.000613954
0.00073696
-0.000355238
-0.00229367
-0.000126446
0.00174714
0.00114543
0.000941558
-0.000484151
-0.00112626
0.000895392
0.00185592
0.000641204
-0.00132501
0.000251049
0.00171272
0.000455846
-0.000688199
-0.000901245
-0.000748477
0.00116455
0.00114246
-7.72092e-05
-0.000921403
-0.000329488
0.000533934
0.00154256
0.000833086
-0.000816398
-0.00079054
0.00093211
0.00112379
0.000380089
0.000320348
-6.42789e-05
0.000739868
0.00298232
0.00130255
-0.000962706
-0.00143932
0.000514747
0.000660823
5.9438e-06
-0.00185348
-0.000368443
0.00166004
0.000918886
0.00093592
-0.00028821
-0.00105649
0.000786366
0.00164536
0.000752396
-0.00110042
0.000255895
0.00162315
0.000421037
-0.000403418
-0.000706102
-0.000640965
0.00113801
0.000989718
-6.05057e-05
-0.000848684
-0.000303112
0.000561786
0.00121219
0.000800031
-0.000615023
-0.000562166
0.000865638
0.00101358
0.000499723
0.000377359
-0.000112035
0.000636122
0.00244617
0.00112891
-0.000534552
-0.000820002
0.000435218
0.000535238
0.000353586
-0.00142659
-0.00050299
0.00153071
0.000728471
0.000895967
-3.09525e-05
-0.000881866
0.000679578
0.00140428
0.00082093
-0.00087513
0.000156101
0.00151241
0.000371951
-0.000168619
-0.000532629
-0.000509382
0.00107961
0.000836242
-3.81505e-05
-0.000693216
-0.000112024
0.000547563
0.000874029
0.000787577
-0.000540392
-0.000402102
0.000792409
0.000908906
0.000439338
0.000448775
-1.10104e-05
0.00056803
0.00197136
0.000969499
-0.000214913
-0.000377256
0.000379147
0.000411015
0.00038103
-0.00103068
-0.00042862
0.00139118
0.00058691
0.000786438
0.000229318
-0.000668894
0.000585616
0.0011582
0.000833138
-0.000636129
9.52216e-05
0.00139491
0.000311891
-4.71621e-08
-0.000303241
-0.000408565
0.00101092
0.000702587
-2.96369e-05
-0.000506352
-2.45776e-06
0.000504426
0.000685349
0.000761146
-0.000358377
-0.000286553
0.000727632
0.000822013
0.000406867
0.000540655
0.000102172
0.00051234
0.00157742
0.000824409
-8.03595e-06
-8.66309e-05
0.000339696
0.000326361
0.000406163
-0.000686412
-0.000300176
0.00123606
0.000474596
0.000646699
0.000464073
-0.000437044
0.000511566
0.000939036
0.000794955
-0.000369446
9.51675e-05
0.00126487
0.000135823
9.17149e-05
-5.84304e-05
-0.000306402
0.000922831
0.000617809
-2.95739e-05
-0.000293714
5.80286e-05
0.000434761
0.000568169
0.000694742
-0.000155886
-0.000166157
0.000665205
0.000744146
0.000374743
0.000620578
0.000205502
0.000453569
0.00130026
0.000703063
0.000107952
0.000124898
0.00031121
0.000283571
0.00039508
-0.000414298
-0.000184498
0.0011032
0.000397132
0.000492333
0.000637613
-0.000220508
0.000447965
0.000754149
0.000700204
-0.000104451
9.35606e-05
0.0011296
0.000149741
0.000120386
0.000189503
-0.000226213
0.000810569
0.000596089
-4.10313e-05
-0.000103117
9.89118e-05
0.000331367
0.000496117
0.0006023
2.38349e-05
-4.34778e-05
0.000607514
0.000673538
0.000339667
0.000666531
0.000304099
0.000384785
0.00111841
0.000623073
0.000152555
0.000290632
0.00029953
0.000270289
0.000395089
-0.000220394
-9.84691e-05
0.00100952
0.000353313
0.000333129
0.000754324
-3.47135e-05
0.000380857
0.000634061
0.00057157
0.000128241
0.000119118
0.00096755
0.000190225
0.000103311
0.000400721
-0.000129015
0.000675878
0.000621124
-4.8718e-05
4.76346e-05
0.000136821
0.000249871
0.000470324
0.000513956
0.000130888
9.0189e-05
0.000564347
0.000601248
0.00030702
0.000679903
0.000407147
0.000310069
0.000980208
0.000586463
0.00015519
0.000417725
0.000306725
0.000267896
0.000431484
-9.42438e-05
-3.70789e-05
0.000945181
0.000352728
0.000175958
0.000803217
0.00012109
0.000315374
0.000585345
0.000443615
0.000289954
0.000189494
0.000806208
0.000255886
7.92566e-05
0.000530352
-7.5439e-06
0.000521282
0.000654342
-4.5225e-05
0.000157257
0.000211367
0.000187227
0.000481904
0.000425599
0.000144587
0.000201524
0.00054774
0.000534103
0.000284573
0.000655611
0.000497885
0.000252916
0.000851057
0.000594757
0.000129101
0.00048661
0.00033638
0.000229168
0.000481382
2.06056e-05
1.48261e-05
0.000878544
0.00041553
4.14768e-05
0.000783292
0.000295827
0.000267129
0.000574772
0.000362915
0.000380269
0.000318499
0.000669292
0.000320937
8.69647e-05
0.000558464
0.000102778
0.000406901
0.00068349
-9.93805e-06
0.000251719
0.000349923
0.000123943
0.000511344
0.000466145
0.000106562
0.000232538
0.000571045
0.000494064
0.000244671
0.000618027
0.000577581
0.000217416
0.000718074
0.000627559
0.000112349
0.000478085
0.000390628
0.000193021
0.000516744
0.000185514
6.67335e-06
0.000768125
0.000540008
-3.36222e-05
0.000681079
0.000480692
0.000181419
0.000549744
0.00035299
0.000385174
0.000436368
0.000579918
0.000353055
0.000132029
0.000550962
0.000216957
0.000320529
0.0006826
6.25252e-05
0.000241335
0.000503028
0.000105587
0.000468889
0.00058957
0.00011814
0.000173886
0.000604194
0.000510564
0.000197356
0.000554316
0.000634501
0.000212215
0.000581682
0.000657726
0.000141039
0.00040484
0.000453276
0.000178252
0.000509482
0.000327313
-6.79224e-06
0.000603386
0.00066277
-1.00347e-05
0.00050832
0.000616316
0.000197958
0.000488148
0.000405423
0.000325641
0.000486071
0.000565437
0.000367316
0.000176409
0.000533301
0.000340241
0.00026492
0.000648495
0.000166323
0.00018838
0.000598707
0.000164268
0.000272601
0.000660903
0.000234402
7.00688e-05
0.000565517
0.000588673
0.000181869
0.000436257
0.000665749
0.000261632
0.000436613
0.000651417
0.000208525
0.000285464
0.000493932
0.000195441
0.000455755
0.000457967
2.00928e-05
0.000413476
0.00071384
0.000113158
0.000311165
0.000655955
0.00028323
0.000405624
0.000456534
0.000296136
0.000456322
0.000592134
0.000387517
0.000196099
0.000506962
0.000421836
0.000235712
0.00057362
0.000291054
0.000136594
0.000596653
0.000298317
0.000121656
0.000612708
0.000438668
3.52024e-05
0.000436527
0.000665889
0.000236961
0.000295971
0.000644718
0.000364966
0.000316326
0.000592351
0.000309616
0.000280137
0.00050049
0.000252867
0.000377074
0.000538892
0.000108165
0.000289669
0.000675491
0.000291692
0.000207875
0.000595449
0.000401308
0.000353433
0.000469485
0.000313942
0.000383338
0.000584685
0.000424392
0.000204348
0.000460414
0.000485728
0.000239203
0.000475151
0.000404994
0.00013022
0.000503726
0.000462498
8.41025e-05
0.000472741
0.000605555
0.000116858
0.000266069
0.000669467
0.000368587
0.000217756
0.000559107
0.000467916
0.000291272
0.000494638
0.000418239
0.000302894
0.000468831
0.000314279
0.000330671
0.0005516
0.000242026
0.000253186
0.000577933
0.000447534
0.00021641
0.000471568
0.000464108
0.000362495
0.000450266
0.000348358
0.000340205
0.000547113