/*--------------------------------*- C++ -*----------------------------------*\
  =========                 |
  \\      /  F ield         | OpenFOAM: The Open Source CFD Toolbox
   \\    /   O peration     | Website:  https://openfoam.org
    \\  /    A nd           | Version:  10
     \\/     M anipulation  |
\*---------------------------------------------------------------------------*/
FoamFile
{
    format      ascii;
    class       surfaceScalarField;
    location    "27.5";
    object      phi;
}
// * * * * * * * * * * * * * * * * * * * * * * * * * * * * * * * * * * * * * //

dimensions      [0 3 -1 0 0 0 0];

internalField   nonuniform List<scalar> 
74080
(
0.00532543
8.83155e-08
-2.68281e-09
0.00532543
-6.16699e-08
-1.06537e-08
0.00532543
2.0729e-08
1.11238e-08
0.00532543
1.89341e-08
-1.32032e-08
0.00532542
-3.7989e-08
9.95005e-09
0.00532543
4.23341e-08
-4.18874e-09
0.00532542
-3.2656e-08
-6.83796e-09
0.00532544
1.28601e-08
1.39289e-08
0.00532542
1.28949e-08
-1.92205e-08
0.00532544
-3.51663e-08
2.02845e-08
0.00532542
4.71106e-08
-1.89655e-08
0.00532543
-4.39806e-08
9.86659e-09
0.00532544
3.17392e-08
4.29466e-09
0.00532541
-2.11307e-08
-2.38403e-08
0.00532544
2.00463e-08
3.84329e-08
0.00532542
-2.27285e-08
-5.23449e-08
0.00532544
1.86286e-08
5.94919e-08
0.00532543
2.68059e-10
-6.18742e-08
0.00532543
-2.68515e-08
4.60026e-08
0.00532544
4.88611e-08
-2.07753e-08
0.00532542
-5.75853e-08
-1.86742e-08
0.00532544
5.59427e-08
4.67666e-08
0.00532543
-4.1357e-08
-6.58519e-08
0.00532542
1.87131e-08
5.58029e-08
0.00532544
8.18017e-09
-3.61655e-08
0.00532541
-2.19762e-08
7.02103e-10
0.00532545
2.49183e-08
1.76394e-08
0.00532541
-1.68115e-08
-3.05748e-08
0.00532544
1.05379e-08
1.85965e-08
0.00532543
-4.86223e-09
-9.04741e-09
0.00532543
1.79504e-09
-6.87038e-09
0.00532543
1.2942e-08
7.99984e-10
0.00532543
-3.42668e-08
7.2255e-10
0.00532543
5.94705e-08
-6.36729e-09
0.00532542
-6.88517e-08
-5.63255e-09
0.00532544
6.17877e-08
1.1078e-08
0.00532541
-3.1175e-08
-2.46907e-08
0.00532544
-1.00438e-08
2.78099e-08
0.00532542
5.51472e-08
-3.11619e-08
-8.32063e-08
1.6297e-08
0.00484104
5.05311e-08
-1.33596e-08
0.004841
-3.31943e-08
-6.17744e-09
0.00484102
8.54958e-09
1.94052e-08
0.00484102
1.57448e-08
-3.218e-08
0.00484101
-2.79078e-08
3.73585e-08
0.00484102
3.17153e-08
-3.21361e-08
0.00484101
-2.54159e-08
1.41978e-08
0.00484102
7.34739e-09
7.63492e-09
0.00484101
1.9059e-08
-2.78362e-08
0.00484102
-4.2373e-08
3.80593e-08
0.00484102
5.17055e-08
-3.46734e-08
0.00484101
-3.98457e-08
1.39392e-08
0.00484103
1.48498e-08
1.2279e-08
0.004841
6.73566e-09
-3.71451e-08
0.00484103
-1.02218e-08
4.72004e-08
0.00484101
2.85587e-09
-5.32798e-08
0.00484102
3.03528e-09
5.09697e-08
0.00484102
4.62382e-09
-4.71953e-08
0.00484101
-1.69486e-08
2.65447e-08
0.00484104
2.54018e-08
-1.78347e-09
0.00484099
-2.12347e-08
-3.58823e-08
0.00484105
1.69113e-08
5.89774e-08
0.004841
-9.83672e-09
-7.55754e-08
0.00484102
6.34347e-09
6.25416e-08
0.00484103
4.39931e-10
-4.16254e-08
0.004841
2.40186e-09
2.34132e-09
0.00484104
-7.46908e-09
2.06852e-08
0.004841
1.68388e-08
-4.03686e-08
0.00484103
-1.28119e-08
3.45273e-08
0.00484102
2.84799e-09
-2.69838e-08
0.00484101
1.06445e-08
7.63065e-09
0.00484103
-4.17917e-09
-7.20974e-09
0.00484101
-1.33109e-08
4.64995e-09
0.00484103
3.58572e-08
-8.66404e-09
0.004841
-3.97953e-08
-3.33472e-09
0.00484104
2.99366e-08
1.28493e-08
0.004841
-4.39254e-09
-3.03291e-08
0.00484102
-1.94003e-08
3.68255e-08
0.00484104
4.09472e-08
-4.11926e-08
-5.03458e-08
2.88828e-08
0.0044007
8.21435e-09
-1.99265e-08
0.00440065
-1.83832e-09
5.51806e-09
0.00440068
-3.04441e-09
1.09236e-08
0.00440068
1.01147e-08
-2.88159e-08
0.00440066
-1.33269e-08
4.06926e-08
0.00440068
1.7825e-08
-3.9592e-08
0.00440067
-1.78311e-08
2.38894e-08
0.00440067
8.18552e-09
5.66392e-10
0.00440068
1.2434e-08
-2.59729e-08
0.00440066
-3.14845e-08
4.09901e-08
0.00440068
3.83618e-08
-3.79823e-08
0.00440066
-2.38567e-08
1.45086e-08
0.00440068
-2.34847e-09
1.40474e-08
0.00440066
2.43104e-08
-3.72849e-08
0.00440068
-2.56976e-08
4.28077e-08
0.00440067
1.54821e-08
-4.4285e-08
0.00440067
-3.39508e-09
3.79128e-08
0.00440068
4.49531e-09
-3.33423e-08
0.00440066
-5.63733e-09
1.20383e-08
0.00440069
3.60807e-09
1.08574e-08
0.00440064
1.19134e-08
-4.41293e-08
0.0044007
-1.97145e-08
6.09835e-08
0.00440065
2.30092e-08
-7.28575e-08
0.00440068
-1.14991e-08
5.60315e-08
0.00440068
1.53585e-09
-3.36441e-08
0.00440066
1.75174e-08
-4.67044e-09
0.00440069
-2.96123e-08
2.61914e-08
0.00440066
4.03297e-08
-4.6164e-08
0.00440068
-2.75451e-08
4.31158e-08
0.00440068
5.8923e-09
-3.80071e-08
0.00440066
2.10774e-08
1.89363e-08
0.00440069
-2.15442e-08
-1.36183e-08
0.00440066
8.60339e-09
7.04089e-09
0.00440069
1.26546e-08
-7.61e-09
0.00440065
-1.39708e-08
-3.98341e-09
0.00440069
5.27313e-09
1.37803e-08
0.00440066
1.37731e-08
-2.88244e-08
0.00440066
-2.03401e-08
3.39261e-08
0.0044007
2.05395e-08
-3.58953e-08
-1.19953e-08
2.90942e-08
0.00400041
-1.90553e-08
-1.81713e-08
0.00400037
1.61358e-08
1.17665e-08
0.00400038
-3.54211e-09
1.07578e-09
0.00400039
-4.28258e-09
-1.65571e-08
0.00400037
8.83973e-09
3.17217e-08
0.00400039
-2.0421e-09
-3.45565e-08
0.00400038
-6.43695e-09
2.63515e-08
0.00400037
1.00915e-08
-5.88235e-09
0.0040004
-1.56379e-09
-1.60963e-08
0.00400037
-8.47169e-09
3.17164e-08
0.0040004
1.29288e-08
-2.9703e-08
0.00400037
-2.6591e-10
9.79107e-09
0.00400039
-1.86735e-08
1.40219e-08
0.00400038
3.47901e-08
-3.10797e-08
0.00400039
-3.03928e-08
3.07918e-08
0.00400038
1.83802e-08
-2.92856e-08
0.00400038
-3.23432e-09
2.28061e-08
0.00400039
2.12566e-09
-2.03081e-08
0.00400037
3.13458e-09
2.12787e-09
0.0040004
-8.52572e-09
1.59765e-08
0.00400037
2.89561e-08
-4.41036e-08
0.0040004
-3.69235e-08
5.45807e-08
0.00400037
3.94819e-08
-6.27206e-08
0.00400039
-1.96657e-08
4.52997e-08
0.00400038
2.99526e-09
-2.59404e-08
0.00400038
2.39565e-08
-7.74295e-09
0.00400039
-3.71097e-08
2.40162e-08
0.00400038
4.81252e-08
-4.12473e-08
0.00400038
-2.95678e-08
3.98131e-08
0.00400039
4.32378e-09
-3.94827e-08
0.00400037
2.85974e-08
2.61229e-08
0.00400039
-3.10604e-08
-2.22745e-08
0.00400037
2.1982e-08
1.40959e-08
0.0040004
-8.34737e-10
-1.09561e-08
0.00400037
8.0391e-10
-2.62363e-09
0.00400039
-6.32757e-09
1.47379e-08
0.00400038
2.06708e-08
-2.73194e-08
0.00400037
-1.62967e-08
2.94063e-08
0.0040004
4.63792e-09
-2.6803e-08
1.47584e-08
2.25453e-08
0.00363652
-3.23556e-08
-1.57225e-08
0.0036365
2.39666e-08
1.61521e-08
0.0036365
2.00902e-09
-6.345e-09
0.00363652
-2.08683e-08
-4.7133e-09
0.00363649
3.3207e-08
2.05832e-08
0.00363652
-2.5627e-08
-2.52135e-08
0.0036365
1.11461e-08
2.47097e-08
0.0036365
6.36066e-09
-1.1142e-08
0.00363652
-1.12711e-08
-4.19211e-09
0.00363649
1.32539e-08
1.81689e-08
0.00363652
-1.13151e-08
-1.62123e-08
0.0036365
2.00399e-08
1.42979e-09
0.00363651
-2.75794e-08
1.62161e-08
0.00363651
3.54805e-08
-2.52752e-08
0.00363651
-2.56571e-08
2.05905e-08
0.0036365
1.53376e-08
-1.63945e-08
0.00363651
4.62714e-10
1.02571e-08
0.00363651
-8.05699e-10
-9.36127e-09
0.0036365
9.00738e-09
-4.98179e-09
0.00363651
-1.16914e-08
1.80867e-08
0.0036365
3.11006e-08
-3.90119e-08
0.00363651
-3.5017e-08
4.36652e-08
0.0036365
3.89501e-08
-4.84518e-08
0.00363651
-1.72395e-08
3.22484e-08
0.0036365
2.97101e-09
-1.79035e-08
0.00363651
2.44582e-08
-7.05923e-09
0.0036365
-3.27454e-08
1.53124e-08
0.00363651
4.31299e-08
-2.70172e-08
0.0036365
-2.19595e-08
2.6725e-08
0.00363651
8.80504e-10
-3.20831e-08
0.0036365
3.07727e-08
2.80015e-08
0.00363651
-2.95425e-08
-2.93846e-08
0.0036365
2.29061e-08
2.33176e-08
0.00363651
-9.59666e-10
-1.72027e-08
0.0036365
2.35919e-09
2.07921e-09
0.00363651
-4.37934e-09
1.35992e-08
0.00363651
1.74035e-08
-2.54511e-08
0.0036365
-8.0431e-09
2.67905e-08
0.00363652
-5.86456e-09
-2.04921e-08
2.94807e-08
1.77779e-08
0.00330574
-3.74912e-08
-1.2894e-08
0.00330573
2.85039e-08
1.78497e-08
0.00330573
5.25574e-09
-9.50418e-09
0.00330574
-3.07229e-08
4.40104e-09
0.00330572
5.0869e-08
1.07838e-08
0.00330574
-4.39434e-08
-1.44952e-08
0.00330573
2.69823e-08
2.02147e-08
0.00330573
2.12915e-09
-1.12165e-08
0.00330574
-1.88443e-08
3.86619e-09
0.00330572
3.25222e-08
7.40587e-09
0.00330574
-3.11849e-08
-3.59699e-09
0.00330573
3.44912e-08
-6.80037e-09
0.00330573
-2.87274e-08
1.99647e-08
0.00330573
2.91203e-08
-2.24979e-08
0.00330573
-1.48938e-08
1.47687e-08
0.00330573
8.89374e-09
-7.7282e-09
0.00330573
6.12435e-09
1.86917e-09
0.00330573
-4.02444e-09
-1.33404e-09
0.00330573
1.40221e-08
-9.71732e-09
0.00330573
-1.00616e-08
1.84784e-08
0.00330573
2.4822e-08
-3.2415e-08
0.00330573
-2.14096e-08
3.15099e-08
0.00330573
2.81526e-08
-3.29275e-08
0.00330573
-8.70308e-09
1.87892e-08
0.00330573
4.02256e-09
-1.00228e-08
0.00330574
1.87478e-08
-5.58805e-09
0.00330572
-1.8026e-08
5.79253e-09
0.00330574
2.77176e-08
-1.15138e-08
0.00330572
-5.69605e-09
1.18662e-08
0.00330573
-5.6169e-09
-2.2069e-08
0.00330573
3.10412e-08
2.73523e-08
0.00330573
-2.14614e-08
-3.44611e-08
0.00330573
1.59313e-08
3.20953e-08
0.00330573
8.06984e-09
-2.35376e-08
0.00330573
-4.8667e-09
7.0992e-09
0.00330573
6.32143e-09
1.27261e-08
0.00330573
8.29925e-09
-2.41058e-08
0.00330572
1.71121e-09
2.64783e-08
0.00330574
-1.14973e-08
-1.68309e-08
3.62147e-08
1.54645e-08
0.00300505
-3.57825e-08
-8.53116e-09
0.00300504
3.06695e-08
1.59307e-08
0.00300504
6.5769e-09
-7.5723e-09
0.00300505
-3.50564e-08
8.15148e-09
0.00300504
6.2755e-08
5.34533e-09
0.00300505
-5.71636e-08
-5.52382e-09
0.00300504
4.04998e-08
1.47853e-08
0.00300504
-1.50918e-09
-7.91844e-09
0.00300505
-2.47319e-08
7.19411e-09
0.00300503
4.93108e-08
1.82037e-09
0.00300505
-4.74246e-08
5.01408e-09
0.00300504
4.56229e-08
-1.22773e-08
0.00300504
-2.69508e-08
2.34956e-08
0.00300505
2.19611e-08
-2.13874e-08
0.00300504
-4.72538e-09
1.24344e-08
0.00300504
4.72464e-09
-2.33312e-09
0.00300504
1.00523e-08
-4.28105e-09
0.00300505
-5.12684e-09
6.23082e-09
0.00300504
1.68164e-08
-1.41576e-08
0.00300504
-4.24275e-09
1.9054e-08
0.00300505
1.3048e-08
-2.5999e-08
0.00300503
-8.09315e-10
2.0448e-08
0.00300505
1.1724e-08
-1.80726e-08
0.00300504
3.30067e-09
6.22308e-09
0.00300504
5.45587e-09
-2.18031e-09
0.00300505
1.04166e-08
-4.20161e-09
0.00300503
1.3767e-09
-2.57765e-09
0.00300505
7.72873e-09
2.82588e-09
0.00300503
1.50042e-08
-1.52466e-09
0.00300505
-1.45439e-08
-1.21186e-08
0.00300504
3.25754e-08
2.61802e-08
0.00300504
-1.2241e-08
-3.81901e-08
0.00300504
7.0898e-09
4.00817e-08
0.00300504
2.03154e-08
-2.92536e-08
0.00300504
-1.46029e-08
1.19651e-08
0.00300504
1.94419e-08
1.25903e-08
0.00300505
-7.87578e-10
-2.38127e-08
0.00300504
8.96943e-09
2.8519e-08
0.00300505
-1.08912e-08
-1.57242e-08
3.5645e-08
1.46305e-08
0.00273171
-3.06381e-08
-3.64442e-09
0.0027317
3.22395e-08
1.16613e-08
0.00273171
6.60899e-09
-1.59014e-09
0.00273171
-3.54223e-08
7.17626e-09
0.0027317
7.07896e-08
4.95286e-09
0.00273171
-6.66825e-08
1.25848e-10
0.0027317
5.26915e-08
1.03862e-08
0.00273171
-5.80029e-09
-2.79582e-09
0.00273171
-2.68049e-08
6.98704e-09
0.0027317
6.12158e-08
4.22353e-10
0.00273171
-5.76924e-08
1.01945e-08
0.00273171
5.22763e-08
-1.52812e-08
0.0027317
-2.24683e-08
2.67619e-08
0.00273171
1.49571e-08
-2.16237e-08
0.00273171
3.9657e-09
1.31362e-08
0.0027317
3.0437e-09
1.78516e-10
0.00273171
1.17675e-08
-7.90844e-09
0.00273171
-3.93311e-09
1.29366e-08
0.00273171
1.78427e-08
-1.87933e-08
0.0027317
3.7674e-09
2.10411e-08
0.00273172
-7.59414e-10
-2.07972e-08
0.00273169
2.25076e-08
1.09072e-08
0.00273172
-6.74592e-09
-4.00152e-09
0.0027317
1.75461e-08
-5.80148e-09
0.0027317
5.74992e-09
6.07277e-09
0.00273171
3.90472e-09
-3.51044e-09
0.0027317
1.91811e-08
-8.7205e-09
0.00273172
-9.99356e-09
1.4628e-08
0.0027317
3.46448e-08
-1.19055e-08
0.00273171
-2.27862e-08
-3.62468e-09
0.00273171
3.4823e-08
2.52317e-08
0.0027317
-3.13065e-09
-4.02948e-08
0.00273171
-1.90475e-09
4.63157e-08
0.0027317
3.42613e-08
-3.26142e-08
0.00273171
-2.55933e-08
1.51576e-08
0.0027317
3.36708e-08
1.41594e-08
0.00273171
-8.82981e-09
-2.48766e-08
0.00273171
1.41908e-08
3.24471e-08
0.00273171
-6.22117e-09
-1.63525e-08
3.13568e-08
1.5208e-08
0.00248323
-2.4867e-08
1.09971e-09
0.00248322
3.50614e-08
6.66369e-09
0.00248323
4.53852e-09
6.662e-09
0.00248322
-3.18551e-08
3.62889e-09
0.00248322
7.47826e-08
7.62494e-09
0.00248323
-7.17744e-08
3.61099e-09
0.00248322
6.18222e-08
6.95694e-09
0.00248323
-8.63171e-09
3.58648e-09
0.00248323
-2.74286e-08
4.43922e-09
0.00248322
6.97251e-08
2.9513e-09
0.00248322
-6.37834e-08
1.21547e-08
0.00248323
5.61533e-08
-1.60927e-08
0.00248322
-1.73246e-08
2.98864e-08
0.00248323
9.50078e-09
-2.27677e-08
0.00248322
1.06766e-08
1.60324e-08
0.00248322
3.07997e-09
9.39649e-10
0.00248322
1.30871e-08
-9.82442e-09
0.00248323
-2.85667e-09
1.91951e-08
0.00248322
1.94672e-08
-2.31763e-08
0.00248322
1.09445e-08
2.40239e-08
0.00248323
-1.26213e-08
-1.68972e-08
0.00248321
4.32667e-08
3.65083e-09
0.00248323
-2.23397e-08
8.2922e-09
0.00248322
2.96675e-08
-1.59679e-08
0.00248322
6.58978e-09
1.44663e-08
0.00248323
-1.02019e-09
-3.91196e-09
0.00248322
3.35653e-08
-1.16134e-08
0.00248323
-2.32201e-08
2.29018e-08
0.00248322
5.11029e-08
-1.85592e-08
0.00248323
-2.96591e-08
2.97425e-09
0.00248322
3.83494e-08
2.49381e-08
0.00248322
4.16257e-09
-4.12022e-08
0.00248323
-9.19576e-09
5.12792e-08
0.00248322
4.7958e-08
-3.42626e-08
0.00248323
-3.64627e-08
1.72203e-08
0.00248322
4.80666e-08
1.70656e-08
0.00248322
-1.5733e-08
-2.66792e-08
0.00248322
1.8092e-08
3.77717e-08
0.00248322
4.60816e-10
-1.80772e-08
2.61271e-08
1.69798e-08
0.00225719
-1.85309e-08
6.28848e-09
0.00225718
3.80559e-08
1.76038e-09
0.0022572
2.05036e-09
1.59289e-08
0.00225718
-2.67463e-08
-9.11669e-10
0.00225719
7.63952e-08
1.26931e-08
0.00225719
-7.36663e-08
5.55221e-09
0.00225719
6.79159e-08
4.8684e-09
0.00225719
-9.70505e-09
1.06018e-08
0.00225719
-2.76889e-08
1.02658e-09
0.00225719
7.58782e-08
7.55234e-09
0.00225719
-6.707e-08
1.24452e-08
0.00225719
5.84376e-08
-1.49772e-08
0.00225719
-1.32801e-08
3.26249e-08
0.00225719
6.7262e-09
-2.38326e-08
0.00225719
1.40828e-08
2.02231e-08
0.00225719
5.12244e-09
8.00524e-10
0.00225719
1.32623e-08
-1.03595e-08
0.00225719
-1.6861e-09
2.51808e-08
0.00225719
2.09987e-08
-2.7026e-08
0.00225719
1.67251e-08
2.81578e-08
0.0022572
-2.20483e-08
-1.40547e-08
0.00225718
6.00197e-08
-1.41136e-09
0.0022572
-3.40476e-08
1.91986e-08
0.00225719
3.87419e-08
-2.46017e-08
0.00225719
8.23004e-09
2.28918e-08
0.00225719
-4.09112e-09
-4.72813e-09
0.00225718
4.34143e-08
-1.26018e-08
0.00225719
-3.10755e-08
2.94556e-08
0.00225718
6.3095e-08
-2.22195e-08
0.00225719
-3.50361e-08
8.03868e-09
0.00225719
4.34629e-08
2.59931e-08
0.00225719
8.22434e-09
-4.14244e-08
0.00225719
-1.33014e-08
5.57412e-08
0.00225719
5.96124e-08
-3.42709e-08
0.00225719
-4.56817e-08
1.87386e-08
0.00225719
6.07368e-08
2.10305e-08
0.00225719
-2.00293e-08
-2.86261e-08
0.00225719
1.96264e-08
4.36681e-08
0.00225718
9.0408e-09
-1.95115e-08
2.0006e-08
1.92387e-08
0.00205004
-1.22508e-08
1.13262e-08
0.00205003
3.97917e-08
-1.74569e-09
0.00205005
-1.56671e-10
2.55317e-08
0.00205003
-2.16633e-08
-4.35434e-09
0.00205004
7.56226e-08
1.8649e-08
0.00205004
-7.26693e-08
7.42531e-09
0.00205004
6.99933e-08
3.82646e-09
0.00205004
-9.20381e-09
1.8318e-08
0.00205004
-2.78286e-08
-2.07639e-09
0.00205004
7.82468e-08
1.38346e-08
0.00205004
-6.68244e-08
1.22791e-08
0.00205004
5.72802e-08
-1.29371e-08
0.00205004
-9.53959e-09
3.61168e-08
0.00205004
5.15822e-09
-2.45915e-08
0.00205004
1.44421e-08
2.57958e-08
0.00205004
8.11129e-09
1.97712e-10
0.00205004
1.19689e-08
-9.30382e-09
0.00205004
-7.67029e-10
3.10625e-08
0.00205004
2.18146e-08
-2.99089e-08
0.00205004
2.06456e-08
3.32214e-08
0.00205004
-2.87605e-08
-1.20189e-08
0.00205003
7.10324e-08
-4.25783e-09
0.00205004
-4.0953e-08
2.8824e-08
0.00205004
4.3081e-08
-3.06205e-08
0.00205004
1.04762e-08
3.10654e-08
0.00205004
-5.60716e-09
-5.31974e-09
0.00205004
4.77317e-08
-1.16518e-08
0.00205004
-3.28974e-08
3.4772e-08
0.00205003
6.8471e-08
-2.31629e-08
0.00205004
-3.72227e-08
1.23896e-08
0.00205003
4.74541e-08
2.80917e-08
0.00205004
9.89169e-09
-4.09946e-08
0.00205004
-1.50693e-08
6.06047e-08
0.00205004
6.79579e-08
-3.29259e-08
0.00205004
-5.23085e-08
2.05988e-08
0.00205004
6.96787e-08
2.58585e-08
0.00205003
-2.14583e-08
-3.00317e-08
0.00205004
1.82651e-08
5.06527e-08
0.00205003
1.8538e-08
-2.03339e-08
1.31534e-08
2.27589e-08
0.00185235
-6.32454e-09
1.38284e-08
0.00185234
3.93097e-08
-4.02524e-09
0.00185236
-2.53197e-09
3.50377e-08
0.00185234
-1.59493e-08
-8.37542e-09
0.00185236
6.9199e-08
2.45043e-08
0.00185235
-6.55378e-08
8.98106e-09
0.00185235
6.41948e-08
1.4297e-09
0.00185236
-5.18802e-09
2.90629e-08
0.00185235
-2.87305e-08
-9.33722e-09
0.00185236
7.54182e-08
2.35066e-08
0.00185235
-6.10653e-08
8.59733e-09
0.00185236
5.01834e-08
-1.01977e-08
0.00185235
-3.69152e-09
4.16308e-08
0.00185235
2.41724e-09
-2.93881e-08
0.00185235
1.35659e-08
3.48398e-08
0.00185235
1.08881e-08
-4.1182e-09
0.00185235
9.55548e-09
-7.26755e-09
0.00185235
2.80691e-10
3.86237e-08
0.00185234
2.159e-08
-3.65327e-08
0.00185235
2.21664e-08
4.22017e-08
0.00185235
-3.12807e-08
-1.44255e-08
0.00185234
7.42105e-08
-4.28073e-09
0.00185234
-4.11826e-08
3.83736e-08
0.00185234
4.15763e-08
-3.7656e-08
0.00185234
1.41808e-08
3.99452e-08
0.00185234
-6.53138e-09
-6.01817e-09
0.00185234
4.72379e-08
-1.21629e-08
0.00185234
-2.87882e-08
4.35572e-08
0.00185234
6.55532e-08
-2.65122e-08
0.00185234
-3.35395e-08
1.75393e-08
0.00185234
4.66185e-08
3.15489e-08
0.00185234
1.18029e-08
-4.38819e-08
0.00185234
-1.53671e-08
7.09638e-08
0.00185234
7.0702e-08
-3.62126e-08
0.00185234
-5.38236e-08
2.54046e-08
0.00185234
7.14589e-08
2.92538e-08
0.00185234
-1.85084e-08
-3.21469e-08
0.00185235
1.31381e-08
6.03048e-08
0.00185234
2.77239e-08
-2.39406e-08
5.37176e-09
2.84104e-08
0.00165168
7.61364e-10
6.56497e-09
0.00165167
3.50377e-08
-5.23062e-09
0.00165169
-2.40354e-09
3.98767e-08
0.00165167
-1.0912e-08
-2.118e-08
0.00165169
5.8748e-08
3.36795e-08
0.00165167
-5.23925e-08
4.07089e-10
0.00165169
5.09017e-08
1.58886e-09
0.00165168
3.38703e-09
3.59049e-08
0.00165168
-3.10733e-08
-2.68477e-08
0.00165168
6.98186e-08
4.1585e-08
0.00165167
-5.12497e-08
-9.91163e-09
0.00165168
3.91259e-08
1.35001e-09
0.00165167
4.24803e-09
4.00781e-08
0.00165168
-1.49161e-09
-4.10786e-08
0.00165167
1.31488e-08
5.30169e-08
0.00165167
1.30145e-08
-2.33569e-08
0.00165167
7.13958e-09
6.13339e-09
0.00165167
2.13425e-09
3.91744e-08
0.00165166
2.04989e-08
-5.05719e-08
0.00165166
2.23339e-08
6.36634e-08
0.00165166
-2.94622e-08
-3.31683e-08
0.00165166
7.09921e-08
7.86477e-09
0.00165165
-3.52754e-08
4.25737e-08
0.00165166
3.594e-08
-5.20463e-08
0.00165166
1.92853e-08
5.8376e-08
0.00165165
-6.96997e-09
-1.54925e-08
0.00165166
4.44402e-08
-1.22324e-08
0.00165165
-2.07452e-08
5.93003e-08
0.00165166
5.69732e-08
-4.78226e-08
0.00165165
-2.41554e-08
3.62472e-08
0.00165166
4.08215e-08
2.51749e-08
0.00165166
1.56495e-08
-4.9457e-08
0.00165166
-1.50804e-08
8.83209e-08
0.00165167
6.96012e-08
-5.85151e-08
0.00165166
-4.99895e-08
4.14744e-08
0.00165167
6.74175e-08
2.09075e-08
0.00165166
-1.21238e-08
-3.40968e-08
0.00165168
6.43687e-09
6.85073e-08
0.00165167
3.57462e-08
-3.89648e-08
-2.29899e-09
3.78286e-08
0.00145
7.31274e-09
-1.49412e-08
0.00145001
2.78817e-08
2.60789e-09
0.00145001
1.4542e-09
2.91631e-08
0.00145
-9.59736e-09
-2.83624e-08
0.00145002
4.9596e-08
4.382e-08
0.00144999
-3.92011e-08
-2.10672e-08
0.00145001
3.57637e-08
1.8244e-08
0.00145
1.31594e-08
2.00943e-08
0.00145
-3.41953e-08
-2.80734e-08
0.00145
6.38651e-08
5.52684e-08
0.00144999
-4.1322e-08
-3.67754e-08
0.00145
2.82499e-08
3.21814e-08
0.00144999
1.11715e-08
1.22613e-08
0.00144999
-4.95119e-09
-2.8474e-08
0.00144998
1.31412e-08
6.19214e-08
0.00144999
1.42467e-08
-4.89291e-08
0.00144998
5.22399e-09
4.23239e-08
0.00144998
4.73911e-09
7.5632e-09
0.00144998
1.8742e-08
-3.66893e-08
0.00144998
2.19874e-08
7.77537e-08
0.00144997
-2.46216e-08
-6.58586e-08
0.00144998
6.38609e-08
4.8364e-08
0.00144997
-2.61477e-08
1.40466e-08
0.00144998
2.93434e-08
-5.01284e-08
0.00144998
2.40216e-08
8.29413e-08
0.00144997
-5.93613e-09
-5.32614e-08
0.00144998
4.08287e-08
1.5335e-08
0.00144997
-1.18132e-08
5.20349e-08
0.00144999
4.75977e-08
-7.51887e-08
0.00144998
-1.32791e-08
7.75972e-08
0.00144999
3.41471e-08
-2.12141e-08
0.00144999
2.02056e-08
-2.98947e-08
0.00144999
-1.41578e-08
8.63537e-08
0.00145
6.70546e-08
-8.95239e-08
0.00144999
-4.41517e-08
7.3245e-08
0.00145
6.19928e-08
-1.54517e-08
0.00144999
-6.18802e-09
-2.23427e-08
0.00145001
2.32188e-09
6.08803e-08
0.00145
3.97401e-08
-5.52973e-08
-7.24198e-09
5.06395e-08
0.00125595
9.90356e-09
-3.16907e-08
0.00125596
2.14822e-08
1.56631e-08
0.00125596
5.55504e-09
1.09915e-08
0.00125594
-1.08652e-08
-1.61304e-08
0.00125596
4.31087e-08
3.67298e-08
0.00125594
-2.95342e-08
-2.62763e-08
0.00125596
2.35201e-08
3.44808e-08
0.00125594
2.03725e-08
-3.27472e-09
0.00125594
-3.60683e-08
-2.54124e-09
0.00125595
5.78456e-08
4.16206e-08
0.00125594
-3.28977e-08
-3.54969e-08
0.00125594
1.96664e-08
5.1065e-08
0.00125594
1.60267e-08
-1.59507e-08
0.00125593
-7.23206e-09
8.00426e-09
0.00125593
1.35599e-08
3.62303e-08
0.00125593
1.4284e-08
-3.74354e-08
0.00125592
3.94379e-09
5.67944e-08
0.00125593
7.86994e-09
-2.62691e-08
0.00125592
1.59911e-08
8.26965e-09
0.00125593
2.21154e-08
4.28664e-08
0.00125592
-1.8912e-08
-5.94733e-08
0.00125593
5.50797e-08
7.25478e-08
0.00125592
-1.57664e-08
-3.70252e-08
0.00125593
2.25971e-08
-5.12557e-09
0.00125593
2.76706e-08
5.77675e-08
0.00125592
-3.9784e-09
-7.50977e-08
0.00125594
3.64347e-08
5.72363e-08
0.00125592
-3.28959e-09
-5.36099e-09
0.00125594
3.87649e-08
-5.38209e-08
0.00125593
-4.09317e-09
8.45024e-08
0.00125594
2.84634e-08
-7.70432e-08
0.00125594
2.27163e-08
2.40363e-08
0.00125594
-1.22388e-08
3.36292e-08
0.00125595
6.22291e-08
-8.27424e-08
0.00125594
-3.74198e-08
8.62222e-08
0.00125595
5.52755e-08
-6.04746e-08
0.00125595
-1.91654e-09
1.0332e-08
0.00125596
5.38256e-10
3.03148e-08
0.00125595
3.8608e-08
-5.17044e-08
-8.11428e-09
5.21669e-08
0.00107528
9.4168e-09
-3.22875e-08
0.00107529
1.73371e-08
2.49262e-08
0.00107528
7.64878e-09
2.83598e-09
0.00107528
-1.17709e-08
-1.18895e-09
0.00107529
3.78254e-08
2.68855e-08
0.00107527
-2.27184e-08
-1.24306e-08
0.00107528
1.48871e-08
3.52064e-08
0.00107527
2.41922e-08
-7.43734e-09
0.00107527
-3.56967e-08
1.95464e-08
0.00107527
5.15119e-08
2.22132e-08
0.00107526
-2.60463e-08
-1.31742e-08
0.00107526
1.36277e-08
4.5613e-08
0.00107527
1.82114e-08
-1.90066e-08
0.00107526
-8.22433e-09
2.73146e-08
0.00107526
1.40477e-08
1.18022e-08
0.00107526
1.28271e-08
-1.16896e-08
0.00107525
4.00318e-09
3.81148e-08
0.00107526
9.89934e-09
-2.59237e-08
0.00107525
1.26557e-08
2.374e-08
0.00107526
2.2728e-08
4.96047e-09
0.00107525
-1.4712e-08
-2.73467e-08
0.00107526
4.67073e-08
4.58385e-08
0.00107525
-6.8235e-09
-5.02231e-08
0.00107526
1.60098e-08
2.30422e-08
0.00107526
3.00124e-08
3.93914e-09
0.00107526
-2.66838e-09
-5.00774e-08
0.00107527
3.16551e-08
4.96776e-08
0.00107526
3.43077e-09
-4.8695e-08
0.00107528
3.04317e-08
-9.50947e-09
0.00107527
2.73423e-09
3.60028e-08
0.00107528
2.34723e-08
-7.81161e-08
0.00107528
2.29827e-08
4.96389e-08
0.00107528
-9.82627e-09
-2.74992e-08
0.00107529
5.55872e-08
-3.66213e-08
0.00107528
-3.06892e-08
5.54001e-08
0.00107529
4.74264e-08
-6.97673e-08
0.00107529
1.48305e-09
3.59e-08
0.00107529
-7.90308e-10
-4.91293e-09
0.00107529
3.51141e-08
-2.79786e-08
-6.8989e-09
4.18066e-08
0.00091116
7.9412e-09
-1.92531e-08
0.000911169
1.46105e-08
3.14383e-08
0.000911158
8.20494e-09
3.33173e-09
0.000911158
-1.18377e-08
1.11667e-08
0.00091116
3.29605e-08
2.49133e-08
0.000911147
-1.77226e-08
1.35619e-09
0.000911156
8.79507e-09
3.16912e-08
0.000911146
2.5355e-08
1.04974e-09
0.000911143
-3.39026e-08
2.60054e-08
0.000911147
4.48071e-08
1.32165e-08
0.000911138
-2.05594e-08
4.28003e-09
0.000911138
9.23678e-09
3.10941e-08
0.00091114
1.79284e-08
-1.15052e-08
0.000911131
-7.99752e-09
2.61483e-08
0.000911137
1.33668e-08
-4.33989e-10
0.000911132
1.05314e-08
-1.18297e-09
0.000911133
4.63894e-09
1.66644e-08
0.000911133
9.79966e-09
-1.92675e-08
0.000911133
9.86345e-09
1.23331e-08
0.000911137
2.2491e-08
-1.09771e-08
0.000911132
-1.22802e-08
-1.60446e-08
0.000911143
3.96007e-08
1.28635e-08
0.000911135
-9.4428e-10
-4.16507e-08
0.000911145
1.05468e-08
1.39032e-08
0.000911143
3.0764e-08
-2.46748e-08
0.000911147
-2.42974e-09
-2.70189e-08
0.000911153
2.73931e-08
1.57798e-08
0.000911148
7.71193e-09
-5.04314e-08
0.000911162
2.31935e-08
5.12586e-09
0.000911154
7.37122e-09
-6.51497e-09
0.000911164
1.90725e-08
-4.77783e-08
0.000911163
2.19666e-08
3.38719e-08
0.000911163
-7.65987e-09
-4.50026e-08
0.00091117
4.8618e-08
-7.47404e-10
0.000911165
-2.47054e-08
1.67052e-08
0.00091117
3.97421e-08
-4.3744e-08
0.000911169
4.2378e-09
3.67336e-08
0.000911167
-2.0276e-09
-1.7751e-08
0.000911168
3.13053e-08
-1.19181e-09
-5.28786e-09
2.89444e-08
0.000764833
6.27612e-09
-2.06243e-09
0.000764836
1.23712e-08
3.42049e-08
0.000764828
7.75835e-09
7.23904e-09
0.000764827
-1.15756e-08
2.07183e-08
0.000764826
2.83974e-08
2.40836e-08
0.000764818
-1.45175e-08
9.11118e-09
0.000764821
4.53772e-09
2.84969e-08
0.000764815
2.44645e-08
6.34017e-09
0.000764811
-3.16607e-08
2.28197e-08
0.000764814
3.8098e-08
9.10257e-09
0.000764807
-1.65314e-08
7.8665e-09
0.000764807
5.66036e-09
1.67403e-08
0.000764809
1.6153e-08
-8.31223e-09
0.000764802
-7.25862e-09
1.43235e-08
0.000764807
1.1334e-08
-8.60616e-09
0.000764804
8.4037e-09
-4.4295e-09
0.000764806
4.82701e-09
-5.55179e-10
0.000764806
8.433e-09
-2.02556e-08
0.000764808
7.88467e-09
-3.28215e-09
0.000764811
2.09293e-08
-1.94332e-08
0.000764809
-1.04629e-08
-1.98102e-08
0.000764818
3.35722e-08
-6.9936e-09
0.000764814
2.30756e-09
-3.65747e-08
0.000764822
6.87965e-09
-1.93912e-09
0.000764822
2.9899e-08
-3.18263e-08
0.000764826
-2.56672e-09
-1.9613e-08
0.00076483
2.40625e-08
-6.17915e-09
0.000764829
9.79285e-09
-3.7763e-08
0.000764838
1.77024e-08
1.67029e-09
0.000764833
1.02356e-08
-1.90305e-08
0.000764841
1.54416e-08
-2.31153e-08
0.00076484
2.04103e-08
1.5133e-08
0.00076484
-5.74409e-09
-3.1808e-08
0.000764845
4.20838e-08
1.22659e-08
0.00076484
-1.97342e-08
1.50036e-09
0.000764844
3.31176e-08
-1.3893e-08
0.000764842
6.02896e-09
2.85744e-08
0.000764839
-2.9573e-09
-8.78953e-09
0.000764841
2.75685e-08
1.5467e-08
-4.01758e-09
2.28565e-08
0.000636267
4.53035e-09
1.00658e-08
0.000636267
1.01814e-08
3.26227e-08
0.000636261
6.53982e-09
1.0275e-08
0.000636259
-1.12385e-08
2.42116e-08
0.000636258
2.39274e-08
1.96229e-08
0.000636252
-1.27147e-08
1.10697e-08
0.000636252
1.69635e-09
2.19949e-08
0.000636249
2.18728e-08
4.66262e-09
0.000636244
-2.91024e-08
1.49006e-08
0.000636248
3.16895e-08
2.56368e-09
0.000636242
-1.3734e-08
2.15581e-09
0.000636242
2.75855e-09
3.6442e-09
0.000636244
1.38379e-08
-1.22641e-08
0.00063624
-6.56184e-09
4.66699e-10
0.000636244
8.84297e-09
-1.65055e-08
0.000636243
6.83557e-09
-1.30906e-08
0.000636245
4.36112e-09
-1.3188e-08
0.000636246
6.98116e-09
-2.46917e-08
0.00063625
6.38218e-09
-1.493e-08
0.000636252
1.86823e-08
-2.48431e-08
0.000636252
-8.66676e-09
-2.41829e-08
0.000636259
2.82774e-08
-1.63364e-08
0.000636258
4.05787e-09
-3.30184e-08
0.000636264
4.77009e-09
-1.01657e-08
0.000636266
2.77849e-08
-2.95609e-08
0.000636269
-2.38191e-09
-1.55205e-08
0.000636272
2.13657e-08
-1.22314e-08
0.000636273
1.03086e-08
-2.40226e-08
0.000636278
1.39543e-08
-2.16048e-10
0.000636276
1.15422e-08
-1.40406e-08
0.00063628
1.2562e-08
-7.63498e-09
0.00063628
1.85447e-08
9.40415e-09
0.000636279
-4.17698e-09
-1.28057e-08
0.000636283
3.60177e-08
1.65512e-08
0.000636277
-1.58288e-08
4.49636e-09
0.00063628
2.7465e-08
5.49275e-09
0.000636278
6.6709e-09
2.46126e-08
0.000636274
-3.59266e-09
5.16449e-09
0.000636275
2.37317e-08
2.24377e-08
-3.28053e-09
2.24635e-08
0.000524639
2.77789e-09
1.42997e-08
0.000524638
7.99757e-09
2.724e-08
0.000524634
4.92821e-09
9.78009e-09
0.00052463
-1.07864e-08
2.08801e-08
0.00052463
1.95627e-08
1.19404e-08
0.000524625
-1.1556e-08
7.93011e-09
0.000524624
-1.64167e-10
1.19026e-08
0.000524624
1.83943e-08
-1.24384e-09
0.000524618
-2.60959e-08
4.55678e-09
0.000524622
2.57562e-08
-6.02748e-09
0.000524618
-1.16142e-08
-6.44544e-09
0.000524619
6.70958e-10
-7.868e-09
0.000524621
1.15196e-08
-1.85222e-08
0.000524618
-5.88748e-09
-1.06093e-08
0.000524623
6.64258e-09
-2.30175e-08
0.000524623
5.68453e-09
-1.9973e-08
0.000524625
3.65105e-09
-2.037e-08
0.000524627
5.89273e-09
-2.72872e-08
0.000524631
5.1601e-09
-2.01665e-08
0.000524633
1.64386e-08
-2.57498e-08
0.000524634
-6.93676e-09
-2.40971e-08
0.00052464
2.36769e-08
-1.76971e-08
0.000524641
5.04672e-09
-2.69652e-08
0.000524645
3.56085e-09
-1.05777e-08
0.000524647
2.49761e-08
-2.20714e-08
0.00052465
-1.87007e-09
-9.47672e-09
0.000524652
1.88308e-08
-8.93166e-09
0.000524653
9.87446e-09
-1.11107e-08
0.000524656
1.13723e-08
2.71831e-09
0.000524654
1.15077e-08
-3.7475e-09
0.000524657
1.02407e-08
2.9945e-09
0.000524657
1.63752e-08
1.18958e-08
0.000524654
-3.10675e-09
1.9382e-09
0.000524657
3.02799e-08
1.94661e-08
0.000524652
-1.28519e-08
1.17492e-08
0.000524653
2.24386e-08
1.51696e-08
0.000524651
6.3387e-09
2.40118e-08
0.000524646
-4.05456e-09
1.3881e-08
0.000524647
1.97758e-08
2.34421e-08
-2.98757e-09
2.20663e-08
0.000428671
1.20615e-09
1.23797e-08
0.000428669
5.98354e-09
1.94487e-08
0.000428666
3.3444e-09
5.85358e-09
0.000428662
-1.01298e-08
1.33e-08
0.000428663
1.5571e-08
3.27691e-09
0.000428659
-1.04692e-08
1.79666e-09
0.000428658
-1.34005e-09
1.24098e-09
0.000428659
1.48972e-08
-8.01619e-09
0.000428654
-2.27542e-08
-5.27618e-09
0.000428658
2.04821e-08
-1.3446e-08
0.000428655
-9.69981e-09
-1.3854e-08
0.000428657
-6.85244e-10
-1.59285e-08
0.000428659
9.47869e-09
-2.26667e-08
0.000428658
-5.15119e-09
-1.70311e-08
0.000428662
4.96175e-09
-2.58924e-08
0.000428663
4.82024e-09
-2.22069e-08
0.000428665
3.0144e-09
-2.21871e-08
0.000428667
5.09318e-09
-2.58167e-08
0.000428671
4.18146e-09
-1.95206e-08
0.000428674
1.43652e-08
-2.23289e-08
0.000428675
-5.45197e-09
-1.96272e-08
0.00042868
1.97245e-08
-1.37754e-08
0.000428681
5.4491e-09
-1.88205e-08
0.000428683
2.74687e-09
-6.18491e-09
0.000428687
2.18476e-08
-1.25952e-08
0.000428687
-1.3327e-09
-2.432e-09
0.000428689
1.62217e-08
-2.0515e-09
0.00042869