/*--------------------------------*- C++ -*----------------------------------*\
  =========                 |
  \\      /  F ield         | OpenFOAM: The Open Source CFD Toolbox
   \\    /   O peration     | Website:  https://openfoam.org
    \\  /    A nd           | Version:  10
     \\/     M anipulation  |
\*---------------------------------------------------------------------------*/
FoamFile
{
    format      ascii;
    class       surfaceScalarField;
    location    "27.5";
    object      phi_0;
}
// * * * * * * * * * * * * * * * * * * * * * * * * * * * * * * * * * * * * * //

dimensions      [0 3 -1 0 0 0 0];

internalField   nonuniform List<scalar> 
74080
(
0.00532534
8.92321e-08
-3.70804e-09
0.00532534
-6.45567e-08
-1.00785e-08
0.00532534
2.42696e-08
1.10226e-08
0.00532535
1.62007e-08
-1.32379e-08
0.00532534
-3.67139e-08
1.03619e-08
0.00532535
4.24675e-08
-4.88576e-09
0.00532534
-3.39941e-08
-6.02804e-09
0.00532535
1.49799e-08
1.33237e-08
0.00532533
1.06327e-08
-1.89307e-08
0.00532536
-3.35164e-08
2.03876e-08
0.00532533
4.66068e-08
-1.95709e-08
0.00532535
-4.45107e-08
1.10387e-08
0.00532535
3.26346e-08
2.6885e-09
0.00532533
-2.16412e-08
-2.22541e-08
0.00532536
2.01167e-08
3.71003e-08
0.00532533
-2.29594e-08
-5.14602e-08
0.00532535
1.97584e-08
5.92136e-08
0.00532534
-1.76052e-09
-6.27431e-08
0.00532534
-2.46317e-08
4.80158e-08
0.00532535
4.73766e-08
-2.37828e-08
0.00532533
-5.72557e-08
-1.56085e-08
0.00532535
5.68256e-08
4.4653e-08
0.00532534
-4.31607e-08
-6.54761e-08
0.00532534
2.09079e-08
5.72402e-08
0.00532536
6.48165e-09
-3.87294e-08
0.00532532
-2.12228e-08
3.25239e-09
0.00532536
2.5093e-08
1.60273e-08
0.00532532
-1.74025e-08
-3.02982e-08
0.00532535
1.10346e-08
1.93407e-08
0.00532534
-5.34235e-09
-1.00462e-08
0.00532534
2.74978e-09
-6.35575e-09
0.00532534
1.12938e-08
8.48326e-10
0.00532535
-3.21615e-08
6.78108e-10
0.00532534
5.78443e-08
-6.79822e-09
0.00532534
-6.86905e-08
-4.77828e-09
0.00532536
6.34822e-08
1.01741e-08
0.00532533
-3.44375e-08
-2.40071e-08
0.00532536
-6.08438e-09
2.78386e-08
0.00532534
5.18832e-08
-3.17105e-08
-8.17564e-08
1.74154e-08
0.00484097
5.13239e-08
-1.48009e-08
0.00484092
-3.50609e-08
-4.75356e-09
0.00484094
1.07641e-08
1.83089e-08
0.00484094
1.39637e-08
-3.13948e-08
0.00484093
-2.69937e-08
3.73898e-08
0.00484095
3.17586e-08
-3.30977e-08
0.00484093
-2.65192e-08
1.58808e-08
0.00484094
9.34343e-09
5.83847e-09
0.00484093
1.68406e-08
-2.65389e-08
0.00484094
-4.08766e-08
3.78116e-08
0.00484094
5.16957e-08
-3.57188e-08
0.00484093
-4.12648e-08
1.59534e-08
0.00484095
1.67846e-08
1.00368e-08
0.00484092
5.65411e-09
-3.54905e-08
0.00484095
-1.02043e-08
4.62853e-08
0.00484093
3.22928e-09
-5.30182e-08
0.00484094
3.17021e-09
5.12888e-08
0.00484094
3.75728e-09
-4.8339e-08
0.00484093
-1.60142e-08
2.87504e-08
0.00484096
2.50466e-08
-4.73039e-09
0.00484091
-2.15065e-08
-3.30042e-08
0.00484097
1.75254e-08
5.70745e-08
0.00484092
-1.04989e-08
-7.53658e-08
0.00484094
6.90795e-09
6.41106e-08
0.00484095
2.70393e-10
-4.43435e-08
0.00484092
2.05451e-09
5.33705e-09
0.00484096
-6.8897e-09
1.85579e-08
0.00484092
1.66519e-08
-3.95621e-08
0.00484095
-1.33953e-08
3.49583e-08
0.00484094
3.74746e-09
-2.79942e-08
0.00484093
1.04576e-08
8.46993e-09
0.00484095
-5.20428e-09
-7.53348e-09
0.00484093
-1.15899e-08
4.8595e-09
0.00484095
3.46065e-08
-9.21304e-09
0.00484092
-3.99091e-08
-2.29136e-09
0.00484096
3.14506e-08
1.16111e-08
0.00484093
-6.66981e-09
-2.93108e-08
0.00484094
-1.71419e-08
3.64216e-08
0.00484096
3.94e-08
-4.16102e-08
-4.98754e-08
3.00638e-08
0.00440063
8.74988e-09
-2.1027e-08
0.00440058
-2.45296e-09
6.92662e-09
0.00440061
-2.43194e-09
9.45986e-09
0.0044006
9.55523e-09
-2.75672e-08
0.00440059
-1.28928e-08
4.02676e-08
0.0044006
1.76425e-08
-4.02873e-08
0.0044006
-1.82943e-08
2.55825e-08
0.0044006
9.46899e-09
-1.52959e-09
0.00440061
1.08021e-08
-2.42962e-08
0.00440059
-3.03996e-08
4.05157e-08
0.00440061
3.86185e-08
-3.90725e-08
0.00440059
-2.54685e-08
1.66564e-08
0.00440061
-1.06406e-10
1.1811e-08
0.00440059
2.32288e-08
-3.58467e-08
0.00440061
-2.5879e-08
4.22822e-08
0.00440059
1.6266e-08
-4.43948e-08
0.0044006
-3.9269e-09
3.8475e-08
0.0044006
4.51818e-09
-3.45978e-08
0.00440059
-5.70044e-09
1.41381e-08
0.00440062
4.18329e-09
8.22148e-09
0.00440057
1.10927e-08
-4.17053e-08
0.00440063
-1.92138e-08
5.95351e-08
0.00440058
2.3173e-08
-7.29752e-08
0.00440061
-1.2278e-08
5.7763e-08
0.0044006
2.7667e-09
-3.64295e-08
0.00440059
1.61877e-08
-1.81381e-09
0.00440062
-2.869e-08
2.41359e-08
0.00440059
4.04787e-08
-4.52533e-08
0.00440061
-2.89841e-08
4.33394e-08
0.0044006
7.83303e-09
-3.88848e-08
0.00440059
1.9997e-08
1.98972e-08
0.00440061
-2.20203e-08
-1.42348e-08
0.00440059
1.00117e-08
7.52022e-09
0.00440062
1.16046e-08
-8.3216e-09
0.00440058
-1.41088e-08
-2.91452e-09
0.00440062
6.3794e-09
1.25971e-08
0.00440059
1.25689e-08
-2.78862e-08
0.00440059
-1.97241e-08
3.35993e-08
0.00440062
2.06252e-08
-3.61681e-08
-1.24435e-08
2.98751e-08
0.00400034
-1.88637e-08
-1.88305e-08
0.00400031
1.66323e-08
1.27262e-08
0.00400032
-4.39793e-09
-1.56207e-10
0.00400033
-3.74283e-09
-1.5278e-08
0.00400031
8.88517e-09
3.10068e-08
0.00400032
-2.6173e-09
-3.47872e-08
0.00400032
-5.9657e-09
2.758e-08
0.00400031
1.02156e-08
-7.67405e-09
0.00400033
-2.194e-09
-1.45761e-08
0.0040003
-7.9806e-09
3.1203e-08
0.00400033
1.32656e-08
-3.061e-08
0.00400031
-1.48014e-09
1.15985e-08
0.00400032
-1.72155e-08
1.22821e-08
0.00400031
3.42554e-08
-3.01567e-08
0.00400032
-3.09445e-08
3.06771e-08
0.00400031
1.9447e-08
-2.96008e-08
0.00400032
-4.05693e-09
2.33777e-08
0.00400032
2.58861e-09
-2.13839e-08
0.00400031
2.63469e-09
3.87119e-09
0.00400033
-7.58966e-09
1.38064e-08
0.0040003
2.79686e-08
-4.22418e-08
0.00400034
-3.65338e-08
5.36122e-08
0.0040003
4.00877e-08
-6.30514e-08
0.00400033
-2.10862e-08
4.6908e-08
0.00400032
4.8301e-09
-2.82974e-08
0.00400031
2.22644e-08
-5.37083e-09
0.00400032
-3.61415e-08
2.23229e-08
0.00400031
4.8528e-08
-4.04045e-08
0.00400032
-3.14144e-08
3.97623e-08
0.00400032
6.68037e-09
-3.9952e-08
0.00400031
2.71748e-08
2.67304e-08
0.00400033
-3.12906e-08
-2.2822e-08
0.00400031
2.32215e-08
1.47399e-08
0.00400033
-1.82083e-09
-1.18885e-08
0.0040003
7.36171e-10
-1.33459e-09
0.00400033
-5.56993e-09
1.35267e-08
0.00400031
2.01597e-08
-2.65526e-08
0.00400031
-1.66859e-08
2.93052e-08
0.00400034
5.7052e-09
-2.71063e-08
1.38203e-08
2.30662e-08
0.00363646
-3.24367e-08
-1.60591e-08
0.00363644
2.52774e-08
1.6739e-08
0.00363644
-1.05992e-10
-7.20851e-09
0.00363646
-1.93867e-08
-3.59444e-09
0.00363644
3.28411e-08
1.97651e-08
0.00363646
-2.64364e-08
-2.50987e-08
0.00363644
1.25075e-08
2.53436e-08
0.00363644
5.24782e-09
-1.23584e-08
0.00363646
-1.07122e-08
-3.02426e-09
0.00363643
1.30486e-08
1.77467e-08
0.00363646
-1.0986e-08
-1.69316e-08
0.00363644
1.94416e-08
2.81674e-09
0.00363645
-2.70153e-08
1.50101e-08
0.00363645
3.55878e-08
-2.48779e-08
0.00363645
-2.64642e-08
2.08236e-08
0.00363644
1.6447e-08
-1.68824e-08
0.00363645
-4.37808e-10
1.08076e-08
0.00363645
-2.52852e-10
-1.02384e-08
0.00363644
8.5007e-09
-3.64498e-09
0.00363645
-1.09035e-08
1.65125e-08
0.00363644
3.03305e-08
-3.77762e-08
0.00363645
-3.47926e-08
4.31639e-08
0.00363644
3.96275e-08
-4.89232e-08
0.00363645
-1.86458e-08
3.35848e-08
0.00363645
4.7195e-09
-1.96294e-08
0.00363645
2.29713e-08
-5.48533e-09
0.00363645
-3.20286e-08
1.4248e-08
0.00363645
4.36976e-08
-2.63809e-08
0.00363644
-2.37771e-08
2.63839e-08
0.00363645
3.07913e-09
-3.19146e-08
0.00363644
2.95603e-08
2.79851e-08
0.00363645
-2.98846e-08
-2.95738e-08
0.00363644
2.41519e-08
2.394e-08
0.00363645
-1.92929e-09
-1.83081e-08
0.00363644
2.37189e-09
3.56834e-09
0.00363645
-3.80986e-09
1.22574e-08
0.00363645
1.71636e-08
-2.47017e-08
0.00363644
-8.77757e-09
2.68084e-08
0.00363646
-4.47174e-09
-2.08478e-08
2.83859e-08
1.81683e-08
0.00330569
-3.76769e-08
-1.31077e-08
0.00330567
3.02066e-08
1.8199e-08
0.00330568
2.61465e-09
-1.01665e-08
0.00330568
-2.85227e-08
5.23852e-09
0.00330567
5.00537e-08
1.00458e-08
0.00330568
-4.4821e-08
-1.41832e-08
0.00330567
2.89979e-08
2.04461e-08
0.00330567
-2.51477e-11
-1.19544e-08
0.00330568
-1.72086e-08
4.58894e-09
0.00330567
3.17165e-08
7.19983e-09
0.00330568
-3.10018e-08
-4.24455e-09
0.00330567
3.46413e-08
-5.75231e-09
0.00330567
-2.9067e-08
1.91893e-08
0.00330568
2.98113e-08
-2.25117e-08
0.00330568
-1.5836e-08
1.53085e-08
0.00330567
9.87691e-09
-8.39632e-09
0.00330568
5.39796e-09
2.43475e-09
0.00330568
-3.57268e-09
-2.08916e-09
0.00330567
1.37614e-08
-8.72404e-09
0.00330568
-9.73966e-09
1.74589e-08
0.00330568
2.45332e-08
-3.1803e-08
0.00330567
-2.13907e-08
3.14849e-08
0.00330568
2.86547e-08
-3.35182e-08
0.00330568
-9.62841e-09
1.98013e-08
0.00330567
5.14772e-09
-1.10678e-08
0.00330568
1.78542e-08
-4.8401e-09
0.00330567
-1.77374e-08
5.38692e-09
0.00330569
2.83877e-08
-1.11323e-08
0.00330567
-7.19427e-09
1.12891e-08
0.00330568
-4.0481e-09
-2.12671e-08
0.00330568
3.04362e-08
2.66782e-08
0.00330567
-2.21884e-08
-3.42167e-08
0.00330568
1.73393e-08
3.26307e-08
0.00330568
7.01707e-09
-2.4802e-08
0.00330567
-4.78928e-09
8.85253e-09
0.00330568
6.86445e-09
1.11871e-08
0.00330568
7.99123e-09
-2.33052e-08
0.00330567
1.08994e-09
2.65732e-08
0.00330568
-1.01647e-08
-1.72849e-08
3.51096e-08
1.5854e-08
0.003005
-3.58709e-08
-8.82391e-09
0.00300499
3.2407e-08
1.61935e-08
0.003005
3.62287e-09
-8.01604e-09
0.003005
-3.23388e-08
8.6828e-09
0.00300499
6.1498e-08
4.83516e-09
0.003005
-5.79719e-08
-5.24909e-09
0.00300499
4.29918e-08
1.481e-08
0.00300499
-4.56461e-09
-8.35839e-09
0.003005
-2.21661e-08
7.55513e-09
0.00300499
4.80165e-08
1.84273e-09
0.003005
-4.74325e-08
4.3353e-09
0.00300499
4.64928e-08
-1.13936e-08
0.00300499
-2.80853e-08
2.29739e-08
0.003005
2.30988e-08
-2.16672e-08
0.00300499
-5.67811e-09
1.32084e-08
0.00300499
5.51965e-09
-3.23019e-09
0.003005
9.49486e-09
-3.57459e-09
0.003005
-4.82312e-09
5.53303e-09
0.00300499
1.69177e-08
-1.3473e-08
0.00300499
-4.53243e-09
1.85529e-08
0.003005
1.33418e-08
-2.59739e-08
0.00300498
-9.69476e-10
2.08725e-08
0.003005
1.18868e-08
-1.87909e-08
0.00300499
3.09942e-09
6.95089e-09
0.00300499
5.71108e-09
-2.5977e-09
0.003005
1.02865e-08
-4.22157e-09
0.00300498
1.17086e-09
-2.35648e-09
0.00300501
8.48461e-09
2.95198e-09
0.00300498
1.38953e-08
-2.28087e-09
0.003005
-1.37041e-08
-1.07918e-08
0.003005
3.27193e-08
2.48987e-08
0.00300499
-1.35023e-08
-3.75211e-08
0.003005
8.77235e-09
4.05066e-08
0.00300499
1.91284e-08
-3.06699e-08
0.00300499
-1.44866e-08
1.3992e-08
0.00300499
2.00803e-08
1.08157e-08
0.003005
-1.39566e-09
-2.28992e-08
0.00300499
8.75548e-09
2.86456e-08
0.003005
-9.84053e-09
-1.6323e-08
3.45636e-08
1.51865e-08
0.00273167
-3.04872e-08
-4.16171e-09
0.00273166
3.38079e-08
1.19914e-08
0.00273167
3.52268e-09
-1.87876e-09
0.00273166
-3.23104e-08
7.44521e-09
0.00273166
6.9105e-08
4.73189e-09
0.00273167
-6.73472e-08
2.2809e-10
0.00273166
5.54591e-08
1.04367e-08
0.00273166
-9.55824e-09
-2.95915e-09
0.00273167
-2.35193e-08
7.09589e-09
0.00273166
5.95388e-08
6.71149e-10
0.00273167
-5.788e-08
9.41778e-09
0.00273166
5.3728e-08
-1.44348e-08
0.00273166
-2.41974e-08
2.63413e-08
0.00273167
1.63617e-08
-2.20287e-08
0.00273166
3.11086e-09
1.40836e-08
0.00273166
3.64293e-09
-9.38505e-10
0.00273166
1.1355e-08
-6.98535e-09
0.00273166
-3.75725e-09
1.21773e-08
0.00273166
1.83071e-08
-1.83173e-08
0.00273166
2.85562e-09
2.10015e-08
0.00273167
1.24337e-10
-2.13407e-08
0.00273165
2.21696e-08
1.18033e-08
0.00273167
-6.97102e-09
-4.88614e-09
0.00273166
1.81242e-08
-5.32238e-09
0.00273166
5.13521e-09
6.23422e-09
0.00273167
4.5087e-09
-4.22574e-09
0.00273165
1.85068e-08
-7.9443e-09
0.00273167
-9.13575e-09
1.45244e-08
0.00273165
3.38674e-08
-1.28099e-08
0.00273167
-2.25963e-08
-1.87137e-09
0.00273166
3.56742e-08
2.3458e-08
0.00273166
-4.96021e-09
-3.92859e-08
0.00273166
1.11277e-10
4.66758e-08
0.00273166
3.28823e-08
-3.41733e-08
0.00273166
-2.54468e-08
1.7433e-08
0.00273166
3.4504e-08
1.21571e-08
0.00273166
-9.89276e-09
-2.38442e-08
0.00273166
1.45311e-08
3.26094e-08
0.00273166
-5.53649e-09
-1.71271e-08
3.02758e-08
1.60186e-08
0.00248319
-2.44061e-08
3.20552e-10
0.00248318
3.63191e-08
7.1502e-09
0.00248319
1.46155e-09
6.41489e-09
0.00248318
-2.84397e-08
3.66668e-09
0.00248318
7.27071e-08
7.70997e-09
0.00248319
-7.22409e-08
3.41397e-09
0.00248318
6.47357e-08
7.1566e-09
0.00248319
-1.2855e-08
3.39815e-09
0.00248318
-2.3632e-08
4.40472e-09
0.00248318
6.77859e-08
3.3961e-09
0.00248318
-6.41342e-08
1.12112e-08
0.00248319
5.80356e-08
-1.5161e-08
0.00248318
-1.94494e-08
2.94418e-08
0.00248319
1.1034e-08
-2.32038e-08
0.00248318
9.94532e-09
1.71031e-08
0.00248318
3.51009e-09
-4.43485e-10
0.00248318
1.27415e-08
-8.65086e-09
0.00248319
-2.76474e-09
1.83234e-08
0.00248318
2.02599e-08
-2.28395e-08
0.00248318
9.46721e-09
2.43698e-08
0.00248319
-1.12205e-08
-1.79444e-08
0.00248317
4.28143e-08
4.97203e-09
0.00248319
-2.29344e-08
7.23654e-09
0.00248318
3.09396e-08
-1.5639e-08
0.00248318
5.25926e-09
1.5071e-08
0.00248319
1.59259e-10
-5.18079e-09
0.00248318
3.25466e-08
-1.03745e-08
0.00248319
-2.22592e-08
2.25861e-08
0.00248318
5.05247e-08
-1.95315e-08
0.00248319
-2.99124e-08
5.02472e-09
0.00248318
3.97583e-08
2.2802e-08
0.00248318
1.79634e-09
-3.99325e-08
0.00248319
-6.72371e-09
5.15639e-08
0.00248318
4.63109e-08
-3.59587e-08
0.00248319
-3.62658e-08
1.97287e-08
0.00248318
4.91422e-08
1.48527e-08
0.00248318
-1.73304e-08
-2.55345e-08
0.00248318
1.90484e-08
3.79609e-08
0.00248318
7.77004e-10
-1.90383e-08
2.49921e-08
1.8085e-08
0.00225715
-1.76751e-08
5.15775e-09
0.00225715
3.89635e-08
2.42572e-09
0.00225716
-9.33589e-10
1.5684e-08
0.00225715
-2.31167e-08
-1.04632e-09
0.00225715
7.3999e-08
1.30662e-08
0.00225715
-7.3965e-08
5.03832e-09
0.00225715
7.09069e-08
5.29695e-09
0.00225716
-1.42328e-08
1.03314e-08
0.00225715
-2.35727e-08
9.04473e-10
0.00225715
7.38001e-08
8.15775e-09
0.00225715
-6.75665e-08
1.13311e-08
0.00225716
6.0592e-08
-1.39081e-08
0.00225715
-1.56143e-08
3.20788e-08
0.00225716
8.27506e-09
-2.42239e-08
0.00225715
1.3471e-08
2.13642e-08
0.00225715
5.4661e-09
-7.8807e-10
0.00225715
1.28977e-08
-8.91543e-09
0.00225716
-1.61424e-09
2.41625e-08
0.00225715
2.20528e-08
-2.67672e-08
0.00225715
1.47543e-08
2.88146e-08
0.00225716
-2.02349e-08
-1.55461e-08
0.00225714
5.94939e-08
3.71529e-10
0.00225716
-3.49934e-08
1.79469e-08
0.00225715
4.05767e-08
-2.43604e-08
0.00225715
6.40785e-09
2.38539e-08
0.00225715
-2.61295e-09
-6.44912e-09
0.00225715
4.22212e-08
-1.09727e-08
0.00225716
-3.00198e-08
2.89744e-08
0.00225715
6.256e-08
-2.32483e-08
0.00225716
-3.54841e-08
1.03252e-08
0.00225715
4.52239e-08
2.35797e-08
0.00225715
5.4129e-09
-3.99782e-08
0.00225715
-1.03606e-08
5.60358e-08
0.00225715
5.76345e-08
-3.61101e-08
0.00225715
-4.54133e-08
2.1456e-08
0.00225715
6.2094e-08
1.86241e-08
0.00225715
-2.21921e-08
-2.73905e-08
0.00225715
2.11907e-08
4.3902e-08
0.00225715
9.03647e-09
-2.06595e-08
1.87583e-08
2.06368e-08
0.00205001
-1.1002e-08
9.89851e-09
0.00205
4.03549e-08
-9.02438e-10
0.00205002
-3.00328e-09
2.53034e-08
0.00205001
-1.79568e-08
-4.64926e-09
0.00205002
7.30521e-08
1.92522e-08
0.00205001
-7.28819e-08
6.6021e-09
0.00205001
7.30015e-08
4.5158e-09
0.00205002
-1.38396e-08
1.79436e-08
0.00205001
-2.36478e-08
-2.24834e-09
0.00205001
7.62e-08
1.45646e-08
0.00205001
-6.74777e-08
1.096e-08
0.00205002
5.95616e-08
-1.16744e-08
0.00205001
-1.18871e-08
3.54462e-08
0.00205002
6.58271e-09
-2.49158e-08
0.00205001
1.39628e-08
2.6965e-08
0.00205001
8.40895e-09
-1.58892e-09
0.00205001
1.15293e-08
-7.56037e-09
0.00205002
-6.68002e-10
2.98769e-08
0.00205001
2.30443e-08
-2.9681e-08
0.00205001
1.83582e-08
3.41028e-08
0.00205002
-2.66955e-08
-1.38861e-08
0.00205001
7.05509e-08
-2.11049e-09
0.00205002
-4.22165e-08
2.73969e-08
0.00205001
4.53105e-08
-3.04245e-08
0.00205001
8.41518e-09
3.22793e-08
0.00205001
-4.09153e-09
-7.41398e-09
0.00205001
4.6574e-08
-9.68823e-09
0.00205001
-3.18109e-08
3.41718e-08
0.00205001
6.78827e-08
-2.42299e-08
0.00205001
-3.76558e-08
1.48338e-08
0.00205001
4.93413e-08
2.54565e-08
0.00205001
6.80333e-09
-3.93762e-08
0.00205001
-1.17459e-08
6.09258e-08
0.00205001
6.56927e-08
-3.49109e-08
0.00205001
-5.19961e-08
2.34918e-08
0.00205001
7.1328e-08
2.3271e-08
0.00205001
-2.41485e-08
-2.8683e-08
0.00205001
2.03556e-08
5.09332e-08
0.00205001
1.82983e-08
-2.16576e-08
1.17462e-08
2.44044e-08
0.00185235
-4.74105e-09
1.20745e-08
0.00185234
3.94973e-08
-2.82386e-09
0.00185236
-5.09427e-09
3.47146e-08
0.00185234
-1.2441e-08
-8.83049e-09
0.00185236
6.67205e-08
2.53521e-08
0.00185235
-6.57711e-08
7.79414e-09
0.00185235
6.71015e-08
2.55284e-09
0.00185235
-9.60368e-09
2.84527e-08
0.00185235
-2.48962e-08
-9.54015e-09
0.00185236
7.37149e-08
2.43956e-08
0.00185235
-6.19523e-08
6.94891e-09
0.00185236
5.2476e-08
-8.46331e-09
0.00185235
-5.8605e-09
4.06007e-08
0.00185235
3.53242e-09
-2.95501e-08
0.00185235
1.33258e-08
3.60376e-08
0.00185235
1.1106e-08
-6.2125e-09
0.00185235
9.0555e-09
-4.95656e-09
0.00185235
4.40674e-10
3.70153e-08
0.00185234
2.28537e-08
-3.62084e-08
0.00185234
1.97859e-08
4.32543e-08
0.00185234
-2.91873e-08
-1.67112e-08
0.00185234
7.38874e-08
-1.55923e-09
0.00185234
-4.26962e-08
3.65887e-08
0.00185234
4.39918e-08
-3.74598e-08
0.00185234
1.21454e-08
4.14456e-08
0.00185234
-5.26559e-09
-8.56294e-09
0.00185234
4.63521e-08
-9.67573e-09
0.00185233
-2.7855e-08
4.27685e-08
0.00185234
6.49529e-08
-2.77358e-08
0.00185234
-3.38635e-08
2.03286e-08
0.00185233
4.84055e-08
2.84903e-08
0.00185234
8.73522e-09
-4.18661e-08
0.00185233
-1.19774e-08
7.12188e-08
0.00185234
6.83785e-08
-3.84495e-08
0.00185234
-5.35814e-08
2.86277e-08
0.00185234
7.33587e-08
2.6311e-08
0.00185234
-2.15549e-08
-3.04645e-08
0.00185235
1.55271e-08
6.05081e-08
0.00185234
2.73822e-08
-2.54499e-08
3.80282e-09
3.03186e-08
0.00165171
2.51207e-09
4.33981e-09
0.00165171
3.49077e-08
-3.46342e-09
0.00165172
-4.52643e-09
3.89593e-08
0.0016517
-7.90836e-09
-2.13785e-08
0.00165173
5.66805e-08
3.46936e-08
0.0016517
-5.28035e-08
-1.16875e-09
0.00165172
5.36276e-08
3.43847e-09
0.00165171
-5.27235e-10
3.4417e-08
0.00165171
-2.79269e-08
-2.64523e-08
0.00165172
6.87296e-08
4.2387e-08
0.0016517
-5.24587e-08
-1.18402e-08
0.00165171
4.13821e-08
3.90271e-09
0.0016517
2.38004e-09
3.78864e-08
0.00165171
-7.79558e-10
-4.02451e-08
0.0016517
1.32267e-08
5.38052e-08
0.0016517
1.30802e-08
-2.56159e-08
0.0016517
6.66676e-09
9.36203e-09
0.0016517
2.33205e-09
3.62161e-08
0.00165169
2.16748e-08
-4.9154e-08
0.0016517
2.00884e-08
6.44092e-08
0.00165169
-2.75435e-08
-3.58406e-08
0.00165169
7.087e-08
1.16865e-08
0.00165169
-3.69326e-08
3.94544e-08
0.00165169
3.83512e-08
-5.10764e-08
0.00165169
1.74608e-08
6.0049e-08
0.00165168
-6.03252e-09
-1.89387e-08
0.00165169
4.39613e-08
-8.4755e-09
0.00165168
-2.01284e-08
5.73856e-08
0.00165169
5.64913e-08
-4.88161e-08
0.00165168
-2.4397e-08
3.9728e-08
0.00165169
4.23809e-08
2.09267e-08
0.00165169
1.28629e-08
-4.62213e-08
0.00165169
-1.19602e-08
8.76716e-08
0.0016517
6.74892e-08
-6.0726e-08
0.00165169
-4.9927e-08
4.53421e-08
0.0016517
6.94714e-08
1.70857e-08
0.00165169
-1.53092e-08
-3.15763e-08
0.00165171
8.89702e-09
6.80237e-08
0.0016517
3.53717e-08
-4.03517e-08
-3.92632e-09
4.00617e-08
0.00145006
8.96454e-09
-1.73219e-08
0.00145006
2.76216e-08
4.84926e-09
0.00145007
-2.47138e-10
2.75058e-08
0.00145005
-7.20735e-09
-2.75196e-08
0.00145007
4.81064e-08
4.4075e-08
0.00145005
-3.99204e-08
-2.22614e-08
0.00145007
3.835e-08
2.02931e-08
0.00145005
9.77889e-09
1.77767e-08
0.00145005
-3.17926e-08
-2.62185e-08
0.00145006
6.34244e-08
5.47602e-08
0.00145005
-4.28393e-08
-3.77993e-08
0.00145005
3.0445e-08
3.46082e-08
0.00145004
9.62087e-09
9.2168e-09
0.00145004
-4.60309e-09
-2.58315e-08
0.00145004
1.35088e-08
6.07869e-08
0.00145004
1.4137e-08
-4.97485e-08
0.00145003
4.84394e-09
4.51323e-08
0.00145004
4.9525e-09
3.59073e-09
0.00145003
1.97573e-08
-3.30212e-08
0.00145003
2.00398e-08
7.61421e-08
0.00145003
-2.29982e-08
-6.71223e-08
0.00145004
6.39288e-08
5.22705e-08
0.00145002
-2.78026e-08
9.1079e-09
0.00145003
3.15858e-08
-4.65175e-08
0.00145003
2.24953e-08
8.25714e-08
0.00145003
-5.33399e-09
-5.64257e-08
0.00145004
4.07014e-08
2.04898e-08
0.00145002
-1.14952e-08
4.74437e-08
0.00145004
4.72724e-08
-7.37085e-08
0.00145003
-1.34826e-08
8.00318e-08
0.00145004
3.54823e-08
-2.6431e-08
0.00145004
1.77729e-08
-2.45438e-08
0.00145004
-1.14302e-08
8.3189e-08
0.00145005
6.52518e-08
-8.99656e-08
0.00145004
-4.42737e-08
7.67249e-08
0.00145006
6.4064e-08
-2.01769e-08
0.00145005
-9.30211e-09
-1.84611e-08
0.00145006
4.68084e-09
5.89989e-08
0.00145005
3.93403e-08
-5.5612e-08
-8.76494e-09
5.25137e-08
0.00125601
1.13144e-08
-3.34176e-08
0.00125602
2.12794e-08
1.77341e-08
0.00125602
4.06628e-09
9.35225e-09
0.00125601
-8.98074e-09
-1.47595e-08
0.00125603
4.21323e-08
3.61044e-08
0.001256
-3.05263e-08
-2.62976e-08
0.00125602
2.59963e-08
3.5566e-08
0.00125601
1.7462e-08
-5.08165e-09
0.001256
-3.42756e-08
-2.69887e-10
0.00125601
5.79056e-08
3.99312e-08
0.001256
-3.46008e-08
-3.49004e-08
0.001256
2.1773e-08
5.19824e-08
0.001256
1.4721e-08
-1.8029e-08
0.00125599
-7.11631e-09
1.06858e-08
0.00125599
1.41209e-08
3.38913e-08
0.00125599
1.40133e-08
-3.62341e-08
0.00125599
3.72258e-09
5.72968e-08
0.00125599
8.03961e-09
-2.86088e-08
0.00125599
1.68421e-08
1.18019e-08
0.00125599
2.05442e-08
3.94065e-08
0.00125598
-1.76592e-08
-5.77961e-08
0.00125599
5.53396e-08
7.35493e-08
0.00125598
-1.73299e-08
-4.07939e-08
0.00125599
2.45603e-08
-3.52916e-10
0.00125599
2.64949e-08
5.41643e-08
0.00125599
-3.69368e-09
-7.49046e-08
0.001256
3.65777e-08
6.05209e-08
0.00125599
-3.17975e-09
-1.08067e-08
0.00125601
3.85351e-08
-4.9289e-08
0.00125599
-4.23859e-09
8.3138e-08
0.00125601
2.95596e-08
-7.98429e-08
0.00125601
2.06424e-08
2.93745e-08
0.00125601
-9.92018e-09
2.82729e-08
0.00125601
6.07233e-08
-7.99883e-08
0.00125601
-3.76702e-08
8.70662e-08
0.00125602
5.72281e-08
-6.41054e-08
0.00125601
-4.77774e-09
1.47728e-08
0.00125602
2.63022e-09
2.70784e-08
0.00125601
3.82511e-08
-5.04492e-08
-9.47528e-09
5.29413e-08
0.00107535
1.05898e-08
-3.30129e-08
0.00107536
1.72382e-08
2.65115e-08
0.00107535
6.31612e-09
1.52591e-09
0.00107535
-1.02377e-08
2.36015e-11
0.00107535
3.72097e-08
2.62118e-08
0.00107533
-2.38509e-08
-1.19301e-08
0.00107535
1.72072e-08
3.53805e-08
0.00107534
2.16949e-08
-8.15533e-09
0.00107534
-3.43661e-08
2.10245e-08
0.00107534
5.18823e-08
2.05936e-08
0.00107533
-2.77742e-08
-1.19144e-08
0.00107533
1.55792e-08
4.52944e-08
0.00107533
1.71038e-08
-1.97913e-08
0.00107532
-8.21234e-09
2.88781e-08
0.00107533
1.46637e-08
9.88379e-09
0.00107532
1.24733e-08
-1.02148e-08
0.00107532
3.95106e-09
3.73583e-08
0.00107532
9.95618e-09
-2.6486e-08
0.00107532
1.34123e-08
2.53202e-08
0.00107532
2.14939e-08
2.41446e-09
0.00107532
-1.38241e-08
-2.51432e-08
0.00107533
4.7155e-08
4.46215e-08
0.00107532
-8.29682e-09
-5.12163e-08
0.00107533
1.76885e-08
2.57246e-08
0.00107533
2.91756e-08
2.8009e-10
0.00107533
-2.66369e-09
-4.76824e-08
0.00107534
3.20092e-08
4.96045e-08
0.00107533
3.38203e-09
-5.15134e-08
0.00107535
3.02531e-08
-5.37658e-09
0.00107533
2.66471e-09
3.25228e-08
0.00107535
2.43239e-08
-7.73462e-08
0.00107535
2.12572e-08
5.19643e-08
0.00107535
-7.89599e-09
-3.1744e-08
0.00107535
5.43515e-08
-3.25468e-08
0.00107535
-3.10227e-08
5.35686e-08
0.00107536
4.92026e-08
-7.06276e-08
0.00107535
-1.04521e-09
3.89268e-08
0.00107536
9.63962e-10
-8.12289e-09
0.00107535
3.48676e-08
-2.56301e-08
-8.12484e-09
4.13744e-08
0.000911224
8.91628e-09
-1.90702e-08
0.000911232
1.45966e-08
3.23699e-08
0.000911221
7.00584e-09
2.38208e-09
0.000911222
-1.05798e-08
1.21975e-08
0.000911224
3.25878e-08
2.43721e-08
0.000911211
-1.88881e-08
1.77926e-09
0.00091122
1.09119e-08
3.16168e-08
0.000911209
2.32364e-08
8.63953e-10
0.000911207
-3.293e-08
2.66313e-08
0.00091121
4.53511e-08
1.22084e-08
0.000911201
-2.21991e-08
5.26294e-09
0.000911202
1.09661e-08
3.03534e-08
0.000911203
1.70152e-08
-1.1598e-08
0.000911195
-8.02945e-09
2.67414e-08
0.0009112
1.39351e-08
-1.67693e-09
0.000911196
1.02018e-08
-2.02442e-10
0.000911197
4.68436e-09
1.57809e-08
0.000911197
9.74782e-09
-1.92984e-08
0.000911197
1.05793e-08
1.27724e-08
0.0009112
2.14849e-08
-1.23109e-08
0.000911196
-1.1663e-08
-1.47436e-08
0.000911207
4.01745e-08
1.15597e-08
0.000911199
-2.33148e-09
-4.14762e-08
0.000911209
1.19947e-08
1.47074e-08
0.000911207
3.01669e-08
-2.66789e-08
0.000911211
-2.62186e-09
-2.49931e-08
0.000911217
2.78975e-08
1.45291e-08
0.000911213
7.53522e-09
-5.09134e-08
0.000911226
2.3062e-08
7.17782e-09
0.000911218
7.36635e-09
-9.1687e-09
0.000911228
1.97063e-08
-4.58287e-08
0.000911227
2.05594e-08
3.38587e-08
0.000911227
-6.0744e-09
-4.6734e-08
0.000911234
4.76184e-08
2.17197e-09
0.000911228
-2.50842e-08
1.44513e-08
0.000911234
4.13321e-08
-4.27657e-08
0.000911232
2.04757e-09
3.78178e-08
0.000911231
-5.95859e-10
-1.9637e-08
0.000911232
3.118e-08
1.02262e-09
-6.39956e-09
2.79077e-08
0.000764891
7.08816e-09
-1.49739e-09
0.000764894
1.24137e-08
3.45449e-08
0.000764886
6.68408e-09
6.66403e-09
0.000764886
-1.05307e-08
2.15018e-08
0.000764885
2.81787e-08
2.35531e-08
0.000764877
-1.56509e-08
9.42228e-09
0.00076488
6.43636e-09
2.83649e-08
0.000764874
2.2671e-08
6.2065e-09
0.00076487
-3.09555e-08
2.30206e-08
0.000764873
3.87267e-08
8.49326e-09
0.000764865
-1.80345e-08
8.36615e-09
0.000764866
7.1498e-09
1.60527e-08
0.000764867
1.54302e-08
-8.26296e-09
0.000764861
-7.32758e-09
1.43893e-08
0.000764866
1.18289e-08
-9.37743e-09
0.000764863
8.13703e-09
-3.90582e-09
0.000764865
4.89968e-09
-1.27928e-09
0.000764864
8.32948e-09
-2.02331e-08
0.000764867
8.55486e-09
-3.21707e-09
0.00076487
2.00895e-08
-2.01704e-08
0.000764868
-1.00169e-08
-1.9141e-08
0.000764877
3.41855e-08
-7.84124e-09
0.000764873
1.03923e-09
-3.62788e-08
0.000764881
8.13615e-09
-1.76522e-09
0.000764881
2.9455e-08
-3.27141e-08
0.000764885
-2.85424e-09
-1.84124e-08
0.000764889
2.46415e-08
-7.15803e-09
0.000764888
9.52665e-09
-3.744e-08
0.000764897
1.7626e-08
2.45491e-09
0.000764892
1.02663e-08
-2.03284e-08
0.000764899
1.59041e-08
-2.15689e-08
0.000764899
1.92771e-08
1.45731e-08
0.000764898
-4.45132e-09
-3.20512e-08
0.000764904
4.12779e-08
1.37566e-08
0.000764898
-2.01337e-08
1.06597e-10
0.000764903
3.45229e-08
-1.26498e-08
0.000764901
4.15034e-09
2.86656e-08
0.000764898
-1.80059e-09
-9.46388e-09
0.0007649
2.7538e-08
1.68994e-08
-5.02131e-09
2.19295e-08
0.000636319
5.20367e-09
1.05728e-08
0.000636319
1.02548e-08
3.2617e-08
0.000636313
5.58649e-09
9.96999e-09
0.000636311
-1.0363e-08
2.46769e-08
0.00063631
2.37961e-08
1.91043e-08
0.000636304
-1.37624e-08
1.12946e-08
0.000636304
3.3681e-09
2.1765e-08
0.000636301
2.03536e-08
4.4932e-09
0.000636296
-2.85815e-08
1.49101e-08
0.0006363
3.233e-08
2.10365e-09
0.000636293
-1.50775e-08
2.34593e-09
0.000636295
4.02469e-09
3.08803e-09
0.000636296
1.32797e-08
-1.22657e-08
0.000636292
-6.66128e-09
3.47287e-10
0.000636296
9.27605e-09
-1.70175e-08
0.000636295
6.63179e-09
-1.28388e-08
0.000636298
4.42949e-09
-1.37074e-08
0.000636298
6.87105e-09
-2.46765e-08
0.000636302
6.98308e-09
-1.49425e-08
0.000636304
1.7989e-08
-2.52707e-08
0.000636304
-8.33627e-09
-2.37726e-08
0.000636312
2.88699e-08
-1.68272e-08
0.00063631
2.94329e-09
-3.27524e-08
0.000636316
5.84586e-09
-1.00849e-08
0.000636318
2.7444e-08
-2.99172e-08
0.000636321
-2.68904e-09
-1.47841e-08
0.000636324
2.1945e-08
-1.27606e-08
0.000636325
1.0002e-08
-2.3579e-08
0.000636331
1.3929e-08
1.35903e-10
0.000636328
1.15796e-08
-1.45362e-08
0.000636333
1.2902e-08
-6.64672e-09
0.000636332
1.76352e-08
9.02674e-09
0.000636331
-3.12926e-09
-1.25979e-08
0.000636335
3.53667e-08
1.7274e-08
0.00063633
-1.62153e-08
3.84362e-09
0.000636332
2.86872e-08
6.38203e-09
0.00063633
5.07164e-09
2.44933e-08
0.000636326
-2.66402e-09
5.03106e-09
0.000636327
2.37631e-08
2.32034e-08
-4.17637e-09
2.18563e-08
0.000524684
3.33236e-09
1.4604e-08
0.000524683
8.08426e-09
2.70877e-08
0.000524679
4.09528e-09
9.59361e-09
0.000524676
-1.00527e-08
2.10636e-08
0.000524675
1.94797e-08
1.14794e-08
0.00052467
-1.24844e-08
8.05494e-09
0.000524669
1.27512e-09
1.15937e-08
0.000524669
1.7119e-08
-1.41863e-09
0.000524664
-2.57018e-08
4.45856e-09
0.000524668
2.63604e-08
-6.40462e-09
0.000524663
-1.27821e-08
-6.40376e-09
0.000524664
1.73479e-09
-8.31261e-09
0.000524666
1.1094e-08
-1.85488e-08
0.000524664
-6.00427e-09
-1.07562e-08
0.000524668
7.02428e-09
-2.33688e-08
0.000524668
5.52869e-09
-1.98153e-08
0.000524671
3.71256e-09
-2.07156e-08
0.000524672
5.79267e-09
-2.72485e-08
0.000524676
5.6821e-09
-2.0148e-08
0.000524678
1.58785e-08
-2.59773e-08
0.00052468
-6.69518e-09
-2.37728e-08
0.000524686
2.42236e-08
-1.79461e-08
0.000524686
4.09342e-09
-2.67092e-08
0.00052469
4.4624e-09
-1.04648e-08
0.000524693
2.47153e-08
-2.21668e-08
0.000524695
-2.16141e-09
-8.96284e-09
0.000524697
1.93619e-08
-9.15689e-09
0.000524698
9.56991e-09
-1.07103e-08
0.000524702
1.13782e-08
2.95355e-09
0.0005247
1.15357e-08
-3.88898e-09
0.000524703
1.04973e-08
3.62287e-09
0.000524702
1.56422e-08
1.17326e-08
0.0005247
-2.263e-09
2.17814e-09
0.000524703
2.9754e-08
1.98674e-08
0.000524697
-1.32101e-08
1.14559e-08
0.000524698
2.34819e-08
1.57104e-08
0.000524696
4.99048e-09
2.39086e-08
0.000524691
-3.31464e-09
1.38593e-08
0.000524692
1.98426e-08
2.38263e-08
-3.77465e-09
2.1672e-08
0.000428709
1.65838e-09
1.25094e-08
0.000428707
6.07422e-09
1.92471e-08
0.000428704
2.62995e-09
5.69252e-09
0.000428701
-9.51931e-09
1.33013e-08
0.000428701
1.55183e-08
2.89283e-09
0.000428697
-1.1266e-08
1.829e-09
0.000428696
-1.27614e-10
9.16655e-10
0.000428697
1.38444e-08
-8.17109e-09
0.000428693
-2.2455e-08
-5.41824e-09
0.000428697
2.10264e-08
-1.37379e-08
0.000428693
-1.06894e-08
-1.3871e-08
0.000428695
1.94562e-10
-1.62585e-08
0.000428697
9.15976e-09
-2.26734e-08
0.000428696
-5.27254e-09
-1.71514e-08
0.0004287
5.29569e-09
-2.61068e-08
0.000428701
4.7006e-09
-2.20592e-08
0.000428704
3.07036e-09
-2.23974e-08
0.000428706
5.00589e-09
-2.57265e-08
0.000428709
4.62691e-09
-1.94515e-08
0.000428712
1.39186e-08
-2.24188e-08
0.000428714
-5.28033e-09
-1.93264e-08
0.000428718
2.02156e-08
-1.38738e-08
0.00042872
4.64594e-09
-1.85694e-08
0.000428722
3.48869e-09
-6.03185e-09
0.000428725
2.16516e-08
-1.25717e-08
0.000428726
-1.59625e-09
-2.04039e-09
0.000428728
1.66834e-08
-2.11182e-09
0.000428728