/*--------------------------------*- C++ -*----------------------------------*\
  =========                 |
  \\      /  F ield         | OpenFOAM: The Open Source CFD Toolbox
   \\    /   O peration     | Website:  https://openfoam.org
    \\  /    A nd           | Version:  10
     \\/     M anipulation  |
\*---------------------------------------------------------------------------*/
FoamFile
{
    format      ascii;
    class       volVectorField;
    location    "27.5";
    object      UMean;
}
// * * * * * * * * * * * * * * * * * * * * * * * * * * * * * * * * * * * * * //

dimensions      [0 1 -1 0 0 0 0];

internalField   nonuniform List<vector> 
25600
(
(1.08185 9.18143e-10 -3.5117e-07)
(1.08185 5.03232e-08 -2.83875e-07)
(1.08185 2.0216e-07 -3.40575e-07)
(1.08185 1.14787e-07 -3.00512e-07)
(1.08185 2.62179e-07 -3.33929e-07)
(1.08185 2.84941e-07 -3.15638e-07)
(1.08185 2.91468e-07 -3.41204e-07)
(1.08185 4.33492e-07 -3.13547e-07)
(1.08185 3.49822e-07 -3.62477e-07)
(1.08185 4.83851e-07 -3.00293e-07)
(1.08185 4.38058e-07 -3.85222e-07)
(1.08185 4.35073e-07 -2.84077e-07)
(1.08185 5.02915e-07 -3.9453e-07)
(1.08185 3.4065e-07 -2.81011e-07)
(1.08185 5.05156e-07 -3.67829e-07)
(1.08185 2.07519e-07 -3.02207e-07)
(1.08185 4.76525e-07 -3.14644e-07)
(1.08185 5.98419e-08 -3.38393e-07)
(1.08185 3.72328e-07 -2.38656e-07)
(1.08185 2.19786e-09 -3.58695e-07)
(1.08185 1.67618e-07 -1.897e-07)
(1.08185 2.39385e-08 -3.15281e-07)
(1.08185 -3.84831e-08 -2.0257e-07)
(1.08185 4.34407e-08 -2.32418e-07)
(1.08185 -1.31135e-07 -2.22833e-07)
(1.08185 -2.7687e-08 -1.86437e-07)
(1.08185 -1.01256e-07 -2.02156e-07)
(1.08185 -1.1711e-07 -2.03076e-07)
(1.08185 -5.64699e-08 -1.78118e-07)
(1.08185 -1.55981e-07 -2.31488e-07)
(1.08185 -4.79073e-08 -1.96763e-07)
(1.08185 -1.46667e-07 -2.43462e-07)
(1.08185 -7.32157e-08 -2.31261e-07)
(1.08185 -6.63398e-08 -2.78973e-07)
(1.08185 -1.69026e-07 -2.50883e-07)
(1.08185 8.44324e-08 -3.07952e-07)
(1.08185 -2.70083e-07 -2.832e-07)
(1.08185 1.93436e-07 -3.06204e-07)
(1.08185 -2.22727e-07 -3.26008e-07)
(1.08185 1.48492e-07 -2.8015e-07)
(1.08185 1.03168e-07 -4.15566e-07)
(1.08185 1.3727e-07 -2.9788e-07)
(1.08185 2.71007e-07 -3.94063e-07)
(1.08185 2.06109e-07 -3.18655e-07)
(1.08185 3.397e-07 -3.58112e-07)
(1.08185 3.61455e-07 -3.60393e-07)
(1.08185 3.86547e-07 -3.33111e-07)
(1.08185 4.99024e-07 -3.82551e-07)
(1.08185 4.57203e-07 -3.49298e-07)
(1.08185 5.25513e-07 -3.61661e-07)
(1.08185 5.62829e-07 -3.90647e-07)
(1.08185 4.48008e-07 -3.26016e-07)
(1.08185 6.12848e-07 -4.01263e-07)
(1.08185 3.73673e-07 -3.34624e-07)
(1.08185 5.45758e-07 -3.56557e-07)
(1.08185 2.8841e-07 -3.69716e-07)
(1.08185 4.55719e-07 -3.00102e-07)
(1.08185 1.54016e-07 -3.9891e-07)
(1.08185 3.33265e-07 -2.42455e-07)
(1.08185 7.39309e-08 -3.98199e-07)
(1.08185 1.61383e-07 -2.22279e-07)
(1.08185 3.97361e-08 -3.34464e-07)
(1.08185 1.13981e-08 -2.60141e-07)
(1.08185 2.31801e-08 -2.36639e-07)
(1.08185 -7.74955e-08 -2.99766e-07)
(1.08185 -2.07582e-08 -1.87036e-07)
(1.08185 -9.06451e-08 -2.85664e-07)
(1.08185 -5.06363e-08 -2.13897e-07)
(1.08185 -9.37979e-08 -2.51791e-07)
(1.08185 -3.75342e-08 -2.66224e-07)
(1.08185 -7.86208e-08 -2.53305e-07)
(1.08185 -2.09374e-08 -2.94493e-07)
(1.08185 -5.76984e-08 -2.86812e-07)
(1.08185 5.69866e-08 -3.31283e-07)
(1.08185 -1.03514e-07 -3.11726e-07)
(1.08185 1.78864e-07 -3.5826e-07)
(1.08185 -1.38258e-07 -3.48661e-07)
(1.08185 2.36688e-07 -3.44491e-07)
(1.08185 -7.25076e-08 -3.94456e-07)
(1.08185 1.94685e-07 -3.07728e-07)
(1.08185 2.31542e-07 -4.31564e-07)
(1.08185 2.73466e-07 -3.2191e-07)
(1.08185 3.33529e-07 -4.13462e-07)
(1.08185 3.72038e-07 -3.3173e-07)
(1.08185 4.13517e-07 -3.74001e-07)
(1.08185 5.18639e-07 -3.81357e-07)
(1.08185 4.92213e-07 -3.3247e-07)
(1.08185 6.52062e-07 -4.19026e-07)
(1.08185 5.70697e-07 -3.37867e-07)
(1.08185 6.70741e-07 -3.98369e-07)
(1.08185 6.71974e-07 -3.87052e-07)
(1.08185 5.81781e-07 -3.56412e-07)
(1.08185 6.99669e-07 -4.04011e-07)
(1.08185 5.21629e-07 -3.70875e-07)
(1.08185 5.82943e-07 -3.56675e-07)
(1.08185 4.617e-07 -4.07243e-07)
(1.08185 4.46782e-07 -3.02523e-07)
(1.08185 3.32349e-07 -4.2701e-07)
(1.08185 3.09338e-07 -2.54489e-07)
(1.08185 2.25218e-07 -4.1157e-07)
(1.08185 1.75335e-07 -2.52552e-07)
(1.08185 1.16761e-07 -3.32598e-07)
(1.08185 1.04266e-07 -3.01548e-07)
(1.08185 2.53604e-08 -2.28814e-07)
(1.08185 4.72255e-08 -3.44453e-07)
(1.08185 -1.5833e-08 -1.84202e-07)
(1.08185 -6.2453e-09 -3.2845e-07)
(1.08185 9.37451e-09 -2.223e-07)
(1.08185 -6.01944e-08 -2.89746e-07)
(1.08185 7.2984e-08 -2.92349e-07)
(1.08185 -3.45822e-08 -2.79878e-07)
(1.08185 9.13916e-08 -3.36371e-07)
(1.08185 4.55886e-08 -3.11462e-07)
(1.08185 1.54136e-07 -3.72149e-07)
(1.08185 5.97696e-08 -3.41604e-07)
(1.08185 2.42394e-07 -3.93914e-07)
(1.08185 7.99824e-08 -3.84213e-07)
(1.08185 2.57954e-07 -3.78087e-07)
(1.08185 1.45808e-07 -4.23098e-07)
(1.08185 2.50613e-07 -3.44179e-07)
(1.08185 3.95566e-07 -4.1098e-07)
(1.08185 4.38149e-07 -3.26673e-07)
(1.08185 4.52237e-07 -3.91989e-07)
(1.08185 5.53469e-07 -3.1521e-07)
(1.08185 5.5737e-07 -3.64137e-07)
(1.08185 6.86939e-07 -3.59967e-07)
(1.08185 6.63696e-07 -3.25023e-07)
(1.08185 8.21059e-07 -4.05539e-07)
(1.08185 7.24399e-07 -3.17886e-07)
(1.08185 8.6133e-07 -3.94006e-07)
(1.08185 7.86081e-07 -3.58883e-07)
(1.08185 8.03675e-07 -3.59893e-07)
(1.08185 7.78362e-07 -3.76408e-07)
(1.08185 7.63345e-07 -3.7936e-07)
(1.08185 6.33786e-07 -3.37849e-07)
(1.08185 7.00529e-07 -4.07422e-07)
(1.08185 4.77608e-07 -2.97426e-07)
(1.08185 5.57528e-07 -4.17399e-07)
(1.08185 3.31197e-07 -2.61964e-07)
(1.08185 4.2727e-07 -3.94909e-07)
(1.08185 2.18915e-07 -2.6673e-07)
(1.08185 2.72742e-07 -3.12935e-07)
(1.08185 1.93039e-07 -3.12621e-07)
(1.08185 1.24482e-07 -2.16516e-07)
(1.08185 1.60999e-07 -3.48247e-07)
(1.08185 7.05525e-08 -1.75121e-07)
(1.08185 8.94948e-08 -3.27499e-07)
(1.08185 1.18287e-07 -2.12e-07)
(1.08185 1.1385e-08 -2.96029e-07)
(1.08185 2.06196e-07 -2.89105e-07)
(1.08185 5.99151e-08 -2.89197e-07)
(1.08185 2.36291e-07 -3.52178e-07)
(1.08185 2.05189e-07 -3.15362e-07)
(1.08185 2.98001e-07 -3.97445e-07)
(1.08185 2.77095e-07 -3.47725e-07)
(1.08185 3.6355e-07 -4.15334e-07)
(1.08185 3.2791e-07 -3.91452e-07)
(1.08185 3.47157e-07 -3.90133e-07)
(1.08185 3.80448e-07 -4.18863e-07)
(1.08185 3.57054e-07 -3.59118e-07)
(1.08185 5.70759e-07 -3.3556e-07)
(1.08185 6.99911e-07 -3.02137e-07)
(1.08185 6.14099e-07 -3.1522e-07)
(1.08185 8.08874e-07 -2.75276e-07)
(1.08185 7.69619e-07 -3.00683e-07)
(1.08185 9.16982e-07 -3.09494e-07)
(1.08185 9.24799e-07 -2.74735e-07)
(1.08185 1.03578e-06 -3.59533e-07)
(1.08185 9.86211e-07 -2.61131e-07)
(1.08185 1.10418e-06 -3.61707e-07)
(1.08185 1.00918e-06 -2.92082e-07)
(1.08185 1.0985e-06 -3.45007e-07)
(1.08185 9.57913e-07 -3.11157e-07)
(1.08185 1.07396e-06 -3.74169e-07)
(1.08185 7.91748e-07 -2.87781e-07)
(1.08185 9.94928e-07 -3.9628e-07)
(1.08185 6.23555e-07 -2.61115e-07)
(1.08185 8.37981e-07 -3.93827e-07)
(1.08185 4.74789e-07 -2.32412e-07)
(1.08185 6.9822e-07 -3.63661e-07)
(1.08185 3.7105e-07 -2.36786e-07)
(1.08185 5.27737e-07 -2.84069e-07)
(1.08185 3.43854e-07 -2.68865e-07)
(1.08185 3.54015e-07 -2.00221e-07)
(1.08185 2.95201e-07 -2.85913e-07)
(1.08185 2.73511e-07 -1.59114e-07)
(1.08185 1.90152e-07 -2.62879e-07)
(1.08185 2.99349e-07 -1.9002e-07)
(1.08185 1.04714e-07 -2.58212e-07)
(1.08185 3.97242e-07 -2.63717e-07)
(1.08185 1.91844e-07 -2.67096e-07)
(1.08185 4.6595e-07 -3.3873e-07)
(1.08185 3.92659e-07 -2.8476e-07)
(1.08185 5.57711e-07 -4.00099e-07)
(1.08185 5.13279e-07 -3.12715e-07)
(1.08185 6.25905e-07 -4.21637e-07)
(1.08185 5.75997e-07 -3.53754e-07)
(1.08185 5.92793e-07 -3.8693e-07)
(1.08185 6.00202e-07 -3.67464e-07)
(1.08185 6.00442e-07 -3.50802e-07)
(1.08185 7.26495e-07 -1.76741e-07)
(1.08185 1.06928e-06 -1.97148e-07)
(1.08185 7.62644e-07 -1.59047e-07)
(1.08185 1.17472e-06 -1.62718e-07)
(1.08185 9.59201e-07 -1.60135e-07)
(1.08185 1.26561e-06 -1.87837e-07)
(1.08185 1.17075e-06 -1.51232e-07)
(1.08185 1.36821e-06 -2.36998e-07)
(1.08185 1.2532e-06 -1.40261e-07)
(1.08185 1.45459e-06 -2.58236e-07)
(1.08185 1.25208e-06 -1.72559e-07)
(1.08185 1.48067e-06 -2.75301e-07)
(1.08185 1.16887e-06 -1.95254e-07)
(1.08185 1.45104e-06 -3.18703e-07)
(1.08185 1.00305e-06 -1.82575e-07)
(1.08185 1.34816e-06 -3.36297e-07)
(1.08185 8.36717e-07 -1.718e-07)
(1.08185 1.18839e-06 -3.26656e-07)
(1.08185 7.01095e-07 -1.57631e-07)
(1.08185 1.04319e-06 -2.97779e-07)
(1.08185 5.92918e-07 -1.64079e-07)
(1.08185 8.75738e-07 -2.24782e-07)
(1.08185 5.42092e-07 -1.74526e-07)
(1.08185 7.00302e-07 -1.48933e-07)
(1.08185 4.55991e-07 -1.63125e-07)
(1.08185 5.78314e-07 -1.09568e-07)
(1.08185 3.10297e-07 -1.42855e-07)
(1.08185 5.50685e-07 -1.34677e-07)
(1.08185 2.33604e-07 -1.62457e-07)
(1.08185 6.47133e-07 -1.92197e-07)
(1.08185 3.60301e-07 -1.85789e-07)
(1.08185 7.68698e-07 -2.73567e-07)
(1.08185 6.0227e-07 -1.92021e-07)
(1.08185 9.25425e-07 -3.51913e-07)
(1.08185 7.5991e-07 -2.06438e-07)
(1.08185 1.02328e-06 -3.72476e-07)
(1.08185 8.13084e-07 -2.36034e-07)
(1.08185 9.83689e-07 -3.18689e-07)
(1.08185 7.93873e-07 -2.3171e-07)
(1.08185 9.72364e-07 -2.6205e-07)
(1.08185 9.24009e-07 6.04715e-08)
(1.08185 1.54262e-06 -1.97735e-08)
(1.08185 9.47699e-07 9.17348e-08)
(1.08185 1.65381e-06 2.30635e-08)
(1.08185 1.1666e-06 7.56551e-08)
(1.08185 1.73801e-06 -4.56639e-10)
(1.08185 1.40974e-06 6.67096e-08)
(1.08185 1.82858e-06 -4.46975e-08)
(1.08185 1.50681e-06 6.59847e-08)
(1.08185 1.93919e-06 -8.41808e-08)
(1.08185 1.49059e-06 1.77672e-08)
(1.08185 2.00553e-06 -1.47396e-07)
(1.08185 1.38965e-06 -2.61523e-08)
(1.08185 1.9644e-06 -2.20447e-07)
(1.08185 1.23958e-06 -2.68972e-08)
(1.08185 1.84045e-06 -2.45967e-07)
(1.08185 1.08474e-06 -3.14834e-08)
(1.08185 1.68512e-06 -2.37062e-07)
(1.08185 9.66231e-07 -3.33565e-08)
(1.08185 1.53568e-06 -2.00078e-07)
(1.08185 8.5356e-07 -3.30148e-08)
(1.08185 1.37298e-06 -1.20648e-07)
(1.08185 7.60412e-07 -1.01597e-08)
(1.08185 1.19782e-06 -4.42132e-08)
(1.08185 6.27668e-07 4.0667e-08)
(1.08185 1.02531e-06 4.77473e-09)
(1.08185 4.52411e-07 6.68447e-08)
(1.08185 9.25104e-07 -1.09948e-08)
(1.08185 3.86336e-07 1.24682e-08)
(1.08185 9.88299e-07 -6.41523e-08)
(1.08185 5.63148e-07 -3.84604e-08)
(1.08185 1.1761e-06 -1.54601e-07)
(1.08185 8.65554e-07 -3.65318e-08)
(1.08185 1.42244e-06 -2.4957e-07)
(1.08185 1.06314e-06 -3.63952e-08)
(1.08185 1.56436e-06 -2.73431e-07)
(1.08185 1.10471e-06 -5.24038e-08)
(1.08185 1.52437e-06 -1.95617e-07)
(1.08185 1.03611e-06 -2.40153e-08)
(1.08185 1.47047e-06 -1.06156e-07)
(1.08185 1.05743e-06 4.5786e-07)
(1.08185 2.09408e-06 3.3222e-07)
(1.08185 1.09303e-06 4.98091e-07)
(1.08185 2.21801e-06 3.53219e-07)
(1.08185 1.33311e-06 4.53435e-07)
(1.08185 2.2905e-06 3.0336e-07)
(1.08185 1.59821e-06 4.15169e-07)
(1.08185 2.35646e-06 2.56362e-07)
(1.08185 1.7096e-06 3.98399e-07)
(1.08185 2.48561e-06 2.03688e-07)
(1.08185 1.68865e-06 3.20408e-07)
(1.08185 2.58607e-06 8.60933e-08)
(1.08185 1.57505e-06 2.35515e-07)
(1.08185 2.5334e-06 -2.89771e-08)
(1.08185 1.45082e-06 2.0794e-07)
(1.08185 2.41285e-06 -7.37532e-08)
(1.08185 1.32633e-06 1.88012e-07)
(1.08185 2.28025e-06 -5.87575e-08)
(1.08185 1.2211e-06 1.81636e-07)
(1.08185 2.14625e-06 -4.73747e-09)
(1.08185 1.10564e-06 1.90931e-07)
(1.08185 1.99855e-06 8.8009e-08)
(1.08185 9.524e-07 2.57183e-07)
(1.08185 1.82637e-06 1.81789e-07)
(1.08185 7.55566e-07 3.62382e-07)
(1.08185 1.5872e-06 2.35929e-07)
(1.08185 5.30777e-07 3.84961e-07)
(1.08185 1.39612e-06 2.09612e-07)
(1.08185 4.65195e-07 2.90811e-07)
(1.08185 1.43828e-06 1.67634e-07)
(1.08185 7.17416e-07 2.29046e-07)
(1.08185 1.71061e-06 8.35136e-08)
(1.08185 1.09492e-06 2.4993e-07)
(1.08185 2.04964e-06 -7.81141e-09)
(1.08185 1.32224e-06 2.76931e-07)
(1.08185 2.21554e-06 -2.00763e-08)
(1.08185 1.32406e-06 2.818e-07)
(1.08185 2.14941e-06 8.90861e-08)
(1.08185 1.19652e-06 3.37086e-07)
(1.08185 2.04481e-06 2.25813e-07)
(1.08185 1.06212e-06 1.04768e-06)
(1.08185 2.76384e-06 8.7923e-07)
(1.08185 1.10579e-06 1.09507e-06)
(1.08185 2.89472e-06 8.65508e-07)
(1.08185 1.35597e-06 1.02479e-06)
(1.08185 2.96467e-06 7.70837e-07)
(1.08185 1.65023e-06 9.43997e-07)
(1.08185 3.02139e-06 6.99332e-07)
(1.08185 1.78011e-06 8.91954e-07)
(1.08185 3.1563e-06 6.19198e-07)
(1.08185 1.74682e-06 7.579e-07)
(1.08185 3.25133e-06 4.29471e-07)
(1.08185 1.63069e-06 6.09794e-07)
(1.08185 3.20361e-06 2.50757e-07)
(1.08185 1.55327e-06 5.50268e-07)
(1.08185 3.10134e-06 1.81561e-07)
(1.08185 1.47742e-06 5.17428e-07)
(1.08185 3.00946e-06 1.99169e-07)
(1.08185 1.39959e-06 5.04663e-07)
(1.08185 2.89051e-06 2.85152e-07)
(1.08185 1.28365e-06 5.36863e-07)
(1.08185 2.7609e-06 4.15351e-07)
(1.08185 1.07553e-06 6.57273e-07)
(1.08185 2.59519e-06 5.33512e-07)
(1.08185 8.08907e-07 8.13083e-07)
(1.08185 2.27944e-06 5.84066e-07)
(1.08185 4.98943e-07 8.27794e-07)
(1.08185 1.96634e-06 5.4314e-07)
(1.08185 4.28421e-07 7.03758e-07)
(1.08185 2.0109e-06 5.11262e-07)
(1.08185 7.73254e-07 6.27235e-07)
(1.08185 2.39078e-06 4.21927e-07)
(1.08185 1.24284e-06 6.59339e-07)
(1.08185 2.83876e-06 3.28316e-07)
(1.08185 1.49843e-06 7.16199e-07)
(1.08185 3.03272e-06 3.43513e-07)
(1.08185 1.44531e-06 7.60964e-07)
(1.08185 2.92304e-06 5.19608e-07)
(1.08185 1.23942e-06 8.74884e-07)
(1.08185 2.74618e-06 7.46301e-07)
(1.08184 8.10054e-07 1.91833e-06)
(1.08184 3.41242e-06 1.75082e-06)
(1.08184 8.13096e-07 1.96601e-06)
(1.08184 3.5382e-06 1.68611e-06)
(1.08184 1.05664e-06 1.86063e-06)
(1.08184 3.60805e-06 1.53679e-06)
(1.08184 1.36898e-06 1.74289e-06)
(1.08184 3.68467e-06 1.44796e-06)
(1.08184 1.51779e-06 1.64863e-06)
(1.08184 3.82173e-06 1.32066e-06)
(1.08184 1.46466e-06 1.4246e-06)
(1.08184 3.92177e-06 1.03009e-06)
(1.08184 1.40289e-06 1.17306e-06)
(1.08184 3.95225e-06 7.60144e-07)
(1.08184 1.40495e-06 1.07075e-06)
(1.08184 3.87395e-06 6.5924e-07)
(1.08184 1.35335e-06 1.02092e-06)
(1.08184 3.80807e-06 6.80602e-07)
(1.08184 1.29912e-06 1.01371e-06)
(1.08184 3.70158e-06 8.1973e-07)
(1.08184 1.19861e-06 1.09904e-06)
(1.08184 3.59246e-06 1.02635e-06)
(1.08184 9.56596e-07 1.30822e-06)
(1.08184 3.41066e-06 1.1949e-06)
(1.08184 6.20651e-07 1.52191e-06)
(1.08184 3.00284e-06 1.23029e-06)
(1.08184 1.94598e-07 1.50645e-06)
(1.08184 2.56138e-06 1.16316e-06)
(1.08184 1.30623e-07 1.35994e-06)
(1.08184 2.62177e-06 1.14421e-06)
(1.08184 5.70792e-07 1.27267e-06)
(1.08184 3.0934e-06 1.06137e-06)
(1.08184 1.12738e-06 1.33053e-06)
(1.08184 3.63977e-06 9.8401e-07)
(1.08184 1.41815e-06 1.43192e-06)
(1.08184 3.87208e-06 1.02952e-06)
(1.08184 1.32393e-06 1.51313e-06)
(1.08184 3.73598e-06 1.27276e-06)
(1.08184 1.06131e-06 1.69135e-06)
(1.08184 3.47138e-06 1.59089e-06)
(1.08174 5.492e-08 3.18582e-06)
(1.08175 3.87965e-06 3.10026e-06)
(1.08175 3.29577e-08 3.24084e-06)
(1.08175 4.02389e-06 2.9752e-06)
(1.08175 2.6145e-07 3.09921e-06)
(1.08175 4.06312e-06 2.76328e-06)
(1.08174 5.49661e-07 2.93805e-06)
(1.08175 4.15488e-06 2.64578e-06)
(1.08174 7.1166e-07 2.76875e-06)
(1.08175 4.29815e-06 2.44264e-06)
(1.08174 6.51675e-07 2.40436e-06)
(1.08175 4.45123e-06 2.00133e-06)
(1.08174 7.02953e-07 2.00189e-06)
(1.08175 4.61241e-06 1.61309e-06)
(1.08174 8.19396e-07 1.86264e-06)
(1.08175 4.57457e-06 1.49067e-06)
(1.08174 7.59164e-07 1.80936e-06)
(1.08175 4.5044e-06 1.51759e-06)
(1.08174 7.24382e-07 1.82002e-06)
(1.08175 4.41811e-06 1.74418e-06)
(1.08174 6.37991e-07 1.98851e-06)
(1.08175 4.35479e-06 2.05725e-06)
(1.08174 4.08092e-07 2.30712e-06)
(1.08175 4.19039e-06 2.29617e-06)
(1.08174 8.28963e-09 2.57672e-06)
(1.08175 3.64318e-06 2.29834e-06)
(1.08174 -5.87232e-07 2.51821e-06)
(1.08175 3.07191e-06 2.20331e-06)
(1.08174 -6.27054e-07 2.36346e-06)
(1.08175 3.20094e-06 2.20291e-06)
(1.08175 -6.8902e-08 2.27302e-06)
(1.08175 3.7469e-06 2.13025e-06)
(1.08175 5.71328e-07 2.37882e-06)
(1.08175 4.35516e-06 2.09777e-06)
(1.08175 8.59417e-07 2.54057e-06)
(1.08175 4.56194e-06 2.18629e-06)
(1.08174 7.13338e-07 2.6713e-06)
(1.08175 4.41839e-06 2.51708e-06)
(1.08174 4.19766e-07 2.90839e-06)
(1.08175 4.05244e-06 2.92132e-06)
(1.08089 -1.59899e-06 5.07779e-06)
(1.08089 3.80658e-06 5.33799e-06)
(1.08089 -1.59161e-06 5.13567e-06)
(1.08089 4.01323e-06 5.13108e-06)
(1.08089 -1.37605e-06 4.93621e-06)
(1.08089 4.00348e-06 4.82051e-06)
(1.08089 -1.13064e-06 4.70957e-06)
(1.08089 4.12909e-06 4.66512e-06)
(1.08089 -9.43469e-07 4.44264e-06)
(1.08089 4.30102e-06 4.37745e-06)
(1.08089 -1.01305e-06 3.89227e-06)
(1.08089 4.51217e-06 3.73765e-06)
(1.08089 -8.02314e-07 3.2792e-06)
(1.08089 4.82081e-06 3.19392e-06)
(1.08089 -5.74051e-07 3.11758e-06)
(1.08089 4.83455e-06 3.04743e-06)
(1.08089 -6.3501e-07 3.09191e-06)
(1.08089 4.79694e-06 3.10848e-06)
(1.08089 -6.28105e-07 3.14332e-06)
(1.08089 4.72267e-06 3.47303e-06)
(1.08089 -7.25723e-07 3.43905e-06)
(1.08089 4.7138e-06 3.9551e-06)
(1.08089 -8.57852e-07 3.89417e-06)
(1.08089 4.66299e-06 4.27835e-06)
(1.08089 -1.27459e-06 4.23174e-06)
(1.08089 3.90652e-06 4.2348e-06)
(1.08089 -2.14439e-06 4.12386e-06)
(1.08089 3.12766e-06 4.1433e-06)
(1.08089 -2.16583e-06 3.98044e-06)
(1.08089 3.39699e-06 4.16839e-06)
(1.08089 -1.42359e-06 3.86762e-06)
(1.08089 4.06907e-06 4.06633e-06)
(1.08089 -6.81224e-07 4.009e-06)
(1.08089 4.71646e-06 4.06212e-06)
(1.08089 -4.27973e-07 4.25281e-06)
(1.08089 4.8163e-06 4.19864e-06)
(1.08089 -6.65858e-07 4.44405e-06)
(1.08089 4.65806e-06 4.63734e-06)
(1.08089 -1.01952e-06 4.75362e-06)
(1.08089 4.12636e-06 5.1511e-06)
(1.07693 -4.62823e-06 7.65017e-06)
(1.07696 2.74601e-06 8.69491e-06)
(1.07693 -4.59725e-06 7.71467e-06)
(1.07696 3.0166e-06 8.40032e-06)
(1.07693 -4.41885e-06 7.49145e-06)
(1.07695 2.89193e-06 7.98581e-06)
(1.07693 -4.22534e-06 7.20988e-06)
(1.07695 3.11767e-06 7.73759e-06)
(1.07693 -3.99918e-06 6.7866e-06)
(1.07695 3.3345e-06 7.30189e-06)
(1.07693 -4.10346e-06 5.89819e-06)
(1.07695 3.62073e-06 6.39647e-06)
(1.07693 -3.68169e-06 4.99842e-06)
(1.07695 4.14869e-06 5.69851e-06)
(1.07693 -3.35239e-06 4.85753e-06)
(1.07695 4.17938e-06 5.5233e-06)
(1.07693 -3.42074e-06 4.90548e-06)
(1.07695 4.20538e-06 5.60367e-06)
(1.07693 -3.32808e-06 5.05619e-06)
(1.07695 4.16889e-06 6.17025e-06)
(1.07693 -3.40525e-06 5.4912e-06)
(1.07695 4.25012e-06 6.92353e-06)
(1.07693 -3.33159e-06 6.1193e-06)
(1.07695 4.39969e-06 7.36207e-06)
(1.07693 -3.73502e-06 6.52586e-06)
(1.07695 3.32882e-06 7.20215e-06)
(1.07693 -4.96766e-06 6.36361e-06)
(1.07695 2.29492e-06 7.13276e-06)
(1.07693 -4.95008e-06 6.24592e-06)
(1.07696 2.77331e-06 7.2598e-06)
(1.07693 -3.99024e-06 6.06367e-06)
(1.07696 3.59543e-06 7.12492e-06)
(1.07693 -3.14386e-06 6.2671e-06)
(1.07696 4.25472e-06 7.14841e-06)
(1.07693 -2.94878e-06 6.65649e-06)
(1.07696 4.19035e-06 7.28777e-06)
(1.07693 -3.28468e-06 6.89256e-06)
(1.07696 3.98149e-06 7.79032e-06)
(1.07693 -3.74255e-06 7.28316e-06)
(1.07695 3.20773e-06 8.48513e-06)
(1.06656 -9.56153e-06 1.08651e-05)
(1.06661 8.21357e-08 1.33646e-05)
(1.06656 -9.48827e-06 1.09371e-05)
(1.06661 4.23568e-07 1.30868e-05)
(1.06656 -9.48344e-06 1.07237e-05)
(1.06661 7.03169e-08 1.25199e-05)
(1.06657 -9.31522e-06 1.03948e-05)
(1.06661 4.71137e-07 1.21116e-05)
(1.06656 -9.05512e-06 9.83765e-06)
(1.06661 6.63339e-07 1.13937e-05)
(1.06656 -9.25427e-06 8.4525e-06)
(1.06661 1.21932e-06 1.01235e-05)
(1.06656 -8.44834e-06 7.16157e-06)
(1.06661 2.0471e-06 9.37714e-06)
(1.06656 -8.07437e-06 7.02516e-06)
(1.06661 1.97253e-06 9.18465e-06)
(1.06656 -8.13932e-06 7.17144e-06)
(1.06661 2.1255e-06 9.23681e-06)
(1.06656 -7.91783e-06 7.57677e-06)
(1.06661 2.17736e-06 1.00151e-05)
(1.06656 -7.99334e-06 8.20821e-06)
(1.06661 2.37742e-06 1.11395e-05)
(1.06656 -7.59623e-06 8.99163e-06)
(1.06661 2.88005e-06 1.18208e-05)
(1.06656 -7.96725e-06 9.41161e-06)
(1.06661 1.35487e-06 1.14329e-05)
(1.06656 -9.67252e-06 9.225e-06)
(1.06661 5.88287e-08 1.13446e-05)
(1.06657 -9.47077e-06 9.21118e-06)
(1.06661 8.11593e-07 1.16161e-05)
(1.06657 -8.30234e-06 8.8563e-06)
(1.06661 1.71382e-06 1.15535e-05)
(1.06657 -7.3213e-06 9.07565e-06)
(1.06661 2.3502e-06 1.1663e-05)
(1.06656 -7.23417e-06 9.64468e-06)
(1.06661 2.02787e-06 1.17095e-05)
(1.06656 -7.6643e-06 9.97683e-06)
(1.06661 1.78523e-06 1.22181e-05)
(1.06656 -8.26616e-06 1.05033e-05)
(1.06661 6.54902e-07 1.31034e-05)
(1.04756 -1.71457e-05 1.45809e-05)
(1.04764 -4.83423e-06 1.92352e-05)
(1.04756 -1.68771e-05 1.46626e-05)
(1.04764 -4.3698e-06 1.90781e-05)
(1.04756 -1.71746e-05 1.44357e-05)
(1.04764 -5.01597e-06 1.83462e-05)
(1.04756 -1.69534e-05 1.39748e-05)
(1.04764 -4.35204e-06 1.77459e-05)
(1.04756 -1.66765e-05 1.33149e-05)
(1.04764 -4.3309e-06 1.65383e-05)
(1.04756 -1.70795e-05 1.12746e-05)
(1.04764 -3.2673e-06 1.46599e-05)
(1.04756 -1.57446e-05 9.51312e-06)
(1.04764 -2.05759e-06 1.394e-05)
(1.04756 -1.5459e-05 9.35972e-06)
(1.04764 -2.35423e-06 1.38326e-05)
(1.04756 -1.55078e-05 9.48655e-06)
(1.04764 -1.95459e-06 1.39517e-05)
(1.04756 -1.50184e-05 1.0328e-05)
(1.04764 -1.79359e-06 1.49782e-05)
(1.04756 -1.51493e-05 1.13762e-05)
(1.04764 -1.42098e-06 1.64585e-05)
(1.04756 -1.41724e-05 1.24652e-05)
(1.04764 -2.80036e-07 1.75419e-05)
(1.04756 -1.45017e-05 1.27378e-05)
(1.04764 -2.41824e-06 1.69605e-05)
(1.04756 -1.68363e-05 1.24916e-05)
(1.04764 -3.96841e-06 1.68948e-05)
(1.04756 -1.62256e-05 1.28068e-05)
(1.04764 -2.97097e-06 1.71706e-05)
(1.04756 -1.49448e-05 1.22759e-05)
(1.04764 -2.12154e-06 1.7229e-05)
(1.04756 -1.38128e-05 1.24579e-05)
(1.04764 -1.55402e-06 1.76633e-05)
(1.04756 -1.38704e-05 1.30793e-05)
(1.04764 -2.27583e-06 1.75392e-05)
(1.04756 -1.43788e-05 1.3441e-05)
(1.04764 -2.45663e-06 1.79681e-05)
(1.04756 -1.51884e-05 1.42517e-05)
(1.04764 -4.1704e-06 1.8949e-05)
(1.01905 -2.75936e-05 1.86657e-05)
(1.01918 -1.2701e-05 2.6264e-05)
(1.01905 -2.69774e-05 1.88782e-05)
(1.01918 -1.20423e-05 2.63088e-05)
(1.01905 -2.78661e-05 1.86132e-05)
(1.01918 -1.31502e-05 2.52994e-05)
(1.01905 -2.7472e-05 1.79304e-05)
(1.01918 -1.20045e-05 2.4628e-05)
(1.01905 -2.71834e-05 1.72011e-05)
(1.01918 -1.23131e-05 2.27258e-05)
(1.01905 -2.8009e-05 1.42164e-05)
(1.01918 -1.04037e-05 2.00347e-05)
(1.01905 -2.60456e-05 1.20231e-05)
(1.01918 -8.6256e-06 1.94651e-05)
(1.01905 -2.61773e-05 1.19484e-05)
(1.01918 -9.2152e-06 1.93616e-05)
(1.01905 -2.61504e-05 1.19239e-05)
(1.01918 -8.38742e-06 1.97496e-05)
(1.01905 -2.53009e-05 1.33221e-05)
(1.01918 -8.20583e-06 2.11731e-05)
(1.01905 -2.56368e-05 1.48161e-05)
(1.01918 -7.54218e-06 2.30246e-05)
(1.01905 -2.36654e-05 1.6572e-05)
(1.01918 -5.34616e-06 2.45428e-05)
(1.01905 -2.40949e-05 1.66104e-05)
(1.01918 -8.48505e-06 2.36736e-05)
(1.01905 -2.70866e-05 1.61197e-05)
(1.01918 -1.00881e-05 2.39661e-05)
(1.01905 -2.56524e-05 1.69006e-05)
(1.01918 -9.11492e-06 2.4133e-05)
(1.01905 -2.44599e-05 1.62009e-05)
(1.01918 -8.5329e-06 2.41489e-05)
(1.01905 -2.29558e-05 1.6521e-05)
(1.01918 -8.08431e-06 2.50934e-05)
(1.01905 -2.31798e-05 1.70038e-05)
(1.01918 -9.55412e-06 2.47892e-05)
(1.01905 -2.35687e-05 1.71627e-05)
(1.01918 -9.40143e-06 2.5151e-05)
(1.01905 -2.46257e-05 1.84341e-05)
(1.01918 -1.20246e-05 2.60898e-05)
(0.981185 -4.1082e-05 2.25002e-05)
(0.981362 -2.40106e-05 3.39377e-05)
(0.981186 -3.96399e-05 2.30676e-05)
(0.981361 -2.31426e-05 3.42962e-05)
(0.981185 -4.1514e-05 2.26647e-05)
(0.981361 -2.49936e-05 3.27286e-05)
(0.981186 -4.05877e-05 2.17528e-05)
(0.981361 -2.31581e-05 3.21311e-05)
(0.981185 -4.02696e-05 2.10221e-05)
(0.98136 -2.41398e-05 2.91943e-05)
(0.981185 -4.1817e-05 1.66958e-05)
(0.98136 -2.08217e-05 2.55327e-05)
(0.981184 -3.90837e-05 1.41589e-05)
(0.981359 -1.82045e-05 2.53498e-05)
(0.981183 -4.02579e-05 1.4231e-05)
(0.981358 -1.89561e-05 2.49915e-05)
(0.981182 -4.00811e-05 1.40177e-05)
(0.981358 -1.7357e-05 2.59576e-05)
(0.981182 -3.88985e-05 1.62492e-05)
(0.981358 -1.72758e-05 2.78906e-05)
(0.981182 -3.9822e-05 1.80969e-05)
(0.981359 -1.5837e-05 3.03245e-05)
(0.981182 -3.62846e-05 2.08467e-05)
(0.981358 -1.20263e-05 3.23507e-05)
(0.981181 -3.72792e-05 2.06293e-05)
(0.981357 -1.65157e-05 3.09074e-05)
(0.981182 -4.10821e-05 1.9966e-05)
(0.981359 -1.77008e-05 3.19996e-05)
(0.981184 -3.81927e-05 2.1311e-05)
(0.981361 -1.71983e-05 3.20235e-05)
(0.981185 -3.74565e-05 2.01491e-05)
(0.981361 -1.71491e-05 3.18918e-05)
(0.981186 -3.52471e-05 2.09372e-05)
(0.981361 -1.69586e-05 3.34203e-05)
(0.981185 -3.57037e-05 2.11083e-05)
(0.98136 -1.97167e-05 3.27929e-05)
(0.981185 -3.54813e-05 2.07163e-05)
(0.98136 -1.91885e-05 3.33036e-05)
(0.981184 -3.68033e-05 2.25299e-05)
(0.98136 -2.34704e-05 3.40272e-05)
(0.934737 -5.8102e-05 2.5694e-05)
(0.934961 -3.83448e-05 4.15101e-05)
(0.934737 -5.56305e-05 2.7087e-05)
(0.934958 -3.76133e-05 4.23292e-05)
(0.934735 -5.88822e-05 2.63402e-05)
(0.934957 -4.05077e-05 3.98375e-05)
(0.934736 -5.64511e-05 2.53347e-05)
(0.934956 -3.81596e-05 3.9715e-05)
(0.934735 -5.58528e-05 2.4815e-05)
(0.934954 -4.06483e-05 3.51785e-05)
(0.934736 -5.78584e-05 1.87615e-05)
(0.934955 -3.53082e-05 3.06453e-05)
(0.934736 -5.42271e-05 1.63605e-05)
(0.934955 -3.19608e-05 3.15276e-05)
(0.934735 -5.71373e-05 1.65466e-05)
(0.934956 -3.27622e-05 3.06528e-05)
(0.934737 -5.641e-05 1.62043e-05)
(0.934959 -2.9877e-05 3.28564e-05)
(0.934738 -5.47591e-05 1.96968e-05)
(0.93496 -3.0183e-05 3.52041e-05)
(0.934739 -5.70164e-05 2.18621e-05)
(0.934964 -2.71948e-05 3.85837e-05)
(0.934741 -5.12613e-05 2.60711e-05)
(0.934965 -2.10862e-05 4.12452e-05)
(0.934739 -5.37821e-05 2.52159e-05)
(0.934965 -2.68995e-05 3.8745e-05)
(0.934741 -5.8739e-05 2.45174e-05)
(0.934969 -2.67547e-05 4.10676e-05)
(0.934744 -5.41017e-05 2.6522e-05)
(0.93497 -2.73504e-05 4.06702e-05)
(0.934744 -5.44485e-05 2.43155e-05)
(0.934971 -2.78521e-05 4.04225e-05)
(0.934744 -5.09672e-05 2.5854e-05)
(0.934969 -2.80299e-05 4.23669e-05)
(0.934741 -5.18372e-05 2.52548e-05)
(0.934967 -3.26095e-05 4.09743e-05)
(0.93474 -5.0394e-05 2.39602e-05)
(0.934964 -3.17219e-05 4.18259e-05)
(0.934737 -5.20968e-05 2.63535e-05)
(0.934961 -3.82669e-05 4.19338e-05)
(0.880881 -7.8844e-05 2.83531e-05)
(0.881158 -5.52516e-05 4.93044e-05)
(0.880883 -7.46426e-05 3.1953e-05)
(0.881157 -5.4534e-05 5.10645e-05)
(0.880884 -8.03627e-05 3.06016e-05)
(0.88116 -5.84651e-05 4.71913e-05)
(0.88089 -7.51912e-05 3.00358e-05)
(0.88116 -5.60003e-05 4.83376e-05)
(0.880893 -7.40823e-05 2.99078e-05)
(0.881161 -6.12116e-05 4.0938e-05)
(0.8809 -7.57574e-05 2.13588e-05)
(0.881165 -5.30131e-05 3.55889e-05)
(0.880905 -7.10787e-05 1.97353e-05)
(0.881165 -4.90678e-05 3.80867e-05)
(0.880908 -7.68774e-05 1.91889e-05)
(0.881167 -5.04017e-05 3.55595e-05)
(0.880912 -7.52605e-05 1.87867e-05)
(0.881169 -4.60904e-05 3.96875e-05)
(0.880914 -7.27929e-05 2.36441e-05)
(0.88117 -4.76199e-05 4.15231e-05)
(0.880916 -7.67623e-05 2.54028e-05)
(0.881173 -4.22442e-05 4.61782e-05)
(0.880917 -6.79492e-05 3.17152e-05)
(0.88117 -3.33614e-05 4.93995e-05)
(0.88091 -7.35144e-05 2.9215e-05)
(0.881167 -4.03027e-05 4.50197e-05)
(0.880909 -7.97826e-05 2.89315e-05)
(0.881169 -3.73707e-05 4.95208e-05)
(0.880906 -7.37289e-05 3.17774e-05)
(0.881167 -4.01163e-05 4.795e-05)
(0.880901 -7.56044e-05 2.76357e-05)
(0.881165 -4.09076e-05 4.81236e-05)
(0.880896 -7.04917e-05 3.07532e-05)
(0.881161 -4.15683e-05 5.07415e-05)
(0.880889 -7.25286e-05 2.8653e-05)
(0.881159 -4.84143e-05 4.80606e-05)
(0.880885 -6.85932e-05 2.64983e-05)
(0.881157 -4.6834e-05 5.04509e-05)
(0.88088 -7.08594e-05 2.99045e-05)
(0.881155 -5.64047e-05 4.9497e-05)
(0.821031 -9.98257e-05 2.89097e-05)
(0.82134 -7.50523e-05 5.60972e-05)
(0.821034 -9.61732e-05 3.62789e-05)
(0.821347 -7.4726e-05 5.79144e-05)
(0.821036 -0.000106317 2.9727e-05)
(0.821357 -7.93114e-05 5.00016e-05)
(0.821042 -9.81067e-05 3.13498e-05)
(0.821362 -7.73767e-05 5.47305e-05)
(0.821043 -9.59491e-05 3.17395e-05)
(0.821364 -8.72372e-05 3.99843e-05)
(0.821051 -9.64305e-05 1.9159e-05)
(0.821369 -7.56478e-05 3.42564e-05)
(0.821056 -9.03755e-05 2.12742e-05)
(0.821365 -6.96959e-05 3.89522e-05)
(0.821059 -9.96723e-05 1.71025e-05)
(0.821363 -7.1215e-05 3.33585e-05)
(0.821064 -9.72073e-05 1.91252e-05)
(0.821356 -6.50894e-05 4.41757e-05)
(0.821063 -9.32423e-05 2.64946e-05)
(0.821346 -6.98318e-05 4.30487e-05)
(0.821064 -9.78485e-05 2.66823e-05)
(0.82134 -6.06443e-05 5.1413e-05)
(0.82106 -8.35129e-05 3.87138e-05)
(0.821327 -4.90929e-05 5.5964e-05)
(0.821047 -9.30286e-05 3.21972e-05)
(0.821318 -5.69445e-05 4.79898e-05)
(0.821044 -0.000100731 3.50418e-05)
(0.821318 -4.78394e-05 5.83405e-05)
(0.82104 -9.38682e-05 3.93653e-05)
(0.821313 -5.32163e-05 5.25691e-05)
(0.821036 -9.78694e-05 3.09175e-05)
(0.821313 -5.31513e-05 5.48679e-05)
(0.821032 -9.07664e-05 3.8163e-05)
(0.82131 -5.42839e-05 5.85694e-05)
(0.821027 -9.49481e-05 3.23353e-05)
(0.821315 -6.50206e-05 5.27086e-05)
(0.821028 -8.71461e-05 2.99449e-05)
(0.821321 -6.38021e-05 6.08441e-05)
(0.821025 -8.98986e-05 3.4134e-05)
(0.821328 -7.90541e-05 5.59186e-05)
(0.756625 -0.000118713 6.21281e-06)
(0.756919 -9.39162e-05 4.95188e-05)
(0.756627 -0.000111685 2.6164e-05)
(0.756923 -9.29311e-05 5.31428e-05)
(0.75662 -0.000128067 9.34475e-06)
(0.75694 -9.42469e-05 3.45548e-05)
(0.756621 -0.000117617 1.93988e-05)
(0.756947 -9.30415e-05 5.50211e-05)
(0.756616 -0.000114595 2.24738e-05)
(0.756953 -0.00011007 2.48439e-05)
(0.75662 -0.000111581 -5.67954e-07)
(0.756957 -9.70791e-05 2.45165e-05)
(0.756615 -0.000105557 1.69603e-05)
(0.756953 -9.10809e-05 3.49547e-05)
(0.756595 -0.000118453 7.0427e-06)
(0.756943 -8.93415e-05 2.00451e-05)
(0.756584 -0.000113818 1.58595e-05)
(0.756931 -7.99696e-05 5.06411e-05)
(0.756575 -0.00010795 2.85874e-05)
(0.756908 -8.9701e-05 4.11299e-05)
(0.756578 -0.000114616 1.85705e-05)
(0.756894 -7.6679e-05 5.47439e-05)
(0.756584 -9.36658e-05 5.06634e-05)
(0.756871 -6.29756e-05 5.77164e-05)
(0.756577 -0.00010812 3.04171e-05)
(0.756859 -7.13015e-05 3.47588e-05)
(0.756583 -0.000118307 3.74277e-05)
(0.756861 -5.6121e-05 6.01522e-05)
(0.756585 -0.000111454 4.21065e-05)
(0.756857 -6.508e-05 4.14377e-05)
(0.756587 -0.000117864 1.93838e-05)
(0.756868 -6.47473e-05 5.16756e-05)
(0.756597 -0.000108906 4.07798e-05)
(0.756871 -6.52093e-05 5.39889e-05)
(0.756604 -0.000116525 1.75407e-05)
(0.756883 -7.6974e-05 3.45897e-05)
(0.756618 -0.000105011 1.84749e-05)
(0.756896 -7.7721e-05 5.91653e-05)
(0.756618 -0.000106984 2.23288e-05)
(0.7569 -0.000100047 4.21914e-05)
(0.688975 -0.000123777 -5.72973e-05)
(0.689223 -0.000105068 1.46828e-05)
(0.688969 -0.00011815 6.77246e-06)
(0.689233 -0.000103663 2.12253e-05)