/*--------------------------------*- C++ -*----------------------------------*\
  =========                 |
  \\      /  F ield         | OpenFOAM: The Open Source CFD Toolbox
   \\    /   O peration     | Website:  https://openfoam.org
    \\  /    A nd           | Version:  10
     \\/     M anipulation  |
\*---------------------------------------------------------------------------*/
FoamFile
{
    format      ascii;
    class       surfaceScalarField;
    location    "2.5";
    object      phi;
}
// * * * * * * * * * * * * * * * * * * * * * * * * * * * * * * * * * * * * * //

dimensions      [0 3 -1 0 0 0 0];

internalField   nonuniform List<scalar> 
74080
(
9.76411e-06
2.05619e-08
-3.47212e-09
9.74472e-06
5.09759e-09
-9.69803e-09
9.7678e-06
-7.78892e-09
-1.36954e-08
9.80232e-06
7.15771e-09
-3.71698e-08
9.80874e-06
5.6082e-08
-2.99425e-08
9.77407e-06
2.92285e-08
2.62592e-10
9.76466e-06
2.5441e-09
-4.69329e-08
9.79734e-06
-1.73077e-08
-1.3627e-08
9.83064e-06
1.31743e-08
-2.02518e-08
9.81928e-06
3.40299e-08
-1.65989e-08
9.77738e-06
6.93463e-09
-6.12259e-09
9.78528e-06
2.23381e-09
-4.45834e-08
9.82643e-06
-1.52786e-08
-5.63632e-08
9.85863e-06
-9.11829e-09
-2.08097e-08
9.84683e-06
2.92912e-08
-1.37858e-08
9.80391e-06
-2.3199e-08
4.65578e-08
9.80205e-06
4.2253e-09
1.97146e-08
9.80294e-06
-1.86682e-08
1.0511e-08
9.82073e-06
-9.3543e-09
-1.59445e-08
9.83692e-06
4.27541e-08
-3.66992e-08
9.80514e-06
1.98861e-08
-3.1915e-08
9.79436e-06
-1.78793e-08
-1.10981e-08
9.82901e-06
-2.49179e-08
-4.18106e-09
9.85809e-06
-1.09348e-08
-2.84722e-09
9.83359e-06
2.29152e-08
2.02045e-08
9.77002e-06
1.05844e-08
3.79058e-08
9.7588e-06
-2.12564e-08
-1.43597e-09
9.80658e-06
-2.03272e-08
-1.91841e-08
9.82806e-06
1.33289e-08
-3.97021e-08
9.81545e-06
4.35245e-08
-6.56933e-08
9.76872e-06
2.5062e-08
-2.75435e-08
9.75939e-06
-1.45441e-08
-4.52947e-08
9.79544e-06
-1.13233e-08
-1.21266e-08
9.8301e-06
3.4382e-09
-4.95165e-09
9.81703e-06
2.42348e-08
-1.48727e-08
9.77007e-06
1.74302e-08
3.6469e-08
9.75352e-06
-1.53614e-08
2.28331e-09
9.77673e-06
1.11067e-08
-1.83616e-08
9.7996e-06
1.41056e-08
-4.25725e-08
3.66837e-08
-9.7438e-09
3.28121e-05
5.59407e-08
-1.07706e-08
3.2744e-05
3.24641e-08
-1.67464e-08
3.28019e-05
6.52727e-09
-4.22815e-08
3.29087e-05
6.6208e-08
-1.4122e-07
3.29522e-05
1.80332e-07
-8.27821e-08
3.28487e-05
7.63488e-08
2.83715e-09
3.28047e-05
3.27442e-08
-1.51396e-07
3.28995e-05
-3.18947e-08
-4.1991e-08
3.30098e-05
6.41623e-08
-7.75727e-08
3.2993e-05
8.67103e-08
-4.58524e-08
3.28551e-05
1.48696e-08
-2.24889e-08
3.28701e-05
3.69674e-08
-1.47291e-07
3.29996e-05
-3.05836e-08
-1.72242e-07
3.31047e-05
-2.08311e-08
-6.98391e-08
3.30946e-05
5.96643e-08
-4.12315e-08
3.29415e-05
-9.36021e-08
1.43073e-07
3.29303e-05
3.66452e-08
6.7043e-08
3.29345e-05
-6.30805e-08
3.71378e-08
3.29706e-05
1.04599e-08
-6.93315e-08
3.304e-05
1.4585e-07
-1.29562e-07
3.29559e-05
3.40067e-08
-1.0796e-07
3.2907e-05
-5.66918e-08
-2.11569e-08
3.30069e-05
-5.75243e-08
-1.45262e-08
3.31084e-05
-3.87496e-08
-1.77053e-08
3.30434e-05
3.96575e-08
7.58644e-08
3.28402e-05
1.04059e-08
1.16881e-07
3.27821e-05
-3.51624e-08
-7.93574e-09
3.29264e-05
-2.45986e-08
-8.11993e-08
3.30038e-05
5.3999e-08
-1.32717e-07
3.29782e-05
1.28417e-07
-1.97953e-07
3.28307e-05
6.62581e-08
-7.60048e-08
3.27849e-05
-1.62612e-08
-1.45745e-07
3.28957e-05
-5.84087e-10
-3.50492e-08
3.30126e-05
2.02223e-08
-3.35479e-08
3.29841e-05
6.64432e-08
-5.15912e-08
3.28376e-05
4.05611e-08
1.11446e-07
3.27591e-05
-2.05124e-08
3.91847e-09
3.28282e-05
8.38591e-08
-6.77103e-08
3.29143e-05
5.56506e-08
-1.45182e-07
1.16157e-07
-1.99798e-08
6.17436e-05
8.42447e-08
-1.52076e-08
6.15983e-05
9.0439e-08
4.80393e-09
6.16672e-05
8.3377e-08
-5.89463e-08
6.18573e-05
2.17267e-07
-2.9731e-07
6.19835e-05
3.54422e-07
-1.70572e-07
6.18153e-05
1.02233e-07
2.67768e-08
6.17017e-05
9.98804e-08
-2.50572e-07
6.18451e-05
2.11919e-09
-8.31195e-08
6.20588e-05
1.81654e-07
-1.80249e-07
6.20747e-05
1.33491e-07
-9.84429e-08
6.18217e-05
2.93539e-09
-2.83842e-08
6.18129e-05
1.23282e-07
-2.40572e-07
6.20332e-05
-8.71085e-09
-3.08548e-07
6.2239e-05
-1.05305e-08
-1.61215e-07
6.22748e-05
5.65822e-08
-1.07168e-07
6.19845e-05
-2.28119e-07
2.429e-07
6.19418e-05
1.13322e-07
1.48158e-07
6.19425e-05
-1.1547e-07
8.65837e-08
6.19814e-05
9.5119e-08
-1.47706e-07
6.21383e-05
3.02082e-07
-2.59617e-07
6.20179e-05
1.10032e-08
-2.04751e-07
6.18977e-05
-1.13169e-07
-1.58959e-08
6.20496e-05
-5.34409e-08
-2.58377e-08
6.22547e-05
-5.88541e-08
-7.65683e-08
6.21831e-05
1.61031e-08
1.18335e-07
6.18172e-05
-3.78546e-08
2.22269e-07
6.1653e-05
-5.05787e-09
1.41942e-08
6.18885e-05
4.50942e-08
-1.58194e-07
6.20533e-05
1.3837e-07
-2.60049e-07
6.20472e-05
2.28511e-07
-3.63757e-07
6.17862e-05
9.42947e-08
-1.18731e-07
6.16609e-05
1.7609e-08
-2.46498e-07
6.18384e-05
8.19882e-08
-7.01593e-08
6.20685e-05
7.52949e-08
-9.93203e-08
6.20576e-05
1.08549e-07
-1.30757e-07
6.18025e-05
4.05329e-08
1.94255e-07
6.16125e-05
4.12134e-09
3.7907e-08
6.17131e-05
2.62922e-07
-1.20151e-07
6.189e-05
1.45343e-07
-3.01811e-07
2.24907e-07
-5.76311e-08
9.76218e-05
8.1995e-08
-3.08467e-08
9.73563e-05
1.71577e-07
7.46989e-08
9.73839e-05
2.49938e-07
-1.20478e-08
9.76576e-05
5.15148e-07
-5.14048e-07
9.79403e-05
5.93433e-07
-3.61908e-07
9.77393e-05
7.33785e-08
6.85843e-08
9.75018e-05
1.86254e-07
-3.05994e-07
9.76475e-05
1.26303e-07
-1.23361e-07
9.79938e-05
4.22397e-07
-3.53879e-07
9.81178e-05
1.76547e-07
-2.27049e-07
9.77444e-05
-6.46696e-08
-2.15731e-08
9.76501e-05
2.56687e-07
-2.78497e-07
9.79386e-05
9.68871e-08
-4.523e-07
9.828e-05
7.56224e-08
-3.26327e-07
9.84436e-05
1.87648e-08
-2.7502e-07
9.80051e-05
-4.60753e-07
3.10114e-07
9.78853e-05
2.35716e-07
2.88118e-07
9.78647e-05
-1.49792e-07
2.01357e-07
9.78799e-05
2.77931e-07
-2.36811e-07
9.81682e-05
5.31086e-07
-4.52437e-07
9.80546e-05
-6.65582e-08
-3.47514e-07
9.78163e-05
-2.05335e-07
8.99979e-09
9.79746e-05
2.79618e-08
-1.16119e-08
9.83206e-05
-1.40429e-08
-2.10653e-07
9.83206e-05
-4.7178e-08
8.56011e-08
9.77877e-05
-1.86691e-07
3.51828e-07
9.74162e-05
4.76103e-08
1.45141e-07
9.77014e-05
2.49146e-07
-2.1104e-07
9.7996e-05
3.14961e-07
-4.3414e-07
9.80782e-05
3.43167e-07
-6.08061e-07
9.77087e-05
7.2653e-08
-1.65795e-07
9.74316e-05
7.65593e-08
-3.18204e-07
9.76332e-05
2.86465e-07
-1.11371e-07
9.8014e-05
2.26165e-07
-2.15397e-07
9.80907e-05
1.63591e-07
-3.10166e-07
9.77385e-05
-1.48679e-08
2.58557e-07
9.73653e-05
4.87949e-08
1.46621e-07
9.74479e-05
5.88902e-07
-1.29462e-07
9.77456e-05
3.3191e-07
-5.40002e-07
3.68673e-07
-1.84104e-07
0.000141501
3.58091e-08
-1.28006e-07
0.000141071
2.39184e-07
1.92296e-07
0.000140965
5.09104e-07
1.90955e-07
0.000141287
1.0278e-06
-7.4398e-07
0.000141825
9.666e-07
-7.60075e-07
0.000141677
-2.35162e-08
6.60158e-08
0.000141256
2.35943e-07
-2.76429e-07
0.000141307
3.51089e-07
-9.24147e-08
0.000141792
8.72633e-07
-5.8928e-07
0.000142146
2.77382e-07
-5.23323e-07
0.000141688
-2.28762e-07
-5.20615e-08
0.000141419
3.89701e-07
-2.1041e-07
0.000141708
3.22098e-07
-5.34287e-07
0.000142203
3.30331e-07
-5.59976e-07
0.000142627
5.14717e-09
-6.29067e-07
0.000142069
-8.25939e-07
2.42553e-07
0.000141805
3.74076e-07
4.83092e-07
0.000141731
-1.44496e-07
4.63294e-07
0.000141671
5.88812e-07
-2.7446e-07
0.000142134
8.88911e-07
-7.39702e-07
0.000142116
-1.84608e-07
-6.0409e-07
0.000141713
-3.79913e-07
3.84573e-08
0.000141783
1.97475e-07
1.03518e-07
0.000142288
1.91342e-07
-4.15e-07
0.000142492
-8.96599e-08
-1.16691e-07
0.000141845
-4.85647e-07
4.3183e-07
0.000141129
4.66752e-08
4.33826e-07
0.000141356
6.24956e-07
-1.37857e-07
0.000141813
6.8668e-07
-6.2774e-07
0.000142097
5.21853e-07
-1.00093e-06
0.000141672
-2.89783e-08
-2.77063e-07
0.000141149
1.00713e-07
-3.29135e-07
0.000141274
6.38997e-07
-1.07341e-07
0.000141825
5.66214e-07
-3.57332e-07
0.000142103
3.032e-07
-6.70253e-07
0.000141716
-1.4272e-07
2.09319e-07
0.000141077
6.28825e-08
3.54232e-07
0.000141038
1.06784e-06
1.81828e-08
0.000141468
6.92868e-07
-8.38409e-07
6.00431e-07
-4.93352e-07
0.000194426
-2.6502e-08
-4.74383e-07
0.000193818
2.33726e-07
2.57917e-07
0.000193448
8.0562e-07
6.77359e-07
0.000193706
1.80494e-06
-7.96465e-07
0.000194596
1.60911e-06
-1.44836e-06
0.00019467
-1.29044e-07
-1.74678e-07
0.00019404
1.64369e-07
-1.90312e-07
0.000193839
6.09962e-07
1.50394e-07
0.000194401
1.61723e-06
-7.60781e-07
0.000195138
5.82588e-07
-1.07838e-06
0.000194718
-4.92404e-07
-2.85303e-07
0.000194186
4.26579e-07
-5.17416e-08
0.00019434
6.19492e-07
-4.15482e-07
0.000194944
8.59879e-07
-7.43441e-07
0.000195802
1.66351e-07
-1.22386e-06
0.000195235
-1.30067e-06
-1.74837e-07
0.000194757
4.61858e-07
6.19888e-07
0.000194582
-1.07437e-07
9.71002e-07
0.000194355
1.042e-06
-9.13102e-08
0.000195008
1.46713e-06
-1.10866e-06
0.000195232
-2.68435e-07
-1.10284e-06
0.000194659
-6.96981e-07
-2.78161e-08
0.000194486
4.11755e-07
4.20315e-07
0.0001951
6.59597e-07
-5.627e-07
0.000195679
7.97212e-08
-6.18782e-07
0.000195086
-9.21079e-07
2.52799e-07
0.000193894
-1.54779e-07
8.49674e-07
0.000193857
1.12895e-06
2.37451e-07
0.00019445
1.36371e-06
-6.94666e-07
0.000195086
8.90759e-07
-1.59479e-06
0.000194748
-1.91208e-07
-6.10775e-07
0.000193899
-1.99407e-08
-3.04787e-07
0.000193769
1.0869e-06
5.46569e-08
0.000194447
1.19347e-06
-3.93545e-07
0.000195064
6.78709e-07
-1.25838e-06
0.000194797
-2.80868e-07
-1.74853e-07
0.000193837
-3.80874e-08
5.81096e-07
0.000193506
1.65236e-06
4.72402e-07
0.000194022
1.3033e-06
-1.03646e-06
1.04012e-06
-1.06528e-06
0.000257284
9.51553e-09
-1.30576e-06
0.000256572
1.14965e-07
-5.22947e-08
0.000255803
9.9574e-07
1.48164e-06
0.000255774
2.80733e-06
-2.60541e-07
0.000257035
2.69242e-06
-2.3051e-06
0.00025759
-1.01327e-07
-9.14998e-07
0.00025684
-8.07871e-08
-2.97733e-07
0.000256197
7.56139e-07
6.91759e-07
0.000256638
2.65002e-06
-5.23447e-07
0.000257883
1.29457e-06
-1.81925e-06
0.000257745
-7.36823e-07
-1.01542e-06
0.000256934
2.7458e-07
-3.89701e-08
0.000256762
8.39172e-07
3.95987e-08
0.000257302
1.70121e-06
-5.60936e-07
0.00025875
7.04282e-07
-1.9234e-06
0.000258408
-1.80707e-06
-1.12536e-06
0.00025769
4.43922e-07
3.55582e-07
0.000257361
-1.03781e-07
1.70955e-06
0.000256832
1.60753e-06
6.28762e-07
0.000257604
2.36999e-06
-1.36469e-06
0.000258268
-1.58442e-07
-1.98343e-06
0.000257621
-1.17472e-06
-4.77766e-07
0.000257023
5.25566e-07
9.91631e-07
0.000257564
1.40588e-06
-3.13994e-07
0.000258656
6.91044e-07
-1.29717e-06
0.000258445
-1.31333e-06
-5.30766e-07
0.000256753
-7.08411e-07
1.09698e-06
0.00025615
1.57528e-06
1.05715e-06
0.000256719
2.38642e-06
-2.71963e-07
0.000257834
1.63679e-06
-2.26802e-06
0.000257851
-2.83315e-07
-1.40838e-06
0.000256695
-3.93385e-07
-4.54785e-07
0.000256067
1.48727e-06
4.27211e-07
0.000256693
2.11635e-06
-7.48033e-09
0.000257756
1.48507e-06
-1.92708e-06
0.000257875
-3.12957e-07
-1.09671e-06
0.000256653
-3.12415e-07
4.96239e-07
0.000255812
2.19772e-06
1.32611e-06
0.000256251
2.19408e-06
-7.37231e-07
1.84919e-06
-1.79734e-06
0.000330605
3.59192e-07
-2.66262e-06
0.000330009
-6.72064e-08
-1.30914e-06
0.000328797
9.07357e-07
2.19159e-06
0.000328146
3.82471e-06
1.36322e-06
0.000329605
4.31682e-06
-2.70236e-06
0.000330932
3.39441e-07
-2.32636e-06
0.000330344
-4.43013e-07
-1.14959e-06
0.000329142
5.82354e-07
1.32075e-06
0.000329099
3.73529e-06
6.44297e-07
0.000330816
2.60846e-06
-2.21207e-06
0.000331309
-6.83527e-07
-2.41195e-06
0.000330377
-5.02797e-08
-7.35935e-07
0.00032971
8.2956e-07
5.76985e-07
0.000329835
2.69836e-06
4.24224e-07
0.000331883
1.87673e-06
-2.1589e-06
0.000332123
-2.06041e-06
-2.65617e-06
0.000331253
2.75791e-07
-8.93076e-07
0.000330756
-2.51935e-07
2.2532e-06
0.000329767
2.17127e-06
2.20641e-06
0.000330445
3.64018e-06
-9.37648e-07
0.000331721
3.63318e-07
-3.14961e-06
0.000331263
-1.70271e-06
-1.81224e-06
0.000330129
3.69288e-07
1.48784e-06
0.000330247
2.22152e-06
8.07556e-07
0.000331815
1.91226e-06
-1.59997e-06
0.000332447
-1.35422e-06
-2.03027e-06
0.000330489
-1.60829e-06
4.82495e-07
0.000329014
1.66778e-06
2.07589e-06
0.000329199
3.58765e-06
1.14427e-06
0.000330774
2.84725e-06
-2.45368e-06
0.000331514
-2.94749e-08
-2.77353e-06
0.000330277
-1.02109e-06
-1.25555e-06
0.000328939
1.63618e-06
8.03456e-07
0.000329157
3.14094e-06
1.19992e-06
0.000330607
2.85424e-06
-2.08154e-06
0.000331454
5.34925e-08
-2.66284e-06
0.000330237
-6.80122e-07
-5.45657e-07
0.000328722
2.50385e-06
2.25863e-06
0.000328772
3.16321e-06
6.32302e-07
3.1146e-06
-2.1179e-06
0.000414278
1.23253e-06
-3.82243e-06
0.000414169
-8.84275e-08
-3.97774e-06
0.000412703
5.0252e-07
1.64922e-06
0.000411107
4.46839e-06
4.02057e-06
0.0004123
6.26458e-06
-1.43251e-06
0.000414527
1.43549e-06
-3.78318e-06
0.000414589
-6.2385e-07
-3.37903e-06
0.00041297
-3.33171e-09
1.06367e-06
0.000412006
4.45928e-06
2.79582e-06
0.000413838
4.38093e-06
-1.134e-06
0.000415259
-1.34338e-08
-3.9083e-06
0.000414605
-2.99844e-07
-2.76379e-06
0.000413475
3.91571e-07
3.53159e-07
0.00041272
3.4708e-06
2.22739e-06
0.000415056
3.58834e-06
-9.03164e-07
0.00041623
-1.70254e-06
-3.9896e-06
0.000415475
1.56001e-07
-3.56808e-06
0.000414917
-6.42541e-07
1.50685e-06
0.000413372
2.47211e-06
4.44867e-06
0.000413575
5.13731e-06
1.04356e-06
0.000415461
1.4417e-06
-3.79381e-06
0.000415602
-2.01034e-06
-4.35448e-06
0.000414064
-1.00707e-07
9.21672e-07
0.000413339
2.78334e-06
2.70859e-06
0.000414989
3.56304e-06
-4.10566e-07
0.000416857
-6.51257e-07
-3.66922e-06
0.000415235
-2.50833e-06
-1.75708e-06
0.000412811
1.25403e-06
2.23567e-06
0.000412099
4.59074e-06
3.56949e-06
0.000413798
4.45804e-06
-1.04518e-06
0.000415561
8.57325e-07
-4.09791e-06
0.000414747
-1.66345e-06
-3.21369e-06
0.000412719
1.28982e-06
3.21022e-07
0.000412064
3.83579e-06
3.2036e-06
0.000413533
4.64435e-06
-6.44192e-07
0.000415344
1.06485e-06
-4.11876e-06
0.00041465
-8.69072e-07
-3.08431e-06
0.000412536
2.48802e-06
2.1492e-06
0.00041181
3.91365e-06
3.0494e-06
4.7406e-06
-9.16611e-07
0.000507236
2.55208e-06
-2.9483e-06
0.000507975
3.4021e-07
-7.20585e-06
0.000506763
-1.1272e-07
-1.47594e-06
0.000504206
4.39397e-06
6.12744e-06
0.000504451
7.87074e-06
2.37695e-06
0.000507265
3.03308e-06
-3.38711e-06
0.000508452
-2.82137e-07
-6.43756e-06
0.000506979
-8.48898e-07
-1.40812e-06
0.000504898
4.37242e-06
4.69626e-06
0.000506135
5.95101e-06
2.2705e-06
0.000508413
1.27279e-06
-3.68773e-06
0.00050856
-3.92634e-08
-5.69862e-06
0.000507385
-3.42558e-07
-1.89956e-06
0.000505469
3.59443e-06
3.62766e-06
0.000507379
5.22136e-06
2.44628e-06
0.000509543
-6.46074e-07
-3.30526e-06
0.000509288
4.5798e-07
-6.78307e-06
0.00050896
-1.29547e-06
-1.6713e-06
0.000506995
2.2671e-06
5.78477e-06
0.000506295
6.41016e-06
4.92129e-06
0.000508425
2.92892e-06
-2.23017e-06
0.000509513
-1.79699e-06
-7.21189e-06
0.000508081
-7.62113e-07
-1.88656e-06
0.000506335
2.70768e-06
4.13789e-06
0.000507302
4.96421e-06
3.01784e-06
0.000510325
7.7004e-07
-3.49911e-06
0.000509869
-2.91443e-06
-5.1094e-06
0.000506945
3.12854e-07
-1.4645e-08
0.000504967
4.91066e-06
5.68026e-06
0.000506081
5.84601e-06
2.71306e-06
0.000508772
2.35711e-06
-3.62743e-06
0.000509014
-1.91201e-06
-5.83617e-06
0.000506768
6.07847e-07
-2.15214e-06
0.000504967
3.77197e-06
4.68071e-06
0.000505759
6.21013e-06
3.00831e-06
0.000508356
2.59401e-06
-3.56536e-06
0.000508771
-5.43633e-07
-6.40884e-06
0.000506564
2.25065e-06
-4.09005e-07
0.000504865
4.03985e-06
5.22266e-06
6.18762e-06
2.5678e-06
0.000607117
3.76394e-06
1.35495e-06
0.000608671
1.19209e-06
-7.92299e-06
0.000608358
-5.64402e-07
-6.57146e-06
0.00060545
3.6055e-06
4.93779e-06
0.00060431
8.4443e-06
6.81148e-06
0.000606822
4.44427e-06
5.06926e-07
0.000609098
5.32657e-07
-7.50133e-06
0.000608577
-1.37015e-06
-5.98709e-06
0.000605869
3.41571e-06
3.80391e-06
0.000605827
6.43547e-06
6.52759e-06
0.000608246
2.54668e-06
1.97695e-08
0.000609406
7.99658e-07
-6.81115e-06
0.000608915
-9.38533e-07
-5.89335e-06
0.000606202
3.02335e-06
2.32994e-06
0.000606892
5.85245e-06
6.23852e-06
0.000609477
5.42211e-07
7.11283e-07
0.00060993
1.37855e-06
-7.61331e-06
0.000610221
-1.8806e-06
-6.66453e-06
0.000608335
1.48545e-06
3.88588e-06
0.000606641
6.8395e-06
8.69659e-06
0.000608266
4.27396e-06
2.51991e-06
0.000610173
-1.06957e-06
-7.53299e-06
0.000609562
-1.25764e-06
-6.28588e-06
0.000607268
1.9325e-06
2.74355e-06
0.000606855
5.30315e-06
6.99873e-06
0.000610119
2.07594e-06
2.86843e-07
0.000611298
-2.57073e-06
-6.79951e-06
0.000608888
-6.20813e-07
-4.54736e-06
0.000605954
4.41412e-06
4.78379e-06
0.000605745
6.18107e-06
7.19915e-06
0.00060858
3.71472e-06
2.71694e-07
0.000610139
-1.62572e-06
-6.60579e-06
0.000608557
4.5396e-08
-6.20324e-06
0.000605967
2.87957e-06
3.28703e-06
0.00060546
6.67473e-06
7.23517e-06
0.000608026
3.79309e-06
4.96257e-07
0.000609695
1.68947e-07
-7.48845e-06
0.000608249
2.16738e-06
-5.18084e-06
0.000605969
3.44742e-06
4.49709e-06
6.71011e-06
6.70334e-06
0.000709862
3.82984e-06
6.55843e-06
0.000711452
1.79147e-06
-3.47275e-06
0.000712167
-6.67148e-07
-8.75129e-06
0.000710058
2.48763e-06
4.70076e-07
0.000708088
7.59193e-06
7.59653e-06
0.000709321
4.56201e-06
5.61658e-06
0.00071167
1.06123e-06
-3.66469e-06
0.000712378
-1.27774e-06
-8.18066e-06
0.000710279
2.15121e-06
-1.52133e-07
0.000709135
5.46535e-06
7.38319e-06
0.000710611
2.54638e-06
5.06964e-06
0.000712138
1.55867e-06
-3.30558e-06
0.000712698
-1.20136e-06
-7.48908e-06
0.000710385
2.16624e-06
-1.45657e-06
0.000709791
5.09842e-06
6.48574e-06
0.000711728
6.82388e-07
5.4115e-06
0.000712471
2.30762e-06
-3.57586e-06
0.00071346
-2.16918e-06
-8.59562e-06
0.00071234
4.14621e-07
-7.79781e-07
0.000710387
6.11365e-06
8.22521e-06
0.000710859
4.52212e-06
7.37683e-06
0.000712668
-3.93322e-07
-3.07372e-06
0.000713114
-1.33805e-06
-8.01222e-06
0.000711401
7.58069e-07
-1.10579e-06
0.000709905
4.41165e-06
7.24139e-06
0.000711982
2.07216e-06
5.41692e-06
0.000714048
-2.10025e-06
-3.6346e-06
0.000713058
-1.15686e-06
-7.1129e-06
0.000710455
3.3836e-06
5.94082e-07
0.000709035
5.22445e-06
7.9334e-06
0.000710848
3.74091e-06
5.33703e-06
0.000712926
-1.30869e-06
-3.01997e-06
0.000712656
-1.77651e-07
-7.74504e-06
0.000710405
1.67334e-06
-8.76273e-07
0.000708872
5.84268e-06
7.67342e-06
0.00071033
3.67884e-06
5.47459e-06
0.000712394
5.26341e-07
-3.57297e-06
0.000712231
2.247e-06
-7.66286e-06
0.000710438
2.3971e-06
5.914e-07
5.91778e-06
7.25795e-06
0.000807271
2.65714e-06
5.721e-06
0.000807904
1.47169e-06
1.44416e-06
0.000808516
-4.73551e-07
-4.42949e-06
0.000807759
1.63612e-06
-1.21567e-06
0.000806696
5.70302e-06
4.08161e-06
0.000806905
3.25791e-06
5.23904e-06
0.000807921
7.68428e-07
1.05526e-06
0.000808599
-7.26276e-07
-4.25506e-06
0.000807926
1.29358e-06
-1.577e-06
0.000807132
3.79024e-06
3.94604e-06
0.00080749
1.40868e-06
4.86984e-06
0.000808217
1.57432e-06
9.95875e-07
0.00080878
-1.13354e-06
-3.4684e-06
0.000807938
1.53507e-06
-2.20279e-06
0.000807294
3.48239e-06
3.18146e-06
0.000808082
-1.43815e-07
4.5282e-06
0.000808278
2.32938e-06
7.51518e-07
0.00080909
-2.02922e-06
-4.32113e-06
0.000808722
-9.65346e-08
-2.15369e-06
0.00080786
4.44954e-06
3.86088e-06
0.000807754
3.36672e-06
5.858e-06
0.000808441
-3.40956e-07
1.37169e-06
0.000808914
-1.06741e-06
-3.97886e-06
0.000808354
7.03848e-08
-1.97406e-06
0.00080751
2.82529e-06
3.39987e-06
0.000808013
9.35854e-07
5.03847e-06
0.000809096
-1.80333e-06
5.27591e-07
0.00080891
-1.16907e-06
-3.77853e-06
0.000807998
2.29482e-06
-1.02143e-06
0.000807009
3.57903e-06
4.11813e-06
0.000807603
2.41292e-06
5.11413e-06
0.000808584
-1.06856e-06
7.62876e-07
0.000808855
-1.7552e-07
-3.81309e-06
0.000807969
9.68653e-07
-2.26434e-06
0.000806979
4.22564e-06
3.89693e-06
0.000807327
2.44635e-06
4.70454e-06
0.000808311
2.82805e-07
9.34574e-07
0.000808605
2.08439e-06
-3.98817e-06
0.000808008
1.50449e-06
-9.28416e-07
4.20139e-06
3.63562e-06
0.000895202
1.6021e-06
1.99254e-06
0.000895198
9.71479e-07
1.55918e-06
0.000895306
-2.04992e-07
-7.62744e-07
0.000895168
1.10449e-06
1.36578e-07
0.00089514
3.85083e-06
1.59149e-06
0.000895127
2.0192e-06
1.97409e-06
0.000895181
3.26373e-07
1.49117e-06
0.000895291
-7.70612e-08
-6.84366e-07
0.000895321
7.58901e-07
-1.8026e-07
0.000895164
2.52791e-06
1.45516e-06
0.000895168
5.36908e-07
1.75307e-06
0.000895296
1.30929e-06
1.20614e-06
0.000895308
-8.08589e-07
-2.14508e-07
0.000895384
1.02427e-06
-3.90296e-07
0.000895066
2.1651e-06
1.12913e-06
0.000895349
-7.28053e-07
1.34234e-06
0.000895167
2.0599e-06
8.59809e-07
0.000895466
-1.64968e-06
-8.22271e-07
0.000895292
-2.11501e-08
-6.18643e-07
0.000895299
2.90598e-06
1.17729e-06
0.000895301
2.0662e-06
2.0389e-06
0.00089527
-3.31191e-07
1.28987e-06
0.000895373
-6.56191e-07
-7.42081e-07
0.000895263
-1.27551e-07
-3.03159e-07
0.00089529
1.58825e-06
8.02251e-07
0.000895162
2.47503e-07
1.66609e-06
0.000895376
-1.43112e-06
8.10384e-07
0.000895171
-7.28394e-07
-6.22549e-07
0.000895306
1.49751e-06
1.31815e-07
0.0008951
2.24072e-06
1.45443e-06
0.000895224
1.31098e-06
1.9559e-06
0.000895279
-7.57693e-07
8.31988e-07
0.000895322
-4.88108e-08
-6.13632e-07
0.000895282
6.18878e-07
-8.17052e-07
0.000895089
2.7434e-06
1.31153e-06
0.00089511
1.45001e-06
1.31506e-06
0.000895213
1.97232e-07
1.13279e-06
0.00089536
1.86437e-06
-7.35958e-07
0.000895344
1.02969e-06
2.21401e-07
2.68123e-06
1.18126e-06
0.000985133
9.95767e-07
5.97588e-07
0.000985029
6.47063e-07
9.35546e-07
0.000985115
-7.81798e-08
-3.0233e-08
0.000985038
7.61651e-07
6.44478e-07
0.00098516
2.50294e-06
8.48577e-07
0.0009851
1.27708e-06
7.23328e-07
0.000985031
6.62794e-08
9.42641e-07
0.000985061
3.47629e-07
9.24791e-08
0.000985175
3.73988e-07
2.88103e-07
0.00098512
1.75149e-06
7.63569e-07
0.000985032
1.54943e-07
5.53222e-07
0.000985165
1.05314e-06
6.92268e-07
0.000985028
-4.46042e-07
3.42871e-07
0.000985276
5.71464e-07
1.93883e-07
0.000984967
1.41201e-06
5.82783e-07
0.000985147
-9.36294e-07
2.22707e-07
0.000984996
1.82838e-06
3.86514e-07
0.00098517
-1.30624e-06
-9.44252e-08
0.000985061
6.9713e-08
-6.50598e-09
0.000985125
1.89644e-06
5.2011e-07
0.000985173
1.21648e-06
6.82525e-07
0.000985041
-2.32697e-07
6.87706e-07
0.000985138
-3.61616e-07
-1.21727e-07
0.000985043
-1.5208e-07
2.56025e-07
0.000985205
8.34793e-07
1.62826e-07
0.000984954
9.17003e-08
3.90128e-07
0.000985106
-1.06196e-06
3.65863e-07
0.000984942
-3.00061e-07
4.98347e-08
0.000985171
9.93762e-07
5.30613e-07
0.000985089
1.42113e-06
7.37956e-07
0.000985086
7.17308e-07
7.18932e-07
0.000985078
-4.32364e-07
3.49085e-07
0.000985045
8.77388e-08
3.87203e-08
0.00098515
4.14291e-07
-2.28574e-07
0.000985034
1.77776e-06
6.40049e-07
0.000985026
8.80537e-07
6.55881e-08
0.000985001
2.65158e-07
6.16728e-07
0.000985154
1.60957e-06
-1.15673e-07
0.000985206
8.05402e-07
6.20182e-07
1.65037e-06
5.37635e-07
0.00108354
5.85469e-07
2.83441e-07
0.0010834
4.39127e-07
7.18169e-07
0.00108354
-2.09333e-08
-3.29933e-08
0.00108346
5.51565e-07
6.41411e-07
0.00108355
1.50665e-06
5.94517e-07
0.00108349
8.04995e-07
4.67253e-07
0.00108342
-1.14461e-07
7.02567e-07
0.00108347
6.47765e-07
1.37957e-07
0.00108357
1.06371e-07
3.26925e-07
0.00108356
1.19827e-06
5.3992e-07
0.00108338
7.64294e-09
3.2331e-07
0.00108359
7.49294e-07
5.22462e-07
0.00108343
-9.32171e-08
3.23258e-07
0.00108368
2.01481e-07
2.16714e-07
0.00108339
9.38424e-07
4.25166e-07
0.00108349
-9.76866e-07
2.55224e-08
0.00108343
1.56606e-06
2.48992e-07
0.00108355
-9.82114e-07
-5.15948e-08
0.0010835
1.12806e-07
4.42753e-08
0.00108351
1.21328e-06
3.54526e-07
0.00108357
6.06794e-07
3.47629e-07
0.00108341
-1.43773e-07
5.02886e-07
0.00108356
-1.76998e-07
-9.71593e-08
0.00108343
-1.00349e-07
2.92796e-07
0.0010836
3.07091e-07
4.5346e-08
0.00108334
6.01228e-08
1.75728e-07
0.00108349
-7.80183e-07
2.25576e-07
0.0010834
1.68934e-09
9.10557e-08
0.00108357
6.7836e-07
4.92983e-07
0.00108351
8.59105e-07
5.03671e-07
0.00108344
3.52566e-07
4.54252e-07
0.0010835
-1.99763e-07
2.08138e-07
0.00108344
1.93781e-07
9.54107e-08
0.00108358
2.58603e-07
-1.29127e-07
0.00108343
1.11878e-06
4.6967e-07
0.00108342
4.78719e-07
-1.4506e-07
0.00108339
3.38918e-07
4.48236e-07
0.00108356
1.34497e-06
-1.18835e-07
0.00108363
6.66269e-07
5.71225e-07
9.39787e-07
3.547e-07
0.00119181
2.90837e-07
1.26265e-07
0.00119164
3.26019e-07
6.16374e-07
0.0011918
-2.40162e-08
-8.68882e-08
0.00119174
4.13154e-07
5.66899e-07
0.00119179
8.02621e-07
4.1534e-07
0.00119174
4.99653e-07
3.60201e-07
0.00119167
-2.50946e-07
5.73479e-07
0.00119174
8.23196e-07
1.1557e-07
0.00119179
-5.70705e-08
3.01201e-07
0.00119187
7.46462e-07
4.10233e-07
0.0011916
2.41406e-08
2.62071e-07
0.00119185
4.27901e-07
4.33827e-07
0.0011917
2.08007e-07
2.60024e-07
0.00119189
-7.02839e-08
1.7565e-07
0.0011917
5.92268e-07
3.28173e-07
0.00119169
-9.01637e-07
-1.59913e-08
0.00119171
1.28219e-06
1.87526e-07
0.00119178
-6.93377e-07
-6.20475e-08
0.00119178
8.95222e-08
2.92613e-08
0.00119176
7.53031e-07
2.74952e-07
0.00119181
1.94876e-07
2.03372e-07
0.00119164
-7.27203e-08
4.11443e-07
0.00119184
-8.7068e-08
-1.21367e-07
0.00119168
-2.52025e-08
2.66355e-07
0.00119184
-6.71498e-08
1.01352e-08
0.00119162
6.81663e-08
1.14404e-07
0.0011917
-5.27004e-07
1.75701e-07
0.00119171
1.49246e-07
6.89079e-08
0.00119182
4.80297e-07
3.97799e-07
0.00119178
4.78438e-07
3.4575e-07
0.00119166
1.30942e-07
3.73115e-07
0.00119176
-6.38839e-08
1.62742e-07
0.00119171
2.54109e-07
9.03099e-08
0.00119184
1.47129e-07
-1.09177e-07
0.00119169
6.72377e-07
3.73159e-07
0.00119166
2.15537e-07
-1.98784e-07
0.00119165
3.92559e-07
3.69353e-07
0.00119182
1.08157e-06
-1.73798e-07
0.00119191
5.66718e-07
4.5323e-07
4.69472e-07
2.71287e-07
0.0013109
7.11613e-08
4.4964e-09
0.00131073
2.71108e-07
5.58116e-07
0.00131087
-3.49278e-08
-1.39222e-07
0.00131086
3.1767e-07
4.73131e-07
0.00131086
3.35926e-07
3.03532e-07
0.00131081
3.18388e-07
2.85212e-07
0.00131075
-3.50285e-07
4.87969e-07
0.00131085
8.89152e-07
7.28141e-08
0.00131082
-1.00923e-07
2.77474e-07
0.00131099
3.48728e-07
2.96499e-07
0.00131068
1.4249e-07
2.21658e-07
0.00131092
1.23527e-07
3.8201e-07
0.00131083
4.01462e-07
1.90563e-07
0.00131091
-1.98876e-07
1.38456e-07
0.00131083
3.13532e-07
2.58263e-07
0.00131074
-7.46557e-07
-2.84462e-08
0.00131081
9.87957e-07
1.64996e-07
0.00131087
-4.44228e-07
-7.93249e-08
0.00131088
5.03141e-08
9.79095e-09
0.00131084
4.56705e-07
2.2315e-07
0.00131089
-7.26277e-08
8.73164e-08
0.00131071
-2.33648e-08
3.49237e-07
0.00131094
-6.0563e-08
-1.35762e-07
0.00131077
5.95573e-08
2.1098e-07
0.00131089
-2.87945e-07
-5.26633e-09
0.00131075
4.55967e-08
8.37567e-08
0.00131075
-3.12647e-07
1.52967e-07
0.00131083
1.98854e-07
3.904e-08
0.0013109
3.64094e-07
3.20843e-07
0.00131087
2.33882e-07
2.19357e-07
0.00131073
5.14484e-09
3.10622e-07
0.00131085
9.44047e-09
1.35039e-07
0.0013108
2.84133e-07
7.52961e-08
0.00131092
7.78687e-08
-9.0395e-08
0.00131079
3.76614e-07
2.91156e-07
0.00131075
4.13845e-08
-2.11942e-07
0.00131074
4.30679e-07
3.1994e-07
0.00131089
8.41091e-07
-2.10444e-07
0.00131101
4.72036e-07
3.41302e-07
2.03118e-07
2.21557e-07
0.00144189
-9.81152e-08
-8.73447e-08
0.00144176
2.41687e-07
5.01875e-07
0.00144184
-2.77774e-08
-1.50522e-07
0.00144188
2.27968e-07
3.83236e-07
0.00144185
6.03356e-08
2.31601e-07
0.0014418
2.3652e-07
1.97539e-07
0.00144174
-4.21698e-07
4.25271e-07
0.0014419
8.50439e-07
3.32992e-08
0.00144176
-2.31151e-08
2.51724e-07
0.00144201
-2.16936e-08
2.2183e-07
0.00144171
2.94146e-07
1.83224e-07
0.00144187
-9.05549e-08
3.37918e-07
0.00144189
4.68693e-07
1.24237e-07
0.00144185
-1.91906e-07
1.17675e-07
0.00144186
7.15544e-08
2.10002e-07
0.00144174
-5.67362e-07
-4.78692e-08
0.00144181
7.33898e-07
1.43918e-07
0.00144187
-2.50057e-07
-7.24293e-08
0.00144188
2.66748e-09
-1.67138e-08
0.00144184
2.62759e-07
1.92705e-07
0.00144189
-2.12739e-07
2.01569e-09
0.0014417
1.27753e-08
2.89406e-07
0.00144194
-7.19503e-08
-1.36062e-07
0.00144179
1.23274e-07
1.65945e-07
0.00144183
-3.87806e-07
1.22601e-08
0.00144179
-2.96788e-09
3.85387e-08
0.00144173
-1.21551e-07
1.3588e-07
0.00144184
1.94979e-07
2.02279e-08
0.0014419
2.77489e-07
2.61041e-07
0.00144187
9.55287e-08
1.26358e-07
0.00144172
-4.83052e-08
2.55753e-07
0.00144185
3.72851e-08
1.22451e-07
0.00144182
2.78426e-07
5.30035e-08
0.00144191
4.46877e-08
-6.59301e-08
0.00144179
1.96681e-07
2.26891e-07
0.00144176
-7.09867e-08
-2.17129e-07
0.00144176
4.53886e-07
2.80015e-07
0.00144186
6.37619e-07
-2.2559e-07
0.00144203
3.66833e-07
2.33827e-07
9.52099e-08
2.13268e-07
0.00158597
-2.07759e-07
-1.59843e-07
0.0015859
1.93529e-07
4.54217e-07
0.00158591
1.83159e-08
-1.30613e-07
0.00158599
1.50429e-07
2.7428e-07
0.00158596
-9.86166e-08
2.04353e-07
0.0015859
2.26387e-07
1.22143e-07
0.00158582
-4.50812e-07
3.8129e-07
0.00158606
7.10319e-07
2.90682e-09
0.00158583
1.46266e-07
2.21461e-07
0.00158608
-3.11524e-07
1.61492e-07
0.00158588
3.96368e-07
1.36358e-07
0.0015859
-1.7864e-07
3.17162e-07
0.00158605
3.96291e-07
7.15015e-08
0.00158592
-8.92165e-08
9.11496e-08
0.00158596
-9.7149e-08
1.80111e-07
0.00158585
-4.14614e-07
-6.62372e-08
0.00158591
5.27712e-07
1.42303e-07
0.00158597
-1.09317e-07
-5.06973e-08
0.00158598
-2.42478e-08
-6.46985e-08
0.00158594
1.43623e-07
1.83444e-07
0.00158599
-2.791e-07
-4.14013e-08
0.0015858
3.25622e-08
2.33849e-07
0.00158602
-9.3724e-08
-1.10599e-07
0.00158593
1.48521e-07
1.0616e-07
0.00158587
-3.7327e-07
3.14352e-08
0.00158592
-7.55967e-08
1.14111e-08
0.00158584
4.3757e-09
1.24278e-07
0.00158593
1.81375e-07
8.85864e-09
0.001586
2.10323e-07
2.13035e-07
0.00158598
2.01814e-08
7.15094e-08
0.00158583
-6.00551e-08
1.9647e-07
0.00158594
4.53424e-08
1.18575e-07
0.00158594
2.40679e-07
3.28827e-08
0.001586
4.06572e-08
-4.58885e-08
0.00158589
1.08746e-07
1.72449e-07
0.00158587
-1.53973e-07
-2.1476e-07
0.00158589
4.55308e-07
2.53794e-07
0.00158593
4.92872e-07
-2.15578e-07
0.00158613
2.37592e-07
1.32218e-07
9.2723e-08
2.24765e-07
0.00174444
-2.40315e-07
-2.05481e-07
0.00174446
1.10645e-07
3.81204e-07
0.00174442
8.27763e-08
-7.57189e-08
0.00174448
1.02245e-07
1.69372e-07
0.00174449
-2.07035e-07
2.01461e-07
0.00174444
2.52933e-07
5.68506e-08
0.0017443
-4.17763e-07
3.33709e-07
0.00174461
4.78879e-07
1.42119e-09
0.00174435
3.4638e-07
1.83299e-07
0.00174452
-4.91294e-07
1.39131e-07
0.00174447
3.89746e-07
9.27174e-08
0.00174436
-1.41477e-07
2.97187e-07
0.00174459
2.40875e-07
3.40432e-08
0.00174444
3.81447e-08
6.49221e-08
0.00174444
-1.81961e-07
1.78227e-07
0.00174439
-3.2049e-07
-8.57447e-08
0.00174443
3.67693e-07
1.28079e-07