/*--------------------------------*- C++ -*----------------------------------*\
  =========                 |
  \\      /  F ield         | OpenFOAM: The Open Source CFD Toolbox
   \\    /   O peration     | Website:  https://openfoam.org
    \\  /    A nd           | Version:  10
     \\/     M anipulation  |
\*---------------------------------------------------------------------------*/
FoamFile
{
    format      ascii;
    class       volScalarField;
    location    "2.5";
    object      pPrime2Mean;
}
// * * * * * * * * * * * * * * * * * * * * * * * * * * * * * * * * * * * * * //

dimensions      [0 4 -4 0 0 0 0];

internalField   nonuniform List<scalar> 
25600
(
1.99507e-07
2.11134e-07
1.10309e-06
3.12678e-06
1.09081e-07
1.08427e-06
3.51607e-07
1.17327e-06
9.6352e-07
3.07115e-07
6.20772e-07
1.35227e-06
8.45617e-08
2.96562e-07
6.06651e-07
8.26957e-07
4.9166e-07
2.85624e-07
1.63711e-06
1.03716e-07
7.07053e-07
9.44202e-07
4.23101e-07
1.24754e-06
1.6478e-07
3.355e-07
2.80879e-07
4.24041e-07
6.99192e-07
6.26484e-07
5.50684e-07
1.88849e-07
2.36698e-07
1.36222e-06
1.34482e-07
1.77627e-07
8.26301e-07
6.37456e-07
1.09714e-06
6.26766e-07
2.00488e-07
2.01949e-07
1.07038e-06
3.10784e-06
1.1745e-07
1.06512e-06
3.55683e-07
1.14727e-06
9.71401e-07
3.01818e-07
6.31514e-07
1.34674e-06
8.34349e-08
3.16068e-07
6.22059e-07
8.43003e-07
5.23677e-07
2.71273e-07
1.64191e-06
1.06651e-07
7.30809e-07
9.46745e-07
4.18811e-07
1.26827e-06
1.6388e-07
3.2881e-07
2.79854e-07
4.11727e-07
7.25506e-07
6.31665e-07
5.51372e-07
1.87492e-07
2.31584e-07
1.3763e-06
1.34502e-07
1.76857e-07
8.20617e-07
6.29797e-07
1.11131e-06
6.76144e-07
2.09074e-07
1.74219e-07
1.05005e-06
3.09713e-06
1.1807e-07
1.07614e-06
3.8018e-07
1.14621e-06
9.70964e-07
3.01028e-07
6.50894e-07
1.359e-06
8.40592e-08
3.48354e-07
6.35335e-07
9.24322e-07
5.52156e-07
2.67373e-07
1.67363e-06
1.04616e-07
7.72261e-07
9.51574e-07
4.04676e-07
1.35031e-06
1.67313e-07
3.31809e-07
2.74633e-07
4.16172e-07
7.46462e-07
6.77281e-07
5.52286e-07
1.95219e-07
2.28646e-07
1.40731e-06
1.31993e-07
1.77639e-07
7.69699e-07
6.47916e-07
1.12624e-06
7.05612e-07
2.22441e-07
1.53877e-07
1.04497e-06
3.25077e-06
1.10533e-07
1.07005e-06
3.94604e-07
1.13129e-06
9.75849e-07
3.25512e-07
6.9955e-07
1.28243e-06
9.08726e-08
3.39614e-07
6.00116e-07
1.03102e-06
6.04458e-07
2.60349e-07
1.69925e-06
1.17221e-07
8.12595e-07
9.89064e-07
3.78749e-07
1.45894e-06
1.77811e-07
3.46924e-07
2.85715e-07
4.36639e-07
7.77971e-07
7.45777e-07
5.95018e-07
2.03348e-07
2.31997e-07
1.32679e-06
1.36075e-07
1.92805e-07
7.17549e-07
6.5902e-07
1.13925e-06
6.79292e-07
2.43701e-07
1.1627e-07
1.02662e-06
3.3091e-06
9.13769e-08
9.37579e-07
4.27696e-07
1.09228e-06
9.02687e-07
4.00523e-07
7.04825e-07
1.09836e-06
9.99254e-08
4.02624e-07
5.00979e-07
1.16387e-06
6.16055e-07
2.39314e-07
1.49285e-06
9.46865e-08
8.90695e-07
8.93192e-07
3.53686e-07
1.50974e-06
1.95196e-07
3.54718e-07
3.18972e-07
4.15388e-07
9.26649e-07
7.43681e-07
6.66151e-07
2.27183e-07
2.25961e-07
1.23447e-06
1.36296e-07
1.98586e-07
7.39496e-07
6.63211e-07
1.23578e-06
6.54166e-07
2.78821e-07
1.06951e-07
1.02281e-06
3.07004e-06
8.4291e-08
8.37356e-07
4.7632e-07
1.03741e-06
9.22657e-07
4.42377e-07
7.79623e-07
8.72597e-07
1.10718e-07
4.26348e-07
3.98347e-07
1.18288e-06
7.45914e-07
2.55102e-07
1.2967e-06
1.39509e-07
8.73773e-07
7.2812e-07
3.08646e-07
1.52493e-06
1.83545e-07
3.55573e-07
3.8439e-07
3.73635e-07
9.66682e-07
6.95113e-07
5.90399e-07
2.20275e-07
2.1379e-07
1.04009e-06
1.21992e-07
1.94827e-07
7.96024e-07
6.27135e-07
1.10878e-06
6.56822e-07
2.43786e-07
9.44292e-08
1.09678e-06
2.38813e-06
7.92888e-08
7.02744e-07
4.31738e-07
9.00095e-07
1.18177e-06
3.6757e-07
8.00019e-07
5.82929e-07
9.23994e-08
4.70356e-07
2.60549e-07
9.66946e-07
9.08197e-07
2.99013e-07
9.19018e-07
9.27305e-08
6.48839e-07
5.62545e-07
2.70613e-07
1.21376e-06
1.66504e-07
3.14546e-07
4.63693e-07
3.20583e-07
8.40673e-07
6.70063e-07
5.04086e-07
1.93594e-07
2.30415e-07
7.76066e-07
9.67642e-08
1.89399e-07
4.70659e-07
5.11538e-07
8.82221e-07
6.14909e-07
2.01936e-07
8.27282e-08
1.08173e-06
2.09882e-06
6.45521e-08
5.53734e-07
3.37208e-07
7.54556e-07
1.24698e-06
2.61433e-07
8.36486e-07
4.68359e-07
7.99466e-08
5.12351e-07
1.83344e-07
7.46897e-07
9.28298e-07
3.00901e-07
6.27877e-07
6.57024e-08
4.62021e-07
5.44922e-07
2.06125e-07
8.70312e-07
1.28999e-07
2.51974e-07
4.20788e-07
2.59131e-07
6.01758e-07
5.90015e-07
4.50327e-07
1.46407e-07
2.02041e-07
4.99755e-07
9.26993e-08
1.90297e-07
2.8016e-07
4.37595e-07
8.11902e-07
4.06196e-07
1.6505e-07
5.96317e-08
9.1479e-07
1.72922e-06
7.2061e-08
3.7109e-07
2.39371e-07
5.93293e-07
8.74169e-07
1.55475e-07
6.47097e-07
2.85507e-07
5.5965e-08
3.3023e-07
8.03039e-08
4.39217e-07
7.3608e-07
1.94751e-07
4.05477e-07
5.74632e-08
4.2105e-07
5.77671e-07
1.58505e-07
5.35915e-07
9.36807e-08
1.84751e-07
2.38822e-07
2.06624e-07
3.1974e-07
3.74903e-07
3.78436e-07
1.12529e-07
1.54995e-07
2.85545e-07
7.77401e-08
1.54424e-07
1.63961e-07
3.19723e-07
6.65614e-07
2.83464e-07
1.12549e-07
5.56597e-08
7.04689e-07
1.4869e-06
6.7871e-08
2.39968e-07
1.35621e-07
4.08567e-07
5.45151e-07
8.37993e-08
4.43093e-07
2.05938e-07
4.2739e-08
2.0471e-07
4.74018e-08
2.83224e-07
5.03842e-07
1.11304e-07
3.16574e-07
4.04758e-08
3.69392e-07
5.84652e-07
1.23914e-07
3.28279e-07
6.54238e-08
1.26707e-07
1.18213e-07
1.54258e-07
2.13561e-07
2.14253e-07
2.7513e-07
8.1137e-08
1.01178e-07
1.51075e-07
5.29349e-08
9.47165e-08
1.0508e-07
2.28484e-07
4.80108e-07
2.20749e-07
7.02738e-08
3.26462e-08
5.21045e-07
1.12246e-06
6.19142e-08
1.40157e-07
6.2988e-08
2.7946e-07
3.21885e-07
4.33746e-08
2.5872e-07
1.08086e-07
2.41157e-08
9.21392e-08
2.64309e-08
1.88621e-07
3.4089e-07
6.03781e-08
2.00656e-07
2.86203e-08
3.01473e-07
4.78804e-07
1.04026e-07
1.84045e-07
4.13269e-08
8.22615e-08
6.89027e-08
9.66854e-08
1.57133e-07
1.20835e-07
1.86249e-07
5.59627e-08
6.06055e-08
9.1194e-08
3.55005e-08
5.8813e-08
6.45478e-08
1.63436e-07
3.60839e-07
1.58221e-07
4.13512e-08
2.16826e-08
3.7607e-07
7.65288e-07
5.27597e-08
7.63256e-08
2.99817e-08
1.89996e-07
2.00707e-07
2.31179e-08
1.47362e-07
6.20922e-08
1.37353e-08
4.55022e-08
1.49907e-08
1.17575e-07
1.95983e-07
3.19292e-08
1.16231e-07
2.01477e-08
2.30149e-07
3.52e-07
9.00489e-08
1.06133e-07
2.33119e-08
5.04904e-08
4.15201e-08
5.80721e-08
9.19668e-08
6.38698e-08
1.13065e-07
3.58706e-08
3.34267e-08
5.55512e-08
2.21159e-08
3.32504e-08
3.05829e-08
1.15214e-07
2.66768e-07
1.03248e-07
2.04446e-08
1.52894e-08
2.69026e-07
5.08054e-07
4.36064e-08
3.94602e-08
1.53524e-08
1.25435e-07
1.281e-07
1.20953e-08
7.94546e-08
3.31766e-08
7.01367e-09
2.17363e-08
8.78762e-09
7.10641e-08
1.08032e-07
1.62645e-08
6.40849e-08
1.55828e-08
1.6914e-07
2.5279e-07
7.56146e-08
6.09261e-08
1.20384e-08
3.00226e-08
2.65769e-08
3.49472e-08
5.09037e-08
3.35595e-08
6.59008e-08
2.34502e-08
1.77448e-08
3.3031e-08
1.30452e-08
1.86069e-08
1.31705e-08
8.34445e-08
1.89018e-07
6.78961e-08
9.02928e-09
1.25664e-08
1.91972e-07
3.34144e-07
3.64937e-08
1.91848e-08
9.07711e-09
8.24841e-08
8.25784e-08
6.4422e-09
4.16004e-08
1.73926e-08
3.70731e-09
1.01188e-08
5.53318e-09
4.28404e-08
5.90954e-08
8.40415e-09
3.25558e-08
1.29228e-08
1.24121e-07
1.80601e-07
6.15492e-08
3.48046e-08
6.22258e-09
1.7943e-08
1.78128e-08
2.10665e-08
2.78615e-08
1.76778e-08
3.75255e-08
1.46784e-08
9.29856e-09
1.92216e-08
7.90543e-09
1.06023e-08
6.59288e-09
6.17142e-08
1.31791e-07
4.68497e-08
3.78711e-09
1.15761e-08
1.36268e-07
2.18459e-07
3.04937e-08
8.96736e-09
6.43407e-09
5.45636e-08
5.3744e-08
3.61898e-09
2.07786e-08
9.00478e-09
2.2359e-09
4.82115e-09
3.87239e-09
2.58096e-08
3.16192e-08
4.52579e-09
1.53784e-08
1.12308e-08
9.02472e-08
1.27137e-07
4.85084e-08
2.02181e-08
3.38922e-09
1.10512e-08
1.22997e-08
1.30245e-08
1.50187e-08
9.37213e-09
2.10483e-08
9.0726e-09
4.95869e-09
1.12863e-08
5.18689e-09
6.62424e-09
5.01719e-09
4.64119e-08
9.14594e-08
3.37421e-08
2.36472e-09
1.15302e-08
9.61247e-08
1.42261e-07
2.54255e-08
4.42927e-09
5.31165e-09
3.65249e-08
3.54658e-08
2.62354e-09
9.92283e-09
4.77404e-09
1.52115e-09
2.39502e-09
2.84313e-09
1.5385e-08
1.65674e-08
2.57045e-09
6.81009e-09
9.80439e-09
6.461e-08
8.81305e-08
3.70485e-08
1.21372e-08
2.04229e-09
7.16322e-09
8.56358e-09
8.35661e-09
8.08628e-09
4.93484e-09
1.15836e-08
5.47105e-09
2.83691e-09
6.86285e-09
3.89872e-09
4.87596e-09
5.43274e-09
3.53972e-08
6.34572e-08
2.53987e-08
2.94485e-09
1.16829e-08
6.74815e-08
9.25834e-08
2.11143e-08
2.91365e-09
4.81433e-09
2.48426e-08
2.38061e-08
2.39886e-09
4.6023e-09
2.69457e-09
1.15131e-09
1.28161e-09
2.06684e-09
8.95391e-09
8.51618e-09
1.54825e-09
2.94399e-09
8.29146e-09
4.52069e-08
6.00307e-08
2.73736e-08
7.6013e-09
1.37495e-09
4.845e-09
6.03822e-09
5.55009e-09
4.41843e-09
2.5817e-09
6.20791e-09
3.1694e-09
1.82048e-09
4.50914e-09
3.39325e-09
4.28964e-09
6.2726e-09
2.72882e-08
4.42877e-08
1.98657e-08
4.21721e-09
1.16134e-08
4.72665e-08
6.04061e-08
1.74407e-08
2.83867e-09
4.57272e-09
1.72239e-08
1.63311e-08
2.50132e-09
2.28106e-09
1.69016e-09
9.31861e-10
7.9574e-10
1.37991e-09
4.98905e-09
4.27876e-09
9.69913e-10
1.36094e-09
6.67589e-09
3.06679e-08
3.9923e-08
1.94862e-08
4.94274e-09
9.77713e-10
3.33204e-09
4.33361e-09
3.78909e-09
2.51578e-09
1.34877e-09
3.18945e-09
1.73828e-09
1.34814e-09
3.3151e-09
3.26108e-09
4.27715e-09
6.88965e-09
2.12255e-08
3.12778e-08
1.60095e-08
5.4082e-09
1.11854e-08
3.31577e-08
3.96963e-08
1.43366e-08
3.29526e-09
4.41277e-09
1.2231e-08
1.14833e-08
2.61856e-09
1.44859e-09
1.21844e-09
7.79662e-10
5.70551e-10
8.18825e-10
2.59484e-09
2.08672e-09
6.15499e-10
7.39927e-10
5.00039e-09
2.00627e-08
2.5688e-08
1.33056e-08
3.27408e-09
7.0987e-10
2.30418e-09
3.10485e-09
2.64434e-09
1.54774e-09
7.21454e-10
1.53008e-09
8.98485e-10
1.13383e-09
2.74415e-09
3.29557e-09
4.46951e-09
7.16372e-09
1.66606e-08
2.24793e-08
1.31756e-08
6.14616e-09
1.04095e-08
2.33901e-08
2.63891e-08
1.17185e-08
3.79055e-09
4.24918e-09
8.91086e-09
8.28003e-09
2.64497e-09
1.29177e-09
1.0129e-09
6.75841e-10
4.55059e-10
4.33125e-10
1.22099e-09
9.84269e-10
3.99181e-10
4.69288e-10
3.5008e-09
1.25741e-08
1.58753e-08
8.65724e-09
2.1604e-09
5.19438e-10
1.5904e-09
2.24419e-09
1.89114e-09
1.04935e-09
4.26312e-10
6.75314e-10
4.68126e-10
1.06873e-09
2.51073e-09
3.38825e-09
4.66e-09
7.10276e-09
1.31916e-08
1.64993e-08
1.09817e-08
6.35828e-09
9.32793e-09
1.66579e-08
1.78286e-08
9.50031e-09
4.09642e-09
4.04523e-09
6.66873e-09
6.12401e-09
2.58043e-09
1.3559e-09
9.40116e-10
6.08233e-10
3.91907e-10
2.27462e-10
4.97683e-10
4.58758e-10
2.66049e-10
3.05395e-10
2.26911e-09
7.48553e-09
9.33801e-09
5.31098e-09
1.38625e-09
3.82294e-10
1.09501e-09
1.64928e-09
1.40293e-09
7.96419e-10
3.26434e-10
3.14639e-10
3.28381e-10
1.11174e-09
2.45972e-09
3.47916e-09
4.75203e-09
6.82183e-09
1.05516e-08
1.23964e-08
9.22313e-09
6.17325e-09
8.0849e-09
1.20304e-08
1.22983e-08
7.6359e-09
4.14646e-09
3.7758e-09
5.11364e-09
4.65368e-09
2.42694e-09
1.4232e-09
9.27286e-10
5.69462e-10
3.81963e-10
1.64179e-10
1.75621e-10
2.31588e-10
1.95733e-10
1.86911e-10
1.33364e-09
4.17914e-09
5.15977e-09
3.02163e-09
8.48629e-10
2.89496e-10
7.7765e-10
1.2464e-09
1.10433e-09
6.80417e-10
3.41491e-10
2.55093e-10
3.87662e-10
1.22998e-09
2.49249e-09
3.53687e-09
4.71933e-09
6.34719e-09
8.53634e-09
9.54276e-09
7.78332e-09
5.66831e-09
6.82258e-09
8.84743e-09
8.69581e-09
6.09581e-09
3.99221e-09
3.43919e-09
4.00626e-09
3.64857e-09
2.21015e-09
1.4216e-09
9.38296e-10
5.56365e-10
4.0295e-10
1.84988e-10
8.56976e-11
1.53826e-10
1.73003e-10
9.74392e-11
6.8702e-10
2.14125e-09
2.62171e-09
1.54963e-09
4.85515e-10
2.40636e-10
5.96342e-10
9.88978e-10
9.42996e-10
6.49019e-10
4.32833e-10
3.76606e-10
5.78913e-10
1.40038e-09
2.57107e-09
3.55124e-09
4.58035e-09
5.79206e-09
7.00296e-09
7.52493e-09
6.58437e-09
5.04387e-09
5.66329e-09
6.64894e-09
6.32604e-09
4.86225e-09
3.63922e-09
3.05766e-09
3.2073e-09
2.94619e-09
1.96176e-09
1.36103e-09
9.49357e-10
5.64835e-10
4.29288e-10
2.473e-10
1.10634e-10
1.43068e-10
1.78882e-10
5.12004e-11
2.89302e-10
9.69268e-10
1.18428e-09
6.80418e-10
2.60607e-10
2.34135e-10
5.14402e-10
8.37324e-10
8.75687e-10
6.92233e-10
5.76981e-10
5.97626e-10
8.48861e-10
1.60197e-09
2.64908e-09
3.52067e-09
4.35076e-09
5.2181e-09
5.84774e-09
6.08072e-09
5.58447e-09
4.4185e-09
4.68259e-09
5.11684e-09
4.76084e-09
3.90778e-09
3.20105e-09
2.68313e-09
2.61999e-09
2.42155e-09
1.72474e-09
1.27619e-09
9.40402e-10
5.84535e-10
4.50112e-10
3.20918e-10
1.75948e-10
1.65104e-10
1.97965e-10
5.35155e-11
8.63851e-11
3.63685e-10
4.52465e-10
2.36702e-10
1.54191e-10
2.68578e-10
5.04639e-10
7.73914e-10
8.78946e-10
7.91375e-10
7.60146e-10
8.64369e-10
1.15302e-09
1.81166e-09
2.7073e-09
3.45233e-09
4.08142e-09
4.67152e-09
4.98445e-09
5.03682e-09
4.75866e-09
3.85965e-09
3.90538e-09
4.04554e-09
3.73049e-09
3.19334e-09
2.75972e-09
2.35274e-09
2.18215e-09
2.00814e-09
1.53018e-09
1.17192e-09
9.06893e-10
6.05691e-10
4.65675e-10
3.81933e-10
2.44655e-10
2.02077e-10
2.1761e-10
9.67515e-11
2.40548e-11
1.11616e-10
1.49486e-10
7.68086e-11
1.46425e-10
3.36515e-10
5.50586e-10
7.8316e-10
9.31169e-10
9.34567e-10
9.71534e-10
1.14144e-09
1.45396e-09
2.0104e-09
2.74238e-09
3.35633e-09
3.80793e-09
4.18868e-09
4.33915e-09
4.28233e-09
4.09449e-09
3.39524e-09
3.32159e-09
3.30838e-09
3.05485e-09
2.67772e-09
2.38169e-09
2.08135e-09
1.85586e-09
1.68773e-09
1.37159e-09
1.06691e-09
8.5438e-10
6.18209e-10
4.76314e-10
4.17698e-10
3.03715e-10
2.42222e-10
2.39008e-10
1.61267e-10
5.35766e-11
6.43193e-11
8.96315e-11
9.18736e-11
2.16255e-10
4.34131e-10
6.41899e-10
8.51077e-10
1.02289e-09
1.10622e-09
1.19893e-09
1.40772e-09
1.72504e-09
2.18437e-09
2.75707e-09
3.24413e-09
3.55908e-09
3.79106e-09
3.85731e-09
3.74752e-09
3.58213e-09
3.03112e-09
2.90579e-09
2.81858e-09
2.61667e-09
2.32776e-09
2.09764e-09
1.86672e-09
1.62469e-09
1.45395e-09
1.23124e-09
9.72288e-10
7.93817e-10
6.1215e-10
4.7859e-10
4.27128e-10
3.45045e-10
2.75695e-10
2.62082e-10
2.25099e-10
1.32957e-10
1.21883e-10
1.53767e-10
2.01601e-10
3.40299e-10
5.57922e-10
7.68354e-10
9.64989e-10
1.15129e-09
1.29252e-09
1.42854e-09
1.65202e-09
1.95219e-09
2.32591e-09
2.75917e-09
3.12955e-09
3.35207e-09
3.48678e-09
3.50875e-09
3.38657e-09
3.20885e-09
2.76008e-09
2.62358e-09
2.51136e-09
2.34716e-09
2.11667e-09
1.91211e-09
1.71123e-09
1.4766e-09
1.29319e-09
1.10678e-09
8.90057e-10
7.2756e-10
5.83217e-10
4.65842e-10
4.13649e-10
3.5925e-10
2.96861e-10
2.82277e-10
2.73669e-10
2.24559e-10
2.19559e-10
2.68786e-10
3.49882e-10
4.94414e-10
7.04492e-10
9.18005e-10
1.11484e-09
1.30804e-09
1.48252e-09
1.64942e-09
1.86555e-09
2.1338e-09
2.43403e-09
2.75292e-09
3.02899e-09
3.19378e-09
3.27548e-09
3.28617e-09
3.17179e-09
2.96193e-09
2.5392e-09
2.441e-09
2.34842e-09
2.21306e-09
2.0217e-09
1.82074e-09
1.62089e-09
1.39303e-09
1.18888e-09
1.00411e-09
8.13556e-10
6.57726e-10
5.32666e-10
4.31396e-10
3.78112e-10
3.42539e-10
2.9881e-10
2.88433e-10
3.00106e-10
2.97299e-10
3.18111e-10
3.89078e-10
5.01946e-10
6.58566e-10
8.66958e-10
1.08791e-09
1.28936e-09
1.4884e-09
1.67332e-09
1.85124e-09
2.04912e-09
2.27239e-09
2.51265e-09
2.74566e-09
2.9502e-09
3.08852e-09
3.15672e-09
3.19995e-09
3.14319e-09
2.82361e-09
2.08158e-09
2.28441e-09
2.29817e-09
2.1991e-09
2.02827e-09
1.82111e-09
1.60254e-09
1.363e-09
1.13096e-09
9.25571e-10
7.37314e-10
5.80299e-10
4.61053e-10
3.71196e-10
3.20208e-10
2.95029e-10
2.72638e-10
2.72425e-10
3.00742e-10
3.37056e-10
3.91766e-10
4.92481e-10
6.37083e-10
8.20173e-10
1.04055e-09
1.27225e-09
1.48775e-09
1.68478e-09
1.86623e-09
2.03422e-09
2.20017e-09
2.37888e-09
2.56258e-09
2.73991e-09
2.90193e-09
3.02675e-09
3.13028e-09
3.29292e-09
3.63271e-09
2.80723e-09
2.05018e-09
2.43696e-09
2.41766e-09
2.3297e-09
2.16038e-09
1.92646e-09
1.66376e-09
1.38465e-09
1.10874e-09
8.62754e-10
6.55623e-10
4.9163e-10
3.703e-10
2.87666e-10
2.40498e-10
2.23179e-10
2.16673e-10
2.28721e-10
2.69981e-10
3.36701e-10
4.29596e-10
5.64652e-10
7.53902e-10
9.75908e-10
1.2316e-09
1.48585e-09
1.7143e-09
1.90813e-09
2.06574e-09
2.20235e-09
2.32484e-09
2.4504e-09
2.59408e-09
2.73476e-09
2.8785e-09
3.02097e-09
3.1475e-09
3.48345e-09
6.19013e-09
2.9756e-09
8.02025e-07
1.67135e-07
9.93946e-07
4.70098e-06
8.85059e-07
3.23912e-07
1.2528e-07
5.08172e-07
1.00432e-06
1.3576e-07
2.43018e-07
1.99078e-07
1.07553e-07
2.74639e-07
1.36167e-07
3.89593e-07
1.98533e-07
2.27576e-07
1.54889e-06
7.19047e-08
8.39926e-07
5.39093e-07
3.54946e-07
3.02982e-06
3.37412e-07
3.88553e-07
3.01088e-07
2.51536e-07
1.19146e-06
2.10544e-07
2.6158e-07
1.66175e-07
2.17072e-07
7.41955e-07
1.59537e-07
5.76239e-07
3.28668e-07
2.84343e-07
3.12047e-06
2.30478e-07
8.16464e-07
1.76364e-07
9.85809e-07
4.66325e-06
8.95675e-07
3.36928e-07
1.25414e-07
5.14463e-07
1.01299e-06
1.30589e-07
2.41703e-07
1.92709e-07
1.059e-07
2.70001e-07
1.40603e-07
3.931e-07
2.00497e-07
2.21598e-07
1.5162e-06
7.39477e-08
8.47445e-07
5.21279e-07
3.50972e-07
3.0714e-06
3.4017e-07
3.63685e-07
3.02077e-07
2.42784e-07
1.21614e-06
2.05533e-07
2.58216e-07
1.64929e-07
2.13326e-07
7.48883e-07
1.5757e-07
5.6267e-07
3.34748e-07
2.78197e-07
3.13146e-06
2.29368e-07
8.49101e-07
1.97473e-07
9.85106e-07
4.65104e-06
9.08766e-07
3.58978e-07
1.25584e-07
5.20038e-07
1.00735e-06
1.22227e-07
2.40958e-07
1.89923e-07
1.05753e-07
2.6715e-07
1.53566e-07
3.98274e-07
2.08466e-07
2.16993e-07
1.54521e-06
7.55775e-08
8.30178e-07
4.9429e-07
3.52039e-07
3.15139e-06
3.51962e-07
3.47104e-07
3.05811e-07
2.29186e-07
1.29445e-06
2.03099e-07
2.5627e-07
1.69123e-07
2.01198e-07
7.66848e-07
1.5401e-07
5.59132e-07
3.55535e-07
2.74008e-07
3.18329e-06
2.33299e-07
9.18695e-07
2.02487e-07
9.86197e-07
4.65488e-06
8.86999e-07
3.82833e-07
1.29531e-07
5.15724e-07
1.00892e-06
1.21158e-07
2.34016e-07
1.89991e-07
1.06541e-07
2.61213e-07
1.74731e-07
3.99229e-07
1.94657e-07
2.01243e-07
1.57518e-06
7.69617e-08
7.77291e-07
5.0707e-07
3.5164e-07
3.2119e-06
3.88461e-07
3.32606e-07
3.18672e-07
2.2324e-07
1.31027e-06
2.0457e-07
2.64177e-07
1.84914e-07
1.8384e-07
7.75842e-07
1.52308e-07
5.37414e-07
3.93516e-07
2.69202e-07
3.07943e-06
2.56532e-07
9.71413e-07
2.00408e-07
9.60836e-07
4.6772e-06
8.43994e-07
4.08744e-07
1.41516e-07
5.10463e-07
1.00779e-06
1.10423e-07
2.15378e-07
1.93174e-07
1.0721e-07
2.51613e-07
2.48385e-07
3.87094e-07
2.24307e-07
1.87138e-07
1.70321e-06
8.31304e-08
8.31106e-07
4.82834e-07
3.22094e-07
3.33591e-06
4.62412e-07
2.7408e-07
3.14084e-07
2.15592e-07
1.17342e-06
2.10548e-07
2.51888e-07
1.91215e-07
1.59808e-07
6.58031e-07
1.49818e-07
5.0714e-07
3.78426e-07
2.59142e-07
3.05487e-06
2.71448e-07
9.4915e-07
1.9217e-07
8.71975e-07
4.58181e-06
7.67379e-07
3.98928e-07
1.64641e-07
5.12082e-07
1.11925e-06
1.17821e-07
2.00294e-07
2.10743e-07
1.04398e-07
2.36911e-07
2.50557e-07
3.59847e-07
1.52169e-07
1.49418e-07
1.77694e-06
7.72172e-08
9.53266e-07
4.73711e-07
2.96146e-07
3.25943e-06
5.17491e-07
2.04321e-07
2.98669e-07
1.96398e-07
9.38004e-07
2.26611e-07
2.98436e-07
2.00449e-07
1.55778e-07
5.88546e-07
1.55347e-07
4.19553e-07
3.26017e-07
2.23584e-07
2.92919e-06
2.99026e-07
8.43454e-07
1.37486e-07
7.54326e-07
4.38297e-06
8.13516e-07
3.67215e-07
1.83831e-07
5.03313e-07
9.98211e-07
8.66436e-08
1.81686e-07
1.75167e-07
9.68015e-08
2.15066e-07
1.8497e-07
3.48666e-07
1.6622e-07
1.31295e-07
1.99367e-06
9.94264e-08
8.50401e-07
4.31689e-07
2.47994e-07
2.66248e-06
4.39613e-07
1.57782e-07
2.49332e-07
1.6824e-07
6.25495e-07
2.49626e-07
2.66524e-07
1.64725e-07
1.21988e-07
4.4603e-07
1.76182e-07
3.34937e-07
2.1868e-07
2.31858e-07
2.6084e-06
2.48604e-07
6.13626e-07
1.28599e-07
6.83952e-07
3.73542e-06
6.77722e-07
2.48012e-07
1.09903e-07
4.40867e-07
7.99296e-07
9.56449e-08
1.56721e-07
1.36406e-07
8.74491e-08
1.75655e-07
1.70262e-07
3.17052e-07
1.76771e-07
1.20639e-07
2.15699e-06
6.34517e-08
5.45673e-07
3.8017e-07
2.34288e-07
1.56557e-06
3.26703e-07
1.21785e-07
2.05292e-07
1.35347e-07
3.39439e-07
2.41357e-07
3.06699e-07
1.5266e-07
9.74555e-08
3.0155e-07
1.8093e-07
2.93395e-07
1.70935e-07
2.33274e-07
1.94378e-06
2.08941e-07
4.58742e-07
1.10176e-07
6.23532e-07
3.00808e-06
4.82598e-07
1.88376e-07
1.09002e-07
3.57259e-07
7.28568e-07
9.13208e-08
1.33841e-07
1.2643e-07
7.32778e-08
1.32094e-07
1.00158e-07
2.1514e-07
1.27949e-07
1.04819e-07
1.63011e-06
5.03752e-08
3.58478e-07
2.91133e-07
2.31552e-07
8.32748e-07
2.56433e-07
9.13445e-08
1.81831e-07
1.06731e-07
2.15137e-07
1.75041e-07
2.56499e-07
1.1673e-07
7.18919e-08
2.14715e-07
1.35714e-07
2.26787e-07
1.33569e-07
2.23206e-07
1.23029e-06
1.5447e-07
3.37459e-07
7.75906e-08
5.4557e-07
2.07116e-06
3.30402e-07
1.24322e-07
7.07456e-08
2.57532e-07
5.27633e-07
5.84157e-08
1.03195e-07
8.87062e-08
5.58234e-08
9.26123e-08
5.71144e-08
1.53034e-07
8.31195e-08
9.86544e-08
1.05274e-06
3.56716e-08
2.65103e-07
2.04985e-07
2.10912e-07
5.35217e-07
1.77419e-07
7.16496e-08
1.44227e-07
9.45503e-08
1.65773e-07
1.16007e-07
1.68871e-07
7.57611e-08
5.1265e-08
1.38517e-07
8.87535e-08
1.36865e-07
9.74617e-08
1.9333e-07
8.01172e-07
1.1136e-07
2.05979e-07
4.84765e-08
4.63515e-07
1.43585e-06
1.94036e-07
7.9531e-08
3.95733e-08
1.8743e-07
3.34147e-07
4.06508e-08
7.88538e-08
5.67803e-08
3.96036e-08
5.90571e-08
3.48726e-08
1.07797e-07
5.07892e-08
7.99837e-08
5.75831e-07
2.84029e-08
2.21504e-07
1.83627e-07
1.80597e-07
3.03692e-07
9.59722e-08
4.8693e-08
9.70729e-08
8.2207e-08
1.26218e-07
7.17384e-08
1.05181e-07
5.32931e-08
3.73636e-08
9.21081e-08
5.72864e-08
8.78371e-08
6.43161e-08
1.57209e-07
5.76044e-07
8.78814e-08
1.10164e-07
2.80079e-08
3.77196e-07
9.66399e-07
1.17435e-07
4.77129e-08
2.34969e-08
1.3597e-07
2.22427e-07
2.34362e-08
5.08242e-08
3.39853e-08
2.53646e-08
3.53777e-08
1.99752e-08
7.24258e-08
3.0603e-08
5.83343e-08
3.07383e-07
2.26931e-08
1.89544e-07
1.77886e-07
1.44508e-07
1.77494e-07
4.6845e-08
2.93182e-08
6.13693e-08
6.66377e-08
9.44117e-08
4.28774e-08
6.09745e-08
3.27619e-08
2.46738e-08
5.53858e-08
3.42654e-08
5.0131e-08
3.88453e-08
1.26503e-07
3.91495e-07
6.3562e-08
5.50434e-08
1.65533e-08
2.91613e-07
6.48084e-07
7.66372e-08
2.65315e-08
1.41901e-08
9.76743e-08
1.45875e-07
1.34515e-08
2.9617e-08
1.88618e-08
1.54247e-08
1.99484e-08
1.10005e-08
4.78541e-08
1.7402e-08
3.90084e-08
1.56175e-07
1.89201e-08
1.59254e-07
1.60685e-07
1.13941e-07
1.03945e-07
2.18408e-08
1.86886e-08
4.01218e-08
5.07739e-08
6.97032e-08
2.62234e-08
3.55292e-08
1.9139e-08
1.59502e-08
3.28099e-08
1.979e-08
2.7207e-08
2.29041e-08
1.00091e-07
2.66327e-07
4.57614e-08
2.41648e-08
1.16943e-08
2.18496e-07
4.30614e-07
5.34168e-08
1.3402e-08
8.98593e-09
6.89942e-08
9.4555e-08
8.1543e-09
1.64901e-08
1.01051e-08
9.19926e-09
1.06984e-08
6.23411e-09
2.99389e-08
9.47749e-09
2.42978e-08
7.49818e-08
1.62683e-08
1.28158e-07
1.3975e-07
8.90318e-08
6.12854e-08
9.97381e-09
1.21539e-08
2.70385e-08
3.82936e-08
5.1087e-08
1.70026e-08
2.05735e-08
1.11417e-08
9.65218e-09
1.97601e-08
1.20354e-08
1.46018e-08
1.4188e-08
7.75252e-08
1.78778e-07
3.35838e-08
8.91085e-09
1.0536e-08
1.59703e-07
2.82772e-07
3.98166e-08
6.27852e-09
6.39118e-09
4.84336e-08
6.1687e-08
5.72979e-09
8.98592e-09
5.44037e-09
5.53409e-09
5.66188e-09
3.69668e-09
1.75698e-08
5.05475e-09
1.4309e-08
3.3773e-08
1.42175e-08
9.91531e-08
1.145e-07
6.84554e-08
3.65039e-08
4.65172e-09
8.34305e-09
1.91568e-08
2.846e-08
3.59611e-08
1.11872e-08
1.18999e-08
6.48015e-09
5.91228e-09
1.22456e-08
7.88869e-09
8.57742e-09
1.05125e-08
5.96705e-08
1.19457e-07
2.5635e-08
2.92932e-09
1.08953e-08
1.14545e-07
1.8406e-07
3.13387e-08
3.1936e-09
5.27247e-09
3.40416e-08
4.05171e-08
4.68252e-09
4.99717e-09
3.26249e-09
3.53325e-09
2.99869e-09
2.14171e-09
9.65327e-09
2.63612e-09
8.03204e-09
1.4198e-08
1.21514e-08
7.39224e-08
8.86769e-08
5.14865e-08
2.20715e-08
2.32326e-09
6.04795e-09
1.41746e-08
2.09804e-08
2.46878e-08
7.71575e-09
7.07518e-09
3.83874e-09
3.72491e-09
7.96707e-09
5.91348e-09
6.14661e-09
9.42753e-09
4.574e-08
7.98789e-08
2.03633e-08
1.82544e-09
1.15872e-08
8.1068e-08
1.19202e-07
2.54906e-08
2.52672e-09
4.88369e-09
2.41523e-08
2.70486e-08
4.31834e-09
3.10154e-09
2.33565e-09
2.46606e-09
1.66723e-09
1.17927e-09
4.95742e-09
1.40118e-09
4.33168e-09
5.56412e-09
1.00471e-08
5.30945e-08
6.51729e-08
3.76745e-08
1.35754e-08
1.31834e-09
4.57867e-09
1.06639e-08
1.52503e-08
1.65543e-08
5.37454e-09
4.24113e-09
2.38289e-09
2.62344e-09
5.67558e-09
5.10917e-09
5.55783e-09
9.45378e-09
3.50728e-08
5.38838e-08
1.67374e-08
2.80589e-09
1.19737e-08
5.6896e-08
7.71066e-08
2.09822e-08
3.02818e-09
4.79847e-09
1.73961e-08
1.84653e-08
4.16382e-09
2.36982e-09
2.00858e-09
1.92279e-09
1.02689e-09
5.99811e-10
2.34107e-09
8.00074e-10
2.30254e-09
2.08485e-09
7.98082e-09
3.67908e-08
4.57095e-08
2.67214e-08
8.52129e-09
8.46929e-10
3.53235e-09
8.06147e-09
1.09701e-08
1.09697e-08
3.82718e-09
2.67586e-09
1.62597e-09
2.14082e-09
4.49746e-09
4.84692e-09
5.67602e-09
9.6634e-09
2.69497e-08
3.69392e-08
1.41249e-08
4.26392e-09
1.18157e-08
3.98032e-08
5.00914e-08
1.72459e-08
3.88209e-09
4.79883e-09
1.27693e-08
1.29647e-08
4.01388e-09
2.17068e-09
1.89021e-09
1.62628e-09
7.52896e-10
2.98779e-10
1.0107e-09
5.36573e-10
1.26514e-09
8.13462e-10
6.03203e-09
2.45413e-08
3.07165e-08
1.82811e-08
5.4159e-09
5.89136e-10
2.71904e-09
6.03929e-09
7.81059e-09
7.2766e-09
2.81679e-09
1.79405e-09
1.27094e-09
2.00078e-09
3.94439e-09
4.83403e-09
5.99996e-09
9.66594e-09
2.08185e-08
2.58938e-08
1.21287e-08
5.42469e-09
1.11121e-08
2.7882e-08
3.28343e-08
1.40519e-08
4.58256e-09
4.75952e-09
9.58239e-09
9.37118e-09
3.78451e-09
2.16891e-09
1.80998e-09
1.4377e-09
6.57701e-10
1.87313e-10
4.08776e-10
4.21739e-10
7.64597e-10
3.80031e-10
4.30462e-09
1.57038e-08
1.9733e-08
1.19889e-08
3.42539e-09
4.20978e-10
2.07531e-09
4.4781e-09
5.53851e-09
4.90845e-09
2.19129e-09
1.33919e-09
1.14668e-09
2.02604e-09
3.71825e-09
4.87877e-09
6.23832e-09
9.34861e-09
1.61981e-08
1.86391e-08
1.0508e-08
6.02374e-09
1.00004e-08
1.96522e-08
2.1796e-08
1.13224e-08
4.93458e-09
4.60402e-09
7.3639e-09
6.96304e-09
3.48803e-09
2.17293e-09
1.71405e-09
1.27627e-09
6.3897e-10
1.97356e-10
1.90846e-10
3.68777e-10
5.39524e-10
2.33204e-10
2.87116e-09
9.58605e-09
1.20453e-08
7.46931e-09
2.11445e-09
3.04482e-10
1.54368e-09
3.29483e-09
3.95019e-09
3.4234e-09
1.82874e-09
1.16034e-09
1.16317e-09
2.12796e-09
3.64838e-09
4.88959e-09
6.27045e-09
8.74898e-09
1.27253e-08
1.38115e-08
9.12524e-09
6.10293e-09
8.66979e-09
1.40234e-08
1.47332e-08
8.99784e-09
4.92593e-09
4.32801e-09
5.76167e-09
5.31727e-09
3.13376e-09
2.09903e-09
1.59882e-09
1.12503e-09
6.45517e-10
2.67947e-10
1.57161e-10
3.36251e-10
4.40838e-10
1.59003e-10
1.756e-09
5.52899e-09
6.91437e-09
4.35562e-09
1.24441e-09
2.27051e-10
1.1455e-09
2.42768e-09
2.88012e-09
2.50972e-09
1.6265e-09
1.15489e-09
1.27262e-09
2.24888e-09
3.63111e-09
4.82594e-09
6.10903e-09
7.95123e-09
1.01245e-08
1.05348e-08
7.91041e-09
5.79483e-09
7.32014e-09
1.01747e-08
1.01999e-08
7.08587e-09
4.64666e-09
3.94502e-09
4.55786e-09
4.17832e-09
2.74594e-09
1.94438e-09
1.47471e-09
9.92219e-10
6.49039e-10
3.54652e-10
1.99092e-10
3.10489e-10
3.91438e-10
1.07328e-10
9.57212e-10
2.96146e-09
3.6681e-09
2.31722e-09
6.78698e-10
1.87456e-10
8.76565e-10
1.82095e-09
2.18883e-09
1.9648e-09
1.52264e-09
1.25717e-09
1.44742e-09
2.36617e-09
3.61317e-09
4.68225e-09
5.76138e-09
7.07359e-09
8.18345e-09
8.26262e-09
6.8276e-09
5.26647e-09
6.08844e-09
7.53432e-09
7.28214e-09
5.57219e-09
4.16401e-09
3.49052e-09
3.64015e-09
3.36275e-09
2.35723e-09
1.7539e-09
1.35528e-09
8.91024e-10
6.38515e-10
4.29105e-10
2.58821e-10
2.92798e-10
3.50745e-10
7.89323e-11
4.3979e-10
1.42863e-09
1.74795e-09
1.07636e-09
3.33004e-10
1.8864e-10
7.18555e-10
1.42336e-09
1.76069e-09
1.66369e-09
1.48637e-09
1.41454e-09
1.65552e-09
2.47233e-09
3.56573e-09
4.47807e-09
5.32246e-09
6.21135e-09
6.73951e-09
6.65241e-09
5.86737e-09
4.67775e-09
5.04238e-09
5.7103e-09
5.39774e-09
4.41585e-09
3.60739e-09
3.03265e-09
2.94797e-09
2.73785e-09
2.00828e-09
1.55011e-09
1.22768e-09
8.20068e-10
6.14771e-10
4.77747e-10
3.1036e-10
2.83578e-10
3.14034e-10
8.76285e-11
1.49978e-10
5.87047e-10
7.16195e-10
4.03156e-10
1.55691e-10
2.28928e-10
6.51054e-10
1.18903e-09
1.51336e-09
1.52463e-09
1.50532e-09
1.58832e-09
1.86865e-09
2.56509e-09
3.48569e-09
4.23883e-09
4.85664e-09
5.42821e-09
5.66316e-09
5.49009e-09
5.03885e-09
4.11616e-09
4.20358e-09
4.45244e-09
4.17322e-09
3.55972e-09
3.06802e-09
2.6265e-09
2.42926e-09
2.23813e-09
1.73109e-09
1.36077e-09
1.09983e-09
7.72353e-10
5.87078e-10
4.98867e-10
3.49333e-10
2.83979e-10
2.83042e-10
1.26628e-10
3.18388e-11
1.91004e-10
2.43405e-10
1.13402e-10
1.10306e-10
3.02617e-10
6.55576e-10
1.07896e-09
1.39119e-09
1.49194e-09
1.57129e-09
1.75533e-09
2.06477e-09
2.64065e-09
3.38301e-09
3.9876e-09
4.41372e-09
4.76223e-09
4.85601e-09
4.64704e-09
4.35321e-09
3.62574e-09
3.56658e-09
3.59759e-09
3.36969e-09
2.94643e-09
2.61486e-09
2.29169e-09
2.04084e-09
1.85276e-09
1.51446e-09
1.19409e-09
9.79881e-10
7.33067e-10
5.62471e-10
4.96397e-10
3.77208e-10
2.91346e-10
2.68551e-10
1.78209e-10
3.21682e-11
6.51077e-11
9.542e-11
6.54154e-11
1.64662e-10
4.05749e-10
7.17188e-10
1.06269e-09
1.35552e-09
1.52841e-09
1.67214e-09
1.90784e-09
2.22881e-09
2.69632e-09
3.27078e-09
3.74212e-09
4.02696e-09
4.22544e-09
4.25052e-09
4.04426e-09
3.81165e-09
3.22664e-09
3.1062e-09
3.03174e-09
2.84284e-09
2.52973e-09
2.27542e-09
2.02659e-09
1.76309e-09
1.57442e-09
1.33436e-09
1.05783e-09
8.74486e-10
6.88511e-10
5.37654e-10
4.76823e-10
3.91512e-10
3.01391e-10
2.70924e-10
2.25601e-10
1.01669e-10
8.75024e-11
1.19283e-10
1.52514e-10
2.87372e-10
5.34608e-10
8.21624e-10
1.11731e-09
1.39486e-09
1.6094e-09
1.79433e-09
2.04576e-09
2.35572e-09
2.7323e-09
3.16252e-09
3.51778e-09
3.71221e-09
3.8165e-09
3.80847e-09
3.62929e-09
3.40717e-09
2.92107e-09
2.78648e-09
2.67321e-09
2.51257e-09
2.27095e-09
2.04905e-09
1.83325e-09
1.58156e-09
1.38303e-09
1.18272e-09
9.50553e-10
7.8137e-10
6.3314e-10
5.05571e-10
4.44669e-10
3.86273e-10
3.09176e-10
2.80568e-10
2.63706e-10
1.93934e-10
1.76246e-10
2.22055e-10
2.98909e-10
4.48211e-10
6.85911e-10
9.56371e-10
1.22481e-09
1.48624e-09
1.71858e-09
1.92738e-09
2.16937e-09
2.44966e-09
2.75122e-09
3.06639e-09
3.32975e-09
3.47115e-09
3.52751e-09
3.5156e-09
3.372e-09
3.12876e-09
2.66918e-09
2.57117e-09
2.47257e-09
2.33642e-09
2.1397e-09
1.92744e-09
1.7164e-09
1.47581e-09
1.25923e-09
1.06303e-09
8.60291e-10
6.95892e-10
5.66162e-10
4.58397e-10
3.98377e-10
3.5795e-10
3.04719e-10
2.83719e-10
2.883e-10
2.73185e-10
2.79618e-10
3.46583e-10
4.58089e-10
6.22682e-10
8.53661e-10