/*--------------------------------*- C++ -*----------------------------------*\
  =========                 |
  \\      /  F ield         | OpenFOAM: The Open Source CFD Toolbox
   \\    /   O peration     | Website:  https://openfoam.org
    \\  /    A nd           | Version:  10
     \\/     M anipulation  |
\*---------------------------------------------------------------------------*/
FoamFile
{
    format      ascii;
    class       volTensorField;
    location    "30";
    object      gradientUWrite;
}
// * * * * * * * * * * * * * * * * * * * * * * * * * * * * * * * * * * * * * //

dimensions      [0 0 -1 0 0 0 0];

internalField   nonuniform List<tensor> 
25600
(
(-1.29292 -0.66906 0.484364 0.705106 0.38625 1.57376 5.76724 2.20329 2.64712)
(-1.07967 -0.282575 -1.61791 2.41661 -0.30935 1.44282 6.82146 0.383274 3.23397)
(0.280729 3.12664 -2.77479 -0.580913 -0.427292 1.2436 1.23838 -0.223895 0.688366)
(-0.0633714 2.58469 -0.994888 0.204759 0.141882 1.16248 -1.8518 0.941284 0.700628)
(0.64086 -0.472517 0.659606 2.98741 -1.02579 1.12514 -0.238964 -1.51447 0.904885)
(0.803986 -1.08496 2.33134 1.57145 0.351902 0.191931 -1.72386 -1.72133 -1.01861)
(-0.369057 -1.50023 1.82613 2.1638 1.2881 1.2928 0.384604 -1.7132 0.248297)
(-1.04822 -0.262114 -1.04284 -1.77612 0.458745 2.67265 2.82903 -1.53389 1.335)
(-0.0142884 0.467213 -0.938661 1.20223 0.445336 1.82929 -2.30693 3.83528 -1.26669)
(1.65147 -0.0312059 -0.789343 -0.11676 0.0430568 0.67678 4.55919 5.21549 -2.1826)
(-0.545162 1.54885 -1.89294 -1.27429 -0.642467 1.93866 3.66089 0.121965 1.26562)
(-0.418136 -0.285151 1.33724 1.86027 -0.690282 2.16922 -3.96253 1.26948 0.971011)
(0.480971 -1.90158 2.54713 -0.0270314 -1.71297 0.896209 -2.10897 3.26933 1.9164)
(-0.384087 -1.30398 0.705241 0.155301 -1.25565 2.23468 -6.09997 2.45403 1.87456)
(-0.00921893 0.147521 -0.588277 3.38063 0.184578 2.17122 1.20179 -0.479303 0.00437601)
(-2.00097 2.19396 -1.34066 -0.945319 1.19773 1.82079 3.37205 0.00221346 0.642174)
(-2.38091 -0.518939 0.539388 0.801232 0.161332 1.41225 -1.54184 2.83882 1.77977)
(-0.762069 -2.026 1.16006 1.86265 0.584646 0.171246 0.0650543 0.9799 0.544686)
(2.06303 1.13948 -1.38888 -0.953715 -0.750214 0.807841 8.45198 2.47038 1.02041)
(1.37942 2.34078 -2.40107 -3.07079 -2.8555 1.65821 6.68554 2.89852 1.78934)
(-1.3584 -0.151184 1.04888 0.0228679 -0.963819 2.15971 2.96864 1.81999 1.09983)
(1.18166 -1.11178 1.84878 0.392367 -0.85596 1.55123 1.90635 0.575709 0.793222)
(3.90455 -0.251785 0.555415 2.12523 0.308678 -0.474276 -2.98514 1.67742 -4.50364)
(0.062954 -0.414322 0.964405 1.35151 1.75977 0.0578964 2.91696 0.973152 -2.92041)
(-4.34344 -0.693381 -0.27417 -0.517834 0.742491 1.80536 3.54332 0.0274152 1.95786)
(0.512757 -0.372429 -0.974365 2.56948 -0.0506593 1.40298 2.03892 -1.88206 1.00933)
(1.98712 0.827596 -0.458274 2.49349 -1.20515 0.223042 2.68923 2.3648 0.614836)
(-1.50427 0.239723 0.272788 3.26986 0.26468 0.46847 4.45836 0.174389 0.935608)
(0.0298213 -0.741842 -0.238699 4.10182 1.57048 1.38801 0.899144 0.641811 -1.02969)
(0.232766 0.156747 -0.720488 0.476424 -0.36838 0.640133 7.08102 1.58521 0.0114469)
(-1.34495 0.420749 0.707002 0.291246 -0.630893 0.771082 2.12356 0.155204 0.942728)
(-0.983733 0.40359 -0.829849 1.49895 0.215309 3.16611 1.02289 1.87127 1.05564)
(1.36399 1.39414 -1.58281 0.162094 1.00261 2.81464 4.45477 -0.201299 -1.09834)
(0.549408 1.15841 0.00708503 0.465609 0.746264 1.15448 1.50381 -0.374192 -2.07588)
(0.0475529 -0.823902 0.0026905 1.00643 -1.13003 -0.552377 4.88268 2.55925 -0.0824202)
(1.31862 -1.66773 1.68754 3.76315 0.488275 1.83171 2.58384 1.02534 -2.262)
(-0.458496 0.505899 0.548147 3.37726 0.715458 3.22107 0.219931 1.75444 0.617328)
(0.0616622 0.352531 -1.23705 1.63398 -2.13847 0.560062 3.83903 4.0651 2.32894)
(1.3182 -1.85367 1.21874 1.51527 -0.574908 -0.364296 -1.31185 3.14966 -1.83291)
(0.489832 -0.588188 1.63398 0.930104 0.468131 0.985342 -0.622073 1.37303 -1.12302)
(1.5503 -0.53517 0.173775 -0.827984 -0.476261 -1.50176 -2.11835 1.43495 -1.54398)
(1.10106 0.191568 0.0728941 0.0805095 1.03427 -1.89862 0.903377 4.75846 -1.27375)
(-2.52411 1.34334 0.322452 1.37012 1.27774 0.0579924 0.824679 3.39903 1.2512)
(0.96019 0.520237 0.320143 0.254013 -2.1057 2.05256 4.68794 0.962133 0.0457737)
(2.74506 -0.265447 -0.143876 -0.653504 -2.02894 1.45408 1.03293 -1.03522 -0.319767)
(0.321378 -0.282431 -0.497623 -3.08782 -2.33854 -0.191291 5.07435 -1.052 1.72466)
(-3.65684 -1.54289 0.58577 -0.85508 0.388946 -2.5102 4.39842 2.85964 2.32945)
(-1.64436 -0.300026 0.243916 1.0017 3.17474 -2.10369 3.40013 1.25185 -0.838259)
(0.332 0.726289 -1.58208 -0.665826 -0.287831 -0.104197 5.77821 -0.295799 0.146548)
(-0.992033 -0.854189 0.293837 1.03347 -0.134121 -0.0246919 5.09496 3.1584 0.904956)
(1.64836 -0.678102 1.59955 -0.670366 -0.0435219 1.65916 -6.62861 -4.97114 -1.70923)
(1.33551 -0.383415 -0.102423 -2.79965 -0.466408 1.98731 0.19053 -3.80075 -0.646827)
(0.402203 0.316943 0.39156 -1.88618 0.201754 -1.21105 3.775 1.29605 0.117754)
(0.267257 1.4226 0.53414 -2.26808 -1.49781 -1.40838 2.69019 0.501684 0.917287)
(-1.4835 1.3456 -0.329827 -2.01351 0.549488 -0.251355 7.95805 3.33435 0.28176)
(0.0770078 0.586407 -0.529575 -0.430322 1.77882 0.613903 -2.7579 -0.967771 -1.82041)
(1.39786 -0.207011 -0.984743 2.78268 -0.700265 0.00124549 1.24989 -1.729 0.023448)
(-1.22008 -1.49259 0.113121 1.10577 -0.270485 -0.961803 0.460317 0.124557 0.898982)
(-2.42363 -2.86255 0.432131 2.66857 2.58311 -1.36936 -0.636206 1.33814 -0.800361)
(-0.914722 0.00122051 -0.874617 3.77351 2.3402 0.1059 1.89789 0.587095 -1.71801)
(1.86984 2.24595 0.115287 0.0207025 -0.386853 0.794134 -2.72742 -0.396327 -2.13569)
(1.5271 0.264794 -0.161849 3.41579 0.26116 -1.43402 2.69333 4.4101 -0.836089)
(1.04731 0.764503 -0.449089 -0.742014 -0.607718 0.14196 1.49312 -1.78346 -0.382268)
(0.608191 1.56995 1.51499 -1.75097 0.282894 -1.0738 3.78444 0.883254 -0.0267619)
(-0.903539 0.273857 0.371504 0.426532 0.740832 -2.04966 3.144 3.04289 0.722726)
(-0.388798 -2.18118 -1.17247 0.668218 1.47379 -0.341056 2.43422 0.42243 -0.986771)
(0.726257 -1.98928 -0.129662 -0.137596 0.817252 -0.446027 1.93758 1.98811 -1.87963)
(0.512277 1.79321 0.490123 -0.0531349 -1.49859 -0.371829 5.1926 3.20202 1.0172)
(-0.576193 1.16685 -0.00275021 2.1925 -0.202886 -0.355085 5.06124 2.34844 1.61047)
(-0.856583 -1.27468 -0.35404 1.09372 0.757356 0.177086 3.5626 0.751009 0.225554)
(0.17936 -0.21752 0.937792 0.764269 0.590122 -0.499005 3.96359 -2.17719 -0.626887)
(-0.729366 2.07323 0.877785 0.0366015 -0.539343 -1.58263 0.729515 0.669976 1.33245)
(-1.28496 0.411648 -1.21718 0.475756 -1.37041 1.30673 6.67167 2.63874 2.57571)
(1.56262 -2.38615 -1.97706 -1.14525 -2.34348 2.57047 5.26285 0.781032 0.995583)
(1.23851 0.263879 -0.302632 0.52978 -1.89526 1.49264 1.28277 -1.4153 0.0833816)
(0.293409 1.80441 2.8193 0.105295 -0.0565581 0.129228 -6.66892 -1.61837 0.0941692)
(-0.253434 -1.85001 0.908272 0.962144 1.57199 -1.24204 1.76552 0.91336 0.331988)
(-0.703432 -2.02288 -2.33845 2.53957 0.470499 0.598909 4.96683 1.55224 0.466938)
(-0.0308679 1.28911 -0.696247 -0.211465 0.137375 0.31199 -1.7741 -0.677679 0.10329)
(-1.11662 0.949904 0.727862 -1.60577 0.914419 -1.83847 -1.10213 -1.71626 -0.131731)
(0.362724 -0.557594 0.406278 1.87989 0.11201 -0.33203 2.49739 -0.602673 0.12797)
(0.939723 1.21366 -0.171927 -3.37206 0.33671 0.493449 1.16598 -1.32236 -1.06177)
(0.169327 0.36311 0.780314 -0.210999 0.0689276 -0.185904 2.18457 0.212979 -0.453078)
(-1.64674 -0.342528 0.281328 2.03907 1.0213 -0.574196 4.40826 3.88552 0.864907)
(-1.93628 -0.646582 -1.27241 -2.79936 0.100556 0.00186279 5.78998 1.26684 1.21689)
(0.59309 0.991151 -1.21022 -5.09718 -3.01806 0.763137 -0.837973 -2.87697 1.01912)
(2.71984 3.06338 0.128972 -3.50706 -2.39265 0.939926 -3.62467 -3.59478 0.216161)
(-0.945661 -0.826241 1.06748 3.25716 0.388269 -0.48119 -3.9142 0.543797 0.820127)
(0.0435249 -2.25045 0.725163 1.44344 -0.346257 -0.625633 -0.391187 2.48857 -0.132867)
(1.40725 0.0963302 0.770044 2.49913 -0.407629 0.385143 4.16852 2.65922 -1.10271)
(-3.52119 1.07099 0.0915998 0.993611 -0.629891 -0.501952 8.92728 2.48541 3.20428)
(-1.26586 -0.0908901 -1.17154 0.376954 1.69337 -0.627445 4.92357 1.45229 0.420501)
(0.914186 -2.55424 -0.462113 1.98317 2.41198 -0.694272 3.73522 1.24066 -2.79848)
(-0.430332 -0.767877 1.48474 -0.766312 -0.261081 -1.86252 2.89393 3.67407 0.094975)
(1.37917 2.97104 1.1106 -0.531548 -1.43294 -1.25314 4.33135 7.76467 0.854848)
(2.16147 1.01236 -1.05762 2.4064 -1.84945 -1.44722 5.99011 7.21107 0.117622)
(-0.764593 -2.18832 -0.904652 0.241724 -1.33873 -0.949941 2.42482 2.28069 1.68201)
(-0.898259 0.742644 -0.0706562 -0.919631 -0.857386 0.812339 3.25989 1.92788 1.24522)
(3.865 2.93827 -0.33869 -1.00723 -1.65564 -0.643731 2.6946 0.768794 -1.44253)
(-1.02291 -0.332514 -0.469867 2.91095 0.721509 -0.599874 3.24631 1.3511 0.111044)
(-1.36109 -1.65552 -0.311796 1.66641 1.551 0.60955 1.80882 2.31764 -0.152795)
(0.581204 -1.16954 1.12559 2.00909 1.1714 -0.715689 3.67187 0.227764 -1.48246)
(-0.635775 -0.141333 0.76247 1.75861 0.287774 0.131378 1.95398 0.0905409 0.593924)
(1.08064 0.883386 -0.801168 -0.0621637 -1.6119 0.607712 3.9627 1.24932 0.799444)
(-2.02634 0.381205 0.391606 0.578386 0.595353 -0.899656 0.36503 1.58256 1.10274)
(-0.0366056 -0.47365 0.336152 0.56656 -0.439608 -0.742483 -0.268694 -1.32039 0.0332038)
(1.27482 -1.89111 -0.453876 -0.582402 1.86725 1.39421 -0.863199 -4.45121 -3.05782)
(0.60954 -0.464101 0.367899 0.943106 2.20069 0.451883 1.68667 -3.28326 -1.7476)
(0.924808 1.30072 0.237514 -0.662493 -2.67014 0.222309 6.0535 0.0092429 1.04493)
(-1.04955 0.683508 -0.806385 0.165326 -0.407149 0.341748 6.04709 0.481298 0.574194)
(-2.08206 -0.711565 -0.729849 1.55554 1.11291 0.305071 5.98749 -1.71352 0.690319)
(-1.19961 -1.06874 0.821451 2.02345 0.20909 -1.12681 -0.415139 -0.050696 0.744946)
(0.143925 -0.18988 1.89109 3.12611 0.0620042 -0.29772 -2.70266 0.458866 0.148786)
(0.686331 0.401172 -0.0193883 -1.10063 -0.605046 0.811085 0.0866225 2.40106 -0.237138)
(1.19191 1.16966 -2.04753 -0.286656 1.43789 0.691289 4.47222 2.92842 -2.60028)
(1.58355 1.52056 -0.475057 -1.88886 0.373425 0.706577 3.13144 -0.277382 -2.30869)
(1.57684 0.728237 0.970015 -6.00183 -1.93398 -1.22731 -0.0819172 2.68468 -0.620336)
(-0.980214 -1.05205 -0.0497985 -2.14507 -0.455986 -0.730256 6.41058 7.53408 1.55858)
(-2.23874 -1.20002 -0.974702 -2.51969 -0.851424 0.322773 7.66122 4.10114 2.25454)
(-0.167055 -0.956644 0.0489493 0.626056 -0.642106 -0.750791 3.89079 -1.40004 -0.124619)
(-1.56868 0.199929 1.13195 -0.976713 0.646796 0.181343 2.29494 2.89607 0.587302)
(-0.488247 0.252098 0.16067 1.0868 1.38288 0.14778 1.23766 1.96888 -0.303705)
(1.79598 1.76973 -0.439934 -1.8663 -1.38107 -0.163479 2.46825 -0.146809 -0.343322)
(-1.22623 0.465575 0.458018 -0.738967 -0.404706 -0.930777 4.15849 1.74541 1.10156)
(-3.05503 -3.34213 0.760603 3.2348 2.34562 -0.00707013 0.725867 2.80587 0.83341)
(-0.186868 -2.04419 0.144004 1.68831 2.53936 0.118526 -0.971029 1.1793 -1.03046)
(3.21481 1.4414 -0.392875 -2.63261 -1.90168 1.1096 1.20796 -2.57625 -1.21744)
(2.14738 1.19323 -0.86018 -1.11277 -2.7288 1.47551 2.27101 -3.68582 0.565753)
(-0.265105 -0.143874 -0.719773 1.41255 0.348653 -0.514137 -2.27699 -2.05006 -0.0689435)
(-1.11254 -0.981328 0.430298 -3.24905 1.31539 -1.72 -1.59398 -0.383368 -0.805633)
(-0.420083 1.06325 0.699805 1.59597 1.78542 -1.02975 -0.471614 0.416892 -1.76974)
(1.84411 1.93401 -0.34451 6.33893 -1.29868 -0.111891 1.4799 4.06116 -0.851246)
(-0.41221 -1.41611 -0.616222 0.701264 -0.0786591 0.887591 -0.2077 -0.2393 0.846219)
(-1.69002 -1.67224 0.199729 3.85361 3.69843 -0.145767 -2.30801 -2.21326 -1.44323)
(1.16625 0.297271 0.113961 2.45832 0.749543 -2.19675 2.81805 4.52763 -2.03839)
(0.848966 0.696098 -0.349268 -1.65738 -2.63714 -0.798239 6.12129 3.98346 0.77098)
(-1.30366 0.359873 0.724201 -4.02286 -0.853508 0.673345 2.05465 1.1485 1.7607)
(-2.13138 -1.52792 0.327008 0.928761 1.44131 0.501585 4.66191 2.05125 0.996307)
(1.0332 -1.14582 -0.701513 0.0392808 -0.359357 0.685418 5.9808 0.394815 -0.0494813)
(1.08894 2.38576 0.106038 -6.9739 -3.18027 1.09859 -1.60888 -3.61909 0.938899)
(0.896756 2.22987 -0.0107822 1.50601 -1.56241 1.45255 -0.787063 -3.99339 0.476362)
(1.51049 -0.817008 -0.404845 -2.43864 -0.712028 0.646675 0.195151 0.0926613 -0.560588)
(-0.665637 -1.41398 0.657764 2.91703 1.7922 -1.17907 0.0954041 1.03479 -0.833847)
(-0.237653 1.73913 0.527836 2.20008 0.31821 -1.45717 -1.99014 1.79116 -0.00575219)
(-0.532187 1.16647 -0.64349 0.351407 -0.972182 -1.28637 5.47055 1.87782 1.80145)
(-1.23094 -1.068 0.692254 4.54886 -0.239235 -0.732599 0.53431 0.877996 1.14112)
(1.05973 0.00803492 0.740314 0.123098 -0.684161 0.222429 -0.36587 1.44956 -0.486015)
(0.460809 -1.8292 -0.403543 2.63217 1.1113 0.0538045 0.842955 -2.77463 -1.84759)
(-1.0254 -0.78491 -0.0638369 -0.541349 0.834012 -0.593116 -2.9809 -0.768262 0.26021)
(0.796244 1.75244 -0.33286 -1.97356 -0.843642 -0.204347 4.79223 2.68529 0.587929)
(1.37299 0.201624 -0.319866 -0.854018 -0.573216 0.520559 1.35868 2.48568 -0.355298)
(0.410644 0.995988 0.418704 2.53717 1.30156 -0.0747728 3.16977 0.937894 -0.56684)
(-3.5077 -0.25619 0.524976 0.690512 2.33322 -0.367179 2.89907 1.96039 0.75176)
(-1.08722 -1.09643 -1.05417 1.02587 2.63925 -1.57319 -1.36382 -0.444914 -1.49881)
(0.640661 1.08315 -0.54006 -1.00321 0.426169 -0.7836 -0.262402 -1.70489 -1.5141)
(-3.89329 -0.760739 1.07475 -2.05002 -0.640145 0.824204 -0.649004 1.78927 3.34551)
(-0.279887 -2.2401 -0.168181 3.10897 0.843987 -0.0422525 -1.70995 -0.849295 0.819383)
(1.89376 -1.1193 -0.962913 -0.490017 -0.521795 -0.31953 1.38352 -2.06964 -1.55412)
(1.85521 0.922522 -0.737042 -2.73171 -0.0977218 -0.266279 6.12224 0.0063366 -1.69237)
(2.28304 1.50203 0.172978 -0.0378183 -0.177448 0.223277 3.36307 0.301621 -2.31002)
(0.956933 0.579493 0.420605 -0.346457 3.35537 0.471821 0.0573169 3.03339 -3.64904)
(0.20083 -0.262061 -0.377733 4.0818 1.63927 -0.170442 1.17018 2.06903 -1.41371)
(-0.932601 -0.732693 -0.0690526 2.72801 0.0294423 -0.188513 1.5282 1.3624 0.553959)
(1.88366 2.28223 0.404476 -0.58302 -1.94129 -0.900067 2.25933 2.41675 -0.104459)
(-0.376359 1.12369 -0.369137 3.65723 0.180498 -1.75469 4.63735 4.88336 1.04482)
(-3.49461 -2.19261 -0.322574 3.53298 3.11271 -0.780822 5.41728 2.51406 0.058099)
(0.847278 -0.690678 1.01048 0.490783 1.39011 -0.660141 0.497802 -2.84 -2.2576)
(2.10496 0.898009 -0.219464 -3.17656 -1.77848 -0.131066 -1.13967 0.522616 -0.844636)
(-1.44702 0.709772 -1.59389 -1.98839 0.323045 0.841546 0.118968 -0.864916 0.152293)
(1.3036 0.981892 0.386157 1.13721 1.1812 1.00359 -2.8644 -3.36434 -1.78114)
(3.32472 -0.719272 1.24782 2.13884 -0.892123 0.110533 0.731549 1.30475 -1.27218)
(-1.59546 -1.18282 0.216274 3.27114 0.291053 -0.249672 0.946989 0.417452 1.65468)
(-0.907891 0.970249 -0.499322 -3.68155 -0.710735 1.51486 2.00433 0.53645 1.1828)
(0.657938 -0.283165 -0.743654 -3.14151 -0.903044 1.08742 0.625102 -0.674996 -0.776546)
(-2.41295 -1.60943 0.573263 3.56869 1.4232 -1.14327 -1.84969 0.402333 0.401191)
(-2.39486 -0.113834 0.971649 -1.56587 0.863684 0.827473 0.0849065 2.63127 1.63418)
(0.95681 0.835533 0.13336 -1.30864 -0.311117 1.40538 0.153269 0.245799 -0.604641)
(1.77046 0.874392 -0.0262183 0.843152 -0.966389 -1.16959 -0.573821 0.326057 -0.691543)
(-1.80266 -0.597117 0.0370116 1.61478 1.44682 -0.147457 2.62581 1.47432 -0.145088)
(0.173303 -0.90884 0.107692 1.23887 1.536 -0.224234 -0.285539 0.0072332 -1.25959)
(1.94907 0.387643 -0.593793 1.40199 -1.06531 -1.18426 5.42328 0.694807 -0.228474)
(1.6317 1.15905 -0.8152 -0.81144 -2.82208 1.15488 1.49416 -1.09929 0.968604)
(2.53712 0.448189 -0.687322 -3.47281 -4.03036 1.5915 2.29947 0.187514 0.813959)
(-0.795673 -0.931234 -0.753733 2.89201 1.04515 -0.58176 3.08024 -0.0713813 -0.219787)
(-0.282484 0.0710166 0.793482 -0.872226 -0.295265 0.673398 -0.770517 -2.97138 -0.0308639)
(-0.301545 -0.330539 1.40145 -3.89579 -1.27146 1.64507 0.0776653 -1.46174 0.766377)
(-0.0568911 -0.793801 0.193116 2.62807 0.269352 -0.390691 2.20443 -1.71405 0.233074)
(0.141139 0.451046 -0.260587 -5.88733 -0.459614 -0.715392 1.15716 -0.174442 0.294943)
(-2.40562 -0.227323 0.0333742 -2.37479 2.19446 -0.472058 -0.362435 -0.211722 -0.268636)
(-1.0957 -0.182628 -0.000902673 0.371217 1.57814 -0.102482 0.136825 -1.03749 -0.416808)
(1.32021 0.840082 -0.60385 -4.97109 -0.474823 -0.341729 4.53169 1.50944 -0.820751)
(0.00422882 1.10879 0.17708 -2.99628 -2.29909 -0.122846 0.157097 0.452787 1.25846)
(-1.22286 0.719855 0.741027 -1.74207 0.0654856 -0.436322 2.43553 3.74058 1.17362)
(-0.634503 -1.0406 -0.398594 1.9985 1.05444 -1.23844 8.31919 5.31487 0.800333)
(-0.963955 -1.08324 -0.269181 2.21487 -2.28765 0.994285 2.8591 0.285152 2.05881)
(3.9005 1.59908 0.173438 2.71342 -2.57626 0.630316 2.40583 1.04599 -1.2725)
(2.4759 0.539244 0.0834931 6.57446 -1.50766 -0.8621 3.89732 2.89549 -0.333749)
(-4.71724 -1.70285 -0.286225 5.18845 3.04971 -0.065699 2.1491 2.3573 2.18457)
(-1.55676 -0.771206 -0.581485 5.53518 2.32149 -0.14243 1.20776 -2.01308 -1.17951)
(1.25727 -0.223304 0.366668 2.86113 1.69767 0.459598 -4.41374 -4.00579 -3.45688)
(-0.579293 0.19811 0.675162 2.79236 0.825205 -0.202426 -3.40742 1.02709 0.423521)
(1.48772 -1.86444 -0.299241 1.46746 -0.94167 -0.128374 3.41835 1.48099 -0.129496)
(-1.35521 -0.686132 -0.860253 1.23642 1.36178 0.275509 0.157704 -1.54975 0.0711908)
(-0.365072 0.724831 -0.52151 -0.0404321 0.41823 0.203929 -2.75857 -3.03632 -0.0138036)
(-0.249918 0.209278 0.732044 -0.117237 -0.642917 -1.01887 -3.13837 -0.871496 0.964761)
(-2.45828 -1.30493 0.782719 5.5992 1.4103 -0.588321 4.32107 2.57539 1.68575)
(-1.176 -1.7964 0.139133 3.50828 1.27779 0.701955 4.01315 -0.6416 0.595476)
(0.600697 0.502324 0.132624 -2.22016 -0.410845 -0.101289 -3.00136 -3.1165 -0.21012)
(2.31191 1.77563 -0.0931743 -3.00284 -1.258 -0.0630439 2.00637 -0.906752 -0.742392)
(1.67568 -1.55896 -0.0286371 4.66341 -0.521378 1.55792 1.34539 -0.894809 -0.724945)
(1.24853 0.347149 -0.0302676 -5.73375 -1.39667 1.5915 4.16399 0.29852 -0.208372)
(-2.09088 1.76337 0.580434 -4.32951 0.0999336 0.0650165 3.87843 2.9072 0.641321)
(-4.44798 -1.94214 0.2265 4.75536 2.77156 -1.04978 1.24407 2.39385 0.661366)
(3.03549 -0.217905 -1.54028 -1.45949 -0.725598 -0.251346 3.92254 1.6605 -1.51596)
(1.82121 1.22329 -0.00602484 -1.55305 -0.74591 1.34093 -0.230838 1.71387 -0.486029)
(-2.48134 -0.456868 1.35695 1.36787 1.96093 -0.638557 -0.021843 1.46288 0.68034)
(0.401134 -0.735739 -0.572349 4.70313 0.623199 -1.82444 6.6146 1.90666 -0.387327)
(0.0428325 -0.215408 -0.671475 3.73025 -0.472652 -0.97052 3.13619 1.6901 0.302854)
(1.02149 0.461363 -0.0460219 -2.4212 -1.42428 -1.20201 -3.67413 2.02078 0.352999)
(0.873226 0.522737 -0.539031 4.42059 -0.570562 -0.657933 -3.52226 -1.73488 -0.576792)
(-0.283459 -0.649806 0.79443 4.24776 -0.854531 -0.784984 -3.88395 -2.60303 0.451763)
(-1.51215 -2.48245 1.28522 6.98933 -0.498947 -0.550032 -1.13981 -0.0110791 1.46487)
(1.93041 1.16204 -0.54533 -1.36573 0.100332 0.0676275 -0.82523 -0.645095 -1.46307)
(1.32997 3.82063 -0.160089 -6.9481 -0.315327 0.531663 -0.117276 -0.760479 -0.724353)
(-4.73362 -0.374838 0.873009 2.10732 2.84907 1.9156 5.08492 -0.36083 1.40232)
(1.03189 -0.649546 0.094567 -2.18056 0.619745 0.460171 0.817969 -1.20046 -0.509679)
(-0.281209 0.44032 -0.778409 -5.05635 -1.8252 -0.920222 2.07276 1.22213 1.18279)
(-2.68163 -0.423751 -0.441175 -0.297759 2.18512 -0.0683274 2.0974 -0.910856 0.531365)
(2.74384 0.533935 0.326429 -0.791296 0.0913736 -0.190813 3.34662 -2.97019 -1.63291)
(-0.991569 -0.0847207 -0.221558 1.69875 0.607931 -0.371622 4.37885 -0.529046 -0.4294)
(-0.727457 -2.15315 -0.358372 6.94793 1.63536 -0.213557 2.6432 0.634468 -0.359448)
(2.38314 1.34249 0.337858 -1.85725 -1.14616 0.0305587 0.24706 -0.424943 -0.660451)
(-0.191533 1.91955 -0.149622 1.23785 -2.24879 0.291482 0.440396 -2.02203 1.56363)
(1.41642 -2.55575 -0.104248 3.94738 -1.75693 -0.639544 1.06717 -1.51726 0.143955)
(0.939604 -1.37336 0.647535 2.46796 1.20249 -0.150535 3.0963 3.12588 -1.27172)
(-0.471291 -0.0606762 -0.162492 1.75456 1.33157 -0.107391 5.74233 1.16586 -0.376978)
(1.51104 1.51385 -0.578428 -7.58895 -3.10515 -0.0872707 1.93007 -1.74776 0.880507)
(0.645635 1.21055 -0.453497 -0.966096 -0.675715 0.213514 2.46292 -1.06766 0.114696)
(0.0965094 -0.0729442 -0.395992 6.65252 1.09523 0.372059 0.863219 -2.05203 -2.06928)
(-1.47049 1.98848 0.572854 1.27784 1.82075 0.412199 -7.21941 -2.75554 0.282192)
(0.924457 -1.01792 0.137956 2.08276 -1.73294 0.483499 1.91937 -0.693227 1.01174)
(-0.562314 -0.10428 -0.100222 -4.07395 -0.657245 -0.813073 1.60537 0.651931 0.845385)
(-1.82407 0.0408459 0.0469617 -3.44866 1.17055 -0.359496 2.00583 1.64085 0.0969694)
(0.913332 1.0065 -0.411995 -3.06622 -0.528591 1.34182 3.34387 0.932105 -0.248148)
(2.82551 1.60173 -0.717149 -4.62701 -2.01721 1.659 -2.63558 -2.37328 -0.799228)
(-1.34937 -1.02531 0.75145 3.62268 -0.531839 0.604918 -4.6387 -1.97983 1.42479)
(-3.76023 -1.82149 1.20673 1.02292 1.36856 -0.0466871 3.16872 1.81113 2.56718)
(-1.71525 -0.572497 -0.620201 -1.17129 1.71044 -0.494468 -0.14254 0.488315 -0.00620261)
(2.78899 0.744199 -0.518749 -0.364499 -1.19251 -0.545932 -4.01282 -1.91449 -2.66414)
(-0.207446 0.672318 1.28441 -1.268 1.31029 0.150531 -4.37918 -0.870953 -1.7547)
(-1.95148 -0.270786 0.287013 0.564366 4.7806 0.177607 -1.36981 1.09554 -2.16214)
(4.29322 1.44317 -1.24479 -3.34466 -1.04095 -0.674909 2.52818 2.70481 -2.79667)
(0.393668 0.238316 -0.612266 1.84259 0.580985 -1.57201 4.036 1.75412 0.157729)
(-2.6945 -2.26708 0.536325 1.61303 1.84945 -0.700054 -2.05586 -0.166513 1.10401)
(-0.428334 0.168029 0.301521 -3.74278 0.423204 1.54246 0.757913 -0.099675 -0.111358)
(1.13644 0.629475 -0.783973 0.327013 -1.20862 -0.741275 1.61025 0.861111 0.607987)
(2.24268 -0.684088 -0.118628 -0.277065 -0.781896 -1.8476 1.08429 1.28961 -1.40819)
(-2.41696 -0.383012 0.267196 3.6648 3.41164 -0.683098 5.56202 3.03636 -1.75566)
(-1.15524 -0.556221 0.206291 0.427106 1.11456 -1.29948 4.00099 5.23134 -0.71235)
(4.00964 -0.456307 0.28478 -1.17744 -2.07274 1.14513 7.08434 -0.475666 -2.53193)
(3.19915 0.333785 -0.406473 0.0392391 -1.29263 1.86416 0.978743 -3.9958 -1.46029)
(-1.82986 1.36798 -0.141809 -3.05973 0.109149 -2.24078 -2.4966 -0.450412 1.21575)
(-5.40255 0.616999 -0.062485 2.65395 4.2156 -2.50339 0.795886 1.69038 0.874723)
(1.36241 1.05599 0.345678 -5.37897 0.471866 0.108166 -0.955233 -3.3471 -1.1039)
(2.00964 0.559435 0.760272 -0.18166 -1.47409 -1.1636 -3.50803 -2.29096 0.61419)
(-4.23278 -3.00382 -0.321673 5.14834 -0.143917 -1.93241 2.03788 2.82704 3.71886)
(0.987817 0.204 -0.194233 -6.56535 -2.48799 -0.618348 1.16532 0.0196543 0.942761)
(2.29713 1.45569 0.135617 4.31305 -0.974751 -1.08275 -2.04036 0.825732 -0.160157)
(-0.807763 -1.0503 -0.111544 0.943955 -1.1005 -1.87124 2.92821 0.281215 1.08644)
(3.2919 0.699718 -0.033841 -7.43927 -4.13826 -0.616015 0.741431 0.939038 1.03224)
(-0.877702 -0.424497 -0.354004 5.21069 -0.47971 -0.329062 3.59809 2.61907 1.53351)
(-3.0096 -1.06724 0.477409 -0.543617 3.22276 0.779616 0.748378 0.472315 -0.768865)
(2.15467 0.48347 0.280928 -1.19619 -1.50464 0.87797 6.08388 2.60768 -0.726408)
(0.247938 0.773978 -0.62187 -0.573986 -1.04142 -0.328725 1.84153 1.69223 0.526246)
(-2.03129 0.637545 0.11525 -8.24375 1.00509 -0.500293 -1.55913 -0.513164 0.666794)
(-2.18642 -0.988756 0.178669 -0.865392 0.628313 -1.52683 8.92421 1.87139 1.14614)
(0.849044 -0.507632 0.20482 -0.980375 1.04009 -0.841612 0.768606 2.57498 -1.51422)
(3.82707 0.93834 -0.0415955 -4.00933 -1.83767 0.21479 4.23233 1.8047 -1.34851)
(-0.136964 0.704577 -0.452214 -0.384549 0.605119 1.07731 3.04633 0.8373 -0.00734442)
(-1.17458 -0.174862 0.0604339 0.642455 2.07866 1.51422 0.456459 -0.433128 -0.434879)
(-2.8679 -1.31944 -0.570505 4.8118 1.37895 -0.286744 2.84463 1.96858 1.27723)
(-1.54327 -0.21122 -0.714644 -0.749214 1.64778 -0.322223 4.80182 1.98521 0.899016)
(-0.879638 -0.553842 0.33042 0.731357 0.0143589 -0.503025 2.24983 -1.02137 0.578083)
(-0.854746 -0.888844 0.526456 1.7423 1.10773 -0.144027 -2.03392 -0.453057 -0.511284)
(3.46958 0.334272 0.221267 1.52258 -1.78046 1.18795 -0.211864 -0.773131 -1.06119)
(0.548045 0.461619 -0.0972683 -1.45494 -1.12824 1.57335 -1.32467 -3.17139 0.23283)
(-3.87636 -0.645599 -0.329109 -1.35955 2.84961 -1.23251 -0.473186 -0.279349 0.451664)
(-0.323445 -0.912467 -0.192591 2.3932 0.512157 -1.95296 2.72046 0.71206 -0.405823)
(2.30557 1.47604 0.199802 -0.39628 -0.796454 0.743835 2.78988 -1.98928 -1.41066)
(1.98205 1.71566 0.462881 -2.31437 -0.190123 -0.662731 2.76205 -1.69481 -0.699706)
(-0.110469 -0.918182 -0.425886 5.60066 -0.328666 -3.37778 4.24718 0.79666 0.786288)
(-0.852834 -0.425397 -0.485334 3.15791 0.766217 -1.16564 1.63955 2.01307 0.16761)
(-1.45809 -0.257414 0.137271 -3.15302 -0.615305 -0.465465 2.33526 2.53766 1.07821)
(-0.357992 -0.485446 0.250226 -2.4627 0.908513 0.203176 0.808236 0.347357 -0.597551)
(0.955256 -0.445309 0.000753633 -0.656018 0.422416 -0.0995737 -0.0193901 -0.523741 -1.12115)
(-0.370014 -0.977768 -0.581124 -0.958178 -0.302336 0.264654 2.12033 1.53394 -0.48555)
(2.2851 1.64492 -0.501159 -5.14532 0.213726 1.4081 1.37702 0.224899 -2.57556)
(0.181195 0.74459 -0.304219 -1.23356 1.71819 0.07153 0.0911039 1.07809 -0.754514)
(-1.66662 -2.45152 0.917092 5.57467 1.68686 0.883284 4.12633 2.74364 0.0325272)
(0.95907 -0.804211 1.1628 1.5192 0.775565 -0.891882 9.44711 2.90619 -1.00415)
(-0.934622 0.561692 -1.05601 -6.92183 1.34053 -1.08004 9.48493 1.86056 -0.0826543)
(-0.196442 0.700394 -1.09058 -9.73231 -0.153713 0.632829 3.24015 -3.48805 0.471206)
(0.0707079 1.29899 0.70653 -3.44658 -1.44598 0.325982 -7.66568 -2.39944 0.985369)
(-0.12528 0.643241 0.5749 2.47955 0.103664 0.972717 -1.41974 -0.769147 0.690664)
(1.29341 -0.606517 -0.186604 -1.83422 -3.14917 -0.35464 -4.27286 -2.56504 1.09583)
(-2.7298 -1.3851 0.337096 0.411878 0.0192072 -1.91633 -5.29552 -0.69681 1.87848)
(-0.595316 -0.00842997 -0.288336 6.8481 1.89576 -0.777632 1.30643 1.40946 -0.305489)
(1.6329 0.460724 -1.033 -4.2824 -2.61551 -0.176954 -4.73641 -2.27706 -0.0516872)
(-3.62282 -1.237 0.526606 -0.590348 1.54654 -0.998199 -5.19671 -3.38032 0.585057)
(1.59223 0.305873 0.588575 -1.86533 0.626719 -0.703021 -1.28567 0.802395 -1.98732)
(2.80494 1.78947 0.359724 -6.02646 -0.588899 -1.16232 -1.16739 1.2758 -1.74269)
(-1.40212 0.596226 0.971265 -0.199212 1.46956 -0.840824 0.0698991 0.427077 0.328248)
(0.00627136 -0.403925 -0.680418 -0.75674 -0.175424 -1.11679 5.2606 0.388751 -0.0585473)
(-2.31406 -0.96224 -0.8601 2.2683 1.3675 -0.519611 6.26751 2.18004 0.993103)
(0.519503 -0.331781 -0.0170044 -4.15364 -0.638239 0.431722 5.16769 0.405437 0.260786)
(3.10786 -0.127102 -0.306981 0.928971 -3.26552 -0.229497 -0.52838 -0.674861 0.265453)
(-0.165936 0.0618416 0.388441 4.2117 0.129652 -0.740193 1.57235 1.60754 0.25403)
(1.24144 0.962111 0.570772 -2.8241 0.099545 -0.43681 2.74822 -0.763697 -1.35409)
(2.46744 2.01174 0.26712 -5.93783 -1.23586 0.444473 2.36745 -1.65831 -0.905759)
(-0.174767 0.589354 0.220875 -0.746427 -0.772835 0.0835085 5.42883 -0.0460773 0.72236)
(0.578184 0.0862151 -0.116156 2.52189 -1.88933 -1.0928 -3.24139 -1.53471 1.44173)
(-2.55903 -0.751913 -0.257217 6.47857 0.547267 0.716005 -1.03347 -1.43244 1.37386)
(-0.573454 -0.265708 0.156047 4.29493 -1.49546 0.263403 1.26176 2.09822 1.69081)
(1.12237 -0.00493351 0.463848 4.00892 -0.940999 -1.69859 1.51379 2.88844 0.510845)
(1.38949 0.441194 0.171034 2.73687 -1.58589 -2.17993 3.55702 1.37816 0.373012)
(-2.52407 1.27436 -0.457242 -2.84215 0.173528 -0.882072 2.43144 -0.118562 1.92151)
(-1.97191 -0.947695 -0.58141 4.93558 2.29272 -0.189467 0.546795 -1.01721 0.657313)
(-1.13835 -2.30784 0.342576 8.06257 2.32683 -0.836211 -0.497676 -0.307875 -0.51632)
(0.544375 0.482476 0.149754 2.17542 0.683116 0.63393 -2.15189 -0.23998 -1.0108)
(2.7951 0.985901 -0.717045 -0.0276283 -2.10583 -0.311825 -2.14146 -1.25467 -1.14659)
(0.774102 0.117382 -0.0129295 -3.13445 -1.87143 -2.15963 -5.01555 0.726539 0.240763)
(-0.266954 1.1392 0.185711 0.884703 -2.13291 -0.357986 -5.19294 1.52609 1.81988)
(-2.40223 0.259741 0.0957929 0.792929 1.38839 -0.651319 -4.46241 0.0857884 1.54307)
(-1.31469 -1.61991 0.681342 2.31784 3.40709 -0.0387015 -2.83998 0.0766075 -0.879028)
(0.400838 -0.453796 0.302901 2.29053 0.38096 0.457432 -2.96861 0.436269 -1.38971)
(-1.0992 0.385717 -0.0607308 3.2692 3.56321 1.35811 3.45683 2.01803 -1.8823)
(2.1178 0.472303 -0.243704 0.854402 0.755567 2.38258 1.34956 0.159059 -1.87355)
(2.83063 0.408204 -0.0301179 -3.24647 -2.29469 1.39031 -3.41854 -0.825837 -0.948682)
(0.0850723 -1.16928 -0.179416 3.08303 0.888796 1.16846 1.66342 0.598271 -1.00241)
(-2.10957 -0.649851 -0.553143 -1.47973 1.51596 -0.698169 2.37702 1.81593 -0.525246)
(-2.43661 -0.0798914 0.247196 0.580206 3.50796 -0.961788 0.527991 1.33795 -0.910717)
(-0.0567136 0.00464481 0.429157 2.77865 2.5737 1.0159 4.99803 2.88996 -1.17276)
(0.803982 0.799352 0.166355 -2.39307 -0.26626 1.09686 -1.8646 0.149522 -1.30841)
(1.98081 0.22226 0.0483604 5.34483 -1.02394 0.443958 -0.574931 -3.99135 -1.31964)
(0.977919 0.413894 -0.676396 3.43325 -0.185443 0.101947 3.79868 -0.219271 -0.304961)
(-0.0373537 -0.498232 -0.459484 -5.43677 1.14394 -0.347352 3.21594 0.427192 -0.899162)
(-1.35062 -1.04697 0.610309 8.03438 1.19033 0.0196425 -4.77743 -0.832321 -0.447416)
(-1.24053 1.20193 -0.0737947 -4.67633 1.39294 2.00928 2.02683 0.733699 -0.276963)
(0.0660691 0.448359 -0.299414 3.11035 1.40465 0.580724 -0.411559 -2.87871 -0.310733)
(0.596077 -0.334356 -0.0539432 9.2719 1.40926 -1.94555 -0.988371 0.411093 -1.02345)
(0.236148 0.170897 -0.353499 -4.01393 0.391223 -1.54145 2.12017 1.73191 -0.694863)
(-0.399948 -0.722632 0.543617 -1.33888 -0.203468 -2.5044 -3.29771 -1.26106 0.0172342)
(3.11272 0.35504 0.343637 -1.49168 -3.74629 -2.74605 -0.0409159 2.29304 0.440294)
(-1.57306 0.399692 0.0803372 1.89888 -1.01847 0.595626 -0.219075 1.5655 1.89785)
(-2.42535 -1.61642 0.238839 6.70482 2.70411 -0.32456 2.16031 1.60472 -0.358018)
(2.2057 -0.551411 -0.413341 -1.44811 -1.29345 -0.698018 3.85259 1.18812 -0.719494)