/*--------------------------------*- C++ -*----------------------------------*\
  =========                 |
  \\      /  F ield         | OpenFOAM: The Open Source CFD Toolbox
   \\    /   O peration     | Website:  https://openfoam.org
    \\  /    A nd           | Version:  10
     \\/     M anipulation  |
\*---------------------------------------------------------------------------*/
FoamFile
{
    format      ascii;
    class       surfaceScalarField;
    location    "30";
    object      phi;
}
// * * * * * * * * * * * * * * * * * * * * * * * * * * * * * * * * * * * * * //

dimensions      [0 3 -1 0 0 0 0];

internalField   nonuniform List<scalar> 
74080
(
0.0060672
3.19426e-05
0.00292434
0.00546551
-0.000721729
0.00285679
0.00562738
-0.000161348
0.000324424
0.00556829
0.00130535
-9.05174e-05
0.00579533
0.00149189
9.75262e-05
0.00635083
0.00118836
-0.00082696
0.00605725
0.00084389
0.00218453
0.00553607
-0.000309564
0.00398053
0.00565321
0.000592097
0.00037432
0.00631538
0.000308173
0.000612547
0.00613837
2.95301e-05
0.00130736
0.0060559
0.000594448
-0.00124481
0.00605844
-0.000304563
0.000697603
0.00595147
-0.000147115
0.00243895
0.00609687
-0.000186384
0.00314958
0.00517883
0.00067253
0.00244908
0.00394219
0.00132864
0.00162121
0.00356647
0.000354927
0.00334058
0.00426384
-0.000640076
0.00259408
0.00515084
-0.000751067
-0.000804755
0.00472547
0.000614123
-0.00079807
0.00484157
0.000483066
0.00143591
0.00682158
0.000153721
0.000931882
0.00706275
0.000761905
0.00204578
0.00510165
0.000918907
0.00364842
0.00504353
0.00069099
0.00327052
0.0060314
-0.000547588
0.00134559
0.00546259
-0.000185117
0.000950538
0.00529795
0.000586104
0.00223691
0.00552391
0.000219147
0.000778306
0.00503205
-2.23082e-05
0.00119577
0.00441842
0.000142536
0.00284541
0.00484143
0.00106771
4.01896e-05
0.00528403
0.00120012
1.43993e-05
0.00534231
0.000623874
0.000553358
0.00598864
0.000908356
0.000957448
0.00576449
0.000815352
0.00181341
0.00563754
0.000213104
0.0005709
0.00624618
-0.00016349
0.000991344
-5.25031e-05
0.00187619
0.00550173
-0.000132501
-0.000305115
0.00581755
-0.00026414
-0.000876454
0.00484301
0.000473371
6.73885e-05
0.00530086
0.000697931
0.0005307
0.00628481
0.000599786
0.000463956
0.00665673
8.36239e-05
0.00090843
0.00521932
0.0010424
0.00124943
0.0042349
0.00103521
0.000457557
0.00450764
0.000389052
-0.000319994
0.00397802
0.000171771
-0.000923965
0.00462643
5.06283e-05
-0.000491457
0.00533498
0.000521673
0.000970222
0.00535557
-7.78401e-05
0.000913966
0.00559371
-0.000800412
0.00112111
0.00504934
3.74621e-06
0.00127058
0.00492181
0.00147336
0.000917901
0.00542102
0.00092802
0.000159502
0.00522887
0.000174326
-0.000567173
0.00404391
0.000656041
0.00015455
0.00349667
0.00042711
1.2283e-05
0.00448725
0.000417658
-0.000821498
0.00488141
0.000562953
-0.000199886
0.0055519
-0.000104937
-0.000737071
0.00575902
0.000742684
0.000277794
0.00543239
0.00105111
0.00105198
0.00518964
0.00122993
0.000117957
0.00553043
-3.01574e-05
0.00012265
0.00579134
-0.00071885
0.00066509
0.00546765
0.000348323
0.000400575
0.00522288
0.000447494
-0.000313669
0.00520674
0.00021409
-0.000243928
0.0049645
-2.8316e-05
0.00148854
0.00436345
0.000661395
0.00153421
0.00487578
0.000156754
0.000352886
0.00558462
-0.000342945
-0.00103459
0.00571995
0.000711825
-0.000304233
0.00558471
0.00122975
0.00151038
0.00532896
0.000396959
0.000358974
0.00517768
-0.00017685
-0.000554563
0.000264659
-5.49866e-05
0.00462436
-0.000164081
0.000780654
0.00498829
-0.000129329
5.70812e-05
0.00524123
0.000536519
-0.000206278
0.00454262
0.000921413
0.00117572
0.00376928
0.000719906
0.00109843
0.00398689
-0.000860118
-1.24819e-05
0.00493936
-7.96776e-05
-0.00103754
0.00462973
0.0011239
-6.44139e-05
0.00472547
0.000372923
0.000290379
0.00522168
5.98921e-05
-0.000109248
0.00403121
-0.000298584
0.00193242
0.00333277
0.000948467
0.000670022
0.00366559
0.000833292
-0.001169
0.00363305
-0.000725349
0.000116807
0.00395266
-0.000564371
0.00115002
0.00480263
0.000533389
0.000830347
0.00472349
0.000378324
0.00076446
0.00431512
-9.1174e-05
0.00064831
0.0056165
-0.000114916
-0.000164688
0.00550613
0.000517632
0.000353871
0.00493328
0.000954898
0.000111911
0.00507875
0.00110386
-0.000660702
0.00488023
8.95826e-05
0.000810795
0.00526861
0.000121847
0.000478227
0.00450738
0.00134216
0.000116868
0.0044758
0.00107186
0.000913872
0.00501067
0.000655728
-1.25824e-07
0.00503746
0.000192259
-4.71582e-05
0.00558719
-0.000598221
0.000778911
0.00528872
0.000296804
0.00102038
0.00437819
0.000738272
0.000285916
0.00389364
0.000147225
0.000250504
0.00390958
0.000683613
0.00083011
0.00419571
-0.00012164
0.0013833
0.00457052
0.000178636
-3.42907e-05
0.00521799
0.000890946
-0.00087808
0.00599036
0.000725855
0.000181713
0.00552416
0.000255141
0.000981558
0.00468726
-0.000436282
0.000816155
0.000111866
-1.21342e-05
0.00417689
6.72569e-05
-4.15906e-05
0.00380875
0.000428207
-7.85252e-05
0.00455212
2.60535e-05
-0.000235679
0.00425067
0.000833715
0.000267843
0.00308121
0.00159104
0.000947263
0.00283219
-6.38284e-05
0.000526167
0.00402607
-0.000668311
0.000150739
0.00483884
0.00014543
0.000600066
0.0048133
0.000320537
-3.53243e-05
0.00441568
0.000525232
-0.000548526
0.00415153
0.000533704
-0.000465086
0.00486223
0.000651535
-0.000298901
0.004807
0.000673906
0.000304321
0.00410055
0.000439591
-7.34307e-05
0.0044976
-0.000230304
-0.000421487
0.00493109
-0.000221177
-7.88363e-05
0.00446123
8.39434e-05
0.000463973
0.00366628
0.000353514
0.000862894
0.00387309
-0.000204193
0.000305002
0.00441331
-0.000478245
-8.42875e-05
0.00463465
0.000495762
-5.11287e-05
0.00523103
0.000750459
-0.0001897
0.00503422
0.000634381
-0.000344372
0.00495254
0.000287804
8.95526e-05
0.00471302
0.000928426
-6.03207e-05
0.00435581
0.000916097
-0.000139295
0.00463222
0.000382046
0.000975503
0.00481364
0.000564462
0.000516642
0.00451471
-0.000307099
0.000894032
0.00469959
-3.18769e-05
0.000678382
0.00524866
0.000372342
0.000197815
0.00539645
0.00037721
-0.00030984
0.00429884
0.00148311
0.000282688
0.00366818
0.000921021
0.000381872
0.00406652
0.00038975
-0.000598288
0.00279335
0.000779711
0.00118172
0.00236313
0.000941145
0.000983949
0.00313543
4.97722e-05
-5.35944e-05
0.00374625
-0.000517916
-0.00017191
-3.37748e-05
-0.000875342
0.00384336
0.00114629
-0.000629016
0.00393104
0.00101819
-0.000234231
0.00367225
0.000128178
0.000214863
0.0043078
0.000161296
2.82121e-05
0.00417349
0.00140558
0.00034019
0.00308992
0.000992703
0.000195026
0.00319205
-8.22157e-05
-8.92329e-05
0.00400331
-0.000407412
0.000402308
0.00360555
0.000519464
-2.40931e-06
0.00383499
0.00086917
-0.000955655
0.00488396
0.000129783
-0.000308915
0.00456253
0.000584617
0.000364683
0.00418714
0.000536987
0.000427835
0.00451176
0.000241158
0.000150384
0.0037344
0.000382999
6.17746e-05
0.00285248
6.76069e-05
0.000813498
0.0031481
-1.96998e-05
0.000775469
0.00374999
5.40556e-05
0.000380969
0.00319416
0.00032609
0.00041209
0.00315385
1.9944e-05
0.000335262
0.00373913
0.00010647
0.000441592
0.00429109
-0.000112142
0.000164067
0.00520032
-0.000630983
0.000173732
0.00493171
0.000612984
-2.06406e-05
0.0049015
0.000952061
-0.000152235
0.00478938
0.000646675
0.000488222
0.00470784
0.000424088
0.000380744
0.00484781
0.000363128
0.000473572
0.00410624
0.000502102
0.000325372
0.00361931
0.000542746
0.000164913
0.00399405
0.000340267
7.78028e-05
0.00421179
-0.000218609
0.000141902
0.00371353
0.00141855
0.00079652
0.00336073
0.00116382
0.000975633
0.00318075
-0.000186706
0.00069402
0.00428436
-8.2248e-05
-7.04585e-05
0.00519666
0.000268802
-0.000213903
0.00378095
0.000906234
0.000728427
0.00323283
0.000255549
0.000380675
0.000557272
-0.000517149
0.00401885
0.0014
0.000118026
0.00450815
0.000678082
0.000138246
0.00417867
0.000449271
-0.000223577
0.00401638
0.000288607
-0.000322901
0.00398393
0.00129477
-0.000323055
0.00327185
0.00131575
0.000214335
0.00282686
0.000269417
0.000185543
0.00300665
-0.000498566
2.32801e-05
0.00367278
3.68453e-05
9.38228e-05
0.00410011
0.000659462
0.000149227
0.00457565
-0.000250113
0.000125517
0.00410898
0.000774959
0.000266441
0.00270226
0.00146633
0.00104994
0.00340306
5.51986e-06
0.000246764
0.00412869
-1.95065e-05
-0.00055106
0.00342313
0.000628774
0.000627971
0.00341975
0.000188978
0.000683101
0.00347445
-0.000104206
-7.08179e-05
0.00377191
-0.000179634
-5.05896e-05
0.00398411
-0.000191474
-0.000352962
0.00399058
-0.000105327
-0.000260824
0.00355841
-0.000254743
0.000760832
0.00402944
-0.000684328
0.000198934
0.00452659
0.000444091
-0.000209719
0.00319235
0.00184173
0.000670524
0.0032687
0.000773116
0.000578421
0.00342857
-0.000161984
0.000680061
0.00252178
0.00106167
0.000108881
0.00319948
0.000411329
-0.000159074
0.00310486
0.000719294
0.000253214
0.00274166
0.000862866
-7.97066e-05
0.00345749
-0.000614815
-0.000295597
0.00348729
0.00083074
0.00047453
0.00385006
0.000708808
-7.79281e-06
0.00408169
4.78802e-05
-0.000116645
0.00397638
0.00028393
0.000217259
0.0044838
-0.000493748
0.000349662
0.00455687
0.000785482
0.000180135
0.0047694
0.00060982
-0.000383742
0.0010129
-0.000196158
0.00390467
0.000997438
0.000102005
0.00381484
0.000566953
0.0001204
0.00335517
0.000844552
8.46661e-05
0.0034638
0.000195854
0.000184668
0.00422825
0.000793674
-0.00016637
0.00403868
0.00122548
-8.55234e-05
0.00299914
0.00058336
0.000626293
0.00239712
-3.7195e-05
0.000579509
0.00321785
-0.000228928
-0.000202509
0.00319205
0.00114806
-6.75203e-05
0.00250938
0.00103122
0.000213232
0.00371469
0.000408472
-0.000127256
0.00390602
0.00135248
0.000239278
0.00322714
0.000449334
0.000436977
0.00307627
0.000205211
0.000280906
0.00326905
0.0002636
2.01144e-05
0.0038864
-0.000120701
-0.000300096
0.00335635
0.000902569
-0.000110375
0.00301098
0.000277752
-0.000119029
0.00391559
-0.000603818
-0.000376588
0.00480251
-0.000554552
-0.000480188
0.00463741
-0.000376614
4.2801e-06
0.0031253
0.000524335
0.000277283
0.00329918
0.000645573
-0.000452625
0.00385824
0.00126136
-2.71445e-06
0.00280166
0.000730015
0.00085333
0.00299147
-0.000679223
4.91205e-05
0.00354539
0.000625775
-0.000135581
0.00342306
0.00017668
0.000139513
0.00420597
-0.000436608
0.000443542
0.00412442
0.000611471
0.000274521
0.00329176
0.00038365
-0.000256993
0.003789
0.00048077
2.76285e-05
0.00395315
0.00040645
-0.000222173
0.00342681
0.000353434
0.00012103
0.00279861
0.000555996
0.000346762
0.0029348
-0.000214248
4.95035e-06
0.003952
0.000186056
0.000278692
0.00400745
0.000594989
0.000105929
0.0015917
-0.000234462
0.00321859
0.00134586
0.000411779
0.00275694
0.000855063
9.36409e-05
0.00260797
0.000814049
-1.61308e-05
0.00230215
0.000566607
-7.67206e-06
0.00308857
0.000342629
-2.84723e-05
0.00339417
0.000838387
0.000221211
0.00244086
0.00138732
0.000121211
0.0022654
0.000208134
2.20483e-05
0.00281072
-0.000423617
-0.000285131
0.00331055
0.000871515
-6.66728e-05
0.00330484
0.000886766
0.000153722
0.00310356
0.000599755
-0.000269504
0.00282627
0.00139621
0.000315584
0.0026539
0.000817545
0.000263092
0.0028659
0.000303024
3.78307e-05
0.00281201
0.00028585
-0.000122288
0.00330146
-1.71619e-05
-0.000598389
0.00341764
0.00112981
-0.000376719
0.00304732
0.000660421
-0.000155466
0.00322794
-0.00054473
1.68249e-05
0.00298667
-0.000229564
7.84131e-05
0.00293764
-0.000279167
-0.00058562
0.00301578
8.87128e-05
-0.000377512
0.00290638
0.000632158
-1.92067e-05
0.00328327
0.000686017
-0.000180143
0.00267499
0.000793947
-1.32206e-05
0.00240545
-0.000335026
0.000129739
0.0028676
7.12309e-05
-0.000311117
0.00202791
0.000628034
-0.000428522
0.00225025
-0.000188868
-0.000233442
0.00304655
0.000409628
-0.000665427
0.00273073
0.000654153
2.16009e-06
0.00268815
0.000396295
0.000518875
0.00214823
0.000654196
4.01524e-05
0.00223713
0.000165864
7.34364e-05
0.00300511
-0.000278668
-0.00022165
0.00295156
-0.000217773
-0.00016114
0.00321468
0.000287793
-6.55838e-05
0.0038216
0.00031374
-3.98427e-05
0.00141215
0.000335028
0.00365957
0.000770229
7.86768e-06
0.00310702
0.00109796
6.27837e-05
0.00293889
0.000514116
0.000202105
0.00311358
0.000245669
8.0491e-05
0.00350083
-5.49422e-05
5.11339e-05
0.00303253
0.000830657
0.00027164
0.0025089
0.00175669
2.95635e-05
0.00223565
0.000684302
-0.00027397
0.00229678
-0.00021398
-0.000146831
0.00294844
0.000463708
-0.000100937
0.00313159
0.000626074
-0.000243463
0.0031308
0.000143083
4.45628e-06
0.00261961
0.0015369
-0.000172405
0.00223106
0.00146022
-0.000402055
0.00237947
0.000411802
-4.84293e-05
0.00209048
0.00099882
-0.000158071
0.00252546
0.000124115
-0.000201445
0.00316661
0.000718701
-0.000147277
0.00320545
0.00085222
-9.96451e-05
0.00286918
-0.000146648
-0.000152884
0.00225846
0.000614592
-0.000121547
0.00212629
0.000225087
-0.000120515
0.00239963
0.000110058
-0.000176351
0.0027653
0.000578721
-3.30884e-05
0.00300785
0.000508774
3.44447e-05
0.00306552
0.000898992
-0.000320533
0.00279591
-1.55878e-05
-0.000107024
0.00248333
0.000335917
0.000272203
0.00247032
0.000755373
-0.000197689
0.00257013
4.49546e-05
-0.000395319
0.0026884
0.000568948
-0.000337218
0.00252525
0.000786091
-0.000299441
0.00319647
-0.000403735
-2.76199e-05
0.00297878
0.000366791
2.98888e-05
0.00237492
0.000786189
-7.38535e-06
0.00287435
-0.000598138
6.44313e-05
0.00268149
-9.14519e-05
-2.05387e-05
0.0023591
0.000817986
-2.74593e-06
0.00254997
0.000333197
6.92717e-05
0.000329064
1.46108e-05
0.00341263
0.000227448
-0.000197835
0.00325913
0.00113384
5.33019e-06
0.00293058
0.000579286
2.44141e-05
0.00262021
0.000523151
-0.000311219
0.00265717
0.000216376
-0.000618821
0.00289701
0.000399662
-9.92758e-06
0.00309765
0.00120706
0.000143759
0.00278499
0.000970272
-0.000176028
0.00253752
8.54019e-05
0.000130356
0.00251948
0.000551374
4.56777e-05
0.00250951
0.000573808
-0.000428334
0.00278271
-0.000429956
-0.000197501
0.0025304
0.00161645
-0.000197753
0.0025317
0.00155407
-0.000184774
0.00285217
0.00017319
9.08859e-05
0.00264876
0.00106125
0.000292059
0.00253905
0.000288993
0.000263499
0.0027658
0.000797222
-0.00022673
0.00265286
0.00119644
-0.000381874
0.00259466
8.09943e-05
-0.000192075
0.00271503
0.000595963
-8.32772e-05
0.00245252
0.000527976
-1.95558e-05
0.0026273
0.000357302
-0.000197933
0.00320011
0.00031205
-0.000132091
0.00256809
0.000863046
8.67823e-05
0.00240297
0.00102014
-0.000132378
0.00242669
6.22966e-05
-1.7926e-05
0.00217461
0.000780497
-8.10337e-05
0.00271773
0.000242477
-0.000433208
0.00252225
3.81552e-05
-0.000426386
0.00204761
0.00100044
-0.000521657
0.00194169
0.000800164
-0.000408213
0.00229612
-0.000606335
-0.000487427
0.00258106
8.27978e-05
-0.000182929
0.00234708
0.00087849
1.60527e-05
0.00226814
-0.000148236
-0.000411854
0.00240504
-0.000130527
-9.76994e-05
0.00246232
0.000748771
0.000217764
0.00227076
0.000505167
0.000232613
-0.000324194
-7.28476e-05
0.00291477
7.93384e-05
-0.000339162
0.00297726
0.00103023
-0.000144308
0.00254985
0.000927908
5.11829e-05
0.00222328
0.00104058
-0.000204732
0.00231602
0.0005233
-0.000418091
0.00253654
0.000318944
-4.59363e-05
0.00287542
0.00078318
7.41493e-05
0.00294258
0.000741879
9.35863e-05
0.00251284
0.000396621
0.000103623
0.00274221
0.000315599
5.03864e-05
0.00323347
-1.86957e-05
-2.92517e-06
0.00287448
-0.000297325
-9.54906e-05
0.00229006
0.00213757
5.89112e-05
0.00194287
0.00197167
-8.11472e-05
0.0018772
0.000484986
-0.000276844
0.0023338
0.00083924
-0.000210704
0.00258974
0.000183323
-0.000346666
0.00270691
0.000700951
-0.000277252
0.00269742
0.00114215
3.10939e-06
0.00238886
0.000114062
0.000187179
0.00249116
0.000310173
0.000197808
0.00217275
0.000821251
0.000168382
0.00223105
0.000623804
-6.3959e-06
0.00277493
5.73568e-05
9.70231e-05
0.00241317
0.00112103
-3.11662e-05
0.00238358
0.000973971
-9.7634e-05
0.00199384
0.000364163
-7.65749e-05
0.00179264
0.00111585
-0.000350206
0.00233133
-7.50267e-06
-0.000567412
0.00245225
0.000141541
-0.000330113
0.00259869
0.00105725
-0.000298426
0.00252912
0.000837939
-0.000350838
0.0025764
-0.000567875
-0.000326795
0.00262459
2.98209e-06
-8.99913e-05
0.00212468
0.00127653
-0.000101549
0.00178036
0.000423082
-0.000309554
0.0021508
-8.38411e-05
-0.000506924
0.00247592
0.000597481
-0.000299093
0.00234734
0.000640194
5.03471e-05
-0.000320828
-0.000249292
0.0021568
0.000335445
-0.000198612
0.00243974
0.000641041
-0.000284019
0.00206059
0.00107317
-0.000156536
0.0019737
0.00116946
-0.000200416
0.00218854
0.000418487
-0.000127929
0.00204243
0.000263322
0.000183071
0.00238207
0.000306588
0.000139341
0.00250422
0.000605151
8.75774e-06
0.00198792
0.000813049
-0.000141857
0.00202813
0.000282101
-0.000261181
0.00235762
-0.000296658
-0.000367035
0.00227604
-0.000161253
-0.000427121
0.00235834
0.00206162
-0.000202814
0.00250167
0.00183763
-7.20535e-06
0.00214537
0.000898286
1.1258e-05
0.00198546
0.00113228
-0.000285358
0.00217541
0.000290788
-0.000394854
0.00259394
0.000501122
-0.000383543
0.00294283
0.000788646
-0.000192205
0.0025474
0.000247979
3.82355e-05
0.00227181
0.00050789
-2.03782e-05
0.00199546
0.00103612
-2.79413e-06
0.00196593
0.000711106
-0.000137708
0.00233139
-8.2962e-05
-0.00014649
0.00254718
0.000916313
-0.000121781
0.00260242
0.000833021
-0.000205579
0.0023592
0.000533066
6.0554e-05
0.0023217
0.00125283
3.68168e-05
0.00185689
0.000610944
-0.000316827
0.00220671
-2.10719e-05
-0.000447824
0.00313657
0.000114579
-0.000146235
0.00268423
0.000835787
0.000315528
0.00234377
-0.000447844
7.486e-05
0.00233495
2.07422e-05
-0.000137028
0.00193792
0.001743
-0.000256017
0.00185906
0.000710741
-0.000337069
0.00201579
8.27318e-05
-0.000466994
0.00211379
0.000698178
-0.00033398
0.00231143
0.000353336
-3.79806e-05
-0.000154449
-9.33655e-06
0.00205571
0.000374561
-6.45461e-05
0.00188917
0.000683585
-9.1513e-05
0.00170498
0.00121219
-1.94216e-05
0.0017379
0.0012033
-0.000100488
0.0017251
0.00060878
-0.00034428
0.001793
6.02198e-05
-9.7296e-05
0.00205052
-0.000153484
0.000197249
0.00223498
0.000507266
9.04253e-06
0.00227237
0.000899417
-0.000180525
0.00206939
0.000579293
-0.000209608
0.0018413
-4.59584e-05
-0.000254916
0.00178063
-4.3041e-05
-0.000262497
0.00184543
0.00199677
-0.000229653
0.00191984
0.0016629
-0.000142996
0.00212145
0.000636201
4.31934e-05
0.00238283
0.000918171
-0.000108651
0.00252055
0.00044125
-0.000315137
0.00267855
0.000444721
-0.000260813
0.0028364
0.0005477
-0.000271085
0.00251246
0.000587927
-3.71834e-05
0.00224752
0.000698561
2.2869e-05
0.00213467
0.000943556
-0.000124884
0.00185941
0.000955879
-0.000100076
0.00212154
-1.64252e-05
-0.000343808
0.00245155
0.000639947
-0.000242784
0.00216926
0.00106585
-0.000285193
0.0020436
0.00065857
-0.000173537
0.00215931
0.00119264
-0.000191515
0.00195451
0.000943001
-0.00026241
0.00213373
-2.34302e-05
-0.000317107
0.00245054
-0.000173211
-0.000318062
0.00236226
0.000713448
-4.10283e-05
0.00198727
-0.000185374
-0.000125095
0.0018607
0.000231416
-0.000365462
0.00186879
0.00177568
-0.000239553
0.00147906
0.00121857
-0.00018109
0.0014438
0.000381251
-0.000322674
0.00169674
0.000546774
-0.000240855
0.00187608
6.3493e-05
-0.000162473
-0.000249727
-0.000108065
0.00199867
0.000449417
-0.000258663
0.0019498
0.000812465
-0.000263086
0.00166033
0.00157392
-9.1981e-05
0.00167804
0.00133082
-0.00016476
0.00159477
0.000897164
-0.000212396
0.00162067
6.23632e-05
-0.000233116
0.00178942
-0.000370282
-5.47706e-05
0.00180213
0.000559775
-5.03142e-05
0.00195619
0.000876711
-0.000286273
0.00202959
0.000637777
-0.000248265
0.00188085
0.00013257
-0.000249212
0.00185326
9.08685e-05
-0.000271858
0.00195543
0.00183617
-0.000156402
0.00185064
0.0014228
3.11222e-06
0.0020608
0.000271917
7.9861e-06
0.00243925
0.000639415
-0.000133448
0.00252403
0.000511879
-0.000243699
0.00250596
0.000399362
-0.000117313
0.00226936
0.000668124
-0.000107635
0.00193111
0.000963567
-3.38918e-05
0.00186447
0.00066065
1.70163e-05
0.00165899
0.00089631
-0.000122259
0.00165901
0.000952149
-0.000137119
0.0020248
-0.000139679
-0.00019567
0.00208556
0.000627088
-0.000150821
0.00172658
0.00132242
-0.000211644
0.00168853
0.000713436
-0.000202325
0.00200497
0.000993252
-0.000143455
0.00210405
0.000807941
4.15834e-05
0.00214227
-1.72164e-05
-0.000124441
0.00209508
-2.77394e-05
-0.000270929
0.0019962
0.000688563
-5.37853e-05
0.00178064
-8.89604e-05
-0.000141634
0.00168097
0.000372938
-0.000303207
0.00170089
0.00183772
-0.000260198
0.00163604
0.00146581
-0.000118966
0.00162212
0.000570528
-0.000187852
0.00179342
0.00036303
-0.000167709
0.00186535
-0.000131263
1.80159e-05
-3.03763e-05
-9.16737e-05
0.00191915
0.000293118
-0.000100629
0.00176864
0.00100735
-0.000160333
0.00152525
0.00194706
-8.73832e-05
0.00160893
0.00136693
-0.000134235
0.00143483
0.00107898
-0.00020162
0.00125568
8.17475e-05
-0.000143939
0.00141957
-0.000655935
4.33912e-05
0.00170529
0.000277538
5.18975e-05
0.0017416
0.000857882
-8.03056e-05
0.00175303
0.000612414
-0.000107385
0.0015526
0.00027878
-0.000238283
0.00165621
0.000106909
-0.000238212
0.00202194
0.00152878
-0.000210502
0.00178879
0.00144949
-0.000110915
0.0018709
2.9035e-05
-0.000100869
0.00207648
0.000487061
-0.000215753
0.00196959
0.000620885
-0.000143999
0.00194834
0.000370634
-0.000196695
0.00185095
0.000655794
-9.02401e-05
0.00173472
0.000911599
0.000214905
0.00189135
0.000358664
0.00013333
0.00177305
0.000827191
1.10618e-05
0.00154574
0.00107448
1.58772e-05
0.00169553
-0.000218892
-8.29276e-05
0.00183131
0.000533262
-0.00022451
0.00144056
0.00162391
-0.000110081
0.00140319
0.000871635
-0.000195078
0.00176359
0.000800771
-0.000242186
0.00174306
0.00079423
1.61156e-05
0.00174337
-1.3372e-05
-7.33179e-05
0.00184661
1.05246e-06
-0.000302434
0.00170985
0.000798133
-0.000154773
0.00138311
8.97987e-05
-0.000181736
0.00126417
0.000597058
-0.000427101
0.00136886
0.00177754
-0.000235554
0.00143996
0.00145759
-0.000100908
0.00148733
0.000618274
-0.000254499
0.00165645
5.64778e-05
-8.18507e-05
0.0016897
-0.000205237
-8.33314e-05
0.000249475
-0.000237351
0.00152471
0.000250062
-0.000190444
0.00153777
0.00102986
-0.000150131
0.00151061
0.00217628
-6.78436e-05
0.00138339
0.00163359
-0.000127729
0.00106049
0.00131632
-0.000214993
0.000986783
3.18022e-05
-0.000232697
0.00127881
-0.00109286
-8.5816e-05
0.00153953
-0.000209675
0.00010014
0.00151254
0.000719484
9.23469e-06
0.00144503
0.000630856
-1.08987e-05
0.00137057
0.000404235
-0.00017709
0.00164164
1.93247e-05
-0.000232299
0.00186922
0.00136709
-0.000113217
0.00180252
0.00126678
-4.07073e-05
0.0019568
-0.000278082
-0.000105291
0.001684
0.00078419
-0.000155817
0.00147617
0.000853831
-0.000135926
0.00162578
6.96281e-05
-0.000103179
0.0016812
0.000412996
-7.04601e-05
0.00152098
0.000964936
3.22565e-05
0.00159608
0.000190558
-4.68909e-06
0.00183027
0.000523276
-4.39671e-05
0.00168079
0.00116015
-3.60994e-05
0.00157163
-0.000192292
5.68016e-05
0.0015155
0.000486682
-0.000181339
0.00125996
0.00179147
-0.000106096
0.001436
0.000941495
-0.000225656
0.00166867
0.000741932
-0.00027728
0.00144123
0.00101818
-1.11805e-05
0.0013788
0.000128722
-0.000141374
0.00141696
0.000159448
-0.000373334
0.00148379
0.000746647
-0.00021757
0.0012107
0.000249299
-0.000244093
0.00104371
0.000841732
-0.000393363
0.00130283
0.00158576
-0.000180669
0.00136172
0.00137849
-9.50376e-05
0.00140505
0.000613766
-0.000245332
0.00150719
-0.000103258
-0.000250594
0.00145321
-0.000106074
-0.000211707
0.000628572
-0.000260606
0.0012173
0.000200297
-6.17735e-05
0.00121073
0.00103999
-0.000108755
0.00151612
0.00204268
-0.000116759
0.00170638
0.00149543
-7.04927e-05
0.00134041
0.00158393
-9.43215e-05
0.001047
0.000334506
-0.000167543
0.0011205
-0.00116845
-0.000143747
0.00128189
-0.000561059
5.48434e-05
0.00140694
0.000362828
9.92924e-05
0.00135781
0.000575116
2.73243e-05
0.00139896
0.000409346
-0.000119858
0.0017142
-0.000106659
-0.00014
0.00160249
0.00157071
-0.000128805
0.0013917
0.00106683
5.6569e-05
0.00156192
-0.000620156
-9.64791e-05
0.00132693
0.00106065
-0.000229488
0.00118433
0.00094199
-0.00013751
0.00141405
-0.000184794
-0.000134391
0.00143806
0.000333341
-3.05081e-05
0.00132281
0.000909541
-7.77974e-06
0.00136736
3.59559e-05
-0.000157137
0.0015232
0.000379997
-0.000141119
0.00146883
0.00109108
-2.23633e-05
0.00142553
-0.000227313
-1.39888e-05
0.00142702
0.000470663
-0.000224288
0.00123333
0.00186817
-7.58589e-05
0.00123081
0.00113901
-0.000266135
0.00141484
0.000732317
-0.000337826
0.0013617
0.00107119
-5.27768e-05
0.00131485
0.000207986
-0.000138898
0.00128829
0.000363407
-0.000338435
0.00144956
0.000664764
-0.000269852
0.00123089
0.000380416
-0.000209652
0.000969576
0.00113239
-0.000252158
0.00106671
0.00149127
-0.000197715
0.00120797
0.00113237
-0.00013782
0.00138261
0.000331067
1.23073e-05
0.00136038
-0.000176423
-0.000122705
0.0012553
0.000102123
-0.00030787
0.000956624
-0.00017119
0.0011583
0.000134814
-5.90555e-06
0.00102513
0.00112034
-3.72029e-05
0.00136152
0.00173218
-4.34508e-05
0.00160928
0.00122879
-5.81512e-05
0.00139889
0.00167287
-9.32718e-05
0.00114283
0.000606506
-0.00016966
0.00105775
-0.00094246
-0.000203649
0.00117027
-0.000698213
-9.53569e-05
0.00129199
7.7605e-05
0.000135796
0.00133735
0.000450747
4.09455e-05
0.00128593
0.000506165
-4.48359e-05
0.00144975
-0.000133845
-0.000179633
0.00145395
0.00166772
-0.00018012
0.00113687
0.00107137
8.13204e-05
0.00124107
-0.000954062
-7.5974e-05
0.00140329
0.000988319
-0.000250507
0.00112183
0.00112473
-8.9477e-05
0.00112695
-0.000193805
-0.000218465
0.00130378
0.000208758
-0.000116356
0.00130471
0.000787513
4.70032e-05
0.00130247
-7.88186e-05
-0.0001269
0.00130359
0.000413904
-0.000220076
0.00131207
0.000964608
-7.20407e-05
0.00135211
-0.000370927
-7.35644e-05
0.00132231
0.000470373
-0.000209789
0.0012196
0.00197548
-0.00020146
0.00123351
0.00126373
-0.000180017
0.00139941
0.000603714
-0.000148252
0.00132922
0.00107642
4.8773e-06
0.00118953
0.000325851
-7.80863e-05
0.00112143
0.000543943
-0.000305515
0.00117475
0.000627387
-0.000226624
0.00101636
0.000407688
-0.000130079
0.000875842
0.00133719
-0.000162189
0.000936006
0.0015591
-0.000270391
0.00116801
0.000784288
-0.000107298
0.00139247
-9.64342e-05
0.000113089
0.00131865
-0.000203699
4.66454e-05
0.00121503
0.000313655
-0.000204671
0.00108228
-0.000184924
0.00119657
-4.26065e-05
-1.86343e-05
0.00110909
0.0011285
-8.06503e-05
0.00129696
0.00145725
1.03688e-05
0.00131772
0.00109777
-2.34688e-05
0.00109655
0.00174041
-9.25019e-05
0.00107635
0.000650005
-0.000256546
0.00114095
-0.000884176
-0.000197795
0.00108455
-0.000648947
-0.000149459
0.00117423
-5.64685e-05
-2.84939e-05
0.00124816
0.000347979
8.16362e-07
0.00119718
0.000517749
2.33077e-05
0.00135167
-0.000230829
-0.000108906
0.00127774
0.00176197
-7.33999e-05
0.00109162
0.00101415
-5.97048e-05
0.00127789
-0.0012649
-0.000100673
0.00133125
0.000968203
-0.000152593
0.0010168
0.001473
-0.000175301
0.00111509
-0.000200502
-0.000160189
0.00125918
6.99638e-05
-0.00011839
0.00121923
0.000730644
-2.65508e-05
0.00111686
4.34032e-05
-0.000185366
0.00107733
0.000510241
-0.000340763
0.00127511
0.000669152
-0.000110887
0.00121235
-0.000423245
-7.34048e-05
0.00101865
0.00057954
-0.000140182
0.0011414
0.00184922
-0.000139423
0.00132322
0.00120237
-7.9878e-05
0.00140364
0.000526423
-0.000131833
0.00117622
0.00117398
6.57726e-05
0.00102505
0.000481474
-0.000110019
0.000957848
0.000674507
-0.000222219
0.000832267
0.000692159
-7.37569e-05
0.000798853
0.000324275
-5.84557e-05
0.000816823
0.00133938
-6.20296e-05
0.00103946
0.0014318
-0.00016485
0.00121662
0.00048491
-2.48024e-05
0.00119885
-0.000270537
3.79932e-05
0.00111836
-0.000198846
6.41282e-05
0.00111946
0.000349997
-0.000132713
0.000934203
-0.000185318
0.0010839
-0.00032864
-3.7068e-05
0.0011394
0.00105302
-5.01072e-05
0.00131966
0.00116501
8.70902e-06
0.00122882
0.00103671
5.66952e-05
0.00104006
0.00173422
-4.84686e-05
0.00114895
0.000503089
-0.000181522
0.00114258
-0.000804122
-0.000144059
0.00096958
-0.000469751
-0.000102094
0.00104887
-0.000166433
-8.56788e-05
0.0011607
0.000242265
-6.79586e-05
0.00112363
0.000479857
-1.94551e-05
0.00126738
-0.000365519
-0.00011563
0.00119852
0.00197153
-0.000152732
0.00100307
0.00103614
-6.36697e-05
0.0011414
-0.00141756
-0.000169934
0.00112379
0.00109076
-0.00016137
0.000940449
0.00176631
-0.000221709
0.00111563
-0.000190514
-0.000236972
0.0011947
3.72198e-06
-0.000156514
0.00118652
0.000661553
-6.08867e-05
0.00100635
0.000419723
-0.000125182
0.000800494
0.000790038
-0.000235553
0.000967666
0.000391298
-5.09907e-05
0.00105088
-0.000575184
-9.82281e-05
0.0010011
0.000567834
-0.000109994
0.00116078
0.00159198
-4.85211e-05
0.00126256
0.00113228
-5.12005e-05
0.00124365
0.000561855
-0.000187875
0.00106997
0.0012261
7.95868e-05
0.000845881
0.0007308
-1.69091e-05
0.000677191
0.000769972
-8.82645e-05
0.000621479
0.00057357
2.30058e-05
0.000695832
9.36946e-05
1.64402e-06
0.000785902
0.00117085
-2.39058e-05
0.00100238
0.00120064
-6.17674e-05
0.00114674
0.000252042
-8.27536e-05
0.00116434
-0.000378549
-5.8101e-05
0.00110956
-0.000208807
5.45068e-05
0.000905245
0.000529265
-0.000103272
0.000837971
-0.000132166
0.000789334
-0.000525342
-0.000166024
0.000826087
0.00100217
-4.37911e-05
0.00119805
0.000669082
-6.31227e-06
0.00123076
0.000850379
5.56737e-05
0.00117245
0.00161994
-2.08968e-05
0.00122141
0.000338172
-4.92679e-05
0.00110077
-0.000675165
-0.000128542
0.000884415
-0.000271272
-8.13347e-05
0.000898494
-0.000149766
-0.000124537
0.000983696
0.000199624
-0.000148832
0.000904614
0.000448994
-5.88881e-05
0.00102457
-0.000474115
-0.000170888
0.00110503
0.00201081
-0.000159553
0.000926376
0.00108462
6.65654e-05
0.000830415
-0.00130397
-0.000195581
0.000902249
0.00120909
-0.000238524
0.000983191
0.0017806
-0.000120487
0.0010563
-8.86165e-05
-0.00020821
0.0010199
5.03263e-06
-0.000167829
0.00106084
0.000539199
-1.76265e-05
0.000991686
0.000646771
-4.42825e-05
0.000740471
0.00108722
-6.92357e-05
0.000654086
0.000268967
-3.87492e-06
0.000690623
-0.00075164
-0.000109943
0.000796863
0.000442229
-0.000155702
0.00108204
0.00114731
-2.95981e-05
0.0011756
0.00102247
-6.47917e-05
0.00114325
0.000591379
-0.000186429
0.00113854
0.00113449
2.21477e-05
0.000909396
0.000869536
0.000160699
0.000722617
0.000828988
4.93159e-05
0.00076549
0.000356445
8.48233e-05
0.000639705
2.15648e-05
3.99412e-05
0.000670395
0.00099722
-3.65284e-05
0.000914094
0.000851059
-6.9999e-05
0.000973083
8.42672e-05
-8.68392e-05
0.00100017
-0.0004498
-9.71849e-05