/*--------------------------------*- C++ -*----------------------------------*\
  =========                 |
  \\      /  F ield         | OpenFOAM: The Open Source CFD Toolbox
   \\    /   O peration     | Website:  https://openfoam.org
    \\  /    A nd           | Version:  10
     \\/     M anipulation  |
\*---------------------------------------------------------------------------*/
FoamFile
{
    format      ascii;
    class       surfaceScalarField;
    location    "30";
    object      phi_0;
}
// * * * * * * * * * * * * * * * * * * * * * * * * * * * * * * * * * * * * * //

dimensions      [0 3 -1 0 0 0 0];

internalField   nonuniform List<scalar> 
74080
(
0.00600185
-2.12436e-06
0.00296318
0.00546139
-0.000719305
0.0027442
0.00564804
-4.60865e-05
0.000192121
0.0055974
0.00139347
-0.000134332
0.00586374
0.0014566
6.13504e-05
0.00637226
0.00113143
-0.000676165
0.00603715
0.000751579
0.00245059
0.00554055
-0.000328268
0.00386215
0.00571331
0.000620463
0.000188932
0.00635414
0.000276604
0.000674737
0.00612374
5.54491e-05
0.00119914
0.00605723
0.000547806
-0.00125703
0.00601702
-0.000350376
0.000938767
0.0059122
-0.000130857
0.00258421
0.00606528
-0.000150393
0.00309953
0.00507021
0.000756297
0.00236535
0.00384785
0.00130912
0.00173923
0.00360981
0.000281389
0.00333404
0.00435107
-0.000682596
0.00235262
0.00513239
-0.000677294
-0.000973942
0.00470481
0.000658019
-0.000677924
0.0049436
0.00045831
0.00151947
0.00694719
0.000192165
0.000925654
0.00699161
0.000820679
0.00215085
0.005014
0.000915771
0.00374038
0.00509073
0.000583857
0.0031408
0.00606339
-0.000577462
0.0012191
0.00541834
-0.00011788
0.0010258
0.00530817
0.000606389
0.00219871
0.00552565
0.000179292
0.000711387
0.0049602
-3.01577e-05
0.00134962
0.00441516
0.000214034
0.00279574
0.00488147
0.00112212
-9.28099e-05
0.00531075
0.00116012
2.12925e-05
0.00538556
0.000598983
0.000603382
0.00603039
0.000935883
0.00100372
0.00574642
0.000789681
0.00179106
0.0056727
0.000145032
0.000541305
0.00630404
-0.000169172
0.0010599
-4.16466e-05
0.00194086
0.00556593
-0.000168724
-0.000350909
0.00578025
-0.00022052
-0.000828156
0.00482635
0.000533951
0.000114863
0.0053988
0.000704392
0.000527228
0.00636438
0.000562303
0.00047886
0.00657707
9.47651e-05
0.000965187
0.00506752
0.00109526
0.001205
0.00418495
0.00100699
0.000378916
0.00446744
0.000348192
-0.000388901
0.0039698
0.000156065
-0.000930647
0.00468231
7.5894e-05
-0.000388655
0.00538519
0.000494827
0.00100555
0.00537701
-0.000121576
0.000912798
0.00559608
-0.000779948
0.00114851
0.00501605
0.000158737
0.00126744
0.00494858
0.00152505
0.000852779
0.00543548
0.000848785
7.62511e-05
0.00515534
0.000164298
-0.000553445
0.00396834
0.000696244
0.000162733
0.00352635
0.000412139
-3.80888e-05
0.00456726
0.000405205
-0.00085327
0.00493676
0.000538184
-0.000195674
0.00559868
-8.12612e-05
-0.00070634
0.00575713
0.000814879
0.000356265
0.00540556
0.00107879
0.00103604
0.00519756
0.00115195
7.79765e-05
0.00556943
-0.000138918
0.000151475
0.00578776
-0.000689624
0.000681469
0.00543476
0.00041731
0.000343485
0.0052058
0.000434789
-0.000342723
0.00517892
0.000178906
-0.000135728
0.00492759
-5.43267e-06
0.00158404
0.00436603
0.0006711
0.00148234
0.00493012
0.000105282
0.000231568
0.00562639
-0.00029792
-0.00107818
0.00571324
0.000809125
-0.000182616
0.00557792
0.00121745
0.00154642
0.0053062
0.00031119
0.000259029
0.00514835
-0.000183733
-0.000574978
0.00025771
-4.11994e-05
0.00464886
-0.00018892
0.000777942
0.00502331
-8.49877e-05
3.91677e-06
0.0052197
0.000597497
-0.000141552
0.00447467
0.000939846
0.00123342
0.00375548
0.000642135
0.00104101
0.00403032
-0.000903637
-0.000104698
0.00498428
1.37482e-05
-0.001046
0.00463313
0.00113388
7.95827e-06
0.0047671
0.000307913
0.000288429
0.0051928
2.61724e-05
-4.59171e-06
0.00395043
-0.000224325
0.00195963
0.00331403
0.0010053
0.000498739
0.00368645
0.000750323
-0.00116904
0.00365515
-0.00079362
0.00025545
0.00404214
-0.000468148
0.00117933
0.00485591
0.000588566
0.000786657
0.00469265
0.000336537
0.000748014
0.0043759
-0.00011619
0.000591409
0.00569838
-6.71384e-05
-0.000176605
0.0054586
0.000570135
0.00037645
0.00490288
0.000977144
5.64234e-05
0.00507603
0.001049
-0.000612016
0.00489003
3.95465e-05
0.000877869
0.00524485
0.000196278
0.000453577
0.00446156
0.00139207
0.00015769
0.00450311
0.0010144
0.000920441
0.00504217
0.000600754
-7.43524e-05
0.00508397
0.00010503
-1.73881e-05
0.00560898
-0.000591821
0.000840418
0.00522062
0.000383451
0.000981961
0.00430115
0.00072299
0.000240243
0.00385736
0.000153105
0.000282249
0.00391786
0.000676406
0.000892768
0.00424108
-0.000138184
0.00132642
0.00463051
0.000243294
-0.000160543
0.00528509
0.000934361
-0.000859148
0.00599005
0.000699005
0.000284463
0.00543952
0.000183036
0.00100927
0.00463285
-0.000450529
0.000766131
0.000126093
-8.9188e-06
0.00412358
0.000107107
-1.41726e-05
0.00382459
0.000423589
-9.61258e-05
0.00456616
4.55274e-05
-0.000210801
0.00418326
0.000917765
0.000335401
0.0030184
0.00156132
0.000961215
0.00288446
-0.000196175
0.000478031
0.00414075
-0.000658196
0.000146585
0.00487751
0.000184036
0.000601163
0.00478091
0.000340597
-9.65436e-05
0.00437658
0.000550168
-0.000571317
0.00419976
0.000550442
-0.000459062
0.00491022
0.000646883
-0.000240793
0.004757
0.00067118
0.000322607
0.00407188
0.000387731
-0.000109599
0.00455136
-0.000277258
-0.000411342
0.00491854
-0.000207073
-2.13394e-05
0.00438142
0.000105613
0.000514952
0.00363298
0.000334171
0.000856672
0.00391664
-0.000247999
0.000272111
0.00445809
-0.000447872
-0.000105492
0.0046828
0.00055371
-6.5038e-05
0.00524855
0.000748654
-0.000211065
0.00501069
0.000617928
-0.000319246
0.00492006
0.000311145
0.000112094
0.00467315
0.000958486
-7.87794e-05
0.00435659
0.000860318
-8.61192e-05
0.00466807
0.000358508
0.000995423
0.00480251
0.000517552
0.000499135
0.00450274
-0.000349038
0.000905688
0.00474777
6.38342e-06
0.000642206
0.00528705
0.000392821
0.000154378
0.00534246
0.000436366
-0.00029587
0.00418728
0.00152804
0.000321084
0.0036408
0.000880792
0.000333274
0.00401744
0.00038445
-0.00057549
0.00271387
0.000813337
0.00126646
0.00236194
0.000927564
0.000926435
0.00319224
-4.5213e-05
-0.000107606
0.00382549
-0.000537185
-0.000220017
-2.97117e-06
-0.000864392
0.00387302
0.00118185
-0.000616063
0.00392825
0.000948493
-0.000178005
0.00369556
7.60969e-05
0.000240517
0.00433904
0.000229035
5.73894e-05
0.0041198
0.00145472
0.000334503
0.00304123
0.000909398
0.000171745
0.0032376
-0.000147336
-9.3287e-05
0.00401412
-0.000380187
0.000399076
0.00359786
0.000581204
-7.95606e-05
0.00393332
0.000852117
-0.000999937
0.00493621
0.000117146
-0.000212932
0.00450714
0.000613786
0.000414639
0.00416751
0.00054367
0.00040925
0.00448139
0.000225112
0.000123006
0.00364091
0.000359006
0.000101639
0.00281426
4.6718e-05
0.000863644
0.00318655
-2.48612e-05
0.000750185
0.00375098
6.42575e-05
0.000360406
0.00316536
0.00032353
0.000402735
0.00318642
1.05556e-05
0.000319536
0.00380731
8.70933e-05
0.000440725
0.00438452
-0.00015913
0.000153061
0.00524498
-0.000579915
0.000152013
0.0049053
0.000719675
-3.98857e-05
0.00488155
0.000963883
-0.000123422
0.00476744
0.000593515
0.000523562
0.00470151
0.000402007
0.000379618
0.00479054
0.000372784
0.000472689
0.00401984
0.000508505
0.000315696
0.0036102
0.000529035
0.000149653
0.00401212
0.000303718
7.83766e-05
0.00417221
-0.000158509
0.000185011
0.00367394
0.00147181
0.0008408
0.00334502
0.00107861
0.000976928
0.00325024
-0.000251472
0.000626764
0.00442893
-6.07771e-05
-0.000117781
0.00518495
0.000335713
-0.000144157
0.00365706
0.000909959
0.000767848
0.00322557
0.000217958
0.000299717
0.00062989
-0.000595471
0.00404852
0.00136025
0.000142522
0.0045212
0.000610416
0.000130397
0.00414326
0.000430725
-0.000242591
0.00399802
0.000345612
-0.00033925
0.00394323
0.00134349
-0.00029576
0.0032219
0.00124168
0.000242923
0.00281809
0.000172845
0.000174784
0.00305441
-0.000512271
1.53419e-05
0.0037497
8.86253e-05
8.97424e-05
0.00417123
0.000649148
0.00013428
0.00457138
-0.000228723
0.000140351
0.00400106
0.000887621
0.000314216
0.00268324
0.00143583
0.00102952
0.00348305
-8.8625e-05
0.00018168
0.00411548
1.46844e-05
-0.00051934
0.00338311
0.000640527
0.000687704
0.00343094
0.000156286
0.00062948
0.00349015
-0.000123622
-0.000101555
0.00380663
-0.000200257
-6.34205e-05
0.00399588
-0.00017607
-0.000377841
0.00395064
-0.000104059
-0.000206235
0.00355576
-0.000295425
0.000790614
0.00408386
-0.000647334
0.000149347
0.00446732
0.000619992
-0.000176415
0.00312581
0.00183379
0.000739015
0.0032776
0.000652462
0.00056937
0.00338521
-0.000140627
0.000647848
0.0025104
0.00108757
7.46272e-05
0.00322758
0.000395291
-0.000157891
0.0030943
0.0007437
0.000238998
0.00277136
0.000782422
-9.2856e-05
0.00349248
-0.000614713
-0.000254489
0.00351197
0.000882447
0.000482537
0.00390081
0.000643672
-3.10412e-05
0.0040955
3.09829e-05
-9.00327e-05
0.00400632
0.000259583
0.000238678
0.00452787
-0.000455345
0.00034128
0.00458192
0.000853509
0.000135517
0.00475316
0.000627887
-0.000413651
0.0010868
-0.000178423
0.00390998
0.000922522
0.000121566
0.00376166
0.0005583
0.000124971
0.00332868
0.000821923
8.34275e-05
0.00351564
0.000200926
0.000168314
0.004256
0.000843671
-0.000176728
0.00395704
0.00119542
-3.4608e-05
0.00289542
0.00052707
0.000656948
0.00241349
-9.8495e-05
0.000540913
0.00326146
-0.000177037
-0.00022879
0.00315895
0.00122731
-5.35068e-05
0.00254829
0.000995985
0.000211202
0.00380094
0.000430213
-0.000116064
0.003873
0.00135908
0.000273104
0.003167
0.000382554
0.000440438
0.00307609
0.000191135
0.000246647
0.00332622
0.000247184
-3.0203e-05
0.00390226
-7.88672e-05
-0.000302445
0.00330554
0.000932204
-0.000106456
0.00305177
0.000165432
-0.000135151
0.00405216
-0.00066093
-0.000391772
0.00484967
-0.00051569
-0.000460049
0.00449757
-0.000294802
5.97264e-05
0.00301834
0.000568971
0.000253128
0.00333046
0.000697152
-0.000462783
0.00383331
0.00124875
5.08308e-05
0.00276653
0.000607818
0.000846811
0.00304987
-0.000687285
-3.96473e-06
0.00357768
0.000669694
-0.000118554
0.00347562
0.000131484
0.000158174
0.00426099
-0.000415811
0.000446266
0.00406084
0.00065473
0.000249013
0.00326732
0.000368628
-0.000269233
0.00382799
0.000467455
3.15884e-05
0.00391337
0.000398247
-0.000216568
0.00334987
0.000366671
0.000148289
0.00277578
0.000517859
0.000326265
0.00300954
-0.000232691
-4.6091e-06
0.00401578
0.000245447
0.000281855
0.00398365
0.000685037
8.2989e-05
0.00162205
-0.00022738
0.00315053
0.00129831
0.000402605
0.0027178
0.000816071
8.08201e-05
0.0025876
0.000791576
-1.97521e-05
0.00233052
0.000551394
-1.14347e-05
0.0031401
0.00035638
-1.76323e-05
0.00334187
0.000888481
0.000230798
0.00237071
0.0013642
0.000103448
0.0022836
9.85506e-05
-5.22472e-06
0.00286271
-0.000391205
-0.000302783
0.00334251
0.000940854
-3.77613e-05
0.00330254
0.00085801
0.000148978
0.00306889
0.000642045
-0.000249533
0.00278992
0.0014234
0.000346987
0.00264806
0.00076968
0.000236421
0.00287138
0.000267678
9.01416e-06
0.00283997
0.000266954
-0.000159599
0.0033312
5.60493e-05
-0.000615364
0.00339738
0.0011681
-0.000346189
0.00303219
0.000538771
-0.000139974
0.00323356
-0.000612479
3.60949e-05
0.0029759
-0.000193771
5.13799e-05
0.00294087
-0.000247739
-0.000608326
0.00301666
0.000141494
-0.000347987
0.00292132
0.000667832
-4.42487e-07
0.00326173
0.00067145
-0.00018293
0.00261296
0.000726565
-8.52875e-06
0.00240314
-0.00038782
0.000121261
0.00285162
0.000127363
-0.000361242
0.00200816
0.000629694
-0.000443212
0.00228872
-0.000194708
-0.000235672
0.00305194
0.000458836
-0.000641271
0.00271075
0.000641587
5.3436e-05
0.00266413
0.000387533
0.000512149
0.00212754
0.00063912
1.90316e-05
0.00227351
0.000133396
5.94175e-05
0.00303362
-0.00029799
-0.000239881
0.00296202
-0.000191926
-0.000156498
0.00326823
0.000328308
-5.56035e-05
0.00385769
0.000389789
-1.39942e-05
0.00146457
0.00036748
0.00363543
0.000803557
7.93101e-06
0.00306414
0.0010665
8.03664e-05
0.00294838
0.000451122
0.000202885
0.00315436
0.000227026
7.09156e-05
0.00348489
-6.35688e-06
6.77935e-05
0.00296521
0.000927165
0.000261632
0.00247968
0.00173007
-2.20837e-06
0.00223391
0.000563781
-0.00027925
0.00234104
-0.000224238
-0.000145951
0.00299622
0.000521448
-0.000114887
0.00313946
0.000592988
-0.000227134
0.00310415
0.0002018
1.30898e-05
0.00257342
0.00163646
-0.000197162
0.00222356
0.00140444
-0.000394315
0.00238055
0.000382137
-4.53212e-05
0.00210471
0.000981925
-0.000154522
0.00258986
0.000112637
-0.000181829
0.00320911
0.000760678
-0.000137844
0.00318603
0.000786788
-0.000100851
0.00281468
-0.000176276
-0.000160322
0.00222498
0.000646006
-0.000116145
0.00214144
0.000209434
-0.000120534
0.00244135
0.000132786
-0.00016974
0.00281332
0.000600108
-2.10474e-05
0.00301605
0.00053046
1.60098e-05
0.0030343
0.00086362
-0.000321278
0.0027517
-5.05946e-05
-8.27377e-05
0.00245862
0.000385669
0.000257103
0.00247669
0.000730811
-0.000222146
0.00257773
3.88728e-05
-0.000388672
0.00267956
0.000626371
-0.00033493
0.00256547
0.000708789
-0.000290302
0.00322655
-0.000426813
-6.31644e-06
0.0029279
0.000436665
3.55115e-05
0.00236455
0.000739653
-7.99919e-06
0.0028885
-0.000645404
6.15596e-05
0.00265139
-2.12329e-05
-2.61544e-05
0.00235259
0.000849634
3.81176e-06
0.00261057
0.000315427
6.77301e-05
0.000346454
5.72801e-06
0.00343531
0.000317961
-0.00019525
0.0032237
0.00114471
1.22176e-05
0.00288138
0.000535773
3.09071e-06
0.00260326
0.000516493
-0.000352408
0.00267346
0.000224799
-0.000600029
0.00292668
0.000441729
3.01757e-05
0.00310329
0.0012113
0.000133572
0.00275221
0.000901448
-0.000177063
0.00251719
6.74387e-05
0.000136705
0.00251996
0.00059004
1.42993e-05
0.00252477
0.000506882
-0.000434238
0.0027771
-0.000355521
-0.000188105
0.00251907
0.00176496
-0.000206656
0.00256143
0.00147303
-0.000183212
0.00285599
0.000149725
0.000117067
0.00263451
0.00106681
0.000292255
0.00255353
0.000274142
0.000229463
0.00277749
0.000846541
-0.000252987
0.002651
0.00112921
-0.000369308
0.00260256
3.49052e-05
-0.000174765
0.00271276
0.000631283
-7.14981e-05
0.00245588
0.000523748
-2.65869e-05
0.00268442
0.000350043
-0.000207741
0.00319948
0.000349906
-0.000118988
0.00251039
0.000920999
8.5478e-05
0.00238939
0.000964113
-0.000132755
0.00240337
5.00487e-05
-1.80226e-05
0.00217663
0.000810382
-0.000103671
0.00272793
0.000184012
-0.000440738
0.00247806
9.86007e-05
-0.000440388
0.00201888
0.00104853
-0.00051935
0.00196049
0.000681298
-0.000404919
0.00233074
-0.000647637
-0.000468238
0.00258389
0.00017556
-0.000160948
0.0023333
0.000877897
6.30531e-06
0.00227483
-0.000200124
-0.000417872
0.00241982
-8.39486e-05
-7.22151e-05
0.00246329
0.000779236
0.000241132
0.00230116
0.000446615
0.00022008
-0.000340505
-9.81448e-05
0.00293546
0.000171888
-0.000329716
0.00294014
0.00107307
-0.000119982
0.00248446
0.000936342
3.76326e-05
0.00220134
0.00102663
-0.000238639
0.00234103
0.000479759
-0.000409815
0.00256787
0.000330083
-2.56665e-05
0.00289239
0.000790347
7.79598e-05
0.00291264
0.000718581
9.62942e-05
0.00249672
0.000377512
0.000101893
0.00279848
0.00028714
4.77531e-05
0.003234
-5.16453e-05
-4.51516e-06
0.00278958
-0.000154991
-8.63788e-05
0.00224026
0.00226265
5.80378e-05
0.0019439
0.00185494
-9.89312e-05
0.00189945
0.000436321
-0.000274872
0.00237374
0.000819566
-0.000224238
0.00262431
0.000167856
-0.000355325
0.00272069
0.000752254
-0.000255359
0.00268164
0.00107982
2.47662e-05
0.00237176
5.59723e-05
0.000201465
0.00247693
0.000360855
0.000193994
0.00216151
0.000848046
0.000155629
0.00226914
0.000589036
-1.17494e-05
0.00277734
0.000104117
9.51573e-05
0.00239825
0.00117563
-3.85262e-05
0.00237735
0.000913255
-9.82025e-05
0.00197023
0.000381187
-9.09332e-05
0.00182081
0.00111893
-0.000378917
0.00236448
-7.25508e-05
-0.000558082
0.00248157
0.000205945
-0.000319285
0.00263912
0.00107354
-0.000291055
0.00254402
0.00072329
-0.000344563
0.00258504
-0.000607831
-0.000313785
0.00259656
0.000130795
-7.97773e-05
0.00207321
0.00132038
-0.000111321
0.00178561
0.000351125
-0.000339111
0.00219202
-7.85366e-05
-0.000500721
0.00248532
0.000633105
-0.000264089
0.00235443
0.000582615
5.46142e-05
-0.000356543
-0.000270475
0.00216522
0.000399119
-0.000206895
0.00241745
0.000685379
-0.000279118
0.0020156
0.00112015
-0.000158395
0.00197653
0.00113006
-0.00019911
0.00218714
0.000364987
-0.000107682
0.00204945
0.000251097
0.000195741
0.00240212
0.000316379
0.000127361
0.00247472
0.000634565
-4.67685e-06
0.00195966
0.000795438
-0.00015458
0.00205747
0.000202756
-0.000267915
0.00237527
-0.000315557
-0.000370969
0.00227141
-1.5339e-05
-0.000410285
0.00236746
0.00216397
-0.000179376
0.00249597
0.00173427
9.95387e-06
0.00212642
0.000875618
-1.25221e-05
0.00200271
0.00109683
-0.000304657
0.00223064
0.000237134
-0.000398406
0.00265904
0.000523765
-0.00036827
0.00293742
0.000760066
-0.000167158
0.00249439
0.000234451
4.81639e-05
0.00223569
0.000553197
-2.0693e-05
0.00198589
0.00104533
-1.55442e-05
0.00199507
0.000652072
-0.00014024
0.00237673
-6.03115e-05
-0.000135649
0.00258032
0.000964676
-0.000124583
0.00259091
0.000812091
-0.00020057
0.00234875
0.000555412
7.30266e-05
0.002315
0.00125856
2.55315e-05
0.00186624
0.000539526
-0.000349799
0.0023092
-5.33227e-05
-0.000442744
0.00316311
0.000164797
-9.82188e-05
0.00261033
0.000796099
0.000331414
0.00231139
-0.000500252
4.47955e-05
0.00230844
0.000159687
-0.000150819
0.00191213
0.00179651
-0.000261963
0.00186591
0.000627318
-0.00035289
0.00202445
8.24751e-05
-0.000462256
0.00212279
0.000708179
-0.000306879
0.00231559
0.00029649
-2.40296e-05
-0.000154165
-1.86335e-05
0.00205036
0.000437434
-5.80449e-05
0.00186435
0.000741934
-9.25346e-05
0.00168979
0.00126365
-1.80589e-05
0.00174041
0.00115902
-0.000112966
0.00172551
0.000543289
-0.00034218
0.00180928
1.46474e-05
-7.29002e-05
0.0020718
-0.000135989
0.000202562
0.00224413
0.000564013
-9.38828e-06
0.00226039
0.000897465
-0.00019106
0.00204325
0.000508641
-0.000211322
0.00182779
-7.71475e-05
-0.000259435
0.00179065
9.23222e-05
-0.000271532
0.00185987
0.00207946
-0.000225324
0.00193634
0.0015483
-0.000130433
0.00216552
0.000598768
4.39571e-05
0.00243868
0.000888465
-0.00012155
0.0025665
0.000394389
-0.000319432
0.00271161
0.000461594
-0.000263858
0.00281438
0.000561808
-0.000255837
0.00245799
0.00060579
-1.51641e-05
0.00221303
0.000718171
1.25932e-05
0.00210604
0.000949421
-0.000135827
0.00186495
0.000892579
-0.000106317
0.00217343
-3.51258e-05
-0.000348901
0.00245346
0.000716581
-0.000241765
0.00213
0.00108789
-0.0002859
0.00203352
0.000664084
-0.000170747
0.00215449
0.00120327
-0.000198764
0.0019596
0.000864536
-0.000271622
0.00216724
-9.04902e-05
-0.000321834
0.00245183
-0.000115309
-0.000301139
0.00231632
0.000708173
-3.20356e-05
0.00195121
-0.000228303
-0.000141103
0.00185193
0.000350373
-0.000367425
0.00185104
0.0018382
-0.000233669
0.00145795
0.00115533
-0.000191563
0.00145363
0.000346281
-0.000321675
0.00171997
0.000522312
-0.000230081
0.00189796
1.1965e-05
-0.000159952
-0.000230415
-0.000104485
0.00201814
0.000500229
-0.00026749
0.00193331
0.000897869
-0.000255811
0.00164405
0.00163209
-8.67566e-05
0.00168253
0.00127417
-0.000171986
0.00159415
0.000828699
-0.00021415
0.00163592
-1.78405e-05
-0.000219737
0.00179904
-0.00034054
-4.51136e-05
0.00181276
0.000624245
-6.19941e-05
0.00197173
0.000873296
-0.000295026
0.00202353
0.000584671
-0.000245486
0.00187477
0.000107413
-0.000255221
0.00187847
0.000204542
-0.000272242
0.00198319
0.00188293
-0.000133571
0.00187544
0.0012966
1.35042e-05
0.00211294
0.000238088
1.91265e-06
0.0024828
0.000636039
-0.000154986
0.00252782
0.000493893
-0.000244231
0.00247167
0.000433466
-0.000109082
0.00221034
0.000707505
-0.000101788
0.00189198
0.000964655
-2.93396e-05
0.0018459
0.000652604
7.06889e-06
0.0016477
0.00090579
-0.000130985
0.00168414
0.000873687
-0.000139466
0.00205165
-0.000160799
-0.000194397
0.00205852
0.000742217
-0.000154912
0.00169169
0.00135833
-0.000216756
0.00169687
0.000698454
-0.000204475
0.00202981
0.000983926
-0.000128449
0.00211624
0.000735171
4.42208e-05
0.00213983
-6.35965e-05
-0.000142854
0.00208064
2.33151e-05
-0.000262162
0.00196909
0.000680682
-4.64912e-05
0.00175263
-0.000119924
-0.000155236
0.00165692
0.000494376
-0.000309368
0.00168529
0.00189948
-0.00025691
0.00163398
0.00139706
-0.000117604
0.00163581
0.000510276
-0.00018854
0.00180968
0.000319596
-0.000156283
0.00186727
-0.000154982
2.0201e-05
-3.22264e-06
-0.000106287
0.00192399
0.000342833
-9.94488e-05
0.00174168
0.00112707
-0.000164893
0.00152249
0.00199171
-8.55433e-05
0.00160445
0.00130711
-0.000134828
0.00141006
0.00101373
-0.000199121
0.00125617
-1.39755e-05
-0.000136872
0.00144769
-0.000640045
5.26318e-05
0.00172528
0.000366994
3.39469e-05
0.00174212
0.000873911
-9.00201e-05
0.00173921
0.000572936
-0.000119019
0.00155547
0.000255269
-0.000252158
0.00169994
0.000192623
-0.000237741
0.00203789
0.00157585
-0.000192148
0.00178572
0.00131702
-9.6959e-05
0.00189454
-3.47829e-06
-0.000114167
0.00207237
0.000525813
-0.000221032
0.00194215
0.000614395
-0.000139409
0.00192325
0.000387693
-0.000188527
0.00182665
0.000687647
-6.7495e-05
0.00173532
0.00088992
0.000223199
0.00189514
0.000347503
0.000121239
0.00176063
0.000855866
9.93904e-06
0.00154703
0.000993619
1.25761e-05
0.00170821
-0.000242761
-9.76854e-05
0.00180751
0.000676631
-0.00022665
0.00140953
0.00167432
-0.000109268
0.00142274
0.000825711
-0.000201789
0.00178285
0.00078416
-0.000229077
0.00173753
0.000736116
2.24827e-05
0.00174681
-6.31203e-05
-9.09372e-05
0.00183962
5.24517e-05
-0.000299869
0.00167595
0.000795291
-0.00014361
0.00134492
7.24385e-05
-0.00019633
0.00124508
0.000706086
-0.000427571
0.00137029
0.00181089
-0.000215119
0.00145079
0.00138178
-0.000108531
0.00150281
0.000536519
-0.000252625
0.00166849
9.2387e-06
-7.38693e-05
0.00169369
-0.000198805
-9.11171e-05
0.000273915
-0.000237061
0.00152252
0.000287664
-0.000184183
0.00152571
0.00116017
-0.000144592
0.0015211
0.00219801
-5.66551e-05
0.00138348
0.00156861
-0.00012609
0.00104454
0.00124657
-0.00021201
0.000998023
-0.000105506
-0.000221854
0.00130675
-0.00109946
-6.92288e-05
0.00154676
-9.55012e-05
9.94478e-05
0.00150213
0.000760287
4.2873e-06
0.00143498
0.000605731
-2.40083e-05
0.00139137
0.000367646
-0.000191289
0.00168367
8.89262e-05
-0.00022728
0.00186827
0.00142991
-9.78757e-05
0.0017981
0.00112701
-4.26035e-05
0.00194578
-0.000280004
-0.000115249
0.00163599
0.000872111
-0.000158952
0.00145933
0.00080877
-0.000134327
0.00163429
4.93222e-05
-9.94726e-05
0.00166876
0.000464703
-6.10148e-05
0.00151296
0.000942927
3.24885e-05
0.0016116
0.000161524
-1.09176e-05
0.00183225
0.000566139
-4.36205e-05
0.00166048
0.001095
-2.53809e-05
0.00155399
-0.000221885
5.12545e-05
0.00149594
0.000627076
-0.000186066
0.00126202
0.00183176
-9.92558e-05
0.00146207
0.000885051
-0.000230448
0.00166383
0.0007398
-0.000261839
0.00142043
0.000972247
-6.65526e-06
0.00137693
7.28807e-05
-0.000161603
0.00142085
0.000199724
-0.000373715
0.0014708
0.000741343
-0.000212523
0.001185
0.000250835
-0.000255295
0.00104392
0.000937997
-0.000391537
0.00131157
0.00160123
-0.000167011
0.00136743
0.00130459
-0.000106752
0.00141773
0.000518679
-0.000250323
0.00150967
-0.000138996
-0.000248815
0.00144471
-6.78091e-05
-0.000213895
0.000647412
-0.000257373
0.00121223
0.000227699
-6.03346e-05
0.00121609
0.00116467
-0.000108193
0.00156034
0.00202003
-0.000109505
0.00172215
0.00144342
-6.46495e-05
0.0013097
0.00154637
-9.37975e-05
0.00103081
0.000173007
-0.000163007
0.00113125
-0.00122292
-0.000128062
0.00129471
-0.000460818
6.62569e-05
0.00140794
0.000420219
9.54814e-05
0.0013607
0.00056363
1.46888e-05
0.00143175
0.000363953
-0.000130644
0.00173093
-1.7292e-05
-0.000138932
0.00157251
0.00164454
-0.00012118
0.0013901
0.000889979
5.3979e-05
0.0015659
-0.00059617
-0.00011282
0.00130926
0.00117788
-0.000236426
0.00119384
0.000869679
-0.000133163
0.00142886
-0.000216953
-0.000122327
0.00142512
0.000402818
-2.15284e-05
0.00131382
0.000878493
-1.46208e-05
0.00137705
2.0586e-06
-0.000167295
0.00151844
0.000434851
-0.000132866
0.00145222
0.00102576
-1.31304e-05
0.00142321
-0.000263484
-2.3765e-05
0.00142523
0.000605134
-0.000222014
0.00123368
0.0019117
-7.46494e-05
0.00124455
0.00108405
-0.00027584
0.00142569
0.000721516
-0.000322492
0.00135965
0.00102966
-4.2341e-05
0.00131053
0.000165518
-0.000155854
0.00129767
0.000390504
-0.000344746
0.00144434
0.000657535
-0.000262135
0.00120363
0.000404514
-0.000209663
0.000961209
0.00122045
-0.000251879
0.00107184
0.00149094
-0.00019577
0.00122273
0.00104248
-0.000128027
0.0013914
0.000242678
1.21843e-05
0.0013512
-0.000183821
-0.000143298
0.00124398
0.000163403
-0.000313014
0.000958705
-0.000157024
0.00115416
0.000162254
-1.57756e-06
0.001052
0.00121863
-4.0227e-05
0.00140422
0.00168902
-3.8751e-05
0.00159395
0.00121933
-6.03355e-05
0.00135829
0.00165478
-9.79605e-05
0.00111664
0.000437823
-0.000169979
0.00105214
-0.00102647
-0.000196973
0.00118145
-0.000625967
-8.02956e-05
0.00130003
0.000137862
0.000137231
0.00133873
0.00045542
3.26514e-05
0.00129745
0.000464389
-5.78907e-05
0.00146031
-4.37822e-05
-0.00018484
0.00143222
0.00174287
-0.000159209
0.00112626
0.000864525
7.64312e-05
0.00127108
-0.000942821
-9.24913e-05
0.00141005
0.00113256
-0.000246369
0.00110906
0.00106197
-8.80768e-05
0.00114201
-0.000252318
-0.00021522
0.00131432
0.000275548
-9.98223e-05
0.00130077
0.000763294
4.54179e-05
0.00129861
-0.000103669
-0.000144357
0.0012992
0.000467387
-0.000219014
0.00130713
0.000885599
-6.33672e-05
0.00134688
-0.000404329
-7.63865e-05
0.0013062
0.000619058
-0.000215976
0.00122076
0.00200899
-0.00020329
0.0012628
0.00118109
-0.000171037
0.00141551
0.000594316
-0.000137247
0.00131894
0.00105897
4.03504e-06
0.00117416
0.000294411
-9.49962e-05
0.00111662
0.000561111
-0.00031299
0.00115738
0.000618407
-0.000216082
0.000994962
0.000439846
-0.000127541
0.000873754
0.001416
-0.0001613
0.000960898
0.00152285
-0.000265023
0.0012005
0.000671774
-8.59571e-05
0.0013965
-0.000156
0.000118888
0.00130429
-0.000175896
2.30819e-05
0.00121096
0.000379159
-0.000219818
0.00106542
-0.00017378
0.0011985
-1.92234e-05
-1.75482e-05
0.00114061
0.00120112
-8.11417e-05
0.00132196
0.00141693
1.59536e-05
0.00128683
0.00113353
-2.16649e-05
0.00107129
0.00172026
-0.000105252
0.00107326
0.000473088
-0.000259138
0.00113113
-0.000962164
-0.000193916
0.001087
-0.000591548
-0.000146678
0.00118551
-5.05433e-06
-2.4201e-05
0.00124872
0.000363882
2.54084e-06
0.00120206
0.000478782
1.6055e-05
0.00135714
-0.000140247
-0.000112539
0.00126226
0.00183562
-6.12983e-05
0.00108806
0.00078762
-7.10787e-05
0.00129917
-0.00126663
-0.000100105
0.00131109
0.00115631
-0.000149323
0.000991485
0.00141459
-0.000175765
0.00113301
-0.000305814
-0.000153874
0.00126681
0.000135651
-0.000109679
0.00120674
0.000726955
-3.37092e-05
0.00110153
2.71977e-05
-0.000207649
0.00108153
0.000541511
-0.000338576
0.00127737
0.000578543
-9.36486e-05
0.00119266
-0.000435339
-7.25933e-05
0.00101237
0.000718793
-0.000141069
0.00117548
0.00185016
-0.000133984
0.00135732
0.00111963
-7.63446e-05
0.00139441
0.000544308
-0.000127159
0.00114816
0.00117608
6.27364e-05
0.00100466
0.000451096
-0.00012446
0.000936863
0.00068751
-0.000219953
0.000814117
0.000671313
-6.89993e-05
0.000795071
0.000347558
-5.99542e-05
0.000837271
0.00140104
-6.37062e-05
0.00107566
0.00137616
-0.000160709
0.00122779
0.000382707
-1.47986e-05
0.00118745
-0.000308275
4.24211e-05
0.00110916
-0.00015958
5.14904e-05
0.00111776
0.000411876
-0.000146104
0.000903307
-0.000177374
0.00108711
-0.000317367
-3.28741e-05
0.00114782
0.00111933
-5.02461e-05
0.00132918
0.00111266
1.61042e-05
0.001218
0.00108491
6.04693e-05
0.00104805
0.00169619
-5.51883e-05
0.00115722
0.000339837
-0.000183205
0.00112511
-0.000850732
-0.000139372
0.00096467
-0.000424747
-0.000106719
0.00106258
-0.000131771
-8.60584e-05
0.00116313
0.000265487
-6.31654e-05
0.00112791
0.000443235
-2.61142e-05
0.00126718
-0.000264919
-0.000116016
0.00118294
0.00204398
-0.000146011
0.00100913
0.000783685
-6.63436e-05
0.00114908
-0.00141412
-0.000163238
0.00109845
0.00131089
-0.000159522
0.000934876
0.00168474
-0.000216162
0.00113176
-0.000325068
-0.000227708
0.00119945
6.27316e-05
-0.000144781
0.00117425
0.000683752
-6.28837e-05
0.000986347
0.000416329
-0.000138488
0.000798217
0.000790126
-0.000226967
0.000983532
0.000274403
-4.14025e-05
0.00105628
-0.000573768
-9.59753e-05
0.00101401
0.000696717
-0.000106599
0.00119183
0.00158259
-5.47219e-05
0.0012742
0.00107801
-6.51346e-05
0.00122762
0.00059836
-0.000183642
0.00104973
0.001232
8.57642e-05
0.000823734
0.000701831
-2.34283e-05
0.00066153
0.000768285
-8.74949e-05
0.000625903
0.000525656
2.50762e-05
0.00069787
0.000125036
-3.38204e-06
0.000803043
0.00122363
-3.02011e-05
0.001032
0.00113555
-6.40184e-05
0.00115675
0.000168695
-8.35289e-05
0.00115941
-0.000402563
-4.87003e-05
0.00109239
-0.000156135
5.24482e-05
0.000876534
0.000603473
-0.000112064
0.000781739
-0.000130681
0.000778431
-0.000504913
-0.000156448
0.000827499
0.00105052
-4.2842e-05
0.00121343
0.000594917
1.63473e-06
0.00123815
0.000903986
5.4584e-05
0.00119077
0.00156532
-1.58229e-05
0.00121436
0.000205652
-5.01568e-05
0.00107623
-0.000694377
-0.000130688
0.000874131
-0.000234892
-8.41007e-05
0.000905899
-0.000127172
-0.000130502
0.000982661
0.000224118
-0.000145258
0.000906928
0.000412151
-6.56698e-05
0.00102297
-0.000366682
-0.000167428
0.00109046
0.0020767
-0.000144819
0.000908744
0.000832929
6.81982e-05
0.000808706
-0.00128617
-0.000202753
0.00090126
0.00140744
-0.000233288
0.00100502
0.00166783
-0.000109843
0.00106199
-0.000211129
-0.000205696
0.00101845
5.31779e-05
-0.000159151
0.00105431
0.000578939
-1.67434e-05
0.000981535
0.000663649
-5.03973e-05
0.000732607
0.00105891
-5.76758e-05
0.000654258
0.000141413
-4.36302e-06
0.000693633
-0.000742632
-0.000107994
0.000813585
0.000554501
-0.000152488
0.00110581
0.00113704
-3.29103e-05
0.00118442
0.000992254
-7.36025e-05
0.00115143
0.000624034
-0.000183796
0.00113993
0.00114262
3.60288e-05
0.000892829
0.000861935
0.000159045
0.000722714
0.000804346
4.90812e-05
0.00077184
0.000290969
8.91296e-05
0.000639335
6.49597e-05
2.88697e-05
0.000690217
0.00103382
-3.99463e-05
0.000933202
0.000791392
-7.0611e-05
0.000977056
2.47353e-05
-8.88863e-05
0.00100915
-0.00047368