/*--------------------------------*- C++ -*----------------------------------*\
  =========                 |
  \\      /  F ield         | OpenFOAM: The Open Source CFD Toolbox
   \\    /   O peration     | Website:  https://openfoam.org
    \\  /    A nd           | Version:  10
     \\/     M anipulation  |
\*---------------------------------------------------------------------------*/
FoamFile
{
    format      ascii;
    class       volScalarField;
    location    "17.5";
    object      pPrime2Mean;
}
// * * * * * * * * * * * * * * * * * * * * * * * * * * * * * * * * * * * * * //

dimensions      [0 4 -4 0 0 0 0];

internalField   nonuniform List<scalar> 
25600
(
0.000440688
0.000403543
0.000475524
0.000636002
0.000680983
0.000586027
0.000587849
0.000660988
0.000722816
0.000664408
0.000509226
0.000439693
0.000533646
0.000648109
0.000475751
0.000463815
0.000570701
0.000615638
0.000652788
0.000744341
0.00079437
0.00083614
0.000786558
0.000663357
0.000598916
0.000650668
0.000662072
0.000549432
0.000627061
0.000621637
0.000702912
0.000782796
0.00058282
0.000540386
0.000539666
0.000557721
0.000646538
0.000580678
0.000532955
0.000519807
0.000481536
0.000655315
0.000796765
0.000633083
0.000449776
0.000416111
0.000474341
0.000533791
0.000499888
0.000417275
0.000451206
0.000537771
0.000722159
0.000698016
0.000482521
0.000448377
0.000500103
0.000552516
0.000570056
0.000471868
0.000399781
0.000475872
0.000463786
0.000413796
0.000347798
0.000416588
0.000452582
0.000450744
0.000621577
0.000619602
0.000464575
0.000454125
0.00054341
0.000567288
0.000521044
0.000433001
0.000375909
0.000506311
0.000704092
0.000607773
0.00036677
0.000474702
0.00053448
0.000331459
0.000237849
0.000344879
0.000402144
0.000358733
0.000307379
0.000313379
0.000340541
0.000343225
0.000394389
0.000326743
0.000347685
0.000384595
0.000430887
0.000502127
0.000450374
0.000303369
0.00027533
0.000420118
0.000435904
0.000327885
0.000221299
0.000274839
0.000325073
0.000317557
0.000323181
0.000337895
0.000343775
0.00044577
0.000452415
0.000366915
0.00038098
0.000402846
0.000412808
0.000525303
0.000512456
0.000401477
0.000439701
0.000526834
0.000593167
0.000398129
0.000341599
0.000369262
0.000371391
0.000424378
0.000413736
0.000331819
0.000380438
0.00055143
0.000458781
0.00028123
0.000421558
0.000427161
0.00034017
0.000371108
0.00031262
0.000274184
0.000393075
0.00043744
0.000342934
0.000274979
0.000253711
0.000388845
0.000348429
0.000319044
0.000374184
0.000366738
0.000279362
0.000323882
0.000366768
0.000343228
0.000364929
0.000333989
0.000339657
0.00041943
0.000484111
0.000471388
0.000295857
0.000473314
0.000477857
0.000290309
0.000226677
0.000261972
0.000292809
0.000311057
0.000297987
0.000285647
0.000387929
0.000416704
0.000280572
0.000355997
0.000418498
0.000278744
0.000231855
0.000324561
0.000370949
0.000380478
0.000297096
0.000332023
0.000390467
0.00026169
0.000293172
0.000441827
0.000386804
0.000288952
0.000286711
0.000269867
0.000319542
0.000346056
0.000304744
0.000301935
0.000290824
0.000341134
0.000463574
0.000567046
0.000486961
0.000304859
0.00041757
0.000403153
0.000265521
0.000238294
0.000273473
0.000264145
0.000264067
0.000273666
0.000245281
0.000285762
0.000334452
0.00027499
0.000230457
0.000271246
0.000207915
0.000223759
0.000372679
0.000324357
0.000261424
0.000232502
0.000264256
0.000375472
0.000349141
0.000245589
0.000348904
0.00038501
0.000340984
0.000304989
0.000302103
0.000297671
0.000293583
0.000279284
0.000287278
0.000298116
0.000318484
0.000413401
0.000494685
0.000336126
0.000225039
0.000252647
0.000309063
0.000325593
0.000338225
0.000350208
0.000334093
0.000282244
0.000303234
0.000360821
0.000294996
0.00024619
0.000432494
0.000475838
0.000324694
0.000261471
0.000292772
0.000329972
0.0003748
0.000350668
0.000277746
0.000206717
0.000267032
0.000409213
0.000391145
0.000241656
0.000191816
0.000261991
0.000259112
0.000209242
0.000290394
0.000309718
0.000221554
0.000239621
0.000281211
0.000216104
0.000230466
0.000296548
0.000297782
0.000254667
0.000244091
0.000281146
0.000277276
0.000314879
0.000296546
0.000282628
0.000223647
0.000215077
0.00031637
0.000284311
0.000181066
0.000272949
0.000404788
0.000309424
0.000316672
0.000340818
0.000251688
0.000288802
0.000357024
0.000263307
0.0002313
0.000230218
0.000238213
0.000336498
0.000391543
0.000263142
0.000238161
0.000307841
0.000200087
0.000212081
0.000322778
0.000271843
0.000257208
0.000248849
0.000273692
0.000280862
0.000257682
0.000181911
0.00020566
0.000347809
0.000373664
0.000311993
0.000304557
0.000381015
0.000359135
0.000237491
0.000203729
0.000270656
0.000306695
0.000224456
0.000179474
0.000207763
0.000214099
0.000230903
0.000248725
0.000224162
0.000258821
0.000345538
0.000294795
0.00023144
0.000301613
0.000253752
0.000264634
0.000381752
0.000309669
0.000179687
0.000210025
0.000208566
0.000140858
0.000182179
0.000332952
0.000319936
0.000172262
0.000200392
0.000232268
0.000196419
0.000189941
0.000204614
0.000243599
0.000359453
0.000368888
0.000282294
0.000267359
0.000388297
0.000306515
0.000201534
0.000273179
0.000319669
0.000264424
0.000187334
0.000156616
0.000235163
0.000228964
0.000182143
0.000223002
0.000257696
0.000229595
0.000223425
0.000222751
0.000277488
0.000336856
0.000263649
0.000223367
0.000302421
0.000314492
0.000258682
0.000246077
0.000203658
0.000121231
0.000223745
0.000410846
0.000281293
0.000175068
0.000217732
0.00016775
0.000195309
0.00026615
0.000206783
0.000226005
0.000313873
0.000277592
0.000192379
0.000247753
0.000268984
0.000223544
0.00023308
0.000302457
0.000272347
0.000260606
0.00025476
0.000260029
0.000270436
0.000242025
0.000241752
0.000240256
0.000265849
0.000259422
0.000251336
0.000275668
0.000302467
0.000269522
0.000276612
0.000262262
0.000312875
0.000384356
0.000252934
0.000232749
0.000277094
0.000170509
0.000218075
0.000260791
0.000209453
0.000195014
0.00022162
0.000240362
0.00026539
0.000260415
0.000205279
0.00023248
0.000280396
0.000233977
0.000214029
0.000318102
0.000319917
0.00023114
0.000261219
0.00034199
0.000302639
0.000208579
0.00020746
0.000239216
0.000266816
0.000280821
0.000314799
0.000285589
0.000295808
0.000277582
0.000232404
0.000261274
0.000275616
0.000253099
0.000202225
0.000203111
0.000285607
0.000273882
0.000214588
0.000241932
0.0002083
0.000174728
0.000228316
0.000310079
0.000282895
0.000188032
0.000241054
0.000257117
0.000248031
0.000335319
0.00027262
0.000227873
0.000263239
0.000248259
0.000253619
0.000267878
0.000237097
0.000203821
0.000290772
0.000356189
0.000297688
0.000225393
0.00023106
0.000232778
0.000266674
0.000301659
0.000300587
0.00025599
0.0002772
0.000301776
0.000259155
0.000254194
0.000303103
0.000318644
0.000292784
0.000256851
0.00031565
0.000340219
0.000242558
0.000228228
0.000192643
0.000191877
0.000276752
0.000312939
0.00023271
0.000187988
0.000191914
0.000192776
0.000244737
0.000288122
0.000233271
0.000215036
0.000237573
0.000243551
0.000251469
0.000312127
0.00028754
0.00024703
0.000344242
0.000452914
0.000319855
0.000266896
0.000255104
0.000230586
0.000267966
0.000320111
0.000272795
0.000283514
0.000305306
0.000303548
0.000208954
0.000214334
0.000328627
0.000368388
0.000351018
0.000292163
0.00026215
0.000303696
0.000260565
0.000246246
0.000219533
0.000199165
0.000261156
0.000285145
0.000226632
0.000190515
0.000192039
0.000212965
0.000248707
0.000286954
0.000246964
0.000216406
0.000246458
0.000239795
0.000255236
0.000339038
0.000274022
0.000232463
0.000354733
0.000447009
0.000279774
0.000203085
0.0002054
0.000219731
0.000252592
0.000288128
0.000239014
0.00025461
0.000291304
0.000287128
0.000203676
0.00024688
0.000374387
0.00040086
0.000331661
0.000269541
0.00024368
0.000249147
0.000348155
0.00033998
0.000270563
0.000226187
0.000261068
0.000326519
0.000241389
0.000209696
0.000209184
0.000210259
0.000310721
0.000363366
0.000262712
0.000266435
0.00028299
0.000288075
0.000348206
0.000309707
0.000275949
0.000277134
0.000420668
0.000468158
0.000323077
0.000212795
0.000222489
0.00026737
0.000303456
0.000285502
0.000253747
0.000309946
0.000389519
0.000362751
0.000253872
0.000295653
0.000378221
0.000438043
0.000317949
0.000248889
0.000244625
0.000276237
0.000403858
0.000409696
0.000328777
0.000250552
0.000320542
0.000345491
0.000270759
0.000277029
0.000264392
0.000272464
0.000404008
0.000348208
0.000276871
0.000306318
0.000300974
0.000345774
0.00040389
0.000293588
0.000259355
0.000319228
0.000475791
0.000454053
0.000300525
0.000231778
0.000259802
0.000284962
0.000291421
0.000314771
0.000315007
0.000359334
0.000422435
0.000383529
0.000285718
0.000362393
0.00042866
0.000417512
0.000329072
0.00024057
0.000229738
0.000299794
0.000395799
0.000444951
0.000356901
0.000261693
0.00034697
0.000368236
0.000361692
0.000359276
0.000318619
0.000323215
0.000430166
0.000347565
0.0002889
0.000333889
0.000353975
0.000417832
0.000428701
0.000326171
0.000303436
0.000373295
0.000494991
0.000474678
0.000357998
0.000270984
0.00027046
0.000323241
0.000325978
0.000366411
0.000367148
0.000408081
0.000441369
0.000391827
0.00030161
0.000366764
0.000509819
0.000436146
0.000342432
0.000260295
0.000273866
0.000376311
0.000487952
0.000488319
0.000366224
0.00030096
0.000363034
0.000377703
0.000375446
0.00039406
0.000348139
0.000353791
0.000396506
0.000351194
0.000293129
0.000315874
0.000382277
0.000456192
0.000429264
0.000372811
0.00040527
0.000388632
0.000445097
0.000503184
0.000401689
0.000305271
0.000302568
0.00035718
0.0003663
0.000374669
0.000396224
0.000407769
0.000410973
0.000367246
0.000283065
0.000399223
0.00058419
0.000475735
0.000357657
0.000274715
0.000286601
0.000396325
0.000543872
0.000500373
0.000372078
0.000357503
0.000381437
0.000404032
0.000401167
0.00040975
0.0003657
0.000369172
0.000392692
0.000357538
0.000314981
0.000291497
0.000387444
0.000484865
0.000413089
0.000444947
0.00044853
0.000417427
0.000427888
0.000489476
0.000423062
0.000328148
0.000361488
0.000349992
0.000364949
0.000364468
0.000408623
0.000429716
0.00043767
0.000363204
0.000269038
0.000413499
0.000641318
0.000495095
0.000362932
0.000290493
0.000307472
0.000431537
0.000540247
0.000487064
0.000408237
0.000431149
0.000427088
0.000470925
0.000481577
0.000444088
0.000406249
0.00041321
0.000408114
0.000372747
0.000346718
0.000321996
0.000438914
0.000515033
0.000472705
0.000530597
0.000464477
0.000494186
0.000488017
0.000499678
0.000410468
0.000345711
0.000415152
0.000394818
0.000391977
0.00041749
0.000494331
0.000509286
0.000501514
0.000367439
0.000303158
0.000477044
0.000692741
0.000550535
0.000409146
0.000338728
0.000398725
0.000532697
0.000586898
0.000487749
0.000458634
0.000487027
0.000482445
0.000528955
0.000549123
0.000490678
0.000464183
0.000491026
0.000469959
0.000432704
0.00041409
0.000433874
0.000556892
0.000587795
0.00053507
0.000622659
0.000563194
0.000611459
0.000569014
0.000575904
0.000505933
0.000422299
0.000467566
0.000456678
0.000424385
0.000466508
0.000592529
0.000622129
0.000570161
0.000426997
0.000377492
0.000579808
0.000766022
0.0006201
0.000481472
0.00041344
0.000486093
0.000608711
0.000659859
0.0005539
0.000492084
0.000518464
0.000534608
0.000597102
0.000635548
0.000545492
0.000498729
0.000577031
0.000556466
0.000527778
0.000484438
0.000563329
0.000707615
0.000665264
0.000614279
0.000741547
0.000711807
0.000740643
0.000681045
0.000696263
0.000654485
0.000549394
0.000566882
0.000506844
0.000463075
0.000589493
0.000695503
0.000708575
0.00066796
0.000530006
0.000482047
0.000646465
0.000886827
0.00070691
0.000564834
0.000500599
0.000572196
0.000674463
0.00071348
0.000643181
0.000601653
0.000601273
0.000614087
0.000676002
0.000732684
0.000662784
0.000574667
0.000662466
0.000652599
0.000622357
0.000616981
0.000677042
0.000841915
0.000769031
0.000770458
0.000860945
0.000846892
0.000842364
0.000835318
0.00086739
0.000783423
0.00067223
0.000683006
0.000594447
0.000556678
0.000763995
0.000835705
0.000813451
0.000789302
0.000619603
0.000582126
0.000765883
0.00103248
0.000827884
0.000659619
0.000640198
0.000685416
0.000794248
0.000758071
0.000716862
0.000701207
0.000715855
0.00074509
0.000829053
0.000855653
0.00079096
0.000685454
0.000743084
0.000768649
0.000727195
0.000770326
0.000813252
0.0010261
0.000966795
0.000959349
0.000999084
0.00101789
0.00103409
0.00103387
0.00103118
0.000897361
0.000836679
0.000839023
0.00072475
0.000654617
0.00089055
0.000958112
0.000940671
0.000914462
0.000751179
0.000706134
0.000962294
0.00116238
0.000936323
0.000764682
0.000814824
0.000853811
0.000970455
0.000835282
0.000811467
0.000776936
0.000830311
0.000870934
0.00102705
0.00102464
0.000897126
0.000782547
0.000839513
0.000912546
0.000882415
0.000910532
0.000965469
0.00122297
0.00114811
0.00113154
0.00111758
0.00125897
0.00127782
0.00124743
0.00119553
0.00105976
0.00103511
0.00101179
0.000858015
0.000758547
0.00101556
0.00108716
0.00106996
0.0010252
0.000869028
0.000832426
0.00115885
0.00127668
0.00104375
0.000884394
0.000971002
0.00110675
0.00116844
0.00095112
0.000930855
0.000885997
0.000913515
0.000959408
0.00117606
0.00117477
0.000997318
0.000887316
0.000952408
0.00102317
0.00103153
0.0010466
0.00110217
0.00141942
0.00131893
0.001251
0.00125151
0.00149597
0.00154053
0.00146377
0.00140253
0.00122676
0.00118052
0.00118555
0.000981214
0.000893397
0.00121538
0.00125739
0.00121465
0.00113434
0.000974165
0.000975398
0.00134967
0.00144427
0.00115807
0.00100279
0.00110116
0.00137287
0.00137332
0.00106693
0.00105962
0.00100654
0.000995868
0.00102895
0.00129059
0.00129495
0.00106914
0.000995464
0.00107249
0.00112052
0.00116739
0.00118616
0.00124282
0.00161552
0.0015195
0.00136045
0.00141558
0.00172255
0.00180482
0.00168624
0.00158437
0.0013594
0.00127061
0.00127336
0.00108166
0.0010402
0.00140135
0.00146132
0.00136026
0.00121761
0.00108838
0.00112584
0.00148714
0.00160636
0.00130034
0.00110353
0.00118726
0.00153972
0.00153742
0.00116265
0.00115461
0.00112254
0.00108228
0.00111395
0.00141373
0.00140307
0.0011525
0.00106174
0.00116851
0.00122913
0.00135255
0.00132612
0.00136413
0.00175701
0.00172854
0.00145443
0.00157916
0.00195033
0.00206936
0.00190548
0.00173529
0.00147406
0.00135389
0.00129722
0.00114432
0.0011409
0.00148208
0.00161975
0.00147489
0.00128382
0.0011694
0.00123602
0.00157497
0.0017302
0.00143689
0.00118838
0.00125744
0.00164007
0.00166252
0.00122609
0.00120826
0.0012011
0.00114051
0.00120304
0.0015297
0.00148836
0.00123857
0.00110348
0.00121914
0.00129761
0.00150283
0.0014536
0.00149605
0.00187447
0.00190652
0.00155763
0.00168771
0.00211171
0.00225051
0.00203844
0.00180847
0.00153426
0.00141115
0.00129304
0.00117007
0.00118605
0.00152976
0.00167105
0.00153754
0.00132726
0.0012108
0.00128463
0.00162231
0.00180746
0.00150113
0.00123676
0.0013128
0.00169355
0.00171095
0.00127413
0.00125136
0.00123899
0.00116717
0.00125433
0.0016037
0.00153621
0.00129807
0.0011446
0.0012542
0.00132951
0.00157424
0.00151618
0.00157348
0.00192339
0.00198695
0.00162739
0.00172826
0.00216662
0.00231677
0.00207993
0.00183667
0.00155115
0.00143823
0.0012858
0.00117519
0.00120683
0.00158624
0.0016693
0.00155574
0.00134809
0.0012339
0.00130792
0.00164173
0.00183922
0.00149869
0.00124577
0.00133798
0.00171262
0.00170921
0.00130049
0.00128215
0.00126128
0.00118012
0.00127192
0.00163186
0.00155476
0.00131832
0.00116813
0.00126978
0.00134095
0.00159134
0.00152579
0.00159053
0.00193111
0.00200845
0.00165973
0.00169829
0.00214774
0.00228393
0.00205181
0.00181685
0.00153717
0.00142666
0.0012659
0.00116243
0.00119881
0.00157597
0.00164735
0.00152931
0.00132704
0.00121634
0.00129276
0.00162191
0.00182165
0.00148084
0.00123074
0.00133217
0.00170563
0.00169111
0.00129187
0.00127182
0.00125296
0.00116926
0.00126304
0.00161515
0.0015364
0.00130586
0.0011561
0.00125567
0.0013262
0.00157602
0.00151148
0.00157413
0.00191102
0.00198999
0.00163622
0.00069981
0.000663634
0.000538556
0.000494439
0.000560514
0.000784559
0.000875614
0.000754203
0.000680365
0.000784024
0.000915396
0.000834924
0.000682226
0.00062182
0.000520493
0.000605378
0.000760898
0.000653051
0.000550288
0.000631782
0.000865495
0.000946187
0.000722604
0.0006678
0.000778427
0.000811893
0.000802358
0.000698066
0.000514521
0.000505731
0.000583445
0.000646
0.000585976
0.000436453
0.000507806
0.000766541
0.000816982
0.000709747
0.00060592
0.000592938
0.000292568
0.000364265
0.00044024
0.000343912
0.00028686
0.000382759
0.000455351
0.000435069
0.000321273
0.00034908
0.000454236
0.000398189
0.00033219
0.000341382
0.000349624
0.000397738
0.000409551
0.000406665
0.000423717
0.000452832
0.000433202
0.000436406
0.000379754
0.000322912
0.000375093
0.000439994
0.00045601
0.000365961
0.000289354
0.00029145
0.000318343
0.000423833
0.000411915
0.000379162
0.000413997
0.000464451
0.000422442
0.000379149
0.000358517
0.000313253
0.000327673
0.0003058
0.000253645
0.000183434
0.000234448
0.000290649
0.000247651
0.000222306
0.000261832
0.000244866
0.000213624
0.000203651
0.000245405
0.000261119
0.000278732
0.00028542
0.000290645
0.000264778
0.000254406
0.000243784
0.000293656
0.000309119
0.00027097
0.000282405
0.000249023
0.000270532
0.000283231
0.000231122
0.000201253
0.000253975
0.000299224
0.000310532
0.000283698
0.000228278
0.000193234
0.000241218
0.000278069
0.000239824
0.000250577
0.000302797
0.000291076
0.000297456
0.000263223
0.00018716
0.000220193
0.000259419
0.000239223
0.000207832
0.000233837
0.000225974
0.000239944
0.000311742
0.000289573
0.00020571
0.000233771
0.000255285
0.00028321
0.000271849
0.00024417
0.000243304
0.000272535
0.000273871
0.000209197
0.000182276
0.00020854
0.000293595
0.000253761
0.000187405
0.000180669
0.000227439
0.000284111
0.000279557
0.000228581
0.0001609
0.000194939
0.000304051
0.000301935
0.000295197
0.000320162
0.000307383
0.000258562
0.000300724
0.000347339
0.000364382
0.00031237
0.000229856
0.000205489
0.000284857
0.000343632
0.000317938
0.000272057
0.000256703
0.000243353
0.00027708
0.000297355
0.000250118
0.000224875
0.000230926
0.000283868
0.000308266
0.000266151
0.000216705
0.000279285
0.000274893
0.000248226
0.000228328
0.000246692
0.000290299
0.000281909
0.000237501
0.00024982
0.000222237
0.000221145
0.000259318
0.000273683
0.00029865
0.000285693
0.000326395
0.000366456
0.000291037
0.000279012
0.000274848
0.000239596
0.000238036
0.000213106
0.000232678
0.00022119
0.000187398
0.000184783
0.000184597
0.000229036
0.000233638
0.000235939
0.000229871
0.000259865
0.000214188
0.000227468
0.000273084
0.000252077
0.000223355
0.000205146
0.000295331
0.000327338
0.000242707
0.000223947
0.000280099
0.000237698
0.000258819
0.00026308
0.00020491
0.000262625
0.000260084
0.000238111
0.000214766
0.000221775
0.00023903
0.000271272
0.000301433
0.000229536
0.000201655
0.000240446
0.000270902
0.000249854
0.000233406
0.000264678
0.000264451
0.000207899
0.000226633
0.000291438
0.00023251
0.000253951
0.00028826
0.000269202
0.000251815
0.000235068
0.000220812
0.000234456
0.000204381
0.000230203
0.000221148
0.000210799
0.000227272
0.000223468
0.000233441
0.000228561
0.00021223
0.000223684
0.000252585
0.000278316
0.000248188
0.000175988
0.00026724
0.000261711
0.000197435
0.000243107
0.000204322
0.000224441
0.000307173
0.000257225
0.000187828
0.00022119
0.000231696
0.000238828
0.0002409
0.000365431
0.000377269
0.000252427
0.000289541
0.000307607
0.000231728
0.000251128
0.000330413
0.000283558
0.00017373
0.000184045
0.000213653
0.000199604
0.000214307
0.000266734
0.000214079
0.000228522
0.000358695
0.00034366
0.000294626
0.000266187
0.000248993
0.000190096
0.000205948
0.000255626
0.000226572
0.000240252
0.000237434
0.000192381
0.000194767
0.000229274
0.000225298
0.000263575
0.000285829
0.000228664
0.000210793
0.000192012
0.00024526
0.000271559
0.000303145
0.000300455
0.000258939
0.000253269
0.000244274
0.000260741
0.000296909
0.000241798
0.000258164
0.000219382
0.000226183
0.000282586
0.000264664
0.000214562
0.000268437
0.000323493
0.000241826
0.000255409
0.000325173
0.000410591
0.000338224
0.000310348
0.000286189
0.000264054
0.000235237
0.00026982
0.000309387
0.000220884
0.000261438
0.000326949
0.000233688
0.000227309
0.000242992
0.00029523
0.000319344
0.000296487
0.0002269
0.000326795
0.000348399
0.000375593
0.000460053
0.000436415
0.00030731
0.000250361
0.000268813
0.000279301
0.000343215
0.00032153
0.000325202
0.000313766
0.000380401
0.000398682
0.000374215
0.000311662
0.000296379
0.000322616
0.000397431
0.000529581
0.000545361
0.000509391
0.000435652
0.000444433
0.000416834
0.000371632
0.000228369
0.000343819
0.000252869
0.000290143
0.000392697
0.000315347
0.000318261
0.000323098
0.000282839
0.000317015
0.000309958
0.000260858
0.000264541
0.000358621
0.000373233
0.000388351
0.000445292
0.000400795
0.00033805
0.000396443
0.000415658
0.000370353
0.000376415
0.000347485
0.000423612
0.000410257
0.00043494
0.000422787
0.000337303
0.000335315
0.00038393
0.000392548
0.000427389
0.000405407
0.000375602
0.000449568
0.000508027
0.000469955
0.00035839
0.00026828
0.00027887
0.000354286
0.000284449
0.000279537
0.000316893
0.000328626
0.000300075
0.000268688
0.00027489
0.000284313
0.000311667
0.000291919
0.000293762
0.000354208
0.000352231
0.000549269
0.000424465
0.000460177
0.000552875
0.000522895
0.000435116
0.000325954
0.000323449
0.000354968
0.00044933
0.000455911
0.000304837
0.000310275
0.000381634
0.000330803
0.0003446
0.000287452
0.000283009
0.000386745
0.000435562
0.000463169
0.000372366
0.000413995
0.000404081
0.000302266
0.000339239
0.000392392
0.00035623
0.000356854
0.000347727
0.000348917
0.00029776
0.00031394
0.000346297
0.000367273
0.000375634
0.000351576
0.000346493
0.000349306
0.000367917
0.000549556
0.000737289
0.000819987
0.000640956
0.000513402
0.000404157
0.000273376
0.000289511
0.000359738
0.000496876
0.000454671
0.000368719
0.000306213
0.000311405
0.00038445
0.000390676
0.000266004
0.00034451
0.000582822
0.000512325
0.00041728
0.000398086
0.000470664
0.000311313
0.00031268
0.000400415
0.000399482
0.000378151
0.000406514
0.00032252
0.000301945
0.000346017
0.000371193
0.00042942
0.000415031
0.00043301
0.000458731
0.000364237
0.00035958
0.00039825
0.000443426
0.000561789
0.000580132
0.000474557
0.000486647
0.000401249
0.000320806
0.000325788
0.000436348
0.000451647
0.000416114
0.000324633
0.00033721
0.000325724
0.000423028
0.000412572
0.000347198
0.000477853
0.000539122
0.000472774
0.000435477
0.000451098
0.000492961
0.000428012
0.000403607
0.000416452
0.000449533
0.000329441
0.00040659
0.000359611
0.000374777
0.00041502
0.00046142
0.000493096
0.000373603
0.000520004
0.000567658
0.000429957
0.000458852
0.000457099
0.000486016
0.000521518
0.000472472
0.00045242
0.000493611
0.000475964
0.000399899
0.000372124
0.000508114
0.00041858
0.000353183
0.000344117
0.000376022
0.000368944
0.000383561
0.000455751
0.000350122
0.000442007
0.000627161
0.000528164
0.000456844
0.000454426
0.000476089
0.000379436
0.000444279
0.000466405
0.000515889
0.000375204
0.000411914
0.000416423
0.000441963
0.000453228
0.000519199
0.000509776
0.000543296
0.000654516
0.00049088
0.000452064
0.000407743
0.000495236
0.000613241
0.000640162
0.000581041
0.000429086
0.000474094
0.000499044
0.000481057
0.000441995
0.000446756
0.000376381
0.000466637
0.000490828
0.000441536
0.000391803
0.00038405
0.000387352
0.000342679
0.000491413
0.000518799
0.000414972
0.000451392
0.000501183
0.000602771
0.000497474
0.000467891
0.00054433
0.000418013
0.000367172
0.000447884
0.000475818
0.000427531
0.000431415
0.000438267
0.000428785
0.000501011
0.000601539
0.000524764
0.000449121
0.000320049
0.000498547
0.000630207
0.000613226
0.000527014
0.000398207
0.000478139
0.000501724
0.000484757
0.000480033
0.000406644
0.000396099
0.000477695
0.000414249
0.000417428
0.000373751
0.00033358
0.000311712
0.000345561
0.000409277
0.000374983
0.000363163
0.00041902
0.000515022
0.000635934
0.000453066
0.000444893
0.000440984
0.000368528
0.000430581
0.000474875
0.000450341
0.00037866
0.000382125
0.00039225
0.000398579
0.000440526
0.000584606
0.000502322
0.000364712
0.00032705
0.00039061
0.000526249
0.000652997
0.000556009
0.000420027
0.000453312
0.000454727
0.000467632
0.00043445
0.000443775
0.000583442
0.000549352
0.0004861
0.000507774
0.0004106
0.00041642
0.000349147
0.000418056
0.000390479
0.000363526
0.000395155
0.000504011
0.000485215
0.000478242
0.000416138
0.000416631
0.000392612
0.000417597
0.000493743
0.000555286
0.000482283
0.000366105
0.000355614
0.000401452
0.000438228
0.000455177
0.000482384
0.000437526
0.000376279
0.000359222
0.000478089
0.000617034
0.000718967
0.000517085
0.000405737
0.000414008
0.000456154
0.000495206
0.000396025
0.000377339
0.00048905
0.000516122
0.000533337
0.000536558
0.000397466
0.000473185
0.000354888
0.000479985
0.000414742
0.000397896
0.000457965
0.000486593
0.000451317
0.000485134
0.00039934
0.000410032
0.000468036
0.000506241
0.000524329
0.000576075
0.000501908
0.000369281
0.000383192
0.000402471
0.000400545
0.000418229
0.000429536
0.000421657
0.000387053
0.000414524
0.000562092
0.000690713
0.000690383
0.000518952
0.000424054
0.000432642
0.000448018
0.000422862
0.00034224
0.000414384
0.000515024
0.000597338
0.000600678
0.000524265
0.000422596
0.000601379
0.000471939
0.000538904
0.000463346
0.000398513
0.00043915
0.000442837
0.000442795
0.000412081
0.000398399
0.000485746
0.000490782
0.000510592
0.000477716
0.000508807
0.000474248
0.000355442
0.000352953
0.000395754
0.000383192
0.00040076
0.000417175
0.000427268
0.000386746
0.000493833
0.000625266
0.000717369
0.000661957
0.000557763
0.000454748
0.000497461
0.000510875
0.000429659
0.000304553
0.000388116
0.000564259
0.000649802
0.000649554
0.000570589
0.000497249
0.000723124
0.000566084
0.000577531
0.000433976
0.000402921
0.000490823
0.000516522
0.00048821
0.000390173
0.000437851
0.000556367
0.000516882
0.000530589
0.000497122
0.000546815
0.000522251
0.000383679
0.000360771
0.000408003
0.00040264
0.000488571
0.000449602
0.000443842
0.000430156
0.000561359
0.000647184
0.000668443
0.000652129
0.000556022
0.000471946
0.000537059
0.000511042
0.000414877
0.000264102
0.000377363
0.000638922
0.000709266
0.000668819
0.000572207
0.000478119
0.000695614
0.000593815
0.000581186
0.000406969
0.000399449
0.000495742
0.000508816
0.00052032
0.000427915
0.000483726
0.000588978
0.000525287
0.000526253
0.0005139
0.000549759
0.000521343
0.000401675
0.000356075
0.000398513
0.000424998
0.000517709
0.00045729
0.00043435
0.000454614
0.000564687
0.000617702
0.000629283
0.000649968
0.000572328
0.000495363
0.000518943
0.000504386
0.000433856
0.000273944
0.000449257
0.00071666
0.000711648
0.000678398
0.000558649
0.000497138
0.000712052
0.000631746
0.000618038
0.000418742
0.000415903
0.00052886
0.000506952
0.000524084
0.000412516
0.000530512
0.000594907
0.000526414
0.00055363
0.000523187
0.000565738
0.00053433
0.000411019
0.000363731
0.00041705
0.000436112
0.000500161
0.000458501
0.000456607
0.000427542
0.000587026
0.000605322
0.000618755
0.000654219
0.000577141
0.000523392
0.000554493
0.000555755
0.000456248
0.000296598
0.000499831
0.000778257
0.000758441
0.000689159
0.000558502
0.000521999
0.0007245
0.000652713
0.000632129
0.000430699
0.000463477
0.000589805
0.000543542
0.000546195
0.000404881
0.000557806
0.000603256
0.000529757
0.000547638
0.000522097
0.000575297
0.000557023
0.000422526
0.000362194
0.000430824
0.000461351
0.000527368
0.000499554
0.000499637
0.000454493
0.000618051
0.000605986
0.000626517
0.000679917
0.000618929
0.000579943
0.00059835
0.000608825
0.000499572
0.00033605
0.000529073
0.000818168
0.000795172
0.000714357
0.000583427
0.00055466
0.000765639
0.000668467
0.000645447
0.000442994
0.000492886
0.000657176
0.000582167
0.000548908
0.000401791
0.00057541
0.000610742
0.000534782
0.00055716
0.00054347
0.000610174
0.000590682
0.000438164
0.000371285
0.000453954
0.000474609
0.000548308
0.000534655
0.000557063
0.000490856
0.000648302
0.000641253
0.000655657
0.000699421
0.000648182
0.000640377
0.000637721
0.000654929
0.000572003
0.000382694
0.000567792
0.00083766
0.000818512
0.00073888
0.000586784
0.000576238
0.000794885
0.000693882
0.000665045
0.000457423
0.00053305
0.000730219
0.000611468
0.000560206
0.000412866
0.000599027
0.000623738
0.000549029
0.00057567
0.000567601
0.000637571
0.000622119
0.00046142
0.000383358
0.000470166
0.000494633
0.00056385
0.000567609
0.000606859
0.000508211
0.000678483
0.000681794
0.000684696
0.000721223
0.000673257
0.000696059
0.000663226
0.000696815
0.000621864
0.00042213
0.000607939
0.000884169
0.000832994
0.000761144
0.000594705
0.000595666
0.000830424
0.000704679
0.000684199
0.000483446
0.00057258
0.000784283
0.000638025
0.000572922
0.000430546
0.000613026
0.000633893
0.000564221
0.000599472
0.000609058
0.000659812
0.000651026
0.000488162
0.000390498
0.000491887
0.00051571
0.000578823
0.000595925
0.000643964
0.000529357
0.000697892
0.000707884
0.000704647
0.000730277
0.000688475
0.000736733
0.000680062
0.00072651
0.000650287
0.000443798
0.00063417
0.000925835
0.000824032
0.000780553
0.000609909
0.00059977
0.000854678
0.000728866
0.000699847
0.000507105
0.000606216
0.000825283
0.000655783
0.000584343
0.000447221
0.000618038
0.000640698
0.000579979
0.000616355
0.000642091
0.000667692
0.000666452
0.000513275
0.000393213
0.000505589
0.000528374
0.000587762
0.000619936
0.000671253
0.00054133
0.000701947
0.000717025
0.000707061
0.000736383
0.000678187
0.000757698
0.000691518
0.000732756
0.000654585
0.000451262
0.000653988
0.000950938
0.000804193
0.000776496
0.000616247
0.000596307
0.000861249
0.000751448
0.000705804
0.000514543
0.000621632
0.000834552
0.000659635
0.00059216
0.000460406
0.000611726
0.000642285
0.000588159
0.000617408
0.00066215
0.000660637
0.000665752
0.00052719
0.000391526
0.000504986
0.000532354
0.000588764
0.000632909
0.000687724
0.000545999
0.000686248
0.000713107
0.000709075
0.000744063
0.000666593
0.000759448
0.000689067
0.000726355
0.000654504
0.000446063
0.000653153
0.00094413
0.000783022
0.000769206
0.000606496
0.000580613
0.000857947
0.000768268
0.000703353
0.000508854
0.000613664
0.000823512
0.000658014
0.000593831
0.00045868
0.000588421
0.000633899
0.000583697
0.000605531
0.000662631
0.000637255
0.000645657
0.000525388
0.000387223
0.00049665
0.000526656
0.000583383
0.000638322
0.000703032
0.000544941
0.000673216
0.000709154
0.000712816
0.000736069
0.000655983
0.00075491
0.000682986