/*--------------------------------*- C++ -*----------------------------------*\
  =========                 |
  \\      /  F ield         | OpenFOAM: The Open Source CFD Toolbox
   \\    /   O peration     | Website:  https://openfoam.org
    \\  /    A nd           | Version:  10
     \\/     M anipulation  |
\*---------------------------------------------------------------------------*/
FoamFile
{
    format      ascii;
    class       volVectorField;
    location    "17.5";
    object      U_0;
}
// * * * * * * * * * * * * * * * * * * * * * * * * * * * * * * * * * * * * * //

dimensions      [0 1 -1 0 0 0 0];

internalField   nonuniform List<vector> 
25600
(
(1.06006 -0.036915 0.161537)
(0.867782 0.210278 0.0647218)
(0.935699 0.213267 0.0226453)
(1.22114 0.190057 0.123387)
(1.03781 0.0773646 0.10339)
(1.13943 0.164732 -0.0835553)
(1.33233 0.23014 0.169302)
(0.959095 -0.0242599 0.382914)
(1.0889 -0.160917 0.345572)
(1.24471 -0.0484797 0.123348)
(1.23505 0.122514 -0.106831)
(1.37036 0.133193 0.189635)
(1.27316 0.0525592 0.311842)
(1.08155 -0.208958 0.199539)
(1.1346 -0.213829 0.12587)
(1.13099 0.0651428 0.145348)
(1.06385 0.232852 0.291239)
(1.03259 0.00347398 0.392704)
(0.868823 -0.245993 0.103863)
(1.03638 -0.0432066 -0.0832548)
(0.992808 -0.0572357 0.0874864)
(1.17796 0.00975737 0.236049)
(1.22728 0.270204 0.289279)
(1.09457 0.0109977 0.0648487)
(0.926898 -0.0412526 -0.134975)
(0.952385 0.226128 -0.153729)
(1.29034 0.046957 0.0118303)
(1.25492 -0.119596 0.249023)
(0.97421 -0.0552661 0.382075)
(1.01526 0.000114167 0.193845)
(1.11196 -0.0322979 0.0765508)
(0.994893 0.0235743 0.186646)
(0.871507 0.0370974 0.235062)
(1.02908 -0.0415779 0.268117)
(1.2532 0.17144 0.00949272)
(1.04308 0.203478 -0.00154449)
(0.996214 0.10322 0.251204)
(0.887269 0.121791 0.107871)
(1.20369 -0.0046698 -0.0418627)
(1.21462 -0.239262 0.12724)
(1.05561 0.253257 -0.0768465)
(1.61267 -0.0565144 -0.0269863)
(1.12835 0.0455445 0.153357)
(0.957478 0.287231 0.0532918)
(0.910462 0.098504 -0.0502605)
(0.915176 -0.149775 -0.129296)
(1.5213 0.246035 0.0480029)
(0.973285 -0.0310582 0.020756)
(0.874879 -0.219151 -0.011966)
(1.28635 0.163461 -0.0652977)
(1.24167 0.119425 -0.0610955)
(1.385 0.10202 0.00775282)
(1.12326 0.158548 -0.0309336)
(1.14988 0.00275998 0.0557377)
(1.10229 -0.0281922 0.044864)
(1.18065 0.120637 0.0517738)
(1.18887 0.173778 0.165379)
(1.29308 0.156658 0.00787629)
(1.29524 0.0192147 0.0267073)
(0.91715 0.00899661 0.124591)
(1.02757 -0.10197 0.0110864)
(0.863743 -0.344682 -0.122352)
(1.11506 -0.0765253 -0.0652867)
(1.49349 0.374903 0.0890461)
(1.09479 0.298728 -0.0584217)
(1.16929 0.153967 -0.217636)
(1.41274 0.218642 0.0718243)
(1.13734 0.241766 0.0427753)
(1.78606 0.372225 0.0718312)
(1.57448 0.103286 0.0853888)
(1.38352 0.0984349 -0.0648995)
(1.33501 -0.0090823 0.137684)
(1.1603 0.0612471 0.197557)
(1.26861 0.294932 0.0421913)
(0.916812 -0.0487498 -0.152827)
(1.476 0.0300507 -0.16591)
(1.2733 0.304163 0.126159)
(0.897409 0.0967513 0.0116943)
(1.16421 -0.0131134 -0.09556)
(1.12232 0.347735 0.141656)
(1.64663 0.178082 -0.120377)
(1.4745 0.123313 -0.0625613)
(1.17409 -0.17943 -0.0113726)
(1.39424 0.247778 0.0252769)
(1.76961 0.505369 0.0208509)
(1.33279 -0.000340557 -0.0409948)
(0.929811 0.138557 -0.0918914)
(1.52958 0.418407 -0.130756)
(0.722786 -0.215619 0.148184)
(1.13801 -0.114598 0.219326)
(1.52038 0.029385 0.277797)
(1.00475 -0.0579434 0.117967)
(1.03937 0.0133029 -0.182272)
(0.970217 -0.0317977 -0.0275493)
(0.870014 0.0410645 0.191174)
(0.966771 0.220976 0.120704)
(1.37004 0.0968231 -0.0640425)
(1.37932 -0.00665823 0.0455211)
(1.1891 0.348109 0.0957925)
(0.896513 0.267697 -0.0557311)
(0.867087 0.0143679 0.110363)
(0.769432 -0.0723004 0.117511)
(0.842733 -0.0217442 0.0713879)
(0.925802 -0.0174113 0.225756)
(0.770702 0.0209375 0.173043)
(0.865373 0.0396757 0.163423)
(1.23074 0.0350236 0.162669)
(0.914753 -0.290889 0.0586418)
(1.10941 -0.0690548 0.055806)
(1.13651 0.327417 0.00405776)
(0.953004 0.0766866 0.0216836)
(1.2353 0.0595043 0.0312434)
(1.06006 0.0977289 0.0317744)
(1.37353 0.214753 0.0939554)
(1.39958 0.226089 0.0129064)
(1.10945 0.15493 -0.0174521)
(0.976214 0.34067 0.0699543)
(0.89836 0.195258 0.0924717)
(0.963866 -0.161384 0.101617)
(0.968713 -0.207588 0.00745724)
(0.996104 0.0689725 0.0802121)
(1.3071 -0.0207985 0.0883391)
(1.0892 -0.214498 -0.0248803)
(1.05153 -0.0453895 -0.0846809)
(1.72217 0.326492 -0.0748432)
(1.73881 0.338422 -0.0399908)
(1.44841 0.219265 0.0397224)
(1.72422 0.272818 -0.0365988)
(1.45988 0.347093 -0.190038)
(1.29289 0.0203029 -0.130016)
(1.57818 0.0548583 0.0348778)
(1.37867 0.338216 0.0512691)
(1.21727 0.348227 -0.0320359)
(1.35883 0.173025 0.0687787)
(1.37214 0.195998 0.125737)
(1.34805 0.174104 -0.00478518)
(1.239 0.0687135 -0.151036)
(1.07319 0.238779 -0.0453278)
(1.04052 0.282322 0.0857947)
(1.0917 0.156714 0.0235849)
(1.48463 0.250667 -0.0088217)
(1.3422 0.158099 -0.0425482)
(1.08668 -0.0673504 -0.0253083)
(1.35487 0.477436 0.0517881)
(1.20957 0.442216 0.0020907)
(1.28961 -0.210436 0.0632999)
(1.72189 0.326993 0.00114029)
(1.34664 0.255109 0.0578736)
(0.796073 -0.0316417 0.175281)
(0.999467 0.254018 0.0780495)
(0.992503 0.0907797 0.0739472)
(0.956668 0.0919734 0.168646)
(1.25367 0.162935 0.0832324)
(1.07187 0.138827 -0.0588374)
(1.12433 0.00874166 -0.0398503)
(1.00838 -0.207251 -0.0148302)
(0.926796 0.106112 -0.00690751)
(1.35837 0.230473 0.0468633)
(1.73211 0.125274 -0.0133178)
(1.39913 0.145 -0.00793329)
(1.05258 -0.0882972 0.0193193)
(1.64946 0.120831 -0.0333195)
(0.90991 0.242718 -0.0233511)
(0.518959 -0.046762 -0.070659)
(1.06479 -0.0413739 0.0574066)
(1.07402 0.0289173 0.152413)
(1.2928 0.162211 0.0782306)
(1.08969 0.225962 0.0459596)
(0.990537 0.159646 0.0730206)
(1.12923 -0.078398 0.0470053)
(1.10593 -0.0214394 0.0465075)
(0.915398 0.112169 -0.0519363)
(1.24216 0.0135229 -0.113649)
(1.16719 -0.0522436 0.0264833)
(1.0491 0.0660244 0.00937755)
(1.51971 0.254936 -0.051768)
(1.15392 0.0868678 -0.0759146)
(1.42172 0.178425 -0.102102)
(1.68763 0.225594 0.0441308)
(1.28451 0.0170472 0.138366)
(1.47874 0.0327047 0.0379795)
(1.18682 0.157774 0.0360854)
(1.29634 0.166151 -0.10951)
(1.32193 0.141189 -0.149997)
(1.96358 0.170415 -0.000596159)
(1.6805 0.0333853 0.066165)
(1.01873 -0.136509 0.116358)
(1.52523 0.108298 0.0437234)
(1.49232 0.331766 -0.0653121)
(1.46111 0.328246 -0.00304274)
(1.35057 0.203379 0.0629225)
(1.1784 -0.0806228 -0.0564845)
(1.44076 -0.232375 0.0560552)
(1.06252 -0.0856983 0.153846)
(1.34026 0.117199 -0.0214856)
(1.19834 0.112378 -0.0610035)
(0.844451 -0.0895998 0.0492836)
(1.09071 -0.0934911 0.00305354)
(1.04504 0.0687482 -0.0160194)
(1.27865 0.221581 0.0694838)
(1.32696 -0.0296464 0.00523439)
(0.996704 -0.138103 0.0201969)
(1.65446 0.156846 0.0441085)
(1.43718 0.247767 0.00998017)
(1.37649 0.179678 0.00979854)
(1.34457 0.25026 0.0715129)
(1.18178 0.209988 0.01349)
(1.02918 0.244797 -0.00842439)
(0.81969 0.0685621 0.0332916)
(1.02226 -0.00758568 -0.0532233)
(1.017 0.24426 -0.159343)
(1.2759 0.26695 -0.136231)
(1.02806 0.18774 -0.0539316)
(0.585659 0.0673521 -0.00206692)
(0.789158 -0.150733 0.0416714)
(1.26532 -0.0340449 0.101368)
(1.40864 0.179808 -0.0467579)
(1.47258 0.0842071 -0.0969094)
(1.32541 0.0581656 0.0560392)
(1.25814 0.0395662 -0.00236355)
(1.51167 0.154303 -0.0176853)
(1.27155 0.0749615 0.0519851)
(1.2835 -0.158775 -0.0479114)
(1.35895 -0.0414475 -0.0306487)
(1.05967 0.155225 0.090135)
(1.25355 0.251222 0.0900964)
(1.34477 0.128678 -0.101475)
(1.44048 0.0224824 -0.13703)
(1.29677 -0.0172348 -0.039294)
(1.40087 -0.0154361 -0.079283)
(1.48634 0.201063 -0.00909082)
(1.52334 0.422823 0.0135116)
(1.46291 0.201597 -0.0609684)
(1.39507 0.252002 -0.00844524)
(1.043 0.115833 0.0301682)
(1.11132 -0.116295 -0.130386)
(1.81866 0.071742 -0.0873697)
(1.53219 0.191357 0.0426414)
(1.30483 0.0969487 0.007022)
(1.88492 0.0787682 -0.0160352)
(0.804669 0.0940534 0.0681303)
(0.845472 -0.164905 0.0885088)
(1.38249 0.0285281 -0.039496)
(1.41937 0.132222 0.039568)
(1.338 -0.129828 0.0993538)
(1.28746 0.000129787 -0.052744)
(1.5118 0.256332 -0.0161776)
(1.48016 0.17893 0.0326914)
(1.53197 0.0974219 -0.0930166)
(1.02283 0.0449774 0.00282997)
(0.96324 0.103356 0.0141208)
(1.12614 -0.00179984 -0.044698)
(1.178 0.205213 0.0718977)
(1.23659 0.229574 0.156796)
(0.92526 -0.132594 0.072285)
(1.22114 -0.00407329 -0.0187919)
(1.21352 0.00850211 -0.0407752)
(1.12947 0.0486589 -0.045258)
(1.40784 0.13609 -0.0353016)
(1.14612 0.116872 0.0423749)
(1.15022 0.177327 0.0792739)
(1.09969 0.0411169 -0.0336284)
(1.46497 0.0650992 0.0107773)
(1.41858 0.342354 0.0770615)
(1.08126 0.38395 0.00393596)
(1.10569 0.03485 -0.0551332)
(0.765376 -0.287824 -0.101171)
(1.04412 0.00311109 -0.0760723)
(1.48888 0.372329 0.113573)
(0.89193 0.223524 0.0350896)
(0.781465 0.117754 -0.0690462)
(1.18771 0.0184456 -0.0206386)
(1.3708 0.0803258 -0.0147801)
(1.00953 0.137247 -0.0348596)
(1.2754 0.03937 0.104894)
(1.25971 -0.0144095 0.0264715)
(1.14149 -0.164131 -0.139172)
(1.13626 0.0271275 -0.11185)
(1.72684 0.0546371 -0.045399)
(1.63946 0.0429315 0.0175502)
(1.02783 0.187505 -0.0490123)
(0.784759 -0.0982625 0.165677)
(0.851548 -0.100129 0.0732747)
(1.20509 0.0300332 0.0254836)
(1.37533 0.259902 0.0643163)
(1.03853 0.145586 0.0416528)
(1.15758 -0.083955 0.0756299)
(1.30545 0.218908 0.048416)
(1.22231 0.304136 0.0401586)
(1.27877 0.171635 0.046253)
(1.2908 0.251806 -0.00615125)
(1.35684 0.269699 -0.0509863)
(1.09936 0.177144 0.0365539)
(1.24702 0.0360537 0.163143)
(0.982316 -0.119738 0.151995)
(1.28305 -0.0554435 0.046389)
(1.20437 0.170349 -0.11592)
(1.07586 0.034931 0.0327809)
(1.35432 0.108076 0.124735)
(1.00052 0.262555 -0.0426227)
(0.917092 0.218781 -0.0962552)
(1.06132 -0.061341 -0.0984271)
(1.373 -0.122203 -0.0104936)
(1.11226 0.17036 0.0524738)
(1.18121 0.229033 -0.0669874)
(1.39889 0.248759 -0.0910485)
(1.2661 0.218189 -0.0263934)
(0.804272 0.0723622 -0.00124027)
(1.33236 0.162363 -0.0320152)
(1.39653 0.356745 -0.0338021)
(1.23085 0.292728 -0.0767176)
(1.35268 0.172096 -0.115335)
(1.04409 0.0602459 0.0409757)
(1.36671 0.018942 0.0813104)
(1.14573 -0.0518672 0.00347141)
(1.02256 0.00593194 -0.176101)
(1.41501 0.147449 -0.206264)
(1.10768 -0.0824695 -0.0947307)
(1.45724 -0.0670298 0.0111378)
(1.33555 0.32163 -0.0730561)
(1.53382 0.246944 -0.0827598)
(1.09458 0.0810464 -0.115968)
(1.17272 -0.0067975 -0.0843871)
(1.05867 0.0299522 0.104728)
(1.12745 0.18065 0.00908397)
(1.46296 0.0887398 -0.0580172)
(1.02441 0.0544929 0.0476371)
(0.717094 0.206212 -0.0570966)
(1.29347 0.0782588 -0.0405365)
(1.09774 0.0600712 -0.0156681)
(1.20083 0.226327 -0.0386935)
(1.27347 0.22823 -0.0597952)
(1.32204 0.203524 -0.0625995)
(1.67381 0.26799 0.0486882)
(1.41054 -0.0125118 0.0671882)
(0.974064 -0.17758 0.0435405)
(1.30463 0.232314 -0.0303974)
(1.30403 0.107949 0.0510225)
(1.29728 0.0672243 0.0243835)
(1.53837 0.408346 -0.107721)
(1.06493 0.279791 0.0659323)
(0.958585 -0.167684 0.0766666)
(0.982046 -0.176256 -0.0634136)
(1.24788 0.242586 -0.103656)
(1.05429 0.351601 -0.115538)
(1.21699 0.240024 -0.0963875)
(1.0967 0.160318 -0.036941)
(1.08158 0.0321409 0.000454165)
(1.1285 -0.195022 -0.0368911)
(1.44384 0.00307838 -0.00222568)
(1.68312 0.201422 -0.113529)
(1.84549 0.120264 -0.122741)
(1.44068 0.0845655 0.0346526)
(1.31047 0.144903 0.0117787)
(1.23315 0.0722419 -0.00832232)
(1.28987 -0.0189149 -0.0568378)
(1.34005 0.0743726 -0.0740316)
(1.28776 0.117506 -0.108544)
(1.22181 0.105885 -0.0407197)
(1.66036 0.305711 -0.00911865)
(1.40598 0.269018 0.020225)
(1.21878 0.143494 -0.0479348)
(1.3383 -0.0211721 -0.217989)
(0.882034 0.0399431 -0.0998044)
(1.18539 0.202549 -0.0357841)
(1.62282 0.0881723 -0.113374)
(1.35734 0.151144 0.0228706)
(1.25114 0.249068 0.0394795)
(1.18207 0.0898149 -0.0166753)
(0.990211 0.112257 0.0505296)
(1.47245 0.156282 0.0729243)
(1.44499 0.166067 -0.0260262)
(1.29438 0.114005 0.0221071)
(1.50778 0.19353 0.073145)
(1.45359 0.175307 -0.0379944)
(1.14447 -0.0153009 0.0306594)
(1.2684 0.190105 -0.0192767)
(1.48672 0.155211 -0.109344)
(1.14055 -0.00689722 -0.0415289)
(1.13003 0.260758 0.0756204)
(1.40097 0.394223 0.0100821)
(1.36254 0.0814179 0.00941017)
(1.08261 -0.0329883 0.107511)
(0.958113 0.29516 -0.0505827)
(1.02275 0.26971 -0.0322298)
(1.51888 0.0758091 -0.0189632)
(1.68864 0.29154 -0.0463075)
(1.77959 0.185812 0.0390691)
(1.50357 -0.0801019 0.0155019)
(1.29419 0.0621238 0.0439031)
(1.4342 0.152423 0.0552495)
(2.10256 0.211978 -0.0197185)
(1.28382 0.186758 -0.0429723)
(1.41168 0.115565 0.0308453)
(1.55935 0.0437394 0.0426215)
(1.04433 0.088334 -0.0545605)
(0.955959 0.181529 -0.0886655)
(1.11393 0.0691956 -0.150073)
(0.861059 -0.0496575 -0.121262)
(1.5952 0.146059 0.00536102)
(1.66018 0.270093 0.0349386)
(1.31038 0.232192 0.00561515)
(1.38594 0.249245 -0.00491779)
(1.09259 0.142656 -0.0128314)
(1.33367 -0.0199426 -0.106)
(1.71817 0.00160078 -0.103411)
(1.13397 0.134029 -0.00444256)
(1.40468 0.227911 0.073193)
(1.5424 0.219468 0.00689956)
(0.930762 0.0396966 -0.0846918)
(1.29514 0.0505735 -0.0711804)
(1.82276 0.260082 0.0212268)
(1.33648 0.176771 0.0394159)
(1.45705 0.155314 -0.105031)
(1.19618 0.0640108 -0.0819828)
(0.920843 -0.00458618 0.0984273)
(0.955193 0.162383 0.00491656)
(1.28802 0.207591 -0.116515)
(1.363 0.137278 -0.0371474)
(1.09206 0.113132 0.0232301)
(1.72575 0.265345 -0.01869)
(1.79031 0.109394 0.018168)
(1.19584 -0.00236686 0.118132)
(1.09243 0.285788 0.0172223)
(1.55036 0.223699 -0.0644663)
(1.64761 0.0275091 -0.047978)
(1.64893 0.130544 0.0300462)
(1.80612 0.139019 0.0903414)
(1.27718 -0.0883002 0.0608037)
(1.28512 0.0618872 0.0733002)
(1.24411 -0.00677216 0.0772392)
(1.59814 0.0439579 0.0255363)
(1.82333 0.359872 0.0160384)
(1.51406 0.101353 0.0729317)
(1.28808 0.0721093 0.0654269)
(1.08711 0.170751 -0.0178541)
(1.14247 0.206948 -0.0199486)
(1.20192 0.258787 0.00720355)
(1.11896 -0.0265443 -0.0403215)
(1.51696 -0.0355275 -0.0326925)
(1.59938 0.288585 0.00323883)
(1.21924 0.318583 -0.0417006)
(1.41633 0.268026 0.0987314)
(1.29963 0.114564 0.0521451)
(1.48703 -0.0650974 -0.0830507)
(1.96355 0.0187302 -0.0657326)
(1.40916 0.288715 0.0296322)
(1.66073 0.273997 0.0624161)
(1.3936 0.237877 -0.00960679)
(1.36222 0.144739 -0.0111365)
(1.11687 -0.11738 -0.0640873)
(1.77096 0.136087 -0.0387413)
(1.77413 0.163463 0.03734)
(1.38211 0.149013 -0.110766)
(1.42789 0.320247 -0.09445)
(0.882496 0.115175 0.0802439)
(0.853537 0.0657908 -0.0316937)
(1.31525 0.08738 -0.0625241)
(1.3603 0.0730444 -0.0291345)
(1.39787 0.0479961 -0.136427)
(1.3305 0.035683 -0.113457)
(1.15862 0.107417 0.0459779)
(1.04817 0.170122 0.0506297)
(1.3122 0.177537 -0.0322105)
(1.5689 0.0700301 -0.0560877)
(1.39197 0.0479913 -0.0461441)
(1.39534 0.179334 0.0765903)
(1.4571 0.150824 0.0653254)
(1.37413 0.0834926 0.00604696)
(1.36877 0.160805 0.0502514)
(1.36853 -0.0315017 -0.04461)
(1.4263 0.0141505 -0.0656106)
(1.57376 0.239057 0.0379738)
(1.36117 0.105556 0.0514745)
(1.36137 0.117572 0.00516802)
(1.32077 0.155211 -0.0412271)
(0.983195 0.128686 -0.02375)
(1.3161 0.15975 -0.0259807)
(1.36364 0.0200642 0.0282057)
(1.40432 0.0357596 0.0887583)
(1.4444 0.298366 -0.0557531)
(1.29969 0.359746 0.0199309)
(1.67874 0.322513 0.127113)
(1.11703 0.138302 -0.0511133)
(1.30213 -0.149003 -0.0956329)
(1.58575 0.0166505 -0.0850461)
(1.15898 0.234443 0.0225107)
(1.65842 0.215141 0.0480411)
(1.33808 0.344236 -0.0316984)
(1.5186 0.207569 0.0575846)
(1.57723 -0.00539532 0.0566558)
(1.18974 0.0371552 -0.0120645)
(1.76241 0.233613 0.0511577)
(1.54792 0.322624 -0.0782148)
(1.80998 0.282532 -0.10028)
(1.78971 0.238834 0.0324389)
(1.45355 0.136488 -0.115119)
(1.39243 0.0460995 -0.137043)
(1.53939 0.0501806 -0.0650272)
(1.41838 0.091366 -0.0693913)
(1.63491 0.288493 0.0206676)
(1.13334 0.235571 0.0174783)
(1.25516 0.0491076 -0.0421582)
(1.42698 0.0463266 -0.0564049)
(1.64077 0.112682 0.00645362)
(1.39638 0.160478 -0.0440855)
(1.23441 0.217716 -0.0833507)
(1.01994 0.123106 -0.0377113)
(0.75546 -0.0610832 -0.0676562)
(1.48474 0.0794966 0.000139498)
(1.13786 -0.069354 0.0128883)
(1.1684 0.0460137 -0.0598857)
(1.7142 0.413577 -0.0451728)
(1.10615 0.119827 -0.0318631)
(1.05114 0.0479951 -0.0193455)
(1.3222 0.248255 -0.0119652)
(1.4335 0.196036 -0.00398465)
(1.24459 0.190319 0.0142082)
(1.02264 0.0422498 0.0233978)
(1.3221 -0.0535672 0.0269383)
(1.04767 0.215077 -0.11241)
(1.54403 0.241798 0.0251522)
(1.73929 0.285759 0.133543)
(1.22088 0.162685 0.000330661)
(1.25724 -0.0892546 -0.0796421)
(1.4648 0.142699 -0.0552249)
(1.00906 0.231191 -0.0068098)
(1.17543 0.189044 -0.110119)
(1.12403 0.296048 -0.013596)
(1.31311 0.0982156 0.07422)
(1.36255 0.0206167 0.0159015)
(1.30001 0.16367 0.000348742)
(1.42662 0.192515 0.0345378)
(1.37112 0.101841 -0.0983619)
(1.94916 0.15512 -0.127056)
(1.58023 0.195613 -0.0152401)
(1.26666 0.150941 -0.0357803)
(1.11801 0.0789344 -0.121444)
(1.41869 0.0796304 -0.138052)
(1.46863 0.0298353 0.0228744)
(1.44248 0.0561086 0.00307716)
(1.27521 0.130533 -0.0602494)
(1.39906 0.105438 -0.012596)
(1.2953 0.0295312 -0.0635704)
(1.09499 0.0808947 -0.0496287)
(0.996504 0.158364 -0.0191065)
(1.26443 0.251554 -0.0299902)
(0.895564 0.23785 -0.0233143)
(0.812724 0.0279043 -0.0418685)
(1.40547 0.0566034 -0.0576128)
(1.04983 0.0205731 -0.0495548)
(0.832981 -0.0101697 -0.0821802)
(1.75787 0.281342 -0.0306366)
(1.68672 0.230931 -0.0115112)
(1.12615 0.118708 -0.0578629)
(1.32093 0.125441 -0.0359978)
(1.42933 0.131221 0.01672)
(1.45348 0.298818 0.025986)
(1.54626 0.110736 0.0220463)
(1.40619 -0.0274438 -0.025416)
(1.15586 0.159134 -0.0681378)
(1.60287 0.123118 0.0351786)
(1.76982 0.32401 0.0783815)
(1.35412 0.251051 0.00107273)
(1.29449 -0.073883 -0.0273798)
(1.26185 0.131223 -0.0247929)
(1.14708 0.314249 -0.00967662)
(1.21058 0.278532 -0.103604)
(1.18931 0.302399 -0.0551552)
(1.33566 0.186743 0.0196376)
(1.18919 0.115158 0.0338026)
(1.29766 0.114145 0.0158572)
(1.60188 0.211044 -0.0080223)
(1.37785 0.123269 -0.0214314)
(1.54566 0.166222 -0.0644338)
(1.65155 0.320249 -0.0215965)
(1.44816 0.253824 0.023186)
(1.31643 0.108871 -0.0612097)
(1.16166 0.014667 -0.15215)
(1.53495 0.0452717 0.0340029)
(1.36174 0.183439 -0.0395781)
(1.04556 0.177626 -0.128979)
(1.28393 0.0789993 0.0333839)
(1.29411 0.044623 0.00908211)
(0.932847 0.197967 -0.060514)
(0.972652 0.242512 -0.0405595)
(0.958203 0.324253 -0.0157463)
(0.974169 0.317501 0.0338817)
(0.901901 -0.0422777 -0.0143604)
(1.17908 0.0551703 -0.0028179)
(1.20381 0.168407 -0.0519238)
(1.02651 0.0590004 -0.14761)
(1.5301 0.26808 -0.0581933)
(1.61446 0.261788 0.0163664)
(1.36184 0.145514 -0.0547391)
(1.43001 0.190208 -0.0631906)
(1.32181 0.193744 -0.00953696)
(1.61219 0.221782 0.0527056)
(1.55319 0.0674489 0.0370282)
(1.23297 0.0397069 -0.0363754)
(1.44811 0.039795 -0.0881273)
(1.53215 0.0963771 0.0431807)
(1.67733 0.319778 0.0525555)
(1.1988 0.254858 0.00491936)
(1.12921 -0.0366287 -0.0227083)
(1.34807 0.197464 -0.0146521)
(1.23343 0.272768 -0.0345771)
(1.17195 0.187947 -0.104298)
(1.44154 0.266397 -0.0395011)
(1.08273 0.190291 0.0292432)
(1.12429 0.127072 0.0359637)
(1.38994 0.0697767 -0.0224911)
(1.36558 0.16691 -0.0018478)
(1.2196 0.161375 0.0304654)
(1.43853 0.12234 -0.0545344)
(1.61296 0.281254 -0.00705153)
(1.57796 0.267264 0.0772569)
(1.30001 0.206341 -0.0209025)
(1.33588 0.0823761 -0.0681044)
(1.56356 0.00540973 0.0296881)
(1.46405 0.154573 -0.00371487)
(1.15287 0.216388 -0.148397)
(1.00171 0.0322271 0.00621735)
(1.62004 -0.0182447 0.027945)
(1.21396 0.128562 -0.0696854)
(1.40869 0.205761 -0.0288457)
(0.81997 0.309218 0.0289303)
(1.09848 0.346136 0.0718523)
(0.985156 0.108626 -0.0526391)
(0.968085 0.0435243 -0.0411949)
(1.14949 0.110437 -0.0692788)
(1.1377 0.031437 -0.130977)
(1.48522 0.195327 -0.062643)
(1.5626 0.251834 -0.0366713)
(1.33599 0.168269 -0.070546)
(1.39656 0.183308 -0.0953554)
(1.43754 0.0811894 -0.0569997)
(1.39256 0.139702 0.0368306)
(1.48885 0.161815 0.013499)
(1.1147 0.0161127 -0.112327)
(1.0998 0.0746567 -0.126361)
(1.21758 0.185591 0.0282089)
(1.41524 0.399606 0.0387006)
(1.34058 0.276751 0.0231703)
(0.982238 -0.0550875 -0.0615282)
(1.34723 0.16227 -0.0736886)
(1.52652 0.312743 -0.0544941)
(1.2118 0.207876 -0.0671905)
(1.3751 0.296032 -0.0667265)
(1.26599 0.33328 0.0560966)
(1.06341 0.0850999 0.0791236)
(1.67275 0.0314216 -0.00628625)
(1.25025 0.238871 -0.00394805)
(1.31069 0.0965512 0.00258087)
(1.44742 0.0609946 -0.028411)
(1.44281 0.287066 0.0160215)
(1.38147 0.309449 0.076424)
(1.2619 0.206081 0.0165942)
(1.696 0.0350045 -0.0349386)
(1.44518 0.0539451 0.0390578)
(1.26696 0.225239 -0.0165683)
(1.20093 0.237288 -0.127435)
(1.26438 -0.0119551 0.0338128)
(1.38597 -0.0223083 0.0163896)
(1.25945 0.137515 -0.0680492)
(1.37279 0.301381 -0.0534149)
(1.0031 0.431614 0.0768223)
(1.25694 0.331351 0.0811559)
(1.20095 0.1026 -0.00967337)
(1.16906 0.0328434 -0.0297688)
(1.34421 0.0892626 -0.145496)
(1.02083 0.032485 -0.109737)
(1.51229 0.14929 -0.0673363)
(1.39466 0.265522 -0.0309682)
(1.32735 0.200956 -0.0248698)
(1.41981 0.138597 -0.140825)
(1.11636 0.0809567 -0.0563323)
(1.11671 0.140213 0.0603643)
(1.08666 0.112421 -0.0315318)
(1.28587 0.0165384 -0.0929127)
(0.818334 0.105781 -0.112714)
(0.964117 0.106585 -0.0472245)
(1.67749 0.317491 0.0237389)
(1.62269 0.279037 0.0611769)
(1.13744 0.00871554 -0.0447334)
(1.23618 0.208515 -0.0863991)
(1.40552 0.324513 -0.0361119)
(1.13331 0.194323 -0.0864973)
(1.05679 0.27351 -0.0677784)
(1.4219 0.366504 0.0829123)
(1.14002 0.0613122 0.100856)
(1.68562 -0.0375432 -0.0181233)
(1.4091 0.27602 -0.0385446)
(1.55569 0.0984579 -0.00245037)
(1.2072 0.0868982 -0.0246585)
(1.39327 0.333799 -0.0630227)
(1.47172 0.332338 -0.00525295)
(1.66711 0.219312 0.0347524)
(1.48797 0.112989 -0.0619702)
(1.22136 0.0582395 0.0242166)
(1.59891 0.194766 -0.0396346)
(1.25132 0.301043 -0.104091)
(1.5158 -0.0898456 0.0418743)
(1.35835 -0.0540131 0.0266758)
(1.00682 0.265018 -0.088978)
(0.854969 0.385265 -0.154342)
(1.60834 0.446695 0.0315708)
(1.4627 0.380977 0.0280427)
(0.9451 0.139887 -0.0402489)
(1.35349 -0.0258018 0.00586781)
(1.34259 0.0840066 -0.110251)
(0.87641 0.0586258 -0.0877691)
(1.40549 0.108253 -0.0544639)
(1.36293 0.284206 0.0179046)
(1.15286 0.17705 0.0215592)
(1.38266 0.1545 -0.102215)
(1.0988 0.0891267 -0.0879524)
(0.840004 0.120869 -0.0187634)
(1.06908 0.139262 -0.0191788)
(1.30651 0.0530223 -0.0707236)
(1.08101 0.186226 0.00361338)
(0.94749 0.0274662 -0.0592988)
(1.66896 0.199338 -0.0466545)
(1.77952 0.275596 0.059545)
(1.35573 0.0312209 -0.0265787)
(1.38504 0.197499 -0.0915252)
(1.43082 0.344786 0.00264917)
(1.28817 0.244929 -0.0485405)
(1.12188 0.280319 -0.0469689)
(1.19228 0.350101 0.116366)
(1.23699 -0.0447903 0.0779049)
(1.60908 -0.0113202 -0.0142521)
(1.18421 0.255468 -0.0594854)
(1.27461 0.0373509 -0.0947337)
(1.26316 0.0591212 -0.100643)
(1.63675 0.254469 -0.116374)
(1.62127 0.242619 0.010197)
(1.20479 0.192692 0.0133595)
(1.46717 0.114382 -0.040136)
(1.34337 -0.00751707 -0.012711)
(1.30639 0.120404 -0.0845431)
(1.63531 0.27357 -0.069141)
(1.4683 -0.0623139 0.0125241)
(1.41129 -0.0599266 0.0789141)
(1.10089 0.256777 -0.0746471)
(0.967333 0.316594 -0.15674)
(1.49647 0.36105 0.0598558)
(0.935339 0.347084 0.0112505)
(1.03587 0.0199091 -0.00084086)
(1.64113 -0.134165 0.0169262)
(1.23997 0.106196 -0.0919046)
(0.72126 0.0514818 -0.127197)
(1.37884 0.0156102 -0.114136)
(1.19379 0.259096 0.0181084)
(1.32092 0.19989 0.0386914)
(1.14788 0.120963 -0.0527451)
(1.46704 0.137056 -0.0981396)
(0.740766 0.174157 -0.0173621)
(1.05369 0.0749386 -0.0101789)
(1.31429 0.0645544 -0.0225805)
(1.35186 0.222001 -0.0373511)
(1.32998 0.00770049 0.013621)
(1.40101 0.133315 -0.054636)
(1.81584 0.245311 0.00447172)
(1.27753 0.0788616 -0.0271675)
(1.26161 0.203259 -0.0784645)
(1.6332 0.338819 -0.0333272)
(1.06948 0.28762 -0.0798926)
(1.23928 0.25389 -0.0393897)
(1.02334 0.338123 0.0586225)
(1.31615 -0.0940698 0.0657582)
(1.4657 -0.0156548 -0.0474143)
(1.04885 0.322688 -0.062229)
(1.53226 0.0568673 -0.134867)
(0.834249 0.0607167 -0.155837)
(1.44394 0.250973 -0.0899759)
(1.49057 0.332634 -0.0273295)
(1.24879 0.279768 0.00623378)
(1.38766 0.12664 0.0169428)
(1.62979 0.00395831 0.0255162)
(1.24451 0.132906 0.011764)
(1.46588 0.310468 -0.104439)
(1.75268 -0.0552012 0.0480999)
(1.40729 -0.0937162 0.0887883)
(1.27508 0.230244 -0.0959644)
(1.47954 0.274335 -0.11194)
(0.890336 0.364009 -0.00958924)
(1.01754 0.316093 0.0427784)
(1.72328 -0.0245319 0.0182603)
(2.00213 -0.125922 0.0301348)
(1.2546 0.130719 -0.021537)
(0.868316 0.0498572 -0.119017)
(1.10085 -0.0204155 -0.113752)
(1.2091 0.257993 -0.00885969)
(1.06037 0.191257 0.0138752)
(1.2263 0.0717463 -0.0146827)
(1.3666 0.132452 -0.107493)
(1.01855 0.204735 -0.0352458)
(0.866742 0.0639173 -0.0134534)
(1.13707 0.0607458 -0.0295056)
(1.3545 0.249542 -0.0424924)
(1.17125 0.0184047 -0.0552832)
(1.18706 0.104041 -0.0100259)
(1.57741 0.237612 -0.00699058)
(1.41435 0.132905 -0.0267461)
(1.28826 0.184309 -0.0168065)
(1.09735 0.353712 -0.0390434)
(1.29266 0.299165 -0.0296133)
(1.11622 0.265751 -0.0709894)
(1.50428 0.327699 0.101171)
(1.18924 -0.119733 0.0247014)
(1.66109 -0.021336 -0.0637203)
(1.49632 0.273215 -0.0200642)
(1.22329 0.0549824 -0.165838)
(0.976563 0.0654431 -0.188603)
(1.4226 0.174784 -0.11336)
(1.2977 0.306138 -0.0978523)
(1.6369 0.251308 0.0238729)
(1.02921 0.120519 -0.0434896)
(1.51747 -0.0328767 -0.0221807)
(1.36411 0.126847 0.0869102)
(0.916231 0.294923 -0.0912344)
(1.74581 -0.072614 0.0571922)
(1.40761 -0.0734868 0.141317)
(1.09775 0.223627 -0.0736604)
(1.59002 0.358274 -0.158059)
(1.06592 0.536637 -0.0313583)
(1.45443 0.257484 0.0149877)
(1.51776 -0.132207 -0.166252)
(1.77167 -0.109291 -0.0935507)
(1.18083 0.197625 -0.0519951)
(1.39425 0.0837757 -0.0621804)
(1.20526 -0.0544707 -0.0842223)
(1.29044 0.244445 -0.0561981)
(1.39097 0.208972 -0.0139289)
(1.41575 0.0213786 -0.0416535)
(1.11069 0.129318 -0.110857)
(1.38975 0.257932 -0.0605135)
(0.889221 0.0529012 -0.039415)
(1.28475 0.00108033 -0.0574334)
(1.23604 0.259159 -0.0735504)
(0.748873 -0.0345696 -0.112516)
(0.970431 0.0071519 -0.0735053)
(1.4769 0.164629 -0.040374)
(1.61609 0.111109 -0.0395827)
(0.888054 0.213188 -0.0489793)
(1.1842 0.406971 0.0186334)
(1.11847 0.281895 -0.0716738)
(1.53629 0.217973 -0.0508401)
(1.51935 0.287374 0.0766513)
(1.10477 -0.171759 0.0236424)
(1.11887 0.0253569 -0.0924641)
(1.21053 0.377188 -0.00657238)
(1.44335 0.087006 -0.0471997)
(1.19129 -0.0202776 -0.18936)
(1.76588 0.167127 -0.126513)
(1.41179 0.291833 -0.102288)
(1.03571 0.22602 0.0098375)
(1.00318 0.0726891 -0.0122193)
(1.54806 -0.126497 -0.021563)
(1.41964 0.129793 0.0165646)
(0.985219 0.299549 -0.0421902)
(1.72822 -0.060463 -0.0692553)
(1.26526 -0.0296189 0.0923514)
(0.869431 0.202303 -0.108076)
(1.01521 0.32503 -0.209806)
(1.36053 0.432719 0.0141391)
(1.53519 0.154751 0.0103897)
(1.65504 -0.157931 -0.0729725)
(1.43614 -0.11631 -0.154086)
(1.15067 0.179923 -0.126851)
(1.65264 0.0432308 0.00224828)
(1.42759 -0.0860524 -0.0478508)
(1.40847 0.168555 -0.0227683)
(1.87275 0.16575 -0.00580361)
(1.335 0.0387202 -0.0868968)
(1.06885 0.0709981 -0.0232064)
(1.5648 0.217997 -0.0348847)
(1.35697 0.0666375 -0.0165394)
(1.14054 0.0249843 -0.0337706)
(0.893532 0.265774 -0.0985763)
(1.56903 0.0223241 0.0810231)
(0.984225 -0.0290358 0.000142691)
(1.39539 0.0929416 -0.0928917)
(1.83469 0.164231 -0.0251398)
(0.608927 0.164831 -0.0315569)
(1.32836 0.272657 0.0211555)
(1.38152 0.215289 -0.142204)
(1.52016 0.172307 -0.0803183)
(1.27083 0.254058 0.00208364)
(1.68387 -0.14058 0.157325)
(1.36894 -0.0152247 -0.00259915)
(1.16333 0.292203 -0.0149959)
(1.68084 0.0648985 -0.0423078)
(1.08129 0.017352 -0.215199)
(1.42693 0.14972 -0.103412)
(1.83892 0.288514 -0.142374)
(1.77493 0.263246 -0.0251994)
(1.82282 0.0891842 0.0161613)
(1.20375 -0.124742 -0.0294677)
(1.19759 0.20965 -0.083199)
(0.869939 0.283846 -0.00390668)
(1.38671 -0.137862 -0.160859)
(1.14268 -0.0142749 0.0283354)
(1.21557 0.173304 -0.0827418)
(1.06714 0.202341 -0.128264)
(1.18104 0.350201 -0.0218289)
(1.89001 0.132002 0.0362664)
(2.31599 -0.132398 0.0328982)
(1.61409 -0.0878175 -0.13148)
(1.44958 0.0972083 -0.119646)
(1.8357 0.0276895 -0.0712765)
(1.17479 -0.0821265 -0.0730834)
(1.52646 0.0918036 0.0284153)
(1.66906 0.143844 0.0214443)
(1.37742 0.0697628 -0.0631128)
(1.42676 0.0379439 0.0924464)
(1.38263 0.198102 0.00550449)
(1.35446 0.0789816 -0.0241309)
(1.13368 0.044043 -0.0204867)
(0.783876 0.258963 -0.0413218)
(1.21966 -0.0137782 0.0703776)
(0.883547 -0.0464709 0.0303465)
(1.46071 0.0652939 -0.0334277)
(1.43065 0.202055 -0.0537323)
(1.63684 0.165133 0.0149992)
(1.3527 0.236513 -0.0611889)
(1.49379 0.174323 -0.0494638)
(1.90593 0.130571 -0.0345933)
(1.55392 0.259504 -0.0288053)
(2.1921 -0.171798 0.128418)
(1.9564 0.0671753 0.029163)
(1.52176 0.284298 0.0415166)
(1.48963 0.0368912 -0.0512631)
(1.24059 0.0247951 -0.191676)
(1.32409 0.0910646 -0.0971584)
(1.75403 0.224857 -0.119868)
(1.57871 0.184196 -0.0145139)
(1.97727 0.110038 -0.00738554)
(1.15056 -0.122818 -0.0488136)
(1.5341 0.186762 -0.034718)
(0.886179 0.256979 0.0801808)
(1.16052 -0.139347 -0.154345)
(1.36583 -0.00251592 -0.0270957)
(1.3712 0.155165 -0.06054)
(1.17661 0.218004 -0.0825631)
(1.05927 0.354202 -0.126082)
(2.37679 0.0308534 0.026198)
(2.10449 -0.140784 -0.0738432)
(1.61832 -0.0496433 -0.155247)
(1.30869 0.0170062 -0.114903)
(1.66315 0.0496221 -0.178955)
(1.57522 -0.0931903 -0.0314392)
(1.82485 0.00802786 0.0352045)
(1.63374 0.133002 -0.00845224)
(1.47774 0.0131587 -0.0284708)
(1.6709 -0.00862605 0.0728113)
(1.30495 0.190615 0.0486205)
(1.03736 0.0488843 -0.114816)
(1.0419 0.0377233 -0.0266968)
(1.22885 0.221826 -0.025723)
(0.932769 -0.0508821 0.0124961)
(1.00612 -0.105962 0.0383832)
(1.28424 0.0156547 -0.0555231)
(1.7172 0.134185 -0.0842957)
(1.52912 0.114329 0.0284833)
(1.58493 0.229517 -0.0181627)
(1.60885 0.101319 -0.00231694)
(2.35453 0.0830988 -0.02527)
(1.64153 0.222494 -0.0496191)
(1.96681 -0.174608 0.060807)
(1.70708 0.019974 0.00149196)
(1.87884 0.243447 0.108528)
(2.00733 0.0582561 0.0320113)
(1.07659 0.0207814 -0.153479)
(1.95649 0.0808849 -0.0580844)
(1.31666 0.160936 -0.0584404)
(1.17783 0.0753921 -0.0465399)
(2.04229 0.0715538 -0.00313032)
(0.972004 -0.106631 -0.0244615)
(1.22531 0.212026 -0.0503206)