/*--------------------------------*- C++ -*----------------------------------*\
  =========                 |
  \\      /  F ield         | OpenFOAM: The Open Source CFD Toolbox
   \\    /   O peration     | Website:  https://openfoam.org
    \\  /    A nd           | Version:  10
     \\/     M anipulation  |
\*---------------------------------------------------------------------------*/
FoamFile
{
    format      ascii;
    class       volScalarField;
    location    "18";
    object      nut;
}
// * * * * * * * * * * * * * * * * * * * * * * * * * * * * * * * * * * * * * //

dimensions      [0 2 -1 0 0 0 0];

internalField   nonuniform List<scalar> 
25600
(
1.74842e-05
1.51774e-05
1.38357e-05
1.41864e-05
1.57584e-05
1.71978e-05
1.62159e-05
1.57757e-05
2.07007e-05
2.2638e-05
2.20177e-05
2.25153e-05
2.47685e-05
2.54968e-05
2.99511e-05
2.94081e-05
2.30914e-05
1.67108e-05
1.50514e-05
1.57313e-05
1.47581e-05
1.43621e-05
1.47428e-05
1.43873e-05
1.35601e-05
1.45089e-05
1.66414e-05
1.68972e-05
1.623e-05
1.5283e-05
1.50483e-05
1.56897e-05
1.61423e-05
1.57801e-05
1.7814e-05
1.80534e-05
1.97765e-05
2.31544e-05
2.23302e-05
1.93435e-05
1.94045e-05
1.67466e-05
1.49569e-05
1.46182e-05
1.31068e-05
1.39295e-05
1.62827e-05
1.68711e-05
1.87165e-05
2.1368e-05
2.26332e-05
2.27608e-05
2.42517e-05
2.30366e-05
2.61569e-05
3.03686e-05
2.84774e-05
1.93821e-05
1.38333e-05
1.48912e-05
1.46562e-05
1.33842e-05
1.56404e-05
1.64757e-05
1.42945e-05
1.52343e-05
1.85601e-05
1.88319e-05
1.65358e-05
1.49568e-05
1.50486e-05
1.55281e-05
1.6315e-05
1.7151e-05
1.79098e-05
1.54963e-05
1.55659e-05
1.9946e-05
2.20373e-05
2.0958e-05
2.05905e-05
1.86176e-05
1.60346e-05
1.48899e-05
1.05837e-05
1.01996e-05
1.52944e-05
1.72891e-05
1.46237e-05
1.6181e-05
1.99532e-05
2.1243e-05
2.31744e-05
1.95108e-05
1.60679e-05
2.22104e-05
2.86456e-05
2.27025e-05
1.33045e-05
1.40382e-05
1.51144e-05
1.2519e-05
1.42891e-05
1.73091e-05
1.56425e-05
1.51529e-05
1.86224e-05
2.01551e-05
1.85586e-05
1.52879e-05
1.41039e-05
1.38583e-05
1.52637e-05
1.75942e-05
1.71847e-05
1.36565e-05
1.11284e-05
1.29896e-05
1.77102e-05
2.01417e-05
1.85177e-05
1.9498e-05
1.73561e-05
1.64475e-05
1.04945e-05
6.94996e-06
1.16816e-05
1.70536e-05
1.25978e-05
9.76783e-06
1.31163e-05
1.60531e-05
1.99604e-05
1.76391e-05
7.16836e-06
7.70284e-06
1.79428e-05
2.25872e-05
1.35364e-05
1.2363e-05
1.54218e-05
1.2632e-05
1.08975e-05
1.4489e-05
1.67609e-05
1.57156e-05
1.75139e-05
1.94456e-05
2.11487e-05
1.74804e-05
1.4045e-05
1.2055e-05
1.17182e-05
1.506e-05
1.58055e-05
1.26427e-05
1.00228e-05
8.07947e-06
1.18334e-05
1.51602e-05
1.23037e-05
1.72815e-05
1.78706e-05
1.87568e-05
1.35261e-05
5.94503e-06
7.13991e-06
1.33462e-05
1.24148e-05
6.47647e-06
6.31443e-06
7.96098e-06
1.2732e-05
1.61115e-05
8.37194e-06
2.98015e-06
7.24568e-06
1.69132e-05
1.38229e-05
9.58923e-06
1.35436e-05
1.29149e-05
8.58507e-06
8.15507e-06
1.38727e-05
1.64232e-05
1.70511e-05
1.67277e-05
2.09271e-05
2.07559e-05
1.64498e-05
1.34745e-05
8.22535e-06
9.7548e-06
1.33774e-05
1.10019e-05
1.04974e-05
8.68602e-06
7.76096e-06
9.45177e-06
6.34012e-06
1.139e-05
1.53943e-05
2.06549e-05
1.80601e-05
5.92971e-06
7.69562e-06
7.58576e-06
1.10947e-05
6.31149e-06
4.52376e-06
3.32567e-06
4.89724e-06
1.18294e-05
1.26078e-05
6.53017e-06
4.03761e-06
1.11118e-05
1.42079e-05
8.65561e-06
9.33663e-06
1.1198e-05
8.81592e-06
5.08558e-06
8.02019e-06
1.36283e-05
1.76509e-05
1.40405e-05
1.65528e-05
2.06688e-05
1.86791e-05
1.8049e-05
9.38843e-06
6.82767e-06
1.07023e-05
9.84973e-06
9.11506e-06
8.80969e-06
6.73133e-06
5.4421e-06
4.73482e-06
6.93134e-06
8.65659e-06
1.96141e-05
2.03355e-05
7.37928e-06
7.59764e-06
8.28036e-06
8.21356e-06
7.25895e-06
5.61444e-06
3.3865e-06
6.72092e-06
5.55647e-06
1.32555e-05
9.43004e-06
3.73176e-06
6.42305e-06
1.37062e-05
1.29639e-05
7.28427e-06
6.82743e-06
8.4435e-06
8.02506e-06
6.22449e-06
8.25988e-06
1.74627e-05
1.41683e-05
1.10533e-05
1.66348e-05
1.70905e-05
2.0373e-05
1.39877e-05
7.57812e-06
8.13538e-06
8.42001e-06
6.38284e-06
6.39256e-06
6.47672e-06
5.659e-06
6.4451e-06
4.58942e-06
7.29004e-06
1.33638e-05
2.33531e-05
1.37404e-05
4.28528e-06
6.94649e-06
9.10707e-06
1.35356e-05
7.9382e-06
5.69686e-06
7.1806e-06
6.22134e-06
9.91442e-06
8.60729e-06
4.6691e-06
2.98295e-06
1.00132e-05
1.86229e-05
1.01137e-05
4.78775e-06
4.04594e-06
7.46818e-06
6.85919e-06
3.75043e-06
1.40958e-05
1.74888e-05
8.14941e-06
1.21537e-05
1.31581e-05
1.87711e-05
1.72841e-05
9.20586e-06
9.70786e-06
7.53311e-06
3.662e-06
5.3394e-06
8.49975e-06
7.70636e-06
9.22199e-06
6.20096e-06
6.218e-06
6.32024e-06
1.69297e-05
1.40026e-05
1.1663e-05
8.74307e-06
8.6213e-06
1.8648e-05
1.02444e-05
7.85605e-06
4.26944e-06
9.45784e-06
5.80505e-06
5.87683e-06
5.70819e-06
2.86871e-06
3.50368e-06
1.81918e-05
1.63584e-05
5.77615e-06
1.69984e-06
3.87465e-06
5.49293e-06
3.78542e-06
5.95294e-06
1.67243e-05
8.74138e-06
6.17701e-06
8.17675e-06
1.4635e-05
1.71368e-05
1.03892e-05
1.37228e-05
9.22252e-06
2.56057e-06
5.37933e-06
1.2204e-05
1.2162e-05
1.03871e-05
8.9051e-06
4.12988e-06
5.19661e-06
7.32388e-06
6.15894e-06
9.69384e-06
1.02183e-05
5.25667e-06
1.57266e-05
1.33516e-05
5.99995e-06
7.41094e-06
6.22642e-06
7.5611e-06
2.81907e-06
4.43591e-06
3.56845e-06
3.30228e-06
7.9026e-06
1.99393e-05
7.39645e-06
4.75505e-06
5.76415e-06
7.55686e-06
6.36582e-06
1.17256e-05
8.17021e-06
8.75413e-06
2.81172e-06
4.52986e-06
9.03337e-06
1.44975e-05
9.93808e-06
1.36096e-05
9.59546e-06
3.06512e-06
5.99703e-06
1.09924e-05
1.12395e-05
8.92459e-06
7.19966e-06
6.68358e-06
3.17418e-06
7.4449e-06
1.04763e-05
9.49406e-06
1.06781e-05
4.32874e-06
5.98879e-06
1.71202e-05
6.14122e-06
6.77926e-06
5.83377e-06
5.24288e-06
3.86905e-06
3.91299e-06
6.18977e-06
2.23002e-06
5.01528e-06
1.25973e-05
1.25759e-05
1.05441e-05
1.2883e-05
1.01557e-05
1.2705e-05
3.96719e-06
6.33767e-06
5.81499e-06
3.56784e-06
8.76076e-06
8.199e-06
1.18993e-05
1.1644e-05
1.21648e-05
9.37545e-06
5.77719e-06
7.84474e-06
9.11328e-06
1.00124e-05
8.40084e-06
1.08176e-05
8.28574e-06
3.60374e-06
7.38421e-06
9.44552e-06
1.00136e-05
7.87938e-06
3.19393e-06
3.34928e-06
1.08848e-05
1.02196e-05
5.56968e-06
6.40777e-06
3.7414e-06
5.30082e-06
3.0599e-06
4.13198e-06
8.44956e-06
5.72771e-06
4.93083e-06
1.33832e-05
1.23263e-05
1.20214e-05
8.28201e-06
1.03835e-05
7.82342e-06
5.58296e-06
3.61927e-06
6.62446e-06
3.0508e-06
1.3796e-05
5.94904e-06
1.20804e-05
1.04514e-05
1.07334e-05
1.04116e-05
9.10777e-06
6.15874e-06
9.75008e-06
5.12124e-06
6.77468e-06
8.72785e-06
3.87127e-06
3.99196e-06
6.32769e-06
6.68495e-06
4.19987e-06
3.84771e-06
4.07241e-06
2.15449e-06
1.04685e-05
7.03851e-06
5.27545e-06
4.11688e-06
3.98671e-06
3.85398e-06
2.86708e-06
6.86443e-06
3.03389e-06
6.07261e-06
8.98595e-06
9.5776e-06
5.56318e-06
3.72726e-06
4.99356e-06
8.19132e-06
5.80391e-06
2.29418e-06
5.63581e-06
9.99339e-06
6.33976e-06
9.42844e-06
4.6501e-06
4.65397e-06
8.94735e-06
1.25858e-05
9.06797e-06
4.883e-06
4.93005e-06
7.45168e-06
6.40905e-06
4.21086e-06
3.6556e-06
6.36414e-06
7.82281e-06
3.64278e-06
2.86199e-06
3.43708e-06
3.40579e-06
3.13773e-06
6.95571e-06
9.09732e-06
7.31543e-06
3.29984e-06
2.02988e-06
3.6376e-06
3.2541e-06
3.04046e-06
2.84894e-06
3.34669e-06
4.56817e-06
5.6963e-06
2.03221e-06
1.98233e-06
2.96454e-06
5.71155e-06
3.74719e-06
2.27184e-06
3.3125e-06
9.11484e-06
7.02302e-06
5.47955e-06
4.64823e-06
4.17125e-06
5.10792e-06
9.00477e-06
6.70061e-06
5.28822e-06
3.83208e-06
5.27849e-06
5.8313e-06
3.24938e-06
3.66017e-06
7.63387e-06
6.59915e-06
2.06083e-06
3.91699e-06
3.25264e-06
2.40783e-06
4.26999e-06
3.89255e-06
7.68527e-06
8.33515e-06
4.19244e-06
3.10937e-06
4.47859e-06
3.6073e-06
1.86319e-06
4.04416e-06
3.1124e-06
2.89364e-06
3.06895e-06
1.58023e-06
2.45014e-06
2.93354e-06
4.00484e-06
2.75195e-06
2.19489e-06
2.18585e-06
5.94444e-06
8.26561e-06
2.82087e-06
3.91399e-06
5.95854e-06
2.57672e-06
4.74457e-06
3.42388e-06
5.04564e-06
6.01118e-06
8.45791e-06
6.52725e-06
3.53456e-06
2.81881e-06
5.48173e-06
4.88612e-06
1.45831e-06
4.46547e-06
4.83919e-06
2.13127e-06
3.20708e-06
2.62779e-06
4.34121e-06
6.3965e-06
5.2528e-06
4.16105e-06
4.03204e-06
3.03435e-06
1.84542e-06
3.8433e-06
4.16191e-06
2.06873e-06
9.20486e-07
1.47813e-06
1.09304e-06
2.54888e-06
3.70849e-06
2.27093e-06
1.86989e-06
2.00673e-06
3.06342e-06
5.45831e-06
3.82588e-06
1.79642e-06
3.59514e-06
2.66701e-06
1.96253e-06
3.00216e-06
3.89337e-06
7.88854e-06
5.80346e-06
4.31794e-06
2.61527e-06
1.56178e-06
3.33079e-06
3.57221e-06
7.78798e-07
2.61401e-06
4.59967e-06
2.85015e-06
2.6276e-06
2.25792e-06
1.82739e-06
3.62418e-06
4.28927e-06
4.18131e-06
3.11129e-06
2.08269e-06
1.72964e-06
2.40993e-06
3.6919e-06
1.35011e-06
2.86218e-07
9.12316e-07
4.0032e-07
1.11733e-06
3.54732e-06
2.32757e-06
1.69705e-06
1.12493e-06
2.27137e-06
2.97714e-06
2.17541e-06
1.88847e-06
3.04843e-06
2.56541e-06
1.38039e-06
2.28067e-06
2.95384e-06
5.33706e-06
3.32421e-06
1.81857e-06
1.33966e-06
1.07412e-06
2.08572e-06
3.11718e-06
6.2696e-07
7.80911e-07
2.11405e-06
1.90879e-06
2.43114e-06
1.77488e-06
7.48023e-07
2.36637e-06
2.89323e-06
3.20168e-06
2.19054e-06
1.37435e-06
1.29416e-06
1.33919e-06
2.76371e-06
1.18309e-06
5.12236e-07
7.65212e-07
1.94723e-07
7.61822e-07
2.28796e-06
1.93088e-06
1.12985e-06
6.91834e-07
1.59058e-06
2.0004e-06
1.38662e-06
1.32628e-06
2.70754e-06
1.85261e-06
1.6567e-06
1.00711e-06
1.71144e-06
3.23413e-06
1.7942e-06
7.94693e-07
1.1881e-06
1.12003e-06
1.39713e-06
2.66968e-06
6.80499e-07
6.96974e-07
1.31249e-06
8.41934e-07
1.6168e-06
1.1885e-06
4.73787e-07
1.77209e-06
2.06487e-06
2.1223e-06
1.28387e-06
8.09109e-07
6.77348e-07
5.85622e-07
1.75622e-06
7.84703e-07
5.46504e-07
9.2999e-07
1.2943e-07
3.15386e-07
1.42284e-06
1.51039e-06
8.53827e-07
4.08692e-07
1.21956e-06
1.55709e-06
8.90712e-07
9.27121e-07
1.96796e-06
1.11753e-06
1.23603e-06
7.24617e-07
1.06668e-06
2.11037e-06
1.1574e-06
4.54047e-07
1.51956e-06
1.27481e-06
9.65796e-07
2.33638e-06
5.87807e-07
4.09599e-07
1.14568e-06
3.24428e-07
8.5791e-07
8.15276e-07
3.40551e-07
1.20503e-06
1.36195e-06
1.23603e-06
6.69569e-07
5.23782e-07
4.17234e-07
2.35484e-07
1.14126e-06
5.9947e-07
4.36509e-07
8.87897e-07
1.09026e-07
9.67524e-08
1.13793e-06
1.4696e-06
5.99189e-07
2.78851e-07
8.59746e-07
1.28108e-06
5.58974e-07
5.18967e-07
1.53789e-06
4.39538e-07
5.76221e-07
4.14145e-07
5.00843e-07
1.46847e-06
9.9219e-07
1.55291e-07
1.32919e-06
1.1799e-06
5.69433e-07
1.99533e-06
4.83943e-07
2.27241e-07
9.7683e-07
2.21525e-07
3.27799e-07
4.62384e-07
1.14264e-07
8.45722e-07
8.8835e-07
8.01044e-07
4.55401e-07
4.06859e-07
3.91251e-07
1.07984e-07
8.55937e-07
5.21771e-07
3.08855e-07
7.04976e-07
9.78797e-08
7.4427e-08
9.14408e-07
1.35637e-06
4.07537e-07
1.77265e-07
5.81235e-07
9.60489e-07
3.68329e-07
2.87279e-07
1.2808e-06
2.34813e-07
1.69097e-07
5.0575e-07
4.17014e-07
1.22436e-06
7.98631e-07
6.5827e-08
9.55216e-07
1.1615e-06
3.63654e-07
1.5216e-06
4.53469e-07
2.2989e-07
7.82612e-07
2.06172e-07
1.77529e-07
3.03401e-07
8.83554e-08
6.97182e-07
6.17354e-07
6.17747e-07
3.14758e-07
2.795e-07
4.69135e-07
4.43669e-08
7.08501e-07
4.35203e-07
1.94539e-07
6.11171e-07
8.93296e-08
7.58051e-08
5.89165e-07
1.24235e-06
3.14315e-07
6.88907e-08
4.15676e-07
8.07755e-07
2.09201e-07
1.85903e-07
1.10291e-06
1.98723e-07
8.96966e-08
7.96169e-07
3.9222e-07
7.75815e-07
7.53053e-07
5.0044e-08
5.8364e-07
1.16646e-06
2.5134e-07
1.00465e-06
5.14651e-07
1.99279e-07
6.22086e-07
1.30853e-07
1.33135e-07
2.7042e-07
8.72401e-08
5.58222e-07
4.71361e-07
4.55073e-07
2.3622e-07
2.18035e-07
4.79243e-07
1.34744e-08
5.83944e-07
3.72216e-07
1.32143e-07
5.35538e-07
4.30515e-08
6.55653e-08
3.55143e-07
1.00441e-06
3.83877e-07
2.58078e-08
2.42406e-07
8.10351e-07
1.12678e-07
1.37462e-07
1.00235e-06
1.9736e-07
7.39189e-08
6.80363e-07
3.10815e-07
5.40821e-07
5.40731e-07
3.04341e-08
2.78774e-07
1.06575e-06
2.19673e-07
5.64927e-07
5.56634e-07
1.49191e-07
5.75886e-07
8.8991e-08
7.97412e-08
2.86319e-07
6.63031e-08
3.77602e-07
3.73917e-07
3.51346e-07
1.48326e-07
1.6843e-07
4.87296e-07
3.47902e-09
5.44521e-07
2.96173e-07
7.08193e-08
5.27074e-07
1.76535e-08
7.16307e-08
2.25368e-07
5.97672e-07
6.69717e-07
1.43314e-08
4.79068e-08
9.23756e-07
7.63307e-08
8.72264e-08
8.80858e-07
1.63163e-07
4.27342e-08
5.01743e-07
2.91486e-07
4.0391e-07
4.03766e-07
1.71868e-08
1.34199e-07
8.1851e-07
2.07835e-07
2.90198e-07
5.27614e-07
9.68402e-08
5.45956e-07
6.92803e-08
4.44572e-08
3.11304e-07
4.79034e-08
1.97937e-07
3.02456e-07
3.42415e-07
6.99135e-08
1.71841e-07
4.76475e-07
2.58075e-09
5.04482e-07
2.54065e-07
4.52735e-08
6.6647e-07
9.22964e-09
1.2683e-07
1.78962e-07
1.74932e-07
9.33802e-07
8.73951e-09
8.14148e-09
9.54866e-07
7.37075e-08
5.43827e-08
7.90116e-07
1.34886e-07
3.5487e-08
3.28054e-07
1.97756e-07
3.3564e-07
3.22868e-07
7.9276e-09
6.71468e-08
5.41653e-07
1.86424e-07
2.32641e-07
4.31065e-07
5.74548e-08
6.1707e-07
5.65176e-08
2.61566e-08
2.632e-07
4.7286e-08
1.06892e-07
1.49594e-07
4.02037e-07
3.32687e-08
1.25131e-07
4.41166e-07
4.70313e-09
4.50911e-07
2.75683e-07
3.08685e-08
7.46674e-07
1.04041e-08
1.26791e-07
2.30807e-07
4.55014e-08
9.67993e-07
6.05338e-09
5.97615e-09
8.09956e-07
1.21915e-07
3.5205e-08
6.79174e-07
1.00512e-07
3.98713e-08
2.73073e-07
1.0348e-07
3.33782e-07
3.83482e-07
6.42621e-09
3.1612e-08
4.20608e-07
1.07047e-07
3.14418e-07
4.13282e-07
3.13891e-08
7.47779e-07
2.82228e-08
1.56378e-08
2.09166e-07
1.66862e-08
1.31682e-07
3.6695e-08
3.8958e-07
3.46408e-08
6.61297e-08
3.90018e-07
6.5394e-09
3.47552e-07
2.68385e-07
2.25917e-08
6.7951e-07
1.52651e-08
9.04796e-08
3.63984e-07
1.82667e-08
7.89075e-07
5.72077e-08
5.07809e-09
5.28257e-07
1.66038e-07
2.64569e-08
5.01323e-07
9.66341e-08
3.53576e-08
3.35047e-07
5.4173e-08
2.60662e-07
5.00838e-07
1.14936e-08
8.96402e-09
4.11565e-07
5.11718e-08
3.58576e-07
4.79707e-07
1.64245e-08
8.16162e-07
6.33401e-09
1.03574e-08
2.78511e-07
3.96656e-09
3.60886e-07
1.69363e-08
1.73491e-07
9.58416e-08
6.59711e-08
2.35512e-07
9.6355e-09
2.93738e-07
1.44336e-07
1.62116e-08
5.13618e-07
1.93589e-08
1.09393e-07
3.81585e-07
9.55369e-09
6.57602e-07
1.12426e-07
6.63487e-09
3.36633e-07
1.2701e-07
4.75577e-08
2.36542e-07
1.16622e-07
4.06136e-08
2.81444e-07
4.33003e-08
1.28134e-07
4.19787e-07
4.48864e-08
6.45349e-09
3.39539e-07
4.4301e-08
2.6983e-07
4.7559e-07
9.57276e-09
6.96204e-07
1.62371e-08
1.50442e-08
4.66705e-07
4.40274e-09
4.38964e-07
8.31011e-08
2.53347e-08
1.47546e-07
1.92755e-07
6.77082e-08
1.32796e-08
3.17092e-07
4.00742e-08
2.16389e-08
3.82956e-07
1.5293e-08
2.07887e-07
2.90052e-07
4.70058e-09
5.78378e-07
1.50025e-07
8.81976e-09
2.41308e-07
7.00001e-08
1.19942e-07
3.54778e-08
1.18952e-07
1.87322e-07
8.06967e-08
5.65384e-08
6.34266e-08
2.19603e-07
6.22209e-08
2.93896e-08
6.69025e-08
7.09763e-08
2.86124e-07
1.27309e-07
1.34553e-08
4.54501e-07
2.47332e-08
6.00288e-08
5.3771e-07
3.26699e-09
1.82139e-07
4.5867e-07
1.65405e-08
6.53857e-08
3.70142e-07
3.17571e-08
1.24229e-08
3.19239e-07
2.67403e-08
5.4412e-08
2.59402e-07
9.85713e-09
3.40503e-07
1.43922e-07
2.4112e-09
4.31848e-07
2.06999e-07
8.08832e-09
8.71576e-08
1.69753e-07
9.8964e-08
6.56662e-09
1.16565e-07
3.80333e-07
8.86146e-09
5.67993e-08
9.5622e-08
1.73901e-07
2.21177e-08
4.49235e-07
1.54096e-08
5.99237e-08
5.54013e-07
1.32982e-08
5.72001e-07
2.54114e-07
1.5246e-08
2.95719e-07
2.83223e-07
3.60267e-09
3.02556e-08
5.94117e-07
1.27392e-08
9.29236e-09
4.1523e-07
7.93375e-08
1.14414e-08
1.70453e-07
6.04353e-08
6.83409e-08
1.22096e-07
8.4737e-09
3.51214e-07
8.86661e-08
1.2299e-08
2.64163e-07
2.05811e-07
1.067e-08
2.86766e-08
3.94538e-07
2.75503e-08
1.00586e-08
1.93034e-07
3.51766e-07
1.85493e-08
3.89594e-08
1.99932e-07
2.71444e-07
7.654e-09
8.46807e-07
1.68526e-08
1.84313e-08
8.90102e-07
6.23895e-09
8.67657e-07
9.59553e-08
5.96531e-09
4.97471e-07
3.92233e-08
1.27515e-07
3.546e-08
3.46365e-07
3.43105e-08
8.20556e-09
2.97875e-07
1.4585e-07
1.44326e-08
5.01875e-08
1.18559e-07
9.80125e-08
3.20886e-08
1.89342e-08
1.2279e-07
1.43238e-07
7.11689e-08
3.85215e-08
2.50756e-07
1.76637e-08
2.7187e-08
4.5798e-07
2.70249e-08
1.68055e-08
2.95065e-07
6.80401e-08
1.68721e-07
3.71268e-08
1.52609e-07
1.74647e-05
1.4271e-05
1.46781e-05
1.40578e-05
1.53325e-05
1.85357e-05
2.18993e-05
2.19329e-05
2.35502e-05
3.05606e-05
3.51129e-05
3.29296e-05
2.36834e-05
1.82126e-05
1.93576e-05
1.98708e-05
1.84276e-05
1.90775e-05
1.96711e-05
1.89292e-05
1.73215e-05
1.57255e-05
1.71612e-05
1.75915e-05
1.8848e-05
1.89623e-05
1.89846e-05
2.18986e-05
2.56342e-05
2.8031e-05
2.79732e-05
2.6388e-05
2.61905e-05
2.45748e-05
1.93746e-05
1.63901e-05
1.71893e-05
1.95323e-05
2.08915e-05
2.09764e-05
2.10565e-05
1.5556e-05
1.47617e-05
1.3901e-05
1.35628e-05
1.5645e-05
2.09488e-05
2.36423e-05
2.04744e-05
2.43497e-05
3.25929e-05
3.73699e-05
2.98426e-05
1.8815e-05
1.84215e-05
2.20665e-05
2.145e-05
1.96006e-05
1.89853e-05
1.79255e-05
1.57665e-05
1.53105e-05
1.90145e-05
1.76793e-05
1.6879e-05
1.91814e-05
1.94307e-05
1.97487e-05
2.25546e-05
2.75311e-05
2.9687e-05
2.73137e-05
2.68995e-05
2.99275e-05
2.45474e-05
1.64417e-05
1.49379e-05
1.79225e-05
2.20825e-05
2.39462e-05
2.43309e-05
1.84108e-05
1.51116e-05
1.40486e-05
1.09405e-05
1.16358e-05
1.74141e-05
2.32157e-05
1.81909e-05
1.55758e-05
2.0106e-05
3.27505e-05
3.48761e-05
2.12288e-05
1.61067e-05
2.31104e-05
2.5394e-05
2.05992e-05
1.75965e-05
1.65055e-05
1.46864e-05
1.33797e-05
1.82352e-05
1.69163e-05
1.41284e-05
1.73359e-05
1.79767e-05
1.66634e-05
1.68623e-05
2.28711e-05
2.82256e-05
2.69236e-05
2.41743e-05
3.06632e-05
3.10867e-05
2.00015e-05
1.45663e-05
1.57623e-05
2.10257e-05
2.26776e-05
2.18934e-05
2.10927e-05
1.6049e-05
1.57186e-05
9.55936e-06
7.5122e-06
1.05569e-05
1.79946e-05
1.67926e-05
1.29469e-05
7.17898e-06
1.49977e-05
3.03055e-05
2.44419e-05
1.25638e-05
1.77055e-05
2.59866e-05
2.23959e-05
1.70884e-05
1.49849e-05
1.38845e-05
1.14189e-05
1.57267e-05
1.6312e-05
1.13662e-05
1.32084e-05
1.50066e-05
1.42388e-05
1.12401e-05
1.36986e-05
2.04136e-05
2.37149e-05
1.83219e-05
1.93719e-05
3.00313e-05
2.58022e-05
1.84173e-05
1.69893e-05
2.25588e-05
1.81758e-05
1.55454e-05
1.97583e-05
1.55846e-05
1.74155e-05
1.24987e-05
6.44933e-06
3.27257e-06
8.55595e-06
1.07605e-05
1.18112e-05
6.7895e-06
4.11017e-06
1.56321e-05
2.39976e-05
1.09435e-05
9.87409e-06
1.92738e-05
2.12788e-05
1.75461e-05
1.46048e-05
1.26554e-05
9.86093e-06
1.40484e-05
1.59864e-05
1.01256e-05
9.00936e-06
1.01922e-05
1.22169e-05
8.1839e-06
5.84059e-06
9.26253e-06
1.57805e-05
1.41337e-05
4.68496e-06
1.3542e-05
2.33573e-05
2.17934e-05
1.89188e-05
3.00148e-05
2.00112e-05
1.48727e-05
1.60635e-05
1.20831e-05
1.48505e-05
1.756e-05
9.18312e-06
5.7634e-06
5.25693e-06
5.64219e-06
4.86327e-06
8.18368e-06
4.54515e-06
4.96223e-06
1.72533e-05
1.34475e-05
5.26522e-06
8.79706e-06
1.36745e-05
1.54064e-05
1.54846e-05
1.20868e-05
7.95214e-06
1.29132e-05
1.64225e-05
9.28469e-06
7.39749e-06
6.60849e-06
8.91983e-06
6.60979e-06
3.40394e-06
5.50419e-06
6.24837e-06
1.0154e-05
4.37657e-06
2.20042e-06
9.59837e-06
1.64102e-05
9.12425e-06
2.49725e-05
2.79722e-05
1.52504e-05
1.57772e-05
1.04013e-05
9.59005e-06
1.71953e-05
1.27308e-05
7.18016e-06
6.01234e-06
6.12934e-06
4.30491e-06
3.86022e-06
5.00931e-06
5.06994e-06
7.7652e-06
1.51265e-05
5.80996e-06
4.84446e-06
4.46964e-06
9.02074e-06
1.3958e-05
1.22863e-05
8.83712e-06
1.12173e-05
1.6459e-05
8.63084e-06
4.58331e-06
6.23631e-06
5.62176e-06
4.83713e-06
3.12869e-06
2.74425e-06
4.59051e-06
3.18174e-06
8.28627e-06
6.33776e-06
3.37004e-06
7.47862e-06
5.99264e-06
4.63771e-06
1.95072e-05
1.02335e-05
1.5124e-05
1.19026e-05
6.84951e-06
1.34483e-05
1.4035e-05
1.06198e-05
6.86099e-06
5.83892e-06
4.01834e-06
3.96748e-06
4.1553e-06
4.58452e-06
4.46583e-06
1.21196e-05
1.36944e-05
4.52175e-06
4.19958e-06
3.94229e-06
8.6133e-06
1.26513e-05
9.36309e-06
8.55302e-06
1.49317e-05
1.06729e-05
4.1363e-06
2.87725e-06
3.9691e-06
3.83128e-06
4.60579e-06
1.99251e-06
3.4552e-06
6.79352e-07
3.3625e-06
1.07208e-05
6.55156e-06
4.23591e-06
1.04903e-05
1.38149e-05
7.25808e-06
7.09124e-06
1.38598e-05
1.27715e-05
5.62206e-06
9.74768e-06
1.37374e-05
9.47256e-06
9.50361e-06
6.53392e-06
6.85555e-06
4.13823e-06
3.40718e-06
5.74629e-06
4.86806e-06
6.6549e-06
1.19146e-05
5.22419e-06
3.93699e-06
4.63095e-06
4.72738e-06
1.31985e-05
1.17276e-05
6.57999e-06
9.4757e-06
1.09722e-05
7.91822e-06
6.79253e-06
2.92708e-06
4.9766e-06
6.06438e-06
4.50901e-06
3.72997e-06
8.3128e-07
4.17188e-06
5.77282e-06
7.21462e-06
8.55273e-06
7.01984e-06
1.48021e-05
8.43319e-06
3.72855e-06
6.24094e-06
1.63471e-05
6.74805e-06
8.82832e-06
1.61337e-05
1.1138e-05
1.00144e-05
8.14618e-06
8.381e-06
5.28372e-06
3.96604e-06
5.50924e-06
5.26339e-06
2.80313e-06
5.87872e-06
7.8666e-06
4.68475e-06
2.55827e-06
5.15713e-06
1.06379e-05
1.35547e-05
7.08058e-06
5.74126e-06
7.38494e-06
8.17643e-06
7.38774e-06
4.66889e-06
4.4042e-06
6.6659e-06
5.05396e-06
5.85289e-06
3.20896e-06
1.58222e-06
2.71767e-06
2.09771e-06
9.49897e-06
1.87354e-05
2.80879e-06
6.46124e-06
4.66654e-06
5.69018e-06
1.05768e-05
9.05542e-06
8.79768e-06
1.8102e-05
1.70936e-05
1.10875e-05
9.10671e-06
8.08492e-06
7.36453e-06
4.28873e-06
4.13347e-06
6.47106e-06
1.6577e-06
3.44653e-06
6.44983e-06
6.66635e-06
2.17597e-06
2.57313e-06
6.22779e-06
1.11099e-05
7.16107e-06
5.82776e-06
3.89485e-06
6.43569e-06
8.36137e-06
6.30142e-06
4.09424e-06
4.46035e-06
5.127e-06
6.25354e-06
4.37849e-06
3.88241e-06
2.74535e-06
2.76517e-06
3.88602e-06
1.74038e-05
4.90268e-06
3.00772e-06
6.2752e-06
6.98619e-06
5.88094e-06
8.34133e-06
2.16414e-06
9.26649e-06
1.35233e-05
7.21439e-06
5.99327e-06
6.17212e-06
7.3306e-06
3.67576e-06
3.69667e-06
5.06448e-06
2.47591e-06
3.7431e-06
4.4691e-06
6.6493e-06
5.09068e-06
3.1113e-06
3.9635e-06
7.42252e-06
5.6547e-06
5.32379e-06
2.35475e-06
1.79756e-06
9.10414e-06
1.06931e-05
7.20396e-06
2.47676e-06
6.51203e-06
3.44675e-06
4.11438e-06
5.50665e-06
3.36057e-06
4.29841e-06
2.94126e-06
8.72532e-06
7.22043e-06
5.35437e-06
3.10095e-06
6.9856e-06
6.06141e-06
5.61893e-06
3.79128e-06
5.17648e-06
4.05333e-06
3.74966e-06
2.94202e-06
4.09768e-06
6.0546e-06
2.58021e-06
4.28883e-06
3.27308e-06
1.70458e-06
2.41667e-06
4.96106e-06
4.89113e-06
3.70524e-06
4.93934e-06
2.95137e-06
3.45989e-06
4.6033e-06
6.62493e-06
2.87944e-06
1.69998e-06
5.18442e-06
9.36685e-06
9.16463e-06
3.24563e-06
6.1312e-06
6.5607e-06
3.12396e-06
4.43559e-06
3.71216e-06
6.55649e-06
5.84923e-06
2.02864e-06
7.24823e-06
3.87816e-06
1.83458e-06
3.73637e-06
6.79042e-06
2.96688e-06
3.26803e-06
5.52077e-06
1.34909e-06
3.73767e-06
2.52341e-06
1.11085e-06
6.03887e-06
3.85343e-06
2.91499e-06
2.8803e-06
2.10653e-06
2.52918e-06
4.98501e-06
4.02989e-06
3.03986e-06
5.7611e-06
3.27285e-06
1.29519e-06
3.78833e-06
5.63254e-06
3.72324e-06
1.30489e-06
4.89681e-06
2.83912e-06
6.51205e-06
3.6107e-06
4.24833e-06
7.01982e-06
2.01946e-06
3.05324e-06
2.95664e-06
4.56562e-06
6.23271e-06
4.42926e-06
4.2096e-06
2.58482e-06
3.66385e-06
3.33214e-06
4.98164e-06
6.788e-07
5.04133e-06
2.88573e-06
4.53276e-07
5.73448e-06
2.61435e-06
3.32956e-06
2.97157e-06
6.09617e-06
1.83459e-06
1.59544e-06
2.2045e-06
1.7502e-06
5.29107e-06
4.25623e-06
3.8877e-06
4.43802e-06
4.41908e-06
2.5259e-06
5.59706e-06
6.51829e-06
5.83909e-06
2.77236e-06
3.95553e-06
2.33803e-06
4.31822e-06
4.43521e-06
1.84663e-06
4.88696e-06
2.57839e-06
2.25738e-06
2.73649e-06
2.22862e-06
4.18614e-06
3.10565e-06
1.88871e-06
3.8661e-06
3.05055e-06
3.64167e-06
4.42916e-06
1.79648e-06
2.54671e-06
4.39722e-06
1.07339e-06
3.63399e-06
4.93992e-06
2.30742e-06
2.189e-06
4.02114e-06
2.01226e-06
1.43216e-06
1.38434e-06
1.2234e-06
4.65657e-06
7.27518e-06
4.01686e-06
3.39393e-06
2.78329e-06
2.1332e-06
4.51003e-06
7.43744e-06
7.16722e-06
5.0993e-06
2.41266e-06
3.025e-06
3.17576e-06
5.70889e-06
3.53977e-06
2.93293e-06
1.89929e-06
2.62269e-06
3.02054e-06
1.58554e-06
3.36547e-06
2.35768e-06
1.22333e-06
3.03262e-06
1.38903e-06
1.99471e-06
2.82884e-06
1.95624e-06
1.3156e-06
2.56959e-06
9.13214e-07
1.45424e-06
4.28096e-06
1.48022e-06
2.84168e-06
1.67662e-06
2.25548e-06
1.10395e-06
1.17899e-06
1.63549e-06
2.53229e-06
4.77376e-06
3.53707e-06
2.32914e-06
1.5066e-06
5.40695e-07
1.9631e-06
5.39883e-06
5.60805e-06
5.18377e-06
3.49489e-06
2.4676e-06
1.60633e-06
5.06046e-06
4.95123e-06
3.4244e-06
1.44639e-06
1.72584e-06
2.80187e-06
9.07212e-07
2.47464e-06
2.54158e-06
1.85245e-06
2.1952e-06
1.52641e-06
1.8148e-06
2.22018e-06
1.71026e-06
1.38102e-06
1.20372e-06
6.22324e-07
1.48932e-06
2.98989e-06
2.25643e-06
1.68668e-06
1.2667e-06
1.76128e-06
2.00814e-06
1.95447e-06
1.95587e-06
1.48917e-06
2.14326e-06
2.24464e-06
1.38257e-06
1.37435e-06
2.03653e-07
4.66669e-07
3.13894e-06
3.00681e-06
2.84719e-06
3.27347e-06
1.89563e-06
1.02502e-06
2.21465e-06
3.26999e-06
3.46632e-06
1.66736e-06
1.06424e-06
2.17004e-06
2.9746e-07
1.0683e-06
2.27028e-06
1.35856e-06
1.80513e-06
1.59948e-06
9.52832e-07
1.66862e-06
9.26195e-07
7.60063e-07
1.23251e-06
6.48711e-07
1.06845e-06
2.38682e-06
2.28811e-06
1.50458e-06
9.24986e-07
9.60953e-07
2.13559e-06
2.48305e-06
2.05281e-06
1.04954e-06
1.35441e-06
1.43374e-06
6.82427e-07
1.16972e-06
2.08799e-07
2.14154e-07
2.0256e-06
1.27212e-06
8.56936e-07
2.25424e-06
1.40963e-06
5.91235e-07
7.06668e-07
1.27613e-06
2.33341e-06
1.50288e-06
7.23348e-07
1.72518e-06
5.53347e-07
3.28999e-07
1.83189e-06
5.63957e-07
1.25124e-06
1.18382e-06
4.34484e-07
1.16275e-06
4.79391e-07
2.37806e-07
1.17552e-06
4.65238e-07
4.67566e-07
1.80789e-06
1.90884e-06
1.2563e-06
7.62989e-07
6.14486e-07
1.6256e-06
2.37301e-06
1.58505e-06
3.90879e-07
8.99372e-07
8.6811e-07
1.83823e-07
9.13188e-07
1.97617e-07
2.17203e-07
1.66206e-06
7.48927e-07
4.80946e-07
1.30205e-06
8.49197e-07
3.99967e-07
4.72438e-07
7.93624e-07
1.38013e-06
8.09337e-07
5.25353e-07
1.76354e-06
4.52069e-07
2.22352e-07
1.3575e-06
4.56839e-07
8.02877e-07
5.02952e-07
3.60032e-07
9.51006e-07
3.30548e-07
6.12343e-08
7.88797e-07
2.62417e-07
1.4883e-07
1.35255e-06
1.23675e-06
5.94525e-07
7.5828e-07
3.21663e-07
7.24989e-07
1.40519e-06
7.38095e-07
8.89229e-08
5.78621e-07
6.19897e-07
5.20945e-08
7.06409e-07
2.79879e-07
1.743e-07
1.49927e-06
5.97658e-07
4.10124e-07
8.07579e-07
7.68795e-07
2.3298e-07
3.2669e-07
8.37792e-07
9.6069e-07
2.07841e-07
1.92023e-07
1.6566e-06
3.43939e-07
1.44756e-07
1.26999e-06
5.02182e-07
5.64788e-07
4.98171e-07
2.56566e-07
7.35412e-07
4.64225e-07
8.42446e-08
4.08187e-07
2.50906e-07
1.89275e-07
8.90016e-07
7.92654e-07
3.03896e-07
5.19368e-07
2.28124e-07
2.72338e-07
6.5144e-07
4.82014e-07
7.35937e-08
3.13426e-07
7.11587e-07
3.78594e-08
5.41041e-07
3.67029e-07
1.29561e-07
1.23567e-06
7.5123e-07
2.74289e-07
4.52879e-07
7.70026e-07
1.50796e-07
1.6739e-07
6.99351e-07
7.12314e-07
9.6597e-08
9.44056e-08
1.51055e-06
3.4879e-07
1.25315e-07
1.04034e-06
5.06271e-07
6.33769e-07
5.60268e-07
1.71417e-07
4.40322e-07
5.96665e-07
1.01122e-07
2.00602e-07
2.64032e-07
1.60023e-07
5.76934e-07
5.69247e-07
2.72993e-07
3.94646e-07
2.02732e-07
1.96005e-07
3.47632e-07
4.19773e-07
3.93019e-08
1.24084e-07
7.41052e-07
1.81299e-08
4.16768e-07
4.54835e-07
9.25486e-08
9.15811e-07
7.26971e-07
1.60965e-07
2.14252e-07
7.09201e-07
1.14721e-07
4.71139e-08
4.38315e-07
6.74572e-07
5.57631e-08
7.9662e-08
1.29924e-06
3.16452e-07
6.3927e-08
8.12247e-07
4.41793e-07
5.37545e-07
4.43848e-07
1.14386e-07
2.08031e-07
5.78725e-07
1.17117e-07
1.00582e-07
2.547e-07
1.11646e-07
4.70057e-07
4.18549e-07
1.79811e-07
3.14515e-07
1.02983e-07
1.53985e-07
2.10253e-07
3.12453e-07
3.97444e-08
4.26874e-08
6.95658e-07
7.29995e-09
3.19008e-07
5.12077e-07
5.73369e-08
6.99385e-07
5.64076e-07
1.51049e-07
1.02699e-07
4.25563e-07
3.26498e-07
1.56103e-08
1.64948e-07
7.37937e-07
3.47657e-08
5.51724e-08
1.05068e-06
3.01641e-07
2.66019e-08
5.10399e-07
3.77272e-07
4.25797e-07
3.35359e-07
7.52148e-08
9.62039e-08
4.52187e-07
1.24262e-07
6.40164e-08
2.46729e-07
6.4509e-08
4.37863e-07
2.89976e-07
6.78796e-08
2.67813e-07
5.39118e-08
1.03269e-07
1.42054e-07
2.36157e-07
3.82562e-08
2.57997e-08
5.98845e-07
4.84551e-09
2.48187e-07
5.4056e-07
3.89955e-08
6.1152e-07
2.96946e-07
2.07194e-07
7.38939e-08
7.01791e-08
6.68123e-07
8.49631e-09
2.76741e-08
7.49255e-07
3.11983e-08
4.22484e-08
7.87874e-07
2.95184e-07
1.73258e-08
2.80692e-07
2.71353e-07
3.81145e-07
2.93486e-07
3.6527e-08
4.72025e-08
3.26054e-07
1.13452e-07
6.27044e-08
2.23968e-07
3.43675e-08
4.94479e-07
2.06797e-07
1.19432e-08
2.31809e-07
4.18481e-08
6.59726e-08
8.22711e-08
2.38764e-07
2.5282e-08
2.51746e-08
4.9942e-07
6.51237e-09
2.06258e-07
5.38353e-07
2.67316e-08
5.36955e-07
1.25754e-07
2.51344e-07
1.03079e-07
1.17457e-08
7.87244e-07
6.71157e-09
7.09837e-09
6.03632e-07
5.33099e-08
3.64104e-08
5.35479e-07
2.47287e-07
2.39458e-08
1.65739e-07
1.24097e-07
3.94631e-07
3.5992e-07
1.47203e-08
1.96303e-08
3.07332e-07
6.78382e-08
1.23517e-07
2.83353e-07
1.88534e-08
6.11516e-07
1.42753e-07
6.03843e-09
2.40357e-07
1.2745e-08
1.21015e-07
3.86845e-08
2.14791e-07
3.19922e-08
3.47011e-08
3.80898e-07
9.91631e-09
1.80231e-07
4.25609e-07
1.89349e-08
4.52042e-07
6.37148e-08
2.33206e-07
2.27399e-07
4.3643e-09
7.08195e-07
1.94245e-08
4.27445e-09
4.01568e-07
6.70312e-08
3.15837e-08
3.07601e-07
1.67881e-07
4.07724e-08
1.63707e-07
4.99704e-08
3.46317e-07
4.7497e-07
1.25668e-08
6.38557e-09
3.76647e-07
3.76026e-08
1.80629e-07
4.22407e-07
1.14398e-08
6.76958e-07
8.96542e-08
5.75691e-09
3.42791e-07
1.68466e-09
3.50551e-07
2.14914e-08
8.03083e-08
9.41703e-08
6.32781e-08
1.88143e-07
1.61791e-08
2.04232e-07
1.91494e-07
1.5005e-08
3.70352e-07
3.04864e-08
2.82935e-07
2.85304e-07
2.73024e-09
6.66967e-07
3.72736e-08
4.287e-09
3.21453e-07
3.75221e-08
5.76289e-08
1.38632e-07
9.87746e-08
8.70362e-08
1.45821e-07
3.28385e-08
1.80942e-07
4.57517e-07
2.8748e-08
3.28113e-09
3.58873e-07
3.07016e-08
1.78936e-07
4.51538e-07
6.45027e-09
5.8129e-07
4.29503e-08
9.14478e-09
5.09029e-07
9.20579e-10
4.42851e-07
1.04487e-07
2.44773e-08
1.30457e-07
1.74078e-07
4.53592e-08
1.63996e-08
2.75796e-07
3.92176e-08
2.99568e-08
3.63063e-07
1.40092e-08
3.67961e-07
2.90531e-07
2.07305e-09
6.40294e-07
8.88094e-08
4.46172e-09
3.1879e-07
2.15251e-08
1.16909e-07
4.63835e-08
5.26984e-08
2.366e-07
5.64924e-08
3.01345e-08
6.00408e-08
3.38263e-07
4.31692e-08
1.82696e-08
1.59828e-07
3.68687e-08
2.57515e-07
9.62004e-08
3.24459e-09
4.0883e-07
2.35619e-08
8.08231e-08
5.91804e-07
2.57419e-09
2.60338e-07
4.59461e-07
1.54426e-08
5.18217e-08
3.04986e-07
2.07712e-08
8.96246e-09
2.97037e-07
2.17589e-08
7.04702e-08
3.51057e-07
8.03134e-09
4.11124e-07
2.30926e-07
2.86692e-09