/*--------------------------------*- C++ -*----------------------------------*\
  =========                 |
  \\      /  F ield         | OpenFOAM: The Open Source CFD Toolbox
   \\    /   O peration     | Website:  https://openfoam.org
    \\  /    A nd           | Version:  10
     \\/     M anipulation  |
\*---------------------------------------------------------------------------*/
FoamFile
{
    format      ascii;
    class       surfaceScalarField;
    location    "18";
    object      phi_0;
}
// * * * * * * * * * * * * * * * * * * * * * * * * * * * * * * * * * * * * * //

dimensions      [0 3 -1 0 0 0 0];

internalField   nonuniform List<scalar> 
74080
(
1.04523e-06
3.53485e-09
-6.56863e-08
1.06419e-06
6.37159e-08
-9.17014e-08
1.0596e-06
8.27817e-08
-8.48344e-08
1.04105e-06
6.8835e-08
-6.97384e-08
1.02692e-06
1.77961e-08
-4.09677e-08
1.03698e-06
1.57612e-08
-6.21624e-08
1.05632e-06
7.10257e-08
-9.37898e-08
1.05496e-06
8.04041e-08
-5.44155e-08
1.04333e-06
5.68913e-08
-4.43416e-08
1.03091e-06
1.47624e-08
-1.48673e-08
1.04551e-06
1.45184e-08
-3.93503e-08
1.06853e-06
7.40349e-08
-8.92808e-08
1.06929e-06
7.8904e-08
-7.19376e-08
1.05802e-06
6.1419e-08
-6.36917e-08
1.0373e-06
2.06998e-08
-3.62613e-08
1.03902e-06
3.31115e-09
-3.14387e-08
1.05177e-06
6.56909e-08
-7.76626e-08
1.04437e-06
8.26828e-08
-5.677e-08
1.03669e-06
7.19875e-08
-6.1637e-08
1.02986e-06
3.08995e-08
-5.00307e-08
1.0404e-06
2.53832e-08
-7.02399e-08
1.05541e-06
6.9907e-08
-9.76179e-08
1.04533e-06
7.47947e-08
-6.59338e-08
1.02909e-06
4.94052e-08
-3.37957e-08
1.01862e-06
1.98825e-08
4.18625e-09
1.02913e-06
2.6976e-08
-1.93763e-08
1.04984e-06
9.50597e-08
-6.33999e-08
1.04749e-06
1.02614e-07
-6.31514e-08
1.03403e-06
6.71164e-08
-4.49825e-08
1.0245e-06
1.92213e-08
-2.8658e-08
1.03689e-06
2.18233e-08
-4.03873e-08
1.05477e-06
8.42023e-08
-8.7009e-08
1.04749e-06
9.11396e-08
-5.85139e-08
1.03314e-06
5.6769e-08
-4.25747e-08
1.02204e-06
1.26024e-08
-1.10433e-08
1.0381e-06
1.63439e-08
-2.39938e-08
1.05875e-06
7.72241e-08
-7.72432e-08
1.05934e-06
1.04622e-07
-7.32068e-08
1.0466e-06
7.53453e-08
-7.89498e-08
1.83229e-08
-4.26603e-08
3.51675e-06
4.09454e-08
-1.96395e-07
3.5799e-06
2.64555e-07
-2.78972e-07
3.5742e-06
3.14394e-07
-2.66453e-07
3.51703e-06
2.62508e-07
-2.21448e-07
3.4659e-06
7.72423e-08
-1.20724e-07
3.48702e-06
9.46444e-08
-1.91308e-07
3.55221e-06
2.94592e-07
-2.83239e-07
3.55819e-06
3.03261e-07
-1.6418e-07
3.5222e-06
2.18058e-07
-1.39949e-07
3.47904e-06
6.37617e-08
-3.80128e-08
3.51601e-06
8.47685e-08
-1.19654e-07
3.59568e-06
2.99145e-07
-2.75131e-07
3.60865e-06
2.93018e-07
-2.22493e-07
3.57269e-06
2.33332e-07
-2.00623e-07
3.50321e-06
8.08543e-08
-1.0173e-07
3.49513e-06
4.16514e-08
-8.50221e-08
3.53982e-06
2.70336e-07
-2.31571e-07
3.52253e-06
3.15376e-07
-1.75461e-07
3.49928e-06
2.80066e-07
-1.97102e-07
3.47375e-06
1.31193e-07
-1.53455e-07
3.49882e-06
1.28111e-07
-2.14164e-07
3.55163e-06
2.85317e-07
-2.92577e-07
3.52952e-06
2.83868e-07
-2.00384e-07
3.47529e-06
1.93786e-07
-1.0284e-07
3.4346e-06
9.0779e-08
2.53154e-08
3.45818e-06
1.37974e-07
-5.05952e-08
3.53132e-06
3.81467e-07
-1.89346e-07
3.53529e-06
3.8032e-07
-1.99473e-07
3.49242e-06
2.49624e-07
-1.38612e-07
3.45772e-06
8.20525e-08
-7.55207e-08
3.48443e-06
1.17113e-07
-1.17158e-07
3.54739e-06
3.39801e-07
-2.68721e-07
3.53707e-06
3.38987e-07
-1.81842e-07
3.49225e-06
2.15486e-07
-1.32859e-07
3.44902e-06
5.82341e-08
-2.10575e-08
3.48817e-06
9.12668e-08
-6.50553e-08
3.55799e-06
3.13348e-07
-2.32928e-07
3.57303e-06
3.89245e-07
-2.27884e-07
3.53775e-06
2.76823e-07
-2.47235e-07
7.17862e-08
-1.20993e-07
6.6304e-06
1.29385e-07
-3.16826e-07
6.75021e-06
6.12284e-07
-4.74034e-07
6.76067e-06
6.8798e-07
-4.79984e-07
6.66381e-06
5.85664e-07
-4.13591e-07
6.55593e-06
1.93618e-07
-2.07845e-07
6.57171e-06
2.58585e-07
-3.15787e-07
6.69572e-06
6.8523e-07
-4.86473e-07
6.72707e-06
6.67361e-07
-2.95994e-07
6.66806e-06
4.89397e-07
-2.66154e-07
6.57844e-06
1.62289e-07
-6.00444e-08
6.62547e-06
2.28058e-07
-1.84455e-07
6.77931e-06
6.82906e-07
-4.71666e-07
6.82444e-06
6.37353e-07
-3.9826e-07
6.76662e-06
5.18686e-07
-3.7258e-07
6.63172e-06
1.93201e-07
-1.77319e-07
6.59205e-06
1.35431e-07
-1.17348e-07
6.67816e-06
6.23106e-07
-3.84628e-07
6.66117e-06
6.94359e-07
-3.12601e-07
6.62171e-06
6.32882e-07
-3.62902e-07
6.56534e-06
3.18614e-07
-2.66656e-07
6.59438e-06
3.30225e-07
-3.54714e-07
6.69974e-06
6.59092e-07
-4.97826e-07
6.68003e-06
6.27329e-07
-3.62948e-07
6.58164e-06
4.42518e-07
-2.01294e-07
6.49127e-06
2.31946e-07
5.53851e-08
6.51382e-06
3.52665e-07
-5.28455e-08
6.65687e-06
8.66667e-07
-3.08895e-07
6.68772e-06
8.24603e-07
-3.63814e-07
6.61385e-06
5.57032e-07
-2.58731e-07
6.53796e-06
2.03057e-07
-1.16717e-07
6.56438e-06
3.01034e-07
-1.73624e-07
6.68884e-06
7.73916e-07
-4.62876e-07
6.69467e-06
7.36243e-07
-3.32888e-07
6.61828e-06
4.78946e-07
-2.52877e-07
6.52191e-06
1.53942e-07
-2.67854e-08
6.56962e-06
2.42487e-07
-8.04847e-08
6.70315e-06
7.13043e-07
-3.85811e-07
6.75583e-06
8.40456e-07
-4.038e-07
6.70409e-06
6.00424e-07
-4.52598e-07
1.71622e-07
-2.034e-07
1.04937e-05
2.77617e-07
-4.00676e-07
1.06839e-05
1.10122e-06
-6.4785e-07
1.07433e-05
1.18616e-06
-7.18491e-07
1.06138e-05
1.04524e-06
-6.69056e-07
1.04194e-05
3.92001e-07
-3.17023e-07
1.03973e-05
5.19131e-07
-4.10654e-07
1.05935e-05
1.24486e-06
-6.86219e-07
1.06811e-05
1.16857e-06
-4.54478e-07
1.06091e-05
8.81639e-07
-4.46261e-07
1.04487e-05
3.37181e-07
-9.68591e-08
1.04787e-05
4.46323e-07
-2.02924e-07
1.07258e-05
1.21907e-06
-6.49728e-07
1.08375e-05
1.09973e-06
-5.95344e-07
1.0772e-05
9.22933e-07
-5.98613e-07
1.055e-05
3.84673e-07
-2.88839e-07
1.04416e-05
2.98465e-07
-1.09807e-07
1.05775e-05
1.11829e-06
-5.06767e-07
1.05817e-05
1.20478e-06
-4.59799e-07
1.05286e-05
1.1372e-06
-5.69311e-07
1.04218e-05
6.19599e-07
-3.9758e-07
1.04328e-05
6.47971e-07
-4.69714e-07
1.06091e-05
1.19617e-06
-6.93014e-07
1.06202e-05
1.10454e-06
-5.60208e-07
1.04771e-05
8.08935e-07
-3.62177e-07
1.03078e-05
4.69635e-07
7.39885e-08
1.03001e-05
6.79435e-07
-2.5182e-10
1.05322e-05
1.54137e-06
-3.84284e-07
1.06261e-05
1.42187e-06
-5.51226e-07
1.05269e-05
9.9878e-07
-4.2886e-07
1.03841e-05
4.055e-07
-1.6394e-07
1.03826e-05
5.78444e-07
-1.781e-07
1.05878e-05
1.37629e-06
-6.40415e-07
1.06438e-05
1.26948e-06
-5.14553e-07
1.05424e-05
8.53983e-07
-4.28193e-07
1.0361e-05
3.25756e-07
-4.80478e-08
1.03867e-05
4.76619e-07
-4.21161e-08
1.05997e-05
1.26127e-06
-4.9899e-07
1.07281e-05
1.43201e-06
-5.86164e-07
1.06768e-05
1.04456e-06
-7.11709e-07
3.4173e-07
-3.0579e-07
1.52199e-05
4.90468e-07
-4.265e-07
1.54888e-05
1.70492e-06
-7.4757e-07
1.56497e-05
1.77102e-06
-9.45222e-07
1.55115e-05
1.63794e-06
-1.00712e-06
1.51942e-05
7.06878e-07
-4.85448e-07
1.50766e-05
8.79584e-07
-4.54261e-07
1.53519e-05
1.95704e-06
-8.44149e-07
1.55428e-05
1.7919e-06
-6.22667e-07
1.5483e-05
1.4012e-06
-7.02908e-07
1.52228e-05
6.27494e-07
-1.89609e-07
1.51849e-05
7.40598e-07
-1.4879e-07
1.55397e-05
1.88336e-06
-7.55881e-07
1.57701e-05
1.64889e-06
-7.83989e-07
1.57295e-05
1.44302e-06
-8.90504e-07
1.54009e-05
6.94094e-07
-4.84554e-07
1.51637e-05
5.42725e-07
-5.7085e-08
1.53508e-05
1.73213e-06
-5.47033e-07
1.54115e-05
1.81292e-06
-5.82365e-07
1.53551e-05
1.78633e-06
-8.21094e-07
1.51721e-05
1.06735e-06
-5.71621e-07
1.5124e-05
1.09437e-06
-5.40934e-07
1.53879e-05
1.88904e-06
-8.35923e-07
1.5478e-05
1.70727e-06
-7.74061e-07
1.53031e-05
1.30232e-06
-6.20893e-07
1.50184e-05
8.404e-07
2.87185e-08
1.49277e-05
1.10744e-06
1.33936e-07
1.52626e-05
2.37335e-06
-3.4998e-07
1.54757e-05
2.14381e-06
-7.26526e-07
1.53714e-05
1.57839e-06
-6.72925e-07
1.51294e-05
7.20346e-07
-2.53179e-07
1.50505e-05
9.43951e-07
-1.00669e-07
1.53527e-05
2.11322e-06
-7.44276e-07
1.55126e-05
1.9092e-06
-7.04333e-07
1.54081e-05
1.33974e-06
-6.83519e-07
1.51024e-05
6.07651e-07
-1.30687e-07
1.50502e-05
7.95092e-07
6.89248e-08
1.53519e-05
1.92045e-06
-5.11815e-07
1.56119e-05
2.11415e-06
-7.28525e-07
1.5597e-05
1.59539e-06
-1.03253e-06
6.16886e-07
-4.64873e-07
2.09329e-05
7.78289e-07
-4.05206e-07
2.12679e-05
2.38247e-06
-7.03874e-07
2.1602e-05
2.37284e-06
-1.07022e-06
2.15095e-05
2.32468e-06
-1.4149e-06
2.10377e-05
1.17167e-06
-7.77978e-07
2.07345e-05
1.34199e-06
-4.53759e-07
2.1075e-05
2.78772e-06
-9.03496e-07
2.14303e-05
2.50173e-06
-7.39173e-07
2.14336e-05
2.02868e-06
-1.03353e-06
2.10502e-05
1.07771e-06
-4.12365e-07
2.0863e-05
1.12012e-06
-3.19766e-08
2.13202e-05
2.63761e-06
-7.18252e-07
2.17371e-05
2.24201e-06
-8.87062e-07
2.17821e-05
2.0447e-06
-1.22535e-06
2.13439e-05
1.15955e-06
-8.3389e-07
2.08916e-05
8.87488e-07
1.58796e-09
2.11108e-05
2.42943e-06
-4.44432e-07
2.12782e-05
2.45858e-06
-5.99328e-07
2.12456e-05
2.53584e-06
-1.09417e-06
2.09607e-05
1.68891e-06
-8.34824e-07
2.07856e-05
1.68357e-06
-5.77524e-07
2.11394e-05
2.71837e-06
-8.66254e-07
2.13781e-05
2.40528e-06
-9.36017e-07
2.12105e-05
1.91039e-06
-9.87427e-07
2.07772e-05
1.37706e-06
-1.6262e-07
2.05203e-05
1.634e-06
3.13406e-07
2.09503e-05
3.30542e-06
-1.19093e-07
2.13587e-05
2.93554e-06
-7.97074e-07
2.12964e-05
2.26846e-06
-9.8886e-07
2.09259e-05
1.17832e-06
-4.54117e-07
2.06904e-05
1.39317e-06
5.69981e-08
2.10882e-05
2.92963e-06
-6.9207e-07
2.14255e-05
2.59823e-06
-8.28346e-07
2.13684e-05
1.90297e-06
-1.01578e-06
2.09029e-05
1.03149e-06
-3.52051e-07
2.06837e-05
1.20806e-06
2.29349e-07
2.10607e-05
2.63857e-06
-3.50497e-07
2.15228e-05
2.80373e-06
-7.31215e-07
2.16102e-05
2.19876e-06
-1.38539e-06
1.02932e-06
-7.40589e-07
2.77716e-05
1.16334e-06
-4.16787e-07
2.81137e-05
3.09864e-06
-4.68112e-07
2.86985e-05
2.89575e-06
-9.32729e-07
2.8752e-05
2.99396e-06
-1.79211e-06
2.81249e-05
1.78378e-06
-1.26413e-06
2.7513e-05
1.91421e-06
-4.82628e-07
2.78598e-05
3.69747e-06
-8.17853e-07
2.84435e-05
3.23349e-06
-6.77921e-07
2.85958e-05
2.6849e-06
-1.35781e-06
2.80949e-05
1.70657e-06
-8.50857e-07
2.76456e-05
1.61665e-06
6.05752e-08
2.81561e-05
3.44781e-06
-4.81799e-07
2.88302e-05
2.80368e-06
-7.65182e-07
2.9057e-05
2.6299e-06
-1.49461e-06
2.85489e-05
1.77981e-06
-1.39342e-06
2.77754e-05
1.36638e-06
-4.96869e-08
2.7965e-05
3.18275e-06
-1.69103e-07
2.82972e-05
3.05286e-06
-3.70278e-07
2.83431e-05
3.27052e-06
-1.28907e-06
2.79469e-05
2.46883e-06
-1.23294e-06
2.75464e-05
2.4308e-06
-6.49804e-07
2.79544e-05
3.66033e-06
-7.36984e-07
2.84253e-05
3.17627e-06
-9.04448e-07
2.83459e-05
2.57278e-06
-1.38823e-06
2.77563e-05
2.06915e-06
-6.04112e-07
2.72206e-05
2.27003e-06
4.15161e-07
2.76911e-05
4.29091e-06
3.45542e-07
2.83784e-05
3.70444e-06
-5.89034e-07
2.84464e-05
2.97277e-06
-1.29208e-06
2.79436e-05
1.77923e-06
-8.52747e-07
2.74404e-05
1.93936e-06
2.13587e-07
2.78894e-05
3.76537e-06
-4.08376e-07
2.84874e-05
3.24233e-06
-7.38282e-07
2.85707e-05
2.44149e-06
-1.33937e-06
2.79397e-05
1.59017e-06
-7.94868e-07
2.74304e-05
1.74413e-06
3.35132e-07
2.78201e-05
3.37062e-06
3.21162e-08
2.85535e-05
3.38355e-06
-4.28453e-07
2.88495e-05
2.72079e-06
-1.6487e-06
1.56757e-06
-1.18845e-06
3.58971e-05
1.65593e-06
-6.22942e-07
3.61102e-05
3.85632e-06
-9.57304e-08
3.69929e-05
3.2541e-06
-3.30181e-07
3.73438e-05
3.43396e-06
-1.88151e-06
3.66357e-05
2.43368e-06
-1.93581e-06
3.55778e-05
2.59375e-06
-6.99182e-07
3.57995e-05
4.66655e-06
-6.25842e-07
3.66477e-05
3.9013e-06
-2.67527e-07
3.707e-05
3.20028e-06
-1.44875e-06
3.65226e-05
2.43672e-06
-1.51864e-06
3.56869e-05
2.26715e-06
-6.49398e-08
3.61294e-05
4.31403e-06
-9.01573e-08
3.71012e-05
3.25113e-06
-2.4609e-07
3.76362e-05
3.01324e-06
-1.44689e-06
3.71762e-05
2.44355e-06
-2.11715e-06
3.59841e-05
2.00235e-06
-4.03214e-07
3.60175e-05
4.0196e-06
1.72002e-07
3.65545e-05
3.51244e-06
2.58377e-07
3.67685e-05
3.78179e-06
-1.17334e-06
3.62984e-05
3.2813e-06
-1.73812e-06
3.55535e-05
3.32926e-06
-9.04344e-07
3.59111e-05
4.70155e-06
-4.93352e-07
3.66839e-05
3.95061e-06
-4.85716e-07
3.68245e-05
3.15677e-06
-1.58988e-06
3.61338e-05
2.84707e-06
-1.32436e-06
3.51983e-05
3.05217e-06
1.9192e-07
3.5579e-05
5.30424e-06
9.66575e-07
3.66022e-05
4.32505e-06
1.28717e-07
3.69357e-05
3.49128e-06
-1.33834e-06
3.63598e-05
2.42363e-06
-1.4713e-06
3.54624e-05
2.61473e-06
1.80617e-07
3.58438e-05
4.59103e-06
8.67387e-08
3.6764e-05
3.72373e-06
-2.3057e-07
3.71286e-05
2.7557e-06
-1.41619e-06
3.6397e-05
2.16373e-06
-1.45941e-06
3.54633e-05
2.44644e-06
1.81136e-07
3.57256e-05
4.16668e-06
5.10848e-07
3.67579e-05
3.75221e-06
3.54012e-07
3.74056e-05
2.92214e-06
-1.54673e-06
2.09811e-06
-1.77457e-06
4.54919e-05
2.1655e-06
-1.18395e-06
4.53544e-05
4.72957e-06
1.27126e-07
4.64847e-05
3.44763e-06
7.93572e-07
4.73031e-05
3.36166e-06
-1.25295e-06
4.67141e-05
2.82422e-06
-2.5613e-06
4.51185e-05
3.29525e-06
-1.27691e-06
4.49992e-05
5.70688e-06
-5.49577e-07
4.60673e-05
4.47978e-06
5.46639e-07
4.68849e-05
3.31154e-06
-9.10436e-07
4.64653e-05
3.00871e-06
-2.20447e-06
4.51624e-05
3.01405e-06
-6.14672e-07
4.53352e-05
5.3125e-06
1.77618e-07
4.65601e-05
3.59971e-06
6.93324e-07
4.75186e-05
2.94659e-06
-6.9112e-07
4.73316e-05
2.85925e-06
-2.71856e-06
4.56964e-05
2.72433e-06
-1.23134e-06
4.53803e-05
5.00913e-06
2.74521e-07
4.60972e-05
3.85488e-06
1.28692e-06
4.65856e-05
3.79171e-06
-3.78317e-07
4.61646e-05
3.81916e-06
-2.11841e-06
4.49784e-05
4.27566e-06
-1.49341e-06
4.50912e-05
5.83994e-06
-3.78144e-07
4.61648e-05
4.68194e-06
4.13173e-07
4.66892e-05
3.46074e-06
-1.17259e-06
4.60574e-05
3.49083e-06
-2.10076e-06
4.46474e-05
3.88222e-06
-6.19557e-07
4.47252e-05
6.35776e-06
1.40168e-06
4.60545e-05
4.77358e-06
1.40048e-06
4.68091e-05
3.5196e-06
-6.9662e-07
4.63254e-05
2.82963e-06
-2.11464e-06
4.49455e-05
3.32572e-06
-2.81809e-07
4.50508e-05
5.46448e-06
5.23813e-07
4.62717e-05
4.0139e-06
7.70983e-07
4.7079e-05
2.57379e-06
-8.3858e-07
4.64272e-05
2.44167e-06
-2.11497e-06
4.49835e-05
3.18889e-06
-4.44834e-07
4.48982e-05
5.10242e-06
8.11918e-07
4.61511e-05
3.94694e-06
1.61877e-06
4.7285e-05
2.48059e-06
-6.50146e-07
2.28551e-06
-2.23701e-06
5.67214e-05
2.37353e-06
-2.02991e-06
5.59885e-05
5.72058e-06
-2.24965e-07
5.71523e-05
3.64433e-06
2.13621e-06
5.852e-05
2.60792e-06
5.06811e-07
5.83872e-05
2.4883e-06
-2.56974e-06
5.6315e-05
3.73666e-06
-2.18409e-06
5.56024e-05
6.78946e-06
-9.93418e-07
5.67095e-05
5.05166e-06
1.50816e-06
5.79682e-05
2.89864e-06
6.50342e-07
5.79532e-05
2.98235e-06
-2.3463e-06
5.6238e-05
3.62058e-06
-1.60064e-06
5.59071e-05
6.44761e-06
-9.02867e-08
5.72094e-05
4.00506e-06
1.74937e-06
5.85993e-05
2.34412e-06
1.09092e-06
5.89904e-05
2.58855e-06
-2.58598e-06
5.70548e-05
3.23872e-06
-2.42566e-06
5.61872e-05
6.15376e-06
-3.19752e-07
5.69461e-05
4.21387e-06
2.39515e-06
5.77665e-05
3.19517e-06
1.41074e-06
5.76167e-05
3.62343e-06
-1.84434e-06
5.5999e-05
4.9683e-06
-2.35765e-06
5.56125e-05
7.03329e-06
-8.32459e-07
5.68448e-05
5.40103e-06
1.51543e-06
5.78705e-05
3.321e-06
2.96762e-07
5.75732e-05
3.63316e-06
-2.32371e-06
5.57506e-05
4.54272e-06
-2.01994e-06
5.52839e-05
7.44669e-06
1.03723e-06
5.67407e-05
5.10387e-06
2.96106e-06
5.80042e-05
2.90996e-06
1.06468e-06
5.78918e-05
2.53995e-06
-2.23595e-06
5.60777e-05
3.83923e-06
-1.22935e-06
5.56521e-05
6.39609e-06
4.62033e-07
5.70013e-05
4.23467e-06
2.02451e-06
5.83431e-05
1.74295e-06
7.85874e-07
5.80718e-05
1.95887e-06
-2.19334e-06
5.61822e-05
3.67541e-06
-1.51808e-06
5.55163e-05
6.19712e-06
4.35685e-07
5.67508e-05
4.18326e-06
3.01129e-06
5.8385e-05
1.34897e-06
1.38474e-06
1.63729e-06
-1.99762e-06
6.96258e-05
1.75588e-06
-2.61098e-06
6.81915e-05
6.57876e-06
-1.48283e-06
6.90432e-05
4.1021e-06
2.85933e-06
7.07902e-05
1.3857e-06
3.28467e-06
7.14597e-05
1.0834e-06
-1.22758e-06
6.9234e-05
3.43632e-06
-2.90766e-06
6.77795e-05
7.64123e-06
-2.23828e-06
6.86314e-05
5.7362e-06
1.88803e-06
7.01749e-05
2.05534e-06
3.12624e-06
7.08304e-05
1.99562e-06
-1.20049e-06
6.89777e-05
3.60032e-06
-2.49849e-06
6.80038e-05
7.51892e-06
-1.25737e-06
6.91194e-05
4.67295e-06
2.14956e-06
7.07239e-05
1.42391e-06
3.6362e-06
7.19231e-05
1.33695e-06
-1.01217e-06
7.00619e-05
3.03129e-06
-3.33331e-06
6.85656e-05
7.21187e-06
-1.93279e-06
6.91436e-05
4.7946e-06
2.73104e-06
7.01996e-05
2.14053e-06
3.99442e-06
7.05579e-05
2.37108e-06
-2.88571e-07
6.872e-05
4.92581e-06
-2.95892e-06
6.76382e-05
7.96926e-06
-2.16125e-06
6.87368e-05
6.12583e-06
2.05062e-06
7.02016e-05
2.75038e-06
2.75345e-06
7.05371e-05
2.95517e-06
-1.17138e-06
6.858e-05
4.63425e-06
-3.39497e-06
6.74344e-05
8.35228e-06
-5.94668e-07
6.87162e-05
5.4943e-06
3.83224e-06
7.0369e-05
1.77067e-06
3.83281e-06
7.09141e-05
1.19858e-06
-1.09122e-06
6.8949e-05
3.69448e-06
-2.22275e-06
6.78318e-05
7.18657e-06
-5.26358e-07
6.89947e-05
4.62227e-06
2.74868e-06
7.07473e-05
4.71667e-07
3.32614e-06
7.11641e-05
4.14446e-07
-9.81957e-07
6.91271e-05
3.3659e-06
-2.48489e-06
6.77876e-05
7.17228e-06
-9.62155e-07
6.86673e-05
4.78635e-06
3.60085e-06
7.05496e-05
-1.45697e-07
4.28815e-06
-1.30053e-07
-3.94149e-07
8.39609e-05
3.00991e-08
-2.04985e-06
8.2033e-05
6.72709e-06
-3.20123e-06
8.23263e-05
4.78401e-06
2.01846e-06
8.39864e-05
3.13262e-07
5.89387e-06
8.54968e-05
-1.05206e-06
1.64292e-06
8.36619e-05
2.07215e-06
-2.53678e-06
8.16029e-05
7.77374e-06
-3.90232e-06
8.19712e-05
6.38181e-06
8.57879e-07
8.342e-05
1.23223e-06
5.41503e-06
8.47462e-05
2.70403e-07
1.44149e-06
8.32064e-05
2.55034e-06
-2.34745e-06
8.16848e-05
7.9828e-06
-2.87643e-06
8.24372e-05
5.47844e-06
1.11884e-06
8.38422e-05
7.54034e-07
5.7252e-06
8.57282e-05
-5.54212e-07
2.01535e-06
8.44416e-05
1.76606e-06
-2.93993e-06
8.25044e-05
7.64274e-06
-4.00186e-06
8.2751e-05
5.50231e-06
1.43292e-06
8.37787e-05
1.16957e-06
6.17258e-06
8.4677e-05
2.93778e-07
2.64844e-06
8.30202e-05
3.83412e-06
-2.39032e-06
8.12845e-05
8.2034e-06
-3.94986e-06
8.19498e-05
6.67319e-06
1.07105e-06
8.35424e-05
1.98389e-06
5.07704e-06
8.45876e-05
1.53664e-06
1.63824e-06
8.295e-05
3.82502e-06
-3.54423e-06
8.12489e-05
8.71688e-06
-3.17058e-06
8.21039e-05
5.94688e-06
2.85933e-06
8.37794e-05
6.18655e-07
6.41662e-06
8.50153e-05
-9.0808e-07
1.55733e-06
8.33836e-05
2.52081e-06
-2.33776e-06
8.16893e-05
7.44313e-06
-2.25651e-06
8.23903e-05
5.18589e-06
2.00269e-06
8.41561e-05
-6.35241e-07
5.65536e-06
8.5307e-05
-1.77477e-06
1.67069e-06
8.3602e-05
1.90486e-06
-2.39038e-06
8.17763e-05
7.45586e-06
-2.96623e-06
8.21048e-05
5.70784e-06
2.46062e-06
8.37413e-05
-1.2282e-06
6.76095e-06
-2.53576e-06
2.59609e-06
9.91593e-05
-2.11019e-06
-7.27475e-08
9.72308e-05
5.7791e-06
-4.17667e-06
9.7069e-05
4.93878e-06
-2.54394e-07
9.81983e-05
-1.19835e-07
6.55818e-06
0.000100049
-2.92447e-06
4.8823e-06
9.90215e-05
1.5663e-07
-6.52394e-07
9.68241e-05
6.88084e-06
-4.8035e-06
9.67607e-05
6.42822e-06
-1.51272e-06
9.77665e-05
8.05807e-07
5.83638e-06
9.93289e-05
-1.3756e-06
4.45911e-06
9.84484e-05
8.15938e-07
-6.71029e-07
9.67306e-05
7.3683e-06
-3.75141e-06
9.71626e-05
5.71013e-06
-1.11288e-06
9.80691e-05
6.84047e-07
5.79852e-06
0.000100065
-2.13401e-06
5.14037e-06
9.96168e-05
-5.95361e-08
-8.54774e-07
9.76762e-05
7.02511e-06
-5.14037e-06
9.76681e-05
5.7096e-06
-1.30153e-06
9.84415e-05
7.05495e-07
6.31844e-06
9.95597e-05
-1.69205e-06
5.68019e-06
9.84271e-05
2.13808e-06
-3.08697e-07
9.64031e-05
7.50415e-06
-4.92552e-06
9.65544e-05
6.58292e-06
-1.39462e-06
9.78979e-05
1.28565e-06
5.46777e-06
9.93058e-05
-8.79366e-08
4.89921e-06
9.83452e-05
2.36632e-06
-1.74309e-06
9.64887e-05
8.15179e-06
-5.06648e-06
9.69021e-05
5.91702e-06
7.88381e-08
9.8226e-05
-4.24608e-08
6.92787e-06
9.97396e-05
-2.88771e-06
4.61872e-06
9.8834e-05
6.75333e-07
-1.00308e-06
9.69964e-05
6.74522e-06
-3.56302e-06
9.72286e-05
5.30222e-06
-1.72478e-07
9.85784e-05
-1.07002e-06
6.09364e-06
0.000100048
-3.61578e-06
4.61493e-06
9.9039e-05
-1.81181e-07
-7.78836e-07
9.71682e-05
6.5517e-06
-4.254e-06
9.70807e-05
6.09037e-06
-1.49799e-07
9.8094e-05
-1.36352e-06
7.05577e-06
-4.358e-06
5.62493e-06
0.000114586
-3.27441e-06
2.26745e-06
0.000113131
4.20473e-06
-3.48548e-06
0.000112865
4.32638e-06
-2.58902e-06
0.000113431
-1.67448e-07
4.73678e-06
0.000114921
-3.5561e-06
6.37409e-06
0.0001146
-9.99576e-07
1.77884e-06
0.000112824
5.39214e-06
-3.97159e-06
0.000112606
5.58082e-06
-3.69399e-06
0.00011315
5.7108e-07
3.92176e-06
0.000114367
-2.07521e-06
5.78463e-06
0.000114091
-4.47023e-07
1.53253e-06
0.000112628
5.95528e-06
-2.99655e-06
0.000112882
5.00347e-06
-3.01181e-06
0.000113347
8.36913e-07
3.70832e-06
0.000114821
-2.62465e-06
6.30513e-06
0.000114962
-1.2069e-06
1.71558e-06
0.000113459
5.70189e-06
-4.29039e-06
0.000113415
5.05848e-06
-3.78684e-06
0.000113937
5.22104e-07
4.11003e-06
0.00011484
-2.66137e-06
6.80856e-06
0.00011423
9.21618e-07
2.25232e-06
0.00011245
6.26469e-06
-4.06696e-06
0.000112277
5.75236e-06
-3.72277e-06
0.000113208
6.11073e-07
3.41941e-06
0.000114427
-1.19425e-06
6.28483e-06
0.000114088
1.18546e-06
9.29721e-07
0.000112563
6.85712e-06
-4.86044e-06
0.00011271
5.21351e-06
-2.89235e-06
0.000113578
-2.8925e-07
4.76864e-06
0.000114775
-3.74855e-06
5.99332e-06
0.000114546
-6.86924e-07
9.64903e-07
0.000113105
5.32861e-06
-3.37946e-06
0.000113112
4.68201e-06
-2.52127e-06
0.000113913
-1.0407e-06
4.18016e-06
0.000115093
-4.15328e-06
5.85037e-06
0.000114716
-1.55752e-06
1.36093e-06
0.000113267
4.84694e-06
-3.788e-06
0.000113083
5.53946e-06
-2.80345e-06
0.000113526
-9.41527e-07
4.85902e-06
-4.61952e-06
6.66293e-06
0.000129832
-3.01174e-06
3.22968e-06
0.000129048
2.89888e-06
-1.75811e-06
0.000128897
3.12455e-06
-3.13504e-06
0.000129149
-3.36081e-07
2.07239e-06
0.000129961
-3.15525e-06
5.3463e-06
0.000129908
-1.03293e-06
3.01541e-06
0.000128892
4.08136e-06
-1.98842e-06
0.000128739
4.18796e-06
-3.98441e-06
0.000129009
1.85114e-07
1.33601e-06
0.000129612
-1.92646e-06
4.71081e-06
0.00012961
-7.74174e-07
2.57171e-06
0.000128752
4.49768e-06
-1.3137e-06
0.000128889
3.62364e-06
-3.0812e-06
0.0001291
6.99179e-07
1.26135e-06
0.000129826
-2.30235e-06
5.05004e-06
0.00013008
-1.32091e-06
2.92316e-06
0.000129239
4.4238e-06
-2.18766e-06
0.000129272
3.75949e-06
-4.15154e-06
0.000129613
2.15754e-07
1.3524e-06
0.000130099
-2.66364e-06
5.44447e-06
0.000129783
5.37745e-07
3.44674e-06
0.000128668
5.08922e-06
-2.02192e-06
0.000128441
4.49416e-06
-4.08173e-06
0.000128977
-9.67252e-08
7.71362e-07
0.000129686
-1.66256e-06
4.97847e-06
0.00012963
6.33363e-07
2.47906e-06
0.000128758
5.41625e-06
-3.01034e-06
0.000128788
3.98413e-06
-3.77932e-06
0.000129279
-4.89e-07
1.7781e-06
0.000129862
-3.53991e-06
4.91458e-06
0.000129928
-1.03843e-06
2.03544e-06
0.000129201
3.90323e-06
-2.04747e-06
0.000129217
3.44395e-06
-3.17494e-06
0.000129589
-1.03745e-06
1.5584e-06
0.000130166
-3.62224e-06
4.72674e-06
0.000130068
-1.71355e-06
2.39183e-06
0.000129299
3.27128e-06
-2.1123e-06
0.000129218
4.18161e-06
-3.51876e-06
0.000129364
-6.71901e-07
2.01328e-06
-3.73399e-06
5.21368e-06
0.000144787
-2.0997e-06
2.52677e-06
0.00014458
2.06734e-06
-4.26406e-07
0.000144559
2.01467e-06
-2.11646e-06
0.000144625
-5.63597e-07
4.68852e-07
0.000144873
-2.48762e-06
3.22361e-06
0.000144828
-5.22667e-07
2.52694e-06
0.000144556
3.10702e-06
-3.60713e-07
0.000144532
2.94813e-06
-2.64695e-06
0.000144623
-2.41424e-07
-2.13049e-08
0.00014471
-1.51907e-06
2.68979e-06
0.000144742
-5.97848e-07
2.01925e-06
0.000144538
3.2875e-06
-1.13303e-07
0.000144608
2.30846e-06
-1.80296e-06
0.000144634
3.44398e-07
1.0731e-07
0.000144756
-1.82362e-06
2.9875e-06
0.000144893
-9.45659e-07
2.36036e-06
0.000144668
3.39325e-06
-5.17263e-07
0.000144781
2.49967e-06
-2.74772e-06
0.000144887
-1.34271e-07
-2.81394e-08
0.00014498
-2.27716e-06
3.15523e-06
0.000144818
5.4457e-07
2.82552e-06
0.000144467
4.0477e-06
-3.77022e-07
0.000144377
3.31816e-06
-2.75943e-06
0.000144543
-5.6092e-07
-4.98401e-07
0.000144737
-1.72767e-06
2.64726e-06
0.000144744
4.15209e-07
2.14717e-06
0.000144536
4.08146e-06
-1.25351e-06
0.00014454
2.77893e-06
-2.69672e-06
0.000144711
-6.71753e-07
9.8819e-08
0.000144769
-2.91218e-06
2.85023e-06
0.000144853
-8.59569e-07
1.67186e-06
0.000144759
2.78735e-06
-8.25393e-07
0.00014487
2.23161e-06
-2.26516e-06
0.000144947
-1.08634e-06
8.10011e-08
0.000145002
-2.81653e-06
2.67933e-06
0.000144941
-1.26134e-06
1.86649e-06
0.000144787
2.18645e-06
-6.76001e-07
0.000144847
2.79526e-06
-2.52625e-06
0.00014485
-6.3437e-07
4.38339e-07
-2.70375e-06
2.89598e-06
0.000159876
-1.36858e-06
1.37628e-06
0.000159969
1.45901e-06
5.42068e-08
0.00016005
1.20493e-06
-9.19043e-07
0.000159962
-6.21374e-07
5.53572e-08
0.000159894
-1.92466e-06
1.57919e-06
0.000159845
-1.5866e-07
1.4354e-06
0.000160011
2.28278e-06
3.03217e-07
0.000160097
2.05836e-06
-1.19279e-06
0.000160061
-3.9914e-07
-2.50336e-07
0.00015987
-1.15283e-06
1.21747e-06
0.000159886
-4.65708e-07
9.93264e-07
0.000160041
2.31552e-06
2.24466e-07
0.000160112
1.3351e-06
-5.80291e-07
0.000160027
9.23521e-08
2.35362e-09
0.00015982
-1.44904e-06
1.53003e-06
0.000159876
-6.68653e-07
1.27182e-06
0.000159997
2.50598e-06
1.44777e-07
0.000160175
1.54896e-06
-1.22624e-06
0.000160079
-2.30865e-07
-2.10524e-07
0.000159912
-1.8306e-06
1.48972e-06
0.000159851
4.6162e-07
1.5952e-06
0.000159992
3.03459e-06
2.71053e-07
0.000160076
2.35285e-06
-1.31519e-06
0.000159981
-6.33899e-07
-5.47398e-07
0.000159836
-1.55312e-06
9.75023e-07
0.000159857
2.35138e-07
1.11961e-06
0.000160044
2.90922e-06
-4.12093e-07
0.000160093
1.83034e-06
-1.2939e-06
0.00016006
-6.60686e-07
-2.60216e-07
0.000159826
-2.2624e-06
1.3397e-06
0.000159879
-6.94229e-07
8.24851e-07
0.000160081
1.95203e-06
-2.64963e-07
0.000160265
1.34388e-06
-1.12345e-06
0.000160177
-9.77184e-07
-2.50635e-07
0.000159963
-2.14418e-06
1.17463e-06
0.000159909
-8.74324e-07
8.69423e-07
0.000160058
1.46952e-06
-4.76502e-08
0.000160231
1.75192e-06
-1.28265e-06
0.000160151
-5.7336e-07
1.12412e-07
-1.96924e-06
1.24572e-06
0.000175899
-9.38796e-07
6.49472e-07
0.000176055
1.00178e-06
1.0865e-07
0.000176203
6.1895e-07
-2.67779e-07
0.00017604
-5.26949e-07
3.68454e-08
0.000175849
-1.49392e-06
7.21182e-07
0.000175815
-1.58902e-08
6.72194e-07
0.000176112
1.62039e-06
3.85423e-07
0.000176261
1.41893e-06
-4.15931e-07
0.000176177
-4.06463e-07
-1.3373e-07
0.000175898
-8.68199e-07
5.03431e-07
0.000175907
-4.46264e-07
3.32274e-07
0.00017613
1.60495e-06
1.89772e-07
0.000176219
6.47739e-07
8.2382e-09
0.000176117
-5.55079e-08
9.47811e-08
0.000175806
-1.16808e-06
8.06457e-07
0.000175843
-5.5116e-07
5.52335e-07
0.000176052
1.81135e-06
2.43682e-07
0.00017627
8.6227e-07
-4.04207e-07
0.000176101
-1.95143e-07
-6.32914e-08
0.000175835
-1.4297e-06
6.62518e-07
0.000175821
2.92322e-07
7.35672e-07
0.000176112
2.1707e-06
3.46882e-07
0.0001763
1.57003e-06
-5.42302e-07
0.000176116
-5.31235e-07
-3.10651e-07
0.000175838
-1.27202e-06
1.85917e-07
0.000175856
8.61711e-08
4.00255e-07
0.000176152
1.99556e-06
-1.77089e-07
0.000176261
1.11668e-06
-5.04849e-07
0.000176171
-5.44049e-07
-2.05544e-07
0.000175836
-1.69522e-06
5.95405e-07
0.00017587
-6.16821e-07
2.54524e-07
0.000176114
1.37624e-06
-1.10819e-07
0.000176328
7.36802e-07
-4.84364e-07
0.000176195
-7.66501e-07
-2.11009e-07
0.000175899
-1.63523e-06
4.35723e-07
0.000175872
-6.60301e-07
2.25357e-07
0.000176072
1.01898e-06
1.03865e-07
0.000176302
1.03185e-06
-5.89166e-07
0.000176199
-4.33958e-07
1.51804e-07
-1.48238e-06
4.51064e-07
0.00019342
-6.86062e-07
3.45396e-07
0.000193548
7.01645e-07
7.80312e-08
0.000193713
2.02121e-07
-5.08103e-08
0.000193542
-3.89526e-07
4.50105e-08
0.000193336
-1.15615e-06
3.42669e-07
0.000193315
2.66835e-08
3.2197e-07
0.0001936
1.13133e-06
3.04159e-07
0.000193765
9.50509e-07
-1.62651e-07
0.000193679
-3.72663e-07
-6.51186e-08
0.000193411
-6.39975e-07
2.09812e-07
0.000193416
-4.55138e-07
6.09559e-08
0.000193606
1.1294e-06
1.16295e-07
0.000193692
2.02337e-07
1.28385e-07
0.00019361
-1.51623e-07
1.12529e-07
0.000193301
-9.28579e-07
4.83205e-07
0.000193344
-5.04732e-07
2.3515e-07
0.000193532
1.32205e-06
2.09324e-07
0.000193744
3.83669e-07
-1.21294e-07
0.000193588
-1.39013e-07
9.87547e-09
0.000193322
-1.08914e-06
3.18868e-07
0.000193327
1.35491e-07
3.26159e-07
0.000193598
1.53553e-06
2.79532e-07
0.000193811
9.70003e-07
-2.85678e-07
0.000193635
-4.05218e-07
-1.76797e-07
0.000193347
-9.8974e-07
-9.49461e-08
0.000193361
-1.18539e-09
8.51721e-08
0.000193633
1.3581e-06
-1.47395e-07
0.000193761
6.03548e-07
-2.35777e-07
0.000193685
-4.19661e-07
-1.63726e-07
0.000193355
-1.22692e-06
2.77728e-07
0.000193379
-5.55339e-07
-7.75909e-10
0.000193585
1.01163e-06
-8.32458e-08
0.000193788
3.2909e-07
-2.60869e-07
0.00019367
-5.59365e-07
-1.64827e-07
0.000193376
-1.23104e-06
1.40251e-07
0.000193378
-5.33529e-07
-3.86143e-08
0.000193542
7.61391e-07
1.1445e-07
0.000193776
5.40235e-07
-3.48377e-07
0.000193684
-2.87926e-07
1.81042e-07
-1.12354e-06
1.34886e-07
0.000212694
-5.40763e-07
2.33514e-07
0.000212778
5.2684e-07
5.63972e-08
0.000212921
-6.27994e-08
-1.45292e-08
0.000212777
-2.68507e-07
4.39223e-08
0.000212593
-8.76176e-07
1.71164e-07
0.000212586
2.69715e-08
1.788e-07
0.000212821
7.98226e-07
2.11148e-07
0.000212971
6.2193e-07
-1.18164e-07
0.000212899
-3.32785e-07
-5.12971e-08
0.000212672
-4.45976e-07
8.33644e-08
0.000212675
-4.64072e-07
-2.58831e-08
0.000212829
8.17865e-07
6.71072e-08
0.000212888
-6.07737e-08
1.04997e-07
0.000212832
-2.13619e-07
7.64066e-08
0.000212554
-7.00469e-07
3.22362e-07
0.000212608
-4.89801e-07
1.08524e-07
0.000212757
9.9719e-07
1.62031e-07
0.000212933
7.9499e-08
-5.8053e-08
0.000212817
-9.62239e-08
1.35492e-08
0.00021258
-7.95656e-07
1.76594e-07
0.000212602
1.23307e-08
1.44258e-07
0.000212814
1.10845e-06
2.05522e-07
0.000213008
5.47088e-07
-2.29982e-07
0.000212865
-2.96828e-07
-1.24917e-07
0.000212611
-7.40797e-07
-1.70931e-07
0.000212629
-7.05223e-08
-2.54804e-08
0.000212845
9.41667e-07
-1.53737e-07
0.000212957
2.67966e-07
-1.79464e-07
0.000212909
-3.17063e-07
-1.61963e-07
0.000212621
-8.47349e-07
1.32496e-07
0.000212644
-5.14192e-07
-7.75925e-08
0.000212807
7.8811e-07
-8.00277e-08
0.000212974
7.36994e-08
-2.06103e-07
0.000212891
-3.95458e-07
-1.48472e-07
0.000212622
-8.8878e-07
2.68726e-08
0.000212648
-4.60714e-07
-1.13336e-07
0.00021277
6.23724e-07
1.03979e-07
0.000212973
2.19832e-07
-2.88596e-07
0.000212907
-1.7492e-07
1.75515e-07
-8.22585e-07
1.17704e-08
0.000233874
-4.70335e-07
1.77207e-07
0.000233928
4.31e-07
4.95901e-08
0.00023403
-1.99144e-07
-2.3736e-08
0.000233928
-1.87117e-07
4.4736e-08
0.000233765
-6.30481e-07
8.30503e-08
0.000233773
2.62575e-11
1.08353e-07
0.00023396
5.76674e-07
1.39528e-07
0.000234081
4.06814e-07
-1.19698e-07
0.000234031
-2.99798e-07
-5.17086e-08
0.000233845