/*--------------------------------*- C++ -*----------------------------------*\
  =========                 |
  \\      /  F ield         | OpenFOAM: The Open Source CFD Toolbox
   \\    /   O peration     | Website:  https://openfoam.org
    \\  /    A nd           | Version:  10
     \\/     M anipulation  |
\*---------------------------------------------------------------------------*/
FoamFile
{
    format      ascii;
    class       volScalarField;
    location    "18";
    object      pMean;
}
// * * * * * * * * * * * * * * * * * * * * * * * * * * * * * * * * * * * * * //

dimensions      [0 2 -2 0 0 0 0];

internalField   nonuniform List<scalar> 
25600
(
-5.51528e-05
-1.61952e-05
4.12683e-05
6.978e-05
3.47219e-05
-4.51414e-05
-3.08923e-05
3.0355e-05
6.19069e-05
1.73591e-05
-4.72443e-05
2.22376e-07
5.73597e-05
8.5322e-05
1.30799e-05
-4.53279e-05
-1.27932e-05
2.96915e-05
7.03722e-05
1.91592e-05
-5.95435e-05
-2.50273e-05
4.05838e-05
9.67981e-05
2.17799e-05
-7.09047e-05
-2.97874e-05
3.5048e-05
6.65065e-05
2.23821e-05
-7.68454e-05
-3.37718e-05
3.16788e-05
7.38069e-05
2.34724e-05
-5.42148e-05
-3.08428e-06
3.10339e-05
6.87813e-05
1.03874e-05
-5.40891e-05
-1.63796e-05
4.11753e-05
7.0151e-05
3.54266e-05
-4.40106e-05
-3.0503e-05
3.06888e-05
6.21234e-05
1.83058e-05
-4.65981e-05
2.58031e-07
5.70762e-05
8.59629e-05
1.39586e-05
-4.42998e-05
-1.29231e-05
2.985e-05
7.02167e-05
2.0144e-05
-5.84588e-05
-2.45263e-05
4.0323e-05
9.6905e-05
2.31175e-05
-6.96188e-05
-2.98181e-05
3.49867e-05
6.75024e-05
2.37706e-05
-7.55809e-05
-3.38508e-05
3.16387e-05
7.42491e-05
2.47086e-05
-5.33915e-05
-3.10968e-06
3.11839e-05
6.93319e-05
1.13617e-05
-5.36404e-05
-1.68278e-05
4.1756e-05
7.20595e-05
3.70592e-05
-4.32134e-05
-3.06749e-05
3.1552e-05
6.38941e-05
2.01606e-05
-4.68716e-05
1.5988e-07
5.76087e-05
8.7552e-05
1.57223e-05
-4.37159e-05
-1.33829e-05
3.05639e-05
7.15676e-05
2.2106e-05
-5.79038e-05
-2.46031e-05
4.10147e-05
9.84446e-05
2.53733e-05
-6.8957e-05
-2.9951e-05
3.58696e-05
6.95103e-05
2.56723e-05
-7.53242e-05
-3.39694e-05
3.23806e-05
7.56176e-05
2.68755e-05
-5.33819e-05
-3.21275e-06
3.1972e-05
7.08726e-05
1.32197e-05
-5.25833e-05
-1.63226e-05
4.34474e-05
7.37828e-05
3.85971e-05
-4.20729e-05
-3.0175e-05
3.33454e-05
6.56632e-05
2.1996e-05
-4.67414e-05
2.3942e-07
5.91792e-05
9.07398e-05
1.80623e-05
-4.32037e-05
-1.2582e-05
3.19959e-05
7.30555e-05
2.37279e-05
-5.7389e-05
-2.3275e-05
4.29134e-05
0.000101186
2.67358e-05
-6.84207e-05
-2.94122e-05
3.70923e-05
7.22425e-05
2.77157e-05
-7.4975e-05
-3.46204e-05
3.38023e-05
7.80701e-05
2.88904e-05
-5.31757e-05
-2.83487e-06
3.40707e-05
7.36465e-05
1.54099e-05
-5.04404e-05
-1.56479e-05
4.51828e-05
7.53863e-05
4.00611e-05
-4.11533e-05
-2.69958e-05
3.59518e-05
6.7233e-05
2.40829e-05
-4.58321e-05
9.96489e-07
6.12955e-05
9.16749e-05
2.06863e-05
-4.08081e-05
-1.18168e-05
3.41604e-05
7.52609e-05
2.65028e-05
-5.51617e-05
-2.23217e-05
4.5697e-05
0.000101461
2.89705e-05
-6.53613e-05
-2.76353e-05
3.85289e-05
7.16193e-05
2.86269e-05
-7.17296e-05
-3.16594e-05
3.59051e-05
7.90461e-05
3.05203e-05
-4.98943e-05
-2.45476e-06
3.59092e-05
7.35295e-05
1.72355e-05
-4.61989e-05
-1.3304e-05
4.46609e-05
7.24788e-05
4.03171e-05
-3.84172e-05
-2.6371e-05
3.42567e-05
6.49152e-05
2.5971e-05
-4.28182e-05
2.46894e-06
6.07362e-05
8.99782e-05
2.30831e-05
-3.7385e-05
-9.11695e-06
3.34211e-05
7.30365e-05
2.56153e-05
-5.15538e-05
-1.99931e-05
4.5772e-05
0.000100053
2.75745e-05
-6.30665e-05
-2.56753e-05
3.61313e-05
6.8295e-05
2.82289e-05
-7.04963e-05
-3.24816e-05
3.50751e-05
7.71486e-05
3.08839e-05
-4.85303e-05
1.49751e-06
3.47371e-05
7.16215e-05
1.78793e-05
-4.4069e-05
-1.46969e-05
3.66872e-05
6.72457e-05
3.80795e-05
-3.5608e-05
-2.31828e-05
2.85625e-05
5.49229e-05
2.69833e-05
-4.03579e-05
1.127e-06
5.42447e-05
8.10399e-05
2.48677e-05
-3.4386e-05
-7.76749e-06
2.73539e-05
6.6165e-05
2.51927e-05
-5.06861e-05
-1.87037e-05
4.07981e-05
8.74076e-05
2.76777e-05
-5.91911e-05
-2.57055e-05
2.53324e-05
5.7156e-05
2.74096e-05
-6.74484e-05
-2.95148e-05
2.77576e-05
7.00493e-05
3.25639e-05
-4.79185e-05
-2.05989e-06
2.8349e-05
6.40729e-05
1.73514e-05
-3.82765e-05
-1.65183e-05
2.31566e-05
4.91592e-05
3.35784e-05
-3.15767e-05
-2.36267e-05
1.53266e-05
3.92413e-05
2.50833e-05
-3.48666e-05
-9.60127e-08
4.15884e-05
6.33576e-05
2.33797e-05
-2.87959e-05
-8.56455e-06
1.49915e-05
4.95549e-05
2.13969e-05
-4.78447e-05
-1.73178e-05
2.78713e-05
6.72622e-05
2.19159e-05
-5.45122e-05
-2.92805e-05
9.39828e-06
3.91814e-05
2.39459e-05
-6.15798e-05
-3.20247e-05
1.59507e-05
5.61072e-05
2.80023e-05
-4.36462e-05
-4.26942e-06
1.44406e-05
4.69649e-05
1.62373e-05
-3.06422e-05
-1.96948e-05
5.9592e-06
2.99015e-05
2.41469e-05
-2.66496e-05
-2.4853e-05
1.14237e-07
2.09695e-05
1.96313e-05
-2.96377e-05
-6.13641e-06
2.37419e-05
4.53419e-05
1.93291e-05
-2.55643e-05
-1.04298e-05
7.78141e-07
3.02069e-05
1.37441e-05
-4.00934e-05
-1.73655e-05
1.05963e-05
4.29387e-05
1.37496e-05
-4.88236e-05
-3.41948e-05
-9.49407e-06
1.84293e-05
1.59602e-05
-5.41076e-05
-3.15159e-05
7.01719e-07
3.64271e-05
2.15775e-05
-3.86182e-05
-8.95581e-06
-2.77869e-06
2.77378e-05
1.15838e-05
-2.36922e-05
-1.79519e-05
-7.41589e-06
7.10772e-06
1.52725e-05
-2.13426e-05
-2.29096e-05
-1.08422e-05
5.64539e-07
1.19036e-05
-2.33234e-05
-7.68371e-06
8.32925e-06
2.19235e-05
1.16946e-05
-1.95278e-05
-1.00651e-05
-1.23819e-05
6.1212e-06
6.05549e-06
-3.25135e-05
-1.54402e-05
-3.45687e-06
1.85083e-05
3.4542e-06
-4.19146e-05
-3.54801e-05
-2.35343e-05
-4.27859e-06
7.89428e-06
-4.5373e-05
-2.87641e-05
-1.1009e-05
1.53308e-05
1.34903e-05
-3.15289e-05
-1.11347e-05
-1.71145e-05
6.92093e-06
5.14647e-06
-1.71794e-05
-1.59176e-05
-1.39859e-05
-6.21307e-06
5.96992e-06
-1.64404e-05
-1.85011e-05
-1.56223e-05
-1.24205e-05
4.21997e-06
-1.79836e-05
-8.41857e-06
-5.49867e-07
6.84969e-06
3.8048e-06
-1.3927e-05
-7.5783e-06
-1.78062e-05
-7.78937e-06
-1.68242e-06
-2.42446e-05
-1.28778e-05
-1.05185e-05
1.31267e-06
-4.56168e-06
-3.40823e-05
-3.17485e-05
-2.83232e-05
-1.91395e-05
-1.55111e-07
-3.6029e-05
-2.30455e-05
-1.56492e-05
-9.40552e-08
5.04901e-06
-2.4935e-05
-1.03113e-05
-2.30342e-05
-7.56321e-06
-1.79489e-06
-1.22059e-05
-1.15785e-05
-1.35067e-05
-1.05405e-05
1.26268e-06
-1.11469e-05
-1.36609e-05
-1.43683e-05
-1.59168e-05
-1.64167e-07
-1.24864e-05
-5.57049e-06
-2.43807e-06
-6.06323e-07
-4.09162e-07
-8.73467e-06
-4.35971e-06
-1.6581e-05
-1.25551e-05
-4.84214e-06
-1.68088e-05
-9.53022e-06
-1.12011e-05
-4.86528e-06
-7.77335e-06
-2.54885e-05
-2.54372e-05
-2.56621e-05
-2.18217e-05
-3.40435e-06
-2.65567e-05
-1.63573e-05
-1.42272e-05
-5.20751e-06
1.04878e-06
-1.88901e-05
-7.7882e-06
-2.12198e-05
-1.13873e-05
-4.81586e-06
-7.13179e-06
-7.36299e-06
-1.05071e-05
-8.78888e-06
1.29749e-06
-5.61082e-06
-8.67937e-06
-1.08483e-05
-1.34122e-05
-3.59939e-07
-7.1953e-06
-3.04536e-06
-1.53206e-06
8.22646e-08
2.60525e-07
-3.76354e-06
-1.36771e-06
-1.26299e-05
-9.57323e-06
-3.43243e-06
-1.00068e-05
-6.26088e-06
-9.13888e-06
-4.31119e-06
-6.03493e-06
-1.68417e-05
-1.83652e-05
-1.93865e-05
-1.75684e-05
-1.5983e-06
-1.7088e-05
-1.00744e-05
-1.03841e-05
-3.95724e-06
1.43064e-06
-1.28263e-05
-4.67557e-06
-1.63139e-05
-9.11769e-06
-3.5432e-06
-2.81769e-06
-3.52596e-06
-7.19443e-06
-6.10264e-06
2.57189e-06
-1.06691e-06
-4.58089e-06
-7.43718e-06
-9.84384e-06
7.62921e-07
-2.80742e-06
-4.3698e-07
1.21962e-07
1.68933e-06
2.30228e-06
3.46279e-07
1.19978e-06
-8.60931e-06
-6.28398e-06
-1.09175e-06
-4.74562e-06
-3.36893e-06
-6.48366e-06
-2.34159e-06
-3.22443e-06
-9.705e-06
-1.22034e-05
-1.33644e-05
-1.22e-05
1.36075e-06
-9.43856e-06
-5.23372e-06
-6.65743e-06
-1.61366e-06
2.96255e-06
-7.53371e-06
-1.80028e-06
-1.14289e-05
-6.10657e-06
-1.28593e-06
-2.7813e-07
-1.19748e-06
-4.81178e-06
-4.10432e-06
2.74781e-06
1.50725e-06
-1.87146e-06
-4.9604e-06
-7.02782e-06
1.00513e-06
-2.34733e-07
1.02841e-06
1.12272e-06
2.77337e-06
3.0642e-06
2.69531e-06
2.81003e-06
-5.44221e-06
-3.75366e-06
-2.58067e-07
-1.61558e-06
-1.49364e-06
-4.46021e-06
-1.05301e-06
-2.08111e-06
-5.18136e-06
-7.90924e-06
-8.88491e-06
-8.30944e-06
2.40055e-06
-4.61231e-06
-1.97074e-06
-4.11627e-06
-2.42481e-07
3.09772e-06
-4.05591e-06
-2.26453e-08
-7.83431e-06
-4.1441e-06
-3.40988e-07
5.77933e-07
-1.51971e-07
-3.44313e-06
-3.13324e-06
2.08759e-06
2.34131e-06
-4.2434e-07
-3.50659e-06
-5.36949e-06
5.80262e-07
7.63465e-07
1.64824e-06
1.43151e-06
2.77806e-06
2.7359e-06
3.41878e-06
3.33158e-06
-3.35354e-06
-2.56768e-06
-3.86522e-07
-1.77377e-07
-5.48128e-07
-3.25946e-06
-7.50352e-07
-2.04595e-06
-2.82945e-06
-5.24615e-06
-6.0295e-06
-6.1737e-06
2.08906e-06
-2.15343e-06
-3.10084e-07
-2.81688e-06
-6.26844e-08
2.27204e-06
-2.39509e-06
5.51042e-07
-5.64303e-06
-3.30556e-06
-3.95299e-07
6.95794e-07
1.21488e-07
-2.69479e-06
-2.61543e-06
1.27502e-06
2.30573e-06
2.31522e-07
-2.66468e-06
-4.27629e-06
5.38181e-08
9.98913e-07
1.67826e-06
1.28847e-06
2.34285e-06
2.13843e-06
3.38677e-06
3.20876e-06
-2.12264e-06
-1.84439e-06
-6.55744e-07
3.97705e-07
-1.54255e-07
-2.63305e-06
-8.11279e-07
-2.23577e-06
-1.64932e-06
-3.67242e-06
-4.26955e-06
-4.83436e-06
1.40826e-06
-1.04291e-06
4.31405e-07
-2.18664e-06
-3.31287e-07
1.2477e-06
-1.67487e-06
4.7614e-07
-4.31042e-06
-2.98303e-06
-7.19819e-07
5.08487e-07
7.3427e-08
-2.17644e-06
-2.27972e-06
6.1915e-07
1.92346e-06
4.88507e-07
-2.07495e-06
-3.48393e-06
-2.86918e-07
9.12553e-07
1.49133e-06
1.05728e-06
1.82732e-06
1.57293e-06
3.03396e-06
2.79861e-06
-1.28026e-06
-1.38736e-06
-8.18511e-07
5.18255e-07
-1.01661e-08
-2.16448e-06
-9.44136e-07
-2.29945e-06
-1.08235e-06
-2.70753e-06
-3.05318e-06
-3.8808e-06
7.35301e-07
-5.86494e-07
6.7456e-07
-1.80204e-06
-6.80646e-07
3.80571e-07
-1.35856e-06
1.87587e-07
-3.4105e-06
-2.79704e-06
-9.65809e-07
2.77571e-07
-1.0094e-07
-1.74857e-06
-1.97521e-06
1.94019e-07
1.46138e-06
5.10456e-07
-1.58989e-06
-2.82395e-06
-4.49021e-07
7.30218e-07
1.23375e-06
8.44319e-07
1.37287e-06
1.14082e-06
2.60594e-06
2.34439e-06
-6.81029e-07
-1.0001e-06
-8.31072e-07
4.69167e-07
2.23305e-08
-1.75635e-06
-1.02309e-06
-2.19939e-06
-8.07721e-07
-2.09179e-06
-2.18832e-06
-3.14098e-06
2.56332e-07
-4.4289e-07
6.46333e-07
-1.524e-06
-9.49465e-07
-2.50125e-07
-1.2244e-06
-1.32225e-07
-2.72358e-06
-2.58978e-06
-1.07083e-06
8.16151e-08
-3.23075e-07
-1.37709e-06
-1.65144e-06
-9.69753e-08
1.03132e-06
4.01584e-07
-1.18407e-06
-2.23457e-06
-5.13933e-07
5.40592e-07
9.66746e-07
6.68233e-07
1.04875e-06
8.22959e-07
2.19619e-06
1.89754e-06
-2.51242e-07
-6.62987e-07
-7.71725e-07
3.72178e-07
-2.01262e-08
-1.38385e-06
-9.84076e-07
-2.02009e-06
-6.75358e-07
-1.69118e-06
-1.57123e-06
-2.51876e-06
-9.298e-08
-4.47271e-07
4.58007e-07
-1.2914e-06
-1.0761e-06
-6.79128e-07
-1.15415e-06
-4.15882e-07
-2.18192e-06
-2.31928e-06
-1.08062e-06
-6.07829e-08
-5.17778e-07
-1.06245e-06
-1.29766e-06
-3.01017e-07
6.69052e-07
2.51166e-07
-8.55511e-07
-1.69854e-06
-5.18994e-07
3.80681e-07
7.43728e-07
5.28993e-07
8.40823e-07
5.96924e-07
1.81863e-06
1.50983e-06
3.77088e-08
-3.46602e-07
-6.73651e-07
2.7289e-07
-7.01163e-08
-1.05713e-06
-8.61215e-07
-1.81354e-06
-6.05047e-07
-1.40938e-06
-1.15177e-06
-1.98297e-06
-3.44962e-07
-4.94792e-07
2.17676e-07
-1.11701e-06
-1.09111e-06
-9.47402e-07
-1.10276e-06
-6.20221e-07
-1.76406e-06
-2.00323e-06
-1.04819e-06
-1.67444e-07
-6.46433e-07
-8.356e-07
-9.64332e-07
-4.18927e-07
3.78308e-07
1.12058e-07
-6.24332e-07
-1.23798e-06
-4.80616e-07
2.41283e-07
5.66556e-07
4.06065e-07
7.06098e-07
4.39444e-07
1.46517e-06
1.20359e-06
1.91144e-07
-9.52639e-08
-5.47118e-07
1.80513e-07
-9.30615e-08
-8.16007e-07
-7.00882e-07
-1.58407e-06
-5.76104e-07
-1.18984e-06
-8.92789e-07
-1.53776e-06
-5.15636e-07
-5.63001e-07
-1.40864e-08
-1.00332e-06
-1.03416e-06
-1.08197e-06
-1.0647e-06
-7.28875e-07
-1.46257e-06
-1.67901e-06
-9.68775e-07
-2.56071e-07
-7.09105e-07
-6.83152e-07
-6.84082e-07
-4.57595e-07
1.46391e-07
7.50388e-09
-4.64232e-07
-8.66928e-07
-4.06054e-07
1.27345e-07
4.34074e-07
3.02085e-07
6.07535e-07
3.43031e-07
1.12947e-06
9.74018e-07
2.56696e-07
8.86188e-08
-3.99908e-07
8.66478e-08
-9.29056e-08
-6.48172e-07
-5.42345e-07
-1.33937e-06
-5.80083e-07
-1.00823e-06
-7.56755e-07
-1.18784e-06
-6.02292e-07
-6.3128e-07
-2.02987e-07
-9.26072e-07
-9.47144e-07
-1.11247e-06
-1.04392e-06
-7.5323e-07
-1.24953e-06
-1.39834e-06
-8.43663e-07
-3.20595e-07
-7.27048e-07
-5.67603e-07
-4.87107e-07
-4.36954e-07
-2.29169e-08
-6.92403e-08
-3.53262e-07
-5.95918e-07
-3.13375e-07
4.00824e-08
3.29546e-07
2.18711e-07
5.14955e-07
2.9272e-07
8.25539e-07
7.91788e-07
2.71111e-07
1.80118e-07
-2.53504e-07
4.53932e-09
-8.46225e-08
-5.25506e-07
-4.22864e-07
-1.09441e-06
-5.92426e-07
-8.53478e-07
-6.89373e-07
-9.39477e-07
-6.23943e-07
-6.86518e-07
-3.48308e-07
-8.68841e-07
-8.6885e-07
-1.06778e-06
-1.02462e-06
-7.22661e-07
-1.08992e-06
-1.19165e-06
-6.77454e-07
-3.49576e-07
-7.28569e-07
-4.64112e-07
-3.6855e-07
-3.8441e-07
-1.28786e-07
-1.27498e-07
-2.69162e-07
-4.12723e-07
-2.24112e-07
-1.62377e-08
2.43467e-07
1.61608e-07
4.19194e-07
2.68754e-07
5.73624e-07
6.30141e-07
2.62745e-07
1.95997e-07
-1.26353e-07
-4.94914e-08
-8.1106e-08
-4.30034e-07
-3.54813e-07
-8.7064e-07
-5.94402e-07
-7.30839e-07
-6.48019e-07
-7.8471e-07
-6.08704e-07
-7.15211e-07
-4.56887e-07
-8.15683e-07
-8.10089e-07
-9.72623e-07
-9.94053e-07
-6.72363e-07
-9.48664e-07
-1.06526e-06
-5.03646e-07
-3.41551e-07
-7.29825e-07
-3.68414e-07
-3.04645e-07
-3.32809e-07
-1.76533e-07
-1.69764e-07
-2.0751e-07
-2.97121e-07
-1.54496e-07
-4.33822e-08
1.7285e-07
1.26366e-07
3.21199e-07
2.50654e-07
3.84748e-07
4.77295e-07
2.41155e-07
1.65312e-07
-4.17162e-08
-7.54681e-08
-8.78437e-08
-3.53601e-07
-3.22863e-07
-6.82091e-07
-5.77281e-07
-6.40942e-07
-6.10758e-07
-6.95956e-07
-5.81497e-07
-7.11354e-07
-5.32917e-07
-7.59784e-07
-7.67091e-07
-8.64333e-07
-9.44173e-07
-6.2407e-07
-8.15932e-07
-9.97454e-07
-3.58089e-07
-2.94743e-07
-7.33281e-07
-2.88632e-07
-2.66174e-07
-2.98419e-07
-1.81773e-07
-1.96944e-07
-1.66898e-07
-2.21167e-07
-1.09265e-07
-4.95806e-08
1.15288e-07
1.03901e-07
2.32674e-07
2.24167e-07
2.56728e-07
3.38714e-07
2.09456e-07
1.18664e-07
-2.9379e-09
-8.27839e-08
-1.02489e-07
-2.94e-07
-3.07387e-07
-5.40014e-07
-5.43542e-07
-5.8077e-07
-5.7272e-07
-6.43484e-07
-5.5916e-07
-6.81327e-07
-5.80955e-07
-7.05573e-07
-7.30268e-07
-7.63274e-07
-8.74014e-07
-5.84235e-07
-6.96462e-07
-9.60207e-07
-2.50776e-07
-2.35844e-07
-7.36122e-07
-2.29969e-07
-2.3547e-07
-2.83151e-07
-1.66369e-07
-2.05435e-07
-1.42688e-07
-1.69037e-07
-8.38894e-08
-4.35524e-08
7.29e-08
8.72022e-08
1.62075e-07
1.87081e-07
1.77786e-07
2.23686e-07
1.67918e-07
7.59312e-08
2.51215e-09
-8.09209e-08
-1.18733e-07
-2.5168e-07
-2.97958e-07
-4.45148e-07
-4.9747e-07
-5.34561e-07
-5.33906e-07
-6.0278e-07
-5.45389e-07
-6.37238e-07
-5.99547e-07
-6.56927e-07
-6.91651e-07
-6.82903e-07
-7.9409e-07
-5.54999e-07
-5.99853e-07
-9.37869e-07
-1.98136e-07
-1.83984e-07
-7.38003e-07
-2.00752e-07
-2.13954e-07
-2.82666e-07
-1.54129e-07
-2.05009e-07
-1.34716e-07
-1.37207e-07
-7.33647e-08
-3.54555e-08
4.21939e-08
7.06051e-08
1.12066e-07
1.46651e-07
1.31197e-07
1.40304e-07
1.21431e-07
4.31486e-08
-1.06686e-08
-8.01115e-08
-1.30346e-07
-2.25781e-07
-2.88571e-07
-3.86065e-07
-4.51208e-07
-4.95598e-07
-5.00047e-07
-5.639e-07
-5.34886e-07
-5.92387e-07
-5.94938e-07
-6.1412e-07
-6.50466e-07
-6.18466e-07
-7.15339e-07
-5.21257e-07
-5.24722e-07
-8.99509e-07
-1.55943e-07
-8.95594e-08
-7.23448e-07
-1.70884e-07
-1.92245e-07
-2.81604e-07
-1.45206e-07
-1.94114e-07
-1.30075e-07
-1.1494e-07
-6.55174e-08
-2.68849e-08
2.61833e-08
5.81874e-08
8.21817e-08
1.10692e-07
1.04024e-07
8.94295e-08
8.28045e-08
2.26503e-08
-2.47511e-08
-8.01383e-08
-1.35447e-07
-2.07786e-07
-2.75613e-07
-3.47315e-07
-4.09768e-07
-4.60784e-07
-4.70525e-07
-5.25359e-07
-5.184e-07
-5.5168e-07
-5.71455e-07
-5.78428e-07
-6.08367e-07
-5.75609e-07
-6.49636e-07
-5.11854e-07
-4.80487e-07
-9.45754e-07
-1.82622e-07
-1.30546e-07
-7.42401e-07
-1.91201e-07
-2.07206e-07
-3.0146e-07
-1.62061e-07
-1.99088e-07
-1.3955e-07
-1.11543e-07
-6.76558e-08
-2.68991e-08
1.52911e-08
4.86413e-08
6.7139e-08
8.72984e-08
8.79849e-08
6.52611e-08
5.44331e-08
1.00071e-08
-3.63132e-08
-8.27141e-08
-1.37992e-07
-1.97124e-07
-2.60742e-07
-3.21281e-07
-3.76101e-07
-4.27369e-07
-4.46144e-07
-4.88293e-07
-4.96951e-07
-5.15698e-07
-5.41517e-07
-5.40188e-07
-5.69198e-07
-5.30448e-07
-5.98508e-07
-4.64427e-07
-4.47273e-07
-8.5906e-07
-1.24365e-07
4.91409e-07
-7.13325e-07
-1.10113e-07
-2.06796e-07
-3.05483e-07
-1.76338e-07
-2.03108e-07
-1.44585e-07
-1.10889e-07
-6.59525e-08
-2.18779e-08
1.80177e-08
5.17059e-08
6.87417e-08
8.09566e-08
8.61671e-08
6.23223e-08
4.76991e-08
9.88301e-09
-3.21506e-08
-7.75371e-08
-1.34183e-07
-1.8752e-07
-2.48078e-07
-2.99798e-07
-3.47923e-07
-3.967e-07
-4.17433e-07
-4.53293e-07
-4.65001e-07
-4.82116e-07
-5.05199e-07
-5.08894e-07
-5.30115e-07
-5.12976e-07
-5.59568e-07
-5.31591e-07
-4.23441e-07
-1.49989e-06
-2.24897e-07
-8.31943e-05
-8.20146e-05
2.82842e-05
4.46765e-05
-1.56038e-05
-8.4398e-05
-6.49093e-05
2.86512e-05
5.92331e-05
-2.42108e-05
-8.35204e-05
-5.95715e-05
3.06083e-05
5.42952e-05
-3.50956e-05
-8.7175e-05
-6.84382e-05
1.74172e-05
4.23074e-05
-3.52039e-05
-9.32538e-05
-7.93129e-05
2.62024e-05
7.08787e-05
-3.7975e-05
-0.000109428
-8.40162e-05
2.78979e-05
3.96751e-05
-3.25053e-05
-0.000103974
-5.87605e-05
2.87747e-05
6.29785e-05
-1.62343e-05
-8.58783e-05
-7.73855e-05
3.47165e-05
4.29587e-05
-3.55489e-05
-8.38464e-05
-8.28076e-05
2.65356e-05
4.41105e-05
-1.58518e-05
-8.48851e-05
-6.58712e-05
2.70863e-05
5.8239e-05
-2.45654e-05
-8.44906e-05
-6.06539e-05
2.87885e-05
5.37588e-05
-3.51642e-05
-8.77447e-05
-6.92579e-05
1.61878e-05
4.20266e-05
-3.51843e-05
-9.39162e-05
-7.98752e-05
2.45594e-05
7.02232e-05
-3.80959e-05
-0.000110176
-8.52729e-05
2.62135e-05
3.85493e-05
-3.28422e-05
-0.000104846
-5.99764e-05
2.70039e-05
6.19192e-05
-1.68379e-05
-8.68437e-05
-7.85751e-05
3.29601e-05
4.24129e-05
-3.57571e-05
-8.51325e-05
-8.46316e-05
2.4597e-05
4.35302e-05
-1.66935e-05
-8.63236e-05
-6.80264e-05
2.51855e-05
5.8003e-05
-2.52442e-05
-8.6161e-05
-6.23753e-05
2.68155e-05
5.32683e-05
-3.58182e-05
-8.90237e-05
-7.03628e-05
1.44916e-05
4.15299e-05
-3.54444e-05
-9.50909e-05
-8.19083e-05
2.23973e-05
6.99689e-05
-3.88151e-05
-0.000111842
-8.72167e-05
2.44884e-05
3.80507e-05
-3.37772e-05
-0.00010635
-6.24676e-05
2.47451e-05
6.15235e-05
-1.75265e-05
-8.84013e-05
-8.0313e-05
3.10679e-05
4.16376e-05
-3.64733e-05
-8.78245e-05
-8.71465e-05
2.22435e-05
4.22666e-05
-1.80851e-05
-8.76356e-05
-7.02961e-05
2.31106e-05
5.61731e-05
-2.71936e-05
-8.72507e-05
-6.42841e-05
2.46025e-05
5.20578e-05
-3.70306e-05
-9.05927e-05
-7.44008e-05
1.2139e-05
4.0866e-05
-3.69249e-05
-9.74227e-05
-8.30783e-05
2.06987e-05
6.9153e-05
-4.09771e-05
-0.000113638
-9.08258e-05
2.24681e-05
3.71138e-05
-3.53963e-05
-0.000108699
-6.44597e-05
2.27002e-05
5.94349e-05
-1.92222e-05
-9.03285e-05
-8.32685e-05
2.90506e-05
4.14257e-05
-3.83812e-05
-8.80577e-05
-9.01806e-05
1.9476e-05
3.97136e-05
-2.14331e-05
-8.96005e-05
-7.23845e-05
2.01437e-05
5.54748e-05
-2.88891e-05
-8.9232e-05
-6.53485e-05
2.22778e-05
4.99646e-05
-3.99552e-05
-9.14907e-05
-7.4501e-05
9.7631e-06
3.72694e-05
-3.99113e-05
-9.9597e-05
-8.5673e-05
1.77975e-05
6.69199e-05
-4.4739e-05
-0.00011556
-9.2286e-05
1.90167e-05
3.50544e-05
-3.8772e-05
-0.000109984
-6.74162e-05
1.95581e-05
5.85552e-05
-2.14546e-05
-9.13831e-05
-8.30285e-05
2.59345e-05
3.85749e-05
-4.01536e-05
-9.13845e-05
-9.11791e-05
1.6083e-05
3.5351e-05
-2.28833e-05
-8.9623e-05
-7.47639e-05
1.55258e-05
4.82287e-05
-3.23018e-05
-8.96967e-05
-6.81736e-05
1.84157e-05
4.47829e-05
-4.20418e-05
-9.31165e-05
-7.82553e-05
5.52444e-06
3.22971e-05
-4.23607e-05
-9.96574e-05
-8.60308e-05
1.49642e-05
6.18919e-05
-4.94754e-05
-0.000117057
-9.78695e-05
1.58039e-05
3.1383e-05
-4.15102e-05
-0.000112646
-6.95116e-05
1.62121e-05
5.29862e-05
-2.43206e-05
-9.19271e-05
-8.78108e-05
2.22417e-05
3.48529e-05
-4.34027e-05
-8.59857e-05
-9.67694e-05
8.13864e-06
2.65533e-05
-2.75304e-05
-8.73377e-05
-7.61029e-05
6.642e-06
4.03135e-05
-3.31473e-05
-8.69642e-05
-6.94902e-05
1.08952e-05
3.75095e-05
-4.22581e-05
-8.94443e-05
-8.05937e-05
-1.38338e-06
2.38464e-05
-4.54609e-05
-9.6718e-05
-8.87461e-05
6.13426e-06
5.04554e-05
-5.42986e-05
-0.00011489
-0.000100186
7.05288e-06
2.51627e-05
-4.34887e-05
-0.000108165
-7.38042e-05
8.48742e-06
4.68267e-05
-2.51368e-05
-9.0488e-05
-8.78647e-05
1.31999e-05
2.72395e-05
-4.3567e-05
-8.22273e-05
-9.61452e-05
-4.30313e-06
1.59423e-05
-2.71387e-05
-8.04894e-05
-7.98793e-05
-7.0732e-06
2.64376e-05
-3.48354e-05
-7.82647e-05
-6.81636e-05
3.98215e-07
2.65177e-05
-4.17508e-05
-8.18648e-05
-8.0187e-05
-1.23442e-05
1.113e-05
-4.32493e-05
-8.90807e-05
-8.89987e-05
-6.84143e-06
3.24136e-05
-5.74632e-05
-0.000105625
-9.98148e-05
-4.04587e-06
1.39556e-05
-4.39858e-05
-0.000101701
-7.11618e-05
-1.61617e-06
3.51387e-05
-2.67799e-05
-8.15058e-05
-9.07597e-05
-1.10661e-06
1.67997e-05
-4.27085e-05
-6.82037e-05
-9.20566e-05
-1.47553e-05
1.89425e-06
-2.58318e-05
-6.88395e-05
-7.19461e-05
-1.66773e-05
1.07352e-05
-3.29958e-05
-6.58219e-05
-6.291e-05
-8.32822e-06
1.62512e-05
-3.63458e-05
-7.135e-05
-7.56691e-05
-2.12185e-05
1.07486e-06
-4.08238e-05
-7.59808e-05
-8.33405e-05
-1.90591e-05
1.49989e-05
-5.57218e-05
-9.20174e-05
-9.53252e-05
-1.50643e-05
1.23857e-06
-4.24326e-05
-8.87495e-05
-6.63248e-05
-1.00822e-05
2.13443e-05
-2.63899e-05
-7.22291e-05
-8.42161e-05
-1.31993e-05
5.04913e-06
-3.84762e-05
-5.48265e-05
-7.91899e-05
-1.8836e-05
-4.69283e-06
-2.25822e-05
-5.54315e-05
-6.33647e-05
-2.16022e-05
1.91222e-06
-2.83331e-05
-5.22022e-05
-5.35803e-05
-1.13547e-05
9.42944e-06
-3.02205e-05
-5.62183e-05
-6.4836e-05
-2.46399e-05
-6.84901e-06
-3.37504e-05
-6.03696e-05
-7.33239e-05
-2.49438e-05
4.43283e-06
-5.06972e-05
-7.39318e-05
-8.1232e-05
-1.99512e-05
-9.14258e-06
-3.87874e-05
-7.36044e-05
-5.525e-05
-1.34211e-05
1.22346e-05
-2.42819e-05
-5.9307e-05
-7.2893e-05
-1.92766e-05
-2.92576e-06
-3.2855e-05
-4.00617e-05
-6.22155e-05
-1.6706e-05
-7.17798e-06
-1.75499e-05
-4.15362e-05
-4.82283e-05
-1.85767e-05
-1.16941e-06
-2.34018e-05
-3.91998e-05
-4.12415e-05
-8.75579e-06
7.37834e-06
-2.31069e-05
-4.26096e-05
-5.08855e-05
-2.16754e-05
-7.25971e-06
-2.67235e-05
-4.47181e-05
-5.71057e-05
-2.26429e-05
7.93586e-07
-4.22045e-05
-5.72355e-05
-6.48952e-05
-1.82433e-05
-1.18405e-05
-3.24765e-05
-5.79903e-05
-4.14812e-05
-1.14283e-05
7.1213e-06
-1.99396e-05
-4.604e-05
-5.81105e-05
-1.84014e-05
-5.58043e-06
-2.63343e-05
-2.82984e-05
-4.48791e-05
-1.06859e-05
-3.6853e-06
-1.14687e-05
-2.92449e-05
-3.41232e-05
-1.23473e-05
3.08245e-07
-1.67807e-05
-2.80854e-05
-2.97219e-05
-3.81863e-06
8.37925e-06
-1.59824e-05
-2.98779e-05
-3.64851e-05
-1.47435e-05
-4.25537e-06
-1.88984e-05
-3.12206e-05
-4.12947e-05
-1.56646e-05
2.85328e-06
-3.1839e-05
-4.13456e-05
-4.77506e-05
-1.24742e-05
-9.0282e-06
-2.41469e-05
-4.31555e-05
-2.87661e-05
-6.31341e-06
8.1515e-06
-1.39515e-05
-3.41767e-05
-4.31807e-05
-1.35455e-05
-2.97198e-06
-1.92221e-05
-1.86906e-05
-3.02433e-05
-4.97537e-06
-3.8713e-07
-6.25076e-06
-1.98999e-05
-2.17374e-05
-6.39555e-06
3.33272e-06
-1.07867e-05
-1.89961e-05
-1.96792e-05
1.44401e-07
9.58276e-06
-1.00592e-05
-2.04972e-05
-2.45097e-05
-8.36532e-06
1.02386e-07
-1.22962e-05
-2.11319e-05
-2.73856e-05
-8.80364e-06
6.13613e-06
-2.22328e-05
-2.95426e-05
-3.40336e-05
-7.23598e-06
-4.58778e-06
-1.58609e-05
-3.10879e-05
-1.79411e-05
-1.60528e-06
9.45864e-06
-8.27548e-06
-2.37045e-05
-3.02667e-05
-8.50099e-06
-1.61681e-08
-1.30376e-05
-1.22772e-05
-1.98062e-05
-1.42945e-06
1.44687e-06
-2.6857e-06
-1.345e-05
-1.36571e-05
-2.74345e-06
4.54162e-06
-6.30069e-06
-1.25615e-05
-1.24608e-05
2.40128e-06
9.59877e-06
-5.81819e-06
-1.3519e-05
-1.58126e-05
-4.09407e-06
2.20795e-06
-7.6631e-06
-1.42221e-05
-1.74962e-05
-4.10825e-06
7.66399e-06
-1.48598e-05
-2.0765e-05
-2.40715e-05
-3.81183e-06
-1.96069e-06
-9.92239e-06
-2.23226e-05
-1.0782e-05
1.01092e-06
9.97609e-06
-4.19481e-06
-1.6202e-05
-2.04472e-05
-5.0711e-06
1.64756e-06
-8.4047e-06
-7.96146e-06
-1.29152e-05
1.45931e-07
1.69273e-06
-7.53359e-07
-9.22582e-06
-8.56996e-06
-1.17508e-06
4.26837e-06
-3.62672e-06
-8.352e-06
-7.82948e-06
2.95257e-06
8.37974e-06
-3.05555e-06
-8.78436e-06
-1.00849e-05
-1.96302e-06
2.75154e-06
-4.57908e-06
-9.57872e-06
-1.10027e-05
-1.711e-06
7.41469e-06
-9.89247e-06
-1.48186e-05
-1.74062e-05
-2.2629e-06
-1.17182e-06
-6.20111e-06
-1.62625e-05
-6.39722e-06
1.86204e-06
8.7043e-06
-2.03098e-06
-1.11721e-05
-1.37357e-05
-3.37837e-06
1.77105e-06
-5.4838e-06
-5.26746e-06
-8.50452e-06
6.69853e-07
1.35737e-06
1.50902e-07
-6.29574e-06
-5.56784e-06
-7.03098e-07
3.17235e-06
-2.17733e-06
-5.68199e-06
-5.09391e-06
2.67925e-06
6.67139e-06
-1.4933e-06
-5.51541e-06
-6.44218e-06
-9.56323e-07
2.40794e-06
-2.70779e-06
-6.4062e-06
-6.87484e-06
-6.64126e-07
6.22149e-06
-6.68384e-06
-1.04666e-05
-1.28024e-05
-1.60804e-06
-1.22458e-06
-4.07734e-06
-1.19599e-05
-3.94198e-06
1.69357e-06
6.87737e-06
-9.67349e-07
-7.92895e-06
-9.3713e-06
-2.6705e-06
1.23905e-06
-3.65733e-06
-3.45335e-06
-5.58012e-06
8.12758e-07
8.63725e-07
4.88541e-07
-4.26865e-06
-3.61199e-06
-5.85529e-07
2.0195e-06
-1.42055e-06
-3.92247e-06
-3.34631e-06
2.19131e-06
5.05164e-06
-6.65854e-07
-3.33439e-06
-4.05898e-06
-4.49612e-07
1.83845e-06
-1.55631e-06
-4.16249e-06
-4.15492e-06
-1.83428e-07
4.81176e-06
-4.64601e-06
-7.35204e-06
-9.47483e-06
-1.32829e-06
-1.51529e-06
-2.83878e-06
-8.7817e-06
-2.5018e-06
1.29818e-06
4.99817e-06
-6.19981e-07
-5.75593e-06
-6.43912e-06
-2.28938e-06
5.13496e-07
-2.59286e-06
-2.26246e-06
-3.69106e-06
7.64393e-07
4.81022e-07
5.37018e-07
-2.84657e-06
-2.36559e-06
-5.61813e-07
1.04243e-06
-9.93434e-07
-2.72838e-06
-2.23987e-06
1.69462e-06
3.70463e-06
-2.43746e-07
-1.85084e-06
-2.51677e-06
-1.88192e-07
1.28992e-06
-8.53241e-07
-2.59184e-06
-2.41936e-06
3.55046e-08
3.54624e-06
-3.33563e-06
-5.0721e-06
-7.01484e-06
-1.18941e-06
-1.74281e-06
-2.12552e-06
-6.45266e-06
-1.70954e-06
8.15412e-07
3.38455e-06
-5.18508e-07
-4.25289e-06
-4.50281e-06
-2.02461e-06
-1.15724e-07
-1.90748e-06
-1.45442e-06
-2.49736e-06
6.62724e-07
2.37726e-07
4.50802e-07
-1.86316e-06
-1.56854e-06
-5.20881e-07
3.78781e-07
-7.29506e-07
-1.89632e-06
-1.5353e-06
1.26698e-06
2.71434e-06
-1.6346e-08
-8.8613e-07
-1.53497e-06
-4.84642e-08
8.90366e-07
-4.03847e-07
-1.49799e-06
-1.33372e-06
1.35702e-07
2.52545e-06
-2.45248e-06
-3.45975e-06
-5.21291e-06
-1.12743e-06
-1.81475e-06
-1.69639e-06
-4.7501e-06
-1.29438e-06
3.82688e-07
2.11693e-06
-5.83827e-07
-3.20151e-06
-3.24685e-06
-1.78941e-06
-5.63009e-07
-1.48145e-06
-9.16082e-07
-1.77506e-06
5.10141e-07
1.25859e-07
3.14734e-07
-1.17027e-06
-1.0868e-06
-4.74382e-07
-1.5232e-08
-5.57046e-07
-1.30169e-06
-1.08448e-06
9.13196e-07
2.02544e-06
8.17795e-08
-2.76826e-07
-9.01297e-07
8.57235e-10
6.33051e-07
-1.40165e-07
-7.61241e-07
-6.75508e-07
1.45189e-07
1.7654e-06
-1.83924e-06
-2.32351e-06
-3.9004e-06
-1.09919e-06
-1.73812e-06
-1.44193e-06
-3.50246e-06
-1.10307e-06
-6.85688e-09
1.18172e-06
-6.87083e-07
-2.43905e-06
-2.44226e-06
-1.58511e-06
-8.16707e-07
-1.19675e-06
-5.63041e-07
-1.32545e-06
3.31397e-07
9.44981e-08
1.8081e-07
-6.97824e-07
-7.85008e-07
-4.36673e-07
-2.02624e-07
-4.29396e-07
-8.74492e-07
-7.77748e-07
6.22925e-07
1.54256e-06
1.3212e-07
8.11958e-08
-4.88733e-07
-8.35641e-09
4.78328e-07
1.03001e-08
-2.82901e-07
-2.85246e-07
9.1878e-08
1.22155e-06
-1.39819e-06
-1.55701e-06
-2.92741e-06
-1.08964e-06
-1.56721e-06
-1.26642e-06
-2.60797e-06
-1.00899e-06
-3.39051e-07
5.2764e-07
-7.93146e-07
-1.89716e-06
-1.90169e-06
-1.4323e-06
-9.17732e-07
-9.95638e-07
-3.56821e-07
-1.02723e-06
1.41369e-07
9.83671e-08
7.24962e-08
-3.97473e-07
-5.72447e-07
-4.1515e-07
-2.66688e-07
-3.28552e-07
-5.72108e-07
-5.38037e-07
3.85213e-07
1.19106e-06
1.61693e-07
2.60054e-07
-2.01926e-07
-3.77781e-08
3.74773e-07
9.19393e-08
-1.26093e-08
-6.43351e-08
9.2501e-09
8.32397e-07
-1.06983e-06
-1.06713e-06
-2.18993e-06
-1.0771e-06
-1.36395e-06
-1.13185e-06
-1.98821e-06
-9.48462e-07
-6.03611e-07
7.61381e-08
-8.61988e-07
-1.51724e-06
-1.51137e-06
-1.32768e-06
-9.31081e-07
-8.26838e-07
-2.60097e-07
-8.2155e-07
-1.2777e-08
9.40764e-08
7.45691e-09
-2.28054e-07
-4.16139e-07
-3.84253e-07
-2.68795e-07
-2.43091e-07
-3.70977e-07
-3.49488e-07
2.11079e-07
9.18584e-07
1.93077e-07
3.1901e-07
-1.05029e-08
-6.27764e-08
2.8562e-07
1.31164e-07
1.10013e-07
5.56314e-08
-6.47793e-08
5.35086e-07
-8.22721e-07
-7.76263e-07
-1.62948e-06
-1.04158e-06
-1.17999e-06
-1.00971e-06
-1.5702e-06
-8.87375e-07
-7.81559e-07
-2.43623e-07
-8.80533e-07
-1.26456e-06
-1.20945e-06
-1.23628e-06
-9.18954e-07
-6.66751e-07
-2.32491e-07
-6.89643e-07
-1.10623e-07
5.95254e-08
-2.57957e-08
-1.42749e-07
-2.98147e-07
-3.3541e-07
-2.52389e-07
-1.7411e-07
-2.42645e-07
-2.0014e-07
1.01516e-07
6.93811e-07
2.22015e-07
3.03615e-07
1.05247e-07
-6.40287e-08
1.98508e-07
1.45489e-07
1.34086e-07
1.03242e-07
-1.16949e-07
3.02198e-07
-6.3176e-07
-6.18518e-07
-1.21549e-06
-9.7365e-07
-1.0322e-06
-8.96292e-07
-1.29114e-06
-8.31968e-07
-8.72012e-07
-4.70706e-07
-8.5831e-07
-1.10045e-06
-9.69947e-07
-1.13003e-06
-9.18885e-07
-5.12441e-07
-2.27112e-07
-6.23899e-07
-1.49146e-07
5.00264e-09
-4.58349e-08
-1.00867e-07
-2.1908e-07
-2.67873e-07
-2.28491e-07
-1.212e-07
-1.6036e-07
-9.20804e-08
4.8769e-08
5.04447e-07
2.39175e-07
2.54359e-07
1.60053e-07
-4.17297e-08
1.17733e-07
1.38813e-07
1.07434e-07
9.79694e-08
-1.44327e-07
1.17633e-07
-4.92685e-07
-5.34682e-07
-9.24939e-07
-8.76092e-07
-9.20235e-07
-7.97507e-07
-1.09445e-06
-7.88556e-07
-8.8313e-07
-6.19367e-07
-8.13649e-07
-9.90645e-07
-7.90077e-07
-9.99693e-07
-9.34628e-07
-3.73916e-07
-2.16131e-07
-6.11803e-07
-1.48609e-07
-5.0823e-08
-7.11915e-08
-7.65691e-08
-1.74133e-07
-1.9709e-07
-1.97698e-07
-8.68165e-08
-1.06512e-07
-2.41033e-08
3.41484e-08
3.49227e-07
2.37164e-07
2.00874e-07
1.67464e-07
-2.88267e-09
5.2962e-08
1.12012e-07
6.41335e-08
5.72896e-08
-1.54369e-07
-2.06313e-08
-3.98724e-07
-4.83871e-07
-7.30072e-07
-7.65637e-07
-8.29781e-07
-7.19331e-07
-9.44206e-07
-7.55713e-07
-8.44698e-07
-7.01458e-07
-7.61199e-07
-9.06721e-07
-6.68554e-07
-8.51663e-07
-9.48539e-07
-2.69015e-07
-1.88915e-07
-6.27472e-07
-1.32617e-07
-9.13958e-08
-1.0831e-07
-6.30087e-08
-1.51298e-07
-1.39808e-07
-1.63775e-07
-6.52803e-08
-6.72016e-08
1.21048e-08
3.85696e-08