/*--------------------------------*- C++ -*----------------------------------*\
  =========                 |
  \\      /  F ield         | OpenFOAM: The Open Source CFD Toolbox
   \\    /   O peration     | Website:  https://openfoam.org
    \\  /    A nd           | Version:  10
     \\/     M anipulation  |
\*---------------------------------------------------------------------------*/
FoamFile
{
    format      ascii;
    class       volScalarField;
    location    "4";
    object      nut;
}
// * * * * * * * * * * * * * * * * * * * * * * * * * * * * * * * * * * * * * //

dimensions      [0 2 -1 0 0 0 0];

internalField   nonuniform List<scalar> 
25600
(
6.11192e-06
6.11021e-06
6.10787e-06
6.10869e-06
6.10451e-06
6.10467e-06
6.10741e-06
6.10873e-06
6.10926e-06
6.10957e-06
6.10806e-06
6.10908e-06
6.10946e-06
6.10955e-06
6.10931e-06
6.10812e-06
6.10882e-06
6.10962e-06
6.11021e-06
6.11032e-06
6.10998e-06
6.10931e-06
6.11028e-06
6.11039e-06
6.11011e-06
6.10794e-06
6.10899e-06
6.1078e-06
6.11024e-06
6.109e-06
6.10923e-06
6.11063e-06
6.10669e-06
6.11324e-06
6.11154e-06
6.10675e-06
6.11931e-06
6.10299e-06
6.11886e-06
6.10933e-06
4.40001e-06
4.39948e-06
4.40533e-06
4.40946e-06
4.40684e-06
4.40244e-06
4.40305e-06
4.40263e-06
4.40296e-06
4.40392e-06
4.40062e-06
4.40091e-06
4.40095e-06
4.40163e-06
4.40262e-06
4.40007e-06
4.40062e-06
4.40242e-06
4.4045e-06
4.40516e-06
4.40374e-06
4.40255e-06
4.40406e-06
4.40581e-06
4.40519e-06
4.4032e-06
4.40242e-06
4.40229e-06
4.406e-06
4.40437e-06
4.40488e-06
4.40476e-06
4.39907e-06
4.41108e-06
4.40128e-06
4.40524e-06
4.40896e-06
4.39267e-06
4.41528e-06
4.40503e-06
3.6258e-06
3.62767e-06
3.6365e-06
3.63968e-06
3.63674e-06
3.63003e-06
3.63377e-06
3.63195e-06
3.63243e-06
3.63093e-06
3.628e-06
3.63078e-06
3.63132e-06
3.63323e-06
3.63317e-06
3.62943e-06
3.6309e-06
3.63314e-06
3.63599e-06
3.63443e-06
3.63274e-06
3.63259e-06
3.63445e-06
3.63651e-06
3.63305e-06
3.63144e-06
3.63108e-06
3.6326e-06
3.63409e-06
3.63109e-06
3.63263e-06
3.63171e-06
3.62845e-06
3.64107e-06
3.62809e-06
3.63578e-06
3.63671e-06
3.6212e-06
3.64659e-06
3.63467e-06
3.18777e-06
3.18919e-06
3.19976e-06
3.20022e-06
3.19878e-06
3.18932e-06
3.19649e-06
3.19496e-06
3.19568e-06
3.19138e-06
3.18733e-06
3.19135e-06
3.19299e-06
3.19702e-06
3.19636e-06
3.18966e-06
3.19092e-06
3.19511e-06
3.20047e-06
3.19751e-06
3.19479e-06
3.1934e-06
3.19749e-06
3.20163e-06
3.19459e-06
3.19348e-06
3.19191e-06
3.19657e-06
3.19709e-06
3.1923e-06
3.19562e-06
3.19068e-06
3.19224e-06
3.20277e-06
3.19223e-06
3.19604e-06
3.19746e-06
3.18479e-06
3.20751e-06
3.19667e-06
2.80404e-06
2.80401e-06
2.81877e-06
2.81623e-06
2.81626e-06
2.80333e-06
2.81443e-06
2.81431e-06
2.81528e-06
2.80697e-06
2.80115e-06
2.80608e-06
2.80985e-06
2.81715e-06
2.8164e-06
2.80533e-06
2.80454e-06
2.812e-06
2.8215e-06
2.81647e-06
2.81233e-06
2.80786e-06
2.81657e-06
2.82372e-06
2.81082e-06
2.81068e-06
2.80698e-06
2.81671e-06
2.81582e-06
2.80887e-06
2.8145e-06
2.8029e-06
2.81237e-06
2.82051e-06
2.81179e-06
2.81075e-06
2.81236e-06
2.80355e-06
2.82422e-06
2.81351e-06
2.46641e-06
2.46282e-06
2.48434e-06
2.47796e-06
2.47926e-06
2.46242e-06
2.47736e-06
2.48079e-06
2.48181e-06
2.46762e-06
2.4607e-06
2.46467e-06
2.47167e-06
2.48431e-06
2.48371e-06
2.46665e-06
2.46115e-06
2.47463e-06
2.49061e-06
2.48226e-06
2.47595e-06
2.46522e-06
2.4828e-06
2.49422e-06
2.47177e-06
2.47382e-06
2.46614e-06
2.4839e-06
2.48107e-06
2.47127e-06
2.48019e-06
2.45791e-06
2.47917e-06
2.48562e-06
2.47712e-06
2.47006e-06
2.47202e-06
2.47016e-06
2.48677e-06
2.47433e-06
2.16998e-06
2.16002e-06
2.19296e-06
2.18154e-06
2.18282e-06
2.16225e-06
2.17954e-06
2.19164e-06
2.19181e-06
2.16859e-06
2.16098e-06
2.16135e-06
2.17502e-06
2.19512e-06
2.19414e-06
2.16733e-06
2.15441e-06
2.17921e-06
2.20373e-06
2.19112e-06
2.18095e-06
2.1591e-06
2.19264e-06
2.20992e-06
2.17236e-06
2.17806e-06
2.16421e-06
2.19505e-06
2.1891e-06
2.17476e-06
2.18829e-06
2.15001e-06
2.18851e-06
2.19541e-06
2.18359e-06
2.16832e-06
2.17138e-06
2.18128e-06
2.19153e-06
2.17434e-06
1.90971e-06
1.89061e-06
1.94322e-06
1.92549e-06
1.92298e-06
1.89837e-06
1.91613e-06
1.94495e-06
1.94334e-06
1.907e-06
1.89821e-06
1.8908e-06
1.91771e-06
1.94709e-06
1.94491e-06
1.90178e-06
1.87845e-06
1.92425e-06
1.95984e-06
1.93985e-06
1.92328e-06
1.88393e-06
1.94521e-06
1.96948e-06
1.90893e-06
1.91863e-06
1.89772e-06
1.95007e-06
1.93856e-06
1.91675e-06
1.93338e-06
1.87554e-06
1.94092e-06
1.94984e-06
1.92826e-06
1.90019e-06
1.90505e-06
1.93444e-06
1.93512e-06
1.90927e-06
1.6806e-06
1.65167e-06
1.73836e-06
1.71258e-06
1.6976e-06
1.66478e-06
1.6841e-06
1.74424e-06
1.73849e-06
1.682e-06
1.66838e-06
1.64979e-06
1.69994e-06
1.74014e-06
1.73542e-06
1.66597e-06
1.63001e-06
1.71272e-06
1.76168e-06
1.7296e-06
1.69805e-06
1.63331e-06
1.74357e-06
1.77568e-06
1.68013e-06
1.69129e-06
1.66495e-06
1.75512e-06
1.73308e-06
1.69398e-06
1.71059e-06
1.63167e-06
1.74232e-06
1.75311e-06
1.70927e-06
1.66026e-06
1.66876e-06
1.73229e-06
1.72e-06
1.67644e-06
1.47765e-06
1.44199e-06
1.59051e-06
1.5531e-06
1.50772e-06
1.45612e-06
1.48784e-06
1.60058e-06
1.58443e-06
1.49636e-06
1.46755e-06
1.43785e-06
1.52865e-06
1.57915e-06
1.56661e-06
1.4543e-06
1.4098e-06
1.55891e-06
1.61767e-06
1.56512e-06
1.50127e-06
1.40811e-06
1.59683e-06
1.63693e-06
1.48706e-06
1.49121e-06
1.46737e-06
1.62589e-06
1.58423e-06
1.50564e-06
1.51336e-06
1.41728e-06
1.60964e-06
1.61614e-06
1.53e-06
1.43979e-06
1.4636e-06
1.58688e-06
1.55487e-06
1.47799e-06
1.29404e-06
1.26993e-06
1.52366e-06
1.46763e-06
1.36414e-06
1.26453e-06
1.3488e-06
1.53776e-06
1.50237e-06
1.36152e-06
1.28812e-06
1.26352e-06
1.42491e-06
1.47397e-06
1.44789e-06
1.26093e-06
1.23274e-06
1.49399e-06
1.54843e-06
1.46095e-06
1.32512e-06
1.21688e-06
1.52518e-06
1.57283e-06
1.34298e-06
1.31078e-06
1.3204e-06
1.59354e-06
1.51663e-06
1.35836e-06
1.33362e-06
1.24131e-06
1.57826e-06
1.56338e-06
1.40689e-06
1.2314e-06
1.30171e-06
1.52556e-06
1.46317e-06
1.32989e-06
1.12726e-06
1.17308e-06
1.57573e-06
1.49873e-06
1.30009e-06
1.08572e-06
1.33189e-06
1.59343e-06
1.53353e-06
1.31065e-06
1.1225e-06
1.16967e-06
1.43426e-06
1.4515e-06
1.40755e-06
1.09055e-06
1.16184e-06
1.56293e-06
1.5905e-06
1.45695e-06
1.16586e-06
1.1003e-06
1.55982e-06
1.62162e-06
1.29025e-06
1.15346e-06
1.28147e-06
1.69593e-06
1.57697e-06
1.27908e-06
1.17101e-06
1.14175e-06
1.70253e-06
1.64495e-06
1.38592e-06
1.03226e-06
1.24015e-06
1.59506e-06
1.49692e-06
1.28516e-06
1.01176e-06
1.25854e-06
1.78805e-06
1.70992e-06
1.39024e-06
9.46408e-07
1.57485e-06
1.8219e-06
1.7433e-06
1.41931e-06
9.84162e-07
1.28018e-06
1.62534e-06
1.57449e-06
1.51686e-06
9.89407e-07
1.34894e-06
1.81051e-06
1.81325e-06
1.63607e-06
1.05761e-06
1.17809e-06
1.73943e-06
1.84754e-06
1.42919e-06
1.06332e-06
1.47611e-06
1.974e-06
1.82986e-06
1.34458e-06
1.05938e-06
1.22703e-06
2.03338e-06
1.92565e-06
1.56185e-06
8.86793e-07
1.41028e-06
1.86519e-06
1.73118e-06
1.46013e-06
1.07279e-06
1.69715e-06
2.22039e-06
2.18227e-06
1.75145e-06
9.83454e-07
2.24278e-06
2.28138e-06
2.21524e-06
1.81303e-06
9.52651e-07
1.76548e-06
2.07628e-06
1.93139e-06
1.89621e-06
1.10892e-06
1.97305e-06
2.27671e-06
2.29305e-06
2.11188e-06
1.13143e-06
1.63761e-06
2.11394e-06
2.31864e-06
1.90456e-06
1.18342e-06
2.07563e-06
2.46735e-06
2.34902e-06
1.68603e-06
1.12335e-06
1.68838e-06
2.60773e-06
2.47936e-06
2.05581e-06
9.60579e-07
1.99366e-06
2.39577e-06
2.25028e-06
1.99633e-06
1.48184e-06
2.63121e-06
2.90269e-06
2.98277e-06
2.50403e-06
1.41153e-06
3.47407e-06
3.03218e-06
3.02076e-06
2.61888e-06
1.20572e-06
2.76227e-06
2.86368e-06
2.61553e-06
2.6782e-06
1.60761e-06
3.1489e-06
3.00773e-06
3.09765e-06
2.99562e-06
1.55333e-06
2.60684e-06
2.76101e-06
3.10848e-06
2.84201e-06
1.67467e-06
3.22106e-06
3.2146e-06
3.20417e-06
2.42569e-06
1.52728e-06
2.68827e-06
3.45753e-06
3.37217e-06
2.97202e-06
1.41976e-06
3.11352e-06
3.24507e-06
3.12102e-06
3.00637e-06
2.1533e-06
4.17733e-06
3.93128e-06
4.1584e-06
3.74932e-06
2.22695e-06
5.41787e-06
4.14696e-06
4.21735e-06
3.96018e-06
1.76891e-06
4.39371e-06
4.09194e-06
3.70501e-06
3.98774e-06
2.44465e-06
4.98775e-06
4.08861e-06
4.275e-06
4.40354e-06
2.29102e-06
4.20088e-06
3.80256e-06
4.25786e-06
4.3754e-06
2.53547e-06
5.07429e-06
4.29728e-06
4.41884e-06
3.67158e-06
2.30992e-06
4.34415e-06
4.64796e-06
4.65539e-06
4.41759e-06
2.177e-06
4.92674e-06
4.49233e-06
4.37479e-06
4.59117e-06
2.71835e-06
6.48949e-06
5.80126e-06
5.71409e-06
5.59377e-06
3.24834e-06
8.18821e-06
6.00183e-06
5.69092e-06
5.97241e-06
2.31243e-06
6.78505e-06
6.21614e-06
5.19023e-06
5.97575e-06
3.44821e-06
7.58569e-06
5.90446e-06
5.79728e-06
6.44146e-06
3.02335e-06
6.50913e-06
5.68303e-06
5.77093e-06
6.69323e-06
3.56389e-06
7.84321e-06
6.17364e-06
5.82452e-06
5.53242e-06
3.37617e-06
6.7612e-06
6.59264e-06
6.21374e-06
6.55682e-06
2.94313e-06
7.64287e-06
6.63748e-06
5.95095e-06
6.88888e-06
4.99965e-06
9.97031e-06
9.76725e-06
7.3848e-06
8.06004e-06
5.41233e-06
1.16615e-05
9.64283e-06
7.08717e-06
8.66002e-06
3.86572e-06
1.00814e-05
1.01778e-05
6.90118e-06
8.76349e-06
5.68319e-06
1.09124e-05
9.41168e-06
7.31104e-06
9.0565e-06
5.21717e-06
9.76522e-06
9.49121e-06
7.55092e-06
9.89816e-06
5.47226e-06
1.14417e-05
1.01256e-05
6.89586e-06
8.02204e-06
5.93149e-06
9.75596e-06
1.04461e-05
7.60774e-06
9.42368e-06
4.54959e-06
1.13486e-05
1.06939e-05
7.60279e-06
9.8884e-06
1.42854e-05
1.44223e-05
1.46586e-05
7.63626e-06
1.06548e-05
1.34923e-05
1.54819e-05
1.43339e-05
6.79593e-06
1.12802e-05
1.21237e-05
1.41659e-05
1.50701e-05
7.80084e-06
1.19774e-05
1.3517e-05
1.47946e-05
1.36456e-05
7.15231e-06
1.12746e-05
1.41428e-05
1.40813e-05
1.46973e-05
8.27106e-06
1.31614e-05
1.28376e-05
1.50271e-05
1.50243e-05
5.67552e-06
1.06732e-05
1.40837e-05
1.2808e-05
1.51224e-05
6.96047e-06
1.2366e-05
1.20348e-05
1.48242e-05
1.5228e-05
8.37466e-06
1.2768e-05
2.57385e-05
1.55872e-05
1.2671e-05
8.7026e-06
1.27234e-05
2.50028e-05
1.72465e-05
1.29195e-05
8.20056e-06
1.30252e-05
2.39197e-05
1.60842e-05
1.37616e-05
9.76238e-06
1.49723e-05
2.41957e-05
1.66252e-05
1.22218e-05
8.60042e-06
1.22551e-05
2.57087e-05
1.56013e-05
1.45394e-05
6.65281e-06
1.47188e-05
2.4406e-05
1.63283e-05
1.41752e-05
8.04666e-06
1.31704e-05
2.47346e-05
1.47487e-05
1.39753e-05
7.43897e-06
1.40294e-05
2.3773e-05
1.50354e-05
1.35718e-05
1.14318e-05
1.45171e-05
2.91168e-05
1.20051e-05
2.25993e-05
2.19816e-05
1.53008e-05
2.90428e-05
1.15504e-05
2.16859e-05
2.16404e-05
1.61784e-05
2.89712e-05
1.25619e-05
1.9277e-05
2.12101e-05
1.79891e-05
2.76048e-05
1.13219e-05
2.26843e-05
2.17606e-05
1.55164e-05
2.95854e-05
1.17933e-05
1.68915e-05
1.82532e-05
1.54253e-05
2.9485e-05
1.19275e-05
2.33859e-05
2.4175e-05
1.64594e-05
2.76421e-05
1.16648e-05
2.38665e-05
2.21058e-05
1.54007e-05
2.91451e-05
1.32206e-05
2.40214e-05
2.34564e-05
1.68428e-05
3.11153e-05
2.87103e-05
4.5593e-05
3.24622e-05
2.31329e-05
3.03535e-05
2.50202e-05
4.47197e-05
3.09101e-05
2.53899e-05
3.26532e-05
2.61735e-05
4.19341e-05
3.04075e-05
2.39995e-05
2.82239e-05
2.56407e-05
4.45308e-05
3.06406e-05
2.4681e-05
3.24202e-05
2.84813e-05
3.90743e-05
3.23913e-05
2.09457e-05
2.84254e-05
2.37697e-05
4.32956e-05
3.46471e-05
2.5161e-05
3.10084e-05
2.30459e-05
4.51103e-05
3.35977e-05
2.3092e-05
2.9182e-05
2.70126e-05
4.61503e-05
3.17792e-05
2.31138e-05
4.3516e-05
4.74393e-05
5.55239e-05
3.05535e-05
3.89496e-05
4.42518e-05
4.66845e-05
5.52561e-05
2.88329e-05
4.18097e-05
4.55888e-05
4.53339e-05
5.40651e-05
2.72824e-05
3.71122e-05
4.19683e-05
4.68262e-05
5.40781e-05
2.79597e-05
4.0138e-05
4.56899e-05
4.73837e-05
5.27903e-05
3.37419e-05
3.36565e-05
3.95902e-05
4.40174e-05
5.20516e-05
3.22134e-05
4.1943e-05
4.5931e-05
4.29102e-05
5.45601e-05
3.22454e-05
3.80581e-05
4.15905e-05
4.54246e-05
5.60283e-05
2.77874e-05
3.71165e-05
5.20787e-05
5.91572e-05
5.28064e-05
3.25013e-05
5.34141e-05
5.35371e-05
6.05386e-05
5.24e-05
3.3786e-05
5.53096e-05
5.32967e-05
5.82847e-05
5.31663e-05
2.76382e-05
5.0869e-05
5.25894e-05
6.01729e-05
5.06334e-05
3.29415e-05
5.40701e-05
5.39843e-05
5.87172e-05
5.4118e-05
3.16044e-05
4.76586e-05
5.09179e-05
5.78823e-05
4.97433e-05
3.6196e-05
5.57955e-05
5.46026e-05
5.66046e-05
5.25262e-05
3.37275e-05
5.1579e-05
5.25463e-05
5.84574e-05
5.28624e-05
2.93719e-05
5.16471e-05
5.87749e-05
6.49084e-05
4.5257e-05
4.82501e-05
5.92474e-05
5.9588e-05
6.7102e-05
4.48447e-05
4.95003e-05
5.96911e-05
5.84701e-05
6.52927e-05
4.57737e-05
4.36658e-05
5.77601e-05
5.96619e-05
6.62152e-05
4.2956e-05
4.99979e-05
5.96014e-05
5.9597e-05
6.42381e-05
4.89549e-05
4.3241e-05
5.558e-05
5.92821e-05
6.48088e-05
4.49799e-05
5.10847e-05
5.99765e-05
5.9659e-05
6.40693e-05
4.62913e-05
4.89292e-05
5.73296e-05
5.97649e-05
6.49877e-05
4.46673e-05
4.66349e-05
5.88368e-05
6.62343e-05
6.47571e-05
4.7457e-05
6.01773e-05
6.14897e-05
6.67483e-05
6.69653e-05
4.72294e-05
6.0139e-05
6.0924e-05
6.52205e-05
6.60873e-05
4.69031e-05
5.7628e-05
6.17146e-05
6.69409e-05
6.57082e-05
4.63928e-05
6.1473e-05
6.18314e-05
6.61362e-05
6.42523e-05
4.91515e-05
5.60323e-05
6.03715e-05
6.77848e-05
6.54964e-05
4.89963e-05
6.02648e-05
6.10946e-05
6.57738e-05
6.55196e-05
4.81652e-05
6.02634e-05
5.97922e-05
6.74532e-05
6.49869e-05
4.66508e-05
6.00366e-05
6.26409e-05
7.128e-05
6.1816e-05
5.61717e-05
6.43244e-05
6.66468e-05
7.19379e-05
6.35966e-05
5.57407e-05
6.36352e-05
6.55921e-05
7.02795e-05
6.33601e-05
5.60691e-05
6.43247e-05
6.79908e-05
7.19652e-05
6.22877e-05
5.56098e-05
6.5105e-05
6.70195e-05
7.07016e-05
6.15364e-05
5.62025e-05
6.251e-05
6.74891e-05
7.37867e-05
6.35186e-05
5.66065e-05
6.22516e-05
6.61535e-05
7.01976e-05
6.38308e-05
5.57562e-05
6.35939e-05
6.54985e-05
7.3035e-05
6.16866e-05
5.50629e-05
6.54952e-05
6.8473e-05
7.26969e-05
6.02872e-05
6.18035e-05
6.55812e-05
7.38035e-05
7.35798e-05
6.15484e-05
6.12643e-05
6.49116e-05
7.24722e-05
7.19724e-05
6.14391e-05
6.27997e-05
6.75849e-05
7.56458e-05
7.34527e-05
6.04017e-05
6.14235e-05
6.60948e-05
7.39803e-05
7.19237e-05
6.01332e-05
6.20773e-05
6.57315e-05
7.59905e-05
7.59587e-05
6.26618e-05
6.12392e-05
6.26545e-05
7.36578e-05
7.13661e-05
6.28881e-05
6.08292e-05
6.41184e-05
7.34524e-05
7.49429e-05
5.95791e-05
6.04501e-05
6.76512e-05
7.55487e-05
7.15668e-05
6.07299e-05
6.38422e-05
6.77588e-05
7.95588e-05
7.25684e-05
6.17193e-05
6.33651e-05
6.73425e-05
7.80667e-05
7.11454e-05
6.14512e-05
6.5843e-05
7.06764e-05
8.16997e-05
7.23291e-05
6.07096e-05
6.37044e-05
6.82204e-05
7.93978e-05
7.08052e-05
6.06854e-05
6.49635e-05
6.87431e-05
8.27024e-05
7.52233e-05
6.33583e-05
6.28714e-05
6.49583e-05
7.97948e-05
7.012e-05
6.34266e-05
6.26019e-05
6.614e-05
7.99636e-05
7.39591e-05
5.96376e-05
6.24745e-05
7.01511e-05
8.09631e-05
6.94337e-05
6.13195e-05
6.38415e-05
7.03594e-05
8.25799e-05
7.03933e-05
6.22734e-05
6.35217e-05
7.01094e-05
8.10654e-05
6.92184e-05
6.17636e-05
6.65066e-05
7.34542e-05
8.49036e-05
7.00819e-05
6.13463e-05
6.39917e-05
7.08404e-05
8.21012e-05
6.87869e-05
6.13811e-05
6.57076e-05
7.14444e-05
8.62609e-05
7.31022e-05
6.40939e-05
6.28665e-05
6.79308e-05
8.31231e-05
6.78641e-05
6.3951e-05
6.24972e-05
6.89977e-05
8.35068e-05
7.16205e-05
6.01103e-05
6.2646e-05
7.26676e-05
8.36057e-05
6.72276e-05
6.08879e-05
6.27948e-05
7.17108e-05
8.30898e-05
6.80062e-05
6.19067e-05
6.26613e-05
7.1525e-05
8.16587e-05
6.70868e-05
6.11319e-05
6.57678e-05
7.47538e-05
8.54735e-05
6.76804e-05
6.10617e-05
6.32211e-05
7.22023e-05
8.23991e-05
6.6662e-05
6.10341e-05
6.50585e-05
7.2712e-05
8.69096e-05
7.06566e-05
6.38719e-05
6.20271e-05
6.9576e-05
8.38178e-05
6.54865e-05
6.34134e-05
6.15181e-05
7.06261e-05
8.42584e-05
6.90545e-05
5.97067e-05
6.1841e-05
7.37823e-05
8.37965e-05
6.51043e-05
5.8764e-05
6.03221e-05
7.04102e-05
8.12805e-05
6.55239e-05
5.98308e-05
6.04441e-05
7.02577e-05
7.99871e-05
6.48713e-05
5.88023e-05
6.32984e-05
7.33988e-05
8.3643e-05
6.53067e-05
5.91232e-05
6.10354e-05
7.08785e-05
8.0521e-05
6.44489e-05
5.89154e-05
6.2698e-05
7.13601e-05
8.49389e-05
6.80986e-05
6.20546e-05
5.99807e-05
6.84461e-05
8.20581e-05
6.30733e-05
6.11223e-05
5.93379e-05
6.94501e-05
8.23866e-05
6.65531e-05
5.77317e-05
5.96001e-05
7.22232e-05
8.18035e-05
6.58848e-06
6.58407e-06
6.5772e-06
6.57726e-06
6.57516e-06
6.57714e-06
6.57951e-06
6.57965e-06
6.58099e-06
6.58293e-06
6.58311e-06
6.58367e-06
6.58283e-06
6.58344e-06
6.58414e-06
6.58402e-06
6.58335e-06
6.58215e-06
6.58293e-06
6.58363e-06
6.58454e-06
6.5844e-06
6.58435e-06
6.58396e-06
6.58526e-06
6.58484e-06
6.58538e-06
6.58239e-06
6.58294e-06
6.58165e-06
6.5828e-06
6.58564e-06
6.58092e-06
6.58531e-06
6.58579e-06
6.57876e-06
6.59689e-06
6.5751e-06
6.59054e-06
6.58295e-06
4.56303e-06
4.56457e-06
4.56941e-06
4.57339e-06
4.57114e-06
4.5676e-06
4.56771e-06
4.56438e-06
4.56451e-06
4.5654e-06
4.56485e-06
4.56614e-06
4.56472e-06
4.56599e-06
4.56719e-06
4.56712e-06
4.56659e-06
4.56415e-06
4.56552e-06
4.56694e-06
4.56832e-06
4.56768e-06
4.56707e-06
4.56711e-06
4.56756e-06
4.56835e-06
4.56832e-06
4.5659e-06
4.56543e-06
4.56493e-06
4.56614e-06
4.57046e-06
4.56024e-06
4.57486e-06
4.55792e-06
4.57152e-06
4.57589e-06
4.55259e-06
4.58033e-06
4.56857e-06
3.94595e-06
3.94649e-06
3.95066e-06
3.9549e-06
3.95519e-06
3.9495e-06
3.95137e-06
3.94435e-06
3.94638e-06
3.94773e-06
3.94623e-06
3.94718e-06
3.9443e-06
3.94852e-06
3.9508e-06
3.951e-06
3.94851e-06
3.94357e-06
3.94707e-06
3.95004e-06
3.95253e-06
3.95001e-06
3.94803e-06
3.94938e-06
3.95017e-06
3.95191e-06
3.94949e-06
3.94674e-06
3.94522e-06
3.94708e-06
3.94929e-06
3.95053e-06
3.94161e-06
3.95398e-06
3.93956e-06
3.9542e-06
3.95793e-06
3.93379e-06
3.96157e-06
3.95199e-06
3.46961e-06
3.4674e-06
3.46944e-06
3.47274e-06
3.47712e-06
3.47041e-06
3.47456e-06
3.46234e-06
3.46633e-06
3.46796e-06
3.46574e-06
3.46577e-06
3.46069e-06
3.46789e-06
3.47212e-06
3.47348e-06
3.46756e-06
3.45986e-06
3.46609e-06
3.47104e-06
3.4758e-06
3.47002e-06
3.46704e-06
3.47022e-06
3.47092e-06
3.47513e-06
3.46903e-06
3.46597e-06
3.46216e-06
3.4679e-06
3.47287e-06
3.46855e-06
3.46193e-06
3.47013e-06
3.46063e-06
3.47439e-06
3.47866e-06
3.45422e-06
3.47821e-06
3.47321e-06
3.05224e-06
3.04502e-06
3.0451e-06
3.04837e-06
3.05832e-06
3.05037e-06
3.05674e-06
3.03725e-06
3.04462e-06
3.04599e-06
3.04389e-06
3.04086e-06
3.03361e-06
3.04497e-06
3.05233e-06
3.05557e-06
3.04304e-06
3.03248e-06
3.04248e-06
3.05061e-06
3.059e-06
3.04669e-06
3.04351e-06
3.04974e-06
3.0504e-06
3.05817e-06
3.04614e-06
3.04263e-06
3.03516e-06
3.04776e-06
3.05712e-06
3.04323e-06
3.0399e-06
3.0437e-06
3.03996e-06
3.05408e-06
3.05667e-06
3.03138e-06
3.05292e-06
3.0534e-06
2.68801e-06
2.6719e-06
2.66924e-06
2.67367e-06
2.69046e-06
2.68245e-06
2.69044e-06
2.66192e-06
2.67382e-06
2.67476e-06
2.67353e-06
2.66453e-06
2.65573e-06
2.67246e-06
2.68496e-06
2.69022e-06
2.66611e-06
2.65357e-06
2.66857e-06
2.68202e-06
2.69572e-06
2.67142e-06
2.66948e-06
2.6807e-06
2.68186e-06
2.6945e-06
2.6733e-06
2.66864e-06
2.65561e-06
2.68061e-06
2.69525e-06
2.66706e-06
2.66782e-06
2.66667e-06
2.67171e-06
2.68577e-06
2.6842e-06
2.65731e-06
2.67709e-06
2.68594e-06
2.37323e-06
2.34191e-06
2.33513e-06
2.34352e-06
2.36843e-06
2.36236e-06
2.37014e-06
2.33176e-06
2.34904e-06
2.34912e-06
2.34996e-06
2.32971e-06
2.32125e-06
2.34383e-06
2.36625e-06
2.37414e-06
2.33008e-06
2.31682e-06
2.33774e-06
2.36069e-06
2.38211e-06
2.33795e-06
2.33949e-06
2.35779e-06
2.36106e-06
2.37962e-06
2.345e-06
2.337e-06
2.31663e-06
2.36353e-06
2.38296e-06
2.33503e-06
2.33864e-06
2.33216e-06
2.35156e-06
2.36521e-06
2.35405e-06
2.32604e-06
2.34538e-06
2.36671e-06
2.10831e-06
2.05028e-06
2.03704e-06
2.05431e-06
2.08899e-06
2.08791e-06
2.09287e-06
2.04397e-06
2.06599e-06
2.06537e-06
2.0721e-06
2.03304e-06
2.02541e-06
2.05463e-06
2.09444e-06
2.10684e-06
2.03037e-06
2.01734e-06
2.04534e-06
2.08441e-06
2.11525e-06
2.0415e-06
2.04918e-06
2.07752e-06
2.08623e-06
2.11177e-06
2.05664e-06
2.04164e-06
2.01306e-06
2.09604e-06
2.11862e-06
2.04223e-06
2.04715e-06
2.03476e-06
2.07755e-06
2.09053e-06
2.0639e-06
2.03425e-06
2.05368e-06
2.09459e-06
1.89725e-06
1.79541e-06
1.77021e-06
1.80607e-06
1.85309e-06
1.86086e-06
1.85888e-06
1.79837e-06
1.82318e-06
1.82227e-06
1.84281e-06
1.77341e-06
1.76503e-06
1.80176e-06
1.87159e-06
1.88995e-06
1.76646e-06
1.7511e-06
1.78709e-06
1.85433e-06
1.89728e-06
1.77953e-06
1.79412e-06
1.84015e-06
1.85986e-06
1.89384e-06
1.80659e-06
1.77719e-06
1.74171e-06
1.88204e-06
1.90413e-06
1.78668e-06
1.78905e-06
1.77225e-06
1.84998e-06
1.86525e-06
1.81748e-06
1.77812e-06
1.80107e-06
1.87352e-06
1.74975e-06
1.58279e-06
1.53262e-06
1.60581e-06
1.66936e-06
1.68768e-06
1.67653e-06
1.5999e-06
1.62231e-06
1.62369e-06
1.67067e-06
1.55504e-06
1.53786e-06
1.58751e-06
1.70415e-06
1.73087e-06
1.53998e-06
1.51366e-06
1.5663e-06
1.67929e-06
1.73117e-06
1.55083e-06
1.57135e-06
1.65266e-06
1.68902e-06
1.73199e-06
1.60004e-06
1.54013e-06
1.50624e-06
1.73223e-06
1.74631e-06
1.56916e-06
1.56222e-06
1.54871e-06
1.67818e-06
1.69852e-06
1.61731e-06
1.55993e-06
1.59511e-06
1.71512e-06
1.68602e-06
1.43035e-06
1.32806e-06
1.479e-06
1.55552e-06
1.58026e-06
1.56346e-06
1.46456e-06
1.47452e-06
1.48805e-06
1.57207e-06
1.39464e-06
1.34829e-06
1.42499e-06
1.60856e-06
1.64445e-06
1.3674e-06
1.30556e-06
1.40468e-06
1.57995e-06
1.63171e-06
1.36769e-06
1.38382e-06
1.53725e-06
1.59561e-06
1.63891e-06
1.45477e-06
1.34003e-06
1.33412e-06
1.66927e-06
1.66157e-06
1.3971e-06
1.37365e-06
1.38371e-06
1.58165e-06
1.61276e-06
1.49274e-06
1.40156e-06
1.46471e-06
1.64691e-06
1.73455e-06
1.38633e-06
1.18164e-06
1.48567e-06
1.54899e-06
1.55818e-06
1.56593e-06
1.42623e-06
1.42431e-06
1.46303e-06
1.57529e-06
1.33736e-06
1.2154e-06
1.35968e-06
1.61827e-06
1.65499e-06
1.29919e-06
1.14817e-06
1.36239e-06
1.59823e-06
1.62441e-06
1.2742e-06
1.24615e-06
1.54201e-06
1.61848e-06
1.64056e-06
1.4195e-06
1.21323e-06
1.30213e-06
1.73409e-06
1.67264e-06
1.30071e-06
1.2607e-06
1.33953e-06
1.60862e-06
1.63933e-06
1.50816e-06
1.35931e-06
1.47759e-06
1.71832e-06
1.92866e-06
1.53954e-06
1.16042e-06
1.72437e-06
1.71795e-06
1.65626e-06
1.77276e-06
1.54367e-06
1.56184e-06
1.63586e-06
1.70692e-06
1.47402e-06
1.20584e-06
1.48572e-06
1.79998e-06
1.79889e-06
1.44553e-06
1.12327e-06
1.55443e-06
1.80829e-06
1.74626e-06
1.37872e-06
1.20455e-06
1.74988e-06
1.82519e-06
1.77874e-06
1.601e-06
1.25783e-06
1.53865e-06
1.99052e-06
1.82423e-06
1.36337e-06
1.3181e-06
1.53968e-06
1.83441e-06
1.81519e-06
1.77128e-06
1.52759e-06
1.73988e-06
2.00529e-06
2.30714e-06
2.01082e-06
1.38464e-06
2.29444e-06
2.1587e-06
1.9408e-06
2.30983e-06
1.90012e-06
1.9997e-06
2.11748e-06
2.00234e-06
1.94124e-06
1.44968e-06
1.9186e-06
2.24962e-06
2.14081e-06
1.95783e-06
1.37648e-06
2.09549e-06
2.30782e-06
2.04517e-06
1.83432e-06
1.35092e-06
2.25601e-06
2.30527e-06
2.12167e-06
2.15339e-06
1.59244e-06
2.15329e-06
2.51286e-06
2.17824e-06
1.74116e-06
1.66777e-06
2.10514e-06
2.3553e-06
2.18551e-06
2.40245e-06
2.00208e-06
2.34207e-06
2.59464e-06
2.93331e-06
2.92795e-06
1.95937e-06
3.26712e-06
2.96698e-06
2.49659e-06
3.32863e-06
2.57408e-06
2.82673e-06
3.01117e-06
2.52339e-06
2.8687e-06
2.06945e-06
2.74381e-06
3.07271e-06
2.77083e-06
2.97952e-06
2.01331e-06
3.04855e-06
3.18774e-06
2.62106e-06
2.78237e-06
1.80211e-06
3.13702e-06
3.16515e-06
2.7733e-06
3.22966e-06
2.30129e-06
3.19886e-06
3.38043e-06
2.84351e-06
2.58932e-06
2.38604e-06
3.10258e-06
3.26162e-06
2.81604e-06
3.52797e-06
2.83798e-06
3.34455e-06
3.57435e-06
3.96209e-06
4.49959e-06
2.94064e-06
4.73801e-06
4.22866e-06
3.4742e-06
5.03943e-06
3.63125e-06
4.11584e-06
4.38296e-06
3.44871e-06
4.46918e-06
3.11752e-06
4.03618e-06
4.34983e-06
3.84605e-06
4.70795e-06
3.04594e-06
4.49427e-06
4.49645e-06
3.65693e-06
4.41986e-06
2.60612e-06
4.50013e-06
4.50339e-06
3.88945e-06
5.04363e-06
3.3947e-06
4.75669e-06
4.66335e-06
3.98281e-06
4.10097e-06
3.48002e-06
4.59141e-06
4.62945e-06
3.84251e-06
5.33796e-06
4.06931e-06
4.82261e-06
5.00737e-06
5.87852e-06
7.12167e-06
4.31608e-06
6.92596e-06
6.00623e-06
5.32733e-06
7.7691e-06
4.95905e-06
6.02709e-06
6.15685e-06
5.35673e-06
7.1369e-06
4.51369e-06
5.9715e-06
6.10024e-06
5.74836e-06
7.46032e-06
4.36691e-06
6.61706e-06
6.21187e-06
5.62889e-06
7.06631e-06
3.68317e-06
6.50919e-06
6.40939e-06
5.85169e-06
7.90407e-06
4.7293e-06
6.97416e-06
6.40943e-06
6.04178e-06
6.58653e-06
4.83503e-06
6.65974e-06
6.45935e-06
5.67037e-06
8.10224e-06
5.55104e-06
6.95096e-06
6.86535e-06
9.69332e-06
1.13252e-05
5.57753e-06
1.03218e-05
8.22528e-06
8.95794e-06
1.21601e-05
5.75532e-06
9.03718e-06
7.89899e-06
9.28314e-06
1.15309e-05
5.61839e-06
9.06923e-06
8.11903e-06
9.32092e-06
1.17416e-05
5.29174e-06
9.95333e-06
8.04112e-06
9.45867e-06
1.1232e-05
4.46122e-06
9.58946e-06
8.80378e-06
9.51839e-06
1.23453e-05
5.52709e-06
1.0175e-05
8.46221e-06
9.81691e-06
1.06197e-05
5.711e-06
9.52982e-06
8.59545e-06
8.92909e-06
1.23356e-05
6.38038e-06
1.02405e-05
8.82438e-06
1.61539e-05
1.59495e-05
6.74764e-06
1.55471e-05
1.01123e-05
1.5144e-05
1.72231e-05
5.06801e-06
1.42369e-05
8.61903e-06
1.554e-05
1.64112e-05
6.16152e-06
1.45444e-05
9.5804e-06
1.54605e-05
1.65858e-05
5.88405e-06
1.53825e-05
9.16237e-06
1.58971e-05
1.58679e-05
5.57405e-06
1.44755e-05
1.08366e-05
1.59768e-05
1.73719e-05
6.13329e-06
1.48375e-05
9.81022e-06
1.5577e-05
1.56094e-05
5.74946e-06
1.40006e-05
1.04726e-05
1.41122e-05
1.7168e-05
6.42755e-06
1.59387e-05
9.91966e-06
2.46203e-05
1.63946e-05
1.45988e-05
2.22048e-05
9.05731e-06
2.34797e-05
1.72916e-05
1.24465e-05
2.18163e-05
8.09761e-06
2.36446e-05
1.61075e-05
1.35632e-05
2.26102e-05
9.06085e-06
2.3467e-05
1.72915e-05
1.38323e-05
2.26392e-05
8.37512e-06
2.44496e-05
1.64736e-05
1.35105e-05
2.1467e-05
9.94995e-06
2.43688e-05
1.76508e-05
1.42858e-05
2.10193e-05
8.53611e-06
2.22117e-05
1.66661e-05
1.3305e-05
2.09776e-05
1.07042e-05
2.20656e-05
1.6961e-05
1.60084e-05
2.4307e-05
9.11652e-06
3.18928e-05
1.19622e-05
2.62564e-05
2.69821e-05
7.93924e-06
3.13572e-05
1.18751e-05
2.47832e-05
2.73963e-05
1.28027e-05
3.1734e-05
1.09942e-05
2.52554e-05
2.8551e-05
1.1089e-05
3.0311e-05
1.26211e-05
2.54651e-05
2.74747e-05
1.17648e-05
3.19513e-05
1.1962e-05
2.4661e-05
2.75109e-05
8.75863e-06
3.12225e-05
1.15856e-05
2.51432e-05
2.606e-05
1.12608e-05
2.85155e-05
1.16743e-05
2.49709e-05
2.69762e-05
1.06893e-05
3.15274e-05
1.0346e-05
2.85922e-05
3.00615e-05
1.21644e-05
3.13932e-05
1.28219e-05
3.44529e-05
2.78291e-05
1.51613e-05
3.25567e-05
1.42854e-05
3.34987e-05
2.82117e-05
1.9305e-05
3.29241e-05
1.42123e-05
3.35966e-05
2.87327e-05
1.82362e-05
3.08838e-05
1.29856e-05
3.37946e-05
2.69945e-05
1.94646e-05
3.2012e-05
1.24248e-05
3.25676e-05
2.92045e-05
1.57469e-05
3.19635e-05
1.42303e-05
3.23584e-05
2.82435e-05
1.8855e-05
3.01e-05
1.36397e-05
3.30887e-05
2.82361e-05
1.57289e-05
3.45989e-05
1.37604e-05
3.59205e-05
2.97573e-05
1.89646e-05
1.90032e-05
1.50749e-05
3.87728e-05
2.63749e-05
1.88113e-05
2.06637e-05
1.67191e-05
3.82213e-05
2.61023e-05
2.0071e-05
2.09938e-05
1.48893e-05
3.73893e-05
2.56216e-05
2.04185e-05
1.9987e-05
1.59728e-05
3.8089e-05
2.39169e-05
2.14304e-05
2.08994e-05
1.54487e-05
3.70487e-05
2.67507e-05
1.9822e-05
2.19437e-05
1.49426e-05
3.60431e-05
2.82169e-05
1.98782e-05
2.045e-05
1.41918e-05
3.73449e-05
2.64476e-05
2.09471e-05
2.26372e-05
1.45762e-05
3.92831e-05
2.68818e-05
1.99217e-05
2.90361e-05
3.04877e-05
4.12683e-05
2.43542e-05
2.61981e-05
2.97791e-05
3.40277e-05
4.08298e-05
2.52629e-05
2.84792e-05
2.82211e-05
2.95885e-05
3.94598e-05
2.33287e-05
2.33995e-05
2.89064e-05
3.2472e-05
4.06236e-05
2.4239e-05
2.96142e-05
2.9035e-05
2.94141e-05
4.04432e-05
2.35864e-05
2.36089e-05
2.81928e-05
2.96372e-05
3.94129e-05
2.66939e-05
2.71354e-05
2.7049e-05
2.84051e-05
4.05772e-05
2.64797e-05
2.7294e-05
2.88082e-05
3.2003e-05
4.00003e-05
2.55246e-05
2.86587e-05
5.53639e-05
5.31203e-05
4.71379e-05
4.12535e-05
4.68249e-05
5.67167e-05
5.48341e-05
4.53622e-05
4.23091e-05
4.81497e-05
5.50473e-05
5.23775e-05
4.63868e-05
3.87762e-05
4.43642e-05
5.59603e-05
5.33507e-05
4.66583e-05
4.21873e-05
4.92578e-05
5.42197e-05
5.10037e-05
4.5734e-05
3.80079e-05
4.40733e-05
5.48156e-05
5.26589e-05
4.68225e-05
4.29177e-05
4.84376e-05
5.33129e-05
5.20509e-05
4.73818e-05
4.26252e-05
4.44977e-05
5.78633e-05
5.51499e-05
4.42731e-05
4.25241e-05
4.95221e-05
7.21404e-05
6.78068e-05
5.96252e-05
6.29366e-05
6.56321e-05
7.34189e-05
6.64981e-05
5.73348e-05
6.20966e-05
6.58101e-05
7.21624e-05
6.67939e-05
6.00964e-05
5.98522e-05
6.5748e-05
7.31122e-05
6.60459e-05
5.9181e-05
6.2547e-05
6.65648e-05
7.10722e-05
6.59683e-05
5.61799e-05
5.93268e-05
6.57247e-05
7.2687e-05
6.66291e-05
5.89174e-05
6.34401e-05
6.71776e-05
7.07493e-05
6.68628e-05
5.92596e-05
6.21926e-05
6.37731e-05
7.5695e-05
6.80148e-05
5.82967e-05
6.28198e-05
6.72813e-05
8.08142e-05
7.50216e-05
7.14389e-05
7.55352e-05
7.89043e-05
8.19124e-05
7.149e-05
6.99005e-05
7.37555e-05
7.91871e-05
8.1021e-05
7.41493e-05
7.25084e-05
7.29631e-05
8.10257e-05
8.16219e-05
7.20757e-05
7.099e-05
7.47046e-05
7.92196e-05
7.99495e-05
7.37025e-05
6.74626e-05
7.31438e-05
8.12359e-05
8.15274e-05
7.33652e-05
6.96991e-05
7.50622e-05
8.0728e-05
7.98701e-05
7.40664e-05
7.04557e-05
7.36172e-05
7.90113e-05
8.45316e-05
7.3571e-05
7.11306e-05
7.43577e-05
7.97771e-05
8.38208e-05
7.77827e-05
7.76786e-05
8.23519e-05
8.694e-05
8.48201e-05
7.30964e-05
7.68306e-05
8.06296e-05
8.77739e-05
8.42782e-05
7.73947e-05
7.91713e-05
8.05936e-05
9.02001e-05
8.42978e-05
7.4412e-05
7.72856e-05
8.17457e-05
8.70293e-05
8.32978e-05
7.68973e-05
7.42214e-05
8.12928e-05
9.03155e-05
8.42863e-05
7.61442e-05
7.53052e-05
8.14827e-05
8.91045e-05
8.32695e-05
7.69797e-05
7.65165e-05
7.99944e-05
8.91361e-05
8.72445e-05
7.53645e-05
7.74202e-05
8.07706e-05
8.71824e-05
8.3586e-05
7.80704e-05
7.88262e-05
8.68061e-05
9.03365e-05
8.44602e-05
7.30827e-05
7.85056e-05
8.56436e-05
9.17171e-05
8.4286e-05
7.82113e-05
8.07128e-05
8.57391e-05
9.40802e-05
8.35664e-05
7.47869e-05
7.86146e-05
8.66299e-05
9.03239e-05
8.34114e-05
7.74202e-05
7.62572e-05
8.66081e-05
9.38697e-05
8.36716e-05
7.67648e-05
7.62791e-05
8.60727e-05
9.26564e-05
8.32865e-05
7.75553e-05
7.76221e-05
8.47973e-05
9.41591e-05
8.63821e-05
7.52964e-05
7.83892e-05
8.52528e-05
9.01167e-05
8.202e-05
7.693e-05
7.70374e-05
8.96712e-05
9.03161e-05
8.27596e-05
7.20179e-05
7.7201e-05
8.9061e-05
9.21201e-05
8.28983e-05
7.74479e-05
7.92411e-05
8.90462e-05
9.41638e-05
8.14466e-05
7.39186e-05
7.71646e-05
8.98334e-05
9.02727e-05
8.20864e-05
7.63533e-05
7.54357e-05
8.98207e-05
9.35672e-05
8.17376e-05