/*--------------------------------*- C++ -*----------------------------------*\
  =========                 |
  \\      /  F ield         | OpenFOAM: The Open Source CFD Toolbox
   \\    /   O peration     | Website:  https://openfoam.org
    \\  /    A nd           | Version:  10
     \\/     M anipulation  |
\*---------------------------------------------------------------------------*/
FoamFile
{
    format      ascii;
    class       surfaceScalarField;
    location    "4";
    object      phi_0;
}
// * * * * * * * * * * * * * * * * * * * * * * * * * * * * * * * * * * * * * //

dimensions      [0 3 -1 0 0 0 0];

internalField   nonuniform List<scalar> 
74080
(
0.00487539
2.82307e-07
9.52839e-07
0.00487576
-2.23247e-07
-7.51145e-07
0.00487484
9.75856e-07
-1.05639e-06
0.00487508
7.08834e-07
1.17627e-06
0.00487512
1.16968e-06
3.78565e-09
0.00487438
1.12649e-06
-1.43205e-06
0.00487505
-2.82303e-07
6.7704e-07
0.00487487
1.40381e-06
6.99549e-07
0.00487415
1.86035e-06
-5.97188e-07
0.00487495
-5.54796e-07
3.37975e-07
0.00487439
1.27943e-06
8.11132e-07
0.00487416
8.27804e-07
3.54256e-07
0.00487535
-1.10323e-06
9.36156e-08
0.00487491
1.48411e-06
3.79309e-07
0.00487451
-3.05498e-08
5.58417e-07
0.00487497
-1.11173e-06
-2.75153e-07
0.0048752
5.36191e-07
-2.81762e-07
0.00487526
-1.07169e-06
4.71657e-08
0.00487486
-6.53165e-07
-5.57662e-07
0.00487501
-5.93734e-07
-3.71572e-07
0.00487545
-2.18994e-06
-1.22564e-07
0.00487487
-5.4611e-07
-3.35618e-07
0.00487492
-4.89541e-07
-3.00779e-07
0.00487538
-1.82247e-06
-2.11218e-07
0.0048744
2.3565e-07
2.46404e-07
0.00487453
-6.93562e-08
2.86361e-07
0.00487522
-2.03758e-06
-2.15677e-07
0.00487452
1.01306e-06
-6.51099e-09
0.00487489
7.47344e-07
4.51744e-07
0.00487477
-1.58784e-06
1.71992e-07
0.00487441
1.77686e-06
-3.22335e-07
0.00487522
6.86962e-07
2.48221e-07
0.00487451
-1.16334e-06
2.05675e-07
0.00487444
1.94236e-06
-2.59345e-07
0.00487525
2.07421e-07
3.34072e-07
0.00487442
-1.06322e-06
2.56704e-07
0.0048746
1.27586e-06
1.63094e-07
0.00487582
-4.19859e-07
4.04809e-07
0.00487543
-9.39175e-07
-4.00241e-07
1.27816e-06
2.94573e-08
0.0044324
-5.3194e-07
6.36195e-07
0.00443221
1.47051e-07
-1.53872e-06
0.00443149
1.59575e-06
-6.13365e-07
0.00443182
5.90761e-07
1.32406e-06
0.00443146
1.32795e-06
-8.09496e-07
0.00443121
1.42866e-06
-1.21212e-06
0.00443172
-6.16585e-07
1.16598e-06
0.00443098
2.0287e-06
1.92886e-07
0.0044311
2.03403e-06
-3.98147e-07
0.00443145
-1.20541e-06
9.00583e-07
0.00443035
2.00531e-06
7.65948e-07
0.00443124
2.69843e-07
4.72598e-07
0.00443161
-1.67708e-06
3.53266e-07
0.00443098
1.93491e-06
7.9719e-07
0.00443155
-5.40752e-07
6.26962e-07
0.00443099
-7.31117e-07
-3.70377e-07
0.00443151
2.76442e-07
2.15346e-07
0.00443191
-1.32251e-06
-7.03147e-08
0.00443094
2.28338e-07
-6.39554e-07
0.00443177
-1.36846e-06
7.35627e-08
0.004432
-2.43887e-06
-3.65983e-07
0.00443131
4.05327e-07
-6.41829e-07
0.00443193
-1.02016e-06
-1.2197e-07
0.00443191
-1.97428e-06
-2.48077e-07
0.00443089
1.36346e-06
-1.52321e-07
0.00443163
-8.40418e-07
8.02412e-08
0.00443175
-2.18967e-06
-7.46881e-08
0.00443093
2.25677e-06
-4.15342e-07
0.00443218
-5.95105e-07
2.12281e-07
0.0044313
-9.87188e-07
2.98573e-07
0.00443066
2.76125e-06
-4.76626e-07
0.00443234
-9.4348e-07
2.13095e-07
0.00443084
3.21898e-07
1.14496e-07
0.00443077
2.11145e-06
-2.85244e-07
0.00443216
-1.21998e-06
4.43488e-07
0.00443057
5.63972e-07
2.09638e-07
0.00443121
7.48577e-07
3.97257e-07
0.00443283
-1.74722e-06
2.39618e-07
0.00443166
2.79172e-07
-6.78701e-07
1.39135e-06
5.73282e-07
0.00402944
-7.7744e-07
-5.43748e-09
0.00402882
8.72152e-07
-2.0625e-06
0.00402864
1.72586e-06
2.1409e-07
0.00402891
5.25707e-07
1.03779e-06
0.00402803
1.79245e-06
-1.82263e-06
0.00402841
1.38008e-06
-4.8312e-07
0.0040286
-7.04781e-07
1.3592e-06
0.00402753
3.03866e-06
-6.21649e-07
0.00402861
1.3131e-06
2.18464e-07
0.00402787
-1.2648e-06
1.399e-06
0.00402669
3.07506e-06
5.57334e-07
0.00402893
-1.52842e-06
7.56021e-07
0.00402796
-1.27452e-06
7.20739e-07
0.00402779
2.16245e-06
1.22377e-06
0.00402887
-1.72576e-06
5.1204e-07
0.00402727
6.47539e-07
-3.00108e-07
0.00402854
-3.34856e-07
6.571e-07
0.00402857
-1.39433e-06
-4.64546e-07
0.00402764
1.13097e-06
-4.69108e-07
0.00402897
-2.62254e-06
3.57085e-07
0.00402852
-2.06695e-06
-8.57639e-07
0.00402837
1.03061e-06
-6.31911e-07
0.00402933
-1.91694e-06
-2.15703e-07
0.00402853
-1.47984e-06
-3.81153e-07
0.00402789
2.20009e-06
-2.11354e-07
0.004029
-2.04381e-06
-2.73643e-07
0.00402827
-1.42473e-06
-9.10598e-08
0.00402816
2.98023e-06
-5.98269e-07
0.0040297
-2.59521e-06
1.53879e-07
0.00402769
7.87908e-07
2.93426e-07
0.00402795
2.90084e-06
-5.54941e-07
0.0040294
-2.42934e-06
2.38272e-07
0.00402723
2.63671e-06
-1.84367e-07
0.00402829
1.00906e-06
-1.49404e-07
0.00402867
-1.69378e-06
6.48419e-07
0.00402695
2.42505e-06
1.80221e-07
0.00402881
-1.04069e-06
6.74065e-07
0.00402958
-2.11007e-06
-8.75451e-08
0.0040283
1.47747e-06
-5.95005e-07
6.81691e-07
1.19844e-06
0.00366274
-9.43764e-09
-9.75386e-07
0.0036623
1.27068e-06
-2.1916e-06
0.00366258
1.65823e-06
8.42505e-07
0.00366251
7.67908e-07
2.37733e-07
0.00366136
2.437e-06
-2.50623e-06
0.00366227
1.27304e-06
4.33674e-07
0.00366183
-4.07882e-07
1.00799e-06
0.00366118
3.9384e-06
-1.25068e-06
0.00366274
-6.56834e-08
1.27097e-06
0.00366045
-2.82591e-07
1.48983e-06
0.00366028
3.64449e-06
4.27081e-07
0.00366314
-4.00631e-06
1.16431e-06
0.00366075
2.19704e-07
1.0985e-06
0.00366201
1.27419e-06
1.53545e-06
0.00366237
-2.49855e-06
2.85371e-07
0.00366036
2.65625e-06
4.18414e-08
0.00366251
-1.57381e-06
7.84602e-07
0.00366153
-7.01306e-07
-1.03842e-06
0.00366147
1.3393e-06
4.41505e-08
0.00366257
-3.79254e-06
2.00383e-07
0.00366165
-1.11062e-06
-1.35311e-06
0.00366259
7.62228e-07
-3.12871e-07
0.00366299
-2.50985e-06
-6.6561e-07
0.00366189
-6.33493e-07
-3.41413e-07
0.00366182
2.45933e-06
-1.91123e-07
0.00366256
-2.92317e-06
-7.68592e-07
0.00366147
-3.80635e-09
4.18653e-08
0.00366252
2.55219e-06
-7.35413e-07
0.00366333
-4.32545e-06
2.85624e-07
0.00366078
3.18119e-06
3.39221e-07
0.00366244
1.53788e-06
-6.20015e-07
0.00366235
-2.44759e-06
2.40058e-07
0.00366067
4.65958e-06
-4.92962e-07
0.00366271
-1.46448e-06
2.88034e-07
0.00366114
-1.75012e-07
7.94606e-07
0.00366071
3.11829e-06
2.26067e-07
0.00366293
-3.19531e-06
8.51888e-07
0.00366247
-9.75482e-07
-5.77415e-07
0.00366222
1.31202e-06
-1.64293e-07
-4.65078e-08
1.46152e-06
0.00332942
1.0951e-06
-1.63775e-06
0.00332927
1.24793e-06
-1.97332e-06
0.00332984
1.708e-06
1.03633e-06
0.00332934
8.77707e-07
-5.38483e-07
0.00332817
3.34077e-06
-2.71324e-06
0.00332924
1.36204e-06
1.16475e-06
0.00332833
8.97269e-08
1.94777e-07
0.00332864
4.36965e-06
-1.29202e-06
0.00332979
-1.62237e-06
2.25947e-06
0.00332614
1.76889e-06
1.10019e-06
0.00332787
2.9634e-06
6.9356e-07
0.00332997
-6.09567e-06
1.64977e-06
0.00332715
2.08368e-06
1.43272e-06
0.00333006
-1.08932e-06
1.73686e-06
0.00332853
-1.7997e-06
4.86164e-08
0.00332739
4.26523e-06
5.47552e-07
0.00332958
-2.94891e-06
4.30647e-07
0.00332778
7.19698e-07
-1.38194e-06
0.00332899
2.84022e-07
8.55164e-07
0.0033289
-3.89898e-06
-5.9192e-07
0.00332856
-5.16246e-07
-1.41676e-06
0.00333018
-1.48809e-07
-1.49044e-07
0.00332953
-2.38855e-06
-1.36948e-06
0.003329
-1.42843e-07
1.36015e-07
0.00332896
2.682e-06
-6.48542e-07
0.00332903
-3.12167e-06
-1.21872e-06
0.00332841
1.45782e-06
2.19959e-07
0.0033302
1.08474e-06
-1.00176e-06
0.00332974
-5.16232e-06
6.74094e-07
0.00332784
5.10891e-06
2.91822e-07
0.00333018
-7.86541e-07
-7.87349e-07
0.00332813
-3.63592e-07
2.15396e-07
0.00332839
4.8287e-06
-7.26673e-07
0.00332984
-3.82772e-06
8.02224e-07
0.00332692
3.15336e-06
7.06194e-07
0.00332843
1.79735e-06
4.26477e-07
0.00332944
-3.98284e-06
8.97522e-07
0.00332912
2.876e-07
-9.21686e-07
0.00332989
-3.79537e-07
5.99723e-07
3.21332e-07
1.36504e-06
0.00302673
1.62837e-06
-1.78486e-06
0.00302641
1.46511e-06
-1.92175e-06
0.00302735
1.72374e-06
8.3778e-07
0.00302653
8.02723e-07
-1.29417e-06
0.00302534
4.89326e-06
-2.65212e-06
0.00302622
1.71674e-06
1.5037e-06
0.00302533
5.35148e-07
-8.4741e-07
0.00302654
4.2678e-06
-7.20483e-07
0.00302655
-2.87068e-06
2.93153e-06
0.00302248
4.24062e-06
6.04662e-07
0.00302602
1.01303e-06
1.29586e-06
0.00302632
-6.95224e-06
2.13255e-06
0.00302469
3.05112e-06
1.70349e-06
0.00302826
-4.38488e-06
1.91976e-06
0.00302477
5.67087e-07
3.38613e-08
0.00302531
4.72096e-06
9.28837e-07
0.00302626
-3.33016e-06
-5.40284e-07
0.00302475
1.96165e-06
-1.30321e-06
0.00302672
-1.419e-06
1.21349e-06
0.00302522
-3.02327e-06
-1.55232e-06
0.00302643
-1.30661e-06
-9.90211e-07
0.00302765
-6.30522e-07
-7.89084e-07
0.0030265
-1.96593e-06
-1.92641e-06
0.00302666
-5.33434e-07
9.31261e-07
0.00302603
3.54705e-06
-1.73169e-06
0.00302584
-2.95967e-06
-1.21161e-06
0.00302583
2.76016e-06
3.5846e-07
0.00302772
-1.06589e-06
-1.27755e-06
0.00302644
-5.36952e-06
1.49069e-06
0.00302594
5.6766e-06
5.80918e-08
0.00302753
-2.68674e-06
-8.83499e-07
0.00302436
3.29881e-06
2.12339e-07
0.00302682
2.69308e-06
-8.98944e-07
0.00302629
-4.60331e-06
1.38272e-06
0.00302388
6.23954e-06
7.0347e-07
0.0030262
-6.09364e-07
8.27033e-07
0.0030256
-2.70216e-06
7.03592e-07
0.00302695
-1.14508e-07
-9.5296e-07
0.00302756
-2.35334e-06
1.29684e-06
2.06438e-06
8.72034e-07
0.00275144
2.12374e-06
-1.60183e-06
0.00275091
2.25124e-06
-2.18293e-06
0.00275252
1.23287e-06
5.49568e-07
0.00275129
9.09096e-07
-2.07698e-06
0.00275007
7.19991e-06
-2.44769e-06
0.00275062
2.18031e-06
1.51372e-06
0.00275004
7.75983e-07
-1.69752e-06
0.00275177
3.68251e-06
2.52793e-07
0.00275062
-3.68762e-06
3.03826e-06
0.00274699
6.50308e-06
2.62294e-07
0.00275136
-1.71784e-06
1.995e-06
0.0027498
-6.46965e-06
2.631e-06
0.00275059
2.3332e-06
1.84968e-06
0.00275341
-7.67551e-06
2.07296e-06
0.00274902
3.73824e-06
1.3577e-07
0.00275083
4.27258e-06
8.77252e-07
0.00274999
-1.72358e-06
-1.76946e-06
0.00274995
1.99577e-06
-8.84581e-07
0.00275126
-2.64524e-06
1.13315e-06
0.00274941
-2.09858e-06
-2.45019e-06
0.00275217
-3.79552e-06
-2.77261e-07
0.00275191
6.10385e-07
-2.07127e-06
0.00275148
-2.32619e-06
-1.9383e-06
0.00275177
-1.245e-06
1.32522e-06
0.00275057
4.98098e-06
-3.13604e-06
0.00275041
-2.75189e-06
-6.44239e-07
0.00275056
4.16358e-06
7.90896e-08
0.00275238
-3.575e-06
-1.38783e-06
0.00275103
-5.75602e-06
2.53332e-06
0.00275192
4.43708e-06
-3.57166e-07
0.00275158
-3.12209e-06
-7.24083e-07
0.00274881
7.14362e-06
6.31359e-08
0.00275247
-9.99621e-07
-9.90992e-07
0.00275007
-3.65385e-06
1.87595e-06
0.00274943
7.67419e-06
8.09635e-07
0.00275039
-1.85732e-06
1.27389e-06
0.00274966
-5.54381e-07
3.00614e-07
0.00275275
-2.50683e-06
-7.79615e-07
0.00275207
-3.11793e-06
1.59671e-06
3.71502e-06
4.93828e-07
0.00250064
3.83154e-06
-1.5003e-06
0.00250057
3.40674e-06
-2.85153e-06
0.00250265
1.50994e-07
3.18512e-07
0.00250121
1.30884e-06
-2.98575e-06
0.00249985
1.038e-05
-2.07084e-06
0.00249994
2.78058e-06
1.21213e-06
0.00249981
1.01279e-06
-2.35807e-06
0.00250176
2.72644e-06
1.23098e-06
0.00249984
-4.17958e-06
2.75589e-06
0.00249712
8.00055e-06
3.37538e-07
0.00250101
-4.13204e-06
2.60015e-06
0.00249849
-4.95703e-06
2.90041e-06
0.00250178
-3.54241e-07
2.10236e-06
0.00250308
-1.01258e-05
2.11424e-06
0.00249912
6.57719e-06
8.68887e-08
0.00250095
3.94081e-06
3.29902e-07
0.00249867
1.29455e-06
-2.72775e-06
0.0025004
5.94723e-07
-4.35354e-07
0.00250016
-2.45289e-06
4.70792e-07
0.00249943
-2.65819e-06
-2.90651e-06
0.00250275
-7.10425e-06
1.09139e-07
0.00250083
3.36737e-06
-3.4422e-06
0.00250186
-4.00764e-06
-1.5538e-06
0.00250168
-1.67138e-06
9.29106e-07
0.00250041
6.32743e-06
-4.36002e-06
0.00249995
-2.08851e-06
1.41838e-07
0.00249988
6.18044e-06
-8.43022e-07
0.00250187
-6.52784e-06
-9.40915e-07
0.00250113
-7.17802e-06
3.61156e-06
0.00250289
1.41905e-06
-7.93164e-07
0.00250043
-1.94989e-06
-1.77214e-07
0.00249889
1.05604e-05
-4.89981e-07
0.00250232
-4.79301e-06
-9.92627e-07
0.00249935
-2.16783e-06
2.49539e-06
0.00250023
7.24945e-06
1.19531e-06
0.00249887
-7.59182e-07
1.58582e-06
0.00249957
1.13634e-06
-4.33971e-07
0.00250295
-5.3271e-06
-5.81792e-07
0.00250178
-3.01597e-06
1.44161e-06
4.43221e-06
4.78144e-07
0.00227221
7.45822e-06
-1.66223e-06
0.00227313
4.55574e-06
-3.67553e-06
0.00227541
-1.59357e-06
-3.81666e-08
0.00227422
1.9225e-06
-4.08451e-06
0.00227225
1.45713e-05
-1.66611e-06
0.0022719
3.76167e-06
5.89663e-07
0.0022722
1.64256e-06
-2.87946e-06
0.00227438
1.27943e-06
2.04426e-06
0.00227214
-4.96447e-06
2.31561e-06
0.00227019
8.6768e-06
5.34078e-07
0.00227276
-5.5081e-06
3.02751e-06
0.00227031
-2.7574e-06
3.15783e-06
0.00227557
-4.77499e-06
2.43517e-06
0.00227544
-1.17267e-05
2.05393e-06
0.00227262
8.34661e-06
-3.21784e-07
0.00227314
5.20041e-06
-9.29676e-07
0.00227042
5.19878e-06
-3.7065e-06
0.00227336
-1.86158e-06
-2.26093e-07
0.00227152
-1.23094e-06
-5.06612e-07
0.0022728
-5.78403e-06
-3.0769e-06
0.00227553
-9.95281e-06
-1.87734e-07
0.00227279
7.01584e-06
-4.88075e-06
0.00227482
-6.52041e-06
-1.11633e-06
0.00227432
-2.25442e-06
-2.24026e-07
0.00227349
7.01869e-06
-5.2611e-06
0.00227192
2.94272e-07
4.13277e-07
0.00227164
8.88608e-06
-2.07798e-06
0.00227395
-1.00242e-05
1.58187e-07
0.0022743
-1.04393e-05
4.51034e-06
0.00227648
-3.32492e-06
-1.01648e-06
0.0022722
7.49009e-07
3.79579e-07
0.0022718
1.3661e-05
-1.36318e-06
0.00227422
-7.77237e-06
-8.2365e-07
0.00227222
-1.90405e-06
3.23386e-06
0.00227343
5.85996e-06
1.86487e-06
0.00227014
2.62374e-06
1.71127e-06
0.00227261
2.1446e-06
-1.47966e-06
0.00227501
-7.1819e-06
-3.5938e-07
0.00227507
-3.65713e-06
1.01951e-06
4.75305e-06
8.03025e-07
0.00206459
1.29592e-05
-2.17341e-06
0.0020661
5.78352e-06
-4.4244e-06
0.0020689
-3.87081e-06
-9.85202e-07
0.00206828
2.50582e-06
-5.28341e-06
0.00206514
2.05013e-05
-1.3495e-06
0.00206443
5.48576e-06
-2.90987e-07
0.00206506
2.57223e-06
-3.04655e-06
0.00206764
-8.55927e-07
2.61315e-06
0.00206546
-6.50647e-06
1.82587e-06
0.00206392
8.51812e-06
6.65748e-07
0.00206487
-5.37788e-06
3.27702e-06
0.00206313
-5.04949e-08
3.55143e-06
0.00206965
-1.01804e-05
2.71522e-06
0.00206878
-1.34857e-05
1.60328e-06
0.0020671
8.92563e-06
-1.19814e-06
0.00206544
9.35919e-06
-2.74757e-06
0.00206328
9.68683e-06
-5.12637e-06
0.00206639
-4.52347e-06
-4.3604e-07
0.00206373
1.97404e-08
-1.41789e-06
0.00206704
-1.15682e-05
-3.15254e-06
0.0020686
-1.13377e-05
-1.38614e-06
0.00206584
1.15868e-05
-6.57075e-06
0.00206804
-8.79133e-06
-1.08919e-06
0.00206804
-4.25778e-06
-1.79613e-06
0.00206749
7.23184e-06
-6.04118e-06
0.00206416
5.01198e-06
2.13735e-07
0.0020639
1.25111e-05
-3.32427e-06
0.00206644
-1.39046e-05
1.61544e-06
0.00206842
-1.65203e-05
5.30266e-06
0.00207073
-9.98376e-06
-8.71967e-07
0.00206498
4.74043e-06
7.14433e-07
0.00206507
1.71794e-05
-2.48146e-06
0.0020664
-9.80688e-06
-3.76152e-07
0.00206645
-4.36627e-06
4.2565e-06
0.00206691
4.45399e-06
2.75364e-06
0.00206256
7.75887e-06
1.43162e-06
0.00206588
3.49363e-06
-2.59598e-06
0.00206739
-7.59736e-06
-3.02092e-07
0.00206983
-6.11131e-06
2.97758e-07
5.97532e-06
1.21168e-06
0.00187599
2.0288e-05
-3.03207e-06
0.00187749
7.48332e-06
-5.18222e-06
0.00188147
-7.3934e-06
-2.24334e-06
0.00188122
3.27541e-06
-6.59203e-06
0.00187662
2.86877e-05
-1.32856e-06
0.00187573
8.31407e-06
-1.42927e-06
0.00187643
3.76373e-06
-2.75948e-06
0.00187977
-4.09504e-06
2.96747e-06
0.00187779
-9.297e-06
1.40118e-06
0.00187643
7.5183e-06
4.50937e-07
0.00187572
-3.25899e-06
3.32524e-06
0.00187483
3.5341e-06
4.09265e-06
0.00188211
-1.60642e-05
2.89944e-06
0.00188132
-1.61959e-05
5.08486e-07
0.0018804
8.69899e-06
-2.8077e-06
0.00187637
1.7522e-05
-5.07167e-06
0.00187498
1.48529e-05
-6.74745e-06
0.00187762
-6.77816e-06
-1.01912e-06
0.0018751
1.98893e-07
-2.27771e-06
0.00187998
-1.94967e-05
-3.35674e-06
0.0018805
-1.10993e-05
-3.07885e-06
0.00187762
1.80458e-05
-8.42944e-06
0.00187972
-1.09025e-05
-1.53718e-06
0.00188116
-9.07656e-06
-3.6575e-06
0.00188024
7.62304e-06
-6.83964e-06
0.00187503
1.2987e-05
-1.12155e-06
0.00187474
1.78289e-05
-4.5871e-06
0.00187732
-1.77102e-05
3.24432e-06
0.00188152
-2.63944e-05
6.14782e-06
0.00188385
-1.88644e-05
-5.04648e-07
0.00187694
9.87064e-06
7.45203e-07
0.0018766
2.20368e-05
-3.76981e-06
0.00187722
-1.13061e-05
4.09525e-07
0.00187972
-1.0315e-05
5.58457e-06
0.00187913
3.16793e-06
3.994e-06
0.00187431
1.42395e-05
7.84281e-07
0.00187712
7.1966e-06
-4.02523e-06
0.00187872
-6.96576e-06
-6.60553e-07
0.00188354
-1.09559e-05
-4.6035e-07
8.79196e-06
1.65261e-06
0.00170444
3.02602e-05
-4.20765e-06
0.00170554
9.94334e-06
-6.0937e-06
0.00171146
-1.33696e-05
-3.94982e-06
0.00171113
4.44485e-06
-8.10848e-06
0.00170513
3.98018e-05
-1.71406e-06
0.00170395
1.29759e-05
-2.51122e-06
0.0017047
4.78013e-06
-2.1583e-06
0.00170894
-8.6879e-06
2.99929e-06
0.00170742
-1.38125e-05
8.56166e-07
0.00170606
5.94433e-06
-1.63575e-07
0.00170369
1.6366e-06
3.19418e-06
0.00170351
8.82258e-06
4.68158e-06
0.0017113
-2.20887e-05
2.90069e-06
0.00171138
-2.13529e-05
-7.97217e-07
0.00171071
8.52566e-06
-5.19394e-06
0.00170436
3.05921e-05
-7.9898e-06
0.0017035
2.15312e-05
-8.94074e-06
0.00170536
-8.85517e-06
-1.85476e-06
0.00170389
-1.89505e-06
-2.89764e-06
0.00170991
-2.88991e-05
-3.80616e-06
0.00170979
-8.92791e-06
-5.48027e-06
0.00170602
2.76944e-05
-1.04953e-05
0.00170831
-1.29882e-05
-2.73405e-06
0.00171176
-1.75866e-05
-5.80306e-06
0.00171006
8.72242e-06
-7.9227e-06
0.00170314
2.51167e-05
-3.44229e-06
0.00170217
2.66252e-05
-5.9131e-06
0.00170486
-2.10699e-05
4.82314e-06
0.0017118
-4.16587e-05
6.98455e-06
0.0017142
-3.05353e-05
-2.90272e-08
0.00170627
1.63265e-05
2.90968e-07
0.00170454
2.94712e-05
-5.19308e-06
0.00170514
-1.3131e-05
1.30443e-06
0.0017101
-2.02229e-05
7.24005e-06
0.0017086
2.05242e-06
5.16678e-06
0.00170339
2.27796e-05
-5.9243e-07
0.00170473
1.49606e-05
-5.58158e-06
0.0017074
-5.91527e-06
-1.41676e-06
0.00171405
-1.81649e-05
-1.3291e-06
1.35773e-05
1.75145e-06
0.00154819
4.49343e-05
-5.92847e-06
0.00154878
1.3556e-05
-7.68125e-06
0.00155711
-2.26804e-05
-6.34139e-06
0.00155648
6.13566e-06
-1.00793e-05
0.00154929
5.45256e-05
-2.59099e-06
0.00154747
2.08161e-05
-3.78656e-06
0.00154827
5.95376e-06
-1.87379e-06
0.00155339
-1.45048e-05
2.53529e-06
0.00155277
-2.11247e-05
2.84399e-07
0.00155137
3.71009e-06
-8.03644e-07
0.00154741
1.0358e-05
2.82465e-06
0.00154752
1.73243e-05
4.90498e-06
0.00155554
-2.77335e-05
2.34828e-06
0.0015573
-3.02095e-05
-2.67573e-06
0.0015566
9.26787e-06
-8.54856e-06
0.00154795
4.96926e-05
-1.14526e-05
0.00154695
3.08488e-05
-1.15971e-05
0.00154815
-1.13464e-05
-2.89792e-06
0.0015483
-6.88532e-06
-3.26445e-06
0.0015554
-3.87518e-05
-4.53939e-06
0.0015547
-3.95266e-06
-8.25475e-06
0.00154934
4.14776e-05
-1.2842e-05
0.00155247
-1.57731e-05
-4.7773e-06
0.00155808
-3.00857e-05
-8.09054e-06
0.00155568
1.12957e-05
-9.42471e-06
0.00154697
4.29791e-05
-6.78508e-06
0.0015445
4.10618e-05
-7.78152e-06
0.00154757
-2.36122e-05
6.01161e-06
0.0015575
-6.27351e-05
7.46677e-06
0.00156031
-4.54136e-05
1.97551e-07
0.00155135
2.52848e-05
-1.35711e-06
0.00154734
4.06207e-05
-6.92701e-06
0.00154853
-1.61097e-05
2.17812e-06
0.00155578
-3.42037e-05
9.15425e-06
0.00155401
7.42637e-07
6.45068e-06
0.00154814
3.4909e-05
-2.953e-06
0.00154726
2.89374e-05
-7.76546e-06
0.0015516
-4.70787e-06
-2.70991e-06
0.0015596
-2.72993e-05
-2.50098e-06
2.06522e-05
1.33457e-06
0.00140555
6.70907e-05
-8.13069e-06
0.00140595
1.87236e-05
-1.1037e-05
0.0014169
-3.58964e-05
-1.04211e-05
0.00141587
8.77176e-06
-1.2864e-05
0.00140752
7.46756e-05
-3.84792e-06
0.0014049
3.3436e-05
-5.59693e-06
0.00140593
7.81054e-06
-3.42808e-06
0.00141174
-2.14651e-05
5.64185e-07
0.00141226
-3.16394e-05
-4.41238e-07
0.00141093
1.87845e-06
-1.62492e-06
0.00140557
2.48618e-05
1.74558e-06
0.0014055
3.05284e-05
4.03706e-06
0.00141391
-3.37719e-05
8.65234e-07
0.00141773
-4.37152e-05
-5.33925e-06
0.00141676
1.24562e-05
-1.25565e-05
0.00140564
7.72696e-05
-1.57146e-05
0.00140372
4.41388e-05
-1.53046e-05
0.00140435
-1.52496e-05
-4.18014e-06
0.00140664
-1.5127e-05
-3.04538e-06
0.00141542
-4.7965e-05
-5.31003e-06
0.00141374
6.49935e-06
-1.19267e-05
0.00140628
6.07962e-05
-1.62597e-05
0.00141064
-1.98172e-05
-7.93771e-06
0.00141845
-4.59871e-05
-1.05995e-05
0.00141604
1.65212e-05
-1.09807e-05
0.00140526
6.94155e-05
-1.1274e-05
0.00140056
6.39001e-05
-1.12013e-05
0.00140416
-2.39591e-05
5.32441e-06
0.00141748
-8.97333e-05
6.53623e-06
0.0014211
-6.28205e-05
-6.36709e-07
0.00141037
3.95767e-05
-4.52367e-06
0.00140373
5.68452e-05
-9.74155e-06
0.00140579
-2.06036e-05
2.27232e-06
0.00141535
-5.22266e-05
1.05856e-05
0.0014139
-1.72877e-07
7.17665e-06
0.00140691
5.27121e-05
-5.82532e-06
0.0014035
5.05537e-05
-1.04393e-05
0.00140953
-3.27894e-06
-5.11889e-06
0.00141901
-3.80378e-05
-4.54237e-06
3.18975e-05
3.18974e-07
0.00127562
0.000100884
-1.12346e-05
0.00127651
2.64206e-05
-1.82561e-05
0.0012896
-5.26933e-05
-1.81491e-05
0.00128786
1.27209e-05
-1.65761e-05
0.0012788
0.000102437
-4.95194e-06
0.0012762
5.40633e-05
-9.20976e-06
0.00127755
1.42304e-05
-9.80504e-06
0.00128311
-2.87945e-05
-4.03499e-06
0.00128418
-4.67049e-05
-7.53386e-07
0.00128363
7.86048e-07
-1.99999e-06
0.00127852
4.73321e-05
-8.69839e-07
0.00127831
5.07359e-05
6.93752e-07
0.00128674
-3.88874e-05
-3.22292e-06
0.00129193
-6.24273e-05
-8.19717e-06
0.00128994
1.97843e-05
-1.61144e-05
0.0012768
0.000114911
-1.95685e-05
0.00127397
6.12372e-05
-2.01034e-05
0.0012736
-2.07411e-05
-6.19397e-06
0.0012773
-2.4054e-05
-1.88908e-06
0.00128832
-5.29322e-05
-5.42696e-06
0.00128599
2.38138e-05
-1.56089e-05
0.00127673
8.56215e-05
-2.16531e-05
0.001282
-2.51447e-05
-1.25384e-05
0.00129129
-6.29719e-05
-1.25171e-05
0.00128932
2.78013e-05
-1.20362e-05
0.00127743
0.000106419
-1.75188e-05
0.00127159
9.67519e-05
-1.86393e-05
0.00127594
-2.04471e-05
5.19703e-07
0.00129188
-0.000120356
1.87951e-06
0.00129605
-8.03967e-05
-2.91432e-06
0.00128242
6.37335e-05
-9.88268e-06
0.00127315
7.97386e-05
-1.49622e-05
0.00127592
-2.65951e-05
3.95537e-07
0.00128769
-7.33698e-05
1.08619e-05
0.00128714
9.86235e-07
7.38406e-06
0.00127846
7.90521e-05
-9.13922e-06
0.00127226
8.11823e-05
-1.44007e-05
0.00127981
-1.86909e-06
-9.33658e-06
0.00129113
-5.00692e-05
-7.61115e-06
5.07816e-05
-5.78004e-07
0.00115921
0.000148916
-1.47437e-05
0.0011633
3.60414e-05
-3.09141e-05
0.00117612
-7.14166e-05
-3.04592e-05
0.00117042
2.08375e-05
-2.04144e-05
0.00116187
0.000139937
-5.41695e-06
0.00116486
8.24635e-05
-1.46961e-05
0.00116808
2.73008e-05
-2.03085e-05
0.00116915
-3.15756e-05
-1.14148e-05
0.00116615
-6.23258e-05
-1.15567e-06
0.00116689
8.49454e-07
-1.7347e-06
0.00116857
7.39522e-05
-4.2935e-06
0.00117346
7.43497e-05
-3.79627e-06
0.00118004
-4.14831e-05
-6.28861e-06
0.0011804
-7.75032e-05
-1.15219e-05
0.00117402
3.95014e-05
-1.99485e-05
0.00116303
0.000160378
-2.27129e-05
0.00116394
7.60886e-05
-2.47487e-05
0.00115991
-2.53697e-05
-8.88152e-06
0.00116054
-2.51984e-05
-1.55697e-07
0.00117396
-5.25861e-05
-4.42905e-06
0.00117315
4.84913e-05
-1.9105e-05
0.00116435
0.000113623
-2.9059e-05
0.00116862
-3.08907e-05
-1.88139e-05
0.0011753
-7.34944e-05
-1.42073e-05
0.00117319
5.06287e-05
-1.25698e-05
0.00116465
0.000152899
-2.46209e-05
0.00116296
0.000135925
-3.05698e-05
0.0011689
-1.46517e-05
-8.62223e-06
0.00118441
-0.00015326
-4.78806e-06
0.00118617
-9.14324e-05
-8.10209e-06
0.00116813
0.000101955
-1.74334e-05
0.00115702
0.000109102
-2.34067e-05
0.00116046
-3.54363e-05
-4.69859e-06
0.00117325
-9.46767e-05
8.05037e-06
0.00117231
9.59982e-06
6.8193e-06
0.00116161
0.000115713
-1.03062e-05
0.00115391
0.000118624
-1.85708e-05
0.00116376
-1.52876e-06
-1.64494e-05
0.00117537
-6.07902e-05
-1.19099e-05
8.52924e-05
-1.70844e-07
0.00106153
0.000206265
-1.97184e-05
0.00107519
4.31688e-05
-4.50842e-05
0.00108096
-8.60748e-05
-4.28221e-05
0.00106221
4.19166e-05
-2.48283e-05
0.00105608
0.00018771
-8.48282e-06
0.00107624
0.00011135
-1.77765e-05
0.00108529
4.29612e-05
-2.3035e-05
0.00107368
-1.88039e-05
-1.63951e-05
0.00105606
-6.7194e-05
-4.88808e-06
0.0010594
-2.3769e-06
-2.71518e-06
0.00108046
8.40992e-05
5.96631e-07
0.00109992
8.76766e-05
5.80745e-06
0.00110009
-3.46803e-05
2.01199e-06
0.00108205
-6.83488e-05
-1.45209e-05
0.00106681
8.14024e-05
-2.77526e-05
0.00107198
0.000201273
-2.48724e-05
0.00108936
7.66047e-05
-2.32808e-05
0.00107407
-1.47221e-05
-1.0275e-05
0.00105786
-2.38754e-06
1.03499e-07
0.00107254
-4.3928e-05
-1.86683e-06
0.00108163
6.97647e-05
-1.8875e-05
0.00107986
0.000138797
-3.58409e-05
0.001078
-2.93834e-05
-2.41798e-05
0.00107007
-6.14281e-05
-1.70415e-05
0.00106586
9.1493e-05
-1.46702e-05
0.00107057
0.000200744
-3.22201e-05
0.00108148
0.000173508
-4.22465e-05
0.00108717
-5.82661e-06
-1.5227e-05
0.00109556
-0.000184121
-1.12531e-05
0.00109142
-9.53659e-05
-1.54589e-05
0.0010711
0.0001457
-2.60975e-05
0.00106106
0.000136078
-3.21854e-05
0.00106419
-4.92916e-05
-1.08853e-05
0.00107439
-0.000109156
1.37579e-06
0.0010694
3.27115e-05
4.69335e-06
0.00105656
0.000164139
-1.20986e-05
0.00105303
0.000156978
-2.5233e-05
0.00106761
-4.6807e-06
-2.7018e-05
0.00107275
-6.22225e-05
-1.65413e-05
0.000142811
7.38255e-07
0.000986193
0.000249621
-2.01894e-05
0.00101775
3.5143e-05
-3.83696e-05
0.00100823
-8.86348e-05
-4.01604e-05
0.000966847
8.82408e-05
-3.30856e-05
0.000962071
0.000242142
-1.971e-05
0.00100655
0.000120053
-8.71229e-06
0.00102771
5.01605e-05
1.85811e-06
0.000998724
2.13383e-05
-8.10816e-06
0.000954056
-4.09998e-05
-1.46447e-05
0.000956384
-1.15496e-05
-1.28661e-05
0.00100475
5.28614e-05
7.67742e-06
0.00104604
7.08915e-05
3.1868e-05
0.00103845
-2.82184e-05
3.79221e-05
0.000993735
-2.62454e-05
-4.55557e-06
0.000970241
0.000139607
-3.48856e-05
0.00100755
0.000219991
-2.26968e-05
0.00105232
6.12631e-05
-5.07757e-06
0.00101858
2.57409e-05
-1.99828e-06
0.000970052
5.41394e-05
-2.61901e-06
0.00098297
-4.4162e-05
6.89989e-06
0.00101591
6.84874e-05
-5.54581e-06
0.00103064
0.000154085
-3.19475e-05
0.00101474
-1.51503e-05
-2.04209e-05
0.000977544
-2.30629e-05
-1.83168e-05
0.000969711
0.000142866
-1.70918e-05
0.000998649
0.000237159
-3.25683e-05
0.00102322
0.000206381
-3.93831e-05
0.00101537
1.29315e-05
-8.51172e-06
0.00100771
-0.000207036
-1.10522e-05
0.0010049
-0.000110885
-2.04931e-05
0.000997687
0.000172755
-3.64913e-05
0.000994836
0.0001447
-3.61041e-05
0.000995014
-7.37711e-05
-1.22822e-05
0.000994267
-0.000113241
-3.15595e-06
0.000976127
7.61852e-05
1.0992e-06
0.000964539
0.00021715
-1.51116e-05
0.00097893
0.000183589
-3.21559e-05
0.00100148
-9.00904e-06
-3.34741e-05
0.000984264
-3.93521e-05
-1.84349e-05
0.000215771
-1.58282e-06
0.000926894
0.000247552
-6.5405e-06
0.000978828
1.43396e-06
9.95311e-06
0.000957379
-8.66092e-05
-1.17858e-05
0.00089209
0.000154565
-3.99257e-05
0.000875733
0.000300344
-3.79788e-05
0.000931918
9.47861e-05
2.79677e-06
0.000974649
2.89578e-05
3.57949e-05
0.000943628
6.39561e-05
1.98118e-05
0.000868181
1.60859e-05
-1.48265e-05
0.000851613
-5.33061e-06
-3.03627e-05
0.000913051
-4.93729e-06
7.51695e-06
0.000967684
2.20478e-05
5.8273e-05
0.000955653
-6.15182e-05
9.73229e-05
0.000901858
-2.23798e-05
3.54228e-05
0.000880061
0.000160269
-3.91456e-05
0.00093936
0.000205211
-2.53361e-05
0.00101032
3.37639e-05
2.26681e-05
0.000976824
6.88974e-05
2.45585e-05
0.000886215
0.000127388
-1.31696e-05
0.000873723
-7.72883e-05
6.67706e-06
0.000945246
-5.07439e-06
2.76423e-05
0.000998564
0.000146829
1.13711e-06
0.000965035
1.66139e-05
3.44166e-06
0.000886888
3.30648e-05
-1.51809e-05
0.000885296
0.000164582
-1.24295e-05
0.00095403
0.000231283
-1.66861e-06
0.000983427
0.000238561
-4.92429e-06
0.000931467
7.09146e-05
1.72252e-05
0.000884178
-0.000202226
-6.35469e-07
0.000902844
-0.00017714
-8.36024e-06
0.000944912
0.000133911
-1.57046e-05
0.000953617
0.000126511
-3.91964e-06
0.000945449
-0.000110458
1.72675e-05
0.000935573
-0.000123117
1.02152e-05
0.000903908
0.000120137
-3.15147e-06
0.000898388
0.00025384
-1.29376e-05
0.000938278
0.000193333
-2.14815e-05
0.000961343
-4.19507e-06
-9.55877e-06
0.000908579
7.51778e-06
-1.34485e-05
0.000272696
-2.21734e-05
0.000853789
0.000187232
8.64852e-06
0.000924499
-5.79346e-05
6.47125e-05
0.000905287
-9.22261e-05
3.81444e-05
0.000834699
0.000218301
-2.68066e-05
0.000817555
0.000340794
-4.51597e-05
0.000862372
4.75612e-05
7.62184e-06
0.000902324
-1.02599e-05
4.81331e-05
0.000871031
8.68372e-05
3.7611e-05
0.000792211
5.10195e-05
-3.14965e-06
0.000771073
-1.28666e-05
-2.20986e-05
0.000816534
-5.47031e-05
2.16156e-05
0.000833646
1.17195e-05
7.46434e-05
0.00078444
-7.33534e-05
0.000115626
0.000737651
-7.55444e-05
5.47335e-05
0.000748879
8.99566e-05
-2.97993e-05
0.000832347
0.0001175
-7.70534e-06
0.00093979
-4.33428e-05
4.21969e-05
0.00095053
5.28173e-05
4.78064e-05
0.000816935
0.000223153
-4.03419e-06
0.000721859
-7.6416e-05
6.79358e-06
0.000814976
-0.000167325
6.39977e-05
0.000923373
6.85688e-05
5.41861e-05
0.000884613
3.11957e-05
4.78743e-05
0.000778785
7.67438e-05
-1.54756e-06
0.000792806
0.000127495
-8.0598e-07
0.000895217
0.000153419
5.19949e-05
0.000931717
0.000239852
4.35206e-05
0.000865857
0.000126949
5.20629e-05
0.000773514
-0.000148974
6.3925e-06
0.000782644
-0.000258515
6.88781e-06
0.000873029
2.06677e-05
4.18447e-05
0.000887782
9.3072e-05
6.00791e-05
0.00085265
-0.00014944
7.51407e-05
0.000849708
-0.00017545
4.90943e-05
0.000840217
0.000106305
9.52772e-06
0.000846712
0.000240854
6.98407e-06
0.000901577
0.000174878
1.59574e-05
0.000916972
4.12277e-06
4.27286e-05
0.000830132
6.28775e-05
1.27779e-06
0.000285101
-4.86363e-05
0.000794874
7.40617e-05
3.36726e-05
0.000824233
-0.000101733
8.6223e-05
0.000754572
-7.69032e-05
6.1598e-05
0.000726129
0.000201741
-8.21745e-06
0.000774036
0.000274594
-1.95254e-05
0.000790572
-2.79212e-06
2.63964e-05
0.00078986
-2.5514e-05
4.10734e-05
0.000765291
8.70277e-05
2.35285e-05
0.000720677
3.51815e-05
-1.81887e-06
0.000720062
-8.7844e-05
3.27927e-05
0.00072441
-0.000107183
8.33967e-05
0.000678396
5.50855e-05
8.63627e-05
0.000598052
-2.33606e-05
5.63684e-05
0.000558851
-0.000117314
1.15677e-05
0.000617153
-4.84372e-05
-4.6753e-06
0.000743389
-4.21056e-05
2.58006e-05
0.00083752
-0.000120615
3.99367e-05
0.000842601
4.25083e-05
3.54722e-05
0.000735483
0.000277245
2.48221e-05
0.000604826
-4.59073e-05
1.7003e-05
0.000663357
-0.00029077
3.20747e-05
0.000785635
-2.75297e-05
5.03762e-05
0.000756582
2.09812e-05
5.18375e-05
0.000673972
7.03151e-05
3.80478e-06