/*--------------------------------*- C++ -*----------------------------------*\
  =========                 |
  \\      /  F ield         | OpenFOAM: The Open Source CFD Toolbox
   \\    /   O peration     | Website:  https://openfoam.org
    \\  /    A nd           | Version:  10
     \\/     M anipulation  |
\*---------------------------------------------------------------------------*/
FoamFile
{
    format      ascii;
    class       volScalarField;
    location    "80";
    object      nut;
}
// * * * * * * * * * * * * * * * * * * * * * * * * * * * * * * * * * * * * * //

dimensions      [0 2 -1 0 0 0 0];

internalField   nonuniform List<scalar> 
102400
(
1.79898e-08
3.51242e-09
1.76857e-09
3.951e-09
9.86922e-09
7.4875e-10
7.11501e-09
2.27654e-08
5.81904e-09
8.38504e-10
5.4089e-11
1.85569e-10
4.79117e-11
1.70009e-10
3.3119e-10
3.16563e-09
1.15059e-10
5.57253e-10
6.04322e-12
1.17406e-09
2.21325e-10
3.95213e-09
1.45919e-08
7.53929e-11
7.86823e-09
1.23497e-08
4.42513e-09
1.42175e-09
8.1313e-10
5.03715e-10
1.81238e-10
1.80723e-10
7.17193e-10
4.90342e-11
6.03507e-09
1.53283e-08
3.51446e-09
2.58369e-10
1.61073e-08
1.71731e-07
2.43374e-08
3.8634e-08
8.35421e-09
4.66676e-08
5.63473e-08
2.21231e-09
1.69203e-07
3.00312e-07
1.40141e-07
7.79686e-09
1.07976e-08
3.3829e-08
1.1799e-08
1.87159e-09
1.61494e-09
1.72973e-08
1.32273e-08
3.18939e-09
8.21473e-10
7.19899e-09
1.86616e-09
3.57135e-08
3.26775e-07
1.3352e-08
5.39493e-08
1.7312e-07
1.07436e-07
3.62418e-08
6.01815e-09
2.28047e-09
2.92993e-10
6.75296e-09
3.76785e-09
3.56845e-09
7.31113e-08
1.09258e-07
3.94403e-08
3.37959e-09
4.64727e-08
5.0319e-07
4.61137e-08
2.75408e-07
1.90744e-08
8.58372e-08
1.87817e-07
8.41407e-10
2.45591e-07
1.56513e-06
8.58745e-07
2.29773e-07
5.0472e-08
2.98426e-07
1.28501e-06
4.84537e-07
1.1977e-08
1.17693e-08
1.93126e-08
3.56024e-08
4.98903e-08
1.71868e-08
6.50667e-09
1.75034e-08
5.15011e-07
1.82557e-06
2.69015e-08
3.03188e-07
3.81946e-07
2.8579e-07
7.15602e-08
6.62616e-09
1.04568e-08
3.95482e-08
1.20129e-08
1.65714e-08
2.9956e-07
3.12782e-07
1.7776e-07
6.0815e-08
3.42991e-08
6.80498e-07
1.59429e-07
7.22444e-07
1.92131e-07
9.20299e-08
5.44303e-07
7.95187e-09
5.41649e-08
2.26635e-06
1.17248e-06
1.64594e-06
5.23391e-07
6.26015e-07
1.21808e-05
5.28761e-05
1.0504e-05
3.28796e-07
2.94647e-08
2.61461e-08
2.6631e-07
2.6007e-07
9.29214e-09
5.57906e-08
6.81644e-08
3.46528e-06
8.24236e-06
6.31574e-07
6.27915e-07
9.36313e-07
5.59087e-07
1.1448e-07
1.41692e-08
1.71338e-07
2.54567e-08
3.0277e-08
8.96779e-07
1.185e-06
5.32968e-07
6.73724e-07
1.38267e-08
8.48034e-07
5.45695e-07
4.4958e-07
1.22606e-06
3.19385e-07
1.15422e-06
1.65478e-07
1.32544e-07
6.06516e-07
2.20448e-07
1.40342e-06
4.85278e-06
3.65975e-06
1.96673e-05
7.97259e-05
1.09553e-05
4.15486e-05
1.23567e-06
2.1844e-07
1.57484e-07
4.34849e-06
8.83823e-06
2.38941e-06
1.58292e-07
1.19126e-07
2.85262e-05
3.59525e-06
1.19722e-06
3.24185e-06
3.43081e-06
1.34088e-06
6.90119e-08
6.04966e-07
1.41714e-07
6.44231e-08
2.0806e-06
7.7715e-06
3.81091e-06
3.22346e-06
5.56405e-07
1.31095e-06
1.28097e-06
3.99555e-08
1.36775e-07
7.43375e-07
3.4027e-06
1.66319e-06
1.34874e-07
6.56494e-08
1.2134e-07
3.20706e-07
5.91107e-06
1.11751e-05
2.44161e-05
7.21039e-05
3.2158e-06
8.09035e-05
2.55377e-05
2.45565e-05
5.65195e-06
5.95944e-06
3.19607e-06
9.76196e-05
2.37764e-06
1.15152e-07
2.922e-07
1.28813e-05
7.8225e-06
9.26534e-06
1.8137e-05
1.00393e-05
1.51272e-06
4.11569e-07
1.21408e-06
2.22616e-07
2.58397e-06
2.54471e-05
4.18131e-05
2.43432e-05
9.06206e-06
2.25285e-06
1.87894e-06
3.84893e-08
6.25884e-09
6.85289e-10
3.05061e-06
5.08729e-06
5.79583e-08
1.06368e-07
1.44606e-06
7.13755e-07
3.18975e-06
7.57927e-06
6.87893e-06
4.90838e-05
2.61414e-06
1.57054e-05
9.87758e-05
0.000117194
0.000113457
6.53585e-06
2.16503e-05
6.07431e-05
7.50315e-05
1.16055e-05
8.87616e-07
1.43829e-05
2.35728e-06
5.50485e-05
8.28211e-07
3.8874e-06
5.34544e-06
7.27646e-08
8.16116e-06
9.23111e-07
3.20465e-06
2.28755e-05
7.76256e-06
1.62944e-05
3.68248e-05
1.19394e-05
6.66745e-06
1.00692e-06
7.75673e-08
3.35645e-08
7.03535e-08
9.4884e-07
1.14394e-07
5.35672e-07
2.44564e-07
1.35273e-06
6.79462e-06
1.3748e-06
4.32854e-07
1.02447e-05
1.24887e-05
5.36863e-06
5.93403e-05
3.25036e-05
1.63234e-05
4.15533e-05
6.56572e-06
5.49833e-05
9.29344e-05
0.000102522
1.85027e-05
9.86089e-06
2.22461e-06
2.93855e-05
6.76798e-06
2.87587e-07
6.6253e-06
2.73873e-07
8.68872e-05
2.38399e-05
2.09702e-05
1.8429e-05
3.6869e-07
2.02452e-07
4.79502e-07
5.58524e-07
1.29822e-05
1.28092e-05
6.3349e-07
1.85302e-06
2.94772e-07
5.53033e-08
1.01234e-07
1.78793e-06
1.14527e-05
2.2193e-05
9.86735e-05
8.29158e-06
2.8523e-06
1.37975e-06
3.29181e-05
6.52447e-06
1.72182e-05
1.13828e-05
4.12178e-07
1.48659e-05
3.96072e-06
1.82031e-05
1.32001e-05
8.84135e-05
9.84436e-07
1.06174e-05
9.97622e-06
2.03515e-05
1.84613e-05
3.18415e-06
1.25658e-05
2.66864e-06
3.83145e-05
8.08082e-05
1.11996e-06
6.65331e-06
6.14844e-07
6.52421e-07
9.26676e-07
1.62052e-06
2.20329e-05
2.81447e-05
1.36599e-06
6.09355e-06
3.92693e-06
1.06312e-06
1.2102e-07
7.48584e-06
1.91456e-05
1.17621e-05
7.65992e-05
3.15379e-05
2.3055e-05
2.76126e-06
2.86441e-05
2.39642e-05
2.05366e-05
3.63192e-05
3.2571e-06
1.45224e-05
6.01243e-06
1.47269e-06
9.93628e-07
1.25476e-05
4.24492e-06
5.08641e-06
1.6579e-05
3.6101e-05
2.27166e-05
1.72504e-05
9.68847e-06
1.60331e-05
4.01488e-06
9.86274e-05
1.7454e-05
8.99987e-06
5.46531e-05
1.34126e-05
2.00713e-05
1.94707e-05
2.46407e-05
3.1589e-05
1.47811e-05
5.39388e-07
3.55213e-06
1.27483e-05
7.75774e-07
7.43325e-06
5.64674e-05
2.90801e-05
6.26696e-06
3.14827e-05
3.14281e-05
0.000126703
1.60016e-05
3.53832e-05
2.55305e-05
8.08127e-05
0.000119321
1.64585e-05
1.61758e-05
8.2708e-06
1.23553e-06
3.45833e-06
2.75008e-05
3.05602e-06
1.90381e-05
6.05224e-05
1.47152e-05
3.20601e-05
1.09278e-05
4.41752e-05
1.29548e-05
8.83455e-05
5.61354e-06
3.242e-06
3.54127e-05
1.02381e-05
7.54063e-05
2.59269e-05
6.74599e-06
5.02046e-06
5.03177e-05
3.5549e-06
2.11931e-05
5.33058e-05
9.49345e-06
1.4369e-05
9.89538e-05
2.63502e-05
4.2831e-05
4.40673e-05
7.44549e-05
1.12716e-05
2.393e-05
1.85895e-05
5.84943e-05
4.85335e-05
0.000184708
0.00012773
1.90289e-05
1.77068e-05
6.19684e-06
3.25028e-06
1.41301e-05
1.44977e-05
5.34032e-06
5.73696e-05
1.77078e-05
4.66303e-05
1.41502e-05
3.25685e-06
9.57722e-06
1.33684e-05
4.18781e-06
1.56673e-05
3.41257e-05
2.1276e-06
6.04204e-05
7.74245e-05
4.92548e-06
2.03521e-05
0.000153828
1.66798e-05
2.33255e-05
4.71215e-05
1.84792e-05
1.61225e-05
0.000134511
4.66978e-05
2.66763e-06
3.02351e-06
1.08939e-05
3.55157e-05
3.36858e-05
6.42099e-05
2.74237e-05
8.76626e-05
0.00017623
0.000152812
0.000193065
2.53192e-05
1.10467e-05
3.28942e-06
1.59035e-06
6.71477e-05
1.47893e-05
4.5689e-05
3.10097e-05
7.36714e-05
6.9405e-06
5.71645e-05
6.56327e-07
1.08047e-05
3.7451e-06
2.87609e-05
6.55283e-06
5.12651e-05
5.19301e-05
1.79772e-05
8.18964e-06
1.63162e-05
0.000199477
2.4591e-05
5.33794e-06
2.94839e-05
3.2683e-06
1.24322e-05
7.84972e-05
7.26552e-06
2.72441e-06
3.13491e-06
1.80505e-05
5.24038e-05
5.52833e-06
5.20247e-05
2.27721e-05
0.000137311
0.000140154
9.37672e-05
7.60242e-05
3.25278e-05
4.7015e-07
4.35618e-05
8.26594e-06
1.18455e-05
5.34641e-05
3.09238e-05
6.00401e-05
7.29414e-05
8.39761e-05
8.82875e-06
6.41278e-05
3.70848e-05
3.68616e-06
7.51368e-05
3.10752e-05
4.84932e-05
1.95694e-05
5.19122e-05
3.96783e-05
5.52338e-05
0.000307134
0.000116068
9.2078e-06
3.74523e-05
3.65121e-05
3.75121e-05
0.000146272
3.70522e-05
1.17375e-05
1.6256e-05
4.16778e-05
5.06404e-05
6.64812e-07
4.02418e-05
6.8933e-05
0.00016465
0.000168954
5.2572e-05
1.95474e-05
7.76662e-06
2.48607e-06
3.624e-05
1.6803e-05
2.43828e-05
1.67238e-05
3.49488e-05
0.00019985
0.000127991
4.99705e-05
3.84444e-05
0.000133035
1.72117e-05
7.30123e-06
0.000126836
2.49293e-05
5.96352e-05
2.64291e-05
3.4518e-05
3.81964e-05
3.78079e-05
0.000136893
0.000316579
3.95677e-05
3.49795e-05
2.76742e-05
3.93179e-05
0.000142408
0.000124252
1.53459e-05
1.78277e-05
3.7316e-05
5.70079e-05
2.47702e-05
7.45973e-05
2.08708e-05
1.83036e-05
4.37259e-05
1.60775e-05
0.000187829
0.000149627
1.45346e-05
1.20123e-05
2.14312e-05
0.000118034
1.28585e-05
0.000201659
0.000304971
0.000199377
2.44955e-05
1.69589e-05
3.76386e-06
9.05426e-05
1.60954e-05
3.89423e-05
1.73621e-05
3.87914e-06
1.87661e-05
4.42195e-05
2.82243e-05
2.93129e-05
2.24969e-05
0.000132916
0.00031585
0.000378687
0.000223947
3.13174e-05
4.60471e-05
0.000189903
7.07276e-05
2.39391e-05
7.11486e-05
9.87775e-06
5.92956e-05
3.93416e-05
4.6793e-05
3.09216e-05
1.57959e-05
2.57895e-05
0.000212258
0.000249287
0.000129294
1.92073e-05
1.18396e-05
8.75097e-05
4.43181e-05
0.000159342
0.000334159
0.000183275
0.000132344
2.07003e-05
2.47768e-06
2.32306e-05
3.31848e-05
2.17255e-05
1.20293e-05
3.1682e-05
3.83868e-05
5.73137e-05
2.17795e-06
1.15939e-05
4.72182e-05
2.88433e-05
0.000355147
0.000389952
0.000308019
0.00014404
4.85011e-05
2.97558e-05
0.000177655
2.4138e-05
2.05023e-05
2.42886e-06
6.6612e-05
1.8282e-05
9.51888e-05
4.93368e-05
2.2371e-05
2.69095e-05
2.30501e-05
0.000229285
0.000107422
1.42183e-05
1.18473e-05
2.4023e-05
1.94785e-05
1.09632e-05
0.000214105
2.3724e-05
1.09594e-05
0.000109461
1.20317e-06
2.17841e-05
1.32935e-05
3.84656e-06
7.21889e-06
4.62748e-06
3.49302e-06
3.88972e-05
7.47742e-06
5.71363e-06
1.13812e-05
2.18275e-05
3.52183e-05
8.39548e-05
0.000413942
0.000393448
4.40308e-05
2.12081e-05
2.44975e-05
7.92198e-06
1.29997e-05
8.29704e-06
3.23513e-05
3.64903e-05
7.0092e-06
2.72832e-05
2.08083e-05
7.40459e-06
1.03472e-05
0.00012002
1.01618e-06
3.27691e-06
1.91927e-05
2.7356e-05
3.33279e-05
6.76794e-06
2.61653e-05
4.11064e-05
6.90611e-06
6.98603e-05
2.40945e-05
1.54308e-05
4.40912e-05
2.78429e-05
2.08468e-05
2.93113e-05
5.7022e-06
5.39469e-05
3.28611e-05
6.6706e-06
5.71832e-06
2.1739e-05
5.1393e-05
5.57837e-05
4.83278e-05
0.000242036
0.000294255
0.000137224
5.48138e-06
1.91433e-06
1.24622e-05
5.27494e-06
1.12251e-05
2.77647e-05
4.33098e-06
4.04503e-05
3.48536e-05
1.28536e-06
2.40377e-05
5.0694e-05
2.10019e-05
1.87368e-05
2.87184e-05
4.6278e-05
5.51788e-06
6.35294e-06
1.24821e-05
4.1082e-05
4.24223e-06
1.12344e-05
0.000197692
0.000170325
2.3853e-05
1.80031e-05
2.14989e-05
1.78149e-05
7.80602e-05
0.000104076
7.75554e-06
4.15596e-05
1.42968e-05
2.54255e-05
1.57945e-05
9.18645e-06
1.94068e-05
5.31878e-05
1.50229e-05
0.000172496
8.71899e-06
1.34185e-05
2.23232e-05
9.10532e-06
2.76488e-05
1.74698e-05
8.04936e-05
0.000172163
7.8489e-05
1.67248e-05
5.88529e-06
1.53209e-05
1.50316e-06
2.42594e-05
3.41286e-05
1.4315e-05
1.52623e-05
7.63596e-06
5.33858e-06
2.1691e-05
1.92184e-05
1.51636e-05
5.57911e-05
4.30904e-05
1.8201e-05
6.89535e-06
2.55948e-05
5.62204e-06
8.4223e-05
0.000171009
4.50065e-05
1.85844e-05
6.00661e-06
2.4739e-05
2.54612e-05
5.15426e-05
6.49315e-05
0.000140209
3.53359e-05
0.000147954
0.000137817
8.04228e-06
2.74835e-05
5.31225e-05
2.63084e-05
7.05772e-05
2.1588e-05
0.000224802
0.000301495
3.06445e-05
1.61941e-05
1.58507e-05
9.13922e-06
4.36316e-06
9.2601e-06
1.99604e-05
1.80116e-05
1.44742e-05
2.41519e-05
1.68513e-05
1.73323e-05
1.55486e-05
3.02001e-05
2.89977e-05
1.01036e-05
1.81314e-06
1.9258e-05
1.17919e-05
4.49102e-05
5.90625e-05
2.39283e-05
1.27817e-05
0.000136141
0.000100319
3.78497e-06
6.92918e-05
4.33189e-05
0.000121698
4.29446e-05
1.74621e-05
6.58466e-05
2.74404e-05
0.000130437
0.000139156
1.9461e-05
5.7672e-05
9.77637e-06
9.10364e-05
0.000158868
9.44826e-05
1.21843e-05
6.89132e-06
1.07901e-05
3.33231e-06
1.13862e-05
1.27434e-05
1.5194e-05
2.12805e-05
1.96855e-05
7.06217e-06
2.39291e-05
1.62885e-05
1.14354e-05
8.33651e-05
6.36409e-06
1.73403e-06
1.66776e-06
1.79809e-05
5.74493e-05
1.3609e-05
0.000119956
0.000113822
0.000169894
0.000275309
0.000133193
2.59371e-05
0.000196905
0.00022638
2.51659e-05
2.15114e-05
1.79905e-05
5.87783e-05
0.0001146
0.000201443
5.71716e-06
0.000228694
5.60429e-05
1.83934e-05
2.15319e-05
3.07774e-05
4.49964e-06
1.31107e-05
1.60394e-05
1.23122e-05
1.02557e-05
1.98236e-05
7.81279e-05
8.09238e-05
4.50299e-05
4.17834e-05
8.19888e-05
2.82823e-05
2.37576e-05
7.51332e-05
2.39366e-05
9.33239e-06
1.05127e-05
2.66146e-05
4.54617e-05
8.6635e-05
0.000106311
0.000160618
0.00014351
0.000210422
0.000346863
3.65501e-05
2.03844e-05
0.000145032
6.193e-05
4.43807e-05
4.2671e-06
7.48651e-06
7.24729e-05
8.94975e-05
2.45681e-05
0.000232312
0.000121784
2.01998e-05
2.47828e-05
8.94075e-05
1.55839e-05
1.13357e-05
9.54872e-06
8.96817e-06
2.93783e-05
3.65917e-05
5.52499e-05
0.000105601
2.61005e-05
2.55911e-05
5.14473e-05
8.92476e-06
1.4298e-05
2.09777e-05
2.75783e-05
2.33142e-05
7.31459e-07
2.19584e-05
1.48623e-05
1.93294e-05
2.0517e-05
2.33779e-05
2.29101e-05
7.10616e-05
0.000289672
0.000245903
4.12648e-05
3.33932e-05
5.50501e-05
2.44809e-05
0.000122581
3.0748e-06
4.5081e-05
2.70143e-05
1.32568e-05
1.84897e-05
2.49086e-05
3.10622e-05
0.000123366
0.000283548
0.000210821
9.91243e-05
0.000114237
2.22016e-05
1.07119e-05
1.03383e-05
6.84224e-06
5.62899e-05
8.94268e-05
9.84783e-06
3.52573e-05
5.09055e-05
3.87378e-06
9.62629e-07
4.17278e-06
8.96573e-06
6.93097e-05
0.00011137
0.0001325
5.77842e-05
1.03379e-05
1.71259e-05
3.00674e-05
2.22979e-05
5.32524e-05
6.23686e-05
1.94329e-05
4.48081e-05
1.17969e-05
5.15099e-05
0.000227817
0.000101979
1.48252e-06
4.26353e-05
4.87759e-06
7.57478e-06
1.46012e-05
1.15307e-05
9.08544e-06
7.74067e-06
5.3723e-05
0.000113407
0.000132958
8.71583e-07
1.37924e-05
2.99438e-06
9.1032e-06
8.34999e-05
7.5906e-05
1.87278e-05
8.82051e-06
5.41198e-05
2.92489e-05
2.07114e-05
1.15175e-05
2.07116e-05
0.000102933
5.11231e-05
9.40847e-05
0.000136192
8.01202e-05
4.85727e-05
0.000119126
0.000155625
1.57969e-05
1.78631e-05
5.94089e-05
8.5294e-05
2.05936e-05
6.41195e-06
9.55703e-05
0.000168458
2.74381e-05
9.20199e-06
3.03081e-06
9.3082e-05
4.632e-05
3.14806e-05
2.3644e-05
2.04636e-05
9.49948e-06
9.13144e-05
0.000256752
0.000207802
6.95307e-05
2.02739e-06
7.17568e-06
1.38481e-05
1.59105e-05
4.4976e-06
1.42289e-05
3.59136e-07
7.48716e-05
5.16552e-07
1.37205e-05
5.69223e-05
2.76898e-05
7.21405e-06
1.42387e-05
6.35292e-05
4.51553e-06
4.01148e-05
7.13705e-05
1.53147e-05
2.31183e-05
3.16177e-05
4.81846e-05
0.000164993
0.00010971
1.3143e-05
1.10194e-05
1.65162e-05
1.72862e-05
2.46758e-05
3.74049e-05
3.95344e-05
1.75691e-05
2.11569e-05
2.31799e-05
1.55031e-05
1.98503e-05
2.04662e-05
3.6802e-05
0.00013911
0.000139451
5.64004e-05
1.4267e-05
5.11707e-05
0.000111857
3.3913e-05
1.85772e-05
7.94585e-05
0.000105374
3.396e-05
5.40343e-05
6.08976e-05
1.58785e-05
7.05818e-05
0.000171864
0.000191465
8.41162e-06
7.97746e-06
3.79888e-05
4.53276e-05
2.39404e-05
1.9217e-05
5.42677e-05
0.000231727
0.000173053
1.30878e-05
3.16502e-06
1.50285e-05
3.56114e-05
5.83783e-05
1.63427e-05
1.06851e-05
1.78521e-05
2.291e-05
1.19947e-05
0.000180848
9.28844e-06
1.76426e-05
3.27938e-06
7.39808e-06
5.2236e-05
0.000161756
3.5245e-05
1.79106e-05
0.000105036
0.000329582
0.000285596
0.000101379
0.000116306
5.32861e-05
1.85084e-06
5.46428e-06
3.89388e-05
5.89875e-05
1.3795e-05
7.68722e-06
1.96977e-05
1.91489e-05
3.53331e-05
5.94684e-05
7.17208e-05
3.95253e-05
2.69452e-05
2.88574e-06
5.4241e-05
0.000129077
1.15492e-05
2.35654e-05
5.32698e-05
7.95773e-05
5.09883e-05
5.8623e-05
5.7124e-05
1.96372e-05
1.5513e-05
6.82061e-06
0.000104722
4.80778e-05
1.73134e-05
1.80977e-05
1.46367e-05
9.69509e-06
0.000109816
0.000121554
6.07013e-05
2.53796e-05
0.000175481
0.000227987
0.000114942
1.32203e-05
1.12974e-05
5.83334e-06
1.49156e-05
1.42217e-05
3.4014e-05
2.62939e-05
1.20963e-05
9.64658e-06
1.96968e-05
2.05111e-05
2.04775e-05
1.24543e-05
2.49561e-05
3.43421e-05
3.09171e-05
2.07855e-05
7.04403e-06
3.00745e-06
3.2804e-06
8.74936e-06
1.84542e-05
1.19448e-05
5.37912e-06
1.04431e-05
1.68772e-05
8.05508e-06
1.99839e-05
1.85796e-05
3.90507e-05
5.29155e-06
1.51659e-05
2.35873e-05
1.05272e-05
1.69625e-06
6.33453e-06
2.57732e-06
7.58452e-06
1.36649e-05
2.74999e-05
3.19551e-05
1.45116e-05
1.91328e-06
9.01113e-06
7.7101e-06
2.75263e-06
1.19474e-05
8.56513e-09
1.87091e-08
1.09813e-09
4.69062e-12
4.07103e-11
2.02303e-09
5.6079e-10
4.27017e-08
2.55891e-08
1.34224e-11
1.3678e-10
3.83051e-10
1.36591e-11
7.46993e-10
1.95736e-10
3.32987e-09
4.30801e-09
2.04199e-09
2.20311e-10
7.08932e-11
5.25087e-10
9.91718e-10
3.84968e-08
8.70484e-08
5.77276e-09
1.94506e-08
2.03977e-07
2.74022e-07
1.40784e-08
2.50873e-09
1.17656e-08
2.44737e-09
1.09864e-08
3.66484e-09
6.15461e-10
4.24631e-09
3.80349e-10
6.9589e-10
1.52303e-09
4.74763e-12
1.05352e-07
1.81302e-07
1.54376e-08
3.22641e-11
4.50815e-10
1.09757e-08
9.10119e-09
1.0405e-07
2.98294e-07
5.1118e-10
5.54509e-09
6.98095e-09
4.48424e-10
2.51799e-08
6.60852e-09
1.31032e-07
1.48973e-07
3.40945e-08
3.32345e-09
7.4865e-10
7.32586e-09
6.03046e-09
1.70452e-07
1.35612e-06
2.45975e-07
1.68517e-08
4.63327e-07
1.17444e-06
2.59037e-07
8.17919e-09
9.55512e-08
2.86015e-08
1.3909e-07
6.1921e-08
8.84248e-09
4.24497e-08
2.58102e-08
9.15871e-09
1.04044e-08
8.51425e-10
3.40297e-07
1.99269e-06
3.73487e-07
1.89023e-08
8.99521e-09
6.4825e-09
1.76776e-08
1.59496e-08
5.47605e-08
5.4781e-08
4.24225e-08
8.75593e-08
4.98313e-09
8.10381e-08
6.78558e-07
1.63259e-06
2.2333e-06
3.94922e-07
7.73905e-08
6.68137e-09
1.19937e-08
5.43516e-08
1.1195e-08
4.83025e-06
9.0322e-06
4.79843e-07
8.72568e-08
6.41401e-07
9.84269e-07
5.24759e-08
1.41057e-07
7.24454e-08
2.20033e-07
1.96378e-07
5.15853e-08
1.64195e-07
2.19569e-07
1.21713e-07
8.37324e-08
1.17547e-08
5.57409e-07
5.88972e-06
5.70619e-06
1.26448e-06
5.15576e-07
1.08892e-08
9.58815e-09
3.83952e-08
1.00836e-08
8.11835e-08
2.60118e-06
3.04952e-07
1.20775e-07
7.49839e-10
1.17278e-06
7.41328e-06
4.38949e-05
2.43364e-05
1.1744e-06
1.9855e-07
7.37963e-09
3.5987e-08
1.4479e-07
1.78711e-08
2.09859e-05
1.84986e-05
1.46025e-07
1.83112e-07
2.7942e-07
6.02034e-07
1.13297e-07
6.7536e-08
3.35342e-07
3.75225e-07
1.32835e-07
2.10292e-07
4.88421e-07
7.43559e-07
1.41409e-06
1.46634e-07
8.6388e-07
5.03361e-06
6.11681e-06
6.43575e-06
3.44906e-06
1.14801e-05
6.65547e-06
1.36438e-06
3.12239e-08
2.16703e-07
5.32048e-05
4.99651e-05
1.6221e-07
4.76089e-08
2.46052e-08
4.95681e-06
3.27583e-06
1.34453e-05
2.11147e-05
3.3778e-06
2.2685e-07
1.12136e-08
5.22104e-08
4.49503e-07
5.20532e-08
9.69915e-06
3.94071e-06
3.52717e-07
1.42691e-07
2.10315e-07
6.58623e-07
7.43415e-07
4.49234e-07
1.44708e-06
4.0081e-07
9.91268e-08
8.68119e-08
1.03737e-06
2.03373e-05
3.10554e-06
2.27976e-06
3.66187e-06
1.81067e-06
3.47e-06
2.89692e-06
3.22952e-06
3.51536e-05
4.64364e-05
7.63191e-07
1.49329e-08
0.000106493
1.17354e-05
7.01146e-05
3.10908e-05
2.56685e-06
1.19074e-05
2.72702e-06
5.80762e-07
4.66911e-06
1.34452e-05
2.381e-06
1.0557e-06
8.28762e-07
1.52987e-07
5.19226e-07
7.32417e-07
4.15889e-06
1.54019e-06
3.94349e-07
1.59484e-07
1.00705e-07
7.73341e-07
8.31565e-07
6.72106e-06
3.01127e-06
1.71106e-07
7.34645e-08
1.20069e-07
3.24753e-05
8.38388e-05
3.49063e-06
2.49609e-06
8.46578e-07
1.15509e-06
7.43751e-06
4.16453e-06
5.86122e-06
5.93507e-05
2.99212e-05
1.8509e-06
6.42196e-05
8.4084e-06
4.1376e-05
8.6237e-05
0.000124537
1.69808e-05
1.45534e-05
2.53149e-07
1.72508e-07
3.39621e-05
2.54108e-06
2.9154e-05
7.42177e-06
4.17341e-07
1.60485e-05
1.82713e-05
2.83317e-06
5.36758e-07
8.2022e-07
4.88363e-07
9.42274e-08
2.46917e-08
1.14433e-06
1.97376e-05
2.93702e-05
1.9904e-06
4.75524e-07
4.74059e-07
1.17172e-05
3.96744e-05
5.02533e-06
1.03289e-06
1.62908e-06
2.08563e-06
1.03477e-05
8.89613e-07
1.15074e-06
4.68517e-07
3.64092e-05
1.20687e-05
4.0838e-05
8.16201e-06
2.28066e-05
4.28537e-05
4.48386e-05
2.50846e-05
3.68012e-05
1.00409e-05
4.02104e-05
1.6282e-05
2.02928e-06
6.79626e-06
1.27817e-05
3.22356e-06
5.00075e-05
7.45031e-05
7.42586e-06
2.89329e-07
2.09711e-06
9.77978e-06
1.20509e-06
7.01527e-09
8.06828e-07
3.08673e-05
8.28738e-05
2.79927e-05
1.64567e-07
1.14067e-06
3.87096e-06
4.16806e-05
5.12411e-06
6.26008e-07
6.66436e-07
3.20234e-06
9.10142e-06
1.32104e-06
9.69904e-07
1.64947e-06
1.20953e-05
3.16997e-06
3.26616e-05
4.19787e-05
1.90414e-05
4.7805e-05
3.86191e-05
1.1093e-05
2.48895e-05
1.41144e-05
1.58018e-06
1.57868e-06
2.37572e-05
1.41131e-05
1.77863e-05
4.35002e-05
1.34586e-05
5.59964e-05
8.20958e-05
1.56714e-06
3.14787e-06
1.26229e-06
6.28484e-05
1.66145e-07
4.91496e-07
2.59706e-05
0.000126666
4.66489e-06
7.14194e-06
1.53118e-06
4.53215e-06
4.45895e-06
0.000181649
5.16605e-06
1.22628e-06
2.5689e-06
2.70401e-07
3.49762e-06
1.36957e-05
1.14909e-05
2.74379e-06
2.34981e-06
9.53495e-06
3.06011e-05
6.20899e-06
7.22778e-05
8.74665e-05
6.21396e-06
1.70804e-05
4.31292e-06
1.43304e-07
1.8784e-06
1.06696e-05
3.51745e-05
1.84307e-05
7.15334e-05
1.85378e-05
2.31809e-05
4.93939e-05
3.43365e-05
6.80206e-06
5.08579e-06
8.77771e-05
7.39221e-07
7.77812e-07
1.382e-05
3.49299e-05
6.37401e-07
4.68916e-06
6.35075e-07
5.76606e-06
6.11923e-06
7.88094e-05
8.86532e-05
3.22525e-07
2.93918e-06
9.45688e-07
7.2907e-06
2.27967e-05
4.40654e-05
3.67061e-06
8.85054e-06
7.60977e-06
3.88301e-06
3.05042e-05
1.25837e-05
0.000207408
7.26852e-06
2.3254e-05
7.91928e-06
4.56245e-06
1.32648e-05
1.58203e-05
4.86913e-06
7.6763e-05
8.28175e-05
2.36381e-05
5.6199e-05
6.65816e-06
3.50977e-05
1.96612e-05
8.60487e-06
3.06574e-05
3.98573e-06
3.84402e-06
2.65975e-05
2.73788e-06
3.24782e-07
4.6995e-06
1.87792e-06
1.2524e-05
1.016e-05
1.50722e-05
4.6225e-05
0.000100662
4.46855e-06
1.23351e-06
2.97367e-06
3.00629e-06
6.42533e-05
9.57319e-06
1.61071e-05
1.05665e-05
3.76019e-06
4.94863e-06
2.89192e-05
4.56506e-05
2.79609e-05
2.32826e-05
7.65074e-06
8.93527e-06
4.5165e-06
7.67558e-06
1.13135e-05
3.87908e-05
0.000102352
1.62213e-05
1.67294e-05
8.48609e-06
4.0598e-05
6.44393e-05
1.58279e-05
2.48162e-06
1.21376e-05
1.43196e-05
6.54449e-05
1.10106e-05
6.37578e-05
1.74732e-05
5.67191e-06
1.08488e-05
4.42775e-06
1.72799e-05
0.000120657
7.92293e-05
3.969e-06
1.4128e-05
1.16248e-05
1.73251e-06
1.86664e-05
3.52396e-05
3.18086e-05
6.99104e-06
4.79326e-05
6.43747e-06
1.53443e-05
1.21261e-05
1.23683e-05
1.75664e-05
6.36756e-06
1.28313e-05
7.79515e-06
5.65081e-06
1.22525e-05
1.1528e-05
8.51601e-05
3.55455e-05
1.13249e-05
2.45735e-06
6.34965e-05
3.75234e-05
2.87161e-05
2.48839e-05
1.00395e-05
1.36444e-05
4.00428e-05
3.93484e-05
9.12844e-05
0.000136431
8.79805e-06
8.79415e-06
4.96053e-06
8.29994e-06
3.19061e-05
4.47378e-05
9.10597e-05
2.05475e-06
1.5188e-05
1.19437e-05
2.53858e-05
4.33292e-05
8.79498e-06
1.72794e-05
0.000293696
6.74671e-05
2.1137e-05
8.76098e-06
4.25928e-07
2.9904e-05
2.29965e-05
3.4418e-05
2.62597e-05
1.08118e-05
4.75918e-06
5.25853e-05
5.45517e-05
3.82614e-05
6.9797e-05
7.08245e-06
4.85661e-05
1.91165e-05
2.36172e-05
2.50874e-05
2.17764e-05
4.04812e-05
1.30506e-05
2.17244e-05
4.9828e-05
6.22023e-05
3.3466e-05
1.05341e-05
8.9614e-06
1.11989e-05
2.2674e-05
1.40991e-05
4.85643e-05
2.6744e-05
3.02544e-06
5.10904e-05
0.000140235
5.00919e-05
7.48139e-06
3.98956e-07
0.000241077
0.000237681
1.77916e-05
1.85041e-05
1.29859e-05
3.05623e-05
4.4012e-05
9.21454e-06
1.22299e-05
1.50293e-06
9.40549e-06
3.58206e-05
3.45364e-05
5.05731e-06
6.21488e-05
2.89837e-05
8.86356e-07
1.30383e-05
1.24751e-06
5.83105e-06
8.62481e-06
6.90865e-06
3.28102e-05
7.70806e-06
1.87881e-05
1.58302e-05
1.45066e-05
5.76628e-05
5.01688e-06
1.72874e-05
9.3065e-06
6.34769e-05
2.2501e-05
3.00641e-05
0.000176268
0.000188264
0.000203446
0.000201652
9.3156e-06
8.26215e-06
8.37423e-05
0.000245265
7.71211e-06
2.44899e-05
1.39394e-05
2.65132e-05
2.39463e-05
2.77612e-05
2.4424e-05
8.68483e-06
3.44821e-06
3.81702e-06
2.89295e-05
6.42936e-06
2.832e-05
4.76609e-05
1.16699e-05
1.36887e-05
2.04447e-05
2.92341e-05
3.14766e-05
9.62656e-06
3.29879e-05
2.54392e-05
1.41999e-05
5.53954e-07
1.89899e-06
1.0797e-05
1.47139e-05
1.27231e-05
2.74956e-05
6.34668e-05
1.17778e-05
3.0112e-05
0.000212159
0.000133205
0.00012087
0.000228659
2.77745e-05
2.86692e-05
2.63404e-05
0.000217175
7.98115e-05
1.55642e-05
3.88051e-05
1.47769e-05
2.4133e-05
2.56451e-05
1.48677e-05
1.5021e-05
9.28017e-07
3.55821e-06
2.17485e-05
1.40132e-05
4.50831e-05
5.79548e-05
2.78232e-05
9.27541e-05
0.000149219
0.00017199
2.29811e-05
2.18039e-05
3.22868e-05
9.91399e-05
1.58794e-05
2.71793e-05
6.04972e-05
3.42747e-05
2.45126e-05
1.96204e-05
6.5706e-05
9.88372e-07
7.74149e-06
2.46226e-05
0.000134981
0.000120389
0.000142459
8.89063e-05
2.06698e-05
2.94893e-05
2.89252e-05
0.00010767
0.000123885
2.18567e-05
1.17293e-05
2.25252e-05
1.93829e-05
2.52836e-05
2.09161e-05
1.0274e-05
3.86695e-06
2.47903e-05
4.34521e-05
2.76524e-05
6.60341e-05
5.91914e-05
2.57156e-05
4.8086e-05
4.73951e-05
2.05433e-05
4.08702e-05
1.69654e-05
1.2534e-05
4.74676e-05
1.54602e-05
1.08811e-05
2.38897e-06
2.39109e-06
2.56464e-05
3.3224e-05
4.03446e-05
3.86669e-05
1.54319e-05
2.9913e-05
4.89347e-05
0.000126485
0.00012172
4.25425e-05
7.10553e-06
1.65756e-05
4.65765e-06
2.27827e-05
6.536e-05
5.0354e-06
2.4556e-05
7.25826e-06
4.10444e-05
3.23757e-05
4.78123e-05
1.32571e-05
3.87337e-06
4.42788e-05
0.00015455
6.33183e-05
8.15666e-05
2.29885e-05
8.62816e-06
9.94057e-06
2.04298e-05
2.6058e-05
3.02485e-05
8.63399e-06
1.71548e-05
4.35557e-05
0.000153737
1.19839e-06
5.93193e-06
2.32606e-05
3.32851e-05
7.29354e-05
1.93974e-05
3.90797e-05
2.1764e-05
1.14279e-05
2.47152e-05
3.53238e-05
4.7507e-05
0.000131468
7.91272e-05
0.000115708
2.20828e-05
1.43491e-05
3.9814e-05
1.76395e-05
1.81066e-05
1.39448e-05
4.44796e-05
4.18325e-05
2.66291e-05
1.96771e-05
1.04662e-05
1.99807e-05
7.65345e-05
7.46423e-05
9.14204e-05
2.83694e-05
7.68834e-07
1.70537e-05
1.45128e-05
1.33335e-05
1.41052e-06
3.12097e-05
9.02906e-05
3.62754e-05
0.000195418
6.40737e-06
3.30214e-06
2.17368e-05
0.000150326
0.000151242
4.32191e-05
1.49501e-05
1.57806e-05
2.95447e-05
2.86494e-05
2.82828e-05
4.42967e-05
4.81327e-05
5.3908e-05
0.000130298
1.43442e-05
5.57611e-05
0.00014595
4.02008e-05
2.74671e-05
2.96519e-05
4.26133e-05
9.8513e-05
3.31658e-05
2.47903e-05
4.5504e-06
2.22917e-05
6.67493e-05
7.19455e-05
2.95352e-05
7.06473e-05
3.77788e-05
3.64419e-06
6.76473e-06
1.18941e-05
5.15416e-06
8.89058e-05
0.000101331
3.50845e-06
0.000115078
7.74912e-05
4.13306e-05
1.36218e-05
0.000253966
0.000114403
2.29827e-05
8.38193e-05
2.82482e-05
1.89676e-05
3.12085e-05
9.77051e-06
3.86174e-05
4.08976e-05
4.72672e-05
3.3363e-05
0.000154119
4.64307e-05
8.42794e-05
0.000150777
4.05455e-05
2.01216e-05
3.3018e-05
0.00018177
3.4131e-05
2.18219e-05
1.67363e-05
4.8031e-05
4.17227e-07
2.34859e-05
1.3322e-05
3.41541e-05
0.00012055
4.9815e-06
1.2794e-05
1.96149e-05
8.57921e-06
8.09793e-05
8.16971e-05
3.11387e-05
1.03975e-05
9.42015e-06
4.65035e-06
2.07003e-05
8.81817e-05
5.85476e-05
4.81351e-05
0.000221247
1.39364e-05
3.76696e-05
2.72188e-05
2.76285e-05
6.36427e-05
4.36507e-05
2.74993e-05
4.33407e-05
3.77439e-05
2.72461e-05
8.10253e-05
0.000131109
6.08029e-05
3.4154e-05
1.81565e-05
9.62499e-05
2.70936e-05
3.94994e-07
3.48534e-05
9.22637e-05
4.28182e-06
1.94393e-06
2.05653e-05
5.95655e-05
9.51957e-05
2.58486e-06
4.14968e-05
7.94045e-05
1.71989e-05
7.04484e-05
6.82423e-05
4.17431e-06
9.64097e-06
1.48751e-05
5.90212e-06
2.55202e-05
2.70029e-05
1.11684e-05
6.93042e-05
0.000227277
0.000130567
2.10489e-05
2.79391e-05
1.6303e-05
3.77342e-05
5.93813e-05
2.54706e-05
1.98913e-05
4.0592e-05
4.55747e-05
3.88355e-05
0.0001698
7.00365e-06
3.82034e-05
1.12987e-05
8.36443e-05
0.000119427
5.28095e-05
3.07534e-05
6.76537e-05
1.27405e-05
3.78539e-06
4.34377e-06
0.000139587
5.12894e-05
2.47356e-05
4.57766e-05
0.000114002
3.57119e-05
1.20641e-05
5.80937e-05
2.42776e-05
2.98975e-05
2.05799e-05
3.1532e-05
2.49417e-05
1.77823e-05
1.5396e-05
8.44842e-05
0.000205976
0.000400772
1.1012e-05
2.85303e-05
3.88244e-05
1.17725e-05
3.33434e-05
2.554e-05
1.71826e-05
7.35914e-06
4.43594e-05
6.29013e-05
2.73774e-06
0.000170071
0.000149305
7.17068e-05
5.40839e-06
0.000124838
2.45196e-05
4.83745e-05
7.50577e-05
1.98683e-05
5.80853e-06
3.73793e-06
0.00016675
4.47957e-05
8.7898e-06
1.78915e-05
2.25437e-05
3.26923e-05
1.51882e-05
1.15431e-05
2.44552e-05
5.44535e-05
6.04264e-05
6.50595e-05
4.57063e-05
1.9811e-05
5.05646e-05
0.00010191
0.000276045
0.000470003
0.000484826
8.69113e-05
1.3829e-05
2.03927e-05
2.72751e-05
1.71079e-05
9.45466e-05
1.09234e-05
4.22096e-05
9.00697e-05
4.16853e-06
3.1888e-05
3.18308e-05
1.03349e-05
3.3681e-05
3.72865e-05
3.32825e-05
1.62336e-05
3.30209e-05
3.91289e-05
4.26952e-05
1.54858e-05
5.79473e-06
1.40233e-05
1.58431e-05
4.67148e-06
5.22235e-05
2.03819e-05
1.36358e-05
1.56578e-05
5.46978e-06
0.000103318
0.000257129
0.000108013
0.000153987
7.57197e-05
3.5463e-05
7.72184e-05
1.79382e-05
5.75434e-05
0.000110353
4.62077e-05
0.000159858
3.84173e-05
9.35791e-06
7.64312e-06
2.71122e-05
8.28995e-05
2.05708e-05
5.02911e-05
5.55609e-05
7.81844e-06
7.40466e-06
2.00046e-05
1.5496e-05
4.03634e-06
2.44625e-05
2.76683e-05
3.82334e-05
6.38073e-05
1.84347e-05
1.45078e-05
2.94779e-05
5.37438e-05
7.57551e-05
2.59917e-05
6.31961e-05
7.69584e-05
3.41897e-05
1.89845e-05
8.57839e-05
0.000218403
0.000169126
4.04794e-05
0.000208974
1.02454e-05
4.1097e-05
2.77451e-05
0.000146775
0.000260952
0.000134897
5.31862e-05
0.000194497
7.89071e-05
1.34447e-05
2.13639e-05
3.23763e-05
2.72297e-05
2.05352e-05
3.99645e-06
8.40349e-06
1.09327e-05
1.19653e-05
2.08391e-05
1.61648e-05
4.5706e-06
1.07594e-06
3.97337e-05
2.47323e-05
8.28315e-05
3.83949e-05
1.41335e-05
1.29567e-05
1.25456e-05
1.80217e-05
4.02943e-05
3.38039e-05
1.16359e-05
4.0858e-05
5.33299e-05
4.10989e-05
1.76974e-05
1.68992e-05
2.92928e-05
2.20027e-05
2.02611e-05
5.78912e-05
2.38842e-05
6.84024e-05
4.06817e-05
1.93477e-05
4.03421e-05
0.000125244
0.000187814
0.000108259
3.4264e-05
2.25415e-05
3.41181e-05
3.81929e-05
1.72937e-05
3.44058e-05
4.50733e-05
5.41161e-05
2.25795e-05
6.28859e-06
1.00261e-05
1.11594e-05
3.27352e-05
1.39537e-05
1.81787e-05
1.34205e-05
7.75994e-06
3.24747e-05
0.000217558
0.00022826
0.000116543
1.56912e-05
5.79922e-05
2.49396e-05
4.20881e-05
4.40154e-05
3.82272e-05
7.98437e-06
8.21535e-05
0.000205665
0.000150277
0.000173383
1.5714e-05
8.90408e-05
0.00022489
0.000198807
2.34329e-05
2.58288e-05
0.000157311
0.000428902
0.000156108
3.9109e-06
1.65666e-05
2.44291e-05
2.50223e-05
2.95176e-05
1.70075e-05
1.20688e-05
3.2782e-05
0.000256534
0.000252931
4.68454e-05
2.24522e-05
0.00020083
8.06411e-06
1.55894e-05
7.16596e-06
7.26462e-05
4.83503e-05
0.000205853