/*--------------------------------*- C++ -*----------------------------------*\
  =========                 |
  \\      /  F ield         | OpenFOAM: The Open Source CFD Toolbox
   \\    /   O peration     | Website:  https://openfoam.org
    \\  /    A nd           | Version:  10
     \\/     M anipulation  |
\*---------------------------------------------------------------------------*/
FoamFile
{
    format      ascii;
    class       surfaceScalarField;
    location    "80";
    object      phi_0;
}
// * * * * * * * * * * * * * * * * * * * * * * * * * * * * * * * * * * * * * //

dimensions      [0 3 -1 0 0 0 0];

internalField   nonuniform List<scalar> 
300480
(
1.38693e-05
-7.13424e-06
3.04127e-06
1.14055e-05
6.81682e-06
-4.17906e-06
1.18803e-05
4.86183e-06
-5.21495e-06
1.24733e-05
4.54965e-06
-3.3384e-06
1.12068e-05
6.88045e-06
-5.95878e-06
1.20916e-05
3.98122e-06
-9.63637e-06
1.28342e-05
3.71345e-06
-4.5044e-06
1.31397e-05
6.67792e-06
2.99338e-06
1.66012e-05
-3.80053e-07
1.75495e-06
1.97291e-05
-3.21348e-06
-5.85345e-06
2.00832e-05
3.06389e-06
-7.97782e-06
2.17205e-05
2.2047e-06
-6.68711e-06
2.58189e-05
-4.13892e-07
-6.32846e-06
3.08222e-05
5.78145e-08
-4.69415e-06
3.09792e-05
-1.26787e-07
-4.97295e-06
2.5392e-05
4.00884e-06
-7.89087e-06
2.06261e-05
7.96239e-06
-9.28181e-06
2.09052e-05
4.73255e-06
-7.05812e-06
2.22719e-05
-1.06293e-06
-1.62856e-06
2.08419e-05
-3.22852e-06
-5.93999e-07
1.89667e-05
1.31876e-06
-6.31908e-06
2.06554e-05
5.08982e-06
-8.63022e-06
2.68133e-05
3.68926e-06
-4.78748e-06
3.45027e-05
-5.33223e-06
2.0718e-06
3.78779e-05
-1.48261e-05
6.45634e-06
3.64014e-05
-1.40111e-05
4.86247e-06
3.15376e-05
-6.92146e-06
1.28019e-07
2.55816e-05
-2.33799e-06
-4.93355e-06
2.07257e-05
-4.8687e-07
-3.99377e-06
1.76553e-05
1.76298e-07
6.03733e-07
1.56438e-05
3.51931e-07
-4.22609e-07
1.28141e-05
3.76391e-06
-2.80936e-06
1.15541e-05
3.37281e-06
-1.49659e-07
1.25246e-05
9.03883e-07
2.54613e-06
1.1689e-05
6.36153e-06
1.85478e-06
1.06011e-05
7.51804e-06
1.40737e-06
1.19297e-05
2.84578e-06
-2.87266e-06
1.20077e-05
1.85299e-06
-5.13021e-06
1.19004e-05
-7.62354e-06
3.40884e-07
-1.80626e-05
6.79871e-06
4.16349e-05
-1.07788e-05
2.41592e-06
3.86821e-05
2.07061e-05
-1.04529e-05
3.90593e-05
1.6064e-05
-1.23062e-05
3.9557e-05
1.74431e-05
-8.62847e-06
3.88042e-05
2.0983e-05
-1.53378e-05
3.95659e-05
1.56151e-05
-2.4642e-05
3.95175e-05
1.95383e-05
-1.30144e-05
4.23259e-05
2.27724e-05
4.27727e-06
5.32885e-05
5.96033e-07
-2.99485e-07
6.16906e-05
-4.15733e-06
-1.78854e-05
6.3664e-05
1.91114e-05
-2.73344e-05
6.84976e-05
1.48323e-05
-2.22445e-05
8.23995e-05
-2.21344e-06
-1.62974e-05
0.000103837
-1.15581e-05
-1.40675e-05
0.000109899
-8.37721e-06
-1.52777e-05
9.30796e-05
1.3972e-05
-1.84267e-05
7.54798e-05
2.74975e-05
-2.03881e-05
7.32478e-05
1.62049e-05
-1.88497e-05
7.70823e-05
-3.38225e-06
-7.7589e-06
7.16198e-05
-7.40274e-06
-2.75357e-06
6.15045e-05
1.18874e-05
-1.63983e-05
6.19978e-05
2.31367e-05
-2.67419e-05
8.02634e-05
1.06641e-05
-2.00734e-05
0.000109168
-2.5464e-05
-2.05934e-06
0.000126998
-5.39647e-05
1.13055e-05
0.000126467
-4.67946e-05
8.24639e-06
0.000114365
-2.488e-05
8.35922e-07
9.52214e-05
-6.20446e-06
-9.62884e-06
7.49086e-05
6.4216e-06
-1.00606e-05
5.9379e-05
1.14419e-05
1.01495e-06
4.96148e-05
1.20831e-05
1.7164e-06
4.32602e-05
1.74148e-05
-2.6337e-06
4.05526e-05
1.23931e-05
2.17373e-06
3.96813e-05
9.13674e-06
5.36968e-06
3.67127e-05
2.36823e-05
4.13503e-06
3.63238e-05
2.25192e-05
2.38491e-06
4.19703e-05
7.18263e-06
-6.07277e-06
4.67275e-05
3.69934e-07
-9.68404e-06
4.66204e-05
-2.32919e-05
-6.28165e-07
-4.27354e-05
9.94589e-06
7.13299e-05
-9.25364e-06
6.8661e-06
6.98347e-05
3.51287e-05
-9.85069e-06
7.08342e-05
2.69322e-05
-1.45263e-05
7.17301e-05
3.37948e-05
-1.09337e-05
7.3359e-05
3.64206e-05
-1.91337e-05
7.24879e-05
3.07078e-05
-3.47929e-05
6.95659e-05
4.52544e-05
-2.46687e-05
7.33613e-05
5.10354e-05
-1.57928e-06
9.02359e-05
1.19671e-05
-8.62735e-06
0.000107131
-1.22457e-06
-2.98776e-05
0.000111349
4.86481e-05
-4.82889e-05
0.000113936
5.25644e-05
-4.67528e-05
0.000131863
9.75357e-06
-3.06931e-05
0.000169555
-2.69283e-05
-2.49678e-05
0.000195546
-2.92195e-05
-2.66865e-05
0.000184756
1.54926e-05
-2.66271e-05
0.000157191
4.60563e-05
-2.4353e-05
0.000143742
3.29925e-05
-2.76531e-05
0.000146603
-1.91091e-06
-2.01829e-05
0.000140269
-1.31186e-05
-4.33923e-06
0.000119112
2.58859e-05
-1.45939e-05
0.000107869
5.22908e-05
-3.82163e-05
0.00012495
2.9488e-05
-4.68909e-05
0.000169067
-4.50222e-05
-2.9339e-05
0.000209569
-0.000101709
-5.5469e-06
0.000222111
-9.25876e-05
2.40143e-06
0.000214111
-5.67631e-05
-1.98626e-07
0.000191587
-2.07274e-05
-1.0726e-05
0.000154845
1.59653e-05
-1.77227e-05
0.000118198
3.53478e-05
-3.84707e-06
9.43603e-05
3.85763e-05
4.39109e-06
8.19912e-05
4.44003e-05
4.16964e-07
7.60949e-05
3.07805e-05
4.53673e-06
7.24661e-05
2.53411e-05
6.30721e-06
6.81678e-05
5.0112e-05
5.64552e-06
6.84538e-05
4.55563e-05
4.75229e-06
7.85907e-05
1.42088e-05
-5.30332e-06
9.35627e-05
-7.23118e-06
-1.13911e-05
9.5646e-05
-4.45657e-05
-1.86405e-06
-6.4183e-05
1.11424e-05
0.000103383
2.61492e-06
1.13592e-05
0.000100585
5.10052e-05
-3.51516e-06
0.000104331
3.00836e-05
-8.5706e-06
0.000107001
4.40927e-05
-7.62344e-06
0.000113073
4.70137e-05
-1.6837e-05
0.000111286
3.91467e-05
-3.41568e-05
0.000103765
7.23469e-05
-3.21382e-05
0.000106909
8.93554e-05
-1.33783e-05
0.000125152
3.78578e-05
-2.21507e-05
0.000150169
8.85559e-06
-4.29428e-05
0.000160256
8.20573e-05
-6.18395e-05
0.000155134
0.000115158
-6.8586e-05
0.000164633
5.51752e-05
-4.69204e-05
0.000209059
-2.2787e-05
-3.91935e-05
0.00025733
-4.98598e-05
-4.42239e-05
0.000269821
3.74209e-06
-3.80883e-05
0.000252181
4.99787e-05
-2.82398e-05
0.000229724
4.59468e-05
-3.10904e-05
0.000220801
7.5425e-06
-3.35817e-05
0.000216646
-1.8368e-05
-1.34048e-05
0.000197547
2.95674e-05
-5.87615e-06
0.00017431
7.78027e-05
-3.0048e-05
0.000171959
5.75122e-05
-6.45192e-05
0.00020644
-4.86151e-05
-7.5413e-05
0.000263356
-0.000147243
-5.20326e-05
0.000299555
-0.000144579
-2.83652e-05
0.000298596
-8.94936e-05
-1.93634e-05
0.000283569
-4.68296e-05
-1.59872e-05
0.000251171
7.40413e-06
-2.1834e-05
0.000197574
5.67854e-05
-1.30882e-05
0.000153915
7.78302e-05
-4.55754e-07
0.000131629
8.43706e-05
5.8209e-06
0.000119058
6.36578e-05
1.05487e-05
0.000111046
5.16793e-05
7.19874e-06
0.00010694
8.44576e-05
4.64937e-06
0.000107844
7.82813e-05
6.47302e-06
0.000118786
2.95298e-05
-8.0521e-07
0.000146901
-2.05536e-05
-7.55549e-06
0.00016034
-7.61685e-05
8.06015e-07
-7.98004e-05
1.22245e-05
0.000143807
3.09941e-05
1.18306e-05
0.000130183
7.63962e-05
5.17015e-06
0.000136636
2.7151e-05
3.69147e-06
0.000142984
4.12315e-05
1.07089e-06
0.000153427
5.20992e-05
-1.35094e-05
0.000152249
3.74693e-05
-2.68881e-05
0.000142525
8.27176e-05
-2.63004e-05
0.000148105
0.0001208
-2.23898e-05
0.000165276
6.81139e-05
-3.36894e-05
0.000188347
2.47728e-05
-4.79848e-05
0.000202114
0.000117153
-6.61228e-05
0.000194046
0.000184346
-7.44899e-05
0.000192456
0.000123788
-5.32613e-05
0.000231986
1.29586e-05
-4.75025e-05
0.000294459
-5.2879e-05
-6.06295e-05
0.00033019
-1.59542e-05
-4.90845e-05
0.000330187
3.71883e-05
-2.8514e-05
0.000311954
4.98613e-05
-3.23165e-05
0.000287146
2.65082e-05
-4.20441e-05
0.000270948
-1.02541e-05
-2.7992e-05
0.000267522
1.75837e-05
-1.49368e-06
0.000257449
8.01484e-05
-1.14611e-05
0.0002365
8.20219e-05
-5.76707e-05
0.000240714
-3.89559e-05
-0.000100067
0.000289013
-0.000181094
-9.67141e-05
0.000352063
-0.00020485
-6.87281e-05
0.00036878
-0.00012935
-4.90996e-05
0.000350956
-6.46588e-05
-3.85301e-05
0.000332781
-1.60673e-05
-2.9662e-05
0.000283433
5.71352e-05
-1.99295e-05
0.000222992
0.000109169
-8.49474e-06
0.000190447
0.000128639
5.62045e-06
0.000170558
0.000109242
1.96437e-05
0.000153979
9.29935e-05
1.27102e-05
0.000149419
0.000127598
1.87785e-06
0.000154049
0.00011781
1.2842e-06
0.000161139
6.0556e-05
-3.01403e-06
0.000193676
-2.50376e-05
-3.2409e-06
0.000228845
-0.000117785
7.71001e-06
-9.90819e-05
1.50724e-05
0.000199991
6.52617e-05
6.87842e-06
0.000167579
0.000118085
7.36656e-06
0.000168618
2.97937e-05
1.76611e-05
0.000178746
2.87847e-05
1.41464e-05
0.000194921
4.78698e-05
-6.74669e-06
0.000192786
3.18345e-05
-1.99787e-05
0.000182727
7.42776e-05
-1.69703e-05
0.000198602
0.00011798
-1.65477e-05
0.000219557
7.79477e-05
-3.50242e-05
0.000232844
3.90236e-05
-4.8553e-05
0.000239652
0.000153065
-6.36032e-05
0.000228905
0.000250532
-7.12992e-05
0.000220743
0.000196606
-4.73995e-05
0.000251323
7.11908e-05
-4.0636e-05
0.000320442
-3.97754e-05
-6.16097e-05
0.00037639
-3.97813e-05
-5.324e-05
0.000386386
1.20434e-05
-2.12252e-05
0.000371388
4.94875e-05
-2.83188e-05
0.000341911
5.52388e-05
-4.78362e-05
0.000305498
1.61387e-05
-3.65089e-05
0.000306342
4.55461e-07
-3.85763e-06
0.000327585
5.06914e-05
4.45544e-06
0.000311519
9.11693e-05
-4.34193e-05
0.000293156
-1.51614e-05
-0.000101416
0.000313088
-0.000194158
-0.000109215
0.000376838
-0.000256328
-8.78712e-05
0.000420425
-0.00018608
-6.30715e-05
0.000403899
-8.12823e-05
-5.94353e-05
0.000389585
-3.38521e-05
-4.83956e-05
0.00035957
3.7433e-05
-2.75866e-05
0.000295036
0.00012256
-1.73376e-05
0.000251286
0.000170877
-4.22194e-07
0.000226345
0.000157874
2.6499e-05
0.000200445
0.000149211
2.20459e-05
0.000185988
0.000190475
2.92137e-06
0.000190404
0.000165681
-8.53643e-06
0.000199893
9.5169e-05
-2.14129e-05
0.000227083
-8.71943e-06
-1.3163e-05
0.000277469
-0.000154775
1.01377e-05
-0.00012975
1.70538e-05
0.000269203
8.8193e-05
-3.65407e-06
0.000232937
0.000165322
-7.75207e-06
0.00021851
5.2413e-05
1.3302e-05
0.000219022
2.50163e-05
2.84001e-05
0.000238183
3.62644e-05
9.37906e-06
0.000235787
2.62775e-05
-1.12096e-05
0.00022454
5.67248e-05
-8.23166e-06
0.000252864
7.51536e-05
-2.00515e-06
0.000285807
4.66494e-05
-2.77423e-05
0.00029054
4.48636e-05
-5.21033e-05
0.000281271
0.000186253
-5.5924e-05
0.000263881
0.000302242
-5.96908e-05
0.000250795
0.00025875
-3.61659e-05
0.00026842
0.000142802
-2.53535e-05
0.000338003
-1.60751e-05
-4.60171e-05
0.000414855
-7.32741e-05
-4.48404e-05
0.000432602
-2.12907e-05
-1.10709e-05
0.000414731
4.74439e-05
-1.72053e-05
0.000388988
9.01079e-05
-5.0308e-05
0.000344285
6.11671e-05
-4.49752e-05
0.000335117
-5.37391e-06
-1.03187e-05
0.000373152
-8.52363e-06
1.55299e-05
0.000382489
6.15184e-05
-2.51372e-05
0.000368614
1.34454e-05
-9.41296e-05
0.000361707
-0.000186435
-9.96183e-05
0.000398137
-0.000290513
-8.57783e-05
0.000446536
-0.000234309
-6.26229e-05
0.000435647
-9.69976e-05
-6.43127e-05
0.000422324
-2.994e-05
-6.90756e-05
0.000414032
2.42292e-05
-4.06887e-05
0.000360774
0.000121718
-2.82306e-05
0.000309577
0.000197213
-9.62912e-06
0.000283075
0.000196098
2.97975e-05
0.000253244
0.000207617
3.41234e-05
0.000224061
0.00027668
1.25492e-05
0.000218176
0.000231106
-1.45959e-05
0.000232339
0.000112708
-4.55431e-05
0.000259746
-2.88443e-06
-3.63028e-05
0.000308438
-0.000178918
2.45413e-06
-0.000153541
1.22613e-05
0.000328196
0.000103463
-1.41168e-05
0.000318429
0.000195958
-4.44541e-05
0.000305755
9.28987e-05
-3.70608e-05
0.000286149
4.94405e-05
1.78374e-05
0.00029427
3.5508e-05
2.72847e-05
0.000291485
2.36655e-05
2.67605e-06
0.000278807
3.97787e-05
4.62333e-06
0.000309757
1.97899e-05
8.75659e-06
0.000350227
-4.10299e-06
-3.03202e-05
0.000353213
4.54649e-05
-6.32624e-05
0.000331857
0.000213317
-4.80382e-05
0.000311166
0.000319762
-3.97607e-05
0.000295103
0.000291915
-2.70743e-05
0.00029295
0.000222492
-1.35702e-05
0.000351353
2.18617e-05
-2.73598e-05
0.000444189
-0.000121176
-2.37041e-05
0.00047307
-6.43479e-05
3.73731e-07
0.000451028
5.01874e-05
-8.03023e-06
0.000432561
0.000120723
-4.2699e-05
0.000395963
0.000117242
-5.21146e-05
0.000377211
2.44952e-05
-3.15806e-05
0.000409541
-6.47782e-05
9.46029e-06
0.000423798
7.63871e-06
-1.15725e-05
0.000426162
2.76064e-05
-7.74518e-05
0.000421566
-0.000172849
-8.64649e-05
0.000430939
-0.000321629
-7.72788e-05
0.000471121
-0.000281769
-5.90962e-05
0.000458541
-0.000118248
-6.13371e-05
0.000440676
-2.75225e-05
-8.31586e-05
0.00045476
2.21409e-05
-5.72952e-05
0.000416081
0.000130185
-4.60455e-05
0.000356318
0.000219469
-2.36404e-05
0.000329905
0.000218842
2.782e-05
0.000298045
0.000260317
4.768e-05
0.00025972
0.000372304
2.95495e-05
0.000271505
0.000272754
-8.96309e-06
0.000304345
8.03901e-05
-5.11504e-05
0.000323779
-3.89662e-05
-5.18968e-05
0.000351493
-0.000207056
-1.01425e-05
-0.000159405
3.67427e-06
0.000372584
0.000139506
-1.9836e-05
0.000373515
0.000226224
-7.77621e-05
0.000382793
0.000129059
-0.000110128
0.000375281
7.95845e-05
-3.99579e-05
0.000382753
4.6236e-05
1.09923e-05
0.000381088
3.1189e-05
2.44508e-06
0.000362515
3.53835e-05
1.40997e-05
0.000377446
-3.29453e-06
6.3028e-06
0.000400562
-2.16056e-05
-4.36371e-05
0.000398233
5.85777e-05
-7.02785e-05
0.000389822
0.00021595
-3.61641e-05
0.000384968
0.000280046
-2.48912e-05
0.000364206
0.000285417
-2.74807e-05
0.000338718
0.000292793
-1.45641e-06
0.000374356
7.05743e-05
-6.39546e-06
0.000463457
-0.000166391
-3.02194e-06
0.000500461
-0.000110361
1.12416e-05
0.000479651
5.94168e-05
-2.73669e-06
0.000470584
0.000142579
-3.37489e-05
0.000453947
0.000162452
-4.9085e-05
0.000435645
7.67518e-05
-4.92204e-05
0.000456497
-7.85856e-05
-1.50607e-05
0.000459482
-3.25296e-05
-9.25804e-06
0.000454159
3.9474e-05
-5.49921e-05
0.000466432
-0.000161551
-6.92444e-05
0.000473764
-0.000342443
-7.55393e-05
0.000497595
-0.000320394
-6.73498e-05
0.000489252
-0.000143381
-6.09874e-05
0.000462727
-4.84444e-05
-8.92695e-05
0.000487323
-1.21187e-05
-7.67085e-05
0.00047249
0.000130714
-6.83428e-05
0.000403082
0.000252
-4.64899e-05
0.000361634
0.000242145
1.98408e-05
0.000315517
0.000318492
4.71245e-05
0.000300601
0.00043153
2.89218e-05
0.000405319
0.000199565
1.28192e-05
0.000504836
-4.58995e-05
-1.29668e-05
0.000494138
-9.5351e-05
-2.85644e-05
0.000447738
-0.000218554
-3.99366e-06
-0.000136705
9.05089e-07
0.000430139
0.000198344
-1.16245e-05
0.000424704
0.000275307
-9.53766e-05
0.000430601
0.000179018
-0.000156926
0.000434471
0.000104475
-9.23888e-05
0.000468398
4.16193e-05
-3.69901e-05
0.000488166
4.41963e-05
-4.45047e-05
0.000460708
6.68018e-05
-1.03231e-05
0.000454684
2.14279e-05
-3.47118e-06
0.000456338
-5.07017e-06
-5.58649e-05
0.000436336
8.31372e-05
-7.09872e-05
0.000439811
0.0001962
-1.8483e-05
0.000456907
0.000194636
-1.47907e-05
0.000435875
0.000244093
-3.75763e-05
0.00040145
0.000337363
5.70314e-06
0.000421254
0.000115862
2.07598e-05
0.000486428
-0.000186164
1.33146e-05
0.000519074
-0.000142383
2.52032e-05
0.000513696
6.44682e-05
5.34165e-06
0.000524398
0.000147139
-3.43133e-05
0.000525309
0.000174112
-4.79737e-05
0.00050873
0.000132544
-6.49524e-05
0.000516371
-4.56149e-05
-3.52389e-05
0.000507402
-4.04361e-05
-4.73334e-06
0.000481205
6.21001e-05
-3.74746e-05
0.000488631
-0.000119764
-4.89599e-05
0.000511517
-0.000333235
-6.18138e-05
0.000536034
-0.000342483
-7.14704e-05
0.000536992
-0.000167207
-6.01599e-05
0.000517196
-8.10061e-05
-8.82777e-05
0.000529264
-7.49758e-05
-8.97675e-05
0.000526968
0.000101555
-8.98106e-05
0.000472964
0.000262889
-7.73517e-05
0.000406762
0.000266898
5.38889e-06
0.000336136
0.000390197
3.31528e-05
0.000348019
0.000444836
8.31864e-06
0.000520315
1.84704e-05
4.2241e-05
0.000709606
-0.000285989
4.72875e-05
0.000728329
-0.000208953
2.67745e-05
0.000605523
-0.0002107
3.44563e-05
-8.24732e-05
2.8128e-05
0.000489317
0.00025062
7.83416e-06
0.000492967
0.000320109
-9.27357e-05
0.000496521
0.00023877
-0.000187463
0.000481788
0.00015806
-0.000136282
0.000520787
3.97932e-05
-7.66193e-05
0.000570443
4.55919e-05
-0.000104165
0.000546273
0.000127598
-6.9653e-05
0.000528114
8.44594e-05
-2.23785e-05
0.000523499
3.83651e-05
-7.49653e-05
0.000474411
0.000154497
-8.77807e-05
0.000446246
0.000224396
5.76933e-06
0.000464955
0.000124372
1.90823e-05
0.000473227
0.00017142
-3.19756e-05
0.000475611
0.000332695
1.44991e-05
0.000501709
0.000152121
6.08297e-05
0.000536717
-0.000158316
4.00435e-05
0.000549806
-0.000136651
3.52174e-05
0.000555771
5.8324e-05
1.99486e-05
0.000595695
0.000109833
-3.19938e-05
0.000614855
0.000141243
-6.4413e-05
0.000592789
0.00017632
-8.69593e-05
0.000584556
2.21916e-05
-4.87615e-05
0.000567724
-2.12644e-05
3.48596e-06
0.000528407
8.35322e-05
-2.32964e-05
0.000509872
-5.49779e-05
-3.57893e-05
0.000536579
-0.000284113
-4.12465e-05
0.000583306
-0.00034599
-6.12539e-05
0.000597189
-0.000189414
-4.82517e-05
0.00059595
-0.000118102
-7.99679e-05
0.000604235
-0.000144087
-9.95317e-05
0.000589487
6.53726e-05
-0.000109837
0.000539479
0.000259271
-0.000104981
0.000458768
0.000277877
-1.09899e-05
0.000390799
0.000447468
1.24549e-05
0.00041034
0.000441245
3.33207e-06
0.000531973
-0.000131963
7.53012e-05
0.000704559
-0.000513486
7.81561e-05
0.000776463
-0.000370532
3.83771e-05
0.000687108
-0.000263776
4.6997e-05
-6.59594e-05
5.5657e-05
0.000540638
0.000268115
3.71967e-05
0.000560753
0.000335695
-6.35704e-05
0.000580823
0.000265454
-0.000192541
0.000542505
0.00023887
-0.000176099
0.000561764
8.34281e-05
-9.51903e-05
0.000639055
4.16366e-05
-0.000131662
0.000636577
0.000180161
-0.000120799
0.000592411
0.000170137
-4.27797e-05
0.000552378
0.000129244
-7.91653e-05
0.000480183
0.000271798
-9.92762e-05
0.000428579
0.000278208
3.32528e-05
0.000437866
4.62736e-05
9.41313e-05
0.000483159
2.06898e-05
2.03118e-05
0.000547064
0.000203025
2.51712e-05
0.000598498
0.000122809
8.74856e-05
0.000613721
-9.96927e-05
6.86764e-05
0.000602249
-7.06914e-05
3.94181e-05
0.000597916
7.06585e-05
3.10445e-05
0.000653096
3.15347e-05
-1.03762e-05
0.000693686
5.62361e-05
-7.3417e-05
0.000675311
0.000189376
-0.000110566
0.000662506
9.2742e-05
-6.63978e-05
0.000634299
1.83417e-05
9.34764e-06
0.000585175
0.0001044
-7.37369e-06
0.000549539
-7.01677e-06
-2.70156e-05
0.000561696
-0.000227392
-2.73479e-05
0.000635371
-0.000341796
-5.055e-05
0.000680324
-0.000221304
-3.8041e-05
0.000672896
-0.000128938
-7.03498e-05
0.000669267
-0.000176647
-0.000112076
0.000659018
1.87926e-05
-0.00013089
0.000606099
0.00024014
-0.000122655
0.000512348
0.000278272
-2.05565e-05
0.000462407
0.000463611
2.04104e-05
0.000508462
0.00042159
1.23907e-05
0.000593198
-0.000199999
7.42854e-05
0.000701686
-0.000631313
8.98379e-05
0.000765784
-0.000481635
1.90751e-05
0.000715414
-0.000342784
1.65267e-05
-0.000107842
6.07605e-05
0.00058706
0.000246066
7.49547e-05
0.000630796
0.000301339
-8.19823e-06
0.000666612
0.000225556
-0.000154204
0.000620431
0.000297538
-0.000199851
0.000622848
0.000160618
-0.000109689
0.000684329
7.21545e-05
-0.000110919
0.00069271
0.000236323
-0.000126333
0.000659022
0.00025312
-5.5334e-05
0.00062061
0.000205682
-5.8736e-05
0.000590143
0.000306071
-8.4108e-05
0.000583891
0.000268417
9.03172e-06
0.000563398
-1.32632e-05
0.000123103
0.000558478
-0.000137284
9.55412e-05
0.000617172
2.01448e-06
3.52141e-05
0.000679608
3.16463e-05
7.44477e-05
0.000691366
-4.83259e-05
8.03699e-05
0.000669066
2.06174e-05
5.3009e-05
0.000653203
0.000107239
4.92318e-05
0.000700105
-4.01342e-05
2.44707e-05
0.000749984
-5.94451e-05
-5.02768e-05
0.000747611
0.000149691
-0.000115428
0.000741761
0.000129192
-8.58442e-05
0.000710061
5.99647e-05
5.85252e-06
0.000651078
0.000128981
9.03406e-06
0.000602248
2.55609e-05
-1.51996e-05
0.00060483
-0.000195042
-6.84692e-06
0.000691139
-0.000342816
-3.17284e-05
0.000763577
-0.000254958
-3.73931e-05
0.000752119
-0.000121702
-6.63411e-05
0.000715732
-0.000139145
-0.000125378
0.000697702
4.72398e-06
-0.000149853
0.000685273
0.00018052
-0.000159015
0.000638337
0.000214503
-5.96663e-05
0.000612061
0.000400532
5.4125e-05
0.000682058
0.000377073
3.10293e-05
0.000750825
-0.000164878
1.92124e-05
0.000793014
-0.000590108
8.23339e-05
0.000823327
-0.000482032
1.74742e-05
0.000768513
-0.000365156
-2.43054e-05
-0.000158852
5.0935e-05
0.000643435
0.000204376
0.000106228
0.000699634
0.000214475
5.18002e-05
0.000753216
0.000113269
-0.000117362
0.000712291
0.000292018
-0.000214392
0.000706653
0.000246886
-0.000149696
0.000742173
0.0001594
-0.000111716
0.000732694
0.000314643
-0.000114265
0.000704313
0.000362768
-5.17721e-05
0.000700353
0.000283407
-2.02971e-05
0.000746521
0.00022123
-7.31301e-05
0.000826027
0.000136482
-9.30755e-05
0.000829439
-3.12296e-05
2.79762e-05
0.000759625
-0.000186923
0.000101838
0.000737694
-0.00014556
2.92327e-05
0.00075879
-3.29847e-05
2.62605e-05
0.000762272
7.654e-06
6.64412e-05
0.000747088
8.80756e-05
7.37989e-05
0.000731713
0.000133776
8.36951e-05
0.000757073
-8.40947e-05
6.95342e-05
0.000804109
-0.000174749
-1.19338e-05
0.000818133
5.5583e-05
-9.6245e-05
0.00080746
0.00012396
-8.44907e-05
0.000774981
9.55335e-05
-3.77642e-06
0.000735077
0.000139621
2.15725e-05
0.000686393
5.71239e-05
2.86679e-06
0.000668206
-0.000159995
1.43607e-05
0.000752916
-0.000351511
-1.64759e-06
0.000850565
-0.000282838
-3.93374e-05
0.000840999
-9.61415e-05
-5.59637e-05
0.000759344
-5.28247e-05
-0.000110346
0.000714823
2.51177e-05
-0.000159485
0.000744018
9.35701e-05
-0.000204115
0.000762978
8.2469e-05
-0.000112445
0.000769135
0.000251001
7.02823e-05
0.00083686
0.00027558
4.96579e-05
0.000884686
-0.000104006
-4.55487e-05
0.000884417
-0.000440671
2.26941e-05
0.000907957
-0.000401014
1.7709e-05
0.000874659
-0.000335593
-4.70228e-05
-0.000165054
1.47429e-05
0.000755511
0.000153252
8.87682e-05
0.000763854
0.00012379
8.24951e-05
0.000796411
2.19335e-05
-9.24299e-05
0.00079043
0.000234991
-0.000242905
0.000809216
0.000309723
-0.000217375
0.000836364
0.00027659
-0.000144221
0.000811431
0.000409755
-0.000117836
0.000780945
0.000474112
-4.4488e-05
0.000812672
0.000351299
2.12406e-05
0.000882126
0.000129923
-6.52499e-05
0.000924715
2.71285e-05
-0.000167146
0.00091922
-1.60038e-05
-4.13584e-05
0.000879778
-0.000204943
0.000116816
0.000848525
-0.000265963
4.57346e-05
0.000831415
-7.50192e-05
-2.07627e-05
0.000821583
7.00654e-05
4.33034e-05
0.000823082
0.000124858
0.000104386
0.000823842
0.000148228
0.000125464
0.000836663
-7.07674e-05
0.000101988
0.000878699
-0.000243762
2.09386e-05
0.000902417
-4.05224e-05
-8.22428e-05
0.000869698
0.000122339
-8.96613e-05
0.00082472
0.000143525
-1.51661e-06
0.000818923
0.000145666
5.44285e-05
0.000805134
7.41719e-05
2.55806e-05
0.000773675
-0.000113986
1.20437e-05
0.000819969
-0.000339015
2.66771e-05
0.000922765
-0.000301595
-3.57921e-05
0.000948345
-0.000104068
-4.77236e-05
0.000858193
7.62377e-06
-4.85335e-05
0.000768209
7.43343e-05
-0.000124703
0.000788478
1.53203e-05
-0.000231439
0.000844013
-6.26612e-05
-0.000199573
0.000884667
9.63237e-05
1.4938e-06
0.000953409
0.000158645
4.17731e-05
0.000986662
-8.69314e-05
-6.21528e-05
0.000964148
-0.000284982
-4.88822e-05
0.000991901
-0.0003057
-5.03513e-06
0.00100121
-0.000314911
-3.64607e-05
-0.000146884
-1.34801e-05
0.000914121
0.000119921
5.91137e-05
0.000846273
6.46617e-05
9.53788e-05
0.00083635
-2.49014e-05
-5.73535e-05
0.000860775
0.000165778
-0.000263014
0.00092142
0.000316349
-0.000272009
0.000964963
0.000352165
-0.000172131
0.000935919
0.000478497
-0.000138475
0.00089931
0.000560178
-5.65193e-05
0.000939432
0.00041239
6.06959e-05
0.00100401
9.37144e-05
-1.34244e-05
0.00103471
-2.12684e-05
-0.000177031
0.00103881
1.57088e-05
-9.35787e-05
0.00100671
-0.000170697
0.000112617
0.000960179
-0.000325845
9.36148e-05
0.000919993
-0.000119468
-3.22415e-05
0.00089359
0.000130481
1.30476e-05
0.000892936
0.000172081
0.000126634
0.000911614
0.000149611
0.00016395
0.000937931
-3.25602e-05
0.000120006
0.000970518
-0.000229466
3.8374e-05
0.000982764
-7.0191e-05
-5.4532e-05
0.000944154
0.000142979
-8.97155e-05
0.000902588
0.000186397
-1.34784e-06
0.000908938
0.000151531
9.71793e-05
0.000918736
8.04374e-05
5.4208e-05
0.000901695
-8.90977e-05
-9.85581e-06
0.000918356
-0.00033224
4.20408e-05
0.000989243
-0.000323087
1.40993e-05
0.00103894
-0.000138357
-3.83778e-05
0.00100726
-3.36611e-06
5.07015e-06
0.000937602
0.000110993
-3.04197e-05
0.00092043
2.21532e-05
-0.000204894
0.000960699
-0.000119455
-0.000303412
0.00102231
3.74161e-06
-0.000152562
0.0010914
5.94498e-05
-6.61892e-06
0.00110919
-0.000108749
-4.03147e-05
0.00106409
-0.000169738
-6.72289e-05
0.00107904
-0.00022238
-2.18356e-05
0.00112754
-0.000326097
-1.75055e-05
-0.000154585
-1.04418e-05
0.00114493
5.79674e-05
6.20996e-05
0.00103074
2.6231e-05
8.97965e-05
0.000957131
-3.82734e-05
-4.27715e-05
0.000970812
0.000107312
-0.00027004
0.00102044
0.000271378
-0.000253838
0.00104506
0.000342335
-0.00010909
0.00102353
0.000491283
-9.37201e-05
0.00101045
0.000610869
-2.73206e-05
0.00105895
0.000449163
0.000128244
0.00110642
9.93922e-05
8.96741e-05
0.00113431
-1.38013e-05
-0.00010413
0.00116887
5.54366e-05
-9.63994e-05
0.0011501
-9.73981e-05
7.66594e-05
0.00107722
-0.000299869
0.00012453
0.00102288
-0.000161875
1.01523e-05
0.00100115
0.000135163
-1.48838e-06
0.000994257
0.000212687
9.73968e-05
0.00100663
0.000143116
0.000154478
0.00103471
-7.64011e-06
0.000118623
0.00105916
-0.000162103
4.58043e-05
0.0010557
-3.03041e-05
-1.98303e-05
0.00102053
0.000173258
-5.53942e-05
0.00100177
0.000195672
1.18858e-05
0.00101607
0.000142011
0.000105392
0.00103184
7.09682e-05
7.01948e-05
0.00102901
-8.72167e-05
-2.65509e-05
0.00103311
-0.000327931
2.33315e-05
0.00108104
-0.000362326
7.50125e-05
0.00112109
-0.000172807
3.13694e-05
0.00110764
-2.88055e-06
5.22198e-05
0.00109203
0.000108721
4.66697e-05
0.00108778
3.63782e-05
-0.00013941
0.00109127
-0.000110013
-0.000327123
0.00114053
-5.83161e-05
-0.000252938
0.00119955
-3.31427e-05
-7.33056e-05
0.00120659
-0.00014138
-3.664e-05
0.00118056
-0.000139048
-6.19794e-05
0.00119446
-0.000204377
-3.86068e-05
0.00124033
-0.000351053
-1.63026e-05
-0.000196534
1.37926e-05
0.00137819
-1.97154e-05
8.87868e-05
0.00125372
-1.32013e-05
7.77934e-05
0.00112673
-1.3479e-05
-7.57745e-05
0.00109561
9.02644e-05
-0.000246631
0.00110342
0.00019699
-0.0001534
0.00108532
0.000276195
3.46173e-05
0.00104214
0.000487139
3.38123e-05
0.00105004
0.00063032
4.44051e-05
0.00114212
0.000412691
0.000189677
0.00121385
7.18979e-05
0.000184952
0.00124053
1.20992e-05
3.24005e-06
0.00128615
9.24831e-05
-5.11129e-05
0.00130136
-2.6252e-05
4.02711e-05
0.00122836
-0.000225285
0.000126457
0.00114753
-0.000183863
8.96327e-05
0.00113385
8.47777e-05
-1.95482e-06
0.00113813
0.000219769
2.67204e-05
0.00112159
0.000148005
0.000115649
0.00111115
3.77658e-05
0.000121572
0.0011218
-4.7773e-05
6.37045e-05
0.00112426
4.55223e-05
2.58747e-05
0.00111253
0.00018209
1.33154e-05
0.0011192
0.000177963
6.31215e-05
0.00113793
0.000141416
0.00013388
0.00116272
4.5369e-05
9.98698e-05
0.00117991
-0.000117312
-3.07742e-05
0.00116441
-0.000300157
-6.64344e-06
0.00118183
-0.000362758
0.000110457
0.00122104
-0.000192033
8.94025e-05
0.00121332
2.62331e-05
7.03783e-05
0.00122909
9.92202e-05
8.32216e-05
0.00124899
1.21981e-06
-4.90721e-05
0.00121572
-9.4362e-05
-0.00029037
0.00122987
-6.28883e-05
-0.000332876
0.00129421
-7.84029e-05
-0.000171462
0.00132899
-0.000172725
-7.27545e-05
0.00133908
-0.000175645
-6.41874e-05
0.00134772
-0.000232316
-7.36126e-05
0.00136744
-0.000334093
-7.33858e-05
-0.000206255
3.67552e-06
0.00152489
-1.666e-05
5.55002e-05
0.00135114
-1.39414e-05
7.4093e-05
0.00120148
1.79246e-05
-0.000144543
0.00118079
0.000104043
-0.000292452
0.00117976
0.000150618
-9.71929e-05
0.00113099
0.000243248
0.000157482
0.00107108
0.000501715
0.00018564
0.00109798
0.000623141
0.000145464
0.00122259
0.000350542
0.00019689
0.00131801
2.20221e-05
0.000153878
0.00136437
-1.57966e-05
1.34867e-05
0.00142532
6.83238e-05
-1.09239e-05
0.00146725
8.63162e-06
4.2216e-05
0.00142661
-0.000152413
0.000104195
0.00133451
-0.000186805
0.000130677
0.00130503
2.29814e-05
3.21257e-05
0.00131922
0.000221814
-2.37583e-05
0.00127425
0.000178751
7.37285e-05
0.00121178
7.55704e-05
0.000140173
0.00120637
4.5868e-05
0.000123432
0.00122564
0.000130436
0.000106315
0.00124195
0.000194403
9.0161e-05
0.00126809
0.00015111
0.000115621
0.00128715
0.000118724
0.000182008
0.00130079
-7.7374e-06
0.000173922
0.00133992
-0.000203284
2.61446e-05
0.00133712
-0.000291213
-3.87213e-05
0.00130729
-0.000299686
9.57662e-05
0.00134214
-0.000186881
0.000111146
0.00137479
3.54528e-05
2.43809e-05
0.00140024
9.00803e-05
5.75718e-05
0.00143129
-6.74331e-05
5.58555e-05
0.00140959
-0.000103159
-0.000175173
0.00140083
-3.25825e-05
-0.000333191
0.00144538
-5.87638e-05
-0.00021268
0.00149475
-0.000183011
-8.93632e-05
0.00153029
-0.000229538
-9.93828e-05
0.00151018
-0.000242747
-0.000115662
0.00148905
-0.000250049
-0.000132316
-0.000131326
-8.85804e-05
0.00171168
2.19071e-05
-1.60511e-05
0.00158547
-3.2902e-05
0.000102436
0.00138126
2.55908e-05
-7.0824e-05
0.00132131
0.000157652
-0.000348325
0.0013542
0.000167402
-0.000239912
0.00131588
0.000246991
0.000108349
0.0012484
0.000535583
0.000260201
0.00129278
0.000606724
0.000268605
0.00139011
0.000287699
0.000305087
0.00141001
3.38914e-06
0.00018901
0.00142651
-3.10085e-05
-1.93314e-05
0.00153361
-1.48386e-05
-2.81547e-05
0.00163971
-7.05407e-05
0.000100245
0.00165863
-0.000154932
0.00018333
0.00159772
-0.000199308
0.000176543
0.00155494
-4.2443e-05
6.00015e-05
0.00157245
0.00020132
4.74409e-07
0.00153539
0.000220614
8.70233e-05
0.00143638
0.000120483
0.00016791
0.00138063
9.21551e-05
0.000187355
0.00136994
0.00017588
0.000207673
0.00139243
0.000211515
0.000161755
0.00144437
0.000138504
0.000133505
0.00148768
8.19642e-05
0.00021667
0.00147916
-6.14594e-05
0.000253046
0.00148212
-0.000287718
0.000125029
0.00151303
-0.000338152
-2.41247e-05
0.0014854
-0.000247142
2.26485e-05
0.00147646
-0.000152417
0.000102693
0.00153854
-1.1677e-05
3.0159e-05
0.0015914
3.33768e-05
2.66262e-05
0.00159071
-8.6954e-05
0.000101475
0.00157721
-9.5501e-05
-4.01835e-05
0.00161318
-3.06635e-05
-0.000274085
0.00165566
-5.732e-05
-0.000251271
0.0016495
-0.000173478
-9.74016e-05
0.00164713
-0.000255433
-0.000126458
0.00162141
-0.000261685
-0.000183074
0.00158506
-0.000205111
-0.000132349
-6.11047e-05
-9.7346e-05
0.00190838
-5.91363e-05
6.51943e-05
0.00191785
-0.000129745
0.000140649
0.00171864
-1.11083e-05
4.38584e-05
0.0015658
0.000212741
-0.000251764
0.00153927
0.000236028
-0.000338918
0.00149406
0.00026392
-7.76707e-05
0.0014455
0.000524042
0.000156114
0.001516
0.000528674
0.000267627
0.00159716
0.000192109
0.000363379
0.00153907
2.72071e-05
0.000251823
0.00147593
8.38318e-05