/*--------------------------------*- C++ -*----------------------------------*\
  =========                 |
  \\      /  F ield         | OpenFOAM: The Open Source CFD Toolbox
   \\    /   O peration     | Website:  https://openfoam.org
    \\  /    A nd           | Version:  10
     \\/     M anipulation  |
\*---------------------------------------------------------------------------*/
FoamFile
{
    format      ascii;
    class       volScalarField;
    location    "80";
    object      pMean;
}
// * * * * * * * * * * * * * * * * * * * * * * * * * * * * * * * * * * * * * //

dimensions      [0 2 -2 0 0 0 0];

internalField   nonuniform List<scalar> 
102400
(
0.000449142
0.000442244
0.000503768
0.000546948
0.000531905
0.000511019
0.000490301
0.000475096
0.000432733
0.000369943
0.000302247
0.000217449
0.000196771
0.000246567
0.000218618
0.000115401
0.00010614
0.000201545
0.000283725
0.000297643
0.000294436
0.000348032
0.000488364
0.000667681
0.000728313
0.000672639
0.000584938
0.000500465
0.000438487
0.000411994
0.000449359
0.000453938
0.000406107
0.000328624
0.000280254
0.00025093
0.000264263
0.000331147
0.000426007
0.000470815
0.000444877
0.000438639
0.000500728
0.000544189
0.000527991
0.000506938
0.000486595
0.000470199
0.00042717
0.000363749
0.000296283
0.000212134
0.000192125
0.000242119
0.000213064
0.000107533
9.75336e-05
0.00019435
0.000277885
0.000292663
0.00028998
0.000344689
0.00048622
0.000665505
0.00072641
0.000670681
0.000583487
0.000500121
0.000438421
0.000411293
0.000447842
0.000452411
0.000404725
0.000326943
0.000277318
0.000246649
0.000260161
0.000328204
0.000423732
0.000467636
0.000421055
0.000413478
0.000477435
0.000522236
0.000505425
0.000483856
0.000464049
0.00044527
0.000399053
0.000335276
0.000266248
0.00018256
0.000161867
0.000212866
0.000184295
7.89668e-05
6.91533e-05
0.000163629
0.000244972
0.000258923
0.000257833
0.000317593
0.000464471
0.000644858
0.000704189
0.000646531
0.000560884
0.000480647
0.000421296
0.000395252
0.000431661
0.000434612
0.000386607
0.000307873
0.000255799
0.000222322
0.000234421
0.000305006
0.00040352
0.000446613
0.000364081
0.000349169
0.000409544
0.000458665
0.000444457
0.000420374
0.000402782
0.000383595
0.000335238
0.000269914
0.000197214
0.000112067
9.15409e-05
0.000143728
0.000121378
2.38435e-05
1.27349e-05
9.81786e-05
0.000168884
0.000182436
0.000189501
0.000257726
0.000411294
0.000589559
0.000644674
0.000587018
0.000502761
0.000426921
0.00037165
0.000347293
0.000383138
0.000383435
0.000334454
0.000255273
0.000200728
0.00016523
0.000176647
0.000252966
0.000354984
0.000394711
0.00027309
0.000242958
0.000289867
0.000337739
0.000325549
0.00030199
0.000292751
0.000280842
0.00022881
0.000161952
8.7492e-05
5.47533e-06
-1.19073e-05
3.6824e-05
1.9208e-05
-6.81166e-05
-8.78016e-05
-1.87018e-05
4.50177e-05
6.68034e-05
8.73036e-05
0.000165209
0.00032032
0.000492198
0.000545793
0.000487735
0.00040616
0.000335241
0.000286449
0.000264066
0.000296583
0.000291436
0.000241312
0.000162702
0.000105551
6.90666e-05
8.32023e-05
0.00016758
0.000276852
0.00031208
0.000147536
0.000105994
0.000136811
0.000182745
0.000164802
0.000141571
0.000145448
0.000134916
8.06097e-05
1.59795e-05
-5.05335e-05
-0.000118737
-0.000132128
-0.000102534
-0.000127814
-0.000218576
-0.000247699
-0.000183036
-0.000112447
-7.22091e-05
-3.87354e-05
3.60377e-05
0.000181763
0.000344868
0.000404696
0.000352272
0.000272731
0.000206968
0.000161551
0.000144563
0.000177168
0.000166204
0.000113439
3.65219e-05
-2.18527e-05
-5.95112e-05
-4.31988e-05
5.0965e-05
0.000163023
0.00019008
8.58719e-07
-4.46183e-05
-2.07675e-05
2.55401e-05
1.3176e-05
-1.56404e-05
-1.57659e-05
-3.09602e-05
-9.23077e-05
-0.000158208
-0.000205492
-0.000247151
-0.000267325
-0.00027287
-0.000313058
-0.00040367
-0.00043492
-0.000363077
-0.000281605
-0.000231836
-0.000198871
-0.000134319
-8.17094e-06
0.000146052
0.000224642
0.00018845
0.000109348
4.30716e-05
-1.38941e-06
-1.38117e-05
2.45644e-05
7.31577e-06
-5.41124e-05
-0.000132067
-0.00018492
-0.000210603
-0.000187565
-9.01181e-05
1.74836e-05
4.08949e-05
-0.000143338
-0.000188249
-0.000166598
-0.000115375
-0.00012418
-0.000164839
-0.000177622
-0.000196026
-0.000267418
-0.000339922
-0.000373601
-0.000391431
-0.000406834
-0.000432956
-0.000478508
-0.000564528
-0.000596377
-0.00052989
-0.000463376
-0.000424734
-0.000398692
-0.000346974
-0.000239459
-8.70833e-05
1.65991e-05
2.81962e-06
-7.41545e-05
-0.00014241
-0.000184681
-0.000193608
-0.000157555
-0.000177233
-0.000244226
-0.000324401
-0.000367517
-0.000374919
-0.000338501
-0.00023803
-0.000141837
-0.000117111
-0.000279839
-0.000311683
-0.000294861
-0.000244664
-0.000250703
-0.000294706
-0.000315199
-0.000331717
-0.000412549
-0.000511893
-0.000549667
-0.000551094
-0.00055258
-0.000568701
-0.000603634
-0.000684537
-0.000722238
-0.000675955
-0.000633217
-0.00061194
-0.000591294
-0.00055717
-0.000478049
-0.000332328
-0.000204355
-0.000195517
-0.000261641
-0.00032333
-0.000362744
-0.000377101
-0.000347126
-0.000360722
-0.0004273
-0.000510251
-0.00054573
-0.000532279
-0.000482123
-0.000378667
-0.000293857
-0.000271163
-0.000421997
-0.000433725
-0.000418717
-0.000373944
-0.000370711
-0.000406891
-0.000421783
-0.000434933
-0.000525484
-0.000648407
-0.000696993
-0.000688674
-0.00068859
-0.000703087
-0.000730305
-0.000787619
-0.000814172
-0.000787668
-0.000773288
-0.000766035
-0.000751052
-0.000735716
-0.000685248
-0.000566725
-0.000427072
-0.000381218
-0.000434233
-0.000490875
-0.000531705
-0.000558706
-0.000533614
-0.000533811
-0.00059568
-0.000674973
-0.00069503
-0.00065824
-0.000606714
-0.000519318
-0.000444377
-0.000425296
-0.000565761
-0.000558458
-0.000543722
-0.00050093
-0.000478971
-0.000491867
-0.000497212
-0.000510289
-0.000591261
-0.000710921
-0.000762414
-0.000759525
-0.000776578
-0.000814308
-0.000841912
-0.000878818
-0.000901417
-0.00090227
-0.000916977
-0.000919506
-0.000907048
-0.000905086
-0.00087225
-0.000770528
-0.000627222
-0.000540162
-0.000561242
-0.000615466
-0.000664099
-0.000702664
-0.000685308
-0.00067448
-0.000732127
-0.000810838
-0.000822797
-0.000783663
-0.000747451
-0.000680113
-0.00060056
-0.000574938
-0.000657588
-0.000644443
-0.00062951
-0.000594941
-0.000560475
-0.000543196
-0.000529074
-0.000542207
-0.000612222
-0.000721153
-0.000779146
-0.000786097
-0.000809064
-0.000860603
-0.000894869
-0.000933796
-0.000976237
-0.00100842
-0.00103996
-0.00104804
-0.00103854
-0.001041
-0.00100871
-0.000907518
-0.000772128
-0.000678028
-0.000665481
-0.000701873
-0.000752947
-0.00080984
-0.00080943
-0.000787781
-0.000829841
-0.000913089
-0.000943724
-0.000925178
-0.000908353
-0.000843218
-0.00072949
-0.000672466
-0.000685973
-0.000678198
-0.000665201
-0.000629784
-0.000585587
-0.000552507
-0.000523212
-0.000541665
-0.000625244
-0.000735035
-0.000796659
-0.000803823
-0.0008194
-0.000858893
-0.000887687
-0.000917034
-0.000968824
-0.00103082
-0.00107922
-0.00110475
-0.00110695
-0.0011107
-0.00107448
-0.000967271
-0.000841298
-0.000760908
-0.000737305
-0.000755865
-0.000798845
-0.000871114
-0.000904224
-0.000877086
-0.000896159
-0.000980961
-0.00103213
-0.00103603
-0.00102906
-0.000953363
-0.00079588
-0.000702451
-0.000692777
-0.000701091
-0.000684063
-0.000636213
-0.000571919
-0.000532482
-0.000517442
-0.000560432
-0.000661233
-0.000764957
-0.000807933
-0.00079379
-0.000788138
-0.000820163
-0.000852128
-0.00087315
-0.00091381
-0.000977781
-0.00103248
-0.00106541
-0.00108019
-0.00108341
-0.0010442
-0.000941496
-0.000822888
-0.000743622
-0.000722074
-0.00074126
-0.000781384
-0.00086158
-0.000923714
-0.000910488
-0.00090701
-0.000974252
-0.00103522
-0.00105399
-0.00105275
-0.000985848
-0.000822798
-0.000707045
-0.000707112
-0.000730864
-0.000712344
-0.000664828
-0.000604882
-0.000565038
-0.000557894
-0.000608236
-0.000702034
-0.000773915
-0.000782598
-0.000745285
-0.000717846
-0.000731431
-0.000774534
-0.000813978
-0.000844971
-0.000881743
-0.000915971
-0.000936126
-0.000939509
-0.000937689
-0.0009045
-0.000817062
-0.000714577
-0.000651529
-0.000645527
-0.000671023
-0.000708189
-0.000772395
-0.000842519
-0.000850572
-0.000840593
-0.000874188
-0.000921234
-0.000944663
-0.000954166
-0.000924608
-0.000804803
-0.000704334
-0.000690572
-0.000735967
-0.000717785
-0.00068287
-0.000658526
-0.000636638
-0.000616055
-0.000626981
-0.000678716
-0.000720183
-0.000711657
-0.000667508
-0.00063224
-0.000628125
-0.000657752
-0.000695708
-0.000718322
-0.000733759
-0.00074936
-0.000760245
-0.000757466
-0.000751917
-0.000725011
-0.000662738
-0.000581572
-0.000534419
-0.000549887
-0.000591761
-0.000626452
-0.000665405
-0.000712955
-0.00072897
-0.000716291
-0.000723705
-0.000751029
-0.000758943
-0.000762437
-0.000767938
-0.000709633
-0.000654448
-0.000577888
-0.000631964
-0.000631224
-0.000621907
-0.000636373
-0.000642773
-0.000607312
-0.000564551
-0.000562662
-0.000578037
-0.000571394
-0.000547545
-0.00052828
-0.000525355
-0.000546388
-0.000577489
-0.000588305
-0.000584159
-0.000588781
-0.000605319
-0.000607639
-0.000597845
-0.000580416
-0.000542759
-0.000482909
-0.000438298
-0.000451518
-0.000499152
-0.000532228
-0.000554324
-0.000580881
-0.000587105
-0.000579788
-0.000583192
-0.000595081
-0.000583199
-0.000560221
-0.000565269
-0.0005523
-0.000535183
-0.000457795
-0.0004998
-0.000517136
-0.000536104
-0.000570843
-0.000595513
-0.000567565
-0.00050137
-0.000458129
-0.000440594
-0.000417857
-0.000401954
-0.000404268
-0.000412838
-0.000432873
-0.000468161
-0.000484865
-0.00047211
-0.000456605
-0.000462588
-0.000468439
-0.000459417
-0.000445685
-0.000435135
-0.000409998
-0.000374619
-0.000367838
-0.000393257
-0.000415602
-0.000431992
-0.000445087
-0.000438096
-0.000430288
-0.000436068
-0.000441601
-0.000424314
-0.000395474
-0.000394395
-0.000409245
-0.000422027
-0.00039627
-0.000419666
-0.000433714
-0.00045675
-0.0004945
-0.000526368
-0.000522778
-0.000478522
-0.000431593
-0.000392433
-0.000347509
-0.000319164
-0.000325927
-0.000341259
-0.000357018
-0.000381263
-0.000391053
-0.000371853
-0.000352832
-0.000352426
-0.000361678
-0.000365906
-0.000365831
-0.000371976
-0.000369538
-0.000345194
-0.000323755
-0.000327823
-0.000340217
-0.000351507
-0.000351021
-0.000329552
-0.000311937
-0.000315382
-0.000321631
-0.000309735
-0.000288036
-0.000294743
-0.000332619
-0.000368441
-0.00037301
-0.000374061
-0.000380113
-0.000405322
-0.000437289
-0.000458756
-0.000457507
-0.000429753
-0.000399226
-0.000365762
-0.000314861
-0.000272483
-0.000269905
-0.000286688
-0.000300657
-0.000313856
-0.000319703
-0.000303308
-0.00028852
-0.000288745
-0.000292557
-0.000293973
-0.000293191
-0.000298913
-0.000306745
-0.00029377
-0.000273095
-0.000280423
-0.000300473
-0.000312587
-0.000306977
-0.000284746
-0.00026692
-0.000266752
-0.000277649
-0.000282326
-0.000280774
-0.00029452
-0.000326662
-0.000359237
-0.000345194
-0.000335094
-0.00033293
-0.000351455
-0.000377451
-0.00039248
-0.000388463
-0.000363389
-0.000341068
-0.000322522
-0.000289996
-0.000255687
-0.000251785
-0.000264628
-0.000277408
-0.000288126
-0.000291671
-0.000275881
-0.000259184
-0.00025783
-0.000258565
-0.000255501
-0.000255716
-0.000263109
-0.00027541
-0.000274869
-0.000265396
-0.00027084
-0.000283807
-0.000287347
-0.000275969
-0.000249002
-0.000225968
-0.00022895
-0.000248834
-0.000264957
-0.00027497
-0.000292382
-0.000314971
-0.000338616
-0.00031672
-0.00030918
-0.000299264
-0.000306921
-0.000323892
-0.000332703
-0.000326173
-0.000306967
-0.000297294
-0.000298931
-0.000291047
-0.000267794
-0.000249511
-0.00023719
-0.000230074
-0.000229321
-0.000221784
-0.000199579
-0.00017922
-0.000177061
-0.000181901
-0.000184368
-0.000190355
-0.000197512
-0.000206993
-0.000209756
-0.000206249
-0.000210234
-0.000220586
-0.000223295
-0.000214877
-0.000197656
-0.000180105
-0.00018344
-0.000205027
-0.000227642
-0.000243034
-0.000262296
-0.000283755
-0.000305074
-0.000262805
-0.000268608
-0.000257095
-0.000246146
-0.000252947
-0.000263921
-0.000267087
-0.00025905
-0.000252736
-0.000260855
-0.000267408
-0.000258498
-0.000245778
-0.00022975
-0.00021298
-0.000204468
-0.000196077
-0.000178521
-0.000157826
-0.000148651
-0.00014947
-0.000148668
-0.000147749
-0.000147479
-0.000147407
-0.000148674
-0.000149713
-0.000152033
-0.000158031
-0.000161969
-0.000161261
-0.000158074
-0.000151431
-0.000149247
-0.000154898
-0.000163567
-0.000171525
-0.000187519
-0.000210983
-0.000237892
-0.000171926
-0.000180476
-0.00017046
-0.000157161
-0.00016172
-0.000175158
-0.000183566
-0.000178201
-0.00017051
-0.000176855
-0.000185945
-0.000182817
-0.000175696
-0.000164458
-0.000149803
-0.000141186
-0.00013822
-0.000135544
-0.000127256
-0.000119169
-0.000117174
-0.000115507
-0.000108791
-0.000104485
-0.000106851
-0.000115249
-0.000123392
-0.000128041
-0.000130767
-0.000128862
-0.000123674
-0.000120005
-0.000113428
-0.000107269
-0.000104648
-0.000103591
-0.00010415
-0.000111576
-0.000128441
-0.000150008
-8.06569e-05
-8.55562e-05
-7.91582e-05
-6.85465e-05
-7.05219e-05
-8.45921e-05
-9.51276e-05
-9.54462e-05
-9.37512e-05
-0.000101797
-0.000113721
-0.000114231
-0.000107839
-9.85575e-05
-8.75996e-05
-7.93396e-05
-7.51747e-05
-7.47408e-05
-7.11492e-05
-6.35459e-05
-5.76199e-05
-5.34098e-05
-4.40565e-05
-3.55739e-05
-3.82099e-05
-4.981e-05
-6.04182e-05
-6.85281e-05
-7.42998e-05
-7.29772e-05
-6.67759e-05
-6.43765e-05
-6.38046e-05
-6.12152e-05
-5.73762e-05
-5.22426e-05
-4.72688e-05
-4.85426e-05
-5.77638e-05
-6.9377e-05
4.44633e-06
1.22626e-08
-1.53645e-06
1.92495e-06
2.45411e-06
-7.16638e-06
-1.8003e-05
-2.05656e-05
-1.894e-05
-2.24118e-05
-2.84306e-05
-2.83284e-05
-2.25315e-05
-1.46827e-05
-6.52127e-06
1.22533e-06
6.4034e-06
8.35575e-06
1.05015e-05
1.73017e-05
2.7415e-05
3.48124e-05
3.94961e-05
4.37001e-05
4.24535e-05
3.58446e-05
3.15352e-05
2.96147e-05
2.5547e-05
2.25469e-05
2.22475e-05
1.92178e-05
1.27522e-05
7.79114e-06
5.96574e-06
6.37227e-06
9.72184e-06
1.24097e-05
1.1591e-05
8.72439e-06
0.000122054
0.000118668
0.000112943
0.000107881
0.0001045
9.73855e-05
8.89744e-05
8.73158e-05
9.0836e-05
9.29817e-05
9.28672e-05
9.32241e-05
9.61083e-05
0.000102753
0.000109125
0.000113469
0.000116664
0.000117291
0.000116806
0.00011951
0.000126176
0.000131615
0.000134241
0.000137399
0.000137016
0.000132552
0.000130639
0.000130226
0.000125255
0.000117807
0.000114909
0.000114722
0.000113367
0.000112446
0.000114095
0.000116165
0.000119281
0.000122662
0.000123414
0.000123142
0.000165183
0.00016328
0.000161316
0.000158647
0.000157659
0.000157379
0.000153848
0.000155176
0.000161236
0.000162944
0.000163142
0.000163497
0.00016339
0.000166616
0.000170184
0.000172942
0.000177541
0.000181616
0.000184306
0.000186389
0.000190306
0.000193999
0.0001949
0.00019802
0.000200161
0.000197722
0.000196674
0.000198171
0.000196755
0.00018967
0.000184398
0.000183642
0.000180359
0.000174649
0.000170853
0.000168194
0.000166538
0.000166251
0.000165824
0.000165672
0.000207023
0.000202798
0.000200008
0.00019771
0.000196151
0.000198606
0.0001979
0.000199848
0.000209585
0.000212719
0.000209497
0.000206761
0.000204125
0.000204975
0.000206755
0.000207156
0.00020972
0.000213657
0.000218826
0.000221996
0.000223801
0.000226605
0.000227224
0.000228927
0.00023132
0.00022977
0.00022751
0.000228119
0.000229272
0.000224742
0.000219096
0.000219022
0.000217344
0.00021305
0.000210234
0.000208519
0.000207541
0.000207972
0.000208135
0.000208136
0.000246622
0.000241936
0.000239058
0.000237024
0.000234163
0.000235571
0.000234648
0.000234437
0.000242394
0.000246714
0.000245687
0.000244924
0.000242469
0.00024154
0.0002428
0.000243742
0.000245677
0.000247687
0.000251523
0.000255647
0.000257066
0.000259038
0.000259738
0.000260206
0.000262431
0.000262201
0.000259742
0.000259527
0.000263024
0.000262404
0.00025895
0.000259224
0.000258419
0.000255428
0.000254662
0.000253961
0.000251982
0.000249762
0.000248845
0.000248362
0.000295735
0.000291319
0.000288029
0.000286262
0.000283872
0.000283768
0.000282166
0.000280428
0.000284526
0.000287953
0.000288181
0.000288004
0.000286993
0.000285668
0.000286527
0.00028771
0.000288104
0.000288208
0.000290362
0.000294515
0.000296261
0.000298827
0.000301732
0.000302276
0.000304281
0.000305827
0.00030394
0.000302814
0.000305042
0.000305504
0.000302716
0.000302877
0.000302185
0.000298781
0.000297524
0.000297834
0.00029777
0.000296191
0.000296176
0.000297219
0.000344209
0.000341795
0.000339915
0.00033803
0.000337173
0.000337031
0.000336258
0.000335058
0.000333875
0.000333561
0.000333219
0.000332206
0.000331639
0.000330158
0.000330035
0.000331738
0.00033191
0.000332901
0.000335649
0.00033984
0.000342036
0.000344489
0.00034915
0.000349536
0.000351128
0.000354667
0.000354123
0.000353235
0.000353962
0.000354489
0.000352272
0.000349721
0.000349039
0.000347646
0.000345567
0.000345309
0.000346084
0.000344249
0.000343541
0.00034514
-3.84274e-05
-4.81397e-05
4.32887e-05
9.16632e-05
0.000108315
6.17292e-05
-5.51734e-05
-9.8023e-05
4.10373e-06
0.000159911
0.000210473
0.000222885
0.000251931
0.000262379
0.000183284
6.02573e-05
2.49251e-05
8.51141e-05
0.000210549
0.000245075
0.000173061
0.000167305
0.000278108
0.000437936
0.000561019
0.000623749
0.000594287
0.00052301
0.000480112
0.000389897
0.00027526
0.000203028
0.000167855
0.000172176
0.000170446
0.000160001
0.000139176
0.000106806
7.06551e-05
2.61478e-05
-4.20326e-05
-5.11785e-05
4.12504e-05
8.93306e-05
0.000104848
5.71796e-05
-6.07019e-05
-0.000103295
-4.50691e-07
0.000155867
0.000205487
0.000217354
0.000246348
0.00025699
0.000178945
5.63127e-05
2.14871e-05
8.21632e-05
0.000207996
0.000242108
0.000169622
0.00016345
0.000274025
0.00043359
0.000555631
0.000618309
0.000588143
0.000516561
0.00047381
0.000384872
0.000272152
0.000201446
0.000167098
0.000170901
0.000168516
0.000157811
0.000137431
0.000105388
6.93011e-05
2.34953e-05
-6.72391e-05
-7.74747e-05
1.72939e-05
6.60925e-05
7.77535e-05
2.69431e-05
-9.20948e-05
-0.000136659
-3.29198e-05
0.000124352
0.000172986
0.000182246
0.000208393
0.000218991
0.000142635
2.07984e-05
-1.3953e-05
4.75105e-05
0.000175532
0.000212126
0.000140911
0.000135032
0.000244628
0.000404025
0.000525821
0.000585035
0.000551583
0.000480807
0.000443149
0.000356321
0.000246278
0.000178694
0.000147525
0.000151368
0.000148827
0.000138124
0.000116364
8.42691e-05
4.89307e-05
9.05745e-07
-0.000119295
-0.0001307
-3.83383e-05
8.86662e-06
1.65214e-05
-3.63984e-05
-0.000156826
-0.00020446
-9.68626e-05
6.54574e-05
0.000112154
0.000117941
0.000136133
0.000142055
6.97106e-05
-5.13506e-05
-9.11817e-05
-3.00461e-05
0.000106327
0.000153507
8.82945e-05
8.1288e-05
0.000188139
0.000341516
0.000453928
0.000506697
0.000474766
0.000409353
0.000380825
0.000299841
0.000193265
0.000128793
0.000100227
0.000103077
9.97962e-05
9.05085e-05
6.98608e-05
3.72171e-05
3.092e-06
-4.76331e-05
-0.000199253
-0.00021636
-0.000128386
-7.97543e-05
-6.99165e-05
-0.000123544
-0.000252072
-0.000305175
-0.000187601
-1.75167e-05
2.98377e-05
2.97654e-05
3.70787e-05
3.21573e-05
-3.81166e-05
-0.000157254
-0.0001995
-0.000136454
1.30417e-05
7.96125e-05
2.50326e-05
1.54085e-05
0.000111104
0.000249306
0.000348954
0.000398871
0.000371891
0.000306044
0.000282236
0.000213095
0.000115518
5.04815e-05
2.22692e-05
1.95457e-05
1.41507e-05
8.27599e-06
-7.14441e-06
-3.69705e-05
-7.05924e-05
-0.000124479
-0.000312855
-0.000325474
-0.000237672
-0.000177102
-0.00015512
-0.00021325
-0.000362652
-0.000427777
-0.000306247
-0.000130632
-7.86789e-05
-8.55579e-05
-9.41339e-05
-0.000106284
-0.000171909
-0.000281981
-0.000323663
-0.000258999
-9.78936e-05
-1.0334e-05
-4.90426e-05
-6.68827e-05
8.79886e-06
0.000128192
0.000214776
0.000259837
0.000233863
0.00015864
0.000143272
9.88416e-05
1.39346e-05
-5.5613e-05
-8.80789e-05
-9.79707e-05
-0.000106143
-0.000106351
-0.000109727
-0.000132437
-0.000169484
-0.00023671
-0.000441955
-0.000441162
-0.000342293
-0.000273823
-0.00025019
-0.000320457
-0.00048225
-0.000558886
-0.000447203
-0.000275627
-0.000230669
-0.000250766
-0.000257914
-0.00026878
-0.000323702
-0.000414822
-0.000445052
-0.000385317
-0.000228976
-0.000132051
-0.000155112
-0.000183128
-0.000130588
-2.99594e-05
4.55852e-05
8.44169e-05
5.15236e-05
-2.18065e-05
-1.98811e-05
-3.99482e-05
-0.000112558
-0.000182645
-0.000218533
-0.000231912
-0.000240511
-0.000232818
-0.000226882
-0.000244211
-0.000288568
-0.000368113
-0.000551393
-0.000543575
-0.000457004
-0.000409314
-0.000397135
-0.000455564
-0.000610483
-0.000695572
-0.000596077
-0.00043603
-0.000400533
-0.000422603
-0.00042725
-0.000432859
-0.000467888
-0.000539765
-0.000575465
-0.000545347
-0.000406082
-0.00029747
-0.000301878
-0.000338237
-0.000307869
-0.000216141
-0.000147667
-0.000117934
-0.000149335
-0.000210106
-0.000193639
-0.000192232
-0.000246923
-0.000316118
-0.000351092
-0.000356414
-0.000364662
-0.000355998
-0.000346302
-0.000363326
-0.000411127
-0.000489712
-0.000630814
-0.000638719
-0.000579159
-0.000560514
-0.000565005
-0.000609638
-0.000734503
-0.000806591
-0.000723195
-0.000584585
-0.000556373
-0.000566951
-0.000558665
-0.000553303
-0.000571777
-0.0006451
-0.000710681
-0.000714709
-0.000586457
-0.000462842
-0.000444425
-0.000482739
-0.000469156
-0.000382358
-0.000316914
-0.000293876
-0.0003227
-0.000375319
-0.000359724
-0.000340783
-0.000371504
-0.000423684
-0.000449395
-0.00045117
-0.00045978
-0.000448588
-0.000440746
-0.000460243
-0.000500597
-0.00056412
-0.000674267
-0.000706926
-0.00067942
-0.000681151
-0.000691969
-0.000718176
-0.000815123
-0.00087019
-0.000811339
-0.00070263
-0.00067724
-0.000670525
-0.000650895
-0.00064405
-0.000659182
-0.000736047
-0.000831523
-0.000857609
-0.000743456
-0.000602524
-0.000558674
-0.000595628
-0.000589473
-0.000507174
-0.000442826
-0.000421435
-0.0004384
-0.00048937
-0.000491079
-0.000476099
-0.000488485
-0.000515561
-0.000533003
-0.000533316
-0.000537004
-0.000521542
-0.0005098
-0.000517533
-0.000538069
-0.000592683
-0.00066764
-0.000728341
-0.000731584
-0.000749312
-0.000765767
-0.000779509
-0.000851474
-0.000904876
-0.000871144
-0.000773011
-0.000733977
-0.000717773
-0.000700271
-0.00070863
-0.00072059
-0.000791823
-0.0009043
-0.000953257
-0.000864676
-0.000728574
-0.000673725
-0.000706335
-0.000699656
-0.000610607
-0.0005321
-0.00050226
-0.000492661
-0.000532388
-0.00056944
-0.000591298
-0.000609289
-0.000616423
-0.000622311
-0.000615174
-0.000603951
-0.000581741
-0.000561578
-0.00054759
-0.000542843
-0.000584206
-0.000637713
-0.000706025
-0.000721908
-0.000747126
-0.000781258
-0.000801522
-0.000860705
-0.0009245
-0.000915342
-0.000822524
-0.000752246
-0.000707316
-0.000679357
-0.000691032
-0.000708499
-0.000776797
-0.000887634
-0.000948804
-0.000916239
-0.000837151
-0.000798761
-0.000823958
-0.000811995
-0.000717719
-0.000621172
-0.000562787
-0.000523402
-0.000551547
-0.0006114
-0.000665355
-0.000695981
-0.000685433
-0.00068225
-0.000683528
-0.00067184
-0.000640159
-0.000603558
-0.000566909
-0.000537067
-0.00056228
-0.000623391
-0.000693047
-0.000707808
-0.000729769
-0.00076577
-0.000794329
-0.000853301
-0.000926138
-0.000933396
-0.000845292
-0.000752029
-0.000683008
-0.000634893
-0.000631682
-0.000644107
-0.000703385
-0.000796621
-0.000860868
-0.000886347
-0.000878661
-0.000872582
-0.000888422
-0.000865634
-0.000780876
-0.000676983
-0.00058995
-0.000531953
-0.000554196
-0.000632354
-0.000712456
-0.000741608
-0.000708354
-0.000692534
-0.000704754
-0.000705879
-0.000675678
-0.000624473
-0.000576594
-0.000537858
-0.000551772
-0.00062293
-0.000689546
-0.000701486
-0.000719474
-0.000745576
-0.000774132
-0.000829555
-0.000898037
-0.000919395
-0.000838639
-0.000723212
-0.000645703
-0.000609721
-0.000617301
-0.000633669
-0.00066481
-0.00072595
-0.000788766
-0.000841975
-0.000870105
-0.000875507
-0.000877247
-0.000844736
-0.00077753
-0.000699169
-0.00062245
-0.000558963
-0.00056154
-0.000636583
-0.000734476
-0.000770425
-0.000716084
-0.000669166
-0.000667309
-0.000679002
-0.000656108
-0.000598676
-0.000556201
-0.000532022
-0.000549816
-0.00059945
-0.00066177
-0.000680249
-0.000703374
-0.000730723
-0.000746756
-0.000774397
-0.000825654
-0.000869745
-0.000816713
-0.000689094
-0.000596686
-0.000569184
-0.000604197
-0.000652525
-0.000679052
-0.000707757
-0.000738261
-0.000766598
-0.000783857
-0.000788536
-0.000792331
-0.000766097
-0.000728427
-0.000700912
-0.000673035
-0.000634988
-0.000626075
-0.00066727
-0.000734587
-0.000752729
-0.00068612
-0.000605534
-0.000576734
-0.000579551
-0.000568833
-0.000536287
-0.000521655
-0.000520627
-0.000537805
-0.000533583
-0.0005816
-0.0006124
-0.000653498
-0.000697462
-0.000723476
-0.000741174
-0.000775436
-0.000822131
-0.000796097
-0.000673943
-0.000558705
-0.000514007
-0.000544521
-0.000602901
-0.00063496
-0.000657737
-0.000668338
-0.000658524
-0.000649646
-0.000644896
-0.000646725
-0.000637932
-0.000629141
-0.00063561
-0.000647585
-0.000646997
-0.000656125
-0.000683707
-0.000704254
-0.000675732
-0.000586779
-0.000509294
-0.000485755
-0.000493198
-0.000493144
-0.000489451
-0.000508451
-0.000523275
-0.000514311
-0.000460237
-0.000485539
-0.000511793
-0.000554016
-0.000605948
-0.000650065
-0.000673659
-0.000698435
-0.000734741
-0.000721491
-0.000629926
-0.00053026
-0.000475686
-0.000479226
-0.000520855
-0.000558207
-0.000592913
-0.000600829
-0.000573152
-0.000539344
-0.000512143
-0.000515346
-0.000534563
-0.000549694
-0.000558962
-0.000570496
-0.00058674
-0.000609719
-0.000633407
-0.000635683
-0.00058411
-0.000484748
-0.000396838
-0.000367136
-0.000379775
-0.00039262
-0.000400343
-0.000426225
-0.000458955
-0.000459842
-0.000406513
-0.000408536
-0.000404596
-0.000422507
-0.000460983
-0.000509253
-0.000541133
-0.000551165
-0.000561019
-0.000543093
-0.000474091
-0.000404682
-0.000360314
-0.000346777
-0.000370668
-0.000407365
-0.000449922
-0.000480067
-0.000469909
-0.000429648
-0.000383422
-0.000371719
-0.000391329
-0.000414399
-0.000431053
-0.000436877
-0.000451239
-0.000474145
-0.000500605
-0.000511232
-0.000478307
-0.000394124
-0.000308898
-0.000268342
-0.000274716
-0.000291005
-0.000298678
-0.0003198
-0.000362255
-0.000394893
-0.00031811
-0.000329539
-0.000323568
-0.000316506
-0.000316541
-0.000345874
-0.000381835
-0.000395193
-0.000401073
-0.000392317
-0.000353708
-0.000309961
-0.000274736
-0.000244799
-0.000239039
-0.000254663
-0.000285396
-0.000317342
-0.000325217
-0.000306228
-0.000269975
-0.000246591
-0.000251531
-0.000267542
-0.000278134
-0.000278444
-0.000286818
-0.000306265
-0.000326891
-0.000343339
-0.00034013
-0.000300253
-0.000244858
-0.000203962
-0.000198277
-0.000206087
-0.000211137
-0.000222556
-0.000252017
-0.000289193
-0.000240023
-0.000249046
-0.000240158
-0.000227523
-0.000215616
-0.000220328
-0.000246999
-0.000273014
-0.000302034
-0.00032839
-0.000322908
-0.000299163
-0.000273736
-0.000242747
-0.000222594
-0.000221745
-0.000234407
-0.000250473
-0.000260143
-0.000259753
-0.000240154
-0.000208661
-0.000192801
-0.000200148
-0.000211963
-0.000210968
-0.000210371
-0.000221901
-0.000238815
-0.000258881
-0.000280107
-0.000282856
-0.000264104
-0.000234317
-0.000211904
-0.000201203
-0.000194821
-0.000195812
-0.000203527
-0.000219939
-0.000256982
-0.000243363
-0.000213256
-0.000180821
-0.000154987
-0.000145822
-0.000162337
-0.000194146
-0.00024826
-0.000306434
-0.000329992
-0.000317926
-0.000297968
-0.000277278
-0.000262359
-0.000260551
-0.000262296
-0.000260027
-0.000257196
-0.000254371
-0.000241653
-0.000217284
-0.000199481
-0.000199452
-0.000211693
-0.000216268
-0.000207033
-0.000206631
-0.000221087
-0.000240037
-0.000261243
-0.00027091
-0.000263468
-0.000244188
-0.000230951
-0.00022916
-0.000230696
-0.000242001
-0.000252448
-0.000258593
-0.000280562
-0.000254805
-0.000222593
-0.000196672
-0.000176854
-0.000164592
-0.000169304
-0.000189933
-0.000228785
-0.000274371
-0.000294014
-0.000279087
-0.000258727
-0.00024503
-0.000237117
-0.000239464
-0.000243072
-0.00023489
-0.000219694
-0.000209408
-0.000200926
-0.000189863
-0.000182009
-0.000185874
-0.000198916
-0.000205047
-0.000197089
-0.000194379
-0.000208972
-0.000229133
-0.000249077
-0.000259857
-0.000255613
-0.000247543
-0.00024568
-0.000253581
-0.000261882
-0.000277883
-0.000292987
-0.000294688
-0.000256656
-0.000246765
-0.000229378
-0.000214606
-0.000208815
-0.00020419
-0.000204771
-0.000209193
-0.000219823
-0.000238627
-0.000247338
-0.000235045
-0.000218247
-0.000209609
-0.000208841
-0.000215353
-0.000221563
-0.000213784
-0.000194097
-0.00017927
-0.00017357
-0.000167333
-0.000159963
-0.000156798
-0.000158475
-0.000156249
-0.000146186
-0.000139723
-0.000146897
-0.000162597
-0.000182157
-0.000199528
-0.000205899
-0.000207314
-0.000209141
-0.00021205
-0.000213628
-0.000225769
-0.000243836
-0.000255334
-0.000161892
-0.000160656
-0.000150799
-0.000141859
-0.000145833
-0.000155112
-0.00016253
-0.000166505
-0.000172891
-0.00018874
-0.000204037
-0.000200345
-0.000187681
-0.000177474
-0.000168777
-0.000162337
-0.000158581
-0.000150523
-0.000136858
-0.000125529
-0.000120838
-0.000116338
-0.0001069
-9.9861e-05
-9.98791e-05
-0.000101723
-9.99276e-05
-9.85288e-05
-0.000100663
-0.000106846
-0.000118373
-0.000134097
-0.000144753
-0.000150903
-0.000153481
-0.000149709
-0.000141012
-0.00013958
-0.000148241
-0.00015723
-8.12207e-05
-7.93313e-05
-7.18198e-05
-6.11857e-05
-6.39683e-05
-7.82373e-05
-9.19451e-05
-0.000103258
-0.000113759
-0.000130094
-0.000149918
-0.000154463
-0.00014678
-0.000136902
-0.000124352
-0.00010936
-9.70851e-05
-8.92675e-05
-8.07967e-05
-7.13252e-05
-6.47641e-05
-6.10712e-05
-5.38216e-05
-4.58646e-05
-4.56594e-05
-4.96242e-05
-5.08301e-05
-5.37446e-05
-6.02812e-05
-6.68375e-05
-7.40683e-05
-8.59771e-05
-9.88938e-05
-0.000108319
-0.000112132
-0.000106586
-9.3479e-05
-8.25455e-05
-8.04699e-05
-8.13206e-05
-1.9231e-07
-2.56664e-06
-4.61841e-06
-8.16834e-08
2.82696e-06
-3.40694e-06
-1.15963e-05
-1.75017e-05
-1.99614e-05
-2.48959e-05
-3.43844e-05
-3.77031e-05
-3.1765e-05
-2.42775e-05
-1.74919e-05
-9.08274e-06
-3.5814e-06
-2.13097e-06
-2.04626e-06
-3.66252e-07
1.24923e-06
-3.93184e-07
-2.10192e-06
1.40181e-06
2.53759e-06
2.57224e-07
2.76707e-06
5.22679e-06
1.97621e-06
-9.24903e-07
-1.7617e-06
-6.32728e-06
-1.44518e-05
-2.14588e-05
-2.6519e-05
-2.72632e-05
-2.07217e-05
-1.0444e-05
-3.57867e-06
-4.67688e-07
0.000124531
0.000119603
0.000113815
0.000110792
0.000109904
0.000105579
0.000101471
0.000102331
0.000106162
0.000106644
0.000100628