/*--------------------------------*- C++ -*----------------------------------*\
  =========                 |
  \\      /  F ield         | OpenFOAM: The Open Source CFD Toolbox
   \\    /   O peration     | Website:  https://openfoam.org
    \\  /    A nd           | Version:  10
     \\/     M anipulation  |
\*---------------------------------------------------------------------------*/
FoamFile
{
    format      ascii;
    class       volScalarField;
    location    "10";
    object      p;
}
// * * * * * * * * * * * * * * * * * * * * * * * * * * * * * * * * * * * * * //

dimensions      [0 2 -2 0 0 0 0];

internalField   nonuniform List<scalar> 
25600
(
0.00553508
0.00378937
0.00483749
-0.00150109
0.00664932
0.00543408
-0.00201548
-0.00479679
0.000657714
0.00361562
0.0048827
0.00884288
0.00651946
-0.00501894
-0.0150636
-0.00743417
-0.00445001
0.00119455
-0.000911719
-0.0148928
-0.00807343
0.00215889
0.000160827
0.0092081
0.00936888
-0.0114796
-0.0171037
-0.00269451
0.00742583
0.00165197
0.00144265
-0.00129657
-0.00531876
0.00413052
0.00384273
0.00758814
0.0105338
-0.0031751
0.0114254
0.0212834
-0.00103147
-0.00503346
-0.00502638
-0.0130166
-0.00470397
-0.00572729
-0.0126736
-0.0158516
-0.012027
-0.00698476
-0.00680688
-0.00354088
-0.00489885
-0.0140344
-0.0261395
-0.0190435
-0.0169169
-0.0116264
-0.0129984
-0.0277008
-0.0214502
-0.00970155
-0.012299
-0.00230821
0.000409018
-0.0187588
-0.0241612
-0.0116213
-0.00407174
-0.0106142
-0.00942438
-0.0126487
-0.0182029
-0.00791838
-0.00797086
-0.00488814
-0.00176635
-0.0155624
0.000165018
0.0104478
0.000823469
-0.000238335
0.00103658
-0.00574669
0.00130876
0.00205953
-0.0033253
-0.0049004
-0.00260677
-0.000255349
-4.06848e-05
0.00538744
0.0025993
-0.0095784
-0.0188374
-0.0100823
-0.00726747
-0.00302839
-0.00590411
-0.01818
-0.0124232
0.000854241
-0.00421643
0.00414057
0.00333127
-0.0157638
-0.0213079
-0.00816397
0.00365561
0.000723021
-0.000966986
-0.00497547
-0.0097188
0.000681437
0.00185871
0.00352645
0.00701888
-0.00767626
0.00706226
0.0157905
-0.00271873
-0.00319901
-0.00362033
-0.0106339
-0.00368419
-0.00358531
-0.0120004
-0.0146689
-0.00513562
-0.00371088
-0.00366603
0.00225412
-0.00284171
-0.0148991
-0.0247444
-0.0175328
-0.0141062
-0.00750657
-0.00907806
-0.0226402
-0.0161648
-0.00358655
-0.00774172
0.000796879
0.0018768
-0.0179428
-0.026411
-0.0124864
-0.00407593
-0.00705866
-0.00445627
-0.0105251
-0.0133848
-0.00344572
-0.000869248
-0.00010253
0.00311259
-0.0127459
0.00183765
0.0142891
-0.00323821
0.000355376
0.00379065
-0.00688518
0.00167264
-0.00128547
-0.00966675
-0.0123263
-0.00168524
-0.00108166
9.73792e-05
0.00791601
0.00109218
-0.0130258
-0.0235351
-0.0149735
-0.0129306
-0.00913593
-0.00599516
-0.017466
-0.014158
-0.00169694
-0.00447911
0.00138258
0.00298704
-0.0182326
-0.0234048
-0.0126557
0.000103291
-0.00955924
-0.00309926
-0.0066809
-0.0107493
0.00162259
0.0025524
0.00348728
0.00692938
-0.00549748
0.0049853
0.0200894
-0.00519424
-0.00570474
-0.00379256
-0.00657498
-0.00284256
-0.00409246
-0.00791959
-0.00964032
-0.00273391
-0.0031478
-0.00205985
0.00562802
-0.000659373
-0.0154525
-0.0240248
-0.0169791
-0.0136045
-0.0126093
-0.00731154
-0.0193178
-0.0161408
-0.00684521
-0.00566357
0.00168221
0.00348455
-0.0195761
-0.0240032
-0.0124668
-0.00278502
-0.0113434
-0.0109734
-0.00700031
-0.0128851
0.000118802
0.000439625
0.00234799
0.00272226
-0.00668008
0.00347929
0.0147104
-0.00433719
-0.005437
0.00094741
-0.00540957
0.00191224
-0.00207627
-0.0065996
-0.00789911
0.000900305
-0.000811477
-0.00213782
0.00466926
0.00193059
-0.0138197
-0.0228265
-0.0139241
-0.011369
-0.0134417
-0.00712926
-0.0169997
-0.0130501
-0.000777412
-0.00432099
0.00386622
0.00934783
-0.0189212
-0.0262099
-0.0114194
0.000908105
-0.00606881
-0.00959245
-0.00694923
-0.0141659
0.00103806
0.00130675
0.00372858
0.00571039
-0.00459741
0.00493225
0.0149376
-0.00444348
-0.0048706
0.000926678
-0.00694356
-0.00314362
0.000180507
-0.00684528
-0.00903455
0.00197528
-0.00371894
-0.00458098
-9.96151e-05
0.000868518
-0.0128025
-0.0234394
-0.0168283
-0.0100178
-0.0120604
-0.00797977
-0.0209087
-0.013577
-0.00502585
-0.00276578
0.00314221
0.00716913
-0.020412
-0.0277492
-0.0131631
-0.00436611
-0.00690242
-0.0054992
-0.00680152
-0.0148414
-0.00526686
0.00127321
0.00379717
0.00484758
-0.00556865
0.00508038
0.0155674
-0.00382754
-0.00360382
-0.000665282
-0.00595298
-0.00409759
0.00148751
-0.00649871
-0.0107222
0.00112931
-0.000886964
-0.00359073
-0.00234309
0.00170029
-0.0114588
-0.0232689
-0.0166975
-0.0102973
-0.0089591
-0.00794961
-0.0216783
-0.0142814
-0.00386643
-0.00189754
0.00421493
0.00448577
-0.0190394
-0.0234247
-0.0150186
-0.00594546
-0.0107672
-0.00746421
-0.00525255
-0.015332
-0.00421079
0.00264697
0.00398765
0.00326009
-0.00431724
0.00454529
0.0147105
-0.00428313
-0.00617767
-0.00134098
-0.00737405
-0.00388349
-0.000300769
-0.00605572
-0.0102559
-0.00346014
-0.000700913
0.000990425
0.00115971
0.00334865
-0.00983204
-0.0214144
-0.017241
-0.0117713
-0.0073716
-0.0071407
-0.0228798
-0.0162109
-0.00178827
-0.00132926
-0.000637212
0.00369302
-0.0174744
-0.0332336
-0.0172166
-0.00310429
-0.0164919
-0.0115688
-0.00317076
-0.0176779
-0.00821959
0.00243102
0.00748294
0.000436505
-0.00606142
0.00706608
0.0120742
-0.00430486
-0.011434
-0.00532465
-0.0071096
-0.00393592
-0.00163747
-0.00631287
-0.00453419
-0.00466551
0.00294814
0.000308785
0.00122614
0.00302123
-0.0086995
-0.0201984
-0.018859
-0.0115634
-0.0069928
-0.00630515
-0.0245174
-0.0209297
-0.00496454
0.00126945
-0.00028391
0.00403282
-0.0201214
-0.0301189
-0.01887
-0.0044726
-0.018428
-0.0139453
-0.00121375
-0.0177411
-0.0163415
-0.000527684
0.00961593
-0.00103827
-0.00845198
0.0118995
0.0112529
-0.000489522
-0.0115563
-0.0105016
-0.00607695
-0.00282318
-0.00286323
-0.00881157
-0.00325522
-0.00309737
-0.000397748
-0.00164135
0.000459937
0.00132424
-0.00449466
-0.0199628
-0.0189586
-0.00898789
-0.00558586
-0.00967037
-0.0212024
-0.0234292
-0.00949949
-0.00589989
-0.000373616
0.00193654
-0.0230618
-0.0269877
-0.0184913
-0.00802689
-0.0171429
-0.014624
-0.00145841
-0.0152847
-0.0159416
-0.000826675
0.00685272
-0.00174723
-0.00793648
0.0125533
0.011004
-0.0037233
-0.00566308
-0.00681905
-0.00777751
-0.000117672
-0.000781629
-0.00954326
-0.00625289
-0.00170296
-0.00439928
-0.00172491
0.00144618
-0.00173242
-0.00402427
-0.0168446
-0.0174892
-0.0087068
-0.00459162
-0.0112437
-0.0168185
-0.0185003
-0.00966438
-0.00801393
-0.000701288
0.00030114
-0.0251439
-0.0311642
-0.0163167
-0.0069445
-0.0150749
-0.0123996
-0.00392037
-0.00916603
-0.00772904
0.00202015
0.00771139
0.000838252
-0.0044553
0.0105787
0.0114059
-0.00278603
-0.00419672
-0.00456086
-0.0103762
0.000733708
0.00062735
-0.00964905
-0.00756119
-0.00130379
0.00136525
0.00252974
0.000406856
-0.00481353
-0.00865724
-0.0145011
-0.0166116
-0.0147289
-0.00825733
-0.00784837
-0.0206174
-0.01901
-0.00600555
-0.00297206
0.000845243
-0.00166844
-0.0285399
-0.0298724
-0.0167018
-0.00328975
-0.0121282
-0.0145626
-0.00692941
-0.00564254
-0.00689123
0.00224088
0.00418278
-0.000918076
-0.00921555
0.00863248
0.0135188
0.00267673
-0.00205023
-0.0037346
-0.0082869
0.000920682
0.00332648
-0.0115658
-0.0122956
0.00326698
0.0029358
0.00400581
0.000758339
-0.00233662
-0.0103439
-0.0130026
-0.0128495
-0.00878424
-0.00308057
-0.00796047
-0.0200594
-0.0212613
-0.0039514
-0.00308422
0.00204204
-0.00149864
-0.0296179
-0.0296076
-0.0142473
-0.00559045
-0.00878063
-0.0149153
-0.00370861
-0.00458922
-0.00671979
0.00486248
0.0100383
-0.00185725
-0.0123727
0.0080679
0.0170148
0.00465709
-0.00154755
-0.000259149
-0.00441729
0.00171775
0.00721752
-0.0105249
-0.0164255
0.00345758
0.00291031
-3.08681e-06
-0.000149374
-0.00256804
-0.0106615
-0.0116231
-0.0105808
-0.00966297
-0.00377772
-0.00169908
-0.0170451
-0.0201212
-0.00408176
-0.0027148
0.00267545
0.000762844
-0.0308244
-0.0293823
-0.00915712
-0.0101465
-0.00890291
-0.00906781
0.000711336
0.00200592
-0.00207137
0.00448898
0.0101966
0.000981893
-0.00349393
0.0077042
0.0138639
0.00685197
-0.003644
-0.00437378
-0.00434766
0.00171341
0.00691667
-0.00725576
-0.0162596
-0.00449103
0.00651948
0.00149997
-0.0027552
-0.00441321
-0.00825009
-0.0104835
-0.00864517
-0.0107319
-0.00851777
-0.001932
-0.0120055
-0.0159934
-0.00613563
-0.00573792
0.00323076
0.0016301
-0.0297224
-0.0215668
-0.00853961
-0.011093
-0.0146966
-0.00782634
2.61726e-05
-0.0024491
-0.00451702
0.0011243
0.0096284
0.00549947
-0.00379394
0.00371766
0.0182939
0.0063621
-0.00422678
-0.0117044
-0.00735949
0.00299463
0.00771417
-0.0063254
-0.0141022
-0.00766294
0.00550028
0.00758791
-0.00198464
-0.00504534
-0.00743484
-0.0113668
-0.00564256
-0.0127595
-0.0121347
-0.00639046
-0.0129417
-0.0115791
-0.0060744
-0.00487042
0.00243473
0.00281821
-0.0244323
-0.016463
-0.00711164
-0.0112093
-0.014471
-0.00937629
4.65047e-05
0.00102982
-0.00304494
0.00303693
0.0118339
0.00585793
-0.0026922
0.00477598
0.0145119
0.00441113
-0.00424337
-0.00852419
-0.01008
0.00305966
0.0100791
-0.00474784
-0.0149178
-0.00913069
0.00148076
0.00994014
0.00280902
-0.00297548
-0.00555786
-0.000325207
-0.00328329
-0.0148235
-0.0151769
-0.00671544
-0.00822078
-0.00812301
-0.00460507
-0.00834481
-0.000748149
0.00300381
-0.0209515
-0.0166802
0.000305725
-0.00779819
-0.0132631
-0.00946375
0.000565415
0.00375115
-0.000645253
0.00373921
0.0116613
-0.00044099
-0.00101745
0.00911956
0.012796
0.00400542
-0.00547112
-0.00921749
-0.00543468
0.00171431
0.00648599
-0.00350564
-0.0113751
-0.00676514
0.00161567
0.0102658
0.00624194
-0.000492346
-0.00224568
-0.00484519
-0.00423871
-0.01133
-0.0126838
-0.00300436
-0.00298865
-0.00778934
-0.00484516
-0.00762862
-0.000602628
0.00414564
-0.00953448
-0.00946721
0.00459342
-0.00258143
-0.00679321
-0.00581134
-0.000546677
0.00388487
0.00217088
0.00267091
0.00889932
0.00578503
0.00455317
0.011524
0.0151822
0.00179124
-0.00892779
-0.0100146
-0.00624186
0.000526078
0.00574569
-0.00201263
-0.00912731
-0.0031157
0.00301348
0.00781289
0.00605236
-0.00124822
-0.00513153
-0.00639079
-0.00319875
-0.00600431
-0.0108858
-0.00268037
0.000111753
-0.00614559
-0.00350782
-0.00268264
0.00200593
0.00395367
-0.00827537
-0.0101628
0.00175231
0.00148675
-0.000926713
0.000692227
0.000909602
0.00329704
0.00242563
0.00311418
0.00839953
0.00855464
0.00533263
0.0119049
0.0144117
-0.00212795
-0.0113427
-0.0095282
-0.0036181
0.00348551
0.00491514
-0.00225513
-0.00684155
-0.000955673
0.00369699
0.00884903
0.00724247
-0.000260216
-0.00358388
-0.00350695
0.000160825
-0.00245399
-0.00829442
-0.00211538
0.000414522
-0.00253079
-0.00317437
-0.000890164
0.00188008
0.000219115
-0.0106143
-0.00927474
0.00015964
0.00352756
0.000971797
0.0010388
0.00211418
0.00404226
0.00337883
0.00470863
0.00821442
0.00898212
0.00383155
0.011252
0.011667
0.00302984
-0.000551377
-0.00149539
-0.000968503
0.00174451
0.00274661
0.00139008
-0.00269177
-0.00132433
0.00351403
0.00779779
0.00746006
0.00100389
-0.00136652
-0.00201973
0.00112572
-0.000825989
-0.00583383
-0.00143552
0.000195497
-0.00450273
-0.00378716
-0.0027062
3.43796e-05
0.000295639
-0.00485625
-0.00597388
0.000785433
0.00234124
0.00158333
0.00166675
0.0032234
0.00609753
0.00335334
-0.000184076
0.00889395
0.00991164
0.00228766
0.00759971
0.0116267
0.00529159
0.000757641
-0.00255717
-0.00223259
0.00163674
0.00388721
0.00401887
0.00184904
0.001261
0.00400178
0.00662409
0.00627803
0.00190005
-0.00203516
-0.00341411
-0.00261555
-0.000846032
-0.00394067
-0.00112831
0.000733654
-0.00545369
-0.00497882
-0.00116474
0.000414565
0.000757305
-0.00255972
-0.00480125
-0.000299078
0.00243216
0.000831778
0.00205696
0.00285445
0.0061314
0.00554315
-0.000702189
0.00345459
0.00911091
0.00541761
0.00810669
0.0116448
0.00546316
0.00276428
0.000947944
-0.00116646
-0.00198882
0.000471224
0.00209314
0.00315828
0.00319358
0.00467794
0.0061903
0.00571124
0.00297634
-0.000546113
-0.00129741
-0.00169625
-0.00162182
-0.00436227
-0.00114849
0.00264179
-0.000648471
0.000453536
0.00357442
0.00270886
0.00119493
-0.00167048
-0.00338594
-0.00122851
0.0016862
0.00174264
0.00356281
0.00304337
0.00408058
0.00678165
0.00586382
0.00506971
0.0103046
0.00860333
0.00812477
0.00982785
0.00469285
0.00299731
0.00115893
-0.00140757
-0.00125992
-0.00070752
0.0010106
0.00308417
0.00402546
0.00516375
0.00511081
0.00391142
0.00307446
0.000997952
4.74385e-05
-0.000418427
-0.000654377
0.000841498
0.000925014
0.00312458
0.00145789
-0.00015358
0.00139347
0.000845586
0.000325237
-0.00212635
-0.00235658
0.001144
0.00234491
0.0022197
0.0037112
0.00415598
0.00384695
0.00465108
0.00524567
0.006163
0.0066051
0.00491394
0.00594659
0.00758463
0.00406218
0.0026822
0.000476386
-0.00290551
-0.00348257
-0.00227062
0.00203555
0.00398641
0.00549026
0.00598407
0.00565719
0.00405706
0.00303073
0.00143343
0.0016785
0.00229089
0.00195931
0.00180113
0.00163424
0.00166355
-0.000775196
-0.0020986
8.65121e-05
0.000910227
0.00139764
0.000400909
-0.000685771
0.00165359
0.00402612
0.0039717
0.00494767
0.00542568
0.0038338
0.00450249
0.00536085
0.00529845
0.00569771
0.00418554
0.00402185
0.00521031
0.00384053
0.00357917
0.00256154
0.00132381
0.000943974
0.00258237
0.004155
0.00402753
0.00234141
0.00131497
0.00373054
0.00444523
0.00494207
0.00364316
0.00144074
0.000976959
0.00155742
0.00233186
0.00205943
0.00221863
0.000826107
-0.00131823
-0.00037918
0.000838805
-0.000750543
-0.000393312
0.000343129
0.0026324
0.00401148
0.00347768
0.00449254
0.00480614
0.00379296
0.00509414
0.00630356
0.00499892
0.00553077
0.00507405
0.00326991
0.003277
0.00422062
0.00421625
0.00382896
0.00384976
0.00324294
0.00314976
0.00412817
0.00479619
0.00461019
0.00449789
0.00535345
0.00494057
0.00217948
0.00218847
0.00148687
-0.000158674
0.00044103
0.00213531
0.00257888
0.00244389
0.00129852
-0.000647021
-0.000112537
0.00108666
0.00191472
0.00136919
0.00151171
0.00223687
0.00305297
0.00250271
0.00416774
0.00530891
0.00450866
0.0048903
0.00567488
0.00512621
0.00502434
0.00468359
0.00361692
0.00299605
0.00366738
0.00411937
0.00343715
0.00400698
0.00435869
0.00392321
0.0043207
0.00562565
0.0050631
0.00384659
0.0053836
0.005523
0.0022632
0.00201444
0.00324517
0.00178562
0.00091778
0.00247952
0.00238732
0.00115716
0.0017529
0.00158628
0.000181584
0.000365972
0.000394148
-7.40127e-05
0.00107688
0.00183555
0.00259752
0.00337613
0.00431036
0.00491946
0.00504875
0.00560555
0.00688611
0.00534991
0.00450998
0.00414221
0.00327994
0.002576
0.00447675
0.00450709
0.00249554
0.00235839
0.00388852
0.00308345
0.0032936
0.00523444
0.00509418
0.00389104
0.00545883
0.00640492
0.00315496
0.00181117
0.00283751
0.00181067
0.000855449
0.00239029
0.00268919
0.000782483
0.000382543
0.00098243
9.63422e-05
0.000827966
0.00147285
0.000221006
0.000785596
0.00116936
0.000774454
0.00163731
0.00156054
0.00260612
0.00384441
0.00422429
0.00543116
0.00523342
0.00437796
0.00532379
0.00503347
0.00389142
0.00383826
0.00364447
0.00248984
0.00183867
0.00353044
0.00441715
0.00385376
0.00472368
0.00475135
0.00380455
0.00455558
0.00485452
0.00284846
0.00204049
0.00268266
0.00202598
0.00101659
0.00192436
0.00237778
0.00152805
0.000925489
0.00117233
0.000752777
0.000982121
0.00185171
0.001029
0.0011368
0.00138911
0.00165675
0.00344509
0.00318407
0.00329715
0.0051216
0.00423097
0.00482766
0.00538144
0.00430322
0.004569
0.00477069
0.00372448
-0.000710186
0.000497881
-0.000948915
-0.00277591
0.00281051
-0.00249932
-0.0123929
0.00781278
0.0135748
0.0012858
-0.00486007
0.0147445
0.0123325
-0.00372807
-0.00741499
-0.00708971
-0.000942266
0.00250327
0.00111094
-0.00654754
-0.00322076
0.0107156
0.00958258
0.00456332
0.00818847
-0.0189745
-0.0246611
0.0037126
0.0144268
0.00684267
-0.00245033
-0.00725515
-0.00539322
0.00709971
-0.000587722
0.00267773
0.0158285
0.0114729
0.00624248
0.00212077
-0.0116446
-0.0118732
-0.0137228
-0.014692
-0.00892367
-0.0130186
-0.0243058
-0.00400483
0.0025562
-0.0095419
-0.0169172
0.00295988
0.001841
-0.0165794
-0.0196149
-0.0197644
-0.0137727
-0.00831107
-0.00816614
-0.0182285
-0.0160658
-0.00133634
-0.00193756
-0.0070135
-0.0036061
-0.0310482
-0.0378461
-0.00833783
0.00324217
-0.00449265
-0.0145381
-0.019535
-0.0160499
-0.00468889
-0.012759
-0.00931467
0.00330331
0.000432703
-0.00527448
-0.0100986
-0.0052726
-0.00275214
-0.00383022
-0.00441015
-0.000859534
-0.0065003
-0.0211754
-0.00086983
0.0124457
-0.00428029
-0.0120026
0.00953834
0.00668753
-0.00692415
-0.0102652
-0.0112202
-0.00827517
-0.000853387
0.000880486
-0.0108653
-0.00922777
0.00581153
0.0045002
-0.000156461
0.00400126
-0.024708
-0.0291701
-0.000588341
0.0107954
-0.000904461
-0.00217288
-0.0115535
-0.00939574
0.0048487
-0.00453537
-0.0019504
0.0106173
0.00687882
0.00144684
-0.00313146
-0.00959716
-0.00714514
-0.00965323
-0.0110034
-0.00659425
-0.00880963
-0.0222451
-0.00388521
0.00533146
-0.00814758
-0.0161814
0.00701927
0.00162537
-0.014518
-0.0192566
-0.019654
-0.0138643
-0.00545657
-0.00168247
-0.0149599
-0.0124598
-0.000186816
-0.000840176
-0.00580191
-0.00304236
-0.0295573
-0.0340026
-0.00317681
0.0095463
-0.00215201
-0.00802862
-0.0144325
-0.0118555
0.000905414
-0.00733122
-0.00473924
0.00628626
0.00405452
-0.00337021
-0.00577244
-0.00515552
-0.0053831
-0.00298914
-0.00916259
-0.00376473
-0.00449906
-0.0201171
-0.00342805
0.00908969
-0.00629087
-0.0195254
0.00721374
0.00302985
-0.0107441
-0.0151245
-0.0157035
-0.0106281
-0.00535855
-0.00100494
-0.0125109
-0.00844436
0.00524748
0.00410841
-0.00191581
0.00365313
-0.026072
-0.0340062
-0.000934626
0.00913118
-0.000518669
-0.0101609
-0.00879372
-0.00994387
0.00462479
-0.00230412
-0.00294173
0.0110918
0.00447249
-0.00135655
-0.00263914
-0.0064706
-0.00639964
-0.00500913
-0.0100098
-0.00127642
-0.00697719
-0.020762
-0.00666859
0.0101464
-0.00655414
-0.0219217
0.00306326
0.00273049
-0.00897691
-0.01569
-0.0162835
-0.0112848
-0.00583868
-0.00261831
-0.0124947
-0.0109569
0.00040278
0.00100197
-0.00638613
-0.00069216
-0.0261536
-0.0356989
-0.00578247
0.00827909
-0.00390942
-0.0135291
-0.017905
-0.0144761
0.00282263
-0.00118358
-0.00276261
0.00961735
0.00166182
-0.00144748
-0.00514404
-0.00451433
-0.00445857
-0.00626859
-0.0105092
-0.000125222
-0.00789243
-0.0201752
-0.0116243
0.0095245
-0.00554059
-0.021746
0.000467628
0.00605689
-0.00779476
-0.0139515
-0.015971
-0.0131702
-0.00521038
-0.00276718
-0.0125866
-0.00989136
0.00226179
0.00172221
0.00018178
-0.00404629
-0.0234434
-0.0370978
-0.00981936
0.00779708
-0.00297113
-0.00982688
-0.0145014
-0.0152982
0.000646471
0.0046368
-0.00163682
0.00647352
0.000667474
-0.000564004
-0.00754393
-0.00516761
-0.00459419
-0.00550734
-0.0104125
-0.00254733
-0.00727953
-0.0191991
-0.0122931
0.00329784
-0.00727671
-0.020683
-0.000356194
0.00611048
-0.00892334
-0.0158965
-0.0170659
-0.0124223
-0.00497919
-0.00383334
-0.0123248
-0.0107182
0.00161691
0.00191633
-0.00522324
-0.00594153
-0.0217347
-0.0389018
-0.0124512
0.00533779
0.000678633
-0.0102847
-0.0146533
-0.0149407
0.000941255
0.000583736
0.000730255
0.00450844
-0.000654384
-0.00107877
-0.00888809
-0.00724027
-0.00471607
-0.00108636
-0.00822558
-0.00542947
-0.00362468
-0.0165082
-0.00980655
0.00336025
-0.00775211
-0.0163106
-0.000395385
0.00456565
-0.00877066
-0.0158574
-0.0142978
-0.00990637
-0.00510506
-0.00805862
-0.0120767
-0.0124356
0.00198434
0.00316031
-0.00623429
-0.00662942
-0.0246452
-0.0329926
-0.0153119
0.00537932
0.000385692
-0.00742322
-0.0151198
-0.0140752
0.0030838
-0.00159329
0.00677296
0.00627559
-0.000427334
-0.00117065
-0.00480389
-0.0065046
-0.00690052
-0.00462622
-0.00717205
-0.00821202
-0.00936194
-0.0146039
-0.00873366
0.00631199
-0.00656624
-0.00899769
0.00175301
0.00277586
-0.00871441
-0.0161058
-0.0151781
-0.0120022
-0.00615634
-0.0131535
-0.0161886
-0.015152
0.00182679
0.00412955
-0.00370259
-0.00821044
-0.0257896
-0.0318234
-0.0186883
0.00535607
-0.00131781
-0.00962498
-0.0148672
-0.0141706
0.00485666
0.000998886
0.00350343
0.00413269
-0.00159732
-0.000517765
-0.00571361
-0.00472398
-0.0064747
-0.00472625
-0.00643438
-0.00652782
-0.0121578
-0.0119076
-0.00447701
0.00105258
-0.0056067
-0.00382746
0.00483071
0.00195278
-0.00817797
-0.0162524
-0.0115551
-0.0103653
-0.00622262
-0.0124354
-0.0185965
-0.0173134
-0.00143741
0.0043268
-0.00398462
-0.00585581
-0.0203672
-0.0366405
-0.0192756
0.00761897
-0.00225927
-0.00988314
-0.0131419
-0.0124618
0.00524438
0.0060316
0.00386135
0.00404056
-0.00257134
-0.000125041
-0.00309146
-0.00416682
-0.00661595
-0.00591706
-0.00544688
-0.0024133
-0.0113993
-0.0116529
-0.000255152
0.000651815
-0.0049755
-0.00319491
0.00580678
0.00527756
-0.00863861
-0.015241
-0.0135281
-0.0059189
-0.00675956
-0.0115935
-0.0140285
-0.015077
-0.00335708
0.0030337
-0.00435631
-0.00571624
-0.0214069
-0.0325055
-0.0180225
0.00875173
-0.00310157
-0.00948532
-0.00759145
-0.00638317
0.00466025
0.00219802
0.00201148
0.00318386
-0.000778821
-0.0022095
4.04546e-05
-0.000505173
-0.00633111
-0.0102997
-0.00609348
-0.00220134
-0.00863471
-0.0141269
-0.00185869
-0.000114453
-0.00415272
-0.00137947
0.00894277
0.00519179
-0.00984369
-0.0135884
-0.0136526
-0.00615265
-0.00840498
-0.0147515
-0.0158573
-0.0162164
-0.0056215
0.00197197
-0.0020624
-0.0069091
-0.0167311
-0.0279483
-0.0198683
0.00382793
-0.0016651
-0.00793368
-0.0127544
-0.00541268
0.00485401
0.00326915
0.00136671
0.00108328
0.00149818
0.000808608
-0.00235246
-2.15782e-05
4.46385e-06
-0.00816077
-0.0087489
-0.00453068
-0.00887056
-0.0113558
-0.00402789
-0.000470623
-0.00382063
0.0018533
0.0117384
0.000960418
-0.0108911
-0.0131237
-0.00869543
-0.00677168
-0.00578191
-0.0146341
-0.018967
-0.0194173
-0.0111319
0.00052348
0.000824822
-0.0029501
-0.0117711
-0.0263418
-0.0223407
-0.000703474
-0.00153758
-0.00523107
-0.0115877
-0.00835811
0.00276579
0.00665029
0.000921127
-4.67399e-05
0.000552633
-0.000778825
-0.00127682
-0.00344364
-0.00395553
-0.00390364
-0.00748012
-0.00283582
-0.0128012
-0.012926
-0.00594722
0.000779312
-0.00324432
0.00383158
0.0088932
0.000199949
-0.0124887
-0.0129243
-0.00749549
-0.00448727
-0.000979877
-0.00696892
-0.014044
-0.0190728
-0.0096827
0.000214899
0.00484995
-0.00136303
-0.0121429
-0.0249616
-0.0231979
-0.00136281
-0.0011534
-0.00176209
-0.00681152
-0.00902484
0.0028961
0.00142068
0.000484484
0.00116048
-0.00554735
-0.00245279
0.00428842
-0.00367874
-0.00746835
-0.00540861
-0.00673451
-0.000851635
-0.00857606
-0.0114621
-0.00386178
-0.00352054
-0.00482279
0.00253282
0.00865065
-4.82994e-05
-0.0125846
-0.0113888
-0.00877946
-0.00306877
0.0031828
-0.000931759
-0.0127749
-0.018245
-0.00955944
0.0011889
0.00151086
-0.00260622
-0.0151386
-0.0215822
-0.022878
-0.00616385
-0.00105875
-0.00308496
-0.00252366
-0.00995187
0.00185556
0.00617589
0.00258209
0.000184841
-0.00714816
-0.000884413
0.00410145
-0.00272403
-0.00907599
-0.00891915
-0.00683582
0.00138767
-0.00099241
-0.00692489
-0.00047784
-0.00177002
-0.00509582
0.00252062
0.00995289
-0.00133761
-0.0133623
-0.0070069
-0.00714238
-0.003486
-8.30509e-05
-0.000579894
-0.011934
-0.0159735
-0.0100164
-0.00210877
0.00145243
-0.00321428
-0.0197222
-0.0229641
-0.0167203
-0.00658437
-0.00350918
-0.00738955
-0.00225766
-0.0112704
-0.00132093
0.00885672
0.00519676
0.00136256
-0.00618462
-0.00347075
-0.00160671
0.000353643
-0.00956746
-0.012614
-0.00516348
0.00122299
-0.00175582
-0.00608756
-0.00126555
-0.000135053
-0.0015554
0.00188212
0.00777312
-0.000908486
-0.0121269
-0.0147645
-0.00449603
-0.00438609
-0.00506422
-0.00267026
-0.0106545
-0.0152711
-0.0082441
-0.00563347
0.000282348
-0.00424061
-0.0159911
-0.0181574
-0.0118893
-0.00581943
-0.00304181
-0.00788487
-0.00848685
-0.0156225
-0.0055788
0.00580457
0.00495702
0.0063752
-0.00301784
-0.00808592
-7.34442e-05
0.000666623
-0.00432127
-0.00860856
-0.00334011
0.00262863
-0.00120273
-0.00686867
-0.00311995
-0.000521473
-0.00215221
0.00286959
0.00952329
0.00052543
-0.00892867
-0.0100603
-0.00472462
-0.00645404
-0.00916761
-3.52179e-05
-0.00833457
-0.0131112
-0.00826767
-0.00392964
0.00169385
-0.0045573
-0.0125782
-0.012275
-0.00560276
-0.00396736
-0.000710473
-0.00436772
-0.00468416
-0.0111329
-0.00691449
0.0050444
0.00642205
0.00682979
-1.96364e-05
-0.00404267
0.00115175
-0.00295936
-0.00702236
-0.00614144
-0.00246634
0.00300268
0.00288172
-0.00141178
-0.00126544
0.00221762
0.00172423
0.00586756
0.0109571
0.00151092
-0.00925903
-0.00838345
-0.00410618
-0.00716735
-0.0107547
-0.000317342
-0.00492099
-0.0116977
-0.00912004
-0.00582995
0.00146161
0.000753727
-0.00967447
-0.00857951
-0.00150594
-0.00114544
0.000904372
-0.00221083
-0.00189443
-0.00419755
-0.00457675
0.00512447
0.00618899
0.00265616
-0.00192149
-0.0018339
-0.000101842
-0.0011821
-0.00295513
-0.00476398
-0.00260885
0.00220975
0.00137076
-0.00128477
-0.000365383
0.0025369
0.00327499
0.00501309
0.00830982
0.00104905
-0.00972353
-0.0102318
-0.0055798
-0.00791649
-0.0127212
-0.00424764
-0.00256173
-0.00721203
-0.00882213
-0.0051509
-0.00102572
-0.00164253
-0.0104277
-0.0102061
-0.00165861
0.00186113
0.0023949
-0.000351208
-0.00154855
0.00239523
0.00121374
0.00471671
0.00584251
0.00333954
-0.00269731
-0.00465719
6.4351e-06
0.000520143
-0.000934484
-0.00369425
-0.00162857
0.00319108
0.00417618
0.00152938
0.000571049
0.00272144
0.00398133
0.00401153
0.00677145
0.000903196
-0.00653975
-0.00886115
-0.00625501
-0.00721319
-0.00982317
-0.00445912
-0.00263151
-0.00337933
-0.0074302
-0.00808684
-0.00121966
-0.00615926
-0.0127774
-0.00922298
0.000908204
0.00436995
0.00276051
0.00205105
0.00190646
0.00349573
0.00314682
0.00440648
0.00810201
0.00611723
-0.000889567
-0.0014893
0.00102188
0.000643281
0.00101228
-0.00134854
-0.00318979
0.00132437
0.00419188
0.00314241
0.00174553
0.00288987
0.00725536
0.00679287
0.00553167
0.00081416
-0.00365661
-0.00548895
-0.00400793
-0.00311828
-0.00550024
-0.00190654
-0.0017626
-0.00885249
-0.0066505
-0.00489845
0.00159399
0.00169687
-0.0070929
-0.00777087
0.000481315
0.00412867
0.00340369
0.00230477
0.00244107
0.00385125
0.00464506
0.00397182
0.00565918
0.00599641
0.00163117
0.00179754
0.000628884
0.00148973
-0.00121897
-0.00324747
-0.00304874
0.000572958
0.00142188
0.00183531
0.00414436
0.00472443
0.00715178
0.00526525
0.00299175
0.000219542
-0.00323565
-0.00500005
-0.00293534
-0.00135862
-0.00368579
0.000113083
0.00126796
-0.00491843
-0.00372185
-0.000200592
0.00142187
0.000286966
-0.00216494
-0.00328433
-0.00151479
-0.00038319
0.00185548
0.00131748
0.000873821
0.00393043
0.00463067
0.00244977
0.00365817
0.00638726
0.00282015
0.00287246
0.00536935
0.00161876
0.000695052
-0.00040807
-0.00248064
-0.00173349
0.000120596
0.00202448
0.00457516
0.00415658
0.00705282
0.00810986
0.00296077
-0.00218137
-0.00599248
-0.00826674
-0.00672363
-0.0050559
-0.00607992
-0.00135809
0.00196806
-0.00218596
-0.00213381
0.000513509
0.00149415
0.000648932
-0.00168606
-0.00191599
-1.94801e-05
0.000745547
0.00133127
0.00353986
0.00314837
0.0031466
0.00438693
0.00287702
0.00418426
0.00584763
0.000887775
0.00138565
0.00386491
0.00287796
0.000722507
-0.00243128
-0.00288613
-0.000411863
0.00234222
0.00334273
0.00428567
0.00428372
0.00602033
0.00714485
0.00396745
0.00312087
-0.000784182
-0.00386709
-0.00232182
-0.0031897
-0.00267467
3.16276e-06
0.00146834
-0.00159901
-0.00273598
-0.000380325
0.000683953
0.000636077
-0.000962429
-0.000569226
0.00250894
0.00344241
0.00308949
0.00449779
0.0041852
0.00291108
0.00518579
0.00517601
0.00439867
0.00533157
0.00247751
0.00146629
0.00375712
0.00305187
0.00165288
0.000762391
0.000178538
0.0011212
0.00372495
0.00419529
0.00466112
0.00472947
0.00500853
0.00562303
0.00496258
0.00557958
0.00310968
-0.00113438
-0.000715803
0.000542229
0.000294253
0.00139881
0.00168688
-0.00123993
-0.00325061
-0.00152646
-0.000470781
1.87008e-05
-0.000157299
-0.00122965
0.00144574
0.00365973
0.00333893
0.00445651
0.00453268
0.00361917
0.0046697
0.00498807
0.00413366
0.00450623
0.00394331
0.00332277
0.00401043
0.00400086
0.0035232
0.00365936
0.0029371
0.00249579
0.0038398
0.00462582
0.00401786
0.00239081
0.00216278
0.00448463
0.00436283
0.00486733
0.00507542
0.0018139
0.000268826
0.000451471
0.000158628
0.000800935
0.0017123
0.000316466
-0.00119622
0.000195998
0.000752666
0.00021277
0.000371907
0.00102738
0.00301837
0.00421056
0.0032825
0.00411845
0.0046226
0.00398169
0.00511718
0.00564204
0.00482961
0.00491813
0.004572
0.0033835
0.00357276
0.00342402
0.00362985
0.00384166
0.00342359
0.00266185
0.00324821
0.00429668
0.00445245
0.00303672
0.00317725
0.00528783
0.00465724
0.00268786
0.00289357
0.000828019
-0.00083817
0.000157877
0.00173001
0.00190942
0.00105066
-0.000234559
-0.00197842
-0.00159512
0.000723629
0.00200518
0.00222115
0.00162361
0.00239163
0.00249419
0.00228762
0.00400136
0.00510241
0.00468236
0.00553349
0.00596671
0.00551464
0.00530867
0.00507717
0.00436722
0.00332934
0.00343991
0.00378587
0.00363759
0.00444958
0.00472075
0.0039695
0.00424325
0.00488263
0.00433517
0.00337082
0.00560623
0.00564313
0.00202708
0.00185653
0.00260617
0.000826208
0.000305857
0.00123755
0.000870651
-0.000261509
0.000277444
0.000402663
-0.000592274
0.000338678
0.000753755
-0.000416566
0.000162902
0.00127281
0.0021872
0.00351594
0.00458816
0.00485598
0.00397357
0.00521188
0.00585407
0.00410609
0.00360786
0.00445371
0.00351081
0.00289674
0.00443265
0.00403503
0.00220686
0.00212318
0.00345396
0.00297772
0.00289353
0.00462383
0.00498982
0.00391594
0.00521988
0.00663873
0.00299307
0.00201548
0.00277177
0.00146027
0.000471693
0.00208395
0.00276765
0.000973059
0.00044472
0.00107592
0.000147361
0.00063277
0.00125774
0.00017803
0.000984195
0.00149902
0.00102812
0.00236525
0.00302186
0.00387812
0.00370828
0.00302563
0.0045313
0.00506354
0.00451674
0.00587928
0.0054019
0.00417507
0.00292859
0.0026836
0.00160214
0.00146134
0.00307026
0.00412209
0.00345775
0.00374906
0.00429339
0.00353625
0.00432945
0.00459849
0.00250793
0.00204793
0.00296474
0.00222506
0.00111626
0.00158047
0.00227445
0.0011961
0.000242773
0.000618798
0.000479091
0.00092541
0.00149003
0.000631775
0.00127914
0.00191598
0.00201394
0.00379929
0.00304703
0.00346113
0.00481217
0.00410557
0.00490409
0.00554915
0.00432276
0.00450025
0.00457314
0.003221
-0.00356269
-0.00551902
0.000563183
-0.000753688
-0.00136957
0.00601755
-0.00304971
-0.00216967
0.00863555
0.00601332
-0.00381936
0.00594965
0.0115024
0.00394657
-0.00252529
-0.000272704
-0.00389398
-0.00011109