/*--------------------------------*- C++ -*----------------------------------*\
  =========                 |
  \\      /  F ield         | OpenFOAM: The Open Source CFD Toolbox
   \\    /   O peration     | Website:  https://openfoam.org
    \\  /    A nd           | Version:  10
     \\/     M anipulation  |
\*---------------------------------------------------------------------------*/
FoamFile
{
    format      ascii;
    class       volScalarField;
    location    "35";
    object      p;
}
// * * * * * * * * * * * * * * * * * * * * * * * * * * * * * * * * * * * * * //

dimensions      [0 2 -2 0 0 0 0];

internalField   nonuniform List<scalar> 
102400
(
-2.93316e-06
-3.37759e-06
-3.72078e-06
-2.79969e-06
-4.01363e-06
-3.2995e-06
-3.28245e-06
-3.96712e-06
-3.21437e-06
-3.59493e-06
-3.73847e-06
-3.22671e-06
-3.68052e-06
-3.51123e-06
-3.19858e-06
-3.60087e-06
-3.28715e-06
-3.17767e-06
-3.29399e-06
-3.27575e-06
-2.85406e-06
-3.28339e-06
-2.93316e-06
-2.85674e-06
-3.07518e-06
-2.69546e-06
-3.06791e-06
-2.54009e-06
-3.11743e-06
-2.70326e-06
-2.65558e-06
-3.27485e-06
-2.43013e-06
-3.17293e-06
-2.95911e-06
-2.78682e-06
-3.29121e-06
-3.01178e-06
-2.99509e-06
-3.57238e-06
-2.93425e-06
-3.37556e-06
-3.72173e-06
-2.79998e-06
-4.01168e-06
-3.3019e-06
-3.28098e-06
-3.96752e-06
-3.21582e-06
-3.59414e-06
-3.73976e-06
-3.22798e-06
-3.68031e-06
-3.51341e-06
-3.19947e-06
-3.60158e-06
-3.28954e-06
-3.1785e-06
-3.29564e-06
-3.27754e-06
-2.85567e-06
-3.28451e-06
-2.93526e-06
-2.85786e-06
-3.07678e-06
-2.69676e-06
-3.069e-06
-2.54151e-06
-3.11749e-06
-2.70534e-06
-2.65514e-06
-3.27556e-06
-2.43137e-06
-3.1717e-06
-2.96054e-06
-2.78631e-06
-3.29073e-06
-3.01248e-06
-2.99436e-06
-3.57174e-06
-2.93522e-06
-3.37221e-06
-3.72532e-06
-2.79814e-06
-4.01064e-06
-3.3056e-06
-3.27855e-06
-3.96972e-06
-3.21725e-06
-3.59289e-06
-3.74269e-06
-3.22872e-06
-3.68014e-06
-3.51708e-06
-3.19938e-06
-3.60297e-06
-3.29277e-06
-3.1787e-06
-3.29775e-06
-3.28018e-06
-2.85649e-06
-3.28648e-06
-2.93758e-06
-2.85861e-06
-3.07908e-06
-2.69738e-06
-3.07124e-06
-2.54195e-06
-3.11815e-06
-2.70809e-06
-2.65314e-06
-3.27812e-06
-2.4316e-06
-3.1703e-06
-2.96306e-06
-2.78467e-06
-3.29067e-06
-3.0139e-06
-2.99225e-06
-3.57249e-06
-2.93616e-06
-3.36696e-06
-3.73222e-06
-2.79372e-06
-4.01027e-06
-3.31125e-06
-3.2723e-06
-3.97415e-06
-3.21868e-06
-3.58987e-06
-3.74771e-06
-3.22853e-06
-3.67937e-06
-3.52262e-06
-3.19762e-06
-3.60493e-06
-3.29699e-06
-3.17754e-06
-3.30052e-06
-3.28344e-06
-2.85615e-06
-3.28916e-06
-2.93997e-06
-2.85871e-06
-3.0821e-06
-2.69717e-06
-3.07441e-06
-2.54133e-06
-3.11914e-06
-2.71175e-06
-2.64895e-06
-3.28289e-06
-2.43076e-06
-3.16825e-06
-2.96734e-06
-2.78139e-06
-3.29112e-06
-3.01635e-06
-2.98828e-06
-3.57494e-06
-2.9371e-06
-3.35932e-06
-3.74326e-06
-2.78607e-06
-4.01069e-06
-3.3194e-06
-3.26232e-06
-3.98147e-06
-3.21995e-06
-3.58495e-06
-3.75536e-06
-3.22703e-06
-3.67796e-06
-3.53043e-06
-3.19362e-06
-3.60763e-06
-3.30232e-06
-3.17451e-06
-3.30424e-06
-3.28725e-06
-2.85439e-06
-3.29278e-06
-2.94233e-06
-2.85803e-06
-3.08605e-06
-2.69589e-06
-3.0788e-06
-2.53943e-06
-3.12055e-06
-2.71667e-06
-2.64205e-06
-3.29056e-06
-2.4286e-06
-3.16546e-06
-2.97395e-06
-2.77599e-06
-3.29238e-06
-3.02006e-06
-2.98203e-06
-3.57957e-06
-2.93802e-06
-3.34889e-06
-3.75943e-06
-2.7743e-06
-4.01231e-06
-3.33041e-06
-3.24776e-06
-3.99251e-06
-3.22069e-06
-3.5778e-06
-3.76616e-06
-3.22371e-06
-3.67582e-06
-3.54087e-06
-3.18671e-06
-3.6113e-06
-3.3088e-06
-3.16908e-06
-3.30919e-06
-3.29146e-06
-2.85085e-06
-3.29764e-06
-2.94438e-06
-2.85647e-06
-3.09112e-06
-2.69311e-06
-3.08487e-06
-2.53584e-06
-3.12261e-06
-2.72311e-06
-2.63181e-06
-3.30204e-06
-2.42459e-06
-3.16204e-06
-2.98343e-06
-2.76797e-06
-3.29487e-06
-3.02523e-06
-2.97308e-06
-3.58696e-06
-2.93897e-06
-3.33518e-06
-3.78185e-06
-2.75748e-06
-4.01559e-06
-3.34471e-06
-3.2277e-06
-4.00817e-06
-3.22051e-06
-3.56813e-06
-3.78065e-06
-3.21805e-06
-3.6728e-06
-3.55434e-06
-3.17616e-06
-3.61613e-06
-3.31645e-06
-3.16065e-06
-3.31569e-06
-3.29587e-06
-2.84512e-06
-3.30408e-06
-2.94566e-06
-2.85401e-06
-3.09753e-06
-2.68824e-06
-3.09323e-06
-2.52995e-06
-3.12557e-06
-2.73133e-06
-2.61754e-06
-3.31829e-06
-2.41811e-06
-3.1582e-06
-2.9963e-06
-2.7568e-06
-3.29905e-06
-3.0321e-06
-2.96099e-06
-3.59777e-06
-2.94004e-06
-3.31759e-06
-3.81175e-06
-2.73462e-06
-4.02097e-06
-3.36274e-06
-3.20119e-06
-4.0294e-06
-3.21897e-06
-3.55562e-06
-3.79941e-06
-3.20956e-06
-3.66869e-06
-3.57133e-06
-3.16119e-06
-3.62235e-06
-3.32528e-06
-3.14851e-06
-3.32414e-06
-3.30012e-06
-2.83679e-06
-3.3125e-06
-2.94552e-06
-2.85071e-06
-3.10543e-06
-2.68052e-06
-3.10463e-06
-2.52094e-06
-3.12974e-06
-2.74161e-06
-2.59841e-06
-3.34042e-06
-2.4084e-06
-3.1542e-06
-3.01308e-06
-2.74188e-06
-3.30544e-06
-3.04093e-06
-2.94528e-06
-3.61264e-06
-2.9414e-06
-3.29539e-06
-3.85045e-06
-2.70474e-06
-4.02891e-06
-3.38499e-06
-3.16731e-06
-4.05716e-06
-3.21565e-06
-3.54002e-06
-3.82301e-06
-3.19781e-06
-3.66324e-06
-3.59246e-06
-3.14097e-06
-3.63025e-06
-3.33536e-06
-3.1319e-06
-3.33513e-06
-3.30373e-06
-2.82551e-06
-3.32347e-06
-2.94302e-06
-2.84687e-06
-3.11491e-06
-2.66903e-06
-3.12009e-06
-2.50777e-06
-3.1355e-06
-2.75408e-06
-2.57351e-06
-3.36957e-06
-2.39447e-06
-3.15035e-06
-3.03417e-06
-2.72257e-06
-3.31431e-06
-3.05196e-06
-2.9254e-06
-3.63215e-06
-2.94328e-06
-3.26763e-06
-3.89918e-06
-2.66684e-06
-4.0397e-06
-3.41192e-06
-3.12523e-06
-4.09228e-06
-3.21021e-06
-3.52114e-06
-3.85202e-06
-3.18256e-06
-3.6561e-06
-3.61852e-06
-3.11473e-06
-3.64024e-06
-3.34683e-06
-3.11005e-06
-3.3496e-06
-3.30598e-06
-2.81116e-06
-3.33782e-06
-2.93681e-06
-2.84327e-06
-3.12599e-06
-2.65264e-06
-3.14095e-06
-2.48902e-06
-3.14338e-06
-2.76892e-06
-2.54187e-06
-3.4069e-06
-2.37517e-06
-3.14707e-06
-3.05983e-06
-2.69812e-06
-3.32588e-06
-3.06538e-06
-2.90071e-06
-3.65673e-06
-2.94606e-06
-3.233e-06
-3.95899e-06
-2.62014e-06
-4.05319e-06
-3.44386e-06
-3.07429e-06
-4.13519e-06
-3.20248e-06
-3.49875e-06
-3.88686e-06
-3.16388e-06
-3.64671e-06
-3.65057e-06
-3.08173e-06
-3.65287e-06
-3.36e-06
-3.08215e-06
-3.36903e-06
-3.30581e-06
-2.79403e-06
-3.35677e-06
-2.92503e-06
-2.84144e-06
-3.13853e-06
-2.6301e-06
-3.16912e-06
-2.46293e-06
-3.15414e-06
-2.78622e-06
-2.5025e-06
-3.45352e-06
-2.34915e-06
-3.14475e-06
-3.09013e-06
-2.66776e-06
-3.34237e-06
-3.08142e-06
-2.87036e-06
-3.68685e-06
-2.95042e-06
-3.18963e-06
-4.03055e-06
-2.56419e-06
-4.06835e-06
-3.48119e-06
-3.01404e-06
-4.18544e-06
-3.1926e-06
-3.47243e-06
-3.92755e-06
-3.14227e-06
-3.63406e-06
-3.68998e-06
-3.04131e-06
-3.66869e-06
-3.3755e-06
-3.04718e-06
-3.39576e-06
-3.30169e-06
-2.77495e-06
-3.38225e-06
-2.90502e-06
-2.84419e-06
-3.15222e-06
-2.60009e-06
-3.20734e-06
-2.42737e-06
-3.16885e-06
-2.80621e-06
-2.45447e-06
-3.51054e-06
-2.31521e-06
-3.14368e-06
-3.12505e-06
-2.6308e-06
-3.361e-06
-3.10043e-06
-2.83325e-06
-3.72117e-06
-2.95765e-06
-3.13492e-06
-4.1139e-06
-2.49918e-06
-4.08257e-06
-3.52434e-06
-2.94443e-06
-4.24103e-06
-3.18123e-06
-3.44134e-06
-3.97337e-06
-3.11876e-06
-3.61625e-06
-3.73842e-06
-2.99285e-06
-3.68783e-06
-3.39458e-06
-3.00359e-06
-3.433e-06
-3.29161e-06
-2.75531e-06
-3.41708e-06
-2.87322e-06
-2.85591e-06
-3.16659e-06
-2.56133e-06
-3.25948e-06
-2.38e-06
-3.18893e-06
-2.82962e-06
-2.39712e-06
-3.57868e-06
-2.27298e-06
-3.1439e-06
-3.16442e-06
-2.58717e-06
-3.38026e-06
-3.12308e-06
-2.78835e-06
-3.75869e-06
-2.97013e-06
-3.06723e-06
-4.20778e-06
-2.42751e-06
-4.09107e-06
-3.5738e-06
-2.86597e-06
-4.29768e-06
-3.16979e-06
-3.40423e-06
-4.02234e-06
-3.09508e-06
-3.59002e-06
-3.79714e-06
-2.93624e-06
-3.70895e-06
-3.41945e-06
-2.94914e-06
-3.48409e-06
-3.27355e-06
-2.73648e-06
-3.46475e-06
-2.8253e-06
-2.88245e-06
-3.18089e-06
-2.5129e-06
-3.33028e-06
-2.31889e-06
-3.21575e-06
-2.85808e-06
-2.33087e-06
-3.65737e-06
-2.22408e-06
-3.1468e-06
-3.2073e-06
-2.53871e-06
-3.39759e-06
-3.15038e-06
-2.73556e-06
-3.79666e-06
-2.99114e-06
-2.98218e-06
-4.30869e-06
-2.35418e-06
-4.08696e-06
-3.63001e-06
-2.78138e-06
-4.34831e-06
-3.16064e-06
-3.36002e-06
-4.07069e-06
-3.07367e-06
-3.55127e-06
-3.86611e-06
-2.87323e-06
-3.72787e-06
-3.45303e-06
-2.88228e-06
-3.54949e-06
-3.2468e-06
-2.71971e-06
-3.52744e-06
-2.75781e-06
-2.92982e-06
-3.19338e-06
-2.45519e-06
-3.42354e-06
-2.24374e-06
-3.25024e-06
-2.8932e-06
-2.25927e-06
-3.74306e-06
-2.17252e-06
-3.15163e-06
-3.25036e-06
-2.4901e-06
-3.41035e-06
-3.18576e-06
-2.67731e-06
-3.83117e-06
-3.02166e-06
-2.88082e-06
-4.41093e-06
-2.287e-06
-4.06264e-06
-3.69264e-06
-2.69636e-06
-4.38392e-06
-3.15405e-06
-3.30915e-06
-4.11353e-06
-3.05615e-06
-3.49791e-06
-3.94117e-06
-2.8095e-06
-3.73725e-06
-3.4952e-06
-2.80801e-06
-3.62269e-06
-3.21235e-06
-2.70947e-06
-3.60066e-06
-2.67179e-06
-3.0037e-06
-3.19799e-06
-2.39366e-06
-3.53881e-06
-2.15624e-06
-3.29414e-06
-2.93273e-06
-2.19233e-06
-3.82897e-06
-2.12235e-06
-3.16556e-06
-3.28704e-06
-2.45101e-06
-3.41953e-06
-3.22252e-06
-2.61888e-06
-3.85898e-06
-3.05631e-06
-2.76007e-06
-4.51108e-06
-2.23211e-06
-4.0136e-06
-3.76109e-06
-2.61907e-06
-4.39841e-06
-3.15234e-06
-3.25213e-06
-4.14914e-06
-3.03825e-06
-3.43373e-06
-4.01241e-06
-2.75311e-06
-3.7328e-06
-3.53327e-06
-2.74484e-06
-3.68917e-06
-3.16777e-06
-2.72283e-06
-3.66619e-06
-2.57626e-06
-3.1121e-06
-3.17677e-06
-2.34311e-06
-3.66935e-06
-2.05669e-06
-3.35289e-06
-2.96816e-06
-2.14196e-06
-3.90952e-06
-2.07255e-06
-3.19928e-06
-3.31274e-06
-2.42226e-06
-3.43361e-06
-3.25501e-06
-2.56245e-06
-3.88431e-06
-3.08816e-06
-2.64084e-06
-4.61618e-06
-2.18948e-06
-3.936e-06
-3.84197e-06
-2.54782e-06
-4.39205e-06
-3.15817e-06
-3.18319e-06
-4.18939e-06
-3.00568e-06
-3.37235e-06
-4.07023e-06
-2.70147e-06
-3.72774e-06
-3.53718e-06
-2.72666e-06
-3.73835e-06
-3.09474e-06
-2.79929e-06
-3.69097e-06
-2.48551e-06
-3.26946e-06
-3.09887e-06
-2.3273e-06
-3.80473e-06
-1.94262e-06
-3.45284e-06
-2.99256e-06
-2.11449e-06
-3.9817e-06
-2.02383e-06
-3.25265e-06
-3.33348e-06
-2.38797e-06
-3.4642e-06
-3.28559e-06
-2.4955e-06
-3.92554e-06
-3.11761e-06
-2.49725e-06
-4.74363e-06
-2.1582e-06
-3.81867e-06
-3.95412e-06
-2.46826e-06
-4.36712e-06
-3.18314e-06
-3.08321e-06
-4.26187e-06
-2.93818e-06
-3.32305e-06
-4.12569e-06
-2.6281e-06
-3.76049e-06
-3.46586e-06
-2.78273e-06
-3.75518e-06
-2.95088e-06
-2.9995e-06
-3.60548e-06
-2.41172e-06
-3.50135e-06
-2.9222e-06
-2.38348e-06
-3.927e-06
-1.81462e-06
-3.56109e-06
-2.99925e-06
-2.11764e-06
-4.03377e-06
-1.98818e-06
-3.31303e-06
-3.35957e-06
-2.34075e-06
-3.51053e-06
-3.32877e-06
-2.39677e-06
-4.00029e-06
-3.1594e-06
-2.29754e-06
-4.917e-06
-2.12713e-06
-3.63899e-06
-4.12683e-06
-2.35933e-06
-4.32261e-06
-3.24761e-06
-2.92325e-06
-4.39276e-06
-2.83073e-06
-3.26757e-06
-4.20649e-06
-2.50589e-06
-3.8671e-06
-3.2961e-06
-2.9146e-06
-3.77373e-06
-2.68698e-06
-3.39438e-06
-3.37032e-06
-2.35558e-06
-3.84135e-06
-2.60151e-06
-2.55691e-06
-4.02226e-06
-1.67395e-06
-3.70124e-06
-2.9849e-06
-2.15772e-06
-4.05604e-06
-1.9751e-06
-3.36566e-06
-3.40346e-06
-2.27542e-06
-3.56902e-06
-3.40529e-06
-2.24482e-06
-4.11739e-06
-3.22668e-06
-2.01691e-06
-5.14903e-06
-2.10954e-06
-3.37491e-06
-4.39201e-06
-2.1988e-06
-4.26484e-06
-3.36186e-06
-2.68363e-06
-4.59442e-06
-2.68643e-06
-3.19016e-06
-4.34667e-06
-2.31601e-06
-4.0526e-06
-3.03424e-06
-3.10538e-06
-3.82761e-06
-2.26954e-06
-4.01397e-06
-2.96553e-06
-2.32204e-06
-4.30591e-06
-2.10757e-06
-2.88292e-06
-4.0703e-06
-1.541e-06
-3.85538e-06
-2.95784e-06
-2.23236e-06
-4.03044e-06
-2.01637e-06
-3.3847e-06
-3.48899e-06
-2.18328e-06
-3.60408e-06
-3.5325e-06
-2.0255e-06
-4.27388e-06
-3.32392e-06
-1.66539e-06
-5.44554e-06
-2.08733e-06
-3.03604e-06
-4.74935e-06
-1.9754e-06
-4.20659e-06
-3.52633e-06
-2.3678e-06
-4.85984e-06
-2.52274e-06
-3.07306e-06
-4.56199e-06
-2.05923e-06
-4.28368e-06
-2.7358e-06
-3.30313e-06
-3.94728e-06
-1.70978e-06
-4.80485e-06
-2.44114e-06
-2.28554e-06
-4.89547e-06
-1.44967e-06
-3.34221e-06
-4.02558e-06
-1.42122e-06
-4.01646e-06
-2.91496e-06
-2.35103e-06
-3.94226e-06
-2.12752e-06
-3.34022e-06
-3.61875e-06
-2.08191e-06
-3.61546e-06
-3.7308e-06
-1.73737e-06
-4.46403e-06
-3.45914e-06
-1.25177e-06
-5.8016e-06
-2.03635e-06
-2.68952e-06
-5.1523e-06
-1.70296e-06
-4.17355e-06
-3.70806e-06
-2.01077e-06
-5.1571e-06
-2.35572e-06
-2.90363e-06
-4.84385e-06
-1.7642e-06
-4.50567e-06
-2.48457e-06
-3.43708e-06
-4.13588e-06
-1.09604e-06
-5.61934e-06
-1.93884e-06
-2.19746e-06
-5.55245e-06
-7.31821e-07
-3.856e-06
-3.99402e-06
-1.30746e-06
-4.1839e-06
-2.85983e-06
-2.48911e-06
-3.81735e-06
-2.29613e-06
-3.24942e-06
-3.77097e-06
-1.99366e-06
-3.58176e-06
-3.99088e-06
-1.40069e-06
-4.6751e-06
-3.62253e-06
-8.09903e-07
-6.1829e-06
-1.95025e-06
-2.38194e-06
-5.54774e-06
-1.39824e-06
-4.18314e-06
-3.86458e-06
-1.66689e-06
-5.42732e-06
-2.25124e-06
-2.66827e-06
-5.16797e-06
-1.47961e-06
-4.64439e-06
-2.37435e-06
-3.43263e-06
-4.385e-06
-5.26406e-07
-6.30685e-06
-1.58293e-06
-2.02304e-06
-6.20383e-06
-6.78243e-08
-4.26975e-06
-3.98393e-06
-1.18667e-06
-4.33718e-06
-2.81505e-06
-2.62678e-06
-3.67937e-06
-2.5033e-06
-3.12194e-06
-3.93088e-06
-1.93942e-06
-3.48339e-06
-4.3018e-06
-1.05303e-06
-4.84534e-06
-3.81326e-06
-3.8024e-07
-6.55389e-06
-1.82758e-06
-2.15063e-06
-5.88507e-06
-1.08567e-06
-4.24566e-06
-3.96619e-06
-1.3736e-06
-5.64845e-06
-2.20854e-06
-2.39091e-06
-5.48333e-06
-1.28654e-06
-4.60732e-06
-2.47546e-06
-3.2578e-06
-4.67819e-06
-9.93145e-08
-6.72876e-06
-1.49976e-06
-1.72753e-06
-6.77622e-06
4.17958e-07
-4.50933e-06
-4.05175e-06
-1.0957e-06
-4.41946e-06
-2.81631e-06
-2.73303e-06
-3.53201e-06
-2.73281e-06
-2.95476e-06
-4.07539e-06
-1.95758e-06
-3.29243e-06
-4.65618e-06
-7.2674e-07
-4.95935e-06
-4.04205e-06
1.89779e-10
-6.87305e-06
-1.64994e-06
-2.04894e-06
-6.10811e-06
-7.94336e-07
-4.37092e-06
-3.97311e-06
-1.18652e-06
-5.75597e-06
-2.25323e-06
-2.09033e-06
-5.74851e-06
-1.23304e-06
-4.34702e-06
-2.82367e-06
-2.9123e-06
-4.93701e-06
3.63522e-08
-6.70848e-06
-1.77266e-06
-1.35471e-06
-7.15033e-06
6.10792e-07
-4.52394e-06
-4.15636e-06
-1.08431e-06
-4.38254e-06
-2.8989e-06
-2.79614e-06
-3.36539e-06
-2.98668e-06
-2.73246e-06
-4.20011e-06
-2.05188e-06
-3.03041e-06
-5.00179e-06
-5.07337e-07
-4.96017e-06
-4.23506e-06
1.93947e-07
-7.03958e-06
-1.53187e-06
-2.09225e-06
-6.15501e-06
-5.55332e-07
-4.58175e-06
-3.82783e-06
-1.18307e-06
-5.68346e-06
-2.40614e-06
-1.80443e-06
-5.87992e-06
-1.41436e-06
-3.81415e-06
-3.44051e-06
-2.41431e-06
-5.11613e-06
-1.96459e-07
-6.20238e-06
-2.40815e-06
-9.59935e-07
-7.18698e-06
3.62222e-07
-4.26139e-06
-4.32751e-06
-1.19824e-06
-4.17332e-06
-3.08573e-06
-2.83534e-06
-3.16111e-06
-3.33922e-06
-2.46986e-06
-4.28408e-06
-2.24758e-06
-2.70192e-06
-5.29857e-06
-4.40576e-07
-4.83798e-06
-4.33622e-06
1.0076e-07
-6.88881e-06
-1.48475e-06
-2.31434e-06
-5.92929e-06
-5.10499e-07
-4.74203e-06
-3.59413e-06
-1.359e-06
-5.42396e-06
-2.62021e-06
-1.65484e-06
-5.74354e-06
-1.89247e-06
-3.02245e-06
-4.27971e-06
-1.81544e-06
-5.15383e-06
-8.49072e-07
-5.21261e-06
-3.38573e-06
-6.38886e-07
-6.79986e-06
-3.37267e-07
-3.58005e-06
-4.44797e-06
-1.51467e-06
-3.74339e-06
-3.39813e-06
-2.83357e-06
-2.92385e-06
-3.70176e-06
-2.21637e-06
-4.24056e-06
-2.59676e-06
-2.2874e-06
-5.49087e-06
-5.9214e-07
-4.56916e-06
-4.31154e-06
-3.88616e-07
-6.32165e-06
-1.55389e-06
-2.7372e-06
-5.34072e-06
-7.81143e-07
-4.7968e-06
-3.29974e-06
-1.80176e-06
-4.95466e-06
-2.89862e-06
-1.67998e-06
-5.33458e-06
-2.6092e-06
-2.17667e-06
-5.05954e-06
-1.38224e-06
-4.89668e-06
-1.83598e-06
-3.39624e-06
-4.46042e-06
-4.50743e-07
-5.98809e-06
-1.43189e-06
-2.84386e-06
-4.49111e-06
-2.06428e-06
-3.12087e-06
-3.77986e-06
-2.81955e-06
-2.67208e-06
-4.07824e-06
-1.99664e-06
-4.1112e-06
-2.99889e-06
-1.95755e-06
-5.35386e-06
-1.07548e-06
-4.09999e-06
-4.00939e-06
-1.45253e-06
-5.18463e-06
-1.94903e-06
-3.24658e-06
-4.37603e-06
-1.43673e-06
-4.54865e-06
-3.02389e-06
-2.43826e-06
-4.24138e-06
-3.2471e-06
-1.88898e-06
-4.6865e-06
-3.36225e-06
-1.54895e-06
-5.47153e-06
-1.29829e-06
-4.44253e-06
-2.94773e-06
-2.12807e-06
-5.31824e-06
-7.17422e-07
-4.81077e-06
-2.61304e-06
-2.17655e-06
-4.39719e-06
-2.7018e-06
-2.48558e-06
-4.04018e-06
-2.95282e-06
-2.32575e-06
-4.48305e-06
-1.90796e-06
-3.78807e-06
-3.51205e-06
-1.74807e-06
-4.95744e-06
-1.88375e-06
-3.53059e-06
-3.37342e-06
-3.00072e-06
-3.61054e-06
-2.62127e-06
-3.85428e-06
-2.9679e-06
-2.73951e-06
-3.81102e-06
-2.94516e-06
-3.15066e-06
-3.36721e-06
-3.58969e-06
-2.27906e-06
-3.83801e-06
-3.89991e-06
-1.52859e-06
-5.15596e-06
-1.72365e-06
-3.96292e-06
-3.61688e-06
-1.54645e-06
-5.44762e-06
-1.4159e-06
-3.74198e-06
-4.05103e-06
-1.89916e-06
-4.15175e-06
-3.23394e-06
-2.23458e-06
-4.03272e-06
-3.14142e-06
-2.18893e-06
-4.47118e-06
-2.29322e-06
-3.1643e-06
-4.04534e-06
-1.77868e-06
-4.16953e-06
-2.89925e-06
-3.02932e-06
-2.5856e-06
-4.61262e-06
-1.98827e-06
-3.33077e-06
-4.52258e-06
-1.39349e-06
-4.56319e-06
-2.82563e-06
-3.05261e-06
-3.93667e-06
-2.34645e-06
-4.00055e-06
-2.71978e-06
-3.16923e-06
-3.92966e-06
-2.35317e-06
-3.97858e-06
-2.61489e-06
-3.64932e-06
-3.45375e-06
-2.06015e-06
-4.70031e-06
-2.27672e-06
-3.04264e-06
-4.17848e-06
-2.00336e-06
-3.8728e-06
-3.38014e-06
-2.40126e-06
-3.84133e-06
-3.08411e-06
-2.6068e-06
-3.81883e-06
-2.98666e-06
-2.66497e-06
-4.02102e-06
-2.43818e-06
-3.03657e-06
-3.93719e-06
-2.6961e-06
-3.03047e-06
-3.26721e-06
-3.89818e-06
-2.71919e-06
-4.06035e-06
-3.38197e-06
-3.1995e-06
-4.06786e-06
-3.20322e-06
-3.55694e-06
-3.81288e-06
-3.17797e-06
-3.65061e-06
-3.58949e-06
-3.04598e-06
-3.70309e-06
-3.1948e-06
-3.11934e-06
-3.37622e-06
-3.07427e-06
-2.96721e-06
-3.15757e-06
-2.89336e-06
-2.89394e-06
-2.92057e-06
-2.77759e-06
-2.95845e-06
-2.5352e-06
-3.12325e-06
-2.62121e-06
-2.71333e-06
-3.20394e-06
-2.46548e-06
-3.16027e-06
-2.94507e-06
-2.854e-06
-3.21505e-06
-3.12969e-06
-2.94206e-06
-3.60523e-06
-3.03226e-06
-3.26557e-06
-3.89911e-06
-2.72048e-06
-4.05817e-06
-3.38512e-06
-3.19831e-06
-4.06832e-06
-3.20532e-06
-3.55601e-06
-3.81443e-06
-3.17973e-06
-3.65038e-06
-3.59204e-06
-3.04728e-06
-3.70359e-06
-3.19801e-06
-3.11991e-06
-3.37834e-06
-3.07647e-06
-2.96859e-06
-3.15967e-06
-2.8952e-06
-2.89566e-06
-2.92248e-06
-2.77891e-06
-2.96043e-06
-2.53657e-06
-3.12391e-06
-2.62364e-06
-2.71315e-06
-3.20531e-06
-2.46687e-06
-3.15974e-06
-2.94678e-06
-2.85399e-06
-3.21516e-06
-3.13056e-06
-2.94219e-06
-3.60459e-06
-3.03458e-06
-3.26209e-06
-3.9032e-06
-2.71965e-06
-4.0566e-06
-3.39014e-06
-3.19484e-06
-4.0708e-06
-3.20763e-06
-3.55425e-06
-3.81792e-06
-3.18102e-06
-3.6498e-06
-3.59666e-06
-3.04714e-06
-3.70509e-06
-3.20227e-06
-3.11937e-06
-3.38167e-06
-3.07893e-06
-2.96954e-06
-3.16266e-06
-2.89689e-06
-2.89762e-06
-2.92467e-06
-2.77991e-06
-2.96349e-06
-2.53681e-06
-3.12564e-06
-2.62645e-06
-2.71171e-06
-3.2085e-06
-2.46731e-06
-3.15923e-06
-2.94942e-06
-2.85327e-06
-3.21539e-06
-3.13247e-06
-2.94107e-06
-3.60507e-06
-3.03762e-06
-3.25593e-06
-3.91106e-06
-2.71632e-06
-4.05516e-06
-3.39787e-06
-3.18795e-06
-4.07568e-06
-3.21023e-06
-3.55049e-06
-3.82389e-06
-3.18144e-06
-3.64826e-06
-3.60384e-06
-3.04473e-06
-3.70733e-06
-3.20782e-06
-3.11673e-06
-3.38657e-06
-3.08128e-06
-2.96959e-06
-3.16666e-06
-2.898e-06
-2.89967e-06
-2.92698e-06
-2.78036e-06
-2.96758e-06
-2.53562e-06
-3.12813e-06
-2.62974e-06
-2.70836e-06
-3.21383e-06
-2.46661e-06
-3.15827e-06
-2.95347e-06
-2.85133e-06
-3.21574e-06
-3.13566e-06
-2.93815e-06
-3.60679e-06
-3.04161e-06
-3.24645e-06
-3.92362e-06
-2.70985e-06
-4.05383e-06
-3.40905e-06
-3.17657e-06
-4.08368e-06
-3.21303e-06
-3.54417e-06
-3.83298e-06
-3.18056e-06
-3.64553e-06
-3.61412e-06
-3.03935e-06
-3.71057e-06
-3.21487e-06
-3.11128e-06
-3.39357e-06
-3.08325e-06
-2.96855e-06
-3.17195e-06
-2.89822e-06
-2.90192e-06
-2.92938e-06
-2.78007e-06
-2.97299e-06
-2.53267e-06
-3.13164e-06
-2.63372e-06
-2.70261e-06
-3.22196e-06
-2.46445e-06
-3.15683e-06
-2.95943e-06
-2.84776e-06
-3.21644e-06
-3.1404e-06
-2.93307e-06
-3.61008e-06
-3.04674e-06
-3.23302e-06
-3.94203e-06
-2.69936e-06
-4.0529e-06
-3.4243e-06
-3.15964e-06
-4.09576e-06
-3.21571e-06
-3.53488e-06
-3.84587e-06
-3.17787e-06
-3.64144e-06
-3.62809e-06
-3.03013e-06
-3.71514e-06
-3.22354e-06
-3.1023e-06
-3.40325e-06
-3.08442e-06
-2.96621e-06
-3.17885e-06
-2.8971e-06
-2.90452e-06
-2.93187e-06
-2.77876e-06
-2.98016e-06
-2.52743e-06
-3.13652e-06
-2.63849e-06
-2.69394e-06
-3.23372e-06
-2.4603e-06
-3.15504e-06
-2.96773e-06
-2.84218e-06
-3.21778e-06
-3.14699e-06
-2.92539e-06
-3.61542e-06
-3.05327e-06
-3.21487e-06
-3.96762e-06
-2.68385e-06
-4.05267e-06
-3.4443e-06
-3.136e-06
-4.11294e-06
-3.21791e-06
-3.52214e-06
-3.86325e-06
-3.1728e-06
-3.63573e-06
-3.64637e-06
-3.01611e-06
-3.72139e-06
-3.23387e-06
-3.08894e-06
-3.41628e-06
-3.08425e-06
-2.96235e-06
-3.18769e-06
-2.894e-06
-2.90769e-06
-2.93433e-06
-2.77602e-06
-2.98962e-06
-2.51921e-06
-3.14316e-06
-2.64413e-06
-2.68175e-06
-3.25e-06
-2.45353e-06
-3.15319e-06
-2.97876e-06
-2.83417e-06
-3.22007e-06
-3.15575e-06
-2.91466e-06
-3.6234e-06
-3.06155e-06
-3.19105e-06
-4.00184e-06
-2.66225e-06
-4.05344e-06
-3.46975e-06
-3.10442e-06
-4.13633e-06
-3.21921e-06
-3.50551e-06
-3.88588e-06
-3.16479e-06
-3.62811e-06
-3.66971e-06
-2.99624e-06
-3.72969e-06
-3.24595e-06
-3.07026e-06
-3.43345e-06
-3.08203e-06
-2.95678e-06
-3.19889e-06
-2.88807e-06
-2.9118e-06
-2.9366e-06
-2.77127e-06
-3.00208e-06
-2.50709e-06
-3.152e-06
-2.65069e-06
-2.66533e-06
-3.27178e-06
-2.44336e-06
-3.1515e-06
-2.99291e-06
-2.82327e-06
-3.22362e-06
-3.16706e-06
-2.90033e-06
-3.63435e-06
-3.07195e-06
-3.16049e-06
-4.0462e-06
-2.63339e-06
-4.05548e-06
-3.50139e-06
-3.06366e-06
-4.16703e-06
-3.21916e-06
-3.48459e-06
-3.91449e-06
-3.15334e-06
-3.61823e-06
-3.69897e-06
-2.96941e-06
-3.74053e-06
-3.25991e-06
-3.04525e-06
-3.45577e-06
-3.07686e-06
-2.94943e-06
-3.213e-06
-2.87818e-06
-2.91751e-06
-2.93843e-06
-2.76382e-06
-3.01847e-06
-2.48996e-06
-3.16356e-06
-2.65828e-06
-2.64388e-06
-3.3001e-06
-2.42886e-06
-3.1503e-06
-3.01048e-06
-2.80893e-06
-3.22868e-06
-3.18127e-06
-2.88179e-06
-3.64878e-06
-3.08493e-06
-3.1219e-06
-4.10218e-06
-2.5963e-06
-4.05891e-06
-3.53987e-06
-3.01263e-06
-4.20604e-06
-3.21734e-06
-3.45904e-06
-3.94979e-06
-3.1381e-06
-3.60567e-06
-3.73519e-06
-2.93456e-06
-3.75447e-06
-3.27591e-06
-3.01292e-06
-3.48457e-06
-3.06763e-06
-2.94047e-06
-3.23077e-06
-2.86286e-06
-2.92589e-06
-2.93948e-06
-2.7528e-06
-3.04001e-06
-2.46639e-06
-3.17849e-06
-2.66681e-06
-2.61654e-06
-3.33599e-06
-2.40893e-06
-3.14996e-06
-3.03162e-06
-2.79052e-06
-3.23543e-06
-3.19873e-06
-2.85829e-06
-3.66697e-06
-3.10097e-06
-3.07375e-06
-4.17095e-06
-2.55e-06
-4.06352e-06
-3.58569e-06
-2.9504e-06
-4.25393e-06
-3.21339e-06
-3.42853e-06
-3.99227e-06
-3.11897e-06
-3.58982e-06
-3.77955e-06
-2.89069e-06
-3.77222e-06
-3.29424e-06
-2.97227e-06
-3.52169e-06
-3.05292e-06
-2.93046e-06
-3.25338e-06
-2.84015e-06
-2.93875e-06
-2.93938e-06
-2.73714e-06
-3.06855e-06
-2.43469e-06
-3.19755e-06
-2.67634e-06
-2.5824e-06
-3.38047e-06
-2.38238e-06
-3.15081e-06
-3.05641e-06
-2.76732e-06
-3.24378e-06
-3.21988e-06
-2.82883e-06
-3.68895e-06
-3.12071e-06
-3.01406e-06
-4.25329e-06
-2.49385e-06
-4.06837e-06
-3.63914e-06
-2.87627e-06
-4.31038e-06
-3.20724e-06
-3.3926e-06
-4.04196e-06
-3.09622e-06
-3.56969e-06
-3.83344e-06
-2.83692e-06
-3.79447e-06
-3.3154e-06
-2.92225e-06
-3.56963e-06
-3.03091e-06
-2.92048e-06
-3.28262e-06
-2.80747e-06
-2.95894e-06
-2.93771e-06
-2.71563e-06
-3.10673e-06
-2.39292e-06
-3.2217e-06
-2.68722e-06
-2.54055e-06
-3.43449e-06
-2.34825e-06
-3.15299e-06
-3.08493e-06
-2.73868e-06
-3.25305e-06
-3.24537e-06
-2.79225e-06
-3.71421e-06
-3.1452e-06
-2.94038e-06
-4.34918e-06
-2.42827e-06
-4.0711e-06
-3.70041e-06
-2.79009e-06
-4.37343e-06
-3.19928e-06
-3.35048e-06
-4.09817e-06
-3.07066e-06
-3.54351e-06
-3.89827e-06
-2.77245e-06
-3.82152e-06
-3.34032e-06
-2.86149e-06
-3.63149e-06
-2.9995e-06
-2.91197e-06
-3.32108e-06
-2.76155e-06
-2.99051e-06
-2.93414e-06
-2.687e-06
-3.15819e-06
-2.33913e-06
-3.25199e-06
-2.70053e-06
-2.49027e-06
-3.49868e-06
-2.30651e-06
-3.15632e-06
-3.1172e-06
-2.70465e-06
-3.26174e-06
-3.27631e-06
-2.74734e-06
-3.74148e-06
-3.17621e-06
-2.85015e-06
-4.45721e-06
-2.35519e-06
-4.06704e-06
-3.76944e-06
-2.69309e-06
-4.43849e-06
-3.19063e-06
-3.30116e-06
-4.15878e-06
-3.04377e-06
-3.50844e-06
-3.97517e-06
-2.6971e-06
-3.85223e-06
-3.37075e-06
-2.78828e-06
-3.71011e-06
-2.95694e-06
-2.90625e-06
-3.37178e-06
-2.69893e-06
-3.03838e-06
-2.92836e-06
-2.65012e-06
-3.22728e-06
-2.27198e-06
-3.28917e-06
-2.7184e-06
-2.43175e-06
-3.57247e-06
-2.25907e-06
-3.16054e-06
-3.15269e-06
-2.667e-06
-3.26745e-06
-3.31408e-06
-2.69396e-06
-3.76837e-06
-3.21581e-06
-2.74325e-06
-4.57317e-06
-2.28008e-06
-4.04964e-06
-3.84561e-06
-2.58917e-06
-4.49771e-06
-3.18349e-06
-3.24404e-06
-4.21964e-06
-3.01805e-06
-3.46074e-06
-4.06364e-06
-2.61286e-06
-3.8826e-06
-3.40893e-06
-2.70191e-06
-3.80518e-06
-2.9033e-06
-2.90437e-06
-3.43591e-06
-2.61745e-06
-3.10728e-06
-2.91923e-06
-2.60512e-06
-3.31728e-06
-2.19181e-06
-3.33327e-06
-2.74327e-06
-2.36803e-06
-3.65253e-06
-2.21016e-06
-3.16664e-06
-3.18879e-06
-2.63008e-06
-3.26814e-06
-3.35532e-06
-2.6345e-06
-3.79143e-06
-3.26317e-06
-2.62212e-06
-4.68898e-06
-2.21124e-06
-4.01248e-06
-3.92669e-06
-2.4864e-06
-4.54075e-06
-3.18205e-06
-3.18064e-06
-4.2746e-06
-2.99601e-06
-3.39855e-06
-4.15877e-06
-2.52624e-06
-3.90551e-06
-3.45439e-06
-2.60821e-06
-3.90889e-06
-2.84096e-06
-2.91063e-06
-3.50756e-06
-2.51949e-06
-3.20157e-06
-2.90156e-06
-2.55674e-06
-3.42742e-06
-2.10055e-06
-3.38515e-06
-2.7741e-06
-2.30733e-06
-3.73261e-06
-2.16392e-06
-3.18041e-06
-3.21936e-06
-2.59936e-06
-3.26619e-06
-3.39868e-06
-2.57481e-06
-3.80805e-06
-3.31022e-06
-2.49622e-06
-4.79716e-06
-2.1551e-06
-3.95238e-06
-4.00953e-06
-2.39479e-06
-4.55843e-06
-3.18546e-06
-3.11424e-06
-4.31884e-06
-2.97585e-06
-3.32641e-06
-4.24939e-06
-2.44732e-06
-3.91595e-06
-3.49541e-06
-2.52645e-06
-4.005e-06
-2.77015e-06
-2.93997e-06
-3.56788e-06
-2.41378e-06
-3.32799e-06
-2.85987e-06
-2.51746e-06
-3.55271e-06
-1.99924e-06
-3.45087e-06
-2.80414e-06
-2.25918e-06
-3.80952e-06
-2.11796e-06
-3.21203e-06
-3.24064e-06
-2.57181e-06
-3.27297e-06
-3.43543e-06
-2.51799e-06
-3.82456e-06
-3.34703e-06
-2.37146e-06
-4.90013e-06
-2.11151e-06
-3.8676e-06
-4.09428e-06
-2.31625e-06
-4.5481e-06
-3.19444e-06
-3.04483e-06
-4.35824e-06
-2.94554e-06
-3.25875e-06
-4.32122e-06
-2.38044e-06
-3.92355e-06
-3.50286e-06
-2.4912e-06
-4.07327e-06
-2.67987e-06
-3.02607e-06
-3.58234e-06
-2.31635e-06
-3.50019e-06
-2.76873e-06
-2.5044e-06
-3.68682e-06
-1.88204e-06
-3.5379e-06
-2.83083e-06
-2.22447e-06
-3.88436e-06
-2.071e-06
-3.26096e-06
-3.26221e-06
-2.53248e-06
-3.30289e-06
-3.46343e-06
-2.45195e-06
-3.85895e-06
-3.37352e-06
-2.23487e-06
-5.01346e-06
-2.07803e-06
-3.74843e-06
-4.20155e-06
-2.26477e-06
-4.51399e-06
-3.21841e-06
-2.954e-06
-4.41771e-06
-2.88212e-06
-3.21077e-06
-4.3778e-06
-2.30488e-06
-3.95242e-06
-3.4351e-06
-2.53855e-06
-4.10077e-06
-2.53405e-06
-3.2268e-06
-3.49715e-06
-2.24542e-06
-3.73436e-06
-2.591e-06
-2.54594e-06
-3.81493e-06
-1.74993e-06
-3.64452e-06
-2.85294e-06
-2.20685e-06
-3.94803e-06
-2.03482e-06
-3.31451e-06
-3.2956e-06
-2.4713e-06
-3.35417e-06
-3.49566e-06
-2.35693e-06
-3.93004e-06
-3.40575e-06
-2.06008e-06
-5.15315e-06
-2.07162e-06
-3.55957e-06
-4.36249e-06
-2.17575e-06
-4.44833e-06
-3.28291e-06
-2.81285e-06
-4.52543e-06
-2.78344e-06
-3.16478e-06
-4.44788e-06
-2.19463e-06
-4.0522e-06
-3.27324e-06
-2.67213e-06
-4.1031e-06
-2.28776e-06
-3.60751e-06
-3.27079e-06
-2.19801e-06
-4.06478e-06
-2.28646e-06
-2.6635e-06
-3.92947e-06
-1.60342e-06
-3.77669e-06
-2.86807e-06
-2.20973e-06
-3.99794e-06
-2.01399e-06
-3.36527e-06
-3.34948e-06
-2.3837e-06
-3.42147e-06
-3.54331e-06
-2.22621e-06
-4.0347e-06
-3.44962e-06
-1.83961e-06
-5.31693e-06
-2.1028e-06
-3.27831e-06
-4.605e-06
-2.06078e-06
-4.3482e-06
-3.40589e-06
-2.60372e-06
-4.68911e-06
-2.65614e-06
-3.10503e-06
-4.55728e-06
-2.0394e-06
-4.21407e-06
-3.02702e-06
-2.87451e-06
-4.13128e-06
-1.92005e-06
-4.18925e-06
-2.88672e-06
-2.17479e-06
-4.50616e-06
-1.84066e-06
-3.02223e-06
-4.02232e-06
-1.45589e-06
-3.91749e-06
-2.8919e-06
-2.21886e-06
-4.02385e-06
-2.0304e-06
-3.386e-06
-3.4526e-06
-2.2547e-06
-3.53045e-06
-3.61283e-06
-2.051e-06
-4.1723e-06
-3.51578e-06
-1.56884e-06
-5.51381e-06
-2.15564e-06
-2.9194e-06
-4.92869e-06
-1.90488e-06
-4.22629e-06
-3.5887e-06
-2.32346e-06
-4.90769e-06
-2.51302e-06
-3.01174e-06
-4.7241e-06
-1.83641e-06
-4.41267e-06
-2.74314e-06
-3.09322e-06
-4.20499e-06
-1.43968e-06
-4.91782e-06
-2.39945e-06
-2.15253e-06
-5.05383e-06
-1.25838e-06
-3.38241e-06
-4.07721e-06
-1.31129e-06
-4.05743e-06
-2.91903e-06
-2.24918e-06
-4.01069e-06
-2.10512e-06
-3.35266e-06
-3.59834e-06
-2.10148e-06
-3.6233e-06
-3.7312e-06
-1.821e-06
-4.33987e-06
-3.61011e-06
-1.24083e-06
-5.75795e-06
-2.19127e-06
-2.54597e-06
-5.29317e-06
-1.70918e-06
-4.1158e-06
-3.79655e-06
-1.99879e-06
-5.15574e-06
-2.37437e-06
-2.86704e-06
-4.95295e-06
-1.59995e-06
-4.60185e-06
-2.49675e-06
-3.25956e-06
-4.33347e-06
-9.15018e-07
-5.65816e-06
-1.92934e-06
-2.08524e-06
-5.65855e-06
-6.26517e-07
-3.84539e-06
-4.11418e-06
-1.16256e-06
-4.19956e-06
-2.94343e-06
-2.29317e-06
-3.96929e-06
-2.22615e-06
-3.27509e-06
-3.76803e-06
-1.96091e-06
-3.66802e-06
-3.90592e-06
-1.54793e-06
-4.51673e-06
-3.73938e-06
-8.80618e-07
-6.03408e-06
-2.18561e-06
-2.21434e-06
-5.6489e-06
-1.4819e-06
-4.0441e-06
-3.98477e-06
-1.6777e-06
-5.37907e-06
-2.28751e-06
-2.65579e-06
-5.22768e-06
-1.36747e-06
-4.72019e-06
-2.374e-06
-3.30225e-06
-4.51914e-06
-4.26592e-07
-6.28099e-06
-1.59769e-06
-1.93357e-06
-6.25944e-06
-4.62105e-08
-4.13334e-06
-4.19501e-06
-1.00721e-06
-4.32588e-06
-2.97777e-06
-2.34378e-06
-3.89753e-06
-2.39029e-06
-3.15404e-06
-3.93766e-06
-1.86736e-06
-3.63167e-06
-4.14523e-06
-1.2538e-06
-4.66504e-06
-3.89937e-06
-5.20053e-07
-6.31936e-06
-2.13864e-06
-1.96833e-06
-5.94377e-06
-1.2457e-06
-4.02733e-06
-4.12382e-06
-1.39962e-06
-5.56503e-06
-2.25987e-06
-2.39921e-06
-5.50082e-06
-1.20735e-06
-4.6805e-06
-2.44537e-06
-3.18336e-06
-4.74485e-06
-6.62027e-08
-6.66085e-06
-1.52915e-06
-1.66884e-06
-6.77448e-06
3.59229e-07
-4.27962e-06
-4.303e-06
-9.00898e-07
-4.37533e-06
-3.04654e-06
-2.38209e-06
-3.7865e-06
-2.60513e-06
-2.98711e-06
-4.08792e-06
-1.86692e-06
-3.47298e-06