/*--------------------------------*- C++ -*----------------------------------*\
  =========                 |
  \\      /  F ield         | OpenFOAM: The Open Source CFD Toolbox
   \\    /   O peration     | Website:  https://openfoam.org
    \\  /    A nd           | Version:  10
     \\/     M anipulation  |
\*---------------------------------------------------------------------------*/
FoamFile
{
    format      ascii;
    class       surfaceScalarField;
    location    "35";
    object      phi_0;
}
// * * * * * * * * * * * * * * * * * * * * * * * * * * * * * * * * * * * * * //

dimensions      [0 3 -1 0 0 0 0];

internalField   nonuniform List<scalar> 
300480
(
4.47477e-06
-1.41833e-10
1.90139e-12
4.47473e-06
6.54309e-11
-3.37653e-12
4.47471e-06
2.52108e-11
8.73986e-11
4.47491e-06
-1.82481e-10
-1.29581e-10
4.47473e-06
1.89781e-10
6.36024e-11
4.4749e-06
-1.72534e-10
-1.13695e-10
4.47493e-06
-1.12582e-11
-8.12243e-11
4.47484e-06
5.88204e-11
-6.10551e-11
4.475e-06
-1.52768e-10
-1.60949e-10
4.47494e-06
1.96931e-11
-1.28466e-10
4.47494e-06
-2.09296e-11
-1.23144e-10
4.47503e-06
-1.31532e-10
-2.17134e-10
4.47495e-06
3.00273e-11
-1.41126e-10
4.47498e-06
-8.12071e-11
-1.80491e-10
4.47502e-06
-1.04419e-10
-2.44716e-10
4.47493e-06
1.65133e-11
-9.28332e-11
4.47496e-06
-1.11158e-10
-2.93014e-10
4.47495e-06
-6.70597e-11
-1.02005e-10
4.4749e-06
-4.26926e-11
-1.88198e-10
4.47487e-06
-5.15184e-11
-2.08928e-10
4.4749e-06
-1.27606e-10
-3.99106e-11
4.47479e-06
1.88923e-11
-2.41752e-10
4.4748e-06
-1.08516e-10
-1.50628e-11
4.47478e-06
-6.04212e-11
-1.28549e-10
4.47471e-06
-1.91377e-11
-7.92751e-11
4.47473e-06
-9.59196e-11
1.30438e-11
4.47464e-06
7.18067e-12
-1.00336e-10
4.4747e-06
-1.23214e-10
6.44422e-11
4.47458e-06
6.19678e-11
-2.43606e-11
4.47463e-06
-1.14915e-10
3.64079e-11
4.47462e-06
-2.67893e-11
7.49169e-11
4.47451e-06
6.01874e-11
1.33075e-11
4.47466e-06
-1.60474e-10
1.21115e-10
4.47453e-06
9.85223e-11
3.13688e-11
4.47459e-06
-6.80953e-11
1.1091e-10
4.47463e-06
-3.76078e-11
7.62301e-11
4.47457e-06
4.89998e-11
4.76177e-11
4.47465e-06
-5.55081e-11
1.37587e-10
4.47468e-06
-3.47607e-11
-2.07388e-11
8.62526e-11
1.28896e-10
1.5061e-05
-4.28519e-10
-3.73863e-11
1.50609e-05
2.21235e-10
5.74666e-11
1.5061e-05
-3.78634e-11
1.33809e-10
1.50613e-05
-4.86515e-10
-3.27503e-10
1.50611e-05
4.94263e-10
1.2379e-10
1.50615e-05
-5.90229e-10
-4.06841e-10
1.50615e-05
-3.37655e-12
-2.14294e-10
1.50614e-05
5.08235e-11
-3.0296e-10
1.50618e-05
-4.86824e-10
-4.93227e-10
1.50616e-05
1.08719e-11
-4.24868e-10
1.50617e-05
-1.73847e-10
-4.64734e-10
1.50619e-05
-4.3635e-10
-6.64521e-10
1.50617e-05
1.2215e-11
-4.77153e-10
1.50618e-05
-3.60997e-10
-6.37447e-10
1.50618e-05
-3.54831e-10
-6.96767e-10
1.50617e-05
-5.59619e-11
-4.133e-10
1.50617e-05
-4.33522e-10
-8.55778e-10
1.50617e-05
-2.64062e-10
-3.43361e-10
1.50616e-05
-2.19884e-10
-6.56032e-10
1.50615e-05
-2.56881e-10
-5.40781e-10
1.50615e-05
-4.37597e-10
-2.49819e-10
1.50612e-05
-2.99792e-11
-6.56491e-10
1.50612e-05
-4.08168e-10
-6.88625e-11
1.50611e-05
-2.29375e-10
-4.22182e-10
1.50609e-05
-1.36468e-10
-1.51245e-10
1.50609e-05
-3.23664e-10
-3.65239e-11
1.50607e-05
-6.04304e-11
-2.15837e-10
1.50608e-05
-3.71016e-10
1.83436e-10
1.50605e-05
1.17846e-10
-6.02116e-11
1.50606e-05
-3.84935e-10
1.73863e-10
1.50605e-05
-5.73581e-11
1.99043e-10
1.50603e-05
9.37587e-11
1.113e-10
1.50606e-05
-4.52328e-10
3.56371e-10
1.50603e-05
2.72381e-10
1.30472e-10
1.50605e-05
-2.43885e-10
3.60899e-10
1.50605e-05
-8.03455e-11
2.12268e-10
1.50604e-05
1.07276e-10
2.12544e-10
1.50606e-05
-1.79575e-10
3.5145e-10
1.50607e-05
-7.98111e-11
7.49713e-14
2.00642e-10
3.62064e-10
2.84305e-05
-8.11622e-10
-6.66842e-11
2.84304e-05
4.17023e-10
1.52048e-10
2.84307e-05
-2.07478e-10
1.15985e-10
2.84312e-05
-8.59463e-10
-4.79315e-10
2.84309e-05
8.02847e-10
1.15895e-10
2.84315e-05
-1.1975e-09
-7.24275e-10
2.84315e-05
-1.76533e-11
-3.64155e-10
2.84316e-05
-7.98816e-11
-6.38862e-10
2.8432e-05
-9.77842e-10
-8.45498e-10
2.84319e-05
-9.08097e-11
-8.01475e-10
2.84321e-05
-4.89156e-10
-8.86305e-10
2.84323e-05
-9.18209e-10
-1.16732e-09
2.84321e-05
-1.23711e-10
-9.03422e-10
2.84323e-05
-8.59108e-10
-1.18622e-09
2.84323e-05
-7.71016e-10
-1.19329e-09
2.84321e-05
-2.86021e-10
-8.66351e-10
2.84321e-05
-9.78213e-10
-1.44535e-09
2.8432e-05
-6.29048e-10
-6.86351e-10
2.84318e-05
-5.70563e-10
-1.20212e-09
2.84316e-05
-6.53775e-10
-8.89824e-10
2.84316e-05
-9.3515e-10
-5.80332e-10
2.84312e-05
-2.03269e-10
-1.05707e-09
2.84311e-05
-9.08157e-10
-1.9828e-10
2.84309e-05
-5.2611e-10
-7.4252e-10
2.84306e-05
-3.83221e-10
-2.14234e-10
2.84306e-05
-6.88312e-10
-1.45633e-10
2.84302e-05
-2.31474e-10
-2.83936e-10
2.84302e-05
-7.25162e-10
2.72057e-10
2.84298e-05
1.1336e-10
-7.09334e-11
2.84299e-05
-7.7263e-10
3.40559e-10
2.84298e-05
-1.11451e-10
3.22947e-10
2.84295e-05
7.23222e-11
2.65584e-10
2.84298e-05
-8.24947e-10
5.98949e-10
2.84295e-05
4.68258e-10
2.77789e-10
2.84297e-05
-4.96168e-10
6.4066e-10
2.84297e-05
-1.27548e-10
3.69737e-10
2.84297e-05
1.50882e-10
4.33289e-10
2.84299e-05
-3.49428e-10
5.53016e-10
2.843e-05
-1.36895e-10
8.22395e-11
3.05269e-10
5.81845e-10
4.51662e-05
-1.2936e-09
-4.93072e-11
4.51662e-05
6.39969e-10
2.69922e-10
4.51666e-05
-4.88037e-10
9.7678e-11
4.51672e-05
-1.3122e-09
-5.89035e-10
4.5167e-05
1.0994e-09
7.36653e-11
4.51678e-05
-2.00779e-09
-1.02389e-09
4.51679e-05
-7.13021e-11
-5.3888e-10
4.51681e-05
-3.55734e-10
-1.01453e-09
4.51687e-05
-1.64925e-09
-1.21382e-09
4.51686e-05
-3.07107e-10
-1.24646e-09
4.51689e-05
-9.99454e-10
-1.35604e-09
4.51691e-05
-1.60228e-09
-1.73412e-09
4.5169e-05
-4.12079e-10
-1.41033e-09
4.51692e-05
-1.6093e-09
-1.8133e-09
4.51692e-05
-1.38198e-09
-1.76672e-09
4.5169e-05
-7.15182e-10
-1.43106e-09
4.51691e-05
-1.77717e-09
-2.09356e-09
4.51688e-05
-1.19449e-09
-1.15239e-09
4.51686e-05
-1.13598e-09
-1.82034e-09
4.51684e-05
-1.27172e-09
-1.32347e-09
4.51682e-05
-1.65376e-09
-1.01626e-09
4.51677e-05
-5.33074e-10
-1.49937e-09
4.51676e-05
-1.63993e-09
-4.31261e-10
4.51672e-05
-9.73971e-10
-1.10085e-09
4.51668e-05
-7.8702e-10
-3.33412e-10
4.51666e-05
-1.21665e-09
-3.08975e-10
4.51661e-05
-5.16196e-10
-3.5802e-10
4.51661e-05
-1.21483e-09
3.11395e-10
4.51655e-05
3.94333e-11
-7.14021e-11
4.51656e-05
-1.29184e-09
4.96982e-10
4.51653e-05
-2.0241e-10
4.52277e-10
4.5165e-05
-8.74358e-12
4.45561e-10
4.51653e-05
-1.29054e-09
8.50223e-10
4.51648e-05
6.87224e-10
4.66075e-10
4.51651e-05
-8.35915e-10
9.45663e-10
4.51651e-05
-1.78195e-10
5.65436e-10
4.51651e-05
1.74044e-10
6.9782e-10
4.51654e-05
-5.68527e-10
7.77051e-10
4.51655e-05
-2.07914e-10
2.25052e-10
3.93935e-10
8.114e-10
6.59243e-05
-1.88292e-09
4.06478e-11
6.59243e-05
8.8355e-10
4.32239e-10
6.59248e-05
-8.81118e-10
1.44529e-10
6.59257e-05
-1.85952e-09
-6.47796e-10
6.59255e-05
1.38536e-09
6.25814e-11
6.59266e-05
-3.03753e-09
-1.27055e-09
6.59267e-05
-1.7063e-10
-7.07646e-10
6.5927e-05
-7.88772e-10
-1.36783e-09
6.59278e-05
-2.51975e-09
-1.58164e-09
6.59278e-05
-6.48153e-10
-1.71631e-09
6.59283e-05
-1.72848e-09
-1.84063e-09
6.59286e-05
-2.50727e-09
-2.35353e-09
6.59285e-05
-8.76932e-10
-1.96904e-09
6.59288e-05
-2.63681e-09
-2.50827e-09
6.59289e-05
-2.21527e-09
-2.4263e-09
6.59286e-05
-1.37386e-09
-2.08822e-09
6.59287e-05
-2.86062e-09
-2.83404e-09
6.59284e-05
-1.99211e-09
-1.74413e-09
6.59281e-05
-1.95311e-09
-2.53228e-09
6.59278e-05
-2.14087e-09
-1.89205e-09
6.59276e-05
-2.63217e-09
-1.55964e-09
6.59269e-05
-1.05077e-09
-2.05481e-09
6.59267e-05
-2.64195e-09
-7.88574e-10
6.59262e-05
-1.60239e-09
-1.5455e-09
6.59256e-05
-1.38397e-09
-5.67761e-10
6.59253e-05
-1.9411e-09
-5.47675e-10
6.59246e-05
-9.37247e-10
-5.07654e-10
6.59244e-05
-1.88013e-09
2.78132e-10
6.59237e-05
-1.17293e-10
-1.08241e-10
6.59237e-05
-1.97565e-09
6.03199e-10
6.59232e-05
-3.47488e-10
5.71216e-10
6.59229e-05
-1.66865e-10
6.10514e-10
6.59231e-05
-1.87312e-09
1.10499e-09
6.59225e-05
9.24582e-10
6.72841e-10
6.59228e-05
-1.28584e-09
1.27435e-09
6.59228e-05
-2.3612e-10
8.03062e-10
6.59228e-05
1.6476e-10
1.00219e-09
6.59232e-05
-8.45277e-10
1.05439e-09
6.59233e-05
-2.99067e-10
4.266e-10
4.63576e-10
1.09228e-09
9.14728e-05
-2.59622e-09
2.23254e-10
9.14729e-05
1.14803e-09
6.81554e-10
9.14736e-05
-1.38842e-09
3.15376e-10
9.14746e-05
-2.51351e-09
-6.25292e-10
9.14745e-05
1.67948e-09
1.6345e-10
9.14759e-05
-4.30459e-09
-1.4236e-09
9.14762e-05
-3.03851e-10
-8.03293e-10
9.14767e-05
-1.38114e-09
-1.63142e-09
9.14777e-05
-3.59606e-09
-1.90391e-09
9.14778e-05
-1.10747e-09
-2.14324e-09
9.14784e-05
-2.68618e-09
-2.29259e-09
9.1479e-05
-3.63841e-09
-2.98629e-09
9.14789e-05
-1.52464e-09
-2.53246e-09
9.14794e-05
-3.95436e-09
-3.24628e-09
9.14795e-05
-3.28728e-09
-3.15567e-09
9.14793e-05
-2.2757e-09
-2.81512e-09
9.14794e-05
-4.25299e-09
-3.6851e-09
9.14791e-05
-3.04351e-09
-2.45083e-09
9.14788e-05
-3.05146e-09
-3.36995e-09
9.14784e-05
-3.28765e-09
-2.62662e-09
9.14781e-05
-3.90912e-09
-2.2308e-09
9.14772e-05
-1.78426e-09
-2.79341e-09
9.14769e-05
-3.95851e-09
-1.29724e-09
9.14762e-05
-2.44465e-09
-2.14835e-09
9.14754e-05
-2.21808e-09
-9.74429e-10
9.1475e-05
-2.90148e-09
-9.15321e-10
9.14741e-05
-1.53114e-09
-8.1094e-10
9.14738e-05
-2.77224e-09
1.29133e-10
9.14728e-05
-3.7975e-10
-2.55865e-10
9.14727e-05
-2.87922e-09
6.08989e-10
9.1472e-05
-5.71637e-10
6.346e-10
9.14715e-05
-4.37885e-10
7.07624e-10
9.14717e-05
-2.61052e-09
1.33911e-09
9.14709e-05
1.16359e-09
8.57505e-10
9.14712e-05
-1.88557e-09
1.61616e-09
9.14711e-05
-3.13968e-10
1.06957e-09
9.1471e-05
9.97208e-11
1.34132e-09
9.14715e-05
-1.19732e-09
1.40425e-09
9.14716e-05
-4.22859e-10
6.85878e-10
5.09029e-10
1.47001e-09
0.0001227
-3.45882e-09
5.08365e-10
0.0001227
1.43572e-09
1.06264e-09
0.000122701
-2.01939e-09
6.62119e-10
0.000122702
-3.28046e-09
-4.7596e-10
0.000122702
2.00709e-09
4.63504e-10
0.000122703
-5.82665e-09
-1.43065e-09
0.000122704
-4.40426e-10
-7.32946e-10
0.000122705
-2.12635e-09
-1.72789e-09
0.000122706
-4.86741e-09
-2.10213e-09
0.000122706
-1.6602e-09
-2.4384e-09
0.000122707
-3.86301e-09
-2.6337e-09
0.000122708
-4.98166e-09
-3.56211e-09
0.000122708
-2.33711e-09
-3.02594e-09
0.000122709
-5.55562e-09
-3.96979e-09
0.000122709
-4.59321e-09
-3.90556e-09
0.000122709
-3.41018e-09
-3.56701e-09
0.000122709
-5.96492e-09
-4.63483e-09
0.000122709
-4.34877e-09
-3.23839e-09
0.000122708
-4.44612e-09
-4.35115e-09
0.000122708
-4.72644e-09
-3.53432e-09
0.000122708
-5.51362e-09
-3.0505e-09
0.000122707
-2.7519e-09
-3.76885e-09
0.000122706
-5.63329e-09
-1.98977e-09
0.000122705
-3.53052e-09
-2.98481e-09
0.000122704
-3.33739e-09
-1.61181e-09
0.000122704
-4.1415e-09
-1.49047e-09
0.000122703
-2.34457e-09
-1.35171e-09
0.000122702
-3.95237e-09
-2.04496e-10
0.000122701
-7.83682e-10
-6.08261e-10
0.0001227
-4.07809e-09
4.42228e-10
0.0001227
-9.0935e-10
5.64091e-10
0.000122699
-8.85582e-10
6.63383e-10
0.000122699
-3.5569e-09
1.49826e-09
0.000122698
1.37021e-09
9.53507e-10
0.000122698
-2.69694e-09
1.93496e-09
0.000122698
-4.39191e-10
1.32726e-09
0.000122698
-6.14438e-11
1.6916e-09
0.000122698
-1.65791e-09
1.8247e-09
0.000122698
-6.0393e-10
9.89336e-10
5.16012e-10
1.97745e-09
0.000160624
-4.51791e-09
8.83104e-10
0.000160624
1.74096e-09
1.59666e-09
0.000160625
-2.79795e-09
1.2156e-09
0.000160626
-4.18508e-09
-1.60367e-10
0.000160626
2.39227e-09
1.03923e-09
0.000160629
-7.62409e-09
-1.24001e-09
0.000160629
-5.37706e-10
-3.95578e-10
0.00016063
-3.01382e-09
-1.56981e-09
0.000160632
-6.30645e-09
-2.07427e-09
0.000160632
-2.26702e-09
-2.49547e-09
0.000160633
-5.22642e-09
-2.74654e-09
0.000160634
-6.50334e-09
-3.98e-09
0.000160635
-3.26783e-09
-3.3367e-09
0.000160636
-7.40859e-09
-4.57648e-09
0.000160636
-6.10083e-09
-4.58138e-09
0.000160636
-4.73302e-09
-4.25298e-09
0.000160637
-7.98503e-09
-5.62945e-09
0.000160636
-5.8734e-09
-4.02404e-09
0.000160636
-6.12672e-09
-5.45281e-09
0.000160636
-6.4488e-09
-4.58335e-09
0.000160635
-7.44799e-09
-4.00823e-09
0.000160634
-3.95346e-09
-5.00026e-09
0.000160634
-7.69525e-09
-2.88259e-09
0.000160633
-4.87178e-09
-4.11177e-09
0.000160632
-4.78606e-09
-2.52502e-09
0.000160631
-5.69598e-09
-2.35723e-09
0.000160629
-3.42433e-09
-2.21313e-09
0.000160629
-5.48584e-09
-8.06171e-10
0.000160627
-1.3676e-09
-1.27692e-09
0.000160627
-5.6643e-09
7.8102e-12
0.000160625
-1.40094e-09
2.49101e-10
0.000160624
-1.59351e-09
3.73938e-10
0.000160624
-4.78402e-09
1.49234e-09
0.000160623
1.49343e-09
8.57432e-10
0.000160623
-3.80712e-09
2.15211e-09
0.000160622
-6.60378e-10
1.50129e-09
0.000160622
-3.79935e-10
1.98826e-09
0.000160622
-2.2833e-09
2.27892e-09
0.000160622
-8.88375e-10
1.28742e-09
4.54732e-10
2.61417e-09
0.000206405
-5.85471e-09
1.27762e-09
0.000206405
2.03786e-09
2.25139e-09
0.000206406
-3.77088e-09
1.95944e-09
0.000206408
-5.24783e-09
2.9946e-10
0.000206408
2.84306e-09
1.94237e-09
0.00020641
-9.73095e-09
-8.37004e-10
0.000206411
-5.57304e-10
2.90599e-10
0.000206412
-4.03929e-09
-1.07574e-09
0.000206414
-7.8809e-09
-1.72073e-09
0.000206415
-2.8875e-09
-2.20669e-09
0.000206416
-6.72411e-09
-2.48515e-09
0.000206418
-8.16049e-09
-4.1154e-09
0.000206418
-4.24533e-09
-3.31429e-09
0.00020642
-9.45421e-09
-4.92028e-09
0.00020642
-7.75424e-09
-5.03544e-09
0.000206421
-6.15753e-09
-4.71128e-09
0.000206422
-1.02778e-08
-6.56897e-09
0.000206421
-7.53715e-09
-4.64482e-09
0.000206421
-8.04515e-09
-6.58394e-09
0.000206421
-8.4155e-09
-5.67718e-09
0.000206421
-9.66363e-09
-5.02282e-09
0.00020642
-5.36172e-09
-6.44558e-09
0.000206419
-1.01373e-08
-3.93011e-09
0.000206418
-6.43965e-09
-5.54441e-09
0.000206417
-6.59149e-09
-3.70534e-09
0.000206416
-7.56641e-09
-3.57007e-09
0.000206414
-4.79843e-09
-3.4601e-09
0.000206413
-7.42649e-09
-1.73762e-09
0.000206411
-2.15132e-09
-2.37742e-09
0.000206411
-7.73382e-09
-7.90699e-10
0.000206409
-2.07818e-09
-4.39801e-10
0.000206408
-2.65419e-09
-2.95019e-10
0.000206407
-6.37557e-09
1.20241e-09
0.000206405
1.47177e-09
4.24217e-10
0.000206405
-5.32245e-09
2.13672e-09
0.000206404
-1.05119e-09
1.46832e-09
0.000206404
-9.33347e-10
2.10434e-09
0.000206404
-3.15625e-09
2.67781e-09
0.000206404
-1.35417e-09
1.46765e-09
2.79038e-10
3.32149e-09
0.000261347
-7.59233e-09
1.52783e-09
0.000261346
2.27047e-09
2.91465e-09
0.000261347
-5.0119e-09
2.79687e-09
0.000261349
-6.53877e-09
7.89929e-10
0.000261349
3.33507e-09
3.18003e-09
0.000261352
-1.22087e-08
-2.98316e-10
0.000261352
-4.89343e-10
1.34111e-09
0.000261354
-5.22003e-09
-2.09145e-10
0.000261356
-9.57587e-09
-9.87845e-10
0.000261357
-3.50601e-09
-1.50376e-09
0.000261359
-8.29738e-09
-1.71605e-09
0.000261361
-9.92519e-09
-3.84793e-09
0.000261362
-5.19158e-09
-2.79354e-09
0.000261364
-1.16152e-08
-4.83487e-09
0.000261365
-9.49516e-09
-5.09131e-09
0.000261365
-7.55453e-09
-4.69152e-09
0.000261367
-1.27959e-08
-7.32298e-09
0.000261367
-9.21357e-09
-4.84186e-09
0.000261367
-1.01083e-08
-7.56544e-09
0.000261367
-1.05635e-08
-6.63169e-09
0.000261367
-1.20333e-08
-5.9027e-09
0.000261366
-6.92246e-09
-7.97952e-09
0.000261366
-1.28949e-08
-4.95401e-09
0.000261365
-8.13724e-09
-7.2348e-09
0.000261364
-8.75142e-09
-5.03023e-09
0.000261362
-9.6882e-09
-5.08945e-09
0.000261361
-6.44855e-09
-5.11348e-09
0.00026136
-9.79262e-09
-2.96219e-09
0.000261357
-3.10089e-09
-4.00334e-09
0.000261356
-1.03619e-08
-1.99854e-09
0.000261354
-2.93667e-09
-1.6058e-09
0.000261352
-4.12911e-09
-1.49604e-09
0.000261352
-8.41123e-09
5.12088e-10
0.000261349
1.26045e-09
-5.12792e-10
0.000261349
-7.34161e-09
1.71826e-09
0.000261348
-1.70351e-09
1.05921e-09
0.000261347
-1.79611e-09
1.84717e-09
0.000261347
-4.37222e-09
2.86852e-09
0.000261346
-2.11224e-09
1.33678e-09
-5.96728e-11
3.96378e-09
0.000326893
-9.87113e-09
1.34533e-09
0.000326892
2.35474e-09
3.37829e-09
0.000326893
-6.6024e-09
3.55259e-09
0.000326894
-8.16845e-09
1.00051e-09
0.000326894
3.81184e-09
4.68919e-09
0.000326897
-1.51646e-08
1.58843e-10
0.000326897
-3.76452e-10
2.63411e-09
0.000326899
-6.6128e-09
9.60176e-10
0.000326902
-1.14251e-08
8.3341e-11
0.000326902
-4.16672e-09
-4.25421e-10
0.000326905
-9.89927e-09
-3.93522e-10
0.000326907
-1.18182e-08
-3.12776e-09
0.000326908
-6.05876e-09
-1.6559e-09
0.00032691
-1.38176e-08
-4.17514e-09
0.000326912
-1.13052e-08
-4.64044e-09
0.000326913
-8.76996e-09
-3.86318e-09
0.000326915
-1.55139e-08
-7.77677e-09
0.000326915
-1.07532e-08
-4.29735e-09
0.000326916
-1.21821e-08
-8.13558e-09
0.000326917
-1.2846e-08
-7.19006e-09
0.000326917
-1.43305e-08
-6.31278e-09
0.000326916
-8.57517e-09
-9.41903e-09
0.000326917
-1.58443e-08
-5.56239e-09
0.000326915
-9.77746e-09
-9.05149e-09
0.000326914
-1.1235e-08
-6.23299e-09
0.000326913
-1.19018e-08
-6.66827e-09
0.000326911
-8.28744e-09
-7.13842e-09
0.000326911
-1.25396e-08
-4.23181e-09
0.000326908
-4.09289e-09
-6.16608e-09
0.000326907
-1.35623e-08
-3.55428e-09
0.000326904
-3.90601e-09
-3.21754e-09
0.000326902
-6.00507e-09
-3.33649e-09
0.000326901
-1.09276e-08
-6.20812e-10
0.000326898
8.7201e-10
-2.09684e-09
0.000326898
-9.89778e-09
7.43142e-10
0.000326896
-2.70358e-09
9.70521e-11
0.000326894
-3.01008e-09
9.98135e-10
0.000326894
-5.99264e-09
2.65478e-09
0.000326893
-3.31884e-09
6.27065e-10
-5.77494e-10
4.35181e-09
0.00040461
-1.28005e-08
3.57689e-10
0.000404609
2.21093e-09
3.32864e-09
0.000404609
-8.58176e-09
4.06527e-09
0.000404611
-1.02466e-08
3.9566e-10
0.000404609
4.20148e-09
6.3211e-09
0.000404612
-1.86986e-08
1.78114e-10
0.000404613
-3.12961e-10
3.86367e-09
0.000404614
-8.30279e-09
2.18295e-09
0.000404617
-1.34588e-08
1.25875e-09
0.000404617
-5.00167e-09
8.11828e-10
0.00040462
-1.15128e-08
1.34981e-09
0.000404622
-1.39331e-08
-2.05994e-09
0.000404624
-6.87223e-09
3.75518e-11
0.000404626
-1.60158e-08
-2.83736e-09
0.000404629
-1.32582e-08
-3.81878e-09
0.00040463
-9.65581e-09
-1.90583e-09
0.000404633
-1.8481e-08
-7.89107e-09
0.000404633
-1.20382e-08
-2.76791e-09
0.000404635
-1.41038e-08
-7.99909e-09
0.000404636
-1.53235e-08
-7.13862e-09
0.000404636
-1.62266e-08
-5.75449e-09
0.000404636
-1.0304e-08
-1.06422e-08
0.000404637
-1.88432e-08
-5.14484e-09
0.000404636
-1.10804e-08
-1.07266e-08
0.000404636
-1.4023e-08
-7.01247e-09
0.000404635
-1.39437e-08
-7.69401e-09
0.000404633
-1.01697e-08
-9.47606e-09
0.000404633
-1.55451e-08
-5.01135e-09
0.000404629
-4.90665e-09
-8.65907e-09
0.000404629
-1.7252e-08
-5.28476e-09
0.000404626
-4.83133e-09
-4.9458e-09
0.000404624
-8.14875e-09
-5.8021e-09
0.000404623
-1.3859e-08
-2.05815e-09
0.000404619
3.89037e-10
-4.31414e-09
0.000404618
-1.28843e-08
-8.09963e-10
0.000404616
-4.07299e-09
-1.50783e-09
0.000404614
-4.54705e-09
-5.80867e-10
0.000404613
-7.94688e-09
1.89908e-09
0.000404611
-5.12197e-09
-9.61781e-10
-1.20264e-09
4.35317e-09
0.000496154
-1.63149e-08
-1.70217e-09
0.000496152
1.82157e-09
2.36471e-09
0.000496151
-1.08631e-08
4.37847e-09
0.000496152
-1.28252e-08
-1.65772e-09
0.00049615
4.46107e-09
7.86365e-09
0.000496153
-2.28005e-08
-6.62946e-10
0.000496153
-4.01739e-10
4.64804e-09
0.000496153
-1.03526e-08
2.98021e-09
0.000496156
-1.5688e-08
2.21271e-09
0.000496156
-6.23672e-09
1.82541e-09
0.000496158
-1.30774e-08
3.06224e-09
0.000496161
-1.64223e-08
-8.5289e-10
0.000496162
-7.72682e-09
1.7619e-09
0.000496165
-1.81868e-08
-7.50085e-10
0.000496168
-1.55582e-08
-3.11126e-09
0.000496169
-1.00802e-08
1.21684e-09
0.000496173
-2.18652e-08
-7.71318e-09
0.000496173
-1.30618e-08
-3.28151e-10
0.000496175
-1.56642e-08
-6.90951e-09
0.000496178
-1.83028e-08
-6.56168e-09
0.000496178
-1.73031e-08
-3.62559e-09
0.000496179
-1.22041e-08
-1.17222e-08
0.000496181
-2.18359e-08
-3.15444e-09
0.000496179
-1.16814e-08
-1.17043e-08
0.00049618
-1.72211e-08
-7.36608e-09
0.00049618
-1.54647e-08
-7.13253e-09
0.000496178
-1.19677e-08
-1.20385e-08
0.000496179
-1.8635e-08
-4.66844e-09
0.000496175
-5.26951e-09
-1.08243e-08
0.000496176
-2.12632e-08
-7.01897e-09
0.000496172
-5.48629e-09
-6.05763e-09
0.00049617
-1.03271e-08
-8.63079e-09
0.00049617
-1.69917e-08
-3.4037e-09
0.000496165
-4.68735e-11
-6.87584e-09
0.000496164
-1.60073e-08
-2.67559e-09
0.000496162
-5.71357e-09
-3.61211e-09
0.000496159
-6.27168e-09
-2.83852e-09
0.000496158
-9.95086e-09
7.56051e-10
0.000496156
-7.58152e-09
-3.724e-09
-1.72718e-09
4.08067e-09
0.000603197
-2.01262e-08
-4.59576e-09
0.000603195
1.28851e-09
1.42732e-10
0.000603193
-1.31614e-08
4.92533e-09
0.000603194
-1.56877e-08
-5.66684e-09
0.000603191
4.61863e-09
9.34846e-09
0.000603193
-2.71834e-08
-2.90529e-09
0.000603193
-6.44222e-10
4.9137e-09
0.000603192
-1.27529e-08
2.78279e-09
0.000603194
-1.78745e-08
2.37423e-09
0.000603195
-8.13532e-09
2.50072e-09
0.000603196
-1.43746e-08
3.69982e-09
0.000603199
-1.94148e-08
5.60803e-10
0.0006032
-8.71854e-09
2.47603e-09
0.000603202
-2.02079e-08
1.88668e-09
0.000603205
-1.85498e-08
-2.96811e-09
0.000603205
-9.81563e-09
4.81201e-09
0.00060321
-2.5906e-08
-7.30378e-09
0.000603211
-1.40207e-08
2.4396e-09
0.000603212
-1.64625e-08
-4.83353e-09
0.000603216
-2.24753e-08
-5.99837e-09
0.000603216
-1.70609e-08
3.80918e-10
0.000603218
-1.44627e-08
-1.27754e-08
0.00060322
-2.50498e-08
1.94859e-10
0.000603219
-1.10794e-08
-1.10365e-08
0.000603221
-2.12358e-08
-7.85361e-09
0.000603221
-1.60678e-08
-4.03344e-09
0.00060322
-1.36776e-08
-1.44184e-08
0.000603221
-2.16842e-08
-3.12019e-09
0.000603218
-4.94543e-09
-1.14322e-08
0.000603219
-2.54376e-08
-8.69041e-09
0.000603216
-5.64633e-09
-5.6612e-09
0.000603214
-1.2313e-08
-1.11851e-08
0.000603214
-1.99824e-08
-4.07922e-09
0.00060321
-3.38256e-10
-9.16453e-09
0.000603209
-1.87875e-08
-4.22916e-09
0.000603207
-7.43012e-09
-5.68106e-09
0.000603203
-8.00112e-09
-5.47106e-09
0.000603202
-1.14802e-08
-6.36144e-12
0.0006032
-1.06783e-08
-7.75946e-09
-1.77941e-09
4.02534e-09
0.000727326
-2.37402e-08
-7.41882e-09
0.000727324
7.80615e-10
-3.41404e-09
0.000727322
-1.50202e-08
6.94676e-09
0.000727322
-1.83324e-08
-1.21984e-08
0.00072732
4.72805e-09
1.20803e-08
0.000727319
-3.12227e-08
-7.31082e-09
0.00072732
-8.09767e-10
5.0208e-09
0.000727318
-1.54428e-08
2.11712e-09
0.000727319
-1.92708e-08
1.35118e-10
0.00072732
-1.0984e-08
4.33529e-09
0.00072732
-1.48598e-08
1.39728e-09
0.000727322
-2.27969e-08
2.47848e-09
0.000727323
-9.96486e-09
1.88438e-09
0.000727323
-2.15064e-08
3.51688e-09
0.000727328
-2.27187e-08
-2.78199e-09
0.000727326
-8.43835e-09
7.34868e-09
0.000727331
-3.05768e-08
-7.02862e-09
0.000727333
-1.54882e-08
5.04186e-09
0.000727332
-1.55609e-08
-2.60289e-09
0.000727339
-2.88737e-08
-5.85153e-09
0.000727337
-1.50213e-08
5.50543e-09
0.000727339
-1.70239e-08
-1.36719e-08
0.000727344
-2.92034e-08
3.71504e-09
0.000727341
-8.46809e-09
-8.18639e-09
0.000727345
-2.68305e-08
-8.9003e-09
0.000727345
-1.54075e-08
1.11311e-09
0.000727343
-1.53884e-08
-1.55138e-08
0.000727347
-2.4755e-08
-1.29486e-09
0.000727343
-3.83916e-09
-9.41802e-09
0.000727345
-2.96971e-08
-1.00434e-08
0.000727344
-5.22359e-09
-3.49291e-09
0.000727341
-1.40896e-08
-1.25294e-08
0.000727342
-2.23451e-08
-3.53591e-09
0.000727339
-7.35825e-10
-1.05242e-08
0.000727337
-2.06251e-08
-4.60437e-09
0.000727337
-9.03551e-09
-6.76933e-09
0.000727333
-9.71812e-09
-8.19415e-09
0.000727331
-1.17678e-08
1.11512e-09
0.00072733
-1.44373e-08
-1.29539e-08
-8.98387e-10
5.08162e-09
0.000869867
-2.64613e-08
-8.20808e-09
0.000869867
2.31705e-10
-9.51e-09
0.000869864
-1.60344e-08
1.4377e-08
0.000869863
-2.00474e-08
-2.35003e-08
0.000869862
4.69529e-09
1.89891e-08
0.00086986
-3.41762e-08
-1.30582e-08
0.000869861
-2.32562e-10
2.87402e-09
0.000869859
-1.86746e-08
6.12717e-09
0.000869859
-1.8496e-08
-8.79004e-09
0.00086986
-1.50101e-08
1.05753e-08
0.000869858
-1.39132e-08
-3.75085e-09
0.00086986
-2.57284e-08
2.3198e-09
0.000869862
-1.18998e-08
3.89063e-09
0.00086986
-2.07418e-08
4.75478e-10
0.000869865
-2.84055e-08
-1.36336e-09
0.000869862
-5.60162e-09
9.24796e-09
0.000869865
-3.48036e-08
-9.7551e-09
0.00086987
-1.86586e-08
9.43755e-09
0.000869865
-1.12972e-08
-2.65645e-09
0.000869874
-3.82276e-08
-6.10214e-09
0.000869871
-1.11457e-08
1.10228e-08
0.000869872
-1.88886e-08
-1.56463e-08
0.000869879
-3.55678e-08
7.4491e-09
0.000869874
-2.71405e-09
-5.04915e-09
0.000869879
-3.46801e-08
-9.68441e-09
0.00086988
-1.3333e-08
6.22827e-09
0.000869878
-1.71322e-08
-1.48218e-08
0.000869882
-2.78969e-08
2.34462e-10
0.000869879
-2.12141e-09
-5.71337e-09
0.000869881
-3.40024e-08
-1.02343e-08
0.000869881
-4.08481e-09
-3.62233e-10
0.000869879
-1.63082e-08
-1.23445e-08
0.00086988
-2.31421e-08
-1.1994e-09
0.000869879
-2.09103e-09
-1.1003e-08
0.000869876
-2.11127e-08
-3.26048e-09
0.000869876
-1.0105e-08
-5.57256e-09
0.000869874
-1.2113e-08
-1.15995e-08
0.000869872
-9.82168e-09
6.40739e-09
0.000869872
-1.90895e-08
-1.94699e-08
1.07984e-09
8.27918e-09
0.00103163
-2.73409e-08
2.5236e-10
0.00103163
-6.34739e-10
-2.55816e-08
0.00103163
-1.63129e-08
3.48335e-08
0.00103163
-2.00306e-08
-4.08524e-08
0.00103163
4.29533e-09
2.68566e-08
0.00103162
-3.59334e-08
-9.22895e-09
0.00103163
2.22995e-09
-1.23985e-08
0.00103163
-2.32157e-08
2.49941e-08
0.00103162
-1.43472e-08
-2.58318e-08
0.00103163
-1.97983e-08
1.70701e-08
0.00103162
-1.19184e-08
-6.24994e-10
0.00103162
-2.62352e-08
-9.63591e-09
0.00103163
-1.54928e-08
1.53618e-08
0.00103162
-1.64319e-08
-6.07486e-09
0.00103163
-3.48691e-08
-4.85408e-09
0.00103163
-2.1495e-09
1.99495e-08
0.00103163
-3.59085e-08
-2.29301e-08
0.00103163
-2.50019e-08
1.8923e-08
0.00103162
-2.20059e-09
-3.61078e-09
0.00103164
-4.96792e-08
-1.19557e-08
0.00103163
-6.46206e-09
2.25477e-08
0.00103163
-1.7868e-08
-2.43615e-08
0.00103164
-4.52089e-08
1.39372e-08
0.00103163
7.22183e-09
-3.42102e-09
0.00103164
-4.47174e-08
-1.16656e-08
0.00103164
-9.56509e-09
1.22536e-08
0.00103164
-1.88965e-08
-1.55658e-08
0.00103164
-3.07047e-08
2.85522e-09
0.00103164
1.92274e-10
-2.77646e-09
0.00103164
-3.87871e-08
-9.52875e-09
0.00103164
-9.7577e-10
3.57908e-09
0.00103164
-2.0657e-08
-1.25475e-08
0.00103164
-2.09549e-08
3.61685e-09
0.00103164
-4.91339e-09
-1.11836e-08
0.00103164
-2.1037e-08
-1.82434e-09
0.00103164
-9.1418e-09
6.91367e-10
0.00103164
-1.67524e-08
-1.90873e-08
0.00103163
-4.86225e-09
1.86223e-08
0.00103163
-2.44246e-08
-2.70461e-08
3.31325e-09
1.07986e-08
0.00121254
-2.5643e-08
3.31337e-08
0.00121254
-1.74142e-09
-5.85275e-08
0.00121255
-1.65139e-08
6.17561e-08
0.00121254
-1.79397e-08
-4.46334e-08
0.00121254
3.67545e-09
1.04344e-08
0.00121254
-3.71918e-08
2.61297e-08
0.00121254
7.27328e-09
-4.80757e-08
0.00121254
-2.91546e-08
5.03753e-08
0.00121253
-7.50908e-09
-2.80031e-08
0.00121254
-2.34656e-08
-3.62527e-10
0.00121254
-1.08355e-08
2.87182e-08
0.00121254
-2.23338e-08
-3.36879e-08
0.00121254
-2.10004e-08
2.33411e-08
0.00121254
-9.34996e-09
7.62339e-09
0.00121254
-3.91573e-08
-3.29313e-08
0.00121254
-7.46838e-10
5.06616e-08
0.00121254
-3.09299e-08
-4.1676e-08
0.00121255
-3.47144e-08
1.92404e-08
0.00121254
1.10281e-08
1.47483e-08
0.00121255
-6.01061e-08
-3.87837e-08
0.00121254
-3.02465e-09
4.83913e-08
0.00121254
-1.1587e-08
-3.81651e-08
0.00121255
-5.81259e-08
1.57026e-08
0.00121254
2.1872e-08
6.61196e-09
0.00121255
-5.61594e-08
-2.33326e-08
0.00121255
-3.62428e-09
2.39447e-08
0.00121255
-2.01465e-08
-1.96798e-08
0.00121255
-3.3245e-08
4.96607e-09
0.00121255
4.9115e-09
1.23467e-09
0.00121255
-4.57164e-08
-1.18155e-08
0.00121255
6.5179e-09
1.02251e-08
0.00121255
-2.8008e-08
-1.54951e-08
0.00121255
-1.59267e-08
8.84686e-09
0.00121255
-7.14652e-09
-7.79153e-09
0.00121255
-2.27233e-08
-7.83955e-09
0.00121255
-4.10733e-09
1.76634e-08
0.00121255
-2.40548e-08
-3.41666e-08
0.00121255
2.09412e-09
3.28743e-08
0.00121254
-2.86074e-08
-2.42654e-08
4.11255e-09
-4.64961e-09
0.00141112
-2.17673e-08
7.59383e-08
0.00141111
-2.06731e-09
-7.2834e-08
0.00141112
-1.71041e-08
4.73376e-08
0.00141111
-1.37013e-08
2.87844e-09
0.00141112
2.84736e-09
-4.39195e-08
0.00141111
-3.75198e-08
7.32033e-08
0.00141111
1.35091e-08
-6.10932e-08
0.00141111
-3.43653e-08
3.30659e-08
0.00141111
-7.36863e-10
1.73033e-08
0.00141111
-2.39216e-08
-4.37568e-08
0.00141111
-1.16633e-08
5.56421e-08
0.00141111
-1.51494e-08
-2.36488e-08
0.00141111
-2.5593e-08
-1.35069e-08
0.00141111
-3.57594e-09
6.1422e-08
0.00141111
-3.73618e-08
-7.38161e-08
0.00141112
-3.79743e-09
6.66589e-08
0.00141111
-1.99898e-08
-2.09686e-08
0.00141112
-4.4926e-08
-2.31795e-08
0.00141111
2.43179e-08
6.65296e-08
0.00141112
-6.50705e-08
-7.52731e-08
0.00141112
-3.24024e-09
6.39594e-08
0.00141111
7.8652e-10
-2.71987e-08
0.00141112
-7.2949e-08
-7.3394e-09
0.00141111
3.99089e-08
3.46546e-08
0.00141112
-6.67385e-08
-4.12279e-08
0.00141112
3.16756e-09
3.3158e-08
0.00141112
-1.83124e-08
-1.66891e-08
0.00141112
-3.72275e-08
-7.06122e-10
0.00141112
1.44555e-08
1.1224e-08
0.00141112
-5.49736e-08
-1.83243e-08
0.00141112
1.78624e-08
1.71851e-08
0.00141113
-3.52383e-08
-1.48205e-08
0.00141112
-1.08287e-08
3.82522e-09
0.00141112
-5.66872e-09
9.13173e-09
0.00141112
-2.67233e-08
-2.68029e-08
0.00141112
4.21048e-09
3.78857e-08
0.00141112
-3.09641e-08
-3.76152e-08
0.00141112
8.40225e-09
1.94812e-08
0.00141112
-2.92861e-08
1.42902e-08
3.10985e-09
-4.97745e-08
0.00162379
-1.71527e-08
6.02707e-08
0.00162378
-2.09751e-10
-2.25081e-08
0.00162379
-1.81666e-08
-1.30354e-08
0.00162378
-6.94453e-09
5.71464e-08
0.00162379
1.23892e-09
-6.28788e-08
0.00162379
-3.50785e-08
5.77899e-08
0.00162378
1.87125e-08
-1.22845e-08
0.00162379
-3.67306e-08
-1.77397e-08
0.00162378
5.21224e-09
5.34291e-08
0.00162379
-2.23748e-08
-3.90714e-08
0.00162378
-1.14702e-08
1.95223e-08
0.00162378
-9.03123e-09
3.69246e-08
0.00162378
-2.5274e-08
-6.35072e-08
0.00162378
-2.01784e-09
8.71875e-08
0.00162378
-2.94775e-08
-5.48075e-08
0.00162379
-9.08054e-09
1.90703e-08
0.00162378
-7.87409e-09
4.50898e-08
0.00162379
-5.04151e-08
-7.43508e-08
0.00162378
3.25655e-08
9.49255e-08
0.00162379
-6.19466e-08
-6.62067e-08
0.00162379
-7.38973e-09
3.55802e-08
0.00162378
1.66107e-08
1.49114e-08
0.00162379
-8.54587e-08
-3.82393e-08
0.00162378
5.63138e-08
5.51066e-08
0.00162379
-7.21791e-08
-4.03731e-08
0.00162379
7.55256e-09
2.59148e-08
0.00162379
-1.18288e-08
-7.647e-10
0.00162379
-4.22796e-08
-1.04456e-08
0.00162379
2.66273e-08
2.01538e-08
0.0016238
-6.2683e-08
-1.61272e-08
0.00162379
2.90593e-08
1.1538e-08
0.0016238
-3.90503e-08
1.2971e-09
0.00162379
-6.48073e-09
-1.2219e-08
0.0016238
-1.60216e-09
2.55005e-08
0.00162379
-2.97203e-08
-2.75013e-08
0.00162379
1.2652e-08
2.29197e-08
0.0016238
-3.44675e-08
4.66076e-11
0.00162379
1.31429e-08
-2.5074e-08
0.00162379
-2.66875e-08
5.64538e-08