/*--------------------------------*- C++ -*----------------------------------*\
  =========                 |
  \\      /  F ield         | OpenFOAM: The Open Source CFD Toolbox
   \\    /   O peration     | Website:  https://openfoam.org
    \\  /    A nd           | Version:  10
     \\/     M anipulation  |
\*---------------------------------------------------------------------------*/
FoamFile
{
    format      ascii;
    class       volScalarField;
    location    "35";
    object      pPrime2Mean;
}
// * * * * * * * * * * * * * * * * * * * * * * * * * * * * * * * * * * * * * //

dimensions      [0 4 -4 0 0 0 0];

internalField   nonuniform List<scalar> 
102400
(
1.9048e-08
3.093e-08
6.65233e-09
3.29384e-08
7.97171e-09
1.11483e-08
6.33516e-08
2.70798e-08
2.14218e-08
2.3317e-08
2.92194e-08
1.0312e-08
1.11681e-08
8.98643e-09
3.06273e-08
2.04649e-08
5.41839e-08
1.92752e-08
2.80642e-08
2.16032e-08
3.08352e-08
5.20457e-08
5.04798e-08
5.26082e-08
1.71175e-08
1.59828e-08
1.4082e-07
1.32142e-08
1.69957e-08
1.57706e-08
1.46473e-08
1.77428e-08
8.39817e-09
2.1028e-08
9.65169e-09
1.91168e-08
2.14849e-08
1.48209e-08
7.14294e-08
9.12583e-09
1.88225e-08
3.09641e-08
6.53867e-09
3.32898e-08
7.7465e-09
1.13293e-08
6.29061e-08
2.66022e-08
2.22428e-08
2.3147e-08
2.9211e-08
9.99107e-09
1.13124e-08
9.12293e-09
3.09569e-08
2.0102e-08
5.42323e-08
1.9125e-08
2.68551e-08
2.13233e-08
3.10898e-08
5.16311e-08
4.98102e-08
5.32067e-08
1.67941e-08
1.58712e-08
1.41898e-07
1.28611e-08
1.69475e-08
1.58139e-08
1.42677e-08
1.79091e-08
8.25801e-09
2.13543e-08
9.48241e-09
1.88873e-08
2.18472e-08
1.46585e-08
6.98129e-08
9.17605e-09
1.90575e-08
3.19619e-08
6.37738e-09
3.45628e-08
7.52084e-09
1.15808e-08
6.337e-08
2.61353e-08
2.49369e-08
2.29207e-08
2.88556e-08
9.85129e-09
1.1439e-08
9.4136e-09
3.18563e-08
2.01268e-08
5.4548e-08
1.9145e-08
2.64503e-08
2.06488e-08
3.20445e-08
5.25005e-08
4.89888e-08
5.42214e-08
1.60625e-08
1.60502e-08
1.46398e-07
1.209e-08
1.73872e-08
1.54955e-08
1.39244e-08
1.8542e-08
8.20312e-09
2.19999e-08
9.581e-09
1.88356e-08
2.2185e-08
1.45255e-08
6.72095e-08
8.96509e-09
1.97239e-08
3.56444e-08
6.70974e-09
3.49713e-08
7.60584e-09
1.22277e-08
6.42987e-08
2.54332e-08
2.85837e-08
2.35688e-08
2.81661e-08
9.33688e-09
1.22376e-08
9.52863e-09
3.24549e-08
1.9295e-08
5.54909e-08
1.86215e-08
2.64117e-08
2.05597e-08
3.31974e-08
5.38921e-08
4.64599e-08
5.59762e-08
1.56301e-08
1.63324e-08
1.60345e-07
1.19635e-08
1.76421e-08
1.47e-08
1.33342e-08
2.27248e-08
8.20343e-09
2.51641e-08
9.97467e-09
1.8546e-08
2.04776e-08
1.40223e-08
5.48563e-08
8.75829e-09
2.01544e-08
3.93216e-08
6.79355e-09
3.22061e-08
7.45507e-09
1.09932e-08
6.11497e-08
2.49456e-08
2.69772e-08
2.51528e-08
2.92282e-08
7.60902e-09
1.49975e-08
1.07583e-08
3.434e-08
1.79974e-08
4.75425e-08
1.74368e-08
2.52983e-08
2.08087e-08
3.70564e-08
5.7769e-08
4.00441e-08
6.16896e-08
1.36711e-08
1.64329e-08
1.74088e-07
1.23645e-08
1.95772e-08
1.34708e-08
1.189e-08
2.89446e-08
8.43442e-09
2.71307e-08
1.17879e-08
1.7393e-08
1.64553e-08
1.32922e-08
3.8802e-08
8.07603e-09
1.78026e-08
3.44041e-08
6.55272e-09
2.89352e-08
7.49883e-09
1.25146e-08
5.62387e-08
2.30925e-08
2.14709e-08
2.29079e-08
2.50362e-08
6.37235e-09
1.79867e-08
1.16684e-08
3.33349e-08
1.59468e-08
3.50866e-08
1.59737e-08
2.45435e-08
2.11649e-08
4.18613e-08
7.73631e-08
3.465e-08
6.73306e-08
1.14645e-08
1.6652e-08
1.5748e-07
1.24004e-08
1.53348e-08
1.14042e-08
9.79954e-09
4.40469e-08
8.91613e-09
3.12492e-08
1.05708e-08
1.57669e-08
1.53834e-08
1.2295e-08
2.32608e-08
9.32467e-09
1.54765e-08
2.55277e-08
6.13247e-09
2.49495e-08
8.44408e-09
9.92514e-09
4.40459e-08
2.07194e-08
1.73554e-08
1.77291e-08
1.93173e-08
5.61787e-09
1.72962e-08
1.15724e-08
2.84867e-08
1.3702e-08
2.18381e-08
1.43696e-08
2.35319e-08
2.09469e-08
4.14053e-08
8.31622e-08
3.08715e-08
5.57014e-08
1.04269e-08
1.73689e-08
1.34769e-07
1.11008e-08
1.39323e-08
8.93821e-09
7.5722e-09
5.89377e-08
9.15254e-09
3.10266e-08
8.89696e-09
1.33298e-08
1.38897e-08
9.4289e-09
1.52762e-08
1.08403e-08
1.27986e-08
2.38866e-08
5.24755e-09
1.81664e-08
9.39147e-09
1.08171e-08
3.83023e-08
1.79419e-08
1.36323e-08
1.58454e-08
1.40052e-08
4.79325e-09
1.27414e-08
9.14886e-09
2.0656e-08
1.15991e-08
1.62471e-08
1.24637e-08
2.14322e-08
1.62854e-08
3.8708e-08
6.1921e-08
2.8588e-08
3.9237e-08
9.40252e-09
1.48836e-08
1.00146e-07
1.043e-08
1.0044e-08
7.75452e-09
7.71895e-09
7.04448e-08
9.38376e-09
2.51922e-08
7.1177e-09
1.0324e-08
1.2605e-08
7.24313e-09
1.16595e-08
1.30862e-08
8.73728e-09
1.78293e-08
4.02321e-09
7.9936e-09
7.87424e-09
7.74267e-09
3.26831e-08
1.42488e-08
9.09171e-09
1.49445e-08
1.16102e-08
3.76772e-09
8.23853e-09
7.44706e-09
1.17666e-08
9.17868e-09
1.25921e-08
9.69402e-09
1.66187e-08
1.08172e-08
3.3435e-08
4.51098e-08
2.4849e-08
2.52348e-08
8.00564e-09
1.09986e-08
6.10824e-08
8.98778e-09
8.15746e-09
6.5646e-09
9.3682e-09
5.88591e-08
8.8457e-09
1.49178e-08
6.03038e-09
8.11619e-09
1.04421e-08
5.459e-09
8.73323e-09
1.00276e-08
5.55434e-09
1.34644e-08
2.78133e-09
4.35953e-09
5.03689e-09
6.04925e-09
2.28993e-08
1.02901e-08
5.10099e-09
1.12673e-08
9.61523e-09
2.67887e-09
5.49259e-09
4.58047e-09
6.51723e-09
6.5782e-09
7.72436e-09
6.58201e-09
1.00725e-08
7.15131e-09
2.68902e-08
3.60929e-08
1.98664e-08
1.77653e-08
5.67598e-09
7.36831e-09
3.76031e-08
7.26045e-09
6.05936e-09
5.57597e-09
9.24754e-09
3.86694e-08
7.57261e-09
8.55893e-09
4.14804e-09
4.95214e-09
7.02348e-09
3.48914e-09
5.39743e-09
5.88245e-09
3.42729e-09
8.00384e-09
1.58299e-09
2.42993e-09
2.94842e-09
3.29836e-09
1.62011e-08
7.15519e-09
2.90983e-09
8.57479e-09
7.63001e-09
2.00252e-09
3.40828e-09
2.36147e-09
3.37917e-09
4.82897e-09
4.86292e-09
4.53801e-09
5.92038e-09
4.55629e-09
1.80257e-08
2.66131e-08
1.53869e-08
1.28538e-08
3.5989e-09
5.07213e-09
2.2411e-08
5.75272e-09
3.14445e-09
4.23362e-09
8.25588e-09
2.86395e-08
7.00232e-09
4.12738e-09
2.52012e-09
3.24187e-09
4.0878e-09
2.21268e-09
3.28644e-09
3.3453e-09
1.95011e-09
4.11377e-09
9.53543e-10
1.45156e-09
1.69345e-09
1.62116e-09
1.08933e-08
4.65077e-09
1.68053e-09
6.74836e-09
5.98935e-09
1.38807e-09
2.0461e-09
1.31316e-09
1.82576e-09
3.34439e-09
3.14267e-09
2.88096e-09
3.44283e-09
2.78454e-09
1.13467e-08
1.79658e-08
1.17039e-08
8.42639e-09
2.11024e-09
3.12961e-09
1.34453e-08
4.55178e-09
1.60781e-09
3.42072e-09
7.30252e-09
1.95699e-08
6.36414e-09
1.89715e-09
1.39405e-09
1.65613e-09
2.32317e-09
1.30551e-09
2.00536e-09
1.82238e-09
1.07389e-09
2.02195e-09
5.25865e-10
6.76438e-10
9.67049e-10
7.90774e-10
6.86002e-09
2.79133e-09
1.00947e-09
5.25278e-09
4.44086e-09
9.47088e-10
1.27918e-09
7.58676e-10
1.13081e-09
2.48284e-09
2.33783e-09
1.88528e-09
1.98665e-09
1.78256e-09
7.25514e-09
1.20712e-08
8.73392e-09
5.48592e-09
1.23407e-09
2.01316e-09
8.28929e-09
3.67173e-09
9.51103e-10
2.88322e-09
6.28734e-09
1.40761e-08
5.67156e-09
9.15079e-10
7.43461e-10
9.1802e-10
1.3314e-09
7.5396e-10
1.16452e-09
9.44392e-10
5.81447e-10
9.38885e-10
3.18612e-10
3.37665e-10
5.55484e-10
3.74689e-10
4.03087e-09
1.57623e-09
7.46988e-10
3.99332e-09
3.22478e-09
6.75791e-10
8.02037e-10
5.45837e-10
8.7858e-10
1.93802e-09
1.84977e-09
1.32056e-09
1.2202e-09
1.31732e-09
4.84961e-09
8.04616e-09
6.39195e-09
3.69403e-09
7.76003e-10
1.35417e-09
5.35738e-09
2.97382e-09
7.58669e-10
2.52789e-09
5.42478e-09
1.04859e-08
5.09031e-09
7.20559e-10
4.11e-10
4.42009e-10
7.17319e-10
4.26925e-10
6.52211e-10
4.97435e-10
3.17904e-10
4.3656e-10
2.19977e-10
1.45949e-10
3.28132e-10
1.80612e-10
2.23804e-09
8.24076e-10
6.13458e-10
2.96247e-09
2.29982e-09
4.8593e-10
5.45884e-10
4.82375e-10
7.97566e-10
1.59743e-09
1.57118e-09
1.03611e-09
8.68421e-10
1.12777e-09
3.41903e-09
5.42563e-09
4.63967e-09
2.59765e-09
5.62983e-10
1.01362e-09
3.65438e-09
2.45295e-09
7.98564e-10
2.26813e-09
4.6616e-09
8.00098e-09
4.55143e-09
8.45911e-10
2.78552e-10
2.31105e-10
3.88951e-10
2.45901e-10
3.55201e-10
2.64339e-10
1.83139e-10
2.28335e-10
1.8063e-10
8.33975e-11
2.10879e-10
9.63629e-11
1.16065e-09
3.91891e-10
5.31101e-10
2.14479e-09
1.59583e-09
3.42103e-10
3.98201e-10
4.65678e-10
7.59866e-10
1.35988e-09
1.38598e-09
9.04254e-10
7.40098e-10
1.06504e-09
2.53701e-09
3.72986e-09
3.36209e-09
1.91166e-09
4.9792e-10
8.5457e-10
2.62511e-09
2.0456e-09
8.97678e-10
2.05132e-09
3.98575e-09
6.2406e-09
4.03499e-09
1.03245e-09
2.51413e-10
1.29893e-10
2.14587e-10
1.43452e-10
1.92831e-10
1.48462e-10
1.14499e-10
1.50438e-10
1.67494e-10
7.12903e-11
1.47833e-10
6.20677e-11
5.58815e-10
1.7077e-10
4.57371e-10
1.51001e-09
1.07255e-09
2.37382e-10
3.11291e-10
4.51997e-10
7.20975e-10
1.17331e-09
1.22282e-09
8.42205e-10
7.20789e-10
1.03577e-09
1.96327e-09
2.63601e-09
2.45316e-09
1.46755e-09
4.99978e-10
7.78431e-10
1.97439e-09
1.7249e-09
9.88515e-10
1.86507e-09
3.38965e-09
4.9364e-09
3.52365e-09
1.16912e-09
2.80779e-10
9.60371e-11
1.27988e-10
8.72991e-11
1.07979e-10
9.03887e-11
8.04267e-11
1.21063e-10
1.59577e-10
7.95281e-11
1.12315e-10
4.86872e-11
2.49367e-10
7.40758e-11
3.83514e-10
1.0333e-09
6.94708e-10
1.61572e-10
2.5509e-10
4.27435e-10
6.68405e-10
1.00968e-09
1.07354e-09
8.06278e-10
7.34671e-10
1.00198e-09
1.56858e-09
1.92501e-09
1.81792e-09
1.16692e-09
5.23844e-10
7.39309e-10
1.54279e-09
1.46488e-09
1.03387e-09
1.68912e-09
2.86249e-09
3.9347e-09
3.02624e-09
1.22498e-09
3.2739e-10
9.14185e-11
8.45537e-11
5.60446e-11
6.29631e-11
6.10661e-11
6.19075e-11
1.04345e-10
1.4856e-10
8.76221e-11
8.92259e-11
4.42107e-11
1.07057e-10
4.27948e-11
3.06862e-10
6.84925e-10
4.31944e-10
1.105e-10
2.16657e-10
3.87015e-10
5.97784e-10
8.60435e-10
9.32374e-10
7.7094e-10
7.40303e-10
9.48701e-10
1.27873e-09
1.45347e-09
1.37702e-09
9.5587e-10
5.438e-10
7.07438e-10
1.24181e-09
1.24916e-09
1.03154e-09
1.51874e-09
2.40086e-09
3.14438e-09
2.55481e-09
1.20347e-09
3.70827e-10
1.01183e-10
6.32504e-11
3.82286e-11
3.84164e-11
4.52831e-11
5.01013e-11
8.73321e-11
1.31005e-10
8.81786e-11
7.18884e-11
4.30151e-11
5.19412e-11
3.82417e-11
2.35524e-10
4.3973e-10
2.57279e-10
7.74702e-11
1.87083e-10
3.39194e-10
5.17261e-10
7.24085e-10
8.00191e-10
7.19618e-10
7.24094e-10
8.7245e-10
1.05423e-09
1.13096e-09
1.06909e-09
8.00982e-10
5.49061e-10
6.70616e-10
1.02258e-09
1.06775e-09
9.88109e-10
1.35326e-09
2.00072e-09
2.5118e-09
2.12334e-09
1.12452e-09
4.00262e-10
1.16695e-10
5.39347e-11
2.84408e-11
2.44285e-11
3.64597e-11
4.07837e-11
6.79078e-11
1.09035e-10
8.15754e-11
5.73881e-11
4.22969e-11
3.65798e-11
4.02546e-11
1.73533e-10
2.7428e-10
1.47652e-10
5.82987e-11
1.62835e-10
2.92073e-10
4.3683e-10
6.01879e-10
6.77836e-10
6.5438e-10
6.81597e-10
7.82528e-10
8.73832e-10
9.01677e-10
8.50914e-10
6.83349e-10
5.37379e-10
6.25233e-10
8.56028e-10
9.14347e-10
9.15746e-10
1.19308e-09
1.65734e-09
2.00253e-09
1.74151e-09
1.01381e-09
4.12692e-10
1.33863e-10
5.28156e-11
2.41968e-11
1.59635e-11
3.05091e-11
3.26209e-11
4.7344e-11
8.5105e-11
6.8846e-11
4.44183e-11
4.06178e-11
3.4805e-11
4.01262e-11
1.22263e-10
1.67902e-10
8.40311e-11
4.83713e-11
1.42432e-10
2.48799e-10
3.63472e-10
4.96233e-10
5.68904e-10
5.79866e-10
6.1904e-10
6.86195e-10
7.25075e-10
7.31213e-10
6.91354e-10
5.89372e-10
5.10743e-10
5.72892e-10
7.24985e-10
7.84984e-10
8.28475e-10
1.04073e-09
1.36604e-09
1.59321e-09
1.41393e-09
8.91178e-10
4.10187e-10
1.50208e-10
5.7798e-11
2.45978e-11
1.1173e-11
2.60615e-11
2.59132e-11
2.84902e-11
6.25403e-11
5.38278e-11
3.26179e-11
3.70711e-11
3.45415e-11
3.63866e-11
8.23429e-11
1.02932e-10
5.09986e-11
4.48664e-11
1.25851e-10
2.1115e-10
2.9986e-10
4.06486e-10
4.73866e-10
5.01287e-10
5.44655e-10
5.90076e-10
6.0109e-10
5.99381e-10
5.70357e-10
5.10314e-10
4.73441e-10
5.17844e-10
6.1957e-10
6.76143e-10
7.36456e-10
8.99028e-10
1.12158e-09
1.26647e-09
1.14015e-09
7.69685e-10
3.95999e-10
1.63944e-10
6.73045e-11
2.92377e-11
9.24734e-12
2.29954e-11
2.13075e-11
1.33533e-11
4.37113e-11
3.92207e-11
2.19299e-11
3.20152e-11
3.18046e-11
2.97487e-11
5.3283e-11
6.52332e-11
3.70363e-11
4.47221e-11
1.12918e-10
1.79949e-10
2.46721e-10
3.31787e-10
3.92353e-10
4.23633e-10
4.66102e-10
4.99224e-10
4.97242e-10
4.94295e-10
4.76016e-10
4.41708e-10
4.30114e-10
4.63454e-10
5.33271e-10
5.84556e-10
6.46626e-10
7.70194e-10
9.18988e-10
1.00801e-09
9.16605e-10
6.57058e-10
3.74416e-10
1.74405e-10
7.98144e-11
3.78788e-11
1.04974e-11
2.18839e-11
1.9928e-11
3.47365e-12
2.987e-11
2.75476e-11
1.31369e-11
2.63686e-11
2.6689e-11
2.29848e-11
3.43779e-11
4.42956e-11
3.38155e-11
4.59003e-11
1.02058e-10
1.54984e-10
2.0326e-10
2.69568e-10
3.23412e-10
3.51441e-10
3.89237e-10
4.16598e-10
4.10201e-10
4.08465e-10
4.0042e-10
3.8194e-10
3.84636e-10
4.12231e-10
4.61567e-10
5.07018e-10
5.63516e-10
6.55791e-10
7.53477e-10
8.05525e-10
7.38304e-10
5.57514e-10
3.48681e-10
1.81456e-10
9.35951e-11
4.9815e-11
1.52937e-11
2.2946e-11
2.25082e-11
2.03841e-16
2.12082e-11
2.02576e-11
7.52054e-12
2.16763e-11
2.12886e-11
1.8139e-11
2.44265e-11
3.3111e-11
3.57093e-11
4.78698e-11
9.17061e-11
1.35505e-10
1.68862e-10
2.17892e-10
2.6534e-10
2.88418e-10
3.1811e-10
3.43501e-10
3.37858e-10
3.37167e-10
3.38561e-10
3.30172e-10
3.39082e-10
3.64975e-10
4.01295e-10
4.40421e-10
4.89433e-10
5.56605e-10
6.1998e-10
6.4858e-10
5.98485e-10
4.72951e-10
3.21398e-10
1.85682e-10
1.0722e-10
6.39433e-11
2.39792e-11
2.64509e-11
2.84013e-11
3.84946e-12
1.80522e-11
1.79258e-11
6.59771e-12
1.97758e-11
1.81149e-11
1.64906e-11
2.18893e-11
2.80591e-11
3.88608e-11
5.08465e-11
8.10862e-11
1.18376e-10
1.42987e-10
1.75064e-10
2.15346e-10
2.36092e-10
2.55398e-10
2.78937e-10
2.78494e-10
2.77647e-10
2.8599e-10
2.86214e-10
2.95999e-10
3.21889e-10
3.5086e-10
3.82779e-10
4.24862e-10
4.72911e-10
5.13519e-10
5.28143e-10
4.90353e-10
4.03448e-10
2.9496e-10
1.8793e-10
1.19544e-10
7.90485e-11
3.69773e-11
3.26107e-11
3.7019e-11
1.50745e-11
2.13448e-11
2.0794e-11
1.1406e-11
2.2134e-11
1.92625e-11
1.85108e-11
2.52474e-11
2.80428e-11
4.11282e-11
5.43713e-11
7.16839e-11
1.01184e-10
1.23172e-10
1.41011e-10
1.71302e-10
1.92829e-10
2.03619e-10
2.21729e-10
2.28819e-10
2.29054e-10
2.39924e-10
2.48749e-10
2.58353e-10
2.82693e-10
3.08863e-10
3.33967e-10
3.69314e-10
4.04301e-10
4.2975e-10
4.36607e-10
4.08105e-10
3.47538e-10
2.70766e-10
1.88792e-10
1.30118e-10
9.38132e-11
5.43189e-11
4.21364e-11
4.81177e-11
3.26609e-11
3.0895e-11
2.8663e-11
2.22171e-11
2.92248e-11
2.56016e-11
2.43918e-11
3.19188e-11
3.23375e-11
4.2205e-11
5.61872e-11
6.48684e-11
8.39369e-11
1.05025e-10
1.1482e-10
1.32622e-10
1.54553e-10
1.63317e-10
1.73217e-10
1.85209e-10
1.90214e-10
1.99787e-10
2.14738e-10
2.26726e-10
2.48021e-10
2.73573e-10
2.94281e-10
3.22873e-10
3.49681e-10
3.65202e-10
3.67912e-10
3.47031e-10
3.03747e-10
2.49347e-10
1.89046e-10
1.38951e-10
1.06919e-10
7.49606e-11
5.58877e-11
6.27157e-11
5.5156e-11
4.72515e-11
4.17398e-11
3.84609e-11
4.06929e-11
3.67461e-11
3.42047e-11
3.97678e-11
3.9645e-11
4.38136e-11
5.56583e-11
6.07278e-11
6.92594e-11
8.67673e-11
9.43585e-11
1.01237e-10
1.19079e-10
1.30583e-10
1.3512e-10
1.46602e-10
1.587e-10
1.66952e-10
1.82914e-10
1.9976e-10
2.18658e-10
2.43388e-10
2.62833e-10
2.85639e-10
3.07855e-10
3.17191e-10
3.17445e-10
3.03211e-10
2.71155e-10
2.31857e-10
1.89308e-10
1.47361e-10
1.18429e-10
9.65362e-11
7.43421e-11
8.23434e-11
8.09231e-11
6.97802e-11
6.14715e-11
5.95935e-11
5.58717e-11
5.09247e-11
4.67342e-11
4.70658e-11
4.68844e-11
4.61123e-11
5.23617e-11
5.69732e-11
5.82263e-11
6.90851e-11
7.70882e-11
7.7859e-11
8.8319e-11
1.02117e-10
1.05578e-10
1.13873e-10
1.31454e-10
1.4122e-10
1.55626e-10
1.77348e-10
1.96008e-10
2.19188e-10
2.39287e-10
2.57987e-10
2.77635e-10
2.83713e-10
2.82426e-10
2.73288e-10
2.48559e-10
2.19632e-10
1.90531e-10
1.56655e-10
1.30765e-10
1.17213e-10
9.6184e-11
1.06769e-10
1.08557e-10
9.67768e-11
8.83741e-11
8.59351e-11
7.55125e-11
6.81301e-11
6.15115e-11
5.43211e-11
5.24067e-11
4.75836e-11
4.62229e-11
5.00773e-11
4.71259e-11
5.04418e-11
5.80498e-11
5.71451e-11
6.18145e-11
7.48676e-11
7.94571e-11
8.61326e-11
1.05501e-10
1.17998e-10
1.32204e-10
1.57428e-10
1.77965e-10
2.00032e-10
2.21811e-10
2.39482e-10
2.56824e-10
2.61186e-10
2.59244e-10
2.52392e-10
2.31763e-10
2.09602e-10
1.89371e-10
1.63191e-10
1.42578e-10
1.34744e-10
1.17897e-10
2.92786e-08
1.45487e-08
1.39899e-08
1.85034e-08
2.1783e-08
1.16744e-08
4.86563e-08
2.71814e-08
1.72065e-08
2.17841e-08
1.77379e-08
1.99044e-08
1.6917e-08
9.92682e-09
1.05544e-08
1.99798e-08
4.92736e-08
1.01473e-08
3.8735e-08
2.57549e-08
1.993e-08
1.50154e-07
5.021e-08
7.63082e-08
2.05202e-08
1.55599e-08
2.33474e-08
1.73289e-08
1.70556e-08
2.64345e-08
1.79675e-08
3.32302e-08
1.39601e-08
1.58109e-08
2.18146e-08
2.24161e-08
1.76035e-08
1.29374e-08
4.26751e-08
1.35449e-08
2.94988e-08
1.47211e-08
1.39788e-08
1.90003e-08
2.26478e-08
1.17065e-08
4.68046e-08
2.72712e-08
1.74243e-08
2.1692e-08
1.75458e-08
2.01866e-08
1.67807e-08
9.85242e-09
1.03501e-08
2.00556e-08
4.78081e-08
1.0308e-08
3.99086e-08
2.52004e-08
1.94087e-08
1.47996e-07
5.03777e-08
7.45002e-08
2.05602e-08
1.57697e-08
2.27054e-08
1.73773e-08
1.70503e-08
2.77059e-08
1.78032e-08
3.24372e-08
1.38371e-08
1.57149e-08
2.21983e-08
2.2563e-08
1.75796e-08
1.25691e-08
4.46983e-08
1.32249e-08
3.11304e-08
1.4986e-08
1.4319e-08
2.00446e-08
2.39515e-08
1.1861e-08
4.46893e-08
2.82389e-08
1.72555e-08
2.24185e-08
1.6672e-08
2.09229e-08
1.71857e-08
9.88465e-09
1.02949e-08
2.00641e-08
4.62684e-08
1.07666e-08
4.16422e-08
2.45474e-08
1.89314e-08
1.44624e-07
4.97403e-08
7.10342e-08
2.0432e-08
1.61209e-08
2.14063e-08
1.77544e-08
1.66552e-08
3.01347e-08
1.7699e-08
3.11075e-08
1.40318e-08
1.5851e-08
2.24884e-08
2.29208e-08
1.7374e-08
1.22027e-08
4.82298e-08
1.29176e-08
3.20911e-08
1.48612e-08
1.46469e-08
2.29667e-08
2.53634e-08
1.14501e-08
3.9771e-08
2.83512e-08
1.66953e-08
2.37458e-08
1.43879e-08
2.27102e-08
1.8246e-08
1.02127e-08
9.84533e-09
2.02158e-08
4.54077e-08
1.09579e-08
4.6386e-08
2.32516e-08
1.93494e-08
1.42586e-07
4.753e-08
6.44223e-08
2.08868e-08
1.6885e-08
1.90874e-08
1.85617e-08
1.67418e-08
3.05911e-08
1.79382e-08
2.84836e-08
1.43497e-08
1.61066e-08
2.04976e-08
2.14318e-08
1.64224e-08
1.20295e-08
5.25087e-08
1.28797e-08
2.97963e-08
1.50453e-08
1.44797e-08
2.55676e-08
2.56579e-08
1.20612e-08
3.08309e-08
2.75479e-08
1.60865e-08
2.54747e-08
1.23639e-08
2.83802e-08
1.88661e-08
1.11684e-08
1.01298e-08
2.05856e-08
4.1501e-08
1.14058e-08
5.88062e-08
1.95503e-08
2.32611e-08
1.26249e-07
4.70385e-08
4.43163e-08
2.18512e-08
1.59393e-08
1.80045e-08
1.96166e-08
1.6426e-08
2.87629e-08
1.86829e-08
2.21749e-08
1.47331e-08
1.62713e-08
1.76471e-08
1.84815e-08
1.60815e-08
1.16656e-08
5.59844e-08
1.24129e-08
2.38512e-08
1.58694e-08
1.37603e-08
2.1904e-08
2.54357e-08
1.00448e-08
2.46874e-08
2.6163e-08
1.73642e-08
2.63569e-08
1.19782e-08
3.0286e-08
1.91489e-08
1.21835e-08
1.00481e-08
1.96813e-08
3.27052e-08
1.02619e-08
6.806e-08
1.64956e-08
2.52623e-08
1.16544e-07
4.76665e-08
3.46632e-08
2.12801e-08
1.63978e-08
1.68557e-08
1.90192e-08
1.53361e-08
2.24614e-08
2.09513e-08
1.8977e-08
1.48457e-08
1.58292e-08
1.43372e-08
1.78209e-08
1.59989e-08
1.07873e-08
6.45547e-08
1.1778e-08
1.72564e-08
1.62856e-08
1.25319e-08
1.89997e-08
2.247e-08
1.18344e-08
2.50869e-08
2.38274e-08
1.78916e-08
2.8337e-08
9.70261e-09
3.93795e-08
1.68182e-08
1.05599e-08
9.48282e-09
1.91235e-08
3.07185e-08
1.0774e-08
6.78307e-08
1.37378e-08
2.90934e-08
1.02624e-07
4.37305e-08
3.41041e-08
1.90124e-08
1.36352e-08
1.32338e-08
1.59122e-08
1.6547e-08
1.75654e-08
2.62712e-08
1.67397e-08
1.42091e-08
1.52013e-08
1.19142e-08
1.55388e-08
1.37375e-08
9.35116e-09
6.26968e-08
1.03763e-08
1.31612e-08
1.26996e-08
9.85358e-09
1.69547e-08
1.69431e-08
7.01235e-09
2.8386e-08
2.01903e-08
1.59767e-08
2.72371e-08
7.96089e-09
2.76242e-08
1.46445e-08
9.77306e-09
8.9719e-09
1.54968e-08
2.85779e-08
1.05686e-08
5.61734e-08
1.11929e-08
2.54846e-08
7.7315e-08
3.50226e-08
3.8804e-08
1.58133e-08
1.19474e-08
1.28523e-08
1.19821e-08
1.28618e-08
1.44312e-08
2.72885e-08
1.4685e-08
1.27928e-08
1.31642e-08
1.06508e-08
1.29745e-08
1.14847e-08
8.52587e-09
4.50464e-08
9.45305e-09
1.00539e-08
9.75958e-09
7.4118e-09
1.45476e-08
1.18384e-08
7.41154e-09
2.38333e-08
1.52629e-08
1.24896e-08
2.25135e-08
6.01618e-09
1.55983e-08
1.18323e-08
8.96236e-09
7.33652e-09
1.2749e-08
1.92266e-08
8.74724e-09
3.5585e-08
8.71155e-09
1.9855e-08
5.99045e-08
2.79587e-08
3.47692e-08
1.18679e-08
9.90261e-09
1.01654e-08
9.5744e-09
1.05938e-08
1.14964e-08
2.33042e-08
1.15442e-08
1.11501e-08
1.13505e-08
9.37827e-09
9.95538e-09
9.10311e-09
6.87873e-09
3.5597e-08
7.33405e-09
8.33519e-09
6.94645e-09
5.08823e-09
9.12943e-09
8.19997e-09
4.11657e-09
1.94336e-08
1.01538e-08
7.97638e-09
1.66288e-08
5.70925e-09
9.4432e-09
9.36502e-09
6.62466e-09
5.81224e-09
8.8863e-09
9.82988e-09
5.9938e-09
1.87974e-08
6.50202e-09
1.44743e-08
3.9899e-08
2.36674e-08
2.47602e-08
8.65971e-09
7.14219e-09
8.56173e-09
7.47332e-09
8.44516e-09
8.40232e-09
1.70506e-08
8.36713e-09
9.03442e-09
8.52951e-09
7.27028e-09
7.3084e-09
6.78203e-09
5.47256e-09
2.22124e-08
5.93829e-09
6.28543e-09
4.94727e-09
3.26692e-09
5.15233e-09
5.54024e-09
3.14779e-09
1.43065e-08
6.80172e-09
4.30631e-09
1.15335e-08
5.04447e-09
5.14146e-09
6.42321e-09
4.3665e-09
4.24678e-09
6.00256e-09
5.45457e-09
3.94791e-09
8.82835e-09
5.1031e-09
1.14872e-08
2.64736e-08
1.89762e-08
1.53244e-08
5.81282e-09
5.06337e-09
6.50443e-09
5.77193e-09
5.23036e-09
6.257e-09
1.14771e-08
6.03438e-09
7.03953e-09
6.03387e-09
5.06955e-09
4.988e-09
4.61343e-09
4.18915e-09
1.28404e-08
3.97886e-09
4.20562e-09
3.09186e-09
1.98778e-09
3.0465e-09
3.38587e-09
1.74958e-09
9.0659e-09
4.164e-09
2.26146e-09
7.36129e-09
3.70686e-09
2.72326e-09
4.32051e-09
2.86254e-09
2.97108e-09
4.07792e-09
3.05992e-09
2.46174e-09
4.10423e-09
4.43575e-09
9.29514e-09
1.82691e-08
1.41625e-08
9.77337e-09
3.56566e-09
3.38369e-09
5.18693e-09
4.34014e-09
3.12268e-09
4.46359e-09
7.6327e-09
4.48093e-09
5.30265e-09
4.00409e-09
3.29478e-09
3.15732e-09
3.09249e-09
3.01527e-09
7.15864e-09
2.60531e-09
2.58918e-09
2.02223e-09
1.12537e-09
1.36115e-09
1.98826e-09
1.00225e-09
5.42516e-09
2.38795e-09
1.1585e-09
4.90959e-09
2.67116e-09
1.4242e-09
2.82286e-09
1.84921e-09
2.03929e-09
2.74665e-09
1.72777e-09
1.51955e-09
2.17503e-09
3.96137e-09
7.68442e-09
1.22688e-08
1.01416e-08
6.29389e-09
2.08668e-09
2.28995e-09
4.34242e-09
3.3466e-09
1.99948e-09
3.16647e-09
5.15316e-09
3.59219e-09
4.14194e-09
2.6072e-09
2.00038e-09
1.88263e-09
1.88599e-09
2.07537e-09
3.89498e-09
1.53878e-09
1.62098e-09
1.36751e-09
7.11157e-10
6.55745e-10
1.16547e-09
5.30431e-10
3.06183e-09
1.27971e-09
7.07543e-10
3.33975e-09
1.83928e-09
7.07037e-10
1.82349e-09
1.2574e-09
1.47835e-09
1.98126e-09
1.19177e-09
1.06082e-09
1.45489e-09
3.42259e-09
6.15199e-09
8.45022e-09
7.22483e-09
4.06156e-09
1.22246e-09
1.63735e-09
3.55243e-09
2.66745e-09
1.38117e-09
2.3227e-09
3.74378e-09
3.15644e-09
3.45483e-09
1.81298e-09
1.18728e-09
1.10145e-09
1.14654e-09
1.36736e-09
2.06833e-09
8.98582e-10
1.01293e-09
9.87355e-10
5.01304e-10
2.81019e-10
6.83714e-10
2.84555e-10
1.62303e-09
6.31196e-10
5.19094e-10
2.30194e-09
1.24275e-09
3.57771e-10
1.19211e-09
9.17129e-10
1.14748e-09
1.54666e-09
1.02072e-09
8.73468e-10
1.23155e-09
2.95855e-09
4.8709e-09
5.91621e-09
5.14799e-09
2.72039e-09
7.56831e-10
1.24989e-09
2.87201e-09
2.20604e-09
1.11656e-09
1.83359e-09
2.93591e-09
2.93278e-09
3.00777e-09
1.3817e-09
7.0918e-10
6.4143e-10
7.03992e-10
8.97793e-10
1.10271e-09
5.26038e-10
6.53881e-10
7.52073e-10
4.13455e-10
1.61706e-10
4.22683e-10
1.63523e-10
7.90539e-10
2.80965e-10
4.44051e-10
1.58781e-09
8.24667e-10
1.94043e-10
8.04908e-10
7.27251e-10
9.55592e-10
1.30038e-09
1.00236e-09
8.48245e-10
1.18117e-09
2.56333e-09
3.83338e-09
4.2201e-09
3.69584e-09
1.93314e-09
5.65662e-10
1.04101e-09
2.32375e-09
1.86678e-09
1.00362e-09
1.52483e-09
2.43372e-09
2.75733e-09
2.68896e-09
1.18005e-09
4.48777e-10
3.70514e-10
4.27618e-10
5.75235e-10
5.93281e-10
3.12957e-10
4.41796e-10
5.82643e-10
3.63625e-10
1.32886e-10
2.77053e-10
1.10455e-10
3.52209e-10
1.19019e-10
3.94623e-10
1.08978e-09
5.32731e-10
1.20307e-10
5.6756e-10
6.12057e-10
8.30861e-10
1.13779e-09
1.005e-09
8.73707e-10
1.15937e-09
2.18987e-09
3.01581e-09
3.0846e-09
2.69426e-09
1.46261e-09
5.1225e-10
9.1682e-10
1.88066e-09
1.59578e-09
9.58158e-10
1.33965e-09
2.10516e-09
2.56656e-09
2.41213e-09
1.07709e-09
3.22265e-10
2.17266e-10
2.60902e-10
3.64633e-10
3.30985e-10
1.99383e-10
3.10453e-10
4.50233e-10
3.24278e-10
1.37573e-10
1.96548e-10
8.75132e-11
1.46252e-10
5.94012e-11
3.42859e-10
7.38465e-10
3.36344e-10
8.80556e-11
4.22276e-10
5.34256e-10
7.36762e-10
1.00678e-09
9.81916e-10
8.95412e-10
1.13099e-09
1.86129e-09
2.37784e-09
2.31119e-09
2.00465e-09
1.16954e-09
5.24583e-10
8.42983e-10
1.53467e-09
1.37343e-09
9.32682e-10
1.21796e-09
1.85805e-09
2.33594e-09
2.15059e-09
1.01709e-09
2.79068e-10
1.33801e-10
1.5717e-10
2.26108e-10
1.93281e-10
1.38715e-10
2.24992e-10
3.42554e-10
2.81446e-10
1.43163e-10
1.48541e-10
7.81553e-11
6.68685e-11
4.92868e-11
2.85077e-10
4.92082e-10
2.07695e-10
7.55059e-11
3.30398e-10
4.68094e-10
6.52617e-10
8.87339e-10
9.27196e-10
8.87592e-10
1.08057e-09
1.57302e-09
1.88245e-09
1.77716e-09
1.53046e-09
9.76431e-10
5.5196e-10
7.85273e-10
1.26132e-09
1.18076e-09
9.02074e-10
1.12464e-09
1.64717e-09
2.07499e-09
1.88886e-09
9.59368e-10
2.74736e-10
9.2583e-11
9.2394e-11
1.36775e-10
1.18138e-10
1.04424e-10
1.64493e-10
2.53285e-10
2.34522e-10
1.3974e-10
1.16451e-10
7.23147e-11
4.50614e-11
5.43563e-11
2.23835e-10
3.2141e-10
1.26718e-10
7.04379e-11
2.68876e-10
4.07267e-10
5.70762e-10
7.70093e-10
8.41578e-10
8.45733e-10
1.00198e-09
1.32077e-09
1.49603e-09
1.39798e-09
1.20026e-09
8.38606e-10
5.70553e-10
7.30037e-10
1.04617e-09
1.01524e-09
8.60031e-10
1.03947e-09
1.45265e-09
1.80101e-09
1.63157e-09
8.94078e-10
2.87789e-10
7.96204e-11
5.51975e-11
8.10293e-11
7.45624e-11
8.2084e-11
1.18413e-10
1.79587e-10
1.86502e-10
1.25084e-10
9.22803e-11
6.68202e-11
4.40247e-11
5.86727e-11
1.66582e-10
2.06416e-10
7.84182e-11
6.74311e-11
2.25744e-10
3.50118e-10
4.90604e-10
6.56769e-10
7.39292e-10
7.72845e-10
9.00129e-10
1.10051e-09
1.19338e-09
1.11603e-09
9.66693e-10
7.33469e-10
5.70963e-10
6.71957e-10
8.75943e-10
8.73107e-10
8.02437e-10
9.52802e-10
1.26831e-09
1.53179e-09
1.38666e-09
8.17512e-10
3.02939e-10
8.30223e-11
3.68503e-11
4.73078e-11
4.66338e-11
6.47811e-11
8.22886e-11
1.19923e-10
1.41085e-10
1.03158e-10
7.19108e-11
6.02128e-11
4.56148e-11
5.66957e-11
1.17923e-10
1.31605e-10
5.22355e-11
6.47176e-11
1.9345e-10
2.97956e-10
4.14618e-10
5.52082e-10
6.3361e-10
6.8222e-10
7.85953e-10
9.09571e-10
9.54375e-10
8.99109e-10
7.92638e-10
6.45289e-10
5.4945e-10
6.1057e-10
7.40176e-10
7.52318e-10
7.34771e-10
8.61465e-10
1.09483e-09
1.28148e-09
1.1622e-09
7.33081e-10
3.12819e-10
9.56337e-11
3.27791e-11
2.95242e-11
2.77742e-11
5.01326e-11
5.47553e-11
7.31194e-11
1.01108e-10
7.8412e-11
5.36327e-11
5.23162e-11
4.37205e-11
4.90192e-11
7.97262e-11
8.47318e-11
4.03754e-11
6.18658e-11
1.67691e-10
2.52406e-10
3.44616e-10
4.57736e-10
5.3228e-10
5.84146e-10
6.68776e-10
7.45774e-10
7.64415e-10
7.28295e-10
6.56756e-10
5.66175e-10
5.12605e-10
5.48115e-10
6.30352e-10
6.50412e-10
6.62181e-10
7.67617e-10
9.35195e-10
1.05941e-09
9.63948e-10
6.46582e-10
3.15559e-10
1.12243e-10
3.88478e-11
2.35103e-11
1.53946e-11
3.78749e-11
3.56104e-11
3.82532e-11
6.85613e-11
5.52126e-11
3.69492e-11
4.38364e-11
3.76972e-11
3.88421e-11
5.20882e-11
5.63431e-11
3.72622e-11
5.93699e-11
1.46265e-10
2.14386e-10
2.82643e-10
3.74833e-10
4.40448e-10
4.87391e-10
5.56177e-10
6.06996e-10
6.12362e-10
5.91599e-10
5.46883e-10
4.92703e-10
4.66267e-10
4.87293e-10
5.4021e-10
5.64419e-10
5.89409e-10
6.74835e-10
7.91781e-10
8.69532e-10
7.94505e-10
5.6339e-10
3.09807e-10
1.29044e-10
5.13754e-11
2.63483e-11
9.07645e-12
2.87049e-11
2.46873e-11
1.48327e-11
4.43751e-11
3.65648e-11
2.23825e-11
3.5389e-11
2.93577e-11
2.86686e-11
3.43124e-11
3.97572e-11
3.86004e-11
5.78253e-11
1.26992e-10
1.83191e-10
2.30444e-10
3.03073e-10
3.60214e-10
3.9829e-10
4.52911e-10
4.90776e-10
4.90259e-10
4.80461e-10
4.56163e-10
4.24866e-10
4.15361e-10
4.30126e-10
4.65178e-10
4.91217e-10
5.20144e-10
5.86875e-10
6.66409e-10
7.11928e-10
6.53715e-10
4.87668e-10
2.97719e-10
1.43743e-10
6.75018e-11
3.58303e-11
8.94164e-12
2.34194e-11
2.14989e-11
2.69282e-12
2.82592e-11
2.42846e-11
1.15957e-11
2.80072e-11
2.19069e-11
2.06246e-11
2.51527e-11
3.0672e-11
4.12869e-11
5.72587e-11
1.08713e-10
1.5722e-10
1.88314e-10
2.41952e-10
2.92163e-10
3.21099e-10
3.61666e-10
3.9407e-10
3.9282e-10
3.8925e-10
3.80694e-10
3.64084e-10
3.63743e-10
3.77711e-10
4.0223e-10
4.27885e-10
4.56889e-10
5.06667e-10
5.59716e-10
5.84339e-10
5.39337e-10
4.21713e-10
2.81671e-10
1.55295e-10
8.45159e-11
4.97281e-11
1.50671e-11
2.24571e-11
2.44668e-11
1.6751e-12
1.97583e-11
1.86127e-11
6.59163e-12
2.33416e-11
1.80265e-11
1.64859e-11
2.29403e-11
2.71205e-11
4.30894e-11
5.80005e-11
9.16958e-11
1.33642e-10
1.5624e-10
1.90674e-10
2.34028e-10
2.57613e-10
2.84203e-10
3.13117e-10
3.15703e-10
3.1462e-10
3.16819e-10
3.11542e-10
3.14922e-10
3.30686e-10
3.49913e-10
3.7271e-10
4.00763e-10
4.36443e-10
4.71194e-10
4.83271e-10
4.4808e-10
3.65906e-10
2.64354e-10
1.63754e-10
1.00414e-10
6.58959e-11
2.751e-11
2.60478e-11
3.15982e-11
1.08418e-11
1.90898e-11
1.93482e-11
8.87365e-12
2.27048e-11
1.92491e-11
1.70198e-11
2.56226e-11
2.80647e-11
4.31801e-11
5.88709e-11
7.78781e-11
1.10782e-10
1.31528e-10
1.4992e-10
1.83548e-10
2.06657e-10
2.21942e-10
2.44491e-10
2.53564e-10
2.54596e-10
2.61796e-10
2.66667e-10
2.72304e-10
2.88886e-10
3.06991e-10
3.25627e-10
3.517e-10
3.77423e-10
3.99323e-10
4.04854e-10
3.77225e-10
3.19687e-10
2.4729e-10
1.69909e-10
1.14377e-10
8.2222e-11
4.57677e-11
3.44834e-11
4.19967e-11
2.80339e-11
2.62745e-11
2.57908e-11
1.86968e-11
2.71416e-11
2.55311e-11
2.24368e-11
3.11505e-11
3.2763e-11
4.24897e-11
5.80841e-11
6.79119e-11
8.89049e-11
1.09982e-10
1.19331e-10
1.39852e-10
1.63179e-10
1.74497e-10
1.87901e-10
2.01376e-10
2.07483e-10
2.15005e-10
2.27053e-10
2.36407e-10
2.5228e-10
2.71592e-10
2.87341e-10
3.10093e-10
3.2982e-10
3.42544e-10
3.45012e-10
3.24227e-10
2.82829e-10
2.31142e-10
1.74206e-10
1.26271e-10
9.67142e-11
6.78123e-11
4.85704e-11
5.64446e-11
5.07767e-11
4.1746e-11
3.77272e-11
3.48005e-11
3.66635e-11
3.57385e-11
3.21877e-11
3.77238e-11
3.96548e-11
4.30388e-11
5.55543e-11
6.1452e-11
7.08879e-11
8.91817e-11
9.6392e-11
1.05072e-10
1.24056e-10
1.37034e-10
1.43884e-10
1.56347e-10
1.69762e-10
1.7705e-10
1.91185e-10
2.0626e-10
2.21277e-10
2.41606e-10