/*--------------------------------*- C++ -*----------------------------------*\
  =========                 |
  \\      /  F ield         | OpenFOAM: The Open Source CFD Toolbox
   \\    /   O peration     | Website:  https://openfoam.org
    \\  /    A nd           | Version:  10
     \\/     M anipulation  |
\*---------------------------------------------------------------------------*/
FoamFile
{
    format      ascii;
    class       volVectorField;
    location    "35";
    object      UMean;
}
// * * * * * * * * * * * * * * * * * * * * * * * * * * * * * * * * * * * * * //

dimensions      [0 1 -1 0 0 0 0];

internalField   nonuniform List<vector> 
102400
(
(0.025484 2.64876e-08 -2.26583e-05)
(0.0254777 1.89895e-07 1.47016e-05)
(0.0254818 -8.70043e-08 3.64769e-05)
(0.0254816 -1.03988e-07 4.97461e-06)
(0.0254828 -1.03722e-07 -3.06061e-05)
(0.0254801 -1.62918e-08 -3.06456e-05)
(0.0254839 3.83524e-08 1.8293e-05)
(0.0254838 8.37893e-08 2.78193e-05)
(0.0254908 -1.16381e-07 1.07789e-05)
(0.0254839 -8.54712e-08 -3.55859e-05)
(0.0254896 -5.45836e-08 -2.66897e-05)
(0.0254837 2.48803e-08 1.49707e-05)
(0.0254844 -8.72592e-08 3.50592e-05)
(0.0254789 -6.47864e-08 8.83005e-06)
(0.0254841 -2.03524e-07 -3.33378e-05)
(0.0254812 -6.17546e-08 -2.53276e-05)
(0.0254773 1.08122e-07 1.46468e-05)
(0.0254825 -1.31271e-07 3.40543e-05)
(0.0254857 -2.24522e-07 2.06049e-06)
(0.0254802 -1.42844e-07 -4.21632e-05)
(0.0254904 -1.19478e-07 -2.6239e-05)
(0.0254745 1.87042e-07 8.14781e-06)
(0.0254851 -2.86596e-08 3.36377e-05)
(0.0254747 -1.13934e-08 -4.65462e-06)
(0.0254817 -6.10227e-08 -3.50692e-05)
(0.0254719 -6.93067e-08 -3.48008e-05)
(0.0254765 1.72155e-07 1.25422e-05)
(0.0254753 8.32312e-08 2.90937e-05)
(0.0254776 -1.98899e-07 7.1432e-06)
(0.0254777 -6.90832e-08 -3.39747e-05)
(0.0254743 1.17882e-08 -3.03526e-05)
(0.0254854 1.24049e-08 1.74461e-05)
(0.0254784 1.93697e-09 4.0817e-05)
(0.0254841 -1.89009e-07 8.16382e-06)
(0.0254765 -4.1482e-08 -2.54693e-05)
(0.0254805 -3.87049e-08 -2.47761e-05)
(0.0254741 3.73129e-08 2.46865e-05)
(0.025486 -1.17852e-07 3.47688e-05)
(0.0254836 -1.25613e-07 9.34024e-06)
(0.0254757 -5.64207e-08 -3.66383e-05)
(0.0779089 1.1402e-07 -7.14279e-05)
(0.0778917 1.03423e-06 3.96672e-05)
(0.0779054 -4.35947e-07 0.000106889)
(0.0779033 -4.27966e-07 1.6477e-05)
(0.0779066 -1.13009e-06 -9.14411e-05)
(0.0778981 1.14588e-08 -9.36521e-05)
(0.0779089 -3.12116e-07 5.14845e-05)
(0.0779112 5.43173e-07 8.31053e-05)
(0.0779312 -8.00049e-07 3.47859e-05)
(0.0779097 -7.02127e-07 -0.000108088)
(0.0779261 -5.61089e-07 -8.23576e-05)
(0.0779089 8.16638e-07 4.02438e-05)
(0.0779137 2.31449e-07 0.000102249)
(0.0778945 8.36284e-09 2.60745e-05)
(0.07791 -1.71754e-06 -0.000101555)
(0.0778992 5.23504e-07 -8.01005e-05)
(0.0778906 2.05526e-07 3.89505e-05)
(0.0779073 -8.37537e-07 9.99535e-05)
(0.0779155 -1.75063e-06 8.62174e-06)
(0.0778995 -1.3087e-06 -0.000124854)
(0.0779282 -6.4798e-07 -8.07274e-05)
(0.0778796 1.44223e-06 1.97807e-05)
(0.0779142 -2.24925e-07 9.91817e-05)
(0.0778826 5.79146e-07 -1.22333e-05)
(0.0779043 -1.12858e-06 -0.000103611)
(0.0778726 -2.62138e-07 -0.000106375)
(0.0778854 5.72642e-07 3.25067e-05)
(0.0778858 2.63008e-07 8.65546e-05)
(0.0778921 -1.04357e-06 2.22307e-05)
(0.0778902 -9.20874e-08 -0.000100736)
(0.0778809 -8.39781e-07 -9.33034e-05)
(0.0779141 2.23193e-07 4.93871e-05)
(0.0778953 8.63819e-07 0.000121034)
(0.0779117 -8.18315e-07 2.47174e-05)
(0.0778877 -1.29499e-07 -7.61059e-05)
(0.0778994 -1.58732e-07 -7.81413e-05)
(0.0778775 2.4416e-07 6.96259e-05)
(0.0779157 -1.33052e-06 0.000101822)
(0.0779088 8.76347e-07 2.94841e-05)
(0.0778859 -2.34057e-07 -0.000108606)
(0.133387 7.19376e-07 -0.000118896)
(0.133361 2.2342e-06 6.21584e-05)
(0.133391 -1.40655e-06 0.000173382)
(0.133385 -3.4143e-07 2.19933e-05)
(0.133393 -2.37469e-06 -0.000152803)
(0.133374 3.92677e-07 -0.00015808)
(0.133394 -1.07773e-06 8.87197e-05)
(0.133396 1.66977e-06 0.000136998)
(0.133433 -1.79497e-06 5.41025e-05)
(0.133394 -1.32987e-06 -0.000188029)
(0.133423 -1.04895e-06 -0.000132551)
(0.133392 2.09569e-06 6.73525e-05)
(0.133399 7.47807e-07 0.000165204)
(0.133371 9.51611e-07 3.51151e-05)
(0.133399 -3.6907e-06 -0.000177054)
(0.133379 2.71015e-06 -0.000135554)
(0.133359 5.78891e-07 5.35023e-05)
(0.133394 -2.22114e-06 0.000161897)
(0.133404 -3.47647e-06 7.78817e-06)
(0.133374 -2.73545e-06 -0.000209461)
(0.133423 -1.52299e-06 -0.000130278)
(0.133345 3.45758e-06 3.51414e-05)
(0.133406 -1.19185e-07 0.000161354)
(0.133343 2.53936e-06 -2.26748e-05)
(0.133382 -2.76596e-06 -0.000173739)
(0.13333 -5.53912e-07 -0.000178459)
(0.133352 1.28525e-06 5.91048e-05)
(0.133356 8.34917e-08 0.000142338)
(0.133367 -1.86779e-06 3.89324e-05)
(0.133359 6.4117e-07 -0.000173379)
(0.133345 -2.34213e-06 -0.000158252)
(0.133398 1.05295e-06 8.0642e-05)
(0.133368 2.49325e-06 0.000198791)
(0.133397 -1.74738e-06 3.37287e-05)
(0.133357 4.1468e-07 -0.000128752)
(0.133376 -2.56681e-07 -0.000133903)
(0.133342 -4.62462e-08 0.000119689)
(0.133415 -3.60722e-06 0.000164424)
(0.133395 4.4542e-06 4.78577e-05)
(0.13335 1.67728e-07 -0.000183686)
(0.191738 2.303e-06 -0.000158777)
(0.191693 3.3425e-06 7.10956e-05)
(0.191723 -2.40744e-06 0.000226168)
(0.191716 9.14645e-07 3.356e-05)
(0.191713 -3.60933e-06 -0.000194592)
(0.1917 6.12974e-07 -0.000222025)
(0.191727 -3.03629e-06 9.99477e-05)
(0.191747 3.61857e-06 0.000178544)
(0.191784 -4.19576e-06 9.21831e-05)
(0.191733 -1.42139e-06 -0.000261692)
(0.191776 -2.50572e-06 -0.000183749)
(0.191733 4.20092e-06 6.58731e-05)
(0.191753 2.11591e-06 0.000211361)
(0.191693 2.38032e-06 6.10677e-05)
(0.191727 -6.06906e-06 -0.000230518)
(0.191694 7.16104e-06 -0.000208099)
(0.191681 -2.92599e-07 6.08944e-05)
(0.19173 -4.56625e-06 0.000209665)
(0.191745 -5.74742e-06 2.43485e-05)
(0.191711 -3.63569e-06 -0.000290886)
(0.19178 -1.52605e-06 -0.000183815)
(0.191655 5.70146e-06 1.88868e-05)
(0.191747 -5.0063e-07 0.000208002)
(0.191673 6.72676e-06 -2.95902e-05)
(0.191729 -4.81369e-06 -0.000236562)
(0.191634 2.75033e-07 -0.000255457)
(0.191676 1.61695e-06 5.99601e-05)
(0.191682 1.43751e-07 0.000186912)
(0.19168 -3.06285e-06 7.28906e-05)
(0.191691 2.87008e-06 -0.000237102)
(0.191658 -4.23775e-06 -0.000219847)
(0.191741 2.07855e-06 9.59064e-05)
(0.191708 4.68366e-06 0.000263775)
(0.191744 -1.19475e-06 4.33426e-05)
(0.191676 3.01517e-06 -0.000174844)
(0.191704 -1.00422e-07 -0.000193178)
(0.191647 -1.64244e-06 0.000110718)
(0.191739 -6.93278e-06 0.000205907)
(0.191722 1.07739e-05 8.32102e-05)
(0.191682 1.13755e-06 -0.000255734)
(0.252764 4.96614e-06 -0.00021338)
(0.252706 1.66071e-06 2.88348e-05)
(0.252785 -5.02276e-06 0.000254966)
(0.252799 2.86441e-06 3.70028e-07)
(0.252796 -4.1824e-06 -0.000260002)
(0.252745 4.44665e-06 -0.000280336)
(0.252795 -5.55503e-06 0.000114391)
(0.2528 7.39124e-06 0.000205698)
(0.252858 -7.08077e-06 0.000114193)
(0.252796 6.41094e-07 -0.000330478)
(0.252843 -5.01083e-06 -0.000230159)
(0.252765 7.85938e-06 1.03849e-05)
(0.252803 4.40452e-06 0.000233521)
(0.252745 5.28217e-06 4.40185e-05)
(0.252798 -7.34065e-06 -0.000298325)
(0.252737 1.49977e-05 -0.000268671)
(0.252725 -2.93607e-06 5.72957e-05)
(0.252821 -7.73797e-06 0.000231767)
(0.252791 -6.54047e-06 6.08435e-05)
(0.252775 -2.70365e-06 -0.000340188)
(0.252829 -2.64517e-07 -0.000260009)
(0.252703 1.30927e-05 1.02773e-05)
(0.252792 7.5566e-07 0.000221617)
(0.252664 1.54729e-05 3.86825e-05)
(0.252752 -7.55053e-06 -0.000235025)
(0.252644 5.22736e-06 -0.000309889)
(0.252697 -1.56708e-06 2.1175e-05)
(0.252698 -1.99203e-06 0.000222669)
(0.252746 -2.17932e-07 4.48339e-05)
(0.252701 7.57414e-06 -0.000262209)
(0.252704 -6.61422e-06 -0.000242898)
(0.252792 3.97678e-06 7.75556e-05)
(0.252759 8.22488e-06 0.000301598)
(0.252796 1.9707e-06 4.12885e-05)
(0.252718 5.20277e-06 -0.000222309)
(0.252738 1.98902e-07 -0.000254789)
(0.252667 1.60336e-06 9.62082e-05)
(0.252818 -1.02855e-05 0.00022424)
(0.252788 1.88339e-05 0.000100861)
(0.252706 7.20482e-06 -0.000273191)
(0.316273 9.99302e-06 -0.000236033)
(0.316166 -3.20383e-06 -8.35389e-06)
(0.316338 -1.04597e-05 0.000220941)
(0.316277 1.27779e-05 7.96208e-05)
(0.316194 -7.0585e-06 -0.000213939)
(0.316276 8.02868e-06 -0.000242063)
(0.316285 -8.84431e-06 8.53846e-05)
(0.316311 1.01095e-05 0.000196825)
(0.316392 -8.92131e-06 0.0001069)
(0.316293 7.09257e-06 -0.000350772)
(0.316341 2.86158e-06 -0.000238233)
(0.316226 9.58402e-06 -7.61912e-05)
(0.316277 3.49224e-06 0.000224081)
(0.316275 1.1685e-05 -3.1821e-05)
(0.316237 -4.52569e-06 -0.000284118)
(0.316202 2.56416e-05 -0.000288885)
(0.316218 -2.34669e-06 1.09621e-06)
(0.316236 -1.06789e-05 0.000207805)
(0.31622 2.37127e-06 8.64562e-05)
(0.31625 4.58693e-06 -0.000261536)
(0.316187 1.85928e-06 -0.00037267)
(0.316169 1.68247e-05 -1.00234e-05)
(0.316256 8.45512e-06 0.000213226)
(0.316126 2.08848e-05 4.24609e-05)
(0.316199 -7.24031e-06 -0.000201097)
(0.316085 1.49787e-05 -0.000324512)
(0.316183 -3.78018e-06 -2.00654e-06)
(0.316158 -5.8634e-06 0.000244802)
(0.316256 3.69393e-06 3.65288e-06)
(0.316162 1.35112e-05 -0.0002541)
(0.316152 -9.84411e-06 -0.000263493)
(0.316234 6.09529e-06 -2.2797e-05)
(0.316199 8.41454e-06 0.000285639)
(0.316332 9.19295e-06 -2.49761e-05)
(0.316183 8.84403e-06 -0.00023575)
(0.316224 -2.66427e-07 -0.000277651)
(0.316155 5.64412e-06 9.69659e-05)
(0.316305 -9.07302e-06 0.000198553)
(0.316226 2.87501e-05 0.000174776)
(0.31617 1.20077e-05 -0.000273215)
(0.381782 1.68893e-05 -0.000298084)
(0.381774 4.96934e-06 -2.80873e-05)
(0.381863 -4.93609e-06 0.00019293)
(0.381836 2.52129e-05 2.604e-05)
(0.381859 2.72209e-06 -0.000203337)
(0.381757 1.88566e-05 -0.000320319)
(0.381862 -6.46718e-06 4.74289e-05)
(0.381826 1.21442e-05 9.80525e-05)
(0.381926 3.75067e-06 0.000146827)
(0.381726 1.64442e-05 -0.000272215)
(0.381887 1.01447e-05 -0.000119889)
(0.381734 1.28275e-05 -0.000142541)
(0.381758 -9.50894e-07 0.000115662)
(0.381738 2.02421e-05 -4.84807e-05)
(0.38181 3.66176e-06 -0.000209099)
(0.38163 4.0099e-05 -0.000328569)
(0.38175 -1.37052e-06 -5.9424e-05)
(0.381762 -1.12459e-05 0.000199053)
(0.381816 1.25309e-05 -1.86454e-05)
(0.381753 1.74066e-05 -0.000210599)
(0.381759 2.14505e-05 -0.000290657)
(0.381653 4.71269e-06 -5.91482e-05)
(0.381842 1.08621e-05 0.000154015)
(0.381739 1.89814e-05 1.28693e-05)
(0.38175 9.85409e-07 -0.000171132)
(0.381645 2.30859e-05 -0.000287646)
(0.381723 -3.19405e-06 1.62689e-05)
(0.381765 -6.30705e-06 0.000196614)
(0.3818 6.44251e-06 3.69427e-05)
(0.381752 2.07572e-05 -0.000194217)
(0.381694 1.07064e-06 -0.000270515)
(0.381721 1.27091e-05 -6.27817e-05)
(0.381782 6.78882e-06 0.000148299)
(0.381803 2.26312e-05 3.0402e-05)
(0.381732 2.34527e-05 -0.000147237)
(0.381688 4.39215e-06 -0.000271677)
(0.381658 4.18692e-06 -1.15548e-05)
(0.381788 -5.84552e-06 0.000155429)
(0.381806 3.81392e-05 6.61762e-05)
(0.381804 1.72276e-05 -0.000260523)
(0.44887 4.00541e-05 -0.000267278)
(0.448836 1.36982e-05 -9.08527e-05)
(0.448913 1.29201e-05 8.78139e-05)
(0.448912 2.45719e-05 -4.15996e-05)
(0.448978 1.78948e-05 -0.000212297)
(0.448928 3.67224e-05 -0.00019766)
(0.448947 8.13523e-06 -6.43841e-05)
(0.44888 2.20656e-05 1.42351e-05)
(0.448969 1.57548e-05 -3.94101e-05)
(0.448962 3.14807e-05 -0.000235555)
(0.448923 1.34952e-05 -0.000205477)
(0.448866 1.74901e-05 -8.71044e-05)
(0.448893 1.29445e-06 3.66885e-05)
(0.44885 2.12916e-05 -4.72205e-05)
(0.448935 1.77393e-05 -0.000236962)
(0.448886 5.03461e-05 -0.000207029)
(0.44893 1.52012e-05 -4.1765e-05)
(0.448912 5.5194e-06 0.000113865)
(0.448896 2.1599e-05 -3.15524e-05)
(0.448954 3.29378e-05 -0.000163905)
(0.448846 5.11851e-05 -0.000204896)
(0.448857 1.49625e-05 -6.80617e-05)
(0.448816 1.59729e-05 7.20889e-05)
(0.44881 2.55378e-05 -4.4062e-05)
(0.448839 1.51923e-05 -0.000180984)
(0.44881 3.64033e-05 -0.000194503)
(0.448767 4.11574e-06 -7.31685e-05)
(0.448787 -1.18192e-05 5.23387e-05)
(0.448803 1.15554e-05 -5.07345e-05)
(0.448911 2.26817e-05 -0.000211229)
(0.448861 2.31613e-05 -0.000237803)
(0.44879 2.83367e-05 -0.000123819)
(0.448863 6.51886e-06 2.39277e-05)
(0.448897 3.23895e-05 -8.26024e-05)
(0.448937 4.01199e-05 -0.000192917)
(0.448868 2.92021e-05 -0.000221439)
(0.448848 1.9662e-05 -7.29629e-05)
(0.448871 7.84549e-06 0.000108585)
(0.448899 3.71267e-05 -8.0812e-05)
(0.448995 3.63479e-05 -0.000202684)
(0.517087 6.01639e-05 -0.000147424)
(0.517007 3.15572e-05 -9.92159e-05)
(0.517072 2.73828e-05 8.84442e-05)
(0.517017 3.54216e-05 -0.000112996)
(0.517142 2.72732e-05 -0.00016393)
(0.517035 5.1804e-05 -0.000221243)
(0.517097 1.9447e-05 -6.18694e-05)
(0.517058 3.72837e-05 3.72404e-05)
(0.51711 1.61525e-05 -7.94717e-05)
(0.517073 3.83034e-05 -0.000180372)
(0.517131 3.01726e-05 -0.000189601)
(0.517055 2.98893e-05 -3.63166e-05)
(0.517106 1.99522e-05 3.36997e-05)
(0.517065 2.90467e-05 -3.0927e-05)
(0.517058 3.03208e-05 -0.000129771)
(0.51707 5.57451e-05 -0.000145753)
(0.517088 3.38939e-05 2.21891e-05)
(0.517085 3.54614e-05 7.24053e-05)
(0.51702 3.66731e-05 1.1368e-05)
(0.517066 4.86502e-05 -0.000161487)
(0.517056 5.79491e-05 -0.000114963)
(0.517093 4.10612e-05 -3.68249e-05)
(0.517004 3.20293e-05 9.80006e-05)
(0.517039 4.43663e-05 -6.27546e-05)
(0.517003 2.96497e-05 -0.000167099)
(0.517043 4.94098e-05 -0.000188063)
(0.516987 2.5233e-05 -4.09412e-05)
(0.51704 5.8425e-06 2.99546e-05)
(0.516967 1.89455e-05 -5.14314e-05)
(0.517035 2.56814e-05 -0.000148413)
(0.517003 3.16527e-05 -0.000189176)
(0.517045 3.66792e-05 -3.32963e-05)
(0.517025 6.61868e-06 4.89724e-05)
(0.517034 3.40043e-05 -5.96863e-05)
(0.517061 4.07149e-05 -0.000215432)
(0.517098 4.78063e-05 -0.000176398)
(0.517086 3.52926e-05 -5.56634e-05)
(0.517048 2.53541e-05 2.09156e-05)
(0.517034 4.46849e-05 -4.41738e-05)
(0.517032 4.67018e-05 -0.000191924)
(0.585669 6.31888e-05 -0.000126266)
(0.585618 5.35168e-05 -3.60481e-05)
(0.585701 3.76466e-05 1.60505e-05)
(0.585618 5.78207e-05 -5.34215e-06)
(0.585663 4.72072e-05 -6.86762e-05)
(0.585609 7.22401e-05 -9.32818e-05)
(0.585673 3.99251e-05 -2.61311e-05)
(0.58563 5.17546e-05 2.367e-05)
(0.585699 3.56609e-05 -1.0759e-05)
(0.585612 5.69912e-05 -8.75906e-05)
(0.585679 4.37244e-05 -9.20871e-05)
(0.585644 5.0085e-05 -2.47827e-05)
(0.58567 3.11969e-05 1.23473e-05)
(0.585664 5.19853e-05 3.23325e-06)
(0.585669 4.48944e-05 -9.05945e-05)
(0.585638 7.07037e-05 -6.73524e-05)
(0.585686 4.63846e-05 -3.83548e-05)
(0.58563 5.39611e-05 2.97629e-05)
(0.585676 4.74601e-05 -1.6737e-05)
(0.585604 6.61895e-05 -7.33564e-05)
(0.585622 6.07648e-05 -8.00185e-05)
(0.585641 5.76178e-05 8.61745e-06)
(0.585656 3.95124e-05 5.69009e-05)
(0.58566 5.77858e-05 2.99754e-05)
(0.585641 4.44598e-05 -7.73637e-05)
(0.585643 5.96848e-05 -8.12312e-05)
(0.585637 4.32095e-05 -3.41097e-05)
(0.585637 2.86437e-05 2.43293e-05)
(0.585621 3.61352e-05 -2.54449e-05)
(0.585599 4.97911e-05 -5.30279e-05)
(0.585582 4.5201e-05 -0.000108915)
(0.585603 5.04675e-05 -8.70492e-06)
(0.585626 2.34084e-05 9.51172e-06)
(0.585605 4.69223e-05 6.43124e-06)
(0.58562 5.03445e-05 -8.67235e-05)
(0.585599 5.48006e-05 -8.9145e-05)
(0.585631 4.49272e-05 -5.73165e-05)
(0.585586 3.59222e-05 -1.53826e-05)
(0.585645 5.34768e-05 -2.79102e-05)
(0.585576 5.96923e-05 -0.000128151)
(0.653922 6.71966e-05 -3.77038e-05)
(0.653866 5.84722e-05 -1.13182e-05)
(0.653917 4.21467e-05 4.80423e-06)
(0.653874 6.0323e-05 1.14672e-07)
(0.65392 5.30105e-05 -3.67102e-05)
(0.653879 7.15296e-05 -2.87418e-05)
(0.653917 4.57978e-05 -1.67538e-05)
(0.653875 5.5428e-05 1.86502e-05)
(0.653913 4.14609e-05 -1.23223e-05)
(0.653877 5.93733e-05 -2.49219e-05)
(0.65391 4.85032e-05 -4.35316e-05)
(0.653878 5.51835e-05 -1.10067e-06)
(0.653917 3.82978e-05 9.97456e-06)
(0.653865 5.56378e-05 1.26686e-05)
(0.653925 4.96029e-05 -2.50696e-05)
(0.653873 7.06316e-05 -1.9763e-05)
(0.653933 5.491e-05 5.18659e-06)
(0.653885 5.7131e-05 3.59944e-05)
(0.653923 5.43649e-05 9.63914e-06)
(0.653889 7.10488e-05 -1.44164e-05)
(0.653922 6.91727e-05 -2.02699e-05)
(0.653893 6.19723e-05 1.78206e-05)
(0.653926 4.61683e-05 3.83805e-05)
(0.653902 5.89385e-05 2.81532e-05)
(0.653923 5.16077e-05 -6.79987e-06)
(0.653907 6.28327e-05 -1.58641e-05)
(0.653911 5.51387e-05 1.12684e-05)
(0.653902 3.93269e-05 3.94083e-05)
(0.653891 4.44359e-05 1.12612e-05)
(0.653889 5.83496e-05 -1.1674e-05)
(0.653894 5.16983e-05 -3.02315e-05)
(0.653859 5.99133e-05 -3.67526e-06)
(0.653889 3.7827e-05 9.06841e-06)
(0.653843 5.30317e-05 -8.15901e-07)
(0.653903 5.83727e-05 -3.74771e-05)
(0.653845 6.21744e-05 -3.37811e-05)
(0.65392 5.63831e-05 -6.54058e-06)
(0.653846 4.59988e-05 1.3697e-05)
(0.653919 5.8976e-05 -3.04305e-06)
(0.653856 6.21526e-05 -3.81634e-05)
(0.720978 5.74094e-05 5.54774e-06)
(0.720956 5.64173e-05 2.64635e-05)
(0.720986 3.94894e-05 2.32384e-05)
(0.720957 5.55195e-05 3.15051e-05)
(0.720984 4.62345e-05 7.83992e-06)
(0.720965 6.48977e-05 1.53441e-05)
(0.72099 4.45168e-05 1.19791e-05)
(0.720969 5.2734e-05 3.01868e-05)
(0.720987 3.98603e-05 1.46427e-05)
(0.720964 5.438e-05 1.34839e-05)
(0.720987 4.62684e-05 7.14782e-07)
(0.720965 5.25603e-05 1.91257e-05)
(0.720987 4.0428e-05 2.09701e-05)
(0.720963 5.22353e-05 2.85728e-05)
(0.720984 4.82326e-05 1.11592e-05)
(0.720964 6.21706e-05 1.79624e-05)
(0.720991 5.20682e-05 2.38752e-05)
(0.720968 5.44655e-05 3.36504e-05)
(0.72099 5.1917e-05 2.73405e-05)
(0.720969 6.27061e-05 1.37247e-05)
(0.72099 6.20153e-05 1.69933e-05)
(0.720981 5.75364e-05 2.33875e-05)
(0.720996 4.49885e-05 4.0473e-05)
(0.720983 5.30205e-05 3.0579e-05)
(0.720996 4.92091e-05 2.7772e-05)
(0.720979 5.53641e-05 1.96935e-05)
(0.720999 5.00472e-05 3.27507e-05)
(0.72098 4.05059e-05 4.022e-05)
(0.720998 4.07222e-05 3.58805e-05)
(0.720966 5.25283e-05 2.43522e-05)
(0.720995 4.86112e-05 1.96963e-05)
(0.720956 5.46067e-05 2.77952e-05)
(0.720991 3.88674e-05 3.086e-05)
(0.720941 4.65761e-05 2.8095e-05)
(0.720982 5.303e-05 1.36074e-05)
(0.720936 5.38632e-05 1.63533e-05)
(0.72098 5.06676e-05 2.06914e-05)
(0.72094 4.43324e-05 3.42643e-05)
(0.720974 5.10496e-05 2.26698e-05)
(0.720942 5.738e-05 1.76739e-05)
(0.785864 4.43878e-05 2.59764e-05)
(0.785851 4.80651e-05 3.32253e-05)
(0.785864 3.23574e-05 3.19524e-05)
(0.785849 4.57233e-05 3.61182e-05)
(0.785863 3.73181e-05 2.89155e-05)
(0.785851 5.12433e-05 3.02998e-05)
(0.785866 3.68815e-05 2.81694e-05)
(0.785855 4.19599e-05 3.48786e-05)
(0.785868 3.1912e-05 2.90154e-05)
(0.785855 4.33555e-05 2.94728e-05)
(0.785868 3.7166e-05 2.42211e-05)
(0.785858 4.38839e-05 2.97677e-05)
(0.78587 3.28969e-05 3.1528e-05)
(0.785858 4.22514e-05 3.59544e-05)
(0.785869 3.86896e-05 3.18468e-05)
(0.785858 4.93101e-05 3.24034e-05)
(0.78587 4.29979e-05 3.49572e-05)
(0.785859 4.48971e-05 3.5639e-05)
(0.785869 4.18975e-05 3.52409e-05)
(0.785856 5.02956e-05 2.89119e-05)
(0.78587 4.93546e-05 2.89303e-05)
(0.785859 4.79784e-05 3.0214e-05)
(0.785875 3.74771e-05 3.68359e-05)
(0.785856 4.24041e-05 3.42115e-05)
(0.785877 3.96964e-05 3.14732e-05)
(0.785856 4.41509e-05 2.96006e-05)
(0.785881 4.03582e-05 3.15425e-05)
(0.785859 3.54228e-05 3.71257e-05)
(0.785882 3.24526e-05 3.37261e-05)
(0.785857 4.1494e-05 3.37799e-05)
(0.785883 3.84758e-05 2.73294e-05)
(0.785859 4.20271e-05 3.45681e-05)
(0.785883 3.33804e-05 3.10701e-05)
(0.785857 3.59966e-05 3.53325e-05)
(0.785877 4.20127e-05 2.80786e-05)
(0.785854 4.41754e-05 3.19177e-05)
(0.785874 4.23783e-05 3.16649e-05)
(0.785853 3.86428e-05 3.72159e-05)
(0.785866 4.00715e-05 3.30254e-05)
(0.785849 4.80788e-05 3.19438e-05)
(0.847381 2.94502e-05 2.76695e-05)
(0.847372 3.51483e-05 3.19398e-05)
(0.847381 2.21311e-05 3.00957e-05)
(0.84737 3.17504e-05 3.42195e-05)
(0.847378 2.46409e-05 2.96532e-05)
(0.847369 3.56749e-05 3.17556e-05)
(0.847379 2.54692e-05 2.83218e-05)
(0.847369 2.9623e-05 3.24597e-05)
(0.847378 2.15463e-05 2.867e-05)
(0.847367 2.9762e-05 3.00757e-05)
(0.847377 2.59852e-05 2.66884e-05)
(0.847368 3.09856e-05 2.97756e-05)
(0.847379 2.41524e-05 3.03402e-05)
(0.847368 2.99024e-05 3.4403e-05)
(0.84738 2.76867e-05 3.30946e-05)
(0.847369 3.45498e-05 3.378e-05)
(0.847382 3.10517e-05 3.37602e-05)
(0.84737 3.2028e-05 3.47606e-05)
(0.847383 2.98428e-05 3.34087e-05)
(0.847369 3.51465e-05 3.16937e-05)
(0.847384 3.50737e-05 3.01629e-05)
(0.847371 3.43275e-05 3.23223e-05)
(0.847386 2.71464e-05 3.31613e-05)
(0.84737 2.87232e-05 3.48181e-05)
(0.847384 2.74067e-05 3.16796e-05)
(0.847369 3.01888e-05 3.23777e-05)
(0.847384 2.79592e-05 3.02484e-05)
(0.84737 2.54442e-05 3.50277e-05)
(0.847384 2.20456e-05 3.1381e-05)
(0.847369 2.76885e-05 3.37547e-05)
(0.847383 2.63219e-05 2.77761e-05)
(0.847371 2.89149e-05 3.19137e-05)
(0.847384 2.34471e-05 2.86614e-05)
(0.847371 2.46229e-05 3.19769e-05)
(0.847382 2.7551e-05 2.84876e-05)
(0.847371 3.10699e-05 3.11113e-05)
(0.847383 2.81118e-05 3.00501e-05)
(0.847373 2.84301e-05 3.3485e-05)
(0.847381 2.56239e-05 3.08485e-05)
(0.847371 3.4548e-05 3.17438e-05)
(0.904208 1.85818e-05 2.49806e-05)
(0.904202 2.40449e-05 2.82355e-05)
(0.904209 1.4614e-05 2.60556e-05)
(0.904201 2.12907e-05 2.9601e-05)
(0.904208 1.62293e-05 2.63535e-05)
(0.904201 2.38216e-05 2.83079e-05)
(0.904209 1.73516e-05 2.52551e-05)
(0.904201 2.03161e-05 2.81245e-05)
(0.904209 1.43427e-05 2.53537e-05)
(0.9042 1.98997e-05 2.70084e-05)
(0.904208 1.72774e-05 2.42365e-05)
(0.9042 2.14872e-05 2.68072e-05)
(0.904209 1.665e-05 2.64158e-05)
(0.9042 2.03056e-05 3.01074e-05)
(0.904209 1.85444e-05 2.89704e-05)
(0.9042 2.32336e-05 3.04973e-05)
(0.90421 2.09617e-05 2.92848e-05)
(0.904201 2.20627e-05 3.08562e-05)
(0.904209 1.98801e-05 2.90504e-05)
(0.9042 2.36544e-05 2.93772e-05)
(0.904209 2.31432e-05 2.75007e-05)
(0.904202 2.35575e-05 2.98831e-05)
(0.904211 1.81628e-05 2.95142e-05)
(0.904202 1.89909e-05 3.17347e-05)
(0.904209 1.74374e-05 2.91454e-05)
(0.904201 1.98336e-05 3.05091e-05)
(0.904209 1.80519e-05 2.80402e-05)
(0.904202 1.75077e-05 3.17823e-05)
(0.904209 1.37544e-05 2.88516e-05)
(0.904202 1.78783e-05 3.11066e-05)
(0.904209 1.62841e-05 2.65595e-05)
(0.904202 1.89891e-05 2.91914e-05)
(0.904209 1.43449e-05 2.61725e-05)
(0.904202 1.62517e-05 2.88099e-05)
(0.904207 1.59547e-05 2.5998e-05)
(0.904201 2.07467e-05 2.84119e-05)
(0.904208 1.72958e-05 2.6604e-05)
(0.904201 1.97406e-05 2.95099e-05)
(0.904207 1.55197e-05 2.69039e-05)
(0.904201 2.32296e-05 2.8594e-05)
(0.95502 1.01722e-05 2.21235e-05)
(0.955015 1.43835e-05 2.46367e-05)
(0.95502 8.31572e-06 2.26112e-05)
(0.955015 1.24558e-05 2.53315e-05)
(0.95502 8.98058e-06 2.29237e-05)
(0.955014 1.37506e-05 2.45071e-05)
(0.955021 9.97668e-06 2.20558e-05)
(0.955015 1.19197e-05 2.39348e-05)
(0.955021 7.98827e-06 2.18075e-05)
(0.955014 1.13255e-05 2.31432e-05)
(0.95502 9.84841e-06 2.10303e-05)
(0.955015 1.29271e-05 2.29312e-05)
(0.955021 1.00878e-05 2.23071e-05)
(0.955015 1.24421e-05 2.51089e-05)
(0.955021 1.11035e-05 2.43425e-05)
(0.955016 1.41871e-05 2.57969e-05)
(0.955021 1.26262e-05 2.45432e-05)
(0.955017 1.37539e-05 2.5941e-05)
(0.955021 1.17832e-05 2.43738e-05)
(0.955016 1.44143e-05 2.52541e-05)
(0.955021 1.36457e-05 2.37013e-05)
(0.955017 1.46878e-05 2.5806e-05)
(0.955022 1.0682e-05 2.51467e-05)
(0.955017 1.13838e-05 2.7222e-05)
(0.955021 9.42052e-06 2.5182e-05)
(0.955016 1.16298e-05 2.67272e-05)
(0.955021 9.71478e-06 2.453e-05)
(0.955017 1.05874e-05 2.74275e-05)
(0.955021 6.94368e-06 2.51092e-05)
(0.955016 1.00981e-05 2.70832e-05)
(0.955021 8.04419e-06 2.3709e-05)
(0.955016 1.08903e-05 2.55553e-05)
(0.955021 7.03113e-06 2.29699e-05)
(0.955016 9.24768e-06 2.50404e-05)
(0.95502 7.57062e-06 2.27814e-05)
(0.955015 1.20032e-05 2.48826e-05)
(0.95502 8.96835e-06 2.31281e-05)
(0.955015 1.18779e-05 2.5516e-05)
(0.95502 8.09393e-06 2.3278e-05)
(0.955014 1.35878e-05 2.50329e-05)
(0.998555 4.24828e-06 1.85376e-05)
(0.998551 7.43218e-06 2.03621e-05)
(0.998555 3.5519e-06 1.87289e-05)
(0.998551 6.3485e-06 2.06294e-05)
(0.998555 3.855e-06 1.90087e-05)
(0.998551 7.04467e-06 2.01219e-05)
(0.998555 4.5863e-06 1.83744e-05)
(0.998552 6.2496e-06 1.95653e-05)
(0.998555 3.47463e-06 1.79326e-05)
(0.998551 5.82179e-06 1.90477e-05)
(0.998555 4.62273e-06 1.73755e-05)
(0.998551 7.22063e-06 1.89513e-05)
(0.998555 5.31922e-06 1.82204e-05)
(0.998552 7.10975e-06 2.03921e-05)
(0.998556 5.76496e-06 1.97513e-05)
(0.998553 8.01731e-06 2.11704e-05)
(0.998556 6.51559e-06 1.99324e-05)
(0.998553 7.85591e-06 2.1276e-05)
(0.998556 5.89165e-06 1.97851e-05)
(0.998553 8.03609e-06 2.10215e-05)
(0.998556 6.91822e-06 1.96782e-05)
(0.998553 8.35574e-06 2.1596e-05)
(0.998557 5.22718e-06 2.08054e-05)
(0.998554 6.06704e-06 2.26194e-05)
(0.998556 3.83404e-06 2.10034e-05)
(0.998553 5.82435e-06 2.24986e-05)
(0.998556 3.93242e-06 2.06699e-05)
(0.998553 5.43833e-06 2.28372e-05)
(0.998556 2.34349e-06 2.09978e-05)
(0.998553 4.64593e-06 2.25664e-05)
(0.998556 2.61199e-06 2.00934e-05)
(0.998553 4.96375e-06 2.13218e-05)
(0.998556 2.08471e-06 1.9264e-05)
(0.998553 3.96175e-06 2.06826e-05)
(0.998555 2.10581e-06 1.89756e-05)
(0.998552 5.51312e-06 2.05672e-05)
(0.998555 3.29601e-06 1.91652e-05)
(0.998552 5.90232e-06 2.09508e-05)
(0.998555 2.96042e-06 1.92022e-05)
(0.998551 6.74414e-06 2.07203e-05)
(1.03376 3.09429e-07 1.48054e-05)
(1.03376 2.57706e-06 1.60938e-05)
(1.03376 1.09873e-07 1.49165e-05)
(1.03376 2.0469e-06 1.60788e-05)
(1.03376 2.59909e-07 1.50885e-05)
(1.03375 2.44434e-06 1.57621e-05)
(1.03376 7.75293e-07 1.45531e-05)
(1.03376 2.18133e-06 1.53385e-05)
(1.03376 2.77275e-07 1.40055e-05)
(1.03376 1.97371e-06 1.49107e-05)
(1.03376 1.02741e-06 1.3624e-05)
(1.03376 3.04985e-06 1.47991e-05)
(1.03376 1.82109e-06 1.4239e-05)
(1.03376 3.23467e-06 1.57488e-05)
(1.03376 2.06524e-06 1.52973e-05)
(1.03376 3.67868e-06 1.65138e-05)
(1.03376 2.30359e-06 1.54415e-05)
(1.03376 3.50808e-06 1.66638e-05)
(1.03376 1.85618e-06 1.53868e-05)
(1.03376 3.44892e-06 1.65961e-05)
(1.03376 2.37097e-06 1.56207e-05)
(1.03376 3.6622e-06 1.71281e-05)
(1.03376 1.4298e-06 1.65587e-05)
(1.03376 2.15746e-06 1.79138e-05)
(1.03376 1.65411e-07 1.68218e-05)
(1.03376 1.73981e-06 1.80473e-05)
(1.03376 1.39075e-07 1.67159e-05)
(1.03376 1.56182e-06 1.82711e-05)
(1.03376 -7.43475e-07 1.6904e-05)
(1.03376 8.33024e-07 1.80629e-05)
(1.03376 -8.73343e-07 1.63025e-05)
(1.03376 8.07559e-07 1.71003e-05)
(1.03376 -1.27049e-06 1.55375e-05)
(1.03376 1.73932e-07 1.64449e-05)
(1.03376 -1.39715e-06 1.51698e-05)
(1.03376 1.03655e-06 1.63323e-05)
(1.03376 -4.9736e-07 1.52079e-05)
(1.03376 1.56489e-06 1.65884e-05)
(1.03376 -5.0674e-07 1.51655e-05)
(1.03376 2.05354e-06 1.64744e-05)
(1.05997 -1.82927e-06 1.14578e-05)
(1.05996 -2.20801e-07 1.21788e-05)
(1.05997 -1.82002e-06 1.15141e-05)
(1.05996 -4.06577e-07 1.20664e-05)
(1.05997 -1.67642e-06 1.14764e-05)
(1.05996 -1.32955e-07 1.19371e-05)
(1.05997 -1.31624e-06 1.09777e-05)
(1.05996 -1.49696e-07 1.16157e-05)
(1.05997 -1.4416e-06 1.05007e-05)
(1.05996 -1.90833e-07 1.11778e-05)
(1.05997 -8.73558e-07 1.02894e-05)
(1.05996 6.31452e-07 1.10419e-05)
(1.05997 -1.39294e-07 1.06971e-05)
(1.05997 9.74692e-07 1.17752e-05)
(1.05997 3.83547e-08 1.13352e-05)
(1.05997 1.13922e-06 1.24844e-05)
(1.05997 -2.01369e-08 1.14679e-05)
(1.05997 8.95591e-07 1.2607e-05)
(1.05997 -3.54203e-07 1.15827e-05)
(1.05997 7.05343e-07 1.25606e-05)
(1.05997 -1.39774e-07 1.19915e-05)
(1.05997 8.08204e-07 1.30325e-05)
(1.05997 -6.79199e-07 1.27511e-05)
(1.05997 -1.41669e-07 1.37319e-05)
(1.05997 -1.73753e-06 1.30245e-05)
(1.05997 -5.5749e-07 1.40146e-05)
(1.05997 -1.89774e-06 1.30564e-05)
(1.05997 -7.20147e-07 1.41967e-05)
(1.05997 -2.39775e-06 1.31854e-05)
(1.05997 -1.29143e-06 1.39891e-05)
(1.05997 -2.67118e-06 1.27637e-05)
(1.05997 -1.506e-06 1.32535e-05)
(1.05997 -3.01409e-06 1.2115e-05)
(1.05997 -1.94179e-06 1.26736e-05)
(1.05997 -3.17792e-06 1.16704e-05)
(1.05997 -1.49302e-06 1.25466e-05)
(1.05997 -2.57735e-06 1.15779e-05)
(1.05996 -9.88282e-07 1.27089e-05)
(1.05997 -2.39089e-06 1.1567e-05)
(1.05996 -6.05793e-07 1.25785e-05)
(1.07717 -2.72919e-06 8.59793e-06)
(1.07717 -1.68092e-06 8.86413e-06)
(1.07717 -2.63447e-06 8.51542e-06)
(1.07717 -1.65628e-06 8.8129e-06)
(1.07717 -2.47721e-06 8.33002e-06)
(1.07717 -1.4153e-06 8.74143e-06)
(1.07717 -2.18603e-06 7.94182e-06)
(1.07717 -1.33261e-06 8.4073e-06)
(1.07717 -2.12456e-06 7.62523e-06)
(1.07717 -1.25759e-06 7.99595e-06)
(1.07717 -1.65895e-06 7.44544e-06)
(1.07717 -6.10432e-07 7.93838e-06)
(1.07717 -1.04062e-06 7.61816e-06)
(1.07717 -2.19462e-07 8.53921e-06)
(1.07717 -8.90621e-07 8.00556e-06)
(1.07717 -1.79135e-07 9.06639e-06)
(1.07717 -1.06577e-06 8.23499e-06)
(1.07717 -4.81301e-07 9.08664e-06)
(1.07717 -1.35338e-06 8.47793e-06)
(1.07717 -7.55844e-07 9.07907e-06)
(1.07717 -1.30394e-06 8.88314e-06)
(1.07717 -7.40653e-07 9.55779e-06)
(1.07717 -1.64324e-06 9.4502e-06)
(1.07717 -1.31036e-06 1.02124e-05)
(1.07717 -2.45964e-06 9.72193e-06)
(1.07717 -1.66681e-06 1.05268e-05)
(1.07717 -2.71415e-06 9.84722e-06)
(1.07717 -1.84742e-06 1.06566e-05)
(1.07717 -2.99905e-06 9.96172e-06)
(1.07717 -2.31111e-06 1.04771e-05)
(1.07717 -3.29811e-06 9.64347e-06)
(1.07717 -2.618e-06 9.9342e-06)
(1.07717 -3.5818e-06 9.08054e-06)
(1.07717 -2.95108e-06 9.46962e-06)
(1.07717 -3.77534e-06 8.6352e-06)
(1.07717 -2.73435e-06 9.30369e-06)
(1.07717 -3.39291e-06 8.5278e-06)
(1.07717 -2.30136e-06 9.32433e-06)
(1.07717 -3.14234e-06 8.60312e-06)
(1.07717 -1.97542e-06 9.15895e-06)
(1.08632 -2.73042e-06 6.14865e-06)
(1.08632 -2.07163e-06 6.26437e-06)
(1.08632 -2.59758e-06 5.98602e-06)
(1.08632 -1.95148e-06 6.2109e-06)
(1.08632 -2.42756e-06 5.79776e-06)
(1.08632 -1.72018e-06 6.09611e-06)
(1.08632 -2.16624e-06 5.53139e-06)
(1.08632 -1.60013e-06 5.80111e-06)
(1.08632 -2.01116e-06 5.2859e-06)
(1.08632 -1.45286e-06 5.51379e-06)
(1.08632 -1.63287e-06 5.08159e-06)
(1.08632 -9.49536e-07 5.50767e-06)
(1.08632 -1.12643e-06 5.1488e-06)
(1.08632 -5.75272e-07 5.91508e-06)
(1.08632 -9.94582e-07 5.46215e-06)
(1.08633 -6.0046e-07 6.25201e-06)
(1.08632 -1.19738e-06 5.74498e-06)
(1.08633 -9.24553e-07 6.25473e-06)
(1.08633 -1.45087e-06 5.97976e-06)
(1.08633 -1.23544e-06 6.34214e-06)
(1.08633 -1.5042e-06 6.31184e-06)
(1.08632 -1.27766e-06 6.81241e-06)
(1.08633 -1.7641e-06 6.75734e-06)
(1.08632 -1.58588e-06 7.37567e-06)
(1.08633 -2.37279e-06 7.05197e-06)
(1.08632 -1.86441e-06 7.65881e-06)
(1.08633 -2.62307e-06 7.21653e-06)
(1.08632 -2.04869e-06 7.75533e-06)
(1.08633 -2.80467e-06 7.29882e-06)
(1.08633 -2.43437e-06 7.63162e-06)
(1.08633 -3.09767e-06 7.04098e-06)
(1.08633 -2.78645e-06 7.24059e-06)
(1.08633 -3.3546e-06 6.57767e-06)