/*--------------------------------*- C++ -*----------------------------------*\
  =========                 |
  \\      /  F ield         | OpenFOAM: The Open Source CFD Toolbox
   \\    /   O peration     | Website:  https://openfoam.org
    \\  /    A nd           | Version:  10
     \\/     M anipulation  |
\*---------------------------------------------------------------------------*/
FoamFile
{
    format      ascii;
    class       surfaceScalarField;
    location    "13";
    object      phi;
}
// * * * * * * * * * * * * * * * * * * * * * * * * * * * * * * * * * * * * * //

dimensions      [0 3 -1 0 0 0 0];

internalField   nonuniform List<scalar> 
74080
(
0.00518698
0.000114225
5.57304e-05
0.00515238
3.15971e-05
0.000157412
0.00516627
-2.56364e-05
0.000215716
0.00520295
-4.92421e-05
0.000194132
0.00523769
-1.41733e-05
0.000114235
0.00527165
5.81136e-05
7.67516e-06
0.00525696
0.000101448
-1.60549e-05
0.00521744
8.89803e-05
1.2792e-05
0.00519214
6.73362e-05
2.31234e-05
0.00518706
4.39127e-05
-1.89659e-06
0.00524234
2.28377e-05
-0.000100623
0.00533122
6.43021e-05
-0.00016984
0.0053801
0.000169499
-0.000151464
0.00539708
0.000192462
-8.91776e-05
0.00536516
0.000115264
-1.944e-05
0.00530879
8.0274e-06
-9.53096e-06
0.00529713
-9.79198e-05
-4.97253e-05
0.00530094
-0.000101002
-9.06811e-05
0.00530977
-3.14268e-05
-7.99869e-05
0.00530886
4.28704e-06
-1.57081e-05
0.00528208
1.91725e-05
2.44939e-05
0.00527849
3.05366e-05
2.05516e-05
0.00532513
2.76101e-05
-3.01319e-06
0.0054079
6.55466e-05
-4.63507e-05
0.00546558
9.59893e-05
-4.25298e-05
0.00543153
7.64211e-05
-3.31432e-05
0.00528247
1.36945e-05
5.76111e-06
0.00508694
-8.25767e-05
0.000115798
0.00493571
-0.00015839
0.000181791
0.00485831
-0.000228925
0.000206915
0.00485356
-0.000284102
0.000200643
0.00489855
-0.00028857
0.000121325
0.00496036
-0.000277582
5.77821e-05
0.00500314
-0.000192584
1.94096e-05
0.00504805
-9.44991e-05
-3.45729e-05
0.00511293
-3.22703e-05
-5.22566e-05
0.00517281
5.46421e-05
-5.52157e-05
0.00523551
8.93292e-05
-4.63006e-05
0.00523972
0.000131551
-1.85902e-05
0.000178184
8.77027e-09
0.00485062
3.46397e-05
3.32308e-06
0.00488805
-1.85821e-05
0.000136055
0.00487639
-5.48135e-05
0.000250408
0.00482731
-3.50041e-05
0.000279227
0.00479575
2.36922e-05
0.000199878
0.00481495
8.82624e-05
7.4913e-05
0.00483223
0.000136215
-6.76318e-06
0.00479625
0.000152545
-4.48055e-05
0.00472615
0.000119514
-6.98798e-05
0.00467005
4.78428e-05
-0.000133377
0.00470009
-4.01251e-05
-0.000242341
0.00481256
-1.98659e-05
-0.000324086
0.00494011
0.000140662
-0.000354708
0.00504445
0.000200106
-0.00025612
0.00507099
0.000156141
-7.88767e-05
0.00505029
5.55788e-05
5.67997e-05
0.00499993
-3.1048e-05
9.82183e-05
0.00492075
-1.00583e-05
3.99936e-05
0.00485871
1.40676e-06
-1.66203e-05
0.00479151
-2.96952e-05
-1.6925e-05
0.00473151
-4.27497e-05
2.34002e-05
0.00474687
-4.5161e-05
0.00013022
0.00487738
-5.68271e-05
0.000239524
0.00512782
-3.58147e-05
0.000281639
0.0053367
2.16247e-05
0.000281928
0.00531656
6.15769e-05
0.000231628
0.00506923
6.3628e-05
0.000184461
0.00477054
-7.30302e-06
0.000189355
0.0045894
-9.88754e-05
0.000186241
0.00454277
-0.000181687
0.000145553
0.00458055
-0.00026862
4.24178e-05
0.00465377
-0.000317387
-0.000114145
0.004697
-0.000330531
-0.000204238
0.00468798
-0.000267517
-0.000231052
0.00464834
-0.000194145
-0.000230789
0.0045893
-0.000149357
-0.000149191
0.00455567
-8.95414e-05
-7.00728e-05
0.00458602
-7.7266e-05
-3.09611e-05
0.00464773
-4.04398e-06
-2.84893e-05
7.05316e-05
-5.27186e-05
0.00432975
7.98325e-05
2.49385e-05
0.00448254
5.35123e-05
-3.81247e-05
0.00456536
2.02745e-05
-8.74034e-05
0.00452716
8.06545e-06
-3.72976e-05
0.00444812
3.3551e-06
0.000114241
0.00443771
3.54757e-05
0.000219475
0.00450113
0.000104331
0.000209823
0.00452474
0.000170538
0.000143115
0.00442892
0.000164393
2.69272e-05
0.00426595
7.20536e-05
-0.000109666
0.00415143
-7.22201e-05
-0.000201744
0.00415167
-6.28491e-05
-0.000203581
0.00429143
6.71612e-05
-6.48188e-05
0.00445224
0.000106166
0.000141189
0.00454177
8.69305e-05
0.000271873
0.00453849
3.57038e-05
0.000254315
0.00438228
6.72146e-05
0.000101787
0.00417604
0.000112799
-5.95491e-05
0.00406747
2.10087e-05
-0.000101271
0.00408869
-0.000105589
-4.74303e-05
0.00425848
-0.000182721
8.86134e-05
0.00446485
-0.00013152
0.000268788
0.00457136
-3.41284e-05
0.000384404
0.0045464
1.62062e-05
0.00039603
0.00442548
-1.12069e-05
0.0002996
0.00430087
-8.0868e-05
0.00014306
0.00421464
-0.000107242
9.82828e-05
0.00417653
-0.000121501
0.000143185
0.00419945
-0.000143153
0.000127337
0.00423771
-0.000158731
3.36521e-05
0.0042699
-0.00019947
-0.000121601
0.00428484
-0.000211871
-0.000264189
0.00429091
-0.000199124
-0.000336417
0.00434145
-0.000179001
-0.000375362
0.00440067
-0.000177461
-0.000349167
0.00439676
-0.000164238
-0.000253674
0.00433263
-0.000120495
-0.000138768
0.0042246
-8.72782e-05
-4.54654e-05
0.00415176
1.36287e-05
1.19244e-05
8.51312e-05
3.71171e-05
0.00403794
0.000129388
-6.24088e-05
0.00407135
0.000116391
-9.46561e-05
0.00406046
7.40267e-05
-1.60312e-05
0.00402605
3.85276e-05
5.96259e-05
0.00397051
6.08167e-06
0.000159884
0.00391519
-1.29849e-05
0.000226868
0.00388979
2.39224e-05
0.00023248
0.00389665
0.000107144
0.000119875
0.00387915
0.000162783
-0.000150183
0.00380799
0.000100128
-0.000329167
0.00366611
-5.36586e-05
-0.000212479
0.00357803
-9.71919e-05
8.97653e-05
0.00370525
-5.36498e-05
0.000247584
0.00394787
2.42449e-05
6.83296e-05
0.00415378
0.00010914
-0.000242438
0.00414195
0.000140876
-0.000309649
0.00391562
0.000234993
-0.000113884
0.00374929
0.000231843
7.73135e-05
0.00372003
0.000118329
7.34328e-05
0.00378394
-2.17369e-05
-4.47758e-05
0.0038768
-0.00012009
-2.18654e-05
0.0038729
-4.07998e-05
0.000178782
0.00375136
6.32112e-05
0.000292756
0.00362064
6.32578e-05
0.000199472
0.00359464
-5.16414e-05
-3.28306e-05
0.00370633
-0.000191936
-0.000159176
0.00384383
-0.000220294
-3.27297e-05
0.00385131
-0.000172261
0.000108307
0.00371833
-0.000113473
4.83075e-05
0.00355525
-9.61449e-05
-0.000141833
0.00348584
-0.000162047
-0.000359554
0.00351914
-0.000203704
-0.000436602
0.00359482
-0.000196201
-0.000348029
0.00367525
-0.000165386
-0.000261169
0.0037252
-0.000144487
-0.000209497
0.0037292
-0.000103134
-0.000137447
0.00373447
-6.42196e-05
-3.53281e-05
0.00377056
-4.19484e-05
4.02564e-05
0.00384925
7.45635e-05
6.01337e-05
0.000136637
4.10211e-05
0.00364564
7.4285e-05
9.00068e-06
0.00372025
0.000111611
-1.53555e-05
0.00379483
4.62024e-05
9.68515e-05
0.00380477
1.385e-05
0.000229774
0.00371632
5.01612e-05
0.000249314
0.00361053
6.70719e-05
6.92878e-05
0.00351436
0.000107661
-0.000110159
0.00342968
0.000116578
-0.000210124
0.00339001
3.27109e-05
-0.000161927
0.00342278
-0.000138051
5.62836e-05
0.00345648
-0.000238589
0.000306937
0.00345199
-0.000110112
0.000370551
0.00347223
7.1395e-06
0.000134916
0.00347407
9.52068e-05
-0.000120529
0.00348932
0.0001147
-0.000187505
0.00350672
8.66591e-05
-4.86997e-05
0.0035616
0.000146354
0.000146285
0.00375939
5.96136e-05
0.000188501
0.00389993
-2.22017e-05
9.89311e-05
0.00381491
-1.47209e-05
4.15572e-05
0.00353196
3.60113e-05
0.000122014
0.00323936
0.000104233
0.000146709
0.00311707
2.793e-05
5.0945e-05
0.00311079
-8.63999e-05
-0.000118587
0.00313705
-0.000184595
-0.000261661
0.00317629
-0.000246577
-0.000278272
0.00317039
-0.000168933
-0.000249657
0.00312834
-7.72076e-05
-0.000285025
0.00309264
-3.15434e-05
-0.000350673
0.00309105
-6.62514e-05
-0.000329999
0.00314571
-0.000171972
-0.000225747
0.00324199
-0.000214909
-9.04077e-05
0.00332273
-0.00022655
3.09286e-05
0.00336111
-0.00024888
-3.93429e-07
0.00336953
-0.000261564
-0.00011382
0.00331752
-0.000151407
-0.000156869
0.00327564
-6.80387e-05
-6.98634e-05
0.00331387
-0.000103116
0.000119003
0.00342517
-4.71829e-05
0.000239734
1.70768e-05
0.000175887
0.00324216
9.99173e-05
0.000122337
0.00327269
0.000167501
5.2427e-05
0.00328695
4.87576e-05
0.000109595
0.00329965
-8.78282e-05
0.000305039
0.00334355
-0.000134978
0.000444382
0.00340897
-6.92227e-05
0.000260802
0.00343185
9.35215e-05
-8.8496e-05
0.00337245
0.0002208
-0.000317881
0.00326904
0.000140441
-0.000204125
0.00321363
-0.000118754
8.04336e-05
0.00318896
-0.000212057
0.00024118
0.00314787
-2.37246e-05
0.000183234
0.00309701
8.24559e-05
9.96648e-07
0.00302317
0.000124868
-6.9012e-05
0.00298588
3.91311e-05
-4.39751e-05
0.00299958
-1.56651e-05
1.07474e-05
0.00309387
3.49648e-05
7.10641e-05
0.00326503
-0.00010872
0.000129219
0.00336397
-0.000191794
0.000191375
0.00334405
-0.000171722
0.000278659
0.00321625
-6.5373e-05
0.000334888
0.00310575
5.83599e-05
0.00021742
0.00312789
-2.61429e-05
8.17786e-05
0.00318388
-0.000108491
-3.22793e-05
0.00321311
-0.000217982
-7.2423e-05
0.00321481
-0.000270574
-7.7395e-05
0.00320838
-0.000129821
-0.00017163
0.00322367
-2.91551e-05
-0.000232757
0.00321589
1.31697e-05
-0.000239446
0.0031819
-6.06891e-05
-0.000173456
0.00317821
-0.00023789
-6.41532e-05
0.00320643
-0.00028273
4.51331e-07
0.00321113
-0.000213843
5.63717e-06
0.00318025
-0.000164033
-8.50818e-05
0.00309536
-0.000160187
-0.000191648
0.00294139
-8.66981e-05
-0.000209884
0.00284658
-7.60231e-05
-0.00017476
0.00286513
-0.000123431
-5.46494e-05
0.00297889
-7.55751e-05
0.000154693
-1.80302e-05
0.00023959
0.0029896
1.63802e-05
0.000207899
0.00300498
0.000104596
0.000137516
0.00298491
3.34053e-05
6.93424e-05
0.00292942
-6.22603e-05
0.000111702
0.00292233
-0.000140799
0.000183906
0.00299641
-0.00013163
8.38666e-05
0.00306441
-3.16678e-05
-0.000129267
0.00305545
0.000162064
-0.000360495
0.00295696
0.000222849
-0.000409516
0.00287711
-1.88524e-05
-0.000256067
0.00284386
-0.000149711
-2.89741e-05
0.00290195
-6.50242e-05
0.000135777
0.00300985
-5.35671e-05
0.000136643
0.00299812
2.69657e-06
-2.21794e-05
0.00287529
-7.76485e-05
-0.00019456
0.00271586
-6.26332e-05
-0.00026376
0.0027054
-7.0427e-06
-0.000200382
0.00282488
-0.000188053
3.11737e-05
0.00292173
-0.000255389
0.000290254
0.00296984
-0.000212831
0.000390739
0.00296752
-7.92665e-05
0.000294155
0.00296502
3.33992e-05
9.77234e-05
0.00299693
-4.58756e-05
4.86809e-05
0.00303311
-6.60182e-05
6.61233e-05
0.00307991
-0.000175075
0.000114203
0.00309585
-0.000218609
9.01332e-05
0.0030767
-0.000109927
-2.01021e-05
0.00300772
-3.09564e-05
-0.000105645
0.0028889
5.96742e-05
-0.000213184
0.00283177
-1.37061e-05
-0.000303301
0.00285864
-0.000234684
-0.000281696
0.00288977
-0.000327659
-0.000136811
0.00287646
-0.000285758
-3.64988e-06
0.00282529
-0.000239289
-1.59071e-05
0.0027493
-0.000201611
-0.000146732
0.00266677
-8.12193e-05
-0.000210129
0.00265236
-5.14108e-05
-9.59178e-05
0.00269667
-8.99899e-05
9.90114e-05
0.00280769
-7.85194e-05
0.000246672
-8.43808e-05
0.000273008
0.00262279
0.000138987
0.00017937
0.00256652
0.000127275
0.000201077
0.00259328
-2.51883e-05
0.000167509
0.00261032
-0.000125649
0.000183377
0.0026281
-0.000214315
0.0001873
0.00265922
-0.000210453
6.04548e-05
0.00272323
-0.000139708
-0.000112906
0.00276306
0.00011058
-0.000290419
0.00275905
0.000273637
-0.000313743
0.00281292
-6.29973e-05
-0.000149695
0.00283423
-0.000269468
4.94335e-05
0.00279415
-0.000161966
6.06492e-05
0.00272773
-0.000130197
-5.1637e-05
0.00264336
-7.10237e-05
-0.000150293
0.00262663
-0.000195049
-0.00024943
0.0026466
-0.000200808
-0.000155881
0.00267592
-0.000148881
3.84694e-05
0.00264983
-0.00029877
0.000150463
0.00256427
-0.000287945
0.00020518
0.00251758
-0.000200342
0.000242824
0.00254323
-4.70611e-05
0.0002104
0.00261769
5.1511e-05
0.000119384
0.00266807
-4.07547e-05
0.000167033
0.00272023
-8.14939e-05
0.000264976
0.00282142
-0.000235111
0.00036605
0.00287686
-0.000184381
0.000336187
0.00286565
2.04208e-05
0.000113289
0.00280307
0.000100355
-0.000123554
0.00274385
6.84973e-05
-0.000231097
0.00276906
-0.000105109
-0.00020768
0.00278715
-0.000237088
-0.000138967
0.00275093
-0.000191974
-0.000141108
0.00268273
-0.000168072
-0.000141147
0.00257267
-0.000206459
-0.00012435
0.00241393
-0.000245856
-0.000106047
0.00228757
-0.000176378
-8.94326e-05
0.00233968
-0.000205623
-3.75864e-05
0.00253784
-0.000252367
4.90898e-05
0.00272195
-8.25842e-05
9.69912e-05
3.78535e-05
0.000137797
0.00225734
1.48195e-05
6.43312e-05
0.00235394
-2.75901e-05
0.000234214
0.0023988
-8.61059e-05
0.00020052
0.00239413
-0.000163715
0.000166441
0.00235769
-0.000265918
0.000191757
0.00232573
-0.00023499
0.000163142
0.00234389
-0.000171045
2.33717e-05
0.00237653
0.0001208
-0.000147968
0.0023912
0.00027573
-0.000134578
0.00244079
-0.000102904
9.75595e-06
0.00248846
-0.000370594
0.000140999
0.00249337
-0.000287039
0.000132535
0.00244877
-0.000168604
0.000109001
0.00240073
-0.000167467
8.30709e-05
0.00246839
-0.000453155
-3.48694e-05
0.00261033
-0.000448424
-5.06386e-05
0.00261709
-0.000167672
6.79823e-05
0.00245744
-0.000179762
0.000131331
0.00238613
-0.000294156
0.000106253
0.00241586
-0.000296783
7.36125e-05
0.00250165
-0.000135819
-9.57646e-06
0.00260356
-1.1905e-05
-0.000107164
0.0025782
-2.7313e-06
-7.29033e-05
0.00244168
4.03549e-05
5.85815e-05
0.00228311
-0.000160895
0.000221418
0.00215158
-0.000110079
0.000192143
0.00212854
4.3881e-05
5.0061e-05
0.00220572
4.72954e-06
-2.94227e-05
0.00239124
-0.000163044
-9.44938e-05
0.00259133
-0.000285683
-6.54097e-05
0.00265038
-0.000314123
5.78956e-05
0.0026145
-0.000200048
2.16365e-05
0.00254703
-7.20025e-05
-8.22661e-05
0.00245148
-4.78029e-05
-0.00017773
0.00234058
-0.000118898
-0.000173132
0.00224265
-0.000109145
-7.78703e-05
0.00222746
-0.000251543
4.11161e-05
0.00224384
-0.000336025
7.60344e-05
0.00223767
-7.79305e-05
-4.50708e-05
1.4097e-05
-8.40348e-05
0.00209214
-0.000320459
1.25682e-05
0.0022796
-0.000345507
0.000156938
0.00240879
-0.000209658
0.000111079
0.00238229
-0.000141064
8.20091e-05
0.00220646
-0.00016518
0.000127542
0.00205553
-5.23413e-05
0.000121617
0.00208503
-6.89864e-06
2.48632e-06
0.00221932
0.000104357
-4.29776e-05
0.00220492
0.000164008
-4.21976e-05
0.00210564
-6.21974e-05
-7.15134e-05
0.00219755
-0.000359464
1.27005e-05
0.00238317
-0.000305093
4.43034e-05
0.00237418
-4.18601e-05
9.68773e-05
0.00227146
-3.94878e-05
-6.92179e-06
0.00221044
-0.000299928
-0.000193139
0.00216119
-0.000306475
-5.87543e-05
0.00207554
-2.56075e-06
5.09017e-05
0.00196153
-1.80235e-05
0.000150149
0.00197894
-0.000312566
0.000329566
0.00207279
-0.000413478
0.000333901
0.00218224
-0.000304899
0.000184809
0.00227013
-0.000222485
9.07146e-05
0.00216259
-3.76541e-05
0.000115799
0.00195739
0.000164992
0.000161974
0.0018148
-0.00011559
0.000147015
0.00180496
-0.00022383
-2.57374e-05
0.00192653
-0.000186096
-8.8503e-05
0.00205168
-0.00019302
-2.82114e-05
0.00208696
-0.000220385
-4.99712e-05
0.00198847
-0.000162994
-5.69711e-05
0.00197209
-0.000359728
-3.6127e-05
0.0020632
-0.000319835
-0.000116184
0.00211821
-3.09579e-05
-0.000107264
0.00218163
-7.41221e-05
-5.42949e-05
0.00221834
-0.000152126
-5.20624e-05
0.00215119
-3.96553e-05
-1.10187e-05
0.00210481
-0.000191619
6.28129e-05
0.002042
-0.000251151
6.09604e-05
0.00196352
-7.04533e-05
-2.15091e-06
-0.00017067
-5.52123e-05
0.00165642
-0.000282492
-2.66428e-06
0.00178975
-0.000409354
0.000165298
0.00206038
-0.000369315
0.000183018
0.00222161
-0.000197477
0.000151275
0.00215133
-0.00011109
0.000196289
0.0020643
1.50266e-05
0.000150098
0.00201234
7.54353e-05
-0.000139042
0.00193481
0.000107706
-0.000201597
0.00174116
0.00012459
-1.66818e-05
0.00163435
-0.000107758
9.26727e-06
0.00172428
-0.000391453
6.15612e-05
0.00181354
-0.000206083
7.54374e-05
0.00179955
5.54045e-05
-2.02439e-05
0.00181854
2.89415e-05
-0.000166426
0.0018228
-0.000113258
-0.000237745
0.00183341
-0.000336416
1.05755e-05
0.00195601
-0.000296026
0.000188679
0.00195719
-0.000173423
0.000265072
0.00184849
-0.000285325
0.000326844
0.00186564
-0.000298239
0.000150931
0.00200181
-0.000211133
-2.12481e-05
0.00213971
-0.000246035
9.34574e-07
0.00208158
2.98662e-06
0.00010219
0.00196265
0.000318466
0.000108863
0.00191657
-3.62626e-05
8.98781e-05
0.00195941
-0.000305011
1.09427e-05
0.00201006
-0.000305024
3.61592e-05
0.0019197
-0.000181217
5.69612e-05
0.00182596
-0.000221259
2.30906e-05
0.00178032
-0.000167182
5.59449e-05
0.0018057
-0.000431353
5.26736e-05
0.00189851
-0.000540382
4.30546e-05
0.00195001
-0.000160245
9.28134e-05
0.00197638
-0.000146255
0.000107501
0.00204243
-0.000224662
0.00014221
0.00209203
-8.42193e-06
-2.15607e-05
0.00205951
-7.33527e-05
-6.66192e-05
0.0019952
-0.000138666
8.04918e-05
0.00190427
-1.75506e-05
1.94793e-05
-0.000146252
-9.52528e-05
0.00130329
-0.000183909
0.000232101
0.0013445
-0.000302424
0.000150705
0.00146282
-0.000320831
0.000142145
0.00157643
-0.000192259
0.000179592
0.00163294
-0.000125231
9.68786e-05
0.00159399
7.52782e-05
-5.23352e-05
0.00144576
0.00010564
-0.000217275
0.00132368
7.57622e-05
-0.00021851
0.00133345
-1.73503e-05
-2.27655e-06
0.00137042
-0.000231897
-8.85224e-05
0.00135451
-0.000426031
2.45662e-05
0.00139865
-0.000257402
0.000299696
0.00158031
-0.000102744
0.000145118
0.00178283
-0.000105213
-3.08973e-05
0.00176905
-9.67576e-05
7.04168e-05
0.00163092
-0.000264455
0.000141472
0.00163945
-0.000258707
-3.23394e-06
0.00157949
-4.64822e-05
-9.24221e-05
0.00148764
-0.000130546
-8.72376e-05
0.00152883
-0.000240243
-5.72135e-05
0.00162085
-0.000146749
-7.39025e-05
0.00159851
-0.000162768
-7.68743e-06
0.0015493
5.4162e-05
-4.4029e-06
0.00162546
0.000429814
-0.00017894
0.00168483
0.000137945
-0.000137289
0.00180345
-0.000285999
-0.000108931
0.00189365
-0.000322828
6.51207e-07
0.00177497
-9.63784e-05
8.74131e-05
0.0017373
-0.000184104
-2.80525e-05
0.00177449
-0.000121101
-6.14707e-05
0.0016569
-0.000356971
-3.6882e-05
0.00168238
-0.00069078
6.06885e-05
0.00179104
-0.000175756
4.01456e-05
0.00173154
7.54976e-05
8.36339e-05
0.0017541
-0.000230735
0.000224731
0.00186441
-0.000122672
3.10914e-07
0.00185014
-0.000100577
-0.000133646
0.00179776
-0.00015962
-6.94469e-06
0.00166262
3.28826e-05
-4.40629e-05
-0.000116066
9.89303e-05
0.0010445
-0.000286386
0.000202805
0.00111935
-0.000336065
0.000153781
0.00119612
-0.000285011
1.12548e-05
0.00129514
-0.000171363
0.000110198
0.00147689
-0.000105802
0.000102423
0.00159442
0.000128544
1.34176e-05
0.00150394
0.000157821
-9.57431e-05
0.00138906
5.19738e-05
-0.000130506
0.00139387
-7.03436e-05
4.438e-05
0.00136812
-0.000169608
-0.000120805
0.00132845
-0.000353663
-2.88211e-05
0.00139154
-0.000277196
0.000223791
0.00147803
-0.000149252
8.62157e-05
0.00160058
-0.000155819
-4.77197e-05
0.00161651
-2.80493e-05
5.22664e-05
0.00146741
-0.00010647
6.39526e-05
0.0013823
-0.000110221
-0.000154571
0.00131349
0.000214576
-0.000154275
0.00132277
-4.7927e-06
-5.33171e-05
0.00138461
-0.000292406
-2.46972e-05
0.00148671
-0.000237247
-2.92084e-05
0.00149579
-0.000189533
0.000116106
0.00148492
7.48167e-05
0.000166769
0.00157652
0.000474337
-8.7064e-05
0.0015938
6.78607e-05
-4.73395e-05
0.0016957
-0.000433122
5.27095e-05
0.00178166
-0.000271127
-8.33559e-06
0.00155687
0.000102392
3.56561e-05
0.00137177
-3.55243e-06
1.73556e-06
0.00134651
-3.13931e-05
3.24005e-05
0.00133132
-0.000405204
-9.49572e-05
0.00151281
-0.00081689
-9.31372e-05
0.00160804
-3.57542e-06
0.000141454
0.0015019
0.00020065
0.00032984
0.00161787
-0.000353569
0.00028734
0.00175891
-0.000294405
3.90694e-05
0.0015336
-0.000125038
0.000109536
0.00130598
-0.000115878
0.000167779
0.0012279
-8.57647e-05
0.000117661
-0.000348452
0.000194165
0.00108602
-0.000383876
0.000121325
0.00123408
-0.000586266
0.000266846
0.001288
-0.000306046
-1.38042e-07
0.00116109
0.000118655
4.12177e-05
0.00119959
0.000191028
1.83859e-05
0.00135107
0.000290173
-5.64673e-05
0.00125212
0.000301599
9.85504e-06
0.00123238
3.50074e-05
-4.20918e-06
0.00119226
-6.46353e-05
0.000158014
0.00109756
-5.13527e-06
-0.00010008
0.00119253
-0.000227158
-4.04423e-05
0.00126499
-0.000224587
0.000267334
0.00115168
-1.83779e-05
-1.11888e-06
0.00135188
-0.000175786
-6.15125e-05
0.0014996
-2.27189e-05
0.000112829
0.00137233
7.14972e-06
-5.58978e-05
0.00140663
-7.35939e-05
-0.000190296
0.00142368
0.000300046
5.5848e-05
0.0013723
2.36624e-05
0.000207503
0.00131962
-0.000289745
8.23499e-05
0.00131548
-0.000148754
-7.05888e-05
0.00135667
-0.000114066
6.16165e-05
0.00154153
9.60813e-05
6.30276e-05
0.00161612
0.000403836
-3.51103e-05
0.00145634
6.33467e-05
4.33374e-05
0.00147652
-0.000436969
6.04369e-05
0.00158488
-0.000220163
-2.24038e-06
0.0014227
0.000152934
0.000163026
0.0012528
7.64231e-05
0.000167758
0.00116737
2.07233e-05
0.000172959
0.00110585
-0.000384444
-0.00016431
0.00120189
-0.00074594
-0.000179161
0.00136097
-1.44107e-05
0.000170538
0.00135168
8.39984e-05
0.000349734
0.00131536
-0.000301671
0.000147055
0.00131453
-0.000228901
-1.92905e-05
0.001201
-0.00023825
0.0002737
0.00124184
-0.000342905
0.000217504
0.00133212
-0.000357126
0.000211284
-0.000432801
0.000137728
0.000861688
-0.000391979
8.68404e-05
0.000876147
-0.000626665
0.000145542
0.00100555
-0.000270329
1.2122e-05
0.00110495
0.00025099
7.72432e-05
0.00118384
0.000222384
-0.000101894
0.0011736
0.000389875
-0.000170398
0.00109299
0.00026879
-1.36824e-05
0.00114038
-0.00013163
6.60594e-05
0.00107408
-5.59241e-05
0.00011937
0.00101628
-7.25413e-06
-0.00019059
0.00116493
-0.000251043
-4.68609e-05
0.00113278
-0.0001516
0.000273037
0.00106165
-9.97733e-05
-1.29925e-05
0.00130972
-0.000330914
8.7293e-05
0.00130371
0.000196893
0.000145578
0.00114921
0.000239182
-0.00015944
0.00129369
-5.29448e-05
-0.000135787
0.00138752
0.000278825
0.000113353
0.00130708
5.76567e-05
0.000144594
0.00116602
-0.000132165
8.24725e-05
0.00107182
3.32114e-05
7.84523e-05
0.00103183
-5.15622e-05
-3.65797e-05
0.00129543
-4.82604e-05
-5.18033e-05
0.00135734
0.000296591
6.1723e-05
0.00116849
0.000110455
0.000156809
0.00130032
-0.000497819
7.84541e-05
0.00137434
-0.000134773
5.53724e-05
0.00134698
0.000187298
0.000183108
0.00134599
8.61793e-05
0.000192888
0.00119245
0.000160227
0.000163016
0.00101691
-0.000273429
-0.00015366
0.00103279
-0.000663744
-8.31976e-05
0.00125966
-0.000254915
0.000363925
0.0012824
-0.000118482
0.000417792
0.00111655
-0.000134409
3.25223e-05
0.00105244
-6.42659e-05
0.000109419
0.000978026
-0.000245531
0.000412885
0.0010478
-0.000400966
0.000226984
0.00108964
-0.000369383
0.000140171
-0.000339751
6.41949e-05
0.000687751
-0.000276032
0.000131201
0.000657103
-0.000529388
4.95771e-05
0.000950936
-0.000492706
4.35906e-05
0.00110448
9.52669e-05
0.000105376
0.00102772
0.000190523
-2.88312e-05
0.000885833
0.000461041
-8.97628e-05
0.000892794
4.9118e-06
4.15385e-06
0.000946027
-0.000450532
0.000173975
0.000937971
-0.000124355
6.45811e-05
0.000984975
-8.07766e-05
-0.000253468
0.0010825
-0.000196404
-4.24805e-05
0.0010488
4.09074e-06
0.000115102
0.00104214
-0.000243008
-4.96917e-05
0.00114946
-0.000386831
0.000138764
0.00108348
0.000344761
6.71651e-05
0.00102532
0.000279064
-0.000105183
0.00116715
-5.52714e-05
5.47269e-06
0.00126783
0.000222751
5.05026e-05
0.00123982
2.68658e-06
0.000122804
0.00114897
-0.000121141
0.000134392
0.00109144
9.70461e-05
3.85469e-05
0.00102858
-4.66033e-05
-5.18304e-05
0.0011119
-0.000119076
-6.90618e-05
0.00106083
0.000318184
0.000141633
0.00100941
8.96654e-06
0.000230335
0.00119834
-0.000573806
-1.82753e-05
0.0011075
6.62701e-05
0.000163339
0.00105541
0.000253706
5.39767e-05
0.00113685
-3.49016e-05
0.00014221
0.00108054
0.000125297
0.000262501
0.00100592
-0.000308134
-3.67184e-05
0.00095072
-0.00058056
0.000113237
0.00108282
-0.000355708
0.000463454
0.00105036
-0.000218566
0.000288111
0.000825672
3.80981e-05
1.24041e-05
0.000836797
-8.64972e-05
0.000287027
0.000790858
-0.000274314
0.000166831
0.000670266
-0.000185215
2.09349e-05
0.000745752
-0.000353368
6.7775e-08
-0.000435671
1.95179e-05
0.000668555
-0.000127883
0.000127816
0.000587476
-0.000454169
0.000213958
0.000789481
-0.000663657
0.000250221
0.000880292
-7.07961e-05
2.28571e-05
0.00080837
0.000196255
-2.48604e-05
0.000778964
0.000392893
4.91971e-06
0.000829854
-0.00022629
7.41898e-05
0.000880302
-0.000618739
0.000300705
0.000908908
-0.000208875
6.54944e-05
0.000984832
-0.000143211
-0.000232103
0.00097705
-6.6603e-05
3.82423e-05
0.000872316
0.000160068
9.04162e-05
0.000867721
-0.000241447
-4.98053e-05
0.000961723
-0.000416991
-1.33829e-05
0.000913758
0.000289985
-6.58881e-05
0.000870662
0.000233415
-0.000107711
0.000965623
-8.33145e-05
0.000124461
0.00104573
0.000133426
0.000110584
0.00101787
-6.28363e-05
0.000191446
0.000942111
-0.000253215
0.000183025
0.000982428
-2.99923e-05
1.21911e-05
0.000959172
-0.000124836
2.33245e-05
0.000913446
-6.60933e-05
-0.000149718
0.000949872
0.000346573
-2.03164e-05
0.000983982
-0.000177725
0.000196689
0.00107808
-0.000718924
-1.89027e-05
0.00106464
0.00015251
9.63102e-05
0.00104096
0.000269501
7.82871e-05
0.00108848
-6.56224e-05
0.000116533
0.00105199
-2.60475e-05
0.000168454
0.000926245
-0.000306396
0.00011978
0.000782186
-0.000347954
0.000204344
0.0008892
-0.000403515
0.000124603
0.000873694
-0.000307328
-3.35573e-05
0.00068885
0.000135984
-6.58019e-05
0.000725779
-0.000173055
0.000169874
0.000681482
-0.000380599
8.51809e-05
0.000569221
-3.55209e-05
2.97683e-05
0.000684141
-0.00038953
-8.84944e-06
-0.000625349
3.83147e-05
0.000685457
-1.20368e-05
0.000183649
0.000576177
-0.000414244
0.0001628
0.000629267
-0.000646707
0.000236619
0.000727075
-7.42159e-05
0.000104287
0.000756354
0.0002086
2.59986e-05
0.000842176
0.000278729
-5.32252e-05
0.000830087
-0.00030146
-9.61683e-06
0.000770517
-0.000459215
9.97002e-05
0.00078929
-0.000230898
-7.94885e-05
0.000924595
-0.000299752
-0.000181351
0.000965292
-7.5487e-05
6.29286e-05
0.000816988
0.000298834
-1.50286e-05
0.000864502
-0.000276502
7.60742e-05
0.000903882
-0.000511183
0.000142633
0.000766896
0.000223487
-0.000104959
0.000869875
0.000110854
-9.55657e-05
0.000905424
-6.52743e-05
8.71855e-05
0.000792832
0.000178017
8.43966e-05
0.000791085
-0.000236931
0.000265748
0.000682902
-0.00038157
0.000240128
0.000673715
-9.98991e-05
3.3278e-05
0.000726621
-0.000259769
-2.67887e-05
0.00069719
-5.50477e-05
-5.49517e-05
0.000781683
0.000294147
2.33195e-05
0.000870833
-0.00039294
7.32071e-05
0.00091595
-0.000731399
-0.000130518
0.000925661
0.00027417
-2.19931e-05
0.000964037
0.000186203
0.000197659
0.000966434
1.28675e-06
0.000161771
0.000884583
-4.98017e-05
2.56228e-05
0.000826345
-0.000330838
1.94033e-05
0.000728086
-0.000196627
0.000140208
0.000741423
-0.000325477
6.54103e-05
0.000776033
-0.000264031
-6.27899e-05
0.000705578
0.000251939
1.55009e-05
0.000596357
-3.18048e-05
0.000186006
0.000516443
-0.000497638
0.00019432
0.000553188
-0.000145339
2.68796e-05
0.000697891
-0.000545747
-1.18809e-05
-0.000699723
6.76107e-05
0.000664291
5.13761e-05
0.000286184
0.000565426
-0.000383676
0.00017408
0.00056521
-0.000477408
6.71157e-05
0.000674428
-9.23274e-06
0.000144926
0.000782244
8.9788e-05
2.49859e-05
0.000805703
0.000203732
-2.95849e-05
0.000700938
-0.000271376
-1.85476e-05
0.000647008
-0.000317367
-0.000109566
0.000672683
-0.000199933
-0.000212815
0.000763106
-0.000423761
-4.32879e-05
0.000833469
-3.84285e-05
5.07368e-05
0.00079827
0.000364096
-4.72182e-05
0.000874134
-0.000381418
9.56695e-05
0.000830546
-0.000397945
9.10141e-05
0.000720973
0.000236649
-9.09453e-05
0.000821263
3.10955e-07
-8.42666e-05
0.000821964
3.61447e-05
-5.50746e-05
0.000716286
0.000191096
0.000136482
0.000718928
-0.000413992
0.000322681
0.000644836
-0.000372718
0.000129337
0.0006612
-0.000118752
-9.1763e-06
0.000707234
-0.000360652
-4.13181e-05
0.000686286
-7.72084e-05
-2.71812e-05
0.000703244
0.000265273
0.000102582
0.000754755
-0.000520099
0.000207148
0.000738662
-0.000584512
4.84173e-06
0.00080327
0.000353081
6.88609e-05
0.000873369
8.41812e-05
0.000108114
0.000800516
0.000108488
9.22996e-05
0.000788325
-5.576e-05
-1.52775e-05
0.00074718
-0.000275408
-3.35615e-05
0.00065228
-6.41913e-05
0.000162947
0.000668079
-0.000322194
4.19976e-05
0.000710185
-0.000264945
1.08938e-05
0.000731181
0.000314506
7.34097e-06
0.000687754
5.80351e-05
0.000149458
0.000606181
-0.000555284
0.000148373
0.000565974
-0.000163071
2.13523e-05
0.000627177
-0.000661667
6.33397e-05
-0.000641967
1.18196e-05
0.000629189
7.43413e-05
0.000208925
0.000513937
-0.000290823
0.000127239
0.00050279
-0.000217782
2.61799e-05
0.000638811
2.16682e-06
9.9503e-05
0.000716808
-9.16718e-05
4.667e-05
0.0006687
0.000114103
7.84204e-06
0.00060783
-0.00026477
1.93155e-05
0.000593153
-0.000251638
-6.85258e-05
0.000559834
-6.96204e-05
-0.000131192
0.000582785
-0.000442131
0.00010266
0.000690548
-2.16677e-06
7.37703e-05
0.000759483
0.000265765
1.95062e-05
0.000797974
-0.000384736
6.76507e-05
0.000715548
-0.000239685
-3.72837e-05
0.000647137
0.000225684
-6.80219e-05
0.000712203
-4.69311e-05
-7.42544e-05
0.000750052
0.000109012
-6.8384e-05
0.000715373
0.000166063
0.000143495
0.000601187
-0.000424368
0.00017469
0.00054039
-0.000335878
1.64783e-05
0.000610736
-0.000157637
-6.86658e-05
0.000576876
-0.000429471
3.61991e-05
0.000621285
-9.70348e-05
-5.07004e-05
0.000624552
0.000236003
0.000176145
0.000567915
-0.000463268
0.000163263
0.00061367
-0.000485439
3.88683e-06
0.000745451
0.00029125
0.000194055
0.0008043
2.68861e-05
7.55733e-05
0.000756294
0.000152857
7.74182e-05
0.000774067
-0.000189054
3.87945e-05
0.000666551
-0.000173581
9.06231e-05
0.00063217
6.55485e-05
9.41815e-05
0.000629754
-0.00031808
-8.36206e-06
0.000619657
-0.000286821
0.00014119
0.000646658
0.000341523
0.000119718
0.000595326
0.000110443
0.000147276
0.000553939
-0.000446676
-3.47286e-06
0.000573012
-0.00021589
-2.2401e-05
0.000556988
-0.000706699
-6.97439e-06
-0.000602477
1.58219e-05
0.000466673
0.000107507
0.000199202
0.00042946
-0.000195223
5.39149e-05
0.00056333
-0.000134859
-3.91646e-05
0.000620709
4.61066e-05
-1.02693e-05
0.000561518
-0.000132804
-9.13343e-06
0.000539831
6.83554e-05
-6.90111e-05
0.000557074
-0.000318904
-3.20843e-05
0.000533331
-0.000282246
2.40124e-06
0.000490608
-8.6786e-05
-5.00007e-05
0.000517906
-0.000424759
0.000143413
0.000637567
-2.62116e-05
0.000124013
0.000727214
0.00012915
7.20447e-05
0.000698883
-0.000291077
4.95036e-05
0.000629538
-0.000144091
-8.36162e-06
0.000611394
0.000155491
-2.00801e-06
0.000680067
-9.3341e-05
-3.50062e-05
0.000689914
0.000200851
-6.26996e-05
0.000656226
0.000224457
7.69739e-05
0.000513568
-0.00043417
0.00012031
0.000441661
-0.000457938
9.7337e-05
0.000517217
-0.000204766