/*--------------------------------*- C++ -*----------------------------------*\
  =========                 |
  \\      /  F ield         | OpenFOAM: The Open Source CFD Toolbox
   \\    /   O peration     | Website:  https://openfoam.org
    \\  /    A nd           | Version:  10
     \\/     M anipulation  |
\*---------------------------------------------------------------------------*/
FoamFile
{
    format      ascii;
    class       volScalarField;
    location    "1";
    object      nut;
}
// * * * * * * * * * * * * * * * * * * * * * * * * * * * * * * * * * * * * * //

dimensions      [0 2 -1 0 0 0 0];

internalField   nonuniform List<scalar> 
25600
(
0.000128338
5.45437e-05
1.8295e-05
1.59932e-05
2.07163e-05
7.24371e-05
4.15082e-06
1.06085e-05
8.21736e-06
2.53828e-06
4.61766e-06
2.26829e-05
1.74552e-05
2.33954e-05
2.54171e-05
1.66874e-05
8.50407e-06
2.28825e-06
6.87669e-06
1.15728e-05
2.26674e-05
8.70747e-05
0.000143597
0.000108994
6.76293e-05
3.65306e-05
1.05818e-05
7.37192e-06
1.09737e-05
9.73012e-06
1.14412e-05
2.60669e-05
3.62015e-05
5.40467e-05
5.01534e-06
1.41349e-05
2.19554e-05
2.56512e-05
4.69353e-05
0.000117753
0.000137918
0.000175161
5.386e-05
1.87519e-05
2.43171e-05
3.62632e-05
2.54448e-05
6.18305e-06
6.83347e-06
1.89123e-05
2.24496e-05
2.84524e-05
7.31243e-06
9.95901e-06
2.39635e-05
3.41765e-05
2.41318e-05
1.23984e-05
4.94313e-05
0.000160068
0.000178405
0.000212841
0.000271539
0.000286761
0.000180172
2.57645e-05
1.85879e-05
8.50069e-06
5.93351e-06
4.53564e-05
9.56186e-05
8.01054e-05
1.11837e-05
1.15847e-05
9.56744e-06
2.29988e-05
5.56779e-05
3.9802e-05
6.2872e-06
1.5199e-05
8.69294e-05
8.28278e-05
7.84503e-05
5.35451e-05
2.06517e-05
1.90624e-05
2.72573e-05
3.19106e-05
1.62952e-06
2.39793e-05
1.25308e-05
1.91924e-05
1.2243e-05
2.74165e-05
3.31436e-05
2.95045e-05
2.07881e-05
2.20135e-05
1.48215e-05
1.70444e-05
2.96245e-05
2.58499e-05
2.38142e-05
1.70096e-05
1.11388e-05
1.4532e-05
1.44118e-05
3.21628e-06
1.05286e-06
3.28602e-06
6.78992e-06
9.86007e-06
1.73492e-05
1.95199e-05
1.40867e-05
2.83505e-06
6.12617e-06
2.36533e-05
1.72209e-05
5.73535e-05
7.67273e-05
4.4651e-05
2.39188e-05
2.17803e-05
0.000153315
0.000199525
5.61791e-05
1.13475e-05
9.78776e-06
1.72163e-05
2.82989e-05
4.04276e-05
1.50765e-05
1.60096e-05
3.27395e-05
0.000106486
2.22317e-05
2.13969e-05
6.23728e-05
2.3065e-05
1.66573e-05
2.41519e-05
5.07443e-05
3.77681e-05
2.85654e-05
2.08931e-05
1.61781e-05
9.55087e-06
1.46645e-05
2.10405e-05
2.50479e-05
2.47446e-05
2.17876e-05
1.78556e-05
1.18376e-05
1.46699e-05
1.78194e-05
9.51052e-06
1.29423e-05
5.12721e-05
1.47801e-05
1.51528e-05
4.78358e-06
4.21248e-05
0.000156301
4.49598e-05
5.99295e-06
0.000101116
5.20837e-05
1.88859e-05
0.000154592
0.000190035
0.000108525
9.20152e-06
0.000167073
0.000237727
8.89638e-05
1.33955e-05
1.61502e-05
1.15219e-05
8.34022e-05
0.000121104
8.89874e-05
7.36317e-06
4.80705e-05
1.96311e-05
8.55314e-06
8.18918e-06
1.61818e-05
2.38755e-05
2.41911e-05
1.83849e-05
1.29482e-05
2.05688e-05
2.17961e-05
0.000113293
1.67681e-05
1.7602e-05
6.77664e-06
7.9481e-06
8.86795e-06
3.64147e-06
1.36477e-05
0.000131641
4.53102e-05
7.29814e-06
0.000177418
0.000246705
7.0256e-05
3.2986e-05
0.000112446
0.000151579
5.31688e-05
7.96503e-05
0.000222713
0.000209083
3.50031e-05
2.14048e-05
1.89966e-05
2.88716e-05
6.53287e-05
0.000119918
5.90705e-05
1.72997e-06
4.26372e-05
2.11184e-05
9.01448e-06
1.48299e-05
2.337e-05
2.63285e-05
1.83589e-05
1.43413e-05
2.95594e-05
3.80759e-05
0.000140771
2.58185e-05
2.14493e-05
2.72119e-05
6.49563e-05
3.58292e-05
1.92904e-05
3.17039e-05
6.11951e-05
2.35124e-06
1.00639e-05
2.30624e-05
0.000108155
0.000114835
5.92803e-05
4.02095e-05
0.000101767
0.000102464
1.56022e-05
0.000239755
0.00038145
0.000258569
1.01113e-05
1.93247e-05
2.40154e-05
0.000149885
0.000294096
0.000271456
3.29441e-05
3.21514e-06
4.65395e-05
2.09747e-05
1.47572e-05
1.38057e-05
3.21867e-05
6.85964e-05
2.91204e-05
2.17254e-05
1.45398e-05
0.000179612
7.3175e-06
2.14542e-05
1.93581e-05
2.31984e-05
1.44808e-05
1.26682e-05
7.51084e-05
0.000161731
0.000117108
4.5082e-05
7.7057e-05
5.41773e-05
5.20361e-05
2.08325e-05
2.49139e-05
2.87178e-05
2.24474e-05
2.34221e-05
2.05636e-06
0.000156204
0.000293679
3.79342e-05
5.3308e-05
3.71287e-05
9.6821e-06
6.16274e-05
4.99032e-05
1.88089e-05
1.45059e-05
0.000129687
8.16665e-05
8.28487e-06
1.87303e-05
2.11352e-05
1.93153e-05
6.12482e-05
4.03811e-05
1.95812e-05
0.000129088
0.000150844
2.68849e-05
2.31825e-05
2.59391e-05
1.45373e-05
2.18078e-05
5.70473e-05
1.33894e-05
3.25043e-05
2.26149e-05
3.30723e-05
3.28849e-05
6.0371e-05
3.4159e-05
3.42372e-05
3.15111e-05
2.62396e-05
2.47319e-05
1.35859e-05
6.71617e-06
0.000241843
0.000141568
4.55813e-05
8.97975e-06
4.1043e-05
0.000127599
7.0225e-05
0.000233861
3.5982e-05
9.93047e-06
1.31145e-05
3.14386e-05
1.65443e-05
9.69705e-06
8.70291e-06
4.17343e-05
0.00013266
0.000114897
9.97013e-06
1.70602e-05
5.44242e-05
3.44933e-05
1.64924e-05
2.80319e-05
0.00014311
6.98419e-05
1.283e-05
1.08665e-05
2.26546e-05
1.49662e-05
4.22428e-05
0.000333464
0.000166959
2.64091e-05
2.00725e-05
1.99857e-05
2.51976e-05
1.88006e-05
7.43676e-06
5.8824e-05
4.59104e-05
2.36133e-05
0.000123471
4.70456e-05
0.000242624
0.00030434
0.000184115
2.95124e-06
1.9568e-05
4.26682e-06
7.61639e-05
3.4596e-05
3.31134e-05
6.08006e-05
1.75925e-05
4.24312e-05
0.00010792
7.22212e-05
1.86494e-06
1.75336e-05
2.78433e-05
1.62441e-05
2.6837e-06
0.000150678
0.000133766
2.34035e-05
1.97469e-05
9.81899e-07
1.45498e-05
3.02582e-05
5.83929e-05
9.04046e-05
3.30957e-05
3.35195e-05
2.55719e-05
2.17868e-05
3.40162e-05
2.07399e-05
0.000148386
7.12813e-06
9.1467e-05
0.000165452
0.000200915
1.38167e-05
1.4636e-05
0.000132251
0.000140813
2.39826e-05
3.2681e-07
0.000198271
4.05811e-05
2.33295e-05
1.40655e-05
8.3363e-06
3.25603e-05
0.000136757
0.000124911
4.32036e-05
2.73001e-05
2.85539e-05
4.45568e-05
8.77287e-05
6.23488e-06
0.000212172
0.000167493
0.000147894
0.000110392
2.97055e-05
7.73047e-05
7.23566e-06
2.16273e-05
9.10562e-05
3.87037e-05
2.59297e-05
2.48684e-05
5.21851e-05
2.85185e-06
0.000176808
0.000125053
8.43791e-06
4.62293e-05
7.20276e-05
5.28657e-05
1.73171e-05
6.90207e-05
0.000296593
4.27758e-05
6.38313e-06
9.51253e-05
1.98592e-05
2.39045e-05
0.000108875
6.50443e-05
3.1177e-06
2.80074e-05
3.40453e-05
1.43723e-05
1.77122e-05
3.70655e-05
4.18399e-05
3.26619e-05
9.93559e-06
3.67456e-05
0.000266938
0.00031458
0.000125985
3.01252e-05
0.000120688
8.45989e-05
6.05241e-06
6.91103e-06
0.000119983
8.15054e-06
1.60028e-05
7.84733e-06
2.95981e-05
5.88574e-05
0.000111888
4.61386e-06
1.7551e-05
0.000186446
9.28067e-06
1.56879e-05
1.89185e-05
5.32124e-05
8.73902e-05
1.80611e-05
1.44112e-05
1.32176e-05
1.74218e-05
4.14749e-06
0.00024439
0.000215669
9.73484e-05
8.79324e-06
1.51307e-05
6.83837e-05
1.59694e-05
1.62451e-05
2.04599e-05
1.94841e-05
1.60644e-05
0.000174635
0.000304039
0.000365135
9.99461e-05
1.50916e-05
0.000138477
0.000155926
9.36451e-06
9.97328e-06
4.08762e-05
5.98402e-06
6.6509e-05
6.77328e-06
1.02063e-05
2.81871e-05
1.43912e-05
3.18033e-05
2.23223e-05
5.05021e-06
6.33381e-06
1.80222e-05
2.2686e-05
1.01786e-05
2.15764e-05
2.20216e-05
2.62006e-05
2.77829e-05
1.26875e-05
7.84219e-05
0.000291977
0.000243687
4.93034e-06
1.08016e-05
1.71972e-06
1.5686e-05
1.5539e-05
2.12109e-05
1.57707e-05
1.46834e-05
7.30737e-06
0.000119168
0.000174388
0.000300365
0.000125541
3.38617e-05
3.37101e-05
3.23161e-05
5.14332e-05
2.3263e-05
1.63074e-05
6.7695e-05
7.06277e-05
7.25429e-06
3.08108e-07
1.34407e-05
2.25016e-05
6.18171e-05
0.00021038
3.29829e-05
9.27134e-05
1.60771e-05
2.23648e-05
1.05817e-05
2.10516e-05
2.45814e-06
1.94504e-05
3.16963e-05
1.42318e-05
0.000119662
0.000262073
9.44615e-05
1.23049e-05
4.08031e-06
1.40804e-05
2.04336e-05
7.18151e-06
4.6782e-05
3.75982e-05
1.83378e-05
2.88237e-05
1.05997e-05
0.000139292
0.000100078
0.000120539
8.40105e-06
8.04197e-05
2.24619e-05
3.59256e-05
5.3108e-06
2.13928e-05
1.40868e-05
1.02014e-05
1.16445e-05
4.39342e-06
2.77053e-05
0.000102195
4.12544e-05
7.80907e-06
3.25972e-06
4.79915e-06
1.99136e-05
1.21746e-05
1.59142e-05
5.08729e-05
2.95624e-05
2.80523e-05
2.23255e-05
8.41038e-06
9.17547e-05
0.000206338
7.72919e-05
5.70842e-06
1.12671e-05
1.71259e-05
2.2206e-05
5.76658e-05
0.000265353
3.8146e-05
4.50875e-05
2.29289e-05
1.71671e-05
0.000105265
1.07398e-05
2.99552e-05
2.8091e-05
1.49022e-05
3.68657e-06
1.33513e-07
1.36959e-05
3.12443e-05
7.14461e-06
2.1455e-06
1.14263e-05
2.27801e-05
1.48864e-05
0.000112283
5.93393e-06
1.10594e-05
2.24195e-06
1.29895e-05
2.92031e-05
1.07707e-05
8.07106e-06
3.74122e-05
1.55037e-05
3.04245e-05
2.44228e-05
1.58824e-05
0.000130003
0.000173847
6.95088e-05
7.78209e-06
7.15166e-05
2.36141e-05
7.15474e-06
5.39911e-05
0.000116029
1.85647e-05
9.21008e-05
1.06777e-05
0.000156469
8.15357e-05
2.31186e-05
6.36275e-06
3.5336e-05
4.02258e-05
5.24911e-06
7.33596e-06
1.53052e-05
3.15616e-05
2.30849e-05
1.03612e-06
1.34316e-05
2.80821e-05
2.44209e-05
4.25391e-05
8.39809e-05
1.5793e-05
1.78523e-05
2.58023e-06
4.27303e-05
6.59597e-05
1.60735e-06
2.4914e-06
3.20307e-05
2.71165e-05
2.296e-05
1.44656e-05
0.000183621
5.64118e-05
1.09431e-05
1.3873e-05
7.71459e-05
4.30466e-05
0.000207997
5.45228e-05
3.04605e-05
1.6593e-05
0.000142124
2.60953e-05
0.000179751
9.06597e-05
6.34502e-05
4.70851e-05
3.07298e-05
1.27178e-05
1.62064e-05
5.74867e-06
2.65058e-05
1.05134e-05
1.8151e-05
1.89769e-05
1.85028e-05
1.69155e-05
1.12148e-05
2.09214e-05
5.60359e-05
3.73888e-06
1.95992e-05
2.62374e-05
1.04803e-05
1.01312e-05
8.21612e-07
3.97074e-07
4.62004e-05
1.8139e-05
1.79118e-05
3.30261e-05
5.04426e-05
5.95732e-06
4.59164e-06
5.49139e-06
9.24786e-05
4.56971e-05
0.00011836
1.10226e-05
3.2787e-05
1.63847e-05
0.000120012
1.26811e-06
8.27465e-05
4.67683e-05
5.46084e-05
3.29425e-05
1.05097e-05
2.01561e-06
6.58218e-05
3.04059e-06
2.00827e-05
3.39453e-05
2.70801e-05
1.25317e-05
2.90203e-05
1.39826e-05
4.02814e-06
2.79832e-05
2.98385e-05
6.86501e-06
6.32537e-06
1.89032e-05
3.06678e-07
1.88812e-05
3.10864e-05
6.98573e-05
2.77234e-05
3.25137e-05
7.01486e-06
3.69803e-06
5.46441e-06
3.08067e-06
1.18587e-06
5.68389e-05
5.95709e-05
2.61762e-05
6.53418e-05
1.58407e-05
2.94748e-05
7.71682e-06
5.20603e-05
1.36715e-05
2.31093e-05
6.38635e-05
3.16981e-06
3.26082e-05
7.87756e-06
2.52801e-06
1.43127e-05
3.21707e-06
3.48666e-05
2.18902e-05
1.47704e-05
1.47219e-06
1.89495e-05
6.65867e-06
3.7382e-07
2.66224e-05
2.17294e-05
1.77414e-05
6.34555e-05
7.02404e-06
3.02722e-06
3.33905e-05
1.81484e-05
2.03457e-05
1.68901e-05
1.54167e-05
2.52385e-05
2.44197e-06
4.69988e-06
2.15689e-05
1.05787e-05
7.37339e-05
2.71044e-06
2.06118e-07
3.28772e-05
2.36182e-05
1.70531e-05
1.02006e-05
2.95828e-05
2.31382e-05
4.8981e-05
6.60087e-05
5.20933e-07
1.70073e-05
2.8886e-05
4.6457e-06
7.28846e-06
4.3515e-06
2.97481e-05
9.72711e-06
3.20398e-05
1.00663e-06
6.47921e-06
2.35206e-05
1.08604e-05
2.38939e-05
4.44797e-06
2.52428e-05
5.61261e-05
2.7369e-05
9.33248e-06
7.03849e-06
2.61426e-05
2.0788e-05
1.12242e-05
1.70132e-06
1.7585e-05
1.48771e-05
2.36813e-05
2.04125e-05
4.01223e-06
2.9971e-05
1.57586e-05
6.19065e-06
3.96739e-05
1.47086e-05
1.66893e-05
9.97419e-06
1.63298e-05
1.53544e-05
4.46557e-05
3.13184e-05
1.3747e-06
2.17067e-05
5.8852e-05
4.51313e-08
7.67953e-06
2.31448e-05
3.07435e-05
1.59672e-05
3.36764e-05
2.20937e-06
1.43206e-05
9.78202e-06
5.55355e-05
8.63887e-06
5.0387e-06
5.82e-05
9.25728e-05
6.71062e-05
1.95717e-05
2.57956e-05
3.26345e-05
1.09294e-05
8.52121e-06
1.75528e-05
2.68079e-05
4.61144e-05
3.22526e-06
3.22432e-06
2.07299e-05
5.56052e-05
1.32353e-05
2.5847e-05
1.55835e-05
2.06545e-05
1.92396e-05
6.57209e-06
1.74593e-05
1.05457e-05
2.12427e-05
3.25182e-05
1.89666e-05
9.69712e-06
2.05605e-06
8.99476e-08
3.65328e-06
1.18726e-05
9.69413e-05
5.04915e-05
1.57247e-05
2.21356e-06
3.75705e-05
1.62394e-05
5.14757e-06
1.88174e-06
3.08814e-06
5.90042e-05
0.000108342
5.92786e-05
7.09061e-06
4.97527e-05
4.35804e-05
7.53099e-06
3.14086e-05
1.41359e-05
1.85616e-05
1.26767e-06
1.49674e-05
6.04104e-06
2.23268e-06
9.40949e-05
5.75447e-06
1.82616e-05
1.51207e-05
1.79699e-05
3.47131e-05
1.15553e-05
1.9557e-05
1.39485e-05
4.25142e-06
2.67018e-05
1.2542e-05
8.53175e-07
1.94856e-07
2.59653e-07
7.3963e-07
6.18295e-06
1.88533e-05
9.9645e-05
6.27197e-08
2.7805e-06
1.21397e-05
0.000106746
4.13199e-06
4.26041e-07
2.15109e-06
6.44334e-05
0.000129062
7.10629e-05
1.39565e-05
6.40265e-05
3.73493e-05
4.26956e-06
1.48312e-05
8.21474e-06
2.80757e-05
9.42037e-06
3.87726e-06
4.83235e-05
1.29491e-06
7.59431e-05
3.5843e-06
1.51238e-06
2.2647e-05
7.4701e-06
6.80905e-06
3.67342e-05
1.63345e-06
7.72912e-06
9.19897e-07
2.46293e-05
4.26874e-06
1.30332e-07
6.54559e-07
5.04439e-08
1.18666e-06
4.56357e-05
9.69879e-06
9.80816e-07
8.01741e-09
1.23364e-06
4.25442e-05
4.27403e-05
1.4482e-06
3.88505e-07
5.12749e-07
2.27349e-05
7.42335e-07
3.93462e-06
1.11052e-05
5.87707e-05
3.04414e-06
1.97906e-06
1.78442e-07
9.45364e-05
2.11133e-05
1.22026e-05
4.98943e-07
2.72679e-05
3.31119e-05
3.67942e-06
7.02902e-06
2.1515e-07
1.06202e-06
1.14546e-06
7.61949e-06
4.53069e-05
6.8097e-07
3.49754e-06
2.72515e-06
7.94688e-06
5.94509e-06
3.07217e-06
1.05897e-05
3.2067e-06
2.52611e-05
7.53844e-06
6.24129e-05
7.71344e-08
2.41824e-08
1.62465e-05
3.72129e-05
2.27455e-06
5.10376e-07
3.4129e-07
8.40995e-08
1.14012e-07
1.03428e-08
2.0492e-06
5.01063e-06
2.60949e-05
2.85267e-07
7.40086e-06
8.83727e-05
5.72947e-05
1.24284e-05
3.5092e-06
1.45005e-08
1.43946e-05
5.5378e-06
1.94434e-06
1.09306e-07
6.33287e-06
4.76877e-08
1.36693e-06
7.84577e-05
1.44861e-05
1.39883e-05
8.92166e-07
1.57551e-06
6.46601e-06
5.76095e-06
7.58539e-07
3.93674e-07
6.5875e-06
4.9105e-05
5.82381e-05
6.72569e-07
1.3039e-08
1.13239e-05
1.06366e-05
5.35347e-06
2.2672e-07
6.82796e-07
1.193e-07
4.33554e-07
4.63855e-08
1.22474e-06
3.77335e-06
5.61915e-06
1.83281e-06
7.87717e-06
3.62648e-05
3.28384e-05
2.26288e-05
2.87762e-06
1.6342e-07
1.26541e-07
4.25617e-07
4.97376e-07
1.21e-05
4.36699e-07
4.66934e-07
2.81476e-08
5.34535e-06
5.56336e-05
1.28298e-06
6.04438e-05
7.01401e-06
2.36106e-06
4.18897e-06
3.56373e-07
1.08642e-07
3.3503e-07
4.93996e-06
2.08156e-06
3.66443e-07
7.6594e-08
1.98003e-08
2.10631e-06
1.6697e-06
1.20935e-07
1.9536e-07
1.15141e-06
1.49585e-07
3.54548e-06
1.01488e-06
1.19493e-05
7.39554e-07
4.94814e-07
4.19141e-07
4.19241e-05
6.42154e-05
2.18641e-05
1.22833e-06
2.03925e-07
6.62086e-09
6.54388e-07
4.34489e-09
5.9471e-08
1.47967e-06
1.6344e-06
1.08602e-07
3.58082e-08
2.47772e-06
5.6098e-06
2.71736e-06
8.92159e-06
4.2278e-06
1.61022e-06
9.49011e-07
2.50541e-08
3.37855e-07
4.91499e-07
3.87753e-07
5.19765e-10
2.15342e-08
8.39154e-09
8.15491e-09
6.60973e-08
1.04868e-07
7.6826e-08
3.65303e-07
3.43214e-07
1.60046e-06
2.42282e-06
1.35919e-06
1.6446e-06
4.94311e-08
9.4278e-10
6.39535e-07
1.08564e-06
1.45799e-07
1.60344e-07
1.54097e-07
2.5841e-08
1.05786e-08
2.00146e-09
2.01466e-09
1.32111e-08
3.24851e-08
3.03523e-08
5.53352e-08
7.10621e-08
3.58552e-06
2.00775e-06
2.19491e-06
7.22671e-06
1.12424e-06
5.87629e-07
7.01307e-08
1.25748e-07
1.28748e-07
1.55546e-07
2.01034e-08
3.78206e-10
5.47505e-09
1.57264e-08
7.78485e-09
1.32604e-08
5.70345e-08
1.2151e-07
2.28903e-07
3.79642e-09
6.76511e-07
6.4529e-07
6.78154e-08
2.90224e-10
2.86637e-09
3.45627e-09
5.53129e-08
3.44649e-09
2.16921e-08
2.79238e-08
2.57606e-08
1.55083e-09
1.60569e-10
1.58998e-10
3.90955e-10
1.6883e-10
4.011e-10
3.11862e-08
1.84754e-08
4.64206e-07
1.21067e-06
7.3432e-08
1.0629e-06
9.22875e-07
3.25783e-07
1.28688e-07
4.23058e-09
3.07825e-08
2.16734e-08
1.42017e-08
1.8136e-09
1.03341e-10
1.81635e-09
2.07374e-09
3.44584e-10
1.68317e-09
1.76363e-08
2.56678e-08
2.60313e-08
3.96455e-10
5.15744e-08
4.47648e-08
1.09972e-10
1.31038e-10
1.52491e-10
4.04866e-10
1.56718e-09
1.83233e-10
8.41864e-10
1.21873e-09
2.37077e-09
6.74357e-10
2.15103e-11
4.1706e-11
1.96903e-10
3.26192e-11
5.15686e-11
7.00495e-09
8.26189e-10
6.20488e-08
8.56797e-08
4.11879e-11
2.60448e-08
5.02018e-08
4.35604e-08
2.63156e-08
1.81102e-09
1.58644e-09
1.644e-09
6.11579e-10
0.000102719
3.1071e-05
1.20847e-05
9.93594e-06
4.78279e-06
1.70238e-06
4.01467e-06
2.4399e-05
1.52324e-05
9.11366e-06
4.52341e-06
3.7104e-06
9.29504e-06
1.08626e-05
5.03941e-05
0.000103521
4.2294e-05
4.97988e-06
3.55025e-06
7.60262e-06
5.73949e-06
3.87091e-05
0.000104093
8.81521e-05
3.79568e-05
1.19171e-05
4.9018e-05
3.66941e-05
1.45995e-05
8.72566e-06
7.05963e-06
3.18581e-05
3.66899e-05
9.52066e-06
1.6364e-06
1.2271e-05
2.78292e-05
1.76784e-05
1.62596e-05
2.9151e-05
1.58751e-05
4.04551e-05
5.99322e-05
2.69438e-05
2.6176e-05
2.39186e-05
4.25254e-05
7.78012e-05
5.54426e-05
1.54613e-05
9.44566e-06
2.65257e-05
7.33703e-05
1.66032e-05
1.05344e-05
3.19992e-05
3.69262e-05
2.86807e-05
5.8409e-06
0.000179755
0.000249086
0.000292552
0.000309945
0.0002461
5.09453e-05
2.27168e-05
2.36467e-05
1.92908e-05
3.19108e-05
3.10714e-05
8.74347e-06
8.03126e-06
1.38517e-05
1.41519e-05
5.42252e-06
1.0323e-05
5.46618e-05
0.000156733
0.00012997
9.52049e-06
2.99695e-05
7.83359e-05
8.21667e-05
5.37409e-05
2.02081e-05
2.82971e-05
3.12221e-05
6.27123e-06
2.20679e-06
3.18438e-05
1.55479e-05
7.63376e-06
1.96707e-05
1.7586e-05
3.91336e-05
5.4037e-05
3.10056e-05
2.18141e-05
1.90207e-05
3.81095e-05
4.26789e-05
2.35876e-05
2.37049e-05
3.33752e-06
9.7688e-06
1.92912e-05
3.35427e-06
2.52271e-05
9.84286e-06
3.55364e-06
1.9416e-05
2.69566e-05
2.48353e-05
1.8659e-05
1.7813e-05
1.74818e-05
2.38277e-05
4.49784e-05
8.72923e-05
6.7645e-05
0.000152956
0.000128028
5.72028e-05
4.90907e-05
4.1187e-05
1.78419e-05
4.84815e-06
1.01495e-05
7.62437e-05
3.26461e-05
1.02423e-05
1.16007e-05
1.77803e-05
3.48284e-05
6.12759e-05
0.000223362
0.00029599
0.000150308
0.000113765
0.000103461
1.10793e-05
3.88669e-05
5.93758e-05
2.61609e-05
1.21929e-05
1.15899e-05
5.42325e-05
2.94266e-05
1.60406e-05
2.04215e-05
2.66336e-05
2.9661e-05
2.78124e-05
2.1179e-05
2.0161e-05
1.60579e-05
8.1522e-06
3.6213e-05
6.74951e-05
0.000107083
6.41705e-06
7.72109e-06
5.70835e-06
8.66071e-05
0.000155544
3.02622e-05
1.23748e-05
3.89777e-05
9.01043e-05
6.50733e-05
2.70927e-05
3.8276e-05
3.54169e-05
1.1047e-05
0.000243176
0.000375846
0.000351507
0.00010354
1.82871e-05
0.000165579
0.000186664
0.000104658
8.75891e-06
6.51067e-05
5.04793e-05
2.42225e-05
1.13412e-05
3.77476e-07
6.183e-06
1.10149e-05
6.61789e-06
1.39214e-05
3.97346e-05
1.19077e-05
5.14278e-06
1.05072e-05
1.24798e-05
1.51207e-05
2.42377e-05
1.2838e-05
8.28723e-05
5.12038e-05
0.000152821
0.000295687
0.000178049
3.04577e-05
8.50133e-05
0.000234702
2.54799e-05
1.93257e-05
1.94751e-05
1.94209e-05
1.22877e-05
1.20523e-05
0.000211763
0.000337734
0.000186553
2.50174e-05
1.34092e-05
3.20454e-05
4.71308e-05
4.31856e-05
1.94794e-05
4.81733e-06
2.64797e-05
2.66025e-05
1.31445e-05
5.3069e-06
5.99664e-06
2.72923e-05
0.000150456
0.000173071
1.36506e-05
7.92829e-05
0.000163185
2.55074e-05
1.52719e-05
9.79709e-05
0.000184249
0.000125752
2.45368e-05
7.09589e-05
0.000191261
0.000179564
5.00614e-05
1.81519e-05
5.70433e-05
3.27326e-05
1.13991e-05
8.95048e-06
1.87055e-06
7.78758e-06
4.67981e-06
2.29721e-06
0.00014978
0.000192639
3.57155e-05
2.11579e-05
6.16308e-05
0.000211906
0.000109746
7.82901e-06
3.47159e-05
8.11283e-05
8.79602e-05
1.74432e-05
8.5584e-06
2.32195e-05
0.000202072
0.000235919
8.01958e-05
8.19861e-06
2.72118e-05
0.000289529
6.42109e-05
2.09849e-05
1.54335e-05
5.96209e-05
1.53192e-05
2.48274e-05
1.89299e-05
4.18206e-05
0.000145804
1.37415e-05
1.34407e-05
2.1173e-05
9.17394e-06
8.73966e-06
4.78994e-06
7.73896e-08
1.75873e-07
3.01612e-06
5.57942e-06
1.15658e-05
1.90497e-05
3.11803e-06
1.47963e-06
1.28094e-05
1.45778e-05
0.000241121
5.21819e-05
1.72287e-05
8.31517e-07
7.41016e-06
2.96291e-05
3.66625e-06
3.38903e-05
4.88639e-05
2.40512e-05
4.9494e-06
2.13751e-05
4.26964e-05
3.39423e-05
7.47311e-05
8.25759e-05
4.51802e-05
3.75528e-05
1.11308e-05
4.41884e-06
9.52383e-06
0.000148775
0.000176904
7.81791e-06
1.10574e-05
1.25543e-05
0.000141197
1.32433e-05
2.5057e-05
2.63108e-05
1.93687e-05
2.06875e-05
1.71098e-05
1.9607e-07
4.77547e-05
5.02536e-05
2.82674e-05
4.88455e-05
3.83083e-05
0.000295817
8.84108e-05
4.74624e-05
5.28434e-06
1.04456e-05
1.27262e-05
2.40214e-05
1.13305e-05
2.31805e-05
9.23764e-06
8.14013e-06
1.25539e-05
1.78139e-05
2.14459e-05
2.19706e-05
0.000146067
0.000138292
3.30952e-05
3.14115e-05
1.57813e-05
1.44984e-05
4.48311e-05
5.18794e-05
7.62434e-06
2.15572e-05
1.7595e-05
7.41171e-05
5.18968e-06
2.46538e-05
3.77611e-05
4.75636e-05
3.30144e-05
4.02757e-05
3.75279e-05
2.00331e-05
2.99831e-05
2.8477e-05
1.41055e-05
7.51123e-05
0.000116788
0.000118445
2.45507e-05
2.24105e-05
3.92847e-05
2.81797e-05
1.91366e-05
1.26871e-05
0.000145542
2.31223e-06
6.31648e-06
2.4227e-06
1.28729e-05
2.67943e-05
1.57473e-05
0.000161294
0.000172649
1.62357e-05
1.96812e-05
3.37459e-05
0.000101464
9.61776e-05
0.000116315
2.77427e-05
2.38418e-05
9.85989e-06
2.13163e-05
3.86794e-05
8.1567e-05
0.0001479
0.000200586
4.4525e-05
5.13693e-06
3.69032e-05
0.000102016
1.21062e-05
2.59483e-05
1.96043e-05
7.45562e-05
3.48931e-05
9.08657e-05
8.43548e-05
2.30763e-05
2.54987e-05
3.384e-05
0.000166991
9.60224e-06
2.81981e-05
1.25424e-05
2.40242e-05
8.91083e-06
3.18552e-05
1.67099e-05
5.49868e-06
8.34159e-06
2.64217e-05
9.24579e-05
0.000207012
1.91898e-06
6.44096e-05
5.45102e-05
3.34466e-05
2.24835e-05
1.45885e-05
1.20326e-05
3.09392e-05
7.29868e-06
0.0001646
0.000204089
0.000163037
2.20755e-05
2.25006e-05
4.77935e-05
5.76734e-05
0.000120267
4.59653e-05
2.46655e-05
0.000165187
0.000106945
1.52877e-05
2.71595e-05
8.38192e-06
9.71765e-06
2.16198e-05
7.75444e-05
3.73396e-05
4.8167e-05
5.91238e-05
1.42815e-05
7.08702e-06
1.17572e-05
1.7577e-05
4.10248e-06
1.71085e-05
2.02532e-05
1.10824e-05
4.56153e-05
6.42224e-05
1.49611e-05
9.46054e-06
1.71386e-05
5.45423e-06
1.64268e-05
2.87273e-05
2.1111e-05
3.99375e-06
2.76906e-06
0.000164118
1.0478e-06
6.58735e-06
3.82491e-06
1.5394e-05
2.61029e-05
7.23496e-05
1.99601e-05
6.75638e-05
3.98852e-05
0.000170237
0.000194787
2.93224e-05
6.35375e-05
1.12879e-05
2.59852e-05
5.77603e-05
7.19585e-05
3.78214e-05
8.15177e-05
6.67424e-05
1.33927e-05
3.81677e-05
5.84598e-05
4.20073e-05
1.23126e-05
2.57686e-05
2.33051e-05
3.31509e-05
1.45274e-05
1.76089e-05
2.40458e-05
1.90198e-05
4.03325e-05
5.06261e-05
7.14898e-06
2.24015e-05
1.71582e-05
1.28122e-06
3.53315e-05
5.09651e-05
3.5368e-06
3.05991e-05
2.56627e-05
2.25395e-06
1.46882e-05
5.11572e-05
1.31656e-05
3.18973e-05
1.89155e-05
1.65401e-05
3.22945e-05
6.16034e-05
0.00011544
1.98656e-05
9.95356e-06
0.000110638
6.17797e-05
1.41609e-05
0.000187343
0.000108025
1.23688e-05
5.04339e-05
1.41053e-05
1.34406e-05
1.65317e-05
2.55781e-05
2.08935e-05
4.22699e-05
3.55991e-05
8.13426e-05
4.83861e-05
3.30825e-05
3.25734e-05
3.28054e-05
4.30982e-06
8.01244e-05
0.00013897
7.67302e-06
4.67184e-06
6.45105e-05
6.09688e-06
0.000108468
9.63074e-05
3.46047e-05
4.87091e-05
4.71942e-05
0.000156641
2.17157e-05
2.25624e-05
4.59119e-05
6.33396e-05
4.17613e-05
7.89962e-05
7.65872e-05
0.000230824
0.000220613
1.91364e-05
3.47329e-05
0.000258536
0.000263622
1.02458e-05
2.38958e-05
1.26907e-05
9.33504e-06
1.73625e-05
1.81832e-05
2.30494e-05
2.6014e-05
5.57743e-05
0.000134849
3.48565e-05
4.84381e-05
2.6122e-05
1.03118e-05
8.93501e-06
0.000107565
6.66586e-06
1.50417e-06
5.5446e-06
5.82677e-05
1.30167e-05
0.000165358
4.8027e-05
2.68166e-05
1.96143e-05
1.94205e-05
0.000137684
2.98158e-05
2.76812e-05
6.7467e-05
2.40596e-05
3.51958e-05
2.07182e-05
2.55207e-05
9.43029e-05
8.76685e-05
1.74122e-05
5.1843e-05
0.000255845
0.000238084
7.62066e-06
2.10116e-05
2.17495e-05
3.08757e-05
5.80225e-06
2.4814e-06
1.18777e-05
2.07313e-05
7.04594e-05
9.76742e-05
4.42086e-05
3.64891e-05
9.71807e-06
8.12708e-06
2.30344e-06
5.43615e-05
9.61401e-06
7.23351e-06
1.57606e-05
2.26156e-05
9.30397e-06
3.79557e-05
6.17515e-06
2.24253e-05
3.09386e-05
2.33284e-05
4.34051e-06
1.64166e-05
8.74699e-05
6.44259e-06
4.68538e-06
2.81628e-05
1.89675e-05
1.50374e-05
4.9627e-06
8.40077e-06
1.87372e-05
5.73781e-05
0.00014577
5.15975e-05
2.31988e-05
2.63578e-05
1.12983e-05
2.01925e-05
7.5952e-05
7.82254e-06
2.25688e-05
1.52013e-05
1.03681e-05
1.56847e-05
2.17003e-05
4.5093e-06
1.20065e-05
3.74608e-05
2.9926e-05
4.10081e-05
4.82589e-06
2.00752e-05
1.72055e-05
1.51705e-05
0.000107563
2.32162e-05
1.12436e-05
3.07273e-05
1.54991e-05
3.70257e-05
2.99519e-06
2.95781e-05
2.06002e-05
5.80933e-06
4.51471e-06
1.93861e-05
1.06495e-05
2.49982e-05
9.49255e-06
1.15084e-05
4.63709e-05
3.7769e-05
8.8444e-06
8.93576e-06
3.32874e-05
4.05156e-05
4.30103e-05
2.14898e-05
0.000120454
1.1777e-05
2.85528e-05
1.46927e-05
1.21589e-05
1.97624e-05
1.1367e-05
4.44854e-06
2.98981e-05
0.000120407
0.000114356
3.7249e-05
2.16762e-06
6.74228e-06
2.17413e-05
2.16902e-05
0.00018573
1.05557e-05
1.50094e-05
4.14566e-06
2.59988e-05
5.81198e-05
7.58964e-06
1.47971e-05
1.66715e-05
1.55194e-05
8.27616e-06
4.5227e-06
4.50994e-05
2.50279e-05
3.59208e-06
3.9243e-05
0.000106917
4.99797e-06
1.43449e-06
3.25926e-06
3.95647e-05
4.19109e-06
4.55493e-05
2.57853e-05
4.95827e-05
1.82001e-05
1.17972e-05
1.28943e-05
1.16253e-05
1.41154e-05
2.06843e-06
1.12896e-05
1.75833e-05
3.85222e-05
9.49323e-05
9.8465e-06
4.31508e-06
8.81437e-06
3.7079e-05
3.9586e-05
0.000166017
7.69422e-06
2.00096e-05
8.59779e-06
3.08252e-05
4.10101e-05
3.50268e-06
2.57968e-05
1.63268e-05
1.45267e-05
9.10511e-06
1.46975e-05
1.14748e-05
1.70566e-05
2.32993e-05
0.000124613
0.000144759
5.58851e-06
1.8133e-06
1.26661e-05
5.37925e-05
6.54794e-06
6.86256e-06
2.09807e-05
1.25525e-05
2.42519e-05
1.38131e-05
1.76824e-05
2.09018e-05
1.13469e-05
7.13138e-06
1.89408e-05
4.69841e-06
1.51442e-05
2.48475e-05
1.91324e-05
3.36313e-06
6.65772e-06
3.00777e-05
5.6463e-05
0.000122557
4.36043e-05
1.56855e-05
4.16665e-05
7.79462e-06
1.1637e-05
5.1876e-06
0.000112908
1.7903e-05
1.51758e-05
1.64319e-05
7.60299e-06
5.86459e-06
2.77419e-06
8.46669e-05
0.000153513
0.000113421
1.6149e-05
3.24428e-05
3.52474e-05
7.28309e-05
8.55083e-05
1.38029e-06
2.67839e-05
7.67009e-06
1.04428e-05
1.1784e-05
1.06861e-05
3.88602e-05
4.65576e-05
1.85445e-05
1.74726e-05
7.02698e-06
1.1715e-05
1.74916e-05
2.0054e-05
1.31666e-05
1.73592e-05
1.30059e-05
1.15994e-05
7.02139e-05
6.18945e-06
4.36272e-06
2.24773e-05
1.72503e-05
1.15962e-05
1.41524e-05
0.000120828
4.65577e-05
4.32002e-05
3.81386e-05
8.93044e-06
2.62479e-05
2.13708e-06
3.4762e-05
4.64665e-05
3.65016e-05
7.69777e-06
8.45336e-05
1.41792e-05
7.48344e-05
0.000115944
4.88759e-06
2.52497e-05
6.04633e-05
1.14544e-05
2.29715e-05
6.93853e-05
6.05999e-05
4.16655e-05
5.55209e-05
2.98425e-05
2.77741e-05
1.82075e-05
1.13277e-05
3.63023e-05
7.14962e-06
2.26807e-05
1.29354e-05
1.66135e-05
4.52485e-05
4.48233e-07
4.98905e-06
1.29169e-05
4.87081e-05
2.37212e-05
1.57881e-05
4.80292e-06
4.50024e-06
2.05557e-05
1.85685e-05
2.19929e-05
5.30386e-06
1.71473e-06
5.20823e-05
1.6901e-05
1.5226e-05
3.19312e-06
2.18788e-05
1.31048e-06
8.96898e-05
0.00013356
1.91223e-05
1.98037e-05
9.87001e-05
1.03068e-05
1.99712e-05
6.64787e-05
7.95498e-05
3.99546e-05
2.04402e-06
4.84637e-05
1.91109e-05
5.50476e-06
7.87338e-06
1.36099e-06
7.63764e-06
1.93738e-05
3.16778e-06
3.35494e-05
7.17368e-06
4.75141e-07
1.70909e-05
2.22511e-05
1.24979e-05
2.15564e-05
2.22277e-06
1.06374e-06
1.47497e-07
3.41577e-06
7.7413e-06
5.38496e-06
2.63839e-06
3.95978e-05
2.77389e-05
8.16741e-05
7.01992e-05
1.12559e-05
9.30612e-06
2.27529e-05
8.01469e-05
0.000128379
2.99386e-05
9.5499e-06
5.82385e-05
4.58523e-06
1.1462e-05
6.18227e-05
6.65501e-05
3.05181e-05
2.88409e-05
8.68057e-05
1.81412e-05
1.23726e-05
1.37905e-05
3.14224e-06
1.18782e-06
5.99468e-06
1.26981e-06
3.72838e-05
8.45392e-06
4.62142e-07
7.43749e-06
4.23046e-05
6.90373e-06
7.92441e-06
9.42077e-07
1.11393e-06
6.38008e-07
1.60377e-05
5.96312e-06
2.09642e-06
1.0587e-05
2.9371e-05
6.46919e-05
0.000151696
1.96235e-06
1.48038e-06
4.97099e-06
6.21749e-05
7.65859e-05
4.96928e-05
2.86472e-05
1.26982e-05
4.27366e-05
1.65449e-06
7.07291e-06
0.00013375
9.11632e-05
1.62767e-05
8.99542e-05
0.000103215
3.00475e-05
2.14469e-05
1.64388e-05
3.28854e-06
2.72413e-06
6.77318e-06
2.65495e-06
1.04699e-05
1.66928e-06
1.2524e-05
4.76492e-05
3.8922e-07
2.95051e-06
1.54663e-06
8.32406e-06
1.29586e-05
1.49964e-05
7.82184e-06
1.1687e-06
4.35919e-07
2.11827e-05
4.26101e-05
1.90413e-05
1.39503e-05
2.71529e-07
3.28408e-06
1.18785e-05
3.06256e-05
5.08575e-05
1.41251e-06
4.29765e-05
8.47885e-06
4.68346e-06
1.80423e-06
4.7793e-06
0.00013693
0.000117024
3.22996e-06
0.000138272
5.35191e-05
6.3512e-06
1.20892e-05
2.85166e-06
1.81297e-06
5.67859e-06
2.97181e-06
5.44851e-06
1.75057e-06
4.19852e-08
1.42423e-05
1.44424e-07
3.02429e-07
9.90112e-07
2.06442e-06
5.11059e-05
4.47666e-05
7.37586e-06
9.51352e-07
6.56865e-07
1.59975e-07
1.04417e-05
1.01439e-05
1.98558e-05
4.35751e-07
4.66978e-07
2.02201e-05
0.000143142
5.49492e-06
3.45695e-06
4.95576e-07
5.32732e-05
2.48697e-05
2.36602e-06
3.50899e-06
5.20776e-06
3.03299e-05
1.8052e-06
3.63623e-05
0.000132015
2.91445e-06
3.47661e-06
3.47965e-07
1.03841e-07
1.03567e-08
1.31597e-06
1.22239e-06
8.50847e-07
2.34839e-07
1.88167e-07
1.62918e-07
4.39856e-08
9.89037e-08
1.97991e-07
3.34737e-05
8.92751e-05
6.46281e-05
1.23502e-06
3.72032e-07
1.62014e-07
5.65203e-07
2.45477e-06
1.3528e-06
1.36061e-07
1.69249e-07
3.02899e-06
5.17808e-06
6.05834e-06
2.54065e-06
1.91276e-07
6.99196e-07
3.33072e-06
9.68569e-06
1.98381e-06
1.37199e-06
8.20504e-05
7.98557e-05
7.73679e-05
0.000119828
6.00704e-06
1.50103e-07
5.70521e-08
4.7656e-07
6.31809e-08
1.05942e-08
1.5097e-07
1.04364e-07
1.76308e-07
4.15822e-08
1.65186e-08
6.82477e-09
1.55028e-08
5.31352e-09
4.93318e-06
2.68173e-05
2.2492e-05
1.6041e-06
1.04879e-07
8.67756e-08
3.04767e-07
5.38433e-07
2.76843e-08
4.58382e-08
1.10166e-07
7.55527e-07
6.79314e-06
3.98077e-06
3.03312e-08
8.06699e-07
4.82646e-08
6.901e-06
5.02011e-05
1.95908e-08
1.62471e-06
1.11263e-06
0.000130676
9.67306e-05
0.000121727
2.74713e-05
4.15973e-07
3.33286e-07
5.59861e-07
5.49773e-07
4.21516e-08
3.45211e-08
1.30584e-08
5.22084e-08
9.26026e-08
2.61501e-08
2.72568e-09
3.52168e-09
6.46867e-09
6.75964e-07
5.1423e-06
1.36115e-06
5.27492e-08
3.69917e-08
3.26266e-08
6.62056e-09
7.3974e-07
1.23283e-07
1.53095e-08
4.74114e-08
5.38388e-07
1.01319e-06
5.22896e-07
9.60116e-08
1.00469e-07
1.87219e-07