/*--------------------------------*- C++ -*----------------------------------*\
  =========                 |
  \\      /  F ield         | OpenFOAM: The Open Source CFD Toolbox
   \\    /   O peration     | Website:  https://openfoam.org
    \\  /    A nd           | Version:  10
     \\/     M anipulation  |
\*---------------------------------------------------------------------------*/
FoamFile
{
    format      ascii;
    class       volTensorField;
    location    "42.5";
    object      TauNN;
}
// * * * * * * * * * * * * * * * * * * * * * * * * * * * * * * * * * * * * * //

dimensions      [0 2 -2 0 0 0 0];

internalField   nonuniform List<tensor> 
25600
(
(0.00147461 -0.0129771 -0.0151372 -0.0129771 0.000159528 -0.00815054 -0.0151372 -0.00815054 0.000115905)
(0.00146999 -0.0129788 -0.0151388 -0.0129788 0.000160351 -0.00815156 -0.0151388 -0.00815156 0.000115863)
(0.00146296 -0.0129809 -0.0151386 -0.0129809 0.000161112 -0.00815299 -0.0151386 -0.00815299 0.000114585)
(0.00148305 -0.0129777 -0.0151363 -0.0129777 0.000159175 -0.00815076 -0.0151363 -0.00815076 0.000116691)
(0.00148273 -0.0129764 -0.0151364 -0.0129764 0.000159084 -0.00815013 -0.0151364 -0.00815013 0.000116084)
(0.00148068 -0.0129719 -0.0151352 -0.0129719 0.000156911 -0.00814698 -0.0151352 -0.00814698 0.000118905)
(0.00149939 -0.0129788 -0.0151318 -0.0129788 0.00015835 -0.00815141 -0.0151318 -0.00815141 0.000116096)
(0.00149664 -0.0129755 -0.0151332 -0.0129755 0.000157419 -0.00814919 -0.0151332 -0.00814919 0.000117982)
(0.00146829 -0.0129796 -0.015137 -0.0129796 0.000160398 -0.00815219 -0.015137 -0.00815219 0.000114675)
(0.00148716 -0.0129836 -0.0151333 -0.0129836 0.000160573 -0.00815471 -0.0151333 -0.00815471 0.000112555)
(0.00147843 -0.0129803 -0.0151361 -0.0129803 0.000160312 -0.00815259 -0.0151361 -0.00815259 0.000114276)
(0.00143935 -0.0129782 -0.0151451 -0.0129782 0.000162198 -0.00815161 -0.0151451 -0.00815161 0.000115317)
(0.0014677 -0.0129803 -0.0151387 -0.0129803 0.000160899 -0.0081526 -0.0151387 -0.0081526 0.000114947)
(0.00144684 -0.0129752 -0.0151449 -0.0129752 0.00016127 -0.00814974 -0.0151449 -0.00814974 0.000115793)
(0.00140926 -0.0129743 -0.0151515 -0.0129743 0.000163197 -0.00814966 -0.0151515 -0.00814966 0.000115731)
(0.00148163 -0.0129809 -0.0151349 -0.0129809 0.000160075 -0.00815289 -0.0151349 -0.00815289 0.000114597)
(0.00148322 -0.012977 -0.0151364 -0.012977 0.000159249 -0.00815048 -0.0151364 -0.00815048 0.000115767)
(0.00141476 -0.0129622 -0.0151576 -0.0129622 0.000160036 -0.00814188 -0.0151576 -0.00814188 0.000119962)
(0.00148854 -0.0129748 -0.0151313 -0.0129748 0.000156915 -0.00814881 -0.0151313 -0.00814881 0.000117913)
(0.00148335 -0.0129811 -0.0151349 -0.0129811 0.000159956 -0.00815292 -0.0151349 -0.00815292 0.000115159)
(0.00149613 -0.0129816 -0.0151335 -0.0129816 0.000159805 -0.00815333 -0.0151335 -0.00815333 0.000114338)
(0.00149757 -0.0129756 -0.015133 -0.0129756 0.000157539 -0.00814935 -0.015133 -0.00814935 0.000117398)
(0.00138289 -0.0129705 -0.0151619 -0.0129705 0.000164884 -0.00814767 -0.0151619 -0.00814767 0.000116362)
(0.00143596 -0.0129849 -0.0151381 -0.0129849 0.000162165 -0.00815539 -0.0151381 -0.00815539 0.000113525)
(0.00143936 -0.0129849 -0.0151381 -0.0129849 0.000162152 -0.00815545 -0.0151381 -0.00815545 0.000113511)
(0.00148122 -0.012983 -0.0151354 -0.012983 0.000160807 -0.00815425 -0.0151354 -0.00815425 0.000113663)
(0.0015026 -0.0129794 -0.0151318 -0.0129794 0.000158695 -0.0081519 -0.0151318 -0.0081519 0.000115015)
(0.00146943 -0.0129729 -0.0151388 -0.0129729 0.000158655 -0.00814805 -0.0151388 -0.00814805 0.000117152)
(0.00146545 -0.012975 -0.0151392 -0.012975 0.000159208 -0.00814916 -0.0151392 -0.00814916 0.00011753)
(0.00148759 -0.0129804 -0.0151343 -0.0129804 0.000159627 -0.00815249 -0.0151343 -0.00815249 0.000115234)
(0.00148225 -0.012979 -0.0151359 -0.012979 0.000159883 -0.00815181 -0.0151359 -0.00815181 0.000114507)
(0.00132049 -0.012957 -0.0151866 -0.012957 0.000166959 -0.00814002 -0.0151866 -0.00814002 0.000118914)
(0.00147943 -0.0129723 -0.0151316 -0.0129723 0.000156281 -0.00814728 -0.0151316 -0.00814728 0.000118583)
(0.00148543 -0.012981 -0.0151348 -0.012981 0.000159901 -0.00815287 -0.0151348 -0.00815287 0.000115131)
(0.00149587 -0.0129774 -0.0151333 -0.0129774 0.00015829 -0.00815054 -0.0151333 -0.00815054 0.000116555)
(0.00145217 -0.0129688 -0.0151449 -0.0129688 0.000158733 -0.00814552 -0.0151449 -0.00814552 0.000118904)
(0.00144385 -0.0129822 -0.0151394 -0.0129822 0.000161849 -0.0081538 -0.0151394 -0.0081538 0.000114128)
(0.00145456 -0.0129837 -0.0151384 -0.0129837 0.000161796 -0.00815467 -0.0151384 -0.00815467 0.000113973)
(0.00148057 -0.0129815 -0.0151358 -0.0129815 0.000160516 -0.00815334 -0.0151358 -0.00815334 0.00011411)
(0.00149283 -0.0129798 -0.0151341 -0.0129798 0.000159399 -0.00815215 -0.0151341 -0.00815215 0.000115171)
(7.06395e-05 -0.0128005 -0.0154257 -0.0128005 2.89535e-05 -0.00813067 -0.0154257 -0.00813067 5.4253e-05)
(6.88656e-05 -0.0128018 -0.0154258 -0.0128018 2.67282e-05 -0.00812691 -0.0154258 -0.00812691 5.59931e-05)
(8.32765e-05 -0.0128048 -0.0154224 -0.0128048 3.45777e-05 -0.00813296 -0.0154224 -0.00813296 6.19078e-05)
(0.000153782 -0.0128263 -0.0154244 -0.0128263 0.000111769 -0.00814686 -0.0154244 -0.00814686 3.46032e-05)
(6.01012e-05 -0.0127961 -0.0154253 -0.0127961 2.73641e-05 -0.0081323 -0.0154253 -0.0081323 5.9324e-05)
(0.000237604 -0.0128462 -0.0154218 -0.0128462 0.000128218 -0.00814665 -0.0154218 -0.00814665 3.76304e-05)
(-2.2474e-05 -0.0128373 -0.0154225 -0.0128373 0.000112209 -0.00811474 -0.0154225 -0.00811474 8.69619e-05)
(0.000198105 -0.012829 -0.0154329 -0.012829 0.000118553 -0.00814416 -0.0154329 -0.00814416 3.18631e-05)
(4.16786e-05 -0.0127964 -0.0154284 -0.0127964 4.29047e-05 -0.00811057 -0.0154284 -0.00811057 7.93718e-05)
(0.000376576 -0.0128583 -0.0153178 -0.0128583 9.98598e-05 -0.00812473 -0.0153178 -0.00812473 0.000105753)
(-0.000131733 -0.0128284 -0.0154605 -0.0128284 8.8164e-05 -0.00810414 -0.0154605 -0.00810414 8.06929e-05)
(8.71717e-05 -0.0128084 -0.0154229 -0.0128084 4.50686e-05 -0.00813649 -0.0154229 -0.00813649 5.09843e-05)
(4.41432e-05 -0.0128018 -0.0154367 -0.0128018 3.12122e-05 -0.00811647 -0.0154367 -0.00811647 6.217e-05)
(0.000318809 -0.0128414 -0.0154241 -0.0128414 0.000126304 -0.00814476 -0.0154241 -0.00814476 3.43302e-05)
(6.7219e-05 -0.0127971 -0.0154208 -0.0127971 3.1185e-05 -0.00811425 -0.0154208 -0.00811425 7.32735e-05)
(5.85531e-05 -0.0128002 -0.0154298 -0.0128002 3.1632e-05 -0.00811611 -0.0154298 -0.00811611 6.48217e-05)
(0.000117577 -0.0127988 -0.0154246 -0.0127988 8.11697e-05 -0.00814595 -0.0154246 -0.00814595 4.56299e-05)
(0.00043278 -0.0128522 -0.0154313 -0.0128522 0.000124216 -0.00814251 -0.0154313 -0.00814251 2.73473e-05)
(8.14622e-05 -0.0127955 -0.0154186 -0.0127955 2.79522e-05 -0.00812282 -0.0154186 -0.00812282 6.04382e-05)
(-8.86563e-05 -0.0128191 -0.0154554 -0.0128191 8.97936e-05 -0.00810948 -0.0154554 -0.00810948 7.72474e-05)
(-3.70603e-05 -0.0128427 -0.015414 -0.0128427 0.000110929 -0.00811528 -0.015414 -0.00811528 8.98119e-05)
(0.000349762 -0.0128363 -0.0154368 -0.0128363 0.000119753 -0.00814215 -0.0154368 -0.00814215 2.55036e-05)
(0.000689498 -0.0128706 -0.0154282 -0.0128706 0.000119681 -0.00814713 -0.0154282 -0.00814713 4.82757e-05)
(0.000174355 -0.0128474 -0.0154038 -0.0128474 9.6777e-05 -0.00810965 -0.0154038 -0.00810965 9.19406e-05)
(0.000501222 -0.0128687 -0.01528 -0.0128687 9.14042e-05 -0.00813001 -0.01528 -0.00813001 0.000114765)
(-9.33239e-05 -0.0128402 -0.0154361 -0.0128402 0.000106152 -0.00811051 -0.0154361 -0.00811051 8.57018e-05)
(-1.21521e-05 -0.0128056 -0.0154484 -0.0128056 4.26461e-05 -0.00811486 -0.0154484 -0.00811486 6.57206e-05)
(-8.0631e-05 -0.0128246 -0.0154592 -0.0128246 8.21257e-05 -0.0081066 -0.0154592 -0.0081066 7.4429e-05)
(-2.48513e-05 -0.0128085 -0.0154493 -0.0128085 7.22083e-05 -0.00811121 -0.0154493 -0.00811121 6.93563e-05)
(-2.58785e-05 -0.0128077 -0.015449 -0.0128077 6.33437e-05 -0.00811221 -0.015449 -0.00811221 6.93328e-05)
(0.000245074 -0.0128202 -0.0154205 -0.0128202 0.000121284 -0.0081448 -0.0154205 -0.0081448 4.31556e-05)
(0.000814216 -0.0128684 -0.0154295 -0.0128684 0.000115386 -0.00814505 -0.0154295 -0.00814505 5.725e-05)
(0.000113913 -0.012811 -0.01541 -0.012811 3.80966e-05 -0.00813818 -0.01541 -0.00813818 6.20218e-05)
(3.77474e-05 -0.0127979 -0.0154321 -0.0127979 3.10201e-05 -0.00811723 -0.0154321 -0.00811723 6.41036e-05)
(0.000190925 -0.0128209 -0.0154281 -0.0128209 0.000116303 -0.00814519 -0.0154281 -0.00814519 3.18173e-05)
(0.000169955 -0.0128316 -0.0154199 -0.0128316 0.000124746 -0.00815072 -0.0154199 -0.00815072 3.89307e-05)
(-6.84632e-05 -0.012823 -0.0154597 -0.012823 9.49002e-05 -0.00809952 -0.0154597 -0.00809952 8.57092e-05)
(-7.4955e-05 -0.0128277 -0.0154601 -0.0128277 9.30273e-05 -0.00810678 -0.0154601 -0.00810678 7.86221e-05)
(-5.17793e-06 -0.0128087 -0.0154504 -0.0128087 5.78663e-05 -0.00811025 -0.0154504 -0.00811025 7.06711e-05)
(4.76231e-05 -0.0127976 -0.0154334 -0.0127976 2.30191e-05 -0.0081219 -0.0154334 -0.0081219 5.7701e-05)
(7.99039e-05 -0.0128029 -0.0154234 -0.0128029 4.0011e-05 -0.00813851 -0.0154234 -0.00813851 5.29288e-05)
(-7.98068e-06 -0.0128036 -0.015445 -0.0128036 5.19619e-05 -0.00810866 -0.015445 -0.00810866 7.87684e-05)
(3.18047e-05 -0.0127962 -0.0154301 -0.0127962 2.8011e-05 -0.00811554 -0.0154301 -0.00811554 8.06256e-05)
(0.000198358 -0.0128338 -0.0154267 -0.0128338 0.000124656 -0.00814772 -0.0154267 -0.00814772 3.1444e-05)
(2.59384e-05 -0.0127959 -0.0154342 -0.0127959 2.74788e-05 -0.00811645 -0.0154342 -0.00811645 7.03478e-05)
(0.000147901 -0.0128317 -0.0154037 -0.0128317 0.000107153 -0.00814879 -0.0154037 -0.00814879 7.6898e-05)
(-0.000133867 -0.0128249 -0.0154529 -0.0128249 0.00010159 -0.00811003 -0.0154529 -0.00811003 7.95583e-05)
(0.000306754 -0.0128432 -0.0154451 -0.0128432 0.000120631 -0.00814273 -0.0154451 -0.00814273 3.00922e-05)
(9.74143e-05 -0.0128066 -0.0154132 -0.0128066 5.11606e-05 -0.00814836 -0.0154132 -0.00814836 6.55701e-05)
(9.09741e-05 -0.0128068 -0.0154165 -0.0128068 5.05377e-05 -0.00814869 -0.0154165 -0.00814869 7.86398e-05)
(-6.64311e-05 -0.0128131 -0.0154536 -0.0128131 5.63392e-05 -0.00810615 -0.0154536 -0.00810615 8.16839e-05)
(-0.000166243 -0.0128293 -0.0154512 -0.0128293 0.000104517 -0.00810669 -0.0154512 -0.00810669 8.22028e-05)
(-9.4095e-05 -0.0128182 -0.0154571 -0.0128182 7.78679e-05 -0.00810745 -0.0154571 -0.00810745 7.62668e-05)
(0.000191099 -0.0128261 -0.0154112 -0.0128261 0.000125292 -0.0081485 -0.0154112 -0.0081485 5.37651e-05)
(0.00044388 -0.0128614 -0.0153083 -0.0128614 0.000110485 -0.00812708 -0.0153083 -0.00812708 0.00010358)
(5.42797e-05 -0.0127956 -0.0154216 -0.0127956 2.24011e-05 -0.00812557 -0.0154216 -0.00812557 6.16636e-05)
(6.86041e-05 -0.0127859 -0.0154299 -0.0127859 3.62599e-05 -0.00813905 -0.0154299 -0.00813905 4.61305e-05)
(-0.000145852 -0.0128202 -0.0154525 -0.0128202 9.95754e-05 -0.00811049 -0.0154525 -0.00811049 8.02475e-05)
(0.000113957 -0.012843 -0.0154209 -0.012843 0.000122763 -0.00815272 -0.0154209 -0.00815272 3.75469e-05)
(3.5303e-05 -0.0127933 -0.0154245 -0.0127933 3.4694e-05 -0.00811853 -0.0154245 -0.00811853 6.83418e-05)
(-7.42464e-05 -0.0128142 -0.0154537 -0.0128142 6.21861e-05 -0.00811077 -0.0154537 -0.00811077 7.22716e-05)
(0.000590054 -0.0128549 -0.0154448 -0.0128549 0.000111184 -0.00813921 -0.0154448 -0.00813921 2.84056e-05)
(9.88995e-05 -0.0127982 -0.0154074 -0.0127982 2.82684e-05 -0.00812642 -0.0154074 -0.00812642 9.90212e-05)
(0.000111683 -0.0128292 -0.0154136 -0.0128292 8.52563e-05 -0.00815681 -0.0154136 -0.00815681 6.06012e-05)
(0.00028766 -0.0128515 -0.0153483 -0.0128515 0.000112094 -0.00812066 -0.0153483 -0.00812066 9.81665e-05)
(-4.45633e-05 -0.0128085 -0.015451 -0.0128085 5.41088e-05 -0.00811034 -0.015451 -0.00811034 7.14141e-05)
(0.000286588 -0.0128372 -0.0154341 -0.0128372 0.000120448 -0.00814322 -0.0154341 -0.00814322 2.85749e-05)
(0.000450128 -0.0128667 -0.0152913 -0.0128667 9.62171e-05 -0.00812985 -0.0152913 -0.00812985 0.000113262)
(0.000349614 -0.012863 -0.0153186 -0.012863 9.97935e-05 -0.0081264 -0.0153186 -0.0081264 0.000108453)
(6.16973e-05 -0.0127943 -0.015424 -0.0127943 3.0335e-05 -0.00813675 -0.015424 -0.00813675 5.95183e-05)
(0.000618749 -0.0128564 -0.0154321 -0.0128564 0.000116987 -0.00813953 -0.0154321 -0.00813953 3.80518e-05)
(-9.14748e-05 -0.0128161 -0.0154552 -0.0128161 8.50551e-05 -0.00811255 -0.0154552 -0.00811255 7.27247e-05)
(0.000136262 -0.0128109 -0.0154027 -0.0128109 3.84177e-05 -0.0081383 -0.0154027 -0.0081383 9.30881e-05)
(0.000111518 -0.0128153 -0.0154206 -0.0128153 9.0753e-05 -0.00815187 -0.0154206 -0.00815187 4.80787e-05)
(0.000534833 -0.0128539 -0.0154485 -0.0128539 0.000114973 -0.00814026 -0.0154485 -0.00814026 2.86218e-05)
(5.14335e-05 -0.012794 -0.0154215 -0.012794 3.11344e-05 -0.0081143 -0.0154215 -0.0081143 7.28159e-05)
(2.88188e-06 -0.0128024 -0.0154404 -0.0128024 6.6978e-05 -0.00809939 -0.0154404 -0.00809939 9.69667e-05)
(-7.1262e-05 -0.0128124 -0.0154537 -0.0128124 7.44397e-05 -0.00810717 -0.0154537 -0.00810717 7.551e-05)
(6.40101e-05 -0.0127983 -0.0154264 -0.0127983 4.01818e-05 -0.00814012 -0.0154264 -0.00814012 4.26506e-05)
(0.000124095 -0.0128139 -0.0154214 -0.0128139 8.85684e-05 -0.00814466 -0.0154214 -0.00814466 4.50378e-05)
(0.000117602 -0.0128188 -0.0154229 -0.0128188 0.000100417 -0.00815048 -0.0154229 -0.00815048 3.99893e-05)
(1.2436e-05 -0.0127942 -0.0154303 -0.0127942 3.58518e-05 -0.00811408 -0.0154303 -0.00811408 8.0357e-05)
(2.71396e-05 -0.0127934 -0.0154288 -0.0127934 2.55741e-05 -0.00811851 -0.0154288 -0.00811851 8.73809e-05)
(0.000119981 -0.012816 -0.0154198 -0.012816 9.69533e-05 -0.00815262 -0.0154198 -0.00815262 4.86342e-05)
(-2.25989e-05 -0.0128021 -0.0154441 -0.0128021 4.92135e-05 -0.00810978 -0.0154441 -0.00810978 7.87463e-05)
(0.000113117 -0.012808 -0.0154121 -0.012808 3.64235e-05 -0.0081345 -0.0154121 -0.0081345 9.98911e-05)
(-4.11903e-05 -0.0128106 -0.0154514 -0.0128106 6.65184e-05 -0.00810734 -0.0154514 -0.00810734 8.01e-05)
(0.000144598 -0.0128149 -0.0154292 -0.0128149 0.000105973 -0.00814201 -0.0154292 -0.00814201 3.05718e-05)
(0.000136406 -0.012843 -0.0154234 -0.012843 0.00013062 -0.00815164 -0.0154234 -0.00815164 3.48728e-05)
(0.000273866 -0.0128458 -0.0154194 -0.0128458 0.000131359 -0.00814514 -0.0154194 -0.00814514 3.80914e-05)
(0.000103041 -0.0128017 -0.015421 -0.0128017 7.30998e-05 -0.00815148 -0.015421 -0.00815148 6.24197e-05)
(0.0002189 -0.0128464 -0.0153672 -0.0128464 0.000111255 -0.00811855 -0.0153672 -0.00811855 9.62323e-05)
(-0.000168774 -0.0128261 -0.015458 -0.0128261 9.18415e-05 -0.00810542 -0.015458 -0.00810542 7.9646e-05)
(5.43927e-05 -0.0127913 -0.0154134 -0.0127913 2.89412e-05 -0.00812447 -0.0154134 -0.00812447 9.74327e-05)
(0.000242336 -0.0128452 -0.0153727 -0.0128452 0.000110628 -0.00811691 -0.0153727 -0.00811691 9.34462e-05)
(-2.79853e-05 -0.012805 -0.0154438 -0.012805 4.67878e-05 -0.00810766 -0.0154438 -0.00810766 7.72643e-05)
(5.55885e-05 -0.0127865 -0.0154297 -0.0127865 3.3539e-05 -0.00813776 -0.0154297 -0.00813776 4.00301e-05)
(0.000260939 -0.0128512 -0.0153592 -0.0128512 0.000118443 -0.00812461 -0.0153592 -0.00812461 9.84382e-05)
(0.000259133 -0.012852 -0.015424 -0.012852 0.00013023 -0.00814597 -0.015424 -0.00814597 3.37678e-05)
(9.56002e-05 -0.0128092 -0.0154168 -0.0128092 4.25225e-05 -0.00814153 -0.0154168 -0.00814153 5.50432e-05)
(7.51911e-05 -0.0127861 -0.0154278 -0.0127861 4.04125e-05 -0.00814364 -0.0154278 -0.00814364 6.57191e-05)
(0.000218149 -0.0128187 -0.0154302 -0.0128187 0.000118048 -0.00814421 -0.0154302 -0.00814421 3.16237e-05)
(0.000584879 -0.0128676 -0.0152894 -0.0128676 0.000118115 -0.00813339 -0.0152894 -0.00813339 0.000104628)
(0.000185056 -0.0128552 -0.0154208 -0.0128552 0.000136658 -0.00814783 -0.0154208 -0.00814783 3.49368e-05)
(-0.000180417 -0.0128195 -0.015457 -0.0128195 0.000106217 -0.00810164 -0.015457 -0.00810164 8.62132e-05)
(8.7172e-05 -0.0127872 -0.0154277 -0.0127872 5.29519e-05 -0.00814679 -0.0154277 -0.00814679 6.31658e-05)
(0.000534234 -0.0128551 -0.0154432 -0.0128551 0.000113036 -0.00814061 -0.0154432 -0.00814061 2.74104e-05)
(1.92276e-05 -0.0128386 -0.0154263 -0.0128386 0.000106144 -0.00811231 -0.0154263 -0.00811231 8.7494e-05)
(0.000250972 -0.0128631 -0.0153288 -0.0128631 0.000101438 -0.00812416 -0.0153288 -0.00812416 0.00010851)
(8.07364e-05 -0.0127874 -0.015429 -0.0127874 3.83705e-05 -0.00814442 -0.015429 -0.00814442 9.81524e-05)
(0.000365458 -0.0128368 -0.0154292 -0.0128368 0.00012603 -0.00814279 -0.0154292 -0.00814279 2.82007e-05)
(0.000609133 -0.0128666 -0.0152745 -0.0128666 0.000104607 -0.00814039 -0.0152745 -0.00814039 0.000122466)
(0.000106516 -0.0128029 -0.0154156 -0.0128029 3.35469e-05 -0.00811968 -0.0154156 -0.00811968 0.000106963)
(0.000192413 -0.0128234 -0.0154174 -0.0128234 0.000122168 -0.008149 -0.0154174 -0.008149 4.41177e-05)
(0.000473174 -0.0128485 -0.0154451 -0.0128485 0.00011876 -0.00814021 -0.0154451 -0.00814021 2.68745e-05)
(2.89292e-05 -0.0128006 -0.0154358 -0.0128006 5.61056e-05 -0.00810934 -0.0154358 -0.00810934 8.14582e-05)
(0.000122553 -0.0128152 -0.0154048 -0.0128152 6.82047e-05 -0.00815653 -0.0154048 -0.00815653 0.000113494)
(9.81754e-05 -0.0128141 -0.0154211 -0.0128141 7.97542e-05 -0.00815316 -0.0154211 -0.00815316 5.65823e-05)
(0.000156712 -0.0128215 -0.0154271 -0.0128215 0.000118979 -0.008148 -0.0154271 -0.008148 3.16367e-05)
(0.000131305 -0.0128171 -0.015419 -0.0128171 9.86498e-05 -0.00814814 -0.015419 -0.00814814 4.80443e-05)
(8.78944e-05 -0.0128124 -0.0154269 -0.0128124 8.52467e-05 -0.00814953 -0.0154269 -0.00814953 3.77707e-05)
(3.66419e-05 -0.0127881 -0.0154172 -0.0127881 2.58685e-05 -0.00812196 -0.0154172 -0.00812196 7.99745e-05)
(8.89622e-05 -0.0127952 -0.0154212 -0.0127952 5.10557e-05 -0.00814891 -0.0154212 -0.00814891 8.51745e-05)
(7.22221e-05 -0.0127963 -0.0154169 -0.0127963 3.58296e-05 -0.00814147 -0.0154169 -0.00814147 7.95991e-05)
(-9.54055e-05 -0.0128095 -0.0154521 -0.0128095 7.49826e-05 -0.00810632 -0.0154521 -0.00810632 8.24767e-05)
(-5.73049e-05 -0.012809 -0.0154525 -0.012809 8.11698e-05 -0.00810192 -0.0154525 -0.00810192 8.94643e-05)
(2.57707e-05 -0.0128002 -0.0154353 -0.0128002 3.61442e-05 -0.00811104 -0.0154353 -0.00811104 8.16929e-05)
(-4.22878e-06 -0.0127989 -0.0154434 -0.0127989 2.87535e-05 -0.00812241 -0.0154434 -0.00812241 4.67056e-05)
(0.000111173 -0.0128315 -0.0154184 -0.0128315 9.82105e-05 -0.00815073 -0.0154184 -0.00815073 4.74085e-05)
(7.94773e-05 -0.0127973 -0.0154126 -0.0127973 2.86785e-05 -0.00813298 -0.0154126 -0.00813298 8.72877e-05)
(0.0001853 -0.0128332 -0.0154182 -0.0128332 0.000125194 -0.00814863 -0.0154182 -0.00814863 3.99395e-05)
(0.000185655 -0.0128393 -0.0153903 -0.0128393 0.000111422 -0.00811353 -0.0153903 -0.00811353 9.00715e-05)
(-0.000189446 -0.0128286 -0.015459 -0.0128286 9.59021e-05 -0.00810262 -0.015459 -0.00810262 8.23599e-05)
(-1.25926e-05 -0.0128349 -0.0154192 -0.0128349 0.000114252 -0.00810762 -0.0154192 -0.00810762 8.78683e-05)
(6.06412e-05 -0.0127917 -0.0154161 -0.0127917 3.19194e-05 -0.00811979 -0.0154161 -0.00811979 7.49151e-05)
(-0.000174784 -0.0128263 -0.0154578 -0.0128263 9.24578e-05 -0.00810534 -0.0154578 -0.00810534 7.83945e-05)
(4.21587e-05 -0.0127868 -0.015433 -0.0127868 2.719e-05 -0.00813332 -0.015433 -0.00813332 3.14818e-05)
(-0.000158068 -0.0128275 -0.0154512 -0.0128275 0.000103682 -0.00811136 -0.0154512 -0.00811136 8.0332e-05)
(8.69749e-05 -0.0128015 -0.0154149 -0.0128015 3.41485e-05 -0.00813784 -0.0154149 -0.00813784 7.75642e-05)
(0.000102068 -0.0128111 -0.0154154 -0.0128111 4.0608e-05 -0.00813929 -0.0154154 -0.00813929 5.73487e-05)
(0.000158388 -0.0128043 -0.0154134 -0.0128043 0.000109605 -0.00814895 -0.0154134 -0.00814895 6.4891e-05)
(4.8503e-05 -0.0127923 -0.0154284 -0.0127923 2.19057e-05 -0.00812478 -0.0154284 -0.00812478 7.0598e-05)
(0.000390328 -0.0128475 -0.0153502 -0.0128475 0.000110968 -0.00812458 -0.0153502 -0.00812458 0.000100024)
(0.00010618 -0.0128244 -0.0154159 -0.0128244 7.12304e-05 -0.00814863 -0.0154159 -0.00814863 5.89563e-05)
(-7.78187e-05 -0.0128053 -0.0154457 -0.0128053 7.22627e-05 -0.00810179 -0.0154457 -0.00810179 9.18274e-05)
(6.17938e-05 -0.0127793 -0.0154334 -0.0127793 2.69069e-05 -0.0081376 -0.0154334 -0.0081376 7.89489e-05)
(0.00015049 -0.0128327 -0.0154244 -0.0128327 0.000115886 -0.00814775 -0.0154244 -0.00814775 3.59748e-05)
(0.000104669 -0.0128274 -0.0154199 -0.0128274 8.25795e-05 -0.00815068 -0.0154199 -0.00815068 4.48793e-05)
(-2.29307e-06 -0.0128007 -0.0154397 -0.0128007 3.752e-05 -0.00811232 -0.0154397 -0.00811232 7.04163e-05)
(-0.000217439 -0.0128299 -0.0154696 -0.0128299 9.73443e-05 -0.00809495 -0.0154696 -0.00809495 9.0711e-05)
(-5.92412e-06 -0.0128011 -0.015441 -0.0128011 3.66527e-05 -0.0081263 -0.015441 -0.0081263 4.6302e-05)
(3.3663e-05 -0.0128367 -0.015437 -0.0128367 0.000114189 -0.00812629 -0.015437 -0.00812629 7.90763e-05)
(1.36308e-05 -0.0128022 -0.0154375 -0.0128022 4.62325e-05 -0.00810591 -0.0154375 -0.00810591 9.95892e-05)
(0.000105593 -0.0127976 -0.0154221 -0.0127976 6.59614e-05 -0.00815021 -0.0154221 -0.00815021 7.3476e-05)
(7.57794e-05 -0.0128013 -0.0154255 -0.0128013 6.38886e-05 -0.00815052 -0.0154255 -0.00815052 4.78421e-05)
(4.84463e-05 -0.0127943 -0.0154214 -0.0127943 4.26427e-05 -0.00811421 -0.0154214 -0.00811421 8.81257e-05)
(8.98446e-05 -0.0127985 -0.0154096 -0.0127985 4.15532e-05 -0.00814602 -0.0154096 -0.00814602 0.000107817)
(0.000381434 -0.012848 -0.0154258 -0.012848 0.000131345 -0.00814377 -0.0154258 -0.00814377 3.50178e-05)
(0.00020402 -0.0128332 -0.0154291 -0.0128332 0.000127701 -0.0081476 -0.0154291 -0.0081476 2.92983e-05)
(0.000102785 -0.0128095 -0.0154187 -0.0128095 7.9508e-05 -0.00815109 -0.0154187 -0.00815109 6.2817e-05)
(2.86494e-05 -0.0127901 -0.0154308 -0.0127901 2.98926e-05 -0.00813022 -0.0154308 -0.00813022 4.92706e-05)
(2.37697e-05 -0.012789 -0.0154177 -0.012789 2.98859e-05 -0.00811777 -0.0154177 -0.00811777 9.21587e-05)
(0.000129905 -0.0128039 -0.0154144 -0.0128039 9.27702e-05 -0.008152 -0.0154144 -0.008152 7.22277e-05)
(6.10925e-05 -0.0127926 -0.015415 -0.0127926 2.59544e-05 -0.00812227 -0.015415 -0.00812227 8.76425e-05)
(-8.28696e-05 -0.0128091 -0.0154539 -0.0128091 8.07607e-05 -0.0081024 -0.0154539 -0.0081024 8.67549e-05)
(0.000166193 -0.0128349 -0.015401 -0.0128349 0.000107935 -0.00811366 -0.015401 -0.00811366 8.97062e-05)
(4.51265e-05 -0.012797 -0.0154273 -0.012797 2.71665e-05 -0.00811671 -0.0154273 -0.00811671 8.51759e-05)
(-0.000126972 -0.0128277 -0.0154562 -0.0128277 8.15956e-05 -0.00811801 -0.0154562 -0.00811801 6.17288e-05)
(-1.25535e-05 -0.0128069 -0.0154487 -0.0128069 7.56601e-05 -0.00810988 -0.0154487 -0.00810988 8.44677e-05)
(-0.000142597 -0.0128168 -0.0154586 -0.0128168 9.21e-05 -0.00810067 -0.0154586 -0.00810067 8.69102e-05)
(0.000169951 -0.0128324 -0.0154086 -0.0128324 0.000124066 -0.00814862 -0.0154086 -0.00814862 5.54542e-05)
(-9.02269e-05 -0.0128147 -0.0154573 -0.0128147 9.85967e-05 -0.00809955 -0.0154573 -0.00809955 8.56993e-05)
(-0.000170438 -0.0128272 -0.0154599 -0.0128272 9.32111e-05 -0.00810216 -0.0154599 -0.00810216 8.21214e-05)
(-0.000147994 -0.0128335 -0.0154387 -0.0128335 0.000110011 -0.00810337 -0.0154387 -0.00810337 8.77245e-05)
(0.000104643 -0.0128202 -0.0154195 -0.0128202 8.9279e-05 -0.00815313 -0.0154195 -0.00815313 5.03067e-05)
(-4.81325e-05 -0.0128063 -0.0154456 -0.0128063 4.79224e-05 -0.00811128 -0.0154456 -0.00811128 7.17122e-05)
(2.02295e-05 -0.0127932 -0.0154415 -0.0127932 2.33503e-05 -0.00813119 -0.0154415 -0.00813119 3.6616e-05)
(2.19964e-05 -0.0127974 -0.0154349 -0.0127974 3.19923e-05 -0.00811872 -0.0154349 -0.00811872 6.63228e-05)
(-7.44769e-05 -0.0128265 -0.0154454 -0.0128265 0.000104462 -0.008108 -0.0154454 -0.008108 8.45283e-05)
(8.59059e-05 -0.0128036 -0.0154167 -0.0128036 3.29287e-05 -0.00813616 -0.0154167 -0.00813616 6.16667e-05)
(0.000284985 -0.012824 -0.0154096 -0.012824 0.000127005 -0.00814137 -0.0154096 -0.00814137 5.86434e-05)
(-5.44813e-05 -0.0128047 -0.0154448 -0.0128047 5.65033e-05 -0.008108 -0.0154448 -0.008108 8.51588e-05)
(1.44315e-05 -0.0127931 -0.015431 -0.0127931 4.15015e-05 -0.00811706 -0.015431 -0.00811706 7.78639e-05)
(8.40128e-05 -0.0127914 -0.0154121 -0.0127914 3.24578e-05 -0.00811501 -0.0154121 -0.00811501 9.07527e-05)
(9.65935e-05 -0.0128173 -0.0154156 -0.0128173 7.19629e-05 -0.00815469 -0.0154156 -0.00815469 7.18617e-05)
(-2.43551e-05 -0.0128023 -0.0154473 -0.0128023 3.52278e-05 -0.00811087 -0.0154473 -0.00811087 8.28491e-05)
(3.29541e-05 -0.0127953 -0.0154321 -0.0127953 2.50839e-05 -0.00811886 -0.0154321 -0.00811886 6.31372e-05)
(0.000128967 -0.0128481 -0.0154267 -0.0128481 0.00013106 -0.00815119 -0.0154267 -0.00815119 3.25358e-05)
(0.000238364 -0.0128429 -0.015424 -0.0128429 0.00013315 -0.00814669 -0.015424 -0.00814669 3.17574e-05)
(-0.000216918 -0.0128385 -0.0154442 -0.0128385 0.000109062 -0.00810728 -0.0154442 -0.00810728 8.36522e-05)
(-9.75431e-05 -0.0128596 -0.0154008 -0.0128596 0.000129739 -0.0081293 -0.0154008 -0.0081293 8.10244e-05)
(3.74272e-05 -0.0127971 -0.0154317 -0.0127971 4.09869e-05 -0.00811403 -0.0154317 -0.00811403 7.71505e-05)
(-7.09822e-05 -0.0128135 -0.0154592 -0.0128135 7.67495e-05 -0.00809796 -0.0154592 -0.00809796 9.38757e-05)
(3.46595e-05 -0.0127917 -0.015429 -0.0127917 2.34702e-05 -0.00812242 -0.015429 -0.00812242 8.51932e-05)
(-0.000153431 -0.0128313 -0.0154485 -0.0128313 0.00011036 -0.0081184 -0.0154485 -0.0081184 7.4063e-05)
(3.29899e-05 -0.0127945 -0.0154257 -0.0127945 4.84721e-05 -0.00810775 -0.0154257 -0.00810775 9.51092e-05)
(-8.79733e-05 -0.0128088 -0.015449 -0.0128088 6.79973e-05 -0.00810079 -0.015449 -0.00810079 9.63099e-05)
(0.00012352 -0.0128045 -0.0154152 -0.0128045 9.42669e-05 -0.00815579 -0.0154152 -0.00815579 7.84192e-05)
(0.000225621 -0.0128391 -0.0154232 -0.0128391 0.000131148 -0.00814778 -0.0154232 -0.00814778 3.34782e-05)
(9.89588e-05 -0.0128063 -0.0154153 -0.0128063 6.81101e-05 -0.00815333 -0.0154153 -0.00815333 8.49077e-05)
(-7.08574e-05 -0.012825 -0.0154539 -0.012825 0.000102822 -0.00812795 -0.0154539 -0.00812795 6.73094e-05)
(2.29126e-05 -0.0127876 -0.0154162 -0.0127876 2.79321e-05 -0.00812382 -0.0154162 -0.00812382 0.000103044)
(6.60023e-05 -0.0127901 -0.0154248 -0.0127901 3.52256e-05 -0.00814136 -0.0154248 -0.00814136 6.92501e-05)
(5.32695e-05 -0.0127945 -0.015422 -0.0127945 3.53399e-05 -0.00811385 -0.015422 -0.00811385 8.68724e-05)
(3.96386e-05 -0.0127966 -0.015429 -0.0127966 4.50607e-05 -0.00810715 -0.015429 -0.00810715 0.000101319)
(0.00022524 -0.0128392 -0.0153828 -0.0128392 0.000106093 -0.00811642 -0.0153828 -0.00811642 9.34394e-05)
(-6.92983e-05 -0.0128134 -0.0154567 -0.0128134 6.6485e-05 -0.00810023 -0.0154567 -0.00810023 9.0046e-05)
(-0.000111582 -0.0128211 -0.0154559 -0.0128211 7.48863e-05 -0.00811379 -0.0154559 -0.00811379 6.88552e-05)
(1.65946e-05 -0.0128069 -0.0154502 -0.0128069 7.86453e-05 -0.00811572 -0.0154502 -0.00811572 8.03714e-05)
(-0.000104833 -0.0128118 -0.0154536 -0.0128118 7.06567e-05 -0.00810373 -0.0154536 -0.00810373 8.68412e-05)
(8.84285e-05 -0.0128009 -0.0154141 -0.0128009 3.99474e-05 -0.00814393 -0.0154141 -0.00814393 9.51996e-05)
(0.000110257 -0.0127974 -0.0154059 -0.0127974 3.12748e-05 -0.00812518 -0.0154059 -0.00812518 0.000111683)
(-0.000114629 -0.0128205 -0.015459 -0.0128205 7.74914e-05 -0.00810344 -0.015459 -0.00810344 7.94647e-05)
(3.98361e-05 -0.0127935 -0.0154277 -0.0127935 2.38347e-05 -0.00812139 -0.0154277 -0.00812139 7.84417e-05)
(0.000113942 -0.012824 -0.0154149 -0.012824 0.000101368 -0.00815378 -0.0154149 -0.00815378 5.67319e-05)
(2.63302e-05 -0.0127882 -0.0154253 -0.0127882 2.11569e-05 -0.00812482 -0.0154253 -0.00812482 6.71237e-05)
(3.50263e-05 -0.0127922 -0.0154375 -0.0127922 1.99574e-05 -0.00812951 -0.0154375 -0.00812951 3.15844e-05)
(6.38193e-05 -0.0127965 -0.0154254 -0.0127965 2.35094e-05 -0.00812915 -0.0154254 -0.00812915 4.90894e-05)
(-9.85912e-05 -0.0128221 -0.0154525 -0.0128221 9.96254e-05 -0.0081045 -0.0154525 -0.0081045 8.51695e-05)
(5.98112e-05 -0.0127931 -0.0154215 -0.0127931 2.58097e-05 -0.00813233 -0.0154215 -0.00813233 6.57591e-05)
(0.000333337 -0.0128359 -0.0154208 -0.0128359 0.000127645 -0.00814331 -0.0154208 -0.00814331 3.83905e-05)
(3.20916e-05 -0.012791 -0.015424 -0.012791 2.75594e-05 -0.00811928 -0.015424 -0.00811928 7.21442e-05)
(3.62881e-05 -0.0127898 -0.0154246 -0.0127898 3.09571e-05 -0.00812465 -0.0154246 -0.00812465 6.82622e-05)
(-1.44935e-05 -0.01282 -0.015445 -0.01282 0.000104567 -0.00810676 -0.015445 -0.00810676 8.49646e-05)
(0.000149986 -0.0128319 -0.0154094 -0.0128319 0.000123261 -0.00815103 -0.0154094 -0.00815103 5.64973e-05)
(-7.33403e-06 -0.0127947 -0.0154377 -0.0127947 3.00537e-05 -0.0081153 -0.0154377 -0.0081153 9.31447e-05)
(-7.68169e-05 -0.0128093 -0.0154517 -0.0128093 6.36585e-05 -0.00810378 -0.0154517 -0.00810378 8.68912e-05)
(7.35163e-05 -0.0128008 -0.0154248 -0.0128008 3.39315e-05 -0.00813698 -0.0154248 -0.00813698 4.50797e-05)
(0.000165104 -0.0128359 -0.0154186 -0.0128359 0.000134215 -0.00815106 -0.0154186 -0.00815106 3.78875e-05)
(3.73729e-06 -0.0127972 -0.0154354 -0.0127972 3.21854e-05 -0.00811465 -0.0154354 -0.00811465 7.22659e-05)
(-7.06129e-05 -0.0128598 -0.0154012 -0.0128598 0.000129594 -0.00813119 -0.0154012 -0.00813119 8.03325e-05)
(-7.47062e-05 -0.0128133 -0.0154546 -0.0128133 8.34007e-05 -0.00810239 -0.0154546 -0.00810239 8.8795e-05)
(-0.000124901 -0.0128218 -0.0154614 -0.0128218 9.35853e-05 -0.00809924 -0.0154614 -0.00809924 8.75827e-05)
(-5.90673e-06 -0.0127977 -0.0154353 -0.0127977 3.37557e-05 -0.00811246 -0.0154353 -0.00811246 8.88372e-05)
(-9.69213e-05 -0.012843 -0.01544 -0.012843 0.000114853 -0.00812621 -0.01544 -0.00812621 7.49563e-05)
(-4.09039e-05 -0.0128063 -0.0154482 -0.0128063 7.78726e-05 -0.00810281 -0.0154482 -0.00810281 8.98852e-05)
(3.28428e-05 -0.0127927 -0.0154212 -0.0127927 3.02703e-05 -0.00812019 -0.0154212 -0.00812019 0.000111999)
(-0.000215388 -0.0128259 -0.015461 -0.0128259 9.53011e-05 -0.00810148 -0.015461 -0.00810148 8.70674e-05)
(0.000112362 -0.0128112 -0.0154135 -0.0128112 9.18537e-05 -0.00815488 -0.0154135 -0.00815488 7.54963e-05)