/*--------------------------------*- C++ -*----------------------------------*\
  =========                 |
  \\      /  F ield         | OpenFOAM: The Open Source CFD Toolbox
   \\    /   O peration     | Website:  https://openfoam.org
    \\  /    A nd           | Version:  10
     \\/     M anipulation  |
\*---------------------------------------------------------------------------*/
FoamFile
{
    format      ascii;
    class       volScalarField;
    location    "22.5";
    object      nut;
}
// * * * * * * * * * * * * * * * * * * * * * * * * * * * * * * * * * * * * * //

dimensions      [0 2 -1 0 0 0 0];

internalField   nonuniform List<scalar> 
25600
(
3.12831e-11
2.16287e-11
2.11022e-11
3.90195e-11
2.92572e-11
2.16096e-11
2.81702e-11
3.28878e-11
1.97359e-11
2.44409e-11
2.83715e-10
6.55822e-11
6.69503e-11
3.42878e-11
1.6061e-11
2.51394e-11
3.27627e-11
1.51468e-11
1.51113e-11
2.72226e-11
1.08622e-10
2.79255e-11
3.50915e-11
4.83523e-11
2.84968e-11
2.71183e-11
3.94555e-11
2.46592e-11
1.98815e-11
1.87772e-11
1.59933e-11
2.59169e-11
3.02953e-11
2.40721e-11
2.47225e-11
2.54411e-11
2.65562e-11
2.69352e-11
2.82605e-11
3.0322e-11
9.93065e-13
1.59565e-13
3.24325e-13
6.0511e-13
4.53933e-13
4.53756e-14
2.89438e-13
4.42742e-12
3.61222e-13
3.78214e-13
3.31148e-10
2.94904e-12
3.90263e-12
4.88926e-13
8.94558e-14
4.96243e-13
3.80879e-13
8.15195e-13
2.22874e-13
1.71268e-13
9.6511e-11
8.43039e-14
7.08736e-13
6.63976e-13
2.20517e-12
4.40279e-13
1.7265e-13
1.97473e-13
2.74735e-13
7.39093e-14
1.64697e-13
1.75262e-13
5.77326e-13
1.48415e-13
1.64253e-13
9.29795e-13
3.83034e-13
5.19531e-13
1.33299e-13
7.5936e-13
1.5151e-12
4.40258e-13
2.46081e-13
5.25303e-13
6.35868e-13
1.8502e-13
2.23199e-13
3.76351e-12
5.25045e-14
8.05314e-14
4.60115e-10
3.79138e-12
6.11351e-12
4.96775e-13
5.04928e-13
7.15092e-13
2.75288e-13
8.37102e-13
4.91193e-13
2.32799e-13
1.4766e-10
9.08276e-14
2.23357e-13
5.33597e-13
1.95215e-12
8.79453e-13
1.42681e-13
1.30292e-13
2.03728e-13
9.37984e-14
7.39347e-14
1.07471e-13
2.31487e-13
3.96227e-13
1.01215e-13
6.2235e-13
5.17655e-13
1.34636e-13
4.63742e-14
1.52921e-12
2.96501e-13
1.06239e-13
2.91156e-14
2.59489e-13
6.16846e-13
2.18875e-13
3.36764e-13
2.07608e-12
6.78344e-14
6.83896e-14
2.43264e-10
1.74361e-10
1.01137e-11
1.87379e-13
5.0461e-13
4.60027e-13
2.24046e-13
2.47573e-12
4.89986e-13
9.6303e-14
2.22901e-10
1.13392e-13
2.17402e-13
1.20989e-12
9.79861e-13
5.57704e-13
9.03562e-14
4.42692e-13
2.91784e-13
4.27117e-14
3.22807e-14
5.19141e-14
3.37216e-13
2.49511e-13
6.37031e-14
2.58474e-12
3.52408e-13
9.62364e-14
3.16487e-14
6.13253e-13
1.23093e-10
6.34445e-14
1.96422e-14
2.54632e-13
3.77453e-13
6.94993e-14
4.30094e-13
3.39531e-11
1.12908e-14
6.13415e-14
4.8361e-10
3.27473e-11
5.92472e-11
5.40795e-13
1.4044e-13
2.33285e-13
5.9101e-13
1.48629e-12
4.93505e-13
1.91636e-13
2.89663e-10
6.9269e-13
1.77729e-13
4.114e-12
6.04318e-13
2.77523e-13
1.27476e-13
3.36344e-13
3.29937e-13
5.51859e-14
4.34435e-14
1.04221e-13
8.17119e-13
2.44451e-13
5.34558e-14
2.49979e-12
1.30255e-13
8.95614e-14
1.04251e-13
4.68256e-13
1.32637e-12
1.47258e-13
3.42399e-14
5.81488e-13
9.08999e-14
1.10814e-13
5.70831e-13
5.97144e-11
1.4803e-14
3.14125e-13
4.87782e-10
6.99651e-13
4.12082e-12
6.47413e-14
5.60698e-14
2.90367e-13
7.64184e-13
4.09446e-13
1.57055e-13
3.32428e-13
8.35725e-11
5.71738e-14
1.02972e-13
6.13241e-13
1.49669e-12
5.37218e-13
1.92312e-13
8.81851e-14
1.6388e-13
3.01139e-14
4.08483e-14
6.87057e-14
1.48083e-12
4.32353e-13
1.3609e-13
3.50627e-13
1.01529e-13
2.65725e-14
1.02886e-13
1.01643e-11
2.06224e-13
2.86707e-13
1.15008e-13
5.80834e-13
1.24215e-13
7.00458e-14
6.62902e-14
1.45793e-11
5.8706e-14
8.74721e-14
2.15831e-10
1.10736e-10
1.76869e-10
1.99282e-13
8.41752e-14
3.30636e-13
6.29708e-13
2.06209e-12
6.81983e-14
2.07888e-13
2.85105e-10
1.70804e-14
2.92333e-14
1.73067e-10
1.22147e-12
8.37368e-13
1.87829e-12
4.83529e-13
1.3313e-13
5.55956e-14
1.76153e-13
3.4283e-14
5.64355e-13
1.08662e-13
1.19524e-13
1.76333e-13
1.60029e-13
3.64515e-14
1.07806e-13
2.46836e-10
2.53555e-10
2.3529e-12
1.65967e-13
5.08039e-13
6.37796e-13
6.8043e-14
9.77307e-14
1.41005e-12
5.91251e-14
4.93546e-14
4.84969e-10
3.52738e-10
9.95478e-14
1.01735e-12
1.83126e-13
1.5255e-13
3.86061e-11
1.63525e-13
8.77053e-14
2.09856e-13
6.03959e-10
2.77452e-14
9.07491e-14
6.70166e-10
7.28238e-13
1.00574e-12
3.10471e-13
7.2648e-13
1.45488e-13
2.09331e-14
1.51581e-13
6.24892e-14
2.26958e-12
5.98169e-14
7.25257e-14
2.72213e-13
2.23679e-13
9.93104e-14
2.01225e-13
3.74942e-13
3.84463e-10
3.48436e-10
4.36048e-13
3.08396e-13
2.63885e-12
1.60606e-12
2.05268e-13
1.05205e-12
1.52177e-13
2.54761e-14
5.19227e-10
1.41344e-13
3.60819e-13
1.1024e-12
9.05978e-14
1.18464e-13
5.14191e-11
1.0286e-13
1.4431e-13
1.66999e-13
3.8931e-10
6.19097e-14
7.59883e-14
4.15762e-10
1.24134e-12
1.05816e-12
2.61737e-13
3.73908e-13
1.60895e-13
1.23558e-13
7.23575e-14
4.72052e-13
1.80327e-10
3.09353e-13
9.57476e-13
1.63898e-12
2.0007e-13
2.24817e-13
8.41849e-14
1.28935e-10
7.97122e-11
4.01805e-13
1.90288e-12
9.8453e-11
2.80837e-11
4.94933e-12
9.28455e-11
1.48248e-10
1.12868e-13
2.41767e-10
5.19763e-10
1.02299e-13
1.99553e-13
2.76078e-10
6.38552e-14
1.99107e-13
1.76918e-12
5.05625e-13
1.03855e-13
6.45738e-13
5.05584e-10
3.65426e-14
1.22994e-13
3.31802e-10
1.20192e-12
4.45324e-13
3.12797e-11
4.72315e-13
1.7842e-13
1.03387e-13
5.37187e-14
3.53618e-13
2.15287e-12
5.7032e-13
2.48613e-14
1.82074e-13
6.5724e-14
4.35999e-13
2.21795e-14
1.7604e-10
5.79109e-10
7.5386e-13
8.22701e-13
2.29427e-13
9.29682e-11
7.96997e-11
8.08711e-11
3.76272e-10
5.22963e-14
9.55144e-13
1.05904e-09
4.48997e-10
3.39304e-12
1.49207e-13
7.62418e-14
3.20428e-13
2.93478e-10
2.68659e-12
7.76527e-15
1.28503e-12
2.51092e-10
5.26846e-14
2.85873e-10
4.51676e-10
5.21511e-11
1.21413e-13
2.18159e-13
6.2824e-13
2.29072e-12
4.41536e-14
5.38082e-14
5.11902e-13
1.21057e-12
5.22757e-14
6.67248e-13
5.92407e-14
3.83732e-14
3.02005e-13
1.70965e-13
1.39564e-10
9.82709e-13
2.29265e-13
7.24037e-11
1.63099e-13
4.25958e-10
6.918e-10
3.4631e-10
1.37774e-10
6.69834e-15
5.15966e-13
8.06558e-10
7.79619e-13
1.78979e-10
2.39878e-10
9.12031e-14
2.00805e-13
2.28487e-10
1.73209e-13
5.81076e-14
1.78125e-12
3.85399e-10
5.0775e-13
4.2444e-13
6.86614e-11
9.01722e-13
1.2913e-12
1.79054e-10
6.22168e-13
9.56049e-14
3.68199e-14
5.55494e-14
8.6685e-12
5.39141e-10
3.03398e-13
3.65202e-12
1.63545e-10
2.27397e-13
1.70772e-13
7.83568e-14
2.64741e-13
2.69912e-13
4.28272e-14
2.91108e-10
7.418e-13
5.92829e-10
1.68959e-10
4.68486e-13
4.38677e-10
3.42597e-13
3.10161e-13
1.59033e-09
8.68566e-10
1.05572e-13
2.57789e-10
1.64327e-13
1.88474e-13
4.25276e-10
4.09986e-13
1.94136e-10
6.84329e-10
3.1385e-10
3.90922e-13
1.35287e-13
2.22775e-12
7.69847e-10
3.70609e-12
5.29154e-13
1.96152e-10
1.37979e-12
3.10855e-13
7.34093e-14
3.17863e-13
2.44436e-10
3.19387e-10
4.74982e-13
2.63776e-10
5.45718e-13
1.0922e-12
1.13691e-13
1.60968e-12
1.78566e-13
2.2512e-13
1.5986e-10
1.25948e-11
2.297e-10
2.92653e-12
1.06705e-12
6.51053e-12
2.59621e-10
3.19114e-12
2.55609e-10
7.61827e-10
5.20119e-13
4.58683e-10
1.48214e-13
1.38621e-10
4.52672e-10
1.00061e-13
1.78612e-13
4.96406e-13
5.2673e-13
3.49338e-12
1.04924e-12
1.14752e-13
1.4308e-12
1.5646e-13
1.50747e-13
1.53033e-12
7.54587e-10
1.62898e-13
7.32624e-14
5.78082e-13
1.0558e-10
3.87197e-13
4.93477e-13
5.61694e-10
7.51562e-13
2.29367e-13
1.21813e-13
4.35939e-13
6.45958e-14
3.1003e-13
1.91752e-12
5.52956e-13
1.97185e-12
3.60856e-14
3.42922e-12
4.5538e-10
7.34203e-14
4.40342e-13
3.91741e-10
2.592e-13
1.58745e-13
1.17854e-10
7.38932e-14
2.11733e-13
6.23182e-10
4.30035e-13
2.51645e-13
3.51481e-10
5.49801e-10
1.05249e-13
5.66619e-13
5.03653e-10
6.4952e-10
2.35849e-13
4.01602e-12
7.72681e-13
3.22045e-10
2.81756e-11
9.73307e-14
3.71697e-10
5.00693e-10
6.3152e-12
2.81358e-10
1.21614e-11
6.16024e-12
1.03788e-12
6.23351e-13
1.00813e-13
5.0783e-13
1.27916e-09
7.83101e-13
2.44813e-11
4.22211e-10
1.84476e-10
1.22337e-10
5.80203e-11
2.22856e-13
3.92842e-13
1.05893e-09
5.98994e-13
7.68787e-10
8.48028e-11
4.68456e-13
8.52705e-10
1.72724e-13
2.06499e-13
3.00641e-10
1.8988e-13
1.10844e-12
3.23623e-10
1.90205e-13
2.54394e-13
7.92402e-10
5.21909e-10
5.63513e-13
3.60006e-13
9.91527e-10
3.32097e-10
1.24563e-13
3.36455e-13
7.39898e-10
5.00366e-10
5.34061e-10
2.5221e-12
4.85086e-13
2.50953e-13
1.61865e-12
1.23049e-12
1.79495e-14
1.07017e-11
2.74284e-10
8.04027e-10
5.45591e-10
4.65333e-14
1.06128e-13
3.31808e-10
2.71954e-13
1.19745e-13
9.71586e-10
8.83667e-10
6.12304e-14
4.92348e-10
2.01065e-13
1.12778e-13
3.97829e-10
9.60026e-10
1.39215e-13
1.47868e-12
6.10361e-10
6.04211e-14
1.5525e-13
8.87338e-10
1.61122e-09
7.56142e-13
6.95275e-12
5.01305e-13
3.91555e-10
4.84831e-10
1.18853e-13
5.31679e-10
2.26037e-10
7.62224e-14
2.97836e-13
4.68543e-11
5.32783e-12
1.27271e-13
3.67665e-13
5.34732e-11
2.22721e-13
1.27843e-09
1.27738e-12
6.69192e-13
8.79714e-13
1.69676e-13
1.48453e-12
2.52745e-10
9.02159e-14
1.36187e-10
1.00836e-09
2.11534e-10
1.29396e-13
1.12103e-12
7.24813e-13
1.32426e-09
9.48925e-14
6.37847e-14
7.66946e-11
1.65154e-13
3.48233e-10
9.04528e-10
6.20099e-10
5.93476e-13
2.61799e-13
4.08382e-10
5.13831e-10
1.75549e-13
4.64115e-10
2.47176e-13
1.57144e-13
3.90942e-10
2.01321e-13
2.11728e-13
6.67071e-10
3.30358e-11
1.92211e-13
4.88705e-13
7.22114e-13
1.92063e-13
1.13893e-12
2.60685e-10
1.26499e-10
5.88389e-10
8.11491e-10
1.00676e-13
1.85052e-13
4.71735e-10
5.22431e-13
2.67197e-14
4.28265e-10
9.94617e-10
4.64222e-10
8.35278e-10
1.05822e-09
2.1085e-13
1.35674e-13
6.69192e-10
9.71681e-13
4.10033e-13
4.96626e-10
2.69232e-13
2.2545e-13
1.61507e-09
1.31838e-09
3.68746e-13
6.26028e-12
1.56068e-13
5.13403e-13
2.06182e-10
3.45536e-13
5.11353e-13
3.02974e-10
5.37517e-13
1.25875e-10
5.5605e-10
2.21283e-13
3.35116e-13
2.45423e-10
7.30017e-10
3.53236e-11
5.85476e-10
5.07167e-10
2.86248e-13
1.33784e-12
7.83171e-10
1.9076e-10
1.36163e-12
3.2008e-13
1.28024e-09
3.28886e-13
9.20876e-14
3.53771e-13
6.13559e-13
1.27917e-13
6.33751e-10
7.52749e-13
3.51682e-13
1.13291e-10
6.25511e-10
1.24615e-09
6.52214e-10
5.64812e-11
8.03484e-14
9.34525e-14
7.15771e-10
1.233e-12
1.7907e-14
7.08135e-10
1.60256e-13
1.67272e-13
9.74772e-10
4.93061e-10
1.11212e-12
4.089e-10
2.1872e-12
8.77921e-13
1.3701e-10
1.25741e-11
3.90773e-11
1.56725e-13
1.2775e-12
2.76175e-13
2.59502e-10
2.19828e-09
6.19343e-14
9.68401e-14
7.0351e-13
2.49353e-10
1.84614e-09
7.57092e-10
1.76077e-09
1.04923e-13
4.39754e-13
2.19969e-09
1.14105e-13
2.16238e-13
1.7099e-09
1.80533e-10
9.54505e-14
7.65555e-11
3.65153e-10
2.19476e-13
3.74315e-13
2.52796e-09
2.64877e-13
1.37617e-09
1.58357e-09
2.21988e-10
3.02278e-10
2.09999e-13
6.17495e-11
8.23907e-10
2.10851e-13
5.93589e-13
6.26944e-10
2.91097e-12
8.10205e-13
3.04691e-12
4.9897e-10
1.20831e-11
2.4226e-10
1.00115e-09
1.05215e-13
1.17927e-13
1.00586e-09
3.06662e-13
9.99482e-13
5.1654e-13
1.90174e-13
2.09001e-13
1.39954e-13
9.54071e-12
2.80985e-10
2.28493e-13
5.68675e-13
6.36247e-10
1.13183e-12
2.71648e-13
3.23823e-13
1.19363e-09
1.55115e-09
9.59011e-10
1.89993e-09
1.82468e-09
1.94562e-12
1.62699e-11
8.15057e-13
6.87842e-10
1.15341e-09
9.99349e-11
1.50001e-09
1.97578e-13
5.6836e-14
9.30396e-10
1.79911e-09
3.58558e-10
4.78741e-13
2.20052e-13
8.34306e-10
2.20713e-12
6.90902e-10
7.97484e-10
8.51572e-10
9.08051e-13
3.36423e-10
6.95864e-14
2.54184e-13
2.12431e-10
6.8018e-10
2.0293e-09
8.64995e-10
3.39311e-12
8.22818e-13
1.34899e-09
1.07193e-09
6.79602e-13
5.92678e-13
8.54809e-13
6.23124e-10
4.46953e-13
1.28267e-13
8.29846e-13
3.77181e-12
1.90252e-13
9.38808e-14
1.66752e-13
2.80964e-13
7.71785e-14
3.37086e-12
1.04889e-12
1.25749e-12
1.70382e-09
5.40541e-13
8.93551e-13
1.98706e-13
1.1955e-13
2.36833e-13
1.0402e-09
4.11454e-13
6.49833e-13
4.91456e-12
8.60066e-10
6.69256e-13
7.35988e-10
2.63495e-13
7.34569e-13
3.20208e-10
4.22589e-10
8.08054e-10
1.4176e-09
2.65239e-10
8.75048e-10
3.68567e-13
6.04888e-13
3.84126e-12
9.45402e-13
1.30526e-09
4.01272e-10
1.66428e-10
5.87563e-13
1.82531e-13
2.11398e-12
1.1208e-10
7.56772e-14
1.75868e-12
1.23921e-09
5.39726e-13
1.35304e-09
9.49765e-10
1.46587e-12
6.98792e-10
3.54643e-14
6.2473e-11
2.40659e-12
1.73082e-13
2.38592e-09
4.41607e-13
1.25002e-13
9.77321e-10
3.20837e-13
1.45117e-12
2.77691e-13
6.37615e-10
6.4049e-13
1.24876e-13
8.2295e-14
8.0538e-13
2.45784e-09
4.91927e-11
6.24771e-14
5.05721e-13
6.49357e-13
3.40033e-13
6.11452e-12
1.79683e-12
1.40897e-12
1.66666e-12
1.03778e-12
1.185e-09
1.58332e-09
9.52492e-10
2.31928e-11
6.35768e-10
1.94375e-09
1.55188e-10
3.87518e-13
6.48699e-10
1.00054e-09
3.08853e-10
2.35052e-10
4.3278e-10
1.12737e-09
1.95599e-13
1.16857e-09
2.05583e-09
3.91586e-13
7.01403e-10
1.39561e-09
8.39602e-10
4.04949e-09
2.76589e-09
1.07984e-10
5.89729e-10
3.42923e-10
2.41993e-09
6.18178e-10
3.6362e-09
6.53707e-10
6.32729e-14
1.49985e-09
1.92499e-09
1.09425e-12
1.76193e-09
1.38218e-09
7.38308e-11
6.94207e-10
6.93233e-10
6.63996e-10
6.53532e-10
1.6443e-13
2.4992e-13
1.8569e-10
4.43875e-10
7.00947e-13
2.66332e-12
2.03721e-09
9.48726e-10
4.72495e-13
8.06967e-11
1.39215e-12
1.67104e-09
9.23278e-10
2.72477e-13
1.29087e-09
5.91253e-10
5.11628e-13
7.09065e-13
2.24787e-13
5.55853e-10
9.63543e-10
2.25472e-13
6.58942e-12
1.06611e-12
2.94623e-10
3.79488e-13
7.18006e-10
3.54295e-10
9.75163e-14
1.9212e-09
1.60546e-09
4.21649e-13
5.11307e-12
1.57905e-13
2.5749e-10
1.46003e-12
1.10204e-09
1.06335e-09
5.78924e-13
4.68916e-11
4.12806e-10
1.45573e-09
8.41834e-10
2.58237e-13
1.93366e-09
1.61918e-09
4.53798e-13
7.88156e-13
2.35128e-09
9.83828e-13
2.10423e-12
6.47176e-13
1.48014e-13
5.34328e-13
3.91991e-10
7.01115e-14
6.52849e-13
2.18968e-09
5.31304e-13
7.53089e-11
1.27823e-09
1.24731e-13
4.54804e-13
7.99059e-13
1.67907e-13
1.54599e-09
1.84902e-09
7.38794e-13
1.50758e-09
1.27299e-12
1.39309e-13
5.97943e-10
1.34854e-09
6.47965e-13
6.99212e-13
2.16372e-13
8.63969e-10
4.89709e-13
3.29997e-10
8.3706e-11
4.93904e-10
5.61019e-10
1.00867e-13
1.03887e-09
5.93228e-13
2.5215e-13
1.36781e-09
3.04913e-09
7.06424e-12
5.09204e-13
5.00537e-10
9.9451e-10
5.4262e-13
8.2177e-11
1.14623e-09
2.20062e-13
1.32996e-09
3.6034e-13
3.20606e-13
2.23678e-09
2.08355e-12
3.66228e-13
6.16428e-10
2.12545e-09
4.29914e-13
1.74196e-09
1.66105e-13
1.94434e-13
1.00924e-10
2.34251e-13
6.2594e-13
2.1879e-09
8.36502e-10
6.28141e-13
3.30704e-12
1.19821e-09
3.03517e-10
5.2779e-13
1.05525e-11
3.75237e-13
2.54474e-12
2.06027e-09
2.90691e-10
6.95671e-12
3.43552e-13
3.67571e-10
1.90328e-09
3.44537e-09
2.16689e-09
6.01612e-13
1.32406e-12
2.05887e-13
1.96066e-12
2.46864e-09
7.45316e-10
1.55749e-09
2.10658e-13
4.27482e-13
2.6738e-09
1.43688e-09
1.84794e-12
1.19968e-09
5.88612e-12
2.00644e-13
3.856e-10
1.55025e-09
7.8376e-13
1.36832e-09
1.91845e-13
8.06775e-13
1.45181e-11
7.1827e-10
3.38366e-10
4.94142e-13
3.4134e-13
1.71512e-13
7.33251e-10
1.26509e-09
1.58409e-09
8.28067e-13
4.5485e-13
5.2741e-10
2.14019e-09
2.22448e-12
1.12036e-09
4.30178e-09
2.07875e-09
5.66519e-13
5.28758e-12
4.12452e-09
4.70958e-13
1.52932e-09
1.73412e-09
1.83864e-12
1.44898e-13
5.16074e-13
1.76231e-13
2.37649e-13
6.52752e-13
4.35839e-13
4.79823e-09
7.88893e-13
4.67894e-13
3.31027e-09
1.26243e-10
7.82353e-13
8.77426e-13
6.1399e-12
6.66758e-10
3.80132e-13
4.08307e-11
3.32454e-09
5.54703e-13
2.80902e-13
1.15607e-12
3.15561e-09
3.6691e-09
1.85977e-12
3.66086e-13
1.67748e-12
3.34006e-10
3.2894e-13
2.27633e-10
1.6116e-09
2.32046e-09
8.65836e-13
4.51043e-14
1.34705e-12
3.85185e-09
3.33215e-13
1.53081e-13
6.59387e-10
1.30249e-09
6.25332e-12
3.09709e-10
2.00185e-09
4.02886e-13
1.4827e-12
3.77644e-12
1.36583e-09
4.63756e-13
3.87773e-12
3.72124e-09
6.59966e-09
5.14452e-12
1.99612e-13
2.76058e-09
5.32649e-09
1.29608e-13
2.07331e-09
9.97582e-13
5.02727e-13
2.3839e-11
1.70484e-09
6.32585e-09
6.17957e-10
9.83492e-10
2.67576e-13
4.50966e-13
5.33305e-09
8.38034e-10
2.81299e-09
3.64728e-09
2.24226e-10
3.38651e-13
2.78771e-09
4.95129e-09
2.11147e-09
4.0658e-09
1.25714e-09
3.12156e-09
5.62036e-09
7.44831e-11
3.79937e-13
1.88304e-10
4.11608e-09
4.33155e-13
3.86757e-12
3.16434e-09
1.80359e-12
2.7128e-10
4.5412e-10
1.70221e-10
1.65257e-10
2.56351e-10
3.27967e-10
1.58234e-10
4.42708e-10
6.79727e-10
2.9699e-10
1.48367e-10
1.38719e-10
3.14233e-10
2.84616e-10
1.9666e-10
3.20735e-10
3.97519e-10
1.13787e-10
4.61179e-10
3.75235e-10
1.80103e-10
3.15002e-10
2.11704e-10
1.21772e-10
2.81004e-10
2.07832e-10
2.83796e-10
4.91902e-10
5.74622e-10
4.20715e-10
6.59815e-10
5.14732e-10
2.69172e-10
3.11487e-10
2.90242e-10
2.44833e-10
3.57976e-10
4.8168e-10
2.03984e-10
1.34696e-10
2.76377e-10
4.25137e-10
4.10982e-11
5.94725e-12
3.54677e-10
3.09861e-10
9.97446e-11
2.66005e-10
6.43538e-10
2.42043e-10
1.40321e-11
1.93051e-11
1.66155e-10
2.76224e-10
1.35455e-10
5.147e-10
4.4847e-10
1.17318e-12
6.06441e-10
2.82391e-10
7.96238e-11
3.09674e-10
5.19842e-11
7.82506e-13
2.41382e-10
9.95532e-11
1.70075e-10
4.49475e-10
4.59547e-10
3.4045e-10
6.55158e-10
3.83206e-10
1.73632e-10
2.74809e-10
2.02169e-10
1.33682e-10
2.97681e-10
4.56166e-10
1.30571e-10
4.04628e-12
4.53677e-10
5.87584e-10
2.35254e-10
1.72553e-10
3.52539e-10
3.3914e-10
6.31457e-11
1.73068e-10
7.35213e-10
3.07655e-10
1.38991e-10
2.77455e-11
2.19919e-10
4.63532e-10
2.1993e-10
3.55518e-10
4.8122e-10
1.99942e-11
6.93247e-10
4.25419e-10
2.36967e-10
4.53114e-10
1.8569e-10
1.29551e-10
3.2353e-10
1.88204e-10
2.64139e-10
5.92646e-10
5.73614e-10
4.15973e-10
7.75115e-10
5.31142e-10
2.92511e-10
4.277e-10
3.2363e-10
1.74321e-10
3.74513e-10
6.90627e-10
2.81881e-10
4.57132e-11
1.30463e-10
4.87702e-10
3.80623e-12
1.27292e-11
2.83155e-10
4.07603e-10
3.53337e-12
1.41002e-11
5.52821e-10
1.77734e-10
5.81738e-11
3.90086e-12
1.39297e-10
1.6882e-10
3.07922e-11
2.95735e-10
4.74623e-10
2.4148e-12
5.15979e-10
4.21508e-10
1.15686e-10
3.01524e-10
3.72979e-11
1.56198e-12
2.36833e-10
6.09783e-11
1.78217e-10
5.5272e-10
5.18379e-10
4.01527e-10
6.36474e-10
4.84686e-10
1.62734e-10
2.5127e-10
2.35933e-10
1.57614e-10
2.05501e-10
4.83425e-10
1.12712e-10
7.05188e-12
1.35719e-10
5.12354e-10
1.03619e-12
6.51103e-11
2.6355e-10
4.23109e-10
3.94669e-11
2.36862e-10
6.93367e-10
2.45123e-10
7.70448e-11
1.0813e-11
2.06319e-10
1.50765e-10
4.76079e-11
3.73788e-10
6.40083e-10
4.22149e-12
5.70137e-10
4.01674e-10
7.77356e-12
4.19091e-10
4.38452e-11
4.32229e-13
2.92672e-10
7.52089e-11
2.49641e-10
5.00912e-10
3.99345e-10
5.06491e-10
6.91191e-10
4.4285e-10
1.98432e-10
3.21439e-10
2.06605e-10
2.54024e-10
3.93066e-10
3.54863e-10
4.93542e-11
3.20937e-12
3.06414e-10
4.22365e-10
3.02661e-11
7.29673e-11
4.86717e-10
3.36057e-10
1.59668e-12
1.91557e-10
7.18739e-10
1.82491e-10
1.63266e-10
7.65488e-13
2.91549e-10
5.05992e-10
2.01567e-11
1.41095e-10
5.45468e-10
1.43171e-12
5.57022e-10
3.04942e-10
2.55469e-13
3.03047e-10
1.22811e-10
1.80925e-13
2.27151e-10
8.43995e-11
2.31711e-10
3.65056e-10
2.25638e-10
5.01706e-10
7.58997e-10
3.44509e-10
2.45518e-10
3.40324e-10
9.80214e-13
2.55101e-12
4.86007e-10
5.15973e-10
5.72367e-12
1.67166e-11
1.48775e-10
1.76141e-10
5.71747e-11
8.21399e-13
4.45164e-10
3.9865e-10
1.56539e-12
2.02488e-10
6.78122e-10
2.74484e-10
2.28422e-10
8.45025e-14
3.72292e-10
3.06768e-10
4.26191e-13
3.40751e-10
4.85593e-10
1.6008e-13
6.33718e-10
3.21623e-10
1.8221e-12
2.80901e-10
1.47074e-10
1.15016e-13
2.45336e-10
5.93908e-11
1.98378e-10
5.37913e-10
4.58248e-10
3.99505e-10
6.81292e-10
2.91862e-10
1.61814e-10
3.57469e-10
1.11431e-10
1.01793e-13
3.48335e-10
7.03098e-10
1.3158e-10
3.99016e-12
1.78638e-10
1.36676e-12
1.82092e-12
4.38765e-11
3.65951e-10
3.83465e-10
1.41406e-10
4.34954e-10
6.88268e-10
1.6856e-10
1.08463e-10
6.31862e-13
4.10811e-10
5.45631e-11
2.92868e-11
5.18008e-10
3.24676e-10
1.66767e-13
4.68138e-10
3.29566e-10
4.39471e-13
5.4581e-10
4.84703e-11
3.8602e-13
3.72021e-10
1.18616e-10
1.82083e-10
6.54469e-10
6.50007e-10
3.96691e-10
5.73637e-10
3.3739e-10
8.74169e-12
2.36749e-10
3.08178e-10
2.64091e-10
5.07361e-10
7.08201e-10
1.27567e-10
4.13052e-13
4.31718e-11
1.45755e-10
3.19119e-13
8.02884e-11
3.38519e-10
2.25383e-10
3.78386e-11
2.43735e-10
7.80383e-10
2.2934e-10
2.7579e-13
1.7542e-12
2.42896e-10
9.51551e-12
1.13948e-10
4.09553e-10
4.07017e-10
4.39752e-13
4.42603e-10
4.27314e-10
1.44127e-13
2.11475e-10
1.41686e-13
3.23806e-13
1.76356e-10
1.12125e-10
1.4538e-10
5.49379e-10
4.77864e-10
5.06311e-10
6.91774e-10
5.28242e-10
5.41772e-11
2.87227e-10
2.24209e-10
8.94684e-11
4.9616e-10
5.42079e-10
4.13843e-12
5.28563e-12
8.14643e-11
3.20958e-10
1.14682e-12
1.45353e-10
1.17835e-10
9.31878e-13
5.27112e-13
1.34426e-10
4.86959e-10
2.83428e-13
1.70417e-13
5.85451e-13
1.66858e-11
1.6474e-10
7.13053e-14
1.01108e-11
2.23194e-11
1.71609e-13
5.01352e-10
4.42929e-10
2.0304e-13
1.29634e-10
2.87538e-13
2.52939e-13
1.15519e-10
1.31885e-10
1.75171e-10
2.19169e-10
4.54729e-10
6.05617e-10
8.31244e-10
3.6958e-10
2.35714e-10
4.41114e-10
1.83407e-10
2.34927e-10
3.85451e-10
4.71185e-10
3.57608e-13
1.36723e-10
4.11139e-10
4.26917e-10
1.90464e-13
1.24751e-11
1.17404e-12
8.75793e-14
1.04019e-12
4.54113e-10
5.70809e-10
4.12964e-14
7.02814e-14
2.09661e-12
1.62793e-11
4.28925e-10
8.12719e-11
5.12843e-10
1.41165e-10
1.4857e-13
1.32851e-10
3.61605e-10
3.31006e-13
2.89404e-10
2.48371e-10
2.0911e-13
2.40692e-10
1.55276e-10
2.59988e-10
4.70316e-11
2.40533e-10
4.96452e-10
6.66205e-10
5.67325e-10
1.55768e-12
5.02053e-11
1.22156e-10
3.39792e-11
4.26597e-10
7.74567e-10
4.30955e-13
8.19478e-11
3.8389e-10
3.67498e-12
1.8744e-13
6.45148e-12
2.3323e-11
1.39494e-13
1.07086e-10
1.13606e-10
3.18518e-10
5.94328e-11
9.52958e-13
8.94418e-13
9.39577e-11
4.26075e-10
3.57232e-13
1.88845e-10
5.53633e-10
8.5975e-11
1.0085e-10
3.61424e-10
1.28643e-12
6.67629e-10
5.29635e-10
4.06852e-13
2.37142e-10
2.04678e-10
1.82556e-10
6.91959e-10
4.0254e-10
6.06509e-10
3.80986e-10
7.49058e-10
9.08245e-11
9.82876e-11
2.3363e-10
1.00082e-12
3.63791e-10
5.98759e-10
7.61734e-11
2.95305e-10
3.97589e-10
3.84259e-11
1.07238e-12
1.18174e-10
1.07388e-10
9.32274e-14
2.15876e-13
2.78922e-10
5.56362e-10
3.24872e-12
1.59045e-13
2.19758e-12
6.85311e-13
2.40382e-10
5.21558e-10
6.3145e-11
1.07192e-13
1.60815e-13
2.37873e-10
1.50751e-10
2.34756e-13
5.50183e-10
1.64846e-10
2.54658e-13
2.7171e-10
3.87144e-11
1.64722e-11
6.78552e-10
8.28843e-10
7.61223e-10
2.11448e-10
3.63586e-10
6.47052e-14
5.01269e-11
1.46816e-10
8.4004e-14
1.91491e-12
5.44511e-10
1.7824e-13
3.14673e-12
5.08598e-10
7.03629e-10
2.02066e-13
5.26861e-13
1.08547e-10
1.35214e-13
5.31511e-13
2.9954e-10
9.61274e-10
2.65128e-11
3.31906e-13
5.7018e-13
2.10911e-12
2.24035e-10
1.35382e-10
6.56104e-10
3.08207e-10
9.90028e-14
2.66662e-10
1.76504e-10
3.11915e-14
2.97544e-10
2.04064e-10
2.22977e-13
1.00997e-10
3.00159e-10
1.34852e-10
2.97834e-14
1.09702e-12
7.44064e-10
1.68589e-12
4.43627e-10
3.82058e-13
5.40375e-14
2.94691e-12
5.51042e-13
2.19501e-10
5.3419e-10
3.36637e-13
7.38123e-14
7.59041e-10
5.05591e-10
1.52547e-11
2.98972e-11
1.5905e-10
8.34791e-11
1.05145e-09
3.3634e-10
4.24334e-10
8.07166e-11
8.68431e-14
1.08315e-11
1.56937e-12
5.08162e-10
5.17453e-10
8.21896e-14
6.50165e-11
6.63041e-10
2.58676e-10
4.61353e-10
1.9441e-13
5.31428e-10
2.18226e-10
4.58147e-14
1.70828e-13
1.11276e-12
6.1272e-10
4.07386e-10
2.88058e-14
3.48839e-13
4.30757e-10
4.23633e-10
1.76577e-13
2.26813e-10
8.28264e-10
3.66699e-13
1.72227e-13
6.91091e-10
6.52138e-12
4.27685e-10
2.74939e-10
6.58585e-10
2.76e-13
4.44223e-13
3.51529e-10
1.46227e-13
1.8441e-10
2.75814e-10
6.58035e-10
7.05053e-11
2.38391e-13
4.28217e-10
2.9263e-12
3.31421e-10
3.27186e-10
2.85481e-10
1.92051e-10
3.17452e-13
1.15732e-10
2.6951e-10
1.14164e-13
4.72827e-13
3.41209e-13
3.4435e-14
2.30254e-10
1.29789e-13
3.12882e-10
4.77871e-10
1.33094e-13
5.40558e-10
3.07604e-10
1.92488e-10
2.12701e-13
1.03207e-10
4.70142e-10
1.48948e-10
2.0193e-10
8.55461e-10
3.14617e-10
7.00775e-11
4.95768e-10
6.37614e-14
3.60082e-13
9.46923e-11
7.22351e-10
3.89721e-11
1.42945e-13
6.26892e-14
1.08345e-10
4.6162e-10
9.91724e-14
1.3325e-13
1.82285e-13
8.04433e-10
8.04134e-12
1.57716e-13
4.49749e-13
1.23726e-13
7.97027e-13
2.70653e-10
2.44028e-13
7.32793e-10
7.09431e-10
4.24186e-14
1.40969e-10
8.53975e-11
5.02524e-13
2.99309e-11
3.10857e-13
1.15311e-10
6.7703e-10
8.85777e-10
1.21235e-11
2.45112e-10
5.67874e-10
1.95773e-14
2.92071e-13
4.63821e-10
4.74277e-13
2.58531e-10
4.90762e-10
3.63946e-11
2.84266e-13
2.24649e-13
4.33552e-10
6.75677e-14
2.63928e-13
5.18298e-10
1.05132e-10
1.05873e-10
3.33722e-12
2.65538e-10
6.55828e-13
1.32179e-10
1.55404e-12
1.22626e-13
9.93252e-10
4.22022e-10
3.81006e-10
7.45781e-10
7.85055e-13
4.41858e-10
7.05523e-10
7.79915e-14
9.42922e-14
7.98665e-14
9.06641e-11
2.23603e-11
2.21544e-13
1.79556e-10
1.48495e-10
5.25522e-13
1.51594e-12
8.35556e-12
7.58531e-10
6.42013e-10
6.75307e-10
1.40442e-09
4.77526e-10
2.14076e-10
6.92803e-13
2.07289e-11
4.92804e-11
5.16122e-10
3.44125e-10
4.56252e-14
1.34532e-09
1.86806e-09
7.2806e-10
3.48442e-14
5.97327e-13
7.77616e-12
5.99145e-14
1.78331e-10
2.83643e-10
7.56866e-13
9.54541e-11
7.0461e-10
1.33131e-10
2.29158e-10
1.58282e-13
7.40555e-14
1.62829e-13
1.44462e-13
1.04774e-09
4.04784e-10
6.09871e-10
4.78761e-10
1.92465e-13
4.14165e-10
1.12012e-09
1.06645e-09
9.03057e-12
1.43115e-10
4.20317e-10
1.6434e-13
1.50169e-13
3.12917e-11
2.16999e-13
2.12972e-13
9.73879e-10
1.54891e-10
4.16164e-13
1.42514e-13
2.81097e-13
2.70182e-13
8.87593e-14
9.04415e-13
4.55731e-13
7.0178e-10
5.08634e-10
5.64319e-13
4.63658e-10
1.1666e-10
4.211e-13
5.66502e-10
8.42811e-10
1.33408e-09
2.65761e-11
5.40045e-13
2.90229e-12
1.15853e-09
1.24063e-09
5.2089e-13
1.85522e-14
4.35659e-14
6.71169e-14
7.89289e-11
2.81757e-13
7.09554e-11
2.62685e-10
1.57478e-10
3.12677e-14
1.32724e-13
1.10241e-09
1.29143e-12
1.05477e-13
1.24524e-09
9.31602e-10
2.38555e-10
2.38965e-13
1.9972e-13
6.22104e-10
5.85959e-13
4.72899e-10
9.99706e-10
2.17422e-09
1.15826e-09
2.52572e-13
3.7825e-10
9.34062e-10
4.66124e-10
1.20884e-13
6.79361e-11
3.74916e-10
2.49282e-10
4.6675e-13
4.14778e-13
6.49875e-10
9.02008e-10
1.45328e-13
1.65758e-13
4.29064e-13
3.26761e-13
9.48271e-11
2.16086e-13
9.73619e-14
1.28239e-10
2.56249e-13
2.18209e-13
2.83709e-13
4.817e-14
2.4741e-11
1.23759e-09
8.30273e-10
9.59319e-14
1.6311e-13
2.30676e-13
1.41662e-12
1.57014e-10
4.31642e-10
7.61983e-10
3.87232e-10
1.59332e-12
4.02324e-11
7.66981e-13
1.21264e-10
2.31597e-10
4.81243e-14
2.15634e-13
4.46114e-13
1.17901e-13
5.37413e-10
3.25169e-10
1.16943e-13
2.41117e-13
1.54915e-09
8.17498e-10
7.91214e-10
2.75563e-10
9.63979e-11
1.61405e-10
1.36619e-13
1.51511e-13
1.53054e-09
6.13103e-10
6.08954e-13
8.81457e-14
1.26334e-13
8.86412e-10
1.93791e-09
6.2018e-10
1.52747e-10
5.45071e-13
1.25506e-13
1.67444e-11
8.09839e-10
1.03224e-09
2.91248e-13
4.04598e-12
1.13139e-13
3.12595e-13
3.17944e-13
6.50202e-10
4.60522e-10
5.83391e-12
6.68122e-11
3.04074e-13
6.06728e-10
1.30176e-10
7.46605e-13
3.91133e-10
8.31278e-14
4.18473e-10
2.36428e-09
1.27806e-12
2.65675e-13
2.62262e-13
6.31145e-13
7.64077e-10
3.69757e-13
3.74479e-13
3.58588e-12
4.29454e-13
4.24992e-11
1.26207e-09
7.25202e-10
4.9572e-10
6.48091e-10
9.60947e-14
8.68753e-14
9.97544e-14
4.20132e-10
1.22373e-09
1.2706e-09
3.15588e-13
9.90752e-14
9.78592e-10
7.51014e-13
2.32698e-11
7.27724e-10
1.92441e-13
3.40942e-13
5.34873e-14
5.36163e-10
1.4271e-09
6.78889e-10
9.62564e-10
1.13311e-13
1.5168e-13
3.20088e-13
1.74032e-13
1.00893e-09
1.72666e-09
2.22943e-13
2.32694e-13
1.30561e-09
5.46067e-10
1.62082e-13
5.72516e-10
2.61925e-10
1.34398e-10
1.96689e-12
6.38205e-13
2.00157e-10
2.90199e-12
3.75562e-13
1.79056e-12
3.79361e-10
1.18742e-09
9.33811e-10
1.16297e-12
4.11275e-13
8.42949e-13
1.4313e-09
3.45138e-10
2.12567e-13
2.36744e-10
3.65914e-10
6.33507e-10
4.41649e-10
5.21811e-10
1.1315e-09
1.52074e-09
3.16136e-12
1.19241e-09
1.29704e-09
3.11172e-13
4.79977e-13
1.81036e-12
1.44294e-09
1.80057e-09
7.17665e-13
4.23681e-13
1.88203e-10
1.4598e-12
1.76512e-12
1.77967e-09
4.38447e-10
4.95285e-13
3.53398e-13
1.16787e-13
7.41258e-10
2.17177e-11
2.25304e-13
5.36883e-10
1.63304e-09
1.69184e-10
1.32341e-13
3.86588e-13
7.43077e-14
3.40757e-13
8.7155e-10
4.62963e-10
9.12738e-10
6.00046e-13
4.7901e-10
1.31737e-09
1.03442e-13
2.57553e-13
2.41527e-14
1.53585e-13
8.93612e-13
3.74959e-14
2.65263e-12
6.82209e-13
6.48377e-14
6.33357e-13
1.08161e-09
8.60241e-10
2.76078e-13
1.70942e-13
6.62037e-13
1.47369e-09
1.13104e-09
4.23037e-12
1.09039e-09
1.34167e-10
2.25948e-13
1.48813e-09
1.16465e-09
1.79701e-13
7.29106e-10
1.22075e-09
1.48698e-13
4.56661e-13
1.02879e-12
1.91448e-13
1.66653e-13
6.54635e-10
2.64693e-10
1.55688e-10
1.11714e-13
4.19363e-13
2.93183e-13
1.61417e-13
7.10045e-14
5.21747e-12
8.22094e-13
8.0073e-14
1.4847e-13
1.31512e-10
1.4198e-12
8.40115e-12
1.95436e-09
5.8856e-10
1.25943e-09
4.9018e-13
2.77426e-13
5.94229e-10
6.2637e-10
9.51083e-10
5.02461e-10
1.71819e-10
9.86884e-10
1.83997e-13
1.21612e-13
2.90868e-10
7.87641e-13
1.70198e-10
2.60784e-13
1.00073e-12
6.03623e-10
3.19895e-13
5.62713e-13
9.28664e-10
1.89304e-09
2.6297e-09
1.58373e-12
9.99427e-13
1.96244e-13
1.51842e-10
8.11957e-10
1.4708e-09
1.75551e-12
1.20421e-10
6.74898e-13
8.12017e-12
6.10431e-10
1.34681e-12
2.31387e-13
1.7666e-10
1.53614e-09
1.13389e-09
5.10891e-13
2.92328e-13
1.99465e-13
1.16198e-11
7.72696e-10
1.55733e-09
2.0625e-09
1.48272e-12
1.43334e-14
5.20045e-10
4.66294e-12
6.71595e-10
1.55082e-09
2.69478e-13
1.07652e-09
2.2286e-09
7.18805e-14
2.14942e-13
1.33387e-09
6.86266e-13
6.25706e-13
2.20684e-09
8.04079e-10
4.16062e-13
1.57508e-09
2.37109e-12
1.85075e-09
2.05821e-09
1.04238e-13
2.5336e-13
1.30887e-09
1.52718e-12
9.1584e-10
1.18646e-09
1.21198e-11
9.46127e-14
1.74518e-10
1.89568e-09
1.32584e-09
1.80561e-12
9.07096e-13
9.98805e-13
1.01032e-09
1.23104e-09
1.1012e-09
2.32022e-09
2.73944e-13
1.23454e-13
9.48993e-11
1.28242e-09
2.86741e-09
9.60953e-13
6.05868e-13
1.7743e-09
3.54213e-12
8.55662e-10
7.89569e-14
1.25665e-12
1.05929e-09
1.63747e-14
1.50803e-09
9.49369e-10
4.39169e-13
5.79925e-10
6.25503e-13
4.35995e-13
1.12287e-09
5.79269e-11
3.15307e-13
1.08252e-10
5.07142e-14
2.81688e-10
2.61696e-09
2.25406e-13
1.43029e-10
4.61643e-10
2.40378e-13
5.61531e-13
5.76735e-10
3.59611e-09
2.63924e-09
1.65696e-13
2.01526e-09
2.42815e-09
3.19573e-13
1.79017e-10
7.52119e-10
1.0395e-09
9.45135e-13
9.62083e-10
9.98272e-10
9.49549e-12
1.82641e-12
2.11427e-10
5.52648e-13
7.2516e-10
1.18079e-09
1.75143e-09
1.07973e-11
1.17997e-13