/*--------------------------------*- C++ -*----------------------------------*\
  =========                 |
  \\      /  F ield         | OpenFOAM: The Open Source CFD Toolbox
   \\    /   O peration     | Website:  https://openfoam.org
    \\  /    A nd           | Version:  10
     \\/     M anipulation  |
\*---------------------------------------------------------------------------*/
FoamFile
{
    format      ascii;
    class       volScalarField;
    location    "22.5";
    object      p;
}
// * * * * * * * * * * * * * * * * * * * * * * * * * * * * * * * * * * * * * //

dimensions      [0 2 -2 0 0 0 0];

internalField   nonuniform List<scalar> 
25600
(
0.0034323
9.10982e-05
-0.021378
-0.0143011
-0.00569538
-0.0114889
-0.00677064
0.0100997
-0.00394061
-0.0195502
-0.00530886
0.00664189
0.0111721
0.00833587
-0.0183711
-0.0275164
-0.00495751
-0.00164976
0.00321707
-0.00283795
-0.017363
-0.00264146
-0.00610316
-0.0139659
-0.0178985
-0.0142784
-0.00302101
-0.00471233
-0.00874457
-0.0065551
-0.00847282
-0.00888959
-0.00964191
-0.011836
-0.0107507
-0.00273927
-0.00437426
-0.00968943
-0.0148036
-0.0126535
0.00347219
0.000271237
-0.0213201
-0.0138258
-0.00546054
-0.0112519
-0.00640858
0.0105325
-0.0037371
-0.0191468
-0.0047997
0.0073545
0.0116161
0.00859933
-0.0181953
-0.0274116
-0.00457294
-0.00143368
0.00296768
-0.00270717
-0.0167599
-0.00237368
-0.00595007
-0.0133934
-0.0175615
-0.0139667
-0.00265137
-0.00429688
-0.00844624
-0.00619244
-0.00832457
-0.00865952
-0.00915139
-0.0114781
-0.0104504
-0.00241089
-0.00416123
-0.00955034
-0.0143978
-0.0121314
0.00327739
0.000557141
-0.0213069
-0.0133699
-0.00525746
-0.0108556
-0.00591414
0.0107104
-0.00345785
-0.0186739
-0.00413462
0.00817791
0.0119782
0.00913083
-0.0178548
-0.0276655
-0.00456984
-0.00134594
0.00205373
-0.00289872
-0.015864
-0.00191895
-0.00607357
-0.0129099
-0.0172499
-0.0137271
-0.00233177
-0.00397343
-0.00788663
-0.00568363
-0.00796545
-0.00826083
-0.00860339
-0.0113693
-0.010072
-0.00207197
-0.00392007
-0.00927249
-0.0140526
-0.0116489
0.00339088
0.000723789
-0.0213557
-0.0129751
-0.00523454
-0.0111054
-0.0050811
0.0108575
-0.00361592
-0.0183711
-0.00339553
0.00894505
0.0121836
0.00993933
-0.0175183
-0.028041
-0.00536851
-0.00200609
-2.74816e-05
-0.00379818
-0.0146999
-0.0014208
-0.0066581
-0.0126775
-0.0171818
-0.014072
-0.00210579
-0.00371489
-0.0071759
-0.00519104
-0.00761425
-0.00788928
-0.00805151
-0.0116819
-0.00992571
-0.0020292
-0.00375635
-0.00902126
-0.013797
-0.0114896
0.00408248
0.000854385
-0.0212873
-0.0125082
-0.00518637
-0.0100792
-0.00360855
0.0109438
-0.00413822
-0.0181056
-0.00240679
0.00961116
0.0119817
0.010552
-0.0170387
-0.0285839
-0.00590894
-0.00206989
-0.0021596
-0.00542809
-0.0133017
-0.00134103
-0.00754613
-0.0123316
-0.0175027
-0.014653
-0.00166473
-0.00311983
-0.00669086
-0.00490911
-0.0074868
-0.00792224
-0.00721925
-0.0117283
-0.00994218
-0.00236948
-0.00362956
-0.00854645
-0.0131931
-0.0111212
0.00451717
0.000727108
-0.0210819
-0.0121979
-0.00413321
-0.00890221
-0.00200324
0.0104699
-0.00615914
-0.0182091
-0.00150703
0.0104802
0.01149
0.01079
-0.0162361
-0.0291053
-0.00632668
-0.000931873
-0.00472042
-0.00751546
-0.0116598
-0.00239842
-0.00886149
-0.0118029
-0.0180624
-0.0153209
-0.0010234
-0.00211684
-0.00689921
-0.00484431
-0.0078787
-0.00868681
-0.00602205
-0.0110138
-0.00970955
-0.00258815
-0.00371799
-0.0080329
-0.0121909
-0.0103637
0.00489095
0.000789654
-0.0211856
-0.012451
-0.00283359
-0.00711514
-0.000775761
0.00939112
-0.00835919
-0.0189258
-0.000918026
0.0120213
0.0112657
0.0105235
-0.0149868
-0.0283181
-0.00661942
-0.000201473
-0.00902369
-0.00970091
-0.0100119
-0.00332589
-0.0100596
-0.0111211
-0.0181396
-0.015798
-0.0008242
-0.000705218
-0.00793111
-0.00472588
-0.00816208
-0.00938927
-0.00447867
-0.0101854
-0.00926389
-0.00191982
-0.00421346
-0.00851217
-0.0108655
-0.00941294
0.00519765
0.000556347
-0.0206737
-0.0128402
-0.00224006
-0.00534414
0.000435525
0.00825512
-0.00874377
-0.0204173
0.000197681
0.013839
0.0101134
0.0104583
-0.0140456
-0.0267489
-0.00654397
-0.000648458
-0.0138657
-0.0116892
-0.00851048
-0.00396114
-0.0106481
-0.00977536
-0.0172469
-0.0154916
-0.00141141
0.000227675
-0.00994805
-0.00478983
-0.00800625
-0.00935046
-0.0025465
-0.00945292
-0.00886495
-0.000708902
-0.00491456
-0.011239
-0.00963829
-0.00915675
0.00487222
-0.00151434
-0.0192112
-0.0137003
-0.00267697
-0.00466554
0.00174055
0.00824109
-0.00917395
-0.0227912
0.00177862
0.0153335
0.00865884
0.0104585
-0.0138612
-0.0252491
-0.00645982
-0.00100419
-0.0182281
-0.013505
-0.007393
-0.00628187
-0.0109929
-0.00911358
-0.0156869
-0.0146495
-0.00184806
0.000378801
-0.0118666
-0.00530112
-0.00852332
-0.00913328
-0.0014721
-0.00887821
-0.00929412
0.000230872
-0.0055082
-0.0125975
-0.00898826
-0.00816876
0.00384748
-0.00496722
-0.0195006
-0.0159046
-0.00337044
-0.0047064
0.00216694
0.00931618
-0.0115081
-0.026174
0.00413182
0.0173771
0.00725391
0.0101427
-0.0137112
-0.0242011
-0.00654249
-0.00070457
-0.0213384
-0.0140653
-0.00693144
-0.0102148
-0.0106798
-0.00840019
-0.014115
-0.0134098
-0.00186666
0.000158857
-0.0126567
-0.00711032
-0.009648
-0.00907398
-0.0018773
-0.00943948
-0.0113197
0.000540321
-0.00606402
-0.0127256
-0.00823497
-0.00662947
0.00254375
-0.00826995
-0.023738
-0.0193976
-0.00417848
-0.00414503
0.000737918
0.0102613
-0.01438
-0.0308676
0.0061414
0.0201707
0.00610499
0.00888192
-0.0121752
-0.0234221
-0.00639639
-0.000376589
-0.0220688
-0.0137835
-0.0077912
-0.00903583
-0.0100994
-0.00772885
-0.0124836
-0.0114145
-0.00197838
-0.000444856
-0.0120612
-0.00927453
-0.0107554
-0.00878496
-0.00160495
-0.0114003
-0.0142615
0.000653496
-0.00617011
-0.0120646
-0.00620615
-0.00520859
-0.00129078
-0.0124149
-0.0172464
-0.0208661
-0.00491714
-0.0017926
-0.0020591
0.0102867
-0.0145382
-0.0335722
0.00477074
0.0222531
0.00415809
0.008102
-0.00991298
-0.0229229
-0.0061841
-0.000326724
-0.0204561
-0.0144752
-0.00912981
-0.00982087
-0.0118304
-0.00760181
-0.0102447
-0.00957108
-0.00186001
-0.000864388
-0.00978707
-0.0131568
-0.012422
-0.00847818
0.000561174
-0.0122985
-0.0176617
0.00087233
-0.00550951
-0.0108945
-0.00256793
-0.00412358
-0.00644327
-0.0160692
-0.0111133
-0.0200499
-0.00547465
-0.000662001
-0.00561266
0.00999334
-0.00721765
-0.0305187
-8.72435e-05
0.0223546
0.00245703
0.00666532
-0.00816067
-0.0217356
-0.00500111
0.000533924
-0.0181674
-0.0158963
-0.0095207
-0.0125941
-0.0149348
-0.00766175
-0.00653152
-0.00785019
-0.00276058
-0.00154516
-0.00495828
-0.0122678
-0.0139607
-0.00863695
0.00134288
-0.0153732
-0.0203735
0.000658323
-0.00429951
-0.00859102
0.000601275
-0.00363591
-0.00965823
-0.0172146
-0.00796209
-0.018883
-0.00526042
-0.000954327
-0.00737877
0.00843877
0.00267687
-0.0261711
-0.00875318
0.0151626
0.00238226
0.0051502
-0.00794865
-0.0167842
-0.00321446
0.000511135
-0.0169035
-0.0176475
-0.0100356
-0.0144
-0.014378
-0.00762229
-0.00276743
-0.0071313
-0.00362427
-0.00451948
0.000574712
-0.00646747
-0.0150001
-0.00807453
0.00212029
-0.0193763
-0.0198482
0.00023981
-0.0018086
-0.00520092
0.00165744
-0.00325671
-0.0134177
-0.016186
-0.00768137
-0.0180054
-0.00248584
-0.0020794
-0.00785177
0.0077936
0.0022269
-0.0235865
-0.0114413
0.00389651
0.00340166
0.00318136
-0.00949748
-0.0220213
-0.00278136
-0.000715943
-0.0140438
-0.0159241
-0.0077149
-0.0135716
-0.0151807
-0.00841833
0.00414699
-0.00578845
-0.00290463
-0.0054855
0.00259379
0.00299946
-0.0153326
-0.00666287
0.00427738
-0.018663
-0.0162222
-0.00139447
-0.00198674
-0.00176637
6.6036e-05
-0.0021463
-0.0133214
-0.0120504
-0.00718881
-0.0169152
0.00261964
0.000188031
-0.00764012
0.00533202
0.00280383
-0.0192602
-0.00924687
0.00192458
0.00791445
0.00267864
-0.0109546
-0.00854435
-0.00259709
-0.00323746
-0.0105635
-0.0220035
-0.00814459
-0.0109834
-0.0142209
-0.0098594
0.00913915
-0.00273914
-0.00212261
-0.00522807
0.00379385
0.00661686
-0.0141601
-0.00709182
0.00375578
-0.0132948
-0.0138866
-0.0020357
-0.00425806
-0.00623536
-0.00439885
6.05793e-05
-0.0148164
-0.0129257
-0.00851939
-0.0147684
0.00878321
0.000282
-0.0138782
0.00504589
0.00264309
-0.0156241
-0.00684966
0.00775385
0.00943352
0.00331718
-0.00965987
-0.013135
-0.00355564
-0.00494651
-0.0105228
-0.0167212
-0.00656488
-0.00735005
-0.0109948
0.000399426
0.0136052
-0.00346787
-0.000423844
-0.00232771
-0.00026993
0.00428996
-0.0126948
-0.00214145
0.00162058
-0.0182389
-0.0140084
-0.00274073
-0.00848951
-0.0208272
-0.0112279
0.00261881
-0.00974936
-0.00829829
-0.00995435
-0.0185888
0.0108565
0.00232056
-0.0111689
-0.00051546
0.00209204
-0.0133382
-0.00514318
0.00688746
0.00913237
0.00308733
-0.00725289
0.00185729
-0.0111175
-0.0147084
-0.00921073
-0.0165565
-0.00704896
-0.000890244
-0.0010514
0.000360156
0.00177684
-0.00627421
0.00176633
-0.000453258
-0.00372213
-0.00176498
-0.0137902
-0.00727241
-0.00168125
-0.018056
-0.00899961
-0.000381103
-0.0180672
-0.0283674
-0.0138857
-0.00199083
-0.00427462
-0.0065271
-0.0122468
-0.0114711
0.0147688
0.00483175
-0.0162159
-0.00745752
0.00307871
-0.0126301
-0.00829277
0.00226623
0.00711808
0.00119486
-0.00353333
-0.00305095
-0.0216487
-0.0188635
-0.00627414
-0.0164676
-0.00243049
0.000334815
-0.00475537
-0.00115579
0.00290432
-0.00590489
0.00185273
-0.000951077
-0.00662112
-0.00543833
-0.01377
-0.00806878
-0.00230119
-0.018702
-0.0105736
0.00302003
-0.0183502
-0.0342763
-0.0108942
0.00985729
-0.0084385
-0.00957843
-0.010686
-0.00400364
0.00803809
0.00530495
-0.00618648
-0.0119661
-0.00140391
0.00390951
-0.00653539
-0.016831
-6.28737e-06
-0.00271483
-0.0153763
-0.00630381
-0.0244346
-0.0174386
-0.00287674
-0.0115015
-0.00104521
0.0106131
-0.0022996
-0.00550468
-0.00392886
-0.00241028
0.00641623
-0.00675882
-0.00388464
-0.00403351
-0.0166249
-0.00152162
-0.00154356
-0.0206081
-0.0146727
0.00151119
-0.012013
-0.0266604
-0.00388869
0.00519477
-0.00862701
-0.0171537
-0.0103638
0.0045682
0.0235214
-0.00661389
-0.0158931
-0.015006
-0.00616639
-0.00120931
0.000808003
0.00444293
-0.00131335
-0.00897596
0.005109
-0.0071798
-0.0311179
-0.00483118
0.000747315
-0.0148341
-0.00639607
0.0116534
-0.00403605
-0.00898384
0.0173474
0.00189997
0.00425036
0.00699424
0.000193884
0.00420525
-0.0157199
-0.0076814
-0.00240186
-0.020474
-0.0203571
-0.000968621
-0.00463141
-0.0217235
-0.00530663
0.00564421
-0.00345774
-0.00932233
0.00215293
0.00122135
-0.0054333
-0.0016107
-0.00458407
-0.0110553
-0.017187
-0.0282659
-0.0233441
-0.0211588
-0.00298851
0.00160882
-0.0130831
-0.0131434
-0.0137156
0.00146846
-0.0126341
-0.0134422
-0.00305382
0.0072428
0.0023511
0.00825823
0.0190963
-0.00238763
-0.00980131
-0.00920825
-0.00511761
0.0113837
-0.00588862
-0.00152462
-0.00556805
-0.0201484
-0.00989325
0.0019551
-0.00379546
-0.0185382
-0.00798702
0.00441032
-0.00320541
-0.00851791
0.00487576
0.010826
-0.0049243
0.000218309
-0.00810554
-0.0126498
-0.0126362
-0.015072
-0.0111986
0.00213026
0.00562726
-0.00177211
-0.00359736
-0.00213992
-0.0135471
-0.00660636
-0.015569
-0.00482305
0.0005596
-0.0101581
-0.0100298
0.00152586
-0.0147583
-0.0226567
-0.0220728
-0.0205251
-0.0183302
0.00394855
-0.00939597
-0.0182595
-0.00440039
-0.0125868
-0.0110721
-0.00787193
-0.0180003
-0.0196872
-0.000575174
0.00166016
-0.00841845
-0.0155032
0.00943978
0.0052707
-6.93937e-05
-0.0127199
-0.0151035
-0.00804314
-0.0107652
0.00109458
-0.00337144
0.00167637
0.0128397
-0.0162677
-0.0197589
-0.00459931
-0.0147934
-0.00223758
-0.00469744
-0.000292935
0.00369821
-0.0154808
-0.010728
-0.000200214
-0.0252926
-0.0254775
-0.000991706
-0.0159757
-0.00757415
0.0121205
-0.00891144
-0.0143739
-0.00866879
-0.0142669
-0.00664571
-0.0079874
-0.00238456
-0.0022868
-0.00322449
0.00813564
-0.0109806
-0.00945673
0.00364392
0.00685641
0.00478836
-0.0125935
-0.0104406
-0.0111073
-0.00281764
-0.00539868
-0.034954
-0.00355785
0.00305617
-0.0336382
-0.0193236
-0.00273017
-0.0127476
-0.00112979
-0.00811333
0.00642097
0.00822735
-0.00627305
-0.00746041
0.00194273
0.00648092
-0.00686299
-0.00554649
-0.0113499
-0.0121095
0.00326766
0.00230212
-0.0100034
-0.0048148
-0.0163801
-0.00910883
0.00922193
-0.00787778
-0.0029719
0.00125783
0.0124157
0.0252529
0.0379474
0.00862207
-0.00484453
-0.00115621
0.0113981
0.00440696
0.01323
-0.00301668
-0.0346976
-0.00972773
0.0140632
-0.00187469
-0.0059646
0.00455718
-0.00448867
-0.00818253
-0.00141616
-0.00258444
0.00350836
-0.00422951
-0.0146288
-0.0125955
-0.00028485
0.0134717
0.00377936
-0.00568416
-0.0202417
-0.0294183
-0.00396565
-0.001795
-0.00809753
-0.00625706
-0.0274582
-0.00873408
0.00652309
-0.00315515
-0.00482907
-0.00699251
-0.00289969
0.0201839
-0.0145703
-0.0249007
-0.0210009
-0.00307848
-0.00386669
-0.00394358
0.00359104
-0.0190018
0.00279726
0.0193626
-0.00817905
-0.00182287
0.00215472
0.000669626
-0.0178871
-0.017051
-0.00405753
-0.0103826
-0.00493378
-0.00240366
0.000641836
0.000493066
-0.000804411
0.0135128
0.00923023
-0.0427735
-0.0367666
0.00298759
-0.00766133
-0.00928595
-0.0154129
-0.0219152
-0.014756
0.00706977
0.000154243
0.000938646
0.0208017
0.00491855
-0.0137558
0.0161708
-0.0328314
-0.0504707
-0.0352707
-0.0309842
-0.0022794
0.00279379
-0.0154241
-0.00385662
0.00445598
-0.02231
-0.0186835
0.0103054
0.00190941
-0.0241655
-0.0323744
-0.0112496
-0.0129853
-0.00161059
0.0068839
-0.000224942
-0.00302926
-0.0113796
-0.000948622
-0.00119416
-0.0804059
-0.0476696
0.00195652
0.0178785
-0.017458
-0.00927991
0.0106509
0.00197398
-0.000198091
0.00682349
-0.00147558
0.012177
0.00526849
-0.0121883
0.00850421
-0.000395675
-0.00432546
-0.0222559
-0.00263631
-0.00399869
0.00398408
-0.01346
-0.0371867
-0.0307064
-0.0140598
-0.0183099
0.00174472
0.0140433
-0.00442516
-0.0272889
-0.0140191
-0.00491458
-0.00796798
0.00195851
0.000148478
-0.00164823
-0.00834711
-0.0012031
-0.000368365
-0.0286558
-0.0234061
0.00237391
0.0138421
0.0129316
-0.00859413
-0.0124878
-0.0216657
-0.0116397
0.00544893
-0.00176608
-0.00292596
-0.00586258
-0.0235557
-0.00853158
0.0155129
-0.0106203
0.0199208
0.00808953
-0.027528
-0.00346835
0.000975794
-0.0230762
0.00349159
-0.0019167
-0.0205408
-0.0115494
0.00172609
0.00799827
-0.0116493
-0.048614
-0.0336524
-0.00602499
0.0168109
0.00369506
-0.00254256
-0.0326081
-0.024503
0.00779932
0.00715424
-0.00706609
0.0101206
0.0263979
-0.0222935
-0.0361305
0.0180216
-0.0142138
-0.0211825
0.00385542
-0.0127198
-0.0267792
-0.020259
-0.0124516
-0.0110227
-0.0345668
-0.0296759
0.0387531
0.0325826
-0.00926938
-0.00346884
-1.89323e-05
-0.0151021
-0.00256095
0.00370688
-0.0114401
-0.0152063
0.0083496
0.0413668
0.0132626
-0.031589
-0.0419727
0.0141638
0.0732782
0.0218623
-0.0314449
-0.0172997
0.00270229
-0.021574
-0.0135497
0.00128166
0.0086767
0.00653062
-0.0170589
-0.0470423
0.0227525
0.0267549
-0.040508
-0.0177286
-0.00775207
-0.00958046
0.00698763
0.0247706
0.0212844
-0.0232711
-0.0394851
-0.0168171
-0.0120259
-0.000673546
0.0122303
0.0404047
0.0236725
-0.0454291
-0.02648
0.04261
0.0109179
0.00961049
-0.00312002
-0.0202552
-0.000596119
0.0280962
0.0515256
0.00991751
-0.00389559
-0.0306259
-0.0588381
0.00542766
0.0259686
0.00611348
-0.000653742
-0.00975939
-0.0277632
0.00269752
0.0473667
0.00763692
0.0260078
0.0194641
0.0163263
0.0587039
0.0441211
-0.00201341
-0.00217501
0.0267892
-0.0217354
-0.0470281
-0.0127042
-0.0124141
0.000261323
0.0119143
-0.00837039
-0.0162468
-0.00159578
0.00254788
0.00123863
0.0142757
0.0253662
0.00109365
0.00583328
0.00800492
0.0118836
0.0175665
-0.00623642
-0.0156177
0.00720889
0.00327118
0.00379037
0.00321822
-0.000684316
0.00151252
-0.00380995
-0.00739147
-0.00788227
-0.0055471
0.00249657
0.00761471
0.0135115
0.0107669
0.0121007
0.00712305
0.00107029
-0.000806394
-0.00280503
-0.00674377
8.22936e-06
0.00538718
-0.000571273
-0.00836636
0.000156423
0.0118502
-0.00837728
-0.0163957
-0.00165844
0.00254612
0.00121761
0.014051
0.0253082
0.00103152
0.00582102
0.00800399
0.01168
0.0177627
-0.00630386
-0.0158881
0.00707686
0.00328494
0.00358589
0.00318501
-0.000552613
0.00154436
-0.00389069
-0.00734837
-0.00784259
-0.00555334
0.00245152
0.00756252
0.0135334
0.0108354
0.0120022
0.00700277
0.00105432
-0.000735228
-0.00284355
-0.0068633
1.84025e-05
0.00541604
-0.000464297
-0.00840781
-0.000142587
0.0116063
-0.00850395
-0.0165841
-0.0018379
0.00243854
0.00108693
0.0137894
0.0251776
0.000799558
0.00576706
0.00799215
0.0114488
0.0179593
-0.00646323
-0.0165339
0.0067943
0.00319936
0.00272351
0.00305481
-0.000320956
0.00156908
-0.00405637
-0.00733537
-0.00785232
-0.00555848
0.00259287
0.0074497
0.0135904
0.0110723
0.011755
0.00689436
0.00112683
-0.000627226
-0.00288553
-0.00700507
0.000134907
0.00559374
-0.000394768
-0.00843608
-0.000570366
0.0108079
-0.00898617
-0.0170881
-0.00213997
0.00211714
0.00089441
0.0136304
0.0249201
0.000354524
0.005482
0.00783733
0.0112713
0.0179605
-0.00682978
-0.017259
0.00635573
0.00275244
0.00118392
0.00252151
-0.000217685
0.000949806
-0.00454388
-0.00758567
-0.0081605
-0.00579343
0.00261219
0.00723589
0.0133022
0.0110695
0.0113167
0.00669702
0.00108188
-0.00106825
-0.00324215
-0.00721668
0.000335557
0.00527771
-0.000582748
-0.00850879
-0.000427336
0.00954436
-0.00969687
-0.0176289
-0.00219064
0.0017018
0.000706368
0.0137811
0.0246272
0.00055059
0.00490995
0.0075515
0.0113291
0.0178637
-0.00714319
-0.0177773
0.00561581
0.00206408
-0.000554482
0.00158187
-0.00017539
0.000635212
-0.00508542
-0.00799446
-0.00862462
-0.00605396
0.00258091
0.00699946
0.0125603
0.0107436
0.0108078
0.00648996
0.000975836
-0.00154805
-0.00376131
-0.00742644
0.000658548
0.00499772
-0.00088097
-0.00841873
3.48872e-05
0.00794917
-0.0105217
-0.0182069
-0.00196257
0.00138901
0.000517555
0.0139044
0.0241009
6.80188e-05
0.00397852
0.00702551
0.0115573
0.0175184
-0.00738944
-0.0180879
0.00434593
0.00133593
-0.00244621
0.000598769
-2.49075e-05
0.000240976
-0.00561721
-0.008556
-0.00912435
-0.00624209
0.00238807
0.00677906
0.0116885
0.00994468
0.0100494
0.00650419
0.000918706
-0.00199804
-0.00422346
-0.00750901
0.000855447
0.00481279
-0.00117153
-0.00775168
0.000415936
0.00617868
-0.0114365
-0.0186982
-0.00177928
0.00100502
0.000297584
0.0140697
0.023224
-0.00101818
0.00265321
0.00637063
0.0115966
0.0164713
-0.00752357
-0.0180187
0.00267808
0.000691805
-0.00462058
7.21314e-09
0.000123417
-2.82537e-06
-0.00623518
-0.00941735
-0.00920532
-0.00635653
0.00196779
0.00655355
0.0110998
0.00875777
0.00859242
0.00693778
0.000944569
-0.00253867
-0.00434937
-0.00708528
0.000913092
0.00439208
-0.00148124
-0.0074953
0.00075355
0.00461943
-0.0123769
-0.0186447
-0.00192008
0.00018251
0.000159139
0.0137747
0.0221168
-0.0032306
0.000132687
0.00562884
0.011049
0.0147346
-0.00708358
-0.017677
0.0008424
-0.000482059
-0.00705872
-0.000199308
-6.21295e-05
-0.000171723
-0.00686009
-0.0105808
-0.00903834
-0.00566697
0.00148086
0.00607907
0.0107115
0.00740562
0.00716152
0.00772097
0.00106155
-0.00313472
-0.00446371
-0.00626432
0.000881637
0.003702
-0.00226453
-0.00727635
0.00122063
0.00358835
-0.0130145
-0.0183254
-0.00250455
-0.000899157
-0.000216488
0.0126123
0.0206477
-0.00648726
-0.00283835
0.00475831
0.00976973
0.0128758
-0.00629075
-0.0175585
-0.000992553
-4.33551e-05
-0.00906832
-0.00022663
-0.000592364
-0.000858809
-0.00718459
-0.0116018
-0.00899316
-0.00527139
0.00123868
0.00510407
0.0100913
0.00607127
0.00621189
0.00851621
0.00162918
-0.00359064
-0.00531251
-0.00594316
0.000495083
0.0030487
-0.00360718
-0.00675985
0.00179726
0.00333362
-0.0134829
-0.0184777
-0.00320504
-0.00198371
-0.000943511
0.0109171
0.0191424
-0.0100436
-0.00503274
0.00368231
0.00824291
0.0119274
-0.00520082
-0.0173055
-0.00255339
-0.000424516
-0.0100358
-0.000647293
-0.00125439
-0.00168089
-0.00637208
-0.0115373
-0.00854667
-0.0048912
0.00121318
0.00349832
0.00905125
0.00493992
0.0049238
0.0090505
0.00236844
-0.0043627
-0.00712189
-0.00617046
-0.000266791
0.00278307
-0.00482385
-0.00627242
0.00191413
0.00337115
-0.0135765
-0.0192776
-0.0036272
-0.00259478
-0.00189768
0.00859989
0.0184467
-0.0120532
-0.00621165
0.0040176
0.0069771
0.0115126
-0.00345044
-0.0163606
-0.00364583
-0.000519227
-0.0101023
-0.00194047
-0.00176773
-0.00169908
-0.0048155
-0.01026
-0.00772501
-0.00458735
0.000866346
0.00211471
0.00781724
0.0042212
0.003017
0.00961382
0.0023092
-0.00608006
-0.00931406
-0.0074259
-0.00135694
0.00256885
-0.00480969
-0.00620148
0.000665846
0.0026036
-0.0127653
-0.0196504
-0.00386768
-0.00199755
-0.0025773
0.00655126
0.0170268
-0.0105371
-0.00885743
0.00376545
0.00579614
0.0102214
-0.00119719
-0.0160463
-0.00539525
0.000143061
-0.00931592
-0.00304543
-0.00245011
-0.000884771
-0.00399987
-0.00886081
-0.00716301
-0.00461674
9.39209e-06
0.00118088
0.00664417
0.00405483
0.00120028
0.00940823
0.00213913
-0.00807613
-0.0111627
-0.00840814
-0.00268777
0.00175429
-0.00425066
-0.00602233
-0.000819681
0.00225243
-0.011581
-0.0195298
-0.00401472
-0.00288236
-0.00292848
0.00604404
0.0151667
-0.00756337
-0.0133748
0.00354029
0.00485634
0.00794735
0.00090573
-0.015382
-0.00824453
-0.00080683
-0.00811827
-0.00306391
-0.00383263
-0.000480417
-0.00409215
-0.00849861
-0.00728144
-0.00524606
-0.000293642
-0.000201152
0.00417971
0.00389609
0.000626757
0.00780157
0.00070167
-0.0109039
-0.0118069
-0.00863869
-0.00407561
0.00106602
-0.00407247
-0.0078819
-0.00101941
0.00256403
-0.0109627
-0.0196821
-0.003706
-0.00313961
-0.00199054
0.00784261
0.0138103
-0.00452312
-0.0158621
0.00157816
0.00509663
0.006451
0.00176843
-0.0160963
-0.00945595
-0.00188139
-0.00693505
-0.00317384
-0.0057374
-0.0012781
-0.00431664
-0.00906442
-0.00780461
-0.00377729
0.000807332
-0.00108858
-0.00105225
0.0018681
0.00110999
0.00570264
-0.000207078
-0.0138955
-0.0103714
-0.00755879
-0.00436972
0.00161133
-0.00335163
-0.00817037
-0.000605817
0.00138589
-0.0110832
-0.0190901
-0.00187461
-0.00342511
-0.00190198
0.00972673
0.0124277
-0.000556722
-0.0156238
-0.00124239
0.0055464
0.00506703
0.00248996
-0.018927
-0.0143965
-0.00269325
-0.00553301
-0.00302668
-0.00663397
-0.00212991
-0.00453333
-0.0104189
-0.00746168
-0.00476276
0.00096918
0.0025138
-0.00336426
-0.000915321
0.00222601
0.00531765
-0.00038889
-0.0136613
-0.00599417
-0.0051995
-0.00500181
0.00313551
-0.00202831
-0.00610223
-0.00292663
-0.000957438
-0.0136398
-0.0210317
0.00178449
-0.00412295
-0.0065041
0.00889435
0.0119742
0.00123304
-0.0143508
-0.00307586
0.00485099
0.00408991
0.000586063
-0.0202082
-0.016642
-0.00777741
-0.00575363
-0.00260631
-0.00635243
-0.00381019
-0.00402603
-0.0103102
-0.00643205
-0.00521193
0.000389128
0.00388011
-0.00313581
-0.000796671
0.00384898
0.00724373
0.000709623
-0.0112695
-0.0034134
-0.00113322
-0.00503998
0.00213254
-0.00200507
-0.00439068
0.00109001
-0.00441199
-0.0164336
-0.0205342
0.00542151
-0.00381655
-0.00986142
0.00876306
0.0117429
3.45021e-05
-0.0128237
-0.005888
0.00217842
0.00524579
-0.000620716
-0.0209174
-0.0169203
-0.0119191
-0.00929251
-0.00175012
-0.00590758
-0.00337902
-0.00105009
-0.00836742
-0.00751492
-0.00336412
-0.000275889
-0.000212864
-0.00379788
-0.00181253
0.00421128
0.0106724
0.000200211
-0.0108147
-0.00215417
-0.00137661
-0.00562284
-0.00536691
-0.00448601
-0.00325307
0.000568257
-0.00392202
-0.0138001
-0.0171563
0.00558988
-0.00375364
-0.00942531
0.0145401
0.0129574
-0.00387084
-0.0106459
-0.00257049
0.000754247
0.00116766
-0.00276307
-0.0138238
-0.000511248
-0.00793214
-0.00255825
0.000824696
-0.00589402
-0.00444549
-0.000758809
-0.0081521
-0.00666451
-0.00320717
-0.000961133
0.000433211
-0.00491189
-0.00277154
0.00236305
0.0037041
-0.00146051
-0.0116443
-0.00300769
0.00303872
-0.00621504
0.00347437
-0.00485933
-0.00165683
-0.00041228
-0.00355412
-0.0097127
-0.0073538
0.00565991
-0.00374206
-0.00717128
0.0205995
0.0118417
-0.0071727
-0.0084879
-0.00532551
-0.00166294
-0.00109888
-0.00189707
-0.00288191
0.00235076
-0.00042695
0.00237452
-0.000743498
-0.00712288
-0.00705033
-0.00472994
-0.00827809
-0.00188431
-0.000427513
-0.000184903
0.000898108
-0.00482428
-0.00564112
-0.000315846
0.00822305
-0.00240777
-0.0144338
-0.00427579
0.00223867
-0.0119774
-0.0135013
-0.00861253
0.000598202
4.34444e-05
-0.00562476
-0.00700571
-0.00436945
0.00291235
0.0011293
-0.0074613
0.0101923
0.000500084
-0.00397419
0.000547705
-0.00617973
-0.000675039
-0.002227
-0.00834916
0.00459163
0.00471237
0.00409936
0.00494085
-0.00201808
-0.010506
-0.00392958
-0.00134775
-0.00493187
-0.00536853
-0.00190438
-0.00460686
-0.0011536
-0.00423408
-0.00756346
-0.00585552
0.00171828
-0.00543321
-0.0147623
-0.00602748
0.000907006
-0.0153048
-0.0122392
-0.00234815
0.00208482
-0.00636361
-0.0157252
-0.00468507
0.000356374
0.00669899
0.00653847
0.00145355
0.00865439
-0.00920745
-0.011742
0.00500517
-0.00305745
-0.00191443
-0.00305394
-0.000720249
0.00235709
0.0011862
-0.00395299
0.003441
0.00407052
-0.0107634
-0.0154349
-0.00465531
-0.00753374
-0.0035333
0.00206287
-0.00285529
-0.0023128
-0.00440429
-0.0101152
-0.00790418
-0.00548601
-0.00739758
-0.00847729
-0.00665189
-0.00729789
-0.0125246
-0.0176625
-0.00925794
0.00112792
-0.00299997
-0.00662249
-0.00238763
0.00586409
-0.000915474
-0.00147042
-0.00300169
0.000451933
-0.0148004
-0.0175871
-0.00878434
-0.0209648
-0.0034147
0.000931763
-0.0118568
-0.00990956
0.00214043
0.0029861
-0.00226691
0.00206161
-0.00728393
-0.0108035
-0.00512432
-0.00662844
0.00264512
0.00459521
-0.00296087
-0.00815662
-0.00653206
-0.0018537
0.000677716
9.77306e-05
-0.00464498
-0.00738615
-0.00967898
-0.00628155
-0.00571827
-0.00758725
-0.00803328
-0.000987966
-0.000623972
-0.0141737
-0.00816375
0.00641489
0.00222637
-0.00208352
-0.00022794
-0.005612
-0.00788897
-0.0106987
-0.0163845
-0.0118
-0.00360906
-0.000648497
0.0126323
-0.0154997
-0.0356822
-0.00734716
-0.0109683
0.000572754
-0.00359367
-0.00988172
-0.00824049
-0.00390348
-0.00764582
-0.00449623
-0.00503648
-0.00830561
-0.00395946
-0.0046227
-0.00891332
-0.0106578
-0.00597329
-0.00232283
0.00106891
-0.00291851
-0.0131356
-0.00942258
-0.00480646
-0.00232059
0.00364673
-0.0168465
-0.0083505
0.000408145
0.00132525
0.00174088
0.00675823
-0.00120745
-0.00718957
-0.0121047
-0.0104823
-0.00640631
0.00516871
0.00496569
-0.0158497
-0.0167573
0.00454581
0.00714283
-0.00946663
-0.0041897
0.00010255
-0.0103051
-0.0116717
-0.00622397
-0.0105601
-0.0136322
-0.00868955
-0.00674923
-0.00930361
0.0095595
0.000923158
-0.00843654
-0.00808634
-0.00877933
-0.000910624
0.00250826
-0.00697933
-0.00715441
-0.00302692
0.00214277
-0.00653643
-0.00861621
0.00229993
0.0150785
0.00250844
-0.00218596
0.00720969
-0.00887439
-0.015623
-0.00941612
-0.00190059
0.00383078
-0.00173088
-0.0067779
-0.00652358
-0.000120363
-0.00797024
0.0120288
-0.002699
-0.00927896
-0.00176466
-0.0114639
-0.00991654
-0.000625829
-0.00980044
-0.0146385
0.00549844
-0.0044426
-0.018748
-0.0116052
-0.00539936
-0.0120249
-0.00369685
-0.0141061
-0.0115084
-0.00377336
-0.00381883
0.00279234
-0.00642782
-0.00662395
-0.0209877
-0.0077639
-0.00228726
-0.0103341
-0.00691076
-0.0085686
-0.0121358
-0.012518
-0.0127794
-0.00333126
-0.00729144
-0.00926759
-0.00917695
0.000766085
0.0143492
-0.00225362
-0.00594289
0.00115829
-0.0079211
0.00189295
0.00189298
-0.0151306
-0.0132872
0.00656434
-0.00469957
-0.009583
-0.00761807
-0.0172877
-0.0219888
-0.0104234
-0.00665353
-0.00666502
-0.0114623
-0.034784
-0.0192442
-0.00409658
-0.00613749
-0.00604985
-0.00898631
-0.0198205
-0.0372081
-0.0227788
-0.0161871
-0.0117072
-0.010182
-0.00158734
0.000971314
-0.00251173
-0.0160027
-0.00108145
0.0122151
0.00269581
0.00759108
0.00510496
0.00133751
-0.019726
-0.0311811
-0.00552311
-0.00135624
-0.00133943
-0.0132026
-0.017401
-0.00631152
0.00242903
-0.00746707
-0.000371494
-0.00130349
0.0107027
-0.00331672
-0.0109548
-0.0244201
-0.0148208
-0.0076817
0.00111044
-0.00234566
-0.00104893
-0.00222548
-0.0089258
-0.00366647
-0.00603855
-0.02889
-0.0271221
-0.0127501
-0.00426067
-0.0167982
-0.00603127
-0.0133316
-0.0132
-0.00165106
0.00971423
0.0132589
-0.00346963
-0.0172525
-0.00455652
-0.00696665
-0.015744
-0.0154809
-0.00840906
0.000974517
0.0219218
-0.00646706
-0.0192039
-0.00405192
0.00021728
-0.0106114
0.00358565
-0.00356586
-0.0284594
-0.000831205
-0.00952448
-0.00891406
0.0101273
-0.00533729
-0.0117915
0.00278372
0.00529428
0.00625374
0.00224707
-0.00547655
-0.00661062
-0.0104967
0.00642585
0.00824946
0.00314872
0.000685886
-0.00573508
-0.00376426
0.000937554
-0.00365396
0.011192
-0.00298928
-0.0115144
-0.00475726
-0.00560867
-0.0086068
-0.0181435
-0.0203551
0.00458371
0.0111538
0.00278891
-0.00984181
-0.0142522
0.00401468
-0.0086323
-0.0171873
-0.0114965
-0.0213413
-0.00895928
-0.0115725
-0.0168361
-0.00595814
-0.00274494
-0.0122147
0.00182692
-0.0097918
-0.0113753
0.0149805
0.00926059
-0.0141674
-0.0138059
-0.0174277
0.00369286
0.00526971
0.0105847
0.0275617
-0.012287
-0.00176185
0.0203171
-0.00252761
-0.0162233
-0.00634849
0.00439531
-0.00480443
-0.0108227
-0.0185496
-0.0193791
-0.00842612
0.0132497
-0.000542635
-0.00621026
-0.00667078
0.00228158
-0.000148279
-0.0104393
-0.0231394
-0.0137543
-0.0110803
-0.0192501
-0.048314
-0.00849649
0.00611309
-0.00399567
-0.0164914
-0.0372206
-0.0291558
-0.0178027
-0.00301898
0.00856341
-0.0213023
-0.029869
1.09747e-05
0.0198047
0.0104195
-0.0222307
-0.0331974
-0.00777496
0.0177045
7.50559e-05
-0.00707767
0.0202635
0.0232091
-0.000236063
-0.00137397
-0.00144918
-0.0273356
0.00803442
1.96506e-05
-0.00786383
-0.0190259
0.0125046
0.00366934
-0.0378641
-0.0210957
0.00994545
0.00726919
0.00748846
0.0014004
0.0194605
0.0201039
0.0192058
0.0148805
-0.0325914
-0.0424015
0.0135021
0.0496965
0.0430644
0.0575957
-0.0289018
-0.0553404
-0.00933107
0.010045
0.00549959
-0.0127066
0.0219864
0.0202322
0.00414156
0.0115351
0.0281299
0.020563
0.0121283
-0.0109002
-0.0150623
0.012079
0.0148568
-0.0140431
-0.0231157
-0.0338097
-0.0420074
-0.0265658
0.00479346
0.00850868
-0.026249
-0.0106072
-0.0378391
-0.102078
-0.0163773
0.00406607
-0.0174977
-0.0122316
0.001785
0.00345297
0.0271962
0.0427158
0.0201275
0.00915583
-0.0104464
-0.0386265
-0.0559522
-0.0109052
0.0326339
-0.00112425
0.0132534
0.00210846
-0.0117869
-0.00143892
0.00163346
0.00581564
0.0160595
0.00193843
-0.0049241
0.00942968
0.00978895
-0.00072127
0.0173944
0.00701381
-0.0172392
-0.00249221
0.00690543
0.00342573
-0.00487017
0.00057228
-0.00213471
-0.000331561
0.00187796
-0.00663207
-0.000217985
0.00538145
-0.00329489
-0.0044014
-0.0010009
-0.00398655