/*--------------------------------*- C++ -*----------------------------------*\
  =========                 |
  \\      /  F ield         | OpenFOAM: The Open Source CFD Toolbox
   \\    /   O peration     | Website:  https://openfoam.org
    \\  /    A nd           | Version:  10
     \\/     M anipulation  |
\*---------------------------------------------------------------------------*/
FoamFile
{
    format      ascii;
    class       volVectorField;
    location    "22.5";
    object      UWrite;
}
// * * * * * * * * * * * * * * * * * * * * * * * * * * * * * * * * * * * * * //

dimensions      [0 1 -1 0 0 0 0];

internalField   uniform (0 0 0);

boundaryField
{
    bottomWall
    {
        type            calculated;
        value           nonuniform List<vector> 
800
(
(6.92757e-310 6.92757e-310 4.67542e-310)
(4.67542e-310 0.21416 1.975)
(0.65 0.240547 1.975)
(0.65 0.269572 1.975)
(0.65 0.3015 1.975)
(0.65 0.33662 1.975)
(0.65 0.375252 1.975)
(0.65 0.417747 1.975)
(0.65 0.464491 1.975)
(0.65 0.515908 1.975)
(0.75 0.515908 1.975)
(0.85 0.515908 1.975)
(0.95 0.515908 1.975)
(1.05 0.515908 1.975)
(1.15 0.515908 1.975)
(1.25 0.515908 1.975)
(1.35 0.515908 1.975)
(1.45 0.515908 1.975)
(1.55 0.515908 1.975)
(1.65 0.515908 1.975)
(1.75 0.515908 1.975)
(1.85 0.515908 1.975)
(1.95 0.515908 1.975)
(2.05 0.515908 1.975)
(2.05 0.464491 1.975)
(2.05 0.417747 1.975)
(2.15 0.417747 1.975)
(2.25 0.417747 1.975)
(2.35 0.417747 1.975)
(2.45 0.417747 1.975)
(2.55 0.417747 1.975)
(2.65 0.417747 1.975)
(2.75 0.417747 1.975)
(2.85 0.417747 1.975)
(2.95 0.417747 1.975)
(3.05 0.417747 1.975)
(3.15 0.417747 1.975)
(3.25 0.417747 1.975)
(3.25 0.375252 1.975)
(3.25 0.33662 1.975)
(3.25 0.3015 1.975)
(3.25 0.269572 1.975)
(3.25 0.240547 1.975)
(3.25 0.21416 1.975)
(3.25 0.190172 1.975)
(3.25 0.168364 1.975)
(3.25 0.148539 1.975)
(3.25 0.130516 1.975)
(3.25 0.114131 1.975)
(3.25 0.099236 1.975)
(3.25 0.0856946 1.975)
(3.25 0.0733843 1.975)
(3.25 0.0621929 1.975)
(3.25 0.0520189 1.975)
(3.15 0.0520189 1.975)
(3.05 0.0520189 1.975)
(2.95 0.0520189 1.975)
(2.85 0.0520189 1.975)
(2.75 0.0520189 1.975)
(2.65 0.0520189 1.975)
(2.55 0.0520189 1.975)
(2.45 0.0520189 1.975)
(2.35 0.0520189 1.975)
(2.25 0.0520189 1.975)
(2.15 0.0520189 1.975)
(2.05 0.0520189 1.975)
(1.95 0.0520189 1.975)
(1.85 0.0520189 1.975)
(1.75 0.0520189 1.975)
(1.65 0.0520189 1.975)
(1.55 0.0520189 1.975)
(1.45 0.0520189 1.975)
(1.35 0.0520189 1.975)
(1.25 0.0520189 1.975)
(1.15 0.0520189 1.975)
(1.05 0.0520189 1.975)
(0.95 0.0520189 1.975)
(0.85 0.0520189 1.975)
(0.75 0.0520189 1.975)
(0.75 0.0621929 1.975)
(0.75 0.0733843 1.975)
(0.75 0.0856946 1.975)
(0.75 0.099236 1.975)
(0.75 0.114131 1.975)
(0.75 0.130516 1.975)
(0.75 0.148539 1.975)
(0.75 0.168364 1.975)
(0.75 0.190172 1.975)
(0.75 0.21416 1.975)
(0.75 0.240547 1.975)
(0.75 0.269572 1.975)
(0.75 0.3015 1.975)
(0.75 0.33662 1.975)
(0.75 0.375252 1.975)
(0.75 0.417747 1.975)
(0.75 0.464491 1.975)
(0.85 0.464491 1.975)
(0.95 0.464491 1.975)
(1.05 0.464491 1.975)
(1.15 0.464491 1.975)
(1.25 0.464491 1.975)
(1.35 0.464491 1.975)
(1.45 0.464491 1.975)
(1.55 0.464491 1.975)
(1.65 0.464491 1.975)
(1.75 0.464491 1.975)
(1.85 0.464491 1.975)
(1.95 0.464491 1.975)
(1.95 0.417747 1.975)
(1.95 0.375252 1.975)
(2.05 0.375252 1.975)
(2.15 0.375252 1.975)
(2.25 0.375252 1.975)
(2.35 0.375252 1.975)
(2.45 0.375252 1.975)
(2.55 0.375252 1.975)
(2.65 0.375252 1.975)
(2.75 0.375252 1.975)
(2.85 0.375252 1.975)
(2.95 0.375252 1.975)
(3.05 0.375252 1.975)
(3.15 0.375252 1.975)
(3.15 0.33662 1.975)
(3.15 0.3015 1.975)
(3.15 0.269572 1.975)
(3.15 0.240547 1.975)
(3.15 0.21416 1.975)
(3.15 0.190172 1.975)
(3.15 0.168364 1.975)
(3.15 0.148539 1.975)
(3.15 0.130516 1.975)
(3.15 0.114131 1.975)
(3.15 0.099236 1.975)
(3.15 0.0856946 1.975)
(3.15 0.0733843 1.975)
(3.15 0.0621929 1.975)
(3.05 0.0621929 1.975)
(2.95 0.0621929 1.975)
(2.85 0.0621929 1.975)
(2.75 0.0621929 1.975)
(2.65 0.0621929 1.975)
(2.55 0.0621929 1.975)
(2.45 0.0621929 1.975)
(2.35 0.0621929 1.975)
(2.25 0.0621929 1.975)
(2.15 0.0621929 1.975)
(2.05 0.0621929 1.975)
(1.95 0.0621929 1.975)
(1.85 0.0621929 1.975)
(1.75 0.0621929 1.975)
(1.65 0.0621929 1.975)
(1.55 0.0621929 1.975)
(1.45 0.0621929 1.975)
(1.35 0.0621929 1.975)
(1.25 0.0621929 1.975)
(1.15 0.0621929 1.975)
(1.05 0.0621929 1.975)
(0.95 0.0621929 1.975)
(0.85 0.0621929 1.975)
(0.85 0.0733843 1.975)
(0.85 0.0856946 1.975)
(0.85 0.099236 1.975)
(0.85 0.114131 1.975)
(0.85 0.130516 1.975)
(0.85 0.148539 1.975)
(0.85 0.168364 1.975)
(0.85 0.190172 1.975)
(0.85 0.21416 1.975)
(0.85 0.240547 1.975)
(0.85 0.269572 1.975)
(0.85 0.3015 1.975)
(0.85 0.33662 1.975)
(0.85 0.375252 1.975)
(0.85 0.417747 1.975)
(0.95 0.417747 1.975)
(1.05 0.417747 1.975)
(1.15 0.417747 1.975)
(1.25 0.417747 1.975)
(1.35 0.417747 1.975)
(1.45 0.417747 1.975)
(1.55 0.417747 1.975)
(1.65 0.417747 1.975)
(1.75 0.417747 1.975)
(1.85 0.417747 1.975)
(1.85 0.375252 1.975)
(1.85 0.33662 1.975)
(1.95 0.33662 1.975)
(2.05 0.33662 1.975)
(2.15 0.33662 1.975)
(2.25 0.33662 1.975)
(2.35 0.33662 1.975)
(2.45 0.33662 1.975)
(2.55 0.33662 1.975)
(2.65 0.33662 1.975)
(2.75 0.33662 1.975)
(2.85 0.33662 1.975)
(2.95 0.33662 1.975)
(3.05 0.33662 1.975)
(3.05 0.3015 1.975)
(3.05 0.269572 1.975)
(3.05 0.240547 1.975)
(3.05 0.21416 1.975)
(3.05 0.190172 1.975)
(3.05 0.168364 1.975)
(3.05 0.148539 1.975)
(3.05 0.130516 1.975)
(3.05 0.114131 1.975)
(3.05 0.099236 1.975)
(3.05 0.0856946 1.975)
(3.05 0.0733843 1.975)
(2.95 0.0733843 1.975)
(2.85 0.0733843 1.975)
(2.75 0.0733843 1.975)
(2.65 0.0733843 1.975)
(2.55 0.0733843 1.975)
(2.45 0.0733843 1.975)
(2.35 0.0733843 1.975)
(2.25 0.0733843 1.975)
(2.15 0.0733843 1.975)
(2.05 0.0733843 1.975)
(1.95 0.0733843 1.975)
(1.85 0.0733843 1.975)
(1.75 0.0733843 1.975)
(1.65 0.0733843 1.975)
(1.55 0.0733843 1.975)
(1.45 0.0733843 1.975)
(1.35 0.0733843 1.975)
(1.25 0.0733843 1.975)
(1.15 0.0733843 1.975)
(1.05 0.0733843 1.975)
(0.95 0.0733843 1.975)
(0.95 0.0856946 1.975)
(0.95 0.099236 1.975)
(0.95 0.114131 1.975)
(0.95 0.130516 1.975)
(0.95 0.148539 1.975)
(0.95 0.168364 1.975)
(0.95 0.190172 1.975)
(0.95 0.21416 1.975)
(0.95 0.240547 1.975)
(0.95 0.269572 1.975)
(0.95 0.3015 1.975)
(0.95 0.33662 1.975)
(0.95 0.375252 1.975)
(1.05 0.375252 1.975)
(1.15 0.375252 1.975)
(1.25 0.375252 1.975)
(1.35 0.375252 1.975)
(1.45 0.375252 1.975)
(1.55 0.375252 1.975)
(1.65 0.375252 1.975)
(1.75 0.375252 1.975)
(1.75 0.33662 1.975)
(1.75 0.3015 1.975)
(1.85 0.3015 1.975)
(1.95 0.3015 1.975)
(2.05 0.3015 1.975)
(2.15 0.3015 1.975)
(2.25 0.3015 1.975)
(2.35 0.3015 1.975)
(2.45 0.3015 1.975)
(2.55 0.3015 1.975)
(2.65 0.3015 1.975)
(2.75 0.3015 1.975)
(2.85 0.3015 1.975)
(2.95 0.3015 1.975)
(2.95 0.269572 1.975)
(2.95 0.240547 1.975)
(2.95 0.21416 1.975)
(2.95 0.190172 1.975)
(2.95 0.168364 1.975)
(2.95 0.148539 1.975)
(2.95 0.130516 1.975)
(2.95 0.114131 1.975)
(2.95 0.099236 1.975)
(2.95 0.0856946 1.975)
(2.85 0.0856946 1.975)
(2.75 0.0856946 1.975)
(2.65 0.0856946 1.975)
(2.55 0.0856946 1.975)
(2.45 0.0856946 1.975)
(2.35 0.0856946 1.975)
(2.25 0.0856946 1.975)
(2.15 0.0856946 1.975)
(2.05 0.0856946 1.975)
(1.95 0.0856946 1.975)
(1.85 0.0856946 1.975)
(1.75 0.0856946 1.975)
(1.65 0.0856946 1.975)
(1.55 0.0856946 1.975)
(1.45 0.0856946 1.975)
(1.35 0.0856946 1.975)
(1.25 0.0856946 1.975)
(1.15 0.0856946 1.975)
(1.05 0.0856946 1.975)
(1.05 0.099236 1.975)
(1.05 0.114131 1.975)
(1.05 0.130516 1.975)
(1.05 0.148539 1.975)
(1.05 0.168364 1.975)
(1.05 0.190172 1.975)
(1.05 0.21416 1.975)
(1.05 0.240547 1.975)
(1.05 0.269572 1.975)
(1.05 0.3015 1.975)
(1.05 0.33662 1.975)
(1.15 0.33662 1.975)
(1.25 0.33662 1.975)
(1.35 0.33662 1.975)
(1.45 0.33662 1.975)
(1.55 0.33662 1.975)
(1.65 0.33662 1.975)
(1.65 0.3015 1.975)
(1.65 0.269572 1.975)
(1.75 0.269572 1.975)
(1.85 0.269572 1.975)
(1.95 0.269572 1.975)
(2.05 0.269572 1.975)
(2.15 0.269572 1.975)
(2.25 0.269572 1.975)
(2.35 0.269572 1.975)
(2.45 0.269572 1.975)
(2.55 0.269572 1.975)
(2.65 0.269572 1.975)
(2.75 0.269572 1.975)
(2.85 0.269572 1.975)
(2.85 0.240547 1.975)
(2.85 0.21416 1.975)
(2.85 0.190172 1.975)
(2.85 0.168364 1.975)
(2.85 0.148539 1.975)
(2.85 0.130516 1.975)
(2.85 0.114131 1.975)
(2.85 0.099236 1.975)
(2.75 0.099236 1.975)
(2.65 0.099236 1.975)
(2.55 0.099236 1.975)
(2.45 0.099236 1.975)
(2.35 0.099236 1.975)
(2.25 0.099236 1.975)
(2.15 0.099236 1.975)
(2.05 0.099236 1.975)
(1.95 0.099236 1.975)
(1.85 0.099236 1.975)
(1.75 0.099236 1.975)
(1.65 0.099236 1.975)
(1.55 0.099236 1.975)
(1.45 0.099236 1.975)
(1.35 0.099236 1.975)
(1.25 0.099236 1.975)
(1.15 0.099236 1.975)
(1.15 0.114131 1.975)
(1.15 0.130516 1.975)
(1.15 0.148539 1.975)
(1.15 0.168364 1.975)
(1.15 0.190172 1.975)
(1.15 0.21416 1.975)
(1.15 0.240547 1.975)
(1.15 0.269572 1.975)
(1.15 0.3015 1.975)
(1.25 0.3015 1.975)
(1.35 0.3015 1.975)
(1.45 0.3015 1.975)
(1.55 0.3015 1.975)
(1.55 0.269572 1.975)
(1.55 0.240547 1.975)
(1.65 0.240547 1.975)
(1.75 0.240547 1.975)
(1.85 0.240547 1.975)
(1.95 0.240547 1.975)
(2.05 0.240547 1.975)
(2.15 0.240547 1.975)
(2.25 0.240547 1.975)
(2.35 0.240547 1.975)
(2.45 0.240547 1.975)
(2.55 0.240547 1.975)
(2.65 0.240547 1.975)
(2.75 0.240547 1.975)
(2.75 0.21416 1.975)
(2.75 0.190172 1.975)
(2.75 0.168364 1.975)
(2.75 0.148539 1.975)
(2.75 0.130516 1.975)
(2.75 0.114131 1.975)
(2.65 0.114131 1.975)
(2.55 0.114131 1.975)
(2.45 0.114131 1.975)
(2.35 0.114131 1.975)
(2.25 0.114131 1.975)
(2.15 0.114131 1.975)
(2.05 0.114131 1.975)
(1.95 0.114131 1.975)
(1.85 0.114131 1.975)
(1.75 0.114131 1.975)
(1.65 0.114131 1.975)
(1.55 0.114131 1.975)
(1.45 0.114131 1.975)
(1.35 0.114131 1.975)
(1.25 0.114131 1.975)
(1.25 0.130516 1.975)
(1.25 0.148539 1.975)
(1.25 0.168364 1.975)
(1.25 0.190172 1.975)
(1.25 0.21416 1.975)
(1.25 0.240547 1.975)
(1.25 0.269572 1.975)
(1.35 0.269572 1.975)
(1.45 0.269572 1.975)
(1.45 0.240547 1.975)
(1.45 0.21416 1.975)
(1.55 0.21416 1.975)
(1.65 0.21416 1.975)
(1.75 0.21416 1.975)
(1.85 0.21416 1.975)
(1.95 0.21416 1.975)
(2.05 0.21416 1.975)
(2.15 0.21416 1.975)
(2.25 0.21416 1.975)
(2.35 0.21416 1.975)
(2.45 0.21416 1.975)
(2.55 0.21416 1.975)
(2.65 0.21416 1.975)
(2.65 0.190172 1.975)
(2.65 0.168364 1.975)
(2.65 0.148539 1.975)
(2.65 0.130516 1.975)
(2.55 0.130516 1.975)
(2.45 0.130516 1.975)
(2.35 0.130516 1.975)
(2.25 0.130516 1.975)
(2.15 0.130516 1.975)
(2.05 0.130516 1.975)
(1.95 0.130516 1.975)
(1.85 0.130516 1.975)
(1.75 0.130516 1.975)
(1.65 0.130516 1.975)
(1.55 0.130516 1.975)
(1.45 0.130516 1.975)
(1.35 0.130516 1.975)
(1.35 0.148539 1.975)
(1.35 0.168364 1.975)
(1.35 0.190172 1.975)
(1.35 0.21416 1.975)
(1.35 0.240547 1.975)
(1.45 0.190172 1.975)
(1.55 0.190172 1.975)
(1.65 0.190172 1.975)
(1.75 0.190172 1.975)
(1.85 0.190172 1.975)
(1.95 0.190172 1.975)
(2.05 0.190172 1.975)
(2.15 0.190172 1.975)
(2.25 0.190172 1.975)
(2.35 0.190172 1.975)
(2.45 0.190172 1.975)
(2.55 0.190172 1.975)
(2.55 0.168364 1.975)
(2.55 0.148539 1.975)
(2.45 0.148539 1.975)
(2.35 0.148539 1.975)
(2.25 0.148539 1.975)
(2.15 0.148539 1.975)
(2.05 0.148539 1.975)
(1.95 0.148539 1.975)
(1.85 0.148539 1.975)
(1.75 0.148539 1.975)
(1.65 0.148539 1.975)
(1.55 0.148539 1.975)
(1.45 0.148539 1.975)
(1.45 0.168364 1.975)
(1.55 0.168364 1.975)
(1.65 0.168364 1.975)
(1.75 0.168364 1.975)
(1.85 0.168364 1.975)
(1.95 0.168364 1.975)
(2.05 0.168364 1.975)
(2.15 0.168364 1.975)
(2.25 0.168364 1.975)
(2.35 0.168364 1.975)
(2.45 0.168364 1.975)
(0 0 0)
(0 0 0)
(0 0 0)
(0 0 0)
(0 0 0)
(0 0 0)
(0 0 0)
(0 0 0)
(0 0 0)
(0 0 0)
(0 0 0)
(0 0 0)
(0 0 0)
(0 0 0)
(0 0 0)
(0 0 0)
(0 0 0)
(0 0 0)
(0 0 0)
(0 0 0)
(0 0 0)
(0 0 0)
(0 0 0)
(0 0 0)
(0 0 0)
(0 0 0)
(0 0 0)
(0 0 0)
(0 0 0)
(0 0 0)
(0 0 0)
(0 0 0)
(0 0 0)
(0 0 0)
(0 0 0)
(0 0 0)
(0 0 0)
(0 0 0)
(0 0 0)
(0 0 0)
(0 0 0)
(0 0 0)
(0 0 0)
(0 0 0)
(0 0 0)
(0 0 0)
(0 0 0)
(0 0 0)
(0 0 0)
(0 0 0)
(0 0 0)
(0 0 0)
(0 0 0)
(0 0 0)
(0 0 0)
(0 0 0)
(0 0 0)
(0 0 0)
(0 0 0)
(0 0 0)
(0 0 0)
(0 0 0)
(0 0 0)
(0 0 0)
(0 0 0)
(0 0 0)
(0 0 0)
(0 0 0)
(0 0 0)
(0 0 0)
(0 0 0)
(0 0 0)
(0 0 0)
(0 0 0)
(0 0 0)
(0 0 0)
(0 0 0)
(0 0 0)
(0 0 0)
(0 0 0)
(0 0 0)
(0 0 0)
(0 0 0)
(0 0 0)
(0 0 0)
(0 0 0)
(0 0 0)
(0 0 0)
(0 0 0)
(0 0 0)
(0 0 0)
(0 0 0)
(0 0 0)
(0 0 0)
(0 0 0)
(0 0 0)
(0 0 0)
(0 0 0)
(0 0 0)
(0 0 0)
(0 0 0)
(0 0 0)
(0 0 0)
(0 0 0)
(0 0 0)
(0 0 0)
(0 0 0)
(0 0 0)
(0 0 0)
(0 0 0)
(0 0 0)
(0 0 0)
(0 0 0)
(0 0 0)
(0 0 0)
(0 0 0)
(0 0 0)
(0 0 0)
(0 0 0)
(0 0 0)
(0 0 0)
(0 0 0)
(0 0 0)
(0 0 0)
(0 0 0)
(0 0 0)
(0 0 0)
(0 0 0)
(0 0 0)
(0 0 0)
(0 0 0)
(0 0 0)
(0 0 0)
(0 0 0)
(0 0 0)
(0 0 0)
(0 0 0)
(0 0 0)
(0 0 0)
(0 0 0)
(0 0 0)
(0 0 0)
(0 0 0)
(0 0 0)
(0 0 0)
(0 0 0)
(0 0 0)
(0 0 0)
(0 0 0)
(0 0 0)
(0 0 0)
(0 0 0)
(0 0 0)
(0 0 0)
(0 0 0)
(0 0 0)
(0 0 0)
(0 0 0)
(0 0 0)
(0 0 0)
(0 0 0)
(0 0 0)
(0 0 0)
(0 0 0)
(0 0 0)
(0 0 0)
(0 0 0)
(0 0 0)
(0 0 0)
(0 0 0)
(0 0 0)
(0 0 0)
(0 0 0)
(0 0 0)
(0 0 0)
(0 0 0)
(0 0 0)
(0 0 0)
(0 0 0)
(0 0 0)
(0 0 0)
(0 0 0)
(0 0 0)
(0 0 0)
(0 0 0)
(0 0 0)
(0 0 0)
(0 0 0)
(0 0 0)
(0 0 0)
(0 0 0)
(0 0 0)
(0 0 0)
(0 0 0)
(0 0 0)
(0 0 0)
(0 0 0)
(0 0 0)
(0 0 0)
(0 0 0)
(0 0 0)
(0 0 0)
(0 0 0)
(0 0 0)
(0 0 0)
(0 0 0)
(0 0 0)
(0 0 0)
(0 0 0)
(0 0 0)
(0 0 0)
(0 0 0)
(0 0 0)
(0 0 0)
(0 0 0)
(0 0 0)
(0 0 0)
(0 0 0)
(0 0 0)
(0 0 0)
(0 0 0)
(0 0 0)
(0 0 0)
(0 0 0)
(0 0 0)
(0 0 0)
(0 0 0)
(0 0 0)
(0 0 0)
(0 0 0)
(0 0 0)
(0 0 0)
(0 0 0)
(0 0 0)
(0 0 0)
(0 0 0)
(0 0 0)
(0 0 0)
(0 0 0)
(0 0 0)
(0 0 0)
(0 0 0)
(0 0 0)
(0 0 0)
(0 0 0)
(0 0 0)
(0 0 0)
(0 0 0)
(0 0 0)
(0 0 0)
(0 0 0)
(0 0 0)
(0 0 0)
(0 0 0)
(0 0 0)
(0 0 0)
(0 0 0)
(0 0 0)
(0 0 0)
(0 0 0)
(0 0 0)
(0 0 0)
(0 0 0)
(0 0 0)
(0 0 0)
(0 0 0)
(0 0 0)
(0 0 0)
(0 0 0)
(0 0 0)
(0 0 0)
(0 0 0)
(0 0 0)
(0 0 0)
(0 0 0)
(0 0 0)
(0 0 0)
(0 0 0)
(0 0 0)
(0 0 0)
(0 0 0)
(0 0 0)
(0 0 0)
(0 0 0)
(0 0 0)
(0 0 0)
(0 0 0)
(0 0 0)
(0 0 0)
(0 0 0)
(0 0 0)
(0 0 0)
(0 0 0)
(0 0 0)
(0 0 0)
(0 0 0)
(0 0 0)
(0 0 0)
(0 0 0)
(0 0 0)
(0 0 0)
(0 0 0)
(0 0 0)
(0 0 0)
(0 0 0)
(0 0 0)
(0 0 0)
(0 0 0)
(0 0 0)
(0 0 0)
(0 0 0)
(0 0 0)
(0 0 0)
(0 0 0)
(0 0 0)
(0 0 0)
(0 0 0)
(0 0 0)
(0 0 0)
(0 0 0)
)
;
    }
    topWall
    {
        type            calculated;
        value           nonuniform List<vector> 0();
    }
    sides1_half0
    {
        type            cyclic;
    }
    sides1_half1
    {
        type            cyclic;
    }
    sides2_half0
    {
        type            cyclic;
    }
    sides2_half1
    {
        type            cyclic;
    }
    inout1_half0
    {
        type            cyclic;
    }
    inout1_half1
    {
        type            cyclic;
    }
    inout2_half0
    {
        type            cyclic;
    }
    inout2_half1
    {
        type            cyclic;
    }
    procBoundary2to0
    {
        type            processor;
        value           uniform (0 0 0);
    }
    procBoundary2to0throughsides1_half1
    {
        type            processorCyclic;
        value           uniform (0 0 0);
    }
    procBoundary2to3
    {
        type            processor;
        value           uniform (0 0 0);
    }
}


// ************************************************************************* //
