/*--------------------------------*- C++ -*----------------------------------*\
  =========                 |
  \\      /  F ield         | OpenFOAM: The Open Source CFD Toolbox
   \\    /   O peration     | Website:  https://openfoam.org
    \\  /    A nd           | Version:  10
     \\/     M anipulation  |
\*---------------------------------------------------------------------------*/
FoamFile
{
    format      ascii;
    class       volVectorField;
    location    "42.5";
    object      U_0;
}
// * * * * * * * * * * * * * * * * * * * * * * * * * * * * * * * * * * * * * //

dimensions      [0 1 -1 0 0 0 0];

internalField   nonuniform List<vector> 
102400
(
(0.0170711 -1.67507e-08 5.13069e-08)
(0.0170709 1.8172e-08 -5.47286e-08)
(0.0170711 -1.36206e-08 -1.83249e-07)
(0.0170712 1.71564e-09 2.92567e-08)
(0.017071 1.27801e-08 -2.81669e-07)
(0.0170714 -2.5701e-08 -1.03832e-07)
(0.0170711 2.90426e-08 -1.73135e-07)
(0.0170713 -2.42256e-08 -3.27923e-07)
(0.0170714 9.76025e-09 -9.6417e-08)
(0.0170711 3.21041e-09 -3.98305e-07)
(0.0170715 -1.50841e-08 -1.80798e-07)
(0.0170712 1.6835e-08 -3.128e-07)
(0.0170713 -1.79993e-08 -3.09533e-07)
(0.0170713 1.23856e-08 -2.4708e-07)
(0.0170712 -1.1271e-08 -3.09363e-07)
(0.0170712 4.11504e-09 -2.75886e-07)
(0.0170711 -1.76778e-09 -2.51317e-07)
(0.0170712 -7.39269e-09 -2.40781e-07)
(0.017071 9.95836e-09 -2.6516e-07)
(0.0170711 -1.69583e-08 -1.31122e-07)
(0.0170709 1.38025e-08 -2.69356e-07)
(0.0170709 -1.22152e-08 -5.79647e-08)
(0.017071 1.24159e-11 -2.01358e-07)
(0.0170706 7.8087e-09 -4.47617e-08)
(0.0170709 -1.88191e-08 -7.08509e-08)
(0.0170706 1.82271e-08 -8.52263e-08)
(0.0170707 -1.5895e-08 8.5187e-08)
(0.0170707 4.4778e-09 -1.21958e-07)
(0.0170705 2.86387e-09 1.74073e-07)
(0.0170707 -1.07323e-08 -6.23808e-08)
(0.0170706 1.11466e-08 1.11842e-07)
(0.0170706 -1.14915e-08 1.0048e-07)
(0.0170706 8.41511e-09 -2.16378e-08)
(0.0170706 -7.21641e-09 2.19586e-07)
(0.0170707 4.51532e-09 -6.95414e-08)
(0.0170707 -2.69407e-09 1.63313e-07)
(0.0170708 -3.43137e-10 4.02139e-08)
(0.0170707 3.16591e-09 -4.33163e-08)
(0.0170709 -7.27416e-09 1.5657e-07)
(0.0170708 1.2038e-08 -1.47112e-07)
(0.0522396 -7.07466e-08 1.18616e-07)
(0.0522391 6.55309e-08 -2.84626e-07)
(0.0522398 -7.53944e-08 -4.08185e-07)
(0.0522398 1.62624e-08 -1.04405e-07)
(0.0522396 2.15929e-08 -7.71583e-07)
(0.0522405 -1.01754e-07 -3.20708e-07)
(0.0522398 1.06875e-07 -6.54327e-07)
(0.0522404 -1.2193e-07 -8.33074e-07)
(0.0522404 4.71882e-08 -4.60261e-07)
(0.05224 -1.4967e-08 -1.10546e-06)
(0.0522407 -6.36199e-08 -5.64022e-07)
(0.0522401 5.42246e-08 -9.93433e-07)
(0.0522405 -8.561e-08 -8.37972e-07)
(0.0522402 4.10121e-08 -8.0448e-07)
(0.0522403 -6.07112e-08 -8.88289e-07)
(0.05224 1.16397e-08 -8.03856e-07)
(0.0522399 -2.55661e-08 -7.42918e-07)
(0.0522399 -3.22316e-08 -7.18529e-07)
(0.0522394 2.33271e-08 -7.12112e-07)
(0.0522397 -7.4584e-08 -4.45203e-07)
(0.0522391 4.79608e-08 -6.95887e-07)
(0.0522392 -6.59919e-08 -2.06312e-07)
(0.0522391 4.4152e-09 -5.40479e-07)
(0.0522385 1.04153e-08 -9.24795e-08)
(0.0522391 -7.62315e-08 -2.40088e-07)
(0.0522382 6.76161e-08 -1.23093e-07)
(0.0522386 -7.99169e-08 1.47891e-07)
(0.0522383 2.29919e-08 -2.03149e-07)
(0.0522381 -4.70551e-09 4.33993e-07)
(0.0522383 -4.39128e-08 -1.28299e-07)
(0.0522381 3.66953e-08 3.90543e-07)
(0.0522382 -5.21852e-08 1.89329e-07)
(0.0522382 2.83841e-08 1.04428e-07)
(0.0522383 -3.74014e-08 4.91417e-07)
(0.0522384 1.54788e-08 -9.83335e-08)
(0.0522385 -2.20599e-08 4.56973e-07)
(0.0522387 -3.45582e-09 2.17431e-08)
(0.0522387 1.43954e-09 1.72297e-08)
(0.0522391 -3.17005e-08 2.73654e-07)
(0.0522389 3.36162e-08 -3.46297e-07)
(0.0896623 -1.5476e-07 1.25717e-07)
(0.0896616 1.30278e-07 -5.14129e-07)
(0.0896628 -1.8064e-07 -5.74466e-07)
(0.0896626 4.2848e-08 -3.36514e-07)
(0.0896627 1.07488e-08 -1.17372e-06)
(0.0896637 -2.1164e-07 -5.89481e-07)
(0.0896628 2.09454e-07 -1.15605e-06)
(0.0896639 -2.85707e-07 -1.27502e-06)
(0.0896637 1.08414e-07 -9.26538e-07)
(0.0896635 -7.21094e-08 -1.72981e-06)
(0.0896642 -1.34474e-07 -1.01013e-06)
(0.0896635 9.2425e-08 -1.67067e-06)
(0.089664 -2.01113e-07 -1.34516e-06)
(0.0896635 7.67036e-08 -1.4111e-06)
(0.0896637 -1.54593e-07 -1.44212e-06)
(0.0896632 1.71989e-08 -1.34972e-06)
(0.0896632 -8.09847e-08 -1.24089e-06)
(0.0896629 -7.52068e-08 -1.2066e-06)
(0.0896624 2.64201e-08 -1.14033e-06)
(0.0896626 -1.70128e-07 -8.04135e-07)
(0.0896618 8.95191e-08 -1.07307e-06)
(0.0896619 -1.62592e-07 -4.07938e-07)
(0.0896615 1.03872e-08 -8.39053e-07)
(0.0896608 -5.50718e-09 -1.62071e-07)
(0.0896615 -1.6261e-07 -4.1405e-07)
(0.0896601 1.3222e-07 -1.23118e-07)
(0.0896608 -1.88559e-07 1.46779e-07)
(0.0896602 5.4814e-08 -1.96414e-07)
(0.0896601 -3.30273e-08 6.09162e-07)
(0.0896602 -9.11385e-08 -1.23318e-07)
(0.08966 6.74859e-08 6.48337e-07)
(0.0896601 -1.18963e-07 2.57568e-07)
(0.0896601 5.74213e-08 3.0609e-07)
(0.0896602 -9.04019e-08 6.68931e-07)
(0.0896603 3.1749e-08 -2.31397e-08)
(0.0896605 -5.87556e-08 6.85277e-07)
(0.0896608 -8.81794e-09 1.63449e-08)
(0.0896609 -8.64857e-09 1.31618e-07)
(0.0896614 -7.01228e-08 2.97456e-07)
(0.0896613 5.76205e-08 -4.48381e-07)
(0.129519 -2.6417e-07 1.11132e-07)
(0.129518 1.99714e-07 -6.75735e-07)
(0.12952 -3.23195e-07 -7.08818e-07)
(0.129519 7.28039e-08 -5.67764e-07)
(0.12952 -2.58658e-08 -1.48976e-06)
(0.129521 -3.48715e-07 -8.78058e-07)
(0.12952 3.16572e-07 -1.60266e-06)
(0.129521 -5.0364e-07 -1.68512e-06)
(0.129521 1.78268e-07 -1.40873e-06)
(0.129521 -1.7021e-07 -2.28316e-06)
(0.129521 -2.27419e-07 -1.49722e-06)
(0.129521 1.17241e-07 -2.30429e-06)
(0.129521 -3.58444e-07 -1.8613e-06)
(0.129521 1.05449e-07 -2.02957e-06)
(0.129521 -2.90225e-07 -1.98697e-06)
(0.12952 1.16926e-08 -1.92106e-06)
(0.12952 -1.70841e-07 -1.75143e-06)
(0.12952 -1.38644e-07 -1.71866e-06)
(0.129519 9.9211e-09 -1.58567e-06)
(0.129519 -2.99404e-07 -1.20881e-06)
(0.129518 1.26263e-07 -1.45248e-06)
(0.129519 -2.97936e-07 -6.75165e-07)
(0.129518 1.14469e-08 -1.13483e-06)
(0.129517 -4.48159e-08 -2.94024e-07)
(0.129518 -2.72796e-07 -6.00799e-07)
(0.129516 1.99032e-07 -1.54352e-07)
(0.129517 -3.34035e-07 9.96229e-08)
(0.129516 9.21739e-08 -1.75883e-07)
(0.129516 -8.33024e-08 7.1048e-07)
(0.129516 -1.50327e-07 -7.84874e-08)
(0.129516 9.54625e-08 8.50034e-07)
(0.129516 -2.06589e-07 3.40656e-07)
(0.129516 8.7765e-08 5.14425e-07)
(0.129516 -1.63032e-07 8.13378e-07)
(0.129516 4.80971e-08 1.1834e-07)
(0.129516 -1.12851e-07 8.66583e-07)
(0.129517 -1.90635e-08 7.30088e-08)
(0.129517 -3.06425e-08 2.5732e-07)
(0.129517 -1.21872e-07 3.21449e-07)
(0.129517 7.65329e-08 -4.71719e-07)
(0.171901 -4.02139e-07 1.3851e-07)
(0.1719 2.72971e-07 -7.36897e-07)
(0.171902 -5.05361e-07 -7.90958e-07)
(0.171901 1.03813e-07 -7.1806e-07)
(0.171903 -9.00163e-08 -1.71486e-06)
(0.171903 -5.16325e-07 -1.11987e-06)
(0.171903 4.25958e-07 -1.94957e-06)
(0.171904 -7.78988e-07 -2.04891e-06)
(0.171904 2.54119e-07 -1.83099e-06)
(0.171905 -3.13333e-07 -2.76932e-06)
(0.171905 -3.44792e-07 -1.97268e-06)
(0.171904 1.24777e-07 -2.87522e-06)
(0.171905 -5.61745e-07 -2.38221e-06)
(0.171904 1.24639e-07 -2.62706e-06)
(0.171905 -4.72566e-07 -2.53545e-06)
(0.171904 -7.217e-09 -2.50998e-06)
(0.171904 -2.99595e-07 -2.28333e-06)
(0.171903 -2.2581e-07 -2.26698e-06)
(0.171903 -2.97297e-08 -2.07359e-06)
(0.171903 -4.66447e-07 -1.66991e-06)
(0.171901 1.55488e-07 -1.87986e-06)
(0.171902 -4.76075e-07 -1.02282e-06)
(0.1719 5.22919e-09 -1.47623e-06)
(0.1719 -1.10871e-07 -5.1869e-07)
(0.1719 -4.09548e-07 -8.34295e-07)
(0.171898 2.65592e-07 -2.69321e-07)
(0.171899 -5.19155e-07 -3.78488e-09)
(0.171898 1.33764e-07 -2.09118e-07)
(0.171898 -1.58536e-07 7.40629e-07)
(0.171897 -2.22587e-07 -4.79301e-08)
(0.171898 1.1883e-07 9.83235e-07)
(0.171897 -3.17277e-07 4.30495e-07)
(0.171897 1.18982e-07 6.88486e-07)
(0.171898 -2.57548e-07 9.5886e-07)
(0.171898 6.3898e-08 2.84683e-07)
(0.171898 -1.85965e-07 1.03834e-06)
(0.171898 -3.49653e-08 1.97535e-07)
(0.171899 -6.60623e-08 3.94582e-07)
(0.171899 -1.88628e-07 4.09196e-07)
(0.171899 9.002e-08 -4.28215e-07)
(0.216903 -5.73604e-07 2.62871e-07)
(0.216903 3.53262e-07 -6.78805e-07)
(0.216905 -7.33179e-07 -7.76196e-07)
(0.216904 1.37484e-07 -7.30908e-07)
(0.216906 -1.83558e-07 -1.82445e-06)
(0.216906 -7.19127e-07 -1.24257e-06)
(0.216906 5.41334e-07 -2.16034e-06)
(0.216908 -1.12048e-06 -2.31918e-06)
(0.216907 3.39164e-07 -2.13091e-06)
(0.216909 -5.07344e-07 -3.16638e-06)
(0.216908 -4.88813e-07 -2.37271e-06)
(0.216909 1.13818e-07 -3.36355e-06)
(0.216909 -8.17796e-07 -2.87267e-06)
(0.216908 1.34946e-07 -3.17399e-06)
(0.216909 -7.09609e-07 -3.0801e-06)
(0.216908 -4.00184e-08 -3.09732e-06)
(0.216908 -4.73719e-07 -2.83744e-06)
(0.216907 -3.40009e-07 -2.85341e-06)
(0.216907 -9.60806e-08 -2.6185e-06)
(0.216906 -6.78128e-07 -2.19757e-06)
(0.216905 1.76417e-07 -2.38929e-06)
(0.216905 -7.05319e-07 -1.46736e-06)
(0.216904 -9.88404e-09 -1.90992e-06)
(0.216903 -2.08863e-07 -8.62346e-07)
(0.216903 -5.78424e-07 -1.16134e-06)
(0.216901 3.31285e-07 -5.10548e-07)
(0.216902 -7.51873e-07 -1.96848e-07)
(0.2169 1.79519e-07 -3.54525e-07)
(0.216901 -2.6434e-07 6.82026e-07)
(0.2169 -3.10538e-07 -9.38034e-08)
(0.2169 1.35876e-07 1.03394e-06)
(0.216899 -4.56082e-07 4.89321e-07)
(0.2169 1.51521e-07 8.00779e-07)
(0.2169 -3.79111e-07 1.10326e-06)
(0.2169 7.96585e-08 4.40539e-07)
(0.2169 -2.81784e-07 1.2241e-06)
(0.2169 -5.71301e-08 3.72897e-07)
(0.216901 -1.16766e-07 5.60466e-07)
(0.216901 -2.72579e-07 5.88827e-07)
(0.216902 9.89816e-08 -3.14994e-07)
(0.264602 -7.83452e-07 5.11758e-07)
(0.264601 4.45058e-07 -4.89943e-07)
(0.264604 -1.0133e-06 -6.23464e-07)
(0.264602 1.7816e-07 -5.67997e-07)
(0.264605 -3.08649e-07 -1.78362e-06)
(0.264605 -9.60082e-07 -1.18329e-06)
(0.264606 6.68518e-07 -2.19332e-06)
(0.264607 -1.53709e-06 -2.43484e-06)
(0.264606 4.40245e-07 -2.25075e-06)
(0.264609 -7.58347e-07 -3.4253e-06)
(0.264608 -6.59481e-07 -2.62868e-06)
(0.264609 8.43652e-08 -3.73063e-06)
(0.264609 -1.13233e-06 -3.27308e-06)
(0.264608 1.38787e-07 -3.63004e-06)
(0.264609 -1.00919e-06 -3.58403e-06)
(0.264608 -8.53623e-08 -3.64852e-06)
(0.264609 -7.00197e-07 -3.39102e-06)
(0.264607 -4.83498e-07 -3.46027e-06)
(0.264608 -1.93135e-07 -3.21465e-06)
(0.264606 -9.41462e-07 -2.78729e-06)
(0.264605 1.88251e-07 -2.99461e-06)
(0.264605 -9.95535e-07 -2.01666e-06)
(0.264604 -3.50523e-08 -2.46877e-06)
(0.264603 -3.45977e-07 -1.34388e-06)
(0.264603 -7.85984e-07 -1.62657e-06)
(0.264601 3.9442e-07 -9.13303e-07)
(0.264602 -1.04263e-06 -5.2405e-07)
(0.264599 2.28919e-07 -6.63671e-07)
(0.2646 -4.08965e-07 4.98427e-07)
(0.264598 -4.17897e-07 -2.80699e-07)
(0.264599 1.4309e-07 9.70989e-07)
(0.264598 -6.29444e-07 4.61748e-07)
(0.264598 1.8455e-07 8.17099e-07)
(0.264598 -5.34569e-07 1.21061e-06)
(0.264598 9.56142e-08 5.47726e-07)
(0.264599 -4.05931e-07 1.41515e-06)
(0.264598 -8.58161e-08 5.66985e-07)
(0.264599 -1.85872e-07 7.58388e-07)
(0.264599 -3.75674e-07 8.57013e-07)
(0.2646 1.04339e-07 -1.28936e-07)
(0.315047 -1.03663e-06 8.75737e-07)
(0.315047 5.53806e-07 -1.78137e-07)
(0.31505 -1.35298e-06 -3.20511e-07)
(0.315048 2.32334e-07 -2.0967e-07)
(0.315052 -4.67235e-07 -1.57047e-06)
(0.315051 -1.24034e-06 -8.98896e-07)
(0.315052 8.15662e-07 -2.00688e-06)
(0.315054 -2.03696e-06 -2.33917e-06)
(0.315053 5.67807e-07 -2.13454e-06)
(0.315056 -1.07138e-06 -3.48233e-06)
(0.315055 -8.53952e-07 -2.66698e-06)
(0.315057 3.8098e-08 -3.9162e-06)
(0.315056 -1.5089e-06 -3.50531e-06)
(0.315057 1.41082e-07 -3.93151e-06)
(0.315058 -1.3774e-06 -3.9791e-06)
(0.315056 -1.39395e-07 -4.10523e-06)
(0.315058 -9.85009e-07 -3.88532e-06)
(0.315055 -6.56264e-07 -4.03977e-06)
(0.315056 -3.24234e-07 -3.82325e-06)
(0.315055 -1.26243e-06 -3.40472e-06)
(0.315054 1.91005e-07 -3.67684e-06)
(0.315054 -1.3569e-06 -2.65282e-06)
(0.315052 -7.08815e-08 -3.15886e-06)
(0.315052 -5.3051e-07 -1.96144e-06)
(0.315051 -1.0393e-06 -2.2551e-06)
(0.315049 4.52614e-07 -1.49908e-06)
(0.31505 -1.40391e-06 -1.02297e-06)
(0.315046 2.80899e-07 -1.18038e-06)
(0.315048 -6.03085e-07 1.48954e-07)
(0.315045 -5.49727e-07 -6.71942e-07)
(0.315046 1.34534e-07 7.44225e-07)
(0.315044 -8.45514e-07 2.83573e-07)
(0.315045 2.15268e-07 6.84468e-07)
(0.315044 -7.32721e-07 1.21814e-06)
(0.315044 1.10937e-07 5.49977e-07)
(0.315045 -5.66507e-07 1.56569e-06)
(0.315044 -1.21167e-07 7.27096e-07)
(0.315045 -2.78266e-07 9.55657e-07)
(0.315045 -5.00218e-07 1.17959e-06)
(0.315046 1.06887e-07 1.08717e-07)
(0.368259 -1.33952e-06 1.30092e-06)
(0.368258 6.85617e-07 2.09091e-07)
(0.368263 -1.76137e-06 9.30615e-08)
(0.36826 3.0852e-07 3.33234e-07)
(0.368265 -6.61888e-07 -1.20286e-06)
(0.368263 -1.55987e-06 -3.82852e-07)
(0.368265 9.93865e-07 -1.58055e-06)
(0.368267 -2.62807e-06 -1.99861e-06)
(0.368266 7.366e-07 -1.74084e-06)
(0.36827 -1.4507e-06 -3.28253e-06)
(0.368268 -1.06445e-06 -2.41363e-06)
(0.368271 -1.95891e-08 -3.85233e-06)
(0.36827 -1.94848e-06 -3.48226e-06)
(0.368271 1.50666e-07 -3.99117e-06)
(0.368272 -1.81758e-06 -4.17028e-06)
(0.36827 -1.94479e-07 -4.38183e-06)
(0.368273 -1.33171e-06 -4.222e-06)
(0.368269 -8.54589e-07 -4.50444e-06)
(0.368271 -4.90458e-07 -4.36207e-06)
(0.368269 -1.64444e-06 -3.97162e-06)
(0.368269 1.87173e-07 -4.37113e-06)
(0.368269 -1.79852e-06 -3.31036e-06)
(0.368266 -1.16056e-07 -3.9443e-06)
(0.368267 -7.70473e-07 -2.67198e-06)
(0.368265 -1.34471e-06 -3.03042e-06)
(0.368263 5.04275e-07 -2.25877e-06)
(0.368264 -1.84954e-06 -1.69833e-06)
(0.36826 3.3501e-07 -1.93052e-06)
(0.368262 -8.5948e-07 -3.88056e-07)
(0.368258 -7.11924e-07 -1.31551e-06)
(0.36826 1.02614e-07 2.96794e-07)
(0.368257 -1.11445e-06 -1.06498e-07)
(0.368258 2.39186e-07 3.35619e-07)
(0.368257 -9.84865e-07 1.04802e-06)
(0.368256 1.23391e-07 3.65879e-07)
(0.368258 -7.74753e-07 1.59814e-06)
(0.368256 -1.64287e-07 7.72876e-07)
(0.368258 -4.01837e-07 1.07321e-06)
(0.368257 -6.49298e-07 1.48694e-06)
(0.368258 1.04824e-07 3.30996e-07)
(0.42421 -1.70144e-06 1.68363e-06)
(0.424209 8.46882e-07 5.7363e-07)
(0.424214 -2.25224e-06 5.05117e-07)
(0.424209 4.16607e-07 9.99992e-07)
(0.424216 -8.97533e-07 -7.5874e-07)
(0.424213 -1.91924e-06 3.09088e-07)
(0.424216 1.21405e-06 -9.49023e-07)
(0.424218 -3.32049e-06 -1.42668e-06)
(0.424216 9.65082e-07 -1.06924e-06)
(0.424221 -1.90057e-06 -2.81772e-06)
(0.424219 -1.28152e-06 -1.81379e-06)
(0.424223 -7.98744e-08 -3.49321e-06)
(0.424221 -2.44983e-06 -3.13184e-06)
(0.424223 1.80858e-07 -3.71992e-06)
(0.424224 -2.32964e-06 -4.05172e-06)
(0.424222 -2.38104e-07 -4.37782e-06)
(0.424226 -1.74016e-06 -4.2766e-06)
(0.424222 -1.06948e-06 -4.729e-06)
(0.424225 -6.88966e-07 -4.707e-06)
(0.424222 -2.08636e-06 -4.35896e-06)
(0.424222 1.83828e-07 -4.96419e-06)
(0.424223 -2.32634e-06 -3.85703e-06)
(0.42422 -1.64311e-07 -4.73265e-06)
(0.424221 -1.07114e-06 -3.3734e-06)
(0.424219 -1.70577e-06 -3.86776e-06)
(0.424217 5.51375e-07 -3.13163e-06)
(0.424218 -2.39242e-06 -2.48743e-06)
(0.424213 3.93378e-07 -2.89884e-06)
(0.424216 -1.19146e-06 -1.08753e-06)
(0.424211 -9.09583e-07 -2.21006e-06)
(0.424213 3.90931e-08 -4.07068e-07)
(0.42421 -1.44756e-06 -7.44674e-07)
(0.42421 2.50621e-07 -2.84906e-07)
(0.424209 -1.30483e-06 6.30917e-07)
(0.424208 1.29391e-07 -9.69502e-08)
(0.42421 -1.04482e-06 1.41975e-06)
(0.424207 -2.17816e-07 6.04662e-07)
(0.42421 -5.68511e-07 9.92842e-07)
(0.424207 -8.26921e-07 1.67457e-06)
(0.424209 9.32578e-08 4.18914e-07)
(0.482811 -2.13521e-06 1.87507e-06)
(0.482809 1.04314e-06 7.84435e-07)
(0.482814 -2.84781e-06 7.30084e-07)
(0.482808 5.67264e-07 1.66168e-06)
(0.482817 -1.18378e-06 -3.78331e-07)
(0.482812 -2.3227e-06 1.04189e-06)
(0.482816 1.48865e-06 -2.36705e-07)
(0.482818 -4.12957e-06 -7.12281e-07)
(0.482816 1.27401e-06 -1.84614e-07)
(0.482822 -2.42793e-06 -2.17785e-06)
(0.482818 -1.49555e-06 -8.67558e-07)
(0.482824 -1.32329e-07 -2.8552e-06)
(0.482822 -3.01128e-06 -2.43973e-06)
(0.482824 2.48424e-07 -3.07431e-06)
(0.482826 -2.9108e-06 -3.54433e-06)
(0.482823 -2.53273e-07 -4.01186e-06)
(0.482828 -2.20658e-06 -3.9393e-06)
(0.482824 -1.28588e-06 -4.57713e-06)
(0.482828 -9.12303e-07 -4.72087e-06)
(0.482825 -2.581e-06 -4.39649e-06)
(0.482826 1.94742e-07 -5.31829e-06)
(0.482826 -2.94096e-06 -4.09726e-06)
(0.482823 -2.02952e-07 -5.36723e-06)
(0.482825 -1.43249e-06 -3.90799e-06)
(0.482822 -2.1192e-06 -4.592e-06)
(0.482821 5.98843e-07 -3.99348e-06)
(0.482822 -3.04186e-06 -3.23101e-06)
(0.482816 4.64516e-07 -3.98963e-06)
(0.48282 -1.60957e-06 -1.86201e-06)
(0.482814 -1.14378e-06 -3.25557e-06)
(0.482817 -6.09037e-08 -1.33602e-06)
(0.482812 -1.85511e-06 -1.61037e-06)
(0.482813 2.46626e-07 -1.17157e-06)
(0.482812 -1.70617e-06 -5.43738e-08)
(0.48281 1.24437e-07 -8.96145e-07)
(0.482812 -1.39119e-06 9.55852e-07)
(0.482808 -2.8475e-07 1.38842e-07)
(0.482812 -7.95026e-07 5.92692e-07)
(0.482808 -1.03646e-06 1.62306e-06)
(0.48281 6.31044e-08 2.26155e-07)
(0.543891 -2.65749e-06 1.71396e-06)
(0.543888 1.28363e-06 7.24e-07)
(0.543895 -3.57982e-06 5.69721e-07)
(0.543887 7.72538e-07 2.12176e-06)
(0.543897 -1.53633e-06 -2.41014e-07)
(0.54389 -2.78001e-06 1.62897e-06)
(0.543896 1.83109e-06 3.32377e-07)
(0.543897 -5.07912e-06 -4.61169e-08)
(0.543894 1.68452e-06 7.8958e-07)
(0.543902 -3.04644e-06 -1.59121e-06)
(0.543896 -1.69819e-06 3.25799e-07)
(0.543904 -1.67952e-07 -2.05482e-06)
(0.543901 -3.634e-06 -1.49664e-06)
(0.543904 3.70588e-07 -2.11879e-06)
(0.543905 -3.55913e-06 -2.66043e-06)
(0.543903 -2.20749e-07 -3.27228e-06)
(0.543909 -2.72659e-06 -3.18559e-06)
(0.543903 -1.48333e-06 -3.95668e-06)
(0.54391 -1.15039e-06 -4.3272e-06)
(0.543906 -3.11499e-06 -3.91084e-06)
(0.543907 2.39963e-07 -5.3238e-06)
(0.543908 -3.63675e-06 -3.83526e-06)
(0.543905 -2.08197e-07 -5.63555e-06)
(0.543908 -1.84849e-06 -4.11018e-06)
(0.543904 -2.57158e-06 -4.94813e-06)
(0.543904 6.61975e-07 -4.66272e-06)
(0.543905 -3.79817e-06 -3.69816e-06)
(0.543899 5.67434e-07 -4.97256e-06)
(0.543904 -2.11748e-06 -2.57324e-06)
(0.543896 -1.40627e-06 -4.22972e-06)
(0.5439 -1.93156e-07 -2.32641e-06)
(0.543895 -2.34262e-06 -2.60679e-06)
(0.543896 2.32001e-07 -2.19337e-06)
(0.543895 -2.1941e-06 -9.3755e-07)
(0.543891 1.04731e-07 -1.9825e-06)
(0.543895 -1.82337e-06 2.09368e-07)
(0.543888 -3.63911e-07 -6.41381e-07)
(0.543894 -1.10257e-06 -1.72396e-07)
(0.543888 -1.27478e-06 1.24121e-06)
(0.543891 1.08302e-10 -3.46791e-07)
(0.607175 -3.28342e-06 1.13174e-06)
(0.60717 1.58769e-06 3.19215e-07)
(0.607179 -4.48603e-06 -3.8561e-08)
(0.607168 1.04981e-06 2.18469e-06)
(0.60718 -1.97514e-06 -5.29165e-07)
(0.607171 -3.30347e-06 1.93008e-06)
(0.607177 2.25275e-06 5.07787e-07)
(0.607178 -6.20255e-06 2.73793e-07)
(0.607175 2.21678e-06 1.72982e-06)
(0.607183 -3.77789e-06 -1.39658e-06)
(0.607176 -1.88636e-06 1.55083e-06)
(0.607185 -1.85094e-07 -1.31702e-06)
(0.60718 -4.32568e-06 -5.1637e-07)
(0.607185 5.6095e-07 -1.05579e-06)
(0.607186 -4.27747e-06 -1.57635e-06)
(0.607183 -1.23877e-07 -2.25911e-06)
(0.607191 -3.30111e-06 -2.16097e-06)
(0.607184 -1.63992e-06 -2.87673e-06)
(0.607192 -1.39673e-06 -3.61661e-06)
(0.607187 -3.67167e-06 -2.81943e-06)
(0.60719 3.40268e-07 -4.94006e-06)
(0.607191 -4.40457e-06 -3.02596e-06)
(0.607187 -1.49888e-07 -5.31672e-06)
(0.607192 -2.31161e-06 -3.8863e-06)
(0.607187 -3.03494e-06 -4.7086e-06)
(0.607188 7.59563e-07 -4.89723e-06)
(0.60719 -4.64971e-06 -3.72858e-06)
(0.607183 7.33911e-07 -5.46946e-06)
(0.607189 -2.71012e-06 -3.04338e-06)
(0.60718 -1.67614e-06 -4.88516e-06)
(0.607186 -3.40985e-07 -3.00563e-06)
(0.607179 -2.90256e-06 -3.59614e-06)
(0.607181 2.16618e-07 -3.04568e-06)
(0.60718 -2.75516e-06 -1.83216e-06)
(0.607176 6.94946e-08 -3.16217e-06)
(0.60718 -2.33859e-06 -6.36172e-07)
(0.607172 -4.38811e-07 -1.67319e-06)
(0.607179 -1.51544e-06 -1.14579e-06)
(0.607171 -1.52223e-06 5.17149e-07)
(0.607175 -1.08232e-07 -1.24859e-06)
(0.672246 -4.01497e-06 3.88016e-07)
(0.672238 1.99084e-06 -4.88653e-07)
(0.67225 -5.60117e-06 -8.88891e-07)
(0.672235 1.43263e-06 1.85771e-06)
(0.67225 -2.51891e-06 -1.39013e-06)
(0.672238 -3.89615e-06 1.96559e-06)
(0.672246 2.76784e-06 2.12206e-07)
(0.672245 -7.53239e-06 -9.24036e-08)
(0.672241 2.89565e-06 2.60475e-06)
(0.672251 -4.65343e-06 -1.90375e-06)
(0.672241 -2.05359e-06 2.54882e-06)
(0.672253 -1.89165e-07 -9.11327e-07)
(0.672245 -5.09816e-06 2.04987e-07)
(0.672252 8.21367e-07 -1.49046e-07)
(0.672252 -5.07638e-06 -6.56522e-07)
(0.672249 4.61966e-08 -1.15502e-06)
(0.672259 -3.94137e-06 -1.23371e-06)
(0.672249 -1.73819e-06 -1.47149e-06)
(0.67226 -1.65589e-06 -2.86463e-06)
(0.672254 -4.236e-06 -1.31627e-06)
(0.672257 5.10952e-07 -4.16465e-06)
(0.67226 -5.23714e-06 -1.92381e-06)
(0.672254 4.92889e-09 -4.34681e-06)
(0.672261 -2.82741e-06 -3.20181e-06)
(0.672255 -3.46477e-06 -3.96344e-06)
(0.672257 9.03758e-07 -4.35849e-06)
(0.672259 -5.57953e-06 -3.41805e-06)
(0.672252 1.00696e-06 -5.16484e-06)
(0.67226 -3.37726e-06 -2.94845e-06)
(0.67225 -1.91942e-06 -5.25376e-06)
(0.672258 -4.78172e-07 -2.76337e-06)
(0.672249 -3.50623e-06 -4.49984e-06)
(0.672253 2.11512e-07 -3.32909e-06)
(0.672251 -3.34147e-06 -2.39072e-06)
(0.672246 2.14511e-08 -4.25218e-06)
(0.672253 -2.9187e-06 -1.06158e-06)
(0.672241 -4.62537e-07 -2.90504e-06)
(0.672251 -2.06056e-06 -1.88547e-06)
(0.672241 -1.72823e-06 -4.02426e-07)
(0.672245 -2.66643e-07 -2.29442e-06)
(0.738509 -4.82971e-06 3.006e-07)
(0.738499 2.55883e-06 -1.71445e-06)
(0.738512 -6.95223e-06 -1.65714e-06)
(0.738495 1.98966e-06 1.62138e-06)
(0.738512 -3.18096e-06 -2.86804e-06)
(0.738497 -4.53183e-06 1.93402e-06)
(0.738507 3.39555e-06 -2.52209e-07)
(0.738504 -9.09151e-06 -1.34864e-06)
(0.7385 3.7662e-06 3.56583e-06)
(0.738511 -5.69952e-06 -3.21009e-06)
(0.738498 -2.18357e-06 3.20037e-06)
(0.738514 -1.80643e-07 -9.75605e-07)
(0.738501 -5.95658e-06 3.8563e-07)
(0.738511 1.15022e-06 4.99943e-07)
(0.73851 -5.96218e-06 -3.84014e-07)
(0.738505 2.88625e-07 -7.371e-08)
(0.738517 -4.66002e-06 -8.71392e-07)
(0.738505 -1.76841e-06 -6.39833e-08)
(0.738518 -1.94811e-06 -2.25699e-06)
(0.73851 -4.78794e-06 -2.27791e-08)
(0.738514 7.35417e-07 -3.05408e-06)
(0.738518 -6.13787e-06 -8.73318e-07)
(0.73851 2.94503e-07 -3.22801e-06)
(0.738521 -3.43003e-06 -1.81935e-06)
(0.738512 -3.8099e-06 -3.4167e-06)
(0.738517 1.09618e-06 -2.79431e-06)
(0.738518 -6.57413e-06 -2.88935e-06)
(0.738511 1.42938e-06 -4.48041e-06)
(0.738521 -4.11627e-06 -1.5398e-06)
(0.738509 -2.09533e-06 -5.99772e-06)
(0.73852 -5.89547e-07 -9.7067e-07)
(0.738509 -4.09271e-06 -5.25566e-06)
(0.738515 1.99789e-07 -3.01315e-06)
(0.738512 -3.86303e-06 -1.88535e-06)
(0.738506 -3.89347e-08 -5.54524e-06)
(0.738517 -3.54311e-06 -1.43965e-07)
(0.738501 -3.43593e-07 -4.38604e-06)
(0.738515 -2.77967e-06 -1.92069e-06)
(0.738503 -1.79314e-06 -9.61229e-07)
(0.738506 -4.77449e-07 -3.53408e-06)
(0.805139 -5.70103e-06 1.90606e-06)
(0.805127 3.40359e-06 -2.98736e-06)
(0.805144 -8.57033e-06 -2.45294e-06)
(0.805122 2.82786e-06 2.48881e-06)
(0.805145 -3.96161e-06 -4.88037e-06)
(0.805123 -5.15257e-06 2.11967e-06)
(0.805139 4.18321e-06 -2.22244e-07)
(0.805132 -1.08656e-05 -3.47084e-06)
(0.805128 4.88932e-06 5.06898e-06)
(0.805142 -6.90973e-06 -5.17004e-06)
(0.805122 -2.24476e-06 3.6718e-06)
(0.805145 -1.42739e-07 -1.24072e-06)
(0.805125 -6.87734e-06 -2.27165e-07)
(0.805139 1.54247e-06 1.28642e-06)
(0.805136 -6.89056e-06 -1.16149e-06)
(0.80513 5.81933e-07 9.95955e-07)
(0.805145 -5.43794e-06 -1.08947e-06)
(0.805129 -1.71235e-06 6.91421e-07)
(0.805145 -2.31575e-06 -1.58087e-06)
(0.805136 -5.28029e-06 5.22142e-07)
(0.805138 9.78515e-07 -2.23259e-06)
(0.805146 -7.11448e-06 5.5246e-07)
(0.805133 7.57827e-07 -3.35715e-06)
(0.805149 -4.17952e-06 7.26557e-07)
(0.805137 -4.01478e-06 -3.71966e-06)
(0.805143 1.30827e-06 -1.05095e-06)
(0.805145 -7.6332e-06 -1.26113e-06)
(0.805136 2.03132e-06 -5.26571e-06)
(0.80515 -4.94195e-06 2.28946e-06)
(0.805132 -2.1605e-06 -8.02279e-06)
(0.805151 -7.0856e-07 2.11237e-06)
(0.805134 -4.55355e-06 -5.15686e-06)
(0.805145 8.96325e-08 -3.37206e-06)
(0.805142 -4.19728e-06 1.09128e-06)
(0.805133 -1.10141e-07 -8.12256e-06)
(0.805149 -4.23056e-06 2.90104e-06)
(0.805128 8.70244e-08 -5.83871e-06)
(0.805145 -3.78092e-06 -1.73467e-06)
(0.805133 -1.55636e-06 2.61947e-07)
(0.805135 -7.44875e-07 -5.73366e-06)
(0.871024 -6.67115e-06 5.04222e-06)
(0.871012 4.66445e-06 -2.83762e-06)
(0.871031 -1.04816e-05 -4.57132e-06)
(0.871004 4.05843e-06 5.79283e-06)
(0.871035 -4.8517e-06 -7.35371e-06)
(0.871004 -5.68246e-06 2.47676e-06)
(0.871027 5.16742e-06 1.4077e-06)
(0.871017 -1.28e-05 -6.76432e-06)
(0.87101 6.30502e-06 8.01813e-06)
(0.871032 -8.22557e-06 -7.48837e-06)
(0.871 -2.1769e-06 4.00583e-06)
(0.871036 -6.73212e-08 -5.98117e-07)
(0.871004 -7.72596e-06 -2.12688e-06)
(0.871025 1.91866e-06 3.0861e-06)
(0.87102 -7.69886e-06 -2.75521e-06)
(0.871011 8.78209e-07 1.72313e-06)
(0.871031 -6.22727e-06 -9.53059e-07)
(0.871009 -1.48168e-06 3.64418e-07)
(0.871028 -2.82831e-06 -1.05821e-06)
(0.871018 -5.58035e-06 1.42692e-06)
(0.871018 1.18528e-06 -3.49166e-06)
(0.87103 -8.1278e-06 3.70534e-06)
(0.871012 1.43852e-06 -5.54976e-06)
(0.871032 -5.13631e-06 3.4346e-06)
(0.871017 -4.01137e-06 -3.18195e-06)
(0.871024 1.50467e-06 -2.18749e-06)
(0.871028 -8.739e-06 3.69892e-06)
(0.871015 2.80989e-06 -9.55957e-06)
(0.871037 -5.86105e-06 8.37336e-06)
(0.871009 -2.05487e-06 -1.05274e-05)
(0.871038 -9.55007e-07 3.89438e-06)
(0.871014 -4.68672e-06 -1.88547e-06)
(0.871027 -3.0481e-07 -7.23564e-06)
(0.871027 -4.20944e-06 8.00189e-06)
(0.871012 -1.29319e-07 -1.27294e-05)
(0.871036 -5.13843e-06 6.98694e-06)
(0.87101 1.11015e-06 -5.3328e-06)
(0.87103 -5.25768e-06 -3.93679e-06)
(0.871017 -8.70414e-07 5.4327e-06)
(0.87102 -1.03112e-06 -9.90918e-06)
(0.93469 -7.83235e-06 5.95166e-06)
(0.934675 6.42457e-06 2.33354e-06)
(0.934702 -1.26866e-05 -1.069e-05)
(0.934663 5.70383e-06 1.20204e-05)
(0.934708 -5.80402e-06 -8.99111e-06)
(0.934665 -6.03853e-06 7.0883e-07)
(0.934695 6.30684e-06 7.08855e-06)
(0.934686 -1.47089e-05 -1.24985e-05)
(0.934669 7.94376e-06 1.26557e-05)
(0.934708 -9.51589e-06 -8.58098e-06)
(0.934656 -1.86593e-06 2.46139e-06)
(0.93471 -5.6422e-08 3.14671e-06)
(0.934666 -8.15821e-06 -5.83677e-06)
(0.934692 2.05402e-06 5.91332e-06)
(0.934688 -8.09486e-06 -3.61373e-06)
(0.934674 1.14787e-06 1.42195e-06)
(0.934699 -7.01386e-06 -4.48918e-08)
(0.934672 -8.26441e-07 6.3766e-07)
(0.934694 -3.6791e-06 -2.6575e-06)
(0.934685 -5.37514e-06 5.0937e-06)
(0.934681 1.24798e-06 -7.34472e-06)
(0.934697 -9.05732e-06 7.43222e-06)
(0.934675 2.41724e-06 -6.39301e-06)
(0.934698 -6.34023e-06 2.07875e-06)
(0.934682 -3.63193e-06 2.2071e-06)
(0.934686 1.57626e-06 -8.7639e-06)
(0.934696 -9.70645e-06 1.22178e-05)
(0.934673 3.69341e-06 -1.56708e-05)
(0.934707 -6.88647e-06 1.29814e-05)
(0.934668 -1.5209e-06 -9.39627e-06)
(0.934706 -1.68315e-06 -2.5301e-07)
(0.934677 -4.09347e-06 7.62034e-06)
(0.93469 -1.17828e-06 -1.6593e-05)
(0.934696 -3.93227e-06 1.77714e-05)
(0.934673 1.96168e-07 -1.66677e-05)
(0.934704 -6.64997e-06 7.03464e-06)
(0.934672 3.05299e-06 1.71588e-06)
(0.934697 -7.36072e-06 -1.24051e-05)
(0.934681 2.78387e-07 1.52416e-05)
(0.934686 -1.21329e-06 -1.46062e-05)
(0.994224 -9.15997e-06 -3.28319e-06)
(0.994198 8.53935e-06 1.55819e-05)
(0.99424 -1.49348e-05 -1.93614e-05)
(0.994184 7.59361e-06 1.52178e-05)
(0.994244 -6.80104e-06 -3.25269e-06)
(0.994194 -5.95465e-06 -8.51985e-06)
(0.994219 7.25223e-06 1.80306e-05)
(0.994227 -1.61698e-05 -1.83863e-05)
(0.994186 9.63604e-06 1.38907e-05)
(0.994251 -1.08021e-05 -3.38916e-06)
(0.994176 -9.20061e-07 -4.25886e-06)
(0.994245 -6.14046e-07 1.04282e-05)
(0.994195 -7.57783e-06 -9.4514e-06)
(0.994219 1.62995e-06 7.4048e-06)
(0.994222 -7.89415e-06 -2.27269e-06)
(0.994199 1.63284e-06 9.80859e-07)
(0.994232 -8.10681e-06 -3.62577e-07)
(0.994201 7.9513e-07 3.95258e-06)
(0.994224 -5.24263e-06 -6.47189e-06)
(0.994215 -4.29107e-06 9.42844e-06)
(0.99421 1.10794e-06 -8.68257e-06)
(0.994227 -9.87608e-06 6.30664e-06)
(0.994205 3.96312e-06 -7.78465e-07)
(0.994226 -8.03564e-06 -5.48611e-06)
(0.994214 -2.41634e-06 1.22168e-05)
(0.994211 1.2403e-06 -1.74142e-05)
(0.994231 -1.03116e-05 1.9507e-05)
(0.994196 4.88695e-06 -1.74771e-05)
(0.994242 -8.41078e-06 1.01197e-05)
(0.994193 6.04721e-08 6.9112e-07)
(0.994236 -3.32442e-06 -1.35331e-05)
(0.994208 -2.59333e-06 2.32456e-05)
(0.994214 -2.24134e-06 -2.74241e-05)
(0.99423 -3.8699e-06 2.25698e-05)
(0.994196 1.40993e-06 -1.0801e-05)
(0.994238 -9.04908e-06 -5.14496e-06)
(0.994198 5.93618e-06 1.87841e-05)
(0.994228 -9.84535e-06 -2.55099e-05)
(0.99421 1.60495e-06 2.25707e-05)
(0.994214 -1.09073e-06 -1.11646e-05)
(1.04718 -1.01182e-05 -1.90307e-05)
(1.04714 1.04973e-05 2.45765e-05)
(1.0472 -1.68186e-05 -1.59592e-05)
(1.04713 9.72958e-06 4.14388e-06)
(1.04719 -8.14842e-06 1.25348e-05)
(1.04715 -4.95275e-06 -1.97616e-05)
(1.04716 7.55054e-06 2.28382e-05)
(1.04719 -1.6954e-05 -1.32666e-05)
(1.04712 1.14837e-05 4.24381e-06)
(1.04721 -1.25257e-05 8.81627e-06)
(1.04712 1.2898e-06 -1.22261e-05)
(1.04719 -2.25108e-06 1.48226e-05)
(1.04715 -5.73762e-06 -8.32651e-06)
(1.04716 8.376e-07 5.67723e-06)
(1.04718 -7.53722e-06 6.11531e-08)
(1.04714 2.96575e-06 1.95541e-06)
(1.04718 -1.00286e-05 -1.99529e-06)
(1.04715 3.7871e-06 7.38839e-06)
(1.04717 -7.59151e-06 -7.43107e-06)
(1.04716 -2.40085e-06 8.97827e-06)
(1.04716 1.13087e-06 -3.70377e-06)
(1.04717 -1.10018e-05 -4.4185e-07)
(1.04716 6.62572e-06 9.29053e-06)
(1.04717 -1.05663e-05 -1.47978e-05)
(1.04717 -1.69498e-07 2.12589e-05)
(1.04716 7.34794e-07 -2.12395e-05)
(1.04719 -1.09413e-05 1.8371e-05)
(1.04714 7.05125e-06 -7.58823e-06)
(1.04719 -1.08368e-05 -5.16027e-06)
(1.04714 2.86252e-06 2.04839e-05)
(1.04718 -5.48735e-06 -2.98478e-05)
(1.04716 -7.67687e-07 3.27646e-05)
(1.04716 -2.78171e-06 -2.37501e-05)
(1.04719 -4.32908e-06 8.40013e-06)
(1.04714 3.49681e-06 1.17952e-05)
(1.04719 -1.18177e-05 -2.5966e-05)
(1.04715 9.19194e-06 3.2801e-05)
(1.04718 -1.21637e-05 -2.56362e-05)
(1.04717 2.99424e-06 1.20769e-05)
(1.04716 -8.66707e-07 7.20831e-06)
(1.09055 -1.02544e-05 -1.8341e-05)
(1.09051 1.22587e-05 1.51867e-05)
(1.09055 -1.86164e-05 -7.21609e-07)
(1.09051 1.27071e-05 -8.04273e-06)
(1.09054 -1.04127e-05 1.85771e-05)
(1.09053 -2.62997e-06 -1.56332e-05)
(1.09051 7.09985e-06 1.27226e-05)
(1.09056 -1.72356e-05 4.87038e-07)
(1.09049 1.38881e-05 -6.16119e-06)
(1.09057 -1.51024e-05 1.49919e-05)
(1.09049 4.96064e-06 -1.16235e-05)
(1.09055 -4.84615e-06 1.16023e-05)
(1.09052 -3.0612e-06 -3.19642e-06)