/*--------------------------------*- C++ -*----------------------------------*\
  =========                 |
  \\      /  F ield         | OpenFOAM: The Open Source CFD Toolbox
   \\    /   O peration     | Website:  https://openfoam.org
    \\  /    A nd           | Version:  10
     \\/     M anipulation  |
\*---------------------------------------------------------------------------*/
FoamFile
{
    format      ascii;
    class       volVectorField;
    location    "42.5";
    object      UMean;
}
// * * * * * * * * * * * * * * * * * * * * * * * * * * * * * * * * * * * * * //

dimensions      [0 1 -1 0 0 0 0];

internalField   nonuniform List<vector> 
102400
(
(0.0240772 2.16574e-08 -1.86794e-05)
(0.024072 1.56197e-07 1.2084e-05)
(0.0240754 -7.18583e-08 3.00214e-05)
(0.0240752 -8.57323e-08 4.07627e-06)
(0.0240762 -8.56879e-08 -2.5224e-05)
(0.024074 -1.34807e-08 -2.52553e-05)
(0.0240771 3.13957e-08 1.5046e-05)
(0.024077 6.8807e-08 2.28928e-05)
(0.0240828 -9.58767e-08 8.85933e-06)
(0.0240771 -7.06578e-08 -2.9324e-05)
(0.0240818 -4.49892e-08 -2.19966e-05)
(0.024077 2.03103e-08 1.23105e-05)
(0.0240775 -7.20109e-08 2.88546e-05)
(0.024073 -5.34277e-08 7.25312e-06)
(0.0240773 -1.67824e-07 -2.74735e-05)
(0.0240749 -5.09075e-08 -2.08784e-05)
(0.0240717 8.88234e-08 1.20429e-05)
(0.024076 -1.08173e-07 2.80218e-05)
(0.0240786 -1.85096e-07 1.67675e-06)
(0.0240741 -1.17775e-07 -3.47471e-05)
(0.0240825 -9.84988e-08 -2.16313e-05)
(0.0240694 1.53773e-07 6.68541e-06)
(0.0240782 -2.36405e-08 2.7676e-05)
(0.0240696 -9.65555e-09 -3.85807e-06)
(0.0240753 -5.03788e-08 -2.89079e-05)
(0.0240673 -5.72389e-08 -2.86857e-05)
(0.024071 1.41522e-07 1.03015e-05)
(0.02407 6.84572e-08 2.39313e-05)
(0.024072 -1.64107e-07 5.85614e-06)
(0.024072 -5.69763e-08 -2.80086e-05)
(0.0240692 9.42381e-09 -2.50223e-05)
(0.0240784 1.00569e-08 1.43384e-05)
(0.0240726 1.4031e-09 3.35877e-05)
(0.0240773 -1.55916e-07 6.69597e-06)
(0.0240711 -3.42777e-08 -2.10011e-05)
(0.0240744 -3.21693e-08 -2.0429e-05)
(0.024069 3.06062e-08 2.03046e-05)
(0.0240789 -9.73067e-08 2.86089e-05)
(0.0240769 -1.0361e-07 7.66927e-06)
(0.0240703 -4.66737e-08 -3.01969e-05)
(0.0736167 9.15032e-08 -5.88823e-05)
(0.0736026 8.493e-07 3.25999e-05)
(0.0736139 -3.61491e-07 8.79717e-05)
(0.0736121 -3.54584e-07 1.35083e-05)
(0.0736148 -9.33422e-07 -7.53587e-05)
(0.0736078 7.52691e-09 -7.71792e-05)
(0.0736168 -2.59606e-07 4.23448e-05)
(0.0736186 4.44941e-07 6.83883e-05)
(0.0736351 -6.6079e-07 2.85954e-05)
(0.0736173 -5.81021e-07 -8.90664e-05)
(0.0736309 -4.63944e-07 -6.78744e-05)
(0.0736167 6.70001e-07 3.30876e-05)
(0.0736207 1.88259e-07 8.41523e-05)
(0.0736049 4.78033e-09 2.14171e-05)
(0.0736177 -1.41714e-06 -8.36896e-05)
(0.0736088 4.29105e-07 -6.60255e-05)
(0.0736018 1.6649e-07 3.20186e-05)
(0.0736154 -6.91846e-07 8.22475e-05)
(0.0736223 -1.44445e-06 7.03918e-06)
(0.0736091 -1.08012e-06 -0.000102893)
(0.0736327 -5.36096e-07 -6.65484e-05)
(0.0735926 1.18481e-06 1.62157e-05)
(0.0736212 -1.87365e-07 8.16043e-05)
(0.0735951 4.73869e-07 -1.015e-05)
(0.073613 -9.31841e-07 -8.54071e-05)
(0.0735869 -2.18531e-07 -8.76811e-05)
(0.0735975 4.68636e-07 2.66888e-05)
(0.0735978 2.14279e-07 7.11977e-05)
(0.073603 -8.62587e-07 1.8228e-05)
(0.0736014 -7.80977e-08 -8.30447e-05)
(0.0735938 -6.947e-07 -7.69158e-05)
(0.0736211 1.81341e-07 4.05866e-05)
(0.0736056 7.08632e-07 9.95976e-05)
(0.0736191 -6.76734e-07 2.02747e-05)
(0.0735993 -1.09017e-07 -6.2752e-05)
(0.0736089 -1.33695e-07 -6.44268e-05)
(0.0735909 1.9879e-07 5.72649e-05)
(0.0736224 -1.0985e-06 8.37821e-05)
(0.0736167 7.19268e-07 2.42134e-05)
(0.0735978 -1.9541e-07 -8.95099e-05)
(0.126078 5.84987e-07 -9.80152e-05)
(0.126056 1.83253e-06 5.10786e-05)
(0.126081 -1.16581e-06 0.000142694)
(0.126076 -2.88022e-07 1.80101e-05)
(0.126083 -1.96368e-06 -0.000125927)
(0.126067 3.17158e-07 -0.000130275)
(0.126084 -8.95296e-07 7.29742e-05)
(0.126085 1.368e-06 0.000112735)
(0.126116 -1.48459e-06 4.44687e-05)
(0.126083 -1.10329e-06 -0.000154935)
(0.126108 -8.69985e-07 -0.000109244)
(0.126082 1.71821e-06 5.53762e-05)
(0.126088 6.08683e-07 0.000135963)
(0.126065 7.76898e-07 2.88246e-05)
(0.126088 -3.04744e-06 -0.000145902)
(0.126071 2.22531e-06 -0.000111733)
(0.126055 4.6843e-07 4.39628e-05)
(0.126084 -1.836e-06 0.000133216)
(0.126092 -2.87136e-06 6.311e-06)
(0.126067 -2.26011e-06 -0.000172617)
(0.126108 -1.2621e-06 -0.000107399)
(0.126043 2.8388e-06 2.88156e-05)
(0.126094 -1.05307e-07 0.000132757)
(0.126041 2.0821e-06 -1.88003e-05)
(0.126074 -2.28556e-06 -0.000143211)
(0.126031 -4.6449e-07 -0.000147097)
(0.126049 1.04955e-06 4.85395e-05)
(0.126052 6.11783e-08 0.000117083)
(0.126061 -1.5476e-06 3.19287e-05)
(0.126054 5.20611e-07 -0.000142924)
(0.126044 -1.93814e-06 -0.000130456)
(0.126087 8.5938e-07 6.62703e-05)
(0.126062 2.04473e-06 0.000163582)
(0.126086 -1.44749e-06 2.76418e-05)
(0.126053 3.3386e-07 -0.000106158)
(0.126069 -2.20171e-07 -0.000110399)
(0.126041 -4.53912e-08 9.84455e-05)
(0.126101 -2.97898e-06 0.000135289)
(0.126084 3.66062e-06 3.92994e-05)
(0.126048 1.30079e-07 -0.000151386)
(0.181344 1.88062e-06 -0.000130901)
(0.181306 2.73694e-06 5.83949e-05)
(0.181331 -1.9984e-06 0.000186126)
(0.181325 7.38422e-07 2.74942e-05)
(0.181323 -2.98909e-06 -0.000160378)
(0.181312 4.91151e-07 -0.000182975)
(0.181335 -2.51677e-06 8.21859e-05)
(0.181351 2.96505e-06 0.000146913)
(0.181382 -3.46938e-06 7.57949e-05)
(0.181339 -1.18725e-06 -0.000215635)
(0.181375 -2.07709e-06 -0.000151442)
(0.18134 3.44346e-06 5.41219e-05)
(0.181356 1.72729e-06 0.000173939)
(0.181307 1.94552e-06 5.016e-05)
(0.181335 -5.01488e-06 -0.000189968)
(0.181307 5.8829e-06 -0.000171515)
(0.181297 -2.58409e-07 5.00118e-05)
(0.181337 -3.77535e-06 0.000172513)
(0.181349 -4.7509e-06 1.9908e-05)
(0.181322 -3.01002e-06 -0.000239719)
(0.181379 -1.27379e-06 -0.000151532)
(0.181275 4.67728e-06 1.53809e-05)
(0.181351 -4.28175e-07 0.000171126)
(0.18129 5.52057e-06 -2.4546e-05)
(0.181336 -3.98098e-06 -0.000194998)
(0.181258 2.08609e-07 -0.00021056)
(0.181293 1.31287e-06 4.91917e-05)
(0.181298 1.01757e-07 0.000153738)
(0.181296 -2.54204e-06 5.98414e-05)
(0.181305 2.34731e-06 -0.000195456)
(0.181278 -3.50946e-06 -0.000181233)
(0.181346 1.695e-06 7.8786e-05)
(0.181319 3.83889e-06 0.000217047)
(0.181349 -1.00175e-06 3.55053e-05)
(0.181293 2.46644e-06 -0.000144166)
(0.181316 -1.0103e-07 -0.000159265)
(0.181269 -1.3685e-06 9.10092e-05)
(0.181344 -5.72686e-06 0.000169403)
(0.18133 8.85651e-06 6.83673e-05)
(0.181298 9.19816e-07 -0.000210765)
(0.239268 4.06123e-06 -0.000175911)
(0.23922 1.33977e-06 2.35471e-05)
(0.239285 -4.16436e-06 0.000209802)
(0.239296 2.33241e-06 1.19051e-07)
(0.239294 -3.47353e-06 -0.000214283)
(0.239252 3.63728e-06 -0.000231035)
(0.239293 -4.60341e-06 9.40449e-05)
(0.239297 6.0605e-06 0.000169238)
(0.239345 -5.85663e-06 9.38863e-05)
(0.239294 4.98887e-07 -0.000272318)
(0.239333 -4.15112e-06 -0.000189695)
(0.239268 6.444e-06 8.39034e-06)
(0.2393 3.60023e-06 0.000192155)
(0.239252 4.32352e-06 3.60837e-05)
(0.239296 -6.07482e-06 -0.000245844)
(0.239246 1.2325e-05 -0.000221435)
(0.239236 -2.44864e-06 4.70119e-05)
(0.239315 -6.39932e-06 0.000190674)
(0.23929 -5.41758e-06 4.99243e-05)
(0.239277 -2.255e-06 -0.000280363)
(0.239322 -2.48353e-07 -0.000214321)
(0.239218 1.07505e-05 8.24533e-06)
(0.239291 5.93426e-07 0.000182295)
(0.239185 1.27089e-05 3.16307e-05)
(0.239258 -6.2482e-06 -0.000193778)
(0.239169 4.27298e-06 -0.000255436)
(0.239213 -1.32363e-06 1.72017e-05)
(0.239214 -1.67051e-06 0.000183133)
(0.239253 -2.14044e-07 3.66851e-05)
(0.239216 6.20808e-06 -0.000216186)
(0.239219 -5.4814e-06 -0.000200267)
(0.239291 3.24499e-06 6.362e-05)
(0.239264 6.74099e-06 0.000248144)
(0.239294 1.59143e-06 3.37604e-05)
(0.23923 4.2547e-06 -0.000183305)
(0.239247 1.31653e-07 -0.000210055)
(0.239188 1.29179e-06 7.90109e-05)
(0.239313 -8.50129e-06 0.000184452)
(0.239288 1.54815e-05 8.28568e-05)
(0.23922 5.90343e-06 -0.000225188)
(0.299708 8.18377e-06 -0.000194611)
(0.29962 -2.68301e-06 -7.12507e-06)
(0.299762 -8.65847e-06 0.000181739)
(0.299711 1.04804e-05 6.53409e-05)
(0.299643 -5.85908e-06 -0.000176387)
(0.299711 6.57202e-06 -0.000199557)
(0.299718 -7.3291e-06 7.01207e-05)
(0.299739 8.28346e-06 0.000161893)
(0.299806 -7.38799e-06 8.78464e-05)
(0.299724 5.79514e-06 -0.000289067)
(0.299764 2.31689e-06 -0.000196377)
(0.299669 7.84758e-06 -6.29421e-05)
(0.299711 2.83287e-06 0.00018435)
(0.299709 9.58035e-06 -2.64063e-05)
(0.299679 -3.77385e-06 -0.000234176)
(0.29965 2.10746e-05 -0.000238116)
(0.299663 -1.9812e-06 6.97128e-07)
(0.299678 -8.83761e-06 0.000170905)
(0.299664 1.90312e-06 7.09828e-05)
(0.29969 3.7319e-06 -0.000215629)
(0.299638 1.48232e-06 -0.000307138)
(0.299623 1.38054e-05 -8.51352e-06)
(0.299694 6.91636e-06 0.000175345)
(0.299588 1.71462e-05 3.46992e-05)
(0.299648 -6.01094e-06 -0.000165881)
(0.299553 1.22844e-05 -0.000267524)
(0.299635 -3.16562e-06 -1.93396e-06)
(0.299614 -4.87705e-06 0.000201311)
(0.299694 2.98734e-06 2.72435e-06)
(0.299617 1.10793e-05 -0.000209558)
(0.299609 -8.16146e-06 -0.000217276)
(0.299676 4.97152e-06 -1.90747e-05)
(0.299648 6.87782e-06 0.000234952)
(0.299757 7.52057e-06 -2.08621e-05)
(0.299634 7.23515e-06 -0.000194423)
(0.299668 -2.70333e-07 -0.000228934)
(0.299611 4.60199e-06 7.95862e-05)
(0.299734 -7.52099e-06 0.000163248)
(0.29967 2.36307e-05 0.000143681)
(0.299623 9.84109e-06 -0.000225257)
(0.362279 1.38404e-05 -0.000245756)
(0.362272 4.02586e-06 -2.34235e-05)
(0.362346 -4.13141e-06 0.000158629)
(0.362324 2.07e-05 2.11707e-05)
(0.362342 2.17332e-06 -0.000167696)
(0.362258 1.54692e-05 -0.000264044)
(0.362345 -5.39349e-06 3.88253e-05)
(0.362315 9.93869e-06 8.05126e-05)
(0.362397 3.02723e-06 0.000120693)
(0.362233 1.34747e-05 -0.000224408)
(0.362365 8.29493e-06 -9.89488e-05)
(0.362239 1.04969e-05 -0.000117616)
(0.362259 -8.47042e-07 9.50336e-05)
(0.362242 1.66064e-05 -4.01575e-05)
(0.362302 2.94649e-06 -0.000172425)
(0.362154 3.296e-05 -0.000270828)
(0.362253 -1.20044e-06 -4.91717e-05)
(0.362262 -9.32582e-06 0.000163666)
(0.362307 1.02462e-05 -1.56004e-05)
(0.362255 1.42671e-05 -0.000173713)
(0.36226 1.75925e-05 -0.000239628)
(0.362173 3.807e-06 -4.90034e-05)
(0.362328 8.87548e-06 0.00012655)
(0.362244 1.55535e-05 1.02933e-05)
(0.362253 7.39571e-07 -0.00014124)
(0.362166 1.89362e-05 -0.000237203)
(0.362231 -2.708e-06 1.30775e-05)
(0.362265 -5.26629e-06 0.000161585)
(0.362294 5.22487e-06 3.00981e-05)
(0.362255 1.70232e-05 -0.000160288)
(0.362207 8.01074e-07 -0.000223102)
(0.362229 1.03946e-05 -5.20507e-05)
(0.362279 5.51377e-06 0.000121803)
(0.362296 1.85632e-05 2.46947e-05)
(0.362238 1.9242e-05 -0.000121577)
(0.362202 3.54171e-06 -0.000224064)
(0.362177 3.37902e-06 -9.83151e-06)
(0.362284 -4.88688e-06 0.000127684)
(0.362299 3.13403e-05 5.4199e-05)
(0.362297 1.41169e-05 -0.000214853)
(0.426642 3.28887e-05 -0.000220431)
(0.426613 1.11863e-05 -7.51605e-05)
(0.426677 1.0546e-05 7.20196e-05)
(0.426676 2.01453e-05 -3.45783e-05)
(0.426731 1.46404e-05 -0.000175116)
(0.426689 3.01568e-05 -0.000163073)
(0.426705 6.60412e-06 -5.32949e-05)
(0.42665 1.80834e-05 1.14472e-05)
(0.426723 1.28869e-05 -3.27142e-05)
(0.426717 2.58304e-05 -0.000194254)
(0.426685 1.1029e-05 -0.000169464)
(0.426638 1.43094e-05 -7.19955e-05)
(0.42666 9.75861e-07 2.99676e-05)
(0.426625 1.74443e-05 -3.91488e-05)
(0.426695 1.45119e-05 -0.000195397)
(0.426654 4.13727e-05 -0.000170764)
(0.426691 1.2418e-05 -3.4653e-05)
(0.426676 4.45441e-06 9.34852e-05)
(0.426663 1.76845e-05 -2.62524e-05)
(0.426711 2.703e-05 -0.000135286)
(0.426622 4.20504e-05 -0.000169024)
(0.426631 1.22184e-05 -5.63705e-05)
(0.426597 1.30556e-05 5.90557e-05)
(0.426592 2.09218e-05 -3.66192e-05)
(0.426617 1.241e-05 -0.000149381)
(0.426592 2.98726e-05 -0.000160527)
(0.426557 3.28071e-06 -6.06074e-05)
(0.426574 -9.83557e-06 4.27361e-05)
(0.426587 9.40315e-06 -4.214e-05)
(0.426676 1.85786e-05 -0.000174335)
(0.426635 1.89608e-05 -0.0001962)
(0.426576 2.32348e-05 -0.000102358)
(0.426636 5.25978e-06 1.93399e-05)
(0.426664 2.65691e-05 -6.84112e-05)
(0.426697 3.29378e-05 -0.000159239)
(0.42664 2.39427e-05 -0.000182736)
(0.426624 1.60942e-05 -6.04477e-05)
(0.426642 6.35794e-06 8.90604e-05)
(0.426665 3.0478e-05 -6.68954e-05)
(0.426745 2.9834e-05 -0.000167268)
(0.492427 4.94145e-05 -0.000121769)
(0.49236 2.5859e-05 -8.20939e-05)
(0.492414 2.24222e-05 7.24978e-05)
(0.492368 2.90472e-05 -9.34204e-05)
(0.492472 2.2329e-05 -0.000135326)
(0.492383 4.25455e-05 -0.000182537)
(0.492435 1.58852e-05 -5.12635e-05)
(0.492403 3.05841e-05 3.03532e-05)
(0.492445 1.31822e-05 -6.57421e-05)
(0.492414 3.14156e-05 -0.000148845)
(0.492462 2.47324e-05 -0.000156422)
(0.4924 2.4487e-05 -3.02021e-05)
(0.492442 1.6309e-05 2.74782e-05)
(0.492408 2.37986e-05 -2.57578e-05)
(0.492403 2.48394e-05 -0.000107146)
(0.492412 4.57872e-05 -0.000120325)
(0.492428 2.77771e-05 1.7995e-05)
(0.492424 2.90805e-05 5.93208e-05)
(0.492372 3.00628e-05 9.07711e-06)
(0.492409 3.99365e-05 -0.000133314)
(0.492401 4.75852e-05 -9.49782e-05)
(0.492432 3.3676e-05 -3.06645e-05)
(0.492359 2.6244e-05 8.03783e-05)
(0.492388 3.63902e-05 -5.20316e-05)
(0.492358 2.42809e-05 -0.000137965)
(0.49239 4.05467e-05 -0.000155244)
(0.492345 2.06341e-05 -3.40879e-05)
(0.492388 4.67333e-06 2.42787e-05)
(0.492328 1.54502e-05 -4.27369e-05)
(0.492384 2.10134e-05 -0.000122633)
(0.492358 2.59143e-05 -0.00015618)
(0.492392 3.00693e-05 -2.78414e-05)
(0.492376 5.3035e-06 3.99341e-05)
(0.492383 2.78622e-05 -4.9574e-05)
(0.492406 3.3391e-05 -0.000177816)
(0.492436 3.92263e-05 -0.000145681)
(0.492426 2.89309e-05 -4.624e-05)
(0.492395 2.07398e-05 1.68212e-05)
(0.492383 3.66674e-05 -3.67634e-05)
(0.492381 3.83252e-05 -0.000158452)
(0.558996 5.18637e-05 -0.000104378)
(0.558954 4.39015e-05 -3.01146e-05)
(0.559023 3.08337e-05 1.28439e-05)
(0.558954 4.74536e-05 -4.80659e-06)
(0.558991 3.87033e-05 -5.69193e-05)
(0.558946 5.93372e-05 -7.71974e-05)
(0.559 3.27079e-05 -2.18702e-05)
(0.558964 4.24628e-05 1.91394e-05)
(0.559021 2.92091e-05 -9.1906e-06)
(0.558949 4.67651e-05 -7.24722e-05)
(0.559004 3.58555e-05 -7.61481e-05)
(0.558975 4.10785e-05 -2.07345e-05)
(0.558997 2.55311e-05 9.86641e-06)
(0.558992 4.26506e-05 2.3484e-06)
(0.558996 3.6801e-05 -7.49055e-05)
(0.558971 5.80685e-05 -5.57799e-05)
(0.55901 3.80223e-05 -3.18816e-05)
(0.558964 4.42777e-05 2.4186e-05)
(0.559002 3.89043e-05 -1.40795e-05)
(0.558943 5.43416e-05 -6.07498e-05)
(0.558958 4.98625e-05 -6.62085e-05)
(0.558973 4.72694e-05 6.74802e-06)
(0.558986 3.23661e-05 4.65238e-05)
(0.558989 4.73979e-05 2.43259e-05)
(0.558973 3.64367e-05 -6.40731e-05)
(0.558975 4.89652e-05 -6.7273e-05)
(0.55897 3.5395e-05 -2.84713e-05)
(0.55897 2.34087e-05 1.9635e-05)
(0.558957 2.9561e-05 -2.13468e-05)
(0.558939 4.0827e-05 -4.40957e-05)
(0.558925 3.70256e-05 -9.00967e-05)
(0.558942 4.13826e-05 -7.60901e-06)
(0.558962 1.9085e-05 7.41851e-06)
(0.558944 3.84574e-05 4.85285e-06)
(0.558957 4.12778e-05 -7.18449e-05)
(0.558939 4.4942e-05 -7.3853e-05)
(0.558965 3.68232e-05 -4.76305e-05)
(0.558928 2.93989e-05 -1.31032e-05)
(0.558977 4.3866e-05 -2.34018e-05)
(0.558919 4.89807e-05 -0.000105971)
(0.62576 5.51158e-05 -3.14655e-05)
(0.625713 4.79335e-05 -9.78023e-06)
(0.625755 3.44917e-05 3.55735e-06)
(0.62572 4.94675e-05 -3.46486e-07)
(0.625758 4.34333e-05 -3.06245e-05)
(0.625724 5.87075e-05 -2.40798e-05)
(0.625755 3.74953e-05 -1.41809e-05)
(0.625721 4.54429e-05 1.49727e-05)
(0.625752 3.39397e-05 -1.05105e-05)
(0.625722 4.86794e-05 -2.08944e-05)
(0.625749 3.97473e-05 -3.61913e-05)
(0.625723 4.523e-05 -1.26013e-06)
(0.625755 3.13342e-05 7.88585e-06)
(0.625712 4.56135e-05 1.00951e-05)
(0.625762 4.06319e-05 -2.09655e-05)
(0.625719 5.79654e-05 -1.66074e-05)
(0.625768 4.49954e-05 3.96183e-06)
(0.625729 4.68444e-05 2.93024e-05)
(0.62576 4.45425e-05 7.63508e-06)
(0.625732 5.82988e-05 -1.22212e-05)
(0.625759 5.6739e-05 -1.70063e-05)
(0.625735 5.08082e-05 1.43227e-05)
(0.625763 3.78016e-05 3.12713e-05)
(0.625743 4.82974e-05 2.28263e-05)
(0.62576 4.2277e-05 -5.96142e-06)
(0.625747 5.15082e-05 -1.34376e-05)
(0.62575 4.51702e-05 8.90032e-06)
(0.625743 3.21589e-05 3.20549e-05)
(0.625735 3.63457e-05 8.88489e-06)
(0.625733 4.78283e-05 -1.00416e-05)
(0.625737 4.23238e-05 -2.5297e-05)
(0.625708 4.91142e-05 -3.47162e-06)
(0.625733 3.09073e-05 7.04991e-06)
(0.625694 4.34396e-05 -1.12303e-06)
(0.625744 4.78395e-05 -3.12985e-05)
(0.625696 5.09638e-05 -2.82711e-05)
(0.625759 4.62091e-05 -5.82981e-06)
(0.625697 3.76465e-05 1.08266e-05)
(0.625757 4.83464e-05 -2.94109e-06)
(0.625705 5.09575e-05 -3.18887e-05)
(0.691966 4.7002e-05 4.15071e-06)
(0.691947 4.6186e-05 2.13175e-05)
(0.691972 3.22493e-05 1.87302e-05)
(0.691948 4.54589e-05 2.54853e-05)
(0.69197 3.77974e-05 6.04658e-06)
(0.691955 5.31954e-05 1.22069e-05)
(0.691975 3.63847e-05 9.4584e-06)
(0.691957 4.31729e-05 2.44521e-05)
(0.691973 3.25694e-05 1.16712e-05)
(0.691953 4.45129e-05 1.07113e-05)
(0.691972 3.78573e-05 2.22571e-07)
(0.691954 4.30157e-05 1.53749e-05)
(0.691973 3.30375e-05 1.69186e-05)
(0.691952 4.27602e-05 2.31738e-05)
(0.69197 3.94504e-05 8.85149e-06)
(0.691953 5.09479e-05 1.44443e-05)
(0.691976 4.26013e-05 1.93422e-05)
(0.691957 4.45999e-05 2.73582e-05)
(0.691975 4.24726e-05 2.22099e-05)
(0.691957 5.13782e-05 1.09461e-05)
(0.691975 5.07914e-05 1.36831e-05)
(0.691967 4.71026e-05 1.8908e-05)
(0.69198 3.67788e-05 3.29987e-05)
(0.691969 4.33686e-05 2.48337e-05)
(0.69198 4.0251e-05 2.25155e-05)
(0.691966 4.53029e-05 1.58594e-05)
(0.691983 4.09237e-05 2.66027e-05)
(0.691967 3.30773e-05 3.2736e-05)
(0.691982 3.32309e-05 2.91763e-05)
(0.691955 4.2983e-05 1.96376e-05)
(0.691979 3.97236e-05 1.58367e-05)
(0.691948 4.46926e-05 2.24559e-05)
(0.691976 3.17071e-05 2.50087e-05)
(0.691935 3.80694e-05 2.26954e-05)
(0.691969 4.33848e-05 1.07791e-05)
(0.691931 4.40634e-05 1.30221e-05)
(0.691967 4.14485e-05 1.65999e-05)
(0.691934 3.62179e-05 2.77638e-05)
(0.691962 4.17652e-05 1.82346e-05)
(0.691936 4.69718e-05 1.40859e-05)
(0.756755 3.62213e-05 2.09944e-05)
(0.756744 3.92479e-05 2.68894e-05)
(0.756755 2.63178e-05 2.59195e-05)
(0.756743 3.73344e-05 2.92864e-05)
(0.756754 3.03939e-05 2.34043e-05)
(0.756744 4.18959e-05 2.45252e-05)
(0.756757 3.00358e-05 2.27846e-05)
(0.756747 3.42438e-05 2.83145e-05)
(0.756758 2.59668e-05 2.34964e-05)
(0.756747 3.53739e-05 2.38727e-05)
(0.756759 3.03068e-05 1.95689e-05)
(0.75675 3.58109e-05 2.41299e-05)
(0.75676 2.67793e-05 2.56012e-05)
(0.75675 3.44814e-05 2.92436e-05)
(0.756759 3.15329e-05 2.5879e-05)
(0.75675 4.03022e-05 2.63263e-05)
(0.75676 3.50726e-05 2.84666e-05)
(0.756751 3.66655e-05 2.89859e-05)
(0.756759 3.41622e-05 2.87197e-05)
(0.756748 4.11031e-05 2.34493e-05)
(0.75676 4.03068e-05 2.35196e-05)
(0.75675 3.91746e-05 2.45368e-05)
(0.756764 3.05374e-05 3.00096e-05)
(0.756748 3.45663e-05 2.78434e-05)
(0.756766 3.23625e-05 2.55732e-05)
(0.756749 3.60094e-05 2.40403e-05)
(0.75677 3.28875e-05 2.56278e-05)
(0.756751 2.88352e-05 3.02076e-05)
(0.756771 2.63604e-05 2.74312e-05)
(0.75675 3.38419e-05 2.74227e-05)
(0.756771 3.13148e-05 2.21528e-05)
(0.756751 3.42787e-05 2.80585e-05)
(0.756772 2.71275e-05 2.521e-05)
(0.756749 2.93e-05 2.86817e-05)
(0.756766 3.42534e-05 2.27223e-05)
(0.756747 3.60259e-05 2.58643e-05)
(0.756764 3.45649e-05 2.56602e-05)
(0.756746 3.14724e-05 3.02135e-05)
(0.756757 3.26674e-05 2.67846e-05)
(0.756743 3.92522e-05 2.58483e-05)
(0.819058 2.38628e-05 2.24327e-05)
(0.819051 2.85488e-05 2.58565e-05)
(0.819058 1.7837e-05 2.44274e-05)
(0.819048 2.57688e-05 2.77503e-05)
(0.819056 1.98911e-05 2.40355e-05)
(0.819047 2.90187e-05 2.57536e-05)
(0.819056 2.05742e-05 2.29231e-05)
(0.819048 2.40257e-05 2.63491e-05)
(0.819055 1.73715e-05 2.32206e-05)
(0.819046 2.41162e-05 2.43876e-05)
(0.819054 2.10427e-05 2.16094e-05)
(0.819046 2.5126e-05 2.41472e-05)
(0.819056 1.95191e-05 2.4631e-05)
(0.819047 2.42521e-05 2.7972e-05)
(0.819056 2.24103e-05 2.69163e-05)
(0.819047 2.80888e-05 2.74611e-05)
(0.819059 2.51727e-05 2.74942e-05)
(0.819048 2.60097e-05 2.82629e-05)
(0.819059 2.4173e-05 2.72254e-05)
(0.819047 2.85699e-05 2.57466e-05)
(0.81906 2.84843e-05 2.45469e-05)
(0.819049 2.78741e-05 2.62914e-05)
(0.819062 2.19708e-05 2.69929e-05)
(0.819048 2.32378e-05 2.83707e-05)
(0.81906 2.2185e-05 2.57592e-05)
(0.819048 2.44491e-05 2.63543e-05)
(0.81906 2.2618e-05 2.45925e-05)
(0.819049 2.05591e-05 2.85047e-05)
(0.81906 1.77276e-05 2.55389e-05)
(0.819048 2.24174e-05 2.74326e-05)
(0.81906 2.12416e-05 2.25609e-05)
(0.81905 2.34255e-05 2.5909e-05)
(0.819061 1.88845e-05 2.32684e-05)
(0.81905 1.98757e-05 2.59575e-05)
(0.819059 2.22841e-05 2.31016e-05)
(0.81905 2.51732e-05 2.52409e-05)
(0.819059 2.27575e-05 2.43722e-05)
(0.819051 2.30008e-05 2.71796e-05)
(0.819058 2.07118e-05 2.50347e-05)
(0.81905 2.80474e-05 2.57151e-05)
(0.877666 1.48593e-05 2.02849e-05)
(0.877661 1.93443e-05 2.2852e-05)
(0.877667 1.15896e-05 2.11615e-05)
(0.877661 1.70991e-05 2.39999e-05)
(0.877667 1.29032e-05 2.13629e-05)
(0.87766 1.92039e-05 2.29769e-05)
(0.877668 1.3828e-05 2.04291e-05)
(0.877661 1.63048e-05 2.28399e-05)
(0.877667 1.1383e-05 2.05212e-05)
(0.87766 1.59326e-05 2.19078e-05)
(0.877666 1.38177e-05 1.96284e-05)
(0.87766 1.72426e-05 2.17356e-05)
(0.877667 1.32838e-05 2.14385e-05)
(0.87766 1.62909e-05 2.44606e-05)
(0.877667 1.48215e-05 2.35572e-05)
(0.87766 1.87126e-05 2.47806e-05)
(0.877668 1.68033e-05 2.38431e-05)
(0.87766 1.77455e-05 2.50699e-05)
(0.877667 1.59079e-05 2.36677e-05)
(0.87766 1.90498e-05 2.38654e-05)
(0.877667 1.85969e-05 2.23799e-05)
(0.877661 1.89485e-05 2.43181e-05)
(0.877669 1.45128e-05 2.40114e-05)
(0.877661 1.51621e-05 2.58701e-05)
(0.877668 1.39196e-05 2.37027e-05)
(0.877661 1.58589e-05 2.48497e-05)
(0.877668 1.44022e-05 2.28163e-05)
(0.877662 1.39649e-05 2.5867e-05)
(0.877668 1.08381e-05 2.35024e-05)
(0.877661 1.42843e-05 2.52935e-05)
(0.877667 1.29116e-05 2.16097e-05)
(0.877662 1.51979e-05 2.37119e-05)
(0.877668 1.13269e-05 2.12755e-05)
(0.877661 1.29259e-05 2.33978e-05)
(0.877666 1.26753e-05 2.11087e-05)
(0.877661 1.66145e-05 2.30737e-05)
(0.877667 1.3793e-05 2.15893e-05)
(0.877661 1.57858e-05 2.39644e-05)
(0.877666 1.2336e-05 2.18456e-05)
(0.877661 1.86651e-05 2.3172e-05)
(0.931327 7.88954e-06 1.80237e-05)
(0.931323 1.13329e-05 1.99474e-05)
(0.931327 6.35345e-06 1.84084e-05)
(0.931322 9.77464e-06 2.05644e-05)
(0.931327 6.87962e-06 1.85936e-05)
(0.931322 1.08645e-05 1.995e-05)
(0.931328 7.70085e-06 1.78366e-05)
(0.931323 9.34069e-06 1.94845e-05)
(0.931327 6.1021e-06 1.76609e-05)
(0.931322 8.81688e-06 1.87902e-05)
(0.931327 7.65365e-06 1.70676e-05)
(0.931322 1.01398e-05 1.85933e-05)
(0.931327 7.82983e-06 1.81316e-05)
(0.931323 9.76455e-06 2.03981e-05)
(0.931328 8.64181e-06 1.98087e-05)
(0.931323 1.12115e-05 2.09678e-05)
(0.931328 9.88767e-06 1.99959e-05)
(0.931324 1.08507e-05 2.10745e-05)
(0.931328 9.18658e-06 1.98754e-05)
(0.931323 1.13922e-05 2.05191e-05)
(0.931328 1.07165e-05 1.93049e-05)
(0.931324 1.15976e-05 2.10154e-05)
(0.931328 8.29629e-06 2.04617e-05)
(0.931324 8.84335e-06 2.22118e-05)
(0.931328 7.26934e-06 2.04872e-05)
(0.931323 9.04414e-06 2.17917e-05)
(0.931327 7.48738e-06 1.99788e-05)
(0.931324 8.21165e-06 2.23371e-05)
(0.931328 5.17428e-06 2.04801e-05)
(0.931323 7.82845e-06 2.20332e-05)
(0.931328 6.06772e-06 1.93338e-05)
(0.931324 8.48053e-06 2.07668e-05)
(0.931328 5.24744e-06 1.87147e-05)
(0.931323 7.10895e-06 2.03531e-05)
(0.931327 5.71586e-06 1.85268e-05)
(0.931323 9.36511e-06 2.0245e-05)
(0.931327 6.88242e-06 1.87871e-05)
(0.931323 9.25828e-06 2.07554e-05)
(0.931327 6.17363e-06 1.89339e-05)
(0.931322 1.06677e-05 2.03034e-05)
(0.97878 2.98309e-06 1.51956e-05)
(0.978777 5.56422e-06 1.64996e-05)
(0.97878 2.39421e-06 1.53011e-05)
(0.978777 4.70919e-06 1.6818e-05)
(0.97878 2.61731e-06 1.54129e-05)
(0.978777 5.309e-06 1.6488e-05)
(0.978781 3.22184e-06 1.48602e-05)
(0.978777 4.6344e-06 1.59939e-05)
(0.978781 2.35053e-06 1.45787e-05)
(0.978777 4.24373e-06 1.54793e-05)
(0.97878 3.31636e-06 1.41856e-05)
(0.978777 5.40173e-06 1.53847e-05)
(0.97878 3.86607e-06 1.48638e-05)
(0.978778 5.33556e-06 1.6612e-05)
(0.978781 4.20971e-06 1.61041e-05)
(0.978778 6.08959e-06 1.7253e-05)
(0.978781 4.82205e-06 1.62907e-05)
(0.978779 5.95298e-06 1.73013e-05)
(0.978781 4.29484e-06 1.62034e-05)
(0.978778 6.10857e-06 1.70981e-05)
(0.978781 5.12624e-06 1.60816e-05)
(0.978779 6.35511e-06 1.76359e-05)
(0.978782 3.75942e-06 1.69501e-05)
(0.978779 4.42445e-06 1.85239e-05)
(0.978781 2.63683e-06 1.71041e-05)
(0.978778 4.21472e-06 1.84045e-05)
(0.978781 2.69336e-06 1.68724e-05)
(0.978778 3.92821e-06 1.86323e-05)
(0.978781 1.34605e-06 1.71891e-05)
(0.978778 3.30155e-06 1.83701e-05)
(0.978781 1.55059e-06 1.64646e-05)
(0.978778 3.5646e-06 1.73395e-05)
(0.978781 1.1292e-06 1.57568e-05)
(0.978778 2.72264e-06 1.68539e-05)
(0.978781 1.1685e-06 1.54575e-05)
(0.978777 3.98792e-06 1.68053e-05)
(0.97878 2.16851e-06 1.55881e-05)
(0.978777 4.29641e-06 1.70926e-05)
(0.97878 1.91445e-06 1.56801e-05)
(0.978777 4.9827e-06 1.68142e-05)
(1.01887 -2.64918e-07 1.2263e-05)
(1.01887 1.54037e-06 1.31084e-05)
(1.01887 -4.56568e-07 1.22168e-05)
(1.01887 1.15057e-06 1.32678e-05)
(1.01887 -3.64778e-07 1.22156e-05)
(1.01887 1.50626e-06 1.30618e-05)
(1.01887 6.33336e-08 1.18248e-05)
(1.01887 1.26728e-06 1.25862e-05)
(1.01887 -2.99455e-07 1.1523e-05)
(1.01887 1.05648e-06 1.21299e-05)
(1.01887 3.38632e-07 1.12401e-05)
(1.01887 1.94989e-06 1.20855e-05)
(1.01887 9.69615e-07 1.16713e-05)
(1.01887 2.12344e-06 1.29321e-05)
(1.01887 1.1535e-06 1.25408e-05)
(1.01887 2.49044e-06 1.35114e-05)
(1.01887 1.34546e-06 1.27504e-05)
(1.01887 2.3522e-06 1.35644e-05)
(1.01887 9.50554e-07 1.27302e-05)
(1.01887 2.32772e-06 1.35584e-05)
(1.01887 1.34725e-06 1.28249e-05)
(1.01887 2.48921e-06 1.41168e-05)
(1.01887 6.07716e-07 1.35048e-05)
(1.01887 1.1858e-06 1.48067e-05)
(1.01887 -3.90636e-07 1.37401e-05)
(1.01887 8.20572e-07 1.48513e-05)
(1.01887 -4.35282e-07 1.37422e-05)
(1.01887 7.10507e-07 1.49435e-05)
(1.01887 -1.20888e-06 1.397e-05)
(1.01887 1.42934e-07 1.47237e-05)
(1.01887 -1.33919e-06 1.34816e-05)
(1.01887 1.30037e-07 1.39603e-05)
(1.01887 -1.66212e-06 1.27767e-05)
(1.01887 -4.00821e-07 1.35127e-05)
(1.01887 -1.74966e-06 1.23799e-05)
(1.01887 2.94578e-07 1.34664e-05)
(1.01887 -9.7773e-07 1.24249e-05)
(1.01887 7.00505e-07 1.35869e-05)
(1.01887 -9.46476e-07 1.25141e-05)
(1.01887 1.08545e-06 1.3375e-05)
(1.05067 -1.99959e-06 9.59407e-06)
(1.05067 -7.59014e-07 1.01086e-05)
(1.05067 -2.03341e-06 9.42998e-06)
(1.05067 -8.56464e-07 1.01844e-05)
(1.05067 -1.95139e-06 9.33824e-06)
(1.05067 -6.01302e-07 1.00067e-05)
(1.05067 -1.65189e-06 9.09476e-06)
(1.05067 -6.36866e-07 9.5559e-06)
(1.05067 -1.70806e-06 8.83343e-06)
(1.05067 -7.11624e-07 9.17044e-06)
(1.05067 -1.21737e-06 8.59503e-06)
(1.05067 -3.23486e-08 9.17026e-06)
(1.05067 -6.26264e-07 8.85398e-06)
(1.05067 2.6116e-07 9.78107e-06)
(1.05067 -4.87234e-07 9.4619e-06)
(1.05067 3.94787e-07 1.02491e-05)
(1.05067 -5.44309e-07 9.67372e-06)
(1.05067 2.11587e-07 1.0331e-05)
(1.05067 -8.66974e-07 9.69868e-06)
(1.05067 1.02036e-07 1.04425e-05)
(1.05067 -7.31075e-07 9.86992e-06)
(1.05067 1.7273e-07 1.09652e-05)
(1.05067 -1.12383e-06 1.04416e-05)
(1.05067 -6.98624e-07 1.15116e-05)
(1.05067 -1.92764e-06 1.07656e-05)
(1.05067 -1.07858e-06 1.16116e-05)
(1.05067 -2.07794e-06 1.09241e-05)
(1.05067 -1.17091e-06 1.16533e-05)
(1.05067 -2.54721e-06 1.10917e-05)
(1.05067 -1.59552e-06 1.14713e-05)
(1.05067 -2.81179e-06 1.06909e-05)
(1.05067 -1.74783e-06 1.09657e-05)
(1.05067 -3.10509e-06 1.0019e-05)
(1.05067 -2.10672e-06 1.06092e-05)
(1.05067 -3.22375e-06 9.57896e-06)
(1.05067 -1.76382e-06 1.04829e-05)
(1.05067 -2.6781e-06 9.60683e-06)
(1.05067 -1.40107e-06 1.04523e-05)
(1.05067 -2.46799e-06 9.74198e-06)
(1.05067 -1.11233e-06 1.02768e-05)
(1.07371 -2.68021e-06 7.2637e-06)
(1.07371 -1.91847e-06 7.6225e-06)
(1.07371 -2.65527e-06 7.04522e-06)
(1.07371 -1.83715e-06 7.62239e-06)
(1.07371 -2.56565e-06 6.96913e-06)
(1.07371 -1.60644e-06 7.40017e-06)
(1.07371 -2.32678e-06 6.82586e-06)
(1.07371 -1.55724e-06 7.00628e-06)
(1.07371 -2.22965e-06 6.58942e-06)
(1.07371 -1.54032e-06 6.73266e-06)
(1.07371 -1.81442e-06 6.34459e-06)
(1.07371 -1.01851e-06 6.75978e-06)
(1.07371 -1.30353e-06 6.48961e-06)
(1.07371 -6.98102e-07 7.18541e-06)
(1.07371 -1.18109e-06 6.9179e-06)
(1.07371 -6.62073e-07 7.545e-06)
(1.07371 -1.34859e-06 7.113e-06)
(1.07371 -8.70451e-07 7.65495e-06)
(1.07371 -1.65828e-06 7.15982e-06)
(1.07371 -1.02751e-06 7.82364e-06)
(1.07371 -1.66723e-06 7.36799e-06)
(1.07371 -1.03527e-06 8.26742e-06)
(1.07371 -1.87176e-06 7.88225e-06)
(1.07371 -1.62412e-06 8.69002e-06)
(1.07371 -2.4467e-06 8.26315e-06)
(1.07371 -1.97282e-06 8.79535e-06)
(1.07371 -2.67134e-06 8.48742e-06)
(1.07371 -2.07024e-06 8.83621e-06)
(1.07371 -2.98215e-06 8.57784e-06)
(1.07371 -2.3837e-06 8.75873e-06)
(1.07371 -3.29087e-06 8.18517e-06)
(1.07371 -2.5927e-06 8.46304e-06)
(1.07371 -3.5489e-06 7.58189e-06)
(1.07371 -2.86276e-06 8.14721e-06)
(1.07371 -3.68535e-06 7.23563e-06)
(1.07371 -2.72805e-06 7.89253e-06)
(1.07371 -3.29683e-06 7.30463e-06)
(1.07371 -2.44689e-06 7.76235e-06)
(1.07371 -3.02059e-06 7.42382e-06)
(1.07371 -2.20916e-06 7.67735e-06)
(1.0882 -2.58278e-06 5.30991e-06)
(1.0882 -2.16449e-06 5.5952e-06)
(1.0882 -2.53467e-06 5.13808e-06)
(1.0882 -1.9996e-06 5.50047e-06)
(1.0882 -2.44041e-06 5.09292e-06)
(1.0882 -1.77097e-06 5.27644e-06)
(1.0882 -2.23277e-06 4.96777e-06)
(1.0882 -1.68662e-06 5.00305e-06)
(1.0882 -2.05822e-06 4.73271e-06)
(1.0882 -1.61716e-06 4.83404e-06)
(1.0882 -1.70162e-06 4.50723e-06)
(1.0882 -1.22998e-06 4.84897e-06)
(1.0882 -1.2673e-06 4.59645e-06)
(1.0882 -9.32558e-07 5.12787e-06)
(1.0882 -1.15948e-06 4.904e-06)
(1.0882 -9.39982e-07 5.41065e-06)
(1.0882 -1.36917e-06 5.07459e-06)
(1.0882 -1.14234e-06 5.53271e-06)
(1.0882 -1.67289e-06 5.13947e-06)
(1.0882 -1.3146e-06 5.70899e-06)
(1.0882 -1.76753e-06 5.37942e-06)
(1.0882 -1.38297e-06 6.05834e-06)
(1.0882 -1.88068e-06 5.85669e-06)
(1.0882 -1.78545e-06 6.37859e-06)
(1.0882 -2.25907e-06 6.24497e-06)
(1.0882 -2.08223e-06 6.50494e-06)
(1.0882 -2.48223e-06 6.43105e-06)
(1.0882 -2.16817e-06 6.60363e-06)
(1.0882 -2.72966e-06 6.41688e-06)
(1.0882 -2.39319e-06 6.62511e-06)
(1.0882 -3.05549e-06 6.06635e-06)
(1.0882 -2.622e-06 6.41505e-06)
(1.0882 -3.30241e-06 5.62635e-06)
(1.0882 -2.84224e-06 6.0648e-06)