/*--------------------------------*- C++ -*----------------------------------*\
  =========                 |
  \\      /  F ield         | OpenFOAM: The Open Source CFD Toolbox
   \\    /   O peration     | Website:  https://openfoam.org
    \\  /    A nd           | Version:  10
     \\/     M anipulation  |
\*---------------------------------------------------------------------------*/
FoamFile
{
    format      ascii;
    class       volScalarField;
    location    "20";
    object      p;
}
// * * * * * * * * * * * * * * * * * * * * * * * * * * * * * * * * * * * * * //

dimensions      [0 2 -2 0 0 0 0];

internalField   nonuniform List<scalar> 
25600
(
-5.30031e-06
-1.9153e-06
-4.58421e-06
-4.36196e-06
-1.20548e-06
-5.13807e-06
-2.69501e-06
-2.2258e-06
-3.80221e-06
-3.08466e-06
-1.79718e-06
-3.80177e-06
-3.19509e-06
-1.24654e-06
-5.23432e-06
-1.6784e-06
-3.21996e-06
-4.64851e-06
-2.03727e-06
-4.81037e-06
-3.56792e-06
-4.22356e-06
-3.91401e-06
-5.19247e-06
-4.21069e-06
-3.99288e-06
-6.80906e-06
-2.77658e-06
-6.01198e-06
-5.84355e-06
-2.80284e-06
-7.37173e-06
-3.66888e-06
-4.62797e-06
-6.0954e-06
-3.28492e-06
-5.08354e-06
-4.83036e-06
-3.57863e-06
-3.96746e-06
-5.30282e-06
-1.92098e-06
-4.58093e-06
-4.3697e-06
-1.20863e-06
-5.13554e-06
-2.7041e-06
-2.22511e-06
-3.80358e-06
-3.0891e-06
-1.79852e-06
-3.79977e-06
-3.19988e-06
-1.24594e-06
-5.22942e-06
-1.6847e-06
-3.211e-06
-4.64901e-06
-2.03612e-06
-4.80203e-06
-3.56859e-06
-4.21643e-06
-3.91069e-06
-5.18635e-06
-4.20801e-06
-3.98576e-06
-6.8033e-06
-2.77775e-06
-6.00055e-06
-5.84561e-06
-2.79972e-06
-7.36349e-06
-3.6754e-06
-4.6199e-06
-6.09678e-06
-3.28763e-06
-5.07917e-06
-4.83456e-06
-3.5803e-06
-3.96716e-06
-5.31186e-06
-1.9225e-06
-4.57607e-06
-4.38484e-06
-1.20417e-06
-5.13546e-06
-2.71679e-06
-2.21995e-06
-3.80657e-06
-3.09645e-06
-1.79515e-06
-3.79809e-06
-3.20899e-06
-1.23671e-06
-5.23012e-06
-1.69046e-06
-3.19601e-06
-4.6563e-06
-2.0295e-06
-4.79418e-06
-3.5698e-06
-4.20812e-06
-3.90599e-06
-5.18118e-06
-4.20707e-06
-3.97295e-06
-6.80472e-06
-2.7751e-06
-5.98609e-06
-5.85626e-06
-2.78711e-06
-7.36031e-06
-3.684e-06
-4.60543e-06
-6.10532e-06
-3.28752e-06
-5.07308e-06
-4.84324e-06
-3.58034e-06
-3.96399e-06
-5.32789e-06
-1.91884e-06
-4.56849e-06
-4.40939e-06
-1.19005e-06
-5.1376e-06
-2.73515e-06
-2.20639e-06
-3.8125e-06
-3.10756e-06
-1.78581e-06
-3.79759e-06
-3.22421e-06
-1.21763e-06
-5.23779e-06
-1.69703e-06
-3.17323e-06
-4.67344e-06
-2.01697e-06
-4.7868e-06
-3.57431e-06
-4.1976e-06
-3.90139e-06
-5.17739e-06
-4.2082e-06
-3.95362e-06
-6.81474e-06
-2.769e-06
-5.96708e-06
-5.87879e-06
-2.76268e-06
-7.36263e-06
-3.69647e-06
-4.58098e-06
-6.12358e-06
-3.28337e-06
-5.06384e-06
-4.85814e-06
-3.57673e-06
-3.9578e-06
-5.35171e-06
-1.90868e-06
-4.5575e-06
-4.44506e-06
-1.16387e-06
-5.14259e-06
-2.76027e-06
-2.18274e-06
-3.82156e-06
-3.12262e-06
-1.76947e-06
-3.79913e-06
-3.24662e-06
-1.18609e-06
-5.25418e-06
-1.7048e-06
-3.14124e-06
-4.70326e-06
-1.99708e-06
-4.78037e-06
-3.58326e-06
-4.18414e-06
-3.89762e-06
-5.17524e-06
-4.2119e-06
-3.92682e-06
-6.83505e-06
-2.75868e-06
-5.94262e-06
-5.91561e-06
-2.72339e-06
-7.37182e-06
-3.71334e-06
-4.54381e-06
-6.15415e-06
-3.27336e-06
-5.05071e-06
-4.88045e-06
-3.56779e-06
-3.94822e-06
-5.38418e-06
-1.89023e-06
-4.54263e-06
-4.4932e-06
-1.12273e-06
-5.15167e-06
-2.79233e-06
-2.14709e-06
-3.83651e-06
-3.1412e-06
-1.74487e-06
-3.80371e-06
-3.27701e-06
-1.14239e-06
-5.28174e-06
-1.71337e-06
-3.09919e-06
-4.74877e-06
-1.96853e-06
-4.7762e-06
-3.59748e-06
-4.16757e-06
-3.89539e-06
-5.17532e-06
-4.2189e-06
-3.89161e-06
-6.86812e-06
-2.74268e-06
-5.91274e-06
-5.96912e-06
-2.6658e-06
-7.39044e-06
-3.7341e-06
-4.49168e-06
-6.19962e-06
-3.25511e-06
-5.03344e-06
-4.91093e-06
-3.55186e-06
-3.93471e-06
-5.42596e-06
-1.86176e-06
-4.52333e-06
-4.55477e-06
-1.06387e-06
-5.16601e-06
-2.83101e-06
-2.09769e-06
-3.85861e-06
-3.16301e-06
-1.71126e-06
-3.81232e-06
-3.31559e-06
-1.08375e-06
-5.32302e-06
-1.72198e-06
-3.04654e-06
-4.81293e-06
-1.92941e-06
-4.77592e-06
-3.61774e-06
-4.14806e-06
-3.89547e-06
-5.17838e-06
-4.23013e-06
-3.84721e-06
-6.91667e-06
-2.71944e-06
-5.87803e-06
-6.04168e-06
-2.58647e-06
-7.4216e-06
-3.75792e-06
-4.42268e-06
-6.26245e-06
-3.22609e-06
-5.01208e-06
-4.95011e-06
-3.52739e-06
-3.91662e-06
-5.47725e-06
-1.82193e-06
-4.49916e-06
-4.63018e-06
-9.85015e-07
-5.18664e-06
-2.87556e-06
-2.03328e-06
-3.88887e-06
-3.18708e-06
-1.66664e-06
-3.82593e-06
-3.36262e-06
-1.00869e-06
-5.38028e-06
-1.72952e-06
-2.98306e-06
-4.89827e-06
-1.87798e-06
-4.78117e-06
-3.64453e-06
-4.12587e-06
-3.89852e-06
-5.18521e-06
-4.24647e-06
-3.79303e-06
-6.98336e-06
-2.6872e-06
-5.83964e-06
-6.13537e-06
-2.4822e-06
-7.46892e-06
-3.7837e-06
-4.33537e-06
-6.34562e-06
-3.18374e-06
-4.98709e-06
-4.99833e-06
-3.49309e-06
-3.89346e-06
-5.53763e-06
-1.77003e-06
-4.4704e-06
-4.7187e-06
-8.85065e-07
-5.21449e-06
-2.92444e-06
-1.9536e-06
-3.928e-06
-3.21201e-06
-1.61242e-06
-3.84544e-06
-3.41692e-06
-9.16359e-07
-5.45517e-06
-1.73417e-06
-2.90917e-06
-5.00613e-06
-1.81258e-06
-4.79338e-06
-3.67775e-06
-4.10131e-06
-3.90476e-06
-5.19653e-06
-4.26842e-06
-3.72886e-06
-7.07051e-06
-2.64423e-06
-5.79958e-06
-6.25153e-06
-2.34971e-06
-7.53635e-06
-3.80993e-06
-4.22931e-06
-6.45204e-06
-3.1257e-06
-4.95979e-06
-5.05574e-06
-3.44816e-06
-3.86561e-06
-5.60604e-06
-1.70628e-06
-4.43889e-06
-4.81808e-06
-7.65006e-07
-5.2505e-06
-2.97509e-06
-1.86034e-06
-3.9761e-06
-3.23598e-06
-1.54792e-06
-3.87185e-06
-3.47646e-06
-8.07135e-07
-5.54813e-06
-1.73327e-06
-2.82661e-06
-5.13562e-06
-1.73189e-06
-4.81341e-06
-3.71621e-06
-4.07466e-06
-3.91342e-06
-5.21285e-06
-4.29557e-06
-3.65495e-06
-7.17945e-06
-2.58827e-06
-5.7606e-06
-6.39004e-06
-2.18825e-06
-7.62774e-06
-3.83459e-06
-4.10554e-06
-6.58424e-06
-3.05022e-06
-4.93259e-06
-5.12241e-06
-3.39225e-06
-3.83494e-06
-5.68125e-06
-1.6318e-06
-4.40883e-06
-4.92442e-06
-6.29126e-07
-5.29571e-06
-3.02388e-06
-1.75859e-06
-4.03248e-06
-3.25689e-06
-1.4746e-06
-3.90623e-06
-3.53785e-06
-6.839e-07
-5.65766e-06
-1.72289e-06
-2.73953e-06
-5.2824e-06
-1.63564e-06
-4.84103e-06
-3.75724e-06
-4.04629e-06
-3.92175e-06
-5.23428e-06
-4.32614e-06
-3.5716e-06
-7.30949e-06
-2.51664e-06
-5.72571e-06
-6.54823e-06
-2.00008e-06
-7.74543e-06
-3.85494e-06
-3.96718e-06
-6.7436e-06
-2.95661e-06
-4.9089e-06
-5.19863e-06
-3.32546e-06
-3.8052e-06
-5.76289e-06
-1.54889e-06
-4.38627e-06
-5.0329e-06
-4.86168e-07
-5.35117e-06
-3.06696e-06
-1.65827e-06
-4.09525e-06
-3.2729e-06
-1.39691e-06
-3.94957e-06
-3.59629e-06
-5.53927e-07
-5.77971e-06
-1.69838e-06
-2.65463e-06
-5.43754e-06
-1.52608e-06
-4.87446e-06
-3.79659e-06
-4.01765e-06
-3.924e-06
-5.26023e-06
-4.35679e-06
-3.47855e-06
-7.4563e-06
-2.42706e-06
-5.6971e-06
-6.71846e-06
-1.78937e-06
-7.88729e-06
-3.86691e-06
-3.82001e-06
-6.92861e-06
-2.84638e-06
-4.8919e-06
-5.28507e-06
-3.24863e-06
-3.78169e-06
-5.85233e-06
-1.46292e-06
-4.37603e-06
-5.13931e-06
-3.50518e-07
-5.41606e-06
-3.10233e-06
-1.57519e-06
-4.16097e-06
-3.28316e-06
-1.32383e-06
-4.00218e-06
-3.64623e-06
-4.31268e-07
-5.90697e-06
-1.65577e-06
-2.58584e-06
-5.58554e-06
-1.41044e-06
-4.90994e-06
-3.82778e-06
-3.99344e-06
-3.91142e-06
-5.28903e-06
-4.38384e-06
-3.37458e-06
-7.60992e-06
-2.31917e-06
-5.67496e-06
-6.88501e-06
-1.56726e-06
-8.04655e-06
-3.86348e-06
-3.67339e-06
-7.12949e-06
-2.72487e-06
-4.88278e-06
-5.3817e-06
-3.16523e-06
-3.7661e-06
-5.95085e-06
-1.3869e-06
-4.37449e-06
-5.24219e-06
-2.45025e-07
-5.48217e-06
-3.13302e-06
-1.5316e-06
-4.22335e-06
-3.28833e-06
-1.26793e-06
-4.06189e-06
-3.68276e-06
-3.38823e-07
-6.02705e-06
-1.59427e-06
-2.55253e-06
-5.70482e-06
-1.30255e-06
-4.94386e-06
-3.83775e-06
-3.98037e-06
-3.87463e-06
-5.31676e-06
-4.40722e-06
-3.25766e-06
-7.75081e-06
-2.1981e-06
-5.65819e-06
-7.0213e-06
-1.35362e-06
-8.20798e-06
-3.83161e-06
-3.54258e-06
-7.32632e-06
-2.58271e-06
-4.87938e-06
-5.48201e-06
-3.07725e-06
-3.75291e-06
-6.04985e-06
-1.34779e-06
-4.35982e-06
-5.33992e-06
-2.05651e-07
-5.52615e-06
-3.16942e-06
-1.557e-06
-4.27015e-06
-3.28924e-06
-1.25965e-06
-4.11982e-06
-3.70332e-06
-3.10027e-07
-6.11846e-06
-1.52077e-06
-2.57778e-06
-5.7724e-06
-1.22232e-06
-4.97552e-06
-3.82878e-06
-3.99148e-06
-3.80623e-06
-5.33301e-06
-4.42587e-06
-3.13134e-06
-7.85013e-06
-2.07685e-06
-5.64458e-06
-7.09198e-06
-1.17591e-06
-8.35096e-06
-3.75184e-06
-3.44887e-06
-7.48773e-06
-2.44536e-06
-4.87974e-06
-5.56686e-06
-3.0204e-06
-3.72637e-06
-6.11997e-06
-1.39576e-06
-4.28618e-06
-5.42287e-06
-2.80871e-07
-5.50275e-06
-3.23348e-06
-1.68398e-06
-4.28085e-06
-3.28165e-06
-1.34125e-06
-4.15479e-06
-3.70739e-06
-3.89334e-07
-6.14262e-06
-1.45866e-06
-2.67736e-06
-5.76808e-06
-1.1949e-06
-5.00061e-06
-3.79715e-06
-4.02815e-06
-3.69154e-06
-5.32132e-06
-4.45947e-06
-3.016e-06
-7.87139e-06
-1.99071e-06
-5.63056e-06
-7.06249e-06
-1.0669e-06
-8.44658e-06
-3.60452e-06
-3.41658e-06
-7.58024e-06
-2.31671e-06
-4.88898e-06
-5.59975e-06
-3.01135e-06
-3.66968e-06
-6.11046e-06
-1.6048e-06
-4.09415e-06
-5.47129e-06
-5.30734e-07
-5.34519e-06
-3.20835e-06
-1.92321e-06
-4.23093e-06
-3.24268e-06
-1.5639e-06
-4.12561e-06
-3.6881e-06
-6.35042e-07
-6.02244e-06
-1.46323e-06
-2.84452e-06
-5.67655e-06
-1.26344e-06
-4.98837e-06
-3.78645e-06
-4.0832e-06
-3.5785e-06
-5.27348e-06
-4.51725e-06
-2.93977e-06
-7.772e-06
-1.98408e-06
-5.59981e-06
-6.91042e-06
-1.06508e-06
-8.45552e-06
-3.38302e-06
-3.46476e-06
-7.56025e-06
-2.19536e-06
-4.91979e-06
-5.54016e-06
-3.08406e-06
-3.57702e-06
-5.92929e-06
-2.03612e-06
-3.72281e-06
-5.4656e-06
-1.01555e-06
-4.9832e-06
-3.24358e-06
-2.28988e-06
-4.11099e-06
-3.13175e-06
-1.98765e-06
-3.98867e-06
-3.61672e-06
-1.13889e-06
-5.64092e-06
-1.68151e-06
-3.06979e-06
-5.44926e-06
-1.49461e-06
-4.88553e-06
-3.82379e-06
-4.15119e-06
-3.47577e-06
-5.17156e-06
-4.62464e-06
-2.92377e-06
-7.50096e-06
-2.13292e-06
-5.52333e-06
-6.63307e-06
-1.22444e-06
-8.36655e-06
-3.11299e-06
-3.60298e-06
-7.42558e-06
-2.07591e-06
-4.98363e-06
-5.36219e-06
-3.24401e-06
-3.45791e-06
-5.54948e-06
-2.77576e-06
-3.13959e-06
-5.39368e-06
-1.77712e-06
-4.16118e-06
-3.36043e-06
-2.75164e-06
-3.9294e-06
-2.90022e-06
-2.6184e-06
-3.74978e-06
-3.43367e-06
-1.96158e-06
-4.92588e-06
-2.07734e-06
-3.34078e-06
-5.05409e-06
-1.9107e-06
-4.65482e-06
-3.95159e-06
-4.19697e-06
-3.43102e-06
-4.99735e-06
-4.77897e-06
-3.00785e-06
-6.9745e-06
-2.50243e-06
-5.381e-06
-6.22606e-06
-1.59045e-06
-8.14923e-06
-2.8307e-06
-3.81842e-06
-7.23237e-06
-2.00318e-06
-5.09528e-06
-5.06819e-06
-3.49087e-06
-3.34606e-06
-4.97681e-06
-3.79028e-06
-2.39353e-06
-5.24287e-06
-2.799e-06
-3.25398e-06
-3.58837e-06
-3.26122e-06
-3.70551e-06
-2.58631e-06
-3.38285e-06
-3.4657e-06
-3.12613e-06
-3.03544e-06
-3.92583e-06
-2.62974e-06
-3.61534e-06
-4.52567e-06
-2.48391e-06
-4.28002e-06
-4.2004e-06
-4.1563e-06
-3.43456e-06
-4.78213e-06
-4.89433e-06
-3.19703e-06
-6.22803e-06
-3.04769e-06
-5.1862e-06
-5.70664e-06
-2.13483e-06
-7.80244e-06
-2.57754e-06
-4.05955e-06
-7.01342e-06
-1.90208e-06
-5.25992e-06
-4.71192e-06
-3.77691e-06
-3.3005e-06
-4.29567e-06
-4.91389e-06
-1.59328e-06
-5.05273e-06
-3.95592e-06
-2.23596e-06
-3.91189e-06
-3.75829e-06
-3.47782e-06
-2.26963e-06
-4.15546e-06
-3.19737e-06
-2.76908e-06
-4.18697e-06
-2.81624e-06
-3.25641e-06
-3.86926e-06
-3.9564e-06
-3.13706e-06
-3.81035e-06
-4.56693e-06
-4.023e-06
-3.46623e-06
-4.58006e-06
-4.95269e-06
-3.55455e-06
-5.36307e-06
-3.64913e-06
-5.00542e-06
-5.14257e-06
-2.74267e-06
-7.39843e-06
-2.36486e-06
-4.26582e-06
-6.82123e-06
-1.803e-06
-5.39177e-06
-4.38381e-06
-4.01127e-06
-3.34404e-06
-3.59183e-06
-5.99697e-06
-8.76475e-07
-4.7687e-06
-5.16769e-06
-1.25054e-06
-4.26656e-06
-4.21298e-06
-3.3115e-06
-2.01419e-06
-4.84914e-06
-3.00139e-06
-2.40885e-06
-5.28633e-06
-1.76897e-06
-3.84378e-06
-4.12063e-06
-3.41364e-06
-3.79896e-06
-3.17001e-06
-4.96541e-06
-3.81929e-06
-3.48895e-06
-4.459e-06
-4.89092e-06
-3.99007e-06
-4.4902e-06
-4.19643e-06
-4.90035e-06
-4.56169e-06
-3.30397e-06
-7.02818e-06
-2.17932e-06
-4.41716e-06
-6.68261e-06
-1.70885e-06
-5.47242e-06
-4.15952e-06
-4.15011e-06
-3.47272e-06
-2.90069e-06
-6.95425e-06
-3.73211e-07
-4.31046e-06
-6.36984e-06
8.31105e-08
-4.56694e-06
-4.59895e-06
-3.1565e-06
-1.84555e-06
-5.35924e-06
-2.96152e-06
-2.04388e-06
-6.22673e-06
-9.21626e-07
-4.33131e-06
-4.34088e-06
-2.95759e-06
-4.37983e-06
-2.69268e-06
-5.39273e-06
-3.59898e-06
-3.44695e-06
-4.47695e-06
-4.66409e-06
-4.51605e-06
-3.63138e-06
-4.61175e-06
-4.9202e-06
-3.96658e-06
-3.7853e-06
-6.70147e-06
-2.0393e-06
-4.47532e-06
-6.62219e-06
-1.60057e-06
-5.50761e-06
-4.01233e-06
-4.1872e-06
-3.69353e-06
-2.32306e-06
-7.71585e-06
-1.1268e-07
-3.75656e-06
-7.50422e-06
8.13044e-07
-4.78513e-06
-4.95928e-06
-2.9535e-06
-1.84901e-06
-5.59576e-06
-3.07526e-06
-1.77255e-06
-6.87178e-06
-3.66601e-07
-4.71352e-06
-4.47691e-06
-2.65763e-06
-4.82835e-06
-2.26443e-06
-5.80994e-06
-3.37752e-06
-3.3602e-06
-4.62898e-06
-4.27678e-06
-5.09174e-06
-2.90916e-06
-4.77399e-06
-5.16556e-06
-3.35157e-06
-4.15398e-06
-6.38434e-06
-1.98731e-06
-4.38671e-06
-6.6518e-06
-1.49983e-06
-5.45357e-06
-3.97998e-06
-4.1043e-06
-3.94277e-06
-1.79636e-06
-8.16649e-06
-1.83393e-07
-3.11603e-06
-8.40971e-06
1.25187e-06
-4.85135e-06
-5.25764e-06
-2.78052e-06
-2.04785e-06
-5.52515e-06
-3.32366e-06
-1.69348e-06
-7.08626e-06
-2.33325e-07
-4.88881e-06
-4.556e-06
-2.52759e-06
-5.1035e-06
-1.92151e-06
-6.1835e-06
-3.15288e-06
-3.25617e-06
-4.91929e-06
-3.74722e-06
-5.63256e-06
-2.42071e-06
-4.60096e-06
-5.63804e-06
-2.79879e-06
-4.3539e-06
-6.21361e-06
-2.00884e-06
-4.20974e-06
-6.67468e-06
-1.53547e-06
-5.25051e-06
-4.11331e-06
-3.87942e-06
-4.29088e-06
-1.51102e-06
-8.12195e-06
-7.11851e-07
-2.43039e-06
-8.97462e-06
1.28046e-06
-4.76089e-06
-5.43202e-06
-2.67673e-06
-2.43493e-06
-5.15118e-06
-3.61953e-06
-1.95611e-06
-6.67376e-06
-5.98399e-07
-4.79602e-06
-4.58409e-06
-2.59572e-06
-5.20551e-06
-1.80213e-06
-6.37937e-06
-3.04307e-06
-3.06587e-06
-5.38758e-06
-3.08463e-06
-6.10961e-06
-2.21519e-06
-4.09473e-06
-6.23062e-06
-2.46789e-06
-4.1854e-06
-6.21896e-06
-2.08496e-06
-3.95452e-06
-6.68591e-06
-1.68614e-06
-4.95413e-06
-4.39373e-06
-3.55517e-06
-4.61361e-06
-1.59171e-06
-7.57652e-06
-1.66218e-06
-1.75981e-06
-9.03413e-06
7.21808e-07
-4.41711e-06
-5.49226e-06
-2.6086e-06
-3.05132e-06
-4.44119e-06
-3.95849e-06
-2.55072e-06
-5.71594e-06
-1.5913e-06
-4.60664e-06
-4.40282e-06
-3.00598e-06
-4.86291e-06
-2.02255e-06
-6.21668e-06
-3.15405e-06
-2.71575e-06
-5.94331e-06
-2.39526e-06
-6.37269e-06
-2.48517e-06
-3.18168e-06
-6.86146e-06
-2.37457e-06
-3.67354e-06
-6.30674e-06
-2.33338e-06
-3.52418e-06
-6.72059e-06
-1.88031e-06
-4.66283e-06
-4.54886e-06
-3.34317e-06
-4.79959e-06
-1.9652e-06
-6.43769e-06
-2.80619e-06
-1.44239e-06
-8.23094e-06
-5.53409e-07
-3.8653e-06
-5.50562e-06
-2.43749e-06
-4.01809e-06
-3.4283e-06
-4.23439e-06
-3.48722e-06
-4.33142e-06
-2.61658e-06
-4.38975e-06
-4.0477e-06
-3.5914e-06
-4.33474e-06
-2.48998e-06
-5.79699e-06
-3.42358e-06
-2.47938e-06
-6.30166e-06
-2.04158e-06
-6.07892e-06
-3.37958e-06
-1.93056e-06
-7.38077e-06
-2.69977e-06
-2.8904e-06
-6.43022e-06
-2.75026e-06
-2.97124e-06
-6.71589e-06
-2.126e-06
-4.44598e-06
-4.56868e-06
-3.20227e-06
-4.90912e-06
-2.51932e-06
-5.25627e-06
-3.83987e-06
-1.7737e-06
-6.65021e-06
-2.45067e-06
-3.30344e-06
-5.40929e-06
-2.33386e-06
-5.01207e-06
-2.55885e-06
-4.2062e-06
-4.66856e-06
-2.85483e-06
-3.8477e-06
-4.10961e-06
-3.86725e-06
-3.94845e-06
-3.95092e-06
-3.07846e-06
-5.12641e-06
-3.81307e-06
-2.36072e-06
-6.2688e-06
-2.25458e-06
-5.153e-06
-5.1016e-06
-6.90919e-07
-7.37655e-06
-3.74843e-06
-1.62944e-06
-6.66345e-06
-3.27577e-06
-2.46431e-06
-6.57787e-06
-2.39243e-06
-4.38938e-06
-4.43908e-06
-3.09966e-06
-4.97675e-06
-3.11851e-06
-4.20741e-06
-4.43373e-06
-2.60977e-06
-4.74621e-06
-3.90091e-06
-3.29194e-06
-4.82839e-06
-2.3912e-06
-5.92282e-06
-1.94713e-06
-3.89706e-06
-5.78724e-06
-1.65668e-06
-4.78454e-06
-3.74141e-06
-4.01482e-06
-3.93546e-06
-3.75622e-06
-3.76089e-06
-4.18722e-06
-4.30526e-06
-2.47881e-06
-5.76761e-06
-3.12669e-06
-3.71725e-06
-6.64903e-06
-1.23579e-07
-6.25861e-06
-5.56619e-06
-1.11407e-07
-6.85271e-06
-3.92727e-06
-1.95496e-06
-6.3882e-06
-2.6847e-06
-4.58465e-06
-4.17141e-06
-2.89705e-06
-5.10965e-06
-3.59466e-06
-3.37424e-06
-4.70219e-06
-3.44894e-06
-3.50242e-06
-4.31764e-06
-4.06789e-06
-4.0944e-06
-2.13045e-06
-6.80026e-06
-1.75513e-06
-3.23667e-06
-6.63576e-06
-1.19554e-06
-4.91737e-06
-3.72176e-06
-4.08763e-06
-3.65133e-06
-3.77541e-06
-4.1705e-06
-3.52504e-06
-4.63959e-06
-2.68036e-06
-5.01096e-06
-3.89556e-06
-2.43577e-06
-7.59765e-06
-6.71944e-07
-4.04038e-06
-7.88929e-06
8.51313e-07
-6.43022e-06
-5.02427e-06
-1.241e-06
-6.27433e-06
-2.80148e-06
-4.87664e-06
-4.12608e-06
-2.49865e-06
-5.29186e-06
-4.25126e-06
-2.78447e-06
-4.83726e-06
-4.1497e-06
-2.81317e-06
-4.14427e-06
-4.89594e-06
-3.7664e-06
-1.55312e-06
-6.98773e-06
-2.51946e-06
-2.29983e-06
-6.84594e-06
-1.88942e-06
-3.97062e-06
-4.41231e-06
-3.83792e-06
-3.39615e-06
-4.27193e-06
-3.89456e-06
-3.55761e-06
-4.76281e-06
-2.71182e-06
-4.90473e-06
-4.09071e-06
-1.84667e-06
-7.8234e-06
-1.79175e-06
-2.12928e-06
-8.98533e-06
5.62087e-07
-5.11461e-06
-6.38837e-06
-7.81658e-07
-5.9813e-06
-3.16119e-06
-4.73461e-06
-4.49188e-06
-1.85956e-06
-5.18749e-06
-4.70197e-06
-1.7344e-06
-4.29006e-06
-3.77018e-06
-1.20941e-06
-4.4955e-06
-2.53461e-06
-1.95719e-06
-3.33954e-06
-3.10481e-06
-1.40665e-06
-3.7017e-06
-3.1766e-06
-1.0031e-06
-5.407e-06
-1.6435e-06
-3.25634e-06
-4.90453e-06
-2.13061e-06
-5.00948e-06
-3.9277e-06
-4.32715e-06
-4.2558e-06
-5.55951e-06
-4.20107e-06
-4.61392e-06
-6.73085e-06
-3.04846e-06
-6.33086e-06
-5.66146e-06
-3.14144e-06
-7.26549e-06
-3.62108e-06
-4.6286e-06
-5.92707e-06
-3.09248e-06
-4.94015e-06
-4.56297e-06
-3.19199e-06
-3.91589e-06
-4.70972e-06
-1.74257e-06
-4.29149e-06
-3.78085e-06
-1.21577e-06
-4.49734e-06
-2.54557e-06
-1.9606e-06
-3.3432e-06
-3.1113e-06
-1.41124e-06
-3.70074e-06
-3.18336e-06
-1.00388e-06
-5.40317e-06
-1.65205e-06
-3.24836e-06
-4.9066e-06
-2.13151e-06
-5.0026e-06
-3.93086e-06
-4.32237e-06
-4.25478e-06
-5.55666e-06
-4.2022e-06
-4.61017e-06
-6.73035e-06
-3.05191e-06
-6.32449e-06
-5.66743e-06
-3.14202e-06
-7.26236e-06
-3.63127e-06
-4.62385e-06
-5.93264e-06
-3.09912e-06
-4.93977e-06
-4.57134e-06
-3.19761e-06
-3.91911e-06
-4.72371e-06
-1.74656e-06
-4.29307e-06
-3.79779e-06
-1.21617e-06
-4.5015e-06
-2.55999e-06
-1.96002e-06
-3.34687e-06
-3.12199e-06
-1.41119e-06
-3.69981e-06
-3.1961e-06
-9.95382e-07
-5.40566e-06
-1.66071e-06
-3.234e-06
-4.91632e-06
-2.12719e-06
-4.99639e-06
-3.93599e-06
-4.31691e-06
-4.25243e-06
-5.55635e-06
-4.20384e-06
-4.60199e-06
-6.73731e-06
-3.05133e-06
-6.31697e-06
-5.68147e-06
-3.13437e-06
-7.26498e-06
-3.64354e-06
-4.61453e-06
-5.94606e-06
-3.10317e-06
-4.93966e-06
-4.58486e-06
-3.20117e-06
-3.92086e-06
-4.74396e-06
-1.74472e-06
-4.29311e-06
-3.822e-06
-1.20835e-06
-4.50714e-06
-2.57912e-06
-1.95267e-06
-3.35144e-06
-3.13733e-06
-1.40498e-06
-3.69915e-06
-3.21593e-06
-9.75793e-07
-5.41554e-06
-1.67062e-06
-3.21085e-06
-4.93657e-06
-2.11669e-06
-4.99036e-06
-3.94508e-06
-4.30851e-06
-4.24969e-06
-5.5584e-06
-4.20602e-06
-4.58861e-06
-6.75259e-06
-3.04603e-06
-6.30647e-06
-5.70579e-06
-3.11551e-06
-7.27345e-06
-3.65872e-06
-4.59569e-06
-5.96913e-06
-3.10284e-06
-4.93532e-06
-4.6048e-06
-3.2e-06
-3.92073e-06
-4.7712e-06
-1.73561e-06
-4.29132e-06
-3.85474e-06
-1.19024e-06
-4.5149e-06
-2.60379e-06
-1.93676e-06
-3.35927e-06
-3.15782e-06
-1.39162e-06
-3.69949e-06
-3.24413e-06
-9.43401e-07
-5.43474e-06
-1.68238e-06
-3.17727e-06
-4.97037e-06
-2.09863e-06
-4.98491e-06
-3.95958e-06
-4.29636e-06
-4.2471e-06
-5.56314e-06
-4.20883e-06
-4.56914e-06
-6.77774e-06
-3.03472e-06
-6.29238e-06
-5.74241e-06
-3.08244e-06
-7.28918e-06
-3.67698e-06
-4.56488e-06
-6.00417e-06
-3.09625e-06
-4.92735e-06
-4.63231e-06
-3.19228e-06
-3.91863e-06
-4.80618e-06
-1.71736e-06
-4.28756e-06
-3.89684e-06
-1.15946e-06
-4.52604e-06
-2.63399e-06
-1.91077e-06
-3.36998e-06
-3.18397e-06
-1.36998e-06
-3.70171e-06
-3.2819e-06
-8.96162e-07
-5.46599e-06
-1.69573e-06
-3.13225e-06
-5.02103e-06
-2.0712e-06
-4.98136e-06
-3.98052e-06
-4.28006e-06
-4.24515e-06
-5.57126e-06
-4.21235e-06
-4.54278e-06
-6.81491e-06
-3.01544e-06
-6.27496e-06
-5.79307e-06
-3.03188e-06
-7.31453e-06
-3.69748e-06
-4.51999e-06
-6.05356e-06
-3.08095e-06
-4.91553e-06
-4.66814e-06
-3.17618e-06
-3.91419e-06
-4.8493e-06
-1.68811e-06
-4.28152e-06
-3.94874e-06
-1.11367e-06
-4.54132e-06
-2.66916e-06
-1.87339e-06
-3.38429e-06
-3.21551e-06
-1.339e-06
-3.70663e-06
-3.33013e-06
-8.32022e-07
-5.51215e-06
-1.7101e-06
-3.0751e-06
-5.09224e-06
-2.03245e-06
-4.98131e-06
-4.00878e-06
-4.25948e-06
-4.24433e-06
-5.58353e-06
-4.21674e-06
-4.50881e-06
-6.86631e-06
-2.98604e-06
-6.25484e-06
-5.8593e-06
-2.96049e-06
-7.35227e-06
-3.71895e-06
-4.45901e-06
-6.11963e-06
-3.05421e-06
-4.89971e-06
-4.71269e-06
-3.14989e-06
-3.9069e-06
-4.90059e-06
-1.6464e-06
-4.27292e-06
-4.0103e-06
-1.05103e-06
-4.56169e-06
-2.70809e-06
-1.8238e-06
-3.4026e-06
-3.25229e-06
-1.29766e-06
-3.71488e-06
-3.38921e-06
-7.49105e-07
-5.57576e-06
-1.72449e-06
-3.00541e-06
-5.18793e-06
-1.98045e-06
-4.98645e-06
-4.04508e-06
-4.23465e-06
-4.24504e-06
-5.60072e-06
-4.22237e-06
-4.46678e-06
-6.93412e-06
-2.94428e-06
-6.23318e-06
-5.94231e-06
-2.86519e-06
-7.40553e-06
-3.73976e-06
-4.38037e-06
-6.20469e-06
-3.01326e-06
-4.8801e-06
-4.7661e-06
-3.11187e-06
-3.89634e-06
-4.95943e-06
-1.59142e-06
-4.26198e-06
-4.08043e-06
-9.70713e-07
-4.58799e-06
-2.74868e-06
-1.76222e-06
-3.42493e-06
-3.29306e-06
-1.24545e-06
-3.72704e-06
-3.45862e-06
-6.4603e-07
-5.65861e-06
-1.73721e-06
-2.92332e-06
-5.30688e-06
-1.91326e-06
-4.9983e-06
-4.0895e-06
-4.20569e-06
-4.24734e-06
-5.62351e-06
-4.22943e-06
-4.41423e-06
-7.02041e-06
-2.88774e-06
-6.21186e-06
-6.04265e-06
-2.7436e-06
-7.47808e-06
-3.75794e-06
-4.28338e-06
-6.31092e-06
-2.95546e-06
-4.85762e-06
-4.82815e-06
-3.06103e-06
-3.88278e-06
-5.02451e-06
-1.52335e-06
-4.25019e-06
-4.15676e-06
-8.73841e-07
-4.62125e-06
-2.78761e-06
-1.6907e-06
-3.45087e-06
-3.33602e-06
-1.18278e-06
-3.74363e-06
-3.53628e-06
-5.22787e-07
-5.76098e-06
-1.74546e-06
-2.8301e-06
-5.44952e-06
-1.82928e-06
-5.01779e-06
-4.14101e-06
-4.17272e-06
-4.25036e-06
-5.65228e-06
-4.2376e-06
-4.35658e-06
-7.12623e-06
-2.81419e-06
-6.19355e-06
-6.15961e-06
-2.59475e-06
-7.573e-06
-3.77115e-06
-4.16887e-06
-6.43992e-06
-2.87865e-06
-4.83434e-06
-4.89839e-06
-2.99687e-06
-3.86782e-06
-5.09424e-06
-1.44347e-06
-4.24083e-06
-4.23559e-06
-7.64404e-07
-4.66281e-06
-2.82034e-06
-1.61418e-06
-3.47967e-06
-3.37862e-06
-1.11172e-06
-3.76514e-06
-3.61851e-06
-3.82026e-07
-5.88081e-06
-1.74542e-06
-2.72917e-06
-5.61107e-06
-1.72795e-06
-5.04466e-06
-4.1969e-06
-4.13603e-06
-4.25126e-06
-5.68684e-06
-4.24541e-06
-4.29166e-06
-7.25089e-06
-2.72171e-06
-6.18119e-06
-6.29036e-06
-2.42028e-06
-7.69096e-06
-3.77637e-06
-4.03988e-06
-6.59208e-06
-2.78159e-06
-4.81346e-06
-4.97643e-06
-2.91949e-06
-3.85486e-06
-5.16815e-06
-1.35441e-06
-4.23851e-06
-4.31292e-06
-6.50156e-07
-4.71406e-06
-2.84193e-06
-1.54144e-06
-3.51048e-06
-3.41794e-06
-1.0373e-06
-3.7916e-06
-3.6998e-06
-2.31237e-07
-6.01268e-06
-1.73238e-06
-2.62923e-06
-5.78061e-06
-1.61073e-06
-5.07683e-06
-4.25199e-06
-4.0967e-06
-4.24364e-06
-5.72614e-06
-4.2502e-06
-4.21931e-06
-7.39067e-06
-2.60937e-06
-6.17667e-06
-6.42848e-06
-2.22563e-06
-7.8331e-06
-3.77e-06
-3.90213e-06
-6.76512e-06
-2.66457e-06
-4.79837e-06
-5.06256e-06
-2.82997e-06
-3.84817e-06
-5.24832e-06
-1.26173e-06
-4.2457e-06
-4.38652e-06
-5.43893e-07
-4.77395e-06
-2.84889e-06
-1.48593e-06
-3.54179e-06
-3.45178e-06
-9.6921e-07
-3.82377e-06
-3.77287e-06
-8.4807e-08
-6.1474e-06
-1.70217e-06
-2.54282e-06
-5.93856e-06
-1.48327e-06
-5.11051e-06
-4.2979e-06
-4.05775e-06
-4.2143e-06
-5.76737e-06
-4.24947e-06
-4.13735e-06
-7.53607e-06
-2.47863e-06
-6.17908e-06
-6.56166e-06
-2.02108e-06
-7.99168e-06
-3.74778e-06
-3.76519e-06
-6.95125e-06
-2.53062e-06
-4.79046e-06
-5.15697e-06
-2.73215e-06
-3.84904e-06
-5.33767e-06
-1.1794e-06
-4.25616e-06
-4.45758e-06
-4.66671e-07
-4.83302e-06
-2.84124e-06
-1.46678e-06
-3.56874e-06
-3.4801e-06
-9.23677e-07
-3.86127e-06
-3.83059e-06
3.40832e-08
-6.27136e-06
-1.65326e-06
-2.49147e-06
-6.06152e-06
-1.35935e-06
-5.14242e-06
-4.32344e-06
-4.02812e-06
-4.14624e-06
-5.80382e-06
-4.24356e-06
-4.0429e-06
-7.67016e-06
-2.33528e-06
-6.18375e-06
-6.66922e-06
-1.82397e-06
-8.15297e-06
-3.70178e-06
-3.64346e-06
-7.13324e-06
-2.40632e-06
-4.78818e-06
-5.25571e-06
-2.63724e-06
-3.85062e-06
-5.43064e-06
-1.13894e-06
-4.24803e-06
-4.52868e-06
-4.5336e-07
-4.86545e-06
-2.82155e-06
-1.51107e-06
-3.57868e-06
-3.50422e-06
-9.26948e-07
-3.90044e-06
-3.86955e-06
9.01295e-08
-6.36283e-06
-1.59214e-06
-2.50138e-06
-6.12449e-06
-1.25597e-06
-5.17055e-06
-4.31871e-06
-4.01879e-06
-4.02574e-06
-5.82395e-06
-4.23907e-06
-3.93647e-06
-7.76619e-06
-2.19305e-06
-6.18355e-06
-6.72211e-06
-1.65961e-06
-8.29584e-06
-3.61684e-06
-3.55692e-06
-7.28218e-06
-2.2879e-06
-4.789e-06
-5.34286e-06
-2.57029e-06
-3.83661e-06
-5.49994e-06
-1.18928e-06
-4.1794e-06
-4.59702e-06
-5.55929e-07
-4.82262e-06
-2.78639e-06
-1.6529e-06
-3.54933e-06
-3.52185e-06
-1.01903e-06
-3.91459e-06
-3.89186e-06
3.86647e-08
-6.38383e-06
-1.54393e-06
-2.59125e-06
-6.10696e-06
-1.19924e-06
-5.18963e-06
-4.28375e-06
-4.03824e-06
-3.87056e-06
-5.81287e-06
-4.24931e-06
-3.82427e-06
-7.78624e-06
-2.08034e-06
-6.16793e-06
-6.69046e-06
-1.55764e-06
-8.40669e-06
-3.476e-06
-3.52951e-06
-7.36156e-06
-2.18416e-06
-4.79403e-06
-5.38614e-06
-2.56577e-06
-3.78525e-06
-5.49745e-06
-1.39197e-06
-4.01073e-06
-4.64695e-06
-8.39941e-07
-4.64511e-06
-2.86922e-06
-1.94505e-06
-3.45457e-06
-3.51156e-06
-1.25908e-06
-3.85647e-06
-3.90809e-06
-1.80826e-07
-6.26826e-06
-1.57385e-06
-2.75286e-06
-5.99089e-06
-1.24031e-06
-5.17312e-06
-4.2425e-06
-4.08459e-06
-3.77434e-06
-5.76217e-06
-4.29002e-06
-3.71707e-06
-7.69179e-06
-2.04834e-06
-6.11832e-06
-6.55826e-06
-1.55055e-06
-8.26207e-06
-3.27534e-06
-3.58126e-06
-7.34182e-06
-2.09757e-06
-4.81396e-06
-5.34891e-06
-2.65508e-06
-3.68316e-06
-5.41093e-06
-1.8303e-06
-3.65616e-06
-4.6669e-06
-1.33727e-06
-4.28171e-06
-2.94884e-06
-2.38836e-06
-3.286e-06
-3.42566e-06
-1.72066e-06
-3.67541e-06
-3.88879e-06
-6.62653e-07
-5.88602e-06
-1.76845e-06
-2.97763e-06
-5.73294e-06
-1.46372e-06
-5.08112e-06
-4.22678e-06
-4.14316e-06
-3.65324e-06
-5.65257e-06
-4.39267e-06
-3.6337e-06
-7.4503e-06
-2.17694e-06
-6.00214e-06
-6.32813e-06
-1.69392e-06
-8.18892e-06
-3.0404e-06
-3.72384e-06
-7.21371e-06
-2.03576e-06
-4.85476e-06
-5.20554e-06
-2.85742e-06
-3.53052e-06
-5.1661e-06
-2.53789e-06
-3.08736e-06
-4.65617e-06
-2.09357e-06
-3.65257e-06
-3.0674e-06
-2.94739e-06
-3.0709e-06
-3.22281e-06
-2.40491e-06
-3.37719e-06
-3.78101e-06
-1.47036e-06
-5.1568e-06
-2.15633e-06
-3.25976e-06
-5.3059e-06
-1.86247e-06
-4.87455e-06
-4.28441e-06
-4.29131e-06
-3.55878e-06
-5.46246e-06
-4.54786e-06
-3.62967e-06
-6.98814e-06
-2.51603e-06
-5.80494e-06
-6.00258e-06
-2.02491e-06
-7.96803e-06
-2.81196e-06
-3.94121e-06
-7.00297e-06
-2.00183e-06
-4.94184e-06
-4.95645e-06
-3.1738e-06
-3.3508e-06
-4.75463e-06
-3.50288e-06
-2.34949e-06
-4.61027e-06
-3.09671e-06
-2.80243e-06
-3.26772e-06
-3.56546e-06
-2.84213e-06
-2.95025e-06
-3.22222e-06
-3.03326e-06
-3.56328e-06
-2.52825e-06
-4.14588e-06
-2.70973e-06
-3.5528e-06
-4.75225e-06
-2.4289e-06
-4.52092e-06
-4.43798e-06
-4.26042e-06
-3.49484e-06
-5.22901e-06
-4.73361e-06
-3.74209e-06
-6.32959e-06
-3.02719e-06
-5.54524e-06
-5.61728e-06
-2.49903e-06
-7.60797e-06
-2.62409e-06
-4.17781e-06
-6.76324e-06
-1.96768e-06
-5.06361e-06
-4.66828e-06
-3.54067e-06
-3.21072e-06
-4.23116e-06
-4.57827e-06
-1.56543e-06
-4.52388e-06
-4.21984e-06
-1.81997e-06
-3.55875e-06
-4.16581e-06
-2.54382e-06
-2.70807e-06
-4.0346e-06
-2.71605e-06
-3.30115e-06
-3.66497e-06
-3.03559e-06
-3.33794e-06
-3.8304e-06
-4.15581e-06
-3.09098e-06
-4.04954e-06
-4.69504e-06
-4.1516e-06
-3.46039e-06
-5.00349e-06
-4.8702e-06
-3.86931e-06
-5.55698e-06
-3.6021e-06
-5.28921e-06
-5.11834e-06
-3.02166e-06
-7.17964e-06
-2.47914e-06
-4.37311e-06
-6.55554e-06
-1.92567e-06
-5.15876e-06
-4.3262e-06
-3.84534e-06
-3.16388e-06
-3.64703e-06
-5.61727e-06
-8.7566e-07
-4.31748e-06
-5.41364e-06
-8.04073e-07
-3.88563e-06
-4.70148e-06
-2.25786e-06
-2.48751e-06
-4.75143e-06
-2.47734e-06
-3.02346e-06
-4.74138e-06
-1.98597e-06
-3.9282e-06
-4.08759e-06
-3.58138e-06
-3.71572e-06
-3.49111e-06
-5.0187e-06
-3.96704e-06
-3.44149e-06
-4.8608e-06
-4.86891e-06
-4.1356e-06
-4.74095e-06
-4.129e-06
-5.09713e-06
-4.63915e-06
-3.49156e-06
-6.81219e-06
-2.3626e-06
-4.50878e-06
-6.40711e-06
-1.89907e-06
-5.20815e-06
-4.18523e-06
-4.0411e-06
-3.22267e-06
-2.98277e-06
-6.54364e-06
-4.10764e-07
-3.93011e-06
-6.63104e-06
2.1483e-07
-4.1942e-06
-5.14119e-06
-2.07075e-06
-2.34328e-06
-5.25541e-06
-2.42755e-06
-2.71365e-06
-5.66956e-06
-1.12006e-06
-4.4385e-06
-4.28177e-06
-3.10969e-06
-4.28021e-06
-2.96954e-06
-5.38775e-06
-3.76025e-06
-3.3703e-06
-4.86653e-06
-4.68102e-06
-4.53186e-06
-3.92177e-06
-4.54951e-06
-5.00844e-06
-4.15209e-06
-3.90105e-06
-6.5379e-06
-2.30508e-06
-4.52588e-06
-6.36708e-06
-1.80208e-06
-5.22438e-06
-4.08473e-06
-4.12854e-06
-3.41538e-06
-2.70269e-06
-7.3245e-06
-1.68224e-07
-3.44145e-06
-7.75268e-06
1.08509e-06
-4.43074e-06
-5.54308e-06
-1.91604e-06
-2.40274e-06
-5.44739e-06
-2.58375e-06
-2.44346e-06
-6.34583e-06
-5.23201e-07
-4.8625e-06
-4.37179e-06
-2.80525e-06
-4.73674e-06
-2.56764e-06
-5.78843e-06
-3.52443e-06
-3.28863e-06
-4.9778e-06
-4.34677e-06
-5.00001e-06
-3.20838e-06
-4.73776e-06
-5.1608e-06
-3.6006e-06
-4.23897e-06
-5.97501e-06
-2.3416e-06
-4.35016e-06
-6.45539e-06
-1.66841e-06
-5.16585e-06
-4.09841e-06
-4.05049e-06
-3.54382e-06
-2.03256e-06
-7.85747e-06
-2.11637e-07
-2.86797e-06
-8.63577e-06
1.51681e-06
-4.55597e-06
-5.84419e-06
-1.79901e-06
-2.66202e-06
-5.30445e-06
-2.93106e-06
-2.31309e-06
-6.56575e-06
-3.64591e-07
-5.04999e-06
-4.43244e-06
-2.63639e-06
-5.07718e-06
-2.09714e-06
-6.21937e-06
-3.20601e-06
-3.25652e-06
-5.17484e-06
-3.87198e-06
-5.46899e-06
-2.69317e-06
-4.61554e-06
-5.54427e-06
-3.07552e-06
-4.45017e-06
-5.7659e-06
-2.42902e-06
-4.10238e-06
-6.54048e-06
-1.6783e-06
-4.9538e-06
-4.31289e-06
-3.76659e-06