/*--------------------------------*- C++ -*----------------------------------*\
  =========                 |
  \\      /  F ield         | OpenFOAM: The Open Source CFD Toolbox
   \\    /   O peration     | Website:  https://openfoam.org
    \\  /    A nd           | Version:  10
     \\/     M anipulation  |
\*---------------------------------------------------------------------------*/
FoamFile
{
    format      ascii;
    class       surfaceScalarField;
    location    "20";
    object      phi;
}
// * * * * * * * * * * * * * * * * * * * * * * * * * * * * * * * * * * * * * //

dimensions      [0 3 -1 0 0 0 0];

internalField   nonuniform List<scalar> 
74080
(
5.23305e-06
2.16483e-10
-1.64034e-09
5.23347e-06
-5.41653e-10
-1.11412e-09
5.23299e-06
3.84507e-10
-1.35756e-09
5.23284e-06
-1.31981e-11
-1.01798e-09
5.23322e-06
-5.02012e-10
-7.65019e-10
5.23249e-06
5.86613e-10
-8.91427e-10
5.23268e-06
-3.24278e-10
-2.82963e-10
5.23262e-06
-7.1471e-11
-4.54994e-10
5.23225e-06
2.37227e-10
-4.7015e-11
5.23218e-06
-1.9674e-11
1.68091e-10
5.23226e-06
-1.96503e-10
1.66167e-10
5.23186e-06
3.56827e-10
5.89578e-10
5.23179e-06
2.8592e-11
5.66457e-10
5.23205e-06
-3.11216e-10
7.29081e-10
5.23137e-06
7.62351e-10
9.64e-10
5.23184e-06
-4.95085e-10
8.14809e-10
5.23163e-06
3.37003e-10
1.02485e-09
5.2314e-06
3.33024e-10
9.53915e-10
5.23184e-06
-3.17516e-10
8.60735e-10
5.23148e-06
5.59932e-10
8.38653e-10
5.23174e-06
-1.05942e-10
7.36556e-10
5.23174e-06
2.44595e-10
4.39277e-10
5.23192e-06
4.85688e-11
4.91345e-10
5.23185e-06
2.9317e-10
9.21264e-11
5.23212e-06
-1.22599e-11
-7.75949e-11
5.23235e-06
3.20365e-12
-7.49496e-11
5.23204e-06
5.72462e-10
-7.342e-10
5.23281e-06
-5.43147e-10
-4.49894e-10
5.23251e-06
5.17161e-10
-9.97284e-10
5.23263e-06
9.77728e-11
-1.10374e-09
5.23325e-06
-4.77626e-10
-1.08784e-09
5.23268e-06
7.56135e-10
-1.51867e-09
5.23331e-06
-5.24449e-10
-1.39867e-09
5.23327e-06
1.29729e-10
-1.60395e-09
5.23309e-06
2.52048e-10
-1.63595e-09
5.23354e-06
-4.31379e-10
-1.68558e-09
5.23329e-06
2.52603e-10
-1.63252e-09
5.23331e-06
-2.87496e-11
-1.72387e-09
5.23345e-06
-2.13335e-10
-1.59844e-09
2.55188e-11
-1.45528e-09
1.76084e-05
3.5412e-10
-5.01273e-09
1.7609e-05
-1.56721e-09
-3.65929e-09
1.76078e-05
1.15839e-09
-4.25228e-09
1.76076e-05
-3.59369e-10
-3.02772e-09
1.7608e-05
-1.30109e-09
-2.57255e-09
1.76064e-05
1.65742e-09
-2.48084e-09
1.76068e-05
-1.11537e-09
-9.364e-10
1.76063e-05
-5.58697e-11
-1.27664e-09
1.76054e-05
7.03769e-10
8.55094e-11
1.76052e-05
-1.21011e-10
5.08492e-10
1.7605e-05
-4.04125e-10
8.44072e-10
1.7604e-05
1.15454e-09
1.94118e-09
1.76039e-05
1.98844e-11
1.91678e-09
1.7604e-05
-5.69102e-10
2.55992e-09
1.76027e-05
2.28379e-09
3.03723e-09
1.76036e-05
-1.37597e-09
2.76287e-09
1.76029e-05
1.39536e-09
3.32907e-09
1.76026e-05
9.35452e-10
2.99249e-09
1.76034e-05
-6.11143e-10
2.81109e-09
1.76027e-05
1.85651e-09
2.61752e-09
1.76034e-05
-1.93596e-10
2.21566e-09
1.76034e-05
9.68036e-10
1.40224e-09
1.76039e-05
3.44555e-10
1.358e-09
1.76039e-05
9.95724e-10
1.07723e-10
1.76047e-05
7.33751e-11
-2.73506e-10
1.76052e-05
3.15621e-10
-7.00406e-10
1.7605e-05
1.61203e-09
-2.3065e-09
1.76066e-05
-1.42795e-09
-1.77296e-09
1.76061e-05
1.71086e-09
-3.46902e-09
1.76068e-05
8.42972e-11
-3.54926e-09
1.76079e-05
-1.13842e-09
-3.89226e-09
1.76071e-05
2.13591e-09
-4.91211e-09
1.76086e-05
-1.65909e-09
-4.66609e-09
1.76084e-05
5.52627e-10
-5.31779e-09
1.76084e-05
4.92625e-10
-5.31365e-09
1.76093e-05
-1.26856e-09
-5.49163e-09
1.76088e-05
7.39083e-10
-5.33281e-09
1.76089e-05
-2.99526e-10
-5.52839e-09
1.76092e-05
-6.75672e-10
-5.08229e-09
9.46022e-11
-4.80395e-09
3.32236e-05
2.60877e-10
-8.91221e-09
3.32242e-05
-2.91161e-09
-6.85612e-09
3.32225e-05
2.08473e-09
-7.63652e-09
3.32222e-05
-1.07078e-09
-5.44043e-09
3.32223e-05
-2.23918e-09
-4.87503e-09
3.32201e-05
2.93285e-09
-4.24174e-09
3.32203e-05
-2.25622e-09
-1.93928e-09
3.32193e-05
6.15343e-11
-2.19483e-09
3.32179e-05
1.3071e-09
1.70524e-10
3.32174e-05
-2.78968e-10
7.77519e-10
3.32168e-05
-5.04421e-10
1.71124e-09
3.32154e-05
2.29115e-09
3.38218e-09
3.3215e-05
3.76289e-11
3.5173e-09
3.32148e-05
-5.68898e-10
4.71594e-09
3.32131e-05
4.34541e-09
5.38003e-09
3.3214e-05
-2.32768e-09
5.13611e-09
3.3213e-05
3.15056e-09
6.00601e-09
3.32127e-05
1.79784e-09
5.39619e-09
3.32135e-05
-6.08997e-10
5.17611e-09
3.32127e-05
3.7813e-09
4.71062e-09
3.32136e-05
-7.85961e-11
3.98367e-09
3.32138e-05
2.21028e-09
2.62922e-09
3.32145e-05
9.85312e-10
2.3444e-09
3.32148e-05
2.11231e-09
1.85913e-10
3.3216e-05
3.80483e-10
-4.29469e-10
3.32168e-05
1.01794e-09
-1.57248e-09
3.3217e-05
2.98032e-09
-3.95e-09
3.32193e-05
-2.36345e-09
-3.49729e-09
3.32189e-05
3.40679e-09
-6.34063e-09
3.32202e-05
-2.48733e-11
-6.39601e-09
3.32218e-05
-1.78583e-09
-7.35639e-09
3.32211e-05
3.83848e-09
-8.82772e-09
3.32233e-05
-3.19522e-09
-8.63465e-09
3.32232e-05
1.173e-09
-9.72947e-09
3.32234e-05
5.8467e-10
-9.68711e-09
3.32246e-05
-2.38074e-09
-1.00416e-08
3.32241e-05
1.2827e-09
-9.76785e-09
3.32244e-05
-8.58942e-10
-1.00373e-08
3.32247e-05
-1.3605e-09
-9.24582e-09
1.11155e-10
-8.87699e-09
5.27484e-05
-8.58411e-11
-1.3593e-08
5.2749e-05
-4.61937e-09
-1.08957e-08
5.27467e-05
3.08957e-09
-1.17514e-08
5.27464e-05
-2.18207e-09
-8.57846e-09
5.27461e-05
-3.3443e-09
-7.88696e-09
5.27432e-05
4.35428e-09
-6.53644e-09
5.27433e-05
-3.78353e-09
-3.57152e-09
5.27416e-05
2.8948e-10
-3.49992e-09
5.27397e-05
1.97971e-09
-1.45786e-10
5.27388e-05
-4.86801e-10
7.48828e-10
5.27376e-05
-4.82299e-10
2.44164e-09
5.27356e-05
3.74523e-09
4.67748e-09
5.27349e-05
1.2101e-10
5.17675e-09
5.27343e-05
-2.76744e-10
6.97276e-09
5.27319e-05
6.96273e-09
7.9168e-09
5.27329e-05
-3.28343e-09
7.83462e-09
5.27313e-05
5.65833e-09
9.02802e-09
5.27309e-05
2.96766e-09
8.23905e-09
5.27318e-05
-2.20044e-10
8.02253e-09
5.27308e-05
6.39402e-09
7.27313e-09
5.2732e-05
3.10893e-10
6.25828e-09
5.27322e-05
4.075e-09
4.32249e-09
5.27332e-05
2.01761e-09
3.74609e-09
5.27338e-05
3.73332e-09
6.33228e-10
5.27355e-05
9.8239e-10
-2.85667e-10
5.27366e-05
2.16807e-09
-2.3242e-09
5.27373e-05
4.73857e-09
-5.42186e-09
5.27403e-05
-3.29161e-09
-5.32896e-09
5.27401e-05
5.65295e-09
-9.31656e-09
5.27423e-05
-2.17168e-10
-9.50019e-09
5.27444e-05
-2.36273e-09
-1.12199e-08
5.2744e-05
5.85985e-09
-1.31547e-08
5.2747e-05
-5.13296e-09
-1.32062e-08
5.2747e-05
2.0149e-09
-1.47507e-08
5.27477e-05
4.73205e-10
-1.47641e-08
5.27493e-05
-3.75458e-09
-1.53489e-08
5.27488e-05
1.83322e-09
-1.49937e-08
5.27494e-05
-1.75596e-09
-1.53593e-08
5.27497e-05
-2.27128e-09
-1.42388e-08
-1.84301e-11
-1.38005e-08
7.69288e-05
-6.82898e-10
-1.93158e-08
7.69294e-05
-6.75709e-09
-1.59797e-08
7.69267e-05
4.12181e-09
-1.69269e-08
7.69262e-05
-3.73012e-09
-1.27873e-08
7.69256e-05
-4.6787e-09
-1.19431e-08
7.69219e-05
5.87133e-09
-9.81801e-09
7.69219e-05
-5.75477e-09
-6.209e-09
7.69195e-05
5.9494e-10
-5.65511e-09
7.69168e-05
2.66511e-09
-1.3362e-09
7.69154e-05
-7.73695e-10
1.60186e-11
7.69136e-05
-3.817e-10
2.56439e-09
7.69108e-05
5.48431e-09
5.45632e-09
7.69096e-05
2.60171e-10
6.52043e-09
7.69084e-05
2.8277e-10
8.99029e-09
7.69053e-05
1.01451e-08
1.04295e-08
7.69061e-05
-4.24384e-09
1.06331e-08
7.69038e-05
8.94085e-09
1.22978e-08
7.69032e-05
4.47965e-09
1.15075e-08
7.6904e-05
5.86479e-10
1.13879e-08
7.69027e-05
9.75347e-09
1.04614e-08
7.69041e-05
1.02338e-09
9.27058e-09
7.69043e-05
6.64725e-09
6.75404e-09
7.69056e-05
3.48878e-09
5.95623e-09
7.69065e-05
5.95756e-09
1.84027e-09
7.69087e-05
1.94333e-09
6.05341e-10
7.69102e-05
3.84288e-09
-2.45423e-09
7.69113e-05
6.98321e-09
-6.31029e-09
7.69153e-05
-4.15282e-09
-6.74495e-09
7.69154e-05
8.55048e-09
-1.1965e-08
7.69185e-05
-4.47164e-10
-1.24933e-08
7.69213e-05
-2.79209e-09
-1.50538e-08
7.69213e-05
8.26572e-09
-1.76263e-08
7.69253e-05
-7.45009e-09
-1.81003e-08
7.69256e-05
3.14492e-09
-2.01799e-08
7.69269e-05
1.60399e-10
-2.04255e-08
7.69291e-05
-5.36114e-09
-2.13244e-08
7.69287e-05
2.38513e-09
-2.09988e-08
7.69297e-05
-3.00242e-09
-2.15527e-08
7.69301e-05
-3.40613e-09
-2.01616e-08
-3.60017e-10
-1.97105e-08
0.00010663
-1.49922e-09
-2.62945e-08
0.000106631
-9.37147e-09
-2.22813e-08
0.000106627
5.16511e-09
-2.35197e-08
0.000106627
-5.75657e-09
-1.84084e-08
0.000106626
-6.30603e-09
-1.74703e-08
0.000106622
7.43946e-09
-1.45905e-08
0.000106621
-8.2536e-09
-1.03288e-08
0.000106618
9.18991e-10
-9.27137e-09
0.000106615
3.2705e-09
-3.93208e-09
0.000106613
-1.20274e-09
-2.0433e-09
0.00010661
-3.02645e-10
1.46341e-09
0.000106606
7.44815e-09
5.14955e-09
0.000106604
3.68243e-10
6.95984e-09
0.000106602
1.02729e-09
1.02474e-08
0.000106598
1.3858e-08
1.24745e-08
0.000106599
-5.29967e-09
1.31179e-08
0.000106596
1.29757e-08
1.55369e-08
0.000106595
6.31016e-09
1.50111e-08
0.000106595
1.76887e-09
1.51907e-08
0.000106593
1.38907e-08
1.43201e-08
0.000106595
2.05041e-09
1.31881e-08
0.000106595
9.98129e-09
1.0178e-08
0.000106596
5.42486e-09
9.38957e-09
0.000106597
8.87464e-09
4.23815e-09
0.0001066
3.32707e-09
2.81416e-09
0.000106602
6.13271e-09
-1.33991e-09
0.000106604
9.83052e-09
-6.03465e-09
0.000106609
-4.88282e-09
-6.99652e-09
0.000106609
1.22629e-08
-1.36636e-08
0.000106613
-6.44545e-10
-1.4743e-08
0.000106617
-2.95353e-09
-1.82204e-08
0.000106617
1.12043e-08
-2.17275e-08
0.000106623
-1.00957e-08
-2.28069e-08
0.000106623
4.71022e-09
-2.56155e-08
0.000106626
-2.85493e-10
-2.6345e-08
0.000106628
-7.12874e-09
-2.77117e-08
0.000106629
3.01579e-09
-2.76192e-08
0.00010663
-4.56746e-09
-2.8557e-08
0.000106631
-4.71791e-09
-2.70067e-08
-9.24308e-10
-2.66789e-08
0.000142837
-2.46349e-09
-3.45812e-08
0.000142839
-1.24282e-08
-2.98223e-08
0.000142835
6.25893e-09
-3.17839e-08
0.000142835
-8.2929e-09
-2.56815e-08
0.000142834
-8.23729e-09
-2.4878e-08
0.000142829
9.02312e-09
-2.13218e-08
0.000142828
-1.13733e-08
-1.64281e-08
0.000142824
1.2091e-09
-1.50393e-08
0.00014282
3.67982e-09
-8.52731e-09
0.000142817
-1.87233e-09
-6.21959e-09
0.000142814
-4.1041e-10
-1.58069e-09
0.000142809
9.53772e-09
2.97617e-09
0.000142806
2.68996e-10
5.67929e-09
0.000142803
1.82226e-09
9.9838e-09
0.000142798
1.79854e-08
1.3307e-08
0.000142798
-6.64155e-09
1.46023e-08
0.000142793
1.76742e-08
1.81488e-08
0.000142792
8.33139e-09
1.82498e-08
0.000142792
3.2002e-09
1.90795e-08
0.000142789
1.87616e-08
1.86043e-08
0.00014279
3.29403e-09
1.79602e-08
0.00014279
1.40691e-08
1.46527e-08
0.000142791
7.79489e-09
1.43333e-08
0.000142792
1.2517e-08
8.16988e-09
0.000142795
5.15436e-09
6.92794e-09
0.000142797
9.11455e-09
1.69937e-09
0.0001428
1.33842e-08
-3.93183e-09
0.000142805
-5.42411e-09
-5.16281e-09
0.000142806
1.69995e-08
-1.35759e-08
0.000142812
-7.28131e-10
-1.53516e-08
0.000142816
-2.68059e-09
-1.98271e-08
0.000142818
1.49045e-08
-2.46053e-08
0.000142824
-1.29836e-08
-2.65154e-08
0.000142826
6.95854e-09
-3.03297e-08
0.000142829
-7.17506e-10
-3.18739e-08
0.000142833
-8.91606e-09
-3.39644e-08
0.000142834
3.92011e-09
-3.43881e-08
0.000142836
-6.35935e-09
-3.60636e-08
0.000142837
-6.06956e-09
-3.4531e-08
-1.62946e-09
-3.45573e-08
0.000186662
-3.44517e-09
-4.38826e-08
0.000186665
-1.57401e-08
-3.82694e-08
0.000186661
7.53858e-09
-4.16715e-08
0.000186661
-1.13292e-08
-3.45537e-08
0.00018666
-1.03518e-08
-3.43567e-08
0.000186655
1.06209e-08
-3.02934e-08
0.000186655
-1.5176e-08
-2.4816e-08
0.00018665
1.47527e-09
-2.36e-08
0.000186645
3.77257e-09
-1.56015e-08
0.000186642
-2.89152e-09
-1.33361e-08
0.000186637
-8.13276e-10
-7.39748e-09
0.000186631
1.16214e-08
-1.94798e-09
0.000186627
-2.78209e-10
1.67737e-09
0.000186623
2.50812e-09
7.22813e-09
0.000186616
2.23052e-08
1.1859e-08
0.000186616
-8.5486e-09
1.40774e-08
0.00018661
2.28674e-08
1.91251e-08
0.000186607
1.02751e-08
2.02656e-08
0.000186606
4.66371e-09
2.2273e-08
0.000186602
2.41898e-08
2.25605e-08
0.000186603
4.53967e-09
2.30913e-08
0.000186601
1.87903e-08
1.97745e-08
0.000186602
1.04663e-08
2.06993e-08
0.000186603
1.6806e-08
1.36164e-08
0.000186606
7.36199e-09
1.32335e-08
0.000186608
1.27979e-08
7.23239e-09
0.000186611
1.76425e-08
5.56521e-10
0.000186617
-5.75221e-09
-3.4174e-10
0.000186618
2.29582e-08
-1.07514e-08
0.000186625
-6.33727e-10
-1.32449e-08
0.000186631
-1.79398e-09
-1.87733e-08
0.000186633
1.96461e-08
-2.50511e-08
0.000186641
-1.59986e-08
-2.80772e-08
0.000186643
1.02202e-08
-3.3181e-08
0.000186648
-9.03064e-10
-3.59199e-08
0.000186653
-1.05053e-08
-3.91186e-08
0.000186655
5.42974e-09
-4.03563e-08
0.000186659
-8.19932e-09
-4.33344e-08
0.000186661
-7.20415e-09
-4.20897e-08
-2.2478e-09
-4.27503e-08
0.000239339
-4.24338e-09
-5.33093e-08
0.000239342
-1.89081e-08
-4.66707e-08
0.00023934
9.29437e-09
-5.25681e-08
0.000239341
-1.47777e-08
-4.4392e-08
0.00023934
-1.23091e-08
-4.5558e-08
0.000239335
1.23202e-08
-4.13836e-08
0.000239335
-1.96321e-08
-3.52424e-08
0.00023933
1.87151e-09
-3.53303e-08
0.000239325
3.49389e-09
-2.52179e-08
0.000239321
-4.32462e-09
-2.3981e-08
0.000239316
-1.59958e-09
-1.65283e-08
0.000239308
1.36105e-08
-1.03666e-08
0.000239304
-1.59354e-09
-6.0807e-09
0.000239298
2.98488e-09
1.00927e-09
0.00023929
2.65011e-08
6.85782e-09
0.000239288
-1.13423e-08
1.0284e-08
0.00023928
2.83287e-08
1.71238e-08
0.000239276
1.17226e-08
1.95585e-08
0.000239273
5.88311e-09
2.34972e-08
0.000239268
2.98182e-08
2.47619e-08
0.000239267
5.45384e-09
2.74132e-08
0.000239265
2.38585e-08
2.43946e-08
0.000239265
1.31687e-08
2.76908e-08
0.000239265
2.14807e-08
1.98845e-08
0.000239268
9.75049e-09
2.12392e-08
0.000239269
1.70629e-08
1.53524e-08
0.000239272
2.25502e-08
7.32528e-09
0.000239279
-5.9199e-09
7.93121e-09
0.000239279
3.02296e-08
-4.4641e-09
0.000239288
-3.69986e-10
-7.41794e-09
0.000239293
-1.76897e-10
-1.40167e-08
0.000239296
2.56799e-08
-2.16713e-08
0.000239307
-1.9036e-08
-2.60874e-08
0.000239309
1.4827e-08
-3.26957e-08
0.000239316
-5.44746e-10
-3.68915e-08
0.000239323
-1.16384e-08
-4.17475e-08
0.000239326
7.98403e-09
-4.39734e-08
0.000239331
-9.80366e-09
-4.89959e-08
0.000239335
-7.76052e-09
-4.8489e-08
-2.3583e-09
-4.99576e-08
0.000302208
-4.61586e-09
-6.11386e-08
0.000302213
-2.13156e-08
-5.32044e-08
0.000302212
1.20112e-08
-6.30346e-08
0.000302215
-1.8451e-08
-5.36782e-08
0.000302215
-1.34897e-08
-5.71513e-08
0.000302211
1.43803e-08
-5.38524e-08
0.000302212
-2.45514e-08
-4.6371e-08
0.000302207
2.77529e-09
-5.00287e-08
0.000302202
2.97105e-09
-3.66083e-08
0.000302198
-6.1234e-09
-3.80066e-08
0.000302192
-2.6561e-09
-2.91118e-08
0.000302184
1.55338e-08
-2.22072e-08
0.000302179
-3.91469e-09
-1.83842e-08
0.000302172
3.30458e-09
-9.1834e-09
0.000302162
3.02106e-08
-2.74998e-09
0.000302159
-1.52825e-08
1.96329e-09
0.000302149
3.38729e-08
1.09137e-08
0.000302143
1.2132e-08
1.42267e-08
0.000302139
6.6275e-09
2.11745e-08
0.000302132
3.51074e-08
2.3217e-08
0.000302129
5.63794e-09
2.90165e-08
0.000302125
2.88042e-08
2.65359e-08
0.000302124
1.55005e-08
3.3491e-08
0.000302121
2.60557e-08
2.53982e-08
0.000302124
1.19248e-08
2.91972e-08
0.000302123
2.16314e-08
2.51382e-08
0.000302125
2.76444e-08
1.55527e-08
0.000302132
-6.1427e-09
1.91657e-08
0.000302132
3.85781e-08
5.10736e-09
0.000302141
-1.07883e-10
2.60047e-09
0.000302147
2.13033e-09
-5.14472e-09
0.00030215
3.30762e-08
-1.34386e-08
0.000302162
-2.20724e-08
-1.91909e-08
0.000302166
2.0957e-08
-2.75196e-08
0.000302174
6.25672e-10
-3.28836e-08
0.000302183
-1.20978e-08
-4.01286e-08
0.000302187
1.20082e-08
-4.32502e-08
0.000302195
-1.08135e-08
-5.09313e-08
0.0003022
-7.36061e-09
-5.19693e-08
-1.35535e-09
-5.40524e-08
0.000376686
-4.41343e-09
-6.48525e-08
0.000376692
-2.222e-08
-5.51064e-08
0.000376693
1.63095e-08
-7.07324e-08
0.000376699
-2.20964e-08
-5.99442e-08
0.0003767
-1.30149e-08
-6.63272e-08
0.000376698
1.72588e-08
-6.62915e-08
0.000376701
-2.95162e-08
-5.52457e-08
0.000376697
4.77121e-09
-6.65081e-08
0.000376693
2.68908e-09
-4.78791e-08
0.000376691
-8.10488e-09
-5.37345e-08
0.000376685
-3.55474e-09
-4.4598e-08
0.000376677
1.77393e-08
-3.58648e-08
0.000376673
-7.41408e-09
-3.51943e-08
0.000376664
3.96604e-09
-2.28164e-08
0.000376654
3.32006e-08
-1.69755e-08
0.000376649
-2.04654e-08
-1.17808e-08
0.000376638
3.95474e-08
3.11287e-10
0.00037663
1.09342e-08
2.56988e-09
0.000376624
6.92274e-09
1.39236e-08
0.000376614
3.9423e-08
1.60946e-08
0.00037661
4.76835e-09
2.55417e-08
0.000376603
3.30508e-08
2.38852e-08
0.000376599
1.70283e-08
3.52903e-08
0.000376594
2.98775e-08
2.77998e-08
0.000376595
1.3266e-08
3.4128e-08
0.000376592
2.61594e-08
3.41193e-08
0.000376593
3.20741e-08
2.29197e-08
0.000376599
-6.7011e-09
3.14308e-08
0.000376596
4.75142e-08
1.57772e-08
0.000376606
-3.32199e-10
1.61284e-08
0.000376611
4.82365e-09
6.94326e-09
0.000376613
4.15137e-08
-8.14902e-10
0.000376627
-2.52494e-08
-6.6499e-09
0.00037663
2.84459e-08
-1.73604e-08
0.00037664
2.65642e-09
-2.2434e-08
0.00037665
-1.18503e-08
-3.26951e-08
0.000376655
1.76914e-08
-3.65192e-08
0.000376666
-1.09374e-08
-4.65871e-08
0.000376672
-5.78175e-09
-5.04488e-08
1.42807e-09
-5.24072e-08
0.000464206
-3.90049e-09
-6.19743e-08
0.000464213
-2.09562e-08
-4.90996e-08
0.000464217
2.26919e-08
-7.27512e-08
0.000464228
-2.55647e-08
-6.04707e-08
0.000464229
-9.94028e-09
-6.84712e-08
0.000464231
2.14032e-08
-7.70003e-08
0.000464237
-3.38203e-08
-5.72287e-08
0.000464235
8.40463e-09
-8.20874e-08
0.000464233
3.59524e-09
-5.63719e-08
0.000464233
-9.97209e-09
-6.69322e-08
0.000464229
-3.60198e-09
-6.18272e-08
0.000464221
2.10986e-08
-4.74587e-08
0.00046422
-1.22216e-08
-5.48637e-08
0.000464209
6.04185e-09
-3.81796e-08
0.000464201
3.54436e-08
-3.31364e-08
0.000464195
-2.66805e-08
-3.11583e-08
0.000464182
4.59957e-08
-1.28182e-08
0.000464175
7.53309e-09
-1.5509e-08
0.000464165
7.29979e-09
1.12711e-09
0.000464155
4.22385e-08
3.29413e-09
0.000464147
2.8186e-09
1.49784e-08
0.000464138
3.61036e-08
1.50066e-08
0.000464132
1.75157e-08
3.03467e-08
0.000464124
3.2385e-08
2.43824e-08
0.000464123
1.29574e-08
3.29564e-08
0.000464116
3.05428e-08
3.86785e-08
0.000464114
3.45762e-08
2.55061e-08
0.000464119
-7.90425e-09
4.21477e-08
0.000464112
5.62274e-08
2.29909e-08
0.000464121
-1.88152e-09
3.03928e-08
0.000464124
7.40822e-09
1.99692e-08
0.000464124
5.01975e-08
1.26281e-08
0.000464138
-2.90216e-08
1.0877e-08
0.00046414
3.66721e-08
-3.9772e-09
0.00046415
5.16506e-09
-6.19131e-09
0.000464161
-1.12086e-08
-1.87567e-08
0.000464166
2.4766e-08
-2.37975e-08
0.000464179
-1.02166e-08
-3.426e-08
0.000464187
-3.23094e-09
-4.2147e-08
6.52144e-09
-4.29288e-08
0.000566123
-4.20053e-09
-5.21433e-08
0.000566131
-1.72578e-08
-3.28679e-08
0.000566136
3.12088e-08
-6.63427e-08
0.000566153
-2.92399e-08
-5.44217e-08
0.000566155
-3.43934e-09
-5.75722e-08
0.000566161
2.6627e-08
-8.48477e-08
0.000566171
-3.64551e-08
-4.74988e-08
0.000566172
1.36491e-08
-9.18298e-08
0.000566173
6.89673e-09
-6.05202e-08
0.000566177
-1.13367e-08
-7.00875e-08
0.000566176
-2.31695e-09
-7.93165e-08
0.000566169
2.71276e-08
-5.15957e-08
0.000566173
-1.86137e-08
-7.25321e-08
0.000566161
1.11088e-08
-5.36855e-08
0.000566157
3.73499e-08
-4.45294e-08
0.000566152
-3.3611e-08
-5.49265e-08
0.000566138
5.45906e-08
-2.47538e-08
0.000566133
1.65544e-09
-3.61849e-08
0.00056612
8.77545e-09
-1.70038e-08
0.000566111
4.35465e-08
-1.16956e-08
0.000566101
1.95599e-10
-2.57189e-09
0.00056609
3.76752e-08
3.14459e-10
0.000566082
1.71911e-08
1.87617e-08
0.00056607
3.36424e-08
1.30297e-08
0.000566068
1.00665e-08
2.41117e-08
0.000566056
3.53812e-08
3.69457e-08
0.000566051
3.38087e-08
1.77945e-08
0.000566052
-9.91169e-09
4.97834e-08
0.000566041
6.39937e-08
2.15869e-08
0.000566048
-5.77577e-09
3.95674e-08
0.000566047
9.41856e-09
3.20245e-08
0.000566045
5.79282e-08
1.97944e-08
0.000566056
-3.40158e-08
3.02915e-08
0.000566056
4.45681e-08
9.2779e-09
0.000566064
7.26929e-09
1.10123e-08
0.000566075
-1.11007e-08
5.40253e-10
0.000566078
3.24408e-08
-7.65682e-09
0.000566092
-9.17413e-09
-1.55781e-08
0.000566101
-7.57094e-10
-2.68194e-08
1.42174e-08
-2.54117e-08
0.000683561
-7.38677e-09
-3.93194e-08
0.000683571
-1.19256e-08
-8.17064e-09
0.000683573
4.14763e-08
-4.92703e-08
0.000683596
-3.47536e-08
-4.62346e-08
0.000683597
7.20591e-09
-2.85354e-08
0.000683607
3.12016e-08
-8.94879e-08
0.000683622
-3.63247e-08
-2.57686e-08
0.000683625
1.94771e-08
-8.74965e-08
0.000683631
1.31247e-08
-6.30531e-08
0.000683639
-1.15877e-08
-5.42292e-08
0.000683643
-3.88993e-10
-9.42171e-08
0.000683638
3.77075e-08
-4.59092e-08
0.000683651
-2.71952e-08
-7.79169e-08
0.000683637
2.04551e-08
-7.00529e-08
0.00068364
3.98028e-08
-4.19111e-08
0.000683637
-4.11325e-08
-7.79969e-08
0.000683623
6.69663e-08
-3.34043e-08
0.000683625
-6.53987e-09
-4.94302e-08
0.000683608
1.27463e-08
-3.95461e-08
0.000683604
4.35874e-08
-2.25578e-08
0.000683592
-1.44601e-09
-2.22868e-08
0.000683581
3.81323e-08
-1.90988e-08
0.000683573
1.66019e-08
6.13409e-09
0.000683557
3.49368e-08
-4.66888e-09
0.000683555
3.64609e-09
6.75621e-09
0.000683538
4.22308e-08
3.40111e-08
0.000683532
2.85655e-08
-4.69884e-09
0.000683529
-1.24305e-08
5.39395e-08
0.000683513
7.07325e-08
1.23425e-08
0.000683517
-1.268e-08
3.44205e-08
0.000683511
1.0816e-08
4.41844e-08
0.000683505
6.34254e-08
1.4002e-08
0.000683511
-4.04318e-08
4.4555e-08
0.000683508
5.08748e-08
2.03371e-08
0.000683511
8.25127e-09
2.06358e-08
0.00068352
-1.24957e-08
2.01738e-08
0.00068352
3.92941e-08
8.32057e-09
0.000683531
-8.32655e-09
2.94938e-09
0.000683541
-5.79407e-10
-7.97818e-09
2.4611e-08
-1.82036e-09
0.000817184
-1.51363e-08
-2.95116e-08
0.000817193
-6.78581e-09
1.46794e-08
0.00081719
5.35367e-08
-1.89057e-08
0.000817217
-4.55376e-08
-4.62239e-08
0.000817216
2.27221e-08
1.64741e-08
0.000817227
3.17282e-08
-8.78746e-08
0.000817245
-3.3217e-08
-3.40865e-09
0.00081725
2.44414e-08
-5.85769e-08
0.000817258
2.05431e-08
-7.08645e-08
0.000817271
-9.635e-09
-1.7856e-08
0.000817281
-3.15216e-10
-9.76488e-08
0.000817275
5.3841e-08
-3.86079e-08
0.000817301
-3.86177e-08
-5.72161e-08
0.000817285
3.37852e-08
-8.8284e-08
0.000817296
4.34812e-08
-2.29655e-08
0.0008173
-4.93657e-08
-8.6836e-08
0.000817285
8.37008e-08
-4.29966e-08
0.000817299
-1.67631e-08
-4.23366e-08
0.000817279
2.05076e-08
-6.13373e-08
0.000817281
4.20138e-08
-2.71609e-08
0.000817272
-2.59541e-10
-3.05429e-08
0.000817261
3.80652e-08
-4.16255e-08
0.000817257
1.56602e-08
-1.10962e-09
0.00081724
3.89347e-08
-1.665e-08
0.000817238
-7.32416e-09
-2.23055e-08
0.000817219
5.3141e-08
4.16616e-08
0.000817213
1.99831e-08
-3.8387e-08
0.000817207
-1.4562e-08
4.99302e-08
0.000817187
7.68495e-08
9.09271e-09
0.000817189
-2.2594e-08
7.31667e-09
0.000817176
1.27803e-08
5.80299e-08
0.000817168
6.53592e-08
-7.13113e-10
0.000817169
-4.71161e-08
4.36342e-08
0.000817161
5.44317e-08
3.0578e-08
0.000817159
7.74611e-09
1.84857e-08
0.000817162
-1.52722e-08
3.06846e-08
0.000817159
4.3248e-08
2.21022e-08
0.000817163
-6.66851e-09
1.43293e-08
0.000817173
-5.98527e-09
5.06259e-09
3.79744e-08
2.48302e-08
0.000966853
-2.62623e-08
-2.00793e-08
0.000966859
-5.7893e-09
1.7552e-08
0.000966849
6.90248e-08
2.56906e-08
0.000966873
-6.53538e-08
-5.89704e-08
0.00096687
4.32159e-08
5.79252e-08
0.000966878
2.56014e-08
-6.83911e-08
0.000966894
-2.89506e-08
-2.66285e-09
0.000966901
2.83888e-08
-3.37578e-09
0.000966908
2.48547e-08
-8.24458e-08
0.000966922
-4.81546e-09
1.89656e-08
0.000966939
-5.13279e-09
-7.29638e-08
0.000966929
7.41028e-08
-4.57427e-08
0.000966967
-5.33272e-08
-9.0862e-09
0.00096695
4.87891e-08
-9.79485e-08
0.000966967
4.72116e-08
-4.70054e-09
0.000966982
-5.85317e-08
-6.35336e-08
0.000966963
1.0355e-07
-5.83135e-08
0.000966992
-2.98977e-08
-1.53121e-08
0.000966972
3.2977e-08
-6.58501e-08
0.000966981
3.72316e-08
-3.37514e-08
0.000966978
3.98743e-09
-1.57462e-08
0.00096697
3.87742e-08
-5.6057e-08
0.000966971
1.25119e-08
-1.01988e-08
0.000966956
4.83411e-08
-8.52279e-10
0.00096696
-2.30865e-08
-6.32267e-08
0.000966939
6.9088e-08
6.04452e-08
0.000966937
9.18221e-09
-5.67222e-08
0.000966931
-1.57014e-08
2.53944e-08
0.000966909
8.43039e-08
2.99746e-08
0.000966913
-3.54874e-08
-3.27659e-08
0.000966893
1.81398e-08
6.63795e-08
0.000966886
6.30561e-08
-6.19337e-09
0.000966881
-5.18425e-08
2.54174e-08
0.000966868
5.58867e-08
3.86256e-08
0.000966863
5.08665e-09
1.41516e-08
0.000966858
-1.67307e-08
2.5739e-08
0.000966853
4.14925e-08
3.12054e-08
0.000966847
-1.47427e-09
2.2332e-08
0.000966855
-1.83191e-08
2.3984e-09
5.34625e-08
4.81984e-08
0.00113114
-3.51352e-08
3.27834e-09
0.00113114
-1.30132e-08
-4.98369e-09
0.00113112
8.97741e-08
6.94846e-08
0.00113114
-9.38505e-08
-6.30611e-08
0.00113113
6.62272e-08
6.45383e-08
0.00113114
1.48214e-08
-2.20979e-08
0.00113114
-2.74771e-08
-2.74517e-08
0.00113115
3.27176e-08
5.05449e-08
0.00113115
2.18982e-08
-7.35724e-08
0.00113116
3.06728e-09
2.28347e-08
0.00113118
-1.61846e-08
-1.77417e-08
0.00113117
9.48529e-08
-6.3465e-08
0.00113121
-7.11819e-08
3.43744e-08
0.0011312
6.23934e-08
-7.50127e-08
0.00113121
4.92324e-08
-1.00215e-08
0.00113124
-6.96624e-08
-1.37128e-08
0.00113122
1.24433e-07
-6.57502e-08
0.00113125
-4.78887e-08
5.94651e-09
0.00113124
4.86725e-08
-3.70911e-08
0.00113125
2.87104e-08
-4.22946e-08
0.00113126
7.87409e-09
5.30944e-09
0.00113126
4.15616e-08
-3.69564e-08
0.00113126
4.44885e-09
-3.54799e-08
0.00113125
6.29177e-08
4.49938e-08
0.00113126
-4.28709e-08
-8.87875e-08
0.00113124
8.77368e-08
6.18167e-08
0.00113125
-1.86493e-09
-2.88914e-08
0.00113125
-1.76443e-08
-1.86284e-08
0.00113122
9.45992e-08
6.73811e-08
0.00113123
-5.20045e-08
-5.32644e-08
0.00113121
2.87797e-08
5.77862e-08
0.00113121
5.64028e-08
7.96714e-09
0.0011312
-5.42025e-08
9.44383e-09
0.00113119
5.79245e-08
3.92186e-08
0.00113118
-1.49097e-09
1.98355e-08
0.00113117
-1.2702e-08
1.74797e-08
0.00113116
3.24963e-08
2.82893e-08
0.00113115
8.72412e-09
3.76837e-08
0.00113115
-3.51138e-08
-6.49146e-09
6.76745e-08
5.45338e-08
0.00130668
-3.68277e-08
3.70135e-08
0.00130668
-2.71434e-08
-2.28622e-08
0.00130666
1.11988e-07
8.18107e-08
0.00130667
-1.22544e-07
-3.41857e-08
0.00130665
8.54333e-08
4.17419e-08
0.00130665
3.97868e-09
2.7808e-08
0.00130665
-3.05336e-08
-4.12058e-08
0.00130665
3.85085e-08
6.31866e-08
0.00130665
1.11044e-08
-3.16968e-08
0.00130665
1.32825e-08
4.54696e-09
0.00130667
-3.28667e-08
3.08901e-08
0.00130665
1.1202e-07
-5.85276e-08
0.00130669
-8.93364e-08
3.7751e-08
0.00130668
7.06154e-08
-2.37472e-08
0.00130668
4.92035e-08
-2.06692e-08
0.00130672
-8.34656e-08
2.24787e-08
0.0013067
1.41868e-07
-4.64162e-08
0.00130673
-6.91004e-08
6.64377e-09
0.00130672
6.26907e-08
1.01957e-10
0.00130674
1.74716e-08
-2.42056e-08
0.00130675
8.20074e-09
1.17403e-09
0.00130675
4.52225e-08
1.28408e-08
0.00130676
-9.89506e-09
-5.67652e-08
0.00130676
7.81452e-08
7.47245e-08
0.00130678
-6.46382e-08
-5.88067e-08
0.00130676
1.02006e-07
3.03913e-08
0.00130677
-1.16914e-08
2.79901e-08
0.00130678
-2.42894e-08
-4.89326e-08
0.00130676
1.06124e-07
8.9322e-08
0.00130677
-7.12653e-08
-3.63055e-08
0.00130675
4.09788e-08
4.49581e-08
0.00130676
4.76228e-08
2.32422e-08
0.00130675
-5.6602e-08
1.10923e-08
0.00130674
6.1994e-08
4.01895e-08
0.00130674
-1.31638e-08
2.95533e-08
0.00130672
-2.534e-09
2.62206e-08
0.00130672
1.77773e-08
1.84596e-08
0.0013067
2.11087e-08
4.99833e-08
0.0013067
-5.00825e-08
4.33399e-09
7.53129e-08
4.28042e-08
0.00148748
-3.17495e-08
5.69483e-08
0.00148747
-4.34967e-08
-9.85021e-09
0.00148746
1.27204e-07
6.72116e-08
0.00148746
-1.42188e-07
-2.58723e-09
0.00148745
9.46002e-08
3.02684e-08
0.00148745
-2.65892e-09
5.14261e-08
0.00148744
-3.71234e-08
-2.4798e-08
0.00148743
4.52407e-08
5.06022e-08
0.00148743
-5.07894e-09
-4.92305e-10
0.00148742
2.39811e-08
4.71378e-09
0.00148743
-4.93901e-08
4.69834e-08
0.00148742
1.20077e-07
-2.81481e-08
0.00148743
-1.00593e-07
2.45989e-08
0.00148743
7.04089e-08
7.83862e-09
0.00148743
4.74196e-08
-1.12639e-08
0.00148745
-9.47216e-08
3.68756e-08
0.00148744
1.49778e-07
-2.00381e-08
0.00148747
-8.66355e-08
1.2181e-08
0.00148746
7.02241e-08
5.78228e-09
0.00148748
6.42585e-09
1.30452e-08
0.00148748
3.61154e-09
-2.57438e-09
0.00148748
4.9404e-08
4.29786e-08
0.0014875
-2.79288e-08
-4.03572e-08
0.0014875
8.88597e-08
5.83579e-08
0.00148751
-8.15755e-08
-3.42585e-11
0.00148751
1.04139e-07
5.98367e-09
0.00148751
-1.45611e-08
6.73614e-08
0.00148753
-3.64001e-08
-4.82364e-08
0.00148752
1.13364e-07
8.68042e-08
0.00148753
-8.77961e-08
-8.53212e-09
0.00148752
4.70762e-08
4.66153e-08
0.00148752
3.80619e-08
3.63965e-08
0.00148752
-6.02107e-08
1.49178e-08
0.00148752
6.46039e-08
4.61077e-08
0.00148752
-2.85725e-08
3.47792e-08
0.0014875
9.52056e-09
4.5058e-08
0.00148752
-2.29111e-10
2.27574e-08
0.00148749
3.05021e-08
4.77447e-08
0.0014875
-5.97073e-08
2.25387e-08
7.29795e-08
3.66457e-08
0.00166502
-2.21886e-08
5.52134e-08
0.00166503
-5.89567e-08
5.72599e-09
0.00166502
1.31007e-07
5.8361e-08
0.00166502
-1.48905e-07
8.67313e-09
0.00166501
9.12411e-08
2.45762e-08
0.00166501
-4.45935e-09
5.35058e-08
0.001665
-4.53288e-08
-1.27936e-08
0.001665
5.06805e-08
4.95153e-08
0.001665
-2.17777e-08
4.72374e-09
0.00166499
3.2114e-08
7.73969e-09
0.00166499
-5.95167e-08
4.49765e-08
0.00166499
1.15536e-07
-1.07099e-08
0.00166499
-9.94258e-08
2.48759e-08
0.00166499
6.22084e-08
1.51076e-08
0.00166499
4.49013e-08
-6.90057e-09
0.001665
-9.68415e-08
4.07885e-08
0.00166499
1.45493e-07
-9.56052e-09
0.001665
-9.22188e-08
2.51744e-08
0.001665
7.00368e-08
2.35028e-09
0.00166501
1.21962e-09
2.37443e-08
0.00166501
-3.50595e-09
4.93847e-09
0.00166501
5.44952e-08
4.22399e-08
0.00166502
-4.23546e-08
-9.19163e-09
0.00166502
9.22332e-08
3.59761e-08
0.00166502
-8.56687e-08
2.98521e-08
0.00166503
9.37836e-08
-2.59135e-09
0.00166503
-9.44355e-09
8.12194e-08
0.00166504
-4.72239e-08
-3.1959e-08
0.00166504
1.12358e-07
7.91887e-08
0.00166504
-9.29561e-08
4.52935e-09
0.00166504
4.54372e-08
4.62885e-08
0.00166504
3.00291e-08
4.73599e-08
0.00166504
-6.20693e-08
1.87256e-08
0.00166504
6.36223e-08
5.10238e-08
0.00166505
-4.26006e-08
3.11879e-08
0.00166503
1.93236e-08
5.04368e-08
0.00166505
-1.7149e-08
3.05965e-08
0.00166503
3.33202e-08
4.70706e-08
0.00166503
-6.18225e-08
2.86663e-08
5.99508e-08
3.36437e-08
0.00184003
-8.20778e-09
4.5398e-08
0.00184004
-7.11748e-08
7.7523e-09
0.00184005
1.26747e-07
5.00353e-08
0.00184003
-1.42931e-07
1.1351e-08
0.00184004
7.90616e-08
1.75068e-08
0.00184004
-1.61886e-09
4.81401e-08
0.00184003
-5.20331e-08
-1.64474e-08
0.00184003
5.43468e-08
4.74753e-08
0.00184004
-3.49252e-08
3.87643e-09
0.00184003
3.67652e-08
3.22762e-09
0.00184003
-6.12946e-08
4.02462e-08