/*--------------------------------*- C++ -*----------------------------------*\
  =========                 |
  \\      /  F ield         | OpenFOAM: The Open Source CFD Toolbox
   \\    /   O peration     | Website:  https://openfoam.org
    \\  /    A nd           | Version:  10
     \\/     M anipulation  |
\*---------------------------------------------------------------------------*/
FoamFile
{
    format      ascii;
    class       volScalarField;
    location    "20";
    object      pPrime2Mean;
}
// * * * * * * * * * * * * * * * * * * * * * * * * * * * * * * * * * * * * * //

dimensions      [0 4 -4 0 0 0 0];

internalField   nonuniform List<scalar> 
25600
(
3.03383e-05
3.03432e-05
3.03678e-05
3.17634e-05
2.95272e-05
3.17665e-05
3.22364e-05
3.25941e-05
3.09935e-05
3.17922e-05
3.49395e-05
3.2942e-05
2.84145e-05
2.61118e-05
2.35417e-05
2.45162e-05
2.59143e-05
2.6927e-05
2.94294e-05
3.10616e-05
2.91935e-05
2.55771e-05
2.40513e-05
2.1804e-05
2.49436e-05
3.02927e-05
3.38884e-05
3.38874e-05
3.08743e-05
2.81261e-05
2.74301e-05
2.80065e-05
2.83386e-05
2.9849e-05
2.92299e-05
2.7487e-05
2.72534e-05
2.94407e-05
3.09464e-05
3.06377e-05
3.04732e-05
3.04823e-05
3.04969e-05
3.18991e-05
2.97111e-05
3.19875e-05
3.24813e-05
3.28164e-05
3.11737e-05
3.19668e-05
3.51525e-05
3.31182e-05
2.85607e-05
2.62394e-05
2.36742e-05
2.46615e-05
2.60498e-05
2.70669e-05
2.95919e-05
3.12232e-05
2.9384e-05
2.5711e-05
2.41673e-05
2.19194e-05
2.50523e-05
3.04593e-05
3.40676e-05
3.40721e-05
3.10991e-05
2.8335e-05
2.75831e-05
2.81868e-05
2.8524e-05
3.00871e-05
2.94596e-05
2.76896e-05
2.74523e-05
2.962e-05
3.11001e-05
3.07991e-05
3.07765e-05
3.07293e-05
3.07961e-05
3.21643e-05
3.01476e-05
3.25085e-05
3.30759e-05
3.33675e-05
3.16081e-05
3.23472e-05
3.56045e-05
3.35058e-05
2.88961e-05
2.65481e-05
2.40149e-05
2.50375e-05
2.64241e-05
2.7457e-05
3.00072e-05
3.16087e-05
2.98085e-05
2.60282e-05
2.43503e-05
2.22028e-05
2.52692e-05
3.09189e-05
3.45445e-05
3.46213e-05
3.16466e-05
2.88687e-05
2.80578e-05
2.86644e-05
2.90135e-05
3.05932e-05
2.9936e-05
2.8113e-05
2.78338e-05
3.00035e-05
3.14182e-05
3.11031e-05
3.12523e-05
3.10896e-05
3.13094e-05
3.2644e-05
3.0793e-05
3.32778e-05
3.39554e-05
3.41154e-05
3.22699e-05
3.2909e-05
3.62886e-05
3.40803e-05
2.94336e-05
2.70829e-05
2.4537e-05
2.5625e-05
2.6963e-05
2.80069e-05
3.06165e-05
3.21756e-05
3.04373e-05
2.65333e-05
2.45994e-05
2.26e-05
2.55447e-05
3.16203e-05
3.53408e-05
3.54416e-05
3.24542e-05
2.96442e-05
2.87112e-05
2.95147e-05
2.96999e-05
3.12847e-05
3.06035e-05
2.87053e-05
2.8271e-05
3.05558e-05
3.19126e-05
3.1592e-05
3.17827e-05
3.13924e-05
3.19787e-05
3.31468e-05
3.14213e-05
3.40385e-05
3.4779e-05
3.48185e-05
3.29457e-05
3.34981e-05
3.6943e-05
3.45876e-05
2.9936e-05
2.75724e-05
2.49776e-05
2.61964e-05
2.74985e-05
2.85145e-05
3.12451e-05
3.27608e-05
3.10218e-05
2.6974e-05
2.4773e-05
2.29612e-05
2.57875e-05
3.25294e-05
3.63697e-05
3.66047e-05
3.35863e-05
3.06377e-05
2.95036e-05
3.04003e-05
3.04496e-05
3.18766e-05
3.11699e-05
2.91243e-05
2.8528e-05
3.1047e-05
3.25207e-05
3.21935e-05
3.18151e-05
3.12006e-05
3.20688e-05
3.27702e-05
3.14398e-05
3.42777e-05
3.51396e-05
3.52897e-05
3.35409e-05
3.39162e-05
3.72995e-05
3.48332e-05
3.01811e-05
2.79303e-05
2.53545e-05
2.67668e-05
2.80937e-05
2.89406e-05
3.17472e-05
3.33558e-05
3.15651e-05
2.75326e-05
2.47563e-05
2.31181e-05
2.60118e-05
3.34996e-05
3.73456e-05
3.75086e-05
3.44089e-05
3.12961e-05
2.99224e-05
3.10735e-05
3.08935e-05
3.22534e-05
3.16066e-05
2.94605e-05
2.84699e-05
3.10068e-05
3.27553e-05
3.23401e-05
3.17762e-05
3.09365e-05
3.15323e-05
3.17721e-05
3.06272e-05
3.38785e-05
3.48021e-05
3.49547e-05
3.36336e-05
3.3624e-05
3.68827e-05
3.42856e-05
2.94858e-05
2.75054e-05
2.5108e-05
2.67265e-05
2.85271e-05
2.92719e-05
3.19874e-05
3.38432e-05
3.16542e-05
2.77156e-05
2.4541e-05
2.28418e-05
2.6093e-05
3.38172e-05
3.77708e-05
3.77432e-05
3.45106e-05
3.1468e-05
2.99239e-05
3.12889e-05
3.11398e-05
3.22688e-05
3.16258e-05
2.9466e-05
2.79969e-05
3.04089e-05
3.23582e-05
3.19134e-05
3.1151e-05
3.0236e-05
3.04485e-05
3.07226e-05
2.96443e-05
3.32157e-05
3.40356e-05
3.39985e-05
3.29003e-05
3.20969e-05
3.49061e-05
3.27562e-05
2.81064e-05
2.63634e-05
2.45187e-05
2.62894e-05
2.88093e-05
2.94702e-05
3.20001e-05
3.41881e-05
3.14491e-05
2.7481e-05
2.39098e-05
2.2295e-05
2.55876e-05
3.32893e-05
3.72344e-05
3.72898e-05
3.3886e-05
3.10902e-05
2.94702e-05
3.10684e-05
3.10159e-05
3.19334e-05
3.12293e-05
2.91824e-05
2.79083e-05
3.01544e-05
3.1481e-05
3.0668e-05
2.95734e-05
2.89325e-05
2.90093e-05
2.9073e-05
2.80095e-05
3.18447e-05
3.28257e-05
3.25854e-05
3.15264e-05
3.00397e-05
3.20885e-05
3.05876e-05
2.60886e-05
2.45968e-05
2.31737e-05
2.54218e-05
2.86553e-05
2.92253e-05
3.16109e-05
3.37995e-05
3.08083e-05
2.66618e-05
2.2973e-05
2.15405e-05
2.47286e-05
3.21338e-05
3.64468e-05
3.66792e-05
3.3176e-05
3.04975e-05
2.8646e-05
3.03234e-05
3.03928e-05
3.06792e-05
2.96316e-05
2.78873e-05
2.72195e-05
2.88589e-05
2.94238e-05
2.86146e-05
2.74103e-05
2.72286e-05
2.71449e-05
2.71262e-05
2.61906e-05
2.96601e-05
3.05437e-05
2.99789e-05
2.8981e-05
2.76882e-05
2.93947e-05
2.82965e-05
2.4033e-05
2.2518e-05
2.1308e-05
2.35305e-05
2.70592e-05
2.78683e-05
3.00733e-05
3.26034e-05
2.99726e-05
2.53731e-05
2.18535e-05
2.07497e-05
2.3917e-05
3.07764e-05
3.53293e-05
3.56608e-05
3.19912e-05
2.95153e-05
2.75877e-05
2.85256e-05
2.81709e-05
2.80099e-05
2.71235e-05
2.59305e-05
2.5715e-05
2.67301e-05
2.71698e-05
2.6481e-05
2.44169e-05
2.42333e-05
2.4338e-05
2.4388e-05
2.35068e-05
2.61795e-05
2.72099e-05
2.68104e-05
2.59271e-05
2.50722e-05
2.6489e-05
2.55701e-05
2.16808e-05
2.00959e-05
1.85299e-05
2.02396e-05
2.31666e-05
2.47188e-05
2.69259e-05
2.98079e-05
2.7511e-05
2.30331e-05
2.04996e-05
1.98913e-05
2.30747e-05
2.92688e-05
3.31408e-05
3.30431e-05
2.92254e-05
2.70453e-05
2.52257e-05
2.5046e-05
2.43217e-05
2.38269e-05
2.33666e-05
2.27716e-05
2.29231e-05
2.39641e-05
2.47378e-05
2.40792e-05
2.04841e-05
2.01285e-05
2.04074e-05
2.05172e-05
1.96441e-05
2.16941e-05
2.28574e-05
2.27298e-05
2.2165e-05
2.18432e-05
2.29124e-05
2.19462e-05
1.84505e-05
1.69425e-05
1.54868e-05
1.65288e-05
1.88734e-05
2.08916e-05
2.31853e-05
2.54919e-05
2.31655e-05
1.9271e-05
1.80516e-05
1.80124e-05
2.12786e-05
2.68096e-05
2.98698e-05
2.9446e-05
2.58718e-05
2.36775e-05
2.20915e-05
2.12054e-05
2.05781e-05
2.01363e-05
1.97225e-05
1.92604e-05
1.95093e-05
2.04218e-05
2.12314e-05
2.06381e-05
1.58956e-05
1.56168e-05
1.61382e-05
1.63405e-05
1.56664e-05
1.711e-05
1.81329e-05
1.80749e-05
1.77754e-05
1.77111e-05
1.86008e-05
1.74805e-05
1.44897e-05
1.35759e-05
1.24498e-05
1.29097e-05
1.48249e-05
1.68516e-05
1.89023e-05
2.03237e-05
1.86086e-05
1.52162e-05
1.48468e-05
1.50667e-05
1.80917e-05
2.25739e-05
2.47636e-05
2.40359e-05
2.11674e-05
1.94116e-05
1.82496e-05
1.70882e-05
1.6419e-05
1.62103e-05
1.61492e-05
1.5645e-05
1.57236e-05
1.62816e-05
1.67726e-05
1.6277e-05
1.16562e-05
1.16836e-05
1.22878e-05
1.25315e-05
1.22708e-05
1.31798e-05
1.37781e-05
1.36222e-05
1.34177e-05
1.33831e-05
1.43696e-05
1.33542e-05
1.08906e-05
1.03763e-05
9.50352e-06
9.5711e-06
1.10057e-05
1.25173e-05
1.43695e-05
1.53759e-05
1.45079e-05
1.19539e-05
1.18828e-05
1.19122e-05
1.38023e-05
1.71206e-05
1.88399e-05
1.80288e-05
1.58568e-05
1.47494e-05
1.42833e-05
1.3199e-05
1.2601e-05
1.25433e-05
1.26984e-05
1.20144e-05
1.18663e-05
1.2334e-05
1.25944e-05
1.22057e-05
8.39081e-06
8.44038e-06
8.96856e-06
9.19138e-06
9.21498e-06
9.91129e-06
1.02035e-05
9.98987e-06
9.77112e-06
9.65516e-06
1.0713e-05
1.00114e-05
7.97317e-06
7.64697e-06
6.98071e-06
6.81388e-06
7.82635e-06
8.78157e-06
1.03815e-05
1.12381e-05
1.07995e-05
9.23237e-06
9.17503e-06
8.96918e-06
9.93171e-06
1.22582e-05
1.3693e-05
1.29086e-05
1.12284e-05
1.04401e-05
1.03324e-05
9.64985e-06
9.23039e-06
9.24851e-06
9.50765e-06
8.81023e-06
8.60932e-06
9.14699e-06
9.28916e-06
9.03373e-06
5.95236e-06
5.93095e-06
6.48039e-06
6.64461e-06
6.66586e-06
7.20536e-06
7.31583e-06
7.10014e-06
6.92327e-06
6.8003e-06
7.83228e-06
7.33303e-06
5.71382e-06
5.50952e-06
4.98541e-06
4.78416e-06
5.41925e-06
5.93132e-06
7.20206e-06
7.9605e-06
7.72177e-06
6.92012e-06
6.92713e-06
6.61831e-06
7.05321e-06
8.60317e-06
9.75176e-06
9.04043e-06
7.67703e-06
7.09197e-06
7.13403e-06
6.83745e-06
6.52382e-06
6.54131e-06
6.82877e-06
6.3116e-06
6.16912e-06
6.74155e-06
6.84698e-06
6.61346e-06
4.152e-06
4.01759e-06
4.53655e-06
4.66488e-06
4.69504e-06
5.13324e-06
5.08868e-06
4.86476e-06
4.73668e-06
4.64371e-06
5.59051e-06
5.27601e-06
4.02595e-06
3.83087e-06
3.44592e-06
3.30369e-06
3.6961e-06
3.92348e-06
4.89036e-06
5.51797e-06
5.27273e-06
4.9294e-06
5.03546e-06
4.73627e-06
4.96187e-06
6.02096e-06
6.9219e-06
6.30414e-06
5.20558e-06
4.76364e-06
4.78019e-06
4.73026e-06
4.53267e-06
4.50402e-06
4.73696e-06
4.42501e-06
4.38327e-06
4.86234e-06
4.96445e-06
4.76531e-06
2.83874e-06
2.61655e-06
3.07649e-06
3.22363e-06
3.25357e-06
3.52469e-06
3.41797e-06
3.30087e-06
3.22077e-06
3.14784e-06
3.92533e-06
3.75791e-06
2.81943e-06
2.63847e-06
2.34102e-06
2.2541e-06
2.55717e-06
2.63043e-06
3.30056e-06
3.82508e-06
3.55824e-06
3.37803e-06
3.49535e-06
3.30536e-06
3.42484e-06
4.12733e-06
4.8293e-06
4.37847e-06
3.51707e-06
3.19806e-06
3.16164e-06
3.20853e-06
3.10909e-06
3.07581e-06
3.21665e-06
2.99922e-06
2.9989e-06
3.40229e-06
3.50145e-06
3.33247e-06
1.94992e-06
1.68577e-06
2.04949e-06
2.20782e-06
2.26903e-06
2.41103e-06
2.25942e-06
2.21697e-06
2.1761e-06
2.09929e-06
2.70945e-06
2.60461e-06
1.93682e-06
1.81852e-06
1.56868e-06
1.51288e-06
1.78698e-06
1.78786e-06
2.21895e-06
2.59669e-06
2.3519e-06
2.2532e-06
2.36261e-06
2.27338e-06
2.32461e-06
2.76192e-06
3.32379e-06
3.06052e-06
2.43432e-06
2.19703e-06
2.09375e-06
2.14702e-06
2.11245e-06
2.10567e-06
2.21363e-06
2.01422e-06
2.02827e-06
2.3657e-06
2.45366e-06
2.31308e-06
1.33815e-06
1.07632e-06
1.33953e-06
1.48433e-06
1.57336e-06
1.63922e-06
1.46808e-06
1.50165e-06
1.495e-06
1.40521e-06
1.86407e-06
1.79431e-06
1.3171e-06
1.26784e-06
1.0643e-06
1.00509e-06
1.26541e-06
1.23441e-06
1.50712e-06
1.77852e-06
1.55168e-06
1.48117e-06
1.575e-06
1.55485e-06
1.58839e-06
1.82921e-06
2.24339e-06
2.13233e-06
1.71798e-06
1.55191e-06
1.40494e-06
1.42993e-06
1.41736e-06
1.42915e-06
1.52404e-06
1.34351e-06
1.36059e-06
1.62483e-06
1.69755e-06
1.59286e-06
9.33962e-07
6.96124e-07
8.82441e-07
9.87582e-07
1.10345e-06
1.13638e-06
9.44245e-07
1.02771e-06
1.0464e-06
9.485e-07
1.29043e-06
1.24304e-06
8.93009e-07
9.07519e-07
7.47308e-07
6.71438e-07
9.24334e-07
8.81327e-07
1.03917e-06
1.24672e-06
1.03818e-06
9.73818e-07
1.04885e-06
1.06159e-06
1.10586e-06
1.21155e-06
1.49123e-06
1.47945e-06
1.24476e-06
1.137e-06
9.56187e-07
9.48306e-07
9.50877e-07
9.62152e-07
1.04794e-06
8.89639e-07
9.07177e-07
1.10913e-06
1.16661e-06
1.10295e-06
6.62771e-07
4.62305e-07
5.95796e-07
6.45419e-07
7.67544e-07
8.12603e-07
6.07462e-07
7.21565e-07
7.62198e-07
6.487e-07
8.99694e-07
8.67181e-07
5.98169e-07
6.61673e-07
5.50521e-07
4.54388e-07
6.96805e-07
6.52345e-07
7.28211e-07
9.05837e-07
7.18943e-07
6.5082e-07
7.14011e-07
7.24399e-07
7.7965e-07
8.20381e-07
9.81358e-07
1.01173e-06
9.20689e-07
8.75944e-07
6.74718e-07
6.34896e-07
6.5533e-07
6.60583e-07
7.2907e-07
6.00909e-07
6.14144e-07
7.61745e-07
7.89826e-07
7.6579e-07
4.83226e-07
3.12946e-07
4.24794e-07
4.22401e-07
5.32141e-07
6.10237e-07
4.03667e-07
5.31226e-07
5.86078e-07
4.52227e-07
6.45892e-07
6.29072e-07
4.07464e-07
4.94977e-07
4.35416e-07
3.22314e-07
5.42611e-07
5.08997e-07
5.20018e-07
6.80439e-07
5.21429e-07
4.47494e-07
5.1018e-07
5.0297e-07
5.5697e-07
5.84567e-07
6.55755e-07
6.83543e-07
6.87683e-07
7.05361e-07
5.04492e-07
4.29809e-07
4.71448e-07
4.71597e-07
5.19363e-07
4.22414e-07
4.34203e-07
5.39138e-07
5.29972e-07
5.42409e-07
3.62057e-07
2.17699e-07
3.30397e-07
2.87744e-07
3.68763e-07
4.85805e-07
2.86702e-07
4.05846e-07
4.72401e-07
3.22212e-07
4.80924e-07
4.79394e-07
2.90905e-07
3.8218e-07
3.66801e-07
2.47988e-07
4.30887e-07
4.13985e-07
3.81844e-07
5.2983e-07
3.99558e-07
3.24625e-07
3.94587e-07
3.62247e-07
4.00819e-07
4.39602e-07
4.56246e-07
4.59216e-07
5.06166e-07
5.80028e-07
4.02841e-07
2.95483e-07
3.56471e-07
3.56861e-07
3.81267e-07
3.09657e-07
3.24379e-07
4.0099e-07
3.55447e-07
3.95774e-07
2.82728e-07
1.56271e-07
2.78667e-07
2.22354e-07
2.61146e-07
4.0647e-07
2.19806e-07
3.1741e-07
3.92461e-07
2.34918e-07
3.6991e-07
3.80618e-07
2.25835e-07
3.07159e-07
3.2242e-07
2.1307e-07
3.5075e-07
3.49789e-07
2.93742e-07
4.25919e-07
3.22269e-07
2.45296e-07
3.25296e-07
2.80873e-07
2.93754e-07
3.42003e-07
3.4052e-07
3.21549e-07
3.64256e-07
4.78417e-07
3.50633e-07
2.15089e-07
2.78281e-07
2.87322e-07
2.95473e-07
2.39993e-07
2.52768e-07
3.15277e-07
2.43114e-07
2.97171e-07
2.2851e-07
1.1983e-07
2.45859e-07
1.97788e-07
1.93687e-07
3.47409e-07
1.81304e-07
2.48125e-07
3.20343e-07
1.73851e-07
2.91479e-07
3.05924e-07
1.86983e-07
2.58322e-07
2.85199e-07
1.99439e-07
2.9258e-07
3.01967e-07
2.36703e-07
3.49316e-07
2.73e-07
1.93628e-07
2.77308e-07
2.36871e-07
2.29302e-07
2.72094e-07
2.72917e-07
2.55021e-07
2.61185e-07
3.84431e-07
3.25508e-07
1.78721e-07
2.21961e-07
2.43969e-07
2.46026e-07
2.01695e-07
2.04221e-07
2.59874e-07
1.75091e-07
2.22762e-07
1.83336e-07
1.03834e-07
2.14553e-07
1.82926e-07
1.5537e-07
2.85288e-07
1.57757e-07
1.92835e-07
2.48277e-07
1.34024e-07
2.33997e-07
2.44148e-07
1.61117e-07
2.23908e-07
2.50419e-07
1.94172e-07
2.48899e-07
2.637e-07
1.99122e-07
2.86944e-07
2.45115e-07
1.63843e-07
2.37234e-07
2.13888e-07
1.99173e-07
2.24316e-07
2.29501e-07
2.32425e-07
2.0439e-07
2.96524e-07
3.06143e-07
1.74961e-07
1.85498e-07
2.15295e-07
2.20344e-07
1.87156e-07
1.71164e-07
2.18703e-07
1.41981e-07
1.64319e-07
1.41775e-07
1.01185e-07
1.82095e-07
1.58249e-07
1.32158e-07
2.16655e-07
1.39611e-07
1.55987e-07
1.83297e-07
1.14783e-07
1.96959e-07
1.98104e-07
1.48927e-07
1.99394e-07
2.18747e-07
1.92887e-07
2.13923e-07
2.30347e-07
1.75499e-07
2.36244e-07
2.30329e-07
1.51722e-07
2.01288e-07
2.01436e-07
1.9022e-07
1.94501e-07
2.0291e-07
2.23693e-07
1.80808e-07
2.30084e-07
2.7809e-07
1.87126e-07
1.69793e-07
1.96147e-07
2.11717e-07
1.86245e-07
1.5107e-07
1.82678e-07
1.33382e-07
1.28007e-07
1.1086e-07
1.02264e-07
1.547e-07
1.27087e-07
1.16749e-07
1.58994e-07
1.24443e-07
1.41089e-07
1.3699e-07
1.15174e-07
1.82876e-07
1.67528e-07
1.53064e-07
1.83763e-07
1.86539e-07
1.91269e-07
1.89748e-07
1.98826e-07
1.60793e-07
1.98794e-07
2.22297e-07
1.48716e-07
1.71478e-07
1.97319e-07
1.88459e-07
1.75049e-07
1.86803e-07
2.12253e-07
1.69248e-07
1.89648e-07
2.41498e-07
1.97953e-07
1.67543e-07
1.81663e-07
2.10242e-07
1.85311e-07
1.39342e-07
1.52658e-07
1.3277e-07
1.15339e-07
9.50213e-08
1.01029e-07
1.29263e-07
1.04206e-07
1.12454e-07
1.27664e-07
1.24121e-07
1.46904e-07
1.17348e-07
1.2718e-07
1.79529e-07
1.48965e-07
1.59387e-07
1.73988e-07
1.54234e-07
1.76152e-07
1.83159e-07
1.8106e-07
1.50001e-07
1.79513e-07
2.23088e-07
1.50449e-07
1.52393e-07
2.07085e-07
1.86896e-07
1.60903e-07
1.80509e-07
1.9101e-07
1.59037e-07
1.6676e-07
2.03474e-07
2.00491e-07
1.62362e-07
1.65675e-07
2.019e-07
1.68037e-07
1.27152e-07
1.29673e-07
1.25627e-07
1.1367e-07
9.12457e-08
1.05676e-07
1.06776e-07
9.86515e-08
1.18992e-07
1.12061e-07
1.37223e-07
1.5834e-07
1.12102e-07
1.34437e-07
1.63833e-07
1.33281e-07
1.47301e-07
1.60843e-07
1.35111e-07
1.44246e-07
1.90321e-07
1.90273e-07
1.4469e-07
1.80627e-07
2.35367e-07
1.58389e-07
1.47608e-07
2.23381e-07
1.81375e-07
1.50978e-07
1.82627e-07
1.64956e-07
1.52667e-07
1.5263e-07
1.66273e-07
1.8825e-07
1.42726e-07
1.46677e-07
1.80862e-07
1.33965e-07
1.15242e-07
1.12313e-07
1.12737e-07
1.12502e-07
9.16051e-08
1.18329e-07
9.85236e-08
1.08985e-07
1.35886e-07
9.95546e-08
1.41277e-07
1.53144e-07
1.01407e-07
1.20781e-07
1.33425e-07
1.21001e-07
1.165e-07
1.48775e-07
1.37806e-07
1.07507e-07
1.88691e-07
2.01182e-07
1.29933e-07
1.72907e-07
2.29935e-07
1.54952e-07
1.41224e-07
2.11855e-07
1.55153e-07
1.43127e-07
1.81772e-07
1.43257e-07
1.58895e-07
1.50424e-07
1.43173e-07
1.71276e-07
1.21789e-07
1.40484e-07
1.55551e-07
1.11086e-07
1.27452e-07
1.06596e-07
1.08261e-07
1.15217e-07
2.69076e-05
2.69157e-05
2.63369e-05
3.3074e-05
2.65725e-05
2.60818e-05
2.58239e-05
2.74584e-05
2.99783e-05
3.01087e-05
2.79791e-05
2.56244e-05
2.42384e-05
2.45973e-05
2.29387e-05
2.28565e-05
2.34818e-05
2.32001e-05
2.46724e-05
2.73658e-05
2.96102e-05
3.00544e-05
2.78682e-05
2.62357e-05
2.48795e-05
2.55619e-05
2.46856e-05
2.32833e-05
2.15076e-05
2.03395e-05
2.2755e-05
2.48639e-05
2.74503e-05
2.97236e-05
2.99157e-05
2.89639e-05
2.44998e-05
2.16177e-05
2.22837e-05
2.31052e-05
2.70952e-05
2.71331e-05
2.64655e-05
3.3321e-05
2.67429e-05
2.62248e-05
2.5969e-05
2.76281e-05
3.01462e-05
3.02635e-05
2.8145e-05
2.57745e-05
2.43762e-05
2.47434e-05
2.30706e-05
2.29977e-05
2.36353e-05
2.33563e-05
2.48117e-05
2.74974e-05
2.98029e-05
3.02354e-05
2.80029e-05
2.63794e-05
2.49539e-05
2.57015e-05
2.48032e-05
2.33912e-05
2.15972e-05
2.04104e-05
2.28844e-05
2.49857e-05
2.7577e-05
2.98691e-05
3.00341e-05
2.91033e-05
2.46093e-05
2.17077e-05
2.24277e-05
2.32377e-05
2.75278e-05
2.76276e-05
2.6762e-05
3.37763e-05
2.7064e-05
2.65108e-05
2.62822e-05
2.79754e-05
3.05548e-05
3.06241e-05
2.85175e-05
2.61227e-05
2.46444e-05
2.50291e-05
2.33446e-05
2.32691e-05
2.39706e-05
2.37378e-05
2.52043e-05
2.78824e-05
3.01927e-05
3.06334e-05
2.83975e-05
2.68166e-05
2.51759e-05
2.60845e-05
2.51015e-05
2.36734e-05
2.18657e-05
2.0618e-05
2.32605e-05
2.52868e-05
2.787e-05
3.02382e-05
3.03557e-05
2.94377e-05
2.48786e-05
2.19224e-05
2.26941e-05
2.35692e-05
2.81008e-05
2.81328e-05
2.70654e-05
3.40584e-05
2.73823e-05
2.6852e-05
2.65731e-05
2.82627e-05
3.08961e-05
3.1007e-05
2.89092e-05
2.64672e-05
2.489e-05
2.52889e-05
2.3575e-05
2.35408e-05
2.43727e-05
2.42548e-05
2.57836e-05
2.83366e-05
3.07025e-05
3.11858e-05
2.8954e-05
2.73995e-05
2.54325e-05
2.64724e-05
2.54269e-05
2.40005e-05
2.22096e-05
2.08938e-05
2.37786e-05
2.57453e-05
2.82682e-05
3.0645e-05
3.06767e-05
2.97853e-05
2.51748e-05
2.21087e-05
2.29591e-05
2.39281e-05
2.83061e-05
2.82405e-05
2.71266e-05
3.3847e-05
2.75177e-05
2.70305e-05
2.66466e-05
2.81758e-05
3.09003e-05
3.10226e-05
2.89919e-05
2.65005e-05
2.47944e-05
2.52408e-05
2.35241e-05
2.34659e-05
2.45785e-05
2.46422e-05
2.63076e-05
2.85518e-05
3.12289e-05
3.16251e-05
2.93212e-05
2.78613e-05
2.56116e-05
2.6797e-05
2.55746e-05
2.4054e-05
2.24131e-05
2.10885e-05
2.41065e-05
2.61313e-05
2.84729e-05
3.07656e-05
3.07542e-05
2.9745e-05
2.49645e-05
2.18375e-05
2.29495e-05
2.38849e-05
2.83019e-05
2.78872e-05
2.67815e-05
3.2919e-05
2.75044e-05
2.68546e-05
2.63711e-05
2.80247e-05
3.07959e-05
3.07827e-05
2.86063e-05
2.60241e-05
2.42332e-05
2.47596e-05
2.28908e-05
2.29524e-05
2.43429e-05
2.46466e-05
2.63636e-05
2.82411e-05
3.15047e-05
3.16382e-05
2.95041e-05
2.82673e-05
2.57361e-05
2.7047e-05
2.58202e-05
2.43838e-05
2.25248e-05
2.09739e-05
2.42413e-05
2.63502e-05
2.84708e-05
3.05641e-05
3.05362e-05
2.94001e-05
2.46312e-05
2.16247e-05
2.28088e-05
2.36881e-05
2.75817e-05
2.68198e-05
2.61697e-05
3.20778e-05
2.77767e-05
2.67049e-05
2.62296e-05
2.8042e-05
3.08661e-05
3.0333e-05
2.76994e-05
2.49155e-05
2.3275e-05
2.3613e-05
2.1669e-05
2.19486e-05
2.39401e-05
2.45652e-05
2.61578e-05
2.75773e-05
3.07575e-05
3.0582e-05
2.90186e-05
2.81793e-05
2.58087e-05
2.72468e-05
2.5962e-05
2.43597e-05
2.24967e-05
2.0668e-05
2.38589e-05
2.59242e-05
2.803e-05
3.01176e-05
3.02694e-05
2.88849e-05
2.42651e-05
2.13075e-05
2.22543e-05
2.32055e-05
2.62493e-05
2.5365e-05
2.51327e-05
3.06068e-05
2.74187e-05
2.64997e-05
2.59423e-05
2.75325e-05
2.98745e-05
2.88735e-05
2.59343e-05
2.33949e-05
2.20563e-05
2.20785e-05
2.03056e-05
2.09703e-05
2.35569e-05
2.4183e-05
2.56887e-05
2.66364e-05
2.9006e-05
2.87034e-05
2.79094e-05
2.74673e-05
2.58948e-05
2.69536e-05
2.56661e-05
2.41548e-05
2.21472e-05
2.00554e-05
2.29669e-05
2.47287e-05
2.69008e-05
2.88822e-05
2.91542e-05
2.7652e-05
2.33568e-05
2.05458e-05
2.11652e-05
2.24197e-05
2.46091e-05
2.35798e-05
2.36977e-05
2.87512e-05
2.63489e-05
2.56051e-05
2.48527e-05
2.58401e-05
2.75e-05
2.62908e-05
2.34703e-05
2.16773e-05
2.0574e-05
2.02216e-05
1.86873e-05
1.95688e-05
2.23627e-05
2.29936e-05
2.46945e-05
2.57491e-05
2.70284e-05
2.6576e-05
2.61752e-05
2.59995e-05
2.51817e-05
2.57936e-05
2.45655e-05
2.29938e-05
2.09195e-05
1.85466e-05
2.09532e-05
2.28689e-05
2.50143e-05
2.66187e-05
2.70993e-05
2.55846e-05
2.16028e-05
1.92361e-05
1.97532e-05
2.13098e-05
2.25045e-05
2.11437e-05
2.12106e-05
2.52545e-05
2.3815e-05
2.33612e-05
2.24368e-05
2.28697e-05
2.40158e-05
2.29396e-05
2.06742e-05
1.97397e-05
1.88648e-05
1.81466e-05
1.67516e-05
1.75795e-05
2.02316e-05
2.08987e-05
2.28815e-05
2.46226e-05
2.48524e-05
2.40035e-05
2.36711e-05
2.38298e-05
2.35007e-05
2.38122e-05
2.27626e-05
2.10505e-05
1.89025e-05
1.64083e-05
1.80937e-05
2.02956e-05
2.24033e-05
2.37551e-05
2.44568e-05
2.28294e-05
1.92279e-05
1.71498e-05
1.77802e-05
1.96135e-05
1.97101e-05
1.81281e-05
1.80621e-05
2.10949e-05
2.04629e-05
2.0111e-05
1.92459e-05
1.94602e-05
2.03806e-05
1.95765e-05
1.7644e-05
1.71316e-05
1.66594e-05
1.59995e-05
1.47898e-05
1.53087e-05
1.75886e-05
1.81798e-05
2.01043e-05
2.23163e-05
2.23056e-05
2.11576e-05
2.06336e-05
2.11021e-05
2.10192e-05
2.13035e-05
2.04466e-05
1.87571e-05
1.67176e-05
1.40769e-05
1.5036e-05
1.71039e-05
1.90833e-05
2.03708e-05
2.13773e-05
1.98624e-05
1.67884e-05
1.48619e-05
1.52837e-05
1.72841e-05
1.64369e-05
1.51946e-05
1.50093e-05
1.73923e-05
1.73678e-05
1.68394e-05
1.60561e-05
1.6318e-05
1.71558e-05
1.6617e-05
1.50636e-05
1.45688e-05
1.43354e-05
1.39503e-05
1.30289e-05
1.30023e-05
1.46639e-05
1.48456e-05
1.62911e-05
1.86144e-05
1.89455e-05
1.79445e-05
1.71684e-05
1.77627e-05
1.80299e-05
1.8451e-05
1.81874e-05
1.65704e-05
1.46076e-05
1.18583e-05
1.22192e-05
1.38761e-05
1.5449e-05
1.65796e-05
1.78086e-05
1.70151e-05
1.4552e-05
1.26913e-05
1.25686e-05
1.44573e-05
1.32613e-05
1.24493e-05
1.20813e-05
1.40575e-05
1.45353e-05
1.37583e-05
1.2981e-05
1.30488e-05
1.37448e-05
1.35407e-05
1.26047e-05
1.20823e-05
1.18582e-05
1.16746e-05
1.08433e-05
1.04986e-05
1.17966e-05
1.16342e-05
1.25719e-05
1.45906e-05
1.5108e-05
1.44645e-05
1.37358e-05
1.41151e-05
1.44825e-05
1.50757e-05
1.53322e-05
1.37742e-05
1.16888e-05
9.25338e-06
9.61497e-06
1.09881e-05
1.22096e-05
1.2993e-05
1.40405e-05
1.38821e-05
1.21578e-05
1.05724e-05
1.01622e-05
1.17283e-05
1.01699e-05
9.5816e-06
9.31829e-06
1.08717e-05
1.16002e-05
1.07608e-05
9.93955e-06
9.92297e-06
1.04684e-05
1.04831e-05
1.01692e-05
9.72131e-06
9.60057e-06
9.47483e-06
8.52019e-06
7.99009e-06
8.92913e-06
8.69418e-06
9.39579e-06
1.10069e-05
1.14049e-05
1.10004e-05
1.04666e-05
1.07263e-05
1.11192e-05
1.18679e-05
1.23409e-05
1.09657e-05
8.92886e-06
7.04748e-06
7.37635e-06
8.44376e-06
9.23657e-06
9.61323e-06
1.05205e-05
1.06568e-05
9.63442e-06
8.41148e-06
7.99768e-06
9.17355e-06
7.55357e-06
7.00523e-06
6.89053e-06
7.9786e-06
8.69523e-06
8.02181e-06
7.38342e-06
7.45443e-06
7.86662e-06
7.84213e-06
7.84191e-06
7.64605e-06
7.62708e-06
7.61767e-06
6.69191e-06
6.02199e-06
6.63448e-06
6.37941e-06
6.89962e-06
8.26085e-06
8.534e-06
8.31166e-06
7.90296e-06
7.99538e-06
8.42885e-06
9.26435e-06
9.80995e-06
8.74552e-06
6.78638e-06
5.30762e-06
5.56815e-06
6.44542e-06
6.91866e-06
7.05229e-06
7.80641e-06
8.02375e-06
7.4266e-06
6.4045e-06
5.99604e-06
6.9526e-06
5.54742e-06
5.00373e-06
4.89706e-06
5.62336e-06
6.25311e-06
5.79548e-06
5.32443e-06
5.52016e-06
5.81816e-06
5.77487e-06
5.94532e-06
5.84896e-06
5.77104e-06
5.82576e-06
5.06912e-06
4.53322e-06
4.99106e-06
4.72412e-06
5.01214e-06
6.06392e-06
6.31509e-06
6.21781e-06
5.88395e-06
5.80988e-06
6.18552e-06
6.94641e-06
7.63519e-06
6.8728e-06
5.20157e-06
4.00872e-06
4.10576e-06
4.87306e-06
5.18618e-06
5.20673e-06
5.7969e-06
5.99258e-06
5.66946e-06
4.84239e-06
4.36763e-06
5.21356e-06
3.9655e-06
3.44594e-06
3.39767e-06
3.79355e-06
4.29007e-06
4.0519e-06
3.71915e-06
3.97783e-06
4.18735e-06
4.12044e-06
4.3766e-06
4.35819e-06
4.25977e-06
4.27857e-06
3.65602e-06
3.29038e-06
3.71932e-06
3.47812e-06
3.54455e-06
4.2671e-06
4.45067e-06
4.43432e-06
4.24328e-06
4.12817e-06
4.38906e-06
5.00916e-06
5.71936e-06
5.25198e-06
3.97645e-06
3.0352e-06
2.93802e-06
3.52239e-06
3.79308e-06
3.80586e-06
4.26095e-06
4.3378e-06
4.194e-06
3.59002e-06
3.12545e-06
3.81727e-06
2.74731e-06
2.27944e-06
2.35304e-06
2.58527e-06
2.94187e-06
2.86574e-06
2.57383e-06
2.82435e-06
2.96272e-06
2.86053e-06
3.15336e-06
3.16328e-06
3.10148e-06
3.1531e-06
2.62708e-06
2.35337e-06
2.69342e-06
2.472e-06
2.45095e-06
2.96191e-06
3.05024e-06
3.0717e-06
3.00138e-06
2.88786e-06
3.02694e-06
3.45049e-06
4.05634e-06
3.82028e-06
2.93397e-06
2.25568e-06
2.02963e-06
2.40309e-06
2.62659e-06
2.66916e-06
3.02032e-06
2.95363e-06
2.87237e-06
2.50011e-06
2.17405e-06
2.72592e-06
1.88717e-06
1.4639e-06
1.59691e-06
1.74498e-06
1.97974e-06
1.98349e-06
1.75245e-06
1.9795e-06
2.07095e-06
1.94584e-06
2.23418e-06
2.26028e-06
2.20392e-06
2.27722e-06
1.8428e-06
1.62736e-06
1.90735e-06
1.70411e-06
1.68132e-06
2.07012e-06
2.06713e-06
2.08249e-06
2.09752e-06
2.00273e-06
2.05175e-06
2.31352e-06
2.78129e-06
2.71044e-06
2.13306e-06
1.67525e-06
1.4205e-06
1.62094e-06
1.76209e-06
1.81712e-06
2.07977e-06
1.93603e-06
1.87143e-06
1.6894e-06
1.48406e-06
1.91773e-06
1.32156e-06
9.46378e-07
1.07848e-06
1.1829e-06
1.3317e-06
1.36129e-06
1.17712e-06
1.3795e-06
1.4397e-06
1.31623e-06
1.58774e-06
1.60915e-06
1.52655e-06
1.63423e-06
1.2874e-06
1.10774e-06
1.35038e-06
1.17026e-06
1.15311e-06
1.46854e-06
1.41411e-06
1.39776e-06
1.46077e-06
1.38472e-06
1.38519e-06
1.5249e-06
1.84965e-06
1.89222e-06
1.55272e-06
1.27252e-06
1.03338e-06
1.11619e-06
1.18023e-06
1.23504e-06
1.44389e-06
1.28948e-06
1.23515e-06
1.16451e-06
1.01837e-06
1.35061e-06
9.38368e-07
6.22869e-07
7.31855e-07
8.04305e-07
9.04288e-07
9.49454e-07
7.88614e-07
9.66874e-07
1.00959e-06
8.89018e-07
1.14726e-06
1.15785e-06
1.045e-06
1.16803e-06
9.05415e-07
7.54097e-07
9.82277e-07
8.3003e-07
7.93552e-07
1.05538e-06
9.79275e-07
9.43287e-07
1.03079e-06
9.76912e-07
9.63789e-07
1.02575e-06
1.21224e-06
1.30293e-06
1.13752e-06
9.78608e-07
7.67536e-07
7.85441e-07
8.01793e-07
8.42659e-07
1.00841e-06
8.78553e-07
8.34533e-07
8.2708e-07
7.03924e-07
9.49064e-07
6.84111e-07
4.28716e-07
5.16406e-07
5.44945e-07
6.12032e-07
6.88004e-07
5.32554e-07
6.92237e-07
7.28549e-07
6.11141e-07
8.52917e-07
8.47973e-07
7.04295e-07
8.35992e-07
6.55789e-07
5.14711e-07
7.31565e-07
6.17422e-07
5.56514e-07
7.79179e-07
6.97007e-07
6.51134e-07
7.4439e-07
7.01773e-07
6.85373e-07
7.22632e-07
8.03725e-07
8.91609e-07
8.46076e-07
7.70231e-07
5.85108e-07
5.66178e-07
5.65366e-07
5.90299e-07
7.16701e-07
6.18704e-07
5.81637e-07
6.02628e-07
4.88703e-07
6.73629e-07
5.0968e-07
3.05393e-07
3.88698e-07
3.75762e-07
4.21578e-07
5.27062e-07
3.68762e-07
5.16309e-07
5.55222e-07
4.28143e-07
6.53495e-07
6.45801e-07
4.76181e-07
6.04951e-07
5.0362e-07
3.65011e-07
5.61818e-07
4.87483e-07
4.02988e-07
5.91181e-07
5.17301e-07
4.63464e-07
5.57652e-07
5.13234e-07
4.99734e-07
5.43009e-07
5.54911e-07
6.05013e-07
6.348e-07
6.26376e-07
4.6145e-07
4.15763e-07
4.18491e-07
4.28184e-07
5.21339e-07
4.51412e-07
4.2488e-07
4.59461e-07
3.47466e-07
4.85995e-07
3.86925e-07
2.20731e-07
3.17822e-07
2.72945e-07
2.94255e-07
4.32493e-07
2.69284e-07
3.97915e-07
4.50992e-07
3.07228e-07
5.11155e-07
5.14005e-07
3.34888e-07
4.46137e-07
4.07887e-07
2.78095e-07
4.41301e-07
4.07399e-07
3.10291e-07
4.62075e-07
4.02767e-07
3.4266e-07
4.36472e-07
3.8451e-07
3.68677e-07
4.26927e-07
4.09544e-07
4.13554e-07
4.72555e-07
5.23238e-07
3.83955e-07
3.10458e-07
3.23786e-07
3.25296e-07
3.89536e-07
3.39124e-07
3.23596e-07
3.65679e-07
2.50585e-07
3.54742e-07
3.02053e-07
1.64084e-07
2.75512e-07
2.20695e-07
2.16292e-07
3.77172e-07
2.09876e-07
3.14128e-07
3.83543e-07
2.26411e-07
3.99329e-07
4.18988e-07
2.53399e-07
3.40252e-07
3.43905e-07
2.33253e-07
3.56389e-07
3.49704e-07
2.51806e-07
3.70317e-07
3.25346e-07
2.6214e-07
3.5411e-07
2.98744e-07
2.7711e-07
3.43011e-07
3.24703e-07
2.97301e-07
3.44604e-07
4.37252e-07
3.42008e-07
2.39582e-07
2.56769e-07
2.58557e-07
3.02488e-07
2.62489e-07
2.5245e-07
3.01451e-07
1.8635e-07
2.62553e-07
2.42178e-07
1.29539e-07
2.44608e-07
1.99221e-07
1.73985e-07
3.33377e-07
1.74925e-07
2.48882e-07
3.23961e-07
1.70917e-07
3.09889e-07
3.39616e-07
2.06404e-07
2.73262e-07
2.95802e-07
2.10911e-07
2.96509e-07
3.04417e-07
2.13324e-07
3.03996e-07
2.73077e-07
2.07237e-07
2.92641e-07
2.45649e-07
2.18132e-07
2.76691e-07
2.72904e-07
2.42431e-07
2.52985e-07
3.55879e-07
3.21536e-07
2.02208e-07
2.08482e-07
2.13013e-07
2.44864e-07
2.15286e-07
1.99514e-07
2.51984e-07
1.47138e-07
1.95254e-07
1.90607e-07
1.12435e-07
2.13441e-07
1.82533e-07
1.52648e-07
2.83615e-07
1.52316e-07
1.97452e-07
2.60829e-07
1.3363e-07
2.41365e-07
2.69298e-07
1.76345e-07
2.29508e-07
2.54205e-07
1.99575e-07
2.50146e-07
2.65015e-07
1.8699e-07
2.56286e-07
2.43369e-07
1.71374e-07
2.41128e-07
2.15324e-07
1.88584e-07
2.26894e-07
2.36209e-07
2.26719e-07
2.01678e-07
2.82156e-07
3.01897e-07
1.90793e-07
1.78844e-07
1.83381e-07
2.09387e-07
1.93601e-07
1.63853e-07
2.09329e-07
1.2835e-07
1.44203e-07
1.43006e-07
1.0772e-07
1.82584e-07
1.5523e-07
1.38337e-07
2.23671e-07
1.32877e-07
1.62294e-07
1.97098e-07
1.12667e-07
1.96853e-07
2.13599e-07
1.6041e-07
1.98822e-07
2.18108e-07
1.96672e-07
2.13686e-07
2.28126e-07
1.69082e-07
2.18473e-07
2.27268e-07
1.53541e-07
1.98773e-07
2.00088e-07
1.81539e-07
1.92733e-07
2.11255e-07
2.26675e-07
1.7937e-07
2.25682e-07
2.73105e-07
1.91753e-07
1.6604e-07
1.68182e-07
1.92842e-07
1.89573e-07
1.45889e-07
1.7052e-07
1.26577e-07
1.15023e-07
1.07605e-07
1.07844e-07
1.57532e-07
1.21139e-07
1.26177e-07
1.69143e-07
1.15562e-07
1.45544e-07
1.44733e-07
1.07567e-07
1.78275e-07
1.74767e-07
1.61035e-07
1.79674e-07
1.83308e-07
1.96042e-07
1.89855e-07
1.94169e-07
1.56337e-07
1.90608e-07
2.19161e-07
1.47895e-07
1.6764e-07
1.95857e-07
1.85984e-07
1.72816e-07
1.93887e-07
2.24047e-07
1.70058e-07
1.87949e-07
2.39796e-07
1.93382e-07
1.6211e-07
1.62457e-07
1.86605e-07
1.84847e-07
1.37948e-07
1.40274e-07
1.29532e-07
1.10381e-07
9.15099e-08
1.07083e-07
1.35236e-07
9.69733e-08
1.20133e-07
1.35118e-07
1.14085e-07
1.4881e-07
1.16874e-07
1.17313e-07
1.74927e-07
1.50229e-07
1.64883e-07
1.69946e-07
1.50486e-07
1.81285e-07
1.8559e-07
1.78529e-07
1.48349e-07
1.79612e-07
2.21606e-07
1.4994e-07
1.51088e-07
2.04577e-07
1.8837e-07
1.60815e-07