/*--------------------------------*- C++ -*----------------------------------*\
  =========                 |
  \\      /  F ield         | OpenFOAM: The Open Source CFD Toolbox
   \\    /   O peration     | Website:  https://openfoam.org
    \\  /    A nd           | Version:  10
     \\/     M anipulation  |
\*---------------------------------------------------------------------------*/
FoamFile
{
    format      ascii;
    class       volVectorField;
    location    "20";
    object      UMean;
}
// * * * * * * * * * * * * * * * * * * * * * * * * * * * * * * * * * * * * * //

dimensions      [0 1 -1 0 0 0 0];

internalField   nonuniform List<vector> 
25600
(
(0.00624144 4.84498e-06 -0.000223643)
(0.00643208 1.75193e-06 0.000314756)
(0.00648795 -1.51032e-06 0.000416363)
(0.00653127 -4.15416e-06 -6.53818e-05)
(0.00648911 -1.73004e-06 -0.0003645)
(0.00622535 5.34413e-06 -0.0002411)
(0.00648883 2.78544e-06 0.000259355)
(0.00641542 -3.95938e-07 0.000419446)
(0.00666299 -4.5849e-06 -8.43868e-05)
(0.00633089 -1.14139e-06 -0.000523261)
(0.00636723 4.32649e-06 -0.000276898)
(0.00639787 1.64409e-06 0.000320882)
(0.00654349 -2.6213e-06 0.000372057)
(0.00654418 -4.95886e-06 -4.38609e-05)
(0.00642001 -1.73389e-06 -0.000438138)
(0.00621608 4.41567e-06 -0.000256613)
(0.00646035 2.01875e-06 0.000323385)
(0.00644702 -9.41982e-07 0.000433814)
(0.0066293 -5.40504e-06 -4.85781e-05)
(0.0063898 -1.71005e-06 -0.000366533)
(0.00623236 5.41483e-06 -0.000233752)
(0.00629603 3.10431e-06 0.000404246)
(0.00644358 -1.43458e-06 0.000432339)
(0.00648659 -5.89167e-06 1.88518e-05)
(0.00640136 -1.74671e-06 -0.000396234)
(0.00615928 6.10026e-06 -0.000189843)
(0.00637883 2.66135e-06 0.00026896)
(0.00637631 -7.88303e-07 0.000424996)
(0.00644338 -2.99898e-06 -8.48745e-05)
(0.00633267 -3.22565e-07 -0.000453604)
(0.0061179 7.15222e-06 -0.000270503)
(0.00638834 3.43448e-06 0.00028747)
(0.00636864 -4.50087e-08 0.00034574)
(0.00651924 -4.33047e-06 -2.89181e-05)
(0.0063296 -8.48356e-07 -0.000507266)
(0.00629935 4.48169e-06 -0.000241813)
(0.00645387 9.79069e-07 0.000242807)
(0.00642485 -5.424e-07 0.000386915)
(0.00656626 -4.09507e-06 -0.000124307)
(0.00631914 -5.35087e-07 -0.00041464)
(0.0190564 2.55805e-05 -0.0008829)
(0.0197062 9.56253e-06 0.000738553)
(0.0198825 -1.09004e-05 0.00124842)
(0.0199848 -1.88909e-05 -9.88087e-05)
(0.0198004 9.12372e-07 -0.00114759)
(0.0189931 4.22593e-05 -0.000911085)
(0.0198773 2.00333e-05 0.0006138)
(0.0196539 -3.09116e-06 0.00127098)
(0.0203859 -2.50872e-05 -0.00014145)
(0.0193201 6.53242e-06 -0.00161581)
(0.0194491 1.65207e-05 -0.000996719)
(0.0196047 1.23024e-05 0.000789452)
(0.0200446 -1.92616e-05 0.00111027)
(0.020011 -1.52548e-05 -3.22145e-05)
(0.0195869 -1.19294e-06 -0.00137289)
(0.0189751 2.67119e-05 -0.000965379)
(0.0197776 6.00075e-06 0.000771871)
(0.0197471 -3.00003e-06 0.00128673)
(0.0202826 -2.44819e-05 -6.83519e-05)
(0.0194881 9.50108e-06 -0.00117479)
(0.0190185 3.86846e-05 -0.000899643)
(0.0192939 2.35269e-05 0.00101158)
(0.0197501 -7.6178e-06 0.0012914)
(0.0198523 -2.68771e-05 0.000153909)
(0.0195085 1.13912e-05 -0.00126177)
(0.0187887 5.1211e-05 -0.000792505)
(0.0195283 2.21049e-05 0.00061814)
(0.0195452 3.63455e-06 0.0012868)
(0.0197132 1.15183e-06 -0.00017257)
(0.0193061 1.71079e-05 -0.00143684)
(0.0186638 5.17625e-05 -0.00103548)
(0.0195766 2.06869e-05 0.000681992)
(0.0195295 3.22613e-06 0.00102722)
(0.019955 -2.05911e-05 1.13411e-05)
(0.0193125 4.20466e-06 -0.00156602)
(0.0192317 2.07629e-05 -0.000899647)
(0.019764 1.32809e-05 0.000549512)
(0.0196778 -3.35656e-06 0.00118458)
(0.0200871 -1.32339e-05 -0.000286839)
(0.0192862 1.13881e-05 -0.00133499)
(0.0323344 6.13037e-05 -0.00176714)
(0.0335464 1.78273e-05 0.000933947)
(0.0338439 -1.13781e-05 0.00204196)
(0.0339569 -8.29861e-06 -2.46844e-05)
(0.0335851 3.32816e-05 -0.00198436)
(0.0322142 0.000113107 -0.00178153)
(0.0338258 4.7697e-05 0.000763218)
(0.0334365 8.83586e-06 0.00210027)
(0.0346506 -2.92166e-05 -0.000101209)
(0.0327761 4.86805e-05 -0.00276231)
(0.0330315 3.10452e-05 -0.00188518)
(0.0333682 3.25309e-05 0.00103091)
(0.0341109 -3.24297e-05 0.00179931)
(0.0339967 2.7304e-06 7.52253e-05)
(0.0332222 2.55155e-05 -0.00237555)
(0.0322016 6.79029e-05 -0.00187093)
(0.0336478 5.37087e-06 0.000987892)
(0.0336019 9.05105e-06 0.00208902)
(0.0344658 -2.65121e-05 -1.57727e-05)
(0.0330508 6.22911e-05 -0.0020662)
(0.0322768 9.97609e-05 -0.00176458)
(0.0328292 5.75567e-05 0.00135375)
(0.03363 -2.38108e-06 0.00210625)
(0.0337229 -2.72609e-05 0.000375911)
(0.0330698 7.32219e-05 -0.00220944)
(0.0318487 0.00013545 -0.00163001)
(0.0332375 5.35604e-05 0.000757345)
(0.0332212 3.08107e-05 0.00213056)
(0.0335032 4.72736e-05 -0.000213493)
(0.0327304 7.87091e-05 -0.00250014)
(0.0316606 0.000128347 -0.00203843)
(0.0333214 4.67127e-05 0.000853545)
(0.0332235 2.48165e-05 0.00165766)
(0.0339122 -1.99206e-05 0.000141744)
(0.0327409 4.32052e-05 -0.00266414)
(0.0326442 4.68617e-05 -0.00173198)
(0.0336094 3.65927e-05 0.00062005)
(0.0334564 7.4088e-06 0.00197046)
(0.0341529 2.63104e-06 -0.000390683)
(0.0327164 6.21337e-05 -0.00234888)
(0.0456824 0.000106177 -0.00279736)
(0.0474724 2.58029e-05 0.000725284)
(0.0478922 2.02109e-05 0.00265222)
(0.0479974 6.09486e-05 0.00017613)
(0.0473991 0.000119809 -0.00277208)
(0.0454494 0.000219291 -0.00281455)
(0.0479358 8.00347e-05 0.000626436)
(0.0472991 5.3201e-05 0.00276231)
(0.0490031 1.53739e-05 7.21931e-05)
(0.0462477 0.000148009 -0.00378072)
(0.0466493 3.99442e-05 -0.00291169)
(0.047223 6.71168e-05 0.000862878)
(0.0482417 -1.98948e-05 0.00228713)
(0.0480249 9.92318e-05 0.00032423)
(0.0468653 0.000103827 -0.00331381)
(0.045466 0.000123619 -0.0029227)
(0.0475687 7.43235e-06 0.00080499)
(0.0475068 5.19914e-05 0.0026858)
(0.0486667 1.8573e-05 0.000183696)
(0.046587 0.000178664 -0.00286228)
(0.0454681 0.000180416 -0.0028358)
(0.0465048 0.000110136 0.00131925)
(0.047535 3.40566e-05 0.00274355)
(0.047685 4.56548e-05 0.000624617)
(0.0465712 0.000213377 -0.00304804)
(0.0449484 0.00024654 -0.00262435)
(0.0469387 9.4288e-05 0.000444004)
(0.0471103 9.71022e-05 0.00279412)
(0.0473962 0.000176391 -0.00012761)
(0.0461564 0.000217884 -0.00346484)
(0.044599 0.000223586 -0.00324279)
(0.0471437 6.4484e-05 0.000638809)
(0.0470828 8.07367e-05 0.00209482)
(0.047961 3.29713e-05 0.000352997)
(0.0462552 0.000139626 -0.00367485)
(0.0460535 7.17907e-05 -0.00275019)
(0.0475747 7.31863e-05 0.000387762)
(0.0473748 5.30639e-05 0.00259144)
(0.0482579 8.74793e-05 -0.000285592)
(0.0461917 0.000177143 -0.00332763)
(0.0587594 0.00015578 -0.00381894)
(0.0611669 2.91002e-05 0.000205315)
(0.0616367 0.000108919 0.00293215)
(0.0618008 0.000220364 0.000359623)
(0.0608817 0.000297003 -0.00341444)
(0.0584222 0.000347959 -0.00380082)
(0.0617926 0.00013753 0.000150235)
(0.060926 0.000162245 0.00303416)
(0.062995 0.000160267 0.000431206)
(0.0594789 0.000347303 -0.00444208)
(0.0597833 3.72097e-05 -0.00398091)
(0.0607067 0.000115987 0.000234496)
(0.0620139 4.7621e-05 0.00240171)
(0.061724 0.000320846 0.000659744)
(0.0602275 0.000269956 -0.00406612)
(0.0583821 0.000201 -0.00395682)
(0.0613523 5.56995e-06 0.000446546)
(0.0611312 0.000155857 0.00292311)
(0.0624098 0.00016841 0.000521106)
(0.0598462 0.000408775 -0.00350004)
(0.0583645 0.000286898 -0.00382252)
(0.0599407 0.000184959 0.000805688)
(0.0611924 0.00013311 0.00299229)
(0.0612436 0.000231639 0.000970034)
(0.0597973 0.000489319 -0.00363536)
(0.0575951 0.00039459 -0.00374618)
(0.0603957 0.000149778 -9.43397e-05)
(0.0606224 0.000226438 0.00311465)
(0.060959 0.000414058 0.000155057)
(0.0593418 0.000459339 -0.00420634)
(0.0574784 0.00035364 -0.00425095)
(0.0606181 8.63596e-05 1.86454e-05)
(0.0607261 0.000191204 0.00216233)
(0.0615928 0.000180241 0.000804759)
(0.0595482 0.000318775 -0.00428723)
(0.0590037 0.000119344 -0.00381683)
(0.0611269 0.000119837 -0.000258245)
(0.0609829 0.000158931 0.00286734)
(0.062097 0.000266707 -0.000126185)
(0.0594582 0.000388153 -0.00403878)
(0.0710714 0.00023793 -0.00453371)
(0.0739688 4.05725e-05 -0.000422589)
(0.074814 0.000281203 0.00269949)
(0.0748965 0.00047552 0.000616787)
(0.0735333 0.000608325 -0.00357023)
(0.0709632 0.000487636 -0.00420978)
(0.074884 0.000188949 -0.000648393)
(0.0739744 0.000324037 0.00280504)
(0.0764692 0.000430351 0.000510013)
(0.0723115 0.000690041 -0.00444494)
(0.0723453 2.56376e-05 -0.00439959)
(0.0735417 0.000193956 -0.0004687)
(0.0749697 0.000195383 0.00212754)
(0.0749188 0.000670103 0.000754521)
(0.0727839 0.00055059 -0.00426714)
(0.0709699 0.000321402 -0.00421972)
(0.0738465 2.18974e-05 -0.00054275)
(0.0738886 0.000338057 0.00252411)
(0.0752232 0.000459935 0.000837046)
(0.0724209 0.000749163 -0.00364513)
(0.0707969 0.000435281 -0.00416515)
(0.0729329 0.000262822 6.14044e-05)
(0.0739558 0.000302232 0.00280219)
(0.0742556 0.00057973 0.000835294)
(0.072444 0.000918345 -0.00372964)
(0.0697291 0.000542115 -0.00442222)
(0.0730968 0.00022594 -0.000621796)
(0.0735321 0.000450737 0.0029995)
(0.0738796 0.000749393 0.000320979)
(0.0722265 0.000787251 -0.00431722)
(0.0694778 0.000497661 -0.00506164)
(0.0734364 6.11745e-05 -0.000507248)
(0.0736922 0.000369621 0.00195221)
(0.0747965 0.000423592 0.000885998)
(0.0724731 0.000598717 -0.00424071)
(0.0713015 0.000167925 -0.00442657)
(0.0740216 0.000248808 -0.000806721)
(0.0738832 0.000339113 0.00272253)
(0.0752891 0.000539498 -0.000126387)
(0.0724236 0.000689613 -0.00418275)
(0.0834392 0.00037316 -0.00396979)
(0.0851719 8.5706e-05 -0.00139939)
(0.0864255 0.000484291 0.00184769)
(0.0868923 0.000843054 0.000113137)
(0.0861633 0.00103072 -0.0035542)
(0.0829001 0.000682317 -0.00406877)
(0.0867479 0.000201621 -0.00101653)
(0.0857042 0.000521346 0.00200304)
(0.088634 0.000727143 0.000547875)
(0.084966 0.00114806 -0.00353221)
(0.0837364 0.000108974 -0.00409695)
(0.0851601 0.000279579 -0.000627189)
(0.086917 0.000389169 0.00154028)
(0.0874176 0.00110252 0.000831429)
(0.0850546 0.000992616 -0.00354298)
(0.0829968 0.000484402 -0.00347147)
(0.0853063 0.000140511 -0.00111564)
(0.0853544 0.000573468 0.00191988)
(0.0871788 0.0008521 0.000330985)
(0.0849893 0.00117057 -0.00344126)
(0.0823027 0.00061726 -0.00395681)
(0.0849088 0.000307579 -0.000439113)
(0.085561 0.000502955 0.00213979)
(0.0863538 0.00102938 0.00070398)
(0.0848503 0.00148705 -0.00349704)
(0.0816045 0.000695378 -0.00401373)
(0.0844422 0.000344162 -0.000966874)
(0.0850817 0.00070674 0.00234868)
(0.0861623 0.0011231 0.000143434)
(0.0844642 0.00122666 -0.00369792)
(0.0813031 0.000651111 -0.00445822)
(0.0842775 1.73119e-05 -0.00124982)
(0.0850794 0.000553873 0.00135437)
(0.0870448 0.0006946 0.000375701)
(0.0849667 0.00106088 -0.00349032)
(0.0823597 0.000236335 -0.00426251)
(0.0859041 0.000382286 -0.00090067)
(0.0857724 0.000546971 0.00206159)
(0.0875505 0.00090835 -0.000120613)
(0.0849839 0.00106336 -0.0039734)
(0.095048 0.000635346 -0.00304981)
(0.0953242 0.000254206 -0.00123183)
(0.0966041 0.000633907 0.00109415)
(0.0977173 0.00119224 -0.000432841)
(0.0979718 0.00148315 -0.00292054)
(0.0944491 0.000994798 -0.00317825)
(0.0968771 0.000332213 -0.000840222)
(0.0960402 0.000759993 0.00116253)
(0.099209 0.000937262 0.000272309)
(0.0971297 0.00160282 -0.00262575)
(0.095208 0.000435563 -0.00310723)
(0.0958661 0.000452128 -0.000254931)
(0.0970169 0.000609971 0.000937583)
(0.0983818 0.00143535 0.000828679)
(0.0974492 0.00148426 -0.00290284)
(0.0946905 0.000797424 -0.0025454)
(0.0957863 0.000411203 -0.00090877)
(0.0957143 0.000795049 0.00151877)
(0.0981119 0.00119348 -0.00034511)
(0.0969348 0.00168576 -0.00275284)
(0.0935325 0.000884071 -0.00309493)
(0.0953113 0.000393145 -0.000495405)
(0.0954274 0.000706175 0.00147506)
(0.097323 0.00138508 7.75451e-05)
(0.0965153 0.00207575 -0.00273975)
(0.0932215 0.00103092 -0.00284638)
(0.0946201 0.000587393 -0.000563619)
(0.0950738 0.000919338 0.00148574)
(0.0969205 0.00139001 -3.89668e-05)
(0.0960955 0.00170786 -0.00275869)
(0.0927791 0.000960866 -0.00338528)
(0.0944715 0.000150931 -0.000857348)
(0.0952274 0.000707639 0.000885063)
(0.0977427 0.000905752 -1.90253e-05)
(0.0965446 0.00158852 -0.00258324)
(0.0940089 0.000509304 -0.00296749)
(0.0961602 0.000479255 -0.00066279)
(0.0961136 0.000690695 0.00117882)
(0.0986585 0.00121548 -0.000238802)
(0.096868 0.00148159 -0.00327746)
(0.106114 0.00104127 -0.00207037)
(0.104968 0.000580365 -0.000721196)
(0.105949 0.000773342 0.000891483)
(0.106696 0.00134287 -0.000539319)
(0.108546 0.00179892 -0.00199204)
(0.105402 0.00137936 -0.00217342)
(0.106302 0.000580068 -0.00011917)
(0.105788 0.000959329 0.00114959)
(0.108031 0.000999263 -0.000193138)
(0.108072 0.00192986 -0.00167994)
(0.106055 0.000886801 -0.00219542)
(0.105928 0.000735853 0.000384682)
(0.10655 0.000839378 0.00107838)
(0.107791 0.00157141 0.000444882)
(0.108514 0.00190711 -0.00172324)
(0.105297 0.00122109 -0.00183409)
(0.105721 0.000805147 2.81908e-05)
(0.105416 0.00100821 0.00154128)
(0.107075 0.0013649 -0.000149847)
(0.107553 0.0020912 -0.00177376)
(0.104655 0.00124638 -0.00181065)
(0.104927 0.000670753 -9.35829e-05)
(0.104619 0.000915477 0.00133837)
(0.106454 0.00152468 -0.000183968)
(0.107112 0.00248378 -0.00180446)
(0.10447 0.00144875 -0.00167822)
(0.10418 0.000937844 9.27954e-05)
(0.104711 0.00108238 0.00131306)
(0.106193 0.00146295 -0.000262552)
(0.106988 0.00204219 -0.00204555)
(0.104135 0.00135098 -0.00227264)
(0.104366 0.000398504 -0.000290633)
(0.104766 0.000862489 0.000971889)
(0.106644 0.000968291 -0.000394647)
(0.107409 0.00194568 -0.00187746)
(0.104986 0.000869609 -0.00216279)
(0.105664 0.000744361 3.40162e-06)
(0.10557 0.000822389 0.000883102)
(0.107843 0.00129636 -7.13903e-05)
(0.107584 0.00180779 -0.00228506)
(0.115856 0.00135628 -0.00113923)
(0.114176 0.00092612 -0.000104789)
(0.114795 0.00090317 0.00104351)
(0.114533 0.00134765 -0.000135487)
(0.117139 0.00181315 -0.000988695)
(0.115215 0.00167011 -0.00112963)
(0.115067 0.000824067 0.000356857)
(0.114688 0.00110599 0.0012886)
(0.115302 0.000972542 0.000208311)
(0.116837 0.00197627 -0.000669558)
(0.115881 0.00125135 -0.00102697)
(0.11491 0.00100316 0.000495458)
(0.115283 0.00103297 0.00126889)
(0.115347 0.00150823 0.000534616)
(0.117496 0.00210694 -0.000510461)
(0.115205 0.0015796 -0.000800298)
(0.114872 0.00115411 0.000621698)
(0.114365 0.00122481 0.00166609)
(0.114808 0.00136714 0.000422567)
(0.116426 0.00220069 -0.000765262)
(0.114814 0.00157457 -0.000610108)
(0.113949 0.00102559 0.000264237)
(0.113507 0.00112145 0.00137458)
(0.114131 0.00147215 0.000236418)
(0.116001 0.00256056 -0.000830634)
(0.114711 0.00178055 -0.000571646)
(0.11332 0.00124126 0.000558965)
(0.113691 0.00115069 0.00147492)
(0.114009 0.00136329 0.0001002)
(0.115908 0.00204368 -0.000998182)
(0.11423 0.00161145 -0.00101534)
(0.113586 0.00068118 0.000106825)
(0.1137 0.000988819 0.00116815)
(0.114159 0.000901792 -4.46407e-05)
(0.116268 0.00203604 -0.000879436)
(0.114782 0.00118627 -0.00125065)
(0.114554 0.00102216 0.000480939)
(0.114301 0.000945159 0.00104955)
(0.11548 0.00122582 0.000229839)
(0.116364 0.00185993 -0.00112879)
(0.123709 0.00137993 -0.000182453)
(0.122217 0.00114555 0.000325103)
(0.122618 0.0010128 0.00111629)
(0.121712 0.00120691 0.000481588)
(0.123517 0.00154434 -2.47689e-05)
(0.123264 0.0016866 -2.20498e-05)
(0.122753 0.000981913 0.000577045)
(0.122498 0.00119808 0.00129159)
(0.122094 0.000900272 0.000756603)
(0.123331 0.00169158 0.00014812)
(0.123808 0.00134267 5.74567e-05)
(0.122681 0.00115343 0.000536895)
(0.123097 0.00114675 0.00130808)
(0.122192 0.00134539 0.00068768)
(0.124161 0.00190753 0.000356395)
(0.123526 0.00170181 9.67266e-05)
(0.122832 0.00136637 0.000900198)
(0.122474 0.00137731 0.00154425)
(0.121806 0.00123446 0.001048)
(0.123288 0.00197215 0.000272892)
(0.122957 0.00162748 0.000272855)
(0.122109 0.00125728 0.000650774)
(0.121684 0.00126236 0.00147269)
(0.121373 0.00134573 0.000690397)
(0.122896 0.00223972 0.000131836)
(0.123004 0.00183494 0.000271412)
(0.121679 0.00136941 0.00102163)
(0.121789 0.00116959 0.00159573)
(0.121041 0.00113208 0.00089934)
(0.122779 0.00170166 5.08572e-05)
(0.122527 0.00159552 0.000174879)
(0.121761 0.000815238 0.000587993)
(0.121805 0.00103921 0.00140522)
(0.12126 0.000768732 0.000517663)
(0.123057 0.00178365 0.000126644)
(0.122858 0.0012627 -0.000196341)
(0.122454 0.00119009 0.000732616)
(0.122048 0.00101525 0.0011893)
(0.122247 0.00108319 0.000703221)
(0.123059 0.00160562 -8.38259e-05)
(0.129405 0.00112933 0.000508452)
(0.128544 0.00106799 0.000651297)
(0.128966 0.00095174 0.00109897)
(0.128114 0.00102925 0.000870449)
(0.128736 0.00116755 0.000667569)
(0.129146 0.00138779 0.000628759)
(0.12886 0.000918486 0.000714251)
(0.128803 0.00112054 0.00117455)
(0.128413 0.000788419 0.000990528)
(0.128589 0.00129597 0.000623264)
(0.129623 0.00113134 0.000679847)
(0.128692 0.00103342 0.000517863)
(0.12933 0.00105571 0.00114864)
(0.128385 0.00115788 0.000695901)
(0.129346 0.00151479 0.000755532)
(0.129678 0.001481 0.000505069)
(0.129113 0.00129481 0.000884296)
(0.129145 0.00134561 0.00123302)
(0.128236 0.00108913 0.00121547)
(0.128799 0.00157343 0.000831941)
(0.12916 0.00139504 0.00080588)
(0.128613 0.00119873 0.00080386)
(0.128522 0.00122489 0.00138355)
(0.127979 0.00115789 0.000998781)
(0.128446 0.00174983 0.00080152)
(0.129322 0.00155619 0.000789614)
(0.128373 0.00124469 0.00115255)
(0.128656 0.00108073 0.00148379)
(0.127657 0.000893228 0.0013799)
(0.128337 0.00122651 0.000777863)
(0.128903 0.00128162 0.000991818)
(0.128273 0.000705561 0.000933378)
(0.128514 0.000950365 0.00147562)
(0.127701 0.000593382 0.00102241)
(0.12861 0.00135912 0.000826268)
(0.128952 0.00102414 0.00054784)
(0.128759 0.00109544 0.000839655)
(0.128563 0.000955084 0.00119392)
(0.12837 0.000892253 0.000983672)
(0.128447 0.00122367 0.000719633)
(0.133601 0.000779769 0.0007915)
(0.133157 0.000813609 0.000741984)
(0.133407 0.000739145 0.000918045)
(0.133048 0.000789143 0.000893393)
(0.133099 0.000803793 0.000864031)
(0.133409 0.000997852 0.000786742)
(0.133323 0.000687615 0.000725825)
(0.133228 0.000882721 0.000863505)
(0.1333 0.000602279 0.000938335)
(0.132952 0.000912176 0.000702761)
(0.133768 0.000802927 0.000819018)
(0.133121 0.000784785 0.000452555)
(0.133562 0.000816898 0.000851932)
(0.133192 0.000876315 0.000532546)
(0.133457 0.0010756 0.00073535)
(0.133915 0.00109569 0.000507833)
(0.133588 0.00100153 0.000671883)
(0.133714 0.00109865 0.000779181)
(0.133312 0.000847471 0.000948716)
(0.133258 0.00114935 0.000840438)
(0.133587 0.00102882 0.000877308)
(0.133294 0.000939162 0.000668062)
(0.133244 0.000981749 0.00103931)
(0.133156 0.000906779 0.00087914)
(0.132997 0.00125435 0.000965815)
(0.133779 0.00113561 0.000846775)
(0.133224 0.000936859 0.0010062)
(0.133474 0.000822702 0.00109389)
(0.133025 0.000652772 0.00134192)
(0.132978 0.0007979 0.000994809)
(0.133533 0.000880534 0.00117989)
(0.13307 0.000464333 0.000986922)
(0.133288 0.000718367 0.00127862)
(0.132866 0.0003922 0.00111046)
(0.133132 0.000941031 0.00104661)
(0.133413 0.000690683 0.000855023)
(0.133337 0.000814322 0.000795403)
(0.133245 0.000740444 0.00101408)
(0.133243 0.00065596 0.000931245)
(0.132965 0.000856998 0.000964578)
(0.136355 0.000478669 0.000719731)
(0.136164 0.000547933 0.000618522)
(0.136252 0.000500424 0.00063928)
(0.136115 0.00054228 0.000629616)
(0.136093 0.000502447 0.000727095)
(0.136182 0.000661057 0.000656424)
(0.136216 0.000452273 0.000599522)
(0.136069 0.000623965 0.000515039)
(0.136252 0.00039771 0.000643266)
(0.13596 0.000590456 0.000522252)
(0.136396 0.00050504 0.000678512)
(0.136075 0.000529577 0.000324411)
(0.136239 0.00054137 0.000543323)
(0.136164 0.000607511 0.000284155)
(0.136222 0.000698465 0.00052413)
(0.136482 0.000728904 0.000335633)
(0.136375 0.000684383 0.000408055)
(0.136439 0.000783425 0.00032423)
(0.13634 0.000589362 0.000506995)
(0.136263 0.000772646 0.000504563)
(0.136353 0.000684263 0.000627327)
(0.136296 0.000655393 0.000381639)
(0.136142 0.000684219 0.000602622)
(0.136257 0.000631613 0.00046998)
(0.136088 0.000826495 0.000723348)
(0.13651 0.000748892 0.000625306)
(0.136303 0.000626682 0.000706141)
(0.136359 0.000540773 0.00062249)
(0.136315 0.0004151 0.000903325)
(0.136152 0.000459761 0.000792318)
(0.136483 0.000548741 0.000941117)
(0.136214 0.000257174 0.00078147)
(0.136295 0.000476287 0.000876659)
(0.136114 0.000212398 0.000836917)
(0.136188 0.000597392 0.000859277)
(0.136315 0.000407955 0.000787742)
(0.136286 0.000530755 0.000623933)
(0.136212 0.000498027 0.000700781)
(0.13627 0.00042464 0.000655955)
(0.136088 0.00054724 0.000800128)
(0.137741 0.00027433 0.000521316)
(0.137661 0.000349911 0.000453318)
(0.137719 0.000318491 0.000403696)
(0.137643 0.000352233 0.000342321)
(0.137622 0.000293231 0.000472813)
(0.137635 0.00042636 0.000456197)
(0.137663 0.000280967 0.000451534)
(0.137595 0.000420614 0.000278004)
(0.137675 0.000241231 0.000347175)
(0.137526 0.000362592 0.000282741)
(0.137711 0.000296342 0.000478083)
(0.137579 0.000339768 0.000213926)
(0.137645 0.000338852 0.000337071)
(0.13761 0.000397973 7.77715e-05)
(0.137634 0.000433225 0.000310921)
(0.13774 0.000464759 0.000186003)
(0.137702 0.000439048 0.000270935)
(0.137775 0.000527024 7.3622e-05)
(0.137723 0.000373369 0.000187188)
(0.137723 0.000491295 0.000180405)
(0.137714 0.000425674 0.00036853)
(0.137722 0.000430872 0.000166211)
(0.137634 0.000443243 0.000280333)
(0.137678 0.000407729 0.00011261)
(0.137633 0.000513162 0.00036999)
(0.137796 0.000468447 0.000369558)
(0.137762 0.000394604 0.000437235)
(0.137758 0.000333218 0.00029482)
(0.137788 0.000236284 0.000450357)
(0.137686 0.000241575 0.000463671)
(0.13786 0.000324143 0.00060899)
(0.137737 0.00012232 0.000530683)
(0.137786 0.000298514 0.000510796)
(0.137685 9.87743e-05 0.000475668)
(0.137702 0.000368925 0.000529254)
(0.137763 0.000228253 0.000560938)
(0.137727 0.000328013 0.000442483)
(0.137724 0.000319286 0.000424757)
(0.137724 0.00025752 0.000361498)
(0.137654 0.000334647 0.000501653)
(0.13816 0.000155067 0.000335167)
(0.138139 0.000227232 0.000323668)
(0.138179 0.000195195 0.000282103)
(0.138155 0.000224666 0.000198667)
(0.138121 0.000159887 0.000290245)
(0.138123 0.000271152 0.00028656)
(0.138134 0.000178636 0.000338555)
(0.138137 0.000278358 0.000183435)
(0.138157 0.000143012 0.000208878)
(0.138087 0.000215457 0.000134586)
(0.138139 0.000165151 0.000317861)
(0.138093 0.000218804 0.000144441)
(0.138124 0.000199891 0.000250041)
(0.138096 0.000259227 1.33729e-05)
(0.138108 0.000262583 0.000189644)
(0.138134 0.000294515 9.26336e-05)
(0.138121 0.000284712 0.000217846)
(0.138185 0.000349459 2.95672e-05)
(0.138157 0.000234769 9.01903e-05)
(0.138163 0.000307496 3.99899e-05)
(0.138148 0.000253905 0.000210269)
(0.138153 0.000286196 8.64885e-05)
(0.138143 0.000274322 0.000152961)
(0.138128 0.000261533 -5.92454e-06)
(0.138139 0.000301648 0.000154749)
(0.138178 0.000282906 0.00019571)
(0.138194 0.000241002 0.000275377)
(0.138193 0.000199548 0.000168597)
(0.138207 0.000128866 0.000221957)
(0.13815 0.000114335 0.000246837)
(0.13822 0.000181992 0.000366059)
(0.138177 5.57264e-05 0.000356741)
(0.138219 0.000181496 0.000318411)
(0.138168 4.15769e-05 0.000270388)
(0.138167 0.000224512 0.0002964)
(0.138195 0.000128341 0.000352397)
(0.138165 0.000207822 0.000308374)
(0.138201 0.000205036 0.000278046)
(0.13818 0.000155044 0.000208343)
(0.138156 0.000202006 0.000288599)
(0.138159 7.78469e-05 0.000216265)
(0.138163 0.000144594 0.000227703)
(0.13819 0.000113312 0.000214539)
(0.138192 0.00013552 0.000149588)
(0.138159 7.42191e-05 0.000202076)
(0.13815 0.00016272 0.000183055)
(0.138153 0.000109082 0.000249302)
(0.138191 0.000179515 0.000146183)
(0.138192 7.53091e-05 0.000164794)
(0.138167 0.00012 8.27309e-05)
(0.138154 7.6906e-05 0.000215684)
(0.138144 0.000137323 9.84687e-05)
(0.138163 0.000107592 0.000202174)
(0.138143 0.0001645 2.25441e-05)
(0.138153 0.000147961 0.000145718)
(0.138139 0.000181395 5.07485e-05)
(0.138138 0.000179413 0.000175065)
(0.138189 0.000231829 4.13411e-05)
(0.13818 0.000141457 8.90915e-05)
(0.138182 0.000187978 2.03376e-05)
(0.13816 0.000139997 0.000133198)
(0.138163 0.000190707 6.01699e-05)
(0.138189 0.000161856 0.000114241)
(0.138169 0.000166767 1.53929e-06)
(0.138187 0.000163879 8.44357e-05)
(0.138177 0.00016141 0.000110667)
(0.138194 0.000138686 0.000183194)
(0.138208 0.000114996 0.000130827)
(0.138208 6.04004e-05 0.000148801)
(0.138174 4.0434e-05 0.000158727)
(0.138187 9.06314e-05 0.000230294)
(0.138169 1.9842e-05 0.000247578)
(0.138211 0.00010322 0.000226593)
(0.138183 7.98359e-06 0.000191655)
(0.138182 0.000127793 0.000190436)
(0.138185 6.58835e-05 0.000227541)
(0.138166 0.000127895 0.00021591)
(0.138213 0.000128032 0.000207415)
(0.138194 8.67545e-05 0.000154959)
(0.138193 0.000114958 0.000190856)
(0.138076 2.6623e-05 0.000145901)
(0.138083 8.47513e-05 0.000156411)
(0.138103 5.53369e-05 0.000157414)
(0.138113 7.28716e-05 0.000116594)
(0.138084 1.98719e-05 0.000148168)
(0.138071 8.67443e-05 0.000120393)
(0.138067 5.77707e-05 0.000176068)
(0.138113 0.000108116 0.000110872)
(0.138111 2.806e-05 0.000133178)
(0.138102 5.82273e-05 6.19291e-05)
(0.138075 1.81284e-05 0.000149933)
(0.138071 7.96046e-05 6.50844e-05)
(0.138087 4.32768e-05 0.000154726)
(0.138074 9.74389e-05 2.99179e-05)
(0.138083 7.09397e-05 0.00012027)
(0.138059 0.000105095 3.27303e-05)
(0.138059 0.000105678 0.00013237)
(0.138102 0.000147817 3.95403e-05)
(0.1381 7.77614e-05 8.5218e-05)
(0.138104 0.000111348 2.10765e-05)
(0.138079 6.62318e-05 8.94677e-05)
(0.138081 0.000125296 3.92639e-05)
(0.138113 8.57579e-05 8.34638e-05)
(0.138102 0.000103118 1.31158e-05)
(0.138117 7.79587e-05 5.8881e-05)
(0.138095 8.40723e-05 6.73137e-05)
(0.138104 7.10893e-05 0.000120778)
(0.138121 5.8729e-05 0.000100774)
(0.138122 1.70217e-05 0.00011182)
(0.138098 6.65898e-07 0.000117184)
(0.138094 3.17168e-05 0.000152744)
(0.138078 -4.31392e-07 0.000173293)
(0.138116 5.04441e-05 0.000162221)
(0.138099 -1.06629e-05 0.000147218)
(0.138099 6.39262e-05 0.000134733)
(0.138094 2.58361e-05 0.000155687)
(0.138079 7.20303e-05 0.000150068)
(0.138122 7.33567e-05 0.00015475)
(0.138109 4.0296e-05 0.00012356)
(0.138114 5.59773e-05 0.000138981)
(0.137997 -4.55971e-06 9.89939e-05)
(0.138002 4.27985e-05 0.000103875)
(0.138018 1.78866e-05 0.000107338)
(0.138029 3.07067e-05 8.27386e-05)
(0.138003 -1.26156e-05 0.00010347)
(0.137993 3.76865e-05 7.73401e-05)
(0.137986 2.1242e-05 0.000118264)
(0.138025 6.07351e-05 7.38729e-05)
(0.138025 -3.95544e-06 9.67347e-05)
(0.138021 2.11021e-05 4.24558e-05)
(0.137996 -1.75599e-05 0.000101782)
(0.137992 4.12841e-05 3.97243e-05)
(0.138004 2.86177e-06 0.000109253)
(0.137995 5.2924e-05 2.35911e-05)
(0.138002 2.17815e-05 9.23141e-05)
(0.137981 5.60765e-05 2.01075e-05)
(0.13798 5.47214e-05 9.51031e-05)
(0.138015 9.07618e-05 2.6436e-05)
(0.138015 3.54419e-05 6.72763e-05)
(0.138021 6.25264e-05 1.45901e-05)
(0.137999 2.15173e-05 5.74572e-05)
(0.138 7.937e-05 1.96075e-05)
(0.138027 3.8693e-05 5.10661e-05)
(0.138023 6.0185e-05 8.13065e-06)
(0.138035 2.72281e-05 3.60189e-05)
(0.138013 3.79388e-05 3.84021e-05)
(0.138018 2.88136e-05 7.37747e-05)
(0.138032 2.45635e-05 6.84181e-05)
(0.138035 -7.74469e-06 7.66952e-05)
(0.138018 -1.82934e-05 8.40029e-05)
(0.138011 -2.35985e-06 0.000100247)
(0.137996 -1.03322e-05 0.000118788)
(0.138028 1.83752e-05 0.000109148)
(0.138016 -1.91219e-05 0.00010746)
(0.138017 2.41762e-05 9.30377e-05)
(0.138011 2.57919e-06 0.000107301)
(0.137998 3.51304e-05 0.000101561)
(0.138033 3.74166e-05 0.000108526)
(0.138025 1.0331e-05 9.1879e-05)
(0.138029 1.85344e-05 9.88246e-05)
(0.137921 -1.95406e-05 6.59971e-05)
(0.137925 1.64156e-05 6.63074e-05)
(0.137936 -3.35717e-06 6.91233e-05)
(0.137945 5.51207e-06 5.36728e-05)
(0.137925 -2.9043e-05 6.79442e-05)
(0.137917 1.00515e-05 4.69914e-05)
(0.137909 -1.63326e-06 7.5878e-05)
(0.137941 3.15127e-05 4.36942e-05)
(0.13794 -2.19419e-05 6.39781e-05)
(0.137938 8.60175e-07 2.46001e-05)
(0.137919 -3.53303e-05 6.59361e-05)
(0.137914 1.7859e-05 2.12444e-05)
(0.137924 -1.92825e-05 7.246e-05)
(0.137917 2.50687e-05 1.31045e-05)
(0.137922 -6.36575e-06 6.55277e-05)
(0.137906 2.61557e-05 1.00805e-05)
(0.137904 2.34116e-05 6.5359e-05)
(0.137932 5.36784e-05 1.31878e-05)
(0.137932 1.08643e-05 4.67087e-05)
(0.137939 3.31409e-05 5.80113e-06)
(0.137921 -1.78344e-06 3.37584e-05)
(0.137922 4.92571e-05 5.09372e-06)
(0.137944 1.23436e-05 2.49582e-05)
(0.137941 3.34657e-05 -1.3648e-06)
(0.137951 -1.69548e-07 1.58637e-05)
(0.137933 1.35477e-05 1.7856e-05)
(0.137936 4.79476e-06 3.97945e-05)
(0.137947 6.75544e-06 4.087e-05)
(0.137949 -1.94788e-05 4.64268e-05)
(0.137938 -2.37439e-05 5.59694e-05)
(0.137932 -1.82853e-05 6.28594e-05)
(0.137918 -1.27533e-05 7.89602e-05)
(0.137945 1.4004e-06 6.91614e-05)
(0.137936 -2.01738e-05 7.38929e-05)
(0.137939 2.31701e-06 6.1125e-05)
(0.137932 -8.65961e-06 7.20698e-05)
(0.137922 1.31977e-05 6.70501e-05)
(0.137949 1.5456e-05 7.1676e-05)
(0.137942 -5.54891e-06 6.40535e-05)
(0.137947 -2.71493e-06 6.62675e-05)
(0.13784 -2.46929e-05 4.33743e-05)
(0.137842 1.85286e-06 4.10169e-05)
(0.13785 -1.45262e-05 4.29343e-05)
(0.137856 -6.80228e-06 3.29337e-05)
(0.137841 -3.51083e-05 4.26704e-05)
(0.137836 -4.02594e-06 2.68724e-05)
(0.137828 -1.40154e-05 4.705e-05)
(0.137853 1.39436e-05 2.31566e-05)
(0.137852 -2.94789e-05 3.98686e-05)
(0.137851 -8.74576e-06 1.17232e-05)
(0.137837 -4.1814e-05 4.08009e-05)
(0.137831 4.97063e-06 9.28315e-06)
(0.137841 -2.9599e-05 4.60922e-05)
(0.137833 9.23158e-06 4.99003e-06)
(0.137838 -1.98562e-05 4.42304e-05)
(0.137825 9.07032e-06 3.41234e-06)
(0.137823 6.40704e-06 4.34364e-05)
(0.137845 3.00618e-05 4.44027e-06)
(0.137844 -8.18352e-07 3.0074e-05)
(0.137852 1.63511e-05 -4.1522e-07)
(0.137838 -1.18784e-05 1.74324e-05)
(0.137838 3.05111e-05 -3.52726e-06)
(0.137856 -1.55538e-06 7.76444e-06)
(0.137854 1.87312e-05 -7.99796e-06)
(0.137863 -1.26769e-05 2.13566e-06)
(0.137849 1.84477e-06 4.74051e-06)
(0.13785 -6.71674e-06 1.77713e-05)
(0.137858 -1.63439e-06 2.16678e-05)
(0.13786 -2.21129e-05 2.50759e-05)
(0.137853 -2.21981e-05 3.5152e-05)
(0.137849 -2.3346e-05 3.74228e-05)
(0.137836 -1.11043e-05 5.10396e-05)
(0.137859 -6.63862e-06 4.2023e-05)
(0.137851 -1.68393e-05 4.90747e-05)
(0.137855 -7.68935e-06 3.89817e-05)
(0.137849 -1.27758e-05 4.73811e-05)
(0.13784 2.13977e-06 4.37578e-05)