/*--------------------------------*- C++ -*----------------------------------*\
  =========                 |
  \\      /  F ield         | OpenFOAM: The Open Source CFD Toolbox
   \\    /   O peration     | Website:  https://openfoam.org
    \\  /    A nd           | Version:  10
     \\/     M anipulation  |
\*---------------------------------------------------------------------------*/
FoamFile
{
    format      ascii;
    class       volScalarField;
    location    "6";
    object      nut;
}
// * * * * * * * * * * * * * * * * * * * * * * * * * * * * * * * * * * * * * //

dimensions      [0 2 -1 0 0 0 0];

internalField   nonuniform List<scalar> 
25600
(
1.18075e-13
7.99685e-13
5.10861e-14
1.21048e-11
1.58017e-10
1.51865e-10
1.29695e-10
7.71516e-11
8.65352e-11
8.28355e-11
6.63543e-11
7.19422e-11
6.23451e-11
1.87849e-10
2.02176e-10
9.79038e-11
1.59381e-10
8.42044e-11
9.68183e-12
3.42741e-11
3.63858e-13
2.73785e-12
5.57927e-11
6.20167e-11
1.6599e-10
8.91443e-11
1.27366e-12
1.86677e-10
8.96365e-11
3.43572e-11
2.11947e-10
3.54581e-11
6.59262e-14
4.18612e-11
2.43135e-12
2.63837e-13
1.45381e-13
4.49178e-14
6.59024e-14
9.6974e-14
5.78126e-11
9.8146e-11
1.55463e-13
7.69961e-14
1.17194e-13
1.25275e-13
3.93623e-13
7.46907e-11
1.57129e-11
5.3277e-11
1.52167e-10
1.91384e-11
1.23504e-13
9.20118e-11
1.23879e-10
1.30338e-10
1.52138e-10
1.44724e-11
8.54886e-14
1.1327e-13
1.58871e-13
7.95575e-13
2.6398e-13
1.43396e-13
1.18779e-13
1.05611e-13
4.06231e-11
2.05513e-10
1.0199e-10
2.83291e-11
1.78332e-10
3.31669e-11
1.96523e-13
6.8386e-11
1.72113e-12
1.16384e-11
2.26582e-11
5.09831e-13
8.35516e-11
9.35198e-11
1.7843e-13
1.48159e-11
9.82456e-11
2.84615e-10
2.2867e-10
2.79958e-12
6.65857e-11
1.0472e-10
3.1278e-13
1.06064e-12
6.59319e-11
4.12982e-13
9.2937e-12
1.14113e-10
5.6344e-11
2.06061e-11
4.0689e-11
1.02107e-10
1.30064e-10
1.57212e-10
1.84686e-10
8.84886e-11
5.15767e-11
1.95018e-10
1.30101e-10
1.2043e-10
1.79334e-10
6.05622e-11
1.67185e-13
1.79909e-13
1.71336e-11
2.19805e-13
1.47541e-12
7.19839e-11
2.10795e-11
3.5602e-11
4.4632e-13
1.17011e-13
9.41458e-14
6.14367e-14
1.41942e-10
1.02444e-11
2.68185e-13
1.48564e-11
1.56651e-10
2.19973e-10
3.85009e-10
2.56298e-10
5.05262e-11
2.09822e-10
1.30403e-10
4.76168e-11
1.7346e-10
1.09084e-10
3.06353e-11
4.55032e-11
1.66875e-10
3.06343e-10
1.54937e-10
4.53871e-11
1.19906e-10
4.32318e-13
4.66432e-13
3.82997e-11
4.58009e-14
5.84528e-14
1.1689e-10
9.83091e-12
1.86008e-13
1.47155e-12
1.53434e-11
8.56461e-12
9.62575e-11
8.10586e-11
3.04344e-13
9.91744e-14
1.09169e-13
1.62586e-13
1.34322e-12
4.41529e-11
5.34929e-14
1.32695e-14
5.73841e-14
4.91553e-13
1.60188e-13
1.95754e-13
2.51966e-13
1.35424e-13
5.81212e-14
2.62264e-12
9.6533e-14
7.04603e-14
4.65356e-14
2.80123e-15
2.76374e-14
1.53651e-11
1.03969e-10
1.16876e-13
2.44798e-14
7.40791e-14
1.8968e-13
6.36227e-14
4.12936e-14
3.3318e-14
1.94107e-14
1.61015e-13
1.91171e-10
1.30783e-13
2.03836e-14
7.28134e-12
7.96637e-14
6.21482e-14
6.78227e-13
7.03126e-14
9.42072e-14
4.01134e-11
2.33312e-10
1.75991e-10
2.74238e-13
1.11196e-13
1.8857e-10
6.99998e-12
9.79866e-12
4.94132e-11
3.29855e-13
7.55972e-11
2.76001e-10
1.00902e-10
9.53834e-11
4.35508e-11
1.41162e-12
1.9344e-10
1.85397e-10
1.16534e-10
9.65781e-11
2.45094e-13
8.87277e-11
1.65635e-10
2.49162e-11
1.98544e-11
1.1882e-12
4.13147e-13
2.19687e-10
3.85531e-10
2.57773e-10
2.82495e-10
2.16297e-10
1.04809e-13
3.41142e-13
2.53269e-10
6.00194e-11
1.31089e-12
7.88025e-11
3.16373e-12
1.99123e-13
3.54256e-14
2.64005e-14
8.73789e-14
3.22449e-13
1.64895e-10
6.39206e-14
3.76745e-14
6.40304e-12
1.72698e-10
1.89121e-12
6.49219e-13
4.69289e-13
4.74907e-11
4.15213e-10
2.98329e-10
1.23576e-10
7.93123e-11
3.50081e-11
8.51448e-14
4.67838e-14
8.03529e-14
1.05351e-12
3.68167e-11
1.35462e-10
2.03329e-10
1.81475e-12
8.62407e-13
2.34307e-10
8.34935e-11
1.5996e-13
1.7526e-13
6.49011e-13
1.17184e-13
5.51082e-11
6.88439e-11
2.01123e-12
2.58052e-10
3.02047e-10
9.55243e-11
1.63886e-12
7.5538e-13
5.09592e-11
1.07592e-10
1.27015e-10
6.74724e-11
1.31327e-10
1.13927e-10
1.06394e-10
1.1153e-13
2.59106e-13
1.56812e-10
1.18245e-10
2.7212e-10
6.10862e-10
3.99161e-10
7.27484e-12
3.5816e-12
3.28489e-11
3.17053e-13
1.71876e-12
1.32776e-10
1.11523e-13
1.28016e-13
2.23037e-11
2.29504e-10
8.35256e-14
7.30969e-14
3.526e-13
1.52427e-11
1.23555e-13
3.47717e-11
7.88697e-11
3.02584e-14
3.04847e-13
5.71845e-10
5.44975e-10
4.02198e-11
3.73473e-13
4.21962e-13
3.88788e-13
8.09646e-13
1.29475e-11
7.98795e-12
9.08936e-11
2.35543e-10
2.72957e-13
5.18928e-11
4.41824e-10
4.66248e-10
2.6736e-10
1.5139e-10
3.36338e-10
3.38699e-10
2.35536e-10
8.7053e-11
2.13762e-10
3.32424e-10
3.24399e-12
1.82387e-10
5.02976e-11
4.41548e-13
1.8592e-12
3.19145e-10
4.34603e-10
1.69914e-10
3.41931e-11
5.67787e-11
1.25585e-10
2.72712e-10
2.60011e-10
4.50965e-12
1.0069e-13
1.36641e-13
2.40602e-13
2.88342e-10
3.91777e-10
8.74236e-11
1.6982e-11
9.12635e-11
2.18034e-13
8.93958e-12
2.84007e-13
1.13293e-13
4.40389e-13
1.60212e-11
4.1121e-13
2.00827e-13
4.78087e-13
4.62958e-11
3.35114e-10
4.15117e-10
1.99823e-13
4.61071e-14
8.18131e-13
4.0424e-13
3.36554e-14
1.52903e-13
2.63413e-10
2.59743e-10
2.68382e-13
3.74107e-13
5.34059e-14
3.9574e-14
7.11594e-14
7.43712e-14
3.3219e-10
1.06415e-09
6.19958e-10
7.75754e-14
1.74213e-13
1.5336e-10
2.71736e-10
2.57987e-10
1.80851e-10
7.97494e-14
1.14107e-10
4.18637e-10
6.51613e-10
5.28709e-10
1.35094e-10
2.79158e-11
1.18817e-13
1.1111e-13
1.43746e-10
1.07443e-10
4.38098e-13
7.76823e-13
2.35509e-10
2.67534e-11
6.5076e-14
6.14367e-14
7.42602e-13
1.51924e-10
1.74377e-10
2.86361e-10
1.7244e-10
1.17836e-10
1.22717e-13
2.00914e-13
4.34e-10
3.40956e-10
8.39658e-14
7.58738e-11
3.7986e-10
2.54601e-10
2.26575e-13
3.69598e-13
1.1734e-10
3.30253e-11
1.70808e-13
4.4543e-13
1.45508e-12
9.03164e-11
1.80965e-10
2.46316e-10
4.04255e-10
1.83546e-10
1.22184e-10
1.37885e-10
3.55705e-10
6.5567e-10
7.76155e-10
9.22658e-10
7.68773e-10
2.14518e-10
6.25102e-13
2.08016e-13
2.62016e-10
7.33067e-10
2.46068e-10
1.23295e-13
3.07189e-14
8.14731e-14
2.79852e-10
9.19232e-14
7.95248e-14
3.94718e-10
2.71771e-13
8.71875e-14
1.94998e-13
2.98197e-13
2.4192e-10
3.70881e-10
1.33918e-13
1.75738e-13
1.36915e-10
4.32104e-13
4.3371e-12
1.57984e-10
2.92779e-10
2.27619e-10
3.32831e-13
2.13437e-11
3.24381e-12
4.97134e-13
1.23098e-13
6.30023e-11
3.616e-10
3.65091e-13
1.80782e-13
1.93599e-13
1.7721e-13
2.30224e-13
1.62288e-10
1.34514e-10
1.93446e-13
1.86032e-13
1.30583e-10
5.7e-10
4.9172e-10
5.17221e-10
4.56017e-10
4.68694e-10
5.42409e-10
3.50555e-10
2.12471e-10
1.38202e-13
4.26043e-13
9.19894e-10
6.98714e-10
3.10354e-11
9.14334e-14
1.09545e-10
1.31016e-10
3.12042e-10
9.44878e-10
1.27855e-09
9.02785e-10
1.5321e-10
5.41794e-13
2.73761e-13
4.44203e-10
3.46831e-13
1.23705e-10
7.80442e-10
1.19627e-10
6.07753e-10
6.12927e-10
4.70564e-13
2.73972e-13
8.66842e-11
2.3081e-11
2.13914e-10
2.56123e-10
6.15748e-13
2.57556e-10
1.92078e-13
3.67571e-10
3.49739e-12
5.63497e-13
7.104e-12
2.01663e-12
7.38606e-11
7.12222e-13
2.13561e-10
4.00708e-10
4.85913e-10
1.64734e-10
2.94227e-13
2.79915e-10
2.93916e-10
6.11499e-10
4.84152e-10
2.87685e-11
2.758e-10
1.70548e-10
5.43175e-13
1.30223e-12
4.08902e-10
3.27568e-10
3.05374e-10
2.13093e-10
4.73439e-10
2.07189e-12
9.57841e-13
4.94091e-10
7.6271e-13
5.45967e-10
1.28995e-09
8.3295e-10
6.60577e-10
2.50662e-10
1.31162e-10
4.2341e-10
7.33881e-10
1.08319e-12
3.72747e-10
3.86987e-10
6.89695e-10
5.11008e-13
8.28185e-13
3.84307e-10
9.06226e-14
1.82595e-13
9.72453e-11
7.56571e-13
3.84079e-12
2.39108e-10
6.67767e-10
6.01938e-10
3.13307e-13
1.46955e-13
1.98039e-10
9.06712e-10
6.03481e-10
4.32022e-12
8.51775e-13
1.89921e-13
1.31419e-13
1.65195e-13
3.40158e-10
4.2565e-10
1.00703e-12
2.72065e-13
1.83233e-10
8.06064e-10
1.47099e-13
2.25458e-10
3.07266e-10
7.68296e-13
4.42817e-10
8.34669e-11
2.60931e-10
1.68092e-10
2.11059e-13
1.77813e-13
2.98245e-10
6.31245e-10
8.64679e-14
3.02858e-13
1.1643e-12
1.65997e-12
9.61446e-10
1.42642e-09
2.40724e-13
7.40694e-13
1.89557e-13
1.4459e-11
5.75792e-10
9.93274e-10
6.02204e-10
6.83177e-10
2.02892e-10
1.62794e-13
2.69791e-10
4.2878e-10
2.5228e-13
9.77777e-10
2.20224e-13
9.40201e-14
4.85211e-12
6.56736e-10
2.41016e-10
4.44091e-10
6.00999e-10
1.27108e-10
9.80764e-12
1.17851e-11
4.39766e-13
5.10494e-10
1.35519e-09
5.18974e-10
4.6991e-10
1.61786e-10
3.1166e-12
6.36318e-13
2.2654e-13
2.08462e-13
9.83401e-13
5.43751e-10
4.38481e-10
4.36124e-10
6.27767e-12
1.1901e-10
2.58859e-13
1.80464e-10
1.03305e-09
2.11605e-13
1.41631e-13
2.70722e-13
1.06096e-10
3.68641e-10
2.14051e-10
1.3789e-13
4.07761e-10
1.06608e-09
3.00185e-10
6.50097e-10
5.91294e-10
6.89681e-13
1.32856e-13
7.74014e-12
8.81671e-10
1.79618e-10
4.0197e-10
7.85285e-14
3.80048e-14
2.1526e-12
3.78606e-10
3.78893e-12
3.60991e-13
2.40422e-12
1.70106e-13
1.19572e-09
4.01574e-10
1.1037e-13
8.61023e-11
2.84523e-10
6.70156e-14
1.63435e-13
2.90411e-12
4.74663e-10
4.88337e-13
1.56385e-10
3.6171e-10
3.83913e-14
2.20346e-13
8.39002e-10
1.11013e-09
9.7652e-12
4.10765e-13
2.45127e-13
7.29779e-10
7.94147e-10
5.18024e-10
5.47284e-13
4.98375e-12
1.42757e-12
7.31299e-11
1.10639e-10
6.68362e-10
6.8198e-11
2.96184e-10
2.22646e-12
1.76494e-13
2.82349e-13
4.42168e-10
7.5102e-10
5.74649e-10
7.42556e-13
7.287e-14
1.60468e-10
1.00784e-09
9.69309e-10
7.73023e-14
1.28779e-12
4.75695e-10
1.1112e-10
1.16442e-10
2.79121e-13
1.04251e-12
7.9554e-14
2.48277e-10
5.3886e-10
2.69179e-13
6.36315e-11
8.93529e-13
4.38718e-13
9.33716e-10
5.35885e-10
1.76166e-12
1.06647e-09
1.12204e-09
3.5121e-13
9.14422e-13
1.18245e-12
5.36215e-13
4.05291e-10
1.26107e-13
4.85483e-14
3.52514e-10
1.46466e-10
2.38413e-13
6.08025e-10
2.44395e-13
2.42581e-10
7.55972e-10
1.764e-10
7.47917e-14
2.24087e-13
8.31614e-10
2.00181e-13
2.05094e-10
7.64382e-14
8.76186e-11
4.32427e-13
5.27106e-10
5.87623e-10
7.25733e-12
1.72437e-13
2.96226e-12
5.02909e-10
3.65981e-10
2.2948e-14
1.73638e-13
1.07498e-09
2.48699e-10
4.06232e-10
2.94812e-13
3.42342e-13
8.14745e-14
2.44796e-13
7.07047e-13
6.70269e-13
3.89773e-10
1.20926e-09
5.14443e-11
1.56505e-10
2.29865e-13
2.66137e-13
9.34571e-10
1.55515e-09
1.09968e-09
1.9839e-13
8.76733e-10
1.15689e-10
5.40198e-13
1.04677e-09
3.16564e-10
2.0235e-10
9.07125e-10
3.25569e-13
2.48192e-13
9.35094e-10
9.04225e-13
5.18355e-13
2.19125e-11
9.14523e-14
1.21242e-12
4.22275e-10
9.16327e-14
2.52076e-10
9.17046e-10
2.38031e-09
9.70807e-11
1.36543e-12
4.99752e-10
4.53055e-10
9.75206e-12
2.45141e-10
7.49467e-10
1.63447e-13
3.70887e-11
3.96254e-10
1.29072e-10
5.10801e-10
1.25263e-13
1.05709e-10
6.63102e-13
6.57252e-13
1.02661e-09
3.338e-13
1.68306e-11
9.28327e-10
4.84002e-13
4.27549e-10
4.21755e-13
6.56248e-13
2.85176e-10
1.89081e-10
2.09065e-13
2.96855e-13
4.82461e-13
6.63343e-10
2.57327e-13
3.56705e-13
7.42576e-14
7.26124e-10
2.19887e-10
4.02187e-13
5.53211e-13
2.19757e-13
2.81342e-12
2.22483e-13
3.49148e-13
9.85525e-14
4.53401e-10
5.49728e-10
4.45275e-10
2.83684e-10
6.11792e-10
1.15749e-09
1.10905e-09
7.40569e-10
3.98925e-10
7.3429e-13
1.0194e-12
4.42169e-13
5.47028e-13
8.81589e-13
1.27061e-09
3.62179e-13
2.45131e-13
1.0061e-09
5.10995e-11
8.17299e-13
4.72931e-10
1.13513e-13
2.13887e-13
2.36662e-13
2.52152e-13
2.36484e-12
1.30938e-09
8.65048e-10
4.55043e-13
4.57641e-10
7.86929e-10
7.92884e-10
9.69545e-13
2.3339e-13
3.23134e-12
1.25388e-10
5.21153e-13
1.28755e-13
1.27856e-11
2.19719e-11
3.90404e-14
6.65494e-11
5.78722e-13
3.84037e-14
4.62649e-14
4.3742e-13
2.29825e-13
1.29293e-12
2.77679e-10
1.95868e-12
6.14019e-10
7.75909e-10
1.3357e-13
1.87752e-11
8.31476e-10
1.34474e-09
9.13985e-10
9.91902e-13
4.56197e-12
1.09293e-12
1.06842e-09
8.14453e-10
1.92863e-13
1.88225e-13
1.07682e-09
1.60869e-10
2.53241e-10
6.79925e-11
1.48346e-09
3.68123e-13
1.24632e-11
7.19806e-10
5.48903e-10
8.85764e-13
5.78546e-13
1.01471e-09
8.93414e-10
1.04906e-09
4.42212e-13
5.81963e-10
1.40459e-09
8.80397e-10
3.66344e-10
1.25952e-09
1.85044e-09
7.23611e-13
4.37144e-10
8.23216e-10
2.76812e-12
6.69309e-10
1.02828e-13
9.06316e-13
4.82149e-14
1.09546e-10
5.57428e-13
3.02009e-13
1.09827e-09
1.88194e-10
2.64564e-13
2.15482e-10
6.44565e-14
3.94287e-13
1.04086e-12
1.27999e-09
1.71234e-13
3.87442e-13
4.43817e-10
8.16176e-10
9.98646e-13
1.57159e-13
5.48477e-13
7.77001e-13
2.58158e-13
1.80077e-12
1.00459e-12
7.19676e-14
4.76118e-13
3.1945e-13
3.09806e-13
1.78349e-13
4.95443e-14
6.58667e-14
1.12387e-10
5.90477e-13
1.29064e-13
3.93838e-13
5.65633e-13
1.72848e-12
7.95454e-12
8.28125e-13
1.84478e-13
2.49571e-13
1.29999e-13
3.08209e-11
4.76458e-13
3.37236e-13
6.58808e-13
1.02061e-09
2.41819e-10
2.84837e-13
3.67982e-13
4.79342e-10
1.08417e-12
2.50071e-13
1.02133e-13
1.99953e-13
3.82891e-13
9.45071e-12
2.5132e-13
9.36195e-14
1.26947e-09
1.70478e-09
9.11096e-10
8.25845e-10
1.00189e-12
8.25765e-10
1.08374e-09
1.25941e-09
3.52806e-10
3.88778e-10
8.48843e-10
7.71539e-10
4.75005e-10
5.254e-10
1.07788e-09
6.66364e-10
5.79037e-10
7.23779e-12
1.16848e-09
8.12833e-10
1.32294e-09
4.30099e-11
5.80986e-10
1.45386e-09
8.15396e-10
1.88026e-09
1.29486e-09
7.19323e-10
1.34219e-09
7.21783e-10
1.93933e-09
1.56192e-09
4.85115e-10
1.34698e-13
1.03267e-09
9.06359e-10
1.00276e-09
1.16202e-09
8.05139e-10
1.07006e-13
7.05963e-13
5.40969e-13
3.6226e-13
1.53037e-13
6.16085e-13
1.1094e-12
6.28613e-13
7.74584e-14
2.81949e-13
2.95112e-13
6.62718e-14
4.50087e-13
3.0615e-13
3.47131e-13
3.06924e-13
9.59699e-14
9.75702e-13
1.17576e-12
5.58492e-13
7.20898e-14
4.24119e-14
9.25401e-13
9.50163e-13
9.43022e-14
6.90632e-13
1.21856e-13
7.2276e-14
1.42174e-13
1.24235e-13
2.93791e-14
2.78673e-14
1.6764e-13
3.1256e-13
5.8556e-13
1.95348e-13
1.23741e-13
5.2213e-13
3.00213e-13
6.50525e-14
1.5826e-09
1.31902e-09
1.32995e-09
9.21019e-10
1.38532e-09
1.2889e-09
1.0337e-09
1.32164e-09
1.2145e-09
1.24222e-09
1.4065e-09
8.74942e-10
1.40989e-09
2.28237e-09
1.53508e-09
1.64844e-09
1.38974e-09
8.68801e-10
1.7663e-09
1.0554e-09
1.7393e-09
1.73045e-09
7.8882e-10
1.02938e-09
1.53024e-09
2.51812e-09
2.32209e-09
1.1701e-09
2.29504e-09
2.09445e-09
1.87162e-09
2.38791e-09
2.5208e-09
1.28009e-09
1.19105e-09
1.65103e-09
1.26254e-09
1.95938e-09
1.69702e-09
1.4604e-09
6.52048e-14
1.44124e-13
1.3549e-13
3.18446e-13
6.48125e-14
7.70405e-15
2.87579e-13
4.83794e-13
3.10001e-13
2.3497e-13
2.11184e-13
1.94893e-13
5.04103e-13
1.44925e-13
4.16543e-14
3.83628e-14
1.34549e-13
1.03482e-13
6.36199e-14
9.02428e-14
1.73015e-13
3.04027e-13
6.89045e-14
1.14081e-13
1.69103e-13
1.45462e-13
9.14823e-14
1.29942e-14
2.77034e-14
5.84314e-14
3.98341e-14
8.72731e-14
2.88518e-13
3.26748e-14
3.39405e-14
2.77723e-13
1.00749e-13
3.23573e-14
1.57558e-13
6.75058e-14
2.59305e-09
2.17461e-09
2.34408e-09
2.16436e-09
2.44094e-09
2.84417e-09
2.30551e-09
2.38575e-09
2.04364e-09
2.41845e-09
2.086e-09
2.16429e-09
2.30545e-09
2.54499e-09
2.5372e-09
1.9972e-09
1.67164e-09
1.92671e-09
2.02815e-09
2.18578e-09
2.23308e-09
1.48523e-09
2.59959e-09
1.94588e-09
2.54731e-09
2.49189e-09
2.27166e-09
1.68539e-09
2.56689e-09
2.54344e-09
2.06185e-09
1.99137e-09
2.0326e-09
2.50069e-09
3.46521e-09
2.54362e-09
1.86074e-09
2.61589e-09
2.38078e-09
2.89411e-09
1.07464e-13
1.52693e-13
1.28362e-13
1.78084e-14
8.34476e-14
1.38748e-13
3.17173e-13
4.26608e-13
1.59146e-13
1.97951e-13
3.70157e-13
4.50424e-13
4.03501e-13
1.50118e-13
2.12812e-13
3.239e-13
8.44324e-14
5.95881e-14
3.65926e-13
7.59795e-13
5.09091e-13
7.14161e-14
5.11598e-14
1.85888e-12
1.51424e-12
3.64826e-13
1.3239e-13
2.06082e-13
1.19833e-13
1.46084e-13
1.50171e-13
2.46561e-13
1.30271e-13
3.68152e-14
1.00012e-13
6.36167e-14
3.46229e-13
5.05843e-13
1.54623e-13
6.14659e-14
9.72408e-10
1.19418e-09
1.36608e-09
1.35504e-09
1.2097e-09
9.65934e-10
1.3007e-09
1.3082e-09
1.34684e-09
1.09902e-09
1.11779e-09
1.22032e-09
1.40269e-09
1.43943e-09
1.31798e-09
1.36125e-09
1.08708e-09
1.07635e-09
1.2267e-09
1.30087e-09
1.18348e-09
1.13741e-09
9.10501e-10
1.07608e-09
1.3934e-09
1.37271e-09
1.21725e-09
1.42458e-09
1.57293e-09
1.33135e-09
1.17837e-09
1.13142e-09
1.39617e-09
1.2799e-09
1.02609e-09
1.24037e-09
1.14868e-09
1.20008e-09
1.36666e-09
1.40189e-09
3.83625e-14
2.34551e-13
2.24116e-11
6.71973e-11
9.47151e-11
2.74605e-12
1.09087e-13
6.37414e-14
5.58351e-14
3.88578e-14
1.19342e-12
6.85857e-12
1.64624e-13
1.31464e-13
3.27487e-14
1.62632e-14
4.90947e-14
9.55902e-14
9.57455e-14
1.61411e-13
8.57656e-12
1.35214e-10
1.62005e-10
4.42792e-11
5.46583e-11
6.35076e-13
1.22135e-13
2.911e-11
6.91823e-14
3.09292e-14
9.41139e-11
4.83736e-11
1.39974e-12
1.11472e-10
6.28136e-11
3.94013e-12
5.36342e-13
4.5609e-14
3.96938e-14
3.12304e-14
3.75827e-11
1.0167e-10
1.84428e-13
1.09782e-13
2.37946e-13
2.4996e-13
5.04674e-13
3.35875e-11
3.66578e-13
3.17908e-11
1.27536e-10
3.72626e-12
6.40981e-14
2.39609e-13
9.30324e-14
1.44935e-14
4.66691e-14
1.68751e-13
2.53732e-13
3.58631e-13
2.44443e-13
1.28759e-13
6.69449e-14
1.08401e-13
1.67292e-13
8.30025e-14
1.13543e-13
4.68944e-13
9.30269e-14
8.09138e-14
6.10546e-11
1.56679e-13
9.04455e-14
1.01958e-12
4.7426e-13
5.00854e-11
5.89982e-11
9.31287e-13
8.65861e-11
7.21117e-11
8.19603e-13
4.65638e-13
1.89586e-13
3.55641e-13
5.14169e-13
1.8652e-13
2.76799e-13
5.68984e-13
1.33998e-13
5.66439e-13
3.90537e-11
4.48863e-13
4.5506e-11
1.44877e-10
6.26105e-11
5.542e-13
1.25427e-12
5.62936e-13
7.44572e-14
3.1045e-14
2.83398e-13
5.38653e-12
3.18063e-11
1.58568e-10
2.95278e-13
8.27446e-14
1.06058e-13
1.37645e-13
9.74003e-14
9.24895e-12
7.35023e-11
2.03238e-13
1.97802e-13
8.86749e-12
1.39843e-13
2.65324e-13
1.60981e-13
1.1654e-13
3.213e-13
3.1702e-13
1.00806e-10
3.22358e-11
1.19367e-12
1.19269e-10
3.19225e-11
8.91479e-14
8.90058e-13
1.01439e-13
6.22132e-14
5.86485e-13
2.17747e-13
7.18821e-14
8.27025e-14
7.86831e-14
1.01199e-13
1.71216e-13
2.23828e-13
2.42426e-13
1.62225e-13
2.32379e-13
9.92876e-13
1.61971e-14
7.11904e-14
1.68627e-13
5.6239e-14
2.49476e-14
6.27933e-14
1.42894e-13
9.50096e-13
1.83108e-10
8.02177e-11
8.69703e-14
1.60454e-13
7.20379e-14
8.59904e-14
1.75557e-13
1.10413e-13
2.4632e-13
5.7558e-12
1.55756e-11
6.08342e-11
9.70964e-14
9.5592e-11
1.45566e-10
9.251e-14
2.19518e-13
2.87553e-10
2.40549e-10
2.4699e-11
1.48299e-12
3.64917e-14
1.39224e-13
1.25397e-10
4.92515e-11
2.05369e-11
1.76548e-13
8.25982e-14
6.83619e-14
8.81346e-14
1.31904e-10
1.84069e-10
1.53165e-11
1.20187e-10
1.39167e-10
9.80745e-14
2.78878e-12
8.6702e-11
1.01304e-13
1.72568e-11
1.66429e-10
1.80799e-15
1.26854e-14
2.28384e-11
4.76648e-13
2.33755e-13
8.15484e-11
5.98202e-11
4.47202e-11
9.79636e-11
1.37356e-10
8.60489e-14
4.81901e-15
3.88332e-14
1.04083e-13
7.91099e-14
2.69677e-11
4.18965e-13
5.11273e-14
1.73357e-13
6.12667e-11
3.01749e-13
4.32279e-11
4.67103e-11
5.47692e-13
1.35141e-12
1.40069e-12
5.26771e-11
4.95191e-11
4.33597e-11
9.5375e-11
4.27615e-13
3.07392e-13
2.26949e-10
1.4497e-10
6.1936e-14
1.22474e-13
1.52787e-10
1.80705e-13
1.41934e-11
2.21174e-10
3.97622e-11
1.1782e-11
4.71379e-12
1.66955e-13
8.71593e-11
2.18538e-10
2.76951e-11
3.93991e-13
1.21663e-13
3.82939e-13
5.5539e-14
5.21956e-14
1.88011e-10
2.43967e-10
3.20457e-10
5.46076e-10
1.97864e-10
1.26921e-12
4.32459e-11
3.23807e-13
4.16936e-12
2.20191e-10
2.31979e-11
2.86925e-13
7.86633e-11
3.14838e-10
2.45991e-10
2.14695e-13
1.57379e-13
4.34382e-13
2.587e-13
8.37887e-14
6.91349e-14
2.62481e-14
3.71712e-14
1.48993e-13
2.20174e-13
3.90588e-14
2.7301e-13
6.86698e-11
3.74076e-14
5.83503e-14
1.89759e-11
1.86514e-13
2.54115e-13
1.54243e-12
5.41081e-11
1.18599e-13
1.60465e-13
6.71745e-13
1.54881e-13
3.06376e-11
1.73814e-10
3.93402e-14
5.19634e-14
1.00156e-13
2.64201e-13
1.75581e-12
1.41191e-13
1.66504e-13
2.88733e-13
7.44509e-13
7.47049e-12
2.10273e-13
7.72841e-14
7.99884e-14
6.7991e-14
2.50165e-13
1.65821e-11
3.75513e-12
5.9534e-13
1.70929e-10
4.37165e-10
2.11336e-10
1.22598e-10
4.02511e-10
2.45936e-10
8.28688e-11
3.03399e-10
1.60727e-10
2.27668e-14
1.43915e-10
2.1185e-10
2.57922e-13
1.65819e-11
2.40105e-10
1.42415e-10
2.55886e-13
5.60597e-11
1.754e-10
1.78435e-13
4.01453e-13
7.29889e-13
3.41427e-13
5.82386e-13
1.85254e-10
3.58128e-14
9.87864e-14
2.28896e-13
5.02742e-13
3.19385e-13
4.47338e-13
7.45156e-13
9.1376e-14
7.76252e-14
3.95027e-12
2.20895e-10
2.01949e-10
1.98304e-10
5.15467e-13
9.18895e-14
1.47158e-13
1.3427e-13
5.3948e-14
1.47157e-13
2.99331e-10
3.09028e-10
1.21832e-10
9.52142e-11
7.6864e-14
3.36025e-14
2.15463e-13
2.60047e-13
2.11073e-13
1.37261e-10
5.31789e-10
6.02497e-10
3.28165e-10
9.38438e-11
1.14345e-13
1.12851e-13
2.20116e-10
1.26986e-10
3.16534e-14
1.79159e-13
1.4233e-13
2.08495e-13
3.3582e-13
8.42215e-14
1.63228e-13
7.74379e-12
3.04809e-10
3.42798e-10
4.42664e-13
8.18829e-11
3.64216e-10
3.60324e-10
3.89531e-10
1.14454e-10
2.19156e-14
7.97151e-14
2.56479e-14
6.01448e-14
6.39335e-13
3.47355e-11
8.7019e-14
1.27115e-13
1.84018e-13
1.66407e-10
1.52629e-10
4.92863e-14
1.99401e-13
6.76369e-14
7.06536e-14
1.48095e-13
4.95109e-13
3.03443e-13
1.98862e-13
7.77142e-12
2.4548e-13
3.72152e-10
4.26236e-10
5.41026e-11
1.94077e-13
6.68994e-11
2.08103e-10
3.83112e-10
1.95206e-10
1.41416e-13
1.30146e-10
4.19896e-11
1.20519e-10
3.42888e-11
5.39673e-14
3.56263e-14
5.73228e-14
5.14779e-14
2.85294e-13
1.03099e-10
2.61262e-10
1.71136e-10
2.5867e-10
2.01915e-10
4.58769e-13
1.31928e-10
4.70765e-10
2.60951e-10
3.65487e-10
2.94621e-10
2.67481e-13
8.99571e-12
7.38158e-11
1.6926e-12
7.15555e-13
3.96028e-11
1.28323e-10
1.46261e-13
7.21672e-14
9.85429e-14
2.62049e-14
7.46103e-11
3.4736e-10
9.28193e-14
1.00183e-14
1.28074e-10
5.52858e-10
6.00721e-13
1.59077e-13
1.13151e-10
6.51999e-13
1.72734e-13
1.17856e-10
2.48414e-10
1.87709e-11
2.22236e-10
2.12731e-12
1.11124e-10
1.82681e-10
2.14451e-14
5.92666e-14
1.74075e-14
3.77717e-14
1.28476e-13
1.40952e-13
1.70653e-10
1.13008e-13
6.18855e-14
1.04989e-13
1.01938e-13
2.04901e-13
3.91016e-13
1.171e-13
8.35951e-14
6.31928e-13
1.80006e-10
3.53626e-10
8.39316e-11
1.21156e-10
1.86865e-10
7.89378e-11
9.43129e-14
3.16334e-10
3.93854e-10
1.64618e-14
6.83802e-14
1.20368e-13
1.29979e-13
1.29639e-13
9.40385e-14
2.50175e-13
2.29692e-13
4.55108e-10
1.06656e-11
5.23402e-13
5.57104e-11
2.2528e-13
1.54371e-13
5.10297e-11
1.64227e-14
9.16955e-14
2.31722e-13
4.94181e-11
4.27412e-10
7.71715e-13
6.20818e-14
2.61164e-10
2.59989e-10
2.51918e-10
1.15072e-12
8.59586e-14
1.20158e-13
1.56806e-12
1.5134e-13
2.46435e-13
2.17685e-10
6.50689e-10
1.5075e-10
2.98932e-13
4.72576e-13
1.78249e-14
7.58486e-10
5.93805e-10
3.74193e-12
5.06948e-13
5.8329e-10
5.74133e-10
2.72331e-13
1.62454e-12
1.40649e-10
2.17234e-10
6.41307e-10
1.57069e-10
1.03038e-12
4.29373e-13
7.33913e-13
2.96568e-13
1.27038e-10
5.15138e-10
5.53361e-11
4.92769e-10
1.01378e-13
7.16525e-14
8.84558e-14
3.9219e-10
7.69979e-10
3.54694e-10
1.1513e-13
6.74114e-11
1.64463e-13
5.47877e-11
4.20864e-10
2.38638e-10
1.35528e-12
8.89921e-11
6.369e-12
3.41575e-13
5.62068e-12
6.87563e-13
2.05095e-10
1.31809e-13
2.87832e-13
1.05877e-13
3.26898e-14
1.88697e-13
4.40598e-10
5.27089e-10
1.7557e-10
2.33531e-10
4.13982e-11
1.28852e-13
1.07299e-12
1.49774e-10
1.12309e-13
8.35699e-14
7.37384e-14
3.87061e-13
3.92886e-13
1.76479e-13
1.40805e-14
2.14062e-13
5.98383e-10
2.20132e-13
1.40551e-13
2.86753e-13
1.32039e-10
3.42573e-13
2.69136e-13
5.22852e-13
3.11878e-13
9.49741e-14
2.39998e-10
9.44009e-11
1.88797e-13
3.89487e-13
6.64065e-10
5.93871e-10
7.21344e-14
1.16535e-13
4.67895e-11
1.25197e-12
6.34882e-14
2.97739e-10
8.99305e-14
3.0241e-13
4.32727e-13
7.38263e-14
2.44411e-13
5.90223e-13
1.3783e-13
2.96849e-11
8.80849e-13
1.11683e-11
9.28715e-14
6.87834e-10
1.07699e-09
4.0103e-11
3.97298e-10
1.22636e-12
1.94026e-12
9.92971e-14
1.44073e-13
2.06304e-13
2.42961e-13
4.73825e-12
3.53387e-10
1.8989e-12
9.29934e-10
2.56127e-10
2.11915e-13
8.25626e-10
9.44994e-10
1.50701e-13
3.38617e-13
5.07725e-13
3.45818e-13
5.65863e-10
1.53571e-10
7.55879e-10
8.672e-13
3.96954e-13
6.64542e-10
1.09223e-09
9.11441e-10
6.27749e-10
3.94401e-10
2.44869e-10
2.66705e-11
1.90661e-13
1.28473e-10
1.01972e-10
4.69977e-10
4.77154e-10
3.04335e-10
6.24836e-14
2.87463e-10
4.62877e-13
4.91732e-11
1.97275e-11
4.20037e-13
5.7149e-10
1.61159e-13
3.67621e-13
2.57313e-13
4.37141e-13
5.58468e-10
3.0611e-13
3.71469e-12
7.7036e-11
6.27357e-11
2.77394e-10
3.43389e-13
2.3148e-13
1.26969e-11
5.03115e-13
7.09817e-11
3.73664e-10
7.47372e-14
2.04555e-13
4.92388e-11
3.47348e-10
5.2353e-14
6.40701e-13
2.91722e-13
1.16519e-12
1.79046e-10
5.66818e-11
2.57446e-10
2.87833e-13
1.19923e-13
8.29751e-13
1.71479e-11
3.73941e-12
5.79156e-10
2.13859e-13
1.10928e-13
3.85276e-14
3.45966e-13
3.96927e-13
4.84693e-12
1.59182e-10
3.77998e-10
3.21021e-13
3.23862e-10
3.29887e-10
9.16341e-13
2.01282e-13
6.32221e-14
2.34814e-13
2.82318e-13
2.98608e-10
6.8187e-10
5.81628e-13
1.40078e-12
1.05923e-09
9.45784e-10
3.13781e-10
4.43506e-10
4.3967e-13
1.99674e-13
1.17145e-12
2.69723e-12
7.75507e-11
1.75193e-13
1.4357e-13
6.28881e-10
6.82301e-10
2.39388e-13
3.31129e-10
1.08065e-09
1.24627e-10
9.6436e-13
4.20369e-10
4.43755e-14
7.86374e-14
1.20011e-09
6.29974e-10
9.05593e-14
7.19069e-13
1.04055e-10
3.6778e-14
1.34766e-13
1.06966e-13
1.80984e-13
9.87961e-10
4.79694e-10
1.32183e-11
8.53699e-10
3.94064e-10
7.02056e-14
6.84152e-10
4.16799e-10
5.45967e-12
6.86248e-13
6.37592e-13
1.98293e-10
1.06426e-13
8.21793e-11
2.67352e-10
3.85765e-11
1.0442e-13
1.5175e-09
2.07969e-12
4.56777e-13
2.39732e-13
5.75702e-10
1.01388e-10
1.45191e-13
1.75164e-13
2.06487e-13
2.21971e-13
8.03051e-12
8.51817e-10
3.14637e-13
1.26146e-13
4.883e-11
1.13451e-09
9.79595e-10
9.48663e-13
6.12934e-14
2.95243e-10
2.44648e-13
1.14907e-10
6.32147e-14
2.60921e-13
4.03275e-10
3.01347e-10
8.33257e-10
1.14011e-10
2.33858e-13
5.93676e-10
2.22727e-10
1.93024e-10
5.37649e-14
2.20942e-13
3.28514e-10
1.91321e-10
1.05889e-13
1.54265e-13
2.30769e-10
2.70982e-10
3.99327e-14
1.17963e-09
1.10814e-09
1.09825e-10
1.70223e-13
3.12972e-11
2.56753e-13
1.13466e-13
1.37462e-13
3.30817e-13
3.09573e-12
1.43348e-13
8.14362e-14
4.48241e-10
9.38668e-15
1.60484e-13
1.17591e-13
5.48468e-13
1.94171e-13
4.23571e-10
8.96444e-14
3.80438e-12
7.72606e-10
9.02655e-10
4.5761e-13
8.31493e-13
4.53655e-13
3.17495e-13
2.91812e-12
7.74443e-10
1.23442e-09
5.74406e-14
1.04515e-12
5.63634e-10
5.30502e-10
1.80657e-12
4.24987e-10
2.62691e-10
9.98538e-14
4.66527e-10
1.75656e-09
4.99532e-10
1.15671e-13
2.33018e-10
1.38415e-09
4.3641e-10
4.59674e-10
9.90202e-13
2.78338e-10
1.50283e-12
1.13698e-10
2.00572e-10
5.39347e-10
1.31662e-13
1.10674e-09
9.03048e-10
1.45014e-13
8.3477e-13
5.64613e-10
2.1092e-12
8.32221e-13
4.51409e-14
8.19319e-14
3.1735e-10
1.11865e-10
2.10635e-10
7.39056e-10
1.39468e-13
5.27923e-13
1.58053e-12
6.23862e-10
1.84091e-10
1.01546e-09
1.034e-09
2.16422e-13
1.75767e-13
1.81524e-13
1.16551e-13
7.21337e-10
8.27125e-13
2.72338e-13
3.56203e-14
4.13893e-14
2.77955e-13
1.09149e-13
2.79715e-10
5.26561e-13
5.55675e-13
1.34358e-13
2.7544e-10
4.13379e-10
2.29167e-10
1.49532e-13
1.19637e-13
2.11574e-10
1.02771e-09
8.39367e-10
1.29687e-13
2.49522e-13
1.36002e-13
6.01462e-13
1.67516e-13
5.50508e-13
2.52521e-13
5.11934e-13
1.75516e-13
1.12862e-09
4.22524e-10
5.02462e-12
5.82359e-10
5.03243e-13
7.53454e-11
9.71671e-14
1.25942e-13
9.96554e-14
4.81493e-10
8.62158e-12
6.77206e-14
3.65278e-13
3.34897e-13
1.2745e-13
1.29458e-09
6.30118e-10
2.03211e-12
1.75646e-12
4.86901e-10
7.98548e-13
1.33585e-10
9.7949e-10
1.13223e-10
4.23629e-10
8.7112e-10
1.59639e-13
5.61135e-10
7.70704e-13
2.82032e-13
5.33112e-13
3.718e-13
1.7403e-10
2.56032e-13
1.02261e-13
7.38681e-10
6.47601e-10
1.34611e-09
1.44343e-10
7.66476e-10
6.67936e-10
3.22761e-13
2.07522e-12
7.12813e-10
6.6468e-10
1.1418e-13
1.52365e-11
1.7655e-09
4.65279e-10
1.2338e-13
5.74429e-10
5.04715e-10
3.80237e-13
1.27522e-09
7.7836e-10
2.4539e-13
1.92345e-13
1.04121e-13
5.46298e-11
1.1774e-10
1.63223e-10
3.4444e-13
4.88381e-14
2.48165e-13
1.5758e-13
1.30306e-13
7.51997e-14
1.70391e-13
1.14751e-13
5.08821e-14
8.61859e-14
4.84222e-13
3.21563e-10
9.45082e-14
1.45259e-13
8.78715e-14
3.61941e-14
2.86257e-10
9.26942e-13
1.25357e-13
2.15628e-13
1.97911e-13
1.28881e-13
9.61932e-13
5.08601e-14
3.09351e-14
1.66684e-13
7.7641e-14
6.98124e-11
5.20154e-13
7.78761e-14
2.83812e-14
7.24833e-10
4.06391e-14
1.50961e-09
8.39299e-10
1.29948e-09
9.2068e-10
1.62564e-09
8.37101e-10
1.41169e-12
6.609e-10
4.67004e-10
5.15648e-10
9.71534e-10
7.05708e-10
1.05472e-09
8.18552e-10
1.27047e-09
1.30471e-09
1.37336e-09
6.47206e-10
2.46919e-11
6.43872e-10
5.91361e-10
8.42433e-10
1.05824e-09
1.38813e-12
6.49916e-10
9.18089e-10
1.04517e-09
1.47081e-09
1.26839e-09
9.25598e-10
7.82737e-10
1.21926e-09
6.2334e-10
2.50767e-13
1.94398e-10
1.29756e-12
1.05472e-12
5.32499e-13
4.89884e-10
8.06436e-10
8.50462e-14
1.68436e-13
1.22576e-13
2.8669e-13
7.35511e-13
3.11342e-13
6.84101e-14
3.23527e-13
1.12839e-12
1.68621e-13
1.60828e-13
1.12843e-13
1.77024e-13
8.26245e-14
6.50396e-14
4.05518e-14
8.61352e-14
9.2889e-14
7.08301e-14
1.84681e-13
1.54271e-13
7.72583e-14
1.06809e-13
1.22909e-13
3.77733e-13
4.84688e-13
3.74799e-13
7.78212e-14
2.47349e-14
2.39834e-13
8.68273e-14
5.18838e-14
7.75801e-14
4.31754e-10
8.91244e-14
4.29278e-13
5.075e-13
8.91765e-14
3.64858e-14
2.61429e-13
1.31925e-09
1.27911e-09
8.58443e-10
4.53827e-10
1.4108e-09
2.26819e-09
1.3411e-09
9.03635e-10
1.00426e-09
1.63449e-09
1.84771e-09
1.39977e-09
1.25817e-09
1.22724e-09
1.29171e-09
1.44782e-09
1.30633e-09
1.10187e-09
1.63368e-09
1.62747e-09
1.51709e-09
1.13326e-09
1.82647e-09
1.65495e-09
1.03751e-09
9.14968e-10
1.63193e-09
1.52772e-09
9.8176e-10
1.70363e-09
1.82585e-09
1.26299e-09
7.59403e-10
1.37472e-09
2.26679e-09
1.85532e-09
9.17263e-10
5.59939e-10
9.33483e-10
8.97165e-10
1.11482e-13
1.1395e-13
1.55094e-13
4.87057e-13
7.2209e-13
5.56774e-14
6.02131e-14
5.51024e-13
1.71025e-13
3.04948e-14
1.31324e-13
3.1762e-13
2.43165e-13
5.95218e-14
1.07002e-13
6.96734e-14
4.87536e-14
7.99463e-14
1.45293e-13
8.83617e-14
7.94577e-14
3.73575e-13
2.85166e-13
1.7036e-13
6.61738e-13
2.06972e-13
7.82068e-14
2.1045e-14
1.47574e-14
8.32866e-14
1.54535e-13
1.12523e-13
6.36243e-13
5.1015e-13
1.28175e-13
7.41054e-14
1.05747e-13
2.13612e-13
4.61391e-13
2.81821e-13
2.12538e-09
1.95552e-09
1.95117e-09
2.10469e-09
2.12033e-09
2.52416e-09
2.33685e-09
1.90276e-09
2.03903e-09
2.29233e-09
2.21377e-09
2.00659e-09
1.66266e-09
1.84233e-09
2.10569e-09
1.82697e-09
1.92088e-09
1.75091e-09
1.76986e-09
1.97347e-09
2.3681e-09
2.80077e-09
2.6093e-09
1.88434e-09
1.54736e-09
1.85792e-09
2.14135e-09