/*--------------------------------*- C++ -*----------------------------------*\
  =========                 |
  \\      /  F ield         | OpenFOAM: The Open Source CFD Toolbox
   \\    /   O peration     | Website:  https://openfoam.org
    \\  /    A nd           | Version:  10
     \\/     M anipulation  |
\*---------------------------------------------------------------------------*/
FoamFile
{
    format      ascii;
    class       volTensorField;
    location    "6";
    object      strainTensor;
}
// * * * * * * * * * * * * * * * * * * * * * * * * * * * * * * * * * * * * * //

dimensions      [0 0 -1 0 0 0 0];

internalField   nonuniform List<tensor> 
25600
(
(-0.0257148 0 0 0 0.145639 0 0 0 -0.101902)
(-0.070659 0 0 0 0.148411 0 0 0 -0.075445)
(-0.0799918 0 0 0 0.126045 0 0 0 -0.0309463)
(-0.0591985 0 -0 0 0.0584706 0 -0 0 -0.00529238)
(-0.00618697 0 -0 0 0.00227688 -0 -0 -0 -0.037818)
(0.0153782 0 -0 0 0.0285626 -0 -0 -0 -0.0820386)
(-0.00502688 0 -0 0 0.0690421 0 -0 0 -0.0966717)
(-0.0484059 -0 -0 -0 0.0797946 0 -0 0 -0.0508273)
(-0.109885 -0 -0 -0 0.0275201 0 -0 0 0.0600744)
(-0.122531 -0 -0 -0 -0.064226 -0 -0 -0 0.166122)
(-0.10004 -0 -0 -0 -0.12848 -0 -0 -0 0.211892)
(-0.0591836 -0 -0 -0 -0.148777 -0 -0 -0 0.189358)
(0.00381927 -0 -0 -0 -0.144658 -0 -0 -0 0.12315)
(0.0471484 0 0 0 -0.155782 -0 0 -0 0.058943)
(0.0736762 0 0 0 -0.188157 0 0 0 0.0631873)
(0.10229 -0 0 -0 -0.224717 0 0 0 0.0974462)
(0.115872 -0 0 -0 -0.262657 0 0 0 0.106268)
(0.130507 -0 0 -0 -0.243545 0 0 0 0.0936265)
(0.0932034 -0 0 -0 -0.182205 0 0 0 0.0870489)
(-0.0169423 -0 0 -0 -0.103084 -0 0 -0 0.111157)
(-0.121537 -0 0 -0 -0.018289 -0 0 -0 0.14634)
(-0.206254 -0 0 -0 0.0572616 -0 0 -0 0.148698)
(-0.180237 -0 -0 -0 0.127969 0 -0 0 0.0361795)
(-0.0453488 -0 -0 -0 0.208182 0 -0 0 -0.18073)
(0.108152 -0 -0 -0 0.249895 0 -0 0 -0.400579)
(0.230124 -0 -0 -0 0.260057 0 -0 0 -0.510075)
(0.17723 -0 -0 -0 0.265926 -0 -0 -0 -0.438506)
(-0.0313109 0 -0 0 0.228452 0 -0 0 -0.2469)
(-0.18559 0 -0 0 0.222953 0 -0 0 -0.0592427)
(-0.228433 0 -0 0 0.197988 0 -0 0 0.0212327)
(-0.165656 0 -0 0 0.0893408 -0 -0 -0 0.022608)
(-0.0293509 0 -0 0 0.0214843 -0 -0 -0 0.00161652)
(0.0741317 0 0 0 -0.0287992 -0 0 -0 -0.0271325)
(0.126006 0 0 0 -0.0907224 0 0 0 -0.0463212)
(0.156159 0 0 0 -0.0962542 0 0 0 -0.0573646)
(0.14267 0 0 0 -0.0695583 0 0 0 -0.0593798)
(0.110179 0 0 0 -0.0233582 0 0 0 -0.0693378)
(0.0914118 0 0 0 0.0376583 0 0 0 -0.0947303)
(0.0674424 0 0 0 0.0525006 0 0 0 -0.100372)
(0.0320823 0 0 0 0.0874095 0 0 0 -0.103734)
(0.214226 -0 0 -0 0.0365904 0 0 0 -0.266711)
(0.104753 -0 0 -0 -0.0122873 -0 0 -0 -0.118071)
(-0.0364038 -0 0 -0 -0.000737524 -0 0 -0 0.056753)
(-0.129169 -0 -0 -0 0.0485146 -0 -0 -0 0.138203)
(-0.136756 -0 -0 -0 0.0839485 -0 -0 -0 0.109106)
(-0.120219 -0 -0 -0 0.104261 -0 -0 -0 0.0793329)
(-0.152005 -0 -0 -0 0.0571627 -0 -0 -0 0.114181)
(-0.174675 -0 -0 -0 -0.0461963 -0 -0 -0 0.199347)
(-0.130221 -0 -0 -0 -0.128118 -0 -0 -0 0.254959)
(-0.0335414 -0 -0 -0 -0.199815 -0 -0 -0 0.217633)
(0.0737031 -0 0 -0 -0.232853 -0 0 -0 0.117563)
(0.155009 -0 0 -0 -0.18357 0 0 0 0.0253743)
(0.146798 -0 -0 -0 -0.11047 0 -0 0 -0.0248839)
(0.0255529 -0 -0 -0 -0.0307632 0 -0 0 -0.0217792)
(-0.116981 -0 -0 -0 0.0545993 -0 -0 -0 0.0266751)
(-0.148782 -0 -0 -0 0.0662115 -0 -0 -0 0.0461558)
(-0.0716352 -0 -0 -0 0.00440683 -0 -0 -0 0.027913)
(0.0533376 -0 -0 -0 -0.0613037 -0 -0 -0 0.00802573)
(0.104731 -0 0 -0 -0.071518 0 0 0 -0.00828419)
(0.0134625 -0 0 -0 0.0111384 0 0 0 -0.000985856)
(-0.0842528 -0 0 -0 0.102786 0 0 0 -0.00492429)
(-0.10103 0 -0 0 0.149253 0 -0 0 -0.0468141)
(0.00778368 0 -0 0 0.149879 0 -0 0 -0.150532)
(0.170168 0 0 0 0.133471 -0 0 -0 -0.283967)
(0.248773 0 0 0 0.102277 -0 0 -0 -0.315611)
(0.199813 -0 0 -0 0.036058 -0 0 -0 -0.213984)
(0.0565737 -0 -0 -0 -0.0197762 -0 -0 -0 -0.0521111)
(-0.0748965 -0 -0 -0 -0.0671968 0 -0 0 0.0848541)
(-0.125753 -0 -0 -0 -0.0549416 0 -0 0 0.154604)
(-0.130335 -0 -0 -0 -0.0289006 -0 -0 -0 0.151464)
(-0.0986411 0 -0 0 -0.0301619 -0 -0 -0 0.080479)
(0.00762859 0 -0 0 0.0231314 -0 -0 -0 -0.0375881)
(0.0992046 0 0 0 0.0540143 -0 0 -0 -0.141905)
(0.0881067 0 0 0 0.032097 -0 0 -0 -0.13909)
(0.0244803 -0 0 -0 0.021451 0 0 0 -0.0439552)
(-0.0731676 -0 0 -0 0.0266562 0 0 0 0.0424283)
(-0.114979 -0 0 -0 0.0665678 0 0 0 0.0423613)
(-0.0304225 -0 -0 -0 0.103894 0 -0 0 -0.0658032)
(0.0913535 -0 -0 -0 0.0859384 0 -0 0 -0.199847)
(0.198407 -0 0 -0 0.0650619 0 0 0 -0.288927)
(0.191764 -0 0 -0 -0.0571014 0 0 0 -0.105231)
(0.0731267 -0 -0 -0 -0.0402482 0 -0 0 -0.0417548)
(-0.176629 -0 -0 -0 0.0486091 0 -0 0 0.0950605)
(-0.44849 -0 -0 -0 0.131768 -0 -0 -0 0.234585)
(-0.481212 -0 -0 -0 0.0964945 -0 -0 -0 0.322397)
(-0.306396 -0 -0 -0 -0.0409525 -0 -0 -0 0.354194)
(-0.111531 -0 -0 -0 -0.247761 -0 -0 -0 0.338186)
(0.0882925 -0 -0 -0 -0.386388 -0 -0 -0 0.270138)
(0.200866 -0 -0 -0 -0.358734 -0 -0 -0 0.19827)
(0.17157 -0 0 -0 -0.297422 0 0 0 0.132453)
(0.124648 -0 0 -0 -0.199644 0 0 0 0.0552899)
(0.0819013 -0 0 -0 -0.0572397 0 0 0 0.000859277)
(0.0217539 -0 0 -0 -0.0026426 0 0 0 -0.0227337)
(-0.00211313 -0 0 -0 -0.0249898 0 0 0 -0.00710416)
(0.0549342 -0 0 -0 -0.067834 0 0 0 -0.00304663)
(0.133325 -0 0 -0 -0.108454 0 0 0 -0.0304747)
(0.152724 -0 0 -0 -0.0999046 0 0 0 -0.0654831)
(0.131654 -0 0 -0 -0.0897575 0 0 0 -0.0732828)
(0.108124 -0 0 -0 -0.0812604 0 0 0 -0.0661622)
(0.0794424 -0 0 -0 -0.0980523 0 0 0 -0.0276482)
(0.0599043 0 0 0 -0.141997 0 0 0 0.0293042)
(0.0458697 0 -0 0 -0.158492 0 -0 0 0.0884459)
(-0.013646 0 -0 0 -0.102234 -0 -0 -0 0.0995075)
(-0.0394326 0 -0 0 -0.0277671 -0 -0 -0 0.00897917)
(-0.0244972 -0 -0 -0 0.0510564 -0 -0 -0 -0.0645947)
(-0.0182712 -0 -0 -0 0.0481876 -0 -0 -0 -0.0658261)
(-0.0192131 -0 -0 -0 -0.0303262 0 -0 0 -0.00104243)
(-0.0426961 -0 -0 -0 -0.0771107 0 -0 0 0.105861)
(-0.0376405 -0 -0 -0 -0.0812607 0 -0 0 0.157394)
(0.00491428 -0 -0 -0 -0.0594577 0 -0 0 0.0772804)
(0.0922876 -0 -0 -0 -0.00195808 -0 -0 -0 -0.0960995)
(0.172045 0 -0 0 0.0699398 -0 -0 -0 -0.231403)
(0.0796401 -0 0 -0 0.0845827 -0 0 -0 -0.164622)
(-0.086867 -0 0 -0 0.00718753 -0 0 -0 0.0586258)
(-0.154905 -0 0 -0 -0.0905349 0 0 0 0.239604)
(-0.156806 -0 0 -0 -0.157466 0 0 0 0.305105)
(-0.0853376 -0 0 -0 -0.18628 -0 0 -0 0.283415)
(-0.0206095 -0 0 -0 -0.161965 -0 0 -0 0.213279)
(0.0179642 -0 0 -0 -0.105368 0 0 0 0.111678)
(0.139539 -0 0 -0 -0.0633769 0 0 0 -0.0338339)
(-0.0541925 -0 -0 -0 -0.0313055 0 -0 0 0.0417949)
(-0.199217 -0 -0 -0 0.0185364 0 -0 0 0.182887)
(-0.338446 -0 -0 -0 0.0846064 0 -0 0 0.294509)
(-0.356215 -0 -0 -0 0.10918 0 -0 0 0.23799)
(-0.227241 -0 -0 -0 0.0836218 -0 -0 -0 0.0896436)
(-0.0953718 -0 0 -0 0.0231726 -0 0 -0 -0.00112449)
(-0.0203064 0 0 0 -0.104368 -0 0 -0 0.00451546)
(0.0249409 0 0 0 -0.21853 -0 0 -0 0.117871)
(0.048258 0 0 0 -0.298099 -0 0 -0 0.234387)
(0.0610875 -0 0 -0 -0.378071 0 0 0 0.251379)
(0.105441 -0 0 -0 -0.328605 0 0 0 0.183685)
(0.149226 -0 0 -0 -0.2452 0 0 0 0.0791599)
(0.184888 -0 0 -0 -0.207514 0 0 0 -0.031694)
(0.250188 -0 0 -0 -0.128214 0 0 0 -0.154358)
(0.269855 -0 0 -0 -0.0667604 0 0 0 -0.212016)
(0.171868 -0 0 -0 -0.0493651 0 0 0 -0.137925)
(0.065227 -0 0 -0 -0.128579 0 0 0 0.00766208)
(0.075174 -0 0 -0 -0.250395 0 0 0 0.079735)
(0.186758 -0 0 -0 -0.269696 0 0 0 0.040314)
(0.262077 -0 0 -0 -0.241268 0 0 0 -0.0336689)
(0.211829 -0 0 -0 -0.243737 0 0 0 -0.00539532)
(0.0698764 -0 0 -0 -0.228593 -0 0 -0 0.165693)
(-0.0908141 -0 -0 -0 -0.204093 -0 -0 -0 0.302672)
(-0.123494 -0 -0 -0 -0.144796 -0 -0 -0 0.257765)
(-0.0218192 -0 -0 -0 -0.0381516 -0 -0 -0 0.0987183)
(0.00425879 -0 -0 -0 -0.0161606 0 -0 0 0.0317286)
(-0.146102 -0 -0 -0 -0.0198871 0 -0 0 0.128588)
(-0.252256 -0 -0 -0 0.0357214 0 -0 0 0.215973)
(-0.166808 -0 -0 -0 0.0262059 0 -0 0 0.170292)
(0.0454651 -0 -0 -0 -0.079099 0 -0 0 0.0335613)
(0.233264 -0 -0 -0 -0.172951 -0 -0 -0 -0.0665712)
(0.171178 -0 -0 -0 -0.195533 -0 -0 -0 0.0202362)
(-0.074651 -0 -0 -0 -0.155566 -0 -0 -0 0.199568)
(-0.189512 -0 -0 -0 -0.0907304 -0 -0 -0 0.257274)
(-0.136704 -0 -0 -0 -0.0138905 -0 -0 -0 0.168846)
(-0.077844 -0 0 -0 0.0447921 -0 0 -0 0.0787266)
(-0.0460852 -0 0 -0 0.0542786 -0 0 -0 0.0410596)
(-0.026345 -0 0 -0 0.0220835 0 0 0 0.0281152)
(0.017649 -0 0 -0 -0.0182439 0 0 0 -0.000662017)
(0.0349152 -0 -0 -0 -0.0360307 0 -0 0 -0.0150866)
(0.212062 -0 -0 -0 -0.179742 0 -0 0 0.0543515)
(0.0455955 0 -0 0 -0.0857715 0 -0 0 0.142127)
(-0.186519 0 0 0 0.105439 0 0 0 0.119341)
(-0.221644 0 0 0 0.349781 0 0 0 -0.108021)
(-0.064345 0 0 0 0.597051 0 0 0 -0.403215)
(0.0699492 0 0 0 0.640707 0 0 0 -0.544452)
(0.028712 0 0 0 0.482639 0 0 0 -0.399603)
(-0.0825555 0 0 0 0.287859 0 0 0 -0.10249)
(-0.0966805 0 -0 0 0.0394982 0 -0 0 0.126523)
(-0.0630785 0 -0 0 -0.152022 0 -0 0 0.214092)
(-0.0247595 0 -0 0 -0.128475 0 -0 0 0.204327)
(-0.0238961 0 -0 0 -0.0214589 0 -0 0 0.0975092)
(-0.0297694 0 -0 0 0.0657418 0 -0 0 -0.0073685)
(0.0568987 0 0 0 0.057715 0 0 0 -0.052645)
(0.177333 -0 0 -0 -0.061456 0 0 0 -0.0798058)
(0.288012 -0 0 -0 -0.143273 0 0 0 -0.153197)
(0.324621 0 0 0 -0.107293 0 0 0 -0.249658)
(0.204623 -0 -0 -0 0.0747203 0 -0 0 -0.241934)
(0.0102516 -0 -0 -0 0.183862 0 -0 0 -0.0738156)
(-0.0921909 -0 -0 -0 0.0562443 0 -0 0 0.112981)
(-0.0208441 -0 0 -0 -0.128393 -0 0 -0 0.204177)
(0.0774013 -0 0 -0 -0.142106 -0 0 -0 0.191059)
(0.0376206 -0 0 -0 -0.0179503 -0 0 -0 0.0442006)
(-0.0367706 -0 0 -0 0.152097 -0 0 -0 -0.0816954)
(-0.0628341 -0 -0 -0 0.189681 0 -0 0 -0.0388272)
(-0.144381 -0 -0 -0 0.0911089 0 -0 0 0.0709021)
(-0.15933 -0 -0 -0 -0.0160415 0 -0 0 0.111024)
(-0.000600613 -0 -0 -0 -0.0770867 0 -0 0 0.0976714)
(0.0785978 -0 -0 -0 -0.124553 0 -0 0 0.0926045)
(0.0615554 0 -0 0 -0.14149 0 -0 0 0.0772527)
(0.126252 0 -0 0 -0.174283 0 -0 0 0.0722198)
(0.160067 0 -0 0 -0.236477 0 -0 0 0.109266)
(0.0687157 -0 0 -0 -0.222196 -0 0 -0 0.156468)
(-0.105562 -0 0 -0 -0.0577069 -0 0 -0 0.210688)
(-0.294704 -0 0 -0 0.0650712 -0 0 -0 0.294374)
(-0.355389 -0 0 -0 -0.0202101 -0 0 -0 0.353554)
(-0.261071 0 -0 0 -0.178398 -0 -0 -0 0.360238)
(-0.0706266 0 -0 0 -0.275192 0 -0 0 0.293421)
(0.13669 0 -0 0 -0.246055 0 -0 0 0.13502)
(0.232593 0 -0 0 -0.193473 0 -0 0 0.0191568)
(0.100492 0 -0 0 -0.34801 -0 -0 -0 0.182358)
(0.159611 0 -0 0 -0.163314 -0 -0 -0 0.00674329)
(0.0950161 0 -0 0 0.055472 0 -0 0 -0.15278)
(0.183634 0 -0 0 0.120885 0 -0 0 -0.320939)
(0.352047 0 0 0 0.11384 0 0 0 -0.433551)
(0.213469 0 0 0 0.0459979 -0 0 -0 -0.291758)
(-0.27882 0 0 0 0.128251 -0 0 -0 0.0505296)
(-0.625683 -0 0 -0 0.396451 -0 0 -0 0.196169)
(-0.526723 -0 0 -0 0.509385 -0 0 -0 -0.0142036)
(-0.153885 -0 -0 -0 0.513242 0 -0 0 -0.374402)
(0.0859357 -0 -0 -0 0.457237 0 -0 0 -0.541156)
(-0.016082 0 -0 0 0.307662 0 -0 0 -0.361775)
(-0.168682 0 -0 0 0.133326 0 -0 0 -0.0287336)
(-0.0250909 0 -0 0 -0.188305 0 -0 0 0.172814)
(0.329649 0 0 0 -0.42679 0 0 0 0.0707699)
(0.475605 0 0 0 -0.155758 0 0 0 -0.28442)
(0.104222 -0 -0 -0 0.470119 0 -0 0 -0.611101)
(-0.397503 -0 -0 -0 0.887793 0 -0 0 -0.544897)
(-0.487118 -0 -0 -0 0.675081 -0 -0 -0 -0.190475)
(-0.169537 -0 0 -0 0.028096 -0 0 -0 0.136121)
(0.261979 -0 0 -0 -0.446206 -0 0 -0 0.194777)
(0.444392 -0 0 -0 -0.373772 -0 0 -0 -0.0538521)
(0.216381 0 0 0 0.0721127 0 0 0 -0.370011)
(-0.0688204 0 0 0 0.323472 0 0 0 -0.392716)
(-0.0856959 -0 0 -0 0.132668 0 0 0 -0.136492)
(-0.0369404 -0 -0 -0 -0.207836 0 -0 0 0.148268)
(0.0126957 -0 -0 -0 -0.361876 -0 -0 -0 0.279433)
(0.143986 0 -0 0 -0.230491 -0 -0 -0 0.150518)
(0.167952 0 -0 0 -0.0358108 0 -0 0 -0.128572)
(0.071174 0 -0 0 0.200202 0 -0 0 -0.361527)
(0.0148579 0 -0 0 0.415238 0 -0 0 -0.447695)
(-0.0251014 -0 -0 -0 0.365376 -0 -0 -0 -0.335232)
(-0.0438054 -0 0 -0 0.10851 -0 0 -0 -0.0914835)
(-0.100202 -0 0 -0 -0.132378 0 0 0 0.237002)
(-0.140521 -0 0 -0 -0.273903 0 0 0 0.477147)
(0.035021 -0 0 -0 -0.29814 0 0 0 0.401809)
(0.172395 0 -0 0 -0.156655 -0 -0 -0 0.172269)
(0.0270267 0 -0 0 0.000337501 0 -0 0 0.104496)
(-0.182258 0 -0 0 -0.0412491 0 -0 0 0.255941)
(-0.135072 0 -0 0 -0.248863 -0 -0 -0 0.322407)
(0.301694 0 -0 0 -0.0812636 -0 -0 -0 -0.142031)
(0.253 0 -0 0 -0.00683466 -0 -0 -0 -0.10296)
(0.0786841 0 -0 0 -0.264173 -0 -0 -0 0.176993)
(0.154773 -0 -0 -0 -0.841747 -0 -0 -0 0.623181)
(0.293276 -0 0 -0 -1.1559 -0 0 -0 0.884688)
(-0.0987992 -0 0 -0 -0.875893 -0 0 -0 1.03818)
(-0.676223 -0 0 -0 -0.244327 0 0 0 1.00767)
(-0.75716 -0 0 -0 0.257866 0 0 0 0.469732)
(-0.488408 -0 0 -0 0.439653 0 0 0 -0.109351)
(-0.0675052 -0 -0 -0 0.342921 0 -0 0 -0.380642)
(0.230759 -0 -0 -0 0.0280918 0 -0 0 -0.298517)
(0.200999 -0 -0 -0 -0.148443 0 -0 0 -0.0801233)
(0.170357 -0 -0 -0 -0.240075 0 -0 0 0.0622032)
(0.240604 -0 -0 -0 -0.380762 0 -0 0 0.255694)
(0.164666 -0 -0 -0 -0.191372 0 -0 0 0.305673)
(-0.146141 -0 -0 -0 0.365165 0 -0 0 -0.0130684)
(-0.412325 -0 -0 -0 0.928455 0 -0 0 -0.497083)
(-0.261924 -0 -0 -0 1.0047 -0 -0 -0 -0.757573)
(-0.0383367 -0 0 -0 0.500052 -0 0 -0 -0.513093)
(0.0198938 -0 0 -0 -0.0360246 -0 0 -0 -0.0608307)
(0.305561 -0 0 -0 -0.390849 0 0 0 0.0924828)
(0.604219 -0 0 -0 -0.514126 0 0 0 -0.0806466)
(0.343982 -0 -0 -0 -0.323058 0 -0 0 -0.11094)
(-0.145681 -0 -0 -0 0.0196472 0 -0 0 0.102245)
(-0.256109 0 -0 0 0.0904184 0 -0 0 0.247763)
(-0.0823585 0 0 0 -0.0603106 0 0 0 0.170553)
(0.18837 0 0 0 -0.0772861 0 0 0 -0.105151)
(0.331488 0 0 0 -0.0252975 0 0 0 -0.267102)
(0.0922495 0 -0 0 0.0396279 0 -0 0 -0.152092)
(-0.176125 -0 -0 -0 0.340129 -0 -0 -0 -0.184737)
(-0.145511 -0 -0 -0 0.570886 -0 -0 -0 -0.427016)
(-0.0547735 -0 -0 -0 0.376637 -0 -0 -0 -0.42251)
(-0.0727968 -0 0 -0 -0.119232 -0 0 -0 0.0837395)
(-0.135754 -0 0 -0 -0.530807 -0 0 -0 0.636263)
(-0.0245501 -0 0 -0 -0.576241 -0 0 -0 0.614816)
(0.216963 -0 -0 -0 -0.359192 -0 -0 -0 0.151784)
(0.224785 -0 -0 -0 -0.0900181 0 -0 0 -0.15744)
(-0.0682242 -0 -0 -0 0.187235 0 -0 0 -0.162122)
(-0.280125 0 -0 0 0.214578 0 -0 0 0.0225749)
(-0.0274954 0 -0 0 -0.00708836 -0 -0 -0 0.0165423)
(0.0870359 0 0 0 -0.0409206 0 0 0 -0.0998186)
(-0.0319245 0 0 0 -0.0733753 0 0 0 0.0616964)
(-0.0679907 0 -0 0 -0.215949 -0 -0 -0 0.246162)
(0.0368191 -0 0 -0 -0.377257 -0 0 -0 0.419161)
(-0.0952535 -0 0 -0 -0.301063 -0 0 -0 0.463167)
(-0.499865 -0 0 -0 -0.169585 -0 0 -0 0.602988)
(-0.562882 -0 0 -0 -0.177241 0 0 0 0.691965)
(-0.250073 -0 0 -0 -0.268713 0 0 0 0.400743)
(-0.108015 -0 0 -0 -0.193637 0 0 0 0.0502202)
(-0.112064 -0 0 -0 0.0748711 0 0 0 -0.111366)
(-0.101815 -0 0 -0 0.280307 0 0 0 -0.169874)
(-0.0504112 -0 0 -0 0.308677 0 0 0 -0.251448)
(0.026082 -0 0 -0 0.14354 0 0 0 -0.177176)
(-0.0980502 -0 -0 -0 0.144661 0 -0 0 0.0143646)
(-0.164055 -0 -0 -0 0.224561 0 -0 0 -0.053941)
(0.118508 -0 -0 -0 0.129719 -0 -0 -0 -0.29742)
(0.380308 0 0 0 -0.0619358 -0 0 -0 -0.236502)
(0.377625 0 0 0 -0.332254 -0 0 -0 0.0761622)
(0.0351936 -0 0 -0 -0.36986 -0 0 -0 0.315544)
(-0.264483 -0 0 -0 -0.282876 0 0 0 0.458771)
(-0.0420803 -0 0 -0 -0.229934 0 0 0 0.414908)
(0.308245 -0 0 -0 -0.243205 0 0 0 0.154372)
(0.437591 -0 -0 -0 -0.24603 0 -0 0 -0.153181)
(0.545932 -0 -0 -0 -0.187784 0 -0 0 -0.369872)
(0.460966 0 -0 0 0.0450848 0 -0 0 -0.44327)
(0.00571587 0 0 0 0.000263667 0 0 0 -0.0257407)
(-0.199293 0 0 0 -0.270872 0 0 0 0.443105)
(-0.153193 0 0 0 -0.110722 0 0 0 0.389663)
(-0.240332 -0 0 -0 0.205078 -0 0 -0 0.0405479)
(-0.0414099 -0 -0 -0 -0.0623039 -0 -0 -0 -0.137566)
(0.0850672 -0 -0 -0 -0.490802 -0 -0 -0 0.196256)
(-0.284415 -0 -0 -0 -0.327296 -0 -0 -0 0.613399)
(-0.463535 -0 -0 -0 0.0190563 -0 -0 -0 0.548301)
(-0.329438 -0 -0 -0 0.247742 -0 -0 -0 0.148727)
(-0.0686232 -0 -0 -0 0.277847 0 -0 0 -0.156599)
(0.284811 -0 -0 -0 -0.0485919 0 -0 0 -0.206842)
(0.518366 -0 -0 -0 -0.501034 0 -0 0 -0.0249221)
(0.406617 -0 -0 -0 -0.555522 -0 -0 -0 0.144939)
(0.0832644 0 0 0 -0.249048 -0 0 -0 0.1248)
(0.031055 0 0 0 -0.0858099 -0 0 -0 -0.0455156)
(0.322959 -0 -0 -0 0.0197059 0 -0 0 -0.286867)
(-0.574397 -0 -0 -0 0.583894 -0 -0 -0 -0.041313)
(-0.881485 -0 -0 -0 0.726524 -0 -0 -0 -0.0405298)
(-0.597368 -0 -0 -0 0.343773 0 -0 0 0.0571491)
(-0.343092 -0 -0 -0 0.0490983 0 -0 0 0.189297)
(-0.331791 -0 -0 -0 0.197014 0 -0 0 0.0650939)
(-0.278569 0 -0 0 0.142056 0 -0 0 -0.0109084)
(-0.0457349 0 0 0 -0.257518 0 0 0 0.166401)
(-0.01376 0 0 0 -0.270854 0 0 0 0.190635)
(-0.330832 0 0 0 0.0875939 0 0 0 0.203339)
(-0.529144 0 0 0 0.158242 0 0 0 0.269869)
(-0.193431 -0 0 -0 -0.0602608 0 0 0 0.120848)
(0.12735 -0 0 -0 -0.00599329 0 0 0 -0.117192)
(0.0317079 -0 -0 -0 0.174096 0 -0 0 -0.288601)
(0.161787 0 -0 0 0.0249135 0 -0 0 -0.197195)
(0.623891 0 0 0 -0.378152 -0 0 -0 -0.183092)
(0.664756 0 0 0 -0.649004 -0 0 -0 -0.010754)
(0.172989 0 0 0 -0.73588 -0 0 -0 0.420711)
(-0.259191 -0 0 -0 -0.531407 -0 0 -0 0.618351)
(-0.39979 -0 -0 -0 -0.245463 -0 -0 -0 0.580152)
(-0.355155 0 -0 0 -0.0831501 0 -0 0 0.431734)
(-0.122003 0 -0 0 -0.117275 0 -0 0 0.21952)
(0.401937 -0 0 -0 -0.386731 0 0 0 -0.0757745)
(0.878132 -0 0 -0 -0.672371 0 0 0 -0.333398)
(0.740224 -0 0 -0 -0.426106 0 0 0 -0.412799)
(0.191355 -0 0 -0 0.0834881 0 0 0 -0.261563)
(-0.269011 -0 0 -0 0.63172 0 0 0 -0.19781)
(-0.468475 -0 -0 -0 0.581639 -0 -0 -0 0.0560596)
(-0.210677 -0 -0 -0 -0.569118 -0 -0 -0 0.840571)
(0.0500379 0 0 0 -1.51617 -0 0 -0 1.32087)
(-0.404238 -0 0 -0 -1.02074 -0 0 -0 1.2682)
(-0.76416 -0 0 -0 -0.163698 -0 0 -0 0.901744)
(-0.42594 -0 0 -0 0.144156 -0 0 -0 0.275292)
(-0.0310678 -0 0 -0 0.261482 -0 0 -0 -0.274779)
(0.297801 -0 0 -0 0.374998 0 0 0 -0.617024)
(0.467246 -0 0 -0 0.317385 0 0 0 -0.787787)
(0.519355 -0 0 -0 0.210306 -0 0 -0 -0.6574)
(0.660398 -0 -0 -0 0.0519951 -0 -0 -0 -0.554585)
(0.734096 -0 -0 -0 -0.106043 0 -0 0 -0.590819)
(0.783292 -0 -0 -0 -0.255981 0 -0 0 -0.530694)
(0.0768369 -0 -0 -0 0.573303 -0 -0 -0 -0.3921)
(-0.254296 -0 -0 -0 0.316172 -0 -0 -0 0.211897)
(-0.10386 -0 -0 -0 0.17147 -0 -0 -0 -0.0345414)
(0.196614 -0 -0 -0 0.0987777 -0 -0 -0 -0.325558)
(-0.00722904 -0 -0 -0 0.177564 0 -0 0 -0.330914)
(-0.170408 0 0 0 0.404045 0 0 0 -0.414054)
(0.00688666 0 0 0 0.309398 0 0 0 -0.261227)
(-0.200436 0 0 0 0.179518 -0 0 -0 0.157734)
(-0.515198 -0 0 -0 0.0922619 -0 0 -0 0.440316)
(-0.326469 -0 0 -0 -0.167906 -0 0 -0 0.539548)
(-0.246683 0 0 0 0.0398697 0 0 0 0.406534)
(-0.618034 0 0 0 0.583821 0 0 0 0.149266)
(-0.520088 -0 0 -0 0.382778 0 0 0 -0.000114062)
(0.472441 -0 0 -0 -0.464677 0 0 0 -0.109899)
(1.25367 0 0 0 -0.65672 -0 0 -0 -0.487251)
(0.912255 0 0 0 -0.225831 -0 0 -0 -0.604357)
(-0.0651959 0 0 0 0.319303 0 0 0 -0.0847995)
(-0.501356 -0 0 -0 0.217002 0 0 0 0.57652)
(-0.198589 -0 -0 -0 -0.136138 0 -0 0 0.593578)
(-0.0261146 -0 -0 -0 0.221911 0 -0 0 0.0453176)
(-0.149917 -0 -0 -0 0.226551 0 -0 0 -0.261231)
(-0.186924 0 -0 0 -0.251465 0 -0 0 -0.0448511)
(0.149491 0 0 0 -0.55406 0 0 0 0.146463)
(0.560167 -0 0 -0 -0.489924 0 0 0 0.0964183)
(0.42267 -0 0 -0 -0.297575 -0 0 -0 0.0659443)
(-0.231584 -0 0 -0 0.00849329 -0 0 -0 0.138649)
(-0.668476 -0 -0 -0 0.602874 -0 -0 -0 -0.0630369)
(-0.0860711 -0 -0 -0 0.381738 -0 -0 -0 -0.409407)
(0.68888 -0 -0 -0 -0.201495 0 -0 0 -0.552881)
(0.258716 -0 0 -0 0.041229 0 0 0 -0.15381)
(-0.590581 -0 0 -0 -0.132725 0 0 0 0.647415)
(-0.728141 -0 0 -0 -0.541872 0 0 0 1.06103)
(-0.35617 -0 0 -0 -0.792854 0 0 0 0.851315)
(0.0400313 -0 0 -0 -0.616624 0 0 0 0.346254)
(0.0589526 -0 0 -0 -0.0230765 0 0 0 -0.092898)
(-0.0281616 -0 0 -0 0.196816 0 0 0 -0.171338)
(0.208321 -0 0 -0 0.035849 0 0 0 -0.0575771)
(0.488927 -0 0 -0 -0.0151469 0 0 0 -0.273414)
(0.556282 -0 -0 -0 0.19329 -0 -0 -0 -0.831573)
(0.428844 -0 -0 -0 0.500139 -0 -0 -0 -0.963949)
(0.25214 -0 0 -0 -0.823395 -0 0 -0 0.637927)
(0.699235 -0 0 -0 -1.2221 -0 0 -0 0.56072)
(0.356242 -0 -0 -0 -0.752582 0 -0 0 0.281766)
(-0.183002 -0 -0 -0 -0.0643057 -0 -0 -0 0.255505)
(-0.284041 -0 0 -0 0.284635 0 0 0 0.315467)
(0.0281884 -0 0 -0 0.118446 0 0 0 0.139779)
(-0.0975347 -0 0 -0 0.227929 0 0 0 -0.13882)
(-0.684609 -0 -0 -0 0.99983 -0 -0 -0 -0.394504)
(-0.585153 -0 0 -0 0.81237 0 0 0 -0.315304)
(0.12759 -0 0 -0 -0.376364 0 0 0 0.112306)
(0.110299 -0 0 -0 -0.399517 0 0 0 0.204727)
(-0.56984 -0 0 -0 0.413611 0 0 0 0.0969737)
(-0.368857 0 0 0 0.328906 -0 0 -0 0.0763835)
(0.626585 0 0 0 -0.385483 -0 0 -0 -0.170059)
(1.05812 0 -0 0 -0.500853 -0 -0 -0 -0.781286)
(0.534385 0 -0 0 0.0665614 -0 -0 -0 -0.744784)
(-0.207101 -0 -0 -0 0.467408 0 -0 0 -0.152599)
(-0.172762 -0 -0 -0 -0.272061 0 -0 0 0.39435)
(0.0853724 -0 -0 -0 -0.766237 -0 -0 -0 0.476433)
(-0.324226 -0 -0 -0 0.0154938 -0 -0 -0 0.202798)
(-0.382347 -0 -0 -0 0.472988 -0 -0 -0 0.0312782)
(0.00185757 -0 0 -0 0.242285 0 0 0 -0.159087)
(-0.161174 -0 -0 -0 0.169022 0 -0 0 -0.0797546)
(-0.304776 -0 0 -0 0.0733281 0 0 0 0.221006)
(0.0168236 -0 0 -0 0.160928 -0 0 -0 -0.0676757)
(0.252867 -0 0 -0 0.595981 -0 0 -0 -0.798799)
(0.476045 0 0 0 0.534239 -0 0 -0 -0.990766)
(0.62732 0 0 0 0.118637 -0 0 -0 -0.788059)
(-0.0602435 0 0 0 0.828961 0 0 0 -0.864865)
(-0.757071 -0 0 -0 0.843898 0 0 0 -0.203475)
(-0.460828 -0 0 -0 -0.688898 -0 0 -0 0.95563)
(-0.215669 -0 -0 -0 -1.03064 -0 -0 -0 1.1645)
(-0.172407 -0 -0 -0 -0.92428 -0 -0 -0 1.04072)
(0.127728 -0 -0 -0 -1.2106 -0 -0 -0 1.01291)
(0.0744908 -0 0 -0 -1.14749 0 0 0 0.895187)
(-0.160712 0 0 0 -0.747947 0 0 0 0.585527)
(0.0119062 0 0 0 -0.490425 0 0 0 0.0865799)
(0.4385 0 0 0 -0.603009 0 0 0 -0.284047)
(0.338245 0 0 0 -0.571537 -0 0 -0 -0.11994)
(-0.09159 -0 0 -0 -0.322518 -0 0 -0 0.326576)
(-0.17887 -0 0 -0 -0.409072 -0 0 -0 0.639729)
(0.366324 -0 0 -0 -0.425504 -0 0 -0 0.132624)
(0.159497 -0 0 -0 -0.128706 -0 0 -0 -0.177807)
(-0.332899 -0 0 -0 -0.154291 -0 0 -0 0.103917)
(-0.294158 -0 0 -0 -0.422933 -0 0 -0 0.608756)
(0.191722 -0 -0 -0 -0.629515 0 -0 0 0.517393)
(0.195851 -0 -0 -0 -0.122555 -0 -0 -0 0.00757033)
(-0.357905 -0 0 -0 0.934462 0 0 0 -0.424788)
(-0.388995 -0 0 -0 0.339614 0 0 0 -0.0964234)
(-0.156122 -0 0 -0 -0.366343 0 0 0 0.718371)
(-0.282356 -0 -0 -0 -0.0913496 0 -0 0 0.583554)
(-0.0577145 -0 0 -0 -0.0356932 -0 0 -0 -0.112092)
(0.448614 0 0 0 -0.381781 -0 0 -0 0.0424746)
(0.439597 0 0 0 0.0605379 -0 0 -0 -0.214213)
(0.424594 0 0 0 0.799664 -0 0 -0 -1.03802)
(0.34588 0 0 0 0.554628 -0 0 -0 -0.847391)
(-0.151019 0 0 0 0.0191437 -0 0 -0 -0.00657285)
(-0.0649426 -0 -0 -0 -0.899636 0 -0 0 0.800447)
(0.0707594 -0 -0 -0 -1.00949 -0 -0 -0 1.21598)
(-0.706781 0 -0 0 -0.0799581 -0 -0 -0 1.00445)
(-1.01207 -0 -0 -0 0.628547 -0 -0 -0 0.314293)
(-0.16337 -0 0 -0 0.834903 0 0 0 -0.568682)
(0.363901 -0 0 -0 0.343609 0 0 0 -0.714364)
(0.432937 0 0 0 -0.454714 0 0 0 -0.0701587)
(0.620382 0 0 0 -0.348815 0 0 0 -0.411809)
(0.526719 0 0 0 0.45722 -0 0 -0 -1.07691)
(0.38353 0 0 0 0.591367 -0 0 -0 -0.866155)
(0.26398 0 -0 0 0.0486067 -0 -0 -0 -0.346716)
(-0.175048 0 -0 0 -0.0476589 0 -0 0 0.214433)
(-0.661068 0 0 0 -0.140926 -0 0 -0 0.847824)
(-0.453661 -0 0 -0 -0.148715 -0 0 -0 0.855314)
(-0.280257 -0 0 -0 0.184321 -0 0 -0 0.0553165)
(-0.68498 -0 0 -0 0.407957 -0 0 -0 0.104657)
(-0.170651 -0 0 -0 -0.464224 -0 0 -0 0.829493)
(0.811773 -0 0 -0 -1.26408 -0 0 -0 0.860061)
(0.640316 -0 -0 -0 -0.379898 0 -0 0 -0.127747)
(0.155013 0 -0 0 1.1939 0 -0 0 -1.10832)
(0.267014 0 -0 0 0.897144 -0 -0 -0 -0.970965)
(-0.012762 0 -0 0 0.0063726 -0 -0 -0 -0.094608)
(-0.522779 -0 0 -0 -0.190561 -0 0 -0 0.647772)
(0.0553717 -0 0 -0 0.500282 -0 0 -0 -0.183054)
(0.986078 -0 0 -0 -0.100475 -0 0 -0 -0.510501)
(0.608 -0 0 -0 -0.284276 -0 0 -0 -0.427882)
(-0.176804 -0 0 -0 0.147447 -0 0 -0 -0.284488)
(-0.240889 -0 0 -0 0.163793 -0 0 -0 -0.184185)
(0.0638228 -0 0 -0 -0.0719459 -0 0 -0 -0.275463)
(-0.0582701 -0 -0 -0 -0.342104 -0 -0 -0 0.15504)
(-0.452209 -0 -0 -0 0.0953992 0 -0 0 0.0903225)
(-0.461123 0 -0 0 0.0283246 0 -0 0 0.140474)
(-0.395507 0 -0 0 -0.491655 0 -0 0 0.69114)
(-0.0537972 0 0 0 -0.0175104 0 0 0 -0.0136288)
(0.718093 0 0 0 0.239867 -0 0 -0 -0.610505)
(0.721969 0 0 0 -0.111053 -0 0 -0 -0.560958)
(0.103912 0 0 0 -0.643822 -0 0 -0 0.0101915)
(0.188533 0 0 0 -0.841969 -0 0 -0 0.298448)
(0.447519 0 0 0 -0.416231 -0 0 -0 -0.0222051)
(-0.0232082 0 0 0 -0.275677 -0 0 -0 0.420763)
(-0.198735 -0 -0 -0 -0.168176 0 -0 0 0.302516)
(0.21514 -0 -0 -0 -0.435977 0 -0 0 0.140579)
(-0.403502 0 -0 0 0.0844642 -0 -0 -0 0.127055)
(-1.54308 -0 0 -0 1.12906 -0 0 -0 -0.120805)
(-0.802476 -0 0 -0 -0.286086 -0 0 -0 0.391289)
(0.672308 -0 0 -0 -1.90738 0 0 0 0.779375)
(0.902942 0 0 0 -1.39329 0 0 0 0.433254)
(0.474337 0 0 0 -0.191401 0 0 0 -0.124409)
(0.368031 0 0 0 0.126351 -0 0 -0 -0.432129)
(0.819305 -0 -0 -0 -0.48471 -0 -0 -0 -0.562509)
(0.840653 -0 -0 -0 -0.148499 -0 -0 -0 -0.563565)
(-0.366818 -0 -0 -0 -0.101946 -0 -0 -0 0.369198)
(-1.717 -0 0 -0 0.522617 -0 0 -0 0.763385)
(-1.12513 -0 0 -0 1.20785 0 0 0 -0.151515)
(-0.212478 -0 0 -0 0.214309 0 0 0 -0.361775)
(-0.877142 -0 0 -0 0.703269 -0 0 -0 -0.142682)
(-0.682912 -0 0 -0 0.855542 -0 0 -0 -0.0088275)
(0.544038 -0 0 -0 0.350716 -0 0 -0 -0.50734)
(1.1458 -0 0 -0 -0.00724829 0 0 0 -1.21421)
(1.27427 -0 0 -0 0.0675653 0 0 0 -1.35077)
(0.54911 0 -0 0 0.261551 0 -0 0 -0.919209)
(-0.82381 -0 -0 -0 0.960027 0 -0 0 -0.251945)
(-1.08434 -0 0 -0 1.00377 -0 0 -0 0.167112)
(-0.532685 -0 0 -0 0.376344 0 0 0 0.0271394)
(0.748356 -0 0 -0 -0.521641 0 0 0 -0.0478476)
(0.466007 -0 0 -0 -1.2084 0 0 0 0.511549)
(-0.111898 -0 0 -0 -0.146635 0 0 0 0.302209)
(0.36061 -0 0 -0 0.444688 0 0 0 -0.395508)
(0.507223 -0 0 -0 -0.198365 -0 0 -0 -0.315177)
(0.0527108 -0 -0 -0 0.101972 -0 -0 -0 -0.131352)
(0.0365709 -0 -0 -0 0.401712 -0 -0 -0 -0.492372)
(-0.0471539 0 -0 0 0.504119 0 -0 0 -0.417243)
(-0.323954 0 -0 0 0.655608 0 -0 0 -0.480479)
(0.277924 0 -0 0 0.0280261 0 -0 0 -0.541193)
(0.64308 0 -0 0 -1.05577 -0 -0 -0 0.115605)
(-0.0917063 -0 -0 -0 -0.450319 -0 -0 -0 0.467787)
(-0.278554 -0 -0 -0 -0.859572 -0 -0 -0 1.427)
(0.587625 -0 0 -0 -2.07922 0 0 0 1.31274)
(0.74479 0 0 0 -1.92615 0 0 0 1.01053)
(-0.606389 -0 -0 -0 -0.556909 0 -0 0 0.803505)
(-0.774183 -0 0 -0 0.835448 0 0 0 -0.326818)
(0.299842 -0 -0 -0 0.0075393 -0 -0 -0 -0.311819)
(-0.675543 -0 -0 -0 0.646547 -0 -0 -0 -0.138491)
(-1.25601 -0 0 -0 1.24361 -0 0 -0 -0.0861115)
(-0.138983 0 0 0 -1.19959 -0 0 -0 1.51187)
(0.697358 0 0 0 -2.93576 0 0 0 2.31197)
(0.868786 -0 0 -0 -1.65118 0 0 0 0.489968)
(0.469325 0 0 0 0.338254 0 0 0 -1.02816)
(0.32354 0 0 0 0.471553 -0 0 -0 -0.978343)
(0.0698358 0 0 0 0.894411 0 0 0 -1.11574)
(-0.315135 -0 -0 -0 0.800558 0 -0 0 -0.760864)
(-0.0947135 -0 -0 -0 -0.252227 -0 -0 -0 0.407117)
(-0.739648 -0 0 -0 1.08999 -0 0 -0 -0.207711)
(-0.718224 -0 0 -0 1.13428 0 0 0 -0.715365)
(0.287966 -0 0 -0 -0.160342 0 0 0 0.0062823)
(-0.75368 -0 0 -0 0.340118 0 0 0 0.0529454)
(-1.60734 -0 0 -0 0.974795 -0 0 -0 -0.098284)
(0.0546077 -0 0 -0 0.171904 -0 0 -0 -0.698582)
(1.88774 0 0 0 -1.29667 0 0 0 -0.945695)
(1.70232 0 0 0 -0.856908 0 0 0 -1.01269)
(0.315917 -0 -0 -0 0.857553 0 -0 0 -1.24606)
(-0.937612 -0 0 -0 1.02275 -0 0 -0 -0.35168)
(-1.39873 0 0 0 0.361083 -0 0 -0 0.595456)
(-0.860137 0 0 0 -0.170066 0 0 0 1.08461)
(0.106501 0 0 0 -0.300983 0 0 0 -0.0549112)
(-0.37741 -0 0 -0 0.589668 0 0 0 -0.44283)
(-1.21992 -0 0 -0 0.47268 0 0 0 0.308518)
(0.847026 -0 0 -0 -0.257414 0 0 0 -0.219171)
(1.36328 -0 0 -0 -0.667734 0 0 0 -0.633161)
(0.135746 -0 -0 -0 -0.33369 -0 -0 -0 -0.0568886)
(0.95933 -0 0 -0 -0.540182 -0 0 -0 -0.114991)
(0.227225 0 -0 0 -0.0910802 0 -0 0 0.0434724)
(-1.17987 -0 -0 -0 0.890689 -0 -0 -0 0.259123)
(0.203003 -0 0 -0 -0.219175 -0 0 -0 0.25581)
(0.761633 -0 -0 -0 -0.768354 -0 -0 -0 -0.00984827)
(-0.605302 -0 -0 -0 -0.0357023 -0 -0 -0 0.502323)
(-0.356578 -0 -0 -0 -0.612457 -0 -0 -0 0.54891)
(0.988713 -0 -0 -0 -1.11838 0 -0 0 -0.235727)
(0.776821 -0 -0 -0 -0.202677 0 -0 0 -0.296591)
(-0.526805 -0 -0 -0 1.46892 0 -0 0 -0.62632)
(-0.361779 0 0 0 1.69179 -0 0 -0 -1.4868)
(0.539523 0 -0 0 -0.0903521 -0 -0 -0 -1.03797)
(-0.306426 -0 0 -0 0.018217 -0 0 -0 -0.0518035)
(-0.236523 0 0 0 -0.572078 0 0 0 0.822878)
(-0.454541 0 0 0 0.174106 0 0 0 0.418686)
(-0.985382 0 0 0 2.40793 -0 0 -0 -0.94707)
(0.921239 -0 0 -0 0.953509 -0 0 -0 -1.28303)
(1.60585 -0 0 -0 -0.610516 0 0 0 -0.414703)
(0.683623 0 0 0 -0.733322 0 0 0 -0.189319)
(0.112961 0 0 0 -0.0149063 0 0 0 -0.363585)
(-0.851855 0 0 0 0.959619 0 0 0 -0.0446307)
(-1.64436 -0 -0 -0 1.60018 -0 -0 -0 0.272965)
(-1.29684 -0 -0 -0 1.24243 -0 -0 -0 -0.0717712)
(0.0318325 -0 0 -0 -0.863376 0 0 0 0.34013)
(0.32938 -0 0 -0 -0.743544 0 0 0 0.616009)
(-0.713123 -0 0 -0 -0.614948 -0 0 -0 1.16812)
(-0.76758 0 0 0 0.243068 -0 0 -0 0.345404)
(0.706507 0 0 0 -0.0719 0 0 0 -0.562785)
(1.74064 0 0 0 -1.44712 0 0 0 -0.552309)
(0.758727 0 0 0 -0.120255 0 0 0 -0.671516)
(-0.323728 -0 -0 -0 1.85593 -0 -0 -0 -1.70624)
(-0.208075 -0 0 -0 0.673621 -0 0 -0 -0.575867)
(-0.523329 0 0 0 -0.468065 0 0 0 1.13208)
(-0.255893 0 -0 0 -1.13552 0 -0 0 1.66942)
(-0.822431 0 0 0 -0.202867 -0 0 -0 0.789051)
(-1.98327 -0 0 -0 1.96143 -0 0 -0 -0.396705)
(-0.973476 0 -0 0 0.534866 -0 -0 -0 0.649305)
(1.38641 0 -0 0 -1.06127 -0 -0 -0 -0.0525153)
(0.312434 -0 -0 -0 0.47983 0 -0 0 -0.725968)
(0.794178 -0 -0 -0 0.00688416 0 -0 0 -0.741807)
(2.47842 0 -0 0 -1.75595 0 -0 0 -1.39334)
(-0.97399 0 -0 0 0.318241 0 -0 0 -0.254418)
(-2.6572 -0 -0 -0 0.947597 -0 -0 -0 2.26816)
(0.638711 -0 0 -0 -2.27871 -0 0 -0 1.82576)
(1.13205 -0 0 -0 -0.538828 -0 0 -0 -0.430317)
(-0.518345 -0 -0 -0 1.27013 0 -0 0 -0.773583)
(0.0960272 -0 -0 -0 0.142678 0 -0 0 -0.610426)
(1.20874 -0 -0 -0 -0.654367 0 -0 0 -1.22436)
(0.946402 0 -0 0 -0.397345 0 -0 0 -0.923109)
(0.224576 0 -0 0 0.615669 0 -0 0 -1.27481)
(-0.219397 0 0 0 1.97572 0 0 0 -1.86948)
(-0.176402 0 0 0 1.36215 -0 0 -0 -0.749546)
(0.238331 0 0 0 -1.51675 0 0 0 1.06825)
(0.392552 0 0 0 -2.04378 0 0 0 1.37931)
(-0.64486 -0 0 -0 1.88035 -0 0 -0 -1.02357)
(-1.67206 -0 0 -0 3.53608 -0 0 -0 -2.47845)
(-0.0387484 -0 0 -0 1.64892 0 0 0 -1.1349)
(1.27422 -0 0 -0 -0.77622 0 0 0 0.160135)
(0.908562 -0 0 -0 -1.25142 0 0 0 0.339892)
(1.32009 -0 0 -0 -1.34722 -0 0 -0 -0.35539)
(-0.955456 0 0 0 0.847216 -0 0 -0 -0.0682302)
(-2.96774 -0 0 -0 1.28201 -0 0 -0 1.39559)
(-0.667328 -0 0 -0 -1.42869 0 0 0 1.70725)
(0.767248 -0 0 -0 -1.51404 -0 0 -0 0.67842)
(0.107763 -0 -0 -0 -0.908243 -0 -0 -0 0.789552)
(-0.154864 0 0 0 -1.75454 -0 0 -0 1.9311)
(0.0442672 0 0 0 -0.288611 -0 0 -0 0.434549)
(0.274534 -0 0 -0 -0.0513181 0 0 0 -0.584705)
(0.97682 -0 0 -0 -1.01781 0 0 0 -0.879487)