/*--------------------------------*- C++ -*----------------------------------*\
  =========                 |
  \\      /  F ield         | OpenFOAM: The Open Source CFD Toolbox
   \\    /   O peration     | Website:  https://openfoam.org
    \\  /    A nd           | Version:  10
     \\/     M anipulation  |
\*---------------------------------------------------------------------------*/
FoamFile
{
    format      ascii;
    class       volTensorField;
    location    "6";
    object      TauNN;
}
// * * * * * * * * * * * * * * * * * * * * * * * * * * * * * * * * * * * * * //

dimensions      [0 2 -2 0 0 0 0];

internalField   nonuniform List<tensor> 
25600
(
(0.000231851 7.35382e-05 0.000145354 7.35382e-05 0.000119102 2.77711e-05 0.000145354 2.77711e-05 0.000114342)
(0.000176402 6.18231e-05 9.87342e-05 6.18231e-05 0.000154311 2.22689e-05 9.87342e-05 2.22689e-05 6.82417e-05)
(0.00014227 3.9082e-05 7.83009e-05 3.9082e-05 0.000153396 -1.20746e-05 7.83009e-05 -1.20746e-05 5.09818e-05)
(0.000135238 3.4743e-05 7.51689e-05 3.4743e-05 0.000146513 -2.82219e-05 7.51689e-05 -2.82219e-05 4.18292e-05)
(0.000148219 4.21405e-05 8.4457e-05 4.21405e-05 0.000133923 -2.27103e-05 8.4457e-05 -2.27103e-05 3.00386e-05)
(0.00016297 2.7908e-05 0.000111861 2.7908e-05 0.000108001 -2.03475e-05 0.000111861 -2.03475e-05 3.55052e-05)
(0.000165843 1.38087e-05 0.000121361 1.38087e-05 8.98971e-05 -2.72691e-05 0.000121361 -2.72691e-05 3.07094e-05)
(0.000148262 -3.28943e-06 0.000115066 -3.28943e-06 9.86578e-05 -1.90781e-05 0.000115066 -1.90781e-05 1.74814e-06)
(0.00016845 -1.3235e-05 0.00013932 -1.3235e-05 0.000176412 5.69867e-05 0.00013932 5.69867e-05 7.66096e-05)
(0.000207335 -3.27965e-05 0.000164533 -3.27965e-05 0.00024904 0.000143366 0.000164533 0.000143366 0.00022816)
(0.000207554 -4.82248e-05 0.000166056 -4.82248e-05 0.000248461 0.000150152 0.000166056 0.000150152 0.000257607)
(0.000155775 -3.92217e-05 0.00013567 -3.92217e-05 0.000180508 7.02208e-05 0.00013567 7.02208e-05 0.000133174)
(0.000134564 3.7197e-06 9.60324e-05 3.7197e-06 0.000148248 -7.01286e-07 9.60324e-05 -7.01286e-07 2.44156e-05)
(0.000182797 5.02449e-05 9.7204e-05 5.02449e-05 0.000177292 -1.19135e-05 9.7204e-05 -1.19135e-05 2.98315e-05)
(0.000219647 5.86687e-05 0.00011694 5.86687e-05 0.000184025 -1.56509e-05 0.00011694 -1.56509e-05 4.76799e-05)
(0.000214898 1.19787e-05 0.000123915 1.19787e-05 0.000164495 -3.87197e-05 0.000123915 -3.87197e-05 8.43974e-06)
(0.000265096 -1.54609e-05 0.00013929 -1.54609e-05 0.000188389 -6.9146e-05 0.00013929 -6.9146e-05 1.85142e-05)
(0.000346334 -5.84684e-06 0.000160581 -5.84684e-06 0.000209802 -0.000105111 0.000160581 -0.000105111 9.40588e-05)
(0.000416937 5.66822e-05 0.000166283 5.66822e-05 0.000203424 -0.000114236 0.000166283 -0.000114236 0.000231973)
(0.000396425 0.000100001 0.000123989 0.000100001 0.000198014 -0.000104143 0.000123989 -0.000104143 0.000244849)
(0.000288252 8.24556e-05 0.000106643 8.24556e-05 0.000189874 -7.68779e-05 0.000106643 -7.68779e-05 6.53239e-05)
(0.000239 6.09187e-05 0.000154028 6.09187e-05 0.000224284 -1.00844e-05 0.000154028 -1.00844e-05 1.66458e-05)
(0.000237322 2.90303e-05 0.000182708 2.90303e-05 0.000270922 3.70368e-05 0.000182708 3.70368e-05 7.67262e-05)
(0.000231057 -2.22921e-05 0.000173109 -2.22921e-05 0.000255975 -4.28315e-06 0.000173109 -4.28315e-06 9.35897e-05)
(0.000263826 -6.45453e-05 0.000184737 -6.45453e-05 0.000193689 -3.08091e-05 0.000184737 -3.08091e-05 0.000132831)
(0.000291883 -4.6609e-05 0.000150826 -4.6609e-05 0.000119265 2.17771e-05 0.000150826 2.17771e-05 0.000176945)
(0.000229905 -9.70066e-06 1.84849e-05 -9.70066e-06 5.55168e-05 5.66868e-05 1.84849e-05 5.66868e-05 0.000233785)
(0.000192717 -5.58142e-06 -1.01011e-05 -5.58142e-06 6.22151e-05 -1.25235e-05 -1.01011e-05 -1.25235e-05 0.00051707)
(0.00021752 -6.09243e-05 0.00012448 -6.09243e-05 0.000122343 -0.000116084 0.00012448 -0.000116084 0.000758241)
(0.000193469 -8.46479e-05 0.00015881 -8.46479e-05 0.000153862 -0.000122325 0.00015881 -0.000122325 0.000551423)
(0.000152687 -5.31962e-05 8.52682e-05 -5.31962e-05 0.00020367 -7.21952e-05 8.52682e-05 -7.21952e-05 0.000214277)
(0.000183087 -3.78396e-06 8.69734e-05 -3.78396e-06 0.000251616 -5.30854e-07 8.69734e-05 -5.30854e-07 0.000113319)
(0.000246242 7.12583e-05 0.000127463 7.12583e-05 0.000319716 4.94579e-05 0.000127463 4.94579e-05 0.000150985)
(0.000343022 0.000177154 0.000174644 0.000177154 0.000417587 9.39835e-05 0.000174644 9.39835e-05 0.000224492)
(0.000452024 0.000236831 0.00025804 0.000236831 0.000446048 0.000142808 0.00025804 0.000142808 0.000345052)
(0.000520385 0.000219362 0.000336315 0.000219362 0.000369637 0.000157634 0.000336315 0.000157634 0.000504483)
(0.000517271 0.000153514 0.000347061 0.000153514 0.000234707 8.50689e-05 0.000347061 8.50689e-05 0.000586627)
(0.000472055 9.74648e-05 0.000308065 9.74648e-05 0.000152996 6.73346e-07 0.000308065 6.73346e-07 0.000499665)
(0.000408054 7.84602e-05 0.000250977 7.84602e-05 0.000123018 -1.71233e-05 0.000250977 -1.71233e-05 0.000340381)
(0.000317762 7.71843e-05 0.000195386 7.71843e-05 0.00010976 4.19095e-07 0.000195386 4.19095e-07 0.000195818)
(0.000404892 1.79633e-05 0.00026758 1.79633e-05 0.000190238 -0.000150601 0.00026758 -0.000150601 0.000218677)
(0.000274282 7.37095e-05 0.000180384 7.37095e-05 0.000124996 -5.97788e-05 0.000180384 -5.97788e-05 6.71826e-05)
(0.000147319 6.18603e-05 0.000117101 6.18603e-05 9.51643e-05 -1.1418e-05 0.000117101 -1.1418e-05 -5.66669e-05)
(0.000171511 3.72203e-05 0.000153391 3.72203e-05 0.000182816 8.37222e-05 0.000153391 8.37222e-05 6.7361e-05)
(0.000353872 4.5727e-05 0.000168744 4.5727e-05 0.000604378 0.000354136 0.000168744 0.000354136 0.000412879)
(0.000539248 0.000102038 0.000125126 0.000102038 0.00119293 0.000640561 0.000125126 0.000640561 0.00070139)
(0.000608575 0.000144557 0.000153077 0.000144557 0.00154233 0.00068293 0.000153077 0.00068293 0.000686361)
(0.000552316 0.000124859 0.000223009 0.000124859 0.00146963 0.000435621 0.000223009 0.000435621 0.000411859)
(0.000449832 4.27654e-05 0.000203919 4.27654e-05 0.000980337 0.000100129 0.000203919 0.000100129 0.000150291)
(0.000379809 -4.40013e-05 0.000137316 -4.40013e-05 0.000562731 -9.10899e-05 0.000137316 -9.10899e-05 5.54209e-05)
(0.00036078 -6.96396e-05 0.000136144 -6.96396e-05 0.000379759 -0.000130022 0.000136144 -0.000130022 7.0453e-05)
(0.000286513 -5.93746e-05 0.000145404 -5.93746e-05 0.000256524 -8.14339e-05 0.000145404 -8.14339e-05 2.60947e-05)
(0.000193023 -6.01783e-05 0.000112224 -6.01783e-05 0.000194281 -1.63401e-05 0.000112224 -1.63401e-05 -7.1644e-06)
(0.000166668 -5.91483e-05 0.000100833 -5.91483e-05 0.000204403 0.000100871 0.000100833 0.000100871 0.000130201)
(0.000277288 -4.58555e-05 0.000148759 -4.58555e-05 0.000283201 0.000249114 0.000148759 0.000249114 0.000465662)
(0.000306315 -4.7842e-05 0.000173982 -4.7842e-05 0.000279552 0.000235866 0.000173982 0.000235866 0.000502538)
(0.000201734 -4.95398e-05 0.000146557 -4.95398e-05 0.000225205 8.61483e-05 0.000146557 8.61483e-05 0.00015817)
(0.000240458 -3.14331e-05 0.000147412 -3.14331e-05 0.000215427 -6.85742e-05 0.000147412 -6.85742e-05 4.51352e-05)
(0.000430958 2.07061e-05 0.00020593 2.07061e-05 0.000244116 -0.000158787 0.00020593 -0.000158787 0.000321449)
(0.00040368 5.27715e-05 0.000176799 5.27715e-05 0.000230018 -0.00015252 0.000176799 -0.00015252 0.000313473)
(0.000239541 3.54825e-05 0.000137298 3.54825e-05 0.000191547 -7.8354e-05 0.000137298 -7.8354e-05 8.50708e-05)
(0.000170888 2.12118e-05 0.000117826 2.12118e-05 0.000163037 -3.67127e-05 0.000117826 -3.67127e-05 8.30241e-05)
(0.000192687 2.79155e-05 0.000104828 2.79155e-05 0.000190112 -3.25162e-05 0.000104828 -3.25162e-05 0.000127607)
(0.000334047 7.00559e-05 0.000267774 7.00559e-05 0.000229612 6.79949e-05 0.000267774 6.79949e-05 0.000312596)
(0.000528185 0.000123851 0.000439607 0.000123851 0.000255804 0.000151549 0.000439607 0.000151549 0.000595717)
(0.000483033 8.20169e-05 0.000322402 8.20169e-05 0.000221846 6.26473e-05 0.000322402 6.26473e-05 0.000395165)
(0.000310562 8.75629e-06 0.000158925 8.75629e-06 0.000207133 -2.39238e-05 0.000158925 -2.39238e-05 8.44988e-05)
(0.000207253 -1.96462e-05 0.000141839 -1.96462e-05 0.000225443 2.1507e-05 0.000141839 2.1507e-05 7.39703e-05)
(0.000169535 -2.07443e-05 0.000155693 -2.07443e-05 0.000198596 4.83701e-05 0.000155693 4.83701e-05 0.000121314)
(0.000144686 -1.83051e-05 0.000136518 -1.83051e-05 0.000150174 2.06232e-05 0.000136518 2.06232e-05 8.39322e-05)
(0.000137378 -4.79911e-06 9.28361e-05 -4.79911e-06 0.000148879 -4.38839e-06 9.28361e-05 -4.38839e-06 4.62628e-05)
(0.000170938 4.15472e-05 8.62163e-05 4.15472e-05 0.000212134 1.22571e-05 8.62163e-05 1.22571e-05 6.47217e-05)
(0.00025724 0.000124822 0.000146651 0.000124822 0.000308385 6.65067e-05 0.000146651 6.65067e-05 0.000152618)
(0.000323713 0.000163701 0.000208389 0.000163701 0.000268233 8.5813e-05 0.000208389 8.5813e-05 0.000245549)
(0.000327353 0.000132365 0.000197817 0.000132365 0.000177318 2.60454e-05 0.000197817 2.60454e-05 0.000269577)
(0.000308831 9.07741e-05 0.000139059 9.07741e-05 0.000161705 -7.12518e-05 0.000139059 -7.12518e-05 0.000194098)
(0.00031084 4.95706e-05 0.000135148 4.95706e-05 0.000221178 -0.000126968 0.000135148 -0.000126968 0.000126993)
(0.00031973 7.89762e-07 0.000169144 7.89762e-07 0.00026506 -0.000156922 0.000169144 -0.000156922 0.000123526)
(0.000370902 -5.03305e-05 0.000210209 -5.03305e-05 0.000303195 -0.00020336 0.000210209 -0.00020336 0.000158975)
(0.000433742 -5.68945e-05 0.000263624 -5.68945e-05 0.000287797 -0.000226432 0.000263624 -0.000226432 0.000225483)
(0.000361389 -0.000123985 0.000189085 -0.000123985 0.000615497 -0.000172406 0.000189085 -0.000172406 2.30946e-05)
(0.00038578 -5.85271e-05 0.00018874 -5.85271e-05 0.00101163 -1.73002e-05 0.00018874 -1.73002e-05 5.37062e-05)
(0.00049824 0.000192394 0.000239944 0.000192394 0.00160454 0.000135134 0.000239944 0.000135134 0.000195906)
(0.000737351 0.000510291 0.000321344 0.000510291 0.00235048 0.000363166 0.000321344 0.000363166 0.000460949)
(0.000824971 0.000565008 0.000336392 0.000565008 0.00275332 0.000450301 0.000336392 0.000450301 0.00063761)
(0.000724079 0.000345852 0.000270883 0.000345852 0.00281594 0.00046256 0.000270883 0.00046256 0.000680179)
(0.000610665 -2.9929e-05 0.000180591 -2.9929e-05 0.00258387 0.000453102 0.000180591 0.000453102 0.000645994)
(0.000528638 -0.000323699 0.00014069 -0.000323699 0.0020788 0.000287944 0.00014069 0.000287944 0.000453584)
(0.00048709 -0.000348592 0.00016411 -0.000348592 0.00159396 3.72073e-05 0.00016411 3.72073e-05 0.000214015)
(0.000587525 -0.000283727 0.000186246 -0.000283727 0.00126785 -0.000293774 0.000186246 -0.000293774 0.000177681)
(0.000776375 -0.000203781 0.000166704 -0.000203781 0.00113659 -0.000581889 0.000166704 -0.000581889 0.000505111)
(0.000837274 -0.000107668 0.000158508 -0.000107668 0.00107049 -0.000725248 0.000158508 -0.000725248 0.000772272)
(0.000759956 -8.01468e-05 0.000144144 -8.01468e-05 0.00106479 -0.000698248 0.000144144 -0.000698248 0.000672117)
(0.000602895 -7.55191e-05 0.000152269 -7.55191e-05 0.000906443 -0.000472343 0.000152269 -0.000472343 0.000363096)
(0.000457067 -7.65873e-05 0.000170501 -7.65873e-05 0.000556617 -0.000248765 0.000170501 -0.000248765 0.000179911)
(0.000408118 -2.1467e-05 0.000190571 -2.1467e-05 0.000313262 -0.000142027 0.000190571 -0.000142027 0.000198803)
(0.000476815 5.62789e-05 0.00023804 5.62789e-05 0.000263036 -0.000109428 0.00023804 -0.000109428 0.000368634)
(0.000551989 0.00010313 0.00026945 0.00010313 0.000251819 -0.000111035 0.00026945 -0.000111035 0.000552956)
(0.000496281 7.33081e-05 0.000245141 7.33081e-05 0.000227661 -0.000131416 0.000245141 -0.000131416 0.000462735)
(0.000335314 5.29326e-05 0.000190681 5.29326e-05 0.000188998 -6.78385e-05 0.000190681 -6.78385e-05 0.000207665)
(0.000228468 7.48197e-05 0.00012392 7.48197e-05 0.000216891 -1.1079e-05 0.00012392 -1.1079e-05 5.75389e-05)
(0.00018092 8.54908e-05 8.06432e-05 8.54908e-05 0.000275952 -3.20654e-06 8.06432e-05 -3.20654e-06 2.20232e-05)
(0.000178853 3.76552e-05 9.69227e-05 3.76552e-05 0.000281407 3.49758e-05 9.69227e-05 3.49758e-05 5.12753e-05)
(0.000304064 1.89459e-05 0.000149557 1.89459e-05 0.000335869 6.25122e-05 0.000149557 6.25122e-05 0.000194625)
(0.00039895 7.42171e-06 0.000181111 7.42171e-06 0.000340241 3.6343e-05 0.000181111 3.6343e-05 0.000230456)
(0.000287834 -2.0612e-05 0.000146067 -2.0612e-05 0.000206907 1.58744e-05 0.000146067 1.58744e-05 9.9096e-05)
(0.000190977 -2.06735e-05 0.000105097 -2.06735e-05 0.000207399 6.35125e-05 0.000105097 6.35125e-05 9.23605e-05)
(0.000224113 3.20189e-06 0.000105449 3.20189e-06 0.000417156 0.000189811 0.000105449 0.000189811 0.00023367)
(0.000260784 -3.36207e-06 0.000124116 -3.36207e-06 0.000530503 0.000241575 0.000124116 0.000241575 0.000288018)
(0.000244595 -6.13239e-05 0.000127836 -6.13239e-05 0.000425693 0.000173662 0.000127836 0.000173662 0.000208129)
(0.00018588 -7.27521e-05 9.98164e-05 -7.27521e-05 0.000187078 5.48614e-05 9.98164e-05 5.48614e-05 7.72502e-05)
(0.000184158 3.3807e-07 0.00010623 3.3807e-07 8.34646e-05 7.08457e-06 0.00010623 7.08457e-06 4.83507e-05)
(0.000160618 2.48281e-05 0.000123545 2.48281e-05 7.85079e-05 -1.05062e-05 0.000123545 -1.05062e-05 7.21062e-06)
(0.000191326 3.65376e-05 0.000142984 3.65376e-05 0.000200055 -3.57535e-06 0.000142984 -3.57535e-06 -1.47079e-05)
(0.000297622 5.37401e-05 0.000161347 5.37401e-05 0.000385301 -2.48626e-05 0.000161347 -2.48626e-05 3.47288e-05)
(0.000411795 6.73747e-05 0.000121112 6.73747e-05 0.00050855 -0.000131193 0.000121112 -0.000131193 0.000121352)
(0.000497345 8.96286e-05 6.51581e-05 8.96286e-05 0.000491548 -0.000218533 6.51581e-05 -0.000218533 0.000254838)
(0.000534998 9.58843e-05 7.17854e-05 9.58843e-05 0.000404323 -0.000236871 7.17854e-05 -0.000236871 0.000379397)
(0.000474619 2.38111e-05 0.000121056 2.38111e-05 0.000372121 -0.000247112 0.000121056 -0.000247112 0.00030022)
(0.000393856 -7.70669e-05 0.000187572 -7.70669e-05 0.000418674 -0.000238545 0.000187572 -0.000238545 0.000132036)
(0.000403595 -6.20112e-05 0.000191363 -6.20112e-05 0.000597775 0.000240432 0.000191363 0.000240432 0.000348707)
(0.000441156 2.44426e-05 0.000264959 2.44426e-05 0.000590431 0.000192074 0.000264959 0.000192074 0.000341536)
(0.000531213 0.000138249 0.000299981 0.000138249 0.000709418 0.000134503 0.000299981 0.000134503 0.000346282)
(0.000471947 0.000119799 0.000234948 0.000119799 0.000672357 2.32831e-05 0.000234948 2.32831e-05 0.000291277)
(0.000374795 5.42728e-05 0.000145396 5.42728e-05 0.000482827 -7.81808e-05 0.000145396 -7.81808e-05 0.00029059)
(0.000492456 0.000135099 0.000205576 0.000135099 0.000537004 1.42893e-05 0.000205576 1.42893e-05 0.000519181)
(0.000682864 0.000309354 0.000302484 0.000309354 0.000749849 0.00016775 0.000302484 0.00016775 0.000746617)
(0.000677444 0.000325291 0.000274073 0.000325291 0.000728349 0.000149424 0.000274073 0.000149424 0.000690871)
(0.00055668 0.000206249 0.000181377 0.000206249 0.000575019 9.92324e-06 0.000181377 9.92324e-06 0.000485193)
(0.000512527 0.000108439 0.000143741 0.000108439 0.000558017 -8.86973e-05 0.000143741 -8.86973e-05 0.000388378)
(0.000472782 2.8871e-06 0.000150613 2.8871e-06 0.000548483 -0.000120702 0.000150613 -0.000120702 0.000301131)
(0.000443152 -8.65683e-05 0.000169782 -8.65683e-05 0.000523778 -0.00011537 0.000169782 -0.00011537 0.000225713)
(0.000459231 -0.00015555 0.000192035 -0.00015555 0.000533496 -0.000120186 0.000192035 -0.000120186 0.000197851)
(0.000471813 -0.000177488 0.000220386 -0.000177488 0.000501161 -0.000119043 0.000220386 -0.000119043 0.000194266)
(0.00043988 -0.000129999 0.000232415 -0.000129999 0.000393346 -0.00010466 0.000232415 -0.00010466 0.000193294)
(0.000373692 -5.56801e-05 0.000206375 -5.56801e-05 0.000304473 -0.000110625 0.000206375 -0.000110625 0.000177659)
(0.000426722 5.26849e-05 0.000189746 5.26849e-05 0.00028627 -0.000102536 0.000189746 -0.000102536 0.000312865)
(0.000636882 0.000172314 0.000252547 0.000172314 0.000354106 -5.05364e-05 0.000252547 -5.05364e-05 0.00067701)
(0.000813545 0.000215434 0.00036527 0.000215434 0.000371374 -4.23556e-05 0.00036527 -4.23556e-05 0.000908993)
(0.000797851 0.000139274 0.000367891 0.000139274 0.000325196 -0.000129983 0.000367891 -0.000129983 0.000784752)
(0.000666698 6.38887e-05 0.000258092 6.38887e-05 0.000353405 -0.000197084 0.000258092 -0.000197084 0.000552054)
(0.000621148 0.000102792 0.000122148 0.000102792 0.000472976 -0.000222999 0.000122148 -0.000222999 0.000500935)
(0.000774363 0.000177112 1.55345e-06 0.000177112 0.000646303 -0.000238785 1.55345e-06 -0.000238785 0.000711774)
(0.000743657 0.000123198 3.75155e-05 0.000123198 0.000593862 -0.000182805 3.75155e-05 -0.000182805 0.000548007)
(0.000370109 8.37632e-06 0.000135956 8.37632e-06 0.000297078 -3.32715e-05 0.000135956 -3.32715e-05 9.9428e-05)
(0.00017912 3.03462e-05 8.03256e-05 3.03462e-05 0.000289847 0.00012749 8.03256e-05 0.00012749 0.00016533)
(0.000335676 0.000143503 9.84604e-05 0.000143503 0.000682764 0.00038386 9.84604e-05 0.00038386 0.000573767)
(0.000416778 0.000156691 0.000203963 0.000156691 0.000743133 0.000347535 0.000203963 0.000347535 0.000518411)
(0.000308049 2.01399e-05 0.000184973 2.01399e-05 0.000426736 0.000102572 0.000184973 0.000102572 0.000215842)
(0.000272661 -8.54209e-05 0.00012438 -8.54209e-05 0.000312272 1.866e-05 0.00012438 1.866e-05 0.000105829)
(0.000261476 -0.000130148 6.25979e-05 -0.000130148 0.000260396 4.15118e-05 6.25979e-05 4.15118e-05 9.46679e-05)
(0.000223407 -9.36007e-05 -7.15908e-06 -9.36007e-05 0.000260228 0.000181705 -7.15908e-06 0.000181705 0.000326652)
(0.00034096 -3.6357e-05 9.71621e-05 -3.6357e-05 0.00040247 0.000370795 9.71621e-05 0.000370795 0.000850364)
(0.000331182 -1.78805e-05 0.000220232 -1.78805e-05 0.000353917 0.000266235 0.000220232 0.000266235 0.000609749)
(0.00028956 1.93436e-06 0.000179196 1.93436e-06 0.000328172 1.7399e-05 0.000179196 1.7399e-05 0.000102756)
(0.000590157 0.000118205 0.000111926 0.000118205 0.000541761 -0.000234864 0.000111926 -0.000234864 0.000388328)
(0.000741067 0.000144485 9.51979e-05 0.000144485 0.000705227 -0.000371351 9.51979e-05 -0.000371351 0.000592589)
(0.000541793 5.73788e-06 0.000154877 5.73788e-06 0.000800794 -0.000291377 0.000154877 -0.000291377 0.000257456)
(0.000348127 -9.71286e-05 0.00019422 -9.71286e-05 0.000741501 1.16099e-05 0.00019422 1.16099e-05 0.000118371)
(0.000342788 -9.9563e-05 0.000154843 -9.9563e-05 0.000603488 0.000184445 0.000154843 0.000184445 0.000257722)
(0.000205528 -5.08111e-05 3.20571e-05 -5.08111e-05 0.000244597 -1.95084e-05 3.20571e-05 -1.95084e-05 0.000168169)
(0.000160427 1.09989e-05 7.03325e-05 1.09989e-05 0.000281668 -5.25173e-05 7.03325e-05 -5.25173e-05 0.00010705)
(0.000333928 1.06003e-05 9.15509e-05 1.06003e-05 0.000664321 -5.84554e-05 9.15509e-05 -5.84554e-05 0.000196765)
(0.000678555 7.65324e-05 0.000120373 7.65324e-05 0.00159898 7.83466e-05 0.000120373 7.83466e-05 0.000477192)
(0.00121373 0.000551782 0.00050349 0.000551782 0.00315847 0.000717588 0.00050349 0.000717588 0.00130917)
(0.00231353 0.000993633 0.000752803 0.000993633 0.00447775 0.00135078 0.000752803 0.00135078 0.00248682)
(0.00229477 0.000958936 0.000650685 0.000958936 0.00456361 0.00140402 0.000650685 0.00140402 0.00230719)
(0.000926142 0.000592097 0.00039885 0.000592097 0.00313942 0.000811026 0.00039885 0.000811026 0.00107293)
(0.00038103 0.000141089 0.000103958 0.000141089 0.00115774 6.41271e-05 0.000103958 6.41271e-05 0.00047877)
(0.000222278 9.16896e-05 2.97045e-05 9.16896e-05 0.000585659 -0.000127929 2.97045e-05 -0.000127929 0.000383392)
(0.000222321 7.35847e-05 3.76962e-05 7.35847e-05 0.00056203 -0.000109568 3.76962e-05 -0.000109568 0.000352954)
(0.00027864 5.89499e-05 7.69822e-05 5.89499e-05 0.000559087 -2.71853e-05 7.69822e-05 -2.71853e-05 0.000326534)
(0.000313064 3.21046e-05 0.000134956 3.21046e-05 0.000408351 2.4002e-05 0.000134956 2.4002e-05 0.00031512)
(0.000344993 5.78165e-06 0.0001702 5.78165e-06 0.000346688 -6.9188e-06 0.0001702 -6.9188e-06 0.000266685)
(0.000333909 -3.10019e-05 0.000159556 -3.10019e-05 0.000316882 -4.73289e-05 0.000159556 -4.73289e-05 0.00017639)
(0.000380361 8.32491e-05 0.000107579 8.32491e-05 0.000336796 -6.47213e-05 0.000107579 -6.47213e-05 0.000194462)
(0.000462073 0.000261801 4.18797e-05 0.000261801 0.000486339 -0.000102988 4.18797e-05 -0.000102988 0.000286113)
(0.000241244 4.05516e-05 8.23289e-05 4.05516e-05 0.000169847 -5.95916e-05 8.23289e-05 -5.95916e-05 0.000170307)
(0.000388446 -4.95277e-06 0.000230044 -4.95277e-06 0.000441206 -3.77595e-05 0.000230044 -3.77595e-05 0.00015154)
(0.000846672 0.000166005 0.000188399 0.000166005 0.00147586 -0.000391691 0.000188399 -0.000391691 0.000433598)
(0.00132526 5.38994e-05 3.25898e-05 5.38994e-05 0.00188874 -0.000839597 3.25898e-05 -0.000839597 0.000956069)
(0.0014052 0.000107354 3.63002e-05 0.000107354 0.00137738 -0.00074182 3.63002e-05 -0.00074182 0.00122606)
(0.000939843 0.000148182 0.000138097 0.000148182 0.000730381 -0.000350809 0.000138097 -0.000350809 0.000823261)
(0.000402887 2.69236e-05 0.000164417 2.69236e-05 0.000368442 -8.36169e-05 0.000164417 -8.36169e-05 0.000178652)
(0.000240883 6.92308e-05 0.000119425 6.92308e-05 0.000442665 0.000140524 0.000119425 0.000140524 0.000253852)
(0.000345299 0.000153115 0.00012422 0.000153115 0.000728332 0.000323821 0.00012422 0.000323821 0.000519759)
(0.000334103 5.83204e-05 0.000177074 5.83204e-05 0.00065844 0.000209274 0.000177074 0.000209274 0.000308931)
(0.000249638 -4.21386e-05 0.000143227 -4.21386e-05 0.000300886 -3.38601e-05 0.000143227 -3.38601e-05 6.76052e-05)
(0.000246844 -1.49943e-06 0.000126103 -1.49943e-06 0.000239776 -1.14338e-05 0.000126103 -1.14338e-05 9.93292e-05)
(0.00017786 3.38182e-05 5.69522e-05 3.38182e-05 0.000284937 -4.05721e-05 5.69522e-05 -4.05721e-05 9.9952e-05)
(0.00010487 3.30564e-05 -2.09277e-05 3.30564e-05 0.000241529 -7.0205e-05 -2.09277e-05 -7.0205e-05 0.000182331)
(0.00012796 -1.6435e-05 -6.84801e-06 -1.6435e-05 0.000253991 2.56812e-05 -6.84801e-06 2.56812e-05 0.000166703)
(0.00020829 -1.30432e-05 0.00011032 -1.30432e-05 0.000260151 -1.73934e-05 0.00011032 -1.73934e-05 2.14476e-07)
(0.000443315 0.000117575 0.000100159 0.000117575 0.000245782 -3.86275e-05 0.000100159 -3.86275e-05 0.000508901)
(0.000689199 0.000235927 -6.43237e-05 0.000235927 0.000313396 -4.08664e-05 -6.43237e-05 -4.08664e-05 0.000962959)
(0.000534947 0.000142908 -2.69329e-05 0.000142908 0.00041036 -6.48806e-05 -2.69329e-05 -6.48806e-05 0.000451276)
(0.000250852 -3.4051e-05 0.000106934 -3.4051e-05 0.000410393 -6.03693e-05 0.000106934 -6.03693e-05 0.00024188)
(0.000220319 1.81496e-05 4.55044e-05 1.81496e-05 0.000423957 -0.000174515 4.55044e-05 -0.000174515 0.000446522)
(0.000244675 6.22682e-05 -5.20954e-05 6.22682e-05 0.00035843 -0.000158266 -5.20954e-05 -0.000158266 0.000486658)
(0.000237689 -3.56492e-05 -3.27453e-05 -3.56492e-05 0.000279684 -3.42894e-05 -3.27453e-05 -3.42894e-05 0.000333316)
(0.000307593 -4.12054e-05 1.24965e-05 -4.12054e-05 0.000251323 -2.02768e-05 1.24965e-05 -2.02768e-05 0.000533622)
(0.000231973 7.65165e-05 -4.33121e-05 7.65165e-05 0.000327084 -0.000130694 -4.33121e-05 -0.000130694 0.00031909)
(0.000257696 0.000141279 -4.59729e-05 0.000141279 0.000559956 -0.000229006 -4.59729e-05 -0.000229006 0.000304377)
(0.000367271 0.000259787 3.51155e-05 0.000259787 0.000893379 -7.5358e-05 3.51155e-05 -7.5358e-05 0.000306504)
(0.000708639 0.000775414 0.000560774 0.000775414 0.00203652 0.000634758 0.000560774 0.000634758 0.000828012)
(0.00127055 0.00106943 0.000667268 0.00106943 0.00294363 0.00137339 0.000667268 0.00137339 0.00194523)
(0.000943412 0.000350792 0.000176965 0.000350792 0.00126001 0.000927471 0.000176965 0.000927471 0.00218517)
(0.000884893 0.00022754 -0.000192584 0.00022754 0.000345189 9.73232e-06 -0.000192584 9.73232e-06 0.00109868)
(0.000679828 0.000266618 9.05339e-05 0.000266618 0.00046913 -0.000201954 9.05339e-05 -0.000201954 0.000515125)
(0.000351497 6.94636e-05 0.000215052 6.94636e-05 0.000608314 3.73693e-05 0.000215052 3.73693e-05 0.000424441)
(0.000296942 -7.78101e-05 -3.50596e-05 -7.78101e-05 0.00035524 0.000166004 -3.50596e-05 0.000166004 0.000707782)
(0.000288832 -5.21513e-05 2.78652e-06 -5.21513e-05 0.000223454 7.34543e-05 2.78652e-06 7.34543e-05 0.000633632)
(0.000256562 -3.88389e-05 0.000124278 -3.88389e-05 0.000245616 -4.09782e-06 0.000124278 -4.09782e-06 0.000373046)
(0.000291168 6.20373e-05 7.01109e-05 6.20373e-05 0.000420688 -4.74108e-05 7.01109e-05 -4.74108e-05 0.000209739)
(0.000620893 0.000367858 9.7774e-05 0.000367858 0.000770667 -1.39922e-05 9.7774e-05 -1.39922e-05 0.000332284)
(0.000587079 0.000250852 0.000112613 0.000250852 0.000521187 -0.000108902 0.000112613 -0.000108902 0.000371627)
(0.000235705 -9.16785e-05 0.000211239 -9.16785e-05 0.000311106 -0.000175826 0.000211239 -0.000175826 0.000285476)
(0.000853612 0.000499771 0.000530703 0.000499771 0.00164517 7.30027e-05 0.000530703 7.30027e-05 0.000826496)
(0.00111228 0.00068212 0.000370793 0.00068212 0.00198755 -0.000185961 0.000370793 -0.000185961 0.000841294)
(0.00107664 0.000207836 4.23491e-05 0.000207836 0.00177442 -0.000648955 4.23491e-05 -0.000648955 0.000831241)
(0.00118054 -0.000249669 0.000149456 -0.000249669 0.00154628 -0.000712211 0.000149456 -0.000712211 0.000880844)
(0.00102103 -0.000175613 0.000416227 -0.000175613 0.000680959 -0.00036789 0.000416227 -0.00036789 0.000849998)
(0.000667866 2.98144e-05 0.000494448 2.98144e-05 0.000275729 -8.42148e-05 0.000494448 -8.42148e-05 0.000849646)
(0.000386739 3.32929e-05 0.000194902 3.32929e-05 0.000317841 -0.00014211 0.000194902 -0.00014211 0.000352312)
(0.000267253 8.88212e-05 0.000120834 8.88212e-05 0.000390302 -9.37469e-06 0.000120834 -9.37469e-06 0.000169009)
(0.000316608 -1.80611e-05 7.87228e-05 -1.80611e-05 0.000506365 0.000312679 7.87228e-05 0.000312679 0.000615389)
(0.000291366 -0.000107518 6.66184e-05 -0.000107518 0.000335508 0.000204235 6.66184e-05 0.000204235 0.000757603)
(0.0001634 -7.06781e-06 -1.73515e-05 -7.06781e-06 0.000248729 -0.000101195 -1.73515e-05 -0.000101195 0.000366351)
(0.000189659 7.55051e-05 -6.394e-05 7.55051e-05 0.000400298 -0.000180914 -6.394e-05 -0.000180914 0.000263149)
(0.00019134 7.7148e-05 -9.96403e-05 7.7148e-05 0.000234115 -0.000163648 -9.96403e-05 -0.000163648 0.000371257)
(0.000299775 -7.03149e-06 -0.000113473 -7.03149e-06 0.000123831 3.46433e-05 -0.000113473 3.46433e-05 0.000848148)
(0.000379367 -5.78631e-05 -8.85595e-06 -5.78631e-05 0.000203551 0.000246635 -8.85595e-06 0.000246635 0.000841066)
(0.000232902 -1.56984e-05 0.000169458 -1.56984e-05 0.000294483 -2.22484e-05 0.000169458 -2.22484e-05 6.82883e-05)
(0.000783704 0.000163553 -3.18876e-05 0.000163553 0.000492909 -0.000447501 -3.18876e-05 -0.000447501 0.00109414)
(0.00129505 0.000257687 -0.000217641 0.000257687 0.000631664 -0.000492711 -0.000217641 -0.000492711 0.00204197)
(0.000512058 5.12907e-05 0.000106924 5.12907e-05 0.000345105 -4.30457e-05 0.000106924 -4.30457e-05 0.000364445)
(1.16052e-05 3.67863e-05 -0.000115496 3.67863e-05 0.000401412 -0.00036405 -0.000115496 -0.00036405 0.000735298)
(0.00039069 -0.000115664 0.000126207 -0.000115664 0.000867487 -0.00114177 0.000126207 -0.00114177 0.00269882)
(0.000658022 -0.000256102 0.000428641 -0.000256102 0.000552198 -0.000743495 0.000428641 -0.000743495 0.00274394)
(0.000510096 -0.000195819 0.000246761 -0.000195819 0.000301274 -1.03917e-05 0.000246761 -1.03917e-05 0.00146704)
(0.000238924 0.000117085 -0.000211955 0.000117085 0.000360696 -0.000194345 -0.000211955 -0.000194345 0.000578544)
(0.00028891 2.07201e-05 -0.000242363 2.07201e-05 0.000187345 -0.00018045 -0.000242363 -0.00018045 0.00103365)
(0.000256928 -9.3854e-05 2.8233e-05 -9.3854e-05 0.000169186 3.90904e-05 2.8233e-05 3.90904e-05 0.000767535)
(0.000367614 -3.07113e-05 6.41942e-05 -3.07113e-05 0.000544531 -0.000185451 6.41942e-05 -0.000185451 0.00017621)
(0.00123457 0.000195811 -5.61569e-05 0.000195811 0.00103855 -0.000403732 -5.61569e-05 -0.000403732 0.00166307)
(0.00219025 2.99597e-05 -0.000678559 2.99597e-05 0.00166417 -0.000930847 -0.000678559 -0.000930847 0.00264971)
(0.00251662 0.000375383 -0.000931298 0.000375383 0.00336471 -0.00144923 -0.000931298 -0.00144923 0.00233519)
(0.00150945 0.000737441 -0.000274304 0.000737441 0.002694 -0.00104517 -0.000274304 -0.00104517 0.00132225)
(0.000735017 0.000283943 0.000176578 0.000283943 0.0010524 -0.000334426 0.000176578 -0.000334426 0.000586683)
(0.000459745 -6.01113e-05 0.00023878 -6.01113e-05 0.000665484 -4.20595e-05 0.00023878 -4.20595e-05 0.000412213)
(0.000461688 -0.000318806 0.000187706 -0.000318806 0.000887471 1.35573e-05 0.000187706 1.35573e-05 0.000309378)
(0.000560854 -0.00038751 0.000233017 -0.00038751 0.00139591 -0.000135504 0.000233017 -0.000135504 0.000233019)
(0.00042101 -0.000296869 0.000167578 -0.000296869 0.00118153 3.49153e-06 0.000167578 3.49153e-06 0.000164721)
(0.000327521 -0.000175981 3.637e-05 -0.000175981 0.00101187 0.000237308 3.637e-05 0.000237308 0.000277104)
(0.000479091 3.24072e-05 -1.33272e-06 3.24072e-05 0.00222917 0.00062546 -1.33272e-06 0.00062546 0.000674951)
(0.00113709 0.000277199 9.7096e-05 0.000277199 0.00400114 0.00116019 9.7096e-05 0.00116019 0.0015423)
(0.00172776 0.000785852 0.000491742 0.000785852 0.00387931 0.00100813 0.000491742 0.00100813 0.00181722)
(0.00132343 0.000340493 0.000505948 0.000340493 0.00160036 0.000146668 0.000505948 0.000146668 0.00113501)
(0.000958495 0.00017752 0.000450499 0.00017752 0.000613578 0.00011424 0.000450499 0.00011424 0.00136644)
(0.00119298 0.000417171 0.000437351 0.000417171 0.000622394 6.00135e-05 0.000437351 6.00135e-05 0.00193974)
(0.00123354 0.00021115 0.000418084 0.00021115 0.000786419 -0.000261402 0.000418084 -0.000261402 0.00135008)
(0.000678931 -0.000477669 0.000245899 -0.000477669 0.000802775 -0.000218127 0.000245899 -0.000218127 0.000164319)
(0.000467384 -0.000317186 -0.000150238 -0.000317186 0.000968574 0.000338926 -0.000150238 0.000338926 0.000432348)
(0.000421301 0.000171956 5.95395e-05 0.000171956 0.000787545 0.000249848 5.95395e-05 0.000249848 0.00108934)