/*--------------------------------*- C++ -*----------------------------------*\
  =========                 |
  \\      /  F ield         | OpenFOAM: The Open Source CFD Toolbox
   \\    /   O peration     | Website:  https://openfoam.org
    \\  /    A nd           | Version:  10
     \\/     M anipulation  |
\*---------------------------------------------------------------------------*/
FoamFile
{
    format      ascii;
    class       volVectorField;
    location    "6";
    object      UMean;
}
// * * * * * * * * * * * * * * * * * * * * * * * * * * * * * * * * * * * * * //

dimensions      [0 1 -1 0 0 0 0];

internalField   nonuniform List<vector> 
25600
(
(1.06075 0.00913947 0.00114441)
(1.06889 0.0106566 -0.000313365)
(1.08931 0.0178617 0.00224201)
(1.10816 0.0257199 0.00695533)
(1.11382 0.0266086 0.011293)
(1.10768 0.015728 0.0107632)
(1.09458 0.000148062 0.00405884)
(1.08637 -0.00936736 -0.00485692)
(1.08636 -0.00951819 -0.0139382)
(1.08758 -0.00206557 -0.0195868)
(1.08649 0.00398268 -0.0221393)
(1.08059 0.00680883 -0.0236506)
(1.07953 0.00551831 -0.0255229)
(1.09099 -0.000396779 -0.0290179)
(1.11566 -0.00592781 -0.0289892)
(1.14791 -0.0103503 -0.0254744)
(1.16664 -0.0119166 -0.020408)
(1.16203 -0.011641 -0.0155746)
(1.13839 -0.00995607 -0.0140039)
(1.10844 -0.00793102 -0.0122106)
(1.08885 -0.00873193 -0.0110624)
(1.08719 -0.0123692 -0.0083747)
(1.10086 -0.0159129 -0.00357497)
(1.11906 -0.0179668 -0.000952271)
(1.13023 -0.0182716 -0.000967071)
(1.12314 -0.0151645 -0.00665691)
(1.10414 -0.0131717 -0.0141358)
(1.08777 -0.010215 -0.0165332)
(1.07712 -0.00480058 -0.0105094)
(1.07901 -0.00116539 0.00709166)
(1.0896 0.00374099 0.0266517)
(1.10034 0.00685317 0.037867)
(1.11556 0.010614 0.0383953)
(1.13159 0.0162396 0.0261392)
(1.14458 0.0189082 0.0118155)
(1.15045 0.0219513 0.00174676)
(1.13924 0.022221 -0.00447625)
(1.11357 0.0194698 -0.00362198)
(1.08484 0.0159526 -0.00213209)
(1.06182 0.0116347 -0.000466284)
(1.13831 0.00600722 -0.016966)
(1.12195 -0.00316572 -0.0147135)
(1.11174 0.00133483 -0.00698131)
(1.1086 0.00969713 -0.0040184)
(1.10966 0.015742 -0.00744704)
(1.11291 0.0126062 -0.013074)
(1.10952 0.00487466 -0.0202103)
(1.1038 0.00160825 -0.0221946)
(1.09695 0.003805 -0.0174713)
(1.09097 0.0164421 -0.00873539)
(1.09136 0.0324992 0.0052916)
(1.09133 0.0446437 0.0229766)
(1.09521 0.0482097 0.0387772)
(1.10436 0.0334852 0.0458709)
(1.11788 0.0160907 0.0357014)
(1.13645 0.00757585 0.0128384)
(1.14364 0.0086926 -0.00793016)
(1.13914 0.0178423 -0.0183401)
(1.12957 0.0230348 -0.0163105)
(1.11808 0.0206453 -0.00677283)
(1.11533 0.0118463 0.000951305)
(1.11881 -0.00156979 0.00616743)
(1.11983 -0.01183 0.00727419)
(1.11089 -0.0166374 0.00481774)
(1.09193 -0.0193874 0.00301852)
(1.07118 -0.0180435 -0.00448141)
(1.0573 -0.0149943 -0.0147579)
(1.05805 -0.0109084 -0.0255537)
(1.07062 -0.00458415 -0.033504)
(1.09243 -0.000389072 -0.0289446)
(1.11454 0.0030143 -0.0171808)
(1.12305 0.00648676 -0.00297694)
(1.11881 0.00915666 0.0115773)
(1.10515 0.00886002 0.0188704)
(1.09123 0.00542531 0.0212972)
(1.0876 0.00851142 0.0198847)
(1.09346 0.0203014 0.0142256)
(1.10988 0.0327131 0.00779178)
(1.13076 0.0366067 -0.00368737)
(1.14137 0.0257177 -0.0139223)
(1.16245 0.0151955 -0.0260615)
(1.12358 0.00991627 -0.0157378)
(1.09721 0.00599507 -0.0140838)
(1.09068 0.00318682 -0.0258684)
(1.10229 0.00642181 -0.0384242)
(1.11727 0.0102592 -0.0398876)
(1.11804 0.0145899 -0.0316437)
(1.1005 0.0220832 -0.0191457)
(1.07329 0.0238992 -0.00621853)
(1.05185 0.0184368 0.00877302)
(1.05188 0.00773821 0.0275358)
(1.06888 -0.00339748 0.0485518)
(1.0923 -0.0106798 0.0660288)
(1.10824 -0.0168642 0.0663643)
(1.10756 -0.0133097 0.0467001)
(1.09799 -0.00412701 0.021407)
(1.08519 0.00287945 0.00637429)
(1.08243 0.00860782 0.00740669)
(1.09178 0.00834638 0.0162693)
(1.1025 0.00620681 0.0236625)
(1.10914 0.00254512 0.0246327)
(1.10779 -0.00403412 0.0196757)
(1.10124 -0.00708881 0.0101778)
(1.08635 -0.00709209 0.00132667)
(1.06705 -0.00654472 0.000170275)
(1.04919 -0.00585657 0.00355794)
(1.03429 -0.00641567 0.00856164)
(1.03213 -0.00667373 0.00501097)
(1.03728 -0.0042127 -0.0101979)
(1.04903 0.00244074 -0.0243879)
(1.06927 0.0121797 -0.0285633)
(1.08949 0.0238874 -0.0154915)
(1.10685 0.0347135 0.00801895)
(1.11066 0.0410067 0.0240415)
(1.1041 0.0432205 0.0283654)
(1.10729 0.0429992 0.0216799)
(1.12703 0.04095 0.00610135)
(1.1604 0.0367967 -0.0125989)
(1.18932 0.0312025 -0.0297476)
(1.19544 0.02398 -0.0344961)
(1.07246 0.0149571 0.00147337)
(1.05007 0.00574564 -0.00603139)
(1.04055 0.00183356 -0.0329567)
(1.04827 0.00645369 -0.0639756)
(1.06859 0.0187367 -0.0785795)
(1.09011 0.0312611 -0.0698473)
(1.09927 0.0429689 -0.0449265)
(1.09313 0.0492932 -0.011479)
(1.0762 0.0384354 0.0190775)
(1.05144 0.00904029 0.0379892)
(1.03186 -0.0240855 0.0411188)
(1.02451 -0.0390541 0.0303653)
(1.03108 -0.0268419 0.012748)
(1.04514 0.000485244 -0.0108064)
(1.05386 0.0254212 -0.0297089)
(1.05568 0.0326127 -0.0301818)
(1.05118 0.0240578 -0.0113976)
(1.04844 0.0102469 0.0139528)
(1.05106 -0.00404021 0.0278138)
(1.05363 -0.0124463 0.0255773)
(1.05276 -0.0181634 0.0122681)
(1.04753 -0.0249893 -0.00279285)
(1.04514 -0.0259974 -0.0142487)
(1.04464 -0.0218088 -0.0186157)
(1.04494 -0.0166989 -0.0143375)
(1.04282 -0.0132426 -0.00603174)
(1.03612 -0.0154092 0.00568733)
(1.03614 -0.021195 0.0156734)
(1.04199 -0.0262533 0.0233174)
(1.0572 -0.0237932 0.0327754)
(1.07526 -0.00977626 0.0444162)
(1.082 0.0159025 0.0601417)
(1.08385 0.0408938 0.0711246)
(1.08421 0.0471538 0.0631587)
(1.09268 0.0367751 0.0389557)
(1.11324 0.0200933 0.00933402)
(1.13091 0.010606 -0.01595)
(1.13973 0.0147421 -0.0284226)
(1.13083 0.0235545 -0.0252832)
(1.1053 0.0244785 -0.0102626)
(1.04612 0.0268459 0.00911098)
(1.03354 0.0156943 -0.0195437)
(1.03103 -0.00434483 -0.0602363)
(1.04086 -0.020415 -0.0841693)
(1.05643 -0.021191 -0.0805833)
(1.06697 -0.00530251 -0.0568404)
(1.06743 0.0232023 -0.0199634)
(1.06431 0.0485166 0.0218376)
(1.05865 0.0497688 0.0515861)
(1.04915 0.0177037 0.0569927)
(1.03885 -0.0239113 0.031058)
(1.02578 -0.0413051 -0.0129966)
(1.01288 -0.0277056 -0.0460707)
(1.01135 -0.00214028 -0.0587415)
(1.02608 0.0164474 -0.0482013)
(1.04826 0.0213883 -0.020975)
(1.05906 0.0134007 0.00599074)
(1.05179 -0.00277161 0.0198365)
(1.03258 -0.0197958 0.0139127)
(1.01318 -0.0297706 -0.00528637)
(1.00424 -0.0360071 -0.0217852)
(1.00409 -0.0429449 -0.0277201)
(1.00918 -0.0433666 -0.0244984)
(1.01055 -0.0348283 -0.0176606)
(1.01158 -0.019885 -0.0147388)
(1.01888 -0.00840971 -0.0106713)
(1.02255 -0.0107069 0.00171093)
(1.01578 -0.0238834 0.0173229)
(1.00044 -0.0379939 0.0356561)
(0.995532 -0.037755 0.0534091)
(1.00076 -0.023666 0.0660092)
(1.00823 -0.00530761 0.0717639)
(1.02055 0.00717122 0.0631091)
(1.02905 0.0087943 0.041342)
(1.0376 0.00820986 0.0169932)
(1.04775 0.00692814 -0.00541897)
(1.05652 0.00929398 -0.022931)
(1.06827 0.0183499 -0.0262825)
(1.07056 0.0274363 -0.0124578)
(1.06148 0.0304349 0.00701606)
(1.06892 0.032797 0.0245456)
(1.06996 0.0237904 -0.0230713)
(1.07596 0.00732467 -0.0663784)
(1.07516 -0.00693977 -0.0748968)
(1.07071 -0.0102361 -0.0530041)
(1.06339 0.0020623 -0.0183581)
(1.05897 0.022861 0.0216368)
(1.06065 0.0403412 0.0581911)
(1.062 0.0422174 0.0739235)
(1.05409 0.0212281 0.0613846)
(1.03798 -0.00551705 0.0263027)
(1.03075 -0.0174395 -0.00238739)
(1.02703 -0.0136221 -0.0119415)
(1.01894 -0.0114203 -0.017801)
(1.01524 -0.0174694 -0.021025)
(1.02716 -0.0161478 -0.0149341)
(1.04919 -0.00539352 0.000603168)
(1.05184 -0.00346448 0.018503)
(1.02852 -0.0162086 0.0219079)
(0.9988 -0.0322378 0.00882322)
(0.982085 -0.0459162 -0.00457516)
(0.981892 -0.0567284 -0.00761532)
(0.995347 -0.0566786 -0.00049881)
(1.01343 -0.0441412 0.00699128)
(1.03537 -0.0245996 0.00973606)
(1.05574 -0.00744327 0.0192496)
(1.04524 -0.000979751 0.0347604)
(0.999996 -0.0119124 0.0433595)
(0.951519 -0.0409637 0.0402775)
(0.932199 -0.0647831 0.0294423)
(0.941174 -0.0653116 0.0261995)
(0.966057 -0.0433294 0.0334759)
(0.993631 -0.016568 0.0378847)
(1.00386 -0.0035815 0.0345517)
(1.00303 -0.00244374 0.0194499)
(1.00276 -0.00542416 -0.00753505)
(1.01291 -0.00480348 -0.0309799)
(1.03909 0.00275944 -0.0290272)
(1.06395 0.0156688 0.00228934)
(1.07024 0.0287356 0.0336339)
(1.07486 0.0497042 0.0182672)
(1.11539 0.0286219 -0.0191485)
(1.14398 0.00738292 -0.0434315)
(1.12702 -0.00735366 -0.0440522)
(1.08461 -0.0156733 -0.0165145)
(1.04931 -0.0138395 0.0310472)
(1.04428 0.00348319 0.076482)
(1.06235 0.0340995 0.0927241)
(1.07716 0.0535837 0.0817007)
(1.06373 0.0366829 0.0456011)
(1.03088 0.00183097 -0.00703979)
(1.02711 -0.0155938 -0.0343472)
(1.04671 -0.0115423 -0.0359495)
(1.05967 -0.00873652 -0.0380245)
(1.0504 -0.0184385 -0.0369488)
(1.02986 -0.025768 -0.0187552)
(1.01668 -0.0217811 0.0148051)
(0.995659 -0.0235876 0.0349291)
(0.976102 -0.0340125 0.0206648)
(0.963385 -0.0403805 -0.00943813)
(0.952892 -0.0488596 -0.0206296)
(0.951072 -0.0634517 -0.00670478)
(0.964703 -0.0712694 0.0113503)
(0.989795 -0.0632775 0.0188839)
(1.01855 -0.0348703 0.0299408)
(1.02304 -0.00151386 0.0527997)
(0.988312 0.014169 0.0619696)
(0.948179 0.000455391 0.0421934)
(0.921417 -0.038159 0.00911406)
(0.911315 -0.0737505 -0.0112925)
(0.916604 -0.0835717 -0.00381006)
(0.931851 -0.0632496 0.0154724)
(0.945009 -0.0308847 0.0251188)
(0.954099 -0.0111992 0.0255956)
(0.97576 -0.0050068 0.0234815)
(0.999708 -0.00634197 0.0208405)
(1.01393 -0.0047336 0.0179438)
(1.01828 0.00866979 0.0189554)
(1.02346 0.0324411 0.0302858)
(1.04213 0.0526399 0.0388799)
(1.12222 0.00573876 0.00276262)
(1.15343 -0.00230272 -0.0250674)
(1.13814 -0.00162388 -0.028683)
(1.08326 0.00413262 -0.0194102)
(1.03808 0.0136782 0.00496952)
(1.01212 0.0269803 0.0448145)
(1.01908 0.0474628 0.0779763)
(1.05451 0.0667671 0.0806158)
(1.07967 0.0563077 0.0687578)
(1.06352 0.0188333 0.0345934)
(1.01993 -0.00518454 -0.0178741)
(1.01743 -0.000433924 -0.045607)
(1.05998 0.0168433 -0.0615659)
(1.09399 0.0246026 -0.075065)
(1.07591 0.0116548 -0.0651979)
(1.02848 -0.00858151 -0.0231031)
(1.00587 -0.0174832 0.0242395)
(1.00294 -0.0231436 0.0287351)
(1.00542 -0.0279014 -5.57782e-05)
(0.995263 -0.0280979 -0.0223837)
(0.973483 -0.0385537 -0.0240979)
(0.963045 -0.0564124 -0.0116376)
(0.962578 -0.0620842 0.000109778)
(0.961585 -0.0511981 0.0126376)
(0.967631 -0.0232845 0.038531)
(0.972577 0.0062395 0.0581381)
(0.971594 0.0232148 0.0436957)
(0.960849 0.0151645 0.0131796)
(0.935495 -0.0244215 -0.009432)
(0.913025 -0.0600624 -0.0148401)
(0.900339 -0.0679314 0.00134388)
(0.897679 -0.054804 0.01758)
(0.897807 -0.036698 0.0144519)
(0.908859 -0.0263592 0.00729975)
(0.945069 -0.0154294 0.015322)
(0.970863 0.0019066 0.0275386)
(0.975572 0.0245203 0.0347576)
(0.979089 0.0406489 0.0420399)
(1.00995 0.0371131 0.051041)
(1.06446 0.0217121 0.0406174)
(1.01832 0.0360295 -0.0437563)
(1.02794 0.0251374 -0.0395255)
(1.01273 -0.0100512 -0.00136246)
(0.986735 -0.0304276 0.0288191)
(0.986374 -0.0157303 0.0434844)
(0.995535 0.00824345 0.0681303)
(1.02655 0.033826 0.0860937)
(1.06254 0.0464601 0.0747341)
(1.0659 0.026931 0.0488264)
(1.02196 -0.0146445 0.0179969)
(0.984065 -0.0418559 -0.014496)
(1.02643 -0.0270929 -0.0405037)
(1.07736 0.0102129 -0.0757192)
(1.07519 0.0416999 -0.0992521)
(1.03666 0.0367534 -0.0670074)
(0.983556 -0.00160307 -0.00163512)
(0.958387 -0.0257319 0.0266584)
(0.96014 -0.0309721 0.00697278)
(0.975452 -0.0326605 -0.0182349)
(0.987187 -0.0262803 -0.0295889)
(0.985962 -0.029925 -0.0155095)
(0.988626 -0.0377044 0.0150562)
(0.981052 -0.0338437 0.0300822)
(0.960233 -0.0337698 0.0299126)
(0.951198 -0.0306167 0.0335505)
(0.952163 -0.00738543 0.0345004)
(0.947855 0.0257158 0.0331152)
(0.927568 0.0284567 0.0363584)
(0.905625 -0.0153069 0.0196559)
(0.90023 -0.0633779 -0.0103211)
(0.905523 -0.087371 -0.0230338)
(0.914165 -0.0762308 -0.027249)
(0.907655 -0.0391634 -0.0370748)
(0.905892 -0.00718379 -0.0309022)
(0.919377 0.00480922 0.00378257)
(0.918169 0.000626985 0.0294403)
(0.942537 -0.00288675 0.0346858)
(0.998807 -0.00426587 0.0374338)
(1.03992 0.00455143 0.0247417)
(1.03026 0.0248453 -0.0105292)
(0.968703 -0.00491001 -0.0338947)
(0.987352 -0.0328409 -0.00736988)
(0.946337 -0.0427843 0.0104586)
(0.915806 -0.0145111 0.00515616)
(0.940915 0.0191365 0.0146245)
(0.988537 0.0299463 0.0448642)
(1.04158 0.0432935 0.0503818)
(1.07217 0.056745 0.0142542)
(1.055 0.0418167 -0.0215263)
(1.00128 -0.0036101 -0.0382959)
(0.959174 -0.0325088 -0.0488235)
(0.967142 -0.0115529 -0.0464186)
(0.966373 0.0233429 -0.0559063)
(0.954839 0.0370744 -0.0695793)
(0.959459 0.0134324 -0.0378168)
(0.957804 -0.0158403 0.010218)
(0.959612 -0.0156934 0.0265406)
(0.972524 -0.0215838 0.0206795)
(0.987714 -0.035413 0.000604369)
(0.99288 -0.0343517 -0.00867716)
(0.999811 -0.039645 0.0190055)
(1.00381 -0.035176 0.0438213)
(0.990177 -0.0120284 0.0408214)
(0.980053 -0.0163652 0.0342016)
(0.970122 -0.0311192 0.0246515)
(0.962591 -0.00854345 0.0189331)
(0.960778 0.0328406 0.0373486)
(0.960107 0.0311888 0.0608872)
(0.961322 -0.0265241 0.051125)
(0.929889 -0.0808009 0.014447)
(0.893474 -0.10466 -0.0139508)
(0.896472 -0.102626 -0.025971)
(0.917551 -0.0743231 -0.0334782)
(0.9498 -0.0425926 -0.0260494)
(0.972801 -0.017591 -0.0037784)
(0.969754 0.00123261 -0.00100762)
(0.962224 0.0089264 -0.0114605)
(0.920099 0.0133585 -0.0237102)
(0.87727 0.0235172 -0.0445588)
(0.910218 0.0198556 -0.0492853)
(0.960124 -0.0424488 0.00399243)
(0.922023 -0.0208203 -0.0034609)
(0.891165 0.00477189 -0.0279633)
(0.905018 0.0271553 -0.0460954)
(0.971299 0.0316371 -0.0260362)
(1.02939 0.0254424 -0.00042121)
(1.05938 0.0430201 -0.0169531)
(1.04224 0.0595356 -0.0498055)
(0.986147 0.0307581 -0.0485166)
(0.936856 -0.0194663 -0.0389156)
(0.925528 -0.0368869 -0.0417227)
(0.942892 -0.0120817 -0.0382936)
(0.9418 0.0194243 -0.0499001)
(0.946561 0.0215552 -0.052614)
(0.960975 -0.00836479 -0.0152035)
(0.956813 -0.0260398 0.0184218)
(0.955537 -0.0108149 0.0279377)
(0.970444 -0.00501112 0.021247)
(0.998361 -0.0215297 -0.00543639)
(1.03246 -0.0410327 -0.00450242)
(1.05236 -0.0464254 0.0498836)
(1.02267 -0.0218366 0.0720642)
(0.984063 -0.00253456 0.0549739)
(0.989137 -0.0211469 0.0479252)
(0.984356 -0.027196 0.0244875)
(0.963184 0.00775841 0.00477299)
(0.956832 0.0434703 0.0271744)
(0.982533 0.0325521 0.0600639)
(1.02246 -0.00893181 0.057205)
(1.0053 -0.0439707 0.0214995)
(0.971014 -0.0807993 -0.00165571)
(0.973668 -0.112732 -0.0110581)
(0.968848 -0.0965125 -0.0299837)
(0.952423 -0.0376269 -0.0377515)
(0.944756 0.0156081 -0.0205566)
(0.932555 0.0184431 -0.0120065)
(0.913249 -0.000298751 -0.0257077)
(0.88882 0.00681778 -0.0494717)
(0.901083 0.00366904 -0.0519047)
(0.954826 -0.0296699 -0.0183184)
(0.916927 -0.0129294 -0.0167413)
(0.890831 -6.03898e-06 -0.0107715)
(0.91276 0.00187661 -0.0245783)
(0.973795 0.00680813 -0.0383637)
(1.02084 0.00592209 -0.0175831)
(1.01381 0.00655401 -0.00725467)
(1.00264 0.0315471 -0.0393931)
(0.983698 0.0511321 -0.0655803)
(0.942631 0.0234537 -0.0452242)
(0.90686 -0.0245877 -0.0275001)
(0.90756 -0.0390336 -0.0445568)
(0.923728 -0.0128567 -0.0678329)
(0.937069 0.0161011 -0.072572)
(0.969773 0.012941 -0.0293855)
(0.967198 -0.017518 0.0278805)
(0.929134 -0.0152452 0.024846)
(0.923295 0.0084435 -0.00385709)
(0.954029 -0.0112708 0.00257936)
(0.997946 -0.0508733 0.03052)
(1.0208 -0.0632729 0.0674016)
(1.01503 -0.035467 0.0874812)
(0.99661 0.010513 0.0515562)
(0.984141 0.0196269 0.0219625)
(0.963921 -0.00452882 0.0229326)
(0.928013 -0.00459759 0.00335568)
(0.912786 0.0256621 -0.0131873)
(0.925903 0.0461448 0.00389588)
(0.970156 0.0235198 0.0336124)
(1.00978 -0.0177216 0.03566)
(1.0038 -0.0487387 0.00968231)
(0.970253 -0.0786481 -0.00836645)
(0.94665 -0.0874743 -0.0330495)
(0.93163 -0.056212 -0.0654837)
(0.940366 -0.0170003 -0.0540691)
(0.963083 0.00965208 -0.0149563)
(0.940294 0.00779819 -0.0142305)
(0.888665 -0.0061978 -0.0506255)
(0.874783 -0.00825211 -0.0806032)
(0.920293 -0.0199797 -0.0701848)
(0.952382 -0.0289717 -0.0363496)
(0.889761 -0.00361102 -0.0246835)
(0.910753 0.00380689 0.0174885)
(0.94396 -0.000465949 0.00177347)
(1.00465 -0.00591631 -0.0358344)
(1.03631 0.00100423 -0.01601)
(0.993376 0.013678 0.00222692)
(0.964464 0.0315925 -0.0346331)
(0.975493 0.0396566 -0.0579239)
(0.974379 0.0136666 -0.0275261)
(0.948717 -0.020445 -0.00887255)
(0.935545 -0.0307853 -0.0472763)
(0.935424 -0.01739 -0.0898009)
(0.965809 0.00429579 -0.0687359)
(1.00381 0.00665753 0.00573796)
(0.963066 -0.00697886 0.0410603)
(0.926357 0.00712509 0.00909527)
(0.94651 0.0118451 -0.00535667)
(0.962124 -0.0357851 0.0311069)
(0.968158 -0.0735394 0.0666879)
(0.960413 -0.0651433 0.089035)
(0.957998 -0.0195952 0.0827177)
(0.986774 0.0281541 0.0335946)
(0.994469 0.0343802 0.0074586)
(0.94615 0.01305 0.0129781)
(0.902661 0.00851689 0.00892677)
(0.889449 0.0329626 0.00310759)
(0.922612 0.0497102 -0.000976892)
(0.986266 0.0208455 0.00334693)
(1.00566 -0.0205882 -0.000550068)
(0.984019 -0.0424787 -0.0176688)
(0.921625 -0.0682596 -0.0284699)
(0.877915 -0.0875342 -0.0463078)
(0.905713 -0.0719974 -0.0517158)
(0.955001 -0.0323919 -0.0266536)
(0.959775 0.0079809 -0.0198614)
(0.917324 0.0131351 -0.0438563)
(0.889625 -0.00488079 -0.056979)
(0.89125 -0.0159005 -0.0635347)
(0.893743 -0.0266144 -0.0688823)
(0.889762 -0.0215067 -0.0601153)
(0.905053 -0.000626328 -0.0370121)
(0.929303 0.00318348 -0.00658482)
(0.9503 -0.00286023 -0.0221909)
(0.987616 -0.0086899 -0.0531692)
(0.980338 0.00116244 -0.035712)
(0.925338 0.00943375 -0.0178055)
(0.938594 0.0122351 -0.0262387)
(1.00194 0.013996 -0.0159123)
(0.990692 0.00314019 0.00665961)
(0.931439 -0.00557441 -0.0162827)
(0.915375 -0.0107148 -0.072089)
(0.952557 -0.011504 -0.0797873)
(1.00752 0.0107755 -0.0244019)
(0.984435 0.0287907 0.0273715)
(0.915159 0.00833746 0.0329324)
(0.937261 -0.00169187 0.0176553)
(0.97572 -0.00491033 0.0309632)
(0.962463 -0.0473288 0.0651497)
(0.958239 -0.0731062 0.0797321)
(0.945299 -0.0543701 0.0796229)
(0.947807 -0.0163565 0.0515583)
(0.990812 0.0200188 -0.000340479)
(0.99529 0.0333286 -0.0110772)
(0.939016 0.0197937 0.00460869)
(0.895021 0.0179723 0.00203391)
(0.882336 0.0428878 -0.0107838)
(0.932692 0.043129 -0.0284892)
(0.993653 -0.00349042 -0.0289886)
(0.99492 -0.0358088 -0.032526)
(0.994947 -0.0396212 -0.0406245)
(0.966316 -0.0617683 -0.0325944)
(0.907077 -0.085693 -0.0278691)
(0.867769 -0.0678744 -0.0176825)
(0.855228 -0.0223662 -0.00976323)
(0.867118 0.0109661 -0.0313425)
(0.866443 0.0038064 -0.0593035)
(0.872774 -0.00580856 -0.0552793)
(0.905868 -0.00193114 -0.0415322)
(0.907874 -0.00963809 -0.0437852)
(0.890666 -0.0101353 -0.0526041)
(0.925215 0.00711638 -0.0493083)
(0.924754 0.00834747 -0.00619682)
(0.900386 -0.00472267 -0.0138959)
(0.9204 -0.00806693 -0.046816)
(0.927393 0.00586207 -0.0265189)
(0.909395 0.000714525 0.00879726)
(0.933615 -0.0155687 0.0191761)
(0.973431 -0.0096975 0.0245978)
(0.952977 0.0111846 0.0186389)
(0.908488 0.0245888 -0.029358)
(0.892445 0.00429412 -0.0766531)
(0.93959 -0.0166208 -0.0520351)
(0.991604 0.020768 0.00306021)
(0.945182 0.0573102 0.0131)
(0.908916 0.0181823 0.0233399)
(0.97022 -0.00646102 0.0492654)
(0.983694 -0.0137436 0.066488)
(0.9351 -0.0635881 0.0756599)
(0.922986 -0.0814968 0.0637766)
(0.913524 -0.0494384 0.0456274)
(0.934876 -0.0211293 0.0202664)
(0.998037 0.00411842 -0.0192574)
(0.99645 0.027034 -0.0215648)
(0.930849 0.0245156 -0.00451499)
(0.895331 0.0301791 -0.0109129)
(0.896747 0.0489182 -0.024151)
(0.96065 0.0248227 -0.0393567)
(1.00676 -0.0333608 -0.0502162)
(0.978039 -0.0589592 -0.0640682)
(0.981505 -0.0456536 -0.0461992)
(0.975271 -0.0439389 -0.0292257)
(0.911476 -0.0598174 -0.0475064)
(0.851478 -0.0609645 -0.032674)
(0.822229 -0.0357325 -0.021098)
(0.834405 -0.00532098 -0.0533696)
(0.847315 0.00394904 -0.0675088)
(0.87274 0.0070808 -0.0400744)
(0.920611 0.00970359 -0.0231841)
(0.913313 -0.00146364 -0.0333024)
(0.896013 -0.00373235 -0.0591353)
(0.959876 0.0151082 -0.0383834)
(0.921654 0.0244378 0.00586304)
(0.854942 0.0130577 0.0188828)
(0.871173 0.0054603 -0.00357942)
(0.91102 0.00971319 0.0175835)
(0.945425 -0.00358133 0.0613049)
(0.964466 -0.0205877 0.064831)
(0.957768 -0.0117512 0.0351681)
(0.92319 0.0179234 0.010796)
(0.889217 0.031084 -0.0223224)
(0.87729 0.001382 -0.0562697)
(0.918184 -0.0158853 -0.0309351)
(0.950411 0.03804 0.00856546)
(0.915204 0.0716109 0.00359313)
(0.938509 0.0140234 0.0212388)
(1.01833 -0.010408 0.0537123)
(1.02479 -0.0142614 0.0723664)
(0.954648 -0.0667264 0.0774358)
(0.900578 -0.078396 0.045768)
(0.890749 -0.0398783 0.0199365)
(0.937913 -0.0232159 0.00779333)
(0.996402 -0.0002977 -0.0191388)
(0.972693 0.0371353 -0.0211063)
(0.907579 0.0374682 -0.0112341)
(0.896442 0.0338282 -0.017228)
(0.911106 0.0402498 -0.0207632)
(0.966175 0.00816463 -0.0357889)
(1.0098 -0.0427515 -0.0700402)
(0.99917 -0.060993 -0.0820967)
(1.00252 -0.0422665 -0.034966)
(0.973341 -0.0264921 -0.0381502)
(0.912134 -0.0416064 -0.085951)
(0.872575 -0.062591 -0.0375794)
(0.85401 -0.0392194 0.000997296)
(0.856238 0.00751871 -0.0484817)
(0.85455 0.0254069 -0.0598714)
(0.888587 0.0232811 -0.0142301)
(0.940319 0.0225649 4.84818e-05)
(0.915509 0.00726911 -0.014873)
(0.913609 -0.00143 -0.0382182)
(0.97389 0.0264245 -0.00977712)
(0.876492 0.0404754 0.023784)
(0.765232 0.019897 0.0412838)
(0.768918 0.00144543 0.0343046)
(0.863001 -0.0153622 0.0531438)
(0.970118 -0.0338882 0.0881632)
(0.991626 -0.0372108 0.074692)
(0.955568 -0.0161303 0.0164787)
(0.927256 0.0196353 -0.0090209)
(0.903421 0.0269902 -0.00939358)
(0.877017 -0.00495498 -0.0203941)
(0.882571 -0.00563329 0.00198908)
(0.888414 0.0618907 0.0280376)
(0.913293 0.0780927 0.0196923)
(0.985472 0.00800403 0.0351026)
(1.04415 -0.0122642 0.0474772)
(1.0563 -0.0145333 0.0750498)
(0.978816 -0.0640853 0.0861905)
(0.902247 -0.0680547 0.0269499)
(0.907844 -0.0296667 0.00258808)
(0.952763 -0.0221578 0.00306855)
(0.97595 0.00393809 -0.0250924)
(0.934842 0.051805 -0.0294925)
(0.883223 0.0419606 -0.0170257)
(0.903853 0.0266833 -0.0180466)
(0.931563 0.0312362 -0.0204072)
(0.970678 -0.002672 -0.0363606)
(1.00968 -0.055048 -0.081795)
(1.01751 -0.0710591 -0.0751317)
(1.00827 -0.0480481 -0.00957295)
(0.974729 -0.0124078 -0.0494574)
(0.953963 -0.0213562 -0.117266)
(0.90684 -0.0685253 -0.0318955)
(0.867676 -0.0523422 0.0446706)
(0.885292 0.0186575 -0.0143163)
(0.887094 0.0465959 -0.0360539)
(0.918242 0.0318909 0.00487815)
(0.946425 0.0284886 0.00629043)
(0.911533 0.0118471 -0.00872426)
(0.93654 -0.00068391 -0.0131093)
(0.954451 0.0357486 0.0109075)
(0.835014 0.0601907 0.0264041)
(0.74775 0.0328211 0.0230082)
(0.765649 -0.0146128 0.00691406)
(0.852264 -0.0596245 0.0233756)
(0.952228 -0.0709887 0.0606661)
(0.962314 -0.0482848 0.0408339)
(0.9194 -0.0130283 -0.0186317)
(0.927463 0.0258754 -0.033692)
(0.924469 0.026934 -0.00899769)
(0.877644 -0.00668007 0.00422123)
(0.839602 0.00887339 0.0302437)
(0.829201 0.0771296 0.0469887)
(0.931669 0.0705542 0.0358628)
(1.022 0.00593215 0.0591591)
(1.05301 -0.0109989 0.0565956)
(1.06463 -0.021414 0.0805561)
(0.971108 -0.0581914 0.0948947)
(0.895321 -0.0517739 0.0177589)
(0.931859 -0.0193706 -0.00786614)
(0.958566 -0.0193496 -0.00645226)
(0.944982 0.013103 -0.0414316)
(0.90031 0.0678572 -0.0385914)
(0.875268 0.04641 -0.00548568)
(0.924413 0.0156929 -0.00943259)
(0.945786 0.0201396 -0.0365048)
(0.979376 0.0032198 -0.0528498)
(1.03843 -0.0435039 -0.0757766)
(1.03081 -0.0681449 -0.0483121)
(0.973391 -0.0422324 -0.00102925)
(0.943591 0.00151445 -0.0673468)
(0.966568 -0.0155744 -0.120777)
(0.911276 -0.0748752 -0.0295777)
(0.841337 -0.0524316 0.047943)
(0.866112 0.033696 0.00978994)
(0.89605 0.0611987 0.000156562)
(0.932226 0.0390128 0.0243366)
(0.938187 0.0384118 0.00896948)
(0.932379 0.017123 -0.0116471)
(0.970272 -0.000608352 -0.00446759)
(0.942649 0.0424932 0.0179411)
(0.837139 0.069869 0.0313024)
(0.803568 0.0368967 0.0148211)
(0.843176 -0.0237848 -0.00795839)
(0.864871 -0.0739545 0.0165508)
(0.888045 -0.0771617 0.0459733)
(0.879484 -0.0451027 0.00611942)
(0.85953 -0.00706087 -0.0527772)
(0.912598 0.0300015 -0.0478892)
(0.922943 0.0254059 -0.00643176)
(0.864852 -0.00777701 0.0102626)
(0.807715 0.0176517 0.0437371)
(0.812317 0.0758327 0.0574097)
(0.97651 0.0556165 0.0577051)
(1.04674 0.00662516 0.0901248)
(1.03243 -0.00516201 0.061051)
(1.02527 -0.021018 0.0711655)
(0.940584 -0.0446371 0.0993913)
(0.890117 -0.0385175 0.0190245)
(0.957159 -0.0143046 -0.00946371)
(0.966088 -0.0129549 -0.010948)
(0.906645 0.0250304 -0.0627132)
(0.867582 0.0761436 -0.0456411)
(0.911304 0.0429606 0.0244078)
(0.969843 0.000593974 0.00927784)
(0.958556 0.014935 -0.0448039)
(1.00366 0.0133103 -0.0555609)
(1.06998 -0.0361788 -0.059142)
(1.01468 -0.0643306 -0.0408797)
(0.930891 -0.0246537 -0.00957169)
(0.920792 0.0207494 -0.0634789)
(0.936616 -0.0209282 -0.0902688)
(0.871997 -0.087396 -0.0143713)
(0.82158 -0.049061 0.0388573)
(0.83981 0.046406 0.0178325)
(0.886526 0.0623147 0.0241736)
(0.927609 0.0412928 0.0477957)
(0.944371 0.044493 0.0321797)
(0.975177 0.0182041 -0.000489097)
(0.9967 0.00126597 -0.00195004)
(0.921685 0.0452679 0.0180094)
(0.858532 0.0719887 0.0333193)
(0.870953 0.0356949 0.013794)
(0.89114 -0.025694 0.00800423)
(0.848561 -0.0701386 0.04508)
(0.792704 -0.0727961 0.0303234)
(0.766244 -0.0478063 -0.0430168)
(0.78778 -0.0081777 -0.0877235)
(0.87227 0.0311958 -0.0490771)
(0.879785 0.0224011 -0.00220238)
(0.834911 -0.00848492 -0.000151319)
(0.809422 0.0206358 0.0300967)
(0.864378 0.0660288 0.061903)
(1.0204 0.0443879 0.0999164)
(1.02238 0.0179671 0.105149)
(0.975844 0.0119473 0.0321238)
(0.95626 -0.0181483 0.0482601)
(0.901737 -0.0384557 0.0943885)
(0.89002 -0.0291134 0.0220893)
(0.957812 -0.00931555 -0.00130238)
(0.950199 0.000774253 -0.00554115)
(0.868812 0.045915 -0.0665492)
(0.883685 0.083092 -0.0259109)
(1.00026 0.0329777 0.0615896)
(1.0346 -0.0092439 0.0317176)
(0.99813 0.0167824 -0.0341677)
(1.04887 0.0250475 -0.0522858)
(1.07815 -0.0223178 -0.0493266)
(0.954667 -0.0494169 -0.0300151)
(0.878577 -0.000299999 -0.0166202)
(0.924175 0.0415533 -0.0554705)
(0.929745 -0.0219997 -0.0436562)
(0.80558 -0.0904386 0.0120076)
(0.750926 -0.0365935 0.0385083)
(0.799337 0.052597 0.0310263)
(0.876202 0.0532407 0.0439243)
(0.913543 0.0365789 0.0656784)
(0.960341 0.0417669 0.0505182)
(1.01177 0.018061 0.0134021)
(0.993373 0.00363666 0.000819386)
(0.862628 0.0444002 0.01276)
(0.876523 0.0702272 0.0335193)
(0.92978 0.037846 0.0114001)
(0.921049 -0.020794 0.0170973)
(0.852338 -0.058263 0.0590312)
(0.760122 -0.069327 0.0164537)
(0.707726 -0.0555102 -0.0714237)
(0.73374 -0.0114643 -0.0912778)
(0.807475 0.0298134 -0.0348687)
(0.819166 0.0162949 -0.00807366)
(0.821431 -0.0100547 -0.0154739)
(0.8359 0.0234264 0.0321041)
(0.912044 0.0615837 0.097513)
(1.01141 0.0461162 0.132951)
(0.993259 0.0351467 0.0887169)
(0.958826 0.0222226 0.00395975)
(0.916204 -0.0213796 0.0405672)
(0.866514 -0.0431162 0.0770849)
(0.886185 -0.0257815 0.0124576)
(0.939774 0.00094394 -0.0172026)
(0.900323 0.0227177 -0.0333571)
(0.845781 0.0634477 -0.05487)
(0.951914 0.0765952 0.0264227)
(1.07712 0.0148779 0.0811594)
(1.0507 -0.0174488 0.0266603)
(1.00135 0.020985 -0.0424804)
(1.08501 0.0390559 -0.0618356)
(1.08616 -0.0076092 -0.0468201)
(0.917917 -0.0363346 -0.0253726)
(0.86116 0.0165608 -0.020903)
(0.936021 0.0566344 -0.0414619)
(0.965062 -0.0186086 -0.000563901)
(0.809976 -0.0834375 0.0255948)
(0.714429 -0.0272181 0.0317803)
(0.805916 0.0451123 0.0391869)
(0.89951 0.0371817 0.047146)
(0.900084 0.0245249 0.0523626)
(0.954221 0.0327502 0.0365819)
(1.03165 0.0177181 0.0144251)
(0.96533 0.00803991 -0.00117987)
(0.801612 0.040473 0.00106477)
(0.888563 0.0609147 0.0400535)
(0.946748 0.0400698 0.0179903)
(0.949061 -0.0166091 0.0203344)
(0.888775 -0.0507676 0.066003)
(0.788295 -0.0693917 0.025084)
(0.712373 -0.0582816 -0.0598628)
(0.707681 -0.00813436 -0.068345)
(0.760341 0.026473 -0.0238091)
(0.810704 0.00744331 -0.0179869)
(0.828038 -0.00583362 -0.00473815)
(0.833307 0.0341747 0.0648987)
(0.916397 0.0670348 0.133457)
(0.975433 0.0517945 0.141698)
(0.980247 0.0393358 0.0744535)
(0.97763 0.0253725 0.000342774)
(0.896232 -0.022524 0.0397519)
(0.819997 -0.0424283 0.0285352)
(0.850834 -0.0132435 -0.0450813)
(0.900541 0.0199206 -0.0612005)
(0.867902 0.0365375 -0.0487317)
(0.858555 0.0587315 -0.0157849)
(0.992973 0.0520112 0.0551505)
(1.08845 0.00284593 0.051281)
(0.998576 -0.0152254 -0.0135906)
(0.968263 0.0264929 -0.0746994)
(1.11792 0.0448152 -0.0839835)
(1.09298 0.00181658 -0.0530998)
(0.903316 -0.025245 -0.0195438)
(0.845399 0.03328 -0.0238191)
(0.927954 0.0667481 -0.0340325)
(1.01351 -0.0134986 0.032921)
(0.852027 -0.0724303 0.0527726)
(0.742115 -0.0234731 0.0245944)
(0.858248 0.0275359 0.0291336)
(0.921862 0.020824 0.0317426)
(0.862588 0.0190641 0.0133593)
(0.920516 0.0272063 0.000839754)
(1.02513 0.0177794 0.00751507)
(0.906536 0.0186546 -0.00950197)
(0.800554 0.0287178 -0.00433374)
(0.88075 0.0492706 0.0564214)
(0.954607 0.0415554 0.0325573)
(1.01355 -0.0175221 0.0222434)
(0.910391 -0.0513975 0.0590121)
(0.768538 -0.0614924 0.00948941)
(0.693193 -0.04903 -0.0594268)
(0.687886 -0.00283209 -0.0395446)
(0.753303 0.0176958 0.00265363)
(0.828368 0.00589144 -0.00591703)
(0.815484 0.0106492 0.0166476)
(0.813503 0.0456157 0.0964753)
(0.897614 0.0684492 0.140304)
(0.928216 0.0544237 0.135333)
(0.981554 0.0360499 0.0652324)
(1.00279 0.0285945 -0.00131854)
(0.867837 -0.0154738 0.0350712)
(0.757124 -0.032958 -0.0299241)
(0.781101 0.00163148 -0.118546)
(0.858871 0.0303243 -0.0904421)
(0.86371 0.0354626 -0.0376794)
(0.851539 0.0464869 0.00462784)
(1.00032 0.0362708 0.0434265)
(1.08854 0.000297906 0.0151347)
(0.941274 -0.00778491 -0.0550807)
(0.941887 0.0246671 -0.100862)
(1.131 0.0408016 -0.0990116)
(1.1065 0.0079274 -0.0607741)
(0.918766 -0.00821885 -0.00411064)
(0.809184 0.0513127 -0.0108384)
(0.940023 0.0704886 -0.0276971)
(1.06306 -0.0139181 0.0338849)
(0.869511 -0.0579225 0.0708601)
(0.763981 -0.0214685 0.0228333)
(0.854702 0.0144351 0.00105239)
(0.89082 0.0163357 -0.00254713)
(0.825192 0.0215909 -0.0364832)
(0.886061 0.0232029 -0.0422526)
(0.979488 0.0229201 -0.00871837)
(0.863763 0.0261934 -0.0261449)
(0.823782 0.0177842 0.00872176)
(0.828205 0.0495105 0.0814922)
(0.993163 0.0381577 0.0462305)
(1.07166 -0.0222215 0.0242433)