/*--------------------------------*- C++ -*----------------------------------*\
  =========                 |
  \\      /  F ield         | OpenFOAM: The Open Source CFD Toolbox
   \\    /   O peration     | Website:  https://openfoam.org
    \\  /    A nd           | Version:  10
     \\/     M anipulation  |
\*---------------------------------------------------------------------------*/
FoamFile
{
    format      ascii;
    class       volSymmTensorField;
    location    "6";
    object      UPrime2Mean;
}
// * * * * * * * * * * * * * * * * * * * * * * * * * * * * * * * * * * * * * //

dimensions      [0 2 -2 0 0 0 0];

internalField   nonuniform List<symmTensor> 
25600
(
(0.000225804 -3.96712e-05 -1.14002e-05 2.31829e-05 8.87669e-06 2.57304e-05)
(0.000167298 -3.94056e-05 -3.10906e-06 2.54948e-05 7.96686e-06 2.42529e-05)
(7.3773e-05 -3.5828e-05 -5.80603e-06 3.91407e-05 1.06691e-05 2.46355e-05)
(3.2938e-05 -1.60164e-05 -5.55537e-06 5.95728e-05 1.95513e-05 2.69375e-05)
(2.9426e-05 -6.25442e-06 -4.3474e-06 5.91475e-05 2.69342e-05 3.16308e-05)
(3.34166e-05 -9.63841e-06 -8.43411e-06 2.86413e-05 1.8729e-05 3.10596e-05)
(5.36209e-05 -1.12013e-07 -9.05586e-06 1.40557e-05 8.69135e-06 2.47464e-05)
(7.41654e-05 1.83436e-05 5.03854e-06 2.09352e-05 1.22124e-05 2.50984e-05)
(7.35102e-05 1.89958e-05 2.04562e-05 2.14023e-05 1.84499e-05 3.59357e-05)
(6.82736e-05 6.87712e-06 2.80378e-05 1.4756e-05 1.31886e-05 4.7707e-05)
(7.31516e-05 -2.95303e-06 3.36298e-05 1.41542e-05 5.12036e-06 5.3942e-05)
(9.46046e-05 -9.41977e-06 4.46209e-05 1.56686e-05 5.56443e-07 5.76274e-05)
(9.95333e-05 -7.7367e-06 5.04265e-05 1.50068e-05 1.46668e-06 6.25029e-05)
(6.12212e-05 2.81116e-06 3.72253e-05 1.39984e-05 9.84978e-06 7.2222e-05)
(3.29891e-05 6.29519e-07 -3.08755e-06 1.68288e-05 1.85705e-05 6.94097e-05)
(0.000101655 -2.06749e-05 -4.68115e-05 2.15108e-05 2.28988e-05 5.57693e-05)
(0.000191494 -3.65806e-05 -5.35628e-05 2.3576e-05 2.05316e-05 4.14337e-05)
(0.000161647 -3.15979e-05 -3.4098e-05 2.28923e-05 1.59039e-05 3.13403e-05)
(6.53142e-05 -1.2507e-05 -1.5517e-05 2.02122e-05 1.3247e-05 2.88171e-05)
(4.16009e-05 1.69543e-06 3.93565e-07 1.75321e-05 1.09026e-05 2.70178e-05)
(8.03818e-05 1.03797e-05 8.46933e-06 1.81984e-05 1.08747e-05 2.61579e-05)
(8.18431e-05 1.64695e-05 4.15572e-06 2.2252e-05 1.04934e-05 2.45879e-05)
(4.78306e-05 1.12339e-05 -3.19281e-06 2.75841e-05 7.29038e-06 2.41946e-05)
(3.64479e-05 -4.66778e-06 -1.21039e-06 3.07968e-05 4.49786e-06 2.47802e-05)
(4.48433e-05 -1.4452e-05 1.92301e-06 3.12199e-05 4.16981e-06 2.44577e-05)
(3.5693e-05 -5.84724e-06 -1.49827e-06 2.56736e-05 8.68859e-06 2.34227e-05)
(4.52478e-05 5.91492e-06 4.91302e-06 2.17484e-05 1.24104e-05 2.76724e-05)
(8.40359e-05 8.02022e-06 1.62797e-05 1.77627e-05 1.11652e-05 3.01203e-05)
(0.000125742 -2.94237e-06 6.76381e-06 1.49903e-05 6.6253e-06 2.4554e-05)
(0.000112697 -1.18239e-05 -3.39666e-05 1.57421e-05 9.02901e-06 3.53778e-05)
(7.50275e-05 -1.78485e-05 -5.67948e-05 1.90725e-05 2.28059e-05 9.07708e-05)
(4.8272e-05 -1.52807e-05 -4.68674e-05 2.26425e-05 3.65933e-05 0.000142027)
(3.17338e-05 -6.19857e-06 -9.98327e-06 2.87796e-05 4.66224e-05 0.000141599)
(4.23174e-05 1.32345e-05 1.87248e-05 4.13434e-05 4.56493e-05 8.41007e-05)
(6.89568e-05 3.26383e-05 1.64097e-05 4.8422e-05 2.9404e-05 4.3587e-05)
(8.7877e-05 4.52411e-05 1.74935e-06 5.65033e-05 1.59917e-05 3.21529e-05)
(5.21119e-05 2.68367e-05 -8.31021e-06 5.56593e-05 6.65816e-06 3.10678e-05)
(3.26468e-05 -1.05609e-05 -7.62741e-06 4.57926e-05 7.87642e-06 3.03943e-05)
(0.000104493 -3.87822e-05 -8.58129e-06 3.56121e-05 8.16554e-06 3.01441e-05)
(0.000225853 -4.73641e-05 -1.07497e-05 2.6728e-05 8.11951e-06 2.83385e-05)
(9.00874e-05 5.36189e-06 -3.48959e-05 3.0471e-05 5.07748e-06 3.52958e-05)
(5.00394e-05 -1.79217e-06 -1.87991e-05 3.24951e-05 1.27916e-05 3.17692e-05)
(4.13235e-05 1.83441e-06 -9.76434e-06 2.72314e-05 8.02268e-06 2.34213e-05)
(3.94103e-05 2.9652e-06 -8.98578e-06 2.79587e-05 5.81841e-06 2.18155e-05)
(3.68093e-05 5.91832e-06 -9.61661e-06 3.09853e-05 2.55393e-06 2.37326e-05)
(3.71098e-05 8.2991e-06 -1.29185e-05 2.3332e-05 1.86822e-06 2.95198e-05)
(3.6792e-05 7.89617e-06 -1.2242e-05 2.00752e-05 8.34406e-06 4.11202e-05)
(3.8091e-05 1.00494e-05 -6.80362e-06 2.22012e-05 1.23988e-05 4.44659e-05)
(4.45673e-05 1.17705e-05 -2.25139e-06 2.03335e-05 8.08048e-06 3.48324e-05)
(5.40587e-05 6.64563e-07 -6.46866e-06 2.37759e-05 1.76018e-06 2.53273e-05)
(5.39822e-05 -1.59274e-05 -2.15132e-05 5.48394e-05 1.66601e-05 2.8762e-05)
(5.44024e-05 -2.82283e-05 -4.04362e-05 9.6138e-05 5.88126e-05 6.4653e-05)
(4.73117e-05 -2.29104e-05 -4.74781e-05 0.000109123 9.75828e-05 0.000125999)
(3.76889e-05 2.72968e-06 -2.6487e-05 5.28239e-05 6.8676e-05 0.000161374)
(4.07869e-05 1.13512e-05 4.77453e-06 2.34624e-05 1.53256e-05 0.000109441)
(8.15514e-05 2.16706e-06 7.15103e-06 2.39878e-05 1.68329e-06 4.18906e-05)
(0.000103696 2.39889e-06 -2.79638e-05 2.40608e-05 6.08601e-06 3.31608e-05)
(8.38615e-05 1.81096e-05 -4.20351e-05 2.44378e-05 -5.18092e-07 4.59677e-05)
(5.37496e-05 1.91719e-05 -2.90975e-05 2.8568e-05 -3.1332e-06 4.16857e-05)
(3.73495e-05 1.07274e-05 -1.59373e-05 2.53551e-05 3.51027e-06 3.12864e-05)
(3.50203e-05 8.19281e-06 -1.33842e-05 2.26621e-05 3.80792e-06 3.10962e-05)
(3.48686e-05 2.98294e-06 -1.04272e-05 3.80691e-05 -4.88842e-06 3.54536e-05)
(3.37732e-05 -1.41138e-06 -9.54676e-06 6.46049e-05 -1.22992e-05 3.65041e-05)
(3.08966e-05 1.4258e-05 -1.32481e-05 8.10309e-05 -1.21646e-05 3.31515e-05)
(6.12085e-05 5.34121e-05 -2.04703e-05 9.00455e-05 -1.18357e-05 3.12957e-05)
(0.000141166 8.85029e-05 -9.90997e-06 8.3769e-05 2.07665e-06 2.82494e-05)
(0.000218846 0.000100244 2.74175e-05 7.08648e-05 1.98022e-05 3.44897e-05)
(0.000204324 8.1827e-05 6.42774e-05 5.85268e-05 3.25753e-05 5.54324e-05)
(0.000130243 4.78138e-05 6.84696e-05 4.39803e-05 3.09649e-05 8.05955e-05)
(5.27237e-05 2.16638e-05 2.38306e-05 3.68037e-05 1.98617e-05 6.48841e-05)
(3.67438e-05 7.54083e-06 -7.01008e-06 3.23976e-05 9.89296e-06 3.70198e-05)
(4.56603e-05 7.21089e-06 -3.24139e-06 3.03674e-05 4.39038e-06 2.5654e-05)
(4.02381e-05 9.57265e-06 3.6487e-06 3.04983e-05 4.28789e-06 3.71867e-05)
(4.00194e-05 8.92763e-06 -1.10536e-05 3.02078e-05 4.78992e-06 5.15714e-05)
(5.97956e-05 1.12135e-05 -3.29327e-05 2.99616e-05 6.1632e-07 5.88808e-05)
(6.84556e-05 6.37307e-06 -3.6553e-05 2.91833e-05 4.47488e-06 5.56925e-05)
(5.63338e-05 -5.12427e-06 -2.49521e-05 3.99597e-05 1.60811e-05 4.14388e-05)
(4.12114e-05 8.16372e-06 -1.0016e-05 6.85081e-05 1.97252e-05 3.07259e-05)
(6.62939e-05 4.35505e-05 -1.08002e-05 8.14069e-05 2.22904e-06 2.42784e-05)
(0.000100779 4.09467e-05 -3.07984e-05 5.1565e-05 -8.59898e-06 3.09056e-05)
(0.000344059 6.08067e-05 -0.000117677 2.7596e-05 -1.00552e-05 7.51784e-05)
(0.000138799 3.44952e-05 -4.05855e-05 2.3781e-05 -1.70292e-07 4.96534e-05)
(0.00010368 3.13041e-05 -1.63963e-05 2.28457e-05 3.01474e-06 4.66939e-05)
(0.000109565 3.42678e-05 -7.92033e-06 2.3118e-05 8.36379e-06 7.29452e-05)
(0.000109626 3.20438e-05 -2.84852e-05 2.14955e-05 5.35468e-06 0.000118675)
(0.00012631 3.3645e-05 -5.96152e-05 2.04191e-05 -3.08282e-06 0.000125412)
(0.00011756 3.57331e-05 -5.17178e-05 2.14699e-05 -1.01497e-05 9.33731e-05)
(8.51809e-05 2.39669e-05 -2.16062e-05 2.95702e-05 -1.32867e-05 5.98827e-05)
(0.0001256 -5.46593e-06 -1.78053e-05 3.05247e-05 -4.22381e-06 4.46029e-05)
(0.000228298 -9.88472e-06 -5.9471e-05 2.10248e-05 4.21814e-06 5.13333e-05)
(0.000226797 2.27514e-05 -0.000118284 1.58776e-05 -5.8549e-06 9.69179e-05)
(0.00013656 4.30703e-05 -0.00013442 2.57353e-05 -4.30224e-05 0.000196548)
(6.6974e-05 2.87276e-05 -7.77323e-05 4.01568e-05 -8.55212e-05 0.00031724)
(5.37022e-05 8.64732e-06 -1.5901e-05 5.74355e-05 -0.000109027 0.000317355)
(5.04445e-05 1.14594e-05 -2.19024e-05 4.61801e-05 -6.75438e-05 0.000184306)
(5.19251e-05 2.03045e-05 -3.54673e-05 2.56202e-05 -2.20242e-05 8.55087e-05)
(7.33268e-05 1.98561e-05 -2.94507e-05 1.80617e-05 -7.95694e-06 6.23312e-05)
(8.02973e-05 1.2062e-05 -3.06441e-05 1.64846e-05 -6.11521e-06 6.17377e-05)
(5.65111e-05 1.26455e-05 -3.46831e-05 1.63601e-05 -5.85255e-06 7.32018e-05)
(4.42933e-05 1.38461e-05 -2.63042e-05 1.68608e-05 -7.8034e-06 9.05097e-05)
(4.11684e-05 1.2265e-05 -1.51696e-05 1.83501e-05 -1.31349e-05 9.28177e-05)
(4.05744e-05 1.17667e-05 -1.70384e-05 2.46074e-05 -1.9641e-05 7.87846e-05)
(4.07491e-05 1.66315e-05 -2.07596e-05 2.90117e-05 -1.52647e-05 5.98717e-05)
(6.19055e-05 2.87114e-05 -2.17369e-05 2.83072e-05 -7.98607e-06 5.09741e-05)
(0.000124707 4.09697e-05 -2.18327e-05 2.67339e-05 -6.7912e-06 4.89531e-05)
(0.000218681 5.02877e-05 -3.10073e-05 2.53358e-05 -8.23993e-06 4.7048e-05)
(0.000320559 6.02274e-05 -5.09814e-05 2.52467e-05 -9.35097e-06 4.51775e-05)
(0.000333354 6.0641e-05 -3.19377e-05 2.49469e-05 -4.88369e-06 3.75563e-05)
(0.000285759 4.70718e-05 2.86122e-05 2.2267e-05 3.79108e-06 4.21575e-05)
(0.000204494 2.02964e-05 6.27541e-05 1.80852e-05 3.69717e-07 7.28899e-05)
(0.000108358 2.90991e-06 3.76798e-05 2.1486e-05 -1.67591e-05 8.62135e-05)
(6.71214e-05 8.62849e-06 -4.34299e-06 4.14004e-05 -2.20844e-05 4.85764e-05)
(7.26433e-05 3.80393e-05 -6.88959e-06 7.45639e-05 1.00791e-05 3.25786e-05)
(7.46706e-05 5.09447e-05 9.69655e-06 9.98823e-05 4.7503e-05 5.81168e-05)
(6.68749e-05 3.94472e-05 4.79339e-06 0.000109366 6.01372e-05 6.98735e-05)
(7.34014e-05 4.84071e-05 4.99623e-06 0.000107191 4.48525e-05 5.2181e-05)
(0.000129329 8.94641e-05 -2.82258e-06 9.57752e-05 1.03854e-05 3.07206e-05)
(0.000324199 0.000140871 -6.74464e-05 7.73995e-05 -2.31038e-05 4.28159e-05)
(0.000598876 0.000159585 -0.00018637 5.81236e-05 -4.18436e-05 8.91657e-05)
(0.000664416 0.000125842 -0.000221632 4.0404e-05 -3.25164e-05 0.000106574)
(0.00026509 8.35603e-05 -4.01501e-06 5.58133e-05 4.23774e-06 6.20311e-05)
(0.000242825 6.50557e-05 -6.03189e-06 4.31154e-05 -7.30128e-07 6.23379e-05)
(0.000251668 6.64468e-05 1.52425e-05 4.15097e-05 -5.43696e-06 0.000120058)
(0.000243066 6.88747e-05 8.27682e-06 4.62076e-05 -3.0663e-05 0.000290075)
(0.000246206 8.70419e-05 -7.60817e-05 6.72341e-05 -9.27486e-05 0.000405803)
(0.000289633 0.000131284 -0.000148715 0.000103418 -0.000130454 0.000330402)
(0.0003059 0.000168072 -0.000119732 0.000151181 -0.000111672 0.000172187)
(0.000250179 0.000149538 -3.77563e-05 0.000177112 -3.11088e-05 7.85285e-05)
(0.000180033 7.96509e-05 -7.93095e-06 0.000115933 3.57752e-05 0.000109264)
(0.000162752 4.28889e-05 -5.9898e-05 4.33772e-05 -2.02972e-06 0.000182139)
(0.000207126 9.92209e-05 -0.000117644 9.06208e-05 -9.16446e-05 0.000196335)
(0.000232008 0.000147911 -0.000113093 0.000155343 -0.000103396 0.000145409)
(0.000197088 0.000105793 -6.26694e-05 0.000100505 -4.69169e-05 9.44029e-05)
(0.000145941 4.56013e-05 -1.75383e-05 4.66267e-05 -1.70438e-05 8.17614e-05)
(0.000127107 2.51542e-05 -6.47908e-06 7.56833e-05 -5.20537e-05 0.000115613)
(0.000125693 2.26851e-05 -9.22346e-06 9.67822e-05 -6.22415e-05 0.000114432)
(0.000134098 2.36079e-05 -2.11571e-05 7.04507e-05 -2.51114e-05 7.99987e-05)
(0.00014321 3.6533e-05 -4.73911e-05 4.96154e-05 -1.22676e-05 0.00010454)
(0.000140617 5.05713e-05 -5.5897e-05 5.2826e-05 -3.85971e-05 0.000151686)
(0.000142306 5.49299e-05 -4.90488e-05 6.60552e-05 -5.35332e-05 0.000143259)
(0.00014214 5.94172e-05 -4.30143e-05 8.00447e-05 -4.57375e-05 0.000100637)
(0.000149645 7.33346e-05 -4.05806e-05 0.000101485 -2.69154e-05 7.46109e-05)
(0.000150098 7.67206e-05 -3.40204e-05 0.00010486 -6.39616e-06 7.06424e-05)
(0.000150174 7.14909e-05 -3.13969e-05 8.87932e-05 7.73755e-07 7.13784e-05)
(0.000149756 6.35634e-05 -3.15354e-05 7.14607e-05 -3.46353e-06 6.24128e-05)
(0.000153621 6.05576e-05 -3.0535e-05 5.95546e-05 -8.30011e-06 5.32756e-05)
(0.000165334 6.63787e-05 -3.7885e-05 6.20695e-05 -1.82232e-05 5.97982e-05)
(0.000167222 6.96763e-05 -4.52623e-05 7.44609e-05 -3.5269e-05 8.09976e-05)
(0.000162406 6.24207e-05 -3.9625e-05 8.85433e-05 -5.48484e-05 0.000106055)
(0.00016691 3.74066e-05 -5.94221e-06 7.85256e-05 -6.28786e-05 0.000144359)
(0.000212844 3.32059e-05 5.50045e-05 4.70305e-05 -3.52069e-05 0.000198741)
(0.000241394 8.07037e-05 0.000106488 5.44063e-05 5.74827e-05 0.000293772)
(0.000257866 0.000136434 0.000142664 0.000139802 0.000180724 0.000374379)
(0.000263902 0.000151009 0.000129624 0.000173186 0.000185829 0.000303746)
(0.000313348 0.000149302 9.76539e-05 0.000119613 9.17998e-05 0.000152601)
(0.000452983 0.000130648 2.98174e-05 6.46921e-05 1.75784e-05 6.76406e-05)
(0.000612128 0.000103528 -8.63884e-05 4.79775e-05 -3.46362e-06 7.94534e-05)
(0.00070414 0.000132127 -0.000161829 5.30223e-05 -1.88862e-05 0.000113043)
(0.000611808 0.000168024 -0.000129975 7.24126e-05 -2.99291e-05 0.000101752)
(0.000409335 0.000139606 -3.97441e-05 7.73175e-05 -1.05404e-05 6.85688e-05)
(0.000157157 0.000119001 3.43837e-06 0.000137195 3.07376e-05 5.1789e-05)
(0.000136124 8.55119e-05 -2.38881e-05 9.74292e-05 -2.01454e-05 5.3436e-05)
(0.000134177 7.1818e-05 -4.31168e-05 6.26707e-05 -1.48104e-05 0.000221696)
(0.000149241 5.528e-05 -0.000101693 6.55972e-05 4.96142e-05 0.000400176)
(0.000197816 4.32541e-05 -0.000160258 6.45964e-05 4.91699e-05 0.000350747)
(0.000245688 7.72596e-05 -0.000136293 6.06953e-05 -8.31503e-06 0.000174422)
(0.00024781 0.000148305 -4.0026e-05 0.00012768 -6.92621e-06 5.81062e-05)
(0.000232543 0.000195574 5.76728e-05 0.00025759 0.000127949 0.000128581)
(0.000208353 0.000172124 9.96128e-05 0.000254633 0.000227082 0.000299806)
(0.000176784 9.14498e-05 6.69846e-05 8.96624e-05 0.000105709 0.000336224)
(0.000157362 4.62479e-05 6.214e-06 7.40262e-05 -3.69298e-05 0.000164965)
(0.000153227 6.28347e-05 -1.91229e-05 0.000130368 1.65233e-05 6.76999e-05)
(0.00017178 7.68758e-05 1.64285e-05 8.03874e-05 5.75059e-05 0.000147413)
(0.000178646 5.01501e-05 3.51248e-05 4.88917e-05 -1.11028e-06 0.000211208)
(0.000162494 4.7114e-05 -9.65617e-06 7.43461e-05 -4.29617e-05 0.00015579)
(0.000180949 7.90512e-05 -2.91471e-05 8.73544e-05 -1.33481e-05 7.74748e-05)
(0.000214405 8.24589e-05 1.0891e-05 6.5741e-05 1.9933e-05 8.80364e-05)
(0.000199139 5.67752e-05 1.92663e-05 4.67128e-05 4.64373e-06 0.000127154)
(0.000176382 5.60524e-05 -1.96368e-05 6.07304e-05 -2.18957e-05 0.000104396)
(0.000193247 8.68589e-05 -3.20908e-05 8.46907e-05 -7.91958e-06 6.19799e-05)
(0.000214142 0.000109605 -1.3958e-05 0.000105292 1.95481e-05 5.94432e-05)
(0.000216734 0.000120199 -6.01275e-06 0.00013361 3.49152e-05 6.62512e-05)
(0.000201361 0.000108996 -9.58628e-06 0.00013358 2.73824e-05 6.01592e-05)
(0.000193679 9.70345e-05 -1.01445e-05 9.73103e-05 1.10202e-05 4.7874e-05)
(0.000188991 8.02625e-05 -7.37842e-06 5.71421e-05 6.20081e-06 3.82814e-05)
(0.000177799 6.93502e-05 -6.47909e-06 4.59105e-05 5.04539e-06 3.38977e-05)
(0.000174263 6.99029e-05 -5.95664e-06 4.68793e-05 1.99377e-06 4.28455e-05)
(0.000178043 7.85137e-05 -1.98598e-05 6.11612e-05 -2.4705e-05 8.00889e-05)
(0.000203251 0.000112654 -7.29853e-05 9.75499e-05 -8.11052e-05 0.000160987)
(0.00021202 0.000119426 -0.000113229 9.55953e-05 -0.000107873 0.000273924)
(0.000193946 9.19992e-05 -0.000105787 6.00439e-05 -6.48163e-05 0.000367442)
(0.000170944 7.00701e-05 -7.50469e-05 4.91908e-05 1.62387e-05 0.000407127)
(0.000150169 7.17891e-05 -1.32756e-05 6.60637e-05 6.55147e-05 0.000323687)
(0.000147327 8.00953e-05 1.35252e-05 7.02659e-05 4.83337e-05 0.000173226)
(0.000157179 8.9812e-05 1.18637e-05 7.02102e-05 2.0688e-05 7.43556e-05)
(0.00018134 9.80426e-05 -1.53299e-05 6.9214e-05 -3.19638e-06 4.67633e-05)
(0.000212892 0.000111154 -5.77286e-05 7.51272e-05 -2.45234e-05 6.81658e-05)
(0.000266365 0.00015012 -8.04725e-05 0.000102108 -4.06043e-05 7.5118e-05)
(0.000270317 0.000178416 -4.03664e-05 0.000138947 -1.96106e-05 4.65758e-05)
(0.000215377 0.000162449 1.10266e-05 0.000153725 2.76565e-05 4.87815e-05)
(0.000300876 0.000192595 8.10501e-05 0.000189544 8.05949e-05 7.36873e-05)
(0.000312645 0.000172712 -3.86375e-05 0.000146572 -3.14126e-05 7.88565e-05)
(0.000353757 0.000134372 -0.000172833 9.30357e-05 -5.57022e-05 0.000304189)
(0.000353152 8.90195e-05 -0.000192384 6.96188e-05 -6.69112e-06 0.000354567)
(0.000331665 7.79929e-05 -0.000114229 6.52814e-05 4.1943e-06 0.000180078)
(0.000301995 0.000102412 -1.69714e-05 7.6326e-05 -2.39768e-06 5.37472e-05)
(0.000278956 0.000139429 6.97125e-05 0.000139325 7.05971e-05 0.000101741)
(0.00028127 0.000182195 0.000156191 0.000228139 0.000214715 0.000311036)
(0.000285082 0.000187003 0.000196735 0.000234012 0.000266441 0.000441005)
(0.00025202 0.000119492 0.00013262 0.000119688 0.000134831 0.000321873)
(0.000211769 6.70526e-05 3.87847e-05 6.05395e-05 1.76139e-05 0.000117448)
(0.000203308 6.07699e-05 1.7735e-05 6.43343e-05 9.25133e-06 6.40054e-05)
(0.000200566 6.15446e-05 1.76116e-05 5.98376e-05 1.16278e-05 6.83927e-05)
(0.000205759 6.42913e-05 2.42553e-05 5.76976e-05 1.23524e-05 7.8586e-05)
(0.000206618 7.01521e-05 3.03975e-05 6.08532e-05 1.80773e-05 8.88173e-05)
(0.000186363 6.41754e-05 1.7537e-05 5.90846e-05 1.38415e-05 8.09602e-05)
(0.000196369 6.80982e-05 2.12895e-05 5.70423e-05 1.44217e-05 7.60823e-05)
(0.000196568 7.1935e-05 4.22668e-05 5.79988e-05 2.36249e-05 0.000114321)
(0.000163465 6.61857e-05 -7.45936e-07 6.00535e-05 2.27902e-06 0.000129692)
(0.000225096 0.000111473 -3.14829e-05 8.87683e-05 -7.62118e-06 9.29815e-05)
(0.000310743 0.000177428 -1.08378e-05 0.000136006 6.24436e-06 7.76503e-05)
(0.000307046 0.000212667 -3.46077e-06 0.000190562 1.07864e-05 7.88842e-05)
(0.000227071 0.000175166 -1.83318e-05 0.000190616 -7.16188e-06 8.07477e-05)
(0.000146592 0.000102555 -1.61517e-05 0.000127343 -1.12949e-05 8.17958e-05)
(0.000109869 5.65891e-05 -8.60732e-07 6.83611e-05 8.51673e-06 7.50513e-05)
(0.00012703 6.28928e-05 2.43206e-05 6.04207e-05 3.07382e-05 9.0845e-05)
(0.000102956 5.99683e-05 1.66646e-05 6.85943e-05 5.35804e-05 0.00014457)
(0.00018246 4.29558e-05 -0.000104241 5.54422e-05 3.054e-05 0.000184073)
(0.000539363 0.000180631 -0.000217187 9.32636e-05 -4.13235e-05 0.000166223)
(0.000739521 0.000352129 -0.000188682 0.00019922 -6.29337e-05 0.000120493)
(0.000626061 0.000324334 -0.000144865 0.000200946 -4.97695e-05 0.000107118)
(0.000381245 0.000160924 -0.000129066 0.000101413 -2.69897e-05 0.000127832)
(0.000212544 5.70588e-05 -8.27152e-05 6.17623e-05 2.52809e-05 0.000142925)
(0.000176538 3.90346e-05 -5.13396e-05 7.44355e-05 5.15903e-05 0.000129404)
(0.000183479 3.85152e-05 -2.59602e-05 7.69182e-05 4.03931e-05 8.46913e-05)
(0.000189321 4.49763e-05 1.615e-05 7.22149e-05 1.76249e-05 6.84009e-05)
(0.000170372 5.30863e-05 3.35671e-05 7.25685e-05 -1.43775e-06 0.000123083)
(0.000177947 8.14507e-05 -1.20661e-05 8.3911e-05 -1.51484e-05 0.000111075)
(0.000261187 0.000139593 1.61571e-05 0.000118654 1.80811e-05 4.64872e-05)
(0.000301327 0.000185241 0.000103346 0.000171173 9.73099e-05 0.000102045)
(0.000444741 0.000262322 0.000104961 0.000259529 7.86267e-05 0.000100832)
(0.00082795 0.000272912 -7.75934e-05 0.000132776 -2.39939e-05 0.00011464)
(0.00121678 0.00016865 -0.000289215 6.4457e-05 -1.94129e-05 0.000203356)
(0.000978727 5.19025e-05 -0.000239239 4.89877e-05 1.42324e-05 0.000188456)
(0.000537554 1.53863e-05 -2.51264e-05 5.22263e-05 2.0078e-05 8.50711e-05)
(0.000339839 3.28681e-05 8.73687e-05 5.13882e-05 5.10038e-06 0.000149382)
(0.000313004 5.98884e-05 0.000151712 5.89869e-05 7.24555e-05 0.000462122)
(0.000376064 0.000149298 0.00027578 0.0001582 0.000251562 0.000618108)
(0.000447268 0.000247034 0.000307818 0.000281724 0.000316639 0.000487543)
(0.000345268 0.000145306 0.000140465 0.000175487 0.000138447 0.000214211)
(0.000234317 4.11903e-05 3.04823e-05 6.70541e-05 2.11555e-05 0.000110858)
(0.00021252 3.65729e-05 3.30972e-05 6.84264e-05 4.34353e-05 0.00018662)
(0.000212093 2.96618e-05 -6.94335e-06 6.8134e-05 3.45712e-05 0.000193823)
(0.000229983 2.99828e-05 -3.81285e-05 7.04388e-05 2.86359e-05 0.000203656)
(0.000187587 1.58794e-05 -1.52976e-05 7.78733e-05 5.08027e-05 0.000196748)
(0.000163815 3.25057e-05 2.12934e-05 9.04511e-05 4.85379e-05 0.000128013)
(0.000177551 4.37467e-05 -6.45249e-06 8.0706e-05 1.62465e-05 0.000119163)
(0.000252349 6.43352e-05 -8.10957e-05 7.56962e-05 -4.42359e-06 0.000184716)
(0.000369728 0.000119937 -7.77916e-05 8.88622e-05 -2.80116e-06 0.000130944)
(0.000472547 0.000167301 4.26567e-05 0.000105479 4.43232e-05 0.000104991)
(0.000576541 0.000230828 0.000106996 0.000138669 7.28744e-05 0.000123879)
(0.000587844 0.000312619 3.25082e-05 0.000216865 4.64526e-05 9.64944e-05)
(0.000443935 0.000303596 -5.03082e-05 0.000269236 -1.11519e-05 9.56261e-05)
(0.000238146 0.000182334 -5.0894e-05 0.000209082 -2.50552e-05 0.000104841)
(0.000118725 6.32933e-05 -3.23318e-05 8.22404e-05 -7.19034e-06 0.000128605)
(0.000105862 3.33262e-05 -4.08944e-05 7.25779e-05 6.89748e-05 0.000230886)
(0.000229929 -3.88354e-05 -0.000166862 0.000114394 0.000131978 0.000288437)
(0.000544469 -3.37067e-05 -0.000197202 7.38316e-05 6.39156e-05 0.00017291)
(0.000839598 0.000199772 -3.43411e-05 9.24341e-05 2.39486e-05 8.96247e-05)
(0.000941526 0.000459366 0.000104118 0.0002656 8.35867e-05 0.000104761)
(0.000851828 0.000497432 5.25703e-05 0.000331541 5.96312e-05 9.51098e-05)
(0.000649462 0.000312899 -5.34947e-05 0.000184157 -6.95232e-07 9.89e-05)
(0.000511268 0.000122266 -8.06505e-05 6.6567e-05 1.86502e-05 0.000118077)
(0.000431071 4.03605e-05 -6.49e-05 5.79988e-05 4.40676e-05 0.000122943)
(0.000298376 3.57546e-05 -2.44465e-05 6.09109e-05 4.79434e-05 0.000119017)
(0.000216909 5.34283e-05 1.23359e-05 5.39567e-05 4.03669e-05 0.000110782)
(0.000202745 6.02023e-05 3.37832e-05 5.14272e-05 3.60534e-05 0.000102444)
(0.000212189 6.37926e-05 4.51762e-05 7.31195e-05 4.67706e-05 0.000103493)
(0.000219907 7.88914e-05 5.87396e-05 0.000164788 9.8752e-05 0.000131938)
(0.000272726 0.00015734 0.000106727 0.000290049 0.000162654 0.000164609)
(0.00129742 0.000170869 4.15244e-05 8.42953e-05 3.51026e-05 0.000101561)
(0.0018305 0.000126182 -0.000225006 7.42833e-05 1.9881e-05 0.000147676)
(0.0015414 0.00012285 -0.000214394 7.95665e-05 1.44083e-05 0.000155661)
(0.000778501 0.000106552 -6.10929e-05 9.43116e-05 1.3631e-05 0.000125378)
(0.000429403 7.98787e-05 5.16424e-05 0.000118889 4.24836e-05 0.000100028)
(0.000343096 5.54363e-05 8.56492e-05 0.000165276 0.000140218 0.000217378)
(0.00035534 9.18507e-05 0.000143052 0.000281251 0.000307601 0.000457376)
(0.000502451 0.000263511 0.00029453 0.000437539 0.000401302 0.000470055)
(0.00067653 0.00031554 0.000338038 0.000351915 0.000305211 0.000356836)
(0.000523489 0.00011204 0.000146816 0.00014129 0.000103846 0.000157885)
(0.000336109 1.45811e-05 3.23445e-05 9.43076e-05 4.6917e-05 0.00014105)
(0.000318718 3.28272e-06 2.50172e-05 9.53622e-05 1.93472e-05 0.000264643)
(0.000412776 6.29311e-05 -0.000138712 0.000134113 -6.28928e-05 0.00037732)
(0.000612695 0.000142214 -0.000322813 0.000167221 -0.00012054 0.00048734)
(0.000431844 4.71175e-05 -0.00018834 0.000128376 -4.59217e-05 0.000380374)
(0.000247966 -1.24613e-05 2.03979e-05 0.000107439 2.71497e-05 0.000140027)
(0.00025457 9.71397e-06 -6.26679e-06 0.00010916 2.29076e-06 0.000148622)
(0.000258776 2.4275e-05 -2.0553e-05 0.000105369 -8.03027e-06 0.000158337)
(0.000252209 3.13127e-05 2.11511e-05 0.00010341 2.56795e-05 9.78896e-05)
(0.000291872 4.66724e-05 7.21052e-05 0.000102038 5.30998e-05 0.00013379)
(0.00040499 0.000106152 0.000112719 0.000127578 7.0335e-05 0.000141294)
(0.00046634 0.000190195 7.38154e-05 0.000203218 6.04885e-05 0.000108355)
(0.000472799 0.000211841 3.01851e-05 0.000234104 2.71651e-05 9.74309e-05)
(0.000469961 0.000164966 -1.30574e-05 0.00016547 -6.43168e-06 0.000102942)
(0.000415682 3.98424e-05 -9.68962e-05 6.34152e-05 -1.02319e-05 0.000164449)
(0.000351521 -6.3773e-05 -0.000137054 7.54963e-05 7.31727e-05 0.000264332)
(0.000330573 -0.000112606 -9.00242e-05 0.00013579 9.27914e-05 0.000187356)
(0.000372825 -0.000103587 -5.86754e-06 0.000104162 1.73243e-05 0.000108238)
(0.000549364 3.94886e-05 8.80193e-05 6.08903e-05 1.25102e-05 0.000124347)
(0.000750284 0.000260063 0.000140682 0.000178093 5.68115e-05 0.000145772)
(0.000880303 0.000335224 5.66748e-05 0.000209862 1.84186e-05 0.000125091)
(0.000856999 0.000241807 -4.8112e-05 0.000123596 -1.66908e-05 0.000128767)
(0.000833304 0.000123233 -3.14879e-05 5.61573e-05 3.26367e-06 0.000120313)
(0.000697386 5.98057e-05 1.27896e-05 3.9401e-05 1.43842e-05 0.000109333)
(0.000407765 1.36854e-05 2.91982e-06 3.57017e-05 1.99149e-05 0.00011512)
(0.000294931 -3.74077e-06 9.0824e-06 5.7597e-05 4.63472e-05 0.000138606)
(0.000276022 -1.92532e-05 8.41109e-06 0.000137316 9.63812e-05 0.000158107)
(0.000274903 -1.48765e-05 1.26068e-05 0.00022616 0.000151603 0.000186773)
(0.000280851 8.43953e-05 9.6876e-05 0.000205848 0.000173037 0.000232252)
(0.00059741 0.000177317 0.000211837 0.000129943 0.00010844 0.000179721)
(0.000414969 0.000101757 -2.23142e-05 0.000239571 -0.000138676 0.000230647)
(0.000416109 0.000102123 -6.34454e-05 0.000177076 -9.60992e-05 0.000189022)
(0.000314658 -6.66969e-06 2.93161e-05 7.86283e-05 -2.36837e-06 8.92292e-05)
(0.000248255 -2.83922e-05 3.93792e-05 9.16234e-05 -3.18596e-05 0.00014817)
(0.00025821 -2.05716e-05 4.56939e-05 8.27225e-05 -9.02204e-06 0.000211351)
(0.000276413 9.94477e-06 9.88942e-05 0.000118228 8.47533e-05 0.000365727)
(0.000398627 0.000125939 0.000281065 0.000226463 0.000232657 0.000522954)
(0.000686887 0.000279874 0.000403764 0.000303836 0.000249752 0.000414431)
(0.000726231 0.000182798 0.000291552 0.000189159 0.000102562 0.000232621)
(0.000381688 -1.85066e-05 0.000103963 0.000107913 -8.52986e-06 0.0001237)
(0.000276214 -1.13735e-05 6.59894e-05 0.000166956 2.11336e-05 0.000128352)
(0.000380174 -4.40385e-05 -5.09009e-05 0.000123275 2.63108e-05 0.000221886)
(0.000755563 0.000131207 -0.000377718 0.000135485 -0.000115815 0.000477221)
(0.000692856 0.00029588 -0.000485607 0.000273386 -0.000331716 0.000722058)
(0.000362517 0.000144898 -0.000154137 0.000236806 -0.00020567 0.000397078)
(0.000243724 1.00774e-05 1.88044e-05 0.000104443 -2.49101e-05 0.000158833)
(0.000313975 5.07437e-05 -3.83589e-05 0.000108792 -4.97922e-05 0.000218653)
(0.000319721 5.06398e-05 2.5527e-05 0.000112965 -2.75529e-05 0.000159675)
(0.000297042 2.80858e-05 7.50351e-05 0.00011055 6.7176e-06 0.000162038)
(0.000300085 1.69879e-05 7.7792e-05 9.37582e-05 1.2357e-05 0.000199025)
(0.000293425 1.52243e-05 8.00671e-05 9.92283e-05 3.89613e-06 0.000167803)
(0.000279586 2.54276e-06 6.36726e-05 0.000117343 -4.40565e-05 0.000166159)
(0.000290612 1.00001e-05 5.04458e-05 0.000100111 -6.41809e-05 0.000212179)
(0.000357382 3.94782e-05 2.57997e-05 8.97856e-05 -5.58042e-05 0.000219407)
(0.000389717 3.53582e-05 4.25531e-06 7.3677e-05 -4.70911e-05 0.00022944)
(0.000354576 -2.8002e-05 -3.51517e-06 5.61915e-05 -3.06131e-06 0.000224174)
(0.000337545 -9.55113e-05 -2.13162e-05 0.000146871 6.39912e-05 0.000215859)
(0.000419617 -0.000137113 -8.89642e-05 0.00015122 8.8375e-05 0.000230805)
(0.000580414 6.27933e-06 -6.45603e-05 4.89747e-05 3.5226e-06 0.00017191)
(0.000633796 0.000223032 8.48156e-05 0.000194643 4.79579e-05 0.000140071)
(0.000578753 0.000295754 0.00015345 0.000361027 0.000124986 0.000149859)
(0.000500848 0.000212148 0.000160912 0.000262484 0.000121272 0.000158826)
(0.000543468 9.19511e-05 0.000212278 7.90546e-05 6.88752e-05 0.000197803)
(0.000572586 -3.84034e-05 0.000190021 6.50735e-05 1.28122e-06 0.000167054)
(0.000494942 -7.66423e-05 4.44054e-05 9.45004e-05 3.24733e-05 0.000105636)
(0.000522824 -7.06562e-05 -4.95983e-05 8.40393e-05 6.10221e-05 0.000151349)
(0.000393552 -3.32721e-05 -1.25468e-05 7.76419e-05 5.46983e-05 0.000170896)
(0.000340758 1.95483e-05 0.000103258 7.1448e-05 4.87669e-05 0.000183738)
(0.000520808 7.5845e-05 0.000140295 8.80025e-05 4.37777e-05 0.000137787)
(0.000473508 0.000109289 3.81113e-05 0.000171603 -2.55136e-05 0.000120964)
(0.000225514 -1.93543e-05 6.11521e-05 0.000104341 -2.42522e-05 0.000152578)
(0.000241953 -3.51275e-05 3.92621e-05 0.000101595 8.58632e-06 6.78688e-05)
(0.000250983 2.15862e-06 4.0469e-05 0.000112279 -1.95125e-05 6.98913e-05)
(0.000385802 -5.59014e-05 5.1869e-05 8.19855e-05 -1.7396e-05 7.86915e-05)
(0.000257248 -8.4473e-05 4.31732e-05 0.000164475 2.71041e-06 9.2851e-05)
(0.0002475 6.19275e-05 0.000121761 0.000207512 8.91117e-05 0.000187559)
(0.000591684 0.000287177 0.000278464 0.000289061 0.00013368 0.000217431)
(0.000954045 0.000487803 0.000114095 0.000388606 9.50533e-06 0.000102394)
(0.000754741 0.000335131 -0.000106441 0.000262043 -0.000113708 0.000142021)
(0.00031639 5.34548e-05 -7.19211e-05 8.65669e-05 -4.56568e-05 0.000220124)
(0.0002211 3.48007e-05 2.59299e-05 0.000106879 4.57842e-05 0.00028348)
(0.00024705 3.22145e-05 -2.6036e-06 7.3206e-05 -1.96141e-05 0.000271724)
(0.000250688 5.01028e-05 -5.66695e-06 0.00013336 -0.000138242 0.00033144)
(0.00021254 1.3548e-05 6.2672e-05 0.00019552 -0.000217079 0.000425468)
(0.000173079 1.7426e-05 6.21322e-05 0.00010879 -8.03886e-05 0.000203336)
(0.00016726 2.72008e-05 4.59968e-05 8.94977e-05 -4.84775e-05 0.000134405)
(0.000158823 2.7104e-05 4.95706e-05 7.86648e-05 -5.12301e-05 0.000173637)
(0.00016158 1.70243e-05 8.51323e-05 8.56231e-05 -4.57738e-05 0.000147784)
(0.000196776 -1.12524e-05 8.32853e-05 0.000121652 -2.17928e-05 0.000125272)
(0.000215564 -8.92391e-06 7.08358e-05 0.000111976 -2.08516e-06 0.000136374)
(0.000253256 -2.54818e-05 0.000121023 0.000125317 -4.90754e-05 0.000150705)
(0.000268884 -2.28363e-05 0.000167374 0.000106191 -8.49232e-05 0.000238062)
(0.000227215 2.68651e-05 0.000120376 5.34784e-05 -2.15077e-05 0.000223476)
(0.000218968 2.67828e-05 9.85871e-05 5.01898e-05 -1.48727e-05 0.000204576)
(0.000208302 3.01185e-05 8.09863e-05 7.62729e-05 -1.80592e-05 0.000177612)
(0.000211028 2.28149e-05 6.03233e-05 4.52626e-05 1.4801e-05 0.00015734)
(0.000228958 -6.33397e-06 4.28288e-05 0.0001654 0.000111063 0.000218549)
(0.000238238 -1.93934e-05 1.64966e-05 0.000172284 0.000183041 0.000353993)
(0.000238888 1.25555e-05 2.47669e-05 7.57442e-05 -9.75531e-07 0.000276795)
(0.00033249 0.000176302 5.31101e-05 0.000338796 -1.10244e-05 0.000132711)
(0.000545703 0.000430731 0.000178525 0.000563148 0.00012824 0.000142748)
(0.000507395 0.000400857 0.000227984 0.000525942 0.00019291 0.000172828)
(0.00035294 0.000197762 0.000211067 0.000269384 0.000162155 0.000200054)