/*--------------------------------*- C++ -*----------------------------------*\
  =========                 |
  \\      /  F ield         | OpenFOAM: The Open Source CFD Toolbox
   \\    /   O peration     | Website:  https://openfoam.org
    \\  /    A nd           | Version:  10
     \\/     M anipulation  |
\*---------------------------------------------------------------------------*/
FoamFile
{
    format      ascii;
    class       volScalarField;
    location    "47.5";
    object      nut;
}
// * * * * * * * * * * * * * * * * * * * * * * * * * * * * * * * * * * * * * //

dimensions      [0 2 -1 0 0 0 0];

internalField   nonuniform List<scalar> 
102400
(
0.0001583
0.000158297
0.0001583
0.000158297
0.000158298
0.000158298
0.000158296
0.000158298
0.000158297
0.000158296
0.000158296
0.000158297
0.000158295
0.000158297
0.000158296
0.000158295
0.000158297
0.000158295
0.000158297
0.000158296
0.000158297
0.000158298
0.000158296
0.000158298
0.000158297
0.000158298
0.000158299
0.000158298
0.000158299
0.000158299
0.0001583
0.000158299
0.000158301
0.000158299
0.0001583
0.0001583
0.000158298
0.000158301
0.000158298
0.0001583
0.000164362
0.000164362
0.000164363
0.00016436
0.000164362
0.00016436
0.00016436
0.00016436
0.00016436
0.00016436
0.000164359
0.000164359
0.000164359
0.00016436
0.000164358
0.000164359
0.000164359
0.000164358
0.00016436
0.000164358
0.00016436
0.00016436
0.00016436
0.000164361
0.00016436
0.000164362
0.000164361
0.000164362
0.000164362
0.000164362
0.000164363
0.000164362
0.000164364
0.000164362
0.000164364
0.000164362
0.000164362
0.000164364
0.000164361
0.000164364
0.000169534
0.000169536
0.000169536
0.000169534
0.000169536
0.000169533
0.000169534
0.000169534
0.000169533
0.000169533
0.000169533
0.000169533
0.000169532
0.000169533
0.000169531
0.000169532
0.000169532
0.000169531
0.000169533
0.000169531
0.000169534
0.000169532
0.000169533
0.000169534
0.000169533
0.000169535
0.000169534
0.000169535
0.000169535
0.000169535
0.000169536
0.000169535
0.000169537
0.000169535
0.000169537
0.000169535
0.000169536
0.000169537
0.000169535
0.000169537
0.000174825
0.000174827
0.000174826
0.000174825
0.000174826
0.000174824
0.000174825
0.000174824
0.000174824
0.000174823
0.000174823
0.000174823
0.000174822
0.000174823
0.000174821
0.000174823
0.000174822
0.000174822
0.000174823
0.000174821
0.000174824
0.000174822
0.000174823
0.000174823
0.000174823
0.000174824
0.000174823
0.000174825
0.000174824
0.000174825
0.000174825
0.000174825
0.000174827
0.000174825
0.000174828
0.000174825
0.000174827
0.000174827
0.000174825
0.000174828
0.000180023
0.000180026
0.000180024
0.000180024
0.000180025
0.000180023
0.000180024
0.000180023
0.000180023
0.000180022
0.000180022
0.000180022
0.000180021
0.000180022
0.00018002
0.000180021
0.00018002
0.00018002
0.000180021
0.000180019
0.000180022
0.00018002
0.000180022
0.000180021
0.000180021
0.000180022
0.000180021
0.000180023
0.000180022
0.000180023
0.000180023
0.000180024
0.000180025
0.000180023
0.000180026
0.000180024
0.000180026
0.000180025
0.000180024
0.000180027
0.000185093
0.000185096
0.000185094
0.000185095
0.000185095
0.000185093
0.000185095
0.000185093
0.000185094
0.000185092
0.000185093
0.000185092
0.000185091
0.000185092
0.00018509
0.000185091
0.00018509
0.00018509
0.000185091
0.000185089
0.000185092
0.000185089
0.000185091
0.00018509
0.00018509
0.000185091
0.00018509
0.000185092
0.000185091
0.000185093
0.000185092
0.000185093
0.000185094
0.000185093
0.000185095
0.000185093
0.000185095
0.000185095
0.000185094
0.000185097
0.000189953
0.000189957
0.000189954
0.000189955
0.000189955
0.000189954
0.000189955
0.000189953
0.000189954
0.000189953
0.000189953
0.000189952
0.000189952
0.000189952
0.00018995
0.000189952
0.00018995
0.00018995
0.000189951
0.000189948
0.000189951
0.000189948
0.000189951
0.000189949
0.00018995
0.000189951
0.000189949
0.000189951
0.00018995
0.000189952
0.000189951
0.000189952
0.000189953
0.000189952
0.000189955
0.000189952
0.000189955
0.000189954
0.000189954
0.000189957
0.000194506
0.000194511
0.000194508
0.000194509
0.00019451
0.000194508
0.00019451
0.000194508
0.000194509
0.000194508
0.000194508
0.000194507
0.000194507
0.000194507
0.000194505
0.000194507
0.000194505
0.000194504
0.000194505
0.000194502
0.000194506
0.000194502
0.000194505
0.000194503
0.000194503
0.000194504
0.000194502
0.000194505
0.000194503
0.000194505
0.000194504
0.000194505
0.000194506
0.000194505
0.000194508
0.000194505
0.000194508
0.000194508
0.000194507
0.00019451
0.000198633
0.000198638
0.000198635
0.000198637
0.000198638
0.000198636
0.000198638
0.000198636
0.000198638
0.000198636
0.000198637
0.000198636
0.000198636
0.000198636
0.000198634
0.000198636
0.000198633
0.000198633
0.000198634
0.00019863
0.000198634
0.000198629
0.000198633
0.00019863
0.000198631
0.000198631
0.00019863
0.000198632
0.00019863
0.000198632
0.000198631
0.000198632
0.000198633
0.000198631
0.000198635
0.000198632
0.000198635
0.000198635
0.000198633
0.000198638
0.000202184
0.000202191
0.000202187
0.000202189
0.00020219
0.000202189
0.000202191
0.000202189
0.000202191
0.000202189
0.000202191
0.000202189
0.00020219
0.00020219
0.000202187
0.00020219
0.000202187
0.000202187
0.000202188
0.000202184
0.000202188
0.000202183
0.000202186
0.000202183
0.000202184
0.000202184
0.000202182
0.000202184
0.000202181
0.000202184
0.000202182
0.000202183
0.000202184
0.000202182
0.000202186
0.000202183
0.000202186
0.000202186
0.000202185
0.00020219
0.000204975
0.000204983
0.000204978
0.000204982
0.000204982
0.000204981
0.000204984
0.000204982
0.000204985
0.000204982
0.000204985
0.000204983
0.000204984
0.000204984
0.000204982
0.000204985
0.000204981
0.000204982
0.000204983
0.000204978
0.000204984
0.000204977
0.000204982
0.000204977
0.000204978
0.000204978
0.000204976
0.000204978
0.000204975
0.000204978
0.000204974
0.000204977
0.000204976
0.000204975
0.000204978
0.000204974
0.000204979
0.000204977
0.000204976
0.000204982
0.00020678
0.00020679
0.000206783
0.000206788
0.000206788
0.000206787
0.00020679
0.000206788
0.000206792
0.000206788
0.000206793
0.000206789
0.000206792
0.000206792
0.000206789
0.000206794
0.000206789
0.000206791
0.000206792
0.000206787
0.000206794
0.000206785
0.000206791
0.000206786
0.000206788
0.000206787
0.000206784
0.000206787
0.000206782
0.000206787
0.000206781
0.000206785
0.000206783
0.000206782
0.000206785
0.00020678
0.000206786
0.000206783
0.000206782
0.000206788
0.00020732
0.000207333
0.000207322
0.00020733
0.000207328
0.000207328
0.000207331
0.000207329
0.000207334
0.000207328
0.000207337
0.000207329
0.000207335
0.000207335
0.000207331
0.000207339
0.000207332
0.000207336
0.000207337
0.00020733
0.000207339
0.000207329
0.000207337
0.00020733
0.000207334
0.000207332
0.000207329
0.000207333
0.000207326
0.000207333
0.000207324
0.000207331
0.000207326
0.000207326
0.000207329
0.000207321
0.00020733
0.000207323
0.000207325
0.00020733
0.000206255
0.000206274
0.000206257
0.000206269
0.000206263
0.000206265
0.000206267
0.000206263
0.000206272
0.000206261
0.000206276
0.000206263
0.000206272
0.000206272
0.000206266
0.000206278
0.000206267
0.000206274
0.000206275
0.000206268
0.00020628
0.000206266
0.000206279
0.000206268
0.000206275
0.000206271
0.000206268
0.000206275
0.000206263
0.000206276
0.000206262
0.000206273
0.000206264
0.000206265
0.000206271
0.000206257
0.000206273
0.00020626
0.000206263
0.00020627
0.000203168
0.000203198
0.000203171
0.00020319
0.00020318
0.000203183
0.000203187
0.000203176
0.000203194
0.000203172
0.000203196
0.000203178
0.000203188
0.000203192
0.000203178
0.000203198
0.000203182
0.000203192
0.000203193
0.000203183
0.000203201
0.00020318
0.000203202
0.000203184
0.000203195
0.000203192
0.000203186
0.0002032
0.000203179
0.000203201
0.000203179
0.000203196
0.000203186
0.000203182
0.000203198
0.000203171
0.000203198
0.000203179
0.000203182
0.000203194
0.000197558
0.000197606
0.000197564
0.000197591
0.00019758
0.000197576
0.000197592
0.000197566
0.000197599
0.000197564
0.000197595
0.000197576
0.000197579
0.000197593
0.000197568
0.000197597
0.000197576
0.000197586
0.000197592
0.000197573
0.000197603
0.00019757
0.000197602
0.000197578
0.00019759
0.000197594
0.000197576
0.000197605
0.00019757
0.000197606
0.000197574
0.000197594
0.00019759
0.000197573
0.000197608
0.000197563
0.000197602
0.00019758
0.000197575
0.000197603
0.000188821
0.000188891
0.000188838
0.000188864
0.000188864
0.00018884
0.00018888
0.00018883
0.000188881
0.000188836
0.000188866
0.000188857
0.000188845
0.000188875
0.000188836
0.000188872
0.00018885
0.000188853
0.000188872
0.000188836
0.000188884
0.000188835
0.000188877
0.000188853
0.000188855
0.000188876
0.000188837
0.000188888
0.000188836
0.000188882
0.000188851
0.00018886
0.000188878
0.000188834
0.000188894
0.000188834
0.000188874
0.000188866
0.000188836
0.000188895
0.000176252
0.000176329
0.000176288
0.000176288
0.000176323
0.000176263
0.000176333
0.000176264
0.00017632
0.000176283
0.000176296
0.000176307
0.000176275
0.000176319
0.000176274
0.000176307
0.000176296
0.000176281
0.000176321
0.000176264
0.000176327
0.000176272
0.000176307
0.000176302
0.000176277
0.000176329
0.000176261
0.000176332
0.000176273
0.00017631
0.000176303
0.000176278
0.000176333
0.00017626
0.000176334
0.00017628
0.000176295
0.000176326
0.000176254
0.00017635
0.000159047
0.00015909
0.000159097
0.000159045
0.000159126
0.000159036
0.000159117
0.000159056
0.00015909
0.000159083
0.000159066
0.000159101
0.000159055
0.000159101
0.000159066
0.000159079
0.000159093
0.000159052
0.000159112
0.000159045
0.000159103
0.000159069
0.000159071
0.000159104
0.000159041
0.000159121
0.000159042
0.000159104
0.000159073
0.000159067
0.000159108
0.000159042
0.00015912
0.000159048
0.000159095
0.000159089
0.000159048
0.000159132
0.000159022
0.000159133
0.00013632
0.000136294
0.00013636
0.00013627
0.000136364
0.000136285
0.000136337
0.000136316
0.00013631
0.000136336
0.000136298
0.00013634
0.000136301
0.000136329
0.000136319
0.000136306
0.000136342
0.00013629
0.000136346
0.0001363
0.000136321
0.000136332
0.000136289
0.000136356
0.000136279
0.000136348
0.000136303
0.000136313
0.00013634
0.000136284
0.000136354
0.000136288
0.000136335
0.000136319
0.000136298
0.000136355
0.00013627
0.000136368
0.000136277
0.000136341
0.000107256
0.000107191
0.000107267
0.000107195
0.00010725
0.00010722
0.000107223
0.000107242
0.00010721
0.000107247
0.000107212
0.000107242
0.000107221
0.000107229
0.000107237
0.000107214
0.000107246
0.000107215
0.000107235
0.000107235
0.000107211
0.000107256
0.000107199
0.000107254
0.000107214
0.000107229
0.000107243
0.000107203
0.000107258
0.000107204
0.00010724
0.000107231
0.000107211
0.000107254
0.000107198
0.000107257
0.000107204
0.000107241
0.000107227
0.000107213
7.16965e-05
7.16575e-05
7.16923e-05
7.16677e-05
7.16766e-05
7.16853e-05
7.16619e-05
7.16937e-05
7.16604e-05
7.1691e-05
7.1665e-05
7.16864e-05
7.1671e-05
7.16788e-05
7.16803e-05
7.16718e-05
7.16829e-05
7.16767e-05
7.1672e-05
7.16909e-05
7.16611e-05
7.1695e-05
7.16664e-05
7.16822e-05
7.16837e-05
7.1665e-05
7.16962e-05
7.1661e-05
7.16896e-05
7.16768e-05
7.1669e-05
7.16935e-05
7.16621e-05
7.16873e-05
7.16762e-05
7.16709e-05
7.16888e-05
7.16624e-05
7.16937e-05
7.16583e-05
3.51109e-05
3.51084e-05
3.51163e-05
3.51083e-05
3.51093e-05
3.51183e-05
3.51002e-05
3.51228e-05
3.50993e-05
3.51227e-05
3.50976e-05
3.51253e-05
3.50973e-05
3.51203e-05
3.51075e-05
3.51086e-05
3.51169e-05
3.51056e-05
3.51134e-05
3.51136e-05
3.51062e-05
3.51176e-05
3.51074e-05
3.51136e-05
3.51133e-05
3.51085e-05
3.51172e-05
3.51075e-05
3.51155e-05
3.51117e-05
3.51125e-05
3.51092e-05
3.51228e-05
3.50941e-05
3.51342e-05
3.50927e-05
3.5124e-05
3.51087e-05
3.51093e-05
3.51153e-05
1.04213e-05
1.04176e-05
1.04417e-05
1.04094e-05
1.04368e-05
1.04219e-05
1.04231e-05
1.04319e-05
1.04156e-05
1.04395e-05
1.04063e-05
1.04472e-05
1.04051e-05
1.04378e-05
1.04238e-05
1.04152e-05
1.04425e-05
1.04064e-05
1.04395e-05
1.04187e-05
1.04234e-05
1.04335e-05
1.04135e-05
1.04384e-05
1.04139e-05
1.04334e-05
1.04234e-05
1.04219e-05
1.04344e-05
1.0414e-05
1.04405e-05
1.04074e-05
1.04486e-05
1.04026e-05
1.04432e-05
1.04219e-05
1.04148e-05
1.04484e-05
1.04012e-05
1.04435e-05
1.64707e-06
1.62251e-06
1.67442e-06
1.61367e-06
1.66614e-06
1.63184e-06
1.64593e-06
1.64919e-06
1.63069e-06
1.66419e-06
1.61731e-06
1.67156e-06
1.62164e-06
1.65283e-06
1.64989e-06
1.62353e-06
1.67114e-06
1.61676e-06
1.66203e-06
1.63691e-06
1.63787e-06
1.65852e-06
1.62285e-06
1.66586e-06
1.62383e-06
1.65626e-06
1.64044e-06
1.63644e-06
1.65843e-06
1.62436e-06
1.66476e-06
1.62139e-06
1.66571e-06
1.62658e-06
1.64826e-06
1.65673e-06
1.61434e-06
1.68127e-06
1.61094e-06
1.66087e-06
1.63237e-07
1.20899e-07
1.89608e-07
1.17399e-07
1.76137e-07
1.37198e-07
1.50934e-07
1.58841e-07
1.31311e-07
1.80242e-07
1.20134e-07
1.81409e-07
1.32021e-07
1.50447e-07
1.67631e-07
1.23464e-07
1.83952e-07
1.23925e-07
1.64062e-07
1.49604e-07
1.37761e-07
1.7218e-07
1.25272e-07
1.757e-07
1.29627e-07
1.60182e-07
1.51213e-07
1.3661e-07
1.71493e-07
1.26525e-07
1.7327e-07
1.29596e-07
1.67514e-07
1.40929e-07
1.43552e-07
1.7501e-07
1.14704e-07
1.93154e-07
1.21151e-07
1.59627e-07
3.95194e-08
3.65085e-09
6.50137e-08
2.98213e-09
4.5711e-08
7.28048e-09
8.98904e-09
2.82158e-08
3.63347e-09
6.3456e-08
3.6264e-09
5.26721e-08
5.97652e-09
5.02129e-09
5.20151e-08
3.24198e-09
5.85252e-08
3.43036e-09
1.69074e-08
2.69054e-08
4.53435e-09
4.74741e-08
3.63483e-09
4.02567e-08
2.77252e-09
1.49087e-08
2.44895e-08
3.68016e-09
4.42338e-08
2.90125e-09
3.67753e-08
4.88448e-09
2.62558e-08
1.38424e-08
5.7797e-09
5.19406e-08
3.06658e-09
6.47349e-08
4.56807e-09
1.58932e-08
3.80737e-08
6.37497e-09
5.59988e-08
2.83878e-09
4.08683e-08
5.8743e-09
9.88285e-09
2.72424e-08
5.53362e-09
6.13779e-08
3.63611e-09
4.23533e-08
5.72363e-09
6.1354e-09
5.30856e-08
3.0383e-09
5.34336e-08
2.71093e-09
7.48641e-09
2.88996e-08
3.13524e-09
4.37905e-08
2.7838e-09
3.11329e-08
2.40544e-09
4.07218e-09
2.96599e-08
4.60892e-09
4.18815e-08
5.21128e-09
2.08789e-08
4.74047e-09
1.64772e-08
1.64632e-08
1.2057e-08
4.7231e-08
3.96045e-09
5.28772e-08
5.47789e-09
1.8638e-08
3.64357e-08
7.90109e-09
4.05948e-08
3.85972e-09
3.80628e-08
9.44183e-09
1.38422e-08
2.90236e-08
7.42798e-09
5.43202e-08
4.36631e-09
2.89136e-08
1.69204e-08
1.1402e-08
5.02867e-08
3.08536e-09
4.40915e-08
5.25903e-09
1.19805e-08
2.94998e-08
3.9175e-09
3.85621e-08
1.3724e-09
2.45678e-08
4.4712e-09
5.77438e-09
3.7673e-08
5.27512e-09
3.75628e-08
4.03345e-09
4.85987e-09
1.50343e-08
1.19474e-08
2.51577e-08
1.65249e-08
3.80798e-08
3.16948e-09
3.55879e-08
1.33585e-08
2.51189e-08
2.87453e-08
1.23935e-08
1.57893e-08
7.88674e-09
3.44701e-08
1.35474e-08
1.85045e-08
2.82126e-08
8.67958e-09
4.11828e-08
7.16183e-09
1.90512e-08
2.83878e-08
1.54553e-08
3.63247e-08
3.84485e-09
2.90797e-08
1.2091e-08
1.73671e-08
2.4369e-08
5.03332e-09
2.54989e-08
1.44542e-09
1.72996e-08
1.25822e-08
8.30807e-09
4.00879e-08
4.56115e-09
2.51882e-08
5.27814e-09
2.52137e-09
3.47955e-08
8.53777e-09
2.76413e-08
1.97479e-08
2.15122e-08
5.16074e-09
1.52131e-08
2.55095e-08
2.9677e-08
1.71153e-08
2.97642e-08
2.006e-09
1.60686e-08
2.90498e-08
1.59685e-08
2.28452e-08
2.37694e-08
8.67627e-09
2.64384e-08
1.2501e-08
1.58405e-08
3.03359e-08
1.75608e-08
1.77748e-08
8.3162e-09
1.90539e-08
1.3832e-08
2.31637e-08
1.32605e-08
8.01321e-09
1.15423e-08
5.09364e-09
1.54177e-08
1.81488e-08
1.03978e-08
3.37801e-08
2.95019e-09
1.2649e-08
2.23139e-08
4.35043e-09
4.55591e-08
4.57754e-09
2.16451e-08
2.05177e-08
8.94245e-09
3.03577e-08
6.4048e-09
3.42306e-08
2.92181e-08
8.5994e-09
5.13151e-08
1.00502e-09
2.31251e-08
2.15796e-08
1.48877e-08
2.90374e-08
1.79226e-08
8.72327e-09
1.37826e-08
1.48099e-08
1.57642e-08
2.5425e-08
2.04803e-08
8.73255e-09
1.35164e-08
1.19122e-08
1.02238e-08
3.14901e-08
8.83973e-09
1.24429e-08
4.28597e-09
5.42728e-09
1.71041e-08
1.89922e-08
1.40696e-08
2.0581e-08
2.27534e-09
1.3308e-08
3.03383e-08
6.22036e-09
4.0221e-08
2.0697e-09
1.31529e-08
1.62967e-08
3.7249e-09
5.30378e-08
2.91127e-09
3.67569e-08
2.22873e-08
0.00015831
0.000158307
0.00015831
0.000158307
0.000158308
0.000158308
0.000158307
0.000158308
0.000158307
0.000158307
0.000158306
0.000158307
0.000158305
0.000158307
0.000158306
0.000158306
0.000158307
0.000158305
0.000158308
0.000158306
0.000158307
0.000158308
0.000158306
0.000158309
0.000158307
0.000158309
0.000158309
0.000158309
0.000158309
0.000158309
0.00015831
0.000158309
0.000158311
0.000158309
0.00015831
0.00015831
0.000158308
0.000158312
0.000158308
0.00015831
0.000164372
0.000164372
0.000164373
0.000164371
0.000164373
0.000164371
0.000164371
0.000164371
0.00016437
0.00016437
0.00016437
0.00016437
0.000164369
0.00016437
0.000164369
0.00016437
0.00016437
0.000164369
0.000164371
0.000164369
0.000164371
0.00016437
0.00016437
0.000164372
0.000164371
0.000164372
0.000164372
0.000164373
0.000164373
0.000164373
0.000164373
0.000164373
0.000164374
0.000164372
0.000164375
0.000164373
0.000164373
0.000164375
0.000164371
0.000164375
0.000169545
0.000169547
0.000169546
0.000169545
0.000169547
0.000169544
0.000169545
0.000169545
0.000169544
0.000169544
0.000169544
0.000169544
0.000169543
0.000169544
0.000169542
0.000169544
0.000169543
0.000169543
0.000169544
0.000169542
0.000169545
0.000169543
0.000169544
0.000169545
0.000169544
0.000169546
0.000169545
0.000169546
0.000169546
0.000169546
0.000169547
0.000169546
0.000169548
0.000169546
0.000169548
0.000169546
0.000169547
0.000169548
0.000169545
0.000169549
0.000174836
0.000174838
0.000174837
0.000174836
0.000174837
0.000174835
0.000174836
0.000174835
0.000174835
0.000174835
0.000174835
0.000174834
0.000174834
0.000174834
0.000174833
0.000174834
0.000174833
0.000174833
0.000174834
0.000174832
0.000174835
0.000174833
0.000174835
0.000174834
0.000174834
0.000174836
0.000174835
0.000174837
0.000174836
0.000174837
0.000174837
0.000174837
0.000174838
0.000174837
0.000174839
0.000174837
0.000174838
0.000174838
0.000174837
0.000174839
0.000180035
0.000180038
0.000180036
0.000180036
0.000180037
0.000180035
0.000180036
0.000180034
0.000180035
0.000180034
0.000180034
0.000180033
0.000180033
0.000180034
0.000180032
0.000180033
0.000180032
0.000180032
0.000180033
0.000180031
0.000180034
0.000180031
0.000180033
0.000180033
0.000180033
0.000180034
0.000180033
0.000180035
0.000180034
0.000180035
0.000180035
0.000180036
0.000180036
0.000180035
0.000180038
0.000180035
0.000180037
0.000180037
0.000180036
0.000180038
0.000185105
0.000185109
0.000185106
0.000185107
0.000185107
0.000185105
0.000185107
0.000185105
0.000185106
0.000185104
0.000185105
0.000185104
0.000185103
0.000185104
0.000185102
0.000185104
0.000185102
0.000185102
0.000185103
0.000185101
0.000185104
0.000185101
0.000185103
0.000185102
0.000185103
0.000185104
0.000185103
0.000185105
0.000185103
0.000185105
0.000185104
0.000185105
0.000185106
0.000185105
0.000185107
0.000185105
0.000185107
0.000185107
0.000185106
0.000185109
0.000189965
0.000189969
0.000189966
0.000189968
0.000189968
0.000189966
0.000189968
0.000189966
0.000189967
0.000189965
0.000189966
0.000189965
0.000189964
0.000189965
0.000189963
0.000189964
0.000189962
0.000189963
0.000189963
0.000189961
0.000189964
0.000189961
0.000189963
0.000189962
0.000189962
0.000189963
0.000189962
0.000189964
0.000189962
0.000189965
0.000189964
0.000189965
0.000189965
0.000189964
0.000189967
0.000189965
0.000189967
0.000189967
0.000189966
0.000189969
0.000194519
0.000194524
0.000194521
0.000194522
0.000194522
0.000194521
0.000194523
0.000194521
0.000194522
0.00019452
0.000194521
0.00019452
0.00019452
0.00019452
0.000194518
0.00019452
0.000194517
0.000194517
0.000194518
0.000194515
0.000194518
0.000194514
0.000194518
0.000194515
0.000194516
0.000194517
0.000194515
0.000194518
0.000194516
0.000194518
0.000194517
0.000194518
0.000194519
0.000194518
0.000194521
0.000194518
0.000194521
0.000194521
0.000194519
0.000194523
0.000198646
0.000198652
0.000198648
0.00019865
0.000198651
0.000198649
0.000198651
0.000198649
0.000198651
0.000198649
0.00019865
0.000198649
0.000198649
0.000198649
0.000198647
0.000198649
0.000198646
0.000198646
0.000198647
0.000198643
0.000198647
0.000198642
0.000198646
0.000198643
0.000198644
0.000198644
0.000198643
0.000198645
0.000198642
0.000198645
0.000198643
0.000198645
0.000198645
0.000198644
0.000198648
0.000198645
0.000198648
0.000198648
0.000198646
0.000198651
0.000202197
0.000202204
0.0002022
0.000202203
0.000202203
0.000202202
0.000202204
0.000202202
0.000202204
0.000202202
0.000202204
0.000202202
0.000202203
0.000202203
0.0002022
0.000202203
0.0002022
0.0002022
0.000202201
0.000202197
0.000202202
0.000202195
0.0002022
0.000202196
0.000202197
0.000202197
0.000202195
0.000202198
0.000202194
0.000202198
0.000202195
0.000202197
0.000202197
0.000202196
0.000202199
0.000202196
0.0002022
0.000202199
0.000202198
0.000202203
0.000204988
0.000204997
0.000204991
0.000204995
0.000204995
0.000204994
0.000204997
0.000204995
0.000204998
0.000204995
0.000204999
0.000204995
0.000204997
0.000204997
0.000204995
0.000204998
0.000204994
0.000204996
0.000204996
0.000204991
0.000204997
0.000204989
0.000204995
0.00020499
0.000204992
0.000204991
0.000204989
0.000204992
0.000204987
0.000204991
0.000204987
0.00020499
0.000204989
0.000204988
0.000204991
0.000204988
0.000204992
0.000204991
0.000204989
0.000204995
0.000206793
0.000206803
0.000206796
0.000206801
0.000206801
0.0002068
0.000206803
0.000206801
0.000206804
0.000206801
0.000206806
0.000206801
0.000206806
0.000206805
0.000206802
0.000206807
0.000206802
0.000206804
0.000206805
0.0002068
0.000206807
0.000206797
0.000206805
0.000206798
0.000206801
0.0002068
0.000206797
0.0002068
0.000206794
0.0002068
0.000206794
0.000206798
0.000206795
0.000206795
0.000206798
0.000206793
0.000206799
0.000206796
0.000206795
0.000206801
0.000207332
0.000207346
0.000207335
0.000207343
0.00020734
0.000207341
0.000207343
0.000207342
0.000207346
0.00020734
0.00020735
0.000207341
0.000207348
0.000207347
0.000207344
0.000207351
0.000207343
0.000207348
0.000207349
0.000207343
0.000207352
0.00020734
0.00020735
0.000207341
0.000207346
0.000207344
0.000207341
0.000207346
0.000207337
0.000207346
0.000207336
0.000207344
0.000207337
0.000207339
0.000207341
0.000207334
0.000207343
0.000207336
0.000207337
0.000207343
0.000206266
0.000206285
0.000206268
0.000206281
0.000206275
0.000206277
0.000206278
0.000206276
0.000206284
0.000206272
0.000206288
0.000206274
0.000206285
0.000206283
0.000206278
0.00020629
0.000206278
0.000206286
0.000206286
0.000206279
0.000206292
0.000206276
0.000206291
0.000206278
0.000206286
0.000206283
0.000206279
0.000206287
0.000206274
0.000206288
0.000206272
0.000206285
0.000206275
0.000206277
0.000206282
0.000206269
0.000206284
0.000206271
0.000206275
0.000206282
0.000203179
0.000203209
0.000203181
0.000203201
0.00020319
0.000203194
0.000203196
0.000203188
0.000203205
0.000203182
0.000203208
0.000203187
0.0002032
0.000203202
0.000203189
0.000203209
0.000203192
0.000203202
0.000203204
0.000203193
0.000203212
0.00020319
0.000203213
0.000203193
0.000203206
0.000203203
0.000203195
0.000203211
0.000203188
0.000203213
0.000203187
0.000203208
0.000203195
0.000203193
0.000203208
0.000203181
0.000203208
0.000203188
0.000203192
0.000203205
0.000197566
0.000197614
0.000197572
0.000197601
0.000197586
0.000197586
0.000197599
0.000197574
0.000197609
0.00019757
0.000197606
0.000197582
0.00019759
0.000197601
0.000197577
0.000197607
0.000197583
0.000197595
0.0001976
0.000197582
0.000197612
0.000197578
0.000197611
0.000197586
0.000197599
0.000197602
0.000197584
0.000197614
0.000197577
0.000197616
0.00019758
0.000197604
0.000197597
0.000197582
0.000197615
0.000197571
0.00019761
0.000197588
0.000197583
0.000197611
0.000188826
0.000188897
0.000188841
0.000188871
0.000188868
0.000188846
0.000188886
0.000188834
0.00018889
0.000188838
0.000188876
0.000188859
0.000188852
0.00018888
0.000188841
0.00018888
0.000188854
0.000188861
0.000188876
0.000188843
0.000188889
0.000188841
0.000188883
0.000188858
0.000188862
0.000188882
0.000188843
0.000188895
0.00018884
0.00018889
0.000188854
0.000188867
0.000188881
0.00018884
0.000188899
0.000188839
0.00018888
0.00018887
0.000188842
0.0001889
0.000176252
0.000176333
0.000176286
0.000176291
0.000176324
0.000176263
0.000176337
0.000176261
0.000176327
0.00017628
0.000176301
0.000176307
0.000176276
0.000176322
0.000176273
0.000176312
0.000176295
0.000176285
0.000176321
0.000176267
0.000176329
0.000176273
0.000176311
0.000176301
0.000176281
0.000176329
0.000176263
0.000176335
0.000176272
0.000176315
0.000176302
0.000176283
0.000176332
0.000176263
0.000176336
0.00017628
0.000176299
0.000176326
0.000176256
0.000176353
0.00015904
0.000159089
0.000159093
0.00015904
0.000159125
0.000159027
0.000159119
0.000159047
0.000159091
0.000159076
0.000159063
0.000159098
0.000159049
0.000159101
0.000159058
0.00015908
0.000159086
0.000159051
0.000159108
0.000159042
0.000159102
0.000159062
0.000159071
0.000159097
0.00015904
0.000159117
0.000159038
0.000159104
0.000159065
0.000159069
0.0001591
0.000159042
0.000159116
0.000159045
0.000159094
0.000159083
0.000159047
0.000159128
0.000159018
0.000159132
0.000136309
0.000136283
0.000136354
0.000136255
0.000136359
0.00013627
0.00013633
0.000136303
0.0001363
0.000136326
0.000136285
0.000136333
0.000136286
0.000136323
0.000136305
0.000136299
0.000136329
0.00013628
0.000136336
0.000136287
0.000136315
0.000136317
0.000136282
0.000136343
0.000136269
0.00013634
0.000136289
0.000136308
0.000136325
0.000136279
0.000136341
0.000136279
0.000136326
0.000136306
0.000136292
0.000136343
0.000136261
0.00013636
0.000136266
0.000136333
0.000107239
0.000107169
0.000107252
0.000107173
0.000107233
0.000107201
0.000107203
0.000107226
0.000107188
0.000107231
0.000107189
0.000107226
0.000107199
0.000107212
0.000107216
0.000107195
0.000107228
0.000107192
0.000107219
0.000107211
0.000107194
0.000107234
0.00010718
0.000107236
0.000107191
0.000107213
0.000107219
0.000107187
0.000107236
0.000107185
0.000107222
0.000107209
0.000107195
0.000107232
0.000107181
0.000107237
0.000107185
0.000107223
0.000107209
0.000107193
7.16664e-05
7.16261e-05
7.16606e-05
7.16386e-05
7.16428e-05
7.16578e-05
7.16278e-05
7.16656e-05
7.16276e-05
7.16614e-05
7.16333e-05
7.16559e-05
7.164e-05
7.16472e-05
7.16508e-05
7.16383e-05
7.16545e-05
7.16428e-05
7.16425e-05
7.16591e-05
7.16285e-05
7.16658e-05
7.16318e-05
7.16536e-05
7.16495e-05
7.16345e-05
7.16648e-05
7.1627e-05
7.16613e-05
7.16407e-05
7.16413e-05
7.16581e-05
7.16332e-05
7.16536e-05
7.16461e-05
7.1638e-05
7.16587e-05
7.16295e-05
7.16639e-05
7.16256e-05
3.50735e-05
3.50752e-05
3.50781e-05
3.50758e-05
3.50712e-05
3.50853e-05
3.50637e-05
3.50877e-05
3.5065e-05
3.50862e-05
3.50641e-05
3.50889e-05
3.50635e-05
3.50842e-05
3.50739e-05
3.50722e-05
3.50833e-05
3.50701e-05
3.50781e-05
3.50802e-05
3.50688e-05
3.5085e-05
3.50705e-05
3.50791e-05
3.5079e-05
3.50709e-05
3.50856e-05
3.50675e-05
3.50847e-05
3.50721e-05
3.50801e-05
3.50713e-05
3.5089e-05
3.50569e-05
3.51002e-05
3.50555e-05
3.50896e-05
3.50725e-05
3.50734e-05
3.50808e-05
1.03977e-05
1.0398e-05
1.04185e-05
1.03894e-05
1.04142e-05
1.04009e-05
1.04022e-05
1.04089e-05
1.03964e-05
1.04158e-05
1.03866e-05
1.04252e-05
1.03836e-05
1.04173e-05
1.04019e-05
1.03944e-05
1.04212e-05
1.03853e-05
1.04181e-05
1.03982e-05
1.04016e-05
1.04129e-05
1.03925e-05
1.04166e-05
1.03941e-05
1.04105e-05
1.04046e-05
1.03984e-05
1.04154e-05
1.0391e-05
1.04208e-05
1.03848e-05
1.04289e-05
1.03796e-05
1.04236e-05
1.03991e-05
1.03939e-05
1.04276e-05
1.03782e-05
1.04241e-05
1.63951e-06
1.61815e-06
1.66761e-06
1.60873e-06
1.66e-06
1.62579e-06
1.64146e-06
1.64123e-06
1.62745e-06
1.65642e-06
1.61232e-06
1.66655e-06
1.61401e-06
1.6494e-06
1.64223e-06
1.61902e-06
1.66506e-06
1.61088e-06
1.65673e-06
1.63095e-06
1.63237e-06
1.65262e-06
1.61753e-06
1.65988e-06
1.61838e-06
1.65038e-06
1.63519e-06
1.63036e-06
1.6532e-06
1.61832e-06
1.65976e-06
1.61463e-06
1.66183e-06
1.6188e-06
1.64478e-06
1.64945e-06
1.60907e-06
1.6765e-06
1.6034e-06
1.65733e-06
1.60638e-07
1.21171e-07
1.87716e-07
1.17096e-07
1.75659e-07
1.35704e-07
1.52355e-07
1.55274e-07
1.32948e-07
1.77961e-07
1.19533e-07
1.82893e-07
1.28633e-07
1.52584e-07
1.64736e-07
1.23913e-07
1.83384e-07
1.22682e-07
1.63892e-07
1.48682e-07
1.37278e-07
1.71545e-07
1.24757e-07
1.74882e-07
1.28796e-07
1.59418e-07
1.50721e-07
1.3593e-07
1.70772e-07
1.26075e-07
1.728e-07
1.28048e-07
1.68725e-07
1.37979e-07
1.45301e-07
1.72377e-07
1.14169e-07
1.93564e-07
1.18742e-07
1.61225e-07
3.73481e-08
3.73823e-09
6.29171e-08
3.00511e-09
4.71049e-08
7.51294e-09
1.32696e-08
2.31786e-08
3.25251e-09
6.31389e-08
3.78308e-09
5.88686e-08
4.46712e-09
6.18869e-09
5.07731e-08
3.62981e-09
6.09685e-08
3.0389e-09
1.72699e-08
2.8832e-08
5.00867e-09
5.01088e-08
3.71496e-09
4.02991e-08
2.58261e-09
1.47418e-08
2.64059e-08
4.11672e-09
4.44097e-08
4.03076e-09
3.68995e-08
5.29707e-09
2.85594e-08
1.2614e-08
7.88728e-09
4.87589e-08
3.32745e-09
6.53885e-08
4.8124e-09
1.86091e-08
3.68072e-08
7.04012e-09
5.4174e-08
2.85346e-09
4.23918e-08
6.08223e-09
1.39981e-08
2.14619e-08
4.99681e-09
6.21095e-08
3.71869e-09
5.07462e-08
3.84734e-09
6.09339e-09
5.1873e-08
3.02847e-09
5.74848e-08
2.33042e-09
7.08558e-09
3.02335e-08
2.8402e-09
4.71338e-08
2.60862e-09
3.14778e-08
2.22354e-09
3.92912e-09
3.17607e-08
4.64192e-09
4.13076e-08
6.07146e-09
2.04988e-08
5.46732e-09
1.73448e-08
1.49285e-08
1.3996e-08
4.39749e-08
4.7679e-09
5.22528e-08
5.69409e-09
2.00574e-08
3.63213e-08
9.01909e-09
3.94306e-08
3.42281e-09
3.92395e-08
8.71327e-09
1.77633e-08
2.37391e-08
7.29148e-09
5.53705e-08
4.34716e-09
3.72908e-08
1.30376e-08
1.24217e-08
4.89288e-08
3.03345e-09
4.93115e-08
4.92783e-09
1.29491e-08
2.92131e-08
3.35919e-09
4.10286e-08
1.29062e-09
2.51461e-08
4.35464e-09
5.84883e-09
3.81588e-08
5.33484e-09
3.49953e-08
4.84081e-09
4.37818e-09
1.62726e-08
1.15764e-08
2.3507e-08
1.82926e-08
3.582e-08
4.42012e-09
3.33311e-08
1.31346e-08
2.55918e-08
2.9646e-08
1.41914e-08
1.48478e-08
6.51952e-09
3.5061e-08
1.1861e-08
2.20369e-08
2.40821e-08
9.18574e-09
4.22316e-08
6.40873e-09
2.46573e-08
2.36674e-08
1.77344e-08
3.48598e-08
3.67384e-09
3.36402e-08
1.1131e-08
1.98791e-08
2.31013e-08
4.45418e-09
2.64307e-08
1.5163e-09
1.81609e-08
1.25747e-08
8.68129e-09
3.89859e-08