/*--------------------------------*- C++ -*----------------------------------*\
  =========                 |
  \\      /  F ield         | OpenFOAM: The Open Source CFD Toolbox
   \\    /   O peration     | Website:  https://openfoam.org
    \\  /    A nd           | Version:  10
     \\/     M anipulation  |
\*---------------------------------------------------------------------------*/
FoamFile
{
    format      ascii;
    class       volVectorField;
    location    "18";
    object      UMean;
}
// * * * * * * * * * * * * * * * * * * * * * * * * * * * * * * * * * * * * * //

dimensions      [0 1 -1 0 0 0 0];

internalField   nonuniform List<vector> 
25600
(
(0.180331 -0.0221377 0.00914446)
(0.177702 -0.0219808 0.00343299)
(0.171871 -0.0231356 -0.0266992)
(0.16436 -0.022649 -0.0177435)
(0.174595 -0.0211056 0.00448519)
(0.220417 -0.0214929 -0.0295382)
(0.190651 -0.0233385 -0.0407319)
(0.12135 -0.0229553 -0.011878)
(0.0994453 -0.0217062 0.00138317)
(0.0974837 -0.0212223 -0.00659598)
(0.108469 -0.0216062 -0.0217723)
(0.111514 -0.0215493 -0.0245392)
(0.107533 -0.0223246 -0.00814793)
(0.094067 -0.0221876 0.0067715)
(0.0860983 -0.0216832 0.0052661)
(0.0796575 -0.0209049 0.00607577)
(0.0725903 -0.0210882 0.00544951)
(0.0716799 -0.0212204 0.00779623)
(0.0755109 -0.0210767 0.0126409)
(0.0756528 -0.0204023 0.0214899)
(0.0661619 -0.0197388 0.0362266)
(0.0734803 -0.0203382 0.0401851)
(0.0836959 -0.0210329 0.0272395)
(0.0966427 -0.0216415 0.00454692)
(0.109886 -0.0218289 -0.0146643)
(0.117458 -0.0219909 -0.0167631)
(0.127627 -0.0210628 -0.00617083)
(0.138752 -0.0209704 0.000346388)
(0.139325 -0.0209886 0.00250768)
(0.141786 -0.0217033 0.00358099)
(0.137291 -0.0218242 0.0233577)
(0.114344 -0.0210316 0.0349077)
(0.110765 -0.0209177 0.0161219)
(0.111379 -0.0212482 -0.00287595)
(0.129107 -0.0219444 0.00535854)
(0.147331 -0.0219606 0.0220169)
(0.160704 -0.0216794 0.0278216)
(0.153158 -0.0212988 0.0219691)
(0.159665 -0.0217275 -0.00609272)
(0.177906 -0.0224588 -0.0137741)
(0.477645 0.0121818 -0.0148661)
(0.483185 0.0116185 0.00328299)
(0.480763 0.0130492 -0.067385)
(0.437879 0.0136018 -0.0813255)
(0.407753 0.00941614 -0.0274533)
(0.573883 0.00833631 -0.0820122)
(0.67569 0.0130354 -0.127676)
(0.435243 0.0136581 -0.0680102)
(0.265462 0.0146158 -0.0345969)
(0.245406 0.0173698 -0.0537561)
(0.283168 0.0153077 -0.0846318)
(0.304278 0.0120242 -0.0847063)
(0.292044 0.00992963 -0.0486014)
(0.25088 0.0109615 -0.0222375)
(0.220719 0.0135282 -0.0179082)
(0.198871 0.0140439 -0.0117959)
(0.18394 0.0136446 -0.0119548)
(0.171129 0.0131522 -0.00833913)
(0.174935 0.0137459 -0.00142859)
(0.180144 0.0152733 0.0172984)
(0.167574 0.0153288 0.0383458)
(0.178925 0.0149121 0.0340759)
(0.196251 0.014439 0.00705932)
(0.228573 0.0135807 -0.034425)
(0.269644 0.0130591 -0.0779546)
(0.287965 0.0133925 -0.0790453)
(0.310507 0.0142724 -0.0384885)
(0.361462 0.0153544 -0.0180059)
(0.371548 0.0138323 -0.021327)
(0.376387 0.0126219 -0.0346688)
(0.41109 0.0112381 -0.00370416)
(0.349836 0.0118749 0.0366985)
(0.290881 0.0147257 0.0128934)
(0.284769 0.0150264 -0.0281796)
(0.346909 0.01188 -0.0219182)
(0.388373 0.010355 0.00990103)
(0.421592 0.0101102 0.0283683)
(0.406882 0.0101318 0.0306789)
(0.411184 0.0129465 -0.0277309)
(0.458866 0.0142738 -0.0682459)
(0.698098 -0.00910656 -0.0538031)
(0.690214 -0.0118617 0.0286769)
(0.693754 -0.0103485 -0.0186646)
(0.706586 -0.00310308 -0.106028)
(0.64621 -0.0108968 -0.0534663)
(0.628354 -0.0288282 -0.0465934)
(1.00528 -0.0222475 -0.142421)
(0.922379 -0.000618039 -0.1189)
(0.525057 0.000820807 -0.0594739)
(0.386292 -0.000430013 -0.0695186)
(0.438907 -0.00278924 -0.119497)
(0.497782 -0.00890673 -0.122186)
(0.485619 -0.0148699 -0.0660235)
(0.42458 -0.0121765 -0.0412986)
(0.377628 -0.00627064 -0.0346719)
(0.335714 -0.00375498 -0.0222325)
(0.314332 -0.00485512 -0.0181427)
(0.275112 -0.00648226 -0.0125162)
(0.262935 -0.00625916 -0.00984113)
(0.273003 -0.00278777 0.0097358)
(0.265758 -0.000139262 0.037306)
(0.273839 -0.000565663 0.0334011)
(0.294883 -0.00217935 -0.00351949)
(0.338558 -0.00503518 -0.047518)
(0.40118 -0.00703702 -0.105666)
(0.421488 -0.0065822 -0.131562)
(0.433508 -0.00490012 -0.0726308)
(0.523047 -0.00473662 -0.0105108)
(0.575181 -0.00608418 0.000579788)
(0.53711 -0.0117099 -0.0359672)
(0.605571 -0.0136736 -0.0484279)
(0.634776 -0.00786633 0.00641876)
(0.510047 -0.0041483 0.0256148)
(0.439847 -0.00607304 -0.0140018)
(0.522553 -0.012608 -0.0246382)
(0.585846 -0.014392 -0.00110245)
(0.618917 -0.0143685 0.0204867)
(0.610236 -0.0166001 0.0517103)
(0.595787 -0.0142511 0.0179406)
(0.651 -0.0090955 -0.0765208)
(0.808089 0.00155892 -0.0795536)
(0.830657 0.00175219 0.0198277)
(0.750923 -0.00114589 0.0321204)
(0.790342 0.0054701 -0.0820324)
(0.840111 0.0107896 -0.0759977)
(0.681826 -0.0175097 -0.0205323)
(0.895139 -0.029952 -0.0939212)
(1.13575 0.00821242 -0.116855)
(0.821134 0.0243773 -0.0712893)
(0.517117 0.0172845 -0.0666711)
(0.513036 0.00844001 -0.116368)
(0.627993 0.00314394 -0.135439)
(0.663779 -0.00728721 -0.0661155)
(0.582698 -0.00565724 -0.0400486)
(0.527637 0.00462638 -0.0537865)
(0.475925 0.00964798 -0.0391554)
(0.448353 0.010201 -0.026354)
(0.395581 0.00927954 -0.0135766)
(0.343337 0.00743938 -0.0123238)
(0.33515 0.0105251 0.000980997)
(0.336163 0.0148391 0.0346217)
(0.344191 0.0163345 0.0381466)
(0.369716 0.0148091 -0.00442515)
(0.424872 0.0111887 -0.0529085)
(0.50709 0.00803986 -0.10811)
(0.520269 0.00924852 -0.158545)
(0.504108 0.0105196 -0.105588)
(0.583451 0.00791376 -0.00381238)
(0.689753 0.00813472 0.0393791)
(0.652703 0.00212166 0.0104514)
(0.625362 -0.00843354 -0.0309963)
(0.738321 -0.00224955 -0.0311594)
(0.732304 0.0102353 0.001804)
(0.605868 0.0059773 0.00664021)
(0.634667 -0.00608203 0.00482447)
(0.726346 -0.00520925 0.00916898)
(0.745862 -0.00252139 0.0123506)
(0.730134 -0.00858231 0.0435195)
(0.732738 -0.0095331 0.0557839)
(0.754178 -0.00294818 -0.0397599)
(0.870034 -0.0125754 -0.0849719)
(0.926863 -0.00771199 -0.00866973)
(0.810771 -0.0100441 0.0401713)
(0.791311 -0.013881 -0.0502962)
(0.882733 0.00386023 -0.0750863)
(0.776496 -0.0208089 -0.00168635)
(0.786825 -0.0522663 -0.0444472)
(1.12795 -0.0101746 -0.0894525)
(0.955616 0.0296774 -0.0662651)
(0.625287 0.0156104 -0.0581584)
(0.565865 -0.00777707 -0.0783871)
(0.69351 -0.0138333 -0.111981)
(0.820081 -0.0185202 -0.0633546)
(0.737948 -0.018751 -0.0264921)
(0.651205 -0.0085168 -0.0661485)
(0.610471 -0.000588894 -0.0716286)
(0.590987 0.00263028 -0.0500325)
(0.534567 0.00578116 -0.0238753)
(0.449832 0.00356547 -0.0107266)
(0.401813 0.00303766 -0.000910877)
(0.39573 0.00733087 0.0311909)
(0.401308 0.0109345 0.0409707)
(0.432395 0.00934125 -0.00167403)
(0.492745 0.0052268 -0.0510756)
(0.578782 0.00371386 -0.0992809)
(0.593536 0.0075046 -0.153079)
(0.565362 0.00960248 -0.11195)
(0.625627 -0.000364844 0.0013825)
(0.722364 -0.00239536 0.0700448)
(0.73276 -0.00280906 0.0521423)
(0.688548 -0.0176317 0.0112299)
(0.710336 -0.0172198 -0.0129403)
(0.805784 -0.00259901 -0.0230293)
(0.77101 -0.00272813 -0.0155543)
(0.717273 -0.0231485 0.00382487)
(0.793815 -0.0244174 0.0173939)
(0.840754 -0.0118002 0.0151364)
(0.800342 -0.0205765 0.0364156)
(0.815343 -0.0261555 0.0617312)
(0.843965 -0.0184311 -0.0156196)
(0.915841 -0.0111354 -0.0732445)
(1.00308 -0.000701427 -0.0396684)
(0.89538 -0.00244137 0.0199503)
(0.819867 -0.0106153 -0.0227044)
(0.885073 0.00739113 -0.0590665)
(0.860651 -0.00966168 0.017429)
(0.800305 -0.0579226 0.00353012)
(1.05016 -0.0181154 -0.0596051)
(0.999322 0.0410683 -0.0595459)
(0.785301 0.0325691 -0.0344605)
(0.736582 -0.0047211 -0.0111853)
(0.775391 -0.020869 -0.0506116)
(0.945421 -0.0199094 -0.0505708)
(0.927497 -0.00716179 -0.00912497)
(0.77352 -0.00073798 -0.0468185)
(0.692308 -0.000107201 -0.0961682)
(0.709856 0.00542317 -0.0902129)
(0.67224 0.0168467 -0.0492917)
(0.567507 0.0189077 -0.0122155)
(0.477323 0.0149131 0.00504074)
(0.452981 0.0157028 0.0326244)
(0.455476 0.0200684 0.0444737)
(0.496878 0.0184014 -0.00169253)
(0.552523 0.015305 -0.0477947)
(0.616926 0.013976 -0.089635)
(0.629408 0.0227015 -0.13524)
(0.618022 0.0303262 -0.0898711)
(0.686071 0.014981 0.019131)
(0.74647 0.00353222 0.0882934)
(0.758848 0.00173672 0.072408)
(0.756224 -0.00838215 0.0346956)
(0.731372 -0.0100362 0.0163024)
(0.790918 0.00269017 -0.00893599)
(0.842064 0.00942027 -0.0295384)
(0.775646 -0.0175237 -0.0316766)
(0.77497 -0.0303119 -0.00252521)
(0.858099 -0.01392 -0.000631142)
(0.850506 -0.0142375 0.029574)
(0.842728 -0.0260834 0.0653901)
(0.889049 -0.0200918 0.00486546)
(0.951087 -0.0237711 -0.0533276)
(1.04087 -0.00762586 -0.0540213)
(0.982953 -0.00818831 -0.0108463)
(0.918341 -0.0173856 -0.0136614)
(0.913132 -0.000604185 -0.0321472)
(0.901318 -0.0136229 0.0329335)
(0.862486 -0.0660724 0.0252956)
(0.962174 -0.0308303 -0.0426202)
(0.924675 0.0367361 -0.0591732)
(0.867939 0.0267624 -0.0246317)
(0.923854 -0.0121825 0.0325085)
(0.897872 -0.029229 0.00058142)
(0.942333 -0.0342404 -0.0342346)
(1.01889 -0.0177985 0.00591494)
(0.945989 0.00465535 -0.0166737)
(0.794588 -0.00593328 -0.0819545)
(0.760866 -0.00915874 -0.113197)
(0.785216 0.0146101 -0.0931401)
(0.709184 0.0245778 -0.0314014)
(0.597505 0.0146678 0.00908967)
(0.516191 0.0108145 0.0441576)
(0.508049 0.0163127 0.0488118)
(0.571537 0.0142257 -0.00333833)
(0.618457 0.0137833 -0.0523742)
(0.647644 0.0137219 -0.0884063)
(0.64392 0.0275666 -0.119201)
(0.652387 0.0405085 -0.0687723)
(0.733363 0.024471 0.0240319)
(0.77825 0.00623248 0.0908666)
(0.768026 -0.00562923 0.0662654)
(0.776491 -0.0150677 0.024307)
(0.769748 -0.0136223 0.0155829)
(0.789281 -0.00315476 0.00360197)
(0.85381 0.0124965 -0.0180139)
(0.836735 -0.00657071 -0.0363747)
(0.771416 -0.0367465 -0.0227051)
(0.813923 -0.0285281 -0.028151)
(0.876152 -0.022555 0.00482395)
(0.86131 -0.0316961 0.0560498)
(0.877076 -0.0317878 0.0133081)
(0.980772 -0.0304223 -0.0327258)
(1.04479 -0.0135469 -0.0489933)
(1.00152 -0.0123202 -0.0269025)
(1.00208 -0.0142323 -0.0191689)
(0.961591 0.00187093 -0.00862905)
(0.929138 -0.0114991 0.0468167)
(0.894782 -0.0580868 0.0327706)
(0.855167 -0.0253863 -0.0257009)
(0.850747 0.0430214 -0.0548546)
(0.929269 0.0175214 -0.0469171)
(0.957317 -0.0218134 0.01427)
(0.937245 -0.0248386 0.000838293)
(0.899219 -0.0348123 -0.0331196)
(0.89354 -0.0252279 0.00411469)
(0.968559 0.00878144 -0.00629776)
(0.943446 0.00515147 -0.0674337)
(0.811334 -0.0148807 -0.10607)
(0.777921 0.00787283 -0.110663)
(0.846216 0.0346167 -0.0885428)
(0.840387 0.0298048 -0.0274897)
(0.688434 0.0155089 0.0480232)
(0.592635 0.0157714 0.0661232)
(0.646518 0.0141801 0.0117269)
(0.687465 0.0186337 -0.0516583)
(0.678007 0.0222658 -0.0912652)
(0.657311 0.0421407 -0.108288)
(0.666968 0.055478 -0.062415)
(0.746678 0.0316597 0.0110727)
(0.806519 0.0150194 0.0678051)
(0.793763 -0.000451873 0.0415539)
(0.793436 -0.0169954 0.000605367)
(0.791605 -0.0113356 0.00387882)
(0.796389 -0.00279424 0.00417005)
(0.851116 0.0176401 -0.00998682)
(0.871394 0.0159931 -0.0280758)
(0.811493 -0.0199515 -0.0313672)
(0.787794 -0.0295417 -0.0412187)
(0.876702 -0.0281965 -0.021707)
(0.879747 -0.0277951 0.0397982)
(0.866159 -0.032917 0.0159086)
(1.0068 -0.0409487 -0.0218311)
(1.02986 -0.021388 -0.0468416)
(0.952183 -0.0157295 -0.0240919)
(1.01193 -0.0214227 -0.0225158)
(0.989155 -0.00246561 -0.0048936)
(0.926032 -0.0176614 0.0488558)
(0.900177 -0.0553821 0.03751)
(0.801586 -0.0180689 -0.014098)
(0.816401 0.0288367 -0.0503376)
(0.987613 0.00465716 -0.0620464)
(0.997019 -0.0238344 -0.00952864)
(0.94392 -0.0202024 0.00634767)
(0.95752 -0.0300827 -0.0222248)
(0.841055 -0.03042 0.00384863)
(0.894579 -0.00210323 0.00413144)
(1.04359 0.00715193 -0.0659934)
(0.924125 -0.00954838 -0.101626)
(0.753529 -0.00609546 -0.0934704)
(0.827295 0.0162342 -0.109879)
(1.01985 0.0280661 -0.119948)
(0.991095 0.0238331 -0.0247646)
(0.804924 0.0158364 0.0692836)
(0.761593 0.00863556 0.0417272)
(0.764469 0.0157159 -0.0385587)
(0.710563 0.026169 -0.0939866)
(0.670278 0.050237 -0.102904)
(0.677179 0.0576905 -0.0547742)
(0.743571 0.0235492 -0.00158053)
(0.829849 0.00741592 0.0257317)
(0.842168 -0.00125829 0.00211088)
(0.823126 -0.0194714 -0.0282423)
(0.810859 -0.0155634 -0.00751653)
(0.808831 -0.00499365 0.00580011)
(0.851986 0.0144233 -0.00933533)
(0.873137 0.0263677 -0.0380556)
(0.83284 -0.00149977 -0.0468602)
(0.796002 -0.0316548 -0.0477966)
(0.86472 -0.037714 -0.0372494)
(0.886265 -0.0291955 0.0264476)
(0.879951 -0.0376987 0.0261162)
(1.01838 -0.0492818 -0.0213628)
(1.00799 -0.0171538 -0.0435136)
(0.90676 -0.00341389 -0.00860383)
(0.982568 -0.0190308 -0.0128426)
(0.985727 -0.000308802 -0.0097048)
(0.904087 -0.0139179 0.0413467)
(0.877183 -0.0492046 0.0402127)
(0.799593 -0.00931253 -0.00968766)
(0.799851 0.0230559 -0.0352657)
(0.981361 -0.0054778 -0.0461435)
(1.03186 -0.018453 -0.0212672)
(0.942091 -0.0150524 0.0120328)
(0.974038 -0.0203238 -0.00308578)
(0.906117 -0.0265765 0.00886322)
(0.872719 -0.0118803 0.0221478)
(1.04597 -0.00285546 -0.0502188)
(1.01312 0.00507772 -0.0984993)
(0.813394 -0.00446628 -0.0770684)
(0.807155 -0.010161 -0.0897924)
(0.999785 0.00543486 -0.150408)
(1.11494 0.0217751 -0.108942)
(0.998314 0.0220421 0.0378542)
(0.888947 0.0137992 0.0631174)
(0.83847 0.0221672 -0.0187805)
(0.736361 0.0368851 -0.0826746)
(0.68618 0.0598616 -0.0892276)
(0.704768 0.0648922 -0.0657832)
(0.735784 0.023897 -0.0518319)
(0.818736 -0.000421557 -0.0273105)
(0.864709 -0.00560398 -0.032544)
(0.836827 -0.0244433 -0.0501211)
(0.816411 -0.0209456 -0.0178538)
(0.815337 -0.00372765 0.0123825)
(0.851016 0.0102715 -0.00577871)
(0.869225 0.0310164 -0.0474056)
(0.836285 0.0146566 -0.0637726)
(0.806821 -0.0253114 -0.0537609)
(0.846892 -0.0391737 -0.0420055)
(0.885493 -0.0249812 0.0198216)
(0.905534 -0.0337295 0.0318353)
(1.00962 -0.0591732 -0.0191094)
(0.999426 -0.0173669 -0.0449626)
(0.917147 0.00143819 -0.00799557)
(0.975583 -0.0132951 -0.00209233)
(0.984187 0.00425687 -0.0157326)
(0.909093 -0.00934352 0.0302441)
(0.860138 -0.041384 0.0441094)
(0.789377 -0.00587762 -0.00401381)
(0.787527 0.0129311 -0.0212714)
(0.953442 -0.019862 -0.0320919)
(1.04754 -0.018355 -0.0311474)
(0.965029 -0.00608016 0.00515984)
(0.966479 -0.0179994 0.0153361)
(0.966467 -0.0196019 0.00757379)
(0.924146 -0.0158723 0.0190942)
(1.00408 -0.011715 -0.0288367)
(1.02026 0.00956875 -0.0886643)
(0.903682 0.00573096 -0.0806584)
(0.843364 -0.0255554 -0.0716301)
(0.950539 -0.0178022 -0.138094)
(1.0966 0.00412939 -0.136734)
(1.06357 0.0117758 0.00544356)
(0.951183 0.0137379 0.0661832)
(0.880558 0.0286191 0.00328555)
(0.765647 0.0446199 -0.0626833)
(0.713687 0.0614866 -0.0835497)
(0.738434 0.0695948 -0.0983004)
(0.753427 0.0304024 -0.111417)
(0.804063 -0.00726873 -0.0714862)
(0.865403 -0.017938 -0.0344902)
(0.840807 -0.0400613 -0.0296466)
(0.81215 -0.0353257 -0.011412)
(0.817341 -0.0106483 0.0171698)
(0.844067 -0.000744358 -0.000671441)
(0.861031 0.0247548 -0.0553621)
(0.838288 0.0240401 -0.0780301)
(0.816143 -0.0235857 -0.0577298)
(0.842761 -0.0466429 -0.0459593)
(0.901637 -0.0247943 0.00618503)
(0.936652 -0.0342124 0.0303399)
(0.997856 -0.0609838 -0.00948298)
(0.985112 -0.0189091 -0.0454172)
(0.941078 0.00572607 -0.0191904)
(0.983566 -0.00886908 -0.00527834)
(0.99565 0.0106481 -0.0284901)
(0.930637 -0.0017257 0.0191371)
(0.855267 -0.0320302 0.0549539)
(0.775461 0.00108332 0.00457387)
(0.79618 -0.00225536 -0.00982042)
(0.94511 -0.0428267 -0.0117917)
(1.05231 -0.0280242 -0.0298149)
(0.989379 -0.00245042 -0.00312334)
(0.967143 -0.0161231 0.0296446)
(1.00406 -0.0218362 0.00653765)
(0.972439 -0.0113778 0.00479511)
(0.975176 -0.00582482 -0.008012)
(0.998408 0.0123563 -0.0693356)
(0.967442 0.0074687 -0.0939868)
(0.911316 -0.0290134 -0.0742682)
(0.933617 -0.0324647 -0.0999269)
(1.05338 -0.00922248 -0.111156)
(1.05259 0.00218933 -0.00706983)
(0.945769 0.0100525 0.0641059)
(0.878109 0.0344098 0.0231262)
(0.805157 0.054553 -0.0411557)
(0.761176 0.0636548 -0.0844718)
(0.770867 0.0700018 -0.121698)
(0.788008 0.0367727 -0.146275)
(0.816062 -0.00831192 -0.105713)
(0.868029 -0.0241068 -0.0435926)
(0.864103 -0.0433008 -0.0144097)
(0.82187 -0.0426274 -0.00167013)
(0.820774 -0.0163483 0.0119607)
(0.843969 -0.0105505 -0.00150974)
(0.848521 0.0170138 -0.0607251)
(0.836202 0.0338305 -0.0894571)
(0.841899 -0.0147698 -0.0638979)
(0.855397 -0.052332 -0.0480202)
(0.91838 -0.0251548 -0.0118931)
(0.968716 -0.0305462 0.0219937)
(0.99795 -0.0616552 -0.00377634)
(0.969789 -0.0236694 -0.0397546)
(0.956675 0.00498839 -0.0255221)
(0.990065 -0.00718212 -0.00959673)
(0.998137 0.0129413 -0.0377325)
(0.944492 0.00282661 0.0100186)
(0.84875 -0.0240491 0.0668066)
(0.783234 0.00350761 0.0226736)
(0.830769 -0.0163388 0.00542714)
(0.95371 -0.0677994 0.0175229)
(1.0497 -0.0438515 -0.0120487)
(1.00356 -0.00403919 -0.00609927)
(0.974972 -0.0113555 0.0299192)
(1.02472 -0.028261 0.00555248)
(0.993479 -0.0194229 -0.000412535)
(0.956467 -0.00215232 0.012754)
(0.997365 0.0124079 -0.050197)
(1.01615 -0.00099217 -0.104593)
(0.952589 -0.0342218 -0.0805909)
(0.926657 -0.038323 -0.0650752)
(1.02491 -0.0164934 -0.0834367)
(1.06703 -0.0012244 -0.0319652)
(0.952664 0.00921306 0.0458569)
(0.863018 0.0343969 0.0397206)
(0.833873 0.0560866 -0.0202944)
(0.811749 0.0553564 -0.0874733)
(0.806853 0.0560034 -0.138531)
(0.828075 0.0343248 -0.16078)
(0.841533 -0.00794658 -0.12848)
(0.870634 -0.0287365 -0.0667434)
(0.885865 -0.0425901 -0.0250684)
(0.843709 -0.0418816 -0.000930185)
(0.82296 -0.0200596 0.00459843)
(0.848587 -0.0157456 -0.0146095)
(0.848254 0.00885816 -0.0629614)
(0.84257 0.036392 -0.0905535)
(0.877054 -0.00374562 -0.0596495)
(0.880019 -0.0510367 -0.0380963)
(0.926477 -0.030294 -0.0184113)
(0.992344 -0.0290509 0.00980783)
(0.999168 -0.0568594 0.00195908)
(0.962938 -0.0293406 -0.0248224)
(0.97358 -0.000898692 -0.0222528)
(0.993459 -0.00551448 -0.00970931)
(0.99112 0.0170071 -0.035814)
(0.942758 0.00766508 0.0116221)
(0.843133 -0.0185213 0.0828069)
(0.809055 0.00680662 0.0511394)
(0.878421 -0.0151807 0.0268102)
(0.960655 -0.0762056 0.0480715)
(1.03304 -0.0530875 0.0168305)
(1.00465 0.00070289 0.00346909)
(0.997396 0.000354087 0.0290633)
(1.04995 -0.0227245 0.0092633)
(0.98967 -0.0247742 0.00158793)
(0.928879 -0.000966921 0.0235205)
(1.00593 0.0102812 -0.0326714)
(1.04208 -0.00631902 -0.102063)
(0.972528 -0.0280927 -0.0834998)
(0.929474 -0.0295703 -0.0441682)
(1.00114 -0.0234409 -0.0585067)
(1.08882 -0.0123112 -0.0431977)
(1.00893 0.00970702 0.0290705)
(0.880936 0.0361589 0.0562701)
(0.84311 0.0563803 0.00578259)
(0.854174 0.0479115 -0.0749402)
(0.853987 0.0374695 -0.131494)
(0.869212 0.0256599 -0.149442)
(0.871024 -0.00676526 -0.131473)
(0.874917 -0.0318432 -0.0787833)
(0.887162 -0.0414783 -0.0293137)
(0.855816 -0.0368171 0.000137675)
(0.825205 -0.0182364 0.00088227)
(0.848543 -0.0146673 -0.0238469)
(0.858755 0.00417435 -0.0648823)
(0.858625 0.034317 -0.0865001)
(0.902693 0.00770127 -0.0467926)
(0.905827 -0.0394066 -0.0164387)
(0.934794 -0.0303389 -0.0120197)
(1.00388 -0.0271666 0.00151618)
(1.00207 -0.0528661 0.00694167)
(0.966018 -0.0400845 -0.00647534)
(0.987628 -0.0127778 -0.0148102)
(0.996789 -0.0055413 -0.0115097)
(0.983128 0.0176356 -0.0308275)
(0.945057 0.00956691 0.0176188)
(0.858855 -0.0178125 0.0998603)
(0.836071 0.00345927 0.0798386)
(0.926074 -0.00831186 0.0378523)
(0.979152 -0.0686865 0.0632163)
(1.01305 -0.05641 0.0423257)
(0.99932 0.00545971 0.0120544)
(1.01255 0.0122839 0.0274644)
(1.06692 -0.0144186 0.0197982)
(0.986919 -0.0201066 0.00315908)
(0.906953 -0.00645414 0.0109067)
(0.995134 -0.00255137 -0.0246822)
(1.04004 -0.0155661 -0.0826612)
(0.970924 -0.0212205 -0.0743743)
(0.948599 -0.0193138 -0.0374135)
(1.00759 -0.0281166 -0.0480978)
(1.06286 -0.0242133 -0.0408612)
(1.01575 0.005443 0.0268656)
(0.896695 0.0380295 0.069323)
(0.83497 0.0561284 0.0293291)
(0.864521 0.0428784 -0.0426875)
(0.900998 0.0233799 -0.0937207)
(0.919004 0.018663 -0.115673)
(0.916213 -0.00145742 -0.118212)
(0.904629 -0.0293092 -0.0861053)
(0.898137 -0.0416256 -0.0342721)
(0.864135 -0.0339794 0.00204998)
(0.826213 -0.0122379 0.00181912)
(0.84588 -0.00774212 -0.0231128)
(0.870032 0.00129241 -0.0634678)
(0.87942 0.0253757 -0.085638)
(0.919825 0.00845766 -0.046448)
(0.922802 -0.0288823 -0.0022547)
(0.943224 -0.0252909 0.00238571)
(1.01005 -0.0244344 0.00118157)
(1.01059 -0.051575 0.00915983)
(0.969662 -0.0522247 0.00575009)
(0.993118 -0.0241038 -0.010337)
(1.00514 -0.00114086 -0.0172573)
(0.983573 0.0210035 -0.0251979)
(0.958318 0.0113303 0.0244769)
(0.894734 -0.0137192 0.106393)
(0.867289 -0.00319889 0.100001)
(0.956337 -0.00751532 0.0437612)
(0.998926 -0.0531901 0.0601116)
(0.999353 -0.0542553 0.0598936)
(1.00578 0.000990123 0.0131991)
(1.01843 0.0125974 0.0168635)
(1.04672 -0.0106894 0.0260607)
(0.990438 -0.0134639 0.00534592)
(0.910837 -0.0113122 -0.00861238)
(0.963869 -0.021754 -0.0289836)
(1.0119 -0.0250191 -0.0606748)
(0.951644 -0.0140339 -0.0546219)
(0.93398 -0.00960955 -0.0260071)
(1.01449 -0.0216163 -0.0423338)
(1.05135 -0.0207527 -0.0481229)
(0.984084 0.0113578 0.0108971)
(0.875486 0.0458794 0.0640711)
(0.813391 0.0597906 0.050802)
(0.849048 0.0411424 -0.0045286)
(0.911559 0.0135707 -0.0534357)
(0.947882 0.0130167 -0.0794714)
(0.951388 0.00806199 -0.0919242)
(0.930933 -0.0177985 -0.084671)
(0.918862 -0.0384957 -0.0488367)
(0.882761 -0.0341694 -0.00476468)
(0.833302 -0.00859198 0.00428143)
(0.845028 -0.000127355 -0.0119647)
(0.882624 0.000787899 -0.0437598)
(0.905368 0.0164077 -0.0699765)
(0.947121 0.0033231 -0.0467376)
(0.945103 -0.025991 -0.0043901)
(0.949601 -0.0219661 0.0101017)
(1.01284 -0.0222555 0.00434055)
(1.01678 -0.0508644 0.0129557)
(0.982664 -0.0552273 0.0126523)
(0.987591 -0.0292648 -0.00733621)
(1.00205 0.0028516 -0.0210515)
(0.996046 0.028152 -0.021449)
(0.982665 0.0183891 0.0159401)
(0.933133 -0.00806465 0.0831586)
(0.8917 -0.00774772 0.100549)
(0.944884 -0.00865125 0.0525807)
(0.999687 -0.0393179 0.0492101)
(1.01458 -0.0504016 0.0652724)
(1.02132 -0.0127167 0.0237818)
(1.0111 0.00233624 0.0137428)
(1.00751 -0.0121142 0.0278586)
(0.982024 -0.0106859 0.0142173)
(0.928609 -0.011947 -0.0131451)
(0.94253 -0.0336462 -0.0280296)
(0.976609 -0.0319051 -0.0393972)
(0.931642 -0.00712992 -0.0388273)
(0.908333 -0.00345307 -0.0173412)
(0.99631 -0.0216974 -0.0261171)
(1.04866 -0.0151061 -0.0483472)
(0.971736 0.0238887 -0.0148893)
(0.869462 0.0531239 0.0428576)
(0.821889 0.0581572 0.0620299)
(0.857331 0.0380817 0.022156)
(0.913051 0.00762411 -0.029699)
(0.946573 0.0081953 -0.0569963)
(0.950412 0.0167957 -0.0668284)
(0.931286 -0.000983716 -0.0705546)
(0.930797 -0.0282385 -0.0585968)
(0.90949 -0.0354566 -0.0254483)
(0.855965 -0.0153272 -0.00302025)
(0.855382 -0.0026876 0.00168753)
(0.893706 0.00156966 -0.00959164)
(0.926632 0.0122688 -0.0303291)
(0.974748 -0.000651724 -0.0251356)
(0.974666 -0.0250969 -0.00413264)
(0.952295 -0.0241023 0.0108373)
(0.996147 -0.0258377 0.0106661)
(1.0207 -0.0481212 0.0181421)
(1.02067 -0.0493402 0.00939461)
(1.00458 -0.0278198 -0.00758314)
(0.998077 0.000586153 -0.0209873)
(1.00251 0.0300618 -0.021871)
(1.00353 0.0307611 0.00154376)
(0.96223 0.00593861 0.0518465)
(0.909512 -0.00635631 0.0873526)
(0.922106 -0.0124101 0.0599586)
(0.980569 -0.0350649 0.036877)
(1.03372 -0.0468213 0.0546447)
(1.04259 -0.0170496 0.0390682)
(1.00746 -0.00100755 0.0186814)
(0.981128 -0.0126666 0.0230332)
(0.962132 -0.00931049 0.0251241)
(0.940569 -0.0086046 0.00200275)
(0.947143 -0.0335036 -0.0206731)
(0.958532 -0.03194 -0.026002)
(0.942633 0.00037662 -0.0269251)
(0.946943 0.00505555 -0.0142081)
(1.00491 -0.0197772 -0.0123457)
(1.02939 -0.0126494 -0.0327909)
(0.975007 0.0297756 -0.0180414)
(0.912096 0.0516026 0.0280529)
(0.880274 0.0514583 0.0502345)
(0.895641 0.0416684 0.0212871)
(0.922635 0.0202568 -0.0229314)
(0.937042 0.0151073 -0.0429389)
(0.940874 0.0231216 -0.0444761)
(0.936216 0.0120552 -0.052825)
(0.954877 -0.0152435 -0.0569727)
(0.958063 -0.0302082 -0.0378091)
(0.911641 -0.021483 -0.0180264)
(0.89142 -0.0123302 -0.00416716)
(0.912362 -0.00477694 0.00562329)
(0.93442 0.00739319 0.0018758)
(0.975583 -0.00137563 -0.000788608)
(0.985649 -0.0192117 -0.00117234)
(0.951509 -0.0195614 0.0104337)
(0.970268 -0.025932 0.021378)
(1.02997 -0.0446594 0.0132887)
(1.04247 -0.045266 1.58619e-05)
(1.01519 -0.0219959 -0.00704312)
(0.986446 0.0028346 -0.0153039)
(0.987857 0.0265099 -0.0199752)
(0.995712 0.032495 -0.00574907)
(0.970191 0.0151184 0.0345189)
(0.933918 -0.000111465 0.0755358)
(0.930793 -0.00964586 0.0635433)
(0.962398 -0.0298489 0.0330287)
(1.0212 -0.0462087 0.048262)
(1.06024 -0.0224634 0.0557254)
(1.02198 -0.000908609 0.0329193)
(0.968362 -0.00744823 0.0203232)
(0.941438 -0.00864492 0.0297729)
(0.947737 -0.0110117 0.0237593)
(0.97392 -0.0338045 -0.0044721)
(0.967126 -0.0381341 -0.024719)
(0.954584 -0.012562 -0.0293944)
(0.993476 -0.00479557 -0.0117292)
(1.04664 -0.0218109 -0.0038326)
(1.04198 -0.0160385 -0.025463)
(0.99697 0.0192467 -0.0181084)
(0.959982 0.0433295 0.023241)
(0.924843 0.0488844 0.0464229)
(0.908205 0.0463316 0.0246977)
(0.914638 0.0373234 -0.0159727)
(0.928992 0.0323435 -0.0393743)
(0.936011 0.029814 -0.0422674)
(0.938273 0.0147033 -0.0518189)
(0.969279 -0.0105009 -0.060112)
(1.00056 -0.0270386 -0.0468288)
(0.979198 -0.0255265 -0.034449)
(0.948187 -0.0202308 -0.0230738)
(0.949166 -0.0118288 -0.00610818)
(0.957818 0.000219698 -0.00134806)
(0.97504 -0.00243693 -0.00170982)
(0.979041 -0.0110997 -0.00765571)
(0.964008 -0.00953494 0.00114053)
(0.983987 -0.02003 0.0192431)
(1.0431 -0.0372755 0.00744287)
(1.03962 -0.0411631 -0.0120438)
(1.00055 -0.0161745 -0.00841497)
(0.96306 0.00742841 -0.00103391)
(0.958688 0.025377 -0.00716191)
(0.966999 0.0315244 -0.00305701)
(0.958771 0.0201248 0.023829)
(0.939836 0.00777667 0.0606314)
(0.942652 -0.00440761 0.0666726)
(0.976545 -0.0227218 0.0417871)
(1.0055 -0.0373424 0.0493829)
(1.02478 -0.0242538 0.0671064)
(1.01463 -0.00394065 0.0536563)
(0.995384 -0.0020073 0.0364889)
(0.987673 -0.00512662 0.0351573)
(0.993699 -0.0143252 0.0304713)
(1.01303 -0.0313288 0.00857491)
(0.997638 -0.0363153 -0.0234204)
(0.953622 -0.0231295 -0.0364879)
(0.957184 -0.0172166 0.000479664)
(0.996917 -0.0240599 0.0311903)
(1.00833 -0.011836 0.00702617)
(0.987226 0.0190459 -0.00620665)
(0.956908 0.0404468 0.0225417)
(0.915846 0.048651 0.0449097)
(0.887175 0.0496859 0.0316891)
(0.884561 0.0476549 0.00309515)
(0.909109 0.0475173 -0.0235568)
(0.934923 0.0421524 -0.0440098)
(0.943464 0.0239143 -0.0657042)
(0.967371 -0.000390594 -0.0760294)
(1.01125 -0.0203203 -0.0610679)
(1.03159 -0.0284782 -0.0506416)
(1.01303 -0.0251343 -0.0372864)
(0.992289 -0.0133785 -0.0178214)
(0.985778 -0.00217256 -0.0165514)
(0.99009 -0.00428567 -0.0152158)
(0.984266 -0.0114582 -0.0136901)
(0.976924 -0.00934687 -0.00449078)
(1.00601 -0.0147335 0.0153182)
(1.04972 -0.0272675 -0.00166011)
(1.04207 -0.0284867 -0.0251424)
(0.987167 -0.00303093 -0.020736)
(0.939878 0.00990441 0.00471052)
(0.934228 0.0108899 0.00949592)
(0.944209 0.0164851 0.00539712)
(0.954035 0.019049 0.0157553)
(0.958361 0.0176585 0.0431966)
(0.955084 0.00561362 0.0687282)
(0.973062 -0.0130011 0.0595681)
(0.990499 -0.022783 0.0500327)
(1.00548 -0.0211738 0.0582119)
(1.03036 -0.0192142 0.0561781)
(1.0565 -0.0169813 0.0511639)
(1.08362 -0.0148554 0.0463982)
(1.09135 -0.0214345 0.0304897)
(1.06618 -0.0226675 0.00852203)
(1.0198 -0.00899087 -0.013669)
(0.963095 -0.00152576 -0.0226692)
(0.93211 -0.0134013 0.0138883)
(0.93119 -0.0274394 0.0591789)
(0.936757 -0.0144865 0.0525746)
(0.946713 0.0160734 0.0224889)
(0.940197 0.034886 0.0148689)
(0.909458 0.0399085 0.0183104)
(0.888949 0.038049 0.0120411)
(0.883681 0.0395501 0.00802111)
(0.909647 0.045818 0.0029329)
(0.946687 0.0452477 -0.0203697)
(0.95591 0.0306171 -0.0594062)
(0.967531 0.00984168 -0.0838202)
(1.00713 -0.0100505 -0.0705269)
(1.04853 -0.0286223 -0.0550411)
(1.05436 -0.032963 -0.0450467)
(1.03231 -0.0191151 -0.0326258)
(1.01632 -0.00605219 -0.0352379)
(1.01481 -0.0062256 -0.0314847)
(1.00637 -0.0113074 -0.0179445)
(0.993793 -0.00843729 -0.00548569)
(1.0143 -0.010165 0.00764702)
(1.04627 -0.0196775 -0.00589852)
(1.04647 -0.0178259 -0.0262848)
(1.0089 0.00320155 -0.0293227)
(0.975393 0.00906461 -0.000471622)
(0.96515 -0.000463506 0.0190403)
(0.95926 0.0035005 0.0158212)
(0.96718 0.0136782 0.0106558)
(0.982676 0.0231001 0.0184903)
(0.979226 0.0204265 0.0507832)
(0.983001 -0.00221458 0.0654148)
(0.998505 -0.0227783 0.051813)
(1.01771 -0.0337491 0.0470121)
(1.05676 -0.0444614 0.0498215)
(1.10252 -0.0420672 0.0519704)
(1.13159 -0.0237833 0.0497957)
(1.12411 -0.0131035 0.0269347)
(1.07254 -0.00938646 -0.00629816)
(1.01704 -0.00162421 -0.0221212)
(0.98481 -9.60299e-05 -0.0176196)
(0.955933 -0.0129087 0.01123)
(0.92762 -0.0262551 0.0490457)
(0.914276 -0.0164881 0.0597326)
(0.927801 0.00645775 0.0422422)
(0.941622 0.0152146 0.0233011)
(0.933558 0.0153837 0.0116219)
(0.924669 0.0184663 -0.00159898)
(0.921442 0.0253183 -0.00797084)
(0.938795 0.0327818 -0.00249588)
(0.967752 0.0350429 -0.00855814)
(0.978064 0.0249282 -0.0372624)
(0.9817 0.00821967 -0.0677722)
(1.00205 -0.00695219 -0.0658323)
(1.03527 -0.0255461 -0.0485442)
(1.05939 -0.039809 -0.0434434)
(1.06834 -0.0326815 -0.0422311)
(1.06907 -0.0156545 -0.044867)
(1.06362 -0.0107422 -0.0387539)
(1.04884 -0.0165764 -0.0207786)
(1.02564 -0.0158725 -0.00684084)
(1.02432 -0.0128142 0.000608383)
(1.02523 -0.000706516 -0.0169914)
(1.03049 0.00554937 -0.0200733)
(1.01769 0.0163159 -0.0287161)
(0.992954 0.016975 -0.0160566)
(0.980432 0.00169039 0.00873885)
(0.971155 -0.00934749 0.0186885)
(0.975304 -0.00868024 0.0166055)
(0.993069 0.0081452 0.00760306)
(0.997183 0.0231076 0.0215703)
(1.01472 0.0110475 0.048593)
(1.04705 -0.0108718 0.0498464)
(1.05905 -0.0258932 0.0404736)
(1.05693 -0.0436312 0.0410464)
(1.05722 -0.0515001 0.0482614)
(1.0694 -0.0370445 0.0535589)
(1.08752 -0.0143902 0.0367318)
(1.07776 0.0136984 -0.00394123)
(1.04146 0.0324384 -0.0257028)
(1.0115 0.0260718 -0.0141383)
(0.973707 0.00663303 0.0149189)
(0.934125 -0.0123988 0.0433509)
(0.916339 -0.0183733 0.0570697)
(0.930959 -0.0114883 0.0565223)
(0.962403 -0.0102621 0.0456145)
(0.979543 -0.0126525 0.0335282)
(0.98696 -0.00738595 0.0167286)
(0.990718 0.00127217 -0.00209114)
(0.994141 0.00705295 -0.00408821)
(0.993374 0.0128991 -0.00355051)