/*--------------------------------*- C++ -*----------------------------------*\
  =========                 |
  \\      /  F ield         | OpenFOAM: The Open Source CFD Toolbox
   \\    /   O peration     | Website:  https://openfoam.org
    \\  /    A nd           | Version:  10
     \\/     M anipulation  |
\*---------------------------------------------------------------------------*/
FoamFile
{
    format      ascii;
    class       volVectorField;
    location    "47.5";
    object      U;
}
// * * * * * * * * * * * * * * * * * * * * * * * * * * * * * * * * * * * * * //

dimensions      [0 1 -1 0 0 0 0];

internalField   nonuniform List<vector> 
25600
(
(1.14695 1.43253e-05 3.76865e-06)
(1.14696 2.91595e-06 -3.01647e-06)
(1.14694 8.95516e-07 2.84498e-06)
(1.14696 -2.12167e-06 -8.07294e-07)
(1.14695 9.23194e-07 -4.19022e-07)
(1.14694 -5.4064e-06 2.68233e-06)
(1.14697 -3.12495e-06 -3.00475e-06)
(1.14695 1.95657e-06 3.84096e-06)
(1.14696 -6.51384e-06 -2.83429e-06)
(1.14696 6.11399e-06 2.65529e-06)
(1.14695 1.38248e-06 -1.19694e-06)
(1.14696 -3.40318e-06 1.01196e-06)
(1.14695 4.57029e-06 3.59001e-07)
(1.14696 -1.09888e-06 -5.79053e-07)
(1.14695 -1.612e-06 1.90007e-06)
(1.14695 7.35504e-06 -1.49961e-06)
(1.14696 -1.67321e-06 1.68441e-06)
(1.14694 2.03725e-06 -3.28988e-07)
(1.14695 2.73438e-06 3.98065e-07)
(1.14695 -7.68932e-06 2.46746e-07)
(1.14695 4.60477e-06 6.51972e-07)
(1.14695 -4.38894e-06 -4.39664e-07)
(1.14695 3.55569e-06 1.23524e-06)
(1.14695 6.26723e-06 -5.83767e-07)
(1.14694 -3.70437e-06 8.81432e-07)
(1.14695 4.95579e-06 -2.48243e-07)
(1.14695 -7.98083e-06 1.30845e-06)
(1.14695 -3.2349e-06 -1.41182e-06)
(1.14695 5.15285e-07 2.07448e-06)
(1.14695 -3.09328e-06 -6.85176e-07)
(1.14696 7.63399e-06 -3.76929e-07)
(1.14695 -3.58418e-06 2.80172e-06)
(1.14695 -9.98232e-07 -3.68541e-06)
(1.14696 -2.0211e-06 4.69817e-06)
(1.14695 -8.01725e-06 -3.35791e-06)
(1.14696 3.73051e-06 2.0928e-06)
(1.14696 -1.2778e-06 5.55906e-07)
(1.14695 1.30246e-06 -1.56021e-06)
(1.14696 -5.31578e-06 3.04726e-06)
(1.14697 1.89047e-07 -2.96322e-06)
(1.14695 7.97246e-06 2.30863e-06)
(1.14696 -5.93353e-07 -1.91892e-06)
(1.14695 7.4865e-07 2.45411e-06)
(1.14696 1.21032e-07 -1.08983e-06)
(1.14696 -2.66559e-07 7.14524e-07)
(1.14694 -1.96983e-06 1.00694e-06)
(1.14696 -5.66831e-07 -9.15038e-07)
(1.14694 8.73224e-07 1.79128e-06)
(1.14695 -3.60805e-06 -1.09936e-06)
(1.14696 4.27966e-06 1.89139e-06)
(1.14694 -9.51953e-07 -1.38445e-06)
(1.14696 -9.70997e-07 2.15461e-06)
(1.14695 2.69702e-06 -1.05873e-06)
(1.14695 -9.99621e-07 8.35116e-07)
(1.14695 -9.74164e-07 8.65499e-07)
(1.14695 4.55834e-06 -7.00045e-07)
(1.14696 -2.49866e-06 1.13485e-06)
(1.14695 1.45963e-06 2.82227e-07)
(1.14695 2.90646e-06 -1.45843e-07)
(1.14695 -6.94763e-06 6.77899e-07)
(1.14695 7.70951e-06 8.4005e-07)
(1.14695 -7.22083e-06 -1.35247e-06)
(1.14695 4.82547e-06 3.0002e-06)
(1.14695 2.59812e-06 -2.7288e-06)
(1.14695 -5.24812e-06 2.9923e-06)
(1.14695 7.80462e-06 -1.52507e-06)
(1.14695 -8.30354e-06 1.33106e-06)
(1.14696 2.34173e-06 4.09488e-08)
(1.14695 -2.44745e-07 -1.38005e-07)
(1.14695 -3.19893e-06 1.5158e-06)
(1.14696 6.5415e-06 -1.46597e-06)
(1.14694 -5.37473e-06 2.64382e-06)
(1.14696 2.50039e-06 -2.42109e-06)
(1.14695 -7.61485e-07 3.16888e-06)
(1.14695 -5.53232e-06 -1.97766e-06)
(1.14696 5.81823e-06 1.57903e-06)
(1.14695 -4.57195e-06 2.15594e-07)
(1.14695 2.53534e-06 -3.49024e-07)
(1.14695 -8.3873e-07 1.45356e-06)
(1.14695 -2.34065e-06 -1.18496e-06)
(1.14695 7.23411e-06 -3.11605e-07)
(1.14696 -2.04473e-06 3.44413e-07)
(1.14695 2.33814e-06 1.44094e-06)
(1.14695 -5.01666e-07 -1.26919e-06)
(1.14695 3.86571e-07 2.41524e-06)
(1.14694 -2.12056e-06 -1.5475e-06)
(1.14696 7.39576e-07 2.30306e-06)
(1.14694 -3.27172e-07 -1.11068e-06)
(1.14695 -2.39583e-06 1.1821e-06)
(1.14696 4.1797e-06 9.32382e-07)
(1.14694 -2.36673e-06 -1.47391e-06)
(1.14696 9.95667e-07 3.193e-06)
(1.14694 1.69232e-06 -2.26335e-06)
(1.14695 -9.41069e-07 2.09338e-06)
(1.14695 1.93916e-07 -6.33688e-09)
(1.14695 3.28965e-06 1.65141e-07)
(1.14695 -1.97462e-06 3.84445e-07)
(1.14695 1.53117e-06 1.32574e-06)
(1.14695 2.71359e-06 -1.16695e-06)
(1.14695 -6.44985e-06 1.69078e-06)
(1.14695 8.55988e-06 5.33962e-07)
(1.14695 -8.27551e-06 -1.79173e-06)
(1.14695 6.27511e-06 4.49859e-06)
(1.14695 7.11772e-07 -4.64368e-06)
(1.14696 -4.37347e-06 5.09675e-06)
(1.14695 7.9545e-06 -2.77426e-06)
(1.14695 -9.02796e-06 1.40109e-06)
(1.14696 4.88776e-06 1.63517e-06)
(1.14694 -2.46279e-06 -2.55332e-06)
(1.14695 -1.54764e-06 4.01279e-06)
(1.14696 5.52336e-06 -2.84068e-06)
(1.14694 -6.2977e-06 2.69579e-06)
(1.14696 4.59468e-06 -9.54026e-07)
(1.14695 -2.25647e-06 1.03629e-06)
(1.14695 -4.36077e-06 3.51924e-07)
(1.14695 6.77871e-06 8.57869e-08)
(1.14695 -7.24074e-06 6.7349e-07)
(1.14696 5.45641e-06 7.08533e-07)
(1.14695 -1.90702e-06 -5.1306e-07)
(1.14695 -1.47462e-06 1.55646e-06)
(1.14695 5.80147e-06 -3.04392e-06)
(1.14696 -3.852e-06 2.72563e-06)
(1.14695 3.96024e-06 4.36039e-07)
(1.14695 -1.8183e-06 -1.50127e-06)
(1.14695 1.78339e-06 4.27286e-06)
(1.14694 -2.19178e-06 -4.16796e-06)
(1.14696 2.02192e-06 5.52127e-06)
(1.14694 -7.71646e-07 -3.84675e-06)
(1.14696 -1.50337e-06 3.42353e-06)
(1.14695 4.20942e-06 -6.87971e-08)
(1.14694 -3.65691e-06 -1.16432e-06)
(1.14696 2.63108e-06 3.728e-06)
(1.14694 6.46297e-07 -2.76278e-06)
(1.14695 -1.20229e-06 2.80762e-06)
(1.14695 1.47661e-06 -4.94402e-07)
(1.14695 1.36982e-06 9.94252e-07)
(1.14695 -1.46499e-06 -4.1619e-07)
(1.14695 2.02266e-06 2.59726e-06)
(1.14695 1.07417e-06 -2.40976e-06)
(1.14696 -3.91837e-06 3.07144e-06)
(1.14695 7.18208e-06 -1.51932e-07)
(1.14695 -7.64467e-06 -1.70288e-06)
(1.14696 6.79118e-06 5.47985e-06)
(1.14694 -1.39427e-06 -6.04652e-06)
(1.14696 -2.44542e-06 6.86569e-06)
(1.14695 6.76332e-06 -3.86175e-06)
(1.14695 -7.94766e-06 1.633e-06)
(1.14696 6.50152e-06 2.87586e-06)
(1.14694 -3.57354e-06 -4.42909e-06)
(1.14696 1.08221e-08 6.16312e-06)
(1.14695 4.55222e-06 -4.02375e-06)
(1.14694 -6.23552e-06 2.88766e-06)
(1.14696 6.01537e-06 3.12496e-07)
(1.14694 -2.6591e-06 -8.42499e-07)
(1.14695 -2.83305e-06 2.59827e-06)
(1.14695 7.24009e-06 -1.36242e-06)
(1.14695 -8.40937e-06 1.20419e-06)
(1.14696 7.29734e-06 1.75413e-06)
(1.14695 -2.77912e-06 -2.50322e-06)
(1.14695 -9.26923e-07 4.47564e-06)
(1.14695 4.91358e-06 -5.06989e-06)
(1.14695 -4.16116e-06 4.50995e-06)
(1.14695 5.28936e-06 -1.10201e-07)
(1.14695 -3.13126e-06 -1.76424e-06)
(1.14695 3.2059e-06 5.8243e-06)
(1.14694 -2.68887e-06 -5.98593e-06)
(1.14696 2.65228e-06 7.72468e-06)
(1.14694 -9.06161e-07 -5.4227e-06)
(1.14696 -1.05781e-06 4.73981e-06)
(1.14695 4.32017e-06 -5.6696e-07)
(1.14694 -3.99194e-06 -7.43196e-07)
(1.14696 3.3639e-06 3.7476e-06)
(1.14694 7.71063e-07 -2.50977e-06)
(1.14695 -2.09239e-06 2.89325e-06)
(1.14695 3.6804e-06 -4.86808e-07)
(1.14695 -7.45186e-07 1.60187e-06)
(1.14696 -1.40261e-07 -1.15055e-06)
(1.14695 2.67816e-06 3.92444e-06)
(1.14695 -1.0094e-06 -3.57996e-06)
(1.14696 -3.80729e-07 4.42124e-06)
(1.14695 4.08536e-06 -8.14176e-07)
(1.14695 -5.19034e-06 -1.39886e-06)
(1.14696 6.17162e-06 6.12763e-06)
(1.14694 -2.2598e-06 -6.92056e-06)
(1.14696 -5.65505e-07 8.14223e-06)
(1.14695 5.21813e-06 -4.54404e-06)
(1.14695 -6.85026e-06 1.86496e-06)
(1.14696 6.9027e-06 3.76424e-06)
(1.14694 -4.09489e-06 -5.6324e-06)
(1.14696 7.25278e-07 7.71838e-06)
(1.14695 4.47464e-06 -4.78786e-06)
(1.14694 -6.60803e-06 3.07309e-06)
(1.14696 7.1379e-06 1.35235e-06)
(1.14694 -3.48576e-06 -2.2732e-06)
(1.14696 -1.68456e-06 4.49201e-06)
(1.14695 7.05713e-06 -2.50446e-06)
(1.14695 -8.76275e-06 1.71409e-06)
(1.14696 8.67808e-06 2.64919e-06)
(1.14694 -4.07308e-06 -4.02716e-06)
(1.14696 6.16992e-07 6.78123e-06)
(1.14694 3.31574e-06 -6.04142e-06)
(1.14695 -3.4775e-06 5.30411e-06)
(1.14695 5.4752e-06 1.58583e-07)
(1.14695 -3.61577e-06 -2.30418e-06)
(1.14695 4.15892e-06 7.09729e-06)
(1.14694 -2.68878e-06 -6.90324e-06)
(1.14696 2.8478e-06 8.6834e-06)
(1.14694 -2.89804e-07 -5.5555e-06)
(1.14696 -1.22558e-06 4.92525e-06)
(1.14695 4.89745e-06 -3.18745e-07)
(1.14694 -4.45075e-06 -4.27131e-07)
(1.14697 3.98078e-06 3.47959e-06)
(1.14694 1.04121e-06 -1.66946e-06)
(1.14695 -3.27521e-06 2.47942e-06)
(1.14695 6.18049e-06 -1.10333e-07)
(1.14694 -3.39194e-06 2.14302e-06)
(1.14696 1.68908e-06 -1.86465e-06)
(1.14695 2.91535e-06 5.33101e-06)
(1.14695 -2.98439e-06 -4.71737e-06)
(1.14696 3.2762e-06 5.6717e-06)
(1.14694 6.97256e-07 -1.29267e-06)
(1.14695 -2.33617e-06 -1.12058e-06)
(1.14696 5.20529e-06 6.66652e-06)
(1.14694 -2.72763e-06 -7.41417e-06)
(1.14696 1.1257e-06 9.00745e-06)
(1.14695 3.95108e-06 -4.81099e-06)
(1.14695 -5.64517e-06 2.02358e-06)
(1.14696 7.14938e-06 4.44411e-06)
(1.14694 -3.89214e-06 -6.25515e-06)
(1.14696 7.85674e-07 8.64497e-06)
(1.14695 5.35197e-06 -5.02503e-06)
(1.14694 -7.42883e-06 3.07825e-06)
(1.14696 8.71211e-06 2.30735e-06)
(1.14694 -4.39799e-06 -3.30786e-06)
(1.14696 -2.42513e-08 5.90774e-06)
(1.14695 6.27675e-06 -3.15993e-06)
(1.14695 -8.03446e-06 2.00688e-06)
(1.14696 9.13335e-06 3.49016e-06)
(1.14694 -4.89599e-06 -5.06551e-06)
(1.14696 2.18683e-06 8.37292e-06)
(1.14693 2.04136e-06 -6.0566e-06)
(1.14695 -2.23421e-06 5.19747e-06)
(1.14694 5.3104e-06 1.16124e-06)
(1.14694 -3.67329e-06 -3.05565e-06)
(1.14695 4.97787e-06 8.10125e-06)
(1.14693 -2.73478e-06 -6.94233e-06)
(1.14696 2.94542e-06 8.475e-06)
(1.14693 5.93859e-07 -4.38288e-06)
(1.14695 -1.82621e-06 4.04044e-06)
(1.14694 6.05269e-06 6.35275e-07)
(1.14693 -5.07367e-06 -2.27934e-07)
(1.14696 4.71933e-06 2.94788e-06)
(1.14693 1.54059e-06 -2.62902e-07)
(1.14695 -4.4653e-06 1.54524e-06)
(1.14695 8.81711e-06 7.25337e-07)
(1.14693 -5.78972e-06 2.45351e-06)
(1.14695 3.55154e-06 -2.42949e-06)
(1.14694 3.32169e-06 6.67308e-06)
(1.14694 -4.82902e-06 -5.68147e-06)
(1.14695 6.82242e-06 6.79784e-06)
(1.14693 -2.395e-06 -1.58941e-06)
(1.14694 3.63108e-07 -8.5153e-07)
(1.14695 4.39059e-06 7.13292e-06)
(1.14693 -2.80687e-06 -7.61881e-06)
(1.14696 2.28451e-06 9.56164e-06)
(1.14694 3.43014e-06 -4.7332e-06)
(1.14694 -5.11932e-06 2.06504e-06)
(1.14695 7.53695e-06 5.02049e-06)
(1.14693 -3.47446e-06 -6.50377e-06)
(1.14695 1.95012e-07 9.19582e-06)
(1.14694 7.03703e-06 -4.8931e-06)
(1.14694 -8.87863e-06 3.00404e-06)
(1.14696 1.05451e-05 3.1714e-06)
(1.14693 -5.46666e-06 -3.9491e-06)
(1.14696 1.51538e-06 6.89118e-06)
(1.14694 5.36649e-06 -3.31591e-06)
(1.14694 -6.81128e-06 2.0647e-06)
(1.14695 8.97548e-06 4.30004e-06)
(1.14693 -5.01691e-06 -5.62716e-06)
(1.14695 3.53489e-06 9.23603e-06)
(1.14681 9.09704e-07 -5.28564e-06)
(1.14682 -8.07051e-07 4.36085e-06)
(1.14682 4.90457e-06 2.80326e-06)
(1.14682 -3.46875e-06 -3.98739e-06)
(1.14682 5.78145e-06 8.87142e-06)
(1.14681 -2.79656e-06 -6.20954e-06)
(1.14683 3.16854e-06 7.24256e-06)
(1.1468 1.61308e-06 -2.01436e-06)
(1.14683 -2.64895e-06 2.21275e-06)
(1.14682 7.56905e-06 2.24341e-06)
(1.14681 -5.86826e-06 -1.93897e-07)
(1.14684 5.48264e-06 2.30571e-06)
(1.1468 2.18239e-06 1.52434e-06)
(1.14683 -5.75911e-06 2.8456e-07)
(1.14682 1.15212e-05 1.89354e-06)
(1.14681 -8.15018e-06 2.65379e-06)
(1.14683 5.45359e-06 -2.89997e-06)
(1.14681 3.55342e-06 8.05482e-06)
(1.14681 -6.22393e-06 -6.545e-06)
(1.14683 9.76482e-06 7.78264e-06)
(1.14681 -4.7803e-06 -1.5846e-06)
(1.14682 2.56312e-06 -7.88034e-07)
(1.14682 3.84322e-06 7.79917e-06)
(1.1468 -2.59959e-06 -7.7807e-06)
(1.14683 2.91197e-06 1.00286e-05)
(1.14681 3.72492e-06 -4.42319e-06)
(1.14682 -5.15736e-06 2.02553e-06)
(1.14683 8.32588e-06 5.63816e-06)
(1.1468 -2.93795e-06 -6.51733e-06)
(1.14683 -5.65674e-07 9.5032e-06)
(1.14681 9.18229e-06 -4.43784e-06)
(1.14681 -1.04705e-05 2.7642e-06)
(1.14683 1.25094e-05 4.09527e-06)
(1.1468 -6.2004e-06 -4.36383e-06)
(1.14683 2.78437e-06 7.57392e-06)
(1.14681 4.8283e-06 -3.05537e-06)
(1.14681 -5.62981e-06 1.87463e-06)
(1.14683 8.70343e-06 5.22251e-06)
(1.1468 -4.78497e-06 -5.91037e-06)
(1.14683 4.58338e-06 9.60178e-06)
(1.14552 1.81042e-07 -4.13794e-06)
(1.14553 6.0593e-07 3.0754e-06)
(1.14552 4.56861e-06 4.97312e-06)
(1.14552 -3.13751e-06 -5.23273e-06)
(1.14553 6.68923e-06 9.76349e-06)
(1.14552 -2.95917e-06 -5.21671e-06)
(1.14554 3.58215e-06 5.52534e-06)
(1.14551 2.72413e-06 1.05592e-06)
(1.14554 -3.71707e-06 -2.3217e-07)
(1.14552 9.68036e-06 4.37041e-06)
(1.14551 -7.11937e-06 -3.37784e-07)
(1.14554 6.72737e-06 1.62258e-06)
(1.14551 2.73754e-06 3.5889e-06)
(1.14553 -6.86248e-06 -1.20571e-06)
(1.14553 1.41924e-05 3.29695e-06)
(1.14551 -1.02218e-05 2.82227e-06)
(1.14554 7.30546e-06 -3.40635e-06)
(1.14552 3.84052e-06 9.62489e-06)
(1.14552 -7.1447e-06 -7.47194e-06)
(1.14553 1.20173e-05 8.83859e-06)
(1.14551 -6.09128e-06 -1.44483e-06)
(1.14553 3.85052e-06 -8.81276e-07)
(1.14553 4.02968e-06 8.74968e-06)
(1.14551 -2.43188e-06 -8.09209e-06)
(1.14554 3.18434e-06 1.06254e-05)
(1.14551 4.83182e-06 -4.03145e-06)
(1.14553 -5.98568e-06 1.91263e-06)
(1.14553 9.76545e-06 6.41885e-06)
(1.14551 -2.64848e-06 -6.56652e-06)
(1.14554 -1.33584e-06 9.86304e-06)
(1.14552 1.16202e-05 -3.85716e-06)
(1.14552 -1.23229e-05 2.46779e-06)
(1.14554 1.46403e-05 5.18231e-06)
(1.1455 -6.82024e-06 -4.79004e-06)
(1.14554 3.78662e-06 8.27055e-06)
(1.14552 4.6985e-06 -2.62378e-06)
(1.14552 -4.63708e-06 1.5674e-06)
(1.14554 8.52799e-06 6.31465e-06)
(1.14551 -4.28059e-06 -6.1762e-06)
(1.14554 5.43944e-06 9.8551e-06)
(1.13807 1.55392e-07 -3.71081e-06)
(1.13807 1.83512e-06 1.52268e-06)
(1.13808 4.20442e-06 7.85391e-06)
(1.13807 -2.36461e-06 -7.79868e-06)
(1.13808 7.25516e-06 1.16253e-05)
(1.13807 -2.8043e-06 -4.97124e-06)
(1.13809 4.06164e-06 3.69472e-06)
(1.13806 3.6611e-06 4.55897e-06)
(1.13808 -4.34355e-06 -3.53365e-06)
(1.13808 1.14382e-05 6.90239e-06)
(1.13807 -7.93948e-06 -5.61638e-07)
(1.13809 7.8196e-06 1.85163e-07)
(1.13807 3.24142e-06 6.70998e-06)
(1.13808 -7.40359e-06 -4.038e-06)
(1.13809 1.6009e-05 5.44668e-06)
(1.13806 -1.1185e-05 2.79093e-06)
(1.13809 8.40908e-06 -4.74581e-06)
(1.13807 4.40064e-06 1.25205e-05)
(1.13808 -7.52698e-06 -1.01558e-05)
(1.13809 1.33668e-05 1.11677e-05)
(1.13806 -6.21501e-06 -2.06252e-06)
(1.13808 4.26686e-06 -1.28253e-06)
(1.13808 4.80733e-06 1.06201e-05)
(1.13806 -2.29481e-06 -9.93146e-06)
(1.13809 3.42782e-06 1.2484e-05)
(1.13806 6.11261e-06 -4.61331e-06)
(1.13808 -6.6689e-06 1.79449e-06)
(1.13808 1.11499e-05 7.72576e-06)
(1.13807 -2.27208e-06 -7.80219e-06)
(1.13808 -1.68631e-06 1.11941e-05)
(1.13808 1.3435e-05 -4.08379e-06)
(1.13806 -1.30781e-05 2.08838e-06)
(1.1381 1.57605e-05 6.77272e-06)
(1.13806 -6.39744e-06 -6.32349e-06)
(1.13809 4.12623e-06 9.77614e-06)
(1.13807 5.02053e-06 -2.82379e-06)
(1.13807 -3.53972e-06 9.58981e-07)
(1.13809 7.98922e-06 8.09011e-06)
(1.13806 -2.99647e-06 -7.73654e-06)
(1.13808 5.57113e-06 1.10536e-05)
(1.11677 1.0376e-06 -8.80859e-06)
(1.11676 2.68143e-06 3.14085e-06)
(1.11679 3.61531e-06 9.6208e-06)
(1.11676 -8.42733e-07 -1.30455e-05)
(1.11679 6.78834e-06 1.73191e-05)
(1.11676 -1.86083e-06 -9.41181e-06)
(1.11678 4.1874e-06 4.24695e-06)
(1.11677 4.21508e-06 7.55614e-06)
(1.11677 -4.0346e-06 -9.55339e-06)
(1.11678 1.185e-05 1.26638e-05)
(1.11676 -7.50111e-06 -4.17365e-06)
(1.11678 8.13883e-06 -6.62123e-07)
(1.11677 3.68972e-06 1.13948e-05)
(1.11677 -6.97267e-06 -1.17041e-05)
(1.11679 1.62866e-05 1.27841e-05)
(1.11675 -1.05891e-05 -2.33322e-06)
(1.11679 8.63633e-06 -4.26518e-06)
(1.11676 4.92143e-06 1.62013e-05)
(1.11677 -7.01168e-06 -1.75611e-05)
(1.11678 1.34339e-05 1.91683e-05)
(1.11676 -5.24226e-06 -8.96253e-06)
(1.11678 4.10128e-06 1.72099e-06)
(1.11677 5.68744e-06 1.14147e-05)
(1.11676 -2.05935e-06 -1.48661e-05)
(1.11679 3.80441e-06 1.87617e-05)
(1.11676 6.75388e-06 -1.09607e-05)
(1.11678 -6.35543e-06 5.18301e-06)
(1.11677 1.14906e-05 7.37917e-06)
(1.11677 -1.53031e-06 -1.13309e-05)
(1.11676 -1.50237e-06 1.61507e-05)
(1.11679 1.3705e-05 -9.40963e-06)
(1.11675 -1.17853e-05 4.67734e-06)
(1.1168 1.47516e-05 7.07968e-06)
(1.11675 -4.3716e-06 -1.04416e-05)
(1.11679 3.43759e-06 1.50631e-05)
(1.11677 5.5901e-06 -8.10795e-06)
(1.11676 -2.17365e-06 3.10844e-06)
(1.11679 6.65005e-06 9.05662e-06)
(1.11676 -6.89184e-07 -1.24386e-05)
(1.11678 4.56793e-06 1.66668e-05)
(1.0807 2.93411e-06 -2.05575e-05)
(1.0807 2.10326e-06 1.60438e-05)
(1.08072 3.78119e-06 -1.24669e-06)
(1.08069 1.70801e-07 -1.04336e-05)
(1.08073 5.9207e-06 2.17388e-05)
(1.08068 -5.07276e-07 -2.04956e-05)
(1.08072 3.58802e-06 1.49988e-05)
(1.0807 4.85164e-06 3.84388e-08)
(1.0807 -3.62852e-06 -1.05599e-05)
(1.08072 1.14105e-05 1.99246e-05)
(1.08069 -6.29174e-06 -1.65489e-05)
(1.08072 7.62011e-06 9.58241e-06)
(1.0807 4.07719e-06 5.76139e-06)
(1.0807 -5.99888e-06 -1.55798e-05)
(1.08072 1.51875e-05 2.33251e-05)
(1.08068 -8.87699e-06 -1.83877e-05)
(1.08073 7.99181e-06 9.79922e-06)
(1.08069 5.14453e-06 6.59283e-06)
(1.08071 -5.74893e-06 -1.78941e-05)
(1.08071 1.21929e-05 2.70875e-05)
(1.0807 -3.50582e-06 -2.42278e-05)
(1.08071 3.51504e-06 1.70931e-05)
(1.08071 6.0795e-06 -1.6268e-06)
(1.0807 -1.31051e-06 -1.05226e-05)
(1.08072 3.57006e-06 2.17613e-05)
(1.0807 7.13954e-06 -2.22857e-05)
(1.08071 -5.44689e-06 1.832e-05)
(1.08071 1.062e-05 -5.29945e-06)
(1.08071 -2.28223e-08 -5.95409e-06)
(1.0807 -1.82631e-06 1.75241e-05)
(1.08073 1.35525e-05 -1.91592e-05)
(1.08067 -9.86182e-06 1.65428e-05)
(1.08074 1.25517e-05 -4.44097e-06)
(1.08067 -1.37954e-06 -6.26784e-06)
(1.08073 1.48564e-06 1.78087e-05)
(1.0807 7.02751e-06 -1.90526e-05)
(1.0807 -1.79138e-06 1.58292e-05)
(1.08073 5.60869e-06 -2.51057e-06)
(1.08068 1.5693e-06 -8.82378e-06)
(1.08072 2.68874e-06 2.04868e-05)
(1.03322 4.34823e-06 -1.43882e-05)
(1.03324 1.14525e-06 2.0386e-05)
(1.03324 4.45014e-06 -1.67237e-05)
(1.03322 2.71883e-07 7.26161e-06)
(1.03326 5.59884e-06 6.48831e-06)
(1.03321 2.28204e-07 -1.61752e-05)
(1.03326 3.16919e-06 2.02162e-05)
(1.03322 5.13103e-06 -1.43701e-05)
(1.03325 -3.14326e-06 3.72467e-06)
(1.03324 1.06223e-05 9.67189e-06)
(1.03322 -4.99849e-06 -1.76242e-05)
(1.03326 6.8102e-06 1.90528e-05)
(1.03322 4.28294e-06 -1.10309e-05)
(1.03324 -4.80995e-06 -1.1612e-06)
(1.03325 1.33014e-05 1.45802e-05)
(1.03322 -6.52536e-06 -2.21819e-05)
(1.03326 6.57668e-06 2.25431e-05)
(1.03322 5.48183e-06 -1.40128e-05)
(1.03324 -4.41697e-06 8.51134e-07)
(1.03324 1.02419e-05 1.34249e-05)
(1.03323 -1.24481e-06 -2.29877e-05)
(1.03324 2.20831e-06 2.55759e-05)
(1.03324 6.6176e-06 -1.98828e-05)
(1.03323 -7.44354e-07 8.57874e-06)
(1.03325 2.98828e-06 4.97971e-06)
(1.03323 7.61374e-06 -1.59606e-05)
(1.03324 -4.97787e-06 2.1295e-05)
(1.03324 9.85185e-06 -1.90781e-05)
(1.03323 1.06727e-06 1.07501e-05)
(1.03323 -2.18166e-06 1.18745e-06)
(1.03325 1.32904e-05 -1.19372e-05)
(1.03321 -8.5225e-06 1.83979e-05)
(1.03328 1.08685e-05 -1.73919e-05)
(1.0332 6.75879e-07 1.01302e-05)
(1.03327 -1.61856e-07 1.80461e-06)
(1.03322 8.42504e-06 -1.25954e-05)
(1.03324 -2.31165e-06 1.92841e-05)
(1.03325 5.61267e-06 -1.74396e-05)
(1.03322 2.43475e-06 9.35833e-06)
(1.03326 1.57565e-06 3.71586e-06)
(0.977593 4.84406e-06 1.22948e-06)
(0.977615 6.14086e-07 5.52167e-06)
(0.977604 4.72511e-06 -1.10433e-05)
(0.977602 2.018e-07 1.01832e-05)
(0.977618 5.37077e-06 -6.19407e-06)
(0.977589 4.9464e-07 -1.81751e-06)
(0.977627 2.95218e-06 7.50767e-06)
(0.977586 5.03173e-06 -1.10476e-05)
(0.977621 -2.64918e-06 8.01724e-06)
(0.977602 9.60204e-06 -2.49335e-06)
(0.9776 -3.73934e-06 -6.13478e-06)
(0.977619 5.70645e-06 1.10346e-05)
(0.977594 4.59953e-06 -1.31949e-05)
(0.977611 -4.02854e-06 7.99201e-06)
(0.977612 1.14565e-05 -8.22703e-07)
(0.977593 -4.29932e-06 -9.4855e-06)
(0.977623 4.77285e-06 1.50772e-05)
(0.977593 6.14309e-06 -1.78588e-05)
(0.977612 -3.84415e-06 1.23564e-05)
(0.977609 8.71654e-06 -4.8399e-06)
(0.977601 4.65521e-07 -6.75351e-06)
(0.97761 8.05912e-07 1.37843e-05)
(0.977609 7.28244e-06 -1.88966e-05)
(0.977597 -8.49769e-07 1.56111e-05)
(0.977619 2.80022e-06 -1.02567e-05)
(0.977596 7.54933e-06 -3.16795e-07)
(0.977612 -4.59207e-06 7.54841e-06)
(0.977608 9.19869e-06 -1.41985e-05)
(0.977604 1.46733e-06 1.33487e-05)
(0.977606 -2.10931e-06 -1.0389e-05)
(0.977616 1.24828e-05 1.69356e-06)
(0.977586 -7.35546e-06 4.99429e-06)
(0.977637 9.519e-06 -1.18495e-05)
(0.977573 1.7611e-06 1.20251e-05)
(0.977637 -1.04487e-06 -9.65503e-06)
(0.977587 8.95527e-06 1.57449e-06)
(0.977612 -2.68944e-06 5.28876e-06)
(0.977613 5.67775e-06 -1.18958e-05)
(0.977592 2.5571e-06 1.21443e-05)
(0.977623 1.13927e-06 -9.25228e-06)
(0.916536 4.7989e-06 3.92924e-06)
(0.916551 3.50847e-07 -3.20965e-06)
(0.916542 4.5671e-06 -1.96301e-06)
(0.916544 1.69097e-07 1.82667e-06)
(0.916549 5.04607e-06 -3.95822e-06)
(0.916536 4.14917e-07 3.35275e-07)
(0.916558 2.91389e-06 -7.17408e-08)
(0.916529 4.55062e-06 -3.75672e-06)
(0.916559 -2.24446e-06 2.02925e-06)
(0.916537 8.6908e-06 -2.62399e-06)
(0.916545 -3.02914e-06 -2.30776e-06)
(0.91655 4.86232e-06 3.29381e-06)
(0.916538 4.67021e-06 -7.60251e-06)
(0.916548 -3.66683e-06 5.41982e-06)
(0.916548 1.01436e-05 -5.26245e-06)
(0.916535 -3.00452e-06 -1.47371e-06)
(0.916557 3.46323e-06 4.14854e-06)
(0.916534 6.47758e-06 -1.051e-05)
(0.91655 -3.72692e-06 9.33203e-06)
(0.916545 7.82557e-06 -9.87462e-06)
(0.91654 1.15722e-06 2.51305e-06)
(0.916548 7.08993e-09 9.1041e-07)
(0.916545 7.49765e-06 -8.92028e-06)
(0.916538 -1.20797e-06 9.17742e-06)
(0.916554 2.92039e-06 -1.15269e-05)
(0.916535 6.89373e-06 5.44018e-06)
(0.916551 -4.06935e-06 -2.99548e-06)
(0.916543 8.46829e-06 -4.87497e-06)
(0.916544 1.39547e-06 5.70696e-06)
(0.916543 -1.73292e-06 -9.24332e-06)
(0.916551 1.12773e-05 4.67252e-06)
(0.91653 -6.37234e-06 -3.40715e-06)
(0.916567 8.47682e-06 -3.59494e-06)
(0.916518 2.06383e-06 4.47624e-06)
(0.91657 -1.35206e-06 -8.16449e-06)
(0.916526 8.81859e-06 4.35342e-06)
(0.916555 -2.92972e-06 -3.32561e-06)
(0.916544 5.64836e-06 -3.08606e-06)
(0.916538 2.29853e-06 4.00278e-06)
(0.916554 9.60513e-07 -7.34175e-06)
(0.852232 4.44786e-06 6.69717e-07)
(0.852239 2.16457e-07 -3.50017e-06)
(0.852236 4.17194e-06 -4.41714e-08)
(0.852235 2.61284e-07 -2.5126e-06)
(0.852239 4.48153e-06 -3.54965e-07)
(0.852231 3.46183e-07 -2.82119e-06)
(0.852244 2.88653e-06 1.4944e-07)
(0.852226 3.77123e-06 -2.71685e-06)
(0.852246 -1.65032e-06 -9.71331e-07)
(0.852228 7.59662e-06 -7.53743e-07)
(0.852239 -2.54868e-06 -3.383e-06)
(0.852237 4.33155e-06 1.35537e-06)
(0.852233 4.2284e-06 -4.95646e-06)
(0.852236 -3.15157e-06 1.82762e-06)
(0.852239 8.89512e-06 -4.33892e-06)
(0.852228 -2.30237e-06 -3.79954e-07)
(0.852245 2.76724e-06 -9.10798e-07)
(0.852226 6.14741e-06 -4.82808e-06)
(0.85224 -3.44786e-06 3.11452e-06)
(0.852234 7.04532e-06 -7.42472e-06)
(0.852233 1.24011e-06 2.84388e-06)
(0.852237 -1.88239e-07 -4.31357e-06)
(0.852235 7.05985e-06 -2.62737e-06)
(0.852231 -1.35924e-06 1.6484e-06)
(0.852242 3.00582e-06 -7.33771e-06)
(0.852228 5.87468e-06 3.41741e-06)
(0.85224 -3.31277e-06 -5.76377e-06)
(0.852232 7.49119e-06 -8.37593e-07)
(0.852237 1.18406e-06 -4.61235e-07)
(0.852233 -1.16421e-06 -5.27469e-06)
(0.852241 9.69631e-06 1.81555e-06)
(0.852224 -5.30399e-06 -4.76572e-06)
(0.852252 7.48293e-06 -8.17352e-07)
(0.852216 1.8616e-06 -8.36518e-07)
(0.852256 -1.12573e-06 -4.42436e-06)
(0.852219 8.02815e-06 1.53145e-06)
(0.852247 -2.85307e-06 -4.5003e-06)
(0.852232 5.45308e-06 -2.84673e-07)
(0.852235 1.83723e-06 -1.29276e-06)
(0.85224 9.62363e-07 -3.25443e-06)
(0.786379 3.89895e-06 -1.73353e-06)
(0.78638 1.58024e-07 -2.00844e-06)
(0.786381 3.70356e-06 -1.05348e-06)
(0.786377 3.18354e-07 -2.76522e-06)
(0.786382 3.82927e-06 2.21615e-07)
(0.786376 3.59701e-07 -4.19295e-06)
(0.786384 2.66427e-06 1.15321e-06)
(0.786373 3.03993e-06 -3.8874e-06)
(0.786385 -1.10474e-06 -7.80261e-07)
(0.786373 6.39384e-06 -1.04897e-06)
(0.786382 -2.06695e-06 -3.81164e-06)
(0.786377 3.77994e-06 8.39492e-07)
(0.786378 3.6351e-06 -4.54265e-06)
(0.786377 -2.58357e-06 1.13564e-07)
(0.786381 7.58688e-06 -3.41712e-06)
(0.786371 -1.77853e-06 -1.45279e-06)
(0.786385 2.27086e-06 -2.17541e-06)
(0.786371 5.48559e-06 -2.99867e-06)
(0.786382 -3.00925e-06 -8.18947e-07)
(0.786376 6.15822e-06 -4.54754e-06)
(0.786377 1.15058e-06 2.75786e-08)
(0.786378 -1.85658e-07 -4.65814e-06)
(0.786379 6.27186e-06 -1.24658e-06)
(0.786375 -1.27791e-06 -2.4201e-06)
(0.786383 2.84172e-06 -4.06696e-06)
(0.786373 4.90749e-06 -9.35388e-08)
(0.786382 -2.58469e-06 -5.05898e-06)
(0.786376 6.38485e-06 -7.71093e-07)
(0.78638 1.07223e-06 -2.97273e-06)
(0.786376 -7.44585e-07 -3.11977e-06)
(0.786385 8.12598e-06 -1.02513e-06)
(0.78637 -4.22827e-06 -3.78733e-06)
(0.786392 6.37541e-06 -1.2021e-06)
(0.786364 1.63885e-06 -2.59272e-06)
(0.786395 -7.94676e-07 -2.49912e-06)
(0.786366 6.91674e-06 -1.04954e-06)
(0.786389 -2.47866e-06 -3.33308e-06)
(0.786375 4.96536e-06 -6.24118e-07)
(0.786381 1.41055e-06 -2.7745e-06)
(0.786381 1.01852e-06 -1.37407e-06)
(0.720274 3.29601e-06 -2.50252e-06)
(0.720272 1.50464e-07 -1.08353e-06)
(0.720275 3.18497e-06 -1.98391e-06)
(0.720269 3.24808e-07 -2.02618e-06)
(0.720276 3.19492e-06 -5.08467e-07)
(0.720268 3.76967e-07 -3.90951e-06)
(0.720276 2.32095e-06 9.40758e-07)
(0.720267 2.44037e-06 -4.44263e-06)
(0.720276 -7.13931e-07 -3.44389e-07)
(0.720267 5.25831e-06 -2.14604e-06)
(0.720273 -1.64196e-06 -3.39703e-06)
(0.720269 3.20491e-06 -8.50837e-08)
(0.720272 3.05584e-06 -4.50699e-06)
(0.720268 -2.09676e-06 -7.71514e-07)
(0.720274 6.34941e-06 -3.32632e-06)
(0.720265 -1.37741e-06 -2.48857e-06)
(0.720276 1.85152e-06 -2.40916e-06)
(0.720265 4.7358e-06 -3.19043e-06)
(0.720274 -2.55027e-06 -2.3892e-06)
(0.720269 5.25463e-06 -3.40495e-06)
(0.720271 1.01792e-06 -2.30915e-06)
(0.72027 -1.51752e-07 -3.73091e-06)
(0.720273 5.40053e-06 -2.18502e-06)
(0.720268 -1.11211e-06 -3.55899e-06)
(0.720276 2.53927e-06 -2.86317e-06)
(0.720268 4.08407e-06 -2.39353e-06)
(0.720275 -2.00635e-06 -3.83994e-06)
(0.720271 5.3432e-06 -1.8191e-06)
(0.720274 9.9372e-07 -3.35981e-06)
(0.72027 -5.01113e-07 -2.52759e-06)
(0.720278 6.75502e-06 -2.32281e-06)
(0.720265 -3.32402e-06 -2.84746e-06)
(0.720283 5.308e-06 -1.99578e-06)
(0.720262 1.46584e-06 -2.54523e-06)
(0.720285 -5.53807e-07 -2.01701e-06)
(0.720263 5.81878e-06 -2.04865e-06)
(0.720281 -2.02515e-06 -2.21692e-06)
(0.720268 4.30368e-06 -1.44191e-06)
(0.720276 1.1177e-06 -2.49277e-06)
(0.720272 1.00287e-06 -1.00469e-06)
(0.654891 2.7337e-06 -2.42153e-06)
(0.654887 1.37428e-07 -8.63432e-07)
(0.654892 2.66159e-06 -2.37564e-06)
(0.654884 2.95505e-07 -1.57343e-06)
(0.654892 2.6132e-06 -1.3139e-06)
(0.654883 3.62974e-07 -3.32795e-06)
(0.654891 1.93146e-06 7.44089e-08)
(0.654883 1.96176e-06 -4.38607e-06)
(0.65489 -4.7751e-07 -5.4765e-07)
(0.654884 4.26083e-06 -3.00694e-06)
(0.654888 -1.29217e-06 -3.04757e-06)
(0.654885 2.6415e-06 -1.21276e-06)
(0.654888 2.53714e-06 -4.42118e-06)
(0.654884 -1.70855e-06 -1.51064e-06)
(0.65489 5.23872e-06 -3.60684e-06)
(0.654881 -1.06747e-06 -3.11133e-06)
(0.654891 1.48383e-06 -2.64513e-06)
(0.654882 4.00617e-06 -3.75512e-06)
(0.654889 -2.12428e-06 -2.83327e-06)
(0.654886 4.3945e-06 -3.41817e-06)
(0.654888 8.88056e-07 -3.30285e-06)
(0.654886 -1.24263e-07 -3.15864e-06)
(0.65489 4.55989e-06 -3.20797e-06)
(0.654885 -9.23946e-07 -3.35355e-06)
(0.654892 2.18224e-06 -2.83041e-06)
(0.654885 3.3993e-06 -3.15109e-06)
(0.654891 -1.57281e-06 -3.02178e-06)
(0.654888 4.42247e-06 -2.53066e-06)
(0.654891 9.14981e-07 -2.94107e-06)
(0.654887 -3.65902e-07 -2.43771e-06)
(0.654894 5.59155e-06 -2.4816e-06)
(0.654884 -2.61397e-06 -2.28168e-06)
(0.654898 4.35694e-06 -2.24285e-06)
(0.654881 1.30613e-06 -2.0632e-06)
(0.654899 -4.17865e-07 -1.93206e-06)
(0.654882 4.83539e-06 -2.00449e-06)
(0.654896 -1.62595e-06 -1.66493e-06)
(0.654885 3.6129e-06 -1.80137e-06)
(0.654892 9.14722e-07 -1.88021e-06)
(0.654888 8.97522e-07 -1.18418e-06)
(0.590944 2.23641e-06 -2.18925e-06)
(0.59094 1.02415e-07 -1.04853e-06)
(0.590945 2.17325e-06 -2.49873e-06)
(0.590938 2.43599e-07 -1.56313e-06)
(0.590945 2.09849e-06 -1.90635e-06)
(0.590936 3.19991e-07 -3.01857e-06)
(0.590945 1.55227e-06 -8.55197e-07)
(0.590937 1.57854e-06 -4.20334e-06)
(0.590943 -3.59297e-07 -1.1269e-06)
(0.590938 3.42557e-06 -3.49721e-06)
(0.590941 -1.02091e-06 -3.01322e-06)
(0.590939 2.12201e-06 -2.1383e-06)
(0.590941 2.09616e-06 -4.31028e-06)
(0.590937 -1.40968e-06 -2.14961e-06)
(0.590944 4.2778e-06 -3.85292e-06)
(0.590936 -8.24812e-07 -3.39574e-06)
(0.590945 1.16013e-06 -2.9023e-06)
(0.590937 3.35012e-06 -4.03461e-06)
(0.590943 -1.75571e-06 -2.89676e-06)
(0.59094 3.61354e-06 -3.61387e-06)
(0.590942 7.78049e-07 -3.38926e-06)
(0.590941 -1.2023e-07 -2.97571e-06)
(0.590944 3.80151e-06 -3.51225e-06)
(0.590939 -7.50285e-07 -2.86132e-06)
(0.590946 1.81909e-06 -2.94079e-06)
(0.59094 2.82611e-06 -2.96431e-06)
(0.590945 -1.25712e-06 -2.55518e-06)
(0.590942 3.6317e-06 -2.5988e-06)
(0.590945 8.19994e-07 -2.37425e-06)
(0.590942 -2.9939e-07 -2.29721e-06)
(0.590948 4.60647e-06 -2.1326e-06)
(0.590939 -2.07576e-06 -1.90651e-06)
(0.590951 3.53455e-06 -2.06282e-06)
(0.590937 1.14164e-06 -1.63985e-06)
(0.590951 -3.51061e-07 -1.78844e-06)
(0.590938 3.97787e-06 -1.69147e-06)
(0.590948 -1.31282e-06 -1.4748e-06)
(0.59094 2.95896e-06 -1.77868e-06)
(0.590946 7.51004e-07 -1.52852e-06)
(0.590941 7.40355e-07 -1.43165e-06)
(0.528946 1.80623e-06 -2.09547e-06)
(0.528942 5.53616e-08 -1.37371e-06)
(0.528947 1.74034e-06 -2.58413e-06)
(0.52894 1.83051e-07 -1.79419e-06)
(0.528947 1.65759e-06 -2.3121e-06)
(0.528939 2.62623e-07 -2.98156e-06)
(0.528947 1.21383e-06 -1.59082e-06)
(0.528939 1.26752e-06 -4.07521e-06)
(0.528945 -3.05939e-07 -1.70972e-06)
(0.52894 2.74145e-06 -3.72659e-06)
(0.528944 -8.16999e-07 -3.11751e-06)
(0.528941 1.67193e-06 -2.70008e-06)
(0.528944 1.72656e-06 -4.17075e-06)
(0.52894 -1.17938e-06 -2.56187e-06)
(0.528946 3.465e-06 -3.894e-06)
(0.528939 -6.36094e-07 -3.41789e-06)
(0.528947 8.80972e-07 -3.0071e-06)
(0.528941 2.77923e-06 -3.95229e-06)
(0.528946 -1.44768e-06 -2.78054e-06)
(0.528943 2.93062e-06 -3.56133e-06)
(0.528946 6.8161e-07 -3.07317e-06)
(0.528944 -1.34022e-07 -2.8208e-06)
(0.528948 3.13739e-06 -3.23689e-06)
(0.528943 -6.0703e-07 -2.40769e-06)
(0.528949 1.47521e-06 -2.7782e-06)
(0.528944 2.338e-06 -2.44614e-06)
(0.528948 -1.02669e-06 -2.19585e-06)
(0.528945 2.95398e-06 -2.26535e-06)
(0.528948 7.09952e-07 -1.88547e-06)
(0.528945 -2.7211e-07 -2.00907e-06)
(0.52895 3.76615e-06 -1.69207e-06)
(0.528942 -1.66707e-06 -1.62123e-06)
(0.528952 2.83088e-06 -1.75416e-06)
(0.528941 9.74564e-07 -1.35521e-06)
(0.528952 -3.26065e-07 -1.61167e-06)
(0.528941 3.23683e-06 -1.47438e-06)