/*--------------------------------*- C++ -*----------------------------------*\
  =========                 |
  \\      /  F ield         | OpenFOAM: The Open Source CFD Toolbox
   \\    /   O peration     | Website:  https://openfoam.org
    \\  /    A nd           | Version:  10
     \\/     M anipulation  |
\*---------------------------------------------------------------------------*/
FoamFile
{
    format      ascii;
    class       volScalarField;
    location    "15";
    object      p;
}
// * * * * * * * * * * * * * * * * * * * * * * * * * * * * * * * * * * * * * //

dimensions      [0 2 -2 0 0 0 0];

internalField   nonuniform List<scalar> 
25600
(
-0.000146539
-0.000137471
0.00038804
0.000357626
-0.000881029
-0.00124184
0.000823571
0.000801938
0.000714323
0.00152106
0.000321896
0.000236942
0.00134528
-0.000630414
-0.000165677
0.000896342
-0.00149214
-0.00182797
-0.00161332
-0.00316935
-0.0043033
-0.00385034
-0.00350532
-0.00376407
-0.00237893
-0.000676546
-0.00147466
-0.00162327
-0.000800589
-0.00112717
-0.00198994
-0.00130954
0.000475762
-0.000262365
1.45743e-05
-0.000453371
-0.00195065
-0.00139651
-0.00208664
-0.00192095
-0.00179645
-0.00159319
-0.00220274
-0.00135999
-0.00216166
-0.00253182
0.00104165
0.00238363
0.00166052
0.00327894
0.000971094
-0.000516962
0.000235738
-0.00175369
0.000354302
0.00192702
0.000253221
-9.20261e-05
-0.00323947
-0.00558425
-0.00579625
-0.00630238
-0.00585041
-0.00453651
-0.00322281
-0.00237235
-0.00149261
-0.00157812
-0.002801
-0.00142893
-0.00197238
-0.00293682
-0.000992224
-0.00132837
-0.00182463
-0.00148985
-0.00202499
-0.00148885
-0.00221809
-0.00288217
-0.00132918
-0.00116884
-0.00272829
-0.00172681
-0.00256147
-0.00285975
0.000535358
0.00106838
0.00134543
0.00305041
0.000217439
0.000248439
0.000861606
-0.000706079
0.00231762
0.00152173
-0.00119021
-0.00309603
-0.00616614
-0.00630101
-0.00603918
-0.00665325
-0.00450887
-0.00308846
-0.00278578
-0.00297479
-0.00163421
-0.00171921
-0.00247448
-0.00170241
-0.00378847
-0.00469321
-0.001989
-0.000857085
-0.00140894
-0.00116925
-0.0008335
-0.00141485
-0.00251335
-0.00327561
-0.00366315
-0.00321293
-0.00430723
-0.00291196
-0.00268456
-0.00249795
0.00118838
0.00193765
0.00251609
0.000991978
-0.00277348
-0.00322705
-0.00369517
-0.00285697
9.82386e-05
-0.00116529
-0.000937323
-0.000246494
-0.00235562
-0.00603558
-0.00959636
-0.00791617
-0.00330474
-0.000585264
-0.000312429
-0.00163659
-0.00159982
-0.00206786
-0.00359848
-0.00504375
-0.00517811
-0.00421174
-0.00143936
-0.000441984
-0.00123215
0.000813716
0.00110328
-0.00252147
-0.0037013
-0.00378282
-0.00400227
-0.00550141
-0.00519693
-0.00392957
-0.0031469
-0.00228692
-3.57256e-05
0.0029391
0.00565446
0.00168974
-0.0052242
-0.00373841
-0.00334087
-0.00176811
-0.00096922
-0.00386909
-0.00343714
-0.000350968
-0.000638095
-0.00565215
-0.0117858
-0.00690226
-0.00398813
-0.00186853
-0.00211822
-0.00312841
-0.00188362
-0.00226306
-0.00272056
-0.00330395
-0.00325169
-0.00223932
-0.000702115
0.000537895
0.000782869
0.0020498
-0.000236216
-0.00315495
-0.002219
-0.00359721
-0.00391663
-0.00480959
-0.00382502
-0.00271606
-0.00406834
-0.00261544
-0.000961421
0.00256768
0.00543382
0.00276657
-0.00146042
-0.00460517
-0.00396847
-0.00305796
-0.0029634
-0.00373675
-0.00340271
-0.00317169
-0.000509973
-0.00314209
-0.00690808
-0.00637999
-0.00432524
-0.00156876
-0.0021824
-0.00303046
-0.00110724
-0.00159759
-0.00502618
-0.00815026
-0.0063883
-0.00100847
0.00218053
0.00313966
0.00272648
0.00175113
-0.00155771
-0.00245261
-0.00181119
-0.00224812
-0.00562226
-0.00287996
-0.00040476
-0.000825346
-0.00505777
-0.00794539
-0.00738142
-0.00200041
0.00316847
0.00532086
0.0026437
-0.00366505
-0.00597041
-0.00124089
-0.00615628
-0.00901218
-0.00615597
-0.00122338
0.00476633
-0.00368485
-0.00774207
-0.00245516
-0.00268884
-0.00188593
-0.00405552
-0.00261266
-0.00286394
-0.00361194
-0.00322318
-0.00463913
-0.00654398
-0.00367135
-0.00212645
-0.0015768
0.00035265
0.000191771
-0.00181393
-0.00234502
-0.00356444
-0.0075123
-0.00315522
-0.00405534
-0.00330774
-0.00111712
-0.00564625
-0.0101884
-0.0073755
-6.84024e-05
0.00288452
-0.000337723
-0.000255248
-0.0011017
0.00184472
0.000577687
-0.00396488
-0.00520149
0.00417601
0.00791725
0.00398533
-0.00778407
-0.0122231
-0.00923747
-0.00414016
-0.00268318
-0.00209932
-0.000779686
-0.00139052
-0.00564777
-0.00466171
-0.00134066
-0.00510008
-0.00261784
9.93074e-05
0.000703864
0.000763151
-0.000826073
-0.00252159
-0.0027377
-0.000322194
-0.00449718
-0.00378646
-0.00286016
-0.00382244
-0.00309815
-0.00372444
-0.00222033
-0.00805552
-0.00811339
-0.000908101
0.00467817
0.00441701
-0.00147697
-0.000225647
-0.000253158
-0.000505416
-0.00195203
0.000829292
-0.000949799
-0.000854099
-0.00646089
-0.00736428
-0.00818333
-0.00574079
-0.00362788
-0.00466629
-0.00295885
-0.00107778
-0.0042487
-0.00286274
-0.00612317
-0.0086528
-0.00369854
-0.00239643
-0.000145997
0.000711426
-0.000655544
-0.00233988
-0.00281547
-0.00666618
-0.00900631
-0.00518204
-0.00372087
-0.00364725
-0.011011
-0.00763635
-0.00183003
-0.00210591
-0.00339774
-0.00161653
0.00433581
0.00589053
-0.00342902
-0.00567439
-0.0102236
-0.0139899
-0.00114765
0.00113344
-0.000392936
-0.000976816
-0.00329791
-0.00228328
-0.00836464
-0.00922672
-0.0054472
-0.0061029
-0.00165215
-0.000641608
-0.0028542
-0.00403731
-0.00450618
-0.00366097
-0.00424706
-0.00382044
-0.000791298
-0.00306151
-0.00159526
-0.000125573
-0.00181041
-0.00493208
-0.00795023
-0.00614575
-0.0105399
-0.00592785
-0.0114389
-0.00923819
-0.00497868
-0.0129397
-0.0100297
-0.00457222
0.00416284
0.00103154
-0.00632345
-0.0129145
-0.0160845
-0.0123676
-0.00462849
0.00128733
-6.00934e-07
-0.00387678
-0.00467165
-0.000634749
-0.00740362
-0.0125092
-0.00735242
-0.00216182
6.41875e-05
-0.000706327
-0.00308171
-0.00779328
-0.00727803
-0.0062763
-0.0117744
-0.00801431
-0.00205134
-0.00588212
-0.0020868
-0.00246288
-0.00648733
-0.0070661
-0.00446669
-0.00874756
-0.00269342
-0.00987553
-0.0143317
-0.00942618
-0.00789229
-0.00795324
-0.0097855
-0.000562021
0.00526774
-0.000788476
-0.00360064
-0.00666329
-0.0122196
-0.0107951
-0.00184534
0.00291646
-0.00109111
-0.00773069
-0.0057684
-0.00268185
-0.00466125
-0.0126996
-0.0118541
-0.00371786
-0.00310579
-0.000116044
-0.00325918
-0.0095868
-0.00900582
-0.00461045
-0.000388264
-0.0023158
-0.00489062
-0.00541381
-0.00102805
0.000345214
-0.00618776
-0.00984754
-0.00905146
-0.00760037
-0.00875923
-0.0204198
-0.0138712
-0.00970464
-0.0106109
-0.0139716
-0.0110319
-0.000949167
0.0030186
-0.00222507
-0.00588372
-0.00853436
-0.0184445
-0.0170903
-0.00541818
-0.00114498
-3.74999e-05
-0.00664007
-0.00623121
-0.0048507
-0.00656209
-0.0124224
-0.00690606
-0.000558945
-0.00109104
-0.000633411
-0.0069163
-0.0100397
-0.00605745
-0.00429721
-0.0143932
-0.00891712
-0.00465493
-0.00258945
0.0017892
0.000670596
-0.00710572
-0.0148732
-0.0101728
-0.00928098
-0.00891318
-0.0167237
-0.0174727
-0.00917544
-0.00828145
-0.00682659
-0.00621149
-2.63919e-05
0.00237835
0.00305552
-0.00219014
-0.0117133
-0.0206433
-0.01562
-0.00417217
-0.00295911
-0.00260075
-0.00625069
-0.00849365
-0.0032047
-0.00437484
-0.0131173
-0.00742175
-0.00123417
0.00300931
-4.32562e-05
-0.00468579
-0.0112141
-0.0101445
-0.00486413
-0.00942409
-0.0106617
-0.00291881
-0.00304019
0.000726081
0.004306
-0.00353352
-0.0166054
-0.0158226
-0.0108216
-0.00693724
-0.00715628
-0.00965476
-0.00771992
-0.00570147
-0.0111407
-0.00524994
0.00168006
0.00632704
0.00637822
0.000829521
-0.0108197
-0.014322
-0.010811
-0.0051203
-0.00473454
-0.00646252
-0.00351103
-0.000914924
-0.00166689
-0.00926668
-0.00951425
-0.00457093
-0.00503848
-0.00767306
-0.0041167
-0.00289649
-0.0161598
-0.0134832
-0.00699818
-0.00594243
-0.0105274
-0.00697867
-0.00604509
0.00103382
0.00770118
0.000186888
-0.0154423
-0.0134409
-0.0112824
-0.00829453
-0.00605158
-0.0097784
-0.00844106
-0.00778601
-0.0120235
-0.0102663
-0.00564311
0.00136133
0.0047487
0.0014525
-0.0067253
-0.012112
-0.0097641
0.00260379
-0.00537593
-0.00694647
-0.00171797
-0.00357489
-0.00585379
-0.0115746
-0.00845696
-0.000224585
-0.000668455
-0.00666032
-0.00690515
-0.00308921
-0.012799
-0.0110924
-0.0086102
-0.00536056
-0.00931318
-0.01084
-0.00753708
0.00291351
0.00617454
-0.00190483
-0.0115875
-0.0056953
-0.00936346
-0.0202651
-0.0114177
-0.00919638
-0.00761632
-0.0131804
-0.0141203
-0.00726301
-0.00517695
-0.00165849
0.00114686
0.00146084
-0.00765573
-0.0147072
-0.0104599
-0.0024485
-0.00520839
-0.00525177
-0.00501708
-0.0057232
-0.00995334
-0.00775691
-0.00768819
-0.00311404
-0.00306952
-0.0091939
-0.00710291
-0.00264827
-0.0122693
-0.00989558
-0.00511002
-0.00493118
-0.00342573
-0.0096015
-0.011163
-0.00278816
0.0016192
-0.00632651
-0.0125025
-0.011411
-0.00420768
-0.0103002
-0.00779747
-0.0116807
-0.00846357
-0.00911914
-0.0148253
-0.00354545
0.00166525
-0.00111447
-0.00244946
0.00283826
-0.00613149
-0.0116199
-0.00959284
-0.00367268
-0.00610112
-0.00902451
-0.00589885
-0.00595848
-0.0114663
-0.00539695
-0.00338353
-0.00404104
-0.0113172
-0.018777
-0.00523342
-0.00347474
-0.014989
-0.0159761
-0.00721732
-0.00850558
-0.00713984
-0.0099316
-0.00750001
-0.00426178
-0.00279002
-0.00880346
-0.0181415
-0.012021
-0.004231
-0.0150661
-0.0066644
-0.0150721
-0.00938705
-0.00798808
-0.0131247
-0.000396404
-0.00146253
-0.00481745
0.00169451
0.000290249
-0.00131012
-0.0133347
-0.0146342
-0.00225088
-0.0112886
-0.015121
-0.0130243
-0.00821375
-0.0116376
-0.0204816
-0.00136258
-0.000156809
-0.0128349
-0.0277109
-0.00659954
-0.00296731
-0.0156082
-0.0178504
-0.0167883
-0.0133568
-0.00726265
-0.0109067
0.00019242
0.000650092
-0.00194155
-0.00534926
-0.016977
-0.00724251
-0.00792865
-0.0110827
-0.00864994
-0.0207586
-0.00876338
-0.00892575
-0.0144612
0.00058682
0.00097013
-0.00723981
-0.00158742
0.00584274
-0.00143444
-0.0107578
-0.0164882
-0.0098782
-0.00983018
-0.0158827
-0.0153274
-0.0108977
-0.00965542
-0.0111546
0.000757525
-0.00108494
-0.0136507
-0.0191795
-0.00421305
-0.00153627
-0.0172708
-0.0159272
-0.0176196
-0.013723
-0.00494983
-0.0125217
-0.00308609
0.000376016
0.000206653
-0.00391771
-0.00735105
-0.00753866
-0.0100711
-0.00863534
-0.00853928
-0.0275407
-0.0093816
-0.00799086
-0.0166885
-0.00451782
0.00204867
-0.00690791
-0.00722425
0.00576968
-0.00100566
-0.00659306
-0.0122291
-0.00994703
-0.0069489
-0.0130196
-0.0107003
-0.0130724
-0.0111287
-0.00327049
0.00424306
-0.00512792
-0.0206396
-0.0199023
-0.00125598
1.49929e-06
-0.0173081
-0.014085
-0.017089
-0.0132404
-0.00603007
-0.0120737
-0.00592077
-0.00295727
0.00255437
-0.00376319
-0.0115359
-0.00750393
-0.0122764
-0.00972956
-0.00919039
-0.0264766
-0.0112226
-0.00879591
-0.0168182
-0.00389658
0.000688275
-0.00767643
-0.00645807
1.5452e-05
0.00122544
-0.00827847
-0.0111695
-0.00626012
-0.00892469
-0.0144995
-0.00976437
-0.014354
-0.0136243
-0.00441711
0.00506354
-0.00997804
-0.0270739
-0.0235365
-0.000649215
-0.000253793
-0.0153723
-0.00877531
-0.0162158
-0.0116487
-0.00740208
-0.0107743
-0.00788762
-0.00292839
0.00636813
-0.001745
-0.014423
-0.00496899
-0.0142821
-0.0163415
-0.0136283
-0.0251269
-0.0103431
-0.00715241
-0.0150155
-0.00250919
-4.18878e-05
-0.00732813
-0.00467339
-0.000923529
0.00486351
-0.0136679
-0.0149965
-0.00524246
-0.00990155
-0.0185773
-0.0120808
-0.0173438
-0.013751
-0.00200585
0.00343617
-0.0137931
-0.0265147
-0.0264513
-0.00057436
0.00122615
-0.0147062
-0.00405866
-0.0144586
-0.0116492
-0.0061538
-0.0100589
-0.0099102
-0.00231086
0.00880823
0.000684738
-0.00877448
-0.00368516
-0.0135828
-0.0104964
-0.0161706
-0.0247396
-0.00222619
-0.00263066
-0.0140234
-0.00169796
0.00224609
-0.00614289
-0.000310889
0.00157995
0.00644531
-0.0136243
-0.0182871
-0.00710226
-0.0101414
-0.0170828
-0.0143262
-0.0200221
-0.0115809
0.00406387
0.00381248
-0.0177745
-0.0202303
-0.0254175
0.00148301
0.00483148
-0.0100039
-0.00444264
-0.0150374
-0.0120835
-0.0037704
-0.00724749
-0.0094363
0.00122289
0.0103277
-0.00054876
-0.00993717
-0.00508105
-0.012701
-0.011917
-0.0167079
-0.0242417
0.000396397
-0.00175954
-0.0145185
0.000565773
0.00100483
-0.00778798
-0.00190261
0.00223688
0.0011487
-0.0122368
-0.0247123
-0.010609
-0.0102652
-0.0138592
-0.0158241
-0.0210674
-0.0113104
0.00270378
0.00526793
-0.0194931
-0.0176794
-0.0202624
0.0038298
0.00754429
-0.0049833
-0.00706744
-0.0193771
-0.00970101
-0.00934906
-0.0106
-0.00847462
0.00504272
0.0119164
-0.000146732
-0.0100963
-0.00727661
-0.00916408
-0.00900228
-0.0154921
-0.0239865
-0.000152573
0.00411043
-0.0114873
0.000531029
0.0034103
-0.00643302
-0.000520066
0.00184811
0.00299636
-0.00839779
-0.0160146
-0.0122532
-0.00781813
-0.0130986
-0.0163285
-0.0230744
-0.014892
0.00353499
0.00533382
-0.0176469
-0.0188412
-0.0183388
0.00460152
0.0101013
-0.00489349
-0.00872979
-0.0185592
-0.00954543
-0.0105686
-0.00837095
-0.00937719
0.00616469
0.0164111
0.00145939
-0.0100396
-0.00761035
-0.00888487
-0.00953989
-0.0118844
-0.0250946
-0.00497846
0.00227524
-0.0105479
-0.00210758
0.00428153
-0.00787926
-0.00836788
-0.00067806
0.000664946
-0.00593011
-0.0196683
-0.011427
-0.00476907
-0.0146438
-0.0193353
-0.0256324
-0.0166663
0.00394372
0.00355858
-0.0169032
-0.0186738
-0.0215163
0.00193486
0.0116537
-0.00668555
-0.0102527
-0.0211683
-0.0190976
-0.0119167
-0.00837083
-0.00912831
0.00683599
0.0155156
-1.03484e-05
-0.0106067
-0.00802295
-0.00569823
-0.00714132
-0.00895585
-0.0235899
-0.0078641
0.00223147
-0.00800179
0.000108038
0.00380937
-0.00593617
-0.00427825
0.00147021
0.00046621
-0.00363759
-0.0149229
-0.00998698
-0.0025166
-0.011471
-0.0170398
-0.0230057
-0.011408
0.00540254
0.00625915
-0.0157314
-0.0126707
-0.0200936
0.00247179
0.0146845
-0.00403525
-0.00860014
-0.0166019
-0.0130753
-0.00964905
-0.0072438
-0.00516404
0.0089519
0.0186543
0.00537919
-0.00850826
-0.00758284
-0.0112523
-0.012065
-0.015082
-0.0250859
-0.0100195
0.00201814
-0.0134317
-0.00537751
-0.00416154
-0.00977552
-0.00925245
-0.00340772
-0.00251288
-0.00728288
-0.0164079
-0.0103945
-0.00886995
-0.0141315
-0.0214788
-0.0253853
-0.0172855
0.00375655
-0.000195773
-0.0175987
-0.0189126
-0.0216323
0.00322808
0.00905032
-0.0058067
-0.0132323
-0.0205103
-0.0195268
-0.0121362
-0.00953607
-0.00888868
0.00484243
0.0142457
0.000121208
-0.0112716
-0.00938414
-0.00726788
-0.0055114
-0.00824521
-0.0191682
-0.00761403
0.00322999
-0.00662843
0.00165218
0.00434853
-0.00388383
-0.00335887
0.00348929
0.00254367
-0.00520284
-0.0121088
-0.00659842
0.000368085
-0.00778573
-0.0146781
-0.0205919
-0.010625
0.00901639
0.00677034
-0.0105545
-0.0134606
-0.0183982
0.0074604
0.0166892
0.000743115
-0.00555452
-0.0139069
-0.012088
-0.00618853
-0.00683997
-0.00332944
0.0125538
0.0217342
0.00694789
-0.00149639
-0.00596279
-0.0172849
-0.0148688
-0.0175046
-0.0267374
-0.0117373
-0.00342059
-0.0147091
-0.00753618
-0.00658483
-0.0132682
-0.0112698
-0.00513342
-0.00516592
-0.014782
-0.022198
-0.0126102
-0.010148
-0.0170168
-0.0238058
-0.0288876
-0.020081
0.00100703
-0.00138334
-0.0182818
-0.0212951
-0.0233352
0.000221942
0.00757306
-0.00900771
-0.0155459
-0.0235383
-0.0210868
-0.0147007
-0.0142794
-0.0116045
0.0026602
0.011627
-0.00295642
-0.0147753
-0.0110302
-0.00250019
-0.00129643
-0.00332705
-0.0143169
-4.11911e-05
0.00938018
-0.00203483
0.00620882
0.00759713
0.00034894
0.00189221
0.00831045
0.00784764
-0.00175995
-0.0086279
-0.000533562
0.00261744
-0.00385681
-0.0102748
-0.0153799
-0.00597956
0.014271
0.0117141
-0.00476693
-0.00763665
-0.0106797
0.0127577
0.0201144
0.00546498
-0.00112619
-0.00974148
-0.00791784
-0.00150312
-0.000844454
0.00100549
0.0163476
0.0259507
0.0112114
-0.000843321
0.00066925
-0.000354946
-0.000443964
6.02579e-06
-0.000796924
-0.00434666
-0.00364979
-0.000942915
0.000406945
0.000672084
0.00129539
0.000773641
0.000873147
0.0014485
-0.000776098
-0.000761079
9.21256e-05
-0.00193002
-0.002544
-0.00257889
-0.00359003
-0.00422557
-0.00311118
-0.00257823
-0.00403045
-0.00289857
-0.00118155
-0.00182866
-0.00177676
-0.00158163
-0.00139596
-0.00243096
-0.00320858
-0.000103899
-0.000398102
-7.80383e-05
0.000666392
-0.00122769
-0.000727436
-0.00138373
-0.00139371
-0.00264221
-0.00219554
-0.0031233
-0.00224056
-0.00151748
-0.00153817
0.00145783
0.00237603
0.00193507
0.00294112
0.000895614
-0.000191586
0.000339475
-0.00199198
-0.000558389
-8.32567e-05
-0.00261322
-0.00280401
-0.00462817
-0.00511609
-0.00429386
-0.00393321
-0.0037153
-0.00352631
-0.00270203
-0.00221367
-0.00161795
-0.0019031
-0.00311715
-0.00176368
-0.00211506
-0.00293267
-6.04938e-05
-0.000215806
-0.000878673
-0.00100258
-0.00206507
-0.00208914
-0.00270455
-0.00330442
-0.00154529
-0.000873347
-0.00296109
-0.001404
-0.00129728
-0.00222344
0.000483247
0.000905468
0.000770203
0.00284914
8.08549e-05
-0.000345414
0.00122196
-0.000372713
0.000827775
-0.00187443
-0.00475118
-0.00489674
-0.00682567
-0.00461682
-0.00340109
-0.00449763
-0.0031863
-0.00223287
-0.00303483
-0.00402164
-0.0028963
-0.00238542
-0.00270921
-0.00187893
-0.00403433
-0.00417226
-0.000844707
-0.000156853
-0.000476351
0.000450734
-0.000582087
-0.00233035
-0.0028223
-0.00336484
-0.00228263
-0.00137841
-0.00262893
-0.00160262
-0.00342839
-0.0034519
0.00042386
0.00172664
0.00381794
0.00316373
-0.000180466
0.000103829
-0.00307135
-0.00434584
-0.000718386
-0.00138305
-0.000991697
-0.000897895
-0.00257274
-0.00477678
-0.00868293
-0.00709184
-0.00457488
-0.0024618
-0.00191761
-0.00346751
-0.00276979
-0.00281703
-0.00404856
-0.00468842
-0.00547789
-0.00392284
-0.000724455
-0.000260335
-0.00123268
0.000255892
-0.000286088
-0.00260769
-0.00259645
-0.00315492
-0.00193941
-0.00129586
-0.0042166
-0.00324129
-0.00366396
-0.00311051
-0.00168681
0.0010556
0.00297601
-0.00108769
-0.00343383
-0.00162187
-0.00472839
-0.00424171
-0.00256597
-0.00353265
0.000156699
-0.000994337
-0.00464508
-0.0079926
-0.0106743
-0.00599258
-0.0042601
-0.00230887
-0.00315304
-0.00591201
-0.0036072
-0.00279576
-0.00733227
-0.0086518
-0.00777186
-0.00366627
-0.00126331
-0.000733986
-0.000282073
0.000769257
-0.00110205
-0.00316517
-0.00273911
-0.00426375
-0.0026108
-0.00522089
-0.00569362
-0.00443444
-0.00607067
-0.00458255
-0.00203585
0.000502094
0.00346038
-0.00065008
-0.00155164
-0.00333975
-0.00737944
-0.00750331
-0.00879325
-0.00639148
-0.000721457
-0.00297404
-0.0045577
-0.00828544
-0.00839844
-0.00581334
-0.00370863
-0.00192679
-0.002367
-0.00366544
-0.0021191
-0.00108316
-0.00428906
-0.00728241
-0.00818547
-0.00276053
-0.000498774
-0.00133466
0.00027796
0.000562401
-0.00107074
-0.00295406
-0.00293778
-0.00207258
-0.0073325
-0.00697207
-0.00405953
-0.00138959
-0.00387512
-0.00562692
-0.00707484
-0.0050345
-0.00404033
-0.000799345
0.00120241
-0.00438661
-0.00760446
-0.00252772
-0.0124328
-0.0190259
-0.0102587
-0.00401808
-0.00374009
-0.00504129
-0.00479447
-0.00166805
-0.00326318
-0.0047722
-0.00725701
-0.00533428
-0.00319161
-0.00322036
-0.0039839
-0.00568262
-0.0045737
-0.000865
-0.000177169
-0.000310659
0.00105081
0.00062782
-0.00150698
-0.00306113
-0.00322136
-0.00553634
-0.0116616
-0.00812376
-0.00261126
-0.00452699
-0.010415
-0.0133104
-0.0127923
-0.00478691
0.00329101
0.00335893
-0.000502728
-0.00512851
-0.00450728
-0.0107375
-0.0297455
-0.0228694
-0.00105766
0.000386284
-0.00889336
-0.0121427
-0.00998747
-0.00925237
-0.00337053
-0.00242388
-0.00249863
-0.00476442
-0.00418799
-0.00715443
-0.00377793
-0.00522153
-0.00640583
-0.00312372
0.000576924
0.00248395
0.00268347
0.00100134
-0.00295349
-0.00301161
-0.00276056
-0.00840733
-0.00540106
-0.0064858
-0.00291754
-0.00201599
-0.00903945
-0.010776
-0.0115417
-0.00799768
0.00197913
0.000414332
-0.00654889
-0.00999372
-0.00635345
-0.0146819
-0.0257056
-0.0119046
0.000485832
-0.00155311
-0.00977685
-0.0114955
-0.00630594
-0.00289853
-0.00145334
-0.00527747
-0.0117042
-0.00804211
-0.00114642
-0.00237058
-0.00485596
-0.00698569
-0.00624064
-0.00492029
-0.00241203
0.00161335
0.00436064
0.00119364
-0.00397646
-0.00286843
-0.00652787
-0.00841552
-0.00926591
-0.0123085
-0.00358382
-0.00567423
-0.0152977
-0.0127072
-0.00627484
-0.00140947
-0.0029455
-0.00466311
-0.0105312
-0.0133339
-0.0139173
-0.0176987
-0.0205668
-0.0104688
-0.00314171
-0.00085907
-0.00689997
-0.0112982
-0.00210785
-0.00450212
-0.0154281
-0.0139086
-0.0167466
-0.00665186
-0.000353071
-0.00218835
-0.00281084
-0.00651481
-0.0131561
-0.0118854
-0.00229225
-0.000735981
0.00181808
-0.000800553
-0.00179697
3.41609e-05
-0.00314192
-0.00519134
-0.007454
-0.0221379
-0.0105626
-0.0122486
-0.010171
-0.0129251
-0.0118588
-0.00769227
-0.00784266
0.00277655
-0.00466777
-0.0118376
-0.0126433
-0.0131862
-0.0146929
-0.00860157
-0.00498755
-0.00204803
-0.00494996
-0.0077384
-0.000704489
-0.00335391
-0.0153945
-0.0186735
-0.013627
-0.00168274
-0.00055668
-0.00926209
-0.00583427
-0.00542467
-0.0144223
-0.0255266
-0.00856936
-0.00307354
-0.00251649
-0.00286252
-0.00371044
-0.000482485
-0.00339112
-0.00360263
-0.0091585
-0.000476809
-0.00857055
-0.020131
-0.0147674
-0.00718404
-0.00946231
-0.014084
-0.00893725
0.00351556
-0.0010873
-0.00393398
-0.00152563
-0.0108287
-0.0135319
-0.00885227
-0.00575691
-0.00257532
-0.00542907
-0.00832843
-0.00240919
-0.00220557
-0.00974637
-0.0147056
-0.0126639
-0.00428969
-0.00253196
-0.00976213
-0.0124041
-0.00502729
-0.00932565
-0.0100676
-0.00679624
-0.00802525
-0.00848894
-0.00254869
-0.00416311
-0.00311708
-0.00707499
-0.00837647
-0.00767351
-0.0101925
-0.00912352
-0.0125294
-0.0138151
-0.0114453
-0.00795925
-0.0133966
-0.00778936
-0.00187499
-0.00294229
-0.00681263
-0.00508029
-0.0144439
-0.0126499
-0.00642682
-0.00502603
-0.00113797
-0.00686594
-0.0102778
-0.00395231
-0.00768753
-0.00997685
-0.00347121
-0.0102689
-0.00657738
-0.00243494
-0.0105833
-0.0114567
-0.00414894
-0.00445717
-0.00635291
-0.00871338
-0.00776757
-0.0080139
-0.00737219
-0.0104005
-0.00774527
-0.01345
-0.0106368
-0.00798046
-0.0115064
-0.0116405
-0.0159403
-0.0110762
-0.00782247
-0.0117572
-0.0128455
-0.00870587
-0.00373931
-0.000831121
-0.00383272
-0.00920951
-0.015499
-0.0102914
-0.00343744
-0.00531124
-0.00575458
-0.00903973
-0.00948179
-0.0105699
-0.0109012
-0.00970914
-0.00127884
-0.00289384
-0.0018959
-0.00160987
-0.0178108
-0.010535
-0.00317752
-0.0101631
-0.0101003
-0.00316514
-0.00508873
-0.00794704
-0.0103152
-0.0143693
-0.00730795
-0.0114084
-0.0106915
-0.00782859
-0.0122798
-0.0130182
-0.00697623
-0.0104471
-0.00601034
-0.0107615
-0.0147115
-0.0101377
-0.00179663
-0.000358954
-0.00189981
-0.00564869
-0.00770971
-0.00732181
-0.00112102
-0.00474599
-0.00587992
-0.00972927
-0.00816232
-0.0100844
-0.0172855
-0.00969716
-0.00324425
-0.00650558
-0.00393038
-0.0047718
-0.0158485
-0.0116139
-0.00630215
-0.0145102
-0.0121368
-0.0137564
-0.0113751
-0.0106266
-0.010787
-0.00910396
-0.00545482
-0.00950638
-0.0096518
-0.00445871
-0.00786133
-0.00767767
-0.0147999
-0.0142774
-0.00849366
-0.0105507
-0.0133628
-0.00889553
0.00308907
-0.000508255
-0.0012074
-0.00909226
-0.00873344
-0.00553444
0.00039292
-0.00482634
-0.00477359
-0.00958309
-0.00885632
-0.010965
-0.0179944
-0.0105254
-0.00793303
-0.0104125
-0.0055436
-0.0118311
-0.0224363
-0.016471
-0.00743459
-0.0115196
-0.00781006
-0.0146083
-0.0187753
-0.00895761
-0.00923625
-0.00517604
-0.00587224
-0.0152588
-0.0080231
-0.00130475
-0.00667549
-0.00740856
-0.0210347
-0.0221926
-0.00282089
-0.0105139
-0.0112633
-0.00987182
-0.00475693
-0.00576727
-0.00329367
-0.00983416
-0.0131063
-0.00521729
-0.00268165
-0.0037068
-0.00517205
-0.0109963
-0.00973578
-0.0128839
-0.0160697
-0.0140381
-0.0111037
-0.0102794
-0.0126462
-0.0146319
-0.0245145
-0.0139052
-0.000364859
-0.0134126
-0.00941404
-0.011544
-0.0158428
-0.00736386
-0.0106895
-0.00504295
-0.00627829
-0.0274742
-0.0153353
-0.00656042
-0.00865353
-0.00670041
-0.0197514
-0.019943
-0.0119194
-0.00667739
-0.00778487
-0.00967667
-0.00680123
-0.00747882
-0.00617715
-0.0102097
-0.014094
-0.00465406
-0.00727134
-0.00933801
-0.00969654
-0.00827645
-0.0150321
-0.00995377
-0.0126401
-0.0145708
-0.0115921
-0.0125003
-0.015308
-0.00768751
-0.0196172
-0.0139412
-0.0101798
-0.024108
-0.0139505
-0.0108252
-0.0142292
-0.0107604
-0.0175714
-0.00611679
-0.00430188
-0.0272052
-0.0162225
-0.0116414
-0.0109622
-0.00765539
-0.0179435
-0.0157668
-0.0143316
-0.00908158
-0.00904968
-0.00784779
-0.00558323
0.000111038
-0.00181524
-0.0108367
-0.0125154
-0.00876853
-0.00963346
-0.0178493
-0.017876
-0.0101323
-0.0200779
-0.0051579
-0.0116799
-0.0141301
-0.0122511
-0.0123149
-0.0160425
-0.00863629
-0.0186446
-0.0169749
-0.0217334
-0.026606
-0.0138149
-0.0113568
-0.0137713
-0.00870903
-0.0194201
-0.0048734
-0.00508691
-0.0246337
-0.0115562
-0.0107576
-0.0147795
-0.0101632
-0.021427
-0.0167036
-0.0102798
-0.0118778
-0.010327
-0.00833362
-0.0129113
-0.000884447
0.00452833
-0.00756394
-0.00527
-0.00792132
-0.00681518
-0.0144528
-0.0187991
-0.0191509
-0.0190897
-0.00556212
-0.0111875
-0.0155481
-0.0134874
-0.0132904
-0.0136226
-0.00612808
-0.0164392
-0.0204029
-0.0270274
-0.0221543
-0.0101487
-0.0135777
-0.0124392
-0.00111502
-0.00970321
-0.00101564
-0.00588213
-0.0223625
-0.0120244
-0.00925369
-0.0131555
-0.0155258
-0.0267599
-0.0176901
-0.00973903
-0.0120612
-0.00980389
-0.0105434
-0.0132553
-0.00366952
0.00187972
-0.00892449
-0.00818675
-0.00743065
-0.00529063
-0.00804366
-0.0158164
-0.0158676
-0.0177655
-0.00561371
-0.00652603
-0.014522
-0.0147158
-0.0176445
-0.0120514
-0.0019029
-0.0171722
-0.0243755
-0.0272438
-0.0231779
-0.0101484
-0.0151382
-0.0144807
-0.000422056
-0.00879719
-0.00641067
-0.00971828
-0.0204661
-0.014006
-0.0126034
-0.00770787
-0.00883428
-0.0220846
-0.0182155
-0.00736894
-0.0083186
-0.00951769
-0.00737127
-0.00994847
-0.00695782
0.00246047
-0.00777633
-0.0113791
-0.00767918
-0.00717486
-0.012404
-0.0153419
-0.0166304
-0.0174321
-0.00296358
0.00174022
-0.0105188
-0.0150284
-0.0200025
-0.0103122
-0.00223239
-0.0153377
-0.019957
-0.0253511
-0.0234245
-0.01208
-0.0124639
-0.0148871
-0.00341281
-0.0127993
-0.000524979
-0.0122776
-0.0228223
-0.0149086
-0.0148214
-0.0168709
-0.00721037
-0.0218207
-0.0195997
-0.00419407
-0.0051936
-0.0116792
-0.00898606
-0.00827886
-0.00714346
-0.00141691
-0.00608227
-0.0105863
-0.00754682
-0.00937009
-0.0125211
-0.0184057
-0.023534
-0.0178203
-0.000807147
0.00239735
-0.0128487
-0.016215
-0.0216144
-0.00515465
-0.00285244
-0.0156424
-0.0174248
-0.0225039
-0.0198725
-0.00921832
-0.010942
-0.0145629
-0.0109973
-0.0133289
-0.00184111
-0.0105373
-0.0239157
-0.0153124
-0.0145557
-0.0129807
-0.00852559
-0.0263816
-0.0201781
-0.00366268
-0.006274
-0.0122002
-0.00759075
-0.00937305
0.00129495
0.000243606
-0.00277271
-0.00774421
-0.00564263
-0.00841778
-0.011991
-0.0163638
-0.0254408
-0.0183977
-0.000492812
0.00119875
-0.0193057
-0.0228865
-0.0213015
-0.00302008
0.00024644
-0.00926935
-0.016392
-0.0185138
-0.0158517
-0.0109615
-0.0153135
-0.0133294
-0.00989479
-0.0089682
-0.00352378
-0.00566766
-0.0237116
-0.0228806
-0.0171765
-0.0107501
-0.0118365
-0.0284825
-0.0245743
-0.00688457
-0.00860168
-0.0116089
-0.00759785
-0.0118384
0.00273277
0.000385762
-0.0026773
-0.00910851
-0.0152878
-0.0105939
-0.011744
-0.0179731
-0.0267072
-0.0174798
-9.72775e-06
-0.000557295
-0.0234073
-0.0300926
-0.0212875
-0.00592313
0.00116712
-0.0051014
-0.00835579
-0.014599
-0.0138045
-0.0113413
-0.0177021
-0.0099933
-0.00412868
-0.0102685
-0.00142799
-0.0043487
-0.0247171
-0.0293
-0.0146889
-0.0108478
-0.0107762
-0.0278454
-0.0269025
-0.00718177
-0.00745692
-0.0115762
-0.00466902
-0.00348699
-0.000601459
-0.00343238
-0.00430484
-0.00509328
-0.0155702
-0.0116348
-0.0093454
-0.0210218
-0.0254842
-0.0173404
0.00307346
-0.00268059
-0.025077
-0.0326547
-0.0217285
-0.00839538
-0.00120384
-0.00385643
-0.00880746
-0.0128673
-0.0104015
-0.00933197
-0.0157295
-0.00663291
-0.0112543
-0.0135238
0.00067775
-0.00536869
-0.026187
-0.0309764
-0.011884
-0.00882771
-0.0143249
-0.0264604
-0.0274951
-0.00811062
-0.00641625
-0.0152203
-0.0123169
-0.00983147
-0.00492347
-0.00652492
-0.0103666
-0.00554608
-0.0161599
-0.0102426
-0.00836148
-0.0241922
-0.0273944
-0.0199465
0.00838895
-0.00128116
-0.026286
-0.0332603
-0.0197391
-0.00957848
-0.00187188
-0.00151516
-0.00969268
-0.0155857
-0.0122692
-0.0123393
-0.0171448
-0.0117578
-0.0150317
-0.0155384
-0.00195466
-0.00822623
-0.0275249
-0.0308089
-0.0130561
-0.00625202
-0.00932824
-0.0215876
-0.0259624
-0.00815675
-0.00465712
-0.0105573
-0.013803
-0.0120356
-0.00177802
-0.00309644
-0.0125613
-0.00464312
-0.00838765
-0.00697219
-0.0049108
-0.0228548
-0.03084
-0.020516
0.0135209
0.00509784
-0.0262915
-0.0330906
-0.0170101
-0.00559817
0.00131015
0.00248717
-0.00816016
-0.00988787
-0.00865527
-0.00994847
-0.0146482
-0.00818085
-0.0113277
-0.0130623
-0.000848968
-0.00477619
-0.0239311
-0.0282338
-0.0186892
-0.0107686
-0.0142584
-0.0260532
-0.0274851
-0.00721077
-0.00502098
-0.0171634
-0.0147648
-0.0143807
-0.00329474
-0.00779332
-0.0131463
-0.00613327
-0.0130637
-0.00595279
-0.0118941
-0.0267713
-0.0315883
-0.0177573
0.0158495
0.00140055
-0.0299263
-0.0356855
-0.0178642
-0.00713866
0.00424057
-0.00597077
-0.0121625
-0.0174213
-0.01532
-0.0153701
-0.0174864
-0.0124989
-0.0143867
-0.0167306
-0.00709078
-0.00817754
-0.0289395
-0.0284493
-0.0126917
-0.0095996
-0.00694613
-0.0207595
-0.0244254
-0.00471027
0.000187349
-0.00916683
-0.0102984
-0.00816393
0.00112274
-0.00129076
-0.00960104
-0.00637255
-0.0122517
-0.00572698
-0.0035795
-0.0179634
-0.0277916
-0.012099
0.0208181
0.00995082
-0.0232721
-0.0304317
-0.0152819
-0.00567088
0.00698665
0.00445887
-0.00302597
-0.0104182
-0.00663377
-0.0083093
-0.0108893
-0.00491455
-0.00795283
-0.0102498
-0.00072713
-0.00322342
-0.022273
-0.0239865
-0.0219408
-0.0144846
-0.0171894
-0.0295948
-0.0290234
-0.00868072
-0.00718778
-0.0194971
-0.0179607
-0.0170872
-0.00701454
-0.0109219
-0.0143674
-0.0120254
-0.0203266
-0.0100844
-0.012116
-0.0277217
-0.0332013
-0.0162164
0.0139708
-0.00101044
-0.0324368
-0.0381591
-0.0210014
-0.00936801
0.00395003
-0.00541291
-0.0139361
-0.0204353
-0.0189512
-0.018855
-0.0195599
-0.0142807
-0.0165412
-0.0188897
-0.0103071
-0.0112112
-0.0315719
-0.0313528
-0.0078288
-0.00239975
-0.00276686
-0.0157408
-0.0171543
0.00402505
0.00557696
-0.0054216
-0.0050643
-0.00353008
0.0067158
0.00266361
-0.00175853
0.000871527
-0.00743204
0.00213667
0.000129113
-0.0158616
-0.0209768
-0.00474209