/*--------------------------------*- C++ -*----------------------------------*\
  =========                 |
  \\      /  F ield         | OpenFOAM: The Open Source CFD Toolbox
   \\    /   O peration     | Website:  https://openfoam.org
    \\  /    A nd           | Version:  10
     \\/     M anipulation  |
\*---------------------------------------------------------------------------*/
FoamFile
{
    format      ascii;
    class       surfaceScalarField;
    location    "15";
    object      phi;
}
// * * * * * * * * * * * * * * * * * * * * * * * * * * * * * * * * * * * * * //

dimensions      [0 3 -1 0 0 0 0];

internalField   nonuniform List<scalar> 
74080
(
0.00448982
-0.000688536
1.38059e-05
0.004786
-0.000610341
0.00105658
0.00463342
0.000210338
0.00198633
0.004113
0.00136565
0.00189016
0.00325896
0.000816768
0.00106373
0.00277106
0.000181437
0.000696037
0.00349125
0.000386549
0.00187323
0.00459326
0.00041392
0.00123877
0.00542091
0.00168613
-0.00105245
0.00510761
0.00120034
-0.000102085
0.00367683
-0.000462787
0.00172838
0.00327539
-7.1664e-06
0.00229694
0.00338181
0.00149514
0.00226213
0.0037253
0.000734018
0.00111599
0.00423799
-0.000785039
8.55751e-05
0.00423216
4.86369e-05
0.000446928
0.00390252
0.000908841
0.00213699
0.00369611
0.000568513
0.00229249
0.00474881
-0.000544142
0.000578263
0.00533324
-0.00107917
0.000798739
0.0045246
0.000118604
0.00262752
0.00454799
0.000492564
0.00274123
0.00473534
0.000265258
0.00116147
0.00502122
-0.000102785
0.000307244
0.00448357
-0.000342822
0.00196387
0.00345661
0.000948237
0.00252425
0.00394475
0.00108049
0.00106057
0.00365678
0.000721323
0.00113077
0.00310827
-2.42676e-06
0.00124572
0.00458703
0.000172579
0.000310725
0.00531999
0.000913116
-4.93805e-06
0.00424774
6.83633e-05
0.00122055
0.00376241
7.55562e-05
0.00208509
0.00413829
0.000414264
0.00135119
0.00558518
0.000255416
-1.37339e-05
0.00635313
0.000136675
0.000522363
0.00566775
-0.000252864
0.00189997
0.00450209
0.000577459
0.00228079
0.00442855
0.000845585
0.00201417
-0.000246121
0.000828071
0.0049274
-8.21982e-05
-0.000238892
0.00441471
0.000251263
-0.00116015
0.003527
0.000772223
0.000289609
0.00269409
0.00104996
0.000540374
0.00347827
0.000788492
-0.00108284
0.00476989
0.000517512
-0.000867227
0.00423503
0.000784721
-0.000569959
0.00430359
0.000780854
-0.00208949
0.00525539
0.00114664
-0.00149096
0.0049379
0.000378142
0.00017846
0.00489909
-0.000672251
0.000253437
0.00519832
-0.000182551
-0.000130271
0.0048884
0.00154212
-0.00118736
0.00509058
0.0008351
-0.00178394
0.00534557
-0.000605606
2.325e-05
0.00517868
-0.000236201
0.00196878
0.00475007
0.000140614
0.00113026
0.0047305
0.0006153
-0.000241086
0.00473353
0.000198607
-0.000160247
0.00391139
-0.000476127
-0.00015889
0.00346285
0.000896506
-0.000583027
0.00461448
0.000455993
-0.00117432
0.00566855
0.000192609
-0.00103356
0.00546182
0.000614025
-0.00105032
0.00611556
8.55821e-05
-0.00139663
0.00682446
0.000520566
-0.000534742
0.0063696
0.000652065
-0.000258808
0.00580634
0.00134684
-0.000519108
0.00460155
0.00177906
-0.000519561
0.00440936
0.000909979
-0.000687836
0.00587952
0.000112291
-0.000791622
0.00578458
0.000101193
-0.000774156
0.00482343
0.000681857
2.4155e-05
0.00463213
0.000473343
-0.000696846
0.00463334
-0.00026126
-0.000436085
0.00414887
9.54081e-05
0.000626076
0.00440338
0.000389769
-0.00145818
0.0053685
0.000155244
-0.000887216
0.0057531
0.000413531
0.00066363
0.000324855
0.000564467
0.00461325
-0.000157001
-0.000191624
0.0037947
0.000747712
-0.000382085
0.00366635
0.000753595
0.00052851
0.00392299
0.00125017
0.000347081
0.0045877
0.00146179
-0.000589291
0.00401852
0.00101548
0.000306567
0.00325659
0.000570513
0.000798059
0.00308434
0.00101043
-0.000510319
0.00268707
0.00154613
-0.000485878
0.00285191
0.0003399
0.000926009
0.00342976
-0.000615179
0.00078595
0.00413948
9.07914e-05
-0.000386057
0.00477319
0.00120033
-0.000555526
0.0036098
0.00107283
0.000632908
0.00304684
-0.00011304
0.000501077
0.00358331
-0.000397956
-0.000453817
0.00418323
0.000282757
-0.000851264
0.00545596
0.00104132
-0.00214564
0.00466986
0.00137266
-0.000790158
0.00345426
0.00051544
0.00109931
0.00426822
0.000395747
-0.000130226
0.004532
0.000378881
-0.000461385
0.00491248
0.0002169
-0.000417882
0.00478896
0.000852261
-0.000633509
0.00398373
0.000986126
0.000870707
0.00405376
0.00031824
0.000803606
0.00454977
0.000283724
-0.000274925
0.00574189
0.00106277
-0.000556869
0.00531049
0.00168552
-4.67596e-05
0.00371957
0.000786918
0.000210215
0.00341341
0.000360104
-0.000706548
0.00357814
0.000734303
-0.000439553
0.0044514
0.000295412
0.000348948
0.00534717
0.000119184
0.000222127
0.00549323
8.73052e-05
-0.000416074
0.00491045
0.000939519
-0.000237408
0.00449517
0.00103101
0.00110345
0.00461449
0.00012948
0.00121352
0.00438334
0.00044221
0.000318844
-0.000125185
1.37605e-05
0.00503974
-0.000187628
0.000300364
0.00492743
0.000661533
3.92512e-05
0.00456353
0.000792057
-0.000150735
0.00433194
0.00131693
-0.00026075
0.00492196
0.000948306
-0.000191443
0.00514645
0.000924407
3.75384e-05
0.00440676
0.00129556
2.13098e-05
0.00434186
0.000995727
0.000422027
0.00565106
0.00078544
-0.000299636
0.00577703
0.00102237
-0.0011481
0.00487723
0.000113033
0.000283278
0.00522385
-0.000579005
0.00076602
0.00610652
0.00051312
0.000199182
0.0055158
0.00121772
0.000368688
0.00486499
0.000200202
-0.000386219
0.00514619
-0.000289291
-0.000617885
0.00485242
0.00101282
-0.000555577
0.00412038
0.00172621
-8.87366e-05
0.00363924
0.00144022
0.000124182
0.00399642
0.0008404
-0.000599672
0.00485593
0.000377808
-0.000423102
0.00466858
0.000697502
-0.000222017
0.00433953
0.000669374
-0.000191161
0.00436215
0.000565516
0.000468555
0.00455133
0.000710377
2.04669e-05
0.00444895
0.000815182
-0.00093236
0.00397468
0.00102453
-0.000610695
0.00456281
0.000673948
0.00014802
0.00529478
0.00047811
0.000674458
0.00506382
0.000568039
-7.21423e-05
0.00483702
0.000530582
-0.000501086
0.00486247
0.000886367
-0.000493627
0.00515805
0.000886418
-0.00064956
0.00497841
0.000572512
0.000124055
0.00455459
0.00013295
0.000279843
0.00473313
0.00089861
-0.000210735
0.00510148
0.00146905
-0.0004432
0.00525737
0.000500908
-0.000153127
0.00510576
0.000529658
-2.18397e-05
-8.36423e-05
0.000122977
0.00361264
0.000527321
0.000684393
0.00366995
0.000139331
0.000674602
0.00361552
0.000599596
0.000172815
0.00397153
0.000774014
1.82368e-05
0.00405168
0.000930022
0.000418006
0.00353481
0.00122457
0.000313927
0.00405882
-0.000285777
0.000963774
0.00505412
-0.000737997
0.000606903
0.00520969
0.000423026
-0.000263479
0.00508982
0.00126597
-0.000716419
0.00384771
0.00116502
0.000356175
0.00355366
-0.00028893
0.00104007
0.00497195
-0.000530012
-0.000312281
0.00463523
0.00126199
-0.000205493
0.00332848
0.000750756
0.000957144
0.00345181
-0.000154473
0.000708651
0.00402454
0.000969747
0.000400555
0.00440353
0.00175781
-0.000788642
0.00439533
0.00145979
-0.000591289
0.00403417
0.000963382
0.000459382
0.00397811
0.000867279
2.12935e-05
0.0036595
0.00116616
-0.000248961
0.00229455
0.00124026
0.000479432
0.0017811
0.000833888
0.000806547
0.00284526
-1.79441e-06
0.000897704
0.0035789
0.000495579
0.000472745
0.00354801
0.00118026
0.000471974
0.00358927
0.000437239
0.000455692
0.00380981
0.000329745
-0.000133781
0.00330312
0.000832992
9.81348e-05
0.00283586
0.000190676
0.00100129
0.00376101
-6.53471e-05
0.000323735
0.00427555
0.000621215
-0.000354838
0.00335398
0.00131564
-0.000185122
0.00302642
0.000339658
0.000502885
0.00479612
-0.000512815
0.000425388
0.0057376
0.000456368
0.0002119
0.00504254
0.000850331
-0.000266719
0.00500772
0.000922796
-0.000587948
0.0010921
0.000256427
0.00415552
0.000977584
2.82083e-05
0.00298387
0.000856573
0.00067123
0.00341249
-0.000181672
9.85681e-05
0.00448858
-0.000514651
-0.000222501
0.00498405
0.000189791
0.00012437
0.00402664
0.0011139
0.000529483
0.00303177
0.000478288
0.000510544
0.00330842
-0.000214097
-0.000390499
0.00374435
8.1899e-05
-0.000603608
0.00446007
0.000868539
-0.000219161
0.00440822
0.00150437
8.21393e-05
0.00283094
0.000726983
-0.0003775
0.00207874
0.000591633
-0.000672529
0.00234637
0.00131472
0.000459107
0.00210901
0.00100161
0.000382797
0.00230193
0.000180795
-0.000431357
0.00323047
0.000538594
-0.00050677
0.00356365
0.00142562
-0.00019711
0.00322002
0.00195377
-0.00029843
0.00312159
0.00148275
-0.000157879
0.00308901
0.00079527
0.000428404
0.00318742
0.000974662
0.000192882
0.00365675
0.00123313
-0.000390619
0.00362951
0.00084105
0.000205232
0.00349781
2.1493e-05
0.00074462
0.00375473
0.00022899
0.000230367
0.0033939
0.00126745
-0.000242162
0.00274156
0.000629381
-3.38882e-05
0.00245447
0.000325359
-0.000144436
0.00203064
0.000893423
-0.000133466
0.00177906
0.000806493
4.59041e-05
0.00238118
0.000285936
1.27392e-05
0.00308754
0.000174237
0.000178369
0.00328677
0.000830278
0.000324079
0.00343952
0.000373699
-2.96685e-05
0.00396293
-0.000584427
0.00010881
0.00435232
0.000303864
0.000513411
0.00426794
0.00110904
0.00028926
0.004241
0.000986237
-1.46923e-05
0.0006802
-0.000394056
0.00381566
0.000792
0.000148617
0.00295773
0.00129451
0.000307819
0.00302805
8.57735e-05
7.98592e-05
0.00318947
-0.000137421
-0.000107421
0.00351814
-0.00011539
0.000476433
0.00439348
0.000602705
7.5339e-05
0.0039553
0.0014123
-0.000372388
0.00326974
0.000545372
-0.000128764
0.00350854
-8.27929e-05
-0.000115255
0.00387354
0.000993124
-0.000356764
0.00400217
0.000934385
0.000555238
0.00337446
0.000602708
0.000699652
0.00214747
0.00188071
6.24938e-06
0.00202735
0.00169431
0.000162722
0.00289775
0.000655501
5.66876e-05
0.00317975
0.000336213
0.000111717
0.00331405
0.000169327
0.000519933
0.00352147
0.000585373
0.000479622
0.0034238
0.00169866
-0.000219323
0.00333995
0.00162033
-0.00024351
0.00334154
0.000923083
0.000327192
0.00327655
0.00107049
0.000441591
0.00324397
0.00116782
-0.000191856
0.00328853
0.000562554
-7.26126e-05
0.00292385
0.000311708
4.19585e-05
0.0027095
0.00086413
-0.000463899
0.00363999
0.000983955
-0.000611422
0.00381686
0.000241593
0.000103084
0.00238132
0.000533942
0.000884403
0.00194667
0.000864416
0.000330593
0.00286127
0.000405131
-0.000131041
0.00353878
-4.30729e-05
-8.25396e-05
0.00366248
-0.000200232
0.000349717
0.00343884
0.000577941
0.000439606
0.00291634
0.000815279
0.000383708
0.00281237
0.000204318
0.000210453
0.00343371
0.000435296
-0.000471676
0.00381535
0.000856225
-0.000210897
0.00349396
0.000936111
0.000444114
8.5855e-05
0.000592468
0.00279606
0.000868321
-0.000152155
0.00332425
0.000880719
0.000112391
0.00337215
0.000391604
-9.78931e-05
0.00326498
0.000174303
-0.000207513
0.0031066
-0.000154587
0.000404644
0.00310148
0.000765655
0.000317752
0.00295753
0.00161922
0.000170642
0.0028708
0.00037126
0.000411266
0.002955
-1.76813e-05
0.000310862
0.00320918
0.000920741
2.71675e-05
0.00344287
0.000327366
0.000289814
0.00294561
0.000416061
0.00043707
0.00307242
0.00168635
0.000116337
0.00357889
0.00121892
-5.07724e-05
0.00345829
0.000713936
9.83832e-05
0.00328551
0.000713641
0.000254473
0.00282131
0.000625331
0.000294671
0.00287516
0.000341624
0.000321433
0.00331786
0.000828175
0.00049813
0.00350341
0.00136133
0.000413221
0.00381648
0.000940049
7.83528e-05
0.00349136
0.00140049
-6.10143e-05
0.0029479
0.00155048
-0.000288759
0.00310735
0.000338875
0.00015596
0.0032726
0.00022855
0.000149893
0.00351505
0.000479354
-0.000190312
0.0037438
0.000140003
0.000325736
0.00348294
7.43496e-05
0.000309982
0.00316508
0.000435076
4.51936e-05
0.00275455
0.000658701
0.000541457
0.002698
0.000554167
0.000238704
0.00303702
0.000174275
-0.000383634
0.00312367
-0.000153585
0.000208972
0.00322314
0.000365983
0.000319108
0.00307784
0.000887143
9.03812e-05
0.0024968
0.000745376
0.000313288
0.00216885
0.000989178
0.000126621
0.00242627
0.000657698
7.71427e-05
0.0028075
0.000332617
-4.96855e-05
0.000413751
-0.000122039
0.00269374
0.000883141
-0.000497474
0.00254328
0.000961104
0.000192905
0.0028635
-4.46239e-05
0.000367171
0.0029643
-0.000112506
-9.3593e-05
0.00250869
-0.000136037
0.000339265
0.00310606
0.000194866
-6.34207e-05
0.00344845
0.00125325
-5.91331e-05
0.00284963
0.000621945
0.000274106
0.00300585
-8.25198e-05
-0.000262764
0.00359635
0.00039138
-0.000201445
0.00355496
0.000305644
0.000107902
0.00313517
0.000619147
0.000148935
0.00281726
0.00159288
0.000177066
0.00280056
0.00132056
-0.000114948
0.00251052
0.00118945
-0.000319528
0.00260826
0.000673359
-0.000307144
0.00291895
0.000327304
-0.000178335
0.00264745
0.000365419
0.000231278
0.00294308
0.000118149
0.000365101
0.00289551
0.00122738
-2.13023e-05
0.00297607
0.000979922
-0.000164262
0.0035407
0.00081055
0.000174944
0.00306706
0.00159438
0.000163196
0.00236907
0.00096081
8.54299e-05
0.00261896
0.000375017
-0.000169825
0.00320767
8.22733e-05
-0.000481711
0.00294005
-8.17014e-06
-9.30321e-05
0.00195984
0.000629445
0.000346707
0.00229696
7.99702e-05
0.000326408
0.00314579
-0.000106178
-4.02024e-06
0.0027722
0.000794975
0.000238754
0.00233875
0.00075193
0.000265172
0.00228474
0.000493626
-9.71728e-05
0.00236653
0.000586697
-0.000207696
0.00284613
0.00028807
-6.27555e-05
0.00294734
0.000531514
0.000161521
0.00247649
0.00109244
0.00062578
0.00213281
0.000528194
0.000608092
0.00196619
0.00027214
0.000277393
0.000557205
-4.39224e-05
0.00256993
0.000674304
9.26858e-05
0.00276265
0.000958691
0.000338962
0.00278064
2.54249e-05
-1.03043e-05
0.00267466
1.40477e-05
0.000150879
0.00273287
-1.05397e-06
0.000168954
0.00324334
-2.26767e-05
-0.00020892
0.00338678
0.00102814
1.34867e-05
0.00258071
0.00115936
0.000146891
0.00261585
0.000153077
-0.000417997
0.00267478
0.000303809
-0.00024427
0.00219095
0.000812668
0.000185282
0.00237695
0.000653171
-0.000189735
0.00236774
0.0013742
-5.12259e-07
0.00246994
0.00134275
-0.000127422
0.00284833
0.000813333
-0.000129862
0.00304036
0.000168864
9.62391e-05
0.00256316
0.000667513
-0.000178507
0.00178932
0.00117861
-0.000358665
0.00199907
7.90593e-06
-0.000225553
0.00276604
0.000431907
-0.000153032
0.00295325
0.000635208
-0.000189927
0.00276916
0.000860044
7.00219e-05
0.00287226
0.0015271
-0.000138535
0.00281493
0.00100777
-8.01637e-05
0.00290864
0.00040112
-6.23905e-05
0.00314804
-5.64617e-05
-0.000115902
0.00226328
0.000501023
0.00015262
0.00142299
0.00129769
5.67661e-05
0.00170449
-1.43751e-05
0.000256269
0.00231793
-0.000590005
0.000381083
0.00268411
0.000270552
-0.000110046
0.00272147
0.00066359
1.41151e-05
0.00232252
0.000866945
0.000236578
0.00248502
0.000624435
-0.000410814
0.00291892
6.81766e-05
-0.000295261
0.00297382
0.000660158
-0.000275462
0.00323628
0.000964
-0.000168764
0.0029188
0.000807736
-6.2231e-05
0.00185259
0.00119275
0.000104126
0.00064712
-7.31841e-05
0.00270642
0.00032462
7.32781e-05
0.00295353
0.000709114
0.000205921
0.00278119
0.000342927
-0.000371435
0.00240564
0.000340187
-0.000205282
0.00226824
0.000251633
0.000231005
0.00240387
0.00010809
-0.00011344
0.0028449
0.000617455
-0.00012721
0.00256489
0.00114307
6.00748e-05
0.00227914
0.0004045
2.63529e-05
0.00245232
0.000148875
-8.20961e-05
0.00240332
0.000615937
-0.000155587
0.00241298
0.000528193
0.00024574
0.00235319
0.00126907
9.96011e-05
0.00231161
0.00133824
-0.00014481
0.0024175
0.000732166
0.000190124
0.00223627
0.000183858
0.00050523
0.00237507
0.00059175
0.000145346
0.00249053
0.0012575
-0.000341186
0.00209217
0.000383047
3.42998e-06
0.00225931
0.000240539
4.65634e-06
0.00246071
0.000621778
-0.000157255
0.00253282
0.00104453
5.4405e-05
0.00265737
0.00135853
-3.84241e-07
0.00220411
0.00112675
8.58769e-06
0.00210237
0.000386207
-9.45065e-05
0.0026371
-0.000551324
-0.000412391
0.00253303
0.000507437
-0.000111628
0.0019718
0.00164701
0.000105979
0.00197068
3.56387e-05
-0.000280149
0.00250907
-0.000756522
-0.000436624
0.00249344
0.000604293
-0.000210134
0.00211742
0.00124703
-0.000174611
0.00226307
0.000853657
-0.000434202
0.00260289
0.000240177
-0.000396525
0.00257434
0.000227032
-0.000225778
0.00224743
0.00118452
-0.000284601
0.00207742
0.00119812
-0.000123375
0.00201885
0.00099483
-7.80377e-05
0.00225369
0.00115112
-0.000116272
0.000382892
-0.000269525
0.00210648
0.000130142
-0.000236261
0.00241803
0.000535315
-0.000154088
0.00212291
0.000514264
0.000140644
0.00193252
0.000591034
-4.22648e-05
0.00221974
0.000304474
5.41629e-05
0.00217146
3.63461e-05
8.97777e-05
0.00194632
0.00058557
-0.000166868
0.00201971
0.00107275
-0.000142287
0.00189094
0.000448383
-9.21941e-05
0.00200026
3.92461e-05
-0.00016069
0.00209257
0.000594418
-5.75168e-05
0.00233175
0.000420961
-1.01652e-05
0.00241457
0.00127336
-0.000200412
0.00197336
0.00150807
0.000155398
0.0014063
0.00121241
0.000121882
0.00119594
0.00057652
0.000105769
0.00176558
0.000180691
0.000107194
0.00219035
0.000930547
-4.57995e-05
0.00222558
0.000493955
-6.04972e-05
0.00236131
-6.05194e-05
4.84266e-05
0.00209755
0.000633092
0.000123513
0.00195871
0.00122158
7.19837e-06
0.00211085
0.00110876
-2.84289e-05
0.0018507
0.00106138
0.00040045
0.00165258
0.000723637
0.000144305
0.00183995
-0.000509911
-0.000178413
0.00205937
0.000287921
-6.97921e-05
0.00184666
0.00156945
2.75209e-05
0.00147647
0.000615942
-0.000263478
0.00159916
-0.000355191
-0.000487267
0.00170811
0.00066234
-0.0001864
0.00205304
0.00107061
-0.000150358
0.0024399
0.000686975
-0.00039783
0.00191881
0.00073342
-0.000274089
0.00173747
0.000513721
-5.31664e-05
0.00181267
0.00113468
0.000162494
0.00158606
0.00119085
-5.73814e-05
0.00184335
0.000675462
-0.000244339
0.00222044
0.000604249
0.000257351
0.000321276
0.000296423
0.00167248
0.000368119
-0.000101094
0.00139015
0.000993756
-0.000134094
0.00158637
0.00042215
-0.000149192
0.00180973
0.00028645
-0.000151715
0.001409
0.000662433
-4.83851e-05
0.00151292
-1.7494e-06
-1.59363e-05
0.00196753
0.000252205
-9.26281e-05
0.00202306
0.000947693
-0.000142934
0.00156471
0.000472682
0.000227352
0.00134578
0.000103561
-1.71966e-05
0.0017071
0.0002853
3.33096e-05
0.00177981
0.000384899
6.06577e-05
0.00155758
0.00148904
-5.5588e-05
0.0017255
0.00162223
-0.000270715
0.0016265
0.0013056
-4.24568e-05
0.00166599
0.00052028
0.000333435
0.00206718
-0.000245138
0.000100612
0.00175103
0.000998168
-9.46395e-05
0.00148093
0.000980936
-0.000139735
0.00181287
-0.000177105
-0.000140556
0.00208103
0.000296443
6.76345e-05
0.00196698
0.0014633
-2.06331e-05
0.00191089
0.00111118
-0.000290674
0.00191772
0.000882321
-0.000164588
0.00177722
0.000904536
-5.83488e-06
0.00169793
-0.000308465
0.000177335
0.00193714
0.000100316
0.000146007
0.0018903
0.00151541
-0.00015452
0.00157477
0.000966531
-0.000233196
0.00166347
-0.000197735
-0.000154295
0.0017761
0.000721979
-5.61596e-05
0.00200182
0.000857091
3.25531e-05
0.0023068
0.000351383
-0.00010844
0.00230608
0.000749147
-0.000134869
0.00201908
0.000816634
8.57371e-05
0.00172238
0.00132928
6.39474e-05
0.00179132
0.000982495
-2.40027e-05
0.00220826
0.000243426
0.000111699
0.00223781
0.000553614
6.5444e-05
0.00069578
-0.000147289
0.0013538
0.00084306
-0.000153148
0.00123692
0.00113581
-0.000158511
0.00111151
0.000723396
-8.85609e-06
0.00103886
0.000377367
1.11706e-05
0.00144523
0.000424085
-0.000215854
0.00166695
-9.54103e-05
-3.4255e-05
0.00160066
0.000233409
0.000106808
0.00155923
0.000725241
-6.48162e-05
0.00145766
0.000202596
9.04248e-05
0.00135175
0.000126523
-1.56389e-05
0.00157887
4.34791e-05
2.42374e-05
0.00178291
0.000337553
-0.000169146
0.00178336
0.00170025
-0.00017948
0.00196931
0.00139586
6.40755e-05
0.00191966
0.00127209
-3.30142e-05
0.00168889
0.000725013
0.000123506
0.00200886
-0.000521387
3.77063e-05
0.00188111
0.00102128
-2.65085e-05
0.00159606
0.00137683
-4.77741e-05
0.00175346
-0.000189809
-8.04724e-05
0.00167494
0.000294193
4.20156e-05
0.00168855
0.00163688
4.0274e-05
0.00179697
0.0011894
-0.000121756
0.00188546
0.000897395
-0.000214152
0.00192983
0.00101624
-8.97959e-05
0.0016592
-1.64542e-05
4.39278e-05
0.0016981
0.000159821
0.000103199
0.00179776
0.00153979
-6.77529e-05
0.00167886
0.0010527
-0.000117957
0.00146375
0.000106945
-0.000108153
0.00134481
0.00090099
-5.2787e-05
0.00144393
0.000630581
-6.01592e-05
0.00189267
6.45852e-06
-0.000197988
0.00234711
0.000442252
-7.50523e-05
0.0020983
0.00101239
6.91409e-05
0.00181822
0.00131369
0.00034411
0.00177765
0.000703662
0.000132468
0.00178785
6.68471e-05
-0.000110223
0.00207571
0.000343107
-0.000124842
0.000872227
-5.10299e-05
0.0013018
0.000960421
-7.77304e-05
0.00158775
0.000838315
-9.96263e-05
0.00159165
0.000886319
-2.01126e-05
0.00118872
0.000713456
0.000134493
0.00148007
-4.11152e-05
-0.000102062
0.00166004
-0.000258162
-5.75939e-05
0.0013867
0.000461244
7.47946e-05
0.00140143
0.000582079
-0.000153455
0.00133935
0.000115412
-0.000225865
0.001347
0.00012214
-0.000203066
0.00133909
3.25696e-05
-8.1135e-05
0.00149873
0.000388392
-0.000292621
0.00189807
0.00154396
-0.00025231
0.00192743
0.00133155
4.35623e-05
0.00177901
0.00127331
-6.43264e-05
0.00161574
0.000923848
-0.000186076
0.00153952
-0.000119437
-0.000243665
0.0015832
0.00104098
-1.33298e-05
0.00167372
0.00131084
2.23985e-05
0.00158393
-6.29681e-05
9.18105e-05
0.00151985
0.000313297
6.34543e-05
0.00179121
0.00143017
9.72493e-05
0.00167587
0.00132108
9.34419e-05
0.00155499
0.00099397
2.86306e-05
0.00172181
0.000854054
0.000104181
0.00165966
1.18608e-05
6.14682e-05
0.00174909
6.50209e-05
6.40344e-05
0.00169917
0.00156849
-2.56847e-05
0.00154991
0.00120793
-9.22269e-05
0.00146158
0.000372279
-9.65954e-05
0.00144846
0.000963946
9.84123e-05
0.00160317
0.000289197
-4.64023e-05
0.00181769
-0.000156265
-0.000319419
0.00171906
0.000654993
-0.000231895
0.0015446
0.00125627
-0.000176712
0.0017535
0.00106057
0.000102463
0.00159888
0.000567615
0.000153665
0.00142711
0.000191899
-0.000139169
0.00152879
0.000536134
-0.000211456
0.00123308
-4.63589e-05
0.00119434
0.00108819
0.000171113
0.00148257
0.000623927
-5.24851e-05
0.00156597
0.000939625
-5.02008e-05
0.00114751
0.00105583
0.000106944
0.00116729
-0.000184066
-0.00011431
0.00134355
-0.00051547
3.23158e-06
0.00145446
0.000178529
3.52884e-05
0.00148312
0.000575402
-0.000142258
0.00116782
0.000500709
-0.000239286
0.000985937
0.000348412
-0.000127469
0.000972311
2.43389e-05
-2.38988e-05
0.00119621
0.000238448
-0.00015841
0.00170882
0.00101518
-5.39543e-05
0.00177273
0.00118844
7.18295e-05
0.00173357
0.00119328
-5.66932e-05
0.00167218
0.000878646
-0.000216498
0.00160574
0.000195581
-0.000239163
0.00167989
0.00101858
4.05429e-05
0.00140085
0.00145752
2.62938e-05
0.00119356
0.000154562
3.95076e-05
0.00133092
0.000191506
-1.83584e-05
0.00156044
0.00117957
6.17317e-05
0.00175018
0.00104925
7.83295e-05
0.00167183
0.00103531
-0.000104779
0.00158118
0.000854008
-2.69135e-05
0.00143698
5.21121e-05
-8.13777e-07
0.00141126
0.000204209
-2.97443e-06
0.00155698
0.00146122
-0.000107236
0.00149338
0.00121441
-9.89293e-05
0.00139961
0.000626281
-0.000112837
0.0015218
0.000932283
-0.000106431
0.00145324
0.000267858
-0.000178043
0.0012644
0.000105044
-0.000331291
0.0013415
0.000644782
-0.000207404
0.00154091
0.000898828
5.51424e-05
0.0016799
0.000885753
5.41285e-05
0.00164966
0.000527204
5.46186e-05
0.00153334
0.000302125
-4.99825e-05
0.00140039
0.000899396
-7.25291e-05
0.00153611
-9.60213e-09
0.00114299
0.00117949
0.000173769
0.00118665
0.000494277
-8.4513e-05
0.00140402
0.00075746
-9.45845e-05
0.0011734
0.00126003
0.000111857
0.001006
-1.88478e-05
-9.18443e-05
0.00130484
-0.000837264
-4.28545e-05
0.00135907
4.47102e-05
-7.77911e-07
0.00137166
0.000631806
-7.95331e-05
0.0012728
0.000692843
-0.000247621
0.000872199
0.000780354
-8.67102e-06
0.000860844
0.00020031
-6.30962e-05
0.00113146
0.000106557
-0.000178571
0.00147017
0.000575733
4.77515e-05
0.00158924
0.000997395
8.84691e-05
0.00157205
0.00107001
-3.65041e-05
0.00138336
0.000904509
-0.000165026
0.00126646
0.000411144
-7.79347e-05
0.00136421
0.00101246
-4.98871e-05
0.00122949
0.00137243
8.52994e-05
0.00112748
0.000175893
0.00010507
0.00128596
0.000126761
-5.26552e-05
0.00162438
0.000813184
1.8654e-05
0.00169527
0.00084663
0.000121719
0.00131085
0.00115668
6.9739e-05
0.0012474
0.000785314
-0.000113879
0.00132416
-5.42797e-06
-0.00014793
0.00136886
0.000232851
8.08784e-05
0.0013017
0.0015514
1.00046e-05
0.00113501
0.00136397
-0.000163792
0.00122267
0.000665164
-3.29172e-05
0.00126674
0.000881776
-5.07681e-05
0.000977185
0.00041681
-0.000126891
0.00109273
0.00010383
-0.000283325
0.00121915
0.000664749
-0.00023644
0.00116481
0.000789873
-9.23867e-06
0.00124936
0.000699906
-6.98693e-05
0.00124946
0.000568288
2.96646e-05
0.00117625
0.000441504
-3.82665e-05
0.00107346
0.00112475
-0.00013867
0.00155214
3.3731e-05
0.0009846
0.00134941
0.000127676
0.000990509
0.000411
-6.86304e-05
0.00120479
0.000483728
-3.03318e-05
0.0010294
0.00154462
-5.05537e-05
0.000974814
0.000117765
-0.000261318
0.00111312
-0.00109256
-5.27316e-05
0.00104509
0.000126624
-4.49167e-05
0.000994695
0.000667584
-0.000122935
0.000997877
0.000587731
-0.000185483
0.000921076
0.000820155
-1.04393e-05
0.00101371
0.00013986
-6.99681e-05
0.0010416
0.000142585
-9.42867e-05
0.000831596
0.000727513
-7.58914e-05
0.000896328
0.000865262
-9.46197e-05
0.00110689
0.000601558
-1.86245e-05
0.00112053
0.000591259
-4.07267e-05
0.00112186
0.00044837
-5.74761e-05
0.00108305
0.00126055
-0.000176851
0.00124285
0.000975587
2.0755e-05
0.00123399
-3.59012e-06
9.48242e-06
0.00117574
0.000230654
-0.000205291
0.00144374
0.000482916
-5.30465e-05
0.00165837
0.000681827
-0.000143307
0.00142609
0.00124331
-6.49033e-06
0.00127952
0.000812997
-8.5322e-05
0.00113645
0.000195416
-0.000157313
0.0011324
0.000254275
-0.000154857
0.00135979
0.00139615
-0.000187262
0.00135242
0.00135071
-0.000145396
0.00134454
0.000587222
8.47889e-05
0.00137633
0.000791893
0.000103421
0.00109558
0.000545368
-6.97828e-05
0.00100924
0.0002801
-0.000299397
0.00127771
0.00054351
-0.00018262
0.00125094
0.000747339
5.70797e-06
0.0012011
0.000725088
-0.000155558
0.00118267
0.000581808
-4.75787e-05
0.000874319
0.00070471
2.1809e-05
0.000892894
0.00114753
-0.000138861
0.0013128
2.53512e-05
0.00114375
0.00130673
1.677e-05
0.00101915
0.000378256
-3.70503e-05
0.000887718
0.000542237
5.0728e-05
0.000832888
0.00174589
-0.000127093
0.000908463
0.000123362
-0.000184022
0.00095344
-0.00124826
-7.17189e-05
0.000847339
0.000162996
-1.68285e-05
0.00074542
0.000761291
-7.78418e-05
0.000751287
0.000410858
-8.56568e-05
0.00100182
0.000436959
-9.92949e-05
0.00111613
-9.00473e-05
-4.41607e-05
0.00101829
0.000175521
-1.78247e-05
0.000887274
0.000792127
-7.92955e-05
0.000971475
0.000772092
-2.99803e-05
0.00109287
0.000246129
2.23167e-05
0.00106321
0.000292207
2.89631e-05
0.00094201
0.000533097
-8.32662e-05
0.000889158
0.0014623
-0.000186317
0.000916307
0.000680738
1.08487e-05
0.000824518
-6.7307e-05
-4.46401e-05
0.000938463
0.000215273
-0.000198026
0.00119772
0.000160105
-7.79069e-05
0.00126607
0.000650999
-0.000152376
0.00113634
0.00121405
2.15997e-05
0.000982732
0.000836724
-9.57251e-05
0.000806876
0.000335054
-0.000146986
0.000876594
8.54751e-05
-5.23388e-05
0.000946109
0.00135765
-0.000130675
0.000985775
0.00130112
-0.000110428
0.00119206
0.000301546
-9.43459e-06
0.00130945
0.000560096
0.000138665
0.0011523
0.000526201
1.79085e-05
0.000898436
0.000490777
-0.000209728
0.000945536
0.000568109
-0.000181983
0.00100477
0.000585982
-3.92116e-05
0.000784849
0.000783196
-5.31002e-05
0.000905508
0.000314883
6.15139e-05
0.000796757
0.000700656
0.000100658
0.000832718
0.00106146
1.22405e-05
0.000964194
5.79356e-06
0.00100699
0.00121776
7.22822e-05
0.00104858
0.000170965
-6.93698e-05
0.00102217
0.000452415
5.93527e-05
0.000968887
0.00185739
-0.000124404
0.00086622
0.000186481
-7.57542e-05
0.000798814
-0.00121354
-7.60285e-05
0.00084482
0.000230047
-0.000119845
0.000823425
0.000901007
-7.20404e-07
0.000950206
0.000312887
-7.81412e-05
0.000888631
0.000461934
-2.10489e-05
0.000687814
-6.22343e-05
6.69196e-06
0.000740733
-5.62813e-05
2.57086e-05
0.00102189
0.000437172
1.37833e-05
0.00130288
0.000430943
7.641e-05
0.00133368
-1.84468e-06
7.57007e-05
0.00109337
0.00024763
1.87683e-05
0.000816916
0.000760718
-0.000109816
0.000923181
0.00143065
-0.000134199
0.00107628
0.000323039
5.27205e-05
0.000990179
-7.33453e-05
-2.31945e-05
0.000963048
0.000389901
-0.000211659
0.00107587
5.24099e-05
-0.000186537
0.0011435
0.000628008
-0.000134594
0.00115989
0.0011427
-2.06591e-05
0.00112417
0.000786021
-0.000109262
0.000950612
0.000463472
-0.000117848
0.000942443
-6.7809e-05
-6.1827e-06
0.00092764
0.00136264
-6.21499e-05
0.000954615
0.00123962
-5.50174e-05
0.00109313
5.56597e-05
8.86289e-05
0.0010316
0.00055124
8.4921e-05
0.00096183
0.000508579
-0.000136985
0.000935827
0.000440366
-0.000199451
0.000745532
0.000770638
-8.10117e-05
0.000852888
0.000446822
-2.05529e-05
0.000783785
0.000695963
-7.06506e-05
0.000741176
0.000257708
-8.32703e-06
0.000761674
0.00051083
9.72878e-05
0.000775141
0.000834539
0.000155987
0.000594397
2.2461e-05
0.000889349
0.00100619
5.51544e-05
0.00100968
-8.82683e-05
-6.66832e-05
0.000983162
0.0003099
-8.24028e-06
0.000780448
0.00200066
8.71538e-06
0.000479436
0.000403435
-5.52897e-05
0.000507935
-0.00122622
-6.1153e-05
0.000774237
0.000185137
-4.33647e-05
0.000957609
0.000841249
3.0536e-06
0.00108875
0.000224933
-7.7201e-06
0.000677058
0.000844465
-1.17542e-05
0.000384945
8.38411e-05
-5.14578e-05
0.000782205
-0.000603005
2.64181e-05
0.00116416
2.14933e-05
3.12161e-05
0.0012705
0.000283415
9.31348e-06
0.00129889
-0.000197403
-5.4036e-07
0.000961192
0.000268368
0.000161311
0.000677767
0.00106633
-0.000180421
0.000748984
0.00142713
-0.000135548
0.00101603
-0.000166734
0.000111693
0.00099077
-0.000145066
4.35136e-05
0.000866353
0.00059359
-0.000143145
0.00103918
-6.45958e-05
-0.000161852
0.00111481
0.000630013
-0.000152886
0.000955242
0.0012341
-6.37986e-05
0.000898045
0.000746861
-0.000114521
0.000985207
0.000375621
-0.000194968
0.00095601
-0.000102962
-7.85082e-05
0.000786826
0.00149853
4.63907e-05
0.000753674
0.00120948
1.83183e-05
0.00100579
-0.000359614
6.29237e-05
0.000961162
0.000481708
8.15667e-05
0.00087768
0.000409074
-6.97841e-05
0.000900265
0.000227908
-7.62139e-05
0.000898891
0.000747149
-2.31558e-05
0.000855532
0.000438839
-1.63523e-05
0.000657124
0.000658011
-3.33372e-05
0.000648986
0.000189197
-0.000149541
0.000775502
0.000191259
5.48471e-05
0.000786108
0.000539543
0.000258624
0.000476599
6.28233e-05
0.000936601
0.000872939