/*--------------------------------*- C++ -*----------------------------------*\
  =========                 |
  \\      /  F ield         | OpenFOAM: The Open Source CFD Toolbox
   \\    /   O peration     | Website:  https://openfoam.org
    \\  /    A nd           | Version:  10
     \\/     M anipulation  |
\*---------------------------------------------------------------------------*/
FoamFile
{
    format      ascii;
    class       volScalarField;
    location    "9";
    object      nut;
}
// * * * * * * * * * * * * * * * * * * * * * * * * * * * * * * * * * * * * * //

dimensions      [0 2 -1 0 0 0 0];

internalField   nonuniform List<scalar> 
25600
(
1.78235e-05
1.94266e-05
4.91267e-05
7.62025e-05
5.29489e-05
2.09716e-05
8.46074e-06
1.7632e-05
1.93793e-05
6.168e-06
2.55393e-06
4.91247e-06
5.42093e-06
8.70498e-06
1.46974e-05
1.93397e-05
7.80923e-06
1.53998e-05
0.000107814
8.30293e-05
3.80373e-05
1.52918e-05
2.93435e-06
2.97244e-05
1.31058e-05
1.30336e-05
4.0404e-05
4.21143e-05
1.03948e-05
3.36232e-06
1.43117e-05
4.29648e-05
1.7562e-05
4.46236e-05
6.75034e-05
7.67423e-05
4.20607e-05
1.10081e-05
6.92066e-06
1.2515e-05
3.19393e-05
1.34701e-05
4.60947e-05
2.73603e-05
1.19029e-05
1.95927e-05
1.32251e-05
9.23177e-06
9.01645e-06
2.43461e-05
5.34609e-05
6.13214e-05
0.000134151
9.04393e-06
8.06951e-06
5.68288e-06
2.6105e-05
3.09025e-05
1.89295e-05
2.72202e-05
3.52845e-05
1.76908e-05
1.43354e-05
4.74246e-05
8.58804e-05
4.04258e-05
4.16682e-06
1.15791e-05
7.48375e-05
0.000120287
9.3585e-05
9.59816e-05
3.81659e-05
4.77912e-05
0.000108893
3.95759e-05
1.65718e-05
2.40279e-05
2.07156e-05
3.0069e-05
2.89952e-05
1.63505e-05
7.96387e-06
1.49264e-05
9.26742e-06
6.32897e-06
1.60319e-05
4.03224e-05
3.63089e-05
2.17738e-05
2.83811e-06
7.36119e-05
9.17079e-05
4.22923e-05
0.000141642
0.000160561
5.72162e-05
8.79652e-06
1.33755e-05
2.53555e-05
0.000150482
0.000163317
7.48728e-05
4.21021e-05
2.06334e-05
2.21368e-05
2.12123e-05
3.46406e-05
9.08985e-05
7.16253e-06
1.6465e-05
2.76968e-05
1.7171e-05
8.34608e-07
2.2584e-05
4.535e-05
3.81235e-05
2.04388e-05
1.75476e-05
2.71129e-05
1.04122e-05
1.72721e-05
1.25121e-05
1.02669e-05
1.1227e-05
0.000135072
0.000424611
0.000440542
0.00023761
9.8656e-05
0.000232563
0.00021301
0.000105688
5.4595e-05
0.000135735
0.000147476
1.97994e-05
9.57578e-06
1.55421e-05
0.000115318
0.000103853
3.17942e-05
2.81304e-05
1.14237e-05
1.90641e-05
1.46559e-05
1.11706e-05
1.06181e-05
1.7423e-05
2.48608e-05
2.84057e-05
9.2819e-06
9.85286e-06
1.1919e-05
1.67982e-05
1.86309e-05
5.48231e-05
7.61787e-05
2.41227e-05
1.35016e-05
2.93792e-05
1.59171e-05
1.0952e-05
4.35866e-05
0.000117351
0.000361477
0.000393746
1.862e-05
1.76085e-05
4.58789e-06
9.45708e-06
5.96611e-05
9.34129e-05
0.000117322
0.00016391
6.35509e-05
2.66289e-05
1.6853e-05
3.97778e-05
5.61795e-05
3.64073e-05
2.04949e-05
9.8505e-06
1.6069e-05
7.39025e-06
4.6579e-06
7.02049e-06
2.15327e-05
5.3015e-05
5.28329e-05
5.04813e-05
5.68386e-05
6.4226e-05
2.74407e-05
0.000134064
0.000160646
0.000106418
7.4138e-05
6.92852e-05
3.10586e-05
1.42454e-05
1.81365e-05
4.1476e-06
5.3697e-06
5.21738e-05
5.78536e-05
2.24029e-05
5.60066e-05
2.93114e-05
1.70584e-05
4.91682e-05
0.000134749
0.000130363
0.000107723
8.93027e-05
1.72544e-05
1.05392e-05
1.96711e-05
9.67948e-06
1.91507e-06
8.31158e-06
7.46438e-06
1.76159e-05
1.46163e-05
1.55349e-05
9.88693e-06
1.2864e-05
7.70787e-05
0.000103932
6.41211e-05
4.14529e-05
2.3502e-05
4.86743e-05
2.63388e-05
3.39834e-05
9.04351e-05
0.000102363
4.00868e-05
1.74498e-05
2.22239e-05
2.84189e-05
0.000204867
0.000302089
0.000219055
0.00022515
0.000154655
6.01419e-06
2.9395e-05
3.8309e-05
0.000189593
0.000148835
0.00011045
4.70032e-05
1.55561e-05
3.40228e-05
4.84035e-05
0.00014104
2.06681e-05
4.29002e-05
3.69756e-05
9.2823e-06
3.21005e-05
7.1835e-05
0.000128791
8.21495e-05
6.30199e-05
0.000138819
0.000178399
7.81345e-05
3.13963e-05
1.54488e-05
1.88036e-05
8.08136e-05
0.000151603
0.000102771
0.000128477
8.40203e-05
2.92249e-05
8.90054e-06
1.84632e-05
0.000239877
0.000327814
0.0001792
1.84128e-05
7.21284e-05
0.000209392
6.92035e-06
2.62862e-05
0.000231471
0.000420607
0.00026042
0.000152366
6.13881e-05
1.23046e-05
1.27026e-05
0.000177321
0.000113881
6.39174e-06
2.90744e-05
2.17642e-05
1.60114e-05
5.54194e-06
4.97232e-06
1.62177e-05
0.000105746
0.000133877
0.000115664
2.24429e-06
5.24628e-05
0.000163906
1.81519e-05
1.37633e-05
1.81708e-05
2.62685e-05
2.40983e-05
2.2564e-05
2.74901e-05
1.66174e-05
2.77636e-05
1.92642e-05
0.000236698
0.000127292
2.30092e-05
2.15674e-05
3.97287e-05
5.61857e-06
1.33442e-05
9.5955e-05
0.000307788
0.000258519
6.00645e-05
3.61007e-05
7.13083e-05
1.86959e-05
1.89554e-05
1.66293e-05
2.54196e-06
3.06652e-05
6.18463e-05
4.24562e-05
0.000101867
1.77433e-05
1.95169e-05
5.52858e-05
0.000309213
0.000312192
4.16878e-06
2.22267e-05
0.000153659
0.000121754
3.92183e-05
3.56489e-05
3.20162e-05
4.62913e-05
2.42219e-05
2.18044e-05
2.24757e-05
3.37165e-05
1.86859e-05
4.18463e-05
1.53649e-05
1.54431e-05
2.09882e-05
1.70505e-05
1.82804e-05
6.44369e-05
0.000132701
0.000162516
0.000174599
0.000156348
0.000239257
0.000130366
3.40291e-05
3.70182e-05
7.72493e-05
7.99585e-05
3.49726e-05
0.0001531
0.000131566
0.000123289
1.49701e-05
2.60375e-05
0.000124039
0.000306812
6.03674e-05
3.35342e-06
1.38237e-05
1.49393e-05
1.83902e-05
5.21999e-06
1.29999e-05
0.000118282
6.29173e-05
1.76652e-05
2.25126e-05
3.54443e-05
1.46135e-05
2.65076e-05
1.44452e-05
2.55902e-05
7.5221e-05
1.04997e-05
8.46656e-06
1.5768e-05
1.12982e-05
3.3787e-05
0.000150633
0.000198349
0.000186105
5.92557e-05
0.000123243
1.66641e-06
3.12455e-05
8.26038e-05
9.32479e-05
9.62924e-06
4.51331e-05
5.38699e-05
2.05076e-05
1.85296e-05
1.39777e-05
8.12451e-06
5.22185e-05
6.20576e-05
5.29823e-06
1.74053e-05
1.02243e-05
1.87717e-05
1.14638e-05
5.00609e-05
7.83205e-05
4.84767e-06
1.58138e-05
2.29712e-05
4.27856e-05
3.71308e-05
2.32767e-05
1.80849e-05
0.000107774
8.16052e-05
7.47717e-05
3.33486e-05
7.8631e-06
6.96874e-06
6.21299e-06
0.000149418
1.34601e-05
5.88487e-07
9.60336e-06
7.52157e-05
7.51719e-05
3.46874e-05
1.47401e-05
2.24347e-05
4.51364e-05
2.96212e-05
5.14649e-07
9.63971e-06
2.07446e-05
1.5794e-05
3.47109e-05
1.94148e-05
1.72741e-05
2.87033e-05
1.86602e-05
3.85338e-05
3.69423e-05
9.77942e-05
9.29015e-05
2.87099e-05
3.11572e-05
1.03775e-05
4.21292e-06
9.99236e-06
5.42583e-05
4.68762e-05
4.03746e-05
2.59733e-05
2.88354e-05
0.000257823
9.21853e-06
0.000162898
1.32583e-05
5.03765e-06
9.56129e-05
2.32442e-06
4.83477e-06
5.67904e-05
1.22051e-05
8.69041e-05
4.67827e-05
5.53594e-05
0.000249356
2.69776e-05
1.90528e-05
4.4332e-05
5.6844e-06
1.27967e-05
1.15913e-05
3.48089e-05
0.000106682
4.51006e-05
2.02981e-05
3.81707e-06
1.80564e-05
3.35547e-05
0.000124236
2.03823e-05
1.27921e-05
2.06101e-05
2.50602e-05
1.48313e-05
2.20518e-06
1.55767e-05
1.93939e-05
1.27074e-05
7.11837e-05
1.65854e-05
6.93262e-05
0.00021982
3.54832e-05
0.000213394
6.1965e-05
8.80867e-05
2.35086e-05
2.00521e-05
8.28874e-05
4.99996e-06
1.87462e-05
2.58488e-05
0.000116962
0.000128364
0.000147856
2.2345e-05
4.86524e-05
5.67506e-05
9.51774e-06
1.46726e-05
4.66777e-05
1.60029e-05
1.92416e-06
7.64775e-06
3.46001e-05
1.4643e-05
1.60659e-05
7.41329e-05
0.000123642
1.2336e-05
1.1291e-05
3.68102e-05
1.03455e-05
2.32621e-06
1.9931e-05
1.18195e-05
1.4789e-05
8.83692e-06
1.51309e-05
6.76311e-05
0.000170177
0.000100741
3.55928e-05
0.000185609
9.2906e-05
2.37023e-05
6.93145e-06
6.08669e-06
3.24872e-05
2.20633e-05
3.79714e-05
6.73628e-06
0.000243152
0.000226108
1.14957e-05
2.27114e-05
0.000146563
0.000175847
5.858e-06
3.07687e-05
7.19494e-05
5.35075e-05
1.18941e-05
5.11761e-06
4.99986e-05
1.63309e-05
2.45186e-05
2.38123e-05
0.000158158
1.31057e-05
2.67237e-05
2.84387e-05
1.89556e-05
4.2351e-05
2.44681e-06
2.4798e-05
2.42922e-05
1.4774e-05
1.42488e-05
7.44713e-05
0.000249622
1.17814e-05
5.7572e-05
1.10878e-05
3.16655e-06
3.80544e-06
4.69288e-07
3.0515e-06
1.58054e-05
4.08955e-06
8.90861e-05
3.8075e-05
0.000269033
4.47553e-06
2.75983e-05
5.51649e-05
0.000408651
0.000217124
3.56078e-05
1.54916e-05
1.84887e-05
2.15837e-05
2.24352e-05
1.78594e-06
3.01681e-06
6.77521e-06
1.66086e-05
4.43045e-06
0.0001268
1.36683e-05
3.67965e-05
1.40221e-05
9.92086e-06
3.63259e-05
2.32074e-05
2.51012e-05
2.04538e-05
1.51272e-05
2.57554e-05
1.41483e-05
3.1898e-05
2.53567e-06
0.000120771
1.00381e-05
2.94816e-06
6.46587e-06
6.61371e-07
5.0717e-06
2.74302e-05
1.09711e-05
0.000132094
0.000161624
0.000263221
3.055e-06
1.43334e-05
0.000313899
0.000264354
1.86769e-05
2.17844e-05
1.09679e-05
7.76786e-06
9.26593e-06
6.59998e-06
2.91449e-05
5.40254e-06
4.81967e-05
2.69938e-05
0.000100955
5.5199e-05
1.18935e-05
1.90462e-05
3.02873e-05
7.00157e-06
1.46457e-05
1.49523e-05
9.93533e-06
5.57605e-05
4.57525e-05
2.66419e-05
8.73056e-06
5.9167e-07
1.53199e-05
7.62772e-06
3.53658e-05
9.00656e-06
3.04921e-05
3.45824e-06
2.07991e-05
1.90765e-05
1.70199e-05
4.30082e-05
0.000184694
0.000302352
9.01183e-06
3.18991e-05
0.000115721
2.48069e-05
2.08696e-05
1.88313e-06
2.32618e-06
3.04227e-06
9.76394e-06
1.2556e-05
5.93419e-06
1.03854e-05
5.28041e-06
2.63336e-06
9.36855e-05
6.54845e-05
1.59043e-05
2.50338e-05
7.05529e-06
4.4025e-06
1.44628e-05
4.64616e-06
2.17708e-06
9.24462e-05
1.20067e-05
1.41475e-05
3.05687e-05
1.61883e-05
0.000120413
2.4228e-05
3.147e-05
1.50666e-05
3.00076e-05
1.03722e-05
1.35015e-05
1.87934e-05
1.70314e-05
6.51156e-05
0.000233696
0.000291333
4.29337e-05
9.8235e-06
1.54836e-05
2.23302e-05
3.22933e-06
2.51949e-06
2.58696e-05
5.9855e-06
2.17682e-05
1.36527e-05
2.96849e-05
6.24876e-06
9.61593e-06
6.39138e-07
1.48693e-05
3.04754e-06
1.87857e-05
8.36744e-06
2.16463e-06
1.0967e-05
4.13043e-05
2.91856e-05
4.10477e-05
1.23916e-05
1.53454e-05
2.8729e-05
1.35438e-05
4.65877e-05
6.33529e-05
2.64481e-05
1.5154e-05
7.52064e-06
2.59698e-05
1.26925e-05
1.48875e-05
1.24775e-05
3.08066e-05
0.000171317
0.000275143
0.000206315
2.7704e-06
8.70091e-06
3.62356e-05
2.64732e-05
9.11315e-06
0.000126928
7.25482e-05
2.55797e-05
6.75013e-05
1.3322e-05
3.46142e-05
8.57228e-06
1.55182e-05
2.01716e-05
3.19766e-05
1.8818e-05
3.17865e-06
1.40779e-05
6.34935e-06
1.84677e-05
3.86846e-05
4.26775e-05
0.000126549
1.15684e-05
4.49737e-05
1.47006e-05
3.20962e-05
0.000108456
1.17204e-05
3.63515e-05
1.14794e-05
1.24635e-05
3.83848e-05
4.38467e-06
5.29932e-05
1.60338e-05
6.44687e-05
0.0001729
0.000302572
9.03588e-05
2.04017e-06
1.77316e-05
1.53966e-05
1.78404e-05
2.67731e-05
3.69487e-05
2.53846e-05
1.15186e-05
6.22016e-06
2.85107e-05
2.46848e-05
4.66457e-05
3.10674e-05
4.81143e-06
2.19976e-05
2.68771e-06
7.87267e-06
4.45078e-05
1.54558e-05
1.91981e-05
3.89121e-05
3.57348e-05
0.000175046
1.23878e-05
1.94127e-05
8.46223e-06
2.73477e-05
0.000201568
8.4999e-06
2.79801e-05
8.98133e-06
6.1139e-05
1.12016e-05
6.06937e-06
9.29843e-05
4.54392e-05
4.08202e-05
3.36238e-05
1.44357e-05
3.08531e-06
7.96028e-06
1.8093e-06
1.19708e-06
1.36183e-05
2.89673e-05
5.23126e-05
5.03661e-05
1.32202e-05
3.42422e-06
3.62395e-05
6.56674e-05
4.11984e-05
1.61351e-05
1.36008e-05
4.34775e-05
5.33211e-06
1.53616e-05
3.31636e-05
2.19509e-05
1.26372e-05
2.92045e-05
9.83442e-05
0.000199591
3.31102e-05
7.4422e-06
9.85548e-06
1.6615e-05
0.000221892
3.44059e-05
4.30824e-06
4.20713e-05
1.78186e-05
5.42357e-06
5.76719e-06
8.4028e-05
8.84799e-06
1.12757e-05
4.11488e-06
3.11203e-06
4.73161e-06
1.00302e-06
1.25723e-05
9.28639e-06
2.63046e-07
5.92673e-05
0.000117531
8.09036e-05
9.42505e-06
5.7088e-06
3.86676e-06
3.1871e-05
2.81015e-05
1.96376e-05
2.16958e-05
7.65289e-05
3.6004e-06
6.67578e-05
3.71138e-05
5.28667e-06
1.97489e-06
6.04043e-06
0.000213983
0.000203371
2.57118e-05
3.67092e-06
6.81423e-06
4.88123e-05
0.000162992
4.62358e-05
6.50389e-06
3.11597e-06
2.13194e-06
3.7644e-06
7.65244e-06
1.4657e-05
6.60004e-06
3.17074e-06
2.23488e-06
1.87008e-05
9.27542e-06
9.56635e-06
7.59031e-06
1.33485e-05
1.49623e-05
5.19981e-05
0.000139398
5.46951e-05
7.472e-06
1.08141e-05
1.3444e-06
2.41963e-05
5.09043e-07
4.13041e-05
0.000166475
9.13213e-05
4.38979e-05
5.1947e-05
0.000143959
1.11798e-05
4.39856e-05
6.4278e-05
0.000250446
0.000133806
7.4902e-06
7.82589e-06
2.51199e-06
4.94669e-05
3.23297e-06
3.66196e-05
1.69789e-06
6.65728e-07
6.71091e-07
2.39672e-06
1.57622e-05
4.72623e-06
7.65971e-07
1.24321e-06
3.27638e-06
7.59203e-06
1.66216e-05
6.99222e-06
5.48063e-06
1.54777e-06
1.38571e-05
6.2546e-05
0.000108571
4.44784e-06
8.76212e-06
1.42326e-05
1.87194e-05
5.43276e-05
7.52934e-07
1.93811e-05
7.51465e-05
3.25179e-06
5.50754e-05
6.25894e-05
8.35231e-05
2.65625e-06
9.42561e-06
7.25515e-05
0.000207899
1.58606e-05
2.83545e-06
4.67344e-06
1.01413e-06
6.3762e-05
1.54863e-05
9.45399e-06
7.45987e-08
1.27888e-06
9.82564e-08
7.78461e-06
2.13115e-05
1.67998e-07
4.96826e-07
4.3053e-07
2.03081e-07
4.67618e-05
3.01861e-05
5.41171e-06
7.73953e-06
8.87026e-06
3.26863e-05
0.000102392
1.59711e-05
3.82252e-07
1.03979e-05
1.85024e-05
2.44183e-05
4.81898e-05
2.67499e-05
4.34151e-05
7.46749e-06
2.42753e-06
4.51089e-06
0.000211155
4.76027e-05
6.51636e-06
4.32005e-06
3.70618e-05
3.16705e-05
1.06798e-07
4.97701e-06
3.12007e-06
1.20237e-05
2.63088e-05
8.66003e-06
4.89726e-07
7.35469e-08
5.86669e-07
4.55979e-07
1.82697e-05
5.05764e-06
4.06921e-07
1.35683e-07
1.70003e-07
2.54298e-06
5.5934e-05
3.80965e-05
1.51666e-05
1.14728e-05
4.88416e-05
7.33583e-05
1.50027e-05
5.73188e-07
3.62511e-07
2.0778e-05
2.94431e-05
2.34704e-05
3.72418e-05
5.64887e-06
3.902e-05
3.94895e-06
1.699e-06
0.000142687
0.000145362
4.73557e-05
4.26371e-05
1.70996e-05
1.14729e-05
5.5645e-07
5.62976e-08
9.28795e-06
1.8036e-06
1.19512e-08
5.6475e-07
7.66959e-07
7.52696e-08
2.0435e-07
3.05757e-07
1.24771e-06
6.98022e-06
1.99514e-06
4.6767e-08
2.31633e-08
3.98751e-08
9.78592e-06
3.87744e-05
7.57223e-06
8.00486e-06
1.42454e-05
2.66406e-05
9.40115e-07
1.13374e-06
9.77521e-09
1.7414e-06
1.1084e-05
4.79934e-06
6.30404e-07
5.15936e-05
3.90183e-06
3.2705e-06
5.41427e-07
5.53757e-05
0.000146047
0.000127676
5.78452e-05
5.1832e-05
2.10947e-05
2.07459e-06
4.94109e-09
1.84427e-06
2.88765e-06
1.10241e-08
1.21561e-07
2.30984e-08
3.11288e-07
3.39852e-08
9.83607e-08
9.57596e-08
1.7068e-06
4.20723e-06
9.76747e-08
6.5476e-11
2.56885e-09
4.19135e-08
1.6186e-05
4.93299e-06
1.4829e-07
1.92711e-06
7.6693e-06
2.83464e-08
3.07288e-08
1.42675e-07
1.49393e-08
2.11263e-07
6.75765e-07
2.51246e-08
1.47823e-07
8.95211e-07
2.96094e-05
5.11216e-06
5.24261e-08
1.89443e-05
2.4582e-05
3.9227e-05
2.36504e-05
1.25317e-05
1.09672e-05
1.62905e-06
2.24403e-07
6.72407e-07
3.07678e-08
1.56039e-09
9.95568e-09
1.03731e-07
2.22688e-07
5.16008e-10
9.27945e-09
1.03797e-07
1.98031e-06
4.95696e-07
9.90973e-11
1.21468e-09
9.19732e-09
2.6972e-07
3.31129e-07
6.3569e-08
1.01452e-07
2.74722e-08
1.08482e-08
4.06355e-09
1.30654e-08
3.51929e-08
1.5561e-08
1.3486e-08
6.06621e-11
7.15528e-09
1.59914e-08
1.50942e-07
1.12489e-06
7.68125e-07
7.05758e-09
1.47271e-06
1.11167e-06
3.17588e-07
1.91358e-07
2.78236e-07
8.78698e-07
1.74724e-07
2.50803e-08
5.65622e-08
6.81906e-09
6.96189e-10
7.14666e-10
1.05322e-07
6.12922e-08
4.4366e-09
3.12138e-10
1.13024e-07
5.99774e-07
2.86675e-08
1.70112e-09
9.97673e-10
1.01742e-08
2.19232e-08
3.01322e-08
2.98896e-08
4.46887e-09
3.99565e-11
4.84161e-09
9.8711e-10
1.50661e-08
8.50975e-09
1.78456e-09
2.21078e-10
1.88772e-09
5.68889e-09
1.09259e-08
3.21203e-08
1.12818e-07
1.53951e-07
3.03009e-09
6.13947e-08
1.88963e-08
2.90459e-09
1.65108e-08
6.048e-10
1.32145e-08
2.80948e-09
1.39443e-08
3.51138e-08
1.72424e-09
6.39228e-10
3.59465e-09
5.02803e-08
1.60253e-08
5.76444e-10
6.84747e-11
1.66596e-08
5.77911e-08
2.96176e-09
1.42169e-10
3.89988e-10
1.07857e-09
1.63167e-10
4.13253e-09
1.08372e-09
6.17794e-11
1.24154e-10
1.49431e-09
6.89801e-11
2.22821e-09
9.45385e-10
1.07066e-10
4.30108e-11
1.87334e-09
1.30814e-09
5.27785e-10
6.36236e-10
5.60256e-09
3.13046e-08
1.06894e-09
2.73052e-09
2.01443e-09
3.14113e-12
3.00321e-09
2.32905e-10
1.91e-10
5.07957e-10
8.04432e-09
6.58117e-09
4.26837e-10
1.25923e-10
5.81564e-10
6.03289e-09
4.2246e-09
5.07825e-10
8.35415e-06
1.13294e-05
4.46504e-05
5.31525e-05
3.41392e-05
1.11138e-05
7.13254e-06
1.54487e-05
1.60073e-05
1.45295e-05
1.68303e-05
1.56775e-05
9.19057e-06
1.29624e-05
1.4124e-05
1.79448e-05
1.38868e-05
8.31137e-06
1.07041e-05
4.95239e-05
5.42691e-05
4.52221e-05
2.38777e-05
9.48867e-06
7.83431e-06
1.23228e-05
1.6369e-05
1.07377e-05
7.3693e-06
6.24944e-06
1.31181e-05
5.34258e-05
1.9045e-05
8.41527e-06
3.03972e-05
7.97301e-05
7.8246e-05
3.5616e-05
8.87486e-06
1.0803e-05
1.90082e-05
1.29705e-05
6.79922e-06
1.4413e-05
4.06931e-06
7.1402e-06
2.34133e-05
1.62086e-05
1.16796e-05
2.46032e-05
2.54012e-05
1.28572e-05
1.9523e-05
1.79515e-05
1.71487e-05
5.28526e-05
5.91821e-05
1.9636e-05
8.56158e-06
2.92897e-05
2.72571e-05
1.75656e-05
1.807e-05
2.79875e-05
2.43829e-05
1.31218e-05
1.04532e-05
4.00407e-05
7.01417e-05
7.12132e-05
0.00010611
0.00010414
0.000127377
0.000155526
0.000149975
0.000113901
4.94554e-05
2.16495e-05
1.84627e-05
2.20363e-05
1.76163e-05
1.0249e-05
2.46691e-05
1.77223e-05
1.12776e-05
6.59942e-06
8.41203e-06
3.16123e-05
3.1255e-05
1.09926e-05
6.27736e-07
0.000126776
8.7494e-05
3.75619e-05
4.42323e-05
8.39841e-06
1.07778e-05
1.56135e-05
1.28081e-05
1.52767e-05
2.45731e-05
8.80196e-05
6.74966e-05
5.2496e-05
4.84882e-05
3.68158e-05
3.67489e-05
6.43844e-05
6.90351e-05
3.35881e-05
1.68425e-05
1.03284e-05
2.19478e-05
2.00573e-05
1.81921e-05
2.84053e-05
3.12806e-05
2.00361e-05
2.34073e-05
2.4327e-05
9.91055e-05
3.55954e-05
1.94007e-05
2.21595e-05
1.16169e-05
2.97031e-05
1.32478e-05
1.51116e-05
1.50018e-05
0.000131817
0.000299177
0.000229887
9.33466e-05
4.17777e-05
3.8941e-05
3.11596e-05
1.63663e-05
1.41803e-05
5.93515e-06
1.45729e-05
7.25642e-05
1.22617e-05
1.50267e-05
1.07716e-05
1.03138e-05
1.37008e-05
2.29259e-05
8.81046e-06
1.77566e-05
3.84588e-06
1.08796e-06
5.19935e-06
2.59704e-05
5.72805e-05
3.53343e-05
2.37679e-05
3.89626e-05
0.000141196
0.000219906
0.000179112
2.28899e-05
5.80719e-06
9.95681e-06
2.13327e-05
3.29313e-05
0.000141599
0.000281136
1.13421e-05
1.52462e-05
4.99999e-05
5.68928e-05
6.451e-05
9.87213e-05
8.48502e-05
7.05944e-05
1.58767e-06
9.85998e-06
1.87113e-05
1.31748e-05
1.89054e-05
7.11194e-05
5.88442e-05
5.80782e-05
2.71821e-05
5.95042e-06
6.04775e-06
7.36221e-06
3.97103e-05
7.89612e-05
5.48448e-05
8.46009e-05
4.70647e-05
2.04216e-05
3.83299e-05
8.49835e-05
0.000141866
5.10369e-05
2.14886e-05
3.56488e-05
3.94923e-05
3.25259e-05
1.85853e-05
1.45117e-05
1.366e-05
2.84909e-05
3.31264e-05
5.06718e-06
2.90431e-05
1.65319e-05
9.25177e-06
1.48449e-05
0.000175639
0.000130911
0.000154848
7.94105e-05
3.0828e-05
1.26351e-05
2.74277e-05
6.20737e-05
9.79502e-05
4.43006e-05
2.08128e-06
1.60724e-05
1.67716e-05
4.42501e-06
1.75016e-05
2.04491e-05
2.87237e-05
5.5479e-05
6.61446e-05
6.04067e-05
9.64342e-05
8.10414e-05
7.99027e-06
1.90207e-05
0.000152578
7.54318e-05
2.48673e-05
1.42044e-05
3.78965e-05
1.25355e-05
2.90108e-06
0.000153744
0.000201433
9.51165e-05
0.000107909
3.00457e-05
1.81707e-05
3.15102e-05
7.83055e-05
9.01292e-05
0.000194174
0.000166295
0.00011504
4.39011e-05
1.48003e-05
1.8439e-05
2.68984e-05
3.24136e-05
1.67094e-05
1.76849e-05
1.13616e-05
1.40668e-05
2.70033e-05
9.6443e-06
1.41411e-05
4.88688e-05
5.64118e-05
2.93438e-05
2.00247e-05
3.14001e-05
3.74768e-05
0.000146043
9.44712e-06
7.81872e-06
6.02632e-05
7.80209e-06
3.09218e-05
2.2931e-05
1.56232e-05
1.08459e-05
4.1279e-06
1.5649e-05
3.87412e-05
3.25368e-05
2.35594e-05
1.37343e-05
2.25628e-05
0.000236168
0.000222244
8.84441e-05
0.000114353
0.000105641
3.61416e-05
4.44612e-05
0.000119255
0.000116789
5.35311e-05
2.22387e-05
2.1684e-05
2.01839e-05
1.79818e-05
1.55186e-05
0.000154569
9.95248e-05
6.29148e-05
7.30584e-05
5.05458e-05
2.28464e-05
2.87976e-05
2.29396e-05
0.000197257
1.07157e-05
3.01409e-05
3.3704e-05
1.26442e-05
1.62424e-05
3.99427e-05
1.89044e-05
3.46016e-05
0.00026245
5.3249e-06
1.36532e-05
1.66625e-05
2.90002e-05
1.07878e-05
9.80376e-06
1.25175e-05
0.000148475
7.73067e-05
4.68015e-06
7.63561e-06
9.55004e-05
3.34918e-05
2.16319e-05
1.82359e-05
8.25138e-05
7.92711e-05
9.47753e-05
7.92102e-05
7.56156e-05
3.77127e-05
2.30742e-05
2.39839e-05
0.000150207
0.000241518
2.10725e-05
6.3028e-05
2.05196e-05
1.98469e-05
1.51146e-05
1.82213e-05
3.00237e-05
2.42046e-05
1.97722e-06
8.30308e-05
0.000103638
1.53271e-05
4.75376e-05
0.000200817
5.35179e-05
2.22184e-05
9.29152e-07
2.08454e-05
8.76549e-06
1.4858e-05
8.09957e-05
2.34794e-05
6.96824e-05
2.67357e-05
5.31911e-06
2.88718e-05
1.79961e-05
1.70576e-05
3.3899e-05
1.11713e-05
1.50346e-05
9.69594e-05
2.40523e-05
1.5474e-05
5.03098e-05
4.44782e-05
9.53642e-05
0.000236721
0.00026368
5.10317e-05
5.92395e-05
3.44863e-05
1.08306e-05
8.01937e-06
6.11008e-05
1.37785e-05
1.88902e-05
1.42642e-05
0.000104798
0.000194944
1.21456e-05
7.96259e-06
8.2725e-05
0.000232166
5.46097e-06
1.1274e-05
1.4003e-05
1.05836e-05
1.46014e-05
3.42013e-05
2.28757e-05
6.47025e-05
4.29492e-05
1.98531e-05
8.22888e-05
4.60105e-05
1.09909e-05
0.000140198
2.90769e-05
2.42119e-05
2.85726e-05
1.02176e-05
2.2434e-05
1.31626e-05
1.05267e-05
9.07486e-06
1.9007e-05
5.49529e-05
3.60413e-05
9.41578e-05
0.00012881
0.000184392
0.000233398
0.000207215
0.000119839
2.00218e-06
1.82822e-05
1.5047e-05
2.17302e-05
0.00010378
3.50221e-05
8.04588e-06
0.000238934
0.000238944
1.50284e-05
1.5146e-05
4.06944e-06
1.26669e-05
0.000111566
0.000142306
9.53701e-05
1.64188e-05
1.25924e-05
7.24565e-06
4.50008e-05
2.08271e-05
0.000156261
0.000292014
9.15566e-05
3.43757e-05
1.50423e-06
4.27884e-05
3.34532e-05
8.26858e-06
1.3474e-05
4.9772e-06
3.75917e-06
4.76683e-06
1.56229e-05
5.73464e-05
0.000101769
0.000182689
0.000300619
0.00025951
5.81737e-05
3.30819e-06
6.77426e-05
9.76919e-05
3.50828e-05
2.42593e-05
2.87512e-05
2.81824e-05
0.000179304
0.000149601
2.07621e-05
1.58402e-05
6.79234e-06
0.00011136
0.000124499
4.88942e-05
3.75297e-05
0.000119936
7.7737e-05
5.57734e-06
3.24293e-05
1.09921e-05
0.000224476
0.000288789
0.00011828
4.37109e-05
5.15245e-05
1.96884e-06
7.7512e-06
4.0964e-07
5.86287e-05
1.15778e-05
4.13002e-06
6.30247e-05
2.85235e-05
1.25127e-05
5.25468e-05
8.86144e-05
0.000118479
5.7897e-05
1.08596e-05
1.5056e-05
6.94318e-05
2.46022e-05
4.28746e-05
4.83233e-05
2.19867e-05
7.46627e-05
2.5614e-05
2.00658e-05
1.52075e-05
4.59027e-06
1.88903e-05
9.93932e-05
2.05188e-05
9.84152e-06
8.28261e-05
0.000138227
9.60513e-05
2.26235e-05
3.63549e-05
8.08652e-06
0.000245723
0.000219062
1.18614e-05
2.35257e-05
1.09179e-05
3.55051e-06
2.83015e-05
7.62495e-06
7.41948e-05
1.36603e-05
1.16854e-05
0.000150616
3.98894e-05
1.5936e-05
4.7351e-05
1.65445e-05
3.04276e-05
2.30559e-05
4.71192e-05
5.43588e-05
1.86216e-05
3.51972e-05
1.91535e-05
2.43912e-06
2.0342e-05
6.85602e-05
2.33063e-05
1.39261e-05
7.73398e-05
5.66616e-05
7.44003e-05
9.25953e-05
6.49689e-06
1.22186e-05
8.95224e-06
6.87898e-05
5.75268e-05
2.65483e-05
4.69695e-05
1.4587e-05
0.000213846
0.00011909
1.64718e-05
2.40723e-05
2.70418e-05
1.15603e-05
2.4415e-07
4.80139e-05
3.70465e-05
1.41346e-05
6.52496e-05
6.51796e-05
2.84673e-06
1.60189e-05
2.38667e-05
2.64592e-05
2.50585e-05
7.63246e-05
2.59905e-05
1.51221e-05
3.69347e-05
3.00726e-05
9.98271e-07
1.30089e-05
1.27331e-05
1.66828e-05
3.82331e-05
3.92006e-05
8.84819e-06
1.35712e-05
3.31112e-05
7.19263e-06
3.0672e-06
1.41731e-05
3.57186e-05
2.84062e-05
2.32811e-05
2.7841e-05
5.06441e-05
1.72401e-05
0.000163376
2.92609e-05
1.53295e-05
1.46892e-05
4.60017e-05
1.32216e-05
2.03325e-05
1.14462e-05
3.50076e-05
7.7101e-06
1.94091e-07
1.50016e-05
1.12541e-05
1.34843e-05
3.48568e-05
3.43356e-05
1.22345e-05
3.10573e-05
6.90883e-05
1.56648e-05
7.65697e-06
2.64735e-05
0.000155903
6.15353e-05
1.99666e-05
2.00628e-05
2.39399e-05
1.26518e-05
7.0354e-06
2.56374e-05
4.18567e-06
2.56588e-06
4.54319e-06
6.16111e-05
0.000114624
6.90627e-06
1.81438e-05
4.81465e-05
2.93298e-05
3.32927e-05
7.14181e-05
4.97057e-05
8.0778e-06
3.87586e-05
4.39858e-06
2.4771e-05
1.63284e-05
1.84759e-05
5.75659e-06
3.82029e-06
9.30986e-06
3.27299e-05
8.62555e-06
1.58865e-05
2.39804e-05
3.75431e-05
1.53894e-05
1.65896e-05
7.38732e-05
0.000106079
9.23348e-06
4.2069e-05
0.000114952
1.04403e-05
2.03093e-05
7.76096e-05
7.52316e-05
2.13014e-05
1.78984e-05
5.63282e-05
5.26146e-06
3.40778e-05
4.84798e-06
5.04605e-06
3.57802e-05
3.40877e-06
1.39311e-05
2.62277e-05
3.34081e-05
2.51869e-05
8.43077e-05
7.63765e-07
5.36459e-06
1.46422e-05
2.33364e-05
1.42527e-05
1.3916e-05
1.59292e-05
8.09597e-06
5.5152e-06
1.2872e-05
2.5863e-05
2.74299e-05
8.02174e-06
2.0328e-05
3.52167e-05
9.44697e-05
7.43742e-05
0.000113388
5.35844e-05
4.0903e-05
1.67523e-05
5.80663e-05
2.76202e-05
9.95924e-06
7.85474e-05
7.73635e-05
9.39749e-07
3.75257e-05
0.000108462
2.05525e-05
2.9158e-05
1.09329e-05
4.24158e-05
1.90295e-05
1.52466e-05
6.7997e-06
2.38584e-05
4.09243e-05
8.29394e-05
3.43598e-05
1.83862e-05
5.79026e-05
1.19885e-05
1.89808e-05
3.72975e-07
7.38777e-06
9.62743e-06
1.60482e-05
3.14143e-06
9.86038e-07
1.40948e-05
1.23898e-05
9.27486e-06
1.70452e-05
8.78249e-06
8.27135e-05
0.000139467
4.27201e-05
3.43297e-05
3.41423e-05
5.59588e-05
1.14527e-05
3.24337e-06
5.35774e-05
4.16271e-05
6.48998e-05
3.20781e-06
0.000177532
0.000176574
1.00421e-05
5.92768e-06
2.6695e-06
5.3136e-05
1.90679e-05
3.39632e-06
7.88096e-06
3.73164e-05
7.56458e-05
7.60498e-05
3.88956e-05
4.05561e-05
1.22915e-05
1.01364e-05
1.99153e-06
6.35627e-05
2.4067e-05
1.39417e-05
1.8384e-06
1.36401e-05
4.70312e-05
9.7535e-06
8.29313e-06
1.49131e-05
2.99516e-05
3.3223e-05
0.000163715
5.22187e-05
2.06798e-06
2.55838e-05
1.96039e-05
7.18509e-06
1.96623e-05
8.68715e-05
8.73719e-05
2.4523e-05
3.5063e-05
1.56033e-05
0.000266065
6.49115e-05
2.74596e-05
8.35423e-06
1.84436e-05
3.675e-05
1.14532e-05
1.9184e-06
1.19933e-05
9.99803e-06
4.87118e-05
6.60481e-05
1.66449e-05
1.19205e-06
8.57861e-07
1.61902e-05
8.29898e-05
4.76537e-05
3.1732e-05
6.74893e-06
1.8233e-05
5.37823e-05
7.19503e-05
5.0603e-05
1.49125e-05
2.24311e-05
3.76002e-05
1.1856e-05
0.00012829
6.7301e-06
1.63364e-05
3.08314e-05
1.37144e-05
1.76543e-05
1.25731e-05
0.000141963
2.28338e-05
1.98503e-05
1.62345e-05
1.97753e-05
0.000181548
1.6317e-05
2.65137e-05
2.16668e-05
3.54641e-05
5.11319e-06
4.37749e-05
6.54638e-06
3.32662e-05
6.33468e-06
3.28545e-05
5.39752e-05
2.52e-05
7.62646e-06
1.56754e-06
6.73396e-05
7.37325e-05
4.58053e-05
8.89903e-06
7.12344e-06
7.05804e-05
5.93144e-05
5.71283e-05
4.89515e-05
4.70468e-05
0.000197477
7.58743e-05
6.33434e-06
5.16511e-05
7.80753e-06
3.89126e-05
2.50875e-05
7.55248e-06
1.92643e-05
3.21948e-05
7.06376e-05
1.67071e-05
1.48775e-05
2.12613e-05
5.50891e-05
0.000100749
2.74676e-05
1.27605e-05
7.42059e-06
3.9524e-05
1.48322e-05
1.59098e-05
2.12068e-06
1.89474e-05
2.66587e-05
2.29601e-05
1.94123e-06
7.13664e-05
3.56147e-06
5.37378e-07
9.52044e-05
7.53565e-05
2.36389e-06
6.84759e-06
1.84387e-06
5.59722e-05
2.24225e-05
2.29018e-05
1.03843e-05
2.1936e-05
0.000210983
7.77993e-05
5.64033e-06
3.06817e-06
1.39932e-05
3.36768e-05
1.49512e-05
7.81902e-06
1.47738e-05
1.8051e-05
1.77637e-06
2.04767e-05
2.06484e-05
2.01592e-05
5.56439e-05
0.000127482
3.5901e-05
2.31569e-05
5.75889e-06
1.46746e-05
1.17096e-05
1.07675e-06
5.77821e-06
4.28633e-06
1.08022e-05
4.98713e-06
3.78996e-06
3.46323e-05
6.52776e-06
2.52356e-06
0.000104847
6.1005e-07
9.81733e-08
2.90376e-06
8.57398e-08
5.4716e-05
9.1733e-06
2.81558e-05
1.54708e-05
1.59984e-05
0.00017173
0.000149179
3.77493e-05
2.02262e-06
2.72437e-05
3.78042e-05
2.7516e-05
1.22936e-06
1.74267e-05
5.95312e-06
2.78318e-05
2.35159e-05
2.18669e-05
2.58627e-06
1.0767e-05
0.000146642
1.37793e-05
5.45145e-05
2.73354e-06
1.22838e-05
3.40018e-07
2.08039e-07
1.8111e-05
6.11493e-06
8.53379e-05
7.46109e-06
4.43665e-06
2.34768e-05
5.01775e-05
2.0117e-05
6.14934e-05
1.17995e-06
8.3014e-08
6.24916e-07
1.61275e-06
1.09467e-05
4.16251e-06
6.80233e-05
2.29814e-05
1.6942e-05
0.000172264
0.00018177
7.00377e-05
8.20054e-07
2.12331e-05
1.4484e-05
3.09639e-05
1.62608e-05
2.4118e-05
2.95121e-05
3.46212e-05
1.1454e-05
1.62639e-05
1.27758e-05
1.7452e-05
4.94626e-06
6.04225e-06
1.94205e-05
4.17398e-06
2.99032e-06
1.68712e-06
5.48236e-07
4.66766e-05
3.42193e-05
2.43239e-06
6.93644e-06
4.78449e-06
2.16967e-05
1.57117e-05
7.07411e-06
3.41986e-06
1.00808e-06
1.12751e-07
6.44766e-07
2.06846e-05
4.25735e-06
6.04215e-06
0.000139856
1.45437e-05
2.14369e-05
0.000130982
0.000128913
9.63493e-05
3.01697e-05
2.09579e-05
6.98635e-06
2.51231e-05
4.60319e-05
2.44208e-05
1.41577e-05
3.88293e-05
5.94922e-06
1.01186e-05
3.8354e-05
8.99719e-05
4.50255e-07
6.20516e-06
2.20174e-06
1.03907e-07
2.33715e-07
2.78735e-07
6.37211e-07
3.34165e-06
1.57519e-06
3.22294e-06
2.79401e-06
4.37947e-06
9.56189e-06
4.66708e-05
4.65319e-06
2.17602e-06
1.05116e-06
3.5082e-07
2.88081e-06
0.000133669
1.41441e-05
5.59205e-06
0.000173263
1.0312e-05
1.95369e-05
8.9452e-05
7.27343e-05
0.0001209
6.49608e-05
6.0388e-06
2.29715e-06
2.52852e-05
3.72468e-05
1.00541e-05
1.46958e-05
9.20242e-06
1.9499e-06
4.49766e-06
1.43547e-05
1.54347e-05
2.04404e-07
7.29105e-07
2.0527e-07
2.98151e-08
1.43795e-08
4.1102e-09
7.13021e-07
5.42927e-07
8.33947e-07
1.80551e-06
4.66192e-07
1.82731e-06
1.59103e-05
4.44598e-06
9.06113e-07
1.07577e-06
2.27784e-07
1.45294e-07
3.47789e-05
0.000139883
2.00635e-05
1.04084e-06
6.25221e-05
7.27362e-06
9.87606e-06
4.18999e-05
4.63277e-05
9.53669e-05
1.05731e-05
3.10943e-06
2.92255e-06
2.08777e-05
1.46309e-05
6.97427e-06
1.08747e-05
5.80571e-07
1.33369e-07
8.44341e-07
8.95433e-06
1.85868e-06
1.62117e-07
1.29773e-07
3.3203e-08
3.87221e-08
1.59331e-09
4.45992e-09
5.58175e-07
1.83569e-07
5.57578e-07
7.8366e-07
5.08073e-08
3.62982e-08
4.70432e-05
1.27595e-07
3.35581e-07
1.57556e-07
1.46562e-10
2.90569e-06
9.17353e-05
4.29679e-05
1.54502e-06
2.41832e-07
3.0214e-07
4.61734e-06
1.29636e-05
8.02587e-05
0.0001002
6.88382e-05
5.8709e-06
1.37525e-05
2.31295e-05
7.8392e-06
4.13888e-08
1.03538e-06
3.85609e-07
3.7818e-08
9.99235e-09
9.30245e-08
7.78261e-07
4.74969e-07
1.76884e-08
1.45828e-08
3.17161e-08
1.52261e-08
7.56784e-09
2.44716e-08
1.06617e-07
7.70211e-09
2.36298e-07
2.09529e-07
5.23626e-09
4.46388e-06
9.88851e-08
8.10096e-08
7.8624e-08
2.45048e-09
7.84928e-09
4.02485e-06
6.64275e-06
3.95364e-08
4.08548e-09
5.91849e-08
1.08866e-06
1.36804e-06
1.59861e-05
1.28243e-06
3.22009e-07
1.60459e-05
8.7965e-06