/*--------------------------------*- C++ -*----------------------------------*\
  =========                 |
  \\      /  F ield         | OpenFOAM: The Open Source CFD Toolbox
   \\    /   O peration     | Website:  https://openfoam.org
    \\  /    A nd           | Version:  10
     \\/     M anipulation  |
\*---------------------------------------------------------------------------*/
FoamFile
{
    format      ascii;
    class       volScalarField;
    location    "9";
    object      pPrime2Mean;
}
// * * * * * * * * * * * * * * * * * * * * * * * * * * * * * * * * * * * * * //

dimensions      [0 4 -4 0 0 0 0];

internalField   nonuniform List<scalar> 
25600
(
1.34839e-06
4.54753e-07
1.48933e-06
1.11541e-05
2.15426e-06
9.57724e-07
4.53825e-06
1.43503e-06
2.43992e-06
2.34358e-06
1.00496e-06
2.78327e-06
1.26319e-06
3.29543e-07
6.74e-07
1.56506e-07
4.22812e-06
1.72723e-07
3.5204e-07
3.48934e-06
1.91693e-07
6.1978e-07
5.69476e-06
7.9858e-07
1.13654e-06
4.60499e-06
1.95416e-07
8.70727e-07
6.73282e-07
6.18756e-06
1.2259e-06
4.53152e-06
1.82805e-07
1.99342e-06
3.16071e-06
1.72379e-06
1.73598e-06
2.54047e-06
1.77784e-06
5.84191e-07
1.49221e-06
1.64496e-07
4.1399e-07
7.76436e-06
2.36343e-07
1.34356e-06
2.60969e-06
2.14659e-07
1.7606e-07
1.85737e-07
1.00876e-06
1.79075e-07
4.84828e-07
1.24985e-06
1.16528e-06
2.81215e-07
9.02505e-07
1.6185e-06
1.67488e-07
6.32582e-06
7.78657e-07
1.04311e-06
5.21897e-06
3.824e-07
3.98601e-07
1.6182e-06
1.10833e-07
2.58678e-07
3.5653e-07
4.11473e-06
3.57745e-06
5.65728e-06
4.93491e-07
1.19976e-05
2.43693e-06
1.60962e-07
1.67212e-06
2.0042e-07
2.03811e-06
1.28354e-06
1.14781e-05
1.74977e-06
1.2796e-06
3.15486e-06
3.4393e-07
9.99008e-07
8.63433e-06
5.18153e-06
3.97352e-06
4.18936e-06
5.35606e-07
8.25267e-07
9.26489e-07
2.08696e-07
1.93984e-07
7.7233e-07
3.06538e-06
5.33493e-07
2.4426e-06
6.89606e-06
1.39554e-06
1.64523e-06
6.26003e-06
3.07904e-06
3.41703e-07
4.57585e-06
2.04992e-06
2.50545e-07
1.01693e-06
5.60106e-06
1.87269e-07
5.20985e-07
3.00465e-07
1.49104e-05
1.12938e-06
3.1486e-07
5.65855e-06
3.86587e-07
3.78085e-06
1.84756e-06
8.10802e-06
3.58142e-07
2.92152e-07
9.67457e-07
3.1507e-06
1.23113e-06
9.63588e-07
3.63325e-06
7.41981e-06
9.25679e-06
2.67692e-06
4.9938e-06
4.22933e-06
1.51466e-06
5.25139e-07
7.19167e-07
6.32492e-07
1.93541e-06
5.97237e-06
8.02132e-06
2.72307e-06
2.65567e-07
2.68167e-07
2.98521e-07
1.616e-06
1.58231e-06
3.51806e-06
2.67748e-07
6.37751e-07
8.13238e-07
8.4481e-07
6.2939e-07
3.30635e-06
1.19866e-05
4.2313e-07
3.64672e-07
5.18519e-06
4.41915e-07
2.90493e-07
9.1715e-06
6.40734e-06
2.88105e-07
3.00844e-06
5.3954e-06
4.46187e-06
2.13532e-06
3.75988e-07
6.84853e-06
1.46436e-05
6.30249e-06
1.2562e-06
3.07228e-07
3.62462e-07
5.20809e-06
3.88769e-07
5.06302e-06
3.31115e-06
6.72832e-06
5.0551e-06
2.00365e-06
5.1498e-07
3.37238e-07
6.09366e-07
3.16108e-06
4.28603e-07
4.02446e-06
3.07591e-06
2.41709e-06
3.2439e-06
1.05112e-06
6.46916e-07
2.18567e-06
7.46492e-07
3.79708e-06
4.46123e-07
1.30704e-06
1.49232e-06
2.58286e-06
2.94554e-07
8.82248e-06
1.68034e-06
3.58916e-06
7.82458e-06
6.96994e-06
3.72206e-06
8.44488e-07
2.97289e-06
1.62766e-05
1.28026e-05
1.49107e-06
4.48513e-07
2.56527e-06
1.30597e-06
1.9038e-06
1.32814e-06
3.57223e-06
2.23076e-06
7.85611e-06
4.88904e-06
5.89704e-07
5.64032e-07
2.51601e-06
3.68248e-07
6.39109e-07
2.34451e-06
2.77021e-07
3.9179e-06
5.37806e-07
3.96202e-07
4.21542e-07
6.86316e-07
1.00156e-06
2.11714e-06
2.79691e-06
5.23428e-07
2.84465e-06
7.31936e-07
2.31073e-06
9.94173e-07
9.47961e-06
1.92444e-06
3.60421e-06
1.07323e-05
5.60721e-06
1.82627e-06
9.13676e-07
1.11304e-06
5.873e-06
1.70388e-06
4.20814e-06
5.39973e-06
8.93281e-07
7.2642e-07
4.95386e-07
1.50829e-06
1.2802e-06
1.1873e-06
3.89405e-06
3.6753e-07
3.64969e-06
4.79937e-06
2.25992e-06
8.62465e-07
3.2514e-07
5.93876e-06
7.10262e-07
4.19657e-06
2.44844e-06
6.65384e-06
7.92721e-07
4.56537e-07
4.69684e-07
6.65268e-07
5.08454e-07
5.633e-07
2.17454e-06
7.08126e-07
1.00127e-06
1.17675e-05
1.8246e-05
2.84924e-06
7.8462e-07
4.01145e-06
1.61822e-06
1.89026e-06
9.65275e-07
2.90378e-06
1.15351e-05
4.67608e-06
2.44394e-06
7.40534e-07
6.29198e-06
1.97222e-06
7.02791e-07
1.07261e-06
1.81372e-06
1.53964e-06
3.04706e-06
5.85785e-07
1.86043e-06
5.60245e-07
3.27917e-06
1.25646e-05
2.9016e-06
6.26945e-07
3.37331e-06
1.69406e-06
2.57044e-06
1.32999e-06
1.14442e-06
5.41947e-07
6.10913e-06
3.59808e-06
5.17944e-07
1.71719e-06
7.17823e-06
3.63415e-06
5.77032e-06
2.40814e-05
1.57356e-05
9.41354e-06
3.50016e-06
8.79229e-06
7.61527e-07
6.64354e-07
1.03952e-06
4.23706e-06
1.28505e-05
6.55083e-06
3.0034e-06
1.75575e-06
1.49732e-06
1.30775e-06
2.03357e-06
8.94826e-07
5.60215e-07
1.62279e-06
1.12702e-05
2.82117e-06
5.249e-06
2.67605e-06
2.21486e-06
1.26103e-05
4.2974e-06
6.39659e-07
6.696e-06
9.40235e-07
4.35302e-06
2.42879e-06
9.22947e-07
5.13812e-07
9.20431e-06
3.17605e-06
4.12065e-07
2.5179e-06
5.61032e-06
3.30014e-07
2.91361e-07
2.33677e-05
4.02498e-05
1.82616e-06
3.67753e-06
5.22334e-07
7.53562e-06
8.29638e-07
1.29122e-06
7.9496e-07
4.48323e-06
4.62216e-06
1.11593e-06
7.92368e-07
3.40856e-06
9.34365e-07
1.91087e-06
5.88737e-07
7.52108e-07
3.36975e-06
1.50203e-05
1.34047e-06
7.9986e-06
5.67607e-07
8.50139e-06
7.82206e-06
9.67565e-07
6.11106e-07
4.85947e-06
9.6758e-07
1.31074e-05
1.23456e-05
5.44801e-07
7.45741e-07
4.30059e-06
4.70739e-07
2.00463e-06
7.48009e-06
1.25718e-05
8.99925e-07
6.15959e-07
3.19015e-06
4.89326e-06
7.02154e-06
2.20019e-06
1.37864e-06
1.23811e-05
1.01942e-06
2.31432e-06
8.69526e-07
1.15188e-05
1.25367e-05
7.6941e-07
2.41287e-06
5.35705e-06
1.82969e-06
6.90152e-07
1.03296e-06
5.06977e-07
2.62104e-06
3.17068e-05
4.96628e-06
1.00964e-05
6.24783e-07
1.08289e-05
8.72301e-06
1.44853e-06
7.7909e-07
1.70212e-06
2.92035e-06
1.05524e-05
9.06559e-06
2.73434e-06
4.03684e-06
5.1888e-06
1.92379e-06
5.41881e-07
3.05379e-06
1.21297e-05
2.42459e-06
1.30518e-06
6.78081e-07
5.757e-06
4.94626e-06
3.45648e-06
4.43745e-06
2.09181e-05
2.09033e-06
1.30244e-06
8.21718e-07
7.56063e-06
5.15547e-06
1.03849e-06
2.06581e-06
3.08209e-06
6.29559e-07
5.34868e-07
5.4255e-07
2.37064e-06
8.72736e-07
3.08821e-05
6.94674e-06
3.45049e-06
3.65678e-06
1.70045e-05
8.23727e-06
1.18593e-06
1.47173e-06
3.06591e-06
1.22256e-06
4.72783e-06
1.13369e-06
7.33069e-06
1.28232e-06
1.16594e-05
4.19363e-06
7.38706e-07
9.12828e-06
2.23109e-05
1.89582e-06
3.06215e-07
4.70421e-07
6.83983e-06
2.42061e-06
2.6311e-06
8.19422e-06
2.04585e-05
7.85529e-07
1.94342e-06
1.14203e-06
3.72453e-06
1.45461e-06
6.42909e-07
4.73467e-06
1.42201e-06
4.2972e-07
2.75076e-06
1.13474e-06
4.35521e-06
8.33084e-07
3.40217e-05
6.33866e-06
4.99009e-06
1.3048e-06
5.99396e-06
2.16649e-06
1.01857e-06
4.52019e-06
1.797e-06
8.52632e-06
1.26176e-05
3.09626e-06
4.3533e-06
5.5096e-07
1.1369e-05
6.42375e-06
1.59607e-06
1.43676e-05
2.41359e-05
1.0332e-06
3.01171e-07
1.45997e-06
2.40832e-06
3.79873e-06
1.29e-06
9.80612e-06
2.53909e-05
1.43186e-06
2.41779e-06
2.29986e-06
4.49074e-06
2.51289e-06
1.5459e-06
4.66325e-06
4.74602e-07
2.27864e-06
1.13198e-05
1.67998e-06
4.92818e-06
1.45456e-06
3.63302e-05
6.26286e-06
5.1711e-06
1.48456e-06
8.35445e-06
2.86087e-06
1.86661e-06
4.18067e-06
4.9991e-07
1.84692e-05
1.70358e-05
2.20221e-06
6.46951e-06
1.07639e-06
6.84432e-06
7.35387e-06
1.96909e-06
1.87523e-05
2.40885e-05
8.23761e-07
3.20413e-07
1.32867e-06
2.8575e-06
3.95408e-06
1.49884e-06
8.69464e-06
2.61243e-05
7.43331e-07
5.10379e-06
2.27974e-06
7.95356e-06
1.67735e-06
9.38295e-07
9.65158e-07
7.51385e-07
1.74487e-06
5.09097e-06
3.73809e-07
1.02062e-05
6.9438e-07
3.0522e-05
4.74161e-06
4.61166e-06
2.38479e-06
7.22276e-06
1.3498e-06
8.44051e-07
2.22946e-06
8.40727e-07
1.93368e-05
1.48954e-05
1.46305e-06
2.13008e-05
6.50803e-06
9.28334e-07
3.37568e-06
7.09106e-07
3.19964e-05
2.30743e-05
4.53831e-07
6.4586e-07
1.19304e-06
2.38398e-06
4.61114e-06
2.12119e-06
5.36442e-06
2.41983e-05
1.22081e-06
5.77979e-06
2.70945e-06
8.70865e-06
2.28451e-06
2.84793e-06
9.45575e-07
1.00431e-06
4.89685e-07
1.01052e-06
1.92317e-06
1.3572e-05
6.55921e-07
2.34558e-05
3.82423e-06
2.83416e-06
4.33779e-06
6.37708e-06
8.46353e-07
8.07899e-07
4.28273e-06
5.3192e-07
1.80004e-05
1.04657e-05
9.3873e-06
3.56126e-05
1.50667e-05
6.68539e-07
6.04159e-06
6.91489e-07
3.83055e-05
1.38731e-05
3.64857e-07
1.09029e-06
1.28468e-06
2.6776e-06
5.30542e-06
1.6463e-06
4.86553e-06
2.63393e-05
3.88363e-06
3.67023e-06
2.82083e-06
6.77819e-06
1.72467e-06
5.22032e-06
1.43117e-06
1.43658e-06
6.48876e-07
1.21796e-06
4.03017e-06
1.82441e-05
6.37416e-07
3.51368e-05
6.6462e-06
1.73342e-06
7.90261e-06
8.00388e-06
6.97754e-07
7.58157e-07
9.27154e-06
2.15439e-06
2.13745e-05
9.3295e-06
1.38448e-05
3.08669e-05
1.59183e-05
1.04952e-06
7.77421e-06
1.71398e-06
2.85359e-05
4.89925e-06
9.36752e-07
1.19207e-06
1.49019e-06
2.64403e-06
3.51753e-06
6.65489e-06
8.70784e-07
1.51089e-05
3.43382e-06
4.77369e-06
5.31268e-06
2.80983e-06
1.13256e-06
6.84515e-06
1.74654e-06
4.26661e-06
9.96857e-07
4.25201e-06
4.77584e-06
1.74957e-05
3.0865e-06
6.1404e-05
1.0583e-05
1.63063e-06
9.03444e-06
6.72991e-06
2.24071e-06
9.96996e-07
1.90926e-05
3.20996e-06
3.69019e-05
1.28274e-05
1.45409e-05
3.4856e-05
2.15462e-05
2.55049e-06
9.98452e-06
2.99978e-06
1.44673e-05
1.84758e-06
9.96732e-07
1.06396e-06
1.79209e-06
3.27943e-06
4.38373e-06
9.78812e-06
1.4074e-06
7.03763e-06
2.22512e-06
9.42488e-06
9.88937e-06
1.43031e-06
3.70308e-06
6.61072e-06
1.53876e-06
6.85e-06
5.75973e-07
9.93767e-06
2.97954e-06
1.2623e-05
9.62121e-06
8.27484e-05
1.11389e-05
2.033e-06
1.12199e-05
7.18101e-06
9.16819e-06
2.66483e-06
3.38731e-05
3.40503e-06
6.31971e-05
1.51631e-05
2.17581e-05
4.85145e-05
2.58092e-05
1.5003e-06
1.68562e-05
5.28814e-06
7.54611e-06
1.23537e-06
1.47613e-06
1.28939e-06
1.88317e-06
3.04694e-06
9.68579e-06
7.35137e-06
2.44785e-06
9.85126e-06
5.29916e-06
7.73282e-06
1.18323e-05
1.71053e-06
9.50105e-06
6.92999e-06
1.37612e-06
1.01888e-05
1.58043e-06
2.06035e-05
2.08551e-06
1.41717e-05
1.0898e-05
8.0581e-05
9.88739e-06
1.73883e-06
1.31509e-05
5.65498e-06
1.93285e-05
3.78906e-06
5.09891e-05
2.60727e-06
9.91097e-05
1.60582e-05
3.09555e-05
6.09075e-05
2.84133e-05
1.59827e-06
1.62908e-05
6.12578e-06
6.64383e-06
1.11164e-06
1.63225e-06
3.07755e-06
1.91327e-06
2.76343e-06
1.69697e-05
7.0683e-06
3.13928e-06
1.92842e-05
1.27374e-05
6.72392e-06
1.3858e-05
2.35603e-06
1.46096e-05
6.28814e-06
1.05321e-06
1.73684e-05
1.41241e-06
2.21661e-05
4.57553e-06
1.86844e-05
9.19352e-06
6.80303e-05
9.65463e-06
2.4288e-06
7.37537e-06
2.36536e-06
2.06222e-05
2.11315e-06
7.09474e-05
1.42741e-06
0.000148635
1.59805e-05
3.90751e-05
7.36012e-05
3.31634e-05
3.46477e-06
7.53069e-06
3.0606e-06
1.23121e-05
1.50499e-06
1.47352e-06
5.60109e-06
2.07629e-06
2.96647e-06
2.45166e-05
7.65183e-06
3.65728e-06
2.84058e-05
1.77359e-05
7.40437e-06
1.27087e-05
3.15328e-06
1.94849e-05
4.08549e-06
9.23867e-07
3.89676e-05
8.61242e-07
2.37715e-05
5.19455e-06
2.06971e-05
9.04298e-06
6.62469e-05
9.03398e-06
4.75266e-06
4.12619e-06
2.97014e-06
1.5237e-05
1.44656e-06
8.25595e-05
2.63699e-06
0.0001948
1.55243e-05
4.57502e-05
7.13793e-05
3.40824e-05
7.7474e-06
3.97016e-06
2.55245e-06
1.43614e-05
1.65278e-06
1.83196e-06
6.71687e-06
2.45582e-06
3.37544e-06
3.42185e-05
7.29731e-06
3.33677e-06
3.57857e-05
2.18726e-05
5.74051e-06
9.17434e-06
4.34914e-06
2.20795e-05
2.38209e-06
1.60813e-06
7.31608e-05
1.73806e-06
3.08739e-05
5.72891e-06
2.30776e-05
9.35667e-06
7.40625e-05
8.58534e-06
6.71191e-06
4.08976e-06
3.54466e-06
1.8297e-05
1.56254e-06
9.24441e-05
4.3843e-06
0.000239708
1.61991e-05
5.303e-05
6.08285e-05
3.99077e-05
1.93816e-05
3.10453e-06
3.96466e-06
1.19386e-05
1.75152e-06
1.65155e-06
9.26164e-06
3.33467e-06
3.81435e-06
4.01874e-05
7.23658e-06
1.78152e-06
5.03804e-05
2.76669e-05
4.71314e-06
7.41957e-06
5.71124e-06
2.55101e-05
2.32795e-06
4.32078e-06
9.35872e-05
1.32013e-06
3.54226e-05
5.7671e-06
2.32191e-05
9.09094e-06
8.20098e-05
8.99713e-06
7.19379e-06
4.1831e-06
3.34608e-06
2.1151e-05
1.88274e-06
0.00010301
4.69454e-06
0.000266294
1.77739e-05
4.8981e-05
4.99064e-05
5.98765e-05
3.54817e-05
3.48299e-06
5.27815e-06
1.32462e-05
2.05603e-06
1.74428e-06
1.09228e-05
3.90807e-06
4.62317e-06
4.12752e-05
6.34859e-06
1.29935e-06
6.9938e-05
3.16899e-05
5.67583e-06
8.40683e-06
8.38631e-06
2.98843e-05
3.66546e-06
8.44095e-06
9.33994e-05
8.65532e-07
3.7475e-05
4.76088e-06
2.07788e-05
9.05377e-06
8.5252e-05
8.66507e-06
7.79113e-06
3.8884e-06
3.53406e-06
2.04331e-05
2.2257e-06
0.000108625
5.22125e-06
0.000283517
1.96148e-05
4.76967e-05
4.92491e-05
8.4415e-05
4.10848e-05
5.09422e-06
5.73544e-06
1.50056e-05
2.06182e-06
1.90666e-06
1.09307e-05
3.96725e-06
5.44917e-06
4.41043e-05
4.28824e-06
2.00224e-06
8.3363e-05
3.1638e-05
6.96638e-06
9.08729e-06
1.15236e-05
3.6325e-05
6.71105e-06
8.50555e-06
8.03695e-05
1.6702e-06
4.02555e-05
3.8492e-06
1.89186e-05
8.70129e-06
8.57281e-05
8.95314e-06
8.07352e-06
3.55379e-06
3.78965e-06
2.00383e-05
2.10044e-06
0.000110411
5.1947e-06
0.000299629
2.24124e-05
5.05471e-05
5.79075e-05
0.000104912
4.30467e-05
6.57808e-06
6.351e-06
1.47949e-05
2.13248e-06
2.02904e-06
1.07572e-05
4.44285e-06
6.15848e-06
4.82791e-05
3.24088e-06
2.96244e-06
8.84515e-05
2.96186e-05
7.53007e-06
9.40221e-06
1.4517e-05
4.17996e-05
6.69887e-06
5.24476e-06
6.75524e-05
2.6893e-06
4.2904e-05
3.37338e-06
1.79201e-05
7.94774e-06
8.29104e-05
9.65189e-06
8.3921e-06
2.89407e-06
4.01122e-06
1.94984e-05
1.86919e-06
0.000107969
4.52274e-06
0.000315668
2.73673e-05
5.28617e-05
6.96728e-05
0.000124928
4.68381e-05
7.49926e-06
7.06153e-06
1.54449e-05
2.28187e-06
2.16018e-06
9.62739e-06
5.0389e-06
7.1949e-06
4.96513e-05
3.33159e-06
3.51215e-06
8.92742e-05
2.767e-05
7.9494e-06
9.36726e-06
1.39409e-05
4.18328e-05
4.15378e-06
3.32298e-06
6.3976e-05
2.70152e-06
4.62827e-05
2.5689e-06
1.6886e-05
7.28183e-06
7.94635e-05
9.90358e-06
8.88424e-06
2.38148e-06
4.22969e-06
1.97987e-05
1.80423e-06
0.000108613
3.51574e-06
0.000318225
3.06892e-05
5.56536e-05
7.9286e-05
0.000139129
4.56007e-05
8.29714e-06
6.83448e-06
1.59463e-05
2.32376e-06
2.30557e-06
9.25299e-06
5.19803e-06
7.91854e-06
4.86694e-05
3.45743e-06
3.58637e-06
8.85381e-05
2.65513e-05
7.72334e-06
8.3232e-06
1.21925e-05
3.99343e-05
3.1274e-06
3.00033e-06
6.38278e-05
2.88186e-06
5.0166e-05
1.74632e-06
1.6556e-05
6.4468e-06
7.65785e-05
9.90945e-06
9.30073e-06
2.08368e-06
4.15607e-06
1.99078e-05
1.8788e-06
0.000112111
2.7067e-06
0.000308755
2.90016e-05
5.68484e-05
7.94909e-05
0.000141022
4.30714e-05
8.46838e-06
6.493e-06
1.61624e-05
2.3764e-06
2.36877e-06
9.26795e-06
5.29387e-06
7.86724e-06
4.78671e-05
3.56419e-06
3.37909e-06
8.73785e-05
2.59272e-05
7.39502e-06
7.56241e-06
1.10578e-05
3.85365e-05
3.06675e-06
2.85032e-06
6.26253e-05
3.09402e-06
5.34595e-05
1.4069e-06
1.7455e-05
5.72984e-06
7.48136e-05
1.00145e-05
9.51648e-06
1.92387e-06
3.83182e-06
1.95067e-05
1.98796e-06
0.000112381
2.38079e-06
0.000298262
2.74621e-05
5.49721e-05
7.81454e-05
0.000140038
4.1128e-05
8.95677e-06
6.5169e-06
1.65466e-05
2.4096e-06
2.40283e-06
8.85723e-06
5.45457e-06
7.80547e-06
4.73069e-05
3.733e-06
3.28372e-06
8.65419e-05
2.53935e-05
7.48295e-06
7.33434e-06
1.04532e-05
3.74015e-05
3.06832e-06
2.68235e-06
6.08424e-05
3.23581e-06
5.38332e-05
1.30588e-06
1.79902e-05
5.44956e-06
7.35971e-05
1.00195e-05
9.59401e-06
1.84564e-06
3.80708e-06
1.90969e-05
1.9486e-06
0.000112032
2.18595e-06
0.000291435
2.64286e-05
5.4429e-05
7.74306e-05
0.000137783
3.96607e-05
9.49152e-06
6.40677e-06
1.70532e-05
2.4049e-06
2.438e-06
8.58698e-06
5.40869e-06
7.81466e-06
4.72247e-05
3.70552e-06
3.25582e-06
8.60447e-05
2.49912e-05
7.65147e-06
7.42436e-06
1.02797e-05
3.64676e-05
2.98275e-06
2.55235e-06
5.99491e-05
3.11123e-06
5.33835e-05
1.24015e-06
1.79606e-05
5.31054e-06
7.26986e-05
1.00057e-05
9.5773e-06
1.83306e-06
3.82329e-06
1.90326e-05
1.93991e-06
0.000111599
2.12029e-06
0.00028783
2.5761e-05
5.4351e-05
7.68888e-05
0.000136529
3.8928e-05
9.6835e-06
6.29541e-06
1.72551e-05
2.40288e-06
2.44098e-06
8.50862e-06
5.35547e-06
7.8207e-06
3.21074e-06
3.30943e-07
1.83545e-06
5.80275e-06
2.16116e-07
3.91207e-06
3.5162e-06
2.41111e-06
4.93067e-06
4.8204e-06
2.35003e-06
3.81458e-06
1.49786e-07
2.24017e-06
1.58709e-06
1.47686e-07
2.95516e-06
4.72054e-07
1.58669e-07
2.85641e-06
2.05954e-07
7.70537e-07
5.92013e-06
1.07993e-06
2.10079e-06
5.86478e-06
2.98096e-07
3.04985e-06
1.1632e-06
4.00324e-06
1.93588e-06
3.15686e-06
1.57347e-07
2.21663e-06
2.97905e-06
1.66458e-06
1.575e-06
3.93364e-06
2.76689e-06
1.32875e-07
1.43716e-06
7.00077e-07
6.96105e-07
4.34105e-06
1.12711e-06
3.19155e-06
1.30598e-06
1.88883e-07
3.04129e-07
3.66511e-07
5.3617e-07
2.15465e-07
1.68222e-07
2.38299e-06
2.19853e-06
3.20053e-07
1.86535e-06
7.65429e-07
1.86371e-07
6.33287e-06
1.56581e-06
2.28084e-06
6.64934e-06
5.79824e-07
3.15603e-07
2.38072e-07
3.48431e-07
2.218e-07
1.4685e-07
3.68522e-06
4.40345e-06
3.56911e-06
2.838e-07
1.20082e-05
3.34883e-06
7.2728e-07
3.17028e-06
4.55664e-07
7.07829e-07
4.28731e-07
3.5094e-06
2.35579e-07
6.43988e-07
1.7664e-06
5.28536e-07
2.60346e-07
3.27154e-06
2.38881e-06
3.55602e-06
4.69457e-06
8.66805e-07
2.42221e-06
4.50048e-06
2.38e-06
2.27679e-06
3.02367e-06
3.18493e-06
2.92216e-07
1.79125e-06
8.67357e-06
4.17936e-06
4.26289e-06
8.91034e-06
4.75468e-06
7.7225e-07
3.28836e-06
1.90696e-06
1.96873e-07
2.24629e-06
5.00439e-06
2.09141e-07
1.84688e-06
1.46242e-06
9.76165e-06
6.8707e-07
8.42029e-07
1.11527e-05
7.97285e-07
4.44643e-07
1.74154e-06
1.75835e-06
2.62114e-07
2.35443e-07
6.83096e-07
3.30213e-06
1.7742e-06
4.16902e-07
1.68856e-06
2.74183e-06
1.71562e-06
3.55477e-07
1.40581e-06
2.42624e-06
1.925e-06
3.72101e-07
1.38905e-06
5.51994e-07
5.48238e-07
1.83984e-06
3.21337e-06
1.24976e-06
2.54253e-07
2.20236e-07
3.21888e-07
3.46658e-07
2.10263e-06
5.53822e-06
1.89898e-07
1.33325e-06
1.91519e-06
3.39002e-07
8.05066e-07
2.23158e-06
1.51425e-05
5.0072e-07
2.66083e-06
8.8679e-06
9.73149e-07
6.66485e-07
3.57024e-06
1.10316e-06
2.51893e-07
8.86724e-07
2.46908e-06
4.61266e-06
3.36031e-06
7.15178e-07
9.64119e-07
1.31129e-06
8.7505e-07
7.57537e-06
3.31597e-07
3.02596e-06
6.5849e-07
3.62994e-06
6.7485e-06
1.11103e-06
1.68662e-06
1.98016e-06
2.48205e-06
3.83734e-06
2.45358e-06
4.39365e-06
1.15839e-05
4.82669e-06
6.81496e-06
2.68897e-06
4.65073e-06
5.52744e-06
1.16733e-06
1.06023e-06
3.82991e-06
6.17095e-07
3.51514e-06
4.11252e-07
4.63121e-06
5.75872e-06
3.43249e-07
9.23141e-07
4.05774e-06
2.74932e-06
2.69599e-07
9.97439e-07
1.72142e-06
3.49289e-06
1.71088e-06
4.51975e-07
2.00626e-06
5.14706e-07
3.82806e-06
4.28781e-06
1.14268e-06
4.65251e-07
3.31531e-06
2.103e-06
4.00384e-06
8.88049e-07
2.52443e-06
1.22222e-06
3.78488e-07
5.0201e-07
1.64415e-06
3.54745e-07
2.45582e-06
5.90949e-07
1.06306e-06
4.44005e-06
3.16764e-07
1.14725e-06
1.52133e-06
4.29451e-06
3.53768e-06
3.48762e-06
7.23759e-06
3.163e-06
1.00402e-05
1.47318e-06
1.5239e-06
1.01969e-06
4.61695e-06
3.49874e-06
8.26254e-07
5.47859e-06
3.17202e-06
2.68067e-06
5.04927e-07
4.83058e-06
4.60992e-06
1.01892e-06
1.30911e-05
7.85216e-06
4.70032e-07
5.41127e-07
3.89769e-07
2.72776e-06
1.58741e-06
6.71435e-07
8.89973e-07
1.13991e-06
4.25963e-06
1.87786e-06
9.55319e-07
2.64958e-06
3.46748e-06
5.37973e-07
3.53177e-06
4.66605e-06
1.96483e-06
5.13648e-06
1.59878e-06
1.19934e-06
1.25691e-06
1.58212e-06
1.27329e-06
1.91066e-06
8.19943e-06
5.66349e-07
3.30391e-07
4.77178e-06
6.09124e-06
7.42384e-06
3.25349e-06
2.99131e-06
8.85735e-07
5.46469e-07
3.46651e-06
2.27924e-05
2.20221e-05
3.33195e-06
3.98509e-06
1.84782e-06
2.40898e-06
4.7658e-07
2.2797e-06
6.81112e-07
2.14415e-06
9.48394e-07
2.3438e-06
1.04122e-06
4.96125e-07
1.80108e-06
7.82437e-06
2.68621e-05
1.26019e-05
3.40044e-07
5.81301e-06
3.07292e-06
1.8094e-06
1.4897e-06
5.4754e-07
4.76605e-07
3.92694e-06
4.33713e-07
2.25608e-06
9.87922e-06
1.7501e-05
5.14107e-07
3.51679e-07
4.34729e-06
1.18958e-05
2.10252e-06
9.50146e-06
1.28012e-06
6.13651e-06
1.61777e-06
8.76479e-06
3.25945e-05
2.96341e-05
3.33697e-06
9.51876e-06
9.42719e-06
5.58326e-07
7.93154e-07
2.03394e-06
6.35536e-06
6.39584e-07
4.29554e-07
5.91312e-06
8.04638e-07
3.32965e-06
1.48125e-06
1.70931e-05
2.73321e-05
2.99736e-06
1.65055e-06
2.77673e-06
1.23116e-06
1.12118e-06
7.63905e-07
1.12986e-06
5.22568e-07
6.87829e-06
4.84902e-07
1.38585e-06
6.88869e-06
1.27271e-05
3.36814e-07
1.63731e-06
2.19015e-05
2.18835e-05
6.35851e-06
1.43191e-06
3.71867e-06
1.16255e-05
8.97227e-07
9.51823e-07
6.89582e-06
6.23566e-06
5.38389e-07
1.23821e-05
2.31132e-06
7.91531e-07
2.22521e-06
1.43786e-06
7.4976e-07
5.5765e-07
1.91656e-06
1.41419e-05
3.06747e-06
9.22681e-07
7.64087e-06
2.35335e-05
1.51921e-05
2.46115e-07
9.1501e-07
7.41544e-06
3.5236e-06
5.90904e-07
2.47815e-06
1.57855e-06
2.59e-06
1.0372e-06
2.15832e-06
5.13455e-06
1.55763e-05
2.14239e-05
9.95929e-07
1.34212e-06
5.29547e-06
1.04199e-05
2.54341e-05
5.14222e-07
9.08109e-06
1.73007e-05
6.9038e-07
1.34338e-06
1.05205e-05
2.35781e-05
6.61006e-06
6.60958e-06
4.16755e-06
2.84937e-06
5.05887e-06
7.35484e-07
3.94202e-06
2.08038e-06
3.42637e-06
2.46529e-05
9.35472e-06
1.01876e-06
6.90851e-06
3.46039e-05
1.72333e-05
2.65152e-07
3.25978e-07
5.03942e-06
4.68557e-07
4.29385e-06
7.39954e-06
1.79489e-06
1.3991e-06
4.20728e-06
1.25485e-06
2.77091e-06
1.27464e-05
1.48278e-05
5.77084e-07
2.97541e-07
3.42846e-06
2.7033e-05
1.31494e-05
6.29927e-06
2.81084e-06
1.10907e-05
6.2036e-07
1.09858e-06
6.98544e-06
2.28652e-05
4.87224e-06
6.76091e-06
2.39597e-06
2.46589e-06
5.84704e-06
1.90191e-06
1.88181e-06
7.01294e-07
8.52225e-07
2.06031e-05
1.03656e-05
5.66911e-07
9.50715e-06
3.07361e-05
3.50239e-06
3.97401e-06
2.82679e-07
7.87014e-06
1.02652e-06
6.55569e-06
7.50077e-06
4.94273e-06
1.50995e-06
3.61288e-06
1.8417e-06
1.68335e-06
1.34182e-05
1.60369e-05
9.4656e-07
3.16963e-07
4.00639e-06
2.80434e-05
1.60862e-05
3.58337e-06
4.99193e-06
1.37764e-05
7.22917e-07
6.87776e-07
2.43815e-06
1.54593e-05
3.20855e-06
2.91353e-06
5.63207e-07
1.59289e-06
4.10459e-06
5.64201e-07
3.52314e-06
2.25001e-06
5.79964e-07
3.59469e-05
1.49123e-05
1.94973e-06
4.59954e-06
2.2234e-05
7.87904e-07
3.48556e-06
2.03969e-06
1.40835e-05
4.37989e-07
1.7915e-05
1.14085e-05
8.31897e-06
3.54251e-06
2.08436e-06
1.22185e-06
2.52864e-06
8.68455e-06
9.31962e-06
2.10042e-06
4.01957e-07
1.63705e-06
2.15127e-05
2.98787e-05
3.14601e-06
2.20691e-06
1.68005e-05
2.20604e-06
8.27414e-07
7.08793e-07
1.13504e-05
3.77552e-06
1.53464e-06
5.97962e-07
1.30523e-06
6.62621e-07
6.56075e-06
6.69046e-06
2.23489e-06
7.75823e-07
2.64673e-05
7.16946e-06
4.22721e-06
6.45306e-06
2.35397e-05
4.26694e-07
2.73692e-06
5.59876e-06
1.89849e-05
6.05066e-07
2.73304e-05
1.5906e-05
8.57875e-06
4.80187e-06
6.02838e-07
7.79183e-07
2.5684e-06
5.37051e-06
4.53151e-06
2.53367e-06
5.18491e-07
1.02358e-06
2.97937e-05
1.68587e-05
8.5487e-06
1.14038e-06
2.00305e-05
1.83651e-06
1.86475e-06
8.10795e-07
1.37879e-05
2.69829e-06
2.73043e-06
1.74253e-06
2.05086e-06
2.03531e-06
1.27891e-05
6.70815e-06
5.33854e-06
4.24456e-06
1.79191e-05
4.18282e-06
6.40665e-06
6.89321e-06
1.82166e-05
1.23645e-06
4.37931e-06
8.88885e-06
2.34412e-05
1.30659e-06
4.07884e-05
1.08696e-05
1.48221e-05
5.04452e-06
7.95078e-07
1.38341e-06
1.58151e-06
1.03769e-05
7.05577e-06
2.52003e-06
3.34409e-07
4.20034e-07
1.93414e-05
1.30129e-05
1.71196e-05
7.38921e-07
1.94429e-05
1.9819e-06
4.90645e-06
1.91065e-06
1.13268e-05
2.01544e-06
4.08959e-06
4.62262e-06
7.40857e-06
3.01302e-06
1.11732e-05
7.90062e-06
3.57646e-06
6.96032e-06
1.15071e-05
2.37327e-06
7.23182e-06
5.20537e-06
9.46872e-06
4.90431e-06
3.67631e-06
1.91401e-05
3.06778e-05
3.62675e-06
5.34269e-05
7.98564e-06
1.36029e-05
5.74336e-06
8.90573e-07
3.97363e-06
2.23538e-06
1.65267e-05
8.50865e-06
2.56284e-06
7.19679e-07
1.41068e-06
1.54066e-05
1.6257e-05
9.82189e-06
8.52403e-07
2.9329e-05
6.2088e-06
7.16279e-06
2.29444e-06
1.21813e-05
2.23024e-06
4.33688e-06
8.5203e-06
1.13994e-05
2.51655e-06
1.34746e-05
1.41905e-05
3.9253e-06
1.59447e-05
1.07777e-05
2.25132e-06
8.44097e-06
5.11818e-06
7.91267e-06
6.6742e-06
1.43255e-06
3.3899e-05
3.59045e-05
6.93048e-06
5.21406e-05
4.83072e-06
1.03175e-05
6.00509e-06
1.15721e-06
8.64198e-06
1.32561e-06
2.86933e-05
1.04665e-05
1.81799e-06
5.90245e-07
1.77192e-06
1.41988e-05
1.58276e-05
9.93882e-06
8.12722e-07
3.37085e-05
5.67332e-06
1.4908e-05
3.38945e-06
1.15173e-05
2.18073e-06
2.74684e-06
7.36929e-06
5.57575e-06
1.80226e-06
1.86394e-05
2.01858e-05
7.04618e-06
3.19879e-05
7.58103e-06
1.93815e-06
7.46556e-06
5.82681e-06
3.14235e-06
1.35973e-05
7.87438e-07
4.89861e-05
4.14921e-05
1.33062e-05
6.18986e-05
4.95573e-06
1.03057e-05
1.07265e-05
1.18893e-06
1.61474e-05
1.68739e-06
3.37065e-05
1.05828e-05
1.72027e-06
5.53199e-07
3.01445e-06
9.01555e-06
1.92065e-05
1.11462e-05
6.03359e-07
4.37767e-05
6.50171e-06
2.18495e-05
2.69434e-06
1.56509e-05
2.15145e-06
1.56058e-06
3.66549e-06
2.96297e-06
4.15516e-06
2.97698e-05
3.33552e-05
5.73321e-06
4.1354e-05
7.27345e-06
3.27394e-06
6.45301e-06
6.2781e-06
1.01942e-06
1.97855e-05
2.00007e-06
7.64349e-05
5.75133e-05
2.23284e-05
8.28264e-05
1.03977e-05
9.51021e-06
1.71138e-05
2.8656e-06
3.00606e-05
2.25275e-06
3.69676e-05
1.21934e-05
1.67564e-06
6.84041e-07
4.2924e-06
7.02348e-06
2.0455e-05
1.01903e-05
4.7787e-07
4.98296e-05
7.68598e-06
2.66341e-05
2.66637e-06
1.67704e-05
2.11985e-06
8.32214e-07
2.07139e-06
2.465e-06
6.4699e-06
4.25702e-05
4.68602e-05
5.28826e-06
4.85231e-05
6.79913e-06
4.46655e-06
5.42379e-06
8.06345e-06
1.15853e-06
2.38454e-05
6.86107e-06
0.000111946
7.77804e-05
3.33471e-05
0.000103619
1.84829e-05
7.52436e-06
2.22408e-05
7.10566e-06
4.29736e-05
2.61072e-06
4.34351e-05
1.34306e-05
2.551e-06
8.78474e-07
4.98048e-06
5.27524e-06
1.94168e-05
1.18704e-05
5.80143e-07
5.29312e-05
6.63916e-06
3.14128e-05
2.30864e-06
1.70271e-05
2.49888e-06
6.27424e-07
1.59223e-06
2.54948e-06
8.00532e-06
5.30223e-05
5.44493e-05
8.05435e-06
6.34196e-05
4.0462e-06
5.21525e-06
5.469e-06
7.15594e-06
2.6688e-06
1.95058e-05
1.11015e-05
0.000136415
9.75914e-05
4.32074e-05
0.000124877
2.97259e-05
7.62095e-06
3.36999e-05
8.61809e-06
4.91186e-05
1.83358e-06
5.38618e-05
1.2496e-05
5.38031e-06
1.39457e-06
5.68756e-06
4.42157e-06
1.97104e-05
1.53645e-05
1.65275e-06
5.55983e-05
5.87662e-06
3.40555e-05
1.90749e-06
1.44483e-05
2.28552e-06
8.23625e-07
4.27466e-06
3.8078e-06
9.07214e-06
6.70457e-05
6.52467e-05
9.33694e-06
6.40863e-05
3.91209e-06
5.40837e-06
6.61466e-06
6.19075e-06
3.4048e-06
1.69833e-05
1.13873e-05
0.000155925
0.000114497
5.06453e-05
0.000145669
3.8539e-05
7.38574e-06
4.74097e-05
6.56167e-06
5.36036e-05
1.71672e-06
6.0563e-05
8.8692e-06
1.02313e-05
1.40501e-06
5.59801e-06
4.27589e-06
2.24564e-05
1.72751e-05
4.40451e-06
5.38721e-05
4.86798e-06
3.38908e-05
1.7583e-06
1.05268e-05
2.03819e-06
1.5373e-06
8.60726e-06
4.74509e-06
8.98458e-06
7.94994e-05
7.1735e-05
1.10605e-05
5.71667e-05
6.22313e-06
5.22993e-06
8.19673e-06
5.53286e-06
4.79461e-06
1.81367e-05
1.38535e-05
0.000191306
0.00012146
6.33216e-05
0.000161707
4.37747e-05
5.66241e-06
5.92098e-05
5.94449e-06
5.92495e-05
2.41108e-06
5.62489e-05
5.87421e-06
1.23474e-05
1.4536e-06
7.25097e-06
3.35011e-06
2.65646e-05
1.70959e-05
7.13886e-06
5.07366e-05
3.9961e-06
2.96508e-05
1.62079e-06
7.89803e-06
2.16944e-06
1.95559e-06
1.2446e-05
5.0655e-06
7.23017e-06
8.88766e-05
7.71556e-05
1.3536e-05
5.46148e-05
8.06048e-06
4.02524e-06
9.71907e-06
5.08823e-06
6.12669e-06
1.97479e-05
1.60863e-05
0.000225118
0.000119564
7.41565e-05
0.000177942
5.72758e-05
4.38976e-06
7.05953e-05
6.25603e-06
7.0797e-05
3.61665e-06
5.65015e-05
5.95846e-06
8.32372e-06
1.0239e-06
7.48596e-06
2.7144e-06
3.17699e-05
1.60506e-05
8.94782e-06
4.71837e-05
3.62869e-06
2.55672e-05
1.79997e-06
6.14038e-06
2.57114e-06
2.83437e-06
1.72504e-05
5.51269e-06
5.49279e-06
9.57398e-05
8.0165e-05
1.65845e-05
5.4136e-05
9.05313e-06
2.87644e-06
1.03593e-05
4.42488e-06
7.53902e-06
2.08966e-05
1.82183e-05
0.000240113
0.000120559
7.3019e-05
0.000181708
6.80181e-05
4.43536e-06
7.93723e-05
4.4059e-06
7.09023e-05
2.84012e-06
6.5308e-05
6.05104e-06
5.41841e-06
1.97213e-06
6.50306e-06
2.45213e-06
3.58974e-05
1.60043e-05
1.04746e-05
4.37866e-05
3.63409e-06
2.22144e-05
2.14084e-06
4.34101e-06
3.25162e-06
5.57755e-06
2.30035e-05
5.18554e-06
3.93633e-06
9.4977e-05
7.88955e-05
1.91901e-05
5.3262e-05
1.03753e-05
2.89501e-06
1.03472e-05
3.95564e-06
8.24162e-06
2.07802e-05
2.05977e-05
0.00024671
0.000120939
7.49777e-05
0.000174091
6.7213e-05
6.94994e-06
9.54321e-05
4.10104e-06
6.84454e-05
2.55711e-06
6.78936e-05
4.9145e-06
4.20547e-06
3.36674e-06
6.87753e-06
1.99964e-06
3.94013e-05
1.6955e-05
1.19356e-05
4.11415e-05
3.73971e-06
1.83539e-05
2.2924e-06
3.1154e-06
3.8226e-06
8.19568e-06
2.58534e-05
4.02598e-06
2.34012e-06
8.95195e-05
7.57896e-05
2.10247e-05
5.17189e-05
1.27814e-05
3.8182e-06
1.02179e-05
3.73574e-06
8.53416e-06
2.36838e-05
2.3368e-05
0.00025194
0.000114888
7.92836e-05
0.000171388
6.37432e-05
1.18911e-05
0.000111116
4.39605e-06
7.1877e-05
2.70267e-06
6.59616e-05
4.71482e-06
3.48001e-06
3.66549e-06
8.2236e-06
1.7282e-06
4.09483e-05
1.78569e-05
1.25788e-05
3.85205e-05
4.04955e-06
1.54444e-05
2.61577e-06
2.18526e-06
3.9685e-06
8.90515e-06
2.54529e-05
3.11748e-06
1.75703e-06
8.53226e-05
7.13997e-05
2.29811e-05
4.95672e-05
1.5707e-05
4.54483e-06
1.0088e-05
3.3252e-06
8.47809e-06
2.37118e-05
2.46422e-05
0.000253007
0.000110672
7.84877e-05
0.000168695
6.1361e-05
1.37872e-05
0.000111559
4.23124e-06
7.35616e-05
2.73902e-06
6.68254e-05
5.06171e-06
3.39004e-06
3.59317e-06
8.72435e-06
1.72367e-06
4.12256e-05
1.76866e-05
1.27196e-05
3.66668e-05
4.58326e-06
1.47755e-05
3.15908e-06
1.82428e-06
3.81492e-06
8.67245e-06
2.53794e-05
2.34661e-06
1.45784e-06
8.05607e-05
6.63879e-05
2.44926e-05
4.71581e-05
1.84009e-05
4.94637e-06
1.03058e-05
3.07013e-06
7.78942e-06
2.3e-05
2.46403e-05
0.000256276
0.00010938
7.57116e-05
0.00016644
6.30931e-05
1.35794e-05
0.000108278
4.17483e-06
7.17541e-05
2.71346e-06
6.59675e-05
4.92266e-06
3.44526e-06
3.64105e-06
8.65552e-06
1.72145e-06
4.15355e-05
1.71882e-05
1.28044e-05
3.59756e-05
4.82851e-06
1.48898e-05
3.67093e-06
1.76199e-06
3.83119e-06
8.53555e-06
2.37623e-05
1.63377e-06
1.19572e-06
7.78223e-05
6.43733e-05
2.4802e-05
4.58341e-05
1.97601e-05
5.15642e-06
1.04275e-05
3.11815e-06
7.53228e-06
2.38001e-05
2.55702e-05
0.000261207
0.000105762
7.48806e-05
0.000164548
6.2856e-05