/*--------------------------------*- C++ -*----------------------------------*\
  =========                 |
  \\      /  F ield         | OpenFOAM: The Open Source CFD Toolbox
   \\    /   O peration     | Website:  https://openfoam.org
    \\  /    A nd           | Version:  10
     \\/     M anipulation  |
\*---------------------------------------------------------------------------*/
FoamFile
{
    format      ascii;
    class       volVectorField;
    location    "2.5";
    object      U_0;
}
// * * * * * * * * * * * * * * * * * * * * * * * * * * * * * * * * * * * * * //

dimensions      [0 1 -1 0 0 0 0];

internalField   nonuniform List<vector> 
25600
(
(1.04402 -2.3371e-06 6.86e-07)
(1.04403 -4.02525e-06 -1.94638e-06)
(1.04403 -2.25539e-07 -1.62941e-06)
(1.04402 3.6031e-08 2.44784e-07)
(1.04402 -2.76836e-06 -1.58147e-06)
(1.04402 2.23079e-06 -1.97306e-06)
(1.04402 2.22163e-06 -1.27202e-06)
(1.04402 -3.29563e-06 -1.47345e-06)
(1.04402 1.81086e-06 -9.04144e-07)
(1.04402 4.37646e-06 -1.48809e-06)
(1.04402 -1.65084e-07 -1.32337e-06)
(1.04402 3.04785e-07 -1.38974e-07)
(1.04402 3.39838e-06 -1.05354e-06)
(1.04402 2.07153e-06 -1.09573e-06)
(1.04402 3.83037e-07 8.44091e-08)
(1.04402 2.75545e-06 -7.19932e-07)
(1.04402 4.83753e-06 -1.19882e-06)
(1.04402 1.7231e-06 -4.10226e-07)
(1.04402 2.18997e-06 -4.50526e-07)
(1.04402 5.37718e-06 -9.65749e-07)
(1.04402 3.85439e-06 -1.11045e-06)
(1.04402 4.22731e-06 -3.78382e-07)
(1.04402 1.76456e-06 -4.55602e-08)
(1.04402 9.91801e-07 -1.21703e-06)
(1.04402 5.77105e-06 -1.28971e-06)
(1.04402 8.0353e-07 -1.88348e-07)
(1.04402 -1.87897e-06 -5.70658e-07)
(1.04402 2.55177e-06 -9.57637e-07)
(1.04402 -1.14936e-06 1.65161e-07)
(1.04402 -3.4756e-06 -9.69557e-08)
(1.04403 1.55358e-07 -1.16123e-06)
(1.04402 -3.45939e-06 1.97161e-07)
(1.04402 -3.59976e-06 1.58447e-06)
(1.04403 1.29239e-07 -1.87711e-07)
(1.04402 -7.21409e-06 -8.86316e-07)
(1.04402 -4.04063e-06 1.51416e-06)
(1.04403 2.42942e-06 1.25569e-06)
(1.04402 -6.6234e-06 -7.09843e-07)
(1.04402 -5.73075e-06 -4.73069e-07)
(1.04403 8.04483e-07 7.90582e-07)
(1.04402 -2.83036e-06 4.22487e-08)
(1.04403 -3.13812e-06 -3.03946e-06)
(1.04403 8.60134e-07 -1.14424e-06)
(1.04402 4.76954e-07 -2.08491e-07)
(1.04403 -1.55018e-06 -2.00235e-06)
(1.04403 5.02306e-06 -1.55678e-06)
(1.04402 1.61358e-06 -2.50873e-06)
(1.04402 -1.47431e-06 -1.27297e-06)
(1.04402 3.82374e-06 1.82696e-08)
(1.04402 3.68283e-06 -2.45528e-06)
(1.04402 3.39032e-06 -1.09394e-06)
(1.04402 -1.20332e-07 7.04676e-07)
(1.04402 1.03527e-06 -1.20749e-06)
(1.04402 5.09693e-06 -9.66391e-07)
(1.04402 -5.95971e-07 6.49018e-07)
(1.04402 8.79843e-07 -3.70947e-07)
(1.04402 6.95918e-06 -1.20793e-06)
(1.04402 2.73441e-07 -1.44034e-07)
(1.04402 4.76608e-07 2.67627e-07)
(1.04402 6.56268e-06 -6.23856e-07)
(1.04402 4.40803e-06 -8.49017e-07)
(1.04402 4.44256e-06 1.51151e-07)
(1.04402 -7.78693e-07 3.54151e-07)
(1.04402 1.91938e-06 -8.75666e-07)
(1.04402 8.32054e-06 -1.46348e-06)
(1.04401 -3.31744e-06 -2.92096e-07)
(1.04402 -1.78382e-06 -4.15149e-07)
(1.04402 5.69449e-06 -1.35072e-06)
(1.04401 -5.54862e-06 1.1189e-07)
(1.04402 -4.86299e-06 -5.20452e-07)
(1.04403 4.28143e-06 -2.29966e-06)
(1.04402 -6.73088e-06 3.15123e-07)
(1.04402 -4.33961e-06 1.9705e-06)
(1.04402 2.63941e-06 -1.53197e-06)
(1.04402 -1.13983e-05 -1.5249e-06)
(1.04403 -1.74236e-06 2.38341e-06)
(1.04403 4.35289e-06 6.51277e-07)
(1.04402 -1.05726e-05 -1.79223e-06)
(1.04403 -4.53629e-06 -3.95102e-07)
(1.04403 1.44584e-06 1.24264e-06)
(1.04402 -3.05318e-06 -9.93355e-07)
(1.04403 -1.97364e-06 -4.4704e-06)
(1.04403 2.33249e-06 3.40909e-08)
(1.04402 3.55326e-07 -1.13068e-06)
(1.04403 2.00634e-07 -2.6417e-06)
(1.04403 9.64227e-06 -1.17143e-06)
(1.04402 -1.27766e-06 -4.13614e-06)
(1.04403 1.46602e-06 -2.51426e-07)
(1.04403 6.81703e-06 6.30917e-07)
(1.04402 2.66986e-06 -4.04355e-06)
(1.04402 7.62645e-06 -1.89977e-07)
(1.04402 -1.71955e-06 1.52689e-06)
(1.04402 4.06455e-07 -1.74793e-06)
(1.04402 7.82085e-06 -3.91001e-07)
(1.04402 -3.47717e-06 1.57831e-06)
(1.04402 1.35155e-06 -5.50678e-07)
(1.04402 8.77347e-06 -1.32879e-06)
(1.04401 -3.35028e-06 5.67006e-07)
(1.04402 1.29351e-06 7.582e-07)
(1.04403 7.84631e-06 -6.55408e-07)
(1.04402 4.57249e-06 -4.3264e-07)
(1.04401 5.35425e-06 1.06945e-06)
(1.04402 -5.20076e-06 5.16766e-07)
(1.04403 5.75246e-06 -8.24973e-07)
(1.04402 1.04295e-05 -1.71218e-06)
(1.04401 -1.04107e-05 -5.11632e-07)
(1.04403 2.51185e-06 -5.78421e-07)
(1.04402 7.80279e-06 -1.93824e-06)
(1.04401 -1.32074e-05 -2.71284e-08)
(1.04403 -2.27183e-06 -1.64652e-06)
(1.04403 8.28155e-06 -3.53837e-06)
(1.04401 -1.29859e-05 1.3744e-06)
(1.04403 -1.29784e-06 2.09571e-06)
(1.04402 2.80457e-06 -3.87079e-06)
(1.04402 -1.76644e-05 -9.23058e-07)
(1.04404 6.20692e-06 3.96002e-06)
(1.04402 2.51166e-06 -1.14937e-06)
(1.04401 -1.60998e-05 -2.41844e-06)
(1.04404 -1.79246e-07 4.26124e-07)
(1.04403 2.61871e-07 1.75273e-06)
(1.04402 -2.38245e-07 -2.67783e-06)
(1.04403 -2.29959e-06 -5.78595e-06)
(1.04403 4.74354e-06 1.93107e-06)
(1.04402 -5.67516e-07 -3.01628e-06)
(1.04403 3.72492e-06 -2.76788e-06)
(1.04402 1.53188e-05 -1.17435e-06)
(1.04401 -7.06895e-06 -6.10468e-06)
(1.04403 8.0376e-06 2.1063e-06)
(1.04402 8.04145e-06 3.79615e-07)
(1.04402 2.5668e-06 -5.90105e-06)
(1.04402 1.35193e-05 1.8789e-06)
(1.04401 -6.23796e-06 2.06232e-06)
(1.04403 3.06487e-06 -2.38927e-06)
(1.04402 9.1577e-06 9.62386e-07)
(1.04401 -8.27749e-06 2.71625e-06)
(1.04403 5.6328e-06 -1.29336e-06)
(1.04402 8.27863e-06 -1.17454e-06)
(1.04401 -8.56202e-06 1.95877e-06)
(1.04403 5.38499e-06 7.3887e-07)
(1.04403 7.76196e-06 -1.13591e-06)
(1.04402 5.73491e-06 6.02854e-07)
(1.04401 6.05303e-06 2.08415e-06)
(1.04402 -1.10694e-05 2.41927e-07)
(1.04404 1.42996e-05 -7.02603e-07)
(1.04401 8.06581e-06 -2.42318e-06)
(1.04401 -1.80165e-05 -1.02644e-06)
(1.04404 1.30706e-05 -7.18156e-07)
(1.04401 4.0918e-06 -3.03695e-06)
(1.04401 -2.20515e-05 -6.05142e-07)
(1.04404 6.53424e-06 -3.40818e-06)
(1.04402 8.7145e-06 -4.56889e-06)
(1.04401 -2.07981e-05 3.26726e-06)
(1.04404 6.76882e-06 1.10907e-06)
(1.04401 -2.94763e-06 -6.84662e-06)
(1.04402 -2.19352e-05 1.85905e-06)
(1.04405 1.9557e-05 5.06687e-06)
(1.04401 -7.04947e-06 -4.24733e-06)
(1.04401 -1.84564e-05 -1.47602e-06)
(1.04404 5.38329e-06 1.35209e-06)
(1.04403 -3.89836e-06 1.89832e-06)
(1.04402 6.50832e-06 -4.98829e-06)
(1.04403 -6.62039e-06 -6.43674e-06)
(1.04403 1.00694e-05 4.36295e-06)
(1.04402 -4.33385e-06 -6.4508e-06)
(1.04404 1.09661e-05 -1.71497e-06)
(1.04402 1.99944e-05 -2.50997e-06)
(1.04401 -1.49757e-05 -7.68623e-06)
(1.04404 2.00858e-05 5.96261e-06)
(1.04402 3.81921e-06 -1.53961e-06)
(1.04402 6.74654e-06 -7.02172e-06)
(1.04401 1.99218e-05 5.10181e-06)
(1.04401 -1.37139e-05 2.0343e-06)
(1.04403 1.04468e-05 -2.53355e-06)
(1.04401 6.05076e-06 3.1438e-06)
(1.04401 -1.2453e-05 3.78985e-06)
(1.04404 1.35098e-05 -2.73208e-06)
(1.04401 3.16207e-06 -1.73782e-07)
(1.04401 -1.27003e-05 3.83903e-06)
(1.04403 1.19144e-05 -3.39562e-07)
(1.04403 4.6555e-06 -1.44335e-06)
(1.04402 9.93452e-06 2.6596e-06)
(1.044 4.47505e-06 2.72017e-06)
(1.04402 -1.66635e-05 -3.62072e-07)
(1.04404 2.71468e-05 -3.57327e-07)
(1.04399 -2.30101e-06 -4.25916e-06)
(1.04401 -1.97448e-05 -1.63503e-06)
(1.04404 2.76021e-05 -6.62318e-07)
(1.044 -9.35624e-06 -5.41899e-06)
(1.04401 -2.62604e-05 -1.76447e-06)
(1.04405 2.00404e-05 -5.60195e-06)
(1.04401 3.00005e-06 -5.02679e-06)
(1.04401 -2.57507e-05 5.58511e-06)
(1.04404 1.75126e-05 -1.69661e-06)
(1.044 -1.67717e-05 -9.23871e-06)
(1.04403 -1.68415e-05 7.17822e-06)
(1.04405 3.33487e-05 3.95902e-06)
(1.04399 -2.47783e-05 -7.67046e-06)
(1.04402 -1.1242e-05 2.17684e-06)
(1.04405 6.30742e-06 1.02356e-06)
(1.04402 -8.5056e-06 2.12468e-06)
(1.04402 1.2884e-05 -8.27667e-06)
(1.04403 -1.4761e-05 -6.10752e-06)
(1.04403 2.02857e-05 6.2693e-06)
(1.04402 -1.35077e-05 -1.12005e-05)
(1.04405 2.51122e-05 6.79565e-07)
(1.04401 1.93438e-05 -6.07557e-06)
(1.04401 -2.11921e-05 -7.54949e-06)
(1.04404 3.6544e-05 1.02348e-05)
(1.04402 -8.53467e-06 -5.26816e-06)
(1.04403 2.01915e-05 -6.31887e-06)
(1.04401 2.26867e-05 8.7196e-06)
(1.04401 -2.13841e-05 1.76584e-06)
(1.04404 2.17222e-05 -1.47935e-06)
(1.04401 -4.26526e-06 6.26914e-06)
(1.04402 -1.11188e-05 4.57898e-06)
(1.04404 2.19838e-05 -4.5593e-06)
(1.044 -7.5288e-06 2.35832e-06)
(1.04402 -1.22829e-05 5.36819e-06)
(1.04404 1.78117e-05 -2.58845e-06)
(1.04403 -1.26098e-06 -4.29812e-07)
(1.04402 1.85394e-05 5.3088e-06)
(1.04399 -1.19708e-06 2.42482e-06)
(1.04403 -1.82313e-05 -7.13533e-07)
(1.04405 4.01592e-05 2.58188e-07)
(1.04398 -2.02195e-05 -7.96117e-06)
(1.04403 -8.50078e-06 -1.64505e-06)
(1.04404 3.79736e-05 -8.0819e-07)
(1.04398 -3.0841e-05 -1.01858e-05)
(1.04402 -1.93956e-05 -3.20574e-06)
(1.04406 3.26564e-05 -8.23562e-06)
(1.04399 -7.32106e-06 -5.08155e-06)
(1.04402 -2.31063e-05 7.51902e-06)
(1.04404 2.50888e-05 -6.18725e-06)
(1.04399 -3.66761e-05 -9.33764e-06)
(1.04405 1.87337e-06 1.45923e-05)
(1.04404 3.78557e-05 -1.19787e-06)
(1.04398 -4.50855e-05 -8.72152e-06)
(1.04403 6.46149e-06 8.23396e-06)
(1.04404 -5.16471e-06 -2.48767e-06)
(1.04403 -6.66218e-06 3.32161e-06)
(1.04402 1.07222e-05 -1.35839e-05)
(1.04404 -2.03438e-05 -3.9285e-06)
(1.04403 3.2891e-05 7.00786e-06)
(1.04402 -2.89078e-05 -1.64719e-05)
(1.04406 4.93349e-05 3.96087e-06)
(1.04399 9.14557e-06 -1.09841e-05)
(1.04402 -1.88009e-05 -4.47299e-06)
(1.04404 5.1343e-05 1.33711e-05)
(1.04401 -2.73719e-05 -9.01003e-06)
(1.04404 4.6456e-05 -3.73489e-06)
(1.04399 1.6026e-05 1.17635e-05)
(1.04401 -2.31564e-05 2.01363e-06)
(1.04404 3.18202e-05 9.31517e-07)
(1.044 -2.10983e-05 9.98762e-06)
(1.04403 -1.99909e-07 4.98292e-06)
(1.04404 2.52974e-05 -6.17317e-06)
(1.04399 -2.12119e-05 6.59684e-06)
(1.04403 -6.6288e-06 5.38951e-06)
(1.04404 1.90164e-05 -5.64669e-06)
(1.04403 -6.57237e-06 2.50103e-06)
(1.04402 3.10015e-05 7.55431e-06)
(1.04398 -1.18346e-05 1.4883e-06)
(1.04405 -1.39394e-05 -2.26167e-07)
(1.04404 4.61937e-05 5.84199e-07)
(1.04397 -4.04127e-05 -1.41309e-05)
(1.04405 1.60036e-05 -1.96528e-07)
(1.04403 3.33022e-05 -2.58425e-06)
(1.04396 -5.22225e-05 -1.82417e-05)
(1.04405 -3.83479e-06 -3.50318e-06)
(1.04406 3.81052e-05 -1.13996e-05)
(1.04397 -1.67067e-05 -4.82896e-06)
(1.04403 -1.35833e-05 8.64032e-06)
(1.04403 2.27175e-05 -1.16255e-05)
(1.04399 -5.60422e-05 -5.91965e-06)
(1.04408 3.21673e-05 2.134e-05)
(1.04402 2.48263e-05 -1.05573e-05)
(1.04397 -5.63684e-05 -4.80731e-06)
(1.04405 2.70691e-05 1.43365e-05)
(1.04404 -3.02099e-05 -9.03934e-06)
(1.04404 1.00791e-05 7.79058e-06)
(1.04401 -6.94972e-06 -2.21673e-05)
(1.04404 -1.35881e-05 1.59125e-06)
(1.04403 3.93917e-05 5.47384e-06)
(1.04403 -4.6103e-05 -2.10505e-05)
(1.04407 8.2907e-05 7.13425e-06)
(1.04397 -1.17798e-05 -1.64506e-05)
(1.04404 -2.77783e-06 1.30378e-06)
(1.04404 5.39956e-05 1.45974e-05)
(1.04401 -4.53659e-05 -1.01195e-05)
(1.04405 8.38725e-05 -5.14587e-07)
(1.04397 -2.23447e-06 1.41026e-05)
(1.04401 -1.24114e-05 3.94654e-06)
(1.04404 3.17611e-05 5.25195e-06)
(1.04399 -3.77948e-05 1.44047e-05)
(1.04404 1.95586e-05 4.74594e-06)
(1.04403 1.8338e-05 -6.41527e-06)
(1.04399 -3.1538e-05 1.25548e-05)
(1.04404 -1.18217e-07 3.25169e-06)
(1.04404 1.41022e-05 -8.02956e-06)
(1.04403 -7.9345e-06 6.76001e-06)
(1.04402 4.45824e-05 8.48372e-06)
(1.04397 -2.54119e-05 1.30029e-06)
(1.04406 -6.12848e-06 9.06045e-07)
(1.04403 3.96396e-05 -4.31497e-07)
(1.04396 -5.20249e-05 -2.26204e-05)
(1.04407 4.65737e-05 3.57569e-06)
(1.04401 1.10584e-05 -9.08547e-06)
(1.04396 -6.11496e-05 -2.87736e-05)
(1.04407 1.24934e-05 -1.96124e-06)
(1.04405 3.61797e-05 -1.63426e-05)
(1.04396 -1.79831e-05 -4.11517e-06)
(1.04404 -2.59496e-06 8.23545e-06)
(1.04402 8.79322e-06 -1.62708e-05)
(1.04399 -6.63183e-05 2.18179e-06)
(1.0441 6.71492e-05 2.65137e-05)
(1.04399 -4.21022e-06 -2.06203e-05)
(1.04398 -4.61494e-05 7.44925e-06)
(1.04405 3.84007e-05 1.77654e-05)
(1.04403 -6.07848e-05 -1.67708e-05)
(1.04405 4.21097e-05 1.66228e-05)
(1.04399 -3.7403e-05 -3.42591e-05)
(1.04406 1.09923e-05 1.16194e-05)
(1.04402 2.80789e-05 3.04155e-07)
(1.04405 -5.48959e-05 -2.32335e-05)
(1.04408 0.000118618 8.82404e-06)
(1.04395 -3.9535e-05 -1.982e-05)
(1.04405 2.68936e-05 9.6987e-06)
(1.04402 3.47762e-05 1.42125e-05)
(1.04403 -5.07881e-05 -6.76549e-06)
(1.04406 0.000122547 1.44647e-06)
(1.04394 -2.76952e-05 1.74713e-05)
(1.04402 1.17883e-05 7.83376e-06)
(1.04403 1.21216e-05 1.18354e-05)
(1.04399 -4.45553e-05 1.97048e-05)
(1.04406 4.11256e-05 4.54366e-06)
(1.04401 4.21155e-06 -4.647e-06)
(1.04398 -3.4211e-05 1.91295e-05)
(1.04405 1.05845e-06 -9.93814e-07)
(1.04404 5.72048e-06 -7.92603e-06)
(1.04404 -4.29989e-06 1.11908e-05)
(1.04401 5.6904e-05 7.85463e-06)
(1.04396 -3.94634e-05 2.77608e-06)
(1.04408 7.00729e-07 2.03738e-06)
(1.04402 2.22353e-05 -2.88755e-06)
(1.04397 -4.70412e-05 -3.3313e-05)
(1.04408 7.23145e-05 8.68098e-06)
(1.04398 -1.98292e-05 -2.11408e-05)
(1.04396 -5.38989e-05 -3.977e-05)
(1.04409 1.98451e-05 2.5324e-07)
(1.04404 3.57095e-05 -2.43895e-05)
(1.04395 -1.01867e-05 -3.4866e-06)
(1.04404 3.56586e-06 6.40446e-06)
(1.044 -1.29205e-05 -1.76811e-05)
(1.04401 -6.36647e-05 1.28673e-05)
(1.04411 9.54033e-05 2.88317e-05)
(1.04397 -3.91322e-05 -2.98514e-05)
(1.04399 -1.35577e-05 2.68839e-05)
(1.04404 2.62179e-05 1.49386e-05)
(1.04404 -8.27323e-05 -2.26391e-05)
(1.04406 7.95605e-05 2.72297e-05)
(1.04398 -6.88658e-05 -4.89701e-05)
(1.04407 4.71366e-05 2.70262e-05)
(1.044 -4.43188e-06 -8.3805e-06)
(1.04407 -4.51951e-05 -2.19439e-05)
(1.04408 0.000144671 6.35918e-06)
(1.04393 -6.14928e-05 -1.90541e-05)
(1.04407 6.18416e-05 1.74659e-05)
(1.044 -7.46641e-06 1.61062e-05)
(1.04405 -3.34496e-05 1.46095e-06)
(1.04407 0.000149946 5.73902e-07)
(1.04392 -5.01278e-05 2.39058e-05)
(1.04403 4.08913e-05 1.34442e-05)
(1.04402 -2.73648e-05 2.26735e-05)
(1.044 -3.04827e-05 2.47691e-05)
(1.04406 5.18609e-05 5.30159e-06)
(1.044 -7.455e-06 -6.35326e-07)
(1.04398 -3.10165e-05 2.54257e-05)
(1.04406 -6.94786e-06 -6.2643e-06)
(1.04404 -3.60692e-06 -3.8624e-06)
(1.04405 1.03952e-07 1.4347e-05)
(1.044 6.83415e-05 6.851e-06)
(1.04394 -5.20825e-05 6.55841e-06)
(1.04409 -1.33293e-06 2.28493e-06)
(1.04401 1.9215e-06 -6.49208e-06)
(1.04398 -2.63617e-05 -4.57796e-05)
(1.04408 7.8553e-05 1.36233e-05)
(1.04395 -4.85714e-05 -4.01955e-05)
(1.04397 -3.56154e-05 -4.693e-05)
(1.04411 1.06852e-05 1.55895e-06)
(1.04404 4.40417e-05 -3.40675e-05)
(1.04395 3.51426e-07 -2.59672e-06)
(1.04404 4.72654e-06 2.80694e-06)
(1.04399 -3.71802e-05 -1.39666e-05)
(1.04404 -5.18387e-05 2.3447e-05)
(1.04411 0.000108419 2.8331e-05)
(1.04395 -6.77457e-05 -3.61045e-05)
(1.04401 3.05268e-05 5.00665e-05)
(1.04402 -9.03201e-06 6.9223e-06)
(1.04406 -8.36058e-05 -2.24878e-05)
(1.04407 0.000106345 3.75539e-05)
(1.04397 -8.64083e-05 -6.18834e-05)
(1.04408 7.75746e-05 4.64198e-05)
(1.04398 -4.9831e-05 -1.79635e-05)
(1.04411 -1.67471e-05 -1.57106e-05)
(1.04407 0.000152347 7.24831e-08)
(1.04392 -6.72185e-05 -1.28244e-05)
(1.04408 8.7901e-05 2.26271e-05)
(1.04398 -6.02791e-05 2.60214e-05)
(1.04409 2.34681e-06 1.23193e-05)
(1.04406 0.000155542 -3.66692e-06)
(1.0439 -5.74298e-05 3.59921e-05)
(1.04403 6.2797e-05 2.04134e-05)
(1.044 -7.78866e-05 4.0281e-05)
(1.04402 3.13942e-06 2.9805e-05)
(1.04407 4.36756e-05 8.61545e-06)
(1.04398 -7.73462e-06 3.4425e-06)
(1.04398 -3.5953e-05 3.22617e-05)
(1.04406 -2.48178e-05 -9.56783e-06)
(1.04404 -9.68807e-06 3.46434e-06)
(1.04407 3.38967e-06 1.34915e-05)
(1.04399 7.83265e-05 8.65138e-06)
(1.04393 -6.71735e-05 1.36424e-05)
(1.0441 -1.34851e-05 2.51927e-06)
(1.04401 -1.42781e-05 -9.99884e-06)
(1.044 -6.56054e-07 -6.25466e-05)
(1.04407 6.55231e-05 1.6206e-05)
(1.04393 -6.43992e-05 -6.65394e-05)
(1.04399 -2.22453e-05 -4.95968e-05)
(1.04413 -8.54949e-06 -2.56277e-06)
(1.04404 6.83445e-05 -4.52521e-05)
(1.04394 5.47179e-06 -2.82141e-06)
(1.04403 5.01227e-06 4.53382e-07)
(1.04398 -6.22739e-05 -2.92736e-06)
(1.04407 -3.82567e-05 3.31833e-05)
(1.0441 0.000107446 2.97178e-05)
(1.04393 -7.87917e-05 -3.73296e-05)
(1.04402 6.92719e-05 7.75559e-05)
(1.04399 -5.73224e-05 -1.44278e-06)
(1.04409 -6.13473e-05 -1.46787e-05)
(1.04407 0.000111566 4.47846e-05)
(1.04396 -7.90124e-05 -7.08215e-05)
(1.04409 8.71378e-05 7.11746e-05)
(1.04396 -9.17065e-05 -2.39039e-05)
(1.04414 1.7871e-05 -6.52519e-06)
(1.04406 0.000142115 -1.30704e-05)
(1.04391 -5.02716e-05 1.4406e-06)
(1.04407 8.649e-05 2.69798e-05)
(1.04397 -0.00010954 4.9834e-05)
(1.04413 4.53944e-05 2.11798e-05)
(1.04404 0.000139986 -9.05291e-06)
(1.04388 -4.48462e-05 5.25299e-05)
(1.04402 6.27034e-05 3.26147e-05)
(1.04399 -0.000121809 6.65529e-05)
(1.04404 4.3408e-05 3.34822e-05)
(1.04406 1.39621e-05 1.54861e-05)
(1.04397 1.17241e-05 7.49376e-06)
(1.04398 -5.4512e-05 4.16485e-05)
(1.04407 -4.16255e-05 -9.58678e-06)
(1.04405 -2.27007e-05 1.39847e-05)
(1.04409 4.0211e-06 9.87664e-06)
(1.04398 9.19161e-05 1.49904e-05)
(1.04391 -8.90539e-05 2.24014e-05)
(1.04411 -3.41206e-05 3.52908e-06)
(1.04402 -2.48049e-05 -1.26674e-05)
(1.04401 1.50922e-05 -8.2926e-05)
(1.04405 3.83157e-05 1.3703e-05)
(1.04392 -5.65921e-05 -9.89574e-05)
(1.04399 -2.13562e-05 -4.71659e-05)
(1.04415 -3.11921e-05 -1.21164e-05)
(1.04404 9.80106e-05 -5.22145e-05)
(1.04392 1.55773e-06 -6.49277e-06)
(1.04401 6.17103e-06 2.64631e-06)
(1.04397 -8.83804e-05 1.6164e-05)
(1.0441 -2.96344e-05 3.86336e-05)
(1.04409 9.29996e-05 3.72583e-05)
(1.04393 -6.67278e-05 -3.36053e-05)
(1.04402 9.81027e-05 0.000109248)
(1.04397 -0.000104803 -5.31849e-06)
(1.04412 -3.40423e-05 -1.18175e-06)
(1.04406 9.36642e-05 4.49743e-05)
(1.04396 -5.32717e-05 -7.25389e-05)
(1.04408 6.31191e-05 9.69873e-05)
(1.04395 -0.000115212 -2.01905e-05)
(1.04418 4.61177e-05 6.03059e-06)
(1.04405 0.000121292 -2.6834e-05)
(1.0439 -1.49278e-05 2.13969e-05)
(1.04406 5.19365e-05 3.24669e-05)
(1.04397 -0.000145464 9.29504e-05)
(1.04417 7.86338e-05 2.17375e-05)
(1.04403 0.000116711 -8.84757e-06)
(1.04387 -1.46424e-05 7.11177e-05)
(1.04401 3.25545e-05 5.0171e-05)
(1.044 -0.000155885 0.000103254)
(1.04407 8.11908e-05 4.04295e-05)
(1.04405 -2.59704e-05 2.42571e-05)
(1.04396 4.22202e-05 7.36908e-06)
(1.04397 -0.000100146 5.87398e-05)
(1.04407 -5.11842e-05 -3.17957e-06)
(1.04406 -4.17072e-05 2.22594e-05)
(1.04411 5.95444e-07 9.07625e-07)
(1.04396 9.42689e-05 2.92921e-05)
(1.04389 -0.000120129 3.59612e-05)
(1.04412 -5.78943e-05 1.14791e-05)
(1.04403 -3.41643e-05 -1.39034e-05)
(1.04402 1.75207e-05 -0.000112329)
(1.04404 8.8964e-06 7.44887e-06)
(1.04391 -4.23395e-05 -0.000129722)
(1.044 -3.80309e-05 -3.92249e-05)
(1.04417 -4.47095e-05 -3.16817e-05)
(1.04405 0.00012825 -5.48081e-05)
(1.04391 -9.56824e-06 -1.62169e-05)
(1.044 1.17497e-05 1.58212e-05)
(1.04397 -0.000119217 4.19877e-05)
(1.04413 -3.07446e-05 4.70433e-05)
(1.04409 7.34543e-05 5.34745e-05)
(1.04394 -4.42639e-05 -3.32969e-05)
(1.04401 0.00010143 0.000147686)
(1.04395 -0.00013147 -1.10827e-06)
(1.04415 -1.01176e-05 1.72614e-05)
(1.04405 6.5892e-05 4.3419e-05)
(1.04396 -2.3306e-05 -6.59343e-05)
(1.04407 1.10675e-05 0.000133485)
(1.04396 -0.000110483 2.35859e-07)
(1.04422 5.23892e-05 1.565e-05)
(1.04404 0.000106402 -4.42737e-05)
(1.04389 1.66419e-05 5.08965e-05)
(1.04403 -1.27591e-05 4.93522e-05)
(1.04398 -0.000154174 0.000160229)
(1.04421 8.69821e-05 1.77202e-05)
(1.04401 9.68164e-05 -5.82157e-06)
(1.04386 5.86272e-06 8.75767e-05)
(1.04398 -1.60308e-05 8.72796e-05)
(1.04401 -0.000157512 0.000150554)
(1.04408 9.81164e-05 5.07311e-05)
(1.04405 -6.70754e-05 3.59977e-05)
(1.04394 7.37303e-05 8.41526e-06)
(1.04395 -0.000158936 8.58948e-05)
(1.04408 -5.74109e-05 1.17538e-05)
(1.04406 -8.94983e-05 3.39157e-05)
(1.04413 2.76409e-06 -7.56031e-06)
(1.04394 8.5558e-05 4.97803e-05)
(1.04386 -0.000162125 5.20584e-05)
(1.04413 -8.52788e-05 2.9752e-05)
(1.04404 -4.91722e-05 -1.33347e-05)
(1.04403 -4.05467e-06 -0.000148353)
(1.04404 -2.0618e-05 -6.26339e-06)
(1.0439 -2.23361e-05 -0.000162831)
(1.04399 -6.70267e-05 -2.55159e-05)
(1.0442 -5.80385e-05 -5.33503e-05)
(1.04405 0.000146821 -5.05617e-05)
(1.04389 -2.66862e-05 -3.69888e-05)
(1.04398 1.18392e-05 4.68731e-05)
(1.04396 -0.00015093 7.59144e-05)
(1.04416 -4.82377e-05 5.58097e-05)
(1.04409 4.57328e-05 7.98376e-05)
(1.04394 -9.01307e-06 -3.34034e-05)
(1.04399 9.06148e-05 0.000198387)
(1.04394 -0.000139718 1.94751e-05)
(1.04418 -9.52055e-06 3.2498e-05)
(1.04405 3.78368e-05 3.30607e-05)
(1.04396 -1.42631e-05 -6.01789e-05)
(1.04406 -5.29596e-05 0.000176518)
(1.04397 -7.83364e-05 4.71164e-05)
(1.04424 2.58471e-05 2.73862e-05)
(1.04404 9.84609e-05 -5.92994e-05)
(1.04386 3.16919e-05 7.98393e-05)
(1.04401 -8.39936e-05 8.23446e-05)
(1.044 -0.000150973 0.000252236)
(1.04424 5.63162e-05 2.381e-06)
(1.044 8.00582e-05 1.09521e-05)
(1.04384 8.60893e-06 0.00010085)
(1.04396 -7.39596e-05 0.000140921)
(1.04403 -0.000144292 0.000213842)
(1.04409 9.84209e-05 7.24576e-05)
(1.04405 -0.000115877 3.86627e-05)
(1.04393 8.44586e-05 4.34909e-06)
(1.04393 -0.000233447 0.000129027)
(1.04409 -5.10367e-05 3.61024e-05)
(1.04407 -0.000153493 3.95321e-05)
(1.04416 -7.81687e-06 -1.99882e-05)
(1.04391 4.77239e-05 8.32692e-05)
(1.04384 -0.000208824 8.08797e-05)
(1.04415 -0.000113354 6.71006e-05)
(1.04405 -6.91959e-05 -1.27483e-05)
(1.04403 -4.29322e-05 -0.000197465)
(1.04404 -5.49777e-05 -1.97112e-05)
(1.0439 -1.77052e-05 -0.00018732)
(1.04399 -9.03142e-05 -1.08709e-05)
(1.04423 -6.37361e-05 -8.05478e-05)
(1.04406 0.000148852 -4.2677e-05)
(1.04387 -4.78605e-05 -6.59691e-05)
(1.04396 6.79767e-06 0.000102104)
(1.04395 -0.000181046 0.000117506)
(1.04419 -8.46655e-05 8.32987e-05)
(1.0441 1.03033e-05 0.000108801)
(1.04395 8.61859e-06 -4.25722e-05)
(1.04397 7.01142e-05 0.000268921)
(1.04392 -0.000109327 5.90293e-05)
(1.0442 -3.09191e-05 5.3124e-05)
(1.04405 1.49075e-05 2.69667e-05)
(1.04394 -3.39395e-05 -4.05031e-05)
(1.04405 -0.000115648 0.00024614)
(1.04398 -2.98169e-05 0.00012033)
(1.04426 -2.52075e-05 2.93018e-05)
(1.04404 9.43607e-05 -7.79525e-05)
(1.04384 2.04113e-06 0.000123334)
(1.04399 -0.000157774 0.000148686)
(1.04401 -0.000138152 0.000374602)
(1.04427 -4.41675e-06 -1.22876e-05)
(1.044 5.75473e-05 2.4461e-05)
(1.04382 -3.61851e-05 0.000111979)
(1.04394 -0.000115259 0.000229561)
(1.04405 -0.000118875 0.000288642)
(1.04409 7.7593e-05 0.00010586)
(1.04404 -0.000161961 4.22211e-05)
(1.04391 6.75085e-05 7.42672e-06)
(1.04391 -0.000298569 0.000183017)
(1.0441 -6.72119e-05 8.08119e-05)
(1.04407 -0.000252843 4.99656e-05)
(1.04418 -1.91604e-05 -2.99041e-05)
(1.04389 -2.09543e-05 0.000118048)
(1.04382 -0.000258823 0.000121802)
(1.04417 -0.000150946 0.000128305)
(1.04406 -0.000103958 -1.04817e-05)
(1.04403 -0.000115795 -0.000258316)
(1.04404 -9.89393e-05 -4.60709e-05)
(1.04389 -1.80264e-05 -0.00020817)
(1.04398 -0.000114141 2.19204e-05)
(1.04426 -8.70411e-05 -9.97957e-05)
(1.04406 0.00013458 -3.687e-05)
(1.04385 -9.16115e-05 -0.000109494)
(1.04395 -1.37387e-05 0.000185843)
(1.04394 -0.000203609 0.000172006)
(1.04421 -0.000147303 0.000119635)
(1.04411 -3.55089e-05 0.000145842)
(1.04395 2.16946e-05 -4.99264e-05)
(1.04396 4.57705e-05 0.000362409)
(1.04391 -6.49955e-05 0.000124576)
(1.04421 -8.00414e-05 6.11855e-05)
(1.04405 -3.06663e-06 1.3004e-05)
(1.04393 -0.000103537 -2.8587e-05)
(1.04406 -0.00016422 0.000339235)
(1.04399 1.5552e-05 0.000227551)
(1.04427 -8.66088e-05 3.70127e-05)
(1.04404 7.64256e-05 -9.78612e-05)
(1.04381 -5.34445e-05 0.000162355)
(1.04398 -0.000224722 0.000251586)
(1.04403 -0.000146469 0.000522947)
(1.04429 -8.6789e-05 -3.37347e-05)
(1.044 9.81913e-06 5.56893e-05)
(1.04381 -0.000113628 0.00012415)
(1.04395 -0.000158093 0.000352315)
(1.04407 -0.000105291 0.000388223)
(1.04408 5.44948e-05 0.000148765)
(1.04405 -0.000248366 1.96732e-05)
(1.0439 1.76676e-05 1.14024e-05)
(1.0439 -0.000360228 0.000257172)
(1.0441 -7.70036e-05 0.000134998)
(1.04408 -0.000370371 4.45452e-05)
(1.04421 -6.63978e-05 -4.16132e-05)
(1.04386 -0.000128928 0.000174896)
(1.04381 -0.000321413 0.000192409)
(1.04419 -0.000185795 0.000215811)
(1.04406 -0.000148081 -1.44626e-05)
(1.04403 -0.000216955 -0.000331248)
(1.04406 -0.000170378 -6.27091e-05)
(1.0439 -3.83705e-05 -0.000214918)
(1.04397 -0.000107759 5.20306e-05)
(1.04428 -0.000121868 -0.000121015)
(1.04406 0.000107285 -3.39888e-05)
(1.04384 -0.000158329 -0.000152009)
(1.04394 -3.6627e-05 0.000306128)
(1.04392 -0.000222513 0.000242327)
(1.04423 -0.000244776 0.000180824)
(1.04414 -0.000104587 0.000169238)
(1.04397 -1.26932e-06 -5.57223e-05)
(1.04395 4.08009e-05 0.000487154)
(1.0439 8.02248e-06 0.000219895)
(1.04422 -0.000139049 7.44663e-05)
(1.04406 -3.69816e-05 4.42235e-07)
(1.04394 -0.000207559 7.21831e-05)
(1.04411 -0.000202834 0.00051334)
(1.04401 6.2169e-05 0.000327915)
(1.04428 -0.000149274 -2.11139e-05)
(1.04405 1.45847e-05 -0.000110873)
(1.0438 -0.000163926 0.000289942)
(1.044 -0.000269705 0.000441261)
(1.04406 -0.000158944 0.000661035)
(1.04431 -0.000173685 -0.000105146)
(1.044 -8.32283e-05 8.27813e-05)
(1.04381 -0.000246873 0.00021183)
(1.04398 -0.000163035 0.000547656)
(1.04412 -9.10906e-05 0.000469963)
(1.04407 3.41777e-05 0.000159823)
(1.04405 -0.000368137 1.96002e-05)
(1.04391 -7.19966e-05 9.16426e-05)
(1.04392 -0.000402633 0.00037881)
(1.04412 -0.000131327 0.000182307)
(1.04408 -0.000515681 -1.26279e-05)
(1.04424 -0.000144161 -3.04386e-05)
(1.04386 -0.000276737 0.000296608)
(1.04384 -0.000388792 0.000329145)
(1.04424 -0.000224956 0.000305397)
(1.04406 -0.000215254 -6.3135e-05)
(1.04403 -0.000369766 -0.000409593)
(1.04409 -0.000268174 -2.73932e-05)
(1.04394 -6.56801e-05 -0.000171926)
(1.04398 -9.99796e-05 8.70766e-05)
(1.04431 -0.000185713 -0.000181968)
(1.04406 4.74432e-05 -2.44296e-05)
(1.04383 -0.00028267 -0.000138739)
(1.04396 -6.1577e-05 0.000497352)
(1.04393 -0.000221918 0.000304187)
(1.04425 -0.000370548 0.000198105)
(1.04416 -0.000200937 0.000219595)
(1.044 -5.30446e-05 5.28289e-06)
(1.04398 4.15061e-05 0.000678663)
(1.04389 8.99824e-05 0.000312694)
(1.04422 -0.000221178 1.85524e-05)
(1.04407 -9.23646e-05 1.4243e-05)
(1.04344 -0.000382358 0.000677723)
(1.04369 -0.000239368 0.000918876)
(1.0437 0.000113762 0.000153638)
(1.04386 -0.00022656 -0.00040754)
(1.04348 -0.000119349 3.2575e-05)
(1.04328 -0.000315738 0.000929579)
(1.0436 -0.000331896 0.000882222)
(1.04369 -0.000207347 0.000423981)
(1.04385 -0.000304185 -0.000544752)
(1.04338 -0.000270632 0.000324127)
(1.04318 -0.000425065 0.000829558)
(1.04361 -0.000175488 0.000953831)
(1.04375 -9.05862e-05 0.000267254)
(1.04366 3.86636e-06 -0.000167827)
(1.04347 -0.000584126 0.000203156)
(1.04341 -0.000217511 0.000662696)
(1.04345 -0.000463509 0.000713336)
(1.04383 -0.000165752 -0.000112974)
(1.04344 -0.000701503 -0.000435353)
(1.04368 -0.000305508 0.000205961)
(1.04327 -0.000495236 0.000980916)
(1.04335 -0.000498164 0.000735923)
(1.04394 -0.00023602 0.000107878)
(1.04359 -0.000311541 -0.000437618)
(1.0434 -0.000591505 -0.000310446)
(1.04346 -0.000430735 0.000559283)
(1.04348 -0.000105507 9.46716e-05)
(1.04358 -4.9397e-05 -0.000142676)
(1.04387 -0.000283166 -0.000545055)
(1.04357 -5.2013e-05 0.000205845)
(1.04321 -0.000475658 0.000409545)
(1.04355 -8.73259e-05 0.000940257)
(1.04365 -0.000224029 8.18892e-05)
(1.04379 -0.000540628 -0.000105147)
(1.04356 -0.000355386 0.000444752)
(1.04341 -0.000156637 0.000565936)
(1.04348 6.14287e-05 0.00114591)
(1.04355 0.000199428 0.000117834)
(1.04384 -0.000315853 -0.000353036)
(1.04357 -0.000224474 0.000297051)
(1.0352 -0.000714262 0.00302828)
(1.0359 -0.000338176 0.00125085)
(1.03719 0.000186221 -0.00167995)
(1.03672 -0.000336651 -0.0018503)
(1.03513 -0.000466842 0.00119416)
(1.03493 -0.000644604 0.00339161)
(1.03607 -0.000443416 0.00134233)
(1.03669 -0.000227449 -0.00183301)
(1.03632 -0.000480657 -0.00208614)
(1.03474 -0.000690773 0.00172942)
(1.03392 -0.000828646 0.00313976)
(1.03607 -0.000248581 0.00125321)
(1.03643 -6.62051e-05 -0.00156285)
(1.0368 -5.25735e-05 -0.00147043)
(1.03497 -0.000966127 0.00146423)
(1.03528 -0.000557938 0.00280312)
(1.03538 -0.000588452 0.00100055)
(1.03723 -0.000173787 -0.00209703)
(1.03471 -0.000954883 -0.00178183)
(1.03486 -0.000673305 0.00168845)
(1.03425 -0.000894056 0.00336998)
(1.03502 -0.000683972 0.00118669)
(1.03711 -0.00018718 -0.00175899)
(1.03596 -0.000467645 -0.00181032)
(1.03461 -0.000993129 0.000874967)
(1.03426 -0.000800874 0.00284749)
(1.03535 -0.000234409 0.000481149)
(1.03669 2.00257e-05 -0.00170655)
(1.03627 -0.000448755 -0.00167053)
(1.03564 -0.000319078 0.00165173)
(1.0343 -0.000861397 0.00269402)
(1.03591 -0.000173394 0.00147063)
(1.03727 -0.000175765 -0.00178156)
(1.03604 -0.000766328 -0.00138844)
(1.03484 -0.000671811 0.00171859)
(1.03451 -0.00041935 0.00280098)
(1.03554 2.51599e-05 0.00190417)
(1.03701 0.000303794 -0.0018788)
(1.03695 -0.000459839 -0.00167172)
(1.03563 -0.000522037 0.00196371)
(1.0012 -0.000925247 0.00468813)
(1.00335 -0.00027403 -0.00105034)
(1.00628 0.000223201 -0.00494508)
(1.00365 -0.00055062 -0.00241361)
(1.00042 -0.000873352 0.00400303)
(1.00105 -0.000859313 0.0053961)
(1.00386 -0.000383546 -0.000826177)
(1.00475 -0.000172736 -0.00571033)
(1.00264 -0.000780194 -0.00231121)
(0.999447 -0.00115498 0.00495185)
(0.998738 -0.00108402 0.0047084)
(1.00394 -0.000189738 -0.00095552)
(1.00407 -2.96086e-05 -0.00475827)
(1.0046 -0.000263858 -0.00169869)
(0.999906 -0.00132698 0.00403759)
(1.00161 -0.000821042 0.00421594)
(1.00211 -0.000562854 -0.00116568)
(1.00537 -0.000126656 -0.0053002)
(0.999065 -0.00122374 -0.00173717)
(0.999466 -0.00108925 0.00490035)
(0.998986 -0.00113216 0.00510288)
(1.0017 -0.000622224 -0.000948739)
(1.00529 -8.90019e-05 -0.00500494)
(1.00203 -0.000709347 -0.00222368)
(0.999252 -0.00135277 0.00367214)
(0.99905 -0.00104518 0.00453939)
(1.00232 -0.000240419 -0.0013096)
(1.00519 6.10684e-05 -0.00438956)
(1.00261 -0.000707648 -0.0014204)
(1.00157 -0.000685933 0.00456926)
(0.999537 -0.00109757 0.00445498)
(1.00377 -0.000149135 -0.00033717)
(1.00605 -0.000102448 -0.00508299)
(1.00192 -0.000980374 -0.00140241)
(0.999656 -0.00098675 0.00442691)
(0.999806 -0.000595948 0.00473189)
(1.00316 6.00396e-05 0.00036743)
(1.00615 0.000310919 -0.00572087)
(1.0045 -0.000686323 -0.00174698)
(1.00159 -0.000885793 0.00519905)
(0.941683 -0.000728627 0.00212888)
(0.94503 -4.9737e-05 -0.00429486)
(0.946877 0.000142027 -0.00521207)
(0.941763 -0.000758461 -0.000285563)
(0.939315 -0.000953044 0.00562663)