/*--------------------------------*- C++ -*----------------------------------*\
  =========                 |
  \\      /  F ield         | OpenFOAM: The Open Source CFD Toolbox
   \\    /   O peration     | Website:  https://openfoam.org
    \\  /    A nd           | Version:  10
     \\/     M anipulation  |
\*---------------------------------------------------------------------------*/
FoamFile
{
    format      ascii;
    class       volScalarField;
    location    "16";
    object      pPrime2Mean;
}
// * * * * * * * * * * * * * * * * * * * * * * * * * * * * * * * * * * * * * //

dimensions      [0 4 -4 0 0 0 0];

internalField   nonuniform List<scalar> 
102400
(
1.34478e-07
4.00909e-07
2.6927e-07
1.05746e-07
9.87995e-08
1.91768e-07
2.52827e-07
1.15296e-07
2.23461e-07
1.1774e-07
2.04392e-07
3.49907e-07
5.12436e-08
3.39337e-07
3.02805e-07
4.38722e-07
6.7365e-08
1.1389e-07
2.94313e-07
1.03651e-07
3.27685e-07
2.74926e-07
3.39842e-07
3.47177e-07
5.55785e-07
1.15259e-07
3.20959e-07
8.40575e-07
2.26696e-07
1.90163e-07
3.59507e-07
8.23362e-08
5.43517e-07
1.527e-07
1.9524e-07
3.08689e-07
4.33546e-08
3.63659e-07
3.98709e-07
1.54565e-07
1.32697e-07
3.97763e-07
2.65667e-07
1.06311e-07
1.0087e-07
1.96567e-07
2.58316e-07
1.12337e-07
2.18058e-07
1.13486e-07
2.06166e-07
3.46303e-07
5.02953e-08
3.29282e-07
3.00868e-07
4.42272e-07
6.56085e-08
1.13101e-07
2.94389e-07
1.06021e-07
3.30271e-07
2.72962e-07
3.2673e-07
3.43043e-07
5.5972e-07
1.13345e-07
3.18966e-07
8.57414e-07
2.26612e-07
1.91796e-07
3.52639e-07
7.94903e-08
5.334e-07
1.60109e-07
2.00754e-07
3.03927e-07
4.30427e-08
3.63601e-07
3.91283e-07
1.59474e-07
1.34102e-07
3.88696e-07
2.59541e-07
1.1145e-07
1.03696e-07
2.06169e-07
2.68058e-07
1.0781e-07
2.0541e-07
1.05615e-07
2.16176e-07
3.3241e-07
4.91803e-08
3.05702e-07
2.95606e-07
4.5373e-07
6.17014e-08
1.12548e-07
2.94985e-07
1.10036e-07
3.41768e-07
2.69267e-07
3.00908e-07
3.35308e-07
5.50912e-07
1.13951e-07
3.18345e-07
8.70203e-07
2.32772e-07
1.92106e-07
3.44652e-07
7.60717e-08
5.09882e-07
1.72369e-07
2.15937e-07
2.90223e-07
4.17223e-08
3.57599e-07
3.76951e-07
1.66924e-07
1.3642e-07
3.56127e-07
2.52163e-07
1.20552e-07
1.01322e-07
2.09535e-07
2.7758e-07
1.06068e-07
1.88967e-07
9.88146e-08
2.43595e-07
2.96818e-07
5.05103e-08
2.6591e-07
2.83595e-07
4.8499e-07
5.8527e-08
1.13612e-07
2.92678e-07
1.1405e-07
3.50309e-07
2.57378e-07
2.65356e-07
3.24891e-07
5.08297e-07
1.14204e-07
3.34941e-07
8.181e-07
2.50699e-07
1.92971e-07
3.31565e-07
8.41939e-08
4.55871e-07
1.93268e-07
2.3569e-07
2.5047e-07
3.69494e-08
3.32962e-07
3.25364e-07
1.72233e-07
1.37631e-07
2.73802e-07
2.24874e-07
1.26581e-07
8.91919e-08
1.99041e-07
2.58197e-07
1.05261e-07
1.77305e-07
9.92072e-08
2.75161e-07
2.66199e-07
5.72863e-08
2.46188e-07
2.60061e-07
5.01956e-07
4.84302e-08
1.20854e-07
2.72477e-07
1.12488e-07
3.56986e-07
2.49945e-07
2.01921e-07
2.98455e-07
4.09102e-07
1.12871e-07
3.61523e-07
7.21997e-07
2.95076e-07
1.90106e-07
3.1654e-07
1.02467e-07
3.79352e-07
1.98164e-07
2.56493e-07
2.10425e-07
2.66373e-08
3.04286e-07
2.51179e-07
1.54362e-07
1.26857e-07
1.97984e-07
2.25849e-07
1.32223e-07
6.98797e-08
1.96315e-07
2.26948e-07
9.54318e-08
1.68638e-07
9.62617e-08
2.84046e-07
2.48096e-07
6.84314e-08
2.1887e-07
2.31733e-07
5.28057e-07
4.12942e-08
1.26068e-07
2.54718e-07
1.02035e-07
3.60159e-07
2.67186e-07
1.59675e-07
2.66932e-07
3.01156e-07
1.06865e-07
3.35619e-07
6.56159e-07
3.14544e-07
1.69888e-07
2.73929e-07
1.46961e-07
2.90524e-07
1.99755e-07
2.34288e-07
1.87255e-07
2.76749e-08
2.82839e-07
1.82151e-07
1.47069e-07
1.16604e-07
1.37467e-07
2.14507e-07
1.1478e-07
4.15421e-08
1.628e-07
1.91945e-07
8.09637e-08
1.57164e-07
8.84331e-08
2.6694e-07
2.42742e-07
6.95768e-08
2.01483e-07
2.03493e-07
5.26711e-07
3.40546e-08
1.15087e-07
2.03197e-07
9.56227e-08
3.34984e-07
2.59911e-07
1.36718e-07
2.22193e-07
2.26428e-07
1.02091e-07
3.0752e-07
6.13617e-07
3.20868e-07
1.4002e-07
2.06053e-07
1.88877e-07
2.49473e-07
1.82983e-07
1.8254e-07
1.48168e-07
2.7163e-08
2.10031e-07
1.41974e-07
1.03775e-07
1.01147e-07
9.85865e-08
1.79943e-07
8.52773e-08
3.03046e-08
1.26026e-07
1.70571e-07
6.93819e-08
1.43959e-07
9.41958e-08
2.16267e-07
1.80203e-07
5.34363e-08
1.72313e-07
2.01905e-07
4.65767e-07
4.16932e-08
9.49448e-08
1.65452e-07
9.40306e-08
2.93659e-07
1.98863e-07
1.25948e-07
2.27136e-07
1.7464e-07
8.35979e-08
2.66054e-07
5.13411e-07
2.59965e-07
1.27603e-07
1.29336e-07
2.16187e-07
1.87715e-07
1.38463e-07
1.20834e-07
1.01437e-07
3.26429e-08
1.47717e-07
1.19515e-07
6.68379e-08
7.13232e-08
7.63301e-08
1.29936e-07
6.09419e-08
2.79676e-08
9.23448e-08
1.70495e-07
5.78926e-08
1.28424e-07
8.74466e-08
1.4711e-07
1.25408e-07
3.44117e-08
1.30686e-07
1.75854e-07
3.74476e-07
3.00863e-08
6.83316e-08
1.31043e-07
9.05736e-08
2.45351e-07
1.61437e-07
1.27108e-07
2.08988e-07
1.34233e-07
6.50553e-08
1.96864e-07
4.47285e-07
2.33391e-07
1.05477e-07
8.45571e-08
1.8354e-07
1.48945e-07
8.43079e-08
8.57661e-08
5.98425e-08
4.26307e-08
1.05428e-07
1.0094e-07
5.38174e-08
4.41553e-08
7.23502e-08
1.16545e-07
5.0147e-08
1.84701e-08
6.27036e-08
1.27272e-07
4.76618e-08
1.1351e-07
6.87847e-08
9.47833e-08
9.1967e-08
2.29924e-08
1.00383e-07
1.35913e-07
2.30783e-07
1.50587e-08
4.38899e-08
1.00141e-07
7.66419e-08
1.99173e-07
1.45502e-07
1.18951e-07
1.77379e-07
8.95772e-08
5.48495e-08
1.70937e-07
3.64877e-07
1.94269e-07
8.6445e-08
4.9733e-08
1.33312e-07
1.18647e-07
5.41757e-08
5.86115e-08
3.31943e-08
4.21696e-08
6.73873e-08
7.98874e-08
4.71227e-08
2.52617e-08
5.62668e-08
7.99767e-08
4.07135e-08
1.33625e-08
3.68919e-08
8.76448e-08
3.9059e-08
9.47361e-08
5.69835e-08
5.75696e-08
6.1417e-08
1.50463e-08
7.53604e-08
1.01154e-07
1.41066e-07
7.90628e-09
3.28459e-08
8.11175e-08
5.89305e-08
1.41105e-07
1.25383e-07
1.10463e-07
1.47286e-07
5.82291e-08
4.819e-08
1.49067e-07
2.94353e-07
1.55152e-07
6.62196e-08
2.71626e-08
1.09672e-07
8.84926e-08
3.43937e-08
3.9783e-08
2.30843e-08
3.94372e-08
4.79288e-08
6.16437e-08
3.98685e-08
1.48041e-08
4.11961e-08
5.47992e-08
2.85704e-08
9.37377e-09
2.05732e-08
5.47434e-08
3.11912e-08
7.74081e-08
4.72972e-08
3.34266e-08
3.80291e-08
9.82116e-09
5.60046e-08
7.3612e-08
8.01209e-08
5.09668e-09
2.56657e-08
6.15735e-08
4.32359e-08
9.86685e-08
9.95085e-08
9.9625e-08
1.18963e-07
3.7891e-08
4.34274e-08
1.32453e-07
2.32425e-07
1.27953e-07
5.25456e-08
2.21715e-08
8.6137e-08
6.72161e-08
2.16504e-08
2.44433e-08
1.95943e-08
3.64482e-08
3.25427e-08
4.5403e-08
3.53904e-08
9.69441e-09
2.84179e-08
3.53943e-08
1.93371e-08
6.95613e-09
1.16885e-08
3.33215e-08
2.38582e-08
6.2514e-08
3.96082e-08
1.8472e-08
2.17908e-08
6.72565e-09
3.95642e-08
5.25143e-08
4.56565e-08
5.31684e-09
2.10197e-08
4.50819e-08
3.36694e-08
7.15786e-08
7.84961e-08
8.60199e-08
9.5197e-08
2.67494e-08
3.9923e-08
1.17684e-07
1.82813e-07
1.05054e-07
4.3625e-08
2.39192e-08
7.07989e-08
5.19369e-08
1.41208e-08
1.59278e-08
1.90818e-08
3.34224e-08
2.11719e-08
3.05966e-08
3.01449e-08
6.9611e-09
1.86157e-08
2.2534e-08
1.30284e-08
5.70359e-09
6.57851e-09
1.9692e-08
1.85535e-08
4.90084e-08
3.2837e-08
9.79197e-09
1.14998e-08
4.74224e-09
2.71456e-08
3.70761e-08
2.68141e-08
6.48127e-09
1.78461e-08
3.30285e-08
2.78099e-08
5.43285e-08
6.21386e-08
7.14931e-08
7.27686e-08
2.03581e-08
3.58897e-08
1.03394e-07
1.44876e-07
8.74363e-08
3.77056e-08
2.7652e-08
5.91068e-08
4.20571e-08
1.06688e-08
1.13624e-08
1.89263e-08
2.81689e-08
1.35404e-08
1.9389e-08
2.43288e-08
5.26582e-09
1.17008e-08
1.4205e-08
8.88812e-09
4.83192e-09
3.95185e-09
1.19285e-08
1.49622e-08
3.81248e-08
2.72104e-08
5.58906e-09
5.78168e-09
3.65633e-09
1.84491e-08
2.60273e-08
1.68806e-08
7.39549e-09
1.54619e-08
2.45945e-08
2.369e-08
4.27779e-08
4.96815e-08
5.77896e-08
5.39657e-08
1.61103e-08
3.16922e-08
8.88756e-08
1.15674e-07
7.36237e-08
3.40705e-08
3.0314e-08
4.98297e-08
3.50565e-08
9.6616e-09
9.14566e-09
1.82077e-08
2.28373e-08
8.83903e-09
1.18296e-08
1.86482e-08
4.04071e-09
7.16515e-09
8.91978e-09
6.19366e-09
4.10842e-09
2.69262e-09
7.61309e-09
1.25003e-08
2.98823e-08
2.28001e-08
4.1819e-09
3.0919e-09
3.04506e-09
1.26237e-08
1.81839e-08
1.16455e-08
7.76266e-09
1.36429e-08
1.89528e-08
2.04931e-08
3.4522e-08
4.01329e-08
4.54883e-08
3.96089e-08
1.29948e-08
2.73676e-08
7.43268e-08
9.28477e-08
6.23445e-08
3.16959e-08
3.11424e-08
4.23969e-08
2.99509e-08
9.87858e-09
8.29734e-09
1.67218e-08
1.79194e-08
5.89461e-09
7.06371e-09
1.36329e-08
3.14233e-09
4.31455e-09
5.61011e-09
4.35871e-09
3.43856e-09
2.12036e-09
5.3003e-09
1.06885e-08
2.36737e-08
1.94233e-08
4.30351e-09
2.20357e-09
2.6945e-09
8.79293e-09
1.27385e-08
8.80394e-09
7.69085e-09
1.20925e-08
1.52528e-08
1.78118e-08
2.81702e-08
3.26884e-08
3.52289e-08
2.89961e-08
1.05687e-08
2.30871e-08
6.05527e-08
7.44002e-08
5.28388e-08
2.98274e-08
3.03726e-08
3.63699e-08
2.61918e-08
1.05046e-08
8.19144e-09
1.46823e-08
1.37094e-08
4.0103e-09
4.16838e-09
9.56978e-09
2.48418e-09
2.57316e-09
3.52797e-09
3.07176e-09
2.81944e-09
1.91431e-09
4.07645e-09
9.22009e-09
1.89625e-08
1.6717e-08
5.01722e-09
2.23702e-09
2.49039e-09
6.32317e-09
9.04328e-09
7.14347e-09
7.32516e-09
1.06412e-08
1.27485e-08
1.5464e-08
2.31724e-08
2.67441e-08
2.72775e-08
2.12971e-08
8.66192e-09
1.906e-08
4.81704e-08
5.92116e-08
4.47447e-08
2.79878e-08
2.85917e-08
3.14138e-08
2.33004e-08
1.11548e-08
8.30508e-09
1.24799e-08
1.03164e-08
2.80264e-09
2.44539e-09
6.5058e-09
1.93806e-09
1.53789e-09
2.2264e-09
2.15065e-09
2.27954e-09
1.83906e-09
3.39974e-09
7.95501e-09
1.53256e-08
1.44051e-08
5.73031e-09
2.61812e-09
2.3852e-09
4.71667e-09
6.60895e-09
6.04667e-09
6.76192e-09
9.31288e-09
1.08732e-08
1.3356e-08
1.91227e-08
2.18739e-08
2.1147e-08
1.57662e-08
7.17628e-09
1.54883e-08
3.75059e-08
4.66642e-08
3.74796e-08
2.59213e-08
2.62247e-08
2.72665e-08
2.09394e-08
1.15706e-08
8.38475e-09
1.04011e-08
7.71686e-09
2.02259e-09
1.42134e-09
4.28558e-09
1.47561e-09
9.11429e-10
1.4205e-09
1.50634e-09
1.81112e-09
1.7719e-09
2.97344e-09
6.82473e-09
1.24507e-08
1.2336e-08
6.13587e-09
3.02057e-09
2.34782e-09
3.69349e-09
5.02487e-09
5.23553e-09
6.08798e-09
8.024e-09
9.31735e-09
1.14576e-08
1.57619e-08
1.78105e-08
1.64304e-08
1.18163e-08
6.03921e-09
1.24523e-08
2.8707e-08
3.63663e-08
3.10893e-08
2.35561e-08
2.35705e-08
2.37144e-08
1.88762e-08
1.16577e-08
8.30301e-09
8.58287e-09
5.79757e-09
1.51982e-09
8.1069e-10
2.75633e-09
1.08614e-09
5.3474e-10
9.1585e-10
1.0511e-09
1.4113e-09
1.66204e-09
2.64911e-09
5.81831e-09
1.0116e-08
1.04345e-08
6.14898e-09
3.29e-09
2.34018e-09
3.04477e-09
3.99899e-09
4.57475e-09
5.40978e-09
6.86548e-09
7.98754e-09
9.76019e-09
1.29364e-08
1.44001e-08
1.28133e-08
9.01278e-09
5.17218e-09
9.9553e-09
2.16725e-08
2.80068e-08
2.54946e-08
2.09394e-08
2.08246e-08
2.05885e-08
1.69442e-08
1.13473e-08
8.00653e-09
7.07739e-09
4.4273e-09
1.20026e-09
4.49888e-10
1.73869e-09
7.71517e-10
3.04564e-10
5.94815e-10
7.36798e-10
1.07757e-09
1.49947e-09
2.35881e-09
4.89964e-09
8.17357e-09
8.68351e-09
5.8142e-09
3.37804e-09
2.3337e-09
2.63703e-09
3.32918e-09
4.01258e-09
4.77154e-09
5.84651e-09
6.80573e-09
8.25398e-09
1.05595e-08
1.15506e-08
1.00376e-08
7.0205e-09
4.50137e-09
7.94856e-09
1.61891e-08
2.13216e-08
2.0638e-08
1.81842e-08
1.81008e-08
1.7765e-08
1.50505e-08
1.06992e-08
7.50885e-09
5.86697e-09
3.4726e-09
1.00336e-09
2.48804e-10
1.09478e-09
5.34894e-10
1.59108e-10
3.87809e-10
5.15294e-10
8.06793e-10
1.29806e-09
2.08894e-09
4.08098e-09
6.53778e-09
7.09219e-09
5.23619e-09
3.29897e-09
2.30741e-09
2.37687e-09
2.87978e-09
3.52805e-09
4.17639e-09
4.97856e-09
5.78045e-09
6.93607e-09
8.57369e-09
9.20019e-09
7.90509e-09
5.59859e-09
3.95918e-09
6.35777e-09
1.20085e-08
1.60645e-08
1.6468e-08
1.54209e-08
1.54647e-08
1.51648e-08
1.31595e-08
9.77907e-09
6.85658e-09
4.90163e-09
2.81551e-09
8.88951e-10
1.55184e-10
7.12084e-10
3.7689e-10
6.74601e-11
2.55302e-10
3.71737e-10
5.96629e-10
1.08385e-09
1.79749e-09
3.34227e-09
5.15783e-09
5.67745e-09
4.52831e-09
3.08923e-09
2.24679e-09
2.20154e-09
2.56336e-09
3.11168e-09
3.64385e-09
4.24699e-09
4.90307e-09
5.80183e-09
6.93482e-09
7.29728e-09
6.2657e-09
4.56429e-09
3.49871e-09
5.10441e-09
8.88708e-09
1.19959e-08
1.29378e-08
1.27666e-08
1.29593e-08
1.27484e-08
1.12783e-08
8.66819e-09
6.10558e-09
4.12637e-09
2.36356e-09
8.28633e-10
1.34362e-10
5.10096e-10
3.01303e-10
1.62938e-11
1.73906e-10
2.795e-10
4.41069e-10
8.82485e-10
1.51125e-09
2.69197e-09
4.0014e-09
4.452e-09
3.78633e-09
2.79417e-09
2.14956e-09
2.06654e-09
2.32482e-09
2.75691e-09
3.1806e-09
3.63921e-09
4.16457e-09
4.84394e-09
5.60396e-09
5.78759e-09
5.00679e-09
3.79123e-09
3.09023e-09
4.11613e-09
6.58401e-09
8.88735e-09
9.99565e-09
1.03113e-08
1.0622e-08
1.05077e-08
9.44158e-09
7.45289e-09
5.30707e-09
3.49159e-09
2.04515e-09
8.0148e-10
1.6075e-10
4.31872e-10
3.00848e-10
2.64477e-15
1.28773e-10
2.26008e-10
3.32927e-10
7.0834e-10
1.23985e-09
2.11849e-09
3.04415e-09
3.41981e-09
3.07773e-09
2.45595e-09
2.01555e-09
1.94404e-09
2.131e-09
2.4579e-09
2.78862e-09
3.14143e-09
3.55329e-09
4.05168e-09
4.54374e-09
4.6142e-09
4.0425e-09
3.19362e-09
2.71783e-09
3.33156e-09
4.89317e-09
6.5355e-09
7.5854e-09
8.11567e-09
8.48863e-09
8.4559e-09
7.6973e-09
6.21472e-09
4.50252e-09
2.9547e-09
1.80791e-09
7.91686e-10
2.13865e-10
4.34351e-10
3.09061e-10
1.67364e-11
1.27356e-10
2.03297e-10
2.64723e-10
5.66734e-10
9.8923e-10
1.62367e-09
2.26721e-09
2.57575e-09
2.44606e-09
2.10957e-09
1.85395e-09
1.82016e-09
1.9632e-09
2.20779e-09
2.46456e-09
2.73874e-09
3.05541e-09
3.41028e-09
3.71571e-09
3.71895e-09
3.30573e-09
2.71656e-09
2.37491e-09
2.70329e-09
3.65002e-09
4.77035e-09
5.64627e-09
6.21348e-09
6.59178e-09
6.61683e-09
6.09383e-09
5.02276e-09
3.72472e-09
2.48577e-09
1.61525e-09
7.87701e-10
2.80009e-10
4.80789e-10
3.60813e-10
6.56938e-11
1.62435e-10
2.142e-10
2.31461e-10
4.58737e-10
7.70907e-10
1.21315e-09
1.65518e-09
1.90909e-09
1.91412e-09
1.78181e-09
1.67677e-09
1.69115e-09
1.81264e-09
2.00007e-09
2.20168e-09
2.4169e-09
2.65651e-09
2.90194e-09
3.08114e-09
3.04607e-09
2.74363e-09
2.32703e-09
2.0613e-09
2.19659e-09
2.73202e-09
3.45346e-09
4.11526e-09
4.61682e-09
4.95603e-09
5.01436e-09
4.67119e-09
3.93005e-09
3.0004e-09
2.06686e-09
1.44383e-09
7.80808e-10
3.47688e-10
5.56149e-10
4.61525e-10
1.45836e-10
2.28444e-10
2.61461e-10
2.33333e-10
3.88927e-10
5.99543e-10
8.95136e-10
1.19655e-09
1.40696e-09
1.49067e-09
1.4953e-09
1.50149e-09
1.5614e-09
1.67629e-09
1.82817e-09
1.99122e-09
2.16269e-09
2.34246e-09
2.50751e-09
2.60335e-09
2.54633e-09
2.31548e-09
2.0064e-09
1.78067e-09
1.788e-09
2.05162e-09
2.47809e-09
2.93149e-09
3.32013e-09
3.59524e-09
3.66608e-09
3.45741e-09
2.97438e-09
2.35149e-09
1.69168e-09
1.28224e-09
7.65874e-10
4.10995e-10
6.52091e-10
5.96902e-10
2.5996e-10
3.32141e-10
3.49064e-10
2.7694e-10
3.68357e-10
4.93147e-10
6.81018e-10
8.85887e-10
1.06085e-09
1.1843e-09
1.26921e-09
1.34641e-09
1.43975e-09
1.55414e-09
1.68534e-09
1.82316e-09
1.96379e-09
2.09996e-09
2.20859e-09
2.25042e-09
2.17971e-09
1.99138e-09
1.74515e-09
1.5387e-09
1.46352e-09
1.5502e-09
1.76585e-09
2.04086e-09
2.30705e-09
2.50811e-09
2.577e-09
2.46518e-09
2.17624e-09
1.79535e-09
1.36254e-09
1.12818e-09
7.40446e-10
4.65104e-10
7.61351e-10
7.76778e-10
4.21463e-10
4.86439e-10
4.87541e-10
3.74774e-10
4.13706e-10
4.72494e-10
5.85625e-10
7.2551e-10
8.70457e-10
1.00477e-09
1.12381e-09
1.23228e-09
1.33809e-09
1.4476e-09
1.56466e-09
1.68701e-09
1.80876e-09
1.91695e-09
1.98891e-09
1.99657e-09
1.91622e-09
1.75101e-09
1.53985e-09
1.34273e-09
1.2171e-09
1.19239e-09
1.26397e-09
1.40009e-09
1.55663e-09
1.68743e-09
1.74517e-09
1.69858e-09
1.54836e-09
1.34641e-09
1.08928e-09
9.88283e-10
7.05043e-10
5.04089e-10
8.8312e-10
1.04892e-09
6.60835e-10
7.14382e-10
6.93398e-10
5.43949e-10
5.44694e-10
5.5956e-10
6.2766e-10
7.28634e-10
8.496e-10
9.74172e-10
1.08821e-09
1.18606e-09
1.27213e-09
1.35925e-09
1.45887e-09
1.57187e-09
1.68705e-09
1.7832e-09
1.83531e-09
1.82255e-09
1.73501e-09
1.58194e-09
1.39153e-09
1.20237e-09
1.05154e-09
9.6297e-10
9.43255e-10
9.8074e-10
1.0506e-09
1.12179e-09
1.16332e-09
1.15529e-09
1.096e-09
1.01677e-09
8.87786e-10
8.79633e-10
6.67558e-10
5.15149e-10
1.02731e-09
2.16057e-07
5.49984e-07
2.3624e-07
2.90698e-07
5.491e-08
1.59357e-07
2.21742e-07
1.28453e-07
4.68558e-07
4.36205e-07
1.64073e-07
3.8253e-07
7.22418e-08
2.95881e-07
3.06288e-07
6.19867e-07
1.37028e-07
8.44891e-08
3.43106e-07
1.51169e-07
3.86887e-07
7.19947e-07
4.13267e-07
8.0112e-07
5.19465e-07
1.76704e-07
9.55195e-08
8.26532e-07
2.38118e-07
2.54476e-07
2.88266e-07
7.70694e-08
3.08358e-07
5.19968e-08
2.16473e-08
4.24471e-07
1.03078e-07
1.92982e-07
2.76943e-07
6.27491e-08
2.19359e-07
5.43992e-07
2.36334e-07
2.92393e-07
5.72914e-08
1.596e-07
2.23787e-07
1.30701e-07
4.76329e-07
4.46652e-07
1.66508e-07
3.78736e-07
7.15008e-08
2.82326e-07
3.05578e-07
6.28019e-07
1.33696e-07
8.37593e-08
3.48407e-07
1.49409e-07
3.90385e-07
7.12873e-07
4.1634e-07
7.81157e-07
5.28661e-07
1.77139e-07
9.06072e-08
8.31245e-07
2.43525e-07
2.64024e-07
2.86219e-07
7.56002e-08
3.05633e-07
5.28411e-08
2.16033e-08
4.25435e-07
1.00251e-07
1.86952e-07
2.8203e-07
6.32524e-08
2.28082e-07
5.19246e-07
2.34071e-07
2.97686e-07
6.09647e-08
1.59566e-07
2.36638e-07
1.37286e-07
4.86624e-07
4.74749e-07
1.69977e-07
3.62471e-07
7.28372e-08
2.47071e-07
3.02147e-07
6.30091e-07
1.31604e-07
8.54678e-08
3.46259e-07
1.45278e-07
4.05129e-07
6.98972e-07
4.18546e-07
7.47921e-07
5.32661e-07
1.79607e-07
7.94281e-08
8.4383e-07
2.57573e-07
2.76676e-07
2.77716e-07
7.35635e-08
2.9698e-07
5.67018e-08
2.29683e-08
4.01962e-07
9.45841e-08
1.73076e-07
2.8618e-07
6.62769e-08
2.32969e-07
4.67851e-07
2.15385e-07
3.27741e-07
6.32096e-08
1.4781e-07
2.61511e-07
1.45092e-07
4.74769e-07
5.18735e-07
1.61341e-07
3.23193e-07
7.42102e-08
1.9973e-07
2.69137e-07
6.15526e-07
1.33242e-07
8.91713e-08
3.40003e-07
1.37415e-07
4.25962e-07
6.80364e-07
3.99188e-07
7.199e-07
4.85153e-07
1.79542e-07
6.38953e-08
8.51207e-07
3.02918e-07
2.69055e-07
2.57557e-07
7.07338e-08
2.76624e-07
6.7126e-08
2.78826e-08
3.33116e-07
9.2123e-08
1.51835e-07
2.75696e-07
7.6724e-08
2.2619e-07
4.26842e-07
1.92842e-07
3.74027e-07
5.2527e-08
1.35836e-07
2.93312e-07
1.529e-07
4.30626e-07
5.48785e-07
1.56339e-07
2.97797e-07
7.8268e-08
1.47748e-07
2.50068e-07
6.46768e-07
1.25435e-07
9.10265e-08
3.57842e-07
1.18393e-07
4.44531e-07
6.191e-07
3.84545e-07
6.31274e-07
4.13852e-07
1.61576e-07
5.8332e-08
8.16671e-07
3.49914e-07
2.40167e-07
2.27917e-07
7.08798e-08
2.62371e-07
7.94818e-08
4.06246e-08
2.39852e-07
1.09785e-07
1.26427e-07
2.62267e-07
9.2634e-08
1.99121e-07
3.88987e-07
1.69691e-07
3.59219e-07
6.14028e-08
1.23824e-07
3.13826e-07
1.57077e-07
3.32173e-07
4.93755e-07
1.64966e-07
3.08336e-07
7.7132e-08
1.34463e-07
2.26006e-07
6.54215e-07
9.94324e-08
8.82622e-08
3.62306e-07
1.06719e-07
3.91937e-07
5.68323e-07
3.80774e-07
5.14354e-07
3.28544e-07
1.26139e-07
5.70916e-08
7.64148e-07
3.83661e-07
1.90712e-07
1.81005e-07
6.85742e-08
2.25076e-07
9.47483e-08
5.68999e-08
1.62407e-07
1.30261e-07
9.70085e-08
2.67488e-07
9.9383e-08
1.51602e-07
3.22907e-07
1.52115e-07
2.49827e-07
5.23057e-08
1.3696e-07
2.61143e-07
1.44562e-07
2.38689e-07
4.13298e-07
1.34115e-07
2.98712e-07
6.72269e-08
1.08849e-07
2.181e-07
6.89155e-07
9.61246e-08
9.31381e-08
3.32291e-07
1.04721e-07
3.51395e-07
5.08112e-07
3.19011e-07
4.37842e-07
2.29274e-07
9.26117e-08
5.96995e-08
6.94715e-07
3.60725e-07
1.45382e-07
1.39844e-07
6.73286e-08
2.03321e-07
8.78938e-08
7.81699e-08
1.11503e-07
1.29734e-07
7.54014e-08
2.54365e-07
9.60204e-08
9.44047e-08
2.66181e-07
1.29481e-07
1.99551e-07
3.0386e-08
1.04824e-07
2.04814e-07
1.24521e-07
1.80372e-07
3.10015e-07
9.09542e-08
2.70675e-07
5.30875e-08
1.01589e-07
1.96139e-07
6.91567e-07
9.13738e-08
9.68941e-08
2.79544e-07
9.15346e-08
2.87353e-07
4.12815e-07
2.24985e-07
3.88291e-07
1.43703e-07
7.06778e-08
8.71583e-08
5.91798e-07
2.76743e-07
1.18458e-07
1.03607e-07
6.22191e-08
1.65019e-07
6.84984e-08
8.1946e-08
7.81191e-08
1.31856e-07
6.45963e-08
1.98365e-07
8.46719e-08
6.5584e-08
2.03941e-07
1.10867e-07
1.40447e-07
1.43271e-08
8.46025e-08
1.33407e-07
8.83456e-08
1.3685e-07
2.01167e-07
6.29184e-08
2.22071e-07
4.20075e-08
1.15692e-07
1.58006e-07
5.18586e-07
6.69893e-08
8.16856e-08
2.01441e-07
7.71403e-08
2.26267e-07
3.34869e-07
1.86074e-07
3.14554e-07
1.08502e-07
5.32704e-08
1.26008e-07
4.7086e-07
1.9781e-07
9.45095e-08
7.18028e-08
5.87049e-08
1.31368e-07
3.72211e-08
6.97332e-08
5.68125e-08
1.16337e-07
5.37255e-08
1.65082e-07
6.68938e-08
5.07671e-08
1.61366e-07
8.2619e-08
8.67007e-08
1.15754e-08
5.85046e-08
9.93612e-08
5.73854e-08
1.05009e-07
1.31775e-07
4.61007e-08
1.60131e-07
3.1996e-08
1.08322e-07
1.36157e-07
3.10547e-07
4.00115e-08
5.86106e-08
1.27942e-07
6.24407e-08
1.66008e-07
2.48849e-07
1.78649e-07
2.35097e-07
8.95378e-08
4.08564e-08
1.38463e-07
3.65299e-07
1.50715e-07
6.78508e-08
4.43666e-08
5.51645e-08
1.04258e-07
2.36991e-08
5.21185e-08
4.08526e-08
8.97839e-08
4.33339e-08
1.14798e-07
5.74857e-08
4.13388e-08
1.09377e-07
5.67382e-08
5.39925e-08
1.11888e-08
4.14036e-08
6.41312e-08
3.63998e-08
8.14149e-08
8.75608e-08
3.18781e-08
9.92592e-08
2.11895e-08
8.75525e-08
1.16347e-07
2.00988e-07
2.51971e-08
3.93447e-08
7.6687e-08
5.43777e-08
1.28314e-07
1.81619e-07
1.58614e-07
1.82345e-07
6.4534e-08
3.6189e-08
1.24879e-07
2.87776e-07
1.24416e-07
5.52507e-08
2.68532e-08
4.86942e-08
7.5439e-08
1.86264e-08
3.35382e-08
2.5223e-08
6.77973e-08
3.25473e-08
7.71757e-08
4.70768e-08
3.09357e-08
7.21588e-08
3.91201e-08
3.35872e-08
1.07885e-08
2.57723e-08
3.74312e-08
2.20086e-08
6.13916e-08
5.61941e-08
1.93651e-08
5.80186e-08
1.23062e-08
6.67746e-08
9.64426e-08
1.29288e-07
1.73149e-08
2.48699e-08
4.60099e-08
4.69595e-08
1.01465e-07
1.34868e-07
1.27174e-07
1.42291e-07
4.367e-08
3.52938e-08
1.18502e-07
2.27473e-07
1.07517e-07
4.30601e-08
1.81872e-08
4.2642e-08
5.58777e-08
1.40451e-08
2.11495e-08
1.71098e-08
4.87612e-08
2.23027e-08
4.97221e-08
3.92286e-08
2.23115e-08
4.68959e-08
2.58246e-08
2.0738e-08
9.98169e-09
1.67451e-08
2.19104e-08
1.36535e-08
4.55216e-08
3.76898e-08
1.18192e-08
3.18877e-08
7.27745e-09
4.94615e-08
7.49179e-08
8.12677e-08
1.45377e-08
1.67937e-08
2.74387e-08
3.95471e-08
8.18574e-08
9.919e-08
9.98837e-08
1.07835e-07
3.16364e-08
3.55834e-08
1.11927e-07
1.81169e-07
9.31455e-08
3.42375e-08
1.53538e-08
3.78638e-08
4.13116e-08
1.02728e-08
1.27199e-08
1.42963e-08
3.60569e-08
1.49318e-08
3.10042e-08
3.17654e-08
1.60703e-08
2.96163e-08
1.68142e-08
1.33139e-08
9.11806e-09
1.09414e-08
1.32019e-08
9.76522e-09
3.42794e-08
2.65426e-08
6.57676e-09
1.63988e-08
4.55057e-09
3.53825e-08
5.69669e-08
5.20595e-08
1.34535e-08
1.32723e-08
1.81792e-08
3.23077e-08
6.51192e-08
7.54231e-08
7.87337e-08
7.94706e-08
2.40273e-08
3.46396e-08
1.00908e-07
1.45195e-07
8.11154e-08
2.93387e-08
1.6224e-08
3.43218e-08
3.25115e-08
8.3988e-09
8.15518e-09
1.29571e-08
2.70076e-08
1.01578e-08
1.88694e-08
2.53054e-08
1.14638e-08
1.83697e-08
1.09338e-08
8.75465e-09
8.03544e-09
7.49684e-09
8.39099e-09
8.14289e-09
2.64934e-08
2.00232e-08
3.64099e-09
7.9462e-09
3.25631e-09
2.49758e-08
4.20746e-08
3.42164e-08
1.2921e-08
1.22032e-08
1.38785e-08
2.60485e-08
5.12444e-08
5.82894e-08
6.16184e-08
5.78872e-08
1.88754e-08
3.19991e-08
8.75901e-08
1.16743e-07
7.0028e-08
2.68534e-08
1.82787e-08
3.12842e-08
2.71053e-08
7.86925e-09
6.12052e-09
1.19404e-08
1.99408e-08
6.96178e-09
1.14072e-08
1.97737e-08
8.12856e-09
1.11409e-08
7.06738e-09
5.93301e-09
6.75904e-09
5.42227e-09
5.83599e-09
7.53307e-09
2.10461e-08
1.61651e-08
2.41084e-09
3.70842e-09
2.67058e-09
1.75579e-08
3.03785e-08
2.3401e-08
1.23119e-08
1.17085e-08
1.18826e-08
2.10765e-08
3.99948e-08
4.55708e-08
4.77399e-08
4.18997e-08
1.50083e-08
2.82328e-08
7.38087e-08
9.35747e-08
5.99462e-08
2.55531e-08
2.01324e-08
2.86793e-08
2.36063e-08
8.13979e-09
5.51893e-09
1.09276e-08
1.47406e-08
4.81681e-09
6.92258e-09
1.4871e-08
5.72957e-09
6.61343e-09
4.48415e-09
4.1407e-09
5.49086e-09
4.18275e-09
4.5252e-09
7.2644e-09
1.72064e-08
1.37133e-08
2.32052e-09
1.91768e-09
2.42763e-09
1.24475e-08
2.15574e-08
1.68355e-08
1.14088e-08
1.11162e-08
1.08025e-08
1.72615e-08
3.12424e-08
3.58967e-08
3.66772e-08
3.03113e-08
1.20142e-08
2.41685e-08
6.05291e-08
7.46389e-08
5.08722e-08
2.46802e-08
2.11917e-08
2.63253e-08
2.11889e-08
8.78467e-09
5.64201e-09
9.80089e-09
1.09186e-08
3.39607e-09
4.24049e-09
1.07548e-08
4.03399e-09
3.85215e-09
2.84053e-09
2.93769e-09
4.36138e-09
3.45702e-09
3.85826e-09
7.00922e-09
1.44116e-08
1.2029e-08
2.83584e-09
1.45395e-09
2.34121e-09
8.99647e-09
1.52181e-08
1.27036e-08
1.0317e-08
1.03048e-08
9.94761e-09
1.43463e-08
2.44624e-08
2.83894e-08
2.80459e-08
2.20195e-08
9.69761e-09
2.01071e-08
4.84241e-08
5.91233e-08
4.29406e-08
2.37511e-08
2.13867e-08
2.41207e-08
1.94103e-08
9.44993e-09
6.03739e-09
8.61776e-09
8.12934e-09
2.4434e-09
2.63031e-09
7.49939e-09
2.82545e-09
2.21047e-09
1.81873e-09
2.10304e-09
3.40213e-09
2.99659e-09
3.49212e-09
6.64663e-09
1.22643e-08
1.0723e-08
3.53652e-09
1.62083e-09
2.32744e-09
6.67841e-09
1.08252e-08
9.90864e-09
9.01078e-09
9.29698e-09
9.10056e-09
1.20813e-08
1.92541e-08
2.24678e-08
2.14506e-08
1.61446e-08
7.94242e-09
1.64211e-08
3.79002e-08
4.64085e-08
3.58699e-08
2.24989e-08
2.0748e-08
2.2002e-08
1.79261e-08
9.95371e-09
6.42566e-09
7.47996e-09
6.11617e-09
1.80577e-09
1.62625e-09
5.02188e-09
1.96387e-09
1.25525e-09
1.18021e-09
1.52009e-09
2.61859e-09
2.64591e-09
3.23737e-09
6.16173e-09
1.0484e-08
9.56556e-09
4.13449e-09
2.00547e-09
2.34276e-09
5.12599e-09
7.85935e-09
7.90415e-09
7.74517e-09
8.22814e-09
8.22202e-09
1.02633e-08
1.52669e-08
1.77435e-08
1.63847e-08
1.19908e-08
6.60916e-09
1.32402e-08
2.90954e-08
3.6044e-08
2.97021e-08
2.0843e-08
1.95096e-08
1.99215e-08
1.65406e-08
1.02052e-08
6.66235e-09
6.44935e-09
4.67266e-09
1.38141e-09
9.85462e-10
3.24355e-09
1.34519e-09
7.06662e-10
7.78076e-10
1.10418e-09
1.99162e-09
2.32931e-09
2.99932e-09
5.58014e-09
8.91786e-09
8.44095e-09
4.4709e-09
2.381e-09
2.36099e-09
4.08357e-09
5.88776e-09
6.40249e-09
6.59094e-09
7.10306e-09
7.27893e-09
8.7501e-09
1.21932e-08
1.39885e-08
1.2574e-08
9.06412e-09
5.592e-09
1.05932e-08
2.20008e-08
2.76885e-08
2.43301e-08
1.88262e-08
1.78577e-08
1.78483e-08
1.51291e-08
1.00865e-08
6.67622e-09
5.55599e-09
3.64655e-09
1.10427e-09
5.77342e-10
2.02855e-09
9.03871e-10
3.89087e-10
5.20543e-10
8.05412e-10
1.49585e-09
2.01315e-09
2.74082e-09
4.91943e-09
7.49299e-09
7.31525e-09
4.5122e-09
2.63931e-09
2.36392e-09
3.38038e-09
4.58082e-09
5.24626e-09
5.58423e-09
6.05413e-09
6.35084e-09
7.4551e-09
9.79188e-09
1.10033e-08
9.71109e-09
7.0002e-09
4.8153e-09
8.44598e-09
1.64476e-08
2.10417e-08
1.96907e-08
1.65638e-08
1.59466e-08
1.57724e-08
1.36363e-08
9.64221e-09
6.46209e-09
4.79825e-09
2.93435e-09
9.30205e-10
3.29737e-10
1.24436e-09
5.99075e-10
2.01644e-10
3.52223e-10
5.89347e-10
1.11001e-09
1.69511e-09
2.44552e-09
4.22531e-09
6.19027e-09
6.20173e-09
4.29795e-09
2.75048e-09
2.33892e-09
2.89972e-09
3.70307e-09
4.34681e-09
4.72288e-09
5.13826e-09
5.48528e-09
6.33143e-09
7.89191e-09
8.64584e-09
7.56244e-09
5.54298e-09
4.18854e-09
6.73116e-09
1.22064e-08
1.5833e-08
1.57217e-08
1.41955e-08
1.39017e-08
1.37037e-08
1.20566e-08
8.91756e-09
6.05311e-09
4.15841e-09
2.44057e-09
8.27916e-10
1.97836e-10
7.72968e-10
4.05731e-10
9.01907e-11
2.41641e-10
4.36977e-10
8.16554e-10
1.39003e-09
2.11001e-09
3.53906e-09
5.01235e-09
5.1334e-09
3.89951e-09
2.71051e-09
2.27621e-09
2.55824e-09
3.09935e-09
3.64488e-09
4.00322e-09
4.35857e-09
4.70758e-09
5.35648e-09
6.37794e-09
6.80377e-09
5.94802e-09
4.49261e-09
3.65857e-09
5.37289e-09
9.02714e-09
1.18102e-08
1.23658e-08
1.1852e-08
1.18242e-08
1.16693e-08
1.04198e-08
7.98125e-09
5.49968e-09
3.60984e-09
2.09762e-09
7.74334e-10
1.49194e-10
5.1565e-10
3.07559e-10
2.87581e-11
1.71821e-10
3.31902e-10
5.99433e-10
1.11469e-09
1.77223e-09
2.88434e-09
3.96824e-09
4.14548e-09
3.39667e-09
2.55405e-09
2.17527e-09
2.30291e-09
2.66768e-09
3.0966e-09
3.41118e-09
3.71092e-09
4.03044e-09
4.52018e-09
5.17188e-09
5.38059e-09
4.73335e-09
3.71442e-09
3.19341e-09
4.29971e-09
6.67631e-09
8.74197e-09
9.568e-09
9.63783e-09
9.79803e-09
9.70819e-09
8.77731e-09
6.91461e-09
4.85476e-09
3.13015e-09
1.85247e-09
7.51668e-10
1.57194e-10
4.10229e-10
2.84471e-10
5.95194e-12
1.33456e-10
2.64079e-10
4.44238e-10
8.78949e-10
1.4415e-09
2.28152e-09
3.0658e-09
3.26574e-09
2.85779e-09
2.3173e-09
2.03729e-09
2.09503e-09
2.34446e-09
2.66838e-09
2.9321e-09
3.18253e-09
3.45635e-09
3.81628e-09
4.2183e-09
4.29408e-09
3.81783e-09
3.11707e-09
2.77642e-09
3.4494e-09
4.94888e-09
6.4248e-09
7.27316e-09
7.6272e-09
7.89337e-09
7.86528e-09
7.18862e-09
5.799e-09
4.16603e-09
2.69862e-09
1.66471e-09
7.45606e-10
1.99234e-10
3.98389e-10
3.01404e-10
1.73128e-11
1.26233e-10
2.27875e-10
3.39082e-10
6.85395e-10
1.13415e-09
1.74853e-09
2.30879e-09
2.51174e-09
2.33624e-09
2.03828e-09
1.87128e-09
1.91194e-09
2.09085e-09
2.33333e-09
2.54963e-09
2.75717e-09
2.98066e-09
3.23685e-09
3.47346e-09
3.47361e-09
3.1257e-09
2.64306e-09
2.39992e-09
2.77257e-09
3.67964e-09
4.68796e-09
5.42366e-09
5.86572e-09
6.16616e-09
6.18453e-09
5.70981e-09
4.70593e-09
3.47416e-09
2.30087e-09
1.50567e-09
7.4515e-10
2.58548e-10
4.40277e-10
3.59198e-10
6.1134e-11
1.52759e-10
2.25971e-10
2.76416e-10
5.34811e-10
8.66871e-10
1.30036e-09
1.69713e-09
1.89225e-09
1.86738e-09
1.75094e-09
1.68982e-09
1.74322e-09
1.88425e-09
2.07039e-09
2.24765e-09
2.41882e-09
2.59488e-09
2.77098e-09
2.90013e-09
2.85942e-09
2.60036e-09
2.25787e-09
2.06253e-09
2.23159e-09
2.74469e-09
3.39366e-09
3.96055e-09
4.37433e-09
4.65661e-09
4.70253e-09
4.38623e-09
3.69213e-09
2.8134e-09
1.93024e-09
1.35777e-09
7.42071e-10
3.23043e-10
5.148e-10
4.58768e-10
1.36743e-10
2.13309e-10
2.62084e-10
2.55513e-10
4.31727e-10
6.56543e-10
9.5014e-10
1.22966e-09
1.41002e-09
1.47625e-09
1.48477e-09
1.50941e-09
1.58722e-09
1.71183e-09
1.86279e-09
2.01088e-09
2.15264e-09
2.28851e-09
2.40516e-09
2.46556e-09
2.40291e-09
2.2004e-09
1.94195e-09
1.76613e-09
1.80007e-09
2.05342e-09
2.43562e-09
2.82694e-09
3.15526e-09
3.3882e-09
3.44582e-09
3.25052e-09
2.79751e-09
2.21178e-09
1.58885e-09
1.21342e-09
7.31311e-10
3.85382e-10
6.11114e-10
5.94122e-10
2.47609e-10
3.12727e-10
3.4121e-10
2.82361e-10
3.8681e-10
5.21384e-10
7.10742e-10
9.06903e-10
1.06817e-09
1.18203e-09
1.26576e-09
1.34833e-09
1.44806e-09
1.56647e-09
1.69671e-09
1.82487e-09
1.94495e-09
2.05035e-09
2.12513e-09
2.14205e-09
2.06655e-09
1.89674e-09
1.68511e-09
1.51448e-09
1.46103e-09