/*--------------------------------*- C++ -*----------------------------------*\
  =========                 |
  \\      /  F ield         | OpenFOAM: The Open Source CFD Toolbox
   \\    /   O peration     | Website:  https://openfoam.org
    \\  /    A nd           | Version:  10
     \\/     M anipulation  |
\*---------------------------------------------------------------------------*/
FoamFile
{
    format      ascii;
    class       volVectorField;
    location    "16";
    object      U_0;
}
// * * * * * * * * * * * * * * * * * * * * * * * * * * * * * * * * * * * * * //

dimensions      [0 1 -1 0 0 0 0];

internalField   nonuniform List<vector> 
102400
(
(0.00438732 4.5415e-06 -6.96749e-05)
(0.0045032 5.13158e-06 -4.4941e-05)
(0.00433605 1.78701e-07 -0.000145032)
(0.00427801 -9.80552e-07 -0.000237483)
(0.00429926 8.7967e-07 -0.000102666)
(0.00439329 4.35845e-06 -7.71702e-05)
(0.00448615 4.85736e-06 -2.62354e-05)
(0.00435332 2.08214e-07 -0.000116933)
(0.00431558 -1.07672e-06 -0.000212517)
(0.00433657 7.87654e-07 -0.000115115)
(0.00438381 4.28193e-06 -9.65554e-05)
(0.0044858 4.28319e-06 -8.67455e-05)
(0.00428983 -1.38801e-07 -0.000196657)
(0.00425954 -9.01151e-07 -0.000247264)
(0.00424981 1.24059e-06 -8.66738e-05)
(0.0043163 3.84626e-06 -3.01537e-05)
(0.00435193 4.27964e-06 -3.38601e-05)
(0.00419723 3.55449e-07 -0.000158924)
(0.00418567 -6.18975e-07 -0.000233624)
(0.0042331 2.33068e-06 -0.000117629)
(0.00430339 4.79015e-06 4.77371e-06)
(0.00439013 3.83964e-06 6.52095e-05)
(0.00425047 -1.96242e-07 7.01726e-05)
(0.0042294 6.6717e-08 -6.13618e-05)
(0.00424674 2.8772e-06 -1.29429e-05)
(0.00439982 5.66795e-06 -3.99372e-05)
(0.00448658 5.65444e-06 -9.42062e-05)
(0.0043537 1.02453e-07 -0.000180974)
(0.00427847 -1.11179e-06 -0.000274654)
(0.00434977 6.85722e-07 -0.000176906)
(0.00438542 4.08391e-06 -0.000129328)
(0.00454598 4.68256e-06 -0.000119748)
(0.00437013 1.80931e-07 -0.000145819)
(0.00433372 -7.68326e-07 -0.000250774)
(0.00432437 5.51917e-07 -0.000124061)
(0.0043867 3.62764e-06 -0.00010218)
(0.00451049 4.04853e-06 -5.09281e-05)
(0.00433694 3.50315e-07 -0.000125158)
(0.00427016 -6.0097e-07 -0.000179914)
(0.00428895 1.14188e-06 -7.3075e-05)
(0.0133882 5.68048e-05 -0.000236371)
(0.0138035 5.09201e-05 -0.000180948)
(0.0133406 8.18448e-06 -0.000434113)
(0.0131147 1.65449e-06 -0.000619857)
(0.0131366 1.9493e-05 -0.000217507)
(0.0134153 5.26551e-05 -0.000229925)
(0.0137573 4.72467e-05 -0.000118648)
(0.0133901 6.13575e-06 -0.000352011)
(0.0132272 -1.84439e-07 -0.000554896)
(0.0132493 1.77984e-05 -0.000268146)
(0.0133894 5.31397e-05 -0.00029679)
(0.0137651 4.63295e-05 -0.000303534)
(0.0131963 8.6867e-06 -0.00057668)
(0.0130505 5.16885e-06 -0.000637492)
(0.0129858 2.28145e-05 -0.000167536)
(0.0131841 5.00439e-05 -0.000102244)
(0.013346 4.67335e-05 -0.000162186)
(0.012902 1.3751e-05 -0.000463553)
(0.0128149 1.14416e-05 -0.000581484)
(0.0129296 3.43105e-05 -0.000251469)
(0.0131526 5.64177e-05 8.43322e-06)
(0.0134645 4.12629e-05 0.000159004)
(0.0130554 7.33328e-06 0.00021187)
(0.0129456 1.35569e-05 -0.000131689)
(0.0129642 3.70001e-05 3.03087e-06)
(0.0134311 6.23605e-05 -0.000154027)
(0.0137634 5.2856e-05 -0.000329476)
(0.0134015 3.92951e-06 -0.000525912)
(0.0131213 -2.40197e-06 -0.000731054)
(0.0133017 1.54742e-05 -0.000447763)
(0.0133901 5.19559e-05 -0.00039766)
(0.0139296 4.90618e-05 -0.000395537)
(0.0134372 9.35708e-06 -0.000432598)
(0.0132907 2.38163e-06 -0.000668231)
(0.013229 1.50157e-05 -0.000292658)
(0.0134002 4.60821e-05 -0.000307557)
(0.0138251 4.33053e-05 -0.000183004)
(0.013333 1.12874e-05 -0.000375987)
(0.0130911 4.25929e-06 -0.000451681)
(0.0131071 2.09275e-05 -0.000147134)
(0.0228822 0.00016445 -0.000425667)
(0.0237114 0.000137552 -0.000371722)
(0.0230119 2.48361e-05 -0.000719238)
(0.0225326 1.54425e-05 -0.000928765)
(0.0224947 6.42631e-05 -0.000255705)
(0.0229432 0.000151532 -0.000385741)
(0.0236384 0.000127393 -0.000262455)
(0.0230823 1.92326e-05 -0.000582795)
(0.0227186 9.48555e-06 -0.000822959)
(0.0226919 5.79527e-05 -0.000346769)
(0.0229058 0.000152374 -0.000500845)
(0.0236695 0.000126863 -0.000565427)
(0.0227623 2.88222e-05 -0.000944375)
(0.0224142 2.62151e-05 -0.000953113)
(0.022244 7.26525e-05 -0.000177917)
(0.0225636 0.00014537 -0.000185806)
(0.0229453 0.000128427 -0.000349309)
(0.0222313 4.41018e-05 -0.000749885)
(0.0219834 4.66188e-05 -0.000825402)
(0.0221266 0.000105518 -0.000308627)
(0.0225052 0.000162821 -1.53548e-05)
(0.0231346 0.000115526 0.000187428)
(0.0224793 2.57602e-05 0.000361107)
(0.022212 4.72681e-05 -0.000131489)
(0.0221784 0.000110172 7.67809e-05)
(0.0229582 0.000174985 -0.00027712)
(0.0236583 0.00014014 -0.000607856)
(0.0231271 1.08995e-05 -0.000853316)
(0.0225477 2.20871e-06 -0.00110467)
(0.0227933 5.10857e-05 -0.000644919)
(0.0229007 0.000149981 -0.000676928)
(0.0239184 0.000134492 -0.000727336)
(0.023167 2.78313e-05 -0.000720331)
(0.0228433 1.47228e-05 -0.00101812)
(0.0226833 5.00006e-05 -0.000392038)
(0.0229255 0.000134503 -0.000519219)
(0.0237459 0.000119105 -0.000360516)
(0.02299 3.37017e-05 -0.000632863)
(0.0224985 2.11226e-05 -0.000654009)
(0.0224463 6.71591e-05 -0.000147256)
(0.0327983 0.00032563 -0.000598158)
(0.0341962 0.000266944 -0.000624534)
(0.0333693 5.82774e-05 -0.00101202)
(0.0325206 4.84442e-05 -0.0011864)
(0.0323345 0.000135809 -0.00021056)
(0.032908 0.000299267 -0.000515133)
(0.0340996 0.000247188 -0.000465052)
(0.0334379 4.77013e-05 -0.000818934)
(0.0327713 3.56735e-05 -0.00102816)
(0.0326292 0.000121524 -0.000331206)
(0.0328663 0.000299858 -0.000669497)
(0.0341754 0.000249085 -0.000866702)
(0.0330102 6.93584e-05 -0.00131043)
(0.03234 7.04459e-05 -0.00122452)
(0.0319917 0.000152677 -0.000120706)
(0.0323985 0.000290417 -0.000249707)
(0.0331357 0.000253019 -0.000591777)
(0.0321964 0.000100404 -0.00103382)
(0.0316642 0.000112711 -0.000982611)
(0.0317746 0.000218932 -0.000285741)
(0.0322913 0.000326198 -6.21943e-05)
(0.033369 0.00023257 0.000110162)
(0.0325265 6.32959e-05 0.000489702)
(0.0320111 0.000105084 -5.05198e-05)
(0.0318456 0.00022025 0.0002434)
(0.0329049 0.000339522 -0.000353209)
(0.034144 0.00026933 -0.000917424)
(0.0335535 2.81664e-05 -0.00117321)
(0.0325415 1.89865e-05 -0.00140079)
(0.0327868 0.000106609 -0.000746743)
(0.0328531 0.000295324 -0.000928962)
(0.0344791 0.000263253 -0.00112586)
(0.0335756 6.32483e-05 -0.00102929)
(0.0329795 4.26227e-05 -0.00131592)
(0.0326607 0.000105745 -0.000410881)
(0.0328986 0.000267391 -0.000709195)
(0.0342413 0.000233585 -0.00059291)
(0.0333299 7.49475e-05 -0.000914419)
(0.0324886 5.69565e-05 -0.0008157)
(0.0322705 0.00013947 -5.03742e-05)
(0.0430293 0.000529607 -0.0006703)
(0.0451689 0.0004406 -0.000930363)
(0.0443959 0.000120116 -0.00134822)
(0.0430518 0.000111401 -0.00144471)
(0.0426023 0.000231707 -6.90266e-05)
(0.0432012 0.000486699 -0.000548169)
(0.0450559 0.000407505 -0.000716185)
(0.0444293 0.000103837 -0.00109535)
(0.0433455 8.95484e-05 -0.00121208)
(0.0430075 0.000204056 -0.000194183)
(0.043163 0.000485523 -0.000723387)
(0.0452001 0.000413622 -0.0011842)
(0.0439296 0.000142129 -0.00170603)
(0.0428019 0.00014794 -0.00150655)
(0.0421796 0.000261226 9.09869e-06)
(0.0425946 0.00047944 -0.000225233)
(0.0438543 0.000423585 -0.000872382)
(0.0427856 0.000193786 -0.00136526)
(0.0418183 0.000216617 -0.0010992)
(0.0418051 0.00037273 -0.000158631)
(0.0424027 0.000543746 -8.28609e-05)
(0.0440849 0.000398899 -0.000104976)
(0.0431711 0.000131852 0.000528596)
(0.0423105 0.000190634 8.95601e-05)
(0.0419116 0.000358588 0.000548068)
(0.0431539 0.000543462 -0.000287282)
(0.0451318 0.000438252 -0.00122698)
(0.0446679 6.6461e-05 -0.00151774)
(0.0430681 5.67509e-05 -0.00165198)
(0.0432246 0.000176961 -0.000719233)
(0.0431467 0.000475567 -0.00107038)
(0.0455226 0.000434391 -0.00158098)
(0.0446409 0.000126548 -0.00140436)
(0.0436648 9.51988e-05 -0.00160577)
(0.0431182 0.000178339 -0.000330866)
(0.0432213 0.000435346 -0.000810835)
(0.0452234 0.000387683 -0.0008708)
(0.0443375 0.000145021 -0.00125888)
(0.0430431 0.000120914 -0.00100035)
(0.0425321 0.000232379 0.000172262)
(0.0534445 0.000755848 -0.000507518)
(0.0564757 0.00065449 -0.00122787)
(0.0560326 0.000222735 -0.00176873)
(0.0540936 0.000219774 -0.00179832)
(0.0532486 0.00034916 0.0001584)
(0.0536848 0.00069671 -0.000369223)
(0.0563608 0.000604761 -0.000954635)
(0.0559914 0.000201273 -0.0014557)
(0.0543892 0.000188652 -0.00146329)
(0.0537704 0.000301011 6.81472e-05)
(0.0536559 0.000690491 -0.000538768)
(0.0565919 0.000615464 -0.00144565)
(0.0554718 0.000259274 -0.00216277)
(0.0537682 0.000272602 -0.00188836)
(0.0527576 0.000395678 0.00019796)
(0.0530279 0.000699845 -2.17662e-06)
(0.054981 0.000638772 -0.00112691)
(0.0539652 0.00033582 -0.00181102)
(0.05241 0.000368789 -0.00127148)
(0.0521488 0.000561712 9.46787e-05)
(0.0527036 0.000806227 3.45667e-05)
(0.0551437 0.00061857 -0.000443467)
(0.0543535 0.000247742 0.00037428)
(0.0530723 0.000311549 0.000205293)
(0.052333 0.00051623 0.00101306)
(0.0535588 0.000764951 5.90992e-05)
(0.0564609 0.000638245 -0.00145115)
(0.0564153 0.000137553 -0.00192103)
(0.0540868 0.000129953 -0.0019363)
(0.0540441 0.000256625 -0.000546253)
(0.0536528 0.000668144 -0.000964331)
(0.0568973 0.000639551 -0.00202299)
(0.0562968 0.000229548 -0.0018953)
(0.0548491 0.00018709 -0.00197687)
(0.0540104 0.000262711 -0.000154995)
(0.0537733 0.000619929 -0.000712853)
(0.0565425 0.000576966 -0.00113383)
(0.0559529 0.000254296 -0.00170221)
(0.0541378 0.000226545 -0.00132004)
(0.0531931 0.00034072 0.000518562)
(0.0639009 0.000972994 5.04639e-05)
(0.0678789 0.000885775 -0.00135571)
(0.0681479 0.000369325 -0.00226457)
(0.065598 0.000392503 -0.00237912)
(0.0642381 0.000494708 0.000381399)
(0.0641998 0.000903899 0.000158664)
(0.0677884 0.000818637 -0.00102341)
(0.0679976 0.000344774 -0.00189861)
(0.0658296 0.000356396 -0.00191809)
(0.0648677 0.00041977 0.000377773)
(0.0641835 0.000886011 2.78279e-05)
(0.0681077 0.000833582 -0.00148827)
(0.0675178 0.000423924 -0.00266041)
(0.0651929 0.000461122 -0.00248833)
(0.0636818 0.000559763 0.000362727)
(0.0635518 0.000930254 0.000548703)
(0.0663157 0.000882952 -0.00119764)
(0.0656566 0.00052998 -0.00239788)
(0.0634069 0.000583571 -0.00165853)
(0.0627476 0.000781742 0.000434117)
(0.0630383 0.00109375 0.000459016)
(0.0663356 0.000883675 -0.000783189)
(0.0659561 0.000425795 -6.35081e-05)
(0.0642427 0.000482466 0.000130616)
(0.0630888 0.000690027 0.00157156)
(0.0639613 0.00097134 0.000840644)
(0.0678771 0.000842656 -0.00140626)
(0.068666 0.000243583 -0.00236212)
(0.0655446 0.000258629 -0.00237873)
(0.0651868 0.000347733 -0.000290013)
(0.0642199 0.000840755 -0.00044326)
(0.0683699 0.000851984 -0.00227198)
(0.0684062 0.000374626 -0.00249858)
(0.0664542 0.000338105 -0.00256232)
(0.0652918 0.000363295 3.74625e-05)
(0.0644213 0.000793202 -0.000282117)
(0.0679713 0.000780119 -0.0012301)
(0.06804 0.000404024 -0.00222172)
(0.0657266 0.000391756 -0.00192698)
(0.0642353 0.000467043 0.000889167)
(0.0742858 0.00114782 0.00109156)
(0.0790546 0.00108184 -0.00102946)
(0.080495 0.00053578 -0.00268327)
(0.0774708 0.000639414 -0.00329359)
(0.0755485 0.000692406 0.000368314)
(0.0746056 0.00108404 0.0011031)
(0.0790271 0.00100257 -0.000650313)
(0.0802243 0.000511301 -0.00228254)
(0.07755 0.000610298 -0.00270509)
(0.0762528 0.000589415 0.000508381)
(0.0746037 0.00104326 0.00104896)
(0.0794076 0.00101941 -0.00104233)
(0.0798315 0.00061367 -0.0030421)
(0.0769896 0.000722297 -0.00339887)
(0.0749129 0.000769635 0.000292366)
(0.0740284 0.00114573 0.00149126)
(0.0775654 0.00111556 -0.000807923)
(0.0776932 0.000756209 -0.00300835)
(0.0747649 0.000865789 -0.00244167)
(0.0735681 0.00103714 0.000670843)
(0.0732618 0.00137641 0.00134238)
(0.0773745 0.00116258 -0.000840337)
(0.0777709 0.000660469 -0.000754629)
(0.0757239 0.000719833 -0.00034975)
(0.0741792 0.000891766 0.00198716)
(0.0742458 0.00113144 0.00212787)
(0.0790297 0.000996575 -0.000795897)
(0.0811675 0.000357839 -0.00267119)
(0.0773505 0.000456657 -0.00309406)
(0.0766045 0.000475306 -0.00016224)
(0.0747102 0.000961759 0.000595757)
(0.0796156 0.00101616 -0.00201313)
(0.0807228 0.000535425 -0.00305653)
(0.0783457 0.000561924 -0.00348008)
(0.0769075 0.000503705 3.02843e-05)
(0.0750512 0.00092649 0.000549854)
(0.0792049 0.000950243 -0.000901783)
(0.080346 0.000569687 -0.00264668)
(0.0777045 0.000627429 -0.00294158)
(0.0756576 0.000630557 0.00101864)
(0.0845984 0.00127262 0.00244169)
(0.0896308 0.00117043 7.59602e-05)
(0.0926649 0.000651838 -0.00264892)
(0.0895118 0.000932488 -0.00447018)
(0.0871343 0.00097478 -0.000239915)
(0.0848596 0.00123767 0.00228807)
(0.0897109 0.00109064 0.00046717)
(0.0923086 0.000630343 -0.00224066)
(0.0893455 0.000930878 -0.00379481)
(0.0878495 0.000855266 8.94683e-05)
(0.0848766 0.00116126 0.00235146)
(0.0900957 0.00110266 0.000185165)
(0.0920057 0.000763032 -0.0029436)
(0.088978 0.00103226 -0.00454854)
(0.0863893 0.00104738 -0.000345877)
(0.0843929 0.00133471 0.0026577)
(0.0883658 0.00127593 0.000363545)
(0.0897585 0.000953879 -0.00327538)
(0.086384 0.00119089 -0.00367335)
(0.0845884 0.00133742 0.000422844)
(0.0833073 0.00162964 0.00263472)
(0.0879199 0.00139484 -0.000204724)
(0.0894762 0.0009041 -0.00141074)
(0.087324 0.00101794 -0.00135607)
(0.0855739 0.00115134 0.0018375)
(0.084433 0.00124004 0.00371257)
(0.0895226 0.00102777 0.000689293)
(0.0934938 0.000405894 -0.00245296)
(0.0893173 0.000700621 -0.00403329)
(0.0882259 0.000685039 -0.000525625)
(0.0850863 0.00103243 0.00200069)
(0.0902458 0.00105281 -0.000881857)
(0.0928496 0.000636172 -0.00316728)
(0.0902818 0.000837167 -0.00467924)
(0.0887484 0.000721844 -0.000519208)
(0.0856303 0.00101654 0.00162302)
(0.0898999 0.00102376 0.000129404)
(0.0924609 0.000684561 -0.00258918)
(0.0898451 0.000908718 -0.00428666)
(0.0874253 0.000865732 0.000492548)
(0.0949968 0.00139108 0.00348964)
(0.0993296 0.00109535 0.00204216)
(0.104079 0.000601971 -0.0016288)
(0.101328 0.00117629 -0.00547116)
(0.0988215 0.00134813 -0.00171873)
(0.0950731 0.0014093 0.00313432)
(0.0995446 0.00103594 0.00238096)
(0.103736 0.000585959 -0.0012442)
(0.100864 0.00122481 -0.00479667)
(0.0994511 0.00124223 -0.00119754)
(0.0951179 0.00129227 0.00335285)
(0.0998677 0.00102854 0.00223729)
(0.103453 0.000762477 -0.00186104)
(0.100799 0.00130754 -0.0055252)
(0.0979467 0.00139309 -0.00182024)
(0.0946997 0.00151597 0.00348553)
(0.0983971 0.00130573 0.00241313)
(0.101341 0.001017 -0.00261068)
(0.0980226 0.00148362 -0.00503707)
(0.0957331 0.00167275 -0.00073753)
(0.0932535 0.00184954 0.00384498)
(0.0976699 0.0015071 0.00141078)
(0.100628 0.00105997 -0.00144916)
(0.0987115 0.00131414 -0.00266845)
(0.0970861 0.00148088 0.000699293)
(0.0947221 0.00134221 0.00492848)
(0.0990888 0.00089321 0.00305893)
(0.105039 0.000272405 -0.00117518)
(0.101078 0.000895609 -0.00478801)
(0.0998574 0.000999781 -0.00169392)
(0.0954811 0.00111464 0.00317709)
(0.0999472 0.000911376 0.00123572)
(0.104228 0.000553531 -0.00224448)
(0.101848 0.00107351 -0.00574048)
(0.10055 0.00103205 -0.00188299)
(0.0962339 0.0011077 0.00240505)
(0.0998025 0.000954662 0.00189625)
(0.103818 0.000643044 -0.00152508)
(0.101724 0.00114464 -0.00549112)
(0.0993401 0.00118304 -0.00101965)
(0.105634 0.0015654 0.00333865)
(0.108214 0.000886842 0.0042851)
(0.114136 0.000292102 0.000671693)
(0.112266 0.00121253 -0.0054905)
(0.110167 0.00172898 -0.0038499)
(0.105391 0.00164801 0.0028057)
(0.108525 0.000874087 0.00448903)
(0.113955 0.000283683 0.00099786)
(0.111567 0.00132168 -0.00492547)
(0.110601 0.00168028 -0.00320841)
(0.105465 0.00150623 0.00319536)
(0.108755 0.000825867 0.00450753)
(0.113557 0.000515202 0.000474523)
(0.111841 0.00140403 -0.00556378)
(0.109202 0.00173715 -0.00394464)
(0.105026 0.00171488 0.00313069)
(0.107604 0.0012016 0.00478726)
(0.11182 0.000838355 -0.000559731)
(0.109192 0.00161091 -0.00573849)
(0.106747 0.00197492 -0.00284634)
(0.103272 0.00203555 0.0040356)
(0.106574 0.00146631 0.00368278)
(0.110729 0.00101646 -0.000279742)
(0.109401 0.00148134 -0.00357659)
(0.108254 0.00182455 -0.00141372)
(0.105275 0.00150378 0.00480823)
(0.107857 0.000648208 0.00558624)
(0.115171 -0.000131416 0.00139307)
(0.112031 0.000878123 -0.00458754)
(0.111035 0.00134606 -0.00351606)
(0.106055 0.00129055 0.00321954)
(0.108771 0.000651227 0.00374709)
(0.114267 0.000194063 6.89766e-05)
(0.112426 0.00110917 -0.00584472)
(0.111768 0.00136437 -0.00387278)
(0.1069 0.00125818 0.0021412)
(0.108948 0.00077529 0.00381996)
(0.113845 0.000365238 0.000805092)
(0.112672 0.00118015 -0.00568998)
(0.110889 0.00150946 -0.00331853)
(0.116214 0.00177812 0.0015444)
(0.116694 0.000681137 0.00550928)
(0.122569 -0.000227325 0.00365232)
(0.121543 0.000916476 -0.00384159)
(0.120391 0.00193109 -0.00567049)
(0.115612 0.00191216 0.000921167)
(0.116958 0.000725468 0.00550777)
(0.122667 -0.000228772 0.00388124)
(0.120832 0.0010678 -0.00346322)
(0.120567 0.00197802 -0.00504888)
(0.115685 0.00178934 0.00143729)
(0.117127 0.000618319 0.00570148)
(0.122041 4.91132e-05 0.00347119)
(0.121331 0.00119658 -0.00399278)
(0.119471 0.0019323 -0.00580019)
(0.115165 0.00189683 0.00114085)
(0.116252 0.00103414 0.00616269)
(0.120786 0.000422201 0.00251142)
(0.11916 0.00144889 -0.00487641)
(0.117079 0.00212066 -0.00511232)
(0.113307 0.0021469 0.00245514)
(0.114967 0.0013126 0.00537604)
(0.119466 0.000740164 0.0019935)
(0.118834 0.00138703 -0.00318736)
(0.118379 0.00203982 -0.00367204)
(0.115761 0.00171237 0.00285291)
(0.11629 0.000449413 0.00681758)
(0.12359 -0.000712311 0.00450812)
(0.121463 0.000525183 -0.00281825)
(0.120989 0.00153059 -0.00509807)
(0.116523 0.00154674 0.00164282)
(0.117183 0.000438294 0.00528132)
(0.122716 -0.000378921 0.00318526)
(0.121346 0.00080514 -0.00424949)
(0.121575 0.00154205 -0.00557646)
(0.117263 0.00144259 0.000507231)
(0.117624 0.000603589 0.00472482)
(0.122303 -9.29761e-05 0.00376158)
(0.121913 0.000891369 -0.00412857)
(0.121198 0.00167155 -0.00540349)
(0.125752 0.00187172 -0.00107365)
(0.1249 0.00058847 0.00469178)
(0.129545 -0.00068526 0.00569829)
(0.128769 0.000406387 -0.000880337)
(0.128558 0.00178191 -0.00593939)
(0.124943 0.00203473 -0.00165959)
(0.124953 0.000673985 0.00446053)
(0.129891 -0.000692961 0.00579562)
(0.128322 0.000547785 -0.000702296)
(0.128558 0.00193054 -0.00547064)
(0.124969 0.00197746 -0.00114212)
(0.125119 0.000516461 0.00479773)
(0.129075 -0.000414988 0.00554827)
(0.128808 0.000755435 -0.00111757)
(0.127884 0.0018344 -0.00613679)
(0.124419 0.00194835 -0.00169339)
(0.124455 0.000877271 0.00533545)
(0.128264 -5.58526e-05 0.00507464)
(0.127323 0.00103456 -0.00236898)
(0.125924 0.00199467 -0.00615636)
(0.122766 0.00209498 -0.000420026)
(0.123148 0.00110625 0.00508848)
(0.126901 0.00036258 0.00407001)
(0.12665 0.00103974 -0.00134373)
(0.126748 0.00195868 -0.00473305)
(0.125235 0.00180986 -0.000107901)
(0.124507 0.000415735 0.0056913)
(0.130403 -0.00115567 0.00642277)
(0.128962 -2.92429e-05 3.71832e-05)
(0.128898 0.00136923 -0.00525336)
(0.125904 0.00169731 -0.000793732)
(0.12536 0.000394329 0.00471257)
(0.129778 -0.000864585 0.00542096)
(0.128399 0.000272475 -0.00127108)
(0.129168 0.00138632 -0.00577503)
(0.126384 0.00150982 -0.00169666)
(0.125806 0.000521918 0.00378402)
(0.129361 -0.000488335 0.00572266)
(0.129076 0.000389276 -0.00113376)
(0.12928 0.00149551 -0.00593317)
(0.133007 0.00165402 -0.00279221)
(0.132106 0.000528697 0.00246489)
(0.134983 -0.000828088 0.00546943)
(0.134175 6.16594e-05 0.0017162)
(0.134227 0.00135457 -0.00435781)
(0.132308 0.00182785 -0.00323105)
(0.131952 0.000621666 0.00206572)
(0.135392 -0.000861443 0.0054204)
(0.13407 0.00012616 0.00173175)
(0.134225 0.00155386 -0.0040851)
(0.132288 0.00185695 -0.00284965)
(0.13211 0.00045923 0.00243725)
(0.134617 -0.000638171 0.00536982)
(0.134364 0.000395808 0.00145736)
(0.133917 0.00149032 -0.00457151)
(0.131823 0.00173472 -0.00356565)
(0.13165 0.000706782 0.00276708)
(0.134189 -0.000367475 0.00546969)
(0.133544 0.000657394 0.000411555)
(0.132652 0.0016408 -0.00518268)
(0.130657 0.00180443 -0.0028264)
(0.130668 0.000855148 0.00291204)
(0.13305 8.54614e-05 0.00436355)
(0.132832 0.000684496 0.000716303)
(0.133019 0.00158509 -0.00395322)
(0.132613 0.00161223 -0.00226637)
(0.131792 0.000445473 0.0030057)
(0.135535 -0.00121288 0.00584915)
(0.13454 -0.000382245 0.00226276)
(0.134451 0.000935603 -0.00373665)
(0.133027 0.0015239 -0.00243674)
(0.132516 0.000408201 0.00260875)
(0.135327 -0.000991053 0.00535358)
(0.133905 -8.85013e-05 0.0013944)
(0.134425 0.000969911 -0.0041659)
(0.133231 0.00128949 -0.00292508)
(0.132732 0.000441019 0.00171565)
(0.13488 -0.000608562 0.00540049)
(0.134424 5.07671e-05 0.00156143)
(0.134726 0.00105476 -0.00449018)
(0.13734 0.00119415 -0.00266188)
(0.137165 0.000355065 0.000674296)
(0.138283 -0.000734575 0.00356176)
(0.137733 3.52921e-05 0.00245966)
(0.137718 0.000979886 -0.00215273)
(0.137013 0.00136152 -0.00293773)
(0.137016 0.000425233 0.000246511)
(0.138587 -0.000792983 0.00339382)
(0.137794 -7.67286e-06 0.00237585)
(0.137774 0.0011454 -0.00203451)
(0.137015 0.00145349 -0.0027316)
(0.137084 0.00029649 0.000535491)
(0.138079 -0.000644613 0.00350276)
(0.137916 0.000275875 0.00223698)
(0.137684 0.00116482 -0.00229404)
(0.136712 0.00130851 -0.00337966)
(0.136844 0.000448324 0.000501272)
(0.13797 -0.000482069 0.00381294)
(0.137599 0.000486666 0.00170053)
(0.137108 0.00129956 -0.00302701)
(0.13612 0.00134605 -0.00332321)
(0.13634 0.000537609 0.000673943)
(0.137349 -4.14849e-05 0.00288479)
(0.137138 0.000493706 0.00147553)
(0.137241 0.00117785 -0.00224252)
(0.137251 0.0011715 -0.00254547)
(0.137021 0.000350244 0.000819034)
(0.138582 -0.000986734 0.00363253)
(0.138032 -0.000360143 0.00257595)
(0.137919 0.000569477 -0.00174814)
(0.13734 0.00108879 -0.00239235)
(0.137452 0.000294337 0.000807346)
(0.138634 -0.000858573 0.00353373)
(0.137684 -0.000116138 0.00224414)
(0.13782 0.000620674 -0.00198339)
(0.137413 0.000874281 -0.00247831)
(0.137431 0.000243206 0.000222917)
(0.138206 -0.000536304 0.00344095)
(0.137946 2.76392e-05 0.00238333)
(0.137977 0.00069354 -0.00228378)
(0.139204 0.000785019 -0.0014978)
(0.139567 0.000152558 0.000127575)
(0.139505 -0.000580359 0.00175061)
(0.139234 9.5987e-05 0.00175214)
(0.139392 0.000761585 -0.000711178)
(0.13921 0.000931685 -0.00166815)
(0.139561 0.000195848 -0.00020992)
(0.139678 -0.000640497 0.00154368)
(0.139275 -2.17872e-05 0.00163147)
(0.13941 0.000850607 -0.00066318)
(0.139263 0.00103823 -0.00156839)
(0.139527 0.000105493 -1.06934e-05)
(0.139405 -0.000559433 0.00173479)
(0.139315 0.00023274 0.00157555)
(0.139434 0.000942542 -0.00076407)
(0.13913 0.000925825 -0.00197146)
(0.139463 0.000199939 -0.000256767)
(0.13946 -0.00048678 0.00191395)
(0.139274 0.000377516 0.00138398)
(0.139306 0.00104408 -0.00128312)
(0.138942 0.000935519 -0.00231428)
(0.139262 0.000250417 -0.00026432)
(0.139344 -9.4925e-05 0.00122482)
(0.139162 0.000368666 0.00099203)
(0.139371 0.000879403 -0.000942812)
(0.139344 0.000756376 -0.00162171)
(0.139555 0.000178433 6.44109e-05)
(0.139708 -0.000708645 0.00170637)
(0.139407 -0.000209227 0.00163651)
(0.139546 0.00038937 -0.00051207)
(0.139239 0.000688358 -0.00141151)
(0.139703 0.000126571 0.000181191)
(0.139732 -0.000662529 0.00174722)
(0.139309 -4.59058e-05 0.00165252)
(0.139502 0.00043461 -0.000582796)
(0.139307 0.000545872 -0.00127753)
(0.139602 4.18515e-05 -0.00010261)
(0.13942 -0.00042418 0.00160794)
(0.139406 8.84856e-05 0.00171855)
(0.1395 0.000520534 -0.000786693)
(0.139701 0.000530603 -0.000548337)
(0.14013 3.80611e-05 0.00014977)
(0.139695 -0.000445068 0.00077135)
(0.139443 9.92844e-05 0.000924876)
(0.13978 0.000576345 -0.000145278)
(0.139815 0.000651893 -0.000668608)
(0.140191 6.5047e-05 -7.65581e-05)
(0.139793 -0.000486558 0.000589352)
(0.139454 -3.9744e-05 0.000806812)
(0.139711 0.000604571 -0.000107201)
(0.139864 0.000746003 -0.000595285)
(0.140129 6.78782e-06 8.62124e-05)
(0.139608 -0.000442712 0.000805475)
(0.139445 0.00017294 0.000795208)
(0.13979 0.000734234 -0.000143835)
(0.139849 0.000674407 -0.000791981)
(0.140155 7.63225e-05 -0.000176131)
(0.139696 -0.000420362 0.000831375)
(0.139485 0.000263976 0.00070703)
(0.139837 0.000793019 -0.000454479)
(0.139829 0.000656911 -0.00120526)
(0.140028 9.12205e-05 -0.000300172)
(0.139773 -0.000116924 0.000336968)
(0.139559 0.000244749 0.000381622)
(0.139871 0.000637634 -0.00033094)
(0.139885 0.00049311 -0.0007252)
(0.140136 6.02139e-05 5.73646e-05)
(0.139846 -0.000495303 0.000743969)
(0.139581 -0.000111204 0.000774404)
(0.139884 0.000268312 -4.31362e-05)
(0.139739 0.00043954 -0.000602502)
(0.140154 2.46658e-05 0.000142148)
(0.139805 -0.000491678 0.000774548)
(0.139544 -1.6266e-05 0.000893289)
(0.139862 0.000294776 -4.80656e-05)
(0.139802 0.000368196 -0.000422164)
(0.140082 -5.64617e-05 2.16968e-05)
(0.139611 -0.000329222 0.000624999)
(0.139572 9.95399e-05 0.000913303)
(0.139831 0.000395925 -0.000179317)
(0.139723 0.000372212 -0.00011647)
(0.140062 -9.21996e-06 0.000170834)
(0.13966 -0.000349812 0.0003595)
(0.139353 7.78427e-05 0.000482764)
(0.139709 0.000398288 1.56753e-05)
(0.139822 0.000467769 -0.000216443)
(0.140111 2.23439e-06 2.67153e-05)
(0.13972 -0.000370793 0.000221332)
(0.139369 -4.61978e-05 0.000381883)
(0.139596 0.000399458 5.89624e-05)
(0.139838 0.000543217 -0.000151948)
(0.140059 -3.0091e-05 0.000165297)
(0.139563 -0.000333205 0.000419078)
(0.139336 0.000124076 0.0003952)
(0.139682 0.000536872 4.4426e-05)
(0.139872 0.000501072 -0.00024361)
(0.140117 3.10865e-05 -4.80232e-05)
(0.13965 -0.000332308 0.000380917)
(0.139382 0.000177351 0.000317662)
(0.13976 0.000553905 -0.000155695)
(0.139892 0.00046291 -0.000586897)
(0.139996 2.20831e-05 -0.000189111)
(0.139729 -0.000117306 3.28875e-05)
(0.139477 0.000151566 9.61523e-05)
(0.139778 0.000434457 -9.45959e-05)
(0.139877 0.000333228 -0.000262099)
(0.140049 6.24256e-06 0.000118656)
(0.139759 -0.00035948 0.000375694)
(0.139491 -5.26528e-05 0.00036218)
(0.139792 0.000163625 9.22698e-05)
(0.139751 0.000286852 -0.000224649)
(0.140034 -2.04687e-05 0.000147127)
(0.139713 -0.000372472 0.000367426)
(0.139448 -2.77612e-06 0.000468363)
(0.13976 0.000171839 9.18321e-05)
(0.139785 0.00026652 -7.37392e-05)
(0.139998 -9.18782e-05 9.60937e-05)
(0.139585 -0.000264293 0.000232346)
(0.139448 8.56821e-05 0.000483034)
(0.139746 0.000268192 -4.99058e-06)
(0.139644 0.000264077 1.94318e-05)
(0.139912 -2.53154e-05 0.000131287)
(0.139611 -0.000281796 0.000187516)
(0.139305 6.83453e-05 0.000288708)
(0.139624 0.000253257 4.16665e-05)
(0.139717 0.000335095 -6.52007e-05)
(0.139937 -3.042e-05 4.23687e-05)
(0.13965 -0.000289408 9.14976e-05)
(0.13933 -2.92725e-05 0.000207848)
(0.139508 0.000245423 8.52219e-05)
(0.139714 0.000393469 -1.77897e-05)
(0.139895 -4.47633e-05 0.000151222)
(0.139516 -0.000244959 0.000248203)
(0.139298 0.000100905 0.000230472)
(0.13958 0.000377672 8.22464e-05)
(0.139754 0.000370905 -5.99171e-05)
(0.139959 1.38444e-05 -1.35186e-05)
(0.139598 -0.000252598 0.000201311)
(0.139338 0.000131442 0.000151588)
(0.139653 0.000363859 -6.26195e-05)
(0.139777 0.00032093 -0.000314615)
(0.139853 -4.41337e-06 -0.000132045)
(0.139654 -0.000111962 -4.25673e-05)
(0.139404 0.000100159 8.21716e-06)
(0.139659 0.000282338 -1.85858e-05)
(0.13977 0.000225451 -8.60175e-05)
(0.139887 -9.13466e-06 0.000111903)
(0.139677 -0.000273736 0.000231941)
(0.139431 -7.89704e-06 0.000200094)
(0.139695 8.40511e-05 0.000116323)
(0.139673 0.000182975 -8.73966e-05)
(0.13987 -3.6634e-05 0.000113659)
(0.139644 -0.000294007 0.000201442)
(0.139387 1.68074e-05 0.000273069)
(0.139656 7.75938e-05 0.000106212)
(0.139683 0.000194718 2.05102e-05)
(0.139853 -0.00010021 9.42957e-05)
(0.139547 -0.00021971 9.16499e-05)
(0.139377 7.79557e-05 0.000296098)
(0.139652 0.000158616 2.35436e-05)
(0.139556 0.000186645 5.00004e-05)
(0.139773 -2.43361e-05 8.53069e-05)
(0.139559 -0.000233386 0.00010168)
(0.139288 6.96764e-05 0.000187686)
(0.139572 0.000147431 2.91362e-05)
(0.139611 0.000237529 -2.1571e-05)
(0.139784 -3.95386e-05 3.24193e-05)
(0.139584 -0.000234448 3.95325e-05)
(0.139315 -2.65078e-06 0.00012575)
(0.139469 0.000137668 7.04142e-05)
(0.139604 0.000282302 7.16464e-06)
(0.139746 -4.50077e-05 0.000111336)
(0.139472 -0.000181221 0.000154671)
(0.139294 9.29003e-05 0.000147378)
(0.139523 0.000258474 7.35856e-05)
(0.139636 0.000273864 -7.44781e-06)
(0.139808 1.02442e-05 -1.40877e-05)
(0.139547 -0.000190698 0.000116393)
(0.139328 0.000109467 7.27346e-05)
(0.139587 0.000228173 -3.73854e-05)
(0.139657 0.000218079 -0.000188532)
(0.139722 -8.08542e-06 -0.000105744)
(0.139594 -0.000108163 -5.41459e-05)
(0.139365 7.55742e-05 -1.89786e-05)
(0.139584 0.000178222 -3.60334e-06)
(0.139662 0.000149991 -2.58044e-05)
(0.139747 -3.21365e-06 7.9669e-05)
(0.139609 -0.000218179 0.000158553)
(0.139393 2.85675e-05 0.000122645)
(0.13963 3.38375e-05 0.000103618)
(0.139589 0.000109808 -3.71566e-05)
(0.139735 -3.3269e-05 7.60421e-05)
(0.139585 -0.00024345 0.000122316)
(0.139354 3.75764e-05 0.000169627)
(0.139591 1.45793e-05 8.70782e-05)
(0.139587 0.000139258 3.23617e-05)
(0.139724 -8.94874e-05 7.34352e-05)
(0.139506 -0.000190184 3.50384e-05)
(0.139344 7.78789e-05 0.000198278)
(0.139591 7.80584e-05 1.23606e-05)
(0.139469 0.000126908 5.02233e-05)
(0.139641 -9.35864e-06 5.33178e-05)
(0.1395 -0.00019931 5.07806e-05)
(0.139265 7.43296e-05 0.000124123)
(0.13952 7.74772e-05 1.25206e-05)
(0.139513 0.000161746 -8.7324e-06)
(0.139644 -2.92274e-05 2.34455e-05)
(0.139517 -0.000198307 1.39562e-05)
(0.13929 2.24315e-05 7.78012e-05)
(0.139429 6.80264e-05 5.14e-05)
(0.139506 0.000196485 6.31062e-06)
(0.13961 -3.15385e-05 7.82403e-05)
(0.139421 -0.000137802 9.68044e-05)
(0.13928 8.97344e-05 9.39808e-05)
(0.139469 0.000173275 5.64862e-05)
(0.139529 0.00019988 8.16788e-06)
(0.139668 1.70012e-05 -1.75099e-05)
(0.139489 -0.000146487 6.91567e-05)
(0.139308 9.83105e-05 2.88305e-05)
(0.139525 0.000139934 -3.03201e-05)
(0.139548 0.000142546 -0.000118588)
(0.139599 3.75855e-06 -8.64602e-05)
(0.139531 -0.000104353 -4.94034e-05)
(0.139327 6.39469e-05 -2.79046e-05)
(0.139516 0.000114095 -4.83044e-06)
(0.139561 9.2145e-05 -3.92695e-06)
(0.139617 1.58506e-05 4.97119e-05)
(0.13954 -0.000180547 0.000111602)
(0.139351 5.10733e-05 7.51392e-05)
(0.139561 9.38168e-06 8.28681e-05)
(0.139507 5.52756e-05 -1.44139e-05)