/*--------------------------------*- C++ -*----------------------------------*\
  =========                 |
  \\      /  F ield         | OpenFOAM: The Open Source CFD Toolbox
   \\    /   O peration     | Website:  https://openfoam.org
    \\  /    A nd           | Version:  10
     \\/     M anipulation  |
\*---------------------------------------------------------------------------*/
FoamFile
{
    format      ascii;
    class       volSymmTensorField;
    location    "37.5";
    object      UPrime2Mean;
}
// * * * * * * * * * * * * * * * * * * * * * * * * * * * * * * * * * * * * * //

dimensions      [0 2 -2 0 0 0 0];

internalField   nonuniform List<symmTensor> 
25600
(
(0.00479739 9.51634e-08 -2.60494e-05 9.06041e-10 8.63273e-09 3.35824e-06)
(0.00477548 6.99524e-07 4.83467e-05 1.06287e-09 1.70355e-08 3.49995e-06)
(0.0047643 4.17283e-07 4.54994e-05 9.83654e-10 1.89793e-08 3.17924e-06)
(0.00473071 -6.5263e-07 2.14428e-05 1.00936e-09 1.19477e-08 3.19171e-06)
(0.00476124 -2.56355e-07 -3.34007e-05 1.1579e-09 9.09235e-09 3.43231e-06)
(0.00478322 3.55213e-07 -8.93031e-06 1.07592e-09 1.16647e-08 2.94623e-06)
(0.00475664 7.21749e-07 2.99869e-05 1.0712e-09 1.54729e-08 2.97562e-06)
(0.00473872 -1.75397e-08 4.95287e-05 8.20571e-10 1.62758e-08 3.1599e-06)
(0.00476079 -2.35903e-07 1.22176e-06 8.63285e-10 1.81041e-08 2.91003e-06)
(0.00473833 -5.54862e-07 -2.18247e-05 1.00792e-09 1.80232e-08 3.09507e-06)
(0.00476391 1.1391e-08 -1.61675e-05 8.98564e-10 1.03046e-08 3.11904e-06)
(0.00473673 6.1053e-07 3.76225e-05 9.82923e-10 1.00563e-08 3.44285e-06)
(0.00474538 2.82502e-07 4.81928e-05 8.18732e-10 9.35513e-09 3.54546e-06)
(0.00470706 -3.74172e-07 1.78413e-05 7.50772e-10 3.92318e-09 3.31874e-06)
(0.00476195 -8.40543e-07 -3.00466e-05 1.08685e-09 1.76665e-08 3.45958e-06)
(0.00477281 -3.07808e-07 -7.66622e-06 1.17315e-09 1.80903e-08 3.18228e-06)
(0.00479865 1.45306e-06 3.73765e-05 2.09615e-09 3.51284e-08 3.61131e-06)
(0.00475546 6.85442e-08 5.39847e-05 1.16872e-09 2.33024e-08 4.00972e-06)
(0.00476751 -7.44919e-07 8.06482e-06 1.14593e-09 2.13551e-08 3.66994e-06)
(0.00478855 -1.30775e-06 -3.22078e-05 1.48251e-09 3.04758e-08 3.69223e-06)
(0.00481565 2.58626e-07 -8.68325e-06 1.29211e-09 1.47871e-08 3.1296e-06)
(0.00478723 3.37037e-07 3.8267e-05 1.19243e-09 8.802e-09 3.40153e-06)
(0.00475516 2.69489e-07 4.86978e-05 1.03002e-09 1.51398e-08 3.4718e-06)
(0.00478496 -8.37922e-07 1.22564e-05 1.13699e-09 9.7157e-09 3.40406e-06)
(0.00477291 3.996e-07 -3.59182e-05 1.36367e-09 2.68943e-09 3.73596e-06)
(0.0048082 -1.61607e-07 -9.30843e-06 1.09366e-09 1.77236e-08 3.23028e-06)
(0.00478329 1.0534e-06 2.87019e-05 1.55787e-09 2.11451e-08 3.2494e-06)
(0.00476084 5.44567e-07 5.13229e-05 1.14064e-09 2.23347e-08 3.31555e-06)
(0.00477749 -9.81425e-07 -2.41584e-06 1.10495e-09 1.62036e-08 2.96073e-06)
(0.00478751 -6.82504e-07 -3.13415e-05 1.10353e-09 1.71094e-08 3.42278e-06)
(0.00479112 -2.55705e-08 -1.68944e-05 1.12856e-09 2.2027e-08 3.28825e-06)
(0.00480222 4.47449e-07 3.97712e-05 1.1261e-09 2.20604e-08 3.2833e-06)
(0.0047734 1.76755e-07 4.5427e-05 1.10023e-09 2.02154e-08 3.07931e-06)
(0.00475657 -9.78588e-07 1.46267e-05 1.04646e-09 1.23466e-08 2.99315e-06)
(0.0047951 -1.08948e-06 -3.45254e-05 1.23901e-09 2.13209e-08 3.29639e-06)
(0.00479737 2.89166e-07 -1.41911e-06 1.02201e-09 1.26768e-08 2.88828e-06)
(0.00478137 6.25548e-07 2.70115e-05 1.10233e-09 1.49955e-08 3.10242e-06)
(0.00473945 -1.60677e-07 5.53798e-05 8.83109e-10 1.43572e-08 3.63277e-06)
(0.004774 -6.81972e-07 -2.59854e-07 9.14219e-10 1.55306e-08 3.2821e-06)
(0.00479584 -9.2626e-07 -3.16955e-05 1.07921e-09 2.03613e-08 3.71196e-06)
(0.0187225 -5.5321e-06 -4.52073e-05 2.91315e-08 -1.96875e-07 2.26288e-05)
(0.0185785 2.50344e-08 0.000107579 2.90254e-08 -1.97523e-07 2.30641e-05)
(0.0186931 2.11635e-07 0.000126048 2.78901e-08 -1.78607e-07 2.19643e-05)
(0.0184751 2.21911e-07 0.000135187 2.64598e-08 -1.22578e-07 2.26865e-05)
(0.0185666 -4.93834e-06 -3.61032e-05 2.91402e-08 -5.84593e-08 2.47966e-05)
(0.0185445 -4.67429e-06 -6.80753e-06 2.97706e-08 -1.06923e-07 2.10475e-05)
(0.0186345 1.50403e-06 6.13557e-05 3.00836e-08 -1.0184e-07 2.12892e-05)
(0.0184437 -8.37877e-07 0.000158393 2.51322e-08 -1.15741e-07 2.14306e-05)
(0.0185888 -5.20703e-07 7.7963e-05 2.61254e-08 -1.10912e-07 2.01606e-05)
(0.0183878 -2.54999e-06 7.41622e-06 2.49581e-08 -1.39724e-07 2.17906e-05)
(0.0185669 -5.0911e-06 -3.94673e-05 2.65891e-08 -1.87597e-07 2.12637e-05)
(0.0183789 2.35747e-07 6.99314e-05 2.53518e-08 -1.91167e-07 2.3332e-05)
(0.0185572 -1.18589e-07 0.000136507 2.6275e-08 -1.41029e-07 2.44302e-05)
(0.0182975 -4.0521e-07 0.00010536 2.72158e-08 -8.19377e-08 2.38905e-05)
(0.0185395 -8.93626e-06 -1.89463e-05 3.48987e-08 -4.42781e-08 2.53851e-05)
(0.0184238 -7.82687e-06 -2.79606e-05 3.35958e-08 -1.79604e-07 2.42805e-05)
(0.0187617 -6.03203e-06 0.000113073 3.49245e-08 -2.37661e-07 2.96131e-05)
(0.0185873 -1.34853e-06 0.000176198 3.38343e-08 -1.66043e-07 2.9271e-05)
(0.0186692 -7.54619e-06 0.000121936 3.60913e-08 -1.28239e-07 2.57962e-05)
(0.0186607 -1.07983e-05 -1.54054e-05 4.20459e-08 -9.0892e-08 2.3782e-05)
(0.0187068 -9.40839e-06 3.36351e-06 4.34425e-08 -1.8273e-07 2.02262e-05)
(0.0187963 -2.78867e-06 5.06608e-05 4.35695e-08 -2.55392e-07 2.13836e-05)
(0.0186189 -2.13957e-06 0.000145 3.27266e-08 -2.16911e-07 2.3431e-05)
(0.0187943 -5.05747e-06 8.13127e-05 2.84342e-08 -1.29114e-07 2.51146e-05)
(0.0186607 -6.75339e-06 -5.13332e-05 2.96687e-08 3.95733e-08 2.65977e-05)
(0.018804 -1.02743e-05 -1.52102e-06 3.80043e-08 -1.56017e-08 2.29385e-05)
(0.0187504 -1.93637e-06 1.81637e-05 3.95802e-08 -9.58431e-08 2.17133e-05)
(0.0187127 -1.69255e-06 0.000159174 3.58191e-08 -1.76148e-07 2.20182e-05)
(0.0187192 -5.50516e-06 2.91561e-05 2.85362e-08 -1.26695e-07 2.19122e-05)
(0.0187384 -8.97545e-06 -1.82872e-05 2.86428e-08 -1.06321e-07 2.39836e-05)
(0.0187019 -6.93735e-06 -6.38955e-05 2.81153e-08 -2.71538e-08 2.37775e-05)
(0.0187869 -6.25083e-06 0.000100152 2.96835e-08 -3.55623e-08 2.60072e-05)
(0.0187981 -4.03849e-07 0.000149744 3.04734e-08 -3.39463e-08 2.22382e-05)
(0.0185858 -5.5371e-06 0.000118935 2.882e-08 -1.28116e-07 2.0666e-05)
(0.0187153 -7.36366e-06 2.48053e-06 3.03555e-08 -1.55018e-07 2.18496e-05)
(0.0185834 -7.0939e-06 1.77457e-05 2.96866e-08 -2.09893e-07 2.19588e-05)
(0.0188047 3.50477e-07 8.69373e-05 3.03259e-08 -1.31834e-07 2.54492e-05)
(0.0185271 7.07065e-07 0.000215478 2.4659e-08 -1.10431e-07 2.72924e-05)
(0.0187346 -5.2655e-06 7.41482e-05 2.62028e-08 -9.68987e-08 2.45935e-05)
(0.0185749 -5.55773e-06 2.45077e-05 2.68589e-08 -1.5812e-07 2.49578e-05)
(0.0305563 -7.5558e-06 -6.04551e-05 1.19318e-07 -7.99787e-07 5.74877e-05)
(0.0302128 3.82972e-06 8.69161e-05 1.25204e-07 -6.73985e-07 5.984e-05)
(0.0305589 1.70533e-06 0.000151134 1.2418e-07 -6.26611e-07 5.79953e-05)
(0.0301235 4.29728e-06 9.25926e-05 1.19274e-07 -5.94775e-07 5.60207e-05)
(0.0304371 -2.10695e-06 -5.5504e-05 1.19337e-07 -4.03327e-07 5.74193e-05)
(0.029999 -3.12112e-06 -6.78912e-05 1.10097e-07 -4.99041e-07 5.16657e-05)
(0.0304245 4.15742e-06 7.49999e-05 1.18228e-07 -5.16108e-07 5.54141e-05)
(0.0299767 1.50682e-06 0.000179309 1.02184e-07 -7.75747e-07 5.63126e-05)
(0.0304181 3.16992e-06 8.18699e-05 1.10968e-07 -7.06193e-07 5.49161e-05)
(0.0299333 2.02379e-06 -4.46723e-05 1.01731e-07 -6.58469e-07 6.01454e-05)
(0.0303133 -4.09664e-06 -6.82255e-05 1.13514e-07 -7.4967e-07 5.62647e-05)
(0.0299784 5.53227e-06 9.77524e-05 1.07315e-07 -6.19075e-07 6.33204e-05)
(0.0303103 -6.23398e-07 0.000177834 1.12987e-07 -5.74083e-07 6.37211e-05)
(0.0298994 4.65734e-06 0.000111995 1.12835e-07 -4.69046e-07 6.20138e-05)
(0.0302692 -9.22962e-06 -6.06867e-05 1.27548e-07 -4.72562e-07 6.5564e-05)
(0.0299995 -9.90363e-06 -4.73295e-05 1.28022e-07 -7.18637e-07 5.73819e-05)
(0.0304356 -8.91219e-06 8.67477e-05 1.46793e-07 -8.89395e-07 6.51719e-05)
(0.0301574 -4.34216e-06 0.000156587 1.44178e-07 -9.62711e-07 7.04794e-05)
(0.030524 -1.32383e-05 0.000103916 1.46573e-07 -9.5319e-07 6.7123e-05)
(0.0303205 -1.40889e-05 -0.000109883 1.67071e-07 -8.7637e-07 6.36489e-05)
(0.0304828 -1.81181e-05 -2.84655e-05 1.66436e-07 -8.241e-07 5.39943e-05)
(0.0305532 -1.15526e-05 3.27023e-05 1.72681e-07 -8.54324e-07 5.98705e-05)
(0.030596 -5.66463e-06 0.000182156 1.3215e-07 -8.22144e-07 6.20416e-05)
(0.0306729 -1.36934e-05 4.05148e-05 1.28191e-07 -7.48185e-07 6.27898e-05)
(0.0306462 -8.47996e-06 -5.82479e-05 1.10867e-07 -5.31084e-07 6.79554e-05)
(0.0306213 -2.0834e-05 -0.000105307 1.43644e-07 -3.423e-07 6.29376e-05)
(0.030641 -6.61576e-06 6.62873e-05 1.37753e-07 -4.69474e-07 6.09907e-05)
(0.0307055 -9.08577e-06 0.000152488 1.38263e-07 -9.16118e-07 5.52346e-05)
(0.0306237 -8.6864e-06 6.38075e-05 1.08056e-07 -8.14562e-07 5.38623e-05)
(0.0305937 -1.39817e-05 -6.11802e-05 1.09861e-07 -5.8606e-07 6.20781e-05)
(0.0306028 -1.08578e-05 -0.000110623 9.94732e-08 -1.97477e-07 6.06701e-05)
(0.0304759 -1.26666e-05 4.73286e-05 1.12014e-07 -7.96569e-09 6.45591e-05)
(0.0307365 1.58845e-06 0.000167535 1.14573e-07 3.91147e-08 5.85209e-05)
(0.0303059 -7.48898e-06 6.1663e-05 1.14562e-07 -3.58012e-07 5.3579e-05)
(0.0306573 -7.59341e-06 -6.24983e-06 1.17953e-07 -5.85976e-07 5.61971e-05)
(0.0301798 -1.0347e-05 -5.88611e-05 1.16661e-07 -8.17533e-07 5.76019e-05)
(0.0306785 -3.12511e-06 0.000141923 1.22218e-07 -8.99166e-07 7.04338e-05)
(0.0303289 -8.63646e-07 0.000236724 1.0854e-07 -1.09949e-06 6.90379e-05)
(0.0307344 -6.23652e-06 0.00010781 1.12372e-07 -9.85357e-07 6.29579e-05)
(0.0302638 -3.64359e-07 -1.93441e-05 1.11397e-07 -9.39819e-07 6.38275e-05)
(0.0358326 1.43569e-05 -0.000173163 4.6695e-07 6.77263e-08 0.000119149)
(0.0353697 3.16092e-05 -5.34499e-05 4.52943e-07 3.16605e-07 0.000126455)
(0.0357771 2.25773e-05 6.37672e-05 4.35676e-07 4.82735e-07 0.000119169)
(0.0352695 3.22743e-05 -5.6086e-05 4.12675e-07 1.3481e-07 0.000111015)
(0.0356783 2.003e-05 -0.000153109 3.86457e-07 2.80326e-07 0.000109312)
(0.0351899 2.78634e-05 -0.000215698 3.63166e-07 6.66497e-08 0.000101893)
(0.0356055 2.21049e-05 -1.8337e-05 3.73722e-07 -1.6276e-08 0.000106818)
(0.0352169 3.14851e-05 3.17177e-05 3.87024e-07 -4.57683e-07 0.000109684)
(0.0356924 2.20808e-05 1.87506e-05 4.08207e-07 -2.35944e-07 0.000110656)
(0.0351192 3.05248e-05 -0.000194022 4.15971e-07 4.02658e-09 0.000121001)
(0.035577 1.45728e-05 -0.000175302 4.14571e-07 3.14106e-07 0.000111386)
(0.0350888 2.96119e-05 -2.71529e-05 3.7975e-07 4.48157e-07 0.000119382)
(0.0356246 1.59345e-05 9.48093e-05 3.73697e-07 6.82817e-07 0.000114553)
(0.0351182 3.02768e-05 1.41844e-06 3.49491e-07 4.08569e-07 0.000109418)
(0.0355276 5.16756e-06 -9.04379e-05 3.90541e-07 1.78875e-07 0.000111113)
(0.0351173 1.45672e-05 -0.000190727 4.10411e-07 -4.13399e-07 0.000105563)
(0.0355829 5.90669e-06 3.6145e-05 4.7817e-07 -5.4667e-07 0.000118938)
(0.0352191 1.31708e-05 3.10983e-05 4.97215e-07 -7.95457e-07 0.000129084)
(0.0357457 -1.89571e-06 4.61526e-05 5.37064e-07 -4.39161e-07 0.000130801)
(0.0353508 1.17291e-06 -0.000307336 5.80128e-07 5.75156e-08 0.00013674)
(0.0358424 -5.44362e-06 -0.000155443 5.50978e-07 1.52228e-07 0.000110894)
(0.0355115 4.05985e-06 -0.00015537 5.08772e-07 -1.23557e-08 0.000113171)
(0.035862 4.54056e-06 6.27929e-05 4.0841e-07 -2.03541e-07 0.000119392)
(0.0356824 2.39035e-06 -0.000148257 4.13645e-07 -8.20515e-08 0.000125769)
(0.0359899 8.94099e-06 -0.000219491 3.48285e-07 1.01623e-07 0.000137942)
(0.0356674 -1.51298e-06 -0.000314487 4.01227e-07 4.84691e-07 0.000124804)
(0.0358259 8.21152e-06 -4.01981e-05 3.83474e-07 5.41351e-07 0.000116358)
(0.0357403 1.30673e-05 -3.25093e-05 4.37089e-07 2.74129e-07 0.000104801)
(0.0358616 9.89023e-06 -8.06183e-06 4.01602e-07 3.30244e-07 0.000106097)
(0.0356194 6.07096e-06 -0.000219015 4.56803e-07 9.15158e-07 0.000123463)
(0.0359142 1.04255e-05 -0.000235103 4.12191e-07 1.62451e-06 0.000121797)
(0.0354998 6.07819e-06 -8.18078e-05 4.3493e-07 1.72635e-06 0.000133563)
(0.0360658 2.3022e-05 8.39776e-05 3.77795e-07 1.70316e-06 0.000125848)
(0.0355273 1.49938e-05 -6.91487e-05 3.83756e-07 6.04162e-07 0.000118597)
(0.0360149 1.65292e-05 -0.000130967 3.92701e-07 -2.56781e-07 0.000117973)
(0.0354 2.05098e-05 -0.00019753 4.37457e-07 -9.96456e-07 0.000109541)
(0.0359283 1.63042e-05 1.00634e-05 4.88514e-07 -1.46016e-06 0.000114323)
(0.0353643 1.76848e-05 2.19798e-05 5.15253e-07 -1.70111e-06 0.000116505)
(0.0358887 1.69563e-05 3.36468e-05 4.9594e-07 -9.27636e-07 0.000117583)
(0.035363 2.85509e-05 -0.000230049 4.72459e-07 -3.85375e-07 0.000131548)
(0.034675 6.9342e-05 -0.000149249 1.59305e-06 2.14198e-06 0.000183585)
(0.0341505 8.95288e-05 -0.000129042 1.55697e-06 2.18532e-06 0.000189192)
(0.0345537 6.86224e-05 7.29899e-05 1.43626e-06 2.65921e-06 0.000191866)
(0.0342096 8.94064e-05 -0.000143485 1.36037e-06 2.31867e-06 0.000187268)
(0.0346333 6.76025e-05 -0.000209351 1.25382e-06 2.71715e-06 0.000192054)
(0.0341859 9.0138e-05 -0.000288234 1.23771e-06 2.07029e-06 0.000178235)
(0.0345844 6.94862e-05 -1.39127e-05 1.25943e-06 2.08237e-06 0.000187925)
(0.0342298 9.19958e-05 -7.63338e-06 1.35556e-06 1.62387e-06 0.000191004)
(0.0346319 6.9174e-05 1.73567e-05 1.42059e-06 2.00945e-06 0.000190121)
(0.0342092 9.02001e-05 -0.000270971 1.47737e-06 2.42164e-06 0.00019972)
(0.0345819 6.336e-05 -0.000197419 1.47599e-06 3.59551e-06 0.000177881)
(0.0341333 8.49492e-05 -0.000135787 1.38474e-06 3.78798e-06 0.000179443)
(0.0345229 6.57446e-05 2.92995e-05 1.30998e-06 4.18567e-06 0.00017594)
(0.0341479 8.60733e-05 -8.55974e-05 1.19434e-06 3.26402e-06 0.000173431)
(0.0345285 5.41947e-05 -0.00017932 1.24783e-06 2.688e-06 0.000185674)
(0.0341312 7.32882e-05 -0.000260213 1.35153e-06 1.12941e-06 0.000175672)
(0.0344849 4.96399e-05 -2.88304e-06 1.64517e-06 7.55341e-07 0.000188605)
(0.0342318 6.09504e-05 -7.79207e-06 1.75965e-06 5.65387e-07 0.000194114)
(0.034668 3.9106e-05 -3.59262e-08 1.90562e-06 1.53531e-06 0.000197307)
(0.0341831 5.39688e-05 -0.000305252 1.84625e-06 2.51516e-06 0.000213179)
(0.0347052 3.68036e-05 -0.000225599 1.75829e-06 3.36129e-06 0.000186664)
(0.0341823 6.36688e-05 -0.000138529 1.56559e-06 3.29586e-06 0.000185668)
(0.0347588 5.07695e-05 8.18557e-06 1.35394e-06 2.76616e-06 0.000177768)
(0.0341877 6.60491e-05 -0.000102181 1.35633e-06 2.89019e-06 0.000177884)
(0.034707 5.96999e-05 -0.000165912 1.2451e-06 3.20334e-06 0.000187512)
(0.0341407 6.08481e-05 -0.000273953 1.31833e-06 2.34736e-06 0.000180009)
(0.0346042 5.91188e-05 -8.25699e-05 1.3195e-06 2.27247e-06 0.000179513)
(0.0341545 6.11861e-05 -5.09783e-05 1.50434e-06 2.02473e-06 0.000178065)
(0.0346977 6.27353e-05 -7.07929e-05 1.49217e-06 2.67295e-06 0.000177122)
(0.0341927 6.56334e-05 -0.000276955 1.68692e-06 3.199e-06 0.000194589)
(0.0346798 6.56258e-05 -0.000210728 1.56014e-06 4.36907e-06 0.000193962)
(0.0342318 6.34417e-05 -0.000126671 1.60925e-06 4.21158e-06 0.000213632)
(0.0348027 7.41105e-05 6.45897e-05 1.36954e-06 4.33641e-06 0.000206451)
(0.0342832 7.41803e-05 -0.000116192 1.35634e-06 2.84211e-06 0.000196161)
(0.0347764 7.18202e-05 -0.000161272 1.27159e-06 1.96325e-06 0.000193432)
(0.0342204 7.70174e-05 -0.000249179 1.39761e-06 6.74287e-07 0.000178122)
(0.0347018 7.24529e-05 -5.14844e-06 1.44216e-06 1.60072e-07 0.000183818)
(0.0342697 7.70032e-05 5.14973e-06 1.56992e-06 -6.03617e-07 0.000190443)
(0.0348406 6.86567e-05 1.61752e-05 1.57561e-06 5.20794e-07 0.000191236)
(0.0342525 9.16338e-05 -0.000240966 1.61397e-06 1.1124e-06 0.000198041)
(0.0296023 0.000120404 8.09925e-06 3.85165e-06 3.85425e-06 0.000232002)
(0.0291594 0.000140473 4.93189e-05 3.88384e-06 3.2133e-06 0.000235184)
(0.0295794 0.00010976 0.000187886 3.60094e-06 3.45775e-06 0.000231073)
(0.0293264 0.000140748 8.13837e-05 3.33471e-06 3.67887e-06 0.000226669)
(0.0295184 0.000115607 2.86071e-05 3.14472e-06 4.69553e-06 0.000232569)
(0.0293189 0.00014071 -3.80088e-05 3.19021e-06 3.98984e-06 0.000226902)
(0.0296155 0.000117202 0.000162144 3.30172e-06 3.89534e-06 0.000243703)
(0.02934 0.000137966 0.000145193 3.53758e-06 3.61821e-06 0.000253322)
(0.0297133 0.000113772 0.000157215 3.64381e-06 4.20714e-06 0.000250667)
(0.0293512 0.000135533 -0.000122563 3.66506e-06 4.94086e-06 0.000248257)
(0.0296631 0.000116837 -2.34556e-05 3.52249e-06 6.03051e-06 0.000219286)
(0.0292686 0.000134595 -3.02057e-05 3.31565e-06 6.39322e-06 0.000219145)
(0.0295592 0.000113686 0.000148624 3.15818e-06 6.57194e-06 0.000219102)
(0.0293198 0.00013298 -8.22664e-07 2.97883e-06 5.485e-06 0.000218453)
(0.0295915 0.000108923 -5.22481e-05 3.0852e-06 4.86663e-06 0.000226743)
(0.0291737 0.000127823 -8.06152e-05 3.37927e-06 2.87502e-06 0.000223278)
(0.0295441 0.000106094 7.73169e-05 3.99386e-06 2.32468e-06 0.000234454)
(0.0291386 0.000111396 0.000106373 4.40441e-06 2.00279e-06 0.000230872)
(0.0294604 9.90694e-05 6.98593e-05 4.70577e-06 3.40865e-06 0.00022798)
(0.0291155 0.000114818 -7.0825e-05 4.53987e-06 3.86955e-06 0.000241782)
(0.029465 9.85207e-05 -8.66683e-05 4.16624e-06 5.54974e-06 0.000237797)
(0.0290044 0.000119568 2.03385e-05 3.74006e-06 5.65899e-06 0.000238616)
(0.0295739 0.00011075 0.000156913 3.43331e-06 5.66538e-06 0.000227271)
(0.0290186 0.00012371 4.29387e-05 3.46366e-06 5.15271e-06 0.000221893)
(0.0295439 0.000113786 2.83409e-06 3.38061e-06 5.5486e-06 0.000229072)
(0.0289484 0.000121721 -7.90375e-05 3.56795e-06 4.33834e-06 0.000225873)
(0.0294663 0.000114243 8.42243e-05 3.57204e-06 4.23407e-06 0.000235861)
(0.0289949 0.000115026 0.000131616 3.87788e-06 3.39324e-06 0.000240228)
(0.0295398 0.000115985 8.81615e-05 3.80654e-06 4.44038e-06 0.000236774)
(0.0291167 0.000125861 -0.000101631 4.09171e-06 5.13031e-06 0.000242939)
(0.0294865 0.000118485 -8.87688e-06 3.90597e-06 6.70374e-06 0.000239706)
(0.029161 0.000121222 -2.30867e-05 4.02144e-06 6.20169e-06 0.000251004)
(0.0295134 0.000123257 0.00019381 3.54239e-06 6.13634e-06 0.000254421)
(0.0292745 0.00012974 -3.8376e-05 3.495e-06 4.7128e-06 0.000246364)
(0.0295992 0.000125798 -2.43916e-05 3.20428e-06 4.06091e-06 0.000243853)
(0.0291937 0.000129853 -0.000119056 3.40704e-06 2.49469e-06 0.00023003)
(0.0295837 0.000123205 0.000140322 3.39687e-06 1.53912e-06 0.000237482)
(0.0292923 0.000130555 0.000101545 3.69844e-06 1.2755e-06 0.000231814)
(0.0296577 0.000120266 0.000172788 3.71078e-06 2.91364e-06 0.000235483)
(0.0292004 0.000143918 -6.39348e-05 3.85346e-06 3.27025e-06 0.000246156)
(0.0229978 0.000129241 0.000167383 7.1141e-06 4.94035e-06 0.000252618)
(0.0227199 0.000147422 0.000228921 7.01052e-06 4.11656e-06 0.000259009)
(0.0230411 0.000122636 0.000364141 6.55219e-06 3.61956e-06 0.000256254)
(0.0227321 0.000148131 0.000240685 6.17848e-06 3.70767e-06 0.000248809)
(0.0230919 0.000129344 0.000225701 5.97951e-06 4.01056e-06 0.000256997)
(0.0227333 0.000149449 0.000135992 6.25779e-06 3.47558e-06 0.000251284)
(0.0231343 0.000129959 0.000335754 6.61449e-06 3.22721e-06 0.000263342)
(0.0227883 0.000141843 0.000289617 7.04954e-06 3.63178e-06 0.000258694)
(0.0231761 0.000125529 0.000348366 7.07402e-06 4.26254e-06 0.000251756)
(0.0227022 0.000141816 0.000145522 6.85567e-06 5.44039e-06 0.00024084)
(0.0231036 0.000127879 0.00022953 6.45313e-06 5.93811e-06 0.000217755)
(0.022691 0.000142802 0.000189699 6.02109e-06 6.02807e-06 0.000211917)
(0.0229974 0.00012319 0.00028069 5.81238e-06 5.96363e-06 0.000209699)
(0.0226317 0.000140196 0.000198035 5.63582e-06 5.59057e-06 0.000208614)
(0.0230242 0.000124626 0.000159354 5.91748e-06 5.32462e-06 0.000219592)
(0.0225397 0.000140604 0.000133597 6.50804e-06 3.25563e-06 0.000227161)
(0.0229558 0.000125301 0.000231657 7.36406e-06 2.19456e-06 0.000245826)
(0.0225511 0.000125985 0.000307535 8.00492e-06 1.57932e-06 0.000249002)
(0.0229433 0.000123941 0.000231701 8.39582e-06 2.79725e-06 0.000246254)
(0.02253 0.000131204 0.000148845 8.27545e-06 2.7368e-06 0.000252456)
(0.0229071 0.000129336 0.000165077 7.61021e-06 3.99695e-06 0.000248593)
(0.0224676 0.000132399 0.000219372 7.04012e-06 4.34393e-06 0.000247508)
(0.0229566 0.000126726 0.000331913 6.69123e-06 4.98952e-06 0.00023976)
(0.0225636 0.000132661 0.000242507 6.89665e-06 4.4024e-06 0.000233977)
(0.0229235 0.000125742 0.000218861 7.01151e-06 4.78561e-06 0.000241541)
(0.0225043 0.000134849 0.000159167 7.3361e-06 4.38362e-06 0.000238227)
(0.0228761 0.000125308 0.000306413 7.20146e-06 4.62654e-06 0.000251357)
(0.0225907 0.000130314 0.000332649 7.31671e-06 4.63815e-06 0.000243773)
(0.0229393 0.000127032 0.000296055 7.04441e-06 5.46541e-06 0.000240038)
(0.0226201 0.000137985 0.000180089 7.30798e-06 5.52276e-06 0.000247769)
(0.0229325 0.000131693 0.000186134 7.04994e-06 6.30861e-06 0.000248497)
(0.0226034 0.000137049 0.00022636 7.2882e-06 5.57987e-06 0.000250039)
(0.0229695 0.000132459 0.000317 6.70387e-06 5.85704e-06 0.000239886)
(0.0226482 0.000142223 0.000229231 6.59012e-06 5.09123e-06 0.000229157)
(0.0229399 0.000138276 0.000207618 6.08439e-06 4.48151e-06 0.000231026)
(0.0226238 0.000142073 0.000143175 6.28489e-06 3.1319e-06 0.000225166)
(0.0229137 0.000129962 0.000264606 6.33958e-06 1.9073e-06 0.000232832)
(0.0227062 0.000139563 0.000280799 6.86965e-06 1.8559e-06 0.00023454)
(0.0229814 0.000131957 0.000270092 6.95522e-06 3.53191e-06 0.000240013)
(0.0227407 0.000149587 0.000122243 7.20925e-06 4.86966e-06 0.000255651)
(0.0164698 0.000105672 0.000261589 1.06131e-05 9.10249e-07 0.00021298)
(0.0162805 0.000112469 0.000318223 1.02889e-05 5.70567e-07 0.00021589)
(0.0165102 9.98226e-05 0.000377528 9.58794e-06 -7.58545e-08 0.00021515)
(0.0163128 0.000110482 0.000345205 9.26622e-06 -8.44937e-07 0.000212605)
(0.0165279 9.98797e-05 0.000289718 9.21772e-06 -9.26225e-07 0.000218387)
(0.0163432 0.000113202 0.000296933 9.76882e-06 -9.97835e-07 0.000211486)
(0.0165549 0.00010017 0.000335672 1.04193e-05 -6.45595e-07 0.000215551)
(0.0163395 0.000108838 0.000360125 1.09894e-05 -1.9761e-07 0.000214326)
(0.016545 9.90291e-05 0.000336154 1.09461e-05 5.76862e-07 0.000208973)
(0.0163415 0.00011107 0.000274181 1.03856e-05 1.51207e-06 0.000204845)
(0.0165121 0.000100783 0.000273076 9.65413e-06 2.19168e-06 0.000194142)
(0.0162797 0.000110221 0.000308973 8.98575e-06 2.082e-06 0.000188864)
(0.0164984 9.88696e-05 0.000342657 8.74516e-06 1.88989e-06 0.00018553)
(0.0162578 0.000107809 0.000324567 8.7456e-06 1.7642e-06 0.000185662)
(0.016504 0.000101549 0.000271592 9.2641e-06 1.39628e-06 0.000197686)
(0.0162519 0.000110761 0.000279556 9.94023e-06 4.42125e-07 0.000197167)
(0.0164993 0.000103195 0.000337003 1.06905e-05 -3.5719e-07 0.000206743)
(0.0162659 0.000105426 0.000375816 1.13216e-05 -1.15612e-06 0.000206527)
(0.0164465 0.000104173 0.000343964 1.17939e-05 -1.14267e-06 0.000205307)
(0.0162598 0.000110304 0.000298289 1.18549e-05 -1.53897e-06 0.000211582)
(0.0164248 0.000111259 0.000298328 1.12655e-05 -4.42317e-07 0.000211907)
(0.0162387 0.000109167 0.000333825 1.07141e-05 2.94721e-07 0.000211669)
(0.016421 0.000103439 0.000380892 1.04419e-05 6.80658e-07 0.0002093)
(0.0161895 0.000107811 0.000348412 1.09191e-05 -1.02002e-07 0.000205279)
(0.0164014 0.000103392 0.000313348 1.12583e-05 -1.16902e-07 0.000206201)
(0.0161642 0.000109437 0.000302851 1.17267e-05 4.71083e-09 0.000196756)
(0.0163702 0.000101037 0.000343877 1.14023e-05 8.71672e-07 0.000196376)
(0.016151 0.00010096 0.000366741 1.1274e-05 1.46106e-06 0.0001948)
(0.0163684 0.000100003 0.000339852 1.0551e-05 1.90179e-06 0.00019925)
(0.0161801 0.000106864 0.000274592 1.06356e-05 1.56107e-06 0.000208065)
(0.0164081 0.000103893 0.00027109 1.03813e-05 1.13726e-06 0.000208867)
(0.0161465 0.000111183 0.000302245 1.06303e-05 8.2947e-07 0.000205914)
(0.0164165 0.000102199 0.000351425 1.00962e-05 1.09252e-06 0.000200986)
(0.0162075 0.000112794 0.000318713 9.97653e-06 9.30224e-07 0.000195522)
(0.016446 0.000108015 0.000281776 9.34558e-06 3.60213e-07 0.000200989)
(0.0162303 0.000113478 0.00027644 9.4552e-06 -2.86454e-07 0.00019879)
(0.0164364 0.000102452 0.000312438 9.40175e-06 -1.14755e-06 0.000205791)
(0.0162716 0.000111881 0.000362046 9.96063e-06 -1.04995e-06 0.000204072)
(0.0164551 0.000103536 0.000304438 1.03115e-05 -7.53875e-08 0.000202175)
(0.0163306 0.000117024 0.000264933 1.08116e-05 7.36033e-07 0.000206839)
(0.0109227 6.03752e-05 0.000267097 1.2537e-05 -6.35906e-06 0.00013417)
(0.0107732 6.51062e-05 0.000273819 1.21268e-05 -6.82862e-06 0.0001356)
(0.010932 5.52079e-05 0.000305736 1.15544e-05 -7.54508e-06 0.000135173)
(0.0108022 6.40332e-05 0.000275869 1.13685e-05 -7.33463e-06 0.000135759)
(0.0109721 5.61603e-05 0.000262532 1.15555e-05 -7.54829e-06 0.000139023)
(0.0108122 6.66475e-05 0.000258366 1.21802e-05 -7.02501e-06 0.000144113)
(0.0109554 5.63758e-05 0.000278092 1.28982e-05 -6.86888e-06 0.000147273)
(0.0108317 6.32947e-05 0.000305153 1.32307e-05 -6.60045e-06 0.000145835)
(0.0109754 5.46707e-05 0.000283411 1.29193e-05 -6.41296e-06 0.000143327)
(0.0108346 6.29972e-05 0.000267616 1.198e-05 -5.87681e-06 0.000141916)
(0.0109669 5.84347e-05 0.00025994 1.09827e-05 -5.5403e-06 0.000137616)
(0.0108202 6.33915e-05 0.000283837 1.03471e-05 -5.22663e-06 0.000134825)
(0.0109696 5.70177e-05 0.000299692 1.03102e-05 -5.2664e-06 0.000130854)
(0.0108296 6.21773e-05 0.000289698 1.06017e-05 -5.08788e-06 0.00012942)
(0.0109538 5.92947e-05 0.00027994 1.12711e-05 -5.22275e-06 0.000130978)
(0.0108092 6.62162e-05 0.000269546 1.18714e-05 -5.23363e-06 0.000131101)
(0.0109476 6.13659e-05 0.00030314 1.24264e-05 -5.72704e-06 0.000133399)
(0.0108244 6.76222e-05 0.000310177 1.28994e-05 -6.35696e-06 0.00013331)
(0.0109367 6.41986e-05 0.000307822 1.32569e-05 -6.6501e-06 0.000134472)
(0.0108177 7.01784e-05 0.000277981 1.33645e-05 -6.47194e-06 0.000139619)
(0.0109363 6.67167e-05 0.000283923 1.29862e-05 -5.73987e-06 0.000140903)
(0.0108182 6.79875e-05 0.000294684 1.26931e-05 -5.27186e-06 0.00014377)
(0.0109311 6.23192e-05 0.000320097 1.26931e-05 -5.56909e-06 0.000145122)
(0.0108021 6.78362e-05 0.000296608 1.33729e-05 -6.1443e-06 0.000143646)
(0.0109285 6.42599e-05 0.000277696 1.38848e-05 -6.61217e-06 0.000143091)
(0.0107874 7.01562e-05 0.000273394 1.43466e-05 -6.19206e-06 0.000138523)
(0.0109076 6.32898e-05 0.000293569 1.38786e-05 -5.56961e-06 0.000136156)
(0.0107923 6.41045e-05 0.000310135 1.3495e-05 -4.36355e-06 0.000133452)
(0.0109116 6.01777e-05 0.000293972 1.27237e-05 -4.15816e-06 0.000134782)
(0.0107802 6.5354e-05 0.0002801 1.27706e-05 -4.26153e-06 0.000138684)
(0.0109039 6.07395e-05 0.000268381 1.2544e-05 -4.99839e-06 0.000141646)
(0.0107646 6.69408e-05 0.000296601 1.26964e-05 -5.49211e-06 0.000143905)
(0.0109138 5.57219e-05 0.000314667 1.22748e-05 -6.32529e-06 0.000142579)
(0.0107687 6.46291e-05 0.0002988 1.20734e-05 -6.53886e-06 0.000141189)
(0.0109256 5.88543e-05 0.000268798 1.14546e-05 -7.34913e-06 0.000143252)
(0.0107806 6.715e-05 0.000264965 1.14902e-05 -7.1646e-06 0.000139826)
(0.0109252 5.75749e-05 0.000280279 1.14157e-05 -7.23674e-06 0.000138889)
(0.0107822 6.56315e-05 0.000287219 1.19035e-05 -6.39996e-06 0.000135629)
(0.0109196 5.78951e-05 0.00028122 1.23248e-05 -5.9943e-06 0.000132486)
(0.0107778 6.82692e-05 0.000258283 1.27565e-05 -5.67044e-06 0.000134582)
(0.00652776 2.43486e-05 0.000145422 1.15477e-05 -9.61287e-06 7.3803e-05)
(0.00644946 2.92362e-05 0.000165803 1.12097e-05 -9.73345e-06 7.29819e-05)
(0.00653463 2.12557e-05 0.000160032 1.09843e-05 -9.77752e-06 7.09135e-05)
(0.00645192 2.80898e-05 0.000166204 1.1038e-05 -9.54415e-06 7.2015e-05)
(0.00653275 2.28732e-05 0.000151456 1.14971e-05 -9.55815e-06 7.32462e-05)
(0.00645417 3.03795e-05 0.000157866 1.21292e-05 -9.24109e-06 7.48429e-05)
(0.00654011 2.35845e-05 0.000157865 1.27224e-05 -9.27863e-06 7.59095e-05)
(0.00646108 2.79468e-05 0.000171976 1.28026e-05 -9.18259e-06 7.66588e-05)
(0.00655087 2.17221e-05 0.000160673 1.2294e-05 -9.13519e-06 7.67656e-05)
(0.00646361 2.79529e-05 0.000161025 1.13159e-05 -8.8279e-06 7.73432e-05)
(0.00655467 2.31176e-05 0.000151198 1.04671e-05 -8.61447e-06 7.57645e-05)
(0.00646995 2.81591e-05 0.000166929 1.003e-05 -8.50433e-06 7.57333e-05)
(0.00655482 2.2068e-05 0.000160319 1.01219e-05 -8.4598e-06 7.44664e-05)
(0.00646957 2.77351e-05 0.000168328 1.03442e-05 -8.47722e-06 7.34756e-05)
(0.0065542 2.40747e-05 0.000148018 1.08049e-05 -8.48111e-06 7.24374e-05)
(0.00646563 3.09564e-05 0.000159923 1.1151e-05 -8.39989e-06 7.10501e-05)
(0.00655399 2.64017e-05 0.000152631 1.14444e-05 -8.66468e-06 7.06939e-05)
(0.00645978 3.20934e-05 0.000169332 1.16866e-05 -9.02725e-06 7.12463e-05)
(0.00655514 2.80929e-05 0.000156312 1.18876e-05 -9.12136e-06 7.17162e-05)
(0.00646323 3.32448e-05 0.000163029 1.19923e-05 -8.74142e-06 7.36441e-05)
(0.00655206 2.87232e-05 0.000154405 1.18543e-05 -8.43326e-06 7.47639e-05)
(0.00646946 3.18078e-05 0.000174637 1.18255e-05 -8.19581e-06 7.70352e-05)
(0.00655544 2.6027e-05 0.000170603 1.20437e-05 -8.43222e-06 7.79067e-05)
(0.00647244 3.1361e-05 0.000176732 1.25691e-05 -8.60743e-06 7.90084e-05)
(0.00655162 2.82409e-05 0.000153854 1.28809e-05 -9.06689e-06 7.91972e-05)
(0.00647548 3.34098e-05 0.000162431 1.31547e-05 -8.70633e-06 7.73481e-05)
(0.00655239 2.8854e-05 0.000156566 1.28143e-05 -8.44537e-06 7.59197e-05)
(0.00647229 3.12369e-05 0.000172604 1.25971e-05 -7.7553e-06 7.59214e-05)
(0.00655108 2.70621e-05 0.000159293 1.22057e-05 -7.78352e-06 7.63061e-05)
(0.00646629 3.23753e-05 0.000168355 1.23131e-05 -7.75278e-06 7.7714e-05)
(0.00654293 2.74908e-05 0.000156667 1.22169e-05 -8.28347e-06 7.78663e-05)
(0.00646365 3.17922e-05 0.000178272 1.22538e-05 -8.52824e-06 7.87108e-05)
(0.0065451 2.36353e-05 0.000171535 1.1936e-05 -9.05414e-06 7.70783e-05)
(0.00645855 2.95272e-05 0.000177994 1.17339e-05 -8.92505e-06 7.66765e-05)
(0.00653524 2.45159e-05 0.00015726 1.13057e-05 -8.97282e-06 7.55259e-05)
(0.00645451 3.09319e-05 0.000163645 1.12508e-05 -8.27172e-06 7.46449e-05)
(0.00652539 2.44747e-05 0.000155019 1.12507e-05 -8.09684e-06 7.39493e-05)
(0.00644486 3.01224e-05 0.00016694 1.14833e-05 -7.83205e-06 7.48098e-05)
(0.00652227 2.41235e-05 0.000155212 1.16647e-05 -8.34176e-06 7.4496e-05)
(0.00644345 3.10295e-05 0.000155667 1.17353e-05 -8.87375e-06 7.58606e-05)
(0.00334204 6.81513e-06 5.44071e-05 9.45415e-06 -7.59231e-06 3.73673e-05)
(0.00331057 8.86428e-06 6.20981e-05 9.3849e-06 -7.6001e-06 3.68193e-05)
(0.00333997 5.30169e-06 5.52616e-05 9.41573e-06 -7.47676e-06 3.63772e-05)