/*--------------------------------*- C++ -*----------------------------------*\
  =========                 |
  \\      /  F ield         | OpenFOAM: The Open Source CFD Toolbox
   \\    /   O peration     | Website:  https://openfoam.org
    \\  /    A nd           | Version:  10
     \\/     M anipulation  |
\*---------------------------------------------------------------------------*/
FoamFile
{
    format      ascii;
    class       volScalarField;
    location    "1";
    object      p;
}
// * * * * * * * * * * * * * * * * * * * * * * * * * * * * * * * * * * * * * //

dimensions      [0 2 -2 0 0 0 0];

internalField   nonuniform List<scalar> 
25600
(
-0.000170133
-0.00016598
-0.000165899
-0.000171394
-0.000180547
-0.000186323
-0.000187676
-0.000188929
-0.000195968
-0.000200113
-0.000192041
-0.000181414
-0.000173488
-0.000170721
-0.000171208
-0.000168139
-0.000165104
-0.00016809
-0.000175833
-0.000186279
-0.000187694
-0.000190317
-0.000194052
-0.000197459
-0.000199664
-0.000195631
-0.000189749
-0.000184282
-0.000186573
-0.000189326
-0.000188376
-0.000183548
-0.000181337
-0.000184296
-0.000186172
-0.000184546
-0.000182295
-0.000180165
-0.000175863
-0.000172599
-0.000164795
-0.000156001
-0.000158055
-0.000168854
-0.000182792
-0.000189076
-0.000186029
-0.000190287
-0.000203743
-0.000210342
-0.000195185
-0.000175349
-0.000165273
-0.000167434
-0.000171742
-0.000163068
-0.000152848
-0.000159826
-0.000176622
-0.000194689
-0.000194577
-0.000196398
-0.000201351
-0.000205893
-0.000209764
-0.000201442
-0.000190339
-0.000182921
-0.00018651
-0.000190211
-0.000189887
-0.00018065
-0.000178467
-0.000185962
-0.000192522
-0.000184332
-0.000176183
-0.000172634
-0.000170039
-0.000168328
-0.000157081
-0.000135031
-0.000138028
-0.000165737
-0.000188828
-0.000191751
-0.00017959
-0.000192089
-0.000218964
-0.000230246
-0.000199939
-0.000163493
-0.000152265
-0.000167538
-0.000179328
-0.000156224
-0.00013283
-0.000148308
-0.000180948
-0.000210196
-0.000201753
-0.000197597
-0.000205528
-0.000217422
-0.000225434
-0.000207364
-0.000183156
-0.000174323
-0.000184811
-0.000193371
-0.000191829
-0.000171381
-0.000173493
-0.000193754
-0.000207484
-0.00018507
-0.000166058
-0.000161111
-0.000164205
-0.000166736
-0.000143056
-9.86301e-05
-0.000108709
-0.000166637
-0.000201123
-0.000189876
-0.000160513
-0.000190853
-0.000246624
-0.000262787
-0.000202308
-0.000139485
-0.000135471
-0.000176637
-0.00019719
-0.000141658
-9.67746e-05
-0.0001339
-0.000192603
-0.000234433
-0.000207709
-0.000189621
-0.00020074
-0.000234386
-0.000248189
-0.000212682
-0.000163727
-0.000157694
-0.000183833
-0.000200951
-0.000194567
-0.000151438
-0.000168693
-0.000211143
-0.000232974
-0.000185534
-0.000147939
-0.000145471
-0.000160374
-0.000173114
-0.000130934
-3.75631e-05
-7.58788e-05
-0.000179847
-0.000219841
-0.000174044
-0.000127454
-0.000201239
-0.00029417
-0.000310231
-0.000198634
-9.73954e-05
-0.0001151
-0.000202831
-0.000229338
-0.000119027
-3.83686e-05
-0.00011866
-0.000216799
-0.000269508
-0.000205582
-0.000169843
-0.000197959
-0.000262032
-0.000280987
-0.000213902
-0.000123804
-0.000129651
-0.000189749
-0.000215319
-0.000197116
-0.00011367
-0.000165329
-0.00025329
-0.000270327
-0.000179822
-0.000119318
-0.0001256
-0.000163138
-0.000196243
-9.76075e-05
5.29482e-05
-4.46498e-05
-0.000214151
-0.00024372
-0.000157478
-7.63609e-05
-0.000220871
-0.000367473
-0.000371386
-0.000187027
-3.16188e-05
-9.67423e-05
-0.000258245
-0.000276762
-9.05327e-05
4.82068e-05
-0.000102652
-0.000258875
-0.000313125
-0.000208409
-0.000139413
-0.000200271
-0.00030659
-0.000326845
-0.000195147
-6.10615e-05
-9.6379e-05
-0.000194127
-0.000236163
-0.000186094
-4.94577e-05
-0.000162442
-0.000324727
-0.000315726
-0.000163083
-7.7984e-05
-0.000104417
-0.000181719
-0.000237109
-3.40445e-05
0.000165242
-2.84087e-05
-0.000275897
-0.000264847
-9.09456e-05
-3.93104e-06
-0.000248911
-0.000471554
-0.000440822
-0.000140174
6.20344e-05
-7.21491e-05
-0.00034935
-0.00033298
-3.05799e-05
0.000166197
-8.70308e-05
-0.000324587
-0.00035561
-0.000179492
-9.37017e-05
-0.000212738
-0.000372791
-0.000392464
-0.000161914
2.66973e-05
-6.5168e-05
-0.00023328
-0.000267036
-0.000164821
4.2826e-05
-0.000168708
-0.000433801
-0.000360581
-0.000138611
-2.33643e-05
-8.37372e-05
-0.000227349
-0.000297238
7.01581e-05
0.000288286
-4.37444e-05
-0.000367775
-0.000278544
1.90211e-05
8.22948e-05
-0.000288328
-0.00060806
-0.000509793
-6.67151e-05
0.000176457
-5.08286e-05
-0.000477278
-0.00038734
6.6219e-05
0.000311623
-7.39371e-05
-0.000415363
-0.000387487
-0.000130441
-4.18975e-05
-0.000245036
-0.000464917
-0.00047893
-9.76114e-05
0.000141805
-3.92338e-05
-0.000295904
-0.000303311
-0.000116701
0.000160997
-0.000205158
-0.000574492
-0.000400567
-9.69807e-05
4.90639e-05
-6.7914e-05
-0.000313365
-0.000376031
0.000218357
0.00040925
-7.18004e-05
-0.000486436
-0.000278561
0.000175761
0.000169663
-0.000356258
-0.000780644
-0.000565131
4.20161e-05
0.000304236
-6.21319e-05
-0.000648793
-0.000421904
0.00020666
0.000472116
-7.32331e-05
-0.00052592
-0.000401829
-6.13353e-05
1.27658e-05
-0.000265194
-0.000584803
-0.000581059
2.64048e-06
0.000275592
-3.57478e-05
-0.000387688
-0.000340035
3.54232e-06
0.000285117
-0.000294387
-0.000739628
-0.000420882
-6.59197e-05
0.000134103
-2.95393e-05
-0.000448742
-0.000438382
0.000405919
0.000501548
-0.000144235
-0.000625443
-0.000265785
0.000352974
0.000239834
-0.000461541
-0.000988002
-0.000606954
0.000177337
0.000433558
-9.26946e-05
-0.000858528
-0.000413703
0.00040325
0.000634395
-9.41773e-05
-0.000654131
-0.00039405
1.76616e-05
5.94256e-05
-0.000280272
-0.000731026
-0.000689407
0.000143539
0.000417703
-1.19675e-05
-0.000508007
-0.000381125
0.000188142
0.000392382
-0.000456692
-0.000915683
-0.000419704
-4.5033e-05
0.000236576
-1.36004e-05
-0.000636954
-0.000450407
0.000615094
0.000544328
-0.000243873
-0.000774857
-0.000238186
0.000548516
0.000275144
-0.000608912
-0.00122297
-0.000651563
0.00032456
0.000542907
-0.000145967
-0.00109514
-0.000362446
0.000633297
0.00076267
-0.000134485
-0.000792772
-0.000377903
9.08037e-05
8.88137e-05
-0.000296231
-0.000907245
-0.000803901
0.000325126
0.00055727
9.46086e-06
-0.000656058
-0.000427733
0.000495372
0.00045344
-0.000714761
-0.00108639
-0.000403176
-3.42515e-05
0.000357553
-3.68317e-05
-0.000865537
-0.000402022
0.000797721
0.000554191
-0.000355939
-0.000927445
-0.000190208
0.000742853
0.000256751
-0.00078129
-0.00147494
-0.000682343
0.000458377
0.000615429
-0.000210814
-0.00134707
-0.000285805
0.000878074
0.000840214
-0.000191878
-0.000914282
-0.000378265
0.000131074
9.98183e-05
-0.000337529
-0.00111163
-0.000907943
0.000559505
0.000687401
5.61626e-05
-0.000832889
-0.000480752
0.000862888
0.000439749
-0.00103829
-0.00124122
-0.000402161
-6.19351e-05
0.000494147
-0.000108199
-0.00111446
-0.00031136
0.000913552
0.000519576
-0.000463707
-0.00108028
-0.000114864
0.000911882
0.000166289
-0.000954761
-0.00173739
-0.000686734
0.000536751
0.000648097
-0.00028477
-0.00159578
-0.000223199
0.0010964
0.000862744
-0.000248041
-0.000985401
-0.000380402
0.000110895
6.43736e-05
-0.000372791
-0.00133779
-0.000988354
0.000831251
0.000793993
0.000136243
-0.00103266
-0.000532938
0.00130185
0.00032874
-0.00140916
-0.00137483
-0.00043662
-0.000124872
0.000628945
-0.000217321
-0.00134033
-0.000168748
0.000921568
0.000451932
-0.000558879
-0.00122871
-5.86229e-06
0.00101738
-1.77384e-05
-0.00109972
-0.00195496
-0.000656971
0.000503158
0.000626703
-0.000386953
-0.00181563
-0.000181614
0.00125316
0.000826039
-0.00029413
-0.000977097
-0.000370489
8.15845e-07
-3.68924e-05
-0.000351243
-0.00159055
-0.00107956
0.00108296
0.000864972
0.000231851
-0.00125283
-0.000547391
0.00180628
0.000108569
-0.00176666
-0.00148347
-0.000514952
-0.000226939
0.000728582
-0.000367254
-0.00150268
-4.94147e-06
0.000783113
0.000360843
-0.000647742
-0.00136908
0.000137213
0.00100348
-0.00032284
-0.00122124
-0.00207933
-0.000595066
0.000440297
0.000560891
-0.000459568
-0.00199596
-0.000130762
0.001306
0.000725778
-0.000324873
-0.000942363
-0.000359335
-0.000236979
-0.000154182
-0.000245635
-0.00189757
-0.00119617
0.00128538
0.000906357
0.000327072
-0.00149097
-0.000500373
0.00225104
-0.00021838
-0.00206689
-0.00156851
-0.000626262
-0.000379744
0.0006675
-0.000556099
-0.00156331
0.000184624
0.000490657
0.000250431
-0.000717448
-0.00150085
0.000307836
0.000846236
-0.000783321
-0.00130979
-0.00219199
-0.000529195
0.000205171
0.000457436
-0.000431439
-0.00213448
-7.87471e-05
0.00122213
0.000573219
-0.000320366
-0.000835086
-0.000368868
-0.000651913
-0.000276817
-3.21518e-05
-0.00227985
-0.00138151
0.00139576
0.000922171
0.000416513
-0.00173972
-0.000382057
0.00260545
-0.000632356
-0.00227938
-0.00161855
-0.000765614
-0.00061125
0.000445812
-0.000739185
-0.00149997
0.000363456
-2.42231e-05
0.000118381
-0.000759031
-0.00162495
0.000507775
0.000584283
-0.00148263
-0.00136657
-0.00234809
-0.000525652
-0.000229125
0.000301356
-0.000251944
-0.00221276
-4.10869e-05
0.000973836
0.00034776
-0.000227215
-0.000632359
-0.000434229
-0.00129766
-0.000427137
0.000278035
-0.00271504
-0.00167724
0.00135535
0.00089479
0.00053018
-0.00196586
-0.000181475
0.00282742
-0.00114699
-0.0024937
-0.00152524
-0.000930776
-0.000985562
3.28707e-05
-0.000856984
-0.00127939
0.000471739
-0.000833782
-6.4868e-05
-0.000429399
-0.00172846
0.000726824
0.000140664
-0.00242013
-0.00132607
-0.00243758
-0.000642384
-0.000923447
5.79887e-05
0.0001035
-0.00222823
-3.74154e-05
0.000611889
1.54316e-05
1.43697e-05
-0.000299152
-0.000596664
-0.00223198
-0.000623026
0.000747412
-0.00318546
-0.00210603
0.001126
0.000815414
0.000652919
-0.00214834
0.000127367
0.00286452
-0.00182068
-0.00259099
-0.00136988
-0.00111088
-0.00156024
-0.000659274
-0.000866188
-0.000882031
0.000464832
-0.00201357
-0.000402913
-3.96463e-05
-0.00180727
0.00100694
-0.000474591
-0.0035158
-0.0011598
-0.00231954
-0.000912557
-0.00194545
-0.000382785
0.000642985
-0.00212641
-9.5365e-05
-9.15211e-05
-0.000483538
0.000327596
0.000142274
-0.000980762
-0.00349954
-0.000895476
0.00126797
-0.00370348
-0.00266552
0.000672573
0.0006787
0.000849518
-0.00225975
0.000531393
0.00277351
-0.00260904
-0.00268113
-0.00119287
-0.0012817
-0.00239793
-0.00164324
-0.000729224
-0.000191037
0.000295833
-0.00352633
-0.000881883
0.000341915
-0.00187631
0.00143208
-0.00121862
-0.00463877
-0.000844523
-0.00200109
-0.00131164
-0.00322946
-0.000943682
0.00130839
-0.00199553
-0.000198461
-0.00106187
-0.00101508
0.000764419
0.000736538
-0.00142505
-0.00511291
-0.0012452
0.00188891
-0.00423956
-0.00327315
-3.6783e-06
0.000424787
0.00109331
-0.00222302
0.00112978
0.00257567
-0.00349917
-0.00288567
-0.000846899
-0.00127592
-0.00346598
-0.00285689
-0.000439687
0.000806562
-2.65709e-06
-0.00511736
-0.00143149
0.000751163
-0.00191004
0.00214044
-0.00195521
-0.00559416
-0.000352012
-0.00139131
-0.00154482
-0.0046902
-0.00157008
0.00193903
-0.00165541
-5.12736e-05
-0.00211682
-0.00174558
0.00134992
0.0015576
-0.0016987
-0.00689486
-0.00175861
0.00253659
-0.0047902
-0.00367256
-0.000674769
0.000105878
0.00130412
-0.00207932
0.00206172
0.00228095
-0.00443964
-0.00311026
-0.000268938
-0.000852119
-0.00443324
-0.00404921
-0.000132298
0.00165905
-0.000246096
-0.00652008
-0.00216499
0.0011986
-0.00162336
0.00330935
-0.00250591
-0.00619802
0.000109859
-0.000458943
-0.000974567
-0.00590067
-0.00241804
0.00219648
-0.00101461
0.000608994
-0.00286172
-0.00274798
0.00181181
0.00272302
-0.00155535
-0.00841677
-0.00248621
0.00290747
-0.00497238
-0.00356469
-0.00123612
-0.00034557
0.00136143
-0.00153938
0.00344133
0.0016506
-0.00550376
-0.00280411
0.000583228
4.39243e-05
-0.00515085
-0.00520281
6.59447e-05
0.00228426
-0.000157162
-0.00736565
-0.00308748
0.00156407
-0.000676785
0.00483814
-0.00285816
-0.00645117
0.000546331
0.000717085
0.00014906
-0.00656446
-0.00350988
0.0025763
0.000116203
0.00169263
-0.00313761
-0.00409441
0.00213513
0.00435252
-0.00102524
-0.00939225
-0.00356131
0.00299375
-0.00408867
-0.00260934
-0.00151949
-0.00155018
0.00117813
-0.000499618
0.00528212
0.00104337
-0.00699522
-0.00198169
0.00173744
0.00137385
-0.00573867
-0.00671399
-0.000139913
0.00312404
0.000123846
-0.00773669
-0.00418943
0.00230507
0.00104548
0.00642538
-0.00326217
-0.00737278
0.000747912
0.00190659
0.00136613
-0.00691679
-0.00446439
0.00300319
0.00169869
0.00280875
-0.00319141
-0.00526086
0.00259932
0.00638774
-0.000270595
-0.00995803
-0.00493078
0.00332413
-0.0021079
-0.00177712
-0.00181809
-0.00309227
0.00115237
0.00108685
0.00759469
0.000575047
-0.00863294
-0.00132117
0.00319978
0.00289281
-0.00592436
-0.00790556
-0.000529836
0.00421769
0.000802496
-0.0077859
-0.00543935
0.00333768
0.00306569
0.00775701
-0.00366147
-0.00865523
0.000762424
0.0030584
0.00320372
-0.00696806
-0.00595758
0.00326653
0.0032538
0.00368652
-0.00330902
-0.00657938
0.00310217
0.00837407
0.00109506
-0.0104157
-0.00639314
0.00408071
0.000290271
-0.000907231
-0.00218719
-0.00473513
0.00137674
0.0028132
0.00930654
2.83986e-05
-0.0105064
-0.000974326
0.00454381
0.00450104
-0.00560043
-0.00915754
-0.000727016
0.00531876
0.00160436
-0.00795665
-0.00635456
0.00412591
0.0047916
0.0087503
-0.00382357
-0.00988058
0.000795227
0.00412448
0.0042403
-0.00667784
-0.0073247
0.00329704
0.00452661
0.00435285
-0.00345276
-0.00777075
0.00345926
0.0100342
0.00166109
-0.0110432
-0.00731605
0.00490039
0.00234672
-3.07787e-05
-0.00253587
-0.00593227
0.00162077
0.00431581
0.0105188
-0.000709171
-0.0121982
-0.000880062
0.00579092
0.00584174
-0.0052235
-0.0103054
-0.00078263
0.00645595
0.00229776
-0.00843067
-0.00761557
0.00467012
0.00607398
0.00927373
-0.00383358
-0.0108634
0.000966728
0.00504274
0.00488324
-0.00628756
-0.00837881
0.00334047
0.005607
0.00488725
-0.0036467
-0.00881464
0.00372716
0.0113158
0.00207626
-0.0117698
-0.0083382
0.00557198
0.00389602
0.000816648
-0.00285487
-0.00692372
0.00197357
0.00554508
0.0113248
-0.00131398
-0.013616
-0.000745218
0.00703161
0.00697433
-0.00492672
-0.0113562
-0.000571694
0.00753958
0.00263706
-0.00879928
-0.00863439
0.00525802
0.0071453
0.00969828
-0.00380401
-0.0116409
0.00132067
0.00569217
0.00524994
-0.00604285
-0.00907894
0.00357577
0.00648167
0.00532268
-0.00386063
-0.00957414
0.00406897
0.0121873
0.00247899
-0.0122513
-0.00916218
0.00631228
0.00509184
0.00150453
-0.00311595
-0.00760084
0.00246378
0.00644362
0.0118046
-0.00167955
-0.0145042
-0.000238552
0.00813011
0.00775164
-0.00474852
-0.0121186
-0.000191225
0.00824466
0.00287144
-0.00893799
-0.00912697
0.00587598
0.00784772
0.00985908
-0.00382887
-0.0121617
0.00174917
0.00609262
0.00545067
-0.00599975
-0.00932076
0.00390128
0.00704243
0.00559212
-0.00404749
-0.00988401
0.00445408
0.0128301
0.0029019
-0.0125264
-0.00960609
0.00702999
0.00581847
0.00196659
-0.00328411
-0.00783122
0.00293534
0.00693296
0.0120254
-0.00186233
-0.014782
0.000308144
0.0087975
0.00817237
-0.00471998
-0.0125719
0.000389248
0.00869765
0.00309574
-0.00895242
-0.00905737
0.00614112
0.00815051
0.00982753
-0.00386818
-0.0122149
0.00200983
0.00619124
0.00544103
-0.00601582
-0.00925514
0.0040589
0.00719398
0.0056203
-0.00415559
-0.00983754
0.0046876
0.0130323
0.00312561
-0.0126197
-0.00948069
0.00737533
0.00608406
0.0021284
-0.0033407
-0.00774572
0.0031424
0.00710048
0.0120147
-0.00194555
-0.0147478
0.000582531
0.00901007
0.00824691
-0.0047436
-0.0125728
0.000732768
0.00889344
0.00317224
-0.00887608
-0.00891176
0.00610424
0.00809957
0.00977019
-0.00384312
-0.0121574
0.00201659
0.00608852
0.00538049
-0.00597524
-0.00915464
0.0040277
0.0070666
0.00555304
-0.00414418
-0.00971393
0.00470167
0.0127609
0.00314928
-0.0125708
-0.00933926
0.00739101
0.00604423
0.00214293
-0.00330418
-0.00766287
0.00311936
0.00702594
0.011919
-0.00196119
-0.014658
0.000599141
0.00888615
0.00817367
-0.00471357
-0.0124848
0.000802831
0.00884805
0.00314808
-0.0088433
-0.00884122
0.0060755
0.00805643
0.00973992
-0.00383644
-0.0121133
0.00202437
0.00602287
0.00534104
-0.00595529
-0.0091078
0.00402696
0.00702804
0.00550814
-0.00413401
-0.00963853
0.00470133
0.0127082
0.00314267
-0.0125281
-0.00925991
0.00739073
0.00597908
0.0021234
-0.00328831
-0.00762767
0.00311877
0.00699215
0.0118504
-0.00197542
-0.0146105
0.0006215
0.00884782
0.00808683
-0.00470423
-0.0124256
0.000815856
0.00877583
0.00312262
-0.000166724
-0.000169694
-0.000169464
-0.000171854
-0.000177165
-0.00018544
-0.000191385
-0.000193853
-0.000193317
-0.000190041
-0.000190516
-0.000187349
-0.000179598
-0.000168777
-0.000162605
-0.000164936
-0.000168339
-0.000170646
-0.000173504
-0.00017504
-0.000182998
-0.000190235
-0.000195076
-0.000195905
-0.000193488
-0.000194395
-0.000195496
-0.000193997
-0.000186734
-0.000184271
-0.000186601
-0.000189654
-0.000187621
-0.000183665
-0.000181458
-0.000181638
-0.000183713
-0.000182394
-0.000174772
-0.000166225
-0.000164271
-0.000170043
-0.000168389
-0.000169263
-0.000176904
-0.00018784
-0.000196981
-0.000199358
-0.00019651
-0.000190319
-0.000192977
-0.000188223
-0.000174164
-0.000158159
-0.000150809
-0.000156281
-0.000162708
-0.0001653
-0.000168641
-0.000172112
-0.000187823
-0.000199366
-0.000204289
-0.000200561
-0.000193897
-0.000199444
-0.000206333
-0.000201569
-0.000187192
-0.000183198
-0.000187789
-0.000193895
-0.000188015
-0.000182486
-0.000177796
-0.000179876
-0.000184971
-0.000182444
-0.000167709
-0.0001572
-0.000158322
-0.000175585
-0.000169728
-0.000164198
-0.000174378
-0.000191252
-0.00020792
-0.000208442
-0.000200314
-0.000189412
-0.000198469
-0.000194849
-0.000168847
-0.000141518
-0.000130493
-0.000144633
-0.000158888
-0.000160326
-0.000161666
-0.000163138
-0.000194337
-0.000216421
-0.000219065
-0.000202184
-0.000188954
-0.000204698
-0.000222335
-0.000211456
-0.00018384
-0.000178339
-0.000189476
-0.000202274
-0.000188131
-0.000178493
-0.000168395
-0.000178992
-0.000193928
-0.000188315
-0.000157255
-0.000142076
-0.00015743
-0.000189789
-0.000174258
-0.000154748
-0.000169288
-0.000196476
-0.000226851
-0.000220705
-0.000202676
-0.000185797
-0.00020927
-0.000210805
-0.000162072
-0.00011436
-0.00010075
-0.000133378
-0.000161813
-0.000155849
-0.000148541
-0.00014553
-0.000198331
-0.000246999
-0.00024357
-0.000196204
-0.000177479
-0.000213908
-0.000248821
-0.000224031
-0.000173013
-0.000168352
-0.000194126
-0.000217626
-0.000185669
-0.000167454
-0.00015124
-0.000182634
-0.000219724
-0.000197991
-0.000137287
-0.000120755
-0.000166282
-0.00021689
-0.000178759
-0.000136791
-0.000163135
-0.000208172
-0.000255742
-0.000236837
-0.000198813
-0.000179894
-0.000230222
-0.00023871
-0.000149622
-7.12416e-05
-5.93388e-05
-0.000115971
-0.000174716
-0.000148754
-0.000123263
-0.000118892
-0.0002105
-0.000299173
-0.000272811
-0.000176205
-0.000158004
-0.000232071
-0.000287629
-0.000234915
-0.000147129
-0.000152414
-0.000203623
-0.000242782
-0.000181226
-0.000146325
-0.000122556
-0.000191047
-0.000266924
-0.000207584
-9.7349e-05
-9.43524e-05
-0.00018863
-0.000258303
-0.000173828
-0.000103791
-0.000157804
-0.000236646
-0.000299069
-0.000254008
-0.000184229
-0.000174333
-0.000272306
-0.000281746
-0.00012779
-3.05786e-06
-7.39351e-06
-0.000105403
-0.000205329
-0.000140596
-7.87866e-05
-8.57569e-05
-0.00024214
-0.000380633
-0.000303912
-0.000133282
-0.000131146
-0.000244234
-0.000340134
-0.000239183
-9.33266e-05
-0.000133336
-0.000216365
-0.000277492
-0.000180163
-0.000111588
-8.1287e-05
-0.00021301
-0.000342129
-0.000209086
-3.60571e-05
-6.53342e-05
-0.000219422
-0.000309986
-0.000149018
-5.13348e-05
-0.000152222
-0.000271336
-0.000356624
-0.000278922
-0.000153604
-0.000173234
-0.000339614
-0.0003394
-0.00010218
9.02463e-05
5.35111e-05
-0.000100234
-0.000257234
-0.000130145
-1.00696e-05
-5.52887e-05
-0.000295893
-0.0005001
-0.000329405
-6.33611e-05
-0.000104199
-0.000289584
-0.000406921
-0.000229813
-8.09451e-06
-0.000119035
-0.00025195
-0.000321174
-0.000186587
-5.49364e-05
-2.87603e-05
-0.000264332
-0.00044878
-0.000187614
4.94441e-05
-3.77693e-05
-0.000253467
-0.000358008
-0.000119343
1.74298e-05
-0.000148526
-0.000312062
-0.000427567
-0.00030988
-0.000105865
-0.000186415
-0.000434799
-0.000406336
-6.05816e-05
0.000207174
0.000117005
-0.000101325
-0.000330536
-0.000116493
8.3418e-05
-3.79405e-05
-0.000382028
-0.000655928
-0.000346185
3.26521e-05
-8.31879e-05
-0.000351329
-0.000484701
-0.000195467
0.000114116
-0.000117412
-0.000317922
-0.000368701
-0.000197595
2.05262e-05
2.71319e-05
-0.000370364
-0.000585705
-0.000112343
0.000151336
-1.61741e-05
-0.000287643
-0.000409682
-8.06503e-05
9.76878e-05
-0.000146238
-0.000367641
-0.000507184
-0.000324396
-5.23377e-05
-0.00022743
-0.000555627
-0.000472707
-1.31644e-05
0.000347145
0.000170696
-0.000120902
-0.000419073
-8.38882e-05
0.000193709
-4.16527e-05
-0.000506285
-0.000847485
-0.000332485
0.000143361
-7.8099e-05
-0.000412448
-0.000569311
-0.000130667
0.000268923
-0.000136633
-0.000392336
-0.000401552
-0.000206425
0.000124781
7.64587e-05
-0.000523065
-0.000717568
-1.34184e-05
0.000256469
-1.5167e-06
-0.000318479
-0.000452283
-1.73399e-05
0.000179144
-0.00012911
-0.00041387
-0.000588751
-0.000288426
-1.36573e-06
-0.000311336
-0.000700458
-0.000527638
6.12302e-05
0.000507222
0.000183957
-0.000188485
-0.000511555
-1.75069e-05
0.000304533
-6.70451e-05
-0.00066725
-0.00106996
-0.000298988
0.000260286
-0.000104662
-0.000469887
-0.000651747
-7.58468e-05
0.000443618
-0.00018387
-0.000495835
-0.000421057
-0.000202664
0.000264459
0.00010048
-0.00073201
-0.000826431
0.000141163
0.00034449
-7.46076e-06
-0.000346369
-0.000475152
9.72655e-05
0.000244309
-8.92593e-05
-0.000462597
-0.00066379
-0.000204582
2.47597e-05
-0.000463537
-0.000862238
-0.000562532
0.000191577
0.000683256
0.000155546
-0.000301234
-0.000597966
8.46127e-05
0.000408124
-7.72115e-05
-0.000862218
-0.00131302
-0.000214567
0.00034763
-0.000174323
-0.00051643
-0.000721372
-2.27416e-06
0.000619865
-0.000255048
-0.000665943
-0.000432232
-0.000116436
0.00044375
8.3247e-05
-0.00100119
-0.00088835
0.000352151
0.000392642
-2.87051e-05
-0.000376183
-0.000502839
0.000240658
0.000272022
-3.39558e-05
-0.000522887
-0.000718555
-5.51678e-05
5.25902e-06
-0.000674455
-0.00103628
-0.000567973
0.000362456
0.000868686
9.22058e-05
-0.000457046
-0.000653585
0.000226893
0.000487919
-6.48287e-05
-0.001093
-0.00155357
-4.3262e-05
0.000374201
-0.000290604
-0.000553821
-0.000773339
0.000103167
0.000768802
-0.000333535
-0.000800489
-0.000444408
3.01923e-05
0.00065285
-7.81732e-05
-0.00130537
-0.000882661
0.000608817
0.000385709
-5.08123e-05
-0.000428012
-0.000511238
0.000405516
0.000243905
8.97445e-06
-0.000607048
-0.00073224
0.000158211
-7.05683e-05
-0.00093281
-0.00122359
-0.000534791
0.000596437
0.00104808
3.67065e-05
-0.000643409
-0.000654685
0.000400878
0.000535706
-6.22151e-05
-0.00136938
-0.00174052
0.000185631
0.000311695
-0.00044965
-0.000606174
-0.000804624
0.000255986
0.000858652
-0.000411697
-0.000932349
-0.000475957
0.000126894
0.000871743
-0.00029342
-0.00163609
-0.000797545
0.000901726
0.000313402
-0.000133303
-0.000519885
-0.000495898
0.000588706
0.000153882
5.36124e-06
-0.000733791
-0.000678113
0.000435938
-0.000252223
-0.0012877
-0.00142648
-0.000452753
0.00094241
0.00119342
-8.7306e-05
-0.000867914
-0.000594949
0.000638981
0.000555868
-9.61733e-05
-0.00170728
-0.00187756
0.000417447
0.000141175
-0.000655234
-0.000657977
-0.000804979
0.000507061
0.000859859
-0.000508442
-0.00109105
-0.000536687
0.00044671
0.00107464
-0.000646014
-0.00199088
-0.000572679
0.00123442
0.000174269
-0.000237994
-0.000676151
-0.00044131
0.000816945
5.47461e-06
-9.81195e-05
-0.000924921
-0.000526862
0.000785827
-0.000523961
-0.00177894
-0.00165076
-0.000303462
0.0013831
0.00128278
-0.000351016
-0.00114023
-0.000479615
0.000906475
0.000624747
-0.000196967
-0.00213063
-0.00194981
0.00091909
-0.00012483
-0.000867898
-0.000704844
-0.000781253
0.000862275
0.000753496
-0.000642071
-0.00124756
-0.000658993
0.000896483
0.00124583
-0.00121406
-0.00237672
-0.000221914
0.00162096
-2.94794e-05
-0.000443368
-0.00094771
-0.000326661
0.00110669
-0.000190049
-0.000362708
-0.0012002
-0.00024023
0.00120937
-0.000909513
-0.00245443
-0.00201318
-0.000126373
0.00192005
0.00130221
-0.000810431
-0.00146334
-0.000311303
0.00123842
0.000709016
-0.000407817
-0.00266747
-0.00196087
0.00118259
-0.000456285
-0.00111733
-0.000783232
-0.000730429
0.0012824
0.000537572
-0.000842018
-0.00142645
-0.000856081
0.00152051
0.00134703
-0.00203678
-0.00281076
0.000270667
0.00209404
-0.000291339
-0.000817956
-0.00134806
-9.8267e-05
0.00149633
-0.000413489
-0.000814544
-0.00159823
0.000298566
0.00173468
-0.00133207
-0.0033546
-0.00249265
0.000159054
0.0025748
0.00124679
-0.0015185
-0.00187986
-0.000122799
0.00167509
0.000803562
-0.000786531
-0.00333147
-0.00189462
0.00151337
-0.000834389
-0.00141756
-0.000916258
-0.000648494
0.00184435
0.000230001
-0.00116976
-0.00168153
-0.00104808
0.00235309
0.00132653
-0.00317844
-0.00332148
0.0008666
0.00269455
-0.000598022
-0.00143013
-0.00190299
0.000294183
0.00201647
-0.000659482
-0.00152931
-0.00216115
0.00112578
0.00238829
-0.00175451
-0.00455141
-0.00310924
0.000624494
0.0033831
0.00109459
-0.00252556
-0.00254393
0.00013118
0.0022281
0.000896476
-0.00139972
-0.00412293
-0.00171505
0.00193437
-0.00126581
-0.00182665
-0.00110498
-0.000550655
0.00247181
-0.000141645
-0.00169835
-0.00206906
-0.00117094
0.00343817
0.00116454
-0.00469844
-0.00397331
0.00166651
0.0034655
-0.000921062
-0.00232926
-0.00262876
0.000791284
0.00267771
-0.000920202
-0.00263217
-0.00293534
0.00209329
0.00319674
-0.00220352
-0.0060933
-0.00387674
0.0013164
0.00436971
0.000945047
-0.00389529
-0.00335833
0.000531777
0.00292514
0.00100283
-0.00232668
-0.00503158
-0.00136024
0.00246692
-0.00168845
-0.00244985
-0.00137651
-0.000392348
0.00323164
-0.000556583
-0.00252212
-0.00262027
-0.00118434
0.00480557
0.000829301
-0.00663497
-0.00483717
0.00264302
0.00445456
-0.00134269
-0.00358134
-0.00349035
0.00135116
0.00349298
-0.00112561
-0.00414054
-0.00392613
0.00312582
0.00419482
-0.00263076
-0.00793275
-0.00478984
0.00222512
0.00559092
0.000902059
-0.00560157
-0.00432952
0.000959028
0.00381919
0.00116096
-0.00358992
-0.00599821
-0.000758923
0.00311555
-0.00209188
-0.00335658
-0.00171856
-0.000137698
0.00414768
-0.000937015
-0.00373135
-0.00334008
-0.0010687
0.0063147
0.000391493
-0.00895568
-0.00590963
0.00361932
0.0057132
-0.00179132
-0.00514982
-0.00427692
0.00218935
0.00446937
-0.00125233
-0.00580725
-0.00489314
0.00447442
0.00535936
-0.00292209
-0.00992639
-0.0057271
0.00321468
0.00699556
0.000942872
-0.00742864
-0.00527092
0.0014617
0.00484863
0.00125443
-0.00506896
-0.00688625
0.000133693
0.00396505
-0.0024285
-0.0044403
-0.00205742
0.000252262
0.00521802
-0.00113802
-0.00520932
-0.00410574
-0.000855582
0.00786094
0.000162214
-0.0112742
-0.0070204
0.00465102
0.00727267
-0.00221184
-0.00679807
-0.00478041
0.00326753
0.00533925
-0.0013365
-0.00744256
-0.00553346
0.00590534
0.00661927
-0.00311549
-0.0119596
-0.00655718
0.0042169
0.00839489
0.00103584
-0.00893409
-0.00606906
0.00180861
0.00601636
0.00116003
-0.00652954
-0.00761835
0.00115647
0.00501603
-0.0028343
-0.00552945
-0.00232588
0.000777052
0.00637702
-0.0011709
-0.00668498
-0.00455017
-0.000312531
0.00905965
3.51697e-05
-0.013095
-0.00790031
0.00578687
0.00894085
-0.00262954
-0.008191
-0.00509702
0.00451642
0.0060397
-0.00141476
-0.00871273
-0.00609984
0.00721613
0.00771625
-0.00340623
-0.0136627
-0.00758523
0.00461055
0.00957462
0.00112702
-0.00989711
-0.00692465
0.00199434
0.00707276
0.000765775
-0.00761117
-0.00826133
0.00218592
0.00608623
-0.00337551
-0.00657199
-0.0029931
0.00148556
0.00740722
-0.00126942
-0.00775126
-0.00480527
0.000702591
0.00998288
-0.00016216
-0.0141928
-0.00867371
0.00642494
0.0105455
-0.00311662
-0.00908865
-0.00531139
0.00564636
0.00671564
-0.00140429
-0.00952309
-0.00665086
0.00849954
0.00856979
-0.00390232
-0.0145814
-0.00899154
0.00472295
0.0104562
0.00120118
-0.010064
-0.00786005
0.00216403
0.00787332
5.54068e-05
-0.00820603
-0.00885332
0.00281661
0.00707303
-0.00382661
-0.00737546
-0.00408239
0.00214884
0.00842449
-0.00144151
-0.00847841
-0.0054025
0.00149422
0.00970629
-0.000397627
-0.0144857
-0.00950702
0.00687739
0.0116242
-0.00363472
-0.00961097
-0.00532823
0.00674823
0.007275
-0.00146785
-0.00977659
-0.00674315
0.00974072
0.00908307
-0.00466432
-0.0147863
-0.0101058
0.00492649
0.0111976
0.00116344
-0.00993299
-0.0083372
0.00250831
0.0083595
-0.000600933
-0.00850463
-0.00918711
0.0034522
0.00784743
-0.00437246
-0.00787308
-0.0047059
0.00284701
0.0092035
-0.00167403
-0.00875812
-0.00610598
0.00209795
0.0102563
-0.000611923
-0.0145469
-0.00976659
0.00738944
0.0117779
-0.00425983
-0.0097631
-0.00526926
0.00732191
0.00755057
-0.0019164
-0.00973741
-0.00617206
0.0108572
0.00917762
-0.00550913
-0.0145944
-0.0102397
0.00546926
0.0116641
0.00101436
-0.0095912
-0.00825862
0.00298878
0.00860088
-0.00119263
-0.00859599
-0.00928447
0.00393676
0.00837093
-0.00504038
-0.00797195
-0.00461982
0.00348383
0.00972516
-0.0019956
-0.00873191
-0.00627296
0.00278174
0.0107025
-0.000940371
-0.0144745
-0.0094237
0.00797493
0.0120974
-0.00463269
-0.00976692
-0.00543984
0.00737202
0.00704058
-0.00245764
-0.00943527
-0.00542412
0.0116101
0.00914317
-0.00621516
-0.0142169
-0.00967998
0.00612838
0.0120616
0.000891678
-0.0091254
-0.00790561
0.00342733
0.00879901
-0.00166515
-0.00847082
-0.00934239
0.00416562
0.00834179
-0.00566101
-0.0077537
-0.00419298
0.0040304
0.0100313
-0.00229987
-0.00841029
-0.00601994
0.00349252
0.0110963
-0.00126471
-0.0142107
-0.00901255
0.00868617
0.0124889
-0.00492623
-0.00965134
-0.00558035
0.00748724
0.00698441
-0.0028084
-0.00892319
-0.00502995
0.0120114
0.00908859
-0.00657829
-0.0137127
-0.0091835
0.00667085
0.0123502
0.000871363
-0.00861108
-0.00760034
0.00380273
0.00892504
-0.00193092
-0.00819997
-0.00937065
0.00435
0.00801945
-0.00608733
-0.00735244
-0.00385061
0.00440225
0.010165
-0.00250799
-0.00797539
-0.00558442
0.00411094
0.0113415
-0.00153445
-0.013684
-0.00871934
0.00962695
0.0129684
-0.00505459
-0.00929546
-0.00559704
0.00774205
0.00739653
-0.00293371
-0.00839187
-0.00498772
0.0122226
0.00940174
-0.00668975
-0.0131853
-0.00890013
0.00705848
0.0125714
0.000892959
-0.00813199
-0.0074694
0.00403068
0.00892897
-0.0019283
-0.00786782
-0.00926062
0.00451922