/*--------------------------------*- C++ -*----------------------------------*\
  =========                 |
  \\      /  F ield         | OpenFOAM: The Open Source CFD Toolbox
   \\    /   O peration     | Website:  https://openfoam.org
    \\  /    A nd           | Version:  10
     \\/     M anipulation  |
\*---------------------------------------------------------------------------*/
FoamFile
{
    format      ascii;
    class       volScalarField;
    location    "1";
    object      pMean;
}
// * * * * * * * * * * * * * * * * * * * * * * * * * * * * * * * * * * * * * //

dimensions      [0 2 -2 0 0 0 0];

internalField   nonuniform List<scalar> 
25600
(
-1.14456e-05
-1.28362e-05
-1.54378e-05
-1.86903e-05
-2.13241e-05
-2.22105e-05
-2.18281e-05
-2.12947e-05
-1.99561e-05
-1.65813e-05
-1.17121e-05
-7.19969e-06
-4.15967e-06
-2.51919e-06
-1.75892e-06
-1.48719e-06
-2.40951e-06
-4.60558e-06
-6.96637e-06
-8.44794e-06
-9.2535e-06
-9.96378e-06
-1.0461e-05
-1.08243e-05
-1.09265e-05
-1.10152e-05
-1.16879e-05
-1.3659e-05
-1.63736e-05
-1.86648e-05
-1.98291e-05
-2.01748e-05
-2.04639e-05
-2.04553e-05
-1.97756e-05
-1.83169e-05
-1.63166e-05
-1.40846e-05
-1.21342e-05
-1.1271e-05
-1.18277e-05
-1.33537e-05
-1.72407e-05
-2.1832e-05
-2.47535e-05
-2.50387e-05
-2.44495e-05
-2.4564e-05
-2.29066e-05
-1.74693e-05
-9.97491e-06
-3.8009e-06
-7.45403e-07
5.77063e-07
1.97381e-06
3.12128e-06
1.28868e-06
-3.49534e-06
-7.84787e-06
-9.72908e-06
-1.00049e-05
-1.01459e-05
-1.03438e-05
-1.0465e-05
-9.9558e-06
-9.40939e-06
-9.87472e-06
-1.23973e-05
-1.57689e-05
-1.86685e-05
-2.01844e-05
-2.06236e-05
-2.16743e-05
-2.23496e-05
-2.12228e-05
-1.86262e-05
-1.61609e-05
-1.41694e-05
-1.24239e-05
-1.17377e-05
-1.00463e-05
-1.18905e-05
-1.89955e-05
-2.61518e-05
-2.8779e-05
-2.76123e-05
-2.75891e-05
-2.99493e-05
-2.806e-05
-1.88834e-05
-7.16799e-06
5.88752e-07
2.6725e-06
3.213e-06
6.28917e-06
9.30409e-06
5.3603e-06
-3.84015e-06
-1.08419e-05
-1.2207e-05
-1.08651e-05
-1.02149e-05
-1.07168e-05
-1.05056e-05
-8.21858e-06
-5.99671e-06
-6.32265e-06
-1.05509e-05
-1.54437e-05
-1.89506e-05
-2.03307e-05
-2.0849e-05
-2.39342e-05
-2.58718e-05
-2.31473e-05
-1.83245e-05
-1.53255e-05
-1.38022e-05
-1.21678e-05
-1.11854e-05
-4.97349e-06
-8.11071e-06
-2.17647e-05
-3.22076e-05
-3.256e-05
-2.90289e-05
-3.15132e-05
-3.84316e-05
-3.59057e-05
-2.0162e-05
-2.47324e-06
6.10445e-06
5.025e-06
4.69398e-06
1.20186e-05
1.81262e-05
9.8845e-06
-6.75583e-06
-1.68994e-05
-1.55569e-05
-1.10385e-05
-1.00425e-05
-1.20392e-05
-1.09306e-05
-4.86004e-06
3.9236e-07
-3.57805e-07
-8.20008e-06
-1.5522e-05
-1.91608e-05
-1.9683e-05
-2.09645e-05
-2.85026e-05
-3.20951e-05
-2.49605e-05
-1.64841e-05
-1.35991e-05
-1.34125e-05
-1.19539e-05
-9.25394e-06
5.12116e-06
-2.17261e-06
-2.71094e-05
-4.0203e-05
-3.45146e-05
-2.79005e-05
-3.69531e-05
-5.16238e-05
-4.69041e-05
-2.01209e-05
5.46043e-06
1.20592e-05
4.54943e-06
4.39613e-06
2.08767e-05
3.0884e-05
1.41457e-05
-1.39555e-05
-2.6755e-05
-1.86822e-05
-9.46321e-06
-1.00289e-05
-1.48961e-05
-1.14573e-05
1.46158e-06
1.15411e-05
8.56045e-06
-5.9424e-06
-1.6289e-05
-1.87365e-05
-1.73469e-05
-2.17505e-05
-3.74927e-05
-4.20408e-05
-2.54388e-05
-1.21116e-05
-1.11511e-05
-1.3719e-05
-1.24643e-05
-5.22255e-06
2.25375e-05
4.31319e-06
-3.72349e-05
-4.91576e-05
-3.19484e-05
-2.30532e-05
-4.55814e-05
-7.11878e-05
-6.07173e-05
-1.65015e-05
1.77685e-05
1.66806e-05
-1.04955e-06
2.06921e-06
3.48121e-05
4.9596e-05
1.6869e-05
-2.70633e-05
-4.0407e-05
-1.9741e-05
-5.69188e-06
-1.1894e-05
-2.07303e-05
-1.15453e-05
1.25868e-05
2.96602e-05
2.04746e-05
-4.93032e-06
-1.78723e-05
-1.6728e-05
-1.22353e-05
-2.46454e-05
-5.38055e-05
-5.54274e-05
-2.22769e-05
-4.51646e-06
-8.44111e-06
-1.57992e-05
-1.4617e-05
2.91707e-06
4.89229e-05
7.60011e-06
-5.40725e-05
-5.68314e-05
-2.15587e-05
-1.38833e-05
-6.00636e-05
-9.86841e-05
-7.60554e-05
-6.85285e-06
3.44535e-05
1.68796e-05
-1.35264e-05
-5.36428e-07
5.76169e-05
7.55588e-05
1.54379e-05
-4.81072e-05
-5.70335e-05
-1.72857e-05
6.40855e-09
-1.75876e-05
-2.98691e-05
-1.0112e-05
3.0971e-05
5.6543e-05
3.33975e-05
-7.37202e-06
-2.03069e-05
-1.16953e-05
-3.83704e-06
-3.36351e-05
-8.05457e-05
-6.96399e-05
-1.22717e-05
6.31098e-06
-6.77923e-06
-2.2047e-05
-1.92484e-05
1.88788e-05
8.34978e-05
1.38208e-06
-7.82017e-05
-5.92079e-05
-1.28665e-07
-1.91834e-06
-8.40966e-05
-0.000134912
-9.02894e-05
1.16015e-05
5.38926e-05
7.79092e-06
-3.6035e-05
-1.63925e-06
9.411e-05
0.000109086
5.70569e-06
-7.80111e-05
-7.44339e-05
-9.55382e-06
5.05001e-06
-3.03883e-05
-4.17165e-05
-4.78779e-06
5.96554e-05
9.23716e-05
4.36886e-05
-1.42219e-05
-2.18282e-05
-2.37819e-06
8.04949e-06
-5.36073e-05
-0.00012035
-8.04934e-05
6.22488e-06
1.89094e-05
-8.54326e-06
-3.42903e-05
-2.54947e-05
4.78514e-05
0.000120833
-2.06043e-05
-0.000108738
-5.15643e-05
3.44422e-05
8.8866e-06
-0.000122122
-0.000178941
-9.93227e-05
4.03081e-05
7.28276e-05
-1.4516e-05
-6.84634e-05
3.61979e-06
0.00014827
0.00014742
-1.74341e-05
-0.000116451
-8.96087e-05
2.84301e-06
6.22363e-06
-5.22594e-05
-5.4949e-05
6.03627e-06
0.000101118
0.000136164
4.7507e-05
-2.6331e-05
-2.09554e-05
1.20905e-05
2.13736e-05
-9.11527e-05
-0.000172543
-8.25413e-05
3.35822e-05
2.98265e-05
-1.60259e-05
-5.54274e-05
-3.02521e-05
9.48559e-05
0.00015096
-6.27204e-05
-0.000140464
-2.83235e-05
8.27436e-05
1.32319e-05
-0.000177215
-0.000226996
-9.97241e-05
7.75812e-05
8.4247e-05
-5.62035e-05
-0.000108285
2.22532e-05
0.000220984
0.000185108
-5.59796e-05
-0.000159965
-9.98488e-05
1.7871e-05
-2.30749e-06
-8.4433e-05
-6.54203e-05
2.57255e-05
0.000156094
0.000183976
3.95879e-05
-4.14701e-05
-1.53327e-05
3.21345e-05
3.19653e-05
-0.000151892
-0.000235487
-7.0649e-05
6.74808e-05
3.66023e-05
-3.0723e-05
-8.70665e-05
-2.72402e-05
0.000163035
0.000161014
-0.000125689
-0.000166386
1.44389e-05
0.000141972
4.2432e-06
-0.000249766
-0.000275282
-8.64702e-05
0.000122701
7.95442e-05
-0.000118944
-0.000153172
5.91718e-05
0.000310194
0.000213638
-0.000112027
-0.000204502
-0.000103465
3.36274e-05
-2.6039e-05
-0.00012869
-7.16693e-05
5.45306e-05
0.000227452
0.000230893
1.69583e-05
-5.67823e-05
-4.5089e-06
5.71443e-05
3.25795e-05
-0.00024187
-0.000300524
-4.08411e-05
0.000102555
3.70463e-05
-5.62397e-05
-0.000131819
-7.13002e-06
0.000249959
0.000137182
-0.000203986
-0.000180362
7.78161e-05
0.000208944
-2.60554e-05
-0.000340109
-0.000319497
-6.15205e-05
0.000168762
5.2608e-05
-0.000203635
-0.000195016
0.000118446
0.000408804
0.000227412
-0.000180999
-0.000244069
-9.85641e-05
4.38603e-05
-6.84218e-05
-0.000180273
-7.06807e-05
9.17315e-05
0.000311272
0.0002698
-1.98725e-05
-6.82979e-05
1.16604e-05
8.55273e-05
1.44967e-05
-0.000363332
-0.000357818
5.19992e-06
0.000132151
2.95096e-05
-9.63393e-05
-0.000187616
3.88217e-05
0.000347512
7.24381e-05
-0.000291367
-0.000178514
0.000157601
0.000276128
-8.10422e-05
-0.000442895
-0.000355821
-2.46272e-05
0.000205943
-7.03515e-06
-0.00030323
-0.000226439
0.000200825
0.000506649
0.000219772
-0.000257872
-0.000275834
-8.7346e-05
3.95141e-05
-0.000136966
-0.000234403
-6.03302e-05
0.000137809
0.000407394
0.000291131
-7.00407e-05
-7.28707e-05
3.0948e-05
0.000114315
-3.10784e-05
-0.000514103
-0.000399144
6.44799e-05
0.00015223
1.10484e-05
-0.000154411
-0.00024853
0.000117683
0.000441415
-3.685e-05
-0.00037514
-0.000161568
0.00024917
0.000335157
-0.000164746
-0.000553481
-0.000383672
1.79945e-05
0.000224577
-0.000100149
-0.000411493
-0.00024479
0.000301044
0.000594257
0.000187915
-0.000336491
-0.000298523
-7.40183e-05
1.44036e-05
-0.000231307
-0.000286216
-4.4962e-05
0.000186593
0.000504871
0.000289632
-0.000127663
-7.18187e-05
5.15293e-05
0.000140723
-0.000114491
-0.000686372
-0.000420331
0.000124121
0.000156542
-2.01759e-05
-0.000238159
-0.000304661
0.000232026
0.000514815
-0.000183837
-0.000448603
-0.000135809
0.000343774
0.000380139
-0.000279825
-0.000666094
-0.000405393
5.87355e-05
0.000213286
-0.000232854
-0.000521856
-0.000248358
0.000412878
0.00066423
0.000128994
-0.000410713
-0.000313169
-6.71238e-05
-4.22055e-05
-0.000350912
-0.000330247
-2.52765e-05
0.000234826
0.000593624
0.000264193
-0.000189687
-7.03771e-05
6.91498e-05
0.000161976
-0.000241352
-0.000871247
-0.000416532
0.000175023
0.000142671
-6.99257e-05
-0.000348445
-0.00034659
0.000372408
0.000547295
-0.000359811
-0.000505234
-0.000111251
0.000428617
0.00039798
-0.000425375
-0.000777776
-0.000428716
8.7666e-05
0.000162805
-0.000400083
-0.000627249
-0.00024007
0.000522702
0.000705455
4.38533e-05
-0.000482301
-0.000327152
-7.68604e-05
-0.000139845
-0.000495693
-0.000364599
-1.0973e-05
0.000273066
0.000662386
0.000214542
-0.000249691
-7.56533e-05
7.5918e-05
0.000171073
-0.00040817
-0.00105781
-0.000396377
0.000205327
0.000107371
-0.00014761
-0.000486211
-0.000368826
0.000522565
0.000524844
-0.000561411
-0.000546314
-0.000101162
0.000495182
0.000382844
-0.000605736
-0.00088752
-0.000460156
8.74156e-05
5.34225e-05
-0.000610408
-0.00072812
-0.000221365
0.00061568
0.000703246
-7.17983e-05
-0.000550309
-0.000346551
-0.000114658
-0.000289783
-0.000669474
-0.000391481
-8.11432e-06
0.000291374
0.000698711
0.000140225
-0.000306828
-8.96374e-05
6.98122e-05
0.000159534
-0.000614664
-0.00123568
-0.000366038
0.000206181
4.16185e-05
-0.000266699
-0.000649225
-0.000369406
0.000663533
0.000432525
-0.000788735
-0.000586811
-0.000115252
0.000529161
0.000327293
-0.000815401
-0.00099955
-0.000505424
4.3693e-05
-0.000123379
-0.000868133
-0.000834515
-0.000206994
0.000683779
0.000649391
-0.000226012
-0.000628543
-0.000374352
-0.000189256
-0.000503943
-0.000879205
-0.000422246
-2.45198e-05
0.00028091
0.00069272
4.27854e-05
-0.000365013
-0.000118325
5.06139e-05
0.000123975
-0.000856434
-0.00140499
-0.000339135
0.000171674
-6.18535e-05
-0.000447225
-0.000838042
-0.000353791
0.000770091
0.000263394
-0.00105652
-0.000652193
-0.000171904
0.000528353
0.000229345
-0.00105102
-0.00112142
-0.00058075
-5.76641e-05
-0.000382632
-0.00119253
-0.000956455
-0.000204894
0.000705651
0.000531863
-0.000431942
-0.000735184
-0.000439068
-0.000317909
-0.000796297
-0.00113787
-0.000472273
-8.39618e-05
0.000227023
0.000642624
-7.53348e-05
-0.000427882
-0.000167328
1.25208e-05
5.54658e-05
-0.00112411
-0.00156492
-0.000324505
8.91013e-05
-0.000219951
-0.000702365
-0.00104681
-0.000333059
0.000814085
1.32711e-05
-0.00136701
-0.000764337
-0.000301706
0.000474342
8.75426e-05
-0.00130119
-0.00125243
-0.000690068
-0.000208563
-0.00072022
-0.00159343
-0.00112021
-0.0002436
0.000690633
0.000353306
-0.000692587
-0.000880409
-0.000534596
-0.000505673
-0.00117548
-0.00146105
-0.000558316
-0.00019657
0.000122639
0.000537325
-0.000217472
-0.000505647
-0.000226407
-3.52894e-05
-4.5212e-05
-0.00141635
-0.00170787
-0.00032508
-3.07304e-05
-0.0004387
-0.00104079
-0.00127668
-0.000316834
0.000787116
-0.000326634
-0.00172667
-0.000944512
-0.00048712
0.000406057
-7.99001e-05
-0.00156038
-0.00137684
-0.000826799
-0.000395573
-0.00112676
-0.00206576
-0.00133001
-0.000328188
0.0006388
0.000136659
-0.00100555
-0.00109895
-0.000657662
-0.000707156
-0.00163924
-0.00187062
-0.000722613
-0.00034536
-4.86203e-06
0.000390297
-0.000411038
-0.000624274
-0.00030366
-7.84857e-05
-0.000161471
-0.00172981
-0.00186327
-0.000316946
-0.000147539
-0.00067528
-0.00143928
-0.00151364
-0.000297092
0.000727391
-0.000709449
-0.00214564
-0.00122686
-0.00067137
0.000423935
-0.000217516
-0.00184714
-0.0015383
-0.000954656
-0.00052152
-0.00149915
-0.00258552
-0.00163587
-0.000394353
0.000619557
-7.94079e-05
-0.00138424
-0.00142235
-0.000803162
-0.000828824
-0.00205855
-0.00236951
-0.00100111
-0.000514883
-2.50302e-05
0.000256455
-0.00066805
-0.000819194
-0.000338266
-4.10826e-05
-0.000288553
-0.00209428
-0.00203747
-0.000288095
-0.000211928
-0.000950332
-0.00192178
-0.00177813
-0.000274899
0.00066788
-0.00110241
-0.0026159
-0.00156208
-0.000734568
0.000543715
-0.000324858
-0.00217633
-0.00172581
-0.00102009
-0.000507193
-0.00178349
-0.00312516
-0.00196259
-0.00038479
0.000736417
-0.000237939
-0.00178401
-0.00172934
-0.000736228
-0.000755987
-0.00240708
-0.00285853
-0.00140361
-0.000688854
2.36418e-05
9.15819e-05
-0.00117413
-0.00120686
-0.000344129
8.91603e-05
-0.000400949
-0.0025657
-0.00230087
-0.000196553
-0.000226825
-0.00114415
-0.00249625
-0.00210055
-0.000160776
0.000725624
-0.00143224
-0.0028529
-0.00170306
-0.000570524
0.000727133
-0.000529714
-0.00249517
-0.00188321
-0.000931504
-0.000264784
-0.00190326
-0.00345369
-0.00203891
-0.000151712
0.000859577
-0.000301743
-0.00203482
-0.00183905
-0.000487685
-0.000434004
-0.00247058
-0.00320215
-0.0016788
-0.000707156
0.000193539
-7.20623e-05
-0.00152939
-0.00147763
-0.000155991
0.000402067
-0.000468842
-0.0030312
-0.00255762
-6.51821e-05
-0.000139763
-0.00145343
-0.00317005
-0.0024222
2.52093e-05
0.000950659
-0.00155817
-0.00277416
-0.00159415
-0.000184267
0.0010958
-0.000522843
-0.00267185
-0.00190852
-0.000595872
0.000312719
-0.00170443
-0.00349738
-0.00194054
0.000161443
0.00130171
-0.000153858
-0.00208895
-0.00181619
-7.49727e-05
5.71384e-05
-0.00228417
-0.00317146
-0.00170352
-0.000477651
0.000537718
-5.5106e-05
-0.00179835
-0.00152486
0.000310105
0.00102063
-0.000341976
-0.00329101
-0.00257558
0.000334818
0.000225077
-0.00130978
-0.00361736
-0.00262188
0.000397703
0.00139912
-0.00121936
-0.00244855
-0.00123966
0.000382155
0.00154335
-0.000337543
-0.00263642
-0.00187374
-0.000115026
0.00100275
-0.00122924
-0.00335408
-0.00170584
0.000514592
0.00167224
0.000120487
-0.00190919
-0.00141835
0.000542295
0.000686445
-0.00190151
-0.00296098
-0.00152829
-7.64434e-05
0.00101137
0.000185911
-0.00182215
-0.0015327
0.00073679
0.00156693
-0.000166206
-0.00335724
-0.00229836
0.00100379
0.00100364
-0.00087712
-0.00361479
-0.00243532
0.00101939
0.00207833
-0.000792392
-0.00216322
-0.00069716
0.00107659
0.00203495
-0.000116907
-0.00240494
-0.00163323
0.000419472
0.00153701
-0.000893121
-0.00297492
-0.00138399
0.00106007
0.0021011
0.000490538
-0.00155078
-0.00108485
0.00115543
0.0011912
-0.00161888
-0.00271782
-0.00114419
0.000611393
0.00161688
0.000356265
-0.00182787
-0.00138614
0.00108093
0.00190513
3.34652e-05
-0.0033561
-0.00214338
0.00154211
0.00171757
-0.000286822
-0.00330772
-0.00213028
0.00155594
0.00271631
-0.000298211
-0.00203984
-0.00043992
0.00147779
0.00243599
0.00015895
-0.00217699
-0.00145882
0.000745712
0.00189806
-0.000558342
-0.00270047
-0.00106553
0.00131165
0.00247093
0.000811828
-0.00116981
-0.000694635
0.00144632
0.00134015
-0.00153249
-0.00254253
-0.000712558
0.00126029
0.00229414
0.000721214
-0.00153007
-0.00104904
0.00144385
0.00219941
7.60551e-05
-0.00329979
-0.00178498
0.00205702
0.00214296
1.5491e-05
-0.00308622
-0.00186459
0.00184773
0.00287951
-0.000240786
-0.00185431
-0.000165558
0.00183483
0.00249138
0.000160556
-0.00210238
-0.00136558
0.000872437
0.0019107
-0.000521194
-0.0025747
-0.000866634
0.00146888
0.00241322
0.000931912
-0.000974827
-0.000591635
0.001502
0.00130502
-0.00152675
-0.00238553
-0.000410859
0.0016052
0.00246659
0.000793816
-0.00129936
-0.000736168
0.00159471
0.00216919
4.81072e-05
-0.00314359
-0.00156001
0.00227928
0.00224507
0.000174916
-0.00289865
-0.001638
0.00198687
0.00275788
-0.000207143
-0.00177177
-6.81271e-05
0.00184159
0.00238606
0.000145126
-0.00202453
-0.00128325
0.00085574
0.00178733
-0.00053066
-0.00250067
-0.000817429
0.00145898
0.00236913
0.00091817
-0.000889398
-0.000490031
0.00148496
0.00122255
-0.00153393
-0.00225848
-0.00029502
0.00158028
0.00246299
0.000811843
-0.00122069
-0.000581635
0.00157447
0.00205768
1.4594e-05
-0.00309567
-0.00146633
0.0022935
0.00213738
0.000128225
-0.00283478
-0.00150098
0.00198681
0.00262515
-0.000216602
-0.00172166
-6.33031e-05
0.00182586
0.00232894
0.000112699
-0.00196678
-0.00124626
0.000790934
0.00170913
-0.000534218
-0.00243637
-0.000778317
0.00141584
0.00228687
0.000921233
-0.00080971
-0.00046233
0.00143191
0.0011414
-0.00151488
-0.00216708
-0.000286475
0.00153558
0.00239825
0.000758417
-0.00115111
-0.000537544
0.00152838
0.00197469
-2.96786e-05
-0.00304164
-0.00142943
0.00223983
0.00207406
0.000123676
-0.00276997
-0.00144952
0.00196248
0.00257993
-0.00019836
-0.00168387
-4.27476e-05
0.00180341
0.00230559
0.000140677
-0.00193001
-0.00123662
0.000763242
0.00169287
-0.000512738
-0.00240204
-0.000773193
0.00139503
0.00227677
0.000941423
-0.00078434
-0.000453633
0.00141097
0.00111902
-0.00149428
-0.00214112
-0.00026849
0.00151836
0.00238404
0.000795171
-0.00113097
-0.000534697
0.00150155
0.00194835
-1.2997e-06
-0.00300701
-0.001426
0.0022212
0.00204948
0.000143253
-0.00273196
-0.00142709
0.00193531
0.00254198
-0.000181954
-1.19869e-05
-1.35866e-05
-1.56665e-05
-1.82477e-05
-2.06417e-05
-2.20107e-05
-2.20316e-05
-2.07034e-05
-1.84493e-05
-1.54203e-05
-1.18875e-05
-7.86892e-06
-3.91702e-06
-1.36358e-06
-8.41753e-07
-1.64858e-06
-2.77554e-06
-4.06621e-06
-5.56055e-06
-7.34021e-06
-9.15945e-06
-1.03669e-05
-1.08312e-05
-1.06461e-05
-1.06835e-05
-1.1482e-05
-1.26813e-05
-1.37693e-05
-1.54459e-05
-1.77941e-05
-1.9845e-05
-2.07461e-05
-2.05791e-05
-2.0189e-05
-1.95292e-05
-1.85359e-05
-1.69917e-05
-1.44641e-05
-1.19598e-05
-1.10157e-05
-1.32288e-05
-1.51766e-05
-1.7331e-05
-2.06583e-05
-2.38646e-05
-2.54865e-05
-2.52408e-05
-2.31451e-05
-1.99459e-05
-1.5989e-05
-1.10829e-05
-5.03968e-06
6.99526e-07
3.75702e-06
3.74812e-06
2.05847e-06
1.49389e-07
-1.91509e-06
-4.48001e-06
-7.51703e-06
-1.00856e-05
-1.11392e-05
-1.05282e-05
-9.1973e-06
-9.5126e-06
-1.12001e-05
-1.24469e-05
-1.27216e-05
-1.46325e-05
-1.82962e-05
-2.141e-05
-2.24358e-05
-2.18364e-05
-2.14879e-05
-2.08286e-05
-1.96824e-05
-1.75879e-05
-1.39802e-05
-1.12379e-05
-1.12495e-05
-1.44158e-05
-1.65567e-05
-1.83349e-05
-2.29868e-05
-2.80736e-05
-3.03877e-05
-2.95983e-05
-2.62562e-05
-2.2082e-05
-1.76528e-05
-1.11076e-05
-1.78522e-06
7.103e-06
1.0668e-05
9.1915e-06
5.70611e-06
2.96075e-06
6.65606e-07
-2.96908e-06
-7.96991e-06
-1.21448e-05
-1.27957e-05
-9.33633e-06
-6.14809e-06
-7.8176e-06
-1.12314e-05
-1.1969e-05
-1.06853e-05
-1.33936e-05
-1.97656e-05
-2.46163e-05
-2.52033e-05
-2.32804e-05
-2.27903e-05
-2.26261e-05
-2.18835e-05
-1.86421e-05
-1.21942e-05
-8.52069e-06
-1.06222e-05
-1.6348e-05
-1.76827e-05
-1.83763e-05
-2.53421e-05
-3.40016e-05
-3.7231e-05
-3.50193e-05
-2.98118e-05
-2.49498e-05
-2.10984e-05
-1.23466e-05
2.65977e-06
1.64155e-05
2.02259e-05
1.51579e-05
8.94706e-06
6.01678e-06
4.41768e-06
-6.00048e-07
-9.84473e-06
-1.66713e-05
-1.55971e-05
-6.34501e-06
-9.21485e-07
-6.25433e-06
-1.22835e-05
-1.12326e-05
-6.95322e-06
-1.15317e-05
-2.30628e-05
-3.01337e-05
-2.87826e-05
-2.42642e-05
-2.3784e-05
-2.53917e-05
-2.58607e-05
-2.01622e-05
-7.96637e-06
-3.61192e-06
-1.01067e-05
-1.95207e-05
-1.82264e-05
-1.67737e-05
-2.81496e-05
-4.25001e-05
-4.61374e-05
-4.10927e-05
-3.35017e-05
-2.89674e-05
-2.74943e-05
-1.52843e-05
9.23543e-06
3.02967e-05
3.27573e-05
2.07621e-05
1.11934e-05
9.58637e-06
1.0218e-05
2.58555e-06
-1.486e-05
-2.54199e-05
-1.92319e-05
2.72651e-08
6.84104e-06
-6.16401e-06
-1.54183e-05
-9.77084e-06
-4.31842e-07
-8.99004e-06
-2.93953e-05
-3.86632e-05
-3.22317e-05
-2.39212e-05
-2.44064e-05
-3.03216e-05
-3.3069e-05
-2.14971e-05
4.63406e-07
3.38253e-06
-1.10283e-05
-2.43799e-05
-1.72046e-05
-1.2821e-05
-3.23038e-05
-5.46776e-05
-5.71229e-05
-4.7257e-05
-3.70872e-05
-3.50592e-05
-3.84291e-05
-1.96444e-05
2.03882e-05
5.06457e-05
4.79777e-05
2.47469e-05
1.16177e-05
1.4435e-05
1.90212e-05
5.55448e-06
-2.5807e-05
-3.956e-05
-2.22774e-05
1.17623e-05
1.68798e-05
-9.68035e-06
-2.15827e-05
-6.19498e-06
1.06413e-05
-6.31073e-06
-4.1041e-05
-5.07295e-05
-3.36286e-05
-2.12807e-05
-2.51888e-05
-3.90992e-05
-4.49691e-05
-2.0862e-05
1.55185e-05
1.14404e-05
-1.53468e-05
-2.96671e-05
-1.30257e-05
-6.36605e-06
-3.97228e-05
-7.1202e-05
-6.91803e-05
-5.24246e-05
-3.99903e-05
-4.49155e-05
-5.64132e-05
-2.53782e-05
3.89337e-05
7.88336e-05
6.47656e-05
2.51245e-05
9.41392e-06
2.20871e-05
3.25088e-05
6.91089e-06
-4.5773e-05
-5.98988e-05
-2.24586e-05
3.16237e-05
2.77455e-05
-1.97699e-05
-3.07542e-05
1.8799e-06
2.78631e-05
-5.09775e-06
-6.06449e-05
-6.58408e-05
-3.05394e-05
-1.54961e-05
-2.74767e-05
-5.43428e-05
-6.21669e-05
-1.45943e-05
3.87448e-05
1.78196e-05
-2.41039e-05
-3.34261e-05
-3.31435e-06
2.15336e-06
-5.27602e-05
-9.18592e-05
-8.08706e-05
-5.57124e-05
-4.19737e-05
-6.16378e-05
-8.24346e-05
-2.9549e-05
6.82746e-05
0.000115159
8.04554e-05
1.96332e-05
4.36541e-06
3.53681e-05
5.11783e-05
2.61487e-06
-7.68966e-05
-8.53181e-05
-1.65144e-05
6.0838e-05
3.47352e-05
-3.92919e-05
-3.99006e-05
1.84899e-05
5.30311e-05
-9.54928e-06
-8.97535e-05
-8.0741e-05
-1.99656e-05
-6.90229e-06
-3.36545e-05
-7.88468e-05
-8.3757e-05
3.87893e-06
7.0892e-05
1.74926e-05
-3.83821e-05
-3.25107e-05
1.35666e-05
1.16905e-05
-7.49379e-05
-0.000115792
-8.98985e-05
-5.42637e-05
-4.40436e-05
-9.18048e-05
-0.000118631
-2.76087e-05
0.000111518
0.000159517
9.16521e-05
6.07596e-06
-2.37018e-06
5.91882e-05
7.44875e-05
-1.32468e-05
-0.000120983
-0.000114096
-5.41331e-07
9.91901e-05
3.18097e-05
-6.88908e-05
-4.46988e-05
4.73028e-05
8.53258e-05
-2.43288e-05
-0.000129876
-9.02788e-05
-2.80683e-07
3.7991e-06
-4.61467e-05
-0.00011504
-0.000105465
4.03159e-05
0.000107766
4.95462e-06
-5.70045e-05
-2.39029e-05
3.83532e-05
1.8649e-05
-0.00010956
-0.000139821
-9.35401e-05
-4.74838e-05
-4.87638e-05
-0.000140012
-0.000163462
-1.56508e-05
0.000172413
0.000209372
9.31611e-05
-1.67113e-05
-7.9878e-06
9.69298e-05
9.85589e-05
-4.61653e-05
-0.000176293
-0.000143571
2.86547e-05
0.00014431
1.26813e-05
-0.000107577
-3.97806e-05
9.10418e-05
0.000121283
-5.62633e-05
-0.000178755
-8.93085e-05
2.82295e-05
1.38185e-05
-6.9146e-05
-0.000164114
-0.000119336
9.93847e-05
0.000141899
-2.44182e-05
-7.48371e-05
-3.27828e-06
6.84914e-05
1.55815e-05
-0.000160844
-0.000159558
-8.85999e-05
-3.12671e-05
-6.34932e-05
-0.000213064
-0.000211212
1.03884e-05
0.000250977
0.000259277
7.88593e-05
-4.90805e-05
-8.46887e-06
0.000149148
0.0001141
-0.000101597
-0.000241283
-0.00017098
7.32587e-05
0.000190218
-3.04113e-05
-0.000149477
-2.08503e-05
0.000148778
0.000157246
-0.000110974
-0.000230155
-7.0534e-05
6.17085e-05
2.09451e-05
-0.000106181
-0.000225655
-0.000114203
0.000183335
0.000159893
-7.54285e-05
-8.54112e-05
2.68166e-05
0.00010175
-5.54281e-06
-0.000228287
-0.000170398
-7.30643e-05
-6.55941e-06
-9.90741e-05
-0.000315846
-0.000253567
5.69136e-05
0.00034496
0.00030047
4.39265e-05
-8.75595e-05
4.67545e-06
0.000217901
0.00011146
-0.000183383
-0.000313866
-0.000195146
0.000138384
0.000226488
-0.000104683
-0.000187396
1.48849e-05
0.000217686
0.00018499
-0.000195668
-0.000276033
-3.19183e-05
9.39801e-05
2.01144e-05
-0.00016471
-0.000293901
-7.89207e-05
0.000287748
0.000149043
-0.000144903
-8.2242e-05
6.28463e-05
0.000133918
-5.38217e-05
-0.000312367
-0.000167177
-4.60604e-05
2.67541e-05
-0.000164782
-0.00044687
-0.000285708
0.000122882
0.00045111
0.000323871
-1.63549e-05
-0.000129511
3.56777e-05
0.000295976
7.87899e-05
-0.000289528
-0.000392339
-0.000216023
0.000218863
0.000242549
-0.000210259
-0.000213287
6.54508e-05
0.000292787
0.000195805
-0.000314369
-0.000307213
2.77061e-05
0.000121801
5.96201e-06
-0.000248868
-0.000358007
-1.8725e-06
0.000400246
9.11936e-05
-0.000228102
-5.83058e-05
9.90181e-05
0.00015697
-0.000140062
-0.000407353
-0.00014784
-5.50379e-06
6.65715e-05
-0.00027662
-0.000601411
-0.000301154
0.000207204
0.000567298
0.000318015
-0.000109528
-0.000177195
8.84432e-05
0.000377763
7.07889e-06
-0.000421264
-0.000474776
-0.000231825
0.00031093
0.000217308
-0.000342691
-0.000216996
0.000128618
0.00036765
0.00017735
-0.00046344
-0.000314259
9.86964e-05
0.000135587
-2.441e-05
-0.000367155
-0.000410094
0.000121298
0.000505893
-1.97891e-05
-0.000315951
-1.60425e-05
0.000128193
0.00016236
-0.000276008
-0.000505225
-0.000114772
4.76403e-05
0.000106242
-0.000441915
-0.000770773
-0.000302119
0.000306249
0.000682826
0.000272735
-0.00023725
-0.000232446
0.00016114
0.00044994
-0.000106655
-0.000569301
-0.000562184
-0.000243339
0.000404863
0.000141015
-0.000498945
-0.000193186
0.000199788
0.000439432
0.000118267
-0.00063942
-0.000292954
0.00016956
0.000131085
-7.97923e-05
-0.000516252
-0.000438656
0.000287672
0.000582501
-0.000191995
-0.000397788
3.74319e-05
0.000141656
0.000141558
-0.000465468
-0.00059837
-7.15349e-05
0.000111039
0.000134556
-0.00067207
-0.000944518
-0.00029517
0.000415905
0.000792072
0.000179478
-0.000397156
-0.00029479
0.000248699
0.000499406
-0.000260993
-0.000723648
-0.000657968
-0.000253388
0.00048947
1.7768e-07
-0.000667998
-0.000142904
0.000270427
0.000496876
5.26005e-06
-0.000831364
-0.000246489
0.000223602
0.000107901
-0.000169694
-0.000703347
-0.000435624
0.000483658
0.000606291
-0.000421006
-0.000465809
8.7839e-05
0.0001342
8.16985e-05
-0.000706104
-0.00067858
-3.08238e-05
0.000178601
0.000139117
-0.000960124
-0.0011108
-0.000294224
0.00053067
0.000883874
3.5782e-05
-0.000587591
-0.000370571
0.000344026
0.000516523
-0.000445997
-0.000878629
-0.00076523
-0.000264066
0.000546036
-0.000205652
-0.000833379
-7.11586e-05
0.000332337
0.000535869
-0.000172117
-0.00102785
-0.00018427
0.000244538
7.17838e-05
-0.000300676
-0.000924471
-0.000399621
0.000687307
0.000565432
-0.000696002
-0.000514381
0.000118495
9.60783e-05
-3.42469e-05
-0.000994917
-0.000741543
-6.14326e-06
0.000245415
0.000102799
-0.00130328
-0.00126598
-0.000319907
0.000646984
0.000947379
-0.000156338
-0.000804003
-0.000462876
0.000437435
0.00049057
-0.000652109
-0.00103118
-0.00089202
-0.000276666
0.000565638
-0.000473957
-0.000983077
1.59409e-05
0.00037052
0.000538752
-0.000421099
-0.00122207
-0.000131042
0.000212563
1.876e-05
-0.000480557
-0.00117531
-0.00035342
0.000864742
0.000436592
-0.00100813
-0.000544444
0.000113132
2.57028e-05
-0.000211753
-0.00132567
-0.000790378
-1.54364e-05
0.000304975
1.45613e-05
-0.00169629
-0.00141
-0.000390134
0.000754504
0.000970661
-0.000388752
-0.00105124
-0.000585767
0.000521083
0.000426722
-0.000865048
-0.00118101
-0.00104165
-0.000291777
0.000528619
-0.000798732
-0.00109822
0.000107865
0.000402801
0.000506569
-0.000736274
-0.00140209
-0.000110822
0.00011057
-6.04253e-05
-0.000731305
-0.00146197
-0.000316229
0.000974458
0.00020128
-0.00134869
-0.00056096
5.50527e-05
-8.39111e-05
-0.000462529
-0.00168605
-0.000826734
-8.00222e-05
0.000332186
-0.000142647
-0.00211572
-0.00154705
-0.000524986
0.000848183
0.000946327
-0.000645419
-0.00131169
-0.000734848
0.000574935
0.000314899
-0.00106071
-0.00133328
-0.00121991
-0.000311614
0.00042573
-0.00116794
-0.0011745
0.000181623
0.000378765
0.000409724
-0.00112766
-0.00157166
-0.000159685
-7.54891e-05
-0.000165251
-0.00105974
-0.00177421
-0.000313153
0.000972766
-0.000148527
-0.00169242
-0.000573626
-7.42415e-05
-0.000240088
-0.000785694
-0.00204164
-0.000838598
-0.000184245
0.000315429
-0.000370401
-0.00252449
-0.00166453
-0.000714902
0.000900931
0.000850689
-0.000904049
-0.00155982
-0.000875255
0.000587412
0.000153858
-0.00123161
-0.0014741
-0.00140565
-0.000328922
0.000260245
-0.00155557
-0.00121568
0.000242972
0.000366717
0.000239985
-0.00157397
-0.00171252
-0.000296607
-0.00036313
-0.000343384
-0.00146026
-0.00207257
-0.000336271
0.000841431
-0.000588608
-0.00198576
-0.000567363
-0.000264234
-0.000458048
-0.00121996
-0.00237551
-0.000814681
-0.0002969
0.000249294
-0.000664413
-0.00286433
-0.00172459
-0.000908044
0.000894214
0.000664181
-0.00113319
-0.00174174
-0.000975422
0.000556306
-9.88076e-05
-0.001362
-0.00160645
-0.0015849
-0.000406046
1.80618e-05
-0.00189355
-0.00116811
0.000267897
0.000257419
-2.7826e-05
-0.00202904
-0.00175953
-0.00042602
-0.000693665
-0.000618741
-0.00193463
-0.00230215
-0.000375579
0.000483046
-0.0011588
-0.00219329
-0.00049601
-0.000478832
-0.000659677
-0.00162624
-0.00264691
-0.00075145
-0.000480178
6.07053e-05
-0.00105018
-0.00317643
-0.00178372
-0.00118766
0.000709347
0.000306258
-0.00138329
-0.00181199
-0.00102294
0.000386631
-0.000399038
-0.00148818
-0.00168012
-0.00172557
-0.000503695
-0.000315149
-0.0022644
-0.00113269
0.000344993
0.00011536
-0.000429863
-0.00245126
-0.00175376
-0.000556704
-0.00104317
-0.00097257
-0.00233934
-0.00231652
-0.00035632
-7.51406e-05
-0.00178601
-0.0023086
-0.000338366
-0.000649044
-0.000771438
-0.00189071
-0.00274809
-0.000615971
-0.000624098
-0.000213798
-0.00134459
-0.00333787
-0.0017135
-0.00141534
0.00041679
4.4076e-05
-0.00145559
-0.00177234
-0.00103705
0.000209951
-0.000646556
-0.00144569
-0.00169002
-0.00178985
-0.000649853
-0.000640156
-0.00248314
-0.00106545
0.000147312
-0.000133459
-0.000706541
-0.00268268
-0.00158743
-0.000621126
-0.00141863
-0.00133999
-0.00266479
-0.00208048
-0.000276655
-0.000562025
-0.00214944
-0.00218548
2.32427e-05
-0.000642777
-0.000619325
-0.00187871
-0.00265161
-0.000278477
-0.000557134
-0.000212412
-0.00134354
-0.00324959
-0.00148676
-0.00146058
0.000349727
5.01391e-05
-0.00132209
-0.00153734
-0.00091242
0.000260056
-0.000610343
-0.00131639
-0.00146576
-0.00174385
-0.000744934
-0.00081334
-0.00265513
-0.000962547
0.000429014
-0.000231887
-0.000928165
-0.00258916
-0.00118307
-0.000414081
-0.00150914
-0.00134663
-0.00257813
-0.0017065
-3.56332e-05
-0.000811939
-0.00223037
-0.00184769
0.000535404
-0.000383028
-0.000376445
-0.00155455
-0.00226562
0.000172492
-0.000226187
2.62591e-05
-0.00117532
-0.00304146
-0.0010231
-0.00107061
0.000604626
0.000363645
-0.00102106
-0.0012818
-0.000711865
0.00036155
-0.0003666
-0.000945613
-0.00122834
-0.00155967
-0.000664433
-0.000794034
-0.00245333
-0.000682666
0.000450044
7.00797e-05
-0.000595122
-0.00235837
-0.00081042
-9.83605e-05
-0.00138968
-0.00111525
-0.00221788
-0.00101377
0.000499846
-0.000534196
-0.00177265
-0.00126437
0.00113588
-7.54241e-05
-0.000251847
-0.0014249
-0.00186248
0.000797343
0.000207718
0.000353103
-0.000910743
-0.00267973
-0.000529851
-0.000770533
0.00104273
0.000590994
-0.000778199
-0.000824736
-0.000365494
0.000669178
-0.000167772
-0.000714149
-0.000929345
-0.00144932
-0.000583922
-0.000734624
-0.00242331
-0.000288291
0.001133
0.000278482
-0.000579829
-0.00217192
-0.000512236
0.00024383
-0.000964487
-0.000620742
-0.00185225
-0.000668688
0.000902302
-0.000148439
-0.00109432
-0.000513236
0.0015677
0.000120185
-0.000137557
-0.00121115
-0.00161645
0.000989301
0.000461019
0.00057909
-0.000707111
-0.00252032
-0.000314211
-0.000523154
0.0013137
0.00103495
-0.000424631