/*--------------------------------*- C++ -*----------------------------------*\
  =========                 |
  \\      /  F ield         | OpenFOAM: The Open Source CFD Toolbox
   \\    /   O peration     | Website:  https://openfoam.org
    \\  /    A nd           | Version:  10
     \\/     M anipulation  |
\*---------------------------------------------------------------------------*/
FoamFile
{
    format      ascii;
    class       volScalarField;
    location    "9";
    object      nut;
}
// * * * * * * * * * * * * * * * * * * * * * * * * * * * * * * * * * * * * * //

dimensions      [0 2 -1 0 0 0 0];

internalField   nonuniform List<scalar> 
25600
(
1.41028e-09
5.81726e-09
4.49672e-08
4.11544e-08
8.83095e-09
9.88126e-09
1.14919e-08
1.08866e-10
1.15941e-10
3.63902e-10
1.57185e-10
1.07342e-08
5.77121e-09
1.95331e-09
1.75338e-11
2.33775e-09
5.60336e-10
2.73869e-10
1.12059e-09
2.91652e-09
2.0729e-09
1.10212e-08
5.32098e-11
7.89296e-09
1.82053e-09
3.52309e-11
5.38603e-12
1.20641e-10
1.19896e-09
2.42311e-09
1.38994e-09
2.21104e-09
7.02182e-08
6.34176e-08
4.01996e-08
3.41665e-08
4.56489e-10
1.55363e-09
1.61999e-09
3.04315e-09
1.81171e-08
4.45829e-08
2.2021e-07
2.13771e-07
6.24256e-08
5.11875e-08
6.85408e-08
5.26573e-10
8.77557e-09
4.24051e-11
5.41141e-09
1.06486e-07
1.08319e-07
4.92539e-08
4.87417e-11
1.32573e-08
1.66151e-08
1.76272e-09
1.28043e-08
2.41865e-08
6.67414e-08
2.41796e-07
4.88787e-10
4.40638e-08
8.86551e-09
6.21083e-10
8.59069e-10
2.16277e-10
4.14384e-09
1.67333e-08
1.92934e-08
9.10871e-09
4.10427e-07
2.43091e-07
2.66776e-07
5.65089e-07
3.0917e-08
5.14154e-09
6.00002e-09
1.55865e-08
8.40765e-07
8.09118e-08
4.654e-07
4.48403e-07
1.67371e-07
9.98422e-08
1.10505e-07
2.91959e-09
4.795e-08
6.1246e-10
2.89633e-08
3.69835e-07
7.61714e-07
1.98681e-06
1.36603e-07
1.03001e-08
4.50601e-07
4.6534e-08
1.00014e-08
1.23073e-07
3.41281e-08
2.39688e-06
1.24216e-07
4.84081e-08
2.78245e-08
2.95902e-09
1.04073e-07
9.71532e-08
2.28901e-08
2.53231e-08
1.39204e-07
6.73912e-09
5.22882e-07
3.20116e-07
1.70413e-07
1.55356e-06
1.3743e-06
1.12996e-08
5.7194e-08
4.66629e-10
2.84245e-06
4.88172e-05
2.90742e-06
8.27263e-07
3.60352e-07
2.66336e-07
1.08628e-07
4.39665e-08
1.44294e-08
3.57372e-09
9.69354e-08
1.52246e-06
1.41514e-06
1.19665e-05
1.24255e-05
7.30884e-08
2.38666e-06
5.83921e-05
1.01696e-07
6.18465e-08
8.38673e-08
1.56717e-06
3.29764e-06
2.85082e-08
4.1964e-08
7.06455e-07
2.83926e-06
6.35545e-06
2.41524e-05
2.856e-08
3.34765e-07
5.19609e-07
7.83852e-08
8.45893e-07
2.17231e-07
2.6199e-07
6.29834e-07
3.27586e-06
3.93814e-07
3.43267e-07
5.34494e-06
3.17366e-06
1.06473e-05
1.46587e-05
1.30676e-06
8.3081e-07
3.32171e-07
9.92648e-08
1.37845e-09
6.21058e-09
9.97677e-08
5.18496e-06
3.52921e-06
4.36736e-06
1.44263e-05
6.20596e-06
4.65726e-07
3.38766e-05
1.66236e-05
6.36304e-08
7.53954e-07
1.32252e-06
4.15893e-05
9.23573e-08
2.10659e-07
1.12204e-06
2.69187e-06
2.10692e-05
4.88998e-05
3.54484e-05
1.55873e-07
1.58425e-06
2.46628e-07
7.11065e-07
1.91309e-06
3.23326e-07
1.91752e-07
4.21143e-05
3.48738e-05
4.74556e-07
2.20576e-06
7.81494e-06
1.81948e-05
1.75635e-05
2.763e-05
7.71563e-06
2.40651e-06
3.01192e-07
1.66383e-07
5.79856e-08
9.02708e-08
8.29336e-06
1.54408e-05
1.22062e-05
4.0637e-06
4.07906e-06
5.61433e-07
7.0542e-05
9.23205e-07
1.47862e-06
2.07259e-06
4.63034e-06
2.1419e-05
4.58225e-06
1.53173e-06
3.3271e-08
5.26166e-06
6.89623e-05
1.47136e-05
7.30655e-06
4.74924e-07
1.46884e-06
2.23914e-06
9.09284e-08
1.547e-05
1.55312e-05
2.90763e-07
2.21475e-06
1.27797e-06
5.80701e-06
7.79693e-07
1.73528e-06
1.09095e-05
3.59932e-05
7.34154e-05
1.98395e-05
1.08847e-05
2.82039e-06
1.58884e-06
3.97778e-07
6.97744e-07
4.22069e-06
3.787e-05
1.86414e-05
7.75693e-05
2.65985e-06
7.45488e-08
3.90101e-06
2.80563e-05
4.85185e-05
7.20662e-06
1.00574e-05
9.98112e-06
9.64273e-06
4.73138e-06
1.17109e-06
3.35507e-06
2.37358e-06
1.41831e-05
1.16675e-06
3.70621e-06
1.26801e-06
3.82406e-06
4.51027e-06
7.30973e-05
7.0732e-05
2.57232e-06
5.40477e-07
6.3162e-06
7.9533e-07
4.46643e-05
4.28612e-05
2.02845e-07
3.33263e-05
7.27922e-05
2.67131e-06
4.15204e-06
1.12344e-05
7.99934e-06
2.7627e-06
1.5601e-06
2.01868e-06
4.97009e-05
1.43693e-05
1.40061e-05
4.04497e-05
1.69269e-07
1.29783e-06
2.95299e-05
2.46213e-05
6.45848e-06
5.38819e-06
3.64161e-07
3.23774e-06
3.2635e-06
8.75201e-06
2.65427e-06
1.84116e-06
3.73314e-06
3.75647e-06
1.16982e-07
5.74075e-06
3.73658e-06
1.34638e-05
4.06969e-06
1.49446e-05
2.09723e-05
1.43801e-05
7.91791e-07
2.88655e-06
2.00986e-05
9.45433e-07
1.21506e-05
2.08668e-05
6.18714e-06
2.51105e-05
6.75446e-06
2.80833e-06
1.76275e-06
7.46806e-06
1.6552e-06
1.49338e-05
4.61204e-05
1.54969e-05
1.54984e-06
5.63075e-06
2.09518e-06
4.71198e-06
3.0352e-05
2.49186e-05
7.44978e-07
3.27044e-07
2.13992e-06
2.15746e-05
0.000107951
7.01437e-06
5.74928e-07
3.74897e-07
6.4076e-07
2.75594e-06
2.63566e-07
6.6338e-06
3.28485e-06
2.62589e-06
1.06734e-06
2.91058e-07
1.51871e-05
2.90869e-05
3.00642e-06
1.81979e-05
2.03556e-06
1.14174e-05
1.00782e-05
7.05891e-06
1.40955e-05
0.00015325
8.71307e-06
2.43833e-06
2.92125e-07
4.70737e-06
5.97698e-07
2.27336e-05
1.58807e-05
4.19651e-05
2.01807e-06
3.19479e-05
6.62416e-06
6.36392e-05
2.52414e-05
2.66281e-05
2.32933e-06
5.98076e-06
1.42303e-05
7.85989e-06
8.71882e-05
4.81986e-06
1.4728e-05
1.30724e-06
4.08618e-07
3.00806e-06
1.19462e-05
7.62731e-06
4.26128e-06
2.65574e-07
2.52565e-07
2.14562e-06
2.21949e-05
0.000142458
1.36269e-05
1.1486e-05
4.53653e-06
1.75647e-05
3.22844e-05
1.19269e-05
8.48853e-06
4.90386e-05
7.94057e-05
8.09448e-06
9.50198e-07
2.89194e-06
1.25088e-05
3.43859e-06
1.96383e-05
8.9159e-05
1.42654e-06
5.83723e-05
2.05975e-05
9.49355e-05
1.87144e-05
2.1907e-05
1.13325e-05
7.24827e-06
2.17934e-05
1.28342e-05
6.32553e-06
2.02331e-06
5.87634e-06
3.19944e-05
7.25333e-05
2.69087e-06
1.62598e-07
2.15491e-06
4.51203e-06
5.7953e-07
2.29616e-07
6.54337e-06
4.32937e-05
8.93276e-05
7.46297e-05
5.46502e-05
2.36679e-05
3.19878e-05
3.87487e-05
7.94531e-06
1.84227e-05
0.000117216
1.8305e-05
2.21784e-05
2.798e-05
5.41088e-06
9.56676e-06
1.30392e-05
1.04491e-05
2.71996e-05
5.41845e-07
3.3333e-05
2.55247e-05
0.000102352
1.3255e-05
2.70514e-05
1.63906e-05
2.08086e-05
3.26593e-05
1.94209e-05
1.00912e-05
3.784e-06
1.60897e-05
5.19001e-05
7.32001e-05
4.79136e-06
2.54396e-06
7.50792e-07
5.76884e-07
4.10326e-06
5.00617e-07
1.28054e-05
3.27735e-05
5.16166e-05
4.83969e-05
5.77219e-05
4.94441e-05
2.23798e-05
6.04606e-05
6.96492e-06
2.52707e-05
7.58223e-05
1.57367e-05
1.14748e-05
7.52711e-06
2.30038e-05
4.56564e-06
2.28828e-06
5.87427e-07
1.69153e-05
1.72219e-06
6.73826e-06
1.22385e-05
7.85534e-06
1.38998e-05
1.86308e-05
2.88839e-05
4.41626e-05
4.24044e-05
1.20326e-05
2.39504e-05
1.19147e-05
1.42454e-05
0.000130387
6.34288e-05
1.31693e-05
3.58566e-05
5.05412e-06
3.06788e-05
1.02012e-05
2.67024e-06
1.95241e-05
2.45573e-05
2.52108e-05
3.57112e-05
3.87118e-05
3.29722e-05
3.57573e-05
3.99945e-05
4.89647e-06
1.55184e-05
3.50855e-05
1.47517e-05
7.13637e-06
1.87056e-05
2.01915e-05
1.92432e-05
5.605e-06
8.14567e-07
1.36457e-05
6.53158e-06
5.36986e-06
1.51376e-05
8.18157e-05
1.8629e-05
8.40695e-06
9.99906e-06
5.21788e-05
3.02227e-05
7.87404e-06
4.81653e-05
6.61563e-06
1.23997e-05
0.000103001
4.90726e-05
1.45318e-05
3.44763e-05
7.25278e-06
7.52281e-05
4.97042e-05
3.85656e-06
9.53139e-06
2.12034e-05
2.70578e-05
2.29864e-05
2.3449e-05
4.5982e-06
6.25731e-05
1.05858e-05
5.64041e-06
7.56157e-06
1.47458e-05
2.1048e-05
3.9863e-06
4.53887e-06
3.95585e-06
2.51798e-05
2.85878e-05
6.76961e-06
4.58322e-06
6.60501e-06
1.5753e-05
8.38592e-06
1.14145e-05
2.72956e-05
4.24324e-05
3.18552e-05
3.53791e-05
2.57119e-05
1.03561e-05
5.89836e-06
1.14464e-05
4.55701e-06
2.9685e-05
8.26431e-05
6.60673e-06
8.67218e-06
1.27265e-05
5.76626e-05
2.74242e-05
5.14433e-06
2.93023e-05
2.52759e-05
2.67198e-05
1.65972e-05
7.10924e-06
1.76756e-05
0.000123028
6.71602e-05
1.41104e-05
5.90696e-06
7.95213e-06
1.26324e-05
2.33815e-05
1.5563e-05
9.24406e-07
1.59318e-05
2.5866e-05
1.44968e-05
6.64257e-06
5.59058e-06
3.5213e-05
1.2133e-05
4.85552e-07
5.24172e-06
0.000102921
0.00011561
0.000138341
6.2646e-05
1.69342e-05
1.69648e-05
6.5047e-06
2.34119e-05
1.2874e-05
0.000173069
1.24558e-05
9.66263e-06
6.12605e-06
1.15131e-05
2.12767e-05
2.51357e-05
0.000110676
8.77378e-05
2.15462e-05
1.01426e-05
9.27255e-06
3.02075e-05
0.000135401
0.000157322
3.50105e-05
1.78114e-05
1.08301e-05
4.97682e-06
2.70474e-05
1.992e-05
2.13661e-05
2.5137e-05
2.60343e-05
8.48243e-06
1.63783e-05
1.26225e-05
2.42806e-05
0.000101526
3.08768e-05
3.68051e-06
3.65901e-05
0.000200073
0.000228645
0.000164127
1.78105e-05
7.87109e-06
1.58225e-06
4.06104e-05
1.36844e-05
0.000106835
4.6744e-05
1.03169e-05
2.91137e-05
3.55652e-05
1.04468e-05
9.08753e-06
1.04453e-05
3.83208e-05
0.0001487
2.8844e-05
2.18769e-05
8.10046e-05
0.000125255
6.27443e-05
2.94441e-06
2.69901e-05
1.56206e-05
2.52368e-05
7.67383e-05
5.95837e-06
2.60454e-05
4.82709e-05
2.68179e-05
8.31767e-05
0.000133874
3.42702e-05
7.01381e-06
0.000239451
0.000257926
2.4694e-05
5.26118e-05
0.000215951
0.000201973
0.000218006
3.40382e-05
8.6958e-06
1.52072e-06
3.01556e-05
1.79209e-05
1.38575e-06
5.32077e-05
3.94422e-05
1.89545e-05
9.78828e-06
4.83156e-06
4.90325e-06
1.68518e-06
1.95176e-05
0.000169053
0.000117796
3.21353e-05
8.99255e-05
5.30903e-05
1.47235e-05
8.36667e-06
1.77566e-05
1.91391e-05
2.38317e-05
2.36178e-05
9.58819e-06
9.48131e-06
7.603e-05
6.53176e-05
2.95298e-05
0.000100901
0.000178203
1.09261e-05
0.000260621
0.000349385
0.000200366
0.000134641
0.000247129
0.000142937
0.000105741
1.78619e-05
7.60545e-06
4.3201e-06
2.17347e-05
2.20163e-05
3.03904e-05
0.000101942
2.52097e-05
2.10848e-05
1.47415e-05
2.1332e-05
2.49171e-05
9.08037e-06
8.67272e-06
1.68403e-05
3.34294e-05
5.82906e-05
4.84195e-05
2.21187e-05
9.34387e-06
6.10232e-06
1.05999e-05
2.19406e-05
8.30484e-06
1.36546e-05
1.11928e-05
6.67872e-06
3.91529e-05
0.000174454
0.000144986
7.49751e-05
0.000217799
0.000120502
4.48455e-05
0.000304592
8.6913e-05
1.95044e-05
5.48165e-05
0.000142875
1.21208e-05
8.51511e-06
1.36031e-05
1.55575e-05
2.10801e-05
3.40728e-05
2.62257e-05
1.25047e-05
5.48667e-05
4.58873e-05
0.000120855
3.75331e-06
2.66397e-05
3.20704e-05
0.000147991
0.000111837
3.03833e-05
3.72182e-06
4.26929e-05
3.88802e-06
1.61902e-05
1.66012e-05
2.06917e-05
2.99859e-05
2.56774e-05
4.42152e-06
1.75968e-05
3.10883e-05
2.25165e-05
8.06058e-06
6.30641e-05
0.000203683
0.00021779
0.000193371
3.21273e-05
3.27986e-05
1.83716e-05
4.84458e-06
7.09794e-06
9.13912e-05
3.38384e-05
3.67418e-05
6.61791e-06
1.38775e-05
1.8296e-05
2.84347e-05
8.22181e-06
5.37442e-06
7.41244e-05
0.000183674
0.000242211
0.000134502
1.52661e-06
8.82167e-05
0.000154422
8.12139e-05
2.82995e-05
4.97916e-05
0.000126817
4.60348e-06
2.48868e-06
1.58912e-05
2.7247e-05
3.33954e-05
6.47863e-06
0.000150343
7.29465e-05
2.05535e-05
2.47569e-05
2.29488e-05
5.58143e-07
0.000104076
0.000182173
0.000131604
1.62691e-05
1.26234e-05
2.56111e-05
3.09819e-05
1.43182e-05
0.000111209
3.40161e-05
1.06376e-05
2.10036e-05
3.43396e-05
4.70728e-05
5.20097e-05
1.51355e-05
1.8149e-06
4.38367e-05
0.000117334
0.000248929
0.000219386
4.85338e-05
0.000136775
0.000162729
0.000113902
1.48845e-05
9.22001e-05
0.000113639
1.89976e-05
7.84529e-06
7.53367e-06
4.94235e-05
2.9121e-05
3.03535e-06
8.77088e-05
0.000202852
2.26971e-05
7.79608e-06
2.06892e-05
9.86344e-06
8.0096e-06
8.79536e-05
5.10354e-05
4.22103e-05
4.14425e-05
6.87178e-05
6.69258e-05
8.3291e-06
2.59484e-05
3.57293e-05
2.75071e-05
3.3361e-05
6.25625e-05
0.000190065
0.00025011
0.000100849
2.05534e-05
2.1824e-05
0.000148434
0.000262401
0.000145701
5.48426e-05
0.000127177
5.59423e-05
3.4389e-05
4.71094e-05
4.74469e-05
2.79505e-05
1.84689e-05
1.14787e-06
5.15733e-06
3.55363e-05
6.90048e-05
2.33172e-05
7.07484e-06
2.25657e-05
1.77179e-05
1.61609e-05
8.113e-06
4.46263e-06
4.22317e-06
5.32497e-05
2.10288e-05
1.65125e-05
4.02637e-05
0.000133223
0.000103264
1.0403e-05
2.02961e-05
3.71155e-05
3.76587e-05
7.70398e-05
2.74545e-05
0.000248669
0.000375791
0.000162652
1.85088e-05
1.59601e-05
0.000167941
0.000230189
1.30289e-05
4.3125e-05
0.000154436
0.000166061
1.88951e-05
3.75988e-05
1.41648e-05
3.35967e-05
7.85162e-07
2.08972e-05
3.74987e-05
4.6096e-06
9.93323e-06
3.73928e-05
3.57359e-05
2.9968e-05
5.16033e-05
7.2545e-05
5.53081e-05
3.89162e-06
1.95425e-05
0.000110762
1.69189e-05
1.15171e-05
2.47494e-05
2.2632e-05
2.15933e-05
2.30334e-05
6.08889e-05
2.56844e-05
1.24801e-05
7.96881e-06
6.76915e-06
2.95353e-06
0.00027645
0.000353697
0.000195483
5.5365e-06
5.06378e-05
0.000210992
5.86181e-05
2.63453e-05
5.11291e-05
1.74411e-05
4.27627e-05
7.62935e-06
4.41175e-05
2.03827e-06
2.84197e-05
5.9428e-05
4.70546e-05
1.26445e-05
1.39196e-05
1.45466e-05
2.3227e-05
4.27975e-05
7.23563e-05
4.88213e-05
2.33275e-05
1.75925e-05
2.75072e-06
2.62226e-05
2.8114e-05
1.10642e-05
6.22192e-05
4.77455e-05
2.88109e-05
0.000107129
1.43342e-05
9.77158e-06
2.43233e-05
8.29795e-05
2.24005e-05
4.05573e-06
1.10368e-05
0.000183455
0.00016235
9.20543e-05
2.55004e-05
4.0465e-05
0.000105932
5.14617e-05
4.59817e-06
1.51037e-05
4.88043e-05
3.56418e-05
7.00204e-06
4.13855e-05
1.66333e-05
1.94977e-05
1.01699e-05
6.77612e-06
2.42788e-05
5.54611e-06
3.51765e-06
3.90257e-05
2.73453e-05
5.84654e-05
4.85028e-05
3.70762e-05
2.89374e-05
1.7024e-05
3.78009e-05
8.44563e-05
7.5716e-05
4.49406e-05
2.97688e-05
1.26503e-05
3.90756e-05
1.46492e-05
5.84298e-06
1.24472e-05
0.000118961
8.24269e-05
9.37689e-06
7.97095e-06
0.000132369
0.000243464
8.44793e-05
4.48089e-05
0.000142425
0.000168553
4.42605e-05
1.05985e-05
5.22474e-06
2.56717e-05
4.94651e-05
1.34888e-05
1.15282e-05
4.50112e-05
3.60769e-05
3.41285e-05
3.32322e-05
2.56307e-05
3.27651e-05
2.975e-05
2.12924e-05
3.60236e-05
8.8849e-05
6.57146e-05
1.12895e-05
7.85866e-06
1.02829e-05
8.36061e-06
1.07805e-05
0.000104461
8.4806e-05
3.93312e-05
3.43233e-05
0.000118762
0.000108307
8.53808e-05
3.11739e-05
5.26232e-05
9.04757e-06
2.55307e-05
6.89706e-05
0.00020463
4.64288e-05
6.38032e-06
1.44793e-05
2.68746e-06
9.2077e-06
4.34404e-05
2.99618e-05
3.41197e-05
2.84643e-05
1.54157e-05
4.37011e-05
2.72386e-05
1.91135e-05
1.38109e-05
1.82104e-05
3.45903e-05
3.50817e-05
2.25227e-05
1.81035e-05
2.09016e-05
7.1768e-05
8.87549e-05
4.26589e-05
3.21242e-05
1.87646e-05
9.9429e-06
1.82887e-05
5.05907e-05
0.000130834
7.89591e-05
1.94616e-05
3.25919e-05
1.55438e-05
3.88072e-05
1.07104e-05
7.08898e-06
0.000118384
0.000138831
5.09924e-05
3.18956e-05
3.62075e-06
2.13738e-05
1.66227e-05
0.000122358
2.55458e-05
2.00564e-05
1.92431e-05
1.04844e-05
1.88402e-05
2.73399e-06
3.10063e-05
4.26961e-05
1.12758e-05
5.08363e-05
8.67145e-05
5.01371e-05
2.22522e-05
3.24703e-05
1.228e-05
1.22864e-05
1.42993e-05
7.23531e-06
2.35972e-06
6.62142e-05
0.000120494
5.35605e-05
1.65712e-05
1.31274e-05
1.96652e-05
1.10801e-05
5.08759e-05
2.44904e-05
1.1127e-05
8.84779e-06
7.32011e-06
1.42132e-05
2.25112e-05
2.45597e-05
1.15566e-05
8.00235e-05
0.000164419
8.82346e-05
1.43655e-05
0.000112888
0.000239738
0.00016242
1.006e-05
7.27609e-05
7.5326e-06
1.72679e-06
2.55028e-05
2.85435e-05
1.91336e-05
1.33795e-05
2.30006e-06
2.07831e-05
3.59566e-05
7.74601e-05
0.00016848
9.23406e-05
2.49195e-05
1.00746e-05
7.06752e-07
4.4703e-05
8.1934e-05
7.01166e-05
3.7229e-05
2.64075e-05
3.36278e-05
1.837e-05
9.09071e-06
8.55707e-06
1.2059e-05
2.03503e-05
1.48305e-05
6.35963e-06
8.16401e-06
1.49184e-05
2.88026e-05
0.000100077
0.00012091
0.00016935
0.000199125
6.74428e-05
3.41063e-06
8.65114e-05
3.23847e-06
1.63362e-05
1.46915e-05
1.80263e-05
1.57529e-05
1.31178e-05
1.00092e-05
8.80434e-06
9.34165e-06
8.08132e-06
2.53965e-06
6.54844e-06
8.24328e-05
8.68372e-05
5.08988e-06
8.39817e-06
7.63911e-06
7.48303e-06
2.27612e-05
5.97462e-05
8.89493e-05
1.93094e-05
1.64326e-05
3.55379e-05
3.64413e-05
2.84427e-05
2.70751e-05
4.05729e-05
4.02484e-06
6.7588e-06
9.31047e-06
1.1306e-05
1.02645e-05
2.53567e-06
9.41462e-06
7.94942e-05
0.000141011
3.19273e-05
9.6271e-06
1.62213e-05
2.05413e-05
2.21996e-05
2.14942e-05
2.22757e-08
1.31883e-08
3.19842e-10
2.20429e-09
4.51913e-09
2.20929e-10
3.92382e-08
5.81884e-08
8.82927e-09
5.07877e-09
8.20823e-09
2.95338e-10
5.99708e-10
1.11553e-09
8.47328e-11
1.46856e-12
2.33103e-09
1.04435e-08
1.92574e-10
1.59302e-11
4.43542e-09
3.67066e-10
1.94804e-08
1.29515e-08
2.86946e-09
2.5452e-09
9.75958e-10
1.61282e-10
1.75493e-11
5.5875e-12
8.32485e-11
8.0968e-10
3.83202e-09
1.46832e-08
2.42139e-08
5.46114e-10
1.64238e-08
3.06693e-09
2.29109e-10
2.36131e-10
1.03306e-08
2.69392e-08
1.70494e-09
1.09136e-08
3.14451e-08
2.49926e-09
2.25693e-07
4.71052e-07
9.17856e-08
5.64769e-08
6.12959e-08
2.02019e-09
4.87366e-09
1.68587e-08
5.10134e-09
1.45453e-10
2.46297e-08
2.5501e-07
9.18901e-10
7.21918e-09
4.79602e-09
3.93178e-09
5.3952e-08
2.9464e-08
5.91149e-08
4.34858e-08
3.16995e-09
1.40509e-08
9.05888e-09
5.43565e-10
4.00105e-11
8.66155e-10
1.53402e-08
6.32614e-08
1.65003e-07
1.25266e-08
1.13264e-07
8.59422e-09
2.53195e-08
4.47332e-08
1.84825e-08
7.60869e-08
1.97861e-08
2.16011e-08
4.17085e-08
1.13843e-07
1.61861e-07
2.63696e-06
8.95534e-07
6.87863e-07
7.93154e-07
8.83781e-08
1.08726e-09
7.12949e-09
4.19744e-08
2.38516e-08
1.10592e-08
3.15689e-06
5.99476e-07
6.07795e-08
8.73862e-08
2.50644e-09
7.14724e-08
2.00128e-08
2.29809e-07
5.44947e-07
2.26204e-08
3.36374e-08
3.2239e-07
1.03215e-07
3.04493e-09
1.1785e-08
2.11943e-09
5.59076e-08
3.1396e-07
3.55248e-07
1.48512e-07
6.6904e-08
9.73786e-08
1.20977e-06
5.77023e-07
3.79173e-08
8.13978e-08
7.22447e-08
5.61273e-08
4.05123e-07
9.86995e-08
1.16135e-05
1.16839e-05
8.81479e-06
1.3699e-05
9.09533e-07
1.92227e-07
2.2064e-06
1.42344e-08
2.05868e-07
3.7171e-08
1.80008e-06
4.1891e-05
3.71542e-07
3.39711e-07
1.01177e-06
7.30884e-08
2.63267e-07
2.60606e-07
1.49365e-06
8.24781e-07
2.08673e-08
3.51355e-07
2.40302e-06
5.87222e-07
1.23863e-07
4.36719e-07
1.28777e-08
2.97318e-07
1.27576e-06
5.16199e-07
8.5802e-07
1.12253e-08
4.91029e-07
5.49473e-08
7.31386e-07
1.1123e-06
8.51773e-07
3.27415e-07
6.32704e-07
2.22826e-06
3.67478e-06
4.38223e-05
4.24985e-05
0.000109863
1.2377e-05
1.97421e-07
2.35022e-05
8.3355e-05
5.64825e-08
2.29465e-07
1.42942e-06
6.90689e-05
8.65181e-05
1.38805e-08
1.5749e-06
5.52687e-06
3.38109e-07
1.66631e-07
1.0362e-06
2.02e-06
1.53879e-06
8.11285e-07
9.58913e-07
2.95964e-06
1.59143e-06
2.94881e-05
8.30163e-07
1.28493e-07
9.67072e-07
4.87989e-07
2.78956e-06
3.93561e-06
4.41372e-08
4.53483e-06
4.86887e-05
2.9839e-06
1.9461e-06
2.90571e-06
1.77626e-06
2.98472e-06
1.13502e-06
4.3611e-05
5.46033e-05
4.07992e-05
0.000136929
4.10237e-07
1.05616e-06
3.28226e-05
4.32707e-05
2.54071e-07
2.38128e-06
6.74773e-06
0.000208993
6.53743e-05
1.6707e-05
1.88382e-05
1.70819e-06
1.79667e-07
4.31662e-07
1.11612e-06
3.69112e-06
4.88864e-06
2.62616e-06
5.18622e-07
9.33812e-07
8.99e-06
3.30259e-05
2.04106e-07
4.40508e-07
1.04953e-07
1.42884e-06
3.27118e-05
1.22653e-05
2.10347e-05
0.000154948
0.000187763
2.89062e-06
2.02854e-06
6.51501e-06
4.0895e-06
2.75602e-06
2.01262e-07
3.40068e-06
3.71219e-05
9.06069e-05
1.6859e-06
1.48943e-06
4.14476e-06
1.13291e-05
2.95723e-07
1.00725e-05
4.07698e-07
0.000184284
0.000128417
3.13073e-05
1.42543e-05
1.80021e-06
4.17082e-07
1.29821e-07
6.55965e-07
7.02771e-07
1.61518e-06
6.23556e-06
6.53676e-07
3.21148e-07
2.15052e-06
2.54578e-05
4.63294e-06
8.05319e-07
1.92764e-08
1.58789e-06
1.81522e-05
7.17304e-05
1.38055e-05
0.000110018
0.000249025
3.97795e-05
7.86601e-06
4.68384e-06
8.6183e-06
3.84867e-06
7.54632e-07
4.54774e-07
1.19364e-05
0.00012364
0.000125511
2.22546e-06
1.90267e-06
1.52685e-05
1.13409e-05
4.09451e-05
1.36767e-05
0.000150752
0.00016948
2.8943e-05
1.6105e-05
3.64978e-07
1.30424e-07
2.06245e-07
2.56855e-07
1.86238e-07
1.66122e-07
6.80288e-07
5.24132e-07
7.52005e-07
1.94644e-06
1.87932e-05
1.27768e-06
1.35673e-05
3.88013e-08
4.30637e-06
1.86365e-05
2.69355e-05
2.78714e-06
3.56806e-05
0.000188218
3.60345e-05
6.74595e-06
1.43546e-05
3.20614e-05
5.56134e-06
1.40673e-06
2.39324e-06
4.17871e-07
0.00022654
9.48173e-05
1.10438e-05
2.11147e-06
5.72439e-06
2.31644e-05
9.45006e-05
2.8641e-05
8.456e-05
0.000154282
6.69658e-06
3.1654e-05
1.13877e-05
1.4365e-06
9.59777e-07
1.17123e-05
6.02096e-07
1.42851e-06
1.62493e-06
1.09566e-06
2.831e-06
5.73517e-06
9.66108e-06
3.65044e-06
6.06186e-06
1.46589e-05
9.1433e-05
6.47928e-05
2.95857e-05
1.58311e-06
6.45562e-05
0.00017704
0.000167156
3.06166e-06
4.32866e-05
8.88956e-06
1.58863e-05
2.12628e-06
5.82862e-06
1.70195e-06
4.38117e-05
9.66729e-05
0.000132282
4.87399e-06
1.66964e-06
1.3982e-05
7.58658e-05
6.21002e-05
3.00408e-05
5.76582e-05
1.69155e-06
0.000131658
5.53346e-05
8.60774e-06
1.46287e-06
5.01864e-05
8.67018e-05
3.10016e-05
6.33981e-06
7.01412e-06
3.91062e-05
4.55002e-06
2.65996e-05
1.34328e-05
3.26103e-05
1.22689e-05
0.000169831
0.000127756
2.3405e-05
2.36734e-06
3.97105e-05
0.000164041
7.47861e-05
1.49608e-05
1.34222e-05
8.37856e-05
3.21702e-05
8.37723e-06
3.94077e-06
2.37997e-06
1.52237e-06
4.39874e-05
0.000213557
0.000109023
1.29883e-06
2.66126e-05
2.37486e-05
0.000106839
1.43583e-05
1.67265e-05
1.13992e-05
8.89456e-05
6.71341e-05
3.53456e-05
5.79653e-06
2.64927e-05
2.40818e-06
4.53287e-05
7.05437e-06
4.05494e-06
1.20134e-05
8.77171e-06
1.63261e-05
1.92392e-05
4.38232e-06
1.3171e-05
0.000166177
0.000135784
2.09418e-05
1.84843e-06
7.78645e-06
3.51583e-05
8.98256e-05
4.13902e-06
1.42458e-05
4.72208e-05
2.20928e-05
4.66504e-05
5.61293e-07
2.92846e-06
6.32836e-06
4.68064e-06
0.000145608
0.00019447
5.5438e-05
3.64605e-05
8.6726e-05
9.99183e-05
1.99377e-05
5.36151e-06
1.09237e-05
6.45682e-05
5.01663e-05
4.53717e-05
9.34016e-06
6.82011e-05
1.14613e-05
4.15153e-06
9.019e-06
2.40687e-06
6.22508e-06
1.89767e-05
2.28593e-05
3.6243e-05
1.60398e-05
4.57997e-06
2.94545e-05
5.53496e-05
1.96384e-05
3.07955e-06
2.73805e-06
3.75386e-05
4.73411e-05
1.51086e-05
1.22024e-05
2.00489e-05
1.17999e-05
8.95576e-06
1.95224e-05
8.9678e-06
2.51967e-05
1.47546e-05
0.000141549
0.000156287
4.5663e-05
6.98123e-05
0.000143032
0.000107918
3.17109e-05
4.60312e-06
3.41041e-05
8.83649e-05
1.79085e-05
3.83e-05
1.31176e-05
4.56109e-05
4.37371e-06
1.45671e-06
7.00034e-06
2.91789e-06
1.87901e-05
2.26857e-05
1.18448e-05
1.29059e-05
5.77751e-06
1.13123e-05
1.33662e-05
3.49968e-05
1.73844e-05
1.02977e-05
3.63876e-06
3.96239e-05
2.6845e-05
2.17513e-05
1.88749e-05
1.07682e-05
1.7407e-05
9.8761e-06
3.02492e-05
1.55163e-05
1.59752e-05
4.21794e-06
1.83866e-05
0.000168651
2.17936e-06
1.65747e-05
4.20107e-05
0.000149498
5.91921e-05
1.1858e-05
5.79591e-05
0.000115227
1.89091e-05
2.18708e-05
1.46318e-05
5.17723e-05
2.38166e-05
5.69194e-06
5.54406e-06
7.55377e-07
2.11569e-05
6.35525e-05
1.06786e-05
2.23794e-05
6.94276e-06
2.09097e-07
1.12275e-05
3.01172e-05
1.14959e-05
4.12655e-06
1.06028e-05
3.42324e-05
5.7452e-05
1.45565e-05
1.60543e-05
5.48473e-06
4.62525e-06
1.9788e-05
9.2191e-05
5.843e-05
1.29864e-05
4.29212e-06
1.49759e-05
5.84336e-05
0.000116253
2.43268e-05
2.33394e-05
0.00010709
4.12988e-05
3.10476e-05
4.61891e-05
0.000115115
3.48932e-05
2.48608e-05
1.7408e-05
6.0119e-05
3.12835e-05
8.31598e-06
3.95657e-06
2.59232e-06
2.02306e-05
2.2794e-05
1.03343e-05
1.28885e-05
1.99122e-05
2.23098e-06
2.94541e-06
1.55784e-05
1.89773e-05
1.35967e-05
1.93148e-05
2.04742e-05
2.73503e-05
3.36967e-05
1.03459e-05
9.13842e-06
5.11393e-06
3.11654e-05
2.6813e-05
5.70963e-05
3.10328e-05
8.67556e-06
1.99432e-05
3.82321e-05
9.12268e-05
9.54647e-06
2.29805e-05
1.97467e-05
2.92736e-05
3.68293e-05
3.18581e-05
4.98577e-05
5.27402e-05
9.68785e-06
1.29456e-05
1.8185e-05
5.47287e-05
1.99477e-05
7.67936e-06
8.7327e-06
3.66061e-06
8.02335e-06
1.18349e-05
1.3179e-05
1.43019e-05
1.16622e-05
2.81126e-06
1.56322e-05
1.59351e-05
5.6261e-05
6.83944e-06
9.59501e-06
1.50914e-05
1.12756e-05
2.22009e-05
1.01358e-05
5.84467e-07
2.17788e-05
2.51166e-05
6.53071e-06
5.8563e-05
4.00466e-05
1.30214e-05
2.95194e-05
4.13907e-05
0.000128227
5.8646e-06
1.0659e-05
5.66232e-05
4.4017e-05
3.47874e-05
2.59373e-05
8.00374e-05
6.11293e-06
4.89925e-06
8.82254e-06
8.00022e-05
6.86221e-05
1.35961e-05
5.15001e-05
3.18554e-05
1.22586e-05
1.11668e-05
7.09518e-06
1.41555e-05
1.7829e-05
1.64031e-06
1.6075e-05
4.34724e-05
2.89418e-05
3.14201e-05
0.000117608
0.000217692
0.000124022
7.87464e-05
1.33747e-05
1.40965e-05
2.60674e-05
2.14672e-05
8.27045e-06
7.92811e-05
9.27469e-05
0.000107366
1.79136e-05
9.35685e-06
0.000116507
1.54426e-05
8.74878e-06
3.87518e-05
7.78553e-05
2.10885e-05
1.05571e-05
7.1194e-05
5.13382e-05
1.37705e-05
8.36479e-06
6.43346e-05
5.5811e-05
2.13233e-05
7.25297e-05
2.51409e-05
2.15032e-06
1.13562e-05
1.87861e-05
1.99779e-05
1.31345e-06
1.37636e-05
1.92862e-05
1.0875e-05
1.0116e-05
9.18091e-05
0.000222813
0.000280921
0.000111389
4.43818e-05
2.18642e-05
2.88245e-05
3.02778e-05
9.36315e-06
3.57417e-05
0.000136218
0.000102009
0.000143206
7.79923e-05
1.98753e-05
1.50205e-05
1.67957e-05
1.53065e-05
1.16499e-05
8.73439e-05
2.09516e-05
2.37991e-05
2.84388e-05
7.99455e-05
4.38678e-05
3.95724e-06
2.16489e-05
3.62192e-05
1.76772e-05
6.23386e-05
2.62087e-06
1.41137e-05
1.50705e-05
7.7216e-06
1.71203e-05
1.01295e-06
3.72577e-06
1.38176e-05
1.77624e-05
0.000101357
8.42344e-05
8.71009e-05
0.000202776
0.000172667
6.61224e-05
2.18458e-05
2.79854e-05
2.01945e-05
1.18554e-05
0.00010633
9.4172e-05
8.31464e-06
3.24584e-05
0.000158562
7.50426e-06
1.18101e-05
1.78729e-05
1.60808e-05
4.81765e-06
3.2347e-05
2.71609e-06
6.07434e-05
8.22014e-06
3.461e-05
4.86145e-05
2.92676e-05
1.57198e-05
3.80439e-05
1.234e-05
1.9282e-06
1.04764e-05
4.35249e-06
1.30337e-05
6.84452e-06
1.84968e-06
3.00377e-05
2.52528e-05
3.20572e-05
0.00010898
0.000202315
5.11841e-05
2.57204e-05
2.88751e-05
9.7727e-05
9.14188e-05
0.000177194
7.45896e-05
3.67749e-05
2.95187e-05
2.58888e-05
1.56579e-05
7.14355e-06
1.61163e-05
7.62116e-05
1.78235e-05
8.64553e-06
3.10067e-05
2.18191e-05
3.35406e-05
1.21691e-05
1.50493e-05
7.40833e-05
0.000173773
0.000147769
4.11278e-05
5.75431e-05
2.39151e-05
1.65338e-05
2.69301e-05
2.01704e-05
1.39953e-05
4.95365e-05
0.000112831
5.17964e-05
2.76355e-06
1.30143e-05
7.89814e-06
6.61122e-05
0.000215106
0.000178438
0.000128746
8.66021e-06
1.48093e-05
4.56409e-05
7.10851e-05
0.000156668
0.000223104
1.86592e-05
9.51488e-06
1.23851e-05
1.25754e-05
1.90111e-05
7.02643e-06
1.98093e-05
1.73084e-05
4.91507e-05
2.3056e-05
1.82081e-05
7.31284e-05
1.65027e-05
6.13166e-05
2.97597e-05
9.41961e-05
0.000211548
0.000138378
8.47148e-05
4.26798e-05
1.40624e-05
3.73383e-05
7.36594e-06
1.26472e-06
0.00011452
0.000231872
0.000144143
3.30588e-05
9.93861e-05
9.68911e-06
4.75092e-06
8.91174e-05
3.92244e-06
0.000141199
0.000180859
1.78671e-05
4.041e-05
8.87684e-05
9.84386e-05
0.000205817
7.79701e-05
3.44517e-05
1.87559e-05
2.68618e-05
3.23368e-05
2.27358e-05
1.8747e-05
1.20468e-05
8.96036e-05
6.80006e-05
4.05942e-05
4.66501e-05
1.04644e-05
2.70056e-05
3.84957e-05
2.15832e-05
0.000132463
0.000192215
0.000172228
4.95253e-05
6.63783e-06
3.44749e-05
8.20683e-06
2.58956e-05
9.81417e-05
0.000144818
6.6697e-05
1.65229e-05
2.97932e-05
2.66571e-05
2.75582e-07
9.63595e-06
4.11272e-06
6.13807e-06
3.48393e-05
1.90783e-05
1.36169e-05
2.01259e-05
4.63525e-05
0.000140234
0.000202768
0.000119119
0.000140177
8.26294e-05
9.15363e-06
3.94629e-05
1.50272e-05
1.21874e-05
4.36099e-05
0.000127854
9.51981e-05
8.42875e-06
3.93718e-05
7.08751e-05
1.68101e-05
1.9559e-05
1.14832e-05
0.000107905
0.000104871
8.49537e-05
4.66025e-05
8.09273e-05
0.000132348
0.000194877
0.000140408
9.16302e-06
4.00629e-05
2.7031e-05
1.14048e-05
5.77092e-05
3.89829e-05
3.01001e-06
8.63065e-06
4.56299e-06
1.24575e-05
1.7474e-05
2.41257e-05
1.01317e-05
9.19152e-07
7.24315e-05
0.000220067
0.00021441
0.000129239
0.000129544
2.04215e-05
2.06135e-05
4.05205e-05
1.81408e-05
2.02031e-05
6.95547e-05
3.56446e-05
1.34611e-05
2.95401e-05
6.20894e-05
2.19548e-05
2.05684e-05
4.13375e-05
3.2907e-05
6.69256e-05
2.59407e-05
1.93959e-05
4.70301e-05
2.09954e-05
0.00018052
0.000220358
5.2533e-05
1.83753e-05
1.20124e-05
0.000101708
0.000186005
2.03097e-05
4.18183e-05
2.4333e-05
2.46843e-05
1.5304e-05
9.3037e-06
1.32242e-05
1.03961e-05
6.59826e-06
2.04721e-05
7.53573e-05
0.000143494
0.000135953
0.000118926
1.90822e-05
5.11372e-06
2.68341e-05
2.4258e-05
2.16119e-05
2.84856e-05
3.22045e-05
2.17915e-05
1.50742e-05
1.38469e-05
1.50144e-05
1.15929e-05
2.13128e-05
2.48853e-05
2.66543e-05
4.2076e-05
3.96e-05
2.54477e-05
3.77695e-05
5.21678e-05
8.03586e-05
9.95306e-05
2.11937e-05
1.47983e-05
1.62452e-05
1.37258e-05
1.29859e-05
1.7036e-05
1.39199e-05
2.22587e-05
2.19753e-05
1.83805e-05
2.0776e-05
2.46883e-05
1.02321e-05
7.40045e-05
9.46509e-05
7.64926e-05
6.1182e-05
2.44732e-05
1.07606e-05
7.09273e-06
1.11678e-05
1.88217e-05
2.11026e-05
1.77562e-05
1.07574e-05
2.63598e-05
3.03557e-05
2.13541e-05
1.38803e-05
7.48186e-06
9.49233e-06
1.43091e-05
1.93841e-05
2.34977e-05
2.07871e-05
2.31527e-05
1.63478e-05
4.36057e-05
6.45315e-05
6.11812e-05
4.18472e-05
3.1255e-05
6.49391e-06
1.03616e-05
4.63358e-05
6.4914e-05
3.02946e-05
3.09027e-05
1.57254e-05
1.92495e-05
4.73979e-05
8.3045e-05
6.94239e-05
2.0007e-05
3.77397e-05
4.77319e-05
0.000102383
0.000122283
4.57965e-05
1.87095e-05
4.73711e-06
4.72551e-06
8.81331e-06
8.46951e-06
2.16561e-05
2.37447e-05
2.325e-05
6.38245e-06
6.5893e-05
6.64508e-06
1.65935e-05
1.57e-05
4.58941e-05
3.44786e-05
1.40546e-05
9.65093e-06
1.4796e-05
2.06575e-05
1.38325e-05
8.3517e-06
4.31114e-05
3.39032e-05
3.69448e-06
1.01e-05
4.14523e-05
4.74001e-05
4.76694e-05
2.42399e-05
1.92518e-05
8.18715e-05
0.000180978
0.00016534
5.92657e-05
3.84135e-05
3.02763e-05
1.3955e-05
1.42517e-05
1.52447e-05
4.20415e-06
3.95048e-06
2.11166e-06
1.6427e-06
3.28025e-06
1.35237e-05
2.45022e-05
2.49486e-05
2.62561e-05
1.04899e-05
6.94419e-06
1.97828e-05
1.12536e-05
1.11249e-05
6.13401e-05
0.000108451
0.000171806
0.000116938
1.38039e-05
2.1539e-05
3.43071e-05
3.87593e-05
0.000135582
4.12189e-05
1.85579e-05
7.52589e-06
5.25473e-06
2.40027e-05
1.82565e-05
5.42125e-05
3.9672e-05
2.44734e-05
0.000101549
0.000111367
6.60782e-05
1.86782e-05
1.65701e-05
1.01906e-05
1.24975e-05
5.7486e-05
0.000126276
0.000106479
5.99716e-05
6.2337e-05
6.0191e-05
3.83351e-05
2.46597e-05
1.66382e-05
7.58746e-05
9.71577e-05
4.24411e-05
1.5158e-05
6.82601e-06
4.05474e-06
7.66083e-06
7.95081e-06