/*--------------------------------*- C++ -*----------------------------------*\
  =========                 |
  \\      /  F ield         | OpenFOAM: The Open Source CFD Toolbox
   \\    /   O peration     | Website:  https://openfoam.org
    \\  /    A nd           | Version:  10
     \\/     M anipulation  |
\*---------------------------------------------------------------------------*/
FoamFile
{
    format      ascii;
    class       volScalarField;
    location    "9";
    object      pMean;
}
// * * * * * * * * * * * * * * * * * * * * * * * * * * * * * * * * * * * * * //

dimensions      [0 2 -2 0 0 0 0];

internalField   nonuniform List<scalar> 
25600
(
0.00211269
0.0080313
0.0238063
-0.0136218
-0.0141267
0.0143423
-0.00356996
-0.0061054
0.029444
0.0208961
0.00375384
-0.0087345
-0.00331801
0.0130714
0.00604114
-0.00604748
-5.80899e-05
-0.00104886
0.0111668
0.0218013
0.0052556
0.00743761
0.00719577
-0.00293599
0.0226618
0.0174319
-0.0152487
-0.0154398
-0.000324993
0.00111654
0.00331769
-0.00127652
0.0113882
0.0231962
-0.0114964
0.0059422
0.0365264
-0.0186209
-0.0193764
0.0212341
0.00210958
0.00810547
0.0240487
-0.013411
-0.0140476
0.0143327
-0.00362931
-0.00610322
0.0295578
0.0210302
0.0038741
-0.00862305
-0.00332547
0.0130739
0.00608082
-0.00603474
0.000107493
-0.000864973
0.0112287
0.0218313
0.00522851
0.00746987
0.00730061
-0.00298117
0.0227193
0.0174833
-0.0153183
-0.0157264
-0.000613031
0.00102512
0.0032062
-0.00132932
0.0113805
0.0231797
-0.0118017
0.00594647
0.0369145
-0.0185699
-0.019535
0.0212841
0.00190115
0.00814372
0.0242737
-0.01312
-0.0139476
0.0142487
-0.00381532
-0.00617523
0.0296453
0.0211368
0.00417519
-0.00849131
-0.00336616
0.0131667
0.00584801
-0.0064863
0.000363119
-0.000510989
0.0112971
0.0218262
0.00525881
0.00767038
0.00757835
-0.00295488
0.0230337
0.0175793
-0.0156444
-0.0164031
-0.00111586
0.00102601
0.00299662
-0.00161741
0.0112125
0.0230147
-0.0120751
0.00618357
0.0372664
-0.0187298
-0.0197757
0.0213532
0.00147508
0.0080572
0.0243816
-0.0126981
-0.0138591
0.0139652
-0.00402495
-0.00622571
0.0296875
0.0211646
0.00442492
-0.00854699
-0.00349814
0.0132048
0.00580931
-0.00707915
0.000155203
-0.000133503
0.0112547
0.0219029
0.00542289
0.00808444
0.00798878
-0.00312674
0.0232253
0.0177344
-0.0158838
-0.0176766
-0.00238424
0.00109449
0.00330903
-0.0020507
0.0108454
0.0226285
-0.0124316
0.00632876
0.0381065
-0.0177377
-0.0203458
0.0214859
0.000934761
0.00765432
0.02442
-0.0121815
-0.0136222
0.0129897
-0.00441876
-0.00603158
0.030027
0.0214572
0.00517696
-0.00808232
-0.00391615
0.0129833
0.00552996
-0.007144
-2.7261e-05
4.16201e-06
0.0113498
0.0216415
0.00533923
0.00855362
0.00831668
-0.00375411
0.0226275
0.0177192
-0.0160951
-0.0191042
-0.00384895
0.00102997
0.00412125
-0.00204132
0.01012
0.0219473
-0.0123613
0.00557053
0.0368175
-0.0183725
-0.0198488
0.0225524
0.00122382
0.00750989
0.0238531
-0.011999
-0.0132419
0.0121553
-0.00459341
-0.00609792
0.0300325
0.021657
0.00635456
-0.00627298
-0.00353475
0.0128928
0.00508913
-0.00714819
7.97219e-05
-5.56422e-05
0.0112842
0.0204459
0.00502971
0.00909564
0.00889392
-0.00380908
0.0211328
0.0173828
-0.0160221
-0.0203233
-0.00539824
0.00123221
0.00478766
-0.00190552
0.00949659
0.020736
-0.0129775
0.00381667
0.035628
-0.0199353
-0.0199134
0.0228704
-0.000652995
0.00786697
0.023081
-0.0120678
-0.0121112
0.0117603
-0.00393319
-0.0053189
0.0287634
0.0205251
0.00674853
-0.00418087
-0.00162457
0.0131662
0.00465141
-0.00722447
0.000451194
-0.000494788
0.0112686
0.0192827
0.00439964
0.0100888
0.00957067
-0.00353211
0.0185622
0.015992
-0.0154127
-0.0208718
-0.00748575
0.00107803
0.00550777
-0.00190152
0.00895606
0.0196487
-0.0128472
0.00216249
0.0335679
-0.0179844
-0.0176664
0.0216616
-0.00395513
0.00814079
0.0215813
-0.0129918
-0.0100234
0.0125034
-0.00278957
-0.00303215
0.0288021
0.0193303
0.00640628
-0.0030584
-0.000613139
0.0128785
0.00401707
-0.00745516
0.0011388
-0.00173028
0.0109346
0.0187764
0.00450508
0.0111669
0.0103708
-0.00311776
0.0150022
0.0123261
-0.0149942
-0.0208981
-0.00983685
-0.000121753
0.00600013
-0.0014087
0.00820654
0.017567
-0.0123495
0.00447097
0.0324511
-0.0168348
-0.0171763
0.0192812
-0.00737548
0.00802238
0.0202714
-0.0153045
-0.00952477
0.013028
-0.00140219
0.000603393
0.0311783
0.019253
0.00650737
-0.00235324
-0.000723599
0.0130929
0.00488138
-0.00790813
0.00151464
-0.00339639
0.0106026
0.0180401
0.00488324
0.012247
0.0107998
-0.00219653
0.0131166
0.00741745
-0.0158637
-0.0211642
-0.0113296
-0.00148094
0.00580064
-0.000954694
0.00728119
0.0152199
-0.0147068
0.00445446
0.0296183
-0.019403
-0.0152811
0.0184849
-0.00826756
0.0076894
0.0200146
-0.0174338
-0.0098866
0.0123877
-0.000394527
0.00332014
0.0336573
0.0189276
0.00593372
-0.000572509
0.00088359
0.0163122
0.0072948
-0.00927348
-0.000386274
-0.00557281
0.0104425
0.0167055
0.00360495
0.013478
0.0114504
-0.00200561
0.0130688
0.00409393
-0.017348
-0.0217859
-0.0112966
-0.00143608
0.00526624
-0.000642633
0.00663791
0.0120016
-0.0157646
0.00300625
0.0247357
-0.0249474
-0.0128809
0.0200804
-0.00814488
0.00630607
0.0209421
-0.0158999
-0.00896667
0.0114664
0.000625489
0.00545313
0.0348793
0.0172516
0.0035374
0.00166542
0.00264866
0.0190543
0.0098221
-0.0106898
-0.00538694
-0.0085106
0.00850485
0.0144388
0.00115684
0.0143655
0.0132671
-0.00178995
0.0129661
0.00315242
-0.017305
-0.0217218
-0.0108297
0.000313106
0.00496991
-0.000816361
0.00622999
0.00927174
-0.0146216
0.0014304
0.0257089
-0.0217011
-0.00831254
0.021266
-0.00829945
0.00527219
0.0205557
-0.0140237
-0.00811679
0.0106184
0.000481373
0.00723534
0.0348604
0.0155899
0.000972773
0.00338951
0.00440797
0.0194564
0.0115481
-0.0103182
-0.00934507
-0.0102478
0.0064276
0.0137825
-0.00182514
0.0114676
0.0137238
-0.00131207
0.0127359
0.00428103
-0.0164827
-0.020878
-0.0100209
0.00315781
0.00509974
-0.00109464
0.00542269
0.00700046
-0.013063
-0.000264321
0.0237435
-0.0185154
-0.00328414
0.0213978
-0.00897263
0.00487896
0.0176252
-0.0133746
-0.00624313
0.0112002
-0.000755111
0.00799674
0.0346216
0.0147074
-0.00071122
0.00353194
0.00430502
0.019233
0.0151653
-0.00612557
-0.00988505
-0.0110861
0.00462959
0.013456
-0.00503574
0.0069217
0.0137411
-7.73896e-05
0.0124455
0.00663079
-0.0155902
-0.0203448
-0.00877323
0.00614556
0.00520314
-0.00186929
0.00458591
0.00607489
-0.0113258
-0.00112482
0.0191952
-0.0184342
-0.00338352
0.0183417
-0.00897475
0.00444494
0.0137765
-0.0127259
-0.00377506
0.0126276
-0.000725934
0.00832273
0.0348766
0.0158515
-0.00196324
0.0029152
0.00450215
0.0199347
0.0179459
-0.00083133
-0.00666955
-0.010054
0.00370308
0.0133367
-0.0076887
0.00135864
0.0130104
0.00237681
0.0120789
0.00772227
-0.0143494
-0.019767
-0.00761283
0.0084889
0.00508815
-0.00339972
0.00261012
0.00523619
-0.00899968
-0.000692603
0.0139849
-0.0184928
-0.00451582
0.0142836
-0.00857863
0.00420524
0.0102366
-0.0131389
-0.0017867
0.0149352
-0.000658344
0.00648716
0.0328142
0.0169932
-0.0018886
0.00241055
0.00426535
0.0206423
0.0205273
0.00330097
-0.00310288
-0.00716739
0.0037483
0.013745
-0.00819973
-0.00316504
0.0109226
0.00485204
0.0118068
0.00880254
-0.0108102
-0.0178331
-0.00629127
0.0100173
0.00589599
-0.0041787
0.000991184
0.00563988
-0.00637463
0.000766101
0.0114785
-0.0175058
-0.00543193
0.0105413
-0.00648794
0.00535442
0.00611906
-0.0154181
0.000723529
0.018829
-0.00181815
0.00222847
0.0300383
0.0135851
-0.006206
0.00212646
0.00770992
0.0210531
0.0197653
0.00302921
-0.00140871
-0.00406668
0.00317483
0.0129787
-0.00691668
-0.00472866
0.00891684
0.00649268
0.011181
0.0100735
-0.00581816
-0.0134596
-0.00332327
0.0101165
0.00647613
-0.00451248
-0.000363568
0.00555373
-0.00303544
0.00408152
0.0119898
-0.0143004
-0.00519466
0.00833791
-0.00512357
0.00495214
0.000746607
-0.0212791
-0.00201981
0.0209127
-0.00056276
-0.00212221
0.0264627
0.010561
-0.00989072
0.0028463
0.010014
0.0190661
0.0181242
0.0015746
-0.00265642
-0.00254162
0.00423911
0.0118049
-0.00614772
-0.00575144
0.0067177
0.00855626
0.0128968
0.0100955
-0.00439363
-0.0103311
0.000391866
0.00912992
0.0058693
-0.0044887
-0.001
0.00489704
-0.000534501
0.00710447
0.0113857
-0.01152
-0.00444527
0.00629816
-0.00759134
0.00141476
-0.00384729
-0.0259852
-0.00735549
0.0194359
0.00187072
-0.00460592
0.0223221
0.0105429
-0.01244
-0.000507074
0.00594592
0.0127413
0.0145126
0.0012475
-0.00177904
-0.00153202
0.00436387
0.0124719
-0.00279071
-0.00631349
0.00311493
0.00758845
0.0136389
0.00997445
-0.00220995
-0.00743278
0.00227386
0.0104541
0.00901675
-0.00288975
-2.94281e-05
0.00618792
0.000335921
0.00655842
0.00873069
-0.00827084
-0.00340316
0.00290211
-0.00957532
-4.589e-05
-0.00693217
-0.0310737
-0.0152632
0.0152651
0.00472665
-0.00607103
0.0168387
0.0103887
-0.0130021
-0.00279894
0.00365214
0.00733518
0.0112751
0.00149324
-0.00108759
0.000817933
0.00421645
0.0115827
0.00316688
-0.00151394
0.00182263
0.001656
0.00843459
0.00888594
0.000114058
-0.00247134
0.00478333
0.0111612
0.0116108
-0.00092613
-0.000739242
0.00453856
-0.000566944
0.00537325
0.00519231
-0.00466389
0.000221555
0.00102166
-0.0110764
-0.00337083
-0.0109636
-0.0354503
-0.0215932
0.011604
0.00816846
-0.00644994
0.00965824
0.00719566
-0.0135431
-0.00265095
0.00653505
0.00594953
0.00787717
0.00105793
0.00032058
0.00442134
0.00365672
0.0063818
0.00372251
0.00240239
0.00464543
9.73446e-05
0.000859793
0.00387209
-0.0032211
-0.00346249
0.00530084
0.00799382
0.00806957
-0.00232429
-0.00254283
0.00255176
-0.000684613
0.00589521
0.00269989
-0.00573524
0.00235144
0.00126449
-0.00958494
-0.0021688
-0.00983001
-0.037355
-0.0282879
0.00726443
0.0123562
-0.00382678
0.00490976
0.00650535
-0.01095
-0.00290916
0.00829805
0.0073371
0.00729973
-0.000467867
-0.000106982
0.00875104
0.00325394
-0.00129782
0.00116047
0.00261557
0.00546925
0.00205029
-0.0028784
0.00217063
0.00113901
-0.00315951
0.00355873
0.00635172
0.00610256
-0.00212447
-0.00136587
0.00267308
-0.00140953
0.00968767
0.0103609
-0.00113013
0.00604465
0.00378723
-0.0093972
-0.00552393
-0.00673785
-0.0315586
-0.0277074
0.00400447
0.0134099
0.000495003
0.00550332
0.0100961
-0.00536247
-0.00363239
0.00658723
0.00349413
0.00334803
-0.00251864
-0.00523947
0.00689443
0.00378463
-0.00806637
-0.00460075
0.000651822
0.00360429
0.00124078
-0.0034252
0.00135533
0.00626293
0.00243075
0.00595633
0.00938513
0.00811385
0.00078737
0.00260845
0.0043103
-0.00323954
0.011066
0.0145176
0.00195291
0.0101652
0.00891616
-0.00659051
-0.00391539
-0.00113839
-0.0249751
-0.0252769
0.00176343
0.0124804
0.00224001
0.0034962
0.0102858
-0.000532771
-0.00428234
0.00420966
0.00383299
0.00502227
0.000510515
-0.0056856
0.00697889
0.00989307
-0.00373673
-0.00396693
-0.00214092
0.000537337
0.00236014
-0.000633382
0.0036879
0.00753853
0.00259022
0.0028393
0.00729164
0.00826744
0.00217334
0.00254308
0.0021412
-0.00573565
0.00834159
0.0113344
0.00112802
0.0125468
0.0132403
-0.00459844
-0.00359022
0.00216749
-0.0201839
-0.0250196
-0.00259674
0.00940556
0.00601922
0.00507043
0.00818763
-0.000321244
-0.005971
0.00239862
0.00500024
0.00659108
0.00305906
-0.00509479
0.00879132
0.0145393
-0.00157728
-0.00409409
-0.00129481
0.00351538
0.00738754
0.00237171
0.00462193
0.0093476
0.00157404
-0.000767166
0.00657822
0.0103991
0.00486514
0.00473412
0.00397305
-0.00682262
0.00403632
0.00982497
0.00458445
0.0179243
0.0180068
-0.00919302
-0.0107376
0.000824741
-0.0126102
-0.0150288
0.00304058
0.00855181
0.00603584
0.00506062
0.00986545
0.00813164
0.000728523
0.00337716
0.0060833
0.00864298
0.00739324
-0.0015608
0.0109833
0.0198419
0.00284178
-0.00334126
-0.00268498
-0.00116092
0.00381402
0.00120837
0.00189819
0.00892238
0.00358412
-0.00062956
0.00543128
0.0083843
0.00417494
0.00724645
0.0093845
-0.0029053
0.00606861
0.0146069
0.0063248
0.0132211
0.0130709
-0.00503549
-0.0064699
0.00595727
-0.00577365
-0.0107282
0.00350389
0.00649666
0.00690568
0.00314867
0.00169727
0.00141062
-0.00296646
0.000611453
0.00318711
0.00495172
0.00562351
-0.0011688
0.00928538
0.0180096
0.00310206
-0.00185176
-0.000657012
0.000290727
0.00611301
0.00504131
0.00256552
0.00574004
-0.00191637
-0.00889369
-0.000225048
0.00720565
0.00392023
0.00689156
0.0126331
0.00145664
0.00482704
0.0143477
0.00493147
0.0070902
0.0103094
-0.00712829
-0.00848958
0.00438218
-0.00404547
-0.00876113
0.00354321
0.00403669
0.00806896
0.00776414
0.00458716
0.00613294
0.00330361
0.00276857
0.000124901
-0.00049971
-8.68366e-05
-0.0063197
0.00169654
0.0116115
0.00323945
0.000578859
-0.000657826
-0.00144443
0.00423879
0.00436035
0.00298687
0.00958674
0.00705766
-0.00120482
0.00153345
0.0042923
-0.00117441
-0.00187537
0.00573739
0.00134226
0.00376467
0.0143127
0.00423479
0.000939734
0.00433864
0.00731862
0.000581222
0.00782024
-0.000446677
-0.00568135
0.00161317
-0.00136175
0.0038675
0.00765513
0.00325169
0.00358203
0.00434767
0.00737408
0.00593173
0.00683394
0.00744256
0.000533347
0.00617263
0.012078
0.00523362
0.00591079
0.0043154
0.000690043
0.00535231
0.00258515
-0.00203993
0.00266905
-0.00155593
-0.00987621
-0.00732086
-0.0044706
-0.00497894
-0.00505237
0.00390081
0.00425956
-0.000495368
0.0104722
0.00789863
0.00118511
0.0109768
0.00624952
0.00115193
0.00694111
0.00104288
-0.00371096
0.000216347
-0.00546318
-0.0010151
0.00527492
0.00258216
0.00314893
0.00348502
0.00429781
0.00184796
0.00562131
0.00720561
-0.00224272
0.00126529
0.00794334
0.0046701
0.00804409
0.00593662
-0.00163186
0.00509379
0.00506429
0.000226431
0.00997055
0.0087734
-0.000676351
-0.00104738
-0.00304057
-0.000520233
-0.000726615
0.00369434
0.00738217
-0.00249479
0.00535817
0.00855997
-0.000985731
0.00622973
0.00503515
0.00515666
0.00856236
0.00769757
0.00530195
0.00805698
0.00580904
0.00918477
0.0114439
0.00214634
-0.00262988
-0.00304157
-0.0013734
-0.0033597
0.000390799
0.0062445
-0.00144029
-0.00242826
0.00220557
0.000950559
0.00634549
0.0073887
-0.00173206
0.00341798
0.00652952
-0.00325352
0.00388278
0.00759834
0.000539117
0.00255008
-0.00114706
-0.000464996
-0.0024415
-0.000417419
0.0108873
0.00145247
0.000908466
0.00452336
-0.00114121
0.00278038
0.00264029
0.00274563
0.00146203
0.00657402
0.00387354
-0.0017614
-0.00352137
-0.00106538
0.00810356
0.00759914
0.00380021
0.00131684
-0.00149916
-0.00181331
-0.00183627
0.00407543
0.00358736
0.000607968
0.00217006
-0.000784148
-0.000740497
0.00261418
-0.00128867
0.00132745
0.00875705
0.00167691
0.00304606
0.00913969
0.00126535
-0.00046479
0.00165756
0.00653894
0.0042323
0.00136317
0.0119861
0.006633
0.00225109
0.00575214
-5.06398e-05
-0.00217543
0.00627346
0.00535163
-0.00159258
0.0090835
0.00490135
-0.00472784
-0.000507742
-0.00162865
0.00379196
0.00393004
0.00391915
0.00717047
0.00168054
0.00517264
0.00326225
0.00212731
0.0057713
0.000824484
0.00444275
0.00776952
0.00459557
0.00707918
0.00610081
0.00121957
0.00487138
0.00288828
-0.00203148
0.00618451
0.00444669
-0.00153311
0.00672109
0.0110243
0.00500994
0.00439065
0.0109017
0.00748005
0.00104572
0.00337919
0.00334807
-0.000331986
0.0121163
0.0238328
-0.00184415
-0.0446897
-0.0142607
0.0236212
0.00920348
0.00995844
0.0267903
0.0112394
-0.0213073
-0.0340561
0.00570583
0.032857
0.0115248
-0.00130825
0.00271444
-0.0197923
0.00512093
0.018902
0.00604557
0.00420131
-0.0113593
-0.0146223
0.00975558
0.0142742
0.00453619
0.0223578
0.0343602
0.0217891
0.0154089
0.00615234
0.00917991
0.0216549
0.0288672
0.0146904
-0.0238258
-0.0340292
-0.00270682
0.0134024
0.0121428
0.0240052
-0.00210316
-0.0451335
-0.0142148
0.0236175
0.00913289
0.010097
0.02692
0.0111172
-0.0215775
-0.0343758
0.00569805
0.0328904
0.0113152
-0.00126243
0.00276841
-0.0199615
0.00508691
0.0188701
0.00602897
0.00431623
-0.0114076
-0.014777
0.00952089
0.0140342
0.00455006
0.022573
0.0346126
0.0220341
0.0156312
0.0061741
0.00913818
0.0216435
0.0290594
0.0149659
-0.0237638
-0.0341863
-0.00274298
0.0131924
0.0122941
0.0242258
-0.00281556
-0.0460624
-0.0139791
0.0238032
0.00895792
0.0101192
0.0271715
0.0109393
-0.0220754
-0.0348286
0.00573628
0.0332258
0.0109319
-0.00184871
0.00275648
-0.0200859
0.0051098
0.0188457
0.00602819
0.00433207
-0.0117374
-0.0149429
0.00968972
0.0139835
0.00469558
0.0228661
0.0343051
0.0217136
0.0157298
0.00622655
0.00918156
0.0215562
0.0292891
0.015493
-0.0238084
-0.0344181
-0.00263971
0.0129609
0.0123315
0.0244098
-0.00343996
-0.0471243
-0.0134737
0.0240174
0.00891631
0.0102669
0.027369
0.0107235
-0.0229596
-0.0355858
0.00570742
0.0334654
0.0108569
-0.00277715
0.00223487
-0.0203167
0.00516969
0.0187795
0.00577546
0.00412329
-0.0119902
-0.0151684
0.0098187
0.0140984
0.00489897
0.0233638
0.0339121
0.0204429
0.0149995
0.00564686
0.00891203
0.021637
0.0293848
0.01575
-0.0242603
-0.0352123
-0.00280177
0.0122563
0.0119611
0.0246016
-0.00370188
-0.0482314
-0.0124195
0.0245279
0.00879218
0.0109205
0.0276094
0.0101744
-0.0235688
-0.0368901
0.00452388
0.033139
0.0105452
-0.00289454
0.00149619
-0.0205581
0.0051249
0.0185329
0.00470255
0.00317636
-0.0114766
-0.0141017
0.00967906
0.0136799
0.00448558
0.0238224
0.0344973
0.0196326
0.0142099
0.0045638
0.00825586
0.0211441
0.0292143
0.0160177
-0.0258922
-0.0375606
-0.00304031
0.0112685
0.0116354
0.0241637
-0.00412275
-0.0492889
-0.0117471
0.0251212
0.00843999
0.0116185
0.0285177
0.00926417
-0.0241597
-0.0372817
0.00262639
0.0321585
0.00969039
-0.00251662
0.000811816
-0.0208996
0.00484373
0.0186053
0.00286767
0.00126752
-0.0102247
-0.0107759
0.00971656
0.0126363
0.00380172
0.023576
0.0350727
0.0198365
0.0141046
0.00414086
0.00764371
0.0210446
0.0282956
0.0159659
-0.0267473
-0.0391693
-0.00315616
0.0120938
0.0108371
0.0227154
-0.00464061
-0.0494137
-0.0122095
0.0251665
0.00718957
0.010897
0.0293219
0.00884824
-0.0248461
-0.0366121
0.0021749
0.0314889
0.00847072
-0.00262117
0.000593661
-0.0208769
0.00441394
0.0191886
0.000688053
-0.00141106
-0.00989595
-0.00730601
0.0106638
0.0119515
0.00379438
0.0226515
0.0345071
0.0197762
0.0139617
0.00407425
0.00740706
0.0205102
0.0269441
0.0174849
-0.0259584
-0.0382009
-0.00341797
0.0134403
0.00985188
0.0204586
-0.00407586
-0.0471419
-0.0122702
0.0251651
0.00578053
0.00877305
0.0288322
0.00838809
-0.0268163
-0.0380464
0.00210665
0.0306612
0.00602486
-0.00328158
0.000782068
-0.0204496
0.00417856
0.0204716
-0.000982056
-0.00427681
-0.0105561
-0.00413306
0.012205
0.0110945
0.00283147
0.0206145
0.0331946
0.0192969
0.0143534
0.003481
0.00555071
0.0207507
0.0265168
0.0177522
-0.0267092
-0.0370662
-0.00290223
0.0138367
0.00847541
0.018298
-0.00217625
-0.0427708
-0.011353
0.026188
0.00588179
0.00619351
0.0276899
0.00754147
-0.0281558
-0.0405458
-4.42815e-06
0.0294124
0.0026554
-0.00471057
0.00126782
-0.0200296
0.00378349
0.0219579
-0.00151166
-0.00606864
-0.010559
-0.000814611
0.0143391
0.00992186
-0.000254132
0.0161136
0.0308932
0.0184656
0.0141322
0.00344151
0.00352638
0.0201253
0.0227091
0.0145337
-0.0337266
-0.0409735
-0.00101986
0.0138898
0.00820439
0.0172132
-0.000441561
-0.0381809
-0.0106963
0.0268778
0.00755364
0.00398354
0.0258065
0.00607119
-0.0274765
-0.0391379
-0.00118516
0.0296282
0.00202957
-0.00612542
0.00171469
-0.0200546
0.00300951
0.0231117
-0.00130641
-0.00691573
-0.00959469
0.00169265
0.015157
0.00840963
-0.00330613
0.00921057
0.0267286
0.017083
0.0129751
0.00310292
0.00245466
0.0191709
0.0188949
0.0107737
-0.0413834
-0.0435337
0.00307799
0.0164383
0.00772578
0.0167048
0.000849909
-0.0344508
-0.0100391
0.0263465
0.00929354
0.003542
0.0236087
0.00432786
-0.0278693
-0.0350191
-0.000147619
0.0297023
0.00247735
-0.00710946
0.00295932
-0.0187635
0.00261537
0.0229174
-0.00326543
-0.00892708
-0.00922299
0.00241922
0.01459
0.00621556
-0.00576483
0.00267051
0.0207611
0.0150365
0.0115128
0.00244306
0.00398895
0.0195022
0.0180542
0.0118612
-0.0347736
-0.037877
0.00490213
0.0163958
0.00587692
0.0155545
0.000620283
-0.0320206
-0.00988264
0.0256196
0.00995327
0.00422241
0.0232024
0.00441654
-0.0287368
-0.0312431
0.00144759
0.0292514
0.00157669
-0.00904757
0.00472478
-0.0153915
0.00198117
0.0224457
-0.00494394
-0.0118247
-0.00949395
0.00181598
0.0140515
0.00413012
-0.0073083
-0.00026409
0.0143483
0.0129996
0.0103297
0.00143992
0.00540862
0.0207425
0.021593
0.00887702
-0.0324851
-0.0326421
0.00720687
0.0150612
0.00363224
0.0132544
-0.000217027
-0.0292759
-0.0100047
0.0239595
0.0106893
0.00427509
0.0223126
0.0051083
-0.0265581
-0.0257553
0.00123132
0.0282218
0.00244013
-0.0100526
0.00507435
-0.0133565
2.82061e-05
0.0214928
-0.00423232
-0.0128207
-0.00938147
0.000833649
0.0134466
0.00368981
-0.00662631
0.00120333
0.0103911
0.011296
0.00899461
-0.000204522
0.00535086
0.0214136
0.0197231
0.00244634
-0.0298132
-0.0282031
0.0076056
0.013824
0.000932216
0.00999255
-0.000156825
-0.026122
-0.00906629
0.0210693
0.0100575
0.00576045
0.0207926
0.00259722
-0.0236912
-0.0177211
0.00065827
0.024978
0.00362011
-0.00982558
0.00530767
-0.0108703
-0.00081227
0.0197559
-0.00310318
-0.0123659
-0.00915132
-0.00126874
0.01093
0.00377905
-0.00458326
0.00458281
0.00938485
0.00993917
0.00761309
-0.00155004
0.00370944
0.0209045
0.0176931
-0.000233745
-0.0263433
-0.0240443
0.0081159
0.0122255
-0.000153933
0.0084042
0.000302197
-0.0243427
-0.00752456
0.0200775
0.00961748
0.00703787
0.0199127
-0.00142008
-0.0219696
-0.0111616
-0.00133036
0.0181379
0.00359298
-0.0087352
0.00574164
-0.00788732
-0.000305623
0.0180577
-0.00165525
-0.0101541
-0.00841886
-0.00416549
0.00629286
0.00219281
-0.00433711
0.00724154
0.0103647
0.00945877
0.00743348
-0.00250225
0.0023594
0.0205034
0.0184611
0.000675694
-0.0205471
-0.0194216
0.00927842
0.0119847
-0.00148295
0.00772869
0.00144946
-0.0205882
-0.00543044
0.0182739
0.0082892
0.00334812
0.0159545
-0.004292
-0.020476
-0.00714381
-0.0018549
0.0128425
0.00309943
-0.00951646
0.00429831
-0.0050029
-0.000391652
0.0159513
0.000618807
-0.00452358
-0.00563797
-0.00668244
0.00148415
0.000713866
-0.0053761
0.0080984
0.0134278
0.0103599
0.00779265
-0.00359309
0.000876101
0.01931
0.0201359
0.00439608
-0.014274
-0.0157338
0.0103749
0.0119181
-0.0039148
0.00575838
-0.0016393
-0.0224391
-0.0078971
0.0156772
0.0069123
9.31918e-05
0.0138912
-0.00212817
-0.0169913
-0.00332247
-0.000778324
0.0105834
0.00596016
-0.00710435
0.00362788
-0.00124699
0.000991523
0.0130754
-0.000784061
0.000367837
0.000507553
-0.00640698
-0.00323197
-0.000888216
-0.00458458
0.00624724
0.0139154
0.0105767
0.00611813
-0.00476586
-0.000315706
0.0163673
0.0189413
0.00921075
-0.00679804
-0.0126112
0.0098419
0.00967058
-0.00557874
0.00168358
-0.00679581
-0.0260139
-0.0115966
0.0126251
0.00633412
-0.00116922
0.0146241
0.0041998
-0.0136543
-0.000333579
0.00106127
0.00832071
0.00927444
-0.00298231
0.00345033
0.00245371
0.00301281
0.0109458
-0.00255911
-0.00021043
0.000674448
-0.00667829
-0.00580452
-0.00272511
-0.00317954
0.00488914
0.0130065
0.0113964
0.00538777
-0.00597217
-0.00177112
0.0153103
0.0163111
0.00985271
-0.00285062
-0.010384
0.00966373
0.00929549
-0.00128821
0.00441493
-0.00419542
-0.02312
-0.0128823
0.00882716
0.00551503
-0.00448
0.0116047
0.00951192
-0.0108991
-0.000831203
0.00258832
0.00727762
0.0121115
-0.000342197
0.00153575
0.00489533
0.00326823
0.00716247
-0.000286424
0.00255538
0.00366057
-0.00762115
-0.0106905
-0.00494092
-0.00362699
0.00170928
0.0100784
0.0121309
0.0102953
-0.00287859
-0.00326332
0.0114897
0.0134772
0.0118007
0.00102846
-0.00772503
0.00970223
0.0121555
0.00343817
0.00866648
0.000947691
-0.0179367
-0.0111181
0.00918008
0.00712215
-0.00691873
0.00773552
0.0122432
-0.00761812
-0.000736636
0.00343974
0.00340927
0.0101941
0.000739744
-0.00137088
0.00346042
0.00256621
0.00322915
-0.000778749
0.00159592
0.00940412
0.000197316
-0.0119587
-0.0082533
-0.00463662
9.27964e-05
0.00765909
0.00847986
0.00938078
-0.000669025
-0.000448902
0.00967503
0.00929311
0.0108801
0.00308729
-0.00389256
0.0110788
0.0139592
0.00795826
0.0146277
0.00615025
-0.0160479
-0.0134443
0.00676169
0.00771248
-0.00889132
0.000462919
0.0113101
-0.00204774
0.00076551
0.00466588
0.00351144
0.0101176
0.00184978
-0.00393917
0.00172375
0.00167115
0.00189969
0.00307153
0.00164752
0.00534664
0.00227336
-0.00817482
-0.0042791
-0.000404293
-0.00216398
0.00225928
0.00177052
0.00355477
-0.000840025
0.000234114
0.00622942
0.0049225
0.0112169
0.00408054
-0.00392303
0.012073
0.01522
-0.00083091
0.004685
0.00264663
-0.0163618
-0.0167644
0.00179396
0.00842375
-0.003052
0.00121784
0.00955724
-0.000607412
-0.00156959
0.00173804
-9.93306e-06
0.00737745
0.00176347
-0.00796685
-0.00118017
0.00180877
-0.000527868
0.00308344
0.00162585
0.00244973
0.00141575
-0.00643282
-0.00138401
0.00667438
0.00274244
0.00176041
0.00272128
0.00402967
0.000543038
0.00269248
0.00841402
0.00550277
0.0123122
0.00313255
-0.0110053
0.0052975
0.0106304
-0.00453927
0.000517958
0.00413555
-0.0100828
-0.00938363
0.00664855
0.0135504
0.0040691
0.004418
0.0114356
0.00460541
0.00171395
0.00365242
0.00174388
0.00912451
0.00600948
-0.00856993
-0.00438002
0.000759609
-0.00161159
0.00322446
0.000405203
-0.000186683
0.00259992
-0.0023676
0.000484335
0.00810707
0.00438341
0.000169353
0.00187857
0.00486389
0.00299531
0.00505442
0.00853034
0.00405092
0.01483
0.0132042
-0.00188737
0.00665613
0.00848043
0.000384099
0.00429304
0.00578307
-0.0128042
-0.0154002
0.000508285
0.0110201
0.00885228
0.00614024
0.00877311
0.00384501
-0.00124492
-0.000967023
-0.00337954
0.00268829
0.00227981
-0.010511
-0.00174493
0.00413539
-0.00354289
0.00168991
0.00193842
0.00102636
0.00360563
-0.00248394
0.000121574
0.00741407
0.00156934
-0.00454616
-0.0029253
0.00145216
-0.000138613
0.00209696
0.00569591
-0.000383639
0.00961795
0.0118621
0.00267997
0.0138667
0.0139965
-0.00546657
-0.00181431
0.0054755
-0.00702671
-0.0062946
0.00948172
0.0143213
0.0122867
0.00873089
0.009491
0.0086793
0.00518253
0.00493133
0.000393547
0.00438038
0.00440622
-0.0101572
-0.0034607
0.00485042
-0.00498803
-0.000927891
0.0013241
-0.00242967
0.000146339
-0.003471
0.00066722
0.010631
0.00546918
-0.0025825
-0.00139941
0.00180022
0.000830408
0.0058806
0.0105078
0.00138553
0.00779015
0.0118662
0.00395764
0.012769
0.0106
-0.0060907
-0.00335565
0.00538337
-0.00826934
-0.0114768
0.00342205
0.00827801
0.0118956
0.00996105
0.00650654
0.0053372
0.00149548
0.000618991
-0.00297877
-0.000571031
-0.00052777
-0.0119395
-0.00401921
0.00732183
-0.00174851
0.000836437
0.00375362
0.00100322
0.00541627
0.00260058
0.00110355
0.00587335
-0.00130452
-0.010119
-0.00422894
0.00548279
0.00531104
0.00573569
0.00958342
-0.00112009
0.000666603
0.00799045
0.000162344
0.00535088
0.00735566
-0.00308127
-0.00313453
0.00609615
-0.00408373
-0.00853325
0.00239593
0.00338867
0.00887881
0.00924602
0.00417297
0.00555296
0.0059728
0.00358227
-0.00378316
-0.00303257
0.000225931
-0.0100299
-0.00426987
0.00830907
0.000340143
0.00125848
0.00438424
0.00183262
0.00687582
0.00605938
0.00404352
0.0107354
0.00839947
-0.00131991
-0.00281695
0.000672115
-0.00105816
-0.00147859
0.00579894
-0.000137505
-0.000703804
0.00909333
0.00184819
0.00301045
0.00796766
0.00441057
0.00112479
0.00756036
-0.000409612
-0.00374604
0.00402244
0.00127133
0.00561365
0.00907359
0.00464481
0.00395517
0.0025888
0.00203256
-0.00141298
0.00105032
0.00512226
-0.00264389
-0.000420952
0.00650044
0.000474499
0.00235832
0.0039226
0.000955815
0.00699673
0.00623802
0.00155622
0.00365016
-0.00218808
-0.00936188
-0.00587355
0.00127732
0.00518165
0.00402163
0.0087402
0.00314745
-0.00524851
0.00663886
0.00540489
0.00274536
0.0110325
0.00264802
-0.00195977
0.00149271
-0.00387638
-0.00614829
0.000887039
-0.00047357
0.00384861
0.00638051
0.000718815
0.00306927
0.00673254
0.00838002
0.00310777
0.00179393
0.00317881
-0.00353804
-0.00117048
0.00557361
0.00176704
0.00472387
0.00519686
-0.00116777
0.00406642
0.00435016
0.000513926
0.00760748
0.00408521
-0.0041358
-0.00410029
-0.00471403
0.000799722
0.000958066
0.0052504
0.00817305
-0.00185453
0.00715404
0.0073039
-0.00322083
0.00333995
0.00513259
0.00325937
0.00394684
0.00439113
0.00388957
0.0062097
0.0051873
0.00834418
0.00978789
0.00028055
-0.00279804
-0.00115354
0.00114953
-0.000353714
0.000154115
0.00454226
-0.000358062
-0.00222485
0.000574363
-0.000560007
0.00421464
0.00614467
-0.000870638
0.00387697
0.0075724
-0.000317362
0.00443364
0.00502763
-0.00239012
0.000783293
0.00181586
0.00687797
0.0039334
0.00241031
0.0109072
0.0013357
0.00289791
0.00815362
0.000674263
0.00293854
0.00456049
0.00412198
-0.000489822
0.00288614
-7.27852e-05
-0.00452387
-0.00231996
0.00257163
0.0102639
0.00787058
0.00484407
0.0038869
0.00226336
0.00336217
0.00106321
0.00424597
0.00427708
0.00129922
0.00266938
0.000875078
0.00102507
0.00419776
0.000839683
0.00195313
0.0079793
0.00227296
0.00357499
0.00907247
0.00175377
-0.000669318
0.000835629
0.00558032
0.00302872
-0.00107557
0.00885119
0.00420402
0.00132786
0.00690345
0.00113292
-0.00132618
0.00865411
0.00451894
-0.00426615
0.00635616
0.00353589
-0.00352779
0.00284843
0.00205859
0.00541426
0.00477293
0.00436404
0.00661356
0.00153127
0.00550474
0.00240337
0.00143598
0.0052858
3.6745e-05
0.00449308
0.00801398
0.00435021
0.00751591
0.00707905
0.00148754
0.00440448
0.00232325
-0.00246447
0.00528209
0.00225323
-0.00355987
0.00505178
0.00938389
0.00517799
0.00454088
0.0109403
0.00805801
0.00181451
0.00560498
0.00562586
0.00208794
0.000327456
0.0103459
0.0264568
-0.00260718
-0.0199662
0.0102618
0.0106421
-0.00541286
0.016448
0.0183553
-0.011157
0.000104499
0.0239178
0.01608
0.00761725
-0.00354009
-0.00281484
0.00187507
0.0189631
0.0247023
0.00431479
-0.0162114
-0.0132917
0.00820961
0.00388701
-0.0116707
-0.00730937
0.00573524
0.00164714
-0.0114107
-0.00353961
-0.0044552
0.00567875
0.0157297
-0.0116872
-0.0176718
-0.00837872
-0.00114801
0.0274033
0.0333231
0.000218873
0.0102917
0.0266957
-0.0025373
-0.0201725
0.0101701
0.0105568
-0.00559285
0.0163879
0.018315
-0.0111621
0.000340963
0.0240122
0.0158599
0.00763541
-0.00362602
-0.00289142
0.0019513
0.0190402
0.0248308
0.00441601
-0.0162639
-0.0134019
0.00832748
0.00381203
-0.011719
-0.00735677
0.00560069
0.00168164
-0.0114181
-0.00362455
-0.00446062
0.0057352
0.0157928
-0.0118392
-0.0177699
-0.00837663
-0.00108798
0.027588
0.033534
0.000131938
0.010378
0.0273164
-0.00247102
-0.0204903
0.0101431
0.0104515
-0.00594874
0.0162561
0.0183441
-0.01117
0.000825458
0.024242
0.0156149
0.00746685
-0.00380264
-0.0028686
0.00196158
0.019138
0.0250142
0.00429068
-0.0165629
-0.0136417
0.00838974
0.00365837
-0.0117645
-0.00729455
0.00543878