/*--------------------------------*- C++ -*----------------------------------*\
  =========                 |
  \\      /  F ield         | OpenFOAM: The Open Source CFD Toolbox
   \\    /   O peration     | Website:  https://openfoam.org
    \\  /    A nd           | Version:  10
     \\/     M anipulation  |
\*---------------------------------------------------------------------------*/
FoamFile
{
    format      ascii;
    class       volScalarField;
    location    "35";
    object      pMean;
}
// * * * * * * * * * * * * * * * * * * * * * * * * * * * * * * * * * * * * * //

dimensions      [0 2 -2 0 0 0 0];

internalField   nonuniform List<scalar> 
25600
(
-2.11384e-07
-1.90447e-07
-1.71872e-07
-1.85914e-07
-1.46166e-07
-1.54171e-07
-1.41824e-07
-1.12333e-07
-1.193e-07
-8.03614e-08
-7.75852e-08
-6.08156e-08
-4.64388e-08
-4.22789e-08
-4.03139e-08
-3.93838e-08
-4.56797e-08
-6.32866e-08
-6.50995e-08
-8.90686e-08
-1.02693e-07
-1.25283e-07
-1.40397e-07
-1.66005e-07
-1.82522e-07
-1.98767e-07
-2.21017e-07
-2.26637e-07
-2.47594e-07
-2.52307e-07
-2.64412e-07
-2.7055e-07
-2.74414e-07
-2.76374e-07
-2.71868e-07
-2.71795e-07
-2.5586e-07
-2.49089e-07
-2.35737e-07
-2.08492e-07
-2.36115e-07
-2.07639e-07
-1.98945e-07
-2.08937e-07
-1.71255e-07
-1.82314e-07
-1.65175e-07
-1.34019e-07
-1.38071e-07
-9.06612e-08
-8.37858e-08
-5.9554e-08
-3.84408e-08
-2.35256e-08
-2.25452e-08
-1.09856e-08
-1.4375e-08
-3.57835e-08
-2.59064e-08
-6.58902e-08
-7.07953e-08
-1.04343e-07
-1.23707e-07
-1.51487e-07
-1.71524e-07
-1.93052e-07
-2.14905e-07
-2.25607e-07
-2.49071e-07
-2.52102e-07
-2.71828e-07
-2.79994e-07
-2.79605e-07
-2.9453e-07
-2.79258e-07
-2.85544e-07
-2.7296e-07
-2.57882e-07
-2.56672e-07
-2.22046e-07
-2.53857e-07
-2.22047e-07
-2.24815e-07
-2.27096e-07
-1.96673e-07
-2.08941e-07
-1.84072e-07
-1.60049e-07
-1.48905e-07
-1.03641e-07
-8.20962e-08
-5.44361e-08
-2.51775e-08
-2.29906e-09
-8.83411e-10
2.07885e-08
1.44529e-08
-6.75527e-10
4.14336e-09
-3.89344e-08
-4.56926e-08
-8.48999e-08
-1.06188e-07
-1.38454e-07
-1.59239e-07
-1.86522e-07
-2.09929e-07
-2.238e-07
-2.54289e-07
-2.54529e-07
-2.84109e-07
-2.92643e-07
-2.88546e-07
-3.16822e-07
-2.92216e-07
-3.03325e-07
-2.91904e-07
-2.69048e-07
-2.7251e-07
-2.36955e-07
-2.66712e-07
-2.36033e-07
-2.50664e-07
-2.43894e-07
-2.25302e-07
-2.3702e-07
-2.0405e-07
-1.86763e-07
-1.53237e-07
-1.15994e-07
-7.50416e-08
-4.97478e-08
-9.18259e-09
1.83016e-08
2.51999e-08
5.40794e-08
4.40722e-08
3.78041e-08
3.07723e-08
-7.51567e-09
-2.20067e-08
-6.49295e-08
-8.85678e-08
-1.28926e-07
-1.47413e-07
-1.81111e-07
-2.05888e-07
-2.22421e-07
-2.62706e-07
-2.58929e-07
-3.02879e-07
-3.08671e-07
-3.0684e-07
-3.40658e-07
-3.09909e-07
-3.2092e-07
-3.0902e-07
-2.83048e-07
-2.83833e-07
-2.52569e-07
-2.7537e-07
-2.48639e-07
-2.73308e-07
-2.58986e-07
-2.53625e-07
-2.59007e-07
-2.2224e-07
-2.07065e-07
-1.56648e-07
-1.26401e-07
-6.90347e-08
-4.53101e-08
7.68006e-09
4.00721e-08
5.45549e-08
8.82309e-08
7.61499e-08
7.75895e-08
5.57965e-08
2.17693e-08
-6.84701e-10
-4.48916e-08
-6.94584e-08
-1.19195e-07
-1.33826e-07
-1.77116e-07
-1.99659e-07
-2.21702e-07
-2.68989e-07
-2.68308e-07
-3.27748e-07
-3.31372e-07
-3.34396e-07
-3.66917e-07
-3.32054e-07
-3.39547e-07
-3.24377e-07
-2.97143e-07
-2.90844e-07
-2.6675e-07
-2.79781e-07
-2.61361e-07
-2.93076e-07
-2.77889e-07
-2.84411e-07
-2.83039e-07
-2.44533e-07
-2.26422e-07
-1.6476e-07
-1.35833e-07
-6.60729e-08
-3.88955e-08
2.64658e-08
6.46529e-08
8.76108e-08
1.23275e-07
1.09509e-07
1.13459e-07
7.76263e-08
5.10947e-08
2.07907e-08
-2.13668e-08
-4.89366e-08
-1.03943e-07
-1.12961e-07
-1.62892e-07
-1.82423e-07
-2.18962e-07
-2.77123e-07
-2.87737e-07
-3.59169e-07
-3.63486e-07
-3.71327e-07
-3.99967e-07
-3.59867e-07
-3.61748e-07
-3.38991e-07
-3.11004e-07
-2.95418e-07
-2.78791e-07
-2.79523e-07
-2.73372e-07
-3.06072e-07
-2.96985e-07
-3.11534e-07
-3.06712e-07
-2.6824e-07
-2.44417e-07
-1.75119e-07
-1.42397e-07
-6.29163e-08
-2.74154e-08
4.535e-08
9.01884e-08
1.20946e-07
1.5591e-07
1.40901e-07
1.41778e-07
1.00961e-07
7.90796e-08
4.18622e-08
1.58638e-09
-3.00177e-08
-8.50032e-08
-8.97548e-08
-1.42636e-07
-1.60513e-07
-2.15466e-07
-2.83844e-07
-3.0971e-07
-3.92267e-07
-4.02557e-07
-4.16462e-07
-4.39396e-07
-3.91829e-07
-3.8552e-07
-3.52282e-07
-3.22663e-07
-2.96681e-07
-2.8581e-07
-2.74067e-07
-2.80904e-07
-3.16432e-07
-3.17894e-07
-3.34671e-07
-3.29514e-07
-2.90512e-07
-2.62932e-07
-1.89191e-07
-1.52467e-07
-6.60008e-08
-1.70815e-08
6.50289e-08
1.16901e-07
1.54041e-07
1.86326e-07
1.71591e-07
1.65402e-07
1.23472e-07
1.04308e-07
6.87609e-08
2.95904e-08
-6.13893e-09
-6.2387e-08
-6.38598e-08
-1.16593e-07
-1.32468e-07
-2.0367e-07
-2.85104e-07
-3.3884e-07
-4.34336e-07
-4.567e-07
-4.73784e-07
-4.87927e-07
-4.30747e-07
-4.14407e-07
-3.70559e-07
-3.33799e-07
-2.96357e-07
-2.82759e-07
-2.72678e-07
-2.93702e-07
-3.24934e-07
-3.38863e-07
-3.51349e-07
-3.49792e-07
-3.09623e-07
-2.79303e-07
-2.03787e-07
-1.60538e-07
-6.69631e-08
-2.39038e-09
8.61786e-08
1.40137e-07
1.82165e-07
2.05868e-07
1.97926e-07
1.83341e-07
1.43525e-07
1.25448e-07
9.55543e-08
6.09978e-08
1.83863e-08
-3.64198e-08
-3.26702e-08
-8.1784e-08
-9.61457e-08
-1.86965e-07
-2.91177e-07
-3.7624e-07
-4.81664e-07
-5.18728e-07
-5.34445e-07
-5.36746e-07
-4.63074e-07
-4.32646e-07
-3.82162e-07
-3.40465e-07
-2.99461e-07
-2.80105e-07
-2.64726e-07
-3.01879e-07
-3.27633e-07
-3.59021e-07
-3.66253e-07
-3.73984e-07
-3.33514e-07
-2.98526e-07
-2.18518e-07
-1.64041e-07
-6.17832e-08
1.22516e-08
1.01219e-07
1.5996e-07
2.06316e-07
2.19047e-07
2.18569e-07
1.94903e-07
1.62955e-07
1.43946e-07
1.26356e-07
9.63001e-08
4.53223e-08
-1.035e-08
-6.03232e-10
-3.66709e-08
-4.45468e-08
-1.65038e-07
-2.98938e-07
-4.22551e-07
-5.40768e-07
-5.95064e-07
-6.07337e-07
-5.93975e-07
-5.00017e-07
-4.52211e-07
-3.94994e-07
-3.45448e-07
-2.98003e-07
-2.68927e-07
-2.4644e-07
-2.98948e-07
-3.24149e-07
-3.7522e-07
-3.73181e-07
-3.96584e-07
-3.61027e-07
-3.2005e-07
-2.3043e-07
-1.62498e-07
-5.7508e-08
1.33077e-08
9.73353e-08
1.67849e-07
2.28046e-07
2.32302e-07
2.42349e-07
2.05947e-07
1.80624e-07
1.55494e-07
1.54988e-07
1.32915e-07
7.83769e-08
1.62575e-08
3.49989e-08
1.88665e-08
1.44911e-08
-1.44977e-07
-3.12541e-07
-4.71762e-07
-5.9601e-07
-6.6915e-07
-6.77936e-07
-6.51964e-07
-5.34638e-07
-4.67116e-07
-4.1264e-07
-3.59581e-07
-2.99116e-07
-2.50533e-07
-2.1454e-07
-2.96581e-07
-3.25274e-07
-3.87315e-07
-3.70525e-07
-4.10914e-07
-3.90705e-07
-3.44264e-07
-2.41937e-07
-1.58875e-07
-6.0628e-08
-9.23802e-10
7.94068e-08
1.64349e-07
2.46423e-07
2.48656e-07
2.72703e-07
2.15184e-07
1.948e-07
1.64947e-07
1.80218e-07
1.64581e-07
1.03385e-07
3.67072e-08
7.95314e-08
8.95779e-08
8.71729e-08
-1.28552e-07
-3.3974e-07
-5.31102e-07
-6.53315e-07
-7.48003e-07
-7.47434e-07
-7.04843e-07
-5.54242e-07
-4.77076e-07
-4.4051e-07
-3.8453e-07
-2.97779e-07
-2.18891e-07
-1.67152e-07
-2.98105e-07
-3.34533e-07
-3.95993e-07
-3.56174e-07
-4.21872e-07
-4.28209e-07
-3.77183e-07
-2.5631e-07
-1.46531e-07
-6.55837e-08
-3.32144e-08
4.61216e-08
1.559e-07
2.63739e-07
2.61835e-07
2.96271e-07
2.21006e-07
2.07312e-07
1.75205e-07
2.01436e-07
1.83834e-07
1.091e-07
4.09259e-08
1.38132e-07
1.86636e-07
1.87705e-07
-1.13809e-07
-3.85041e-07
-6.0702e-07
-7.1678e-07
-8.26258e-07
-8.09199e-07
-7.51227e-07
-5.53361e-07
-4.69059e-07
-4.73276e-07
-4.14875e-07
-2.85622e-07
-1.61754e-07
-1.11352e-07
-2.97831e-07
-3.47532e-07
-3.96688e-07
-3.15026e-07
-4.28791e-07
-4.81118e-07
-4.2022e-07
-2.72567e-07
-1.22019e-07
-7.97914e-08
-8.43572e-08
-1.10404e-08
1.44446e-07
2.90626e-07
2.76754e-07
3.20727e-07
2.16502e-07
2.08435e-07
1.74476e-07
2.11085e-07
1.85572e-07
9.02121e-08
3.01355e-08
2.20188e-07
3.06594e-07
3.11251e-07
-1.08018e-07
-4.50976e-07
-6.9511e-07
-7.81301e-07
-9.05943e-07
-8.63897e-07
-7.90012e-07
-5.31631e-07
-4.51322e-07
-5.09759e-07
-4.50513e-07
-2.59052e-07
-8.01082e-08
-5.21857e-08
-3.03482e-07
-3.70003e-07
-3.66439e-07
-2.37587e-07
-4.41631e-07
-5.55253e-07
-4.7353e-07
-2.73584e-07
-7.35017e-08
-1.34606e-07
-1.82696e-07
-9.25602e-08
1.44354e-07
3.47294e-07
2.8368e-07
3.29544e-07
2.02147e-07
1.94944e-07
1.75318e-07
2.13159e-07
1.66766e-07
2.92716e-08
-5.74858e-10
3.33832e-07
4.61567e-07
4.58705e-07
-1.32718e-07
-5.41355e-07
-7.89229e-07
-8.30891e-07
-9.88711e-07
-9.05195e-07
-8.17344e-07
-4.7941e-07
-4.15092e-07
-5.58003e-07
-4.89183e-07
-2.08781e-07
3.67906e-08
1.17241e-08
-3.36331e-07
-4.06718e-07
-3.07767e-07
-1.25976e-07
-4.66155e-07
-6.60781e-07
-5.33647e-07
-2.47516e-07
1.13902e-08
-2.3652e-07
-3.17526e-07
-2.03361e-07
1.69935e-07
4.37656e-07
2.85774e-07
3.23457e-07
1.53218e-07
1.65252e-07
1.74682e-07
2.01399e-07
1.00138e-07
-9.75912e-08
-5.07626e-08
4.86325e-07
6.53598e-07
6.26544e-07
-2.04939e-07
-6.38283e-07
-8.69746e-07
-8.5202e-07
-1.07211e-06
-9.30439e-07
-8.38288e-07
-3.87215e-07
-3.71788e-07
-6.30774e-07
-5.28509e-07
-1.13953e-07
2.14385e-07
6.78113e-08
-4.0211e-07
-4.61501e-07
-1.83446e-07
4.94229e-08
-5.16087e-07
-8.23168e-07
-6.0614e-07
-1.84359e-07
1.58093e-07
-4.20836e-07
-5.00392e-07
-3.62596e-07
2.61797e-07
5.67901e-07
2.68415e-07
2.80012e-07
8.45352e-08
1.34046e-07
1.99158e-07
1.69645e-07
-3.22336e-08
-3.17963e-07
-9.40454e-08
7.19579e-07
8.69123e-07
7.81069e-07
-3.64813e-07
-7.06131e-07
-9.12264e-07
-8.2352e-07
-1.19053e-06
-9.36406e-07
-8.52827e-07
-2.15589e-07
-3.43342e-07
-7.64068e-07
-5.74485e-07
4.00029e-08
4.6746e-07
9.95273e-08
-5.67632e-07
-5.35393e-07
9.88288e-09
2.97853e-07
-6.36989e-07
-1.0472e-06
-6.97025e-07
-4.98954e-08
3.77686e-07
-7.15055e-07
-7.36798e-07
-5.77433e-07
4.58358e-07
7.14778e-07
2.24626e-07
1.85306e-07
-9.95464e-09
1.04917e-07
2.75003e-07
6.45407e-08
-2.72931e-07
-6.60338e-07
-9.10068e-08
1.02428e-06
1.12682e-06
8.86787e-07
-6.55082e-07
-7.14408e-07
-8.85939e-07
-7.39245e-07
-1.35652e-06
-9.15464e-07
-8.58671e-07
5.63135e-08
-3.82949e-07
-9.36235e-07
-6.27341e-07
3.16344e-07
8.00233e-07
6.8257e-08
-7.79564e-07
-5.78012e-07
2.99089e-07
6.44242e-07
-9.06888e-07
-1.29223e-06
-8.28279e-07
2.16735e-07
6.20354e-07
-1.14883e-06
-1.01731e-06
-8.0723e-07
7.93574e-07
8.89566e-07
1.02425e-07
2.56161e-10
-1.45936e-07
1.0013e-07
4.60711e-07
-1.50317e-07
-6.40816e-07
-1.1551e-06
2.86528e-08
1.36142e-06
1.42172e-06
8.61019e-07
-1.05692e-06
-6.22868e-07
-7.58948e-07
-6.26931e-07
-1.63908e-06
-8.7419e-07
-8.5356e-07
4.43565e-07
-5.22932e-07
-1.17329e-06
-6.77159e-07
6.7438e-07
1.23574e-06
-4.22779e-08
-1.14399e-06
-6.44383e-07
7.75692e-07
1.06764e-06
-1.38472e-06
-1.53133e-06
-1.00928e-06
6.77425e-07
8.20595e-07
-1.77267e-06
-1.35847e-06
-1.08518e-06
1.33757e-06
1.13835e-06
-7.58097e-08
-2.35251e-07
-3.46945e-07
1.81105e-07
7.16593e-07
-5.03259e-07
-1.17182e-06
-1.7682e-06
3.57093e-07
1.73331e-06
1.75614e-06
6.57631e-07
-1.48977e-06
-3.25151e-07
-5.05946e-07
-4.81586e-07
-1.96306e-06
-7.60976e-07
-7.17575e-07
1.0042e-06
-8.47518e-07
-1.44081e-06
-6.976e-07
1.23102e-06
1.75139e-06
-3.1259e-07
-1.20647e-06
-5.62845e-07
1.60132e-06
1.62105e-06
-1.886e-06
-1.60339e-06
-1.19107e-06
1.5358e-06
1.04019e-06
-2.41036e-06
-1.68695e-06
-1.45215e-06
2.06593e-06
1.46461e-06
-1.99686e-07
-4.42216e-07
-5.56382e-07
5.95657e-07
1.04294e-06
-9.66944e-07
-1.92588e-06
-2.36011e-06
9.62166e-07
2.17499e-06
2.24014e-06
9.78863e-08
-1.83471e-06
1.82816e-07
-3.94583e-08
-3.54408e-07
-2.31157e-06
-5.5838e-07
-3.87303e-07
1.89949e-06
-1.27329e-06
-1.56195e-06
-6.1986e-07
2.1779e-06
2.41779e-06
-3.05055e-07
-1.629e-06
-4.41694e-07
2.93892e-06
2.05261e-06
-2.23409e-06
-1.48499e-06
-1.15936e-06
2.9916e-06
1.24178e-06
-2.78472e-06
-1.71481e-06
-1.37824e-06
3.18638e-06
1.71529e-06
-3.14001e-07
-6.3291e-07
-6.1674e-07
1.46531e-06
1.81896e-06
-1.25463e-06
-2.63837e-06
-2.68978e-06
2.04435e-06
2.8278e-06
3.01446e-06
-3.47511e-07
-1.90619e-06
1.17998e-06
7.64119e-07
8.28436e-08
-2.4296e-06
-1.64691e-07
4.20623e-07
2.87963e-06
-1.68316e-06
-1.33528e-06
-3.98631e-07
3.59737e-06
3.3498e-06
-1.34216e-07
-9.19297e-07
2.01366e-07
4.96016e-06
3.02896e-06
-2.29962e-06
-9.77836e-07
-8.17312e-07
5.00861e-06
1.53004e-06
-3.13387e-06
-1.80788e-06
-1.37243e-06
5.10652e-06
2.47691e-06
-3.8122e-08
-8.21999e-07
-2.78192e-07
2.86622e-06
2.42431e-06
-1.39927e-06
-3.46775e-06
-2.61571e-06
3.34876e-06
3.93809e-06
3.5881e-06
-1.18326e-06
-1.40592e-06
2.61877e-06
1.90448e-06
3.86468e-07
-2.49375e-06
6.59931e-07
1.58243e-06
4.49911e-06
-2.04514e-06
-9.53995e-07
3.58061e-07
5.64077e-06
4.49474e-06
1.52305e-08
-9.66283e-07
9.80767e-07
6.34748e-06
3.1978e-06
-1.78049e-06
-5.97329e-07
-1.45074e-07
7.12476e-06
1.56081e-06
-2.79773e-06
-1.51469e-06
-6.03613e-07
6.08378e-06
2.64957e-06
1.82235e-07
-2.78445e-07
2.42109e-07
4.35556e-06
3.66947e-06
-1.60627e-06
-4.4874e-06
-2.43542e-06
4.88507e-06
5.13687e-06
5.1434e-06
-2.086e-06
-1.27267e-06
3.88975e-06
3.20246e-06
1.37683e-06
-2.4419e-06
1.35787e-06
3.03738e-06
5.41911e-06
-2.16031e-06
-4.73744e-07
4.29654e-07
8.00933e-06
5.29327e-06
2.65142e-07
-7.64348e-07
1.63546e-06
8.49279e-06
3.90431e-06
-2.20807e-06
-6.07978e-07
3.18542e-07
9.7218e-06
1.77527e-06
-2.86916e-06
-1.69323e-06
-6.10015e-07
8.77237e-06
3.39841e-06
3.82985e-07
-1.16426e-06
2.55696e-07
5.68032e-06
4.64196e-06
-1.72733e-06
-5.99819e-06
-2.04865e-06
6.33618e-06
6.66302e-06
5.10492e-06
-2.92356e-06
-3.98048e-07
5.31848e-06
3.7702e-06
1.30236e-06
-3.36832e-06
1.78123e-06
3.4748e-06
6.77179e-06
-3.00344e-06
-3.02314e-07
7.69319e-07
9.88175e-06
7.17173e-06
-2.51327e-07
-9.96036e-07
2.44379e-06
1.03257e-05
3.92581e-06
-2.99903e-06
-1.59703e-06
1.03832e-06
1.18092e-05
1.70343e-06
-3.73452e-06
-1.8074e-06
-2.27449e-08
1.04531e-05
3.00084e-06
-9.48967e-08
-7.57739e-07
5.49515e-07
6.3553e-06
5.38348e-06
-2.31569e-06
-7.52329e-06
-1.81312e-06
7.29239e-06
8.18229e-06
5.83694e-06
-4.95949e-06
-9.24007e-07
6.60462e-06
3.88431e-06
1.34698e-06
-2.56922e-06
2.54761e-06
4.6991e-06
7.07467e-06
-4.36289e-06
-5.60953e-07
9.63314e-07
1.08518e-05
6.53692e-06
-8.14054e-07
6.15778e-07
2.95276e-06
1.16639e-05
3.87971e-06
-3.53066e-06
-2.25312e-06
1.01223e-06
1.30881e-05
1.15486e-06
-3.54036e-06
-1.79471e-06
4.71663e-07
1.09691e-05
2.96298e-06
-2.22732e-07
-2.45181e-06
1.21042e-07
7.06757e-06
5.75262e-06
-2.98303e-06
-7.65605e-06
-1.08497e-06
6.67605e-06
8.18194e-06
4.85664e-06
-5.83364e-06
-9.16233e-07
6.47312e-06
3.64439e-06
1.05273e-06
-3.81031e-06
2.76496e-06
5.14525e-06
6.97574e-06
-5.04805e-06
-5.92337e-07
9.1074e-07
1.22772e-05
7.06648e-06
-1.52983e-06
-5.90033e-07
2.70793e-06
1.21911e-05
3.79753e-06
-3.9797e-06
-2.89732e-06
1.00795e-06
1.31035e-05
1.04533e-06
-4.13866e-06
-1.56141e-06
1.14265e-07
1.23469e-05
2.36316e-06
-3.19861e-07
-2.18495e-06
-1.11064e-07
6.71295e-06
5.91552e-06
-3.49813e-06
-8.16156e-06
-1.07346e-06
7.38803e-06
8.27805e-06
5.7654e-06
-6.47423e-06
-1.32348e-06
6.66116e-06
2.98347e-06
5.67426e-07
-2.91274e-06
2.93755e-06
5.13678e-06
6.66282e-06
-5.56985e-06
-1.42376e-06
6.50964e-07
1.25299e-05
6.70681e-06
-1.99482e-06
-1.52779e-07
2.85839e-06
1.22925e-05
3.65904e-06
-4.37097e-06
-3.66644e-06
9.03404e-07
1.30673e-05
5.15707e-07
-4.85532e-06
-1.37955e-06
5.36353e-07
1.20056e-05
2.17092e-06
-3.23505e-07
-2.54644e-06
-2.30749e-07
6.12895e-06
5.7418e-06
-3.90017e-06
-8.69442e-06
-9.12475e-07
6.98997e-06
8.25537e-06
5.69581e-06
-6.42307e-06
-1.46503e-06
6.29043e-06
2.59902e-06
1.83363e-07
-3.0036e-06
2.90946e-06
4.69988e-06
6.90325e-06
-5.79747e-06
-1.53981e-06
5.5465e-07
1.23989e-05
6.39641e-06
-2.2138e-06
-3.41393e-07
2.67867e-06
1.22254e-05
3.54678e-06
-4.64681e-06
-4.04453e-06
8.75746e-07
1.28093e-05
1.4054e-07
-5.19879e-06
-1.4281e-06
4.45825e-07
1.2096e-05
2.02783e-06
-4.43452e-07
-2.56274e-06
-3.11857e-07
5.73599e-06
5.17239e-06
-4.08774e-06
-8.91667e-06
-7.88744e-07
6.90076e-06
8.16486e-06
5.71707e-06
-6.44742e-06
-1.47512e-06
6.16723e-06
2.21822e-06
-2.08432e-07
-3.0723e-06
2.86205e-06
4.51001e-06
6.5041e-06
-6.00083e-06
-1.4766e-06
3.78595e-07
1.2189e-05
6.08585e-06
-2.29492e-06
-2.969e-07
2.69067e-06
1.19254e-05
3.21877e-06
-4.84037e-06
-4.01956e-06
9.19033e-07
1.27145e-05
-1.8585e-07
-5.23386e-06
-1.42026e-06
4.35553e-07
1.19725e-05
1.93496e-06
-4.98725e-07
-2.6695e-06
-3.19074e-07
5.54566e-06
4.99289e-06
-4.30998e-06
-8.817e-06
-6.77552e-07
6.7185e-06
7.87112e-06
5.67364e-06
-6.55448e-06
-1.49634e-06
5.85543e-06
2.08e-06
-3.57483e-07
-3.04409e-06
2.88697e-06
4.50607e-06
6.5385e-06
-5.91858e-06
-1.42014e-06
2.43742e-07
1.20795e-05
5.84815e-06
-2.32562e-06
-2.49024e-07
2.75507e-06
1.17891e-05
3.0713e-06
-5.01183e-06
-3.94891e-06
8.8349e-07
1.26677e-05
-3.95007e-07
-5.21488e-06
-1.52693e-06
4.36234e-07
1.19541e-05
1.92012e-06
-6.44833e-07
-2.88644e-06
-4.21161e-07
5.49742e-06
4.88179e-06
-4.50511e-06
-8.78882e-06
-6.68141e-07
6.69068e-06
7.63871e-06
5.48969e-06
-6.73023e-06
-1.50542e-06
5.69379e-06
2.1156e-06
-3.75266e-07
-3.14003e-06
2.84565e-06
4.51513e-06
6.63061e-06
-5.92638e-06
-1.43659e-06
1.43798e-07
1.21363e-05
5.80223e-06
-2.10445e-07
-1.90422e-07
-1.72261e-07
-1.84413e-07
-1.46421e-07
-1.52889e-07
-1.40741e-07
-1.12435e-07
-1.18334e-07
-7.96011e-08
-7.90904e-08
-5.94235e-08
-4.7839e-08
-4.38094e-08
-3.99798e-08
-4.15828e-08
-4.77474e-08
-6.46843e-08
-6.97374e-08
-9.07335e-08
-1.07426e-07
-1.27725e-07
-1.43851e-07
-1.69177e-07
-1.85857e-07
-2.00108e-07
-2.21583e-07
-2.26215e-07
-2.44051e-07
-2.50221e-07
-2.59448e-07
-2.66373e-07
-2.68215e-07
-2.71674e-07
-2.65957e-07
-2.68067e-07
-2.51383e-07
-2.4711e-07
-2.33222e-07
-2.07514e-07
-2.35729e-07
-2.08441e-07
-1.99592e-07
-2.08196e-07
-1.70374e-07
-1.79925e-07
-1.62392e-07
-1.31934e-07
-1.35889e-07
-8.9104e-08
-8.5724e-08
-5.81616e-08
-4.01746e-08
-2.61767e-08
-2.17102e-08
-1.43156e-08
-1.5939e-08
-3.82251e-08
-3.0525e-08
-6.80954e-08
-7.45812e-08
-1.07635e-07
-1.25166e-07
-1.54684e-07
-1.72145e-07
-1.92516e-07
-2.13358e-07
-2.22502e-07
-2.45592e-07
-2.46978e-07
-2.67125e-07
-2.73394e-07
-2.71936e-07
-2.88111e-07
-2.71783e-07
-2.80934e-07
-2.68647e-07
-2.54734e-07
-2.54821e-07
-2.20469e-07
-2.5214e-07
-2.2226e-07
-2.23293e-07
-2.25113e-07
-1.93965e-07
-2.05546e-07
-1.80615e-07
-1.56788e-07
-1.46927e-07
-1.02952e-07
-8.47879e-08
-5.44897e-08
-2.73724e-08
-4.83362e-09
-6.28813e-10
1.67943e-08
1.12234e-08
-4.62277e-09
1.01427e-10
-4.07624e-08
-4.74481e-08
-8.80517e-08
-1.05577e-07
-1.4113e-07
-1.5721e-07
-1.84107e-07
-2.06046e-07
-2.17746e-07
-2.50382e-07
-2.46565e-07
-2.79404e-07
-2.84576e-07
-2.80313e-07
-3.09585e-07
-2.83877e-07
-2.96704e-07
-2.86337e-07
-2.63685e-07
-2.701e-07
-2.34011e-07
-2.62345e-07
-2.35686e-07
-2.46682e-07
-2.40946e-07
-2.20589e-07
-2.31086e-07
-1.99917e-07
-1.84144e-07
-1.54011e-07
-1.18763e-07
-7.85969e-08
-5.03089e-08
-1.03997e-08
1.69487e-08
2.32457e-08
4.9693e-08
3.90243e-08
3.49715e-08
2.94856e-08
-6.66136e-09
-2.02896e-08
-6.57537e-08
-8.52221e-08
-1.29318e-07
-1.43046e-07
-1.7848e-07
-2.01739e-07
-2.14997e-07
-2.57753e-07
-2.48557e-07
-2.96398e-07
-2.98563e-07
-2.96512e-07
-3.30918e-07
-3.00367e-07
-3.14209e-07
-3.03718e-07
-2.76601e-07
-2.7931e-07
-2.47217e-07
-2.67009e-07
-2.46102e-07
-2.65971e-07
-2.5593e-07
-2.4884e-07
-2.52794e-07
-2.20704e-07
-2.07912e-07
-1.61845e-07
-1.31435e-07
-7.12387e-08
-4.37702e-08
8.12282e-09
4.05387e-08
5.08706e-08
8.41311e-08
6.95047e-08
7.76693e-08
6.01651e-08
2.81271e-08
4.88912e-09
-4.35927e-08
-6.52488e-08
-1.19131e-07
-1.2991e-07
-1.74574e-07
-1.93761e-07
-2.10887e-07
-2.61523e-07
-2.55286e-07
-3.18114e-07
-3.18845e-07
-3.22105e-07
-3.55431e-07
-3.23161e-07
-3.3306e-07
-3.20373e-07
-2.89781e-07
-2.83588e-07
-2.60154e-07
-2.66727e-07
-2.54659e-07
-2.81499e-07
-2.73823e-07
-2.77914e-07
-2.775e-07
-2.47077e-07
-2.32084e-07
-1.72872e-07
-1.40506e-07
-6.29248e-08
-3.32474e-08
2.85939e-08
6.47403e-08
7.98266e-08
1.18959e-07
1.03619e-07
1.21888e-07
9.24411e-08
6.58619e-08
3.16864e-08
-1.96297e-08
-4.74365e-08
-1.06674e-07
-1.12822e-07
-1.62817e-07
-1.78019e-07
-2.07661e-07
-2.67059e-07
-2.71598e-07
-3.44822e-07
-3.48375e-07
-3.55655e-07
-3.85402e-07
-3.52214e-07
-3.54342e-07
-3.37782e-07
-3.02495e-07
-2.86025e-07
-2.68841e-07
-2.6108e-07
-2.6201e-07
-2.94339e-07
-2.94059e-07
-3.06597e-07
-3.05044e-07
-2.77868e-07
-2.55434e-07
-1.85191e-07
-1.43331e-07
-5.14443e-08
-1.82773e-08
5.08959e-08
8.92198e-08
1.11244e-07
1.52492e-07
1.43694e-07
1.65946e-07
1.28741e-07
1.01672e-07
5.61615e-08
2.39931e-09
-3.32298e-08
-9.39438e-08
-1.00075e-07
-1.4794e-07
-1.59375e-07
-2.01329e-07
-2.67701e-07
-2.91534e-07
-3.75776e-07
-3.85568e-07
-3.94646e-07
-4.17842e-07
-3.82016e-07
-3.75965e-07
-3.54965e-07
-3.15019e-07
-2.88299e-07
-2.71368e-07
-2.51307e-07
-2.6542e-07
-3.01859e-07
-3.15139e-07
-3.31858e-07
-3.33665e-07
-3.10533e-07
-2.81487e-07
-2.02416e-07
-1.44326e-07
-4.25643e-08
-3.64611e-09
7.03613e-08
1.12792e-07
1.43808e-07
1.86253e-07
1.86617e-07
2.06619e-07
1.67561e-07
1.34058e-07
8.21435e-08
2.52748e-08
-1.91915e-08
-8.15986e-08
-8.33156e-08
-1.21451e-07
-1.2641e-07
-1.83861e-07
-2.66052e-07
-3.20285e-07
-4.16551e-07
-4.34726e-07
-4.4373e-07
-4.56786e-07
-4.15534e-07
-3.99825e-07
-3.75293e-07
-3.28786e-07
-2.9132e-07
-2.68405e-07
-2.36449e-07
-2.6696e-07
-3.11395e-07
-3.45032e-07
-3.63596e-07
-3.66648e-07
-3.4171e-07
-3.02944e-07
-2.117e-07
-1.36762e-07
-3.02471e-08
1.4989e-08
9.16556e-08
1.35694e-07
1.74732e-07
2.15644e-07
2.27675e-07
2.40803e-07
2.03114e-07
1.59229e-07
1.01886e-07
4.74181e-08
-1.90158e-09
-5.84481e-08
-5.50564e-08
-8.4619e-08
-8.43816e-08
-1.63255e-07
-2.6458e-07
-3.50809e-07
-4.57081e-07
-4.87552e-07
-4.95659e-07
-5.01757e-07
-4.54231e-07
-4.30996e-07
-4.0307e-07
-3.46281e-07
-2.95213e-07
-2.5823e-07
-2.16466e-07
-2.64812e-07
-3.22643e-07
-3.78631e-07
-3.96037e-07
-4.02559e-07
-3.76948e-07
-3.27937e-07
-2.22229e-07
-1.29998e-07
-2.05346e-08
3.41389e-08
1.13841e-07
1.60888e-07
2.07535e-07
2.47877e-07
2.70822e-07
2.67994e-07
2.32887e-07
1.74833e-07
1.15273e-07
6.24236e-08
8.93206e-09
-3.58074e-08
-2.03936e-08
-2.84647e-08
-2.42607e-08
-1.35756e-07
-2.65242e-07
-3.93358e-07
-5.12287e-07
-5.56944e-07
-5.54996e-07
-5.54111e-07
-4.87906e-07
-4.57536e-07
-4.25112e-07
-3.62352e-07
-2.96131e-07
-2.38789e-07
-1.93076e-07
-2.71005e-07
-3.45376e-07
-4.20001e-07
-4.32845e-07
-4.40408e-07
-4.17753e-07
-3.55687e-07
-2.30454e-07
-1.14793e-07
-2.88222e-09
6.1629e-08
1.4015e-07
1.84112e-07
2.36622e-07
2.7506e-07
3.10859e-07
2.883e-07
2.4945e-07
1.75993e-07
1.23152e-07
7.60713e-08
1.89497e-08
-9.73423e-09
2.91085e-08
4.85397e-08
5.22321e-08
-9.82256e-08
-2.69819e-07
-4.45937e-07
-5.78352e-07
-6.41007e-07
-6.26643e-07
-6.13008e-07
-5.18822e-07
-4.82368e-07
-4.43328e-07
-3.72595e-07
-2.81162e-07
-2.05309e-07
-1.62712e-07
-2.86721e-07
-3.75454e-07
-4.59878e-07
-4.65292e-07
-4.77343e-07
-4.60069e-07
-3.82932e-07
-2.33727e-07
-9.07448e-08
1.87611e-08
9.50932e-08
1.67477e-07
2.01622e-07
2.58354e-07
2.8652e-07
3.37726e-07
2.97949e-07
2.51868e-07
1.5554e-07
1.19944e-07
9.30342e-08
3.68882e-08
1.93282e-08
9.65621e-08
1.50134e-07
1.4301e-07
-6.59176e-08
-2.86781e-07
-5.10422e-07
-6.52549e-07
-7.34543e-07
-7.08313e-07
-6.80835e-07
-5.52106e-07
-5.03579e-07
-4.60392e-07
-3.83276e-07
-2.56943e-07
-1.62148e-07
-1.38811e-07
-3.1578e-07
-4.11423e-07
-5.04948e-07
-4.9815e-07
-5.14433e-07
-4.97607e-07
-4.00162e-07
-2.19265e-07
-4.17272e-08
5.15436e-08
1.33555e-07
1.94576e-07
2.15544e-07
2.66014e-07
2.80488e-07
3.54161e-07
2.9417e-07
2.35429e-07
1.1621e-07
1.06894e-07
1.09599e-07
5.86112e-08
5.52123e-08
1.88584e-07
2.75019e-07
2.48197e-07
-4.1799e-08
-3.27021e-07
-5.87178e-07
-7.35224e-07
-8.43277e-07
-7.99513e-07
-7.56668e-07
-5.80939e-07
-5.11987e-07
-4.68401e-07
-3.92166e-07
-2.29466e-07
-1.16727e-07
-1.19117e-07
-3.68929e-07
-4.7715e-07
-5.73265e-07
-5.29357e-07
-5.48594e-07
-5.36293e-07
-4.14653e-07
-1.79421e-07
3.93647e-08
9.27925e-08
1.76166e-07
2.03326e-07
2.13664e-07
2.56751e-07
2.57738e-07
3.55929e-07
2.63708e-07
1.93278e-07
6.3645e-08
9.2457e-08
1.28914e-07
7.42849e-08
9.06877e-08
3.13866e-07
4.31571e-07
3.6017e-07
-3.94955e-08
-3.95311e-07
-6.73875e-07
-8.25982e-07
-9.65771e-07
-9.00032e-07
-8.37797e-07
-5.95993e-07
-5.0926e-07
-4.73193e-07
-4.09304e-07
-1.87472e-07
-6.48216e-08
-1.13936e-07
-4.56265e-07
-5.66304e-07
-6.58495e-07
-5.40456e-07
-5.75455e-07
-5.73572e-07
-4.33335e-07
-1.03687e-07
1.73134e-07
1.48915e-07
2.31801e-07
1.83955e-07
1.91465e-07
2.23867e-07
2.18047e-07
3.40396e-07
1.98371e-07
1.17946e-07
-2.48754e-09
7.03425e-08
1.38354e-07
7.34203e-08
1.28688e-07
4.8385e-07
6.19829e-07
4.67614e-07
-7.55434e-08
-4.96363e-07
-7.61085e-07
-9.17101e-07
-1.11211e-06
-1.01619e-06
-9.16804e-07
-5.7958e-07
-4.69804e-07
-4.76527e-07
-4.49311e-07
-1.30007e-07
-1.48546e-08
-1.22955e-07
-6.06842e-07
-6.96634e-07
-7.54456e-07
-5.11428e-07
-6.14833e-07
-6.42297e-07
-4.80758e-07
2.15059e-08
3.7575e-07
2.09513e-07
2.90392e-07
1.0137e-07
1.45948e-07
1.77409e-07
1.64797e-07
2.93597e-07
7.95822e-08
1.35672e-08
-5.29326e-08
4.48144e-08
1.10868e-07
2.43583e-08
1.801e-07
7.2932e-07
8.46699e-07
5.45281e-07
-1.81326e-07
-6.365e-07
-8.33041e-07
-1.02435e-06
-1.3114e-06
-1.16399e-06
-1.00247e-06
-5.22718e-07
-3.97872e-07
-4.95624e-07
-5.3554e-07
-5.12736e-08
4.9193e-08
-1.44397e-07
-8.49367e-07
-8.732e-07
-8.4968e-07
-4.11657e-07
-6.89317e-07
-7.43135e-07
-5.68051e-07
2.35434e-07
6.50814e-07
2.60678e-07
3.47039e-07
-5.8148e-08
8.68169e-08
1.34452e-07
9.28514e-08
1.84485e-07
-1.05551e-07
-1.07626e-07
-5.47611e-08
-2.64931e-10
3.13562e-08
-8.85662e-08
2.67862e-07
1.06666e-06
1.07877e-06
5.54244e-07
-3.76794e-07
-7.86784e-07
-8.45188e-07
-1.14286e-06
-1.58046e-06
-1.35371e-06
-1.07523e-06
-4.04249e-07
-2.90797e-07
-5.55123e-07
-6.69687e-07
8.02419e-08
1.21935e-07
-2.33488e-07
-1.24127e-06
-1.10046e-06
-9.3974e-07
-2.23726e-07
-8.45327e-07
-8.99692e-07
-7.19164e-07
6.15101e-07
9.81525e-07
2.83812e-07
3.46414e-07
-3.69635e-07
5.17563e-08
8.60749e-08
1.87724e-08
-3.36134e-08
-3.8722e-07
-2.08751e-07
-1.41266e-08
-1.1773e-07
-1.62627e-07
-2.8481e-07
4.58259e-07
1.50789e-06
1.2958e-06
4.30042e-07
-6.79192e-07
-9.3977e-07
-7.64631e-07
-1.34578e-06
-1.93965e-06
-1.56436e-06
-1.10287e-06
-2.30526e-07
-1.73163e-07
-6.86828e-07
-8.80398e-07
3.00379e-07
1.82418e-07
-4.31199e-07
-1.80759e-06
-1.36238e-06
-9.69575e-07
5.88865e-08
-1.17291e-06
-1.09642e-06
-9.51193e-07
1.25513e-06
1.32215e-06
3.08284e-07
2.68839e-07
-8.52811e-07
3.2138e-08
7.598e-08
-1.14678e-07
-3.44416e-07
-7.70193e-07
-2.47711e-07
1.31292e-07
-3.44932e-07
-5.0742e-07
-5.51378e-07
8.08883e-07
2.09314e-06
1.4393e-06
1.47583e-07
-1.1177e-06
-1.04439e-06
-5.85957e-07
-1.68479e-06
-2.42745e-06
-1.83511e-06
-1.01873e-06
2.32e-08
-8.65707e-09
-9.73366e-07
-1.10521e-06
6.23275e-07
2.35725e-07
-8.44153e-07
-2.57242e-06
-1.70137e-06
-9.03669e-07
4.05298e-07
-1.72956e-06
-1.45247e-06
-1.33463e-06
2.24793e-06
1.55015e-06
3.4256e-07
1.78428e-08
-1.49528e-06
6.17673e-08
-9.30312e-08
-3.46331e-07
-9.73159e-07
-1.25347e-06
-1.95865e-07
2.22634e-07
-7.95778e-07
-1.11277e-06
-9.18025e-07
1.32052e-06
2.75017e-06
1.40497e-06
-3.68092e-07
-1.73205e-06
-1.04617e-06
-3.89476e-07
-2.26035e-06
-3.03539e-06
-2.2359e-06
-9.1933e-07
2.34972e-07
1.51328e-07
-1.55527e-06
-1.3446e-06
1.07705e-06
1.98055e-07
-1.61154e-06
-3.74231e-06
-2.29121e-06
-7.76135e-07
4.80621e-07
-2.56209e-06
-2.16013e-06
-1.97909e-06
3.4282e-06
1.44124e-06
3.78525e-07
-6.41195e-07
-2.47156e-06
1.68063e-07
-2.73391e-07
-8.11099e-07
-1.89894e-06
-2.09509e-06
8.67837e-08
3.64918e-07
-1.52703e-06
-2.05221e-06
-1.42582e-06
1.95504e-06
3.31028e-06
1.05368e-06
-1.29109e-06
-2.64497e-06
-9.29582e-07
-3.31437e-07
-3.20835e-06
-3.92499e-06
-2.54487e-06
-8.41663e-07
4.89719e-07
5.90969e-08
-2.59471e-06
-1.67962e-06
1.40801e-06
1.61827e-08
-2.77989e-06
-5.48673e-06
-3.35824e-06
-7.72357e-07
2.05505e-07
-3.85551e-06
-3.0969e-06
-2.68307e-06
4.42709e-06
8.73576e-07
3.69876e-07
-2.20365e-06
-3.60517e-06
-2.28524e-07
-1.10422e-06
-1.6568e-06
-3.51725e-06
-3.11305e-06
-2.83409e-07
3.54249e-08
-2.68569e-06
-3.42348e-06
-2.12219e-06
2.63818e-06
3.60561e-06
2.50042e-07
-2.65046e-06
-4.0336e-06
-8.85915e-07
-6.05033e-07
-4.58529e-06
-5.37785e-06
-3.66252e-06
-1.0815e-06
6.23597e-07
-2.70255e-08
-4.01806e-06
-1.98126e-06
1.63362e-06
-5.01672e-07
-3.99255e-06
-7.51764e-06
-4.63626e-06
-7.84084e-07
-3.20649e-07
-5.13668e-06
-4.80267e-06
-3.4452e-06
5.50563e-06
-1.81726e-08
4.02598e-07
-4.09635e-06
-5.07953e-06
-5.74274e-08
-1.72871e-06
-2.77793e-06
-5.27212e-06
-4.56335e-06
4.98038e-07
-4.19214e-07
-4.1646e-06
-5.07845e-06
-2.77206e-06
3.23137e-06
3.77846e-06
-8.06135e-07
-4.17731e-06
-5.23616e-06
-7.4796e-07
-1.15624e-06
-5.89086e-06
-6.53424e-06
-3.94004e-06
-1.6148e-06
7.2444e-07
-1.15193e-06
-5.9686e-06
-2.24516e-06
1.7691e-06
-1.37357e-06
-5.20868e-06
-9.25498e-06
-5.20317e-06
-1.11833e-06
-1.30508e-06
-6.91286e-06
-6.04157e-06
-3.58314e-06
6.84601e-06
-6.17371e-07
5.37033e-07
-6.01371e-06
-5.55738e-06
-1.26025e-06
-2.84236e-06
-4.09171e-06
-7.25619e-06
-5.01263e-06
1.64963e-07
-4.58762e-07
-5.50338e-06
-6.64185e-06
-3.06697e-06
4.31525e-06
3.70396e-06
-1.92623e-06
-5.6525e-06
-6.29595e-06
4.31235e-09
-1.51514e-06
-7.94462e-06
-7.77918e-06
-4.99802e-06
-5.80355e-07
1.42068e-06
-1.43977e-06
-7.00897e-06
-2.18936e-06
2.2478e-06
-2.07707e-06
-5.82274e-06
-1.07002e-05
-5.32231e-06
-4.33582e-08
-1.23115e-06
-7.71193e-06
-7.07575e-06
-3.13976e-06
8.53451e-06
-7.73944e-07
6.2966e-07
-7.94966e-06
-6.18797e-06
-6.36008e-08
-3.04283e-06
-4.6621e-06
-8.78929e-06
-5.65622e-06
1.80493e-06
-9.20029e-07
-6.77433e-06
-7.43085e-06
-3.22708e-06
5.57617e-06
4.83141e-06
-2.74577e-06
-6.76725e-06
-6.83495e-06
1.68484e-06
-1.06254e-06
-7.95756e-06
-8.58936e-06
-4.88504e-06
-1.07942e-06
2.5069e-06
-2.49185e-06
-9.03353e-06
-1.95162e-06
2.71461e-06
-1.83263e-06
-6.17131e-06
-1.10856e-05
-4.34416e-06
-4.11284e-08
-1.89464e-06
-8.97523e-06
-7.92862e-06
-2.33427e-06
1.04161e-05
2.63996e-07
8.13769e-07
-8.57338e-06
-5.32943e-06
-1.17536e-06
-3.13159e-06
-5.40649e-06
-9.74452e-06
-5.05887e-06
2.58072e-06
-3.56886e-07
-8.05933e-06
-7.44578e-06
-1.77354e-06
6.48787e-06
4.41519e-06
-2.25775e-06
-6.92271e-06
-6.6833e-06
2.40554e-06
-1.00012e-06
-9.82901e-06
-8.68974e-06
-4.83481e-06
1.35069e-06
3.80461e-06
-2.65211e-06
-9.23504e-06
-1.33523e-06
4.02337e-06
-1.75602e-06
-5.90533e-06
-1.09743e-05
-3.52835e-06
1.27842e-06
-2.05598e-06
-9.65834e-06
-8.42342e-06
-1.52632e-06
1.21496e-05
-6.0438e-07
1.153e-06
-9.4091e-06
-5.05179e-06
2.76458e-07
-3.39317e-06