/*--------------------------------*- C++ -*----------------------------------*\
  =========                 |
  \\      /  F ield         | OpenFOAM: The Open Source CFD Toolbox
   \\    /   O peration     | Website:  https://openfoam.org
    \\  /    A nd           | Version:  10
     \\/     M anipulation  |
\*---------------------------------------------------------------------------*/
FoamFile
{
    format      ascii;
    class       volScalarField;
    location    "35";
    object      pPrime2Mean;
}
// * * * * * * * * * * * * * * * * * * * * * * * * * * * * * * * * * * * * * //

dimensions      [0 4 -4 0 0 0 0];

internalField   nonuniform List<scalar> 
25600
(
1.32876e-10
1.36438e-10
1.26918e-10
1.21808e-10
1.1758e-10
1.01053e-10
9.04819e-11
7.99372e-11
6.48143e-11
5.91573e-11
5.03117e-11
4.26985e-11
4.42176e-11
3.85201e-11
3.66436e-11
4.11218e-11
3.95411e-11
4.21166e-11
5.11101e-11
5.61227e-11
6.41872e-11
8.17469e-11
9.57087e-11
1.12391e-10
1.3969e-10
1.63455e-10
1.8632e-10
2.1044e-10
2.31197e-10
2.45862e-10
2.48763e-10
2.47351e-10
2.38513e-10
2.18512e-10
1.99407e-10
1.82276e-10
1.62074e-10
1.4888e-10
1.45364e-10
1.35889e-10
1.58224e-10
1.64758e-10
1.61281e-10
1.60516e-10
1.53012e-10
1.31352e-10
1.16185e-10
9.90765e-11
7.73574e-11
6.64311e-11
5.36022e-11
4.35629e-11
4.15348e-11
3.49546e-11
3.13952e-11
3.06979e-11
3.0332e-11
3.29662e-11
3.53034e-11
4.1046e-11
5.11027e-11
6.39476e-11
7.90418e-11
9.9216e-11
1.26981e-10
1.5456e-10
1.79873e-10
2.07928e-10
2.34507e-10
2.46754e-10
2.49757e-10
2.48803e-10
2.33555e-10
2.11918e-10
1.92094e-10
1.72576e-10
1.56933e-10
1.49511e-10
1.49523e-10
1.50953e-10
1.80041e-10
1.93876e-10
2.00146e-10
2.03145e-10
1.90887e-10
1.64546e-10
1.42134e-10
1.16043e-10
8.91011e-11
7.15284e-11
5.57922e-11
4.49056e-11
3.79823e-11
3.26334e-11
2.7838e-11
2.26049e-11
2.68065e-11
2.86057e-11
2.44987e-11
3.25324e-11
4.25334e-11
5.00088e-11
6.67619e-11
8.92013e-11
1.16886e-10
1.48664e-10
1.78518e-10
2.13952e-10
2.46435e-10
2.578e-10
2.63674e-10
2.60007e-10
2.35587e-10
2.11461e-10
1.85686e-10
1.60803e-10
1.48528e-10
1.43014e-10
1.47872e-10
1.62385e-10
1.96547e-10
2.2417e-10
2.44021e-10
2.50219e-10
2.33292e-10
2.02328e-10
1.68852e-10
1.33169e-10
1.00791e-10
7.49133e-11
5.76821e-11
4.49634e-11
3.34292e-11
3.07574e-11
2.34671e-11
1.71756e-11
2.66991e-11
2.45823e-11
1.67052e-11
2.69401e-11
3.46467e-11
3.83748e-11
5.61547e-11
7.97626e-11
1.07823e-10
1.43252e-10
1.80932e-10
2.26451e-10
2.62529e-10
2.77305e-10
2.88395e-10
2.76671e-10
2.44164e-10
2.15228e-10
1.76213e-10
1.45887e-10
1.3346e-10
1.26044e-10
1.39149e-10
1.66766e-10
2.09095e-10
2.57628e-10
2.94606e-10
3.04059e-10
2.83705e-10
2.45992e-10
1.97705e-10
1.52296e-10
1.12297e-10
7.79696e-11
6.02841e-11
4.44356e-11
3.10395e-11
3.0736e-11
2.02163e-11
1.67009e-11
2.83767e-11
2.08716e-11
1.29919e-11
2.33484e-11
2.84779e-11
3.02309e-11
4.71587e-11
7.14167e-11
9.85191e-11
1.36596e-10
1.85385e-10
2.41054e-10
2.80668e-10
3.0653e-10
3.22881e-10
3.00013e-10
2.62691e-10
2.21502e-10
1.63931e-10
1.29567e-10
1.10866e-10
1.01038e-10
1.23879e-10
1.63069e-10
2.19659e-10
2.96082e-10
3.53595e-10
3.67496e-10
3.44759e-10
2.95639e-10
2.29302e-10
1.7321e-10
1.23125e-10
8.20431e-11
6.43239e-11
4.51495e-11
3.27863e-11
3.31282e-11
1.9604e-11
2.0547e-11
3.0307e-11
1.85413e-11
1.28742e-11
2.1476e-11
2.55247e-11
2.54537e-11
4.04893e-11
6.40771e-11
8.70734e-11
1.27447e-10
1.89439e-10
2.55012e-10
3.03233e-10
3.48198e-10
3.67779e-10
3.34793e-10
2.92223e-10
2.27663e-10
1.51096e-10
1.12036e-10
8.22171e-11
7.19425e-11
1.01321e-10
1.5111e-10
2.28846e-10
3.40481e-10
4.22383e-10
4.43217e-10
4.17895e-10
3.51022e-10
2.63331e-10
1.94499e-10
1.33472e-10
8.84305e-11
7.02062e-11
4.84439e-11
3.86316e-11
3.76991e-11
2.22287e-11
2.68213e-11
3.13766e-11
1.79932e-11
1.44479e-11
2.11351e-11
2.57443e-11
2.35964e-11
3.69013e-11
5.68245e-11
7.26272e-11
1.15637e-10
1.91361e-10
2.68324e-10
3.33568e-10
4.02909e-10
4.25882e-10
3.86684e-10
3.3161e-10
2.34138e-10
1.40352e-10
9.30291e-11
5.27098e-11
4.3319e-11
7.20342e-11
1.31958e-10
2.36838e-10
3.9173e-10
5.02363e-10
5.33815e-10
5.04782e-10
4.11894e-10
2.98564e-10
2.14936e-10
1.43915e-10
9.80948e-11
7.92937e-11
5.58268e-11
4.88995e-11
4.61404e-11
2.85689e-11
3.36454e-11
3.22087e-11
1.90289e-11
1.64112e-11
2.21636e-11
2.85029e-11
2.51027e-11
3.565e-11
4.9879e-11
5.64689e-11
1.00444e-10
1.89689e-10
2.81418e-10
3.72238e-10
4.71811e-10
5.03865e-10
4.60311e-10
3.80924e-10
2.43834e-10
1.32537e-10
7.41443e-11
3.0983e-11
2.34193e-11
4.17538e-11
1.07683e-10
2.43872e-10
4.4978e-10
5.93458e-10
6.41309e-10
6.0662e-10
4.76725e-10
3.32925e-10
2.32987e-10
1.55147e-10
1.13121e-10
9.37912e-11
6.8042e-11
6.52668e-11
6.19704e-11
3.98175e-11
4.21357e-11
3.47218e-11
2.08141e-11
1.8228e-11
2.45594e-11
3.36848e-11
2.98903e-11
3.58339e-11
4.50532e-11
4.16677e-11
8.22916e-11
1.83554e-10
2.94474e-10
4.18828e-10
5.59201e-10
6.10539e-10
5.60166e-10
4.42161e-10
2.58493e-10
1.27175e-10
5.8412e-11
2.94786e-11
3.01407e-11
2.29165e-11
8.05158e-11
2.5075e-10
5.13671e-10
6.95009e-10
7.67914e-10
7.24622e-10
5.42602e-10
3.63415e-10
2.46528e-10
1.67595e-10
1.37524e-10
1.15004e-10
8.55249e-11
9.18712e-11
8.97489e-11
5.89847e-11
5.54734e-11
4.16468e-11
2.38179e-11
2.06278e-11
2.84836e-11
4.33425e-11
3.98053e-11
3.75485e-11
4.76621e-11
3.57934e-11
6.46719e-11
1.72601e-10
3.08132e-10
4.74237e-10
6.72691e-10
7.56284e-10
6.9161e-10
5.18702e-10
2.78372e-10
1.23963e-10
4.979e-11
6.78851e-11
9.48221e-11
3.47138e-11
5.40935e-11
2.57749e-10
5.80688e-10
8.0523e-10
9.15239e-10
8.5996e-10
6.06062e-10
3.85109e-10
2.51224e-10
1.82988e-10
1.77193e-10
1.42141e-10
1.10785e-10
1.34512e-10
1.3581e-10
9.19323e-11
7.76878e-11
5.6074e-11
3.02911e-11
2.50909e-11
3.45179e-11
6.01436e-11
6.00543e-11
4.0919e-11
6.66694e-11
5.51924e-11
5.42025e-11
1.5759e-10
3.23551e-10
5.39741e-10
8.2124e-10
9.53696e-10
8.61112e-10
6.1327e-10
3.01626e-10
1.22092e-10
5.16788e-11
1.7605e-10
2.65253e-10
1.0407e-10
3.48653e-11
2.63081e-10
6.46506e-10
9.21772e-10
1.0838e-09
1.01501e-09
6.63728e-10
3.9148e-10
2.45498e-10
2.04851e-10
2.37875e-10
1.73956e-10
1.49977e-10
1.98785e-10
2.10247e-10
1.46908e-10
1.10786e-10
8.29759e-11
4.36627e-11
3.24652e-11
4.32248e-11
8.7927e-11
1.01128e-10
4.62898e-11
1.17766e-10
1.27173e-10
6.28042e-11
1.41362e-10
3.44625e-10
6.17174e-10
1.01623e-09
1.21685e-09
1.07684e-09
7.27647e-10
3.23708e-10
1.22168e-10
6.67858e-11
3.94041e-10
6.08627e-10
2.69691e-10
3.20699e-11
2.65131e-10
7.07469e-10
1.04086e-09
1.27108e-09
1.19379e-09
7.11049e-10
3.76134e-10
2.25808e-10
2.38107e-10
3.26022e-10
2.09894e-10
2.09584e-10
2.87349e-10
3.28848e-10
2.3402e-10
1.52157e-10
1.30417e-10
6.79055e-11
4.19256e-11
5.35479e-11
1.30503e-10
1.83253e-10
5.32134e-11
2.26901e-10
2.93228e-10
1.0977e-10
1.28966e-10
3.77165e-10
7.05689e-10
1.27192e-09
1.56025e-09
1.34703e-09
8.61465e-10
3.3445e-10
1.24226e-10
9.47147e-11
7.74556e-10
1.21469e-09
5.85712e-10
5.75755e-11
2.60842e-10
7.6141e-10
1.15547e-09
1.47337e-09
1.40655e-09
7.42502e-10
3.30456e-10
1.92813e-10
2.87053e-10
4.50862e-10
2.51553e-10
2.96704e-10
4.04423e-10
5.1653e-10
3.64585e-10
1.9462e-10
2.09814e-10
1.06978e-10
5.16764e-11
6.31001e-11
1.90743e-10
3.43467e-10
6.21896e-11
4.30584e-10
6.11752e-10
2.23128e-10
1.27879e-10
4.29486e-10
8.0272e-10
1.60691e-09
2.00027e-09
1.68235e-09
1.01211e-09
3.29557e-10
1.30771e-10
1.32237e-10
1.38635e-09
2.19981e-09
1.12784e-09
1.25679e-10
2.50711e-10
8.09601e-10
1.25529e-09
1.68673e-09
1.67377e-09
7.50234e-10
2.55158e-10
1.54405e-10
3.54305e-10
6.29047e-10
2.99832e-10
4.15463e-10
5.49273e-10
8.05756e-10
5.50298e-10
2.26412e-10
3.36382e-10
1.63277e-10
6.22099e-11
7.55333e-11
2.74685e-10
6.47649e-10
7.67075e-11
7.79628e-10
1.16433e-09
4.44913e-10
1.51571e-10
5.13278e-10
9.03377e-10
2.04509e-09
2.55042e-09
2.09383e-09
1.17574e-09
3.04757e-10
1.47698e-10
1.77383e-10
2.32317e-09
3.71202e-09
2.00237e-09
2.52351e-10
2.37896e-10
8.57702e-10
1.32893e-09
1.91056e-09
2.03095e-09
7.34414e-10
1.67387e-10
1.27083e-10
4.43511e-10
8.94626e-10
3.54557e-10
5.69461e-10
7.22239e-10
1.24095e-09
8.12391e-10
2.32378e-10
5.3162e-10
2.41425e-10
7.95037e-11
9.44525e-11
3.90615e-10
1.20539e-09
1.01936e-10
1.34422e-09
2.05763e-09
8.27099e-10
2.20755e-10
6.43276e-10
9.99371e-10
2.61468e-09
3.21638e-09
2.59553e-09
1.34856e-09
2.67238e-10
1.82959e-10
2.32026e-10
3.71626e-09
5.93335e-09
3.35888e-09
4.54994e-10
2.30707e-10
9.1686e-10
1.36811e-09
2.14924e-09
2.54365e-09
6.97087e-10
1.15652e-10
1.41097e-10
5.62419e-10
1.30808e-09
4.17545e-10
7.65115e-10
9.23517e-10
1.87668e-09
1.19305e-09
2.14354e-10
8.25795e-10
3.47153e-10
1.29465e-10
1.34614e-10
5.62159e-10
2.19732e-09
1.48943e-10
2.22208e-09
3.43026e-09
1.43891e-09
3.71576e-10
8.40467e-10
1.08819e-09
3.3528e-09
3.99025e-09
3.20428e-09
1.53506e-09
2.47802e-10
2.58264e-10
3.1967e-10
5.7653e-09
9.08609e-09
5.42418e-09
7.60837e-10
2.53657e-10
1.01082e-09
1.37799e-09
2.42187e-09
3.32356e-09
6.60514e-10
2.0025e-10
2.45088e-10
7.3784e-10
1.97051e-09
4.97182e-10
1.01722e-09
1.14931e-09
2.78268e-09
1.7678e-09
1.86355e-10
1.26789e-09
4.9275e-10
2.81774e-10
2.23872e-10
8.3103e-10
3.90066e-09
2.32916e-10
3.55871e-09
5.46144e-09
2.37023e-09
6.82345e-10
1.14779e-09
1.19436e-09
4.30057e-09
4.84257e-09
3.94968e-09
1.75808e-09
3.09526e-10
4.14282e-10
4.86571e-10
8.80105e-09
1.34325e-08
8.58134e-09
1.21855e-09
3.53116e-10
1.15619e-09
1.38813e-09
2.79096e-09
4.57486e-09
6.85503e-10
5.92397e-10
5.17518e-10
1.02093e-09
3.05304e-09
6.24477e-10
1.34817e-09
1.40263e-09
4.03606e-09
2.6791e-09
2.19085e-10
1.94775e-09
6.9873e-10
6.83144e-10
4.08609e-10
1.29286e-09
6.7267e-09
3.8465e-10
5.56618e-09
8.38529e-09
3.69434e-09
1.27176e-09
1.59308e-09
1.33325e-09
5.48135e-09
5.71254e-09
4.88734e-09
2.05214e-09
5.35639e-10
6.99657e-10
8.06187e-10
1.33681e-08
1.92584e-08
1.35117e-08
1.89877e-09
5.83393e-10
1.4239e-09
1.45515e-09
3.37222e-09
6.66902e-09
8.89698e-10
1.55512e-09
1.08353e-09
1.52406e-09
4.80937e-09
8.79335e-10
1.79426e-09
1.7026e-09
5.75091e-09
4.17471e-09
4.2892e-10
3.04678e-09
1.02656e-09
1.60956e-09
7.57956e-10
2.11074e-09
1.12361e-08
6.458e-10
8.56501e-09
1.25266e-08
5.50892e-09
2.40092e-09
2.28959e-09
1.63305e-09
6.89929e-09
6.52877e-09
6.0799e-09
2.49577e-09
1.06512e-09
1.22767e-09
1.43687e-09
2.04112e-08
2.69266e-08
2.14481e-08
2.90936e-09
1.17724e-09
1.91985e-09
1.6804e-09
4.34943e-09
1.02169e-08
1.47042e-09
3.35019e-09
2.09454e-09
2.4241e-09
7.64798e-09
1.39912e-09
2.41675e-09
2.07654e-09
7.9788e-09
6.70846e-09
9.65136e-10
4.9184e-09
1.55109e-09
3.58509e-09
1.39174e-09
3.59737e-09
1.8138e-08
1.09588e-09
1.32043e-08
1.84158e-08
7.94942e-09
4.59526e-09
3.32743e-09
2.22748e-09
8.53741e-09
7.32383e-09
7.78367e-09
3.17148e-09
2.03041e-09
2.08917e-09
2.51743e-09
3.0948e-08
3.65624e-08
3.44541e-08
4.36929e-09
2.16921e-09
2.79436e-09
2.21604e-09
5.63506e-09
1.58515e-08
2.76051e-09
6.43826e-09
3.825e-09
3.95608e-09
1.2145e-08
2.35087e-09
3.37551e-09
2.83036e-09
1.0506e-08
1.0726e-08
2.0015e-09
7.69021e-09
2.39625e-09
7.022e-09
2.32439e-09
5.88234e-09
2.76559e-08
1.83722e-09
2.02338e-08
2.64447e-08
1.11688e-08
7.76289e-09
4.7723e-09
3.33262e-09
1.0263e-08
8.07897e-09
1.07544e-08
4.09663e-09
3.51297e-09
3.38826e-09
4.24448e-09
4.56314e-08
4.74483e-08
5.60149e-08
6.40426e-09
3.96443e-09
3.84785e-09
3.30493e-09
7.93919e-09
2.3846e-08
5.45847e-09
1.18068e-08
6.312e-09
6.44494e-09
2.08807e-08
4.36733e-09
4.61647e-09
3.74572e-09
1.4105e-08
1.57895e-08
3.75556e-09
9.20689e-09
3.72555e-09
1.10305e-08
3.81908e-09
9.39817e-09
4.13208e-08
2.92661e-09
2.99777e-08
3.80333e-08
1.39147e-08
1.37508e-08
6.65255e-09
5.30015e-09
1.12232e-08
8.68387e-09
1.54239e-08
5.27463e-09
5.21862e-09
4.94268e-09
7.04778e-09
6.71303e-08
6.04635e-08
8.59481e-08
8.50783e-09
6.33212e-09
5.4759e-09
5.14115e-09
9.23776e-09
3.40829e-08
9.22499e-09
1.95995e-08
1.08145e-08
9.50032e-09
3.46284e-08
6.57373e-09
6.02672e-09
5.68592e-09
1.46636e-08
2.31073e-08
6.53211e-09
8.45961e-09
5.56377e-09
1.48383e-08
5.21381e-09
1.51181e-08
6.53305e-08
3.93684e-09
4.64025e-08
5.65812e-08
1.66149e-08
2.48773e-08
8.47428e-09
7.53815e-09
1.18754e-08
7.54857e-09
2.27821e-08
6.38645e-09
7.31714e-09
6.76999e-09
9.72772e-09
9.11074e-08
7.06237e-08
1.23214e-07
1.14416e-08
8.34794e-09
6.67473e-09
7.00708e-09
1.13026e-08
4.41758e-08
1.3298e-08
2.89259e-08
1.64102e-08
1.40586e-08
5.08633e-08
9.19215e-09
6.62478e-09
6.51103e-09
1.49162e-08
3.4011e-08
9.68381e-09
8.35509e-09
7.49259e-09
1.60811e-08
7.15215e-09
1.96419e-08
9.84842e-08
4.88922e-09
5.80112e-08
8.00307e-08
1.81912e-08
3.49899e-08
1.02197e-08
9.77469e-09
1.56349e-08
8.13381e-09
2.46511e-08
7.01015e-09
8.5963e-09
8.01482e-09
1.32531e-08
1.34432e-07
7.99254e-08
1.35988e-07
1.53839e-08
9.69143e-09
1.08051e-08
8.93062e-09
1.63331e-08
4.92956e-08
1.66858e-08
3.08153e-08
2.36185e-08
1.84649e-08
6.47279e-08
1.26221e-08
6.72618e-09
7.5403e-09
1.84314e-08
4.38796e-08
1.44699e-08
8.46907e-09
9.59055e-09
1.5718e-08
9.35595e-09
2.49147e-08
1.28805e-07
5.0965e-09
5.90305e-08
1.12909e-07
1.6447e-08
5.51578e-08
1.09518e-08
1.20848e-08
1.90402e-08
7.79599e-09
1.95052e-08
8.0176e-09
1.09142e-08
9.23577e-09
1.68324e-08
1.70662e-07
8.73315e-08
1.36876e-07
1.47547e-08
1.06785e-08
2.19295e-08
1.0214e-08
2.49646e-08
4.99763e-08
2.05471e-08
2.63362e-08
2.6141e-08
2.2313e-08
7.32344e-08
1.2399e-08
7.08492e-09
9.02153e-09
2.08773e-08
4.51979e-08
1.92425e-08
9.12276e-09
1.06638e-08
1.66287e-08
1.1887e-08
2.95046e-08
1.26172e-07
6.05711e-09
5.12783e-08
1.20176e-07
1.62689e-08
5.71174e-08
1.1898e-08
1.30682e-08
2.42898e-08
9.76826e-09
1.73673e-08
8.75372e-09
1.23112e-08
9.95392e-09
1.93459e-08
1.87045e-07
8.65526e-08
1.4683e-07
1.36364e-08
1.16623e-08
2.32422e-08
9.98218e-09
2.88872e-08
4.71696e-08
2.22686e-08
2.21167e-08
2.79947e-08
2.2318e-08
7.27196e-08
1.37531e-08
7.95163e-09
8.32402e-09
2.82365e-08
4.44471e-08
2.446e-08
8.81925e-09
1.13251e-08
1.53003e-08
1.37726e-08
3.29261e-08
1.19219e-07
6.71842e-09
5.26851e-08
1.15201e-07
1.66085e-08
4.74211e-08
1.23509e-08
1.52641e-08
3.43031e-08
1.20336e-08
1.19524e-08
9.68977e-09
1.35165e-08
1.08912e-08
2.1606e-08
1.80176e-07
8.10512e-08
1.40732e-07
1.25133e-08
1.22523e-08
2.23591e-08
1.08298e-08
2.87121e-08
4.33724e-08
2.16175e-08
1.67497e-08
2.89525e-08
2.30204e-08
6.70803e-08
1.64875e-08
8.26044e-09
9.2763e-09
2.63401e-08
3.821e-08
2.47516e-08
8.52605e-09
1.11825e-08
1.4774e-08
1.42695e-08
3.3704e-08
1.23871e-07
7.12093e-09
4.918e-08
1.12102e-07
1.84606e-08
3.39842e-08
1.23585e-08
1.64036e-08
3.79048e-08
1.35467e-08
1.11152e-08
1.01632e-08
1.52453e-08
1.03915e-08
2.22558e-08
1.72015e-07
7.89399e-08
1.27059e-07
1.21211e-08
1.2434e-08
2.16555e-08
1.08375e-08
2.79657e-08
3.98842e-08
2.10906e-08
1.51125e-08
2.85614e-08
2.3518e-08
6.05314e-08
1.7811e-08
7.94772e-09
8.95553e-09
2.61853e-08
3.46951e-08
2.29316e-08
8.44676e-09
1.12939e-08
1.61153e-08
1.40855e-08
3.16268e-08
1.32473e-07
7.33856e-09
4.81122e-08
1.09626e-07
1.87233e-08
3.00085e-08
1.22915e-08
1.7394e-08
3.95341e-08
1.52427e-08
1.29142e-08
1.03385e-08
1.5783e-08
1.09274e-08
2.18971e-08
1.64726e-07
7.77392e-08
1.21349e-07
1.24e-08
1.24432e-08
2.14003e-08
1.11084e-08
2.58661e-08
4.13087e-08
2.11225e-08
1.59147e-08
2.83946e-08
2.40488e-08
5.67434e-08
1.7462e-08
8.57509e-09
8.92171e-09
2.58212e-08
3.19569e-08
2.22837e-08
8.82013e-09
1.169e-08
1.7332e-08
1.42381e-08
3.0433e-08
1.35526e-07
7.66204e-09
4.69084e-08
1.06182e-07
1.84775e-08
2.8805e-08
1.23388e-08
1.8256e-08
4.11121e-08
1.58104e-08
1.41058e-08
1.08452e-08
1.55185e-08
1.10071e-08
2.11081e-08
1.6159e-07
7.80768e-08
1.20136e-07
1.27014e-08
1.25334e-08
2.20153e-08
1.1389e-08
2.51873e-08
4.25193e-08
2.1286e-08
1.67976e-08
2.83538e-08
2.47356e-08
5.46703e-08
1.69905e-08
8.93718e-09
9.08646e-09
2.60431e-08
3.05207e-08
2.20353e-08
9.20087e-09
1.17913e-08
1.79409e-08
1.44858e-08
3.02213e-08
1.36226e-07
7.79148e-09
4.58205e-08
1.05166e-07
1.80012e-08
2.84656e-08
1.25798e-08
1.88462e-08
4.09143e-08
1.58169e-08
1.55132e-08
1.11041e-08
1.55648e-08
1.12767e-08
2.10759e-08
1.60881e-07
7.85438e-08
1.19743e-07
1.29175e-08
1.30479e-10
1.33579e-10
1.24148e-10
1.18601e-10
1.14453e-10
9.6995e-11
8.66274e-11
7.68914e-11
6.1761e-11
5.6581e-11
4.80333e-11
4.11026e-11
4.31467e-11
3.73023e-11
3.58807e-11
4.08149e-11
3.92488e-11
4.21193e-11
5.13279e-11
5.67483e-11
6.49217e-11
8.25096e-11
9.68089e-11
1.12854e-10
1.39447e-10
1.62403e-10
1.84112e-10
2.06098e-10
2.24912e-10
2.38873e-10
2.40241e-10
2.38066e-10
2.29789e-10
2.11071e-10
1.92962e-10
1.76984e-10
1.59422e-10
1.46512e-10
1.42879e-10
1.34552e-10
1.56767e-10
1.62473e-10
1.59376e-10
1.57441e-10
1.48888e-10
1.26746e-10
1.11124e-10
9.44403e-11
7.2908e-11
6.20531e-11
4.98957e-11
4.0933e-11
3.95868e-11
3.26998e-11
2.98061e-11
2.9712e-11
2.87785e-11
3.18717e-11
3.41957e-11
3.99648e-11
5.03254e-11
6.29472e-11
7.86027e-11
9.85581e-11
1.25599e-10
1.52743e-10
1.77144e-10
2.03066e-10
2.27367e-10
2.38618e-10
2.39869e-10
2.37563e-10
2.2325e-10
2.0311e-10
1.84294e-10
1.66831e-10
1.5385e-10
1.46839e-10
1.47602e-10
1.5054e-10
1.80721e-10
1.93356e-10
1.9935e-10
2.00137e-10
1.85527e-10
1.58638e-10
1.35088e-10
1.08721e-10
8.21613e-11
6.49549e-11
5.05643e-11
4.14236e-11
3.51812e-11
2.91942e-11
2.55505e-11
2.08028e-11
2.40234e-11
2.66664e-11
2.25839e-11
3.02279e-11
4.07334e-11
4.83625e-11
6.55506e-11
8.84269e-11
1.15667e-10
1.46658e-10
1.75673e-10
2.08353e-10
2.37932e-10
2.48113e-10
2.51316e-10
2.46164e-10
2.23708e-10
2.00664e-10
1.76889e-10
1.55866e-10
1.45739e-10
1.41749e-10
1.48484e-10
1.63943e-10
2.00571e-10
2.26002e-10
2.44284e-10
2.47235e-10
2.26512e-10
1.94435e-10
1.59007e-10
1.22445e-10
9.12459e-11
6.65289e-11
5.15025e-11
4.13673e-11
3.00896e-11
2.67672e-11
2.11557e-11
1.48854e-11
2.34494e-11
2.26877e-11
1.47816e-11
2.40905e-11
3.25626e-11
3.67957e-11
5.44467e-11
7.90893e-11
1.06621e-10
1.40666e-10
1.77527e-10
2.19369e-10
2.52477e-10
2.65885e-10
2.72897e-10
2.60339e-10
2.30436e-10
2.01509e-10
1.66975e-10
1.42193e-10
1.31296e-10
1.27863e-10
1.43608e-10
1.71219e-10
2.17079e-10
2.6174e-10
2.95672e-10
3.00679e-10
2.75045e-10
2.35042e-10
1.83705e-10
1.37396e-10
9.96499e-11
6.72482e-11
5.31105e-11
4.06006e-11
2.69124e-11
2.66729e-11
1.78793e-11
1.40367e-11
2.55847e-11
1.96235e-11
1.13969e-11
2.05749e-11
2.65833e-11
2.86925e-11
4.49737e-11
7.06898e-11
9.70209e-11
1.33503e-10
1.81133e-10
2.32399e-10
2.6945e-10
2.93056e-10
3.03844e-10
2.81084e-10
2.45911e-10
2.04429e-10
1.54823e-10
1.26776e-10
1.09699e-10
1.0655e-10
1.32075e-10
1.71022e-10
2.32132e-10
3.0256e-10
3.5507e-10
3.62869e-10
3.33342e-10
2.80088e-10
2.09654e-10
1.53011e-10
1.05997e-10
6.79291e-11
5.55882e-11
4.02593e-11
2.72106e-11
2.85408e-11
1.66037e-11
1.75666e-11
2.85723e-11
1.80717e-11
1.18246e-11
1.90733e-11
2.38621e-11
2.37896e-11
3.78552e-11
6.28797e-11
8.52067e-11
1.24221e-10
1.84095e-10
2.45072e-10
2.90993e-10
3.32033e-10
3.45059e-10
3.12842e-10
2.7147e-10
2.07724e-10
1.42709e-10
1.10177e-10
8.29062e-11
8.0998e-11
1.13336e-10
1.63775e-10
2.46453e-10
3.49281e-10
4.23385e-10
4.3645e-10
4.02664e-10
3.29184e-10
2.36382e-10
1.67145e-10
1.09929e-10
6.95356e-11
5.88986e-11
4.11163e-11
3.11647e-11
3.20158e-11
1.7926e-11
2.35023e-11
3.09626e-11
1.8152e-11
1.42135e-11
1.93577e-11
2.43141e-11
2.18106e-11
3.40226e-11
5.52493e-11
7.09505e-11
1.12591e-10
1.84779e-10
2.57787e-10
3.19916e-10
3.83703e-10
3.99749e-10
3.6138e-10
3.06651e-10
2.12368e-10
1.33361e-10
9.26839e-11
5.54718e-11
5.41524e-11
8.74162e-11
1.5049e-10
2.60029e-10
4.02069e-10
5.00762e-10
5.23631e-10
4.84025e-10
3.81915e-10
2.62299e-10
1.78252e-10
1.11807e-10
7.25093e-11
6.32303e-11
4.42888e-11
3.91168e-11
3.80456e-11
2.21874e-11
2.96644e-11
3.28507e-11
1.9421e-11
1.69154e-11
2.09067e-11
2.71334e-11
2.31658e-11
3.31395e-11
4.82647e-11
5.57493e-11
9.83297e-11
1.82511e-10
2.70836e-10
3.56333e-10
4.49853e-10
4.75107e-10
4.31737e-10
3.51952e-10
2.2169e-10
1.27948e-10
7.58416e-11
3.37736e-11
3.13533e-11
5.85573e-11
1.322e-10
2.7279e-10
4.59382e-10
5.85682e-10
6.25399e-10
5.77994e-10
4.36771e-10
2.84776e-10
1.84209e-10
1.11562e-10
7.73145e-11
6.90814e-11
5.03782e-11
5.20806e-11
4.89546e-11
2.91042e-11
3.58377e-11
3.51115e-11
2.10789e-11
1.92889e-11
2.35846e-11
3.24827e-11
2.82308e-11
3.44217e-11
4.4243e-11
4.26385e-11
8.20823e-11
1.76613e-10
2.82522e-10
3.99804e-10
5.36574e-10
5.81092e-10
5.29192e-10
4.10908e-10
2.3871e-10
1.26364e-10
6.19062e-11
2.66866e-11
2.53741e-11
3.43994e-11
1.09992e-10
2.84491e-10
5.17487e-10
6.75731e-10
7.42946e-10
6.85043e-10
4.91393e-10
3.00498e-10
1.82633e-10
1.10259e-10
8.54323e-11
7.60331e-11
5.98146e-11
7.31046e-11
6.8077e-11
3.92606e-11
4.4097e-11
4.00074e-11
2.38547e-11
2.19956e-11
2.77967e-11
4.23691e-11
3.93058e-11
3.79664e-11
4.84055e-11
3.89626e-11
6.79794e-11
1.67137e-10
2.91243e-10
4.50832e-10
6.5278e-10
7.29067e-10
6.60521e-10
4.88393e-10
2.6547e-10
1.28657e-10
5.31915e-11
4.85027e-11
5.89477e-11
2.58323e-11
8.55789e-11
2.94774e-10
5.70727e-10
7.67436e-10
8.76437e-10
8.05114e-10
5.42791e-10
3.03662e-10
1.70892e-10
1.10632e-10
9.88116e-11
8.19876e-11
7.41123e-11
1.06285e-10
9.85359e-11
5.43134e-11
5.62248e-11
4.99761e-11
3.05129e-11
2.72371e-11
3.49099e-11
6.07233e-11
6.28324e-11
4.45568e-11
7.03235e-11
6.13049e-11
6.38875e-11
1.53465e-10
2.96598e-10
5.11723e-10
8.11107e-10
9.32972e-10
8.34757e-10
5.89549e-10
3.01964e-10
1.34715e-10
5.25089e-11
1.21134e-10
1.63431e-10
4.70889e-11
6.26959e-11
3.01289e-10
6.12688e-10
8.5786e-10
1.02508e-09
9.38223e-10
5.88112e-10
2.92568e-10
1.48905e-10
1.17578e-10
1.19271e-10
8.33722e-11
9.71731e-11
1.55501e-10
1.45134e-10
7.71077e-11
7.2466e-11
6.83763e-11
4.54525e-11
3.81793e-11
4.69089e-11
9.35168e-11
1.13422e-10
5.49447e-11
1.27065e-10
1.39597e-10
8.33156e-11
1.35882e-10
3.00112e-10
5.84217e-10
1.02695e-09
1.20949e-09
1.0615e-09
7.18889e-10
3.45118e-10
1.44791e-10
6.20292e-11
2.73488e-10
3.80829e-10
1.17412e-10
4.7749e-11
3.01621e-10
6.39234e-10
9.43752e-10
1.18608e-09
1.08418e-09
6.25258e-10
2.62054e-10
1.20638e-10
1.38052e-10
1.48238e-10
7.87904e-11
1.33937e-10
2.24551e-10
2.16084e-10
1.10368e-10
9.22109e-11
1.01715e-10
7.54536e-11
5.99105e-11
6.74448e-11
1.49389e-10
2.19097e-10
7.02692e-11
2.47816e-10
3.20481e-10
1.48864e-10
1.19445e-10
3.0755e-10
6.69654e-10
1.32137e-09
1.58007e-09
1.35202e-09
8.79931e-10
3.88788e-10
1.61234e-10
8.40108e-11
5.41613e-10
7.66021e-10
2.61987e-10
4.92973e-11
2.94536e-10
6.51893e-10
1.02216e-09
1.35638e-09
1.24329e-09
6.54472e-10
2.14729e-10
9.74371e-11
1.81369e-10
1.88259e-10
6.80461e-11
1.89762e-10
3.18094e-10
3.22487e-10
1.54353e-10
1.1139e-10
1.58673e-10
1.27731e-10
9.67645e-11
1.00674e-10
2.39048e-10
4.3038e-10
9.29806e-11
4.77312e-10
6.7253e-10
2.89432e-10
1.11867e-10
3.26776e-10
7.68418e-10
1.72573e-09
2.06805e-09
1.71929e-09
1.07251e-09
4.22068e-10
1.89501e-10
1.22641e-10
9.68844e-10
1.39013e-09
5.13469e-10
7.85038e-11
2.83998e-10
6.63057e-10
1.09176e-09
1.53306e-09
1.4173e-09
6.80378e-10
1.63412e-10
1.01882e-10
2.63143e-10
2.44113e-10
5.68834e-11
2.72125e-10
4.44391e-10
4.768e-10
2.09431e-10
1.33494e-10
2.56097e-10
2.14796e-10
1.59581e-10
1.54599e-10
3.74346e-10
8.35885e-10
1.28045e-10
8.80268e-10
1.28963e-09
5.4511e-10
1.28422e-10
3.7313e-10
8.80819e-10
2.28749e-09
2.69721e-09
2.17579e-09
1.29256e-09
4.41417e-10
2.38638e-10
1.84715e-10
1.60761e-09
2.34704e-09
9.13138e-10
1.50163e-10
2.88259e-10
6.97305e-10
1.15637e-09
1.71675e-09
1.60768e-09
7.16843e-10
1.43171e-10
1.72785e-10
4.07897e-10
3.27869e-10
6.51688e-11
3.92019e-10
6.13076e-10
6.87598e-10
2.75705e-10
1.60829e-10
4.16961e-10
3.50139e-10
2.62034e-10
2.42355e-10
5.70702e-10
1.57814e-09
1.8367e-10
1.54321e-09
2.29014e-09
9.54389e-10
1.84232e-10
4.65388e-10
1.01372e-09
3.07773e-09
3.48838e-09
2.7364e-09
1.5376e-09
4.48516e-10
3.25783e-10
2.89923e-10
2.52419e-09
3.75812e-09
1.51383e-09
2.84426e-10
3.37337e-10
7.97713e-10
1.22772e-09
1.91328e-09
1.82776e-09
7.9676e-10
2.19239e-10
3.7882e-10
6.58376e-10
4.63829e-10
1.50462e-10
5.7773e-10
8.43647e-10
9.63505e-10
3.57587e-10
2.17898e-10
6.83994e-10
5.49843e-10
4.25489e-10
3.87105e-10
8.44264e-10
2.87243e-09
2.725e-10
2.57405e-09
3.81874e-09
1.55578e-09
3.06495e-10
6.33726e-10
1.17941e-09
4.19672e-09
4.44389e-09
3.41765e-09
1.80675e-09
4.70232e-10
4.81824e-10
4.7589e-10
3.79934e-09
5.78104e-09
2.38168e-09
5.09484e-10
5.01052e-10
1.03319e-09
1.33056e-09
2.13728e-09
2.08838e-09
9.70878e-10
5.04682e-10
8.3064e-10
1.08999e-09
6.91117e-10
4.47674e-10
8.82796e-10
1.16562e-09
1.305e-09
4.62569e-10
3.502e-10
1.12588e-09
8.49118e-10
7.01984e-10
6.47437e-10
1.23649e-09
5.02812e-09
4.18011e-10
4.09487e-09
6.03865e-09
2.36119e-09
5.3825e-10
9.3202e-10
1.41702e-09
5.78574e-09
5.56463e-09
4.23682e-09
2.09786e-09
5.72511e-10
7.60661e-10
8.02706e-10
5.54053e-09
8.64532e-09
3.62214e-09
8.852e-10
8.45837e-10
1.52765e-09
1.5212e-09
2.44496e-09
2.43322e-09
1.31915e-09
1.17158e-09
1.68382e-09
1.79806e-09
1.08413e-09
1.23931e-09
1.42181e-09
1.61319e-09
1.71574e-09
6.15761e-10
6.45355e-10
1.83712e-09
1.26745e-09
1.13996e-09
1.09366e-09
1.7964e-09
8.43714e-09
6.48712e-10
6.22213e-09
9.11074e-09
3.34891e-09
9.39476e-10
1.41302e-09
1.78597e-09
8.02297e-09
6.85319e-09
5.23143e-09
2.45264e-09
9.10111e-10
1.31353e-09
1.37275e-09
7.87954e-09
1.26415e-08
5.34234e-09
1.45654e-09
1.50027e-09
2.50855e-09
1.86992e-09
2.8785e-09
2.92503e-09
1.96378e-09
2.52369e-09
3.22372e-09
3.00109e-09
1.77242e-09
3.03659e-09
2.47992e-09
2.25298e-09
2.18235e-09
8.37661e-10
1.22507e-09
2.98435e-09
1.91469e-09
1.88109e-09
1.8887e-09
2.65902e-09
1.35477e-08
1.01325e-09
9.08437e-09
1.3193e-08
4.50759e-09
1.63832e-09
2.18361e-09
2.43839e-09
1.11131e-08
8.31418e-09
6.42539e-09
2.89827e-09
1.69811e-09
2.37588e-09
2.27697e-09
1.0967e-08
1.82524e-08
7.69908e-09
2.34031e-09
2.58119e-09
4.20298e-09
2.55393e-09
3.60075e-09
3.68403e-09
3.03108e-09
4.97645e-09
5.66678e-09
4.847e-09
2.99917e-09
6.65913e-09
4.46434e-09
3.09753e-09
2.7712e-09
1.20515e-09
2.24061e-09
4.77594e-09
2.81635e-09
3.19053e-09
3.22419e-09
4.03885e-09
2.07645e-08
1.57558e-09
1.27328e-08
1.83923e-08
5.72264e-09
2.84977e-09
3.38059e-09
3.6775e-09
1.53492e-08
9.98585e-09
7.83418e-09
3.58897e-09
3.30821e-09
4.62012e-09
3.75868e-09
1.48512e-08
2.60607e-08
1.06427e-08
3.40191e-09
4.19396e-09
7.08623e-09
3.60343e-09
4.57914e-09
4.55623e-09
4.72948e-09
9.17131e-09
9.63165e-09
7.38925e-09
4.91102e-09
1.36911e-08
8.2394e-09
4.26501e-09
3.31887e-09
1.74829e-09
3.92592e-09
7.74676e-09
4.10451e-09
4.75634e-09
5.13689e-09
5.67834e-09
3.1053e-08
2.4144e-09
1.75766e-08
2.45398e-08
7.04019e-09
4.70467e-09
5.04689e-09
5.90646e-09
2.14352e-08
1.14981e-08
9.55784e-09
4.4942e-09
5.80265e-09
8.89023e-09
5.45817e-09
1.93814e-08
3.6991e-08
1.36208e-08
4.52503e-09
6.06136e-09
1.06839e-08
4.9463e-09
6.12759e-09
5.48339e-09
6.57044e-09
1.38701e-08
1.50819e-08
1.08668e-08
8.11633e-09
2.76408e-08
1.38875e-08
5.57921e-09
5.24805e-09
2.54948e-09
6.15029e-09
1.16218e-08
5.33225e-09
7.67654e-09
7.52093e-09
7.94838e-09
4.24123e-08
3.48715e-09
2.27951e-08
3.37533e-08
7.90656e-09
7.02551e-09
7.00482e-09
8.85203e-09
2.89412e-08
1.32702e-08
1.01749e-08
5.83262e-09
9.42019e-09
1.49191e-08
8.09594e-09
2.66488e-08
5.2217e-08
1.65918e-08
5.43404e-09
8.78274e-09
1.30271e-08
6.71165e-09
7.45825e-09
6.63525e-09
9.30668e-09
2.41729e-08
2.42046e-08
1.6121e-08
1.31938e-08
4.56033e-08
2.10862e-08
6.89128e-09
8.0837e-09
3.73283e-09
9.64407e-09
1.72883e-08
6.9772e-09
1.04506e-08
9.17443e-09
1.0677e-08
4.40085e-08
4.76428e-09
2.95817e-08
4.07745e-08
8.74947e-09
9.4016e-09
8.75417e-09
1.43823e-08
3.98245e-08
1.84246e-08
1.04425e-08
6.82353e-09
1.97998e-08
2.4841e-08
1.05824e-08
3.34654e-08
7.02217e-08
2.0403e-08
6.92926e-09
1.17877e-08
1.3381e-08
8.84883e-09
9.50083e-09
7.23686e-09
1.07117e-08
3.5657e-08
3.356e-08
2.22344e-08
1.57773e-08
5.9129e-08
2.38562e-08
7.66337e-09
1.31875e-08
4.43235e-09
1.33015e-08
2.39567e-08
7.92579e-09
1.48563e-08
1.31451e-08
1.38731e-08
3.20647e-08
5.82567e-09
3.47794e-08
4.85852e-08
1.11508e-08
1.15326e-08
1.03077e-08
2.35738e-08
4.43899e-08
1.80498e-08
9.52959e-09
8.36927e-09
2.67238e-08
3.77032e-08
1.55823e-08
3.71988e-08
8.56648e-08
2.43275e-08
7.3624e-09
1.3091e-08
1.27769e-08
1.19447e-08
9.81198e-09
9.39552e-09
1.33197e-08
3.94e-08
3.92206e-08
3.00206e-08
1.74536e-08
7.11114e-08
2.01393e-08
8.50722e-09
1.79812e-08
4.34779e-09
1.53983e-08
2.64994e-08
8.94925e-09
1.84894e-08
1.52581e-08
1.74565e-08
2.03049e-08
8.65169e-09
4.36419e-08
5.09536e-08
1.48184e-08
1.37985e-08
1.1193e-08
2.62817e-08
4.58617e-08
2.12908e-08
7.41119e-09
9.56686e-09
3.95636e-08
4.9902e-08
1.74242e-08
3.92883e-08
9.89341e-08
3.10526e-08
8.52599e-09
1.3552e-08
1.44931e-08
1.49909e-08
1.16277e-08
1.19585e-08
1.56229e-08
3.50183e-08
4.1386e-08
3.97332e-08
2.69791e-08
8.76355e-08
1.88893e-08
8.80351e-09
1.98532e-08
4.90811e-09
1.61209e-08
2.45453e-08
9.66449e-09
2.08259e-08
2.07277e-08
1.94901e-08
1.82809e-08
6.95642e-09
7.11498e-08
5.02884e-08
1.85278e-08
1.59565e-08
1.18051e-08
3.2497e-08
4.19703e-08
1.47993e-08
7.7209e-09
1.0536e-08
2.87246e-08
5.52158e-08
1.71148e-08
3.8222e-08
1.13425e-07
3.09311e-08
1.03671e-08
1.54556e-08
1.68467e-08
1.55733e-08
1.28702e-08
1.32022e-08
1.64902e-08
2.90744e-08
3.68611e-08
4.60561e-08
2.53565e-08
9.66475e-08
1.64834e-08
9.90671e-09
1.83106e-08
4.92661e-09
1.53279e-08
2.29819e-08
1.02253e-08
2.03952e-08
1.67164e-08
2.28787e-08
1.85958e-08
9.45058e-09
8.14396e-08
4.99222e-08
1.94654e-08
1.80813e-08
1.21459e-08
4.44704e-08
3.92866e-08
1.69613e-08
8.8722e-09
1.12329e-08
2.41571e-08
5.22126e-08
1.42642e-08
3.36606e-08
1.13299e-07
3.23254e-08
1.04174e-08
1.70353e-08
1.81423e-08
1.57186e-08
1.78464e-08
1.56934e-08
1.73217e-08
2.39495e-08
3.24136e-08
5.01355e-08
2.32515e-08
9.60689e-08
1.49127e-08
1.07635e-08
1.67988e-08
4.7895e-09
1.46344e-08
2.2353e-08
1.0876e-08
2.10806e-08
1.27697e-08
2.37195e-08
2.51206e-08
8.75485e-09
8.96625e-08
5.11849e-08
1.86294e-08
1.97773e-08
1.29387e-08
4.57402e-08
3.82763e-08
1.79628e-08
9.05086e-09
1.10861e-08
2.34354e-08
4.7305e-08
1.4536e-08
3.38533e-08
1.09403e-07
2.91506e-08
1.02828e-08
1.62153e-08
1.83576e-08
1.56076e-08
2.00924e-08
1.59282e-08
1.70225e-08
2.16501e-08
2.99838e-08
4.9947e-08
2.28543e-08
9.05836e-08
1.29803e-08
1.14524e-08
1.39934e-08
4.86463e-09
1.43528e-08
2.31334e-08
1.12722e-08
2.24272e-08
1.23766e-08
2.42182e-08
3.01687e-08
9.143e-09
9.09799e-08
5.57015e-08