/*--------------------------------*- C++ -*----------------------------------*\
  =========                 |
  \\      /  F ield         | OpenFOAM: The Open Source CFD Toolbox
   \\    /   O peration     | Website:  https://openfoam.org
    \\  /    A nd           | Version:  10
     \\/     M anipulation  |
\*---------------------------------------------------------------------------*/
FoamFile
{
    format      ascii;
    class       surfaceScalarField;
    location    "11";
    object      phi;
}
// * * * * * * * * * * * * * * * * * * * * * * * * * * * * * * * * * * * * * //

dimensions      [0 3 -1 0 0 0 0];

internalField   nonuniform List<scalar> 
74080
(
0.000648574
2.43533e-08
2.322e-09
0.000648572
1.79145e-08
-7.94884e-09
0.000648564
3.11272e-08
-1.0699e-09
0.000648557
2.13852e-08
5.57026e-09
0.000648549
2.10298e-08
9.43213e-09
0.000648549
2.16355e-08
7.28662e-09
0.000648546
2.27283e-08
5.31541e-09
0.000648542
3.19852e-08
1.14616e-08
0.000648551
2.56104e-08
1.07391e-08
0.000648558
3.5008e-08
1.1172e-08
0.000648571
4.03029e-08
8.10068e-09
0.000648575
4.86922e-08
6.6069e-09
0.000648571
6.33351e-08
7.99724e-09
0.000648568
5.6643e-08
1.04054e-08
0.000648564
5.9326e-08
1.07848e-08
0.000648562
5.34245e-08
7.91083e-09
0.000648553
5.759e-08
7.49902e-09
0.000648542
5.67587e-08
3.59706e-09
0.000648541
3.9066e-08
1.71355e-09
0.000648544
2.69534e-08
-5.60747e-10
0.00064855
1.40836e-08
-9.10925e-10
0.000648551
1.25557e-08
-2.38464e-09
0.000648556
-1.41468e-08
-9.06657e-11
0.000648558
-1.18652e-08
-2.89215e-09
0.000648571
-3.32721e-08
-7.14446e-10
0.000648577
-3.83276e-08
2.16523e-09
0.000648585
-3.2385e-08
-4.24379e-09
0.00064858
-4.15003e-08
7.07221e-09
0.000648585
-4.33575e-08
1.59602e-09
0.000648595
-4.52015e-08
3.37429e-09
0.000648591
-4.29511e-08
1.09963e-08
0.000648602
-3.85366e-08
-2.19947e-09
0.000648595
-2.65507e-08
1.40985e-08
0.000648589
-2.34408e-08
1.01778e-08
0.000648603
-2.96903e-08
-3.59726e-09
0.000648603
-3.58225e-09
7.64268e-09
0.000648591
-6.63454e-10
9.90495e-09
0.000648586
1.27236e-08
-3.97634e-09
0.000648592
9.07878e-09
-4.5048e-09
1.65594e-08
4.0336e-09
0.000594803
3.75443e-08
5.94049e-09
0.000594808
3.43645e-08
-1.43655e-08
0.000594799
5.84341e-08
-6.74653e-09
0.000594787
3.08933e-08
7.80283e-09
0.000594774
3.03796e-08
1.48324e-08
0.00059478
2.29078e-08
4.06104e-09
0.000594786
3.05887e-08
-3.97567e-09
0.000594787
4.0615e-08
5.24772e-09
0.000594794
1.79033e-08
8.73452e-09
0.000594791
3.45747e-08
1.92504e-08
0.000594794
3.43155e-08
1.59529e-08
0.00059479
5.33074e-08
1.39691e-08
0.000594781
7.39235e-08
1.44247e-08
0.00059478
5.9502e-08
1.45751e-08
0.000594779
6.34258e-08
1.55783e-08
0.000594785
5.02596e-08
1.20125e-08
0.000594776
6.8431e-08
1.34912e-08
0.000594765
6.75758e-08
6.22475e-09
0.000594765
3.79998e-08
4.35755e-09
0.000594769
2.42927e-08
-2.33636e-09
0.000594776
6.74438e-09
-1.67287e-09
0.000594776
1.39526e-08
-8.07414e-09
0.000594782
-2.69785e-08
-3.53257e-09
0.000594783
-1.29223e-08
-1.22518e-08
0.000594798
-5.07023e-08
-4.11801e-09
0.00059481
-5.29853e-08
-4.55107e-09
0.000594814
-3.08637e-08
-1.1233e-08
0.000594809
-4.89963e-08
7.21268e-09
0.000594819
-4.67341e-08
-5.5873e-09
0.000594822
-5.03949e-08
4.42008e-09
0.000594828
-5.63047e-08
9.5933e-09
0.000594839
-3.4303e-08
-8.1663e-09
0.000594824
-2.35788e-08
2.24261e-08
0.000594824
-2.7693e-08
1.056e-08
0.000594843
-2.99348e-08
-8.71314e-09
0.000594837
4.20294e-09
1.27997e-08
0.000594824
6.28604e-09
1.7813e-08
0.000594821
3.46145e-08
-7.24441e-09
0.000594827
1.79711e-08
-6.35794e-09
2.94377e-08
1.27043e-08
0.000541636
4.98803e-08
5.57773e-09
0.000541639
5.49048e-08
-1.31537e-08
0.000541623
9.54317e-08
-5.1336e-09
0.000541613
4.15948e-08
4.65454e-09
0.000541601
4.3439e-08
1.34155e-08
0.000541614
2.00612e-08
1.75177e-09
0.000541617
4.25813e-08
-3.49979e-09
0.000541618
5.18179e-08
7.35146e-09
0.000541627
9.58001e-09
5.2953e-09
0.000541623
3.82352e-08
2.13797e-08
0.000541634
2.46029e-08
1.4495e-08
0.000541624
6.41765e-08
1.69217e-08
0.00054161
8.98035e-08
1.907e-08
0.000541608
6.49127e-08
2.06146e-08
0.000541607
7.05977e-08
2.26537e-08
0.00054162
4.2706e-08
1.75774e-08
0.000541604
8.80061e-08
2.163e-08
0.000541589
8.31707e-08
8.21377e-09
0.000541589
3.92245e-08
6.55564e-09
0.000541593
2.37516e-08
-4.92214e-09
0.000541602
-2.50835e-09
-2.80688e-09
0.000541599
1.83814e-08
-1.15393e-08
0.000541606
-4.45562e-08
-7.11694e-09
0.000541601
-7.15591e-09
-1.96986e-08
0.000541624
-7.79114e-08
-7.16405e-09
0.00054164
-7.184e-08
-9.85519e-09
0.000541638
-2.41475e-08
-1.5286e-08
0.000541636
-6.17952e-08
4.09754e-09
0.000541641
-4.69006e-08
-4.08827e-09
0.000541647
-5.83604e-08
1.84341e-09
0.000541662
-7.94683e-08
7.48964e-09
0.000541665
-2.52376e-08
-4.36993e-09
0.000541651
-2.15112e-08
2.68234e-08
0.000541653
-3.4805e-08
9.36581e-09
0.000541674
-3.11023e-08
-4.04678e-09
0.00054167
1.39029e-08
1.48672e-08
0.000541658
1.50927e-08
2.12042e-08
0.000541648
6.36935e-08
-2.63405e-09
0.000541656
2.73751e-08
-3.30849e-09
4.92259e-08
1.34011e-08
0.000492915
5.89228e-08
5.35345e-09
0.000492908
8.48533e-08
-1.10907e-08
0.000492885
1.44261e-07
-1.69608e-09
0.000492877
5.31701e-08
1.62772e-09
0.000492867
6.02679e-08
1.33417e-08
0.000492891
1.02437e-08
-1.23178e-09
0.000492885
6.43238e-08
-1.37938e-09
0.000492886
6.67547e-08
1.01977e-08
0.000492896
2.13343e-09
1.42124e-10
0.000492895
4.32178e-08
2.57887e-08
0.000492919
4.03465e-09
1.14694e-08
0.000492899
8.31933e-08
2.06877e-08
0.000492881
1.10935e-07
2.23762e-08
0.000492874
7.69405e-08
2.62915e-08
0.000492874
8.02907e-08
2.91053e-08
0.000492899
2.7901e-08
2.23239e-08
0.000492869
1.2077e-07
3.10449e-08
0.000492852
1.03475e-07
8.70938e-09
0.000492849
4.57449e-08
7.84534e-09
0.000492855
2.45147e-08
-9.88748e-09
0.00049287
-1.65499e-08
-3.69857e-09
0.000492862
2.60226e-08
-1.6111e-08
0.000492871
-6.7393e-08
-1.02478e-08
0.000492857
1.03513e-08
-2.9482e-08
0.000492895
-1.22812e-07
-8.3667e-09
0.000492914
-9.33527e-08
-1.63031e-08
0.000492905
-1.25528e-08
-1.90185e-08
0.000492906
-8.06033e-08
1.64247e-09
0.000492902
-3.68038e-08
-1.72154e-09
0.000492916
-7.47179e-08
-9.94247e-10
0.000492942
-1.13503e-07
4.46925e-09
0.000492933
-7.87016e-09
1.84858e-09
0.000492922
-2.40887e-08
3.37793e-08
0.000492924
-4.09633e-08
6.41591e-09
0.000492946
-3.3379e-08
2.82311e-09
0.00049295
2.07619e-08
1.83001e-08
0.000492932
2.96623e-08
2.67431e-08
0.000492914
1.04025e-07
3.36443e-09
0.000492925
3.64235e-08
1.9767e-09
7.72776e-08
1.54486e-08
0.000448544
5.89106e-08
5.2467e-09
0.000448523
1.28213e-07
-7.36858e-09
0.000448492
2.06373e-07
4.79718e-09
0.000448481
7.03379e-08
-2.23481e-09
0.000448476
8.01931e-08
1.39027e-08
0.000448517
-1.19339e-08
-5.23046e-09
0.000448497
9.98926e-08
3.64752e-09
0.000448499
8.56201e-08
1.34287e-08
0.000448505
7.46065e-10
-6.48716e-09
0.000448511
4.6575e-08
3.15283e-08
0.000448553
-3.12286e-08
4.03504e-09
0.000448518
1.15837e-07
2.37583e-08
0.000448498
1.37916e-07
2.28641e-08
0.000448481
1.01708e-07
3.18789e-08
0.000448488
8.79849e-08
3.53557e-08
0.000448527
1.94203e-09
2.72547e-08
0.000448481
1.70718e-07
4.21926e-08
0.000448462
1.28028e-07
7.93342e-09
0.000448452
6.40012e-08
8.27862e-09
0.000448463
2.4056e-08
-1.76917e-08
0.000448488
-3.89922e-08
-4.1253e-09
0.000448474
3.75576e-08
-2.19298e-08
0.000448482
-9.35211e-08
-1.25913e-08
0.000448455
4.51692e-08
-4.1929e-08
0.000448516
-1.94381e-07
-7.42723e-09
0.000448537
-1.15678e-07
-2.44048e-08
0.000448521
3.68573e-09
-2.26584e-08
0.000448523
-1.03862e-07
-7.35539e-10
0.000448503
-8.22061e-09
2.41356e-09
0.000448532
-1.05667e-07
-6.75613e-09
0.000448572
-1.60772e-07
8.33244e-10
0.000448546
2.19181e-08
1.08564e-08
0.000448539
-3.40306e-08
4.17607e-08
0.000448538
-4.14143e-08
1.84799e-09
0.000448565
-3.96645e-08
1.24139e-08
0.00044858
2.18251e-08
2.14627e-08
0.000448552
5.34298e-08
3.50148e-08
0.000448525
1.55333e-07
1.2481e-08
0.000448537
4.78191e-08
9.87882e-09
1.15772e-07
1.83355e-08
0.000408151
4.46384e-08
5.54518e-09
0.00040811
1.90025e-07
-2.43326e-09
0.000408073
2.82011e-07
1.49851e-08
0.000408053
9.98477e-08
-6.33686e-09
0.000408059
9.78803e-08
1.57627e-08
0.000408121
-5.11051e-08
-9.9757e-09
0.000408082
1.53378e-07
1.24125e-08
0.000408085
1.10302e-07
1.6148e-08
0.00040808
1.40611e-08
-1.48187e-08
0.000408102
4.02043e-08
3.98623e-08
0.000408166
-8.56139e-08
-8.50933e-09
0.000408113
1.65372e-07
2.72824e-08
0.000408089
1.72019e-07
1.94537e-08
0.000408055
1.48919e-07
3.71733e-08
0.000408077
8.56057e-08
4.05909e-08
0.000408133
-3.72124e-08
3.22664e-08
0.000408068
2.39949e-07
5.49895e-08
0.000408047
1.58068e-07
5.94046e-09
0.000408021
1.03681e-07
7.26064e-09
0.000408045
1.63351e-08
-2.89334e-08
0.000408083
-7.27053e-08
-3.70263e-09
0.000408061
5.31785e-08
-2.93335e-08
0.000408064
-1.18874e-07
-1.29718e-08
0.000408023
1.03047e-07
-5.77868e-08
0.000408114
-3.03911e-07
-3.39221e-09
0.000408134
-1.35489e-07
-3.44082e-08
0.000408116
2.04788e-08
-2.61932e-08
0.000408113
-1.26422e-07
-1.90927e-09
0.00040807
4.89313e-08
7.51931e-09
0.000408127
-1.62517e-07
-1.51298e-08
0.000408177
-2.18742e-07
-5.0916e-09
0.000408132
6.52036e-08
2.17239e-08
0.000408133
-5.4251e-08
5.12555e-08
0.00040812
-2.79464e-08
-3.91096e-09
0.00040816
-5.85814e-08
2.53745e-08
0.00040819
1.37742e-08
2.41795e-08
0.000408145
9.14819e-08
4.65751e-08
0.00040811
2.17956e-07
2.4501e-08
0.000408118
6.70716e-08
1.99941e-08
1.63302e-07
2.3868e-08
0.000371384
1.14886e-08
5.95049e-09
0.00037132
2.71399e-07
5.19896e-09
0.000371275
3.71974e-07
3.05166e-08
0.000371236
1.51299e-07
-1.09701e-08
0.000371266
1.03179e-07
1.94099e-08
0.00037135
-1.10647e-07
-1.49604e-08
0.000371291
2.25889e-07
2.59044e-08
0.000371292
1.46376e-07
1.78092e-08
0.000371268
5.27727e-08
-2.34314e-08
0.000371318
1.13018e-08
5.07079e-08
0.000371404
-1.60254e-07
-2.5373e-08
0.000371331
2.31855e-07
3.11869e-08
0.000371302
2.18281e-07
1.07937e-08
0.000371243
2.28489e-07
4.39391e-08
0.00037129
6.11646e-08
4.43327e-08
0.000371364
-9.03775e-08
3.80473e-08
0.000371281
3.26515e-07
6.94381e-08
0.000371255
1.99289e-07
3.60082e-09
0.000371205
1.75755e-07
3.76261e-09
0.000371251
-8.2965e-09
-4.39831e-08
0.000371302
-1.18646e-07
-3.01761e-09
0.000371275
7.1704e-08
-3.85947e-08
0.000371264
-1.36091e-07
-1.00195e-08
0.000371208
1.88278e-07
-7.79955e-08
0.000371337
-4.62271e-07
3.80902e-09
0.000371355
-1.50559e-07
-4.61875e-08
0.00037134
2.92706e-08
-2.89817e-08
0.000371322
-1.36243e-07
-2.1083e-09
0.000371251
1.42589e-07
1.37226e-08
0.000371347
-2.58127e-07
-2.674e-08
0.000371404
-2.82433e-07
-1.34176e-08
0.000371344
1.18084e-07
3.37053e-08
0.000371348
-8.34892e-08
6.26865e-08
0.000371315
9.08754e-09
-1.06817e-08
0.000371381
-1.04449e-07
4.25669e-08
0.000371426
-3.86776e-09
2.56752e-08
0.000371359
1.46757e-07
6.23878e-08
0.000371316
2.91697e-07
3.99366e-08
0.000371316
1.02839e-07
3.25667e-08
2.14523e-07
3.36171e-08
0.00033792
-4.425e-08
6.4687e-09
0.000337831
3.67956e-07
1.68844e-08
0.000337778
4.78512e-07
5.45374e-08
0.00033771
2.34881e-07
-1.56713e-08
0.000337775
8.17996e-08
2.56539e-08
0.000337881
-1.92591e-07
-1.90116e-08
0.000337804
3.13508e-07
4.55095e-08
0.000337796
2.04645e-07
1.96084e-08
0.000337744
1.24596e-07
-3.00176e-08
0.000337838
-5.61978e-08
6.44577e-08
0.000337944
-2.57577e-07
-4.60961e-08
0.000337855
3.108e-07
3.55855e-08
0.000337813
2.86961e-07
-3.03997e-09
0.000337721
3.47467e-07
5.29814e-08
0.000337807
5.32846e-10
4.59769e-08
0.000337897
-1.5773e-07
4.54152e-08
0.000337802
4.23559e-07
8.5075e-08
0.000337759
2.6418e-07
3.11065e-09
0.00033768
2.89197e-07
-4.13001e-09
0.000337762
-6.27448e-08
-6.26688e-08
0.000337824
-1.77406e-07
-1.9563e-09
0.000337794
8.90513e-08
-4.88538e-08
0.000337759
-1.34242e-07
-1.67067e-09
0.000337689
3.02781e-07
-1.03229e-07
0.000337861
-6.78504e-07
1.50136e-08
0.000337878
-1.6285e-07
-5.91698e-08
0.000337876
1.86169e-08
-3.06182e-08
0.000337822
-1.14122e-07
-4.67701e-10
0.000337727
2.74516e-07
2.07125e-08
0.000337871
-4.02789e-07
-4.1213e-08
0.000337928
-3.46168e-07
-2.5339e-08
0.000337862
1.70599e-07
4.61863e-08
0.00033786
-1.13996e-07
7.78572e-08
0.000337802
7.41907e-08
-1.64461e-08
0.000337908
-1.96711e-07
6.51627e-08
0.000337964
-3.00783e-08
2.63863e-08
0.000337874
2.17409e-07
8.31865e-08
0.000337822
3.78048e-07
5.93404e-08
0.000337806
1.62338e-07
5.05618e-08
2.60458e-07
5.02123e-08
0.000307462
-1.27266e-07
7.13753e-09
0.000307355
4.67723e-07
3.47007e-08
0.000307284
6.05643e-07
9.18643e-08
0.000307181
3.56864e-07
-1.81443e-08
0.000307295
1.75057e-08
3.61819e-08
0.000307421
-2.99057e-07
-2.00216e-08
0.000307331
4.06547e-07
7.30034e-08
0.000307299
3.00452e-07
2.45151e-08
0.000307218
2.32906e-07
-3.21833e-08
0.000307369
-1.80848e-07
8.26099e-08
0.000307491
-3.78665e-07
-6.91912e-08
0.000307394
3.93044e-07
4.04277e-08
0.000307324
3.91385e-07
-1.81457e-08
0.000307197
5.0842e-07
6.56028e-08
0.000307334
-1.11806e-07
4.64915e-08
0.000307437
-2.42617e-07
5.63094e-08
0.000307342
5.20136e-07
1.01706e-07
0.000307262
3.71163e-07
8.35285e-09
0.000307155
4.4863e-07
-1.83321e-08
0.000307284
-1.6037e-07
-8.31413e-08
0.000307353
-2.49685e-07
-1.59122e-09
0.000307328
9.8522e-08
-5.90008e-08
0.000307253
-1.02945e-07
1.87254e-08
0.000307174
4.46214e-07
-1.34294e-07
0.000307389
-9.59213e-07
3.29836e-08
0.000307413
-1.82028e-07
-7.34194e-08
0.00030743
-2.34897e-08
-2.98388e-08
0.000307317
-3.87658e-08
7.87944e-09
0.000307209
4.39299e-07
2.90249e-08
0.000307402
-6.0109e-07
-5.71233e-08
0.000307457
-4.08657e-07
-4.25149e-08
0.000307398
2.0872e-07
5.83607e-08
0.000307369
-1.31623e-07
9.97735e-08
0.00030729
1.63295e-07
-1.88763e-08
0.000307448
-3.56242e-07
9.55567e-08
0.000307508
-6.32418e-08
2.70595e-08
0.000307399
2.95762e-07
1.09707e-07
0.000307331
4.80657e-07
8.38084e-08
0.000307296
2.50306e-07
7.62802e-08
2.90412e-07
7.74585e-08
0.000279742
-2.47391e-07
9.85683e-09
0.000279626
5.50532e-07
6.15427e-08
0.000279523
7.57157e-07
1.49922e-07
0.000279383
5.16826e-07
-1.44237e-08
0.000279556
-1.05592e-07
5.38212e-08
0.000279701
-4.36236e-07
-1.43448e-08
0.000279608
4.89683e-07
1.10754e-07
0.00027953
4.52689e-07
3.77726e-08
0.000279424
3.73907e-07
-2.70722e-08
0.000279639
-3.78258e-07
1.07757e-07
0.000279778
-5.31774e-07
-9.11166e-08
0.000279682
4.67306e-07
4.50178e-08
0.000279564
5.49195e-07
-3.176e-08
0.000279407
7.06058e-07
8.42135e-08
0.000279598
-2.90034e-07
4.83986e-08
0.00027972
-3.58286e-07
7.3801e-08
0.000279633
6.05668e-07
1.19344e-07
0.000279494
5.4248e-07
2.3852e-08
0.000279366
6.51175e-07
-3.86656e-08
0.000279546
-3.12482e-07
-1.0253e-07
0.000279622
-3.41978e-07
-1.54424e-09
0.000279609
9.10042e-08
-6.6032e-08
0.000279478
-2.9809e-08
5.33844e-08
0.000279398
6.14958e-07
-1.70628e-07
0.000279648
-1.30859e-06
6.06189e-08
0.000279696
-2.26654e-07
-8.73323e-08
0.000279732
-1.06498e-07
-2.41022e-08
0.00027954
1.07192e-07
2.60133e-08
0.000279434
6.24806e-07
3.98287e-08
0.000279666
-8.49057e-07
-7.07842e-08
0.000279726
-4.8004e-07
-6.56403e-08
0.000279684
2.19193e-07
7.07345e-08
0.000279603
-1.19565e-07
1.33174e-07
0.000279515
2.59957e-07
-1.37588e-08
0.000279731
-6.01828e-07
1.38189e-07
0.000279792
-1.05583e-07
3.08491e-08
0.000279668
3.68688e-07
1.42758e-07
0.000279575
6.05696e-07
1.15504e-07
0.000279519
3.66023e-07
1.13834e-07
2.94197e-07
1.21123e-07
0.000254516
-4.24189e-07
1.76019e-08
0.0002544
5.90991e-07
1.01679e-07
0.000254249
9.32342e-07
2.38454e-07
0.000254077
7.0906e-07
-1.45777e-09
0.000254311
-3.02431e-07
8.37676e-08
0.000254479
-6.1856e-07
4.90828e-09
0.00025439
5.43538e-07
1.62637e-07
0.000254242
6.77743e-07
6.71725e-08
0.000254123
5.38007e-07
-1.08623e-08
0.0002544
-6.61318e-07
1.45165e-07
0.000254562
-7.35214e-07
-1.06661e-07
0.000254474
5.23743e-07
4.99224e-08
0.000254287
7.73758e-07
-3.54796e-08
0.000254107
9.26728e-07
1.12602e-07
0.000254353
-5.49099e-07
5.69494e-08
0.000254503
-5.26761e-07
1.01015e-07
0.000254429
6.72188e-07
1.39326e-07
0.000254208
8.00151e-07
5.6157e-08
0.000254073
8.88313e-07
-6.47474e-08
0.000254298
-5.25857e-07
-1.16127e-07
0.000254388
-4.72186e-07
-3.56658e-10
0.000254392
5.85914e-08
-6.7078e-08
0.000254188
8.86359e-08
1.08802e-07
0.000254118
8.02372e-07
-2.09924e-07
0.000254391
-1.7312e-06
1.01596e-07
0.000254486
-3.27871e-07
-9.82947e-08
0.000254532
-2.34625e-07
-1.04186e-08
0.000254246
3.31902e-07
5.93664e-08
0.000254161
8.13694e-07
5.53706e-08
0.000254411
-1.13519e-06
-7.83909e-08
0.000254495
-5.86052e-07
-9.43882e-08
0.000254472
1.95692e-07
8.45297e-08
0.000254315
-6.64823e-08
1.84973e-07
0.000254238
3.38593e-07
2.58344e-09
0.000254505
-9.49788e-07
2.00074e-07
0.00025457
-1.72758e-07
4.33269e-08
0.000254438
4.20193e-07
1.82088e-07
0.000254306
7.60301e-07
1.57845e-07
0.000254236
5.03486e-07
1.68241e-07
2.62382e-07
1.88928e-07
0.000231564
-6.93925e-07
3.672e-08
0.000231453
5.59113e-07
1.59758e-07
0.000231238
1.12001e-06
3.70409e-07
0.000231041
9.19732e-07
2.80713e-08
0.00023133
-5.86144e-07
1.3317e-07
0.000231535
-8.72537e-07
4.67183e-08
0.000231451
5.46911e-07
2.34235e-07
0.000231213
9.85476e-07
1.22e-07
0.000231093
7.12737e-07
1.77177e-08
0.000231423
-1.04082e-06
2.02355e-07
0.000231623
-1.02336e-06
-1.10161e-07
0.000231545
5.56387e-07
5.72123e-08
0.00023127
1.06762e-06
-1.70311e-08
0.000231077
1.14956e-06
1.51325e-07
0.000231369
-9.07288e-07
8.0384e-08
0.000231567
-7.84455e-07
1.42576e-07
0.000231504
7.18794e-07
1.63282e-07
0.000231181
1.15505e-06
1.13129e-07
0.000231058
1.14764e-06
-9.46143e-08
0.000231312
-8.1519e-07
-1.13766e-07
0.00023143
-6.74016e-07
8.09193e-09
0.000231455
-3.85502e-09
-5.78797e-08
0.000231161
2.49393e-07
1.93186e-07
0.00023111
9.96709e-07
-2.45046e-07
0.000231394
-2.23893e-06
1.60815e-07
0.000231565
-5.28062e-07
-1.01851e-07
0.000231601
-4.07904e-07
1.80979e-08
0.00023122
6.19382e-07
1.17482e-07
0.000231167
9.89176e-07
8.16634e-08
0.000231412
-1.45337e-06
-7.30502e-08
0.000231549
-7.69678e-07
-1.24316e-07
0.000231531
1.41086e-07
1.0217e-07
0.000231283
1.9825e-08
2.64498e-07
0.000231239
3.64114e-07
3.83719e-08
0.00023154
-1.41764e-06
2.91065e-07
0.000231624
-2.98084e-07
7.25963e-08
0.000231482
4.3505e-07
2.29019e-07
0.000231301
9.37957e-07
2.16366e-07
0.000231225
6.50022e-07
2.47478e-07
1.81778e-07
2.91061e-07
0.000210683
-1.10701e-06
7.48538e-08
0.000210579
4.19886e-07
2.4017e-07
0.000210289
1.2932e-06
5.62442e-07
0.000210074
1.13392e-06
7.9896e-08
0.000210408
-9.75203e-07
2.09235e-07
0.000210665
-1.23862e-06
1.23096e-07
0.000210584
4.78257e-07
3.32733e-07
0.000210244
1.36152e-06
2.18514e-07
0.000210133
8.84881e-07
6.47656e-08
0.000210499
-1.53293e-06
2.87876e-07
0.000210761
-1.43842e-06
-9.8491e-08
0.000210687
5.68147e-07
7.01177e-08
0.000210309
1.41193e-06
4.26502e-08
0.000210114
1.35036e-06
2.06041e-07
0.000210444
-1.39569e-06
1.29179e-07
0.00021071
-1.17932e-06
2.03218e-07
0.000210646
7.57923e-07
1.92322e-07
0.000210214
1.59677e-06
2.0982e-07
0.000210115
1.41904e-06
-1.23724e-07
0.00021038
-1.18778e-06
-9.42309e-08
0.000210548
-9.94047e-07
2.51593e-08
0.000210587
-9.82079e-08
-3.25527e-08
0.000210198
4.34627e-07
3.1891e-07
0.000210168
1.19414e-06
-2.73313e-07
0.000210454
-2.86268e-06
2.43012e-07
0.000210729
-8.79425e-07
-8.85465e-08
0.000210731
-6.20103e-07
6.38711e-08
0.000210263
9.33264e-07
2.11384e-07
0.000210231
1.15202e-06
1.20439e-07
0.000210465
-1.82515e-06
-4.7056e-08
0.000210688
-1.08858e-06
-1.48521e-07
0.000210648
5.64583e-08
1.36819e-07
0.000210311
1.01066e-07
3.85403e-07
0.000210314
3.02429e-07
9.98547e-08
0.000210629
-2.02566e-06
4.22736e-07
0.000210754
-5.3118e-07
1.2648e-07
0.000210596
4.0129e-07
2.82632e-07
0.000210359
1.11148e-06
3.08569e-07
0.000210281
7.88203e-07
3.63467e-07
4.05248e-08
4.3815e-07
0.000191692
-1.7214e-06
1.34259e-07
0.000191589
1.45569e-07
3.54783e-07
0.000191225
1.4012e-06
8.36074e-07
0.000190997
1.33278e-06
1.62915e-07
0.000191361
-1.49437e-06
3.16328e-07
0.000191686
-1.75836e-06
2.38492e-07
0.000191597
3.23035e-07
4.66952e-07
0.000191157
1.77064e-06
3.79775e-07
0.000191059
1.03835e-06
1.43951e-07
0.00019145
-2.16028e-06
4.03987e-07
0.000191793
-2.02692e-06
-7.17399e-08
0.000191707
5.73382e-07
9.53673e-08
0.000191226
1.76447e-06
1.68054e-07
0.000191035
1.49423e-06
2.87779e-07
0.000191397
-2.06722e-06
2.09724e-07
0.000191749
-1.75872e-06
2.79203e-07
0.000191665
8.0532e-07
2.30474e-07
0.00019113
2.09758e-06
3.61952e-07
0.000191052
1.69286e-06
-1.36809e-07
0.000191322
-1.6747e-06
-5.42882e-08
0.000191559
-1.48267e-06
4.82064e-08
0.000191601
-2.24033e-07
1.8321e-08
0.000191118
6.11548e-07
5.04946e-07
0.000191104
1.39031e-06
-2.83774e-07
0.000191396
-3.65377e-06
3.44773e-07
0.000191782
-1.41977e-06
-6.1492e-08
0.000191735
-8.74111e-07
1.28909e-07
0.000191201
1.21317e-06
3.64764e-07
0.000191165
1.30756e-06
1.83407e-07
0.000191399
-2.28659e-06
-3.73677e-09
0.000191723
-1.59301e-06
-1.63041e-07
0.000191633
-6.11778e-08
2.01576e-07
0.000191223
1.16177e-07
5.69435e-07
0.000191274
1.20972e-07
2.0002e-07
0.000191593
-2.81652e-06
5.96952e-07
0.000191778
-9.23174e-07
2.03273e-07
0.00019159
3.05502e-07
3.4364e-07
0.000191304
1.22938e-06
4.53962e-07
0.000191222
8.95335e-07
5.2762e-07
-1.85584e-07
6.30232e-07
0.000174422
-2.57342e-06
1.817e-07
0.000174325
-3.10549e-07
5.23305e-07
0.000173919
1.37129e-06
1.23678e-06
0.000173677
1.48927e-06
3.03981e-07
0.000174051
-2.17992e-06
4.34732e-07
0.000174431
-2.43982e-06
3.5163e-07
0.000174327
8.21043e-08
6.43173e-07
0.000173815
2.15826e-06
6.58873e-07
0.000173734
1.15083e-06
2.8674e-07
0.000174149
-2.96635e-06
5.31967e-07
0.000174562
-2.79879e-06
-7.1245e-08
0.000174445
5.95939e-07
1.48323e-07
0.000173886
2.05018e-06
4.12167e-07
0.000173702
1.5212e-06
4.33005e-07
0.000174095
-3.00384e-06
3.1009e-07
0.000174518
-2.53506e-06
3.26765e-07
0.000174396
8.70573e-07
2.91075e-07
0.000173788
2.60611e-06
6.15218e-07
0.000173722
1.95797e-06
-1.03849e-07
0.000173996
-2.33995e-06
-6.62568e-09
0.000174297
-2.16878e-06
4.44616e-08
0.000174338
-3.87074e-07
1.07114e-07
0.000173787
7.32949e-07
7.99187e-07
0.000173785
1.56541e-06
-2.30248e-07
0.000174092
-4.6881e-06
4.42241e-07
0.000174551
-2.13842e-06
-7.34061e-08
0.00017446
-1.19246e-06
2.2743e-07
0.000173888
1.38712e-06
6.30391e-07
0.000173832
1.4249e-06
3.11946e-07
0.000174082
-2.91698e-06
4.78088e-08
0.000174478
-2.29956e-06
-1.97323e-07
0.000174333
-2.32027e-07
3.24061e-07
0.000173884
-8.67988e-09
8.78255e-07
0.000173979
-2.2232e-07
3.73163e-07
0.000174306
-3.86372e-06
7.85724e-07
0.000174536
-1.49533e-06
2.52667e-07
0.000174306
1.1162e-07
4.18342e-07
0.000174005
1.20547e-06
7.03218e-07
0.000173911
9.39896e-07
7.58046e-07
-5.44201e-07
8.43862e-07
0.000158716
-3.67183e-06
6.51227e-08
0.000158681
-1.09135e-06
7.82779e-07
0.000158333
1.0993e-06
1.92017e-06
0.00015808
1.58228e-06
6.23392e-07
0.000158397
-3.05061e-06
4.97563e-07
0.000158747
-3.23984e-06
2.81164e-07
0.000158662
-2.9991e-07
8.61712e-07
0.000158174
2.4327e-06
1.22929e-06
0.000158128
1.17482e-06
6.53067e-07
0.000158544
-3.99382e-06
6.10532e-07
0.000158927
-3.69018e-06
-2.66301e-07
0.000158794
5.81982e-07
2.56886e-07
0.000158255
2.1201e-06
9.41399e-07
0.000158081
1.34153e-06
7.8348e-07
0.000158468
-4.29734e-06
3.82934e-07
0.000158862
-3.45827e-06
1.83647e-07
0.000158725
8.86982e-07
3.7233e-07
0.000158131
3.01051e-06
1.13047e-06
0.000158075
2.16961e-06
1.19093e-07
0.00015832
-3.26068e-06
-2.80375e-09
0.000158604
-3.02603e-06
-1.43374e-07
0.000158701
-6.80281e-07
2.71364e-07
0.000158162
7.24981e-07
1.36449e-06
0.00015818
1.68631e-06
5.0095e-08
0.000158476
-6.03671e-06
4.90127e-07
0.000158874
-2.95231e-06
-3.19185e-07
0.0001588
-1.68356e-06
3.7267e-07
0.000158272
1.35015e-06
1.18608e-06
0.000158197
1.43072e-06
6.63129e-07
0.000158444
-3.81161e-06
3.74522e-08
0.000158816
-3.20157e-06
-4.02251e-07
0.00015867
-5.77916e-07
5.60907e-07
0.000158258
-3.49797e-07
1.52035e-06
0.000158393
-7.70344e-07
7.58641e-07
0.000158695
-5.25779e-06
8.83018e-07
0.000158871
-2.2323e-06
9.02528e-08
0.000158641
-3.06068e-07
5.02655e-07
0.000158414
9.01271e-07
1.22262e-06
0.000158308
8.73763e-07
1.1706e-06
-1.09257e-06
9.82343e-07
0.000144359
-5.16531e-06
-6.55102e-07
0.000144559
-2.61019e-06
1.21676e-06
0.000144423
5.00586e-07
3.30531e-06
0.000144121
1.75918e-06
1.42443e-06
0.0001442
-4.04285e-06
3.36811e-07
0.000144399
-4.23098e-06
-4.3426e-07
0.000144517
-1.15621e-06
1.13598e-06
0.000144233
2.4628e-06
2.53393e-06
0.000144197
1.17571e-06
1.64048e-06
0.000144468
-5.26013e-06
4.84615e-07
0.000144679
-4.75588e-06
-1.04106e-06
0.000144695
1.06138e-07
4.81494e-07
0.000144363
1.71922e-06
2.18731e-06
0.000144145
9.79324e-07
1.67907e-06
0.000144341
-5.91539e-06
2.83474e-07
0.000144549
-4.5376e-06
-5.8115e-07
0.00014457
4.16609e-07
4.71211e-07
0.000144169
3.09538e-06
2.34485e-06
0.000144071
2.36247e-06
8.83902e-07
0.000144137
-4.44361e-06
-2.08367e-07
0.000144298
-4.12798e-06
-8.96712e-07
0.000144629
-1.53252e-06
5.89727e-07
0.000144255
4.78526e-07
2.61754e-06
0.00014426
1.78459e-06
9.96212e-07
0.000144367
-7.61316e-06
3.62005e-07
0.000144512
-3.89442e-06
-1.24218e-06
0.000144648
-2.7745e-06
6.0053e-07
0.000144355
9.49187e-07
2.47707e-06
0.000144213
1.37913e-06
1.59881e-06
0.000144308
-5.03926e-06
-1.89601e-07
0.000144569
-4.48207e-06
-1.16673e-06
0.000144631
-1.56003e-06
1.0227e-06
0.00014436
-9.44488e-07
3.01107e-06
0.00014441
-1.37955e-06
1.71112e-06
0.000144498
-7.02902e-06
6.41038e-07
0.000144535
-3.27123e-06
-7.97282e-07
0.000144512
-1.43496e-06
5.93368e-07
0.000144481
1.71039e-07
2.45733e-06
0.00014433
7.71499e-07
2.08229e-06
-1.87496e-06
8.1555e-07
0.000130805
-7.65965e-06
-2.52624e-06
0.000131402
-5.43525e-06
2.10442e-06
0.000131537
-2.33611e-07
5.97206e-06
0.000131094
2.46737e-06
2.90279e-06
0.000130686
-4.99558e-06
-5.51835e-07
0.00013085
-5.93216e-06
-2.40155e-06
0.000131485
-3.11697e-06
1.64751e-06
0.000131539
2.24725e-06
5.17358e-06
0.000131289
1.53629e-06
3.53921e-06
0.000131109
-6.65668e-06
-3.69358e-07
0.000131294
-6.59788e-06
-2.89447e-06
0.000131756
-1.67352e-06
1.07703e-06
0.000131738
7.61134e-07
4.75755e-06
0.000131275
8.32811e-07
3.33805e-06
0.000130895
-7.59583e-06
-4.74358e-07
0.00013101
-6.24255e-06
-2.56483e-06
0.000131545
-1.38011e-06
7.55596e-07
0.00013148
2.7587e-06
4.92389e-06
0.000131178
2.90816e-06
2.39112e-06
0.000130807
-5.74796e-06
-1.11411e-06
0.00013099
-5.98193e-06
-2.66328e-06
0.000131686
-3.58526e-06
1.32891e-06
0.000131603
-1.12484e-08
5.10622e-06
0.000131444
2.22319e-06
2.81378e-06
0.000130955
-9.06858e-06
-4.06558e-07
0.000130896
-5.5118e-06
-3.37047e-06
0.000131477
-5.14754e-06
1.14657e-06
0.000131625
1.89157e-07
5.1361e-06
0.000131246
1.65121e-06
3.36348e-06
0.0001309
-6.55287e-06
-1.12598e-06
0.000131249
-6.78908e-06
-2.94581e-06
0.000131814
-3.87002e-06
2.01001e-06
0.000131693
-1.65355e-06
5.95905e-06
0.000131229
-1.53281e-06
3.42536e-06
0.000130726
-9.04809e-06
-5.60678e-07
0.000130912
-5.38314e-06
-2.95343e-06
0.000131419
-4.0416e-06
9.22129e-07
0.000131565
-8.64981e-07
5.07589e-06
0.000131225
1.01681e-06
3.72798e-06
-3.08895e-06
-2.03345e-07
0.000117091
-1.14262e-05
-5.26296e-06
0.000117725
-8.87636e-06
4.18495e-06
0.000118052
-5.70933e-07
9.77774e-06
0.000117683
3.5525e-06
4.06747e-06
0.000116867
-6.18932e-06
-3.07659e-06
0.000117309
-8.80442e-06
-5.36418e-06
0.000118365
-5.95952e-06
3.14247e-06
0.000118647
2.09147e-06
9.13482e-06
0.000118073
2.19029e-06
5.34245e-06
0.000117345
-8.33737e-06
-2.92317e-06
0.000117841
-9.68524e-06
-5.57738e-06
0.000118574
-4.64312e-06
2.8453e-06
0.000118711
-3.29267e-07
8.61113e-06
0.000118028
1.02012e-06
4.71969e-06
0.000116958
-9.24605e-06
-2.91459e-06
0.000117354
-9.0696e-06
-5.62675e-06
0.00011837
-4.48755e-06
2.06712e-06
0.00011858
2.37832e-06
8.99796e-06
0.000118176
3.79255e-06
3.75004e-06
0.000117348
-7.26524e-06
-3.46877e-06
0.000117819
-8.97404e-06
-5.11269e-06
0.000118473
-6.47303e-06
3.19649e-06
0.000118688
-4.57653e-07
8.70876e-06
0.000118391
2.88381e-06
4.53056e-06
0.000117109
-1.03107e-05
-2.82395e-06
0.000117164
-8.30973e-06
-6.33539e-06
0.000117918
-8.41408e-06
2.86233e-06
0.000118477
-4.82104e-07
9.19177e-06
0.000117924
2.19002e-06
4.97581e-06
0.000117129
-8.47866e-06
-3.6623e-06
0.000117856
-1.03759e-05
-5.34343e-06
0.000118738
-7.13336e-06
4.2487e-06
0.00011866
-2.17582e-06
1.00581e-05
0.000117506
-1.31828e-06
4.72458e-06
0.000116344
-1.13889e-05
-3.60801e-06
0.000117102
-9.09043e-06
-5.93515e-06
0.000117901
-7.79462e-06
2.46207e-06
0.000117974
-1.61961e-06
9.11267e-06
0.000117584
1.46802e-06
5.07846e-06
-5.23225e-06
-2.97577e-06
0.000102732
-1.47081e-05
-6.85119e-06
0.000102606
-1.09183e-05
7.9851e-06
0.000103391
-6.9385e-07
1.28881e-05
0.000103845
3.39915e-06
2.79228e-06
0.000103051
-8.0963e-06
-7.3951e-06
0.000103465
-1.15513e-05
-7.38875e-06
0.000104065
-7.81965e-06
6.40521e-06
0.000104552
1.9144e-06
1.27217e-05
0.000104281
1.68049e-06
4.64475e-06
0.000103366
-1.05405e-05
-7.30512e-06
0.000103741
-1.25391e-05
-7.0942e-06
0.000103818
-6.92049e-06
6.47102e-06
0.000104206
-1.41066e-06
1.19651e-05
0.000104031
3.33631e-07
3.54376e-06
0.000102742
-1.1125e-05
-7.26643e-06
0.000103221
-1.18461e-05
-7.82649e-06
0.000103856
-6.87277e-06
5.48616e-06
0.000104459
2.03933e-06
1.30017e-05
0.000104697
3.62128e-06
2.86334e-06
0.000103723
-9.25191e-06
-7.27945e-06
0.000104013
-1.18025e-05
-6.43255e-06
0.00010379
-8.45492e-06
6.69448e-06
0.000104521
-9.71354e-07
1.17233e-05
0.000104642
2.40149e-06
3.86344e-06
0.000102983
-1.17156e-05
-7.11767e-06
0.000102955
-1.10732e-05
-8.03863e-06
0.000103046
-1.05485e-05
6.57922e-06
0.000104019
-9.74399e-07
1.29481e-05
0.000103992
1.65148e-06
4.08398e-06
0.000103185
-1.08973e-05
-7.90459e-06
0.000103788
-1.34912e-05
-6.40156e-06
0.000104111
-9.41501e-06
8.13078e-06
0.000104287
-2.82029e-06
1.32147e-05
0.000103247
-2.25541e-06
3.35293e-06
0.00010194
-1.40892e-05
-8.26566e-06
0.000102728
-1.26853e-05
-7.45049e-06
0.000102806
-1.04413e-05
6.09081e-06
0.000103031
-2.18176e-06
1.2783e-05
0.000103419
5.55532e-07
3.84654e-06
-8.40697e-06
-7.60293e-06
8.81032e-05
-1.50726e-05
-5.32725e-06
8.71814e-05
-1.08117e-05
1.21601e-05
8.912e-05
-1.95135e-06
1.26396e-05
9.07452e-05
8.94007e-07
-1.55461e-06
8.98715e-05
-9.70619e-06
-1.14756e-05
8.9452e-05
-1.19208e-05
-6.33011e-06
8.91675e-05
-7.69018e-06
1.0396e-05
9.03548e-05
6.36769e-07
1.31317e-05
9.09305e-05
-8.00847e-07
4.53007e-07
8.97888e-05
-1.21452e-05
-1.13247e-05
8.92043e-05