# y+ ()       
# Time        	patch         	min           	max           	average       
81            	bottomWall	1.515928e+00	7.339014e+00	3.295923e+00
81            	topWall	1.128234e+00	6.570029e+00	3.200664e+00
