/*--------------------------------*- C++ -*----------------------------------*\
  =========                 |
  \\      /  F ield         | OpenFOAM: The Open Source CFD Toolbox
   \\    /   O peration     | Website:  https://openfoam.org
    \\  /    A nd           | Version:  10
     \\/     M anipulation  |
\*---------------------------------------------------------------------------*/
FoamFile
{
    format      ascii;
    class       volVectorField;
    location    "16";
    object      U_0;
}
// * * * * * * * * * * * * * * * * * * * * * * * * * * * * * * * * * * * * * //

dimensions      [0 1 -1 0 0 0 0];

internalField   nonuniform List<vector> 
25600
(
(0.184456 -0.0765857 0.0677979)
(0.244888 -0.0695992 0.110964)
(0.243916 -0.0632243 0.143316)
(0.209571 -0.057622 0.137157)
(0.125402 -0.0710482 0.101)
(0.229209 -0.0760121 -0.00141105)
(0.308607 -0.0779585 0.0251726)
(0.1698 -0.0789937 0.0818868)
(0.116851 -0.0798452 0.0366278)
(0.0059256 -0.0690463 0.00410667)
(0.170256 -0.0784509 -0.0241533)
(0.180536 -0.0817092 -0.0234126)
(0.187596 -0.0714613 0.0195467)
(0.169223 -0.0784267 0.0175138)
(0.126122 -0.0627469 0.0747979)
(0.109458 -0.0619329 0.0865445)
(0.103897 -0.0677264 0.0454608)
(0.120682 -0.077637 0.0367241)
(0.142896 -0.0799326 0.0203022)
(0.102987 -0.0859104 0.00366049)
(0.114363 -0.0777974 0.0260227)
(0.123012 -0.0745799 0.0224392)
(0.173664 -0.084769 -0.0291358)
(0.227218 -0.0810364 -0.0270068)
(0.172872 -0.0693063 0.0625775)
(0.124833 -0.0566056 0.118016)
(0.104791 -0.0754637 -0.00891601)
(0.220263 -0.074369 -0.0535398)
(0.157312 -0.0651981 0.0582372)
(0.112157 -0.0750677 0.0336089)
(0.187981 -0.0831658 -0.00278746)
(0.193469 -0.0754759 0.0133598)
(0.195966 -0.0737274 0.0548557)
(0.185239 -0.0775262 0.0106747)
(0.234271 -0.0878091 -0.0329926)
(0.217397 -0.057355 0.141453)
(0.176993 -0.0811882 0.0988166)
(0.184269 -0.0786833 0.0167468)
(0.170361 -0.07701 0.00122163)
(0.178929 -0.0743662 0.0459856)
(0.315065 0.0699247 -0.0294955)
(0.362724 0.0596205 0.0354038)
(0.298293 0.0537853 0.0849445)
(0.261194 0.0572121 0.0904707)
(0.225004 0.081403 0.0715383)
(0.435668 0.0657908 -0.073734)
(0.646075 0.05917 -0.0627228)
(0.319271 0.0745535 -0.00826506)
(0.244353 0.0843296 -0.0511851)
(0.101265 0.0661155 -0.073054)
(0.282179 0.0608895 -0.143658)
(0.394522 0.070216 -0.21973)
(0.362185 0.0590003 -0.124983)
(0.366569 0.0652022 -0.127226)
(0.209459 0.0591801 -0.0437254)
(0.183466 0.0568139 0.0197847)
(0.220033 0.0664266 -0.0747202)
(0.276899 0.0789759 -0.114006)
(0.371965 0.0794898 -0.136036)
(0.350501 0.0923073 -0.130898)
(0.278312 0.0773439 -0.0738163)
(0.21866 0.0636468 -0.060955)
(0.330098 0.0694961 -0.190321)
(0.590332 0.0652251 -0.222898)
(0.371682 0.0542896 -0.0180946)
(0.149417 0.0603524 0.0609142)
(0.222441 0.0680913 -0.144959)
(0.465622 0.0562324 -0.227441)
(0.299745 0.0601118 -0.0724574)
(0.219338 0.0718316 -0.0657897)
(0.363497 0.0685226 -0.146837)
(0.409471 0.0585616 -0.13793)
(0.380326 0.0618418 -0.029822)
(0.338509 0.0666473 -0.0969748)
(0.439263 0.0634624 -0.235703)
(0.334418 0.0509217 0.0394077)
(0.290621 0.083205 0.00430724)
(0.275205 0.0718583 -0.089856)
(0.303228 0.066417 -0.161923)
(0.338159 0.0731766 -0.0807841)
(0.47488 -0.0431286 -0.124489)
(0.416362 -0.0486497 -0.0346885)
(0.321561 -0.0529881 -0.0195625)
(0.284457 -0.0466004 0.026037)
(0.203058 -0.011627 0.0974434)
(0.423914 -0.0437793 -0.060371)
(0.686304 -0.0670947 -0.0822665)
(0.449475 -0.0416412 -0.0554284)
(0.436184 -0.0305171 -0.131208)
(0.231336 -0.0343218 -0.139497)
(0.384022 -0.0526807 -0.0843839)
(0.580037 -0.0544122 -0.222195)
(0.477251 -0.0478887 -0.187816)
(0.578134 -0.0575291 -0.232866)
(0.417462 -0.0507481 -0.172977)
(0.281325 -0.0367811 -0.0333469)
(0.345387 -0.041811 -0.134788)
(0.514506 -0.0315307 -0.256078)
(0.555498 -0.0382364 -0.232243)
(0.567626 -0.0210019 -0.229277)
(0.482945 -0.0272891 -0.18451)
(0.381161 -0.0466983 -0.117116)
(0.422372 -0.0737496 -0.118833)
(0.890359 -0.0633221 -0.324162)
(0.608442 -0.0488191 -0.102515)
(0.202509 -0.0281355 0.0226524)
(0.366982 -0.0437075 -0.0531911)
(0.498317 -0.0677792 -0.263544)
(0.377307 -0.0432245 -0.154658)
(0.346741 -0.040578 -0.127818)
(0.503473 -0.0566426 -0.149885)
(0.603015 -0.0584373 -0.237021)
(0.517229 -0.0592601 -0.109409)
(0.507766 -0.0453399 -0.164862)
(0.547981 -0.0723976 -0.24474)
(0.435214 -0.0597958 -0.101325)
(0.374264 -0.0283362 -0.0306812)
(0.351125 -0.0433257 -0.0490237)
(0.411962 -0.0450801 -0.13941)
(0.451507 -0.0359072 -0.160298)
(0.49323 0.0641481 -0.17476)
(0.441418 0.073135 -0.0316012)
(0.382963 0.0513841 -0.137117)
(0.428621 0.0418349 -0.0706555)
(0.179605 0.0669461 0.156934)
(0.404763 0.04554 -0.0562891)
(0.686163 0.0179292 -0.109985)
(0.506687 0.0609714 -0.0585724)
(0.508688 0.0732536 -0.201541)
(0.295742 0.0504296 -0.135886)
(0.45154 0.0233121 0.00674486)
(0.595975 0.0573227 -0.170935)
(0.456904 0.0380943 -0.188074)
(0.666156 0.0215434 -0.217468)
(0.507137 0.0646833 -0.251185)
(0.39498 0.0367899 -0.109374)
(0.356406 0.0200579 -0.108708)
(0.574668 0.0462232 -0.276205)
(0.610183 0.0462863 -0.295215)
(0.564724 0.0699231 -0.212101)
(0.522656 0.0644031 -0.226967)
(0.540945 0.0405319 -0.194972)
(0.463647 0.00455298 -0.0319193)
(0.96359 0.00387265 -0.287913)
(0.744344 0.0293254 -0.206365)
(0.299077 0.0468769 -0.0179358)
(0.417078 0.0255179 0.0346025)
(0.505284 0.0172633 -0.280885)
(0.367136 0.0329269 -0.199347)
(0.442745 0.0557489 -0.157895)
(0.45654 0.0426046 -0.0730843)
(0.668889 0.03285 -0.259847)
(0.593132 0.0179538 -0.203485)
(0.609284 0.0567579 -0.236897)
(0.526813 0.0317239 -0.187948)
(0.494249 0.0205324 -0.16645)
(0.375142 0.0520648 0.0282101)
(0.425859 0.0497066 -0.0360005)
(0.464829 0.0428906 -0.0621773)
(0.433102 0.0566269 -0.153438)
(0.52468 -0.0124879 -0.169939)
(0.447853 0.0109888 -0.0221318)
(0.441124 -0.0109306 -0.194785)
(0.492012 -0.00230183 -0.136375)
(0.289338 0.0385455 0.0625379)
(0.505636 -0.00595553 0.020348)
(0.776514 -0.0602123 -0.0362977)
(0.622183 0.00388481 -0.0159483)
(0.589545 0.018863 -0.197113)
(0.500183 -0.00674209 -0.180834)
(0.430172 -0.040967 -0.0742043)
(0.623394 -0.00547791 -0.200795)
(0.443519 -0.0254178 -0.147625)
(0.740965 -0.0682971 -0.0235372)
(0.577306 0.00368212 -0.218751)
(0.504889 -0.0180906 -0.193625)
(0.477907 -0.0630281 -0.0850076)
(0.524931 -0.0187964 -0.129595)
(0.690722 -0.024406 -0.271053)
(0.595287 0.0258111 -0.178967)
(0.573438 0.00715992 -0.210712)
(0.611659 -0.0444869 -0.254848)
(0.518578 -0.0538562 -0.122899)
(0.94801 -0.0845595 -0.137129)
(0.841068 -0.0236862 -0.26105)
(0.458012 0.00219952 -0.0818374)
(0.385059 -0.0182431 -0.0845046)
(0.506414 -0.0613267 -0.196046)
(0.443731 -0.0381913 -0.237482)
(0.560504 -0.00772603 -0.235917)
(0.436777 -0.013293 -0.0529501)
(0.647128 -0.0519563 -0.0972155)
(0.687636 -0.0670012 -0.173194)
(0.680734 -0.0120091 -0.264604)
(0.59381 -0.0234408 -0.227508)
(0.5021 -0.0422417 -0.159111)
(0.439203 -0.0010606 -0.0346569)
(0.393376 -0.00647024 -0.0642249)
(0.412051 -0.02712 -0.0991594)
(0.468741 -0.0310922 -0.164547)
(0.566525 0.0524332 -0.156309)
(0.471648 0.0629114 -0.0503803)
(0.41219 0.048818 -0.0976449)
(0.487327 0.0540018 -0.0842855)
(0.437131 0.0495161 -0.0771573)
(0.516392 0.0434805 0.00473054)
(0.759825 -0.0172044 -0.0160951)
(0.669486 0.0552996 -0.0322658)
(0.632451 0.0590695 -0.167462)
(0.594077 0.0434601 -0.221742)
(0.419013 0.00948715 -0.140737)
(0.617953 0.0313695 -0.142849)
(0.445569 0.0407989 -0.0949719)
(0.632022 -0.0157234 0.0366022)
(0.564935 0.0602557 -0.193298)
(0.508826 0.0422683 -0.2542)
(0.569637 -0.0393794 -0.120443)
(0.597824 -0.000130879 -0.00857934)
(0.689226 0.0303353 -0.209374)
(0.572556 0.0403011 -0.189755)
(0.657849 0.0184912 -0.177535)
(0.64257 0.00233073 -0.235417)
(0.629652 0.0062476 -0.18724)
(0.847831 -0.0545365 -0.0540179)
(0.825443 0.0309027 -0.302059)
(0.422266 0.0533939 -0.0666785)
(0.442179 0.024033 -0.114386)
(0.390495 0.0287202 -0.135139)
(0.40722 0.00794393 -0.276246)
(0.569372 0.0316168 -0.263839)
(0.495656 0.0494692 -0.0587371)
(0.54468 0.00824907 0.0211827)
(0.630761 -0.019728 -0.129128)
(0.644743 0.0261657 -0.240763)
(0.586806 0.0369129 -0.232837)
(0.508716 -0.00595563 -0.169963)
(0.558157 0.0348993 -0.11301)
(0.415779 0.0276668 -0.047827)
(0.440091 0.0274503 -0.108934)
(0.484861 0.0510155 -0.163462)
(0.598656 0.0350536 -0.175457)
(0.518467 0.0660499 -0.0720707)
(0.372236 0.0471027 -0.0235771)
(0.536966 0.0320108 -0.123417)
(0.525688 0.0478379 -0.111804)
(0.489914 0.0188942 -0.0299473)
(0.787373 -0.0508157 0.0122115)
(0.774033 0.0429394 -0.0323774)
(0.704896 0.0434727 -0.157128)
(0.650943 0.0101785 -0.231491)
(0.567396 -0.0468052 -0.0980523)
(0.617288 -0.00930455 -0.11051)
(0.591887 0.0160253 -0.166073)
(0.523194 -0.0488995 -0.0895018)
(0.527499 0.0481485 -0.242058)
(0.597625 0.0102943 -0.268807)
(0.500899 -0.095418 -0.10923)
(0.49463 -0.0253083 -0.0978511)
(0.703892 0.00434826 -0.199167)
(0.594244 0.0194307 -0.246968)
(0.756688 -0.0301499 -0.171684)
(0.78131 -0.0530989 -0.203135)
(0.69416 -0.0114487 -0.197134)
(0.708737 -0.0682675 -0.0365303)
(0.814151 -0.0100682 -0.313529)
(0.498994 0.0230765 -0.141076)
(0.500476 0.0103418 -0.0752354)
(0.412413 -0.00463315 -0.189441)
(0.458409 -0.0765982 -0.263096)
(0.663438 -0.00734676 -0.206546)
(0.535987 0.018286 -0.0366874)
(0.570132 -0.0272745 -0.0289241)
(0.554607 -0.0462826 -0.0991152)
(0.679302 -0.0149495 -0.209134)
(0.627121 -0.0157688 -0.201999)
(0.55627 -0.0269291 -0.147543)
(0.596893 0.0319648 -0.100498)
(0.453793 -0.0109681 -0.1435)
(0.465364 -0.013934 -0.144701)
(0.533738 0.0108064 -0.187921)
(0.607684 0.0558877 -0.178183)
(0.524937 0.0569647 -0.0654623)
(0.428896 0.0256386 -0.0269717)
(0.522651 0.0298567 -0.145655)
(0.556374 0.0522379 -0.0900347)
(0.556803 0.0307929 0.0185924)
(0.842329 -0.0327318 0.0553891)
(0.851641 0.0601138 -0.0441318)
(0.675099 0.042382 -0.114288)
(0.693705 0.0165927 -0.205936)
(0.689865 -0.0279023 -0.0415475)
(0.550064 0.021555 -0.151528)
(0.602174 0.0471514 -0.211854)
(0.509983 -0.0405927 -0.14198)
(0.527474 0.0346139 -0.214815)
(0.680421 0.040037 -0.210645)
(0.424607 -0.0619411 -0.0219018)
(0.431952 -0.0278265 -0.0865844)
(0.727273 -0.00175554 -0.107853)
(0.633903 0.0352864 -0.263188)
(0.777269 -0.0378852 -0.185573)
(0.831294 -0.0418284 -0.205432)
(0.742577 0.0298792 -0.167666)
(0.743026 -0.0358219 -0.078962)
(0.689387 0.00792401 -0.273668)
(0.597723 0.033448 -0.271513)
(0.53028 0.0340671 -0.0784558)
(0.4619 0.0497091 -0.179725)
(0.514446 -0.0149357 -0.212142)
(0.732779 -0.0269755 -0.168258)
(0.57981 0.043642 -0.0382165)
(0.664969 -0.00277026 -0.0354273)
(0.645516 -0.0346986 -0.0908968)
(0.712573 -0.00535005 -0.139316)
(0.692043 0.0306329 -0.225775)
(0.598987 -0.0195888 -0.0905119)
(0.670216 0.0328362 -0.137734)
(0.559088 0.00426077 -0.215428)
(0.487447 0.0211706 -0.133072)
(0.513493 0.028597 -0.178421)
(0.64477 0.0468823 -0.19258)
(0.598352 0.0573677 -0.0738608)
(0.511825 0.0359162 -0.0439131)
(0.508515 0.0416528 -0.0631585)
(0.55114 0.0503482 -0.0465805)
(0.606122 0.0417579 0.0694561)
(0.848972 -0.0415296 0.0289562)
(0.755297 0.0913082 -0.0607343)
(0.614481 0.0580505 -0.0418713)
(0.673215 -0.0145538 -0.200607)
(0.731216 -0.065129 -0.0915192)
(0.523179 0.00184059 -0.104285)
(0.606674 0.0153827 -0.169165)
(0.575406 -0.0649675 -0.107593)
(0.547653 0.0168845 -0.203003)
(0.711969 0.0331453 -0.264314)
(0.604524 -0.0898785 0.0130086)
(0.51669 -0.0422428 -0.0237311)
(0.54985 0.0155303 -0.154029)
(0.680723 0.0127849 -0.22228)
(0.756972 -0.0790827 -0.173368)
(0.931337 -0.0732029 -0.158276)
(0.763435 0.00308269 -0.153105)
(0.837521 -0.0499755 -0.080779)
(0.762792 -0.028971 -0.236567)
(0.637096 0.0353033 -0.259513)
(0.486679 0.0144855 -0.101482)
(0.507212 0.0213135 -0.222201)
(0.483665 -0.039795 -0.172604)
(0.653714 -0.0663276 -0.172209)
(0.583054 0.0253282 -0.0611168)
(0.692707 -0.00669456 0.00223726)
(0.67439 -0.0589075 -0.0301356)
(0.731311 -0.0124759 -0.0846733)
(0.745064 0.00463274 -0.226006)
(0.626711 -0.0272271 -0.0773547)
(0.736201 0.0122913 -0.213171)
(0.609309 -0.0182825 -0.252211)
(0.534538 -0.0156581 -0.128843)
(0.418202 0.00785151 -0.13441)
(0.617278 -0.000666757 -0.180109)
(0.621361 0.0329088 -0.188872)
(0.615947 0.0250825 -0.0823873)
(0.60275 0.0145234 -0.0895534)
(0.63459 0.0694868 -0.0859512)
(0.63652 0.0285332 0.0142843)
(0.803574 0.00517806 0.0401476)
(0.598192 0.0969722 -0.0306767)
(0.615977 0.036691 -0.0499548)
(0.702827 -0.0179451 -0.143462)
(0.786469 -0.0617552 -0.15832)
(0.674059 -0.0318967 -0.00128398)
(0.655577 0.0372644 -0.155513)
(0.651848 -0.057259 -0.0330673)
(0.637699 -0.0118516 -0.145944)
(0.761104 0.0308762 -0.280728)
(0.730056 -0.0616164 -0.109045)
(0.558923 -0.0172999 -0.0213687)
(0.557515 0.0157771 -0.0800637)
(0.688055 -0.00723988 -0.220481)
(0.753499 -0.102036 -0.195828)
(1.00266 -0.0606588 -0.0920801)
(0.759576 0.00389623 -0.201912)
(0.858341 0.00225085 -0.0537948)
(0.905022 -0.0140482 -0.121362)
(0.711923 0.0139109 -0.290279)
(0.465349 0.0267592 -0.100505)
(0.629078 0.0493858 -0.197543)
(0.560946 -0.0308282 -0.202613)
(0.602279 -0.0683368 -0.139209)
(0.605632 0.0207556 -0.0746664)
(0.735209 0.000242305 0.0450587)
(0.680127 -0.0461896 0.00317284)
(0.777649 -0.00512718 -0.0690543)
(0.798384 0.0319083 -0.176885)
(0.674341 -0.0122727 -0.0937165)
(0.769468 0.00909824 -0.21349)
(0.677178 0.00637291 -0.252139)
(0.576123 0.0383707 -0.181197)
(0.42998 0.0226914 -0.13745)
(0.534277 0.0286372 -0.173059)
(0.679178 0.00893372 -0.166594)
(0.741579 0.0141416 -0.157721)
(0.72374 0.00120397 -0.178087)
(0.674838 0.0795637 -0.131307)
(0.661492 0.0284972 -0.0199581)
(0.794558 -0.0182182 0.0733142)
(0.693226 0.0985994 -0.0594422)
(0.607167 0.0516253 -0.117867)
(0.629681 -0.0112724 -0.0640274)
(0.802868 -0.0892301 -0.136477)
(0.717312 -0.0457948 0.037821)
(0.629959 0.0368408 -0.206944)
(0.711337 -0.0472039 -0.123315)
(0.746145 -0.0182862 -0.043675)
(0.826395 -0.00129414 -0.16375)
(0.686359 -0.0444311 -0.177633)
(0.588415 -0.0208294 -0.0237023)
(0.699528 0.0155705 0.0100045)
(0.702615 -0.00618518 -0.208614)
(0.791546 -0.106875 -0.221322)
(0.986429 -0.101129 -0.171841)
(0.746678 0.0186975 -0.218644)
(0.877231 -0.0283489 -0.0485124)
(0.956531 -0.0443915 -0.0481714)
(0.742734 0.0144171 -0.238224)
(0.464389 0.00661387 -0.0970635)
(0.7261 0.0103971 -0.033018)
(0.606116 -0.0644821 -0.206751)
(0.632839 -0.127804 -0.195153)
(0.650744 -0.0158677 -0.10827)
(0.727475 -0.0195618 0.0565178)
(0.771874 -0.053149 -0.0641398)
(0.789947 -0.0214263 -0.111472)
(0.819593 0.0217338 -0.137721)
(0.733442 -0.0258417 -0.144077)
(0.821474 0.00760127 -0.190343)
(0.720797 0.0104915 -0.205714)
(0.6279 0.0230843 -0.148351)
(0.522108 0.0400473 -0.238476)
(0.525749 0.0371725 -0.216037)
(0.756344 -0.0168246 -0.0796719)
(0.866301 -0.0191194 -0.0858968)
(0.856231 -0.0163919 -0.132822)
(0.628062 0.0603787 -0.128206)
(0.728338 0.0129321 0.00685495)
(0.784176 -0.00929649 0.0551496)
(0.70177 0.124343 -0.0872968)
(0.607846 0.0913618 -0.156973)
(0.608056 -0.039306 -0.0845002)
(0.837932 -0.0863055 -0.107655)
(0.682396 -0.0430947 0.00195897)
(0.714812 0.0201725 -0.161787)
(0.841248 -0.0575133 -0.136611)
(0.730474 -0.012334 0.00369399)
(0.754242 0.0478969 -0.142381)
(0.646131 -0.0177721 -0.107089)
(0.634001 -0.0123216 -0.0466554)
(0.765674 0.048223 -0.0587669)
(0.720638 0.0022683 -0.150129)
(0.862693 -0.11994 -0.183175)
(0.835217 -0.0665237 -0.227304)
(0.691198 0.039723 -0.174252)
(0.858662 0.00942508 -0.0748903)
(0.851477 -0.0158185 -0.143622)
(0.547847 0.0427713 -0.151385)
(0.482024 0.0294382 -0.130647)
(0.66157 0.0183462 -0.0588649)
(0.62116 -0.0412689 -0.266041)
(0.670847 -0.0784215 -0.250691)
(0.714392 0.00359196 -0.103555)
(0.686338 0.0164762 0.00153608)
(0.904084 -0.0624185 -0.0591182)
(0.845802 -0.035183 -0.0805398)
(0.782681 0.023486 -0.120135)
(0.821251 -0.00687995 -0.131556)
(0.81088 0.0261732 -0.204358)
(0.742728 0.0515345 -0.209153)
(0.745919 0.0276581 -0.111468)
(0.584148 0.0769584 -0.184277)
(0.658012 0.0217402 -0.33198)
(0.79767 -0.0168087 -0.216463)
(0.933007 -0.012528 -0.120596)
(0.934351 -0.0228332 -0.10717)
(0.692135 0.0317623 -0.0723998)
(0.788036 0.0208231 -0.0178078)
(0.722263 0.00598134 0.00609685)
(0.704232 0.12063 -0.108365)
(0.651518 0.0626519 -0.170798)
(0.575696 -0.0733715 -0.0795689)
(0.860894 -0.119388 -0.00660364)
(0.6834 -0.0376586 -0.0320408)
(0.80903 0.0232171 -0.0895015)
(0.961375 -0.0661398 -0.0209394)
(0.734952 -0.0248804 -0.0255136)
(0.68031 0.0552047 -0.185207)
(0.6857 0.00637752 -0.0794883)
(0.761932 0.0163556 -0.0999142)
(0.789452 0.0253374 -0.167658)
(0.694481 -0.00229132 -0.114197)
(0.78966 -0.106356 -0.116125)
(0.823248 -0.0933977 -0.157701)
(0.660363 -0.0063261 -0.0578104)
(0.839374 -0.00804863 -0.0783099)
(0.757673 -0.00294805 -0.1248)
(0.521499 0.0351594 -0.183481)
(0.580591 0.0120561 -0.162599)
(0.66012 0.000240435 -0.095703)
(0.737461 -0.0839194 -0.179528)
(0.746201 -0.069058 -0.290561)
(0.748212 0.0176801 -0.1465)
(0.790753 -0.00459544 0.0221112)
(0.983343 -0.0569691 0.0559515)
(0.849665 -0.0278258 -0.0314735)
(0.81649 0.00356575 -0.130935)
(0.838496 -0.031904 -0.113033)
(0.793653 0.0314841 -0.160245)
(0.791566 0.0473359 -0.187)
(0.896942 -0.0245806 -0.112611)
(0.630638 0.0906876 -0.143985)
(0.81294 -0.0113119 -0.262312)
(0.928231 -0.0689854 -0.26871)
(0.976102 -0.0247844 -0.193536)
(0.958658 -0.00621083 -0.164929)
(0.69731 0.0417447 -0.0426346)
(0.790306 0.0190299 0.0350264)
(0.720405 0.00457534 0.00223105)
(0.72381 0.118282 -0.137138)
(0.667198 0.0951077 -0.102125)
(0.599291 -0.0346519 -0.0484851)
(0.730901 -0.0666121 0.1064)
(0.680459 -0.0244101 0.0237087)
(0.897641 -0.0275015 -0.0314056)
(0.95779 -0.0544522 0.0209966)
(0.695116 -0.0137157 -0.0978744)
(0.726512 0.0358869 -0.172039)
(0.677097 0.0149798 -0.000546153)
(0.716389 0.0413409 -0.0970115)
(0.769049 0.0568335 -0.12497)
(0.79915 -0.0121139 -0.0230126)
(0.812236 -0.062327 -0.155493)
(0.824385 -0.0819406 -0.152381)
(0.708185 -0.0392719 -0.0316701)
(0.72052 0.0399565 -0.0231834)
(0.648068 0.0473954 -0.057094)
(0.679758 0.0335267 -0.247248)
(0.657845 0.0122857 -0.166124)
(0.663918 -0.00068782 -0.0740704)
(0.686789 -0.0683813 -0.0538607)
(0.764074 -0.0413933 -0.250195)
(0.774325 0.0339533 -0.18191)
(0.88153 0.00624588 0.121651)
(1.0361 -0.0562779 0.153112)
(0.903204 -0.000467102 0.0533971)
(0.905403 0.0271188 -0.0424068)
(0.870461 -0.000426258 -0.0988475)
(0.762062 0.0573002 -0.0802636)
(0.836277 0.0501885 -0.124884)
(0.984194 -0.0277926 -0.0179275)
(0.666181 0.0713576 -0.0743153)
(0.916234 -0.0641732 -0.0722343)
(0.848277 -0.108732 -0.126007)
(0.929181 -0.0235015 -0.179029)
(0.994441 0.00743298 -0.189594)
(0.798528 0.0307294 -0.118142)
(0.822977 0.0100756 0.0302122)
(0.710426 0.00747007 0.0187352)
(0.749414 0.126441 -0.0566402)
(0.735984 0.109441 -0.0744985)
(0.747777 -0.0104789 -0.022344)
(0.76248 -0.0517358 0.0898573)
(0.73582 -0.0372962 0.0389798)
(0.851073 -0.00455562 0.0218914)
(0.901309 -0.0204277 -0.0166215)
(0.744909 -0.0359786 -0.0904854)
(0.809952 -0.0121624 -0.0886632)
(0.689822 0.0205738 -0.0956763)
(0.692522 0.0639122 -0.0857221)
(0.83056 0.0500135 -0.0309643)
(0.75547 -0.0198712 -0.0881688)
(0.863603 -0.0814688 -0.180508)
(0.797748 -0.0540334 -0.195831)
(0.772748 -0.0105744 -0.105033)
(0.704506 0.0260213 -0.0963582)
(0.637597 0.0270538 -0.107508)
(0.728547 0.0162539 -0.160121)
(0.673037 -0.003718 -0.0784192)
(0.626942 0.00778603 -0.0542284)
(0.676939 -0.0378029 0.0148595)
(0.76517 -0.0175384 -0.186513)
(0.8395 0.0599305 -0.160064)
(1.03274 -0.00399663 0.100758)
(1.05259 -0.0864585 0.109433)
(0.964363 0.0140378 0.0563256)
(0.980331 0.0406027 -0.016186)
(0.902434 0.00968071 -0.0753988)
(0.722085 0.0355658 -0.0395919)
(0.854173 0.00763738 -0.143753)
(0.972621 -0.0450983 -0.0543071)
(0.762816 0.0448221 -0.0364428)
(0.936778 -0.0892746 -0.0424681)
(0.781184 -0.12557 -0.0391637)
(0.923707 -0.0454175 -0.0954379)
(0.989782 -0.0213916 -0.242441)
(0.862604 -0.0175517 -0.18387)
(0.787146 -0.0226303 0.0928343)
(0.77808 0.0259424 0.0837902)
(0.852347 0.111916 -0.109383)
(0.79564 0.139857 -0.0971345)
(0.858449 -0.011273 -0.0614945)
(0.77981 -0.0787216 0.0481444)
(0.836121 -0.0235502 0.118399)
(0.820279 -0.00492007 -0.0178412)
(0.87135 -0.0163552 -0.0256553)
(0.824034 -0.00846132 -0.0111342)
(0.709515 0.00479768 -0.0592765)
(0.684708 0.0493473 -0.129039)
(0.715025 0.0706014 -0.106551)
(0.826217 0.076716 -0.0686469)
(0.742263 -0.074274 -0.131128)
(0.833997 -0.105572 -0.13553)
(0.758973 -0.043911 -0.158239)
(0.793609 0.01066 -0.145042)
(0.766487 -0.00138748 -0.156734)
(0.643223 0.0544579 -0.105999)
(0.728289 0.0544822 -0.120954)
(0.699203 -0.0110106 -0.0946629)
(0.677648 0.0270647 0.0264506)
(0.760036 0.0209316 -0.0429077)
(0.748567 0.00746308 -0.236064)
(0.819529 0.0562386 -0.147254)
(1.00813 0.00297583 0.0590462)
(1.12324 -0.0679371 0.0622648)
(1.02414 0.0132928 0.0528871)
(0.920658 0.0413843 -0.00671416)
(0.860556 0.0442963 -0.100077)
(0.63992 0.0644196 -0.130038)
(0.761534 -0.000320837 -0.171109)
(0.819953 -0.0329809 -0.0816797)
(0.776125 0.0266588 0.0210678)
(0.999516 -0.137692 0.0167067)
(0.940746 -0.122594 -0.0976403)
(0.950448 -0.0613052 -0.163335)
(0.958239 -0.0837424 -0.171445)
(0.882594 -0.0739679 -0.105967)
(0.854282 -0.0170318 0.0442822)
(0.896092 0.0298807 0.0675759)
(0.857836 0.120492 -0.0578402)
(0.806789 0.178343 -0.0149565)
(0.863463 -0.000416451 -0.00768546)
(0.810703 -0.107085 0.0599652)
(0.936519 -0.0597721 0.137916)
(0.887255 -0.017579 0.0164113)
(0.843897 0.0030589 -0.0767179)
(0.876666 0.00388656 -0.0847837)
(0.633458 0.043966 -0.0760328)
(0.623139 0.0132376 -0.0407363)
(0.711814 0.00249885 -0.102309)
(0.823209 0.0319793 -0.175691)
(0.760005 -0.0615112 -0.0386399)
(0.85714 -0.117106 -0.0930604)
(0.79404 -0.0459514 -0.135352)
(0.851238 -0.0242674 -0.0613968)
(0.907913 -0.0103328 -0.107676)
(0.722096 0.0490155 -0.112067)
(0.744368 0.0256601 -0.149696)
(0.664477 -0.031893 -0.154865)
(0.692071 0.0354544 0.0373079)
(0.775835 0.0496644 -0.0364967)
(0.736997 0.012983 -0.205959)
(0.714386 0.0500715 -0.100255)
(0.991957 -0.0264321 0.115276)
(1.1712 -0.107972 0.125947)
(0.943637 0.0426595 0.0544343)
(0.849117 0.0934134 0.0509996)
(0.857304 0.0778423 -0.0323318)
(0.74472 0.0525024 -0.0790589)
(0.883858 0.00534903 -0.164868)
(0.817265 0.00403968 -0.0478014)
(0.744504 -0.00548236 0.143585)
(1.03328 -0.145623 0.0558039)
(1.02094 -0.134156 -0.110291)
(0.947825 -0.0627216 -0.143804)
(0.939505 -0.0355807 -0.143394)
(0.962981 -0.0778535 0.00373284)
(0.968675 -0.0939527 0.0984345)
(0.91344 -0.0243287 -0.00762545)
(0.817797 0.1355 -0.0424148)
(0.703034 0.178085 -0.0387141)
(0.920007 -0.0242077 0.00822101)
(0.889942 -0.176226 0.0753153)
(0.88571 -0.07249 0.0651424)
(0.876761 -0.00289264 -0.00643803)
(0.880573 0.0192471 -0.106085)
(0.943718 0.0394926 -0.128969)
(0.791939 0.0443001 -0.0843024)
(0.781945 0.0210234 -0.0358649)
(0.818009 -0.0724423 -0.00503508)
(0.907239 -0.051237 -0.0447839)
(0.861145 -0.0473229 0.00915901)
(0.887857 -0.110514 -0.0623144)
(0.843303 -0.0759186 -0.127306)
(0.821443 -0.00985363 -0.000589724)
(0.826427 0.0027323 -0.0555446)
(0.75521 0.0113142 -0.139172)
(0.77349 0.0428896 -0.136178)
(0.714236 0.0103899 -0.151417)
(0.723355 0.00294622 0.0269375)
(0.782315 0.060541 -0.00785977)
(0.733757 0.0297375 -0.169695)
(0.686424 0.0589056 -0.139478)
(0.949041 0.0445373 0.0394684)
(1.10358 -0.0773688 0.150779)
(0.876655 0.020824 0.0771858)
(0.858376 0.0729597 0.00526599)
(0.854591 0.0482286 -0.0235301)
(0.86029 0.0442224 -0.000887692)
(0.934079 0.00751265 -0.0719768)
(0.87009 0.0584758 -0.0469019)
(0.800229 0.0582351 0.123509)
(1.07885 -0.127395 0.0252134)
(1.0283 -0.119752 -0.0981711)
(0.874434 -0.080023 -0.00356045)
(0.879742 -0.0537639 -0.138657)
(1.04951 -0.0692912 -0.0829207)
(0.981648 -0.0626982 0.0131364)
(0.816457 0.026146 -0.126531)
(0.727474 0.164074 -0.105477)
(0.726925 0.166524 -0.0533676)
(0.974959 0.00793642 -0.0184892)
(0.965776 -0.120772 0.0255134)
(0.929449 -0.10836 -0.00595842)
(0.938028 -0.025308 -0.0950851)
(0.827716 0.0447959 -0.0622124)
(0.853612 0.0309834 -0.0672227)
(0.831355 0.0281897 -0.0563662)
(0.831777 0.0186499 0.0265051)
(0.850692 -0.0369618 0.0766563)
(0.860864 -0.0379613 0.070847)
(0.8929 -0.00433609 0.0756799)
(0.915524 -0.0436208 -0.013904)
(0.828138 -0.0471067 -0.110727)
(0.759246 0.0448054 -0.0810413)
(0.696416 0.0508189 -0.127342)
(0.789551 -0.0196605 -0.135137)
(0.726626 0.030257 -0.0758501)
(0.769467 0.0430016 -0.0882668)
(0.809756 0.0471812 -0.0787475)
(0.745314 0.097577 -0.0449547)
(0.777843 0.04975 -0.0621265)
(0.779826 0.0217821 -0.100383)
(0.931622 -0.0106667 0.023283)
(1.12282 -0.0446082 0.0968073)
(0.974751 0.0688216 0.0632142)
(0.877946 0.0751507 0.0051363)
(0.906367 0.0154788 0.00472086)
(0.939517 0.0119609 0.0180547)
(0.916864 0.00954199 -0.104939)
(0.877647 0.0198986 -0.102441)
(0.925932 -0.00824679 0.101054)
(1.10017 -0.103221 0.0705481)
(1.01502 -0.108286 -0.0412577)
(0.752075 -0.0501625 -0.059392)
(0.765371 -0.0282716 -0.13268)
(1.01613 -0.0939738 -0.202501)
(1.15257 -0.120249 -0.0868751)
(0.949399 0.0220783 -0.0530538)
(0.749332 0.16671 -0.0190683)
(0.736468 0.153794 -0.0637129)
(0.993265 0.0134076 -0.133709)
(1.07467 -0.0689244 -0.0576935)
(0.96507 -0.0265423 0.0542217)
(0.924703 0.0112342 -0.0196645)
(0.839793 0.0436353 -0.125484)
(0.936296 0.0584934 -0.17107)
(0.946415 0.0413975 -0.154819)
(0.964253 0.0113616 -0.0737281)
(0.964399 -0.0293079 -0.0232981)
(0.85495 0.00958339 -0.0103212)
(0.877367 0.017596 0.0193492)
(0.87072 -0.0128453 -0.0502717)
(0.728908 -0.0346816 -0.115687)
(0.63857 0.0288806 -0.115735)
(0.664912 0.0246329 -0.156627)
(0.828059 0.00681011 -0.163442)
(0.653077 0.0484441 -0.0712675)
(0.74827 0.0480094 -0.0175295)
(0.835321 0.0291126 -0.0450177)
(0.717249 0.0640993 -0.0309434)
(0.768874 0.0790891 -0.0660849)
(0.823248 0.04698 -0.111286)
(0.89162 -0.00641263 -0.0361505)
(1.0091 -0.0274624 0.0280068)
(1.00856 0.0643885 0.0305319)
(0.998463 0.0615618 0.0901369)
(0.920218 0.0178941 0.049191)
(0.861395 0.0172706 -0.00810191)
(0.952741 0.00635359 -0.122204)
(1.01575 0.0208754 -0.167647)
(0.949915 0.00418814 0.0443309)
(1.04916 -0.0284314 0.0727868)
(0.998992 -0.069647 -0.00607832)
(0.907008 -0.0609751 -0.0903292)
(0.946406 -0.0544629 -0.137116)
(1.05054 -0.111069 -0.185129)
(1.07291 -0.0780531 -0.0959465)
(0.90331 0.0764842 -0.0178101)
(0.800316 0.182676 -0.0311393)
(0.795719 0.0653232 -0.128055)
(0.928535 -0.103948 -0.151142)
(1.02726 -0.122085 -0.0977458)
(0.953936 -0.0634963 0.0478085)
(0.959155 -0.0429069 0.131687)
(1.01878 0.00757473 -0.00733962)
(1.04796 0.0217969 -0.128842)
(0.994297 0.00608466 -0.155462)
(1.01939 -0.00176947 -0.122542)
(0.966103 -0.0106725 -0.0549536)
(0.815934 -0.017381 -0.0403672)
(0.80044 -0.0111243 -0.0107203)
(0.855927 0.0208546 -0.0321961)
(0.789506 -0.00240748 -0.0620273)
(0.705478 0.00412456 -0.0415546)
(0.738416 0.0129615 -0.085723)
(0.821221 0.0174152 -0.118091)
(0.743787 0.0571341 -0.0227356)
(0.813124 0.05467 -0.0333303)
(0.788919 0.0650213 -0.0678027)
(0.734015 0.12511 -0.0455792)
(0.883015 0.135704 -0.0784751)
(0.882587 0.0621949 -0.113417)
(0.876742 -0.0473023 -0.0819727)
(0.950248 -0.0319014 0.00795613)
(1.00463 0.0566548 0.0596383)
(1.09169 0.0568545 0.117073)
(1.03616 0.0390983 0.089601)
(0.910994 0.038334 -0.0194525)
(0.852753 0.0024947 -0.0606)
(0.984281 -0.0246842 -0.0980578)
(1.06329 -0.0212998 -0.0406911)
(1.05401 -0.0468865 0.00919766)
(1.02543 -0.0493462 0.0549333)
(0.952337 -0.0540412 0.0121295)
(0.975033 -0.0613427 -0.0849586)
(1.07584 -0.0842523 -0.115509)
(1.04545 -0.0268148 -0.0580603)
(0.851336 0.0531638 0.0318893)
(0.85205 0.0825067 0.063449)
(0.949103 0.0111187 0.00592186)
(0.978812 -0.0862773 -0.0186374)
(1.03449 -0.0934857 -0.0324024)
(1.08384 -0.00983296 0.0605463)
(1.03507 -0.0120736 0.211789)
(1.05277 -0.0362126 0.142569)
(1.10864 -0.0135872 -0.00779762)
(1.08323 -0.00299215 -0.0811778)
(1.15695 -0.0104605 -0.0927489)
(1.2115 0.0152648 -0.0730126)
(1.04893 0.0631809 -0.0668043)
(0.924565 -0.0139682 -0.0377528)
(0.921416 -0.0391491 -0.0149077)
(0.890486 -0.0222783 -0.0500044)
(0.778515 -0.0135517 -0.0586467)
(0.740035 0.0202028 -0.068825)
(0.8175 0.0441476 -0.0416463)
(0.82187 0.069565 -0.00505289)
(0.81718 0.059268 -0.0642888)
(0.722345 0.0975685 -0.0969257)
(0.678663 0.110919 -0.0729173)
(0.7755 0.100413 -0.0848404)
(0.832913 0.0916566 -0.0659726)
(0.863791 -0.0128094 0.000291325)
(0.883723 -0.0637344 0.0152256)
(0.929162 -0.00749174 0.0598793)
(1.07643 0.0323801 0.0664519)
(1.10624 0.0866412 0.036976)
(0.996741 0.0863368 -0.0296531)
(0.910842 0.0418593 -0.0867701)
(0.919509 0.0107215 -0.0556944)
(1.00155 -0.0267999 -0.0399255)
(1.06408 -0.0929186 -0.0532761)
(1.04975 -0.0630672 -0.0202864)
(0.997053 -0.0299705 -0.0257545)
(0.965794 -0.0392544 -0.133475)
(0.942335 -0.047168 -0.144281)
(0.90751 0.0191466 -0.0233381)
(0.90084 0.0493344 0.0258064)
(1.013 0.0111119 0.0336128)
(1.06627 -0.0178612 0.0241466)
(1.04379 -0.0516968 -0.0374195)
(1.04134 -0.0604932 -0.0545239)
(1.14179 -0.0421595 0.0336829)
(1.15143 -0.0323294 0.160693)
(1.10056 -0.0368277 0.131603)
(1.09123 -0.0518564 0.00685211)
(1.08574 -0.0567675 -0.0690616)
(1.10499 -0.0362454 -0.0861713)
(1.02279 0.0317505 -0.068606)
(0.918015 0.0386972 -0.0429482)
(0.930279 -0.0324861 -0.000800378)
(0.958433 -0.0359285 0.0124902)
(0.956026 0.00585262 -0.00883768)
(0.851846 0.00834065 -0.0160621)
(0.75199 -0.00106509 -0.0445164)
(0.812797 0.0398547 -0.0807306)
(0.852719 0.092556 -0.0791109)
(0.831128 0.106621 -0.0564079)
(0.735729 0.14292 -0.0472053)
(0.673634 0.163282 -0.0595899)
(0.726733 0.127088 -0.0944987)
(0.789647 0.0473599 -0.0756456)
(0.83709 -0.0373104 0.0175923)
(0.86798 -0.0876662 0.058469)
(0.899165 -0.061839 0.0555694)
(0.980051 -0.026471 0.073512)
(1.03977 0.0334029 0.0699359)
(1.08312 0.0814331 0.0269678)
(1.07997 0.0859937 -0.0133827)
(1.05008 0.0454329 -0.0395653)
(1.04558 -0.0459016 -0.0521437)
(1.03146 -0.0472356 -0.004286)
(0.979847 0.00922145 -0.0499754)
(0.938263 0.0324292 -0.032374)
(1.01409 -0.0124119 -0.0172133)
(1.06702 -0.0570802 -0.0321704)
(1.04698 -0.0190189 -0.0162755)
(1.04795 0.036945 -0.010851)
(1.07484 0.0399955 0.019398)
(1.0461 0.0109452 0.034146)