/*--------------------------------*- C++ -*----------------------------------*\
  =========                 |
  \\      /  F ield         | OpenFOAM: The Open Source CFD Toolbox
   \\    /   O peration     | Website:  https://openfoam.org
    \\  /    A nd           | Version:  10
     \\/     M anipulation  |
\*---------------------------------------------------------------------------*/
FoamFile
{
    format      ascii;
    class       volScalarField;
    location    "10";
    object      pMean;
}
// * * * * * * * * * * * * * * * * * * * * * * * * * * * * * * * * * * * * * //

dimensions      [0 2 -2 0 0 0 0];

internalField   nonuniform List<scalar> 
25600
(
0.00409938
0.00229739
-0.0033509
0.0113995
0.00510747
-0.00242067
0.00734304
0.00414817
0.00544715
0.00533667
0.00348474
0.00582092
-0.00301496
0.00185147
0.00288085
-1.71202e-05
0.00709158
0.000638995
0.00195192
0.00649351
-7.79432e-05
0.00270516
0.00825869
0.00320976
0.00383324
0.00748071
-0.00034214
0.00334851
0.00292994
-0.00759737
0.00396557
0.00743637
-0.000290968
0.00502172
0.00625616
0.0047029
0.00470765
0.0056224
0.00472095
-0.0017372
0.00411593
0.000236816
-0.0013077
0.00937753
0.000990499
-0.00324793
0.00540306
0.000833188
0.000333844
0.000476621
-0.00278763
0.000165412
-0.00159791
0.00359834
0.00348242
-0.00087957
0.0029843
-0.00373689
0.000147871
0.0084096
0.00276287
0.00330042
0.00769736
0.00197208
-0.00144824
0.00434687
0.000570823
0.00155572
0.00183906
-0.00620754
0.00644648
0.00807704
0.0022198
0.0116898
0.00531239
0.000726888
0.00441413
-0.00028492
-0.00422569
-0.00322963
0.0115628
0.00455602
0.00387792
0.00615208
0.00142219
0.00329674
0.0100444
0.00785735
0.00689875
0.00705717
0.00239711
0.00308533
0.00328172
0.000921912
0.000787786
0.00300669
0.00609739
0.0024349
0.00546656
0.00905082
0.00404075
0.00446368
0.00873638
0.0062479
0.0019976
0.00759271
0.00521376
-0.000313029
-0.00234336
-0.00700345
0.00055701
-0.0011912
-0.0001121
0.0132736
0.00377817
0.00157547
0.0082544
-0.000856094
-0.00572332
0.00471801
0.00929834
0.00105169
-0.000372705
-0.00259753
-0.00544389
-0.00297041
0.00260626
0.00609803
0.00888979
0.00996919
0.00523809
0.00730177
0.00670084
-0.00356149
-0.00162424
0.00246385
0.00229708
0.00453054
0.0081147
0.00940134
0.00535948
0.000444045
-0.000360984
-0.000640925
-0.00369349
0.00418551
0.00626721
-0.000696358
-0.00189552
-0.0022751
0.00267116
0.00198481
0.00577858
0.0113576
-0.00112141
0.000916082
0.00734273
-0.00132439
-0.000452993
0.00989082
0.00791432
-0.00106513
-0.00578082
-0.00775689
-0.00702131
-0.00474573
0.000143127
0.00807967
0.012107
0.00767959
-0.00362375
-0.00078337
0.000499307
-0.00771307
0.000878792
0.00690396
0.0055053
0.00814765
0.00698141
0.00409343
0.00132797
-0.00126074
0.00179125
0.00541303
0.00143681
0.00623902
0.00533475
-0.00515693
-0.00595472
-0.00312798
-0.00214329
-0.00472521
0.00163928
0.00580455
-0.00121097
0.00289284
0.00326949
-0.00530051
-0.000979803
0.00937048
0.00354898
-0.00644091
-0.00948919
-0.00893133
-0.00647081
-0.00268958
0.00491164
0.0127075
0.0111194
0.00304575
-0.00191857
0.00447406
0.0028332
-0.00472967
0.00296938
0.00559876
0.00429813
0.00873945
0.0067417
0.00144529
-0.00206142
-0.00530896
-0.00146672
0.00181243
-0.0051725
0.000531495
0.00597067
0.00133315
-0.00124422
-0.00103208
-0.00206517
-0.00289298
0.00389697
0.00471442
0.00067605
0.00475674
0.00167865
-0.00506558
0.00243607
0.00960969
0.00371782
-0.00647956
-0.0111122
-0.0079853
-0.00431711
-0.00264853
0.0023116
0.00726351
0.00326803
-0.00691677
-0.00783497
0.0020201
0.00164165
-0.00186589
0.00324024
0.00294451
0.00284345
0.00592308
0.000404717
-0.00629788
-0.00729134
-0.00491784
0.00206785
0.000529987
-0.0081473
0.00199119
0.00625008
-0.00511958
-0.0085673
-0.00241791
0.000317706
-0.00122754
0.00121342
0.000559557
0.00066465
0.00390252
-0.0025095
-0.00328612
0.0106928
0.0134623
0.00464613
-0.00245398
-0.00666982
-0.00391991
-0.00418539
-0.00241981
0.00461676
0.0104424
0.00619413
-0.00510717
-0.00213425
0.00753243
0.00365635
-0.00205141
0.00227353
0.00357833
0.00320459
0.00499279
0.000926432
-0.00427127
-0.00142756
0.00506096
0.0110802
0.00496826
-0.00225648
0.00542192
0.00344591
-0.00526643
-0.00360532
0.00224507
0.000241593
-0.00843602
-0.00647609
-0.00132415
0.00296908
0.00788251
0.00532804
0.00710175
0.0154663
0.0123312
0.00939873
-0.00628473
-0.0100614
-0.00223308
-0.000123201
0.00130439
0.00559158
0.0108663
0.00742043
-0.00572939
-0.00414084
0.00270096
-0.00341698
-0.00461938
0.00154886
0.000364963
0.00299932
0.0103405
0.00458167
-0.00764155
-0.00532269
0.00374136
0.0110905
0.00622553
0.00155125
0.00795663
0.00205281
-0.00695197
-0.00512143
0.001707
-0.00123244
-0.0103412
-0.00605781
-0.000630184
0.0041865
0.00696809
-0.00121825
0.000132041
0.0152428
0.0202454
0.00311393
-0.00676765
6.05659e-05
0.00787095
0.000539441
-0.00350981
-0.00214401
0.0054677
0.00562174
-0.00343699
0.000748472
0.00469783
-0.00314085
-0.00495451
0.00047929
0.00100523
0.00478051
0.0117962
0.00246617
-0.00980675
-0.00150931
0.00856991
0.0083129
0.00213195
0.00135416
0.00644669
-0.00322738
-0.0124634
-0.0121502
-0.000122219
0.000859069
-0.00733498
-0.000787641
0.0032622
0.00792636
0.0106788
0.00167328
0.00106266
0.00476617
0.00619261
0.00745301
-0.00537786
0.00205802
0.010232
0.000636531
-0.00525898
-0.00238471
0.00969361
0.010248
0.00035676
0.0034428
0.0062013
0.00282801
0.000779369
0.00164602
-0.00229528
0.00394013
0.017562
0.00623353
-0.0110555
-0.0020207
0.00975546
0.00871709
0.00277883
0.00155661
0.00310588
-0.00612366
-0.0114292
-0.01064
0.00390844
0.00519035
-0.00820974
-0.00506588
-0.00238979
0.00432947
0.0102511
0.00377867
0.00236186
0.00109211
0.00665483
0.00590549
-0.00687715
0.0053787
0.0136193
0.00264077
-0.00393722
-0.00266458
0.00738679
0.00577567
-0.00346584
0.00284782
0.0041083
0.00028256
3.59879e-06
8.94802e-05
-0.00577341
0.00107537
0.0172037
0.00750934
-0.00662109
0.00488951
0.012505
0.00836396
0.00217373
0.00271362
0.00465284
-0.00393608
-0.00777483
-0.00361777
0.0076075
0.00187918
-0.0120935
-0.00745756
-0.00306657
0.00863774
0.0143228
0.00304316
-0.000973425
-0.0024607
0.00729561
0.00366373
-0.00605147
0.00799253
0.0133827
-7.14567e-05
-0.00519744
-0.0036328
0.00437322
0.00167908
-0.00187491
0.00554286
0.00207014
-0.000517251
0.00382975
0.00168087
-0.00771327
0.00097594
0.0181306
0.00708017
-0.00790083
0.00200152
0.00691302
0.0035432
0.00184882
0.00601619
0.00324667
-0.0101755
-0.0123228
-0.00620032
0.00555893
-0.000200608
-0.0118421
-0.00902151
-0.00463672
0.0112896
0.0150207
0.00175379
-0.000817371
-0.00458621
0.00367849
0.00513838
-0.004202
0.00889417
0.0150657
0.00151238
-0.00573541
-0.00542107
0.00505682
0.00319856
0.00193458
0.0055389
-0.000589461
0.00332517
0.00967652
0.00258335
-0.00809408
0.00218058
0.0188056
0.00704581
-0.00798615
0.00234295
0.00852339
0.00442232
0.00328965
0.0057779
-0.00181676
-0.0147188
-0.0141439
-0.00504962
0.00720189
0.00160087
-0.00916436
-0.00951057
-0.00501366
0.0132591
0.015179
0.00151644
-0.000307663
-0.0043919
0.00416551
0.00543826
-0.00436097
0.00833262
0.0153831
-0.000215802
-0.00818935
-0.00514672
0.00746505
0.00178998
-0.00263679
0.000847243
-0.00286184
0.00272484
0.00604831
-0.00148081
-0.0112189
0.000445385
0.017323
0.00603657
-0.00736016
0.00371128
0.0079203
0.00234164
0.00127231
0.00384
-0.00274281
-0.0149492
-0.0131044
0.00251773
0.0142641
0.00726525
-0.00275247
-0.00629902
-0.00249449
0.0179148
0.015077
0.000606516
0.00105774
-0.00400675
0.00378154
0.00613559
-0.00492456
0.0063387
0.0149654
0.00128795
-0.00846475
-0.00547177
0.0078821
0.00265671
-0.00581362
-0.00281777
-0.00333855
0.000174571
0.00177117
-0.00488026
-0.0125639
-0.00125173
0.0152762
0.00541935
-0.00542944
0.00588424
0.00755011
0.00121031
0.00120258
0.0060126
0.00058484
-0.0142367
-0.0107687
0.00925778
0.0188226
0.0118122
-0.00145692
-0.00841346
-0.0023191
0.0197805
0.011558
-0.00116907
0.0020066
-0.00390033
0.00425568
0.00674018
-0.00401431
0.00611562
0.0159501
0.00501842
-0.00628496
-0.00532318
0.006719
0.00190131
-0.00784663
-0.00365768
-0.00388915
-0.0023087
0.00243448
-0.00674501
-0.0142175
-0.000163601
0.019105
0.00782941
-0.00378479
0.00864349
0.00879068
0.000204952
0.000768273
0.00947552
0.00395371
-0.0152186
-0.00982509
0.011594
0.0175338
0.0121845
0.00119707
-0.00959098
-0.00432505
0.0169364
0.00636644
-0.00289668
0.00206657
-0.00390153
0.00427061
0.00517353
-0.00861896
0.00114953
0.0119659
0.00469153
-0.0070312
-0.00755117
0.00317172
-0.00200713
-0.00879398
-0.00383408
-0.00677362
-0.00272843
0.00609604
-0.00715862
-0.0137556
0.00488975
0.0254862
0.0101887
-0.00366619
0.00933348
0.00792483
-0.00415499
-0.0015175
0.0138613
0.00506237
-0.0198125
-0.0113434
0.0119552
0.0187474
0.0143849
0.00366493
-0.0108501
-0.00581128
0.0117478
0.00303128
-0.00261819
0.00147968
-0.0040917
0.00488047
0.00587755
-0.0103577
-0.00317878
0.00782376
0.00308285
-0.00998112
-0.0103411
0.000172578
-0.0059748
-0.00838839
-0.00314295
-0.0084364
-0.000263177
0.00991689
-0.00545122
-0.0115634
0.00966526
0.0297155
0.0105627
-0.00423027
0.010547
0.00817685
-0.00969693
-0.00449929
0.0186266
0.00508602
-0.0258686
-0.0121773
0.0148039
0.022278
0.0158448
0.00189985
-0.0140038
-0.00773135
0.00804684
0.00151145
-0.00323625
0.00159741
-0.0039356
0.00447446
0.00947662
-0.00866558
-0.00438579
0.00959084
0.00633457
-0.00857021
-0.0110017
-0.00209124
-0.00988867
-0.00836199
-0.00257579
-0.0102609
0.0031585
0.0145886
-0.00434091
-0.0122066
0.0103955
0.0294197
0.0100328
-0.0036886
0.0115592
0.00711525
-0.0142923
-0.00557219
0.0229599
0.00383223
-0.0325261
-0.0125498
0.017618
0.0248991
0.0165364
0.00171073
-0.0137008
-0.00819528
0.0073962
0.000359355
-0.00301513
0.00404103
-0.00361611
0.00397416
0.0130496
-0.0082087
-0.00487876
0.0140414
0.011085
-0.00738273
-0.0115323
-0.00299834
-0.0121741
-0.00769439
-0.00149247
-0.0134807
0.00285958
0.0152313
-0.00666798
-0.0139404
0.0095149
0.0270846
0.0099672
-0.00448262
0.00848668
0.00389749
-0.0146895
-0.00308751
0.0271953
0.000312874
-0.0401279
-0.0127001
0.0195875
0.0272633
0.0178639
0.00428773
-0.00904847
-0.00520505
0.0107552
0.00144055
-0.00191022
0.0062813
-0.00363709
0.00420422
0.016053
-0.00831133
-0.00511085
0.0173955
0.0135461
-0.00738877
-0.0105202
-0.00376941
-0.0139575
-0.00571129
-0.000650444
-0.0202977
-0.00136088
0.0159236
-0.00694243
-0.0145585
0.00945297
0.0267884
0.00964651
-0.00658631
0.00612478
0.00468898
-0.0123481
-0.000159827
0.0294784
-0.00368175
-0.0461119
-0.0126277
0.0211286
0.0267757
0.0181634
0.00784094
-0.00594259
-0.0041522
0.0118851
0.00164906
-0.0022652
0.00720661
-0.00401635
0.00480326
0.0193133
-0.00777686
-0.00441702
0.0198168
0.0153983
-0.00565505
-0.0081521
-0.00482
-0.0147099
-0.0035688
-0.00241117
-0.0277985
-0.00306093
0.0183305
-0.00715517
-0.0153099
0.00963536
0.0283752
0.00939538
-0.00786203
0.00616292
0.00539247
-0.0134618
0.00100093
0.0313694
-0.00566234
-0.0511527
-0.0129174
0.0228679
0.0246683
0.0198981
0.0136462
-0.00447385
-0.00530289
0.0109062
0.0017031
-0.000760253
0.00909217
-0.00480408
0.0055019
0.021201
-0.00745561
-0.00173318
0.0238363
0.0176663
-0.00429616
-0.00662577
-0.00577396
-0.0156951
-0.00321023
-0.00550306
-0.0313162
-0.00194594
0.0197902
-0.00704742
-0.0153119
0.0094655
0.0299084
0.00966643
-0.00799207
0.00630834
0.00523477
-0.0144016
0.00221537
0.0333002
-0.0057662
-0.0537615
-0.0134322
0.0219852
0.022273
0.0247943
0.0191041
-0.00426383
-0.00598682
0.0117364
0.00238069
0.00051923
0.0102338
-0.00504208
0.00654122
0.0216684
-0.00663026
0.00132381
0.028296
0.0191574
-0.00493316
-0.00705082
-0.00749849
-0.0169291
-0.00459838
-0.00830273
-0.0311289
0.000578362
0.0204762
-0.00617808
-0.0144077
0.00947116
0.0305886
0.00956435
-0.00815972
0.00610628
0.00550043
-0.0139373
0.00305828
0.0343798
-0.0059547
-0.0552157
-0.0139075
0.0217812
0.0221801
0.0297407
0.0207948
-0.00531247
-0.00587087
0.0126763
0.00198979
0.000254994
0.0103723
-0.00477829
0.007438
0.0225106
-0.00479839
0.00378565
0.0310231
0.0192935
-0.00582759
-0.0073439
-0.00917761
-0.0186823
-0.00697985
-0.00820505
-0.0286944
0.00360605
0.0213335
-0.00529162
-0.0136531
0.00934437
0.0308242
0.0098903
-0.00810484
0.00586132
0.00583923
-0.0135567
0.00282334
0.0348485
-0.00559233
-0.0564598
-0.0146353
0.0226317
0.0242866
0.0333716
0.0214296
-0.00606867
-0.00598422
0.0126205
0.00180841
0.000519939
0.0104018
-0.00499456
0.00810932
0.0236251
-0.00361278
0.0053858
0.0320804
0.0187823
-0.0061364
-0.00743694
-0.0105506
-0.0200435
-0.00682451
-0.00579215
-0.0261014
0.00520343
0.0221215
-0.00471361
-0.0131807
0.00897725
0.0304514
0.0104112
-0.00812224
0.00517081
0.00613087
-0.0131222
0.00219182
0.0346588
-0.00462572
-0.0576633
-0.0160192
0.0233598
0.0268956
0.0365995
0.0224875
-0.00636526
-0.0062238
0.0129291
0.00206874
0.000290296
0.00989601
-0.00532985
0.0089496
0.0240206
-0.00363928
0.00613771
0.0323452
0.0182435
-0.00634893
-0.00733175
-0.0101881
-0.0199647
-0.00461081
-0.00384337
-0.0252623
0.00525496
0.0230532
-0.00368034
-0.0126608
0.0086408
0.0299003
0.0106096
-0.00830755
0.00449615
0.00643395
-0.013034
0.00193912
0.0349728
-0.00317678
-0.0576368
-0.0168041
0.0241438
0.0288639
0.0387521
0.022269
-0.00666401
-0.00579811
0.01321
0.00182338
1.4006e-05
0.00980987
-0.00528615
0.00952102
0.0238536
-0.00371504
0.00631302
0.0323143
0.0179485
-0.00613206
-0.0065941
-0.00925126
-0.0193929
-0.00344108
-0.00340956
-0.0251578
0.00550573
0.0240661
-0.00236926
-0.0124312
0.00814182
0.0293911
0.0106314
-0.00851068
0.00401963
0.00643803
-0.0129293
0.00235629
0.0356984
-0.00170705
-0.0565739
-0.0160956
0.0245186
0.0289856
0.0390968
0.021684
-0.00663404
-0.00534861
0.0134234
0.00190281
0.000115114
0.0099543
-0.00520833
0.00957673
0.0237196
-0.00380664
0.00616791
0.0321775
0.0178049
-0.00587207
-0.00603456
-0.00860563
-0.0189644
-0.00335481
-0.00321376
-0.0248715
0.00580078
0.0248893
-0.00165749
-0.0127643
0.00763223
0.0290541
0.0106962
-0.00862415
0.00375729
0.00616235
-0.012712
0.00289033
0.0358348
-0.000947739
-0.0554985
-0.0155234
0.0241719
0.0288118
0.0390329
0.0212355
-0.00689337
-0.00526253
0.0137142
0.00218474
0.00011012
0.00981141
-0.00523232
0.00961645
0.0236125
-0.00398831
0.0061069
0.0320576
0.0176552
-0.00593663
-0.00586937
-0.00825685
-0.0186325
-0.00335627
-0.00300101
-0.0244854
0.00599334
0.0250015
-0.00143043
-0.0129732
0.00743158
0.0288235
0.0107115
-0.00866198
0.00365206
0.00618027
-0.0125395
0.00285052
0.0358145
-0.000453591
-0.054817
-0.01516
0.0240832
0.0287176
0.0387636
0.0208961
-0.00722444
-0.00513172
0.0139985
0.00227688
-2.3893e-05
0.00969596
-0.00514407
0.00966773
0.0235956
-0.00396374
0.00608889
0.0319748
0.0175254
-0.00606214
-0.00593839
-0.00815826
-0.0183716
-0.00325482
-0.00283025
-0.024291
0.0058693
0.0249052
-0.00126693
-0.0129594
0.00733068
0.0286571
0.0107161
-0.00864792
0.00365274
0.00621674
-0.0125089
0.00286149
0.0357564
-0.000282843
-0.0544663
-0.0149394
0.0240783
0.0286311
0.0386042
0.0207211
-0.0073519
-0.00503706
0.0141049
0.00231813
-4.15511e-05
0.0096617
-0.00509739
0.00968056
0.00634345
0.0019772
-0.00371794
0.00837888
0.000129147
-0.00580024
0.00653788
0.0054394
0.00773591
0.00765657
0.00541853
0.00686365
9.1053e-05
0.00530946
0.00451131
0.000974994
0.00602548
-0.00132301
0.000844661
0.00593809
-0.000150886
0.00307488
0.00844901
0.00375848
0.00520101
0.00845504
0.001946
0.00620441
0.00392617
-0.00593331
0.00499612
0.00630717
-4.14267e-05
0.00532345
0.00612056
0.00466495
0.00454298
0.00699901
0.00591789
0.000442683
0.00410882
-0.00210376
-0.00205502
0.00707311
-0.00284759
-0.00539465
0.00381613
0.000728511
0.00156319
0.00177855
-0.00175785
0.00105833
0.000425134
0.00513948
0.00493384
0.00148448
0.00450822
-0.00225582
0.000747147
0.00846336
0.00416121
0.00508363
0.00873077
0.00260024
-0.00121467
0.00161008
-0.00132417
0.00145292
0.000280912
-0.00580838
0.00714416
0.00642508
0.00137183
0.01169
0.00622323
0.00288885
0.00611152
0.00216894
-0.00213423
-0.00144534
0.00638881
0.000791804
0.00254754
0.00450869
-0.00131967
0.000435434
0.00613027
0.00525535
0.006409
0.00732807
0.00304559
0.00527696
0.00718201
0.00522318
0.00511278
0.00589422
0.00607013
0.00143708
0.00455331
0.00997145
0.00692354
0.00703691
0.0101951
0.00753086
0.00306977
0.0063336
0.00487164
-0.000290466
-0.00428253
-0.00676702
0.000873026
-0.00376248
-0.00317886
0.0105882
0.00263544
0.00301974
0.0112864
0.00289455
-0.00127657
0.0044948
0.00414835
-0.000575611
-2.01299e-05
-0.00203911
-0.00565576
-0.00393591
0.000915651
0.00385029
0.00507334
0.00381566
-0.000879947
0.00347664
0.00479603
-0.0042787
-0.00116103
0.00348122
0.00180674
0.00182633
0.00416305
0.00564721
0.00321706
-4.02504e-06
0.000188087
0.00120736
-0.00136608
0.00469761
0.00773257
0.000503112
-0.00339355
-0.0041614
-0.000758032
-0.00224983
0.00454005
0.0127177
0.00153745
0.00511289
0.00968964
-0.00274359
-0.00209249
0.00609038
0.00285814
-0.000962101
-0.00294753
-0.00518471
-0.00717074
-0.00609714
-0.00232384
0.00210409
0.00266943
-0.00274536
-0.00932674
-0.00021055
0.00494102
-0.00236732
0.0055888
0.00797679
0.00261821
0.00357343
0.0039567
0.00450373
0.00581721
0.00450484
0.00638893
0.0108168
0.00683653
0.00823917
0.0049374
-0.00723976
-0.00786013
-0.00337875
-0.00311706
-0.00643949
0.00114313
0.00550249
-0.00095877
0.00648383
0.00739396
-0.00131983
0.00248132
0.00618288
0.00486616
0.000136589
-0.00317728
-0.00431038
-0.00623688
-0.00419098
0.000117131
0.00363054
-0.000140865
-0.00659819
-0.00703089
0.00235659
0.000317149
-0.00612262
0.00393408
0.00594203
0.0021754
0.00461263
0.00284002
-0.000260236
-0.0013899
-0.00404346
0.000304064
0.00461455
-0.00227416
0.00271076
0.00642972
-0.000776041
-0.00331854
-0.00388603
-0.0068818
-0.00622934
0.00533271
0.00819336
0.00505001
0.00984462
0.00317627
-0.00406346
0.00253172
0.00651944
0.00560455
-0.00264427
-0.00775752
-0.00577653
-0.00520568
-0.000816973
0.00656314
0.00633893
-0.00277881
-0.012095
-0.00932912
0.000266536
0.000733847
-0.000243726
0.00475219
0.0034039
0.0017375
0.00227269
-0.00318573
-0.00672387
-0.00427161
-0.00277078
0.00470167
0.00563466
-0.00203362
0.00570251
0.00661626
-0.00453346
-0.00752801
-0.00394824
-0.00324567
-0.00339045
0.00307484
0.00260434
0.00354333
0.00879963
0.00129985
-0.0012883
0.00669913
0.00763123
0.00856503
-0.0057105
-0.00543
0.00201093
-0.000361113
0.00541772
0.0153178
0.0149894
0.00523156
-0.00651987
-0.00417953
0.00430923
0.000139235
-0.00475522
0.00157109
0.00424065
0.00240847
0.00446379
0.00239058
-0.000181635
0.00348679
0.00865649
0.0167267
0.0113687
0.000547523
0.0074869
0.00517335
-0.00427636
-0.00383628
0.000787343
-0.000890312
-0.00657896
-0.000283268
0.00404026
0.00976114
0.013337
0.00134303
-0.00127701
0.00641237
0.0109702
0.00397725
-0.0102423
-0.00337082
0.00746375
0.0029963
0.00902338
0.0182655
0.0173802
0.00514477
-0.0102665
-0.0101911
-0.000129216
0.00128448
0.00371785
0.00766558
0.00121334
-9.42165e-05
0.0073667
0.00168176
-0.00594352
0.0028952
0.0130437
0.0167767
0.005119
-0.00417908
0.00480372
0.00275898
-0.00337315
-0.0025661
0.00232196
-0.00122453
-0.00875693
-0.000673064
0.00271674
0.0079614
0.0112401
-0.000599158
0.00356732
0.0149812
0.0149294
0.00749629
-0.00374983
0.0053402
0.0103677
-0.00237477
0.00123829
0.00763556
0.00717215
-0.00119365
-0.0120737
-0.00510556
0.000814327
-0.00501598
-0.00394243
0.00112191
0.000316276
0.00335649
0.0116283
0.00480657
-0.00277457
0.0082064
0.0152507
0.0121687
-0.000684681
-0.00322733
0.00828505
0.00541118
-0.00244036
-0.00543549
0.00298101
0.00429518
-0.00320166
0.00370757
0.00657372
0.0123352
0.014693
0.00229493
0.00302727
0.00690335
0.00992335
0.0159102
-0.0014895
0.0089783
0.0127325
-0.00182148
0.00193158
0.00950602
0.0149417
0.00730248
-0.00890479
-0.0070278
-0.00576782
-0.00781728
-0.00245425
0.005386
0.00341581
0.00495303
0.0156088
0.00928217
-0.00283932
0.00776509
0.0187631
0.013126
0.000182917
0.00057435
0.0068442
0.00112845
-0.0070819
-0.00926846
0.00343094
0.002784
-0.00697721
0.00237235
0.00446885
0.0110627
0.0120604
-0.00204439
0.000292319
0.00533942
0.0164566
0.0110844
-0.00871545
0.00405827
0.0096275
-0.00123133
0.00125761
0.00729291
0.0145736
0.00596554
-0.00901507
-0.00521761
-0.00532697
-0.00845251
-0.00471547
0.00289754
-0.00195228
0.000971895
0.0140334
0.0096624
-0.00134165
0.00922329
0.0175936
0.00538199
-0.00678472
-0.000461129
0.008624
0.0023136
-0.00881342
-0.00940799
0.00647625
0.00284022
-0.00661022
0.00319845
0.00303673
0.0113121
0.0125317
-0.00313097
0.000622537
0.00578326
0.0167001
0.0121842
-0.00666222
0.00578346
0.0106813
-0.000713549
-0.000445385
0.00328523
0.0116481
0.00443717
-0.00586526
-0.00143061
-0.00417714
-0.00712913
8.10197e-05
0.00485902
-0.00515512
-9.8535e-05
0.018906
0.0118032
-0.00463663
0.00597866
0.0148451
0.0015689
-0.00624817
0.00379582
0.0117222
-0.000179036
-0.0143959
-0.0115373
0.00866335
0.00513473
-0.00492086
-0.00345557
-0.00538664
0.00881046
0.00920688
-0.00505153
0.00071103
0.00301376
0.0143135
0.0169253
-0.00631374
0.00281046
0.0118078
0.00257425
-0.00247297
-0.00141981
0.00975596
0.00498787
-0.00408251
-0.00169436
-0.00372734
-0.00226652
0.00720325
0.0072652
-0.00522324
-0.00246651
0.0158943
0.00753622
-0.00727319
0.00709651
0.0150751
-0.000115839
-0.00569153
0.00683384
0.0134929
-0.00172829
-0.0178114
-0.0136491
0.00866668
0.00602887
-0.00125395
-0.00179499
-0.00553536
0.0062505
0.00566121
-0.00587277
0.00049672
0.00154983
0.0168403
0.0124927
-0.010318
0.00104782
0.0131647
0.00221168
-0.00464513
-0.00176231
0.0110792
0.00391032
-0.00548793
0.00273959
0.00314572
0.00319889
0.0106702
0.00730253
-0.00808323
-0.00717513
0.0127887
0.00518157
-0.00902497
0.0072222
0.0130076
-0.00371472
-0.00729001
0.00873433
0.0149222
-0.0036093
-0.0217072
-0.0113654
0.011634
0.00603388
-0.0015055
-0.00342168
-0.00412949
0.0092093
0.0073542
-0.00592662
-0.00152328
-0.00162652
0.0133949
0.011034
-0.0142471
-0.00207394
0.0131628
0.00273783
-0.00753224
-0.0040554
0.0100724
0.00308011
-0.00659548
0.0060038
0.00794814
0.00450881
0.0100592
0.00826635
-0.00630902
-0.00893962
0.0101111
0.00339732
-0.00940442
0.00607477
0.0090362
-0.00767536
-0.00662574
0.0133183
0.0171849
-0.00645794
-0.0247123
-0.00971941
0.011023
0.00643195
-0.00114831
-0.00685983
-0.00506986
0.0121484
0.00833567
-0.00581729
-0.00297279
-0.0041223
0.0120701
0.012662
-0.010692
0.000774786
0.0168208
0.0070655
-0.00880242
-0.00424985
0.0106965
0.00357573
-0.00664849
0.00890647
0.010416
0.00418312
0.0114234
0.0118386
-0.00626337
-0.0132723
0.0098867
0.00330793
-0.00990152
0.00614158
0.00824629
-0.00881689
-0.00368956
0.0181763
0.0187365
-0.00889438
-0.0242941
-0.00740316
0.00945517
0.00663326
-0.002515
-0.0101728
-0.00345302
0.0166335
0.0095807
-0.00463651
-0.00213548
-0.00430742
0.0117867
0.0126055
-0.0105867
0.00101181
0.0183498
0.00687292
-0.0126495
-0.00536184
0.0104238
0.00350768
-0.00503008
0.00827379
0.00702765
0.00336607
0.013768
0.0144813
-0.00839897
-0.0187846
0.00795897
0.0027461
-0.00912412
0.00677576
0.00463231
-0.0124472
-0.00130434
0.0221791
0.0203764
-0.012122
-0.0262071
-0.00723369
0.00956477
0.00959653
-0.00200153
-0.0136986
-0.00396856
0.0182507
0.00977403
-0.00421939
-0.00148523
-0.00556097
0.00930241
0.0139899
-0.0110875
0.000590785
0.0212143
0.00755704
-0.0153406
-0.00453062
0.0122843
0.00340908
-0.00334828
0.00561953
0.00493468
0.0061325
0.0177758
0.0188806
-0.00739186
-0.0214468
0.00760503
0.00436898
-0.0082841
0.00710984
0.00112831
-0.0149426
0.00281386
0.0280986
0.0244163
-0.0154521
-0.0300319
-0.0104787
0.00915026
0.0125741
-0.00487043
-0.0185401
-0.00469356
0.0191862
0.0106727
-0.00393096
-0.00172724
-0.00664774
0.00805453
0.014458
-0.0104442
4.7304e-05
0.0228385
0.00837676
-0.0169753
-0.00454085
0.0126219
0.00331109
-0.00155749
0.00405318
0.00456781
0.00809902
0.0215039
0.022519
-0.00696535
-0.023226
0.00719558
0.00546951
-0.00743124
0.00826378
-0.00222856
-0.0162956
0.00736571
0.0343513
0.0287408
-0.0186829
-0.0333964
-0.0139654
0.0078552
0.0145338
-0.00841112
-0.0220922
-0.00502958
0.020867
0.0113257
-0.00489495
-0.00210962
-0.00717759
0.00670872
0.0141313
-0.011093
-0.0011544
0.0237555
0.00779433
-0.0184123
-0.00400979
0.0126628
0.00390456
-0.000254595
0.00349384
0.00478555
0.00922816
0.0241556
0.0243945
-0.00873205
-0.0264619
0.00491282
0.00604524
-0.0073561
0.00771
-0.00462087
-0.0145136
0.00989209
0.0381276
0.0324058
-0.0211168
-0.0365343
-0.017695
0.00772908
0.018195
-0.00916625
-0.0235713
-0.00354206
0.0233538
0.0109255
-0.00732242
-0.00308706
-0.00764452
0.00595156
0.0143317
-0.0124902
-0.00341286
0.0245723
0.00744279
-0.0190062
-0.00310168
0.0116562
0.00381347
0.00170185
0.0065796
0.0061379
0.00994456
0.0272715
0.02684
-0.00928587
-0.0264256
0.00477265
0.00624231
-0.00802126
0.00713928
-0.00516571
-0.0132247
0.0100822
0.0409453
0.0352665
-0.0227065
-0.0393327
-0.0200381
0.0073393
0.0217984
-0.00744252
-0.0245332
-0.00272575
0.0248687
0.00903365
-0.0102274
-0.00286334
-0.00745789
0.00579926
0.0154325
-0.0131083
-0.00618308
0.0243931
0.00690755
-0.0186571
-0.00243194
0.00999535
0.00370229
0.00346578
0.00965688
0.00698603
0.0099588
0.0297668
0.028253
-0.00999038
-0.0247081
0.00683969
0.00618758
-0.0088368
0.00676498
-0.0062093
-0.0134323
0.0113522
0.0455466
0.0364839
-0.0252726
-0.041285
-0.0211978
0.00560548
0.0244573
-0.00651053
-0.0256437
-0.00360272
0.0240058
0.00706706
-0.0111763
-0.00266038
-0.00850007
0.00489126
0.0169306
-0.0128848
-0.00801747
0.0238531
0.00638781
-0.0170343
-0.0016788
0.0088083
0.00411876
0.00421626
0.0117809
0.00730183
0.00896253
0.0315558
0.0294027
-0.011004
-0.0239202
0.008291
0.0052419
-0.00948863
0.00654596
-0.00702886
-0.0138556
0.0124065
0.0495836
0.0363683
-0.0272039
-0.043149
-0.0242114
0.00361288
0.0267944
-0.00622386
-0.0278641
-0.00488178
0.0241184
0.00708239
-0.00882471
-0.000355022
-0.00849155
0.00417272
0.0186514
-0.0123275
-0.00899715
0.0231755
0.00626932
-0.015345
-0.00164761
0.00790739
0.00480556
0.00543697
0.0140162
0.00773751
0.00781533
0.0328272
0.030064
-0.0121832
-0.0236267
0.00915859
0.00421308
-0.0095485
0.00616151
-0.00781316
-0.0141037
0.0133698
0.051412
0.036759
-0.0266843
-0.0433894
-0.0262984
0.00302572
0.0285001
-0.00311524
-0.0276812
-0.00302986
0.0260599
0.00709426
-0.00658038
0.00306719
-0.00761151
0.00386663
0.0199115
-0.0122089
-0.00972135
0.0225031
0.0065207
-0.0138637
-0.00195355
0.00659709
0.00566805
0.00799274
0.0162679
0.00754983
0.00655127
0.0327736
0.0299287
-0.0130737
-0.0232206
0.0102188
0.00463092
-0.00919736
0.00595509
-0.00805855
-0.0138388
0.0144575
0.0523692
0.0371235
-0.0267332
-0.0421931
-0.0259263
0.00589745
0.0314765
0.000318662
-0.0269885
-0.000701651
0.0266486
0.00610579
-0.00533558
0.00506069
-0.00769534
0.00319598
0.020931
-0.0125234
-0.0103711
0.0219646
0.00682631
-0.0121914
-0.00197789
0.00538564
0.00627367
0.00979104
0.0172944
0.0066128
0.00482078
0.031925
0.0294314
-0.0136502
-0.0226728
0.0117578
0.00605456
-0.00879962
0.00596418
-0.00799644
-0.0146095
0.0157457
0.0532085
0.0365028
-0.0272518
-0.0416167
-0.0250041
0.00957604
0.0342507
0.00154629
-0.0275273
-0.000771109
0.0263376
0.00596752
-0.0045124
0.00550467
-0.00847783
0.0027292
0.0214281
-0.0128051
-0.0106125
0.0213672
0.00725831
-0.010823
-0.00228214
0.00410022
0.0064493
0.0102661
0.0172325
0.00577034
0.00397971
0.0312808
0.0286495
-0.0142919
-0.0220448
0.0133125
0.00701644
-0.0084955
0.00570523
-0.00770846
-0.0142912
0.0165348
0.0536107
0.0360934
-0.0268776
-0.0410865
-0.0243341
0.0108014
0.0344844
0.00132985
-0.0277618
-0.000996601
0.0266064
0.00639221
-0.00441047
0.0055219
-0.00872151
0.00281013
0.0215934
-0.012655
-0.0106249
0.0209277
0.00782668
-0.010407
-0.00284675
0.00341608
0.00637397
0.0102153
0.0172882
0.00488326
0.00343305
0.0304895
0.0276994
-0.0147734
-0.0213896
0.0145658
0.00754351
-0.00848503
0.00556638
-0.00708817
-0.0138059
0.0168201
0.0541943
0.0360859
-0.0261888
-0.0406617
-0.0246004
0.0108551
0.0340685
0.00145377
-0.0273651
-0.00089947
0.0264848
0.006348
-0.00449063
0.00565303
-0.00861378
0.00287785
0.0217411
-0.0123972
-0.0106236
0.0207855
0.00809193
-0.0103752
-0.00333348
0.00331434
0.00647233
0.010219
0.0168105
0.0037516
0.00273563
0.0300212
0.0273264
-0.0148359
-0.0210138
0.0151736
0.00781908
-0.00848405
0.00574149
-0.00682775
-0.013977
0.0173172
0.054873
0.0356582
-0.0258949
-0.0403037
-0.0244759
0.010866
0.0336068
0.00178223
-0.0267384
-0.00096199
0.0261668
0.00643479
-0.00444935
0.00572201
-0.00848079
0.00294747
0.0218414
-0.0121982
-0.0105939
0.0206397
0.00801092
-0.0103562
-0.00341506
0.00331059
0.0063142
0.0100646
0.0165487
0.00328745
0.0024397
0.029924
0.0270847
-0.0148363
-0.0209367
0.0154797
0.00808065
-0.00838364
0.00572825
-0.00680249
-0.0136016
0.0179036
0.0546068
0.0349215
-0.0258223
-0.0397505
-0.0241949
0.0106069
0.0332074
0.00195805
-0.0262417
-0.00105406
0.0259294
0.00644812
-0.00439565
0.00579043
-0.00837333
0.00299224
0.0218863
-0.0121136
-0.0106074
0.0205275
0.00798241
-0.0103305
-0.0034736
0.00327365
0.00632344
0.0101503
0.0165468
0.00309997
0.00232922
0.029872
0.0269011
-0.0148922
-0.0208843
0.0156997
0.00821477
-0.00829957
0.0058101
-0.00651367
-0.0133832
0.017695
0.054271
0.0345913
-0.0258922
-0.0396104
-0.0241178
0.0104992
0.0330156
0.00195945
-0.0259924
-0.00110385
0.025787
0.00644822
-0.00436336
0.00579772
-0.00833054
0.00302901
0.0073874
0.0026749
-0.00193838
0.00914939
0.000654964
-0.00412695
0.00783769
0.00570606
0.00610502
0.0059261
0.00430311
0.0057333
0.000796849
0.0049687
0.00237911
-0.000134683
0.00484528
-0.00204757
0.00130876
0.00632181
-0.000255061
0.00257412
0.00750174
0.00321573
0.00506197
0.00782545
0.00313967
0.00729163
0.00350547
-0.0041426
0.00608482
0.00530586
0.00119563
0.00640242
0.00605696
0.00514043
0.00399457
0.00497487
0.00264077
-0.000642782
0.00623606
-0.00154356
-0.000670023
0.00705129
-0.00320688
-0.0043557
0.00385428
0.000319163
0.00173729
0.0036863
0.00216934
0.00513814
0.00414712
0.00593427
0.00402757
0.00180981
0.0052447
-0.000162443
0.00276201
0.00880437
0.00269795
0.00297182
0.00760337
0.00388907
0.00118282
0.00189038
-0.000390991
0.00217533
-0.00103535
-0.00500042
0.00712637
0.00440183
0.00213591
0.0132197
0.00753153
0.00447336
0.00642705
0.00164061
-0.00128397
0.00157568
0.0059864
0.00214182
0.00501794
0.00446801
-0.00240205
0.00114307
0.00543371
0.00266311