/*--------------------------------*- C++ -*----------------------------------*\
  =========                 |
  \\      /  F ield         | OpenFOAM: The Open Source CFD Toolbox
   \\    /   O peration     | Website:  https://openfoam.org
    \\  /    A nd           | Version:  10
     \\/     M anipulation  |
\*---------------------------------------------------------------------------*/
FoamFile
{
    format      ascii;
    class       volScalarField;
    location    "10";
    object      pPrime2Mean;
}
// * * * * * * * * * * * * * * * * * * * * * * * * * * * * * * * * * * * * * //

dimensions      [0 4 -4 0 0 0 0];

internalField   nonuniform List<scalar> 
25600
(
1.43793e-06
4.8687e-07
1.73038e-06
1.19516e-05
2.2617e-06
1.09305e-06
4.81816e-06
1.50044e-06
2.60236e-06
2.51681e-06
1.0766e-06
3.00687e-06
1.37094e-06
3.51473e-07
7.20139e-07
1.64555e-07
4.59803e-06
1.85145e-07
3.85898e-07
3.81403e-06
2.15906e-07
6.58631e-07
6.15828e-06
8.50362e-07
1.20388e-06
4.92016e-06
2.45633e-07
9.04038e-07
7.02433e-07
6.94338e-06
1.26651e-06
4.80557e-06
2.21619e-07
2.0902e-06
3.36248e-06
1.82364e-06
1.83635e-06
2.70711e-06
1.88512e-06
6.89311e-07
1.60216e-06
2.11824e-07
4.99043e-07
8.35831e-06
2.43872e-07
1.52073e-06
2.75394e-06
2.20357e-07
1.92279e-07
2.12104e-07
1.12617e-06
1.93279e-07
5.29625e-07
1.34797e-06
1.24203e-06
2.96989e-07
9.66955e-07
1.74354e-06
1.78709e-07
6.92936e-06
8.54818e-07
1.13927e-06
5.68539e-06
4.2123e-07
4.7059e-07
1.70969e-06
1.28201e-07
2.66588e-07
3.68093e-07
4.594e-06
3.81144e-06
6.06832e-06
5.04364e-07
1.29364e-05
2.61483e-06
1.67787e-07
1.80009e-06
2.30727e-07
2.29707e-06
1.47244e-06
1.22756e-05
1.83066e-06
1.32952e-06
3.31684e-06
3.62605e-07
1.02811e-06
9.29423e-06
5.64118e-06
4.36655e-06
4.61077e-06
5.88984e-07
9.30824e-07
1.06616e-06
2.33542e-07
2.0765e-07
8.73895e-07
3.43163e-06
6.1794e-07
2.74537e-06
7.60131e-06
1.56163e-06
1.83996e-06
6.88047e-06
3.37522e-06
3.7322e-07
4.92414e-06
2.19128e-06
2.90957e-07
1.14605e-06
6.18204e-06
1.946e-07
5.82311e-07
3.23373e-07
1.61639e-05
1.21008e-06
3.24775e-07
6.08395e-06
5.19819e-07
4.35651e-06
1.9877e-06
8.76449e-06
3.69252e-07
3.15113e-07
1.0641e-06
3.47021e-06
1.33821e-06
1.02416e-06
4.00449e-06
8.22293e-06
1.02651e-05
3.01951e-06
5.65947e-06
4.83433e-06
1.57346e-06
5.42084e-07
8.60594e-07
7.43195e-07
2.20312e-06
6.59632e-06
8.79584e-06
3.03357e-06
3.27995e-07
3.03412e-07
3.52666e-07
1.85233e-06
1.65406e-06
3.70087e-06
3.31652e-07
7.49841e-07
9.33615e-07
8.64729e-07
6.37874e-07
3.45592e-06
1.28416e-05
4.72401e-07
3.64684e-07
5.52777e-06
4.9145e-07
3.1e-07
9.9301e-06
6.90965e-06
3.26552e-07
3.34699e-06
5.97584e-06
4.95579e-06
2.38511e-06
3.87555e-07
7.393e-06
1.58933e-05
6.78604e-06
1.39743e-06
3.50177e-07
4.00955e-07
5.70795e-06
4.05415e-07
5.51984e-06
3.62882e-06
7.35559e-06
5.47764e-06
2.18566e-06
6.18812e-07
4.36646e-07
6.54576e-07
3.35263e-06
4.47022e-07
4.21759e-06
3.18306e-06
2.81754e-06
3.68017e-06
1.19325e-06
7.41414e-07
2.48788e-06
7.56286e-07
4.03523e-06
4.75827e-07
1.36146e-06
1.57144e-06
2.83105e-06
3.17666e-07
9.56489e-06
1.79949e-06
4.00169e-06
8.66517e-06
7.74375e-06
4.13894e-06
9.25064e-07
3.16934e-06
1.76152e-05
1.38233e-05
1.60522e-06
5.88941e-07
2.77636e-06
1.42076e-06
2.17266e-06
1.40532e-06
3.84355e-06
2.43008e-06
8.56636e-06
5.33736e-06
6.72559e-07
6.83924e-07
2.86539e-06
4.49734e-07
6.76423e-07
2.67064e-06
2.847e-07
4.05985e-06
5.37502e-07
4.43736e-07
4.61158e-07
7.83413e-07
1.15362e-06
2.2068e-06
2.96594e-06
5.35284e-07
3.02378e-06
7.57079e-07
2.52886e-06
1.08313e-06
1.02799e-05
2.06194e-06
3.94466e-06
1.1691e-05
6.11793e-06
1.96046e-06
9.58084e-07
1.1788e-06
6.3803e-06
1.84382e-06
4.64943e-06
5.88953e-06
1.01849e-06
8.19484e-07
5.17866e-07
1.67674e-06
1.4584e-06
1.38492e-06
4.37601e-06
4.2008e-07
3.93808e-06
5.3367e-06
2.62338e-06
9.00646e-07
3.48593e-07
6.60979e-06
7.16111e-07
4.38915e-06
2.76325e-06
7.33891e-06
8.62709e-07
4.65502e-07
4.94785e-07
7.02299e-07
5.42143e-07
5.80878e-07
2.32876e-06
7.52148e-07
1.06514e-06
1.28343e-05
1.98229e-05
3.03615e-06
8.42723e-07
4.34689e-06
1.742e-06
2.02372e-06
1.01763e-06
3.08322e-06
1.24824e-05
5.02645e-06
2.6538e-06
7.88499e-07
7.06932e-06
2.25592e-06
7.1926e-07
1.21604e-06
2.111e-06
1.82542e-06
3.48631e-06
6.73371e-07
2.02373e-06
7.28231e-07
3.49343e-06
1.34555e-05
3.11544e-06
7.24753e-07
3.54601e-06
1.75e-06
2.90107e-06
1.51296e-06
1.23758e-06
5.86702e-07
6.66534e-06
3.89406e-06
5.45694e-07
1.79713e-06
7.73635e-06
3.92901e-06
6.30673e-06
2.6305e-05
1.70727e-05
1.00464e-05
3.88652e-06
9.6864e-06
8.32707e-07
6.97156e-07
1.07702e-06
4.45293e-06
1.37641e-05
6.97215e-06
3.28992e-06
1.86507e-06
1.64211e-06
1.34285e-06
2.15767e-06
1.01412e-06
6.73259e-07
1.92043e-06
1.25451e-05
3.17007e-06
5.71257e-06
3.07574e-06
2.33084e-06
1.35678e-05
4.62806e-06
6.71235e-07
7.14656e-06
9.64119e-07
4.80475e-06
2.70325e-06
9.92464e-07
5.50999e-07
9.98377e-06
3.38457e-06
4.27897e-07
2.7222e-06
6.18926e-06
3.75669e-07
3.9835e-07
2.55658e-05
4.35197e-05
1.89735e-06
4.0921e-06
5.61105e-07
7.99575e-06
8.6799e-07
1.46208e-06
8.73993e-07
4.66602e-06
4.84192e-06
1.23666e-06
8.33464e-07
3.72889e-06
9.64698e-07
2.0657e-06
6.89635e-07
9.23294e-07
3.86353e-06
1.6598e-05
1.4965e-06
8.75231e-06
6.92746e-07
9.04362e-06
8.38702e-06
1.0311e-06
6.38957e-07
5.16861e-06
1.06607e-06
1.45073e-05
1.37778e-05
5.94081e-07
7.85962e-07
4.71994e-06
4.89487e-07
2.12372e-06
8.0626e-06
1.38051e-05
1.04749e-06
7.49398e-07
3.5297e-06
5.21521e-06
7.52655e-06
2.40953e-06
1.45594e-06
1.32263e-05
1.08175e-06
2.65507e-06
9.74272e-07
1.21766e-05
1.33724e-05
7.9387e-07
2.60726e-06
5.92361e-06
2.06264e-06
8.6204e-07
1.35799e-06
6.51527e-07
3.17682e-06
3.50277e-05
5.51575e-06
1.11135e-05
8.19059e-07
1.15147e-05
9.2948e-06
1.52666e-06
8.06308e-07
1.73767e-06
3.39295e-06
1.20763e-05
1.04789e-05
2.86152e-06
4.25418e-06
5.74609e-06
2.13082e-06
6.18699e-07
3.22148e-06
1.31815e-05
2.68531e-06
1.44744e-06
7.71132e-07
6.10439e-06
5.30532e-06
3.86029e-06
4.74802e-06
2.24579e-05
2.22366e-06
1.52315e-06
9.33864e-07
7.97765e-06
5.46693e-06
1.12966e-06
2.189e-06
3.34321e-06
6.86949e-07
6.65445e-07
7.36927e-07
2.4872e-06
1.1017e-06
3.38972e-05
7.64799e-06
3.88814e-06
3.93231e-06
1.82172e-05
8.7661e-06
1.23356e-06
1.4929e-06
3.12324e-06
1.49924e-06
5.58547e-06
1.46513e-06
7.72152e-06
1.30487e-06
1.28996e-05
4.61997e-06
8.29e-07
9.73826e-06
2.41298e-05
2.07651e-06
3.90603e-07
6.33552e-07
7.26625e-06
2.62761e-06
3.00073e-06
8.8003e-06
2.19687e-05
8.69337e-07
2.30447e-06
1.37315e-06
3.86628e-06
1.5202e-06
6.7443e-07
5.06772e-06
1.50562e-06
4.44316e-07
3.03133e-06
1.33613e-06
4.54933e-06
9.44918e-07
3.73013e-05
7.01875e-06
5.5509e-06
1.47358e-06
6.4156e-06
2.27992e-06
1.06404e-06
4.67167e-06
1.8003e-06
9.7229e-06
1.43912e-05
3.75215e-06
4.51544e-06
5.73721e-07
1.26506e-05
7.16361e-06
1.89738e-06
1.51564e-05
2.57587e-05
1.11284e-06
3.84772e-07
1.81072e-06
2.54791e-06
4.17063e-06
1.5147e-06
1.05269e-05
2.73216e-05
1.52122e-06
2.86413e-06
2.75467e-06
4.67415e-06
2.63722e-06
1.60075e-06
5.00191e-06
4.86083e-07
2.44101e-06
1.23623e-05
1.89324e-06
5.20332e-06
1.58697e-06
3.98242e-05
6.96163e-06
5.73097e-06
1.67708e-06
8.97126e-06
3.01935e-06
1.95385e-06
4.31031e-06
6.32989e-07
2.06413e-05
1.92191e-05
2.70488e-06
6.74036e-06
1.08643e-06
7.66117e-06
8.24584e-06
2.34105e-06
1.98859e-05
2.57798e-05
9.0089e-07
4.01304e-07
1.66318e-06
3.05496e-06
4.36255e-06
1.7294e-06
9.33779e-06
2.81633e-05
8.00462e-07
5.83737e-06
2.65011e-06
8.41207e-06
1.75641e-06
9.93168e-07
9.98214e-07
7.90492e-07
1.86553e-06
5.54616e-06
3.93426e-07
1.09467e-05
7.28611e-07
3.34944e-05
5.28286e-06
5.12456e-06
2.65117e-06
7.77556e-06
1.45174e-06
9.08369e-07
2.25777e-06
1.05039e-06
2.15112e-05
1.68215e-05
1.51875e-06
2.25649e-05
6.78223e-06
1.04286e-06
3.86052e-06
8.66266e-07
3.42856e-05
2.48111e-05
5.39914e-07
7.15911e-07
1.48513e-06
2.56184e-06
5.11451e-06
2.40698e-06
5.77468e-06
2.60876e-05
1.28688e-06
6.56101e-06
3.09966e-06
9.2245e-06
2.39432e-06
3.13414e-06
9.9749e-07
1.05528e-06
5.05893e-07
1.09028e-06
2.05896e-06
1.46876e-05
6.68004e-07
2.5722e-05
4.22618e-06
3.26411e-06
4.75608e-06
6.87965e-06
9.72304e-07
8.86188e-07
4.37847e-06
5.59279e-07
1.98774e-05
1.18474e-05
9.80305e-06
3.78932e-05
1.5922e-05
7.36175e-07
6.88689e-06
8.49374e-07
4.12631e-05
1.49644e-05
4.67187e-07
1.17042e-06
1.49501e-06
2.91792e-06
5.91919e-06
1.8761e-06
5.24857e-06
2.84039e-05
4.10572e-06
4.15924e-06
3.20725e-06
7.14763e-06
1.79754e-06
5.73998e-06
1.51708e-06
1.50784e-06
6.80715e-07
1.30016e-06
4.43448e-06
1.99365e-05
6.48576e-07
3.84093e-05
7.28721e-06
2.09957e-06
8.52713e-06
8.62231e-06
8.43699e-07
8.32988e-07
9.6661e-06
2.23726e-06
2.33904e-05
1.04894e-05
1.45511e-05
3.27471e-05
1.68068e-05
1.07679e-06
8.90903e-06
2.03407e-06
3.0815e-05
5.29828e-06
1.03703e-06
1.282e-06
1.64857e-06
2.93864e-06
3.98755e-06
7.33913e-06
9.97332e-07
1.6237e-05
3.61438e-06
5.3943e-06
6.02452e-06
2.92407e-06
1.22562e-06
7.50254e-06
1.84018e-06
4.54072e-06
1.05167e-06
4.55466e-06
5.40876e-06
1.93574e-05
3.2354e-06
6.68551e-05
1.1513e-05
2.0114e-06
9.68575e-06
7.26764e-06
2.53765e-06
1.12281e-06
2.01873e-05
3.36121e-06
4.03177e-05
1.43166e-05
1.52992e-05
3.69864e-05
2.27987e-05
2.61984e-06
1.13784e-05
3.4433e-06
1.56648e-05
2.0185e-06
1.06619e-06
1.15771e-06
1.93502e-06
3.71074e-06
4.97382e-06
1.07306e-05
1.63112e-06
7.50431e-06
2.32267e-06
1.05438e-05
1.11065e-05
1.50769e-06
4.08726e-06
7.21034e-06
1.60671e-06
7.3017e-06
5.84762e-07
1.0717e-05
3.54026e-06
1.41664e-05
1.0194e-05
8.99262e-05
1.20843e-05
2.43828e-06
1.20864e-05
7.84904e-06
9.96463e-06
2.94214e-06
3.61485e-05
3.54645e-06
6.92019e-05
1.69294e-05
2.29588e-05
5.15798e-05
2.73363e-05
1.57092e-06
1.88844e-05
5.90079e-06
8.23126e-06
1.36543e-06
1.555e-06
1.43147e-06
2.00607e-06
3.46664e-06
1.08984e-05
8.02287e-06
2.74643e-06
1.05428e-05
5.61181e-06
8.54617e-06
1.31293e-05
1.85234e-06
1.03913e-05
7.48721e-06
1.42649e-06
1.09002e-05
1.68555e-06
2.23241e-05
2.58427e-06
1.59408e-05
1.15708e-05
8.76792e-05
1.07736e-05
2.08149e-06
1.43061e-05
6.27242e-06
2.08535e-05
4.11189e-06
5.47584e-05
2.68247e-06
0.000108856
1.80186e-05
3.27159e-05
6.48532e-05
3.01294e-05
1.65976e-06
1.80272e-05
6.68003e-06
7.28143e-06
1.22075e-06
1.71135e-06
3.46865e-06
2.01759e-06
3.1305e-06
1.89803e-05
7.67703e-06
3.47401e-06
2.07836e-05
1.37249e-05
7.2819e-06
1.51885e-05
2.54959e-06
1.5896e-05
6.73118e-06
1.10083e-06
1.87037e-05
1.49612e-06
2.40785e-05
5.34942e-06
2.0938e-05
9.72218e-06
7.40887e-05
1.05878e-05
2.81613e-06
8.1428e-06
2.67498e-06
2.22408e-05
2.24039e-06
7.64828e-05
1.49813e-06
0.000163435
1.79572e-05
4.13974e-05
7.85702e-05
3.53113e-05
3.59903e-06
8.20886e-06
3.26982e-06
1.34853e-05
1.64274e-06
1.54521e-06
6.25987e-06
2.17718e-06
3.34372e-06
2.72575e-05
8.29878e-06
4.01746e-06
3.07414e-05
1.92867e-05
7.90273e-06
1.38223e-05
3.41465e-06
2.11829e-05
4.34541e-06
9.92874e-07
4.21559e-05
8.8116e-07
2.59361e-05
6.03799e-06
2.32256e-05
9.55046e-06
7.22515e-05
9.97233e-06
5.33569e-06
4.65737e-06
3.34261e-06
1.64688e-05
1.49727e-06
8.91943e-05
2.99207e-06
0.000214167
1.74225e-05
4.86221e-05
7.63456e-05
3.6487e-05
8.26615e-06
4.22798e-06
2.69663e-06
1.57404e-05
1.78396e-06
1.88328e-06
7.44159e-06
2.56218e-06
3.78419e-06
3.78242e-05
7.92331e-06
3.63883e-06
3.88477e-05
2.39361e-05
6.02707e-06
9.92692e-06
4.73349e-06
2.40305e-05
2.53028e-06
1.67632e-06
7.93051e-05
1.81969e-06
3.37038e-05
6.66605e-06
2.59424e-05
9.87562e-06
8.08623e-05
9.51059e-06
7.46967e-06
4.63371e-06
3.96436e-06
1.9866e-05
1.62914e-06
0.000100082
5.01174e-06
0.000263377
1.81418e-05
5.65266e-05
6.51544e-05
4.30162e-05
2.10376e-05
3.22685e-06
4.16535e-06
1.31718e-05
1.884e-06
1.7094e-06
1.02781e-05
3.46611e-06
4.25239e-06
4.42667e-05
7.87589e-06
1.89499e-06
5.48298e-05
3.03839e-05
4.89423e-06
8.01233e-06
6.24933e-06
2.7803e-05
2.47205e-06
4.49395e-06
0.000101464
1.37431e-06
3.86275e-05
6.7369e-06
2.61336e-05
9.5926e-06
8.96101e-05
9.96483e-06
8.01619e-06
4.74693e-06
3.74752e-06
2.30073e-05
1.98863e-06
0.000111752
5.38314e-06
0.000292395
1.98508e-05
5.22809e-05
5.35492e-05
6.4964e-05
3.87713e-05
3.57079e-06
5.49343e-06
1.47312e-05
2.24263e-06
1.8536e-06
1.22128e-05
4.03624e-06
5.13479e-06
4.53768e-05
6.92157e-06
1.32299e-06
7.62113e-05
3.4856e-05
5.92901e-06
9.09795e-06
9.21096e-06
3.2598e-05
3.87632e-06
8.82571e-06
0.000101143
8.94226e-07
4.09316e-05
5.63077e-06
2.34236e-05
9.56512e-06
9.32471e-05
9.59806e-06
8.68989e-06
4.44022e-06
3.96433e-06
2.22033e-05
2.37598e-06
0.000118063
5.98005e-06
0.00031116
2.18664e-05
5.10128e-05
5.29784e-05
9.18234e-05
4.49755e-05
5.22732e-06
5.92132e-06
1.67557e-05
2.23825e-06
2.01462e-06
1.23251e-05
4.0734e-06
6.02167e-06
4.84605e-05
4.67037e-06
2.06119e-06
9.08949e-05
3.48365e-05
7.31402e-06
9.83553e-06
1.26813e-05
3.96392e-05
7.09535e-06
8.86551e-06
8.6877e-05
1.81015e-06
4.40528e-05
4.63439e-06
2.13668e-05
9.19783e-06
9.38552e-05
9.9085e-06
9.01801e-06
4.08389e-06
4.25574e-06
2.17008e-05
2.2476e-06
0.000120142
5.96756e-06
0.000328951
2.49858e-05
5.41765e-05
6.24352e-05
0.000114103
4.7084e-05
6.76913e-06
6.54264e-06
1.65377e-05
2.30348e-06
2.15971e-06
1.22102e-05
4.56771e-06
6.77463e-06
5.30822e-05
3.5228e-06
3.10505e-06
9.65153e-05
3.26604e-05
7.90616e-06
1.01704e-05
1.60001e-05
4.56256e-05
7.06959e-06
5.40472e-06
7.29147e-05
2.93894e-06
4.69549e-05
4.12754e-06
2.02882e-05
8.39409e-06
9.08036e-05
1.06526e-05
9.37876e-06
3.35406e-06
4.50224e-06
2.10254e-05
1.98304e-06
0.000117445
5.25141e-06
0.000346995
3.05353e-05
5.67061e-05
7.51769e-05
0.000135726
5.11336e-05
7.74341e-06
7.28845e-06
1.72106e-05
2.45665e-06
2.27368e-06
1.09759e-05
5.19659e-06
7.90044e-06
5.46405e-05
3.60811e-06
3.71411e-06
9.74974e-05
3.05577e-05
8.3453e-06
1.01308e-05
1.5388e-05
4.5663e-05
4.37243e-06
3.39755e-06
6.89841e-05
2.93907e-06
5.05985e-05
3.24602e-06
1.91684e-05
7.6838e-06
8.70229e-05
1.09032e-05
9.9205e-06
2.77544e-06
4.74599e-06
2.12606e-05
1.8908e-06
0.000117931
4.15953e-06
0.000350425
3.42913e-05
5.97036e-05
8.5525e-05
0.000150989
4.96684e-05
8.61852e-06
7.06403e-06
1.76822e-05
2.45604e-06
2.38701e-06
1.05534e-05
5.35976e-06
8.69714e-06
5.36037e-05
3.7261e-06
3.80939e-06
9.67549e-05
2.93496e-05
8.09756e-06
8.98789e-06
1.34639e-05
4.35796e-05
3.30109e-06
3.06638e-06
6.88042e-05
3.12221e-06
5.47557e-05
2.32504e-06
1.88162e-05
6.79153e-06
8.38412e-05
1.08945e-05
1.03757e-05
2.43613e-06
4.6703e-06
2.13158e-05
1.95983e-06
0.00012141
3.25881e-06
0.000340532
3.24805e-05
6.0947e-05
8.56446e-05
0.000152862
4.67903e-05
8.8456e-06
6.72975e-06
1.78487e-05
2.48609e-06
2.43444e-06
1.05654e-05
5.45481e-06
8.64524e-06
5.27646e-05
3.82898e-06
3.59335e-06
9.55208e-05
2.86764e-05
7.7447e-06
8.153e-06
1.22078e-05
4.20406e-05
3.23503e-06
2.91421e-06
6.75091e-05
3.3435e-06
5.82759e-05
1.93381e-06
1.98217e-05
6.02192e-06
8.189e-05
1.10056e-05
1.0607e-05
2.25602e-06
4.3148e-06
2.08697e-05
2.07327e-06
0.000121416
2.88857e-06
0.000329274
3.08107e-05
5.88658e-05
8.40983e-05
0.000151657
4.45998e-05
9.40078e-06
6.77649e-06
1.8231e-05
2.51755e-06
2.45705e-06
1.01009e-05
5.62161e-06
8.58818e-06
5.21673e-05
4.00499e-06
3.49362e-06
9.46269e-05
2.80962e-05
7.84107e-06
7.90399e-06
1.154e-05
4.08003e-05
3.23621e-06
2.74397e-06
6.55886e-05
3.49479e-06
5.86614e-05
1.81174e-06
2.04141e-05
5.72216e-06
8.05563e-05
1.10129e-05
1.06871e-05
2.16987e-06
4.28777e-06
2.04405e-05
2.02668e-06
0.000120914
2.64234e-06
0.000321791
2.96734e-05
5.82401e-05
8.32735e-05
0.000149158
4.29854e-05
9.98438e-06
6.66573e-06
1.8776e-05
2.51237e-06
2.48441e-06
9.79588e-06
5.56948e-06
8.60829e-06
5.20771e-05
3.97361e-06
3.46455e-06
9.40983e-05
2.76584e-05
8.02376e-06
8.00431e-06
1.13506e-05
3.97829e-05
3.14827e-06
2.61309e-06
6.46232e-05
3.35904e-06
5.81774e-05
1.73281e-06
2.03754e-05
5.57477e-06
7.95773e-05
1.09991e-05
1.06699e-05
2.15627e-06
4.30576e-06
2.03798e-05
2.01737e-06
0.000120439
2.55631e-06
0.000317811
2.8935e-05
5.81611e-05
8.27046e-05
0.000147825
4.22035e-05
1.01875e-05
6.54341e-06
1.90073e-05
2.5125e-06
2.48694e-06
9.70817e-06
5.51337e-06
8.61685e-06
3.4442e-06
3.56971e-07
2.09812e-06
6.19407e-06
2.3553e-07
4.36639e-06
3.72655e-06
2.55145e-06
5.30703e-06
5.21253e-06
2.53711e-06
4.13872e-06
1.55273e-07
2.44303e-06
1.7168e-06
1.5525e-07
3.2143e-06
5.20496e-07
1.76692e-07
3.10891e-06
2.42455e-07
8.12991e-07
6.3651e-06
1.13728e-06
2.21477e-06
6.24025e-06
3.13407e-07
3.20599e-06
1.20808e-06
4.54091e-06
2.00959e-06
3.31977e-06
1.89353e-07
2.32373e-06
3.16092e-06
1.75906e-06
1.66606e-06
4.21322e-06
2.95334e-06
1.58151e-07
1.56028e-06
8.20282e-07
8.05825e-07
4.67563e-06
1.25531e-06
3.57494e-06
1.35584e-06
1.92229e-07
3.20169e-07
3.93944e-07
6.11884e-07
2.24424e-07
1.81198e-07
2.56008e-06
2.34682e-06
3.27564e-07
1.99926e-06
8.32562e-07
2.01724e-07
6.88818e-06
1.69021e-06
2.4636e-06
7.1974e-06
6.20632e-07
3.86703e-07
2.50522e-07
4.29632e-07
2.30191e-07
1.64667e-07
4.12504e-06
4.68179e-06
3.78875e-06
2.86044e-07
1.29328e-05
3.59934e-06
7.77359e-07
3.43903e-06
4.83097e-07
7.88018e-07
4.92023e-07
3.77904e-06
2.66425e-07
6.7528e-07
1.86744e-06
6.02787e-07
2.78353e-07
3.48465e-06
2.56351e-06
3.85351e-06
5.07976e-06
9.22962e-07
2.63189e-06
4.92565e-06
2.59412e-06
2.47814e-06
3.29946e-06
3.48534e-06
3.2477e-07
1.98815e-06
9.48369e-06
4.58024e-06
4.67222e-06
9.70017e-06
5.14466e-06
8.15692e-07
3.49341e-06
2.01529e-06
2.3311e-07
2.52081e-06
5.53706e-06
2.12509e-07
2.05846e-06
1.62232e-06
1.05481e-05
7.22193e-07
8.86621e-07
1.20402e-05
8.51088e-07
5.31667e-07
1.89104e-06
1.88581e-06
2.80217e-07
2.53099e-07
7.4411e-07
3.63728e-06
1.96145e-06
4.20697e-07
1.79176e-06
2.95136e-06
1.84134e-06
3.65347e-07
1.55924e-06
2.70457e-06
2.02933e-06
3.72842e-07
1.55255e-06
6.18716e-07
6.32294e-07
2.04117e-06
3.51129e-06
1.40543e-06
3.3407e-07
2.57276e-07
3.47322e-07
4.43764e-07
2.17358e-06
5.81551e-06
2.14997e-07
1.56075e-06
2.18317e-06
3.87449e-07
9.39832e-07
2.30417e-06
1.62221e-05
5.07896e-07
2.79042e-06
9.50016e-06
1.08047e-06
7.23675e-07
3.85953e-06
1.18551e-06
2.87508e-07
1.0057e-06
2.74792e-06
5.12777e-06
3.76586e-06
7.9843e-07
9.9651e-07
1.37167e-06
9.40403e-07
8.28984e-06
3.62801e-07
3.29598e-06
6.94363e-07
3.97571e-06
7.40116e-06
1.22219e-06
1.85743e-06
2.14665e-06
2.70838e-06
4.23258e-06
2.69526e-06
4.69015e-06
1.23965e-05
5.0947e-06
7.17737e-06
2.76658e-06
5.3238e-06
6.20445e-06
1.3179e-06
1.20513e-06
4.30851e-06
6.24597e-07
3.73094e-06
4.36312e-07
4.94729e-06
6.20347e-06
3.57207e-07
9.89108e-07
4.40672e-06
2.94858e-06
3.09307e-07
1.15942e-06
1.95793e-06
3.89399e-06
1.89993e-06
4.52464e-07
2.09898e-06
5.44402e-07
4.27935e-06
4.76256e-06
1.23374e-06
5.04268e-07
3.62224e-06
2.26847e-06
4.37403e-06
9.92942e-07
2.80502e-06
1.36413e-06
4.48188e-07
6.35351e-07
1.90989e-06
4.05095e-07
2.60175e-06
6.98411e-07
1.07451e-06
4.61096e-06
3.58331e-07
1.29632e-06
1.70605e-06
4.80896e-06
3.96013e-06
3.69599e-06
7.78208e-06
3.36229e-06
1.08518e-05
1.57484e-06
1.65047e-06
1.10792e-06
5.00582e-06
3.74303e-06
9.28191e-07
6.02559e-06
3.50486e-06
2.94256e-06
5.28015e-07
5.14088e-06
4.91187e-06
1.10883e-06
1.43665e-05
8.53635e-06
5.02736e-07
5.80853e-07
4.01708e-07
3.07805e-06
1.83785e-06
8.11705e-07
1.04887e-06
1.20384e-06
4.61364e-06
2.16208e-06
1.17177e-06
2.79059e-06
3.68105e-06
6.39673e-07
3.67285e-06
4.85786e-06
2.25342e-06
5.69957e-06
1.77389e-06
1.32261e-06
1.37827e-06
1.68735e-06
1.36466e-06
2.02003e-06
8.86882e-06
5.97804e-07
3.4159e-07
5.17581e-06
6.56815e-06
7.95222e-06
3.54804e-06
3.26728e-06
9.26311e-07
5.49489e-07
3.72648e-06
2.46224e-05
2.37535e-05
3.5181e-06
4.36569e-06
1.9697e-06
2.63712e-06
4.89838e-07
2.39746e-06
7.60518e-07
2.48777e-06
1.14972e-06
2.69346e-06
1.20057e-06
6.05417e-07
2.03856e-06
8.38469e-06
2.89414e-05
1.35742e-05
3.66326e-07
6.13984e-06
3.22025e-06
2.01747e-06
1.65939e-06
5.8114e-07
5.14154e-07
4.29421e-06
4.67946e-07
2.42179e-06
1.06099e-05
1.89425e-05
5.44084e-07
3.63882e-07
4.71188e-06
1.2793e-05
2.25228e-06
1.02999e-05
1.37138e-06
6.70769e-06
1.78564e-06
9.53468e-06
3.53014e-05
3.20372e-05
3.52307e-06
1.04784e-05
1.02924e-05
5.57618e-07
8.12993e-07
2.18621e-06
7.0296e-06
7.54818e-07
5.16139e-07
6.59628e-06
9.00349e-07
3.66191e-06
1.63223e-06
1.82719e-05
2.94486e-05
3.19783e-06
1.87408e-06
2.91569e-06
1.27696e-06
1.27991e-06
8.84539e-07
1.20086e-06
5.42081e-07
7.44043e-06
5.2581e-07
1.49256e-06
7.38294e-06
1.38382e-05
3.7537e-07
1.82148e-06
2.38411e-05
2.35971e-05
6.96124e-06
1.51406e-06
4.09986e-06
1.27041e-05
1.00856e-06
1.0483e-06
7.31729e-06
6.55984e-06
5.90348e-07
1.37487e-05
2.54746e-06
8.0356e-07
2.41588e-06
1.56998e-06
8.27655e-07
6.58007e-07
2.25092e-06
1.5643e-05
3.38906e-06
1.08872e-06
8.15129e-06
2.51348e-05
1.62461e-05
3.00781e-07
1.09536e-06
7.83018e-06
3.69225e-06
7.15538e-07
2.86707e-06
1.6537e-06
2.74466e-06
1.11786e-06
2.36434e-06
5.55084e-06
1.68233e-05
2.33936e-05
1.14456e-06
1.54294e-06
5.82224e-06
1.1289e-05
2.78516e-05
5.68401e-07
9.98056e-06
1.88698e-05
8.26594e-07
1.45747e-06
1.11082e-05
2.51064e-05
6.94955e-06
7.3616e-06
4.55859e-06
3.05783e-06
5.50183e-06
7.85592e-07
4.39969e-06
2.43973e-06
3.97273e-06
2.72394e-05
1.02939e-05
1.22947e-06
7.3312e-06
3.69676e-05
1.83611e-05
3.17172e-07
3.60162e-07
5.2474e-06
4.77149e-07
5.02569e-06
8.51002e-06
1.86896e-06
1.44738e-06
4.60649e-06
1.38002e-06
2.97922e-06
1.36994e-05
1.60769e-05
6.17515e-07
3.28992e-07
3.68027e-06
2.92905e-05
1.43633e-05
6.88634e-06
3.08901e-06
1.19762e-05
7.57595e-07
1.17962e-06
7.28792e-06
2.44041e-05
5.1483e-06
7.40828e-06
2.55009e-06
2.63948e-06
6.43706e-06
2.09128e-06
2.04614e-06
7.21184e-07
9.63546e-07
2.26115e-05
1.13442e-05
7.51238e-07
1.01052e-05
3.2826e-05
3.65489e-06
4.55484e-06
3.3282e-07
8.25487e-06
1.03207e-06
7.57382e-06
8.58791e-06
5.23699e-06
1.55761e-06
3.98053e-06
2.02133e-06
1.80496e-06
1.43998e-05
1.73658e-05
1.01491e-06
3.48905e-07
4.24081e-06
3.02856e-05
1.74647e-05
4.02442e-06
5.4309e-06
1.48821e-05
8.47733e-07
7.6223e-07
2.48558e-06
1.65231e-05
3.44402e-06
3.10665e-06
5.70295e-07
1.71826e-06
4.57825e-06
5.81455e-07
3.7932e-06
2.40511e-06
6.15825e-07
3.92208e-05
1.62612e-05
2.34193e-06
4.87924e-06
2.36618e-05
8.10947e-07
3.98432e-06
2.08079e-06
1.49201e-05
4.71253e-07
2.03e-05
1.29577e-05
8.8262e-06
3.69447e-06
2.3293e-06
1.36843e-06
2.90435e-06
9.27108e-06
1.00812e-05
2.2595e-06
4.42121e-07
1.6924e-06
2.30759e-05
3.26662e-05
3.49043e-06
2.49635e-06
1.83343e-05
2.44006e-06
9.58386e-07
7.66642e-07
1.21673e-05
4.1068e-06
1.59745e-06
6.16031e-07
1.4327e-06
7.42319e-07
6.99889e-06
7.21004e-06
2.41621e-06
8.32734e-07
2.88807e-05
7.82363e-06
4.90371e-06
6.86996e-06
2.51192e-05
4.58422e-07
3.10929e-06
5.853e-06
2.01904e-05
7.33604e-07
3.09572e-05
1.80588e-05
9.04588e-06
5.00441e-06
6.53409e-07
8.75462e-07
3.03675e-06
5.68035e-06
4.91421e-06
2.7067e-06
5.78604e-07
1.0798e-06
3.21298e-05
1.87429e-05
9.2084e-06
1.39123e-06
2.20392e-05
2.09144e-06
2.14164e-06
8.87373e-07
1.48212e-05
2.92197e-06
2.87609e-06
1.90802e-06
2.19865e-06
2.11586e-06
1.37338e-05
7.22399e-06
5.79076e-06
4.59239e-06
1.95858e-05
4.58031e-06
7.28836e-06
7.40412e-06
1.94969e-05
1.40745e-06
4.88432e-06
9.38631e-06
2.49834e-05
1.62627e-06
4.61302e-05
1.25523e-05
1.56744e-05
5.2411e-06
8.51925e-07
1.65348e-06
1.98718e-06
1.10651e-05
7.68126e-06
2.68268e-06
4.00745e-07
5.29543e-07
2.10257e-05
1.46013e-05
1.84118e-05
9.41386e-07
2.14861e-05
2.26765e-06
5.51149e-06
2.12874e-06
1.21572e-05
2.16222e-06
4.33754e-06
5.12555e-06
8.08057e-06
3.18472e-06
1.20191e-05
8.54473e-06
3.85695e-06
7.53985e-06
1.25665e-05
2.59003e-06
8.18362e-06
5.64245e-06
1.01559e-05
5.45409e-06
4.1107e-06
2.03447e-05
3.27034e-05
4.36813e-06
6.04057e-05
9.41239e-06
1.43357e-05
5.98917e-06
9.60834e-07
4.63102e-06
2.69692e-06
1.77774e-05
9.29127e-06
2.71104e-06
8.06934e-07
1.63368e-06
1.6896e-05
1.83347e-05
1.04821e-05
1.19917e-06
3.26689e-05
6.97168e-06
7.92502e-06
2.51514e-06
1.30929e-05
2.40026e-06
4.61185e-06
9.47683e-06
1.24872e-05
2.66126e-06
1.4574e-05
1.54589e-05
4.24671e-06
1.74404e-05
1.16699e-05
2.39298e-06
9.58935e-06
5.51999e-06
8.49068e-06
7.39985e-06
1.62589e-06
3.61296e-05
3.82154e-05
8.19188e-06
5.91501e-05
5.90157e-06
1.08127e-05
6.27727e-06
1.29013e-06
9.76912e-06
1.61512e-06
3.10461e-05
1.14636e-05
1.90257e-06
6.46342e-07
2.00416e-06
1.57304e-05
1.80212e-05
1.04955e-05
1.24635e-06
3.7834e-05
6.47255e-06
1.63646e-05
3.73147e-06
1.23418e-05
2.34902e-06
2.91781e-06
8.25223e-06
6.13244e-06
1.89959e-06
2.024e-05
2.20003e-05
7.74042e-06
3.52588e-05
8.11709e-06
2.00589e-06
8.55179e-06
6.21298e-06
3.34569e-06
1.49722e-05
8.53455e-07
5.24651e-05
4.42885e-05
1.53145e-05
6.98774e-05
6.02342e-06
1.08155e-05
1.13568e-05
1.33553e-06
1.80632e-05
2.05341e-06
3.65856e-05
1.16339e-05
1.80922e-06
6.01222e-07
3.35859e-06
1.01431e-05
2.18162e-05
1.16872e-05
1.04883e-06
4.92078e-05
7.43678e-06
2.3928e-05
2.98853e-06
1.67518e-05
2.33252e-06
1.66465e-06
4.22508e-06
3.30916e-06
4.49476e-06
3.23861e-05
3.61842e-05
6.52867e-06
4.59514e-05
7.74127e-06
3.44557e-06
7.34759e-06
6.7299e-06
1.10197e-06
2.16286e-05
2.11049e-06
8.24948e-05
6.18861e-05
2.51108e-05
9.2589e-05
1.20664e-05
9.9827e-06
1.82826e-05
3.23767e-06
3.3335e-05
2.762e-06
4.02712e-05
1.34585e-05
1.78254e-06
7.59827e-07
4.75742e-06
7.93293e-06
2.32777e-05
1.05905e-05
9.39284e-07
5.62184e-05
8.85921e-06
2.9101e-05
2.98902e-06
1.79179e-05
2.33308e-06
9.40575e-07
2.51493e-06
2.81027e-06
7.0647e-06
4.62795e-05
5.06276e-05
6.24345e-06
5.4096e-05
7.22086e-06
4.80477e-06
6.11871e-06
8.81457e-06
1.28011e-06
2.58247e-05
7.47153e-06
0.000121446
8.40805e-05
3.70721e-05
0.000115218
2.10228e-05
7.91651e-06
2.39912e-05
7.88478e-06
4.73675e-05
3.26826e-06
4.72859e-05
1.47936e-05
2.74139e-06
1.00198e-06
5.53384e-06
5.97747e-06
2.22265e-05
1.22958e-05
9.89362e-07
5.98698e-05
7.77122e-06
3.42773e-05
2.59722e-06
1.81819e-05
2.78674e-06
8.1047e-07
2.04414e-06
2.95845e-06
8.77632e-06
5.76666e-05
5.88095e-05
9.39681e-06
7.05619e-05
4.26708e-06
5.6786e-06
6.09205e-06
7.99965e-06
2.8513e-06
2.09167e-05
1.21681e-05
0.000148033
0.000105479
4.78697e-05
0.000138534
3.33945e-05
8.09739e-06
3.66929e-05
9.53824e-06
5.41278e-05
2.49032e-06
5.84268e-05
1.36558e-05
5.83256e-06
1.61593e-06
6.34127e-06
5.03488e-06
2.25921e-05
1.59573e-05
1.98032e-06
6.29173e-05
6.97403e-06
3.71135e-05
2.13027e-06
1.54145e-05
2.57902e-06
1.14354e-06
5.20183e-06
4.4114e-06
9.96135e-06
7.29321e-05
7.04509e-05
1.08671e-05
7.13623e-05
4.12043e-06
5.92376e-06
7.27183e-06
7.02854e-06
3.57097e-06
1.8132e-05
1.24566e-05
0.000168869
0.000123632
5.59092e-05
0.000161039
4.28436e-05
7.89714e-06
5.18131e-05
7.33655e-06
5.91823e-05
2.35489e-06
6.55084e-05
9.59493e-06
1.11703e-05
1.6332e-06
6.26569e-06
4.85864e-06
2.56174e-05
1.80199e-05
4.77527e-06
6.10174e-05
5.90857e-06
3.68553e-05
1.94248e-06
1.12228e-05
2.31858e-06
1.99933e-06
1.00952e-05
5.45772e-06
9.85133e-06
8.63834e-05
7.73587e-05
1.28175e-05
6.37355e-05
6.58296e-06
5.7519e-06
8.92905e-06
6.30502e-06
5.03129e-06
1.94036e-05
1.50846e-05
0.000206875
0.00013113
6.9588e-05
0.000178042
4.8275e-05
6.00223e-06
6.46823e-05
6.6781e-06
6.55792e-05
3.12169e-06
6.06675e-05
6.27681e-06
1.35387e-05
1.68658e-06
8.12452e-06
3.79945e-06
3.00948e-05
1.79201e-05
7.65909e-06
5.74783e-05
4.97711e-06
3.21576e-05
1.75931e-06
8.43931e-06
2.46514e-06
2.47244e-06
1.43891e-05
5.7951e-06
7.90242e-06
9.64798e-05
8.30703e-05
1.56497e-05
6.09723e-05
8.55111e-06
4.47591e-06
1.05201e-05
5.784e-06
6.46062e-06
2.11455e-05
1.74866e-05
0.000243291
0.000129153
8.11718e-05
0.000195241
6.28276e-05
4.55324e-06
7.69946e-05
6.99009e-06
7.84935e-05
4.48732e-06
6.07695e-05
6.32154e-06
9.1523e-06
1.12945e-06
8.40602e-06
3.06371e-06
3.57295e-05
1.69005e-05
9.60244e-06
5.33436e-05
4.56337e-06
2.76341e-05
1.9288e-06
6.59458e-06
2.91367e-06
3.49416e-06
1.97649e-05
6.27805e-06
5.98547e-06
0.000103935
8.61854e-05
1.91363e-05
6.04949e-05
9.63214e-06
3.29122e-06
1.1159e-05
5.05158e-06
7.97525e-06
2.23236e-05
1.98482e-05
0.000259478
0.000130425
7.9638e-05
0.000198933
7.44661e-05
4.55152e-06
8.64217e-05
4.89549e-06
7.89312e-05
3.56877e-06
7.00966e-05
6.37534e-06
5.96807e-06
2.0229e-06
7.31197e-06
2.74437e-06
4.01225e-05
1.69191e-05
1.12465e-05
4.93514e-05
4.53466e-06
2.39562e-05
2.28104e-06
4.68629e-06
3.68158e-06
6.64431e-06
2.61606e-05
5.88749e-06
4.26713e-06
0.000103119
8.46768e-05
2.21423e-05
5.95797e-05
1.10588e-05
3.38179e-06
1.11106e-05
4.55871e-06
8.71842e-06
2.21003e-05
2.25273e-05
0.000266678
0.000131079
8.14914e-05
0.000190304
7.35513e-05
7.26907e-06
0.000103807
4.45809e-06
7.65992e-05
3.13636e-06
7.26757e-05
5.11612e-06
4.64213e-06
3.46603e-06
7.72551e-06
2.21891e-06
4.38454e-05
1.79797e-05
1.28354e-05
4.62278e-05
4.59123e-06
1.97935e-05
2.43272e-06
3.3793e-06
4.34454e-06
9.65912e-06
2.93118e-05
4.56747e-06
2.50505e-06
9.71603e-05
8.10919e-05
2.43357e-05
5.7957e-05
1.36243e-05
4.43394e-06
1.0957e-05
4.34113e-06
9.00254e-06
2.51115e-05
2.56236e-05
0.000272437
0.000124716
8.59575e-05
0.000187145
6.97719e-05
1.26241e-05
0.000120755
4.73023e-06
8.07927e-05
3.35818e-06
7.04033e-05
4.87692e-06
3.86361e-06
3.77856e-06
9.22023e-06
1.8986e-06
4.54756e-05
1.89702e-05
1.35612e-05
4.31628e-05
4.85253e-06
1.66658e-05
2.76973e-06
2.37682e-06
4.54017e-06
1.05141e-05
2.88427e-05
3.52458e-06
1.85731e-06
9.25651e-05
7.61091e-05
2.66904e-05
5.56747e-05
1.67266e-05
5.23124e-06
1.08178e-05
3.88542e-06
8.90395e-06
2.50505e-05
2.70598e-05
0.000273661
0.000120275
8.49645e-05
0.000184131
6.72665e-05
1.46254e-05
0.000120934
4.5593e-06
8.30593e-05
3.49269e-06
7.11566e-05
5.21733e-06
3.80817e-06
3.70199e-06
9.76786e-06
1.88009e-06
4.5763e-05
1.87964e-05
1.37414e-05
4.09761e-05
5.36207e-06
1.5958e-05
3.34561e-06
1.9831e-06
4.38591e-06
1.02797e-05
2.87102e-05
2.63303e-06
1.52388e-06
8.7366e-05
7.05412e-05
2.85232e-05
5.30828e-05
1.95937e-05
5.66614e-06
1.10609e-05
3.59686e-06
8.14139e-06
2.42421e-05
2.70741e-05
0.000277207
0.000118923
8.19075e-05
0.000181738
6.93489e-05
1.43197e-05
0.000116964
4.49517e-06
8.13614e-05
3.51086e-06
7.00575e-05
5.04672e-06
3.91561e-06
3.75422e-06
9.67579e-06
1.87174e-06
4.61114e-05
1.82607e-05
1.38413e-05
4.01398e-05
5.58507e-06
1.60874e-05
3.89128e-06
1.91431e-06
4.40974e-06
1.01384e-05
2.68791e-05
1.82132e-06
1.23373e-06
8.43544e-05
6.82678e-05
2.89505e-05
5.16456e-05
2.10547e-05
5.8922e-06
1.12019e-05
3.64838e-06
7.85691e-06
2.50817e-05
2.80906e-05