/*--------------------------------*- C++ -*----------------------------------*\
  =========                 |
  \\      /  F ield         | OpenFOAM: The Open Source CFD Toolbox
   \\    /   O peration     | Website:  https://openfoam.org
    \\  /    A nd           | Version:  10
     \\/     M anipulation  |
\*---------------------------------------------------------------------------*/
FoamFile
{
    format      ascii;
    class       volVectorField;
    location    "10";
    object      U;
}
// * * * * * * * * * * * * * * * * * * * * * * * * * * * * * * * * * * * * * //

dimensions      [0 1 -1 0 0 0 0];

internalField   nonuniform List<vector> 
25600
(
(1.14279 0.0204734 -0.0142369)
(1.14018 0.0174971 -0.0247129)
(1.13453 0.0190969 -0.0339981)
(1.13234 0.0236294 -0.0348501)
(1.13815 0.0212243 -0.0252218)
(1.14438 0.0103214 -0.00812163)
(1.14598 -0.00391383 0.00921683)
(1.1433 -0.0152701 0.0186773)
(1.13809 -0.0217774 0.0137088)
(1.13528 -0.0237921 -0.000621577)
(1.13879 -0.0186968 -0.0152863)
(1.13919 -0.00965106 -0.0236213)
(1.13243 0.0011097 -0.0196273)
(1.11608 0.0126627 -0.00898569)
(1.09426 0.019771 0.000594874)
(1.07994 0.0210619 0.00762521)
(1.08286 0.0163917 0.0112877)
(1.10103 0.00430192 0.0137326)
(1.12479 -0.00903331 0.0147467)
(1.14163 -0.014987 0.0116453)
(1.14265 -0.0105701 0.0057695)
(1.12884 0.00306709 0.00126791)
(1.11093 0.0169201 0.00470693)
(1.10059 0.0189544 0.0174317)
(1.09977 0.0100832 0.0325773)
(1.10924 -0.0035577 0.0426512)
(1.12539 -0.015027 0.0402725)
(1.13691 -0.013952 0.028498)
(1.14259 -0.00539155 0.0109399)
(1.13823 0.00496945 -0.00767866)
(1.11986 0.012697 -0.0176421)
(1.09858 0.0125859 -0.0194831)
(1.08158 0.0117511 -0.0134353)
(1.07349 0.00707974 -0.00227837)
(1.07958 0.0020558 0.00495236)
(1.09382 0.00171157 0.00540261)
(1.10816 0.00311878 0.00101288)
(1.12131 0.0116481 -0.00368507)
(1.13091 0.0220681 -0.00615608)
(1.13839 0.0240202 -0.00835401)
(1.12375 0.0330922 0.0016945)
(1.12174 0.044047 -0.0255909)
(1.13378 0.0433196 -0.0463986)
(1.15811 0.0292769 -0.0482185)
(1.1774 0.00879738 -0.0306884)
(1.17135 -0.00683467 -0.00435051)
(1.14485 -0.0148147 0.0206035)
(1.11605 -0.0184006 0.0326949)
(1.09752 -0.0212315 0.0255955)
(1.09041 -0.0246839 0.00870266)
(1.09164 -0.0215021 -0.00846859)
(1.09331 -0.0151549 -0.019135)
(1.10113 0.000382459 -0.019382)
(1.10657 0.0214981 -0.0138327)
(1.10399 0.0294254 -0.00525917)
(1.09674 0.0219054 0.000253777)
(1.08738 0.00146577 -0.000638196)
(1.08144 -0.0217998 -0.00350954)
(1.08209 -0.0317881 -0.00665433)
(1.08252 -0.0279665 -0.004434)
(1.07997 -0.0227294 0.00607242)
(1.07996 -0.0144623 0.0217995)
(1.08664 -0.00135804 0.0427382)
(1.10672 0.0133689 0.0587331)
(1.12784 0.0286964 0.0611185)
(1.13448 0.0333213 0.0507551)
(1.12744 0.0207865 0.0281908)
(1.10912 0.00238759 0.00277894)
(1.09568 -0.0104322 -0.021489)
(1.09587 -0.00771718 -0.043508)
(1.1041 0.00812868 -0.0565983)
(1.11484 0.0236871 -0.0631128)
(1.11785 0.0294176 -0.0616516)
(1.10972 0.018603 -0.0486468)
(1.09948 0.00367119 -0.0266267)
(1.09347 -0.00838101 -0.00115995)
(1.0979 -0.0133596 0.0197079)
(1.11465 -0.00531111 0.0292966)
(1.12737 0.00621996 0.0295833)
(1.12883 0.0185138 0.0214854)
(1.0659 0.0223727 0.000610247)
(1.1279 0.0245278 -0.0216522)
(1.20197 0.0276746 -0.0308994)
(1.23258 0.0312201 -0.0225635)
(1.19154 0.0247579 -0.00689968)
(1.11518 0.00614173 0.00447378)
(1.04981 -0.0149402 0.0124956)
(1.01245 -0.0288721 0.016851)
(0.994912 -0.0351793 0.0165197)
(0.992698 -0.0367829 0.0156442)
(1.00057 -0.0335517 0.0114786)
(1.01425 -0.0287294 0.00381356)
(1.04234 -0.00804849 -0.0058321)
(1.06701 0.0220768 -0.0170834)
(1.06892 0.0405269 -0.0258187)
(1.05705 0.0404706 -0.0284902)
(1.03161 0.0136335 -0.0208865)
(1.01351 -0.0253896 -0.00575494)
(1.0145 -0.050256 0.0102157)
(1.027 -0.0558627 0.0262167)
(1.04598 -0.0520325 0.0379663)
(1.0644 -0.040426 0.0445371)
(1.07606 -0.0222418 0.0474068)
(1.08745 0.0032656 0.0446245)
(1.10197 0.0321779 0.0390739)
(1.11148 0.0487655 0.0295156)
(1.12001 0.0436867 0.0123384)
(1.11467 0.0203922 -0.00735866)
(1.09521 -0.00669058 -0.027201)
(1.07776 -0.021769 -0.0450075)
(1.06929 -0.0175503 -0.0598936)
(1.07864 -0.00485642 -0.0686707)
(1.1 -0.000585504 -0.0642033)
(1.1205 -0.00574061 -0.0458437)
(1.13266 -0.0113989 -0.0241999)
(1.12388 -0.0128226 -0.00957298)
(1.0982 -0.00519915 0.000155762)
(1.06869 0.00601952 0.00957987)
(1.04052 0.0133005 0.0187642)
(1.03587 0.0190497 0.0184972)
(1.13585 -4.51016e-05 -0.00618345)
(1.16107 0.00201068 -0.00942718)
(1.15638 0.0251322 0.00158955)
(1.11741 0.0523334 0.0137209)
(1.06489 0.0515354 0.0130203)
(1.03081 0.0225681 -7.52267e-05)
(1.02102 -0.0102547 -0.00991204)
(1.01516 -0.0314337 -0.00828033)
(1.00614 -0.0430476 0.00168048)
(0.999355 -0.050268 0.0115447)
(0.994568 -0.0552905 0.00955402)
(1.00267 -0.0528563 -0.00878196)
(1.02123 -0.0314808 -0.0348109)
(1.03191 9.82705e-05 -0.0526004)
(1.03845 0.0270588 -0.0456438)
(1.04824 0.0362268 -0.0134921)
(1.05073 0.0129495 0.0257688)
(1.05112 -0.0278173 0.0508533)
(1.05034 -0.057171 0.0510915)
(1.04877 -0.0655154 0.0338804)
(1.05423 -0.0579311 0.0172865)
(1.07102 -0.0381758 0.0131898)
(1.08883 -0.0113005 0.0202085)
(1.10928 0.0159479 0.0261944)
(1.12798 0.0329162 0.021123)
(1.12621 0.0309512 0.00375662)
(1.10945 0.0139737 -0.0192161)
(1.08179 -0.00552897 -0.0377594)
(1.05863 -0.0138686 -0.0474477)
(1.05444 -0.00924073 -0.0510001)
(1.06588 0.00299971 -0.0504081)
(1.08422 0.00995824 -0.046125)
(1.09102 0.00456375 -0.0390862)
(1.07638 -0.00280945 -0.031964)
(1.0498 -0.00555705 -0.0251224)
(1.02464 -0.0036671 -0.0152467)
(1.01662 0.00399809 -0.000862915)
(1.03086 0.0114334 0.0119666)
(1.05917 0.0136239 0.0157824)
(1.09695 0.00883631 0.00782059)
(1.10759 0.00581178 0.0219903)
(1.08295 0.0380408 0.0184687)
(1.05678 0.0688317 0.0196236)
(1.04275 0.0797487 0.0186131)
(1.03973 0.0606232 0.00357619)
(1.05275 0.0247473 -0.0197913)
(1.07277 -0.00367306 -0.0320798)
(1.07861 -0.0175517 -0.0262236)
(1.06414 -0.0289512 -0.0101576)
(1.03487 -0.0446359 0.00156355)
(1.00557 -0.0648493 -0.00101284)
(0.999824 -0.0703656 -0.0132099)
(1.01686 -0.0412506 -0.0211567)
(1.03537 0.00265967 -0.0123003)
(1.05383 0.0311474 0.0180117)
(1.07414 0.029 0.0594422)
(1.09008 0.00499275 0.08846)
(1.0924 -0.0161899 0.0874741)
(1.07688 -0.0280778 0.0544135)
(1.04996 -0.0385938 0.0142188)
(1.0409 -0.0431914 -0.00969662)
(1.05976 -0.0348426 -0.017077)
(1.08735 -0.0126261 -0.0155389)
(1.11345 0.0162985 -0.0133126)
(1.12121 0.038904 -0.0178226)
(1.09449 0.0459516 -0.0282422)
(1.06092 0.034108 -0.034517)
(1.0414 0.00740439 -0.0334943)
(1.03518 -0.0154034 -0.0331952)
(1.04639 -0.0210553 -0.0356765)
(1.06309 -0.01209 -0.0351658)
(1.07695 -0.00181209 -0.0296137)
(1.08521 0.00358428 -0.0228121)
(1.08486 0.0118848 -0.0252947)
(1.07695 0.0203541 -0.0333924)
(1.06742 0.0214548 -0.0263069)
(1.06896 0.012699 -0.00204433)
(1.08097 -0.00748928 0.0219266)
(1.09843 -0.0238242 0.0331449)
(1.11222 -0.0180802 0.0295089)
(1.07881 0.0346258 0.0243115)
(1.06348 0.0453042 0.0148212)
(1.06342 0.0648268 0.0153473)
(1.06405 0.077351 0.013515)
(1.05282 0.0607089 -0.00549424)
(1.05219 0.0249804 -0.0241592)
(1.05656 -0.00614244 -0.0250834)
(1.05613 -0.0178714 -0.00625412)
(1.04647 -0.0159086 0.0127408)
(1.02406 -0.0157792 0.0113025)
(0.996564 -0.0252077 -0.00551416)
(0.982435 -0.0287423 -0.00953744)
(0.992834 -0.0212346 0.0158476)
(1.01952 -0.0165391 0.0626225)
(1.05419 -0.0199293 0.098907)
(1.07275 -0.0296759 0.0976694)
(1.06846 -0.0323195 0.0661858)
(1.05013 -0.0221549 0.0225726)
(1.0259 -0.0136852 -0.0179434)
(1.00646 -0.0169829 -0.0314214)
(1.01201 -0.0224627 -0.0158979)
(1.03687 -0.0215911 0.000220226)
(1.06334 -0.00826259 0.00133376)
(1.08157 0.0189063 -0.00839636)
(1.07099 0.0434044 -0.0324161)
(1.03318 0.0507144 -0.0552145)
(1.01707 0.0384289 -0.0512985)
(1.03203 0.015209 -0.0306859)
(1.05143 -0.00544976 -0.0149233)
(1.06548 -0.0172631 -0.013151)
(1.06883 -0.0163641 -0.021031)
(1.06701 -0.00695389 -0.0230374)
(1.06653 0.00561045 -0.0174896)
(1.06289 0.0177832 -0.0221075)
(1.05946 0.0148899 -0.0328366)
(1.07217 -0.000497554 -0.0278283)
(1.09492 -0.00902664 -0.0078771)
(1.10855 -0.00676205 0.0184322)
(1.10914 0.00492649 0.0357544)
(1.09694 0.0221494 0.0339251)
(1.09303 0.0270574 0.0552577)
(1.08798 0.0323582 0.0226997)
(1.09386 0.0636731 0.0127541)
(1.08778 0.0790373 0.00867414)
(1.07886 0.0554488 -0.00234793)
(1.07836 0.0244727 -0.00758879)
(1.05738 0.0015188 0.0055404)
(1.03195 -0.00916815 0.0275535)
(1.01736 -0.0148128 0.0269631)
(1.01798 -0.0171477 -0.00117898)
(1.0224 -0.022632 -0.0328981)
(1.01764 -0.0330626 -0.031848)
(1.00568 -0.0401092 0.00292385)
(0.979171 -0.0362428 0.0291975)
(0.96149 -0.0171125 0.0262926)
(0.963805 -0.00289305 0.00748008)
(0.970208 -8.40442e-05 -0.0151431)
(0.967695 0.00763297 -0.0361051)
(0.962568 0.0165763 -0.0338588)
(0.971289 0.0174729 0.00639655)
(1.00371 0.0109448 0.0535578)
(1.03831 -0.00051499 0.0573844)
(1.05261 -0.000399848 0.0277127)
(1.04227 0.0198192 -0.00595462)
(1.01569 0.0395102 -0.0390514)
(1.0077 0.0437168 -0.0457705)
(1.02152 0.0293331 -0.0313901)
(1.0282 0.00439671 -0.0264515)
(1.02921 -0.0217056 -0.0239313)
(1.03779 -0.0405817 -0.0220744)
(1.04926 -0.0385153 -0.0247702)
(1.04804 -0.0200551 -0.0262632)
(1.03559 0.00549836 -0.0276669)
(1.02827 0.0251536 -0.0301315)
(1.03413 0.0193038 -0.0222542)
(1.04656 -0.00304951 -0.00866371)
(1.05626 -0.0263121 0.005887)
(1.06961 -0.0381911 0.0347462)
(1.08739 -0.0196877 0.0666956)
(1.09677 0.0152563 0.0776467)
(1.06612 0.0227351 0.0451549)
(1.07611 0.0298357 0.0337299)
(1.08137 0.0683432 0.0482755)
(1.09515 0.0796701 0.0291665)
(1.13004 0.0507237 0.00366922)
(1.16655 0.0258616 0.0135605)
(1.13584 0.0146203 0.0451504)
(1.07903 0.0063778 0.0467208)
(1.03112 -0.0120937 0.0107737)
(1.00585 -0.0220548 -0.0232273)
(1.01234 -0.0177003 -0.0302985)
(1.02825 -0.0140256 -0.0133595)
(1.02859 -0.0129209 -0.0124673)
(0.996135 -0.0150819 -0.0444351)
(0.974021 -0.019273 -0.067774)
(0.978919 -0.021111 -0.0633591)
(0.983854 -0.00759616 -0.0491835)
(0.979198 0.0192496 -0.0267921)
(0.967339 0.0239667 0.00792768)
(0.962864 0.00512704 0.0486432)
(0.987147 -0.00215823 0.0669389)
(1.00504 0.00691396 0.052656)
(0.993426 0.0205663 0.0338196)
(0.985109 0.0355631 0.0158906)
(1.0098 0.044294 0.00218059)
(1.06196 0.045764 0.0002986)
(1.09055 0.045012 -0.0112813)
(1.06773 0.0356041 -0.0230712)
(1.02076 0.00479315 -0.0161393)
(0.977464 -0.0287523 -0.00883816)
(0.950537 -0.031835 -0.0192077)
(0.945699 -0.0103757 -0.0350462)
(0.973579 0.0215865 -0.0308382)
(1.01084 0.0402083 -0.0045901)
(1.01679 0.0199211 0.0281717)
(1.0093 -0.0125707 0.0429399)
(1.01182 -0.0222615 0.0479207)
(1.00964 -0.01645 0.0721209)
(1.00394 0.000458109 0.10046)
(1.02778 0.0218097 0.0889203)
(0.987023 0.00506947 0.028946)
(0.969943 0.0223104 0.0152426)
(1.02653 0.0710272 -0.00353589)
(1.12001 0.0659449 -0.0326157)
(1.17949 0.0253298 -0.0117249)
(1.13186 0.0207678 0.0422984)
(1.0194 0.025144 0.0588585)
(0.97019 0.00916125 0.00983457)
(0.972877 -0.0178186 -0.0390854)
(0.98376 -0.0166125 -0.034923)
(0.984809 -0.00184678 -0.00742889)
(0.991409 -0.00583673 -0.000263838)
(0.995093 -0.0107855 -0.0319352)
(0.956262 -0.0190266 -0.0605105)
(0.927097 -0.0318101 -0.0509735)
(0.93404 -0.034245 -0.0444395)
(0.957952 -0.0188186 -0.0498088)
(0.991492 0.00927253 -0.0301755)
(1.00978 0.0172028 0.017258)
(1.00872 0.000477161 0.0614824)
(1.00987 -0.00728652 0.0631444)
(1.00089 -0.0084578 0.0396332)
(0.989401 -0.00591716 0.0347909)
(1.00475 0.0074258 0.0394399)
(1.03154 0.0192199 0.0350833)
(1.04487 0.0308924 0.0304889)
(1.03866 0.0499709 0.0321557)
(1.01884 0.0543552 0.0245647)
(0.998751 0.0118222 -0.00705659)
(0.971154 -0.0479828 -0.0363667)
(0.945389 -0.0643202 -0.0422631)
(0.962383 -0.0370685 -0.0309881)
(1.02298 0.013733 -0.0102379)
(1.06074 0.0398005 0.0178445)
(1.02361 0.0082708 0.0378214)
(0.955639 -0.0285444 0.0387128)
(0.93723 -0.0364709 0.0463707)
(0.962243 -0.0262194 0.0808729)
(0.99965 -0.00387869 0.10265)
(1.0193 0.0118702 0.0725969)
(0.943824 -0.0104537 -0.0173258)
(0.958527 -0.0230536 -0.012808)
(1.06526 0.00863473 -0.0224459)
(1.16915 0.027405 -0.0416929)
(1.14374 0.0287614 -0.0140466)
(1.02042 0.0325953 0.0437982)
(0.922583 0.0168422 0.0491993)
(0.918715 -0.00933083 -0.00524992)
(0.952334 -0.0209455 -0.0376752)
(0.962436 -0.00578665 -0.0319922)
(0.959679 0.000763816 -0.0213679)
(0.978482 -0.00909709 -0.0180055)
(0.988913 -0.00112576 -0.0363771)
(0.938663 -0.0115468 -0.0431581)
(0.895628 -0.0526238 -0.0248985)
(0.921264 -0.0675346 -0.0303482)
(0.976565 -0.0396436 -0.0427363)
(1.01656 0.00228944 -0.0108577)
(1.01818 0.0226973 0.054601)
(1.0168 0.0163803 0.0990862)
(1.04669 0.0040123 0.0806801)
(1.05669 -0.0120719 0.0474514)
(1.03335 -0.0212492 0.0499709)
(1.01962 -0.0106044 0.0557796)
(1.00418 0.0097892 0.044717)
(0.987451 0.039067 0.0415502)
(1.00148 0.07567 0.0402835)
(1.03974 0.0797351 0.00746721)
(1.06094 0.028056 -0.038082)
(1.02007 -0.0238793 -0.0446834)
(0.955345 -0.0382286 -0.0264031)
(0.963001 -0.0272505 -0.00837019)
(1.04153 0.00867864 0.0168945)
(1.09659 0.0410535 0.0477494)
(1.04654 0.0286299 0.0517258)
(0.946509 -0.0201176 0.0332419)
(0.902995 -0.0523 0.0398171)
(0.91648 -0.0383759 0.069361)
(0.949983 0.00145136 0.0628119)
(0.964926 0.0185053 0.0131265)
(0.987564 -0.0313694 -0.00699965)
(0.96937 -0.0373073 -0.0146732)
(0.984499 -0.0135107 -0.0339932)
(0.988131 0.000714135 -0.0213768)
(0.951902 0.00761449 0.0381186)
(0.901681 0.0177385 0.0656061)
(0.878056 0.00763536 0.0122251)
(0.897667 -0.0115949 -0.0356011)
(0.938307 -0.0151983 -0.0250565)
(0.969211 0.000941684 -0.0216385)
(0.958809 0.00782169 -0.0409903)
(0.944869 0.00549316 -0.0464764)
(0.963701 0.0217459 -0.0456632)
(0.955674 0.00876831 -0.0233)
(0.921126 -0.0517983 0.00337123)
(0.928732 -0.082898 -0.00689195)
(0.98562 -0.0565609 -0.00972365)
(1.03698 -0.0122166 0.0424063)
(1.03637 0.00218498 0.107717)
(1.02128 -0.0102897 0.113255)
(1.01357 -0.0151693 0.0709763)
(0.990732 -0.0167863 0.0513047)
(0.970975 -0.0197314 0.0527175)
(0.974778 -0.00153636 0.0423597)
(0.965702 0.0292761 0.0319778)
(0.959421 0.0405163 0.0364497)
(1.02257 0.0485665 0.034994)
(1.09689 0.0556613 -0.00255016)
(1.07353 0.0312939 -0.0443182)
(0.97071 -0.00944027 -0.0390492)
(0.889603 -0.0539492 -0.0172373)
(0.917509 -0.0749047 0.0105348)
(1.0086 -0.0267897 0.0588322)
(1.02694 0.0336189 0.0911477)
(0.965367 0.0213334 0.0707254)
(0.912581 -0.0415023 0.0489005)
(0.892777 -0.0703327 0.0657)
(0.904278 -0.0415248 0.0702595)
(0.952638 -0.00406506 0.0304015)
(0.997622 -0.005133 -0.00267462)
(1.00282 -0.0115619 -0.00996059)
(0.953284 -0.0223612 -0.0187888)
(0.907716 -0.0108321 -0.0107306)
(0.888256 0.000486771 0.0336518)
(0.875663 0.014229 0.0769788)
(0.871332 0.0235956 0.0442953)
(0.872218 -0.0068788 -0.0201366)
(0.883574 -0.0509615 -0.0200516)
(0.920748 -0.0490747 -0.000126324)
(0.942947 0.00273594 -0.0362795)
(0.910216 0.03242 -0.0661444)
(0.923292 0.0124118 -0.0397206)
(0.995123 0.014008 -0.0148221)
(0.977041 0.00245557 0.00225978)
(0.897087 -0.0578421 0.010807)
(0.893666 -0.09456 0.00161193)
(0.956059 -0.075243 0.0266736)
(0.996146 -0.0328482 0.0980869)
(0.977132 -0.00774876 0.137658)
(0.939322 -0.00770794 0.101741)
(0.915285 -0.0135192 0.0550612)
(0.92302 -0.016177 0.0379893)
(0.954633 -0.0186304 0.0132701)
(0.980187 0.000978073 -0.00502956)
(0.973146 0.0185604 0.000876216)
(0.968717 -0.00376178 0.00505609)
(1.01617 0.00460258 0.00396491)
(1.04245 0.0487994 -0.0165894)
(0.992342 0.045126 -0.035321)
(0.91741 0.000918528 -0.021982)
(0.868523 -0.0517584 -0.0193583)
(0.883573 -0.0796542 0.00312834)
(0.941902 -0.0377706 0.077973)
(0.972051 0.0147934 0.107954)
(0.969853 -0.00038569 0.0612961)
(0.939763 -0.0455024 0.0514968)
(0.894065 -0.0571938 0.082861)
(0.89521 -0.0243934 0.0621285)
(0.95805 0.00647357 0.00991135)
(1.00844 0.00683576 -0.00612295)
(0.999504 -0.00108617 -0.0137971)
(0.929367 -0.00207225 -0.0268738)
(0.87072 -0.00903062 -0.00757626)
(0.846991 -0.010068 0.0352978)
(0.856118 0.00629753 0.0551753)
(0.908583 0.00896978 0.00390279)
(0.908971 -0.0334315 -0.0192674)
(0.847291 -0.0644321 0.0179752)
(0.84601 -0.0338539 -0.0014239)
(0.891685 0.0334845 -0.0782659)
(0.937386 0.0379793 -0.0805047)
(0.991484 -0.00544764 -0.0150977)
(0.995378 0.00807996 0.0134944)
(0.908699 0.0136125 0.0129268)
(0.845852 -0.0457529 0.0184068)
(0.84589 -0.0772882 0.029356)
(0.875277 -0.0541829 0.0574939)
(0.898685 -0.0201971 0.101724)
(0.917036 -0.00396249 0.112465)
(0.925582 -0.00788951 0.0798622)
(0.919106 -0.0214208 0.061931)
(0.940909 -0.0299646 0.0436133)
(0.994842 -0.0300518 0.000929151)
(1.01272 -0.00463458 -0.006649)
(0.979109 0.00855183 0.00186321)
(0.962314 -0.0117217 -0.0153012)
(0.990349 0.00951508 -0.0201393)
(0.988392 0.0516954 -0.0261583)
(0.931242 0.0390115 -0.028601)
(0.877262 -0.00145327 -0.0214117)
(0.859054 -0.0434234 -0.0413898)
(0.870029 -0.0630022 -0.0169856)
(0.904432 -0.0286379 0.0655717)
(0.944435 0.00991511 0.0667659)
(0.944448 -0.00427163 0.0166899)
(0.900224 -0.0361588 0.0380485)
(0.867234 -0.0331469 0.0589034)
(0.900125 -0.00098488 0.0222904)
(0.968957 0.00688458 0.00505246)
(1.00984 -0.0026213 0.00997987)
(0.977149 0.0237223 -0.0218831)
(0.897421 0.0153403 -0.0270476)
(0.841446 -0.0112391 -0.00595803)
(0.839952 -0.0233667 0.0216598)
(0.890165 -0.0153737 0.0191476)
(0.943897 -0.0090032 -0.0301562)
(0.887491 -0.0261909 -0.0135109)
(0.815006 -0.0560667 0.0352048)
(0.853542 -0.0400839 -0.0221899)
(0.939705 0.0171029 -0.0990628)
(0.977118 0.0136082 -0.0503263)
(0.987424 -0.0225164 0.0282707)
(0.968491 0.0136975 0.0326263)
(0.931548 0.0221305 0.004157)
(0.906744 -0.0407236 0.00133079)
(0.880553 -0.0569782 0.021917)
(0.872789 -0.0294765 0.0506837)
(0.88398 -0.0213318 0.0796004)
(0.909045 -0.0114547 0.0757203)
(0.938432 0.00092022 0.0476172)
(0.966794 -0.0181991 0.0438158)
(0.992523 -0.0445988 0.031789)
(1.00514 -0.0369097 0.013355)
(0.986416 0.00590965 0.0193854)
(0.947339 0.0162111 0.00182121)
(0.931981 -0.0133185 -0.0121863)
(0.94109 0.0110881 -0.00108841)
(0.922507 0.0493227 -0.0138731)
(0.888505 0.0265376 -0.0164213)
(0.878984 -0.0170742 -0.019923)
(0.867324 -0.0507865 -0.0593889)
(0.856712 -0.054156 -0.0372816)
(0.891649 -0.021073 0.0294761)
(0.94146 0.00856899 0.00639232)
(0.934441 0.00722941 -0.0249631)
(0.894399 -0.0181478 0.0151262)
(0.868447 -0.0232019 0.0185641)
(0.904586 0.00518165 -0.00937276)
(0.965772 0.0111744 0.010444)
(1.00078 0.00936232 0.0146802)
(0.955084 0.038121 -0.0371555)
(0.852535 0.0151898 -0.00375184)
(0.803532 -0.0156433 0.0198978)
(0.82929 -0.025041 0.0162185)
(0.894588 -0.0173351 -0.0157446)
(0.896766 -0.00854737 -0.0567768)
(0.839061 -0.0270304 -0.0121096)
(0.812425 -0.0676958 0.0471702)
(0.863406 -0.056535 -0.0106631)
(0.957832 0.00944197 -0.0692667)
(0.971398 0.00913383 0.0092012)
(0.951316 -0.034837 0.0762886)
(0.98949 0.00608214 0.0437576)
(0.996234 0.0172059 -0.00276996)
(0.929289 -0.0365174 0.00252328)
(0.897518 -0.0422003 0.0274191)
(0.907401 -0.0204202 0.0457738)
(0.898903 -0.0191015 0.0565385)
(0.898463 -0.00205737 0.0482107)
(0.947739 0.00799831 0.0290192)
(1.0071 -0.0275465 0.0189113)
(1.01107 -0.0536035 -0.00322532)
(0.984412 -0.0198379 -0.00299211)
(0.958362 0.0315925 0.0054885)
(0.923406 0.018858 -0.0262294)
(0.916146 -0.0178805 -0.0150529)
(0.951872 0.0119523 0.00501073)
(0.945449 0.0389025 -0.032461)
(0.907457 0.000512044 -0.0369414)
(0.893878 -0.0400698 -0.0311919)
(0.861953 -0.0605621 -0.0542726)
(0.849475 -0.0582078 -0.0256463)
(0.905234 -0.0237182 0.00796913)
(0.936167 0.00861796 -0.0358717)
(0.93148 0.0109337 -0.0409279)
(0.917706 -0.0085271 0.0119399)
(0.867211 -0.00934552 -0.000531152)
(0.895071 0.0156762 -0.0219487)
(0.994697 0.0238241 0.00907557)
(1.03044 0.029301 -0.00614832)
(0.901396 0.0455853 -0.0398364)
(0.836889 0.0158422 0.0284492)
(0.808636 -0.0166918 0.0448882)
(0.83154 -0.0263058 0.0103694)
(0.885959 -0.014252 -0.0407048)
(0.874736 -0.00881732 -0.0400817)
(0.83441 -0.035538 0.0285754)
(0.80103 -0.0633761 0.0493945)
(0.827383 -0.0401384 -0.0173008)
(0.945675 0.0180039 -0.0312063)
(0.96369 -0.00719566 0.0733747)
(0.894385 -0.0540433 0.108338)
(0.953636 -0.00450607 0.0322712)
(0.966886 0.0149208 -0.00286517)
(0.880628 -0.0312133 0.0343092)
(0.878237 -0.0302287 0.0298639)
(0.907615 -0.0117626 0.00637737)
(0.868365 -0.0144435 0.0284692)
(0.868991 -0.00258558 0.0456201)
(0.962234 -0.0035772 0.0283556)
(1.01293 -0.0391867 0.00474869)
(0.967696 -0.0471525 -0.0267571)
(0.939489 0.00517026 -0.0228482)
(0.97031 0.0479878 -0.0321642)
(0.923034 0.0146204 -0.0643645)
(0.87165 -0.0252414 -0.00999113)
(0.950033 0.00438797 -0.000823185)
(0.96658 0.0321097 -0.0696058)
(0.877772 -0.00361288 -0.0671903)
(0.853935 -0.0416532 -0.0497412)
(0.844791 -0.0624997 -0.0463106)
(0.843763 -0.059307 -0.00788999)
(0.889239 -0.014669 -0.011653)
(0.908349 0.0148034 -0.0589742)
(0.933699 0.00685763 -0.0299472)
(0.920502 0.000192614 0.018798)
(0.860141 0.00765918 -0.0023797)
(0.937505 0.0158133 -0.00921746)
(1.06554 0.0226331 0.00548294)
(1.02878 0.0409744 -0.0362775)
(0.835877 0.0499241 -0.0229749)
(0.869281 0.0031802 0.0428037)
(0.863382 -0.0275119 0.0398279)
(0.838819 -0.0243659 0.0280184)
(0.858261 0.00125595 0.0208761)
(0.881579 -0.000147056 0.0445266)
(0.856209 -0.0351282 0.0786051)
(0.803836 -0.051836 0.0364159)
(0.808549 -0.0320868 -0.0266878)
(0.923449 0.00256631 0.0062907)
(0.944894 -0.0220009 0.103919)
(0.862726 -0.0495242 0.0968079)
(0.90108 0.00134759 0.00232825)
(0.923301 0.0192423 0.00415413)
(0.86888 -0.0248313 0.0490987)
(0.880255 -0.0182088 0.00304441)
(0.895012 0.00289755 -0.0275321)
(0.830859 -0.0108495 0.0274769)
(0.865046 -0.0174621 0.0453759)
(0.989628 -0.0208344 0.00393888)
(0.976856 -0.0385641 -0.0236086)
(0.889398 -0.0353971 -0.0452347)
(0.927328 0.0131446 -0.0575724)
(1.01161 0.0428469 -0.0866309)
(0.893508 0.0183175 -0.0573191)
(0.793777 -0.0129156 0.0198724)
(0.890756 0.0108522 -0.0262416)
(0.894142 0.0359997 -0.098764)
(0.811599 -0.0062946 -0.0668263)
(0.826436 -0.0492089 -0.048365)
(0.839948 -0.0638576 -0.0262352)
(0.838249 -0.0516874 0.0149207)
(0.8698 -0.00739006 -0.0200476)
(0.875081 0.0103314 -0.0610674)
(0.887352 0.00156102 -0.0145441)
(0.886781 0.00956712 0.028159)
(0.901082 0.0201413 0.0212318)
(1.02829 0.00942494 0.0198362)
(1.07316 0.0195001 -0.00421255)
(0.927367 0.0572724 -0.0565016)
(0.830608 0.0315001 0.000849477)
(0.918556 -0.0161569 0.0390809)
(0.90238 -0.0225272 0.0226661)
(0.841006 -0.0137182 0.0286571)
(0.869241 0.000963413 0.0510621)
(0.923139 -0.0125282 0.0786939)
(0.853644 -0.0384089 0.080649)
(0.781153 -0.0417375 0.00695567)
(0.783357 -0.027224 -0.0495959)
(0.873709 -0.0096535 0.00629609)
(0.91907 -0.0249752 0.0987366)
(0.865591 -0.0310555 0.0767047)
(0.869783 0.010116 -0.00857973)
(0.904182 0.00740012 0.0175872)
(0.891592 -0.0245064 0.049332)
(0.88106 0.000882771 -0.00970858)
(0.882602 0.0188387 -0.0229373)
(0.846767 -0.0175432 0.0280026)
(0.864367 -0.0426345 0.00810992)
(0.949738 -0.032363 -0.0568604)
(0.920815 -0.0292189 -0.0694121)
(0.841671 -0.0284922 -0.0605592)
(0.910083 0.00162397 -0.0718227)
(0.95316 0.0367281 -0.0819921)
(0.785513 0.0362246 -0.0102338)
(0.703655 -0.00601338 0.0343732)
(0.801243 0.00183938 -0.0576337)
(0.825759 0.0291049 -0.106906)
(0.819627 -0.00791568 -0.0492101)
(0.848453 -0.0451108 -0.0246222)
(0.831716 -0.053702 0.00251342)
(0.820338 -0.0369156 0.0390801)
(0.855323 0.00523377 -0.00776394)
(0.84633 0.0106458 -0.050659)
(0.80503 -0.00579525 -0.00502086)
(0.80736 -0.000807196 0.0509063)
(0.918446 0.00971291 0.0656343)
(1.08736 0.00382099 0.0426931)
(1.03879 0.0361471 -0.0149102)
(0.841039 0.0760021 -0.0497287)
(0.859861 0.00605622 0.0241982)
(0.929821 -0.0239165 0.0399998)
(0.908967 -0.0100423 0.0191777)
(0.853419 -0.00843506 0.0266242)
(0.890112 -0.0114459 0.0452228)
(0.898897 -0.0224528 0.0664863)
(0.772015 -0.0330956 0.0466726)
(0.727212 -0.036317 -0.0408129)
(0.766649 -0.0307381 -0.0806707)
(0.816852 -0.0242332 7.91352e-05)
(0.848687 -0.0314657 0.0849769)
(0.835885 -0.018294 0.0503076)
(0.846095 0.0104819 -0.00930255)
(0.897066 -0.00439426 0.0190243)
(0.88738 -0.0181111 0.0336574)
(0.863997 0.0161879 0.000155699)
(0.913592 0.0238651 -0.00166533)
(0.89266 -0.0173984 0.00858617)
(0.843206 -0.0480848 -0.0415581)
(0.900633 -0.043857 -0.0902342)
(0.848542 -0.0283672 -0.0587466)
(0.74477 -0.0195649 -0.0177447)
(0.805387 0.0109236 -0.0305166)
(0.830564 0.0581979 -0.0413016)
(0.725611 0.0546494 0.0169106)
(0.703999 -0.0107679 0.0198715)
(0.753939 -0.0134902 -0.0787321)
(0.7992 0.0218847 -0.102282)
(0.852904 -0.00640709 -0.0249473)
(0.894198 -0.0348802 0.0137594)
(0.835264 -0.0377763 0.0315324)
(0.810196 -0.0224905 0.0285473)
(0.890096 0.0143009 -0.0355918)
(0.852363 0.0227568 -0.0468015)
(0.719873 -0.000986509 0.0295634)
(0.705267 -0.0185384 0.0757548)
(0.866369 -0.0205583 0.0793706)
(1.06937 -0.0045849 0.0459299)
(0.997566 0.0609261 -0.015295)
(0.830443 0.082991 -0.0290201)
(0.870028 -0.015763 0.0367894)
(0.904045 -0.0256668 0.0425996)
(0.887048 0.0033026 0.0232265)
(0.86346 -0.00170318 0.0241789)
(0.889119 -0.021315 0.0322217)
(0.853444 -0.0240069 0.0440845)
(0.738237 -0.028406 0.0159331)
(0.715657 -0.0471714 -0.0646573)
(0.745683 -0.0422455 -0.0820634)
(0.738464 -0.0307127 0.00859786)
(0.774979 -0.0301735 0.0666947)
(0.827129 -0.00942274 0.0222599)
(0.838425 0.00876123 -0.0207613)
(0.871919 -0.0116215 0.00484424)
(0.868943 -0.0102503 0.0310055)
(0.863532 0.0290402 0.0145855)
(0.943451 0.0267386 -0.0140349)
(0.925324 -0.0174922 -0.0172632)
(0.849789 -0.0526855 -0.0416576)
(0.816324 -0.042445 -0.0500998)
(0.724038 -0.0110909 -0.00916066)
(0.647088 -0.00618078 0.0148861)
(0.685541 0.0158744 -0.00156055)
(0.722744 0.0644539 -0.0158311)
(0.739141 0.0575781 0.0122202)
(0.77004 -0.0128769 -0.0136113)
(0.767205 -0.019402 -0.0982698)
(0.801549 0.0201472 -0.0935916)
(0.846146 -0.000680594 -0.00838428)
(0.880843 -0.0241413 0.0381611)
(0.849136 -0.0257776 0.0397155)
(0.85747 -0.0211093 -0.027527)
(0.898154 0.0167506 -0.08696)
(0.768287 0.0320419 -0.0073747)
(0.6503 -0.0051808 0.0685676)
(0.669548 -0.0354135 0.0436039)
(0.792116 -0.049838 0.0053821)
(0.961887 -0.0131712 -0.0107633)
(0.919899 0.0795322 -0.0390911)
(0.843947 0.0753518 -0.0201073)
(0.850848 -0.0301902 0.0435047)
(0.854454 -0.0187349 0.0388605)
(0.851129 0.0133176 0.0121308)
(0.869862 -0.00668468 0.0143073)
(0.890232 -0.0327063 0.0200498)
(0.833707 -0.028337 0.0179704)
(0.75838 -0.0328553 -0.00836939)
(0.713778 -0.0531252 -0.05766)
(0.688326 -0.0448443 -0.049562)
(0.674493 -0.0340941 0.0278969)
(0.729196 -0.0315158 0.0532581)
(0.822173 -0.00586585 -0.00485962)
(0.831971 0.00637613 -0.0378361)
(0.826716 -0.0161949 0.00115301)
(0.83157 -0.00111291 0.0374893)
(0.868828 0.0388044 0.00357592)
(0.964579 0.020825 -0.039275)
(0.92877 -0.0195802 -0.0275145)
(0.813364 -0.0439379 -0.0354156)
(0.754233 -0.0319586 -0.027832)
(0.721452 -0.00259221 0.00337038)
(0.692515 -0.00310424 0.00594828)
(0.667318 0.0133464 -0.00326351)
(0.682333 0.0575118 -0.00586696)
(0.787428 0.0440706 0.00413638)
(0.852271 -0.0191231 -0.0515937)
(0.808324 -0.0147218 -0.111002)
(0.818281 0.0290937 -0.071)
(0.819769 0.00872735 -0.0217949)
(0.818134 -0.0192063 0.00110554)
(0.845472 -0.020768 0.0350694)
(0.887671 -0.011027 -0.0159091)
(0.87149 0.0267133 -0.0488578)
(0.750871 0.0292651 0.0519513)
(0.685424 -0.0131458 0.0880752)
(0.697258 -0.0415536 0.0234089)
(0.72147 -0.056485 -0.0660199)
(0.778137 -0.00858959 -0.100642)
(0.791378 0.0874526 -0.0916375)
(0.836804 0.0539939 -0.0207757)
(0.822847 -0.0351343 0.0582186)
(0.817059 -0.0101873 0.0282262)
(0.829627 0.0148007 0.00230539)
(0.872278 -0.0166049 0.0102436)
(0.883093 -0.0409183 0.0125422)
(0.80142 -0.0335882 0.00756335)
(0.741718 -0.0364001 -0.0208268)
(0.68582 -0.0498911 -0.0522534)
(0.633229 -0.0439694 -0.0249958)
(0.636739 -0.036998 0.0308048)
(0.721481 -0.0296082 0.0306865)
(0.826208 -0.00398777 -0.0214739)
(0.796084 0.00325186 -0.0322552)
(0.763115 -0.0150107 0.00131669)
(0.803104 0.00712552 0.0290011)
(0.895592 0.0373247 -0.00910774)
(0.961406 0.0109315 -0.0518782)
(0.89945 -0.018512 -0.0360354)
(0.767392 -0.0346326 -0.028112)
(0.69604 -0.022904 -0.00333158)
(0.730014 0.00108726 0.0100964)
(0.759959 -0.00282916 -0.0136432)
(0.70552 0.0105574 -0.0116596)
(0.70591 0.0418704 0.0133662)
(0.838751 0.0221324 0.00356009)
(0.890822 -0.0248222 -0.0836288)
(0.834887 -0.00343481 -0.111692)
(0.84245 0.0403227 -0.0451932)
(0.802547 0.0122548 -0.0479126)
(0.776517 -0.0224951 -0.046764)
(0.814626 -0.0183789 0.0238063)
(0.875107 0.00427033 0.00400419)
(0.878233 0.0335597 -0.00705104)
(0.781029 0.0193609 0.0783137)
(0.716636 -0.0174004 0.0846104)
(0.725244 -0.0433088 0.0212529)
(0.686733 -0.0602197 -0.0900507)
(0.627203 -0.0151654 -0.161738)
(0.704607 0.0606427 -0.121289)
(0.830937 0.0218907 0.00140422)
(0.800377 -0.0334604 0.0721724)
(0.795111 -0.00481515 0.0168656)
(0.814882 0.0106786 -0.000304195)
(0.88163 -0.0230019 0.00187978)
(0.854138 -0.0409495 0.00887439)
(0.717005 -0.033821 0.0135937)
(0.682446 -0.0369364 -0.0337652)
(0.644151 -0.0438301 -0.0579001)
(0.600073 -0.038619 -0.0205315)
(0.625625 -0.0366709 0.0120898)
(0.727378 -0.0284398 -0.00130964)
(0.814664 -0.00278794 -0.0368364)
(0.747329 0.0030619 -0.0388739)
(0.717798 -0.0135678 -0.0104306)
(0.814137 0.00626808 0.0152072)
(0.895311 0.0266681 -0.0337874)
(0.871333 0.00394985 -0.0720078)
(0.81108 -0.0135869 -0.028838)
(0.709458 -0.0219409 -0.00937686)
(0.656967 -0.0147648 0.00976649)
(0.741289 -0.00262672 0.00262405)
(0.81371 -0.00735159 -0.0365217)
(0.774808 0.00508497 -0.0214322)
(0.7735 0.0230631 0.0192405)
(0.87611 0.00467332 -0.00833766)
(0.897575 -0.022624 -0.103026)
(0.854856 0.0119034 -0.103584)
(0.849806 0.0480366 -0.0386174)
(0.802257 0.0119831 -0.0696842)
(0.786551 -0.0246818 -0.0636367)
(0.799782 -0.0153595 0.0184967)
(0.873495 0.00606991 0.0169846)
(0.894595 0.0234993 0.0195967)
(0.78517 0.00720435 0.0764111)
(0.726451 -0.0192454 0.0609425)
(0.737923 -0.0419559 0.00262116)
(0.684151 -0.0574502 -0.0910713)
(0.590668 -0.0241404 -0.158798)
(0.711333 0.0226762 -0.0818957)
(0.828539 -0.00392445 0.0544165)
(0.766134 -0.0288611 0.0716414)