/*--------------------------------*- C++ -*----------------------------------*\
  =========                 |
  \\      /  F ield         | OpenFOAM: The Open Source CFD Toolbox
   \\    /   O peration     | Website:  https://openfoam.org
    \\  /    A nd           | Version:  10
     \\/     M anipulation  |
\*---------------------------------------------------------------------------*/
FoamFile
{
    format      ascii;
    class       volVectorField;
    location    "13";
    object      U_0;
}
// * * * * * * * * * * * * * * * * * * * * * * * * * * * * * * * * * * * * * //

dimensions      [0 1 -1 0 0 0 0];

internalField   nonuniform List<vector> 
25600
(
(0.136462 2.32679e-06 9.09995e-07)
(0.13646 2.49202e-06 9.81508e-07)
(0.136458 2.25388e-06 6.70682e-07)
(0.136457 3.41823e-06 5.67584e-07)
(0.136456 2.66229e-06 5.30824e-07)
(0.136454 3.85137e-06 1.49683e-06)
(0.136453 3.45459e-06 1.37678e-06)
(0.136453 3.61783e-06 1.40866e-06)
(0.136451 4.43656e-06 1.43711e-06)
(0.136451 4.74068e-06 1.39252e-06)
(0.136452 7.15603e-06 1.67371e-06)
(0.136453 6.93864e-06 1.61026e-06)
(0.136456 9.11846e-06 1.37638e-06)
(0.136456 1.00932e-05 1.04165e-06)
(0.136458 1.05145e-05 1.26473e-06)
(0.136455 1.1345e-05 1.06201e-06)
(0.136457 1.00005e-05 9.27534e-07)
(0.136455 1.05165e-05 8.48643e-07)
(0.136455 9.84172e-06 5.77677e-07)
(0.136451 9.53433e-06 2.19699e-07)
(0.136451 5.98824e-06 2.20052e-07)
(0.136453 6.32802e-06 -1.85732e-07)
(0.13645 3.2487e-06 -2.29476e-07)
(0.136457 4.82073e-07 -1.37291e-07)
(0.136448 1.43127e-07 -6.7403e-07)
(0.13646 -3.48316e-06 8.14903e-08)
(0.136449 -5.14646e-06 -1.43322e-07)
(0.136463 -5.83226e-06 -2.22162e-07)
(0.136458 -7.24304e-06 6.47516e-07)
(0.136456 -7.96805e-06 -2.27524e-08)
(0.136465 -7.79925e-06 9.28688e-07)
(0.136456 -7.88261e-06 9.02048e-07)
(0.136464 -9.40076e-06 3.09558e-07)
(0.136464 -5.40782e-06 1.21765e-06)
(0.136461 -6.5312e-06 1.12245e-06)
(0.136462 -5.41245e-06 3.11582e-07)
(0.136463 -3.51143e-06 7.24841e-07)
(0.136465 -2.14318e-06 1.2647e-06)
(0.136461 1.59018e-07 9.3381e-07)
(0.13646 -5.27428e-07 7.15014e-08)
(0.137615 5.39523e-06 1.43886e-06)
(0.13761 3.37478e-06 1.81485e-06)
(0.137609 5.43583e-06 1.22875e-06)
(0.137608 6.73937e-06 2.7576e-07)
(0.137609 5.50267e-06 1.5142e-07)
(0.137605 6.41561e-06 2.14875e-06)
(0.137603 3.17372e-06 1.75914e-06)
(0.137603 5.91405e-06 1.84828e-06)
(0.137602 5.23527e-06 1.09153e-06)
(0.137604 4.92651e-06 9.59888e-07)
(0.137606 7.43802e-06 1.9379e-06)
(0.137605 4.73224e-06 2.11123e-06)
(0.137607 8.68172e-06 2.34209e-06)
(0.137605 9.71526e-06 1.88181e-06)
(0.137605 1.17336e-05 2.23689e-06)
(0.137601 1.27989e-05 1.62725e-06)
(0.137603 9.72865e-06 1.69607e-06)
(0.137603 1.23862e-05 1.26873e-06)
(0.137604 1.05977e-05 1.1332e-06)
(0.137598 1.12154e-05 4.04655e-07)
(0.137601 5.42088e-06 4.76755e-07)
(0.137601 6.90532e-06 -5.2359e-07)
(0.1376 1.89608e-06 -5.3258e-07)
(0.137604 -1.07276e-06 -8.55638e-07)
(0.1376 2.37644e-07 -1.66186e-06)
(0.137606 -5.86925e-06 -4.71723e-07)
(0.137601 -7.28827e-06 -1.32288e-06)
(0.137613 -7.44078e-06 -1.0985e-06)
(0.137608 -9.38897e-06 2.07187e-07)
(0.137609 -8.20689e-06 -9.11505e-07)
(0.137616 -8.97319e-06 8.91899e-07)
(0.137606 -9.84373e-06 5.18467e-07)
(0.137617 -9.84594e-06 -1.87433e-07)
(0.137616 -5.75259e-06 1.45469e-06)
(0.137611 -7.6703e-06 1.3977e-06)
(0.137615 -3.90696e-06 4.90027e-08)
(0.137616 -4.3432e-06 8.13561e-07)
(0.137618 -1.39356e-06 2.27837e-06)
(0.137612 2.74966e-06 1.46732e-06)
(0.137613 1.26455e-06 -3.18692e-08)
(0.137856 1.07767e-05 2.41786e-06)
(0.137849 4.27806e-06 2.10767e-06)
(0.13785 9.11424e-06 1.93579e-06)
(0.137849 9.95968e-06 6.59712e-07)
(0.137849 9.79166e-06 2.24583e-07)
(0.137844 1.06449e-05 2.82729e-06)
(0.137842 2.8999e-06 1.52245e-06)
(0.137844 8.42211e-06 2.74561e-06)
(0.137841 4.5557e-06 1.32328e-06)
(0.137846 5.56522e-06 1.16838e-06)
(0.137846 8.55173e-06 2.51983e-06)
(0.137847 2.81784e-06 2.28401e-06)
(0.13785 1.00749e-05 2.7855e-06)
(0.137847 9.68932e-06 2.30859e-06)
(0.137846 1.45728e-05 3.25418e-06)
(0.137839 1.45553e-05 2.17734e-06)
(0.137843 8.79179e-06 2.72538e-06)
(0.137843 1.45895e-05 1.94537e-06)
(0.137844 1.08025e-05 1.89449e-06)
(0.137836 1.36316e-05 7.03295e-07)
(0.137839 4.64659e-06 6.69458e-07)
(0.13784 8.22057e-06 -8.7715e-07)
(0.137837 -5.60147e-08 -8.40676e-07)
(0.137844 -3.23855e-06 -1.7039e-06)
(0.137839 1.90236e-06 -2.46611e-06)
(0.137842 -9.42735e-06 -1.33771e-06)
(0.137842 -1.00441e-05 -2.0838e-06)
(0.137852 -8.10721e-06 -2.19239e-06)
(0.137847 -1.35855e-05 -2.00696e-07)
(0.13785 -7.21498e-06 -9.79919e-07)
(0.137854 -9.80828e-06 7.0494e-07)
(0.137845 -1.3416e-05 -6.28537e-09)
(0.13786 -1.02431e-05 2.62056e-07)
(0.137857 -5.51516e-06 1.6516e-06)
(0.137851 -9.88171e-06 1.38965e-06)
(0.137856 -2.12433e-06 5.3924e-07)
(0.137857 -5.15294e-06 1.31883e-06)
(0.13786 2.85199e-07 2.90244e-06)
(0.137853 4.87486e-06 2.32015e-06)
(0.137854 3.56471e-06 6.49401e-07)
(0.138001 1.74077e-05 4.19975e-06)
(0.137994 4.29126e-06 2.52989e-06)
(0.137998 1.46683e-05 3.16196e-06)
(0.137994 1.34117e-05 1.22614e-06)
(0.137995 1.60186e-05 5.71279e-07)
(0.137986 1.5162e-05 3.99001e-06)
(0.137987 1.91545e-06 1.14832e-06)
(0.13799 1.21177e-05 4.43354e-06)
(0.137985 3.22346e-06 1.3959e-06)
(0.137993 8.52087e-06 1.53845e-06)
(0.13799 9.7002e-06 3.34607e-06)
(0.137992 -3.74075e-07 2.5439e-06)
(0.137999 1.15115e-05 3.47809e-06)
(0.137994 8.43836e-06 2.7594e-06)
(0.137994 1.996e-05 4.58991e-06)
(0.137982 1.67746e-05 2.67684e-06)
(0.137989 8.11013e-06 4.03802e-06)
(0.13799 1.81615e-05 2.65547e-06)
(0.137989 1.08181e-05 2.90765e-06)
(0.137979 1.87193e-05 8.21315e-07)
(0.137982 3.76547e-06 9.10702e-07)
(0.137983 1.14661e-05 -1.47752e-06)
(0.137977 -4.05485e-06 -1.16621e-06)
(0.137991 -4.87956e-06 -2.8881e-06)
(0.137982 5.45836e-06 -3.32707e-06)
(0.137982 -1.52703e-05 -2.35639e-06)
(0.137988 -1.1821e-05 -2.87367e-06)
(0.137996 -1.04767e-05 -3.44621e-06)
(0.137994 -1.92304e-05 -4.97845e-07)
(0.137997 -3.67496e-06 -7.3028e-07)
(0.137996 -1.24982e-05 6.22629e-07)
(0.137991 -1.73833e-05 -6.26583e-07)
(0.138009 -1.07057e-05 1.244e-06)
(0.138002 -6.94087e-06 1.89937e-06)
(0.137999 -1.16555e-05 1.39346e-06)
(0.138003 7.98371e-07 1.48162e-06)
(0.138003 -8.02793e-06 2.14148e-06)
(0.13801 2.97462e-06 3.91662e-06)
(0.138 7.29355e-06 3.65509e-06)
(0.138002 7.32898e-06 1.79268e-06)
(0.138131 2.59511e-05 7.04347e-06)
(0.138126 3.65528e-06 3.01671e-06)
(0.138135 2.19501e-05 5.12783e-06)
(0.138127 1.65187e-05 1.96353e-06)
(0.138128 2.61631e-05 1.43103e-06)
(0.138112 2.03733e-05 5.63841e-06)
(0.138118 5.97991e-07 5.39236e-07)
(0.138123 1.62815e-05 7.22354e-06)
(0.138117 4.015e-07 1.05285e-06)
(0.138129 1.51149e-05 2.39236e-06)
(0.138118 1.04041e-05 4.40956e-06)
(0.138126 -4.11877e-06 2.77532e-06)
(0.138135 1.29679e-05 4.15875e-06)
(0.138131 6.29765e-06 3.00971e-06)
(0.13813 2.95753e-05 6.16615e-06)
(0.138109 1.86635e-05 3.08519e-06)
(0.138122 7.86184e-06 5.77352e-06)
(0.138123 2.1927e-05 3.48691e-06)
(0.138122 1.01444e-05 4.36835e-06)
(0.138109 2.73024e-05 7.22501e-07)
(0.138112 2.38516e-06 1.2851e-06)
(0.138112 1.6473e-05 -2.50792e-06)
(0.138103 -1.14727e-05 -1.58705e-06)
(0.138129 -5.35645e-06 -4.46153e-06)
(0.13811 1.10734e-05 -4.12445e-06)
(0.138108 -2.38696e-05 -3.65538e-06)
(0.138123 -1.24081e-05 -3.54852e-06)
(0.138125 -1.55787e-05 -5.05226e-06)
(0.138131 -2.62463e-05 -7.1147e-07)
(0.138133 3.79145e-06 -3.32954e-08)
(0.138123 -1.74365e-05 5.95035e-07)
(0.138125 -2.13671e-05 -1.333e-06)
(0.138145 -1.17094e-05 2.84701e-06)
(0.138135 -9.88434e-06 1.91816e-06)
(0.138135 -1.18229e-05 1.50008e-06)
(0.138137 4.25891e-06 3.14778e-06)
(0.138136 -1.28834e-05 3.21663e-06)
(0.138149 7.30429e-06 5.40769e-06)
(0.138134 8.99983e-06 5.6027e-06)
(0.138139 1.39196e-05 3.57237e-06)
(0.138251 3.57236e-05 1.15207e-05)
(0.138249 2.7595e-06 3.66463e-06)
(0.138264 3.03374e-05 8.03569e-06)
(0.138254 1.91973e-05 2.81066e-06)
(0.138255 4.18898e-05 3.13701e-06)
(0.138226 2.54675e-05 7.88001e-06)
(0.138242 -5.47016e-07 -2.52616e-07)
(0.138247 1.98009e-05 1.1381e-05)
(0.138243 -3.06874e-06 1.12831e-08)
(0.138257 2.72304e-05 4.10594e-06)
(0.138235 9.60564e-06 5.80025e-06)
(0.138252 -8.037e-06 3.37544e-06)
(0.138263 1.27306e-05 4.80781e-06)
(0.138263 3.64602e-06 2.91038e-06)
(0.138259 4.48599e-05 7.98493e-06)
(0.138225 1.96221e-05 3.46013e-06)
(0.138248 9.08099e-06 7.92902e-06)
(0.138249 2.44153e-05 4.34766e-06)
(0.13825 9.50942e-06 6.4012e-06)
(0.138231 4.09869e-05 2.3157e-07)
(0.138233 2.28432e-07 1.92358e-06)
(0.138232 2.36607e-05 -4.27364e-06)
(0.138221 -2.40562e-05 -2.02522e-06)
(0.138264 -2.90318e-06 -6.35861e-06)
(0.138228 1.85572e-05 -4.81546e-06)
(0.138226 -3.51607e-05 -5.16217e-06)
(0.138251 -1.09152e-05 -4.04918e-06)
(0.138245 -2.62534e-05 -7.17959e-06)
(0.138265 -3.29775e-05 -7.5113e-07)
(0.138261 1.60689e-05 1.23377e-06)
(0.138238 -2.60443e-05 8.09217e-07)
(0.138253 -2.38093e-05 -2.09754e-06)
(0.138274 -1.5176e-05 5.03546e-06)
(0.138261 -1.43388e-05 1.47573e-06)
(0.138266 -8.52542e-06 1.89621e-06)
(0.13826 7.08888e-06 5.64835e-06)
(0.138262 -2.00161e-05 4.40174e-06)
(0.138282 1.30216e-05 7.6596e-06)
(0.138261 9.71469e-06 8.18931e-06)
(0.13827 2.50891e-05 6.16355e-06)
(0.13836 4.63332e-05 1.85084e-05)
(0.138365 2.50677e-06 4.46538e-06)
(0.138386 3.78646e-05 1.20132e-05)
(0.138377 2.22153e-05 3.85939e-06)
(0.138374 6.48766e-05 6.39483e-06)
(0.138329 3.01506e-05 1.08864e-05)
(0.138358 -1.18303e-06 -8.66199e-07)
(0.138363 2.02107e-05 1.72809e-05)
(0.138365 -5.44032e-06 -1.84643e-06)
(0.138379 4.61083e-05 7.39891e-06)
(0.13834 6.78557e-06 7.53472e-06)
(0.13837 -1.11399e-05 4.36259e-06)
(0.138384 8.52211e-06 5.00595e-06)
(0.138393 2.27941e-06 2.39075e-06)
(0.138382 6.66037e-05 1.00177e-05)
(0.138331 1.94448e-05 3.9653e-06)
(0.138367 1.20979e-05 1.04733e-05)
(0.138366 2.28823e-05 5.28369e-06)
(0.138374 1.06553e-05 9.18757e-06)
(0.138346 6.05445e-05 -6.30263e-07)
(0.138344 -2.6943e-06 3.08897e-06)
(0.138341 3.30825e-05 -7.25672e-06)
(0.138331 -4.37261e-05 -2.45098e-06)
(0.138397 4.26283e-06 -8.51887e-06)
(0.138335 2.70047e-05 -5.28642e-06)
(0.138335 -4.77958e-05 -6.67775e-06)
(0.13837 -8.04111e-06 -4.21436e-06)
(0.138356 -4.5462e-05 -1.00263e-05)
(0.138399 -3.6586e-05 -5.29485e-07)
(0.13838 3.28362e-05 3.28887e-06)
(0.138343 -3.8224e-05 1.69271e-06)
(0.138375 -2.34676e-05 -3.04487e-06)
(0.138394 -2.38822e-05 7.56338e-06)
(0.138383 -1.84234e-05 2.38698e-07)
(0.138391 -7.72467e-07 2.89926e-06)
(0.138373 7.82042e-06 9.25053e-06)
(0.138383 -2.89532e-05 5.6792e-06)
(0.138409 1.92439e-05 1.11462e-05)
(0.138383 9.62447e-06 1.13083e-05)
(0.138396 4.24136e-05 1.00571e-05)
(0.138457 5.75904e-05 2.94241e-05)
(0.138473 3.41384e-06 5.56942e-06)
(0.138502 4.14714e-05 1.7191e-05)
(0.138498 2.7558e-05 5.37687e-06)
(0.138487 9.55067e-05 1.20511e-05)
(0.13842 3.46386e-05 1.51384e-05)
(0.138466 -1.41622e-06 -8.08403e-07)
(0.138472 1.4568e-05 2.51886e-05)
(0.138486 -4.06277e-06 -4.24295e-06)
(0.138492 7.17848e-05 1.30531e-05)
(0.138434 2.53256e-06 9.99233e-06)
(0.13848 -1.3332e-05 6.24691e-06)
(0.138499 -3.02804e-06 4.41906e-06)
(0.138523 4.60889e-06 1.67199e-06)
(0.138497 9.45969e-05 1.24181e-05)
(0.138426 1.91167e-05 5.09836e-06)
(0.138478 1.63847e-05 1.32414e-05)
(0.138477 1.41405e-05 6.31189e-06)
(0.138498 1.70314e-05 1.29348e-05)
(0.138452 8.61234e-05 -1.6773e-06)
(0.138446 -5.16072e-06 5.15751e-06)
(0.13844 4.45052e-05 -1.21203e-05)
(0.138436 -7.20753e-05 -2.65384e-06)
(0.138531 1.80004e-05 -1.06371e-05)
(0.13843 3.53589e-05 -5.2409e-06)
(0.138437 -5.93645e-05 -7.61856e-06)
(0.13848 -6.20704e-06 -3.91217e-06)
(0.13846 -7.58377e-05 -1.38575e-05)
(0.138536 -3.37342e-05 1.3059e-07)
(0.138489 5.27432e-05 6.86421e-06)
(0.138438 -5.20435e-05 4.13716e-06)
(0.13849 -2.01141e-05 -4.18508e-06)
(0.138506 -4.1177e-05 1.02065e-05)
(0.138504 -1.89454e-05 -1.97337e-06)
(0.138509 1.11713e-05 4.96518e-06)
(0.138473 4.8341e-06 1.45849e-05)
(0.138498 -3.93189e-05 7.03498e-06)
(0.138531 2.38769e-05 1.62551e-05)
(0.138502 1.03463e-05 1.44476e-05)
(0.138518 6.67072e-05 1.5978e-05)
(0.138543 7.02289e-05 4.64738e-05)
(0.138573 5.2343e-06 7.25055e-06)
(0.138612 3.76485e-05 2.35929e-05)
(0.138619 3.72238e-05 8.38968e-06)
(0.138592 0.000133156 2.1437e-05)
(0.138497 4.01379e-05 2.17572e-05)
(0.138564 -2.8477e-06 8.10462e-07)
(0.138575 -3.17693e-07 3.54979e-05)
(0.138609 4.56551e-06 -6.27242e-06)
(0.138597 0.000103774 2.21864e-05)
(0.138515 -1.35127e-06 1.40449e-05)
(0.138581 -1.62418e-05 9.59235e-06)
(0.138608 -2.50114e-05 2.81114e-06)
(0.138656 1.29518e-05 1.19685e-06)
(0.138604 0.000127976 1.5431e-05)
(0.138509 2.09881e-05 7.91529e-06)
(0.13858 1.97468e-05 1.58499e-05)
(0.138583 -4.66551e-06 7.57844e-06)
(0.138624 3.18477e-05 1.81187e-05)
(0.13855 0.000117152 -2.31439e-06)
(0.138539 -5.47179e-06 8.84269e-06)
(0.138526 5.61235e-05 -1.96556e-05)
(0.138536 -0.000110405 -2.51087e-06)
(0.138666 3.92372e-05 -1.22031e-05)
(0.138514 4.28861e-05 -4.08e-06)
(0.138531 -6.67454e-05 -7.10362e-06)
(0.138577 -9.66417e-06 -3.16252e-06)
(0.13856 -0.000118093 -1.8932e-05)
(0.138678 -2.28564e-05 1.42017e-06)
(0.138587 7.38585e-05 1.29927e-05)
(0.138524 -6.33393e-05 9.37674e-06)
(0.138597 -1.60197e-05 -6.06805e-06)
(0.138612 -6.92824e-05 1.18451e-05)
(0.138627 -1.20162e-05 -5.35385e-06)
(0.138618 2.5671e-05 8.68884e-06)
(0.138563 -1.66745e-06 2.22065e-05)
(0.138608 -5.13032e-05 9.00133e-06)
(0.138648 2.41646e-05 2.37371e-05)
(0.138619 1.33952e-05 1.73218e-05)
(0.138634 9.77101e-05 2.52212e-05)
(0.138616 8.65497e-05 7.28508e-05)
(0.138661 6.21966e-06 1.01504e-05)
(0.138718 2.27576e-05 3.14702e-05)
(0.138742 5.21221e-05 1.45546e-05)
(0.13869 0.000176173 3.65674e-05)
(0.138561 4.94831e-05 3.29189e-05)
(0.13865 -8.52545e-06 4.99803e-06)
(0.138675 -2.67627e-05 4.89697e-05)
(0.138735 2.22779e-05 -6.67333e-06)
(0.138692 0.000141399 3.62533e-05)
(0.138583 -1.53486e-06 2.15029e-05)
(0.13867 -2.36979e-05 1.49627e-05)
(0.138714 -5.98304e-05 -2.58926e-07)
(0.138793 2.86807e-05 2.06621e-06)
(0.138703 0.00016617 1.97783e-05)
(0.13858 2.88131e-05 1.43831e-05)
(0.138669 1.78661e-05 1.79535e-05)
(0.138687 -3.41354e-05 9.31713e-06)
(0.138754 5.68275e-05 2.60867e-05)
(0.138638 0.000153175 -1.27524e-06)
(0.138621 -6.72003e-07 1.51609e-05)
(0.138599 6.48103e-05 -3.06608e-05)
(0.138634 -0.000159095 -1.66607e-06)
(0.138802 6.72831e-05 -1.2575e-05)
(0.138587 5.03867e-05 -7.06261e-07)
(0.138617 -6.62356e-05 -3.41388e-06)
(0.138659 -2.43951e-05 -2.18053e-06)
(0.138659 -0.000170454 -2.56395e-05)
(0.138825 -5.40962e-06 3.51863e-06)
(0.138674 9.57209e-05 2.35473e-05)
(0.138601 -6.74102e-05 1.97117e-05)
(0.138692 -1.61342e-05 -8.88238e-06)
(0.138713 -0.000108889 1.19101e-05)
(0.138752 4.27519e-06 -9.47244e-06)
(0.138716 4.04012e-05 1.52986e-05)
(0.138641 -9.61334e-06 3.40213e-05)
(0.138712 -6.73146e-05 1.27745e-05)
(0.138761 1.81746e-05 3.38564e-05)
(0.138736 1.88526e-05 1.97059e-05)
(0.138745 0.000134409 3.97063e-05)
(0.138677 0.000110009 0.000113678)
(0.138736 2.23058e-06 1.56937e-05)
(0.13882 -7.44816e-06 4.08865e-05)
(0.13887 7.09481e-05 2.623e-05)
(0.13878 0.000222388 6.02877e-05)
(0.13861 6.61948e-05 5.25747e-05)
(0.138722 -2.31635e-05 1.3558e-05)
(0.138774 -6.55479e-05 6.69962e-05)
(0.138867 4.77429e-05 -2.71392e-06)
(0.138777 0.000184529 5.75448e-05)
(0.138637 6.15774e-06 3.61993e-05)
(0.138745 -4.17435e-05 2.32854e-05)
(0.138819 -0.000109632 -4.83476e-06)
(0.138936 5.06831e-05 6.01405e-06)
(0.138794 0.0002096 2.69057e-05)
(0.138638 4.56819e-05 2.79179e-05)
(0.138745 3.84718e-06 1.90357e-05)
(0.138791 -7.44674e-05 1.21453e-05)
(0.138889 9.13861e-05 3.87984e-05)
(0.138716 0.000195406 3.66949e-06)
(0.138691 1.30029e-05 2.65028e-05)
(0.138656 6.61877e-05 -4.58494e-05)
(0.138731 -0.00021914 -5.38425e-07)
(0.138941 9.90719e-05 -1.04419e-05)
(0.138652 6.11144e-05 6.94852e-06)
(0.138692 -5.57451e-05 6.42792e-06)
(0.138724 -5.65899e-05 -1.3017e-06)
(0.13876 -0.000231151 -3.39828e-05)
(0.138976 1.40196e-05 7.12613e-06)
(0.138752 0.000120374 4.10794e-05)
(0.138669 -6.03423e-05 3.8412e-05)
(0.138772 -2.70265e-05 -1.30473e-05)
(0.138813 -0.000159147 9.34411e-06)
(0.138881 2.86884e-05 -1.4136e-05)
(0.138803 5.32565e-05 2.61537e-05)
(0.138707 -1.68292e-05 5.37462e-05)
(0.138809 -9.24201e-05 2.05284e-05)
(0.138871 3.25129e-06 4.73846e-05)
(0.138854 2.54084e-05 2.10138e-05)
(0.13885 0.000176207 6.21979e-05)
(0.138724 0.000143265 0.00017656)
(0.138794 -1.17253e-05 2.57671e-05)
(0.13892 -5.74252e-05 5.22291e-05)
(0.139003 8.90885e-05 4.73503e-05)
(0.138864 0.000270792 9.65038e-05)
(0.138644 9.28856e-05 8.68852e-05)
(0.138777 -5.30032e-05 2.85156e-05)
(0.138874 -0.00011824 9.26707e-05)
(0.139004 7.55045e-05 9.35636e-06)
(0.138854 0.00023514 8.93833e-05)
(0.138675 2.35178e-05 6.37605e-05)
(0.138801 -7.72245e-05 3.51746e-05)
(0.138925 -0.000176619 -1.06591e-05)
(0.139085 7.48984e-05 1.61854e-05)
(0.138879 0.000261155 3.9394e-05)
(0.13868 7.2034e-05 5.40883e-05)
(0.138803 -2.92048e-05 1.85673e-05)
(0.138899 -0.000127461 1.61904e-05)
(0.13903 0.000131585 5.97978e-05)
(0.138786 0.000247846 1.5695e-05)
(0.138747 3.71452e-05 4.67405e-05)
(0.138696 5.45457e-05 -6.5492e-05)
(0.138828 -0.000292892 -2.66994e-07)
(0.139083 0.000129339 -3.15568e-06)
(0.13871 8.16442e-05 2.15314e-05)
(0.138751 -3.51129e-05 2.68989e-05)
(0.138771 -0.000110471 -1.59655e-06)
(0.138864 -0.000302372 -4.50359e-05)
(0.139131 2.73685e-05 1.32214e-05)
(0.138824 0.000154552 6.91834e-05)
(0.138723 -4.20756e-05 7.05053e-05)
(0.138835 -5.51783e-05 -1.89278e-05)
(0.138915 -0.000219047 3.43087e-06)
(0.139013 5.60104e-05 -1.76736e-05)
(0.138878 6.48351e-05 4.32238e-05)
(0.138761 -2.35106e-05 8.77979e-05)
(0.138896 -0.00013356 3.50995e-05)
(0.138978 -2.47394e-05 6.4987e-05)
(0.138975 2.76186e-05 2.18495e-05)
(0.138953 0.000223799 9.59365e-05)
(0.138754 0.000187175 0.000271561)
(0.138832 -4.16827e-05 4.17045e-05)
(0.139018 -0.000133577 6.48173e-05)
(0.139142 9.78265e-05 8.42145e-05)
(0.138944 0.000321672 0.000150469)
(0.138661 0.000129343 0.000144185)
(0.138813 -0.000104836 5.14784e-05)
(0.138976 -0.000190306 0.000129113)
(0.139147 9.74462e-05 3.52613e-05)
(0.138923 0.000297777 0.000136889)
(0.138694 4.8748e-05 0.000112571)
(0.138838 -0.000137807 5.02056e-05)
(0.139035 -0.000264505 -1.82468e-05)
(0.139243 9.52846e-05 3.72217e-05)
(0.138958 0.000325925 6.10421e-05)
(0.138701 0.000104437 0.000100627)
(0.138843 -8.84736e-05 1.43024e-05)
(0.139012 -0.000196698 1.9591e-05)
(0.139177 0.000171 9.34877e-05)
(0.138848 0.000318314 3.94191e-05)
(0.138786 7.01844e-05 8.18783e-05)
(0.138716 2.38417e-05 -9.17366e-05)
(0.138927 -0.000385084 -3.62384e-06)
(0.13923 0.000151391 1.35257e-05)
(0.138764 0.000119787 4.79569e-05)
(0.138791 -8.01539e-06 6.27205e-05)
(0.138799 -0.000188752 -6.58687e-06)
(0.138973 -0.000390579 -6.14807e-05)
(0.139292 2.44728e-05 2.30086e-05)
(0.138892 0.000205726 0.000112302)
(0.138761 -1.76983e-05 0.000121649)
(0.13888 -0.000106037 -2.87613e-05)
(0.139021 -0.000290432 -8.33944e-06)
(0.139146 7.77923e-05 -1.75775e-05)
(0.138941 7.87432e-05 6.88223e-05)
(0.1388 -3.31473e-05 0.000143849)
(0.138971 -0.000198912 5.79343e-05)
(0.139085 -7.04912e-05 8.50189e-05)
(0.139099 1.69556e-05 2.16563e-05)
(0.139053 0.000279664 0.000144857)
(0.138777 0.000239484 0.000410615)
(0.138852 -9.28184e-05 5.81629e-05)
(0.139118 -0.000245755 7.08586e-05)
(0.13929 8.67324e-05 0.000142424)
(0.139023 0.000377667 0.000231755)
(0.138668 0.000172001 0.000233954)
(0.138835 -0.000183824 7.69725e-05)
(0.139084 -0.000289581 0.000172051)
(0.139299 0.000104585 8.01747e-05)
(0.138985 0.000379891 0.000211069)
(0.138697 7.54412e-05 0.0001921)
(0.138861 -0.000229798 6.0468e-05)
(0.139152 -0.000379991 -3.49164e-05)
(0.139414 0.000105601 7.28463e-05)
(0.139031 0.000409975 0.000100115)
(0.138707 0.000135002 0.000176284)
(0.138871 -0.000182235 -2.96865e-06)
(0.139136 -0.000290256 1.25957e-05)
(0.139334 0.000202651 0.000143519)
(0.1389 0.000416461 8.36633e-05)
(0.138813 0.000106948 0.000138833)
(0.138716 -3.13326e-05 -0.000132458)
(0.13903 -0.00050435 -2.18269e-05)
(0.139386 0.000158652 4.26379e-05)
(0.138814 0.000181702 9.59108e-05)
(0.138818 1.74993e-05 0.000123029)
(0.138813 -0.000294764 -2.76092e-05)
(0.13909 -0.000507567 -9.46517e-05)
(0.139465 -1.913e-06 3.59771e-05)
(0.138958 0.000280583 0.000178867)
(0.138784 4.46439e-06 0.000198054)
(0.138911 -0.000182824 -5.12803e-05)
(0.139136 -0.000382072 -3.5003e-05)
(0.139283 8.46378e-05 -9.10721e-06)
(0.138995 9.98932e-05 0.000110822)
(0.13883 -5.41362e-05 0.000231711)
(0.139041 -0.000295731 8.24516e-05)
(0.139195 -0.000143693 9.6744e-05)
(0.139232 -1.59659e-05 1.84572e-05)
(0.139156 0.000348062 0.00021593)
(0.138842 0.000294037 0.000613464)
(0.138882 -0.00017189 4.25587e-05)
(0.139229 -0.00040622 3.2156e-05)
(0.139455 4.66294e-05 0.000218505)
(0.13912 0.000439958 0.000371029)
(0.138714 0.000213258 0.000378748)
(0.138872 -0.000294415 7.70216e-05)
(0.139214 -0.000427227 0.000182428)
(0.139469 9.01114e-05 0.000137836)
(0.139041 0.000488691 0.000345283)
(0.138735 9.38521e-05 0.000327235)
(0.138909 -0.000357812 3.88276e-05)
(0.139298 -0.000529898 -9.6132e-05)
(0.139614 0.000104805 0.000117296)
(0.139107 0.000517678 0.000182558)
(0.138744 0.000150692 0.000303602)
(0.138919 -0.00031869 -6.26802e-05)
(0.139286 -0.000419597 -4.66777e-05)
(0.139512 0.00022514 0.000201319)
(0.138945 0.000550802 0.000175568)
(0.138878 0.000138603 0.000233738)
(0.138709 -0.000115798 -0.000214417)
(0.139155 -0.000663553 -9.53762e-05)
(0.139559 0.000152738 7.48262e-05)
(0.138863 0.000270211 0.000201888)
(0.138889 3.15935e-05 0.000234793)
(0.138845 -0.000433384 -9.392e-05)
(0.13923 -0.000666477 -0.000188954)
(0.139662 -5.15044e-05 3.99678e-05)
(0.139029 0.000380574 0.000299178)
(0.138841 1.34055e-05 0.00032048)
(0.138954 -0.000290622 -0.000118388)
(0.139282 -0.000507721 -0.000118617)
(0.139436 7.11125e-05 1.24926e-05)
(0.139054 0.000130394 0.0002084)
(0.138902 -9.89654e-05 0.000378818)
(0.139141 -0.000431159 7.3748e-05)
(0.139324 -0.000254632 4.79714e-05)
(0.139384 -7.72606e-05 -4.07466e-06)
(0.139273 0.000432079 0.000334849)
(0.139082 0.000342348 0.000960388)
(0.138968 -0.000281157 -0.000102982)
(0.139348 -0.00063452 -0.000183798)
(0.139627 -3.00909e-05 0.000274726)
(0.139284 0.000504942 0.000686615)
(0.138928 0.000245195 0.000674499)
(0.138971 -0.0004351 -1.99758e-05)
(0.139361 -0.000614048 1.4603e-05)
(0.139654 5.73496e-05 0.000164918)
(0.139117 0.000622565 0.000661642)
(0.138939 8.82521e-05 0.000620504)
(0.139053 -0.000519714 -7.71716e-05)
(0.139482 -0.00072013 -0.000319154)
(0.139855 9.77656e-05 0.000131622)
(0.139235 0.000640086 0.000411088)
(0.138959 0.000132036 0.000582471)
(0.139049 -0.000502306 -0.000229505)
(0.139466 -0.000599552 -0.000293599)
(0.139711 0.000244674 0.000217171)
(0.139018 0.00071645 0.000419341)
(0.139108 0.000153193 0.000444039)
(0.138733 -0.000233845 -0.000403156)
(0.139313 -0.000882317 -0.000343529)
(0.139754 0.000140819 5.95304e-05)
(0.138947 0.000378526 0.000496767)
(0.139158 2.37356e-05 0.00051933)
(0.138959 -0.000606636 -0.00026172)
(0.139391 -0.000878297 -0.000482039)
(0.139878 -0.000119291 -1.05524e-05)
(0.139146 0.000498248 0.000596514)
(0.139056 -7.63404e-07 0.000590525)
(0.139048 -0.00043417 -0.000307508)
(0.13947 -0.00068992 -0.000396933)
(0.139627 3.8568e-05 4.60918e-05)
(0.139191 0.00016043 0.000522205)
(0.13915 -0.000179343 0.000702029)
(0.139307 -0.00060411 -5.9195e-05)
(0.13947 -0.000419599 -0.000234254)
(0.139553 -0.000172944 -0.000102624)
(0.139439 0.000523677 0.00061734)
(0.13945 0.00038774 0.00165754)
(0.138973 -0.000418117 -0.000598407)
(0.139235 -0.000969181 -0.000858022)
(0.139586 -0.00017663 0.000260781)
(0.139482 0.000557056 0.0015161)
(0.139285 0.000282109 0.00136476)
(0.138977 -0.000591773 -0.000359962)
(0.139261 -0.000873289 -0.000657113)
(0.139686 -6.52635e-06 9.53278e-05)
(0.139248 0.000762984 0.00149758)
(0.139315 5.60504e-05 0.00131951)
(0.139174 -0.000701153 -0.000426568)
(0.139478 -0.000973929 -0.000961214)
(0.139977 6.7981e-05 5.39697e-05)
(0.139484 0.000742894 0.00108413)
(0.139403 6.76342e-05 0.00127063)
(0.139132 -0.00072309 -0.00064816)
(0.13943 -0.000850811 -0.00102917)
(0.139754 0.000242789 0.000110539)
(0.139193 0.000878871 0.00111346)
(0.139465 0.000153509 0.000973854)
(0.138769 -0.000378037 -0.0008308)
(0.139289 -0.00119168 -0.000991008)
(0.139849 0.000106833 -6.86184e-05)
(0.139101 0.00047787 0.00132295)
(0.139669 -1.60527e-06 0.00125944)
(0.139068 -0.000799533 -0.000647062)
(0.139293 -0.00116193 -0.00127133)
(0.139892 -0.000224003 -0.000165241)
(0.139333 0.000607815 0.00142633)
(0.139399 -3.18072e-05 0.00126424)
(0.139059 -0.000614004 -0.00077656)
(0.13945 -0.000970704 -0.00115484)
(0.139762 -3.64259e-05 0.000114794)
(0.139503 0.000171257 0.0014682)
(0.139528 -0.000286578 0.0014601)
(0.139278 -0.000805055 -0.000522308)
(0.139351 -0.000672189 -0.00112001)
(0.139523 -0.000334225 -0.000343521)
(0.139607 0.000596544 0.00143062)
(0.138953 0.000465378 0.00266067)
(0.138224 -0.000598276 -0.00185896)
(0.137963 -0.00150918 -0.00214678)
(0.138393 -0.00047063 0.000439684)
(0.139025 0.000600829 0.00339107)
(0.138877 0.000383469 0.00247021)
(0.138183 -0.000739946 -0.00130081)
(0.138036 -0.00127981 -0.00211965)
(0.138859 -0.000173672 0.000150455)
(0.139078 0.000890067 0.00337998)
(0.139026 5.11374e-05 0.00242395)
(0.138604 -0.000876457 -0.00138089)
(0.138421 -0.00137658 -0.00221354)
(0.13916 -9.37206e-05 9.25966e-05)
(0.139444 0.000774534 0.00271414)
(0.139208 1.71953e-05 0.00241731)
(0.138431 -0.000941663 -0.00172873)
(0.138249 -0.00125141 -0.00250526)
(0.138846 0.000119754 9.44668e-05)
(0.139127 0.000999598 0.00276954)
(0.139038 0.000186684 0.00185849)
(0.13851 -0.000531518 -0.00176294)
(0.138191 -0.00165159 -0.00215481)
(0.139177 -4.07155e-05 -5.67434e-05)
(0.138883 0.000540204 0.00318876)
(0.139607 2.18896e-05 0.00248121)
(0.138567 -0.00096955 -0.00160083)
(0.13798 -0.00159432 -0.00277151)
(0.138849 -0.000454637 -0.000104711)
(0.139055 0.000690147 0.0033673)
(0.138962 -2.1839e-05 0.00235954)
(0.138362 -0.000828579 -0.00186532)
(0.138241 -0.00146487 -0.00251893)
(0.139151 -0.000238848 0.000550977)
(0.139501 0.00016121 0.0035632)
(0.139039 -0.000343113 0.00255399)
(0.138174 -0.00102167 -0.00178119)
(0.138014 -0.0011305 -0.00284311)
(0.138375 -0.000653797 -0.000391247)
(0.139082 0.000636389 0.0033999)
(0.136059 0.000547969 0.00272313)
(0.135966 -0.000950209 -0.00423407)
(0.134278 -0.00226079 -0.00329313)
(0.134647 -0.000884503 0.00174822)
(0.136292 0.000654105 0.00624429)
(0.136221 0.000548201 0.00285489)
(0.135894 -0.000959334 -0.00336063)
(0.134747 -0.00186683 -0.00378154)
(0.136042 -0.00046803 0.00131199)
(0.137223 0.000982247 0.00628394)
(0.136573 9.04833e-05 0.00275619)
(0.136602 -0.00112193 -0.00341547)
(0.135143 -0.0019613 -0.00342454)
(0.135986 -0.000439814 0.0011584)
(0.137436 0.000717904 0.00533806)
(0.136592 3.31324e-05 0.0028632)
(0.136112 -0.00119275 -0.00406322)
(0.134752 -0.00184302 -0.00403338)
(0.135703 -0.000184878 0.00119734)
(0.137315 0.00106205 0.00549518)
(0.136401 0.00026893 0.0021618)
(0.137296 -0.000772608 -0.00349092)
(0.134752 -0.00223486 -0.00323822)
(0.136457 -0.000349393 0.00105557)
(0.136771 0.000567572 0.00604721)
(0.137391 0.000115529 0.00298806)
(0.136582 -0.00117357 -0.0036576)
(0.134353 -0.00219419 -0.00428033)
(0.135517 -0.000814551 0.00129914)
(0.136683 0.000733506 0.00642178)
(0.13628 2.99092e-05 0.00270255)
(0.136214 -0.00115134 -0.00396081)
(0.13467 -0.00218256 -0.00366711)
(0.13643 -0.000606783 0.00226033)
(0.137338 0.000151488 0.00647804)
(0.136101 -0.000324672 0.00260642)
(0.135364 -0.00135343 -0.00426569)
(0.134337 -0.00187697 -0.00446185)
(0.1347 -0.00111878 0.000953798)
(0.136156 0.00065439 0.00650538)
(0.131123 0.000324857 0.000235348)
(0.132006 -0.00155234 -0.00688109)
(0.127809 -0.00286796 -0.00280533)
(0.128066 -0.00112895 0.00450482)
(0.130551 0.000668677 0.00828722)
(0.131559 0.00047994 0.000845888)
(0.132161 -0.00138564 -0.00608614)
(0.12925 -0.00236586 -0.0039982)
(0.130657 -0.000640478 0.00416144)
(0.132381 0.000987077 0.00843918)
(0.131942 -7.22355e-05 0.000697311)
(0.132945 -0.00153448 -0.00589101)
(0.129137 -0.00245047 -0.00310577)
(0.129878 -0.000709645 0.00368362)
(0.132083 0.000589406 0.00731423)
(0.131426 -9.51225e-05 0.000871934)
(0.132103 -0.0016109 -0.00706277)
(0.128627 -0.00236793 -0.00383481)
(0.129872 -0.000424199 0.00409333)
(0.132441 0.00104275 0.00776387)
(0.131797 0.000172652 0.000432711)
(0.134329 -0.00118438 -0.00548906)
(0.12855 -0.0026724 -0.00297254)
(0.130997 -0.000587597 0.0037006)
(0.131544 0.000534835 0.00816365)
(0.13288 3.33575e-05 0.00108224)
(0.132696 -0.00153896 -0.00631625)
(0.128199 -0.00269208 -0.00413028)
(0.129511 -0.00103185 0.00456758)
(0.131165 0.000692056 0.00873979)
(0.13154 -0.000128752 0.000664143)
(0.132365 -0.00164 -0.00638731)
(0.128608 -0.00276774 -0.00306973)
(0.130853 -0.000885999 0.00532503)
(0.131682 6.58652e-05 0.00816026)
(0.130909 -0.000530117 0.000133925)
(0.130953 -0.00190711 -0.00702354)
(0.127937 -0.00257566 -0.00412502)
(0.128034 -0.00141692 0.00415794)
(0.129991 0.000611737 0.00879085)
(0.125307 -0.000383929 -0.00413708)
(0.125803 -0.00201109 -0.00787583)
(0.118969 -0.00295324 -0.000342916)
(0.119531 -0.00114025 0.00696817)
(0.123036 0.000395971 0.00732207)
(0.126028 -6.64975e-05 -0.00322703)
(0.126555 -0.00175984 -0.00760038)
(0.121587 -0.00239714 -0.00196903)
(0.12295 -0.000585153 0.00708288)
(0.125235 0.000701993 0.00758198)
(0.12609 -0.000618891 -0.00324318)
(0.126996 -0.00184085 -0.00695766)
(0.120547 -0.00250385 -0.000840892)
(0.121549 -0.000793886 0.0060637)
(0.124315 0.000243832 0.00656391)
(0.124987 -0.000582537 -0.00317331)
(0.126009 -0.0019579 -0.00857876)
(0.120137 -0.00246328 -0.0011498)
(0.121962 -0.000474945 0.00715722)
(0.125316 0.000757641 0.00732621)
(0.126246 -0.000301601 -0.00304904)
(0.128662 -0.00151109 -0.00626746)
(0.119936 -0.00269059 -0.000946623)
(0.123232 -0.000656959 0.00625502)
(0.124029 0.000261663 0.00741375)
(0.127011 -0.000428111 -0.00281477)
(0.126403 -0.00183518 -0.00769088)
(0.119807 -0.00274986 -0.00166758)
(0.121338 -0.00103048 0.00785997)
(0.123592 0.000369178 0.0079748)
(0.125787 -0.000652735 -0.0032577)
(0.126342 -0.00198645 -0.00733614)
(0.120435 -0.00284834 -0.000497911)