/*--------------------------------*- C++ -*----------------------------------*\
  =========                 |
  \\      /  F ield         | OpenFOAM: The Open Source CFD Toolbox
   \\    /   O peration     | Website:  https://openfoam.org
    \\  /    A nd           | Version:  10
     \\/     M anipulation  |
\*---------------------------------------------------------------------------*/
FoamFile
{
    format      ascii;
    class       surfaceScalarField;
    location    "13";
    object      phi;
}
// * * * * * * * * * * * * * * * * * * * * * * * * * * * * * * * * * * * * * //

dimensions      [0 3 -1 0 0 0 0];

internalField   nonuniform List<scalar> 
74080
(
0.00065125
-4.41426e-08
3.48747e-09
0.000651279
-4.32243e-08
-2.58488e-09
0.000651267
-4.30559e-09
1.18063e-08
0.000651234
1.76564e-08
1.6358e-08
0.000651226
-8.87868e-09
3.64172e-09
0.000651251
-3.89797e-08
-1.66526e-08
0.000651277
-3.43413e-08
-1.92739e-08
0.000651262
1.69717e-08
-6.29849e-09
0.000651222
3.86823e-08
2.17537e-09
0.000651187
3.95786e-08
8.06489e-11
0.000651189
8.00722e-09
-1.81697e-08
0.000651228
-2.19073e-08
-2.97368e-08
0.000651268
-1.50873e-08
-3.87661e-08
0.000651304
-3.62591e-09
-3.40495e-08
0.000651314
1.98934e-08
-2.40274e-08
0.000651306
3.34358e-08
-1.49821e-08
0.000651297
3.85496e-08
-8.25872e-09
0.000651274
4.15945e-08
-5.96766e-09
0.000651259
3.65432e-08
-4.22917e-09
0.000651236
3.2084e-08
-6.23313e-10
0.000651234
1.78706e-08
-9.39693e-09
0.000651222
2.12593e-08
1.8254e-09
0.000651233
-2.69665e-09
-1.15758e-08
0.000651221
1.88669e-08
6.13372e-10
0.000651222
-1.05104e-09
-3.54254e-09
0.000651241
-2.28915e-08
-9.41911e-09
0.00065122
1.83825e-08
1.12357e-08
0.000651258
-4.46126e-08
-1.8372e-08
0.00065125
-1.07341e-08
6.69076e-09
0.000651238
1.76288e-10
5.18314e-09
0.00065127
-4.79857e-08
-1.56224e-08
0.000651264
-1.36862e-08
7.8734e-09
0.000651246
9.08287e-09
4.98922e-09
0.000651279
-5.48282e-08
-1.26226e-08
0.000651269
-1.08726e-08
2.76696e-09
0.00065124
8.39599e-09
1.61972e-08
0.000651259
-3.77272e-08
-4.78747e-09
0.000651279
-4.41802e-08
-2.59898e-09
0.000651256
4.86602e-09
1.84304e-08
1.00441e-08
1.66705e-08
0.000597012
-3.30797e-08
8.17268e-09
0.000596995
-2.61495e-08
1.75184e-08
0.000597
-1.87826e-08
1.87601e-08
0.00059702
-5.07109e-09
4.20265e-09
0.000597019
-1.65461e-09
-1.1695e-09
0.000596999
-9.14206e-09
-3.67722e-09
0.000596985
-1.85719e-08
-1.59644e-09
0.000596982
1.8047e-08
-3.82488e-09
0.000596999
1.68621e-08
-1.17857e-08
0.000597002
3.84114e-08
-1.65516e-08
0.000597002
1.92798e-08
-2.74759e-08
0.000596998
-2.92159e-09
-2.2055e-08
0.00059698
2.09099e-08
-3.00876e-08
0.000596977
1.24142e-08
-2.6688e-08
0.000596967
3.71415e-08
-2.25587e-08
0.000596969
3.47804e-08
-2.1671e-08
0.000596977
3.14613e-08
-1.81066e-08
0.000596979
3.55782e-08
-1.58239e-08
0.000596978
3.56303e-08
-7.54521e-09
0.000596977
2.66561e-08
-6.96348e-09
0.000596967
3.01884e-08
-6.02737e-09
0.000596982
3.39551e-09
-1.84376e-10
0.000596975
1.1025e-08
-2.68063e-09
0.000596975
1.61172e-08
3.47757e-09
0.000596983
-3.95249e-09
-8.47511e-10
0.000596971
-5.81944e-09
5.64607e-09
0.000596994
-1.01868e-08
5.83356e-09
0.000596995
-2.86764e-08
-4.36222e-09
0.000596996
-2.51262e-08
1.48108e-08
0.000597012
-1.11201e-08
5.03777e-11
0.000597001
-2.72734e-08
-3.74041e-09
0.00059701
-3.32611e-08
1.50464e-08
0.000597022
4.29366e-09
-6.33723e-09
0.000597019
-4.46455e-08
-4.01212e-09
0.000596996
2.85767e-09
1.35226e-08
0.000597017
-1.31902e-08
2.34544e-09
0.000597022
-2.94361e-08
-8.48207e-09
0.000597
-2.21151e-08
1.4538e-08
0.000597002
-7.90724e-09
2.01926e-08
-3.74762e-10
3.02327e-09
0.000543652
-3.50284e-08
1.95593e-08
0.000543643
-2.35382e-08
2.61909e-08
0.00054365
-3.14936e-08
2.26304e-08
0.000543664
-1.16169e-08
2.88927e-09
0.000543655
1.51208e-08
4.27983e-09
0.000543644
3.05537e-09
3.21116e-09
0.000543639
-1.86218e-08
1.45564e-09
0.000543634
2.68294e-08
-8.18091e-09
0.000543649
6.8851e-09
-2.03517e-08
0.000543635
6.21891e-08
-2.37186e-08
0.000543639
2.51476e-08
-3.34935e-08
0.00054364
7.34218e-11
-1.76442e-08
0.000543625
4.17995e-08
-3.28848e-08
0.00054363
8.44578e-09
-2.67149e-08
0.000543611
5.9551e-08
-2.63516e-08
0.000543615
3.58608e-08
-2.94697e-08
0.000543623
3.04518e-08
-2.68916e-08
0.000543623
3.6883e-08
-2.33492e-08
0.000543625
3.53386e-08
-8.88346e-09
0.000543617
3.26156e-08
-1.14575e-08
0.000543607
4.20206e-08
-3.60936e-09
0.000543629
-1.52413e-08
-4.80507e-10
0.000543617
2.5686e-08
3.74714e-09
0.00054362
1.23179e-08
4.03993e-09
0.000543622
1.14303e-09
4.60314e-09
0.00054361
5.68732e-09
1.36424e-08
0.000543635
-2.85694e-08
4.97622e-09
0.000543637
-2.40735e-08
7.2822e-09
0.000543644
-4.42173e-08
1.69169e-08
0.000543646
-3.86004e-09
4.64879e-09
0.000543644
-2.39332e-08
2.35447e-09
0.000543655
-5.12625e-08
1.74756e-08
0.000543657
1.57393e-08
-6.50129e-09
0.000543667
-5.78506e-08
1.28633e-09
0.000543635
2.69897e-08
1.48684e-08
0.000543654
-2.41603e-08
-5.58363e-10
0.000543661
-2.52199e-08
-6.76909e-09
0.000543649
-1.64998e-08
2.3385e-08
0.000543648
-1.24465e-08
2.08752e-08
1.08285e-08
4.01027e-09
0.000494721
-4.32023e-08
3.10284e-08
0.000494714
-1.96829e-08
3.10602e-08
0.000494729
-5.3766e-08
3.18164e-08
0.000494743
-1.66322e-08
5.95442e-09
0.000494722
4.54275e-08
9.70763e-09
0.000494717
1.1589e-08
3.71928e-09
0.000494714
-2.08057e-08
-5.01352e-10
0.000494711
3.50158e-08
-1.09387e-08
0.000494733
-9.1814e-09
-2.46597e-08
0.0004947
1.07094e-07
-3.04047e-08
0.000494714
2.37784e-08
-4.39758e-08
0.000494713
4.10699e-09
-1.93508e-08
0.000494701
6.00375e-08
-4.57536e-08
0.000494713
-6.95729e-09
-3.01252e-08
0.000494678
9.93316e-08
-3.25207e-08
0.00049469
2.96321e-08
-3.62217e-08
0.000494695
3.38368e-08
-3.36286e-08
0.000494697
3.49173e-08
-2.736e-08
0.000494703
3.24181e-08
-7.82592e-09
0.000494683
5.05937e-08
-1.41762e-08
0.000494676
5.24672e-08
-9.09588e-10
0.000494705
-4.07944e-08
1.26333e-09
0.000494687
4.59143e-08
7.98576e-09
0.000494698
1.47839e-09
4.31205e-09
0.000494688
1.8957e-08
1.02222e-08
0.000494675
1.90827e-08
1.66914e-08
0.000494706
-5.09751e-08
8.02817e-09
0.000494709
-2.1874e-08
1.33201e-08
0.000494723
-7.17549e-08
2.0055e-08
0.000494711
1.76347e-08
1.28594e-08
0.000494717
-2.91001e-08
1.4684e-09
0.000494729
-6.92943e-08
2.48372e-08
0.000494728
2.96542e-08
-4.6628e-09
0.000494747
-8.36903e-08
1.98665e-09
0.000494697
7.12795e-08
1.80415e-08
0.000494726
-4.56908e-08
1.64297e-09
0.000494729
-1.57133e-08
-8.002e-09
0.000494724
-1.87974e-08
3.34502e-08
0.000494723
-1.64582e-08
2.57588e-08
3.67965e-08
1.08729e-08
0.000450151
-6.03546e-08
4.64584e-08
0.000450145
-1.22343e-08
3.52625e-08
0.000450175
-9.34031e-08
4.3758e-08
0.000450186
-1.55301e-08
8.19414e-09
0.000450148
9.41926e-08
1.66021e-08
0.000450152
1.44693e-08
2.84136e-09
0.000450149
-2.07809e-08
-6.71708e-09
0.000450156
3.65265e-08
-1.62202e-08
0.000450179
-2.85531e-08
-3.04529e-08
0.00045012
1.83427e-07
-4.07409e-08
0.00045015
9.14918e-09
-5.64232e-08
0.000450143
1.34502e-08
-2.19042e-08
0.000450142
6.39944e-08
-6.28388e-08
0.000450162
-3.39658e-08
-3.21168e-08
0.000450105
1.64824e-07
-4.15963e-08
0.000450131
1.026e-08
-4.23948e-08
0.000450128
4.72857e-08
-4.03821e-08
0.000450138
2.30151e-08
-3.11095e-08
0.000450146
3.05712e-08
-5.54841e-09
0.000450106
8.86863e-08
-1.75965e-08
0.000450109
5.70359e-08
3.05624e-09
0.000450143
-6.94627e-08
1.98777e-09
0.000450121
6.82168e-08
1.12445e-08
0.000450142
-1.77364e-08
3.12952e-09
0.000450109
6.25001e-08
1.42156e-08
0.000450104
2.82588e-08
1.85682e-08
0.000450138
-7.47968e-08
1.06248e-08
0.000450145
-2.7374e-08
1.85786e-08
0.000450167
-1.08746e-07
2.38343e-08
0.000450134
6.13232e-08
2.08979e-08
0.000450154
-4.96371e-08
-7.14324e-10
0.000450162
-8.28945e-08
3.58982e-08
0.000450164
3.92674e-08
-3.95957e-09
0.00045019
-1.2096e-07
3.31832e-09
0.000450119
1.42208e-07
2.17787e-08
0.000450162
-8.37537e-08
4.11585e-09
0.000450157
5.34185e-09
-8.87272e-09
0.000450169
-3.94782e-08
4.76002e-08
0.000450162
-1.44504e-08
3.03201e-08
8.29029e-08
2.18602e-08
0.000409572
-8.50585e-08
6.49201e-08
0.000409564
2.62722e-09
3.93647e-08
0.000409619
-1.63933e-07
5.96283e-08
0.000409623
-2.80273e-09
7.74454e-09
0.000409567
1.64549e-07
2.47711e-08
0.000409578
1.48149e-08
4.69314e-10
0.000409569
-1.34995e-08
-1.65745e-08
0.000409599
1.74954e-08
-2.32777e-08
0.000409619
-4.70848e-08
-3.84711e-08
0.000409531
2.94713e-07
-5.53114e-08
0.000409581
-2.17679e-08
-7.09374e-08
0.000409558
3.74794e-08
-2.68813e-08
0.000409584
4.07429e-08
-8.54653e-08
0.0004096
-6.24982e-08
-3.20344e-08
0.00040952
2.60755e-07
-5.32367e-08
0.000409564
-2.78005e-08
-4.60737e-08
0.000409546
7.60622e-08
-4.70652e-08
0.000409579
-1.30639e-08
-3.40469e-08
0.000409581
3.81352e-08
-2.16e-09
0.000409517
1.50108e-07
-2.13185e-08
0.000409537
5.25517e-08
9.36415e-09
0.000409569
-9.8447e-08
1.24624e-09
0.000409554
8.3607e-08
1.36762e-08
0.000409583
-4.13338e-08
7.32151e-10
0.000409518
1.41992e-07
1.58977e-08
0.000409526
2.86193e-08
1.99309e-08
0.000409559
-9.92683e-08
1.28162e-08
0.000409579
-4.79652e-08
2.31983e-08
0.000409604
-1.52835e-07
2.88411e-08
0.000409547
1.29381e-07
2.89355e-08
0.000409586
-8.88361e-08
-3.59607e-09
0.000409583
-8.87257e-08
5.27378e-08
0.000409601
3.09321e-08
-4.9244e-09
0.000409625
-1.60613e-07
5.82484e-09
0.00040953
2.40539e-07
2.72917e-08
0.000409591
-1.44318e-07
6.34596e-09
0.000409573
4.52188e-08
-8.6808e-09
0.000409614
-9.25249e-08
6.66002e-08
0.000409592
2.69975e-09
3.46821e-08
1.49846e-07
3.80756e-08
0.000372626
-1.11279e-07
8.63085e-08
0.000372617
2.06853e-08
4.46458e-08
0.00037271
-2.79509e-07
7.88612e-08
0.000372699
3.23031e-08
2.68127e-09
0.000372624
2.56347e-07
3.50955e-08
0.000372637
2.08122e-08
-4.70903e-09
0.000372622
-2.59601e-09
-2.98292e-08
0.000372691
-3.82307e-08
-3.28567e-08
0.000372694
-5.16467e-08
-5.07846e-08
0.00037258
4.40988e-07
-7.46018e-08
0.000372645
-6.67445e-08
-8.60393e-08
0.000372605
7.77843e-08
-3.45208e-08
0.000372676
-3.12376e-08
-1.11798e-07
0.000372673
-7.82995e-08
-2.96545e-08
0.000372575
3.84031e-07
-6.75557e-08
0.000372633
-8.55378e-08
-4.35284e-08
0.000372598
1.24547e-07
-5.67003e-08
0.000372669
-8.86106e-08
-3.62932e-08
0.000372652
7.06768e-08
2.16295e-09
0.000372566
2.3395e-07
-2.52142e-08
0.000372601
4.13487e-08
1.87997e-08
0.00037263
-1.23373e-07
-3.38738e-09
0.000372636
7.72161e-08
1.58122e-08
0.000372661
-5.76902e-08
-2.94439e-09
0.000372561
2.63328e-07
1.50725e-08
0.000372587
1.57826e-08
2.23063e-08
0.000372614
-1.17024e-07
1.11511e-08
0.000372657
-9.68481e-08
2.91409e-08
0.000372679
-1.96334e-07
3.39042e-08
0.000372598
2.21339e-07
3.56819e-08
0.000372655
-1.49201e-07
-3.82372e-09
0.000372639
-8.31757e-08
7.35142e-08
0.000372685
-1.01406e-08
-7.63461e-09
0.000372693
-1.90128e-07
1.05659e-08
0.000372583
3.59185e-07
3.33745e-08
0.000372655
-2.24784e-07
8.19803e-09
0.000372623
1.03287e-07
-5.64584e-09
0.000372708
-1.97065e-07
9.03086e-08
0.000372656
5.0872e-08
3.82748e-08
2.34494e-07
6.11606e-08
0.000338983
-1.25993e-07
1.11105e-07
0.000338986
3.01481e-08
5.26128e-08
0.000339124
-4.52064e-07
1.00203e-07
0.000339088
9.83251e-08
-7.47658e-09
0.000338999
3.66636e-07
4.86784e-08
0.000339001
4.70087e-08
-1.06643e-08
0.000338988
2.2671e-09
-4.83329e-08
0.000339107
-1.45535e-07
-4.48842e-08
0.00033908
-2.74208e-08
-6.93951e-08
0.000338949
6.16069e-07
-9.815e-08
0.000339016
-1.14357e-07
-1.00839e-07
0.000338962
1.23367e-07
-4.41693e-08
0.000339094
-1.7279e-07
-1.39832e-07
0.000339055
-6.2966e-08
-2.62416e-08
0.000338951
5.2488e-07
-8.33763e-08
0.000339008
-1.50707e-07
-3.38471e-08
0.000338964
1.86965e-07
-6.97319e-08
0.000339084
-2.18148e-07
-3.55525e-08
0.000339032
1.46079e-07
7.33998e-09
0.000338933
3.33775e-07
-2.81798e-08
0.000338975
3.36917e-08
3.1913e-08
0.000339002
-1.51373e-07
-1.28612e-08
0.000339046
3.53478e-08
1.78512e-08
0.00033905
-5.22772e-08
-7.54335e-09
0.000338917
4.25378e-07
1.11138e-08
0.000338959
-7.80667e-09
2.77993e-08
0.000338979
-1.25136e-07
4.07232e-09
0.000339059
-1.90129e-07
3.87665e-08
0.000339065
-2.27546e-07
3.87251e-08
0.000338966
3.28969e-07
4.10059e-08
0.000339033
-2.26339e-07
1.1543e-09
0.000339008
-6.89244e-08
9.76438e-08
0.000339092
-9.91011e-08
-1.04414e-08
0.000339069
-1.94518e-07
1.69723e-08
0.000338956
4.84716e-07
3.91381e-08
0.000339025
-3.11917e-07
1.13333e-08
0.000338989
1.70631e-07
-6.73064e-10
0.000339128
-3.68415e-07
1.18261e-07
0.00033903
1.47972e-07
4.16632e-08
3.27825e-07
9.31017e-08
0.000308344
-1.14177e-07
1.43471e-07
0.000308381
8.36847e-09
6.33665e-08
0.000308561
-6.87083e-07
1.21977e-07
0.000308499
1.92563e-07
-2.14875e-08
0.000308398
4.94205e-07
6.64315e-08
0.000308367
1.12392e-07
-1.45093e-08
0.000308377
-1.89504e-08
-7.31665e-08
0.000308551
-3.14056e-07
-5.93529e-08
0.000308482
3.06624e-08
-9.0547e-08
0.000308344
8.11796e-07
-1.24702e-07
0.000308388
-1.45823e-07
-1.12471e-07
0.000308342
1.52118e-07
-5.79928e-08
0.000308542
-4.00996e-07
-1.66718e-07
0.00030845
-8.30867e-09
-1.95519e-08
0.000308356
6.70238e-07
-9.79263e-08
0.000308388
-1.98716e-07
-1.63331e-08
0.000308355
2.44325e-07
-8.68829e-08
0.000308526
-4.0954e-07
-2.96901e-08
0.000308428
2.78616e-07
1.16715e-08
0.000308326
4.4175e-07
-2.87248e-08
0.000308356
4.572e-08
5.07632e-08
0.000308397
-2.00353e-07
-2.81257e-08
0.000308485
-5.56628e-08
2.40412e-08
0.000308454
-1.30634e-08
-1.18691e-08
0.000308299
6.22433e-07
4.27476e-09
0.000308342
-3.26175e-08
4.07953e-08
0.000308362
-1.31608e-07
-6.35813e-09
0.000308488
-3.44519e-07
5.49208e-08
0.000308467
-2.41288e-07
4.55303e-08
0.000308359
4.38691e-07
4.57991e-08
0.000308422
-3.07702e-07
1.43735e-08
0.000308398
-5.73322e-08
1.24505e-07
0.000308524
-2.45103e-07
-1.09342e-08
0.000308461
-1.68185e-07
2.71183e-08
0.000308358
6.00568e-07
4.35942e-08
0.000308398
-3.87944e-07
1.97855e-08
0.000308383
2.22972e-07
8.75079e-09
0.000308574
-6.14599e-07
1.4999e-07
0.00030842
2.99605e-07
5.02541e-08
4.19548e-07
1.33972e-07
0.000280438
-5.55186e-08
1.82932e-07
0.000280535
-7.49765e-08
7.83204e-08
0.000280748
-9.82447e-07
1.4038e-07
0.000280669
2.96495e-07
-3.56765e-08
0.000280549
6.46777e-07
8.94496e-08
0.000280467
2.36124e-07
-1.3709e-08
0.000280523
-9.52269e-08
-1.03293e-07
0.000280746
-5.44634e-07
-7.74246e-08
0.000280635
1.14093e-07
-1.12302e-07
0.000280497
1.02324e-06
-1.51653e-07
0.000280489
-1.43339e-07
-1.16706e-07
0.000280481
1.28251e-07
-7.31114e-08
0.000280743
-7.24057e-07
-1.91271e-07
0.000280596
7.87478e-08
-9.46063e-09
0.000280522
8.1293e-07
-1.064e-07
0.000280499
-2.01202e-07
1.33333e-08
0.000280509
2.61999e-07
-1.07264e-07
0.000280718
-6.6176e-07
-1.56563e-08
0.000280575
4.65714e-07
1.88182e-08
0.000280474
5.57004e-07
-2.44769e-08
0.000280472
1.01649e-07
7.18382e-08
0.000280551
-2.98463e-07
-4.89387e-08
0.00028068
-2.04228e-07
3.67887e-08
0.000280606
6.04558e-08
-1.33276e-08
0.000280437
8.51275e-07
-5.22503e-09
0.000280461
-3.675e-08
6.15637e-08
0.000280496
-1.55804e-07
-1.80717e-08
0.000280673
-5.73975e-07
7.99575e-08
0.000280617
-2.40095e-07
5.34527e-08
0.00028051
5.36623e-07
5.15947e-08
0.000280548
-3.77921e-07
3.91501e-08
0.000280545
-6.9724e-08
1.55377e-07
0.000280706
-4.4877e-07
-5.4679e-09
0.000280602
-1.18312e-07
4.09229e-08
0.000280519
6.94543e-07
4.70386e-08
0.000280502
-4.30925e-07
3.61753e-08
0.00028054
2.25449e-07
2.12664e-08
0.000280768
-9.30817e-07
1.84253e-07
0.000280564
4.92757e-07
6.76798e-08
5.05386e-07
1.85284e-07
0.000255021
5.53304e-08
2.36814e-07
0.000255207
-2.58187e-07
1.00603e-07
0.000255434
-1.34213e-06
1.6033e-07
0.000255359
3.74541e-07
-4.51445e-08
0.000255199
8.46921e-07
1.19024e-07
0.000255057
4.27988e-07
-3.31773e-09
0.000255184
-2.5609e-07
-1.37851e-07
0.000255441
-8.44925e-07
-9.18608e-08
0.000255301
1.94359e-07
-1.29187e-07
0.000255153
1.25794e-06
-1.74394e-07
0.000255075
-9.02964e-08
-1.13453e-07
0.000255136
9.05385e-09
-8.53755e-08
0.000255443
-1.15048e-06
-2.04035e-07
0.000255255
1.69373e-07
5.64256e-09
0.000255195
9.61303e-07
-1.02947e-07
0.000255094
-1.456e-07
6.18614e-08
0.000255185
1.92979e-07
-1.2751e-07
0.000255408
-9.67674e-07
9.78313e-09
0.000255236
6.84231e-07
3.30731e-08
0.000255126
6.95037e-07
-1.3283e-08
0.000255076
2.19175e-07
9.59045e-08
0.00025522
-4.80184e-07
-7.323e-08
0.000255378
-4.17907e-07
5.91657e-08
0.000255267
1.48983e-07
-6.79868e-09
0.000255084
1.11924e-06
-1.47798e-08
0.000255067
-1.47916e-09
9.69116e-08
0.000255139
-2.27511e-07
-2.86559e-08
0.000255362
-8.87085e-07
1.13913e-07
0.000255274
-2.3701e-07
6.57131e-08
0.000255169
6.14534e-07
6.13735e-08
0.000255164
-4.26393e-07
7.94839e-08
0.000255206
-1.33494e-07
1.92938e-07
0.000255387
-7.13049e-07
1.17679e-08
0.000255255
-6.85833e-08
5.86735e-08
0.000255186
7.68349e-07
5.00103e-08
0.000255095
-4.31187e-07
6.56213e-08
0.00025522
1.386e-07
3.75528e-08
0.000255458
-1.31228e-06
2.25913e-07
0.000255223
6.92208e-07
9.86202e-08
5.96633e-07
2.46664e-07
0.000231875
2.0386e-07
3.15879e-07
0.000232163
-5.73639e-07
1.32959e-07
0.000232397
-1.78751e-06
1.82309e-07
0.000232352
3.72155e-07
-4.20223e-08
0.000232117
1.12825e-06
1.58136e-07
0.000231918
6.75559e-07
3.19975e-08
0.000232131
-5.28234e-07
-1.74556e-07
0.00023241
-1.23492e-06
-9.70246e-08
0.000232262
2.25074e-07
-1.3308e-07
0.000232079
1.53946e-06
-1.89285e-07
0.000231927
9.59667e-09
-9.29212e-08
0.000232083
-2.50481e-07
-9.02785e-08
0.000232412
-1.70493e-06
-1.98942e-07
0.000232213
2.19431e-07
2.70957e-08
0.000232137
1.15178e-06
-8.27918e-08
0.000231955
-4.09794e-08
1.30352e-07
0.000232156
-1.01471e-08
-1.42016e-07
0.000232367
-1.32802e-06
4.88911e-08
0.000232193
8.93521e-07
6.13474e-08
0.000232047
8.95088e-07
6.1579e-09
0.000231948
3.96292e-07
1.26712e-07
0.000232178
-7.79507e-07
-9.68059e-08
0.00023235
-7.08301e-07
9.46001e-08
0.000232221
2.17681e-07
1.15807e-08
0.000232009
1.44915e-06
-2.01478e-08
0.000231938
7.9639e-08
1.55894e-07
0.000232069
-3.80776e-07
-3.30989e-08
0.000232326
-1.29499e-06
1.60718e-07
0.00023222
-2.64956e-07
8.60479e-08
0.000232106
6.7369e-07
7.98416e-08
0.000232049
-4.57036e-07
1.42971e-07
0.000232157
-2.81252e-07
2.42788e-07
0.000232338
-1.04246e-06
4.43975e-08
0.000232201
-5.91675e-08
8.37268e-08
0.000232123
8.40086e-07
5.7817e-08
0.000231959
-4.02122e-07
1.16223e-07
0.000232194
-7.34618e-08
5.97257e-08
0.000232415
-1.7692e-06
2.82754e-07
0.000232183
8.41885e-07
1.47746e-07
7.25644e-07
3.16906e-07
0.000210801
3.56775e-07
4.31658e-07
0.000211189
-1.043e-06
1.76088e-07
0.000211437
-2.36532e-06
2.08306e-07
0.000211434
2.32706e-07
-1.47103e-08
0.000211095
1.51939e-06
2.12746e-07
0.000210852
9.48858e-07
1.05941e-07
0.000211152
-9.29687e-07
-2.10382e-07
0.000211453
-1.76098e-06
-8.61008e-08
0.000211317
1.52074e-07
-1.12026e-07
0.000211067
1.89448e-06
-1.86889e-07
0.000210845
1.39509e-07
-4.30536e-08
0.00021111
-6.95355e-07
-8.03969e-08
0.000211452
-2.44193e-06
-1.70058e-07
0.000211269
1.78316e-07
6.44463e-08
0.000211138
1.43249e-06
-3.77797e-08
0.000210886
8.7938e-08
2.25719e-07
0.000211203
-3.83881e-07
-1.45491e-07
0.000211397
-1.77565e-06
1.07324e-07
0.00021125
1.0448e-06
1.1513e-07
0.000211026
1.20837e-06
3.37651e-08
0.000210892
6.1333e-07
1.71012e-07
0.000211214
-1.22235e-06
-1.16303e-07
0.000211396
-1.10837e-06
1.43558e-07
0.000211268
2.26686e-07
4.73064e-08
0.000211002
1.87763e-06
-1.51464e-08
0.000210873
1.97242e-07
2.49575e-07
0.00021108
-6.5015e-07
-2.79236e-08
0.000211361
-1.81899e-06
2.20283e-07
0.000211253
-3.64341e-07
1.20526e-07
0.000211111
7.24932e-07
1.12108e-07
0.000211005
-4.93081e-07
2.40407e-07
0.000211188
-5.43068e-07
3.10586e-07
0.000211361
-1.45996e-06
9.52546e-08
0.00021124
-1.36978e-07
1.2172e-07
0.000211121
9.39379e-07
7.54556e-08
0.000210896
-3.7546e-07
1.98975e-07
0.000211241
-4.32502e-07
9.04533e-08
0.000211442
-2.34294e-06
3.55276e-07
0.000211242
8.78321e-07
2.1976e-07
9.33277e-07
3.99279e-07
0.00019163
4.65173e-07
6.04246e-07
0.000192092
-1.68146e-06
2.22633e-07
0.000192374
-3.14796e-06
2.2649e-07
0.000192412
-8.29373e-08
3.17084e-08
0.000191956
2.03193e-06
3.03547e-07
0.000191686
1.20002e-06
2.44835e-07
0.000192056
-1.47598e-06
-2.43871e-07
0.000192396
-2.50092e-06
-5.91867e-08
0.000192275
-7.05404e-08
-5.25305e-08
0.000191939
2.33767e-06
-1.43062e-07
0.000191659
2.58857e-07
6.94483e-08
0.000192025
-1.3612e-06
-5.93102e-08
0.00019239
-3.45015e-06
-1.26352e-07
0.000192234
9.85626e-09
1.23157e-07
0.000192017
1.8534e-06
4.86398e-08
0.000191719
1.98673e-07
3.63641e-07
0.000192137
-9.56836e-07
-1.38492e-07
0.000192323
-2.36835e-06
1.79232e-07
0.000192208
1.11046e-06
2.05709e-07
0.000191883
1.66887e-06
9.10674e-08
0.000191737
8.30681e-07
2.46895e-07
0.000192139
-1.82993e-06
-1.33155e-07
0.00019234
-1.67659e-06
1.95266e-07
0.000192224
1.49225e-07
1.05893e-07
0.000191876
2.44398e-06
1.9426e-08
0.000191701
3.22537e-07
3.98888e-07
0.000191988
-1.06383e-06
-1.72353e-08
0.000192289
-2.49165e-06
2.78078e-07
0.00019219
-5.71555e-07
1.74543e-07
0.000192002
7.78055e-07
1.80177e-07
0.000191859
-5.78578e-07
3.94655e-07
0.000192107
-9.41808e-07
3.96966e-07
0.000192275
-2.01284e-06
1.57007e-07
0.00019218
-3.39637e-07
1.81809e-07
0.000191999
1.08508e-06
1.28763e-07
0.000191735
-4.13303e-07
3.37214e-07
0.00019217
-9.50386e-07
1.26107e-07
0.000192368
-3.10198e-06
4.35113e-07
0.000192204
7.56188e-07
3.16196e-07
1.24592e-06
5.107e-07
0.000174232
4.90572e-07
8.9064e-07
0.000174716
-2.50749e-06
2.29916e-07
0.000175051
-4.24315e-06
1.67915e-07
0.000175119
-6.11442e-07
8.84948e-08
0.000174571
2.6421e-06
5.17465e-07
0.000174291
1.3815e-06
5.18556e-07
0.000174696
-2.18816e-06
-2.83466e-07
0.000175091
-3.56426e-06
-5.35022e-08
0.000174978
-4.62819e-07
3.92731e-08
0.00017457
2.87209e-06
2.78956e-08
0.000174257
3.15382e-07
3.26946e-07
0.000174681
-2.26944e-06
-4.91909e-08
0.000175076
-4.83741e-06
-1.33338e-07
0.000174938
-2.93368e-07
1.86651e-07
0.000174651
2.43137e-06
2.53622e-07
0.00017434
2.40979e-07
6.10007e-07
0.000174811
-1.73927e-06
-1.43336e-07
0.000174997
-3.18668e-06
2.17989e-07
0.000174903
1.08182e-06
3.33677e-07
0.000174494
2.27122e-06
2.50822e-07
0.000174361
9.93381e-07
4.19443e-07
0.000174809
-2.62728e-06
-1.63659e-07
0.000175042
-2.49795e-06
1.9681e-07
0.000174923
-8.51888e-09
1.73404e-07
0.000174499
3.15345e-06
1.63218e-07
0.000174302
4.15143e-07
6.65649e-07
0.000174637
-1.62609e-06
-2.49924e-08
0.000174963
-3.37088e-06
2.77965e-07
0.000174871
-9.08571e-07
2.46602e-07
0.000174649
8.14422e-07
3.69701e-07
0.000174488
-7.63593e-07
6.75759e-07
0.000174757
-1.47643e-06
4.82216e-07
0.000174931
-2.778e-06
1.78732e-07
0.000174854
-6.87918e-07
2.66783e-07
0.000174632
1.25243e-06
3.16641e-07
0.000174356
-5.79838e-07
6.05854e-07
0.00017483
-1.64272e-06
1.45683e-07
0.00017505
-4.16153e-06
4.70578e-07
0.00017491
4.5188e-07
4.20289e-07
1.65669e-06
7.25953e-07
0.00015853
4.67574e-07
1.46295e-06
0.000158912
-3.49614e-06
5.59852e-08
0.000159288
-5.84315e-06
-2.04891e-07
0.000159407
-1.45386e-06
1.28205e-07
0.000158868
3.2764e-06
1.12257e-06
0.000158585
1.49593e-06
1.1253e-06
0.000158936
-3.06663e-06
-3.74287e-07
0.000159373
-5.13729e-06
-2.1896e-07
0.000159285
-1.08193e-06
1.3714e-07
0.000158911
3.43886e-06
5.79455e-07
0.000158588
2.91003e-07
9.53476e-07
0.000158943
-3.3744e-06
-1.27764e-07
0.000159329
-6.7334e-06
-4.24931e-07
0.000159227
-7.89166e-07
1.95202e-07
0.000158984
3.08653e-06
8.18928e-07
0.000158685
1.9896e-07
1.17231e-06
0.000159094
-2.68956e-06
-2.35593e-07
0.000159267
-4.38948e-06
4.94891e-08
0.000159211
8.79922e-07
4.73494e-07
0.000158813
2.93181e-06
7.4909e-07
0.000158696
1.07003e-06
8.83194e-07
0.000159103
-3.63652e-06
-2.61217e-07
0.000159363
-3.73411e-06
-1.20736e-08
0.000159233
-2.6326e-07
1.97641e-07
0.000158808
3.93781e-06
6.59622e-07
0.0001586
4.684e-07
1.23624e-06
0.000158887
-2.29567e-06
-1.26837e-07
0.000159229
-4.59974e-06
5.46765e-08
0.000159161
-1.46231e-06
3.15626e-07
0.00015898
7.55331e-07
9.3786e-07
0.000158809
-1.02896e-06
1.29176e-06
0.000158993
-2.07652e-06
4.95376e-07
0.000159175
-3.92418e-06
-2.05792e-08
0.000159133
-1.27164e-06
3.61962e-07
0.000158962
1.3439e-06
9.27059e-07
0.00015868
-8.80459e-07
1.22781e-06
0.000159084
-2.51333e-06
8.01803e-08
0.000159339
-5.7423e-06
2.9871e-07
0.000159245
-9.95099e-08
4.92278e-07
2.09958e-06
1.28787e-06
0.000144307
5.93542e-07
2.57657e-06
0.000144388
-4.63419e-06
-5.55511e-07
0.000144689
-8.26819e-06
-1.31777e-06
0.000144956
-2.87392e-06
2.15187e-07
0.0001446
3.8667e-06
2.69514e-06
0.000144304
1.69172e-06
2.35419e-06
0.000144443
-4.10987e-06
-7.11969e-07
0.000144803
-7.53534e-06
-8.48264e-07
0.000144885
-2.18555e-06
2.89532e-07
0.00014478
3.92211e-06
2.02568e-06
0.000144428
3.59813e-07
2.31119e-06
0.000144451
-4.521e-06
-5.41999e-07
0.000144691
-9.32246e-06
-1.4385e-06
0.000144804
-1.7596e-06
1.44847e-07
0.000144826
3.62148e-06
2.28619e-06
0.000144489
2.13021e-07
2.39167e-06
0.000144666
-3.71951e-06
-6.51605e-07
0.0001448
-6.2923e-06
-7.38326e-07
0.000144928
1.52559e-07
6.38112e-07
0.000144719
3.49389e-06
2.08166e-06
0.000144519
1.17508e-06
1.94373e-06
0.000144699
-4.84079e-06
-6.28973e-07
0.000144956
-5.63017e-06
-8.54724e-07
0.000144943
-8.46131e-07
1.47902e-07
0.000144655
4.67531e-06
2.03143e-06
0.000144347
6.37097e-07
2.39947e-06
0.000144426
-3.01138e-06
-5.46764e-07
0.000144746
-6.48474e-06
-7.6392e-07
0.000144799
-2.53128e-06
3.91512e-07
0.000144756
5.41001e-07
2.39295e-06
0.000144519
-1.11777e-06
2.58017e-06
0.000144492
-2.67375e-06
2.00514e-07
0.000144679
-5.79223e-06
-9.00378e-07
0.000144804
-2.42056e-06
4.71098e-07
0.000144794
1.2613e-06
2.51195e-06
0.000144453
-1.10879e-06
2.5134e-06
0.000144608
-3.57845e-06
-2.66536e-07
0.000144839
-8.19507e-06
-4.29626e-07
0.000144961
-1.18727e-06
5.51491e-07
2.47933e-06
2.70597e-06
0.000130808
9.50359e-07
3.98369e-06
0.000130465
-6.07508e-06
-2.15693e-06
0.000130276
-1.15699e-05
-3.18338e-06
0.000130807
-4.919e-06
9.18862e-07
0.000130791
4.42069e-06
5.82854e-06
0.000130586
1.92242e-06
3.94035e-06
0.000130382
-5.55081e-06
-1.81671e-06
0.000130275
-1.07957e-05
-2.05899e-06
0.000130835
-3.95506e-06
8.95796e-07
0.000131271
4.24526e-06
4.93785e-06
0.000130909
6.31268e-07
4.22346e-06
0.000130376
-5.75617e-06
-1.87598e-06
0.00013016
-1.25629e-05
-3.34219e-06
0.000130844
-3.44966e-06
5.37835e-07
0.000131282
3.91213e-06
5.30408e-06
0.00013085
4.11107e-07
4.11281e-06
0.00013075
-4.96459e-06
-1.94034e-06
0.000130715
-9.15822e-06
-2.31749e-06
0.000131297
-1.40452e-06
1.20491e-06
0.000131455
3.85502e-06
4.74462e-06
0.000131022
1.43029e-06
3.42765e-06
0.000130767
-6.29236e-06
-1.82168e-06
0.0001309
-8.36663e-06
-2.50403e-06
0.000131328
-2.04037e-06
3.52065e-07
0.000131259
5.31741e-06
4.86119e-06
0.000130748
1.04799e-06
3.96076e-06
0.000130536
-3.98185e-06
-1.78842e-06
0.000130617
-9.27195e-06
-2.32509e-06
0.000130928
-4.33717e-06
8.31639e-07
0.00013101
3.17231e-07
5.23397e-06
0.000130708
-7.59106e-07
4.37498e-06
0.000130513
-3.56257e-06
-9.55737e-07
0.000130597
-8.75663e-06
-2.72774e-06
0.0001311
-4.43256e-06
9.28073e-07
0.000131229
1.10177e-06
5.5323e-06
0.000130832
-1.0676e-06
4.12734e-06
0.000130611
-5.06462e-06
-1.47156e-06
0.000130517
-1.1565e-05
-1.92581e-06
0.000131191
-3.04581e-06
1.01374e-06
2.80347e-06
5.49634e-06
0.000117139
7.15222e-07
4.19081e-06
0.000116341
-8.17244e-06
-5.00143e-06
0.000115048
-1.4719e-05
-4.61237e-06
0.00011579
-6.57092e-06
3.32788e-06
0.000116249
4.65395e-06
9.90898e-06
0.000116567
1.20906e-06
4.22827e-06
0.000115921
-7.77486e-06
-4.14042e-06
0.000114834
-1.39397e-05
-3.05998e-06
0.000116044
-5.52864e-06
2.85336e-06
0.000117087
4.26733e-06
8.90851e-06
0.000117044
3.28877e-07
5.01301e-06
0.000116003
-7.5867e-06
-4.66388e-06
0.000114956
-1.55815e-05
-5.06076e-06
0.000116291
-4.99242e-06
2.60655e-06
0.000117058
3.86771e-06
9.50409e-06
0.000116876
8.60076e-08
4.73592e-06
0.000116611
-6.87332e-06
-4.5833e-06
0.000115965
-1.22031e-05
-3.77883e-06
0.000117042
-3.12818e-06
3.10068e-06
0.000117659
3.87711e-06
8.26122e-06
0.000117224
1.15701e-06
3.8765e-06
0.000116509
-8.2342e-06
-4.35549e-06
0.000116201
-1.11563e-05
-4.16667e-06
0.000117168
-3.17052e-06
1.8648e-06
0.000117324
5.69729e-06
8.80327e-06
0.000116957
9.62813e-07
4.46355e-06
0.000116489
-5.72725e-06
-4.24849e-06
0.000115815
-1.22553e-05
-3.76048e-06
0.000116305
-6.10482e-06
2.58004e-06
0.000116503
1.98848e-07
8.96643e-06
0.000116565
-6.50048e-07
5.0983e-06
0.000116373
-5.38483e-06
-3.69663e-06
0.000115929
-1.21783e-05
-4.69845e-06
0.00011672
-6.46241e-06
2.69659e-06
0.000116951
9.03859e-07
9.31735e-06
0.000116931
-1.46998e-06
4.30006e-06
0.000116296
-7.33915e-06
-4.0638e-06
0.000115374
-1.4851e-05
-3.33804e-06
0.000116727
-4.76649e-06
2.87246e-06
3.00287e-06
9.19164e-06
0.000103363
-1.05486e-06
1.60486e-06
0.000101784
-1.02631e-05
-8.03469e-06
9.92116e-05
-1.60473e-05
-3.86895e-06
0.00010014
-7.06331e-06
7.2148e-06
0.000101404
3.5635e-06
1.22105e-05
0.000102543
-1.26045e-06
1.53375e-06
0.000101087
-1.00296e-05
-6.78314e-06
9.89912e-05
-1.54091e-05
-2.40217e-06
0.000100757
-6.08635e-06
6.1218e-06
0.000102404
3.2717e-06
1.15311e-05
0.000103052
-1.541e-06
2.73208e-06
0.000101413
-9.66503e-06
-7.99111e-06
9.94676e-05
-1.68485e-05
-4.63547e-06
0.000101176
-5.49171e-06
6.5068e-06
0.000102308
2.80932e-06
1.23229e-05
0.000102915
-1.75103e-06
2.35898e-06
0.000102206
-8.90428e-06
-7.69416e-06
0.000100553
-1.36935e-05
-3.36958e-06
0.000101952
-4.06013e-06
6.36039e-06
0.000103174
2.91125e-06
1.03389e-05
0.00010322
-5.91817e-07
1.63234e-06
0.000101983
-1.01072e-05
-7.38951e-06
0.000100952
-1.23592e-05
-4.0614e-06
0.000102154
-3.40416e-06
5.08776e-06
0.000102785
4.97602e-06
1.1625e-05
0.000103152
-6.79129e-07
2.29016e-06
0.000102131
-7.82161e-06
-6.99964e-06
0.000100365
-1.39003e-05
-3.41013e-06
0.000100912
-6.87622e-06
5.75175e-06
0.000101578
-4.28464e-07
1.13108e-05
0.000102562
-1.99815e-06
2.91976e-06
0.000102053
-7.7798e-06
-7.24636e-06
0.000100631
-1.42631e-05
-4.87393e-06
0.000101448
-7.34453e-06
5.95273e-06
0.000102155
-1.26969e-08
1.13556e-05
0.000102984
-3.24297e-06
1.4081e-06
0.000101627
-9.67456e-06
-7.07797e-06
9.97546e-05
-1.63587e-05
-3.0119e-06
0.000101598
-5.43429e-06
6.19778e-06
2.33266e-06
1.1447e-05
8.97943e-05
-3.8987e-06
-2.95132e-06
8.70364e-05
-1.07631e-05
-9.16655e-06
8.37548e-05
-1.50827e-05
-7.22039e-07
8.51841e-05
-7.04136e-06
1.0076e-05
8.74895e-05
6.54025e-07
1.0268e-05
8.89259e-05
-4.72586e-06
-3.10978e-06
8.63191e-05