/*--------------------------------*- C++ -*----------------------------------*\
  =========                 |
  \\      /  F ield         | OpenFOAM: The Open Source CFD Toolbox
   \\    /   O peration     | Website:  https://openfoam.org
    \\  /    A nd           | Version:  10
     \\/     M anipulation  |
\*---------------------------------------------------------------------------*/
FoamFile
{
    format      ascii;
    class       volScalarField;
    location    "13";
    object      pMean;
}
// * * * * * * * * * * * * * * * * * * * * * * * * * * * * * * * * * * * * * //

dimensions      [0 2 -2 0 0 0 0];

internalField   nonuniform List<scalar> 
25600
(
5.25339e-08
-8.98723e-07
-1.53404e-07
-1.99567e-07
-3.38135e-07
-1.62143e-07
-1.80506e-07
-9.62952e-08
-3.80001e-08
2.12106e-08
7.1885e-08
1.21837e-07
1.56082e-07
1.87701e-07
1.83927e-07
1.71758e-07
1.47846e-07
1.01961e-07
5.70038e-08
-9.24673e-09
-7.93171e-08
-1.45648e-07
-2.23639e-07
-2.83099e-07
-3.58733e-07
-4.12685e-07
-4.47828e-07
-4.74425e-07
-4.78314e-07
-4.96107e-07
-4.90888e-07
-4.97452e-07
-4.94151e-07
-5.04084e-07
-4.74208e-07
-5.60964e-07
-4.15911e-07
-4.31974e-07
-1.11809e-06
-1.94327e-08
-4.48894e-08
-9.53028e-07
-2.28466e-07
-2.55739e-07
-4.07439e-07
-2.12404e-07
-2.20397e-07
-1.13632e-07
-3.55762e-08
3.91974e-08
1.02688e-07
1.63701e-07
1.99124e-07
2.38568e-07
2.23914e-07
2.10176e-07
1.80995e-07
1.26766e-07
7.97698e-08
-8.22022e-11
-7.1284e-08
-1.3969e-07
-2.21893e-07
-2.76638e-07
-3.5923e-07
-4.06349e-07
-4.31234e-07
-4.54148e-07
-4.48989e-07
-4.63814e-07
-4.48325e-07
-4.48372e-07
-4.56028e-07
-4.58439e-07
-4.59148e-07
-5.3882e-07
-4.20767e-07
-4.27512e-07
-1.10295e-06
-1.37106e-07
-1.94744e-07
-1.04268e-06
-3.31827e-07
-3.48196e-07
-5.04276e-07
-2.79591e-07
-2.75984e-07
-1.35827e-07
-3.72082e-08
5.29694e-08
1.32074e-07
2.08956e-07
2.43373e-07
2.93771e-07
2.55301e-07
2.49953e-07
2.14534e-07
1.4876e-07
1.02983e-07
-3.74716e-09
-6.33897e-08
-1.40683e-07
-2.23472e-07
-2.75081e-07
-3.72309e-07
-4.03419e-07
-4.14407e-07
-4.37203e-07
-4.24435e-07
-4.38806e-07
-4.07957e-07
-4.01714e-07
-4.17774e-07
-4.20136e-07
-4.51486e-07
-5.20716e-07
-3.97356e-07
-4.15512e-07
-1.01392e-06
-1.38982e-07
-2.87319e-07
-1.12854e-06
-4.26453e-07
-4.53135e-07
-6.06371e-07
-3.41455e-07
-3.32865e-07
-1.48321e-07
-3.95009e-08
7.06507e-08
1.68749e-07
2.68943e-07
2.97464e-07
3.58227e-07
2.79141e-07
2.98064e-07
2.49416e-07
1.70345e-07
1.24577e-07
-2.18523e-08
-5.08655e-08
-1.46792e-07
-2.24685e-07
-2.74566e-07
-3.94712e-07
-3.87031e-07
-3.91347e-07
-4.21125e-07
-4.01267e-07
-4.17594e-07
-3.59497e-07
-3.49871e-07
-3.87399e-07
-3.85472e-07
-4.70675e-07
-4.95251e-07
-4.03108e-07
-4.02576e-07
-1.03339e-06
-2.23131e-07
-3.66623e-07
-1.22015e-06
-5.26148e-07
-5.88031e-07
-7.20551e-07
-4.02981e-07
-3.97025e-07
-1.50239e-07
-5.09318e-08
9.62458e-08
2.14607e-07
3.45347e-07
3.51351e-07
4.16186e-07
2.83808e-07
3.50595e-07
2.773e-07
1.8386e-07
1.3201e-07
-6.59638e-08
-3.11357e-08
-1.65444e-07
-2.17985e-07
-2.82395e-07
-4.21301e-07
-3.41458e-07
-3.59749e-07
-4.06928e-07
-3.87371e-07
-4.02615e-07
-3.01699e-07
-2.94428e-07
-3.64952e-07
-3.61711e-07
-5.10958e-07
-4.54144e-07
-4.08533e-07
-3.65237e-07
-1.06336e-06
-2.8796e-07
-4.53996e-07
-1.32011e-06
-6.27297e-07
-7.60836e-07
-8.39853e-07
-4.61328e-07
-4.63885e-07
-1.37704e-07
-8.38804e-08
1.38246e-07
2.69743e-07
4.49619e-07
4.02111e-07
4.58e-07
2.71147e-07
4.11233e-07
2.98639e-07
1.86765e-07
1.13654e-07
-1.38867e-07
2.71886e-10
-1.97846e-07
-1.9603e-07
-3.06024e-07
-4.38114e-07
-2.49228e-07
-3.20405e-07
-3.95e-07
-3.87874e-07
-3.89231e-07
-2.25012e-07
-2.31838e-07
-3.5703e-07
-3.55133e-07
-5.75559e-07
-3.88397e-07
-4.14947e-07
-3.01255e-07
-1.12874e-06
-3.68316e-07
-5.43245e-07
-1.41597e-06
-7.36397e-07
-9.8424e-07
-9.55713e-07
-5.1811e-07
-5.26138e-07
-1.13877e-07
-1.48867e-07
2.10793e-07
3.27677e-07
5.9803e-07
4.37286e-07
4.70397e-07
2.42942e-07
4.74103e-07
3.15171e-07
1.68294e-07
5.30237e-08
-2.46867e-07
4.01034e-08
-2.45722e-07
-1.49089e-07
-3.56415e-07
-4.20777e-07
-9.63196e-08
-2.73978e-07
-3.8872e-07
-4.09676e-07
-3.71546e-07
-1.26784e-07
-1.50233e-07
-3.75321e-07
-3.71699e-07
-6.5767e-07
-2.9238e-07
-4.16837e-07
-2.12436e-07
-1.24115e-06
-4.36055e-07
-6.4184e-07
-1.49698e-06
-8.70462e-07
-1.27476e-06
-1.05827e-06
-5.72664e-07
-5.70562e-07
-9.66102e-08
-2.54393e-07
3.25211e-07
3.7992e-07
8.16153e-07
4.38502e-07
4.47928e-07
2.03935e-07
5.31146e-07
3.34463e-07
1.08563e-07
-6.48517e-08
-3.87158e-07
9.01621e-08
-3.0443e-07
-8.12893e-08
-4.42319e-07
-3.35342e-07
1.27379e-07
-2.12695e-07
-3.9588e-07
-4.63613e-07
-3.35258e-07
5.02001e-09
-3.76759e-08
-4.34753e-07
-4.14716e-07
-7.55129e-07
-1.61469e-07
-4.02219e-07
-1.12674e-07
-1.40874e-06
-4.76352e-07
-7.50756e-07
-1.53599e-06
-1.04717e-06
-1.63712e-06
-1.1418e-06
-6.24523e-07
-5.83539e-07
-1.16697e-07
-4.04343e-07
4.91488e-07
4.21176e-07
1.14076e-06
3.73e-07
3.93616e-07
1.57393e-07
5.76656e-07
3.69425e-07
-2.13821e-08
-2.49771e-07
-5.63136e-07
1.50742e-07
-3.66786e-07
-5.46611e-09
-5.65339e-07
-1.48341e-07
4.22639e-07
-1.23353e-07
-4.26491e-07
-5.58229e-07
-2.69475e-07
1.77509e-07
1.28955e-07
-5.52016e-07
-4.7625e-07
-8.74342e-07
1.7296e-09
-3.66413e-07
-3.00264e-08
-1.63627e-06
-4.78463e-07
-8.62811e-07
-1.51887e-06
-1.29472e-06
-2.0667e-06
-1.19694e-06
-6.61907e-07
-5.64805e-07
-2.09264e-07
-5.87848e-07
7.14587e-07
4.54807e-07
1.59588e-06
2.04349e-07
3.17063e-07
8.80146e-08
6.04414e-07
4.38538e-07
-2.54257e-07
-4.997e-07
-7.7566e-07
2.43297e-07
-4.29945e-07
5.6509e-08
-7.11497e-07
1.82775e-07
8.03227e-07
8.12533e-09
-4.95487e-07
-6.91776e-07
-1.56831e-07
4.08288e-07
3.76096e-07
-7.46514e-07
-5.45633e-07
-1.01567e-06
2.16214e-07
-2.94758e-07
1.03297e-08
-1.91236e-06
-4.39731e-07
-9.5676e-07
-1.44343e-06
-1.6488e-06
-2.54147e-06
-1.20838e-06
-6.66662e-07
-5.3104e-07
-4.08262e-07
-7.81039e-07
9.92392e-07
5.02795e-07
2.19374e-06
-1.01365e-07
2.51974e-07
-1.93009e-08
6.09994e-07
5.42563e-07
-6.13457e-07
-8.01538e-07
-1.03479e-06
3.83567e-07
-5.03025e-07
9.35712e-08
-8.60221e-07
6.78821e-07
1.28466e-06
1.92719e-07
-6.1487e-07
-8.53764e-07
1.11737e-08
7.24727e-07
7.16905e-07
-1.02876e-06
-5.99258e-07
-1.21462e-06
4.87865e-07
-1.93429e-07
-6.5944e-09
-2.2064e-06
-3.55207e-07
-1.00933e-06
-1.32749e-06
-2.12142e-06
-3.04925e-06
-1.16694e-06
-6.18972e-07
-5.14256e-07
-7.25072e-07
-9.59581e-07
1.32427e-06
5.75443e-07
2.91262e-06
-5.7002e-07
2.32075e-07
-1.55232e-07
6.29843e-07
6.71283e-07
-1.11505e-06
-1.13875e-06
-1.33414e-06
6.00525e-07
-6.18249e-07
1.01243e-07
-9.78935e-07
1.37221e-06
1.888e-06
4.2743e-07
-8.0069e-07
-1.01418e-06
2.63624e-07
1.15545e-06
1.15582e-06
-1.39218e-06
-5.86998e-07
-1.45918e-06
8.29771e-07
-9.78661e-08
-1.05556e-07
-2.47262e-06
-2.13564e-07
-9.86179e-07
-1.20852e-06
-2.70023e-06
-3.55986e-06
-1.04192e-06
-5.20371e-07
-5.54873e-07
-1.15109e-06
-1.1134e-06
1.73305e-06
6.80455e-07
3.7145e-06
-1.20212e-06
2.60812e-07
-3.19189e-07
6.99947e-07
8.04175e-07
-1.72874e-06
-1.5282e-06
-1.68244e-06
9.34364e-07
-8.09701e-07
1.04738e-07
-1.05342e-06
2.29784e-06
2.61658e-06
6.77551e-07
-1.05855e-06
-1.16474e-06
6.32681e-07
1.72941e-06
1.67477e-06
-1.81092e-06
-4.92465e-07
-1.73847e-06
1.27976e-06
-4.88639e-08
-2.80048e-07
-2.69418e-06
1.17439e-08
-8.85105e-07
-1.13648e-06
-3.36032e-06
-4.06337e-06
-7.60052e-07
-4.03977e-07
-6.96302e-07
-1.64703e-06
-1.25403e-06
2.26582e-06
7.95007e-07
4.53488e-06
-1.96023e-06
3.30669e-07
-4.80799e-07
8.04218e-07
9.19899e-07
-2.36372e-06
-1.94302e-06
-2.01577e-06
1.36639e-06
-1.14611e-06
1.3283e-07
-1.06698e-06
3.5169e-06
3.43888e-06
8.86164e-07
-1.38512e-06
-1.29514e-06
1.17403e-06
2.45704e-06
2.24492e-06
-2.22886e-06
-2.80167e-07
-1.99335e-06
1.82514e-06
-1.05169e-07
-4.7927e-07
-2.84278e-06
3.62432e-07
-7.9511e-07
-1.19837e-06
-4.099e-06
-4.54431e-06
-1.98784e-07
-3.92125e-07
-1.01495e-06
-2.20884e-06
-1.40979e-06
2.98858e-06
8.30745e-07
5.27555e-06
-2.86192e-06
4.22745e-07
-5.44324e-07
9.05918e-07
9.28487e-07
-2.98998e-06
-2.41884e-06
-2.20144e-06
1.79979e-06
-1.72284e-06
2.08873e-07
-1.07246e-06
5.13155e-06
4.24548e-06
9.17317e-07
-1.79561e-06
-1.45358e-06
1.96324e-06
3.3079e-06
2.8129e-06
-2.59335e-06
6.98142e-08
-2.10857e-06
2.39266e-06
-3.80961e-07
-7.00513e-07
-2.90029e-06
9.57728e-07
-8.43683e-07
-1.47518e-06
-5.04372e-06
-5.11195e-06
7.8029e-07
-6.6633e-07
-1.52824e-06
-2.88068e-06
-1.70423e-06
3.97617e-06
5.94081e-07
5.84419e-06
-3.98328e-06
4.27487e-07
-3.84587e-07
7.64146e-07
8.46325e-07
-3.56326e-06
-2.99534e-06
-2.03882e-06
2.04545e-06
-2.64471e-06
2.48669e-07
-1.15523e-06
7.25361e-06
4.83557e-06
6.24248e-07
-2.41468e-06
-1.66206e-06
3.10639e-06
4.13354e-06
3.26154e-06
-2.89937e-06
5.68723e-07
-1.93029e-06
2.81694e-06
-9.60957e-07
-1.02221e-06
-2.91872e-06
1.94248e-06
-1.40088e-06
-2.14243e-06
-6.42746e-06
-5.96212e-06
2.0902e-06
-1.55853e-06
-2.3587e-06
-3.85693e-06
-2.3445e-06
5.15854e-06
-2.76784e-07
5.97742e-06
-5.55664e-06
1.58989e-07
-3.36014e-08
1.16686e-07
4.1722e-07
-4.27834e-06
-3.81027e-06
-1.49741e-06
1.72748e-06
-4.05627e-06
1.14767e-07
-1.52178e-06
9.78582e-06
4.72774e-06
-2.84294e-07
-3.43048e-06
-2.22949e-06
4.60117e-06
4.65373e-06
3.4441e-06
-3.25604e-06
1.0646e-06
-1.42402e-06
2.72896e-06
-2.04799e-06
-1.66843e-06
-3.05331e-06
3.31654e-06
-2.96993e-06
-3.7708e-06
-8.92477e-06
-7.51904e-06
3.22545e-06
-3.7136e-06
-3.86102e-06
-5.52517e-06
-3.65134e-06
6.15224e-06
-2.36039e-06
5.14539e-06
-8.11306e-06
-7.17005e-07
1.74283e-07
-1.66691e-06
-4.32381e-07
-5.48236e-06
-5.05752e-06
-7.69778e-07
2.42505e-07
-6.30706e-06
-6.80268e-07
-2.39742e-06
1.23599e-05
3.25902e-06
-2.32294e-06
-5.42522e-06
-3.33251e-06
6.09403e-06
4.36231e-06
2.91003e-06
-4.10736e-06
1.31707e-06
-8.03902e-07
1.566e-06
-4.12246e-06
-3.17043e-06
-3.54314e-06
4.74084e-06
-6.62543e-06
-7.10642e-06
-1.32682e-05
-1.06456e-05
3.01845e-06
-8.21495e-06
-6.60337e-06
-8.35453e-06
-6.48675e-06
5.84082e-06
-6.71288e-06
2.72707e-06
-1.20586e-05
-2.94644e-06
-9.30809e-07
-5.54263e-06
-2.54575e-06
-7.7387e-06
-7.53429e-06
-8.08673e-07
-3.31891e-06
-9.86405e-06
-2.61573e-06
-4.74479e-06
1.3985e-05
-6.97565e-07
-6.25267e-06
-9.08718e-06
-6.0139e-06
6.91113e-06
2.41262e-06
1.05803e-06
-6.05474e-06
6.09369e-07
-9.58539e-07
-1.7193e-06
-7.9132e-06
-6.15713e-06
-5.20811e-06
5.23673e-06
-1.26974e-05
-1.23923e-05
-1.92438e-05
-1.53499e-05
5.77731e-07
-1.57902e-05
-1.0837e-05
-1.21833e-05
-1.11278e-05
3.40646e-06
-1.36677e-05
-1.32184e-06
-1.71784e-05
-6.70022e-06
-4.06653e-06
-1.22296e-05
-5.81184e-06
-1.05511e-05
-1.10754e-05
-2.43426e-06
-9.78198e-06
-1.50042e-05
-5.50949e-06
-8.18715e-06
1.37389e-05
-7.42817e-06
-1.23325e-05
-1.43381e-05
-9.66443e-06
6.34238e-06
-1.30393e-06
-2.32696e-06
-8.92694e-06
-8.83002e-07
-2.56452e-06
-7.6668e-06
-1.37311e-05
-1.08814e-05
-8.3697e-06
4.00407e-06
-2.06891e-05
-1.85883e-05
-2.51607e-05
-1.79179e-05
-1.51989e-07
-2.58742e-05
-1.6842e-05
-1.65377e-05
-1.50071e-05
2.34854e-06
-2.2471e-05
-6.2997e-06
-2.15214e-05
-9.46086e-06
-6.43557e-06
-2.14714e-05
-1.15232e-05
-1.43535e-05
-1.37793e-05
-2.49894e-06
-1.81973e-05
-2.14536e-05
-8.49243e-06
-1.07063e-05
1.49375e-05
-1.58845e-05
-1.94826e-05
-1.92025e-05
-1.28582e-05
7.88037e-06
-5.89225e-06
-6.2986e-06
-1.12158e-05
-6.10852e-07
-2.258e-06
-1.57359e-05
-2.14851e-05
-1.66503e-05
-1.09325e-05
4.08523e-06
-2.92451e-05
-2.46739e-05
-2.6357e-05
-1.11554e-05
4.84161e-06
-3.80842e-05
-2.30866e-05
-1.75222e-05
-1.05865e-05
8.28109e-06
-3.13025e-05
-1.15568e-05
-2.12829e-05
-2.30316e-06
-2.42707e-06
-3.3608e-05
-1.72791e-05
-1.44976e-05
-9.09692e-06
3.03882e-06
-2.81666e-05
-2.7834e-05
-8.3592e-06
-4.08102e-06
2.34799e-05
-2.40939e-05
-2.67766e-05
-1.97742e-05
-6.59492e-06
1.60364e-05
-1.0321e-05
-1.08515e-05
-9.41296e-06
8.52872e-06
3.67756e-06
-2.534e-05
-3.04751e-05
-1.95769e-05
-5.45354e-06
1.00903e-05
-3.90974e-05
-2.82702e-05
-1.63333e-05
1.35091e-05
1.57935e-05
-5.09028e-05
-2.70646e-05
-8.73075e-06
9.33788e-06
1.99648e-05
-4.04932e-05
-1.41944e-05
-9.17843e-06
2.01935e-05
5.13942e-06
-4.71462e-05
-2.46155e-05
-9.5016e-06
9.50965e-06
1.48921e-05
-3.81748e-05
-3.39162e-05
4.06666e-07
1.68433e-05
3.94747e-05
-3.16547e-05
-3.24401e-05
-1.08482e-05
1.2909e-05
3.05854e-05
-1.54481e-05
-1.46325e-05
1.36425e-06
3.2178e-05
1.45004e-05
-3.56362e-05
-3.86855e-05
-1.39897e-05
1.47999e-05
2.06883e-05
-4.78472e-05
-2.63249e-05
5.3178e-06
4.58355e-05
2.81077e-05
-6.17051e-05
-2.59135e-05
9.46641e-06
4.1401e-05
3.35919e-05
-4.87659e-05
-1.25364e-05
1.35769e-05
5.27097e-05
1.47839e-05
-6.30558e-05
-2.76044e-05
7.61149e-06
3.96546e-05
2.71706e-05
-4.76738e-05
-3.47624e-05
2.01568e-05
4.94396e-05
5.59342e-05
-3.90144e-05
-3.31873e-05
8.40028e-06
4.58025e-05
4.62288e-05
-2.22802e-05
-1.72551e-05
2.20758e-05
6.58301e-05
2.47695e-05
-4.67232e-05
-4.29315e-05
1.50955e-06
4.61603e-05
3.27477e-05
-5.61807e-05
-2.05202e-05
3.17039e-05
8.27633e-05
3.93154e-05
-7.21776e-05
-1.97336e-05
3.54147e-05
7.26755e-05
4.39776e-05
-5.62921e-05
-6.22605e-06
4.06683e-05
8.04159e-05
2.04242e-05
-7.56599e-05
-2.8499e-05
2.74061e-05
7.0237e-05
3.9776e-05
-5.74331e-05
-3.12994e-05
4.48135e-05
8.12532e-05
6.91436e-05
-4.63635e-05
-3.02527e-05
3.22309e-05
7.36424e-05
5.98616e-05
-2.98064e-05
-1.80377e-05
4.71837e-05
9.74574e-05
3.3675e-05
-5.75515e-05
-4.51324e-05
2.14225e-05
7.27071e-05
4.31792e-05
-6.19964e-05
-1.60272e-05
5.29306e-05
0.000106357
4.54789e-05
-7.56858e-05
-1.61386e-05
5.5408e-05
9.69607e-05
4.94086e-05
-6.19387e-05
3.02085e-07
6.1893e-05
0.000104159
2.4222e-05
-8.43862e-05
-2.98369e-05
4.59396e-05
9.49892e-05
4.58507e-05
-6.66419e-05
-2.95164e-05
6.51942e-05
0.000103841
7.89208e-05
-5.06305e-05
-2.54383e-05
5.17543e-05
9.67587e-05
6.89607e-05
-3.66201e-05
-1.8358e-05
6.62708e-05
0.000123388
3.5759e-05
-6.49572e-05
-4.52692e-05
3.78769e-05
9.85571e-05
4.85528e-05
-6.68184e-05
-1.31784e-05
6.45269e-05
0.000122215
4.86163e-05
-8.05298e-05
-1.35027e-05
6.82183e-05
0.000110167
5.00885e-05
-6.63957e-05
-7.91261e-07
7.17347e-05
0.000113387
2.43854e-05
-9.05907e-05
-3.00622e-05
5.55064e-05
0.000107663
4.89191e-05
-7.18531e-05
-2.86619e-05
7.72318e-05
0.000117189
8.11875e-05
-5.47155e-05
-2.66218e-05
6.27089e-05
0.000108119
7.04206e-05
-4.00812e-05
-2.03255e-05
7.54047e-05
0.000137494
3.45683e-05
-7.03961e-05
-4.29172e-05
4.70527e-05
0.000109722
5.03988e-05
-7.2098e-05
-1.476e-05
6.77329e-05
0.000125334
4.74108e-05
-8.67544e-05
-1.56206e-05
7.10036e-05
0.000114375
4.88788e-05
-7.3446e-05
-2.86053e-06
7.4222e-05
0.000115627
2.47e-05
-9.37577e-05
-3.62313e-05
5.66846e-05
0.000112389
4.87571e-05
-7.8787e-05
-3.15574e-05
8.00479e-05
0.000120764
8.03344e-05
-5.71136e-05
-2.77963e-05
6.47119e-05
0.000110279
7.02065e-05
-4.66149e-05
-2.4339e-05
7.71592e-05
0.000142499
3.20372e-05
-7.48559e-05
-4.73698e-05
4.90887e-05
0.000115665
4.96777e-05
-7.5182e-05
-1.69754e-05
6.60747e-05
0.000122717
4.59673e-05
-8.78131e-05
-1.6641e-05
6.89693e-05
0.000113285
4.58369e-05
-7.66386e-05
-5.57589e-06
7.19085e-05
0.000114626
2.25785e-05
-9.79989e-05
-3.87069e-05
5.39388e-05
0.000111164
4.78102e-05
-8.06742e-05
-3.47534e-05
7.77911e-05
0.000117369
7.83022e-05
-5.94178e-05
-2.96924e-05
6.11443e-05
0.00010818
6.86136e-05
-4.74568e-05
-2.73134e-05
7.45132e-05
0.000141971
2.91741e-05
-7.76278e-05
-4.68257e-05
4.67785e-05
0.000113523
4.78656e-05
-7.60459e-05
-1.6832e-05
6.34755e-05
0.000120143
4.33374e-05
-8.98797e-05
-1.6698e-05
6.70429e-05
0.000108791
4.32154e-05
-7.70036e-05
-6.19526e-06
6.97106e-05
0.000111059
2.05899e-05
-9.88536e-05
-3.97739e-05
5.19231e-05
0.000108945
4.57168e-05
-8.22707e-05
-3.63257e-05
7.57476e-05
0.000114655
7.60512e-05
-5.99034e-05
-3.02596e-05
5.87701e-05
0.000105513
6.62141e-05
-4.87722e-05
-2.81811e-05
7.25792e-05
0.000139576
2.63102e-05
-7.94628e-05
-4.75456e-05
4.49802e-05
0.000110798
4.54993e-05
-7.69679e-05
-1.68149e-05
6.28356e-05
0.00011768
4.1068e-05
-9.00414e-05
-1.6106e-05
6.65278e-05
0.000107376
4.08398e-05
-7.76974e-05
-5.4319e-06
6.88288e-05
0.000108575
1.78287e-05
-9.97092e-05
-3.89756e-05
5.10153e-05
0.00010707
4.34055e-05
-8.31229e-05
-3.51809e-05
7.51461e-05
0.00011275
7.38627e-05
-6.05782e-05
-3.0593e-05
5.74162e-05
0.000104206
6.45241e-05
-4.94384e-05
-2.82162e-05
7.21397e-05
0.000137415
2.38106e-05
-8.00222e-05
-4.7665e-05
4.4053e-05
0.000109819
4.29499e-05
-7.84932e-05
-1.6684e-05
6.2741e-05
0.000117277
3.96605e-05
-9.15325e-05
-1.5629e-05
6.68364e-05
0.000107143
3.93589e-05
-7.90415e-05
-4.97224e-06
6.89742e-05
0.000108134
1.63957e-05
-0.000101439
-3.87919e-05
5.11978e-05
0.000107357
4.20926e-05
-8.47825e-05
-3.44744e-05
7.53921e-05
0.00011253
7.29053e-05
-6.17142e-05
-3.10417e-05
5.7119e-05
0.000104429
6.37067e-05
-5.06047e-05
-2.84328e-05
7.25229e-05
0.000137101
2.2492e-05
-8.15366e-05
-4.83073e-05
4.4169e-05
0.000110208
4.12352e-05
3.89372e-08
-8.31816e-07
-1.05917e-07
-1.37649e-07
-2.77019e-07
-1.01758e-07
-1.2965e-07
-5.88297e-08
-7.95464e-09
4.92704e-08
9.81132e-08
1.41351e-07
1.67733e-07
1.95813e-07
1.96591e-07
1.87861e-07
1.60751e-07
1.09987e-07
6.38292e-08
3.90299e-09
-5.82356e-08
-1.19641e-07
-1.98794e-07
-2.58902e-07
-3.32798e-07
-3.88928e-07
-4.35829e-07
-4.82459e-07
-4.97088e-07
-5.15279e-07
-5.0476e-07
-5.05856e-07
-4.9812e-07
-5.02225e-07
-4.58156e-07
-5.28909e-07
-3.63265e-07
-3.78994e-07
-9.85663e-07
3.28042e-08
2.36351e-08
-8.6461e-07
-1.64956e-07
-1.75778e-07
-3.30725e-07
-1.47732e-07
-1.78536e-07
-9.19745e-08
-1.67492e-08
6.03527e-08
1.25388e-07
1.81606e-07
2.11376e-07
2.50803e-07
2.45947e-07
2.34992e-07
1.98915e-07
1.39072e-07
9.41705e-08
2.37146e-08
-3.90905e-08
-1.0829e-07
-1.93571e-07
-2.49989e-07
-3.32178e-07
-3.92631e-07
-4.40737e-07
-4.9094e-07
-4.9019e-07
-4.962e-07
-4.6977e-07
-4.62629e-07
-4.56765e-07
-4.44886e-07
-4.14343e-07
-4.75339e-07
-3.37873e-07
-3.47298e-07
-9.66053e-07
-8.63067e-09
-4.51254e-08
-9.15109e-07
-2.30149e-07
-2.25857e-07
-3.90114e-07
-1.9805e-07
-2.40157e-07
-1.2881e-07
-2.24533e-08
7.73318e-08
1.58659e-07
2.27372e-07
2.58414e-07
3.18492e-07
3.00253e-07
2.90386e-07
2.35801e-07
1.62805e-07
1.27333e-07
3.99185e-08
-1.46029e-08
-1.01879e-07
-1.88786e-07
-2.39147e-07
-3.41918e-07
-4.06634e-07
-4.65129e-07
-5.21946e-07
-4.96293e-07
-4.83305e-07
-4.34405e-07
-4.18957e-07
-4.12114e-07
-3.74605e-07
-3.57912e-07
-4.01246e-07
-2.85501e-07
-3.09061e-07
-9.08083e-07
-2.18456e-08
-8.62701e-08
-9.6888e-07
-2.90525e-07
-2.82436e-07
-4.57229e-07
-2.60576e-07
-3.28457e-07
-1.73291e-07
-3.02108e-08
9.70845e-08
1.94421e-07
2.78621e-07
3.13718e-07
4.05314e-07
3.59483e-07
3.51955e-07
2.63939e-07
1.80277e-07
1.61566e-07
5.11489e-08
1.80478e-08
-1.03718e-07
-1.77966e-07
-2.22008e-07
-3.59919e-07
-4.28092e-07
-5.14304e-07
-5.76464e-07
-5.04187e-07
-4.73158e-07
-3.94165e-07
-3.72827e-07
-3.61167e-07
-2.79248e-07
-2.94976e-07
-3.09238e-07
-2.62219e-07
-2.7155e-07
-8.87151e-07
-4.81729e-08
-1.2583e-07
-1.03625e-06
-3.45756e-07
-3.45862e-07
-5.29378e-07
-3.40304e-07
-4.51483e-07
-2.1862e-07
-3.91346e-08
1.25139e-07
2.29593e-07
3.35892e-07
3.80183e-07
5.12406e-07
4.17489e-07
4.0852e-07
2.7045e-07
1.85767e-07
1.93677e-07
5.59315e-08
5.90476e-08
-1.23314e-07
-1.50853e-07
-1.98825e-07
-3.86387e-07
-4.59545e-07
-5.99489e-07
-6.52805e-07
-5.08446e-07
-4.64841e-07
-3.47352e-07
-3.23144e-07
-2.99581e-07
-1.56389e-07
-2.22528e-07
-2.01009e-07
-2.59071e-07
-2.14181e-07
-8.60298e-07
-5.15998e-08
-1.68953e-07
-1.11924e-06
-3.87678e-07
-4.16874e-07
-6.02599e-07
-4.48929e-07
-6.17621e-07
-2.61062e-07
-5.64676e-08
1.64824e-07
2.54473e-07
4.0503e-07
4.62533e-07
6.42867e-07
4.71645e-07
4.48407e-07
2.46372e-07
1.77645e-07
2.23084e-07
5.96187e-08
1.05838e-07
-1.68574e-07
-9.038e-08
-1.68267e-07
-4.12373e-07
-5.03933e-07
-7.28413e-07
-7.44913e-07
-5.03673e-07
-4.55323e-07
-2.93395e-07
-2.69467e-07
-2.20865e-07
-1.69375e-09
-1.43924e-07
-8.51603e-08
-2.92015e-07
-1.27613e-07
-8.37398e-07
-4.03046e-08
-2.20838e-07
-1.21131e-06
-4.05102e-07
-4.96672e-07
-6.73476e-07
-6.04169e-07
-8.26826e-07
-2.95288e-07
-8.68486e-08
2.28427e-07
2.55117e-07
4.96152e-07
5.60051e-07
7.96095e-07
5.15518e-07
4.49968e-07
1.84137e-07
1.51335e-07
2.51622e-07
6.40257e-08
1.47835e-07
-2.4087e-07
2.11183e-08
-1.29125e-07
-4.21785e-07
-5.74097e-07
-9.10937e-07
-8.41494e-07
-4.85836e-07
-4.4563e-07
-2.42881e-07
-2.1054e-07
-1.25461e-07
1.84355e-07
-6.4223e-08
2.31394e-08
-3.57795e-07
6.17667e-09
-8.0921e-07
1.27914e-08
-3.09028e-07
-1.308e-06
-3.91207e-07
-5.82537e-07
-7.3886e-07
-8.3188e-07
-1.07939e-06
-3.25685e-07
-1.33823e-07
3.25257e-07
2.08424e-07
6.23387e-07
6.63624e-07
9.76966e-07
5.39888e-07
3.86607e-07
7.93389e-08
1.0075e-07
2.90632e-07
7.33986e-08
1.6445e-07
-3.42235e-07
2.0374e-07
-7.49595e-08
-3.9229e-07
-6.90471e-07
-1.15032e-06
-9.29719e-07
-4.47185e-07
-4.27006e-07
-2.05538e-07
-1.5246e-07
-1.12528e-08
4.07466e-07
3.71441e-09
1.01383e-07
-4.48737e-07
2.0065e-07
-7.72033e-07
1.15099e-07
-4.57892e-07
-1.40277e-06
-3.38047e-07
-6.63028e-07
-8.00378e-07
-1.15452e-06
-1.37163e-06
-3.5721e-07
-1.83738e-07
4.58327e-07
8.52873e-08
8.03104e-07
7.57477e-07
1.19936e-06
5.21965e-07
2.17525e-07
-7.33886e-08
1.87915e-08
3.62504e-07
7.71915e-08
1.32e-07
-4.69707e-07
4.77337e-07
1.47538e-08
-3.06891e-07
-8.82386e-07
-1.44703e-06
-1.00275e-06
-3.70418e-07
-3.92957e-07
-2.10504e-07
-9.868e-08
1.14038e-07
6.76599e-07
4.09819e-08
1.28089e-07
-5.52449e-07
4.5619e-07
-6.97704e-07
2.79009e-07
-6.93734e-07
-1.49321e-06
-2.52409e-07
-7.21152e-07
-8.79176e-07
-1.59819e-06
-1.70642e-06
-4.0078e-07
-2.00421e-07
6.22811e-07
-1.55308e-07
1.04066e-06
8.1713e-07
1.48552e-06
4.3878e-07
-8.67921e-08
-3.02228e-07
-1.02811e-07
5.09711e-07
5.6683e-08
2.02997e-08
-6.36609e-07
8.59867e-07
1.76442e-07
-1.47736e-07
-1.19539e-06
-1.80871e-06
-1.059e-06
-2.22669e-07
-3.34662e-07
-2.87052e-07
-5.79118e-08
2.44821e-07
1.0079e-06
1.61408e-08
6.48702e-08
-6.77786e-07
7.66621e-07
-5.46814e-07
5.08961e-07
-1.0368e-06
-1.59498e-06
-1.2352e-07
-7.30582e-07
-1.00229e-06
-2.20122e-06
-2.11159e-06
-4.59012e-07
-1.4351e-07
8.03825e-07
-5.56569e-07
1.32156e-06
8.2579e-07
1.87419e-06
2.51177e-07
-5.55935e-07
-6.47488e-07
-2.67645e-07
7.76494e-07
-2.22486e-08
-2.07503e-07
-8.7607e-07
1.37742e-06
4.60483e-07
9.08188e-08
-1.68092e-06
-2.26421e-06
-1.10427e-06
4.2116e-08
-2.52376e-07
-4.81529e-07
-6.13801e-08
3.63655e-07
1.43087e-06
-9.31656e-08
-1.16337e-07
-8.65043e-07
1.12485e-06
-2.62707e-07
7.83759e-07
-1.4963e-06
-1.75889e-06
3.05593e-08
-6.61028e-07
-1.20467e-06
-2.99e-06
-2.63411e-06
-5.15079e-07
6.5357e-08
9.67456e-07
-1.16554e-06
1.59568e-06
7.63197e-07
2.39277e-06
-9.35979e-08
-1.23006e-06
-1.19557e-06
-4.58064e-07
1.22979e-06
-1.88014e-07
-5.98059e-07
-1.25296e-06
2.05853e-06
9.26666e-07
4.10271e-07
-2.40399e-06
-2.85056e-06
-1.13243e-06
4.96454e-07
-1.51987e-07
-8.45129e-07
-1.57693e-07
4.52165e-07
1.98981e-06
-3.28981e-07
-4.70287e-07
-1.18098e-06
1.53365e-06
2.23444e-07
1.08355e-06
-2.09796e-06
-2.09207e-06
2.1635e-07
-4.83662e-07
-1.5307e-06
-4.0104e-06
-3.36928e-06
-5.42682e-07
4.99912e-07
1.0732e-06
-2.03345e-06
1.7697e-06
6.15822e-07
3.08653e-06
-6.62056e-07
-2.1596e-06
-2.06793e-06
-6.69818e-07
1.92068e-06
-4.5372e-07
-1.24904e-06
-1.86523e-06
2.95953e-06
1.62546e-06
7.93784e-07
-3.46276e-06
-3.65253e-06
-1.1331e-06
1.21036e-06
-6.94254e-08
-1.45109e-06
-4.37663e-07
4.66486e-07
2.74567e-06
-7.23201e-07
-1.07246e-06
-1.73299e-06
2.00329e-06
9.82548e-07
1.39246e-06
-2.91863e-06
-2.79051e-06
4.63808e-07
-1.85265e-07
-2.03399e-06
-5.32975e-06
-4.43219e-06
-4.78637e-07
1.26649e-06
1.07435e-06
-3.24795e-06
1.69324e-06
3.65764e-07
3.98521e-06
-1.49875e-06
-3.4415e-06
-3.44534e-06
-8.59091e-07
2.93233e-06
-8.4011e-07
-2.29129e-06
-2.86043e-06
4.12977e-06
2.64091e-06
1.22929e-06
-5.00383e-06
-4.79026e-06
-1.08731e-06
2.30568e-06
-1.93071e-08
-2.37618e-06
-1.05249e-06
3.69839e-07
3.76935e-06
-1.34311e-06
-2.06611e-06
-2.67705e-06
2.56693e-06
2.07446e-06
1.70456e-06
-4.07652e-06
-4.07987e-06
7.63106e-07
2.35727e-07
-2.78588e-06
-7.07756e-06
-5.95458e-06
-2.81533e-07
2.43582e-06
9.11747e-07
-4.97637e-06
1.1687e-06
5.5805e-09
5.09425e-06
-2.72538e-06
-5.19779e-06
-5.52931e-06
-1.04179e-06
4.34281e-06
-1.41629e-06
-3.96343e-06
-4.36131e-06
5.59479e-06
4.04303e-06
1.63244e-06
-7.27824e-06
-6.44018e-06
-9.89778e-07
3.83772e-06
-1.01991e-07
-3.76814e-06
-2.2005e-06
8.89455e-08
5.11533e-06
-2.29054e-06
-3.64089e-06
-4.18402e-06
3.23742e-06
3.53331e-06
1.99847e-06
-5.84792e-06
-6.17746e-06
1.08021e-06
6.71618e-07
-3.95093e-06
-9.40247e-06
-8.04477e-06
7.0376e-08
4.05632e-06
4.53598e-07
-7.47633e-06
-7.22052e-08
-5.19058e-07
6.33459e-06
-4.43512e-06
-7.64779e-06
-8.65663e-06
-1.22716e-06
6.21445e-06
-2.30607e-06
-6.5394e-06
-6.53054e-06
7.29098e-06
5.85749e-06
1.90393e-06
-1.05577e-05
-8.77403e-06
-9.00608e-07
5.88953e-06
-3.72787e-07
-5.7897e-06
-4.12059e-06
-4.30001e-07
6.76187e-06
-3.76708e-06
-6.08437e-06
-6.44723e-06
3.96706e-06
5.34494e-06
2.18514e-06
-8.55193e-06
-9.48658e-06
1.21112e-06
9.45639e-07
-5.8249e-06
-1.24955e-05
-1.09323e-05
4.7293e-07
6.04326e-06
-5.30666e-07
-1.10329e-05
-2.39867e-06
-1.37811e-06
7.52825e-06
-6.97897e-06
-1.0975e-05
-1.31702e-05
-1.6562e-06
8.45919e-06
-3.79644e-06
-1.0306e-05
-9.64998e-06
8.98991e-06
7.92561e-06
1.74296e-06
-1.51499e-05
-1.21704e-05
-9.50037e-07
8.21385e-06
-1.12404e-06
-8.69857e-06
-7.18485e-06
-1.38372e-06
8.59335e-06
-6.12244e-06
-9.70831e-06
-9.74567e-06
4.53944e-06
7.45249e-06
2.08294e-06
-1.26796e-05
-1.45206e-05
7.3407e-07
5.17588e-07
-8.94395e-06
-1.6707e-05
-1.50843e-05
7.05967e-07
8.07451e-06
-2.58001e-06
-1.6062e-05
-6.42135e-06
-2.9756e-06
8.20464e-06
-1.06956e-05
-1.57798e-05
-1.97976e-05
-2.50458e-06
1.07665e-05
-6.31902e-06
-1.55364e-05
-1.42105e-05
1.03569e-05
9.95643e-06
7.59751e-07
-2.13727e-05
-1.71937e-05
-1.55515e-06
1.07606e-05
-2.68851e-06
-1.27391e-05
-1.18422e-05
-3.02398e-06
1.01801e-05
-9.91242e-06
-1.50046e-05
-1.46689e-05
4.55637e-06
9.44288e-06
1.24516e-06
-1.89943e-05
-2.26878e-05
-1.43577e-06
-1.61848e-06
-1.41768e-05
-2.25943e-05
-2.16388e-05
-2.48563e-07
9.20756e-06
-6.4307e-06
-2.32089e-05
-1.32133e-05
-6.17576e-06
7.43577e-06
-1.63557e-05
-2.21478e-05
-2.94245e-05
-4.85772e-06
1.21916e-05
-1.0718e-05
-2.27407e-05
-2.11849e-05
1.05517e-05
1.10958e-05
-1.92915e-06
-2.98652e-05
-2.49627e-05
-3.48629e-06
1.23107e-05
-5.79839e-06
-1.85371e-05
-1.91682e-05
-6.2054e-06
1.0656e-05
-1.59338e-05
-2.25439e-05
-2.22687e-05
2.96857e-06
1.05897e-05
-1.10948e-06
-2.88351e-05
-3.53974e-05
-6.98957e-06
-7.17498e-06
-2.24621e-05
-3.14367e-05
-3.19521e-05
-3.71944e-06
7.92286e-06
-1.28194e-05
-3.32189e-05
-2.3988e-05
-1.22776e-05
4.21927e-06
-2.4066e-05
-3.19078e-05
-4.32511e-05
-9.32041e-06
1.13601e-05
-1.78512e-05
-3.30124e-05
-3.16692e-05
8.62202e-06
1.02516e-05
-6.92747e-06
-4.14172e-05
-3.67985e-05
-7.99578e-06
1.23285e-05
-1.0957e-05
-2.66444e-05
-3.02911e-05
-1.23152e-05
8.72401e-06
-2.47095e-05
-3.35768e-05
-3.40847e-05
-1.78356e-06
9.04412e-06
-5.91608e-06
-4.29052e-05
-5.37267e-05
-1.61948e-05
-1.59174e-05
-3.34893e-05
-4.45707e-05
-4.76722e-05
-1.05036e-05
4.33096e-06
-2.14173e-05
-4.67653e-05
-3.87126e-05
-2.0877e-05
-9.14214e-07
-3.38202e-05
-4.41305e-05
-6.16848e-05
-1.68011e-05
7.82952e-06
-2.81702e-05
-4.74365e-05
-4.67997e-05
4.19523e-06
7.16398e-06
-1.4649e-05
-5.70377e-05
-5.33918e-05
-1.51034e-05
9.23835e-06
-1.82995e-05
-3.83402e-05
-4.57165e-05
-2.10799e-05
4.367e-06
-3.63001e-05
-4.89474e-05
-5.14546e-05
-1.07257e-05
4.84182e-06
-1.35301e-05
-6.11129e-05
-7.45413e-05
-2.61789e-05
-2.40053e-05
-4.59805e-05
-6.31198e-05
-6.71854e-05
-1.87118e-05
7.48039e-07
-3.06975e-05
-6.38285e-05
-5.59768e-05
-2.89899e-05
-3.31625e-06
-4.43803e-05
-6.27904e-05
-8.34656e-05
-2.38645e-05
5.50456e-06
-4.0452e-05
-6.69223e-05
-6.53036e-05
-7.66956e-07
5.55119e-06
-2.29361e-05
-7.64276e-05
-7.32175e-05
-2.2712e-05
8.52364e-06
-2.5873e-05
-5.32304e-05
-6.39558e-05
-3.02503e-05
2.47075e-06
-4.94537e-05
-6.96559e-05
-7.31002e-05
-2.15284e-05
5.00367e-07
-2.21213e-05
-8.0869e-05
-9.68578e-05
-3.03728e-05
-2.49121e-05
-5.81182e-05
-8.57725e-05
-8.81704e-05
-2.26381e-05
5.82768e-06
-3.85659e-05
-8.29045e-05
-7.31421e-05
-3.01618e-05
2.51051e-06
-5.43696e-05
-8.21472e-05
-0.000106718
-2.75141e-05
8.40184e-06
-5.16688e-05
-8.95601e-05
-8.77797e-05
-2.5977e-06
1.12003e-05
-2.85614e-05
-9.78059e-05
-9.40177e-05
-2.58085e-05
1.20131e-05
-3.18709e-05
-7.05426e-05
-8.25461e-05
-3.3888e-05
7.17585e-06
-6.08209e-05
-9.37787e-05
-9.65171e-05
-2.77503e-05
3.32133e-06
-2.8984e-05
-0.000101883
-0.00011019
-2.3822e-05
-1.65484e-05
-6.79427e-05
-0.000109572
-0.000106379
-1.75678e-05
1.79758e-05
-4.45634e-05
-0.000103585
-8.63628e-05
-2.27154e-05
1.67419e-05
-6.43022e-05
-0.000106832
-0.000123847
-2.07887e-05
2.33558e-05
-6.0245e-05
-0.000114699
-0.000102785
5.11749e-06
2.36866e-05
-3.13932e-05
-0.000120316
-0.000110334
-1.94816e-05
2.73897e-05
-3.49772e-05
-8.96011e-05
-9.70549e-05
-2.78712e-05
2.32264e-05
-6.8746e-05
-0.000117472
-0.000114339
-2.49188e-05
1.5769e-05
-3.25067e-05
-0.000118856
-0.000119715
-6.8982e-06
2.05254e-06
-7.48591e-05
-0.000130187
-0.000114809
-3.42391e-06
4.20144e-05
-4.61458e-05
-0.000119652
-9.19712e-05
-8.38648e-06
3.42119e-05
-6.90348e-05
-0.000124357
-0.000133669
-5.69902e-06
4.45319e-05
-6.45152e-05
-0.000136543
-0.000113163
2.13113e-05
4.76802e-05
-2.92718e-05
-0.000140013
-0.000117719
-4.16311e-06
4.76841e-05
-3.45099e-05
-0.000106025
-0.000104935
-1.45422e-05
4.45431e-05
-7.1048e-05
-0.000137152
-0.000123955
-1.3637e-05
3.21182e-05
-3.23143e-05
-0.00012933
-0.000116177
1.23319e-05
1.74142e-05
-7.52233e-05
-0.000141702
-0.000117593
1.32892e-05
5.83089e-05
-4.61255e-05
-0.00013199
-9.13279e-05
8.4693e-06
4.65889e-05
-7.35413e-05
-0.00013843
-0.000133075
1.34141e-05
6.68016e-05
-6.31602e-05
-0.000151186
-0.000112268
4.05134e-05
6.57312e-05
-2.80852e-05
-0.000152601
-0.000118345
1.45086e-05
6.84333e-05
-3.15909e-05
-0.000116793
-0.000105116
2.3598e-06
6.61993e-05
-6.92798e-05
-0.000146872
-0.000124309
1.10701e-07
5.15077e-05
-2.94098e-05
-0.000133189
-0.000113806
2.66774e-05
3.49264e-05
-7.32026e-05
-0.000148255
-0.00011341
2.49176e-05
6.97156e-05
-4.20829e-05
-0.000136445
-9.10312e-05
1.53064e-05
5.73053e-05
-6.91431e-05
-0.000141976
-0.000132132
2.62809e-05
7.96437e-05
-5.89723e-05