/*--------------------------------*- C++ -*----------------------------------*\
  =========                 |
  \\      /  F ield         | OpenFOAM: The Open Source CFD Toolbox
   \\    /   O peration     | Website:  https://openfoam.org
    \\  /    A nd           | Version:  10
     \\/     M anipulation  |
\*---------------------------------------------------------------------------*/
FoamFile
{
    format      ascii;
    class       volScalarField;
    location    "11";
    object      pPrime2Mean;
}
// * * * * * * * * * * * * * * * * * * * * * * * * * * * * * * * * * * * * * //

dimensions      [0 4 -4 0 0 0 0];

internalField   nonuniform List<scalar> 
25600
(
4.18311e-05
4.05633e-05
3.88097e-05
4.35137e-05
3.84937e-05
4.03653e-05
4.23077e-05
4.37128e-05
3.70209e-05
3.29282e-05
3.02575e-05
2.82615e-05
2.54509e-05
2.55054e-05
2.42394e-05
2.68109e-05
2.84648e-05
3.08648e-05
3.50058e-05
3.81897e-05
3.79337e-05
3.27773e-05
2.94849e-05
2.68007e-05
3.10376e-05
3.5801e-05
3.84977e-05
3.98976e-05
3.70877e-05
3.48278e-05
3.31579e-05
2.90225e-05
2.6789e-05
3.05322e-05
2.94977e-05
2.75019e-05
3.06941e-05
3.59003e-05
3.89678e-05
4.0236e-05
4.2033e-05
4.07903e-05
3.89822e-05
4.36679e-05
3.87099e-05
4.06211e-05
4.26169e-05
4.40122e-05
3.72307e-05
3.30989e-05
3.04624e-05
2.84118e-05
2.55848e-05
2.56229e-05
2.4373e-05
2.69854e-05
2.86326e-05
3.10402e-05
3.52228e-05
3.84088e-05
3.82224e-05
3.296e-05
2.96236e-05
2.69517e-05
3.1208e-05
3.6084e-05
3.87734e-05
4.01641e-05
3.7416e-05
3.51074e-05
3.33282e-05
2.91944e-05
2.69137e-05
3.07537e-05
2.97425e-05
2.77279e-05
3.0947e-05
3.61538e-05
3.91885e-05
4.04697e-05
4.24578e-05
4.11075e-05
3.93169e-05
4.3921e-05
3.92341e-05
4.12328e-05
4.33692e-05
4.47288e-05
3.76999e-05
3.34405e-05
3.08636e-05
2.8731e-05
2.58748e-05
2.58812e-05
2.47112e-05
2.7426e-05
2.90924e-05
3.15192e-05
3.57201e-05
3.88396e-05
3.87608e-05
3.3346e-05
2.97736e-05
2.73287e-05
3.15205e-05
3.68317e-05
3.94777e-05
4.09618e-05
3.81954e-05
3.58488e-05
3.39344e-05
2.97026e-05
2.73373e-05
3.12085e-05
3.02122e-05
2.81772e-05
3.14197e-05
3.6701e-05
3.96366e-05
4.08942e-05
4.31678e-05
4.16142e-05
3.9939e-05
4.44257e-05
3.99859e-05
4.21043e-05
4.44041e-05
4.55978e-05
3.83928e-05
3.39269e-05
3.14796e-05
2.91965e-05
2.63403e-05
2.63731e-05
2.52161e-05
2.80932e-05
2.97139e-05
3.2181e-05
3.64161e-05
3.94007e-05
3.94743e-05
3.39252e-05
2.9915e-05
2.78296e-05
3.19112e-05
3.79512e-05
4.06281e-05
4.20825e-05
3.93434e-05
3.69399e-05
3.47033e-05
3.06281e-05
2.78499e-05
3.17251e-05
3.078e-05
2.88035e-05
3.19498e-05
3.74729e-05
4.03239e-05
4.15944e-05
4.41716e-05
4.2248e-05
4.09804e-05
4.4925e-05
4.06109e-05
4.27982e-05
4.50913e-05
4.62e-05
3.90051e-05
3.4343e-05
3.18807e-05
2.947e-05
2.6745e-05
2.67648e-05
2.55945e-05
2.8713e-05
3.03011e-05
3.28347e-05
3.71692e-05
3.98712e-05
4.00174e-05
3.42898e-05
2.97939e-05
2.82124e-05
3.22503e-05
3.93999e-05
4.20882e-05
4.36928e-05
4.10347e-05
3.84651e-05
3.57464e-05
3.16094e-05
2.84726e-05
3.20428e-05
3.11102e-05
2.91782e-05
3.2298e-05
3.81112e-05
4.10923e-05
4.25077e-05
4.4739e-05
4.23495e-05
4.13463e-05
4.40471e-05
4.02197e-05
4.25471e-05
4.48865e-05
4.63994e-05
3.96001e-05
3.46516e-05
3.20703e-05
2.97661e-05
2.73469e-05
2.74514e-05
2.62397e-05
2.95185e-05
3.10363e-05
3.348e-05
3.77548e-05
4.03483e-05
4.04316e-05
3.47162e-05
2.91959e-05
2.82724e-05
3.2697e-05
4.11043e-05
4.35714e-05
4.50026e-05
4.23366e-05
3.95205e-05
3.62915e-05
3.24287e-05
2.88322e-05
3.22767e-05
3.14731e-05
2.96813e-05
3.23684e-05
3.79485e-05
4.132e-05
4.29376e-05
4.55566e-05
4.25916e-05
4.10845e-05
4.24879e-05
3.86826e-05
4.14709e-05
4.38042e-05
4.55286e-05
3.97678e-05
3.44885e-05
3.16098e-05
2.92844e-05
2.70694e-05
2.75004e-05
2.64333e-05
2.97114e-05
3.16838e-05
3.40417e-05
3.79558e-05
4.07203e-05
4.01654e-05
3.4407e-05
2.84469e-05
2.79451e-05
3.32115e-05
4.2135e-05
4.47358e-05
4.56753e-05
4.27252e-05
3.98806e-05
3.62924e-05
3.24938e-05
2.89839e-05
3.22099e-05
3.15387e-05
2.98794e-05
3.17862e-05
3.69608e-05
4.08388e-05
4.28777e-05
4.53959e-05
4.18922e-05
3.98012e-05
4.10994e-05
3.71327e-05
3.99963e-05
4.20838e-05
4.37188e-05
3.91144e-05
3.38333e-05
3.0838e-05
2.88626e-05
2.67983e-05
2.73657e-05
2.67843e-05
2.96389e-05
3.20523e-05
3.4216e-05
3.77457e-05
4.11461e-05
3.99749e-05
3.37219e-05
2.72349e-05
2.75607e-05
3.31861e-05
4.22246e-05
4.51142e-05
4.60643e-05
4.27306e-05
3.98264e-05
3.59749e-05
3.21382e-05
2.89165e-05
3.21818e-05
3.1721e-05
3.02712e-05
3.21182e-05
3.67969e-05
3.97437e-05
4.16828e-05
4.35521e-05
4.02547e-05
3.80039e-05
3.93766e-05
3.56884e-05
3.82718e-05
4.0012e-05
4.12399e-05
3.77285e-05
3.29475e-05
3.00407e-05
2.85549e-05
2.60011e-05
2.66179e-05
2.61329e-05
2.90787e-05
3.18573e-05
3.38859e-05
3.73961e-05
4.06496e-05
3.93731e-05
3.24916e-05
2.58708e-05
2.69011e-05
3.25619e-05
4.13767e-05
4.52994e-05
4.65381e-05
4.30192e-05
3.97336e-05
3.52678e-05
3.14167e-05
2.87114e-05
3.10912e-05
3.05741e-05
2.95034e-05
3.19596e-05
3.58319e-05
3.74902e-05
3.93959e-05
4.04575e-05
3.82109e-05
3.57999e-05
3.72404e-05
3.42406e-05
3.60793e-05
3.72938e-05
3.82826e-05
3.53096e-05
3.11865e-05
2.87419e-05
2.7783e-05
2.49263e-05
2.54636e-05
2.52463e-05
2.78625e-05
3.1117e-05
3.32107e-05
3.66723e-05
3.91937e-05
3.77772e-05
3.04785e-05
2.45062e-05
2.60944e-05
3.17088e-05
3.99045e-05
4.4882e-05
4.64265e-05
4.24784e-05
3.88699e-05
3.42554e-05
3.01117e-05
2.77729e-05
2.93272e-05
2.89605e-05
2.81208e-05
3.07945e-05
3.40992e-05
3.53901e-05
3.67631e-05
3.5664e-05
3.40412e-05
3.2151e-05
3.33096e-05
3.08399e-05
3.14737e-05
3.27596e-05
3.43319e-05
3.16808e-05
2.81693e-05
2.59331e-05
2.54632e-05
2.2826e-05
2.31171e-05
2.2825e-05
2.51018e-05
2.81139e-05
3.02394e-05
3.3575e-05
3.53695e-05
3.34219e-05
2.70945e-05
2.29726e-05
2.52141e-05
3.07172e-05
3.81454e-05
4.28666e-05
4.39753e-05
3.96615e-05
3.60074e-05
3.16941e-05
2.71393e-05
2.507e-05
2.56901e-05
2.54646e-05
2.4761e-05
2.75045e-05
3.09309e-05
3.28025e-05
3.32681e-05
2.93614e-05
2.79925e-05
2.63431e-05
2.6975e-05
2.51784e-05
2.54212e-05
2.67111e-05
2.86888e-05
2.67956e-05
2.41985e-05
2.19468e-05
2.17422e-05
1.97929e-05
1.97985e-05
1.93936e-05
2.10268e-05
2.35238e-05
2.55293e-05
2.85146e-05
2.97044e-05
2.73494e-05
2.25006e-05
1.99324e-05
2.26844e-05
2.81574e-05
3.48878e-05
3.88457e-05
3.96491e-05
3.59431e-05
3.23348e-05
2.85106e-05
2.35544e-05
2.17662e-05
2.22284e-05
2.18319e-05
2.07411e-05
2.29943e-05
2.61282e-05
2.83393e-05
2.82032e-05
2.24596e-05
2.13785e-05
2.00114e-05
2.04621e-05
1.95624e-05
1.98384e-05
2.09231e-05
2.26931e-05
2.15526e-05
1.96037e-05
1.73289e-05
1.70469e-05
1.58919e-05
1.61083e-05
1.544e-05
1.62826e-05
1.826e-05
2.01406e-05
2.25976e-05
2.35273e-05
2.11998e-05
1.74953e-05
1.58548e-05
1.83624e-05
2.34001e-05
2.87031e-05
3.14904e-05
3.20155e-05
2.9489e-05
2.68246e-05
2.38297e-05
1.88553e-05
1.70997e-05
1.77872e-05
1.77298e-05
1.64468e-05
1.79851e-05
2.04298e-05
2.21118e-05
2.19101e-05
1.63453e-05
1.56986e-05
1.48034e-05
1.54538e-05
1.53508e-05
1.53795e-05
1.60786e-05
1.74009e-05
1.66538e-05
1.47846e-05
1.30229e-05
1.27929e-05
1.22148e-05
1.2588e-05
1.16145e-05
1.16441e-05
1.30509e-05
1.44123e-05
1.64334e-05
1.74668e-05
1.58359e-05
1.3258e-05
1.22069e-05
1.39126e-05
1.7179e-05
2.07864e-05
2.28415e-05
2.3447e-05
2.19102e-05
2.04482e-05
1.87612e-05
1.44943e-05
1.28521e-05
1.36224e-05
1.37629e-05
1.22698e-05
1.31561e-05
1.50539e-05
1.61417e-05
1.61089e-05
1.15426e-05
1.11267e-05
1.06283e-05
1.12287e-05
1.1489e-05
1.13349e-05
1.15988e-05
1.25771e-05
1.21286e-05
1.04881e-05
9.35958e-06
9.19033e-06
8.86505e-06
9.32289e-06
8.36486e-06
7.94814e-06
8.84376e-06
9.80043e-06
1.14666e-05
1.24781e-05
1.14313e-05
9.69948e-06
8.90698e-06
9.96553e-06
1.17587e-05
1.39405e-05
1.55514e-05
1.62107e-05
1.52428e-05
1.44215e-05
1.34851e-05
1.04641e-05
9.15903e-06
9.82466e-06
1.01695e-05
8.78545e-06
9.17632e-06
1.06408e-05
1.13639e-05
1.14846e-05
7.79652e-06
7.5298e-06
7.35376e-06
7.76708e-06
8.1301e-06
8.04791e-06
8.01072e-06
8.52979e-06
8.31598e-06
7.12454e-06
6.50352e-06
6.37951e-06
6.1625e-06
6.59526e-06
5.80386e-06
5.3313e-06
5.83203e-06
6.49813e-06
7.73933e-06
8.65531e-06
8.01047e-06
6.76952e-06
6.13532e-06
6.77473e-06
7.76292e-06
8.86947e-06
1.00614e-05
1.06945e-05
1.00697e-05
9.60156e-06
9.0733e-06
7.19319e-06
6.17158e-06
6.68576e-06
7.16219e-06
6.0813e-06
6.1508e-06
7.24579e-06
7.72378e-06
7.76451e-06
5.06642e-06
4.9149e-06
4.9233e-06
5.17191e-06
5.50998e-06
5.52803e-06
5.30928e-06
5.53994e-06
5.47614e-06
4.71625e-06
4.44053e-06
4.33841e-06
4.14358e-06
4.51063e-06
3.93409e-06
3.52767e-06
3.7445e-06
4.13665e-06
5.0268e-06
5.76327e-06
5.35784e-06
4.50495e-06
4.04185e-06
4.39555e-06
4.98275e-06
5.54081e-06
6.40168e-06
6.91673e-06
6.48453e-06
6.20922e-06
5.81098e-06
4.71684e-06
4.01616e-06
4.36777e-06
4.82973e-06
4.05784e-06
4.01955e-06
4.84301e-06
5.15566e-06
5.08931e-06
3.17854e-06
3.09263e-06
3.18192e-06
3.31674e-06
3.58926e-06
3.66483e-06
3.41222e-06
3.53633e-06
3.52687e-06
3.08363e-06
2.97256e-06
2.87832e-06
2.70461e-06
3.02636e-06
2.63453e-06
2.30643e-06
2.38982e-06
2.58476e-06
3.19772e-06
3.78913e-06
3.54384e-06
2.98078e-06
2.63325e-06
2.79573e-06
3.14409e-06
3.41957e-06
4.02858e-06
4.43473e-06
4.073e-06
3.92845e-06
3.61911e-06
3.0075e-06
2.57364e-06
2.78277e-06
3.17137e-06
2.62168e-06
2.51605e-06
3.14005e-06
3.33427e-06
3.23808e-06
1.9509e-06
1.89383e-06
2.03075e-06
2.08797e-06
2.2866e-06
2.39018e-06
2.14609e-06
2.20926e-06
2.22287e-06
1.96674e-06
1.96739e-06
1.88833e-06
1.72634e-06
2.00365e-06
1.73625e-06
1.50556e-06
1.53305e-06
1.59143e-06
1.99922e-06
2.43611e-06
2.28062e-06
1.92962e-06
1.6843e-06
1.74002e-06
1.93481e-06
2.06174e-06
2.50936e-06
2.84051e-06
2.52904e-06
2.46273e-06
2.24435e-06
1.89149e-06
1.63972e-06
1.75916e-06
2.09575e-06
1.68794e-06
1.54626e-06
2.01627e-06
2.14183e-06
2.03549e-06
1.17748e-06
1.12757e-06
1.28317e-06
1.28123e-06
1.39606e-06
1.51035e-06
1.31481e-06
1.36585e-06
1.39716e-06
1.23298e-06
1.29346e-06
1.23471e-06
1.08145e-06
1.3188e-06
1.13252e-06
9.75924e-07
1.00088e-06
9.7104e-07
1.23025e-06
1.53371e-06
1.42517e-06
1.22538e-06
1.06733e-06
1.05534e-06
1.16157e-06
1.21257e-06
1.52813e-06
1.80641e-06
1.5432e-06
1.52092e-06
1.38652e-06
1.1753e-06
1.04595e-06
1.10984e-06
1.38217e-06
1.07994e-06
9.19537e-07
1.25596e-06
1.32934e-06
1.25745e-06
7.2002e-07
6.58797e-07
8.27577e-07
7.94875e-07
8.28973e-07
9.47524e-07
8.03512e-07
8.49852e-07
8.92138e-07
7.63038e-07
8.41662e-07
8.0338e-07
6.6653e-07
8.79607e-07
7.43077e-07
6.36096e-07
6.86027e-07
6.03232e-07
7.58415e-07
9.70067e-07
8.74013e-07
7.71352e-07
6.84913e-07
6.30737e-07
6.87813e-07
7.00286e-07
9.18158e-07
1.14684e-06
9.29233e-07
9.24517e-07
8.53455e-07
7.25001e-07
6.78464e-07
7.0585e-07
9.24305e-07
7.08042e-07
5.48225e-07
7.88654e-07
8.20232e-07
7.83442e-07
4.63962e-07
3.767e-07
5.44727e-07
5.04062e-07
4.6685e-07
5.80542e-07
4.83826e-07
5.3346e-07
5.87273e-07
4.74771e-07
5.51981e-07
5.30718e-07
4.10374e-07
6.03458e-07
5.00093e-07
4.1399e-07
4.96306e-07
3.88686e-07
4.68368e-07
6.26843e-07
5.27294e-07
4.84545e-07
4.62303e-07
3.78616e-07
4.01648e-07
3.98221e-07
5.45602e-07
7.31964e-07
5.63152e-07
5.66288e-07
5.32512e-07
4.51221e-07
4.556e-07
4.5599e-07
6.28166e-07
4.79987e-07
3.31589e-07
5.00427e-07
4.96633e-07
4.92554e-07
3.32713e-07
2.18489e-07
3.74032e-07
3.45759e-07
2.56775e-07
3.55385e-07
2.95401e-07
3.44736e-07
4.10393e-07
3.07594e-07
3.70321e-07
3.59518e-07
2.56246e-07
4.35155e-07
3.6005e-07
2.74803e-07
3.87011e-07
2.74084e-07
2.9483e-07
4.27297e-07
3.21731e-07
3.05221e-07
3.34469e-07
2.39847e-07
2.40026e-07
2.35334e-07
3.27148e-07
4.7793e-07
3.54331e-07
3.5867e-07
3.48581e-07
2.89779e-07
3.24117e-07
3.07752e-07
4.37705e-07
3.45213e-07
2.14452e-07
3.32476e-07
3.00871e-07
3.18576e-07
2.66153e-07
1.35762e-07
2.66662e-07
2.63686e-07
1.45493e-07
2.21989e-07
1.86818e-07
2.28475e-07
3.0095e-07
2.13302e-07
2.6249e-07
2.55819e-07
1.66818e-07
3.2913e-07
2.79212e-07
1.88688e-07
3.17288e-07
2.14806e-07
1.89856e-07
3.12891e-07
2.09156e-07
1.99495e-07
2.61722e-07
1.69548e-07
1.53638e-07
1.53407e-07
2.01841e-07
3.22239e-07
2.41331e-07
2.40351e-07
2.45532e-07
1.9469e-07
2.48053e-07
2.25107e-07
3.11517e-07
2.65378e-07
1.52794e-07
2.34145e-07
1.89962e-07
2.13845e-07
2.3005e-07
9.78657e-08
1.91265e-07
2.19858e-07
9.55159e-08
1.45604e-07
1.26471e-07
1.5661e-07
2.25434e-07
1.57228e-07
2.00342e-07
1.90391e-07
1.17237e-07
2.61356e-07
2.29349e-07
1.34221e-07
2.65249e-07
1.83878e-07
1.28373e-07
2.44824e-07
1.51537e-07
1.36551e-07
2.14076e-07
1.37622e-07
1.13296e-07
1.18837e-07
1.34596e-07
2.27191e-07
1.82376e-07
1.75431e-07
1.94013e-07
1.40973e-07
2.00702e-07
1.82165e-07
2.24582e-07
2.18345e-07
1.21798e-07
1.74634e-07
1.30047e-07
1.4982e-07
2.01131e-07
8.55926e-08
1.34184e-07
1.89932e-07
8.04868e-08
1.02995e-07
9.45321e-08
1.17008e-07
1.6738e-07
1.1933e-07
1.67437e-07
1.45377e-07
9.00732e-08
2.16551e-07
1.90425e-07
1.00594e-07
2.21238e-07
1.63001e-07
9.37683e-08
1.98355e-07
1.24545e-07
1.01501e-07
1.78286e-07
1.23064e-07
9.82921e-08
1.0835e-07
1.01632e-07
1.69149e-07
1.51034e-07
1.41551e-07
1.71122e-07
1.12499e-07
1.68928e-07
1.66039e-07
1.65643e-07
1.89663e-07
1.10656e-07
1.35512e-07
1.02461e-07
1.08842e-07
1.67184e-07
8.68263e-08
9.13797e-08
1.58929e-07
8.36481e-08
7.85365e-08
7.82142e-08
1.01704e-07
1.21209e-07
9.27737e-08
1.5258e-07
1.15037e-07
7.57884e-08
1.86874e-07
1.5524e-07
7.89723e-08
1.81262e-07
1.44656e-07
7.80078e-08
1.63081e-07
1.14414e-07
8.63686e-08
1.47878e-07
1.14499e-07
9.45122e-08
1.07255e-07
9.01534e-08
1.35337e-07
1.31861e-07
1.22404e-07
1.63852e-07
9.86551e-08
1.4393e-07
1.64779e-07
1.2581e-07
1.70529e-07
1.14275e-07
1.07596e-07
9.38848e-08
8.36381e-08
1.28494e-07
9.3273e-08
6.55353e-08
1.25281e-07
9.58498e-08
6.60674e-08
6.91144e-08
1.04378e-07
9.0963e-08
7.66429e-08
1.49524e-07
9.71357e-08
7.1844e-08
1.69108e-07
1.25426e-07
7.05979e-08
1.49587e-07
1.29465e-07
7.76414e-08
1.35113e-07
1.13766e-07
8.65682e-08
1.23139e-07
1.09239e-07
9.47373e-08
1.06392e-07
8.91384e-08
1.17523e-07
1.18153e-07
1.09281e-07
1.63115e-07
9.4084e-08
1.21687e-07
1.70723e-07
1.02775e-07
1.53803e-07
1.29088e-07
8.86471e-08
9.60237e-08
7.46723e-08
9.50898e-08
9.99727e-08
5.78257e-08
9.38452e-08
1.08129e-07
6.40782e-08
6.45442e-08
1.15152e-07
7.56614e-08
7.19942e-08
1.53928e-07
8.68968e-08
7.70057e-08
1.58636e-07
1.0397e-07
7.56757e-08
1.2723e-07
1.18414e-07
8.83923e-08
1.13841e-07
1.16651e-07
9.52711e-08
1.06826e-07
1.08553e-07
9.67232e-08
1.03526e-07
9.15675e-08
1.09817e-07
1.08605e-07
9.71876e-08
1.60175e-07
9.61063e-08
1.01294e-07
1.73167e-07
9.184e-08
1.32992e-07
1.45998e-07
7.79711e-08
9.99743e-08
8.04586e-08
7.46406e-08
1.06221e-07
6.42872e-08
7.26253e-08
1.15242e-07
6.85946e-08
6.53729e-08
1.22342e-07
7.02626e-08
7.6479e-08
1.55731e-07
7.9272e-08
8.38122e-08
1.48503e-07
8.97437e-08
8.60205e-08
1.12009e-07
1.12032e-07
1.00987e-07
9.97222e-08
1.22129e-07
1.05993e-07
1.02907e-07
1.14298e-07
1.01334e-07
1.03316e-07
9.36882e-08
1.08437e-07
1.04655e-07
8.64711e-08
1.50774e-07
1.02037e-07
8.38771e-08
1.62189e-07
8.77414e-08
1.071e-07
1.47927e-07
7.2232e-08
9.88882e-08
9.13994e-08
6.19996e-08
1.10237e-07
7.61401e-08
6.36905e-08
1.16643e-07
7.43811e-08
7.20907e-08
1.21804e-07
6.74467e-08
8.48101e-08
1.45819e-07
7.17689e-08
8.39335e-08
1.30645e-07
8.00149e-08
8.61077e-08
9.80675e-08
1.06169e-07
1.03268e-07
9.21391e-08
1.25978e-07
1.09117e-07
1.06389e-07
1.1926e-07
1.02531e-07
1.06635e-07
9.52238e-08
1.089e-07
1.06636e-07
8.00446e-08
1.34785e-07
1.09159e-07
7.44989e-08
1.40037e-07
8.94253e-08
8.46618e-08
1.29581e-07
6.90031e-08
9.27504e-08
9.36818e-08
5.35425e-08
1.10536e-07
8.56012e-08
5.99753e-08
1.11896e-07
7.5647e-08
7.82463e-08
1.11798e-07
6.30685e-08
8.50302e-08
1.19901e-07
6.47408e-08
7.07106e-08
1.02098e-07
7.45818e-08
6.72874e-08
7.95903e-08
9.75659e-08
8.12933e-08
8.05099e-08
1.1197e-07
8.80604e-08
9.59745e-08
1.0502e-07
8.96292e-08
1.03151e-07
9.22146e-08
1.0662e-07
1.11022e-07
8.28188e-08
1.17565e-07
1.15845e-07
8.05908e-08
1.17742e-07
9.94822e-08
8.04421e-08
1.0726e-07
7.41138e-08
9.38194e-08
9.05702e-08
3.31128e-05
3.3032e-05
3.29001e-05
4.31354e-05
3.02831e-05
3.2362e-05
3.36543e-05
3.32831e-05
3.36018e-05
3.37938e-05
3.22801e-05
2.97411e-05
2.6805e-05
2.65668e-05
2.48338e-05
2.66767e-05
2.43672e-05
2.56463e-05
2.5458e-05
3.07992e-05
3.3786e-05
3.1532e-05
2.89218e-05
2.84477e-05
2.61945e-05
2.60723e-05
2.54436e-05
2.69979e-05
2.84402e-05
2.71748e-05
2.8079e-05
2.79091e-05
3.18222e-05
3.85738e-05
3.97332e-05
3.642e-05
2.99358e-05
2.58112e-05
2.73791e-05
2.77456e-05
3.33486e-05
3.33187e-05
3.30452e-05
4.34906e-05
3.05052e-05
3.25512e-05
3.38713e-05
3.35348e-05
3.38026e-05
3.39521e-05
3.24778e-05
2.9928e-05
2.69646e-05
2.67197e-05
2.49411e-05
2.68147e-05
2.45045e-05
2.57973e-05
2.55771e-05
3.08978e-05
3.39779e-05
3.16763e-05
2.90002e-05
2.8572e-05
2.62009e-05
2.61778e-05
2.55121e-05
2.70779e-05
2.85168e-05
2.72458e-05
2.8234e-05
2.80214e-05
3.19109e-05
3.87139e-05
3.98384e-05
3.65777e-05
3.00441e-05
2.58928e-05
2.75619e-05
2.79031e-05
3.38918e-05
3.39921e-05
3.34019e-05
4.41398e-05
3.09281e-05
3.29235e-05
3.43012e-05
3.39858e-05
3.42637e-05
3.42895e-05
3.28725e-05
3.03266e-05
2.72365e-05
2.69955e-05
2.51929e-05
2.70812e-05
2.48189e-05
2.61672e-05
2.58933e-05
3.11939e-05
3.43101e-05
3.19755e-05
2.928e-05
2.90115e-05
2.63133e-05
2.6579e-05
2.57659e-05
2.73473e-05
2.8836e-05
2.74961e-05
2.87277e-05
2.83289e-05
3.21454e-05
3.91345e-05
4.02215e-05
3.69921e-05
3.03473e-05
2.60979e-05
2.78682e-05
2.83048e-05
3.46074e-05
3.45456e-05
3.36991e-05
4.44612e-05
3.13392e-05
3.33266e-05
3.46346e-05
3.43948e-05
3.47181e-05
3.47549e-05
3.33327e-05
3.07036e-05
2.74649e-05
2.72e-05
2.53853e-05
2.73347e-05
2.51491e-05
2.65944e-05
2.63031e-05
3.14003e-05
3.46774e-05
3.23302e-05
2.95865e-05
2.95048e-05
2.63419e-05
2.6878e-05
2.59774e-05
2.76335e-05
2.92397e-05
2.7838e-05
2.93914e-05
2.8779e-05
3.23647e-05
3.95522e-05
4.06494e-05
3.75217e-05
3.08171e-05
2.63143e-05
2.81572e-05
2.87222e-05
3.46929e-05
3.43496e-05
3.35304e-05
4.3915e-05
3.14707e-05
3.34092e-05
3.45489e-05
3.43863e-05
3.48771e-05
3.47444e-05
3.34428e-05
3.07963e-05
2.73144e-05
2.69804e-05
2.52731e-05
2.71096e-05
2.51867e-05
2.67824e-05
2.66265e-05
3.11624e-05
3.49262e-05
3.22649e-05
2.93962e-05
2.97623e-05
2.62243e-05
2.70832e-05
2.58922e-05
2.74406e-05
2.94011e-05
2.81023e-05
2.97522e-05
2.9032e-05
3.22088e-05
3.95681e-05
4.08471e-05
3.76709e-05
3.0739e-05
2.59345e-05
2.8059e-05
2.84294e-05
3.46837e-05
3.36925e-05
3.28726e-05
4.22875e-05
3.15408e-05
3.30387e-05
3.38845e-05
3.41225e-05
3.45575e-05
3.40452e-05
3.27366e-05
3.02995e-05
2.68477e-05
2.65046e-05
2.45856e-05
2.64297e-05
2.4673e-05
2.64915e-05
2.64272e-05
3.02756e-05
3.50085e-05
3.18225e-05
2.93283e-05
3.02471e-05
2.61843e-05
2.72154e-05
2.5904e-05
2.78321e-05
2.95228e-05
2.8085e-05
3.00581e-05
2.93448e-05
3.21218e-05
3.9291e-05
4.06081e-05
3.73562e-05
3.0622e-05
2.58875e-05
2.79726e-05
2.81125e-05
3.42297e-05
3.26566e-05
3.25444e-05
4.12602e-05
3.22317e-05
3.28197e-05
3.34401e-05
3.39087e-05
3.40895e-05
3.27917e-05
3.12162e-05
2.89104e-05
2.61317e-05
2.56899e-05
2.35126e-05
2.52473e-05
2.42362e-05
2.64049e-05
2.60158e-05
2.93651e-05
3.43079e-05
3.0945e-05
2.93625e-05
3.04033e-05
2.62571e-05
2.74171e-05
2.60017e-05
2.77674e-05
2.9482e-05
2.77676e-05
2.97227e-05
2.90267e-05
3.17972e-05
3.86224e-05
4.01469e-05
3.66288e-05
3.03269e-05
2.58102e-05
2.76605e-05
2.80006e-05
3.33553e-05
3.17228e-05
3.21197e-05
3.94602e-05
3.1754e-05
3.2431e-05
3.29333e-05
3.3343e-05
3.31016e-05
3.13037e-05
2.92848e-05
2.72695e-05
2.52645e-05
2.4658e-05
2.25248e-05
2.41666e-05
2.40052e-05
2.59569e-05
2.52783e-05
2.83849e-05
3.27135e-05
3.01397e-05
2.98006e-05
3.01444e-05
2.66418e-05
2.71172e-05
2.5878e-05
2.78392e-05
2.91863e-05
2.70848e-05
2.88061e-05
2.76037e-05
3.03356e-05
3.66979e-05
3.83891e-05
3.49091e-05
2.91161e-05
2.51157e-05
2.67252e-05
2.79451e-05
3.1031e-05
2.93434e-05
3.0484e-05
3.69917e-05
3.01166e-05
3.07356e-05
3.14215e-05
3.1566e-05
3.12125e-05
2.95436e-05
2.70993e-05
2.54865e-05
2.38459e-05
2.28725e-05
2.08965e-05
2.25011e-05
2.27138e-05
2.46184e-05
2.39865e-05
2.7206e-05
3.05103e-05
2.88014e-05
2.9261e-05
2.90333e-05
2.62661e-05
2.58102e-05
2.4764e-05
2.63323e-05
2.74131e-05
2.48992e-05
2.58931e-05
2.47455e-05
2.72384e-05
3.2794e-05
3.46829e-05
3.15601e-05
2.62928e-05
2.31096e-05
2.46156e-05
2.64265e-05
2.70157e-05
2.49985e-05
2.64833e-05
3.17226e-05
2.6507e-05
2.70385e-05
2.80479e-05
2.80295e-05
2.76237e-05
2.66479e-05
2.43371e-05
2.30807e-05
2.18327e-05
2.05119e-05
1.86691e-05
2.00067e-05
2.03056e-05
2.23707e-05
2.16979e-05
2.52869e-05
2.76506e-05
2.64244e-05
2.69832e-05
2.67124e-05
2.45062e-05
2.33756e-05
2.24546e-05
2.33711e-05
2.40774e-05
2.15581e-05
2.16584e-05
2.08028e-05
2.30737e-05
2.79011e-05
2.97954e-05
2.69177e-05
2.23775e-05
1.99921e-05
2.14512e-05
2.33755e-05
2.27611e-05
2.04396e-05
2.1916e-05
2.5738e-05
2.21467e-05
2.25906e-05
2.37634e-05
2.35685e-05
2.31484e-05
2.27599e-05
2.074e-05
1.97399e-05
1.9093e-05
1.78373e-05
1.62131e-05
1.7171e-05
1.72781e-05
1.94149e-05
1.91989e-05
2.2621e-05
2.47806e-05
2.34459e-05
2.3477e-05
2.32576e-05
2.14815e-05
2.03291e-05
1.93744e-05
1.97812e-05
2.00826e-05
1.78364e-05
1.75165e-05
1.67522e-05
1.86229e-05
2.2713e-05
2.4607e-05
2.20672e-05
1.83188e-05
1.67006e-05
1.82086e-05
2.01066e-05
1.88121e-05
1.6872e-05
1.78146e-05
2.05899e-05
1.84118e-05
1.88028e-05
1.96745e-05
1.91541e-05
1.86354e-05
1.87558e-05
1.72757e-05
1.6361e-05
1.60608e-05
1.50513e-05
1.37437e-05
1.44865e-05
1.43586e-05
1.57672e-05
1.643e-05
1.95359e-05
2.15356e-05
2.02203e-05
1.95593e-05
1.93104e-05
1.79737e-05
1.70473e-05
1.63802e-05
1.64689e-05
1.66075e-05
1.48887e-05
1.43938e-05
1.34001e-05
1.46047e-05
1.78867e-05
1.9718e-05
1.78753e-05
1.48695e-05
1.36037e-05
1.4959e-05
1.68117e-05
1.49674e-05
1.36364e-05
1.40915e-05
1.62562e-05
1.52252e-05
1.53942e-05
1.58449e-05
1.4879e-05
1.4205e-05
1.46654e-05
1.40145e-05
1.3242e-05
1.30857e-05
1.23307e-05
1.10572e-05
1.1671e-05
1.16418e-05
1.20917e-05
1.32701e-05
1.62573e-05
1.79425e-05
1.66846e-05
1.572e-05
1.54437e-05
1.43992e-05
1.3618e-05
1.30574e-05
1.27798e-05
1.27486e-05
1.18151e-05
1.1589e-05
1.05391e-05
1.1198e-05
1.37451e-05
1.52887e-05
1.4016e-05
1.18395e-05
1.07489e-05
1.18281e-05
1.34898e-05
1.11121e-05
1.02191e-05
1.05614e-05
1.22262e-05
1.19166e-05
1.18269e-05
1.2043e-05
1.10024e-05
1.0246e-05
1.07304e-05
1.08747e-05
1.0262e-05
1.02367e-05
9.76024e-06
8.43505e-06
8.72299e-06
8.74192e-06
8.74503e-06
9.85757e-06
1.25476e-05
1.38506e-05
1.26595e-05
1.17169e-05
1.1543e-05
1.08012e-05
1.03702e-05
1.00145e-05
9.61925e-06
9.29124e-06
8.80895e-06
8.79638e-06
7.93789e-06
8.24671e-06
1.0008e-05
1.13231e-05
1.0443e-05
9.13996e-06
8.17335e-06
8.85453e-06
1.01639e-05
8.10704e-06
7.46969e-06
7.68954e-06
8.76446e-06
8.83126e-06
8.71637e-06
8.83555e-06
7.94517e-06
7.16015e-06
7.57552e-06
8.10271e-06
7.639e-06
7.61936e-06
7.47719e-06
6.33215e-06
6.34914e-06
6.39778e-06
6.17756e-06
6.99311e-06
9.32219e-06
1.04123e-05
9.41174e-06
8.50121e-06
8.30571e-06
7.85161e-06
7.74042e-06
7.5744e-06
7.21814e-06
6.53346e-06
6.25249e-06
6.43441e-06
5.90767e-06
6.03349e-06
7.17976e-06
8.14939e-06
7.47935e-06
6.72469e-06
5.85197e-06
6.28326e-06
7.37639e-06
5.83704e-06
5.40358e-06
5.45956e-06
6.0599e-06
6.28771e-06
6.25822e-06
6.29918e-06
5.61382e-06
4.88106e-06
5.2822e-06
5.99829e-06
5.5826e-06
5.36801e-06
5.42259e-06
4.54005e-06
4.55468e-06
4.65201e-06
4.30061e-06
4.77963e-06
6.69133e-06
7.61361e-06
6.82675e-06
5.9418e-06
5.71633e-06
5.47579e-06
5.50602e-06
5.56945e-06
5.32204e-06
4.50813e-06
4.3461e-06
4.57175e-06
4.30282e-06
4.34591e-06
5.06981e-06
5.78058e-06
5.22697e-06
4.80996e-06
4.08975e-06
4.2992e-06
5.28436e-06
3.99533e-06
3.7153e-06
3.79005e-06
3.9823e-06
4.19071e-06
4.29117e-06
4.31922e-06
3.8605e-06
3.23364e-06
3.56613e-06
4.29323e-06
3.93492e-06
3.67501e-06
3.86564e-06
3.16539e-06
3.17038e-06
3.29149e-06
2.8821e-06
3.10092e-06
4.4996e-06
5.2416e-06
4.69755e-06
3.97804e-06
3.7679e-06
3.65781e-06
3.72937e-06
3.91994e-06
3.7811e-06
3.02984e-06
2.95266e-06
3.15789e-06
3.01079e-06
3.00603e-06
3.49322e-06
4.08721e-06
3.61641e-06
3.36359e-06
2.82196e-06
2.82851e-06
3.64014e-06
2.57521e-06
2.44827e-06
2.65313e-06
2.65172e-06
2.76751e-06
2.94798e-06
2.93834e-06
2.65104e-06
2.13979e-06
2.37606e-06
3.03342e-06
2.71013e-06
2.48984e-06
2.78517e-06
2.24772e-06
2.18999e-06
2.28969e-06
1.84938e-06
1.95193e-06
2.9209e-06
3.48778e-06
3.15512e-06
2.60818e-06
2.40588e-06
2.36572e-06
2.42941e-06
2.67576e-06
2.60403e-06
1.98596e-06
1.99464e-06
2.17586e-06
2.0646e-06
2.00345e-06
2.32142e-06
2.83612e-06
2.43537e-06
2.27149e-06
1.92264e-06
1.78713e-06
2.39053e-06
1.66474e-06
1.58167e-06
1.82074e-06
1.7333e-06
1.77242e-06
1.99417e-06
1.9904e-06
1.79081e-06
1.38631e-06
1.54682e-06
2.11013e-06
1.85409e-06
1.63751e-06
1.96716e-06
1.58062e-06
1.4765e-06
1.57262e-06
1.17049e-06
1.21242e-06
1.87385e-06
2.27773e-06
2.08271e-06
1.67858e-06
1.48322e-06
1.47904e-06
1.53818e-06
1.7816e-06
1.77082e-06
1.27158e-06
1.30002e-06
1.4751e-06
1.4104e-06
1.31637e-06
1.51897e-06
1.96465e-06
1.64043e-06
1.5079e-06
1.31909e-06
1.13543e-06
1.57375e-06
1.10393e-06
1.00265e-06
1.22136e-06
1.12277e-06
1.09557e-06
1.31009e-06
1.31926e-06
1.18927e-06
8.86955e-07
9.81645e-07
1.47056e-06
1.27951e-06
1.04883e-06
1.37706e-06
1.11353e-06
9.83663e-07
1.07634e-06
7.44368e-07
7.50626e-07
1.2052e-06
1.47252e-06
1.36214e-06
1.0617e-06
8.70662e-07
8.85438e-07
9.41224e-07
1.14583e-06
1.189e-06
7.98557e-07
8.3279e-07
9.94191e-07
9.67943e-07
8.65445e-07
9.75754e-07
1.35462e-06
1.11512e-06
9.75168e-07
8.918e-07
7.00125e-07
1.03052e-06
7.49109e-07
6.25289e-07
8.10473e-07
7.3136e-07
6.55858e-07
8.48925e-07
8.67498e-07
7.94931e-07
5.79508e-07
6.07566e-07
1.02148e-06
8.93391e-07
6.59261e-07
9.58767e-07
7.94598e-07
6.61195e-07
7.55089e-07
4.83478e-07
4.62565e-07
7.83777e-07
9.46908e-07
9.03855e-07
6.91567e-07
4.99443e-07
5.15331e-07
5.75455e-07
7.28373e-07
7.98004e-07
5.02419e-07
5.25463e-07
6.63486e-07
6.73058e-07
5.7914e-07
6.15679e-07
9.29814e-07
7.74673e-07
6.26857e-07
6.09845e-07
4.23123e-07
6.64554e-07
5.35349e-07
3.95219e-07
5.40817e-07
4.91003e-07
3.74794e-07
5.39431e-07
5.597e-07
5.33264e-07
4.01689e-07
3.77133e-07
7.14935e-07
6.36679e-07
4.08289e-07
6.67051e-07
5.79279e-07
4.48061e-07
5.48642e-07
3.30332e-07
2.90923e-07
5.24588e-07
6.01118e-07
6.02404e-07
4.66394e-07
2.82514e-07
2.88309e-07
3.54835e-07
4.59731e-07
5.3503e-07
3.25452e-07
3.36637e-07
4.46024e-07
4.74518e-07
4.09379e-07
3.93938e-07
6.39549e-07
5.52023e-07
4.07912e-07
4.26685e-07
2.56113e-07
4.36802e-07
4.0713e-07
2.57119e-07
3.66915e-07
3.52498e-07
2.1528e-07
3.42984e-07
3.61037e-07
3.62103e-07
3.03329e-07
2.43476e-07
4.99683e-07
4.64771e-07
2.57431e-07
4.73976e-07
4.34076e-07
3.10171e-07
4.21046e-07
2.46958e-07
1.89104e-07
3.64856e-07
3.83272e-07
4.0772e-07
3.43687e-07
1.72421e-07
1.66347e-07
2.31965e-07
2.98202e-07
3.64956e-07
2.23806e-07
2.27538e-07
3.07039e-07
3.38208e-07
3.12247e-07
2.65668e-07
4.43205e-07
4.05463e-07
2.75363e-07
3.11146e-07
1.61566e-07
2.9237e-07
3.31391e-07
1.78974e-07
2.59661e-07
2.75403e-07
1.31619e-07
2.22893e-07
2.36009e-07
2.44491e-07
2.41733e-07
1.71487e-07
3.54601e-07
3.45986e-07
1.69652e-07
3.47322e-07
3.33293e-07
2.21252e-07
3.36311e-07
2.02758e-07
1.32401e-07
2.69519e-07
2.52795e-07
2.81635e-07
2.75509e-07
1.22938e-07
1.07271e-07
1.66906e-07
2.03461e-07
2.59762e-07
1.70474e-07
1.68387e-07
2.25064e-07
2.4419e-07
2.55187e-07
1.97046e-07
3.12489e-07
3.08752e-07
1.94236e-07
2.37757e-07
1.12555e-07
1.9901e-07
2.80653e-07
1.37609e-07
1.86459e-07
2.29243e-07
9.58026e-08
1.53519e-07
1.61415e-07
1.66493e-07
1.93167e-07
1.30046e-07
2.57258e-07
2.5821e-07
1.21006e-07
2.63897e-07
2.58177e-07
1.59611e-07
2.7696e-07
1.76622e-07
1.00016e-07
2.10633e-07
1.74768e-07
1.97524e-07
2.31151e-07
1.06164e-07
8.57172e-08
1.36855e-07
1.47825e-07
1.93929e-07
1.43428e-07
1.3728e-07
1.81786e-07
1.80256e-07
2.14884e-07
1.63988e-07
2.25764e-07
2.44e-07
1.44773e-07
1.88509e-07
9.01425e-08
1.35608e-07
2.3768e-07
1.19152e-07
1.33525e-07
1.96092e-07
8.45927e-08
1.11474e-07
1.19527e-07
1.20261e-07
1.47217e-07
1.02843e-07
1.97683e-07
1.8977e-07
9.42074e-08
2.12964e-07
2.00528e-07
1.15753e-07
2.31023e-07
1.57556e-07
8.13149e-08
1.72579e-07
1.31419e-07
1.44763e-07
1.95457e-07
1.02949e-07
8.20124e-08
1.24668e-07
1.1815e-07
1.53676e-07
1.30497e-07
1.23319e-07
1.62421e-07
1.39219e-07
1.82972e-07
1.53011e-07
1.66907e-07
2.03116e-07
1.18629e-07
1.51379e-07
8.37456e-08
9.28011e-08
1.89975e-07
1.12996e-07
9.37951e-08
1.62345e-07
8.6258e-08
8.46533e-08
9.46181e-08
9.97805e-08
1.07451e-07
8.41165e-08
1.65807e-07
1.39842e-07
7.98902e-08
1.83912e-07
1.54377e-07
8.59776e-08
1.90246e-07
1.40292e-07
7.31541e-08
1.47267e-07
1.11043e-07
1.13168e-07
1.60981e-07
1.01216e-07
8.50026e-08
1.19735e-07
1.05053e-07
1.29651e-07
1.21578e-07
1.16328e-07
1.57846e-07
1.15523e-07
1.55943e-07
1.53805e-07
1.26826e-07
1.77925e-07
1.13239e-07
1.20283e-07
8.669e-08
6.61187e-08
1.38992e-07
1.12152e-07
6.92386e-08
1.25725e-07
9.592e-08
6.90113e-08
7.78337e-08
1.00233e-07
8.13728e-08
7.29915e-08
1.54875e-07
1.09572e-07
7.58148e-08
1.67575e-07
1.21478e-07
7.27843e-08
1.57288e-07
1.25474e-07
7.56046e-08
1.28407e-07
1.05465e-07
9.93297e-08
1.3267e-07
9.97271e-08
8.90058e-08
1.14392e-07
1.00423e-07
1.17806e-07
1.13424e-07
1.09186e-07
1.60787e-07
1.04628e-07
1.32492e-07
1.61803e-07
1.02906e-07
1.60028e-07
1.25519e-07
9.51947e-08
9.58167e-08
5.84682e-08
9.54912e-08
1.13408e-07
6.1657e-08
9.1819e-08
1.09e-07
6.49954e-08
6.74218e-08
1.11976e-07
6.96246e-08
7.00653e-08
1.54985e-07
9.26645e-08
7.93991e-08
1.56419e-07
1.00498e-07
7.51024e-08
1.32261e-07
1.15315e-07
8.59529e-08
1.12504e-07
1.08307e-07
9.83521e-08
1.14095e-07
1.02138e-07
9.26456e-08
1.09507e-07
9.90638e-08
1.13193e-07
1.07506e-07
9.94256e-08
1.60586e-07
1.02274e-07
1.11392e-07
1.69583e-07
9.16355e-08
1.40386e-07
1.45142e-07
7.94128e-08
1.04192e-07
7.01129e-08
7.01282e-08
1.17147e-07
6.85037e-08
6.92124e-08
1.19053e-07
6.9625e-08
6.4556e-08
1.22346e-07
6.74647e-08
7.36779e-08
1.52763e-07
8.07685e-08
8.3458e-08
1.43488e-07
8.78517e-08
8.34891e-08
1.12746e-07
1.1114e-07
9.77195e-08
9.95966e-08
1.17309e-07
1.042e-07
1.08715e-07
1.12325e-07
9.80585e-08
1.08798e-07
9.90285e-08