/*--------------------------------*- C++ -*----------------------------------*\
  =========                 |
  \\      /  F ield         | OpenFOAM: The Open Source CFD Toolbox
   \\    /   O peration     | Website:  https://openfoam.org
    \\  /    A nd           | Version:  10
     \\/     M anipulation  |
\*---------------------------------------------------------------------------*/
FoamFile
{
    format      ascii;
    class       volVectorField;
    location    "11";
    object      UMean;
}
// * * * * * * * * * * * * * * * * * * * * * * * * * * * * * * * * * * * * * //

dimensions      [0 1 -1 0 0 0 0];

internalField   nonuniform List<vector> 
25600
(
(0.0929556 4.94715e-05 -0.000237762)
(0.0916758 2.74603e-05 0.000109562)
(0.0913804 2.41389e-05 0.000142307)
(0.0916366 3.14128e-05 4.32009e-05)
(0.0916541 3.88816e-05 6.64484e-05)
(0.0897575 4.79175e-05 0.000907505)
(0.0887464 5.27962e-05 0.00183565)
(0.087503 4.58452e-05 0.00271032)
(0.0874936 2.15534e-05 0.00254153)
(0.0874918 9.44032e-06 0.00181655)
(0.087581 4.26486e-05 0.000844071)
(0.0871371 4.7562e-05 0.000465154)
(0.0866766 2.97689e-05 -0.000690384)
(0.087049 1.66418e-05 -0.00130996)
(0.0876354 1.28834e-05 -0.0014603)
(0.0871606 2.18854e-05 -0.0012306)
(0.0869998 2.47058e-05 -0.00040146)
(0.0861503 2.54073e-05 -0.000472045)
(0.0868002 2.76447e-05 -0.00137934)
(0.0860826 3.03874e-05 -0.00183191)
(0.0863037 3.85056e-05 -0.00172099)
(0.0860928 3.35641e-05 -0.000899538)
(0.0880255 6.59811e-06 -0.00061973)
(0.0879322 -1.56668e-06 -0.000839791)
(0.0891088 -3.92685e-06 -0.00127874)
(0.089145 2.82247e-05 -0.0013763)
(0.0890532 5.08669e-05 -0.00106127)
(0.0886006 3.20216e-05 -0.00128379)
(0.0891168 1.78063e-05 -0.00183314)
(0.0887646 2.46713e-05 -0.0017431)
(0.0899684 1.03269e-05 -0.00170882)
(0.0894374 2.78984e-05 -0.00184369)
(0.0907724 2.94591e-05 -0.00195608)
(0.0900552 1.73715e-05 -0.00122267)
(0.0922714 2.32881e-05 -0.00104585)
(0.0907415 2.62647e-05 -0.000833271)
(0.093024 2.78253e-05 -0.00052788)
(0.0919825 1.17244e-05 0.000213332)
(0.0937585 2.4525e-06 -0.0007042)
(0.0927625 1.96883e-05 -0.00046175)
(0.274622 0.000266552 -0.00198754)
(0.271295 0.000255676 -0.000853906)
(0.269685 0.000135109 0.000186009)
(0.270589 0.000125846 0.000746919)
(0.271165 0.000323802 0.0002914)
(0.266123 0.000415702 0.00189934)
(0.262951 0.000520417 0.00348607)
(0.258638 0.000510977 0.00550191)
(0.258653 0.000358455 0.00545403)
(0.257537 0.000241087 0.00421918)
(0.257474 0.000372969 0.00205192)
(0.256523 0.000468229 0.00143982)
(0.255282 0.000462361 -0.000760443)
(0.256342 0.000340367 -0.00214066)
(0.257388 0.000294923 -0.00305952)
(0.256153 0.000340479 -0.00276467)
(0.255937 0.000385635 -0.00113281)
(0.253025 0.000472739 -0.00083193)
(0.254893 0.000481308 -0.00248889)
(0.253139 0.000485756 -0.00328646)
(0.254195 0.000405935 -0.00400212)
(0.253992 0.000353924 -0.0029474)
(0.259056 0.000234214 -0.00248115)
(0.258182 0.000225961 -0.00247127)
(0.261417 9.92211e-05 -0.00329188)
(0.26182 0.000265254 -0.00351657)
(0.262366 0.000413552 -0.00291534)
(0.261645 0.00035935 -0.00298926)
(0.262846 0.000379921 -0.00408049)
(0.26207 0.000352084 -0.00395381)
(0.265462 0.000300417 -0.00403069)
(0.263098 0.000322897 -0.00421734)
(0.267408 0.000324256 -0.00459316)
(0.264983 0.000226891 -0.00298418)
(0.272209 0.000158203 -0.0029532)
(0.267581 0.000197592 -0.00256302)
(0.27474 0.000204563 -0.00206564)
(0.271668 0.00017122 -3.66791e-05)
(0.276444 0.000109119 -0.00166635)
(0.272824 0.000134353 -0.0016641)
(0.445809 0.00061757 -0.00416294)
(0.442885 0.000558324 -0.00286528)
(0.44243 0.000387472 -0.00138094)
(0.440096 0.000397149 0.000602928)
(0.441712 0.000873663 -2.23456e-05)
(0.434798 0.00109604 0.00164132)
(0.429818 0.00129695 0.00247931)
(0.422251 0.00131167 0.00448636)
(0.422416 0.00108967 0.00451945)
(0.419124 0.000886782 0.00391907)
(0.419399 0.00110093 0.00186125)
(0.416756 0.00128718 0.00165245)
(0.415632 0.00138234 -0.00108514)
(0.416514 0.00123681 -0.00254552)
(0.417475 0.00112079 -0.00427598)
(0.416032 0.0012176 -0.00410873)
(0.415488 0.00122137 -0.00238719)
(0.411402 0.00144527 -0.00141834)
(0.414309 0.00153637 -0.00342557)
(0.411071 0.00150347 -0.0040137)
(0.414573 0.00122312 -0.00502932)
(0.411882 0.00103845 -0.00471617)
(0.42077 0.00078956 -0.00475779)
(0.41893 0.000910874 -0.00479621)
(0.423871 0.00061869 -0.00590407)
(0.422596 0.000790201 -0.00586887)
(0.428451 0.000987157 -0.00491172)
(0.424968 0.00103379 -0.00460964)
(0.429107 0.00111182 -0.00673896)
(0.427351 0.00108905 -0.00651986)
(0.431943 0.000933307 -0.00625855)
(0.428994 0.000924336 -0.00563533)
(0.435377 0.000957232 -0.00656)
(0.430972 0.000785066 -0.00474288)
(0.441142 0.000561779 -0.00519546)
(0.435594 0.000525915 -0.00447942)
(0.447339 0.000528909 -0.00413908)
(0.442322 0.000490442 -0.00151645)
(0.451458 0.000403719 -0.00329073)
(0.444062 0.000518291 -0.00273328)
(0.593914 0.00138501 -0.00561004)
(0.589665 0.00120758 -0.00544948)
(0.592781 0.00106226 -0.00460516)
(0.584237 0.00119158 -0.00250276)
(0.588103 0.00179407 -0.00343947)
(0.579642 0.00218513 -0.00224576)
(0.576242 0.00254426 -0.0025371)
(0.564345 0.00247727 -0.001549)
(0.566133 0.00221726 -0.00210663)
(0.559848 0.00209534 -0.0014735)
(0.561203 0.00235586 -0.00217807)
(0.556699 0.00265444 -0.000652971)
(0.554911 0.00283325 -0.00287103)
(0.555348 0.00292075 -0.00376954)
(0.555949 0.00277994 -0.00645479)
(0.555566 0.00287815 -0.00644755)
(0.553888 0.00292791 -0.00508521)
(0.549761 0.00310547 -0.00298837)
(0.552375 0.00327539 -0.00534247)
(0.549998 0.00339401 -0.00518653)
(0.550649 0.00270675 -0.00589329)
(0.549688 0.00239913 -0.00551173)
(0.555898 0.00187344 -0.00601415)
(0.558211 0.0020924 -0.00699514)
(0.560479 0.00175852 -0.00910694)
(0.560827 0.00181539 -0.00848363)
(0.567754 0.00194611 -0.00775899)
(0.566457 0.00196723 -0.00663531)
(0.574803 0.00213946 -0.00999873)
(0.571821 0.00232646 -0.010343)
(0.577132 0.0022374 -0.0098551)
(0.571967 0.00204239 -0.00742993)
(0.582408 0.00191773 -0.00823405)
(0.575699 0.00163695 -0.006803)
(0.589799 0.00136084 -0.00852815)
(0.583348 0.00115453 -0.00831808)
(0.597477 0.00105134 -0.00702021)
(0.593116 0.00105586 -0.00451032)
(0.603725 0.00103842 -0.00600846)
(0.591754 0.00142949 -0.00448666)
(0.706428 0.00278041 -0.00738109)
(0.701327 0.00261388 -0.00763124)
(0.706224 0.00280977 -0.00782295)
(0.694097 0.00298 -0.0080667)
(0.69787 0.00334129 -0.0105385)
(0.689424 0.00385654 -0.0105874)
(0.688972 0.00446038 -0.0109438)
(0.676235 0.00455827 -0.0112974)
(0.677371 0.00410149 -0.0121275)
(0.670319 0.00407309 -0.0103657)
(0.673727 0.00438431 -0.00947395)
(0.66715 0.00467018 -0.00615821)
(0.666997 0.00479084 -0.00611488)
(0.66256 0.0051889 -0.00529938)
(0.666609 0.00516466 -0.00768436)
(0.664456 0.00539216 -0.00871437)
(0.664546 0.00543728 -0.0075607)
(0.660673 0.00554224 -0.00507298)
(0.66103 0.00567432 -0.00736235)
(0.660039 0.00603655 -0.0069841)
(0.661035 0.00508121 -0.00675875)
(0.657051 0.00451288 -0.00537139)
(0.664848 0.00381815 -0.00560747)
(0.663384 0.0039996 -0.00711497)
(0.66883 0.00367387 -0.00977855)
(0.663573 0.00357285 -0.0100775)
(0.676454 0.00360857 -0.00968953)
(0.672605 0.00339569 -0.00834816)
(0.687121 0.00359395 -0.0118854)
(0.680277 0.00395928 -0.0134796)
(0.693312 0.00397125 -0.0133289)
(0.684669 0.00390758 -0.00950137)
(0.699673 0.00353449 -0.00992396)
(0.689532 0.00324166 -0.00845697)
(0.7053 0.00269781 -0.0113682)
(0.701588 0.00257659 -0.0122192)
(0.712763 0.00224356 -0.0113997)
(0.708075 0.00236209 -0.00912149)
(0.71791 0.00235508 -0.0105134)
(0.705752 0.003125 -0.00827555)
(0.78585 0.00488047 -0.00925295)
(0.780529 0.00482413 -0.00870426)
(0.784161 0.00537981 -0.00986704)
(0.777085 0.00572141 -0.0116937)
(0.774028 0.00555572 -0.0153586)
(0.768635 0.00589308 -0.0160731)
(0.768951 0.00640278 -0.0149073)
(0.760435 0.00665755 -0.0142924)
(0.761642 0.00598434 -0.0148831)
(0.754228 0.00613579 -0.0130837)
(0.755404 0.00639507 -0.0113445)
(0.756066 0.0069245 -0.00814346)
(0.750253 0.00706292 -0.00678841)
(0.74945 0.00765443 -0.0037591)
(0.746507 0.00759155 -0.0048364)
(0.749734 0.0079964 -0.00571678)
(0.745485 0.00809085 -0.00635578)
(0.740406 0.00812121 -0.0054438)
(0.737522 0.00818303 -0.00752573)
(0.736079 0.00855792 -0.00816992)
(0.739547 0.00744546 -0.006779)
(0.73933 0.00678345 -0.00418721)
(0.744266 0.00600157 -0.00322233)
(0.744633 0.00612691 -0.00530607)
(0.749728 0.00592618 -0.00733085)
(0.744079 0.00580412 -0.0080301)
(0.756303 0.00563738 -0.00908312)
(0.755741 0.00531986 -0.00756667)
(0.766761 0.00548057 -0.0106998)
(0.765094 0.00563764 -0.0123288)
(0.773739 0.00546921 -0.0132343)
(0.769054 0.00553836 -0.00823252)
(0.783943 0.00525785 -0.00776744)
(0.777366 0.00531245 -0.00643127)
(0.787753 0.00443345 -0.00882222)
(0.788717 0.00431623 -0.00969926)
(0.79382 0.00390499 -0.0110188)
(0.788325 0.00422243 -0.00954118)
(0.792493 0.00402112 -0.0122785)
(0.787403 0.00518622 -0.0109368)
(0.838332 0.00640795 -0.00455534)
(0.83504 0.00677489 -0.00562474)
(0.833049 0.00700082 -0.00764527)
(0.833422 0.00786549 -0.0100679)
(0.827959 0.00746647 -0.0129832)
(0.825064 0.0075251 -0.0129946)
(0.823514 0.00752598 -0.0099732)
(0.822793 0.00782157 -0.00613909)
(0.818093 0.00717158 -0.00622008)
(0.813627 0.00757434 -0.00445617)
(0.808001 0.00762918 -0.00327591)
(0.81384 0.00823941 -0.000699387)
(0.808361 0.00847771 -0.000148294)
(0.814358 0.00933368 0.0024733)
(0.806871 0.00960439 0.00233329)
(0.811695 0.00981106 0.00183728)
(0.810262 0.0101571 -0.000543018)
(0.804131 0.0101011 -0.00149777)
(0.799713 0.0102711 -0.00462557)
(0.797527 0.0105226 -0.00650196)
(0.804344 0.00930497 -0.00616667)
(0.802851 0.00840537 -0.00234584)
(0.814582 0.00769388 -0.000464963)
(0.808165 0.00768875 -0.00141626)
(0.823225 0.00771038 -0.00182976)
(0.812185 0.00753115 -0.00208223)
(0.829369 0.00734356 -0.00317802)
(0.819155 0.00691689 -0.00192598)
(0.833534 0.00706954 -0.00297906)
(0.824691 0.00691439 -0.00510647)
(0.835364 0.006641 -0.00371115)
(0.825009 0.00662693 -0.000841914)
(0.837823 0.00663712 0.000811323)
(0.828886 0.00715167 0.00132292)
(0.836428 0.00629826 0.00304838)
(0.831951 0.00609529 0.00210434)
(0.835683 0.00573732 0.000592873)
(0.830616 0.00613959 0.0003554)
(0.833631 0.00563574 -0.00362482)
(0.835262 0.00666716 -0.00600366)
(0.86956 0.00670398 0.00570855)
(0.872751 0.00729262 0.00502259)
(0.865493 0.00714109 0.00258139)
(0.872381 0.00851457 0.000576492)
(0.866042 0.00847914 -0.00112421)
(0.866412 0.00838084 -0.000785052)
(0.865753 0.0076709 0.000350207)
(0.868247 0.00814771 0.00428355)
(0.864467 0.00796029 0.00429694)
(0.859691 0.00836162 0.00535885)
(0.853948 0.00807804 0.00585185)
(0.859176 0.00801272 0.00864459)
(0.855535 0.0081142 0.0082821)
(0.859018 0.00886648 0.00952605)
(0.854725 0.00923484 0.0084379)
(0.859259 0.0092337 0.00772201)
(0.861429 0.0102083 0.00611722)
(0.856565 0.0102492 0.00507174)
(0.855719 0.010561 0.00273822)
(0.852886 0.0108189 0.000344566)
(0.861411 0.00983533 -2.41305e-05)
(0.857153 0.0086565 0.0027971)
(0.870501 0.00842934 0.00534708)
(0.862475 0.00852933 0.00448322)
(0.881145 0.00879283 0.00538307)
(0.868953 0.00844099 0.00585564)
(0.882875 0.00806742 0.00592939)
(0.871889 0.0076658 0.00726242)
(0.879327 0.00771205 0.0077294)
(0.86985 0.00799232 0.0066901)
(0.87186 0.0076565 0.0101842)
(0.866108 0.00761705 0.012311)
(0.869454 0.00724566 0.0120833)
(0.866645 0.00775748 0.0132495)
(0.861839 0.00674321 0.0175378)
(0.865461 0.00642111 0.0171551)
(0.862845 0.00607772 0.0150385)
(0.862309 0.00669165 0.014168)
(0.861201 0.00596035 0.00965193)
(0.86975 0.00696444 0.00599692)
(0.9081 0.00614181 0.0182145)
(0.910982 0.00650401 0.0187254)
(0.90751 0.00629877 0.0165761)
(0.910801 0.00732626 0.0145495)
(0.910404 0.00773593 0.0131741)
(0.907605 0.0074564 0.0116734)
(0.911115 0.00661569 0.00950654)
(0.913526 0.00695655 0.00952183)
(0.915834 0.00708554 0.0081345)
(0.911848 0.00760532 0.00883349)
(0.907533 0.00733599 0.00958229)
(0.907618 0.00653464 0.0125394)
(0.907545 0.00647356 0.0133871)
(0.905413 0.00697535 0.0121498)
(0.905343 0.00721802 0.0132677)
(0.900786 0.00699169 0.0118364)
(0.905454 0.00818643 0.0135588)
(0.901968 0.00834319 0.0140004)
(0.903646 0.0088228 0.0137141)
(0.89967 0.009144 0.0119124)
(0.914134 0.00831218 0.0119073)
(0.906049 0.00724732 0.0128308)
(0.918102 0.00727532 0.0143149)
(0.910072 0.00745385 0.0132021)
(0.924746 0.00773019 0.0125181)
(0.916817 0.00755511 0.0124772)
(0.924708 0.00671969 0.0122043)
(0.921598 0.00632514 0.0118433)
(0.92247 0.00622629 0.0128874)
(0.917543 0.00690625 0.0129213)
(0.915921 0.0069368 0.017322)
(0.914205 0.00699068 0.0195995)
(0.912499 0.00639847 0.0173535)
(0.913785 0.00708461 0.0182013)
(0.905688 0.00623545 0.0227695)
(0.912409 0.00587144 0.0232377)
(0.905355 0.00564692 0.0222691)
(0.907647 0.00635361 0.0230313)
(0.901643 0.00559831 0.0210589)
(0.907783 0.00636389 0.0187262)
(0.957489 0.00280636 0.0222404)
(0.955767 0.00332467 0.0231776)
(0.958521 0.00325369 0.021689)
(0.955433 0.00358254 0.0186578)
(0.961375 0.00379896 0.0173033)
(0.954637 0.00347484 0.0149009)
(0.95692 0.00260495 0.0115839)
(0.956695 0.00295885 0.00876293)
(0.960402 0.00349491 0.00622379)
(0.957506 0.00433377 0.00686435)
(0.958212 0.00450608 0.00718425)
(0.95658 0.00337002 0.00940891)
(0.959572 0.00330123 0.0109225)
(0.955388 0.00348034 0.00912846)
(0.956203 0.00366962 0.0114024)
(0.946949 0.00300011 0.0110461)
(0.950576 0.00329834 0.0136851)
(0.945161 0.00342112 0.0152818)
(0.943836 0.00407776 0.0152742)
(0.937408 0.00406713 0.0145763)
(0.954242 0.00336594 0.0156976)
(0.946889 0.00311351 0.015816)
(0.955206 0.00315239 0.0156894)
(0.946796 0.00365139 0.0145726)
(0.95566 0.00366003 0.0113364)
(0.951263 0.00418695 0.0117006)
(0.955463 0.00320184 0.0107732)
(0.958951 0.00263423 0.0103946)
(0.957734 0.0026894 0.0115267)
(0.959126 0.00329681 0.0133254)
(0.959483 0.00336724 0.014996)
(0.961584 0.00358337 0.0179698)
(0.958634 0.00310826 0.0155165)
(0.961364 0.00384717 0.0158473)
(0.954847 0.0032446 0.0185238)
(0.95953 0.00287478 0.0211911)
(0.95493 0.00269371 0.0213857)
(0.955874 0.00310283 0.023825)
(0.952576 0.00275521 0.023918)
(0.954684 0.00288244 0.0231151)
(1.0064 -0.00268517 0.0151871)
(1.00442 -0.00193505 0.0166124)
(1.00537 -0.00152093 0.0162478)
(0.999452 -0.00112125 0.0142828)
(1.00209 -0.000980799 0.0140173)
(0.997566 -0.00089017 0.0139092)
(0.993444 -0.00205269 0.0129334)
(0.990573 -0.00191495 0.012192)
(0.991743 -0.00105065 0.0107268)
(0.989879 -6.84667e-06 0.0106775)
(0.989629 0.000301838 0.00949368)
(0.991486 -0.000706817 0.00862726)
(0.993329 -0.000681399 0.00927376)
(0.993299 -0.000426805 0.00664423)
(0.991805 -0.000159038 0.00723611)
(0.983855 -0.000741385 0.00678914)
(0.982772 -0.000869657 0.00892066)
(0.980408 -0.000470763 0.010969)
(0.978021 5.36816e-06 0.0113989)
(0.971492 -0.000357454 0.0106348)
(0.981723 -0.00118453 0.0119379)
(0.980122 -0.00102081 0.0123673)
(0.983548 -0.001255 0.0127697)
(0.976934 -0.000774343 0.0119236)
(0.979852 -0.00108596 0.0106187)
(0.977914 -0.000182025 0.012792)
(0.977759 -0.00111536 0.014784)
(0.983216 -0.00173835 0.0163893)
(0.981083 -0.00122396 0.017099)
(0.986625 -0.000394597 0.0176652)
(0.989481 -0.000609732 0.0153061)
(0.995298 -0.000510926 0.0161117)
(0.99426 -0.00114493 0.0139846)
(0.999807 -0.00102181 0.0119234)
(0.998855 -0.00152509 0.011955)
(1.00166 -0.00214625 0.013488)
(1.00041 -0.00270829 0.0136925)
(1.00208 -0.0025273 0.0148781)
(1.00228 -0.00244267 0.0157116)
(1.00338 -0.0027621 0.0158383)
(1.02785 -0.0060934 0.0125617)
(1.02853 -0.00552543 0.0130774)
(1.03015 -0.0049972 0.0137002)
(1.02776 -0.00475338 0.013515)
(1.02739 -0.00441628 0.0135074)
(1.02528 -0.00379184 0.0140112)
(1.02197 -0.00422144 0.0148397)
(1.01644 -0.00441485 0.0154822)
(1.01564 -0.00427782 0.0144671)
(1.01397 -0.00380452 0.0134628)
(1.01231 -0.00399696 0.0118907)
(1.01346 -0.00518376 0.00973012)
(1.01199 -0.00531618 0.00941476)
(1.01077 -0.00504331 0.00701626)
(1.00925 -0.00442226 0.00665415)
(1.00318 -0.00433214 0.00550399)
(1.00151 -0.00467384 0.00669643)
(1.00145 -0.00432681 0.00929589)
(1.00175 -0.00398809 0.0101458)
(0.998776 -0.00437896 0.00942099)
(1.00291 -0.00521447 0.0103377)
(1.00412 -0.00466046 0.0112592)
(1.00607 -0.00462693 0.0120271)
(1.00368 -0.00395165 0.0127562)
(1.00544 -0.00466328 0.0132812)
(1.00754 -0.00377366 0.0143763)
(1.008 -0.0048723 0.0157919)
(1.011 -0.00583016 0.0156453)
(1.00948 -0.0059304 0.0148899)
(1.01179 -0.00541642 0.014432)
(1.01329 -0.00565065 0.0119837)
(1.01718 -0.00533254 0.0112684)
(1.01661 -0.00556922 0.0106931)
(1.01995 -0.00548104 0.00905564)
(1.0219 -0.00576371 0.00918846)
(1.02398 -0.0059654 0.00986079)
(1.02313 -0.00616511 0.0100768)
(1.02566 -0.00602167 0.010296)
(1.02828 -0.00600583 0.0117193)
(1.02853 -0.00617332 0.0120225)
(1.03232 -0.00877597 0.00595983)
(1.03241 -0.00840424 0.00622647)
(1.03438 -0.00826505 0.00652228)
(1.03494 -0.00836736 0.00600171)
(1.03554 -0.00820115 0.0056698)
(1.03475 -0.00765936 0.00527638)
(1.03421 -0.00766009 0.00544806)
(1.02988 -0.00738411 0.00587668)
(1.02925 -0.00781614 0.00531153)
(1.02891 -0.0075273 0.00493713)
(1.02818 -0.00758269 0.00394304)
(1.02875 -0.00826823 0.00300521)
(1.02665 -0.00835972 0.00318947)
(1.02531 -0.00800909 0.00198072)
(1.02456 -0.00746014 0.00213878)
(1.02252 -0.00707917 0.0020196)
(1.02143 -0.00790312 0.00269169)
(1.02335 -0.00782681 0.00459356)
(1.02389 -0.00753376 0.00469453)
(1.02349 -0.00788591 0.00331233)
(1.02353 -0.00875371 0.003246)
(1.02339 -0.00818039 0.00441019)
(1.02453 -0.00783288 0.0046232)
(1.02392 -0.00700936 0.00575426)
(1.0259 -0.00771473 0.00554408)
(1.02832 -0.00689983 0.00538459)
(1.02977 -0.00774762 0.00548124)
(1.03193 -0.00848634 0.00431558)
(1.03224 -0.00884998 0.00370481)
(1.03188 -0.00882439 0.00332131)
(1.03065 -0.0088817 0.00182867)
(1.03202 -0.00832648 0.00125079)
(1.0318 -0.00854278 0.00151303)
(1.03226 -0.00868427 0.000727638)
(1.03355 -0.00893705 0.00105999)
(1.03429 -0.00869148 0.00213148)
(1.03366 -0.00868033 0.00271778)
(1.03408 -0.00875302 0.00325563)
(1.03554 -0.00908014 0.00454578)
(1.03468 -0.00871852 0.00433179)
(1.03395 -0.00898238 -0.00528996)
(1.03329 -0.00877838 -0.00470772)
(1.03397 -0.0087097 -0.00497416)
(1.03415 -0.00892234 -0.00579517)
(1.0345 -0.00881332 -0.00592146)
(1.03416 -0.00836671 -0.00601261)
(1.03378 -0.00827944 -0.00572614)
(1.0319 -0.00762911 -0.00449458)
(1.03181 -0.00824725 -0.00359398)
(1.03209 -0.00815901 -0.00261194)
(1.03136 -0.00820641 -0.00250765)
(1.03115 -0.00877266 -0.00226846)
(1.02955 -0.00908068 -0.0015867)
(1.02968 -0.00877947 -0.0021962)
(1.02958 -0.00843835 -0.00214536)
(1.03055 -0.00796989 -0.00248099)
(1.03053 -0.00874579 -0.0027371)
(1.03245 -0.00873598 -0.00192121)
(1.03284 -0.00832664 -0.00220931)
(1.03352 -0.00836006 -0.00411038)
(1.03282 -0.00897483 -0.00490269)
(1.03186 -0.00859065 -0.00439028)
(1.03227 -0.00836225 -0.00417983)
(1.0315 -0.00748052 -0.00354726)
(1.03192 -0.00795931 -0.0034415)
(1.0323 -0.0072581 -0.00340277)
(1.03222 -0.00756559 -0.00312359)
(1.03292 -0.00787294 -0.00339562)
(1.03318 -0.00812313 -0.00377003)
(1.03301 -0.00806551 -0.00452824)
(1.03213 -0.00809055 -0.00567022)
(1.03314 -0.00784716 -0.00594268)
(1.03361 -0.00821034 -0.00592364)
(1.03401 -0.00866911 -0.00669445)
(1.03501 -0.00890293 -0.00675704)
(1.03526 -0.00864155 -0.00619658)
(1.03489 -0.00868991 -0.0062289)
(1.03538 -0.00888478 -0.0058752)
(1.03579 -0.00918343 -0.00550271)
(1.0353 -0.00869167 -0.00611414)
(1.02942 -0.007475 -0.00696027)
(1.02923 -0.00743204 -0.00656166)
(1.02947 -0.00745341 -0.00680999)
(1.02941 -0.00767353 -0.00747647)
(1.02915 -0.0074827 -0.00737212)
(1.02867 -0.00707618 -0.00720388)
(1.02802 -0.00708173 -0.00699491)
(1.02754 -0.00649106 -0.00621134)
(1.02779 -0.00703756 -0.0055441)
(1.02799 -0.00689553 -0.00497793)
(1.02736 -0.00681063 -0.00467401)
(1.02726 -0.00713876 -0.00461393)
(1.02644 -0.00747125 -0.00404691)
(1.02714 -0.00727951 -0.00477195)
(1.02693 -0.00705286 -0.00488909)
(1.02824 -0.00670167 -0.00556291)
(1.02872 -0.00732566 -0.00612906)
(1.03004 -0.00758469 -0.00564452)
(1.02998 -0.00735728 -0.0053444)
(1.03075 -0.00749442 -0.00665039)
(1.03005 -0.00797415 -0.00701348)
(1.0294 -0.00779646 -0.00680884)
(1.02936 -0.00771233 -0.00655358)
(1.02863 -0.00680704 -0.00627236)
(1.02855 -0.00710343 -0.00608066)
(1.02839 -0.00647805 -0.00635274)
(1.02815 -0.00664905 -0.0060628)
(1.02807 -0.00684302 -0.00612178)
(1.02741 -0.007039 -0.00619097)
(1.02725 -0.00696681 -0.00662815)
(1.02656 -0.00708149 -0.00727775)
(1.02707 -0.00688363 -0.00739916)
(1.02726 -0.00721009 -0.00700915)
(1.0277 -0.00751259 -0.00742171)
(1.02826 -0.00774549 -0.00745291)
(1.02861 -0.00743809 -0.00733021)
(1.02842 -0.00749598 -0.00730182)
(1.02919 -0.00757373 -0.00716149)
(1.02948 -0.00772954 -0.00694055)
(1.02977 -0.00724792 -0.00727869)
(1.0264 -0.00531214 -0.00650405)
(1.0264 -0.00532879 -0.00627784)
(1.02646 -0.00537327 -0.00626148)
(1.02646 -0.00560584 -0.00677198)
(1.0261 -0.00550344 -0.00680015)
(1.02582 -0.00516657 -0.00668378)
(1.02542 -0.00528765 -0.00660961)
(1.02523 -0.00478241 -0.00632111)
(1.02553 -0.00512153 -0.00608395)
(1.02546 -0.00488676 -0.00587761)
(1.02529 -0.0046945 -0.00565453)
(1.02554 -0.0048321 -0.00592349)
(1.02522 -0.00513405 -0.00550023)
(1.02566 -0.00511686 -0.00610608)
(1.02525 -0.00499844 -0.00606751)
(1.02603 -0.00485964 -0.00652653)
(1.0267 -0.0053568 -0.00687666)
(1.02745 -0.00578388 -0.00659593)
(1.02742 -0.00559625 -0.00603284)
(1.02811 -0.0058074 -0.00668376)
(1.02787 -0.0061145 -0.00680738)
(1.02751 -0.00609148 -0.00667139)
(1.02739 -0.00605208 -0.00657928)
(1.02699 -0.00537294 -0.00651944)
(1.02713 -0.00560447 -0.00649043)
(1.02707 -0.00518781 -0.00689098)
(1.02729 -0.00527814 -0.00674307)
(1.02711 -0.00537697 -0.00675429)
(1.02647 -0.0053614 -0.00661874)
(1.02633 -0.00533229 -0.00677904)
(1.02596 -0.00525724 -0.00726572)
(1.0261 -0.00502836 -0.00744424)
(1.02618 -0.00524184 -0.00697686)
(1.02622 -0.00553539 -0.00722056)
(1.02619 -0.00576792 -0.00719219)
(1.02618 -0.0055018 -0.00713916)
(1.026 -0.00545852 -0.00705476)
(1.02629 -0.00544045 -0.00692675)
(1.02625 -0.00554175 -0.00662095)
(1.02644 -0.00513797 -0.00680177)
(1.02397 -0.00393369 -0.00474995)
(1.02393 -0.00392853 -0.00451175)
(1.02396 -0.00392952 -0.00432455)
(1.02396 -0.00418715 -0.00463517)
(1.02362 -0.00405176 -0.00471252)
(1.02354 -0.00370463 -0.00462513)
(1.02337 -0.0038165 -0.00456907)
(1.0232 -0.00334725 -0.00438765)
(1.02341 -0.00349352 -0.00422539)
(1.02312 -0.00326872 -0.00402804)
(1.02317 -0.00312803 -0.00380816)
(1.02353 -0.00327677 -0.00410454)
(1.02334 -0.0034835 -0.00380678)
(1.02359 -0.00355752 -0.00417036)
(1.02329 -0.00343442 -0.0041427)
(1.02363 -0.00330274 -0.0044334)
(1.02424 -0.00360619 -0.00465936)
(1.02457 -0.00401047 -0.00448712)
(1.02445 -0.00384398 -0.00404113)
(1.02489 -0.00394716 -0.00435805)
(1.02477 -0.0042151 -0.0044577)
(1.02454 -0.00424413 -0.00437776)
(1.02442 -0.00435848 -0.00440899)
(1.02421 -0.00388884 -0.0044695)
(1.02437 -0.00403695 -0.00440267)
(1.02451 -0.00372349 -0.00467214)
(1.02494 -0.00385296 -0.00461975)
(1.0249 -0.00384749 -0.00461101)
(1.02458 -0.00377164 -0.00446912)
(1.02463 -0.00378413 -0.00460321)
(1.02448 -0.00371751 -0.0050339)
(1.02456 -0.00354971 -0.00522846)
(1.02473 -0.00374863 -0.00496013)
(1.02464 -0.00413644 -0.00517678)
(1.02439 -0.00433573 -0.00513163)
(1.02423 -0.00413835 -0.00510836)
(1.02412 -0.00405195 -0.00520344)
(1.02419 -0.0040387 -0.00513433)
(1.02393 -0.00412051 -0.00481163)
(1.02393 -0.0038547 -0.00500135)
(1.0237 -0.00255531 -0.0028201)
(1.02361 -0.00254163 -0.00263842)
(1.02367 -0.00248179 -0.0025052)
(1.02367 -0.00272568 -0.0026856)
(1.02337 -0.00263306 -0.00276793)
(1.02336 -0.00231443 -0.00269381)
(1.02329 -0.00241397 -0.00268571)
(1.02311 -0.00203166 -0.00257676)
(1.02323 -0.00206714 -0.00249153)
(1.02294 -0.00187751 -0.00235112)
(1.02309 -0.00179965 -0.00213593)
(1.02342 -0.00196563 -0.00237061)
(1.02328 -0.00205233 -0.00218082)
(1.02339 -0.00214533 -0.00236079)
(1.02322 -0.00200318 -0.00230293)
(1.02332 -0.00191962 -0.00245149)
(1.02373 -0.00212828 -0.00257891)
(1.02378 -0.0025048 -0.00243991)
(1.02357 -0.00241032 -0.00207972)
(1.02376 -0.00250484 -0.00218389)
(1.02365 -0.00275606 -0.00226038)
(1.02345 -0.00275099 -0.00221296)
(1.02342 -0.00291974 -0.00227098)
(1.02333 -0.00258582 -0.00237574)
(1.02347 -0.0026516 -0.00228078)
(1.0236 -0.00242292 -0.00239736)
(1.02396 -0.00257401 -0.00235572)
(1.02396 -0.00259049 -0.00233343)
(1.02379 -0.00250793 -0.00224263)
(1.02388 -0.00254082 -0.00235311)
(1.02378 -0.00247992 -0.00268361)
(1.02385 -0.00232232 -0.00285068)
(1.0241 -0.00244868 -0.00275836)
(1.0241 -0.00274839 -0.00295888)
(1.02393 -0.00289184 -0.00294594)
(1.02379 -0.00274088 -0.00290313)
(1.02382 -0.00263815 -0.00306869)
(1.02394 -0.00262382 -0.00304587)
(1.02372 -0.00269569 -0.00278687)
(1.02365 -0.00251101 -0.00298065)
(1.02363 -0.00159929 -0.00109414)
(1.02355 -0.00157501 -0.000965503)
(1.02364 -0.00154289 -0.000921714)
(1.02367 -0.00172509 -0.00104719)
(1.02346 -0.00170418 -0.00113275)
(1.02351 -0.00143 -0.00108312)
(1.02347 -0.00153888 -0.0010829)
(1.02333 -0.00121915 -0.00101761)
(1.02343 -0.00121847 -0.000975636)
(1.02323 -0.00103902 -0.000916209)
(1.02342 -0.000974304 -0.000743003)
(1.02366 -0.00113255 -0.000900038)
(1.02353 -0.00115459 -0.000804431)
(1.02357 -0.00126698 -0.000879196)
(1.02344 -0.00116654 -0.000811059)
(1.02347 -0.0010984 -0.000864527)
(1.02375 -0.00125806 -0.000946313)
(1.02371 -0.00156114 -0.000819937)
(1.02351 -0.00151013 -0.00056743)
(1.02364 -0.00155962 -0.000578573)
(1.02356 -0.00178314 -0.000655916)
(1.02341 -0.0017169 -0.000614926)
(1.02342 -0.0018814 -0.000647865)
(1.02337 -0.00166476 -0.000746307)
(1.02345 -0.00170793 -0.000636209)
(1.02348 -0.00150381 -0.000663417)
(1.0237 -0.00166222 -0.000604246)
(1.02367 -0.00170704 -0.000578506)
(1.02349 -0.00160491 -0.000527447)
(1.02356 -0.00160875 -0.000603578)
(1.02343 -0.00154515 -0.000834364)
(1.02349 -0.00140172 -0.000968423)
(1.02371 -0.00148028 -0.000934037)
(1.02373 -0.00169514 -0.00109886)
(1.02364 -0.00180667 -0.00111352)
(1.02353 -0.00170074 -0.00104641)
(1.0236 -0.00162625 -0.00118698)
(1.02374 -0.00162479 -0.0011966)
(1.0236 -0.00171708 -0.00100682)
(1.02355 -0.00156976 -0.00120002)
(1.02376 -0.000933564 -0.000157908)
(1.02371 -0.000917082 -5.34184e-05)
(1.0238 -0.000884401 -7.20108e-05)
(1.02382 -0.000990868 -0.000148114)
(1.02367 -0.00100958 -0.000214154)
(1.02374 -0.000794226 -0.000168418)
(1.02371 -0.00088288 -0.000168501)
(1.0236 -0.000619848 -0.000133294)
(1.0237 -0.000605471 -9.75429e-05)
(1.02356 -0.00045313 -9.56312e-05)
(1.02372 -0.000381443 4.27326e-05)
(1.02392 -0.000532979 -5.65781e-05)
(1.02378 -0.000529878 -8.47291e-06)
(1.02382 -0.000643119 -3.79177e-05)
(1.02372 -0.00057669 1.14149e-05)
(1.02374 -0.000506182 -2.58357e-06)
(1.02398 -0.000627487 -6.24696e-05)
(1.02395 -0.000850159 2.54761e-05)
(1.02379 -0.000847647 0.000174683)
(1.0239 -0.000855716 0.000199354)
(1.02385 -0.00106193 0.000142189)
(1.02374 -0.000972392 0.000190223)
(1.02377 -0.00111272 0.000182545)
(1.02373 -0.000982823 0.000102078)
(1.02378 -0.00104828 0.000200287)
(1.02375 -0.000881317 0.000201679)
(1.02389 -0.0010134 0.000247726)
(1.02386 -0.00108679 0.000264857)
(1.02368 -0.00099121 0.000291402)
(1.02372 -0.000990207 0.000246725)
(1.0236 -0.000936797 9.00133e-05)
(1.02363 -0.000813734 -5.4601e-06)
(1.02378 -0.000858353 4.50543e-06)
(1.0238 -0.00100945 -0.000118905)
(1.02375 -0.00109296 -0.000161624)
(1.02364 -0.0010236 -7.95752e-05)
(1.02369 -0.000960608 -0.000187826)
(1.02383 -0.000957274 -0.000208319)
(1.02373 -0.00104347 -7.57199e-05)
(1.0237 -0.000931091 -0.000237222)
(1.02393 -0.000522553 0.000195483)
(1.02388 -0.000502828 0.000282858)
(1.02396 -0.000494562 0.000239937)
(1.02398 -0.000544583 0.000207409)
(1.02386 -0.000577941 0.000148006)
(1.02393 -0.000415416 0.000184151)
(1.0239 -0.000506632 0.000174602)
(1.02382 -0.000304664 0.000201827)
(1.02392 -0.00028494 0.000240224)
(1.02379 -0.000183958 0.000206041)
(1.02392 -9.20061e-05 0.000315169)
(1.0241 -0.000229875 0.000256848)
(1.02397 -0.000226883 0.000275617)
(1.02401 -0.000309689 0.000269796)
(1.02395 -0.000279164 0.000296695)
(1.02394 -0.000203349 0.000302318)
(1.02416 -0.000302481 0.00026095)
(1.02414 -0.000461439 0.00032201)
(1.02401 -0.000499068 0.000402255)
(1.0241 -0.000478541 0.000434799)
(1.02407 -0.000658434 0.000403273)
(1.02397 -0.000573912 0.000442018)
(1.02401 -0.000681441 0.000448329)
(1.02396 -0.000605599 0.000377905)
(1.02401 -0.000682287 0.000455405)
(1.02396 -0.000554269 0.000456753)
(1.02406 -0.000638652 0.000493943)
(1.02404 -0.000737444 0.000501524)
(1.02387 -0.000649403 0.000518299)
(1.02391 -0.000652117 0.000493713)
(1.02381 -0.00059499 0.000387127)
(1.02382 -0.000494619 0.000322338)
(1.02394 -0.000509834 0.000324215)
(1.02395 -0.000607561 0.000240751)
(1.02393 -0.000664318 0.000178893)
(1.02383 -0.00059649 0.000263459)
(1.02387 -0.000565529 0.000183522)
(1.02398 -0.000547174 0.000164574)
(1.0239 -0.000630575 0.00025823)
(1.02388 -0.000533231 0.000147512)
(1.02406 -0.000289575 0.00026526)
(1.02401 -0.000269815 0.000335968)
(1.02408 -0.000268884 0.000288276)
(1.02409 -0.000285656 0.000279441)
(1.024 -0.000320704 0.00023321)
(1.02406 -0.000200413 0.000262334)
(1.02404 -0.00027856 0.000246998)
(1.02398 -0.000131675 0.00026352)
(1.02406 -0.000101167 0.000307427)
(1.02395 -4.25203e-05 0.000254027)
(1.02405 6.39467e-05 0.00033522)
(1.02421 -5.30258e-05 0.000303815)
(1.02409 -4.88145e-05 0.00030327)
(1.02414 -0.00010469 0.000312812)
(1.0241 -0.000102476 0.000323239)
(1.02407 -3.33682e-05 0.000334965)
(1.02426 -0.000110785 0.00030883)
(1.02425 -0.000224501 0.000349795)
(1.02414 -0.000276476 0.000392644)
(1.02421 -0.000249585 0.000420283)
(1.02419 -0.000396401 0.000410154)
(1.02411 -0.000329673 0.000434543)
(1.02413 -0.000402806 0.000451221)
(1.02409 -0.000344934 0.000390493)
(1.02414 -0.00042464 0.000452068)
(1.02409 -0.000348666 0.000454442)
(1.02415 -0.000385921 0.000487027)
(1.02416 -0.000498386 0.000493983)
(1.02401 -0.000404235 0.000505736)
(1.02404 -0.000422942 0.000500317)
(1.02395 -0.000363996 0.000430054)
(1.02396 -0.000292849 0.000386166)