# y+ ()       
# Time        	patch         	min           	max           	average       
28            	bottomWall	2.614885e+00	4.783657e+00	3.507644e+00
28            	topWall	2.732042e+00	4.828851e+00	3.544542e+00
