/*--------------------------------*- C++ -*----------------------------------*\
  =========                 |
  \\      /  F ield         | OpenFOAM: The Open Source CFD Toolbox
   \\    /   O peration     | Website:  https://openfoam.org
    \\  /    A nd           | Version:  10
     \\/     M anipulation  |
\*---------------------------------------------------------------------------*/
FoamFile
{
    format      ascii;
    class       volScalarField;
    location    "2.5";
    object      pPrime2Mean;
}
// * * * * * * * * * * * * * * * * * * * * * * * * * * * * * * * * * * * * * //

dimensions      [0 4 -4 0 0 0 0];

internalField   nonuniform List<scalar> 
25600
(
3.14159e-06
3.1503e-06
3.15346e-06
3.14901e-06
3.14338e-06
3.14314e-06
3.14922e-06
3.15338e-06
3.14812e-06
3.14169e-06
3.14207e-06
3.14738e-06
3.15111e-06
3.14466e-06
3.13556e-06
3.13623e-06
3.14237e-06
3.14571e-06
3.14174e-06
3.13492e-06
3.13481e-06
3.14078e-06
3.14569e-06
3.14479e-06
3.13951e-06
3.14007e-06
3.1483e-06
3.15261e-06
3.1496e-06
3.14541e-06
3.14699e-06
3.15569e-06
3.15997e-06
3.15395e-06
3.14797e-06
3.14753e-06
3.15182e-06
3.15687e-06
3.15114e-06
3.14039e-06
8.03906e-07
8.02112e-07
8.01703e-07
8.01798e-07
8.02614e-07
8.02623e-07
8.00907e-07
8.00285e-07
8.01287e-07
8.02081e-07
8.02207e-07
8.01016e-07
8.00592e-07
8.03021e-07
8.05131e-07
8.04941e-07
8.03838e-07
8.0333e-07
8.04574e-07
8.05761e-07
8.0558e-07
8.05272e-07
8.03835e-07
8.02698e-07
8.0405e-07
8.04075e-07
8.0253e-07
8.0219e-07
8.02182e-07
8.02854e-07
8.03091e-07
8.01221e-07
8.0043e-07
8.01048e-07
8.01849e-07
8.03103e-07
8.01575e-07
7.99515e-07
8.02429e-07
8.05364e-07
1.72027e-08
1.74997e-08
1.80655e-08
1.85382e-08
1.80143e-08
1.69869e-08
1.67061e-08
1.68271e-08
1.67815e-08
1.62593e-08
1.53809e-08
1.53301e-08
1.59559e-08
1.60608e-08
1.55641e-08
1.49743e-08
1.4921e-08
1.55515e-08
1.59872e-08
1.58994e-08
1.56197e-08
1.53051e-08
1.5923e-08
1.70551e-08
1.70146e-08
1.68481e-08
1.73475e-08
1.80419e-08
1.90605e-08
1.90514e-08
1.81663e-08
1.81536e-08
1.84274e-08
1.86876e-08
1.84794e-08
1.71026e-08
1.66555e-08
1.78393e-08
1.81659e-08
1.74737e-08
1.18332e-08
1.24446e-08
1.29924e-08
1.31401e-08
1.27471e-08
1.23077e-08
1.18479e-08
1.13254e-08
1.08173e-08
1.01486e-08
9.72255e-09
9.63372e-09
9.4108e-09
9.06064e-09
8.79313e-09
8.66814e-09
8.78537e-09
8.90105e-09
8.83493e-09
8.84482e-09
8.88515e-09
9.19012e-09
9.90561e-09
1.02818e-08
1.04601e-08
1.11093e-08
1.18123e-08
1.25931e-08
1.3238e-08
1.32839e-08
1.3343e-08
1.33609e-08
1.30388e-08
1.26012e-08
1.17645e-08
1.1084e-08
1.11491e-08
1.1159e-08
1.08977e-08
1.11884e-08
1.09492e-08
1.17199e-08
1.22006e-08
1.22378e-08
1.21972e-08
1.17412e-08
1.07855e-08
1.01121e-08
9.26284e-09
8.7896e-09
8.69183e-09
8.06256e-09
7.69683e-09
7.49363e-09
7.43649e-09
7.66568e-09
7.58914e-09
7.36468e-09
7.24881e-09
7.29355e-09
7.71751e-09
8.30596e-09
8.22907e-09
8.12275e-09
8.86631e-09
9.6404e-09
1.03628e-08
1.11686e-08
1.15014e-08
1.20826e-08
1.26921e-08
1.2317e-08
1.16303e-08
1.06727e-08
1.00218e-08
1.00028e-08
9.22674e-09
8.70486e-09
9.14894e-09
1.00244e-08
2.41565e-08
2.59972e-08
2.74005e-08
2.79497e-08
2.70202e-08
2.63147e-08
2.5368e-08
2.47833e-08
2.43442e-08
2.25005e-08
2.22851e-08
2.25664e-08
2.1913e-08
2.16218e-08
2.05752e-08
2.02266e-08
2.10888e-08
2.12572e-08
2.11086e-08
2.07297e-08
2.02108e-08
2.11893e-08
2.27208e-08
2.2517e-08
2.21696e-08
2.31889e-08
2.4395e-08
2.61131e-08
2.72346e-08
2.64896e-08
2.69008e-08
2.74125e-08
2.66685e-08
2.57719e-08
2.35187e-08
2.25651e-08
2.32452e-08
2.26971e-08
2.20625e-08
2.25281e-08
3.68205e-08
4.03586e-08
4.2151e-08
4.24812e-08
4.06928e-08
4.05974e-08
3.97115e-08
3.90538e-08
3.82924e-08
3.45507e-08
3.57403e-08
3.71886e-08
3.55551e-08
3.50231e-08
3.25705e-08
3.2564e-08
3.50841e-08
3.48791e-08
3.4064e-08
3.30156e-08
3.21667e-08
3.4735e-08
3.70898e-08
3.51473e-08
3.40721e-08
3.60472e-08
3.81404e-08
4.06456e-08
4.13116e-08
3.91741e-08
4.0805e-08
4.26777e-08
4.10578e-08
3.91926e-08
3.51942e-08
3.5009e-08
3.76509e-08
3.58494e-08
3.37902e-08
3.37735e-08
6.46583e-08
7.18823e-08
7.3142e-08
7.18331e-08
6.8341e-08
7.1384e-08
7.17561e-08
7.04123e-08
6.66643e-08
5.89947e-08
6.59167e-08
6.99802e-08
6.54242e-08
6.30078e-08
5.7233e-08
6.00842e-08
6.66711e-08
6.47605e-08
6.15504e-08
5.84771e-08
5.88702e-08
6.63846e-08
6.85405e-08
6.17188e-08
5.97546e-08
6.46581e-08
6.97315e-08
7.21725e-08
6.96765e-08
6.52076e-08
7.11181e-08
7.64669e-08
7.18349e-08
6.64722e-08
5.96145e-08
6.34253e-08
7.0437e-08
6.54373e-08
5.94474e-08
5.73731e-08
1.11859e-07
1.2508e-07
1.21561e-07
1.13697e-07
1.09555e-07
1.21623e-07
1.26105e-07
1.21838e-07
1.07113e-07
9.59816e-08
1.16189e-07
1.2458e-07
1.14569e-07
1.04217e-07
9.38375e-08
1.0612e-07
1.20607e-07
1.13427e-07
1.01203e-07
9.57114e-08
1.04088e-07
1.21372e-07
1.18296e-07
1.00621e-07
9.79948e-08
1.11664e-07
1.24733e-07
1.22091e-07
1.09098e-07
1.03411e-07
1.21017e-07
1.34448e-07
1.20692e-07
1.05445e-07
9.71087e-08
1.12324e-07
1.27077e-07
1.14083e-07
9.68171e-08
9.27753e-08
1.99348e-07
2.18553e-07
1.97918e-07
1.77866e-07
1.80295e-07
2.14855e-07
2.24384e-07
2.01439e-07
1.66112e-07
1.6118e-07
2.12418e-07
2.2216e-07
1.92506e-07
1.67307e-07
1.57385e-07
1.91931e-07
2.16131e-07
1.92183e-07
1.62946e-07
1.60163e-07
1.8898e-07
2.21218e-07
1.97548e-07
1.6092e-07
1.64902e-07
2.00665e-07
2.24169e-07
1.9894e-07
1.71309e-07
1.70063e-07
2.13079e-07
2.36991e-07
1.98003e-07
1.67927e-07
1.64053e-07
2.03925e-07
2.3053e-07
1.95079e-07
1.55909e-07
1.54541e-07
3.27897e-07
3.38089e-07
2.85362e-07
2.55e-07
2.81369e-07
3.47556e-07
3.49195e-07
2.95801e-07
2.39672e-07
2.61001e-07
3.52955e-07
3.51521e-07
2.89276e-07
2.47963e-07
2.54415e-07
3.16131e-07
3.35981e-07
2.8219e-07
2.39193e-07
2.57634e-07
3.13387e-07
3.47712e-07
2.88817e-07
2.3963e-07
2.65363e-07
3.33824e-07
3.53542e-07
2.87061e-07
2.50152e-07
2.69387e-07
3.49731e-07
3.72167e-07
2.88701e-07
2.52015e-07
2.69218e-07
3.38984e-07
3.64799e-07
2.936e-07
2.32162e-07
2.51464e-07
4.46299e-07
4.287e-07
3.51628e-07
3.30708e-07
3.90244e-07
4.63647e-07
4.35384e-07
3.55135e-07
3.09428e-07
3.7559e-07
4.9006e-07
4.50865e-07
3.6438e-07
3.25544e-07
3.61274e-07
4.3901e-07
4.32828e-07
3.50588e-07
3.13944e-07
3.66526e-07
4.36937e-07
4.49634e-07
3.53138e-07
3.14531e-07
3.7838e-07
4.65892e-07
4.52452e-07
3.48241e-07
3.33134e-07
3.75328e-07
4.83584e-07
4.75558e-07
3.58757e-07
3.39685e-07
3.88936e-07
4.78031e-07
4.76561e-07
3.6951e-07
3.12004e-07
3.60959e-07
4.97908e-07
4.45937e-07
3.65386e-07
3.77703e-07
4.59028e-07
5.06909e-07
4.35108e-07
3.67589e-07
3.61407e-07
4.58749e-07
5.55799e-07
4.79264e-07
3.96909e-07
3.83431e-07
4.39717e-07
4.94129e-07
4.56535e-07
3.74205e-07
3.69641e-07
4.40637e-07
4.93134e-07
4.62297e-07
3.69008e-07
3.67789e-07
4.56942e-07
5.2468e-07
4.69749e-07
3.717e-07
3.88495e-07
4.43633e-07
5.41436e-07
4.92775e-07
3.9101e-07
4.07436e-07
4.75264e-07
5.48813e-07
5.24149e-07
4.18972e-07
3.77558e-07
4.4123e-07
4.89323e-07
4.36159e-07
3.77436e-07
4.09042e-07
4.76883e-07
4.84618e-07
4.07719e-07
3.73955e-07
3.95343e-07
4.83163e-07
5.30466e-07
4.58844e-07
4.07465e-07
4.23021e-07
4.76852e-07
4.96317e-07
4.54937e-07
3.93324e-07
4.17619e-07
4.69609e-07
4.91051e-07
4.34752e-07
3.70597e-07
3.98872e-07
4.81738e-07
5.05049e-07
4.33874e-07
3.77608e-07
4.1394e-07
4.57663e-07
5.25829e-07
4.68604e-07
4.20688e-07
4.61692e-07
5.24401e-07
5.70336e-07
5.43387e-07
4.68375e-07
4.38656e-07
4.77758e-07
5.16181e-07
4.85967e-07
4.36885e-07
4.50481e-07
4.82719e-07
4.89819e-07
4.5056e-07
4.30375e-07
4.42251e-07
4.88154e-07
5.12755e-07
4.72404e-07
4.4339e-07
4.62607e-07
4.93712e-07
5.01706e-07
4.76255e-07
4.37966e-07
4.66369e-07
4.80482e-07
4.89059e-07
4.43565e-07
4.0159e-07
4.27836e-07
4.84026e-07
4.90434e-07
4.51934e-07
4.22133e-07
4.36118e-07
4.61825e-07
5.1142e-07
5.02496e-07
4.9042e-07
5.21291e-07
5.72095e-07
6.12933e-07
6.2209e-07
5.74078e-07
5.22077e-07
5.11276e-07
6.36192e-07
6.01325e-07
5.14658e-07
5.17422e-07
5.49282e-07
6.11205e-07
5.76293e-07
5.03765e-07
5.31152e-07
5.62258e-07
5.99951e-07
5.6294e-07
5.01953e-07
5.261e-07
5.57674e-07
6.2295e-07
5.64925e-07
5.04208e-07
5.30631e-07
5.45931e-07
5.8218e-07
5.44482e-07
4.5712e-07
4.8481e-07
5.35963e-07
5.75375e-07
5.52159e-07
4.7559e-07
4.84155e-07
5.28799e-07
6.02511e-07
6.35215e-07
5.74606e-07
6.2404e-07
6.77246e-07
7.61305e-07
7.71439e-07
6.97112e-07
6.19299e-07
5.78998e-07
9.42369e-07
8.02526e-07
6.16228e-07
6.77254e-07
7.64342e-07
9.58674e-07
7.90051e-07
6.14947e-07
7.52904e-07
8.15773e-07
9.20219e-07
7.67493e-07
5.77489e-07
6.57159e-07
7.63291e-07
9.94682e-07
7.71257e-07
5.96763e-07
6.63065e-07
7.53241e-07
8.75509e-07
7.5152e-07
5.391e-07
6.45659e-07
7.53068e-07
8.85547e-07
7.78324e-07
5.64823e-07
6.50324e-07
7.50022e-07
9.24856e-07
8.97737e-07
7.04634e-07
8.48757e-07
9.12092e-07
1.08259e-06
1.00358e-06
8.55619e-07
8.10976e-07
7.85603e-07
1.43951e-06
1.15094e-06
8.92071e-07
1.04917e-06
1.21677e-06
1.60065e-06
1.18885e-06
9.55951e-07
1.20481e-06
1.31687e-06
1.53047e-06
1.16429e-06
8.31568e-07
1.00781e-06
1.22359e-06
1.6783e-06
1.21728e-06
8.99842e-07
9.94536e-07
1.17215e-06
1.44587e-06
1.14688e-06
8.15698e-07
1.01791e-06
1.1927e-06
1.45524e-06
1.17795e-06
8.35898e-07
1.02963e-06
1.20047e-06
1.54854e-06
1.37534e-06
1.06581e-06
1.30403e-06
1.35356e-06
1.67122e-06
1.45473e-06
1.2143e-06
1.19551e-06
1.16659e-06
2.13598e-06
1.77836e-06
1.61134e-06
1.66574e-06
1.87831e-06
2.38068e-06
1.84589e-06
1.72704e-06
1.84185e-06
1.9967e-06
2.32979e-06
1.78942e-06
1.5019e-06
1.64745e-06
1.90297e-06
2.46323e-06
1.84625e-06
1.58573e-06
1.56536e-06
1.77371e-06
2.17076e-06
1.781e-06
1.48701e-06
1.59348e-06
1.77189e-06
2.17905e-06
1.76358e-06
1.50781e-06
1.63449e-06
1.87061e-06
2.36708e-06
2.08942e-06
1.82391e-06
2.01498e-06
2.0497e-06
2.51587e-06
2.26046e-06
2.0127e-06
1.87408e-06
1.76094e-06
2.94919e-06
2.80609e-06
2.96596e-06
2.51768e-06
2.85263e-06
3.16916e-06
2.92146e-06
3.04688e-06
2.71671e-06
2.97781e-06
3.24963e-06
2.81574e-06
2.76985e-06
2.53233e-06
2.77474e-06
3.20115e-06
2.73782e-06
2.78375e-06
2.38412e-06
2.65876e-06
2.95003e-06
2.86179e-06
2.76493e-06
2.41198e-06
2.53422e-06
2.94942e-06
2.65313e-06
2.75699e-06
2.45393e-06
2.78239e-06
3.15829e-06
3.11387e-06
3.07097e-06
2.9866e-06
3.04607e-06
3.53947e-06
3.49018e-06
3.37799e-06
2.84973e-06
2.60759e-06
4.56931e-06
5.10153e-06
5.31206e-06
4.06673e-06
4.73009e-06
4.75071e-06
5.28757e-06
5.21463e-06
4.37053e-06
4.82906e-06
4.99217e-06
5.13703e-06
5.02521e-06
4.07835e-06
4.41726e-06
4.76358e-06
4.98e-06
5.00729e-06
3.98312e-06
4.45133e-06
4.58513e-06
5.34158e-06
5.0679e-06
4.01453e-06
4.12971e-06
4.44698e-06
4.79308e-06
4.98158e-06
3.95321e-06
4.42674e-06
4.57345e-06
5.33272e-06
5.22904e-06
4.68496e-06
4.75867e-06
5.29557e-06
5.86697e-06
5.64518e-06
4.46012e-06
4.16805e-06
8.43904e-06
9.72522e-06
9.05453e-06
7.08036e-06
8.28542e-06
8.66168e-06
9.9223e-06
8.66383e-06
7.46508e-06
8.24418e-06
8.94714e-06
9.72889e-06
8.71657e-06
7.13712e-06
7.77522e-06
8.68826e-06
9.7595e-06
8.82369e-06
7.1831e-06
8.00385e-06
8.6483e-06
1.0267e-05
8.82978e-06
7.1941e-06
7.40076e-06
8.05138e-06
9.33963e-06
8.61762e-06
6.98483e-06
7.73638e-06
8.27259e-06
9.97679e-06
8.87746e-06
7.84407e-06
7.9654e-06
9.16982e-06
1.05057e-05
9.39384e-06
7.55927e-06
7.33277e-06
1.54686e-05
1.64049e-05
1.41529e-05
1.18636e-05
1.3995e-05
1.56152e-05
1.63999e-05
1.34654e-05
1.2201e-05
1.3814e-05
1.60404e-05
1.63522e-05
1.39485e-05
1.21738e-05
1.35499e-05
1.57775e-05
1.65396e-05
1.40604e-05
1.22887e-05
1.39195e-05
1.59243e-05
1.72202e-05
1.40148e-05
1.22884e-05
1.30001e-05
1.46882e-05
1.60966e-05
1.3726e-05
1.19833e-05
1.34749e-05
1.52863e-05
1.67414e-05
1.39953e-05
1.27441e-05
1.34408e-05
1.616e-05
1.73447e-05
1.47358e-05
1.27274e-05
1.29039e-05
2.46096e-05
2.37286e-05
2.05309e-05
1.87852e-05
2.22136e-05
2.43926e-05
2.33773e-05
1.96283e-05
1.90128e-05
2.20175e-05
2.52818e-05
2.36197e-05
2.06764e-05
1.95162e-05
2.20617e-05
2.49427e-05
2.36057e-05
2.05576e-05
1.9452e-05
2.23236e-05
2.51321e-05
2.4745e-05
2.05916e-05
1.95387e-05
2.13967e-05
2.35092e-05
2.36477e-05
2.02867e-05
1.917e-05
2.18701e-05
2.44716e-05
2.39933e-05
2.04358e-05
1.96355e-05
2.16779e-05
2.53896e-05
2.50018e-05
2.15035e-05
2.01677e-05
2.12096e-05
3.41144e-05
3.09534e-05
2.88922e-05
2.83645e-05
3.27786e-05
3.35829e-05
3.03885e-05
2.79412e-05
2.87478e-05
3.29022e-05
3.5034e-05
3.10808e-05
2.96252e-05
2.94262e-05
3.31238e-05
3.44143e-05
3.06785e-05
2.90549e-05
2.9452e-05
3.29758e-05
3.43789e-05
3.23513e-05
2.92447e-05
2.96486e-05
3.26206e-05
3.29217e-05
3.12023e-05
2.88395e-05
2.92336e-05
3.27913e-05
3.40862e-05
3.10556e-05
2.89108e-05
2.95517e-05
3.25842e-05
3.51765e-05
3.2895e-05
3.02335e-05
3.03486e-05
3.18133e-05
4.24864e-05
3.91278e-05
4.0697e-05
4.16693e-05
4.4245e-05
4.17368e-05
3.84131e-05
3.97629e-05
4.22608e-05
4.49088e-05
4.38319e-05
3.96741e-05
4.20131e-05
4.30438e-05
4.51019e-05
4.27513e-05
3.8512e-05
4.08872e-05
4.27573e-05
4.41603e-05
4.22878e-05
4.08479e-05
4.12767e-05
4.31505e-05
4.48744e-05
4.10606e-05
4.0065e-05
4.08442e-05
4.24487e-05
4.44643e-05
4.22939e-05
3.85874e-05
4.06788e-05
4.27692e-05
4.4597e-05
4.37467e-05
4.16826e-05
4.22246e-05
4.35708e-05
4.36838e-05
5.03945e-05
4.92502e-05
5.5673e-05
5.64708e-05
5.50305e-05
4.95768e-05
4.86628e-05
5.49246e-05
5.75344e-05
5.6307e-05
5.20922e-05
5.05376e-05
5.6842e-05
5.81119e-05
5.61426e-05
5.07086e-05
4.88607e-05
5.56626e-05
5.73648e-05
5.46539e-05
4.98128e-05
5.09255e-05
5.58526e-05
5.83379e-05
5.6445e-05
4.90615e-05
5.04711e-05
5.52885e-05
5.67701e-05
5.53541e-05
4.99746e-05
4.88884e-05
5.55201e-05
5.77009e-05
5.60333e-05
5.15868e-05
5.22822e-05
5.70962e-05
5.82133e-05
5.49315e-05
5.80272e-05
5.90354e-05
6.75545e-05
6.85326e-05
6.44187e-05
5.73325e-05
5.81539e-05
6.734e-05
6.99886e-05
6.59982e-05
6.0159e-05
5.97391e-05
6.82452e-05
6.96014e-05
6.568e-05
5.82819e-05
5.76204e-05
6.72035e-05
6.9052e-05
6.40225e-05
5.73298e-05
6.02051e-05
6.7579e-05
7.04674e-05
6.59677e-05
5.63444e-05
5.90865e-05
6.63529e-05
6.78838e-05
6.48914e-05
5.74529e-05
5.80666e-05
6.7272e-05
7.00635e-05
6.59535e-05
5.91234e-05
6.16362e-05
6.88411e-05
7.01467e-05
6.48555e-05
6.18991e-05
6.36913e-05
7.36506e-05
7.57148e-05
7.00689e-05
6.13303e-05
6.31527e-05
7.42393e-05
7.71681e-05
7.15923e-05
6.41131e-05
6.42141e-05
7.41893e-05
7.67421e-05
7.13083e-05
6.20895e-05
6.19681e-05
7.32886e-05
7.61685e-05
6.99242e-05
6.13194e-05
6.5218e-05
7.39298e-05
7.78621e-05
7.16771e-05
5.99712e-05
6.27624e-05
7.21447e-05
7.45737e-05
7.07397e-05
6.13145e-05
6.29048e-05
7.3583e-05
7.78165e-05
7.18207e-05
6.29693e-05
6.61003e-05
7.48805e-05
7.72699e-05
7.08172e-05
6.33545e-05
6.55954e-05
7.63986e-05
7.91655e-05
7.24388e-05
6.28573e-05
6.52805e-05
7.72464e-05
8.06657e-05
7.39199e-05
6.54696e-05
6.61384e-05
7.6939e-05
7.99841e-05
7.37852e-05
6.34994e-05
6.36548e-05
7.60145e-05
7.93962e-05
7.26742e-05
6.27654e-05
6.73894e-05
7.68868e-05
8.13804e-05
7.42203e-05
6.13336e-05
6.43634e-05
7.4769e-05
7.77851e-05
7.32979e-05
6.27948e-05
6.49611e-05
7.64892e-05
8.14809e-05
7.46068e-05
6.45086e-05
6.77177e-05
7.75194e-05
8.07206e-05
7.3446e-05
6.34213e-05
6.61842e-05
7.72221e-05
7.97984e-05
7.2398e-05
6.29438e-05
6.58659e-05
7.82278e-05
8.13626e-05
7.37271e-05
6.56136e-05
6.67558e-05
7.78247e-05
8.05148e-05
7.36754e-05
6.3321e-05
6.43086e-05
7.68182e-05
8.01656e-05
7.26498e-05
6.28951e-05
6.81167e-05
7.79109e-05
8.22002e-05
7.41231e-05
6.13439e-05
6.48722e-05
7.55367e-05
7.84737e-05
7.33356e-05
6.28664e-05
6.56405e-05
7.73897e-05
8.2179e-05
7.44708e-05
6.44452e-05
6.81991e-05
7.84581e-05
8.14543e-05
7.33271e-05
6.27418e-05
6.55428e-05
7.67107e-05
7.91941e-05
7.18068e-05
6.2317e-05
6.52521e-05
7.77329e-05
8.08287e-05
7.30893e-05
6.49388e-05
6.61922e-05
7.72881e-05
7.99458e-05
7.30762e-05
6.27347e-05
6.37614e-05
7.62816e-05
7.9566e-05
7.20805e-05
6.2243e-05
6.7528e-05
7.74096e-05
8.15895e-05
7.34862e-05
6.075e-05
6.42078e-05
7.50163e-05
7.79412e-05
7.27459e-05
6.22419e-05
6.51673e-05
7.68465e-05
8.15518e-05
7.3888e-05
6.38706e-05
6.75843e-05
7.7917e-05
8.08348e-05
7.27272e-05
8.3696e-07
8.34868e-07
8.32547e-07
8.32014e-07
8.33735e-07
8.34808e-07
8.3306e-07
8.30817e-07
8.30833e-07
8.32975e-07
8.3393e-07
8.3195e-07
8.30531e-07
8.32159e-07
8.347e-07
8.35764e-07
8.35036e-07
8.33662e-07
8.33893e-07
8.36301e-07
8.37995e-07
8.37233e-07
8.35186e-07
8.34459e-07
8.36424e-07
8.37724e-07
8.36495e-07
8.3472e-07
8.34208e-07
8.3603e-07
8.37121e-07
8.34776e-07
8.32641e-07
8.32932e-07
8.34492e-07
8.36055e-07
8.34943e-07
8.32212e-07
8.32992e-07
8.36243e-07
1.77115e-06
1.77208e-06
1.77409e-06
1.77484e-06
1.77275e-06
1.77247e-06
1.77371e-06
1.773e-06
1.77305e-06
1.77164e-06
1.77019e-06
1.77173e-06
1.77084e-06
1.76837e-06
1.76678e-06
1.76499e-06
1.76524e-06
1.76566e-06
1.76481e-06
1.7651e-06
1.76407e-06
1.76359e-06
1.76779e-06
1.77046e-06
1.76988e-06
1.77118e-06
1.77308e-06
1.77583e-06
1.77923e-06
1.77842e-06
1.77749e-06
1.77989e-06
1.78153e-06
1.78197e-06
1.77873e-06
1.77538e-06
1.77803e-06
1.77823e-06
1.77411e-06
1.77167e-06
9.25835e-08
9.32344e-08
9.4571e-08
9.48638e-08
9.38454e-08
9.32674e-08
9.30222e-08
9.27366e-08
9.27452e-08
9.13464e-08
9.00512e-08
9.04335e-08
9.02779e-08
8.96608e-08
8.88651e-08
8.78223e-08
8.78874e-08
8.83512e-08
8.8635e-08
8.8807e-08
8.79385e-08
8.7893e-08
9.00293e-08
9.14449e-08
9.13481e-08
9.16604e-08
9.25584e-08
9.44284e-08
9.60633e-08
9.52601e-08
9.42582e-08
9.49773e-08
9.58904e-08
9.57332e-08
9.36191e-08
9.21624e-08
9.34487e-08
9.35856e-08
9.27083e-08
9.26382e-08
2.30842e-07
2.3248e-07
2.35468e-07
2.36034e-07
2.33571e-07
2.33982e-07
2.33542e-07
2.32344e-07
2.33952e-07
2.30651e-07
2.29262e-07
2.31614e-07
2.29754e-07
2.2932e-07
2.28504e-07
2.25767e-07
2.26528e-07
2.27098e-07
2.27612e-07
2.28375e-07
2.25167e-07
2.25346e-07
2.30607e-07
2.31306e-07
2.30498e-07
2.31343e-07
2.31566e-07
2.35571e-07
2.38746e-07
2.35345e-07
2.33972e-07
2.36241e-07
2.37854e-07
2.3826e-07
2.32986e-07
2.31085e-07
2.35453e-07
2.33736e-07
2.31658e-07
2.31687e-07
3.02541e-08
3.19059e-08
3.3546e-08
3.35988e-08
3.26582e-08
3.22756e-08
3.09312e-08
3.0292e-08
3.02622e-08
2.79805e-08
2.74346e-08
2.77849e-08
2.67506e-08
2.67547e-08
2.5929e-08
2.47324e-08
2.51963e-08
2.54254e-08
2.58565e-08
2.58452e-08
2.45651e-08
2.56149e-08
2.77943e-08
2.7937e-08
2.81414e-08
2.88148e-08
2.99259e-08
3.25226e-08
3.3579e-08
3.23855e-08
3.23712e-08
3.30727e-08
3.31516e-08
3.22726e-08
2.95191e-08
2.89842e-08
3.00969e-08
2.90381e-08
2.91071e-08
2.9841e-08
7.01577e-08
7.43185e-08
7.74965e-08
7.72552e-08
7.53856e-08
7.55669e-08
7.25901e-08
7.40809e-08
7.50358e-08
6.84031e-08
6.95606e-08
7.06045e-08
6.87654e-08
7.07098e-08
6.7335e-08
6.45153e-08
6.64555e-08
6.736e-08
6.94058e-08
6.73211e-08
6.28422e-08
6.72561e-08
7.1926e-08
7.02493e-08
7.00232e-08
6.9226e-08
7.13784e-08
7.83479e-08
7.81674e-08
7.35534e-08
7.448e-08
7.72824e-08
7.87381e-08
7.63309e-08
6.94378e-08
7.10151e-08
7.34101e-08
6.9977e-08
7.13738e-08
7.03373e-08
4.55642e-08
5.03287e-08
5.35854e-08
5.32401e-08
5.18611e-08
5.10495e-08
4.73461e-08
5.04991e-08
4.93679e-08
4.25871e-08
4.50943e-08
4.45588e-08
4.41477e-08
4.60552e-08
4.10773e-08
3.95033e-08
4.14237e-08
4.28178e-08
4.4808e-08
4.06611e-08
3.77972e-08
4.33935e-08
4.64093e-08
4.46705e-08
4.4035e-08
4.27501e-08
4.72021e-08
5.40113e-08
5.19615e-08
4.85354e-08
5.04238e-08
5.32152e-08
5.39978e-08
4.97585e-08
4.35486e-08
4.59938e-08
4.63733e-08
4.38526e-08
4.58567e-08
4.39572e-08
7.3839e-08
8.20285e-08
9.14758e-08
9.2787e-08
8.73957e-08
8.20125e-08
7.71656e-08
9.22122e-08
8.95589e-08
7.36645e-08
7.69577e-08
7.49464e-08
8.18751e-08
8.73136e-08
7.18493e-08
6.75094e-08
7.16227e-08
7.99031e-08
8.61983e-08
7.08287e-08
6.43623e-08
7.68614e-08
8.50795e-08
8.33755e-08
7.69356e-08
6.97177e-08
8.03819e-08
9.59727e-08
9.04825e-08
8.07991e-08
8.19608e-08
8.83665e-08
9.46939e-08
8.88188e-08
7.46105e-08
7.73888e-08
7.6812e-08
7.85625e-08
8.48946e-08
7.35757e-08
8.38204e-08
9.40457e-08
1.06325e-07
1.05869e-07
1.01109e-07
9.19158e-08
8.8934e-08
1.11055e-07
1.01649e-07
8.48826e-08
8.81855e-08
8.49025e-08
9.83573e-08
1.00891e-07
8.0815e-08
7.71005e-08
8.29736e-08
9.59839e-08
9.95331e-08
7.88349e-08
7.41494e-08
9.04213e-08
9.79499e-08
9.56603e-08
8.58209e-08
7.74152e-08
9.50893e-08
1.1028e-07
1.02051e-07
9.24077e-08
9.41037e-08
1.033e-07
1.09553e-07
1.01387e-07
8.59523e-08
8.84678e-08
8.65414e-08
9.28527e-08
9.77967e-08
8.12701e-08
1.12784e-07
1.31697e-07
1.61763e-07
1.57053e-07
1.41242e-07
1.18948e-07
1.27537e-07
1.73652e-07
1.48974e-07
1.21361e-07
1.18152e-07
1.2171e-07
1.56238e-07
1.50038e-07
1.12273e-07
1.05991e-07
1.20245e-07
1.51738e-07
1.50288e-07
1.08115e-07
1.04695e-07
1.32323e-07
1.54462e-07
1.45821e-07
1.17948e-07
1.0533e-07
1.39753e-07
1.67186e-07
1.48487e-07
1.28098e-07
1.28544e-07
1.48435e-07
1.65228e-07
1.51247e-07
1.20506e-07
1.20228e-07
1.23234e-07
1.45567e-07
1.47375e-07
1.11969e-07
1.42103e-07
1.72025e-07
2.22178e-07
2.06476e-07
1.7842e-07
1.44231e-07
1.69938e-07
2.39278e-07
1.95848e-07
1.56639e-07
1.46038e-07
1.61167e-07
2.18573e-07
1.96011e-07
1.42154e-07
1.35401e-07
1.59258e-07
2.12143e-07
1.98612e-07
1.3603e-07
1.36597e-07
1.73888e-07
2.12316e-07
1.9472e-07
1.47258e-07
1.34762e-07
1.84683e-07
2.25076e-07
1.96463e-07
1.6157e-07
1.64734e-07
1.9317e-07
2.23877e-07
2.03418e-07
1.52661e-07
1.5163e-07
1.62577e-07
2.05802e-07
1.97046e-07
1.39659e-07
1.74154e-07
2.23296e-07
2.91074e-07
2.54112e-07
2.16202e-07
1.7254e-07
2.26219e-07
3.11506e-07
2.34769e-07
1.92904e-07
1.76707e-07
2.1556e-07
2.8847e-07
2.37588e-07
1.72468e-07
1.69724e-07
2.10453e-07
2.80563e-07
2.40136e-07
1.63898e-07
1.73406e-07
2.26168e-07
2.82285e-07
2.40871e-07
1.76845e-07
1.70577e-07
2.37412e-07
2.85849e-07
2.40356e-07
1.96344e-07
2.09441e-07
2.5093e-07
2.89516e-07
2.56015e-07
1.84063e-07
1.93963e-07
2.13343e-07
2.71227e-07
2.38701e-07
1.68014e-07
2.11819e-07
2.76267e-07
3.4495e-07
2.81451e-07
2.47864e-07
2.02848e-07
2.79175e-07
3.5809e-07
2.58e-07
2.22601e-07
2.13458e-07
2.65146e-07
3.32337e-07
2.57652e-07
2.0217e-07
2.08093e-07
2.60189e-07
3.30597e-07
2.59286e-07
1.92076e-07
2.1255e-07
2.77501e-07
3.32585e-07
2.63017e-07
2.06612e-07
2.11712e-07
2.88057e-07
3.3256e-07
2.7088e-07
2.2955e-07
2.5918e-07
2.99643e-07
3.42956e-07
2.84853e-07
2.11016e-07
2.39052e-07
2.67082e-07
3.22991e-07
2.58899e-07
1.92545e-07
2.40865e-07
3.17541e-07
3.58113e-07
2.81973e-07
2.70557e-07
2.33363e-07
3.22287e-07
3.67524e-07
2.46544e-07
2.44858e-07
2.4298e-07
3.0848e-07
3.48133e-07
2.54881e-07
2.25088e-07
2.41708e-07
2.95961e-07
3.45242e-07
2.501e-07
2.134e-07
2.45761e-07
3.14775e-07
3.58176e-07
2.6031e-07
2.34285e-07
2.48461e-07
3.18554e-07
3.41958e-07
2.67177e-07
2.60186e-07
3.0963e-07
3.41572e-07
3.651e-07
2.9047e-07
2.36768e-07
2.89461e-07
3.05118e-07
3.40696e-07
2.51779e-07
2.15805e-07
2.70246e-07
3.44576e-07
3.46016e-07
2.80506e-07
2.94797e-07
2.59186e-07
3.41182e-07
3.34927e-07
2.36148e-07
2.6449e-07
2.74424e-07
3.20747e-07
3.24247e-07
2.47835e-07
2.58183e-07
2.7813e-07
3.1601e-07
3.30806e-07
2.41318e-07
2.42646e-07
2.72992e-07
3.38501e-07
3.43096e-07
2.53999e-07
2.71998e-07
2.77441e-07
3.27662e-07
3.2242e-07
2.59216e-07
2.94991e-07
3.57766e-07
3.57418e-07
3.61548e-07
2.80621e-07
2.72028e-07
3.32473e-07
3.19864e-07
3.33488e-07
2.44586e-07
2.4925e-07
2.93446e-07
3.58295e-07
3.27698e-07
3.12024e-07
3.3272e-07
2.91836e-07
3.43693e-07
3.01156e-07
2.57633e-07
3.00907e-07
2.99999e-07
3.19672e-07
3.02143e-07
2.67202e-07
3.07363e-07
3.08407e-07
3.26119e-07
3.119e-07
2.5764e-07
2.87669e-07
2.97585e-07
3.53284e-07
3.23614e-07
2.77221e-07
3.29814e-07
3.03569e-07
3.23534e-07
3.06822e-07
2.7774e-07
3.47091e-07
3.93087e-07
3.65894e-07
3.68891e-07
3.01353e-07
3.32505e-07
3.68269e-07
3.39869e-07
3.50713e-07
2.81396e-07
3.00965e-07
3.30263e-07
3.7925e-07
3.63571e-07
4.00765e-07
3.94204e-07
3.40964e-07
3.56706e-07
3.25399e-07
3.34072e-07
3.56929e-07
3.35374e-07
3.3433e-07
3.35067e-07
3.5035e-07
3.77477e-07
3.4669e-07
3.55154e-07
3.51855e-07
3.37451e-07
3.50277e-07
3.33126e-07
3.86566e-07
3.49165e-07
3.60469e-07
4.05856e-07
3.34645e-07
3.28133e-07
3.32114e-07
3.38211e-07
4.23665e-07
4.34415e-07
3.88342e-07
4.19293e-07
3.77585e-07
4.17969e-07
4.14097e-07
3.84777e-07
4.25779e-07
3.77164e-07
3.75302e-07
4.06464e-07
4.46763e-07
4.77402e-07
5.52053e-07
5.0258e-07
4.33275e-07
4.30071e-07
4.41556e-07
4.81027e-07
4.50367e-07
4.09736e-07
3.96633e-07
4.3713e-07
4.91619e-07
4.83314e-07
4.33348e-07
4.47139e-07
4.65391e-07
4.83286e-07
4.52213e-07
4.15976e-07
4.82532e-07
4.48899e-07
5.13386e-07
5.25946e-07
4.15012e-07
3.919e-07
4.31529e-07
4.53337e-07
5.39148e-07
5.04384e-07
4.79756e-07
5.40456e-07
5.2168e-07
5.36593e-07
4.93722e-07
4.97064e-07
5.83721e-07
5.41546e-07
4.82015e-07
5.79016e-07
6.27465e-07
7.00994e-07
7.96386e-07
7.00923e-07
6.19853e-07
6.11134e-07
6.69571e-07
7.20083e-07
6.36762e-07
5.87395e-07
5.68227e-07
6.46848e-07
7.33373e-07
6.77253e-07
6.22265e-07
6.39753e-07
6.83559e-07
7.2778e-07
6.51319e-07
5.97916e-07
6.93885e-07
6.42708e-07
7.60474e-07
7.3749e-07
5.92762e-07
5.52949e-07
6.21307e-07
6.44884e-07
7.43349e-07
6.64273e-07
6.88542e-07
7.67479e-07
7.84046e-07
7.59154e-07
6.93422e-07
7.30735e-07
8.61689e-07
7.96633e-07
6.67625e-07
8.98076e-07
9.55898e-07
1.07192e-06
1.19518e-06
1.0601e-06
9.54688e-07
9.52144e-07
1.05157e-06
1.10831e-06
9.67946e-07
9.03332e-07
8.7483e-07
1.00747e-06
1.12662e-06
1.02251e-06
9.64027e-07
9.89068e-07
1.08953e-06
1.13958e-06
1.02093e-06
9.21322e-07
1.07348e-06
9.88531e-07
1.17246e-06
1.10406e-06
8.99576e-07
8.43953e-07
9.66127e-07
9.83718e-07
1.0998e-06
9.57181e-07
1.02756e-06
1.13244e-06
1.20368e-06
1.12361e-06
1.04679e-06
1.08257e-06
1.2969e-06
1.1888e-06
1.01232e-06
1.3804e-06
1.44543e-06
1.63529e-06
1.82075e-06
1.63738e-06
1.47105e-06
1.47832e-06
1.65773e-06
1.72097e-06
1.51297e-06
1.39603e-06
1.3357e-06
1.57077e-06
1.72918e-06
1.58438e-06
1.47631e-06
1.51215e-06
1.72778e-06
1.80406e-06
1.64126e-06
1.40291e-06
1.62122e-06
1.50992e-06
1.80426e-06
1.68672e-06
1.36023e-06
1.28849e-06
1.51279e-06
1.52892e-06
1.68784e-06
1.43581e-06
1.54261e-06
1.71259e-06
1.86176e-06
1.72349e-06
1.58682e-06
1.57061e-06
1.96486e-06
1.79135e-06
1.59201e-06
2.01305e-06
2.1009e-06
2.40543e-06
2.69791e-06
2.44384e-06
2.16301e-06
2.17047e-06
2.52443e-06
2.6072e-06
2.30188e-06
2.09693e-06
1.9657e-06
2.38847e-06
2.60261e-06
2.41161e-06
2.16041e-06
2.22473e-06
2.63597e-06
2.79082e-06
2.53047e-06
2.02019e-06
2.35572e-06
2.27228e-06
2.71666e-06
2.51485e-06
1.96769e-06
1.92888e-06
2.33965e-06
2.36277e-06
2.55221e-06
2.05267e-06
2.20087e-06
2.55574e-06
2.78919e-06
2.6074e-06
2.25343e-06
2.18663e-06
2.92489e-06
2.67709e-06
2.43022e-06
2.7141e-06
2.90787e-06
3.43294e-06
3.87404e-06
3.42177e-06
2.91275e-06
2.99219e-06
3.70728e-06
3.80373e-06
3.30921e-06
2.94462e-06
2.74437e-06
3.51051e-06
3.80039e-06
3.43673e-06
2.90659e-06
3.08372e-06
3.82089e-06
4.09334e-06
3.5656e-06
2.70295e-06
3.26287e-06
3.32194e-06
3.93444e-06
3.57508e-06
2.64045e-06
2.7191e-06
3.42313e-06
3.50099e-06
3.632e-06
2.72685e-06
2.9331e-06
3.62028e-06
3.97822e-06
3.72346e-06
3.00688e-06
3.01245e-06
4.25446e-06
3.92884e-06
3.49094e-06
3.36313e-06
3.79205e-06
4.67677e-06
5.19296e-06
4.37108e-06
3.61759e-06
3.97566e-06
5.16672e-06
5.17602e-06
4.31682e-06
3.76543e-06
3.65163e-06
4.76183e-06
5.14515e-06
4.39699e-06
3.5654e-06
4.03803e-06
5.11922e-06
5.50948e-06
4.46135e-06
3.33718e-06
4.14501e-06
4.61113e-06
5.30538e-06
4.59127e-06
3.21894e-06
3.57077e-06
4.63722e-06
4.76519e-06
4.68496e-06
3.39948e-06
3.74076e-06
4.9038e-06
5.37604e-06
4.88608e-06
3.69261e-06
3.97861e-06
5.87463e-06
5.36192e-06
4.5222e-06
3.8266e-06
4.49568e-06
5.81959e-06
6.22999e-06
4.96545e-06
4.05194e-06
4.7941e-06
6.47727e-06
6.34443e-06
4.96891e-06
4.33861e-06
4.3921e-06
5.97047e-06
6.25996e-06
5.0411e-06
3.98256e-06
4.81359e-06
6.25876e-06
6.6797e-06
5.12526e-06
3.84332e-06
4.67669e-06
5.77356e-06
6.41408e-06
5.27243e-06
3.58541e-06
4.24604e-06
5.69725e-06
5.8196e-06
5.28459e-06
3.74453e-06
4.45632e-06
6.07434e-06
6.55475e-06
5.75417e-06
4.23804e-06
4.91967e-06
7.29096e-06
6.53264e-06
5.16196e-06
3.95698e-06
4.88313e-06
6.61991e-06
6.8762e-06
5.19183e-06
4.177e-06
5.28163e-06
7.51318e-06
7.18893e-06
5.17688e-06
4.62647e-06
4.80293e-06
6.91613e-06
7.05772e-06
5.25143e-06
4.07645e-06
5.27106e-06
7.09321e-06
7.48573e-06
5.40046e-06
4.10891e-06
5.02022e-06
6.67944e-06
7.25648e-06
5.51468e-06
3.62783e-06
4.67206e-06
6.57855e-06
6.59619e-06
5.49419e-06
3.94313e-06
4.89754e-06
7.04249e-06
7.40757e-06
6.14805e-06
4.34061e-06
5.37812e-06
8.2667e-06
7.27916e-06
5.38987e-06
3.95072e-06
5.2622e-06
7.37735e-06
7.22302e-06
5.12069e-06
4.15208e-06
5.57395e-06
8.32774e-06
7.71771e-06
5.18472e-06
4.84535e-06
5.15749e-06
7.78597e-06
7.44792e-06
5.09568e-06
4.035e-06
5.53657e-06
7.84178e-06
7.85349e-06
5.42833e-06
4.17625e-06
5.42533e-06
7.46556e-06
7.95584e-06
5.28349e-06
3.58931e-06
5.04383e-06
7.31662e-06
7.02872e-06
5.25273e-06
3.74718e-06
5.20647e-06
7.76154e-06
7.67525e-06
5.99757e-06
4.20115e-06
5.64804e-06
9.01465e-06
7.60347e-06
5.25334e-06
3.88971e-06
5.60034e-06
7.87025e-06
7.28199e-06
4.87137e-06
4.11718e-06
5.80489e-06
8.87737e-06
7.90271e-06
4.85379e-06
4.94681e-06
5.33188e-06
8.2914e-06
7.50721e-06
4.77772e-06
4.01672e-06
5.76551e-06
8.42508e-06
7.85432e-06
5.05075e-06
4.25053e-06
5.73907e-06
8.01536e-06
8.1688e-06
4.9258e-06
3.51702e-06
5.28691e-06
7.78397e-06
7.19173e-06
4.87791e-06
3.74243e-06
5.38513e-06
8.20115e-06
7.63064e-06
5.55294e-06
3.98274e-06
5.69162e-06
9.40015e-06
7.50394e-06
4.90818e-06
4.06954e-06
6.15038e-06
8.58144e-06
7.47877e-06
4.73671e-06
4.31387e-06
6.26131e-06
9.67446e-06
8.12782e-06
4.68563e-06
5.02775e-06
5.64827e-06
8.89502e-06
7.58737e-06
4.62334e-06
4.14695e-06
6.22276e-06
9.25655e-06
7.96187e-06
4.79187e-06
4.36449e-06
6.32331e-06
8.69913e-06
8.39737e-06
4.73341e-06
3.67752e-06
5.75307e-06
8.32768e-06
7.22168e-06
4.67492e-06
3.84763e-06
5.79319e-06
8.78428e-06
7.71052e-06
5.25325e-06
4.13584e-06
6.10123e-06
9.93929e-06
7.48128e-06
4.70329e-06
4.15255e-06
6.63297e-06
9.06343e-06
7.741e-06
4.75135e-06
4.48572e-06
6.66013e-06
1.0263e-05
8.33862e-06
4.73335e-06
5.00647e-06
5.87269e-06
9.32722e-06
7.75331e-06
4.67365e-06
4.23174e-06
6.64873e-06
9.81941e-06
8.23549e-06
4.861e-06
4.488e-06
6.79878e-06
9.17326e-06
8.65499e-06
4.81267e-06
3.79643e-06
6.159e-06