# y+ ()       
# Time        	patch         	min           	max           	average       
77            	bottomWall	2.801184e+00	4.813351e+00	3.566948e+00
77            	topWall	2.709646e+00	5.030386e+00	3.616123e+00
