/*--------------------------------*- C++ -*----------------------------------*\
  =========                 |
  \\      /  F ield         | OpenFOAM: The Open Source CFD Toolbox
   \\    /   O peration     | Website:  https://openfoam.org
    \\  /    A nd           | Version:  10
     \\/     M anipulation  |
\*---------------------------------------------------------------------------*/
FoamFile
{
    format      ascii;
    class       surfaceScalarField;
    location    "45";
    object      phi_0;
}
// * * * * * * * * * * * * * * * * * * * * * * * * * * * * * * * * * * * * * //

dimensions      [0 3 -1 0 0 0 0];

internalField   nonuniform List<scalar> 
300480
(
0.000160079
7.49983e-06
0.000186183
0.000151289
2.09244e-05
0.000184183
0.000144373
1.38205e-05
0.000169051
0.000150866
-3.36374e-05
0.000176603
0.000161696
-9.24941e-06
0.000164334
0.000161459
1.53811e-05
0.000158908
0.00015888
9.89436e-06
0.00017431
0.000169871
-5.67596e-06
0.000181364
0.000166879
1.79354e-05
0.000183798
0.000153122
3.84348e-05
0.000188022
0.000157793
-1.01423e-05
0.00016674
0.000162959
1.79798e-05
0.000158716
0.000160384
4.17717e-05
0.000167998
0.000154108
2.26978e-05
0.000184562
0.000153833
2.41494e-05
0.00017336
0.0001636
-1.08786e-05
0.000173809
0.000163498
8.67944e-06
0.000178923
0.000161597
9.0152e-06
0.000181542
0.000156656
2.28076e-05
0.000184491
0.000150961
3.38406e-05
0.000161242
0.000161736
-2.39483e-05
0.000147541
0.000167412
-1.341e-05
0.000159146
0.00015954
2.80535e-05
0.00017255
0.000147973
2.91038e-05
0.000166414
0.000149783
-1.25995e-06
0.00015558
0.000158942
-3.42153e-05
0.000177376
0.000163126
2.34253e-06
0.000182752
0.000157964
1.94315e-05
0.000179402
0.000156499
1.17289e-05
0.000179515
0.000153579
1.43195e-05
0.000174578
0.000149342
9.0544e-06
0.000186922
0.00016168
-1.87203e-05
0.000187571
0.000164018
-1.50814e-07
0.000194044
0.000159652
2.18544e-05
0.000179007
0.000157196
1.73391e-05
0.000165125
0.000157231
8.89311e-06
0.000164802
0.000156001
5.97673e-06
0.000172492
0.000153631
4.01376e-06
0.000187486
0.000158952
3.01082e-06
0.000172753
7.83229e-07
0.000166141
0.000176481
1.73649e-05
0.00017887
0.000146773
6.26634e-05
0.000156592
0.000124575
8.1738e-06
0.000147241
0.000146149
-0.000164414
0.000189063
0.000178697
-7.98244e-05
0.00013755
0.000180276
1.4257e-05
0.000117298
0.000175625
1.07701e-06
0.000147145
0.000198912
-4.17658e-05
0.000146521
0.000194884
3.57147e-05
0.000174155
0.000159835
0.000104228
0.00018615
0.000165575
-8.30454e-05
0.000154238
0.000180984
1.48144e-06
0.000125398
0.000182176
6.65222e-05
0.00014287
0.000166117
4.12823e-05
0.00017464
0.000158935
7.37216e-05
0.000131345
0.000181059
-6.62134e-05
0.00014022
0.000185858
-4.7711e-06
0.000157155
0.000173576
7.65188e-06
0.000168523
0.000162614
5.88168e-05
0.00016389
0.000174473
3.04133e-05
0.000117058
0.000199372
-0.000170045
0.000133853
0.00019787
-6.47154e-05
0.00013343
0.000178924
8.01845e-05
0.000143355
0.000152939
3.78682e-05
0.000141583
0.000141427
-5.58853e-05
0.000137879
0.000159718
-0.000157767
0.000171161
0.000179237
-3.59858e-05
0.000174876
0.000167218
3.04806e-05
0.000162664
0.000161894
-8.81138e-06
0.000164312
0.000153959
3.86257e-05
0.000147161
0.000146232
-1.71857e-06
0.000169793
0.000175058
-9.41002e-05
0.000167991
0.000183362
-1.86218e-05
0.000184409
0.000170003
4.12011e-05
0.000154487
0.000160876
1.93771e-05
0.000131323
0.000169356
-1.25875e-05
0.000125337
0.000169866
2.63043e-06
0.000145681
0.000155222
1.4596e-06
0.000179357
0.000165847
-4.25093e-05
0.000143952
-2.93722e-05
0.000132842
0.000196496
2.14535e-05
0.000155573
0.00015719
0.000104158
0.00013158
0.000112615
5.53576e-05
0.000140767
0.000147737
-0.000251476
0.000187584
0.000211776
-0.000185392
0.000128731
0.000212756
-8.14279e-06
0.000101506
0.000201153
-2.33439e-05
0.000135668
0.000234801
-0.000107519
0.000125546
0.000235505
4.47104e-05
0.000159824
0.000177225
0.000185716
0.000181319
0.000177526
-0.000162222
0.000159279
0.000212726
-2.93973e-05
0.000108207
0.000214727
7.72995e-05
0.000125604
0.000183299
6.71562e-05
0.000165961
0.00017033
0.000138541
9.97426e-05
0.000203741
-0.0001343
0.000108368
0.000214291
-3.72203e-05
0.000129238
0.000188192
-6.34328e-06
0.000167902
0.000173565
9.99896e-05
0.000160127
0.000216906
-1.96206e-06
9.06292e-05
0.000256798
-0.000338182
0.000134538
0.000230779
-0.000119569
0.000138743
0.000211258
0.000142274
0.00011918
0.000191347
2.09439e-05
0.000137043
0.000144419
-0.000100078
0.000143351
0.000154486
-0.000274282
0.000170723
0.000196171
-9.24668e-05
0.000168
0.00018064
3.33336e-05
0.000148557
0.000168193
-6.06354e-05
0.000167033
0.000158038
6.21961e-05
0.000125659
0.000147132
-3.65451e-05
0.000161119
0.000186588
-0.000181433
0.000154099
0.000204406
-5.44133e-05
0.000161239
0.000185537
4.26872e-05
0.000136515
0.000174117
1.93214e-05
0.000109266
0.000192328
-4.7541e-05
0.000103244
0.000196239
-1.16767e-05
0.000127181
0.000173025
-7.02841e-07
0.000168611
0.000177489
-0.000126227
0.000153107
-8.11719e-05
0.000118859
0.000222751
1.46874e-05
0.000121875
0.000195639
0.000134567
0.000107308
0.00013623
0.000136962
0.000140941
0.000166254
-0.000259724
0.000165185
0.000249884
-0.000299555
0.000115173
0.000245181
-4.61662e-05
0.000105691
0.000220234
-5.21018e-05
0.000137608
0.000265503
-0.000195916
0.000126883
0.00027994
2.80203e-05
0.000147485
0.000202105
0.000282583
0.00017647
0.000189072
-0.000186188
0.000161463
0.000247383
-4.88508e-05
9.52742e-05
0.000253286
0.000100074
0.000113831
0.000203928
0.000104233
0.000170883
0.000177056
0.000194722
0.000110362
0.000224437
-0.000202235
9.02883e-05
0.000245261
-8.50642e-05
0.000108463
0.000209255
-5.47554e-05
0.000171985
0.000193263
0.000125381
0.000179039
0.000240968
1.37287e-05
7.21442e-05
0.000290249
-0.000418546
0.00011317
0.000254412
-0.000159376
0.000135761
0.000232771
0.000230664
9.52748e-05
0.00022959
-3.20712e-05
0.00013989
0.000165159
-0.000144403
0.000154197
0.0001645
-0.000346645
0.000158893
0.000216235
-0.000139611
0.000148461
0.000194451
3.86244e-05
0.000133787
0.000174278
-0.000144962
0.000184011
0.000167626
6.40207e-05
0.000122405
0.000151583
-9.03837e-05
0.000164395
0.000191599
-0.000243057
0.000143123
0.00022147
-0.000112642
0.000136282
0.000210017
2.46242e-05
0.000123048
0.00019606
2.76504e-05
9.80134e-05
0.000210546
-8.05576e-05
0.00010601
0.000216256
-4.04047e-05
0.000120119
0.000199958
-7.62516e-06
0.000155854
0.000198787
-0.000213419
0.000182035
-0.000137246
0.000116268
0.000254399
1.94438e-06
8.44938e-05
0.000256461
0.000151772
7.83974e-05
0.000202952
0.000205948
0.000135804
0.000207973
-0.000210641
0.000146295
0.00026892
-0.000381322
9.88765e-05
0.000249921
-8.5074e-05
0.000120544
0.000221104
-7.42167e-05
0.00013287
0.000281551
-0.000295863
0.000131432
0.000309985
-1.84972e-05
0.00013866
0.000237583
0.000380428
0.000166445
0.000209097
-0.000141462
0.00017121
0.000272417
-4.01606e-05
8.31101e-05
0.00029245
0.000151764
0.000108321
0.000232919
0.000142192
0.000195353
0.000177491
0.000251706
0.000142634
0.000236452
-0.000261836
8.51188e-05
0.000287293
-0.000150983
9.78434e-05
0.000239492
-0.000132966
0.000175835
0.000223654
0.000112863
0.000201079
0.000283283
8.03409e-05
6.45203e-05
0.000320944
-0.00042456
0.000107641
0.000282698
-0.00018476
0.000144261
0.000240227
0.000352497
7.45707e-05
0.000209344
-6.40952e-05
0.000136081
0.000163464
-0.00021796
0.000169158
0.000180271
-0.000401643
0.000152233
0.000233828
-0.000171208
0.000118814
0.000210049
5.25051e-05
0.00011282
0.000193301
-0.0002467
0.000198282
0.000201357
3.56279e-05
0.00013798
0.000175686
-0.000105974
0.000151607
0.000192613
-0.000263226
0.000142174
0.000222519
-0.000180083
0.000120594
0.000232345
-1.70257e-05
0.000107036
0.000214532
2.8496e-05
0.000102317
0.000211258
-0.000108946
0.00012931
0.000215027
-7.85872e-05
0.000115404
0.00022712
-2.44859e-05
0.000136569
0.000231906
-0.000281244
0.000194206
-0.000183852
0.000112718
0.000283089
-1.56031e-05
4.69216e-05
0.000314087
0.000169497
4.11608e-05
0.000282928
0.000248492
0.000129963
0.000269443
-0.000114979
0.00014517
0.000278917
-0.000379832
8.46479e-05
0.000232138
-0.000111245
0.000142555
0.00021884
-8.58326e-05
0.000110129
0.00029006
-0.000406024
0.000117184
0.000318709
-8.06308e-05
0.000122394
0.000280177
0.0004552
0.000151583
0.000243507
-4.70974e-05
0.00018526
0.000293929
-9.70711e-06
6.57946e-05
0.000335731
0.000200054
0.000106568
0.000278835
0.00016331
0.000234676
0.000208748
0.000312792
0.00017167
0.000251057
-0.000286163
8.83183e-05
0.000345681
-0.000228506
8.2069e-05
0.000320178
-0.000232225
0.000178827
0.000279528
8.01953e-05
0.000218381
0.000335307
0.00018013
6.01185e-05
0.000340337
-0.000379739
8.79247e-05
0.00030508
-0.00017912
0.000148173
0.000239891
0.000455542
6.27347e-05
0.000160384
-1.50146e-05
0.000121978
0.000150315
-0.000273015
0.000167625
0.000193148
-0.000465886
0.000143263
0.000242248
-0.000198295
9.73566e-05
0.000224139
7.79305e-05
9.09806e-05
0.000231446
-0.000326004
0.000185026
0.000257483
-1.53988e-05
0.000157192
0.000211366
-4.77726e-05
0.000137237
0.000194503
-0.000238628
0.000142717
0.000216016
-0.000238268
0.000109498
0.00023675
-7.28025e-05
9.82093e-05
0.000213355
1.86039e-05
0.000130226
0.000216896
-0.000144781
0.00016021
0.000223914
-0.000106591
9.77523e-05
0.00025941
-3.22817e-05
0.000112475
0.000266307
-0.000324094
0.000190528
-0.00021987
0.000117166
0.00031837
-3.58308e-05
3.63451e-05
0.000348547
0.000216746
2.31022e-05
0.000335033
0.000274692
0.00012515
0.000337496
-1.91145e-05
0.00014703
0.000313797
-0.000295782
6.66011e-05
0.000231998
-0.000126701
0.0001586
0.000234044
-8.42706e-05
9.07373e-05
0.000304089
-0.00050546
8.76312e-05
0.000312559
-0.000130873
9.07955e-05
0.000306699
0.000508537
0.000139216
0.000275319
6.41703e-05
0.000197758
0.000317708
3.26568e-05
4.07314e-05
0.00037906
0.000190174
8.94228e-05
0.000323884
0.000150324
0.000273005
0.000278039
0.000358796
0.000185223
0.000280245
-0.000258304
0.000102011
0.000381728
-0.000287558
6.04273e-05
0.000433027
-0.000352422
0.000174582
0.000373312
4.88363e-05
0.00023643
0.000388104
0.000316542
4.91085e-05
0.000348564
-0.000265207
6.22729e-05
0.000299721
-0.000133268
0.00013393
0.000257475
0.00049851
6.32278e-05
0.000196599
4.12009e-05
0.000106366
0.000193825
-0.000316951
0.000166034
0.000221891
-0.000517973
0.000120474
0.000255284
-0.000221409
9.10651e-05
0.000239439
0.000117035
8.60222e-05
0.000260399
-0.000348684
0.000142056
0.000295937
-5.11756e-05
0.000154502
0.000247134
2.43983e-05
0.000134204
0.000221688
-0.000203892
0.000128952
0.000244426
-0.000275628
0.000103055
0.000251001
-9.83989e-05
8.83086e-05
0.00021425
2.34241e-05
0.000166335
0.000249214
-0.000173837
0.000178707
0.000268192
-0.000117121
7.98903e-05
0.000298589
-1.28089e-05
9.77909e-05
0.000294661
-0.000338696
0.000184901
-0.000259616
0.000143317
0.000335194
-5.58467e-05
6.96727e-05
0.000375954
0.000264515
3.84311e-05
0.000377349
0.000330672
0.000127384
0.000402158
6.94127e-05
0.000142009
0.000374789
-0.000167744
4.74867e-05
0.000263944
-0.000111998
0.000150982
0.000265079
-6.33943e-05
9.90917e-05
0.000330233
-0.000564385
9.24379e-05
0.000318652
-0.000160825
5.15674e-05
0.00033269
0.000556827
0.000125443
0.000304375
0.000186224
0.000210108
0.000349884
9.83091e-05
1.75436e-05
0.00043245
0.000119478
5.4689e-05
0.000361903
0.000117436
0.00028361
0.000327186
0.000416804
0.000176951
0.000320499
-0.000189124
0.000110204
0.000408271
-0.000309956
3.37099e-05
0.000505556
-0.000466475
0.0001497
0.00045714
7.83347e-06
0.000263695
0.000436247
0.000476351
5.45699e-05
0.000350649
-9.11183e-05
4.97341e-05
0.000260621
-6.76098e-05
0.000129956
0.000291923
0.000515809
5.39305e-05
0.000326558
-1.22517e-05
6.74325e-05
0.00030363
-0.000367841
0.000155752
0.000274888
-0.00047874
9.84e-05
0.000285995
-0.000219852
8.47731e-05
0.000292389
0.000133
0.000105946
0.000298703
-0.000318273
0.000100782
0.000329958
-4.59463e-05
0.000120531
0.000310476
5.41041e-05
0.00013179
0.000285799
-0.000173825
0.00011306
0.000306124
-0.000281228
0.000119972
0.00028163
-8.14957e-05
8.36896e-05
0.000221562
3.82542e-05
0.000191764
0.00028859
-0.000156974
0.00014563
0.000331815
-0.000115739
5.0798e-05
0.000343043
2.69397e-05
8.25179e-05
0.000336967
-0.000317974
0.0001717
-0.000295819
0.000178302
0.000342453
-9.13977e-05
0.000116101
0.000396118
0.000309524
8.61748e-05
0.000409615
0.000408256
0.000145345
0.000441676
0.000149004
0.000121784
0.000436499
-5.04758e-05
2.11397e-05
0.000341408
-9.85375e-05
0.000120283
0.000330468
-4.37555e-05
0.000108669
0.000364576
-0.000581576
0.000137499
0.000332684
-0.000148999
1.58613e-05
0.000366535
0.000589733
0.00011445
0.000349726
0.000299554
0.000233842
0.000401762
0.000195416
-7.51557e-06
0.00049128
3.12683e-05
2.49628e-05
0.000405549
8.15441e-05
0.000264215
0.000365341
0.000489958
0.000165403
0.000370812
-9.89837e-05
0.000111358
0.000458918
-0.000303721
1.0176e-05
0.000557816
-0.000545319
0.00010526
0.000517963
-3.16439e-05
0.000289284
0.000480667
0.000610995
9.26241e-05
0.000376012
9.93088e-05
2.69433e-05
0.000258704
-6.57242e-05
0.000173634
0.0003546
0.000434697
4.9559e-05
0.000461735
-0.000124939
3.77808e-05
0.000419078
-0.000391249
0.0001506
0.000339075
-0.00036742
9.05127e-05
0.000316814
-0.000175682
6.63827e-05
0.000338075
0.000107439
0.000153516
0.000350142
-0.000279113
0.000101122
0.000391677
-4.00164e-05
7.72486e-05
0.000398883
6.0275e-05
0.000126904
0.000379119
-0.000127203
8.77401e-05
0.000385465
-0.000278021
0.000138072
0.000325658
-5.88622e-05
0.000103012
0.000243808
4.80082e-05
0.000198104
0.000341062
-0.000105964
6.57336e-05
0.000406104
-9.49268e-05
-8.74467e-06
0.000404571
7.78859e-05
4.43825e-05
0.000393878
-0.000246002
0.000139103
-0.000324855
0.000187422
0.000356992
-0.000141552
0.000162493
0.000394235
0.000347568
0.00014498
0.000434832
0.000452343
0.000155321
0.000489831
0.000213991
9.00869e-05
0.00050658
5.76301e-05
-1.56255e-05
0.00044278
-0.000123625
6.23685e-05
0.000424489
-9.65777e-05
0.000132137
0.000404241
-0.000572246
0.000170161
0.000357792
-0.00010132
2.05223e-05
0.000403342
0.000590392
0.000127012
0.000418667
0.000365631
0.000255809
0.000474858
0.000301974
-5.82879e-05
0.000510567
-1.75629e-05
6.63801e-06
0.000414404
6.11404e-05
0.000243905
0.000391712
0.000531793
0.000164064
0.000423812
7.3117e-07
0.00010938
0.000517811
-0.000284973
9.71947e-06
0.000574319
-0.000547985
6.32226e-05
0.000542091
-7.53328e-05
0.000326741
0.000554569
0.000623005
0.000148257
0.000444618
0.000308933
-1.41974e-05
0.000299971
-6.54973e-05
0.000229256
0.000431444
0.000282618
9.97928e-05
0.000555849
-0.000201896
4.33058e-05
0.000500004
-0.000360998
0.000143014
0.000398139
-0.000244916
8.07026e-05
0.000354034
-0.000142314
6.78154e-05
0.000351076
5.78817e-05
0.000213079
0.000365433
-0.000233161
0.000130744
0.000443025
-4.77687e-05
4.8177e-05
0.000477703
6.19921e-05
0.000114946
0.000454433
-6.11929e-05
5.63367e-05
0.000457983
-0.000268936
0.000102543
0.000390929
-7.95753e-05
0.000129501
0.000292677
8.10968e-05
0.000187666
0.000399799
-6.15842e-05
1.67346e-05
0.000485789
-6.87316e-05
-6.50048e-05
0.000492819
0.00011243
-1.28833e-06
0.000460821
-0.000126955
0.000100008
-0.00032013
0.000159963
0.000379141
-0.000197774
0.00020492
0.000415339
0.000345189
0.00018452
0.000454018
0.000498529
0.000114391
0.000553511
0.000245899
6.471e-05
0.000605104
0.0001757
-7.02012e-05
0.000488687
-7.7317e-05
7.76052e-06
0.000455094
-0.000176001
0.000178437
0.000447737
-0.000570452
0.000170811
0.000405089
-8.54582e-05
6.74828e-05
0.000423582
0.000585536
0.00017157
0.000481398
0.000384464
0.000257724
0.000549955
0.000377706
-7.62257e-05
0.000510328
-1.63769e-05
3.04893e-06
0.000420591
6.03584e-05
0.000210509
0.000415596
0.000552871
0.000132828
0.00046701
0.000110748
0.000119754
0.000562811
-0.000254202
3.1525e-05
0.000572222
-0.000517734
7.50563e-05
0.00055376
-0.000152746
0.000376667
0.000616303
0.000554992
0.000180117
0.000528048
0.000505585
-4.29732e-05
0.000386982
1.96775e-05
0.000226249
0.000509261
0.000196348
0.000136473
0.000609394
-0.000203282
1.77249e-05
0.000561695
-0.00031051
0.000129852
0.000449715
-0.000132517
7.07416e-05
0.000372481
-8.98419e-05
5.94949e-05
0.000384562
-3.22301e-05
0.000245148
0.000395419
-0.000204897
0.000203786
0.000455565
-5.26127e-05
7.59472e-05
0.000532121
2.44677e-05
0.000106646
0.000512742
8.69438e-06
5.00465e-05
0.000491936
-0.000178451
4.16697e-05
0.000430557
-0.000129367
0.000148738
0.000345021
0.00013815
0.000180822
0.00042841
-2.4888e-05
4.1273e-05
0.000539818
-6.17751e-05
-6.86147e-05
0.000587648
9.70686e-05
-3.53697e-05
0.000574138
-3.46866e-05
9.57143e-05
-0.000225196
0.000105873
0.000467377
-0.000244762
0.000203284
0.000502255
0.000308754
0.000212777
0.000507608
0.000549754
0.000101266
0.000610308
0.000259258
6.97686e-05
0.000713135
0.000243094
-9.23251e-05
0.000581715
2.019e-05
1.56317e-05
0.000477999
-0.000139461
0.000174844
0.000480162
-0.000521465
0.000140276
0.000470575
-0.00015188
6.9057e-05
0.000449705
0.000543554
0.000203222
0.000505421
0.00037533
0.000264171
0.000589405
0.000387565
-3.17828e-05
0.000528743
-1.82414e-05
-1.15441e-06
0.000469658
5.631e-05
0.000140356
0.000479343
0.000564464
8.94773e-05
0.000534298
0.000210439
0.000151283
0.000615663
-0.000173872
3.33007e-05
0.000570489
-0.000425259
8.9691e-05
0.000582938
-0.000253716
0.000388241
0.000677622
0.000459183
0.000211724
0.000570751
0.000708184
-3.32909e-05
0.000462527
0.000155805
0.000194355
0.000591093
0.000137951
0.000118755
0.000658383
-0.000115657
-2.23845e-05
0.00064392
-0.000274213
0.000144536
0.000526547
-2.4924e-05
5.95591e-05
0.000395923
7.36251e-05
4.03128e-06
0.000425997
-6.27768e-05
0.000207296
0.000456169
-0.000201807
0.000231525
0.000469542
-6.55492e-05
0.000149611
0.000531899
-6.79396e-06
0.000112122
0.000562384
4.22589e-05
6.03552e-05
0.000572812
-8.7233e-05
1.51778e-05
0.000505433
-0.000158067
0.000146739
0.000411654
0.000219717
0.000175342
0.000480926
-2.07961e-05
7.71216e-05
0.000613077
-7.90944e-05
-6.35432e-05
0.000651221
0.000104005
-5.47684e-05
0.000645408
7.11635e-06
0.000136526
-9.04529e-05
6.0336e-05
0.000583745
-0.000252508
0.000183981
0.00060719
0.00021595
0.000218159
0.00062492
0.000548463
9.45609e-05
0.000699549
0.000285211
4.28987e-05
0.000820119
0.000233566
-7.89878e-05
0.00076285
4.35997e-05
3.69047e-05
0.000588851
-2.0988e-07
0.000115759
0.000545085
-0.000419497
0.000161845
0.000497893
-0.00022375
7.62574e-05
0.000414561
0.00047427
0.000227113
0.000499568
0.000299079
0.000280265
0.000622837
0.000318072
2.08274e-05
0.000590082
-8.48887e-06
-6.30489e-05
0.000555018
1.42379e-05
8.55759e-05
0.000563026
0.000554551
7.70122e-05
0.000615431
0.0003322
0.000114744
0.00069231
-4.12675e-05
4.07576e-05
0.000594233
-0.000260339
7.08878e-05
0.000622654
-0.000330225
0.000363748
0.000740221
0.000298469
0.000232705
0.000611335
0.000900884
1.00003e-06
0.000537812
0.000320852
0.000133401
0.000684649
6.82374e-05
6.65859e-05
0.000705582
2.25147e-05
-3.02005e-06
0.000699309
-0.000247062
0.0001913
0.000623362
3.3108e-05
7.9764e-05
0.000445834
0.000288671
-3.06387e-05
0.000449552
2.71255e-06
0.000140429
0.000526514
-0.000261696
0.00024793
0.000556672
-0.00012675
0.000206323
0.000595198
-4.94818e-06
0.000130905
0.000606979
7.01241e-05
8.72612e-05
0.000649637
-5.10215e-05
6.49122e-05
0.000573449
-0.000168094
0.000181489
0.000460764
0.000347276
0.000162355
0.000558525
-6.72389e-05
8.74173e-05
0.000719017
-0.00013239
-4.67951e-05
0.000730124
0.000167749
-6.42616e-05
0.00067296
4.99739e-05
0.000141111
5.66495e-05
2.88206e-05
0.000710868
-0.000154716
0.00016183
0.000687331
0.000143066
0.000258934
0.000745798
0.0004577
6.36801e-05
0.000822875
0.000291675
-3.67367e-05
0.000919373
0.000188526
-7.02915e-05
0.000936224
1.12701e-05
1.25025e-05
0.000759072
0.000163458
6.24257e-05
0.000671143
-0.000293357
0.000198063
0.000621131
-0.000282602
8.84984e-05
0.000481014
0.000438117
0.000204836
0.000567665
0.000253187
0.000256206
0.000722153
0.000277354
1.6937e-05
0.000680891
5.84598e-05
-0.000115708
0.000651117
-4.34684e-05
8.57993e-05
0.000649306
0.000525462
0.000100998
0.000657575
0.000480528
5.90354e-05
0.000779576
3.73149e-05
0.000123639
0.000707143
-9.71025e-05
1.42012e-05
0.000675156
-0.000332953
0.000331027
0.000748095
0.000104403
0.000313325
0.000679849
0.00108368
-3.10069e-05
0.000679326
0.000484782
-3.39431e-05
0.000778563
2.4824e-05
1.80083e-05
0.000733589
0.000191736
8.30325e-05
0.000704013
-0.000177873
0.000215638
0.000641971
9.32792e-05
0.000123622
0.000524148
0.000346004
5.0753e-05
0.000515978
6.86526e-05
0.000130839
0.000576739
-0.000314933
0.000252518
0.000690132
-0.000247474
0.000227644
0.000755903
-3.45914e-05
0.000144331
0.000708348
0.000136391
7.22555e-05
0.000655515
7.06231e-05
9.20197e-05
0.00054904
-0.00012169
0.000261075
0.000483905
0.000462139
0.000112735
0.000622032
-0.000184405
0.000118266
0.000836642
-0.000250897
7.22067e-06
0.000892529
0.000218397
-0.000120146
0.000824189
8.64957e-05
9.05081e-05
0.000207883
-3.03479e-05
0.000897804
4.02751e-05
0.000104707
0.000702076
0.000182037
0.00030316
0.000832398
0.000252551
1.88345e-05
0.000991392
0.000221714
-0.000104011
0.00104535
0.000178373
-9.82177e-05
0.00104272
-1.2061e-05
3.1414e-05
0.000899768
0.00034178
6.49441e-05
0.000773671
-0.000109709
0.000157901
0.000656295
-0.000257396
0.00012614
0.00056141
0.000362309
0.000186892
0.000689286
0.000215157
0.000199278
0.000818302
0.000326102
2.46379e-05
0.000774196
0.000152381
-9.67776e-05
0.000740097
-3.24461e-05
2.73351e-05
0.000710052
0.000538129
9.19295e-05
0.00069137
0.000593864
7.14421e-05
0.000840076
5.78009e-05
0.000157708
0.000766394
6.70967e-05
-1.86568e-05
0.000648405
-0.000244602
0.000339231
0.000732296
-0.000133581
0.000396433
0.000815292
0.00116482
-5.39193e-05
0.000848376
0.000664512
-0.000214409
0.0007507
6.27967e-05
6.45831e-05
0.000671586
0.000354227
0.000178506
0.000734913
-0.000130213
0.000141505
0.000727596
0.000124592
4.88461e-05
0.000734098
0.000226567
6.80726e-05
0.000759866
6.60321e-05
4.7235e-05
0.000699265
-0.000263097
0.000171801
0.000792482
-0.00034821
0.000253403
0.000839242
-7.30464e-05
0.000205849
0.000758518
0.00020963
0.000155114
0.000655017
0.0002565
7.19985e-05
0.00059605
-0.00010705
0.000265603
0.00056086
0.000500509
5.08156e-05
0.00061623
-0.000222326
0.000109125
0.000826312
-0.00040629
0.000108059
0.000944059
0.000244396
-9.33041e-05
0.000964862
0.000102919
6.7181e-05
0.000244566
-0.000102126
0.00110591
0.000200365
3.22831e-05
0.000830971
0.000225655
0.000367126
0.000808637
0.000203884
2.8482e-05
0.000986651
0.000157585
-0.000119835
0.00113016
0.000121872
-8.49942e-05
0.00118679
-7.22024e-05
3.917e-05
0.00112282
0.000372912
7.05504e-05
0.000954756
0.000111656
7.56603e-05
0.000843992
-0.000224341
0.00016507
0.000721441
0.000290936
0.000138217
0.000764175
0.000231612
0.000146161
0.000934558
0.000321442
8.00753e-05
0.000980445
0.000168249
-0.000113989
0.000958527
4.60626e-05
-5.14933e-05
0.000892728
0.000654903
2.62566e-05
0.00085342
0.000645108
4.92442e-05
0.000912609
0.000158
0.000120578
0.000831386
0.000229453
1.97021e-05
0.000703075
-0.000134027
0.000310267
0.000746125
-0.000318574
0.000431378
0.000903162
0.000998935
3.65799e-05
0.000938233
0.000856553
-0.000335624
0.000755434
0.000168006
6.77284e-05
0.000642337
0.00053861
0.000101983
0.00074762
-4.51624e-05
0.000143538
0.00086166
0.000100909
2.55562e-05
0.000981732
2.01352e-05
2.07234e-05
0.00106871
-6.14049e-05
2.46866e-05
0.000863036
-9.01963e-05
9.82668e-05
0.000835218
-0.00038851
0.000271727
0.000858808
-0.00011802
0.000269047
0.0007416
0.00027665
0.000252293
0.000635539
0.000454486
7.32447e-05
0.000654805
-0.00011139
0.000232661
0.00076558
0.000376438
2.86283e-05
0.000731146
-0.000133639
2.6083e-05
0.000786636
-0.000411198
0.000163118
0.00100714
0.000179647
-2.16926e-05
0.0011364
5.50681e-05
0.000116103
0.000298237
-0.000142704
0.0011286
0.000311911
-0.000102845
0.00100205
0.000189046
0.000361819
0.000886786
0.000318599
2.95953e-05
0.00101414
0.000163424
-0.000137431
0.00120138
1.06049e-05
-3.86334e-05
0.00116884
5.09049e-06
4.07519e-05
0.00119515
0.000280015
0.000111941
0.00119999
0.000151038
-1.79443e-05
0.0010647
-0.000120284
0.000108012
0.000820956
0.000346059
0.000151695
0.000844533
0.000249092
9.95129e-05
0.00107518
0.000185457
0.000157814
0.0010655
0.000252626
-6.05786e-05
0.00100906
0.000179737
-4.00037e-06
0.000973648
0.00080328
-2.1026e-06
0.00097301
0.000615121
4.04142e-05
0.00101747
0.000202119
0.000173922
0.000952633
0.000363163
6.14677e-05
0.00085372
-0.00012862
0.000219422
0.000854309
-0.000455094
0.000490947
0.00102824
0.000784358
0.000115563
0.00111569
0.000958114
-0.000332605
0.000896936
0.000295802
7.68621e-05
0.000810497
0.000588862
0.000107892
0.000921686
0.000104325
0.000128907
0.00099823
0.000215571
5.31013e-05
0.00109648
-8.28886e-05
-1.70814e-05
0.00117177
-6.77696e-05
6.30131e-05
0.000883012
0.000159047
0.000124644
0.000774458
-0.000448056
0.000365556
0.000841766
-0.00023285
0.000384024
0.00086657
0.000200881
0.000284582
0.000841159
0.000594176
3.51379e-05
0.000821789
-1.93254e-05
0.000210469
0.000945869
0.000241347
5.01388e-05
0.000959646
-7.4355e-05
-6.25805e-05
0.00103762
-0.000465769
0.00017105
0.00111087
0.00021463
4.39121e-05
0.00104248
0.000223601
0.000224535
0.000463874
-0.00017152
0.00129484
0.000339726
-0.0001394
0.0012522
7.70087e-05
0.000366356
0.00110517
0.000491989
7.75643e-05
0.00109581
0.000335339
-0.00021898
0.00126648
-4.2812e-05
1.30835e-05
0.00135085
0.000115397
1.6382e-05
0.00134084
0.000222546
3.32344e-05
0.00130241
0.000176453
-1.0299e-06
0.0010026
0.0002035
8.78789e-06
0.00068758
0.000507072
8.6074e-05
0.000799706
0.000198374
5.22169e-05
0.00111989
-4.57707e-05
0.000186225
0.00122457
0.00027016
-5.89642e-05
0.00111268
0.000322127
1.07372e-05
0.00114168
0.000757033
2.23387e-05
0.00113675
0.000564257
-9.09759e-06
0.00103385
0.000274862
0.000242353
0.00121864
0.000254842
8.29589e-05
0.00115837
-0.000163869
7.17037e-05
0.000913723
-0.000434607
0.000518019
0.00106602
0.000534201
0.00028763
0.00128105
0.000808863
-0.000213573
0.00124247
0.000280177
-5.79421e-05
0.00116521
0.000572183
5.7709e-05
0.00114232
0.000287361
8.67374e-05
0.00114621
0.000304279
0.000152032
0.00121787
-0.000159787
2.24742e-05
0.00127214
-3.53764e-05
0.000107612
0.00103818
0.000347906
0.000113798
0.000817559
-0.000413994
0.000347304
0.000877316
-0.00037196
0.000493502
0.000994938
4.17041e-05
0.00028374
0.000941986
0.000654842
7.9939e-05
0.00100907
3.11943e-05
0.000211467
0.00128503
9.3795e-06
1.01018e-06
0.00111952
0.000156717
-0.000107332
0.000910265
-0.000292865
0.00023761
0.000998567
0.000264907
0.00014015
0.00116469
0.000196261
0.000287777
0.000404218
1.75923e-05
0.00144114
8.64028e-05
-8.27634e-05
0.00127705
5.68868e-05
0.000292448
0.00121228
0.000641385
0.000127741
0.00127902
0.000454223
-0.000206042
0.00129564
2.94799e-05
3.37537e-06
0.00133178
0.000273002
0.000112209
0.00125172
0.000276677
-3.13725e-05
0.00135122
6.02705e-05
-1.98324e-05
0.00144536
0.000236283
6.7208e-05
0.00121293
0.0006962
2.75398e-05
0.00106154
0.000415429
-7.14314e-05
0.00118065
-0.000144427
0.000140249
0.00143819
0.000178159
-1.04213e-07
0.0014736
0.000345727
-8.55442e-05
0.00133728
0.000759864
3.72538e-05
0.00128865
0.000559817
4.01481e-05
0.00118713
0.000258479
0.000326969
0.00143782
0.000164731
0.000117732
0.00141631
-0.000154234
7.85771e-05
0.00102185
-0.000319014
0.000551526
0.00117662
0.000226805
0.000334987
0.00141366
0.000715259
-0.00020389
0.00133576
0.000402779
-4.36019e-05
0.00127687
0.000525231
0.000137112
0.0011221
0.000457752
0.00023384
0.00104615
0.000417917
0.000197618
0.00118328
-0.000295902
6.96278e-05
0.00123552
-6.73219e-05
0.000188652
0.00108037
0.000572971
0.000100356
0.000923986
-0.000315436
0.000251757
0.000876381
-0.000470419
0.000578344
0.00102618
-0.000233069
0.000403711
0.00126843
0.000395775
6.3463e-05
0.00121645
0.000272492
5.4328e-05
0.00131873
2.71363e-05
4.15402e-05
0.00132016
0.000214558
9.32261e-07
0.0012556
-0.00026279
0.0001457
0.00122772
0.000166488
0.000129332
0.0011133
0.00025626
0.000283721
0.000263636
0.000100614
0.00137399
0.000247431
0.000127424
0.00104808
0.00023627
0.000236474
0.00129355
0.000522628
3.70524e-05
0.00137788
0.000536233
-0.000155991
0.0014107
7.06061e-05
-3.90577e-05
0.00169651
0.000222867
9.23286e-05
0.00138646
0.000527747
-7.00995e-05
0.0011028
0.000231018
6.11692e-05
0.00131127
0.000126202
0.000149267
0.0013378
0.000674904
2.14759e-05
0.00134714
0.000494341
-9.96564e-05
0.00134908
-0.000138723
0.000109672
0.00133008
0.000363933
-2.54495e-05
0.00117284
0.00057719
-0.000125479
0.00119446
0.00067277
4.80983e-05
0.00165647
0.000182181
-0.000105956
0.00190729
-6.31074e-05
9.36449e-05
0.00213817
0.000225618
-4.09895e-05
0.00190974
9.80927e-05
0.000169716
0.00125748
7.57052e-06
0.000588351
0.00118667
0.00021061
0.000296422
0.0014066
0.000637869
-1.49072e-05
0.00141922
0.000407166
0.00017432
0.00139689
0.000408583
0.0003017
0.00127823
0.000474982
0.000336039
0.001281
0.000475437
0.000218537
0.00133949
-0.000207366
-2.68046e-05
0.00130971
-6.77331e-05
0.000142689
0.00149333
0.000564964
3.67622e-05
0.00138805
-0.000135377
1.78961e-05
0.00105891
-0.000117229
0.000396745
0.00108936
-0.000409722
0.000501347
0.00130089
-2.26626e-06
0.00030602
0.00134314
0.000384467
-5.14015e-05
0.00161596
3.56499e-05
0.000121188
0.00161581
0.000239777
0.000116084
0.0015118
-0.000213895
0.000151449
0.0015326
1.70696e-05
0.000171696
0.00148377
0.000321233
0.000120771
0.000210677
4.70621e-05
0.00175792
0.000211267
0.000118994
0.00142778
0.000397102
0.000136902
0.00154514
0.000409274
3.89775e-05
0.00174256
0.00053621
-8.10425e-05
0.00166082
0.000264925
-0.000150142
0.00205835
-8.07184e-05
0.000130983
0.00197742
0.000449762
1.01005e-05
0.00126194
0.000903858
-0.000188217
0.0010953
0.000550708
-0.000188429
0.00130736
0.000448058
4.07645e-05
0.00144585
0.000356137
9.38409e-05
0.00128623
0.000111473
0.000286361
0.00135397
0.000380157
6.75801e-05
0.001611
0.000399297
-8.58055e-05
0.00177516
0.000470142
2.62307e-05
0.00179611
0.000245933
-7.52845e-05
0.00161499
0.000249697
7.91916e-05
0.00178991
0.000532368
-0.000249295
0.001906
0.00027605
8.04836e-05
0.00155664
0.000204585
0.000475022
0.00124309
0.000398406
0.000307103
0.00148378