/*--------------------------------*- C++ -*----------------------------------*\
  =========                 |
  \\      /  F ield         | OpenFOAM: The Open Source CFD Toolbox
   \\    /   O peration     | Website:  https://openfoam.org
    \\  /    A nd           | Version:  10
     \\/     M anipulation  |
\*---------------------------------------------------------------------------*/
FoamFile
{
    format      ascii;
    class       volScalarField;
    location    "47.5";
    object      p;
}
// * * * * * * * * * * * * * * * * * * * * * * * * * * * * * * * * * * * * * //

dimensions      [0 2 -2 0 0 0 0];

internalField   nonuniform List<scalar> 
25600
(
0.0579786
0.028205
-0.0222956
-0.0237409
-0.00916977
-0.000101248
-0.0180288
0.00082079
-0.0372272
-0.0216701
-0.0241825
-0.0479301
-0.014263
0.01301
0.0150518
0.013714
-0.00441451
-0.0320992
-0.00326589
-0.0235331
-0.063892
0.00431674
0.0139852
0.00169454
-0.0195432
-0.0590488
-0.0280636
-0.0552032
0.00241714
0.0273652
-0.00423954
-0.0183912
-0.0128037
-0.00139625
-0.00590653
0.00968696
-0.0239034
-0.027115
-0.0321091
-0.00879966
0.0164918
-0.0124866
-0.0441663
-0.00479612
0.0277201
0.00014576
-0.0414579
-0.0310568
-0.0224222
0.00718929
-0.0114106
-0.0518639
-0.0371551
0.00104038
-0.00420877
-0.0392252
-0.0507072
0.00070723
0.00757708
-0.0459612
-0.0373732
-0.00520445
0.00828789
-0.00762064
-0.00365862
-0.0202648
-0.034421
-0.0326101
-0.0120313
-0.0160672
-0.0197788
-0.0115588
0.0021577
-0.0268127
-0.0289556
-0.0264214
-0.0236419
-0.0260562
-0.0124738
-0.00159298
0.0075327
-0.0270158
-0.0137803
-0.0012283
-0.0133761
-0.0209251
-0.0141306
0.0140037
0.00612724
-0.00171633
-0.00993893
-0.00482713
-0.0119019
-0.0338737
-0.0385068
-0.0114645
-0.0156679
-0.0123923
-0.0294575
-0.048584
-0.0266007
0.0226524
0.0112451
-0.0320231
-0.030853
-0.0325779
-0.0356893
-0.0131352
-0.00781434
-0.0169271
-0.00175204
-0.0310063
-0.0608765
-0.0658678
-0.0338877
-0.0047256
-0.018829
-0.0174036
-0.0161897
0.0157105
-0.0241505
0.000573038
-0.0268653
-0.0260583
-0.0117387
-0.00871437
-0.00382536
-0.0229752
-0.0076826
0.0372656
-0.0140356
-0.0406273
-0.0202422
-0.0256554
-0.0416397
-0.0218458
-0.0255902
-0.0266646
-0.0395031
-0.0310137
0.0012849
0.0118437
-0.0468387
-0.0525675
0.0113475
-0.0192107
-0.0450276
-0.017968
0.00168044
-0.0105369
-0.0143407
-0.0517515
-0.0511911
-0.0243445
-0.0333865
-0.0430751
-0.0238263
0.0319856
0.0225431
-0.0543239
-0.0157687
-0.0167109
-0.0474732
-0.011391
-0.00452342
-0.0288188
-0.0122592
-0.0192586
-0.00311385
-0.0221883
-0.0243731
-0.0107379
-0.0366201
-0.0401888
-0.0331876
-0.0179879
-0.0181804
-0.0272068
-0.0292617
-0.00212687
-0.0045566
-0.0478131
-0.0655416
-0.0226906
0.0188199
0.00105338
-0.0126405
-0.00513814
-0.0106414
-0.0220838
-0.0192392
-0.0325874
-0.013584
0.000973558
-0.00992336
-0.0252217
0.00420613
0.0135372
-0.0149914
-0.0467659
-0.00117396
0.00214226
-0.0248102
-0.034253
-0.0294366
-0.0169316
0.0364516
0.0185801
0.0124141
-0.0172353
-0.0294867
-0.0294218
-0.0282633
-0.02293
0.00318675
-0.00205687
-0.0153179
-0.037183
-0.0254015
-0.00628106
-0.0227515
-0.024964
-0.0351594
-0.00943398
-0.0164657
-0.0347238
-0.00525918
0.0210239
-0.0210712
-0.0191821
-0.000102767
-0.0194121
-0.00405666
0.0242499
-0.020328
-0.0311507
0.0182291
0.0239775
-0.0606023
-0.0400139
0.0199628
-0.0140552
-0.0256971
-0.0270573
-0.0395591
-0.00823053
0.0074454
-0.0330183
-0.0152851
-0.00457941
0.000533081
-0.00540357
-0.0101327
-0.0128903
-0.00253919
0.00977361
0.00550129
-0.0299937
-0.00788316
-0.00584139
-0.015391
-0.0262987
-0.0345468
-0.00707699
-0.059701
-0.0691482
-0.009087
-0.0260768
-0.03715
-0.0203134
-0.0254297
-0.0264154
-0.0152364
-0.000499301
-0.0247416
-0.0108133
0.00937733
-0.0468803
-0.0310578
0.0385873
-0.0134454
-0.0164148
-0.00290749
-0.0252454
-0.0127055
0.0178649
-0.0352846
-0.0404061
-0.00624429
-0.00605373
-0.0205427
-0.0337301
-0.0164934
-0.0138619
-0.0193502
-0.0014786
0.000116968
-0.0538388
-0.024073
0.00944844
-0.00568483
-0.0185391
-0.0182177
-0.00516675
-0.0461971
-0.0211615
-0.0112652
-0.0473144
-0.0297878
-0.0129958
-0.0118431
-0.0192425
-0.00549303
-0.015058
-0.0253162
-0.0118882
-0.0142667
-0.0291665
-0.00560581
-0.0038517
-0.018755
-0.0117868
-0.000630132
-0.0179025
0.00782991
0.00698812
-0.0240822
-0.00937115
-0.0100355
-0.0190256
-0.0211012
-0.0214102
0.00690575
0.00235854
-0.0276132
-0.00480696
-0.000996001
-0.0281477
-0.0132184
-0.000509076
-0.0359981
-0.0195763
-0.00651587
-0.0389918
-0.0247842
0.0192475
0.00726426
-0.029644
-0.0282294
-0.0108387
0.00264814
0.00072733
-0.00701741
-0.0168103
-0.0194717
-0.00416095
0.00392019
-0.0247256
-0.0328182
0.0120522
-0.0261433
-0.00788625
-0.00288988
-0.0142588
0.000666805
0.00508172
0.00113709
-0.00614084
-0.00451311
0.0031645
-0.0146254
0.00237867
0.0160172
-0.00636844
-0.0192175
0.00402331
-0.0065592
-0.0218357
-0.00138564
-0.0180345
-0.0341483
-0.0131483
-0.0182066
-0.0251
-0.0107054
0.0109178
-0.0238381
-0.0120248
0.031241
0.00603073
-0.0109388
-0.012831
-0.019709
-0.0119841
-0.0125906
-0.0138636
-0.00814567
-0.0252694
-0.0168421
-0.0177852
-0.0139479
-0.0316145
-0.0578684
-0.0199108
-0.0127876
-0.0200843
-0.0257571
-0.0221822
-0.0223231
-0.0209273
-0.0128336
0.00152756
0.0145334
-0.0169808
-0.033645
-0.0161889
-0.0214675
-0.0226657
0.00732478
-0.0090969
-0.0238436
-0.0240392
-0.0177585
-0.0164715
-0.0166708
-0.0017504
0.000234995
0.000936239
-0.00715991
-0.00716603
-0.00950494
-0.00992635
-0.0200674
-0.0157533
-0.0296366
-0.0272368
-0.00746673
-0.031676
-0.0440874
-0.0193969
-0.0231797
-0.0211282
0.0160306
0.00240713
-0.017384
-0.0330047
-0.0339548
-0.0165382
-0.0122005
-0.0162727
-0.00956025
0.00242536
0.0184042
-0.016832
-0.0316993
-0.0248815
-0.0326997
-0.0177594
0.00485077
-0.0073429
-0.0241775
-0.0211601
-0.012715
-0.0138509
-0.00724864
0.00364653
-0.0166061
-0.00930402
0.012998
0.00453968
-0.00908735
-0.0192689
-0.0174467
-0.0102924
-0.0193751
-0.00968161
-0.00314588
-0.028543
-0.0288655
-0.0174947
-0.0242308
-0.00259493
0.0239595
-0.00282636
-0.00902464
-0.019681
-0.0154268
-0.00906771
-0.00633337
0.00598468
-0.00429993
0.0110716
0.0118702
-0.00558479
-0.0196357
-0.0319499
-0.0354949
-0.00464184
-0.000579398
-0.0130413
-0.0244896
-0.0231621
-0.00801429
-0.00293052
-0.0127539
-0.0034608
-0.0049122
0.00453102
0.00759601
-0.00530464
-0.0154968
-0.0128486
-0.0138848
-0.0163941
-0.000539503
0.0134414
0.000387718
-0.0280326
-0.0272196
-0.0190313
-0.0326831
-0.00443074
0.0190858
-0.0163667
-0.0108442
-0.00466227
-0.00548062
-0.00743421
0.000476026
0.00937163
-0.00901445
0.00960891
0.00839665
-0.00469865
-0.0221812
-0.028893
-0.030627
-0.00359521
-0.00715507
-0.0239504
-0.0320187
-0.0180593
0.00134387
0.00395405
-0.0068964
0.00149816
0.000606353
-0.00472409
0.0044441
-0.00431052
-0.0104533
-0.0110023
-0.0206896
-0.0127393
0.0116711
0.0186075
0.000738911
-0.0314505
-0.0227752
-0.0185166
-0.0272209
0.000211769
0.0130518
-0.0340427
-0.0339824
-0.00818102
-0.00711981
-0.00569002
0.00297413
0.014064
-0.00572172
0.00293268
-0.00480526
-0.011841
-0.0223391
-0.0401982
-0.0356455
-0.00600835
-0.00887559
-0.0251539
-0.0243588
-0.012255
-0.000642984
0.00550587
-0.00497483
-0.00302236
-0.00580877
0.0015274
0.0111475
-0.00978379
-0.0149144
-0.0155517
-0.0222037
-0.0152141
0.00528087
0.0153787
-0.005267
-0.0336648
-0.0198242
-0.0174664
-0.0227769
-0.00185817
-0.00330509
-0.0426188
-0.0328595
-0.014257
-0.0156624
-0.0100166
0.00159684
0.0165694
-0.00119779
-0.0105365
-0.0182559
-0.0309944
-0.0277458
-0.0446686
-0.0358729
-0.0100386
-0.00426192
-0.0116776
-0.0144996
-0.0120385
-0.0113269
-0.00138713
-0.00436806
-0.0101112
-0.00446614
0.00211667
0.0104758
-0.00975847
-0.0167916
-0.0235046
-0.0243589
-0.0191051
0.00725604
0.0221477
-0.00885549
-0.035756
-0.0191908
-0.0124105
-0.0184222
-0.0102244
-0.0156905
-0.0337289
-0.0265076
-0.0163102
-0.0176199
-0.0132521
-0.00484013
0.0114998
0.000736191
-0.0102595
-0.0284701
-0.0437005
-0.0231157
-0.0436816
-0.0324559
0.00666958
0.000397182
-0.0133328
-0.00833104
-0.0147296
-0.0198864
-0.00580954
-0.0172244
-0.0218128
-0.0010181
0.00278596
0.00343632
-0.0122104
-0.0232827
-0.0328185
-0.0294922
-0.0236172
0.00474612
0.0173046
-0.00927329
-0.0361375
-0.0205535
-0.00803725
-0.0190212
-0.0108433
-0.0103659
-0.0215083
-0.0193748
-0.0143769
-0.0174572
-0.0172314
-0.00380852
0.0114541
0.0013112
-0.0113254
-0.0317583
-0.0431497
-0.0146108
-0.040406
-0.0341011
0.010938
0.00341602
-0.00651904
0.00355099
-0.0175217
-0.0208339
-0.00334747
-0.0118587
-0.027536
0.000277296
0.00557864
-0.00580429
-0.0154136
-0.029647
-0.0412396
-0.0350385
-0.0239043
0.010955
0.0186917
-0.0154953
-0.0431861
-0.0198123
-0.00373156
-0.0231126
-0.0103982
-0.00184968
-0.0115162
-0.0104444
-0.0111194
-0.0151422
-0.0180877
-0.00415054
0.0126806
-0.00207505
-0.0162527
-0.0399982
-0.0397018
-0.00618288
-0.0336045
-0.0277809
0.00687266
0.00664737
-0.0012415
-0.00262567
-0.0240522
-0.0120456
-0.00209477
-0.015356
-0.0305414
-0.0074074
0.00573191
-0.00698436
-0.0145803
-0.0426687
-0.0472082
-0.0339081
-0.0224828
0.0178985
0.0174386
-0.0249623
-0.0436012
-0.0136925
-0.00145741
-0.0274642
-0.00917606
0.0047909
-0.00701914
-0.00922832
-0.010238
-0.0125084
-0.0171726
0.00277895
0.0193526
-0.00283745
-0.0165973
-0.0541432
-0.0301813
0.00939343
-0.0315666
-0.0264416
0.00814609
0.0102476
0.000794348
-0.00959769
-0.0363319
-0.0110489
0.00646273
-0.0279671
-0.0326903
0.0132958
0.0175335
-0.00628483
-0.0194631
-0.0425884
-0.0438553
-0.027778
-0.0208829
0.0232377
0.0146869
-0.0275967
-0.0373415
-0.00766355
-0.00176142
-0.0312515
-0.00860347
0.00959308
-0.00141003
-0.00997489
-0.00977279
-0.0121338
-0.0100786
0.0162152
0.0201939
-0.00403903
-0.0144592
-0.0541479
-0.00928148
0.0245312
-0.0353203
-0.0340396
0.00972988
0.0162032
0.0029573
-0.0138687
-0.0401869
-0.00432934
0.0141244
-0.0269043
-0.0211918
0.0227223
0.0211367
-0.00524098
-0.0215872
-0.0459967
-0.0363212
-0.019174
-0.017342
0.0268172
0.010759
-0.0316041
-0.0291514
-0.00479996
-0.00453218
-0.0326376
-0.00312713
0.0146551
0.00209531
-0.0139597
-0.00888186
-0.0111509
-0.00215034
0.0248661
0.0140277
-0.00801494
-0.009023
-0.0409038
0.00422094
0.0315943
-0.0291697
-0.0339271
0.0104203
0.021827
0.00221268
-0.0144252
-0.031884
0.0085059
0.0165208
-0.0220084
-0.00764619
0.00127671
0.0112137
-0.00248937
-0.0225814
-0.0465999
-0.0279393
-0.016635
-0.0181225
0.0293424
0.0110561
-0.0355635
-0.0207832
0.000866839
-0.0131753
-0.0282267
0.00357175
0.0144242
-0.000624306
-0.0143576
-0.0081123
-0.00748522
0.00628874
0.0299447
0.0114145
-0.00902357
-0.00101244
-0.0297396
0.0130722
0.0360966
-0.0215777
-0.0287984
0.00970173
0.0308611
-0.000937205
-0.0260463
-0.029652
0.0100112
0.0204322
-0.018022
0.00500657
0.0132056
0.00232018
-0.0102027
-0.0204978
-0.0409441
-0.0240562
-0.015315
-0.0134069
0.0322802
0.0114845
-0.0286366
-0.0192371
-0.00610198
-0.020775
-0.02345
0.00822312
0.0207875
0.00541839
-0.0122765
-0.0113601
-0.000569695
0.0103317
0.0309985
0.0135066
-0.00540175
0.00409937
-0.0226404
0.0235878
0.0355769
-0.0223366
-0.0246091
0.0171472
0.038108
-0.00444565
-0.0309772
-0.0326743
0.0079854
0.0267454
-0.0101862
0.0192502
0.0181021
-0.00260277
-0.0133388
-0.0126497
-0.0310268
-0.0207508
-0.0128364
-0.00979767
0.0311397
0.0109976
-0.0112193
-0.0183015
-0.018838
-0.0214773
-0.0229106
0.00960551
0.032932
0.0142735
-0.0122009
-0.0189014
-0.00172271
0.00927567
0.0265281
0.0137522
-0.00147694
0.00888252
-0.0162804
0.0346396
0.0286134
-0.0315975
-0.0208029
0.0185387
0.0444511
-0.00557134
-0.0338282
-0.0286213
0.0165201
0.0358141
-0.00644877
0.0238416
0.0189496
0.0123613
-0.000166278
-0.000793807
-0.0214331
-0.0223461
-0.0136499
-0.00556563
0.0315012
0.0151721
-0.000333588
-0.0140656
-0.0137226
-0.0162455
-0.0268266
0.00961487
0.0438316
0.0198529
-0.0111566
-0.0191311
-0.00364547
0.0112727
0.0225217
0.0134596
0.00311303
0.0140452
-0.0116277
0.0427258
0.0264341
-0.0432448
-0.0175528
0.0185383
0.0493892
-0.00355594
-0.0377567
-0.0169533
0.0257397
0.0427709
-0.00777727
0.0262222
0.0187368
0.0136778
0.0113899
0.0110598
-0.0138307
-0.030283
-0.0163636
-0.00244667
0.0346097
0.0227797
0.00191586
-0.00603244
0.000237187
-0.0140434
-0.0305667
0.0105555
0.0534
0.0222546
-0.0124905
-0.0126864
-0.00203818
0.0139686
0.0226364
0.0154184
0.00834666
0.0185173
-0.0063398
0.0470123
0.0283794
-0.0452066
-0.0135432
0.0198736
0.0494323
0.00101296
-0.0360535
-0.00425683
0.03122
0.0474618
-0.00917059
0.0302448
0.0188843
0.00924767
0.0177077
0.0204347
-0.00763908
-0.0357425
-0.0182278
4.63246e-05
0.0416941
0.0307761
0.00563028
0.00375686
0.00593713
-0.0182468
-0.0359948
0.0116248
0.0597304
0.0257599
-0.0167962
-0.00603038
0.00240693
0.0121403
0.0235279
0.017768
0.0121219
0.0217461
-0.00244621
0.0490447
0.0303332
-0.0443522
-0.00883346
0.0210203
0.0488508
0.00609239
-0.0308164
0.00594769
0.0381138
0.0513715
-0.0113815
0.0328043
0.0170903
0.0014176
0.0323369
0.0337204
-0.00218783
-0.0389895
-0.0181725
0.00220795
0.0457473
0.0388199
0.0112816
0.00951412
0.00565534
-0.0237674
-0.038292
0.0194122
0.0659771
0.028862
-0.0189637
-0.00165722
0.00684933
0.0131514
0.024654
0.019478
0.0140143
0.0232583
-0.00103179
0.0507122
0.0303234
-0.044921
-0.00582253
0.020918
0.0483451
0.00924321
-0.0270696
0.0128961
0.0455387
0.053475
-0.0160235
0.0307883
0.0151301
-0.00177087
0.0552856
0.0459856
0.00233368
-0.0402258
-0.0180556
0.00291683
0.0478888
0.0437872
0.0120953
0.0105653
0.00537839
-0.0267451
-0.036992
0.0294071
0.0703926
0.0299555
-0.0166527
0.00105617
0.0100426
0.015418
0.0257734
0.0202033
0.0147757
0.0236802
9.41054e-05
0.0517539
0.0295817
-0.0444069
-0.00359465
0.0211866
0.0480234
0.0108396
-0.0250759
0.0168313
0.050646
0.0547855
-0.0173365
0.0301713
0.0186097
0.00703776
0.0720735
0.056091
0.00592696
-0.0399441
-0.0171987
0.00360439
0.0489787
0.0454351
0.0126871
0.011407
0.00606071
-0.0258948
-0.0353319
0.0331266
0.0704239
0.0301028
-0.0134869
0.00260198
0.0113946
0.0155091
0.0259119
0.0207519
0.0152034
0.0235574
0.000438031
0.052209
0.0291537
-0.0428392
-0.00203739
0.0219748
0.048011
0.011067
-0.0242713
0.0185369
0.0530096
0.0561966
-0.017234
0.0313633
0.0210642
0.0137426
0.0780788
0.0604638
0.007502
-0.0404938
-0.016303
0.00396816
0.0496075
0.0463877
0.0132593
0.0115187
0.00618489
-0.025232
-0.0342691
0.0335617
0.0705625
0.0308652
-0.0126096
0.0023793
0.0122206
0.0162581
0.026466
0.0213556
0.0155039
0.0241514
0.00132581
0.0525998
0.0294277
-0.0409732
-0.000774823
0.022846
0.0482067
0.0115017
-0.022978
0.0194118
0.0538114
0.0560925
-0.0159748
0.0327682
0.0224697
0.015042
0.0776989
0.0605719
0.00800719
-0.0385905
-0.0153099
0.00464209
0.0504127
0.0467354
0.0137678
0.0124149
0.00661451
-0.0244492
0.00214616
-0.00884691
-0.0235773
-0.0388694
-0.0398007
-0.0172751
-0.0451426
-0.0984065
-0.0678013
2.32151e-06
0.00912046
-0.0247292
0.0136221
0.0178887
-0.029598
-0.050696
-0.00154564
-0.0233364
-0.0111006
-0.0292745
-0.0681714
0.037741
0.0276307
-0.0425163
-0.0308237
-0.0134807
-0.0208722
-0.0200732
0.0188338
-0.00973497
-0.0557844
-0.0128362
0.0268856
0.0215295
0.0120591
-0.0135324
-0.0222883
-0.00944354
-0.00412226
0.00949548
-0.0129919
-0.0109707
-0.016117
-0.00665026
-0.00368525
0.00100208
-0.0138991
-0.0344012
-0.0112869
-0.00646825
-0.0205883
-0.0111666
-0.0206876
-0.00713967
-0.0159186
-0.0172532
-0.0205929
-0.026424
-0.0150738
-0.0430687
-0.0178073
0.00250261
-0.0225747
-0.0163932
-0.0180202
-0.0255573
0.00636267
-0.031621
-0.014919
0.0234219
-0.0106418
-0.0187755
0.00435502
-0.0016379
-0.0245827
-0.0311426
-0.00360064
0.0243348
0.0047807
-0.0214544
-0.0255611
-0.0181599
-0.013015
-0.0171409
-0.002499
-0.00907102
-0.0192625
-0.0257499
-0.0114213
-0.0147259
-0.0164339
-0.00220836
-0.0237359
-0.0132777
-0.0157504
-0.00985537
-0.0223044
-0.04294
-0.036845
-0.0164548
-0.00377535
-0.00915594
0.000544749
0.010204
-0.0276288
-0.0244338
-0.0349677
-0.0250522
-0.00858349
-0.01448
-0.00993365
-0.0160195
-0.0105567
-0.0179627
-0.034246
-0.0271459
0.000654919
-0.00239035
-0.0213627
-0.00879976
-0.0151566
-0.00181907
-0.0173518
-0.0109674
-0.00250494
-0.0111727
-0.0143258
-0.054036
-0.0386768
0.00733109
0.00052405
-0.0172176
-0.0118171
-0.0185561
-0.0245327
-0.00308446
-0.0198684
-0.0205046
-0.0132403
-0.0371097
-0.0268097
-0.0193284
-0.00294277
-0.0140792
-0.0339575
-0.0278993
-0.0280981
-0.0078849
-0.00649933
-0.0353614
-0.0273316
-0.022601
-0.00490511
-0.0289512
-0.0563716
-0.0507505
-0.00483271
-0.0164609
-0.0365248
-0.0177278
-0.0210165
-0.019576
-0.0288585
0.0037624
-0.00611521
-0.0106847
0.00545732
-0.0190111
-0.0103611
-0.0251334
-0.0248665
-0.00379093
0.0175714
-0.0130387
-0.0398555
-0.0158283
-0.00945858
-0.0152983
-0.0145938
-0.00475163
-0.00583693
-0.0226584
-0.0135433
0.0130687
-0.0359636
-0.0342766
-0.00640953
-0.0212753
-0.0293313
-0.0247465
-0.0393772
-0.0210301
0.0029489
-0.0320408
-0.0396933
-0.0293281
-0.0123886
-0.0101912
-0.00498972
-0.0254258
-0.011662
-0.0226598
-0.028326
0.00608977
-0.00564471
-0.0173136
-0.0134208
-0.0665325
-0.0146355
0.00753061
-0.00716469
-0.00256694
3.85443e-05
-0.0246893
-0.0392317
-0.0322203
-0.0214155
-0.0357178
-0.0169901
-0.0117993
0.00271422
-0.0110947
-0.000383622
-0.00841267
-0.0647194
-0.0169993
-0.00510168
-0.00350367
0.00456395
-0.0150252
-0.0394778
0.0224361
0.023024
-0.0247432
-0.0376611
-0.0157981
0.00921454
0.0229154
-0.0195427
-0.0424085
-0.0077293
-0.0290681
0.00117318
0.00533694
-0.0444432
-0.0175355
-0.0164378
-0.0468813
-0.0153748
0.00598581
-0.00697636
-0.0316607
-0.0225482
-0.00967121
-0.00941332
0.0036861
-0.0252809
-0.0215486
-0.00334661
0.00158761
-0.00376213
-0.0457713
-0.0187633
-0.0219628
-0.028651
0.0169774
-0.0142003
-0.0377595
-0.0338268
-0.0152657
-0.00742731
0.0146495
-0.00549984
-0.042171
-0.0177321
0.0231846
0.00649576
-0.0145816
-0.0386764
-0.0260618
-0.0121584
-0.0152424
0.0011984
-0.00430948
-0.0323571
0.0085356
-0.0102746
-0.0298369
-0.00491374
0.00110179
-0.00869114
-0.00564555
-0.0138356
-0.0100658
-0.00914034
0.00740565
-0.021351
-0.00793557
0.0309563
0.0146212
-0.00331465
-0.00271654
0.00567689
-0.0384049
-0.0242297
-0.0325184
-0.0273069
-0.00516171
-0.00970114
-0.0108644
-0.0196272
0.00822726
-0.0206966
-0.044784
-0.00323249
-0.00780985
-0.0442072
-0.022487
-0.0185074
-0.0206553
-0.00442076
-0.0172835
-0.0026262
0.00130505
-0.0267343
0.00274385
-0.016412
-0.0256701
-0.00654257
-0.0156859
-0.00833972
-0.00373596
-0.0281105
-0.0353427
-0.00968947
2.22193e-05
-0.02032
-0.00505181
0.00669789
-0.0175593
-0.0326886
0.00624319
-0.0156229
-0.0540223
-0.0261401
-0.0163107
-0.00386589
0.00424177
-0.00839882
-0.0135822
-0.00739002
-0.00193556
-0.0220763
-0.0159648
-0.015445
-0.0270662
0.00125299
0.0100416
-0.0221944
-0.0253395
-0.00774208
-0.0207834
-0.00845348
-0.00635468
-0.012875
0.000606453
-0.0084269
-0.0148428
-0.0138487
-0.0207856
-0.0151453
-0.0233104
-0.0356913
-0.0272618
-0.00718911
-0.0044207
-0.0216297
-0.0112726
-0.0185454
-0.0410844
-0.0260596
0.00185413
-0.0298742
-0.0315654
-0.0147082
-0.00508576
0.000430967
-5.95972e-05
0.00179231
-0.00150313
-0.00434196
-0.00414049
-0.0165518
-0.0155981
-0.0217289
-0.0114944
0.000325709
-0.0114397
-0.0302558
-0.0254347
-0.0237195
-0.0258627
-0.00165852
-0.00914529
-0.0225952
-0.013092
-0.0203176
-0.0191755
-0.0141037
-0.0211007
-0.00283164
-0.00282529
-0.0301597
-0.02056
0.0056594
-0.00286829
-0.0315002
0.000460955
-0.0018688
-0.0384247
-0.025147
-0.0114637
-0.029954
-0.0248486
0.00149103
-0.000610832
-0.00479079
-0.000951224
-0.00425696
-0.0113461
0.00210262
-0.00700185
-0.0214768
-0.0123912
-0.00880416
-0.00386868
0.00134021
-0.00598811
-0.0308202
-0.0277083
-0.0340549
-0.0183583
0.0077344
-0.0166682
-0.0333731
-0.0222532
-0.0201473
-0.0241582
-0.00448326
-0.0020997
-0.00370396
-0.0046334
-0.0267348
-0.0184059
0.00478077
-0.00342197
-0.034313
-0.0125153
-0.0163422
-0.0390893
-0.00382067
-0.0111865
-0.0283758
-0.0229133
0.007267
0.00579243
-0.0174758
-0.0181461
-0.0102022
-0.00383326
0.00639549
-0.0119073
-0.0206024
-0.0162501
-0.0153645
0.00247468
-0.00417607
0.00570709
-0.015118
-0.0259939
-0.0250717
-0.00461914
0.0083412
-0.00979793
-0.0273437
-0.0268026
-0.0150924
-0.0102026
0.00513619
-6.84145e-06
-0.0130868
-0.0110807
-0.0165367
-0.00466545
0.00727067
-0.0136788
-0.0389779
-0.00273988
-0.0192075
-0.0330964
0.00357347
-0.0134021
-0.0254291
-0.0194222
0.00583883
0.00513979
-0.019084
-0.0123904
-0.00541585
-0.000538108
-0.00276792
-0.0154739
-0.0180322
-0.0244673
-0.021451
0.00669209
0.00126704
-0.0162923
-0.0365775
-0.0321499
-0.0292852
-0.00346412
0.0203833
-0.00223392
-0.029689
-0.025386
-0.00944013
-0.0110331
-0.00128592
-0.00287873
-0.01057
-0.0137886
-0.0108953
0.000928849
0.00724687
-0.0236973
-0.0345876
0.0140794
-0.0215001
-0.0355802
0.0057402
-0.0138849
-0.026369
-0.0173355
0.000202624
0.00146828
-0.0173152
-0.0149257
-0.00584397
0.00601789
-0.000656481
-0.0169038
-0.0216231
-0.023613
-0.0125727
0.0118109
-0.000675229
-0.032839
-0.0421498
-0.0274628
-0.027577
-0.010008
0.0184789
0.00816227
-0.0280825
-0.0285822
-0.00828779
-0.00520983
-0.00677371
-0.0116786
-0.00894686
-0.0119678
-0.0135233
-0.00735283
0.00199733
-0.0311234
-0.0354279
0.00820413
-0.0256552
-0.0278862
0.00806292
-0.0116864
-0.0254851
-0.0211675
-0.00311212
-0.000343582
-0.018777
-0.0187868
-0.00126793
0.00798924
-0.00534836
-0.0230548
-0.0186903
-0.0195392
-0.0146119
0.00339106
-0.00735183
-0.0353775
-0.0407207
-0.029536
-0.0278993
-0.0111821
0.022334
0.0109303
-0.0264762
-0.0317728
-0.00951627
-0.00585169
-0.015116
-0.00931932
-0.0047064
-0.010215
-0.0183543
-0.021028
-0.00494855
-0.0343957
-0.0356337
0.00164408
-0.0283225
-0.0222687
0.00743124
-0.011715
-0.0266062
-0.0192202
-0.00296109
-0.00421475
-0.0190619
-0.0213252
0.000282387
0.00618697
-0.00947221
-0.0272982
-0.0201483
-0.0172339
-0.0182686
-0.00593699
-0.0137407
-0.0374598
-0.0393297
-0.0300636
-0.0200449
-0.0088126
0.0203057
0.0136124
-0.0260639
-0.0336997
-0.0079596
-0.00858733
-0.0203812
-0.00209593
0.000322189
-0.0132372
-0.0323276
-0.0386228
-0.00772119
-0.0349121
-0.0365472
-0.00086526
-0.0267652
-0.0217259
0.00559393
-0.0121065
-0.026384
-0.0155207
-0.00635769
-0.00872213
-0.0195328
-0.023428
-0.00162346
0.000843542
-0.0152733
-0.0320456
-0.0208471
-0.01541
-0.0180472
-0.00467329
-0.0156205
-0.0409871
-0.0432941
-0.0268396
-0.0187931
-0.00932074
0.0224845
0.0145881
-0.0287576
-0.0360363
-0.00674713
-0.00867595
-0.0217812
0.00246471
0.00454308
-0.0129765
-0.0418057
-0.0478516
-0.00408832
-0.0323137
-0.0393945
-0.00329936
-0.0235784
-0.0182763
0.00668477
-0.0146941
-0.0249875
-0.0160151
-0.0111299
-0.00681871
-0.0194305
-0.0299934
-0.00853731
0.00181863
-0.0217662
-0.03661
-0.0206758
-0.0152698
-0.0132024
0.00375532
-0.015516
-0.0450258
-0.0431086
-0.0197215
-0.0186285
-0.0111764
0.0187225
0.0127601
-0.0306587
-0.0386065
-0.00760013
-0.00656763
-0.0170767
0.00564845
0.00289898
-0.0153598
-0.049504
-0.0463898
-0.00159752
-0.0284123
-0.0360123
0.00201987
-0.0190968
-0.017852
0.00454513
-0.0155379
-0.0242491
-0.0162352
-0.0178884
-0.0109808
-0.020034
-0.0359372
-0.0115968
0.0106079
-0.0240718
-0.0362808
-0.0190987
-0.0133027
-0.0115369
0.00744015
-0.0154901
-0.0461348
-0.0416293
-0.0144384
-0.0202043
-0.0114689
0.0191003
0.0128874
-0.035874
-0.0422162
-0.0118037
-0.00474593
-0.0128152
0.00819649
0.00148528
-0.0181169
-0.0589218
-0.0430963
0.00255546
-0.0239941
-0.0316918
0.00238971
-0.0173685
-0.0160532
0.00178116
-0.0158196
-0.023579
-0.0163545
-0.0199917
-0.00839866
-0.0198789
-0.0433847
-0.00864165
0.017925
-0.0236279
-0.0326941
-0.0175495
-0.0118824
-0.00796314
0.00842027
-0.0162202
-0.04775
-0.0404691
-0.0125146
-0.021049
-0.0124762
0.0197847
0.0158004
-0.0412488
-0.04493
-0.0182582
-0.00500919
-0.0107357
0.00943538
0.00207933
-0.0209348
-0.0591973
-0.0340528
0.00567952
-0.0236194
-0.0296833
0.00336075
-0.0165903
-0.0149483
0.00104597
-0.014201
-0.0222059
-0.0174551
-0.0184198
-0.00342548
-0.0231396
-0.0493061
-0.00820941
0.0186656
-0.0236851
-0.0325198
-0.0164085
-0.0105261
-0.00299674
0.00601024
-0.024142
-0.0474066
-0.0355947
-0.0118897
-0.0215784
-0.0115896
0.0244031
0.0161647
-0.0424711
-0.0478961
-0.0170974
-0.00510091
-0.00884161
0.00980259
0.00307053
-0.0232733
-0.0547326
-0.0266522
0.00681188
-0.026969
-0.029571
0.00338574
-0.0177904
-0.0150221
0.00150811
-0.0130503
-0.0241958
-0.0220411
-0.0149495
0.00526061
-0.023429
-0.0537665
-0.00716237
0.0205418
-0.0215588
-0.0327147
-0.0171879
-0.00917101
0.00287967
0.00401144
-0.030647
-0.0473461
-0.0294801
-0.00945122
-0.0218846
-0.00714637
0.0306134
0.0247534
-0.03694
-0.0532394
-0.013638
-0.00252093
-0.00636353
0.0111462
0.00468467
-0.0236652
-0.0503653
-0.0229678
0.00748138
-0.028425
-0.0288257
0.000565497
-0.0186619
-0.016838
0.000522683
-0.0102226
-0.0232587
-0.0249821
-0.0107081
0.0191521
-0.0252027
-0.0580411
-0.00714958
0.0244733
-0.0186553
-0.0334888
-0.0180765
-0.00738011
0.0103496
0.00115456
-0.0351682
-0.0474869
-0.0238211
-0.00669403
-0.0226414
-0.00352348
0.0380839
0.029028
-0.0305205
-0.0610821
-0.0121548
0.000777007
-0.0038588
0.0141226
0.00606535
-0.0237724
-0.046547
-0.0218354
0.0100714
-0.0245793
-0.0271918
-0.00341594
-0.0188871
-0.0197348
-0.00103992
-0.00624234
-0.0188603
-0.0241798
-0.00555705
0.0277054
-0.0254121
-0.0582863
-0.00772484
0.031521
-0.0142204
-0.0335423
-0.0193107
-0.00666042
0.0164887
9.32554e-05
-0.0380548
-0.0475894
-0.0179442
-0.00551711
-0.0243106
-0.0029492
0.0426066
0.0320079
-0.0297496
-0.0664495
-0.00735899
0.0034942
-0.00383914
0.0146324
0.00481988
-0.0250075
-0.0428581
-0.0221158
0.0143296
-0.0183364
-0.025859
-0.00708686
-0.0186222
-0.0202327
-0.00181233
-0.00594746
-0.0136552
-0.0227523
-0.000362578
0.0322258
-0.0249325
-0.054817
-0.00503216
0.0404594
-0.00699369
-0.0334332
-0.0210486
-0.00599876
0.0202431
-0.00161693
-0.0392338
-0.0440785
-0.0146917
-0.00857725
-0.0246751
-0.00475739
0.0436303
0.0353616
-0.033353
-0.0709068
-0.00224462
0.00565325
-0.0064903
0.0130971
0.00130215
-0.0245715
-0.039952
-0.0215136
0.0189579
-0.0119533
-0.0249322
-0.0100958
-0.0176141
-0.018275
-0.000138828
-0.00789864
-0.00961179
-0.0215806
-0.00137673
0.0351769
-0.0249952
-0.0503248
-0.00251706
0.0512598
0.00175261
-0.0331155
-0.0230075
-0.00649797
0.0219663
-0.0049303
-0.0383393
-0.0385266
-0.012812
-0.0101865
-0.0238141
-0.00865725
0.0426522
0.0372303
-0.0360276
-0.0724212
0.00203787
0.0075597
-0.0100312
0.0107848
-0.00455196
-0.0205748
-0.0389562
-0.0198661
0.0233182
-0.00597714
-0.0244556
-0.0138107
-0.0163362
-0.015725
-0.00272796
-0.00873428
-0.00917532
-0.0197724
0.0033335
0.0387429
-0.0260372
-0.0488122
-0.000656843
0.0640297
0.00873949
-0.0329906
-0.0251019
-0.00700622
0.0221092
-0.00783319
-0.033852
-0.0319368
-0.011458
-0.00990173
-0.0233485
-0.0123091
0.0457579
0.0383077
-0.0368585
-0.0696738
0.00598246
0.00899154
-0.0109324
0.00813269
-0.0115425
-0.0139924
-0.0387612
-0.0170947
0.0271709
-0.00209499
-0.0249037
-0.0164179
-0.0137334
-0.0135148
-0.0115454
-0.00913134
-0.00733355
-0.0176648
0.00619957
0.0389698
-0.0267121
-0.0457042
0.00417059
0.0742521
0.0106164
-0.033455
-0.0265904
-0.00698666
0.0211864
-0.00866119
-0.0285166
-0.0271448
-0.0104017
-0.00902461
-0.0264559
-0.0142359
0.0493191
0.0402899
-0.0403495
-0.0663765
0.00904234
0.0102527
-0.0104795
0.00562885
-0.0157018
-0.00830716
-0.0380928
-0.0126809
0.0291049
0.000485233
-0.0257082
-0.0168807
-0.0102276
-0.0118865
-0.0163849
-0.00828085
-0.00322295
-0.0160758
0.00786211
0.0406204
-0.0269147
-0.047104
0.0107604
0.0790607
0.00918347
-0.0354264
-0.0271899
-0.00690916
0.0197308
-0.0075271
-0.0244465
-0.0245514
-0.0096214
-0.00792135
-0.0304603
-0.0122659
0.0515958
0.0392438
-0.0440024
-0.0623453
0.0113106
0.0107508
-0.0107273
0.00321749
-0.0157108
-0.00476448
-0.0371819
-0.0095364
0.0281171
0.000993854
-0.0265713
-0.0155293
-0.00826702
-0.0115307
-0.0187388
-0.00584731
0.00067138
-0.0141387
0.00986547
0.0418713
-0.0286316
-0.0504566
0.0177091
0.0803115
0.00763813
-0.036529
-0.0270574
-0.00720051
0.019017
-0.00558698
-0.0218129
-0.0233939
-0.00885024
-0.00784789
-0.031532
-0.0101059
0.0527306
0.0364884
-0.0435873
-0.0591375
0.0110543
0.0104786
-0.0110841
0.00223528
-0.0144352
-0.00362342
-0.0365558
-0.00873219
0.0274148
7.10103e-05
-0.027016
-0.0152462
-0.0081702
-0.0114089
-0.0191867
-0.00403221
0.00258705
-0.0140548
0.010826
0.0397856
-0.0294331
-0.049952
0.0226715
0.0800976
0.00553753
-0.0366598
-0.0269183
-0.00734733
0.0192477
-0.00431893
-0.0208882
-0.0231326
-0.00846882
-0.00874073
-0.0313787
-0.00946543
0.0529613
0.0361281
-0.0428531
-0.0582833
0.0110279
0.0102976
-0.0111532
0.00232091
-0.0138515
-0.00344351
-0.0362226
-0.00853539
0.0273554
-0.000205108
-0.0270444
-0.0152182
-0.00793183
-0.0112154
-0.0190344
-0.00364281
0.00237319
-0.0135252
0.0111805
0.0393641
-0.0287198
-0.0491282
0.0234294
0.0799342
0.00551526
-0.0364002
-0.0268136
-0.00733865
0.019132
-0.0039562
-0.0207038
-0.0232298
-0.00821713
-0.00848855
-0.0158616
-0.0457675
-0.0656126
-0.022341
-0.0222571
-0.00142412
-0.0146924
-0.0425284
-0.0405754
-0.00059294
-0.0222641
-0.0281099
-0.00473817
-0.00728704
-0.0545241
-0.0413619
-0.00138546
-0.0132362
-0.0139372
-0.0336622
-0.012923
0.0279521
-0.0112899
-0.0127355
-0.0128155
-0.0204154
-0.0199264
-0.0189953
-0.0267236
-0.00205021
-0.00326998
0.0206711
-0.0205498
-0.0228987
0.00205579
0.00149111
-0.0160066
-0.0246428
-0.0267303
-0.0322559
-0.0206308
-0.0101972
-0.0152938
-0.013961
-0.0125525
0.0142715
-0.0176414
-0.029841
-0.0173717
-0.0144773
-0.011212
-0.0416721
-0.0338832
-0.0122531
-0.0244866
-0.021027
-0.0129592
-0.0183048
-0.0258732
-0.0268507
-0.00491228
0.00210898
-0.0144084
-0.0288715
-0.0157792
-0.0198102
-0.0305319
-0.0119502
-0.0081548
-0.0105961
-0.0300195
-0.0283365
-0.0103782
0.00163711
-0.00532525
-0.0136121
-0.0109618
-0.00258859
-0.0162233
-0.0319838
-0.0233952
-0.0166284
-0.015565
-0.00732599
-0.0068465
-0.0146758
-0.0218449
-0.011281
-0.00567304
-0.0189635
-0.0129503
-0.0108198
-0.0139449
-0.0135953
-0.0120104
-0.00155237
-0.0236709
-0.0184337
-0.0154976
-0.0199451
-0.0193253
-0.0176276
-0.00428197
-0.0206201
-0.0184474
-0.0173126
-0.0153707
-0.00841125
-0.00373304
-0.00353811
-0.0231337
-0.0189321
-0.00789272
-0.00889506
-0.0115573
-0.0132202
-0.0221926
-0.0464027