/*--------------------------------*- C++ -*----------------------------------*\
  =========                 |
  \\      /  F ield         | OpenFOAM: The Open Source CFD Toolbox
   \\    /   O peration     | Website:  https://openfoam.org
    \\  /    A nd           | Version:  10
     \\/     M anipulation  |
\*---------------------------------------------------------------------------*/
FoamFile
{
    format      ascii;
    class       surfaceScalarField;
    location    "7.5";
    object      phi_0;
}
// * * * * * * * * * * * * * * * * * * * * * * * * * * * * * * * * * * * * * //

dimensions      [0 3 -1 0 0 0 0];

internalField   nonuniform List<scalar> 
74080
(
0.00509401
-2.92919e-08
2.7309e-08
0.00509401
1.97158e-08
4.83676e-09
0.00509405
-5.44859e-10
-2.37015e-08
0.005094
1.3895e-08
5.60306e-08
0.00509403
-1.65821e-08
-9.49325e-08
0.00509404
3.38943e-08
5.7503e-08
0.00509399
9.47279e-10
-2.46074e-08
0.00509404
-2.1159e-08
-1.06003e-08
0.00509405
5.75473e-08
2.55681e-08
0.00509399
-5.06756e-08
-3.7099e-08
0.00509403
4.35788e-08
2.03285e-08
0.00509405
1.42387e-08
-3.50205e-08
0.00509399
-4.48523e-08
4.4357e-08
0.00509405
4.88951e-08
-1.88732e-08
0.00509403
-2.1946e-08
-3.95108e-08
0.005094
-7.20994e-10
5.42529e-08
0.00509404
9.58659e-09
-2.45716e-08
0.00509403
6.93542e-10
-2.30407e-09
0.00509404
-2.19734e-08
1.77888e-09
0.00509402
1.78937e-09
-1.67644e-08
0.00509403
1.5876e-08
5.8259e-08
0.00509402
-6.24686e-09
-5.73082e-08
0.00509404
-2.86012e-08
9.36528e-09
0.00509404
-8.99974e-09
5.77766e-08
0.005094
5.48855e-08
-8.55853e-08
0.00509407
-8.2369e-08
7.50616e-08
0.00509401
5.49689e-08
-3.90081e-08
0.00509404
-1.79413e-08
-5.12359e-09
0.00509404
-4.77647e-08
4.99433e-08
0.00509399
9.21793e-08
-1.04163e-07
0.00509408
-1.00526e-07
1.10055e-07
0.00509399
6.64384e-08
-7.79151e-08
0.00509403
-2.55194e-08
-2.66266e-08
0.00509406
-2.22789e-08
1.01951e-07
0.00509398
7.05236e-08
-1.52248e-07
0.00509405
-8.06766e-08
1.0275e-07
0.00509402
6.75147e-08
-3.36498e-08
0.00509401
-2.4003e-08
-8.06192e-08
0.00509404
-1.41819e-08
1.3728e-07
4.84172e-08
-1.23486e-07
0.00463065
1.03309e-08
1.23035e-07
0.00463065
3.78756e-09
-6.38257e-08
0.00463071
-5.91087e-09
-1.91152e-08
0.00463064
2.84761e-08
9.78199e-08
0.00463068
-2.80896e-08
-1.38274e-07
0.00463068
3.78057e-08
9.47447e-08
0.00463064
1.06538e-08
-3.03639e-08
0.00463069
-2.96701e-08
-2.43438e-08
0.00463069
4.19476e-08
5.1325e-08
0.00463063
-3.69419e-09
-2.95609e-08
0.00463069
3.6163e-09
-1.11675e-08
0.0046307
9.40955e-09
1.17242e-09
0.00463062
8.57535e-09
3.55645e-08
0.00463072
-2.83466e-08
-3.02788e-08
0.00463067
3.38558e-08
-1.61975e-08
0.00463064
4.64173e-09
2.96865e-08
0.00463071
-4.13647e-08
3.47913e-09
0.00463067
4.38151e-08
-4.54955e-08
0.00463067
-3.71429e-08
4.32778e-08
0.00463067
6.32827e-09
-1.09423e-08
0.00463068
-1.13467e-09
-7.17032e-09
0.00463068
8.57806e-09
2.59095e-08
0.00463068
-3.53141e-08
-6.36156e-08
0.00463066
4.78365e-10
8.57728e-08
0.00463068
5.85361e-08
-5.71987e-08
0.0046307
-1.11222e-07
-1.06964e-08
0.00463065
9.5285e-08
5.30463e-08
0.00463071
-4.46307e-08
-7.86964e-08
0.00463065
-2.66901e-08
7.64637e-08
0.00463069
7.98314e-08
-8.51188e-08
0.00463071
-1.07622e-07
4.92572e-08
0.00463063
9.51573e-08
-6.95226e-09
0.0046307
-4.42717e-08
-8.34839e-08
0.00463067
-1.04044e-08
1.12174e-07
0.00463067
5.87854e-08
-1.25628e-07
0.00463067
-5.2945e-08
8.17389e-08
0.00463068
3.97909e-08
-5.46706e-08
0.00463068
-6.78175e-09
-3.91631e-08
0.00463064
3.32145e-09
1.17679e-07
7.61412e-09
-1.66232e-07
0.00420945
4.40227e-08
1.5535e-07
0.00420946
-2.28789e-09
-1.30724e-07
0.00420951
-1.8051e-08
4.90103e-08
0.00420943
5.03184e-08
3.86602e-08
0.00420949
-4.20972e-08
-8.3138e-08
0.00420947
3.65666e-08
8.26498e-08
0.00420946
2.44424e-08
-4.53239e-08
0.00420949
-3.96747e-08
8.65116e-09
0.00420947
4.45067e-08
1.1593e-08
0.00420945
1.62236e-08
2.10973e-08
0.00420948
-2.19431e-08
-5.31851e-08
0.00420949
1.21845e-08
3.53691e-08
0.00420944
3.5893e-08
2.57405e-08
0.00420949
-6.17289e-08
-4.04113e-08
0.00420947
5.05916e-08
1.85987e-08
0.00420945
6.81391e-09
-9.25231e-09
0.0042095
-5.72453e-08
3.3949e-08
0.00420947
4.82893e-08
-6.66599e-08
0.00420947
-2.22469e-08
5.72591e-08
0.00420947
-6.09353e-09
-5.4296e-09
0.00420948
-1.73218e-08
-4.05362e-08
0.00420949
2.94174e-08
5.96479e-08
0.00420946
-4.47369e-08
-8.06462e-08
0.00420946
1.79203e-08
8.59524e-08
0.00420952
2.61552e-08
-5.68198e-08
0.00420945
-8.50293e-08
-1.23778e-08
0.00420948
9.11357e-08
5.56845e-08
0.00420951
-6.63502e-08
-9.0527e-08
0.00420942
2.73174e-08
9.35212e-08
0.00420953
1.49407e-08
-1.05515e-07
0.00420946
-5.64133e-08
4.81969e-08
0.00420946
7.93637e-08
6.10149e-09
0.00420951
-4.93373e-08
-9.07394e-08
0.00420944
1.96248e-08
9.29217e-08
0.00420951
1.47354e-08
-9.50504e-08
0.00420944
4.6035e-09
6.75535e-08
0.00420949
-1.86799e-09
-8.34215e-08
0.00420949
1.46112e-08
3.44293e-08
0.00420942
2.28968e-08
3.17736e-08
-3.27078e-08
-1.23969e-07
0.00382656
5.63018e-08
1.14504e-07
0.0038266
-2.59122e-09
-1.23729e-07
0.00382661
-2.71391e-08
8.42327e-08
0.00382656
7.38718e-08
-3.17292e-08
0.00382662
-6.68238e-08
1.73235e-08
0.00382656
5.30319e-08
6.24632e-09
0.00382662
1.78918e-08
-3.81893e-09
0.00382657
-2.5957e-08
1.45393e-08
0.00382658
4.52699e-08
-1.91604e-08
0.0038266
3.00419e-09
8.05613e-08
0.00382657
-4.86249e-09
-1.06038e-07
0.00382662
-1.20209e-08
8.49089e-08
0.00382655
6.74153e-08
-1.20795e-08
0.0038266
-7.04779e-08
-2.20419e-08
0.0038266
2.82154e-08
3.09398e-08
0.00382658
3.22394e-08
-3.84524e-08
0.0038266
-6.95116e-08
6.35748e-08
0.00382659
3.89563e-08
-8.62364e-08
0.00382659
-2.21141e-09
6.74458e-08
0.00382658
-2.0963e-08
-1.16434e-08
0.0038266
-2.08013e-08
-4.66642e-08
0.00382661
3.1387e-08
6.25886e-08
0.00382656
-2.89317e-08
-7.47454e-08
0.0038266
8.51005e-09
6.91563e-08
0.00382663
-2.03702e-09
-5.56871e-08
0.00382654
-2.60025e-08
1.15337e-08
0.00382663
3.65767e-08
8.77309e-09
0.0038266
-4.29185e-08
-5.53791e-08
0.00382655
5.09074e-08
7.70408e-08
0.00382666
-4.48302e-08
-1.16362e-07
0.00382655
1.3513e-08
7.97543e-08
0.00382661
2.89803e-08
-4.34657e-08
0.00382661
-1.59973e-08
-4.71022e-08
0.00382655
2.48158e-08
5.27576e-08
0.00382664
-1.87928e-08
-7.13909e-08
0.00382655
5.27839e-08
6.67509e-08
0.00382661
-2.87671e-08
-1.09436e-07
0.0038266
2.85835e-08
8.77913e-08
0.00382655
2.94386e-08
-4.04606e-08
-4.84649e-08
-4.69723e-08
0.0034785
6.31394e-08
4.65163e-08
0.00347857
-7.35431e-09
-6.41964e-08
0.00347852
-2.05236e-08
6.31055e-08
0.00347853
8.21186e-08
-4.69069e-08
0.00347856
-8.91176e-08
7.71503e-08
0.0034785
8.84625e-08
-6.80339e-08
0.00347859
-2.07425e-08
7.52594e-08
0.00347849
2.72332e-08
-3.54025e-08
0.00347856
1.06698e-08
6.30373e-09
0.00347853
6.79643e-09
8.34536e-08
0.00347852
2.01569e-08
-1.23062e-07
0.00347857
-5.12824e-08
1.25008e-07
0.00347849
1.13983e-07
-5.76643e-08
0.00347856
-9.96065e-08
2.13877e-08
0.00347852
2.71748e-08
5.31838e-09
0.00347855
4.02744e-08
-3.34442e-08
0.00347854
-7.02204e-08
6.69718e-08
0.00347853
3.67631e-08
-8.94668e-08
0.00347856
-8.77408e-09
7.38506e-08
0.00347851
-7.40222e-09
-3.01111e-08
0.00347857
-3.36708e-08
-2.42897e-08
0.00347855
3.23744e-08
4.23117e-08
0.00347852
-5.97082e-09
-6.4222e-08
0.00347857
-2.11274e-08
5.8248e-08
0.00347854
9.51319e-09
-5.68701e-08
0.00347851
1.10334e-09
2.70469e-08
0.00347858
-6.23548e-09
-2.82156e-08
0.00347853
-6.1719e-09
-1.21541e-08
0.00347853
3.64918e-08
3.70445e-08
0.00347858
-5.05302e-08
-9.82724e-08
0.00347851
3.95226e-08
8.24263e-08
0.00347857
-6.85397e-09
-7.94991e-08
0.00347854
2.78812e-08
1.31999e-08
0.00347852
5.12136e-09
-1.74701e-08
0.00347858
-1.79035e-08
-2.16806e-08
0.00347851
6.69364e-08
4.65632e-08
0.00347856
-2.86629e-08
-1.1904e-07
0.00347855
2.76679e-08
1.18564e-07
0.00347851
3.85882e-08
-8.52576e-08
-5.55112e-08
1.7155e-08
0.00316212
7.88168e-08
-5.78813e-09
0.0031622
-2.69632e-08
1.15798e-09
0.00316211
1.37887e-08
2.0501e-08
0.00316218
5.836e-08
-1.99596e-08
0.00316214
-7.89934e-08
8.13811e-08
0.00316214
1.08793e-07
-8.34827e-08
0.00316219
-5.6705e-08
1.17751e-07
0.00316209
9.31117e-08
-7.73989e-08
0.0031622
-6.13108e-08
6.59555e-08
0.0031621
5.87851e-08
3.973e-08
0.00316218
-6.76903e-09
-8.17773e-08
0.00316214
-4.15035e-08
1.14136e-07
0.00316213
1.19141e-07
-6.86681e-08
0.00316217
-1.18216e-07
5.40562e-08
0.00316211
5.20126e-08
-2.76652e-08
0.0031622
4.53545e-09
-2.68929e-09
0.00316212
-3.24076e-08
4.39705e-08
0.00316216
1.35382e-08
-7.18477e-08
0.00316216
-1.29663e-08
6.48124e-08
0.00316212
1.36477e-08
-3.91176e-08
0.00316219
-5.80843e-08
-9.18064e-10
0.00316214
4.98361e-08
1.24009e-08
0.00316216
-9.01618e-09
-5.01227e-08
0.00316215
-1.60278e-08
5.50088e-08
0.00316215
1.46577e-08
-6.73023e-08
0.00316216
-4.92836e-09
4.05293e-08
0.00316216
-3.03308e-10
-4.88236e-08
0.00316216
-7.19289e-09
9.0676e-09
0.00316215
3.93877e-08
5.1115e-09
0.00316218
-4.48857e-08
-7.20592e-08
0.00316213
3.58708e-08
6.26562e-08
0.00316218
-6.83381e-09
-8.60564e-08
0.00316216
3.89122e-08
4.23228e-08
0.00316214
-2.44616e-09
-5.86007e-08
0.00316218
-9.63407e-09
2.52732e-08
0.00316213
6.26033e-08
9.61443e-10
0.00316217
-1.3553e-08
-8.6855e-08
0.00316214
2.08529e-08
1.12553e-07
0.00316214
4.73537e-08
-9.29789e-08
-6.46369e-08
5.37797e-08
0.00287453
8.72178e-08
-2.88635e-08
0.00287459
-5.13541e-08
4.87618e-08
0.0028745
6.25484e-08
-1.27384e-08
0.0028746
7.91847e-09
1.92199e-08
0.0028745
-3.162e-08
5.88834e-08
0.00287457
8.49032e-08
-5.57766e-08
0.00287455
-5.39758e-08
1.13487e-07
0.00287451
1.21456e-07
-7.47547e-08
0.00287458
-1.06239e-07
8.91831e-08
0.00287449
1.09374e-07
6.91184e-09
0.0028746
-6.38755e-08
-2.3092e-08
0.00287449
2.0832e-08
6.84154e-08
0.00287457
6.60952e-08
-3.694e-08
0.00287453
-8.0295e-08
4.72352e-08
0.00287452
3.81488e-08
-2.66453e-08
0.00287459
-2.30701e-08
8.25274e-09
0.0028745
1.30958e-08
2.06587e-08
0.00287457
-1.80298e-08
-4.91493e-08
0.00287453
3.3946e-09
4.70356e-08
0.00287454
2.74057e-09
-4.16058e-08
0.00287456
-4.76927e-08
7.37044e-09
0.00287454
5.09559e-08
-5.3492e-09
0.00287457
-1.6654e-08
-4.13886e-08
0.00287451
1.95378e-08
5.68183e-08
0.00287457
-2.14991e-08
-8.62048e-08
0.00287454
1.47905e-08
6.07879e-08
0.00287456
8.63071e-09
-7.26117e-08
0.00287456
-2.2143e-08
2.44152e-08
0.00287453
5.79788e-08
-1.29838e-08
0.00287457
-6.09381e-08
-5.27446e-08
0.00287452
5.06263e-08
3.92866e-08
0.00287458
-1.38372e-08
-7.68522e-08
0.00287455
4.75458e-08
4.42359e-08
0.00287453
3.56928e-09
-7.13933e-08
0.00287457
-1.01956e-08
4.04933e-08
0.00287453
6.30195e-08
-3.27467e-08
0.00287457
-3.47417e-09
-3.73401e-08
0.00287452
2.86193e-08
7.20108e-08
0.00287455
3.96472e-08
-6.60247e-08
-5.70147e-08
5.6363e-08
0.00261311
7.64787e-08
-1.91471e-08
0.00261313
-5.17423e-08
6.53183e-08
0.00261307
9.16823e-08
-2.20663e-08
0.00261314
-3.25599e-08
4.67693e-08
0.00261306
1.80127e-08
4.24238e-08
0.00261315
4.16197e-08
-2.25148e-08
0.00261308
-1.61291e-08
9.65809e-08
0.00261311
1.06899e-07
-4.57352e-08
0.00261309
-9.83154e-08
8.69587e-08
0.00261308
1.05683e-07
5.47775e-09
0.00261315
-8.60757e-08
5.36359e-09
0.00261304
7.56051e-08
4.17303e-08
0.00261315
-2.6893e-09
9.51644e-10
0.00261306
-1.69055e-08
2.02252e-08
0.00261311
-1.41276e-08
-4.1288e-09
0.00261312
-5.02032e-09
7.18975e-10
0.00261308
9.34134e-09
2.36693e-08
0.00261312
-7.03321e-09
-4.64481e-08
0.00261309
-1.01643e-11
4.47676e-08
0.00261312
-1.64572e-08
-5.21277e-08
0.0026131
-1.34481e-08
1.97286e-08
0.00261312
2.88455e-08
-2.52522e-08
0.00261311
1.1666e-09
-3.48827e-08
0.00261308
3.94511e-08
5.46958e-08
0.00261314
-5.82521e-08
-9.96801e-08
0.00261309
4.98807e-08
7.60085e-08
0.00261313
-4.83577e-09
-9.49569e-08
0.00261309
-9.72769e-09
4.37048e-08
0.00261311
4.99006e-08
-3.84353e-08
0.00261312
-5.98765e-08
-2.93559e-08
0.00261309
6.12072e-08
1.17996e-08
0.00261314
-3.27739e-08
-5.56672e-08
0.00261309
7.57312e-08
3.24788e-08
0.0026131
-1.0216e-08
-6.61763e-08
0.00261312
3.2898e-09
3.39841e-08
0.0026131
5.57383e-08
-3.71516e-08
0.00261312
9.7745e-09
-5.30145e-09
0.00261308
4.24997e-08
3.30605e-08
0.00261311
2.11137e-08
-2.08345e-08
-3.72458e-08
3.66385e-08
0.00237546
6.83083e-08
9.96888e-09
0.00237546
-4.15433e-08
6.05172e-08
0.00237543
1.03616e-07
-1.04015e-08
0.00237546
-4.21245e-08
5.68894e-08
0.00237542
3.27614e-08
4.10754e-08
0.00237549
1.79316e-08
1.81691e-09
0.00237541
2.05173e-08
8.67825e-08
0.00237548
8.00044e-08
-1.61645e-08
0.00237541
-6.26238e-08
7.65942e-08
0.00237546
5.93475e-08
2.35929e-08
0.00237546
-6.22264e-08
1.35854e-08
0.00237541
8.66921e-08
4.03321e-08
0.00237548
-3.78205e-08
1.99464e-08
0.00237541
1.64832e-08
6.75577e-09
0.00237547
-5.79688e-08
2.09764e-08
0.00237545
2.7538e-08
-1.90322e-08
0.00237545
-2.76603e-08
3.46503e-08
0.00237543
4.88693e-08
-5.64292e-08
0.00237545
-5.03533e-08
5.42699e-08
0.00237546
-4.43287e-09
-7.65653e-08
0.00237545
5.2631e-09
4.0042e-08
0.00237546
2.13927e-08
-5.14796e-08
0.00237545
1.56662e-08
-2.08177e-08
0.00237543
5.07648e-08
4.03348e-08
0.00237547
-7.77169e-08
-1.01471e-07
0.00237544
6.9514e-08
7.47455e-08
0.00237547
-7.59321e-09
-1.05483e-07
0.00237542
4.55641e-09
5.60023e-08
0.00237547
2.55076e-08
-6.06786e-08
0.00237545
-4.09909e-08
-4.21096e-09
0.00237546
4.74407e-08
-1.91602e-08
0.00237547
-2.82797e-08
-2.88865e-08
0.00237544
9.12135e-08
6.55066e-09
0.00237545
-2.88354e-08
-4.32196e-08
0.00237545
2.58018e-08
1.64751e-08
0.00237545
3.43906e-08
-2.06151e-08
0.00237546
3.55302e-08
-5.20336e-11
0.00237543
4.58409e-08
1.73029e-08
0.00237545
1.13155e-08
1.207e-08
-2.98931e-08
1.66111e-08
0.00215942
7.66753e-08
2.96689e-08
0.00215943
-4.33516e-08
5.68815e-08
0.00215939
1.2735e-07
1.4527e-08
0.00215942
-4.83333e-08
5.74271e-08
0.00215941
2.87446e-08
5.18719e-08
0.00215944
2.40323e-08
1.5497e-08
0.00215939
2.7772e-08
9.33802e-08
0.00215943
7.35834e-08
6.15221e-09
0.00215937
-4.40001e-08
7.60457e-08
0.00215944
7.35093e-09
4.29173e-08
0.0021594
-2.56638e-08
1.92418e-08
0.0021594
6.71178e-08
4.99666e-08
0.00215942
-4.0169e-08
3.23254e-08
0.00215939
2.93315e-09
6.73601e-09
0.00215941
-6.25062e-08
3.39129e-08
0.00215942
2.91859e-08
-2.42262e-08
0.00215942
-5.27515e-08
4.00172e-08
0.00215939
1.01047e-07
-6.01615e-08
0.00215942
-1.07525e-07
5.86501e-08
0.00215942
2.0571e-08
-9.84245e-08
0.00215943
6.83518e-09
5.89419e-08
0.00215941
3.72366e-08
-7.91119e-08
0.00215942
6.82564e-09
-4.0545e-09
0.00215939
8.42957e-08
1.43325e-08
0.00215943
-1.12037e-07
-8.39926e-08
0.00215941
9.47216e-08
5.49323e-08
0.00215943
-1.2213e-08
-9.42175e-08
0.00215939
1.19819e-08
5.03783e-08
0.00215944
4.08065e-10
-6.63906e-08
0.0021594
-2.36784e-08
7.74437e-09
0.00215943
2.58207e-08
-4.18648e-08
0.00215942
-9.64936e-09
-3.66221e-09
0.00215941
8.15799e-08
-2.01438e-08
0.00215941
-3.31289e-08
-1.23783e-08
0.00215943
2.90691e-08
-7.34844e-09
0.00215941
2.50385e-08
8.03371e-09
0.00215942
5.30344e-08
-1.14123e-08
0.00215939
5.1312e-08
3.15766e-08
0.00215941
3.56729e-09
2.19256e-08
-3.86743e-08
1.78587e-08
0.00196304
7.98732e-08
2.90015e-08
0.00196304
-4.83727e-08
7.31521e-08
0.00196301
1.5482e-07
3.03475e-08
0.00196304
-6.94042e-08
6.61615e-08
0.00196303
3.26841e-08
6.8435e-08
0.00196306
3.31237e-08
2.43241e-08
0.00196301
2.19119e-08
1.07532e-07
0.00196304
7.86735e-08
2.72217e-08
0.00196299
-5.07815e-08
8.43569e-08
0.00196306
-3.04623e-08
5.99451e-08
0.00196302
-6.10786e-09
3.09765e-08
0.00196302
4.60251e-08
5.97218e-08
0.00196302
-3.81841e-08
4.90628e-08
0.00196303
-3.77934e-08
1.02137e-08
0.00196302
-4.79403e-08
4.62021e-08
0.00196305
2.7146e-09
-2.43496e-08
0.00196302
-5.75318e-08
4.11265e-08
0.00196302
1.28421e-07
-5.79439e-08
0.00196303
-1.4505e-07
5.6932e-08
0.00196305
2.01582e-08
-1.0914e-07
0.00196304
2.47767e-08
6.3608e-08
0.00196303
4.49763e-08
-9.6594e-08
0.00196304
-1.16266e-08
1.38885e-08
0.00196301
1.26431e-07
-9.94124e-09
0.00196305
-1.60473e-07
-6.6432e-08
0.00196303
1.28666e-07
2.64342e-08
0.00196305
-3.32177e-08
-6.83708e-08
0.001963
2.7326e-08
2.61056e-08
0.00196306
-3.73922e-08
-5.29586e-08
0.00196302
-7.67618e-09
3.5244e-09
0.00196306
-2.94397e-09
-4.54011e-08
0.00196303
1.05538e-08
7.24329e-09
0.00196304
6.07829e-08
-3.3489e-08
0.00196302
-3.37402e-08
1.3151e-08
0.00196305
1.54854e-08
-2.98264e-08
0.00196302
2.96489e-08
3.78009e-08
0.00196305
5.08418e-08
-2.65355e-08
0.00196299
7.19291e-08
5.83981e-08
0.00196304
-2.47216e-08
1.45726e-08
-3.56979e-08
4.08053e-08
0.00178454
6.36881e-08
2.23495e-08
0.00178451
-3.72712e-08
1.05193e-07
0.0017845
1.64922e-07
3.10879e-08
0.00178451
-8.57783e-08
9.26665e-08
0.00178452
2.94094e-08
7.61128e-08
0.00178454
3.90481e-08
4.3554e-08
0.00178449
1.02891e-08
1.22252e-07
0.00178452
8.2488e-08
5.15304e-08
0.00178447
-7.48581e-08
9.67464e-08
0.00178454
-6.22427e-08
7.79864e-08
0.00178451
-8.76064e-09
4.72817e-08
0.00178451
3.08929e-08
7.02855e-08
0.0017845
-5.35576e-08
7.44077e-08
0.00178452
-8.68402e-08
1.2541e-08
0.0017845
-3.89353e-08
6.37807e-08
0.00178454
-3.29448e-08
-2.40715e-08
0.0017845
-6.15614e-08
4.44821e-08
0.00178451
1.39836e-07
-5.38055e-08
0.0017845
-1.72065e-07
5.38762e-08
0.00178454
-7.27291e-09
-1.12152e-07
0.00178451
6.26449e-08
5.97905e-08
0.00178452
2.80542e-08
-1.00733e-07
0.00178451
-1.52624e-08
1.34741e-08
0.0017845
1.46486e-07
-2.17771e-08
0.00178453
-2.0516e-07
-5.37256e-08
0.00178452
1.47985e-07
6.20521e-09
0.00178453
-5.87166e-08
-4.03121e-08
0.00178448
3.68324e-08
-3.30392e-09
0.00178454
-8.8902e-08
-2.61321e-08
0.0017845
5.99737e-09
-1.20269e-08
0.00178455
-4.50421e-08
-3.07705e-08
0.0017845
3.07777e-08
4.83593e-09
0.00178453
2.49396e-08
-2.74413e-08
0.00178449
-3.22214e-08
2.42267e-08
0.00178454
-1.31809e-08
-3.31937e-08
0.0017845
3.84434e-08
5.86913e-08
0.00178453
3.36803e-08
-3.05087e-08
0.00178447
9.98288e-08
8.41373e-08
0.00178453
-7.02387e-08
8.39232e-09
-1.58785e-08
7.06787e-08
0.00162227
3.58716e-08
2.21206e-08
0.00162222
-1.67907e-08
1.39142e-07
0.00162224
1.54046e-07
3.01987e-08
0.00162222
-8.59806e-08
1.30016e-07
0.00162226
-1.09504e-09
7.79412e-08
0.00162225
5.66258e-08
7.67329e-08
0.00162222
-2.40906e-08
1.31966e-07
0.00162223
8.80947e-08
8.50136e-08
0.0016222
-1.21954e-07
1.09343e-07
0.00162226
-9.19926e-08
1.02898e-07
0.00162224
-3.35643e-08
6.6287e-08
0.00162223
1.25952e-08
8.74497e-08
0.00162222
-9.02125e-08
1.03972e-07
0.00162224
-1.43375e-07
1.6994e-08
0.00162222
-4.8691e-08
8.62838e-08
0.00162227
-6.83301e-08
-2.1975e-08
0.00162222
-8.18293e-08
5.51639e-08
0.00162223
1.43018e-07
-4.9691e-08
0.00162222
-2.04264e-07
5.3868e-08
0.00162228
-5.23595e-08
-1.12841e-07
0.00162223
1.05646e-07
5.24247e-08
0.00162225
-1.07821e-08
-9.52085e-08
0.00162222
-1.29367e-08
4.62399e-09
0.00162223
1.41097e-07
-2.06792e-08
0.00162224
-2.43796e-07
-5.07012e-08
0.00162226
1.3727e-07
-3.15135e-09
0.00162223
-7.96383e-08
-2.01113e-08
0.00162221
1.45093e-08
-1.85553e-08
0.00162226
-1.395e-07
2.59243e-09
0.00162223
-4.82862e-09
-2.79466e-08
0.00162227
-9.10689e-08
-5.41359e-09
0.00162222
3.61817e-08
-2.69803e-09
0.00162225
-2.05699e-08
-9.17288e-09
0.00162221
-3.43908e-08
2.54037e-08
0.00162227
-5.92237e-08
-1.86383e-08
0.00162222
4.59759e-08
6.97365e-08
0.00162226
1.36716e-09
-1.89436e-08
0.00162219
1.25471e-07
1.03553e-07
0.00162225
-1.26353e-07
1.48222e-08
8.07461e-09
9.62324e-08
0.00147475
1.51957e-09
3.42596e-08
0.00147469
-1.65516e-09
1.70491e-07
0.00147472
1.30551e-07
3.86238e-08
0.00147468
-8.33663e-08
1.6582e-07
0.00147474
-5.38547e-08
8.52151e-08
0.00147471
8.25183e-08
1.17966e-07
0.0014747
-9.43644e-08
1.43611e-07
0.00147469
1.01097e-07
1.28516e-07
0.00147468
-2.10704e-07
1.22562e-07
0.00147473
-1.13609e-07
1.37992e-07
0.00147472
-9.20777e-08
8.84101e-08
0.00147469
-1.53524e-08
1.14367e-07
0.00147469
-1.59363e-07
1.3767e-07
0.00147472
-2.10512e-07
3.06536e-08
0.0014747
-8.08539e-08
1.13744e-07
0.00147474
-1.06751e-07
-1.39971e-08
0.0014747
-1.30814e-07
7.06026e-08
0.0014747
1.37105e-07
-4.33794e-08
0.00147469
-2.5638e-07
5.97854e-08
0.00147475
-1.08961e-07
-1.07993e-07
0.00147471
1.34482e-07
4.8572e-08
0.00147472
-6.85142e-08
-8.37607e-08
0.00147469
-2.29194e-08
-6.72606e-09
0.00147471
1.1539e-07
-8.42701e-09
0.0014747
-2.9554e-07
-4.6929e-08
0.00147474
9.96794e-08
1.47473e-09
0.00147469
-1.08881e-07
-3.41133e-09
0.0014747
-4.66224e-08
-2.22801e-08
0.00147472
-1.85225e-07
2.44099e-08
0.00147472
-5.53933e-08
-3.07658e-08
0.00147474
-1.31469e-07
1.86451e-08
0.0014747
3.69419e-09
-4.37525e-09
0.00147472
-6.59013e-08
1.88478e-08
0.00147469
-5.93738e-08
2.53563e-08
0.00147475
-1.1775e-07
8.90737e-09
0.0014747
4.11622e-08
7.76898e-08
0.00147473
-4.40127e-08
5.71918e-09
0.00147466
1.42153e-07
1.18728e-07
0.00147473
-1.92327e-07
3.38051e-08
2.83282e-08
1.18746e-07
0.00134044
-3.89911e-08
6.38878e-08
0.00134038
-1.01178e-08
1.96664e-07
0.00134041
9.30762e-08
5.2631e-08
0.00134037
-9.1694e-08
2.05625e-07
0.00134044
-1.20897e-07
1.14658e-07
0.0013404
9.5276e-08
1.69062e-07
0.0013404
-2.01253e-07
1.59573e-07
0.00134038
1.07041e-07
1.70489e-07
0.00134038
-3.41822e-07
1.49435e-07
0.00134041
-1.28663e-07
1.93758e-07
0.00134041
-2.06246e-07
1.2671e-07
0.00134037
-5.49675e-08
1.45682e-07
0.00134038
-2.7644e-07
1.71634e-07
0.00134039
-2.86691e-07
5.78918e-08
0.00134039
-1.47747e-07
1.57884e-07
0.00134042
-1.58565e-07
1.29225e-08
0.00134038
-2.22911e-07
8.70312e-08
0.00134038
1.14099e-07
-3.69225e-08
0.00134038
-3.36654e-07
7.31759e-08
0.00134043
-1.83476e-07
-8.32755e-08
0.00134039
1.27914e-07
5.28022e-08
0.0013404
-1.50942e-07
-7.08778e-08
0.00134036
-6.75908e-08
-1.90004e-08
0.00134039
7.1243e-08
1.53576e-08
0.00134038
-3.81315e-07
-2.84886e-08
0.00134042
3.66136e-08
1.96771e-08
0.00134036
-1.7384e-07
6.31231e-09
0.00134038
-1.45825e-07
-2.04667e-08
0.00134038
-2.45358e-07
4.97092e-08
0.0013404
-1.53468e-07
-5.16266e-09
0.0013404
-1.81957e-07
4.88205e-08
0.00134039
-8.0161e-08
-1.88563e-09
0.00134038
-1.17513e-07
4.37999e-08
0.00134038
-1.23983e-07
3.46385e-08
0.00134042
-1.76358e-07
5.24769e-08
0.00134039
-2.61368e-09
9.97352e-08
0.0013404
-1.03772e-07
3.84873e-08
0.00134035
1.27708e-07
1.29796e-07
0.00134041
-2.5768e-07
6.50264e-08
3.23345e-08
1.54171e-07
0.00121581
-1.0584e-07
1.15084e-07
0.00121576
-6.10212e-08
1.72348e-07
0.0012158
2.22735e-08
4.25388e-08
0.00121576
-1.2831e-07
2.95695e-07
0.00121584
-2.05134e-07
2.23135e-07
0.00121581
6.08841e-08
2.41089e-07
0.00121581
-3.40268e-07
1.33664e-07
0.00121579
7.45475e-08
1.91484e-07
0.00121577
-4.92429e-07
2.36113e-07
0.0012158
-1.65137e-07
3.33001e-07
0.00121579
-3.71918e-07
1.8622e-07
0.00121574
-1.28851e-07
1.35941e-07
0.00121572
-4.2958e-07
1.8707e-07
0.00121572
-3.7324e-07
1.42921e-07
0.00121573
-2.60554e-07
2.78226e-07
0.00121574
-2.44521e-07
5.8372e-08
0.00121571
-3.73021e-07
4.98506e-08
0.0012157
4.89734e-08
-5.0642e-08
0.0012157
-4.54582e-07
1.34241e-07
0.00121573
-2.88541e-07
2.16923e-08
0.00121572
5.50865e-08
5.35705e-08
0.00121569
-2.67592e-07
-1.10658e-07
0.00121565
-1.69255e-07
-6.74312e-08
0.00121567
-7.92026e-09
8.20475e-08
0.00121564
-5.10749e-07
6.09376e-08
0.00121569
-7.49958e-08
4.57586e-08
0.00121562
-3.03523e-07
-4.3434e-08
0.00121564
-2.88484e-07
-4.80993e-08
0.00121564
-3.44093e-07
1.15463e-07
0.00121567
-3.00381e-07
8.89101e-08
0.00121569
-2.84166e-07
8.25575e-08
0.00121569
-2.24893e-07
-4.61061e-08
0.00121569
-2.09803e-07
3.97113e-08
0.00121571
-2.27939e-07
9.1778e-08
0.00121573
-2.52667e-07
1.83708e-07
0.00121573
-1.08456e-07
1.52682e-07
0.00121572
-1.93263e-07
3.16289e-08
0.0012157
5.80532e-08
1.236e-07
0.00121573
-3.18638e-07
1.56025e-07
-4.23271e-09
2.70789e-07
0.00109048
-2.20702e-07
4.38604e-08
0.00109043
-1.41864e-07
2.73604e-08
0.00109052
-9.4105e-08
7.5442e-08
0.0010905
-1.94144e-07
5.24248e-07
0.00109059
-3.0759e-07
3.67676e-07
0.00109056
-3.54853e-08
2.00582e-07
0.00109054
-4.7944e-07
-1.34698e-08
0.00109051
-8.73799e-09
2.85904e-07
0.00109044
-6.11202e-07
4.48714e-07
0.00109047
-2.43119e-07
5.15721e-07
0.0010904
-5.45492e-07
1.06649e-07
0.00109034
-2.33113e-07
2.18004e-08
0.00109025
-5.7046e-07
2.3258e-07
0.00109023
-4.55996e-07
3.47912e-07
0.00109023
-4.03332e-07
3.96981e-07
0.00109025
-3.69707e-07
-4.24674e-08
0.00109017
-5.41528e-07
-1.38021e-07
0.00109018
-4.75063e-08
-5.2044e-08
0.00109016
-5.768e-07
2.85468e-07
0.00109014
-4.02205e-07
8.6492e-08
0.00109016
-9.25488e-08
-1.22154e-07
0.00109006
-3.93417e-07
-3.03271e-07
0.00109005
-3.04556e-07
-1.21398e-07
0.00109005
-1.23395e-07
2.54683e-07
0.00108999
-6.56301e-07
1.32347e-07
0.00109006
-2.32718e-07
-9.9533e-08
0.00108998
-4.73176e-07
-2.42879e-07
0.00109002
-4.41439e-07
-4.93761e-08
0.00109004
-4.69264e-07
2.93362e-07
0.00109009
-4.75711e-07
1.96158e-07
0.00109015
-4.31403e-07
-2.68465e-08
0.00109016
-3.9007e-07
-1.97004e-07
0.0010902
-3.38174e-07
9.7994e-08
0.00109023
-3.33394e-07
2.98202e-07
0.00109025
-3.56876e-07
4.01568e-07
0.00109026
-2.57152e-07
9.58602e-08
0.00109024
-2.99226e-07
-6.5163e-08
0.00109028
-5.12928e-08
1.62652e-07
0.00109031
-3.70412e-07
3.97977e-07
-8.65227e-08
4.11785e-07
0.000957784
-2.93588e-07
-1.65033e-07
0.000957759
-2.17422e-07
8.58129e-08
0.000957904
-1.87306e-07
3.02718e-07
0.000957835
-2.59396e-07
6.17395e-07
0.00095792
-4.05695e-07
2.10512e-07
0.000957854
-1.3965e-07
3.00651e-08
0.000957817
-5.54579e-07
7.82653e-08
0.000957767
-1.00091e-07
5.62963e-07
0.000957646
-6.83663e-07
4.83915e-07
0.000957641
-3.40347e-07
3.72775e-07
0.000957516
-6.6126e-07
-1.4819e-07
0.000957464
-3.17888e-07
1.23532e-07
0.000957371
-6.60284e-07
3.85664e-07
0.000957339
-5.18969e-07
3.63511e-07
0.00095733
-5.403e-07
1.13589e-07
0.000957313
-4.70959e-07
-3.26117e-07
0.00095721
-6.49539e-07
-2.10003e-07
0.000957265
-1.41692e-07
7.61286e-08
0.000957176
-6.54838e-07
2.04045e-07
0.000957146
-4.87521e-07
-2.84055e-07
0.000957185
-2.31198e-07
-4.27082e-07
0.000957065
-4.76769e-07
-3.58416e-07
0.000957113
-4.06304e-07
-1.4313e-08
0.000957098
-2.40219e-07
2.71329e-07
0.000957043
-7.46755e-07
-2.02804e-07
0.000957132
-3.61567e-07
-3.49299e-07
0.000957075
-5.85425e-07
-2.35047e-07
0.000957168
-5.32575e-07
1.60761e-07
0.000957187
-5.70705e-07
3.39866e-07
0.00095725
-5.91436e-07
9.8088e-09
0.000957321
-5.2734e-07
-2.02879e-07
0.00095733
-4.92757e-07
-7.63941e-08
0.000957396
-4.24913e-07
3.74013e-07
0.000957394
-4.06875e-07
4.3643e-07
0.000957403
-4.62118e-07
3.05459e-07
0.000957426
-3.58386e-07
-1.34371e-07
0.000957451
-3.61633e-07
3.42958e-08
0.000957553
-1.31482e-07
3.44079e-07
0.000957594
-3.99594e-07
4.95522e-07
-1.9124e-07
1.71266e-07
0.000825045
-3.26068e-07
-6.88138e-09
0.00082507
-2.59619e-07
2.96697e-07
0.000825173
-2.33923e-07
3.45177e-07
0.000825057
-3.09185e-07
4.04004e-07
0.000825121
-4.5972e-07
4.17004e-08
0.000825019
-2.14681e-07
1.26811e-07
0.000824977
-5.79303e-07
3.39072e-07
0.000824876
-1.81235e-07
5.43146e-07
0.000824745
-7.16221e-07
2.05712e-07
0.000824708
-4.16685e-07
1.69845e-07
0.000824593
-6.98632e-07
-1.61595e-07
0.000824567
-3.64154e-07
3.22837e-07
0.00082447
-6.81868e-07
2.18911e-07
0.000824415
-5.60111e-07
1.96534e-08
0.000824403
-6.20916e-07
-2.57929e-07
0.000824359
-5.15715e-07
-3.71929e-07
0.000824285
-6.90928e-07
-1.67936e-07
0.000824349
-1.95694e-07
-5.55856e-08
0.000824217
-6.83544e-07
-2.47294e-07
0.000824237
-5.25266e-07
-6.00737e-07
0.000824291
-3.10063e-07
-3.99124e-07
0.000824212
-4.971e-07
-2.65605e-07
0.000824297
-4.50256e-07
-3.58447e-08
0.000824263
-3.0911e-07
-2.80555e-08
0.000824262
-7.55364e-07
-4.66549e-07
0.000824357
-4.23309e-07
-1.80547e-07
0.000824338
-6.114e-07
4.34774e-09
0.000824438
-5.48612e-07
2.31999e-07
0.000824425
-6.23093e-07
1.38547e-07
0.000824484
-6.18218e-07
-1.02461e-07
0.000824528
-5.62429e-07
-2.71961e-08
0.000824538
-5.29983e-07
2.32467e-07
0.000824585
-4.61681e-07
4.19976e-07
0.000824551
-4.60493e-07
2.42398e-07
0.000824588
-5.24461e-07
7.1835e-08
0.000824652
-3.79357e-07
-1.17196e-07
0.000824733
-3.7262e-07
2.37777e-07
0.000824852
-1.68472e-07
2.82011e-07
0.000824886
-4.07087e-07
2.50521e-07
-2.46521e-07
-1.22876e-07
0.000698977
-3.20331e-07
2.45086e-07
0.000699014
-2.64561e-07
2.87269e-07
0.000699034
-2.55658e-07
2.50298e-07
0.000698916
-3.25256e-07
2.55181e-07
0.000698951
-4.49979e-07
6.87821e-08
0.000698827
-2.58115e-07
2.56104e-07
0.000698775
-5.53377e-07
3.40872e-07
0.000698637
-2.39654e-07
2.74879e-07
0.000698534
-6.96504e-07
2.31292e-08
0.000698486
-4.48662e-07
9.06645e-08
0.000698404
-6.73729e-07
-1.36642e-07
0.000698377
-3.67445e-07
2.39767e-07
0.000698268
-6.67785e-07
-1.69999e-07
0.000698212
-5.60743e-07
-2.5233e-07
0.000698206
-6.43145e-07
-3.98653e-07
0.000698161
-5.14087e-07
-3.59247e-07
0.000698128
-6.83506e-07
-2.93805e-07
0.000698179
-2.2872e-07
-3.19867e-07
0.000698072
-6.68164e-07
-5.29743e-07
0.000698152
-4.9997e-07
-5.56406e-07
0.000698204
-3.34897e-07
-2.78779e-07
0.000698178
-4.63086e-07
-2.71355e-07
0.00069826
-4.4694e-07
-1.08001e-07
0.000698236
-3.24232e-07
-1.85953e-07
0.00069828
-6.94121e-07
-3.28613e-07
0.00069835
-4.22878e-07
1.0839e-07
0.000698348
-5.781e-07
7.72209e-08
0.000698408
-5.18168e-07
1.8371e-07
0.000698369
-6.2203e-07
5.48282e-08
0.000698421
-5.87133e-07
3.23709e-08
0.000698436
-5.53994e-07
1.54406e-07
0.000698447
-5.21248e-07
2.70011e-07
0.000698472
-4.62103e-07
2.10496e-07
0.000698456
-4.73702e-07
5.07748e-08
0.000698542
-5.08364e-07
-1.24363e-08
0.000698636
-3.49823e-07
-1.98792e-08
0.000698734
-3.42038e-07
2.07603e-07
0.000698834
-1.69831e-07
8.37667e-08
0.000698861
-3.81176e-07
8.6784e-08
-2.70514e-07
-8.85168e-08
0.00058331
-2.91278e-07
3.29727e-07
0.000583326
-2.50387e-07
1.73375e-07
0.000583286
-2.58512e-07
2.12918e-07
0.000583192
-3.08161e-07
1.92388e-07
0.000583187
-4.13888e-07
1.07657e-07
0.000583063
-2.69446e-07
2.23852e-07
0.000583003
-4.94612e-07
1.77555e-07
0.000582861
-2.68996e-07
5.09932e-08
0.000582797
-6.32419e-07
-4.51631e-08
0.000582742
-4.43963e-07
-1.38056e-08
0.000582685
-6.16255e-07
-1.97506e-07
0.000582644
-3.46297e-07
-1.6308e-10
0.000582543
-6.27627e-07
-4.36022e-07
0.000582507
-5.30755e-07
-3.33514e-07
0.000582509
-6.16521e-07
-4.69121e-07
0.000582482
-4.78407e-07
-4.05856e-07
0.000582483
-6.34622e-07
-4.41939e-07
0.000582526
-2.35523e-07
-4.40119e-07
0.000582478
-6.02942e-07
-5.39923e-07
0.000582585
-4.34453e-07
-3.84467e-07
0.000582627
-3.20655e-07
-2.2664e-07
0.000582642
-3.9088e-07
-2.42726e-07
0.000582702
-4.06826e-07
-7.13571e-08