/*--------------------------------*- C++ -*----------------------------------*\
  =========                 |
  \\      /  F ield         | OpenFOAM: The Open Source CFD Toolbox
   \\    /   O peration     | Website:  https://openfoam.org
    \\  /    A nd           | Version:  10
     \\/     M anipulation  |
\*---------------------------------------------------------------------------*/
FoamFile
{
    format      ascii;
    class       volVectorField;
    location    "7.5";
    object      U_0;
}
// * * * * * * * * * * * * * * * * * * * * * * * * * * * * * * * * * * * * * //

dimensions      [0 1 -1 0 0 0 0];

internalField   nonuniform List<vector> 
25600
(
(1.06755 -8.98587e-06 2.86301e-06)
(1.06756 5.75812e-06 -3.49889e-07)
(1.06754 -1.06213e-07 -8.0497e-07)
(1.06755 1.59118e-06 4.31201e-06)
(1.06755 -1.57488e-06 -9.75639e-06)
(1.06754 5.57131e-06 7.06647e-06)
(1.06755 -2.71538e-07 -4.86907e-06)
(1.06755 -3.55717e-06 1.10062e-06)
(1.06753 1.42108e-05 2.39982e-06)
(1.06755 -1.59715e-05 -5.33802e-06)
(1.06756 1.22972e-05 3.30222e-06)
(1.06753 5.00908e-06 -3.67435e-06)
(1.06755 -1.67249e-05 4.25053e-06)
(1.06756 1.98101e-05 -1.95106e-06)
(1.06753 -9.78896e-06 -3.47047e-06)
(1.06756 -2.23546e-06 4.92787e-06)
(1.06756 9.45384e-06 -2.92296e-06)
(1.06754 -5.74318e-06 1.35649e-06)
(1.06755 -1.84989e-06 -7.80648e-07)
(1.06756 -9.47529e-07 -2.08722e-06)
(1.06754 4.39624e-06 6.99917e-06)
(1.06755 -1.30302e-06 -6.97699e-06)
(1.06755 -5.65696e-06 1.92087e-06)
(1.06753 -1.03105e-06 5.53511e-06)
(1.06756 7.13617e-06 -9.45955e-06)
(1.06755 -1.00266e-05 8.97361e-06)
(1.06754 6.59549e-06 -5.37635e-06)
(1.06756 -2.70949e-06 9.2762e-07)
(1.06754 -9.11521e-06 4.75958e-06)
(1.06756 1.58773e-05 -1.15618e-05)
(1.06755 -1.54779e-05 1.39965e-05)
(1.06754 8.78227e-06 -1.0877e-05)
(1.06756 -3.70672e-06 -1.10679e-06)
(1.06754 -4.15843e-06 1.15602e-05)
(1.06755 1.28556e-05 -1.85064e-05)
(1.06756 -1.65069e-05 1.36698e-05)
(1.06754 1.42443e-05 -5.14121e-06)
(1.06755 -5.68732e-06 -8.52258e-06)
(1.06756 -3.34818e-06 1.56657e-05)
(1.06754 1.176e-05 -1.37997e-05)
(1.06754 -1.81586e-06 1.34726e-05)
(1.06756 1.67953e-06 -8.75066e-06)
(1.06754 -2.02283e-07 5.06745e-07)
(1.06755 4.19127e-06 8.57268e-06)
(1.06755 -5.32188e-06 -1.48046e-05)
(1.06754 8.29034e-06 1.13453e-05)
(1.06755 6.23539e-07 -5.36738e-06)
(1.06756 -4.81837e-06 -3.31515e-07)
(1.06753 9.53187e-06 4.73165e-06)
(1.06755 -5.95034e-06 -3.95025e-06)
(1.06757 6.04026e-06 -2.88257e-07)
(1.06752 1.09768e-06 3.97124e-08)
(1.06756 -2.8636e-06 3.44741e-06)
(1.06756 1.7726e-06 -2.77571e-06)
(1.06752 2.50272e-07 -1.6209e-06)
(1.06756 1.60588e-06 2.31483e-06)
(1.06756 -4.46636e-06 1.3468e-06)
(1.06753 5.58806e-06 -5.28067e-06)
(1.06755 -7.45879e-06 4.30273e-06)
(1.06756 1.18284e-06 -1.12582e-06)
(1.06754 2.55696e-06 -1.22639e-06)
(1.06755 -1.04141e-06 4.05594e-06)
(1.06755 -5.37305e-06 -8.19617e-06)
(1.06754 -2.51893e-06 9.54952e-06)
(1.06756 1.3721e-05 -4.81564e-06)
(1.06754 -2.05811e-05 -2.44737e-06)
(1.06755 1.4085e-05 6.28199e-06)
(1.06755 -4.3157e-06 -7.55682e-06)
(1.06755 -1.01731e-05 6.73617e-06)
(1.06756 2.07089e-05 -8.20391e-06)
(1.06754 -2.26235e-05 6.3911e-06)
(1.06755 1.60727e-05 -3.13798e-06)
(1.06755 -6.00666e-06 -6.81553e-06)
(1.06755 -4.96414e-06 1.17679e-05)
(1.06754 1.59821e-05 -1.55452e-05)
(1.06755 -1.61103e-05 1.1339e-05)
(1.06755 1.19462e-05 -8.02792e-06)
(1.06754 -2.66952e-06 -3.56204e-06)
(1.06756 -2.57976e-06 1.26019e-05)
(1.06754 6.93149e-06 -1.8228e-05)
(1.06754 5.75219e-06 1.74596e-05)
(1.06756 -2.47299e-07 -1.69107e-05)
(1.06754 -1.93997e-06 8.7676e-06)
(1.06755 7.05678e-06 1.53305e-06)
(1.06755 -6.60103e-06 -8.07601e-06)
(1.06755 7.51117e-06 9.12295e-06)
(1.06754 3.56878e-06 -5.40491e-06)
(1.06756 -6.40855e-06 2.17061e-06)
(1.06753 6.51302e-06 -1.68667e-07)
(1.06754 3.73164e-06 3.58015e-06)
(1.06757 -3.65488e-06 -6.93512e-06)
(1.06752 2.09811e-06 4.95901e-06)
(1.06755 6.24962e-06 2.07737e-06)
(1.06756 -1.27864e-05 -4.15225e-06)
(1.06753 1.15101e-05 2.03916e-06)
(1.06755 4.76657e-07 -2.31336e-06)
(1.06756 -1.21946e-05 5.91069e-06)
(1.06754 1.15499e-05 -9.80112e-06)
(1.06754 -7.31229e-06 7.61169e-06)
(1.06756 1.0508e-06 -1.09692e-06)
(1.06754 -2.62577e-06 -5.65541e-06)
(1.06754 4.40577e-06 9.97449e-06)
(1.06755 -9.1626e-06 -1.33421e-05)
(1.06755 1.94507e-06 1.20838e-05)
(1.06755 1.11077e-05 -5.2133e-06)
(1.06755 -2.42866e-05 -4.86196e-06)
(1.06756 2.15367e-05 9.46704e-06)
(1.06754 -1.13447e-05 -1.12462e-05)
(1.06756 -1.32297e-06 9.74521e-06)
(1.06755 1.20907e-05 -1.03296e-05)
(1.06754 -1.96061e-05 4.94816e-06)
(1.06756 1.9824e-05 -5.02135e-07)
(1.06754 -9.99207e-06 -8.46886e-06)
(1.06756 5.07782e-07 8.79139e-06)
(1.06754 8.15852e-06 -1.08286e-05)
(1.06755 -5.29926e-06 8.65413e-06)
(1.06755 4.09739e-06 -1.17916e-05)
(1.06753 1.09347e-07 6.22935e-06)
(1.06756 3.379e-06 9.40999e-07)
(1.06754 -3.26961e-06 -1.27676e-05)
(1.06755 1.06513e-05 1.19644e-05)
(1.06755 -3.45272e-07 -1.53356e-05)
(1.06754 -4.92221e-06 1.19239e-05)
(1.06754 1.18708e-05 -6.72763e-06)
(1.06755 -9.43318e-06 5.27864e-06)
(1.06755 6.72706e-06 -2.40636e-06)
(1.06754 6.21316e-06 2.72162e-06)
(1.06756 -8.6208e-06 2.38257e-07)
(1.06754 9.35958e-06 -2.59223e-06)
(1.06754 3.344e-06 1.23105e-05)
(1.06757 -5.46081e-06 -1.58688e-05)
(1.06753 2.1085e-06 1.31009e-05)
(1.06755 9.21106e-06 -3.47839e-06)
(1.06756 -1.39099e-05 -1.45972e-06)
(1.06753 9.97628e-06 3.2181e-06)
(1.06754 2.41967e-06 -5.65235e-06)
(1.06756 -1.22781e-05 9.72141e-06)
(1.06754 8.3489e-06 -1.36723e-05)
(1.06754 -1.48289e-06 1.0618e-05)
(1.06756 -3.13112e-06 -3.2208e-06)
(1.06754 -4.65778e-06 -5.6233e-06)
(1.06754 7.80669e-06 1.03181e-05)
(1.06755 -9.94657e-06 -1.3968e-05)
(1.06756 5.40257e-06 1.24356e-05)
(1.06754 8.8658e-07 -7.64771e-06)
(1.06755 -1.2679e-05 -7.91045e-07)
(1.06756 1.6258e-05 4.81608e-06)
(1.06753 -1.4056e-05 -9.06585e-06)
(1.06757 1.04573e-05 9.63115e-06)
(1.06754 -4.89006e-06 -1.3178e-05)
(1.06755 -4.89901e-06 8.74323e-06)
(1.06756 1.30846e-05 -5.89083e-06)
(1.06753 -8.74536e-06 -4.229e-06)
(1.06756 6.16423e-06 3.04302e-06)
(1.06753 -1.51875e-06 -6.58396e-06)
(1.06755 6.78356e-06 7.38651e-06)
(1.06755 -4.5421e-06 -1.543e-05)
(1.06754 4.94599e-06 1.39394e-05)
(1.06756 6.0408e-06 -9.88229e-06)
(1.06754 -9.49529e-06 -2.43194e-06)
(1.06755 1.18492e-05 2.57611e-06)
(1.06755 -2.70997e-07 -5.77743e-06)
(1.06755 -6.05871e-06 6.84765e-06)
(1.06754 1.70379e-05 -6.59699e-06)
(1.06755 -1.55278e-05 1.27909e-05)
(1.06756 1.29507e-05 -1.23895e-05)
(1.06753 1.41924e-06 1.55181e-05)
(1.06756 -2.63968e-06 -9.8789e-06)
(1.06754 8.71205e-06 4.08778e-06)
(1.06753 -1.63386e-06 1.14754e-05)
(1.06757 2.61779e-06 -1.82558e-05)
(1.06753 -6.24909e-06 1.98218e-05)
(1.06754 1.65073e-05 -1.05575e-05)
(1.06756 -1.41831e-05 5.20165e-06)
(1.06754 2.9237e-06 -1.5489e-06)
(1.06754 9.36932e-06 -3.88951e-06)
(1.06756 -1.41725e-05 9.64642e-06)
(1.06754 6.40092e-06 -1.4406e-05)
(1.06753 8.17483e-07 1.20598e-05)
(1.06756 -4.68199e-06 -6.52179e-06)
(1.06755 -4.29893e-06 -1.92227e-06)
(1.06754 5.48615e-06 6.35875e-06)
(1.06755 -2.91833e-06 -1.20001e-05)
(1.06756 -7.96219e-07 1.18585e-05)
(1.06753 -1.89564e-06 -9.97844e-06)
(1.06756 5.16516e-07 3.93406e-06)
(1.06756 6.89696e-07 -1.76664e-06)
(1.06753 -4.92749e-06 -3.68633e-06)
(1.06757 1.11879e-05 5.63938e-06)
(1.06754 -1.32119e-05 -1.2657e-05)
(1.06755 8.60417e-06 9.95928e-06)
(1.06755 3.2681e-07 -1.13307e-05)
(1.06754 1.10739e-06 3.73068e-06)
(1.06756 3.97573e-06 -7.21537e-06)
(1.06754 -5.26659e-06 8.57876e-07)
(1.06755 1.33489e-05 3.41784e-06)
(1.06755 -7.0594e-06 -1.6759e-05)
(1.06754 6.59736e-06 1.87102e-05)
(1.06755 6.33658e-06 -1.69149e-05)
(1.06754 -1.04812e-05 6.50123e-06)
(1.06755 1.28203e-05 -4.84856e-06)
(1.06754 -2.18134e-06 5.35035e-06)
(1.06756 -2.46573e-06 -1.58249e-06)
(1.06754 1.66252e-05 9.22e-07)
(1.06755 -1.92883e-05 1.13243e-05)
(1.06756 2.08342e-05 -1.25534e-05)
(1.06753 -8.45173e-06 2.17537e-05)
(1.06757 1.17406e-05 -1.6738e-05)
(1.06754 -3.30452e-06 1.47568e-05)
(1.06753 3.65574e-06 2.88951e-06)
(1.06757 4.70312e-06 -1.01084e-05)
(1.06754 -1.30268e-05 1.72222e-05)
(1.06754 2.63709e-05 -1.18847e-05)
(1.06755 -2.24658e-05 9.56141e-06)
(1.06755 6.32478e-06 -6.68247e-06)
(1.06753 6.4304e-06 1.54801e-06)
(1.06756 -1.28e-05 5.02186e-06)
(1.06755 6.79891e-06 -1.16359e-05)
(1.06753 -3.44638e-06 1.04028e-05)
(1.06756 9.75114e-07 -7.57119e-06)
(1.06755 -8.54704e-06 1.05111e-06)
(1.06754 6.64736e-06 1.6433e-06)
(1.06755 8.29564e-07 -9.17304e-06)
(1.06756 -6.72493e-06 1.09407e-05)
(1.06754 4.45984e-06 -1.23102e-05)
(1.06755 2.94245e-07 7.61345e-06)
(1.06756 -3.18862e-06 -7.18561e-06)
(1.06754 1.6682e-06 7.38752e-07)
(1.06756 5.40508e-06 1.34658e-06)
(1.06754 -8.96271e-06 -1.05794e-05)
(1.06756 8.53726e-06 8.02136e-06)
(1.06755 -2.90846e-06 -1.32359e-05)
(1.06754 9.12142e-06 7.54306e-06)
(1.06756 -1.42247e-06 -1.51507e-05)
(1.06754 -2.55847e-06 9.46979e-06)
(1.06755 1.35942e-05 -5.14897e-06)
(1.06755 -4.08141e-06 -1.14606e-05)
(1.06754 4.18334e-06 1.7519e-05)
(1.06755 8.63442e-06 -1.8284e-05)
(1.06754 -1.14262e-05 1.17256e-05)
(1.06755 1.72302e-05 -6.85922e-06)
(1.06754 -7.81073e-06 1.29212e-05)
(1.06756 6.78275e-06 -7.44634e-06)
(1.06753 7.94489e-06 9.47065e-06)
(1.06755 -1.30679e-05 5.69703e-06)
(1.06756 2.21541e-05 -4.82096e-06)
(1.06753 -1.39141e-05 1.93185e-05)
(1.06757 2.44868e-05 -1.46273e-05)
(1.06754 -1.88982e-05 1.80692e-05)
(1.06754 1.74554e-05 -1.91998e-06)
(1.06756 -6.02175e-06 3.238e-07)
(1.06755 -4.69171e-06 7.98012e-06)
(1.06754 2.2709e-05 -4.42908e-06)
(1.06755 -2.40951e-05 7.01569e-06)
(1.06756 1.20596e-05 -5.74227e-06)
(1.06753 -3.86549e-06 2.91393e-06)
(1.06756 -1.52102e-06 1.07672e-06)
(1.06755 -3.60806e-07 -7.48346e-06)
(1.06753 -2.0009e-06 6.82238e-06)
(1.06756 3.75677e-06 -7.92574e-06)
(1.06755 -1.32168e-05 1.94962e-06)
(1.06755 1.17613e-05 -7.81374e-07)
(1.06754 -3.42111e-06 -9.0418e-06)
(1.06756 -9.02142e-07 1.19951e-05)
(1.06754 2.00499e-06 -1.64684e-05)
(1.06755 -1.69725e-06 1.19126e-05)
(1.06756 2.58315e-06 -1.18936e-05)
(1.06754 -3.77662e-06 3.47356e-06)
(1.06756 8.83219e-06 -2.12601e-06)
(1.06754 -8.44434e-06 -8.6887e-06)
(1.06756 6.47913e-06 5.10171e-06)
(1.06755 -5.92778e-07 -1.26589e-05)
(1.06754 7.89325e-06 7.54917e-06)
(1.06756 1.06184e-07 -1.85333e-05)
(1.06754 -1.64634e-06 1.34664e-05)
(1.06755 1.24015e-05 -1.25805e-05)
(1.06755 -1.01336e-06 -2.27079e-06)
(1.06755 3.56838e-06 9.99194e-06)
(1.06754 1.03277e-05 -1.26815e-05)
(1.06754 -1.33381e-05 1.1214e-05)
(1.06756 1.83408e-05 -2.51603e-06)
(1.06754 -1.20788e-05 1.5858e-05)
(1.06756 1.68625e-05 -7.77378e-06)
(1.06753 -4.11165e-06 1.45235e-05)
(1.06755 -1.05724e-06 3.30316e-06)
(1.06756 1.37798e-05 3.48647e-06)
(1.06753 -8.60241e-06 1.47291e-05)
(1.06756 2.56425e-05 -5.99707e-06)
(1.06754 -2.43495e-05 1.51153e-05)
(1.06754 2.51574e-05 1.24737e-06)
(1.06755 -1.75082e-05 4.1704e-06)
(1.06755 1.09241e-05 3.47746e-06)
(1.06753 6.02128e-06 4.87134e-06)
(1.06755 -1.06985e-05 -1.28329e-07)
(1.06756 4.616e-06 -2.18398e-07)
(1.06752 -5.536e-06 1.57929e-07)
(1.06756 5.66437e-06 2.60544e-06)
(1.06755 -5.85749e-06 -8.27982e-06)
(1.06753 2.68939e-06 6.91271e-06)
(1.06755 -2.00257e-06 -1.03958e-05)
(1.06755 -7.17077e-06 3.63795e-06)
(1.06755 9.4074e-06 -3.80344e-06)
(1.06754 -3.19015e-06 -9.58306e-06)
(1.06756 7.47622e-06 1.37013e-05)
(1.06754 -9.00562e-06 -2.13216e-05)
(1.06755 6.20192e-06 1.70858e-05)
(1.06756 1.21953e-06 -1.80225e-05)
(1.06754 -4.86518e-06 7.51699e-06)
(1.06756 1.3142e-05 -6.96877e-06)
(1.06754 -1.39116e-05 -5.722e-06)
(1.06756 1.18928e-05 5.73282e-07)
(1.06755 -3.97632e-06 -1.05683e-05)
(1.06754 1.03335e-05 4.87787e-06)
(1.06756 1.10696e-06 -1.86268e-05)
(1.06755 -2.0216e-06 1.2932e-05)
(1.06755 1.21308e-05 -1.46926e-05)
(1.06755 -1.33927e-07 4.5799e-06)
(1.06755 7.12862e-06 1.5665e-06)
(1.06754 6.33185e-06 -2.13464e-06)
(1.06754 -1.04178e-05 5.87188e-06)
(1.06755 1.39932e-05 6.42483e-06)
(1.06754 -9.89451e-06 1.37932e-05)
(1.06756 2.12362e-05 -2.45488e-06)
(1.06752 -9.43059e-06 1.62225e-05)
(1.06756 7.15676e-06 5.64978e-06)
(1.06756 4.18165e-06 8.45368e-06)
(1.06753 1.12807e-06 1.28812e-05)
(1.06756 1.90786e-05 2.62678e-06)
(1.06754 -1.72762e-05 1.14047e-05)
(1.06754 1.91301e-05 9.39993e-06)
(1.06755 -1.73922e-05 3.44591e-06)
(1.06756 1.87757e-05 5.70859e-06)
(1.06753 -6.40994e-06 7.77729e-06)
(1.06755 2.72533e-06 -3.18537e-06)
(1.06756 -8.84637e-06 5.47229e-06)
(1.06753 2.6183e-06 -4.61022e-06)
(1.06756 -8.97239e-07 5.64271e-06)
(1.06755 2.30528e-06 -1.27753e-05)
(1.06753 -2.51147e-06 1.00536e-05)
(1.06755 -3.98291e-06 -1.70978e-05)
(1.06755 9.52496e-07 8.049e-06)
(1.06755 3.38601e-06 -9.28563e-06)
(1.06754 2.94079e-06 -8.05978e-06)
(1.06756 9.2421e-06 1.32271e-05)
(1.06754 -1.47292e-05 -2.54951e-05)
(1.06756 1.31315e-05 2.08356e-05)
(1.06755 -2.29309e-06 -2.33593e-05)
(1.06754 1.91446e-07 1.12084e-05)
(1.06755 8.32041e-06 -1.27888e-05)
(1.06754 -1.14075e-05 -1.90674e-06)
(1.06756 1.30926e-05 -5.46966e-06)
(1.06755 -8.04334e-06 -7.08294e-06)
(1.06754 1.79521e-05 1.76243e-08)
(1.06755 -3.97586e-06 -1.48497e-05)
(1.06755 2.59992e-06 8.66049e-06)
(1.06755 9.67504e-06 -1.10891e-05)
(1.06754 3.65716e-06 6.22598e-06)
(1.06755 1.00076e-05 -2.44982e-06)
(1.06754 2.49838e-06 6.9445e-06)
(1.06755 -5.40762e-06 3.73292e-07)
(1.06755 1.31152e-05 1.47075e-05)
(1.06754 -7.48577e-06 1.16949e-05)
(1.06756 2.19597e-05 6.60037e-06)
(1.06752 -8.95434e-06 1.53357e-05)
(1.06756 7.25649e-06 1.1789e-05)
(1.06756 2.98486e-06 1.14253e-05)
(1.06753 6.42393e-06 1.5818e-05)
(1.06756 1.38115e-05 9.45718e-06)
(1.06754 -9.1985e-06 1.10529e-05)
(1.06754 6.69009e-06 1.69263e-05)
(1.06755 -9.29563e-06 3.19512e-06)
(1.06756 1.7043e-05 1.05396e-05)
(1.06752 -9.30328e-06 9.10588e-06)
(1.06755 4.26333e-06 -2.11135e-06)
(1.06756 -1.44216e-05 7.91334e-06)
(1.06753 7.7222e-06 -6.02599e-06)
(1.06756 -9.07791e-06 6.72261e-06)
(1.06755 1.56565e-05 -1.52152e-05)
(1.06753 -1.56427e-05 1.21816e-05)
(1.06756 1.76354e-06 -2.36731e-05)
(1.06756 1.49865e-06 1.30309e-05)
(1.06755 4.52971e-06 -1.74225e-05)
(1.06754 4.03807e-06 -4.95544e-06)
(1.06755 1.17868e-05 8.92258e-06)
(1.06754 -1.77248e-05 -2.48297e-05)
(1.06756 1.60368e-05 2.0187e-05)
(1.06755 -1.47567e-06 -2.57062e-05)
(1.06754 1.9257e-06 1.15513e-05)
(1.06755 2.29622e-06 -1.60819e-05)
(1.06754 -5.8535e-06 4.58927e-07)
(1.06756 7.57355e-06 -1.11022e-05)
(1.06755 -4.48134e-06 -2.69545e-06)
(1.06754 1.92886e-05 -7.08728e-06)
(1.06755 -7.43368e-06 -8.53766e-06)
(1.06755 7.17542e-06 2.48102e-06)
(1.06755 5.1348e-06 -3.66282e-06)
(1.06755 9.60173e-06 3.2465e-06)
(1.06755 9.02968e-06 1.27332e-06)
(1.06753 1.82654e-06 1.12252e-05)
(1.06755 -6.13593e-06 -1.58439e-07)
(1.06755 1.60308e-05 1.79824e-05)
(1.06754 -8.8817e-06 1.42458e-05)
(1.06756 2.69719e-05 1.39148e-05)
(1.06752 -1.00644e-05 1.65769e-05)
(1.06756 5.52182e-06 2.00875e-05)
(1.06756 5.62563e-06 1.33328e-05)
(1.06754 5.65264e-06 2.18121e-05)
(1.06755 1.48645e-05 1.50967e-05)
(1.06753 -7.75601e-06 1.46878e-05)
(1.06754 -3.32804e-06 2.35273e-05)
(1.06756 -1.90257e-06 6.62439e-06)
(1.06756 1.12577e-05 1.41512e-05)
(1.06752 -7.88631e-06 1.2542e-05)
(1.06754 -2.57146e-06 -3.19977e-07)
(1.06756 -1.17087e-05 1.04684e-05)
(1.06753 4.36585e-06 -5.70346e-06)
(1.06757 -1.19385e-05 6.00337e-06)
(1.06754 2.43772e-05 -1.60509e-05)
(1.06753 -2.6683e-05 1.22553e-05)
(1.06756 5.92156e-06 -2.89422e-05)
(1.06756 1.61737e-06 1.41247e-05)
(1.06755 9.29556e-06 -2.33994e-05)
(1.06755 -6.24104e-07 -3.31335e-06)
(1.06755 2.06178e-05 5.13553e-06)
(1.06754 -2.60185e-05 -2.33765e-05)
(1.06756 2.11959e-05 1.5305e-05)
(1.06755 -3.22657e-06 -2.37099e-05)
(1.06754 3.14802e-06 7.14983e-06)
(1.06755 -2.13166e-06 -1.48891e-05)
(1.06754 -3.21789e-06 -1.93969e-06)
(1.06756 2.49415e-06 -1.28055e-05)
(1.06756 3.88814e-07 -1.85102e-06)
(1.06754 1.43795e-05 -1.13752e-05)
(1.06755 -6.77737e-06 -2.63918e-06)
(1.06756 5.44534e-06 -3.67499e-06)
(1.06755 4.46972e-06 5.82968e-06)
(1.06755 1.21092e-05 -2.42812e-06)
(1.06755 1.11929e-05 9.92625e-06)
(1.06753 -3.31702e-07 1.06436e-05)
(1.06755 -8.52749e-06 7.17971e-06)
(1.06755 1.59035e-05 1.85445e-05)
(1.06754 -9.83186e-06 2.37704e-05)
(1.06756 3.29491e-05 1.78348e-05)
(1.06751 -1.56174e-05 2.38144e-05)
(1.06756 6.28602e-06 2.695e-05)
(1.06756 7.4122e-06 1.90886e-05)
(1.06754 3.64207e-06 2.8479e-05)
(1.06755 1.59797e-05 2.30507e-05)
(1.06753 -1.15697e-05 2.02811e-05)
(1.06754 -9.05591e-06 3.15341e-05)
(1.06756 -5.48749e-07 1.22489e-05)
(1.06756 7.54802e-06 1.69556e-05)
(1.06752 -7.9235e-06 2.03876e-05)
(1.06754 -1.19172e-05 6.71885e-07)
(1.06756 -8.08132e-06 1.596e-05)
(1.06753 -2.72963e-06 -5.73621e-06)
(1.06757 -1.14946e-05 5.47139e-06)
(1.06754 2.75017e-05 -1.60011e-05)
(1.06752 -3.2245e-05 1.12571e-05)
(1.06757 2.8687e-06 -3.21093e-05)
(1.06756 7.8227e-06 1.2223e-05)
(1.06755 8.88977e-06 -2.61162e-05)
(1.06755 -3.64616e-06 -6.48527e-06)
(1.06754 2.87118e-05 4.57037e-06)
(1.06754 -3.65398e-05 -2.3773e-05)
(1.06757 2.829e-05 1.19111e-05)
(1.06754 -8.74086e-06 -2.01885e-05)
(1.06754 6.95649e-06 1.20494e-06)
(1.06755 -1.1496e-05 -1.01216e-05)
(1.06754 5.1724e-08 -7.58934e-06)
(1.06756 -3.4535e-06 -1.02075e-05)
(1.06756 4.05606e-06 -4.85694e-06)
(1.06754 9.35538e-06 -1.06445e-05)
(1.06754 -6.17681e-06 7.28352e-08)
(1.06756 1.04539e-06 -5.02647e-06)
(1.06755 7.05246e-06 1.36341e-05)
(1.06755 8.94731e-06 -5.54279e-06)
(1.06755 1.68059e-05 2.15778e-05)
(1.06753 -8.26412e-06 9.49972e-06)
(1.06756 -5.93424e-06 1.9433e-05)
(1.06755 1.06673e-05 2.02404e-05)
(1.06755 -5.83123e-06 3.72615e-05)
(1.06756 3.37928e-05 2.09543e-05)
(1.06751 -1.86472e-05 3.80933e-05)
(1.06757 4.50464e-06 3.21473e-05)
(1.06756 8.89712e-06 3.0486e-05)
(1.06754 8.8252e-08 3.41636e-05)
(1.06755 1.72796e-05 3.58481e-05)
(1.06752 -1.8523e-05 2.74644e-05)
(1.06754 -1.5411e-05 4.3753e-05)
(1.06756 -2.78046e-06 1.91975e-05)
(1.06755 4.48743e-06 2.17869e-05)
(1.06751 -1.30188e-05 3.15928e-05)
(1.06754 -2.24444e-05 2.10362e-06)
(1.06756 -7.2304e-06 2.436e-05)
(1.06753 -9.81347e-06 -6.14781e-06)
(1.06758 -1.30549e-05 7.5658e-06)
(1.06754 2.85916e-05 -1.6887e-05)
(1.06752 -3.71246e-05 1.14445e-05)
(1.06757 -5.0332e-06 -3.58063e-05)
(1.06756 1.67816e-05 7.997e-06)
(1.06754 2.87162e-06 -2.63029e-05)
(1.06755 -2.88699e-06 -1.17898e-05)
(1.06754 3.00297e-05 8.67357e-06)
(1.06754 -4.53354e-05 -2.80711e-05)
(1.06757 3.04743e-05 1.12532e-05)
(1.06754 -1.44816e-05 -1.93204e-05)
(1.06754 6.92906e-06 -3.68924e-06)
(1.06755 -2.28072e-05 -4.24487e-06)
(1.06754 1.97043e-06 -1.41638e-05)
(1.06756 -1.32851e-05 -5.39597e-06)
(1.06756 7.49735e-06 -1.00094e-05)
(1.06753 1.18847e-06 -5.11742e-06)
(1.06754 -6.41253e-06 1.12351e-08)
(1.06756 -6.00793e-06 -1.28721e-06)
(1.06755 8.7999e-06 1.91728e-05)
(1.06755 4.37072e-06 -3.82863e-06)
(1.06754 2.29202e-05 3.28944e-05)
(1.06752 -1.93876e-05 1.18668e-05)
(1.06756 -9.30563e-07 3.36833e-05)
(1.06754 4.16918e-06 2.68971e-05)
(1.06754 -1.08137e-06 5.28576e-05)
(1.06755 2.92685e-05 2.64571e-05)
(1.0675 -1.72501e-05 5.65231e-05)
(1.06756 -4.19293e-06 3.92676e-05)
(1.06755 1.36234e-05 4.8706e-05)
(1.06753 -9.17225e-06 4.00015e-05)
(1.06754 1.84589e-05 5.52888e-05)
(1.06751 -3.05567e-05 3.47696e-05)
(1.06754 -2.07483e-05 6.19307e-05)
(1.06756 -1.08846e-05 2.77525e-05)
(1.06755 8.42077e-07 3.04133e-05)
(1.0675 -2.28267e-05 4.57602e-05)
(1.06754 -3.45887e-05 7.67543e-06)
(1.06756 -1.16633e-05 3.61235e-05)
(1.06752 -1.73525e-05 -5.45689e-06)
(1.06757 -1.9353e-05 1.11555e-05)
(1.06753 2.8957e-05 -1.76211e-05)
(1.0675 -4.43365e-05 1.41488e-05)
(1.06757 -1.54201e-05 -3.89051e-05)
(1.06755 2.50942e-05 3.82628e-06)
(1.06753 -6.54343e-06 -2.55653e-05)
(1.06755 -2.42703e-06 -1.97159e-05)
(1.06752 2.69796e-05 1.64829e-05)
(1.06753 -5.27417e-05 -3.32183e-05)
(1.06757 2.57792e-05 1.49657e-05)
(1.06753 -1.81666e-05 -1.97948e-05)
(1.06753 -5.57132e-07 -5.82057e-06)
(1.06754 -3.29467e-05 1.13728e-06)
(1.06754 -3.6744e-06 -1.80949e-05)
(1.06756 -2.25579e-05 8.17872e-07)
(1.06755 6.4206e-06 -1.42255e-05)
(1.06752 -8.19048e-06 2.68789e-06)
(1.06753 -7.83805e-06 -1.28054e-07)
(1.06755 -1.68845e-05 7.69208e-06)
(1.06755 9.37662e-06 2.43252e-05)
(1.06754 -3.26193e-06 3.19224e-06)
(1.06753 2.75969e-05 4.49685e-05)
(1.06751 -3.13993e-05 1.97671e-05)
(1.06756 4.30388e-06 4.97113e-05)
(1.06736 -3.13338e-06 4.21669e-05)
(1.06737 4.17984e-07 6.87711e-05)
(1.06737 2.28595e-05 3.34861e-05)
(1.06732 -1.60656e-05 8.16172e-05)
(1.06739 -1.64739e-05 5.58924e-05)
(1.06738 1.8414e-05 7.52158e-05)
(1.06735 -2.67474e-05 4.60804e-05)
(1.06737 2.12597e-05 7.88734e-05)
(1.06732 -5.14834e-05 4.84123e-05)
(1.06737 -2.39803e-05 9.329e-05)
(1.06738 -2.55747e-05 4.16662e-05)
(1.06737 -6.32345e-06 4.18814e-05)
(1.06732 -4.03783e-05 6.09448e-05)
(1.06736 -4.79673e-05 2.03109e-05)
(1.06738 -2.00393e-05 5.55517e-05)
(1.06734 -2.50719e-05 2.28433e-06)
(1.0674 -3.25176e-05 1.40917e-05)
(1.06734 2.62717e-05 -1.9689e-05)
(1.06731 -5.68586e-05 2.04619e-05)
(1.0674 -2.71002e-05 -3.66346e-05)
(1.06737 2.82644e-05 3.34642e-07)
(1.06735 -2.01889e-05 -2.54564e-05)
(1.06736 -6.70404e-06 -3.23215e-05)
(1.06734 1.98218e-05 3.0047e-05)
(1.06734 -6.45871e-05 -3.47391e-05)
(1.06739 1.53533e-05 2.39615e-05)
(1.06734 -2.53381e-05 -2.57515e-05)
(1.06735 -1.64718e-05 -8.08815e-06)
(1.06735 -4.1636e-05 8.7245e-06)
(1.06735 -1.7366e-05 -1.47171e-05)
(1.06737 -3.02494e-05 9.54745e-06)
(1.06738 -4.2054e-06 -1.95018e-05)
(1.06734 -1.78486e-05 1.02441e-05)
(1.06735 -1.54288e-05 3.36177e-06)
(1.06737 -2.85576e-05 2.59894e-05)
(1.06737 6.37385e-06 3.53416e-05)
(1.06736 -1.34273e-05 1.30275e-05)
(1.06735 2.87869e-05 5.67904e-05)
(1.06732 -4.41131e-05 3.54542e-05)
(1.06738 7.27984e-06 7.43949e-05)
(1.06491 -1.14059e-05 7.26915e-05)
(1.06498 -4.20072e-06 6.34469e-05)
(1.0649 1.4895e-05 3.08877e-05)
(1.06497 -2.01516e-05 0.00013306)
(1.06492 -3.09394e-05 0.000112861)
(1.06506 1.92712e-05 0.000115961)
(1.06488 -5.16427e-05 3.30252e-05)
(1.06505 2.07716e-05 9.75953e-05)
(1.06484 -8.2308e-05 8.83551e-05)
(1.06502 -2.81049e-05 0.000170961)
(1.06491 -5.40687e-05 6.42563e-05)
(1.06499 -1.51583e-05 3.69535e-05)
(1.06484 -6.80717e-05 6.78308e-05)
(1.06492 -6.54993e-05 6.22221e-05)
(1.06487 -3.78972e-05 0.000110764)
(1.0649 -3.74785e-05 2.01906e-05)
(1.06491 -5.53777e-05 -9.12136e-06)
(1.06489 2.01343e-05 -3.57708e-05)
(1.06481 -7.71584e-05 4.98901e-05)
(1.06495 -4.57292e-05 -5.55413e-06)
(1.06485 2.40624e-05 -7.62564e-06)
(1.06491 -3.91704e-05 -5.53696e-05)
(1.06481 -1.99403e-05 -6.6563e-05)
(1.06488 9.26495e-06 6.4379e-05)
(1.06477 -8.68468e-05 -5.25221e-06)
(1.06491 9.82804e-08 3.4988e-05)
(1.06479 -4.27404e-05 -6.50637e-05)
(1.06483 -4.04279e-05 -2.72414e-05)
(1.06481 -5.63391e-05 3.55466e-05)
(1.06484 -4.24353e-05 2.20269e-05)
(1.06484 -4.25889e-05 2.03934e-05)
(1.0649 -2.61212e-05 -4.79429e-05)
(1.06482 -2.91805e-05 6.32955e-06)
(1.0649 -3.26106e-05 3.01433e-05)
(1.06487 -4.14069e-05 8.93473e-05)
(1.06493 -6.71433e-06 6.2868e-05)
(1.06488 -2.74391e-05 1.04042e-05)
(1.06489 2.25656e-05 6.33922e-05)
(1.06485 -5.79943e-05 8.39747e-05)
(1.06494 5.36212e-06 0.00014256)
(1.05058 -3.13891e-05 4.49027e-05)
(1.05077 -1.94082e-05 -6.80285e-06)
(1.05054 -5.31715e-06 6.21147e-05)
(1.0509 -3.09791e-05 0.000255029)
(1.05053 -5.06e-05 0.00019977)
(1.05107 6.17231e-06 9.97683e-05)
(1.05046 -8.36242e-05 -3.04349e-05)
(1.05104 9.47229e-06 0.000156225)
(1.05039 -0.000113249 0.000199046)
(1.05091 -3.81789e-05 0.00027827)
(1.05044 -9.31664e-05 1.00193e-05)
(1.05078 -3.56003e-05 -1.5908e-05)
(1.05032 -0.000102268 9.8081e-05)
(1.05061 -8.40879e-05 0.000168266)
(1.05032 -6.49901e-05 0.000168136)
(1.05058 -6.02007e-05 -3.53318e-05)
(1.05035 -9.30365e-05 -0.000116952)
(1.05048 1.66823e-06 -4.33806e-05)
(1.05028 -0.000104552 0.000130291)
(1.05049 -7.05979e-05 -4.88521e-06)
(1.05025 -7.43209e-07 -9.76664e-05)
(1.0505 -6.7822e-05 -0.00016991)
(1.05008 -4.71719e-05 -9.06121e-05)
(1.05048 -1.09872e-05 0.000155936)
(1.05004 -0.000118309 2.02837e-05)
(1.05044 -2.89425e-05 -3.71239e-05)
(1.05012 -7.79873e-05 -0.000186365)
(1.0503 -7.45788e-05 -2.25445e-05)
(1.05019 -8.03735e-05 0.000124821)
(1.05033 -7.78606e-05 7.3853e-05)
(1.05028 -7.0782e-05 -3.05319e-05)
(1.05048 -6.29413e-05 -0.000121601)
(1.05029 -5.51335e-05 4.56801e-05)
(1.05055 -5.70066e-05 0.000144644)
(1.05036 -5.99797e-05 0.000213719)
(1.05058 -3.58111e-05 4.71877e-05)
(1.05039 -5.03105e-05 -2.15409e-05)
(1.05054 1.48487e-06 0.00010525)
(1.05044 -7.00889e-05 0.000225146)
(1.05062 -6.77024e-06 0.000237853)
(1.01503 -5.43419e-05 -7.41803e-05)
(1.01523 -3.66216e-05 2.8092e-05)
(1.01502 -2.99404e-05 0.000214519)
(1.01549 -4.66307e-05 0.000305837)
(1.01491 -7.28056e-05 0.000135566)
(1.01567 -1.83911e-05 -1.8456e-06)
(1.01473 -0.000107481 2.90954e-05)
(1.01564 -1.10425e-05 0.000316088)
(1.01458 -0.00013245 0.000226224)
(1.01542 -5.84271e-05 0.000201471)
(1.01455 -0.000124957 -0.000141322)
(1.01517 -5.70156e-05 4.97314e-05)
(1.01443 -0.000126687 0.000202899)
(1.01496 -9.9297e-05 0.000170373)
(1.01439 -9.62093e-05 1.27839e-05)
(1.01491 -8.73897e-05 -0.000203365)
(1.01434 -0.000123569 -0.000168916)
(1.01476 -2.06497e-05 2.84111e-05)
(1.01437 -0.000127147 7.64749e-05)
(1.01463 -9.09379e-05 -0.000226881)
(1.01432 -3.42435e-05 -0.000239636)
(1.01466 -9.06658e-05 -0.000211602)
(1.0141 -7.31302e-05 -1.94698e-06)
(1.01477 -3.78914e-05 0.000161817)
(1.01401 -0.000143788 -0.000154626)
(1.01472 -6.2172e-05 -0.000178042)
(1.01416 -0.000109903 -0.000183531)
(1.01461 -0.000101005 0.000121188)
(1.01437 -0.000106456 0.000154037)
(1.01464 -0.000111039 -7.39241e-06)
(1.0145 -9.97778e-05 -0.000109174)
(1.01479 -9.27559e-05 -3.82507e-05)
(1.01452 -7.99318e-05 0.000227919)
(1.01492 -7.65227e-05 0.000245)
(1.01454 -8.35249e-05 0.000192213)
(1.01493 -6.55173e-05 -5.26489e-05)
(1.01459 -6.91127e-05 6.56823e-05)
(1.01499 -2.02384e-05 0.000236864)
(1.01478 -7.8324e-05 0.000306174)
(1.01509 -2.8226e-05 0.000127679)
(0.961823 -6.3947e-05 -4.72935e-06)
(0.962051 -4.91631e-05 0.000183262)
(0.961922 -4.43085e-05 0.000247719)
(0.962248 -5.74295e-05 0.000182958)
(0.961675 -8.94989e-05 5.74685e-05)
(0.962412 -3.77074e-05 3.74029e-05)
(0.961392 -0.000116329 0.000203208)
(0.962371 -2.88803e-05 0.000298281)
(0.961105 -0.000141951 6.38045e-05)
(0.962097 -7.73903e-05 7.91802e-05)
(0.961007 -0.000139133 -0.000147756)
(0.961838 -7.04194e-05 0.000197022)
(0.960935 -0.000137201 0.000108072)
(0.961603 -0.000109557 -5.45272e-05)
(0.96084 -0.000119527 -0.000195668)
(0.961542 -0.000102095 -0.000256456)
(0.960732 -0.000137121 -0.000147489)
(0.961434 -3.50512e-05 -4.14429e-05)
(0.960791 -0.000135546 -0.000206118)
(0.961177 -0.000103744 -0.000401934)
(0.960864 -5.71031e-05 -0.000196417)
(0.961234 -9.96449e-05 -0.000167014)
(0.960725 -8.79557e-05 1.28125e-05)
(0.961442 -5.67798e-05 -2.90679e-05)
(0.96059 -0.00015364 -0.000301773)
(0.961503 -8.2044e-05 -8.60471e-05)
(0.96078 -0.000122881 -2.23053e-05)
(0.961453 -0.000111327 0.000188114)
(0.96103 -0.000123036 4.10487e-05)
(0.961413 -0.00012536 -3.50687e-05)
(0.961172 -0.000112186 5.8222e-06)
(0.961513 -0.000105318 0.000169592)
(0.961203 -9.10843e-05 0.000285178)
(0.961607 -8.80793e-05 0.000155054)
(0.961142 -0.00010178 8.66733e-05)
(0.961682 -7.72294e-05 -1.88791e-05)
(0.961292 -7.56036e-05 0.000217546)
(0.961882 -3.15575e-05 0.000215787)
(0.961544 -8.19879e-05 0.000176932)
(0.961984 -4.60452e-05 -4.24658e-05)
(0.896355 -6.60253e-05 0.000159996)
(0.896649 -5.39197e-05 0.000206807)
(0.896484 -5.00802e-05 0.000169312)
(0.896665 -6.4611e-05 0.00011031)
(0.896199 -9.30623e-05 8.60581e-05)
(0.896774 -4.8645e-05 0.000109188)
(0.895832 -0.000115085 0.000226536)
(0.896698 -4.33633e-05 0.000110134)
(0.895431 -0.000143547 -3.86369e-05)
(0.896456 -8.88105e-05 3.51115e-05)
(0.895305 -0.00013972 -0.000119906)
(0.896248 -7.43151e-05 0.000159747)
(0.89523 -0.000136614 -0.000163563)
(0.895957 -0.00011358 -0.000231144)
(0.895123 -0.000129326 -0.000287875)
(0.895908 -0.000104823 -0.000274947)
(0.895001 -0.000139634 -0.000224128)
(0.895886 -4.33199e-05 -0.000223037)
(0.895047 -0.00013703 -0.000395586)
(0.89565 -0.00010534 -0.000346008)
(0.895291 -6.66131e-05 -0.000124004)
(0.895711 -9.76717e-05 -0.000184337)
(0.895266 -9.18307e-05 -3.08424e-05)
(0.895936 -6.53206e-05 -0.000146694)
(0.895147 -0.000147586 -0.000199371)
(0.896106 -8.6888e-05 0.000101176)
(0.895306 -0.000121106 5.37609e-05)
(0.896085 -0.000108556 0.000164715)
(0.895484 -0.000126983 6.89573e-06)
(0.895973 -0.000122853 8.02152e-05)
(0.895621 -0.00011333 0.000130748)
(0.896008 -0.000106841 0.000222426)
(0.895657 -9.36671e-05 0.00017056)
(0.896059 -9.52146e-05 5.80324e-05)
(0.895632 -0.000106307 6.06785e-05)
(0.896272 -7.48423e-05 5.34557e-05)
(0.895869 -7.27097e-05 0.000211646)
(0.89654 -3.487e-05 8.45316e-05)
(0.896095 -8.00116e-05 7.86365e-05)
(0.896634 -5.36634e-05 -4.05373e-05)
(0.822841 -6.2151e-05 0.000238328)
(0.823187 -5.21921e-05 0.000133273)
(0.822917 -5.24515e-05 0.00012935)
(0.823044 -6.4767e-05 9.73459e-05)
(0.822662 -8.70659e-05 0.000102098)
(0.823055 -5.37648e-05 9.02372e-05)
(0.822262 -0.000105965 0.0001257)
(0.822939 -5.23838e-05 -5.15576e-05)
(0.821821 -0.000134868 -5.88905e-05)
(0.822773 -9.0938e-05 -3.96327e-05)
(0.821672 -0.00013058 -0.000162959)
(0.82261 -7.18534e-05 -1.5201e-05)
(0.821551 -0.000130721 -0.000380277)
(0.822313 -0.000110492 -0.000287901)
(0.821484 -0.000128026 -0.000352084)
(0.822289 -0.000100411 -0.000325707)
(0.821399 -0.000133484 -0.000325359)
(0.822352 -4.77064e-05 -0.000325727)
(0.821445 -0.000129225 -0.000397951)
(0.822243 -9.47658e-05 -0.000218084)
(0.821792 -6.68869e-05 -0.000115577)
(0.822291 -8.65781e-05 -0.000173445)
(0.82187 -8.68834e-05 -9.46514e-06)
(0.822481 -6.40287e-05 -0.000110657)
(0.8218 -0.000130602 -3.22752e-06)
(0.822676 -8.28e-05 0.000192356)
(0.821869 -0.000110461 6.17763e-05)
(0.822645 -9.96585e-05 0.000164355)
(0.82194 -0.000121574 4.45465e-05)
(0.82251 -0.000112282 0.000160952)
(0.822067 -0.000108361 0.000124353)
(0.822504 -0.000101344 0.000152033)
(0.822132 -8.98305e-05 4.96642e-05)
(0.822562 -9.27837e-05 2.89751e-05)
(0.822215 -9.67427e-05 5.31254e-05)
(0.822875 -6.52421e-05 6.68753e-05)
(0.822474 -6.39456e-05 0.00013459)
(0.823142 -3.28752e-05 2.68956e-05)
(0.822643 -7.19867e-05 8.78649e-05)
(0.823223 -5.35866e-05 4.56135e-05)