/*--------------------------------*- C++ -*----------------------------------*\
  =========                 |
  \\      /  F ield         | OpenFOAM: The Open Source CFD Toolbox
   \\    /   O peration     | Website:  https://openfoam.org
    \\  /    A nd           | Version:  10
     \\/     M anipulation  |
\*---------------------------------------------------------------------------*/
FoamFile
{
    format      ascii;
    class       volVectorField;
    location    "9";
    object      U;
}
// * * * * * * * * * * * * * * * * * * * * * * * * * * * * * * * * * * * * * //

dimensions      [0 1 -1 0 0 0 0];

internalField   nonuniform List<vector> 
25600
(
(1.13913 -0.00698004 -0.00854194)
(1.13563 0.00826341 -0.0158139)
(1.12734 0.0173811 -0.0183038)
(1.11488 0.0170992 -0.0117059)
(1.10214 0.0106559 0.002095)
(1.09169 0.0112162 0.0137918)
(1.08854 0.0140408 0.0188407)
(1.10225 0.0119935 0.0171092)
(1.13253 0.0142121 0.0103846)
(1.16166 0.0127469 0.00526184)
(1.17206 0.00497808 0.00605165)
(1.16021 0.00198773 0.00910407)
(1.13308 0.000183011 0.0115676)
(1.10559 -3.49654e-05 0.0122696)
(1.10311 0.00122685 0.0132036)
(1.12104 -3.6603e-05 0.0163703)
(1.1434 -0.00531368 0.0178213)
(1.16313 -0.0129727 0.0154361)
(1.16427 -0.00939555 0.00838119)
(1.14342 0.00527817 -0.00122106)
(1.11973 0.0158528 -0.0108552)
(1.09376 0.0215173 -0.0199017)
(1.07412 0.0192643 -0.0221702)
(1.06692 0.00617616 -0.0152395)
(1.06872 -0.00100034 -0.00446285)
(1.07684 -0.00278358 0.00888367)
(1.0973 -0.00519491 0.0171163)
(1.12266 -0.00240252 0.0132612)
(1.14398 -0.000645021 0.00302222)
(1.15069 -0.000265745 -0.0146118)
(1.1465 0.00988959 -0.0264399)
(1.14681 0.0155779 -0.025612)
(1.15029 0.0106441 -0.0196747)
(1.15854 0.00149307 -0.011565)
(1.16488 -0.0149315 -0.00705379)
(1.1669 -0.025417 -0.00175941)
(1.16724 -0.032836 0.00379379)
(1.16023 -0.0388219 0.006389)
(1.15236 -0.0340123 0.00844175)
(1.1452 -0.0229023 0.00211043)
(1.08571 -0.00836399 -0.0366654)
(1.09961 -0.00412509 -0.0445877)
(1.10958 0.000518429 -0.0379675)
(1.11484 0.00692104 -0.0191391)
(1.11229 0.0114869 0.000618717)
(1.10498 0.00978707 0.00647106)
(1.09201 0.0025788 -0.000300494)
(1.09103 -0.011068 -0.0106296)
(1.107 -0.0229286 -0.015898)
(1.12015 -0.0269926 -0.00765028)
(1.12714 -0.0225529 0.0102251)
(1.12416 -0.0047698 0.0293746)
(1.11271 0.0102212 0.0462692)
(1.11212 0.0141916 0.0527279)
(1.13328 0.018266 0.0465115)
(1.15327 0.025312 0.0311826)
(1.15039 0.0292744 0.0134885)
(1.13224 0.0212045 -0.00145179)
(1.11168 0.00609385 -0.019227)
(1.09477 -0.0020946 -0.0407734)
(1.09944 0.00526779 -0.0588229)
(1.11283 0.0262335 -0.0700249)
(1.12304 0.0416326 -0.0667971)
(1.12657 0.033495 -0.0514325)
(1.11942 0.00308189 -0.0265875)
(1.10323 -0.0290968 0.00768374)
(1.10035 -0.0416431 0.0354943)
(1.10536 -0.0162256 0.0420571)
(1.10928 0.0275631 0.0267754)
(1.11351 0.0597638 -0.00151203)
(1.12254 0.0660953 -0.0231609)
(1.14296 0.04142 -0.0292366)
(1.16135 0.0076059 -0.0277228)
(1.16842 -0.0133978 -0.0265162)
(1.15392 -0.0246813 -0.030583)
(1.12566 -0.0207997 -0.0287292)
(1.09631 -0.0123698 -0.0168639)
(1.07345 -0.00946962 -0.00475843)
(1.06794 -0.00474977 -0.00169664)
(1.07297 -0.00662967 -0.016724)
(1.01098 -0.0273328 -0.0166892)
(1.02752 -0.0129502 -0.0132002)
(1.0285 -0.0106297 -0.0136166)
(1.02296 -0.0084754 -0.0143138)
(1.02268 -0.0104498 -0.0163279)
(1.02685 -0.0126288 -0.0188418)
(1.02434 -0.0173385 -0.0136175)
(1.02805 -0.0340406 -0.00324255)
(1.03576 -0.0474096 0.0089371)
(1.04228 -0.046497 0.0220215)
(1.05943 -0.0336367 0.0309411)
(1.07978 -0.0178645 0.0399571)
(1.09378 -0.0130302 0.045627)
(1.10101 -0.00383689 0.0400756)
(1.11292 0.0214063 0.0273602)
(1.1247 0.0442628 0.0104635)
(1.12384 0.0479461 -0.00199984)
(1.12192 0.0274006 -0.0103602)
(1.11047 0.000954324 -0.0261296)
(1.0868 -0.0130119 -0.045919)
(1.07678 -0.010038 -0.0626726)
(1.08386 -0.00146859 -0.0674797)
(1.10771 -0.00162216 -0.0567754)
(1.14234 -0.00939904 -0.0405593)
(1.14564 -0.0175971 -0.0262487)
(1.10868 -0.0180573 -0.0155289)
(1.06572 0.00052415 -0.00729999)
(1.05061 0.0244399 0.000160489)
(1.07421 0.0342447 0.00624891)
(1.13363 0.026241 0.0143627)
(1.17999 0.0117601 0.025114)
(1.17302 0.00825016 0.0262491)
(1.12463 0.0139854 0.00727158)
(1.0588 0.0117613 -0.0230195)
(1.00633 -0.0013933 -0.045781)
(0.97298 -0.0105109 -0.0513734)
(0.951643 -0.0219462 -0.0423455)
(0.948544 -0.0338637 -0.0309924)
(0.963372 -0.0362979 -0.0237191)
(0.984877 -0.038715 -0.020362)
(0.959195 -0.0201422 -0.00252854)
(0.960672 -0.00875825 0.00656053)
(0.972574 -0.0119746 0.000190668)
(1.00205 -0.0155127 -0.0200579)
(1.03098 -0.0218152 -0.0398972)
(1.05542 -0.0211259 -0.0363128)
(1.05801 -0.0197415 0.000242212)
(1.04809 -0.034959 0.0461844)
(1.04785 -0.064179 0.0701695)
(1.05589 -0.0855566 0.0609069)
(1.07689 -0.0770772 0.0335671)
(1.09665 -0.0372006 0.0143169)
(1.0962 0.00666181 0.00627103)
(1.10069 0.0275423 0.00675821)
(1.12146 0.0291812 0.011991)
(1.13278 0.0198589 0.00814095)
(1.12593 0.00770221 -0.0096199)
(1.10339 0.00410744 -0.0380815)
(1.07732 0.00419513 -0.0622601)
(1.06063 0.00686881 -0.061807)
(1.06269 0.0187999 -0.0418876)
(1.07516 0.0190326 -0.0223253)
(1.07364 0.0110672 -0.0218386)
(1.06554 0.0106455 -0.0370773)
(1.05133 0.00281128 -0.0472085)
(1.0409 -0.00620399 -0.0367491)
(1.05917 -0.0114633 -0.00830755)
(1.0912 -0.0221812 0.0234602)
(1.11589 -0.0203143 0.0456239)
(1.1332 0.00542461 0.0492415)
(1.11352 0.0382881 0.0339597)
(1.06921 0.0524157 0.00910924)
(1.03269 0.038793 -0.00775023)
(1.0054 0.00521181 -0.00754651)
(0.998193 -0.0227298 -0.00812001)
(0.993356 -0.0325117 -0.0179168)
(0.974757 -0.0416527 -0.028481)
(0.966289 -0.0448625 -0.0335308)
(0.961938 -0.0441335 -0.0285316)
(0.953984 -0.0406126 -0.0176397)
(0.980403 -0.0272192 -0.0472799)
(0.994699 -0.0337889 -0.0415015)
(1.01277 -0.0558306 -0.045127)
(1.02066 -0.0716073 -0.0514975)
(1.0254 -0.0744103 -0.0424739)
(1.0558 -0.0455466 0.00257733)
(1.07213 -0.0140277 0.0667985)
(1.07488 -0.0123947 0.101165)
(1.08607 -0.0259696 0.0817267)
(1.08491 -0.0332211 0.0302914)
(1.0817 -0.0347366 -0.0111037)
(1.08029 -0.0292097 -0.0248735)
(1.08161 -0.0252132 -0.0271435)
(1.10152 -0.0215741 -0.0257365)
(1.11412 0.000657225 -0.0250117)
(1.09537 0.0244078 -0.0329214)
(1.05557 0.0333359 -0.0406554)
(1.02352 0.0294161 -0.0372504)
(1.01551 0.0114922 -0.0238539)
(1.02831 -0.0077415 -0.0105119)
(1.06944 -0.0171182 -0.00154653)
(1.10464 -0.0219753 0.000129346)
(1.09909 -0.0106728 -0.0106951)
(1.07983 0.00773742 -0.0199236)
(1.05921 0.00110489 -0.0177304)
(1.04952 -0.0104705 -0.0109908)
(1.0667 -0.00566919 -0.00484791)
(1.08099 0.00774908 0.00254303)
(1.07968 0.0281948 0.0153219)
(1.05033 0.0490895 0.0239045)
(0.995832 0.0518559 0.0195197)
(0.95524 0.0369895 0.00954485)
(0.947983 0.0233991 0.019708)
(0.962348 0.018515 0.0499405)
(1.00231 0.0242404 0.0587111)
(1.0415 0.0204621 0.0273863)
(1.04591 -0.0163335 -0.0145019)
(1.02409 -0.0425939 -0.0360436)
(0.986883 -0.0457075 -0.0440741)
(0.967934 -0.0413417 -0.0501976)
(1.01843 -0.047983 -0.0178354)
(1.02333 -0.0361221 0.0257852)
(1.02656 -0.021874 0.0186891)
(1.01481 -0.035787 -0.0289287)
(0.991315 -0.0762106 -0.0543956)
(1.00533 -0.0885975 -0.0140772)
(1.01958 -0.0631763 0.0461434)
(1.02739 -0.0291868 0.0601972)
(1.03876 -0.0246755 0.0233052)
(1.03 -0.0456726 -0.0381671)
(1.03889 -0.0614138 -0.0669581)
(1.04782 -0.0445799 -0.0564282)
(1.03552 -0.00955805 -0.0368601)
(1.04576 0.015106 -0.00694638)
(1.07832 0.0251813 -0.0024676)
(1.08524 0.0165169 -0.0353895)
(1.0427 0.000140097 -0.0688121)
(1.01027 -0.0101881 -0.0713544)
(1.01667 -0.010526 -0.0358362)
(1.04956 -0.0116046 0.00412545)
(1.08849 -0.018975 0.0207208)
(1.09639 -0.021084 0.0218664)
(1.08856 -0.010064 0.0167948)
(1.0802 -0.000122703 0.0148524)
(1.07489 -0.00146212 0.00892893)
(1.0678 -0.000451009 -0.0211247)
(1.05392 -0.00969156 -0.0607186)
(1.0515 -0.0273584 -0.0741429)
(1.07431 -0.0137575 -0.0443736)
(1.08394 0.0246908 0.000522692)
(1.066 0.0455395 0.0242243)
(1.04749 0.0250038 0.0108491)
(1.04501 -0.0117849 -0.0137472)
(1.05349 -0.0372 -0.00652117)
(1.09912 -0.0249229 0.0215531)
(1.16453 0.00670194 0.0312891)
(1.17782 0.00290979 0.00870832)
(1.12477 -0.0223044 -0.0399177)
(1.04708 -0.0510781 -0.0700519)
(1.01002 -0.0605979 -0.0598534)
(0.986273 -0.0338194 0.028819)
(1.00836 -0.0266383 0.077973)
(1.02395 -0.0476993 0.0385104)
(1.01671 -0.0906103 -0.029591)
(0.973272 -0.117096 -0.0299194)
(0.939585 -0.0943869 0.0339548)
(0.923441 -0.0596039 0.06971)
(0.970327 -0.0289303 0.0277159)
(1.01856 -0.0062857 -0.0567114)
(1.01834 -0.00949689 -0.0997741)
(1.01638 -0.00809089 -0.0641768)
(0.988981 0.0177972 -0.0264554)
(0.96368 0.0103367 -0.0033832)
(0.979763 -0.0342541 0.0261644)
(1.02617 -0.0400635 0.033096)
(1.04875 0.00425717 0.00690893)
(1.02825 0.0337684 -0.0317967)
(1.02176 0.0170587 -0.0407885)
(1.0307 -0.0121885 -0.0216321)
(1.04753 -0.0235801 0.000221744)
(1.04444 -0.0342035 0.0130222)
(1.01866 -0.0384624 0.0154851)
(1.01674 -0.00978407 -0.00431929)
(1.0064 0.0192694 -0.039594)
(1.00113 0.0202302 -0.053867)
(1.03091 0.00652892 -0.0477091)
(1.06677 -0.028523 -0.028826)
(1.09046 -0.0548447 0.00666257)
(1.09301 -0.0272064 0.0482006)
(1.08742 0.0415847 0.0652898)
(1.11104 0.0711371 0.04483)
(1.13322 0.0281021 0.020355)
(1.12046 -0.0187521 0.0141668)
(1.08671 -0.0406425 0.0107967)
(1.10578 -0.017553 -0.00913479)
(1.20235 0.00503019 -0.022446)
(1.22961 -0.0429569 -0.0197467)
(1.11294 -0.0929699 -0.0515871)
(0.975901 -0.0982876 -0.0874753)
(0.947619 -0.0680247 -0.0553061)
(0.927227 -0.0238676 0.0218729)
(0.951359 -0.00585373 0.00565549)
(0.94684 -0.00439172 -0.0593537)
(0.908869 -0.0237314 -0.0901285)
(0.856698 -0.0773302 -0.0485823)
(0.835834 -0.0920993 0.0116341)
(0.838892 -0.0718232 0.0207273)
(0.901417 -0.0249353 -0.0186398)
(0.954894 0.0248186 -0.065204)
(0.972129 0.0387561 -0.0550103)
(1.00482 0.0259845 -0.0163196)
(1.05245 -0.000122519 0.00598724)
(1.04822 -0.0261877 0.0242632)
(0.97254 -0.0304164 0.0156296)
(0.938547 -0.012196 0.00629019)
(1.00073 -0.0035237 0.00546312)
(1.11653 -0.00118546 0.00846906)
(1.19161 -0.010145 0.0235195)
(1.15384 0.00468781 0.0115589)
(1.04415 0.0375033 0.000753239)
(0.944614 0.0299735 0.00699126)
(0.913335 -0.0114636 -0.0047477)
(0.96108 -0.0254801 -0.0460683)
(0.990175 -0.0202486 -0.0988482)
(0.986278 0.00360402 -0.110888)
(1.01545 0.0206699 -0.0509686)
(1.0527 -0.00844667 0.0547609)
(1.07571 -0.0318919 0.11644)
(1.10024 -0.00536745 0.08459)
(1.11268 0.0396286 0.00946454)
(1.11726 0.0526294 -0.0395133)
(1.11989 0.0225622 -0.0255234)
(1.13834 -0.0138707 0.0436072)
(1.11698 -0.0318007 0.0883764)
(1.14407 -0.00907287 0.03982)
(1.21393 0.0021755 -0.0363557)
(1.15623 -0.019927 -0.0611197)
(1.0098 -0.0649411 -0.0484142)
(0.874826 -0.102938 -0.0435649)
(0.859634 -0.076367 -0.0204757)
(1.12367 -0.031103 -0.0209199)
(1.07265 -0.0118787 -0.0937534)
(0.857302 -0.00892502 -0.100749)
(0.737596 -0.0554182 -0.0297567)
(0.735344 -0.107087 0.0364936)
(0.792758 -0.1152 0.0435405)
(0.847304 -0.125549 -0.0100658)
(0.953547 -0.0968596 -0.0737162)
(0.982484 0.00408241 -0.0962212)
(0.878012 0.0599599 -0.0772727)
(0.859397 0.0154336 -0.030895)
(0.917844 -0.00994744 0.0434458)
(0.95119 0.00424427 0.0608491)
(0.991488 -0.0228306 0.0141658)
(1.00534 -0.0766733 -0.0256588)
(0.989478 -0.065909 -0.0398149)
(0.978242 -0.0152232 -0.0298323)
(0.965114 0.0125949 -0.0146619)
(0.98529 0.0514303 -0.0352569)
(0.999353 0.0724005 -0.0587357)
(1.00053 0.02182 -0.0724984)
(0.983407 -0.0540061 -0.0805972)
(0.971549 -0.0983258 -0.0864679)
(0.967959 -0.106903 -0.0959082)
(0.929351 -0.0711167 -0.0833532)
(0.91748 -0.0078475 -0.0216955)
(0.953447 0.01719 0.0644801)
(0.977892 0.00840907 0.0965715)
(1.01633 0.0317538 0.064747)
(1.04312 0.0778818 0.00457447)
(1.03745 0.0934018 -0.0645905)
(1.10977 0.0460253 -0.0720165)
(1.20137 -0.00938274 0.0141868)
(1.18145 -0.0673439 0.0799084)
(1.23523 -0.0765642 0.0228227)
(1.20684 -0.0129332 -0.0554945)
(0.973395 0.00412222 -0.0437565)
(0.822443 -0.0466188 0.0133847)
(0.809206 -0.0791402 0.0269273)
(0.948697 -0.0657169 0.014341)
(1.15009 -0.0493717 0.00148204)
(0.9496 0.0415988 -0.0460414)
(0.831274 0.0116954 -0.0290232)
(0.845261 -0.132051 0.0305308)
(0.790428 -0.208498 0.0470268)
(0.769782 -0.165964 0.0112961)
(0.788109 -0.0883881 -0.0322978)
(0.869761 -0.0117477 -0.0508663)
(0.920973 0.0443153 -0.0307467)
(0.866075 0.0214549 -0.0552489)
(0.801399 -0.0212414 -0.0632291)
(0.778745 -0.0300656 -0.0308778)
(0.908835 -0.0191414 0.0257884)
(1.04728 -0.0504569 0.0807323)
(0.994198 -0.0687448 0.00743806)
(0.92035 -0.032972 -0.0990964)
(0.911792 0.00241227 -0.102893)
(0.927595 -0.0151481 -0.0370953)
(1.00935 -0.0234626 -0.0159371)
(1.08349 0.0248608 -0.0454228)
(1.1283 0.027432 -0.0767337)
(1.11602 -0.0420758 -0.0633023)
(1.03465 -0.0994933 -0.0409155)
(0.898454 -0.0710023 -0.0920268)
(0.842555 0.0243593 -0.112698)
(0.962355 0.0583589 -0.0228176)
(0.979048 -0.00319092 0.0428409)
(0.925338 -0.0100429 0.0544381)
(0.978002 0.0506169 0.0707491)
(0.984445 0.0833149 0.0278373)
(0.995093 0.0338414 -0.0196091)
(1.09225 -0.0338091 0.0602456)
(1.12117 -0.025228 0.155428)
(1.06948 -0.0155346 0.110856)
(1.08261 -0.000691241 -0.0173836)
(0.998543 0.0588062 -0.0657467)
(0.88559 0.0496572 -0.0131204)
(0.826526 -0.0649274 0.0333542)
(0.883024 -0.172661 0.0294514)
(1.10865 -0.16096 0.0252795)
(0.961838 -0.0221412 -0.0282529)
(0.891797 0.054628 -0.0617624)
(0.982353 -0.002637 -0.0790858)
(1.01159 -0.105504 -0.0772289)
(0.886585 -0.139989 -0.0788218)
(0.799222 -0.118002 -0.0391754)
(0.814443 -0.106854 0.0189818)
(0.941389 -0.0440786 0.0581636)
(0.976609 0.0241156 0.062009)
(0.839476 0.0443374 -0.0139489)
(0.73751 0.00691233 -0.0596635)
(0.82433 -0.0472278 0.00561025)
(1.00878 -0.0454231 0.118419)
(1.08225 -0.0354034 0.156857)
(0.991985 -0.0801282 0.0876093)
(0.927884 -0.0897916 -0.00974217)
(0.984374 -0.0307596 -0.0268292)
(1.02497 -0.0276605 -0.0302017)
(0.981581 -0.0311199 -0.068822)
(0.997962 0.00358045 -0.080155)
(1.09682 0.0115011 -0.0656868)
(1.09199 -0.0120902 -0.0436247)
(0.989667 -0.0450316 -0.0386046)
(0.808181 -0.0626638 -0.0728275)
(0.884824 -0.0382638 -0.0259765)
(1.12488 -0.00129334 0.0790349)
(1.00441 -0.00460918 0.0811628)
(0.905178 -0.0641921 0.0631758)
(1.01533 -0.031929 0.00228782)
(1.01667 0.0416746 -0.0680198)
(1.01756 0.000634417 0.00481698)
(0.998561 -0.0354418 0.0896174)
(0.944637 -0.0182494 0.0781846)
(0.949483 -0.0439072 0.0198453)
(1.00333 0.00422981 -0.0780565)
(1.002 0.10262 -0.100884)
(1.04581 0.0863558 -0.0280146)
(1.00799 -0.0156067 0.0482326)
(0.898394 -0.132546 0.0424201)
(0.947418 -0.156443 0.0019711)
(0.807559 -0.0337997 0.0326554)
(0.852761 -0.00701507 -0.00947877)
(0.921639 -0.0430471 -0.00589125)
(0.801938 -0.0986209 -0.00585006)
(0.780236 -0.130958 -0.0549412)
(0.84238 -0.158658 -0.0321861)
(0.833387 -0.141454 -0.0136593)
(0.937621 -0.0654918 0.0236075)
(0.885536 0.0421571 -8.81179e-05)
(0.671168 0.0627495 -0.0882309)
(0.708263 -0.0798809 -0.0886837)
(0.876107 -0.147888 -0.00571541)
(1.02103 -0.095084 0.075312)
(1.08128 -0.056808 0.104463)
(1.01902 -0.0830519 0.129447)
(1.0237 -0.0941412 0.0988733)
(1.16445 -0.0256534 0.0234716)
(1.00844 0.00476207 -0.0672901)
(0.832183 -0.041236 -0.0912965)
(0.939408 -0.0630525 -0.094468)
(1.10521 -0.0269024 -0.0858205)
(1.04716 0.0080772 -0.0817561)
(0.915951 0.00088618 -0.0921755)
(0.831835 -0.0516508 0.00476786)
(0.836248 -0.0630246 0.145073)
(0.891409 0.0352886 0.144145)
(0.868412 0.0192773 0.0449277)
(0.820663 -0.0504818 0.0629544)
(0.86702 0.012978 0.0468126)
(0.929294 0.0446938 -0.0461328)
(1.00916 -0.0323937 -0.0133558)
(1.00064 -0.0455008 0.0219542)
(0.939548 -0.0314499 0.0439758)
(0.852711 -0.0311282 0.0131198)
(0.876958 0.00488524 -0.0850606)
(1.02568 0.0427877 -0.118167)
(1.09757 0.0439144 -0.067801)
(1.09069 0.0233374 -0.00325045)
(0.981635 -0.0258685 0.049685)
(0.86386 -0.0625212 0.0482142)
(0.753934 -0.00969169 -0.0569344)
(0.939259 0.0081791 -0.0653107)
(0.929124 -0.00984419 0.0231406)
(0.630396 -0.093332 0.0524823)
(0.553028 -0.13713 0.00115714)
(0.624833 -0.110103 -0.0365623)
(0.646634 -0.0983242 -0.0958131)
(0.854564 -0.0469531 -0.0600652)
(0.849335 0.110336 -0.07465)
(0.73704 0.072792 -0.124263)
(0.861354 -0.111231 -0.098458)
(0.888192 -0.215788 -0.0218506)
(0.852221 -0.118719 0.0590798)
(0.93094 -0.0308945 0.132089)
(1.00756 -0.0424725 0.116093)
(1.03132 -0.0753026 0.043993)
(1.08324 0.00639047 -0.0360438)
(0.938563 0.0139171 -0.137276)
(0.829072 -0.107378 -0.100445)
(0.827142 -0.122695 -0.0493011)
(0.964477 -0.0212065 -0.0302661)
(0.95933 0.0487506 -0.0697415)
(0.954189 -0.0154573 -0.106207)
(0.933335 -0.102892 0.0432536)
(0.713641 -0.0579796 0.117944)
(0.836339 0.0286546 0.0830091)
(0.874621 0.00824682 0.00868293)
(0.762901 -0.0347405 -0.0237019)
(0.934538 -0.0294914 -0.00395407)
(1.03304 -0.00592091 -0.0470192)
(1.0072 -0.0292533 -0.0410641)
(1.00555 -0.0283475 0.0345708)
(0.930295 0.0156012 0.0500952)
(0.816833 0.0272349 -0.0649425)
(0.834064 -0.0106226 -0.12103)
(1.01143 -0.00582796 -0.0241187)
(0.967243 0.0399415 0.00940959)
(0.966732 0.000669956 0.000915168)
(0.964437 -0.0941327 0.0522683)
(0.804907 -0.0859017 0.0141676)
(0.941361 -0.0506566 -0.0432474)
(1.16717 0.00380925 -0.129831)
(0.845553 0.0451037 -0.0281373)
(0.589363 -0.0955559 0.0154692)
(0.447097 -0.186598 0.0536524)
(0.660225 -0.173132 0.0170017)
(0.730698 -0.13785 -0.0776149)
(0.779593 -0.00893302 -0.0683587)
(0.755098 0.099084 -0.0505044)
(0.771545 0.0692253 -0.0785596)
(0.96655 -0.0475986 -0.0528074)
(0.926932 -0.124412 0.017676)
(0.828929 -0.122535 0.207523)
(0.999886 -0.086926 0.25723)
(1.06383 -0.0506341 0.0366587)
(0.896351 -0.049182 -0.0976369)
(0.889861 0.0422838 -0.13718)
(0.856091 0.0581833 -0.17996)
(0.887872 -0.0781172 -0.103671)
(0.886501 -0.150794 -0.0251506)
(0.945226 -0.0744888 -0.0267425)
(1.02671 0.00536152 -0.037334)
(1.11417 -0.00235905 -0.043816)
(0.946505 -0.0226675 0.0214085)
(0.846722 -0.0183344 0.096817)
(1.02466 -0.000502179 0.0860032)
(0.892873 -0.000576741 -0.048974)
(0.789982 -0.0630176 -0.0509503)
(0.897082 -0.046367 0.00579609)
(0.902571 0.0225133 -0.0664239)
(0.889522 0.0176425 -0.11489)
(0.942732 -0.00314638 -0.0877385)
(0.899173 0.0424429 -0.0955743)
(0.919895 0.0403891 -0.141562)
(0.866692 -0.00440807 -0.0403721)
(0.72498 0.0464173 0.155039)
(0.776268 0.0717275 0.104434)
(0.858216 0.00780183 -0.0059746)
(0.844296 -0.0227827 0.124074)
(0.746933 -0.0485417 0.152592)
(1.0832 -0.0328865 -0.0283304)
(0.954576 0.0656457 -0.0537591)
(0.80438 0.110984 -0.00867018)
(0.842198 -0.0339056 -0.0510295)
(0.609669 -0.165338 0.0444365)
(0.720979 -0.198199 0.0549474)
(0.766534 -0.119876 -0.126884)
(0.619956 0.0282495 -0.185173)
(0.688931 0.0937726 -0.125774)
(0.912687 0.0373113 -0.073128)
(0.968531 -0.0609734 0.0462922)
(0.836505 -0.114378 0.0842099)
(0.741603 -0.0812819 0.126214)
(1.01283 -0.00735366 0.132351)
(1.12433 -0.0186888 0.0391008)
(0.856706 -0.0514033 -0.059256)
(0.839045 0.0204808 -0.11345)
(0.961739 0.00662469 -0.119952)
(0.977592 -0.0948119 -0.038219)
(0.930541 -0.126606 -0.0391441)
(0.948094 -0.0528488 -0.0379924)
(0.925759 0.00284867 -0.0387583)
(0.993955 0.00434687 0.0126736)
(1.00148 -0.0140053 0.0764139)
(1.10129 -0.0667629 0.0750464)
(0.93637 0.0204079 0.00286554)
(0.805835 0.0125167 -0.107704)
(0.902157 -0.0924825 -0.0762698)
(0.754387 -0.0365091 0.0301684)
(0.727345 0.050558 -0.0165185)
(0.886364 -0.0531093 0.00847362)
(0.966314 -0.0792374 0.0421366)
(0.861321 -9.64532e-05 -0.0366984)
(0.926569 0.0733976 -0.159078)
(0.902274 0.0550636 -0.130353)
(0.763998 0.0662653 0.081395)
(0.965739 0.00658977 0.135146)
(0.90894 -0.10328 -0.0175534)
(0.822812 -0.0885731 0.0298613)
(0.868888 -0.0359461 0.0914563)
(1.00528 0.0190744 -0.00246166)
(0.786922 0.146255 0.0489963)
(0.843852 0.0940115 0.0330094)
(0.83615 -0.0590628 -0.0376755)
(0.610883 -0.140641 0.0085884)
(0.668756 -0.127075 0.044916)
(0.662948 -0.0105696 -0.112705)
(0.58601 0.0989081 -0.200383)
(0.798086 0.032957 -0.105534)
(0.886471 -0.0294888 -0.00895343)
(0.733259 -0.0370904 0.108689)
(0.656108 -0.0329029 0.0813034)
(0.666144 -0.0279766 0.0201433)
(0.90036 -0.00966298 -0.0476105)
(0.985665 -0.0136939 -0.116025)
(0.906072 -0.0388238 -0.0657289)
(1.08922 0.0030011 -0.0776552)
(1.01954 -0.0223304 -0.12688)
(0.829379 -0.12302 0.00584241)
(0.917207 -0.127611 0.032056)
(0.912675 -0.0293687 0.0250994)
(0.860307 0.0322446 -0.00154703)
(1.03819 0.0154843 0.0163276)
(1.09643 -0.0454374 0.0369965)
(0.933445 -0.045967 0.00600182)
(0.823512 0.0372781 -0.0862722)
(0.687253 0.00244071 -0.159075)
(0.877314 -0.0473674 -0.127263)
(0.910329 0.00450646 0.0755388)
(0.855812 0.00610173 0.017656)
(0.757181 -0.120778 0.0616091)
(0.962396 -0.0617615 0.177505)
(0.761338 0.0403932 0.0528873)
(0.95171 0.0251869 -0.0533421)
(0.878722 0.0370165 -0.0717657)
(0.792534 0.0706489 0.0404219)
(1.12021 0.01537 0.057611)
(0.937217 -0.026038 -0.00998487)
(0.741406 -0.0335693 -0.0129507)
(0.899691 -0.0441525 -0.00412325)
(0.903221 0.0464441 0.0414485)
(0.796214 0.128375 0.12214)
(0.931307 0.100021 0.0341941)
(0.835004 -0.0215311 -0.0295745)
(0.675217 -0.14293 0.026557)
(0.642812 -0.142062 0.0248788)
(0.610726 -0.0569119 -0.168186)
(0.739253 0.00597075 -0.192487)
(0.892114 0.00293613 -0.0886748)
(0.84998 0.0297242 -0.0241003)
(0.82866 0.0239502 0.126845)
(0.720215 0.0102162 0.073544)
(0.74219 -0.021153 0.0175608)
(0.790054 -0.0207886 -0.0363677)
(0.71921 -0.0630629 -0.107279)
(0.817708 -0.111948 -0.0330886)
(0.996801 -0.0149423 -0.0571202)
(0.774484 0.0237927 -0.149017)
(0.713485 -0.127671 -0.019152)
(0.877584 -0.126555 0.0223664)
(0.872517 -0.00595702 0.000861046)
(0.884662 0.0433539 0.0483884)
(1.07065 0.00633629 0.0649429)
(1.09408 -0.0236358 0.117142)
(0.860418 0.000148307 0.109365)
(0.880651 0.0201284 -0.10135)
(0.7034 -0.0247237 -0.10811)
(0.793209 -0.0933765 0.0364231)
(0.918782 0.00354588 0.125953)
(0.79417 0.0258197 0.0396921)
(0.619611 -0.105184 0.0580587)
(0.771521 -0.0367269 0.0933248)
(0.81535 0.0450391 0.0139426)
(0.939698 0.0455727 -0.0387771)
(0.680995 0.109776 0.0360009)
(0.818088 0.0416926 0.118327)
(1.02567 -0.0214848 0.0363932)
(0.891335 -0.0658375 0.0247176)
(0.751644 -0.0684535 0.0376413)
(0.883219 -0.0383784 -0.0475023)
(0.882147 0.0803273 -0.0465957)
(0.802109 0.187352 0.140839)
(1.03756 0.12613 0.0630822)
(0.91719 -0.0270221 -0.128578)
(0.755019 -0.079511 0.0249044)
(0.642422 -0.142916 0.0397685)
(0.653348 -0.090983 -0.0661683)
(0.939574 -0.00654582 -0.0202346)
(0.832231 -0.006263 -2.19959e-05)
(0.736639 -0.0204956 -0.0359809)
(0.793905 -0.00251554 0.0977708)
(0.883587 0.0163859 0.0268454)
(0.995534 -0.00273989 0.100958)
(0.925639 0.0162836 0.162364)
(0.720436 -0.0371557 0.0252539)
(0.738968 -0.0995069 0.0758508)
(0.862667 0.0256778 -0.0492857)
(0.854396 0.0134941 -0.166448)
(0.86081 -0.132205 0.0204057)
(0.860068 -0.127772 0.0491457)
(0.905357 -0.00755443 0.0191354)
(0.942592 0.0567123 0.113561)
(1.03994 0.00120882 0.0865832)
(1.05356 -0.0269689 0.075894)
(0.965123 0.0207095 0.0953196)
(0.973516 0.032862 -0.0434151)
(0.868294 0.00822591 -0.0319446)
(0.757894 -0.0504328 0.110179)
(0.809729 0.00359351 0.0726426)
(0.837903 0.027016 0.0116404)
(0.71186 -0.0825429 0.0682983)
(0.577812 0.00129888 0.0528359)
(0.943648 0.069041 -0.101796)
(0.818743 0.0987566 -0.104046)
(0.564457 0.11954 0.0611941)
(0.804972 0.0511402 0.178878)
(0.862505 0.0195973 0.0467066)
(0.740572 -0.0535983 0.073256)
(0.767112 -0.0519364 0.122999)
(0.895289 -0.0429909 -0.0210127)
(0.743738 0.0746337 0.0284956)
(0.830617 0.139237 0.256903)
(1.05112 0.108157 0.139387)
(0.926176 -0.0312963 -0.0383499)
(0.802406 -0.0822643 -0.0125427)
(0.604819 -0.122894 0.00541836)
(0.457435 -0.0705785 -0.0172242)
(0.829073 -0.0218809 -0.0495345)
(0.99759 0.0293023 -0.152902)
(0.885229 0.00947878 -0.0993714)
(0.651106 -0.0490859 0.0536103)
(0.686908 -0.07244 0.0168993)
(0.775606 -0.027062 0.067266)
(0.771159 0.0391119 0.141005)
(0.627872 -0.0152753 -0.0117533)
(0.630496 -0.106596 0.0863112)
(0.835848 -0.0102575 0.064352)
(0.836668 0.0071484 -0.0771689)
(0.842917 -0.124257 0.0473756)
(0.960788 -0.111498 0.111959)
(0.88125 0.0306378 0.101566)
(0.959101 0.0718049 0.145882)
(1.12927 -0.0123465 0.092124)
(1.06733 -0.0392258 0.017532)
(0.994635 0.02915 -0.0240574)
(0.898451 0.0635065 -0.0514757)
(0.807414 0.0110609 -0.033784)
(0.700392 -0.064909 0.0945523)
(0.729829 -0.0363143 0.0244288)
(0.839363 0.0232376 -0.0103097)
(0.691871 -0.0210012 -0.00628626)
(0.568504 -0.0223522 0.0326319)
(0.881857 0.0145658 -0.0508357)
(0.730291 0.0974702 -0.124093)
(0.691065 0.114714 0.00586438)
(0.748189 0.0617449 0.0485972)
(0.953225 -0.00715549 -0.00570499)
(0.766879 -0.0368445 0.0982322)
(0.78 -0.0524661 0.180491)
(0.838239 0.00389807 0.00142584)
(0.793625 0.0558906 0.0694182)
(0.904796 0.161516 0.0346103)
(1.05953 0.130006 0.0325484)
(1.03549 -0.0249586 0.00221424)
(0.923276 -0.0432699 0.00822485)
(0.60293 -0.0651293 0.0718763)
(0.467723 -0.102572 0.0279808)
(0.750459 -0.09306 -0.11133)
(0.924764 -0.0154327 -0.289483)
(0.884046 0.0355639 -0.0857724)
(0.675984 -0.0484778 0.0690771)
(0.469907 -0.0351732 0.0476084)
(0.409799 -0.0150993 0.0475056)
(0.660087 0.052028 0.0604463)
(0.720626 0.0210474 0.0210467)
(0.619976 -0.0929618 0.0689115)
(0.697501 -0.0224731 0.0442774)
(0.752332 -0.0156824 0.0230844)
(0.859607 -0.158426 0.068839)
(0.901789 -0.116966 0.0834792)
(0.876456 0.0503336 0.135725)
(1.01331 0.0339103 0.181901)
(1.12047 -0.0571199 0.0918106)
(0.990366 -0.02223 -0.0110173)
(0.974477 0.0415707 -0.0278299)
(0.870857 0.0756994 0.0188944)
(0.775628 0.03044 0.0138656)
(0.66061 -0.0233339 0.098512)
(0.675786 -0.0501254 0.00640981)
(0.75206 0.0146743 0.000668982)
(0.703174 0.00710579 -0.0239491)
(0.606995 -0.0341908 0.00765128)
(0.784085 0.0234638 -0.0270009)
(0.739924 0.11786 -0.155049)
(0.719909 0.148831 -0.00757768)
(0.810174 0.0572058 -0.080529)
(1.07518 0.00101756 -0.0913047)
(0.91433 -0.0421571 0.0871795)
(0.783542 -0.0485279 0.0875662)
(0.830929 -0.0240062 0.0142172)
(0.77332 0.0576299 -0.00243016)
(0.883916 0.184809 -0.0818868)
(1.13247 0.0974745 0.111023)
(0.854151 -0.0208937 -0.0452164)
(0.779593 -0.0286914 -0.0399013)
(0.662942 -0.0447595 0.0438641)
(0.622106 -0.116646 -0.0348792)
(0.685608 -0.102255 -0.0675186)
(0.736741 -0.00469423 -0.101322)
(0.881664 0.0208621 -0.0241542)
(0.651111 -0.0184534 0.108758)
(0.40148 -0.0318236 0.0899339)
(0.275401 -0.0696429 -0.0316133)
(0.60036 0.0262398 -0.0398414)
(0.732149 0.0439147 0.0149987)
(0.6706 -0.0874111 0.0482046)
(0.592504 -0.0426578 -0.0321633)
(0.785423 -0.0712959 -0.0179048)
(0.900738 -0.145396 0.114517)
(0.77893 -0.0568171 0.0805165)
(0.918373 0.0892505 0.0128576)
(1.07114 0.0479304 0.128821)
(0.963397 -0.0187035 0.0735008)
(0.809094 -0.00138857 -0.079402)
(0.765615 0.0579785 -0.0689392)
(0.804937 0.0535247 -0.0126625)
(0.830852 0.00879282 0.0408848)
(0.669963 -0.0497452 0.134413)
(0.597732 -0.0883507 -0.0134412)
(0.797627 0.0164118 -0.0642879)
(0.653066 0.0120307 0.0124282)
(0.637455 -0.021546 -0.0622173)
(0.909917 -0.032077 -0.125336)
(0.803575 0.10849 -0.193086)
(0.762734 0.15192 -0.0778051)
(0.935629 0.0239304 -0.0329534)
(1.03861 -0.0423284 -0.076212)
(0.858472 -0.0161145 0.0400884)
(0.704327 -0.00474846 -0.000985811)
(0.723428 -0.0433473 0.00673068)
(0.537274 0.0453862 0.00958157)
(0.734871 0.119727 0.182077)
(1.12597 0.101839 0.148764)
(0.726339 0.00122572 -0.0167454)
(0.714932 -0.0294031 -0.0218891)
(0.628683 -0.0681548 0.0194062)
(0.609637 -0.121244 -0.0312533)
(0.622705 -0.060877 -0.0420466)
(0.676895 0.0216657 0.0193558)
(0.854831 0.00269534 0.00678092)
(0.600834 0.00990668 0.100385)
(0.506433 -0.055997 0.0757489)
(0.345471 -0.0853888 -0.0567678)
(0.519476 0.000146773 -0.100752)
(0.682756 0.0534306 -0.0368227)
(0.717353 -0.0477841 0.0454034)
(0.652248 -0.0363353 -0.098492)
(0.871627 -0.0819283 0.00509746)
(0.917669 -0.123073 0.173406)
(0.722133 -0.0580056 0.0176998)
(0.950083 0.0889943 -0.0738662)
(1.15225 0.0831765 0.0833899)
(1.01568 -0.0148002 0.0550595)
(0.862205 -0.00483263 -0.0471112)
(0.669496 0.034213 0.0104878)
(0.78673 0.035841 -0.0962511)
(0.977943 0.0369945 -0.0465289)
(0.830144 -0.00463108 0.0670922)
(0.464296 -0.088774 -0.109601)
(0.839811 0.00811804 -0.184855)
(0.7117 0.0532914 -0.0864174)
(0.671093 -0.0496034 -0.0981567)
(0.893519 -0.0276814 -0.0576564)
(0.81257 0.123776 -0.113318)
(0.877918 0.152396 -0.0754815)
(1.06246 0.0339507 -0.00185592)
(0.893532 -0.00368066 -0.052629)
(0.693418 -0.0262755 0.0845703)
(0.549373 0.0191075 0.036144)
(0.58836 -0.018603 -0.0208449)
(0.549026 0.0141681 0.153261)
(0.89941 0.0375519 0.265818)
(1.08991 0.0584245 0.0256029)
(0.648524 0.00219133 -0.0330564)
(0.709847 -0.0596581 -0.036134)
(0.52305 -0.0283019 -0.00134798)
(0.565864 -0.118633 0.0589162)
(0.552677 -0.0510998 -0.0274136)
(0.672684 0.000598074 0.0111152)
(0.806996 0.00734589 0.0233929)
(0.625784 -0.0115253 0.0763782)
(0.458525 -0.01925 -0.0211275)
(0.313574 -0.0598191 -0.0763653)
(0.462725 0.0115896 -0.139176)
(0.677474 0.0534319 -0.0630836)
(0.701918 -0.0580258 0.0446222)
(0.755451 -0.0546931 -0.0772527)
(0.909384 -0.0515621 0.109923)
(0.825722 -0.112143 0.250087)
(0.704397 -0.0463718 -0.00455967)
(0.944491 0.0824207 -0.0876134)
(1.15226 0.0578228 0.0704725)
(0.960896 -0.0106651 0.0396085)
(0.927734 0.00979771 -0.0700544)
(0.762674 0.0037867 0.0233959)
(0.756175 -0.0244775 -0.0174266)
(0.970901 -0.00321894 -0.0542968)
(0.91628 -0.0116636 -0.00344763)
(0.452904 -0.102093 -0.0739461)
(0.728006 -0.0406436 -0.171551)
(0.719478 0.0240367 -0.170587)
(0.697462 -0.0560073 -0.0523728)
(0.730134 -0.0327142 0.0183701)
(0.584426 0.119239 -0.0892684)
(0.867746 0.121264 -0.0907427)
(1.10754 -0.00363509 0.0362646)
(0.959574 -0.0218989 -0.0298005)
(0.596618 0.00395077 0.0403504)
(0.367849 0.0389152 0.127036)
(0.701099 -0.0259144 0.113563)
(0.675425 -0.0182801 0.1214)
(0.927267 0.0383396 0.0424548)
(0.801801 0.0753047 -0.0764779)
(0.522571 0.0178601 -0.095011)
(0.615521 -0.052623 -0.00628201)
(0.500048 -0.0422051 0.0153954)
(0.483101 -0.0607167 0.0731075)
(0.595133 -0.0219396 0.0073027)
(0.742143 0.00357381 -0.0554157)
(0.750346 0.00466871 0.033327)