/*--------------------------------*- C++ -*----------------------------------*\
  =========                 |
  \\      /  F ield         | OpenFOAM: The Open Source CFD Toolbox
   \\    /   O peration     | Website:  https://openfoam.org
    \\  /    A nd           | Version:  10
     \\/     M anipulation  |
\*---------------------------------------------------------------------------*/
FoamFile
{
    format      ascii;
    class       volScalarField;
    location    "40";
    object      nut;
}
// * * * * * * * * * * * * * * * * * * * * * * * * * * * * * * * * * * * * * //

dimensions      [0 2 -1 0 0 0 0];

internalField   nonuniform List<scalar> 
102400
(
7.12674e-11
3.75284e-11
2.72036e-11
1.79218e-11
4.06211e-11
4.83002e-11
2.94526e-11
2.31107e-11
2.67317e-11
2.27945e-11
2.01937e-11
2.81098e-11
3.1162e-11
2.00162e-11
2.15264e-11
7.74153e-11
1.63439e-10
2.9833e-11
1.90892e-11
2.44664e-11
3.29482e-11
2.50083e-11
2.59504e-11
2.52347e-11
2.95909e-11
1.94231e-11
3.44707e-11
2.33693e-11
3.52849e-11
2.11884e-11
1.8996e-11
2.31412e-11
2.08093e-11
1.25654e-10
2.53988e-11
2.47444e-11
2.40703e-11
2.77169e-11
2.67233e-11
4.81499e-11
2.78149e-12
3.71274e-13
4.10894e-13
3.55211e-13
1.60916e-12
9.99719e-13
5.8445e-14
1.25097e-13
3.84957e-13
6.06332e-14
1.13795e-13
3.56816e-13
3.71842e-13
1.58477e-13
1.61025e-13
1.52761e-12
1.70387e-10
1.21912e-12
2.07215e-13
3.84363e-14
8.84568e-13
1.82934e-12
3.03959e-13
6.21793e-14
3.78501e-13
5.64368e-13
3.51641e-11
1.64826e-13
6.803e-13
4.3363e-13
1.03552e-13
1.51979e-13
8.44536e-13
2.30622e-10
9.47906e-13
1.04347e-13
2.49073e-13
3.86673e-13
1.35291e-13
5.58611e-13
7.41072e-11
1.02572e-12
1.53508e-13
1.66872e-13
6.06413e-13
1.18316e-12
2.41987e-13
1.85662e-13
1.37087e-12
1.1542e-13
1.14489e-13
1.58248e-13
4.7214e-13
8.34651e-14
2.25464e-13
1.42787e-11
3.6664e-10
6.18619e-13
4.14477e-13
3.34861e-13
1.88497e-11
1.34205e-12
2.32965e-13
1.44316e-13
1.2812e-13
2.49973e-13
9.25037e-13
2.27055e-13
5.39712e-13
5.40676e-13
7.40245e-14
3.21859e-13
5.76808e-12
3.33791e-10
8.03544e-13
2.04687e-12
2.91376e-13
1.96014e-13
5.75524e-13
2.26542e-13
1.24479e-12
4.1883e-13
2.80111e-13
1.74621e-13
1.04553e-13
2.38267e-13
2.84528e-13
2.01776e-13
4.41526e-13
8.16806e-14
4.31359e-14
2.67891e-14
4.86374e-14
3.02547e-14
1.54033e-13
8.58883e-13
5.03559e-10
2.81871e-13
4.33685e-13
2.67652e-13
1.70458e-13
1.10278e-12
2.65655e-13
1.41467e-13
1.07241e-13
1.23364e-13
1.61575e-12
3.41138e-13
3.30153e-13
5.17894e-13
1.45587e-13
5.16345e-14
1.33322e-12
3.26392e-10
2.46262e-13
2.59667e-12
7.90394e-14
7.2075e-13
3.821e-13
3.67318e-13
2.42037e-12
5.10926e-13
3.14447e-13
2.49239e-13
4.58602e-13
4.74672e-13
2.3683e-13
1.76342e-13
1.10294e-13
2.85558e-13
2.40754e-14
1.93976e-14
1.18591e-13
5.70671e-14
5.65068e-14
1.53463e-12
4.92343e-10
7.38959e-11
1.74229e-10
1.95068e-13
2.94964e-14
7.41189e-13
1.83846e-13
6.62597e-14
1.69124e-13
2.4948e-13
9.5557e-11
1.29555e-13
2.53979e-13
2.245e-13
1.49046e-13
7.21005e-13
2.06126e-13
1.46139e-10
1.19969e-12
3.75235e-13
6.53549e-14
1.33447e-12
1.55157e-13
2.26014e-13
2.62228e-10
2.65837e-13
1.46549e-13
1.8412e-13
8.5498e-14
2.61282e-11
9.15108e-14
2.33205e-14
9.24351e-14
3.66994e-13
4.71493e-14
1.71206e-14
3.65178e-14
5.26264e-14
4.52211e-14
9.89059e-11
4.31441e-10
9.45474e-13
4.42169e-11
1.16883e-13
2.47056e-13
1.24342e-12
1.24745e-13
5.46218e-14
1.4094e-13
4.10552e-13
2.18259e-12
2.89346e-13
4.1767e-13
2.3383e-13
1.10046e-13
4.63409e-13
1.53029e-13
2.87261e-10
3.82226e-13
2.17455e-13
1.71512e-13
7.326e-13
1.95866e-13
8.61478e-13
2.73797e-10
5.50257e-14
1.52941e-13
6.54722e-14
7.57256e-13
2.37767e-13
4.507e-13
8.62854e-14
8.45171e-14
1.63879e-13
1.98172e-14
4.20901e-14
4.4512e-14
2.57706e-14
8.73666e-14
3.7111e-10
9.59978e-10
1.38084e-10
4.84176e-13
2.22173e-13
4.54607e-13
4.14472e-13
2.43653e-13
7.78321e-14
4.84586e-13
5.69659e-13
2.08705e-12
3.98995e-10
5.64509e-14
2.69844e-13
5.91447e-13
1.01911e-13
2.953e-13
1.30793e-11
8.81359e-11
3.62577e-14
1.58812e-13
6.55113e-13
2.22456e-13
1.26961e-13
2.53763e-10
1.70181e-13
2.43959e-13
3.66956e-13
2.31691e-10
3.66513e-13
3.44806e-10
2.16384e-13
9.7766e-14
4.29814e-13
7.16175e-15
1.47189e-13
2.0166e-13
5.21308e-14
3.43829e-13
1.32434e-12
1.08878e-09
1.72396e-10
4.62288e-10
1.5063e-12
2.35553e-13
1.78989e-13
1.79386e-13
8.61349e-14
7.10466e-14
1.64844e-13
1.70268e-12
5.82884e-10
3.84622e-13
3.2652e-13
5.52448e-13
1.11177e-13
9.01213e-13
3.35164e-10
1.41996e-12
9.21183e-14
1.13901e-13
4.30375e-13
2.63793e-13
2.80323e-14
1.8107e-10
8.76868e-11
2.95607e-13
2.29736e-13
1.82806e-10
2.67366e-10
7.89802e-13
3.59057e-13
1.90608e-13
4.09741e-13
1.69935e-14
5.7685e-13
9.4648e-13
8.77566e-14
1.17848e-12
7.23081e-13
7.27021e-10
1.77265e-11
1.2511e-10
2.53927e-12
1.54617e-13
2.09152e-13
1.86195e-13
3.08571e-14
4.59001e-14
1.5865e-14
4.06237e-10
6.88166e-11
1.07042e-13
7.99216e-14
2.54121e-13
1.96376e-13
2.48474e-13
1.41726e-10
1.34797e-13
9.28291e-11
2.11699e-13
4.65891e-13
1.6285e-10
1.82617e-14
4.15461e-10
1.62857e-10
7.80128e-13
3.23325e-12
2.56699e-12
1.98118e-10
8.04993e-14
3.21637e-13
1.10857e-13
1.23295e-13
6.50404e-14
2.29818e-13
1.31512e-12
3.12141e-14
3.63484e-13
1.03428e-12
3.47384e-10
2.46668e-12
1.14931e-12
6.75851e-12
4.10448e-13
8.92316e-11
1.01104e-12
8.42946e-14
1.10009e-13
5.89962e-14
3.41559e-10
4.62185e-13
2.64375e-13
2.79934e-13
3.17841e-13
5.06047e-11
1.89343e-13
1.80804e-12
1.72443e-10
9.39438e-14
1.71802e-13
1.78278e-11
1.32822e-12
4.02426e-13
3.57961e-10
3.2603e-10
2.55254e-10
3.0931e-13
8.61898e-13
6.5926e-10
4.13131e-13
1.55947e-12
3.22923e-10
4.14469e-13
1.66018e-13
7.11102e-13
2.44934e-13
5.14247e-14
1.47296e-13
3.72767e-10
5.5505e-10
6.89545e-13
2.46542e-10
1.04858e-10
1.20109e-12
4.17738e-11
2.6928e-10
7.05181e-14
5.07875e-14
5.55553e-14
3.0258e-10
2.6182e-10
4.81001e-13
9.23577e-13
5.04952e-11
2.12143e-10
9.58828e-14
5.81005e-10
4.7572e-11
2.57084e-13
5.79433e-14
1.20846e-12
2.60422e-13
3.10784e-13
2.94958e-10
5.42147e-10
1.60752e-10
1.51196e-13
1.82077e-13
4.26448e-10
5.2484e-11
8.02333e-13
4.68609e-10
4.22143e-11
1.22989e-12
6.1389e-11
2.19708e-13
4.06204e-13
6.20949e-10
3.92813e-12
3.9934e-10
3.44735e-10
1.04297e-09
1.71908e-13
2.73937e-12
4.48426e-10
8.7287e-11
1.02938e-13
7.2796e-14
7.83182e-14
3.6955e-10
5.79037e-10
1.66805e-11
7.52892e-13
2.99625e-10
2.13144e-10
1.84764e-13
6.60874e-13
1.16938e-13
2.30353e-13
7.50729e-14
6.96544e-14
3.05159e-14
1.46437e-13
2.5653e-10
2.48143e-10
9.12053e-11
1.09589e-13
2.43328e-14
1.19729e-10
1.23466e-10
1.76293e-10
6.25488e-10
1.02936e-12
4.70804e-13
1.5779e-13
6.85774e-13
7.32753e-15
4.82636e-13
3.18435e-10
5.6378e-10
4.19021e-10
2.15529e-11
5.16423e-13
6.39861e-14
4.13437e-10
2.71574e-13
3.67325e-14
4.30646e-14
7.63747e-14
7.64586e-10
4.63925e-10
3.60429e-12
1.5136e-12
1.42744e-10
3.84366e-11
9.81813e-14
2.79312e-10
5.19133e-13
9.93406e-14
1.72068e-12
5.01237e-13
1.85018e-13
2.22907e-12
5.07413e-10
4.61588e-11
2.22581e-13
7.66738e-13
2.91544e-13
8.7457e-12
2.15452e-13
1.63852e-13
2.47343e-12
2.32923e-10
9.44989e-13
2.92781e-13
1.80785e-12
2.00506e-13
1.23317e-13
1.07068e-10
1.92592e-10
8.57647e-11
7.57346e-10
9.45084e-11
9.83622e-14
3.36394e-10
1.84648e-10
2.60487e-12
7.81298e-13
6.0131e-14
7.20666e-10
2.15506e-10
7.07823e-12
1.68486e-12
9.28376e-14
1.68297e-10
7.91608e-14
2.02346e-10
9.91967e-11
1.61497e-13
3.63912e-10
6.92566e-13
1.61941e-13
1.86733e-13
4.55034e-12
3.84216e-10
2.2227e-10
1.00862e-10
1.98201e-13
1.13227e-12
2.25248e-10
1.14213e-10
1.05839e-13
8.64256e-14
2.57156e-13
5.73081e-10
7.32812e-10
6.49375e-13
1.66261e-10
1.96211e-13
3.47124e-10
3.26523e-13
3.93703e-10
1.38773e-10
1.0129e-13
1.19901e-09
8.92787e-10
8.3395e-13
3.37994e-13
8.84352e-14
7.1946e-10
2.39433e-13
2.10976e-13
8.90345e-13
2.31862e-10
4.5426e-10
2.62136e-13
9.24863e-13
1.12675e-13
9.1936e-14
1.01904e-10
1.20748e-13
1.64734e-13
2.37762e-13
1.90161e-10
3.21202e-10
1.30211e-13
4.11951e-13
6.29053e-12
4.43306e-10
3.13543e-10
2.96907e-11
7.09515e-10
5.13647e-10
2.70036e-13
2.04344e-13
2.56859e-12
9.69714e-14
3.12304e-13
1.29481e-13
3.64808e-10
2.70638e-10
3.66926e-10
3.46102e-13
3.9035e-14
2.61302e-10
1.37836e-13
2.00826e-10
2.82803e-13
1.02819e-13
1.09106e-09
5.01229e-10
1.09618e-10
3.92461e-10
2.16789e-10
3.07434e-13
2.03547e-13
8.03631e-10
3.74627e-13
2.88208e-13
1.47727e-13
8.86373e-14
3.4415e-10
1.98065e-13
1.36797e-11
9.12112e-10
2.27032e-13
3.92329e-10
2.9345e-10
1.64751e-13
1.68277e-10
8.11677e-10
3.68238e-10
1.78614e-13
2.17351e-13
1.25033e-10
4.73162e-10
2.35653e-13
2.5524e-13
6.68637e-14
3.00592e-10
9.60246e-10
2.46459e-11
1.02846e-12
1.07379e-10
1.50104e-09
1.53198e-10
4.38605e-13
1.5235e-13
1.09543e-13
5.17483e-10
2.72044e-10
2.43934e-13
1.542e-12
3.88436e-13
4.36166e-10
2.71791e-10
1.6346e-14
2.9585e-13
1.73862e-11
5.85629e-13
2.29653e-13
4.04935e-10
4.73102e-13
1.14781e-10
1.03017e-09
2.03382e-13
2.2545e-13
7.04121e-14
1.60526e-13
5.04863e-14
8.75114e-14
3.77351e-13
1.22293e-13
1.41498e-12
1.91945e-12
4.52086e-10
3.13365e-13
4.28194e-14
1.78546e-13
9.66609e-11
5.71533e-11
6.9599e-11
2.69349e-13
8.93205e-14
5.84517e-13
3.08253e-10
5.49323e-10
6.08981e-14
3.1473e-13
1.17768e-09
8.56127e-13
1.63211e-13
1.00559e-09
3.13269e-13
4.96213e-13
4.47472e-10
5.35779e-11
3.13165e-10
2.1363e-10
1.47881e-13
3.24754e-13
3.57878e-10
1.17021e-11
5.89943e-13
4.49446e-10
4.33904e-13
1.43303e-13
4.04966e-13
3.75334e-13
7.22008e-11
3.31294e-13
3.97918e-14
6.27437e-14
5.02021e-14
3.66882e-13
8.233e-13
2.08034e-10
1.27657e-12
6.38994e-11
1.09269e-09
1.22387e-09
4.32241e-13
3.5675e-13
1.31265e-10
1.31948e-09
4.53528e-10
1.47246e-10
1.18497e-14
3.37117e-13
1.07562e-09
2.32428e-12
1.12237e-13
1.05575e-12
1.006e-13
2.40107e-12
7.87434e-12
4.86161e-13
1.64824e-13
8.16465e-13
1.68288e-13
4.79864e-13
1.10543e-09
3.70272e-13
1.05341e-12
1.18079e-12
3.94132e-13
4.80463e-10
2.32235e-09
2.03209e-10
5.32651e-14
3.57272e-13
1.00589e-09
1.04871e-09
3.05005e-10
7.02218e-10
6.10061e-10
5.22897e-10
8.22413e-13
2.25631e-12
4.45353e-12
2.91701e-10
2.89242e-13
5.41715e-10
5.85225e-10
6.20733e-14
8.61468e-10
2.42594e-11
1.48198e-13
2.22095e-13
1.17975e-12
5.29593e-14
6.34521e-10
1.26628e-13
5.58878e-14
3.11912e-10
1.29036e-10
1.07935e-12
4.35805e-13
1.49081e-10
2.01235e-13
2.4213e-13
1.61138e-09
6.63426e-10
4.48987e-13
1.16502e-09
3.93151e-13
4.44175e-13
8.55384e-10
1.27119e-12
2.12647e-13
3.82382e-12
5.62969e-10
3.63072e-10
1.50062e-12
3.04149e-13
4.03091e-12
3.32057e-13
1.91177e-13
4.37678e-13
2.50058e-10
2.07995e-10
1.27616e-13
4.69949e-13
3.80151e-10
4.37165e-12
5.49899e-10
5.96305e-10
3.6412e-13
1.51504e-09
1.01156e-09
3.94135e-13
3.44172e-13
2.04186e-10
6.45783e-10
1.29904e-09
8.81361e-14
2.30619e-13
4.03216e-13
5.37292e-10
7.57059e-10
3.83101e-13
1.94844e-13
2.84431e-13
1.73126e-10
1.03846e-12
2.12119e-13
5.44088e-10
1.31699e-13
7.51096e-14
9.76012e-11
1.09169e-12
2.35799e-13
4.93047e-14
3.9349e-13
7.335e-10
2.16452e-10
1.3947e-09
7.55848e-10
6.36597e-13
4.51625e-10
7.47309e-12
1.23548e-13
4.89105e-13
1.52204e-13
5.83373e-14
4.30865e-10
7.11499e-14
1.36842e-13
1.83197e-10
6.53551e-12
1.08154e-09
1.61483e-09
3.57846e-10
7.09973e-13
4.71192e-11
1.49035e-10
3.27427e-11
4.38978e-12
1.48791e-09
3.05886e-13
2.75748e-13
1.99216e-09
6.7895e-13
8.31845e-10
3.58768e-13
4.71094e-12
1.16205e-13
5.62949e-13
3.0485e-09
6.35965e-10
1.82492e-13
1.17567e-10
1.43126e-09
8.8391e-10
8.52508e-10
2.51218e-10
9.42652e-10
6.0689e-13
3.25691e-13
4.28829e-10
1.75092e-09
5.14156e-10
1.59871e-13
1.7264e-13
3.70405e-10
1.13382e-09
2.07634e-13
2.78984e-13
2.66375e-10
8.2768e-10
6.94195e-12
2.6125e-13
7.64999e-10
1.50514e-09
3.51434e-13
2.34116e-10
3.17819e-13
1.88322e-13
6.16621e-13
8.58817e-13
7.71855e-10
5.41245e-10
3.5236e-10
9.28465e-10
2.57119e-13
8.29927e-13
7.41645e-13
1.70524e-09
2.37325e-13
1.27858e-12
1.32915e-09
6.27972e-10
2.27364e-13
8.32813e-14
7.70132e-13
3.15329e-12
1.2317e-12
5.57685e-10
2.50521e-13
2.52379e-10
4.8054e-13
1.50261e-13
2.16599e-10
6.44341e-10
2.06149e-13
3.19018e-10
7.01416e-10
2.89604e-10
1.54983e-09
2.67559e-12
7.86969e-10
1.9303e-09
5.26957e-13
4.61701e-10
1.63357e-09
2.3001e-13
1.24929e-13
9.01555e-10
3.04406e-12
9.68236e-14
3.67647e-10
1.46728e-10
1.24648e-09
3.67232e-10
6.94238e-11
7.70224e-10
1.85303e-10
6.74416e-14
6.24052e-10
1.03651e-09
1.23276e-12
6.33246e-12
2.62973e-13
7.81159e-10
1.2864e-09
6.65954e-13
5.35155e-13
3.78738e-10
2.43138e-12
3.35561e-13
3.39759e-13
1.15676e-12
1.09212e-11
1.03647e-12
4.91313e-10
2.02501e-09
9.11755e-14
1.17269e-13
4.26687e-13
5.86617e-12
1.89696e-11
4.47302e-14
6.48638e-10
1.92968e-09
1.82073e-12
8.95916e-10
7.15813e-10
7.4867e-13
4.2935e-13
7.16435e-10
6.865e-10
3.69114e-13
6.24614e-14
9.43489e-14
1.56227e-13
4.3313e-13
3.12377e-13
2.19315e-09
2.65775e-09
2.01634e-13
7.38502e-13
4.49861e-13
1.14718e-13
1.4531e-09
1.38494e-12
2.96591e-13
2.38732e-09
2.59442e-09
1.34139e-10
6.4338e-13
5.72259e-10
8.17464e-10
9.90868e-10
8.28298e-13
1.92367e-10
1.72013e-09
4.92596e-10
6.01453e-10
6.4856e-10
2.05993e-10
2.84796e-09
2.10404e-09
9.74384e-13
1.70015e-13
2.05563e-09
5.56225e-13
2.01615e-13
5.94196e-13
2.84536e-11
3.43708e-10
7.12761e-14
7.27936e-10
7.43876e-10
2.09907e-09
8.91634e-10
4.9689e-14
3.76818e-13
2.74683e-10
5.69484e-12
6.6259e-13
2.18818e-10
2.0188e-10
2.48315e-13
8.77461e-14
3.5197e-10
2.07389e-09
4.3085e-13
5.32565e-14
5.04979e-13
9.00893e-13
1.87046e-12
5.29746e-10
7.8336e-10
5.71256e-13
1.40363e-09
1.87232e-13
6.1709e-13
1.22217e-09
3.86409e-10
1.65363e-11
4.49412e-13
7.70505e-14
1.8425e-12
5.90552e-13
4.91621e-10
1.75737e-12
3.49349e-13
7.33712e-13
1.7314e-13
3.57677e-12
6.77896e-10
3.54913e-13
9.72281e-10
8.04444e-10
6.82007e-13
8.77169e-10
3.96125e-09
9.3321e-10
3.88781e-13
2.42973e-09
1.50239e-12
4.20135e-13
3.93657e-13
1.94829e-09
8.3223e-12
2.24127e-13
1.21184e-09
1.66756e-11
2.96807e-13
6.00562e-13
1.56308e-13
1.63706e-09
3.78977e-10
2.8999e-13
1.34855e-10
6.09e-13
1.17451e-09
1.5792e-13
1.1354e-13
1.67771e-09
5.41233e-12
2.15518e-13
2.79688e-13
1.17822e-09
1.83952e-10
2.15159e-12
1.84878e-09
1.67391e-09
1.94504e-09
1.86233e-09
4.0787e-13
1.40356e-13
2.52414e-09
7.26806e-10
1.78805e-12
1.65855e-13
2.22446e-13
6.63974e-10
8.99613e-10
8.63009e-13
9.83644e-13
2.89604e-09
5.29273e-10
3.69423e-10
2.48977e-09
7.76173e-13
5.7069e-13
8.4343e-13
3.24821e-12
1.66142e-09
1.71892e-09
8.54719e-13
1.21942e-09
1.58824e-12
2.44272e-13
3.27491e-10
1.48069e-12
1.24942e-09
4.57766e-09
2.42649e-10
1.6479e-10
4.166e-10
6.0821e-10
1.3016e-09
1.90263e-09
2.0174e-09
8.75533e-13
1.40715e-11
1.13437e-13
2.31413e-13
1.18072e-09
1.70526e-09
2.67194e-10
2.52168e-09
2.84413e-13
1.26186e-12
1.48462e-09
1.59406e-09
2.95108e-09
3.48207e-13
7.71225e-10
1.59665e-12
1.72191e-13
9.44159e-11
4.15823e-13
2.4539e-13
5.16309e-10
1.83017e-09
2.33479e-13
8.92422e-10
9.58958e-13
4.30986e-13
9.91474e-10
9.79461e-10
8.63961e-10
5.63455e-13
2.44184e-09
1.26552e-12
2.04224e-13
5.33545e-13
8.02739e-11
1.60999e-09
2.44909e-13
1.03046e-12
3.97165e-11
6.60858e-13
3.12298e-13
3.66494e-13
1.26685e-09
4.07965e-13
1.03533e-12
3.18714e-10
1.73029e-09
6.92791e-13
1.7496e-13
9.26389e-13
3.02682e-10
8.52823e-13
4.93917e-10
3.439e-13
1.019e-09
4.76013e-13
1.28981e-09
2.79593e-13
3.66073e-13
5.45254e-09
1.93299e-12
8.726e-14
6.60477e-13
1.83621e-09
1.47577e-09
1.53288e-09
6.6671e-13
7.17351e-13
3.29483e-12
1.17624e-12
6.27164e-14
1.3985e-09
1.2005e-10
8.13085e-13
1.27901e-09
2.04132e-13
1.57329e-09
1.31741e-09
2.79115e-13
2.61592e-13
3.17542e-09
4.44626e-13
1.50111e-13
3.45222e-10
4.0075e-09
1.18655e-11
6.35327e-13
3.21836e-09
5.42865e-13
2.6922e-13
2.09662e-13
5.32425e-13
1.92057e-09
2.43065e-09
9.64784e-13
2.71217e-10
7.36957e-09
7.40725e-09
2.74952e-09
3.37083e-09
2.91448e-09
2.59702e-13
3.79121e-09
5.30697e-09
5.6557e-13
1.11047e-09
4.28968e-09
3.79616e-09
2.06865e-13
8.60438e-13
5.38846e-09
1.55027e-09
1.47378e-13
9.00542e-10
1.04601e-09
8.153e-10
4.35309e-13
1.80132e-13
2.04411e-09
6.80706e-14
1.25865e-13
2.45716e-09
1.14562e-12
2.93605e-09
7.24242e-09
3.01413e-12
1.3915e-09
1.81317e-10
2.0521e-10
3.59892e-10
5.62959e-10
2.53153e-10
2.96975e-10
3.74532e-10
2.13193e-10
3.027e-10
6.25579e-10
6.10531e-10
3.37307e-10
3.79799e-10
4.5942e-10
5.80849e-10
1.81561e-10
3.78694e-10
5.1818e-10
5.25486e-10
6.96902e-10
1.94924e-10
1.873e-10
2.78897e-10
4.46974e-10
3.82358e-10
4.05243e-10
3.47221e-10
3.48012e-10
3.18993e-10
2.28285e-10
4.87815e-10
3.93468e-10
2.62955e-10
8.26429e-11
1.91781e-10
4.07442e-10
2.37064e-10
1.97685e-10
2.85434e-10
1.77861e-10
6.46131e-11
1.9002e-10
3.12762e-10
4.67406e-10
1.82511e-10
2.53463e-10
3.27976e-10
1.70537e-10
2.47852e-10
6.47473e-10
5.72513e-10
2.7644e-10
2.75581e-10
3.7532e-10
5.32684e-10
4.08887e-11
5.50705e-10
4.34744e-10
3.63956e-10
6.8288e-10
1.69299e-10
2.16316e-10
2.52511e-10
4.26668e-10
4.17442e-10
4.02509e-10
3.08259e-10
4.00829e-10
4.04359e-10
1.22164e-10
5.51706e-10
3.74502e-10
3.23957e-10
5.60886e-13
5.7827e-11
3.12195e-10
6.72012e-11
9.69518e-11
1.80227e-10
3.4133e-12
1.98214e-10
2.95214e-10
3.49193e-10
5.26637e-10
3.13144e-10
3.75733e-10
4.77584e-10
3.38673e-10
5.15123e-10
9.33591e-10
7.66283e-10
3.64718e-10
4.12933e-10
5.13052e-10
6.64503e-10
8.3972e-11
7.68219e-10
7.56688e-10
4.5468e-10
8.44277e-10
3.032e-10
3.53245e-10
3.95429e-10
5.62506e-10
4.79282e-10
4.96644e-10
5.94655e-12
3.19797e-10
5.28165e-10
2.14877e-10
5.05058e-10
5.47307e-10
2.64333e-10
8.1737e-13
1.06555e-10
7.58133e-10
2.2254e-10
1.54095e-10
3.90857e-10
7.39077e-11
5.6381e-11
1.81661e-10
1.90427e-10
3.57731e-10
8.24573e-11
2.66825e-10
4.12764e-10
1.98997e-10
4.28284e-10
7.26959e-10
5.89078e-10
3.21123e-10
3.15946e-10
3.11971e-10
5.62385e-10
1.78272e-13
3.27312e-10
6.64418e-10
4.94945e-10
7.18076e-10
4.75138e-11
7.38187e-11
1.94219e-10
4.47235e-10
2.9147e-10
4.5271e-10
1.62105e-10
2.95928e-10
2.20873e-10
6.87873e-11
3.90294e-10
4.84759e-10
2.22633e-10
6.02752e-13
2.31583e-10
6.23331e-10
1.96956e-10
1.24258e-10
1.9829e-10
2.82696e-12
1.60055e-11
2.43112e-10
2.93376e-10
4.26106e-10
1.18642e-10
2.34575e-10
3.70322e-10
1.34131e-10
2.16701e-10
5.77981e-10
4.43874e-10
3.28822e-10
3.63621e-10
3.09517e-10
5.32069e-10
7.28482e-13
3.10066e-11
4.17482e-10
5.24752e-10
5.99414e-10
5.83031e-11
1.07452e-10
2.34369e-10
3.98132e-10
2.62789e-10
4.69648e-10
3.86144e-10
3.84094e-10
2.87814e-10
8.25719e-11
4.73929e-10
4.42272e-10
2.25543e-10
4.44784e-13
1.66623e-10
1.63294e-10
2.18489e-12
1.63765e-10
1.63258e-10
2.35629e-12
6.35025e-11
1.56713e-10
2.1682e-10
3.19274e-10
1.80816e-10
3.04124e-10
3.02944e-10
5.35861e-12
1.25755e-10
6.46572e-10
5.93863e-10
3.27174e-10
3.10227e-10
2.44695e-10
5.78593e-10
3.84943e-13
3.00002e-13
2.74353e-10
4.32911e-10
6.60922e-10
9.47431e-11
1.44324e-10
2.65207e-10
4.75215e-10
1.9315e-10
4.27873e-10
7.32568e-11
2.20059e-10
4.97512e-10
7.73859e-11
3.15896e-10
2.73714e-10
2.20148e-11
3.45039e-13
1.12471e-10
3.85698e-10
1.47204e-12
7.74139e-11
2.58298e-10
1.39836e-11
3.67353e-11
8.52322e-11
1.81447e-10
2.45164e-10
1.55362e-10
2.94705e-10
2.59637e-10
5.38359e-12
9.038e-11
7.84422e-10
5.58768e-10
4.43526e-10
4.71181e-10
1.94117e-11
5.50786e-10
9.8713e-11
1.92488e-12
6.233e-11
3.86997e-10
6.8872e-10
1.78337e-10
9.5602e-11
2.28261e-10
5.88909e-10
5.28444e-10
6.06692e-10
1.42738e-10
1.80086e-10
3.11783e-10
8.83106e-11
3.87134e-10
2.81285e-10
3.5193e-11
1.06972e-12
2.76703e-10
5.29557e-10
5.50339e-11
1.15111e-10
1.90844e-10
3.55338e-12
9.96059e-11
9.58582e-11
2.99264e-10
3.14815e-10
6.19082e-11
2.82166e-10
1.18177e-10
6.99975e-12
7.59767e-13
8.12941e-10
5.65189e-10
2.20501e-10
6.15165e-10
4.75928e-10
5.1001e-10
1.47582e-12
2.17342e-10
7.51899e-13
9.93233e-11
5.58294e-10
2.13925e-10
1.54029e-10
1.51553e-10
4.24983e-10
4.73661e-10
6.60169e-10
6.77652e-11
1.80023e-10
1.62168e-10
6.76523e-12
3.51204e-10
2.9798e-10
6.41699e-13
9.77594e-13
2.93573e-12
3.55964e-10
1.43064e-12
3.10509e-10
1.07541e-10
2.65515e-13
3.48149e-13
1.11998e-10
5.50011e-10
2.80655e-10
1.07763e-10
3.693e-10
3.79384e-10
1.37702e-12
7.13823e-13
4.40702e-10
4.80044e-10
3.71879e-10
4.94906e-10
3.0749e-10
5.06277e-10
6.28318e-11
5.15406e-10
3.13328e-10
1.03106e-12
6.07936e-10
1.98313e-10
1.49325e-10
1.0874e-10
5.41709e-10
4.89518e-10
6.05758e-10
2.55797e-10
1.60105e-10
3.47916e-10
1.18029e-10
2.33941e-10
2.29958e-10
4.21369e-11
2.88151e-13
1.08259e-12
7.60759e-10
6.36487e-13
4.66929e-11
1.5967e-10
1.11857e-13
7.82648e-11
4.46311e-11
5.78367e-10
6.40014e-10
2.88583e-10
3.63627e-12
4.57093e-10
3.38718e-12
2.40986e-13
3.50723e-10
4.37795e-10
5.14277e-10
4.84566e-10
4.87823e-12
2.97355e-10
5.43138e-13
3.44393e-10
2.04978e-10
6.96146e-12
5.29509e-10
2.29502e-10
7.20768e-11
5.15881e-13
5.86064e-10
6.8337e-10
6.9021e-10
1.5288e-12
2.11699e-12
6.18863e-10
3.92529e-10
1.45682e-10
1.79452e-10
1.18464e-12
1.78114e-13
6.38329e-11
5.4824e-10
1.35133e-11
7.93523e-11
1.82645e-10
2.36532e-11
1.90594e-10
7.57258e-14
1.60549e-10
3.04511e-10
2.29325e-13
2.28003e-10
5.73602e-10
1.66929e-10
3.25965e-13
6.95972e-10
7.48455e-10
2.69732e-10
4.55118e-10
4.97875e-11
6.62794e-10
1.52246e-10
4.27775e-11
7.80221e-14
3.71306e-12
3.86223e-10
7.85385e-13
1.935e-12
2.99063e-11
4.76482e-10
7.00465e-10
4.65668e-10
5.01692e-11
1.97577e-10
7.67939e-10
2.61858e-10
1.35295e-12
1.90526e-10
2.31837e-12
1.97519e-13
8.30377e-14
3.72102e-10
3.52567e-13
8.87473e-13
2.16382e-10
2.28857e-11
3.07941e-10
2.80227e-14
9.08148e-13
2.92914e-11
1.89744e-12
7.50538e-12
2.67726e-10
1.13714e-10
1.45077e-13
6.39821e-10
4.43797e-10
3.92999e-10
7.65638e-10
6.93245e-10
4.17977e-13
2.95927e-13
2.28196e-10
2.46963e-13
1.26733e-10
1.10358e-09
5.83943e-13
4.03144e-13
3.79358e-11
5.42017e-10
8.39751e-10
5.5139e-10
1.88769e-13
5.08559e-13
6.2607e-10
2.98366e-10
4.41132e-13
4.37796e-10
1.82319e-10
4.64093e-13
5.93582e-13
2.50879e-10
2.33332e-10
3.53699e-13
1.00993e-13
3.65748e-13
1.84699e-10
1.08603e-13
4.01195e-10
3.27879e-10
8.05962e-11
2.76184e-10
1.08989e-10
2.51144e-10
2.55211e-13
3.39044e-10
2.3216e-10
3.38615e-10
2.03712e-10
6.35176e-10
9.09925e-10
5.0134e-14
2.27866e-13
7.44136e-12
1.49881e-11
1.74215e-09
4.50413e-10
1.16599e-13
4.5521e-13
3.8073e-10
7.26133e-10
6.60014e-10
6.81065e-11
9.57715e-13
5.69044e-10
2.35466e-11
5.64491e-13
1.46457e-13
5.7696e-13
7.29335e-14
2.29572e-11
4.00762e-10
6.51581e-10
2.85462e-10
6.16506e-10
8.10844e-13
3.75729e-10
1.04927e-12
3.25761e-10
5.23176e-10
1.99024e-10
5.48063e-10
2.99864e-12
4.61696e-10
3.35221e-14
6.73927e-11
2.50016e-10
1.74695e-10
4.41851e-10
1.92625e-11
3.36193e-10
1.9246e-13
6.59931e-14
2.60607e-13
2.38744e-12
1.29815e-09
1.29038e-09
3.79194e-13
5.66904e-13
2.44215e-10
5.51039e-10
4.58802e-10
9.72927e-12
3.14291e-13
6.76791e-10
2.02993e-10
2.66179e-10
4.16783e-10
2.94401e-13
1.07849e-13
5.00164e-11
3.9006e-10
3.57907e-10
5.17253e-11
6.40069e-10
2.15504e-12
2.43958e-10
2.55252e-13
5.11705e-10
4.18376e-10
2.19767e-11
4.0106e-10
1.24212e-12
4.66674e-10
1.54515e-10
3.52397e-10
5.60896e-10
3.43148e-10
1.18048e-12
1.66832e-12
5.8251e-14
6.02152e-13
4.49869e-10
1.08553e-13
1.40356e-13
2.34319e-13
2.10163e-10
2.778e-13
1.40531e-12
6.75916e-10
9.00027e-10
6.21163e-13
5.83466e-14
3.45343e-13
3.76419e-10
2.18557e-10
4.67887e-13
9.1244e-10
6.0515e-10
1.91308e-10
3.40607e-10
4.01873e-10
7.62932e-11
2.97167e-13
2.22129e-13
4.66268e-13
1.65422e-10
7.10719e-14
6.60202e-11
2.05299e-10
3.26258e-11
9.33945e-10
2.0741e-12
1.07841e-10
8.91352e-11
2.20084e-11
3.72405e-10
3.18408e-10
3.82921e-10
3.21728e-10
8.7689e-10
1.42746e-10
4.21081e-13
1.07407e-11
2.53389e-13
1.67288e-13
5.19605e-10
1.12999e-13
5.20281e-14
5.1361e-10
1.00956e-09
6.9906e-10
3.44727e-10
4.84509e-12
1.01125e-13
4.06032e-13
5.90868e-13
2.15782e-10
4.80192e-14
3.72598e-12
4.2083e-10
4.33749e-10
9.2818e-10
8.86955e-10
3.75913e-10
1.76944e-12
1.29073e-10
4.55282e-13
9.07569e-10
8.19283e-10
3.1393e-13
5.56594e-10
1.40521e-12
2.97604e-10
6.4501e-13
1.58243e-10
3.98807e-10
4.38947e-13
1.07852e-10
3.05644e-13
9.7872e-10
8.58367e-10
1.90254e-13
5.71368e-11
1.61801e-10
3.1915e-12
3.10562e-10
1.39281e-13
3.40963e-14
1.55381e-10
1.24486e-09
3.00971e-10
6.0882e-14
4.01184e-11
8.1518e-10
1.57681e-10
3.08104e-13
6.25028e-10
1.56231e-10
4.81368e-10
2.78701e-13
7.37943e-13
8.67772e-11
2.28254e-10
6.76399e-10
1.61598e-12
4.86657e-10
9.16478e-14
5.03452e-10
1.6382e-10
6.46444e-11
8.6651e-10
4.55415e-10
7.52858e-10
6.4596e-10
4.96702e-10
1.1384e-09
7.49972e-10
6.9979e-10
2.30878e-10
5.56446e-10
1.06308e-10
1.95627e-13
1.33655e-13
8.9857e-10
2.58901e-10
9.42045e-14
1.65136e-13
7.52009e-14
2.42482e-12
5.85257e-10
5.61425e-10
2.78109e-10
9.1161e-14
5.11749e-10
6.42058e-10
1.54939e-10
7.95538e-10
1.13264e-12
5.85037e-10
1.19482e-10
6.29046e-13
4.86073e-10
3.70215e-11
1.29015e-13
2.89042e-13
1.40144e-10
3.58263e-12
5.70969e-10
1.00623e-09
3.51052e-13
3.77586e-13
7.26627e-11
3.18e-11
8.23331e-12
4.78808e-10
3.04056e-14
9.77036e-14
7.50197e-13
2.45802e-13
2.44742e-10
1.92948e-10
2.99031e-13
2.64744e-13
4.43571e-10
3.50223e-11
4.38285e-10
1.31752e-10
2.13258e-10
3.27143e-10
1.24827e-09
7.13453e-10
6.07643e-14
5.06177e-14
3.06177e-10
3.56934e-13
4.59511e-10
1.1764e-09
4.41416e-13
8.38943e-10
7.60256e-10
3.61777e-10
5.82427e-10
4.78386e-10
2.9948e-10
8.8121e-14
1.13096e-09
4.86546e-13
8.42635e-10
9.5289e-10
6.14304e-13
1.29232e-09
6.87257e-10
9.13879e-10
4.64586e-10
2.13189e-09
1.84269e-09
3.22165e-10
1.18338e-12
3.62814e-10
8.0822e-10
8.19463e-10
1.21646e-12
3.65411e-10
4.01046e-10
6.75224e-11
1.01183e-09
7.78246e-13
1.96342e-13
2.829e-10
8.22895e-10
4.33558e-10
5.9218e-10
5.35476e-10
1.10186e-10
5.36328e-10
1.12712e-10
1.82189e-10
1.55573e-13
6.99343e-11
3.32389e-10
1.94086e-12
7.56379e-10
1.22375e-12
4.58578e-11
5.23113e-10
2.79097e-10
1.37185e-10
3.4177e-10
5.10748e-11
3.80763e-13
5.3815e-13
1.56142e-10
1.138e-09
4.61308e-14
5.25974e-14
1.64593e-13
1.49552e-10
1.59731e-13
3.87968e-11
4.42981e-10
3.13315e-10
4.72444e-10
4.05584e-12
6.10809e-13
1.0412e-09
1.67455e-13
1.35112e-09
6.25036e-10
1.43593e-13
2.82719e-10
1.61795e-10
2.54192e-13
3.46357e-10
1.85486e-11
4.39898e-10
5.82607e-12
4.65591e-10
9.38846e-10
3.87775e-10
5.36651e-14
1.63686e-13
1.31174e-14
4.68433e-11
9.81879e-10
1.94361e-10
4.52285e-10
5.86003e-14
3.92788e-10
4.51449e-10
9.06314e-13
6.88598e-13
2.06125e-13
4.70037e-13
1.75355e-09
5.54952e-10
1.32319e-13
1.57381e-13
1.7986e-13
6.65097e-14
5.24046e-14
7.93326e-10
2.94495e-13
1.97824e-13
1.41412e-13
7.22509e-12
6.68115e-13
1.61608e-10
7.1113e-10
1.08729e-09
8.44211e-10
1.9913e-10
1.29227e-13
1.88885e-10
1.07057e-10
1.95241e-13
1.66541e-13
7.74257e-11
5.41499e-10
3.46158e-13
7.28277e-13
1.52872e-10
7.63273e-10
7.4654e-10
9.06026e-14
5.69423e-13
7.27617e-14
1.18433e-10
9.39564e-10
8.98952e-10
7.13423e-10
2.89159e-10
2.36752e-12
7.53802e-10
8.33769e-10
3.53944e-10
3.08648e-10
1.50866e-13
3.92071e-13
1.37824e-09
2.29066e-10
1.07792e-13
5.45851e-10
2.22603e-13
7.61735e-10
2.23164e-09
1.60332e-09
9.47047e-10
4.87912e-14
1.61442e-10
3.5347e-10
7.52685e-10
7.85903e-14
2.18459e-13
6.63419e-13
1.02311e-12
3.79623e-10
1.73184e-10
2.90381e-14
1.86135e-13
9.65666e-10
2.45542e-10
2.32375e-10
2.32414e-13
3.53489e-10
1.557e-12
1.40381e-12
1.48136e-10
1.60409e-10
1.85075e-11
5.67062e-10
2.99437e-10
1.39195e-10
3.16507e-10
7.15586e-14
1.51408e-09
5.50125e-10
1.18496e-10
8.24001e-13
8.43844e-11
1.42072e-09
4.81273e-10
1.66824e-09
7.14312e-10
1.19885e-10
1.36091e-13
1.23525e-09
5.3067e-12
1.53472e-13
2.34286e-13
3.34915e-13
1.04852e-11
7.40542e-10
7.82271e-10
4.54974e-10
1.62072e-12
6.39801e-14
3.12848e-14
5.84213e-10
1.91894e-13
9.15578e-14
6.3245e-11
6.57361e-10
9.09359e-12
3.26369e-10
4.88343e-10
5.89937e-13
1.62743e-12
3.08376e-10
5.69133e-13
1.94123e-10
1.00272e-13
4.95318e-13
1.11479e-09
1.16239e-09
1.30736e-09
2.03163e-11
9.59397e-10
3.30659e-11
1.62353e-09
6.8299e-10
9.69249e-14
1.04499e-10
2.17625e-11
1.06178e-09
1.75183e-09
5.5907e-13
3.48716e-10
2.38494e-13
1.06577e-09
1.4893e-09
7.18683e-10
4.89157e-10
1.79048e-13
1.88701e-10
3.77208e-13
3.91301e-14
3.85444e-10
9.23611e-14
4.1001e-10
1.05712e-09
1.36731e-09
2.9885e-13
1.19942e-13
1.9911e-09
1.53675e-09
3.43019e-12
1.59378e-09
1.54162e-09
1.76061e-09
2.03774e-13
2.94347e-13
1.03852e-09
3.55681e-10
3.60613e-13
1.82483e-13
1.87742e-13
6.94962e-14
7.91795e-10
5.07586e-13
1.82928e-13
5.72327e-10
1.01638e-09
9.41474e-10
4.89312e-14
9.18353e-14
1.41176e-14
1.61506e-13
7.13706e-14
6.35964e-10
3.2282e-13
8.32478e-13
7.7804e-13
1.24318e-13
1.46933e-10
1.57032e-09
2.98902e-12
1.89699e-13
3.27149e-12
4.4461e-10
6.30157e-13
8.44074e-10
4.75477e-13
1.92058e-09
4.99514e-10
1.02871e-13
1.02291e-09
7.32103e-10
6.30956e-10
2.25846e-13
5.94839e-13
8.59188e-10
5.14427e-13
3.15177e-13
1.58204e-09
2.16728e-09
2.00709e-09
8.598e-10
2.66391e-13
4.54673e-13
2.38833e-09
9.67698e-10
4.09325e-13
1.45437e-13
9.24128e-13
1.05612e-09
1.86386e-13
9.20001e-10
1.75714e-10
6.42634e-13
1.00502e-09
3.28858e-11
6.73598e-11
1.21008e-09
8.99788e-13
3.02375e-10
1.6037e-13
7.04838e-10
1.09217e-09
2.13119e-13
1.75563e-09
1.74531e-12
4.54625e-10
8.99628e-10
1.19038e-13
9.2197e-10
8.40842e-13
1.09939e-12
1.32958e-09
1.99492e-10
1.17076e-13
1.061e-12
5.92527e-10
1.68875e-09
7.46418e-10
4.21224e-13
3.7421e-10
5.69184e-13
4.24977e-13
2.26866e-09
2.11969e-13
4.68976e-13
5.17929e-10
6.32966e-10
7.72499e-10
2.31487e-13
8.83581e-13
7.64219e-12
3.57957e-10
9.95748e-10
9.58233e-10
1.73585e-12
6.00057e-13
6.20709e-10
2.68263e-10
1.1533e-09
6.61127e-10
2.07496e-13
2.15632e-12
9.56127e-10
1.36351e-13
4.84229e-13
8.53298e-10
2.04236e-12
9.29094e-13
4.0389e-11
5.51739e-10
2.23493e-09
1.04553e-09
5.1625e-13
4.26767e-10
1.22316e-09
2.74403e-12
6.11856e-12
1.18517e-12
9.14748e-13
3.48152e-14
1.34262e-13
1.53572e-13
2.54873e-13
1.25555e-09
7.73734e-10
1.91688e-09
1.04822e-12
2.26558e-11
1.78551e-09
8.77172e-14
1.95629e-09
4.73087e-09
7.05852e-14
8.49538e-10
7.23746e-10
1.09929e-13
3.88299e-10
8.39688e-12
2.23943e-12
8.1554e-10
2.26668e-13
7.00671e-12
9.06215e-11
9.59389e-14
1.7455e-09
3.27843e-10
4.05981e-10
7.45583e-12
1.98836e-13
5.89965e-12
3.91447e-13
2.9362e-10
2.12476e-09
2.0364e-13
6.92922e-14
1.29336e-09
7.55801e-10
6.94338e-13
2.97164e-10
2.70368e-09
3.31667e-09
2.02688e-09
1.38306e-10
1.13895e-09
1.26511e-12
2.26235e-12
5.87354e-13
1.10004e-11
3.60158e-12
1.46298e-09
1.86155e-10
3.9482e-13
4.51622e-13
7.32793e-10
7.19046e-10
3.23956e-10
8.35861e-10