# y+ ()       
# Time        	patch         	min           	max           	average       
12            	bottomWall	2.226330e+00	5.391576e+00	3.576429e+00
12            	topWall	2.454052e+00	4.621932e+00	3.591660e+00
