/*--------------------------------*- C++ -*----------------------------------*\
  =========                 |
  \\      /  F ield         | OpenFOAM: The Open Source CFD Toolbox
   \\    /   O peration     | Website:  https://openfoam.org
    \\  /    A nd           | Version:  10
     \\/     M anipulation  |
\*---------------------------------------------------------------------------*/
FoamFile
{
    format      ascii;
    class       volScalarField;
    location    "7.5";
    object      nut;
}
// * * * * * * * * * * * * * * * * * * * * * * * * * * * * * * * * * * * * * //

dimensions      [0 2 -1 0 0 0 0];

internalField   nonuniform List<scalar> 
102400
(
6.72947e-12
3.25509e-12
4.75232e-13
7.94363e-13
2.6841e-12
7.13945e-12
2.79298e-12
8.69751e-13
7.11028e-13
3.35888e-12
5.98681e-12
3.12226e-12
1.28547e-12
1.72945e-12
5.77311e-12
9.00179e-12
4.49404e-12
1.27555e-12
1.84773e-12
4.0388e-12
1.03735e-11
3.51731e-12
1.82523e-12
1.81444e-12
6.01205e-12
7.23446e-12
6.27577e-12
2.07596e-12
2.26012e-12
5.91543e-12
4.00517e-12
2.45497e-12
1.04858e-13
2.13827e-13
2.61411e-12
5.05794e-12
3.44381e-12
2.91601e-13
6.48769e-13
3.54055e-12
7.55615e-11
4.65537e-11
2.16875e-11
3.01599e-11
4.97544e-11
8.49089e-11
4.07327e-11
2.69348e-11
2.05327e-11
5.56747e-11
6.71502e-11
5.52297e-11
3.48974e-11
4.59305e-11
8.67511e-11
1.03759e-10
7.58987e-11
3.30518e-11
4.93416e-11
5.71899e-11
1.15403e-10
5.33032e-11
5.41887e-11
4.64929e-11
1.02449e-10
1.07031e-10
1.01879e-10
5.56759e-11
5.75466e-11
7.76098e-11
4.94565e-11
3.10025e-11
6.36883e-12
1.1409e-11
3.26785e-11
5.3167e-11
4.03361e-11
1.23422e-11
2.34965e-11
4.80417e-11
2.64309e-10
1.89964e-10
1.18756e-10
1.72847e-10
2.31746e-10
3.59464e-10
1.86801e-10
1.6318e-10
1.10008e-10
2.31274e-10
2.314e-10
2.29896e-10
1.89636e-10
2.34424e-10
4.03272e-10
4.10978e-10
4.08747e-10
2.18167e-10
2.97001e-10
2.53094e-10
4.00874e-10
2.18797e-10
2.65319e-10
2.48879e-10
4.353e-10
4.39472e-10
4.6843e-10
3.4444e-10
3.85154e-10
4.31841e-10
2.72039e-10
1.70658e-10
5.33518e-11
8.40004e-11
1.38227e-10
1.94032e-10
1.62996e-10
6.9247e-11
1.25928e-10
1.96421e-10
5.1803e-10
3.49864e-10
2.70163e-10
6.07361e-10
6.70487e-10
8.7479e-10
4.02371e-10
5.47528e-10
4.48416e-10
6.76894e-10
4.06654e-10
3.37922e-10
4.99938e-10
7.13504e-10
1.2635e-09
8.25307e-10
9.4727e-10
8.20759e-10
1.31103e-09
1.0524e-09
8.88169e-10
4.36633e-10
6.34044e-10
8.11755e-10
1.18292e-09
8.45063e-10
9.21437e-10
1.01055e-09
1.70285e-09
2.08845e-09
9.91184e-10
6.2315e-10
2.35047e-10
4.81201e-10
5.46785e-10
4.43062e-10
3.59749e-10
2.10959e-10
4.65364e-10
6.63115e-10
1.33472e-09
3.6828e-10
2.21507e-10
1.6952e-09
2.5727e-09
2.22138e-09
3.35711e-10
6.25187e-10
1.59794e-09
3.33113e-09
1.05779e-09
1.74368e-10
4.02774e-10
1.41757e-09
4.23962e-09
1.61584e-09
6.56749e-10
8.91708e-10
3.58352e-09
5.61413e-09
2.78827e-09
4.876e-10
7.09794e-10
2.41787e-09
4.64463e-09
1.82567e-09
6.11209e-10
8.07214e-10
3.83152e-09
1.08316e-08
3.63216e-09
1.48759e-09
3.91002e-10
1.95061e-09
3.57732e-09
1.45842e-09
4.57538e-10
2.65484e-10
1.43933e-09
3.8664e-09
1.31621e-08
7.99506e-10
5.57864e-10
6.8711e-10
1.23253e-08
1.87998e-08
4.60065e-10
3.19855e-10
6.7489e-10
1.69452e-08
1.18837e-08
3.15478e-10
4.50734e-10
3.80621e-10
1.34368e-08
9.21242e-09
5.27456e-10
3.74685e-10
1.12311e-09
2.03313e-08
1.8868e-08
6.92445e-10
2.58359e-10
1.50481e-09
2.31488e-08
2.11609e-08
7.81322e-10
3.61362e-10
8.14955e-10
3.29804e-08
2.02637e-08
3.5895e-09
1.85e-10
7.7251e-10
2.10718e-08
1.60981e-08
9.43974e-10
4.12404e-10
4.48921e-10
2.39272e-08
9.04915e-08
1.93024e-08
7.55231e-09
1.22576e-08
2.2789e-09
9.96139e-08
1.38375e-08
4.11485e-09
9.33717e-09
4.79563e-09
7.28527e-08
1.06081e-08
6.69833e-09
1.28235e-08
4.48347e-09
3.94282e-08
5.3709e-09
7.65187e-09
8.72353e-09
4.77493e-09
7.79777e-08
8.92867e-09
1.08315e-08
7.63035e-09
6.23722e-09
1.32858e-07
1.9053e-08
2.27931e-09
1.0823e-08
7.08103e-09
5.80526e-08
1.79908e-08
4.58805e-09
9.63809e-09
6.30263e-09
8.7017e-08
1.53385e-08
4.69696e-09
1.48323e-08
6.39775e-09
2.18266e-08
6.59228e-08
1.30103e-08
1.03029e-07
4.61597e-08
1.89589e-08
4.24559e-08
1.11476e-08
9.26241e-08
2.76801e-08
3.49362e-08
2.88376e-08
1.32834e-08
1.0668e-07
2.22594e-08
2.14463e-08
1.24088e-08
1.82488e-08
1.03901e-07
2.64827e-08
2.88726e-08
3.85772e-08
2.5988e-08
1.04392e-07
2.74783e-08
1.59693e-08
4.41816e-08
1.84787e-08
5.92365e-08
2.12507e-08
2.65433e-08
2.24572e-08
1.78945e-08
9.2185e-08
2.13216e-08
2.11197e-08
3.83846e-08
1.5943e-08
1.27778e-07
3.16723e-08
6.86674e-08
5.33189e-08
1.9098e-08
9.24228e-08
1.71084e-07
7.33635e-08
5.89491e-08
1.74475e-08
1.11743e-07
8.67171e-08
1.10284e-07
5.40411e-08
2.05732e-08
1.14615e-07
9.92497e-08
9.1707e-08
6.17321e-08
2.24018e-08
1.50204e-07
1.36606e-07
5.50389e-08
9.43699e-08
2.40022e-08
1.36346e-07
1.47998e-07
7.24754e-08
7.67038e-08
2.11544e-08
8.1369e-08
7.40405e-08
6.85914e-08
1.90148e-07
1.50596e-08
1.30625e-07
1.09664e-07
5.20652e-08
1.11674e-07
1.66551e-08
1.46286e-07
1.43606e-07
1.10373e-07
4.72833e-07
5.09472e-07
1.47336e-07
1.49387e-07
1.00159e-07
5.7921e-07
3.5048e-07
1.33405e-07
1.30467e-07
1.38177e-07
6.42071e-07
3.23433e-07
1.36904e-07
1.2923e-07
1.19805e-07
6.3966e-07
6.34988e-07
1.70132e-07
1.55763e-07
1.05951e-07
6.59752e-07
5.80002e-07
1.67967e-07
1.5623e-07
9.85405e-08
5.33448e-07
4.4587e-07
1.42835e-07
1.58665e-07
1.11457e-07
6.23779e-07
9.86948e-07
1.4044e-07
1.82249e-07
7.2638e-08
5.44334e-07
5.45063e-07
2.04509e-07
1.62547e-07
3.12561e-07
5.62172e-07
2.74628e-06
5.99003e-07
3.94782e-07
3.01665e-07
9.97547e-07
2.17454e-06
4.30238e-07
3.53037e-07
4.75597e-07
1.27869e-06
2.26592e-06
5.86334e-07
2.93519e-07
4.00289e-07
7.91433e-07
2.97788e-06
8.38278e-07
3.17046e-07
3.54393e-07
4.56764e-07
3.03738e-06
7.76277e-07
3.1592e-07
2.15816e-07
5.19204e-07
2.12538e-06
3.71892e-07
3.94468e-07
3.30839e-07
4.33836e-07
3.37132e-06
6.61571e-07
4.61841e-07
3.25839e-07
7.82197e-07
2.56873e-06
1.05918e-06
3.88959e-07
6.46621e-07
5.39971e-07
3.44305e-06
2.28707e-06
1.30833e-06
6.52806e-07
7.93911e-07
3.13594e-06
1.3631e-06
9.70623e-07
8.15469e-07
8.45404e-07
2.85765e-06
1.67352e-06
8.01126e-07
7.28207e-07
5.56845e-07
3.54862e-06
1.88906e-06
8.87411e-07
8.04064e-07
3.71416e-07
3.03959e-06
2.08671e-06
8.67571e-07
4.90384e-07
4.37032e-07
3.26498e-06
1.45529e-06
9.56084e-07
6.73609e-07
4.37792e-07
4.4244e-06
1.55229e-06
1.38917e-06
6.78979e-07
7.13456e-07
3.25118e-06
2.18889e-06
1.35126e-06
2.64072e-06
2.19604e-06
6.4612e-06
1.81166e-06
3.10523e-06
2.47946e-06
2.16136e-06
9.13068e-06
1.57113e-06
1.61625e-06
3.03345e-06
2.07126e-06
7.39791e-06
1.61206e-06
1.61877e-06
2.99967e-06
2.08695e-06
1.36082e-05
1.81465e-06
1.86845e-06
3.38113e-06
2.14875e-06
6.79817e-06
1.87032e-06
2.52714e-06
2.60908e-06
1.8513e-06
6.72334e-06
1.57679e-06
2.37101e-06
2.95437e-06
2.2299e-06
9.82564e-06
1.62324e-06
3.92051e-06
2.82903e-06
2.61568e-06
4.26204e-06
1.44542e-06
2.86433e-06
1.45864e-06
3.62854e-06
1.49711e-06
2.38754e-06
6.42492e-06
1.62053e-06
2.69143e-06
1.79858e-06
2.18033e-06
5.97584e-06
1.66431e-06
2.5687e-06
1.85204e-06
2.27385e-06
5.89674e-06
1.85513e-06
2.84944e-06
2.27869e-06
2.37712e-06
5.02662e-06
1.7367e-06
3.05958e-06
1.4755e-06
2.37011e-06
5.83718e-06
1.95483e-06
2.87223e-06
1.4484e-06
2.10828e-06
6.0622e-06
1.8523e-06
3.62348e-06
1.51897e-06
2.38634e-06
7.02124e-06
1.74997e-06
3.81692e-06
1.53051e-06
2.19793e-06
6.05511e-06
1.40967e-06
9.17545e-07
9.7154e-07
1.65783e-06
3.98767e-06
1.50766e-06
9.43194e-07
7.55934e-07
1.50474e-06
3.47073e-06
1.71205e-06
9.82168e-07
8.74766e-07
1.59848e-06
3.50425e-06
1.60056e-06
8.96756e-07
8.26147e-07
1.49945e-06
3.488e-06
1.76058e-06
8.32616e-07
8.94507e-07
1.49112e-06
3.62419e-06
1.33764e-06
7.64658e-07
8.89197e-07
1.5368e-06
3.65124e-06
1.51467e-06
1.01584e-06
1.00408e-06
1.60991e-06
4.55216e-06
1.48226e-06
9.28781e-07
1.01293e-06
1.60624e-06
4.0152e-06
8.37868e-07
6.62028e-07
8.34194e-07
6.65646e-07
6.36674e-07
9.38271e-07
6.32983e-07
6.32696e-07
5.45191e-07
6.73325e-07
1.01135e-06
6.97461e-07
7.59488e-07
5.83796e-07
7.39798e-07
9.33577e-07
5.99299e-07
7.51003e-07
7.06803e-07
6.31928e-07
1.01723e-06
5.74274e-07
7.67999e-07
7.37977e-07
6.85551e-07
7.44101e-07
5.63746e-07
7.12749e-07
6.21739e-07
8.13523e-07
9.02778e-07
6.94756e-07
8.66013e-07
7.57163e-07
8.06933e-07
8.7616e-07
6.35555e-07
7.97571e-07
7.16889e-07
6.68107e-07
5.06631e-07
4.72313e-07
6.24432e-07
3.86149e-07
3.71629e-07
6.44822e-07
4.21336e-07
4.25688e-07
3.39977e-07
4.54185e-07
6.37883e-07
4.91771e-07
5.37805e-07
3.13016e-07
3.44515e-07
5.92103e-07
4.11912e-07
5.25868e-07
4.44102e-07
2.67422e-07
6.48515e-07
3.68758e-07
5.02065e-07
5.20524e-07
4.1121e-07
4.5901e-07
3.92879e-07
4.84635e-07
3.62862e-07
3.30126e-07
5.95446e-07
4.68483e-07
6.09774e-07
5.24529e-07
3.96623e-07
5.63474e-07
4.2307e-07
5.30265e-07
5.32692e-07
4.35016e-07
2.63891e-07
9.61128e-08
3.58811e-07
1.70881e-07
1.5821e-07
4.21654e-07
1.00534e-07
1.17707e-07
1.00945e-07
2.12738e-07
3.96645e-07
1.08343e-07
1.82216e-07
9.87124e-08
1.22678e-07
3.38863e-07
7.51722e-08
2.37055e-07
1.84925e-07
7.81624e-08
4.14672e-07
7.16707e-08
1.90147e-07
2.44885e-07
1.14583e-07
2.2201e-07
6.19276e-08
1.58753e-07
1.32443e-07
1.05573e-07
3.5976e-07
1.59705e-07
3.71026e-07
2.78397e-07
1.71195e-07
3.71859e-07
1.37394e-07
2.76336e-07
3.23492e-07
2.02187e-07
2.2438e-08
7.73486e-09
4.89389e-08
1.71353e-08
1.92625e-08
6.81698e-08
7.55214e-09
1.05012e-08
8.95711e-09
2.37796e-08
7.27135e-08
6.96928e-09
1.29236e-08
8.67396e-09
1.45656e-08
2.64948e-08
5.26672e-09
2.32411e-08
1.43714e-08
8.03775e-09
5.87947e-08
5.06909e-09
1.25113e-08
2.18063e-08
1.19167e-08
1.57619e-08
4.22155e-09
1.12894e-08
1.1689e-08
1.13551e-08
3.74564e-08
1.64128e-08
7.54422e-08
2.89562e-08
1.91154e-08
6.50992e-08
1.26573e-08
3.20677e-08
4.42886e-08
2.61434e-08
1.10658e-09
8.07677e-10
3.76316e-09
1.28877e-09
2.12097e-09
4.0154e-09
7.36011e-10
9.72648e-10
8.36774e-10
2.14872e-09
4.62955e-09
5.3541e-10
7.99458e-10
7.97858e-10
1.56241e-09
1.19224e-09
5.11254e-10
1.9119e-09
1.01959e-09
7.30397e-10
3.31895e-09
5.96945e-10
6.91364e-10
1.45194e-09
1.15182e-09
1.03453e-09
4.76797e-10
6.19546e-10
1.07037e-09
1.1146e-09
2.29355e-09
1.82112e-09
6.52323e-09
1.87075e-09
1.51845e-09
5.19363e-09
1.551e-09
1.97361e-09
3.99633e-09
2.63784e-09
9.79912e-11
8.86006e-11
2.37255e-10
1.26654e-10
2.48695e-10
2.30948e-10
7.79396e-11
1.0038e-10
8.77693e-11
2.08525e-10
3.27959e-10
4.38491e-11
5.39991e-11
7.95623e-11
1.76683e-10
7.88262e-11
4.58795e-11
2.01695e-10
8.81982e-11
7.11449e-11
2.14605e-10
7.64303e-11
6.07806e-11
8.66444e-11
1.1829e-10
1.05389e-10
6.82089e-11
4.68809e-11
1.00668e-10
1.47519e-10
1.65935e-10
1.9778e-10
6.44615e-10
1.4344e-10
1.27695e-10
4.92607e-10
1.987e-10
1.59292e-10
3.33458e-10
2.42625e-10
1.15842e-11
1.10456e-11
1.0733e-11
1.44873e-11
2.88092e-11
1.68851e-11
8.72434e-12
8.40678e-12
9.79897e-12
1.9446e-11
2.66531e-11
4.13546e-12
3.90372e-12
8.30159e-12
1.89004e-11
7.50936e-12
4.0183e-12
1.75431e-11
9.0953e-12
6.88886e-12
1.33974e-11
9.39359e-12
6.3533e-12
6.01473e-12
1.09031e-11
1.2982e-11
1.2461e-11
5.31312e-12
7.82892e-12
2.38855e-11
1.40491e-11
2.11803e-11
6.03896e-11
1.1468e-11
1.13176e-11
4.20771e-11
2.30912e-11
1.49369e-11
2.06346e-11
1.84322e-11
1.72669e-12
1.56576e-12
4.65696e-13
1.46594e-12
2.64251e-12
1.56967e-12
9.44261e-13
5.1011e-13
1.06371e-12
1.77531e-12
2.46308e-12
3.36675e-13
3.37909e-13
8.05561e-13
2.24708e-12
1.19414e-12
3.58196e-13
1.50378e-12
9.72767e-13
6.79041e-13
9.86004e-13
1.04087e-12
7.72874e-13
5.37727e-13
8.19545e-13
1.96813e-12
2.63324e-12
8.08303e-13
7.48081e-13
4.09645e-12
1.51151e-12
2.51445e-12
4.74891e-12
9.95701e-13
1.11033e-12
2.98594e-12
2.21797e-12
1.87897e-12
1.44477e-12
1.05194e-12
2.50915e-13
1.64114e-13
2.947e-14
1.0316e-13
1.34313e-13
1.59368e-13
1.12409e-13
1.7328e-14
1.25304e-13
1.49603e-13
2.28583e-13
2.85878e-14
2.79841e-14
6.69452e-14
3.38263e-13
2.07743e-13
2.57515e-14
1.42451e-13
7.89764e-14
7.07957e-14
8.00589e-14
9.17811e-14
1.18562e-13
5.62613e-14
5.34697e-14
3.18068e-13
6.02129e-13
1.26025e-13
5.87678e-14
6.06154e-13
1.47502e-13
4.28866e-13
4.05708e-13
7.77383e-14
1.37202e-13
1.30203e-13
1.7209e-13
3.35753e-13
1.38649e-13
6.54517e-14
1.90093e-14
7.72632e-15
4.63248e-15
1.14454e-14
3.83296e-15
1.70987e-14
1.11809e-14
1.7279e-15
1.98839e-14
9.9023e-15
2.66121e-14
2.40447e-15
1.36272e-15
4.40804e-15
6.59693e-14
3.61743e-14
1.71678e-15
1.21008e-14
5.31894e-15
1.22534e-14
7.155e-15
7.4729e-15
2.08519e-14
7.90587e-15
5.04995e-15
5.03886e-14
1.23905e-13
1.61322e-14
3.19212e-15
6.03809e-14
1.05714e-14
1.21093e-13
5.7091e-14
9.1141e-15
3.03654e-14
3.1562e-15
1.69586e-14
4.82057e-14
1.23651e-14
5.00732e-15
5.6453e-16
1.6178e-16
1.65385e-15
1.19963e-15
1.69527e-16
1.30992e-15
5.69333e-16
3.39621e-15
4.09047e-15
4.80042e-16
3.53779e-15
2.86722e-16
5.23575e-17
2.79497e-16
1.30386e-14
4.74195e-15
3.11773e-16
9.55365e-16
3.59225e-16
3.62925e-15
4.87907e-16
5.169e-16
3.73601e-15
1.68754e-15
4.84663e-16
5.85374e-15
1.74515e-14
1.92757e-15
5.00391e-17
2.88235e-15
1.00518e-15
4.71574e-14
8.28539e-15
2.83049e-15
1.00755e-14
7.11282e-17
1.60389e-15
2.58639e-15
3.1548e-16
8.40059e-16
4.36837e-17
2.19926e-17
3.31594e-16
6.81735e-17
5.95205e-17
6.46336e-17
5.25464e-16
2.75084e-15
5.07767e-16
3.66512e-17
5.94722e-16
3.14423e-17
1.06332e-17
2.67571e-17
1.89158e-15
5.97401e-16
2.07676e-16
1.15016e-16
1.93145e-17
2.95377e-16
2.38198e-17
2.0284e-16
1.2027e-15
3.45765e-16
1.16168e-17
3.24303e-16
1.95235e-15
2.22876e-16
5.24255e-20
1.01506e-17
1.10885e-15
1.78992e-14
7.40661e-16
7.85436e-16
1.73844e-15
5.68969e-18
1.08625e-16
3.81251e-18
5.16588e-18
7.17734e-16
3.6814e-18
1.16657e-17
1.06281e-17
3.3663e-18
1.74317e-16
1.0375e-16
4.22941e-16
4.67256e-16
2.32812e-18
1.33823e-16
2.68365e-16
1.11757e-16
6.02062e-18
5.59547e-18
7.69513e-16
1.17821e-16
9.20538e-18
3.03503e-17
8.73479e-19
4.96241e-17
3.24651e-17
1.8484e-17
5.22983e-16
1.3673e-17
1.04541e-17
5.52109e-18
2.02432e-16
6.62692e-17
1.35321e-18
2.71075e-18
1.26381e-15
4.6042e-15
8.77983e-17
8.87645e-17
2.40267e-17
4.38633e-17
7.76616e-17
6.22278e-19
1.84951e-17
3.54352e-16
3.82027e-18
1.60369e-17
1.34357e-18
1.16757e-17
1.6182e-16
5.50664e-17
9.36141e-17
4.11246e-18
1.28364e-18
5.27491e-16
1.01693e-16
5.74168e-17
4.53157e-18
1.60312e-18
7.06609e-16
4.25405e-17
1.97067e-19
2.36168e-17
6.03434e-19
7.63776e-17
2.18275e-18
1.31829e-17
3.65481e-17
5.79009e-20
7.2326e-18
1.55568e-19
6.73557e-17
4.1199e-17
1.89994e-17
2.43122e-17
1.01436e-15
9.2089e-16
1.62786e-17
1.07947e-19
3.58874e-18
4.07036e-16
4.15336e-17
2.9017e-18
2.21836e-17
3.99808e-18
3.40443e-17
2.53818e-18
3.59674e-18
2.39625e-17
5.90612e-18
1.23221e-17
5.96102e-18
4.71271e-19
2.09728e-17
1.56729e-16
1.09378e-17
1.40025e-17
3.5723e-19
7.00285e-17
2.07955e-16
6.05288e-18
1.52281e-19
2.96158e-17
5.74165e-17
2.30794e-17
2.0747e-19
7.20633e-17
1.57846e-16
1.02398e-17
7.53614e-18
3.32935e-18
9.49065e-17
2.78817e-17
1.56966e-17
1.5163e-16
1.12241e-15
2.08549e-16
9.09804e-18
2.73435e-17
4.7544e-16
4.65989e-16
1.02422e-17
2.39062e-18
3.33387e-22
3.47072e-19
6.31824e-17
1.79103e-17
5.75738e-17
5.40266e-19
3.03941e-19
8.05176e-17
2.00885e-17
7.29267e-19
4.73463e-18
6.38646e-18
3.87678e-19
4.39085e-19
6.48967e-18
4.49659e-17
9.18821e-18
4.59793e-18
3.60885e-17
8.60848e-17
3.79907e-17
8.34396e-19
1.10591e-18
7.82015e-17
5.08469e-16
2.27419e-17
3.90984e-18
1.30959e-17
1.49253e-16
6.25766e-17
9.24109e-18
4.01488e-16
5.93578e-16
1.03349e-17
1.85437e-17
6.83457e-16
1.04419e-15
5.53655e-17
7.82075e-19
3.85001e-18
1.4663e-17
1.45298e-16
5.4683e-18
2.18506e-17
4.10969e-16
5.46819e-18
4.29527e-17
1.02916e-17
1.28485e-17
1.01316e-17
5.80304e-19
6.94007e-20
1.55234e-18
1.89061e-18
6.20464e-18
1.91418e-18
7.55078e-18
4.51578e-17
4.25342e-17
2.58579e-17
2.22018e-16
1.14366e-17
4.77315e-18
5.86237e-17
1.36847e-15
8.59091e-18
1.2772e-17
2.14975e-17
1.85968e-16
1.31972e-16
2.51558e-17
2.85003e-16
3.64565e-16
3.27521e-17
5.78528e-17
9.85619e-16
1.828e-16
4.25576e-18
6.6854e-19
9.27483e-18
1.64903e-16
2.57927e-17
5.45175e-12
3.99091e-12
1.51998e-12
1.59106e-12
3.20057e-12
5.15222e-12
3.14518e-12
1.53492e-12
1.05001e-12
3.31203e-12
3.65848e-12
3.24181e-12
1.62111e-12
2.4191e-12
3.75461e-12
7.21597e-12
3.70871e-12
3.14669e-12
1.93765e-12
5.12289e-12
5.65484e-12
2.95803e-12
1.27907e-12
1.52204e-12
3.78863e-12
7.20453e-12
4.14104e-12
3.14042e-12
2.67368e-12
5.17976e-12
7.35443e-12
4.75403e-12
2.08268e-12
3.58844e-12
6.09864e-12
9.6107e-12
4.70527e-12
3.29072e-12
1.76399e-12
4.87049e-12
7.46952e-11
6.37259e-11
3.46525e-11
3.84675e-11
5.1954e-11
7.25624e-11
4.65743e-11
3.31914e-11
2.38164e-11
4.83633e-11
4.79049e-11
4.75939e-11
2.93725e-11
4.66115e-11
5.60666e-11
1.02024e-10
6.5018e-11
6.86124e-11
4.98893e-11
8.4318e-11
7.90841e-11
5.37684e-11
3.25174e-11
3.78684e-11
5.90298e-11
9.04178e-11
6.10746e-11
5.80593e-11
5.19341e-11
7.918e-11
9.04317e-11
7.4584e-11
4.53488e-11
7.19125e-11
9.22325e-11
1.40167e-10
8.14023e-11
7.20815e-11
4.6532e-11
8.12304e-11
2.8653e-10
2.47405e-10
1.42636e-10
1.58329e-10
1.95572e-10
2.64509e-10
1.77026e-10
1.47597e-10
1.08184e-10
1.86125e-10
1.55154e-10
1.53023e-10
9.00834e-11
1.45942e-10
1.58474e-10
2.93267e-10
2.13513e-10
2.62371e-10
2.21505e-10
3.43803e-10
3.13745e-10
2.23746e-10
1.44495e-10
1.68776e-10
2.01651e-10
2.80116e-10
1.77314e-10
2.00745e-10
1.91203e-10
3.01079e-10
2.90721e-10
2.62053e-10
1.51782e-10
2.582e-10
2.90645e-10
4.64881e-10
3.08225e-10
3.0512e-10
2.29258e-10
3.33067e-10
6.374e-10
3.44313e-10
2.11593e-10
3.44797e-10
5.21768e-10
5.21875e-10
2.12396e-10
1.90684e-10
2.33033e-10
6.04848e-10
3.14735e-10
1.6567e-10
8.60698e-11
2.24006e-10
2.80442e-10
2.77093e-10
1.27466e-10
2.4101e-10
4.10011e-10
8.65403e-10
6.06988e-10
2.35766e-10
1.53583e-10
4.68693e-10
7.01212e-10
6.43873e-10
1.53299e-10
1.73232e-10
2.53139e-10
7.14438e-10
4.97538e-10
3.05145e-10
1.16948e-10
4.05437e-10
6.21467e-10
6.71987e-10
3.24321e-10
3.61512e-10
5.12337e-10
1.00088e-09
2.35834e-09
2.21176e-10
3.70645e-11
7.94348e-11
9.53927e-10
2.0028e-09
1.91304e-10
4.31582e-11
4.85572e-11
1.40069e-09
1.58082e-09
1.20086e-10
6.743e-11
7.28626e-11
7.15223e-10
9.71007e-10
1.57308e-11
2.23661e-10
9.05278e-11
1.46616e-09
2.24088e-09
8.31073e-11
2.99338e-10
8.56097e-11
1.74998e-09
3.78346e-09
2.46052e-10
5.68691e-11
7.80864e-11
8.92495e-10
1.2943e-09
2.15459e-10
3.80428e-11
5.18092e-11
8.24436e-10
1.60716e-09
1.36908e-10
2.5581e-11
7.83752e-11
1.74083e-09
8.28197e-09
1.92246e-09
1.74357e-09
1.01165e-08
7.13669e-10
9.93388e-09
1.97931e-09
2.36048e-09
1.14456e-08
1.22109e-09
8.06575e-09
2.35219e-09
1.40147e-09
1.79621e-08
1.82733e-09
1.33665e-08
9.15239e-10
1.48073e-08
2.35289e-08
2.06187e-09
1.17404e-08
4.818e-09
1.67467e-08
3.44351e-08
1.10457e-09
1.788e-08
5.07362e-09
1.71257e-09
1.09265e-08
2.32518e-09
4.28118e-09
2.17662e-09
2.07844e-09
2.12095e-08
1.90151e-09
6.93909e-09
1.17943e-09
3.7454e-09
1.18121e-08
1.11352e-09
3.10267e-08
7.06111e-08
7.54758e-09
2.76175e-07
1.29513e-07
4.05615e-08
4.25952e-08
1.78019e-08
1.75585e-07
2.06431e-07
3.35027e-08
8.53377e-08
2.13924e-09
3.02159e-07
1.7858e-07
5.66688e-08
7.23662e-08
1.99408e-08
4.13207e-07
2.38366e-07
5.00735e-08
1.26391e-07
1.15226e-08
6.64737e-07
2.38243e-07
4.68669e-08
7.22572e-08
4.01387e-08
1.48808e-07
1.99279e-07
4.67589e-08
5.36938e-08
8.56043e-09
2.93373e-07
1.71639e-07
5.81303e-08
3.47056e-08
3.27017e-08
1.68572e-07
2.23952e-07
7.33855e-07
3.5069e-07
1.05453e-07
7.94771e-07
1.42093e-06
8.75408e-07
2.52866e-07
1.60521e-07
4.71309e-07
3.06327e-06
7.81626e-07
3.53683e-07
1.34382e-07
5.94042e-07
2.00113e-06
9.37903e-07
2.55202e-07
1.53857e-07
7.01996e-07
3.06345e-06
8.75611e-07
3.41008e-07
1.51666e-07
1.08009e-06
2.19513e-06
9.34941e-07
2.95024e-07
2.95694e-07
8.3759e-07
2.29052e-06
6.50562e-07
3.37102e-07
1.01834e-07
5.76501e-07
9.97278e-07
8.96774e-07
2.78427e-07
1.43172e-07
3.44343e-07
2.18684e-06
3.29984e-06
9.47929e-07
4.33127e-07
1.07824e-06
8.09095e-06
4.53472e-06
9.85457e-07
5.59118e-07
7.52104e-07
2.17627e-05
3.49509e-06
1.25455e-06
4.49733e-07
8.22826e-07
1.14407e-05
4.30772e-06
8.88971e-07
3.7246e-07
7.31262e-07
2.1091e-05
4.30555e-06
1.02069e-06
4.0469e-07
1.26505e-06
1.07878e-05
4.62144e-06
1.01267e-06
5.46149e-07
1.39996e-06
1.81897e-05
2.91624e-06
9.15108e-07
4.49282e-07
8.73459e-07
4.28442e-06
3.123e-06
8.73321e-07
4.17741e-07
7.73837e-07
1.17284e-05
3.59137e-05
2.24004e-06
9.03861e-07
4.59267e-06
2.99411e-05
4.04327e-05
2.56715e-06
6.92549e-07
3.03884e-06
3.91533e-05
3.54591e-05
3.10342e-06
7.42891e-07
3.18857e-06
3.10394e-05
3.92912e-05
2.32495e-06
7.67467e-07
2.23488e-06
3.65902e-05
4.03875e-05
3.14449e-06
1.16592e-06
5.80649e-06
3.33099e-05
3.82627e-05
2.6865e-06
6.95466e-07
5.51088e-06
3.54729e-05
3.68105e-05
2.08694e-06
1.52088e-06
4.00949e-06
2.51902e-05
3.47965e-05
1.97943e-06
8.96651e-07
2.21638e-06
3.31846e-05
2.50811e-05
7.67933e-06
4.17561e-06
2.68544e-06
2.32263e-05
2.70491e-05
5.85113e-06
2.62409e-06
2.65316e-06
2.72744e-05
2.85566e-05
5.69674e-06
2.55853e-06
2.31531e-06
2.68586e-05
2.55381e-05
6.89245e-06
2.78863e-06
2.29672e-06
2.60387e-05
2.7651e-05
7.56983e-06
6.23999e-06
3.698e-06
2.45996e-05
2.32389e-05
8.05609e-06
2.95614e-06
3.71064e-06
2.64237e-05
2.66273e-05
8.94537e-06
1.10303e-05
4.77388e-06
2.30538e-05
2.72746e-05
8.29073e-06
4.06984e-06
3.26644e-06
2.32973e-05
1.33585e-05
2.32043e-06
7.65913e-06
3.33889e-06
2.79182e-06
1.47142e-05
1.60166e-06
5.52114e-06
3.48336e-06
7.08443e-06
1.2524e-05
1.35856e-06
5.69601e-06
3.19191e-06
7.9309e-06
1.14744e-05
1.74995e-06
5.16694e-06
2.74326e-06
4.29117e-06
1.27234e-05
1.62762e-06
8.24467e-06
3.0986e-06
6.92038e-06
1.13996e-05
1.81576e-06
5.73112e-06
4.0039e-06
7.76503e-06
1.09716e-05
2.05462e-06
1.072e-05
4.76572e-06
5.08421e-06
1.40749e-05
2.13461e-06
7.12212e-06
3.84544e-06
3.46007e-06
1.27547e-05
1.04226e-06
2.5104e-06
3.40114e-06
1.81102e-06
1.45816e-05
7.55915e-07
2.79463e-06
4.13282e-06
1.68836e-06
1.15419e-05
8.41418e-07
2.99401e-06
4.14577e-06
1.82254e-06
1.18133e-05
7.6657e-07
2.03111e-06
3.03235e-06
1.83726e-06
1.34675e-05
1.20556e-06
2.30237e-06
3.53513e-06
1.66853e-06
1.49125e-05
1.01386e-06
1.97175e-06
5.34625e-06
1.74178e-06
1.0298e-05
1.27909e-06
3.60335e-06
5.77396e-06
1.92897e-06
1.36646e-05
1.23837e-06
2.48653e-06
3.85797e-06
1.91436e-06
4.46043e-06
2.71772e-06
6.51494e-07
2.07327e-06
7.80915e-07
5.5112e-06
2.67357e-06
7.20457e-07
2.84091e-06
9.44929e-07
4.68388e-06
2.9192e-06
5.76513e-07
2.80692e-06
9.2001e-07
4.43324e-06
2.82013e-06
6.67923e-07
1.40962e-06
7.49722e-07
4.57794e-06
3.11616e-06
6.81083e-07
1.68263e-06
8.70583e-07
4.87819e-06
2.85928e-06
8.07464e-07
3.34663e-06
8.79893e-07
4.58891e-06
2.76961e-06
5.8683e-07
3.74812e-06
8.2318e-07
5.09878e-06
3.17829e-06
4.53259e-07
2.55771e-06
8.31653e-07
1.80215e-06
1.26537e-06
1.12509e-06
3.8356e-07
5.0598e-07
1.89302e-06
1.37846e-06
1.01149e-06
7.24261e-07
6.21066e-07
2.02443e-06
1.50922e-06
9.2625e-07
7.14125e-07
5.88934e-07
1.91232e-06
1.46133e-06
9.93216e-07
5.24781e-07
3.90687e-07
2.03023e-06
1.34935e-06
1.0834e-06
6.10104e-07
6.14734e-07
1.68615e-06
1.17013e-06
1.06602e-06
9.33219e-07
5.83099e-07
1.82347e-06
1.06815e-06
1.0951e-06
9.23344e-07
5.87793e-07
1.9155e-06
1.33863e-06
9.10042e-07
5.2632e-07
5.34433e-07
1.01594e-06
2.36287e-07
8.15419e-07
3.13568e-07
4.97648e-07
1.06066e-06
3.48325e-07
6.86142e-07
2.41548e-07
5.4223e-07
1.19498e-06
3.99065e-07
6.73048e-07
2.82599e-07
5.18524e-07
1.12729e-06
3.07872e-07
7.1091e-07
4.0337e-07
3.79277e-07
1.18454e-06
3.43932e-07
7.77916e-07
4.46914e-07
5.51926e-07
9.50129e-07
2.69293e-07
7.50577e-07
3.48091e-07
5.07514e-07
1.01621e-06
1.8042e-07
8.15036e-07
4.46832e-07
5.31105e-07
1.06207e-06
2.79082e-07
6.85789e-07
3.15702e-07
4.84147e-07
5.56481e-07
1.61234e-08
4.66555e-07
2.27286e-07
2.21021e-07
6.16384e-07
5.69924e-08
2.96264e-07
8.89048e-08
3.45293e-07
6.95111e-07
7.96241e-08
3.42421e-07
1.43893e-07
3.13328e-07
6.56487e-07
3.15697e-08
3.70074e-07
2.59624e-07
1.89714e-07
6.72898e-07
3.93931e-08
4.46318e-07
2.7965e-07
3.33552e-07
5.42269e-07
2.99102e-08
4.21687e-07
1.57891e-07
2.73693e-07
5.54563e-07
7.72677e-09
4.71923e-07
2.71665e-07
2.77079e-07
5.84275e-07
3.10038e-08
3.95287e-07
2.36896e-07
2.32295e-07
1.01717e-07
7.27943e-10
8.373e-08
3.18768e-08
8.16441e-09
2.15765e-07
3.53311e-09
1.55497e-08
1.02862e-08
1.74561e-08
2.79374e-07
4.66204e-09
2.42243e-08
1.67588e-08
1.55319e-08
2.3294e-07
1.67263e-09
2.58396e-08
3.13613e-08
7.10414e-09
2.4154e-07
1.85156e-09
4.78118e-08
3.42955e-08
1.10255e-08
1.01291e-07
1.78119e-09
4.78546e-08
1.74796e-08
7.47324e-09
1.19079e-07
3.65371e-10
7.83874e-08
3.67863e-08
7.04473e-09
1.3683e-07
1.71513e-09
4.85586e-08
3.80486e-08
7.26837e-09
2.47266e-09
8.0109e-11
4.79292e-09
2.62822e-09
6.22684e-10
1.12641e-08
4.66398e-10
6.27123e-10
8.95421e-10
1.01254e-09
1.26607e-08
4.11273e-10
8.93583e-10
1.36157e-09
1.16631e-09
9.90931e-09
1.7259e-10
8.31601e-10
2.09692e-09
7.27025e-10
9.09432e-09
1.55148e-10
2.16898e-09
2.38355e-09
4.67603e-10
3.16905e-09
1.67249e-10
2.336e-09
1.55392e-09
2.97024e-10
3.84517e-09
9.41763e-11
2.78334e-09
2.2545e-09
3.11174e-10
3.75757e-09
1.85227e-10
2.44296e-09
3.05147e-09
5.37481e-10
1.16797e-10
1.65336e-11
3.64352e-10
3.76214e-10
9.09322e-11
6.6881e-10
1.10297e-10
8.7084e-11
1.17793e-10
9.1557e-11
4.98039e-10
8.37023e-11
8.14535e-11
1.40871e-10
1.66421e-10
4.85416e-10
4.22004e-11
4.94753e-11
1.94052e-10
1.60013e-10
3.64745e-10
2.28512e-11
1.18614e-10
3.02022e-10
6.52811e-11
1.36e-10
2.1659e-11
1.66766e-10
3.41427e-10
2.9784e-11
2.36868e-10
3.83924e-11
9.31975e-11
1.61882e-10
2.27712e-11
1.77851e-10
4.12514e-11
1.50747e-10
2.82151e-10
9.68797e-11
1.8529e-11
3.95372e-12
3.79551e-11
6.95994e-11
1.86649e-11
6.09469e-11
2.51605e-11
1.88064e-11
2.32023e-11
1.10899e-11
3.24154e-11
2.35742e-11
1.56213e-11
2.07341e-11
2.63659e-11
4.22408e-11
1.39743e-11
6.49225e-12
2.53669e-11
4.11148e-11
4.00912e-11
4.73175e-12
7.07432e-12
5.12426e-11
1.78533e-11
1.34576e-11
2.99467e-12
1.37086e-11
1.12258e-10
6.59828e-12
2.506e-11
1.22849e-11
7.84675e-12
1.75029e-11
3.26659e-12
2.46766e-11
1.24806e-11
1.43312e-11
2.93364e-11
2.70783e-11
3.57705e-12
9.27907e-13
5.43242e-12
1.13943e-11
3.98232e-12
6.50036e-12
4.40973e-12
3.80811e-12
5.016e-12
1.48528e-12
3.33564e-12
5.64996e-12
2.83227e-12
3.6678e-12
3.99328e-12
5.0425e-12
4.03111e-12
1.01872e-12
4.13146e-12
8.50287e-12
7.14143e-12
1.09975e-12
7.23979e-13
8.13046e-12
4.87463e-12
2.50038e-12
3.88888e-13
1.57399e-12
3.05462e-11
1.73283e-12
3.6359e-12
2.79414e-12
1.18879e-12
3.14504e-12
6.44841e-13
4.01553e-12
3.69254e-12
2.19098e-12
2.92583e-12
7.57743e-12
5.45038e-13
1.88287e-13
8.96606e-13
1.43906e-12
7.37066e-13
6.20976e-13
7.08029e-13
6.72669e-13
9.9154e-13
1.89264e-13
4.2896e-13
1.33181e-12
4.42691e-13
5.85451e-13
6.04275e-13
6.24802e-13
1.02334e-12
1.48295e-13
6.51788e-13
1.35635e-12
1.1599e-12
2.37777e-13
1.12008e-13
1.24416e-12
1.08144e-12
5.09853e-13
3.11119e-14
4.1837e-13
6.79593e-12
3.76248e-13
6.59491e-13
4.80364e-13
2.33329e-13
7.84466e-13
9.46783e-14
6.07889e-13
9.46388e-13
3.53375e-13
3.47143e-13
1.61855e-12
6.20289e-14
3.45015e-14
1.22913e-13
1.4543e-13
1.46994e-13
4.94342e-14
1.1809e-13
1.03977e-13
1.9332e-13
2.6354e-14
6.96786e-14
2.92856e-13
5.17909e-14
8.88499e-14
5.87627e-14
7.73975e-14
2.72901e-13
1.47528e-14
9.42423e-14
1.73685e-13
1.54357e-13
4.64654e-14
1.40873e-14
1.83431e-13
2.23556e-13
1.05859e-13
1.19076e-15
1.06114e-13
1.25138e-12
7.397e-14
1.18615e-13
5.96907e-14
8.09719e-14
2.00205e-13
8.76387e-15
9.63476e-14
2.14083e-13
5.23649e-14
6.27449e-14
2.54878e-13
4.27581e-15
1.12607e-14
1.41849e-14
1.47874e-14
4.88125e-14
3.98212e-15
2.56365e-14
1.28845e-14
3.55804e-14
4.65903e-15
8.74048e-15
4.55161e-14
4.52886e-15
1.88943e-14
4.3712e-15
1.34823e-14
4.22214e-14
1.11185e-15
1.36633e-14
1.41835e-14
1.79747e-14
5.70118e-15
2.73706e-15
2.55379e-14
5.4911e-14
2.08047e-14
1.47902e-17
2.45756e-14
2.08319e-13
1.11801e-14
2.06054e-14
4.77875e-15
4.14389e-14
5.22368e-14
9.06624e-16
1.84236e-14
4.38956e-14
6.54202e-15
1.05344e-14
2.22324e-14
1.82301e-16
6.39306e-15
1.50406e-15
4.18835e-15
2.05841e-14
3.79703e-16
6.77777e-15
6.99271e-16
3.49125e-15
7.95843e-16
3.12352e-16
3.08882e-15
9.07811e-16
3.94843e-15
6.36395e-16
8.10457e-16
2.48737e-15
1.28542e-16
2.30749e-15
8.9727e-16
1.75989e-15
2.62541e-16
1.84279e-15
3.51055e-15
1.57389e-14
4.14648e-15
1.65422e-17
6.18721e-15
2.58329e-14
1.56471e-15
5.51787e-15
1.82453e-16
2.29038e-14
1.28508e-14
3.01411e-16
4.0252e-15
5.51004e-15
5.57598e-16
9.7951e-16
3.47787e-16
2.1402e-16
2.60934e-15
5.42267e-17
1.71597e-15
2.82608e-15
1.48882e-16
2.33843e-15
1.30291e-16
1.65007e-16
1.70164e-16
1.28686e-17
1.82031e-16
4.84947e-17
4.90967e-16
1.14801e-16
1.45301e-17
1.79327e-16
6.12255e-18
3.20094e-16
4.63453e-17
7.88443e-17
5.29941e-17
2.02012e-16
1.22114e-15
3.79599e-15
6.8908e-16
7.37837e-18
6.12151e-16
1.25971e-15
8.56011e-16
3.33841e-15
1.2669e-17
8.55325e-15
2.92407e-15
1.40603e-16
5.08216e-16
1.38029e-16
1.38821e-17
7.95279e-17
7.40061e-18
6.68577e-17
2.72989e-16
6.64869e-19
1.73036e-16
2.11538e-17
2.20455e-16
4.98148e-16
4.61831e-17
5.01306e-17
4.0695e-17
1.70344e-17
2.23866e-17
3.27662e-17
9.7862e-17
6.1938e-17
5.02805e-18
9.95051e-17
1.93754e-19
5.77512e-17
3.54148e-18
9.69061e-18
9.80674e-17
2.27988e-17
6.7571e-16
1.82278e-16
5.23705e-17
2.22746e-18
7.22297e-18
2.50407e-16
8.80101e-16
2.12899e-15
5.19401e-17
2.05881e-15
3.66016e-16
2.04945e-17
1.28841e-16
1.14247e-17
5.25572e-17
2.1156e-16
1.48964e-17
4.16681e-18
1.13481e-17
5.44074e-18
2.04405e-16
2.35805e-17
4.66294e-17
3.21815e-17
3.67563e-18
1.30722e-16
8.95329e-17
1.12756e-17
1.6264e-17
2.54069e-17
7.39449e-17
7.07482e-17
1.73147e-17
1.92648e-17
7.34499e-19
1.14805e-16
1.84906e-19
7.56166e-17
1.14808e-16
2.75474e-18
1.56163e-17
6.59056e-20
1.07961e-17
3.98722e-18
1.44054e-17
2.2716e-16
2.64369e-16
1.3308e-15
8.6846e-17
3.79688e-16
1.16243e-17
4.59841e-17
2.39433e-16
1.53864e-17
3.14609e-16
2.08316e-16
9.80293e-19
2.7305e-18
4.24795e-17
5.26783e-17
1.27901e-16
8.91861e-18
1.06046e-17
3.66008e-18
3.12087e-17
1.03424e-16
3.44633e-17
1.00218e-18
9.90551e-18
5.39925e-18
1.25461e-16
4.88674e-17
2.141e-18
2.10816e-18
5.21509e-17
3.49435e-16
8.36016e-18
8.16371e-18
4.88577e-17
7.72078e-17
5.48657e-17
9.56554e-19
2.4852e-17