/*--------------------------------*- C++ -*----------------------------------*\
  =========                 |
  \\      /  F ield         | OpenFOAM: The Open Source CFD Toolbox
   \\    /   O peration     | Website:  https://openfoam.org
    \\  /    A nd           | Version:  10
     \\/     M anipulation  |
\*---------------------------------------------------------------------------*/
FoamFile
{
    format      ascii;
    class       surfaceScalarField;
    location    "7.5";
    object      phi;
}
// * * * * * * * * * * * * * * * * * * * * * * * * * * * * * * * * * * * * * //

dimensions      [0 3 -1 0 0 0 0];

internalField   nonuniform List<scalar> 
74080
(
0.00501139
0.00016554
0.00115071
0.00546016
0.000206324
0.0009766
0.00535308
1.73902e-05
0.00196641
0.00493105
-8.02457e-05
0.00263564
0.00476233
1.4481e-05
0.00207912
0.00507083
0.000182914
0.00107766
0.00541219
0.00022805
0.00112259
0.00519032
2.13753e-05
0.00217214
0.00475693
-8.67004e-05
0.0026789
0.0046786
3.93224e-05
0.00211994
0.00502298
0.000136716
0.00115511
0.00543494
0.000175691
0.000873136
0.00529631
6.87452e-05
0.00188895
0.00483746
-5.24073e-05
0.00270173
0.00465916
3.04035e-05
0.00228049
0.00496147
0.000133991
0.00127467
0.0054733
0.000179558
0.000834886
0.00537636
6.13201e-05
0.00180577
0.00484421
-6.83428e-05
0.00277252
0.00466015
3.82146e-05
0.00224192
0.00502426
0.000197777
0.00114171
0.00544614
0.000192806
0.00102971
0.00526808
2.05151e-05
0.00200067
0.00482565
-5.14244e-05
0.00267999
0.00469228
2.21736e-05
0.00218712
0.00503047
0.000161061
0.00110435
0.00546643
0.000219033
0.000930195
0.00531817
2.87918e-05
0.00200716
0.00484406
-7.91344e-05
0.00273436
0.00470122
2.14945e-05
0.00213959
0.00504908
0.000173674
0.0011104
0.00538371
0.000176992
0.00107494
0.00521913
1.04035e-06
0.0020526
0.00481576
-6.35036e-05
0.00268131
0.00471425
2.70548e-05
0.00208362
0.00510576
0.000188363
0.0010452
0.00544054
0.000192246
0.00105118
0.00526608
1.2102e-05
0.00202697
0.00483656
-4.7057e-05
0.00268799
2.29426e-05
0.0022336
0.00578249
0.000197137
-0.000547341
0.00572035
0.000328752
-0.000317163
0.0055428
0.000532796
-0.000486
0.00555816
0.000456857
-0.000840866
0.00574872
0.000206371
-0.00079493
0.00580766
0.000179557
-0.000463811
0.00566939
0.000366776
-0.000239039
0.00547742
0.000587352
-0.000471794
0.00548226
0.000495917
-0.000836938
0.00567356
0.000272839
-0.000818962
0.00583321
0.00018754
-0.000635055
0.00576369
0.00026194
-0.000300961
0.00554595
0.000552225
-0.000399539
0.00549364
0.000525045
-0.000780501
0.00565541
0.000293963
-0.000810096
0.00579846
0.000205381
-0.000632614
0.00576948
0.000234366
-0.000311
0.00556912
0.000520103
-0.000395308
0.00550089
0.000539152
-0.000803289
0.00566106
0.000283125
-0.000799012
0.0057751
0.000192415
-0.000515347
0.00571256
0.000297226
-0.000303129
0.00552456
0.000539454
-0.000462343
0.00550826
0.000507408
-0.000797538
0.00569596
0.000270719
-0.000836448
0.00580966
0.000173194
-0.000540435
0.00571018
0.000317711
-0.00026801
0.00551975
0.000546604
-0.000455796
0.00549919
0.000499827
-0.000808113
0.00567026
0.000275443
-0.000816684
0.00579688
0.000168574
-0.000523865
0.00567798
0.000328688
-0.000290134
0.00545333
0.000573702
-0.000476653
0.00547044
0.000491197
-0.000832824
0.00569578
0.000230785
-0.000829569
0.0058459
0.000157934
-0.000532491
0.00572495
0.000331193
-0.00027983
0.00549286
0.000562473
-0.000439962
0.0054939
0.000509313
-0.000809711
0.000273241
-0.000826892
0.00558632
0.00018829
0.000406299
0.00563774
0.000415598
0.000305784
0.00572921
0.000614672
0.000175304
0.00568263
0.000600973
0.000208827
0.00557742
0.000355826
0.00037593
0.00556067
0.000201914
0.000391518
0.00559189
0.000463039
0.000284648
0.00570599
0.000643316
0.000188633
0.00569535
0.000608384
0.000198842
0.00559996
0.000394283
0.00035538
0.00559028
0.000183675
0.000406629
0.00562883
0.000384029
0.000286764
0.0057107
0.000647379
0.00018164
0.00568977
0.000638839
0.000207351
0.00560199
0.000400919
0.000352275
0.00558038
0.000198035
0.000406195
0.00562664
0.000355928
0.000303822
0.0057204
0.000614498
0.000200247
0.00571044
0.00063157
0.000191857
0.00560913
0.000401944
0.000333105
0.00558124
0.000219443
0.000386403
0.00564362
0.000395609
0.00027511
0.00573866
0.000612915
0.000202287
0.0057299
0.000607782
0.000203082
0.00563255
0.000398251
0.000343382
0.00559991
0.000198093
0.000408618
0.00564582
0.000401704
0.000301993
0.00572116
0.000642565
0.000194762
0.00570773
0.000622967
0.000184781
0.00560734
0.000388438
0.000360928
0.00557839
0.000199544
0.000422112
0.00564524
0.000415495
0.000275913
0.00572889
0.000643193
0.000162881
0.00569474
0.000621356
0.000196661
0.00559046
0.000337066
0.000411282
0.00557826
0.000154367
0.000440542
0.00563541
0.000419441
0.00029062
0.00572758
0.000633506
0.000169942
0.0056981
0.000630127
0.000208431
0.000386854
0.000374684
0.0047809
0.000709097
-0.000397798
0.00477604
0.000569052
-0.000407337
0.00503884
0.000450692
-0.000286803
0.00522593
0.00054204
-0.000124233
0.0050553
0.000715052
-0.000207234
0.00480125
0.000700145
-0.000404736
0.00479752
0.000601314
-0.000375883
0.00503715
0.000491099
-0.000289213
0.00520827
0.000564109
-0.000120054
0.00506166
0.000734169
-0.000160535
0.00481971
0.00068449
-0.000407369
0.00480995
0.000541345
-0.000412936
0.00504686
0.000489588
-0.000295486
0.00521514
0.000595726
-0.000132666
0.00505314
0.000745419
-0.000129203
0.00481274
0.000681703
-0.00037428
0.00478373
0.000543433
-0.000444355
0.00499253
0.000501847
-0.000306866
0.00517848
0.000578463
-0.000122104
0.00504717
0.00071426
-0.000156844
0.00480018
0.000694966
-0.000378664
0.0047764
0.000567911
-0.000410878
0.00500515
0.00048612
-0.000296556
0.00518064
0.000563529
-0.000128168
0.00504904
0.000708097
-0.000157251
0.00480118
0.000689752
-0.000399613
0.00478937
0.000572061
-0.000412531
0.00503456
0.000478618
-0.000267311
0.00519829
0.000588921
-0.000145632
0.00505216
0.000722236
-0.000190678
0.00479758
0.000690645
-0.000385106
0.00477067
0.000597133
-0.000393132
0.00503289
0.000474135
-0.000285186
0.00522189
0.000554294
-0.000142641
0.00503962
0.000717264
-0.000184781
0.00477307
0.000689827
-0.000408473
0.00476785
0.000589252
-0.000404212
0.00500299
0.000501993
-0.000279268
0.00518811
0.000570561
-0.000136029
0.000732485
-0.000180826
0.00484575
0.000699734
5.76678e-06
0.00459068
0.000801097
-0.000287585
0.00426711
0.000825784
-0.000361753
0.00433616
0.000638406
-0.000152025
0.0047564
0.000498742
5.37566e-05
0.00486591
0.00067029
-3.29525e-05
0.00462387
0.000800515
-0.000254882
0.00431768
0.000843838
-0.000355898
0.00436158
0.00067829
-0.000163419
0.00473668
0.00055853
8.92498e-05
0.00479824
0.000721841
1.79112e-05
0.00455226
0.000769521
-0.000302967
0.00429072
0.000795304
-0.000410238
0.00436508
0.00066048
-0.000151995
0.00472555
0.000566833
0.000116202
0.00478156
0.000731563
3.53115e-05
0.0045658
0.000750865
-0.000293007
0.00431031
0.000777632
-0.000392964
0.00436074
0.000663055
-0.000139902
0.00471908
0.000557717
0.000102273
0.00479607
0.000710589
4.92502e-06
0.00455929
0.000759663
-0.000295328
0.00429258
0.000788629
-0.00036245
0.00434507
0.000658583
-0.00012903
0.0047039
0.000548914
7.3762e-05
0.00481314
0.000671314
9.53639e-07
0.00456409
0.000776184
-0.000259
0.00428692
0.00081781
-0.00035804
0.00438458
0.000637045
-0.000165143
0.0047375
0.000550628
6.76114e-05
0.00482226
0.000706907
-1.71554e-05
0.00457642
0.000794227
-0.000269809
0.00425952
0.000838658
-0.000370628
0.00434501
0.000619438
-0.000194386
0.00474962
0.00048418
9.11797e-05
0.00485047
0.000665251
1.06618e-05
0.00462007
0.000781822
-0.000274947
0.00432095
0.000836411
-0.000351746
0.00437969
0.000652967
-0.000171151
0.000526457
8.32383e-05
0.0043158
0.000664336
-0.000232323
0.00456605
0.000613831
-0.000130806
0.00463933
0.000792718
-0.000110693
0.00444908
0.000897804
-0.000141398
0.00416375
0.000874943
-0.00026694
0.00426966
0.000630898
-0.000227795
0.00453702
0.000594979
-0.000120136
0.00462138
0.000804737
-0.000112296
0.00450427
0.000864222
-0.000150199
0.0042747
0.000870054
-0.00022982
0.00435199
0.000703386
-0.000222343
0.00454989
0.000638932
-0.000134066
0.00460303
0.000783027
-7.48683e-05
0.00449012
0.000836951
-0.000131342
0.00427522
0.000860413
-0.00022823
0.00433412
0.000733938
-0.000208853
0.00449237
0.000672897
-0.000136772
0.0045691
0.000749288
-8.59984e-05
0.00450041
0.000795364
-0.000123666
0.00426693
0.000871132
-0.000213484
0.00429681
0.000737624
-0.000225368
0.00449641
0.000631027
-0.000143241
0.00459345
0.000739392
-8.13227e-05
0.00450819
0.000814479
-0.00014573
0.00426543
0.000863916
-0.00021089
0.00431723
0.000682026
-0.000223876
0.00455941
0.000604619
-0.000146834
0.00460842
0.000810348
-9.45012e-05
0.004475
0.000840522
-0.000178616
0.00427572
0.00082612
-0.000248054
0.00431451
0.000731229
-0.000215717
0.00455226
0.000631224
-0.000137888
0.00465406
0.000760636
-0.000104497
0.00444554
0.000875026
-0.0001703
0.00417787
0.000853827
-0.000268553
0.0042733
0.00066564
-0.000247389
0.00449664
0.000637057
-0.000143934
0.00458879
0.000784119
-0.000102117
0.0044472
0.000865089
-0.000138379
0.00086228
-0.000266355
0.00384972
0.000894954
-0.000130349
0.00372465
0.000801132
-0.000129729
0.00393368
0.000673088
-0.000120796
0.00418222
0.000722217
-0.000104231
0.00419273
0.000840341
-0.000132841
0.00385214
0.000926633
-0.000124358
0.00367215
0.000845205
-0.00012072
0.00390182
0.000689036
-0.000146558
0.00408045
0.000752639
-0.000104963
0.00406447
0.000859314
-9.56357e-05
0.00383914
0.000896743
-0.000113968
0.00371225
0.000838519
-0.000129618
0.00392289
0.000689781
-0.000137505
0.00407567
0.000741336
-7.76478e-05
0.00408769
0.000834378
-8.25398e-05
0.00392716
0.000874779
-0.00010481
0.00379108
0.000858308
-0.000104913
0.00390248
0.000746367
-0.000126496
0.00402402
0.000749728
-8.62464e-05
0.00408743
0.000797531
-8.15828e-05
0.0039131
0.00088318
-0.000115848
0.003736
0.000861575
-0.000135151
0.00387825
0.000710068
-0.000134987
0.00404239
0.000716431
-9.15292e-05
0.00411104
0.000785953
-0.000102163
0.00385672
0.000894803
-0.000129357
0.00367741
0.000841341
-0.000136742
0.00394116
0.000676508
-0.000149288
0.00409034
0.000749323
-0.000141425
0.00408799
0.000809417
-0.000140281
0.00389381
0.00088364
-0.000113329
0.00372376
0.000838315
-0.000106531
0.00394
0.000649152
-0.000150353
0.00421167
0.000663971
-0.00016613
0.00423726
0.000780507
-0.000121217
0.00395222
0.000892412
-0.000108
0.00380306
0.000827172
-0.000113566
0.00397059
0.000713344
-0.000124741
0.00413476
0.000765073
-0.000124581
0.000827299
-0.000126997
0.00381456
0.000727058
-0.000140411
0.0037546
0.000868402
-0.000116013
0.00353857
0.000961755
-0.000136717
0.00355595
0.000789323
-0.000161436
0.00376875
0.000670895
-0.000202311
0.0038816
0.000772878
-0.000137997
0.0038738
0.0008619
-9.41672e-05
0.00365913
0.000962787
-0.000132296
0.00363661
0.000853675
-0.000170441
0.00379806
0.000740906
-0.000179275
0.00386019
0.000781732
-0.000119938
0.00383862
0.000849553
-7.81527e-05
0.00363646
0.000944794
-0.000101249
0.00360058
0.00087812
-0.000180546
0.00370589
0.000775842
-0.00018326
0.00375043
0.000784021
-0.000112572
0.00382079
0.000793161
-7.03883e-05
0.00369495
0.000928377
-9.97348e-05
0.00363118
0.000917195
-0.000173014
0.00370457
0.00077171
-0.000168486
0.00374912
0.00078454
-0.00013582
0.00379242
0.000824694
-9.87221e-05
0.00366782
0.00090009
-0.000115577
0.0036314
0.000840889
-0.000181152
0.00370724
0.000744316
-0.000168391
0.00379262
0.000777178
-0.000145382
0.003848
0.000791054
-9.72044e-05
0.00365311
0.000928086
-0.000133107
0.00359037
0.000907491
-0.000222184
0.00367618
0.000773038
-0.000206754
0.00375719
0.000748042
-0.000124438
0.00380971
0.000764076
-9.44005e-05
0.00349335
0.00101386
-0.00015278
0.00339552
0.000900772
-0.000256284
0.00361998
0.000621599
-0.00022854
0.00374543
0.000701359
-0.000128843
0.00378341
0.000789453
-0.000100151
0.00357977
0.000976537
-0.000121878
0.00351997
0.00093894
-0.000175551
0.000690225
-0.000214378
0.00310207
0.000690649
-0.000200587
0.00321757
0.000803109
-0.000147421
0.00318325
0.00102436
-0.000114183
0.00302804
0.000993143
-0.000125856
0.00284748
0.000938316
-0.000247471
0.00298857
0.000714299
-0.000181826
0.00312823
0.000773129
-0.000108027
0.00315783
0.000969597
-0.000116374
0.00306825
0.00100013
-0.000128685
0.00290606
0.000961321
-0.000201601
0.00300808
0.000725239
-0.00016137
0.00314836
0.000761814
-0.000106148
0.00322105
0.00092917
-0.000105085
0.00315483
0.00100291
-0.000108038
0.00300475
0.000969528
-0.000198059
0.00302864
0.00078526
-0.000150763
0.00307594
0.000795587
-7.6294e-05
0.00319075
0.000897845
-9.89481e-05
0.0031804
0.000994361
-9.12495e-05
0.00299354
0.00100307
-0.000165151
0.00300472
0.000815323
-0.000189587
0.00308154
0.000783426
-0.000117105
0.00317184
0.000866863
-8.93011e-05
0.00311541
0.000952699
-0.000111653
0.00295521
0.000971348
-0.000202963
0.00299436
0.000781143
-0.000195459
0.00306681
0.000752498
-0.000103617
0.00317756
0.000894534
-0.000127123
0.00316966
0.000979579
-0.0002008
0.00304305
0.000953652
-0.00022868
0.00306817
0.000725627
-0.000148309
0.00314396
0.000697478
-0.000117725
0.00335594
0.000883329
-0.000185673
0.00329128
0.00101123
-0.000211259
0.00300736
0.000929198
-0.000219402
0.00310721
0.000651243
-0.000174796
0.00317234
0.000756597
-0.00014092
0.00326898
0.000935421
-0.000151745
0.00324026
0.00101973
-0.000151815
0.000977288
-0.00022363
0.00286763
0.000927538
-0.000156344
0.00292618
0.000799678
-0.00015042
0.00309589
0.00092582
-0.000120439
0.0030508
0.00114194
-0.000159708
0.00304705
0.00102607
-0.000168056
0.00287633
0.000876649
-5.83429e-05
0.00290174
0.00077567
-8.03947e-05
0.00304472
0.000886015
-0.000140047
0.00305094
0.00106905
-0.000152594
0.00307119
0.00098922
-0.000108886
0.00293523
0.000876475
-5.56945e-05
0.00288977
0.000852522
-0.000103517
0.00298154
0.000921401
-0.000132737
0.00303826
0.00104132
-0.00014751
0.00305991
0.00101959
-0.000156956
0.00295181
0.000910923
-6.68137e-05
0.00293985
0.000846498
-3.77695e-05
0.00294149
0.000962605
-0.000131063
0.00301753
0.00101347
-0.00014362
0.00309603
0.00100473
-9.45703e-05
0.00295656
0.00097429
-0.000126887
0.00294972
0.000819003
-0.000126194
0.00300154
0.00087471
-0.000160166
0.00306113
0.000981296
-0.000180655
0.0030696
0.00105035
-0.000141929
0.00294024
0.000936482
-0.000100671
0.00294303
0.000793368
-7.89816e-05
0.00293592
0.000985182
-0.000176457
0.00296835
0.00104568
-0.000218326
0.00301365
0.00094745
-0.00014729
0.00282895
0.000910899
-9.33464e-05
0.00278703
0.000822944
-0.000133941
0.00281744
0.000987836
-0.00019692
0.0029452
0.000985861
-0.000222727
0.0030591
0.000854102
-0.000199288
0.00284481
0.000875905
-0.000102227
0.00283636
0.000821178
-0.000100568
0.00286541
0.000976805
-0.000125142
0.00294393
0.00102988
-0.000160082
0.000892922
-0.000189004
0.0025038
0.00084508
-0.000220698
0.00258805
0.00079897
-0.000114269
0.00261584
0.00103391
-0.00011132
0.00258788
0.00125847
-0.000123385
0.00252375
0.00111491
-0.000131153
0.00262773
0.000812034
-7.27373e-05
0.00270071
0.000763486
-2.96213e-05
0.00260802
0.00104994
-4.9282e-05
0.00254415
0.001181
-0.000133997
0.00252607
0.000992335
-0.000121838
0.00263049
0.000805352
-6.04154e-05
0.00273522
0.000811501
-5.40832e-05
0.00264399
0.0010601
-4.05216e-05
0.00249906
0.00121224
-0.000103836
0.00247346
0.00107168
-0.000199331
0.00254894
0.000858422
-3.89203e-05
0.00263057
0.000796358
1.09394e-05
0.00261815
0.00104393
-6.29572e-05
0.00246395
0.00119953
-7.40025e-05
0.00242697
0.00110366
-0.000153599
0.00253157
0.000939805
-9.00649e-05
0.00255831
0.000871806
-5.69163e-05
0.00255341
0.00096719
-0.000111489
0.00251829
0.00107708
-0.000147251
0.00253697
0.00106485
-0.000136491
0.00261797
0.000887048
-7.34923e-05
0.0026768
0.000827571
-5.43105e-05
0.00266028
0.00110584
-0.000139339
0.0024922
0.00124427
-0.000162319
0.00244283
0.00100839
-0.000163308
0.00262498
0.000794921
-0.000143808
0.00273097
0.000871016
-0.000137314
0.00261206
0.0012516
-0.000157209
0.00239729
0.00125432
-0.00017381
0.00236307
0.000970387
-0.000224497
0.00257552
0.000769343
-0.000193503
0.00275839
0.000741292
-0.000138975
0.00271308
0.00114083
-0.000111215
0.00241933
0.0013723
-7.5587e-05
0.00111232
-0.000226936
0.00220724
0.00108333
-0.000145126
0.00225378
0.000896146
-0.000117635
0.00233019
0.00108482
4.09871e-06
0.00240303
0.00118187
1.75101e-05
0.00240128
0.00110452
-0.000144469
0.00228411
0.000986164
-5.12898e-05
0.00232437
0.00088122
-5.86386e-05
0.00238749
0.00106385
1.24742e-05
0.00233304
0.00122478
5.36908e-05
0.00231187
0.000987084
-9.03126e-05
0.00227293
0.000880449
-9.39924e-05
0.00227102
0.000909153
-3.96178e-05
0.00238884
0.00101409
2.92612e-05
0.00241207
0.00115864
4.41756e-05
0.0023821
0.00104895
-6.31709e-05
0.00237794
0.000867222
-0.000115553
0.00236403
0.000848368
1.09476e-05
0.00240755
0.00105575
4.29026e-05
0.00245946
0.00115299
3.14419e-05
0.00241193
0.00114559
-5.91985e-05
0.0023204
0.0010322
-0.000124678
0.00237654
0.000923248
-7.3788e-05
0.00238194
0.00105481
-1.13367e-05
0.00229499
0.00115644
5.67469e-06
0.00228213
0.00104628
-4.64174e-05
0.00224572
0.000945899
-9.81733e-05
0.00225762
0.000937071
-5.2365e-05
0.00237863
0.00110961
-2.20438e-05
0.00245966
0.00118296
-3.86006e-05
0.00229394
0.00113481
-4.97048e-05
0.00214885
0.000967482
-5.25183e-05
0.00224639
0.000971467
-3.84337e-05
0.00242051
0.00120852
3.58504e-05
0.00249492
0.00120445
-0.000127854
0.00231618
0.00110312
-0.000118677
0.00216567
0.00100266
-7.61537e-05
0.00221599
0.000892876
-8.97058e-05
0.00240634
0.00109971
-9.84708e-06
0.00257446
0.00123511
-4.15612e-05
0.00130924
-0.000165933
0.00221784
0.000977587
1.93061e-05
0.00209591
0.00110572
-1.53438e-05
0.00203843
0.00120768
0.000102534
0.00207486
0.00110298
3.68786e-05
0.00207432
0.00106616
-5.37181e-05
0.00215767
0.000988506
-2.53066e-05
0.00209091
0.00111679
-0.000106007
0.00207784
0.0012042
-1.44597e-05
0.00218852
0.00113211
3.44032e-05
0.00210271
0.00108936
-5.20461e-05
0.00214796
0.000972302
-0.000131809
0.00220111
0.00100334
-0.000139832
0.00207921
0.00122143
-5.14422e-05
0.00207405
0.00117668
5.18799e-05
0.00204538
0.00102608
7.74539e-06
0.00206685
0.000912536
-0.000175834
0.00214411
0.000962727
-0.000168503
0.00211646
0.00119953
-2.51539e-05
0.00205261
0.00118558
8.52422e-05
0.00198683
0.00111394
0.000163751
0.00208131
0.000931011
-1.0224e-05
0.00213681
0.000963714
-9.05073e-05
0.0021286
0.00119283
-9.52158e-05
0.0021021
0.00119567
5.20856e-05
0.00203583
0.00107132
0.000100824
0.00209439
0.000951855
-0.000107233
0.00210442
0.00108851
-0.000108494
0.00204157
0.00131004
-6.24927e-05
0.00202981
0.00125002
-9.10404e-06
0.00208496
0.00108193
2.54665e-05
0.00214398
0.000896344
-1.28468e-05
0.00199121
0.00111952
0.000175892
0.00194081
0.00132255
9.01549e-05
0.00196461
0.00115943
-1.17944e-05
0.00204967
0.000942179
-1.44862e-05
0.00218306
0.000914917
-9.42593e-05
0.00197107
0.00122253
7.8712e-05
0.00185569
0.00127158
0.000193292
0.00201165
0.00114079
1.18909e-05
0.00120229
-1.97573e-07
0.00191628
0.000833788
0.000103756
0.00197856
0.00107351
0.000115699
0.002028
0.00115798
0.000184539
0.0019182
0.00116005
1.81492e-05
0.00182419
0.00106975
3.04391e-05
0.00183121
0.000971511
9.44103e-05
0.00195449
0.0010729
7.15653e-05
0.00201859
0.00114938
0.000105149
0.00191774
0.00115237
0.000107288
0.00184197
0.00114713
-3.98433e-05
0.00177127
0.0011435
-4.34285e-05
0.00187672
0.000982716
3.47932e-05
0.00210226
0.000997064
4.71265e-05
0.00204923
0.00115969
5.58938e-05
0.00190076
0.00114131
-1.83368e-05
0.00188501
0.000992495
-0.000100916
0.00190359
0.00105749
-5.28482e-05
0.00205615
0.00108639
1.58194e-05
0.00209224
0.00112957
7.85813e-06
0.00191277
0.00123775
4.36633e-05
0.00186965
0.000975426
3.28983e-05
0.00195068
0.000951529
-3.02153e-05
0.00203618
0.00112893
2.5612e-05
0.00195909
0.00120918
5.23151e-05
0.00182915
0.00119179
-3.72067e-05
0.00177659
0.00107746
-2.84218e-05
0.00182029
0.0011449
6.43573e-05
0.0019661
0.00121246
3.37615e-05
0.00191505
0.00125257
7.25364e-05
0.00183976
0.00111713
4.51008e-05
0.0018324
0.00101542
-6.22586e-05
0.00188786
0.00108794
0.000122935
0.0020421
0.00112003
9.63803e-05
0.00188518
0.00121915
7.33799e-05
0.00172629
0.0010368
4.04685e-05
0.00178075
0.00089026
-1.89712e-05
0.00187518
0.00120024
0.000152853
0.00198865
0.00114309
0.000217879
0.00186219
0.00123965
0.00012425
0.00111404
0.00027194
0.0015406
0.00113584
-0.000115505
0.00158522
0.00115807
5.60165e-05
0.00180274
0.000890247
0.000264352
0.00191588
0.000976009
5.77335e-05
0.00176385
0.00115531
-7.65043e-06
0.00156159
0.00127453
-4.46696e-05
0.00155902
0.00121119
4.4322e-05
0.00178029
0.000873576
0.000196906
0.00192291
0.000836587
0.000182055
0.0018317
0.00117189
-2.1029e-05
0.00167833
0.00140361
-2.89635e-05
0.00158405
0.00118065
-1.689e-06
0.00169603
0.000881767
5.37563e-05
0.00186656
0.000931276
4.65011e-05
0.00179482
0.00120194
-7.59688e-05
0.00163643
0.00126075
-9.11072e-05
0.00159225
0.00122325
3.42001e-05
0.00172573
0.000907775
7.6561e-05
0.00184024
0.00089109
7.69192e-05
0.00177636
0.00123718
5.10302e-05
0.00155294
0.00127174
-4.78864e-05
0.00154357
0.00112132
-8.4706e-05
0.00176682
0.000933097
6.57414e-05
0.00192282
0.000965816
8.03799e-05
0.00187498
0.00124336
-7.64085e-05
0.00167794
0.00124892
5.97346e-05
0.00168454
0.00122065
0.000118408
0.00182003
0.00118606
3.4938e-05
0.001899
0.00113083
7.21909e-05
0.00185639
0.00112242
-6.95272e-05
0.00158674
0.00140045
-9.46554e-05
0.00152552
0.0013368
-3.98649e-06
0.00175484
0.000851065
0.000150914
0.00191158
0.00100162
1.54257e-06
0.00185305
0.00108844
-9.71155e-05
0.00158347
0.00124007
3.27137e-06
0.00152126
0.00130521
0.000208863
0.0017564
0.000932549
0.000149376
0.00183882
0.00112792
0.000101367
0.00115051
0.000106001
0.00138843
0.00137202
-7.32744e-05
0.00141596
0.00119719
9.55392e-05
0.00160299
0.000639482
0.000292286
0.00166164
0.000997936
-2.43135e-05
0.00154615
0.00129547
-3.48632e-05
0.00136372
0.00155184
1.18843e-05
0.00134493
0.0012781
0.00015355
0.00150276
0.00078424
0.000141261
0.00159494
0.000903818
-0.000160501
0.00152828
0.00128811
-8.34844e-05
0.001425
0.00158364
8.59097e-05
0.0015528
0.00111547
0.000124836
0.0016488
0.00082058
8.53591e-05
0.00161416
0.00104661
-5.06965e-05
0.00158118
0.00129804
-0.000131983
0.00144826
0.00143829
7.0094e-05
0.00149881
0.00128089
0.000164052
0.00165899
0.000815671
5.81315e-05
0.00161572
0.00091365
-2.53312e-05
0.00167815
0.00122843
-6.02834e-05
0.00156586
0.00145947
1.98904e-05
0.00144402
0.00132375
9.77658e-05
0.00153172
0.000934216
4.66386e-05
0.00158385
0.000995722
-1.00237e-05
0.00160705
0.00127648
-7.58006e-05
0.00150355
0.0013576
8.40596e-05
0.00135445
0.00139034
0.000255596
0.00142085
0.00115164
0.000171539
0.00153829
0.00101594
7.98981e-05
0.00162125
0.00106811
-8.91895e-05
0.00162688
0.00140996
9.81809e-06
0.00153416
0.00143442
0.000200825
0.00152418
0.000788925
0.000242883
0.00160644
0.000925753
2.43898e-05
0.00164661
0.000996896
-1.69925e-05
0.001528
0.00138148
3.39023e-05
0.00142261
0.00144925
0.000172108
0.00143404
0.000873703
0.00024883
0.00152012
0.00100168
0.000135588
0.00114633
-3.70643e-05
0.00148083
0.0015415
-3.09327e-05
0.0012908
0.00137376
0.000151576
0.00130324
0.000688291
8.15931e-05
0.00146089
0.000944167
-1.13249e-05
0.00157293
0.00123351
-1.37381e-05
0.00145595
0.00174066
2.9094e-05
0.00130777
0.00141828
0.000156983
0.00134011
0.000802254
0.00012034
0.00144224
0.000910913
-5.31642e-05
0.00148921
0.00126653
-3.70856e-05
0.00135199
0.00174675
7.10249e-05
0.00126229
0.00132119
4.93e-05
0.0013269
0.000842112
4.76204e-05
0.00149065
0.000965062
-2.15653e-05
0.00157024
0.00124653
-3.52077e-05
0.00144875
0.00149827
9.12763e-05
0.00136393
0.00144952
8.82697e-05
0.00136194
0.000909275
5.67152e-05
0.00144708
0.000827162
7.31273e-05
0.00156925
0.00118564
-6.2344e-05
0.00147959
0.00159548
-3.85692e-05
0.0013314
0.00152699
7.71609e-05
0.00130098
0.00094579
0.000172273
0.00143529
0.000919482
0.000108493
0.0015198
0.00123923
-4.48165e-06
0.00154036
0.00132749
4.48666e-05
0.00141881
0.00145867
0.00024954
0.00131063
0.0010879
0.000363324
0.00143797
0.000817867
0.000187639
0.00157839
0.000906383
4.26102e-05
0.00153182
0.00140413
4.52712e-05
0.00150089
0.00149127
0.000104495
0.0014632
0.000830183
9.48566e-05
0.00149985
0.000885457
8.39354e-05
0.0015944
0.000945454
-1.5696e-05
0.00152697
0.00148559
2.94193e-05
0.00146625
0.00155591
0.000125934
0.00140749
0.00081087
0.000276508
0.00147149
0.000806125
0.000243837
0.00105642
-3.28453e-05
0.00145842
0.00153821
-7.78886e-05
0.00135847
0.0013607
0.000163173
0.00119438
0.000814331
0.000130935
0.00125414
0.000832517
0.000140207
0.00138222
0.00107121
4.21729e-05
0.00143501
0.00165585
7.40166e-05
0.00135083
0.00148202
0.000122816
0.00119194
0.000922299
0.000142162
0.00128899
0.000755969
0.000110584
0.00140802
0.00115111
-1.7169e-05
0.00142195
0.00172657
4.50899e-05
0.00129707
0.00137623
0.000162429
0.00113016
0.00096503
0.0001268
0.00130065
0.000728528
0.000124423
0.00142109
0.00111195
2.94743e-05
0.00130439
0.00168772
-7.61144e-05
0.00124303
0.0015189
6.84254e-05
0.00123137
0.000840489
0.000151308
0.0013533
0.000669363
8.14829e-05
0.00140629
0.00108694
7.96677e-05
0.00136044
0.00161758
2.51011e-05
0.0013147
0.00157106
5.18104e-05
0.00126276
0.000979405
0.000102674
0.00132969
0.000809465
0.000157334
0.0013885
0.00109597
0.000147269
0.00144278
0.00127422
3.35506e-05
0.00139838
0.00149185
0.000119093
0.00122051
0.00112934
0.000198851
0.00123056
0.000701251
0.000166527
0.00142366
0.000749179
-2.84286e-05
0.00141678
0.00141009
-5.51823e-06
0.00132658
0.00154064
0.000153499
0.00122323
0.000933006
2.18817e-05
0.00130358
0.000797865
5.79384e-05
0.00149786
0.000783103
7.8443e-06
0.00151211
0.00149009
-4.98314e-06
0.00143174
0.0016111
0.000113628
0.00128439
0.000920251
0.000144321
0.00127142
0.000754874
0.000142797
0.000975648
-4.55528e-05
0.00131175
0.00135354
1.068e-05
0.00140364
0.00111794
9.66061e-05
0.00126851
0.000837735
0.000124665
0.00116834
0.000853432
0.000127665
0.00125247
0.000892633
4.15785e-05
0.00137062
0.00144522
6.64866e-06
0.00133601
0.00133983
0.000176456
0.00117282
0.000995736
0.000146194
0.00116949
0.000690189
9.83968e-05
0.00127766
0.000987837
-2.41946e-05
0.00129246
0.00159961
7.80323e-05
0.00126824
0.00129363
0.000113425
0.00115707
0.000943652
0.0001583
0.00114688
0.000675649
8.22662e-05
0.0012528
0.00094205
-1.04718e-05
0.0012894
0.00161222
3.34199e-06
0.00117945
0.00154582
9.90315e-05
0.00106628
0.000893081
7.12209e-05
0.00117565
0.000551555
-1.96003e-05
0.00131724
0.000803069
8.32697e-05
0.00136067
0.00145518
7.71e-05
0.0012946
0.00153779
6.93651e-05
0.00118175
0.00100101
0.000118848
0.00117484
0.000763171
8.69798e-05
0.0012148
0.000887986
0.000149523
0.0013505
0.00111331
6.25817e-06
0.00143885
0.00135201
3.30834e-05
0.00128842
0.00117323
0.00010061
0.00115624
0.000754256
7.95018e-05
0.0012188
0.000608158
1.12489e-05
0.00141045
0.00122089
-2.64388e-05
0.00143743
0.00135208
0.000182854
0.00126758
0.000941732
0.000123977
0.00115687
0.000821574
8.26223e-05
0.00119021
0.000630302
0.000117425
0.00138155
0.00128388
-9.12607e-06
0.00149633
0.00133804
0.000120673
0.0012997
0.000908705
0.000206751
0.00115484
0.000810533
0.0001337
0.000885499
5.12078e-05
0.00113723
0.00120718
1.76086e-05
0.00130842
0.000791485
4.58306e-05
0.00129533
0.000674583
0.000118975
0.0011078
0.000885606
0.000160168
0.0010567
0.000843432
1.88385e-05
0.00125549
0.00118713
-6.03512e-05
0.00127827
0.00109552
0.000111096
0.00113845
0.00102594
9.12047e-05
0.00109013
0.000737742
8.29865e-06
0.00114915
0.000884052
-4.34183e-05
0.0012515
0.00139486
2.25615e-05
0.00126157
0.00111592
6.14989e-05
0.00116149
0.000867615
0.000141814
0.00104808
0.000745809
6.93259e-05
0.00105689
0.000859052
-2.08696e-06
0.00124778
0.00134351
1.86305e-06
0.0012744
0.00144015
3.2669e-05
0.00113061
0.000899668
0.000102165
0.0010814
0.000526932
5.17505e-06
0.00109172
0.000723126
-3.03462e-06
0.00123967
0.00120672
4.07141e-05
0.00133266
0.00130218
4.05749e-05
0.00124482
0.000917045
0.000135089
0.00112513
0.000732324
0.000116825
0.00103674
0.000840279
8.17111e-05
0.00113653
0.000986587
-6.45105e-07
0.00132758
0.00111425
-4.27816e-05
0.00129731
0.00107325
5.43403e-05
0.0011269
0.000765441
9.03556e-05
0.00101123
0.000578005
6.90843e-05
0.00116663
0.00108731
-3.59273e-05
0.00137314
0.00104995
4.71147e-05
0.00135575
0.000760035
8.07516e-05
0.00115481
0.000821068
0.00012309
0.000995262
0.00060928
0.000139106
0.00110481
0.00113431
3.26664e-06
0.00135213
0.000992209
1.81789e-05
0.00136819
0.000718137
7.078e-05
0.00120246
0.000843332
0.00012369
0.000915635
7.12209e-05
0.000998785
0.00110861
1.09025e-05
0.00112712
0.000508768
2.73672e-05
0.00121151
0.000412908
6.60251e-05
0.0010997
0.000867008
7.30077e-05
0.000899433
0.000939061
5.26003e-06
0.00104873
0.000963458
-2.9811e-05
0.001198
0.000768666
4.96685e-05
0.00112365
0.000877532
0.000132069
0.0010036
0.00075462
5.18542e-05
0.000952835
0.000882173
-3.52591e-05
0.0011193
0.00115174
1.76572e-05
0.00120749
0.000847828
5.41651e-05
0.00117597
0.000765124
4.00354e-05
0.00109196
0.00074024
9.67248e-05
0.000993806
0.000894012
3.2773e-06
0.00105019
0.00122716
-1.80219e-05
0.00116354
0.0011842
6.74504e-05
0.00114749
0.000784421
8.16651e-05
0.00102207
0.000515807
4.62923e-05
0.000935321
0.000737394
-8.83442e-06
0.00103525
0.0010574
3.00481e-05
0.00116896
0.00103174
1.48236e-05
0.00120963
0.000766428
3.04661e-05
0.0011331
0.000674477
5.75478e-05
0.000996786
0.000861612
2.9345e-05
0.000918998
0.00100466
4.39855e-05
0.00103437
0.000935838
-1.43264e-05
0.00124152
0.000761385
2.42697e-05
0.00116048
0.000695065
6.87491e-05
0.000944337
0.000673732
-1.3329e-05
0.000942487
0.00106548
1.41762e-05
0.00106843
0.000891158
-3.89261e-06
0.00122207
0.000448114
3.13189e-05
0.00118614
0.000675685
6.07056e-05
0.00099968
0.000675692
3.86939e-05
0.000951284
0.00113241
2.93018e-05
0.00108392
0.000788976
2.35511e-05
0.00125482
0.000427317
-2.27779e-06
0.00120308
0.000745905
7.41576e-05
0.000997027
6.59395e-05
0.00110088
0.000915973
-2.72625e-05
0.00113841
0.000337923
2.91312e-05
0.00110948
0.000306919
1.56034e-05
0.00103009
0.00079483
2.80153e-05
0.000877106
0.000947142
-1.99933e-05
0.000965647
0.000798936
-1.94628e-05
0.0011345
0.000446051