/*--------------------------------*- C++ -*----------------------------------*\
  =========                 |
  \\      /  F ield         | OpenFOAM: The Open Source CFD Toolbox
   \\    /   O peration     | Website:  https://openfoam.org
    \\  /    A nd           | Version:  10
     \\/     M anipulation  |
\*---------------------------------------------------------------------------*/
FoamFile
{
    format      ascii;
    class       surfaceScalarField;
    location    "10";
    object      phi_0;
}
// * * * * * * * * * * * * * * * * * * * * * * * * * * * * * * * * * * * * * //

dimensions      [0 3 -1 0 0 0 0];

internalField   nonuniform List<scalar> 
74080
(
0.0048972
4.61367e-08
-1.49074e-07
0.00489744
6.22963e-08
1.54776e-07
0.00489722
-7.73299e-08
-1.06537e-07
0.00489735
9.58633e-08
2.51783e-08
0.00489734
-5.5601e-08
3.66159e-09
0.00489722
9.13101e-09
-3.64071e-08
0.00489737
1.51647e-08
3.57197e-08
0.00489731
-9.49031e-08
-4.68455e-11
0.00489732
-2.79525e-11
-3.42337e-08
0.00489738
2.70056e-08
3.20784e-08
0.00489728
-1.47897e-07
1.71783e-08
0.00489731
1.65778e-07
-1.30799e-07
0.00489738
-1.57282e-07
1.88327e-07
0.00489729
-3.9405e-08
-1.01131e-07
0.00489732
2.06997e-07
-1.14793e-08
0.00489736
-3.06741e-07
-3.25572e-09
0.00489724
3.20052e-07
-6.36065e-08
0.00489737
-2.1161e-07
1.42622e-07
0.00489731
5.89146e-08
-1.29194e-07
0.00489728
1.63614e-07
-2.76559e-08
0.00489734
-2.84043e-07
4.16635e-08
0.00489728
3.63539e-07
-1.46971e-08
0.00489736
-2.83063e-07
-2.24754e-08
0.00489728
1.89509e-07
7.91797e-08
0.00489736
2.34873e-08
-1.10388e-07
0.00489725
-1.47503e-07
5.8043e-08
0.00489736
2.87571e-07
9.15891e-08
0.00489732
-3.00943e-07
-9.07069e-08
0.00489726
2.45692e-07
1.00824e-07
0.00489744
-7.71404e-08
-4.23795e-08
0.00489717
-5.16078e-08
4.95111e-08
0.00489747
1.96075e-07
4.93665e-08
0.00489725
-2.17779e-07
-8.9788e-08
0.0048973
2.02321e-07
1.2626e-07
0.00489744
-7.93095e-08
2.17971e-09
0.00489717
2.69995e-08
-1.31595e-07
0.00489745
1.21951e-07
1.74669e-07
0.00489722
-1.28126e-07
-1.12213e-07
0.00489737
1.69899e-07
2.78728e-08
-4.87663e-08
3.83331e-08
0.00445176
5.62716e-08
-1.74401e-08
0.00445193
1.24464e-08
5.47474e-08
0.00445173
2.11933e-08
-7.04159e-08
0.00445187
5.80614e-10
8.92839e-08
0.00445185
9.657e-09
-1.08068e-07
0.00445176
1.14361e-08
6.27455e-08
0.00445188
-8.695e-09
-1.98029e-08
0.0044518
-7.2949e-08
2.95031e-08
0.00445186
-4.66532e-08
-3.21366e-08
0.00445189
3.97387e-08
2.92959e-08
0.00445181
-1.39304e-07
5.70678e-09
0.00445185
1.69653e-07
-7.36697e-08
0.00445188
-1.77148e-07
7.42208e-08
0.00445181
-3.27324e-08
-2.44465e-08
0.00445189
1.83224e-07
1.8278e-08
0.00445185
-2.75136e-07
-1.05037e-07
0.0044518
3.25508e-07
4.51451e-08
0.00445186
-2.31157e-07
2.60642e-08
0.00445182
7.35075e-08
-1.98552e-08
0.00445187
1.29791e-07
-1.00136e-07
0.00445178
-2.33916e-07
6.3255e-08
0.00445187
3.10081e-07
2.54057e-08
0.00445181
-2.42836e-07
-1.02905e-07
0.00445182
1.59697e-07
1.90697e-07
0.00445191
-4.85382e-09
-2.12869e-07
0.00445171
-5.77037e-08
1.53377e-07
0.00445198
1.63603e-07
6.63814e-08
0.00445173
-1.76291e-07
-1.29552e-07
0.00445186
1.57884e-07
1.98262e-07
0.00445194
-9.79053e-08
-1.31889e-07
0.00445168
8.54486e-08
1.14474e-07
0.00445204
8.85383e-09
4.88321e-08
0.00445169
-2.86479e-08
-1.32167e-07
0.00445189
7.25543e-08
2.15881e-07
0.00445192
-6.75093e-08
-1.10973e-07
0.00445172
1.35241e-07
-2.8655e-08
0.00445197
-9.3491e-09
1.21369e-07
0.00445173
2.32513e-08
-1.56901e-07
0.00445191
4.6076e-08
1.60452e-07
4.23331e-08
-1.24084e-07
0.00404688
4.13248e-08
1.04242e-07
0.00404688
5.18474e-08
-5.56536e-08
0.00404682
3.99719e-08
-2.02872e-09
0.00404688
-3.90355e-08
6.5045e-08
0.00404688
5.03837e-08
-1.13701e-07
0.00404686
-5.3958e-09
9.03287e-08
0.00404689
9.93765e-09
-7.10585e-08
0.00404684
-7.22272e-08
1.15272e-07
0.00404692
-1.0612e-07
-1.17109e-07
0.00404691
7.5305e-08
1.11774e-07
0.00404688
-1.62359e-07
-6.43529e-08
0.00404689
2.0131e-07
-1.97336e-08
0.00404692
-1.92414e-07
1.44006e-08
0.00404686
-4.07561e-08
-4.54699e-09
0.00404696
1.58478e-07
3.85153e-08
0.00404687
-2.22126e-07
-1.49245e-07
0.00404686
3.16969e-07
1.20071e-07
0.0040469
-2.46277e-07
-1.10435e-07
0.00404685
8.62372e-08
1.24141e-07
0.00404697
6.64104e-08
-1.86787e-07
0.00404678
-1.32457e-07
8.11295e-08
0.00404696
2.26166e-07
5.28189e-08
0.00404681
-1.89416e-07
-1.56619e-07
0.00404688
1.1859e-07
2.69757e-07
0.00404697
-3.99166e-08
-2.83273e-07
0.00404675
4.86646e-08
2.17399e-07
0.00404704
3.89494e-08
4.90198e-08
0.00404673
-4.88618e-08
-1.2848e-07
0.00404696
5.31958e-08
2.26848e-07
0.00404694
-8.5606e-08
-1.43206e-07
0.00404679
1.74635e-07
1.22061e-07
0.00404704
-1.17259e-07
7.61355e-08
0.00404674
1.12092e-07
-1.46997e-07
0.00404698
-5.67513e-08
2.38045e-07
0.0040469
-1.60621e-08
-1.43791e-07
0.00404686
1.65434e-07
3.52607e-08
0.00404693
-3.57649e-08
6.89445e-08
0.00404682
8.07662e-08
-1.52462e-07
0.00404692
-1.17861e-08
2.17079e-07
1.04306e-07
-2.29321e-07
0.00367875
9.64545e-08
1.83222e-07
0.00367873
8.00637e-08
-1.35931e-07
0.00367873
2.31977e-08
9.30452e-08
0.00367872
-2.29999e-08
-2.57222e-08
0.00367878
2.54374e-08
-1.6628e-08
0.00367875
1.09229e-08
2.03199e-08
0.00367876
2.97384e-08
-2.18931e-08
0.00367872
-7.21488e-08
1.34158e-07
0.00367879
-1.63143e-07
-1.96554e-07
0.00367879
1.1296e-07
2.3282e-07
0.0036788
-1.95606e-07
-2.00086e-07
0.00367877
2.43832e-07
1.04073e-07
0.0036788
-2.29022e-07
-6.10804e-08
0.00367873
-2.83374e-08
1.96581e-08
0.00367888
1.03926e-07
3.91208e-08
0.00367872
-1.30332e-07
-1.53484e-07
0.00367877
2.85781e-07
1.59411e-07
0.00367876
-2.57753e-07
-2.13331e-07
0.00367872
1.09086e-07
2.35131e-07
0.0036789
-3.1953e-08
-2.69055e-07
0.00367863
1.87746e-08
1.20347e-07
0.00367887
1.17421e-07
2.68587e-08
0.00367866
-1.31104e-07
-1.42165e-07
0.00367879
8.29165e-08
2.71232e-07
0.00367885
-9.10208e-08
-2.8907e-07
0.00367864
1.74021e-07
2.46522e-07
0.00367891
-6.81038e-08
2.40609e-08
0.00367861
4.14823e-08
-9.37112e-08
0.00367885
-2.05521e-08
2.16944e-07
0.0036788
-7.73443e-08
-1.1812e-07
0.00367874
2.32371e-07
9.82746e-08
0.00367883
-1.7645e-07
1.23765e-07
0.00367869
1.62943e-07
-1.68983e-07
0.00367884
-1.23861e-07
2.62715e-07
0.00367876
1.61234e-08
-1.73284e-07
0.00367882
1.68483e-07
8.9974e-08
0.00367873
2.02368e-08
7.98036e-09
0.00367877
4.76198e-08
-1.18409e-07
0.00367874
2.46636e-08
2.17862e-07
8.08888e-08
-2.80819e-07
0.00334407
2.20814e-07
2.03416e-07
0.00334412
5.12397e-08
-1.68545e-07
0.00334405
5.71282e-08
1.5544e-07
0.00334412
-4.74344e-08
-1.40142e-07
0.00334413
3.21246e-08
1.23619e-07
0.00334412
3.3539e-08
-1.05395e-07
0.00334411
4.38795e-08
1.0251e-07
0.00334408
-7.37624e-08
7.29767e-08
0.00334417
-2.30016e-07
-1.86319e-07
0.00334416
1.59702e-07
2.80435e-07
0.00334418
-2.35009e-07
-2.98596e-07
0.00334412
3.01053e-07
2.40194e-07
0.00334418
-2.88555e-07
-1.80344e-07
0.00334409
1.55237e-08
9.92897e-08
0.00334428
1.18709e-08
-2.61479e-08
0.00334406
1.41786e-08
-1.10024e-07
0.00334416
2.15899e-07
1.66646e-07
0.00334409
-2.37432e-07
-2.67948e-07
0.00334412
9.79071e-08
2.90359e-07
0.00334427
-1.07031e-07
-3.21041e-07
0.003344
1.6996e-07
1.63381e-07
0.00334424
7.325e-09
-1.91289e-08
0.003344
-7.50229e-08
-8.30394e-08
0.0033442
2.18048e-08
2.17066e-07
0.00334419
-1.08574e-07
-2.35987e-07
0.00334406
2.67466e-07
2.25274e-07
0.00334422
-1.24267e-07
2.96325e-08
0.00334399
8.93871e-08
-5.24501e-08
0.00334423
-8.18494e-08
1.84531e-07
0.00334415
-6.21449e-08
-8.10966e-08
0.00334416
2.62897e-07
8.37527e-08
0.00334411
-1.69171e-07
1.47688e-07
0.00334413
1.2717e-07
-1.69279e-07
0.00334417
-1.36465e-07
2.83763e-07
0.00334416
1.10223e-08
-2.20787e-07
0.00334421
1.85464e-07
1.75318e-07
0.00334407
9.57288e-08
-7.76328e-08
0.00334416
-1.79062e-08
-4.8709e-08
0.00334409
9.01028e-08
1.63761e-07
2.46179e-08
-2.71094e-07
0.00303987
3.64554e-07
1.46154e-07
0.00303993
1.2654e-08
-1.27753e-07
0.00303981
1.29972e-07
1.51753e-07
0.00304
-1.53095e-07
-1.99203e-07
0.00303989
1.27358e-07
2.49135e-07
0.00303997
1.7998e-09
-2.23549e-07
0.00303986
1.15093e-07
2.44914e-07
0.00303991
-1.43134e-07
-2.83566e-08
0.00303997
-2.7259e-07
-9.6221e-08
0.00304
1.89007e-07
2.30703e-07
0.00303999
-2.44513e-07
-3.00846e-07
0.0030399
3.58522e-07
3.07546e-07
0.00303999
-3.66429e-07
-2.669e-07
0.00303989
6.69186e-08
1.90339e-07
0.00304012
-9.81437e-08
-1.26261e-07
0.00303985
2.05039e-07
-1.81547e-08
0.00303999
1.17965e-07
1.2244e-07
0.00303986
-1.83141e-07
-2.62747e-07
0.00303998
2.89866e-08
2.9066e-07
0.00304005
-1.14125e-07
-3.41058e-07
0.00303985
2.65319e-07
1.93227e-07
0.00304
-3.91655e-08
-5.92458e-08
0.00303981
-6.71423e-08
-2.64575e-08
0.00304004
-4.59367e-08
1.5592e-07
0.00303998
-9.51091e-08
-1.65001e-07
0.00303991
3.28889e-07
1.74252e-07
0.00303995
-1.11384e-07
6.82614e-08
0.00303984
6.19924e-08
-3.28643e-08
0.00304003
-1.1326e-07
1.65202e-07
0.00303996
-4.90522e-08
-5.67993e-08
0.00303999
2.91819e-07
8.45806e-08
0.00303986
-1.2127e-07
1.38871e-07
0.00303998
2.41453e-08
-1.32665e-07
0.00303996
-1.18228e-07
2.73123e-07
0.00304002
-2.28816e-08
-2.54275e-07
0.00303999
2.45933e-07
2.55526e-07
0.00303988
1.57118e-07
-1.7564e-07
0.00303995
-8.19272e-08
4.49699e-08
0.00303993
1.32995e-07
7.43961e-08
-6.57289e-09
-1.94175e-07
0.00276338
4.97372e-07
4.62384e-08
0.00276336
1.97878e-08
-4.00196e-08
0.0027633
1.73097e-07
1.01013e-07
0.00276352
-2.93153e-07
-1.90294e-07
0.00276334
2.77266e-07
3.06116e-07
0.00276348
-7.13049e-08
-2.7499e-07
0.00276326
2.55116e-07
3.34591e-07
0.00276345
-3.14566e-07
-1.00828e-07
0.00276341
-2.55275e-07
7.36765e-09
0.00276355
1.55579e-07
1.37862e-07
0.00276341
-1.68247e-07
-2.30567e-07
0.00276339
3.73862e-07
2.84801e-07
0.00276346
-4.28776e-07
-2.69877e-07
0.0027634
8.66695e-08
2.24891e-07
0.00276361
-1.77231e-07
-1.96139e-07
0.00276332
4.07681e-07
7.06725e-08
0.00276346
2.73651e-08
6.19361e-08
0.00276331
-1.22119e-07
-2.10742e-07
0.0027635
-9.49924e-08
2.42512e-07
0.0027635
-5.74019e-08
-3.3512e-07
0.00276336
3.11315e-07
2.14495e-07
0.00276341
-1.36154e-08
-9.88999e-08
0.00276333
-1.54391e-07
3.0937e-08
0.00276353
-7.80044e-08
1.07844e-07
0.00276347
-9.77601e-08
-1.09335e-07
0.0027634
4.1552e-07
1.32635e-07
0.00276337
-7.50428e-08
1.11984e-07
0.00276335
-1.34415e-08
-2.93641e-08
0.00276351
-1.3766e-07
1.66102e-07
0.00276346
-4.60866e-08
-5.20258e-08
0.00276344
3.51999e-07
1.07495e-07
0.00276331
-7.05777e-08
1.12822e-07
0.00276347
-1.16912e-07
-8.11757e-08
0.00276345
-1.16079e-07
2.48353e-07
0.00276354
-6.02619e-08
-2.6192e-07
0.00276343
3.54e-07
3.02379e-07
0.00276338
1.85586e-07
-2.43709e-07
0.00276339
-1.16197e-07
1.19391e-07
0.00276348
1.21186e-07
-1.19571e-08
2.38772e-08
-9.57153e-08
0.00251204
6.0566e-07
-3.7706e-08
0.00251192
8.91034e-08
5.8438e-08
0.00251197
1.49614e-07
3.25365e-08
0.00251213
-4.14072e-07
-1.34445e-07
0.002512
4.12317e-07
2.9987e-07
0.00251208
-1.25967e-07
-2.50284e-07
0.00251185
4.13236e-07
3.62574e-07
0.00251212
-5.44676e-07
-1.09608e-07
0.00251203
-1.89206e-07
6.01854e-08
0.00251225
7.18765e-08
6.76149e-08
0.00251197
1.78221e-09
-1.51547e-07
0.00251206
3.22603e-07
2.35659e-07
0.00251204
-4.421e-07
-2.20168e-07
0.0025121
2.29858e-08
2.08844e-07
0.00251223
-1.85544e-07
-2.09346e-07
0.00251196
5.8481e-07
1.23597e-07
0.00251206
-1.44304e-08
1.96559e-08
0.00251193
-9.68559e-08
-1.57349e-07
0.00251218
-2.53184e-07
1.8553e-07
0.00251213
2.74626e-08
-3.13386e-07
0.002512
3.4455e-07
2.24276e-07
0.00251199
4.93825e-08
-1.27796e-07
0.00251199
-3.08045e-07
8.10689e-08
0.00251217
-9.70362e-08
6.56536e-08
0.00251212
-1.22804e-07
-6.06384e-08
0.00251202
5.45572e-07
1.05577e-07
0.00251198
-5.29515e-08
1.4585e-07
0.00251198
-9.18097e-08
-2.37932e-08
0.00251218
-2.03802e-07
1.75813e-07
0.0025121
-2.2187e-08
-6.38378e-08
0.00251206
4.25699e-07
1.39956e-07
0.00251193
-7.78408e-09
7.6651e-08
0.00251209
-2.7385e-07
-2.59475e-08
0.00251213
-1.53138e-07
2.13334e-07
0.00251219
-8.13632e-08
-2.49397e-07
0.00251204
4.92175e-07
3.12638e-07
0.00251202
1.98286e-07
-2.69976e-07
0.002512
-1.31838e-07
1.61904e-07
0.00251217
5.86818e-08
-7.6414e-08
1.08843e-07
-4.97113e-09
0.00228355
7.12348e-07
-9.013e-08
0.00228335
2.02117e-07
1.42023e-07
0.00228351
4.74297e-08
-1.86528e-08
0.0022836
-5.11074e-07
-6.81194e-08
0.00228356
5.00586e-07
2.75191e-07
0.00228352
-1.32462e-07
-1.84054e-07
0.00228334
5.5088e-07
3.5744e-07
0.0022836
-7.85458e-07
-7.09628e-08
0.00228356
-1.45357e-07
7.7581e-08
0.00228378
-1.87902e-08
4.63001e-08
0.00228342
2.28225e-07
-1.0777e-07
0.00228357
2.33232e-07
2.07894e-07
0.00228349
-4.34918e-07
-1.63271e-07
0.0022837
-1.31569e-07
1.91372e-07
0.0022837
-1.11043e-07
-1.98326e-07
0.00228348
7.19443e-07
1.51352e-07
0.00228349
2.6947e-08
8.3972e-09
0.00228345
-1.41069e-07
-1.18033e-07
0.0022837
-4.20332e-07
1.40083e-07
0.00228365
1.05689e-07
-2.97321e-07
0.00228348
3.97332e-07
2.30661e-07
0.00228345
1.18438e-07
-1.46536e-07
0.00228351
-4.953e-07
1.26423e-07
0.0022837
-1.49252e-07
3.52573e-08
0.00228364
-1.49021e-07
-1.24136e-08
0.00228351
7.01591e-07
7.89457e-08
0.00228345
-3.44754e-08
1.83353e-07
0.00228348
-1.73472e-07
-1.94502e-08
0.00228372
-3.21607e-07
1.83253e-07
0.0022836
3.62522e-08
-8.20214e-08
0.00228353
5.06692e-07
1.76698e-07
0.00228339
7.12323e-08
3.17617e-08
0.00228358
-4.81554e-07
3.53841e-08
0.00228368
-2.24332e-07
1.76107e-07
0.00228371
-9.87101e-08
-2.25335e-07
0.00228352
6.70863e-07
3.00273e-07
0.00228349
2.07214e-07
-2.6233e-07
0.00228349
-1.40773e-07
1.7675e-07
0.00228372
-5.37164e-08
-1.12064e-07
2.53246e-07
4.67208e-08
0.00207582
8.0928e-07
-1.05078e-07
0.00207557
3.63449e-07
1.97443e-07
0.00207583
-1.2692e-07
-4.00871e-08
0.00207587
-6.05533e-07
-3.33404e-09
0.00207591
5.22266e-07
2.59021e-07
0.00207574
-8.79633e-08
-1.06675e-07
0.00207564
6.55126e-07
3.45244e-07
0.00207586
-1.00635e-06
-8.46051e-10
0.00207591
-1.63808e-07
7.36142e-08
0.00207606
-8.63552e-08
5.83645e-08
0.00207569
4.54319e-07
-8.98033e-08
0.00207582
1.54849e-07
2.14591e-07
0.00207575
-4.45525e-07
-1.14046e-07
0.00207605
-3.52723e-07
1.95113e-07
0.00207597
7.47818e-09
-1.891e-07
0.00207577
8.33566e-07
1.83821e-07
0.00207569
1.43709e-07
4.34438e-09
0.00207576
-2.49271e-07
-8.57421e-08
0.00207599
-5.922e-07
1.06135e-07
0.00207596
1.47283e-07
-2.84758e-07
0.00207573
4.87271e-07
2.40375e-07
0.0020757
1.78251e-07
-1.5932e-07
0.00207579
-6.93973e-07
1.69997e-07
0.00207603
-2.61797e-07
1.43611e-08
0.00207593
-1.62934e-07
2.11128e-08
0.00207579
8.5489e-07
6.16538e-08
0.00207569
1.30224e-08
2.22262e-07
0.00207576
-2.75772e-07
-2.10443e-08
0.00207604
-4.71379e-07
1.96768e-07
0.00207591
8.60822e-08
-9.75022e-08
0.00207579
6.15224e-07
2.04814e-07
0.00207564
1.51871e-07
-8.53101e-09
0.00207586
-7.16829e-07
8.40371e-08
0.00207601
-3.39252e-07
1.49835e-07
0.00207603
-1.35857e-07
-1.89328e-07
0.00207578
8.88521e-07
2.74796e-07
0.00207574
2.15528e-07
-2.23893e-07
0.00207578
-1.43658e-07
1.70381e-07
0.00207605
-2.10149e-07
-1.16497e-07
4.34115e-07
8.90817e-08
0.00188697
8.98285e-07
-9.09965e-08
0.00188669
5.68792e-07
2.34532e-07
0.00188702
-3.57979e-07
-2.95196e-08
0.00188704
-7.04598e-07
3.27652e-08
0.00188714
4.52898e-07
2.67167e-07
0.00188685
-8.24541e-09
-2.81483e-08
0.00188682
7.32731e-07
3.45832e-07
0.00188699
-1.19274e-06
8.45792e-08
0.00188717
-2.63142e-07
7.14372e-08
0.00188722
-1.39714e-07
8.84716e-08
0.00188687
6.36629e-07
-8.57488e-08
0.00188695
1.18596e-07
2.47635e-07
0.00188694
-4.93866e-07
-6.8991e-08
0.00188728
-6.11123e-07
2.20229e-07
0.00188716
1.05711e-07
-1.81647e-07
0.00188694
9.52374e-07
2.28219e-07
0.0018868
3.1685e-07
3.3193e-10
0.00188695
-3.67085e-07
-4.66386e-08
0.00188719
-8.0124e-07
7.48468e-08
0.00188717
1.46241e-07
-2.73837e-07
0.00188687
5.98557e-07
2.46153e-07
0.00188685
2.52364e-07
-1.68425e-07
0.00188696
-8.90511e-07
2.1676e-07
0.00188726
-4.44742e-07
5.72352e-09
0.00188712
-1.90176e-07
4.61968e-08
0.00188696
9.94012e-07
5.05374e-08
0.00188681
1.04345e-07
2.63913e-07
0.00188695
-3.87223e-07
-2.66241e-08
0.00188725
-6.47269e-07
2.13177e-07
0.00188711
8.972e-08
-1.07509e-07
0.00188692
7.5505e-07
2.32915e-07
0.00188678
2.13405e-07
-3.17151e-08
0.00188703
-9.50805e-07
1.24505e-07
0.00188724
-5.29276e-07
1.3523e-07
0.00188723
-1.92269e-07
-1.47538e-07
0.00188695
1.10881e-06
2.568e-07
0.00188687
2.60565e-07
-1.7334e-07
0.00188697
-1.51012e-07
1.58291e-07
0.00188726
-4.12557e-07
-9.15676e-08
6.13094e-07
1.2664e-07
0.00171529
9.71362e-07
-5.55986e-08
0.001715
8.20089e-07
2.59827e-07
0.00171537
-5.92889e-07
-1.24525e-10
0.00171541
-8.54336e-07
6.79573e-08
0.00171553
2.6714e-07
2.94672e-07
0.00171515
5.96616e-08
5.13327e-08
0.00171517
8.03133e-07
3.72974e-07
0.00171531
-1.32124e-06
1.69835e-07
0.00171559
-4.37061e-07
7.81358e-08
0.00171556
-2.32072e-07
1.30572e-07
0.00171523
7.39489e-07
-8.3943e-08
0.00171524
1.457e-07
3.00308e-07
0.0017153
-5.3483e-07
-2.16557e-08
0.00171565
-8.93943e-07
2.57714e-07
0.00171555
1.06906e-07
-1.67638e-07
0.00171526
1.07357e-06
2.86109e-07
0.0017151
5.36928e-07
-3.78588e-09
0.00171529
-4.3128e-07
-8.64097e-09
0.00171558
-1.08458e-06
4.15379e-08
0.00171555
8.03301e-08
-2.49543e-07
0.00171518
7.00736e-07
2.45744e-07
0.00171517
3.92056e-07
-1.73602e-07
0.00171531
-1.06425e-06
2.68127e-07
0.00171566
-6.93887e-07
8.30685e-09
0.00171549
-2.92814e-07
7.03389e-08
0.0017153
1.11697e-06
4.64631e-08
0.00171511
2.56801e-07
2.94806e-07
0.0017153
-4.88161e-07
-3.26018e-08
0.00171563
-8.56259e-07
2.34031e-07
0.0017155
-4.04763e-09
-1.09721e-07
0.00171523
9.03979e-07
2.51475e-07
0.0017151
2.87016e-07
-5.21575e-08
0.00171537
-1.14074e-06
1.58726e-07
0.00171566
-8.20556e-07
1.41624e-07
0.0017156
-3.03848e-07
-9.74704e-08
0.0017153
1.28486e-06
2.50415e-07
0.00171516
3.94554e-07
-1.17002e-07
0.00171535
-1.51425e-07
1.5091e-07
0.00171564
-6.45282e-07
-4.18374e-08
7.09185e-07
1.69926e-07
0.00155921
1.01113e-06
-6.95862e-09
0.00155893
1.11948e-06
2.85009e-07
0.0015593
-7.75215e-07
6.69517e-08
0.00155939
-1.09752e-06
1.08712e-07
0.00155952
-9.5552e-08
3.36882e-07
0.00155908
4.63401e-08
1.35866e-07
0.00155911
9.22486e-07
4.24691e-07
0.00155925
-1.3567e-06
2.61817e-07
0.0015596
-6.67142e-07
9.94137e-08
0.00155951
-4.18602e-07
1.7413e-07
0.0015592
7.32417e-07
-8.00725e-08
0.00155913
2.58159e-07
3.65589e-07
0.00155928
-5.70906e-07
5.94996e-08
0.00155963
-1.20187e-06
3.00817e-07
0.00155955
-6.81906e-08
-1.37411e-07
0.00155919
1.18238e-06
3.45201e-07
0.00155902
8.24202e-07
-7.65458e-09
0.00155923
-3.77736e-07
5.02784e-08
0.00155958
-1.44836e-06
1.1691e-08
0.00155953
-1.09752e-07
-2.17597e-07
0.00155912
7.31908e-07
2.29753e-07
0.00155908
6.47498e-07
-1.80544e-07
0.00155926
-1.18168e-06
3.30305e-07
0.00155965
-1.00703e-06
2.52307e-08
0.00155949
-5.61744e-07
8.90487e-08
0.00155924
1.20461e-06
4.2646e-08
0.00155903
4.93078e-07
3.18622e-07
0.00155925
-5.01774e-07
-4.17046e-08
0.00155962
-1.1166e-06
2.55477e-07
0.00155949
-2.52824e-07
-9.49052e-08
0.00155916
1.01124e-06
2.64821e-07
0.00155902
4.3687e-07
-7.17273e-08
0.00155931
-1.25095e-06
1.92812e-07
0.00155967
-1.21713e-06
1.66069e-07
0.00155958
-5.38044e-07
-4.28059e-08
0.00155926
1.37336e-06
2.63836e-07
0.00155906
6.78486e-07
-6.18955e-08
0.00155932
-9.6596e-08
1.56259e-07
0.00155962
-9.03e-07
1.94051e-08
6.37989e-07
2.22361e-07
0.00141732
9.63392e-07
4.29934e-08
0.00141704
1.51612e-06
3.19706e-07
0.00141742
-8.05149e-07
1.53898e-07
0.00141757
-1.46431e-06
1.61281e-07
0.0014177
-7.19162e-07
3.76144e-07
0.00141723
-1.30241e-07
2.16156e-07
0.00141722
1.18074e-06
4.87792e-07
0.00141738
-1.19932e-06
3.60425e-07
0.00141777
-9.30444e-07
1.31769e-07
0.00141767
-8.3541e-07
2.13675e-07
0.00141735
5.70599e-07
-8.60989e-08
0.00141723
5.04722e-07
4.36295e-07
0.00141743
-4.80083e-07
1.66587e-07
0.00141779
-1.54677e-06
3.40812e-07
0.00141775
-5.30921e-07
-1.03467e-07
0.00141733
1.22605e-06
3.95209e-07
0.00141712
1.25415e-06
-1.60818e-08
0.00141733
-7.96447e-08
9.97292e-08
0.00141776
-1.86786e-06
-3.70042e-08
0.0014177
-5.29567e-07
-1.85515e-07
0.00141726
6.39201e-07
1.91805e-07
0.00141717
1.0913e-06
-1.96801e-07
0.0014174
-1.14111e-06
4.0374e-07
0.00141782
-1.37618e-06
4.36266e-08
0.00141769
-1.11866e-06
9.32982e-08
0.00141737
1.21656e-06
2.1821e-08
0.00141714
8.79726e-07
3.22132e-07
0.00141737
-3.05092e-07
-4.72303e-08
0.00141779
-1.44141e-06
2.73969e-07
0.00141766
-7.5849e-07
-7.92919e-08
0.00141729
1.01312e-06
2.58082e-07
0.00141711
7.3913e-07
-8.94723e-08
0.00141744
-1.20117e-06
2.3219e-07
0.00141786
-1.71182e-06
2.10533e-07
0.00141778
-1.03572e-06
1.02801e-08
0.00141742
1.33503e-06
2.76674e-07
0.00141716
1.14012e-06
-1.37307e-08
0.00141747
1.22115e-07
1.855e-07
0.00141777
-1.17694e-06
7.72578e-08
3.15727e-07
2.76068e-07
0.00128835
7.88651e-07
5.36908e-08
0.00128806
2.11881e-06
3.5203e-07
0.00128842
-5.42105e-07
2.64302e-07
0.00128866
-2.0016e-06
2.33555e-07
0.0012888
-1.72827e-06
3.8392e-07
0.0012883
-5.16345e-07
2.58057e-07
0.00128823
1.71141e-06
5.47088e-07
0.00128841
-7.06658e-07
4.86766e-07
0.00128884
-1.24757e-06
1.77643e-07
0.00128875
-1.66121e-06
2.31324e-07
0.00128841
2.15916e-07
-1.28672e-07
0.00128822
9.994e-07
4.96655e-07
0.00128846
-9.51486e-08
2.93922e-07
0.00128887
-1.97542e-06
3.83794e-07
0.00128886
-1.41606e-06
-9.04709e-08
0.00128838
1.18445e-06
3.85536e-07
0.00128812
1.95685e-06
-3.16872e-08
0.00128834
6.05785e-07
1.61199e-07
0.00128885
-2.34917e-06
-7.71591e-08
0.0012888
-1.34325e-06
-1.76935e-07
0.00128832
3.76537e-07
1.0258e-07
0.00128817
1.86205e-06
-2.32715e-07
0.00128841
-7.76997e-07
4.98458e-07
0.0012889
-1.8331e-06
7.01748e-08
0.00128881
-2.13077e-06
7.01075e-08
0.00128841
1.10121e-06
-4.34656e-08
0.00128815
1.54808e-06
2.98696e-07
0.00128838
2.63885e-07
-4.2998e-08
0.00128887
-1.87336e-06
2.98813e-07
0.00128876
-1.66788e-06
-8.04974e-08
0.00128835
8.36448e-07
2.06321e-07
0.00128809
1.29682e-06
-1.15244e-07
0.00128847
-8.78233e-07
2.94499e-07
0.00128894
-2.32815e-06
2.79796e-07
0.0012889
-1.95925e-06
3.1982e-08
0.00128848
1.12376e-06
2.6542e-07
0.00128816
1.88386e-06
4.70512e-08
0.00128851
6.67037e-07
2.42522e-07
0.00128884
-1.51533e-06
1.47001e-07
-4.15309e-07
3.18231e-07
0.00117118
4.71684e-07
-5.08309e-08
0.00117081
3.13496e-06
3.59737e-07
0.00117122
1.6058e-07
4.63135e-07
0.00117162
-2.86993e-06
3.95686e-07
0.00117178
-3.36655e-06
3.47072e-07
0.00117116
-1.0841e-06
1.65445e-07
0.00117097
2.77633e-06
5.41434e-07
0.00117119
3.25022e-07
6.90851e-07
0.00117176
-1.7765e-06
3.2944e-07
0.00117172
-3.17132e-06
2.325e-07
0.00117127
-3.49769e-07
-2.81121e-07
0.00117097
1.97609e-06
5.11984e-07
0.00117126
7.71032e-07
4.93161e-07
0.00117182
-2.63275e-06
5.08943e-07
0.00117184
-2.95786e-06
-1.09161e-07
0.00117125
1.06903e-06
2.22954e-07
0.00117085
3.18241e-06
-9.55429e-08
0.00117113
1.84406e-06
2.91367e-07
0.00117178
-3.06493e-06
1.95375e-08
0.00117177
-2.80941e-06
-1.89311e-07
0.00117117
-5.80033e-08
-8.9541e-08
0.00117089
3.18103e-06
-3.06185e-07
0.0011712
8.73199e-08
6.72023e-07
0.00117184
-2.5236e-06
1.8445e-07
0.00117181
-3.87501e-06
3.45268e-08
0.00117125
8.34462e-07
-2.14803e-07
0.0011709
2.74389e-06
2.19574e-07
0.00117116
1.37103e-06
4.52129e-08
0.00117181
-2.56123e-06
4.10756e-07
0.00117171
-3.21636e-06
-1.11992e-07
0.0011712
4.7446e-07
3.48149e-08
0.00117082
2.31788e-06
-1.69043e-07
0.00117128
-1.38478e-07
4.45455e-07
0.00117189
-3.21124e-06
4.51465e-07
0.0011719
-3.59051e-06
4.20635e-08
0.00117132
7.50763e-07
1.41681e-07
0.00117089
3.12828e-06
6.58691e-08
0.00117131
1.71844e-06
3.88955e-07
0.00117177
-2.0789e-06
3.10206e-07
-1.78999e-06
3.29075e-07
0.00106484
1.20015e-07
-4.27761e-07
0.0010643
4.68991e-06
2.18498e-07
0.00106496
1.16861e-06
9.28749e-07
0.00106575
-4.47614e-06
9.53714e-07
0.00106586
-5.80039e-06
3.62081e-07
0.00106483
-1.6703e-06
-2.48628e-07
0.0010644
4.60135e-06
2.94944e-07
0.00106483
1.80877e-06
1.15e-06
0.00106578
-2.89022e-06
9.16655e-07
0.00106579
-5.61453e-06
3.39817e-07
0.00106498
-9.92375e-07
-7.02917e-07
0.00106446
3.65074e-06
3.3369e-07
0.00106496
2.05385e-06
9.28617e-07
0.0010659
-3.85079e-06
1.05056e-06
0.0010659
-5.31653e-06
-4.80001e-08
0.00106495
1.03458e-06
-2.60624e-07
0.00106428
5.12306e-06
-3.13186e-07
0.00106482
3.53575e-06
6.75689e-07
0.00106587
-4.36361e-06
5.09958e-07
0.00106583
-5.11607e-06
-9.876e-08
0.00106482
-5.44428e-07
-5.20616e-07
0.00106432
5.20479e-06
-5.22073e-07
0.00106486
1.36319e-06
1.09225e-06
0.00106591
-3.79744e-06
6.98332e-07
0.0010659
-6.56958e-06
9.69708e-08
0.00106492
5.36573e-07
-6.66934e-07
0.00106434
4.72021e-06
-7.94355e-08
0.00106482
2.91008e-06
4.07445e-07
0.00106584
-3.86439e-06
9.45672e-07
0.00106573
-5.60547e-06
-6.44151e-08
0.00106484
-2.93689e-08
-3.46656e-07
0.00106427
3.90448e-06
-3.37417e-07
0.00106501
8.79124e-07
8.85452e-07
0.00106598
-4.71519e-06
1.05185e-06
0.00106595
-6.12763e-06
1.44792e-07
0.00106494
3.39077e-07
-2.5686e-07
0.00106434
5.03152e-06
-1.26158e-07
0.00106501
3.14516e-06
7.93621e-07
0.00106585
-3.24462e-06
8.9907e-07
-3.99167e-06
4.1231e-07
0.000968298
-1.65093e-07
-1.48852e-06
0.00096768
6.24702e-06
-3.19833e-07
0.00096888
1.70653e-06
2.09446e-06
0.000970216
-6.89595e-06
2.52962e-06
0.000970015
-8.55332e-06
5.25537e-07
0.000968228
-2.11038e-06
-1.43862e-06
0.000967603
6.70845e-06
-5.0512e-07
0.000968541
2.90888e-06
2.26694e-06
0.000970056
-4.81488e-06
2.58756e-06
0.000969939
-8.59864e-06
6.49587e-07
0.000968497
-1.45557e-06
-1.8128e-06
0.000967775
5.61776e-06
-3.26949e-07
0.000968788
3.01593e-06
2.00626e-06
0.000970288
-5.76212e-06
2.63266e-06
0.000970001
-8.03553e-06
1.8513e-07
0.000968432
1.2097e-06
-1.47443e-06
0.00096755
7.33135e-06
-9.31588e-07
0.000968668
4.90761e-06
1.73549e-06
0.000970277
-6.39159e-06
2.18791e-06
0.000969968
-7.79145e-06
1.78497e-07
0.000968247
-8.48253e-07
-1.61174e-06
0.00096757
7.45796e-06
-1.13299e-06
0.000968644
2.28912e-06
2.12299e-06
0.000970222
-5.769e-06
2.21918e-06
0.000970026
-9.754e-06
3.80809e-07
0.000968353
3.98096e-07
-1.81569e-06
0.000967588
6.87512e-06
-6.66638e-07
0.00096866
4.14157e-06
1.46464e-06
0.000970168
-5.94564e-06
2.53756e-06
0.000969767
-8.44652e-06
1.59095e-07
0.000968232
-5.64282e-07
-1.40149e-06
0.000967584
5.51658e-06
-8.35963e-07
0.000968907
1.44949e-06
2.03198e-06
0.000970358
-6.99648e-06
2.73789e-06
0.000970024
-9.12935e-06
4.05978e-07
0.000968282
-2.62351e-08
-1.33102e-06
0.000967622
6.91291e-06
-7.08711e-07
0.000968863
4.07621e-06
1.86761e-06
0.000970218
-5.20619e-06
2.56645e-06
-6.62856e-06
6.7667e-07
0.000879921
-6.77408e-07
-3.88535e-06
0.000879946
6.14147e-06
-1.14654e-06
0.000881651
8.78888e-07
4.40833e-06
0.000882807
-8.87731e-06
5.18693e-06
0.00088186
-9.99508e-06
2.73329e-07
0.000879692
-2.63341e-06
-4.16825e-06
0.000879684
7.20116e-06
-1.65945e-06
0.000881186
2.41743e-06
4.51065e-06
0.000882569
-6.49969e-06
5.43403e-06
0.000881816
-1.04738e-05
5.44143e-07
0.000880153
-1.76628e-06
-4.36324e-06
0.000879935
6.26699e-06
-1.33374e-06
0.000881453
2.6906e-06
4.14579e-06
0.000882841
-7.21096e-06
5.33375e-06
0.000881816
-9.40682e-06
-1.42102e-07
0.000880059
1.37435e-06
-4.16136e-06
0.000879782
8.15398e-06
-2.00326e-06
0.000881463
4.91507e-06
4.01531e-06
0.00088291
-8.0269e-06
5.1439e-06
0.000881918
-9.13829e-06
-7.87551e-08
0.000879924
-1.04094e-06
-4.07273e-06
0.000879764
8.34416e-06
-2.15517e-06
0.00088134
1.92673e-06
4.15814e-06
0.000882646
-7.25163e-06
4.79667e-06
0.000881765
-1.16697e-05
2.5059e-07
0.000879912
2.55065e-07
-4.37898e-06
0.000879761
7.62278e-06
-1.76572e-06
0.000881525
4.01764e-06
3.80316e-06
0.000882737
-7.63927e-06
5.26067e-06
0.000881568
-1.02286e-05
-9.49508e-08
0.000879859
-1.33206e-06
-3.82051e-06
0.000879855
5.46423e-06
-1.61902e-06
0.000881702
7.45802e-07
4.36219e-06
0.000882856
-8.85827e-06
5.62656e-06
0.000881765
-1.09109e-05
1.26819e-07
0.000879782
-6.38453e-07
-3.77625e-06
0.000879857
6.95661e-06
-1.77207e-06
0.000881649
3.389e-06
4.11596e-06
0.000882733
-6.88842e-06
5.4181e-06
-8.1611e-06
4.92948e-07
0.000797949
-2.1109e-06
-8.00662e-06
0.000799549
3.58216e-06
-1.93601e-06
0.000800796
-3.56265e-07
7.85517e-06
0.000800187
-8.24437e-06
7.56135e-06
0.000798564
-9.03344e-06
-1.96001e-06
0.000797599
-3.98099e-06
-8.84091e-06
0.000799402
4.92992e-06
-2.85799e-06
0.000800609
9.675e-07
7.94158e-06
0.000800169
-5.89662e-06
8.24671e-06
0.000798578
-9.9661e-06
-1.60481e-06
0.000798243
-2.50218e-06
-8.8719e-06
0.000799541
4.52178e-06
-2.2054e-06
0.00080065
1.91116e-06
7.35971e-06
0.00080032
-6.10937e-06
7.85627e-06
0.000798501
-8.25647e-06
-2.59938e-06
0.000798119
8.17398e-07
-8.71518e-06
0.00079966
6.48097e-06
-2.99682e-06
0.000800923
4.26322e-06
7.63626e-06
0.000800532
-7.11914e-06
7.92555e-06
0.000798935
-8.04651e-06
-2.45978e-06
0.000798297
-1.83045e-06
-8.3254e-06
0.000799701
6.92259e-06
-3.00189e-06
0.000800756
1.14206e-06
7.24877e-06
0.000799972
-6.12077e-06
7.14951e-06
0.000798169
-1.09321e-05
-1.95097e-06
0.000797868
-6.77055e-07
-8.81539e-06
0.000799564
5.74654e-06
-2.8144e-06
0.000801183
3.17662e-06
7.43359e-06
0.000800381
-6.91937e-06
7.74483e-06
0.000798411
-9.91021e-06
-2.38959e-06
0.000798125
-2.95663e-06
-7.93794e-06
0.000799695
2.8802e-06
-2.1518e-06
0.000800994
-2.12883e-07
7.89782e-06
0.000800168
-8.18534e-06
8.30515e-06
0.000798419
-1.03168e-05
-2.33736e-06
0.000797868
-2.32826e-06
-7.89756e-06
0.000799677
4.23685e-06
-2.63837e-06
0.000800958
1.95632e-06
7.623e-06
0.000800092
-6.15789e-06
8.09023e-06
-7.6328e-06
-1.68442e-06
0.000721476
-4.42067e-06
-1.23171e-05
0.000724117
1.3594e-06
-1.38757e-06
0.000723025
6.30469e-07
1.14116e-05
0.000720044
-4.99086e-06
7.80381e-06
0.000719475
-7.55012e-06
-6.60495e-06
0.000721494
-6.3355e-06
-1.37939e-05
0.000724736
2.43644e-06
-2.43401e-06
0.000723513
1.30317e-06
1.17123e-05
0.000720315
-2.90702e-06
9.1274e-06
0.00071933
-8.72713e-06
-6.33842e-06
0.000722007
-3.97872e-06
-1.36023e-05
0.000724305
2.86608e-06
-1.68227e-06
0.000723124
3.18866e-06
1.08952e-05
0.000720252
-2.54773e-06
8.30493e-06
0.000719158
-6.36714e-06
-7.5749e-06
0.000721846
-7.36232e-07
-1.33937e-05
0.000724898
4.74087e-06
-2.72644e-06
0.000723727
5.44065e-06
1.16596e-05
0.000720806
-3.69017e-06
8.33462e-06
0.000720207
-6.42509e-06
-7.22352e-06
0.000722591
-3.6171e-06
-1.26546e-05
0.000725146
5.57179e-06
-2.42384e-06
0.000723582
2.36974e-06
1.06353e-05
0.000719764
-2.38768e-06
7.59117e-06
0.000718409
-9.16849e-06
-6.51817e-06
0.000721581
-2.71619e-06
-1.35983e-05