/*--------------------------------*- C++ -*----------------------------------*\
  =========                 |
  \\      /  F ield         | OpenFOAM: The Open Source CFD Toolbox
   \\    /   O peration     | Website:  https://openfoam.org
    \\  /    A nd           | Version:  10
     \\/     M anipulation  |
\*---------------------------------------------------------------------------*/
FoamFile
{
    format      ascii;
    class       volScalarField;
    location    "10";
    object      pMean;
}
// * * * * * * * * * * * * * * * * * * * * * * * * * * * * * * * * * * * * * //

dimensions      [0 2 -2 0 0 0 0];

internalField   nonuniform List<scalar> 
25600
(
3.16575e-05
2.79004e-05
2.49945e-05
2.2364e-05
1.45972e-05
1.49644e-05
1.38907e-05
9.53369e-06
1.5717e-05
1.0292e-05
1.16745e-05
1.55081e-05
1.56579e-05
2.33573e-05
2.02078e-05
2.62962e-05
2.87248e-05
2.77431e-05
3.66613e-05
3.45492e-05
4.21611e-05
4.65369e-05
4.02332e-05
4.73671e-05
4.42226e-05
3.94703e-05
4.9317e-05
4.75234e-05
4.06936e-05
4.56938e-05
4.37375e-05
4.02333e-05
4.41026e-05
4.22516e-05
4.48436e-05
4.47076e-05
3.79687e-05
3.75416e-05
3.6503e-05
3.40688e-05
3.30494e-05
3.08404e-05
2.79864e-05
2.17759e-05
1.84069e-05
1.35906e-05
1.31576e-05
1.18756e-05
1.16312e-05
1.08255e-05
9.82486e-06
1.28177e-05
1.68507e-05
1.70376e-05
1.83176e-05
2.46163e-05
2.49957e-05
3.04558e-05
3.30526e-05
3.51521e-05
4.64559e-05
4.3446e-05
4.43739e-05
4.88169e-05
4.3238e-05
4.28841e-05
4.89027e-05
4.92753e-05
3.9523e-05
4.60142e-05
4.51763e-05
3.85735e-05
4.51598e-05
4.06747e-05
4.44074e-05
4.39217e-05
3.88874e-05
4.02227e-05
3.59651e-05
3.6967e-05
3.49316e-05
3.44565e-05
2.76525e-05
2.11429e-05
2.07831e-05
1.3367e-05
1.31832e-05
1.28089e-05
7.97813e-06
1.09154e-05
8.74399e-06
9.88507e-06
1.63248e-05
1.11359e-05
1.70881e-05
2.36444e-05
2.22878e-05
3.16617e-05
3.07703e-05
3.80768e-05
4.77363e-05
4.10709e-05
5.05764e-05
4.76197e-05
4.31024e-05
4.83203e-05
4.74473e-05
4.98594e-05
3.96845e-05
4.56898e-05
4.57608e-05
3.73246e-05
4.50535e-05
4.06271e-05
4.33224e-05
4.37824e-05
4.06481e-05
4.14485e-05
3.7536e-05
3.81262e-05
3.90531e-05
3.6242e-05
2.61768e-05
2.16563e-05
2.0686e-05
1.4524e-05
1.30196e-05
1.18297e-05
5.779e-06
9.46317e-06
7.81841e-06
7.71359e-06
1.3588e-05
7.07052e-06
1.60928e-05
2.26013e-05
2.02814e-05
3.0656e-05
3.1383e-05
4.156e-05
4.54555e-05
4.23427e-05
5.64026e-05
4.39855e-05
4.56135e-05
5.32731e-05
4.51663e-05
5.03733e-05
4.02635e-05
4.47353e-05
4.49251e-05
3.60215e-05
4.41207e-05
4.07162e-05
4.23303e-05
4.40254e-05
4.17906e-05
4.29305e-05
4.04419e-05
3.86131e-05
4.3683e-05
3.57996e-05
2.64916e-05
2.2763e-05
1.98481e-05
1.74441e-05
1.19115e-05
9.79828e-06
4.3892e-06
6.60164e-06
6.57602e-06
5.60978e-06
9.37967e-06
4.47414e-06
1.46984e-05
2.04381e-05
1.86157e-05
2.96041e-05
3.46342e-05
4.40307e-05
4.25307e-05
4.78084e-05
5.97494e-05
3.97562e-05
5.09415e-05
5.54648e-05
4.3987e-05
5.13783e-05
4.00233e-05
4.41292e-05
4.30616e-05
3.58812e-05
4.34239e-05
4.08776e-05
4.25246e-05
4.3793e-05
4.2758e-05
4.57198e-05
4.27554e-05
4.03006e-05
4.68182e-05
3.46806e-05
2.88863e-05
2.31629e-05
1.93953e-05
2.00665e-05
1.03692e-05
8.52079e-06
3.21894e-06
3.8732e-06
4.31717e-06
2.29199e-06
4.62237e-06
2.66247e-06
1.30244e-05
1.81694e-05
1.82285e-05
2.975e-05
3.81032e-05
4.44536e-05
4.08375e-05
5.40285e-05
5.87789e-05
3.84798e-05
5.72384e-05
5.53298e-05
4.6695e-05
5.22761e-05
3.97582e-05
4.36376e-05
3.99263e-05
3.6261e-05
4.16714e-05
4.03415e-05
4.28136e-05
4.28007e-05
4.49378e-05
4.94634e-05
4.4566e-05
4.36365e-05
4.87922e-05
3.49473e-05
3.19746e-05
2.26457e-05
1.97776e-05
2.16685e-05
9.86506e-06
8.00529e-06
1.49373e-06
8.1014e-07
2.43712e-08
-1.72178e-06
4.2481e-07
1.0767e-06
1.12208e-05
1.67653e-05
1.89266e-05
3.08166e-05
3.9834e-05
4.35782e-05
4.13909e-05
5.79943e-05
5.53144e-05
4.19263e-05
6.26634e-05
5.56466e-05
5.22938e-05
5.24291e-05
4.0834e-05
4.25333e-05
3.59303e-05
3.61434e-05
3.86131e-05
3.91824e-05
4.29122e-05
4.17435e-05
4.77745e-05
5.23888e-05
4.61118e-05
4.78955e-05
5.00675e-05
3.58696e-05
3.42385e-05
2.22699e-05
2.10854e-05
2.22013e-05
1.08477e-05
7.16604e-06
-1.6581e-06
-3.71511e-06
-6.07716e-06
-6.05225e-06
-3.62943e-06
-2.28763e-06
9.10842e-06
1.60067e-05
1.96981e-05
3.26813e-05
4.01913e-05
4.33679e-05
4.34967e-05
5.89102e-05
5.33371e-05
4.86341e-05
6.62745e-05
5.84562e-05
5.83505e-05
5.25666e-05
4.25984e-05
3.92815e-05
3.07621e-05
3.47092e-05
3.38749e-05
3.70599e-05
4.25646e-05
4.13807e-05
5.05902e-05
5.4739e-05
4.80425e-05
5.19441e-05
5.14016e-05
3.72223e-05
3.5923e-05
2.26289e-05
2.2865e-05
2.15997e-05
1.16303e-05
4.82785e-06
-6.52564e-06
-9.34869e-06
-1.32493e-05
-1.02731e-05
-7.8019e-06
-6.97253e-06
7.90488e-06
1.48198e-05
1.9499e-05
3.27588e-05
3.78813e-05
4.39016e-05
4.58121e-05
5.81546e-05
5.43495e-05
5.57774e-05
6.93358e-05
6.38573e-05
6.37402e-05
5.34628e-05
4.34203e-05
3.35999e-05
2.42797e-05
3.02331e-05
2.72506e-05
3.48433e-05
4.19689e-05
4.0423e-05
5.19483e-05
5.57604e-05
4.93531e-05
5.53978e-05
5.07654e-05
3.80256e-05
3.62836e-05
2.33661e-05
2.45618e-05
1.95395e-05
1.11089e-05
-3.09063e-07
-1.4364e-05
-1.67862e-05
-2.20378e-05
-1.53004e-05
-1.36017e-05
-1.27108e-05
7.27434e-06
1.22412e-05
1.72555e-05
3.00269e-05
3.37342e-05
4.42861e-05
4.67626e-05
5.70342e-05
5.78994e-05
6.17031e-05
7.33674e-05
6.98315e-05
6.8088e-05
5.46484e-05
4.1629e-05
2.53816e-05
1.49568e-05
2.14029e-05
1.82077e-05
3.1223e-05
4.01712e-05
3.81948e-05
5.13684e-05
5.35842e-05
4.82374e-05
5.68943e-05
4.78625e-05
3.82277e-05
3.3931e-05
2.35964e-05
2.41101e-05
1.48056e-05
6.82452e-06
-1.00749e-05
-2.52276e-05
-2.66294e-05
-3.27439e-05
-2.23611e-05
-2.26901e-05
-1.93705e-05
4.92562e-06
6.13925e-06
1.11812e-05
2.20354e-05
2.6893e-05
4.18497e-05
4.48785e-05
5.62049e-05
6.16518e-05
6.62382e-05
7.74806e-05
7.31705e-05
7.0769e-05
5.39141e-05
3.4721e-05
1.35515e-05
6.39467e-07
6.1876e-06
5.30455e-06
2.45765e-05
3.47425e-05
3.31882e-05
4.6943e-05
4.71345e-05
4.44119e-05
5.53004e-05
4.06956e-05
3.38313e-05
2.65431e-05
1.9923e-05
1.77704e-05
3.64812e-06
-5.54785e-06
-2.64913e-05
-4.02244e-05
-4.14919e-05
-4.8073e-05
-3.53493e-05
-3.74169e-05
-2.91548e-05
-2.17147e-06
-6.54012e-06
-1.66737e-06
7.16997e-06
1.61518e-05
3.57608e-05
3.95763e-05
5.35087e-05
6.23742e-05
6.88967e-05
7.79247e-05
7.13986e-05
7.01528e-05
4.72675e-05
2.1167e-05
-5.43807e-06
-2.28442e-05
-1.87353e-05
-1.38013e-05
1.17361e-05
2.1936e-05
2.15298e-05
3.31392e-05
3.30042e-05
3.45394e-05
4.72827e-05
2.47748e-05
1.94721e-05
1.09118e-05
8.81917e-06
1.99289e-06
-1.82635e-05
-3.05529e-05
-5.17806e-05
-6.25539e-05
-6.60878e-05
-7.40841e-05
-6.04115e-05
-6.13626e-05
-4.62727e-05
-1.98767e-05
-3.26746e-05
-2.91365e-05
-1.95549e-05
-3.13362e-06
2.01425e-05
2.5704e-05
4.30421e-05
5.51567e-05
6.45872e-05
6.93944e-05
6.13339e-05
5.97363e-05
2.84292e-05
-4.05285e-06
-3.79007e-05
-6.00773e-05
-5.57274e-05
-4.20105e-05
-1.07991e-05
-1.61683e-06
-2.02894e-06
4.91149e-06
7.52408e-06
1.39904e-05
2.83738e-05
-1.39904e-05
-1.78549e-05
-2.22476e-05
-2.13755e-05
-3.46103e-05
-5.91253e-05
-7.3512e-05
-9.09382e-05
-9.95879e-05
-0.000107638
-0.00012036
-0.000106148
-0.000100627
-7.67958e-05
-5.58207e-05
-7.88123e-05
-7.74076e-05
-6.30681e-05
-3.65931e-05
-1.18582e-05
-4.06891e-06
1.629e-05
3.26609e-05
4.49477e-05
4.41045e-05
3.71007e-05
3.14605e-05
-9.61945e-06
-4.70913e-05
-9.39562e-05
-0.000122188
-0.000116042
-8.83442e-05
-5.12671e-05
-4.47857e-05
-4.82785e-05
-4.82522e-05
-3.91357e-05
-2.86225e-05
-1.43058e-05
-8.85096e-05
-9.00773e-05
-8.10415e-05
-7.86753e-05
-0.000104422
-0.000131173
-0.000141133
-0.000149292
-0.000159998
-0.000176123
-0.000197454
-0.00018528
-0.000172202
-0.000141556
-0.000127791
-0.000159985
-0.000158333
-0.000136003
-0.000100931
-7.82449e-05
-6.60242e-05
-4.07823e-05
-1.84588e-05
-1.32528e-06
-6.74872e-06
-8.97311e-06
-1.63326e-05
-6.51165e-05
-0.000112767
-0.000176227
-0.000214187
-0.000205866
-0.000159543
-0.000118863
-0.00011799
-0.000131392
-0.000132077
-0.000109171
-9.88127e-05
-8.85507e-05
-0.000205318
-0.000202283
-0.000174762
-0.000170604
-0.000207436
-0.00023452
-0.000236844
-0.00023114
-0.000244324
-0.000273482
-0.000306248
-0.000297558
-0.00027931
-0.000246645
-0.000244595
-0.00028418
-0.000277666
-0.000243833
-0.000207095
-0.000186727
-0.000168396
-0.000134944
-9.95321e-05
-8.14797e-05
-8.65398e-05
-7.99634e-05
-8.50842e-05
-0.00013301
-0.000196959
-0.000284813
-0.000333807
-0.000322953
-0.000259816
-0.000218866
-0.000226701
-0.000249344
-0.00024807
-0.000207222
-0.00020167
-0.000202068
-0.000355475
-0.000339669
-0.000291508
-0.000284008
-0.000326117
-0.000355983
-0.000350633
-0.000344405
-0.000365465
-0.000397721
-0.000436362
-0.000428628
-0.000399068
-0.000372757
-0.000393505
-0.00044055
-0.000421296
-0.00037301
-0.000333542
-0.000316947
-0.000288625
-0.000237481
-0.000196609
-0.000179179
-0.000180191
-0.000160228
-0.000156098
-0.000203246
-0.000290415
-0.0004102
-0.000473687
-0.000461255
-0.00038321
-0.000340765
-0.000349892
-0.000378632
-0.000375177
-0.000328945
-0.000344679
-0.00035866
-0.000550834
-0.000507453
-0.000428923
-0.000422981
-0.000478826
-0.000519342
-0.000510958
-0.000512296
-0.000555627
-0.000581201
-0.000608671
-0.000583288
-0.000533966
-0.000527842
-0.000583083
-0.000641136
-0.000603931
-0.000536632
-0.000493845
-0.000487225
-0.000453923
-0.000385027
-0.000348967
-0.000353455
-0.00037168
-0.000335315
-0.000287672
-0.000321722
-0.000435958
-0.000582782
-0.000665685
-0.000659073
-0.000571706
-0.000516653
-0.000498896
-0.000512355
-0.000497217
-0.000469682
-0.000527592
-0.000558448
-0.00077584
-0.000692669
-0.00058812
-0.000604817
-0.000687369
-0.000757925
-0.000769325
-0.000798711
-0.000869238
-0.000886207
-0.000876151
-0.000788654
-0.000697105
-0.000710807
-0.000791906
-0.000859582
-0.000809824
-0.000730488
-0.000709189
-0.000737971
-0.000703612
-0.000641257
-0.000628659
-0.000666159
-0.000704357
-0.000642384
-0.000519005
-0.000517338
-0.000645757
-0.00081251
-0.000917943
-0.000927412
-0.000830407
-0.00076906
-0.000712415
-0.000667737
-0.000619881
-0.000621511
-0.000733363
-0.000787293
-0.000917979
-0.000816505
-0.000712207
-0.000759031
-0.000862421
-0.000946386
-0.000988007
-0.00106555
-0.00119213
-0.00124577
-0.00124348
-0.00110449
-0.000974989
-0.000979756
-0.0010255
-0.00106667
-0.00101117
-0.000947246
-0.000987553
-0.00108963
-0.00110877
-0.00108588
-0.00111304
-0.0011692
-0.00117464
-0.00104333
-0.000840256
-0.000793902
-0.000901235
-0.00107558
-0.00119763
-0.00120587
-0.00110679
-0.00104578
-0.000929134
-0.000799915
-0.000692591
-0.000669884
-0.000798478
-0.000898322
-0.00081317
-0.000702565
-0.000617791
-0.000672674
-0.000753695
-0.000824664
-0.000906564
-0.00106444
-0.0013009
-0.00146327
-0.00154418
-0.00141241
-0.00129784
-0.00126603
-0.00121378
-0.00119384
-0.00111158
-0.00106206
-0.00116482
-0.00135167
-0.00145235
-0.0015028
-0.00157008
-0.00162822
-0.00158262
-0.00139185
-0.00114274
-0.00106684
-0.00114476
-0.00130271
-0.00140823
-0.00138274
-0.001255
-0.00118289
-0.000998232
-0.000795335
-0.000626081
-0.000548685
-0.000645292
-0.000770421
-0.000544866
-0.000438488
-0.000385541
-0.000457864
-0.000504816
-0.000565866
-0.000671609
-0.000883571
-0.00121287
-0.0014853
-0.00164169
-0.00153875
-0.00145075
-0.00136677
-0.001205
-0.00113364
-0.00100709
-0.000950908
-0.00107366
-0.00125379
-0.00137381
-0.00146947
-0.00155413
-0.00159606
-0.00156442
-0.00139166
-0.00116646
-0.00112051
-0.00119982
-0.00133392
-0.00141795
-0.00136429
-0.00122581
-0.00114646
-0.000924244
-0.000681012
-0.000459428
-0.000307347
-0.000357832
-0.000488998
-0.000321703
-0.000264793
-0.000278825
-0.000362477
-0.000406656
-0.000487058
-0.000569982
-0.000721917
-0.00104117
-0.00132933
-0.0014907
-0.00140631
-0.00131282
-0.0011712
-0.000971802
-0.00089849
-0.00076031
-0.000689076
-0.000820566
-0.000933642
-0.000994712
-0.00108284
-0.00113313
-0.00114191
-0.00115226
-0.00104302
-0.000887499
-0.000914465
-0.00100265
-0.00111074
-0.00119843
-0.00116741
-0.00104668
-0.00100826
-0.000796877
-0.000584279
-0.000314021
-8.49868e-05
-9.63409e-05
-0.000247059
-0.000202231
-0.000206094
-0.000277181
-0.00034359
-0.000411223
-0.000526422
-0.000569586
-0.000622278
-0.000854769
-0.00107469
-0.00120738
-0.00114439
-0.00102436
-0.000854272
-0.000660775
-0.000630213
-0.000518099
-0.000476451
-0.000599498
-0.000643309
-0.000684843
-0.000774587
-0.000759322
-0.00074146
-0.000771643
-0.000656809
-0.000555068
-0.000635533
-0.000685083
-0.000756238
-0.000875895
-0.000896187
-0.000802931
-0.000817554
-0.000673069
-0.000505271
-0.000198327
6.66325e-05
6.90987e-05
-0.000101534
-0.000103578
-0.000153552
-0.000248474
-0.000289966
-0.000388547
-0.000541366
-0.000560695
-0.000533847
-0.000675671
-0.000834739
-0.00097523
-0.000926833
-0.000782546
-0.000591821
-0.000442642
-0.000468854
-0.000409486
-0.000399519
-0.000481256
-0.000476676
-0.000533745
-0.000657371
-0.000585326
-0.000565004
-0.000617744
-0.000469675
-0.000380091
-0.000448962
-0.00041018
-0.000464296
-0.000626287
-0.000659907
-0.000572629
-0.000637039
-0.000527772
-0.000431789
-0.000121207
0.000168803
0.0001861
2.62709e-05
2.02508e-05
-6.35348e-05
-0.000172922
-0.000209239
-0.000324657
-0.00049604
-0.000525381
-0.000450761
-0.000509033
-0.000627643
-0.000812059
-0.000765231
-0.00060769
-0.000430442
-0.000303482
-0.000363198
-0.000345197
-0.00035693
-0.00038069
-0.000346745
-0.000429683
-0.000567672
-0.000452473
-0.000451067
-0.000522298
-0.000360143
-0.000282604
-0.000321112
-0.000222357
-0.000293671
-0.000489408
-0.000507103
-0.000411706
-0.000485322
-0.000399381
-0.000344535
-3.45664e-05
0.000288331
0.000332256
0.000173043
0.000136287
3.6713e-05
-7.70088e-05
-0.00012746
-0.000265709
-0.000433821
-0.000474252
-0.000374517
-0.00038588
-0.000503782
-0.000698305
-0.000648082
-0.000472354
-0.000322087
-0.000188873
-0.000257857
-0.000285723
-0.000286152
-0.000270289
-0.000232502
-0.000341626
-0.00046572
-0.000309875
-0.000330568
-0.000426236
-0.000265411
-0.000190433
-0.000211071
-9.08945e-05
-0.000178837
-0.000404383
-0.000415346
-0.000295466
-0.000341405
-0.000244779
-0.000207312
8.32186e-05
0.000420535
0.000497399
0.000332122
0.000216787
0.000100579
-1.78825e-05
-5.86141e-05
-0.000205508
-0.000375121
-0.000432635
-0.000319398
-0.00030046
-0.000417055
-0.000629966
-0.000561227
-0.00040802
-0.000246259
-8.97794e-05
-0.00015042
-0.000204147
-0.000221931
-0.000187764
-0.000139281
-0.000266665
-0.000368071
-0.000187321
-0.000219368
-0.000322663
-0.000162202
-0.000102816
-0.000119977
1.06784e-06
-0.000114584
-0.000335856
-0.000323285
-0.000200096
-0.000226201
-0.000113942
-7.43738e-05
0.000195231
0.000528012
0.000605618
0.000417133
0.00029051
0.000174409
5.69496e-05
-9.74908e-06
-0.000164199
-0.000325488
-0.000394172
-0.00028038
-0.000249902
-0.000363169
-0.000569057
-0.000496623
-0.000355747
-0.000213636
-2.66742e-05
-8.04401e-05
-0.000163762
-0.000189392
-0.000143702
-7.69075e-05
-0.000206089
-0.00028641
-0.000107656
-0.000168295
-0.000262569
-9.18381e-05
-4.10933e-05
-7.21652e-05
3.21171e-05
-7.54512e-05
-0.000275793
-0.000258914
-0.000137955
-0.000150285
-2.03143e-05
2.48323e-05
0.000282394
0.000600191
0.000656251
0.000474461
0.000334768
0.000222534
9.96237e-05
1.74488e-05
-0.000132081
-0.000279831
-0.00035544
-0.000251963
-0.000221359
-0.000321303
-0.000516413
-0.00045587
-0.00032737
-0.000185818
1.88599e-06
-4.296e-05
-0.000130102
-0.000168905
-0.000122176
-4.48919e-05
-0.000161577
-0.000234241
-7.32801e-05
-0.000137888
-0.000218866
-5.21269e-05
3.4173e-07
-4.65375e-05
4.63152e-05
-5.04831e-05
-0.000238702
-0.000222894
-9.77469e-05
-0.000108889
2.38193e-05
7.21503e-05
0.00032396
0.000625167
0.000673106
0.000499425
0.000350622
0.00023621
0.000113276
1.99047e-05
-0.000128904
-0.000261538
-0.000335999
-0.000244281
-0.000213877
-0.000305558
-0.000493715
-0.000435049
-0.000319202
-0.000184298
6.75483e-06
-2.53246e-05
-0.000114908
-0.000159671
-0.00011906
-3.33469e-05
-0.000135247
-0.000209508
-5.9419e-05
-0.000129411
-0.000210144
-3.64598e-05
1.78213e-05
-3.6425e-05
4.72034e-05
-4.85041e-05
-0.000221944
-0.000208302
-8.74961e-05
-0.000100698
3.25238e-05
8.70358e-05
0.000332728
0.00062702
0.000672619
0.000506201
0.000352223
0.000237839
0.000106826
9.36186e-06
-0.000132689
-0.000260165
-0.000335487
-0.000250249
-0.000221406
-0.000307733
-0.000490941
-0.000434762
-0.000325588
-0.000191167
5.49579e-06
-2.37481e-05
-0.00011239
-0.000161816
-0.000124828
-3.35438e-05
-0.000131458
-0.000206475
-6.42625e-05
-0.000135954
-0.000210341
-3.50702e-05
1.90269e-05
-4.1616e-05
3.7389e-05
-4.93603e-05
-0.000217144
-0.000207536
-9.03283e-05
-0.000106487
3.22092e-05
9.06581e-05
0.000334775
0.000622366
0.000662852
0.00050247
3.29628e-05
2.68513e-05
2.49459e-05
2.24621e-05
1.40268e-05
1.59646e-05
1.34733e-05
9.73238e-06
1.73489e-05
1.07534e-05
1.25491e-05
1.70817e-05
1.6594e-05
2.45503e-05
2.16263e-05
2.69713e-05
3.02498e-05
2.90714e-05
3.74974e-05
3.68999e-05
4.29336e-05
4.68544e-05
4.27175e-05
4.79243e-05
4.47749e-05
4.13639e-05
5.02131e-05
4.81999e-05
4.12157e-05
4.65027e-05
4.43062e-05
4.0455e-05
4.48135e-05
4.21608e-05
4.53791e-05
4.53965e-05
3.79505e-05
3.89762e-05
3.66416e-05
3.40898e-05
3.34406e-05
2.90178e-05
2.74863e-05
2.11419e-05
1.77773e-05
1.37738e-05
1.24008e-05
1.20986e-05
1.27271e-05
1.1046e-05
1.05709e-05
1.45413e-05
1.76793e-05
1.81648e-05
1.93073e-05
2.46032e-05
2.5929e-05
3.10741e-05
3.35467e-05
3.68722e-05
4.68036e-05
4.37707e-05
4.64496e-05
4.89614e-05
4.37983e-05
4.42731e-05
4.93504e-05
4.94425e-05
3.98246e-05
4.70271e-05
4.49144e-05
3.78764e-05
4.53578e-05
3.99203e-05
4.47134e-05
4.47282e-05
3.93261e-05
4.17652e-05
3.64742e-05
3.76165e-05
3.39225e-05
3.1677e-05
2.635e-05
1.99749e-05
1.99093e-05
1.24989e-05
1.1996e-05
1.27628e-05
8.9297e-06
1.09308e-05
9.46225e-06
1.17058e-05
1.65433e-05
1.14961e-05
1.74262e-05
2.32053e-05
2.26949e-05
3.26362e-05
3.13037e-05
3.88836e-05
4.80259e-05
4.14291e-05
5.18549e-05
4.78314e-05
4.3809e-05
4.90754e-05
4.73537e-05
4.95616e-05
3.99064e-05
4.66833e-05
4.50525e-05
3.59795e-05
4.47122e-05
3.98315e-05
4.35604e-05
4.50177e-05
4.20289e-05
4.30158e-05
3.86097e-05
3.91207e-05
3.57026e-05
3.23319e-05
2.38803e-05
1.97738e-05
1.91634e-05
1.2535e-05
1.09486e-05
1.12625e-05
6.71331e-06
9.29683e-06
8.52289e-06
9.31199e-06
1.32149e-05
6.68192e-06
1.60987e-05
2.17471e-05
2.04076e-05
3.23371e-05
3.13228e-05
4.15553e-05
4.59035e-05
4.22621e-05
5.71021e-05
4.48015e-05
4.653e-05
5.36673e-05
4.50624e-05
5.01873e-05
4.05696e-05
4.54969e-05
4.38638e-05
3.36299e-05
4.29036e-05
3.98333e-05
4.18179e-05
4.54962e-05
4.4019e-05
4.41534e-05
4.13576e-05
3.86534e-05
3.78425e-05
3.08202e-05
2.32602e-05
2.01751e-05
1.74689e-05
1.37934e-05
8.58687e-06
8.81038e-06
4.91838e-06
6.29331e-06
7.12573e-06
6.4642e-06
8.2249e-06
3.25578e-06
1.51375e-05
1.9905e-05
1.90974e-05
3.18113e-05
3.38679e-05
4.37954e-05
4.27353e-05
4.64269e-05
5.9933e-05
4.12985e-05
5.18331e-05
5.58837e-05
4.43566e-05
5.14764e-05
4.04347e-05
4.39735e-05
4.06197e-05
3.13627e-05
4.03289e-05
3.91612e-05
4.10178e-05
4.52799e-05
4.56221e-05
4.64273e-05
4.30465e-05
3.85215e-05
3.89641e-05
2.88922e-05
2.44508e-05
1.96437e-05
1.52371e-05
1.36732e-05
5.16991e-06
6.52781e-06
2.86203e-06
3.47613e-06
4.92335e-06
2.93738e-06
3.02098e-06
1.12731e-06
1.40539e-05
1.81595e-05
1.93903e-05
3.18575e-05
3.69904e-05
4.48381e-05
4.11741e-05
5.22765e-05
5.97264e-05
4.08205e-05
5.81566e-05
5.59834e-05
4.61429e-05
5.11425e-05
3.91153e-05
4.1622e-05
3.52037e-05
2.92436e-05
3.67139e-05
3.75154e-05
4.04133e-05
4.39373e-05
4.74007e-05
4.91323e-05
4.36811e-05
3.93186e-05
3.95572e-05
2.83151e-05
2.68896e-05
1.80062e-05
1.31663e-05
1.15331e-05
1.89538e-06
4.4066e-06
4.30563e-07
1.07721e-06
1.13378e-06
-6.91162e-07
-1.38033e-06
-1.10021e-06
1.24479e-05
1.74725e-05
2.10251e-05
3.26724e-05
3.95726e-05
4.50508e-05
4.19895e-05
5.6484e-05
5.76406e-05
4.35539e-05
6.27394e-05
5.60141e-05
4.86261e-05
4.79072e-05
3.74446e-05
3.7525e-05
2.81539e-05
2.68169e-05
3.1753e-05
3.51649e-05
3.98658e-05
4.22923e-05
4.94425e-05
5.17015e-05
4.4188e-05
4.09509e-05
3.95654e-05
2.91102e-05
2.90496e-05
1.5215e-05
1.06683e-05
7.87866e-06
2.33948e-07
2.9392e-06
-2.00848e-06
-1.46551e-06
-4.17218e-06
-4.41065e-06
-5.09289e-06
-4.8825e-06
1.13072e-05
1.76954e-05
2.20995e-05
3.38644e-05
4.12884e-05
4.57755e-05
4.4106e-05
5.79382e-05
5.59993e-05
4.74109e-05
6.42042e-05
5.66551e-05
4.89546e-05
4.26367e-05
3.53619e-05
3.10957e-05
2.07532e-05
2.38672e-05
2.5282e-05
3.2591e-05
3.94262e-05
4.07541e-05
5.13591e-05
5.44302e-05
4.47538e-05
4.23125e-05
3.95072e-05
3.07168e-05
2.9691e-05
1.14625e-05
8.09004e-06
3.88287e-06
5.35567e-07
1.74554e-06
-5.4555e-06
-4.96955e-06
-1.13351e-05
-8.8923e-06
-9.40914e-06
-9.97552e-06
1.18017e-05
1.73242e-05
2.24844e-05
3.57199e-05
4.14899e-05
4.69236e-05
4.51128e-05
5.6106e-05
5.45718e-05
4.90861e-05
6.33329e-05
5.75401e-05
4.61653e-05
3.72039e-05
3.14328e-05
2.16262e-05
1.37638e-05
1.93136e-05
1.75819e-05
2.97255e-05
3.82696e-05
3.9024e-05
5.35155e-05
5.74079e-05
4.52049e-05
4.35002e-05
3.91726e-05
3.23053e-05
2.79781e-05
6.98751e-06
5.47919e-06
4.73753e-07
2.80015e-06
-3.80531e-07
-1.09192e-05
-1.12898e-05
-2.20332e-05
-1.49199e-05
-1.60363e-05
-1.55649e-05
1.30742e-05
1.52921e-05
2.31677e-05
3.72907e-05
3.97057e-05
4.71443e-05
4.30942e-05
5.17171e-05
5.20378e-05
4.59459e-05
6.05976e-05
5.4943e-05
3.96283e-05
3.17262e-05
2.39623e-05
9.66156e-06
6.74303e-06
1.24169e-05
8.97163e-06
2.62611e-05
3.56946e-05
3.73377e-05
5.60368e-05
5.99314e-05
4.49941e-05
4.41422e-05
3.71049e-05
3.23969e-05
2.29525e-05
8.62031e-07
9.48081e-07
-2.87622e-06
6.23477e-06
-4.56583e-06
-1.87094e-05
-2.15617e-05
-3.63864e-05
-2.4012e-05
-2.68387e-05
-2.2783e-05
1.14968e-05
1.02231e-05
2.20746e-05
3.5472e-05
3.35735e-05
4.24977e-05
3.58677e-05
4.43984e-05
4.47472e-05
3.70946e-05
5.4156e-05
4.68839e-05
3.1033e-05
2.34732e-05
1.12584e-05
-3.77398e-06
-1.20955e-06
2.07517e-06
-1.73682e-07
2.09298e-05
2.96565e-05
3.55397e-05
5.84565e-05
6.02892e-05
4.28554e-05
4.17717e-05
3.4058e-05
2.84377e-05
1.16393e-05
-9.39496e-06
-7.64353e-06
-7.81799e-06
6.65815e-06
-1.5271e-05
-3.35429e-05
-3.9432e-05
-5.51815e-05
-3.85119e-05
-4.37429e-05
-3.42348e-05
3.3402e-06
8.71166e-07
1.75631e-05
2.71704e-05
1.95302e-05
2.87074e-05
2.22959e-05
3.20334e-05
2.94548e-05
2.07784e-05
4.1029e-05
3.21669e-05
1.88959e-05
8.21556e-06
-9.21313e-06
-2.12972e-05
-1.33799e-05
-1.2294e-05
-1.22723e-05
1.1554e-05
1.96871e-05
3.22236e-05
5.82961e-05
5.5451e-05
3.7124e-05
3.6131e-05
2.47973e-05
1.4128e-05
-1.0218e-05
-2.74542e-05
-2.20827e-05
-1.575e-05
-2.05191e-06
-3.93717e-05
-6.24512e-05
-7.06651e-05
-8.42225e-05
-6.42125e-05
-7.13523e-05
-5.59777e-05
-1.75794e-05
-1.91768e-05
6.35635e-07
2.91434e-06
-1.1505e-05
-1.40633e-06
-2.84972e-06
7.89469e-06
1.78762e-06
-6.63062e-06
1.73064e-05
9.86578e-06
-1.71933e-06
-1.93715e-05
-3.99778e-05
-4.61063e-05
-3.42718e-05
-3.50834e-05
-3.25732e-05
-5.89838e-06
3.72091e-06
2.34331e-05
4.79845e-05
3.71353e-05
1.89716e-05
2.0203e-05
-7.02231e-06
-2.60246e-05
-5.4958e-05
-6.53891e-05
-5.19361e-05
-3.74431e-05
-3.11065e-05
-8.36501e-05
-0.000110534
-0.000119255
-0.000130121
-0.000108899
-0.000117747
-9.5776e-05
-5.73503e-05
-5.77264e-05
-3.80352e-05
-4.77695e-05
-7.01793e-05
-5.62938e-05
-4.85513e-05
-4.04947e-05
-4.94845e-05
-5.53524e-05
-2.73136e-05
-2.8216e-05
-4.15525e-05
-6.52814e-05
-8.45092e-05
-8.29842e-05
-6.6543e-05
-7.07061e-05
-6.99588e-05
-3.93894e-05
-2.12287e-05
4.22313e-06
1.78899e-05
-6.58352e-06
-2.83637e-05
-2.11519e-05
-9.61008e-05
-0.000124183
-0.000150103
-0.000147324
-0.000118729
-9.5323e-05
-0.000101967
-0.000169465
-0.000194442
-0.000199997
-0.000207607
-0.000184859
-0.000193689
-0.000165403
-0.000125587
-0.000128029
-0.000113266
-0.000137933
-0.000165091
-0.000140348
-0.000118491
-0.000118081
-0.000131541
-0.000134057
-9.82497e-05
-9.15593e-05
-0.00011362
-0.000142114
-0.000156329
-0.000142255
-0.00012016
-0.000133146
-0.000136811
-0.000106212
-7.47888e-05
-4.51081e-05
-5.32177e-05
-9.42854e-05
-0.00011773
-0.000107415
-0.000202269
-0.000239652
-0.000255182
-0.000231305
-0.000183314
-0.000163105
-0.000188875
-0.000271118
-0.000293311
-0.000290987
-0.000304168
-0.000289704
-0.000301405
-0.000262974
-0.000220434
-0.000226214
-0.000226284
-0.000271916
-0.000297524
-0.00025169
-0.000214275
-0.00021948
-0.000232165
-0.000223084
-0.000172936
-0.000161045
-0.000199614
-0.000231726
-0.000233492
-0.000197781
-0.000180832
-0.000213769
-0.000221885
-0.000186473
-0.000134031
-0.000110808
-0.000147763
-0.000190533
-0.000203017
-0.000199967
-0.000279769
-0.000325513
-0.000326313
-0.000280303
-0.000218085
-0.00022602
-0.000279604
-0.000381688
-0.000391288
-0.000369795
-0.000393619
-0.000394442
-0.00041445
-0.00036426
-0.000321671
-0.000339319
-0.000367651
-0.000430827
-0.000442114
-0.000366443
-0.000317101
-0.000325003
-0.000329437
-0.000288896
-0.000222984
-0.000218836
-0.00027262
-0.000303953
-0.000298951
-0.00024776
-0.000240415
-0.000304396
-0.000319513
-0.000275593
-0.000194009
-0.000181205
-0.000240051
-0.000271167
-0.00026695
-0.000258069
-0.000317351
-0.000373591
-0.000382097
-0.00033191
-0.000263261
-0.000313462
-0.000404253
-0.000507894
-0.0004794
-0.000424879
-0.000450741
-0.000460232
-0.000488542
-0.000440688
-0.000404683
-0.000441427
-0.000507874
-0.00057988
-0.000558809
-0.000459936
-0.000405481
-0.000421261
-0.000416596
-0.000333541
-0.000262933
-0.000278779
-0.000338889
-0.000371167
-0.000365547
-0.000294466
-0.000307067
-0.000406272
-0.000412428
-0.000351138
-0.000248791
-0.000248691
-0.000306972
-0.000311288
-0.000277244
-0.000265435
-0.000375638
-0.000454511
-0.000475038
-0.000423646
-0.000349146
-0.000446252
-0.000549399
-0.000630304
-0.000548536
-0.000468871
-0.000500123
-0.000504832
-0.000542484
-0.000512152
-0.000500786
-0.000573847
-0.000670893
-0.000716422
-0.000662167
-0.00054614
-0.000491339
-0.000522121
-0.000494568
-0.000373813
-0.000323577
-0.000344024
-0.000407818
-0.000448171
-0.000433009
-0.000355238
-0.000412528
-0.00053608
-0.000526165
-0.00043975
-0.000310669
-0.000314757
-0.00035726
-0.000313926
-0.000250192
-0.000265391
-0.000513589
-0.000595275
-0.000590126
-0.000506695
-0.000425024
-0.000553426
-0.000647604
-0.000711388
-0.000590382
-0.000536377
-0.000598097
-0.000603929
-0.000643718
-0.000624042
-0.000633769
-0.000730607
-0.000832105
-0.000842347
-0.000766443
-0.000641463
-0.000614598
-0.000676217
-0.00062699
-0.000482128
-0.000443998
-0.000466783
-0.000539771
-0.000579637
-0.000543097
-0.000472022
-0.00057985
-0.000712991
-0.000675056
-0.000545609
-0.000375211
-0.000394215
-0.000421813
-0.000328768
-0.00024347
-0.00031761
-0.000655501
-0.000706718
-0.000660917
-0.000516672
-0.000444038
-0.000607177
-0.000705246
-0.000770656
-0.000637797
-0.000645754
-0.000739358
-0.000723035
-0.000733969
-0.000697454
-0.000702845
-0.000822694
-0.000945568
-0.000971782
-0.000906483
-0.000763997
-0.000771978
-0.000874141
-0.000810051
-0.000650094
-0.000618978
-0.00064731
-0.000728433
-0.000752818
-0.000670139
-0.000607183
-0.000754705
-0.000877322
-0.000805676
-0.000607419
-0.000399705
-0.000473772
-0.00051538
-0.000380528
-0.000269745
-0.000406508
-0.000710987
-0.000740058
-0.000660518
-0.00046411
-0.000425163
-0.000637143
-0.000752013
-0.000807375
-0.000670312
-0.000734113
-0.000832575
-0.000801302
-0.000758977
-0.000674916
-0.000680638
-0.000829787
-0.000994326
-0.00106867
-0.00102993
-0.000878214
-0.000930769
-0.00106613
-0.000981309
-0.000797623
-0.000784861
-0.000834532
-0.000918447
-0.000914873
-0.000775941
-0.000715954
-0.000881075
-0.00099417
-0.000902446
-0.000649552
-0.000432564
-0.000572668
-0.000628063
-0.000429796
-0.000265343
-0.000453528
-0.000683264
-0.000725341
-0.000631031
-0.000393518
-0.000398987
-0.000656543
-0.000777015
-0.000793709
-0.000640708
-0.000751748
-0.000846772
-0.000837267
-0.000747606
-0.00061644
-0.000625735
-0.000795236
-0.000968772
-0.00104809
-0.0010059
-0.000866098
-0.000969633
-0.00115082
-0.00103782
-0.000822324
-0.00083811
-0.000929206
-0.00103514
-0.00100267
-0.000806503
-0.000759795
-0.000938709
-0.00107252
-0.00096815
-0.000683595
-0.000495245
-0.000700996
-0.000736683
-0.000444545
-0.000217421
-0.000448679
-0.000623334
-0.000702004
-0.00060096
-0.000320709
-0.000361821
-0.000670422
-0.000774402
-0.000727364
-0.000555036
-0.000698235
-0.00079773
-0.000810111
-0.000688196
-0.000524186
-0.000523981
-0.000700197
-0.00085727
-0.000888863
-0.000824629
-0.000668375
-0.000817106
-0.00102367
-0.000865134
-0.000660942
-0.000768874
-0.00090878
-0.00105295
-0.00102605
-0.000786483
-0.000755001
-0.000960925
-0.0011179
-0.000995082
-0.000683208
-0.000547696
-0.000813329
-0.000802496
-0.000413438
-0.000135773
-0.000399815
-0.000549682
-0.000660688
-0.00055364
-0.000231511
-0.000299598
-0.000631723
-0.00071411
-0.000610381
-0.000426045
-0.000596551
-0.000702726
-0.000714897
-0.000556704
-0.00036325
-0.000344411
-0.000509296
-0.000655077
-0.000654972
-0.000546101
-0.000389053
-0.000576614
-0.000784238
-0.000588937
-0.000406583
-0.000555982
-0.000760352
-0.000967498
-0.000926162
-0.00064359
-0.000640778
-0.000880092
-0.00103049
-0.000895564
-0.000583228
-0.000500115
-0.000836568
-0.0008071
-0.000341336
-3.37023e-05
-0.000313249
-0.000485432
-0.000606508
-0.000482616
-0.000139259
-0.000223784
-0.000554283
-0.000615485
-0.00047325
-0.00026977
-0.00044497
-0.000574347
-0.000561537
-0.000375626
-0.000176867
-0.000143309
-0.000294694
-0.000422644
-0.000406107
-0.000290428
-0.000144633
-0.000367075
-0.000578432
-0.000333979
-0.000178928
-0.000384544
-0.000546319
-0.000756546
-0.000725678
-0.000409558
-0.000436829
-0.00069923
-0.00082966
-0.00069103
-0.000360514
-0.000328232
-0.000736814
-0.00071172
-0.00020986
0.000105871
-0.000210857
-0.00042358
-0.000568862
-0.000410611
-3.83705e-05
-0.000146898
-0.000465982
-0.000513216
-0.000334664
-0.000105202
-0.000308342
-0.000446431
-0.000423414
-0.000210565
6.02531e-06
4.63772e-05
-9.92993e-05
-0.000251832
-0.000234183
-9.49054e-05
3.15941e-05
-0.00022344
-0.000444275
-0.000189281
-4.83116e-06
-0.000181625
-0.000355728
-0.000560132
-0.000510399
-0.000179809
-0.000231524
-0.000494675
-0.000620803
-0.000498716
-0.000161917
-0.000142131
-0.000596982
-0.000563119
-2.85644e-05
0.000262574