/*--------------------------------*- C++ -*----------------------------------*\
  =========                 |
  \\      /  F ield         | OpenFOAM: The Open Source CFD Toolbox
   \\    /   O peration     | Website:  https://openfoam.org
    \\  /    A nd           | Version:  10
     \\/     M anipulation  |
\*---------------------------------------------------------------------------*/
FoamFile
{
    format      ascii;
    class       volVectorField;
    location    "10";
    object      UMean;
}
// * * * * * * * * * * * * * * * * * * * * * * * * * * * * * * * * * * * * * //

dimensions      [0 1 -1 0 0 0 0];

internalField   nonuniform List<vector> 
25600
(
(1.01753 -2.49828e-05 1.90616e-05)
(1.01753 6.05231e-07 1.72979e-05)
(1.01754 -2.64229e-05 3.44933e-05)
(1.01753 -1.17261e-05 1.03657e-05)
(1.01756 -1.42598e-05 2.98842e-05)
(1.01755 -2.83129e-05 2.16196e-05)
(1.01755 -1.92202e-06 1.3686e-05)
(1.01757 -2.44235e-05 2.85738e-05)
(1.01754 -1.12224e-05 1.50357e-05)
(1.01757 -2.28165e-06 1.614e-05)
(1.01756 -1.3668e-05 2.12759e-05)
(1.01756 1.31746e-05 1.73039e-05)
(1.01756 2.06179e-06 1.36715e-05)
(1.01754 8.23249e-06 2.01182e-05)
(1.01757 3.55346e-05 1.36602e-05)
(1.01754 1.45753e-05 1.29917e-05)
(1.01755 4.12702e-05 2.05205e-05)
(1.01755 4.26922e-05 7.70484e-06)
(1.01753 2.05109e-05 1.69856e-05)
(1.01755 6.43098e-05 1.68321e-05)
(1.01752 2.23887e-05 5.29163e-06)
(1.01752 3.53066e-05 2.03534e-05)
(1.01753 4.28862e-05 1.33118e-05)
(1.01751 1.6897e-06 7.35639e-06)
(1.01752 3.69161e-05 1.83697e-05)
(1.01753 -6.3753e-06 1.24462e-05)
(1.01751 1.38921e-05 1.30243e-05)
(1.01751 -1.59591e-06 1.47453e-05)
(1.01753 -1.92446e-05 1.46235e-05)
(1.01751 1.53536e-05 1.78371e-05)
(1.01752 -3.35721e-05 1.40043e-05)
(1.01752 3.61094e-06 1.84253e-05)
(1.01751 -1.46019e-05 1.97744e-05)
(1.01752 -1.87815e-05 1.40319e-05)
(1.01751 5.92687e-06 2.5353e-05)
(1.01751 -2.4833e-05 1.592e-05)
(1.01752 8.33848e-06 1.94061e-05)
(1.01752 -1.89878e-05 2.84534e-05)
(1.01752 -9.60073e-06 1.01318e-05)
(1.01753 -2.02775e-06 3.32598e-05)
(1.01753 -1.12008e-05 2.11485e-05)
(1.01753 -5.18378e-06 2.82169e-05)
(1.01754 -1.67565e-05 3.63344e-05)
(1.01754 -1.21535e-05 1.82436e-05)
(1.01755 -4.08508e-06 3.51762e-05)
(1.01755 -2.60998e-05 2.51381e-05)
(1.01755 2.13706e-06 2.21239e-05)
(1.01756 -1.57418e-05 3.07846e-05)
(1.01756 -1.30393e-05 2.06568e-05)
(1.01757 1.4401e-05 1.95292e-05)
(1.01756 -1.71137e-05 2.59583e-05)
(1.01757 2.52625e-05 1.94753e-05)
(1.01756 6.03099e-06 1.67192e-05)
(1.01756 1.44649e-05 2.26692e-05)
(1.01757 5.02534e-05 1.48652e-05)
(1.01754 1.49647e-05 1.65832e-05)
(1.01756 5.96502e-05 2.15322e-05)
(1.01754 4.42527e-05 1.32202e-05)
(1.01754 3.46703e-05 2.02827e-05)
(1.01754 7.46892e-05 2.24332e-05)
(1.01751 1.963e-05 1.09222e-05)
(1.01753 5.65187e-05 2.6203e-05)
(1.01751 4.20032e-05 1.82684e-05)
(1.01751 9.04332e-06 1.36213e-05)
(1.01751 5.02027e-05 2.62744e-05)
(1.01751 -2.74618e-06 1.58871e-05)
(1.01751 1.90255e-05 2.10483e-05)
(1.01749 5.40378e-06 1.89687e-05)
(1.01753 -7.27106e-06 2.0532e-05)
(1.0175 1.41525e-05 2.42764e-05)
(1.01751 -1.70766e-05 1.60342e-05)
(1.01753 6.54912e-06 2.52249e-05)
(1.0175 -6.52067e-06 2.40262e-05)
(1.01753 -5.58439e-06 1.75665e-05)
(1.01751 2.2502e-06 3.13129e-05)
(1.01751 -7.51923e-06 1.93685e-05)
(1.01752 5.2019e-06 2.51799e-05)
(1.01751 -9.07022e-06 3.14222e-05)
(1.01753 -4.05539e-06 1.80158e-05)
(1.01752 -2.80047e-06 3.78223e-05)
(1.01753 8.67599e-07 2.95564e-05)
(1.01752 -1.67009e-05 4.18649e-05)
(1.01753 -2.70495e-06 4.16728e-05)
(1.01754 -1.77127e-05 3.18318e-05)
(1.01754 1.1864e-06 4.23432e-05)
(1.01755 -1.98034e-05 3.41582e-05)
(1.01756 -3.49605e-06 3.16743e-05)
(1.01755 -9.0501e-06 3.58887e-05)
(1.01757 -1.30272e-05 2.99174e-05)
(1.01756 1.56579e-05 2.39096e-05)
(1.01756 -1.15101e-05 3.40364e-05)
(1.01758 2.54794e-05 2.25304e-05)
(1.01755 8.41906e-06 2.33779e-05)
(1.01758 2.50503e-05 2.70189e-05)
(1.01757 4.96377e-05 2.21742e-05)
(1.01755 2.55428e-05 2.27159e-05)
(1.01757 6.67622e-05 2.67071e-05)
(1.01753 4.64517e-05 2.39718e-05)
(1.01755 5.57952e-05 2.40616e-05)
(1.01753 7.09787e-05 3.16477e-05)
(1.01751 2.82305e-05 2.01139e-05)
(1.01754 7.55306e-05 3.3114e-05)
(1.01749 3.222e-05 2.78306e-05)
(1.01752 2.61098e-05 2.33308e-05)
(1.01751 5.1802e-05 3.59852e-05)
(1.0175 1.20112e-07 2.39424e-05)
(1.01752 2.15609e-05 3.09578e-05)
(1.01748 4.43861e-06 2.83045e-05)
(1.01754 3.38474e-06 2.89305e-05)
(1.0175 3.97741e-06 3.37105e-05)
(1.01751 -1.05458e-06 2.38866e-05)
(1.01753 4.11165e-06 3.27154e-05)
(1.0175 -1.31995e-07 3.34664e-05)
(1.01753 5.96207e-06 2.46063e-05)
(1.01751 -3.01908e-06 3.91848e-05)
(1.01751 1.03814e-05 2.81117e-05)
(1.01752 -2.06413e-06 3.3036e-05)
(1.01751 5.60091e-06 3.78041e-05)
(1.01752 -3.75254e-06 3.05404e-05)
(1.01752 -1.24747e-06 4.3273e-05)
(1.01752 -4.7502e-07 4.46795e-05)
(1.01752 -2.09783e-05 6.0613e-05)
(1.01753 5.36212e-06 5.47507e-05)
(1.01754 -2.78529e-05 5.03133e-05)
(1.01754 4.29523e-06 5.66881e-05)
(1.01755 -2.03909e-05 5.0242e-05)
(1.01756 -1.12212e-05 4.56032e-05)
(1.01755 -8.62726e-06 5.08883e-05)
(1.01758 -1.34899e-05 4.31984e-05)
(1.01757 8.46967e-06 3.77312e-05)
(1.01757 -4.0937e-06 4.61707e-05)
(1.01758 1.99001e-05 3.17727e-05)
(1.01755 9.54099e-06 3.62057e-05)
(1.01759 3.33469e-05 3.51565e-05)
(1.01757 4.23832e-05 3.6999e-05)
(1.01756 3.93653e-05 3.03836e-05)
(1.01758 6.86641e-05 3.96224e-05)
(1.01753 5.23506e-05 3.86667e-05)
(1.01756 7.29504e-05 3.40258e-05)
(1.01752 6.20756e-05 4.94947e-05)
(1.01751 4.4117e-05 3.35133e-05)
(1.01753 8.46983e-05 4.70419e-05)
(1.01747 1.91133e-05 4.33187e-05)
(1.01753 4.77811e-05 3.81654e-05)
(1.01749 4.18883e-05 5.06244e-05)
(1.01749 3.61753e-06 3.82397e-05)
(1.01751 2.29893e-05 4.49603e-05)
(1.01748 -2.44441e-06 4.38388e-05)
(1.01753 1.15128e-05 4.02909e-05)
(1.0175 -7.63856e-06 4.88077e-05)
(1.01751 1.09583e-05 3.5994e-05)
(1.01753 1.20436e-06 4.39471e-05)
(1.0175 3.24006e-06 4.79343e-05)
(1.01752 1.24721e-05 3.52461e-05)
(1.01751 -5.34178e-06 5.13219e-05)
(1.01751 1.78609e-05 4.1089e-05)
(1.01752 -3.8343e-06 4.51518e-05)
(1.01751 1.54119e-05 4.91851e-05)
(1.01752 -7.54244e-06 4.66583e-05)
(1.01752 6.87035e-06 5.46881e-05)
(1.0175 -1.12483e-05 6.56737e-05)
(1.01753 -1.65235e-05 8.56863e-05)
(1.01753 -1.02992e-07 7.51093e-05)
(1.01754 -3.74992e-05 7.37583e-05)
(1.01755 1.51604e-06 7.87729e-05)
(1.01754 -3.04649e-05 6.98072e-05)
(1.01757 -1.74852e-05 6.49413e-05)
(1.01755 -1.90197e-05 7.16068e-05)
(1.01758 -1.73029e-05 5.91636e-05)
(1.01757 -5.06493e-06 5.97441e-05)
(1.01757 -3.42328e-06 5.90035e-05)
(1.01759 1.19225e-05 4.8558e-05)
(1.01756 8.15894e-06 5.26304e-05)
(1.0176 3.50774e-05 4.92902e-05)
(1.01757 3.54964e-05 5.71731e-05)
(1.01757 4.91329e-05 4.08287e-05)
(1.01758 7.02714e-05 6.14464e-05)
(1.01753 5.7094e-05 5.50881e-05)
(1.01756 8.14938e-05 5.29526e-05)
(1.01751 5.63133e-05 7.35127e-05)
(1.01752 6.08452e-05 5.13023e-05)
(1.01752 8.32031e-05 6.91937e-05)
(1.01746 1.18174e-05 6.5044e-05)
(1.01753 6.93515e-05 5.77048e-05)
(1.01747 2.25575e-05 7.11707e-05)
(1.01748 1.14362e-05 5.72517e-05)
(1.01751 1.86982e-05 6.34841e-05)
(1.01747 -1.54603e-05 6.23657e-05)
(1.01753 1.47059e-05 5.58469e-05)
(1.0175 -2.34202e-05 6.71609e-05)
(1.01751 1.68529e-05 5.18334e-05)
(1.01753 -5.50357e-06 5.92357e-05)
(1.0175 8.10093e-07 6.48936e-05)
(1.01752 1.33551e-05 5.13516e-05)
(1.01751 -8.31556e-06 6.74624e-05)
(1.01751 1.64754e-05 5.73843e-05)
(1.01752 -1.26597e-06 6.21652e-05)
(1.01751 1.34187e-05 6.52659e-05)
(1.01752 -1.00502e-05 6.74264e-05)
(1.01752 1.19336e-05 7.33763e-05)
(1.01749 -2.31006e-05 9.36242e-05)
(1.01753 -1.21249e-05 0.000117541)
(1.01752 -1.84499e-05 0.000104062)
(1.01754 -4.50263e-05 0.000105333)
(1.01754 -9.70288e-06 0.000109422)
(1.01753 -4.51337e-05 9.50963e-05)
(1.01757 -2.2856e-05 9.33382e-05)
(1.01755 -4.03981e-05 9.6983e-05)
(1.01758 -2.34643e-05 8.37894e-05)
(1.01757 -2.49063e-05 8.90592e-05)
(1.01758 -9.01678e-06 7.5775e-05)
(1.01759 1.99011e-06 7.41426e-05)
(1.01757 1.8333e-06 7.22994e-05)
(1.01761 2.73452e-05 7.2008e-05)
(1.01757 2.88768e-05 8.01186e-05)
(1.01758 4.90542e-05 5.72262e-05)
(1.01758 6.95803e-05 8.73821e-05)
(1.01753 5.32229e-05 7.32496e-05)
(1.01755 8.04976e-05 8.06019e-05)
(1.0175 5.3216e-05 0.000100586)
(1.01753 7.05044e-05 7.26808e-05)
(1.0175 7.1001e-05 9.71727e-05)
(1.01746 1.42242e-05 8.95735e-05)
(1.01753 8.03325e-05 7.94291e-05)
(1.01745 -3.23161e-06 9.69662e-05)
(1.01748 2.21641e-05 8.0025e-05)
(1.01749 -2.51345e-06 8.51774e-05)
(1.01747 -2.9356e-05 8.43613e-05)
(1.01752 3.78023e-06 7.47889e-05)
(1.01749 -4.50475e-05 8.7681e-05)
(1.01752 1.35511e-05 7.03498e-05)
(1.01752 -2.04843e-05 7.79796e-05)
(1.01751 -5.97857e-06 8.29486e-05)
(1.01751 7.0067e-06 7.12022e-05)
(1.01751 -1.46042e-05 8.53188e-05)
(1.01751 9.73602e-06 7.60831e-05)
(1.01751 -2.0158e-06 8.28058e-05)
(1.0175 4.33867e-06 8.64681e-05)
(1.01751 -1.10875e-05 9.2692e-05)
(1.01752 1.00824e-05 9.91061e-05)
(1.01748 -3.70675e-05 0.00012364)
(1.01752 -1.6526e-05 0.000152997)
(1.0175 -4.72527e-05 0.000138335)
(1.01754 -5.56725e-05 0.000141203)
(1.01754 -3.47759e-05 0.000142954)
(1.01752 -6.39925e-05 0.000122717)
(1.01756 -3.73771e-05 0.000125365)
(1.01754 -7.2485e-05 0.000124789)
(1.01758 -3.77201e-05 0.000113685)
(1.01757 -5.26954e-05 0.000120274)
(1.01758 -1.96437e-05 9.48359e-05)
(1.01759 -1.34553e-05 0.000102423)
(1.01757 -1.14081e-05 9.24649e-05)
(1.01761 8.29663e-06 9.89256e-05)
(1.01758 2.1081e-05 0.000102154)
(1.01758 3.78473e-05 7.70621e-05)
(1.01758 6.79623e-05 0.000112389)
(1.01753 4.04186e-05 9.37304e-05)
(1.01755 7.51079e-05 0.000113443)
(1.0175 4.77596e-05 0.000129071)
(1.01752 6.8397e-05 9.7222e-05)
(1.01748 5.04855e-05 0.000127469)
(1.01746 1.99164e-05 0.000113288)
(1.01752 6.60783e-05 0.000100227)
(1.01743 -2.99277e-05 0.00012464)
(1.01748 1.85016e-05 0.000100388)
(1.01747 -4.12388e-05 0.000106501)
(1.01747 -4.59531e-05 0.00010403)
(1.01751 -2.87506e-05 9.26108e-05)
(1.01749 -7.10128e-05 0.000104692)
(1.01752 -3.38157e-06 8.75639e-05)
(1.01751 -4.33105e-05 9.49753e-05)
(1.01751 -1.97986e-05 9.88448e-05)
(1.01751 -8.416e-06 9.09979e-05)
(1.0175 -2.71119e-05 0.000101156)
(1.01751 -4.08551e-06 9.33413e-05)
(1.01751 -1.33293e-05 0.000103069)
(1.01749 -9.43652e-06 0.000110681)
(1.01751 -1.87678e-05 0.00011824)
(1.01751 4.96702e-07 0.000128903)
(1.01747 -5.90887e-05 0.000150897)
(1.0175 -3.21989e-05 0.000189629)
(1.01748 -8.62369e-05 0.000172178)
(1.01753 -7.38798e-05 0.000178121)
(1.01752 -7.67185e-05 0.000175816)
(1.01751 -8.87362e-05 0.000151318)
(1.01754 -6.90151e-05 0.000158105)
(1.01753 -0.000108978 0.000154071)
(1.01757 -6.56807e-05 0.00014399)
(1.01756 -8.43202e-05 0.000151061)
(1.01758 -4.25205e-05 0.00011112)
(1.01758 -3.56879e-05 0.000129698)
(1.01756 -3.9269e-05 0.000108362)
(1.01761 -2.08369e-05 0.000124668)
(1.01757 1.43604e-06 0.000118472)
(1.01758 1.42524e-05 9.29874e-05)
(1.01756 5.83533e-05 0.000129494)
(1.01752 1.69283e-05 0.000113065)
(1.01754 6.29892e-05 0.000142132)
(1.01748 3.39942e-05 0.000154294)
(1.01751 5.08963e-05 0.000116772)
(1.01745 2.52117e-05 0.00015259)
(1.01745 1.306e-05 0.000126891)
(1.01749 2.67578e-05 0.000116451)
(1.01741 -5.83479e-05 0.000145985)
(1.01746 -1.1516e-05 0.000114587)
(1.01744 -9.14164e-05 0.000122016)
(1.01746 -7.66039e-05 0.000116172)
(1.01749 -8.44507e-05 0.000103194)
(1.01749 -0.000103701 0.00011311)
(1.01751 -3.90566e-05 9.7974e-05)
(1.01749 -7.30732e-05 0.000103821)
(1.01751 -4.3399e-05 0.000107911)
(1.01749 -3.36429e-05 0.000105201)
(1.01749 -5.26899e-05 0.000110066)
(1.0175 -2.7614e-05 0.000102881)
(1.01749 -3.75688e-05 0.000118359)
(1.01748 -2.66297e-05 0.00013124)
(1.0175 -3.86854e-05 0.000138624)
(1.01749 -1.46622e-05 0.000157859)
(1.01744 -8.69731e-05 0.000165058)
(1.01747 -5.69156e-05 0.000213289)
(1.01744 -0.000135679 0.000195142)
(1.0175 -0.000105292 0.000202375)
(1.01749 -0.000134427 0.000194887)
(1.01749 -0.000120864 0.00016401)
(1.01751 -0.000117158 0.000179184)
(1.0175 -0.000148325 0.000168178)
(1.01755 -0.000109549 0.000164431)
(1.01754 -0.000118225 0.000167994)
(1.01757 -7.89081e-05 0.000115011)
(1.01755 -6.18868e-05 0.000142103)
(1.01754 -8.38621e-05 0.000110094)
(1.01759 -5.74169e-05 0.000135525)
(1.01756 -4.16604e-05 0.000117941)
(1.01757 -1.85118e-05 8.98911e-05)
(1.01754 3.10151e-05 0.000128138)
(1.01749 -1.52336e-05 0.000115651)
(1.01752 4.00085e-05 0.00015441)
(1.01745 7.84144e-06 0.00016389)
(1.01748 1.80135e-05 0.000122175)
(1.01742 -6.81861e-06 0.000159717)
(1.01742 -1.8988e-05 0.000122011)
(1.01744 -3.02037e-05 0.000116277)
(1.01737 -0.000100809 0.000149435)
(1.01742 -7.08249e-05 0.000110527)
(1.0174 -0.000150096 0.000120615)
(1.01743 -0.000130645 0.0001094)
(1.01746 -0.000158123 9.49825e-05)
(1.01748 -0.000149992 0.000103008)
(1.0175 -9.2817e-05 9.21333e-05)
(1.01746 -0.000111508 9.38761e-05)
(1.01749 -7.90893e-05 0.000102739)
(1.01746 -7.12549e-05 0.000103782)
(1.01747 -9.24325e-05 0.000103621)
(1.01748 -6.4564e-05 9.51311e-05)
(1.01747 -7.52081e-05 0.000118742)
(1.01745 -5.46932e-05 0.000135958)
(1.01748 -6.84241e-05 0.000146066)
(1.01746 -3.67582e-05 0.000172349)
(1.01738 -0.000115533 0.000153332)
(1.0174 -9.80755e-05 0.000215695)
(1.01738 -0.000188387 0.000195843)
(1.01745 -0.000155233 0.000204509)
(1.01744 -0.000202614 0.000188457)
(1.01744 -0.000168144 0.0001526)
(1.01745 -0.00017724 0.000175995)
(1.01745 -0.00019398 0.000156132)
(1.01751 -0.00016427 0.000160547)
(1.0175 -0.000162004 0.000155399)
(1.01753 -0.000126354 9.01582e-05)
(1.0175 -0.000101405 0.000124841)
(1.01749 -0.000140495 8.19699e-05)
(1.01755 -0.00011079 0.00011605)
(1.01752 -0.000110075 8.10214e-05)
(1.01754 -6.30396e-05 4.91571e-05)
(1.01749 -1.55668e-05 8.79011e-05)
(1.01745 -5.68782e-05 8.38561e-05)
(1.01748 2.45933e-06 0.000132608)
(1.0174 -3.86305e-05 0.000144285)
(1.01743 -2.36676e-05 9.53144e-05)
(1.01736 -5.38097e-05 0.000131327)
(1.01736 -7.36311e-05 8.27327e-05)
(1.01738 -0.000104786 8.41644e-05)
(1.01731 -0.000166388 0.000121284)
(1.01736 -0.000157935 7.52672e-05)
(1.01734 -0.000216339 8.86531e-05)
(1.01738 -0.000213784 7.07632e-05)
(1.01741 -0.000241098 5.60048e-05)
(1.01744 -0.000219316 6.36763e-05)
(1.01745 -0.000157497 5.72884e-05)
(1.01742 -0.000160636 5.19246e-05)
(1.01745 -0.000119224 7.06502e-05)
(1.01741 -0.000126171 7.41723e-05)
(1.01742 -0.000139347 6.87633e-05)
(1.01743 -0.000113786 5.74758e-05)
(1.01742 -0.000115533 8.77877e-05)
(1.01741 -9.40896e-05 0.000113268)
(1.01743 -0.000100756 0.000126545)
(1.01741 -7.35778e-05 0.000161906)
(1.01728 -0.00013982 8.7887e-05)
(1.01729 -0.000148594 0.000168363)
(1.01727 -0.000241618 0.000144284)
(1.01735 -0.000223111 0.000149653)
(1.01734 -0.000271858 0.000123515)
(1.01735 -0.000222216 8.77912e-05)
(1.01735 -0.000236076 0.0001202)
(1.01736 -0.000237521 8.60913e-05)
(1.01742 -0.000223265 0.000100867)
(1.01741 -0.000210985 8.08007e-05)
(1.01744 -0.000175718 6.91268e-06)
(1.0174 -0.000146974 4.18541e-05)
(1.01739 -0.000200654 -9.77903e-06)
(1.01746 -0.000186997 2.59123e-05)
(1.01743 -0.00019983 -2.41403e-05)
(1.01746 -0.000121823 -6.41797e-05)
(1.0174 -7.61685e-05 -2.22798e-05)
(1.01736 -0.00010591 -1.74409e-05)
(1.01738 -4.9012e-05 4.56645e-05)
(1.0173 -0.00010571 6.32596e-05)
(1.01733 -8.05792e-05 8.11519e-06)
(1.01725 -0.000128044 3.60243e-05)
(1.01726 -0.000152942 -2.19958e-05)
(1.01726 -0.000205494 -1.26656e-05)
(1.01721 -0.000268122 2.83522e-05)
(1.01726 -0.000268217 -1.56409e-05)
(1.01723 -0.000300874 3.93572e-06)
(1.01728 -0.000319862 -2.39141e-05)
(1.01731 -0.000339168 -3.2964e-05)
(1.01736 -0.000313607 -2.71787e-05)
(1.01737 -0.000228933 -2.88937e-05)
(1.01733 -0.000216118 -4.39025e-05)
(1.01735 -0.000161262 -1.06656e-05)
(1.0173 -0.000195102 -9.63025e-06)
(1.01732 -0.000190162 -1.92956e-05)
(1.01733 -0.000169787 -3.8098e-05)
(1.01732 -0.000154795 -3.32819e-06)
(1.01731 -0.000132531 3.51762e-05)
(1.01734 -0.000131823 5.19734e-05)
(1.01731 -0.000111752 9.48864e-05)
(1.01714 -0.000175404 -0.000115762)
(1.01714 -0.000206984 -1.00252e-05)
(1.01713 -0.00029923 -5.4451e-05)
(1.01722 -0.000313192 -5.41331e-05)
(1.01721 -0.000356961 -9.3167e-05)
(1.01723 -0.000298898 -0.000113938)
(1.01721 -0.000303201 -8.11661e-05)
(1.01722 -0.000289958 -0.000128673)
(1.01728 -0.000301557 -0.000116908)
(1.01728 -0.000277112 -0.000147496)
(1.01731 -0.000239953 -0.000235256)
(1.01725 -0.000201528 -0.000196445)
(1.01724 -0.00027084 -0.000266176)
(1.01732 -0.000295998 -0.000233817)
(1.0173 -0.000318586 -0.000302984)
(1.01735 -0.000200757 -0.000352036)
(1.01726 -0.000145212 -0.000308467)
(1.01722 -0.00015402 -0.000294164)
(1.01724 -0.000116967 -0.000215362)
(1.01715 -0.00018519 -0.000176997)
(1.01719 -0.000149309 -0.000243229)
(1.0171 -0.000214418 -0.000226261)
(1.0171 -0.000244984 -0.00029821)
(1.0171 -0.000325959 -0.000273909)
(1.01705 -0.00039779 -0.000229496)
(1.01711 -0.000394472 -0.000248837)
(1.01707 -0.000406849 -0.000224807)
(1.01712 -0.000433644 -0.000255637)
(1.01716 -0.000456044 -0.000257583)
(1.01723 -0.000425062 -0.000249606)
(1.01724 -0.000303369 -0.000244861)
(1.01718 -0.000264033 -0.000270902)
(1.0172 -0.000206122 -0.000226068)
(1.01714 -0.000273879 -0.000225569)
(1.01716 -0.000250882 -0.000241583)
(1.01718 -0.000227429 -0.000266322)
(1.01717 -0.000192262 -0.000231586)
(1.01717 -0.000166385 -0.000169537)
(1.0172 -0.000171405 -0.000155885)
(1.01717 -0.000150759 -0.000102086)
(1.0171 -0.000157812 -0.000680861)
(1.01712 -0.000198756 -0.000555924)
(1.01715 -0.000299272 -0.000636754)
(1.01726 -0.000351993 -0.000658271)
(1.01725 -0.000376887 -0.000701402)
(1.01725 -0.000321526 -0.000687462)
(1.01721 -0.000313515 -0.000659661)
(1.01722 -0.000304441 -0.000719283)
(1.01728 -0.000349879 -0.00071448)
(1.01727 -0.000309737 -0.0007439)
(1.01728 -0.000266972 -0.000850391)
(1.01718 -0.00020744 -0.000810327)
(1.01718 -0.000315735 -0.000914096)
(1.01728 -0.000402239 -0.000886569)
(1.01727 -0.000440545 -0.000968416)
(1.01732 -0.000270531 -0.0010324)
(1.01719 -0.000204697 -0.000998118)
(1.01718 -0.000173256 -0.000985022)
(1.01718 -0.000185596 -0.000886475)
(1.01709 -0.000253634 -0.000805833)
(1.01712 -0.000227375 -0.0008786)
(1.01701 -0.000295932 -0.000883563)
(1.01702 -0.000343541 -0.00098234)
(1.017 -0.00045327 -0.000945391)
(1.01697 -0.000539425 -0.000893387)
(1.01702 -0.000523198 -0.000854731)
(1.01694 -0.000517528 -0.000819816)
(1.017 -0.000533522 -0.000856398)
(1.01708 -0.000588907 -0.000843086)
(1.01718 -0.000530328 -0.000831368)
(1.01717 -0.000356593 -0.000798893)
(1.01709 -0.000270321 -0.000849114)
(1.0171 -0.00022695 -0.000803655)
(1.01704 -0.00032589 -0.000808925)
(1.01707 -0.000285074 -0.000825113)
(1.01708 -0.000243062 -0.000857615)
(1.01709 -0.000178009 -0.000828274)
(1.0171 -0.000147822 -0.000732837)
(1.01714 -0.000161664 -0.000718993)
(1.01712 -0.000128059 -0.000659747)
(1.01769 -7.16445e-05 -0.00183559)
(1.01774 -0.000109137 -0.0016972)
(1.0179 -0.000232033 -0.00180194)
(1.01808 -0.000316744 -0.00183719)
(1.01805 -0.0003141 -0.00187453)
(1.01804 -0.000245035 -0.0018069)
(1.01795 -0.000219951 -0.00176662)
(1.01795 -0.000234114 -0.0018299)
(1.01799 -0.000318469 -0.00183223)
(1.01792 -0.000249265 -0.00186975)
(1.01789 -0.000205464 -0.00200595)
(1.01774 -0.000109916 -0.00197933)
(1.01778 -0.000281043 -0.00211856)
(1.01788 -0.000416225 -0.00209829)
(1.01786 -0.000457898 -0.00221896)
(1.01789 -0.000213033 -0.00234178)
(1.01774 -0.000144682 -0.00234678)
(1.01778 -7.19121e-05 -0.00236236)
(1.01772 -0.00015692 -0.00224071)
(1.01763 -0.000205079 -0.00210118)
(1.01765 -0.000190602 -0.00218875)
(1.01754 -0.000247983 -0.00223967)
(1.01756 -0.000332461 -0.00240672)
(1.01753 -0.000466085 -0.00237643)
(1.01751 -0.000579742 -0.00233362)
(1.0175 -0.000545986 -0.00221919)
(1.01735 -0.000535156 -0.0021801)
(1.01747 -0.000563706 -0.00222123)
(1.01761 -0.000677578 -0.00218003)
(1.01777 -0.000566753 -0.002144)
(1.0177 -0.000336193 -0.00205042)
(1.0176 -0.000169477 -0.00212518)
(1.01766 -0.000170976 -0.00209185)
(1.01762 -0.000280932 -0.00206933)
(1.01761 -0.000213982 -0.00205785)
(1.01761 -0.00012712 -0.0020839)
(1.01764 -2.75474e-05 -0.0020545)
(1.01765 -1.59391e-05 -0.0018954)
(1.01769 -4.70102e-05 -0.00186251)
(1.01767 -1.66003e-05 -0.00180611)
(1.01969 0.000376702 -0.00329397)
(1.01974 0.000334764 -0.00314431)
(1.02005 0.000159639 -0.00320815)
(1.0204 8.9962e-05 -0.00317863)
(1.02043 0.000147273 -0.00323761)
(1.02043 0.000232528 -0.00312689)
(1.02033 0.000274788 -0.00306766)
(1.02035 0.000215729 -0.00308722)
(1.02038 0.000107935 -0.0030912)
(1.02022 0.000187494 -0.00316562)
(1.02017 0.000235794 -0.00335921)
(1.01999 0.000352931 -0.00339013)
(1.02007 9.9893e-05 -0.00356381)
(1.02012 -6.91825e-05 -0.00354687)
(1.02006 -0.000108498 -0.00372405)
(1.02013 0.000198967 -0.00391205)
(1.02006 0.000265307 -0.00397532)
(1.02018 0.000379046 -0.00402886)
(1.02003 0.000232895 -0.00389562)
(1.01991 0.0001999 -0.00367859)
(1.01992 0.000169508 -0.00379361)
(1.01987 0.000148036 -0.00390785)
(1.01996 1.98148e-05 -0.00419995)
(1.02 -0.00012746 -0.00420068)
(1.02004 -0.000231219 -0.0042314)
(1.01992 -0.000173475 -0.00410819)
(1.01979 -0.000132677 -0.00407813)
(1.02005 -0.000226772 -0.00411765)
(1.02032 -0.000409422 -0.00400278)
(1.02047 -0.000231193 -0.00391261)
(1.02027 7.54391e-05 -0.00375567)
(1.02021 0.000295291 -0.0038064)
(1.02034 0.000242424 -0.00378229)
(1.02026 0.000149028 -0.00369018)
(1.02012 0.000286433 -0.0036161)
(1.02 0.000429195 -0.00362085)
(1.02002 0.00057971 -0.00358058)
(1.0199 0.000553858 -0.00334227)
(1.01987 0.000491966 -0.00325734)
(1.0197 0.000486334 -0.00323463)
(1.02382 0.00132987 -0.0044537)
(1.02383 0.00128491 -0.00432068)
(1.0243 0.00102718 -0.00429448)
(1.02483 0.00100305 -0.00409188)
(1.02511 0.00112237 -0.00411624)
(1.02524 0.00122882 -0.00401403)
(1.02537 0.00125041 -0.00386501)
(1.02553 0.00115257 -0.00377938)
(1.02572 0.00107425 -0.00371709)
(1.02552 0.00114786 -0.00384532)
(1.02561 0.00119021 -0.00404619)
(1.0255 0.00134401 -0.00413058)
(1.02569 0.00101702 -0.00430214)
(1.02572 0.000839834 -0.00427674)
(1.02562 0.000816968 -0.00445732)
(1.02573 0.00118456 -0.00459133)
(1.02583 0.00125738 -0.00462007)
(1.02604 0.001412 -0.00466184)
(1.02596 0.00121995 -0.00453024)
(1.02585 0.00115817 -0.00427022)
(1.02591 0.00106282 -0.00442153)
(1.02598 0.00106105 -0.00453027)
(1.02622 0.000874427 -0.004917)
(1.02636 0.000743925 -0.00492352)
(1.0265 0.000659261 -0.00502767)
(1.02626 0.000751166 -0.00499722)
(1.02614 0.000773274 -0.00494388)
(1.0265 0.000646665 -0.00496201)
(1.02672 0.000420949 -0.00480715)
(1.02662 0.00068815 -0.00477937)
(1.02618 0.00105511 -0.00470503)
(1.02601 0.00131232 -0.00472964)
(1.02614 0.00122002 -0.00472217)
(1.02574 0.0011843 -0.00464175)
(1.02526 0.00139283 -0.00457022)
(1.02475 0.00156123 -0.00461779)
(1.02474 0.00172679 -0.00455191)
(1.02435 0.00168609 -0.00433715)
(1.02424 0.00157487 -0.0042319)
(1.02384 0.00154738 -0.004333)
(1.03119 0.00286404 -0.00386248)
(1.0313 0.00278757 -0.00370752)
(1.03205 0.00244912 -0.00349384)
(1.03255 0.00242902 -0.00306252)
(1.03297 0.00263079 -0.00293956)
(1.03315 0.00271991 -0.00276763)
(1.03353 0.00269221 -0.00233314)
(1.03384 0.00251815 -0.00198119)
(1.03431 0.00247909 -0.00171574)
(1.03418 0.00258015 -0.00192564)
(1.03445 0.0026301 -0.00216539)
(1.03447 0.00286909 -0.00228933)
(1.03491 0.00250494 -0.00239437)
(1.03493 0.00241465 -0.00240288)
(1.0348 0.00244312 -0.00253692)
(1.03483 0.00287353 -0.00257863)
(1.035 0.0029775 -0.0024497)
(1.0352 0.00316925 -0.00247331)
(1.03534 0.00297366 -0.00236878)
(1.03524 0.00284767 -0.00219372)
(1.03542 0.00271093 -0.00242763)
(1.03555 0.00271731 -0.00251227)
(1.03591 0.00250126 -0.00296256)
(1.03596 0.002408 -0.00297978)
(1.03586 0.00235047 -0.00316409)
(1.03518 0.00250657 -0.00325812)
(1.0348 0.00247948 -0.0031453)
(1.03483 0.00229795 -0.00307577)
(1.03463 0.00209181 -0.00292324)
(1.03415 0.00240788 -0.00304179)
(1.03346 0.00276425 -0.0031397)
(1.03313 0.0030232 -0.00318251)
(1.03332 0.00294894 -0.00318886)
(1.03272 0.00307319 -0.00332084)
(1.03196 0.00335313 -0.00342541)
(1.03112 0.00346212 -0.00372776)
(1.0312 0.00357282 -0.00364869)
(1.03075 0.00342999 -0.0036214)
(1.03094 0.00329065 -0.00349963)
(1.03085 0.00318084 -0.0037321)
(1.04194 0.00430699 0.000690453)
(1.04232 0.00421591 0.000752083)
(1.04329 0.00377468 0.000955596)
(1.0434 0.00381816 0.00138809)
(1.04371 0.00408265 0.0015965)
(1.04375 0.00422053 0.0016926)
(1.04424 0.00417902 0.00229184)
(1.04447 0.00405325 0.00278766)
(1.04519 0.00405536 0.00316933)
(1.04506 0.00427297 0.00274437)
(1.04544 0.00437853 0.0023928)
(1.04543 0.00476709 0.00215422)
(1.04613 0.00435566 0.00211979)
(1.04595 0.00436435 0.00205565)
(1.04571 0.00427421 0.00197557)
(1.04542 0.00462433 0.00188721)
(1.04538 0.00460734 0.00220151)
(1.04528 0.00479096 0.00210674)
(1.04542 0.00449031 0.00218351)
(1.04494 0.00436738 0.00214399)
(1.04497 0.00411496 0.00186303)
(1.04471 0.00409502 0.00187316)
(1.04493 0.0038275 0.00162335)
(1.04448 0.00375923 0.00179925)
(1.0437 0.00367028 0.00185723)
(1.04251 0.00393464 0.0018844)
(1.04181 0.00396535 0.00231566)
(1.04137 0.00381451 0.00261131)
(1.04088 0.00364584 0.00282262)
(1.04006 0.00403277 0.00275722)
(1.03932 0.00432511 0.00260424)
(1.03911 0.00461462 0.00259686)
(1.03953 0.00462527 0.00261125)
(1.03913 0.00495197 0.00221772)
(1.03867 0.00534019 0.00172534)
(1.03832 0.00546421 0.00106797)
(1.03901 0.00548743 0.00110178)
(1.03919 0.00515181 0.000933526)
(1.04018 0.00493598 0.0011473)
(1.041 0.0047287 0.000826167)
(1.05095 0.00484533 0.00598632)
(1.05155 0.00474788 0.00584079)
(1.05239 0.00430333 0.00575256)
(1.05211 0.00442508 0.00599544)
(1.05215 0.0046712 0.00602979)
(1.05226 0.00478221 0.00580875)
(1.05268 0.00470253 0.00617049)
(1.05261 0.00459321 0.00643625)
(1.05297 0.00464214 0.00674995)
(1.05255 0.00490158 0.00613284)
(1.05237 0.00503203 0.00588603)
(1.052 0.00556244 0.00565104)
(1.05249 0.00514864 0.00574297)
(1.05165 0.00524475 0.00563107)
(1.051 0.0050117 0.00554497)
(1.05013 0.00513815 0.00547911)
(1.0497 0.00492674 0.00600832)
(1.04912 0.00503832 0.00601525)
(1.04913 0.00467961 0.00626513)
(1.04816 0.0046119 0.00631793)
(1.04785 0.00435496 0.00634018)
(1.04664 0.00442943 0.00698549)
(1.04641 0.00429159 0.0075432)
(1.04521 0.00438993 0.00835655)
(1.04399 0.00440747 0.00891818)
(1.04293 0.00486473 0.00901543)
(1.04247 0.00492428 0.00949036)
(1.04208 0.00482847 0.00972738)
(1.04165 0.0046397 0.00969772)
(1.04044 0.00495826 0.00952685)
(1.04011 0.00512671 0.00913651)
(1.04025 0.00539195 0.00900724)
(1.0408 0.00538973 0.00887478)
(1.04083 0.0057967 0.00827186)
(1.04138 0.00618702 0.00740327)
(1.0425 0.0063535 0.00668574)
(1.04446 0.00635705 0.00676361)
(1.04603 0.00590505 0.00665205)
(1.04792 0.00553558 0.00683405)
(1.04977 0.00527656 0.00646122)
(1.05581 0.00452238 0.0096967)
(1.05649 0.00420288 0.00983101)
(1.05729 0.0037129 0.00978408)
(1.05734 0.00382433 0.0102056)
(1.05789 0.00397314 0.0100552)
(1.05841 0.00406916 0.00987809)
(1.0589 0.00391757 0.010112)
(1.05869 0.00377319 0.0102713)
(1.05841 0.00372389 0.0105008)
(1.05759 0.00395297 0.0098868)
(1.05662 0.00397613 0.00993543)
(1.05602 0.00457518 0.0100158)
(1.05593 0.00409995 0.0102356)
(1.05432 0.00439711 0.00982146)
(1.05298 0.00410612 0.00931834)
(1.05108 0.00423688 0.00880973)
(1.05017 0.00385831 0.00916414)
(1.04888 0.0039183 0.00912952)
(1.04867 0.00341125 0.00931797)
(1.04728 0.00332523 0.00971591)
(1.0468 0.00303703 0.00979926)
(1.04502 0.00322972 0.0110301)
(1.04517 0.00317352 0.012009)
(1.04418 0.00342671 0.012864)
(1.04403 0.00362887 0.0130877)
(1.04373 0.0042939 0.0128672)
(1.04385 0.00425334 0.0129818)
(1.04322 0.00434439 0.0129089)
(1.04212 0.00421737 0.0124844)
(1.04003 0.0044844 0.0119336)
(1.04054 0.00455936 0.0114165)
(1.04098 0.00494405 0.0114168)
(1.04194 0.00486759 0.0113072)
(1.04255 0.00532404 0.010797)
(1.04413 0.00571714 0.00990788)
(1.04605 0.00594492 0.00962603)
(1.04887 0.00600625 0.0101033)
(1.0509 0.0056902 0.0103932)
(1.05272 0.00531954 0.0104083)
(1.05459 0.00501094 0.0103483)
(1.05367 0.00415615 0.0140287)
(1.05337 0.00382786 0.0146688)
(1.05439 0.00330151 0.0145524)
(1.05419 0.0035319 0.0151361)
(1.05537 0.00361564 0.0144545)
(1.05576 0.00367468 0.0145004)
(1.05645 0.00350313 0.0145577)
(1.05573 0.00328085 0.015019)
(1.05561 0.00295767 0.0151937)
(1.05447 0.00292554 0.0148636)
(1.05372 0.00283945 0.0150597)
(1.05374 0.00327261 0.0157422)
(1.05456 0.00276565 0.0162059)
(1.0534 0.00327111 0.0157231)
(1.05302 0.00302358 0.0146812)
(1.0518 0.00306875 0.0134543)
(1.05202 0.00267608 0.0131341)
(1.05098 0.00255576 0.0125307)
(1.05136 0.00215254 0.0123295)
(1.04958 0.00209922 0.012741)
(1.04998 0.00192396 0.0122739)
(1.04824 0.00207292 0.0133219)
(1.04915 0.00208266 0.0135771)
(1.04729 0.00238634 0.0135762)
(1.04732 0.0027911 0.0128366)
(1.04594 0.0035632 0.0125956)
(1.0457 0.00371829 0.012715)
(1.04372 0.00397107 0.012991)
(1.0416 0.0039989 0.012762)
(1.03901 0.00404704 0.0126822)
(1.04031 0.00406706 0.0125346)
(1.04039 0.00444546 0.0134362)
(1.04203 0.00446673 0.0136644)
(1.04243 0.00506747 0.0135633)
(1.04551 0.00563185 0.0127313)
(1.04745 0.00577499 0.013073)
(1.05072 0.00582614 0.0139791)
(1.05134 0.0054773 0.0147219)
(1.0524 0.00497107 0.0144739)
(1.05252 0.00462095 0.0145739)
(1.04768 0.00234508 0.0200378)
(1.047 0.00158249 0.0209808)
(1.04893 0.00086869 0.0206393)
(1.04792 0.000795825 0.0207963)
(1.04988 0.000621713 0.0197435)
(1.04915 0.000553347 0.0195888)
(1.04965 0.000680984 0.0192609)
(1.04746 0.000676589 0.0193686)
(1.04734 0.000605418 0.0186523)
(1.04475 0.000728197 0.0180845)
(1.04498 0.000965206 0.0183811)
(1.04452 0.00142436 0.0200567)
(1.04546 0.0012224 0.0212941)
(1.04368 0.00165381 0.0216979)
(1.04632 0.00119788 0.0210748)
(1.04543 0.000981496 0.0196943)
(1.04929 0.000743028 0.0192889)
(1.04669 0.000847191 0.018371)
(1.04951 0.000842741 0.0175615)
(1.04498 0.00126367 0.0163288)
(1.04772 0.00148928 0.0145443)
(1.04409 0.00189301 0.014521)
(1.04557 0.00217948 0.0136217)
(1.04047 0.00270747 0.0128203)
(1.03958 0.0031731 0.0113842)
(1.03554 0.00394979 0.0111113)
(1.03666 0.00415854 0.0113183)
(1.03376 0.00435022 0.0121239)
(1.03425 0.00411243 0.0127623)
(1.03312 0.00372595 0.0134667)
(1.03651 0.00356541 0.0143246)
(1.03545 0.00386289 0.0161237)