/*--------------------------------*- C++ -*----------------------------------*\
  =========                 |
  \\      /  F ield         | OpenFOAM: The Open Source CFD Toolbox
   \\    /   O peration     | Website:  https://openfoam.org
    \\  /    A nd           | Version:  10
     \\/     M anipulation  |
\*---------------------------------------------------------------------------*/
FoamFile
{
    format      ascii;
    class       volSymmTensorField;
    location    "10";
    object      UPrime2Mean;
}
// * * * * * * * * * * * * * * * * * * * * * * * * * * * * * * * * * * * * * //

dimensions      [0 2 -2 0 0 0 0];

internalField   nonuniform List<symmTensor> 
25600
(
(4.48792e-05 -3.67803e-07 4.90001e-08 2.24109e-07 3.05056e-08 5.71523e-08)
(4.48767e-05 -1.00784e-07 2.24416e-08 1.97365e-07 2.48076e-08 5.86135e-08)
(4.51078e-05 -3.61475e-07 2.09647e-07 1.59353e-07 1.27932e-08 5.80846e-08)
(4.4918e-05 -2.19196e-07 -2.12823e-08 1.18091e-07 -4.15008e-10 4.41863e-08)
(4.52989e-05 -2.3493e-07 1.86776e-07 1.0253e-07 -9.86095e-09 4.53108e-08)
(4.51696e-05 -4.04453e-07 1.32171e-07 1.06686e-07 -2.52039e-08 5.34835e-08)
(4.51713e-05 -1.65475e-07 6.14743e-08 1.16554e-07 -3.90068e-08 5.23474e-08)
(4.55068e-05 -4.06875e-07 2.26341e-07 1.58848e-07 -4.422e-08 5.07194e-08)
(4.50882e-05 -2.96791e-07 9.95137e-08 1.76368e-07 -4.78329e-08 5.13182e-08)
(4.55913e-05 -2.16238e-07 1.07534e-07 1.76852e-07 -4.84596e-08 4.5645e-08)
(4.54148e-05 -3.29063e-07 1.61341e-07 1.76015e-07 -3.97345e-08 3.71472e-08)
(4.55361e-05 -6.28565e-08 1.2083e-07 1.35532e-07 -3.29378e-08 3.83222e-08)
(4.56666e-05 -1.65933e-07 8.34616e-08 1.28894e-07 -3.08731e-08 3.79684e-08)
(4.53459e-05 -9.42975e-08 1.46638e-07 1.24253e-07 -3.3488e-08 3.42458e-08)
(4.59366e-05 1.76808e-07 8.55925e-08 9.75947e-08 -3.15643e-08 3.51098e-08)
(4.54464e-05 -9.36985e-10 7.21576e-08 1.18801e-07 -3.27233e-08 3.60807e-08)
(4.56719e-05 3.02808e-07 1.40601e-07 1.15284e-07 -3.07203e-08 3.18651e-08)
(4.58267e-05 3.68434e-07 -1.86522e-09 1.27857e-07 -1.31678e-08 2.46746e-08)
(4.52947e-05 1.96916e-07 8.3536e-08 1.62969e-07 2.05809e-11 2.44814e-08)
(4.57434e-05 6.94399e-07 8.05192e-08 1.578e-07 1.43505e-08 2.99252e-08)
(4.53034e-05 3.12062e-07 -4.5021e-08 1.3189e-07 2.65289e-08 2.8857e-08)
(4.51592e-05 4.79891e-07 1.14131e-07 1.58417e-07 3.19181e-08 2.51076e-08)
(4.54343e-05 6.08632e-07 4.58873e-08 1.64971e-07 3.44258e-08 2.89072e-08)
(4.50169e-05 1.78562e-07 -2.12399e-08 1.20176e-07 3.72119e-08 2.82804e-08)
(4.50258e-05 5.54593e-07 9.11609e-08 1.42682e-07 3.17746e-08 2.06218e-08)
(4.52049e-05 1.34545e-07 2.90183e-08 9.77978e-08 2.71141e-08 2.06862e-08)
(4.47522e-05 3.16036e-07 3.00634e-08 1.14981e-07 2.69788e-08 2.16456e-08)
(4.46494e-05 1.48308e-07 4.5652e-08 1.11725e-07 1.96512e-08 1.69792e-08)
(4.50294e-05 -6.35823e-08 3.63881e-08 9.94094e-08 1.88093e-08 1.40214e-08)
(4.45605e-05 2.75796e-07 6.79737e-08 1.46688e-07 2.32583e-08 1.34005e-08)
(4.46739e-05 -2.50096e-07 2.71572e-08 1.34558e-07 1.54869e-08 9.13554e-09)
(4.48341e-05 7.95255e-08 7.04395e-08 1.46735e-07 1.05442e-08 4.90141e-09)
(4.44783e-05 -1.3131e-07 8.55165e-08 1.71666e-07 1.85897e-08 5.69354e-09)
(4.47498e-05 -2.16491e-07 2.23353e-08 1.713e-07 2.01632e-08 7.54896e-09)
(4.45338e-05 1.5617e-08 1.3419e-07 1.76911e-07 2.33707e-08 1.05837e-08)
(4.45231e-05 -3.3412e-07 3.5262e-08 1.90677e-07 3.65598e-08 2.05418e-08)
(4.47757e-05 -2.59635e-08 5.69425e-08 1.96014e-07 3.99376e-08 3.12069e-08)
(4.47504e-05 -3.07017e-07 1.43978e-07 2.27223e-07 4.7326e-08 4.21554e-08)
(4.4716e-05 -2.19902e-07 -5.08456e-08 2.57794e-07 5.95893e-08 5.79771e-08)
(4.48521e-05 -1.28884e-07 1.76474e-07 2.44994e-07 4.8847e-08 6.29772e-08)
(4.5043e-05 -2.10147e-07 9.82979e-10 9.14197e-08 1.09509e-08 6.15166e-08)
(4.49833e-05 -1.37885e-07 7.10818e-08 9.55155e-08 7.06469e-09 6.23617e-08)
(4.50736e-05 -2.57047e-07 1.77534e-07 8.80642e-08 -2.06832e-09 6.09394e-08)
(4.50993e-05 -2.31148e-07 1.45971e-08 1.01937e-07 -1.33639e-08 4.90298e-08)
(4.51134e-05 -1.6158e-07 1.97957e-07 1.39062e-07 -1.26904e-08 5.80921e-08)
(4.52059e-05 -4.11951e-07 1.09783e-07 1.57304e-07 -2.03245e-08 6.742e-08)
(4.52026e-05 -1.75766e-07 7.76433e-08 1.8507e-07 -2.13179e-08 6.5878e-08)
(4.52942e-05 -3.55054e-07 1.6225e-07 2.43883e-07 -1.14394e-08 7.01988e-08)
(4.53287e-05 -3.56446e-07 6.33242e-08 2.2993e-07 -8.80552e-09 7.22799e-08)
(4.55316e-05 -8.85823e-08 6.31381e-08 2.05296e-07 -8.43639e-09 5.98035e-08)
(4.55145e-05 -3.91257e-07 1.39185e-07 2.18202e-07 -9.38383e-09 5.09794e-08)
(4.57404e-05 1.12447e-08 8.37623e-08 1.37737e-07 9.85049e-10 5.42389e-08)
(4.55309e-05 -1.71997e-07 7.08938e-08 1.57676e-07 -5.15702e-09 4.88865e-08)
(4.57482e-05 -8.40741e-08 1.39519e-07 1.52244e-07 -1.66134e-08 4.22502e-08)
(4.5999e-05 2.77561e-07 6.71496e-08 9.54773e-08 -5.07668e-09 4.22728e-08)
(4.55581e-05 -4.2231e-08 9.12449e-08 1.40786e-07 -1.33108e-08 3.7351e-08)
(4.60651e-05 4.44498e-07 1.39007e-07 9.04154e-08 -1.703e-08 2.8999e-08)
(4.56601e-05 3.45354e-07 4.17429e-08 1.11231e-07 6.81369e-10 2.08266e-08)
(4.57105e-05 3.16855e-07 1.11915e-07 1.58896e-07 3.65659e-09 1.87752e-08)
(4.58435e-05 7.94947e-07 1.36619e-07 1.32564e-07 2.02768e-08 2.54303e-08)
(4.51466e-05 2.68528e-07 8.30961e-09 1.32956e-07 4.1213e-08 2.53673e-08)
(4.5535e-05 7.03857e-07 1.59136e-07 1.73241e-07 4.13766e-08 2.0678e-08)
(4.51386e-05 6.00083e-07 7.94492e-08 1.57352e-07 4.57545e-08 2.51171e-08)
(4.50808e-05 2.54103e-07 1.65727e-08 1.39721e-07 5.02138e-08 2.40479e-08)
(4.50193e-05 6.96262e-07 1.40485e-07 1.70267e-07 3.65113e-08 1.27337e-08)
(4.49647e-05 1.58635e-07 3.36676e-08 1.03008e-07 2.43558e-08 1.11357e-08)
(4.48714e-05 3.52835e-07 7.83455e-08 1.07244e-07 2.43024e-08 1.16317e-08)
(4.43891e-05 1.85545e-07 5.50379e-08 9.39772e-08 1.59947e-08 8.48524e-09)
(4.51664e-05 4.17174e-08 6.99432e-08 9.3224e-08 2.16504e-08 1.21796e-08)
(4.44923e-05 2.47353e-07 1.06576e-07 1.17574e-07 3.31056e-08 1.83427e-08)
(4.46023e-05 -1.10383e-07 1.67515e-08 9.28533e-08 2.61466e-08 1.71651e-08)
(4.50282e-05 9.81166e-08 1.08089e-07 9.10675e-08 3.04415e-08 2.2659e-08)
(4.43436e-05 -6.13116e-08 9.18653e-08 9.44625e-08 3.96408e-08 3.29667e-08)
(4.49433e-05 -9.36124e-08 1.08986e-08 8.26881e-08 3.23946e-08 3.50129e-08)
(4.45457e-05 -3.83389e-08 1.36041e-07 8.36384e-08 3.52447e-08 4.18037e-08)
(4.46326e-05 -1.72792e-07 9.91252e-10 9.57818e-08 4.59029e-08 5.62788e-08)
(4.49165e-05 -6.22585e-08 3.4014e-08 9.11224e-08 3.68249e-08 6.15708e-08)
(4.47492e-05 -2.12399e-07 8.52741e-08 1.06411e-07 3.5351e-08 6.57475e-08)
(4.50316e-05 -1.64881e-07 -5.99306e-08 1.22155e-07 4.28672e-08 7.94915e-08)
(4.48953e-05 -1.41965e-07 1.45302e-07 1.00401e-07 2.93966e-08 7.64098e-08)
(4.50137e-05 -6.95535e-08 4.97365e-08 1.08421e-07 -2.62214e-08 5.41376e-08)
(4.49224e-05 -2.42018e-07 1.71718e-07 1.24569e-07 -2.06693e-08 6.65688e-08)
(4.50317e-05 -1.26865e-07 1.84342e-07 1.34032e-07 -2.79778e-08 6.65626e-08)
(4.51247e-05 -3.05607e-07 8.62137e-08 1.82979e-07 -3.20027e-08 6.48628e-08)
(4.50137e-05 -1.45019e-07 1.80572e-07 2.22271e-07 -1.70419e-08 8.98621e-08)
(4.52059e-05 -3.7568e-07 9.27698e-08 1.88004e-07 -2.40331e-08 9.51861e-08)
(4.53315e-05 -2.52369e-07 5.45817e-08 2.05041e-07 -1.78486e-08 8.91425e-08)
(4.52719e-05 -2.93497e-07 7.57639e-08 2.39804e-07 -2.49152e-09 1.01816e-07)
(4.56559e-05 -3.72806e-07 3.10613e-08 1.74512e-07 2.58847e-09 9.86623e-08)
(4.56066e-05 -9.38747e-08 1.14728e-08 1.72981e-07 -4.79007e-11 6.90535e-08)
(4.5671e-05 -3.51399e-07 1.35797e-07 1.88601e-07 -1.29652e-08 6.32146e-08)
(4.59885e-05 -3.75247e-08 4.23976e-08 1.01388e-07 9.94847e-09 6.67929e-08)
(4.55261e-05 -1.9488e-07 7.62792e-08 1.63567e-07 -3.69707e-09 5.28082e-08)
(4.6195e-05 -3.99829e-08 1.20179e-07 1.18106e-07 -1.63961e-08 5.11546e-08)
(4.60701e-05 2.08074e-07 7.52231e-08 5.93727e-08 1.07132e-08 5.07908e-08)
(4.57571e-05 1.88625e-08 9.04889e-08 1.21958e-07 -2.00808e-09 3.63102e-08)
(4.63915e-05 4.79295e-07 1.23267e-07 4.43115e-08 2.32377e-09 2.68817e-08)
(4.55969e-05 3.42851e-07 9.18027e-08 8.87343e-08 1.94962e-08 1.73115e-08)
(4.61134e-05 5.2113e-07 9.1483e-08 1.19618e-07 6.6116e-09 1.49284e-08)
(4.57589e-05 7.4511e-07 1.7869e-07 9.949e-08 2.8555e-08 1.99976e-08)
(4.51848e-05 3.68123e-07 4.86324e-08 1.62873e-07 4.14821e-08 1.91579e-08)
(4.58181e-05 9.35091e-07 1.69126e-07 1.98757e-07 3.37255e-08 1.79814e-08)
(4.47633e-05 5.01843e-07 1.26025e-07 1.54827e-07 4.68748e-08 2.05921e-08)
(4.52551e-05 4.53211e-07 6.40196e-08 1.90111e-07 4.32646e-08 2.13171e-08)
(4.49271e-05 7.49153e-07 1.91297e-07 2.29052e-07 3.45447e-08 1.40183e-08)
(4.47051e-05 2.08369e-07 7.86512e-08 1.55367e-07 2.8131e-08 1.39898e-08)
(4.49499e-05 4.07422e-07 1.33873e-07 1.34435e-07 2.58576e-08 1.87016e-08)
(4.4214e-05 1.88375e-07 1.06846e-07 1.19428e-07 2.61574e-08 1.95611e-08)
(4.52174e-05 1.93096e-07 1.27723e-07 1.43452e-07 3.93967e-08 3.37072e-08)
(4.4471e-05 1.78404e-07 1.68322e-07 1.18958e-07 4.63668e-08 4.73418e-08)
(4.46e-05 6.79447e-08 5.91452e-08 9.57845e-08 3.7573e-08 4.29239e-08)
(4.50991e-05 1.13216e-07 1.49181e-07 1.04986e-07 4.41337e-08 5.73164e-08)
(4.43276e-05 2.57794e-08 1.40867e-07 9.35171e-08 4.53205e-08 7.20311e-08)
(4.49649e-05 2.79784e-08 2.34971e-08 8.6887e-08 2.32015e-08 6.29712e-08)
(4.45733e-05 -1.01086e-07 1.43162e-07 1.02863e-07 2.60429e-08 6.61923e-08)
(4.4686e-05 1.11947e-09 1.31667e-08 9.86043e-08 2.9442e-08 7.62615e-08)
(4.4909e-05 -1.37625e-07 3.39658e-08 7.72866e-08 4.1721e-09 6.8144e-08)
(4.4793e-05 -6.07711e-08 8.23765e-08 9.18693e-08 6.97544e-10 6.21588e-08)
(4.509e-05 -1.55542e-07 1.38114e-08 9.53149e-08 6.05124e-09 7.23411e-08)
(4.49435e-05 -1.34847e-07 1.68288e-07 8.89852e-08 -1.24434e-08 6.43455e-08)
(4.48036e-05 -7.34636e-08 1.23686e-07 2.29072e-07 -3.40782e-08 6.54922e-08)
(4.4893e-05 -2.8731e-07 2.7071e-07 2.21298e-07 -2.34196e-08 9.22312e-08)
(4.49873e-05 -6.52009e-08 2.09932e-07 2.26409e-07 -3.84729e-08 8.72776e-08)
(4.50983e-05 -4.23802e-07 1.35582e-07 2.92241e-07 -3.56079e-08 9.94689e-08)
(4.50913e-05 -1.28481e-07 1.67149e-07 2.8944e-07 -1.57718e-08 1.36418e-07)
(4.51807e-05 -3.8516e-07 9.86255e-08 2.14474e-07 -4.27884e-08 1.25228e-07)
(4.55125e-05 -2.98339e-07 3.85577e-08 2.54314e-07 -4.50432e-08 1.17458e-07)
(4.53616e-05 -2.66327e-07 6.45583e-08 2.54238e-07 -3.22104e-08 1.38983e-07)
(4.58776e-05 -3.83918e-07 4.20363e-08 1.91003e-07 -2.62238e-08 1.18043e-07)
(4.57231e-05 -1.578e-07 5.17559e-08 2.60208e-07 -4.03389e-08 7.2485e-08)
(4.57971e-05 -2.90964e-07 1.58908e-07 2.37414e-07 -5.12181e-08 8.06417e-08)
(4.6139e-05 -1.3069e-07 4.36064e-08 1.81341e-07 -1.30608e-08 8.03391e-08)
(4.56481e-05 -1.98699e-07 1.13691e-07 2.62019e-07 -3.82232e-08 5.91911e-08)
(4.6546e-05 -7.86502e-09 1.05515e-07 1.29266e-07 -3.2248e-08 7.27956e-08)
(4.61558e-05 8.22491e-08 1.34749e-07 1.0391e-07 -2.46282e-09 6.59676e-08)
(4.6008e-05 1.30459e-07 6.48789e-08 1.50639e-07 -1.58757e-08 4.28189e-08)
(4.65984e-05 4.64154e-07 1.46653e-07 7.13705e-08 1.0057e-08 3.66021e-08)
(4.56708e-05 4.01856e-07 1.37013e-07 1.56624e-07 8.03566e-09 2.51189e-08)
(4.63488e-05 6.98835e-07 7.634e-08 1.46784e-07 -3.22008e-09 2.56608e-08)
(4.55691e-05 6.41988e-07 2.56494e-07 1.69121e-07 4.00066e-08 2.38541e-08)
(4.54031e-05 5.73068e-07 7.1534e-08 2.89792e-07 2.39019e-08 2.61874e-08)
(4.58811e-05 1.0979e-06 2.04187e-07 2.99997e-07 2.73651e-08 2.95434e-08)
(4.4482e-05 4.06206e-07 2.06074e-07 2.40383e-07 5.70992e-08 2.32848e-08)
(4.55142e-05 7.44213e-07 1.37413e-07 3.03225e-07 3.48206e-08 3.13061e-08)
(4.4756e-05 7.15341e-07 2.81089e-07 3.3036e-07 4.879e-08 2.76353e-08)
(4.45711e-05 3.03812e-07 1.79655e-07 2.57018e-07 5.12076e-08 2.88003e-08)
(4.4994e-05 4.79749e-07 2.19971e-07 1.97874e-07 4.51083e-08 4.09886e-08)
(4.41288e-05 1.68913e-07 2.14733e-07 2.00796e-07 5.62301e-08 4.00396e-08)
(4.5221e-05 3.50791e-07 2.06497e-07 2.38893e-07 6.94147e-08 6.45933e-08)
(4.44837e-05 1.08222e-07 2.64291e-07 1.73399e-07 6.44096e-08 8.28007e-08)
(4.46239e-05 2.29539e-07 1.20796e-07 1.77763e-07 5.04368e-08 6.42478e-08)
(4.505e-05 1.36782e-07 1.98493e-07 2.07321e-07 5.55554e-08 8.62721e-08)
(4.43478e-05 8.56572e-08 2.14164e-07 1.84644e-07 4.42901e-08 1.02449e-07)
(4.48611e-05 1.03516e-07 4.9614e-08 1.77235e-07 9.9927e-09 7.53049e-08)
(4.45942e-05 -1.31567e-07 1.77651e-07 2.12365e-07 2.22435e-08 7.42917e-08)
(4.46567e-05 6.76016e-08 5.66118e-08 1.74343e-07 1.0581e-08 7.87251e-08)
(4.48408e-05 -1.66686e-07 7.13665e-08 1.41309e-07 -2.5102e-08 6.16711e-08)
(4.47783e-05 4.17968e-08 1.30162e-07 1.79568e-07 -1.01571e-08 5.63046e-08)
(4.50014e-05 -1.96039e-07 1.17395e-07 1.63813e-07 -3.81002e-09 6.92171e-08)
(4.49911e-05 -6.88502e-08 2.2989e-07 1.78599e-07 -2.84465e-08 6.04715e-08)
(4.46091e-05 -1.61956e-07 1.83493e-07 3.66955e-07 -1.48681e-08 1.00337e-07)
(4.49841e-05 -2.40462e-07 3.55547e-07 3.01574e-07 -4.18353e-09 1.34688e-07)
(4.49105e-05 -1.3174e-07 2.37045e-07 3.12771e-07 -3.39266e-08 1.14793e-07)
(4.51469e-05 -5.13851e-07 1.63754e-07 3.97042e-07 -2.10978e-08 1.43769e-07)
(4.52681e-05 -1.52472e-07 1.88822e-07 3.43147e-07 -3.80113e-09 1.84631e-07)
(4.51254e-05 -4.74033e-07 1.13528e-07 2.83506e-07 -6.48477e-08 1.4718e-07)
(4.56937e-05 -3.05272e-07 5.22804e-08 3.69729e-07 -7.57439e-08 1.48721e-07)
(4.54619e-05 -3.42316e-07 9.60729e-08 3.30366e-07 -6.10477e-08 1.79765e-07)
(4.60068e-05 -4.26967e-07 6.81781e-08 3.14291e-07 -5.64748e-08 1.28385e-07)
(4.58495e-05 -2.64466e-07 1.41584e-07 4.29379e-07 -8.33546e-08 8.12477e-08)
(4.59068e-05 -3.02619e-07 1.42044e-07 3.48289e-07 -7.74922e-08 1.13674e-07)
(4.62523e-05 -2.19052e-07 7.1674e-08 3.61993e-07 -4.03243e-08 1.00993e-07)
(4.58848e-05 -2.14232e-07 1.33325e-07 4.03402e-07 -7.17834e-08 7.62605e-08)
(4.68262e-05 -4.3177e-08 1.09994e-07 1.96855e-07 -3.53919e-08 1.10622e-07)
(4.63176e-05 -1.91502e-08 2.1468e-07 2.5123e-07 -2.72341e-08 8.92273e-08)
(4.63208e-05 2.0814e-07 3.01438e-08 2.28976e-07 -2.22262e-08 6.3389e-08)
(4.67549e-05 4.38921e-07 2.37523e-07 1.68456e-07 1.84302e-08 6.01626e-08)
(4.58457e-05 4.6153e-07 1.66196e-07 2.90879e-07 -2.49032e-08 4.90031e-08)
(4.64603e-05 7.84968e-07 1.26886e-07 2.30238e-07 -6.04879e-09 5.2286e-08)
(4.54646e-05 5.895e-07 3.64105e-07 3.32526e-07 4.50857e-08 3.90269e-08)
(4.57685e-05 7.97603e-07 8.95307e-08 4.65395e-07 -1.43377e-08 5.74232e-08)
(4.57787e-05 1.13941e-06 2.95991e-07 4.45833e-07 3.48891e-08 5.51217e-08)
(4.44326e-05 4.00728e-07 3.22299e-07 4.12253e-07 6.89492e-08 3.66457e-08)
(4.58486e-05 1.07846e-06 2.24463e-07 4.82349e-07 2.34333e-08 6.13573e-08)
(4.4577e-05 6.13461e-07 4.2134e-07 4.75393e-07 7.63587e-08 4.98282e-08)
(4.46578e-05 4.87322e-07 3.17079e-07 3.98937e-07 8.13356e-08 5.67388e-08)
(4.49894e-05 5.31023e-07 3.40117e-07 3.16639e-07 7.58562e-08 7.60822e-08)
(4.41515e-05 1.56902e-07 3.46863e-07 3.43282e-07 8.4387e-08 5.99224e-08)
(4.52736e-05 5.00858e-07 3.08901e-07 3.67455e-07 1.00411e-07 1.03006e-07)
(4.453e-05 3.04295e-08 3.71473e-07 2.97428e-07 8.52278e-08 1.22392e-07)
(4.47215e-05 3.67959e-07 1.99261e-07 3.1287e-07 5.7239e-08 7.89735e-08)
(4.49446e-05 1.38159e-07 2.73552e-07 3.66663e-07 7.32853e-08 1.14156e-07)
(4.44195e-05 1.0507e-07 2.9863e-07 3.28731e-07 4.26686e-08 1.26562e-07)
(4.47645e-05 1.42052e-07 1.10878e-07 2.84681e-07 4.24183e-09 8.23161e-08)
(4.46035e-05 -1.64563e-07 2.39047e-07 3.47996e-07 4.3079e-08 8.41858e-08)
(4.46597e-05 4.75405e-08 1.13348e-07 2.5697e-07 -3.15147e-09 8.29029e-08)
(4.47875e-05 -1.51352e-07 1.41084e-07 2.28945e-07 -3.8338e-08 6.70968e-08)
(4.47362e-05 4.52155e-08 1.96738e-07 3.12123e-07 1.12514e-08 7.19547e-08)
(4.49685e-05 -2.1636e-07 2.25708e-07 2.51322e-07 3.45791e-09 9.03484e-08)
(4.50253e-05 -1.25519e-08 2.96899e-07 2.93443e-07 -2.71937e-08 7.93852e-08)
(4.45787e-05 -2.35319e-07 2.46339e-07 5.49979e-07 2.29963e-08 1.62445e-07)
(4.51635e-05 -1.75448e-07 4.45657e-07 4.15078e-07 2.65175e-08 1.91892e-07)
(4.48279e-05 -2.98335e-07 2.89732e-07 4.51348e-07 -2.55198e-08 1.52569e-07)
(4.53351e-05 -5.37346e-07 2.13278e-07 5.79037e-07 5.63213e-09 2.06628e-07)
(4.54803e-05 -2.2881e-07 2.47881e-07 4.6587e-07 1.37606e-08 2.3787e-07)
(4.51396e-05 -5.78868e-07 1.46769e-07 4.36018e-07 -8.33147e-08 1.69986e-07)
(4.58928e-05 -2.70331e-07 1.08152e-07 5.70829e-07 -8.83131e-08 2.00012e-07)
(4.55792e-05 -4.98107e-07 1.34553e-07 4.84752e-07 -7.29621e-08 2.34689e-07)
(4.61515e-05 -4.60487e-07 1.39387e-07 4.93468e-07 -7.37449e-08 1.429e-07)
(4.60061e-05 -4.0972e-07 2.41619e-07 6.33988e-07 -1.09896e-07 1.18626e-07)
(4.61061e-05 -3.47223e-07 9.86213e-08 5.27504e-07 -8.59886e-08 1.74007e-07)
(4.64429e-05 -2.82691e-07 1.23319e-07 5.97706e-07 -6.53681e-08 1.32588e-07)
(4.62089e-05 -2.65257e-07 1.27833e-07 5.74207e-07 -8.60495e-08 1.17994e-07)
(4.71349e-05 -1.40519e-07 1.51917e-07 3.68631e-07 -2.32812e-08 1.74885e-07)
(4.66037e-05 -6.03277e-08 2.76979e-07 5.00583e-07 -4.48657e-08 1.29828e-07)
(4.67251e-05 2.22611e-07 1.58599e-08 3.54021e-07 -2.75709e-09 1.11035e-07)
(4.6959e-05 4.31485e-07 3.39351e-07 3.31688e-07 2.80674e-08 1.10429e-07)
(4.61264e-05 4.71418e-07 1.76713e-07 4.74564e-07 -5.19543e-08 1.00175e-07)
(4.6626e-05 7.89719e-07 2.507e-07 3.64895e-07 1.11318e-08 9.34804e-08)
(4.55765e-05 6.01799e-07 4.59274e-07 5.54918e-07 2.50681e-08 8.11742e-08)
(4.62239e-05 9.52842e-07 1.00721e-07 6.53769e-07 -6.30156e-08 1.28454e-07)
(4.56712e-05 1.04583e-06 4.44366e-07 5.99429e-07 6.1719e-08 9.37194e-08)
(4.46851e-05 5.15442e-07 4.41876e-07 6.38456e-07 6.37051e-08 7.4565e-08)
(4.6177e-05 1.34355e-06 3.03708e-07 7.40771e-07 5.04832e-09 1.19906e-07)
(4.45232e-05 4.97411e-07 6.00057e-07 6.80977e-07 1.03391e-07 8.35437e-08)
(4.49677e-05 7.48893e-07 4.66125e-07 6.04551e-07 1.11568e-07 1.10082e-07)
(4.49337e-05 4.7977e-07 4.69142e-07 5.28348e-07 1.07387e-07 1.27349e-07)
(4.435e-05 2.32536e-07 4.98806e-07 5.72104e-07 9.59607e-08 8.40971e-08)
(4.54086e-05 5.925e-07 4.28777e-07 5.9654e-07 1.42708e-07 1.6133e-07)
(4.4684e-05 -1.84187e-08 4.79389e-07 5.36911e-07 1.05216e-07 1.69839e-07)
(4.49234e-05 4.88641e-07 2.91201e-07 5.28564e-07 6.32111e-08 9.88079e-08)
(4.48652e-05 1.04599e-07 3.80278e-07 6.58459e-07 1.14862e-07 1.56956e-07)
(4.46075e-05 1.4414e-07 3.93053e-07 5.46384e-07 3.97188e-08 1.54695e-07)
(4.47342e-05 1.33729e-07 2.05068e-07 4.4688e-07 2.0851e-08 1.05218e-07)
(4.46743e-05 -2.00748e-07 3.16021e-07 5.78277e-07 9.38069e-08 1.14289e-07)
(4.47581e-05 -1.08897e-08 1.75555e-07 3.81187e-07 -1.77322e-08 1.06572e-07)
(4.47647e-05 -1.5212e-07 2.31305e-07 3.96897e-07 -2.61913e-08 1.0066e-07)
(4.47566e-05 2.86199e-09 2.73078e-07 5.27314e-07 5.44435e-08 1.17355e-07)
(4.50698e-05 -2.13273e-07 3.1964e-07 3.77823e-07 1.12629e-08 1.40137e-07)
(4.50709e-05 3.14192e-09 3.6641e-07 4.62338e-07 -1.26023e-08 1.23511e-07)
(4.47754e-05 -2.67293e-07 2.95727e-07 8.83558e-07 7.33743e-08 2.59223e-07)
(4.54025e-05 -1.66043e-07 5.44932e-07 6.76785e-07 6.04874e-08 2.68913e-07)
(4.48563e-05 -5.09056e-07 3.64109e-07 7.70132e-07 -1.41518e-08 2.18947e-07)
(4.57464e-05 -5.29813e-07 2.69223e-07 9.71531e-07 4.47089e-08 3.00389e-07)
(4.57815e-05 -3.81065e-07 2.9775e-07 7.57692e-07 2.50323e-08 3.08802e-07)
(4.53291e-05 -6.699e-07 1.81683e-07 7.71079e-07 -9.13638e-08 2.17754e-07)
(4.61733e-05 -2.45922e-07 1.45388e-07 9.70983e-07 -7.45394e-08 2.96472e-07)
(4.58281e-05 -7.02281e-07 1.4774e-07 7.9097e-07 -7.69237e-08 3.20604e-07)
(4.64181e-05 -5.19695e-07 2.30245e-07 8.00044e-07 -7.59537e-08 1.84316e-07)
(4.62784e-05 -5.91067e-07 3.07548e-07 1.00608e-06 -1.24698e-07 2.15124e-07)
(4.65112e-05 -3.70669e-07 3.53143e-08 8.70987e-07 -9.89893e-08 2.79247e-07)
(4.67708e-05 -3.61993e-07 1.72362e-07 9.50497e-07 -8.82406e-08 1.94134e-07)
(4.66603e-05 -3.45851e-07 1.05411e-07 9.03275e-07 -8.48911e-08 2.11035e-07)
(4.76118e-05 -2.8018e-07 2.17873e-07 7.69588e-07 -9.35474e-09 2.79895e-07)
(4.70991e-05 -4.54945e-08 3.21556e-07 9.09711e-07 -4.35175e-08 2.05014e-07)
(4.72791e-05 1.66686e-07 2.72168e-08 6.13811e-07 3.9215e-08 2.05932e-07)
(4.72885e-05 4.85128e-07 4.20709e-07 6.7116e-07 4.48629e-08 2.10873e-07)
(4.6544e-05 4.48976e-07 2.14068e-07 8.16298e-07 -4.98453e-08 1.95266e-07)
(4.69963e-05 7.92763e-07 4.35965e-07 6.61505e-07 3.85216e-08 1.62833e-07)
(4.59615e-05 6.36944e-07 5.42373e-07 9.22116e-07 -1.67914e-08 1.83265e-07)
(4.67702e-05 9.90699e-07 1.34071e-07 9.36923e-07 -8.73543e-08 2.53999e-07)
(4.57584e-05 8.96343e-07 6.25131e-07 8.4508e-07 1.04007e-07 1.60257e-07)
(4.52017e-05 7.00631e-07 5.25461e-07 9.67135e-07 3.28231e-08 1.63085e-07)
(4.65186e-05 1.41282e-06 3.62814e-07 1.10874e-06 -1.51549e-08 2.1683e-07)
(4.4772e-05 4.6741e-07 8.11435e-07 1.00919e-06 1.22797e-07 1.48498e-07)
(4.54366e-05 9.56274e-07 5.90594e-07 9.61915e-07 1.40197e-07 2.16736e-07)
(4.49438e-05 3.51513e-07 5.95523e-07 8.74865e-07 1.18071e-07 2.09264e-07)
(4.4786e-05 3.8752e-07 6.51465e-07 9.46465e-07 9.51615e-08 1.36056e-07)
(4.56745e-05 5.71469e-07 5.66428e-07 1.02915e-06 2.07106e-07 2.66267e-07)
(4.50504e-05 -4.13346e-09 5.66805e-07 9.26328e-07 1.08912e-07 2.47063e-07)
(4.52653e-05 5.59168e-07 3.99967e-07 9.51594e-07 8.45318e-08 1.53696e-07)
(4.49604e-05 8.91955e-08 5.13002e-07 1.20524e-06 1.84866e-07 2.3977e-07)
(4.49581e-05 1.93294e-07 4.8712e-07 8.86092e-07 2.81134e-08 2.17609e-07)
(4.48197e-05 9.39098e-08 3.20498e-07 8.17291e-07 7.16483e-08 1.72583e-07)
(4.49092e-05 -2.04212e-07 3.74803e-07 1.03005e-06 1.62347e-07 1.82959e-07)
(4.49937e-05 -9.54382e-08 2.23081e-07 6.372e-07 -3.3556e-08 1.73897e-07)
(4.4866e-05 -1.8955e-07 3.16711e-07 7.81147e-07 1.85119e-08 1.80449e-07)
(4.49761e-05 -2.16877e-08 3.48394e-07 9.42161e-07 1.02737e-07 2.0504e-07)
(4.535e-05 -2.21955e-07 3.80345e-07 6.45976e-07 2.22128e-08 2.33964e-07)
(4.5217e-05 -1.10451e-08 4.44679e-07 7.83196e-07 2.38137e-08 2.07799e-07)
(4.53142e-05 -2.79969e-07 3.2303e-07 1.59728e-06 1.31222e-07 4.19027e-07)
(4.58084e-05 -2.24872e-07 6.73282e-07 1.27144e-06 9.66588e-08 3.92444e-07)
(4.51815e-05 -7.14788e-07 4.58279e-07 1.51628e-06 6.78522e-09 3.50496e-07)
(4.65001e-05 -4.82578e-07 3.17384e-07 1.78191e-06 8.74603e-08 4.58606e-07)
(4.63425e-05 -5.98671e-07 3.38751e-07 1.39156e-06 2.08507e-08 4.24513e-07)
(4.58645e-05 -7.14588e-07 2.25969e-07 1.50785e-06 -7.55427e-08 3.24004e-07)
(4.67071e-05 -2.60883e-07 1.53655e-07 1.74917e-06 -4.72443e-08 4.75756e-07)
(4.63631e-05 -8.92274e-07 1.45011e-07 1.40849e-06 -7.81166e-08 4.59459e-07)
(4.69703e-05 -6.35096e-07 3.34882e-07 1.48111e-06 -6.27384e-08 2.86739e-07)
(4.68936e-05 -7.31469e-07 3.37065e-07 1.79469e-06 -1.5853e-07 4.18729e-07)
(4.72799e-05 -4.19484e-07 -4.97122e-08 1.56271e-06 -1.37969e-07 4.53655e-07)
(4.73803e-05 -4.68594e-07 2.13379e-07 1.62894e-06 -1.17506e-07 3.28396e-07)
(4.7401e-05 -4.63245e-07 4.93796e-08 1.63223e-06 -9.90479e-08 4.03671e-07)
(4.84547e-05 -4.22198e-07 2.90075e-07 1.6073e-06 -9.97486e-09 4.55621e-07)
(4.79444e-05 -4.55036e-08 3.43256e-07 1.63852e-06 -2.9863e-08 3.58637e-07)
(4.81295e-05 4.28555e-08 1.88032e-08 1.21503e-06 9.89007e-08 4.04422e-07)
(4.79248e-05 5.83927e-07 4.62154e-07 1.42055e-06 9.45345e-08 4.14524e-07)
(4.72505e-05 3.97624e-07 2.99271e-07 1.52931e-06 -1.50837e-08 3.72191e-07)
(4.77464e-05 8.03727e-07 6.47995e-07 1.34434e-06 5.74522e-08 3.05271e-07)
(4.66876e-05 6.2589e-07 6.24194e-07 1.71288e-06 -5.17127e-08 4.00376e-07)
(4.75531e-05 8.96518e-07 1.88908e-07 1.58084e-06 -6.23003e-08 4.6685e-07)
(4.62476e-05 7.56927e-07 8.0069e-07 1.44219e-06 1.44798e-07 2.88451e-07)
(4.59944e-05 8.2933e-07 5.38058e-07 1.63047e-06 -1.59306e-08 3.44218e-07)
(4.70485e-05 1.29316e-06 4.217e-07 1.7663e-06 -1.35273e-08 3.88713e-07)
(4.54514e-05 5.23096e-07 1.02099e-06 1.67083e-06 1.43566e-07 2.83747e-07)
(4.61266e-05 1.04522e-06 6.76172e-07 1.66808e-06 1.59953e-07 4.16372e-07)
(4.52698e-05 2.65234e-07 7.14966e-07 1.50159e-06 1.0177e-07 3.52208e-07)
(4.55396e-05 5.45988e-07 8.0591e-07 1.65501e-06 1.08923e-07 2.60056e-07)
(4.62583e-05 4.53917e-07 7.03696e-07 1.78331e-06 2.85984e-07 4.64684e-07)
(4.57936e-05 5.11781e-08 6.1208e-07 1.56663e-06 1.0205e-07 3.93239e-07)
(4.58988e-05 5.72068e-07 5.18998e-07 1.80401e-06 1.45645e-07 2.86917e-07)
(4.54329e-05 1.32047e-07 6.31847e-07 2.0942e-06 2.7077e-07 4.11929e-07)
(4.55707e-05 2.22489e-07 5.80638e-07 1.45781e-06 1.30003e-08 3.63479e-07)
(4.51947e-05 6.10822e-08 4.2776e-07 1.6245e-06 1.55671e-07 3.16375e-07)
(4.54858e-05 -2.0935e-07 3.93733e-07 1.82725e-06 2.23236e-07 3.28918e-07)
(4.54586e-05 -2.25653e-07 2.40852e-07 1.19886e-06 -3.94854e-08 3.27647e-07)
(4.52589e-05 -2.34351e-07 3.87289e-07 1.61731e-06 8.89268e-08 3.40128e-07)
(4.5568e-05 1.3033e-08 3.73354e-07 1.74923e-06 1.43045e-07 3.67797e-07)
(4.59301e-05 -2.83037e-07 3.94957e-07 1.22008e-06 5.44596e-08 4.04419e-07)
(4.56525e-05 -1.40875e-08 5.18969e-07 1.46904e-06 8.84767e-08 3.70439e-07)
(4.64641e-05 -2.81696e-07 2.98439e-07 3.14502e-06 1.8407e-07 6.98668e-07)
(4.66994e-05 -3.31105e-07 8.04539e-07 2.63319e-06 1.28086e-07 6.21486e-07)
(4.61856e-05 -9.00745e-07 5.47439e-07 3.17742e-06 1.54816e-08 6.15205e-07)
(4.79307e-05 -4.35175e-07 3.00819e-07 3.40535e-06 9.10952e-08 7.20863e-07)
(4.74852e-05 -8.77799e-07 3.49852e-07 2.79073e-06 -1.06501e-08 6.28287e-07)
(4.70267e-05 -6.86509e-07 2.41568e-07 3.05697e-06 -5.01199e-08 5.53828e-07)
(4.78183e-05 -3.1235e-07 9.42038e-08 3.21956e-06 -5.27746e-08 7.90714e-07)
(4.74829e-05 -1.01991e-06 1.12448e-07 2.72581e-06 -9.33745e-08 6.83704e-07)
(4.81206e-05 -7.90241e-07 4.59989e-07 2.97191e-06 -7.22098e-08 5.24707e-07)
(4.81672e-05 -7.71747e-07 3.22411e-07 3.35545e-06 -2.71714e-07 8.11295e-07)
(4.86891e-05 -5.08317e-07 -1.48695e-07 2.97337e-06 -2.43799e-07 7.5158e-07)
(4.85972e-05 -5.28646e-07 2.51038e-07 3.03824e-06 -1.96518e-07 6.26848e-07)
(4.88098e-05 -5.98234e-07 -5.50231e-08 3.1536e-06 -1.77577e-07 7.85514e-07)
(5.00292e-05 -5.20762e-07 3.62318e-07 3.21779e-06 -4.43268e-08 7.81698e-07)
(4.94419e-05 -1.35217e-07 3.29522e-07 3.03406e-06 -1.92379e-08 6.78198e-07)
(4.95995e-05 -4.41133e-08 -2.69891e-08 2.53374e-06 1.81403e-07 8.08051e-07)
(4.91685e-05 6.84924e-07 4.74959e-07 2.93767e-06 1.96457e-07 8.11011e-07)
(4.85574e-05 3.44851e-07 4.47251e-07 2.93321e-06 2.45461e-08 7.06956e-07)
(4.91937e-05 8.14538e-07 9.0994e-07 2.81757e-06 4.55803e-08 6.03444e-07)
(4.8089e-05 5.39832e-07 7.44382e-07 3.38065e-06 -5.35257e-08 8.04016e-07)
(4.89749e-05 7.44777e-07 3.02693e-07 3.01679e-06 -8.01447e-09 8.10048e-07)
(4.74241e-05 6.53692e-07 9.45558e-07 2.83182e-06 1.54009e-07 5.37091e-07)
(4.73323e-05 8.0703e-07 4.6313e-07 3.05255e-06 -6.5955e-08 6.85123e-07)
(4.82019e-05 1.05299e-06 4.87535e-07 3.15755e-06 3.52089e-08 6.7623e-07)
(4.68426e-05 5.74611e-07 1.20288e-06 3.14156e-06 1.61453e-07 5.53624e-07)
(4.73377e-05 1.02977e-06 7.0472e-07 3.11809e-06 1.5151e-07 7.89082e-07)
(4.62019e-05 2.78298e-07 8.19903e-07 2.78702e-06 6.14691e-08 6.18633e-07)
(4.68276e-05 6.59343e-07 9.64152e-07 3.10698e-06 1.37625e-07 5.31625e-07)
(4.74666e-05 3.27852e-07 8.25196e-07 3.17514e-06 3.53317e-07 8.44445e-07)
(4.71458e-05 1.26448e-07 6.20561e-07 2.85258e-06 9.81984e-08 6.84274e-07)
(4.71338e-05 6.00926e-07 6.44033e-07 3.46972e-06 2.48647e-07 5.83511e-07)
(4.65802e-05 2.0271e-07 7.3374e-07 3.5764e-06 3.51897e-07 7.72406e-07)
(4.66254e-05 2.13271e-07 6.98917e-07 2.67232e-06 -1.28651e-08 6.81335e-07)
(4.60891e-05 6.71804e-08 4.97932e-07 3.25766e-06 2.35357e-07 6.12508e-07)
(4.66441e-05 -2.35282e-07 3.54122e-07 3.24778e-06 2.62344e-07 6.36741e-07)
(4.6414e-05 -4.09758e-07 2.27817e-07 2.4261e-06 -3.02737e-08 6.44595e-07)
(4.62885e-05 -2.38622e-07 3.90078e-07 3.31779e-06 1.61506e-07 6.54914e-07)
(4.68195e-05 5.67282e-08 3.07164e-07 3.32454e-06 1.68462e-07 6.86809e-07)
(4.70523e-05 -4.10415e-07 3.72277e-07 2.50374e-06 1.18001e-07 7.24904e-07)
(4.66796e-05 6.59499e-09 5.25983e-07 3.03599e-06 1.71924e-07 6.86688e-07)
(4.88606e-05 -2.14116e-07 2.26179e-07 6.28999e-06 2.67685e-07 1.19078e-06)
(4.86862e-05 -4.91517e-07 9.7754e-07 5.55936e-06 1.78054e-07 1.05014e-06)
(4.84921e-05 -9.71333e-07 6.4125e-07 6.55433e-06 -2.22582e-08 1.11129e-06)
(5.06695e-05 -4.11044e-07 2.29754e-07 6.62273e-06 2.66888e-08 1.18027e-06)
(4.98734e-05 -1.15912e-06 3.74098e-07 5.79124e-06 -7.85483e-08 1.02164e-06)
(4.94145e-05 -6.24907e-07 2.45107e-07 6.17273e-06 -9.56692e-08 1.014e-06)
(5.00675e-05 -4.05335e-07 -1.45866e-08 6.09644e-06 -1.61251e-07 1.34564e-06)
(4.9717e-05 -1.11767e-06 7.34443e-08 5.54575e-06 -1.79261e-07 1.09232e-06)
(5.04481e-05 -9.33707e-07 6.20563e-07 6.04606e-06 -2.19691e-07 1.04491e-06)
(5.07153e-05 -7.32524e-07 2.26542e-07 6.47722e-06 -5.64154e-07 1.5438e-06)
(5.12974e-05 -6.21336e-07 -2.39608e-07 5.99351e-06 -5.05179e-07 1.30879e-06)
(5.0985e-05 -5.46815e-07 2.44284e-07 6.03372e-06 -4.2287e-07 1.2971e-06)
(5.14613e-05 -6.86121e-07 -2.09825e-07 6.28769e-06 -3.94697e-07 1.55885e-06)
(5.2864e-05 -5.99228e-07 4.18743e-07 6.41522e-06 -1.24339e-07 1.44471e-06)
(5.21273e-05 -3.36315e-07 2.61012e-07 5.93291e-06 -1.52933e-08 1.38315e-06)
(5.22187e-05 -5.83447e-08 -1.6528e-07 5.31771e-06 3.2101e-07 1.6487e-06)
(5.1497e-05 7.48647e-07 4.44153e-07 5.87303e-06 3.85122e-07 1.61733e-06)
(5.09912e-05 2.91226e-07 6.36638e-07 5.64872e-06 2.52273e-08 1.36446e-06)
(5.18566e-05 7.68143e-07 1.22568e-06 5.85808e-06 -5.8043e-09 1.21734e-06)
(5.07701e-05 3.8319e-07 9.3046e-07 6.76313e-06 -7.16308e-09 1.56637e-06)
(5.16414e-05 6.47132e-07 4.57444e-07 6.09195e-06 1.07129e-08 1.41109e-06)
(4.97764e-05 5.89409e-07 9.96349e-07 5.77655e-06 8.05372e-08 1.02467e-06)
(4.98033e-05 7.00199e-07 3.16592e-07 5.98777e-06 -1.02068e-07 1.3071e-06)
(5.06028e-05 7.85764e-07 6.01488e-07 6.11107e-06 1.56623e-07 1.19738e-06)
(4.94862e-05 6.00903e-07 1.35165e-06 6.17947e-06 1.48885e-07 1.10247e-06)
(4.97446e-05 1.01102e-06 7.37729e-07 5.98044e-06 6.98916e-08 1.47467e-06)
(4.83134e-05 4.26814e-07 9.77352e-07 5.40226e-06 -1.34886e-08 1.1379e-06)
(4.92071e-05 7.46422e-07 1.15632e-06 5.93438e-06 1.19448e-07 1.12263e-06)
(4.98832e-05 2.67101e-07 9.60214e-07 5.8204e-06 3.55028e-07 1.55891e-06)
(4.96312e-05 2.30233e-07 6.04903e-07 5.51188e-06 7.86284e-08 1.27316e-06)
(4.95334e-05 7.12726e-07 7.47706e-07 6.6032e-06 3.5524e-07 1.22929e-06)
(4.88719e-05 2.80172e-07 8.2473e-07 6.23652e-06 3.87132e-07 1.49412e-06)
(4.86012e-05 2.35854e-07 8.266e-07 5.22828e-06 -8.34684e-08 1.32054e-06)
(4.80454e-05 1.32886e-07 4.57237e-07 6.34733e-06 2.72511e-07 1.23096e-06)