/*--------------------------------*- C++ -*----------------------------------*\
  =========                 |
  \\      /  F ield         | OpenFOAM: The Open Source CFD Toolbox
   \\    /   O peration     | Website:  https://openfoam.org
    \\  /    A nd           | Version:  10
     \\/     M anipulation  |
\*---------------------------------------------------------------------------*/
FoamFile
{
    format      ascii;
    class       volScalarField;
    location    "12";
    object      pPrime2Mean;
}
// * * * * * * * * * * * * * * * * * * * * * * * * * * * * * * * * * * * * * //

dimensions      [0 4 -4 0 0 0 0];

internalField   nonuniform List<scalar> 
25600
(
2.6177e-05
2.25722e-05
1.85567e-05
1.98948e-05
2.08996e-05
2.48284e-05
2.76764e-05
2.2056e-05
2.26154e-05
2.68723e-05
2.73553e-05
2.48863e-05
2.55371e-05
2.39978e-05
2.18213e-05
2.07094e-05
1.91866e-05
2.0554e-05
2.59264e-05
2.56267e-05
2.72641e-05
2.60894e-05
2.681e-05
2.39488e-05
2.2317e-05
2.44269e-05
2.82957e-05
3.04648e-05
3.28196e-05
3.13778e-05
3.38815e-05
3.35455e-05
2.79191e-05
2.07897e-05
1.71792e-05
1.67263e-05
1.83496e-05
2.25377e-05
2.38995e-05
2.60066e-05
2.63878e-05
2.27448e-05
1.86766e-05
2.00353e-05
2.10403e-05
2.49987e-05
2.78674e-05
2.22016e-05
2.27453e-05
2.69935e-05
2.76136e-05
2.5043e-05
2.57087e-05
2.41619e-05
2.19467e-05
2.08725e-05
1.93228e-05
2.06967e-05
2.60891e-05
2.57702e-05
2.74347e-05
2.62399e-05
2.69423e-05
2.40906e-05
2.24424e-05
2.45461e-05
2.84675e-05
3.05944e-05
3.30013e-05
3.15641e-05
3.41032e-05
3.37486e-05
2.80978e-05
2.09222e-05
1.72754e-05
1.68574e-05
1.84632e-05
2.27139e-05
2.40777e-05
2.61717e-05
2.68825e-05
2.31457e-05
1.89416e-05
2.02917e-05
2.13415e-05
2.54076e-05
2.83647e-05
2.25413e-05
2.29999e-05
2.7201e-05
2.81213e-05
2.53757e-05
2.61237e-05
2.44796e-05
2.22167e-05
2.11938e-05
1.95938e-05
2.08929e-05
2.64687e-05
2.60564e-05
2.78395e-05
2.65812e-05
2.71416e-05
2.44165e-05
2.26844e-05
2.48177e-05
2.88728e-05
3.09703e-05
3.33985e-05
3.19988e-05
3.45215e-05
3.43291e-05
2.85257e-05
2.12141e-05
1.74545e-05
1.71305e-05
1.87861e-05
2.31635e-05
2.45236e-05
2.66474e-05
2.77619e-05
2.37308e-05
1.93764e-05
2.0748e-05
2.18355e-05
2.6081e-05
2.90807e-05
2.29704e-05
2.3347e-05
2.75332e-05
2.88711e-05
2.56587e-05
2.66639e-05
2.48454e-05
2.25711e-05
2.17826e-05
1.98871e-05
2.11297e-05
2.6993e-05
2.65185e-05
2.83906e-05
2.71259e-05
2.73106e-05
2.47734e-05
2.29137e-05
2.51431e-05
2.95016e-05
3.15661e-05
3.3998e-05
3.26216e-05
3.51996e-05
3.53305e-05
2.9083e-05
2.16017e-05
1.76644e-05
1.74143e-05
1.92032e-05
2.38451e-05
2.51265e-05
2.75158e-05
2.85755e-05
2.40225e-05
1.96436e-05
2.08537e-05
2.23389e-05
2.67933e-05
2.95833e-05
2.3375e-05
2.34949e-05
2.78818e-05
2.96944e-05
2.58815e-05
2.76377e-05
2.54339e-05
2.2933e-05
2.21817e-05
1.98553e-05
2.1065e-05
2.73834e-05
2.70027e-05
2.90487e-05
2.77138e-05
2.69762e-05
2.50809e-05
2.31467e-05
2.56111e-05
3.0176e-05
3.23297e-05
3.48839e-05
3.32665e-05
3.59239e-05
3.62467e-05
2.95452e-05
2.19395e-05
1.7774e-05
1.76253e-05
1.9516e-05
2.43986e-05
2.58405e-05
2.83492e-05
2.90542e-05
2.41424e-05
2.01018e-05
2.14176e-05
2.29983e-05
2.77842e-05
2.99733e-05
2.35729e-05
2.32748e-05
2.77808e-05
2.98399e-05
2.59902e-05
2.84546e-05
2.57636e-05
2.31251e-05
2.2504e-05
1.9599e-05
2.10063e-05
2.73784e-05
2.73173e-05
2.93891e-05
2.81689e-05
2.65091e-05
2.48713e-05
2.31988e-05
2.57433e-05
3.03878e-05
3.29395e-05
3.56857e-05
3.39399e-05
3.62243e-05
3.70442e-05
2.96932e-05
2.19677e-05
1.77339e-05
1.77554e-05
1.96298e-05
2.48916e-05
2.61802e-05
2.91538e-05
2.9185e-05
2.41375e-05
2.01619e-05
2.11951e-05
2.33718e-05
2.81097e-05
3.01537e-05
2.36001e-05
2.29589e-05
2.73687e-05
2.91326e-05
2.60013e-05
2.84664e-05
2.57782e-05
2.31207e-05
2.22116e-05
1.91027e-05
2.053e-05
2.68893e-05
2.7325e-05
2.93026e-05
2.80536e-05
2.57686e-05
2.41353e-05
2.30548e-05
2.57263e-05
3.02884e-05
3.3194e-05
3.60525e-05
3.42452e-05
3.58518e-05
3.74973e-05
2.93233e-05
2.14167e-05
1.74207e-05
1.75387e-05
1.96031e-05
2.4696e-05
2.59604e-05
2.94375e-05
2.897e-05
2.39589e-05
1.96974e-05
2.0758e-05
2.35132e-05
2.82468e-05
2.99546e-05
2.33708e-05
2.21363e-05
2.70053e-05
2.77231e-05
2.53403e-05
2.7408e-05
2.53848e-05
2.29806e-05
2.16414e-05
1.86738e-05
2.02005e-05
2.59041e-05
2.69609e-05
2.90553e-05
2.77109e-05
2.53621e-05
2.35022e-05
2.29121e-05
2.5625e-05
2.99451e-05
3.29667e-05
3.53433e-05
3.38374e-05
3.51647e-05
3.75807e-05
2.87914e-05
2.07628e-05
1.70808e-05
1.7189e-05
1.94611e-05
2.43983e-05
2.55592e-05
2.94879e-05
2.82416e-05
2.3685e-05
1.89689e-05
1.97158e-05
2.32028e-05
2.76864e-05
2.91605e-05
2.23821e-05
2.13805e-05
2.60084e-05
2.61879e-05
2.46848e-05
2.63916e-05
2.4666e-05
2.21739e-05
2.0572e-05
1.7849e-05
1.94312e-05
2.45689e-05
2.59921e-05
2.83005e-05
2.72142e-05
2.45213e-05
2.24049e-05
2.23366e-05
2.50054e-05
2.91634e-05
3.21905e-05
3.39633e-05
3.26817e-05
3.42122e-05
3.64812e-05
2.8498e-05
2.03655e-05
1.66838e-05
1.65701e-05
1.87074e-05
2.32096e-05
2.43471e-05
2.87671e-05
2.6736e-05
2.3414e-05
1.86214e-05
1.88443e-05
2.23124e-05
2.62967e-05
2.67948e-05
2.03147e-05
1.96453e-05
2.37494e-05
2.40691e-05
2.3389e-05
2.48712e-05
2.3351e-05
2.0808e-05
1.89771e-05
1.68644e-05
1.85176e-05
2.29518e-05
2.45799e-05
2.69296e-05
2.59618e-05
2.31155e-05
2.0897e-05
2.12344e-05
2.36498e-05
2.73495e-05
3.05291e-05
3.17992e-05
3.08659e-05
3.19273e-05
3.36161e-05
2.68858e-05
1.92662e-05
1.57177e-05
1.54109e-05
1.73712e-05
2.12369e-05
2.26641e-05
2.70968e-05
2.3793e-05
2.17666e-05
1.76506e-05
1.70698e-05
1.97099e-05
2.33635e-05
2.37957e-05
1.8178e-05
1.77939e-05
2.11414e-05
2.12832e-05
2.07852e-05
2.19667e-05
2.12353e-05
1.87346e-05
1.68205e-05
1.5061e-05
1.67244e-05
2.08277e-05
2.25627e-05
2.44152e-05
2.41273e-05
2.15256e-05
1.91368e-05
1.94465e-05
2.17992e-05
2.49326e-05
2.79712e-05
2.88633e-05
2.78545e-05
2.80855e-05
2.93865e-05
2.40324e-05
1.74115e-05
1.41888e-05
1.38674e-05
1.56015e-05
1.8749e-05
2.00019e-05
2.40533e-05
1.93963e-05
1.80987e-05
1.53063e-05
1.44251e-05
1.61017e-05
1.93408e-05
1.96765e-05
1.52635e-05
1.50854e-05
1.75696e-05
1.77498e-05
1.71485e-05
1.84119e-05
1.86556e-05
1.6243e-05
1.43687e-05
1.28122e-05
1.41501e-05
1.78839e-05
1.93228e-05
2.05781e-05
2.09923e-05
1.91653e-05
1.68232e-05
1.71046e-05
1.93665e-05
2.2002e-05
2.46243e-05
2.49958e-05
2.34681e-05
2.31196e-05
2.40497e-05
2.00617e-05
1.46669e-05
1.18865e-05
1.18094e-05
1.3343e-05
1.57513e-05
1.63573e-05
1.94355e-05
1.46325e-05
1.37696e-05
1.18918e-05
1.11507e-05
1.23726e-05
1.50331e-05
1.51319e-05
1.16499e-05
1.16339e-05
1.3608e-05
1.40636e-05
1.33041e-05
1.44459e-05
1.50651e-05
1.30394e-05
1.14473e-05
1.04305e-05
1.13081e-05
1.41669e-05
1.52137e-05
1.57572e-05
1.65168e-05
1.52952e-05
1.35332e-05
1.37795e-05
1.56324e-05
1.7887e-05
2.00752e-05
2.02171e-05
1.83871e-05
1.78821e-05
1.85199e-05
1.5501e-05
1.14124e-05
9.10919e-06
9.07696e-06
1.05641e-05
1.22505e-05
1.22837e-05
1.42435e-05
1.05477e-05
9.98704e-06
8.89131e-06
8.38225e-06
9.17095e-06
1.10827e-05
1.09538e-05
8.34193e-06
8.41879e-06
1.00495e-05
1.06464e-05
9.98197e-06
1.08468e-05
1.14961e-05
9.87999e-06
8.38298e-06
7.90135e-06
8.50764e-06
1.05302e-05
1.15647e-05
1.17527e-05
1.2463e-05
1.13652e-05
1.00941e-05
1.02555e-05
1.13011e-05
1.31235e-05
1.48502e-05
1.49934e-05
1.34021e-05
1.30593e-05
1.37073e-05
1.15524e-05
8.55045e-06
6.72975e-06
6.65775e-06
7.98721e-06
9.16347e-06
8.88835e-06
1.00643e-05
7.48759e-06
7.12739e-06
6.64113e-06
6.20617e-06
6.6691e-06
7.99433e-06
7.74856e-06
5.68817e-06
5.75729e-06
7.06397e-06
7.62268e-06
7.24644e-06
7.76786e-06
8.39972e-06
7.20203e-06
5.93625e-06
5.75249e-06
6.1346e-06
7.57561e-06
8.62156e-06
8.60735e-06
9.19755e-06
8.24684e-06
7.26826e-06
7.29705e-06
7.74491e-06
8.99897e-06
1.02844e-05
1.05344e-05
9.29868e-06
9.07715e-06
9.7706e-06
8.28975e-06
6.13947e-06
4.79365e-06
4.722e-06
5.82505e-06
6.68626e-06
6.26146e-06
7.01379e-06
5.0761e-06
4.87079e-06
4.83918e-06
4.4042e-06
4.66423e-06
5.65838e-06
5.3328e-06
3.71344e-06
3.73537e-06
4.69172e-06
5.19089e-06
4.99916e-06
5.22239e-06
5.78259e-06
4.95191e-06
3.98126e-06
4.00489e-06
4.20505e-06
5.24476e-06
6.18817e-06
6.10848e-06
6.59285e-06
5.81809e-06
5.04391e-06
4.99389e-06
5.15845e-06
6.01074e-06
6.9139e-06
7.22856e-06
6.28686e-06
6.09773e-06
6.75749e-06
5.79989e-06
4.30811e-06
3.33811e-06
3.24302e-06
4.11565e-06
4.7312e-06
4.1761e-06
4.64131e-06
3.35062e-06
3.22666e-06
3.48558e-06
3.09274e-06
3.18667e-06
3.954e-06
3.58303e-06
2.37856e-06
2.39439e-06
3.03717e-06
3.46664e-06
3.40058e-06
3.44042e-06
3.93325e-06
3.36577e-06
2.62642e-06
2.75255e-06
2.82391e-06
3.55763e-06
4.3676e-06
4.25727e-06
4.64332e-06
4.05638e-06
3.42336e-06
3.34524e-06
3.35202e-06
3.90625e-06
4.53299e-06
4.85647e-06
4.17981e-06
4.00947e-06
4.62035e-06
3.99535e-06
2.96726e-06
2.29966e-06
2.11147e-06
2.82546e-06
3.33344e-06
2.7536e-06
3.01059e-06
2.20217e-06
2.13038e-06
2.48884e-06
2.16718e-06
2.1281e-06
2.72344e-06
2.36391e-06
1.50733e-06
1.54052e-06
1.95925e-06
2.32191e-06
2.3117e-06
2.25141e-06
2.67313e-06
2.28439e-06
1.70465e-06
1.87051e-06
1.85628e-06
2.3405e-06
3.02298e-06
2.92867e-06
3.23051e-06
2.81465e-06
2.28278e-06
2.20779e-06
2.14e-06
2.46145e-06
2.89486e-06
3.21044e-06
2.73774e-06
2.55968e-06
3.13101e-06
2.71156e-06
2.00425e-06
1.57732e-06
1.33037e-06
1.90136e-06
2.33294e-06
1.79601e-06
1.92638e-06
1.41342e-06
1.36769e-06
1.76991e-06
1.53285e-06
1.41163e-06
1.85835e-06
1.54849e-06
9.5025e-07
1.00857e-06
1.26766e-06
1.56611e-06
1.56913e-06
1.45537e-06
1.82032e-06
1.57045e-06
1.09723e-06
1.26591e-06
1.20505e-06
1.51035e-06
2.06239e-06
1.99613e-06
2.22681e-06
1.95192e-06
1.51308e-06
1.45489e-06
1.36279e-06
1.52846e-06
1.84522e-06
2.11441e-06
1.78751e-06
1.59786e-06
2.12021e-06
1.84677e-06
1.3596e-06
1.10169e-06
8.14927e-07
1.25613e-06
1.63288e-06
1.16746e-06
1.22035e-06
8.86331e-07
8.45316e-07
1.24496e-06
1.08482e-06
9.25017e-07
1.26977e-06
1.00517e-06
5.93205e-07
6.71508e-07
8.16218e-07
1.05374e-06
1.06834e-06
9.28128e-07
1.23625e-06
1.09807e-06
7.03842e-07
8.69997e-07
7.90319e-07
9.58147e-07
1.38743e-06
1.34209e-06
1.53497e-06
1.37078e-06
1.00218e-06
9.6528e-07
8.69437e-07
9.28799e-07
1.16691e-06
1.39028e-06
1.16252e-06
9.77952e-07
1.43606e-06
1.26203e-06
9.25634e-07
7.8377e-07
4.84743e-07
8.02361e-07
1.13663e-06
7.59503e-07
7.73595e-07
5.52609e-07
4.9744e-07
8.72382e-07
7.7106e-07
6.01371e-07
8.66917e-07
6.47846e-07
3.72151e-07
4.64353e-07
5.26113e-07
7.1705e-07
7.46673e-07
5.89528e-07
8.48072e-07
7.88429e-07
4.55061e-07
6.12648e-07
5.3395e-07
6.07499e-07
9.26261e-07
8.91742e-07
1.0559e-06
9.77361e-07
6.66921e-07
6.52343e-07
5.68666e-07
5.62526e-07
7.38456e-07
9.3396e-07
7.75421e-07
5.93716e-07
9.85789e-07
8.80536e-07
6.40574e-07
5.83891e-07
2.91794e-07
4.96896e-07
7.89924e-07
5.04029e-07
5.03184e-07
3.45398e-07
2.67663e-07
6.06692e-07
5.51171e-07
3.93027e-07
5.9956e-07
4.20776e-07
2.39608e-07
3.34694e-07
3.36365e-07
4.90767e-07
5.39981e-07
3.73004e-07
5.87385e-07
5.8806e-07
3.01798e-07
4.44247e-07
3.82521e-07
3.91192e-07
6.25251e-07
5.86096e-07
7.21218e-07
7.09917e-07
4.53892e-07
4.51773e-07
3.90294e-07
3.50704e-07
4.71381e-07
6.49396e-07
5.44099e-07
3.6728e-07
6.90873e-07
6.3534e-07
4.49217e-07
4.54871e-07
1.91235e-07
2.94035e-07
5.458e-07
3.37545e-07
3.41692e-07
2.25399e-07
1.25754e-07
4.18224e-07
3.92316e-07
2.54836e-07
4.23091e-07
2.78813e-07
1.61325e-07
2.54211e-07
2.10255e-07
3.37243e-07
4.07104e-07
2.37101e-07
4.10517e-07
4.54647e-07
2.09891e-07
3.31274e-07
2.96063e-07
2.62012e-07
4.2986e-07
3.82322e-07
4.86752e-07
5.2389e-07
3.21772e-07
3.20312e-07
2.8714e-07
2.38219e-07
3.07093e-07
4.68436e-07
4.15468e-07
2.42398e-07
4.97317e-07
4.82993e-07
3.22719e-07
3.69246e-07
1.51491e-07
1.6835e-07
3.77623e-07
2.28758e-07
2.45083e-07
1.6211e-07
4.65899e-08
2.86204e-07
2.80438e-07
1.62256e-07
3.06853e-07
1.89751e-07
1.1302e-07
2.07031e-07
1.32519e-07
2.28993e-07
3.19239e-07
1.57536e-07
2.87076e-07
3.63272e-07
1.58731e-07
2.51977e-07
2.45399e-07
1.86268e-07
3.04792e-07
2.55225e-07
3.26197e-07
3.8985e-07
2.41851e-07
2.33195e-07
2.24064e-07
1.86582e-07
2.13209e-07
3.51676e-07
3.50281e-07
1.82991e-07
3.71792e-07
3.92563e-07
2.41403e-07
3.08383e-07
1.48907e-07
1.00707e-07
2.63099e-07
1.60412e-07
1.84432e-07
1.29959e-07
9.80054e-09
1.96792e-07
2.02661e-07
9.91034e-08
2.30103e-07
1.36743e-07
8.10769e-08
1.75642e-07
9.10969e-08
1.51776e-07
2.55829e-07
1.16303e-07
1.98673e-07
2.94183e-07
1.32656e-07
1.94297e-07
2.1232e-07
1.43832e-07
2.25231e-07
1.82141e-07
2.21141e-07
2.90154e-07
1.9471e-07
1.78477e-07
1.81766e-07
1.69134e-07
1.62154e-07
2.70578e-07
3.18877e-07
1.60435e-07
2.89596e-07
3.42681e-07
1.94221e-07
2.56669e-07
1.61356e-07
7.35279e-08
1.87422e-07
1.20579e-07
1.4142e-07
1.1435e-07
1.80613e-13
1.40271e-07
1.53082e-07
5.84784e-08
1.7704e-07
1.07073e-07
5.812e-08
1.50212e-07
7.4713e-08
9.92522e-08
2.04732e-07
9.93095e-08
1.36194e-07
2.38393e-07
1.2122e-07
1.50947e-07
1.86167e-07
1.19366e-07
1.73228e-07
1.44479e-07
1.59449e-07
2.17738e-07
1.6487e-07
1.47091e-07
1.51465e-07
1.69556e-07
1.37871e-07
2.11421e-07
3.01612e-07
1.56129e-07
2.3286e-07
3.1282e-07
1.69711e-07
2.11604e-07
1.7205e-07
6.98765e-08
1.39304e-07
9.83199e-08
1.12461e-07
1.08705e-07
7.01819e-09
1.09087e-07
1.27426e-07
3.63826e-08
1.38743e-07
9.39015e-08
4.12297e-08
1.25486e-07
7.25212e-08
6.94474e-08
1.62879e-07
9.69812e-08
9.57286e-08
1.93209e-07
1.18023e-07
1.21021e-07
1.64302e-07
1.04275e-07
1.37871e-07
1.2856e-07
1.27565e-07
1.70261e-07
1.44645e-07
1.30063e-07
1.29516e-07
1.73545e-07
1.31691e-07
1.64884e-07
2.83321e-07
1.58036e-07
1.87177e-07
2.84978e-07
1.55072e-07
1.69738e-07
1.67418e-07
7.3832e-08
1.08541e-07
8.37924e-08
9.72953e-08
1.12475e-07
2.2886e-08
9.68134e-08
1.19808e-07
2.7441e-08
1.11192e-07
9.17655e-08
3.11581e-08
1.02378e-07
7.82998e-08
5.87208e-08
1.29628e-07
1.03564e-07
7.47068e-08
1.54023e-07
1.19263e-07
1.01181e-07
1.45892e-07
9.5954e-08
1.12362e-07
1.21032e-07
1.08117e-07
1.41534e-07
1.32793e-07
1.19983e-07
1.16502e-07
1.73088e-07
1.37605e-07
1.29706e-07
2.51551e-07
1.59262e-07
1.46917e-07
2.47633e-07
1.41338e-07
1.34515e-07
1.49661e-07
7.81382e-08
9.30044e-08
7.43983e-08
9.53171e-08
1.22026e-07
4.10458e-08
9.55306e-08
1.21681e-07
2.77605e-08
9.29005e-08
9.84952e-08
2.9754e-08
8.57815e-08
9.02928e-08
6.11736e-08
1.03893e-07
1.10629e-07
6.77356e-08
1.15789e-07
1.18941e-07
8.73437e-08
1.26093e-07
9.64055e-08
9.50848e-08
1.12193e-07
9.28848e-08
1.21891e-07
1.26932e-07
1.12828e-07
1.1034e-07
1.62209e-07
1.45268e-07
1.08253e-07
2.029e-07
1.5339e-07
1.17916e-07
1.99848e-07
1.30504e-07
1.11681e-07
1.25861e-07
8.439e-08
9.17015e-08
7.04191e-08
1.0266e-07
1.26383e-07
5.32499e-08
9.13403e-08
1.19959e-07
3.42219e-08
7.86049e-08
1.08281e-07
3.62942e-08
7.61664e-08
1.03811e-07
6.71437e-08
8.75798e-08
1.10673e-07
6.60545e-08
8.17777e-08
1.10446e-07
8.00503e-08
1.00758e-07
9.80003e-08
9.01387e-08
1.00945e-07
8.35933e-08
1.05254e-07
1.18917e-07
1.0728e-07
1.04067e-07
1.43259e-07
1.42881e-07
9.88247e-08
1.51689e-07
1.38346e-07
1.05406e-07
1.54064e-07
1.23977e-07
1.05904e-07
1.04951e-07
9.3367e-08
9.69711e-08
6.79657e-08
1.08883e-07
1.10817e-07
5.33653e-08
7.74154e-08
1.03299e-07
4.33031e-08
6.62255e-08
1.09623e-07
4.80227e-08
7.05928e-08
1.14316e-07
7.18216e-08
8.18814e-08
1.11083e-07
7.0483e-08
6.68885e-08
9.68563e-08
7.80612e-08
7.56986e-08
9.19947e-08
9.45785e-08
8.89175e-08
8.1366e-08
9.50398e-08
1.03231e-07
1.01235e-07
9.67275e-08
1.17197e-07
1.29232e-07
9.65013e-08
1.14346e-07
1.22942e-07
1.05906e-07
1.22706e-07
1.19834e-07
1.04898e-07
8.88934e-08
9.86572e-08
9.68937e-08
6.09835e-08
1.00103e-07
8.53986e-08
5.67713e-08
6.89314e-08
8.4851e-08
6.1192e-08
6.5331e-08
9.71393e-08
5.8477e-08
6.50899e-08
1.06852e-07
6.69711e-08
7.5072e-08
1.07893e-07
7.60188e-08
6.88339e-08
9.04584e-08
8.06777e-08
6.28402e-08
8.08137e-08
9.22309e-08
7.57035e-08
7.98355e-08
8.93344e-08
8.71757e-08
9.6727e-08
9.37509e-08
9.4523e-08
1.14449e-07
1.01723e-07
9.29201e-08
1.17249e-07
1.09192e-07
9.94007e-08
1.18895e-07
9.97761e-08
7.79957e-08
1.02363e-07
8.83151e-08
5.68748e-08
8.31434e-08
3.15265e-05
3.8714e-05
3.91469e-05
3.6814e-05
3.47099e-05
3.69426e-05
4.35062e-05
3.89993e-05
4.09832e-05
4.22764e-05
3.72845e-05
3.5659e-05
3.4249e-05
3.3194e-05
3.4485e-05
3.56339e-05
3.7101e-05
3.68712e-05
3.7356e-05
3.47253e-05
3.45847e-05
3.45693e-05
3.58599e-05
3.54086e-05
3.07716e-05
2.94691e-05
2.84571e-05
2.98445e-05
3.23883e-05
3.5705e-05
3.62019e-05
3.55076e-05
3.43481e-05
3.14186e-05
2.98499e-05
3.15605e-05
3.2309e-05
3.1399e-05
3.1729e-05
2.83178e-05
3.1677e-05
3.88717e-05
3.93462e-05
3.70461e-05
3.4882e-05
3.71068e-05
4.37401e-05
3.91996e-05
4.12129e-05
4.24661e-05
3.74227e-05
3.58358e-05
3.43939e-05
3.32894e-05
3.46027e-05
3.57797e-05
3.72682e-05
3.7048e-05
3.75401e-05
3.48451e-05
3.4787e-05
3.47168e-05
3.59773e-05
3.55329e-05
3.08546e-05
2.9628e-05
2.86031e-05
2.99946e-05
3.25164e-05
3.58534e-05
3.63426e-05
3.56623e-05
3.45361e-05
3.15858e-05
2.99811e-05
3.1736e-05
3.24442e-05
3.15116e-05
3.1867e-05
2.8423e-05
3.19975e-05
3.9221e-05
3.97724e-05
3.75615e-05
3.52826e-05
3.75492e-05
4.42655e-05
3.97e-05
4.18111e-05
4.31396e-05
3.77169e-05
3.62623e-05
3.47852e-05
3.35754e-05
3.484e-05
3.61564e-05
3.76252e-05
3.74476e-05
3.80108e-05
3.51143e-05
3.51791e-05
3.50691e-05
3.61572e-05
3.56697e-05
3.10253e-05
2.99466e-05
2.8923e-05
3.03212e-05
3.28445e-05
3.62215e-05
3.66988e-05
3.6105e-05
3.50054e-05
3.19575e-05
3.02386e-05
3.20715e-05
3.2722e-05
3.17385e-05
3.22167e-05
2.8688e-05
3.23324e-05
3.96343e-05
4.0077e-05
3.81758e-05
3.56336e-05
3.79366e-05
4.47208e-05
4.01767e-05
4.26942e-05
4.40541e-05
3.80718e-05
3.67513e-05
3.52115e-05
3.38596e-05
3.49477e-05
3.65237e-05
3.78702e-05
3.76579e-05
3.83699e-05
3.53182e-05
3.56322e-05
3.53181e-05
3.61222e-05
3.55774e-05
3.11737e-05
3.02414e-05
2.91001e-05
3.05894e-05
3.31106e-05
3.64779e-05
3.70457e-05
3.65617e-05
3.54269e-05
3.23518e-05
3.05388e-05
3.23287e-05
3.29904e-05
3.19836e-05
3.26799e-05
2.90209e-05
3.2393e-05
3.99248e-05
3.98939e-05
3.85082e-05
3.56484e-05
3.80628e-05
4.47637e-05
4.0393e-05
4.31895e-05
4.46807e-05
3.85806e-05
3.73293e-05
3.57463e-05
3.43782e-05
3.52926e-05
3.71475e-05
3.78164e-05
3.75137e-05
3.84094e-05
3.53484e-05
3.61495e-05
3.52515e-05
3.57318e-05
3.4711e-05
3.1059e-05
3.00647e-05
2.88849e-05
3.06022e-05
3.29935e-05
3.64692e-05
3.7179e-05
3.68183e-05
3.5609e-05
3.25333e-05
3.08188e-05
3.22477e-05
3.31556e-05
3.21423e-05
3.30055e-05
2.94757e-05
3.21662e-05
4.01073e-05
3.92942e-05
3.80951e-05
3.53269e-05
3.75701e-05
4.40287e-05
4.00696e-05
4.23601e-05
4.41025e-05
3.88892e-05
3.77797e-05
3.59928e-05
3.49625e-05
3.5747e-05
3.76428e-05
3.74612e-05
3.71412e-05
3.78946e-05
3.5266e-05
3.55084e-05
3.49621e-05
3.54472e-05
3.39059e-05
3.1001e-05
2.9508e-05
2.85869e-05
3.05734e-05
3.29795e-05
3.6476e-05
3.70983e-05
3.69023e-05
3.57239e-05
3.27394e-05
3.11472e-05
3.20639e-05
3.32012e-05
3.21606e-05
3.32709e-05
3.00139e-05
3.11137e-05
3.87572e-05
3.80264e-05
3.70353e-05
3.44135e-05
3.70634e-05
4.2579e-05
3.93051e-05
4.07483e-05
4.29003e-05
3.8356e-05
3.7927e-05
3.5921e-05
3.51889e-05
3.60017e-05
3.78023e-05
3.68784e-05
3.70013e-05
3.72489e-05
3.50786e-05
3.50091e-05
3.46202e-05
3.48991e-05
3.32919e-05
3.058e-05
2.86962e-05
2.79803e-05
3.0118e-05
3.2675e-05
3.63155e-05
3.69503e-05
3.68646e-05
3.59509e-05
3.29531e-05
3.10933e-05
3.16135e-05
3.27214e-05
3.18277e-05
3.32331e-05
2.9864e-05
2.89069e-05
3.57816e-05
3.56952e-05
3.46161e-05
3.21759e-05
3.53711e-05
4.03257e-05
3.7543e-05
3.85768e-05
4.04265e-05
3.63706e-05
3.65326e-05
3.46824e-05
3.40982e-05
3.49802e-05
3.67699e-05
3.52625e-05
3.59175e-05
3.56268e-05
3.40594e-05
3.38306e-05
3.38193e-05
3.34362e-05
3.24304e-05
2.94829e-05
2.77861e-05
2.7053e-05
2.87757e-05
3.13519e-05
3.49228e-05
3.57285e-05
3.60468e-05
3.51605e-05
3.25393e-05
3.00668e-05
3.06272e-05
3.13989e-05
3.08746e-05
3.18554e-05
2.84976e-05
2.63035e-05
3.16865e-05
3.21744e-05
3.04309e-05
2.85902e-05
3.23648e-05
3.64878e-05
3.43329e-05
3.51085e-05
3.62018e-05
3.30393e-05
3.36374e-05
3.20362e-05
3.14376e-05
3.19256e-05
3.30909e-05
3.16778e-05
3.23803e-05
3.20478e-05
3.13509e-05
3.12861e-05
3.14828e-05
3.06002e-05
3.0045e-05
2.71608e-05
2.57908e-05
2.4728e-05
2.60967e-05
2.88263e-05
3.2108e-05
3.31483e-05
3.31148e-05
3.22777e-05
2.99535e-05
2.73401e-05
2.81052e-05
2.84806e-05
2.85072e-05
2.8974e-05
2.60806e-05
2.31979e-05
2.72014e-05
2.81988e-05
2.57314e-05
2.46131e-05
2.80319e-05
3.17876e-05
2.99498e-05
3.04137e-05
3.14204e-05
2.89085e-05
2.93672e-05
2.7609e-05
2.72781e-05
2.75903e-05
2.7893e-05
2.69717e-05
2.67211e-05
2.67204e-05
2.69697e-05
2.70037e-05
2.74248e-05
2.65342e-05
2.60712e-05
2.37961e-05
2.29905e-05
2.17738e-05
2.26819e-05
2.56155e-05
2.84741e-05
2.95774e-05
2.87321e-05
2.78519e-05
2.58993e-05
2.36858e-05
2.41974e-05
2.45015e-05
2.51578e-05
2.47914e-05
2.26069e-05
2.00748e-05
2.2703e-05
2.40228e-05
2.12769e-05
2.08057e-05
2.38155e-05
2.69139e-05
2.54362e-05
2.53264e-05
2.6556e-05
2.44291e-05
2.46647e-05
2.28788e-05
2.28611e-05
2.33149e-05
2.33781e-05
2.29727e-05
2.1794e-05
2.17175e-05
2.24276e-05
2.26115e-05
2.29635e-05
2.20973e-05
2.14795e-05
1.97333e-05
1.95226e-05
1.83904e-05
1.89184e-05
2.17971e-05
2.42253e-05
2.54557e-05
2.45223e-05
2.34021e-05
2.15889e-05
1.98855e-05
2.03316e-05
2.06288e-05
2.1606e-05
2.05269e-05
1.92342e-05
1.70487e-05
1.85059e-05
1.97219e-05
1.70733e-05
1.69133e-05
1.96746e-05
2.19722e-05
2.09595e-05
2.04803e-05
2.15188e-05
1.98794e-05
1.99931e-05
1.8365e-05
1.84547e-05
1.92117e-05
1.94437e-05
1.93744e-05
1.77123e-05
1.73398e-05
1.82453e-05
1.84055e-05
1.86103e-05
1.76056e-05
1.68163e-05
1.55233e-05
1.55385e-05
1.47554e-05
1.50748e-05
1.77417e-05
1.9724e-05
2.10484e-05
2.04831e-05
1.91682e-05
1.73558e-05
1.6076e-05
1.66847e-05
1.68611e-05
1.77897e-05
1.65658e-05
1.60337e-05
1.3893e-05
1.45026e-05
1.53196e-05
1.31008e-05
1.29697e-05
1.54303e-05
1.70769e-05
1.6433e-05
1.59189e-05
1.64737e-05
1.54045e-05
1.54879e-05
1.4094e-05
1.41195e-05
1.51006e-05
1.55126e-05
1.56145e-05
1.39853e-05
1.33752e-05
1.44485e-05
1.47317e-05
1.48387e-05
1.37843e-05
1.28637e-05
1.17834e-05
1.17228e-05
1.13938e-05
1.16504e-05
1.38706e-05
1.53376e-05
1.65225e-05
1.64467e-05
1.50405e-05
1.33604e-05
1.2343e-05
1.30082e-05
1.3253e-05
1.38578e-05
1.27128e-05
1.26836e-05
1.07492e-05
1.10429e-05
1.1475e-05
9.79609e-06
9.51512e-06
1.15388e-05
1.27888e-05
1.23389e-05
1.20003e-05
1.21167e-05
1.14324e-05
1.15791e-05
1.04501e-05
1.04953e-05
1.129e-05
1.17017e-05
1.18674e-05
1.05266e-05
1.00413e-05
1.10996e-05
1.14871e-05
1.1519e-05
1.05534e-05
9.52657e-06
8.70004e-06
8.51987e-06
8.41821e-06
8.71318e-06
1.03866e-05
1.14568e-05
1.23335e-05
1.26688e-05
1.13256e-05
9.76084e-06
8.94783e-06
9.5173e-06
1.00207e-05
1.02697e-05
9.30436e-06
9.57373e-06
7.90734e-06
8.0889e-06
8.32412e-06
7.12392e-06
6.78592e-06
8.32371e-06
9.29753e-06
8.88752e-06
8.70322e-06
8.56925e-06
8.16952e-06
8.35978e-06
7.42782e-06
7.47671e-06
8.05077e-06
8.39421e-06
8.61858e-06
7.56553e-06
7.24565e-06
8.12888e-06
8.5669e-06
8.56435e-06
7.72923e-06
6.76057e-06
6.17671e-06
6.02499e-06
6.04591e-06
6.35677e-06
7.53487e-06
8.29257e-06
8.9704e-06
9.50778e-06
8.30623e-06
6.85758e-06
6.20025e-06
6.5748e-06
7.19525e-06
7.32173e-06
6.50824e-06
6.96909e-06
5.57241e-06
5.74374e-06
5.90391e-06
4.99364e-06
4.65439e-06
5.80834e-06
6.54917e-06
6.1332e-06
6.05421e-06
5.88064e-06
5.69255e-06
5.90317e-06
5.14648e-06
5.17215e-06
5.54082e-06
5.78243e-06
6.07459e-06
5.26818e-06
5.07681e-06
5.74071e-06
6.10303e-06
6.12916e-06
5.40116e-06
4.56001e-06
4.18889e-06
4.10428e-06
4.17408e-06
4.50586e-06
5.34998e-06
5.85901e-06
6.35026e-06
6.94197e-06
5.94755e-06
4.66917e-06
4.21764e-06
4.43396e-06
5.05494e-06
5.15091e-06
4.35187e-06
4.85596e-06
3.79002e-06
3.95938e-06
4.15252e-06
3.42706e-06
3.08404e-06
3.88739e-06
4.40514e-06
4.04405e-06
4.01315e-06
3.8873e-06
3.82315e-06
4.03069e-06
3.48946e-06
3.51763e-06
3.74821e-06
3.88e-06
4.19131e-06
3.58293e-06
3.48511e-06
3.98745e-06
4.25085e-06
4.3178e-06
3.73765e-06
3.01454e-06
2.77742e-06
2.72651e-06
2.76822e-06
3.06962e-06
3.71759e-06
4.00339e-06
4.32968e-06
4.9497e-06
4.20399e-06
3.12884e-06
2.82099e-06
2.9431e-06
3.50734e-06
3.62131e-06
2.82236e-06
3.23747e-06
2.51766e-06
2.62704e-06
2.87636e-06
2.30505e-06
1.97046e-06
2.5435e-06
2.89226e-06
2.61213e-06
2.60127e-06
2.51713e-06
2.51573e-06
2.69051e-06
2.29381e-06
2.34719e-06
2.50585e-06
2.54955e-06
2.82837e-06
2.37235e-06
2.31804e-06
2.72838e-06
2.8926e-06
2.96477e-06
2.51739e-06
1.95489e-06
1.79922e-06
1.78281e-06
1.79152e-06
2.03969e-06
2.55429e-06
2.68418e-06
2.88796e-06
3.49622e-06
2.95471e-06
2.09405e-06
1.88539e-06
1.91026e-06
2.375e-06
2.50027e-06
1.78835e-06
2.1126e-06
1.63423e-06
1.68472e-06
1.9792e-06
1.55088e-06
1.22587e-06
1.65972e-06
1.8797e-06
1.67782e-06
1.68384e-06
1.61985e-06
1.66716e-06
1.79477e-06
1.48426e-06
1.55353e-06
1.66264e-06
1.64333e-06
1.89578e-06
1.56665e-06
1.51352e-06
1.85461e-06
1.94275e-06
2.01149e-06
1.68731e-06
1.25522e-06
1.15646e-06
1.17007e-06
1.14142e-06
1.32417e-06
1.7565e-06
1.79064e-06
1.89765e-06
2.45034e-06
2.06172e-06
1.39464e-06
1.27502e-06
1.22236e-06
1.57911e-06
1.72902e-06
1.11345e-06
1.33881e-06
1.03782e-06
1.03538e-06
1.339e-06
1.03965e-06
7.44389e-07
1.08449e-06
1.20039e-06
1.0582e-06
1.08096e-06
1.03521e-06
1.10882e-06
1.19826e-06
9.45963e-07
1.02058e-06
1.11231e-06
1.05714e-06
1.27618e-06
1.03616e-06
9.77428e-07
1.26659e-06
1.29814e-06
1.37098e-06
1.15006e-06
8.08672e-07
7.54062e-07
7.8639e-07
7.31009e-07
8.46878e-07
1.20621e-06
1.19688e-06
1.22509e-06
1.70593e-06
1.43721e-06
9.31025e-07
8.80761e-07
7.67208e-07
1.02505e-06
1.20207e-06
6.92453e-07
8.26525e-07
6.48884e-07
6.06991e-07
8.94633e-07
6.95227e-07
4.49806e-07
7.21188e-07
7.6671e-07
6.62099e-07
6.95675e-07
6.50861e-07
7.45812e-07
8.21047e-07
5.97021e-07
6.74314e-07
7.5486e-07
6.83928e-07
8.73073e-07
6.95238e-07
6.25992e-07
8.68863e-07
8.68088e-07
9.43526e-07
8.07248e-07
5.32253e-07
5.041e-07
5.45271e-07
4.81713e-07
5.36874e-07
8.36515e-07
8.16894e-07
7.82266e-07
1.17928e-06
1.00177e-06
6.24531e-07
6.3211e-07
4.78075e-07
6.37344e-07
8.21529e-07
4.29476e-07
5.05236e-07
4.0779e-07
3.39929e-07
5.9839e-07
4.68131e-07
2.74046e-07
4.94105e-07
4.9061e-07
4.13436e-07
4.52257e-07
4.02214e-07
5.10823e-07
5.89307e-07
3.76977e-07
4.51564e-07
5.30193e-07
4.49026e-07
6.13836e-07
4.85367e-07
4.02855e-07
6.01558e-07
5.80612e-07
6.58286e-07
5.87911e-07
3.67673e-07
3.53744e-07
3.98208e-07
3.38361e-07
3.45852e-07
5.94274e-07
5.84017e-07
5.00459e-07
8.19276e-07
7.04564e-07
4.2215e-07
4.74643e-07
3.1381e-07
3.84419e-07
5.60953e-07
2.73693e-07
3.14991e-07
2.63275e-07
1.80564e-07
4.01891e-07
3.2002e-07
1.70735e-07
3.55815e-07
3.22696e-07
2.63414e-07
3.07198e-07
2.41662e-07
3.54491e-07
4.47228e-07
2.44482e-07
3.11202e-07
3.92416e-07
3.03375e-07
4.4756e-07
3.60634e-07
2.6687e-07
4.25689e-07
3.95105e-07
4.64002e-07
4.45362e-07
2.70017e-07
2.62659e-07
3.05835e-07
2.57795e-07
2.32762e-07
4.34054e-07
4.48411e-07
3.31021e-07
5.74939e-07
5.09906e-07
2.89946e-07
3.7213e-07
2.29842e-07
2.25854e-07
3.8266e-07
1.83059e-07
2.08066e-07
1.82065e-07
9.22882e-08
2.73881e-07
2.22139e-07
1.05459e-07
2.67517e-07
2.20319e-07
1.73297e-07
2.25454e-07
1.42793e-07
2.44604e-07
3.53797e-07
1.68106e-07
2.2007e-07
3.08669e-07
2.1431e-07
3.34104e-07
2.86394e-07
1.87994e-07
3.0832e-07
2.75853e-07
3.28434e-07
3.44966e-07
2.11583e-07
2.06227e-07
2.43182e-07
2.14729e-07
1.70881e-07
3.2496e-07
3.72419e-07
2.3761e-07
4.17901e-07
3.95614e-07
2.07724e-07
3.00812e-07
1.97147e-07
1.36501e-07
2.63021e-07
1.3023e-07
1.4773e-07
1.37833e-07
4.53093e-08
1.92099e-07
1.60635e-07
6.27247e-08
2.08066e-07
1.56391e-07
1.16403e-07
1.78678e-07
8.88939e-08
1.6832e-07
2.86131e-07
1.28669e-07
1.58395e-07
2.55669e-07
1.61912e-07
2.53865e-07
2.41271e-07
1.43147e-07
2.30729e-07
2.04066e-07
2.35109e-07
2.67362e-07
1.73295e-07
1.70985e-07
1.98451e-07
1.93793e-07
1.40802e-07
2.49834e-07
3.30421e-07
1.92444e-07
3.1648e-07
3.36994e-07
1.63197e-07
2.45857e-07
1.91232e-07
9.5743e-08
1.8753e-07
1.01414e-07
1.12721e-07
1.15894e-07
2.37579e-08
1.42171e-07
1.25881e-07
3.53771e-08
1.65748e-07
1.18313e-07
7.81504e-08
1.48984e-07
6.68072e-08
1.15541e-07
2.28596e-07
1.09862e-07
1.16317e-07
2.16598e-07
1.32882e-07
1.93681e-07
2.09216e-07
1.17967e-07
1.79364e-07
1.63215e-07
1.75077e-07
2.08645e-07
1.47106e-07
1.4786e-07
1.6422e-07
1.86116e-07
1.30558e-07
1.95586e-07
3.05059e-07
1.75231e-07
2.47912e-07
3.08595e-07
1.44226e-07
1.99632e-07
1.90482e-07
8.39243e-08
1.39711e-07
8.63113e-08
9.3088e-08
1.08126e-07
2.01216e-08
1.14178e-07
1.13162e-07
2.17485e-08
1.32666e-07
9.89042e-08
5.12433e-08
1.2443e-07
6.42442e-08
8.2248e-08
1.79616e-07
1.03846e-07
8.83874e-08
1.82153e-07
1.20451e-07
1.50061e-07
1.83397e-07
1.02891e-07
1.42459e-07
1.41411e-07
1.39745e-07
1.6744e-07
1.30398e-07
1.32646e-07
1.39805e-07
1.84691e-07
1.33938e-07
1.53745e-07
2.82191e-07
1.6982e-07
1.95539e-07
2.86686e-07
1.38109e-07
1.59948e-07
1.80863e-07
8.39618e-08
1.09168e-07
7.71113e-08
8.49738e-08
1.10857e-07
2.95611e-08
1.01526e-07
1.15077e-07
1.95358e-08
1.08101e-07
9.37489e-08
3.46704e-08
1.00911e-07
7.2886e-08
6.70993e-08
1.40108e-07
1.07413e-07
7.36071e-08
1.47839e-07
1.17771e-07
1.18853e-07
1.61287e-07
9.6157e-08
1.15127e-07
1.28518e-07
1.15718e-07
1.40942e-07
1.22147e-07
1.21617e-07
1.24125e-07
1.80173e-07
1.4382e-07
1.23479e-07
2.49799e-07
1.66335e-07
1.52188e-07
2.54342e-07
1.32671e-07
1.25962e-07
1.59567e-07
8.59979e-08
9.30286e-08
7.16853e-08
8.73895e-08
1.18427e-07
4.47711e-08
9.69766e-08
1.20571e-07
2.47058e-08
8.98241e-08
9.87009e-08
3.134e-08
8.36813e-08
8.77087e-08
6.67567e-08
1.09629e-07
1.13879e-07
7.01319e-08
1.10977e-07
1.16316e-07
9.6727e-08
1.37287e-07
9.91087e-08
9.74042e-08
1.16833e-07
9.78971e-08
1.21182e-07
1.20761e-07
1.1332e-07
1.13897e-07
1.67777e-07
1.51061e-07
1.05235e-07
2.03258e-07
1.56273e-07
1.19699e-07
2.07632e-07
1.26739e-07
1.03993e-07
1.32402e-07
8.8694e-08
8.92678e-08
7.0023e-08
9.58958e-08
1.19796e-07
5.57259e-08
8.898e-08
1.16427e-07
3.33262e-08
7.36302e-08
1.06886e-07
3.82265e-08
7.2275e-08
1.02382e-07
7.19188e-08
8.89959e-08
1.14356e-07
7.11388e-08
7.79378e-08
1.08175e-07
8.46423e-08
1.06264e-07
1.00442e-07
9.13642e-08
1.04102e-07
8.81027e-08
1.0518e-07
1.1731e-07
1.072e-07
1.03657e-07
1.47818e-07