/*--------------------------------*- C++ -*----------------------------------*\
  =========                 |
  \\      /  F ield         | OpenFOAM: The Open Source CFD Toolbox
   \\    /   O peration     | Website:  https://openfoam.org
    \\  /    A nd           | Version:  10
     \\/     M anipulation  |
\*---------------------------------------------------------------------------*/
FoamFile
{
    format      ascii;
    class       volVectorField;
    location    "12";
    object      U;
}
// * * * * * * * * * * * * * * * * * * * * * * * * * * * * * * * * * * * * * //

dimensions      [0 1 -1 0 0 0 0];

internalField   nonuniform List<vector> 
25600
(
(0.0489259 -0.000306366 -0.0049772)
(0.0498551 0.000178084 -0.0106202)
(0.0446858 9.83395e-05 -0.0132073)
(0.0397601 0.000522278 -0.0075345)
(0.0337548 -0.00011938 3.86423e-05)
(0.0358669 -0.000598526 0.0141296)
(0.0412205 -0.000148035 0.0219938)
(0.0431123 0.000354344 0.0107958)
(0.0397921 0.000831902 -0.0061676)
(0.0431682 0.000250286 -0.0225337)
(0.0412374 -0.000234415 -0.0227407)
(0.0381715 -0.000102676 -0.0020143)
(0.0424024 -0.000364542 0.00344719)
(0.0400991 -6.51913e-05 0.0030002)
(0.0348149 0.000214528 0.0149997)
(0.0387822 0.00011404 0.0135757)
(0.039355 1.64676e-05 0.00455589)
(0.0388289 -4.37128e-05 0.00348086)
(0.0473457 -0.00023235 0.00028464)
(0.0540735 -0.00016693 0.000309445)
(0.0593983 0.000316055 0.00389794)
(0.059606 0.000651557 -0.00405738)
(0.0501728 0.000291537 -0.0118478)
(0.0451924 -4.18895e-05 -0.00943731)
(0.0479077 1.48333e-07 -0.00703389)
(0.0549695 -3.05384e-06 -0.00162844)
(0.0500757 -0.000100626 0.00595293)
(0.0508002 -0.000238095 -0.00662614)
(0.0495705 2.34339e-05 -0.0224103)
(0.0404471 4.65847e-05 -0.00115051)
(0.03815 -0.00028703 0.0154952)
(0.0483798 9.16646e-06 0.00255428)
(0.0465326 -6.94384e-05 -0.0022988)
(0.0475158 -0.000229254 -0.00104199)
(0.0471661 0.00030207 -0.00110039)
(0.0481512 -0.000336122 -0.00356756)
(0.0542457 -0.000835743 -0.0117261)
(0.0449812 0.000950007 -0.00892942)
(0.0294078 0.000945753 -0.00760264)
(0.0367387 -0.000567092 -0.00931526)
(0.137355 -0.000618563 -0.0111301)
(0.149917 0.000949325 -0.0258744)
(0.136211 0.000932506 -0.0243233)
(0.127287 0.00213901 -0.008437)
(0.116838 -0.00135039 0.00813374)
(0.109186 -0.00194221 0.0334679)
(0.116875 0.00105297 0.0355585)
(0.124691 0.00305397 0.00882384)
(0.126652 0.00383112 -0.0203015)
(0.14575 0.000334217 -0.0467104)
(0.131321 -0.00106555 -0.0387974)
(0.117486 -0.000330439 0.00202571)
(0.128506 -0.00109375 0.0124006)
(0.118971 0.000104566 0.014137)
(0.103471 0.000980031 0.0329332)
(0.116454 0.000486809 0.0252018)
(0.122385 0.000543104 0.00738899)
(0.122836 0.000319166 0.0105221)
(0.143685 -0.000849758 0.00498313)
(0.153284 0.000242406 0.000149673)
(0.160831 0.00268765 0.00454174)
(0.177089 0.00321701 -0.0150812)
(0.168338 0.00129119 -0.0316443)
(0.14766 -0.00014236 -0.0220023)
(0.145679 -6.37029e-05 -0.016359)
(0.172297 -0.000278029 -0.00153672)
(0.161681 -0.000798773 0.0132113)
(0.152411 -0.000673754 -0.020584)
(0.150183 0.000430491 -0.0466746)
(0.139868 -0.000904579 0.00286615)
(0.123585 -0.00157068 0.0273821)
(0.145934 7.81974e-05 0.00182947)
(0.144426 -0.000966718 -0.000460897)
(0.141223 -0.00102151 0.000412825)
(0.146967 0.00117047 -0.00497356)
(0.155126 -0.00192348 -0.0116057)
(0.151413 -0.00150192 -0.0261594)
(0.12707 0.0067452 -0.0197702)
(0.117366 0.00349953 -0.0233429)
(0.125036 -0.00331562 -0.0206689)
(0.21796 -0.000587747 -0.0113485)
(0.25648 0.00219123 -0.0334823)
(0.24249 0.00219487 -0.0318516)
(0.239322 0.00401874 -0.00873512)
(0.223094 -0.00287019 0.0126543)
(0.184929 -0.0033588 0.0416193)
(0.189759 0.00325091 0.0395369)
(0.208994 0.00700858 0.00542606)
(0.22494 0.0074948 -0.0289141)
(0.267957 0.000228006 -0.0612446)
(0.241162 -0.00198297 -0.0510489)
(0.20401 -0.000412486 0.000366215)
(0.21799 -0.00126737 0.018767)
(0.2081 0.000690073 0.0233588)
(0.176542 0.00155261 0.0426845)
(0.189834 0.00051095 0.0341551)
(0.202382 0.00141039 0.00966158)
(0.20544 0.00160135 0.0160605)
(0.232346 -0.000940237 0.015388)
(0.241183 0.00130072 0.002549)
(0.24844 0.00619255 0.00570878)
(0.296866 0.00639078 -0.0178687)
(0.311554 0.00266582 -0.043936)
(0.273133 0.000406168 -0.0340422)
(0.243495 0.000103194 -0.0282476)
(0.292015 -0.000872186 -0.00620123)
(0.294846 -0.00187297 0.0230064)
(0.258012 -0.00126207 -0.0211204)
(0.264373 0.000781148 -0.0656143)
(0.27945 -0.00285339 -0.00729849)
(0.220079 -0.00324157 0.0304431)
(0.246346 0.00030999 0.00250877)
(0.259555 -0.00249974 0.00409694)
(0.238998 -0.00245271 0.00825542)
(0.253427 0.00187923 -0.00268459)
(0.271541 -0.00399515 -0.0132467)
(0.245188 -0.00113438 -0.0325235)
(0.215229 0.0152161 -0.0291463)
(0.238184 0.00693254 -0.0382105)
(0.225274 -0.0065017 -0.0301962)
(0.292484 -0.0011407 -0.00777644)
(0.353483 0.00316426 -0.0310401)
(0.356406 0.00368713 -0.0393378)
(0.391092 0.00554333 -0.0128269)
(0.379939 -0.00429317 0.0148201)
(0.277029 -0.00525614 0.0479209)
(0.261275 0.00508216 0.0432881)
(0.295266 0.0113955 0.00274938)
(0.336823 0.0111378 -0.0379976)
(0.412949 0.000264189 -0.0778833)
(0.385949 -0.00238805 -0.0689906)
(0.311624 -0.00101094 -0.0106306)
(0.310652 -0.00118805 0.0183794)
(0.313195 0.00236621 0.0304472)
(0.264244 0.00231883 0.0488704)
(0.260212 -0.000647376 0.0424467)
(0.269571 0.000950759 0.011827)
(0.280889 0.00290554 0.0176246)
(0.309025 1.16136e-05 0.0299546)
(0.314168 0.00277311 0.0121655)
(0.315897 0.00976089 0.0110933)
(0.394897 0.00950594 -0.00924837)
(0.45563 0.0042211 -0.0431936)
(0.42857 0.00208792 -0.0396444)
(0.353132 0.00107009 -0.043154)
(0.394957 -0.00165521 -0.0250231)
(0.446628 -0.00283922 0.0332954)
(0.368603 -0.00187557 -0.0036544)
(0.374358 0.000830688 -0.0782078)
(0.470072 -0.00470802 -0.034486)
(0.352072 -0.0052255 0.0228062)
(0.347595 0.000430523 0.00200529)
(0.396223 -0.00406228 0.00318076)
(0.350663 -0.0043073 0.0195535)
(0.364065 0.00156324 0.0132258)
(0.397919 -0.0071412 -0.00221599)
(0.331237 -0.00100174 -0.0303173)
(0.302007 0.0250029 -0.0347272)
(0.393618 0.0122963 -0.0495056)
(0.361176 -0.00852122 -0.0436091)
(0.385217 -0.000122375 -0.00634411)
(0.413766 0.00285947 -0.0103211)
(0.426958 0.00372101 -0.0347382)
(0.567508 0.00553656 -0.0219309)
(0.62311 -0.00539717 0.00467512)
(0.42777 -0.00753797 0.0553037)
(0.343096 0.00510971 0.0554697)
(0.377751 0.0150067 0.00553981)
(0.465074 0.013202 -0.0442809)
(0.586235 -0.000603963 -0.0977118)
(0.576573 -0.00179395 -0.0956423)
(0.477886 -0.00252739 -0.0305198)
(0.414136 -0.00256764 0.00734844)
(0.433753 0.00454085 0.0335934)
(0.386405 0.00445675 0.0554594)
(0.354993 -0.00290486 0.0501831)
(0.330509 -0.0028009 0.0126128)
(0.346924 0.00189027 0.0120036)
(0.378052 0.00109949 0.0424042)
(0.374717 0.00495305 0.0289057)
(0.366045 0.0130382 0.0213452)
(0.448199 0.0114493 0.00874061)
(0.537076 0.00445266 -0.029328)
(0.57871 0.00385291 -0.0249203)
(0.498696 0.0036206 -0.0446848)
(0.475457 -0.00241673 -0.0628241)
(0.590261 -0.00360548 0.0293846)
(0.498843 -0.00136547 0.0256392)
(0.438213 0.00107518 -0.0720492)
(0.667686 -0.00515977 -0.0642948)
(0.560762 -0.00620471 0.000299898)
(0.462142 -0.000365954 -0.00228098)
(0.538968 -0.00591781 -0.00718393)
(0.48697 -0.00506193 0.0187585)
(0.486674 0.000274697 0.0372307)
(0.550824 -0.0129273 0.0242471)
(0.408533 -0.00288089 -0.0200228)
(0.36461 0.0335072 -0.031457)
(0.551313 0.0187905 -0.040213)
(0.551017 -0.00706168 -0.0481993)
(0.524699 0.00539918 -0.00269624)
(0.460598 0.00503818 0.0248782)
(0.383979 0.000446041 0.00964295)
(0.633318 -0.00432622 -0.0091224)
(0.884805 -0.0100719 -0.0338804)
(0.680643 -0.00952464 0.0342318)
(0.474753 0.00265298 0.0757055)
(0.436912 0.0162653 0.0283665)
(0.565603 0.0110194 -0.0148798)
(0.745422 -0.00648995 -0.0816469)
(0.784834 -0.00151702 -0.119169)
(0.730885 -0.00360398 -0.0515349)
(0.564592 -0.00656855 -0.0109889)
(0.56116 0.00369333 0.0249382)
(0.54809 0.00732952 0.0613262)
(0.517718 -0.00371085 0.0625144)
(0.424947 -0.00966868 0.0200433)
(0.410535 -0.0033852 -0.00170117)
(0.451713 0.000135777 0.0429335)
(0.434323 0.00744692 0.0459902)
(0.412473 0.0171567 0.0360535)
(0.486803 0.0146071 0.0337582)
(0.538315 0.00220407 -0.0213893)
(0.626839 0.000722687 0.000648075)
(0.655017 0.00564333 -0.00296214)
(0.567976 -0.00245383 -0.0946282)
(0.687441 -0.00532896 -0.00233899)
(0.660881 0.000575646 0.0505142)
(0.463585 0.00278435 -0.0527796)
(0.741721 -0.005931 -0.0692174)
(0.799974 -0.00542382 -0.0182389)
(0.63848 0.000221119 -0.0120671)
(0.674616 -0.00901234 -0.0188029)
(0.616861 -0.00511473 0.00105866)
(0.611901 0.000122599 0.0463827)
(0.744862 -0.0188368 0.051586)
(0.508512 -0.00657546 -0.00815737)
(0.381011 0.038895 -0.0222118)
(0.613005 0.0218592 0.0245433)
(0.719855 -0.00528264 -0.00539336)
(0.641666 0.0103915 0.0280576)
(0.575893 0.0102758 0.0435968)
(0.370897 0.00117444 0.0550669)
(0.519036 -0.0225188 0.0569778)
(0.900851 -0.0271184 -0.0577788)
(0.922024 -0.0126244 -0.0498445)
(0.710741 -0.00121973 0.059288)
(0.509464 0.0172315 0.0576278)
(0.581736 0.00736316 0.0458065)
(0.744562 -0.0214651 0.00246004)
(0.851344 -0.0125232 -0.101247)
(0.964528 -0.0073319 -0.0582016)
(0.774875 -0.010426 -0.0192651)
(0.684823 -0.0032443 0.00142249)
(0.69493 0.00519207 0.0536191)
(0.731089 -0.000594042 0.0747762)
(0.60796 -0.0130419 0.0461542)
(0.496409 -0.0123706 -0.0106412)
(0.529479 -0.00389703 0.0279916)
(0.502207 0.00993215 0.0537364)
(0.446918 0.0214799 0.0474858)
(0.511999 0.0203197 0.0697051)
(0.561449 0.00496988 -0.0144058)
(0.565733 -0.00678664 -0.0170571)
(0.728554 -0.000628989 0.0660739)
(0.688522 -0.00272687 -0.0697985)
(0.719924 -0.00796192 -0.045478)
(0.823551 -0.000425292 0.0616241)
(0.546865 0.00941529 -0.0361282)
(0.662233 -0.00551773 -0.0508788)
(0.866846 -0.00943533 0.00128216)
(0.831942 0.00218433 -0.00635413)
(0.837803 -0.00800672 -0.0261733)
(0.720917 -0.00470363 -0.0145447)
(0.67249 -0.000354693 0.0384524)
(0.899304 -0.0183507 0.0481967)
(0.654408 -0.00950725 0.003421)
(0.389097 0.0387635 0.00181478)
(0.623536 0.0199629 0.118596)
(0.752152 -0.00706155 0.0801574)
(0.694713 0.010831 0.0587353)
(0.748851 0.00935141 0.0494243)
(0.516498 0.00723247 0.0391493)
(0.496758 -0.0217658 0.103476)
(0.740969 -0.0451516 0.00325212)
(0.943522 -0.0219304 -0.107097)
(0.964082 -0.00564201 -0.00720434)
(0.664571 0.0184936 0.0584016)
(0.625493 0.0111526 0.0781196)
(0.703476 -0.02908 0.0712166)
(0.746864 -0.0338509 -0.0633933)
(0.992487 -0.0228793 -0.0556845)
(0.921677 -0.0141381 -0.0104177)
(0.784261 -0.0094943 -0.0236266)
(0.734387 -0.0083561 0.0170548)
(0.849782 -0.00288523 0.0560033)
(0.83352 -0.00758699 0.0682492)
(0.655398 -0.016677 -0.00164334)
(0.608263 -0.0123833 0.004604)
(0.583522 0.0102083 0.0516151)
(0.507352 0.0278782 0.046597)
(0.508864 0.0214894 0.0943943)
(0.604085 0.00899051 0.0196721)
(0.551984 -0.00290904 -0.0521373)
(0.69886 -0.0147114 0.0827786)
(0.783215 -0.00832467 -0.00803329)
(0.712189 -0.00783869 -0.0633866)
(0.910451 -0.00931092 0.0648304)
(0.682409 0.0155953 -0.0139026)
(0.643081 0.00356453 -0.0529352)
(0.771076 -0.0141264 0.0207227)
(0.866361 -0.00441185 0.0294652)
(0.953781 -0.00585134 -0.017433)
(0.849435 0.00233177 -0.0222398)
(0.70602 -0.0027659 0.0331122)
(0.908164 -0.0151741 0.0200074)
(0.824218 -0.000883265 -0.0150592)
(0.434832 0.0295625 0.0420112)
(0.657235 0.00688282 0.136319)
(0.757056 -0.00992897 0.111646)
(0.722141 0.0108316 0.0522362)
(0.915316 -0.00130794 0.045198)
(0.716657 0.0105054 0.00446381)
(0.595128 -0.0042307 0.0729377)
(0.741344 -0.0452334 0.0644865)
(0.864503 -0.0407773 -0.075403)
(1.0829 -0.0175418 -0.0410457)
(0.849373 0.0174777 0.0321953)
(0.738992 0.0187266 0.075996)
(0.809952 -0.0207388 0.114398)
(0.742208 -0.0410297 -0.0100768)
(0.953363 -0.0378322 -0.0454617)
(0.985496 -0.0184326 0.0102641)
(0.872766 -0.00544706 -0.027664)
(0.744646 -0.0157151 -0.0280007)
(0.806732 -0.0172909 -0.00928487)
(0.947287 -0.00546413 0.0452209)
(0.865661 -0.0090071 0.00580603)
(0.722233 -0.0136339 -0.0144215)
(0.640602 0.00568415 0.0470356)
(0.572252 0.0361447 0.0340518)
(0.549603 0.0296722 0.0925098)
(0.620027 0.00566129 0.0537006)
(0.625714 0.00665965 -0.0474551)
(0.689538 -0.0173907 0.0504747)
(0.821714 -0.0153107 0.0285933)
(0.72162 -0.000442077 -0.0648939)
(0.910968 -0.0150859 0.0587203)
(0.798053 0.0134611 0.030068)
(0.713867 0.0136477 -0.0608817)
(0.740011 -0.0115599 -0.00430901)
(0.85348 -0.016517 0.0444637)
(0.958056 -0.0109265 0.00687964)
(0.932529 0.00965611 -0.0263396)
(0.84208 -0.0018238 0.0251683)
(0.871952 -0.0124439 0.0051649)
(0.924871 0.0148013 -0.0447855)
(0.629179 0.0219574 0.0131492)
(0.692061 -0.0119836 0.0726426)
(0.784634 -0.011007 0.084116)
(0.744159 0.0112487 0.00810813)
(0.986134 -0.0129364 0.0218395)
(0.902411 0.00790222 -0.0119544)
(0.686521 0.0123984 0.0172981)
(0.81004 -0.0282667 0.0518584)
(0.859975 -0.0455737 -0.0458418)
(1.04787 -0.0315041 -0.0282776)
(0.960023 0.00826787 0.0100644)
(0.8638 0.0174686 0.0374215)
(0.96186 -0.012292 0.118777)
(0.830448 -0.0321251 0.0496347)
(0.950942 -0.0356664 -0.0247774)
(1.03091 -0.0196095 0.0324894)
(0.961251 0.00298784 0.00213875)
(0.858027 -0.00322325 -0.0318583)
(0.790133 -0.0213507 -0.0562356)
(0.912385 -0.0154576 -0.00386261)
(1.01331 -0.00480343 0.00708322)
(0.872884 -0.000967453 -0.037741)
(0.727262 0.00682513 0.0408946)
(0.609689 0.0389403 0.0336118)
(0.585535 0.0391445 0.0549707)
(0.63977 0.00460801 0.0666704)
(0.683831 0.00533098 -0.0393938)
(0.73864 -0.0114118 0.00908964)
(0.834603 -0.0178372 0.0416747)
(0.762355 0.00416959 -0.0684018)
(0.904004 -0.00991854 0.029756)
(0.885774 0.0102728 0.0687696)
(0.823351 0.0168618 -0.0306857)
(0.786007 -0.00589259 -0.0153982)
(0.892651 -0.0237212 0.0277904)
(0.962792 -0.0168754 0.0311271)
(0.933089 0.00955027 -0.0156862)
(0.99831 -0.00253319 0.00222095)
(0.916782 -0.0123893 0.0208007)
(0.947639 0.023405 -0.0318029)
(0.812554 0.0273493 -0.0488721)
(0.772919 -0.0182049 -0.0184828)
(0.843331 -0.0128888 0.0305073)
(0.814472 0.0085709 -0.0264683)
(0.971726 -0.0219982 -0.00922256)
(1.02017 0.00378327 -0.0335373)
(0.80341 0.0243424 -0.00997398)
(0.846581 -0.0161931 0.0418176)
(0.901553 -0.0372102 -0.0478961)
(1.01122 -0.0293099 -0.0420157)
(0.98632 0.000159415 0.00572159)
(0.912268 0.00386833 0.00148568)
(1.04323 -0.0151589 0.064902)
(0.915841 -0.0241472 0.0557912)
(0.93351 -0.0269779 -0.0232851)
(1.06554 -0.0153132 0.0194606)
(1.02603 0.00878144 0.0195882)
(0.945942 0.0117105 -0.00759059)
(0.888066 -0.00497876 -0.0417873)
(0.880404 -0.0183991 -0.0426161)
(1.02153 -0.0127561 0.000764419)
(0.988119 0.0105578 -0.0311394)
(0.822574 0.01954 0.00553304)
(0.724494 0.0372916 0.0315634)
(0.722288 0.0346916 0.0249924)
(0.77284 -0.00195107 0.0487098)
(0.811983 -0.0081917 -0.0231968)
(0.81755 -0.0167019 -0.0337803)
(0.867424 -0.016054 0.026243)
(0.815621 0.00497462 -0.0668413)
(0.893949 -0.00653872 -0.0161757)
(0.930248 0.00854528 0.0624448)
(0.93268 0.015677 -0.00637105)
(0.85941 -0.00393114 0.000160373)
(0.933068 -0.0262175 0.0130618)
(1.01162 -0.0177317 0.0269437)
(0.921678 0.00543964 0.0103187)
(1.06011 -0.00803028 -0.0134913)
(1.01866 -0.0159529 0.017376)
(0.962918 0.0235709 0.00488289)
(0.901227 0.0347944 -0.0590049)
(0.85175 -0.0152794 -0.0747206)
(0.921289 -0.0142875 -0.0207025)
(0.929735 0.00366453 -0.0305021)
(0.980481 -0.0285138 -0.0172158)
(1.05543 -0.00267687 -0.0441073)
(0.939377 0.028571 -0.0440404)
(0.93655 -0.00542167 0.0295393)
(0.930798 -0.0299588 -0.019552)
(0.997853 -0.0281269 -0.0668969)
(1.04155 -0.00135854 -0.0143442)
(0.982072 -0.00559131 -0.00225298)
(1.067 -0.0209623 0.0274943)
(0.988703 -0.0181442 0.0317251)
(0.915182 -0.020131 -0.0405849)
(1.03519 -0.0148172 -0.0182159)
(1.07484 0.00835164 0.00316095)
(0.980035 0.0183703 -0.00409306)
(0.932666 0.0078835 -0.0100877)
(0.904961 -0.0113255 -0.0336463)
(0.977234 -0.0204127 -0.0170054)
(1.02853 0.00536864 -0.0206)
(0.900235 0.0310591 -0.00694476)
(0.804098 0.0449358 0.0114708)
(0.867301 0.0295869 -0.0131731)
(0.942307 -0.00642949 0.012702)
(0.996953 -0.0165423 -0.000974519)
(0.984725 -0.0265304 -0.0251981)
(0.95128 -0.0152978 0.00815796)
(0.888045 0.00641376 -0.0636927)
(0.918191 -0.00666776 -0.0565718)
(0.949527 0.00664654 0.0259009)
(0.99874 0.0164927 -0.0142237)
(0.946853 -0.00122375 -0.0055691)
(0.952488 -0.0281152 0.00993476)
(1.04417 -0.0184187 0.00652069)
(0.968629 0.00324327 0.0119737)
(1.04502 -0.0123962 -0.00776502)
(1.08371 -0.0181337 0.000176167)
(1.00199 0.0206304 0.00731552)
(0.937817 0.0356268 -0.0308065)
(0.901347 -0.014485 -0.0603779)
(0.963954 -0.0184348 -0.0358861)
(0.994927 0.00233077 -0.0270961)
(1.02257 -0.0260485 -0.0181788)
(1.04545 -0.00636916 -0.036675)
(1.02036 0.0221588 -0.0571574)
(1.02129 -0.000604547 -0.00216944)
(0.974109 -0.0161394 -0.00258993)
(0.988674 -0.0261065 -0.0558663)
(1.05558 -0.00475895 -0.03735)
(1.06089 -0.00798369 -0.0129142)
(1.10097 -0.0204162 0.00829335)
(1.05646 -0.0096143 0.0214881)
(0.963961 -0.015561 -0.0280613)
(1.00121 -0.0174028 -0.0377493)
(1.07256 0.00303948 -0.0181283)
(1.01887 0.0163269 -0.012931)
(0.960879 0.0125978 0.00159603)
(0.940214 -0.00517348 -0.00627597)
(0.968477 -0.0239858 -0.00558515)
(1.01289 -0.00476039 -0.0132958)
(0.947603 0.0320014 -0.00605086)
(0.876466 0.0476305 0.00986583)
(0.922332 0.0254216 -0.0208905)
(0.971052 -0.00958768 -0.012033)
(1.02363 -0.0183445 -0.00280945)
(1.0597 -0.0299968 -0.00424285)
(1.03353 -0.0121814 0.0171853)
(0.965317 0.00731856 -0.0404588)
(0.967876 -0.0102137 -0.0571169)
(0.973684 0.00376221 -0.00292509)
(1.02027 0.0153087 -0.0241226)
(1.01883 0.00185007 -0.0166243)
(1.00515 -0.0231314 0.00618582)
(1.05204 -0.0195673 0.00166486)
(1.0151 0.000696223 0.00291002)
(1.0314 -0.0136817 -0.00396385)
(1.08154 -0.0147041 -0.002962)
(1.03733 0.0189088 -0.00196028)
(0.987446 0.0342054 -0.0197718)
(0.969165 -0.0103551 -0.0375367)
(0.974809 -0.0198012 -0.031174)
(1.01516 0.00262864 -0.0219987)
(1.04506 -0.019936 -0.0161397)
(1.03639 -0.00533774 -0.0296354)
(1.038 0.0149194 -0.0504351)
(1.03915 -0.00368805 -0.0131858)
(0.99592 -0.00834179 0.003211)
(1.00633 -0.0198019 -0.0273224)
(1.0563 -0.00793048 -0.0324248)
(1.08842 -0.00861909 -0.0179781)
(1.10037 -0.0188006 0.000315982)
(1.06264 -0.00747062 0.0187651)
(1.00784 -0.0130497 -0.00665962)
(1.00364 -0.0182592 -0.0332359)
(1.04606 -0.00213406 -0.0282087)
(1.03247 0.00973593 -0.0152157)
(0.99947 0.00801349 0.00207582)
(0.987352 -0.00300949 -0.00254766)
(0.995746 -0.0215788 0.00470567)
(1.01508 -0.0129229 -0.00366952)
(0.978081 0.0230743 -0.00526441)
(0.936692 0.0456895 0.013635)
(0.967104 0.0301254 -0.00562548)
(0.999267 -0.00180701 5.06834e-05)
(1.02223 -0.0150176 0.00293884)
(1.04322 -0.0286815 0.00194877)
(1.03358 -0.00889954 0.0253111)
(1.00001 0.0103362 -0.0205914)
(1.00461 -0.00928685 -0.0422362)
(1.00271 0.00266848 -0.00907818)
(1.03294 0.0111899 -0.021851)
(1.04629 -0.000733285 -0.0113213)
(1.04274 -0.018625 0.005897)
(1.05607 -0.0166479 -0.0010762)
(1.02731 -0.00230917 -0.00274412)
(1.02199 -0.0167006 -0.00574129)
(1.05265 -0.0107085 -0.000772562)
(1.04148 0.0197273 0.000937522)
(1.02158 0.0303274 -0.0141752)
(1.02612 -0.00812839 -0.0284595)
(1.00397 -0.0188084 -0.0253132)
(1.02236 0.00180779 -0.0155801)
(1.04488 -0.013557 -0.00821246)
(1.02969 -0.00451524 -0.0181293)
(1.03441 0.00918029 -0.0360393)
(1.03156 -0.0061109 -0.0139341)
(1.00119 -0.00634934 0.00366903)
(1.02678 -0.0159152 -0.00764955)
(1.06433 -0.0106934 -0.0141225)
(1.08376 -0.00954019 -0.0107734)
(1.07737 -0.014134 -0.000417367)
(1.04198 -0.00424718 0.0185431)
(1.01548 -0.010339 0.00591096)
(1.01122 -0.0160714 -0.0212747)
(1.03292 -0.00257707 -0.0296337)
(1.03076 0.00689822 -0.0173176)
(1.01982 0.0023483 0.00216318)
(1.01958 -0.0066325 -0.00345826)
(1.01653 -0.0215378 0.00419382)
(1.02789 -0.0163559 -0.00268615)
(1.00966 0.0142879 -0.00672443)
(0.982559 0.0389813 0.0145345)
(1.00432 0.0296964 0.0061899)
(1.02982 0.00411326 0.014129)
(1.04473 -0.0091922 0.0102309)
(1.05291 -0.0239986 0.0017453)
(1.03425 -0.00777796 0.0253406)
(1.01696 0.0108577 -0.00828012)
(1.03026 -0.00818918 -0.0300929)
(1.02648 0.000988498 -0.00809787)
(1.04324 0.0083734 -0.0180503)
(1.05051 -0.000918077 -0.00485426)
(1.04597 -0.0129934 0.0081385)
(1.05277 -0.012308 -0.00378858)
(1.02995 -0.00518647 -0.00626832)
(1.0188 -0.0188188 -0.00761865)
(1.03063 -0.00934151 0.00318766)
(1.03467 0.0184298 0.0105208)
(1.04143 0.0277909 -0.00374089)
(1.0494 -0.00608868 -0.0154071)
(1.02335 -0.0190495 -0.0171129)
(1.02355 -0.00129246 -0.0137604)
(1.03964 -0.00800904 -0.00358707)
(1.03094 -0.00366879 -0.00664172)
(1.03752 0.00385668 -0.0212862)
(1.03328 -0.00848367 -0.00980629)
(1.01683 -0.00747218 0.00308407)
(1.04463 -0.0166955 -0.00149285)
(1.06314 -0.0128102 -0.00586656)
(1.06276 -0.0089395 -0.00576816)
(1.05224 -0.0104013 0.000564814)
(1.03247 -0.00166329 0.0148611)
(1.02471 -0.00978395 0.00721096)
(1.02151 -0.0150986 -0.0117345)
(1.03138 -0.00335377 -0.0249392)
(1.03388 0.00434311 -0.0192591)
(1.03244 0.00157771 0.000454475)
(1.03768 -0.00610198 -0.00231324)
(1.02982 -0.0213453 0.00322006)
(1.03371 -0.0192201 -0.00525934)
(1.026 0.00807019 -0.010591)
(1.01078 0.0325874 0.00985921)
(1.03365 0.0269939 0.00930034)
(1.05073 0.00605626 0.0177324)
(1.05476 -0.00757223 0.0107027)
(1.05932 -0.0217456 -0.00191293)
(1.03742 -0.00791122 0.0174328)
(1.02643 0.0101192 -0.00238026)
(1.04321 -0.00640435 -0.0203586)
(1.03867 -0.000633139 -0.00854912)
(1.04795 0.00547253 -0.0179031)
(1.04646 -0.000113439 -0.00371061)
(1.03523 -0.00884122 0.00795924)
(1.04617 -0.0110214 -0.00444206)
(1.04031 -0.00789307 -0.0063983)
(1.0303 -0.0189712 -0.00877457)
(1.02799 -0.0104046 0.00293682)
(1.03088 0.0126272 0.0132294)
(1.04488 0.023163 0.00205911)
(1.05511 -0.00416666 -0.00333878)
(1.03228 -0.0202707 -0.0087884)
(1.02472 -0.00486472 -0.0113976)
(1.03927 -0.00606383 -0.000429984)
(1.03721 -0.00459395 -0.00013426)
(1.04368 -0.000271454 -0.0114299)
(1.03707 -0.00856291 -0.00206272)
(1.02943 -0.00768872 0.00420389)
(1.05131 -0.0173654 -0.00232175)
(1.05069 -0.0132497 -0.0054018)
(1.04408 -0.00704434 -0.00303466)
(1.03917 -0.0068325 0.00354992)
(1.03011 -0.000779947 0.0118106)
(1.03398 -0.011313 0.0041626)
(1.0313 -0.0143657 -0.00689175)
(1.03469 -0.00425006 -0.0177209)
(1.04049 0.000969202 -0.0172865)
(1.04052 0.00329071 -0.00145998)
(1.0487 -0.0041783 -0.0048716)
(1.0427 -0.0208492 -0.0021081)
(1.03423 -0.0194648 -0.00796796)
(1.02652 0.00448307 -0.0127383)
(1.02245 0.0250325 0.00291203)
(1.04913 0.0202259 0.00126178)
(1.06313 0.00577191 0.00671025)
(1.05832 -0.00458587 0.00411473)
(1.05854 -0.0185746 -0.00535804)
(1.03848 -0.00937829 0.00842677)
(1.03197 0.0068784 -0.00306996)
(1.04404 -0.00522645 -0.0152112)
(1.04074 -0.00306769 -0.00806648)
(1.04664 0.000816716 -0.0166341)
(1.04095 0.000296756 -0.00565141)
(1.03143 -0.00577046 0.00662173)
(1.04222 -0.0131609 -0.00147153)
(1.04499 -0.0114913 -0.00563051)
(1.03533 -0.0154991 -0.0105851)
(1.0293 -0.0082312 -9.29185e-05)
(1.02745 0.00647419 0.0115207)
(1.03777 0.0155047 0.00196722)
(1.05514 -0.00370992 0.000353727)
(1.03797 -0.0196154 -0.00310876)
(1.02741 -0.00467776 -0.00669432)
(1.04063 -0.00473385 0.00376263)
(1.03892 -0.00450779 0.00235615)
(1.04437 -0.000891288 -0.00682027)
(1.03948 -0.00610468 0.00210628)
(1.03559 -0.00617352 0.00247927)
(1.04818 -0.0149262 -0.00482576)
(1.03938 -0.010112 -0.00465598)
(1.03697 -0.00410341 3.50929e-05)
(1.0365 -0.00368501 0.00651254)
(1.03356 -0.000201696 0.010511)
(1.04096 -0.0105155 0.0025092)
(1.03413 -0.011012 -0.00252501)
(1.03551 -0.00424958 -0.00931894)
(1.04125 -0.00205023 -0.0123344)
(1.03994 0.00325599 -0.00121952)
(1.05145 -0.00356883 -0.00779407)
(1.04686 -0.0176362 -0.00696598)
(1.03233 -0.0150441 -0.00586457)
(1.02505 0.00162642 -0.00831927)
(1.02523 0.0164246 -0.0016918)
(1.04959 0.013415 -0.00898874)
(1.05941 0.00320661 -0.00466384)
(1.05194 -0.00323023 -0.0001441)
(1.05299 -0.0147797 -0.00518531)
(1.03754 -0.0100329 0.00435614)
(1.03267 0.00287327 -0.00289084)
(1.03968 -0.00481429 -0.0116864)
(1.0376 -0.0038653 -0.00626985)
(1.04386 -0.00227046 -0.0123988)
(1.03914 -0.00130393 -0.0057368)
(1.03257 -0.00464184 0.00439651)
(1.04046 -0.0118253 -0.0016082)
(1.04311 -0.0106924 -0.00562544)
(1.03322 -0.0104855 -0.00974169)
(1.02985 -0.00462572 -0.00172823)
(1.02872 0.00244155 0.00937805)
(1.03454 0.00897595 -0.000124541)
(1.05363 -0.00341467 -0.000672658)
(1.04038 -0.0159345 -0.000310817)
(1.0313 -0.00267312 -0.00289994)
(1.04165 -0.00274684 0.00504382)
(1.03763 -0.00255903 0.00210684)
(1.0422 -0.000241182 -0.00468794)
(1.04107 -0.00414464 0.00271373)
(1.03666 -0.00323656 0.000556226)
(1.04379 -0.00986071 -0.00435625)
(1.03576 -0.00650822 -0.00234003)
(1.03592 -0.0026579 0.00209274)
(1.03666 -0.00251249 0.00736676)
(1.03498 0.000377397 0.00883079)
(1.04204 -0.00762102 0.00172504)
(1.03457 -0.00662751 0.000576723)
(1.03515 -0.00282464 -0.00351527)
(1.03914 -0.0022859 -0.00826203)
(1.03691 0.00286703 -0.000710309)
(1.04655 -0.00266006 -0.00857681)
(1.04289 -0.0124517 -0.00766733)
(1.03366 -0.0101238 -0.00267034)
(1.02912 -0.000757818 -0.00519329)
(1.02504 0.0106803 -0.0040076)
(1.04216 0.0105352 -0.0124526)
(1.04931 0.00258969 -0.00702648)
(1.04272 -0.00074818 0.00200365)
(1.04718 -0.00963423 -0.00140719)
(1.03697 -0.00810359 0.00447663)
(1.03287 0.00109549 -0.000733331)
(1.0368 -0.00386655 -0.00810032)
(1.03417 -0.00230792 -0.00362014)
(1.04278 -0.00301525 -0.00784369)
(1.03976 -0.00223216 -0.00440047)
(1.03214 -0.00315804 0.0026719)
(1.03658 -0.00773938 -0.00186062)
(1.0381 -0.00662126 -0.00270997)
(1.0324 -0.00568868 -0.00531053)
(1.0331 -0.00156143 -0.00137441)
(1.0323 0.00047412 0.00764235)
(1.03266 0.0072649 -0.000704871)
(1.04954 -0.000383038 -0.000310567)
(1.04172 -0.0113478 0.0020875)
(1.03398 -0.000678621 -0.00141523)
(1.04196 -0.00145788 0.00411747)
(1.03723 -0.00110894 0.00152718)
(1.04079 0.000551226 -0.00401267)
(1.04147 -0.00263162 0.00195184)
(1.03661 -0.00060402 0.000524449)
(1.04303 -0.00610806 -0.00191876)
(1.03628 -0.00473351 -0.0010279)
(1.03566 -0.0022417 0.00166343)
(1.03678 -0.00204461 0.00622491)
(1.0347 0.00154827 0.00746618)
(1.04172 -0.00509471 0.00197413)
(1.03525 -0.0040333 0.00144237)
(1.03523 -0.00112884 -0.000836589)
(1.03901 -0.00185283 -0.0055755)
(1.03598 0.00269877 -0.000157342)
(1.04309 -0.000703547 -0.0065473)
(1.04049 -0.00775539 -0.0059935)
(1.03558 -0.00673609 -0.00178528)
(1.03322 -0.00197182 -0.00437037)
(1.02653 0.00789841 -0.00319702)
(1.0386 0.00982948 -0.00951809)
(1.0445 0.0026818 -0.0043482)
(1.03915 0.0013584 0.00466726)
(1.04506 -0.0055079 0.00139872)
(1.03847 -0.00679442 0.00516135)
(1.03436 -0.000398452 0.000906394)
(1.03693 -0.00315591 -0.00566551)
(1.03367 -0.000290954 -0.00179178)
(1.04212 -0.00220632 -0.0049499)
(1.0406 -0.00271683 -0.00282977)
(1.03319 -0.00229885 0.00210407)
(1.03705 -0.00397725 -0.00144153)
(1.03686 -0.00280798 -0.000477252)
(1.03332 -0.00307539 -0.00238595)
(1.03621 0.000381479 -0.00134292)
(1.0355 -3.76082e-05 0.00608857)
(1.03324 0.00692139 -0.000499144)
(1.04606 0.00199107 -0.000151249)
(1.04201 -0.00782342 0.00325427)
(1.03533 0.000743594 -0.00122635)
(1.04206 -0.000556416 0.00300153)
(1.03742 -0.000471866 0.00138881)
(1.04022 0.000769932 -0.00305104)
(1.04155 -0.0023578 0.00168477)
(1.03657 0.000288052 0.000232609)
(1.04284 -0.00438481 -0.000998843)
(1.03702 -0.00370246 -0.000333221)
(1.03579 -0.00167802 0.00108435)
(1.03729 -0.00209984 0.00478314)
(1.03464 0.00197318 0.00586883)
(1.04124 -0.00383297 0.00163781)
(1.03565 -0.00246607 0.00127356)
(1.03536 0.000249306 0.000287355)
(1.03986 -0.00136686 -0.00363139)
(1.03657 0.00267493 0.000677337)
(1.04196 9.57412e-05 -0.00439742)
(1.03976 -0.00512492 -0.00438476)
(1.0364 -0.0040642 -0.00123495)
(1.03565 -0.00199475 -0.00395541)
(1.02897 0.00578322 -0.00204506)
(1.03846 0.00867538 -0.00622318)
(1.04363 0.00243503 -0.0022717)
(1.03847 0.0022156 0.00544421)
(1.0444 -0.00290882 0.0023894)
(1.04012 -0.00579146 0.00489121)
(1.03577 -0.000918278 0.00164142)
(1.03768 -0.00244822 -0.00412731)
(1.0343 0.000679766 -0.000824615)
(1.04193 -0.00129429 -0.00319258)
(1.04129 -0.00275533 -0.00196944)
(1.03388 -0.00192876 0.00128416)
(1.03779 -0.00236038 -0.0015318)
(1.03728 -0.000804991 0.000532824)
(1.03419 -0.00179249 -0.000921948)
(1.03734 0.00177487 -0.00178551)
(1.03707 -0.000307876 0.00438621)
(1.03445 0.00552882 -0.000386821)
(1.04415 0.00355646 -0.000444316)
(1.04176 -0.00519101 0.00300663)
(1.03628 0.00148193 -0.00114297)
(1.04187 -7.67826e-05 0.0020347)
(1.03773 -0.000543637 0.00126727)
(1.04011 0.000732271 -0.00240725)
(1.04176 -0.00232882 0.00129445)
(1.03651 0.000760151 2.71474e-05)
(1.04237 -0.0034633 -0.00044049)
(1.03756 -0.00315161 0.00014109)
(1.03602 -0.00118677 0.000599897)
(1.03803 -0.00246202 0.00344074)
(1.03464 0.00220846 0.00431753)
(1.04064 -0.00302672 0.00132666)
(1.03643 -0.00166221 0.000928898)
(1.03556 0.00148787 0.00054412)
(1.04033 -0.00111402 -0.00246982)
(1.03715 0.00228817 0.000943561)
(1.04116 0.000266492 -0.00299072)
(1.03942 -0.00356747 -0.00337057)
(1.0369 -0.00220833 -0.000859799)
(1.03722 -0.00187389 -0.00343062)
(1.03107 0.003937 -0.00129096)
(1.03844 0.00699484 -0.00391244)
(1.04318 0.00159291 -0.00128696)
(1.0384 0.00209954 0.00489929)
(1.04356 -0.00120025 0.00225429)
(1.04073 -0.00518213 0.00408898)
(1.03678 -0.00139452 0.00190304)
(1.0384 -0.00209353 -0.00301545)
(1.03492 0.000643276 -0.000329021)
(1.04167 -0.000655012 -0.00235691)
(1.04152 -0.0026046 -0.00152075)
(1.03438 -0.00180858 0.00102386)
(1.03834 -0.00165883 -0.00135087)
(1.0375 3.49158e-05 0.000777101)
(1.03484 -0.00159918 -0.000117549)
(1.03794 0.00252516 -0.00190702)
(1.03779 8.56294e-07 0.0030134)
(1.03536 0.00402407 -0.000213939)
(1.04266 0.00401754 -0.000817804)
(1.04147 -0.00381651 0.00246833)
(1.03706 0.0017051 -0.000991599)
(1.04161 0.000308518 0.00130226)
(1.03795 -0.000404537 0.0011088)
(1.03979 0.000798143 -0.00177767)
(1.04189 -0.00246708 0.00112896)
(1.03654 0.000922556 -0.000152793)
(1.04178 -0.00284264 -0.000329784)
(1.03806 -0.0027944 0.000429422)
(1.03616 -0.000499309 0.00033201)
(1.03876 -0.00280764 0.00243522)
(1.03479 0.00226322 0.00299876)
(1.03997 -0.00206842 0.000935302)
(1.03726 -0.0013555 0.00059286)