/*--------------------------------*- C++ -*----------------------------------*\
  =========                 |
  \\      /  F ield         | OpenFOAM: The Open Source CFD Toolbox
   \\    /   O peration     | Website:  https://openfoam.org
    \\  /    A nd           | Version:  10
     \\/     M anipulation  |
\*---------------------------------------------------------------------------*/
FoamFile
{
    format      ascii;
    class       volVectorField;
    location    "12";
    object      UMean;
}
// * * * * * * * * * * * * * * * * * * * * * * * * * * * * * * * * * * * * * //

dimensions      [0 1 -1 0 0 0 0];

internalField   nonuniform List<vector> 
25600
(
(0.0852083 3.67573e-05 -0.00176661)
(0.0843024 5.20725e-05 -0.00148672)
(0.0847295 2.97599e-05 -0.00134806)
(0.0846492 1.08455e-05 -0.00151476)
(0.0858122 2.38984e-05 -0.00126682)
(0.0858442 4.57918e-05 -0.00107219)
(0.0859393 4.95681e-05 -0.000523294)
(0.084712 4.21547e-05 -0.000360175)
(0.0848443 1.30864e-05 -0.00063022)
(0.084253 3.2328e-06 -0.00117444)
(0.0848785 1.22615e-05 -0.000674368)
(0.0846957 1.96275e-05 0.000261012)
(0.0858609 2.84129e-05 0.0003721)
(0.085253 3.47217e-05 -0.000331891)
(0.0863267 3.51789e-05 -0.00089922)
(0.0861669 6.0179e-05 -0.000999761)
(0.0863506 6.02823e-05 -0.000914086)
(0.0864248 3.48552e-05 -0.00113609)
(0.0873651 2.09773e-05 -0.00129451)
(0.0868031 2.28249e-05 -0.00139087)
(0.086784 3.52114e-05 -0.00119754)
(0.0863799 3.63466e-05 -0.00109645)
(0.0851354 3.22506e-05 -0.000692468)
(0.085927 8.11926e-06 -0.000841718)
(0.0855928 5.27644e-06 -0.00115915)
(0.0859127 2.21044e-05 -0.00101624)
(0.0856786 3.69077e-05 -0.000603109)
(0.085342 4.30937e-05 -0.000465808)
(0.0846645 3.54582e-05 -0.000455389)
(0.0851548 2.7274e-05 -0.000477392)
(0.0846626 4.68301e-05 -0.000593624)
(0.0848581 5.29139e-05 -0.00118512)
(0.0850803 2.05181e-05 -0.00136081)
(0.0851163 1.4857e-05 -0.00199349)
(0.0853521 3.05756e-05 -0.00184266)
(0.0842383 4.19575e-05 -0.00155925)
(0.0840595 4.08521e-05 -0.00130515)
(0.0832761 3.61402e-05 -0.00153314)
(0.0844152 2.12013e-06 -0.00180089)
(0.0847134 -2.91052e-07 -0.00180918)
(0.250668 0.000399134 -0.00428519)
(0.24864 0.000474176 -0.0038213)
(0.25038 0.000412865 -0.00296586)
(0.24953 0.000280286 -0.00325673)
(0.252833 0.000265493 -0.00274881)
(0.253348 0.000464053 -0.00300398)
(0.253922 0.000567809 -0.00224441)
(0.250476 0.000579972 -0.00172741)
(0.250493 0.00042445 -0.00153117)
(0.248446 0.000319888 -0.00230661)
(0.249878 0.00033651 -0.00171473)
(0.249328 0.000326483 -0.000168375)
(0.252833 0.000368087 0.000583722)
(0.251201 0.000410947 -0.000335141)
(0.254452 0.000351111 -0.00169279)
(0.254197 0.000476536 -0.0025913)
(0.25534 0.000485721 -0.00228532)
(0.255022 0.000410357 -0.00280419)
(0.257926 0.000347782 -0.00294161)
(0.255942 0.00032453 -0.00340495)
(0.255977 0.000331135 -0.00344333)
(0.255184 0.00039014 -0.00359824)
(0.251431 0.000326685 -0.00248382)
(0.25414 0.000232223 -0.00273809)
(0.252489 0.000157593 -0.00308561)
(0.253278 0.000211116 -0.00318833)
(0.252559 0.000361448 -0.00294271)
(0.251723 0.000392173 -0.00231801)
(0.249957 0.000319104 -0.0013218)
(0.251204 0.000282273 -0.00138178)
(0.249598 0.000329798 -0.00133579)
(0.250784 0.000352406 -0.0022231)
(0.251244 0.000277999 -0.00227034)
(0.251043 0.00029577 -0.0041363)
(0.251767 0.000377032 -0.00432528)
(0.248474 0.000473928 -0.00405974)
(0.248212 0.000537526 -0.00296467)
(0.245614 0.000436586 -0.00334964)
(0.248964 0.00022435 -0.00391001)
(0.2487 0.000270193 -0.00399469)
(0.4077 0.00110631 -0.00600441)
(0.405887 0.00121147 -0.00609771)
(0.408899 0.0011611 -0.00445958)
(0.407085 0.000930574 -0.00475361)
(0.411208 0.000808037 -0.00373724)
(0.411422 0.00117633 -0.00445707)
(0.414526 0.00145585 -0.00393876)
(0.409769 0.00164291 -0.00387333)
(0.410072 0.0013757 -0.00324319)
(0.405579 0.00115236 -0.00368225)
(0.407661 0.00109372 -0.00286478)
(0.406998 0.00102639 -0.00128762)
(0.41205 0.00110027 -0.000226036)
(0.409358 0.00125347 -0.000873497)
(0.413433 0.00105388 -0.0020491)
(0.414197 0.00124186 -0.00379825)
(0.415983 0.00130862 -0.00371081)
(0.415238 0.00113034 -0.00435991)
(0.421148 0.00110719 -0.00462844)
(0.416406 0.00113881 -0.00541282)
(0.417006 0.000971044 -0.00545384)
(0.417339 0.00107164 -0.00616683)
(0.412404 0.000910783 -0.00491608)
(0.415063 0.000763176 -0.00550678)
(0.411983 0.000707354 -0.00529975)
(0.411672 0.000631718 -0.00562372)
(0.411649 0.000846506 -0.00572524)
(0.411521 0.00102948 -0.00590193)
(0.406777 0.00092196 -0.00346224)
(0.409769 0.000859437 -0.00297194)
(0.406398 0.000881827 -0.00213722)
(0.409058 0.000839426 -0.00293737)
(0.410187 0.000816189 -0.00243428)
(0.410176 0.000950206 -0.00541407)
(0.411509 0.00116815 -0.00603971)
(0.405449 0.00133821 -0.00650712)
(0.405737 0.00145771 -0.00453411)
(0.402909 0.00127969 -0.00500164)
(0.40636 0.000878408 -0.00541397)
(0.404166 0.00102893 -0.00564544)
(0.543025 0.00232524 -0.00658421)
(0.543743 0.00219187 -0.00744721)
(0.5481 0.0021395 -0.00529546)
(0.546477 0.00202204 -0.00556857)
(0.549318 0.00185326 -0.00435572)
(0.550226 0.00223463 -0.00512341)
(0.554468 0.00259737 -0.00486091)
(0.552079 0.00294898 -0.00572493)
(0.553445 0.00280575 -0.00504255)
(0.546053 0.00263833 -0.0057144)
(0.548067 0.00247096 -0.0046055)
(0.544624 0.00222358 -0.0030954)
(0.552183 0.00219365 -0.00184655)
(0.548871 0.00243755 -0.00255575)
(0.552024 0.00217638 -0.00273049)
(0.551304 0.00242124 -0.00520496)
(0.555999 0.00254774 -0.00484422)
(0.555178 0.00224918 -0.00535432)
(0.562474 0.0023204 -0.00592453)
(0.556682 0.00258389 -0.00794407)
(0.557957 0.00221927 -0.00726802)
(0.557789 0.00223724 -0.00852129)
(0.553546 0.00195815 -0.00723273)
(0.554606 0.00173377 -0.008695)
(0.55174 0.00175979 -0.00840745)
(0.550795 0.00164222 -0.00890105)
(0.547764 0.00175861 -0.0087653)
(0.549603 0.00203911 -0.0106729)
(0.544257 0.00195366 -0.00748187)
(0.54789 0.00184861 -0.00642683)
(0.544268 0.00194283 -0.0043877)
(0.547594 0.00166982 -0.00443608)
(0.551519 0.00170164 -0.00282777)
(0.551789 0.00201405 -0.00582775)
(0.553664 0.00258597 -0.00676844)
(0.546381 0.0028681 -0.00829628)
(0.545934 0.00299268 -0.00651246)
(0.54129 0.00282859 -0.00714083)
(0.542956 0.0022739 -0.00657045)
(0.539116 0.00254577 -0.0071384)
(0.650805 0.00444374 -0.00398765)
(0.649999 0.00368364 -0.005657)
(0.657112 0.00339269 -0.00360142)
(0.658427 0.00343516 -0.0046242)
(0.662385 0.0033411 -0.00375171)
(0.661772 0.00375289 -0.00451264)
(0.668775 0.00399649 -0.00407409)
(0.66926 0.00433642 -0.00554197)
(0.671897 0.00440907 -0.00502325)
(0.666398 0.00454573 -0.006632)
(0.665393 0.00430495 -0.00546421)
(0.660676 0.00400498 -0.00446494)
(0.663087 0.00381853 -0.00302437)
(0.662805 0.00401203 -0.00406755)
(0.661923 0.00368686 -0.00383339)
(0.662436 0.0040407 -0.00589978)
(0.664772 0.00426706 -0.00513101)
(0.667572 0.003951 -0.00461631)
(0.671746 0.00410067 -0.00532729)
(0.669899 0.00469406 -0.00851942)
(0.670008 0.00412963 -0.0076572)
(0.669481 0.00407075 -0.00858466)
(0.66727 0.00375034 -0.00790427)
(0.664201 0.00357622 -0.00932981)
(0.660757 0.0035567 -0.00982791)
(0.658056 0.00344941 -0.010632)
(0.656559 0.00349044 -0.00990238)
(0.653752 0.00360063 -0.0130533)
(0.654548 0.00346922 -0.0113207)
(0.655666 0.00330231 -0.010423)
(0.653911 0.00346217 -0.00757006)
(0.657487 0.00308084 -0.00673983)
(0.663668 0.00318137 -0.00357148)
(0.661938 0.00358219 -0.00456178)
(0.666119 0.00445508 -0.00481058)
(0.659849 0.00493401 -0.00749082)
(0.658991 0.0053267 -0.00636828)
(0.655661 0.0052265 -0.00676682)
(0.656943 0.0044759 -0.00548007)
(0.648907 0.00494443 -0.00596148)
(0.732982 0.00657556 0.00207345)
(0.730812 0.00541422 0.000377949)
(0.736716 0.00458587 0.000754367)
(0.745211 0.00472758 -0.0012711)
(0.743866 0.00495999 -0.000919453)
(0.747782 0.00528977 -0.000787087)
(0.752934 0.00530662 0.000122012)
(0.759588 0.00546738 -0.00154703)
(0.762139 0.00557673 -0.000901544)
(0.762544 0.00614857 -0.00327861)
(0.757458 0.00612487 -0.00267248)
(0.754137 0.0058436 -0.00241778)
(0.748397 0.00574031 -0.00116829)
(0.75217 0.00585076 -0.00270882)
(0.746247 0.00563708 -0.00241622)
(0.746089 0.00571078 -0.00312749)
(0.746623 0.00604675 -0.00235786)
(0.750029 0.00596337 -0.000455846)
(0.747602 0.00622007 -0.000354318)
(0.753619 0.00681265 -0.00378218)
(0.750996 0.00632673 -0.00363574)
(0.751266 0.00579731 -0.00465515)
(0.750791 0.00559583 -0.00444611)
(0.748508 0.00548527 -0.00499264)
(0.745186 0.00560338 -0.00596944)
(0.739896 0.00535661 -0.00682129)
(0.741355 0.00538394 -0.00470481)
(0.734778 0.00532281 -0.00832957)
(0.736637 0.00491504 -0.00927772)
(0.738769 0.00467343 -0.00952137)
(0.735659 0.00480029 -0.00667714)
(0.737613 0.00427575 -0.00534737)
(0.741687 0.00467563 -0.000262673)
(0.738967 0.00501956 0.00044776)
(0.742583 0.00594374 0.00097915)
(0.739315 0.00655899 -0.00189989)
(0.739087 0.007268 -0.000601958)
(0.74007 0.00732941 -0.000324342)
(0.739602 0.00659975 0.0011321)
(0.731713 0.00710551 -3.34032e-05)
(0.801539 0.00747723 0.00927346)
(0.800164 0.00630327 0.00761912)
(0.802225 0.00517231 0.00750504)
(0.809861 0.00508049 0.00388465)
(0.812774 0.00574324 0.003064)
(0.815159 0.00595662 0.00387881)
(0.817902 0.00589005 0.00652909)
(0.823149 0.00569533 0.00547346)
(0.827159 0.00579884 0.00702701)
(0.827022 0.00657965 0.0051885)
(0.827518 0.00680731 0.00501319)
(0.822511 0.00652914 0.00500513)
(0.815133 0.00657378 0.0053524)
(0.815741 0.00675275 0.00420319)
(0.813815 0.00704518 0.00397747)
(0.809749 0.00663936 0.00417613)
(0.809554 0.00681879 0.00469411)
(0.809631 0.00692963 0.00731902)
(0.808345 0.00731742 0.00900503)
(0.810644 0.00758729 0.00596811)
(0.812043 0.00764381 0.00550514)
(0.811051 0.00670762 0.00415017)
(0.812968 0.00621741 0.0032739)
(0.814071 0.00594243 0.00429537)
(0.812825 0.00637604 0.00412825)
(0.807561 0.00601929 0.00378474)
(0.810867 0.00598998 0.00796137)
(0.805748 0.00604705 0.00540224)
(0.803792 0.00567652 0.00212028)
(0.803557 0.00522378 0.00127547)
(0.802715 0.00554577 0.00225874)
(0.798163 0.00469044 0.00457005)
(0.801733 0.00523877 0.00970913)
(0.794583 0.00565362 0.0104959)
(0.795597 0.00631774 0.0102506)
(0.795381 0.00656259 0.00837555)
(0.792744 0.00731516 0.00983262)
(0.798824 0.00760985 0.0111826)
(0.801247 0.00732634 0.0116249)
(0.800003 0.00777361 0.00885354)
(0.859041 0.00700799 0.0130144)
(0.864251 0.006363 0.0126375)
(0.859176 0.0055839 0.0129215)
(0.867642 0.00489164 0.0110795)
(0.863947 0.00517798 0.00779496)
(0.873908 0.00522992 0.00862697)
(0.868666 0.00536884 0.010746)
(0.87333 0.00517847 0.0111849)
(0.871613 0.00519335 0.0124718)
(0.87741 0.00568397 0.0126157)
(0.875137 0.00617958 0.0113032)
(0.876553 0.0060486 0.011815)
(0.866965 0.00621788 0.0116101)
(0.869723 0.00604648 0.0121411)
(0.8668 0.00663261 0.0129018)
(0.869515 0.00621421 0.0147702)
(0.863267 0.00630355 0.0153283)
(0.864898 0.00631986 0.0158656)
(0.858817 0.0066228 0.0172668)
(0.862336 0.00659182 0.0144657)
(0.85983 0.00685407 0.0134428)
(0.865383 0.00579589 0.0128754)
(0.864551 0.00525945 0.01091)
(0.866445 0.00470116 0.0117934)
(0.868542 0.00540469 0.0124577)
(0.865363 0.00509568 0.0123929)
(0.866835 0.00483559 0.0167365)
(0.863984 0.00507865 0.0162618)
(0.857161 0.00535252 0.0132616)
(0.855626 0.00450931 0.0123347)
(0.85282 0.0050145 0.0122176)
(0.850089 0.00439872 0.0132481)
(0.851624 0.00482416 0.017207)
(0.849767 0.00520825 0.0169966)
(0.846831 0.00526089 0.0160763)
(0.850892 0.00500745 0.0150184)
(0.845439 0.00562263 0.0165374)
(0.852735 0.00586132 0.0178081)
(0.854557 0.00611585 0.0171219)
(0.858566 0.00657378 0.0139248)
(0.910418 0.00480313 0.0137943)
(0.919424 0.00482332 0.0150884)
(0.914279 0.00466366 0.0162861)
(0.92107 0.0036261 0.0171429)
(0.915096 0.00317777 0.0145606)
(0.919949 0.00294862 0.0135041)
(0.915724 0.00350567 0.0139206)
(0.918979 0.00364814 0.0139181)
(0.917123 0.00361701 0.0141407)
(0.920435 0.00367776 0.0142316)
(0.919704 0.00437625 0.012511)
(0.92226 0.0043752 0.012859)
(0.914852 0.00474214 0.0134084)
(0.916236 0.0040047 0.0150042)
(0.913902 0.00436572 0.0176)
(0.918724 0.00430106 0.020108)
(0.913834 0.00462038 0.0214705)
(0.914549 0.00464517 0.0199433)
(0.910897 0.00490684 0.0209478)
(0.913208 0.00460884 0.0177482)
(0.913115 0.00446769 0.0167518)
(0.919673 0.00330272 0.0169537)
(0.920052 0.00308721 0.0158013)
(0.922302 0.002452 0.0157539)
(0.924423 0.00299154 0.0161826)
(0.923368 0.00313444 0.0143438)
(0.921115 0.00279494 0.0176334)
(0.922585 0.00302346 0.018534)
(0.913811 0.00386898 0.0162454)
(0.911389 0.00302484 0.0156415)
(0.903773 0.00337679 0.0162537)
(0.904632 0.00293806 0.0158352)
(0.904592 0.00327452 0.0179061)
(0.908636 0.00357962 0.0169837)
(0.90448 0.00366791 0.0156579)
(0.909474 0.00359268 0.0145242)
(0.905957 0.00380686 0.0168528)
(0.908255 0.00354028 0.017511)
(0.908364 0.00380979 0.0165652)
(0.909038 0.00429765 0.0136205)
(0.951573 0.00144118 0.0132262)
(0.961018 0.00130995 0.0158122)
(0.958206 0.00179525 0.016172)
(0.962607 0.00102782 0.0189457)
(0.957289 0.00069433 0.0184855)
(0.957168 0.000459619 0.017666)
(0.954885 0.00087286 0.0168303)
(0.957024 0.000837791 0.0159238)
(0.959224 0.00106522 0.0156181)
(0.958644 0.000870478 0.0147386)
(0.9596 0.00137418 0.0122052)
(0.961401 0.00139271 0.0117766)
(0.957681 0.00190168 0.0127325)
(0.957115 0.00132173 0.0142999)
(0.956294 0.00156194 0.0153239)
(0.957883 0.00162581 0.0164607)
(0.957258 0.00205871 0.0172706)
(0.953857 0.00206377 0.0158282)
(0.953949 0.00224092 0.0172194)
(0.954916 0.00206812 0.0164562)
(0.955668 0.00181096 0.0148082)
(0.960597 0.000704496 0.0158229)
(0.964807 0.000380239 0.015529)
(0.966994 -9.12618e-05 0.0155576)
(0.969033 8.30588e-05 0.0157559)
(0.968935 0.000463492 0.0129677)
(0.965998 0.000157146 0.0145162)
(0.968128 6.10329e-05 0.0165274)
(0.963366 0.000999942 0.0141096)
(0.963092 0.000613064 0.013771)
(0.957578 0.000943613 0.0150316)
(0.958147 0.00042386 0.0150555)
(0.955098 0.000420346 0.0146374)
(0.960589 0.00098558 0.0135914)
(0.955644 0.00140205 0.0113964)
(0.95865 0.00141115 0.0109252)
(0.956692 0.00142341 0.012387)
(0.957824 0.000830855 0.0141485)
(0.955178 0.00104524 0.0132004)
(0.954155 0.00158999 0.0123801)
(0.987769 -0.00200847 0.0112491)
(0.991746 -0.0023034 0.0121088)
(0.989976 -0.00162989 0.0108386)
(0.992394 -0.00203946 0.0114576)
(0.991662 -0.00178266 0.0114535)
(0.991136 -0.00168632 0.0116185)
(0.988794 -0.00147779 0.0118099)
(0.988243 -0.00189644 0.0116622)
(0.9922 -0.00157737 0.0123418)
(0.990519 -0.00150141 0.0127137)
(0.990193 -0.00108427 0.010795)
(0.990991 -0.000943063 0.0104641)
(0.989032 -0.000632969 0.0113243)
(0.988462 -0.00128635 0.0117068)
(0.989178 -0.00141465 0.0115395)
(0.989017 -0.00174008 0.0110588)
(0.990543 -0.00162944 0.0117502)
(0.988659 -0.00159605 0.0112821)
(0.986207 -0.00183282 0.0119297)
(0.988193 -0.00190112 0.0131503)
(0.98823 -0.00172943 0.012584)
(0.990238 -0.0025644 0.0129119)
(0.994354 -0.00260154 0.0127581)
(0.996029 -0.0024593 0.0124242)
(0.997153 -0.00217124 0.0131836)
(0.998604 -0.00155684 0.0119378)
(0.995894 -0.00176641 0.0118523)
(1 -0.00221095 0.013981)
(0.998225 -0.00167766 0.0123199)
(1.00104 -0.00213628 0.011803)
(0.9983 -0.00184848 0.0123394)
(1.0009 -0.00215696 0.0123771)
(0.99529 -0.00238967 0.0114221)
(0.999109 -0.0021591 0.0100858)
(0.996141 -0.00186034 0.00792828)
(0.996521 -0.0019394 0.00723536)
(0.995375 -0.00162478 0.00685368)
(0.996622 -0.00221207 0.00796342)
(0.994085 -0.00216534 0.00855404)
(0.992439 -0.00175947 0.00970433)
(1.018 -0.00400203 0.00562998)
(1.01937 -0.00447885 0.0057117)
(1.01758 -0.00417705 0.00442211)
(1.01902 -0.00462988 0.00414224)
(1.01881 -0.00425304 0.00437218)
(1.02028 -0.00404893 0.00463799)
(1.01957 -0.0036064 0.00572208)
(1.01819 -0.00394753 0.00676313)
(1.01971 -0.00397445 0.00735564)
(1.01961 -0.00371697 0.00804818)
(1.01811 -0.0032314 0.0073684)
(1.01899 -0.00293771 0.00783515)
(1.01745 -0.00261692 0.0083573)
(1.0177 -0.00334494 0.00763287)
(1.01765 -0.00365499 0.00717282)
(1.01823 -0.0039379 0.00692709)
(1.01872 -0.00396971 0.00729338)
(1.01945 -0.00392569 0.00740989)
(1.01676 -0.00405853 0.0069725)
(1.01781 -0.00424413 0.00770901)
(1.01829 -0.00420799 0.00748499)
(1.02018 -0.00492635 0.00734087)
(1.02153 -0.00475484 0.00726607)
(1.02231 -0.00446669 0.0070248)
(1.02122 -0.00412685 0.00775384)
(1.02259 -0.00339113 0.00773856)
(1.02067 -0.00349637 0.00711044)
(1.02305 -0.00415016 0.00849396)
(1.02201 -0.00395239 0.00815844)
(1.02438 -0.00455682 0.00752946)
(1.02241 -0.00459652 0.00761097)
(1.02581 -0.00479972 0.00746564)
(1.02142 -0.00489603 0.00714049)
(1.02279 -0.00510566 0.00625285)
(1.02147 -0.00481461 0.0050608)
(1.02092 -0.00456031 0.00412687)
(1.01864 -0.00409824 0.00326774)
(1.02016 -0.00463468 0.00292223)
(1.01953 -0.00455181 0.0035606)
(1.02103 -0.00394166 0.00467783)
(1.03659 -0.0062518 0.000442271)
(1.03678 -0.00682146 0.000765562)
(1.03584 -0.00648863 0.000777505)
(1.0363 -0.00684168 0.000964577)
(1.03547 -0.00649257 0.00138119)
(1.03647 -0.00662601 0.00123384)
(1.0372 -0.00609384 0.00217709)
(1.03703 -0.00610083 0.00300773)
(1.03728 -0.00624842 0.00282411)
(1.03742 -0.00597766 0.00261547)
(1.03634 -0.00563139 0.00215143)
(1.03679 -0.00547008 0.00218552)
(1.03616 -0.00493974 0.00266812)
(1.03604 -0.00531822 0.0024324)
(1.03523 -0.00551158 0.00223709)
(1.03559 -0.00567956 0.00209588)
(1.0361 -0.00581406 0.00203032)
(1.03748 -0.00561255 0.0021501)
(1.03631 -0.00532423 0.00165557)
(1.03683 -0.00561278 0.00181743)
(1.03751 -0.00592806 0.00150014)
(1.03923 -0.006528 0.00125196)
(1.03929 -0.00639416 0.00127869)
(1.03961 -0.00610789 0.00113296)
(1.03829 -0.00583012 0.00146864)
(1.03855 -0.0051814 0.00139633)
(1.03776 -0.00520018 0.000935675)
(1.03872 -0.00568077 0.00191583)
(1.03786 -0.00557463 0.00223972)
(1.039 -0.00612388 0.00205504)
(1.03776 -0.00632429 0.00235664)
(1.03942 -0.00658614 0.00226384)
(1.03729 -0.00667075 0.00237128)
(1.03785 -0.00704639 0.00193341)
(1.03737 -0.00680878 0.00142737)
(1.03652 -0.00649229 0.000742628)
(1.03448 -0.0062551 0.000342332)
(1.03507 -0.00697863 -0.00026987)
(1.03522 -0.00691007 -0.000109025)
(1.03708 -0.00632007 3.20581e-05)
(1.04066 -0.00728683 -0.00401639)
(1.03999 -0.00769508 -0.00388811)
(1.03938 -0.00732468 -0.00366364)
(1.03928 -0.0075749 -0.00327795)
(1.039 -0.00727737 -0.00292626)
(1.03975 -0.00743875 -0.00310248)
(1.0409 -0.00721287 -0.00270347)
(1.04084 -0.00715913 -0.00241038)
(1.04054 -0.0072016 -0.00240052)
(1.04006 -0.00688672 -0.00259813)
(1.03955 -0.00655395 -0.00295759)
(1.03931 -0.00638935 -0.0031418)
(1.03893 -0.00586323 -0.00255538)
(1.0387 -0.00593268 -0.00211274)
(1.03814 -0.00616802 -0.00188624)
(1.03858 -0.00635081 -0.0020569)
(1.03895 -0.00652681 -0.00222031)
(1.03993 -0.00639391 -0.00202385)
(1.03973 -0.0062097 -0.00228389)
(1.03982 -0.00642928 -0.00225241)
(1.04013 -0.00684499 -0.00258734)
(1.04108 -0.00743251 -0.0028605)
(1.04095 -0.0074171 -0.00298365)
(1.04107 -0.00719694 -0.00335465)
(1.04054 -0.00692187 -0.00332059)
(1.04072 -0.00640687 -0.0035857)
(1.04072 -0.00633968 -0.00402986)
(1.0415 -0.00660149 -0.00348232)
(1.04159 -0.00645727 -0.00326807)
(1.04234 -0.00689416 -0.00317776)
(1.04203 -0.00698619 -0.0027094)
(1.04297 -0.00707499 -0.00291588)
(1.04231 -0.00699465 -0.00298616)
(1.04246 -0.00744213 -0.00332583)
(1.04224 -0.0073834 -0.00348352)
(1.04149 -0.00716455 -0.00361279)
(1.04055 -0.00706402 -0.00373833)
(1.04064 -0.0076953 -0.00409569)
(1.04068 -0.00783018 -0.00397798)
(1.0408 -0.0072983 -0.00413264)
(1.03314 -0.00665917 -0.00589608)
(1.03249 -0.00691105 -0.00587506)
(1.03211 -0.00658666 -0.00586525)
(1.03215 -0.00677577 -0.00551678)
(1.03208 -0.00658102 -0.00528455)
(1.03257 -0.00664744 -0.00546961)
(1.03322 -0.00665308 -0.00550048)
(1.03297 -0.00656301 -0.00545165)
(1.03248 -0.00657366 -0.005441)
(1.03181 -0.00639566 -0.00547803)
(1.03159 -0.00617528 -0.00561199)
(1.03148 -0.00603134 -0.00577406)
(1.03139 -0.0056718 -0.00537493)
(1.03144 -0.00567542 -0.00499347)
(1.03144 -0.00592391 -0.00461307)
(1.03196 -0.00607542 -0.00474521)
(1.03217 -0.00602536 -0.00488595)
(1.03273 -0.00595683 -0.00479848)
(1.03306 -0.00575456 -0.00490291)
(1.03313 -0.00582732 -0.00470878)
(1.03335 -0.00617201 -0.00481049)
(1.03385 -0.0066825 -0.00496462)
(1.03377 -0.00672414 -0.00504861)
(1.03366 -0.00660726 -0.00548042)
(1.03339 -0.00646924 -0.00553528)
(1.03334 -0.00612451 -0.00582186)
(1.03346 -0.00613993 -0.00630354)
(1.03375 -0.0062936 -0.0060254)
(1.034 -0.00615014 -0.00593936)
(1.03452 -0.00652369 -0.00582642)
(1.03445 -0.0065181 -0.00538829)
(1.03489 -0.00658073 -0.00566216)
(1.03477 -0.00641347 -0.00576161)
(1.03466 -0.00680851 -0.00590093)
(1.03455 -0.00680758 -0.0059135)
(1.0342 -0.00669293 -0.00581202)
(1.03406 -0.00659138 -0.00594425)
(1.03411 -0.00704183 -0.00612487)
(1.03388 -0.00722546 -0.00599673)
(1.0334 -0.00672718 -0.00601835)
(1.02842 -0.00553753 -0.0058987)
(1.02825 -0.00575931 -0.00584141)
(1.02809 -0.00561975 -0.00598783)
(1.02815 -0.00582221 -0.00583875)
(1.0279 -0.00571558 -0.0057135)
(1.0281 -0.0057513 -0.00587739)
(1.02825 -0.00579756 -0.0059663)
(1.02803 -0.00567352 -0.00594094)
(1.02782 -0.00569192 -0.00588448)
(1.02754 -0.00552903 -0.00584608)
(1.02755 -0.00536813 -0.00592178)
(1.02766 -0.00525842 -0.006089)
(1.02772 -0.0049816 -0.00585994)
(1.0279 -0.00492785 -0.00563124)
(1.02793 -0.00509547 -0.0052285)
(1.02813 -0.00519447 -0.00524461)
(1.02807 -0.00511461 -0.00530249)
(1.02818 -0.00498732 -0.00520445)
(1.02844 -0.00472177 -0.00525264)
(1.0285 -0.0046825 -0.00491426)
(1.02873 -0.00500416 -0.00485925)
(1.02899 -0.00541779 -0.00488616)
(1.02876 -0.00556067 -0.00496286)
(1.02856 -0.00548416 -0.0053089)
(1.02825 -0.0054191 -0.00534505)
(1.02807 -0.00518249 -0.00547184)
(1.02818 -0.00530229 -0.00585565)
(1.02811 -0.00534619 -0.00566156)
(1.02814 -0.00524927 -0.00563883)
(1.02842 -0.00550178 -0.00556929)
(1.02833 -0.00552447 -0.00531175)
(1.02862 -0.00567074 -0.0056459)
(1.02871 -0.00554575 -0.00584233)
(1.02872 -0.00581112 -0.00592479)
(1.02871 -0.00580262 -0.00595762)
(1.0287 -0.00570338 -0.00581457)
(1.02882 -0.00557586 -0.00597131)
(1.02902 -0.00589718 -0.00610859)
(1.02878 -0.00608621 -0.00605767)
(1.02843 -0.00571148 -0.00609931)
(1.02597 -0.00394773 -0.00476153)
(1.02602 -0.00408153 -0.00468823)
(1.02594 -0.0040659 -0.00489073)
(1.02598 -0.00421932 -0.00482207)
(1.02576 -0.00416901 -0.004756)
(1.02594 -0.00420419 -0.00484397)
(1.02587 -0.00424024 -0.00485346)
(1.02571 -0.00408818 -0.00476354)
(1.02567 -0.00408356 -0.00467898)
(1.02557 -0.00391683 -0.00464652)
(1.02566 -0.0038213 -0.00476839)
(1.02576 -0.00376133 -0.00491732)
(1.02577 -0.00353185 -0.00481828)
(1.02593 -0.00345894 -0.00471236)
(1.0259 -0.0035366 -0.00443156)
(1.02595 -0.00366879 -0.00437067)
(1.02585 -0.00368557 -0.004387)
(1.02574 -0.0035639 -0.00420166)
(1.02582 -0.00330359 -0.00424423)
(1.02594 -0.00326719 -0.00390956)
(1.02616 -0.00356299 -0.00386506)
(1.02628 -0.00391699 -0.00382988)
(1.02594 -0.00406657 -0.00384862)
(1.02575 -0.00405063 -0.00402587)
(1.02552 -0.00400664 -0.00402037)
(1.02534 -0.00383978 -0.00403752)
(1.02545 -0.00396387 -0.00431189)
(1.02534 -0.00400226 -0.00412417)
(1.02531 -0.00394767 -0.00413467)
(1.02539 -0.00411452 -0.00409226)
(1.02529 -0.00413859 -0.00396545)
(1.02545 -0.00431578 -0.00423169)
(1.02555 -0.00419102 -0.00450369)
(1.02554 -0.00426498 -0.00459256)
(1.02558 -0.00426754 -0.0046452)
(1.02568 -0.00420612 -0.00449786)
(1.02578 -0.00411903 -0.00467268)
(1.02604 -0.00428292 -0.0047949)
(1.02599 -0.00444657 -0.00478463)
(1.02579 -0.00414202 -0.00489654)
(1.02462 -0.00243425 -0.00302507)
(1.02467 -0.00249838 -0.00298971)
(1.02462 -0.00250178 -0.00321731)
(1.02467 -0.00262773 -0.00315841)
(1.02449 -0.00264015 -0.00313391)
(1.02462 -0.00268253 -0.00318396)
(1.0245 -0.00271169 -0.00310769)
(1.02441 -0.00256289 -0.0029874)
(1.02446 -0.00257288 -0.00289853)
(1.02441 -0.00244637 -0.00287554)
(1.02452 -0.00242408 -0.00300813)
(1.02455 -0.00236816 -0.00312047)
(1.02452 -0.00219246 -0.0030873)
(1.02469 -0.00213645 -0.00307533)
(1.02466 -0.00214676 -0.00291202)
(1.02472 -0.00225868 -0.00284999)
(1.02468 -0.00232016 -0.00287957)
(1.0245 -0.00218164 -0.00266904)
(1.02455 -0.00198354 -0.00272362)
(1.02468 -0.00195446 -0.00251698)
(1.0249 -0.00217875 -0.00253583)
(1.02499 -0.00245652 -0.0024683)
(1.02468 -0.00258426 -0.00238749)
(1.02455 -0.00258307 -0.00245517)
(1.02441 -0.00257838 -0.00245415)
(1.02426 -0.00242817 -0.00242836)
(1.02437 -0.00252168 -0.00263407)
(1.02431 -0.00255079 -0.00248418)
(1.02436 -0.00251951 -0.00249903)
(1.02436 -0.00261599 -0.00247762)
(1.02426 -0.00260506 -0.00239313)
(1.02435 -0.00274234 -0.00253246)
(1.02439 -0.00262582 -0.00273627)
(1.02434 -0.00260989 -0.00277309)
(1.02435 -0.00262144 -0.00281673)
(1.02448 -0.00263406 -0.0026854)
(1.0245 -0.00260156 -0.00284783)
(1.02469 -0.00267676 -0.00295593)
(1.02465 -0.0028108 -0.00294356)
(1.02443 -0.00257079 -0.00307584)
(1.0245 -0.00111367 -0.00152387)
(1.02452 -0.00114598 -0.00149483)
(1.02449 -0.00114222 -0.0016948)
(1.02455 -0.00124301 -0.00162556)
(1.0244 -0.00125578 -0.00162119)
(1.02446 -0.00127958 -0.00163842)
(1.02439 -0.00129534 -0.0015485)
(1.02432 -0.0011837 -0.00144554)
(1.02439 -0.00119498 -0.00138309)
(1.02433 -0.00108613 -0.00136792)
(1.02444 -0.001083 -0.00148208)
(1.02442 -0.00102802 -0.00155548)
(1.02439 -0.000904148 -0.00153394)
(1.02452 -0.000895317 -0.00156695)
(1.02448 -0.000864994 -0.00146079)
(1.02454 -0.000946731 -0.00140654)
(1.02451 -0.0010121 -0.00143956)
(1.02436 -0.000889929 -0.00123737)
(1.02441 -0.000761264 -0.00130093)
(1.02447 -0.000727543 -0.00117597)
(1.02464 -0.000876013 -0.00120142)
(1.02476 -0.00109307 -0.00112218)
(1.02455 -0.00121567 -0.000992036)
(1.02449 -0.00121966 -0.00103405)
(1.02442 -0.00125626 -0.00107464)
(1.02429 -0.00111469 -0.00104787)
(1.02438 -0.00119672 -0.0012114)
(1.02434 -0.00119089 -0.00110839)
(1.02442 -0.00118312 -0.00112831)
(1.02443 -0.00124043 -0.00112186)
(1.02429 -0.00119973 -0.00106317)
(1.02437 -0.00128619 -0.00112723)
(1.02442 -0.00120729 -0.0012466)
(1.02439 -0.00118779 -0.00125852)
(1.02441 -0.00119341 -0.00133038)
(1.02451 -0.00124714 -0.00123431)
(1.02447 -0.00123448 -0.00135561)
(1.02459 -0.00125395 -0.00144159)
(1.02458 -0.0014008 -0.00140772)
(1.02436 -0.00120601 -0.00152766)
(1.02482 -0.000522805 -0.000706758)
(1.02483 -0.000542402 -0.000668466)
(1.0248 -0.000524163 -0.000822901)
(1.02487 -0.000598857 -0.000753735)
(1.02475 -0.000613345 -0.000743755)
(1.02479 -0.0006263 -0.000744263)
(1.02474 -0.000655849 -0.000676549)
(1.02467 -0.000560154 -0.000613344)
(1.02475 -0.000588317 -0.00055535)
(1.02469 -0.000479286 -0.000539428)
(1.02479 -0.000494758 -0.000618853)
(1.02477 -0.000458081 -0.000673919)
(1.02473 -0.000378502 -0.000656294)
(1.02484 -0.000396286 -0.000693052)
(1.02479 -0.000367719 -0.00061721)
(1.02483 -0.000403654 -0.000570885)
(1.02482 -0.000480796 -0.00059987)
(1.02471 -0.000386143 -0.000429817)
(1.02476 -0.000309749 -0.000484212)
(1.02476 -0.000251888 -0.000386597)
(1.02489 -0.000342447 -0.000389238)
(1.02502 -0.000513342 -0.00033474)
(1.02487 -0.000629644 -0.000221536)
(1.02485 -0.000632561 -0.00027045)
(1.02481 -0.000696057 -0.00034025)
(1.02468 -0.000563194 -0.000325018)
(1.02475 -0.000609697 -0.000460312)
(1.02471 -0.000572149 -0.000386635)
(1.02478 -0.000559896 -0.000402845)
(1.02481 -0.000605412 -0.000406334)
(1.02467 -0.000543974 -0.000364479)
(1.02475 -0.00058103 -0.000408331)
(1.02479 -0.000549776 -0.000474939)
(1.02477 -0.000543388 -0.000481711)
(1.0248 -0.000541463 -0.000566016)
(1.02486 -0.000585719 -0.000491902)
(1.02483 -0.000605365 -0.000569611)
(1.02489 -0.000576997 -0.000639682)
(1.02491 -0.000743434 -0.000592091)
(1.02472 -0.000574537 -0.000686294)
(1.02507 -0.00025967 -0.000335261)
(1.02507 -0.000286372 -0.000295837)
(1.02504 -0.00025851 -0.000410484)
(1.02511 -0.000313192 -0.000356939)
(1.025 -0.000320224 -0.000348418)
(1.02504 -0.000324175 -0.00035096)
(1.02501 -0.000358961 -0.000294098)
(1.02494 -0.000260086 -0.000263667)
(1.02503 -0.000304549 -0.000214668)
(1.02498 -0.000202134 -0.000201821)
(1.02506 -0.000224339 -0.000252534)
(1.02506 -0.000203924 -0.000295036)
(1.025 -0.000136642 -0.000274947)
(1.02511 -0.000176555 -0.000311537)
(1.02506 -0.000153755 -0.000257983)
(1.02508 -0.000167418 -0.000228473)
(1.02509 -0.000243704 -0.000257425)
(1.025 -0.000167233 -0.000119265)
(1.02506 -0.000122204 -0.000161375)
(1.02504 -7.13823e-05 -8.59943e-05)
(1.02513 -0.00011147 -6.67928e-05)
(1.02525 -0.000252087 -4.31968e-05)
(1.02512 -0.000346024 4.34446e-05)
(1.02511 -0.000355479 -4.42381e-06)
(1.02509 -0.00042077 -7.93528e-05)
(1.02496 -0.000313964 -7.06486e-05)
(1.025 -0.000318248 -0.000177855)
(1.02498 -0.000291419 -0.000124568)
(1.02503 -0.000256617 -0.000129127)
(1.02507 -0.000312006 -0.000143628)
(1.02494 -0.000236223 -0.000108726)
(1.025 -0.000256415 -0.00015215)
(1.02505 -0.000235379 -0.000177349)
(1.02502 -0.000250826 -0.000177511)
(1.02505 -0.000233943 -0.00025547)
(1.0251 -0.000261735 -0.000197661)
(1.02508 -0.000311327 -0.000236387)
(1.02511 -0.000251057 -0.000296113)
(1.02515 -0.000412914 -0.00024212)
(1.025 -0.000292944 -0.000313263)
(1.02521 -0.000194998 -0.000174251)
(1.02521 -0.000232325 -0.000138146)
(1.02517 -0.000200186 -0.000222172)
(1.02524 -0.000239604 -0.000181905)
(1.02514 -0.000241182 -0.000173067)
(1.02517 -0.000234269 -0.000180314)
(1.02517 -0.000276935 -0.000131109)
(1.02509 -0.00016857 -0.000124226)
(1.02518 -0.000224065 -8.43324e-05)
(1.02513 -0.000133571 -7.58534e-05)
(1.02521 -0.000158568 -0.000105923)
(1.02522 -0.000162407 -0.000137678)
(1.02515 -8.532e-05 -0.000117198)
(1.02526 -0.000144501 -0.000146451)
(1.02521 -0.000134629 -0.000111139)
(1.02522 -0.000139392 -9.17996e-05)
(1.02524 -0.000207387 -0.000119573)
(1.02517 -0.000150671 -4.5646e-06)
(1.02522 -0.000125352 -3.6815e-05)
(1.0252 -9.6963e-05 1.68252e-05)
(1.02526 -9.81841e-05 4.53617e-05)
(1.02537 -0.000218629 5.17608e-05)
(1.02526 -0.000278802 0.000115426)
(1.02524 -0.000291338 7.90738e-05)
(1.02524 -0.000347481 1.34562e-05)
(1.02512 -0.00027465 1.97034e-05)
(1.02515 -0.000235449 -6.74859e-05)
(1.02513 -0.000228385 -2.98222e-05)
(1.02516 -0.00017511 -2.93511e-05)
(1.02521 -0.000235452 -4.84102e-05)
(1.02508 -0.000158798 -1.76073e-05)