/*--------------------------------*- C++ -*----------------------------------*\
  =========                 |
  \\      /  F ield         | OpenFOAM: The Open Source CFD Toolbox
   \\    /   O peration     | Website:  https://openfoam.org
    \\  /    A nd           | Version:  10
     \\/     M anipulation  |
\*---------------------------------------------------------------------------*/
FoamFile
{
    format      ascii;
    class       volVectorField;
    location    "12";
    object      UMean;
}
// * * * * * * * * * * * * * * * * * * * * * * * * * * * * * * * * * * * * * //

dimensions      [0 1 -1 0 0 0 0];

internalField   nonuniform List<vector> 
102400
(
(0.295225 -0.0902193 0.0577876)
(0.288437 -0.0893293 0.0562472)
(0.28002 -0.0903915 0.0678208)
(0.262166 -0.090081 0.0490417)
(0.267474 -0.0953873 0.0646781)
(0.261254 -0.0915359 0.0741562)
(0.281241 -0.0973453 0.0487734)
(0.310285 -0.0898891 0.0693089)
(0.274849 -0.0931805 0.0515195)
(0.256973 -0.0972722 0.0695056)
(0.286612 -0.0907618 0.062632)
(0.305321 -0.0888088 0.0668064)
(0.280544 -0.0882216 0.0811548)
(0.286341 -0.0846945 0.0726438)
(0.309206 -0.0908433 0.0536287)
(0.301309 -0.0868126 0.0627785)
(0.33406 -0.0887421 0.0746159)
(0.282275 -0.0893739 0.0534855)
(0.273472 -0.0898482 0.0677404)
(0.285212 -0.0946092 0.0448798)
(0.331901 -0.0915871 0.0486825)
(0.281101 -0.0875921 0.0699466)
(0.322818 -0.0888569 0.066414)
(0.29958 -0.0855536 0.0666874)
(0.273171 -0.0896401 0.0488475)
(0.311079 -0.0913769 0.0478118)
(0.292519 -0.088358 0.0435737)
(0.268875 -0.0855467 0.06615)
(0.298507 -0.0899128 0.0693202)
(0.294889 -0.0915 0.0679878)
(0.294091 -0.0914098 0.0697593)
(0.285969 -0.08822 0.0680655)
(0.268788 -0.0891423 0.0696975)
(0.273686 -0.0910754 0.0574196)
(0.283351 -0.0890349 0.0569209)
(0.282245 -0.0878669 0.0619293)
(0.278159 -0.0859013 0.0550472)
(0.312466 -0.0885631 0.0673435)
(0.282752 -0.0863039 0.0562523)
(0.294251 -0.0940352 0.0551929)
(0.299008 0.0699216 -0.0222571)
(0.28654 0.0776867 -0.0317577)
(0.350082 0.0783102 0.0133149)
(0.248105 0.0751868 -0.0231151)
(0.19118 0.0757523 -0.00778134)
(0.265494 0.0751575 0.0111224)
(0.225965 0.0735254 -0.0349123)
(0.250897 0.0692519 0.0132413)
(0.214316 0.0792373 -0.00314903)
(0.240089 0.0820415 0.0216961)
(0.311012 0.0732318 0.000958068)
(0.365889 0.0738786 0.0129409)
(0.343628 0.0732895 0.0221139)
(0.384836 0.0639441 0.0187258)
(0.280554 0.0698974 -0.0436767)
(0.340245 0.0724509 -0.010036)
(0.403693 0.0758267 -0.00361069)
(0.333391 0.0790103 -0.0303297)
(0.342231 0.0751323 0.00672787)
(0.290481 0.0707465 -0.045898)
(0.309818 0.0710763 -0.0257454)
(0.321881 0.0690999 0.0311968)
(0.382788 0.070659 -0.0168347)
(0.405366 0.0733817 0.0313229)
(0.355627 0.077471 -0.0341169)
(0.339818 0.0752838 -0.046373)
(0.315766 0.07866 -0.0291597)
(0.348452 0.0734956 0.0141801)
(0.341035 0.0700987 -0.00507297)
(0.326523 0.0731552 -0.0118437)
(0.302331 0.0732494 0.0169379)
(0.322221 0.0745536 0.00651594)
(0.320259 0.0751238 0.00361437)
(0.315777 0.0745145 -0.0175819)
(0.320127 0.0703655 -0.0214807)
(0.349598 0.0747337 0.00639774)
(0.364767 0.0689026 0.00645295)
(0.354823 0.0738737 -0.00666543)
(0.356715 0.0698608 -0.0126867)
(0.281043 0.0760985 -0.0319056)
(0.0877638 -0.0545702 -0.0298019)
(0.167659 -0.0469904 0.0135056)
(0.237945 -0.0473986 0.0226105)
(0.00107267 -0.0498798 -0.00518789)
(-0.0380845 -0.0497834 0.020071)
(0.0454193 -0.0490606 -0.0153208)
(-0.0391686 -0.0543196 -0.0429654)
(-0.196156 -0.050419 0.0244104)
(0.0731115 -0.0547226 -0.00694721)
(0.185031 -0.0648314 0.0150669)
(0.127906 -0.0532007 -0.0106306)
(0.156486 -0.0494842 -0.00147838)
(0.199514 -0.0511827 0.0271236)
(0.14914 -0.0498724 0.00155634)
(-0.0366002 -0.054108 -0.067356)
(0.180913 -0.056015 -0.00562107)
(0.190362 -0.0429633 -0.0301915)
(0.265255 -0.0446272 -0.0301043)
(0.266668 -0.054893 0.00341646)
(0.0922433 -0.0604836 -0.0377979)
(0.0454894 -0.0499671 -0.0267992)
(0.147348 -0.0598894 0.0182083)
(0.168785 -0.0506041 -0.0545537)
(0.228638 -0.0478927 0.0398442)
(0.304833 -0.0499388 -0.0222337)
(0.161578 -0.0454676 -0.0293743)
(0.287291 -0.0431514 0.0190372)
(0.278903 -0.0506591 0.0421835)
(0.185019 -0.0532293 -0.0207158)
(0.107619 -0.0469841 -0.014556)
(0.124164 -0.0507044 -0.00485335)
(0.158842 -0.0464235 -0.00874201)
(0.245375 -0.0514306 -0.00520535)
(0.216725 -0.0546071 -0.027524)
(0.187595 -0.0540432 -0.00133873)
(0.253226 -0.0560413 0.0173842)
(0.221448 -0.0502129 0.0444897)
(0.12102 -0.0456638 -0.00788828)
(0.183549 -0.049996 0.0128179)
(0.112049 -0.0488361 -0.0264214)
(-0.0552301 0.0327422 -0.062538)
(0.131107 0.0360385 0.0083889)
(0.189453 0.0553728 0.00983428)
(-0.0568314 0.0542864 -0.0272617)
(-0.0305762 0.0388427 0.00326863)
(0.0152081 0.0375523 -0.0412497)
(-0.00826258 0.047451 -0.0552088)
(-0.238889 0.0295283 -0.0188667)
(-0.00665462 0.0235194 -0.0336312)
(0.1135 0.0439639 -0.0355998)
(0.0134441 0.045335 -0.0526117)
(-0.0281582 0.0476105 -0.0210198)
(0.0755703 0.041787 0.0105481)
(0.0136037 0.0470901 -0.0374581)
(-0.126242 0.0265271 -0.0903069)
(-0.00971265 0.0394072 -0.0440155)
(0.0202504 0.0407343 -0.0560277)
(0.162891 0.0373274 -0.0481942)
(0.136986 0.0554338 -0.0339983)
(-0.0681838 0.0448288 -0.0538789)
(-0.0467209 0.041322 -0.0781771)
(-0.0434836 0.0349841 -0.0443759)
(-0.0730532 0.0388586 -0.0793001)
(0.0495272 0.0422545 0.00832508)
(0.202328 0.0519003 -0.0404582)
(0.054595 0.0495928 -0.00479387)
(0.235622 0.0415102 0.0210657)
(0.191042 0.0594332 0.000997624)
(0.0920403 0.04684 -0.0234138)
(0.0400453 0.0511046 -0.00607306)
(0.0894603 0.0330152 -0.050396)
(0.0712324 0.0408157 -0.0678017)
(0.204452 0.0349717 -0.0286796)
(0.0968863 0.0505927 -0.0689445)
(0.0530828 0.0374102 -0.0254679)
(0.0744255 0.0466651 -0.0177971)
(0.120644 0.0574421 0.00217714)
(-0.0321683 0.0510465 -0.0184032)
(0.11645 0.0415338 0.0206278)
(0.0383209 0.0454383 -0.0708641)
(-0.119737 -0.0343179 -0.102119)
(0.124029 -0.0381902 -0.0240706)
(0.149629 -0.000102845 -0.0260307)
(0.0641179 -0.0195603 -0.032512)
(-0.0324323 -0.0268143 -0.0639544)
(0.0359658 -0.0306233 -0.0612102)
(0.0938391 -0.0229128 -0.0826447)
(-0.0464839 -0.0359444 -0.0170717)
(-0.0440388 -0.0480363 -0.0474556)
(-0.011223 -0.0303724 -0.079671)
(0.00983312 -0.0167879 -0.0640709)
(-0.0806063 -0.0149519 -0.0337624)
(0.0672779 -0.0322023 -0.0259125)
(0.163549 -0.0235377 -0.0201026)
(0.0133076 -0.0379091 -0.11382)
(-0.090145 -0.0259828 -0.0340242)
(0.0260913 -0.0347436 -0.0318113)
(0.0492173 -0.0295639 -0.0448903)
(0.0599428 -0.00673045 -0.0153335)
(-0.0287756 -0.0286008 -0.0629299)
(-0.0451006 -0.0274185 -0.112451)
(-0.159795 -0.0321891 -0.0488896)
(-0.101636 -0.0300619 -0.0498812)
(0.00274911 -0.0283218 0.00318868)
(0.172646 -0.018818 -0.0503557)
(-0.0048736 -0.016937 -0.0173112)
(0.0567773 -0.0182556 -0.00835829)
(0.170992 -0.017023 -0.0213597)
(0.143366 -0.0224853 0.00430627)
(0.101249 -0.0159373 -0.0111492)
(0.0658541 -0.0329393 -0.093907)
(0.0834545 -0.0297437 -0.0941203)
(0.091376 -0.0275201 -0.0200263)
(0.0805055 -0.0151376 -0.0955813)
(0.0485045 -0.0199593 -0.0778263)
(-0.0340236 -0.0173929 -0.0103469)
(0.102849 0.00051866 -0.0366337)
(-0.057153 -0.0176796 -0.00993697)
(0.151486 -0.0333341 0.040357)
(0.134363 -0.020091 -0.0581436)
(-0.0931491 0.00668657 -0.105916)
(0.0101064 -0.00569734 -0.0357854)
(0.171327 0.0343336 -0.06188)
(0.11808 0.0358166 -0.0373153)
(-0.0161653 0.0234026 -0.0863835)
(-0.0511151 0.0145367 -0.0488116)
(0.0855686 0.0264722 -0.0608865)
(-0.00624438 0.0165073 0.0100043)
(-0.0316249 0.0131776 -0.0428141)
(-0.0916248 0.0181108 -0.095207)
(0.0126402 0.0209438 -0.0583479)
(-0.0688247 0.0407754 -0.0431879)
(0.0275352 0.0043452 -0.0310457)
(0.149997 0.0190448 -0.0398631)
(0.10621 0.0122595 -0.0950847)
(-0.00696725 0.023759 -0.0405446)
(0.0330487 0.0157238 -0.041553)
(-0.0799717 0.0136887 -0.0448837)
(0.0807753 0.0356269 0.00181398)
(-0.0218623 0.0208728 -0.0806844)
(-0.035894 0.0303491 -0.0889494)
(-0.220953 0.0203727 -0.0391861)
(-0.120925 0.00684133 -0.0418214)
(0.00717924 0.0070259 -0.00649153)
(0.121094 0.0322617 -0.0469731)
(-0.000596539 0.0431153 -0.0261239)
(0.0135203 0.0185946 -0.0187452)
(0.0532865 0.03299 0.00107139)
(0.132687 0.0259849 -0.0170309)
(0.0621672 0.0420372 -0.0523268)
(-0.0310376 0.00820042 -0.118858)
(0.0720016 0.0145911 -0.0728104)
(-0.0218892 0.0375404 0.0112894)
(0.0360568 0.0283985 -0.0976912)
(0.0922986 0.0268284 -0.0728579)
(0.00292105 0.0311091 -0.00796019)
(0.088447 0.0473585 -0.0482886)
(0.0152376 0.0288694 -0.0482869)
(0.0458399 0.0132956 -0.0310987)
(0.103118 0.0261988 -0.0621519)
(-0.109838 -0.0233443 -0.09292)
(-0.0472897 -0.0468069 -0.0408343)
(0.0982382 0.000877922 -0.0170339)
(0.127641 0.00964893 -0.0347299)
(0.0511759 -0.00272212 -0.0716411)
(-0.0318097 -0.0170108 -0.0498048)
(0.102595 -0.0125552 -0.0259639)
(-0.10448 -0.00881195 -0.020959)
(0.0243015 -0.0186209 -0.0428209)
(-0.0467811 -0.0134389 -0.0922851)
(-0.0718776 0.002861 -0.0378286)
(-0.0177204 0.00222429 -0.0745577)
(0.0556896 -0.0295164 -0.00757318)
(0.0169235 -0.0167009 -0.0542074)
(0.048956 -0.0125646 -0.0687301)
(-0.00425027 0.00616472 -0.0475043)
(0.0525545 -0.00377356 -0.052562)
(-0.0554182 -0.0204459 -0.0520783)
(0.0814843 0.00875255 -0.0315338)
(0.0210593 0.00467937 -0.0515462)
(-0.0583937 0.00828607 -0.0773438)
(-0.161706 -0.0143695 -0.0435176)
(-0.148376 -0.0226573 -0.0450881)
(-0.0201082 -0.0213321 -0.0394546)
(0.0250021 0.0133937 -0.00769845)
(0.104384 0.00949869 -0.0298366)
(0.0177266 -0.0078054 -0.0366054)
(0.0274631 0.00300681 -0.00137196)
(0.1614 0.00491505 -0.0372665)
(0.113379 0.0137503 -0.0780474)
(-0.0444738 -0.0154423 -0.0754349)
(-0.0192926 -0.0200687 -0.0873306)
(0.0870812 -0.00560361 0.010917)
(0.0849415 -0.00559656 -0.0552639)
(0.0034564 -0.000723634 -0.0728246)
(0.033804 0.0052774 -0.0400476)
(0.0932745 0.0117646 -0.0357225)
(0.106363 0.00408103 -0.0447694)
(0.0892989 -0.0146485 -0.0714847)
(0.0240679 0.00902144 -0.070853)
(-0.0479945 0.00547647 -0.0824642)
(-0.0667122 -0.0270968 -0.0379949)
(-0.0583822 0.0173632 -0.0149522)
(0.0832019 0.0184042 0.0233075)
(0.0478471 0.0122759 -0.0747757)
(0.0525914 -0.0056495 -0.0242577)
(0.0783801 0.0241976 -0.0202749)
(-0.0800017 0.0218622 -0.0546922)
(0.00082203 0.0101041 -0.0746829)
(-0.0353307 0.0111985 -0.0773701)
(-0.141819 0.024178 -0.0469984)
(-0.0313848 0.0321715 -0.0903228)
(0.0651938 0.00143645 -0.0230092)
(0.109363 0.00603724 -0.0610354)
(-0.0347041 0.00675252 -0.0644208)
(-0.0589999 0.0216578 -0.0738778)
(0.101775 0.014392 -0.0552278)
(0.0807924 0.00109807 -0.0421848)
(0.0154685 0.0348268 -0.0449683)
(0.128836 0.021425 -0.0316432)
(-0.0830485 0.0366703 -0.0740176)
(-0.117925 0.0226651 -0.0105952)
(-0.178728 -0.00235673 -0.0426325)
(-0.0967814 -0.00682981 -0.0658285)
(0.0453191 0.0262804 -0.0375808)
(0.0737364 0.0411063 -0.0146124)
(0.0310823 0.0188795 -0.0538015)
(0.0564776 0.0176403 -0.0448652)
(0.160258 0.0111828 -0.0622117)
(0.11242 0.0375766 -0.0885763)
(0.063545 0.0166126 -0.112859)
(-0.03236 -0.00364464 -0.0743472)
(0.0580934 0.0175136 -0.0401384)
(0.0326287 0.031219 -0.0562611)
(-0.0398121 0.0292405 -0.0946762)
(0.0222582 0.0259787 -0.0814881)
(0.0635601 0.025537 -0.063939)
(0.048165 0.0345112 -0.0402753)
(0.170612 0.00161386 -0.075879)
(0.0483044 0.0333269 -0.0776716)
(0.0491147 -0.013903 -0.0412111)
(-0.0465458 -0.0372638 -0.0738707)
(-0.0367297 -0.00470252 -0.0603268)
(0.0500302 0.0164314 0.0182903)
(-0.0326295 0.00755055 -0.0827491)
(-0.00604666 -0.0162185 -0.0517829)
(0.0204422 0.0065521 -0.0241127)
(-0.0910561 -0.000610545 -0.0449282)
(-0.037436 -0.00548652 -0.0976366)
(-0.00977641 0.00494252 -0.0939481)
(-0.125637 0.0120715 -0.097281)
(-0.117466 0.00913953 -0.0837387)
(0.0575606 -0.0287091 -0.0295038)
(0.150391 -0.000266654 -0.0236988)
(-0.0577692 0.00353309 -0.0423644)
(-0.0401428 -0.00332074 -0.0877356)
(-0.0172387 -0.00669623 -0.0788858)
(0.134136 -0.0124303 -0.0403332)
(0.0508113 0.0103637 -0.0574593)
(0.0978681 0.0167564 -0.0312836)
(-0.0982218 0.0407494 -0.0872486)
(-0.00847947 0.00800244 -0.0547195)
(-0.0880622 -0.0152656 -0.0530845)
(-0.0493078 -0.0251802 -0.0389883)
(0.0567602 0.0214907 -0.100072)
(0.104648 0.0305277 -0.0222976)
(0.145391 0.00116145 -0.0356415)
(-0.00922457 0.0101322 -0.0762745)
(0.147426 0.0262983 -0.0545003)
(0.112929 0.0399876 -0.045835)
(0.102154 -0.00560612 -0.0782924)
(-0.00724633 -0.0124829 -0.0493518)
(-0.0335661 0.0149365 -0.0624437)
(0.0525715 0.0283957 -0.0414454)
(-0.0591178 0.0188593 -0.077355)
(-0.00412037 0.0082953 -0.0666953)
(0.0133017 0.0160792 -0.0535652)
(-0.0817319 0.0177927 -0.0561233)
(0.0605487 -0.00746698 -0.0270008)
(0.0104338 0.0365467 -0.0720308)
(0.120264 -0.00182079 -0.0953418)
(0.00335052 -0.021694 -0.0793889)
(-0.0620517 0.019971 -0.0999131)
(-0.0478201 0.0361148 -0.0226934)
(-0.0103269 0.00465098 -0.0683158)
(0.0451452 -0.00568105 -0.0864016)
(0.0621894 0.0334873 -0.0143436)
(-0.0460231 0.0316668 -0.0450699)
(-0.0999947 0.00552986 -0.058539)
(0.0478696 0.0166804 -0.0622482)
(0.0472491 0.0165053 -0.0692756)
(0.0376293 0.000106513 -0.0916882)
(0.0818405 -0.00783268 -0.0567432)
(0.0783057 0.0254373 -0.044824)
(0.043419 0.0268308 -0.0580005)
(0.0178941 0.0155898 -0.0465059)
(-0.0754907 -0.00645297 -0.068208)
(0.0940978 -0.0156164 -0.0581668)
(0.0189719 0.0385644 -0.0649273)
(0.0930013 0.0445025 -0.0533545)
(-0.0396906 0.0504841 -0.105278)
(0.0474502 0.0260463 -0.0420837)
(-0.0633148 0.00536828 -0.0541188)
(-0.047243 -0.0176924 -0.0490787)
(0.0760832 0.023161 -0.0496661)
(0.0579817 0.0340987 -0.0659648)
(0.17797 0.0211867 -0.0706729)
(0.0620838 0.016726 -0.100712)
(-0.0129255 0.0216393 -0.0777329)
(0.189547 0.0399966 -0.0250928)
(0.0965436 0.0342951 -0.0419148)
(0.109353 0.00662744 -0.029125)
(-0.125444 0.0238011 -0.0712552)
(-0.0113221 0.0349157 -0.0342451)
(0.0199852 0.0333274 -0.0615383)
(0.0551465 0.0170228 -0.0542022)
(0.0766098 0.0228244 -0.0566841)
(-0.0710434 0.024138 -0.0636263)
(-0.00351 0.00351775 -0.0653482)
(0.0647133 0.031503 -0.0696913)
(0.0818437 0.00193876 -0.110851)
(-0.0634604 -0.0132373 -0.0942859)
(-0.089005 -0.000510909 -0.0318296)
(0.0214186 0.0115562 -0.0818429)
(0.085398 0.00429555 -0.0462877)
(0.0305638 -0.00716077 -0.0734956)
(0.0724597 0.0152623 -0.0337473)
(-0.0268631 0.0237437 -0.0674597)
(-0.057127 -0.00957866 -0.0869224)
(0.140571 -0.00995559 -0.0207078)
(0.0832154 0.000615037 -0.0609536)
(0.0673738 0.0164022 -0.0655117)
(0.0582622 -0.0283862 -0.0381222)
(-0.017225 0.0216318 -0.0462337)
(0.0023381 0.0169135 -0.0804424)
(0.052576 0.00324778 -0.0749324)
(0.00363985 -0.00481376 -0.085651)
(0.0446592 -0.0198737 -0.0612074)
(-0.0258636 0.0238805 -0.0479869)
(0.0985367 0.0218873 -0.0714182)
(0.0163473 0.0387526 -0.0886635)
(0.0100104 0.0261582 -0.0728344)
(-0.0292689 0.00207099 -0.0422178)
(-0.0517154 -0.0144763 -0.0504164)
(0.0243211 0.0157757 -0.070516)
(0.0127363 0.0149604 -0.0990247)
(0.116539 0.00572519 -0.0467423)
(0.0547718 0.0210566 -0.0665249)
(0.00469525 0.0320572 -0.0872539)
(0.0265802 0.0494354 -0.00897765)
(-0.00441524 0.0175386 -0.0626872)
(0.141337 0.00805977 -0.047298)
(0.0180808 0.0165859 -0.0644919)
(0.0216866 0.0275502 -0.0444441)
(0.00118582 0.0257477 -0.0926023)
(0.0489484 0.00487579 -0.0566873)
(0.0731169 0.0281274 -0.0387801)
(0.0492755 0.0140127 -0.0423846)
(-0.0139616 -0.0125324 -0.0635221)
(0.105083 0.0185852 -0.0530231)
(0.0531806 0.0170382 -0.0397323)
(-0.0473309 0.00299449 -0.0823278)
(-0.0134607 0.00532864 -0.0117766)
(0.00608467 0.0167073 -0.0757547)
(0.0848831 0.0151165 -0.0353924)
(0.134201 0.000176571 -0.042088)
(0.0910774 0.0219523 -0.0298955)
(0.0492239 0.0458406 -0.0340892)
(0.0427438 -0.0134568 -0.10161)
(0.154412 0.00831962 -0.0192023)
(0.0573606 0.0298044 -0.0347271)
(0.124594 0.00837388 -0.0763158)
(0.00777189 0.00273353 -0.0715742)
(0.0440712 0.0451424 -0.0609767)
(-0.0550889 0.0372091 -0.0889192)
(0.146232 0.0176524 -0.0583139)
(-0.00243174 0.0173133 -0.105777)
(0.0260822 -0.00142227 -0.0633533)
(-0.0152658 0.0331741 -0.0928922)
(0.0538374 0.0470024 -0.07371)
(-0.0987994 0.0572577 -0.0960025)
(0.0706779 0.0259944 -0.106864)
(0.0249018 -0.0072724 -0.0595701)
(-0.0174807 -0.00780429 -0.0669523)
(0.00473908 0.0213482 -0.0654197)
(0.0110662 0.00844125 -0.090454)
(0.0615379 0.0173411 -0.0480941)
(0.0506067 0.0466115 -0.0794075)
(0.00439131 0.0113321 -0.0919789)
(0.0235361 0.0554607 -0.0436296)
(0.117587 0.0254081 -0.0141376)
(0.155374 0.00590786 -0.0938012)
(0.0527678 0.0280378 -0.0601249)
(0.0469493 0.0265529 -0.0423692)
(-0.0346853 0.025096 -0.032416)
(0.0572944 0.00961029 -0.0548581)
(0.0050581 0.0417283 -0.04823)
(0.0129313 0.0465725 -0.043587)
(-0.0721037 -0.00417206 -0.00661586)
(0.037149 0.0195937 -0.0411704)
(0.0317142 0.0196108 -0.054498)
(-0.0824674 0.00648833 -0.0821754)
(-0.0687753 -0.00295877 -0.0288475)
(-0.070876 -0.00234928 -0.0607936)
(-0.0131556 0.0049061 -0.0745528)
(0.0864132 -0.00925901 -0.08198)
(0.0150103 0.0177017 -0.0396713)
(-0.00489845 0.0368866 -0.0621011)
(0.0271174 -0.0291942 -0.0751044)
(0.0906555 0.00754732 -0.0358304)
(0.0377464 0.0380254 -0.00698082)
(0.000277398 0.0081263 -0.0928221)
(0.0311177 -0.00192205 -0.0514272)
(0.0314304 0.0418515 -0.0851589)
(-0.0782973 0.0202669 -0.0485762)
(0.114923 -0.0187364 -0.055368)
(0.00481591 0.0234715 -0.0858907)
(0.0660246 -0.0110264 -0.0669999)
(-0.071346 0.0298649 -0.0720507)
(-0.0231231 0.0414019 -0.0684513)
(-0.0825021 0.0568653 -0.119714)
(0.0962648 0.0136896 -0.0448641)
(-0.00300771 0.011296 -0.0557988)
(-0.000588689 0.000236243 -0.0751003)
(-0.0124592 0.0136161 -0.0293207)
(-0.0117281 0.0209483 -0.101442)
(-0.0530363 -0.00396118 -0.104309)
(0.119954 0.0125461 -0.0418918)
(0.0681866 0.0207298 -0.0491464)
(0.0580459 0.055598 -0.0616175)
(-0.0392314 0.0123142 -0.0484648)
(0.197398 0.00342487 -0.0742712)
(0.0685581 0.0367168 -0.0616427)
(0.021787 0.043983 -0.0610911)
(0.0352422 0.010502 -0.00800151)
(0.0176824 0.0221781 -0.0576177)
(-0.0247365 0.0463401 -0.0551993)
(0.0306594 0.0392468 -0.0512326)
(-0.0140755 0.00578692 -0.0272181)
(0.00836188 0.018882 -0.108807)
(0.0296183 0.0402002 -0.0613065)
(0.102758 0.0169077 -0.0261953)
(-0.0271913 0.0108761 -0.0438037)
(0.0672989 0.00920949 -0.0269405)
(0.0295144 0.00494213 -0.035394)
(0.0990497 -0.00498398 -0.0815272)
(0.00448282 0.0557021 -0.0640748)
(0.00688134 0.0524934 -0.0385448)
(0.0470778 -0.0213987 -0.0193478)
(-0.110327 0.0187601 -0.0765411)
(0.0194349 0.0570005 -0.0143944)
(-0.0446554 0.0266894 -0.0867583)
(0.0033596 0.00756997 -0.0598141)
(0.0535911 0.0544202 -0.0817134)
(-0.0206422 0.0321173 -0.0714922)
(0.0280637 0.0224371 -0.0256935)
(-0.000978867 0.0399281 -0.0868626)
(-0.0297634 0.0201733 -0.0876396)
(-0.0715375 0.0488552 -0.047123)
(0.00741915 0.0527747 -0.0604454)
(0.0244576 0.034717 -0.0559958)
(0.126746 0.0194372 -0.062768)
(-0.00518063 0.013863 -0.0817272)
(0.0121339 0.00297194 -0.0470247)
(-0.0159847 0.019908 -0.00968936)
(0.220962 0.0126753 -0.109108)
(0.0775698 -0.00159355 -0.115479)
(0.0386605 0.0330323 -0.061725)
(0.0560473 0.00242345 -0.0228818)
(0.0782934 0.0616218 -0.0493329)
(0.00629605 0.026509 -0.0557995)
(0.031598 -0.00534926 -0.0615101)
(0.0886755 0.0341785 -0.0454845)
(-0.0346453 0.0363819 -0.0934069)
(-0.0231475 0.0284495 -0.0437472)
(-0.01676 0.042947 -0.031241)
(-0.0482671 0.067596 -0.0926792)
(0.0956203 0.0354778 -0.0579855)
(-0.0625846 0.00968535 -0.015103)
(-0.0436822 0.0291085 -0.0739854)
(0.0877618 0.0137758 -0.0404819)
(0.149868 0.00445279 -0.0182308)
(0.048241 0.00596112 -0.0270729)
(0.10268 -0.00140641 -0.0646132)
(-0.0694218 0.0313992 -0.0504909)
(0.124937 -0.0243427 -0.0350558)
(0.0235574 0.0278257 -0.101669)
(0.0552944 0.0263709 -0.0279259)
(0.176465 -0.0149529 -0.0211437)
(-0.0553202 0.0281179 -0.0758199)
(0.00346582 0.0603036 -0.0384587)
(0.018209 0.011367 -0.0426549)
(-0.0331114 0.00299577 -0.0551175)
(-0.00108097 0.0551285 -0.0571527)
(0.0731776 0.0285857 -0.0815537)
(-0.0393753 0.00498198 -0.0552601)
(0.0129567 0.0288543 -0.0771052)
(-0.00696246 0.0165083 -0.0632494)
(-0.0189724 0.0263713 -0.0360394)
(-0.000148145 0.0367419 -0.0357328)
(0.0602901 0.0399506 -0.0652593)
(-0.00271843 0.0376415 -0.0612862)
(0.0698569 0.00543768 -0.0454916)
(0.0219966 -0.013805 -0.0504079)
(0.00653024 0.0199975 -0.0687149)
(0.125561 -0.00235497 -0.0976994)
(-0.00284129 0.00503174 -0.0581923)
(0.0248609 0.0216805 -0.0537807)
(-0.0227116 0.015585 -0.0278951)
(0.0609134 0.062656 -0.0362932)
(0.136484 -0.00631736 -0.0178053)
(0.0318367 0.00809365 -0.0709161)
(0.0351687 0.0398787 -0.0589179)
(-0.0172452 0.0481065 -0.0808952)
(-0.00421091 0.0124623 -0.0393529)
(-0.0477587 0.0316234 -0.0336983)
(0.0255877 0.0481596 -0.0941467)
(0.0619869 0.0316341 -0.0488289)
(0.0391398 0.0327186 0.00218354)
(-0.0530033 0.0163481 -0.0367624)
(0.0745799 -0.000806537 -0.0181642)
(0.0941929 0.00895508 -0.0427631)
(0.0373133 0.0176533 -0.0513402)
(0.0449595 0.0257775 -0.0496799)
(0.0225024 0.0105716 -0.051094)
(0.152773 -0.00563921 -0.0367014)
(0.10674 0.0231322 -0.0529009)
(0.0630729 0.027789 -0.0729507)
(0.139727 0.00317993 -0.0140865)
(-0.074625 0.0283971 -0.0627176)
(-0.00279451 0.0629063 -0.0797007)
(0.0791752 0.0251473 -0.0526093)
(-0.0606732 0.00456593 -0.0316376)
(0.0127775 0.0301288 -0.0637412)
(0.112857 0.0254475 -0.0465648)
(0.0116124 0.0403992 -0.0323152)
(-0.020913 0.0356387 -0.0783575)
(-0.0370945 0.0403074 -0.0585091)
(0.0529027 0.0394353 -0.0212839)
(-0.00703408 0.0430044 -0.0734377)
(-0.0150315 0.0438673 -0.0444881)
(0.0618056 0.0355148 -0.0729458)
(0.0205282 0.00990115 -0.0401953)
(-0.0153358 0.0137813 -0.0575963)
(0.00676732 0.00725502 -0.0705388)
(0.00118916 0.0328262 -0.0823962)
(0.00704513 0.00993921 -0.0324604)
(0.00759012 0.0341061 -0.0172439)
(0.0087891 0.00589352 -0.00381342)
(0.0387927 0.0252346 -0.0464191)
(0.11901 0.0185902 -0.0521447)
(-0.0275065 0.0129525 -0.0769357)
(0.0936155 0.0313303 -0.0832452)
(-0.0414851 0.0355382 -0.0576115)
(0.0163206 0.0292298 -0.035685)
(-0.0733053 0.0428025 -0.0767873)
(0.0554377 0.0389182 -0.0838579)
(0.0404519 0.0385229 -0.0521303)
(-0.0209343 0.0432603 -0.000658867)
(0.048333 0.0191559 -0.0288875)
(0.130181 0.0207996 -0.0472937)
(0.0379986 0.0279939 -0.0313871)
(0.0459163 0.00454338 -0.085004)
(0.0315851 0.00982456 -0.0411992)
(0.069569 0.0131412 -0.0361353)
(0.0500179 -0.0147554 -0.0416737)
(0.147302 0.0188642 -0.0652627)
(0.077683 0.0322735 -0.0797988)
(0.0713742 0.0117957 -0.0254213)
(0.00207807 0.0155251 -0.00388235)
(0.0369504 0.0517284 -0.0673395)
(0.0619281 0.0215456 -0.0655552)
(0.0133328 0.0174798 -0.044806)
(-0.0102546 0.0398017 -0.0406706)
(0.0700216 0.0276542 -0.0162938)
(0.110498 0.0164727 -0.0684621)
(-0.0295948 0.0249845 -0.0610248)
(0.00263887 -0.00337185 -0.0553415)
(0.0763694 0.0332952 -0.0496077)
(-0.0105501 0.0379833 -0.0502037)
(0.00296687 0.0155487 -0.0490299)
(0.0092598 0.0319936 -0.0440129)
(0.016454 0.0267804 -0.0418751)
(-0.0471322 -0.0011164 -0.0389321)
(-0.0288172 0.0276609 -0.0441358)
(-0.0277543 0.0263146 -0.0656697)
(-0.0501824 0.0325104 -0.0350399)
(-0.00455937 0.0302306 -0.0490066)
(0.0192755 0.00689976 -0.0230436)
(-0.0187705 0.0470089 -0.0801656)
(0.0175385 0.022618 -0.0686646)
(0.0315937 0.017138 -0.0448484)
(0.117437 0.0252289 -0.0402562)
(-0.0134261 0.0380971 -0.0443561)
(0.0420893 0.0231436 -0.0466101)
(-0.0398084 0.0257843 -0.0780138)
(-0.0186009 0.0288042 -0.0762877)
(0.0707799 0.0307595 -0.0285479)
(-0.0347637 0.0227663 -0.0344056)
(0.0322056 -0.00963579 -0.037018)
(0.0295025 0.0303468 -0.055776)
(0.054233 0.0277037 -0.0424971)
(0.0670151 0.0141387 -0.0618266)
(-0.0137816 0.0141829 -0.00751945)
(0.000949038 0.0128654 -0.00899911)
(-0.00416162 0.000965628 -0.0236314)
(0.0898111 0.0261239 0.00526442)
(0.110121 0.0465785 -0.0631795)
(0.091202 0.0302984 -0.0364091)
(0.0555921 0.0172018 -0.0135006)
(0.0140888 0.0522519 -0.0601362)
(0.0200012 0.0308383 -0.0393365)
(-0.00675625 0.0238033 -0.00925297)
(0.000651029 0.0335416 -0.047939)
(0.11401 0.0239329 -0.0663952)
(0.0769004 0.0389453 -0.0432833)
(0.0788024 0.0304356 -0.0529121)
(0.0515175 0.0039024 -0.0337964)
(0.00674056 0.0286641 -0.0399289)
(-0.0263264 0.0297523 -0.0351209)
(0.100437 0.0224882 -0.0475934)
(-0.0169757 0.0527534 -0.0291599)
(0.0212673 0.0157095 -0.0333477)
(0.00849778 -0.00791358 -0.0173158)
(0.00810739 0.0319166 -0.0465731)
(0.0279409 0.0251798 -0.0469625)
(-0.0417657 0.0230606 -0.03334)
(0.0444493 0.0153293 -0.0487098)
(0.00303604 0.0127294 -0.0255351)
(0.023576 0.0100655 -0.0884282)
(0.011499 0.00695304 -0.0560659)
(0.0599207 -0.0203607 -0.0408618)
(0.062124 0.0309348 -0.032673)
(0.0543783 0.026988 -0.0368795)
(0.0792971 0.00880573 -0.0457079)
(0.0213085 0.0251032 -0.0361419)
(0.0457436 0.0233815 -0.0629962)
(0.0302389 0.0392075 -0.0390309)
(0.0242765 0.0305604 -0.0219906)
(-0.00406226 0.0182659 -0.0589731)
(0.0295169 0.0274705 -0.0241483)
(0.0684577 0.0169723 -0.0398825)
(0.0383779 0.00573754 -0.0417746)
(-0.00705856 0.0218157 -0.0155247)
(0.0144097 0.00879584 -0.0366197)
(0.000943199 -0.0172666 -0.0189732)
(0.0853887 0.0325412 -0.024191)
(0.110517 0.0336321 -0.0556392)
(0.0817846 0.0175624 -0.0444345)
(0.0605337 0.00468606 -0.0136465)
(-0.015996 0.0532671 -0.0437092)
(0.0527901 0.0206344 -0.0417262)
(0.00659516 0.0202927 -0.0212243)
(0.0700349 0.00850647 -0.0329962)
(0.10364 0.0146144 -0.0473389)
(0.0830889 0.00741731 -0.0363971)
(0.0273893 0.0290703 -0.00152645)
(0.021329 0.0151583 -0.0195211)
(0.00366122 0.0440137 -0.017006)
(0.053323 0.00900868 -0.0151131)
(-0.00627708 0.0105019 0.0124685)
(-0.0329736 0.0485255 -0.00616178)
(0.0606181 0.0239844 -0.0294955)
(0.0100664 -0.00694789 -0.0144483)
(-0.0116242 0.0142144 -0.0190966)
(0.00712645 0.0339461 -0.0357216)
(0.00697383 0.0265916 -0.0148625)
(0.10822 -0.00962106 -0.037025)
(0.0418738 0.0124625 -0.0257964)
(0.0249697 0.0246239 -0.0419131)
(0.0228624 0.0164271 -0.0353899)
(0.0264278 0.0130277 -0.0180271)
(0.0289231 0.0388383 0.00812538)
(0.0703956 0.0312742 -0.0156353)
(0.0957491 0.00529409 -0.0155952)
(0.0117491 0.0511861 -0.00945373)
(0.0196072 0.0446088 -0.0412669)
(0.0291263 0.0256161 -0.0439909)
(0.0566587 0.0408975 -0.0232542)
(0.0158867 0.0048923 -0.0203143)
(0.0464425 0.0310587 -0.0171367)
(0.0341617 0.0289781 -0.0118746)
(0.0247408 0.0412069 -0.0231489)
(0.0209796 0.0300806 -0.00932052)
(0.0107055 0.0135982 -0.0468663)
(0.0158508 -0.00466685 -0.0201859)
(0.080971 0.0214403 -0.0264438)
(0.0926089 0.0237975 -0.0417485)
(0.0663163 0.0146024 -0.0301584)
(0.013323 0.0267933 0.0136096)
(0.0102868 0.0302666 -0.0358779)
(0.0178125 0.0436032 -0.0204713)
(0.0548606 0.0185362 -0.0279422)
(0.064464 0.0129944 -0.0397614)
(0.0943254 0.0133393 -0.0455547)
(0.0512757 0.0145368 -0.00432766)
(0.0189352 0.0612862 0.00146727)
(0.0120939 0.0344415 -0.0114569)
(0.0265146 0.0231374 -0.0188964)
(-0.0281369 0.0175411 -0.00712268)
(-0.00616181 0.0230358 -0.0181333)
(-0.0157986 0.0581276 -0.0103176)
(0.059905 0.0244354 -0.0442775)
(0.0152782 -0.00265488 -0.0115265)
(-9.90573e-05 0.017678 -0.0149129)
(0.0298633 0.0178265 -0.025226)
(0.0625495 0.0370435 -0.0159206)
(0.070294 0.00266531 -0.0419698)
(0.0289882 0.0225926 0.010463)
(0.0196098 0.0220025 -0.00942493)
(0.0755778 0.00783097 -0.0413297)
(0.00520838 0.00496129 0.00126087)
(0.0721786 0.025879 0.00737458)
(0.0447832 0.0151366 -0.00594792)
(0.022456 0.0119615 -0.0230444)
(0.0166081 0.0242874 -0.0248021)
(0.0154007 0.0375764 -0.0588294)
(0.0270838 0.000189678 -0.0200659)
(0.0436656 0.0143728 -0.017097)
(0.0239646 0.0332368 -0.0159256)
(0.0478499 0.0299469 -0.0189298)
(0.0602942 0.0273687 -0.0259533)
(0.0423985 0.0162735 -0.0358433)
(0.0506882 0.0194587 -0.0124687)
(0.042466 0.00659115 -0.00905382)
(0.0761845 -0.0145578 -0.0345072)
(0.092208 0.0283275 -0.0132634)
(0.106057 0.0286136 -0.0211453)
(0.0723693 0.0164584 -0.0126053)
(0.0349884 0.0382037 -0.00245295)
(0.00832078 0.0338514 -0.0142839)
(0.00756383 0.0429705 -0.0417945)
(0.0788421 0.0106583 -0.0303436)
(0.0550891 0.00180959 -0.030374)
(0.0903033 0.0134428 -0.0353743)
(0.0211349 0.0257083 -0.0165281)
(0.0280307 0.0498787 0.00234771)
(0.0255736 0.0438829 -0.00106791)
(0.0445262 0.0389419 -0.0182339)
(0.0361266 0.0213591 -0.0126718)
(0.0577846 -0.0123816 -0.0205559)
(0.0178636 0.0518162 -0.0068926)
(0.0816397 0.0234895 -0.0392425)
(0.0618004 -0.00162618 -0.0100587)
(0.00886229 0.0122324 -0.0238734)
(0.0457401 0.0177288 -0.0140498)
(0.0501617 0.0366062 -0.0392057)
(0.0939109 0.0117908 -0.0305381)
(0.0514637 0.00992522 0.000922494)
(0.0816789 0.00169274 -0.0264135)
(0.0792013 0.00512781 -0.0234822)
(0.0490834 0.00534805 -0.0133243)
(0.077735 0.0126842 0.00478622)
(0.0379045 0.0314701 -0.0159508)
(0.0229297 0.00573486 -0.030866)
(0.0314957 0.0415941 -0.0390106)
(0.0126413 0.066039 -0.0389168)
(0.0760465 -0.00279649 -0.0119764)
(0.0657504 0.0280201 -0.00411894)
(0.034422 0.0229338 -0.0111934)
(0.0466595 0.0272098 -0.0198017)
(0.072229 0.0381245 -0.0137145)
(0.0551897 0.0333741 -0.0161479)
(0.0724405 0.017188 -0.0124401)
(0.0350758 0.0225803 -0.0147208)
(0.048044 -0.00316287 -0.0257109)
(0.063222 0.0247537 -0.00911776)
(0.0957656 0.0361808 -0.0281813)
(0.0708603 0.0122332 -0.0121478)
(0.0294028 0.0377218 -0.00334294)
(0.00948288 0.0310037 -0.0192214)
(0.0334324 0.0301491 -0.0457421)
(0.0699773 0.0142064 -0.0377469)
(0.050885 0.0212706 -0.0152406)
(0.0517591 0.0227661 -0.0107454)
(0.058956 0.0101666 -0.0330182)
(0.0372192 0.0433075 -0.0123898)
(0.0372907 0.0434326 -0.00528489)
(0.0579928 0.0142098 -0.00241583)
(0.0486685 0.0325519 -0.00460177)
(0.0379002 0.033976 -0.0225861)
(0.0249233 0.0451216 -0.000614357)
(0.0870646 0.0149853 -0.0301612)
(0.0853627 0.0134271 -0.013596)
(0.04541 0.0144303 -0.0174518)
(0.0605558 0.0113255 -0.0165545)
(0.0472798 0.0326468 -0.0337301)
(0.0805081 0.0249205 -0.0344922)
(0.0883385 0.019589 -0.0271601)
(0.0904128 0.012172 -0.00591246)
(0.0773618 0.0195272 -0.00781825)
(0.0690338 0.0179908 -0.0232148)
(0.0807941 0.0276037 -0.0098277)
(0.0518644 0.0272797 -0.00967781)
(0.0476518 -0.00123002 -0.0271816)
(0.00238026 0.0332978 -0.0295145)
(0.0420339 0.0337469 -0.0378374)
(0.0948413 -0.00168038 -0.00515624)
(0.0613649 0.0228519 -0.00144955)
(0.0497174 0.0397547 -0.0100912)
(0.0538005 0.0287638 -0.0158143)
(0.0869444 0.0227053 0.00266301)