/*--------------------------------*- C++ -*----------------------------------*\
  =========                 |
  \\      /  F ield         | OpenFOAM: The Open Source CFD Toolbox
   \\    /   O peration     | Website:  https://openfoam.org
    \\  /    A nd           | Version:  10
     \\/     M anipulation  |
\*---------------------------------------------------------------------------*/
FoamFile
{
    format      ascii;
    class       surfaceScalarField;
    location    "7";
    object      phi_0;
}
// * * * * * * * * * * * * * * * * * * * * * * * * * * * * * * * * * * * * * //

dimensions      [0 3 -1 0 0 0 0];

internalField   nonuniform List<scalar> 
300480
(
0.000103621
-2.53103e-05
4.5035e-05
9.08418e-05
4.58049e-05
2.66529e-05
8.70823e-05
1.26808e-05
5.35358e-05
7.21361e-05
1.11962e-05
6.5335e-05
6.68972e-05
1.61823e-05
3.92081e-05
7.70907e-05
1.70975e-06
1.63046e-05
7.72e-05
-2.28538e-05
4.17661e-05
8.38479e-05
-7.33895e-06
3.22108e-05
7.99281e-05
1.13091e-05
2.91147e-05
6.9164e-05
2.99547e-05
4.11384e-05
8.10465e-05
2.30154e-05
3.17372e-05
8.01549e-05
2.40396e-05
3.71043e-05
8.03688e-05
-8.41259e-07
4.28132e-05
9.16809e-05
-1.04553e-05
4.5684e-05
9.22438e-05
2.17195e-05
2.3724e-05
8.96589e-05
2.66053e-05
2.48075e-05
8.74689e-05
6.8989e-06
4.60054e-05
7.89594e-05
8.44632e-06
4.74573e-05
8.68963e-05
-3.24094e-07
3.93276e-05
9.03968e-05
-9.94968e-06
3.60637e-05
8.73222e-05
5.13495e-06
2.08207e-05
7.99785e-05
-4.97295e-06
3.17066e-05
8.64483e-05
-9.85266e-07
5.54138e-05
8.27706e-05
-1.64184e-05
7.08188e-05
7.94589e-05
1.82064e-05
3.6708e-05
9.25851e-05
-2.54561e-06
1.09869e-05
8.91038e-05
2.48355e-05
1.432e-05
7.73573e-05
5.85605e-06
4.70372e-05
7.30594e-05
-2.00526e-05
5.51981e-05
7.09605e-05
-8.039e-06
5.92896e-05
5.83027e-05
2.3709e-05
5.19366e-05
5.90399e-05
4.39697e-05
1.00696e-05
7.26928e-05
-8.32377e-06
2.50023e-05
7.38177e-05
1.89196e-05
4.12153e-05
6.39986e-05
-4.30627e-06
4.14989e-05
7.34151e-05
1.4854e-06
2.30672e-05
8.67466e-05
-2.94694e-05
4.65967e-05
7.15069e-05
2.3537e-05
3.3398e-05
7.68437e-05
-6.81811e-08
3.88752e-05
-3.04228e-05
4.28137e-05
0.000140778
-5.54415e-05
-1.06324e-05
0.00013608
0.000111906
-4.17273e-05
0.000136152
4.81458e-05
-6.72934e-06
0.000138079
-3.22331e-05
7.27172e-05
0.000100176
9.00889e-05
2.89523e-05
6.51095e-05
2.84547e-05
-3.33608e-05
6.49491e-05
-8.29427e-05
1.88254e-05
4.88751e-05
-2.6708e-05
1.20081e-05
9.42332e-05
-2.50662e-05
-2.0742e-05
0.000118965
4.96674e-05
2.70575e-05
0.000154451
3.14428e-05
1.71554e-05
0.000154497
7.21305e-05
-4.41106e-06
0.000152431
2.20705e-06
-1.02301e-05
0.000148795
-4.52931e-06
1.93501e-05
0.000117104
7.17445e-05
-3.71591e-05
0.00013998
5.23558e-05
-2.62972e-05
0.000129583
5.97596e-05
-2.41674e-05
0.000136501
-1.3551e-06
1.72086e-05
0.0001422
1.61875e-05
1.08259e-05
9.44293e-05
3.39642e-05
-1.26728e-05
4.79093e-06
0.000122524
-4.39018e-05
9.60766e-06
-8.76684e-05
7.07765e-05
8.95862e-05
-7.12682e-05
2.95085e-05
7.96439e-05
-5.94219e-05
6.61849e-05
9.57489e-05
7.46825e-07
1.70327e-06
0.000101728
3.15347e-05
-3.85987e-05
7.53229e-05
7.14518e-05
-4.33584e-05
4.24001e-05
1.88253e-05
3.52239e-05
2.6268e-05
-6.69338e-05
4.40084e-05
5.7692e-05
-4.66395e-05
0.000117762
8.18109e-05
3.85009e-05
8.85576e-05
0.000120544
0.000113011
-3.30937e-05
0.000133342
-5.15137e-05
-6.13421e-06
0.000114427
6.16681e-05
1.67938e-05
9.98937e-05
2.00031e-05
-1.32198e-05
0.000111433
-7.1426e-07
-3.21593e-05
0.000136063
-5.55957e-05
1.74221e-05
0.000131571
3.72404e-05
1.90785e-06
0.000129658
5.86234e-05
-1.16778e-05
-3.79714e-05
7.87546e-06
7.84297e-05
-0.000131152
-2.77033e-05
9.23604e-05
0.000171017
-0.000124601
6.66096e-05
9.20227e-05
-1.3747e-07
8.23493e-05
-0.000100313
6.15342e-05
3.36787e-05
0.00022612
2.5619e-05
-3.32076e-05
-1.12035e-05
-1.09647e-05
-5.60383e-05
-0.000113567
3.98174e-05
-7.33646e-05
-3.37331e-05
-6.86297e-07
6.26254e-05
-9.07011e-05
-4.3641e-05
0.00011382
3.38753e-05
2.81691e-05
0.000153659
1.59916e-05
2.37698e-05
0.000147289
0.000124585
-2.64769e-05
0.000174794
-3.69777e-05
3.00879e-05
0.000151745
2.73814e-05
2.80128e-05
7.45218e-05
0.000168062
-6.03854e-05
0.000101704
8.73265e-05
-2.19218e-05
7.5107e-05
0.000105218
-3.86997e-05
0.000107995
-7.32526e-05
1.26093e-05
6.40518e-05
0.00010386
-1.91557e-05
-2.15833e-05
0.000118177
-2.96735e-05
-3.98424e-05
0.000167486
2.57129e-06
-5.51262e-05
-0.000166792
7.88122e-05
-4.53204e-05
-7.0724e-05
2.74764e-05
2.16028e-05
-0.00016679
6.32095e-06
0.00011375
-8.17957e-05
7.55569e-06
7.11664e-05
0.00016312
-3.90333e-05
-1.71564e-05
0.000131197
1.77666e-05
-9.74014e-05
0.000100125
5.89325e-05
-0.000103113
-9.70253e-05
8.12094e-05
-1.97175e-05
-0.000147225
0.000126913
4.42373e-05
-3.79107e-05
9.22737e-05
9.2068e-05
0.00011518
-7.20671e-05
0.000152231
-8.7192e-05
3.4954e-05
0.000172696
3.64991e-05
4.16663e-05
0.000129072
8.6959e-05
-8.28131e-07
0.00010149
5.8911e-05
-2.64683e-05
0.000112808
-4.24968e-05
2.76748e-05
0.000125088
3.741e-05
2.8057e-05
6.61446e-05
0.000200102
-1.87908e-05
-5.20213e-05
-1.79914e-05
3.41664e-05
-0.000238167
-5.30666e-05
3.20957e-05
0.000199053
-0.00011713
-7.81651e-05
0.000188016
5.61221e-05
9.22697e-06
-0.000225267
-1.99162e-05
4.23644e-05
0.000246334
2.45786e-05
-8.2145e-05
3.22505e-05
3.04598e-05
-0.000120069
-0.000125491
2.04684e-05
-0.000125079
-4.0795e-05
1.71975e-05
-1.73932e-05
-0.000155201
-5.79241e-05
5.08111e-05
1.61045e-05
-3.63207e-05
5.78917e-05
6.3844e-05
-5.38804e-05
1.41367e-05
0.000187499
-6.4533e-05
8.33937e-05
-0.000175031
0.000142573
8.86879e-05
1.78156e-05
7.31281e-05
-2.0997e-07
0.000256864
-2.73265e-05
-7.68783e-06
0.000125022
-1.31706e-05
-5.39861e-05
0.000108355
2.22481e-06
-1.40772e-05
-0.000100406
-6.58988e-05
-9.19366e-05
0.000253956
-7.27e-05
-0.000106418
7.45466e-05
-1.6656e-05
-1.1314e-05
-2.04253e-05
-1.49542e-05
-8.3053e-05
-0.000114103
6.45936e-06
-0.000103659
-7.19728e-06
-3.4511e-05
4.00988e-05
-0.000325169
-6.68759e-05
0.000116984
-0.000152827
2.0873e-05
8.41252e-05
0.000267258
-1.97645e-05
1.79045e-06
0.000200635
3.53008e-05
-5.49792e-05
0.000143762
6.98788e-05
-4.93099e-05
-0.000124893
7.27173e-05
-2.14228e-05
-0.000211299
8.13278e-05
1.32647e-05
-7.29512e-05
-6.86418e-06
3.46767e-06
5.61798e-05
-7.96523e-05
9.23351e-05
-3.24385e-05
1.61745e-05
0.000184628
-2.3352e-05
6.38488e-06
0.000143787
0.000179143
1.91755e-05
7.62072e-05
0.00019639
4.35923e-05
3.71761e-05
8.04384e-05
-6.77748e-05
3.9877e-05
4.87903e-05
-1.34949e-05
6.53574e-06
0.000259594
-2.71039e-05
-6.66109e-05
-9.83118e-05
1.16829e-05
-0.000130259
-6.74291e-05
1.62151e-05
0.000160379
-5.53392e-05
-4.05779e-05
0.000216263
4.09557e-05
-6.092e-06
-0.000291141
9.95264e-06
4.78058e-05
0.000236044
1.01935e-05
5.05409e-06
-3.54468e-07
6.49149e-05
-1.52111e-05
-0.000107842
-4.14137e-05
-4.57418e-05
2.45037e-05
-1.55888e-05
-0.000122212
-2.65395e-05
-2.2026e-05
-0.000129646
4.97142e-05
-5.32237e-05
-0.000101083
0.000116929
-7.84515e-05
-7.08463e-05
0.000216212
-2.27606e-05
3.07505e-05
-0.000306854
0.00010904
7.34302e-05
-5.36029e-05
8.59729e-05
1.37281e-05
0.000319771
-3.24675e-05
-1.7411e-05
0.00019322
5.37591e-05
-5.59105e-05
0.000173234
2.99299e-05
-4.49755e-05
-6.8844e-05
-0.000119166
-4.33057e-05
0.000362594
-4.28092e-05
-8.247e-07
-3.58554e-05
3.22136e-05
-1.01035e-05
-0.000134848
-7.09629e-05
-9.04598e-05
-2.30109e-05
1.73662e-05
-3.36292e-05
-5.3703e-05
3.53497e-06
3.8679e-05
-0.000391466
-2.72862e-05
2.39299e-05
-0.000159319
-4.60829e-05
3.1266e-05
0.000222353
-2.23587e-06
1.68501e-05
0.000228989
-3.8937e-05
5.08384e-05
6.30574e-05
9.13558e-05
7.64914e-05
-0.000134098
-5.00194e-06
-1.29329e-05
-0.000142261
5.90127e-05
-7.87806e-05
2.12945e-05
-0.000102443
-9.85603e-05
6.92387e-05
-7.06245e-05
-1.81044e-05
-7.91839e-05
-0.000102571
5.33572e-05
-8.31346e-05
-6.13464e-06
5.52209e-05
0.000190625
-3.19529e-05
3.24112e-05
0.000322298
7.6798e-05
-5.17828e-05
0.000200064
-0.000116036
4.51528e-05
-9.36824e-05
-4.47722e-05
0.000167756
0.000146403
1.93779e-05
1.31441e-06
-2.41103e-05
-1.08759e-05
-2.40351e-05
-4.55096e-05
5.63803e-05
-4.22914e-06
-5.62759e-05
0.000103135
0.000141909
2.75914e-05
8.85856e-05
-0.000291917
4.97011e-05
8.0323e-05
0.000284257
3.59287e-05
3.42915e-05
8.99424e-06
3.47522e-05
-5.65623e-06
-8.89438e-05
-5.19464e-05
-2.39323e-05
0.000119093
-8.82446e-05
-0.000134762
0.000174664
-4.04625e-05
-0.000155886
2.91196e-05
1.03574e-05
-8.78737e-05
0.000149267
-1.48538e-05
2.13998e-06
0.000107741
7.00079e-05
4.61659e-05
-0.000372754
2.12787e-05
5.87943e-05
-0.00013211
2.91083e-05
6.21847e-05
0.000236778
-3.25181e-05
5.29388e-05
0.000267514
-5.00836e-06
9.64819e-06
0.000329765
2.00388e-05
-1.94465e-05
-5.53224e-05
-4.20758e-05
3.48317e-05
0.000298021
7.56634e-06
8.12085e-05
-3.84904e-05
4.92664e-06
-3.53501e-05
-9.6838e-05
-4.08098e-05
-0.000135632
0.000111874
1.30437e-05
-9.05163e-06
-0.000147823
2.0863e-05
6.6931e-05
-0.000474748
-4.44999e-05
8.74217e-05
-0.000205253
-0.000115366
8.18018e-05
0.000139052
-5.90337e-05
-1.684e-05
0.000293894
-2.43165e-05
5.79111e-05
-3.19406e-05
6.26506e-05
0.000136019
-0.000135002
-8.11723e-05
-1.05943e-05
3.98651e-05
-1.28595e-05
-9.58887e-05
0.000148767
-0.000182839
-7.96905e-05
6.48596e-05
-2.11699e-05
-6.34285e-05
-9.90656e-05
-8.33899e-05
5.32941e-06
-0.00017707
-5.76234e-05
4.84172e-05
0.000133346
-5.84161e-05
-4.8335e-05
0.000477467
3.65889e-05
-2.71503e-05
0.000100154
-2.68775e-05
0.000112813
-0.000236694
-6.95291e-05
0.000128718
6.60151e-05
-3.97363e-05
8.36533e-05
-1.71923e-05
-4.18962e-05
-0.000148862
-0.000116848
6.12249e-05
-7.70482e-05
2.0509e-05
0.000119286
7.79088e-05
0.000114684
0.000122139
-0.000323672
1.85473e-05
0.000212779
0.00022792
2.5798e-05
0.000246523
8.31592e-06
3.92085e-06
2.93621e-05
0.000126681
1.55939e-05
-8.31611e-05
0.000225072
-7.93051e-05
-9.19737e-05
0.000228897
-6.2157e-05
-8.7627e-05
-6.5312e-05
6.53502e-05
-0.000106167
0.000267021
-9.32906e-05
-1.14842e-05
-8.5869e-05
3.24281e-05
-2.20068e-05
-0.000313436
-6.17062e-05
-0.000110931
-5.65343e-05
-9.59846e-05
-8.03613e-06
6.23765e-05
-9.52252e-05
9.5163e-05
0.000291493
-6.42998e-05
7.66348e-05
0.000351856
5.82593e-05
3.85835e-05
-8.49506e-05
2.70577e-06
7.58816e-05
0.000210754
-2.50376e-08
9.36471e-05
-1.2915e-05
-3.77911e-05
-9.36581e-05
6.47513e-05
-5.56485e-05
-0.000224199
0.000306235
-2.10756e-05
-0.000155951
-0.000232348
-2.21784e-05
7.97672e-06
-0.000495346
-8.95562e-05
9.56155e-05
-0.000262908
-7.56741e-05
9.74697e-05
-1.29687e-05
-5.0681e-06
6.50882e-05
0.000275066
-7.87098e-05
3.20581e-05
-3.3227e-05
8.09819e-07
0.000112109
-8.00258e-05
-9.21234e-05
3.35968e-05
2.98968e-05
8.32257e-05
-8.57646e-05
0.000262135
-0.000119073
-7.07595e-06
4.01146e-05
-0.000117693
-3.18502e-05
5.61439e-06
-0.000101483
-3.93107e-06
-0.000310854
-0.000123719
-3.31574e-06
0.000192867
-0.000104837
-0.000146391
0.000619338
-1.07678e-05
-1.98574e-05
-2.91128e-05
-2.59658e-05
9.35095e-05
-0.0001883
-0.000189016
5.69191e-06
0.000155021
-0.000105546
0.000148343
2.44242e-05
-0.000154454
2.07066e-05
-7.48871e-05
-8.52441e-06
-0.000147066
-2.29634e-05
1.22735e-05
1.67942e-05
4.04756e-06
-5.90819e-05
-0.000218643
6.00859e-05
0.000167244
5.74943e-05
-2.43908e-05
0.000267668
-0.000133341
-9.06922e-05
0.000129178
0.000358045
2.50233e-05
3.3783e-05
0.00024636
-4.98618e-05
6.65649e-05
3.79514e-05
-5.45758e-05
2.13861e-05
-4.52234e-05
2.51505e-05
-3.69901e-05
0.000437666
-0.000134326
2.91127e-05
-0.000190453
-6.31143e-05
-9.52239e-05
-0.00018718
-1.99774e-05
-0.000174316
0.000162565
-0.00010468
-0.000109089
-5.09038e-06
-0.000127218
3.53508e-05
0.00014519
-0.000134305
0.000208707
0.000122336
7.70894e-05
0.000172645
-6.40333e-05
-8.5031e-05
0.000151765
0.000247339
-9.93672e-05
2.24044e-05
0.000325017
-0.00015899
-0.000162072
0.000221376
-8.92233e-05
-0.0002393
0.000457904
-3.7633e-06
-0.00027891
-0.000124487
-2.09548e-05
-0.000137897
-0.000532598
-6.36829e-05
-7.29018e-05
-0.000243208
-0.000129779
0.000100793
-0.000145067
-8.38357e-05
0.000232432
3.7447e-05
-9.71803e-05
-1.38733e-05
0.00010512
3.21203e-05
7.06131e-06
8.89651e-05
-0.000166909
4.80354e-05
-7.37245e-06
-3.09096e-06
-3.51488e-05
0.000234074
-1.03789e-05
1.0969e-05
3.85238e-05
-0.000125739
-0.00014116
0.000192162
-0.000114969
-0.000173687
-0.000335184
-0.000113881
-0.000124441
0.000121189
-7.83131e-05
-0.000143524
0.000694165
-3.74391e-05
-5.13927e-05
-2.36891e-05
-0.000131961
4.68197e-05
-0.000197775
-0.000179714
0.000130822
0.000145732
-0.000170014
0.000260971
0.000167878
-4.40987e-06
0.000164129
3.1663e-05
-1.68585e-05
-0.000123707
-5.87767e-05
-0.000135659
0.000116465
-7.75619e-05
-0.000189141
-6.23689e-05
1.57143e-05
-6.62925e-05
-2.26251e-05
-0.000237037
1.99769e-05
-0.000158929
-0.000164049
9.79198e-05
0.000308744
-3.49838e-05
6.19175e-05
0.000208152
-0.000108079
8.78029e-05
-0.000157583
-1.34988e-05
-2.88781e-05
-3.89345e-05
-7.07459e-06
-5.17814e-05
0.000432443
-0.000180427
8.72928e-05
-0.000224728
-0.000214243
-4.94733e-05
-0.000112125
6.83875e-05
-9.37056e-05
0.000211216
-5.4512e-07
-0.000106426
0.000168896
-0.000113748
-2.17788e-05
-1.51813e-05
-8.30473e-05
0.000156651
-0.000121745
-4.16104e-05
0.000170251
-0.000112769
-0.000108102
6.80316e-05
0.000341521
-3.79307e-05
-0.000111898
0.000580307
-4.18291e-05
-3.6601e-05
3.7779e-05
-5.20474e-05
-2.35916e-05
0.000441801
3.49861e-05
-0.00010574
3.48197e-05
4.35425e-05
-8.27621e-05
-0.000626979
-0.000106967
-2.64249e-05
-0.000329998
-0.000248214
5.08768e-05
4.84131e-06
-1.18447e-05
6.34952e-05
0.000135994
-8.67241e-05
-8.84249e-05
0.000182042
-1.97957e-05
-0.000101649
0.000107406
-9.93504e-05
1.8245e-05
6.96183e-05
-0.000123566
7.10442e-05
0.000197096
3.67997e-05
0.000191452
2.67853e-05
-0.000183805
0.000104352
0.000310442
6.40916e-06
-0.000133913
-3.46448e-05
-5.44433e-05
-0.000198895
8.65707e-05
-7.54868e-05
-0.000136551
0.000707205
1.77634e-05
-0.000178986
7.63636e-05
-0.000196587
-0.000171542
-0.000211334
1.17201e-06
7.18535e-06
-4.66954e-05
7.54324e-05
0.000202509
1.98942e-05
5.70565e-05
0.00033064
-9.38516e-05
7.93259e-05
-0.000156313
-6.00333e-05
-6.63661e-05
0.000283754
-7.7342e-05
-6.31384e-05
-2.58102e-05
5.5162e-05
-1.37311e-05
-0.000280498
-0.000107472
0.000130533
-0.000139044
-0.00012838
0.000227125
-1.18054e-05
6.36187e-05
1.76835e-05
0.00029263
-6.70505e-05
-0.000167374
-4.26624e-05
-2.31939e-05
-0.00013423
-9.09316e-05
-1.02919e-05
-3.01173e-05
0.000214564
-4.84948e-05
-4.31446e-05
-0.000169358
-0.000126702
-1.61641e-05
-0.000168462
0.000129573
-7.26211e-05
0.000191444
-5.62979e-05
-0.000161446
0.000265359
-8.09686e-05
-0.000112675
-8.18966e-05
-1.10721e-05
-1.88801e-05
-0.000210483
-0.000178732
6.69569e-05
-0.000233566
-8.45925e-05
-4.82412e-05
0.000563846
-0.000181123
2.08127e-05
0.000354147
8.09269e-06
0.000166443
-0.000287691
-1.60791e-05
4.95343e-05
0.000522
5.99441e-05
7.21609e-06
0.000190225
-6.90381e-05
8.48466e-05
-0.000589752
-0.000100858
4.70325e-06
-0.00039937
1.19927e-05
-6.51656e-05
0.000216164
-0.00021388
9.93296e-05
-2.43306e-05
-0.000124811
0.00010419
0.000267365
-0.000116703
-2.05324e-05
0.000174038
-6.51809e-05
7.56189e-05
0.000198722
-0.000125459
0.000123503
0.000327851
3.99677e-05
0.00013765
-1.01879e-05
-0.000127476
0.00018013
0.000382526
-6.1248e-05
-9.05012e-05
0.000382569
-4.92994e-05
-0.000118646
-2.98666e-06
-9.21999e-05
6.96076e-05
0.00049564
-5.05883e-05
-0.000106009
0.000350095
-0.000206712
-0.000164566
-0.000121709
-1.40633e-05
6.65401e-05
-0.000325279
4.52423e-05
8.43065e-05
1.03755e-05
-0.000170618
0.000302867
-0.000181491
4.16956e-05
-0.000157368
-0.000100359
3.82809e-05
0.000303918
1.1778e-05
5.24394e-05
-0.000205052
1.27845e-05
0.000202541
-0.000488865
-4.17519e-05
0.000272993
-7.66839e-05
-0.000274822
0.000101761
-4.72089e-05
-5.594e-05
2.91667e-05
0.000323071
1.08659e-05
4.24416e-05
-0.00015269
4.71946e-05
0.000105156
-7.40189e-05
0.000108148
2.42801e-05
0.000295372
-8.44036e-05
-0.000153419
-6.30772e-05
-5.56159e-05
2.42751e-05
-0.000279026
3.1627e-05
0.000105492
0.000294085
-6.05404e-05
0.000129707
0.0003001
-0.000119594
0.000181281
-0.000215365
-0.000135212
0.000119884
-0.000216466
-0.000133922
0.000101971
-0.000393167
-8.71797e-05
3.03441e-05
0.000649305
-0.000147713
5.52883e-05
0.000355891
5.88056e-05
-0.000172676
-1.12182e-06
-0.000164711
-0.000147638
0.000516461
3.79567e-05
0.000129338
-0.000143162
2.00602e-05
0.000131883
-0.000469672
-1.55448e-05
0.000145347
-0.000364935
3.26356e-05
0.000118187
0.000144079
-0.000144776
1.62385e-05
-5.95219e-05
-7.67936e-05
2.21546e-05
0.000279757
-4.37131e-05
-2.9114e-05
0.000155348
3.78241e-05
6.86374e-05
0.00015089
-5.49893e-05
0.000231107
0.000213067
6.89849e-05
0.000110035
9.47964e-06
-4.02881e-05
0.000117565
0.000431734
-0.000174959
0.00012888
0.000458385
2.46796e-05
3.377e-05
-5.12032e-05
-2.81503e-05
-1.84798e-05
0.00051217
-0.000207428
-5.35902e-05
0.00044918
-0.000197557
-3.74534e-05
2.68541e-05
-0.000162825
5.15887e-05
-0.000290376
-0.000164307
0.000199342
9.05957e-05
-3.78877e-05
8.61998e-05
-3.38973e-05
7.2573e-05
-0.000100003
-2.37637e-05
0.000260141
2.44743e-05
7.52486e-05
0.000123377
-0.000189605
9.43718e-05
0.000127789
-0.000460676
-7.63463e-05
0.000270126
-0.000137192
-0.000190037
-2.25578e-05
0.000230224
-8.76971e-05
-2.01613e-07
0.000469087
-4.19428e-06
0.000286517
-0.000311807
-5.11766e-05
0.00018342
6.69529e-05
8.38756e-05
0.000114593
0.00031438
-0.00014177
8.07568e-05
-0.000271619
2.30038e-05
0.000131121
-0.000255725
-3.5067e-05
0.00031088
0.000222735
-6.94216e-05
0.000422931
0.000272482
-0.00012952
0.000315893
-0.000248805
-7.09903e-06
0.00023174
-0.000154286
5.49479e-06
2.78182e-05
-0.000120265
4.82421e-06
-0.000229965
0.000629821
8.59148e-05
-0.000256206
0.000494003
-1.47117e-06
-0.000262119
4.40932e-05
-9.45323e-05
6.59398e-05
0.000218024
-7.22467e-05
9.05994e-05
-0.00018918
-2.98202e-05
5.96322e-05
-0.000368032
1.78189e-05
3.30686e-05
-0.000232904
-0.000216268
4.35103e-05
8.41752e-05
-0.000152757
-5.89627e-05
0.000153252
-7.38098e-05
-0.00010854
0.000199409
-4.87033e-05
-6.14782e-05
4.72046e-06
0.000108473
2.69237e-05
6.95692e-05
-3.0798e-05
0.000126516
0.000106467
-6.47263e-06
-8.7979e-05
0.000195414
-9.22523e-05
-7.13753e-05
0.000413345
-0.000134554
0.000150471
0.000148436
-6.74923e-05
3.84377e-05
-6.57126e-05
9.60933e-05
-0.000132143
0.000561895
-0.000102575
1.92982e-05
0.000258723
-0.00015745
4.89009e-05
0.000328993
-0.000250883
-7.69612e-06
-0.000128081
-1.48183e-05
0.000249448
4.78118e-05
3.32592e-05
4.69562e-05
-6.44447e-05
-0.000108992
-7.10349e-05
8.24397e-05
-9.01651e-05
1.1582e-06
0.000165958
-8.65362e-05
-0.000116088
1.13011e-06
-0.000124697
-0.000403645
-9.02557e-05
-0.000216913
0.000119555
-0.000137053
-0.000312956
0.000291263
-7.21852e-05
-0.000128807
0.000382136
4.63248e-05
0.000136181
-0.000194116
-0.000167045
2.16399e-05
0.00021685
-3.91594e-05
0.000101409
0.000304744
-7.1085e-05
0.0001629
-0.000373404
-0.000165451
-7.92143e-06
-9.02094e-05
-0.000147792
-7.12948e-05
0.000149498
-7.58511e-05
7.38787e-05
0.00023482
-8.3829e-05
2.09011e-05
-0.000100324
-0.000103275
-8.99042e-05
0.000193074
-0.000149653
-0.000136504
0.000294484
-0.000121564
-0.000153045
0.000595183
-4.20468e-05
-0.00011366
0.000492551
-0.000163512
-1.9058e-05
-0.000253739
-0.000108432
0.000107859
6.00645e-05
-6.43298e-05
-0.000135463
0.000165925
2.87308e-05
-0.000273079
-0.000210775
-4.03905e-05
-0.000295463
-0.000124562
-0.000210927
-6.13193e-05
2.57096e-06
-5.55349e-05
0.000162902
8.78898e-05
5.41574e-05
0.000191773
0.000129513
7.72619e-05
9.28247e-05
1.02384e-05
0.000127909
-5.07969e-05
0.00027312
8.73088e-05
4.11851e-05
-6.33349e-05
-7.0393e-05
0.000164559
9.24745e-05
-8.08496e-05
0.000171056
0.000505631
8.42306e-05
0.00010099
5.11303e-05
0.000158656
0.000114711
-0.000139983
0.000167004
0.000164542
0.000547591
-0.000129499
0.000158466
0.000218101
-0.000139705
1.08497e-05
0.00043351
-0.000166544
-0.000157878
-4.35955e-05
-5.47691e-05
0.000115658
-0.000230809
5.20783e-05
-2.15878e-06
-0.000149311
-5.04403e-05
-0.000103173
-2.97704e-05
-5.07044e-05
0.000148691
-9.82369e-05
-2.70597e-05
-0.000109609
-0.000167165
-0.000117878
-0.000333502
-0.000105609
-0.00010618
0.000180764
-0.000182961
-0.000211308
0.000339652
3.46694e-05
-0.000173736
0.000360577
-0.000117041
-2.34359e-05
-0.000233778
-0.000283703
-5.98339e-05
0.000388012
-0.000275241
-9.98428e-05
0.00042093
-0.000206943
-1.36196e-05
-0.000158351
-0.000322814
4.39598e-05
-9.53613e-05
-0.000300236
-6.62314e-05
0.000192735
-4.47332e-05
-7.0497e-05
0.00026309
-0.00016419
-9.2453e-05
0.00018212
9.41155e-05
-0.000195546
0.000414922
-5.53926e-05
-0.000101417
0.000238947
-0.000352046
-2.42424e-07
0.000505055
-7.18551e-05
0.00012472
0.000407579
-0.000182795
2.11522e-05
-0.000186792
5.95478e-05
-0.000102268
0.000392356
-0.000235331
-0.000114492
0.000366323
-0.000212193
-0.000215567
-4.92696e-05
-5.62725e-05
-2.17175e-05
-0.000213917
-0.000194846
9.422e-05
-0.000127067
-0.000132892
-0.000103048
0.000125313
-2.46555e-05
-6.30914e-05
0.000192033
-0.000235818
3.64611e-05
-4.35039e-05
4.12227e-05
-1.59717e-05
0.000359018
5.90565e-06
9.39962e-05
-0.000163624
-0.000221334
0.000212009
0.000126546
-0.000260905
9.30756e-05
0.000632109
1.63329e-05
-0.0001997
0.000176798
6.21033e-05
3.38291e-05
-0.000313327
-0.000317719
0.000327036
0.000335309
-8.98717e-05
4.69603e-05
0.000337736
1.58683e-05
-0.000137042
0.000424194
-2.92865e-05
-0.000174527
7.48177e-05
-0.000240089
0.00017914
-0.00021568
8.06469e-05
-0.000212009
-6.13764e-05
-7.38297e-06
-0.000212451
4.25854e-05
-5.0031e-05
0.00031037
-8.31837e-05
-5.59106e-06
-0.000185717
-0.000112293
-5.82378e-05
-0.000185771
-0.000239732
-4.53095e-05
-6.60377e-05
0.000109718
-0.000114056
0.000352201
-4.41827e-05
-0.000149552
0.000242164
-4.27722e-06
-0.000137733
-0.000251278
-0.000124914
-0.000128742
0.00027823
-7.92017e-05
-0.00011311
0.000435999
-0.000258428
-7.90707e-05
-0.000104882
-0.000313545
4.76548e-06
-0.000177352
-5.53292e-05
-8.94098e-05
0.000363955
0.000164037
-0.000245576
0.000206656
-2.74457e-05
-0.000245164
0.000174546
1.01839e-05
-0.00020371
0.000327608
3.82604e-05
1.02938e-05
8.25764e-06
-0.000129438
6.84697e-05
0.000410292
-0.000242314
-9.5635e-05
0.000779103
-0.000371783
-0.000154101
5.60151e-05
-0.000234428
-0.000158143
0.000300434
-0.000206323
-9.67934e-05
0.000302059
-0.000137928
-4.5833e-05
-0.00011237
-9.62234e-05
0.000155156
-0.000324877
5.6281e-05
6.42683e-06
0.000104168
-0.000255421
-0.000290857
0.000238636
-0.000187408
-0.000347514
0.000458778
-0.000163322
-8.52954e-05
-4.03661e-05
-0.000288151
0.000186504
-5.18081e-05
0.000142507
0.000145639
-0.000178053
1.94627e-05
0.000150757
7.24162e-05
-0.000134369
0.000211641
0.000591119
-6.46027e-05
5.37852e-05
0.000260508
-0.000149583
-9.9295e-05
-0.000179806
-3.23734e-05
7.38936e-06
9.00007e-05
0.000279137
9.15055e-05
0.000325071
0.000244154
1.09069e-06
0.000431421
3.17796e-05
-9.87754e-05
0.000259153
-0.00015442
0.000238359
-0.000159396
0.000359416
-0.000173248
-9.421e-06
0.000106262
6.57406e-05
-5.38219e-05
2.2335e-05
0.000187005
0.000136395
5.62879e-05
-0.000180076
-6.24711e-05
5.19399e-06
3.24725e-06
-0.000203253
0.000136949
-6.84095e-05
-0.000150122
6.30947e-05
0.000341511
-0.00023486
1.31849e-05
0.000216361
-9.88159e-05
-4.554e-05
-0.000206948
-6.30657e-06
3.7309e-05
5.15536e-05
0.000117707
0.00012876
0.000321866
-0.000258637
-6.35623e-05
2.14831e-05
-8.96115e-05
-1.66134e-05
-3.13954e-05
9.00526e-05
3.10327e-05
0.000460371
-0.00013452
-4.35315e-05
0.000204513
-0.000151367
-8.12849e-05
-3.08856e-05
-7.92596e-05
-0.000159538
0.000171519
4.35804e-05
-0.000117435
-8.05859e-05
-4.14614e-07
-4.09028e-05
0.000576305
-8.62936e-05
-4.58538e-05
0.000699503
-0.000203163
-5.87994e-05
0.000108437
-0.000338564
-5.52429e-05
0.000410756
-0.000340524
-2.99899e-05
0.000317302
5.74593e-05
3.10258e-05
-0.000237867
-0.000120356
-5.91686e-05
-8.39001e-05
-0.000169573
-0.000203568
0.000146104
-0.000278834
-0.000211222
0.000488685
-0.000245054
-0.000196084
0.000439212
0.000231556
-3.15429e-05
-6.80749e-05
-0.00012142
8.45799e-05
1.58943e-05
-0.000281448
-2.63879e-05
-3.4641e-05
-0.000137963
0.000141124
-0.000144592
-0.000141376
0.000519376
0.000336245
-1.45622e-05
0.000269507
0.00028955
-0.000107012
-0.000138912
0.00020361
2.06494e-05
-0.000123228
0.000184325
7.10283e-05
0.000205952
0.000188244
-1.66746e-05
0.000169368
0.000242139
-8.64492e-05
4.8245e-05
0.000300774
8.21614e-06
7.68588e-05
5.02073e-06
1.73721e-05
0.000128152
-5.45244e-05
5.52985e-05
0.000212197
-0.000101709
9.27969e-05
0.00010107
-5.56022e-05
5.29098e-05
-0.000181978
-6.75493e-05
8.30036e-05
-1.9066e-05
-4.30293e-05
0.000315833
-0.000237127
-0.000128871
0.000279253
0.00032903
-0.000156979
8.36427e-05
0.000491735
-0.000201487
2.87116e-05
-0.000296397
-5.95812e-05
0.000151363
-6.1496e-05
0.000162656
0.000223603
0.000204256
-3.62051e-05
-1.24841e-05
8.7968e-05
8.37493e-06
-0.000111817
0.000165813
-3.41353e-05
0.00012957
0.000254848
-0.000133567
0.000386071
-0.000126975
-0.000221125
0.000200263
-0.000150429
-9.02626e-05
-8.22378e-05
0.000207724
-0.000102328
-0.000249855
0.0001699
-0.00012171
4.1566e-05
0.000430669
7.75144e-05
9.98738e-05
0.000551508
6.98339e-05
-0.000133245
0.000181068
-4.35258e-06
-0.000121663
0.000479896
-5.26793e-05
-2.73657e-05
0.000426515
5.42423e-05
-1.3935e-06
-0.000277925
-3.60331e-05
-0.00019866
0.000147374
-4.84272e-05
-0.000299008
0.000107235
-0.000137082
-0.00019213
0.000235284
-3.1901e-05
-0.000100335
0.000247407
9.09633e-05
-0.000119268
-4.69439e-05
-3.8317e-05
-2.08768e-05
3.73015e-05
-0.00023117
-4.08123e-05
3.89128e-05
-0.000256122
0.000190031
-0.000353561
-0.000171321
0.000394858
0.000138331
-1.71147e-05
5.07639e-05
0.000336662
-2.90806e-05
-8.02787e-05
0.000411643
-0.000198876
0.000133238
-0.000379561
-0.000106074
0.000188544
0.000196831
-0.000225925
6.20655e-05
0.00030829
-0.00013382
0.000187538
0.000383233
-0.000189747
-4.42848e-05
0.000318897
-2.71629e-05
0.000164811
-0.000123724
0.000133731
7.35427e-05
-0.000220308
0.000155635
-5.33083e-05
-0.000166115
4.6013e-05
-6.851e-05
-9.06526e-05
7.10152e-05
-8.85008e-05
-1.82251e-05
0.000198912
-5.88437e-05
3.34661e-05
0.000197216
0.000437706
-2.75405e-05
0.000114144
0.000548028
-8.96968e-05
2.01546e-05
-0.000168579
-1.50278e-06
8.98146e-05
0.000105769
-9.18796e-05
0.000118897
0.000424897
0.00012864
-3.76974e-05
0.00010398
-7.40634e-05
3.01822e-05
8.89693e-05
-3.29327e-05
0.000287199
0.0001033
-0.000107601
0.000319771
-0.000280853
-0.000161897
9.68145e-05
-1.27266e-05
-8.29414e-05
-5.94833e-05
0.000220229
-6.19125e-05
-0.000189007
0.000410503
-6.88005e-05
4.05037e-06
0.000176019
4.89917e-05
5.31318e-05
0.000437628
6.24036e-05
-0.000146924
0.00029557
-8.27525e-05
-6.51621e-05
0.000453158
4.97718e-05
5.07011e-05
0.000292268
1.06856e-05
-4.11055e-05
-0.000139765
-0.00015013
-7.98939e-05
0.000204235
-0.000135522
3.90433e-05
4.91655e-05
-0.000108501
7.15056e-05
-6.33891e-05
-0.000118413
-5.23535e-05
8.10594e-05
-2.84257e-05
-6.03306e-05
2.84917e-05
0.000101914
7.14635e-05
-0.000234252
-1.84946e-05
0.000142954
3.38523e-05
-8.78847e-06
0.000155774
-0.000224885
-0.00031896
7.44304e-05
0.000226553
-0.000129955
-5.69039e-05
0.000284219
5.31539e-06
-4.85639e-05
0.000420094
-8.83532e-05
-1.49706e-05
-0.000123427
-0.000266207
-0.000194709
0.000479981
-0.000152386
-5.41524e-05
0.000158573
-3.29433e-05
0.000131454
0.000441911
-0.000218347
0.00015499
-9.39037e-05
0.000219336
0.000166282
-8.19894e-05
0.000262809
1.53373e-05
-0.000206868
4.23051e-05
4.38475e-05
-0.000176834
-0.000181303
0.000152793
-0.000136422
-0.000164172
1.36042e-05
-0.000148031
-8.03854e-06
0.000134249
-0.000183562
0.000150738
0.00042118
0.000200677
0.000129901
0.000320996
1.6469e-05
-1.66243e-05
-7.16565e-05
-4.56638e-05
8.59398e-06
0.000181269
-6.97312e-06
0.000133853
0.000520589
-0.000105379
0.000151878
9.1924e-05
-0.000187725
0.000202458
-4.44609e-06
-5.69991e-05
0.000274785
0.000242011
-0.000184539
0.000259779
-0.000178724
-0.000248074
0.000103453
0.000224378
-0.000154837
-1.03591e-05
0.000348016
4.98986e-05
-0.00010793
0.000480279
3.25691e-05
-6.8348e-05
0.000117201
-8.83682e-05
-1.89166e-05
8.5464e-05
1.94811e-05
-5.75672e-05
0.000243004
-0.000102814
0.000117141
0.000375733
-0.00011597
0.000188331
0.000152357
-0.000157623
-2.22003e-05
-4.92814e-05
3.56564e-05
5.49892e-05
6.76728e-05
3.83858e-05
0.000227141
-3.67116e-05
-3.95934e-05
0.000171302
0.000275776
-0.000290546
4.80011e-05
0.000118332
-0.000251398
2.38576e-05
6.91853e-05
2.3251e-05
8.49431e-05
-0.000196548
-0.000134414
0.000108153
0.000100256
-5.33983e-05
5.04135e-05
1.40186e-05
-0.000309131
-8.74298e-07
0.000358406
-2.95744e-05
-7.90825e-06
0.000162088
5.46778e-05
6.84459e-05
0.000214734
-1.4863e-06
-1.92176e-05
4.73425e-05
-1.91929e-05
-0.000185185
0.000568185
-8.8442e-05
-0.000239298
0.000112328
-0.000130967
-8.56596e-05
0.000192053
4.91082e-05
5.45736e-05
-0.000146089
0.000155128
0.000286439
-0.000156975
0.0001873
0.000201475
-0.00010157
5.89193e-05
0.000281344
-0.000232559
-0.000127105
0.000182294
-1.91171e-05
-0.000183094
7.92052e-05
-0.000151101
1.47632e-06
3.53362e-06
-0.000101949
0.000197787
0.000380749
-4.37133e-05
0.000140516
0.00028095
-9.61556e-05
-5.61293e-05
2.58308e-05
-2.38091e-05
-0.00017739
0.000203273
5.79686e-05
5.69523e-05
0.000270983
-0.000252977
0.000215425
0.000171942
-0.000262012
3.17946e-05
0.000243974
-0.000136382
4.06381e-05
0.00026098
-0.000214087
3.9777e-05
0.00016823
-0.000280835
2.05313e-05
0.000319491
-6.85634e-05
3.52445e-05
0.000398692
0.000100919
-7.61982e-05
0.000383628
0.000177567
-0.000164083
0.000200947
-3.52244e-05
-0.000119141
6.29583e-05
0.000125225
2.9314e-05
3.54195e-05
-2.90921e-05
0.000133998
0.000328443
-0.000328966
0.000119632
0.000265655
-0.0002849
6.50937e-05
-4.39027e-05
5.56316e-05
0.000108631
8.19845e-06
-1.41815e-05
0.000127259
0.000177425
-9.87126e-05
7.6336e-05
0.000479269
-0.000225945
6.36759e-05
0.000220021
-0.000174489
-7.6715e-05
0.000161199
4.97256e-05
-1.29143e-05
-0.000131672
0.000134029
4.37957e-05
2.62142e-06
-0.000155684
1.02404e-05
-2.57339e-05
5.17803e-05
2.18316e-05
0.000408314
-2.31905e-05
2.79001e-05
0.000177896
6.0873e-05
0.000178928
-1.32498e-05
-4.37503e-05
0.000187778
0.000220345
-8.03153e-05
6.09528e-05
0.00060824