/*--------------------------------*- C++ -*----------------------------------*\
  =========                 |
  \\      /  F ield         | OpenFOAM: The Open Source CFD Toolbox
   \\    /   O peration     | Website:  https://openfoam.org
    \\  /    A nd           | Version:  10
     \\/     M anipulation  |
\*---------------------------------------------------------------------------*/
FoamFile
{
    format      ascii;
    class       volScalarField;
    location    "7";
    object      pPrime2Mean;
}
// * * * * * * * * * * * * * * * * * * * * * * * * * * * * * * * * * * * * * //

dimensions      [0 4 -4 0 0 0 0];

internalField   nonuniform List<scalar> 
102400
(
6.07554e-06
3.60458e-06
6.55239e-05
1.71457e-05
4.41516e-05
0.000126898
5.9893e-06
4.24817e-05
1.99048e-05
3.29013e-06
6.45554e-06
3.78613e-06
6.19625e-06
3.38882e-05
1.29465e-05
3.69078e-06
6.39402e-06
2.67653e-05
1.41749e-05
2.71124e-05
1.34508e-05
1.07664e-05
7.11082e-06
3.41498e-06
3.16382e-06
2.78815e-06
6.94778e-06
6.93983e-06
7.59695e-06
3.47576e-05
3.60575e-06
5.03198e-05
3.13097e-06
5.59913e-05
3.54239e-06
2.27489e-05
2.78665e-06
3.67719e-06
1.58376e-05
2.27882e-06
2.3638e-06
1.01774e-05
9.64054e-05
3.10095e-05
2.81087e-05
9.37018e-05
3.50034e-06
6.46489e-05
3.50117e-05
5.12957e-06
1.43725e-05
6.78159e-06
1.35284e-05
5.4392e-05
2.49373e-05
7.99965e-06
1.39414e-05
4.43702e-05
2.69054e-05
1.55807e-05
7.02848e-06
2.08974e-05
1.43657e-05
4.65225e-06
4.0003e-06
2.98587e-06
3.30194e-06
2.93347e-06
2.67988e-06
2.03795e-05
7.86774e-06
7.48453e-05
3.43625e-06
3.45476e-05
4.95238e-06
3.99507e-05
5.86694e-06
1.08887e-05
3.18736e-05
6.3854e-06
7.82325e-06
3.09586e-06
6.61832e-05
1.57044e-05
4.99017e-05
0.0001272
7.68642e-06
3.81434e-05
1.65108e-05
3.5158e-06
5.83014e-06
3.86502e-06
5.58275e-06
3.28428e-05
1.12684e-05
3.41813e-06
5.44321e-06
2.47178e-05
1.23252e-05
3.15657e-05
1.64187e-05
8.50791e-06
5.82356e-06
3.4787e-06
3.47543e-06
3.536e-06
9.24846e-06
7.9189e-06
8.31752e-06
3.62435e-05
3.51647e-06
4.5431e-05
3.98095e-06
5.94837e-05
3.7651e-06
2.0069e-05
2.9104e-06
2.8076e-06
1.48845e-05
2.33941e-06
3.47757e-06
5.85001e-06
9.19324e-05
3.09317e-05
3.53114e-05
0.000107148
5.74154e-06
4.59313e-05
2.09759e-05
3.32475e-06
1.07617e-05
4.94263e-06
9.38345e-06
4.64266e-05
1.84135e-05
5.76369e-06
1.03953e-05
3.64978e-05
2.10156e-05
2.19158e-05
9.70596e-06
1.38146e-05
9.96944e-06
3.84451e-06
3.5001e-06
2.47027e-06
4.46566e-06
4.21159e-06
3.58323e-06
2.2676e-05
7.2655e-06
6.08134e-05
2.81921e-06
4.69353e-05
3.54549e-06
3.11814e-05
3.15633e-06
5.41476e-06
2.39508e-05
4.47956e-06
4.28258e-06
3.53534e-06
7.44368e-05
2.83835e-05
3.71719e-05
0.000135903
1.39458e-05
3.0446e-05
1.48675e-05
3.58629e-06
6.702e-06
4.31222e-06
6.4828e-06
3.81539e-05
1.40774e-05
4.04305e-06
6.48492e-06
2.72616e-05
1.54515e-05
2.8011e-05
1.31281e-05
9.33309e-06
6.60902e-06
3.57645e-06
2.90572e-06
2.44684e-06
6.95244e-06
7.87012e-06
5.63881e-06
2.55791e-05
5.36821e-06
5.30327e-05
4.14304e-06
5.67788e-05
3.67944e-06
2.56202e-05
2.86359e-06
3.40567e-06
1.78597e-05
3.40562e-06
2.61811e-06
5.83007e-06
7.76147e-05
3.16161e-05
2.41828e-05
0.000112275
1.30952e-05
2.48547e-05
1.5138e-05
3.09878e-06
7.24191e-06
4.17918e-06
7.94689e-06
4.68562e-05
1.68177e-05
4.75397e-06
8.99534e-06
3.27877e-05
1.66781e-05
2.38814e-05
9.88245e-06
1.13402e-05
8.42793e-06
3.93775e-06
3.33374e-06
2.77406e-06
5.01783e-06
5.85654e-06
4.29952e-06
1.85427e-05
8.3069e-06
6.34923e-05
2.63562e-06
3.88996e-05
3.26954e-06
2.71488e-05
3.29667e-06
5.91553e-06
2.24547e-05
4.38114e-06
3.76846e-06
9.30609e-06
8.50334e-05
2.90009e-05
2.39262e-05
9.43642e-05
1.42632e-05
1.49185e-05
6.18886e-06
2.96686e-06
7.34528e-06
3.83535e-06
5.51064e-06
4.02978e-05
1.51948e-05
4.80283e-06
9.22941e-06
3.19639e-05
1.24246e-05
3.12809e-05
1.24358e-05
9.45832e-06
7.40385e-06
4.59626e-06
3.64185e-06
2.75484e-06
6.56175e-06
6.47722e-06
6.33727e-06
2.08054e-05
9.50223e-06
5.98369e-05
2.34131e-06
3.14218e-05
2.84835e-06
2.3059e-05
2.78874e-06
6.56065e-06
2.09365e-05
2.7416e-06
3.51479e-06
1.53632e-05
0.000100219
3.63757e-05
1.85375e-05
7.23251e-05
8.5588e-06
1.3316e-05
4.80924e-06
4.12903e-06
1.23539e-05
4.74963e-06
5.06334e-06
3.49299e-05
1.63105e-05
5.29877e-06
9.95259e-06
4.03668e-05
1.35451e-05
3.33968e-05
1.26836e-05
1.16197e-05
8.1535e-06
4.40526e-06
3.67964e-06
3.06942e-06
8.00428e-06
6.23361e-06
7.76347e-06
2.39168e-05
1.11902e-05
6.30613e-05
2.8416e-06
2.67047e-05
2.43849e-06
2.50226e-05
3.31087e-06
9.75801e-06
2.74537e-05
2.58378e-06
2.77169e-06
1.53159e-05
9.07644e-05
3.83438e-05
1.52371e-05
6.32985e-05
7.26224e-06
1.56255e-05
7.29039e-06
6.17247e-06
1.86305e-05
6.5213e-06
4.5568e-06
3.43882e-05
1.66753e-05
6.73256e-06
8.49982e-06
4.67858e-05
2.11901e-05
3.36186e-05
1.29285e-05
1.3851e-05
7.93598e-06
4.36371e-06
3.91604e-06
4.27104e-06
9.95022e-06
7.46734e-06
8.69734e-06
2.63237e-05
1.13941e-05
6.51904e-05
2.30963e-06
2.67291e-05
2.85216e-06
2.45182e-05
4.63501e-06
9.04239e-06
3.34543e-05
2.13029e-06
2.36146e-06
1.99658e-05
9.39687e-05
3.42667e-05
1.17517e-05
5.24257e-05
9.22257e-06
2.17288e-05
1.12079e-05
9.58101e-06
3.19892e-05
8.18966e-06
4.80742e-06
3.16241e-05
1.90395e-05
8.67782e-06
1.05968e-05
3.81513e-05
2.88442e-05
2.79167e-05
1.2376e-05
1.88328e-05
9.08194e-06
4.1356e-06
3.93252e-06
5.37531e-06
1.16804e-05
7.34794e-06
8.69746e-06
2.28052e-05
1.02044e-05
6.14715e-05
1.96946e-06
2.20929e-05
2.59546e-06
2.47012e-05
5.60481e-06
1.10796e-05
3.82766e-05
1.99342e-06
4.89886e-06
2.44658e-05
9.45265e-05
3.24264e-05
1.11912e-05
4.3274e-05
9.81609e-06
2.32066e-05
1.34304e-05
1.15555e-05
4.4802e-05
6.15585e-06
4.15041e-06
2.47972e-05
1.50713e-05
6.47529e-06
1.39067e-05
2.73185e-05
1.88284e-05
3.17042e-05
1.59503e-05
2.51349e-05
1.20027e-05
4.16893e-06
4.63197e-06
7.87827e-06
1.77684e-05
9.07736e-06
1.03317e-05
2.52166e-05
5.37102e-06
4.84816e-05
2.41154e-06
1.94621e-05
2.22609e-06
1.93652e-05
3.90171e-06
1.49765e-05
4.10309e-05
2.50566e-06
8.43311e-06
2.4145e-05
8.26088e-05
3.15341e-05
1.12994e-05
3.73928e-05
6.65536e-06
2.47882e-05
1.21774e-05
1.16086e-05
5.56028e-05
6.27081e-06
3.75566e-06
2.13906e-05
1.31544e-05
4.6142e-06
1.3141e-05
2.6437e-05
1.16968e-05
3.17108e-05
1.61297e-05
3.21944e-05
1.38693e-05
3.9607e-06
5.64345e-06
6.68635e-06
1.40963e-05
8.98243e-06
9.94916e-06
2.73362e-05
3.97953e-06
4.13199e-05
3.10787e-06
1.68299e-05
2.02307e-06
1.24167e-05
2.3139e-06
1.25513e-05
4.50059e-05
2.23254e-06
8.59454e-06
2.31132e-05
7.33501e-05
2.76403e-05
1.10858e-05
3.20716e-05
3.81364e-06
2.31694e-05
5.75358e-06
6.48581e-06
4.91248e-05
9.0834e-06
5.15869e-06
1.54501e-05
1.42919e-05
3.54654e-06
1.08246e-05
2.76191e-05
1.16394e-05
2.99918e-05
1.52538e-05
3.41035e-05
1.27493e-05
3.63735e-06
6.68824e-06
5.39127e-06
1.00158e-05
8.38637e-06
1.10041e-05
2.5206e-05
6.15163e-06
3.52582e-05
4.55181e-06
1.62764e-05
2.19614e-06
5.51703e-06
1.92009e-06
8.48326e-06
4.30908e-05
2.48779e-06
7.73731e-06
2.19097e-05
6.77627e-05
2.3427e-05
9.85355e-06
2.76829e-05
3.31742e-06
2.26765e-05
3.71752e-06
4.48356e-06
3.93096e-05
1.52478e-05
4.01466e-06
1.67888e-05
1.74097e-05
3.16564e-06
8.71782e-06
3.59509e-05
1.81608e-05
2.18533e-05
9.9442e-06
3.04921e-05
1.44282e-05
3.40736e-06
7.08693e-06
5.84855e-06
7.48289e-06
6.66131e-06
1.24594e-05
2.73636e-05
8.19562e-06
3.56071e-05
4.37838e-06
1.00264e-05
2.41637e-06
2.58069e-06
1.70748e-06
1.06796e-05
4.18455e-05
2.71657e-06
1.03461e-05
1.40743e-05
5.71612e-05
1.80456e-05
1.10395e-05
2.83812e-05
3.90288e-06
2.40392e-05
3.71683e-06
4.53825e-06
3.96071e-05
1.91974e-05
4.10182e-06
1.79037e-05
1.77832e-05
3.9067e-06
5.13852e-06
3.65146e-05
2.36132e-05
1.42129e-05
5.12366e-06
2.72634e-05
1.45349e-05
3.56702e-06
7.50504e-06
7.23565e-06
5.60142e-06
4.06776e-06
9.98047e-06
3.2525e-05
7.21657e-06
3.5706e-05
4.11689e-06
6.11618e-06
4.09883e-06
2.29174e-06
1.90144e-06
1.54632e-05
4.68306e-05
2.67148e-06
1.49642e-05
5.56089e-06
4.42718e-05
1.42008e-05
1.19594e-05
2.91356e-05
4.91494e-06
3.19866e-05
4.47572e-06
5.67217e-06
4.33688e-05
2.10687e-05
4.05638e-06
1.25247e-05
1.56476e-05
3.93741e-06
2.86824e-06
2.37106e-05
2.30293e-05
1.03905e-05
3.35616e-06
3.0317e-05
1.67772e-05
3.965e-06
6.83786e-06
7.65251e-06
3.42119e-06
3.97442e-06
3.74269e-06
2.71777e-05
6.38951e-06
3.62402e-05
3.62605e-06
4.57498e-06
6.86529e-06
3.72748e-06
2.06499e-06
1.22546e-05
4.7572e-05
2.11848e-06
1.3487e-05
3.71585e-06
3.69165e-05
1.02714e-05
9.9009e-06
2.16529e-05
6.44206e-06
4.32061e-05
5.71586e-06
5.78425e-06
4.32246e-05
2.36018e-05
4.17789e-06
8.36875e-06
1.20255e-05
3.41631e-06
2.54522e-06
2.13046e-05
2.59994e-05
8.89006e-06
3.28417e-06
3.36942e-05
2.21463e-05
6.7625e-06
4.96574e-06
6.8009e-06
4.01309e-06
1.19074e-05
3.48564e-06
2.33716e-05
5.53146e-06
3.6951e-05
3.7081e-06
4.62182e-06
8.72207e-06
5.22458e-06
1.50907e-06
1.16923e-05
4.46341e-05
1.61872e-06
7.15204e-06
4.40581e-06
3.22516e-05
6.0056e-06
9.51433e-06
1.28083e-05
7.13186e-06
4.12093e-05
4.48581e-06
4.34434e-06
3.67594e-05
2.18625e-05
3.37469e-06
4.93724e-06
7.87724e-06
2.89487e-06
2.31783e-06
2.85675e-05
3.02904e-05
6.99295e-06
3.25373e-06
3.1751e-05
2.25658e-05
8.43493e-06
4.09828e-06
4.84914e-06
5.53856e-06
1.9017e-05
5.50753e-06
2.15761e-05
4.73045e-06
4.01885e-05
2.80517e-06
4.3507e-06
1.06298e-05
6.38144e-06
1.51069e-06
1.21568e-05
4.62859e-05
1.32132e-06
5.30466e-06
2.98962e-06
2.64909e-05
2.9902e-06
1.41895e-05
1.22032e-05
5.31958e-06
3.85653e-05
4.76265e-06
3.84297e-06
2.71986e-05
1.61249e-05
3.31944e-06
3.40753e-06
4.04505e-06
1.68211e-06
1.75024e-06
1.84408e-05
2.75361e-05
4.61413e-06
4.2276e-06
2.14184e-05
1.63541e-05
7.60063e-06
4.44894e-06
3.9782e-06
4.45969e-06
2.13289e-05
5.92899e-06
2.01296e-05
2.88511e-06
3.92869e-05
2.47058e-06
5.22131e-06
1.03396e-05
7.3417e-06
1.38176e-06
8.74111e-06
3.85476e-05
2.26147e-06
3.42852e-06
1.48061e-06
1.89892e-05
2.57478e-06
1.26946e-05
9.60593e-06
3.67769e-06
2.78051e-05
2.82106e-06
4.30737e-06
2.98194e-05
1.17912e-05
2.11222e-06
1.48244e-06
1.77938e-06
1.42272e-06
3.01754e-06
4.58054e-06
2.09739e-05
2.00255e-06
5.84143e-06
9.35747e-06
9.83567e-06
6.20038e-06
5.48338e-06
2.64644e-06
2.74726e-06
2.36177e-05
9.16509e-06
1.66461e-05
1.66746e-06
4.0539e-05
1.17198e-06
4.88236e-06
8.86205e-06
5.16903e-06
9.29703e-07
6.7382e-06
2.83351e-05
2.56446e-06
4.69435e-07
2.72717e-06
1.83609e-05
3.27576e-06
7.88768e-06
6.36034e-06
1.69712e-06
1.71471e-05
2.17246e-06
4.06409e-06
2.96227e-05
1.02823e-05
2.57328e-06
1.37075e-06
1.53294e-06
1.77155e-06
2.09594e-06
9.00153e-06
2.20709e-05
1.55054e-06
6.18939e-06
4.43157e-06
6.76357e-06
4.50394e-06
6.92712e-06
1.62828e-06
2.99674e-06
1.66646e-05
1.21044e-05
1.51904e-05
1.00858e-06
3.74213e-05
5.37333e-07
3.20753e-06
9.90321e-06
4.82487e-06
8.3836e-07
4.55516e-06
2.22591e-05
3.99191e-06
2.26768e-07
8.86153e-07
9.12367e-06
1.51164e-06
7.30855e-06
2.56408e-06
1.77063e-06
8.71929e-06
1.11008e-06
1.98102e-06
2.08441e-05
3.52282e-06
1.00356e-06
1.92297e-06
1.54257e-06
2.68084e-06
1.38153e-06
2.61692e-06
1.47738e-05
3.88109e-06
1.25442e-06
6.91e-06
1.29582e-05
5.53937e-06
1.20623e-05
2.73833e-06
2.54877e-06
8.80759e-06
1.31508e-05
1.04442e-05
1.16618e-06
3.71548e-05
8.42641e-07
4.12217e-06
8.96558e-06
5.26589e-06
6.95755e-07
2.60198e-06
1.54494e-05
3.05687e-06
1.04619e-06
1.14539e-06
8.13972e-06
2.31279e-06
9.16505e-06
2.22369e-06
2.57419e-06
6.53189e-06
8.27724e-07
7.2133e-07
1.51328e-05
2.22966e-06
9.58082e-07
2.23365e-06
3.63219e-06
8.88487e-07
1.91015e-06
5.78087e-06
2.07027e-05
4.76251e-06
6.51639e-06
7.3977e-07
5.99531e-06
2.05664e-06
8.88067e-06
6.66941e-06
1.70511e-06
4.50846e-06
1.67564e-05
6.09982e-06
2.79395e-06
3.05374e-05
1.53238e-06
6.31787e-06
6.16957e-06
6.78513e-06
8.63879e-07
5.48213e-06
1.36387e-05
3.04931e-06
1.24357e-06
5.17442e-07
3.01191e-06
1.93796e-06
9.63979e-06
2.7188e-06
2.56591e-06
4.95521e-06
1.27645e-06
9.5444e-07
1.99734e-05
7.24254e-06
1.18714e-06
9.41114e-07
1.39013e-06
6.06362e-07
5.45655e-07
1.12292e-06
2.75801e-06
4.23677e-06
3.6919e-06
2.67595e-06
2.85287e-06
9.63512e-07
1.8865e-06
5.28281e-06
1.73467e-06
1.61026e-06
2.15413e-05
7.03658e-07
2.21477e-06
2.69838e-05
5.10362e-06
2.55254e-06
6.46819e-06
7.40918e-06
1.37734e-06
8.82505e-06
1.60949e-05
3.38643e-06
2.96078e-06
1.49845e-06
3.69146e-06
2.37654e-06
1.1626e-05
2.48569e-06
4.72902e-06
4.27629e-06
1.44431e-06
5.61e-07
1.07246e-05
4.57732e-06
5.77189e-07
1.24043e-06
9.29722e-07
6.59209e-07
6.48115e-07
9.13325e-07
6.94963e-07
1.9366e-06
4.86627e-06
8.05837e-06
1.22807e-06
5.75325e-07
6.84539e-07
4.09114e-06
6.55706e-07
8.19552e-07
1.4669e-05
8.98796e-07
3.78722e-06
1.44949e-05
5.62693e-06
1.33865e-06
5.70734e-06
5.22135e-06
6.12111e-07
4.86808e-06
1.03436e-05
3.66686e-06
5.78421e-07
1.04532e-11
7.61912e-07
9.86386e-07
1.75503e-05
1.06139e-05
1.65603e-06
2.9981e-06
2.07047e-06
5.23278e-07
8.7298e-06
6.36335e-06
3.78407e-07
1.02053e-06
6.42926e-07
6.36724e-07
1.28539e-06
8.38008e-07
8.50263e-07
4.59822e-06
1.39088e-06
1.24858e-06
1.69171e-06
3.64518e-06
1.27335e-06
8.17867e-06
1.064e-06
1.26916e-06
1.22674e-05
5.94023e-06
1.6205e-06
8.76394e-06
5.24009e-06
2.53727e-06
1.72404e-06
2.36728e-06
3.19233e-07
1.80402e-06
4.45219e-06
1.34152e-06
1.22428e-06
1.07833e-07
6.14364e-07
3.44517e-06
7.60467e-06
6.54195e-06
1.89944e-06
1.036e-06
9.08594e-07
5.02928e-07
4.95099e-06
5.51852e-06
3.788e-07
6.41791e-07
6.10232e-07
3.49125e-07
5.61489e-07
1.0366e-06
6.39903e-07
1.98187e-06
3.37669e-06
2.92786e-07
6.76756e-07
1.64867e-06
2.76105e-07
5.9833e-06
5.38415e-06
8.5536e-07
4.8079e-06
5.94318e-06
1.26236e-06
4.36222e-06
9.32874e-06
6.56332e-07
9.16689e-06
8.97418e-06
8.74343e-07
2.27063e-06
2.78105e-06
1.48475e-06
1.88647e-06
8.48251e-07
1.77556e-07
2.6387e-06
3.71173e-06
8.79753e-06
2.80877e-07
3.93824e-07
5.4411e-07
4.06544e-07
2.56568e-06
4.72557e-06
3.3734e-07
2.2722e-06
9.18856e-06
4.94573e-06
2.54725e-06
1.96183e-06
4.03247e-07
2.9429e-07
3.03584e-07
3.49118e-07
3.49732e-07
2.77157e-06
1.33844e-06
2.46686e-06
3.90087e-06
8.14026e-07
3.41925e-07
2.30492e-06
2.45041e-06
7.70777e-07
5.29825e-07
2.07102e-06
1.08422e-06
5.10743e-06
3.9317e-06
7.00972e-06
3.32222e-06
2.6316e-06
6.24125e-06
1.09783e-07
9.73025e-08
2.9239e-06
2.14984e-07
2.44829e-06
7.4665e-07
1.21038e-06
4.24163e-07
4.0469e-07
1.93458e-06
3.79268e-06
4.9308e-07
3.29356e-07
3.05509e-06
2.36189e-06
2.01844e-06
3.77615e-06
3.52284e-06
2.0945e-07
2.25455e-07
3.00632e-07
6.7312e-07
3.68967e-07
2.70314e-07
4.32426e-07
3.95756e-06
5.7825e-07
2.51591e-07
3.36013e-06
8.89495e-07
9.66602e-07
4.62614e-06
6.22351e-07
1.0279e-06
6.89356e-07
2.44187e-07
3.60699e-07
2.16278e-07
3.54806e-06
3.39336e-06
1.70899e-07
1.96564e-07
7.10083e-07
7.13066e-07
2.75538e-07
1.41584e-06
6.18963e-06
1.69958e-06
4.38126e-07
2.90678e-06
4.3057e-06
3.21823e-07
2.94249e-07
3.56978e-06
3.45336e-06
6.2667e-07
5.42055e-07
4.84731e-06
5.74734e-07
2.83166e-07
1.50157e-06
6.43072e-07
4.14797e-07
1.06799e-06
1.33212e-06
4.70197e-06
1.93816e-06
5.92314e-07
1.14761e-06
1.0362e-06
3.34331e-07
1.16986e-06
8.81791e-07
1.99192e-06
4.20099e-06
5.28452e-06
4.00722e-06
9.87232e-07
4.18913e-06
2.80048e-06
9.30884e-07
2.43318e-06
1.99535e-06
1.20496e-06
3.70532e-07
6.92286e-07
1.2641e-06
6.75878e-07
2.97255e-07
7.56996e-07
1.06125e-06
7.64265e-07
5.99464e-07
2.34499e-07
6.05983e-07
3.4286e-07
3.2516e-07
7.70272e-06
2.21289e-06
5.70724e-07
6.15026e-07
8.33397e-07
7.54802e-07
2.34931e-06
9.54976e-07
2.7706e-06
2.31557e-06
1.00527e-06
1.11894e-06
1.11976e-06
3.66712e-06
1.2014e-06
2.18149e-07
6.64389e-07
5.96031e-07
7.55957e-07
2.95927e-07
3.03735e-07
3.314e-06
1.5567e-06
6.27775e-07
1.32311e-06
1.85636e-06
2.99211e-06
4.49581e-07
6.15484e-07
1.67145e-07
6.352e-07
7.96095e-07
9.59001e-07
7.82525e-07
7.63802e-07
5.32455e-07
2.3823e-07
2.16328e-06
7.90785e-07
3.12361e-07
4.66532e-06
4.10727e-06
4.82697e-07
2.42222e-06
1.1677e-06
1.21264e-07
5.95632e-07
7.35805e-07
2.96893e-06
3.77616e-06
1.90668e-07
1.79971e-06
3.13706e-06
1.83442e-07
7.01765e-07
1.14151e-06
1.31286e-06
3.14434e-06
4.66736e-06
2.23786e-06
6.74601e-07
3.16947e-06
9.78101e-06
1.41063e-05
5.29007e-05
6.47805e-05
3.969e-05
5.72308e-05
5.53836e-05
0.000121791
2.02363e-05
1.31687e-05
7.96655e-05
1.95242e-05
1.27079e-05
6.86268e-06
1.14043e-05
1.70153e-05
1.95256e-05
4.47051e-05
1.94455e-05
1.9574e-05
2.28453e-05
3.06393e-06
1.20326e-05
4.90215e-05
1.74191e-05
6.8665e-06
3.14594e-05
3.12146e-05
1.16219e-05
8.54579e-06
3.23508e-06
2.34209e-05
3.84173e-06
2.16968e-06
2.33902e-05
2.03057e-05
1.60844e-05
9.16205e-06
5.17313e-05
5.05579e-05
4.57521e-06
6.16514e-06
7.80595e-05
9.24624e-05
2.29851e-05
3.71239e-05
8.26342e-05
0.00016349
3.70809e-05
2.66528e-05
0.000113513
3.49805e-05
5.66888e-06
3.95879e-06
2.26972e-05
3.19572e-05
3.60126e-05
6.90919e-05
3.46069e-05
9.91701e-06
1.13193e-05
5.39163e-06
5.37437e-06
3.15027e-05
9.05052e-06
1.38901e-05
5.16057e-05
5.06348e-05
2.19116e-05
5.38639e-06
8.48284e-06
4.22568e-05
1.06965e-05
5.14474e-06
4.21623e-05
3.71812e-05
6.61046e-06
3.21135e-06
7.97891e-05
7.58121e-05
1.16708e-05
1.69047e-05
5.2107e-05
6.19255e-05
4.21464e-05
6.1706e-05
5.25047e-05
0.000114419
1.81057e-05
1.35724e-05
8.53575e-05
1.98074e-05
1.57994e-05
8.24415e-06
1.10883e-05
1.48845e-05
1.70416e-05
4.20285e-05
1.86929e-05
2.12543e-05
2.57358e-05
3.49252e-06
1.26641e-05
5.24064e-05
1.97059e-05
6.46983e-06
3.11588e-05
2.98835e-05
1.07416e-05
1.01892e-05
3.13119e-06
2.11918e-05
4.18586e-06
2.42058e-06
2.32863e-05
1.82385e-05
1.95347e-05
1.01529e-05
5.39269e-05
4.92679e-05
5.90669e-06
1.18347e-05
7.28869e-05
7.83279e-05
2.98292e-05
4.88731e-05
6.56311e-05
0.000135445
2.46348e-05
1.93643e-05
0.000110744
3.15737e-05
9.77275e-06
5.09609e-06
1.65638e-05
2.53861e-05
2.86176e-05
5.82727e-05
2.87264e-05
1.51243e-05
2.00657e-05
3.85594e-06
8.52996e-06
3.93263e-05
1.30984e-05
1.00895e-05
4.45722e-05
4.17347e-05
1.53365e-05
6.71145e-06
5.23073e-06
2.871e-05
6.07416e-06
3.94296e-06
3.62162e-05
2.80174e-05
1.17875e-05
5.62423e-06
7.24316e-05
6.80462e-05
8.84093e-06
1.53319e-05
6.31807e-05
6.94675e-05
4.34563e-05
6.95313e-05
4.09751e-05
0.000113513
1.83851e-05
1.35431e-05
9.44345e-05
2.74224e-05
1.25141e-05
7.36183e-06
1.24238e-05
1.83541e-05
2.09301e-05
4.78375e-05
2.30382e-05
2.16911e-05
2.92078e-05
3.83592e-06
1.15677e-05
4.50475e-05
1.42175e-05
8.5954e-06
3.93818e-05
3.50105e-05
1.16646e-05
9.151e-06
4.27705e-06
2.31522e-05
4.23183e-06
2.98591e-06
3.47871e-05
2.10679e-05
1.75396e-05
8.81125e-06
6.53164e-05
6.39404e-05
8.1049e-06
1.2456e-05
6.19536e-05
8.03422e-05
4.565e-05
7.44572e-05
3.07958e-05
0.000113048
2.16599e-05
1.65788e-05
9.52722e-05
3.35575e-05
7.80712e-06
4.50376e-06
1.58779e-05
1.97778e-05
2.40685e-05
5.77678e-05
3.00882e-05
1.86722e-05
2.50527e-05
4.17932e-06
7.51781e-06
3.57639e-05
8.61572e-06
1.23633e-05
4.75543e-05
4.05859e-05
1.53029e-05
6.71869e-06
4.71914e-06
2.73946e-05
5.25974e-06
3.5303e-06
4.57283e-05
2.81911e-05
1.42061e-05
6.95654e-06
7.68367e-05
7.85212e-05
9.28318e-06
1.45336e-05
5.0389e-05
6.77548e-05
4.97463e-05
6.73589e-05
2.45682e-05
9.26159e-05
2.46459e-05
1.75632e-05
8.3555e-05
3.24544e-05
8.5585e-06
4.92304e-06
1.67894e-05
1.69199e-05
1.87245e-05
5.18523e-05
2.96815e-05
2.09261e-05
2.51229e-05
3.84843e-06
5.99954e-06
3.24121e-05
6.87384e-06
1.47448e-05
4.97688e-05
3.59163e-05
1.40886e-05
6.72112e-06
4.94822e-06
2.7627e-05
4.9604e-06
3.14244e-06
4.26854e-05
3.06337e-05
1.3482e-05
8.29593e-06
7.58354e-05
7.63208e-05
6.82369e-06
1.2032e-05
5.37416e-05
7.48318e-05
3.40965e-05
3.28804e-05
3.30675e-05
7.85577e-05
2.60668e-05
2.55885e-05
8.80559e-05
3.68265e-05
8.84115e-06
4.80741e-06
2.19503e-05
1.86484e-05
1.96129e-05
5.77225e-05
3.1797e-05
2.45836e-05
2.85944e-05
4.69286e-06
4.76131e-06
2.46275e-05
5.87941e-06
1.63688e-05
5.37165e-05
3.38754e-05
1.10189e-05
6.30879e-06
7.29813e-06
3.36183e-05
6.24671e-06
2.99387e-06
3.64135e-05
3.66263e-05
6.70402e-06
4.70197e-06
8.01646e-05
7.31571e-05
4.21982e-06
9.78633e-06
4.63487e-05
7.15623e-05
2.41314e-05
1.95254e-05
3.23484e-05
6.10129e-05
1.74979e-05
2.99552e-05
8.80385e-05
3.80927e-05
8.98414e-06
4.70739e-06
2.8258e-05
2.16902e-05
1.89863e-05
6.5607e-05
3.72403e-05
3.02097e-05
4.98899e-05
4.23265e-06
5.53324e-06
1.9754e-05
6.0962e-06
1.63148e-05
5.11043e-05
3.064e-05
8.70666e-06
7.75786e-06
8.9444e-06
3.80092e-05
6.63147e-06
2.66112e-06
2.57316e-05
3.42176e-05
5.47982e-06
2.91799e-06
7.4227e-05
6.23472e-05
2.99597e-06
5.87621e-06
3.62371e-05
5.9545e-05
1.81797e-05
1.3568e-05
2.45476e-05
4.53068e-05
1.31459e-05
3.67995e-05
9.99062e-05
3.61988e-05
7.25742e-06
4.92781e-06
2.7812e-05
2.5482e-05
2.0901e-05
7.24106e-05
5.32076e-05
2.15403e-05
5.93584e-05
4.31903e-06
6.22575e-06
1.49255e-05
6.11952e-06
1.95167e-05
4.81041e-05
2.82758e-05
7.57538e-06
8.12206e-06
1.32307e-05
4.63721e-05
5.95734e-06
2.31366e-06
2.25407e-05
3.07039e-05
6.66365e-06
1.93983e-06
7.09935e-05
5.52559e-05
3.45391e-06
3.53609e-06
3.53291e-05
4.86749e-05
1.79791e-05
1.06988e-05
1.6541e-05
2.88399e-05
1.05549e-05
3.73492e-05
0.000113975
2.95609e-05
7.98617e-06
5.20794e-06
2.42814e-05
2.29805e-05
2.26408e-05
6.26006e-05
5.6853e-05
1.39214e-05
4.81757e-05
5.47903e-06
6.24384e-06
1.25732e-05
7.239e-06
2.04383e-05
4.29445e-05
2.80837e-05
7.08373e-06
8.7687e-06
1.41412e-05
4.90767e-05
4.67688e-06
2.44034e-06
2.53015e-05
2.94338e-05
6.0779e-06
2.66481e-06
7.02419e-05
4.56505e-05
3.58303e-06
2.37102e-06
4.40683e-05
4.22847e-05
1.68758e-05
8.911e-06
1.40161e-05
2.19657e-05
1.22656e-05
3.66454e-05
0.000121238
2.16061e-05
1.16019e-05
5.03082e-06
2.31269e-05
1.70793e-05
2.69858e-05
5.75756e-05
4.94663e-05
9.41585e-06
3.86233e-05
6.98222e-06
7.06592e-06
1.40426e-05
7.3706e-06
1.79743e-05
3.64696e-05
3.04896e-05
6.73635e-06
1.01049e-05
1.21152e-05
4.47412e-05
3.08244e-06
1.85047e-06
3.25199e-05
3.31289e-05
3.43457e-06
3.6075e-06
7.11956e-05
3.76684e-05
3.81627e-06
2.99793e-06
4.46409e-05
3.3618e-05
1.40643e-05
6.90046e-06
1.12651e-05
1.64105e-05
1.3853e-05
3.67025e-05
0.000121121
1.43947e-05
2.14887e-05
5.9314e-06
1.96776e-05
1.46115e-05
2.88299e-05
6.14199e-05
4.78985e-05
8.84138e-06
4.37252e-05
6.79187e-06
8.38313e-06
1.69431e-05
7.79033e-06
1.24392e-05
3.152e-05
3.33576e-05
6.8528e-06
1.11815e-05
1.28328e-05
3.73292e-05
1.40295e-06
1.66588e-06
3.4031e-05
3.41e-05
3.42964e-06
3.985e-06
6.8147e-05
3.027e-05
3.9539e-06
4.06406e-06
3.90169e-05
2.44234e-05
1.11018e-05
4.95081e-06
9.54034e-06
1.2284e-05
1.09823e-05
3.63091e-05
0.000138624
1.89463e-05
3.02507e-05
7.90186e-06
1.76959e-05
1.76512e-05
2.86778e-05
7.69423e-05
4.83615e-05
1.40689e-05
4.8223e-05
7.32514e-06
1.07548e-05
1.41443e-05
9.26085e-06
7.60207e-06
2.73454e-05
3.90031e-05
6.38685e-06
1.274e-05
1.39715e-05
3.08968e-05
2.11488e-06
2.08468e-06
3.14342e-05
3.29691e-05
2.75343e-06
5.27284e-06
6.18198e-05
2.61164e-05
2.6931e-06
4.40025e-06
3.55525e-05
1.95257e-05
9.1287e-06
4.58964e-06
9.63683e-06
8.61045e-06
6.26818e-06
2.84366e-05
0.000139608
2.60697e-05
2.80834e-05
9.28547e-06
1.85043e-05
2.03492e-05
2.15263e-05
8.12786e-05
5.59495e-05
1.36432e-05
3.63462e-05
1.04782e-05
1.41735e-05
1.0048e-05
1.06963e-05
5.49398e-06
1.96751e-05
3.5677e-05
5.76442e-06
1.78266e-05
1.18367e-05
2.62708e-05
2.45519e-06
2.65641e-06
2.55291e-05
2.86305e-05
2.06904e-06
6.79231e-06
4.96901e-05
1.95492e-05
1.30602e-06
3.72133e-06
3.23897e-05
1.53227e-05
8.63158e-06
5.55204e-06
6.93349e-06
5.64073e-06
3.76785e-06
1.91447e-05
0.000111411
2.46429e-05
1.69969e-05
6.67604e-06
2.01869e-05
1.90067e-05
1.26581e-05
5.77851e-05
5.14451e-05
8.67318e-06
2.01472e-05
1.75059e-05
2.11404e-05
7.06567e-06
1.21158e-05
4.45544e-06
1.2815e-05
2.92024e-05
7.94911e-06
1.42242e-05
1.24205e-05
3.23756e-05
1.27004e-06
2.30071e-06
1.65453e-05
2.05176e-05
2.57987e-06
8.69501e-06
4.2737e-05
1.23797e-05
1.06976e-06
2.39944e-06
2.76351e-05
1.06878e-05
9.46416e-06
7.31653e-06
3.81225e-06
4.08205e-06
2.93415e-06
1.36943e-05
7.7267e-05
2.02175e-05
8.80104e-06
4.31731e-06
1.96644e-05
1.86601e-05
1.02187e-05
4.33781e-05
4.0982e-05
6.23655e-06
1.13232e-05
2.06492e-05
2.20979e-05
5.18564e-06
9.57369e-06
5.66981e-06
7.01279e-06
2.4783e-05
9.16619e-06
9.1627e-06
8.4521e-06
2.82581e-05
1.38578e-06
2.44716e-06
1.23373e-05
1.70355e-05
3.97133e-06
1.05582e-05
4.20052e-05
1.0513e-05
8.92134e-07
2.07824e-06
2.39254e-05
8.51851e-06
7.97403e-06
6.91822e-06
3.11898e-06
3.4776e-06
2.44405e-06
1.16125e-05
5.4776e-05
1.28594e-05
8.31714e-06
4.25911e-06
1.55261e-05
1.86893e-05
1.34257e-05
4.49479e-05
4.1447e-05
4.03371e-06
7.39437e-06
1.77551e-05
1.51449e-05
3.14662e-06
4.77149e-06
5.83332e-06
2.95521e-06
1.72484e-05
5.75979e-06
9.92504e-06
3.95653e-06
1.75087e-05
2.10224e-06
2.53837e-06
1.31239e-05
1.69859e-05
4.91579e-06
9.3156e-06
3.63857e-05
1.06668e-05
8.9218e-07
1.64823e-06
1.84447e-05
5.98389e-06
7.79052e-06
5.44165e-06
2.89339e-06
4.27707e-06
2.1664e-06
8.6803e-06
3.69841e-05
6.33087e-06
6.56309e-06
3.24595e-06
1.06131e-05
1.5105e-05
9.86556e-06
3.22114e-05
3.4829e-05
3.65433e-06
6.75375e-06
1.56399e-05
1.12368e-05
2.07961e-06
3.00074e-06
7.30749e-06
3.01178e-06
8.97649e-06
3.00055e-06
1.39699e-05
1.57546e-06
1.31657e-05
3.17728e-06
2.89854e-06
1.41639e-05
1.62274e-05
5.13643e-06
8.83631e-06
2.7451e-05
9.12824e-06
1.07269e-06
1.0916e-06
1.44847e-05
3.42735e-06
1.02568e-05
5.19518e-06
1.96044e-06
5.0653e-06
1.67172e-06
6.03481e-06
2.32409e-05
2.09224e-06
3.06498e-06
1.52008e-06
5.55236e-06
1.22979e-05
6.8821e-06
1.99117e-05
2.85107e-05
2.37976e-06
1.21433e-05
5.91676e-06
8.9412e-06
1.95736e-06
1.5589e-06
5.14196e-06
3.13978e-06
1.03901e-05
5.06831e-06
1.3514e-05
1.26105e-06
1.80613e-05
2.32376e-06
3.61619e-06
1.17033e-05
1.32732e-05
4.33079e-06
7.41428e-06
1.94321e-05
7.92222e-06
1.37607e-06
8.99548e-07
1.36879e-05
3.87384e-06
9.35317e-06
5.29026e-06
1.30825e-06
6.22387e-06
2.53874e-06
5.7064e-06
1.56775e-05
1.09908e-06
2.17858e-06
1.70511e-06
5.86472e-06
1.57131e-05
1.02959e-05
1.95012e-05
3.33718e-05
2.76756e-06
8.53713e-06
2.08645e-06
3.43685e-06
1.393e-06
1.91914e-06
1.83132e-06
2.9872e-06
1.0299e-05
7.00504e-06
1.6103e-05
1.35425e-06
2.2567e-05
8.32792e-07
1.6236e-06
1.26553e-05
1.1489e-05
3.61493e-06
6.73778e-06
1.41534e-05
6.23663e-06
2.05297e-06
5.90385e-07
8.26968e-06
1.50827e-06
1.25145e-05
4.38068e-06
1.09059e-06
5.14197e-06
2.06869e-06
4.48274e-06
1.32947e-05
1.31665e-06
3.22908e-06
1.29553e-06
5.59525e-06
1.98626e-05
1.16589e-05
9.03996e-06
1.80227e-05
1.72471e-06
2.97095e-06
3.75769e-06
5.42239e-06
9.174e-07
3.76764e-06
1.09746e-06
2.97883e-06
5.01463e-06
7.21404e-06
1.47927e-05
3.89125e-06
1.75772e-05
7.71594e-07
1.56528e-06
1.48763e-05
1.07571e-05
1.51524e-06
3.13574e-06
7.31113e-06
4.21905e-06
2.13597e-06
1.09371e-06
9.47051e-06
4.28994e-06
6.61395e-06
9.75989e-07
4.24401e-06
7.21857e-06
2.81901e-06
2.18082e-06
1.14028e-05
6.3207e-07
1.26e-06
1.27267e-06
2.31002e-06
1.10331e-05
6.33091e-06
5.92539e-06
2.35032e-05
9.05534e-06
9.36252e-07
3.52465e-06
7.49631e-06
8.70595e-07
5.93659e-06
7.87371e-06
1.2473e-06
3.90893e-06
1.08248e-05
9.8257e-06
7.22571e-06
1.31928e-05
6.05581e-07
3.64321e-06
1.05458e-05
1.04817e-05
1.90742e-06
4.61071e-06
6.16193e-06
2.50853e-06
4.36914e-06
1.02304e-06
4.37606e-06
2.52016e-06
1.17842e-05
2.77702e-06
1.69823e-06
2.66622e-06
2.08963e-06
1.00608e-06
9.58091e-06
1.30077e-06
8.06409e-07
2.60192e-06
2.22096e-06
7.92897e-06
5.56741e-06
1.77003e-06
6.08218e-06
7.89009e-06
7.08508e-07
8.64916e-07
5.50901e-06
7.14383e-07
2.58063e-06
8.89008e-06
7.62323e-07
3.2191e-06
1.84221e-05
2.58871e-06
6.41886e-06
1.03931e-05
1.41204e-06
2.08352e-06
1.08585e-05
1.34366e-05
3.93862e-06
8.83983e-06
1.03837e-05
4.8805e-06
1.67462e-06
1.43017e-07
2.21881e-06
4.29473e-06
1.10977e-05
2.11143e-06
7.97939e-06
6.03471e-06
2.41638e-06
6.6928e-07
8.54894e-06
2.81569e-06
5.17434e-07
3.9024e-06
1.96343e-06
3.08794e-06
3.27258e-06
7.45524e-07
7.56793e-07
2.99057e-06
7.64874e-07
1.81455e-06
2.92879e-06
5.36785e-07
5.62132e-07
4.00825e-06
8.60291e-07
5.03495e-07
1.11451e-05
9.40922e-07
8.86284e-06
3.38763e-06
4.61314e-07
5.26706e-06
3.87205e-06
6.71295e-06
1.13533e-06
4.88654e-06
7.02662e-06
2.16901e-06
2.24306e-06
4.26932e-07
4.15203e-06
9.11873e-06
5.94487e-06
5.28123e-06
9.19423e-07
4.76224e-07
4.63305e-07
3.7635e-07
5.62492e-06
3.31466e-06
9.23287e-07
1.16037e-06
1.12752e-06
7.0264e-07
1.82837e-06
1.44639e-06
7.62972e-07
4.65943e-06
3.37685e-06
4.89848e-07
1.53688e-06
1.13715e-06
9.93699e-07
1.2406e-05
1.54722e-06
6.56565e-07
1.05664e-05
9.57289e-07
5.36191e-06
3.43398e-06
1.63415e-06
2.72775e-06
3.24953e-06
4.5337e-06
3.79322e-07
2.13419e-06
3.53154e-06
1.38871e-06
1.69767e-06
8.74336e-07
2.3357e-07
4.54191e-06
4.51278e-06
4.5932e-06
2.58458e-06
6.14736e-07
5.51251e-07
5.17007e-07
2.99051e-06
2.92112e-06
1.54539e-06
4.87046e-07
4.21177e-07
5.82698e-07
4.77217e-07
2.08171e-06
1.20842e-06
2.72888e-06
6.67931e-06
1.18133e-06
1.54577e-06
1.3606e-06
3.575e-07
1.19214e-05
9.75762e-06
3.77449e-07
5.52812e-06
2.06014e-06
3.06226e-06
2.79011e-06
5.60953e-06
6.36578e-07
9.2586e-06
7.97371e-06
4.15045e-07
8.2462e-07
1.75998e-06
1.81073e-06
5.60185e-06
1.69471e-07
1.81895e-07
3.23286e-06
2.77842e-06
5.85727e-06
2.34167e-06
9.87758e-07
4.9307e-07
4.77854e-07
2.63097e-06
5.17478e-06
4.72091e-07
5.69276e-07
4.93046e-06
2.0392e-06
1.11942e-06
2.33657e-06
9.05675e-07
2.37096e-07
3.95186e-07
4.39894e-07
3.79546e-07
1.79014e-06
1.66055e-06
7.55068e-06
7.79012e-06
2.77354e-07
1.74751e-06
2.66689e-06
1.94943e-06
2.59168e-07
6.66388e-07
1.19418e-06
2.32517e-06
4.85193e-06
1.06867e-06
2.20922e-06
1.99409e-06
4.85492e-06
9.47559e-06
3.71562e-07
7.73832e-08
3.25557e-06
2.1944e-07
1.06208e-06
5.887e-06
8.06915e-06
1.32059e-06
6.2343e-07
3.22147e-06
6.41351e-06
3.16634e-07
3.24927e-07
2.88006e-06
1.3973e-06
6.61033e-07
2.23628e-06
2.56663e-06
1.94354e-07
2.1612e-07
6.80961e-07
2.64867e-07
4.19723e-07
2.96643e-07
1.008e-06
3.82261e-06
5.36093e-07
8.10524e-07
5.54574e-06
1.56574e-06
2.84926e-06
5.39811e-06
3.00679e-07
8.43041e-07
6.63701e-07
3.04816e-07
2.57909e-07
2.38494e-07
4.05522e-06
6.18232e-06
4.05588e-07
1.47785e-07
1.75658e-06
1.77646e-06
2.16454e-07
3.30234e-06
1.03776e-05
2.10535e-06
3.74023e-07
3.36696e-06
4.8389e-06
3.39597e-07
2.87953e-07
2.98212e-06
3.8283e-06
6.9434e-07
8.74017e-07
6.98149e-06
1.10424e-06
2.00362e-07
1.65773e-06
7.74744e-07
4.57893e-07
1.12284e-06
2.65597e-06