/*--------------------------------*- C++ -*----------------------------------*\
  =========                 |
  \\      /  F ield         | OpenFOAM: The Open Source CFD Toolbox
   \\    /   O peration     | Website:  https://openfoam.org
    \\  /    A nd           | Version:  10
     \\/     M anipulation  |
\*---------------------------------------------------------------------------*/
FoamFile
{
    format      ascii;
    class       volVectorField;
    location    "7";
    object      U_0;
}
// * * * * * * * * * * * * * * * * * * * * * * * * * * * * * * * * * * * * * //

dimensions      [0 1 -1 0 0 0 0];

internalField   nonuniform List<vector> 
102400
(
(0.432958 -0.0922524 0.0269357)
(0.384298 -0.0959797 0.0751805)
(0.368002 -0.0911731 0.135774)
(0.320994 -0.0963832 0.130762)
(0.246535 -0.0877127 0.0880524)
(0.305434 -0.113951 0.0110796)
(0.316006 -0.0963095 0.0220948)
(0.300494 -0.0908068 0.0394953)
(0.378558 -0.0915379 0.0336736)
(0.252623 -0.0740632 0.108561)
(0.306821 -0.0729411 0.101179)
(0.352221 -0.0926763 0.112326)
(0.299908 -0.0644376 0.0571727)
(0.332165 -0.0836343 0.107937)
(0.414398 -0.092229 0.0558758)
(0.320705 -0.0801374 0.0563165)
(0.409057 -0.101009 0.106129)
(0.288689 -0.0984877 0.0829853)
(0.347563 -0.0888354 0.0899617)
(0.343675 -0.0937485 0.0470682)
(0.404481 -0.103808 -0.00863592)
(0.281039 -0.150508 0.0637454)
(0.357923 -0.0991391 0.129948)
(0.344616 -0.0966015 0.144972)
(0.311123 -0.0842375 0.0538377)
(0.342993 -0.0839517 0.0111959)
(0.382017 -0.109759 0.000246363)
(0.355901 -0.098848 0.0648759)
(0.261039 -0.0918407 0.0666709)
(0.322175 -0.0990153 0.126793)
(0.236004 -0.0942689 0.114585)
(0.242989 -0.0920594 0.0490887)
(0.246729 -0.0780905 0.0592644)
(0.313482 -0.0933744 0.101311)
(0.290923 -0.0875842 0.0785834)
(0.236718 -0.0872068 0.0637576)
(0.356685 -0.0800638 0.0430959)
(0.321533 -0.0723722 0.0332718)
(0.26947 -0.0844726 0.0888697)
(0.341243 -0.0884523 0.0788389)
(0.551835 0.0584382 -0.145532)
(0.455821 0.0884808 -0.0536875)
(0.573 0.0809598 0.0403093)
(0.397859 0.0776836 0.0964924)
(0.607089 0.0831397 0.100102)
(0.124228 0.0903405 -0.137078)
(0.365222 0.0636571 -0.0638482)
(0.0977096 0.0628028 -0.0728305)
(0.26398 0.0707421 -0.0617883)
(0.416353 0.0715234 0.102151)
(0.452353 0.0722088 0.0797316)
(0.686078 0.090732 0.0604314)
(0.455404 0.0605363 -0.0429839)
(0.644501 0.0648979 0.0400848)
(0.435788 0.0784295 -0.0813807)
(0.43739 0.0845982 -0.0128687)
(0.569693 0.0829526 -0.00356278)
(0.389048 0.078766 -0.0169785)
(0.615888 0.0765168 0.0222742)
(0.40221 0.0663475 -0.0644007)
(0.316351 0.086087 -0.105405)
(-0.284437 0.121976 0.149542)
(0.354163 0.0738036 0.102448)
(0.306872 0.0641011 0.139413)
(0.273615 0.0792633 -0.0800124)
(0.444012 0.0725705 -0.070189)
(0.269568 0.0920264 -0.187976)
(0.307213 0.0767835 -0.0404629)
(-0.00306242 0.0585175 -0.0398249)
(0.188145 0.0716887 0.199932)
(0.224601 0.0835828 0.16958)
(0.381706 0.093003 0.0336812)
(0.524884 0.0613756 0.0419553)
(0.41473 0.0853692 0.0303608)
(0.439143 0.0692478 -0.0295533)
(0.305741 0.0727278 -0.0419902)
(0.517634 0.0612768 -0.0122446)
(0.451133 0.0753425 -0.0450149)
(0.534715 0.0706514 0.0489627)
(0.39576 0.0514462 -0.0424325)
(0.323197 -0.0629893 -0.232223)
(0.180439 -0.014564 -0.251728)
(0.461669 -0.0473164 -0.0137956)
(-0.0405006 -0.0733254 0.0322633)
(0.578685 -0.0250488 0.146996)
(-0.34338 -0.056859 -0.227193)
(0.114502 -0.0748176 -0.0197487)
(-0.483132 -0.055503 -0.0359929)
(-0.00948366 -0.0600338 -0.0173914)
(0.417403 -0.037663 0.151767)
(0.336989 -0.0518262 0.10539)
(0.692657 -0.0470893 0.0353347)
(0.300315 -0.0573329 0.057239)
(0.851605 -0.0447649 0.101193)
(0.154035 -0.0307413 -0.104307)
(0.338296 -0.0563354 0.0328825)
(0.351464 -0.0385291 -0.0746739)
(0.136153 -0.0618085 -0.0246696)
(0.589255 -0.0602451 0.0218911)
(-0.168262 -0.0333802 -0.128953)
(0.0388337 -0.00862901 -0.0267809)
(-0.307264 -0.12915 0.153558)
(-0.0774279 -0.0819718 0.0486057)
(-0.216056 -0.0698104 -0.0484658)
(0.365075 -0.060426 0.0439444)
(0.387871 -0.0482293 -0.0303088)
(0.0757486 -0.0341088 -0.146496)
(-0.179576 -0.0484655 0.121714)
(-0.472576 -0.0648233 0.0795792)
(-0.215917 -0.0738143 0.193052)
(0.0747727 -0.0538956 0.102013)
(0.232734 -0.0234102 -0.122087)
(0.398852 -0.0690828 0.171936)
(0.581543 -0.0385117 0.0346416)
(0.577692 -0.0356761 0.0148189)
(0.296704 -0.056943 -0.0177097)
(0.383187 -0.0766586 0.0271525)
(0.342019 -0.0536304 0.0325041)
(0.515143 -0.0327428 0.0692985)
(-0.0869108 -0.0475858 -0.270164)
(-0.0023218 -0.00635555 -0.285908)
(0.204125 0.0690087 -0.333013)
(0.00129667 0.0669885 0.0304072)
(-0.483821 0.0141644 -0.0713857)
(0.535264 0.0774418 0.0665514)
(-0.260964 0.0453731 -0.0703793)
(-0.256544 0.0108232 -0.079566)
(-0.447288 0.0399351 -0.0181758)
(-0.325953 0.00196819 -0.12433)
(0.215245 0.0394802 0.109042)
(0.0987102 0.0489162 -0.0499167)
(0.258171 0.0796229 -0.143447)
(-0.168028 0.0350185 0.261044)
(0.649194 0.035244 0.176684)
(-0.0911967 0.0938741 -0.13106)
(0.0880646 0.0755891 -0.0647455)
(-0.129294 0.0583057 -0.0194293)
(-0.20452 0.0173962 -0.0938152)
(0.112314 0.083626 -0.0696425)
(-0.661373 0.0674864 -0.190225)
(0.0360944 0.0571156 -0.223857)
(-0.111611 0.0339003 0.0103883)
(-0.406067 0.0379777 -0.114601)
(-0.201411 -0.0100855 -0.210649)
(0.430996 0.0031382 0.0979803)
(0.282743 0.0864359 -0.0199236)
(0.219215 0.0664527 -0.0287446)
(-0.207135 0.0746079 0.172715)
(-0.129654 0.015369 0.106065)
(-0.167544 0.002194 0.117966)
(0.0255243 0.03024 -0.0873639)
(0.0619494 0.0476311 -0.274726)
(-0.0353062 0.0171631 0.169293)
(0.562879 0.0344779 0.0204209)
(0.566808 0.0449234 0.102294)
(0.325221 0.0693896 0.111134)
(0.136755 0.0562435 -0.00155869)
(0.0708299 0.0574214 -0.00246337)
(0.187918 0.100968 0.0487284)
(-0.150553 0.0196002 -0.301821)
(-0.160378 -0.0699674 -0.135819)
(0.220659 0.0303002 -0.25271)
(-0.121452 0.0352638 -0.0670998)
(-0.113654 -0.0776917 -0.0747)
(0.0694141 0.0564273 -0.0485697)
(0.212151 -0.0245365 0.0282807)
(-0.189591 -0.0430209 -0.149335)
(0.112786 -0.0524209 -0.0330364)
(-0.361156 -0.0337097 -0.010881)
(-0.333589 -0.0254354 0.0395573)
(-0.363569 -0.0074415 -0.0919542)
(-0.181012 0.0179925 0.037354)
(-0.206898 -0.0847596 0.226825)
(0.364972 -0.0152257 0.161393)
(0.050722 0.0267109 -0.151213)
(0.0252172 0.0048666 0.0300621)
(-0.121566 0.00926784 0.0341066)
(-0.191698 -0.0382461 -0.172853)
(-0.0541453 0.0578739 0.0308346)
(-0.188339 -0.0319802 -0.00921635)
(0.184946 -0.063919 -0.245661)
(-0.248468 -0.0643871 0.015064)
(-0.251148 -0.0262188 -0.0766381)
(0.0772988 -0.102109 -0.00328187)
(0.122718 -0.0412585 -0.120998)
(0.0228126 0.0549899 -0.117815)
(0.132492 0.0100205 -0.137186)
(-0.026501 -0.000359033 0.0773275)
(0.303772 -0.0544914 0.0775803)
(0.108407 -0.0795436 0.0843501)
(-0.19011 -0.0462573 -0.182183)
(-0.22131 -0.0102067 -0.131358)
(-0.318936 -0.0254626 -0.175362)
(0.206697 -0.0352743 -0.0140562)
(0.0952606 0.0535269 -0.0714652)
(0.221895 0.0246847 0.165998)
(-0.0480044 -0.0112348 -0.0920123)
(-0.251465 -0.0191202 -0.085241)
(0.510132 0.019907 0.0743911)
(0.416326 -0.0371783 -0.0586741)
(-0.193221 0.00698342 -0.0652781)
(0.133171 0.00684295 -0.267518)
(0.171218 0.0303454 -0.0519212)
(0.327365 -0.0505489 -0.083551)
(0.101583 0.0472408 0.0183017)
(0.315958 0.012084 -0.0425)
(-0.139944 -0.00907783 -0.145636)
(0.106201 0.0512882 -0.136395)
(-0.216099 0.01764 0.0725727)
(-0.480599 0.0413873 0.100938)
(-0.289989 0.0446991 0.0721156)
(-0.144968 0.0589808 0.239279)
(0.155904 -0.0624929 0.0753475)
(0.0620038 -0.0185334 0.0387278)
(0.234347 0.0691173 -0.153441)
(0.0847204 0.0443231 -0.0174683)
(0.183851 0.0373555 0.114315)
(-0.135154 -0.000941616 -0.0792782)
(0.0296007 0.0505288 0.0555234)
(0.148173 0.0136868 0.0668898)
(0.275137 -0.000378009 -0.069427)
(-0.46404 0.0495838 -0.00945068)
(-0.230004 -0.010656 -0.00462702)
(0.1887 -0.0796234 0.048495)
(0.136414 -0.00408792 -0.221281)
(0.319915 0.0456836 -0.186987)
(0.064272 0.0755219 -0.158293)
(-0.136659 0.0122077 0.0118018)
(0.423107 -0.0164297 0.0331128)
(0.254252 0.0281686 0.0429369)
(-0.317658 0.0483943 -0.322023)
(-0.141661 0.0271853 -0.0117674)
(-0.236478 0.00846628 -0.104177)
(-0.110212 -0.00808883 -0.114085)
(0.144762 0.0390587 -0.103427)
(0.101686 0.0859795 0.0574525)
(-0.340179 0.0628528 -0.186672)
(0.196576 -0.040502 -0.171414)
(0.369429 0.0130082 -0.225143)
(0.285377 0.0301168 -0.0381911)
(-0.355568 -0.0245974 -0.273148)
(0.157237 -0.00284094 0.0602794)
(0.143075 0.0406175 0.187452)
(0.377022 -0.0882726 -0.10106)
(0.151551 0.047218 0.00426967)
(0.857038 0.00699997 0.0081312)
(0.237945 -0.0206441 0.015058)
(-0.0937592 0.025691 -0.166253)
(-0.303499 0.0362729 0.00844842)
(-0.10633 -0.0240184 0.0523393)
(-0.299522 0.0208944 -0.0552287)
(-0.175948 -0.0202538 0.0550993)
(0.127694 -0.0774635 -0.00352785)
(-0.234388 -0.0256997 -0.236548)
(-0.267018 0.0351096 -0.236192)
(0.229694 0.0445381 -0.103327)
(0.216901 0.0889652 0.02633)
(0.134465 -0.0186626 -0.0668468)
(0.0285303 0.0792336 -0.0179218)
(0.328626 -0.0245053 -0.00726257)
(0.0987068 -0.0461769 -0.0459541)
(-0.510215 0.0208191 -0.126536)
(-0.53911 -0.0341361 -0.174661)
(-0.159526 -0.132507 -0.131975)
(0.199443 -0.0884275 -0.107313)
(0.227773 -0.0127192 -0.105976)
(0.213608 0.0732972 -0.302051)
(0.107336 -0.0193729 -0.080983)
(0.0195499 -0.0472492 0.00105377)
(0.508649 -0.00759091 0.0496235)
(-0.362518 0.0380501 -0.283634)
(-0.0286942 -0.00506185 -0.166524)
(0.00569313 -0.0526448 -0.0558965)
(-0.167568 -0.069099 -0.236164)
(0.151036 -0.00229602 -0.115013)
(-0.161863 0.12274 -0.063753)
(-0.485213 0.000767082 -0.0636244)
(0.380956 -0.0485323 -0.218966)
(0.0629927 0.0303929 -0.27699)
(-0.0351345 0.0178632 -0.0024768)
(-0.33853 -0.0101892 -0.0479739)
(-0.33002 -0.042256 0.0905683)
(0.305761 -0.00537677 0.0428015)
(-0.268336 -0.0450075 0.0189541)
(0.0189145 0.0165778 0.0117318)
(0.702915 -0.0195945 -0.0723775)
(0.408965 0.0659921 0.103797)
(0.123503 0.034398 -0.0842326)
(0.00711184 0.058937 -0.235988)
(0.263192 -0.0159718 -0.0844606)
(-0.175817 0.0701073 -0.0589534)
(0.0264591 -0.0217106 -0.261074)
(0.103293 -0.0244799 -0.00709728)
(-0.512827 0.0126616 -0.115398)
(-0.199974 -0.000959472 -0.110352)
(-0.266785 0.0704377 -0.169691)
(0.424555 0.0729422 0.0463474)
(0.440657 -0.00673549 -0.161637)
(0.26028 0.0263165 -0.15602)
(0.363784 0.0172474 -0.0317723)
(-0.263767 0.074272 -0.0293735)
(-0.409311 0.0745822 0.0469947)
(-0.589068 -0.0508139 0.00198339)
(-0.571743 -0.0712558 -0.186788)
(0.00550003 -0.041883 -0.128356)
(-0.297962 0.00643551 -0.140781)
(0.686427 0.00168038 -0.233851)
(0.322503 0.0113197 -0.0332864)
(-0.39183 0.0276779 -0.0820427)
(0.42058 0.00918748 -0.0586678)
(-0.217859 0.0405591 -0.200506)
(0.0657891 0.0225963 -0.187364)
(-0.00967167 0.0570108 -0.154535)
(-0.605108 -0.0728411 -0.332426)
(-0.0942702 0.0637997 -0.0579161)
(-0.406507 0.139075 -0.0410452)
(-0.171968 -0.0219943 -0.0645144)
(-0.0593769 -0.0336011 -0.191646)
(0.27002 0.0193074 -0.274934)
(0.257414 0.0334085 0.133218)
(0.203703 0.0150201 0.140637)
(-0.221857 0.00363018 -0.0533308)
(0.16179 0.00465277 -0.0523184)
(-0.683193 -0.032435 0.0159173)
(-0.0460444 0.0224736 -0.328955)
(-0.194236 -0.0178605 -0.200008)
(0.273829 0.0874957 0.0348949)
(0.0889415 0.0612598 -0.232348)
(0.14974 -0.0419396 -0.181978)
(0.163243 0.000255967 -0.255416)
(-0.270045 0.0997431 -0.166155)
(0.0822015 -0.0435253 -0.363315)
(0.257712 -0.0542663 0.062028)
(-0.448608 0.0435665 -0.102351)
(0.0876755 -0.00255596 -0.00225923)
(-0.474216 0.00526034 -0.111046)
(0.391032 -0.0392787 0.0115547)
(0.208048 -0.0294917 -0.125743)
(0.414698 0.0455137 -0.0846775)
(-0.161893 0.107407 -0.0222432)
(-0.233478 0.0358877 -0.0663927)
(0.0871199 0.0901176 0.0548967)
(-0.173674 -0.00632452 0.0798637)
(-0.241661 -0.117268 -0.200417)
(-0.0736028 -0.0271304 -0.326095)
(-0.0154016 -0.048413 0.0863738)
(0.19293 0.0236554 -0.0265739)
(0.0689885 0.03023 -0.135099)
(-0.420047 0.0135898 -0.0773369)
(0.0421666 -0.00385629 -0.135837)
(0.0203885 0.0628385 0.106166)
(0.24817 -0.00415051 -0.190492)
(0.495202 0.0340614 0.0116811)
(-0.115981 -0.0215391 -0.152474)
(-0.402453 0.00147466 -0.0497823)
(-0.339648 0.123235 0.0157156)
(-0.164227 0.0102982 -0.14325)
(-0.534789 -0.0371926 -0.0770781)
(-0.0872491 0.0250599 0.0975136)
(0.115112 0.0828894 0.0557949)
(-0.0451605 0.0340524 0.0147729)
(0.251644 -0.047413 -0.079253)
(0.0290927 0.0619517 -0.115688)
(-0.266008 0.0108048 0.0146364)
(0.0460366 -0.0313227 -0.191808)
(-0.0873404 -0.0414116 -0.192597)
(0.520719 0.0280725 -0.00305519)
(0.261729 0.0438939 -0.182847)
(-0.204244 -0.0306651 -0.0814218)
(-0.38607 -0.00856494 -0.0600932)
(-0.0695622 0.0925078 -0.0967868)
(-0.0334127 -0.059899 -0.230608)
(-0.120432 -0.00469244 0.142324)
(0.0669378 0.0428544 -0.242759)
(-0.330046 0.059436 -0.123081)
(-0.203513 -0.0188874 -0.0361135)
(-0.188824 -0.0190544 -0.235795)
(0.127629 -0.0187699 -0.0331123)
(0.0903795 0.112288 -0.190756)
(-0.248473 0.108926 -0.147783)
(0.326712 -0.0327345 -0.129007)
(0.232694 0.0861144 -0.0762839)
(-0.0586796 0.0329065 0.0640617)
(0.0824585 -0.129001 -0.013373)
(0.216445 -0.0915314 -0.0122345)
(-0.200581 0.0512131 -0.117232)
(-0.0377424 0.0153752 -0.214236)
(0.398222 0.0275543 -0.128237)
(-0.0526207 0.0247132 -0.119338)
(-0.0218831 0.0223199 -0.0864893)
(0.278485 0.0310582 0.286258)
(0.14342 0.0098881 -0.195958)
(0.329198 0.0654179 0.0698777)
(0.289487 -0.000997542 0.0659433)
(-0.595636 0.0246878 -0.189595)
(0.180351 0.150935 -0.169734)
(0.0701545 0.0311581 -0.121422)
(-0.448662 -0.0359094 0.00798951)
(-0.0960206 -0.0378706 0.0366475)
(0.3265 -0.00121291 0.0614932)
(-0.492267 0.1124 -0.240895)
(-0.0470166 -0.0365208 -0.0182813)
(0.184891 0.041394 -0.0611577)
(-0.0705846 -0.0252932 -0.178279)
(0.221587 -0.105439 0.0423044)
(0.436465 0.00379478 -0.215583)
(0.383598 -0.0382018 -0.184606)
(-0.0661326 0.0411719 -0.0914456)
(0.159942 0.0213542 0.0293399)
(-0.0407255 -0.019977 0.149325)
(0.369204 0.0105277 -0.0738505)
(-0.289716 0.00803371 -0.046887)
(-0.206375 -0.0461177 0.0020564)
(0.291577 0.0530694 -0.0228988)
(0.0180629 0.0593529 -0.123)
(0.38388 -0.0252941 -0.0799945)
(0.196611 -0.0458729 -0.173769)
(0.169848 -0.0670951 -0.0884631)
(0.136653 0.100161 -0.168938)
(-0.0319412 0.0625566 0.0198578)
(0.201334 -0.0662894 -0.129547)
(-0.73727 0.137368 -0.0339796)
(0.258766 0.0176684 0.0443804)
(0.153052 -0.114489 -0.0213342)
(0.245784 -0.0946491 0.0394156)
(0.218182 0.0475885 -0.143556)
(0.146143 -0.02148 -0.208002)
(-0.0958723 0.0697547 -0.137126)
(0.164635 0.0474222 0.0147939)
(-0.257756 0.0508391 -0.0187002)
(0.454474 0.0714165 0.237258)
(0.295356 -0.0121189 -0.0817099)
(0.0366234 0.104372 -0.104652)
(0.307865 0.130051 0.0791118)
(0.118672 -0.0267806 -0.160786)
(-0.0145071 0.0601677 -0.279406)
(-0.0511534 0.0839482 -0.141363)
(-0.106105 -0.00585592 -0.0667311)
(-0.00513262 -0.101903 -0.186191)
(0.154875 0.0316355 0.173302)
(0.0498009 0.0291336 -0.157413)
(-0.157919 -0.00983975 0.0316325)
(0.345067 0.049365 0.0522265)
(0.429747 -0.0369393 0.0306337)
(-0.109658 -0.114554 -0.0690168)
(0.485137 -0.0549824 -0.147838)
(0.297018 0.022166 -0.174898)
(-0.366434 0.116368 -0.0279446)
(0.367507 -0.0708575 0.0253199)
(0.416866 -0.0175898 0.0959168)
(0.101876 0.0751564 -0.157669)
(0.232348 -0.0346656 -0.220282)
(-0.010734 -0.0649417 -0.152422)
(0.370325 0.0366009 0.112702)
(0.494917 0.0457887 -0.0865593)
(0.730875 -0.0363879 0.0112754)
(0.139723 -0.0562358 0.0427291)
(0.536258 -0.0606006 -0.0962209)
(-0.466253 0.178826 -0.0448119)
(-0.155859 0.0843651 0.0395736)
(-0.573968 0.0744551 -0.215193)
(-0.158181 0.0973027 -0.0704129)
(0.334512 -0.0627834 -0.140148)
(-0.0731243 -0.091949 0.00121073)
(0.229528 -0.0714027 -0.122689)
(-0.127953 -0.0069198 -0.118954)
(0.247782 -0.00226347 0.0792444)
(-0.406475 0.063145 -0.252938)
(0.0861293 0.00140284 -0.0275092)
(-0.248206 0.0173217 -0.0611197)
(0.313308 0.032789 -0.042443)
(0.0702697 0.0187688 -0.0485926)
(-0.328693 0.08629 -0.170609)
(0.107538 0.0698639 -0.126732)
(0.345347 0.0151959 -0.0174619)
(-0.24385 0.153739 -0.135187)
(-0.146017 0.1066 -0.223208)
(0.207964 0.0131856 -0.079176)
(-0.0612175 -0.0347998 0.0789981)
(0.0323051 0.040535 0.0627214)
(0.251832 -0.00218199 -0.0670949)
(-0.167734 -0.0278763 -0.0617811)
(-0.12027 -0.0340642 0.056772)
(-0.101859 -0.0623651 -0.115051)
(-0.129824 -0.0450047 -0.106914)
(-0.187112 0.0157715 -0.046346)
(-0.352909 0.0681843 -0.0679016)
(-0.455127 0.0714005 0.0110191)
(0.111767 -0.0896935 0.0156429)
(0.219574 0.0360412 0.0106681)
(-0.154172 0.0786064 -0.158326)
(0.395689 -0.0982613 -0.20018)
(0.0412301 -0.0422918 -0.0771685)
(-0.067549 0.0365508 -0.163537)
(-0.1164 0.0657625 -0.129288)
(0.312881 -0.0872148 -0.0772028)
(-0.25178 -0.0129571 -0.0323824)
(0.00644476 -0.00346203 0.0870542)
(-0.344612 0.0820281 -0.0714551)
(-0.0574349 0.0795993 -0.0173756)
(-0.219534 -0.0658554 -0.229923)
(0.165237 -0.0313983 0.0570567)
(0.124198 -0.0137683 0.0986534)
(-0.473948 -0.0434871 -0.0734396)
(-0.238667 -0.00320936 -0.219545)
(-0.500695 0.0473766 0.0465873)
(0.334774 0.0499622 0.000748272)
(0.101293 0.0189156 0.178031)
(0.373795 0.00571306 0.0104145)
(-0.122966 0.0160043 0.0286561)
(-0.0248847 -0.00750548 0.0225524)
(0.147116 0.0493568 -0.0445856)
(0.265408 0.0847793 0.0145667)
(0.179977 0.00651327 -0.0508236)
(0.0681696 -0.0565691 0.0871243)
(0.239729 0.0588884 -0.101875)
(0.184526 0.0112987 -0.179492)
(0.209588 0.103128 -0.21526)
(-0.174683 0.000934565 -0.121492)
(-0.266349 0.039781 -0.223348)
(0.0165558 0.0158028 -0.0758091)
(0.110737 -0.00301293 -0.0971181)
(-0.223265 0.0366056 0.0389677)
(0.0980661 0.0247669 -0.180434)
(-0.16337 -0.102052 -0.083354)
(-0.0972541 0.0536751 -0.134762)
(-0.158492 0.0597649 -0.0542705)
(-0.323914 0.0714385 -0.163397)
(-0.103798 0.00938432 -0.0843365)
(0.0519322 0.0694429 -0.121788)
(-0.174235 0.0551935 -0.204321)
(-0.0756758 -0.0355277 -0.0802666)
(0.0464575 0.021194 -0.129659)
(0.0551584 0.0481521 -0.140078)
(-0.21721 0.0482072 -0.118754)
(0.0448531 0.0504636 0.14807)
(-0.238407 0.112177 -0.0396793)
(-0.253961 0.112888 -0.255324)
(0.0393357 0.145267 -0.0585149)
(-0.0467192 0.109352 -0.108164)
(0.354479 -0.0456817 0.0612806)
(-0.309993 0.0550667 -0.109991)
(0.0747841 0.0722417 -0.0836704)
(-0.329293 -0.0241323 -0.0513023)
(-0.190621 -0.0333149 -0.0964451)
(0.145209 -0.0467197 -0.137346)
(0.0724977 -0.00933811 -0.0500153)
(-0.30941 0.0173741 -0.0780426)
(0.153225 -0.00784843 0.156923)
(-0.0594474 0.0833686 0.1842)
(0.017131 -0.00463923 -0.170586)
(0.209081 -0.0058241 -0.0602066)
(0.287917 0.10026 0.0682965)
(-0.0684467 0.00455534 -0.0647495)
(-0.405674 -0.00695858 -0.163558)
(0.486596 0.136346 -0.0445062)
(0.285603 0.0614678 -0.0884544)
(-0.1739 0.0937712 -0.131079)
(-0.125764 -0.0175396 -0.0599189)
(-0.304655 0.0270596 -0.151263)
(0.0572507 -0.020053 -0.0994214)
(0.116741 -0.0482591 -0.0591788)
(-0.129899 0.0287186 0.0460064)
(0.0243461 -0.0589667 -0.183799)
(-0.0379736 -0.0419995 -0.1405)
(-0.0899557 -0.00994365 0.0390964)
(0.00050802 0.0673617 -0.116882)
(-0.250619 0.0615016 0.0119068)
(-0.0605849 -0.0821283 -0.0602443)
(-0.237367 0.0979371 -0.188276)
(-0.0240923 0.0920454 -0.279247)
(-0.219383 -0.0237995 -0.203791)
(0.0467134 -0.0771615 -0.0417845)
(-0.032029 0.0104994 0.152584)
(-0.170359 0.033832 -0.0680431)
(-0.331141 0.0361101 -0.0441394)
(-0.186005 0.0442352 -0.00203846)
(-0.266248 0.00190741 -0.17309)
(0.290674 0.0429359 -0.223689)
(-0.14872 0.085585 -0.208869)
(-0.0452004 -0.00911954 0.0240808)
(-0.296462 0.0901613 -0.146028)
(-0.0344313 0.078692 -0.13399)
(-0.159658 -0.00152585 -0.0896354)
(0.056229 -0.0722993 0.136455)
(0.259512 -0.0178351 -0.25843)
(-0.241689 0.0654755 -0.100615)
(-0.362811 0.0848272 -0.000443428)
(-0.404705 -0.00823283 -0.0875676)
(0.23464 0.0465268 0.0604154)
(0.175427 -0.0659526 -0.0462262)
(0.11934 0.0433085 -0.0583178)
(0.212447 0.163003 0.0357794)
(0.23231 0.0761732 -0.0708416)
(-0.106024 -0.102333 -0.0669772)
(-0.123712 -0.0211402 0.132658)
(0.140523 0.0833825 0.114946)
(0.0502794 0.08269 -0.0733004)
(-0.0448842 0.0391638 -0.008106)
(-0.180258 0.0217122 -0.170853)
(0.363473 -0.0509206 0.0291414)
(0.34506 -0.0205565 -0.115142)
(-0.151401 0.0762458 -0.00416703)
(0.197514 -0.028458 -0.0362084)
(-0.0917904 -0.022973 -0.117485)
(0.102785 -0.00241687 -0.068531)
(0.169398 0.0842692 -0.189508)
(-0.0566054 0.0293339 -0.0939996)
(0.0847702 -0.0317672 -0.0566097)
(-0.169955 0.0221638 -0.00814012)
(0.235362 0.0916802 -0.176029)
(0.0274275 -0.0139228 -0.0608559)
(-0.16047 3.31435e-05 0.141982)
(0.129388 0.115913 -0.0345624)
(-0.0661168 0.0613744 -0.179008)
(-0.0151385 0.023499 -0.121314)
(-0.141984 0.0668493 -0.100072)
(-0.170233 -0.00409118 -0.0670476)
(-0.052182 0.116199 0.00281831)
(-0.0328629 0.187408 -0.123798)
(-0.0593702 0.0210697 -0.296347)
(-0.0401645 0.052116 -0.134983)
(-0.0774664 0.0582798 0.0106711)
(0.025035 -0.0445957 -0.0793854)
(0.0370952 -0.0486527 -0.0767799)
(-0.16333 0.0585998 -0.23774)
(-0.197201 0.0462539 -0.0302048)
(-0.23653 0.0696728 0.119927)
(-0.13075 -0.00112085 -0.0649999)
(0.0642929 -0.0718639 -0.223786)
(0.1106 -0.0137812 -0.0482069)
(-0.166111 -0.00881233 -0.176212)
(0.433722 0.0785643 -0.0100018)
(0.562386 0.0237553 -0.0959268)
(-0.0160117 0.049922 -0.0688727)
(-0.269128 0.0811801 0.0189615)
(0.0392468 0.0675974 0.0345674)
(0.339629 0.0695539 -0.123377)
(0.00860978 0.0806341 -0.0761893)
(0.0712096 0.0885387 -0.0323698)
(-0.0600374 -0.0274569 0.0186975)
(0.0908428 0.0396989 -0.0786092)
(0.00747432 0.00781096 -0.0621834)
(0.147708 -0.0382595 0.0188972)
(-0.0506387 0.025558 -0.0203842)
(0.187241 -0.0377607 -0.0172306)
(0.38365 0.0505549 -0.088239)
(0.092877 0.0706739 -0.136606)
(0.0544538 -0.0519006 -0.144981)
(-0.00652879 -0.0108209 0.0709101)
(0.264527 0.0458871 -0.00503505)
(0.138938 0.0234528 -0.023241)
(-0.157545 -0.00369198 -0.00525781)
(-0.0519394 0.093271 -0.0768337)
(0.286865 0.011643 -0.150844)
(0.387843 -0.0384112 -0.128275)
(-0.0274826 0.0143654 -0.128999)
(-0.118148 -0.0178798 -0.121402)
(-0.325023 0.128793 0.0128318)
(0.387874 0.101754 -0.0284767)
(-0.196889 0.0395397 -0.151811)
(-0.0446278 0.0909704 -0.0340684)
(-0.17773 0.0568302 0.0105224)
(0.133034 -0.0579302 0.0111357)
(-0.135537 0.0186358 -0.0553333)
(-0.222731 0.0118413 -0.137166)
(-0.283632 0.119313 0.00407658)
(-0.071515 0.0960723 0.0076086)
(-0.0888228 -0.0218108 -0.0350356)
(-0.135154 0.0889449 -0.130944)
(0.104822 0.00661241 -0.166989)
(-0.181081 -0.0469005 -0.158205)
(0.497345 0.0348296 -0.117121)
(0.20528 0.0834791 -0.152043)
(-0.105393 0.0350532 -0.0825411)
(-0.0556947 -0.042823 -0.224062)
(0.307472 -0.0113663 -0.171114)
(0.00993517 0.0362638 -0.137372)
(0.108091 0.0522867 -0.0335578)
(0.203396 -0.0595821 0.0792186)
(-0.11153 0.0765033 -0.0455663)
(0.0721455 0.0576327 -0.126789)
(0.150463 0.029639 -0.109615)
(0.0824471 -0.0452585 -0.0198421)
(-7.5163e-05 -0.0372261 -0.0685202)
(0.100476 -0.0708201 0.0816579)
(0.22992 0.064494 -0.0339567)
(0.0927501 0.130267 -0.128307)
(0.0818045 -0.0582695 -0.0788563)
(-0.0485056 -0.00713129 0.0253006)
(0.180032 0.0301605 0.105555)
(0.0248155 0.00931428 -0.0613878)
(-0.0904833 0.0529444 -0.0194604)
(0.136221 0.010457 -0.0206376)
(0.333481 -0.0548024 -0.107137)
(0.160189 -0.0216803 -0.114988)
(0.00186695 0.0576552 -0.0509304)
(-0.0950137 0.0805096 -0.0753834)
(-0.208102 0.0417368 -0.120658)
(0.212914 0.126872 -0.0157518)
(-0.115768 0.0402406 0.0466693)
(-0.134074 0.103915 0.0200088)
(0.0255404 0.107858 -0.0493999)
(0.0629324 -0.0445966 -0.119814)
(-0.126723 0.0501679 -0.0517324)
(-0.0083005 0.0264271 0.00899128)
(0.0781714 -0.0146593 -0.195774)
(0.0257872 0.0151722 -0.111251)
(-0.10253 -0.000305791 0.0601038)
(0.000736262 -0.0853918 -0.0849378)
(0.119126 0.00163675 0.00930128)
(0.102394 -0.0989251 -0.0816085)
(0.137208 0.0318193 -0.113973)
(-0.0129921 0.0626294 -0.032179)
(-0.079432 0.104974 -0.0733878)
(0.00481064 -0.0761691 -0.0240097)
(-0.0339993 0.0905771 -0.0756538)
(-0.267977 0.0857688 -0.0814511)
(0.175042 0.0801722 -0.0218365)
(0.0469027 0.0497698 -0.0150377)
(0.104607 0.00176465 -0.00906071)
(0.204695 -0.0257582 -0.101149)
(0.188614 -0.0466749 -0.113825)
(-0.133427 0.0290199 -0.0615031)
(-0.118648 0.00751849 -0.0980599)
(-0.131908 0.0595517 -0.00710404)
(0.121417 0.122488 0.141567)
(0.110706 0.0866185 -0.110108)
(0.0648368 -0.0182819 -0.0544674)
(-0.0845449 0.0467855 -0.000160039)
(0.0945361 0.126547 -0.0603666)
(0.116546 0.0277731 -0.121601)
(0.105302 -0.0120734 -0.0320701)
(0.170447 0.0218186 -0.0564732)
(0.242837 -0.0762057 -0.172116)
(0.121406 0.0178525 -0.0969851)
(0.0384837 0.0413148 0.0380584)
(-0.0554436 0.0866268 -0.00732159)
(-0.100839 0.0244203 -0.0691063)
(-0.00651279 0.0404697 -0.0450445)
(-0.0152644 0.0623133 0.00984325)
(-0.0742086 0.0812893 -0.0807916)
(0.237716 0.0162572 -0.150489)
(0.046431 -0.00888631 -0.0296978)
(-0.0806475 0.0198407 0.0196864)
(0.153832 -0.01158 -0.0170097)
(0.188399 -0.00738973 -0.115632)
(0.0604842 0.0138481 -0.165671)
(0.00410464 0.00792661 0.0212983)
(0.0336986 -0.0082109 -0.0747698)
(0.0954549 0.0193726 0.0115797)
(0.0512726 0.00887771 -0.126079)
(0.0275036 0.0695789 -0.0357178)
(-0.0290776 0.0438653 -0.0195773)
(0.0183123 0.0784181 -0.0255599)
(0.0823554 0.019461 0.0336732)
(-0.11088 0.119697 -0.0909152)
(-0.15907 -0.0278642 -0.0802968)
(-0.199285 0.102406 -0.0331117)
(0.0857203 0.00327243 -0.0221144)
(0.12762 0.0508727 -0.0623779)
(0.0861214 0.0303743 -0.0210534)
(0.151299 0.0604347 -0.105323)
(-0.0677732 0.0269426 -0.0492023)
(-0.105633 -0.0014712 -0.0792419)
(-0.138365 -0.000183429 -0.0284808)
(0.139584 0.0604869 0.023863)
(0.13214 0.0394084 -0.0955671)
(0.0455721 -0.00248459 -0.0448304)
(-0.115164 0.0291071 -0.0515306)
(-0.13583 0.0977829 -0.187462)
(0.22096 0.0174294 -0.104408)
(0.0706983 0.0112534 -0.0473493)
(-0.0340318 0.0862408 -0.104879)
(0.0918376 0.0158219 -0.122684)
(-0.0407827 0.0794181 -0.0288381)
(0.0709716 0.0890332 0.0609974)
(-0.0275781 0.0980376 0.0265818)
(-0.0762196 0.0283632 -0.00880375)
(-0.129075 0.0026452 -0.0330009)
(-0.0357397 0.0396941 -0.0399693)
(0.075012 0.0627259 -0.184944)
(0.0945155 0.038261 -0.179596)
(0.0725383 -0.0134429 -0.0115848)
(0.0119414 0.00445873 -0.0278615)
(0.123284 -0.00575966 -0.0259893)
(0.0487198 0.106681 -0.100675)
(0.0570552 0.033776 -0.073515)
(0.0211634 0.0281754 0.0345429)
(-0.116828 -0.0674247 0.00282595)
(0.0966064 0.00889252 -0.0991841)
(-0.0339967 -0.00152348 0.0213449)
(0.0480055 0.0656582 -0.0407391)
(-0.0211236 0.0248129 -0.0478118)
(0.0601814 0.0127607 -0.0499942)
(0.166247 0.000741022 -0.015588)
(0.0894853 0.0971464 -0.171982)
(-0.0145561 0.0717734 -0.0408766)
(-0.0632889 -0.0170502 -0.0150371)
(0.00908093 0.0147553 -0.0647329)
(-0.0807028 0.0761744 -0.0854015)
(0.0409436 0.0623657 -0.035926)
(0.0218502 0.0679958 -0.11696)
(0.0315465 0.0468714 -0.0414807)
(-0.0405958 0.0302648 -0.012274)
(0.0118855 0.000201557 -0.0546053)
(0.138633 0.078517 -0.0535869)
(0.0794114 0.0663788 -0.0777973)
(0.0649981 0.0101227 -0.0145959)
(-0.054702 0.0520406 -0.0233411)
(-0.0714109 0.00912339 -0.052941)
(0.188865 0.0385278 -0.0655314)
(-0.0477935 0.0899331 -0.0137799)
(-0.110463 0.0251485 0.0122067)
(-0.0612031 0.0589415 -0.132565)
(-0.0623302 0.0557993 -0.0785693)
(0.0821023 0.0727832 0.0346251)
(0.0423895 0.0641522 0.0274604)
(-0.0151139 0.0412295 0.0455211)
(-0.0153566 0.0152551 -0.0214723)
(-0.00898154 -0.0266877 -0.0613876)
(0.0885089 0.0669083 -0.064269)
(0.0097321 0.0763435 -0.0696345)
(0.0908447 -0.00295402 -0.0214221)
(-0.00465675 0.000155876 -0.00433488)
(-0.0560356 0.0868793 -0.0278449)
(-0.0846553 0.0995788 0.00863369)
(0.0353364 0.0486428 -0.00696728)
(0.0814165 0.0266583 0.0433702)
(0.0496473 0.0127337 0.0257642)
(0.00947777 -0.0060032 -0.112281)
(-0.00268797 -0.00866058 0.0313894)
(0.0311747 0.0898914 -0.00612079)
(0.000354088 0.0414277 -0.0482895)
(0.0139154 -0.0226411 -0.0632313)
(0.0734033 0.0793196 -0.142414)
(-0.0384186 0.139411 -0.150603)
(0.0380065 0.0456848 -0.00594739)
(0.0464406 0.0606614 -0.0163444)
(-0.0172744 -0.0157421 -0.0175722)
(-0.0834584 0.0311028 0.0115582)
(0.00966617 0.0615013 0.00615255)
(-0.0219052 0.0477847 -0.0338778)
(0.0559767 0.0168751 -0.0249007)
(0.0122425 0.0019842 0.00386942)
(0.0461716 -0.0557241 -0.0174074)
(0.0550153 0.0979956 0.00750824)
(0.0444928 0.0866414 -0.0134207)
(0.0644934 0.0218546 -0.0072747)
(-0.0445066 0.0587105 -0.00518822)
(-0.012186 -0.00723435 0.0119717)
(-0.0744802 0.133089 -0.0424569)
(-0.0145326 0.114334 -0.00714429)
(0.0186469 0.0307615 0.0264586)
(-0.0652685 0.0550852 -0.0185395)
(0.00315995 0.0151118 -0.0555998)
(0.0681166 0.0377559 0.0237201)
(0.0628544 0.0663305 0.0253921)
(0.0926865 -0.000453748 0.0343216)
(0.0275427 0.0704749 0.00709877)
(0.00558355 0.00842818 -0.0413584)
(-0.00157331 0.0867115 0.0501766)
(0.0576775 0.0529334 0.0249403)
(0.0809961 -0.00323378 0.00344734)
(0.00860866 0.0237443 0.0105807)
(-0.0767549 0.0413042 0.000898889)
(-0.00594336 0.0335729 0.00462639)
(0.0144244 0.0385473 -0.00467721)
(0.114517 -0.0133046 -0.00300174)
(0.0482322 0.0369499 0.0352348)
(0.00893339 0.00341444 -0.0526451)
(0.011225 0.0112651 -0.0303582)
(0.0615853 0.0519495 0.0483406)
(0.0249031 0.0625905 -0.00923317)
(0.0211222 -0.025412 -0.0101944)
(-0.149461 0.071095 -0.129415)
(-0.119612 0.135282 -0.0452037)
(0.0809702 0.0337423 0.0214753)
(0.0500491 0.0300689 -0.0112709)
(0.0273572 0.0371915 0.00298915)
(0.0163093 0.050088 0.00443901)
(0.0476876 0.0359692 0.0348553)
(0.0564532 0.0180595 0.0139896)
(0.0764768 0.004797 0.00247184)
(0.0603305 0.00176841 0.00660558)
(0.0478587 -0.0173973 -0.0100901)
(-0.00686169 0.0956291 0.0244102)
(0.0630245 0.0700839 0.0148577)
(0.0926793 0.0162551 0.017628)
(-0.00791146 0.0636277 0.00338535)
(0.0334382 -0.0170862 0.0153333)
(-0.172711 0.0804202 -0.0191986)
(0.0624709 0.0612923 -0.0149444)
(0.045243 0.0321664 0.00268596)
(0.0309216 0.0643318 0.0297801)
(0.0587103 -0.00888944 -0.00476215)
(0.0594167 0.0281032 0.00661458)
(0.0742969 0.0431131 0.0173529)
(0.0955744 0.000457091 0.00943136)
(0.0473821 0.0365043 0.0278957)
(0.038587 -0.0229022 -0.00101618)
(-0.0240459 0.0646475 0.0221257)
(0.0917117 0.0203606 0.0239781)
(0.0799042 0.00593921 0.00362562)
(0.0544554 0.0233775 0.0103398)
(0.0192047 0.0291764 0.00156187)