/*--------------------------------*- C++ -*----------------------------------*\
  =========                 |
  \\      /  F ield         | OpenFOAM: The Open Source CFD Toolbox
   \\    /   O peration     | Website:  https://openfoam.org
    \\  /    A nd           | Version:  10
     \\/     M anipulation  |
\*---------------------------------------------------------------------------*/
FoamFile
{
    format      ascii;
    class       volVectorField;
    location    "7";
    object      U_0;
}
// * * * * * * * * * * * * * * * * * * * * * * * * * * * * * * * * * * * * * //

dimensions      [0 1 -1 0 0 0 0];

internalField   nonuniform List<vector> 
102400
(
(0.250855 -0.0784146 0.00191969)
(0.20917 -0.0780772 0.0395667)
(0.248321 -0.0779149 -0.0178943)
(0.278811 -0.0725357 0.038754)
(0.287203 -0.071533 0.0692302)
(0.239647 -0.0768229 0.0384773)
(0.192303 -0.0605102 0.118848)
(0.144954 -0.0501956 0.139606)
(0.125376 -0.0735787 0.105366)
(0.118411 -0.0873398 0.0523691)
(0.123798 -0.0871394 0.0104053)
(0.173119 -0.0789976 -0.0216628)
(0.152841 -0.074586 0.0180841)
(0.157618 -0.0747356 0.0330721)
(0.205158 -0.0735459 0.0494701)
(0.147155 -0.0557612 0.125722)
(0.162378 -0.0669807 0.089555)
(0.115248 -0.0599101 0.109217)
(0.106796 -0.0790715 0.0370728)
(0.104011 -0.0806509 0.012285)
(0.235506 -0.0855018 -0.00743807)
(0.2208 -0.0794798 0.0351287)
(0.127506 -0.0643375 0.0999256)
(0.108803 -0.0644478 0.11221)
(0.128882 -0.0742973 0.00955325)
(0.235701 -0.0828931 -0.033662)
(0.199765 -0.0756652 0.0432869)
(0.169714 -0.0684684 0.0888959)
(0.108662 -0.0577763 0.137689)
(0.0679666 -0.073777 0.0841402)
(0.0634372 -0.075316 0.027025)
(0.1199 -0.0855961 0.00534512)
(0.135617 -0.0842635 0.0133728)
(0.150095 -0.0812568 -0.0148358)
(0.268232 -0.0853854 -0.0620334)
(0.280203 -0.0771609 0.0086754)
(0.171618 -0.0605761 0.134864)
(0.101389 -0.0810031 0.0746485)
(0.184515 -0.0787506 -0.0377432)
(0.259398 -0.0846941 -0.0767949)
(0.58485 0.0677945 -0.164586)
(0.455124 0.069149 -0.0733197)
(0.546228 0.0624622 -0.188211)
(0.624055 0.0565454 -0.0926838)
(0.602012 0.0561379 -0.00263657)
(0.458071 0.0634467 -0.0790683)
(0.324122 0.0413662 0.0206059)
(0.192805 0.0416678 0.0598013)
(0.251738 0.0812818 -0.0303617)
(0.30304 0.0961183 -0.102792)
(0.316547 0.0912218 -0.123915)
(0.425589 0.0691296 -0.204961)
(0.344388 0.062775 -0.127174)
(0.298796 0.0630115 -0.0826294)
(0.368262 0.0568548 -0.079441)
(0.209162 0.041924 0.0432051)
(0.294602 0.0589039 0.00843168)
(0.187217 0.058965 0.0155274)
(0.206274 0.0816342 -0.0759214)
(0.193591 0.0772619 -0.095655)
(0.422961 0.0623897 -0.107521)
(0.460271 0.060449 -0.097465)
(0.296677 0.050643 0.0167146)
(0.235348 0.0601359 0.0600967)
(0.277195 0.0656247 -0.0765993)
(0.491858 0.0592412 -0.18713)
(0.366528 0.0597547 -0.0616307)
(0.309901 0.05544 0.0161744)
(0.15569 0.0498922 0.0757826)
(0.14906 0.0786961 -0.0432102)
(0.182088 0.0835297 -0.148209)
(0.338115 0.0893932 -0.203567)
(0.37041 0.0851781 -0.173252)
(0.359605 0.0762007 -0.200635)
(0.670671 0.0738323 -0.31606)
(0.667636 0.057615 -0.137582)
(0.338201 0.0538475 0.0866885)
(0.226456 0.085205 -0.0162663)
(0.367377 0.069432 -0.205559)
(0.569058 0.068507 -0.269381)
(0.690331 -0.0491258 -0.150739)
(0.566163 -0.0454535 -0.127131)
(0.689378 -0.0507706 -0.30052)
(0.79629 -0.0484246 -0.208003)
(0.720131 -0.0439797 -0.0259711)
(0.617872 -0.0423893 -0.147563)
(0.509169 -0.0489479 -0.139595)
(0.340037 -0.0431226 -0.0466156)
(0.424066 -0.0218583 -0.136014)
(0.513971 -0.0255639 -0.214618)
(0.513956 -0.0292147 -0.204153)
(0.668523 -0.038786 -0.261937)
(0.591459 -0.04779 -0.245284)
(0.504416 -0.0462705 -0.183778)
(0.538095 -0.0558483 -0.204512)
(0.357624 -0.0635074 -0.12493)
(0.355998 -0.0525077 -0.0645613)
(0.247117 -0.0339409 -0.0335681)
(0.311128 -0.0245202 -0.113322)
(0.34112 -0.0463779 -0.169035)
(0.562201 -0.0826276 -0.0362153)
(0.661229 -0.0705148 -0.0965899)
(0.477324 -0.0422106 -0.0905265)
(0.304633 -0.0273604 0.0174409)
(0.433132 -0.0430017 -0.0817232)
(0.611528 -0.0759534 -0.1902)
(0.453631 -0.0542657 -0.0874724)
(0.43891 -0.0435934 -0.0315377)
(0.30501 -0.0318351 0.042737)
(0.367369 -0.0285884 -0.141952)
(0.326157 -0.0358982 -0.217133)
(0.515946 -0.0330174 -0.252297)
(0.606528 -0.0291031 -0.269236)
(0.540024 -0.037164 -0.193379)
(0.842047 -0.053168 -0.324027)
(0.800321 -0.0570044 -0.204402)
(0.434065 -0.0294527 0.0253728)
(0.367028 -0.0245247 -0.0701348)
(0.520421 -0.0414972 -0.209015)
(0.698806 -0.0788172 -0.149701)
(0.722171 0.0295156 -0.17176)
(0.596385 0.0507023 -0.180683)
(0.704677 0.0311575 -0.328745)
(0.80875 0.0239129 -0.276887)
(0.737295 0.0268004 -0.0577576)
(0.60509 0.0466949 -0.192628)
(0.553918 0.0221602 -0.181504)
(0.386353 0.0236935 -0.0899924)
(0.40991 0.0667224 -0.166116)
(0.505377 0.0780794 -0.211184)
(0.557811 0.0795544 -0.115472)
(0.717662 0.0427612 -0.161298)
(0.675865 0.028948 -0.244874)
(0.640283 0.0425131 -0.284084)
(0.551666 0.0579579 -0.279075)
(0.479419 0.0036348 -0.257315)
(0.326259 0.0221117 -0.0417096)
(0.226058 0.0378809 0.0027707)
(0.391787 0.0398071 -0.0657546)
(0.435534 0.0768041 -0.200771)
(0.596281 0.00675268 -0.0370107)
(0.595218 -0.00999675 0.038248)
(0.49827 0.0291083 -0.130314)
(0.370428 0.0335021 -0.0128353)
(0.50643 0.0327677 -0.0626242)
(0.647662 0.00467409 -0.170761)
(0.423472 0.0515849 -0.0903691)
(0.470815 0.0408983 -0.0587035)
(0.438459 0.0470689 -0.0129387)
(0.400109 0.0775715 -0.189548)
(0.333082 0.0756495 -0.180018)
(0.577285 0.0660493 -0.181918)
(0.588564 0.0612663 -0.261095)
(0.606522 0.0437227 -0.103756)
(0.786526 0.0479993 -0.257996)
(0.797255 0.0327701 -0.297885)
(0.466827 0.0366288 -0.0304988)
(0.391435 0.0548713 -0.0188678)
(0.595684 0.0493201 -0.0989215)
(0.792751 0.0050874 -0.144487)
(0.794125 -0.0416139 -0.218711)
(0.683986 -0.0128022 -0.214663)
(0.756169 -0.0358534 -0.20668)
(0.902776 -0.0372647 -0.270903)
(0.820687 -0.0339034 -0.0985878)
(0.697051 -0.0298576 -0.147034)
(0.629902 -0.0276973 -0.208701)
(0.406674 -0.0346325 -0.0872182)
(0.415375 -0.00266521 -0.134865)
(0.607717 0.0250096 -0.214655)
(0.645229 0.0274779 -0.139481)
(0.632059 0.00118905 -0.0640192)
(0.660858 -0.0557175 -0.13954)
(0.700001 -0.0495521 -0.269083)
(0.605378 -0.0104529 -0.311132)
(0.513161 -0.030173 -0.304664)
(0.303014 -0.0296991 -0.0321408)
(0.2675 -0.0246244 0.0022091)
(0.417843 -0.0264772 -0.00436619)
(0.506164 0.011639 -0.164195)
(0.607588 -0.0385759 -0.150907)
(0.46307 -0.0663213 0.0813313)
(0.536702 -0.0649329 0.0063407)
(0.527152 -0.0304285 -0.0527287)
(0.579396 -0.0364964 -0.125345)
(0.712929 -0.0568264 -0.222841)
(0.509412 -0.00943366 -0.09556)
(0.530165 -0.0225017 -0.0230342)
(0.494177 0.0181022 -0.026792)
(0.497868 0.0437297 -0.225073)
(0.443582 0.0123088 -0.217813)
(0.55039 0.00340036 -0.217735)
(0.618518 0.000466417 -0.219326)
(0.525884 -0.0248335 -0.0892082)
(0.689302 -0.0137191 -0.156154)
(0.909518 -0.0306799 -0.311401)
(0.59694 -0.0103387 -0.108492)
(0.499915 0.00325229 -0.0541551)
(0.530588 -0.0248919 -0.00654645)
(0.734582 -0.0510116 -0.123259)
(0.795319 0.00899992 -0.18562)
(0.703027 0.0478624 -0.153757)
(0.715957 0.044996 -0.111758)
(0.886485 0.0111948 -0.210413)
(0.845928 0.0184042 -0.178087)
(0.769156 0.034071 -0.131604)
(0.665167 0.0146994 -0.244867)
(0.45583 0.00904346 -0.0766912)
(0.498959 0.033128 -0.042215)
(0.643083 0.0515215 -0.133286)
(0.560628 0.0858041 -0.144085)
(0.53503 0.0687358 -0.0232398)
(0.621405 0.00760794 -0.127187)
(0.553014 0.0112521 -0.248519)
(0.559282 0.0484262 -0.241005)
(0.499188 0.00759 -0.284575)
(0.399283 0.0148821 -0.142704)
(0.356816 0.0296648 -0.0907369)
(0.324427 0.013261 -0.0143617)
(0.412423 0.0556375 -0.0837756)
(0.569818 0.0199122 -0.0797237)
(0.51756 -0.00065838 -0.0291415)
(0.559659 -0.0199432 0.0776577)
(0.609749 0.0129719 -0.0889199)
(0.615386 0.0232958 -0.131041)
(0.707979 -0.0187242 -0.241722)
(0.54603 0.0448854 -0.0513)
(0.577847 0.0400037 0.000591181)
(0.497352 0.0564937 -0.0307372)
(0.581997 0.0751751 -0.189767)
(0.409256 0.0774918 -0.220675)
(0.343722 0.0591979 -0.122756)
(0.601554 0.0331813 -0.0835669)
(0.463982 0.0389021 -0.0468651)
(0.671394 0.0297954 0.0121488)
(0.855647 0.0304947 -0.233012)
(0.653752 0.0312696 -0.177076)
(0.54938 0.0531025 -0.111749)
(0.333223 0.0564811 0.112295)
(0.611703 -0.00374739 -0.0143502)
(0.797844 -0.0426187 -0.191675)
(0.72267 0.0214268 -0.0676267)
(0.71525 -0.00442784 -0.14522)
(0.889268 -0.0299849 -0.209719)
(0.865621 -0.0430572 -0.217246)
(0.772727 -0.0196707 -0.199981)
(0.705863 -0.0247715 -0.214528)
(0.472177 -0.0251602 -0.109373)
(0.506287 -0.000648616 -0.0531142)
(0.649619 0.0427754 -0.150911)
(0.495679 0.0998216 -0.138175)
(0.592332 0.0292215 -0.0308599)
(0.660595 -0.0348417 -0.168413)
(0.525484 -0.0334862 -0.267993)
(0.505616 0.0199723 -0.221443)
(0.539787 -0.0103512 -0.310311)
(0.491061 -0.0156023 -0.197905)
(0.430889 0.00338129 -0.100854)
(0.304889 -0.013956 -0.0282226)
(0.210379 0.0538242 0.015434)
(0.54184 -0.0126983 0.0537929)
(0.604728 -0.0389992 -0.00240358)
(0.559892 -0.0489509 0.132267)
(0.635118 -0.0107995 -0.0450568)
(0.65313 -0.00983817 -0.0742357)
(0.752608 -0.051973 -0.1996)
(0.570765 0.0366797 -0.0740695)
(0.616253 0.0386883 -0.0175188)
(0.550416 0.0522703 -0.038049)
(0.561772 0.0687781 -0.144043)
(0.320545 0.0944261 -0.188435)
(0.265312 0.0447671 -0.00240917)
(0.560559 0.00918859 -0.0788389)
(0.422523 0.0127513 -0.110899)
(0.569386 -0.00187885 -0.00458636)
(0.863976 -0.0192013 -0.111789)
(0.808005 0.00528458 -0.218031)
(0.600561 0.0579119 -0.108433)
(0.327512 0.0335962 0.091472)
(0.593352 -0.0298429 -0.162971)
(0.780038 -0.0118421 -0.205302)
(0.756392 0.047873 -0.134543)
(0.793711 0.0563511 -0.141152)
(0.928085 0.0194848 -0.217046)
(0.852733 -0.0131981 -0.217506)
(0.775954 0.0217102 -0.259614)
(0.827985 0.00246362 -0.186287)
(0.55848 -0.0189001 -0.103214)
(0.509145 -0.0188085 -0.0781764)
(0.607892 0.051253 -0.137679)
(0.426812 0.140106 -0.106353)
(0.648825 0.0717592 -0.0314295)
(0.841121 -0.0225085 -0.154808)
(0.619719 -0.0118723 -0.213024)
(0.582008 -0.00355468 -0.231734)
(0.643512 -0.0229411 -0.343457)
(0.506827 0.0218493 -0.200162)
(0.442634 0.0364132 -0.0427099)
(0.402842 0.0185275 -0.0330075)
(0.253585 0.0363649 0.0983224)
(0.528032 0.0130459 0.0119005)
(0.536447 -0.000276243 0.002241)
(0.605145 -0.0544002 0.16789)
(0.689674 0.00409187 0.0612551)
(0.680083 0.0227452 -0.0599647)
(0.784249 -0.0340844 -0.16529)
(0.641743 0.0352376 -0.136698)
(0.647074 0.0553541 -0.0322439)
(0.549292 0.0587405 -0.0167464)
(0.599339 0.103085 -0.126385)
(0.346223 0.106221 -0.199969)
(0.469325 0.0162441 -0.0848587)
(0.561418 0.019356 -0.0987278)
(0.425692 0.0390734 -0.147168)
(0.490069 0.024244 -0.0254827)
(0.76005 -0.000304014 -0.0446064)
(0.803909 0.0282288 -0.262419)
(0.594436 0.0926971 -0.137632)
(0.473572 0.0519284 -0.0040064)
(0.68383 -0.015529 -0.120565)
(0.846096 -0.0140524 -0.14125)
(0.840978 0.0314601 -0.190187)
(0.865852 0.0267629 -0.139546)
(0.966187 -0.0307034 -0.163775)
(0.966996 -0.0437148 -0.159771)
(0.868191 -0.0157188 -0.186632)
(0.886488 -0.0192167 -0.150297)
(0.65219 -0.0631428 -0.0029278)
(0.453405 -0.0213976 -0.0364369)
(0.471221 0.0813871 -0.115834)
(0.470313 0.135499 -0.169081)
(0.630723 0.0209661 -0.14183)
(0.932076 -0.0676746 -0.0986176)
(0.756387 -0.0348083 -0.129598)
(0.657283 0.00162145 -0.169428)
(0.670777 -0.0378603 -0.231236)
(0.534387 0.0143717 -0.103922)
(0.447669 0.0306975 -0.0752659)
(0.548571 0.0284082 -0.189344)
(0.428168 0.0422728 -0.0228157)
(0.526376 0.012854 -0.0454772)
(0.625297 -0.0148865 -0.136263)
(0.693528 -0.0625164 -0.0155972)
(0.761689 -0.0216439 0.073738)
(0.702472 0.00371391 -0.110395)
(0.717465 -0.0697441 -0.152902)
(0.604148 0.00555096 -0.143646)
(0.61831 0.0413936 -0.0578814)
(0.601134 0.0701703 -0.0193193)
(0.6371 0.127359 -0.0579789)
(0.45971 0.132436 -0.203218)
(0.666982 0.000831481 -0.244202)
(0.654702 0.00955838 -0.167474)
(0.511385 0.0226905 -0.130638)
(0.513408 0.0131727 -0.0417256)
(0.757891 -0.00480876 -0.0500443)
(0.868405 0.00297059 -0.203744)
(0.672165 0.0888982 -0.189288)
(0.525479 0.0423977 -0.0930206)
(0.678764 -0.0378473 -0.000261459)
(0.885981 0.000157436 -0.0626387)
(0.858132 0.0309222 -0.123942)
(0.801565 0.0668537 -0.134607)
(0.849926 -0.00410359 -0.0961332)
(0.971052 -0.0428295 -0.0490115)
(0.850802 0.0214425 -0.143072)
(0.900849 0.0120814 -0.217574)
(0.706141 -0.0345827 -0.00155681)
(0.351835 0.0050737 0.0234006)
(0.413525 0.10695 -0.128978)
(0.535912 0.143101 -0.286986)
(0.708747 0.0387817 -0.336959)
(0.96496 -0.0605548 -0.138051)
(0.856759 -0.0167788 -0.0990006)
(0.706062 0.000343635 -0.144357)
(0.601427 -0.00778737 -0.126159)
(0.470996 0.047606 0.00596746)
(0.495782 0.0478477 -0.0846349)
(0.641902 0.0163789 -0.205122)
(0.530412 0.0515079 -0.0800759)
(0.576577 0.0287213 -0.0159407)
(0.684528 -0.0124489 -0.15694)
(0.720438 -0.0707164 -0.0927915)
(0.796194 -0.00263716 0.0673188)
(0.777217 0.0304118 -0.0710324)
(0.674201 0.00101395 -0.123542)
(0.461883 0.0452663 -0.1119)
(0.602661 0.0624139 -0.0693571)
(0.694222 0.0639882 0.0143109)
(0.584724 0.126498 -0.0948471)
(0.595945 0.126138 -0.262034)
(0.694528 -0.0245431 -0.26144)
(0.639312 -0.00668244 -0.223263)
(0.587625 0.0459649 -0.119465)
(0.543746 0.0110286 0.00272891)
(0.802505 -0.0413256 -0.0366043)
(0.921188 0.0138985 -0.114907)
(0.725358 0.106523 -0.161734)
(0.570217 0.0521513 -0.0812331)
(0.734295 0.0130791 0.0305911)
(0.892421 -0.0122901 -0.0758398)
(0.778199 0.0680352 -0.145902)
(0.641262 0.0817055 -0.133436)
(0.79028 -0.0165458 -0.0991413)
(0.879607 -0.0435466 -0.0302759)
(0.878791 -0.0224604 -0.0756781)
(0.985108 -0.0272625 -0.222726)
(0.771201 -0.0319389 -0.0902591)
(0.468694 -0.011174 0.0526771)
(0.561839 0.0573165 -0.0285852)
(0.622561 0.138049 -0.232457)
(0.729452 0.0118387 -0.417522)
(1.00255 -0.0769784 -0.251129)
(0.943445 -0.01383 -0.0860063)
(0.785479 0.00588351 -0.176873)
(0.679587 -0.0433604 -0.158871)
(0.541588 0.0272396 -0.0724556)
(0.57385 0.0279227 -0.0378388)
(0.706019 0.0172075 -0.145944)
(0.555651 0.0639292 -0.0891035)
(0.608629 0.0545084 -0.0847068)
(0.727224 -0.0416659 -0.141778)
(0.638923 -0.0957728 -0.0188044)
(0.823163 -0.0344811 0.0986485)
(0.804281 0.0273458 -0.0262612)
(0.627006 -0.00906992 -0.141938)
(0.57775 -0.0445192 -0.16706)
(0.766582 0.00104225 -0.0350415)
(0.708074 0.0784067 0.0342418)
(0.607493 0.116735 -0.035468)
(0.716393 0.0981699 -0.21299)
(0.750727 -0.0607832 -0.197567)
(0.696254 -0.0742052 -0.170769)
(0.618235 0.0397019 -0.110737)
(0.546093 0.0248649 -0.00975062)
(0.71976 -0.0668511 -0.0843955)
(0.872441 0.00956138 -0.0890889)
(0.72601 0.117316 -0.109841)
(0.605172 0.0470446 -0.0545819)
(0.738322 0.00860731 0.0300187)
(0.817545 0.0399941 -0.112782)
(0.685416 0.0758603 -0.187437)
(0.690958 0.0551092 -0.0864362)
(0.804876 -0.0359445 -0.0715486)
(0.851957 -0.0248883 -0.17466)
(0.917208 0.00778872 -0.11616)
(1.011 -0.0123702 -0.12291)
(0.796471 -0.00981796 -0.0931473)
(0.546238 0.00348004 0.0655298)
(0.577714 0.0904914 0.0544244)
(0.652668 0.134022 -0.174176)
(0.809251 -0.0139693 -0.341245)
(1.04982 -0.0681515 -0.255269)
(0.976388 0.00247568 -0.081544)
(0.891188 0.00938215 -0.139693)
(0.806255 0.0226043 -0.229193)
(0.590298 0.0470167 -0.240609)
(0.558833 0.00706189 -0.0554742)
(0.808705 0.0253216 -0.0792251)
(0.665587 0.0816206 -0.11019)
(0.692886 0.0653079 -0.152659)
(0.848573 -0.00575705 -0.251212)
(0.663978 -0.0547201 0.0190731)
(0.723659 -0.00784694 0.0855661)
(0.782529 0.0535975 -0.0885931)
(0.628855 0.037088 -0.127018)
(0.614783 -0.0478506 -0.0922361)
(0.755339 0.00288558 -0.0897105)
(0.541025 0.117555 -0.0624818)
(0.55424 0.100978 0.0788057)
(0.705906 0.0899962 -0.0678138)
(0.705955 -0.031637 -0.234767)
(0.655292 -0.0716878 -0.165015)
(0.662881 0.0470327 -0.125607)
(0.672053 0.0388768 -0.02372)
(0.70652 -0.0307632 -0.0565355)
(0.857838 0.00398051 -0.0778789)
(0.720003 0.106058 -0.0915163)
(0.649135 0.0663365 -0.050849)
(0.762373 0.0218759 -0.00180916)
(0.75352 0.0558313 -0.100757)
(0.681773 0.0714965 -0.114011)
(0.762673 0.0868204 -0.180809)
(0.84134 -0.00943955 -0.121042)
(0.907393 -0.0633917 -0.123568)
(1.00087 -0.0453573 -0.187091)
(1.0518 -0.013188 -0.180742)
(0.917956 -0.0043751 -0.149423)
(0.599955 -0.0123869 0.0677407)
(0.482033 0.0979162 0.0126067)
(0.663943 0.106141 -0.169164)
(0.856324 -0.0286842 -0.21631)
(1.00851 -0.104331 -0.182178)
(0.993284 -0.00683117 -0.158062)
(0.948542 0.000947677 -0.0923118)
(0.861893 -0.0168282 -0.168167)
(0.665105 0.037293 -0.32596)
(0.682772 0.00131094 -0.135752)
(0.908817 -0.0174496 -0.0762124)
(0.727527 0.0637635 -0.177535)
(0.757282 0.0481089 -0.186446)
(0.824358 0.00328925 -0.228701)
(0.74687 -0.075122 0.0409412)
(0.693612 -0.0165582 0.0994252)
(0.800029 0.037142 -0.134109)
(0.692621 0.0243062 -0.107398)
(0.623816 -0.0616263 -0.000676737)
(0.577594 -0.00122709 -0.0871692)
(0.468122 0.100874 0.0315682)
(0.54578 0.0740444 0.223707)
(0.817903 0.0511924 -0.0597403)
(0.698778 -0.00849957 -0.275823)
(0.543408 -0.0402611 -0.115023)
(0.684139 0.00464546 -0.0796748)
(0.683853 0.00633576 -0.0448534)
(0.685917 -0.0828547 0.0173382)
(0.773102 -0.00150356 -0.0942618)
(0.675484 0.149571 -0.148691)
(0.689623 0.0655977 -0.0811827)
(0.742138 0.0139137 -0.0636056)
(0.761983 0.0493182 -0.0129259)
(0.729211 0.118439 -0.0626019)
(0.850328 0.0385244 -0.177108)
(0.975796 -0.00307652 -0.194095)
(0.928664 -0.02284 -0.123535)
(0.961401 -0.0658796 -0.070563)
(1.03543 -0.0141274 -0.103188)
(0.931138 0.0330162 -0.168269)
(0.60817 0.0281618 -0.0571644)
(0.498946 0.0791889 -0.0596594)
(0.708716 0.0961232 -0.0794534)
(0.809794 -0.04287 -0.166658)
(0.898228 -0.066573 -0.153492)
(0.944185 -0.0155146 -0.128196)
(1.00284 0.00199313 -0.150962)
(0.859928 0.0249202 -0.127813)
(0.685911 0.0508768 -0.218936)
(0.74286 -0.010029 -0.171854)
(0.798545 0.0220368 -0.112107)
(0.730359 0.0454508 -0.0858228)
(0.763594 0.038213 -0.157524)
(0.888872 -0.00633684 -0.164135)
(0.880746 -0.0722881 0.0122134)
(0.746529 -0.0282998 0.0725744)
(0.792728 0.0610034 -0.112866)
(0.756158 0.0476364 -0.153441)
(0.730121 -0.0591263 -0.105603)
(0.595778 -0.0304237 -0.0689301)
(0.56487 0.0666022 0.148104)
(0.630444 0.0259348 0.207188)
(0.70455 0.0373545 -0.135693)
(0.60925 0.00468248 -0.186603)
(0.512019 -0.0377568 -0.0406986)
(0.575183 0.0567 -0.0704651)
(0.532335 0.0750552 -0.0682021)
(0.60811 -0.0206198 0.0467276)
(0.651629 0.0242117 -0.0032225)
(0.652526 0.1291 -0.0833499)
(0.668969 0.0506148 -0.0724484)
(0.732764 -0.0276188 -0.0362563)
(0.732631 0.0338246 -0.0350148)
(0.729641 0.117197 -0.102187)
(0.862112 0.0651491 -0.0507361)
(1.08125 -0.00681355 -0.109542)
(1.02208 0.000517069 -0.199962)
(0.890089 -0.0219767 -0.0712457)
(0.968802 -0.0195203 0.0181879)
(0.967662 0.00746725 -0.0495706)
(0.722954 0.00375164 -0.154016)
(0.609917 0.0848215 -0.0264183)
(0.715619 0.0759169 0.0119483)
(0.770117 -0.0405514 -0.154881)
(0.735391 -0.0475559 -0.172175)
(0.846791 -0.0287785 -0.0830105)
(1.03576 -0.041066 -0.0888021)
(0.879136 0.0371191 -0.0982898)
(0.747827 0.0539328 -0.138119)
(0.7657 -0.030196 -0.198503)
(0.733616 0.026553 -0.177799)
(0.837338 0.0794288 -0.0679879)
(0.843081 -0.00645698 -0.0209055)
(0.973839 -0.0619367 -0.111025)
(1.01953 -0.0570182 -0.0456412)
(0.730348 0.0148619 0.0112932)
(0.725715 0.0546538 -0.114399)
(0.861044 0.0504833 -0.175438)
(0.869307 -0.0484154 -0.197372)
(0.665868 -0.044687 -0.191672)
(0.716528 0.0283809 0.0185797)
(0.73599 0.0584171 0.134909)
(0.591222 0.0417995 -0.0939839)
(0.672565 0.00448325 -0.209998)
(0.627444 -0.0151665 -0.0657115)
(0.505448 0.0347918 -0.01464)
(0.462944 0.0305828 -0.035975)
(0.582491 -0.0454009 0.00576859)
(0.642852 0.00947657 0.0439169)
(0.657666 0.109254 -0.0447367)
(0.642522 0.0657249 -0.0692997)
(0.698641 -0.0105737 -0.00103878)
(0.667888 0.0559455 -0.090711)
(0.703181 0.123131 -0.137252)
(0.829597 0.0618056 0.000179321)
(1.06196 -0.0218151 0.00249699)
(1.05933 0.00304068 -0.138355)
(0.921042 0.00835611 -0.0806687)
(0.912151 0.0180135 0.0285858)
(0.914503 0.028454 -0.0254963)
(0.818388 0.0018119 -0.0670576)
(0.637421 0.0550078 0.0621986)
(0.697728 0.0480422 0.0058203)
(0.821432 -0.0445738 -0.14847)
(0.676617 -0.00740468 -0.18562)
(0.792396 -0.00525334 -0.0920336)
(1.02968 -0.0503163 -0.00275339)
(0.842739 0.0433929 -0.0605711)
(0.749691 0.0528548 -0.157536)
(0.856569 -0.0345039 -0.143857)
(0.850307 0.013724 -0.103805)
(0.904066 0.0556846 -0.105936)
(0.985426 0.0176008 -0.00705752)
(1.02157 -0.0800693 -0.0952939)
(0.963923 -0.0546172 -0.0800817)
(0.70484 0.0464119 0.0969547)
(0.650971 0.0649176 0.0466755)
(0.921656 0.0498497 -0.072863)
(1.10717 -0.0539606 -0.0907841)
(0.831764 -0.074555 -0.130233)
(0.731032 0.010355 -0.039167)
(0.622306 0.0830983 0.0968541)
(0.562746 0.0452712 0.041386)
(0.636689 -0.00851645 -0.100951)
(0.592307 0.0255733 -0.0891276)
(0.564863 0.0722935 0.0217063)
(0.647299 0.0468311 0.0507072)
(0.716281 -0.04719 0.083058)
(0.664647 0.0215886 0.0598741)
(0.639816 0.101395 -0.0893961)
(0.662212 0.0246907 -0.0731916)
(0.63024 -0.00503931 -0.022271)
(0.66101 0.0289224 -0.131713)
(0.741495 0.0623914 -0.119006)
(0.875224 0.00394529 -0.0349023)
(1.06629 -0.0575757 0.0290436)
(1.06893 -0.0264861 -0.0393353)
(0.963892 0.0108478 -0.0652955)
(0.917857 0.0456777 -0.0512137)
(0.872729 0.0620055 -0.0873402)
(0.858221 0.0162881 0.0120515)
(0.653948 0.0385564 0.0138637)
(0.693919 0.0257129 -0.0403954)
(0.851143 -0.0526888 -0.0734947)
(0.729482 -0.0164252 -0.189492)
(0.78345 -0.00974765 -0.126693)
(0.97343 -0.00319212 0.0203061)
(0.822825 0.0756995 -0.0136237)
(0.836597 0.0217271 -0.0799633)
(0.892975 -0.0452567 -0.0848494)
(0.822425 0.019295 -0.093675)
(0.872614 0.0411712 -0.133879)
(0.960996 -0.00613985 0.00415253)
(1.09806 -0.064578 -0.00803792)
(0.966354 -0.029337 -0.133118)
(0.806195 0.0437385 0.0215434)
(0.770984 0.0245889 0.0678877)
(0.923931 0.0195218 -0.0080046)
(1.21027 -0.0565654 -0.00617951)
(1.0036 -0.0975006 -0.0476596)
(0.700343 0.00352586 -0.0275211)
(0.576076 0.080193 0.0809855)
(0.631883 0.0663062 0.114205)
(0.702001 0.0355067 -0.0189158)
(0.64321 0.0645579 -0.055042)
(0.639867 0.0872196 0.0315202)
(0.829316 0.00602967 0.101244)
(0.824968 -0.0515368 0.111766)
(0.631003 0.0654333 0.0141512)
(0.631193 0.121646 -0.099898)
(0.671103 0.0490914 -0.0550979)
(0.609432 0.00413001 -0.063997)
(0.766766 0.0193482 -0.0229891)
(0.836676 0.00280261 -0.0134138)
(0.939732 -0.0362682 0.023623)
(1.04002 -0.0341317 0.0570494)
(1.02942 -0.00993691 0.01983)
(0.994994 0.0146642 -0.031145)
(0.91918 0.0375147 -0.0854784)
(0.882944 0.0440168 -0.109124)
(0.917057 0.0155692 -0.00435152)
(0.768517 0.0212937 -0.00227929)
(0.737052 -0.0188421 -0.0373999)
(0.840531 -0.0718401 -0.0233239)
(0.837758 -0.0412744 -0.0919307)
(0.845384 -0.00723664 -0.12037)
(0.900934 0.0136082 -0.0209555)
(0.838562 0.0406482 0.0122187)
(0.960481 0.00553765 0.0316134)
(1.01401 -0.00206962 0.0151003)
(0.855785 0.00883404 -0.0890045)
(0.870862 -0.013392 -0.214392)
(0.933269 -0.0161612 -0.0762953)
(1.06227 -0.0354443 0.0622903)
(1.07731 -0.0264026 -0.0802967)
(0.955101 0.0257593 -0.0896018)
(0.843239 0.00994095 -0.04919)
(0.972745 -0.0303558 -0.0404975)
(1.27267 -0.0560952 0.0191431)
(1.06303 -0.0369718 -0.0282417)
(0.685916 0.0279476 -0.0368223)
(0.59501 0.0875438 0.0569011)
(0.610312 0.0725453 0.0686194)
(0.617072 0.0683407 -0.0249557)
(0.61025 0.105078 -0.0435127)
(0.760278 0.113007 0.0391641)
(1.02499 0.0480747 0.132567)
(0.940689 -0.0018485 0.135989)
(0.602433 0.0556821 -0.02492)
(0.644339 0.0841976 -0.0784171)
(0.758948 0.0531187 -0.00762507)
(0.729018 0.0182866 0.0152144)
(0.780609 0.0328707 0.017502)
(0.850751 0.0380079 0.0628851)
(0.912961 0.00863223 0.0886035)
(0.996102 -0.0229707 0.0470477)
(1.0039 -0.0120472 -0.0122463)
(0.976097 0.0292885 -0.04517)
(0.919467 0.0712215 -0.0765857)
(0.918641 0.0722108 -0.0891928)
(0.944478 0.0275278 -0.0270372)
(0.849075 0.0257717 0.0345562)
(0.789106 0.00196666 0.0446472)
(0.869573 -0.0619416 0.0368438)
(0.917283 -0.0591485 -0.021136)
(0.869016 0.000680261 -0.0840728)
(0.899294 0.0517551 -0.0289022)
(0.948369 0.0484985 0.00822257)
(0.987311 -0.029835 0.0331309)
(1.01194 0.00861791 0.0560233)
(1.00155 0.0585003 -0.0122184)
(0.948887 -0.0102611 -0.135464)
(0.943778 -0.0462032 -0.154352)
(1.11984 -0.0828703 -0.0359439)
(1.10658 -0.0373295 -0.0314644)
(1.0236 0.0485211 -0.0417075)
(1.03169 0.015008 -0.0158703)
(1.02479 -0.0541389 -0.0607581)
(1.17391 -0.11579 -0.0240991)
(1.14569 -0.0758043 -0.0203406)
(0.876707 0.0361501 -0.0465179)
(0.757553 0.0636547 0.0167478)
(0.705774 0.0313388 0.0500456)
(0.677985 0.0472597 0.0144479)
(0.670752 0.074765 0.000179624)
(0.781492 0.0719776 0.0544584)
(0.969557 0.0352284 0.113216)
(0.998988 0.019989 0.123239)
(0.852131 0.0524757 0.0622067)
(0.860529 0.0406458 0.0230648)
(0.860373 0.0429607 0.0167407)
(0.765138 0.0477345 0.0173119)
(0.818344 -0.0080448 0.0509865)
(0.817359 -0.0221939 0.0329613)
(0.862482 -0.0159097 0.0153932)
(0.958959 -0.0122398 -0.00974805)
(0.97817 -0.026002 -0.0348975)
(0.931764 -0.00236695 -0.0800406)
(0.927611 0.0440709 -0.0646971)
(0.984463 0.0321699 -0.0091501)
(1.01032 0.0133177 0.00934583)
(0.918401 0.0149404 0.0315155)
(0.858686 -0.017778 0.0575287)
(0.923401 -0.0558991 0.0527607)
(0.949299 -0.0396428 0.00169457)
(0.886813 -0.000554117 -0.0498084)
(0.880802 0.0304863 -0.0443271)
(0.966835 0.0525399 -0.0223374)
(1.03138 0.0149627 0.0178015)
(1.03161 0.017069 0.0259433)
(1.05057 0.0676249 -0.00430135)
(1.05367 0.0239431 -0.0456054)
(1.02975 -0.0382004 -0.074507)
(1.07286 -0.0628702 -0.0324879)
(1.05244 -0.0460185 -0.0122308)
(1.02962 -0.0055563 0.00495669)
(1.07403 -0.0188576 0.0134542)
(1.09249 -0.0524158 -0.0567651)
(1.08001 -0.0498891 -0.0588557)
(1.02321 -0.0213521 -0.027392)
(0.903923 0.0431493 -0.0381448)
(0.811634 0.0716533 -0.0220395)
(0.742122 0.059378 -0.024592)
(0.718561 0.0599601 -0.0407742)
(0.745 0.082253 -0.0250236)
(0.843261 0.0639442 0.0264207)
(0.972705 0.0195596 0.0842513)
(1.01743 0.0159546 0.0951931)
(0.965997 0.0546043 0.0691601)
(0.927551 0.0428359 0.0528054)
(0.859889 0.0263496 0.0405761)
(0.805462 0.0212617 0.0631245)
(0.979059 -0.022721 0.0733708)
(0.935917 -0.0154488 0.0415427)
(0.909783 -0.0567739 0.0180388)
(0.946285 -0.0803265 0.0127488)
(0.972236 -0.0353709 0.027929)
(0.959651 0.0112768 0.00109796)
(0.968706 0.0336586 -0.0103423)
(0.98203 0.0143039 0.00719149)
(0.987334 0.000632356 0.000379506)
(0.928461 0.0309972 -0.00669912)
(0.889061 0.0243727 -0.00464412)
(0.932386 -0.0235109 -0.00478901)
(0.979618 -0.00808136 -0.020494)
(0.972098 0.0251074 -0.0553637)
(0.936177 0.0307674 -0.0687984)
(0.950078 0.043774 -0.0310904)
(0.982861 0.0272089 0.0196006)
(1.01602 0.0232703 0.0369262)
(1.08648 0.0492274 0.0184173)
(1.14749 0.022402 -0.0203313)
(1.08475 -0.0169308 -0.0191362)
(1.01295 -0.0245318 0.0007083)
(1.00824 -0.0121534 0.0205133)
(0.999399 0.00812455 0.0437131)
(1.00409 -0.00746467 0.0104773)
(1.08271 -0.0417603 -0.0692199)
(1.11972 -0.0404242 -0.0685549)
(0.991973 0.00248369 -0.0136462)
(0.810657 0.04484 -0.0156808)
(0.71433 0.0468186 -0.0327577)
(0.704851 0.02719 -0.0568006)
(0.72848 0.0338196 -0.07427)
(0.773869 0.0532481 -0.0632469)
(0.876063 0.0252621 -0.0278183)
(0.986529 -0.0157753 0.0216428)
(1.03565 0.00162112 0.0478606)
(1.01781 0.0596673 0.0588978)
(1.02148 0.068968 0.0803425)
(1.00577 0.0277678 0.0762502)
(0.983066 -0.0148789 0.0790494)
(1.0813 -0.0247615 0.0931589)
(1.0146 0.00217443 0.054421)
(0.952116 -0.00946775 0.0444574)
(0.954603 -0.039233 0.0662538)
(0.996015 -0.0411585 0.0693919)
(1.02347 -0.00477639 0.0205195)
(0.996634 0.0244963 -0.0424339)
(0.927368 0.0113998 -0.0616119)
(0.907539 -0.00931832 -0.0391164)
(0.925362 -0.000506979 -0.0101994)
(0.976292 -0.0147393 -0.016721)
(1.01218 -0.0630701 -0.0337394)
(1.00537 -0.0452718 -0.0220095)
(0.990705 0.00727706 -0.0251062)
(0.973023 0.0369905 -0.0291195)
(0.992648 0.066731 0.00715198)
(1.01711 0.0454468 0.0388527)
(1.01984 0.013515 0.0525213)
(1.0467 0.0275192 0.0354774)
(1.09489 0.0349274 -0.00687674)
(1.09471 0.0226934 -0.00206636)
(1.03327 -0.0142799 0.00683843)
(0.973348 -0.0318605 -0.00970602)
(0.978239 -0.00214226 0.0140573)
(0.998155 0.00844118 0.0363023)
(1.06204 -0.0333554 -0.0121986)
(1.1429 -0.0442541 -0.0737482)
(1.05063 0.01854 -0.0533189)
(0.897002 0.0769319 -0.00689367)
(0.864256 0.071887 0.00722965)
(0.886412 0.0130109 -0.0153432)
(0.893033 -0.0341812 -0.0461814)
(0.895604 -0.0397181 -0.0615355)
(0.905118 -0.0278545 -0.0638151)
(0.932096 -0.0165981 -0.0382139)
(0.978709 0.00748721 0.00843592)
(1.00971 0.0392423 0.0428091)
(1.07291 0.0210734 0.0759294)
(1.12423 -0.0143567 0.103273)
(1.11123 -0.0314737 0.110319)
(1.08529 -0.0752938 0.0516974)
(1.07643 -0.0258573 0.0434822)
(1.02777 -0.0205873 0.0273059)
(1.00219 -0.0472068 0.0482523)
(0.997449 -0.0452 0.0558561)
(0.992403 -0.0143357 0.00408459)
(0.978376 0.0153472 -0.0320242)
(0.963531 0.0133141 -0.0228621)
(0.967986 -0.0102315 -0.00662808)
(1.00539 -0.0181783 0.0195031)
(1.08173 -0.0172659 0.0044507)
(1.10986 -0.0197976 -0.0497598)
(1.04528 -0.00736404 -0.0599949)
(0.984058 0.00540426 -0.0320395)
(0.955874 0.00337748 -0.00975405)
(0.97669 0.0271529 0.0122633)
(1.02099 0.0472159 0.0178164)
(1.02614 0.0542877 0.0131789)
(1.00805 0.0581329 0.0141153)
(1.00162 0.0276496 0.0167047)
(1.02422 -0.00331166 0.0339754)
(1.07613 -0.0141074 0.0404306)
(1.10027 -0.0251488 0.0126714)
(1.09959 -0.0210995 -0.00459722)
(1.08342 -0.0123287 0.00288378)
(1.06433 -0.0374447 -0.00297767)
(1.0721 -0.0374963 -0.0381422)
(1.03971 0.0308286 -0.0551052)
(0.995095 0.0618079 -0.0360161)
(1.00733 0.0264535 -0.0317311)
(1.04761 0.0104698 -0.0533114)
(1.07352 0.0226434 -0.0653894)
(1.04387 0.0167072 -0.0492365)
(0.979755 -0.0132576 -0.025477)
(0.935617 -0.0318934 -0.0139788)
(0.944919 -0.0191267 -0.00277803)
(0.979485 0.0168651 0.0105117)
(1.01643 0.0111662 0.0124226)
(1.03151 -0.0364799 0.0126796)
(1.0454 -0.0800807 0.0277715)
(1.0034 -0.0940218 0.00993387)
(1.03015 -0.0329464 0.0455374)
(1.07533 0.0160623 0.0444606)
(1.05666 0.00503942 0.0315973)
(0.980664 -0.0138175 0.0504434)
(0.928531 -0.00664722 0.0603045)
(0.911055 0.00465846 0.0614209)
(0.953542 0.00140854 0.0385464)
(1.02339 -0.00058384 -0.0316499)