/*--------------------------------*- C++ -*----------------------------------*\
  =========                 |
  \\      /  F ield         | OpenFOAM: The Open Source CFD Toolbox
   \\    /   O peration     | Website:  https://openfoam.org
    \\  /    A nd           | Version:  10
     \\/     M anipulation  |
\*---------------------------------------------------------------------------*/
FoamFile
{
    format      ascii;
    class       surfaceScalarField;
    location    "27.5";
    object      phi;
}
// * * * * * * * * * * * * * * * * * * * * * * * * * * * * * * * * * * * * * //

dimensions      [0 3 -1 0 0 0 0];

internalField   nonuniform List<scalar> 
74080
(
0.00595436
0.000497065
0.00194575
0.00584594
-0.000116337
0.0029972
0.0059757
0.000151322
0.00126467
0.00517487
0.00111938
0.00230298
0.00543582
0.000907894
0.00139505
0.00615491
0.000831606
0.000163202
0.00593838
0.000429525
0.00192512
0.00603838
-0.000455417
0.00322537
0.00720148
-0.00036876
0.00123564
0.00551275
0.000593452
0.00119451
0.00284739
0.001052
0.00203643
0.00402124
0.00171857
-0.000627298
0.00638478
0.00061212
0.000785206
0.00615463
-0.000111205
0.00181445
0.00529457
0.000539268
0.0020153
0.00510247
0.00044883
0.00301006
0.00521995
0.000373165
0.00214645
0.00554976
0.000290979
0.00238419
0.00521629
0.000766185
0.00215868
0.00452556
0.000641454
0.0019084
0.0038414
0.000528846
0.000851798
0.00371944
0.00135111
0.000613739
0.0047896
0.000983436
0.00172604
0.00561452
0.000255391
0.00129251
0.00485848
3.04701e-06
0.00072029
0.00495676
-0.000505381
0.00107811
0.00532912
-0.000828927
0.000827212
0.00578214
0.00035449
0.000556789
0.00679856
0.000201829
0.00174277
0.00727281
-0.000483103
0.00343575
0.00624915
0.000465896
0.00318539
0.00560515
0.000480628
0.000792725
0.00584758
-0.000488727
0.00233756
0.00549737
0.000311422
0.0017334
0.00586872
0.000877987
0.00226075
0.00681392
0.000203997
0.00393944
0.00691537
0.000100694
0.00139837
0.00608482
-9.19082e-05
0.00111002
0.00581968
0.00101445
0.000521737
0.000422523
-0.00057788
0.00595321
0.000220827
-0.000890107
0.00489982
0.000635246
0.000524407
0.00476882
0.000491086
0.000958999
0.00520186
0.000257958
0.000144853
0.00564638
0.000963628
-0.00114798
0.0058722
0.000642292
0.000169586
0.00602712
0.000328842
0.000186544
0.00470703
0.000221812
0.00155915
0.00421407
-0.000266307
0.000922736
0.00525171
-0.000232786
-0.00107894
0.00561095
0.000466862
-0.000202418
0.00575717
0.00135164
-3.32666e-05
0.00564121
0.00040921
0.000125347
0.00568721
-0.000147498
0.000362651
0.00617869
0.000378225
-3.05243e-06
0.00585143
0.000108443
5.73061e-05
0.00482259
0.000331778
0.000317997
0.00430193
0.000520442
0.000693599
0.00473503
0.000680805
-8.8702e-05
0.00564627
0.000465672
-0.000823726
0.00556187
0.000609339
8.39354e-05
0.00478875
0.0016485
-0.000366511
0.00412925
0.00141429
-3.92865e-05
0.0042097
0.000316647
9.70483e-05
0.00396062
-0.000254172
-0.000311313
0.00296842
0.000225604
0.000210764
0.00306249
0.00037517
0.000338492
0.00386442
-0.000316165
0.00107186
0.00518567
-0.000437881
-0.000405267
0.00538911
-0.000731001
0.000624597
0.00440387
0.000747897
0.0022213
0.00363132
0.00129015
-0.000383576
0.0034372
-0.000890877
0.000574846
0.00448526
-0.000142692
0.000604714
0.00530008
0.000120485
-0.000420471
0.00530262
-5.32339e-05
0.00115147
0.00496443
0.0013047
0.000765883
0.00530681
-2.43761e-05
-0.000183483
0.00554374
0.000498258
0.000442374
0.000719648
-0.000395626
0.00379506
0.000549
0.000790212
0.00474473
0.000158543
0.000382671
0.00544843
0.000608792
-0.000296145
0.00524073
1.05508e-05
0.000842384
0.00518044
0.000506457
0.000669781
0.00522926
0.000701282
0.000262993
0.00500041
-0.000165323
0.000942969
0.00499818
6.78939e-05
0.000466823
0.00505531
0.000548866
-0.000171505
0.00520032
0.000193566
0.00024291
0.0055006
0.000422267
7.10127e-05
0.00619233
0.000902221
0.000355555
0.00590467
0.000490451
0.00066009
0.00519211
8.69757e-05
0.000379764
0.00498946
0.000352911
9.65211e-05
0.00471628
0.000853412
-0.00031657
0.00451152
0.00104071
-0.000440295
0.00471578
0.000611454
-0.000295173
0.00459394
0.000471471
0.000500866
0.00419457
0.00028643
0.00126911
0.00495045
0.000277962
0.000210415
0.00499819
0.0014187
-4.47456e-05
0.00484039
0.000274271
0.00141871
0.00563984
-0.000337629
0.000107625
0.00562662
0.000506636
-0.000827451
0.00431058
0.000565142
0.000974456
0.00419265
5.24093e-05
0.0014619
0.00532146
-0.000278365
0.000340916
0.00465714
0.000241563
0.000614154
0.00470638
-0.000434143
0.000594922
0.00585867
8.73256e-05
0.000241896
0.0047038
0.00133036
0.000334061
0.00344661
0.00067874
-0.000422605
0.00416255
-0.000206059
-8.55223e-05
0.00484833
-0.000198702
-8.87499e-05
0.00437883
0.000303318
0.000947802
0.0043205
0.000735617
0.00132546
0.00416704
0.000457208
2.68295e-06
0.00439196
0.000144864
0.000453866
0.000918574
0.000561955
0.00325684
0.000431215
0.000373132
0.0033089
0.000166445
0.000765137
0.00390663
-0.000416695
0.000496055
0.00412597
-0.000173066
-0.000149837
0.00378401
0.00138137
-0.000409054
0.00385065
0.000708367
-0.000295816
0.00407432
0.000167418
-1.48945e-05
0.00457871
6.64042e-05
-0.000250208
0.00521739
-0.000372595
2.39869e-05
0.00534382
-0.000108055
0.000166993
0.00481733
0.0010321
-8.20526e-05
0.00429509
0.0014158
0.000410843
0.00379547
0.000997647
0.00049121
0.00397876
0.000456787
7.43249e-05
0.0045089
0.000489658
-0.000287835
0.00431875
0.00131334
8.30335e-06
0.00418157
0.00147022
1.30327e-05
0.00461776
0.000564106
-0.000196019
0.00440416
0.000814467
0.000278072
0.00457174
0.000161628
7.30729e-06
0.00576267
-0.000909602
-8.7275e-05
0.00553208
0.00105499
0.000122526
0.00424941
0.000800907
0.000312485
0.00412391
-0.000470968
0.000954482
0.00412818
0.000601291
0.00101551
0.00351486
0.000768223
0.000332677
0.00425878
-0.000937726
4.76343e-06
0.00533232
-0.00114755
0.000483154
0.00580752
0.000664239
-0.000710758
0.0050427
0.000843291
-0.00104552
0.00437002
0.000223908
0.000873056
0.00558814
0.000438746
-1.57082e-05
0.00502261
0.00163717
-0.000605977
0.00425792
0.000689326
0.000228013
0.00459617
0.000278645
-0.000401924
0.00417789
0.000869213
-6.86963e-05
0.00437152
0.00011951
0.000516473
0.00452443
0.000217211
-0.00027904
0.00387355
0.00103313
-0.000618866
0.00135785
3.63526e-05
0.00405837
4.46302e-05
0.000500035
0.00361828
0.00034075
0.00054653
0.00318446
-0.000449697
0.00117604
0.00414578
-0.000856271
0.00054587
0.00475375
0.00105376
-0.000207287
0.00444336
0.000193337
0.000542642
0.00378138
0.000537711
0.000655312
0.00274096
0.00112972
0.000505284
0.00295536
-0.000400534
0.000166858
0.00418545
-0.0012554
0.000163011
0.00423765
0.000545328
-3.58527e-05
0.00377728
0.00146928
0.000105253
0.00342008
0.000824277
0.000705049
0.00304089
0.000792232
2.40276e-06
0.00352656
0.000521528
-0.000393274
0.00468195
0.000368667
0.0002783
0.00477216
0.000632712
0.000699013
0.00487679
0.000344303
-1.7174e-05
0.0050846
0.00080319
-0.000424309
0.00348458
0.00053506
0.000654132
0.00317154
-0.000331379
7.69933e-05
0.00423028
0.000476323
-0.000596747
0.00310283
0.000933101
0.000549056
0.00271621
0.000178827
0.000675357
0.00428912
-0.000188964
-0.000104141
0.00383399
0.000628481
9.92239e-05
0.00267468
6.95688e-05
0.000216685
0.00355255
-0.000698506
-0.000684465
0.00424764
0.000332152
-0.000856099
0.00393528
0.00114037
-0.000806704
0.00322943
0.00142482
-0.000166532
0.00318361
0.000735203
0.00083427
0.00398473
0.00103003
5.46822e-05
0.00413497
0.000574261
-0.000176463
0.00352762
0.000692765
0.000511473
0.00326729
0.00141924
-8.79098e-05
0.00353489
0.000475374
-0.000448651
0.00446866
-0.000670418
-2.59913e-06
0.00497743
0.000455947
-0.000126771
0.00130243
0.000163842
0.00348785
0.000326506
0.000762436
0.00388204
0.000407384
4.4205e-05
0.00319488
0.000431967
8.56268e-05
0.0028628
-3.62546e-05
-7.90156e-05
0.00301433
0.000691429
0.000292813
0.00262365
0.000107269
0.000858315
0.00377685
-3.10006e-05
0.000227964
0.00434318
0.000748404
-0.000194173
0.00309425
0.00063139
0.000205281
0.00273835
-0.000132964
-6.22278e-05
0.00395497
-0.000296653
-0.000358182
0.00394511
0.000717915
0.000401749
0.00413641
0.000425591
0.00063639
0.00430143
0.000899346
-0.000209316
0.00348564
0.000905799
0.000336014
0.00379617
1.16442e-05
0.000320792
0.00393735
0.000425896
-0.000253289
0.00343942
0.000584622
0.000231814
0.00338917
0.000681254
0.000689165
0.003207
0.000762212
-7.2326e-05
0.00303228
0.000538858
-0.000860349
0.00349625
0.000439873
-0.000419662
0.00353912
0.000613372
0.000227919
0.00258219
0.000715532
0.000580924
0.00282344
-0.000196107
0.000323712
0.00353772
0.000419149
-3.58471e-05
0.00338906
0.000860333
0.000100036
0.0034261
-0.000212289
0.000194646
0.00344214
0.00010611
0.000170008
0.00377069
0.000418923
0.000556023
0.00415908
0.000943908
0.000305013
0.00354808
0.00108505
0.000369309
0.00333925
0.00076534
0.000737942
0.00354367
0.000522406
1.28138e-06
0.00374797
0.000747417
-0.000236055
0.00423531
0.00105425
5.93714e-05
0.00439741
0.000433018
0.000100671
0.00417756
-0.000425735
-0.000227688
0.00463766
0.000129417
-0.000271433
0.000754666
0.000773429
0.0033159
0.000398036
0.00023739
0.00296811
0.000551308
0.000703352
0.00242579
0.00121948
0.000271139
0.00300956
0.000490795
-0.000885306
0.00336123
0.000553147
8.33162e-05
0.00259315
0.000713291
0.000549581
0.00358338
-0.000552555
-0.000465788
0.00442939
-0.000288003
-6.16354e-05
0.00319106
0.0017175
0.00015015
0.00268314
0.00115447
-0.000530001
0.00340503
-0.000735862
-0.000376915
0.00341655
0.000558774
0.000211566
0.0032036
0.000520454
0.00045759
0.00355397
0.000463356
-0.000113295
0.00376612
0.000994971
-0.000422536
0.00440463
-0.000285045
-0.0002199
0.00423977
0.00027026
0.000364321
0.00354085
0.00118846
0.000288517
0.00371234
0.000896726
-0.00054209
0.00370731
0.000761337
-0.00017275
0.0036706
0.000586902
0.000198243
0.00372706
0.000691674
-0.000398812
0.00349691
0.000881053
0.00025927
0.00313816
0.00104169
0.000616305
0.00328796
0.000262199
-6.81719e-05
0.00337867
0.000629203
-0.00030777
0.00329178
0.000654773
0.000222386
0.00373598
-0.00042114
-0.000183742
0.00338166
0.000419465
-0.000136085
0.00309587
0.00049013
0.000519119
0.00391431
0.000626412
-0.000280519
0.00386218
0.00137569
-0.000290152
0.00277124
0.00113871
0.000873684
0.00275934
0.000696103
0.000559849
0.00360875
0.00051915
-0.000446888
0.00355659
0.000845966
-6.83499e-05
0.00332869
0.00056817
0.000119924
0.00325383
0.0002331
-0.000348933
0.00327353
0.000363159
0.000148131
0.000599519
0.000398911
0.00229207
0.000432598
-3.98015e-05
0.00251493
0.000358588
-0.000218503
0.00271134
0.000912478
-0.000177145
0.00282085
0.000279219
-0.000132481
0.00367864
-0.00018692
0.000299053
0.00369953
0.000948774
0.000234983
0.00305212
0.000249343
-5.52435e-05
0.00291478
-0.000511875
-1.23046e-05
0.00305166
0.000994124
-0.000122919
0.00323333
0.00072814
-0.000113314
0.00322567
-0.000596682
-0.000199341
0.00323536
0.000627344
-0.000269497
0.00294244
0.000561078
-2.42154e-05
0.00330626
-0.000212185
0.000153709
0.004046
0.00025964
0.000110193
0.00377717
0.000385789
-0.000216917
0.00366798
0.000553277
-0.000192649
0.00392619
0.00101463
5.83817e-05
0.00399885
0.000744046
-6.2686e-05
0.00359014
0.000890063
0.000135369
0.00340247
0.000877487
0.000262707
0.00336553
0.000634687
8.24673e-05
0.00350177
0.0005413
-1.1394e-05
0.00335091
0.00112097
-5.65921e-05
0.00299336
0.000650485
-0.000221234
0.00310811
0.000495458
-0.000282086
0.00320085
0.000412813
0.000483101
0.00320019
-0.000348661
0.000148907
0.00341489
9.57365e-05
-2.33842e-05
0.00321955
0.000453148
0.00018711
0.00298061
0.000695047
0.000132236
0.00332188
0.00120325
-0.000191112
0.00294904
0.00146148
3.6615e-05
0.00302462
0.000727769
0.000218352
0.00304027
0.000516683
-6.30956e-05
0.00272339
0.00108183
7.14069e-05
0.00316156
0.000530774
-0.000554154
0.00278245
0.000624809
-0.000512005
0.00219417
0.000473089
0.000389727
0.000206817
0.000501454
0.00220438
0.000816527
-0.000337889
0.00245129
0.000492306
-0.000372731
0.00296023
0.000474127
-0.000320955
0.00288237
0.000362548
-0.000203723
0.0028078
7.04974e-05
-0.000369005
0.00313183
0.000896669
-0.000330994
0.00251017
0.00111122
0.000254175
0.00191182
0.000274003
-1.44563e-06
0.00262056
0.000409175
-0.000345798
0.00264044
0.000661523
6.71256e-05
0.00271138
-0.000789826
0.000476379
0.00346057
-0.000241444
0.00019346
0.00289882
0.000921094
-0.000255875
0.00286697
7.30967e-05
-0.000323498
0.00330769
0.000122825
-0.00016159
0.00283649
0.000995189
-9.53311e-05
0.00239532
0.00097164
0.000172915
0.00262275
0.000749791
0.000248778
0.00323011
0.00022039
-4.92922e-05
0.00308209
0.000898548
-0.000125019
0.00299654
0.000919581
8.90956e-05
0.00287829
0.000646694
0.000152397
0.0028009
0.000418627
-0.000350224
0.00315229
0.000529959
0.000255185
0.00278727
0.000905113
0.000458139
0.00216333
0.000840645
-0.000154127
0.0024948
-1.47558e-05
0.000164426
0.00274967
-0.000406688
0.000236901
0.0027286
0.000121483
-0.000134394
0.00311812
-1.15339e-05
0.000165814
0.00294213
0.000555017
0.00021741
0.00260063
0.00117113
-3.15439e-06
0.00262513
0.00119314
8.08923e-05
0.00266476
0.000663092
-0.000175635
0.00296131
0.000302355
-0.000195521
0.00310142
0.00092518
2.18249e-07
0.00276903
0.00106954
-0.000214586
0.00263395
0.0010227
-0.000188767
0.00259946
0.000481817
-0.000110538
0.000165108
8.54004e-08
0.00248064
0.00102606
-0.000208678
0.00248656
0.000609838
-0.000513313
0.00294075
0.000127061
-0.000111058
0.00284314
0.000376132
0.00018279
0.00214433
0.000566697
8.75291e-05
0.0022635
0.000944353
-0.000199161
0.00298904
0.000619409
-0.000188361
0.00298868
0.000346424
-0.000210408
0.00251429
0.000666422
-0.000119125
0.0020681
0.00080682
2.14685e-05
0.00197508
-0.0002464
-0.000369221
0.00276722
-0.000328252
-0.000696851
0.00320442
0.000908641
-0.000613446
0.0029762
0.000493389
-8.85799e-05
0.0026494
0.000496583
0.000195177
0.00254294
0.00108398
1.75566e-06
0.00260408
0.000969474
-0.00016546
0.00313609
0.000420382
-0.000265204
0.00346153
5.5326e-05
-8.19675e-05
0.00293723
0.00129736
0.000209837
0.00252563
0.00124613
7.30658e-05
0.00273242
0.000627892
3.45018e-05
0.00312974
0.000193944
-0.000109806
0.00343455
0.000186335
-0.000238174
0.00330511
0.00116388
-6.37802e-05
0.00242327
0.00153809
-7.57992e-05
0.00213376
0.000433831
-0.000271943
0.00245345
-0.000120589
-0.00018125
0.00218145
0.000645824
-0.000278828
0.0023025
-0.000158399
0.000136156
0.00291339
1.17335e-05
4.50551e-05
0.00318748
0.00096411
-0.000371075
0.00274702
0.0014048
-4.3703e-05
0.00222353
0.00110523
-0.000271316
0.00232602
0.000100122
2.00599e-05
0.00258792
0.000694325
0.000259966
0.00241989
0.00143535
-0.00020012
0.00258533
0.000817509
-8.76163e-05
0.00314989
-4.76065e-05
-4.10682e-05
0.000205794
2.6762e-05
0.00260086
0.00163789
-0.00035439
0.00242771
0.000939417
-0.000165425
0.00266753
-5.67326e-05
-4.07307e-06
0.00233192
0.000699606
-2.82758e-05
0.00184347
0.0010655
4.14386e-05
0.00181945
0.00120023
1.00593e-05
0.00213663
0.000530288
4.42532e-05
0.00239323
0.000196169
-0.000207195
0.00235508
0.000462601
-0.00012106
0.0019097
0.000903981
5.91132e-05
0.001779
0.000298731
-0.000315071
0.00218608
-7.28131e-05
-0.000508986
0.00226733
0.000901781
-0.000205695
0.00204331
0.000829681
-0.000154281
0.00228418
0.000494182
-8.41403e-05
0.00232373
0.00113896
-0.000211375
0.00217185
0.00121058
-0.000375879
0.00236592
0.000250203
-0.000141286
0.00229197
0.000119212
-0.000271105
0.0024246
0.00120635
-0.000259996
0.00258496
0.000895761
0.000112412
0.00241553
0.000716391
-0.000209741
0.00228692
0.000557924
-0.000527861
0.0022975
0.00039868
-0.000321893
0.00267783
0.00104875
-0.000149142
0.00281588
0.00142797
-3.5625e-05
0.00230733
0.000900142
-0.000177641
0.00209388
0.000161371
-0.000619928
0.0022014
0.000616162
-0.000497035
0.0023933
-0.000314472
-6.76849e-05
0.0027135
-0.00022158
-0.000169646
0.00250263
0.00124616
-0.000303397
0.0027313
0.00143645
-0.000247892
0.00313943
0.000791228
-2.18535e-05
0.00260748
0.000323092
9.21902e-05
0.00228543
0.000828295
0.000113423
0.00247738
0.00117212
-7.04993e-05
0.0023823
0.000664288
0.000199863
0.00260415
-0.000347639
8.89114e-05
-3.41602e-05
-0.000247229
0.00210934
0.00194504
-0.000287714
0.00260407
0.000680795
-1.99387e-05
0.00251824
2.08221e-05
-8.46664e-06
0.00231915
0.000873258
4.64352e-06
0.00199828
0.00141863
-6.63144e-06
0.0022644
0.000868023
-1.33709e-05
0.00280293
-7.49175e-05
0.000382003
0.00239416
0.000583362
0.000140832
0.00218349
0.000483432
-0.000160912
0.00203687
0.000852594
-9.01857e-05
0.00189511
0.000470409
-6.94791e-05
0.00221934
-0.000571332
0.000135149
0.00190386
0.000956784
-1.18731e-05
0.00157745
0.00126537
-0.000178873
0.00194706
0.00031662
-0.000207375
0.00193802
0.00101757
-0.000267761
0.00202991
0.00102161
-0.000171539
0.00232513
-0.000190411
0.000111336
0.00198221
7.66868e-05
0.000137833
0.00223873
0.000861285
-7.23697e-05
0.0024533
0.000611688
-5.7919e-05
0.00205373
0.000991841
-0.000100516
0.00209477
0.000675895
-0.00035722
0.00220362
0.000260465
-0.000178494
0.00241204
0.000838
-0.000127819
0.00239076
0.00129895
-2.23382e-05
0.00214612
0.000832959
-8.97362e-05
0.0018262
0.000591415
-0.000560678
0.00183158
0.000880954
-0.000737828
0.00222492
-0.000500097
-0.000370281
0.00219077
-0.000181416
-0.000101548
0.00188281
0.00138488
-0.000164091
0.00196811
0.00125386
-0.000236971
0.00228196
0.000435256
8.7739e-06
0.00207815
0.00040172
0.00010673
0.00217306
0.000757436
-0.000128783
0.00240231
0.000883783
-0.000108287
0.00221286
0.000655453
2.04584e-05
0.00237802
-0.000533923
-8.16138e-05
3.43158e-05
-0.000110202
0.00208589
0.00143516
-3.72916e-05
0.00207455
0.000506856
6.84496e-05
0.00157249
0.000487659
-0.000149507
0.00187548
0.000447813
-5.27911e-05
0.00213195
0.00105734
-0.00010755
0.00227567
0.000669755
-0.000228179
0.00249538
-0.000369809
2.71671e-05
0.00209956
0.000832516
5.35368e-05
0.00194397
0.000545329
-0.000210561
0.00174994
0.0008763
-7.0235e-05
0.00145512
0.000799223
-0.000203618
0.00187143
-0.000932925
-0.000121313
0.00206807
0.000593443
3.33781e-05
0.00184996
0.00152234
-0.000235312
0.00193916
0.000479886
-0.000421769
0.00201959
0.000910961
-0.000337789
0.00202963
0.000751641
5.74671e-05
0.00229549
-0.000533479
8.77768e-06
0.00216408
1.02393e-05
-0.000128391
0.00225895
0.000571772
-0.000110276
0.00241201
0.000527941
-0.000196011
0.00193113
0.00146715
-0.000134182
0.00189465
0.000654798
-0.000170045
0.00225943
-0.000163863
-9.93845e-05
0.00231132
0.000719893
-3.01023e-05
0.00204618
0.00131091
1.44647e-05
0.00185205
0.000757128
8.86867e-05
0.0017541
0.000741148
-0.000262209
0.00185193
0.000922391
-0.000388491
0.00212332
-0.000661952
-0.000124254
0.00202852
-0.000154988
-5.46855e-05
0.00149993
0.00188342
-0.000148287
0.00120666
0.00163574
-9.26182e-05
0.0018859
-0.000204425
-0.00012726
0.00198375
0.000235148
8.33956e-05
0.00190561
0.000927442
-8.59581e-05
0.00227469
0.000394536
-6.20326e-05
0.00242863
0.000126225
0.000102018
0.00213722
-0.00025307
-0.000137593
0.00037955
-0.000363192
0.0018868
0.00109796
-0.000135537
0.0017201
0.000642268
-0.000125934
0.00142817
0.000753238
-0.000176912
0.0017383
-3.91633e-05
-0.000160138
0.00218047
0.000423849
-0.000127766
0.00205823
0.000694752
-1.28316e-05
0.00181452
-8.60743e-05
-0.000124411
0.00184423
0.000774682
-8.12928e-05
0.00191221
0.000483923
-0.00010909
0.00145104
0.00138226
-0.0001312
0.00130762
0.000935604
-0.000250127
0.00172058
-0.00118285
-0.000269342
0.00197317
0.000321565
-5.96735e-05
0.00179255
0.00159402
-0.000198383
0.0017824
0.000675373
-0.000443907
0.0021389
0.000654259
-0.000199359
0.00195345
0.000725922
0.000179526
0.00159171
-0.000118266
-5.22e-05
0.00162945
-4.2896e-05
-0.000207333
0.00194962
0.000202003
-0.000294983
0.00227703
0.00028744
-0.00030403
0.00216518
0.00154653
-0.000222939
0.00179965
0.000932629
-0.00016417
0.00159571
6.25105e-05
-0.000106067
0.00176905
0.000551829
-7.42275e-05
0.00219834
0.000737919
-5.14287e-06
0.00192544
0.000878441
-4.22404e-06
0.00180886
0.000965478
-0.000389842
0.00203861
0.000746225
-0.000308925
0.00166027
-0.000267362
-0.00010256
0.00148657
-2.75704e-05
-0.000111881
0.00151014
0.00187
-0.000209979
0.00149873
0.00168869
-4.76967e-05
0.00169419
-0.000448101
-3.34665e-05
0.00178632
-2.4e-05
-0.000113186
0.00201773
0.000791782
-9.11417e-05
0.00204223
0.000255525
-5.09717e-05
0.0020222
-8.34654e-05
-0.000218858
0.00181059
-7.81149e-06
-0.000170585
0.000565451
-0.000302283
0.00171727
0.000711147
-0.000102198
0.00160069
0.000723116
-6.71406e-05
0.00144508
0.000880881
-0.000109871
0.00168476
-0.000221844
-0.000223583
0.00195842
7.63658e-05
-0.000225076
0.0018904
0.000674744
-0.000161845
0.00157672
0.000316483
-0.000175787
0.00164336
0.000768524
-0.000121391
0.001774
0.000388322
-0.00016748
0.00147912
0.00166225
-8.71205e-05
0.00126729
0.00116367
-9.94869e-05
0.00152301
-0.00117218
-0.000335313
0.00181435
0.000210566
-0.000153718
0.00174972
0.00167425
-0.000193407
0.00181842
0.000630514
-0.000216294
0.00204846
0.000470091
-9.62743e-05
0.00188206
0.000603152
7.81236e-05
0.00163999
-1.3792e-05
-5.3024e-05
0.00166702
-0.000147179
-0.000133924
0.00176417
6.14796e-05
-0.000140992
0.00180009
0.000433127
-0.000300484
0.00173393
0.00150878
-0.000216818
0.00144936
0.00103137
-5.00156e-05
0.00121771
0.000213237
-1.84031e-06
0.00145585
0.000158097
3.78536e-05
0.00178599
0.000293989
-0.000110717
0.0016924
0.000905956
-0.000202063
0.00198203
0.000742275
-0.000291644
0.00228544
0.000499275
-0.000189684
0.00179672
0.000147846
-0.000135697
0.00167978
-0.000108496
-8.21539e-05
0.00191862
0.00147917
-7.37027e-05
0.00179905
0.00168915
2.76307e-05
0.00144253
-0.000183169
1.74591e-05
0.00156538
-0.000217999
-4.17402e-05
0.00197491
0.00040861
-2.70944e-05
0.00187318
0.000315467
1.0015e-05
0.00182689
-3.70526e-05
-0.00024103
0.00153352
0.000455827
-0.000306762
0.00075877
-0.000252074
0.0014882
0.00060582
-0.00017092
0.00133634
0.000845875
-0.000138705
0.00140285
0.000760531
-0.000178387
0.00166578
-0.000448337
-0.000137678
0.00153211
9.51453e-05
-8.55922e-05
0.0014716
0.000636797
-0.000132049
0.00142895
0.000408498
-0.000139547
0.00148682
0.000721336
-9.76878e-05
0.00146468
0.000510786
-0.000216763
0.00142285
0.00189722
-0.000256027
0.00131873
0.00137219
-0.000158033
0.00122049
-0.000812836
-0.000327555
0.00129265
0.0002901
-0.000219889
0.00154398
0.00149694
-0.000177379
0.00184511
0.000390374
-9.04586e-05
0.00176427
0.000477808
-1.39349e-05
0.00139842
0.000580198
0.000161983
0.00129116
-3.47338e-05
-0.000105686
0.00145517
-0.000200901
-0.000349735
0.00151663
-2.55902e-05
-0.000278041
0.00140181
0.000711226
-0.000266473
0.00142813
0.00148217
-0.000159229
0.00135071
0.000988265
-4.99652e-05
0.00137522
9.76533e-05
-2.27206e-05
0.00155614
-0.000218031
6.09339e-05
0.00155243
0.000167824
-3.13809e-05
0.00164672
0.000762124
-0.00021319
0.00191922
0.000486509
-0.000205882
0.00175323
0.000614154
-4.34124e-05
0.00126685
0.00054503
-0.000170806
0.00143545
-0.000334139
-0.000131635
0.00185103
0.00102183
-8.71689e-05
0.00181281
0.00157472
4.98259e-05
0.00153271
-0.000208192
3.73931e-05
0.00159263
-0.000407271
5.06112e-05
0.00176064
0.000302313
-6.9618e-05
0.00160407
0.00044904
-4.05299e-05
0.00155941
5.83244e-05
-0.000244784
0.00144362
0.000729431
-0.000287794
0.00097221
-0.000253855
0.00129011
0.000627943
-0.000204
0.00117261
0.00101932
-0.000165845
0.00123495
0.000738274
-0.000244886
0.00149603
-0.00059983
-0.000183492
0.0013917
0.000125383
-6.96184e-05
0.00123592
0.000749369
-1.58809e-05
0.00121185
0.000500799
-0.00010004
0.00118935
0.000826418
-0.00024146
0.00128101
0.000519047
-0.000296548
0.00149339
0.00184086
-0.0003322
0.00136584
0.00158595
-0.000197359
0.00110197
-0.000378828
-0.000248276
0.00129818
0.000138431
-0.000257946
0.00179332
0.00101925
-0.00013873
0.00181244
0.000315843
6.94228e-06
0.00143539
0.000650029
3.62287e-05
0.00119652
0.000555239
7.54439e-05
0.00115563
-4.81242e-06
-6.11732e-05
0.00130852
-0.000231742
-0.000144111
0.00140095
3.24625e-06
-0.000289032
0.00129782
0.00107294
-0.000369819
0.00123878
0.00154021
-0.000162636
0.00111688
0.00087019
1.81985e-05
0.00121387
-0.00012551
3.76707e-05
0.00141852
-0.000485685
7.82525e-05
0.00147855
7.61971e-05
-0.000104941
0.00157848
0.000682425
-0.000208006
0.00181194
0.000284078
-0.000136774
0.00155296
0.000754778
-4.10833e-05
0.00106111
0.000851908
-0.000192616
0.00122434
-0.000622991
-0.000180761
0.00151271
0.000815359
-0.000171021
0.00158792
0.00140693
-1.67508e-05
0.00145942
-0.000394777
-5.18556e-06
0.00149802
-0.000605567
9.12791e-05
0.00170038
0.000155193
-3.09676e-05
0.00151137
0.000648144
1.28564e-05
0.00120798
0.000451082
-0.000269426
0.00117353
0.000969884
-0.00032919
0.000962208
-0.00018896
0.00121341
0.000637458
-0.000108775
0.0011149
0.00117298
-0.000184078
0.00114021
0.00073262
-0.000221572
0.0012571
-0.000566478
-0.000195475
0.00131762
2.02428e-05
-5.76771e-05
0.00128982
0.000672562
-3.6829e-05
0.00108049
0.000698171
-3.56414e-05
0.000951566
0.000928476
-0.000132522
0.00109182
0.000409271
-0.000234103
0.001207
0.0017149
-0.000171503
0.00125379
0.00150867
-8.87978e-05
0.0012125
-0.000132937
-0.000259581
0.00129758
8.60848e-05
-0.000235128
0.00162697
0.000753563
-0.000173939
0.00158219
0.000371299
-0.000113316
0.00125803
0.000681851
6.10375e-05
0.00124006
0.000251772
0.000141001
0.00133426
-0.000131551
-4.46768e-05
0.00129964
-0.000140806
-6.6026e-06
0.00121094
0.000226009
-0.000193275
0.00120479
0.00130514
-0.000353871
0.001185
0.00155892
-0.000136429
0.00104977
0.000742441
6.56556e-05
0.0010963
-0.000236874
-9.00319e-05
0.00113692
-0.000462524
-6.91921e-05
0.00116574
8.39146e-05
-0.000243322
0.00138381
0.000532096
-0.000278932
0.00141393
0.000268471
-6.53436e-05
0.00100612
0.00111715
-0.000133353
0.000838775
0.000862343
-0.000226424
0.00107937
-0.00100835
-0.000122118
0.00129309
0.000696756
-0.000164361
0.00142853
0.00109893
2.53234e-05
0.0013188
-0.000586555
5.19046e-06
0.00129837
-0.000640003
9.2348e-06
0.00140876
0.000234578
-0.000147399
0.00132035
0.000877071
-2.73203e-05
0.00112922
0.000730384
-0.000161113
0.00108063
0.0011711
-0.000286626
0.000813571
-0.00012957
0.001158
0.000629663
-0.000125717
0.00106782
0.00128384
-0.000119804
0.00111639
0.000670482
-0.0001772
0.00109911
-0.000453151
-0.000129225
0.00106239
1.00159e-05
-7.03136e-05
0.00106852
0.000523966
-4.6024e-05
0.00099597
0.000831713
-0.000134757
0.000901167
0.00110774
-0.00025743
0.000780878
0.000569796
-0.00028749
0.000918456
0.00155406
-0.000198091
0.00118462
0.00112001
3.2474e-05
0.0011423
-4.14234e-05
-9.34518e-05
0.00130048
-9.96389e-06
-0.000218135
0.00150662
0.000591483
-6.27097e-05
0.00143282
0.000406293
-6.26339e-05
0.0011843
0.000717733
-8.48008e-06
0.00105843
0.000162646
7.45001e-05
0.00104599
-0.000139209
-0.000112762
0.00100948
-1.52695e-05
-0.000127057
0.000998603
0.000355165
-0.000222017
0.0010265
0.00136384
-0.000251492
0.00097469
0.00159692
-8.27514e-05
0.000894137
0.000618552
-5.18497e-05
0.000940525
-0.000271896
-0.000317078
0.00103741
-0.000475715
-0.000217088
0.00103873
0.000106314
-0.000251467
0.00116173
0.000488197
-0.000297359
0.00121973
0.00027416
-8.31219e-05
0.000825201
0.00165892
-0.000193968
0.000659498
0.000912237
-0.000139839
0.000902437
-0.00136235
-4.89812e-05
0.00129898
0.000395426
-0.000157539
0.00148267
0.000710756
7.38817e-05
0.00120386
-0.000596676
6.44009e-05
0.00106092
-0.000428782
-5.39363e-07
0.00114942
0.000450227
-0.000147952
0.00108111
0.00116066
-3.18672e-05
0.000907042
0.00100728
-0.000147534
0.000880968
0.00123516
-0.000189521
0.000512029
-5.99083e-05
0.00103832
0.000678294
-0.000148767
0.000995474
0.00129162
-3.63393e-05
0.00102685
0.000611877
-0.000186582
0.00110451
-0.000414743
-0.000122011
0.00102688
4.3524e-05
-4.85541e-05
0.000942943
0.000472514
-5.0956e-05
0.000899377
0.000856645
-0.000104839
0.000820196
0.00121374
-0.000191427
0.000754313
0.000623165
-0.000205052
0.000972831
0.00119831
2.19122e-06
0.00110567
0.000914573
2.24248e-05
0.000917947
0.000134806
-0.00014179
0.00109295
-0.000188948
-0.000234283
0.00140625
0.000247962
1.26814e-05
0.00132721
0.000489359
-7.20276e-05
0.00105375
0.000799324
-3.3751e-05
0.000904503
0.000129314
2.43438e-05
0.000880263
-0.000131816
-0.000125562
0.00086734
3.25708e-05
-0.000127351
0.000805165
0.000474705
-0.000174881
0.000885101
0.00131144
-0.000189887
0.000943612
0.00147376
2.1117e-05
0.000908541
0.000454334
-8.92139e-05
0.00102225
-0.00035232
-0.000363407
0.00110326
-0.000427897
-0.000288711
0.000992078
0.000199386
-0.000207344
0.000990946
0.000512387
-0.000182726
0.00105637
0.000297943
-0.000120473
0.000921297
0.00200497
-0.000278709
0.000757456
0.000995441
-3.71357e-05
0.000842909
-0.00146049
-0.000137175
0.00128558
0.000118421
-0.000200926
0.00131894
0.000446404
8.58381e-05
0.000952344
-0.000396699
-8.71001e-06
0.00078352
-0.000126353
-0.000121469
0.000919813
0.000480695
-0.000186937
0.00103816
0.00119472
-6.00656e-05
0.000921197
0.00118701
-0.000120546
0.000918698
0.00113238
-5.36307e-05
0.0003222
-2.07504e-05
0.000748843
0.000775273
-0.000136335
0.000824668
0.0011393
-7.25845e-05
0.000942904
0.000482768
-0.000193758
0.0011271
-0.000528516
-8.91975e-05
0.00104174
7.40185e-05
-2.38986e-06
0.000877538
0.000515497
-6.99263e-05
0.000815277
0.000871856
-9.76317e-05
0.000927995
0.00111603
-0.000178795
0.000915991
0.000554361
-6.20562e-05
0.000927839
0.00105031
3.95672e-05
0.00107984
0.000626527
1.5957e-05
0.00105887
6.38026e-05
-3.4993e-05
0.00104562
-0.000208526
-0.000133351
0.00126791
4.65573e-06
2.14617e-05
0.00118528
0.000582864
-5.35858e-05
0.000899704
0.00092267
-2.15159e-05
0.00081743
6.87888e-05
-4.54838e-05
0.00089383
-0.000180825
-0.000249742
0.000927497
3.85023e-05
-0.000160466
0.00081931
0.000532359
-6.85253e-05
0.000847588
0.00130525
-0.000161646
0.000985272
0.00122869
2.67993e-05
0.00102796
0.000260986
-0.000129417
0.000975355
-0.00028552
-0.000246767
0.000901348
-0.000250622
-0.000219693
0.000914855
0.000179507
-0.000252671
0.000898165
0.000559011
-0.000163792
0.000773417
0.000503804
-0.000157072
0.000917816
0.00196338
-0.000217517
0.000854771
0.000906166
8.138e-05
0.000724297
-0.00136974
-0.000135618
0.0010826
-4.45648e-05
-0.000248894
0.00110741
0.000281947
-1.93579e-05
0.000861735
-0.00027232
-1.27957e-05
0.000750202
0.0001056
-0.000191928
0.000736149
0.000534087