/*--------------------------------*- C++ -*----------------------------------*\
  =========                 |
  \\      /  F ield         | OpenFOAM: The Open Source CFD Toolbox
   \\    /   O peration     | Website:  https://openfoam.org
    \\  /    A nd           | Version:  10
     \\/     M anipulation  |
\*---------------------------------------------------------------------------*/
FoamFile
{
    format      ascii;
    class       surfaceScalarField;
    location    "45";
    object      phi_0;
}
// * * * * * * * * * * * * * * * * * * * * * * * * * * * * * * * * * * * * * //

dimensions      [0 3 -1 0 0 0 0];

internalField   nonuniform List<scalar> 
74080
(
0.00578534
0.00042282
0.00256234
0.00684785
-9.43267e-05
0.00213307
0.00661837
0.000395217
0.00163144
0.00608883
0.000951448
0.00169239
0.00641332
0.000128785
0.000965126
0.00587564
0.000446595
0.000495215
0.006185
0.00100662
0.000658188
0.0073081
0.000425654
0.00182158
0.00671892
0.000837853
0.00091587
0.00550165
3.77456e-06
0.00284993
0.00593679
1.13484e-05
0.00313874
0.00701732
-0.000696017
0.0014027
0.00691315
0.000371479
0.000967581
0.00570983
0.00186464
0.000846312
0.00613823
0.000804326
0.00204995
0.00671504
0.000606771
0.00145901
0.00675643
0.000954888
0.00124366
0.0068932
0.000258043
0.00194324
0.00607392
0.000833222
0.00130856
0.00597185
0.000952585
0.000118315
0.00677373
0.000462851
-0.000393864
0.00670026
0.00129805
0.00197813
0.00612454
0.000868045
0.00377479
0.00620887
-0.000288863
0.00197752
0.00523695
0.000290903
0.000622286
0.00488568
0.00117024
4.87618e-05
0.00580359
9.77837e-05
0.00103221
0.00511862
0.000617515
0.00161523
0.00625678
0.0004238
0.00140986
0.00792915
0.000389957
0.00183648
0.00654656
0.00140984
0.000982763
0.0054155
0.000987603
0.000745214
0.00625851
6.62759e-05
0.00152864
0.00776617
-0.000108306
0.00167289
0.00733359
1.51713e-05
0.00274809
0.00643906
-0.00054989
0.00286634
0.00634762
0.000401638
0.000398712
0.00580328
0.000490936
0.00191686
0.00642769
7.7063e-05
0.00234811
0.00109365
0.000702368
0.00557289
0.000878305
-0.000466917
0.00528107
0.000179171
0.000410903
0.00651398
-0.000275442
0.000687611
0.00658712
0.000789336
-0.000123761
0.00531638
0.00103576
-7.28072e-05
0.00650956
-7.20314e-05
0.000670215
0.00666984
0.000713897
0.000626931
0.00511937
0.00165265
0.000471883
0.00531316
0.000979326
0.000179436
0.00481652
0.000550461
0.000826793
0.00413367
0.000616979
0.00158705
0.00439169
-0.000151444
7.25288e-05
0.00507629
0.000265211
-0.000572575
0.00639884
0.00040434
0.000179495
0.00688165
0.000316904
-0.00032724
0.00682601
0.000346779
-0.000571285
0.00654964
0.000832786
1.02918e-05
0.00609192
0.000671504
0.000574309
0.00554319
0.000795208
0.000300258
0.004003
0.00147315
0.00049996
0.00398816
0.00150044
-7.38783e-05
0.00612658
0.000227839
-0.000152848
0.00611322
0.000535566
0.000373926
0.00435536
0.00147374
-0.000747274
0.00418524
0.00139934
-0.000535774
0.00449978
0.000731724
0.00135501
0.00460203
0.000273033
5.84022e-05
0.00495696
0.000996339
-0.000956947
0.00566338
-8.98664e-05
0.000763757
0.00552351
0.000200917
0.000907236
0.00501622
0.000670174
-0.00014307
0.00522194
0.000583452
-0.00188067
0.00434622
0.00100823
-0.000623191
0.00331857
0.000725516
0.00137241
0.00376763
0.000127388
0.000142584
0.00394751
-0.000721799
0.000664973
0.00441581
6.36138e-05
0.000135168
0.0054428
0.00036077
-0.00204405
0.00590028
-0.000383942
-0.000652571
0.000582269
0.000288206
0.00657457
3.06614e-05
-2.8838e-06
0.00536402
0.000238373
0.00123183
0.00379647
0.000532667
0.00169454
0.00482974
-0.000781168
0.000655622
0.00477874
0.000866214
0.000413803
0.00441032
0.000939331
-0.000136155
0.0053064
0.000165536
-0.000630362
0.00484404
0.00194455
0.000791341
0.00513817
0.000689441
0.000628901
0.00610469
6.83261e-05
-0.000684538
0.00542715
0.000948368
0.00026191
0.00454139
0.000479017
0.000187384
0.00467768
0.000309061
9.99764e-05
0.00395905
0.000496397
0.000425137
0.00464456
0.000196621
0.000569978
0.0053868
0.0001252
-9.02569e-05
0.0043515
0.00164924
-0.000521457
0.00557626
-2.11132e-05
0.000627886
0.00595449
-0.000260533
0.000609992
0.0056328
0.0010089
0.00119795
0.00542379
0.00120838
0.000566405
0.00450165
0.000503626
-0.000398461
0.00494043
-0.000576772
0.000821828
0.0047556
0.0013318
0.000345238
0.00461884
0.0016725
7.46833e-05
0.00480157
0.000279511
0.00114754
0.00524125
0.000312992
8.9535e-07
0.00528009
0.000860576
-0.000123114
0.0047222
-0.000446291
0.000927364
0.00489267
-0.000136806
9.95933e-05
0.00469987
0.000758555
0.000626806
0.00511769
0.000437794
1.77453e-05
0.00434638
0.00188088
-0.00017386
0.00297575
0.00192913
0.00016976
0.0031022
0.000826471
0.000261549
0.00296262
-0.000235774
0.00081482
0.00352292
-0.000249857
0.000416196
0.00430943
-0.000115895
-0.000729567
0.00473037
-0.000293171
-0.000888835
-4.50295e-05
8.341e-05
0.00423243
-0.000332143
0.000566366
0.00470757
0.000518021
-0.000314506
0.00421777
0.000780101
0.000427723
0.00410523
-0.000705454
0.00051306
0.00552843
-6.8315e-05
-6.33463e-05
0.00528094
0.000905917
9.12472e-05
0.00517755
0.000265075
0.000564939
0.00452639
0.00156743
0.000606035
0.00340743
0.00123523
0.000338032
0.00408971
-0.000133802
0.000253581
0.0043728
0.000467937
-7.04628e-05
0.00396705
0.000861747
8.48967e-05
0.00431248
0.000240103
0.00073811
0.00474763
0.000257694
0.000680146
0.00480315
-4.11899e-05
0.000688804
0.00564265
0.000273825
-0.000323461
0.00500363
0.00185541
0.00017113
0.00423585
0.000328833
0.00125172
0.00561088
-0.000347472
0.000335339
0.00509073
0.000627505
0.000938824
0.00391974
0.00081599
0.00127409
0.00428785
0.000535449
-0.000554208
0.00483563
-0.000626893
-0.000117146
0.00562082
0.000417922
0.000291705
0.00598319
0.000780714
0.000162869
0.00422429
0.000757694
0.000835251
0.00366339
0.000652978
0.000147936
0.00448744
0.000565677
0.000139289
0.0043963
-0.000429122
0.000569448
0.00448586
5.00792e-05
-0.000263511
0.00456323
0.00131657
-0.000203666
0.00472041
0.000386738
-5.4789e-06
0.00499309
0.0013311
0.000114216
0.00494001
0.00159599
0.00056444
0.00468012
0.000766932
0.000338069
0.00415772
0.000297808
-2.46288e-05
0.00420066
5.44543e-05
-0.000517622
0.00466723
-0.000222412
-0.000250868
0.00405644
0.000274025
0.000296146
-0.000108085
0.000987628
0.00339135
-0.000775657
0.00113421
0.00337012
0.000236397
0.000490794
0.00383994
0.000290985
0.000642699
0.00467951
-0.00104608
0.000246753
0.00409605
0.000452582
-0.000419581
0.00389515
0.000698688
3.03154e-05
0.004901
-0.000394576
0.000472252
0.00504041
0.00122991
0.000504513
0.00464777
0.000770211
0.000326724
0.00410743
-0.00043613
0.000653319
0.00333765
0.000593049
0.000761237
0.00321559
0.0011013
7.8584e-05
0.00334657
0.000544403
0.000272452
0.00393268
-5.08955e-05
6.53592e-05
0.00376925
-4.73402e-05
0.000262261
0.00363994
0.00051552
0.000273598
0.00455499
0.000933763
0.000318947
0.00431072
0.000385398
0.000506801
0.00357771
0.000266978
0.000679738
0.00320849
0.00084985
0.000649672
0.00310124
0.00111427
0.00012285
0.00360437
0.000327911
-0.000151454
0.00388461
-0.000369396
-0.00040815
0.00440124
-1.98815e-05
-0.000102883
0.00461019
-4.50896e-05
0.000575156
0.00414232
0.000901061
8.54665e-05
0.00417912
0.000758357
-0.000299517
0.00425764
0.000104219
0.000491876
0.00343491
0.000532725
0.000108737
0.00382047
0.000376552
-9.90475e-07
0.0047734
0.000415078
0.000258561
0.00413055
0.00123962
0.000226999
0.00376938
0.0011262
0.000593757
0.00414719
0.000280369
0.000894008
0.00404712
0.000691104
0.000810228
0.00391433
0.000111535
0.000517708
0.00448843
-0.000237934
9.7777e-05
0.00482467
-0.000311204
-2.71884e-05
0.00359951
0.000697856
0.000320902
0.000213218
0.00080111
0.00308457
-0.00059131
0.000935496
0.00279579
0.000447852
-0.000383823
0.00225624
0.000909477
0.000180291
0.00266967
-0.00077533
-0.000665772
0.00346795
-2.06927e-05
-0.000949316
0.00345366
0.00088432
-0.000369443
0.00416856
-0.000640092
-0.000153579
0.00410944
0.000775004
1.15978e-05
0.00378218
0.000936386
-0.000380402
0.00347154
5.3839e-06
-9.91926e-05
0.00334481
0.000950284
-0.000169967
0.00413433
0.000389927
0.000160504
0.00383576
0.000230222
0.000832529
0.00346643
0.000508748
-0.000233284
0.00379361
0.000340659
-0.000656341
0.00320132
0.0010326
-0.000153177
0.0029418
0.000667168
2.27589e-05
0.00349429
-0.000339873
0.000272868
0.00350613
-0.000216224
0.00080322
0.00335172
0.000828319
-4.18394e-05
0.0035323
0.00111633
-0.000189063
0.00336307
0.000226664
0.000434947
0.00369913
-0.000307185
-0.000329786
0.00397023
-3.74401e-05
-0.000107628
0.00376125
-2.49866e-05
0.000230841
0.00453822
0.000376131
7.96241e-06
0.00431525
0.000444455
9.32463e-05
0.00359164
0.000620728
0.000112747
0.00367853
0.000660125
0.000168089
0.00352846
0.000154076
-0.000115135
0.00346072
0.000319328
0.000327405
0.00359901
0.00112733
1.52564e-05
0.00315619
0.000984745
8.07937e-05
0.00269409
7.68073e-05
0.0012002
0.00281314
0.000887679
0.000248847
0.00334726
2.81726e-05
-0.000301263
0.00389867
-0.000708117
2.7729e-05
0.00434587
-0.000366547
-0.000361678
0.00464499
0.000278688
-0.000243117
-5.12273e-05
0.00109645
0.00326125
0.00012822
5.92266e-05
0.00355024
0.000424529
-4.75172e-05
0.00329258
0.000856499
0.000581744
0.0024189
0.00041649
-1.70188e-05
0.00341138
-0.000658811
-0.000490808
0.00387737
0.000369535
-0.000158579
0.00332349
0.000174243
-0.000147932
0.00405933
0.000313654
-0.00031177
0.00455299
0.000361941
-0.000268354
0.00296532
0.00146789
-1.32026e-05
0.00257285
0.0018572
-0.000484292
0.00340571
-6.13097e-05
-0.000202811
0.00302949
0.000627118
0.00027309
0.00286464
0.000766072
-4.86108e-05
0.00334713
-0.00016767
0.000157944
0.00380432
0.000532184
4.38838e-05
0.00314638
0.000733504
0.000604356
0.00246179
0.000483425
0.000177159
0.0031561
-0.00017069
-0.000362767
0.00382661
-4.10353e-05
5.19983e-05
0.00395122
0.000851853
-0.000162054
0.00356986
0.000887587
-0.000371746
0.00318909
0.000406858
-0.000215321
0.00353493
9.36783e-05
-0.000108045
0.00340705
7.67671e-05
0.000170093
0.00296111
0.000339267
0.000357087
0.00318071
0.000683985
3.72536e-05
0.00294033
0.00142335
0.00018655
0.00291153
0.000988003
0.000209922
0.00388332
1.54654e-06
-0.000332054
0.00389609
0.000335662
0.0001222
0.00343233
0.00126306
0.000105415
0.00343807
0.000948905
0.00011628
0.00286319
0.000877634
0.000182546
0.00298366
0.00143555
-0.000706697
0.00320654
0.00040728
-0.000648951
0.00334059
-0.000251654
-1.98061e-05
0.00338186
0.000275289
-0.000416265
0.00337667
0.000352715
-0.000439041
-0.000289044
7.1988e-05
0.00245579
0.000571761
-0.000345819
0.00316239
-0.000101385
-0.000236058
0.00353329
0.000512186
0.000256444
0.00347541
0.000779711
-0.000142394
0.00354641
-0.000863051
-7.80655e-05
0.0032616
0.000302141
0.000225633
0.00289627
0.000277824
0.000182064
0.00284291
0.000253157
0.000259816
0.00301356
-1.16344e-05
-0.000530255
0.0033775
0.000925796
-0.000148243
0.00335878
0.00171055
0.000215532
0.00368043
6.89399e-05
-0.000589284
0.00363658
0.000712742
-8.33346e-05
0.00289514
0.00147324
9.10607e-05
0.00295066
0.000145479
-0.000412965
0.00369077
-0.000104249
-0.000267835
0.00339673
0.00074233
9.69465e-05
0.00285519
0.00113982
-0.000389335
0.00294721
3.66365e-05
-0.000516555
0.00280977
-0.000159999
-0.000161796
0.00334029
0.000229515
-0.000165906
0.00368553
0.00075569
-0.000310815
0.00336872
0.000750684
-0.000217324
0.00361404
-0.000214042
8.88746e-05
0.00359612
2.99077e-05
-0.000118993
0.00328236
0.000748203
-0.000299712
0.0033499
0.000660692
-7.63322e-05
0.00359535
0.0010237
8.30987e-05
0.00312277
0.00134824
0.000114697
0.00293024
0.000435476
-0.00013892
0.00321535
0.000219891
-0.000284428
0.00331972
0.00124911
-3.84232e-05
0.00295488
0.00120652
0.000465078
0.00311048
0.000890349
0.000249867
0.00378489
0.00073428
-0.000285983
0.00325137
0.000720879
-0.000201082
0.00336572
0.000195
-7.96858e-05
0.00394679
6.29561e-05
0.000205451
0.00297981
0.000816507
0.00034609
0.000468994
0.000165602
0.00223166
0.00115904
-0.000474111
0.00203128
0.000620917
-0.000894956
0.00223085
0.000522433
-0.00020216
0.00222042
0.000915302
-0.000221533
0.00280619
-0.00089634
-0.000760535
0.00391387
-0.000615858
-0.000360441
0.00358575
8.18482e-05
0.000350164
0.00253695
0.000599788
0.00042752
0.00215157
0.000434346
-0.000196603
0.00312502
0.000202005
-0.000443306
0.00326157
0.00135865
0.000114035
0.00257854
0.000819339
-0.000189206
0.00320323
0.000315776
-0.000413431
0.0033574
0.00129002
-0.000155711
0.00275797
0.000903563
-0.000123673
0.00275715
0.000112101
-0.000153316
0.00285911
0.000638081
-0.00039283
0.0029725
0.00103703
-0.000340835
0.0027189
0.000655613
-0.00031457
0.00245758
0.000307106
-0.000239003
0.00293738
-0.000402413
-0.00029427
0.00348919
0.00011057
-0.000449278
0.00318107
0.000838512
6.88711e-06
0.00280178
0.000116473
-1.29482e-05
0.00289387
0.000168075
-0.000453465
0.00242452
0.00127063
-0.000197464
0.00203078
0.0010616
-0.000183489
0.00279522
0.000382687
-0.000436013
0.00345926
0.000840977
-0.000167928
0.00342066
0.000517922
-7.92996e-05
0.00308436
0.000425887
-0.000103691
0.00286938
0.00130131
-0.000202534
0.00273268
0.00134228
-8.09372e-05
0.00269322
0.00106022
4.34405e-05
0.00274316
0.000567358
-0.000290695
0.00248126
0.000855247
-0.000243756
0.00268723
0.000299129
-5.15934e-05
0.00333855
-0.000173361
-0.000326951
0.00321687
0.000794064
-0.000266178
0.000884199
0.000213634
0.00236871
0.00149185
-0.000221255
0.00218092
0.000872687
-0.000165236
0.0027084
6.27841e-05
-2.98323e-05
0.00324072
0.000470972
7.63692e-05
0.00246814
5.42821e-05
-0.000204351
0.00239672
-0.000153215
-0.000499293
0.00268984
0.000107043
-0.000316933
0.00282364
0.000515898
-0.000150237
0.00285784
0.000433708
7.82473e-05
0.00277869
0.000559702
-7.34559e-05
0.00273387
0.00166315
-0.000361431
0.00264257
0.000855971
7.52416e-05
0.00292531
3.10177e-05
0.000102293
0.00303592
0.00105857
-0.000287604
0.00261245
0.00114873
-0.000103774
0.00229618
0.000575507
-6.57626e-05
0.00236371
0.000811919
-0.000346586
0.00246003
0.000918687
-0.00032279
0.00241481
0.000774238
-0.000224948
0.00244098
0.000237637
-0.000375745
0.00246704
-0.000479875
-0.00044977
0.00268794
9.6769e-05
-0.00042551
0.0031764
0.00060756
-0.000342172
0.00303324
0.000461244
-0.00012944
0.00275444
0.000369097
-0.000145269
0.00280677
0.00103067
-8.05098e-05
0.00278282
0.000944605
-0.000152834
0.00271859
0.000487052
-0.000341732
0.00245937
0.0012988
-0.000240578
0.00250351
0.000622621
-0.000114763
0.00289443
0.000169217
-8.01682e-05
0.00293921
0.00128108
-0.000162487
0.00280058
0.00158238
-6.89135e-05
0.00290494
0.00110874
-9.77667e-05
0.00266722
0.000940161
-0.000167609
0.00251888
0.000960208
-3.68865e-05
0.00248959
0.000168908
7.9856e-05
0.00244349
4.42338e-05
-0.000183975
0.00266359
0.000963344
-0.000315217
0.00117201
-0.000174791
0.00215336
0.00136954
-0.000189643
0.00217408
0.00077144
-3.94747e-05
0.00190185
0.000330225
-0.000128616
0.00226265
0.000176538
-0.000205496
0.00246283
0.000138838
-0.000127683
0.00235332
0.000363091
-0.000230229
0.00246128
9.34658e-05
-0.000267632
0.0023886
0.000566127
-0.000148272
0.00231312
0.000549055
-0.000103204
0.0024212
0.000496715
-0.000222334
0.00270725
0.00137293
-0.000199278
0.00299957
0.000333357
0.000126338
0.00293944
-4.79304e-05
6.62722e-05
0.00257348
0.00160088
-0.00030587
0.0024577
0.00151025
-0.000436369
0.00238035
0.000756491
-0.000218499
0.00219368
0.00111917
-0.000198184
0.00230726
0.000835831
-0.000182207
0.00262724
0.000398042
-0.000114662
0.00266998
0.000107743
-0.000190841
0.00222538
-5.90886e-05
-0.000303294
0.0021337
0.000304997
-0.000397207
0.00253806
0.000210403
-0.000322506
0.00247365
0.000590841
-0.00022673
0.00223724
0.000599601
2.28603e-05
0.0024137
0.000666251
0.000114286
0.00256734
0.00069053
-0.000142296
0.00256119
0.000467403
-0.000215062
0.00265825
0.00119802
-6.76366e-05
0.0025006
0.000669444
7.17607e-06
0.00250852
0.000131038
-0.000117693
0.00293708
0.000967867
-0.000284792
0.00256959
0.00209682
-0.000184923
0.0023862
0.00136885
-0.00023769
0.00258051
0.000590298
-6.35158e-05
0.00231429
0.000958927
-9.02592e-05
0.00197151
0.00035513
-0.000138892
0.00229901
-5.07266e-05
-9.96432e-05
0.00235682
0.00104892
-0.000144617
0.00150286
-0.000351251
0.00199474
0.00148901
-0.000220139
0.00206876
0.000924958
-0.000292313
0.00172224
0.000677991
-0.000109413
0.00166883
-1.85558e-05
-5.67496e-05
0.0019866
-0.000154968
-0.000117052
0.00210101
0.000542856
-0.000315462
0.00241899
-0.000134754
-0.00041451
0.00225046
0.000677755
-0.000119615
0.00201363
0.000899329
-0.00016194
0.00212921
0.000526413
-0.000282118
0.00218876
0.00125993
3.0916e-05
0.00239873
0.000121263
-9.50917e-05
0.00232386
0.000129683
-0.000278398
0.00207356
0.00204317
-0.000169166
0.00210521
0.00177841
-0.000296259
0.00209408
0.00077911
-0.000263931
0.00227129
0.000979867
-0.000127466
0.00262311
0.000523104
-9.17765e-05
0.00237385
0.00056432
1.27204e-05
0.00211854
0.000209241
-0.000315206
0.00210095
-1.04108e-05
-0.000445835
0.00218061
0.000299615
-0.00026201
0.00257519
-0.000232016
-0.000186493
0.00223357
0.00088682
-0.000167243
0.00194821
0.00102404
-0.000268513
0.00200093
0.000721845
-0.0002518
0.00194845
0.000817528
-0.000318562
0.00221978
0.000339183
-0.0004193
0.00287559
0.000524492
-0.000269633
0.00291093
0.000530679
-0.00023776
0.00231085
0.00068544
-0.000220785
0.00236082
0.000811593
-7.61358e-05
0.00240839
0.00186823
2.85405e-05
0.00229165
0.00145321
6.10322e-05
0.00201361
0.000687613
0.000134382
0.00198972
0.000798456
-0.000161182
0.00198063
0.000378524
-0.000222087
0.00188868
-4.72517e-05
8.56631e-05
0.00197461
0.000820458
-1.15012e-05
0.0014127
-0.000331177
0.00199693
0.00118037
-0.000389629
0.00207302
0.000884272
-0.000199112
0.00160534
0.00110624
5.66266e-06
0.0013948
8.41463e-05
-0.000150004
0.00151868
-0.000296365
-0.000192701
0.00174725
0.000523515
-0.000214208
0.00207953
-0.000369917
-0.00035906
0.00184397
0.000938141
-0.00019739
0.00181286
0.00108707
-0.000236817
0.00202138
0.000454699
-0.000356087
0.00199326
0.00126227
8.48877e-05
0.00185254
0.000217064
-2.02957e-05
0.00168985
0.000281193
-0.000319495
0.00168449
0.00223412
-9.59112e-05
0.0016574
0.00199616
-0.000314608
0.001797
0.000712285
-0.000436408
0.002267
0.000537367
-7.46465e-05
0.00252364
0.000227079
-0.000108029
0.00217461
0.000803275
-6.53797e-05
0.00191574
0.000342216
-0.000224609
0.00205929
-0.00012929
-0.000363948
0.00192612
0.000615794
-0.00033554
0.00195016
-0.000186815
-0.000362466
0.00184412
0.000992414
-0.000246235
0.00178857
0.0012188
-0.00020872
0.00187567
0.000844844
-0.000154135
0.00170772
0.000972879
-0.000321794
0.00165302
0.000435395
-0.00041005
0.00180695
0.000283776
-0.000270281
0.00171314
0.000488742
-0.000325532
0.00176584
0.000689123
-0.000419155
0.00206304
0.000268695
-7.33194e-05
0.00235651
0.00111215
0.000318407
0.00258414
0.000993863
0.000105605
0.00258641
0.0005291
0.000107946
0.00238086
0.000712509
7.17265e-05
0.00216866
0.000432776
-0.000308451
0.00219378
-0.000185294
-2.83563e-05
0.00181277
0.000978282
0.00010372
0.00139787
-0.000309203
0.00182668
0.00116119
-0.000247575
0.00193171
0.000638493
-0.000111872
0.00185604
0.00111196
-2.84777e-05
0.00164331
0.00036063
-0.000197516
0.00157499
-0.000257308
-0.000275566
0.00173491
0.000486851
-0.000180159
0.00167453
-0.000119267
-0.000288472
0.00142015
0.00126777
-0.000215784
0.00135706
0.00127036
-0.000171101
0.00167592
0.000389279
-0.00041949
0.00199881
0.000944884
-4.12604e-05
0.00159692
0.000666935
4.82235e-05
0.00145888
0.000452365
-0.000248237
0.00156919
0.00212888
2.78145e-05
0.00155197
0.00212847
-0.000118459
0.00178628
0.000595441
-0.00019085
0.0020281
0.000341418
4.06616e-05
0.00212895
0.000253408
-0.000164187
0.00203552
0.000905705
-0.000183171
0.00184806
0.000500582
-0.000212468
0.00175575
-6.01734e-05
-0.000221295
0.00177542
0.000802879
-0.000388641
0.00178789
-3.62069e-05
-0.00034975
0.00173491
0.000925689
-8.9073e-05
0.00177279
0.00126104
-0.000110159
0.00192194
0.000770222
-2.6269e-05
0.00187041
0.000983289
-8.08306e-05
0.00156411
0.000855213
-0.000274579
0.00137703
0.000491427
-0.000232855
0.00119161
0.000560809
-0.000235358
0.00137117
0.000466472
-0.0003062
0.00199533
-0.000364845
-0.000222512
0.0025575
0.000289756
0.000145137
0.002562
0.000726246
1.30963e-05
0.00257177
0.000477194
-0.00011494
0.00226667
0.000893508
-6.33925e-05
0.00153599
0.000888903
-0.000135937
0.00148437
-0.000199213
-0.000206414
0.00184065
0.000578246
-4.39397e-05
0.00126716
-0.000106312
0.00159408
0.00134049
-0.000298893
0.0018219
0.000351755
-0.000108868
0.00188286
0.000993751
7.94762e-05
0.00155602
0.000660538
-0.000126877
0.00144858
-8.21745e-05
-0.000307409
0.00163069
0.000417624
-0.000240584
0.00145371
0.000190799
-0.000206254
0.00138857
0.0012924
-8.66674e-05
0.00142676
0.0012755
-0.000116613
0.00155131
0.000405134
-0.000219584
0.00185848
0.000682173
-0.000151948
0.00147888
0.00107454
-2.10191e-05
0.00117361
0.000790414
-0.000158145
0.00148957
0.00189562
-9.82413e-05
0.00182619
0.00188965
-0.00016201
0.00184177
0.000613762
-0.000152989
0.00179034
0.000415769
5.85557e-05
0.00180509
0.000335279
-0.000192167
0.00174134
0.000992302
-0.000190151
0.00147538
0.000733865
-0.000110235
0.00128657
8.10733e-05
-8.53722e-05
0.00149008
0.000640835
-0.000177614
0.00156531
-0.000218412
-0.000157551
0.00144313
0.000933133
-4.93862e-05
0.00161099
0.00116093
-0.000118969
0.00186147
0.000583919
-2.4932e-05
0.00175931
0.00112028
-0.000141361
0.00165754
0.00103512
-0.000235387
0.00139572
0.000772911
-0.000276872
0.00128316
0.000589991
-0.000283764
0.00145216
0.000200164
-0.000218495
0.00158126
-0.000503436
-0.000288719
0.00179783
1.32751e-05
-0.000181439
0.00185824
0.000518856
-0.000113146
0.00213536
0.000232042
-0.000163567
0.00205312
0.00100289
-0.000109744
0.00136194
0.00147198
-0.000136911
0.0011998
5.94884e-05
-0.000292445
0.00172043
9.84025e-05
-0.000201111
0.00119811
-0.000168816
0.00159925
0.00138633
-0.000159995
0.00176533
0.000200869
-0.000120659
0.00176175
0.000950963
2.44117e-05
0.00163267
0.000713739
-5.4966e-06
0.00145445
9.19719e-05
-0.000107594
0.00132561
0.000592462
-0.000195912
0.0011541
0.000482627
-0.000151101
0.00130063
0.001123
-0.00012471
0.00154705
0.000997835
-0.00020555
0.00151269
0.000415578
-0.000145542
0.00158526
0.000568007
-0.00011723
0.00135207
0.00137775
-3.56621e-05
0.00109098
0.00114027
-0.00011568
0.00143946
0.00160246
-0.000107323
0.00178855
0.00154045
-0.000133146
0.00165176
0.0006808
-0.000153326
0.00156347
0.000515451
-1.72971e-05
0.00162342
0.000337822
-0.000226349
0.00172471
0.000901393
-0.000165286
0.00149713
0.000891365
-4.6901e-05
0.0011956
0.000313635
-6.53291e-05
0.00127772
0.000516269
-9.05496e-05
0.0012733
-0.000335216
-0.000190858
0.00129159
0.000759921
-0.000102765
0.00152847
0.000912621
-0.000170263
0.00173924
0.000323779
-6.8254e-05
0.00170515
0.00116156
-6.30719e-05
0.00151491
0.0012537
-0.000198268
0.00133116
0.000963684
-0.000240047
0.00136598
0.000527335
-0.000193887
0.00133729
7.54556e-05
-9.27973e-05
0.00136118
-0.000538898
-0.000129803
0.00149626
-7.42375e-05
-0.00024855
0.00149771
0.000458631
-0.00019786
0.00169549
0.000166018
-0.000253163
0.00180684
0.00107242
-0.000275371
0.00140529
0.00180865
-5.20431e-05
0.00107175
0.000485238
-0.000207167
0.00148579
-0.000263882
-0.000218509
0.000897374
-6.79662e-05
0.00151825
0.00144846
-9.14015e-05
0.00149903
0.000294258
-5.43749e-05
0.00153578
0.00082265
2.36258e-05
0.00150165
0.000600303
6.39648e-05
0.00128881
0.00022052
-3.22217e-05
0.00118895
0.00064826
-0.000184015
0.000949666
0.000765447
-0.000140463
0.00119834
0.000832937
-0.000123925
0.00142171
0.000711454
-0.000177835
0.00121656
0.000565888
-0.000118076
0.00142138
0.000277183
-9.68195e-05
0.0014179
0.00137999
-2.96624e-05
0.00117812
0.0014092
-0.000116706
0.00143099
0.00131518
-6.27429e-06
0.0017781
0.00114401
-3.72019e-05
0.00166676
0.000688167
-0.000136329
0.00150725
0.000643239
-4.0112e-05
0.00142277
0.000382497
-0.000114317
0.00142758
0.00087217
-0.000162661
0.00143299
0.000801335
-0.00010396
0.00130601
0.0003602
-0.000100183
0.0010875
0.000686938
-7.81361e-05
0.00104044
-0.000321968
-0.000197234
0.00130591
0.000344749
-0.000115813
0.00130853
0.000866232
-0.000193311
0.00143827
0.000177046
-0.000216648
0.00160465
0.00101728
-0.000171369
0.0015239
0.00144763
-0.000253923
0.00139186
0.00113503
-0.00022856
0.0014015
0.000497434
-0.000201285
0.00133178
2.83172e-05
-5.43994e-05
0.00123476
-0.000518417
-2.96866e-05
0.00127487
-8.64922e-05
-0.000255621
0.00123639
0.000447601
-0.000260784
0.00137415
3.7443e-05
-0.000190899
0.00148554
0.00109318
-0.000278162
0.00125983
0.00193665
-1.94358e-05
0.0010413
0.000782215
-0.000189576
0.00135624
-0.000510495
-0.000301659
0.000570622
-0.000100504
0.00161917
0.00137971
-2.28902e-05
0.00144775
0.000549894
1.90043e-07
0.00138159
0.00080352
-1.01078e-05
0.00136921
0.000476024
2.98792e-06
0.00125515
0.000279682
-9.93043e-05
0.00117656
0.000635518
-0.000146206
0.000928556
0.00103359
-0.000175323
0.00110512
0.000605801
-0.000100152
0.0013675
0.000370339
-0.00018641
0.001259
0.000681612
-0.000165309
0.00135557
6.02367e-05
-1.68004e-05
0.00139595
0.00122319
4.79117e-05
0.00130317
0.00143533
-7.81508e-05
0.00145804
0.00107699
1.2202e-05
0.00161893
0.000936803
-4.69497e-05
0.00145589
0.000746556
-0.000153611
0.0012644
0.000696477
1.32665e-05
0.00119764
0.000353101
-6.76494e-05
0.00123234
0.000823712
-0.000150862
0.00129848
0.000643244
-9.12043e-05
0.00123695
0.000321288
-0.000117094
0.00106829
0.000834579
-9.50329e-05
0.000946506
-0.00011987
-0.000235598
0.00101621
0.000185463
-0.000144682
0.00105538
0.000804852
-0.000217759
0.00132192
-0.000134355
-0.000145275
0.00145784
0.000758159
-5.21163e-05
0.00142289
0.00156531
-0.000170711
0.00135731
0.00124775
-0.000130004
0.00139643
0.000411667
-0.000186649
0.0013765
-2.61535e-05
-8.89017e-05
0.00122995
-0.000524725
7.59298e-05
0.00116009
-3.30079e-05
-0.000162806
0.00100121
0.000502928
-0.000171845
0.00111333
-0.000180938
-0.000177297
0.00126006
0.000973023
-0.000224067
0.00129315
0.00172116
6.58009e-05
0.001229
0.000793725
-6.08518e-05
0.00129618
-0.000542748
-0.000211978
0.000184951
-8.4076e-05
0.00159328
0.00119674
-2.06513e-05
0.0013934
0.000822401
3.05108e-06
0.00119866
0.000878507
2.08303e-05
0.00132964
0.000128655
3.22328e-05
0.00124378
0.000276178
-6.25044e-05
0.00103313
0.000792297
-0.000158533
0.000942057
0.00113396
-0.000161692
0.00110038
0.000375947
-3.31855e-05
0.00122855
0.000120878
-0.000125536
0.0011737
0.00073413
-0.000149752
0.00117069
-3.51209e-05
-3.88124e-05
0.00120817
0.00105932
5.9819e-06
0.00121343
0.0013339
-7.74777e-05
0.0013544
0.000871053
-5.15198e-05
0.00140333
0.000823708
-7.83668e-06
0.00115697
0.000877737
-0.00010626
0.00100692
0.00066002
2.23571e-05
0.00105899
0.000131185
-3.94916e-05
0.00119205
0.000610115
-9.34764e-05
0.00115961
0.00057897
-6.31474e-05
0.00104281
0.000319406
-0.000114276
0.000989382
0.000890496
-0.000116288
0.000913392
8.96574e-05
-0.000237078
0.000839073
0.000182138
-0.000101362
0.000869799
0.00069719
-0.000144264
0.00114761
-0.000464414
-9.58513e-05
0.00128853
0.000502621
-4.55623e-05
0.00136607
0.00154799
-0.000129974
0.00142159
0.00117919
-3.02601e-05
0.00128721
0.000450149
-9.06757e-05
0.00120712
6.10076e-05
-0.000128642
0.00119429
-0.000607243
3.46705e-05
0.00106395
-5.00411e-05
-1.50998e-05
0.000898999
0.000496003
-2.41861e-05
0.000924932
-0.000266585
-0.000200352
0.00112249
0.000786517
-0.00021167
0.0012005
0.00149465
2.92891e-05
0.000997799
0.00094697
-0.000174249
0.0011135
-0.000658131
-0.000247893
-0.000184181
-0.000113199
0.0011823
0.00102422
-2.30277e-05
0.0012065
0.000821111
-1.02816e-05
0.00115778
0.000817633
1.88696e-05
0.00113016
-5.82876e-05
-2.52349e-05
0.000979925
0.000337737
-8.74847e-05
0.000913677
0.000839268
-0.000136629
0.000941336
0.0010552
-4.49505e-05
0.00103019
0.000202172
2.02126e-05
0.00105298
-1.08152e-05
-5.25047e-05
0.0009877
0.000748523
-6.51233e-05
0.00103086
-8.89908e-05
-0.000102561
0.00106389
0.000904433
-4.35597e-05
0.00115115
0.00113352
-0.000105883
0.00141634
0.000529168
-1.02164e-05
0.00136066
0.000760583
-5.82311e-06
0.00104884
0.00101186
-9.91808e-06
0.000894461
0.000609107
8.53558e-05
0.000935748
-0.000108789
1.43409e-05
0.00102832
0.00042308
-6.90966e-05
0.000964509
0.000597944
-0.000105009
0.000876084
0.000315596
-6.84317e-05
0.000897143
0.000931806
-0.000178232
0.000857534
0.000226736
-0.000146093
0.00079931
0.000136493
-8.78658e-05
0.000860611
0.000525598
-8.14612e-05
0.00102981
-0.00064202
-0.000112473
0.00113876
0.000341783
-8.64746e-05
0.001273
0.0014368
-8.34507e-05
0.00141634
0.00100872
-1.61434e-05
0.0012668
0.000475438
-5.28649e-05
0.00120189
8.61974e-05
-6.87438e-05
0.00112919
-0.000639862
4.99167e-05
0.000993952
-8.8501e-05
-3.743e-05
0.00090561
0.000509156
-4.44221e-05
0.000694157
-3.09703e-05
-0.00015862
0.000879797
0.000524202
-0.000144974
0.00107205
0.00118712
-3.93324e-05
0.000961063
0.000986997
-0.00017121
0.00103511
-0.000757868
-0.000188561
-0.000234277
-0.000136606
0.00101974
0.00089077
-1.21119e-05
0.00113892
0.000622996
2.64266e-05
0.00100633
0.00084227
2.77732e-05
0.000807111
-7.89165e-05
-6.70142e-05
0.000817305
0.000207268
-7.71206e-05
0.000884173
0.000748978
-0.000126712
0.000914479
0.000961677
-6.45902e-06
0.000889615
0.00012132
3.4415e-05
0.000920745
-0.000134864
-1.80747e-05
0.000834995
0.000757683
-1.05017e-05
0.000908049
-7.42045e-05
-0.000154818
0.00108965
0.000634667
-5.43159e-05
0.00114013
0.00101931
-0.000108908
0.00114586
0.000420733
-1.94362e-07
0.00107911
0.000677072
-2.143e-05
0.000932182
0.00091784
8.21983e-05
0.00076621
0.000523198
0.000129618
0.000807449
-0.00030487
3.96309e-05
0.00096725
0.000180228
-3.01558e-05
0.00101637
0.00048993
-6.49314e-05
0.000965924
0.000267224
-1.73358e-05
0.000952076
0.00100156
-0.000164418
0.000871381
0.000310973
-4.945e-05
0.000778479
0.000149383
-0.00010396
0.000885355
0.000353111
-9.98732e-05
0.000985247
-0.000678529
-0.000166199
0.000969998
0.000389966
-0.000116026
0.00118047
0.00124676
-4.82541e-05
0.0013691
0.000710101
1.84078e-05
0.00118942
0.00050681
-2.6636e-05
0.00110581
0.000110865
-4.57346e-05
0.000931278
-0.000565541
1.13499e-05
0.000776297
-4.88309e-05
-9.78875e-05
0.000735329
0.000541892
-0.000121696
0.000511987
0.000223608
-0.000181671
0.000739238
0.000219904
-0.000152232
0.00098189