/*--------------------------------*- C++ -*----------------------------------*\
  =========                 |
  \\      /  F ield         | OpenFOAM: The Open Source CFD Toolbox
   \\    /   O peration     | Website:  https://openfoam.org
    \\  /    A nd           | Version:  10
     \\/     M anipulation  |
\*---------------------------------------------------------------------------*/
FoamFile
{
    format      ascii;
    class       volScalarField;
    location    "37.5";
    object      p;
}
// * * * * * * * * * * * * * * * * * * * * * * * * * * * * * * * * * * * * * //

dimensions      [0 2 -2 0 0 0 0];

internalField   nonuniform List<scalar> 
25600
(
1.65974e-06
1.23047e-06
1.83052e-06
1.31614e-06
1.60335e-06
1.62622e-06
1.44353e-06
1.84146e-06
1.34091e-06
2.04578e-06
1.44636e-06
1.82532e-06
2.05489e-06
1.32382e-06
2.51125e-06
1.41089e-06
2.11359e-06
2.21959e-06
1.42547e-06
2.667e-06
1.58409e-06
2.02182e-06
2.46526e-06
1.40781e-06
2.40954e-06
2.04045e-06
1.42673e-06
2.68805e-06
1.28301e-06
2.03973e-06
2.1455e-06
1.12458e-06
2.43267e-06
1.25889e-06
1.7638e-06
1.83587e-06
1.25319e-06
1.93032e-06
1.30502e-06
1.60278e-06
1.66102e-06
1.23054e-06
1.83001e-06
1.31725e-06
1.60229e-06
1.62691e-06
1.443e-06
1.84128e-06
1.34104e-06
2.04451e-06
1.44746e-06
1.82331e-06
2.05568e-06
1.3233e-06
2.50967e-06
1.41278e-06
2.11065e-06
2.22123e-06
1.42469e-06
2.66563e-06
1.58634e-06
2.01924e-06
2.46673e-06
1.40824e-06
2.4079e-06
2.04285e-06
1.42585e-06
2.68781e-06
1.28562e-06
2.03743e-06
2.14809e-06
1.12475e-06
2.43185e-06
1.26188e-06
1.76194e-06
1.83799e-06
1.25334e-06
1.93008e-06
1.30671e-06
1.60178e-06
1.66358e-06
1.22921e-06
1.83037e-06
1.31811e-06
1.60077e-06
1.6283e-06
1.44144e-06
1.84224e-06
1.33984e-06
2.04416e-06
1.44845e-06
1.82013e-06
2.05866e-06
1.32016e-06
2.51007e-06
1.41421e-06
2.10637e-06
2.22562e-06
1.42092e-06
2.66628e-06
1.58869e-06
2.01467e-06
2.4712e-06
1.40654e-06
2.40647e-06
2.04744e-06
1.42177e-06
2.69035e-06
1.28756e-06
2.03366e-06
2.15374e-06
1.12187e-06
2.43295e-06
1.26483e-06
1.75874e-06
1.84207e-06
1.25173e-06
1.93091e-06
1.30824e-06
1.60004e-06
1.66788e-06
1.22616e-06
1.83167e-06
1.31889e-06
1.5985e-06
1.63077e-06
1.43863e-06
1.84452e-06
1.3373e-06
2.04472e-06
1.44962e-06
1.81532e-06
2.06453e-06
1.31392e-06
2.51266e-06
1.41556e-06
2.09996e-06
2.23385e-06
1.41335e-06
2.66924e-06
1.59153e-06
2.00717e-06
2.47979e-06
1.4021e-06
2.40505e-06
2.055e-06
1.41349e-06
2.69619e-06
1.28895e-06
2.02745e-06
2.16363e-06
1.115e-06
2.43611e-06
1.26822e-06
1.75318e-06
1.84908e-06
1.24775e-06
1.93286e-06
1.30986e-06
1.59708e-06
1.67445e-06
1.22092e-06
1.83421e-06
1.3196e-06
1.59527e-06
1.63469e-06
1.43426e-06
1.84851e-06
1.33315e-06
2.04638e-06
1.45112e-06
1.80843e-06
2.07408e-06
1.30377e-06
2.51803e-06
1.41685e-06
2.09079e-06
2.24698e-06
1.40089e-06
2.67517e-06
1.59493e-06
1.99588e-06
2.49361e-06
1.394e-06
2.40375e-06
2.06619e-06
1.39982e-06
2.70625e-06
1.28953e-06
2.01812e-06
2.17892e-06
1.10293e-06
2.44193e-06
1.27216e-06
1.7445e-06
1.85991e-06
1.2406e-06
1.9363e-06
1.31163e-06
1.59252e-06
1.6838e-06
1.21292e-06
1.83844e-06
1.32011e-06
1.59101e-06
1.64042e-06
1.42791e-06
1.85477e-06
1.32693e-06
2.04955e-06
1.45297e-06
1.79909e-06
2.08825e-06
1.28866e-06
2.5271e-06
1.4178e-06
2.0784e-06
2.26617e-06
1.38216e-06
2.68511e-06
1.5987e-06
1.98005e-06
2.51399e-06
1.38099e-06
2.40295e-06
2.0816e-06
1.37937e-06
2.72182e-06
1.28864e-06
2.0052e-06
2.20082e-06
1.08413e-06
2.45143e-06
1.27636e-06
1.73211e-06
1.87554e-06
1.22932e-06
1.94183e-06
1.31342e-06
1.58607e-06
1.69651e-06
1.2015e-06
1.8449e-06
1.32021e-06
1.58566e-06
1.64835e-06
1.4191e-06
1.864e-06
1.31804e-06
2.05476e-06
1.45515e-06
1.78688e-06
2.10869e-06
1.26735e-06
2.54104e-06
1.41801e-06
2.06236e-06
2.29279e-06
1.35553e-06
2.70034e-06
1.60252e-06
1.95888e-06
2.54236e-06
1.36165e-06
2.40317e-06
2.10185e-06
1.35056e-06
2.74441e-06
1.28541e-06
1.98823e-06
2.23065e-06
1.05682e-06
2.4658e-06
1.2804e-06
1.7154e-06
1.89701e-06
1.21271e-06
1.95016e-06
1.31501e-06
1.57743e-06
1.71319e-06
1.18592e-06
1.85415e-06
1.31961e-06
1.57925e-06
1.65886e-06
1.40726e-06
1.87703e-06
1.30575e-06
2.06266e-06
1.4576e-06
1.77134e-06
2.13554e-06
1.23841e-06
2.56123e-06
1.41697e-06
2.0422e-06
2.32833e-06
1.31917e-06
2.72235e-06
1.60603e-06
1.93151e-06
2.58042e-06
1.33432e-06
2.40505e-06
2.12757e-06
1.31163e-06
2.77581e-06
1.2788e-06
1.96675e-06
2.26987e-06
1.01897e-06
2.48649e-06
1.28371e-06
1.69375e-06
1.92545e-06
1.18946e-06
1.96207e-06
1.31614e-06
1.56627e-06
1.73447e-06
1.16544e-06
1.86673e-06
1.31795e-06
1.57183e-06
1.67227e-06
1.39177e-06
1.89482e-06
1.28914e-06
2.07394e-06
1.46023e-06
1.75194e-06
2.17065e-06
1.20021e-06
2.58923e-06
1.41401e-06
2.0175e-06
2.3744e-06
1.27103e-06
2.75288e-06
1.60871e-06
1.89708e-06
2.62996e-06
1.29713e-06
2.40945e-06
2.15941e-06
1.26069e-06
2.81803e-06
1.26754e-06
1.94046e-06
2.32004e-06
9.6839e-07
2.51515e-06
1.28557e-06
1.66659e-06
1.96213e-06
1.15812e-06
1.97847e-06
1.3165e-06
1.55223e-06
1.76092e-06
1.13943e-06
1.88309e-06
1.31475e-06
1.5636e-06
1.68879e-06
1.37191e-06
1.91842e-06
1.2671e-06
2.08938e-06
1.46285e-06
1.72811e-06
2.21538e-06
1.15095e-06
2.62673e-06
1.40829e-06
1.98786e-06
2.43264e-06
1.20888e-06
2.79386e-06
1.6099e-06
1.85482e-06
2.69292e-06
1.24805e-06
2.41749e-06
2.19794e-06
1.19583e-06
2.87338e-06
1.25016e-06
1.90923e-06
2.38276e-06
9.0279e-07
2.55369e-06
1.28507e-06
1.6335e-06
2.0083e-06
1.11722e-06
2.00032e-06
1.31578e-06
1.53496e-06
1.79287e-06
1.10761e-06
1.90351e-06
1.30942e-06
1.55499e-06
1.70837e-06
1.34696e-06
1.94891e-06
1.23835e-06
2.10968e-06
1.46521e-06
1.69922e-06
2.27094e-06
1.08877e-06
2.67541e-06
1.39877e-06
1.95297e-06
2.5045e-06
1.13044e-06
2.84729e-06
1.60876e-06
1.80401e-06
2.77116e-06
1.18493e-06
2.43049e-06
2.24357e-06
1.11523e-06
2.9443e-06
1.22499e-06
1.87333e-06
2.45949e-06
8.20011e-07
2.60424e-06
1.28118e-06
1.59433e-06
2.06522e-06
1.0654e-06
2.02857e-06
1.31382e-06
1.51424e-06
1.83019e-06
1.07032e-06
1.92803e-06
1.30128e-06
1.54685e-06
1.73061e-06
1.31639e-06
1.98732e-06
1.20153e-06
2.1354e-06
1.46699e-06
1.66459e-06
2.3382e-06
1.01195e-06
2.7366e-06
1.38426e-06
1.91266e-06
2.59096e-06
1.0335e-06
2.91504e-06
1.60428e-06
1.74407e-06
2.86627e-06
1.10568e-06
2.44988e-06
2.29648e-06
1.01739e-06
3.03321e-06
1.19026e-06
1.83344e-06
2.5514e-06
7.18224e-07
2.669e-06
1.27278e-06
1.54937e-06
2.13393e-06
1.0018e-06
2.06401e-06
1.31059e-06
1.49024e-06
1.87214e-06
1.02872e-06
1.95653e-06
1.28963e-06
1.54062e-06
1.75461e-06
1.28016e-06
2.03438e-06
1.15544e-06
2.16682e-06
1.46785e-06
1.62386e-06
2.41712e-06
9.1945e-07
2.81098e-06
1.36342e-06
1.86704e-06
2.69217e-06
9.16265e-07
2.99839e-06
1.59537e-06
1.67454e-06
2.97907e-06
1.0086e-06
2.47698e-06
2.35619e-06
9.01497e-07
3.14203e-06
1.14406e-06
1.79092e-06
2.65894e-06
5.9634e-07
2.75005e-06
1.25875e-06
1.49963e-06
2.21485e-06
9.26489e-07
2.10729e-06
1.30606e-06
1.46395e-06
1.91759e-06
9.84636e-07
1.9888e-06
1.27378e-06
1.53871e-06
1.77848e-06
1.23942e-06
2.09033e-06
1.0995e-06
2.20407e-06
1.46714e-06
1.57765e-06
2.50608e-06
8.11586e-07
2.89819e-06
1.33477e-06
1.81681e-06
2.80674e-06
7.78065e-07
3.0973e-06
1.58113e-06
1.59535e-06
3.10863e-06
8.92947e-07
2.51283e-06
2.42101e-06
7.67984e-07
3.27161e-06
1.08436e-06
1.74789e-06
2.78127e-06
4.55223e-07
2.84855e-06
1.23801e-06
1.44727e-06
2.30723e-06
8.40652e-07
2.15907e-06
1.29969e-06
1.43752e-06
1.96617e-06
9.39827e-07
2.02427e-06
1.2537e-06
1.54439e-06
1.79925e-06
1.19745e-06
2.15458e-06
1.03387e-06
2.24779e-06
1.46346e-06
1.52842e-06
2.60155e-06
6.90659e-07
2.99632e-06
1.29711e-06
1.76375e-06
2.93055e-06
6.20496e-07
3.20928e-06
1.56092e-06
1.50796e-06
3.25086e-06
7.59732e-07
2.55805e-06
2.48739e-06
6.19273e-07
3.42066e-06
1.00943e-06
1.7071e-06
2.9153e-06
2.9767e-07
2.96385e-06
1.20934e-06
1.39581e-06
2.40889e-06
7.46079e-07
2.22083e-06
1.29027e-06
1.41327e-06
2.01985e-06
9.10054e-07
2.06053e-06
1.23126e-06
1.5613e-06
1.81249e-06
1.15951e-06
2.2261e-06
9.58727e-07
2.29937e-06
1.45496e-06
1.48045e-06
2.69802e-06
5.62419e-07
3.10111e-06
1.24984e-06
1.71251e-06
3.05474e-06
4.47996e-07
3.329e-06
1.53372e-06
1.41679e-06
3.3974e-06
6.12917e-07
2.61234e-06
2.54969e-06
4.61335e-07
3.58381e-06
9.19402e-07
1.67149e-06
3.05424e-06
1.30721e-07
3.09169e-06
1.17224e-06
1.34907e-06
2.51684e-06
6.44504e-07
2.2938e-06
1.27821e-06
1.39074e-06
2.08233e-06
8.75874e-07
2.08956e-06
1.21251e-06
1.59133e-06
1.81345e-06
1.13153e-06
2.30084e-06
8.74774e-07
2.36141e-06
1.44094e-06
1.43882e-06
2.78716e-06
4.37508e-07
3.20575e-06
1.19276e-06
1.67187e-06
3.16533e-06
2.69194e-07
3.44863e-06
1.49864e-06
1.32939e-06
3.53417e-06
4.62284e-07
2.67312e-06
2.5993e-06
3.07496e-07
3.74764e-06
8.18556e-07
1.64513e-06
3.18509e-06
-3.10614e-08
3.22074e-06
1.12989e-06
1.30972e-06
2.62643e-06
5.42923e-07
2.37398e-06
1.26972e-06
1.36334e-06
2.159e-06
8.59596e-07
2.10939e-06
1.21406e-06
1.62921e-06
1.80033e-06
1.12066e-06
2.37802e-06
7.89437e-07
2.42577e-06
1.42506e-06
1.40877e-06
2.85644e-06
3.32727e-07
3.29749e-06
1.12821e-06
1.655e-06
3.24205e-06
1.2158e-07
3.55568e-06
1.45629e-06
1.26076e-06
3.636e-06
3.28809e-07
2.73538e-06
2.62028e-06
1.8335e-07
3.88583e-06
7.18358e-07
1.63494e-06
3.28427e-06
-1.66611e-07
3.32688e-06
1.09205e-06
1.28007e-06
2.72707e-06
4.48736e-07
2.4581e-06
1.28122e-06
1.31624e-06
2.2417e-06
8.89002e-07
2.10248e-06
1.26424e-06
1.66595e-06
1.76168e-06
1.14758e-06
2.43536e-06
7.18822e-07
2.48361e-06
1.40902e-06
1.39952e-06
2.88771e-06
2.75066e-07
3.36294e-06
1.05654e-06
1.6775e-06
3.26112e-06
2.19903e-08
3.64167e-06
1.40003e-06
1.23517e-06
3.67367e-06
2.29961e-07
2.80585e-06
2.583e-06
1.30796e-07
3.96611e-06
6.25277e-07
1.66225e-06
3.31068e-06
-2.30628e-07
3.38099e-06
1.06263e-06
1.27597e-06
2.79262e-06
3.90882e-07
2.50229e-06
1.3322e-06
1.23886e-06
2.31266e-06
9.87855e-07
1.95307e-06
1.37645e-06
1.70399e-06
1.68017e-06
1.23098e-06
2.45441e-06
6.75875e-07
2.52187e-06
1.40323e-06
1.40953e-06
2.87009e-06
2.76845e-07
3.37671e-06
9.9613e-07
1.73613e-06
3.2098e-06
-1.81862e-08
3.68721e-06
1.33812e-06
1.26027e-06
3.62941e-06
1.83201e-07
2.88456e-06
2.46982e-06
1.7686e-07
3.96962e-06
5.38796e-07
1.74895e-06
3.23518e-06
-1.76948e-07
3.37901e-06
1.03033e-06
1.31966e-06
2.80131e-06
3.86078e-07
2.49032e-06
1.42167e-06
1.13771e-06
2.36506e-06
1.17209e-06
1.69829e-06
1.56575e-06
1.73935e-06
1.54699e-06
1.39121e-06
2.4089e-06
6.88484e-07
2.51418e-06
1.42066e-06
1.44449e-06
2.77548e-06
3.85018e-07
3.29744e-06
9.70885e-07
1.83342e-06
3.0617e-06
4.1227e-08
3.66215e-06
1.27966e-06
1.35048e-06
3.47367e-06
2.20971e-07
2.95955e-06
2.26664e-06
3.55483e-07
3.86108e-06
4.84303e-07
1.88952e-06
3.05125e-06
-2.1538e-08
3.30582e-06
1.00696e-06
1.40205e-06
2.75979e-06
4.29144e-07
2.44559e-06
1.55658e-06
1.01116e-06
2.38563e-06
1.44453e-06
1.34596e-06
1.81281e-06
1.78589e-06
1.3522e-06
1.63195e-06
2.29514e-06
7.58235e-07
2.46448e-06
1.45157e-06
1.51513e-06
2.59619e-06
5.98886e-07
3.13098e-06
9.78582e-07
1.97243e-06
2.81675e-06
1.97773e-07
3.57694e-06
1.21838e-06
1.50667e-06
3.21531e-06
3.32412e-07
3.04033e-06
1.96823e-06
6.67234e-07
3.64262e-06
4.65242e-07
2.07958e-06
2.76756e-06
2.326e-07
3.16915e-06
9.98793e-07
1.50964e-06
2.68043e-06
5.15296e-07
2.36519e-06
1.72554e-06
8.75743e-07
2.37526e-06
1.76121e-06
9.70162e-07
2.05736e-06
1.8656e-06
1.11976e-06
1.90553e-06
2.145e-06
8.64949e-07
2.39681e-06
1.48139e-06
1.61315e-06
2.37151e-06
8.64496e-07
2.92386e-06
9.97057e-07
2.13638e-06
2.52617e-06
3.92714e-07
3.47644e-06
1.14538e-06
1.69935e-06
2.90959e-06
4.74834e-07
3.12689e-06
1.62292e-06
1.04302e-06
3.37385e-06
4.53983e-07
2.29825e-06
2.45367e-06
5.03727e-07
3.03088e-06
9.7998e-07
1.62859e-06
2.59546e-06
6.02357e-07
2.28848e-06
1.88308e-06
7.61032e-07
2.32777e-06
2.02874e-06
6.52021e-07
2.23519e-06
1.98214e-06
8.89269e-07
2.15609e-06
2.01545e-06
9.60758e-07
2.32914e-06
1.50655e-06
1.71567e-06
2.14749e-06
1.12724e-06
2.71964e-06
1.01384e-06
2.29604e-06
2.24899e-06
5.67146e-07
3.39339e-06
1.0682e-06
1.87878e-06
2.62216e-06
6.08142e-07
3.20655e-06
1.29681e-06
1.39966e-06
3.12858e-06
4.26459e-07
2.51235e-06
2.18643e-06
7.03649e-07
2.9652e-06
9.13349e-07
1.75268e-06
2.53474e-06
6.50997e-07
2.25929e-06
1.97096e-06
7.13064e-07
2.23274e-06
2.2807e-06
4.47835e-07
2.28984e-06
2.1626e-06
6.66664e-07
2.3525e-06
1.92347e-06
1.05021e-06
2.2566e-06
1.52281e-06
1.81967e-06
1.93622e-06
1.36545e-06
2.53859e-06
1.02416e-06
2.4446e-06
1.99476e-06
7.22358e-07
3.33035e-06
9.95513e-07
2.03341e-06
2.36591e-06
7.39531e-07
3.25141e-06
1.02988e-06
1.69375e-06
2.93625e-06
3.75943e-07
2.70154e-06
2.00499e-06
7.74857e-07
3.0155e-06
7.9288e-07
1.86263e-06
2.51842e-06
6.35192e-07
2.3138e-06
1.95126e-06
7.71497e-07
2.09275e-06
2.44107e-06
4.28084e-07
2.16365e-06
2.41304e-06
4.93233e-07
2.44739e-06
1.88325e-06
1.13742e-06
2.17367e-06
1.54623e-06
1.89901e-06
1.75117e-06
1.58103e-06
2.35721e-06
1.06441e-06
2.55185e-06
1.77491e-06
8.64884e-07
3.26048e-06
9.46443e-07
2.15057e-06
2.13419e-06
9.01657e-07
3.20083e-06
8.81322e-07
1.89376e-06
2.79898e-06
3.32256e-07
2.80719e-06
1.96251e-06
6.74165e-07
3.19881e-06
6.35751e-07
1.93449e-06
2.55818e-06
5.51707e-07
2.45791e-06
1.80788e-06
9.49025e-07
1.91583e-06
2.47234e-06
6.41699e-07
1.86061e-06
2.68693e-06
4.12842e-07
2.41593e-06
1.90273e-06
1.23267e-06
2.05492e-06
1.5917e-06
1.98261e-06
1.59631e-06
1.78723e-06
2.14592e-06
1.16891e-06
2.59762e-06
1.59014e-06
1.0247e-06
3.14388e-06
9.50318e-07
2.22045e-06
1.93471e-06
1.11329e-06
3.02735e-06
8.78488e-07
1.98566e-06
2.69945e-06
3.34425e-07
2.80247e-06
2.08961e-06
3.78453e-07
3.5238e-06
4.47804e-07
1.95805e-06
2.6751e-06
4.05439e-07
2.70026e-06
1.52547e-06
1.26721e-06
1.73975e-06
2.33273e-06
1.0828e-06
1.41841e-06
3.0009e-06
4.73379e-07
2.267e-06
1.95108e-06
1.36896e-06
1.90657e-06
1.65652e-06
2.03356e-06
1.46089e-06
2.00437e-06
1.87639e-06
1.36155e-06
2.57796e-06
1.40594e-06
1.25743e-06
2.93655e-06
1.02883e-06
2.23333e-06
1.76766e-06
1.38662e-06
2.71751e-06
1.03626e-06
1.97118e-06
2.6225e-06
3.86867e-07
2.695e-06
2.35445e-06
-4.77042e-08
3.88686e-06
3.17948e-07
1.87771e-06
2.86571e-06
2.1516e-07
3.00102e-06
1.15881e-06
1.69082e-06
1.63184e-06
2.03296e-06
1.6845e-06
9.1819e-07
3.13601e-06
6.85497e-07
2.00307e-06
2.00785e-06
1.55182e-06
1.72994e-06
1.72581e-06
2.0453e-06
1.36181e-06
2.22462e-06
1.5493e-06
1.66662e-06
2.48984e-06
1.20842e-06
1.58683e-06
2.637e-06
1.17893e-06
2.20599e-06
1.63285e-06
1.67538e-06
2.3138e-06
1.3302e-06
1.86652e-06
2.56237e-06
4.8336e-07
2.53443e-06
2.67391e-06
-4.51011e-07
4.19103e-06
3.02874e-07
1.6786e-06
3.05925e-06
1.2166e-07
3.18948e-06
8.09984e-07
2.0978e-06
1.67059e-06
1.60669e-06
2.2646e-06
6.37237e-07
2.9836e-06
1.10062e-06
1.73616e-06
1.94853e-06
1.81952e-06
1.53733e-06
1.8085e-06
2.00936e-06
1.30726e-06
2.47896e-06
1.1115e-06
2.09621e-06
2.33057e-06
9.77918e-07
2.05157e-06
2.24548e-06
1.38049e-06
2.16324e-06
1.575e-06
1.88482e-06
1.94408e-06
1.60812e-06
1.80121e-06
2.4757e-06
5.91861e-07
2.41036e-06
2.79417e-06
-6.14015e-07
4.17163e-06
5.55716e-07
1.40102e-06
3.14479e-06
2.32161e-07
3.11178e-06
7.08509e-07
2.31881e-06
1.89871e-06
1.18996e-06
2.54752e-06
8.46597e-07
2.43152e-06
1.62222e-06
1.6221e-06
1.70913e-06
2.11491e-06
1.44458e-06
1.82124e-06
2.01475e-06
1.25794e-06
2.7491e-06
6.40366e-07
2.51207e-06
2.20764e-06
6.38291e-07
2.58787e-06
1.6618e-06
1.50149e-06
2.08932e-06
1.65977e-06
1.87982e-06
1.796e-06
1.71751e-06
1.79919e-06
2.38209e-06
5.91962e-07
2.61871e-06
2.45968e-06
-1.71797e-07
3.66829e-06
1.02446e-06
1.21161e-06
2.91441e-06
7.94414e-07
2.59435e-06
1.05668e-06
2.17405e-06
2.27296e-06
9.55812e-07
2.37656e-06
1.59188e-06
1.4631e-06
2.24325e-06
1.62053e-06
1.43831e-06
2.22838e-06
1.61958e-06
1.67837e-06
1.97307e-06
1.338e-06
2.79177e-06
4.39965e-07
2.65696e-06
2.27205e-06
3.05491e-07
3.00212e-06
1.42549e-06
1.42936e-06
2.12841e-06
1.83905e-06
1.61805e-06
1.99421e-06
1.58144e-06
1.9324e-06
2.25494e-06
4.75602e-07
3.15292e-06
1.67178e-06
7.34055e-07
2.81339e-06
1.49842e-06
1.34716e-06
2.24103e-06
1.76534e-06
1.79829e-06
1.69789e-06
1.69542e-06
1.50186e-06
1.28962e-06
1.80673e-06
1.21889e-06
1.7301e-06
1.50405e-06
1.50933e-06
1.88111e-06
1.28599e-06
2.16174e-06
1.43439e-06
1.86428e-06
2.14598e-06
1.32598e-06
2.58632e-06
1.48989e-06
2.10957e-06
2.35529e-06
1.40611e-06
2.76257e-06
1.63566e-06
2.00795e-06
2.59728e-06
1.32601e-06
2.537e-06
1.97868e-06
1.46768e-06
2.71412e-06
1.19119e-06
2.15477e-06
1.98615e-06
1.20922e-06
2.35641e-06
1.18728e-06
1.83377e-06
1.65677e-06
1.32453e-06
1.85266e-06
1.2172e-06
1.68086e-06
1.50315e-06
1.28894e-06
1.80642e-06
1.21944e-06
1.72862e-06
1.50481e-06
1.5079e-06
1.88103e-06
1.28562e-06
2.16001e-06
1.43548e-06
1.86166e-06
2.14662e-06
1.32523e-06
2.58431e-06
1.49172e-06
2.10635e-06
2.35667e-06
1.40542e-06
2.76073e-06
1.63811e-06
2.00508e-06
2.59866e-06
1.32658e-06
2.53493e-06
1.98148e-06
1.4663e-06
2.71421e-06
1.19359e-06
2.15237e-06
1.98898e-06
1.20882e-06
2.35608e-06
1.18973e-06
1.83197e-06
1.65891e-06
1.32408e-06
1.85275e-06
1.21832e-06
1.6797e-06
1.50531e-06
1.28677e-06
1.80734e-06
1.21902e-06
1.72721e-06
1.50598e-06
1.50524e-06
1.88249e-06
1.28339e-06
2.15946e-06
1.4364e-06
1.8576e-06
2.14973e-06
1.32166e-06
2.58421e-06
1.49331e-06
2.10143e-06
2.36098e-06
1.40154e-06
2.76085e-06
1.64089e-06
1.9998e-06
2.60351e-06
1.32462e-06
2.53337e-06
1.98641e-06
1.46154e-06
2.71746e-06
1.19473e-06
2.14902e-06
1.99447e-06
1.20545e-06
2.35787e-06
1.19157e-06
1.82939e-06
1.6625e-06
1.32196e-06
1.85412e-06
1.21867e-06
1.67831e-06
1.50879e-06
1.28274e-06
1.8098e-06
1.21765e-06
1.72574e-06
1.50795e-06
1.50103e-06
1.88592e-06
1.27914e-06
2.16017e-06
1.43755e-06
1.85156e-06
2.15615e-06
1.31473e-06
2.58627e-06
1.4951e-06
2.09397e-06
2.36953e-06
1.39372e-06
2.76316e-06
1.64449e-06
1.99105e-06
2.61296e-06
1.31949e-06
2.532e-06
1.99433e-06
1.45224e-06
2.72452e-06
1.19461e-06
2.14386e-06
2.00376e-06
1.1981e-06
2.36209e-06
1.19311e-06
1.82523e-06
1.66844e-06
1.31752e-06
1.85705e-06
1.2183e-06
1.67644e-06
1.51397e-06
1.27638e-06
1.81426e-06
1.21512e-06
1.72423e-06
1.51102e-06
1.49487e-06
1.89187e-06
1.27241e-06
2.16248e-06
1.43904e-06
1.84299e-06
2.16678e-06
1.30356e-06
2.59103e-06
1.49718e-06
2.08323e-06
2.38338e-06
1.3808e-06
2.76827e-06
1.6491e-06
1.97785e-06
2.62851e-06
1.31016e-06
2.53095e-06
2.00594e-06
1.4371e-06
2.73646e-06
1.1928e-06
2.13636e-06
2.01793e-06
1.18555e-06
2.36949e-06
1.19421e-06
1.81896e-06
1.67746e-06
1.30989e-06
1.86203e-06
1.21706e-06
1.67396e-06
1.52118e-06
1.26717e-06
1.82132e-06
1.21105e-06
1.72286e-06
1.51543e-06
1.48636e-06
1.90109e-06
1.26252e-06
2.16696e-06
1.44087e-06
1.83146e-06
2.18269e-06
1.28699e-06
2.59947e-06
1.49933e-06
2.06863e-06
2.40381e-06
1.36132e-06
2.7772e-06
1.65458e-06
1.95925e-06
2.65115e-06
1.29522e-06
2.53067e-06
2.0218e-06
1.41464e-06
2.75474e-06
1.18836e-06
2.12628e-06
2.03798e-06
1.16631e-06
2.38118e-06
1.19437e-06
1.81028e-06
1.69029e-06
1.29839e-06
1.86973e-06
1.21461e-06
1.67084e-06
1.53078e-06
1.25453e-06
1.83168e-06
1.20498e-06
1.72192e-06
1.5214e-06
1.47501e-06
1.91449e-06
1.24866e-06
2.17437e-06
1.44296e-06
1.81648e-06
2.20511e-06
1.26366e-06
2.61279e-06
1.50123e-06
2.04957e-06
2.4323e-06
1.33357e-06
2.79122e-06
1.66072e-06
1.93426e-06
2.68281e-06
1.27301e-06
2.5318e-06
2.04246e-06
1.38316e-06
2.78107e-06
1.18014e-06
2.11343e-06
2.065e-06
1.1387e-06
2.39845e-06
1.1929e-06
1.79891e-06
1.7077e-06
1.28192e-06
1.88095e-06
1.2105e-06
1.66713e-06
1.54313e-06
1.23785e-06
1.84607e-06
1.19634e-06
1.72176e-06
1.52913e-06
1.46031e-06
1.93311e-06
1.22985e-06
2.1856e-06
1.4452e-06
1.79755e-06
2.23543e-06
1.232e-06
2.6324e-06
1.50243e-06
2.02545e-06
2.47052e-06
1.29559e-06
2.8118e-06
1.66725e-06
1.90179e-06
2.72542e-06
1.24163e-06
2.53514e-06
2.06851e-06
1.34062e-06
2.8174e-06
1.16677e-06
2.09771e-06
2.10016e-06
1.1008e-06
2.42282e-06
1.18893e-06
1.78461e-06
1.73049e-06
1.25931e-06
1.89655e-06
1.20422e-06
1.66286e-06
1.55855e-06
1.21651e-06
1.86519e-06
1.18446e-06
1.72283e-06
1.53874e-06
1.44167e-06
1.95808e-06
1.20494e-06
2.20163e-06
1.4474e-06
1.77413e-06
2.27512e-06
1.19021e-06
2.65995e-06
1.50237e-06
1.99567e-06
2.52029e-06
1.24518e-06
2.8407e-06
1.67376e-06
1.86077e-06
2.78104e-06
1.19891e-06
2.54177e-06
2.10048e-06
1.28524e-06
2.86601e-06
1.14661e-06
2.07918e-06
2.14469e-06
1.05059e-06
2.45602e-06
1.18143e-06
1.7672e-06
1.75952e-06
1.22935e-06
1.91747e-06
1.19521e-06
1.65805e-06
1.57725e-06
1.19008e-06
1.88959e-06
1.16859e-06
1.7257e-06
1.55016e-06
1.41848e-06
1.9906e-06
1.17257e-06
2.22354e-06
1.44924e-06
1.74566e-06
2.32567e-06
1.13656e-06
2.69723e-06
1.50027e-06
1.95972e-06
2.58345e-06
1.17997e-06
2.87992e-06
1.67968e-06
1.81021e-06
2.85188e-06
1.14249e-06
2.55306e-06
2.13881e-06
1.2152e-06
2.92943e-06
1.1178e-06
2.05816e-06
2.19979e-06
9.86031e-07
2.5e-06
1.16922e-06
1.74671e-06
1.79564e-06
1.1908e-06
1.94463e-06
1.18294e-06
1.65276e-06
1.59919e-06
1.1585e-06
1.91957e-06
1.14789e-06
1.73115e-06
1.56304e-06
1.39015e-06
2.0318e-06
1.13124e-06
2.25235e-06
1.45025e-06
1.71158e-06
2.38836e-06
1.069e-06
2.74604e-06
1.49512e-06
1.9172e-06
2.66167e-06
1.09736e-06
2.93157e-06
1.68426e-06
1.74928e-06
2.94016e-06
1.06994e-06
2.57068e-06
2.18378e-06
1.12858e-06
3.01031e-06
1.07834e-06
2.03532e-06
2.26654e-06
9.05335e-07
2.55687e-06
1.15099e-06
1.72343e-06
1.83966e-06
1.14265e-06
1.97886e-06
1.16707e-06
1.64711e-06
1.62386e-06
1.12241e-06
1.95504e-06
1.12149e-06
1.74026e-06
1.5766e-06
1.35637e-06
2.08254e-06
1.0794e-06
2.28892e-06
1.44975e-06
1.6714e-06
2.46404e-06
9.85633e-07
2.80791e-06
1.4856e-06
1.8679e-06
2.75614e-06
9.94724e-07
2.99768e-06
1.68648e-06
1.67736e-06
3.04767e-06
9.78881e-07
2.59645e-06
2.23538e-06
1.02396e-06
3.11123e-06
1.02618e-06
2.01189e-06
2.34568e-06
8.07188e-07
2.62876e-06
1.12546e-06
1.69807e-06
1.89223e-06
1.08447e-06
2.02075e-06
1.14747e-06
1.64157e-06
1.65017e-06
1.08347e-06
1.99569e-06
1.08865e-06
1.75457e-06
1.58956e-06
1.3174e-06
2.1432e-06
1.01564e-06
2.33378e-06
1.44687e-06
1.62495e-06
2.55257e-06
8.85122e-07
2.88371e-06
1.47012e-06
1.81199e-06
2.86712e-06
8.70872e-07
3.07981e-06
1.68515e-06
1.59405e-06
3.17541e-06
8.67474e-07
2.63216e-06
2.29291e-06
9.00868e-07
3.23421e-06
9.59329e-07
1.98965e-06
2.43742e-06
6.84382e-07
2.71761e-06
1.09164e-06
1.67194e-06
1.95349e-06
1.01685e-06
2.07063e-06
1.12377e-06
1.63734e-06
1.6768e-06
1.04413e-06
2.04109e-06
1.04912e-06
1.77623e-06
1.59998e-06
1.27476e-06
2.21334e-06
9.38728e-07
2.38718e-06
1.44051e-06
1.573e-06
2.65248e-06
7.67384e-07
2.97322e-06
1.44676e-06
1.75021e-06
2.99331e-06
7.24235e-07
3.17809e-06
1.67905e-06
1.49974e-06
3.32229e-06
7.34992e-07
2.67924e-06
2.35433e-06
7.60276e-07
3.37994e-06
8.76084e-07
1.97092e-06
2.54095e-06
5.50816e-07
2.82445e-06
1.04878e-06
1.64728e-06
2.02261e-06
9.41542e-07
2.12904e-06
1.09642e-06
1.63657e-06
1.70363e-06
1.00729e-06
2.0903e-06
1.00386e-06
1.8078e-06
1.60532e-06
1.232e-06
2.29143e-06
8.49958e-07
2.44934e-06
1.42918e-06
1.5181e-06
2.75889e-06
6.34811e-07
3.07444e-06
1.4138e-06
1.68464e-06
3.12969e-06
5.5625e-07
3.29009e-06
1.66669e-06
1.39671e-06
3.48358e-06
5.82816e-07
2.73858e-06
2.41551e-06
6.0538e-07
3.54646e-06
7.75609e-07
1.95834e-06
2.65327e-06
4.02882e-07
2.94838e-06
9.96406e-07
1.6273e-06
2.09792e-06
8.60405e-07
2.19734e-06
1.06517e-06
1.64092e-06
1.73339e-06
9.76673e-07
2.14045e-06
9.56961e-07
1.85079e-06
1.60243e-06
1.19478e-06
2.37455e-06
7.5342e-07
2.52041e-06
1.41164e-06
1.46495e-06
2.86524e-06
4.9466e-07
3.18266e-06
1.36998e-06
1.62081e-06
3.26647e-06
3.74023e-07
3.41069e-06
1.64562e-06
1.29071e-06
3.64858e-06
4.15788e-07
2.80987e-06
2.46972e-06
4.43473e-07
3.72702e-06
6.59086e-07
1.95389e-06
2.76848e-06
2.4755e-07
3.0847e-06
9.35325e-07
1.61449e-06
2.17811e-06
7.74924e-07
2.27626e-06
1.03234e-06
1.64815e-06
1.77192e-06
9.55895e-07
2.18332e-06
9.18243e-07
1.90337e-06
1.58844e-06
1.17027e-06
2.45752e-06
6.53589e-07
2.59575e-06
1.38795e-06
1.42017e-06
2.96082e-06
3.59924e-07
3.29019e-06
1.31409e-06
1.56892e-06
3.38823e-06
1.90566e-07
3.53249e-06
1.61372e-06
1.19141e-06
3.80097e-06
2.44827e-07
2.89005e-06
2.50776e-06
2.88429e-07
3.90626e-06
5.33323e-07
1.95821e-06
2.87613e-06
9.86192e-08
3.22037e-06
8.71251e-07
1.60815e-06
2.26271e-06
6.88054e-07
2.3597e-06
1.00775e-06
1.64895e-06
1.8282e-06
9.56061e-07
2.20121e-06
9.09106e-07
1.95441e-06
1.56419e-06
1.16768e-06
2.53021e-06
5.63059e-07
2.66676e-06
1.36235e-06
1.39213e-06
3.02844e-06
2.51597e-07
3.38281e-06
1.24717e-06
1.54354e-06
3.47136e-06
2.96562e-08
3.64172e-06
1.5705e-06
1.1162e-06
3.91203e-06
9.30475e-08
2.97133e-06
2.51589e-06
1.67644e-07
4.05413e-06
4.15847e-07
1.9717e-06
2.95673e-06
-1.73828e-08
3.32859e-06
8.1972e-07
1.60396e-06
2.347e-06
6.12108e-07
2.44425e-06
1.01333e-06
1.62382e-06
1.8968e-06
1.00468e-06
2.17341e-06
9.64601e-07
1.99057e-06
1.52085e-06
1.20973e-06
2.56446e-06
5.04218e-07
2.72116e-06
1.33641e-06
1.3945e-06
3.04354e-06
1.95599e-07
3.44676e-06
1.16671e-06
1.56574e-06
3.48723e-06
-8.14835e-08
3.72855e-06
1.50645e-06
1.09437e-06
3.94535e-06
-1.39618e-08
3.05634e-06
2.46308e-06
1.25011e-07
4.13199e-06
3.19909e-07
2.00966e-06
2.97318e-06
-5.76706e-08
3.37741e-06
7.92634e-07
1.61014e-06
2.40798e-06
5.71201e-07
2.50465e-06
1.07485e-06
1.55619e-06
1.96612e-06
1.1227e-06
2.00977e-06
1.10185e-06
2.00744e-06
1.44805e-06
1.31188e-06
2.54138e-06
4.94443e-07
2.73965e-06
1.32351e-06
1.42422e-06
2.99154e-06
2.17257e-07
3.45218e-06
1.09134e-06
1.63512e-06
3.41991e-06
-1.21719e-07
3.77034e-06
1.43073e-06
1.13655e-06
3.87807e-06
-5.45213e-08
3.14011e-06
2.33316e-06
1.87844e-07
4.11956e-06
2.48154e-07
2.08918e-06
2.90037e-06
-3.50302e-11
3.36303e-06
7.80672e-07
1.64462e-06
2.42767e-06
5.7243e-07
2.42089e-06
1.19365e-06
1.44504e-06
2.03623e-06
1.32294e-06
1.72229e-06
1.34328e-06
1.99072e-06
1.34349e-06
1.49166e-06
2.43003e-06
5.67403e-07
2.69127e-06
1.33598e-06
1.49421e-06
2.83756e-06
3.66965e-07
3.35832e-06
1.04138e-06
1.76179e-06
3.23398e-06
-4.28686e-08
3.73081e-06
1.35483e-06
1.26144e-06
3.66999e-06
1.79315e-08
3.19711e-06
2.12259e-06
3.8668e-07
3.97608e-06
2.35682e-07
2.19233e-06
2.7428e-06
1.59107e-07
3.2721e-06
7.95267e-07
1.69048e-06
2.4206e-06
6.14884e-07
2.35556e-06
1.38382e-06
1.28119e-06
2.0933e-06
1.60153e-06
1.32142e-06
1.66822e-06
1.95549e-06
1.19879e-06
1.74782e-06
2.23514e-06
7.2222e-07
2.58356e-06
1.36394e-06
1.61218e-06
2.58036e-06
6.36448e-07
3.17659e-06
1.00918e-06
1.95179e-06
2.92942e-06
1.56604e-07
3.62453e-06
1.26786e-06
1.47617e-06
3.32525e-06
1.98477e-07
3.2402e-06
1.82642e-06
7.24065e-07
3.70031e-06
2.9157e-07
2.31143e-06
2.51273e-06
4.07817e-07
3.10588e-06
8.42539e-07
1.73442e-06
2.40043e-06
6.90593e-07
2.24269e-06
1.63095e-06
1.08161e-06
2.12818e-06
1.91261e-06
9.003e-07
2.00084e-06
1.93717e-06
1.02885e-06
2.03325e-06
2.0086e-06
9.68265e-07
2.44909e-06
1.3931e-06
1.75976e-06
2.27262e-06
9.59673e-07
2.95783e-06
9.78723e-07
2.17987e-06
2.56813e-06
4.11748e-07
3.50226e-06
1.16169e-06
1.74347e-06
2.91376e-06
4.31827e-07
3.27125e-06
1.48548e-06
1.13383e-06
3.36031e-06
3.7354e-07
2.44173e-06
2.2571e-06
6.73383e-07
2.92909e-06
8.88844e-07
1.77806e-06
2.38525e-06
7.63691e-07
2.13419e-06
1.87633e-06
8.90719e-07
2.12978e-06
2.19704e-06
5.44327e-07
2.25839e-06
1.96239e-06
8.63924e-07
2.28423e-06
1.81119e-06
1.13617e-06
2.3175e-06
1.41969e-06
1.90611e-06
1.97581e-06
1.26688e-06
2.75196e-06
9.44729e-07
2.40341e-06
2.22031e-06
6.25392e-07
3.40058e-06
1.04921e-06
2.002e-06
2.5155e-06
6.57696e-07
3.29789e-06
1.16047e-06
1.52972e-06
3.04042e-06
4.36775e-07
2.57263e-06
2.03442e-06
8.73156e-07
2.83368e-06
8.83229e-07
1.83437e-06
2.38655e-06
7.98783e-07
2.05379e-06
2.04367e-06
7.69016e-07
2.07715e-06
2.43655e-06
3.2279e-07
2.37492e-06
2.06591e-06
7.06822e-07
2.46621e-06
1.67853e-06
1.29026e-06
2.19459e-06
1.44167e-06
2.03986e-06
1.71282e-06
1.531e-06
2.58062e-06
9.03049e-07
2.60802e-06
1.90755e-06
8.17335e-07
3.32456e-06
9.40824e-07
2.23249e-06
2.15073e-06
8.77342e-07
3.29817e-06
8.91015e-07
1.86599e-06
2.77278e-06
4.6828e-07
2.69269e-06
1.8804e-06
9.55404e-07
2.8557e-06
8.1048e-07
1.89292e-06
2.41995e-06
7.76736e-07
2.08364e-06
2.09163e-06
7.65308e-07
1.97556e-06
2.57191e-06
3.0302e-07
2.2876e-06
2.25212e-06
5.91242e-07
2.52966e-06
1.6093e-06
1.41438e-06
2.07184e-06
1.47894e-06
2.13682e-06
1.50359e-06
1.74984e-06
2.41669e-06
9.00337e-07
2.75656e-06
1.64617e-06
9.81816e-07
3.24661e-06
8.59947e-07
2.4157e-06
1.81764e-06
1.11553e-06
3.20257e-06
7.36892e-07
2.10597e-06
2.5805e-06
4.9827e-07
2.75921e-06
1.84761e-06
8.69653e-07
3.01753e-06
6.83615e-07
1.93444e-06
2.48715e-06
6.86631e-07
2.21186e-06
1.99483e-06
8.99878e-07
1.83024e-06
2.57606e-06
5.32931e-07
1.99723e-06
2.47729e-06
5.76013e-07
2.44412e-06
1.65989e-06
1.5173e-06
1.92373e-06
1.55487e-06
2.18711e-06
1.3677e-06
1.93696e-06
2.2237e-06
9.76555e-07
2.82072e-06
1.43865e-06
1.15088e-06
3.12338e-06
8.44823e-07
2.52753e-06
1.55268e-06
1.38361e-06
3.001e-06
7.2422e-07
2.2324e-06
2.42751e-06
5.50818e-07
2.7402e-06
1.96906e-06
5.95845e-07
3.3264e-06
5.07167e-07
1.95394e-06
2.61896e-06
5.30777e-07
2.46182e-06
1.72639e-06
1.20218e-06
1.6794e-06
2.40307e-06
1.00424e-06
1.52976e-06
2.73316e-06
6.81317e-07
2.22097e-06
1.77578e-06
1.64001e-06
1.73298e-06
1.67931e-06
2.1701e-06
1.27861e-06
2.122e-06
1.949e-06
1.1733e-06
2.78793e-06
1.25414e-06
1.38418e-06
2.90848e-06
9.23708e-07
2.55188e-06
1.35315e-06
1.68729e-06
2.67067e-06
8.7872e-07
2.2401e-06
2.32227e-06
6.10063e-07
2.64095e-06
2.20757e-06
1.9881e-07
3.68986e-06
3.66466e-07
1.88832e-06
2.80636e-06
3.23691e-07
2.78239e-06
1.32816e-06
1.62888e-06
1.58991e-06
2.07195e-06
1.64105e-06
1.02008e-06
2.91456e-06
9.32817e-07
1.87986e-06
1.89978e-06
1.79162e-06
1.50967e-06
1.82999e-06
2.09355e-06
1.2364e-06
2.32739e-06
1.60959e-06
1.54149e-06
2.64695e-06
1.0808e-06
1.70889e-06
2.59037e-06
1.09432e-06
2.49257e-06
1.23028e-06
1.97374e-06
2.26561e-06
1.16759e-06
2.1451e-06
2.25993e-06
6.89728e-07
2.49892e-06
2.49478e-06
-2.12594e-07
4.01564e-06
3.28652e-07
1.71986e-06
2.98034e-06
1.96744e-07
3.02598e-06
9.69815e-07
2.04877e-06
1.62719e-06
1.63918e-06
2.2214e-06
7.31848e-07
2.77751e-06
1.36472e-06
1.55863e-06
1.90037e-06
2.04693e-06
1.26049e-06
2.00085e-06
1.96488e-06
1.22891e-06
2.59297e-06
1.08062e-06
2.07348e-06
2.41253e-06
8.79236e-07
2.17136e-06
2.31924e-06
1.34638e-06
2.36145e-06
1.24026e-06
2.13862e-06
1.91532e-06
1.43394e-06
2.08291e-06
2.17713e-06