/*--------------------------------*- C++ -*----------------------------------*\
  =========                 |
  \\      /  F ield         | OpenFOAM: The Open Source CFD Toolbox
   \\    /   O peration     | Website:  https://openfoam.org
    \\  /    A nd           | Version:  10
     \\/     M anipulation  |
\*---------------------------------------------------------------------------*/
FoamFile
{
    format      ascii;
    class       volScalarField;
    location    "16";
    object      nut;
}
// * * * * * * * * * * * * * * * * * * * * * * * * * * * * * * * * * * * * * //

dimensions      [0 2 -1 0 0 0 0];

internalField   nonuniform List<scalar> 
102400
(
7.31835e-10
9.83633e-10
1.02881e-09
9.15676e-10
1.44438e-09
1.15498e-09
6.38092e-10
1.33782e-09
1.74867e-09
1.62647e-09
6.25436e-10
1.70026e-09
1.53422e-09
1.44227e-09
1.60545e-09
2.06887e-09
1.5839e-09
1.24196e-09
2.09376e-09
1.10457e-09
1.84479e-09
1.74259e-09
9.01373e-10
1.10983e-09
9.76007e-10
8.75077e-10
1.41899e-09
1.48518e-09
1.89504e-09
1.18165e-09
1.98529e-09
1.71114e-09
1.73517e-09
6.93199e-10
1.30707e-09
1.44705e-09
1.07321e-09
1.16777e-09
1.87574e-09
2.02245e-09
4.7311e-14
5.00199e-14
4.03022e-14
1.93644e-14
5.46025e-14
2.60915e-14
1.53675e-14
3.85763e-13
4.24744e-13
9.70778e-14
5.27983e-14
1.79606e-12
1.11761e-14
1.23076e-13
1.75248e-12
1.16507e-12
1.13082e-12
1.44236e-13
1.25658e-13
3.08472e-14
1.14243e-12
2.1112e-13
4.3052e-13
2.47287e-13
2.26572e-13
3.08418e-13
1.6696e-13
4.20789e-14
3.41014e-13
2.65013e-14
2.57301e-13
6.32356e-13
2.00862e-13
4.31609e-14
6.5643e-14
2.13803e-13
1.57215e-13
2.8718e-13
1.23049e-13
3.37789e-13
2.49673e-09
1.57241e-09
3.01271e-09
1.49605e-09
1.96248e-09
2.26463e-09
1.22411e-09
2.98811e-09
2.17362e-09
2.77003e-09
2.75786e-09
1.89709e-09
2.09495e-09
2.3562e-09
2.09231e-09
3.61761e-09
1.8952e-09
2.38354e-09
2.63003e-09
1.45997e-09
2.21435e-09
2.25398e-09
1.17834e-09
1.97823e-09
1.1489e-09
2.2341e-09
2.72694e-09
3.06713e-09
2.42645e-09
1.49299e-09
2.29484e-09
1.84321e-09
2.5766e-09
1.92485e-09
1.75803e-09
2.21349e-09
2.06292e-09
2.12419e-09
2.52944e-09
2.67113e-09
1.99425e-13
2.91121e-13
4.55614e-13
1.98291e-13
2.78205e-13
3.21154e-13
1.82835e-13
8.08336e-13
5.56638e-13
8.43011e-13
9.72166e-14
4.18326e-13
4.87864e-10
2.00393e-13
9.71752e-13
2.22734e-13
6.35359e-13
2.53358e-14
3.95135e-13
1.5448e-12
1.2069e-12
2.7661e-13
7.03507e-13
2.65214e-13
1.88577e-12
9.82016e-13
4.58103e-13
1.23334e-12
6.68351e-13
8.42057e-13
6.17946e-13
5.79434e-13
1.86824e-13
6.55098e-13
5.80994e-13
2.21523e-12
2.05484e-12
1.41345e-12
8.1886e-13
5.08855e-13
5.8e-10
1.39026e-09
6.09735e-10
2.23402e-09
2.82287e-09
9.07017e-11
2.11174e-09
2.36902e-10
1.34269e-09
6.1652e-10
3.19022e-09
1.00364e-09
6.7414e-13
2.64442e-09
1.39463e-09
1.87995e-09
2.39794e-09
4.86122e-12
1.4825e-09
5.76529e-10
2.00053e-09
3.73224e-10
6.34591e-10
2.01423e-09
1.34278e-09
1.04746e-09
2.24389e-10
2.90423e-13
7.67812e-10
1.41539e-09
2.72569e-09
1.29076e-09
2.08094e-09
7.11841e-10
6.54565e-10
1.45774e-09
1.26279e-09
9.95575e-10
2.90117e-09
4.79826e-13
5.1568e-13
3.23472e-13
1.60726e-09
3.10193e-13
2.7258e-13
6.52279e-13
1.60938e-13
1.12836e-10
2.00003e-13
8.05424e-10
3.86376e-13
3.8383e-11
9.35324e-13
4.78869e-14
7.35096e-13
2.7676e-13
1.14108e-12
1.25809e-12
1.96303e-09
1.58983e-13
2.26756e-13
7.86132e-10
5.77961e-13
4.42142e-13
1.97256e-12
1.71948e-12
5.366e-10
1.34204e-12
1.84086e-12
5.58648e-14
1.48398e-13
2.07723e-12
3.19894e-10
2.80266e-13
1.05753e-12
2.75514e-13
8.23427e-12
3.35144e-13
2.67883e-10
4.8587e-10
9.50985e-10
7.51007e-10
2.16269e-10
1.28039e-09
1.53924e-11
2.15493e-09
6.51841e-10
1.78255e-09
1.06428e-09
3.76896e-13
9.68713e-14
1.85423e-09
8.1436e-10
2.40297e-12
2.09614e-09
8.39263e-10
7.30842e-14
6.19148e-10
5.82281e-13
1.93336e-09
1.35279e-12
4.95631e-10
9.65744e-10
1.74705e-12
1.48805e-09
6.65576e-10
1.61704e-12
1.98367e-09
1.09682e-09
4.3771e-10
1.78906e-09
5.3787e-10
7.77478e-13
9.74365e-10
9.14649e-10
1.41496e-09
3.41e-11
7.01593e-10
1.79563e-13
1.99805e-09
1.05003e-13
1.28587e-09
4.69084e-13
2.11869e-09
5.33074e-10
8.72802e-13
4.46224e-10
4.39325e-14
6.42615e-11
1.13708e-09
9.03386e-10
1.39059e-13
4.03131e-13
6.16826e-13
3.63413e-13
8.5913e-10
2.69079e-13
9.20069e-13
1.21947e-12
1.26629e-12
1.14742e-09
9.29733e-13
3.96979e-13
1.28862e-12
5.17742e-11
7.01695e-13
1.08691e-12
2.35415e-12
1.41489e-09
4.63566e-13
2.50137e-10
6.29996e-10
3.49443e-12
1.72208e-12
9.25588e-10
1.11592e-09
1.22594e-13
1.91366e-09
1.43565e-09
5.13953e-13
8.92372e-10
2.96193e-13
4.55413e-10
2.15738e-14
1.30728e-09
2.26487e-13
4.58807e-13
6.92222e-10
2.3393e-11
3.29303e-12
4.5679e-10
1.42907e-09
2.24958e-09
3.4973e-10
4.63148e-12
1.69428e-09
2.12859e-09
2.16431e-12
4.59185e-10
5.90691e-10
1.03042e-09
3.55835e-10
2.26884e-10
1.09695e-09
1.86656e-13
6.29041e-10
1.05847e-09
2.06984e-10
8.84241e-12
1.79885e-09
4.2619e-10
1.14569e-12
5.78327e-12
1.37646e-12
1.84414e-13
2.06524e-10
2.10147e-09
2.10393e-13
2.37514e-12
2.71657e-09
4.373e-10
7.39477e-10
1.34778e-09
2.45336e-13
1.11236e-10
1.80671e-09
4.02362e-10
1.49644e-12
3.45339e-10
5.46125e-11
3.50565e-12
7.59548e-10
1.42661e-13
5.56019e-10
1.02887e-09
2.75843e-13
1.03415e-12
1.20303e-10
6.99312e-10
1.573e-10
1.24018e-13
1.77112e-13
7.78771e-13
7.71328e-10
2.30585e-09
3.35039e-14
3.38072e-13
2.24183e-09
9.61097e-12
1.1501e-12
2.34736e-09
1.67567e-11
7.6943e-10
1.41963e-09
1.61106e-09
8.80225e-13
2.28032e-13
2.09741e-09
1.14897e-12
8.16757e-13
1.26401e-12
1.80519e-10
4.66355e-13
4.79138e-09
1.09183e-11
1.32309e-13
1.62498e-09
1.35944e-09
1.86666e-12
2.15054e-09
9.42698e-13
2.85873e-11
4.15499e-10
5.43118e-13
3.46161e-10
1.00992e-09
1.48471e-09
1.30837e-09
1.27239e-09
9.45681e-13
1.9346e-10
1.71199e-10
6.86018e-13
3.90295e-13
1.05034e-09
1.17547e-09
6.08648e-11
3.40855e-13
1.89341e-09
1.08659e-12
9.42491e-13
7.07654e-12
8.41762e-10
7.20374e-13
3.87917e-10
1.89462e-09
3.3392e-12
3.33399e-14
7.19979e-10
1.14544e-12
6.65529e-10
1.38096e-10
3.23525e-11
3.47457e-14
1.04802e-09
2.46523e-12
8.16988e-13
3.22837e-10
3.04273e-10
1.6571e-13
2.30603e-09
1.74892e-10
6.2419e-10
1.36689e-12
6.1784e-10
3.89192e-14
3.46481e-13
4.77149e-13
8.84764e-10
1.4434e-09
2.90831e-13
4.94062e-10
2.70633e-12
2.50293e-10
1.17269e-12
9.16268e-14
1.65481e-12
2.01139e-09
1.74442e-12
7.47498e-10
2.03462e-09
7.21043e-14
9.06611e-13
1.77008e-09
1.74233e-12
5.92596e-10
1.25497e-09
2.2945e-12
4.75048e-12
1.90298e-09
1.78513e-09
1.04664e-09
9.69092e-10
1.91625e-13
1.04942e-09
9.23153e-13
2.46204e-09
4.69819e-12
9.08652e-10
1.69942e-09
7.03268e-14
4.17838e-12
2.18064e-12
4.00177e-10
2.72885e-13
9.91804e-11
1.65307e-09
2.29449e-09
8.09663e-13
1.0313e-09
2.17907e-09
1.52204e-09
4.17261e-12
8.74673e-10
9.71704e-10
5.27409e-10
6.46648e-10
2.63318e-13
2.46532e-09
4.50805e-10
1.40861e-11
2.40691e-09
9.52128e-10
1.62183e-12
1.07142e-09
2.53891e-12
1.97725e-12
1.90014e-09
3.01237e-12
4.90216e-11
8.55904e-13
5.60532e-13
5.08662e-10
1.2384e-09
1.18978e-09
2.07936e-09
1.16974e-13
5.5716e-10
1.17657e-13
2.21478e-13
3.5878e-11
1.45136e-09
4.96387e-13
8.11125e-13
5.14618e-10
1.9055e-10
2.94885e-13
1.06776e-12
5.30602e-10
1.54715e-12
9.91658e-14
5.70317e-13
2.09235e-09
3.28682e-14
8.11496e-12
7.51803e-13
9.56479e-14
2.20163e-09
4.82814e-13
2.82726e-12
1.75499e-12
2.83279e-14
2.58228e-13
8.46959e-13
8.58296e-11
1.59973e-09
5.41301e-12
7.99417e-14
4.84048e-13
1.75329e-12
1.43365e-09
1.37396e-09
5.98647e-10
1.67183e-13
3.9383e-13
1.86273e-13
8.353e-10
1.06613e-09
2.31195e-12
1.6568e-09
8.43816e-10
1.8867e-09
2.53003e-09
4.32028e-10
3.33324e-13
5.77348e-13
1.64643e-09
1.09883e-13
4.90055e-13
1.36927e-13
1.88104e-09
6.76667e-10
1.57442e-12
2.17917e-13
1.73222e-09
4.00706e-12
1.51582e-13
1.60658e-13
7.61499e-10
2.3194e-09
3.74837e-09
1.85332e-09
2.35813e-11
8.52389e-10
3.51056e-12
1.38738e-09
8.81797e-10
5.83562e-10
1.88811e-09
5.58319e-10
2.71848e-13
2.95532e-12
1.26789e-09
8.14152e-11
1.79942e-09
1.60941e-09
1.41807e-12
1.30713e-09
2.41971e-09
6.58332e-13
1.64403e-12
1.60291e-13
4.5437e-10
7.86773e-13
1.74192e-09
1.42539e-09
5.94789e-13
3.17365e-10
5.40999e-13
1.30503e-09
4.82427e-13
6.11016e-14
1.25024e-09
1.28259e-09
7.25599e-10
2.19153e-10
2.51576e-10
9.84002e-11
2.89817e-13
2.07038e-13
2.12022e-13
1.19362e-12
1.77747e-09
3.31792e-13
1.39252e-09
4.64725e-13
8.53978e-13
5.72024e-12
1.26657e-09
1.31381e-09
7.83498e-10
7.30056e-13
1.02679e-09
7.40898e-10
3.33052e-13
5.86065e-14
6.36199e-12
5.2093e-13
1.25135e-13
7.87551e-10
5.7043e-13
2.29878e-13
6.00581e-13
1.86752e-12
6.72882e-13
1.2685e-13
1.76441e-09
8.14417e-10
4.77613e-13
2.43832e-13
1.02957e-09
4.54096e-10
2.25878e-12
6.31211e-11
1.57278e-12
1.69773e-13
1.6184e-13
1.03356e-09
1.62161e-09
1.08627e-09
1.64106e-09
8.03802e-10
6.31744e-13
1.65589e-09
2.23284e-11
1.80668e-09
5.86322e-10
6.02066e-13
9.48534e-14
5.20886e-13
6.77788e-12
1.54427e-10
1.05766e-09
7.65663e-10
3.97766e-10
6.68309e-10
5.08855e-13
2.49897e-09
7.30669e-10
5.89695e-13
4.70446e-13
5.54163e-10
9.68131e-10
3.16142e-09
8.96385e-10
2.94423e-12
1.95684e-13
6.04842e-10
5.01392e-13
1.72692e-13
7.12453e-12
1.38151e-09
2.10453e-13
3.84787e-13
1.71301e-09
1.37681e-09
3.10958e-11
3.87203e-13
1.68511e-13
2.94747e-09
5.03526e-13
3.57553e-12
1.08981e-09
1.0747e-09
5.76323e-12
4.69081e-13
1.88996e-12
1.54879e-09
6.1207e-12
2.03737e-09
8.08363e-14
6.5306e-13
2.86316e-10
4.05555e-10
1.08659e-10
5.35416e-11
7.58108e-10
4.20728e-10
8.40418e-10
1.14821e-09
1.01505e-09
1.08589e-10
6.21212e-13
5.89932e-14
1.18296e-09
4.10065e-10
5.44505e-11
6.18809e-13
6.97594e-13
1.19968e-09
1.20151e-11
3.3036e-13
2.14008e-09
1.54931e-09
6.2305e-13
2.71164e-13
7.64618e-13
9.0233e-10
2.1239e-13
1.27276e-13
1.73155e-09
5.85945e-13
2.6517e-13
5.75075e-13
1.7066e-09
1.44945e-09
2.46373e-13
3.19656e-11
1.69192e-10
1.42025e-10
1.53794e-09
2.91539e-13
1.74083e-11
1.93264e-11
9.99337e-13
1.0144e-09
2.73153e-13
2.29755e-13
7.64074e-10
8.50861e-10
1.02546e-09
2.23398e-13
3.68781e-10
1.3855e-09
2.80887e-13
6.47632e-11
1.21624e-10
7.29129e-13
2.19034e-13
1.21557e-09
1.36393e-09
5.74119e-13
1.73589e-13
1.57673e-13
4.51672e-10
1.1684e-09
3.54896e-12
1.55203e-09
8.93283e-10
7.23559e-10
2.35289e-10
1.5432e-09
3.52927e-11
4.14092e-13
2.21846e-09
1.23902e-13
6.54024e-10
2.3979e-13
2.14688e-09
1.50343e-09
7.83227e-13
1.67075e-09
1.57277e-09
1.57855e-10
6.21244e-13
2.20123e-13
3.14434e-10
4.63424e-10
5.12907e-10
4.02681e-13
3.49818e-10
1.51897e-09
6.89948e-13
2.25016e-13
1.72803e-09
3.54403e-10
3.88377e-13
6.55789e-10
4.48211e-10
2.44913e-13
6.28402e-10
6.7119e-10
1.70235e-09
1.16326e-12
8.88193e-13
2.57534e-13
3.27479e-10
1.19504e-12
6.57775e-13
4.92805e-10
5.02896e-12
4.13569e-13
1.15118e-09
1.50205e-09
7.28014e-14
1.78275e-09
4.32466e-10
4.22816e-13
8.29848e-13
1.63132e-13
5.52484e-11
1.50342e-13
3.52061e-13
1.18615e-09
1.12863e-13
1.01137e-13
3.23802e-10
5.00315e-14
1.24533e-14
2.05979e-10
5.74819e-10
1.15689e-13
1.07373e-09
4.14205e-10
2.61159e-13
5.22846e-10
1.54321e-09
3.91311e-12
2.24226e-13
1.25902e-13
3.35221e-10
1.08928e-13
1.75485e-09
1.85159e-10
1.23877e-12
1.13794e-09
1.2053e-13
6.05371e-10
8.94005e-10
6.68281e-10
1.02202e-09
5.64273e-10
2.85081e-13
2.02806e-13
1.28977e-09
1.86377e-13
5.51696e-10
9.94891e-10
9.83658e-10
1.66004e-09
7.11819e-10
1.53055e-09
1.98507e-11
1.0368e-11
7.31505e-13
1.52308e-13
2.8796e-13
8.174e-10
6.93212e-10
1.53378e-09
1.48403e-13
3.48932e-10
1.76492e-13
3.68182e-10
6.2064e-11
6.58337e-10
3.21539e-13
4.59127e-10
9.55529e-10
3.58999e-13
9.00365e-10
8.87101e-10
2.09761e-13
7.03128e-13
7.12593e-14
8.09611e-14
7.68587e-10
6.67079e-10
2.85641e-13
7.57141e-13
1.3062e-13
1.27771e-09
8.47829e-10
1.18401e-09
1.88922e-12
1.4531e-09
9.30948e-14
3.53173e-10
6.93091e-14
4.50644e-13
7.86021e-13
2.14312e-10
3.35201e-13
6.4542e-10
3.4465e-10
2.90005e-10
2.68964e-13
7.22053e-14
5.3604e-10
1.78586e-13
2.43435e-10
4.60422e-10
8.65602e-10
2.53863e-13
8.71078e-13
4.35498e-10
2.85976e-13
4.4315e-11
9.16909e-14
3.9994e-10
6.35277e-10
9.23734e-13
7.92072e-10
2.51639e-13
5.46514e-10
2.82962e-10
4.06132e-14
5.1028e-10
5.05885e-13
9.35359e-10
3.42236e-13
1.36744e-11
1.73073e-14
1.78695e-10
3.18354e-13
2.55459e-10
6.30482e-10
3.91651e-10
2.27255e-13
2.73949e-13
3.73286e-10
1.20979e-09
2.25553e-10
5.40616e-14
6.33838e-12
1.15885e-13
6.91992e-13
9.70661e-13
3.83794e-13
7.00228e-11
1.12776e-10
1.25467e-13
4.37793e-10
1.02594e-09
1.14218e-09
2.29684e-13
2.70143e-14
5.53412e-10
2.60009e-11
3.13305e-13
6.98877e-10
1.55867e-13
1.46797e-13
9.93795e-10
8.7737e-14
1.85903e-12
6.53252e-10
5.64288e-10
7.1068e-10
6.48879e-13
2.61119e-12
4.09377e-10
7.12206e-10
3.79384e-14
2.27346e-13
6.14825e-10
8.34e-10
1.47208e-11
6.06954e-10
2.97874e-13
3.44501e-13
2.80678e-13
2.45756e-10
1.81004e-13
3.7271e-13
8.82778e-10
2.32008e-13
2.44977e-10
4.81017e-10
8.18786e-10
5.63663e-13
2.57309e-13
9.15269e-10
2.49963e-13
3.61224e-13
5.76799e-10
1.47598e-10
3.22916e-13
6.29363e-13
5.13276e-10
2.0625e-10
1.72161e-12
2.20764e-12
1.53922e-13
2.15494e-13
4.56822e-10
9.09501e-13
1.95737e-13
7.75235e-10
1.11221e-13
1.03413e-13
7.38578e-10
1.19154e-09
8.12953e-10
3.88173e-13
4.70386e-10
9.43955e-14
1.51209e-13
4.99544e-10
7.6643e-14
1.41931e-09
5.13848e-10
1.27041e-13
8.25457e-13
3.88139e-10
1.8317e-13
5.67973e-10
1.87773e-10
1.60773e-10
1.63114e-13
3.84002e-10
8.12952e-10
4.10674e-10
1.17099e-09
6.64572e-10
4.08881e-13
3.31366e-13
4.88853e-10
1.68248e-10
5.90375e-10
6.89594e-10
2.71834e-13
1.83948e-10
1.26963e-10
2.70503e-13
3.66124e-11
2.5377e-10
9.716e-11
3.59648e-13
2.25245e-10
7.57972e-13
8.16131e-14
1.72676e-12
4.37349e-10
2.1982e-13
8.19339e-10
3.24881e-10
1.81645e-13
2.48583e-10
6.74915e-13
1.67604e-13
6.95575e-10
3.61767e-10
4.22607e-13
7.39662e-10
3.31252e-11
6.84807e-11
1.13512e-09
5.31083e-14
1.13461e-10
6.75979e-13
2.13014e-13
6.42538e-10
3.18957e-13
3.71172e-10
4.84936e-10
2.3308e-13
9.80369e-11
1.52637e-13
5.47643e-13
2.88996e-10
1.72307e-11
7.36719e-13
5.59952e-10
2.15073e-11
3.12488e-13
4.16267e-10
3.22935e-10
5.66005e-10
1.05299e-10
2.18894e-10
1.02049e-12
3.2866e-13
1.026e-09
8.35852e-13
1.89338e-10
4.63238e-10
7.66348e-13
4.67056e-13
2.787e-13
1.40686e-13
4.01268e-13
3.50164e-10
4.4135e-11
3.14775e-10
3.01538e-10
2.15424e-13
2.04315e-10
4.00752e-13
1.09928e-09
6.25412e-11
3.09727e-13
2.35076e-10
7.0571e-10
1.12477e-12
3.87705e-10
1.01907e-09
9.01952e-14
2.15629e-10
8.08479e-13
2.62142e-13
9.60077e-13
2.564e-10
4.91346e-13
1.53102e-10
8.20542e-14
2.49028e-13
1.45036e-10
1.00337e-10
5.96379e-12
1.574e-10
5.52465e-10
1.78501e-13
5.28869e-10
1.75506e-13
4.91207e-13
2.47429e-10
5.59875e-10
9.8627e-11
2.64174e-13
4.77884e-10
6.24329e-10
1.61506e-11
1.35438e-11
1.5468e-11
7.88654e-11
3.2566e-10
3.26581e-11
4.138e-10
2.23184e-12
7.78837e-10
4.27656e-10
4.66139e-10
4.30993e-12
2.71795e-10
6.92069e-11
9.97616e-11
1.96889e-11
2.30744e-11
1.07462e-10
1.07385e-10
2.3539e-10
7.81255e-11
4.27295e-10
3.11268e-11
1.52774e-10
2.17239e-10
2.93437e-10
3.09041e-10
4.91805e-11
8.17141e-11
4.03699e-13
1.5725e-10
3.12596e-10
2.1693e-13
4.88484e-11
6.98175e-11
4.10852e-12
5.75661e-13
2.45328e-10
1.84172e-13
2.28702e-13
1.28191e-13
2.00432e-13
2.04673e-13
1.44501e-13
4.91773e-13
3.14509e-12
2.25026e-13
1.48151e-13
1.12008e-13
1.88897e-13
3.37195e-10
1.08731e-13
1.82511e-13
2.59923e-10
1.09057e-13
2.15716e-13
9.1366e-13
1.70891e-13
8.49221e-12
2.46209e-13
2.36083e-13
2.73557e-13
1.27572e-13
2.0678e-13
6.33429e-13
2.00546e-13
2.00682e-13
1.36901e-13
5.61287e-13
2.2064e-13
2.38902e-13
1.16278e-13
4.23422e-13
5.43052e-13
4.3183e-13
2.26438e-13
2.72923e-13
1.32623e-12
4.7012e-10
3.4493e-10
2.63871e-10
8.08002e-11
3.3876e-10
2.29371e-10
4.02701e-10
1.48054e-10
5.44339e-10
5.85406e-10
9.02832e-11
5.0185e-10
3.10735e-10
4.746e-10
3.55329e-10
3.2033e-10
4.40464e-10
8.60494e-11
2.93824e-10
2.89095e-10
1.75511e-10
4.19785e-10
2.81819e-10
4.42735e-10
4.67099e-10
2.70286e-10
1.30745e-10
1.9873e-10
3.89178e-10
9.74518e-11
2.16491e-10
3.21023e-10
4.71553e-10
3.21579e-10
1.73823e-10
3.38173e-10
4.37367e-10
3.48791e-10
2.184e-10
3.33816e-10
1.23021e-09
1.68121e-09
1.97394e-09
1.57461e-09
1.8545e-09
1.82871e-09
1.09571e-09
1.84059e-09
1.01745e-09
1.5715e-09
1.95103e-09
1.89177e-09
9.54844e-10
2.0719e-09
1.53396e-09
1.56456e-09
1.92588e-09
8.75569e-10
1.93118e-09
1.88889e-09
6.19121e-10
9.29134e-10
1.71161e-09
1.03005e-09
1.30004e-09
1.8967e-09
1.66883e-09
1.19193e-09
1.9542e-09
1.10319e-09
1.57005e-09
1.56345e-09
1.86423e-09
1.43248e-09
1.21302e-09
1.14513e-09
1.42143e-09
1.98457e-09
1.44821e-10
1.16562e-09
1.41648e-13
2.57288e-13
8.10465e-13
1.0967e-12
3.56391e-13
5.69649e-13
2.15777e-14
9.51799e-14
3.42356e-13
3.29111e-13
4.03509e-13
1.90883e-12
7.91766e-13
1.8218e-14
4.33881e-13
4.12988e-13
4.09162e-13
1.24077e-13
1.29135e-13
8.87008e-13
4.9631e-14
2.67232e-14
9.86722e-14
3.19769e-13
3.37342e-13
1.85558e-13
3.43887e-13
6.59829e-14
1.17831e-13
1.01208e-13
2.17464e-13
3.20258e-13
6.81157e-13
1.66316e-13
3.87244e-14
3.87744e-14
2.87583e-13
7.98982e-14
4.61297e-14
1.29227e-13
2.6655e-09
2.53014e-09
1.99664e-09
1.62312e-09
2.10629e-09
2.46673e-09
1.59883e-09
1.81567e-09
9.75022e-10
3.44728e-09
3.56028e-09
1.22071e-09
2.59617e-09
3.79283e-09
2.72323e-09
2.36906e-09
2.18719e-09
2.55216e-09
2.17728e-09
1.73028e-09
9.4134e-10
1.68334e-09
2.31264e-09
1.46761e-09
2.90488e-09
2.52679e-09
1.63741e-09
1.00917e-09
3.26895e-09
1.92562e-09
2.43233e-09
2.06111e-09
1.65908e-09
3.05935e-09
2.87137e-09
2.0351e-09
2.83494e-09
3.15024e-09
9.53538e-10
2.48976e-09
6.09097e-13
3.96348e-13
1.64841e-12
2.4163e-13
1.15206e-13
2.54783e-13
1.59758e-12
1.93163e-13
2.53831e-12
7.65596e-14
1.58351e-13
1.42246e-10
2.23282e-12
2.03852e-13
1.20786e-12
2.9265e-13
1.36415e-13
9.94686e-14
8.70952e-14
1.59275e-13
2.60602e-13
3.93875e-13
1.35089e-12
2.93135e-12
1.30525e-12
5.21366e-13
1.04264e-12
5.10564e-14
2.27712e-13
2.97033e-13
5.76554e-13
7.27462e-13
3.52819e-11
2.47068e-13
1.55263e-13
1.60723e-13
6.40729e-14
7.69576e-13
1.57677e-13
1.90118e-13
1.55926e-09
1.47253e-09
7.39779e-10
1.32412e-09
1.06641e-09
2.232e-09
6.74325e-10
2.2614e-10
7.35281e-10
4.10939e-10
1.668e-09
1.64206e-09
5.67361e-10
1.1883e-11
1.24295e-09
4.61226e-13
2.40895e-09
2.91769e-09
1.28824e-09
1.29239e-09
1.45091e-09
2.80654e-09
8.37142e-10
1.3044e-09
2.37775e-09
2.82717e-09
1.82149e-12
1.78997e-09
1.92225e-09
9.78525e-10
1.62473e-09
1.10834e-09
1.44544e-09
1.24471e-09
1.00411e-09
1.28641e-09
1.10318e-09
6.81595e-10
2.78584e-09
1.93199e-12
3.76721e-13
9.36222e-10
2.45033e-13
3.57523e-13
3.96645e-13
9.46364e-11
8.80395e-13
9.03382e-13
9.91339e-13
7.2833e-13
1.3089e-12
2.91567e-13
7.49874e-13
1.79838e-09
2.41515e-10
2.37378e-10
2.97167e-13
5.46901e-13
2.12321e-13
1.63746e-12
1.59561e-12
8.52986e-13
1.38436e-09
1.68835e-12
3.68097e-13
1.11515e-12
5.17967e-13
1.32903e-12
1.12537e-09
4.94532e-13
2.876e-13
1.2475e-12
4.60837e-13
1.63382e-12
1.77788e-12
2.8325e-12
2.42891e-13
6.5667e-12
7.68931e-13
9.67185e-13
3.72894e-09
4.52845e-13
2.60662e-09
1.45387e-09
3.18396e-12
4.24298e-12
1.15935e-09
1.21619e-09
2.06704e-09
1.32212e-10
1.31459e-09
2.61924e-09
8.07346e-10
8.17962e-10
1.21051e-12
1.47163e-09
6.12272e-12
3.14147e-12
2.19961e-09
8.59916e-12
5.53712e-13
9.02971e-13
2.83204e-11
1.92694e-09
4.67066e-10
8.29689e-11
7.55835e-10
1.0859e-09
3.388e-13
2.2209e-09
2.53521e-13
2.93498e-12
1.9112e-09
2.49366e-10
1.09144e-12
1.21406e-12
2.11149e-09
1.64722e-09
7.00419e-12
1.24271e-09
4.94871e-13
5.90112e-13
3.90563e-13
7.52617e-13
1.10638e-09
1.16218e-11
5.76136e-13
8.7044e-13
6.08188e-13
2.35241e-12
3.07077e-12
3.95333e-13
3.09427e-10
3.93617e-13
1.88866e-13
3.21097e-13
5.54609e-12
7.55158e-10
2.38305e-12
1.29041e-09
2.52718e-12
1.49869e-12
2.51017e-12
3.89845e-14
9.16116e-10
9.16219e-10
4.96622e-13
1.86861e-12
2.43843e-12
9.97445e-13
1.12796e-09
5.34109e-13
1.11165e-09
2.5699e-12
1.04689e-10
9.3923e-10
1.12731e-12
2.46807e-13
1.68193e-13
2.00803e-12
5.08487e-13
5.381e-10
4.13121e-12
3.06273e-13
6.37176e-10
1.76149e-09
1.12737e-12
8.71791e-10
6.82548e-13
9.83324e-14
1.07127e-09
9.19913e-10
3.53267e-10
4.12867e-09
2.05046e-09
2.14175e-09
4.67997e-10
7.93279e-12
1.03952e-09
9.37959e-10
8.79393e-10
1.64658e-09
1.07935e-09
2.55452e-11
2.15314e-12
6.24438e-10
8.41923e-10
2.20674e-10
1.59031e-09
4.15397e-12
9.3333e-13
7.70836e-10
1.01177e-12
1.1231e-09
2.49987e-10
6.71323e-13
4.54715e-12
1.25438e-11
1.56256e-09
2.50081e-12
1.18793e-09
2.87997e-10
1.57983e-09
7.78472e-10
1.19413e-12
6.14466e-10
1.86394e-09
5.01777e-13
1.23822e-09
5.74173e-10
9.16926e-11
1.41249e-12
1.30733e-12
1.30031e-13
1.01563e-13
3.09331e-10
3.96979e-12
1.3417e-09
1.59073e-09
3.65653e-13
2.78487e-13
2.25138e-10
5.50841e-12
7.89533e-13
6.55737e-13
6.58735e-13
7.52438e-13
2.40039e-10
7.29062e-13
1.41263e-09
4.38562e-13
3.94116e-10
1.35524e-13
2.20956e-12
1.9154e-13
8.1947e-13
2.0502e-09
3.81463e-11
1.25915e-12
3.0285e-09
1.82768e-09
1.06886e-12
3.07693e-13
1.00425e-09
9.30839e-13
6.97451e-13
2.47275e-10
2.23865e-10
4.50028e-13
4.24529e-13
4.57337e-13
1.80874e-09
6.17472e-10
1.61606e-13
8.51948e-10
5.09213e-13
9.90281e-10
3.3587e-12
2.1272e-13
3.72283e-09
1.04762e-09
3.85388e-13
8.65712e-10
8.79404e-11
1.92294e-09
2.76507e-09
1.7079e-10
4.1844e-13
6.73049e-10
8.55592e-12
8.49977e-12
2.34409e-12
2.49995e-09
4.46232e-12
9.33453e-10
9.89529e-10
5.22272e-13
2.13219e-10
2.72543e-13
4.35177e-13
6.32409e-13
9.29547e-12
2.3288e-09
3.14638e-13
1.24185e-09
2.44991e-09
2.39447e-13
2.29359e-12
1.07258e-12
1.79561e-09
1.88664e-09
1.31803e-12
1.57023e-09
1.50502e-09
4.02507e-12
3.02826e-09
6.99036e-13
3.09859e-11
8.03775e-10
1.05691e-13
5.42796e-10
1.42196e-12
4.58805e-10
8.67675e-13
3.08105e-13
1.33617e-12
9.82316e-10
2.28632e-10
7.81442e-13
2.32403e-12
7.14735e-13
2.61879e-13
1.32285e-09
3.83078e-11
6.37334e-13
1.23151e-11
1.06691e-09
1.1551e-09
1.25889e-09
4.95182e-10
1.66512e-12
9.08106e-13
8.46478e-13
9.20552e-12
1.07672e-13
1.35581e-13
1.06835e-09
6.55023e-13
7.9487e-10
1.00118e-12
3.45401e-13
5.33151e-10
6.74653e-13
1.28806e-09
1.31353e-12
2.63166e-12
1.65466e-09
7.85149e-13
1.16041e-09
1.03051e-12
1.54574e-12
1.78255e-09
1.6111e-09
2.18847e-09
2.24819e-12
1.88039e-09
1.25208e-12
1.52429e-09
2.58739e-12
3.634e-10
8.26712e-10
2.36812e-10
8.23345e-13
3.81855e-12
3.49485e-11
4.41617e-12
1.8144e-13
4.41286e-13
2.22741e-13
1.12443e-09
8.07232e-10
1.69011e-10
9.47893e-13
5.79207e-12
1.87416e-09
8.3385e-10
1.75078e-09
2.25355e-10
1.46357e-12
1.06264e-09
1.2688e-12
1.08794e-09
9.79763e-13
3.83342e-13
1.39541e-09
1.63841e-10
5.68382e-14
6.16821e-12
9.47488e-10
2.89056e-09
7.32644e-13
1.88468e-13
4.13762e-13
1.23228e-09
2.50226e-09
3.82938e-12
1.73166e-09
1.92783e-13
4.41414e-10
9.45653e-13
5.71504e-13
1.96443e-09
1.39259e-09
1.17722e-12
1.09189e-12
6.71216e-10
7.72508e-10
1.7138e-09
2.29593e-12
4.91893e-10
2.76781e-13
4.09601e-13
1.30294e-09
3.23109e-09
1.10096e-09
1.64084e-10
1.7258e-12
4.77009e-13
2.5192e-11
3.13286e-10
1.3644e-09
8.72116e-14
1.34375e-09
7.15291e-10
1.78712e-13
1.52485e-09
2.55974e-13
1.15126e-13
1.75667e-13
5.43192e-13
1.53918e-09
1.17869e-09
2.39908e-12
2.86021e-13
5.59005e-14
1.46721e-12
1.0919e-09
6.81137e-10
1.06609e-09
2.46099e-13
5.67176e-13
3.74376e-13
7.04888e-13
3.23929e-10
1.33174e-09
1.95879e-11
1.23958e-12
9.11025e-13
4.08796e-13
4.07536e-12
5.57288e-13
1.73639e-13
6.70946e-14
1.60428e-13
1.17964e-12
8.32461e-13
5.06365e-10
6.24662e-12
2.30221e-12
4.38196e-12
1.37967e-12
3.56219e-10
1.0235e-13
5.35785e-13
4.57268e-12
1.44632e-12
1.37459e-11
4.91762e-12
2.45824e-09
5.89954e-13
1.70968e-13
1.71524e-09
5.06207e-10
1.68354e-09
1.41156e-09
7.74368e-10
4.17916e-13
1.80507e-12
2.84324e-13
1.55863e-09
8.58962e-13
1.35223e-12
7.63616e-10
5.43517e-13
2.02659e-13
8.35623e-13
1.04193e-09
8.12711e-10
1.03725e-09
6.18241e-10
2.94452e-12
1.13099e-12
1.79324e-09
9.89135e-10
1.0416e-09
2.22384e-09
2.57063e-10
1.17419e-13
2.23712e-13
2.13472e-09
7.27506e-10
2.55063e-10
1.02906e-09
1.71529e-13
2.23313e-10
6.99098e-13
1.45867e-09
1.47329e-13
8.38644e-14
5.79339e-10
7.02058e-12
1.58076e-13
1.53157e-12
4.98969e-13
1.83601e-12
2.3571e-09
9.84379e-10
2.45223e-09
9.76978e-10
2.13997e-13
5.83965e-10
9.80586e-10
4.14898e-13
2.89551e-13
3.32218e-12
9.20088e-10
3.59301e-13
1.30069e-13
1.22637e-12
8.04702e-14
3.15479e-10
2.3466e-12
6.15552e-14
2.45824e-13
6.14898e-13
1.64566e-09
8.80677e-10
8.92753e-10
2.01683e-10
4.87063e-14
6.48626e-12
9.24575e-10
1.53217e-09
6.04574e-13
4.35285e-13
8.77513e-12
3.01827e-10
2.61757e-10
1.76444e-09
9.16686e-10
1.67868e-09
4.17225e-12
1.28389e-09
7.89604e-13
2.45949e-12
3.90309e-13
2.98096e-13
2.07128e-10
1.65505e-09
1.41839e-13
8.81978e-14
2.46443e-12
1.59351e-09
4.15269e-10
2.95417e-13
1.97302e-13
1.97892e-09
7.79802e-10
7.24192e-10
5.57196e-10
2.65916e-10
1.89657e-12
4.7065e-10
1.77879e-09
3.35357e-13
2.05052e-13
8.8811e-11
1.15327e-13
1.69958e-13
1.48366e-09
4.03669e-13
3.68174e-10
1.38927e-13
4.85213e-13
5.43146e-10
2.49496e-13
3.63609e-13
6.03266e-13
6.67848e-10
7.68041e-14
2.26756e-13
1.54034e-09
1.95569e-13
6.34431e-13
3.47215e-10
1.10918e-09
1.7795e-09
2.63801e-13
1.69164e-13
6.99066e-13
3.04359e-11
1.25783e-09
1.56956e-11
4.24103e-10
4.24617e-11
2.34497e-10
4.84749e-10
2.16111e-13
4.09168e-13
3.22515e-13
2.62231e-10
2.13856e-10
1.97382e-13
6.29608e-13
1.18223e-09
5.9149e-10
1.20218e-09
1.59175e-10
4.10772e-13
2.88648e-13
6.49485e-10
1.85629e-12
5.67784e-10
9.23055e-13
4.00765e-10
6.94402e-10
7.78875e-11
5.86677e-11
1.2814e-09
1.83542e-10
9.22034e-13
3.05139e-13
2.70518e-13
9.808e-14
1.77368e-09
1.08235e-13
5.38458e-14
2.79337e-09
2.96306e-10
1.55017e-10
5.26339e-13
2.73505e-13
1.31399e-09
1.32848e-12
5.11271e-14
1.5489e-13
9.71578e-13
1.7582e-10
3.36656e-13
7.93736e-13
8.82123e-13
5.68079e-13
4.71677e-13
1.80219e-13
2.93474e-12
1.6704e-10
5.09329e-14
4.76044e-10
3.17888e-13
3.55303e-13
9.85702e-14
2.04208e-13
3.98294e-12
2.69754e-13
9.75611e-14
1.26102e-13
8.71941e-13
5.66223e-13
6.24704e-10
2.19331e-10
1.1238e-09
5.4493e-10
8.95838e-10
1.72745e-09
1.75371e-13
3.98015e-10
2.80497e-13
2.4232e-13
3.27995e-13
1.65515e-13
5.88962e-13
6.20207e-10
5.75219e-13
1.86347e-09
1.23295e-11
3.31367e-10
8.35242e-14
2.93502e-13
1.83026e-13
7.00641e-11
6.64942e-13
2.23878e-13
7.34578e-13
1.81361e-11
1.04653e-09
1.05468e-09
2.91633e-13
9.23085e-10
1.01393e-10
9.2634e-10
2.10627e-10
3.84937e-13
7.64993e-10
6.42136e-10
1.25332e-12
3.93808e-12
8.24479e-10
2.40227e-13
6.93423e-10
3.40855e-13
9.28677e-14
5.80354e-13
8.28488e-14
1.42016e-13
1.82528e-09
2.14632e-13
4.37923e-13
3.13798e-10
3.66741e-13
5.46314e-10
7.59966e-14
1.32804e-10
1.25723e-09
2.15825e-13
4.06547e-13
4.95284e-11
6.52073e-11
3.15513e-13
7.36968e-13
7.92406e-13
6.95692e-11
3.50669e-13
1.40724e-13
3.12331e-14
4.29095e-10
5.38138e-13
5.68053e-10
6.15788e-14
2.01943e-13
2.83051e-14
9.94999e-10
1.44583e-10
1.98908e-13
2.00498e-13
5.72767e-13
4.74437e-10
2.11715e-13
1.27024e-13
1.00225e-09
2.4064e-10
4.84034e-10
3.19832e-10
1.83555e-09
1.10899e-13
3.36763e-10
7.59701e-14
1.15644e-13
1.19224e-13
3.09145e-13
1.28676e-12
7.53342e-13
1.14405e-13
3.38341e-14
1.03319e-11
7.97044e-13
2.10273e-13
4.11656e-13
7.45409e-13
2.08235e-12
1.87777e-13
2.56852e-13
7.77966e-14
5.62405e-14
1.93016e-13
3.56219e-10
8.20748e-13
6.54418e-10
2.94521e-10
1.03744e-13
1.12012e-09
1.63683e-12
2.49045e-13
8.42782e-14
6.95994e-10
1.00196e-13
2.62831e-13
1.43661e-09
2.94625e-13
2.75022e-10
1.00931e-12
5.5556e-14
2.64904e-14
2.37781e-13
4.60734e-12
1.18149e-09
7.17656e-10
1.2198e-13
2.32273e-10
3.99827e-12
2.14943e-12
3.21983e-11
1.16129e-09
4.67718e-13
8.60183e-10
3.73946e-13
9.52531e-14
9.29882e-13
5.36128e-14
8.65842e-10
1.55816e-10
1.2215e-13
6.98862e-14
2.63991e-13
6.16475e-10
2.57752e-14
6.63101e-10
3.20256e-13
6.15951e-10
1.99142e-10
1.38663e-13
1.37447e-10
7.43023e-10
6.77631e-14
4.30198e-13
1.5461e-13
2.16617e-10
2.70258e-13
2.12811e-13
4.20151e-12
3.28827e-13
2.30216e-13
6.21793e-10
1.43995e-09
7.47894e-14
2.45377e-14
1.27343e-12
2.66489e-13
8.83741e-14
1.07099e-13
2.99804e-13
9.57233e-10
3.7038e-14
1.43855e-13
5.44536e-13
5.85541e-10
2.46945e-10
3.2039e-13
2.72374e-13
1.45457e-13
2.27927e-13
2.30757e-13
3.4844e-13
1.5215e-13
2.20999e-13
2.00208e-13
3.7929e-10
2.64384e-10
4.01712e-12
4.0919e-13
5.75216e-14
2.3519e-13
3.92726e-13
1.24373e-10
3.68708e-14
3.38778e-10
1.23065e-12
2.02281e-10
1.3035e-10
1.50764e-10
1.30732e-13
8.28876e-11
1.38076e-13
2.43209e-13
1.4682e-10
6.63323e-10
8.15391e-14
8.6578e-14
2.50674e-13
9.40437e-11
5.47872e-13
6.85259e-14
3.9472e-13
2.87498e-13
3.16691e-14
1.81848e-10
1.49079e-13
8.08249e-14
7.30583e-14
2.81339e-10
1.65052e-12
3.83705e-13
9.3569e-13
1.57935e-10
1.78879e-10
2.16176e-13
3.8178e-13
4.44034e-14
2.89456e-10
6.31928e-14
1.55167e-12
2.56087e-10
2.12336e-14
5.0395e-14
2.573e-11
2.3025e-14
1.47009e-13
3.29036e-10
1.09473e-12
4.1077e-10
3.83182e-14
1.46048e-13
1.94499e-13
6.54718e-11
1.87499e-13
3.83635e-10
7.10501e-10
5.0892e-13
1.0009e-13
2.29482e-13
5.74512e-14
7.32905e-10
8.50099e-11
1.2072e-13
2.33471e-13
5.16679e-10
2.44764e-10
3.26975e-10
1.52428e-13
3.76393e-13
2.88407e-10
1.75771e-13
1.30414e-13
5.2754e-14
7.62587e-14
4.58634e-14
1.66678e-10
5.67828e-14
6.34236e-14
3.13483e-10
2.6374e-14
2.58978e-11
1.09152e-13
6.13552e-14
9.28031e-14
1.65252e-13
1.46613e-13
9.19495e-13
7.43842e-14
7.9439e-11
2.18997e-13
1.11667e-13
2.82287e-13
1.46384e-13
9.04947e-12
1.41738e-13
4.76192e-13
9.9405e-14
9.70587e-14
7.65213e-14
8.60611e-14
1.5015e-13
1.11329e-12
6.17476e-13
1.26404e-13
1.2747e-13
1.5837e-13
1.75191e-14
8.72549e-13
3.56756e-10
2.13897e-13
4.31011e-10
3.96158e-10
9.57542e-14
7.55195e-11
3.76254e-13
3.3203e-13
5.46557e-11
2.23009e-10
8.51284e-14
1.92445e-13
2.85995e-13
3.55588e-10
1.84272e-10
6.06947e-13
1.57842e-13
9.95929e-14
1.27942e-13
1.70596e-13
4.22214e-10
6.81476e-11
1.34559e-13
3.09722e-14
4.35955e-13
7.66797e-14
8.49565e-14
2.16071e-10
2.14314e-12
4.29163e-14
1.42603e-10
4.45775e-14
6.15817e-11
2.68654e-13
8.91788e-13
7.85688e-14
2.65874e-11
7.58284e-11
1.27362e-13
3.31233e-13
3.95901e-13
7.85493e-10
2.75651e-13
9.05165e-13
3.53322e-13
2.29608e-13
3.05783e-13
4.24372e-13
6.75654e-11
1.94812e-13
6.44401e-11
2.63157e-10
2.01352e-13
1.29277e-12
8.29441e-13
1.39438e-13
1.00811e-10
5.9517e-13
6.17948e-13
1.66347e-13
4.61255e-13
9.13795e-13
5.1846e-11
8.68518e-13
3.7317e-13
2.51516e-11
2.25367e-13
6.05844e-13