/*--------------------------------*- C++ -*----------------------------------*\
  =========                 |
  \\      /  F ield         | OpenFOAM: The Open Source CFD Toolbox
   \\    /   O peration     | Website:  https://openfoam.org
    \\  /    A nd           | Version:  10
     \\/     M anipulation  |
\*---------------------------------------------------------------------------*/
FoamFile
{
    format      ascii;
    class       surfaceScalarField;
    location    "16";
    object      phi_0;
}
// * * * * * * * * * * * * * * * * * * * * * * * * * * * * * * * * * * * * * //

dimensions      [0 3 -1 0 0 0 0];

internalField   nonuniform List<scalar> 
300480
(
7.74601e-05
-1.94233e-05
2.96586e-05
5.53288e-05
-6.58436e-06
2.61637e-05
5.09329e-05
-2.1962e-06
4.08119e-05
5.0317e-05
8.27635e-06
4.9105e-05
4.42276e-05
-7.18975e-06
3.76786e-05
3.66685e-05
-1.29288e-05
4.89202e-05
3.4478e-05
3.20533e-05
2.83909e-05
4.04651e-05
4.87124e-05
-1.90203e-05
4.72106e-05
1.84888e-05
-9.4629e-06
5.60418e-05
5.43131e-06
1.05831e-07
5.67311e-05
-9.65557e-06
2.00708e-05
4.68953e-05
-6.59894e-06
4.49071e-05
4.26168e-05
1.09633e-05
3.32836e-05
3.91515e-05
1.06471e-06
4.13562e-05
3.35579e-05
4.50218e-06
4.72138e-05
2.47866e-05
1.47362e-05
4.18979e-05
2.58128e-05
-1.17659e-05
3.86123e-05
2.59776e-05
-1.87571e-05
6.18531e-05
3.30183e-05
2.63663e-05
1.49917e-05
4.16925e-05
4.37036e-05
-2.5878e-05
6.51865e-05
1.06779e-05
-3.6021e-05
8.21096e-05
-1.6061e-05
-2.26582e-05
6.05457e-05
-3.53695e-06
1.97518e-05
4.24694e-05
2.76692e-06
3.97945e-05
4.33165e-05
1.09118e-05
5.4398e-05
5.91527e-05
-8.06888e-07
1.37385e-05
5.57277e-05
-1.01636e-05
3.73355e-05
3.9155e-05
2.1327e-05
5.02468e-05
3.31596e-05
2.29514e-05
3.67757e-05
3.50692e-05
5.14958e-06
3.70869e-05
3.45449e-05
2.10653e-05
2.43714e-05
3.67373e-05
2.19538e-05
2.34341e-05
4.47083e-05
5.43479e-07
1.95165e-05
3.85937e-05
-2.81619e-05
5.5349e-05
3.18382e-05
2.93156e-05
3.75931e-05
2.75675e-05
3.96256e-05
1.90229e-05
3.9477e-05
3.42064e-05
-1.30282e-05
6.72456e-05
-3.33038e-06
-3.24401e-05
7.4855e-05
-6.02935e-06
-5.04767e-06
-2.12006e-05
2.16205e-05
0.000166065
-3.92302e-05
-2.28256e-05
0.000109482
4.46682e-06
-3.55308e-05
8.65393e-05
9.63968e-07
-8.89128e-07
9.17246e-05
8.55239e-06
1.73111e-05
7.98118e-05
-5.39595e-06
-6.13307e-06
5.84017e-05
-2.82741e-05
1.21915e-05
6.42233e-05
6.34718e-05
-1.07598e-05
9.52468e-05
9.30374e-05
-9.36716e-05
0.000135347
2.51354e-05
-9.54372e-05
0.000151569
8.21188e-07
-8.5915e-05
0.000132292
-1.86394e-05
-3.80454e-05
0.000107189
-4.58039e-06
-1.03541e-05
6.5858e-05
7.18231e-05
-1.01821e-05
4.80943e-05
-1.06415e-05
3.10515e-05
5.40816e-05
-2.54091e-06
7.50166e-06
4.28758e-05
4.23809e-05
-1.03351e-05
4.98522e-05
-3.11127e-05
-1.70447e-05
5.49383e-05
-5.45791e-05
3.31277e-05
8.24687e-05
4.54966e-05
-3.56671e-05
0.000115123
9.70439e-05
-0.000128926
0.000184152
-9.89649e-07
-0.000143691
0.000224356
-6.43541e-05
-0.000139324
0.000157588
8.12638e-06
-6.4352e-05
8.85817e-05
1.93438e-05
-1.48083e-05
8.29208e-05
8.3973e-06
2.54283e-05
0.00012354
-3.27106e-06
-3.65003e-05
0.000108659
-2.0653e-05
8.99495e-06
7.59428e-05
7.33833e-05
8.71686e-06
7.13134e-05
6.4775e-05
-1.31532e-05
7.65407e-05
2.70496e-06
-1.01573e-06
8.14816e-05
4.66296e-05
-3.50455e-05
9.80933e-05
5.71107e-05
-3.73965e-05
9.33107e-05
2.84964e-05
-3.43104e-05
5.02199e-05
-5.02073e-05
3.73978e-05
5.20714e-05
4.95452e-05
-2.56207e-05
7.45216e-05
8.51659e-05
-6.66828e-05
0.000112298
7.59062e-05
-0.000123884
0.00016188
-1.45119e-05
-0.000168413
0.000173365
-2.47856e-05
-0.000114701
-6.01838e-05
-4.61977e-05
0.00022645
-5.87937e-05
-4.683e-05
0.000182715
4.07877e-05
-0.000114915
0.000131422
6.75446e-05
-8.74287e-05
0.000125603
3.29065e-05
-7.33608e-06
0.00013999
-2.82283e-05
-1.84579e-05
0.000103524
-2.1894e-05
-2.97194e-05
8.87808e-05
0.000107408
-3.92971e-05
0.000137311
8.4517e-05
-6.95463e-05
0.000211261
-3.16765e-05
-4.26842e-05
0.000229938
-2.37917e-05
-9.52986e-05
0.000187669
-4.62952e-05
-6.37228e-05
0.000171285
-1.82569e-05
-5.29756e-05
0.000114777
0.000140491
-5.61906e-05
7.16811e-05
2.63973e-05
-5.97434e-06
8.90829e-05
-3.94064e-07
-2.2547e-06
9.66191e-05
8.13102e-05
-5.81202e-05
0.000112202
-2.59965e-05
-0.000101865
0.000108352
-6.91955e-05
-2.84715e-05
0.000137416
3.64075e-05
-4.46477e-05
0.000162775
0.000132007
-0.000151539
0.000248664
-3.28044e-05
-0.000184646
0.000316319
-0.000163704
-0.000148054
0.000255316
1.83097e-06
-0.000106599
0.000159122
1.38612e-05
-7.05001e-05
0.000123436
-3.34328e-05
-1.95192e-05
0.000162615
-6.43473e-06
-5.41874e-05
0.000137207
-1.207e-05
8.24286e-07
0.000110657
0.000139351
-2.29782e-05
0.000132238
9.39331e-05
-5.93771e-05
0.000138993
-2.79504e-05
-2.0776e-05
0.000131268
4.53186e-05
-2.0326e-05
0.000173725
4.85043e-05
-5.08196e-05
0.00018295
3.68496e-05
-6.85329e-05
0.000113095
-1.792e-05
2.35165e-06
9.54518e-05
8.3984e-05
-5.05155e-05
0.000144518
9.72581e-05
-8.79566e-05
0.000187305
6.7852e-05
-0.000186341
0.000217606
-7.85992e-06
-0.000212007
0.00023114
-5.11262e-05
-0.000158037
-7.31046e-05
-7.83941e-05
0.000249036
-9.34785e-05
-4.2366e-05
0.000238013
6.9426e-05
-0.000146575
0.00019392
0.000150168
-0.000163479
0.000170584
8.81375e-05
-4.05085e-05
0.000177214
-5.66919e-05
-3.3231e-05
0.00014209
-2.12957e-05
-4.9772e-05
0.000123617
0.000115012
-3.81075e-05
0.000166322
8.03049e-05
-4.84302e-05
0.000220858
-9.41917e-05
2.0037e-05
0.000251335
-2.18188e-05
-0.000103525
0.000221142
-0.000113141
-7.67742e-05
0.000200242
-4.82485e-05
-5.40022e-05
0.000163851
0.00017114
-7.84057e-05
0.000116622
6.65612e-05
-6.43216e-05
0.000117024
2.35808e-05
1.43248e-05
0.000113052
0.000121617
-4.55735e-05
0.00014131
-1.69402e-05
-0.00012841
0.000164494
-0.000102537
-9.6088e-05
0.00018716
3.00186e-05
-5.91855e-05
0.000203357
0.000123342
-0.000143139
0.000279415
-8.32651e-05
-0.000195275
0.000338591
-0.000252105
-0.000127396
0.000281169
-1.63702e-07
-0.00010084
0.000205986
-3.916e-05
-8.76559e-05
0.000184247
-0.000165785
-6.20424e-05
0.000218932
-5.30529e-05
-9.27716e-05
0.000168955
1.67362e-06
-3.94347e-05
0.00012537
0.000211747
-1.74782e-05
0.000196487
7.78937e-05
-5.72295e-05
0.000231857
-0.000146475
-1.64098e-05
0.000201185
2.02093e-05
1.68764e-05
0.000233494
1.08821e-05
-2.78524e-05
0.000252383
4.52051e-05
-9.40858e-05
0.000167072
2.12127e-05
-2.39891e-05
0.000123424
8.88035e-05
-4.39112e-06
0.00019632
4.33929e-05
-4.24708e-05
0.000238373
2.12861e-05
-0.000184093
0.000254582
4.84646e-06
-0.000217654
0.000252853
-6.26782e-05
-0.000172969
-4.72562e-05
-8.76855e-05
0.000262465
-0.000182823
2.08984e-05
0.000277511
3.2485e-05
-1.41274e-05
0.000260371
0.000222984
-0.00016615
0.000234904
0.000161077
-9.28533e-05
0.000220196
-4.87392e-05
-0.000109403
0.000181761
2.47033e-05
-0.0001184
0.000156036
0.000136642
-7.89492e-05
0.000186603
0.000103275
-6.71491e-05
0.000243499
-0.000188901
4.06611e-05
0.000285217
-3.82507e-05
-6.00444e-05
0.000259958
-0.000189066
-9.57361e-05
0.000244004
-8.17866e-05
-6.54745e-05
0.000227364
0.000168219
-8.10053e-05
0.000177455
5.61101e-05
-9.40952e-05
0.00015836
4.83081e-05
-1.37339e-05
0.000138187
0.000189405
-5.5505e-05
0.000171899
-3.25221e-05
-5.10833e-05
0.000227707
-0.000158502
-8.93399e-05
0.00026066
3.43913e-05
-0.000111594
0.000268418
0.000101571
-0.000141881
0.000297763
-0.000113904
-0.000201325
0.000324757
-0.000335556
-0.000127593
0.000290821
-2.73517e-05
-8.37519e-05
0.000229469
-6.41633e-05
-8.23118e-05
0.000222166
-0.000301981
-9.63585e-05
0.000279819
-0.000171006
-0.000118989
0.000223771
-1.3899e-05
-8.97208e-05
0.000161707
0.00029809
-3.72657e-05
0.000251848
6.75239e-05
-3.31232e-05
0.000307228
-0.000287401
1.17696e-05
0.000267771
3.37753e-06
1.83926e-06
0.00028085
-4.65985e-05
2.39503e-05
0.000329367
-3.17127e-05
-5.50555e-05
0.000249347
-2.09803e-06
-3.40717e-05
0.000170748
8.79781e-05
-1.40263e-06
0.000224991
3.98872e-06
-1.77774e-05
0.000263185
-4.19287e-05
-0.0001081
0.000291476
5.11077e-06
-0.000157042
0.000274101
-8.34351e-05
-0.000166363
-6.61491e-06
-0.000108006
0.000298157
-0.00028088
1.59446e-06
0.000287571
2.50806e-05
5.13673e-05
0.000285455
0.000269452
-9.42232e-05
0.000285629
0.000180628
-8.98001e-05
0.000281429
2.84814e-06
-0.000189465
0.000238404
0.000119697
-0.000162785
0.000214951
0.000198974
-0.000156223
0.000245501
0.000131934
-7.25983e-05
0.000296518
-0.000319524
8.22278e-06
0.000311639
1.88314e-05
-2.73999e-05
0.000290576
-0.000253707
-0.000109621
0.000283527
-0.000135341
-8.39967e-05
0.000273145
0.000172369
-5.95023e-05
0.000232557
-1.45715e-05
-8.64118e-05
0.000201669
3.22687e-05
-2.75678e-05
0.000181162
0.000312171
-7.2418e-05
0.000243553
-3.28909e-05
-2.41988e-05
0.000301348
-0.000252897
-9.99983e-08
0.000312086
5.51091e-05
-7.94423e-05
0.000320982
0.000111005
-0.000123799
0.000331002
-0.000101356
-0.000178511
0.000293126
-0.00031392
-0.000155849
0.000230691
-9.99246e-06
-9.37422e-05
0.000209255
-5.53352e-05
-0.000128758
0.000240418
-0.000472762
-3.61282e-05
0.000318281
-0.000346767
-9.75383e-05
0.000254107
2.88684e-05
-0.000116456
0.000217271
0.000330263
-4.93279e-05
0.000285487
0.000101766
-4.78048e-05
0.000323778
-0.000345001
-6.84096e-07
0.000312738
-1.94796e-05
-7.4859e-07
0.000292618
-5.8046e-05
1.20219e-05
0.000356052
-0.000113663
7.9933e-07
0.000323474
-7.3255e-05
-3.42301e-05
0.000241265
7.6898e-05
5.04034e-06
0.000220708
-6.6892e-06
2.03594e-05
0.000214983
2.34108e-05
-3.66963e-05
0.000291377
4.45359e-05
-0.000115477
0.000300267
-9.929e-05
-0.000158339
2.84579e-05
-0.000123651
0.000305979
-0.000296725
-4.48816e-05
0.000299722
1.13689e-05
1.261e-05
0.000322115
0.000265877
-5.24873e-05
0.000341085
0.00012913
-8.39594e-05
0.000330445
7.41014e-05
-0.000214484
0.000272967
0.000200734
-0.000130295
0.000284495
0.000268202
-0.000168093
0.00033319
0.000146215
-0.000151256
0.00033601
-0.000434089
-6.21342e-05
0.000363679
9.37456e-05
-0.000101454
0.000344753
-0.000287635
-0.000114689
0.000320392
-0.000159947
-0.000104137
0.000319977
0.000185768
-7.70221e-05
0.000277742
-7.54715e-05
-9.12892e-05
0.00023108
2.09584e-05
-4.21186e-05
0.000188663
0.00040059
-4.94916e-05
0.000240943
1.59252e-05
-5.36381e-05
0.000293566
-0.000319053
2.16542e-05
0.000341695
5.74844e-05
-3.09935e-05
0.000398334
6.40743e-05
-8.13376e-05
0.000387922
-5.07964e-05
-0.00016112
0.000316589
-0.000203847
-0.000173267
0.000245767
4.5972e-05
-0.00014645
0.000212508
-2.98999e-05
-0.000196881
0.000260088
-0.000587885
-3.21968e-05
0.000347377
-0.000532257
-9.59425e-05
0.000269078
0.000141103
-0.00015533
0.00026055
0.00030261
-2.11488e-05
0.000304854
0.000137009
1.06279e-05
0.000342567
-0.000334277
-4.27215e-05
0.000398163
-8.50487e-05
-1.63778e-05
0.000343063
-3.03668e-05
-5.35585e-05
0.000369716
-0.000154371
1.58524e-05
0.000369322
-0.000162735
-2.48263e-05
0.00030239
8.40891e-05
-1.28842e-05
0.000252413
-7.2035e-05
4.21496e-05
0.000214636
0.000145551
-3.19596e-05
0.000298735
6.67157e-05
-0.000116527
0.000322667
-7.90722e-05
-0.000147459
4.48661e-05
-0.000158739
0.000283922
-0.000223773
-5.19128e-05
0.000315369
-7.06712e-05
4.26892e-06
0.000381363
0.000245592
-5.28295e-05
0.000401166
0.000101016
-7.62563e-05
0.000386326
0.00015513
-0.000173335
0.000325514
0.000251397
-0.000129264
0.000336858
0.000312094
-0.000112706
0.000407607
0.000143831
-0.000217046
0.000414334
-0.000486166
-0.00014446
0.000423954
0.000124102
-0.000152069
0.000383483
-0.000270587
-0.000134001
0.000348632
-0.000209234
-8.98277e-05
0.00038618
0.000144439
-4.61618e-05
0.000358968
-6.92183e-05
-9.64995e-05
0.000282078
7.01078e-05
-7.52684e-05
0.000234536
0.000445698
-6.44191e-06
0.000250636
9.15208e-05
-3.82437e-05
0.000267323
-0.000294091
1.20626e-05
0.000346602
2.82259e-05
-4.38806e-05
0.000448667
-1.41543e-05
-3.67765e-05
0.000438318
1.41531e-05
-0.000175334
0.00035021
-9.99513e-05
-0.000134537
0.000284643
0.000103983
-0.000183306
0.000277153
-1.40081e-05
-0.000241812
0.000326931
-0.000625087
-0.000161828
0.000343961
-0.000613165
-0.000117914
0.00027071
0.000272606
-0.000206686
0.000278868
0.000220115
-1.54289e-05
0.000308629
9.98e-05
5.01152e-05
0.000417364
-0.000363766
-0.000119558
0.000495027
-0.000209118
-6.57517e-05
0.000412755
-4.20517e-06
-6.74244e-05
0.000412225
-0.000228127
-1.2752e-05
0.000458145
-0.000263107
9.64437e-06
0.000446823
6.08488e-05
-3.22268e-05
0.000353292
-0.000140798
3.16673e-05
0.000267276
0.00024394
-2.51745e-05
0.000335141
6.87256e-05
-8.91885e-05
0.000369935
-4.79054e-05
-0.000132079
8.51995e-05
-0.000171717
0.000359374
-0.000136109
-0.000109831
0.000393724
-0.000134172
7.19777e-06
0.00041077
0.00024834
-8.33789e-05
0.000394477
0.000133294
-5.79194e-05
0.000422642
0.000137979
-4.05028e-05
0.000424501
0.00023672
-0.000192584
0.000420646
0.000297699
-0.000152293
0.000485109
0.000122942
-0.000235591
0.000479063
-0.000429066
-0.00022391
0.000470871
7.31034e-05
-0.000111515
0.000433806
-0.00022406
-0.000157337
0.000394062
-0.000265079
-0.000129686
0.000431751
8.04102e-05
-1.01818e-05
0.000411385
-4.40935e-05
-5.96961e-05
0.000344994
0.000153124
-9.21752e-05
0.000312277
0.000435737
4.9489e-05
0.000323156
0.0001546
-4.71479e-05
0.000327571
-0.000255936
-3.5656e-05
0.000353803
-4.05087e-06
-9.30016e-05
0.00041104
-3.71174e-05
-3.71324e-05
0.000449247
1.72777e-05
-0.000124883
0.000332807
-5.59289e-05
-0.000108157
0.000257474
0.000120758
-0.000115896
0.000376985
-0.000123986
-0.00026222
0.000419993
-0.000612019
-0.00030128
0.000348525
-0.000576592
-0.000132103
0.00029701
0.000372965
-0.000187579
0.000292223
0.000231801
-0.000165591
0.000356955
-3.14607e-05
-9.30766e-06
0.000498979
-0.00047405
-0.000122776
0.000516142
-0.000252358
-0.000112777
0.000466979
-2.315e-05
-2.28815e-05
0.000463732
-0.000340515
-6.49527e-05
0.000499955
-0.000274471
-3.17897e-05
0.000532862
1.71531e-05
-2.0483e-05
0.00041166
-0.000149726
2.1924e-05
0.000306998
0.000275339
-3.38079e-05
0.000359711
0.000129441
-8.33938e-05
0.000402629
-3.51918e-05
-9.25256e-05
0.000133981
-0.000142354
0.000457277
-8.29201e-05
-0.000158847
0.000473345
-0.000141255
0.000108558
0.000429943
0.000304029
-2.54106e-05
0.00038218
0.00019678
-6.11813e-05
0.000424441
1.7362e-05
3.09459e-05
0.000507749
8.12859e-05
-9.80881e-05
0.000517915
0.00019999
-0.000168027
0.000560605
8.2464e-05
-0.00023587
0.000565028
-0.000454132
-0.000179422
0.000555303
-5.82515e-05
-3.4852e-05
0.00050837
-0.000175732
-0.000140357
0.000446868
-0.00026543
-0.00024446
0.000446062
7.8905e-05
-7.21437e-05
0.000420336
5.2606e-06
-6.11068e-05
0.000400259
0.000183038
-0.000104938
0.000382291
0.000393486
8.99865e-05
0.000376915
0.000190898
-1.17201e-05
0.000390448
-0.000231322
-0.000104619
0.000410918
-3.86918e-05
-6.64442e-05
0.000414308
6.55203e-06
-1.94469e-05
0.000448965
-6.25855e-06
-2.34895e-05
0.000366862
-8.11862e-05
-0.000119096
0.000326162
5.39712e-05
-6.8564e-05
0.00045379
-0.000283429
-0.000246961
0.000426261
-0.000559547
-0.000347706
0.000331794
-0.00050424
-0.00016286
0.000322587
0.000338049
-0.000150789
0.000342437
0.000296021
-0.000297155
0.000408702
-9.69029e-05
-9.65565e-05
0.000494176
-0.000530458
-5.06523e-05
0.00047665
-0.000198163
-0.000157368
0.000478736
-4.87478e-05
-2.39025e-05
0.000519853
-0.000334764
-0.000131765
0.000517591
-0.000175
-0.000105019
0.000518819
4.14694e-05
-3.73653e-05
0.000387544
-0.000128195
5.6281e-06
0.000299117
0.000228096
-3.274e-06
0.000346194
0.000181828
-5.80212e-05
0.00040842
-9.84562e-05
-3.17959e-05
0.000111324
-9.45079e-05
0.000531167
-3.19825e-05
-0.000171398
0.000514982
-0.00013171
9.09436e-05
0.000502905
0.000360737
3.18732e-05
0.000407748
0.000338806
-0.000128259
0.000417593
-2.70992e-05
-6.46024e-05
0.000558185
-0.000191917
5.76289e-06
0.000586006
6.9816e-05
-7.84194e-05
0.000633966
4.67889e-05
-0.000235957
0.000642122
-0.000510793
-0.000162679
0.000640968
-0.000220519
-1.14551e-06
0.000588669
-9.86144e-05
-0.000138834
0.000534277
-0.000287764
-0.000248857
0.000497395
-4.79663e-07
-0.000103077
0.000414105
8.23808e-05
-4.31742e-05
0.000439513
0.000212886
-0.000110523
0.000465008
0.000358996
3.76856e-05
0.000424801
0.00015731
8.19403e-05
0.000409484
-0.000171346
-9.90092e-05
0.000452762
-4.64543e-05
-4.73336e-05
0.000494523
3.69512e-05
-2.21061e-05
0.000476684
-8.08107e-05
5.18695e-05
0.000464788
-0.000187368
-0.000125315
0.000517174
-8.3132e-05
-0.000137946
0.000501047
-0.000344257
-0.000226054
0.000431764
-0.000529607
-0.000284628
0.000387684
-0.000422916
-0.000176035
0.000324775
0.000296361
-0.000102599
0.000348049
0.000287194
-0.000168784
0.000433981
-0.000164838
-0.000151224
0.000524293
-0.000562289
-8.35326e-05
0.000539428
-0.000228406
-0.000145662
0.000545271
-8.80427e-05
-1.6192e-05
0.000602095
-0.000244184
-0.000174867
0.000575018
-0.000105079
-0.000105947
0.000575893
7.48393e-05
-1.91838e-05
0.000471937
-0.000142422
-1.38218e-05
0.000362808
0.000221761
4.65298e-05
0.000367777
0.000326554
-0.000106006
0.000435973
-0.000177793
-8.75534e-05
4.26737e-06
-8.65812e-05
0.000538456
7.71104e-06
-4.72836e-05
0.00049596
-0.000113974
3.73146e-05
0.000545606
0.000336991
1.39195e-05
0.000477978
0.00037415
-0.000144449
0.000453565
-1.26188e-05
-5.70118e-05
0.000548502
-0.000387354
-1.40627e-05
0.000563666
-5.85201e-05
-3.14758e-05
0.000688986
7.74837e-06
-0.000200801
0.000728771
-0.000516582
-0.000225369
0.000706255
-0.000355186
-2.31367e-05
0.000635446
-8.02021e-05
-0.000106406
0.000555136
-0.000267412
-0.000208707
0.000531426
-0.000100951
-0.000113044
0.00042566
0.000206168
-6.31092e-05
0.000466015
0.000229296
-6.91168e-05
0.000561188
0.000254555
0.000117775
0.000500548
8.53252e-05
0.000183095
0.000410361
-0.000129602
4.42344e-05
0.000442339
-1.51396e-05
-3.15849e-06
0.0005211
9.85645e-05
-8.6466e-05
0.000511219
-0.000110524
-5.14041e-05
0.000530034
-0.00036357
-9.16219e-05
0.000556226
-0.000226964
-0.000175294
0.000512737
-0.000372048
-0.000209578
0.000471919
-0.000558543
-0.000229898
0.000422289
-0.0002645
-0.000145747
0.000345087
0.00034546
-0.000130968
0.000412471
0.000216087
-0.000175414
0.000512664
-0.000256457
-0.000120374
0.000563483
-0.000507989
-0.000172692
0.000610659
-0.000317986
-0.00014866
0.000652337
-0.000156172
-0.000110005
0.000669356
-0.00017423
-0.00011993
0.00063891
-2.04665e-05
-0.000105808
0.000635837
4.85793e-05
-2.54202e-05
0.000544266
-0.000118845
-1.92115e-05
0.000470154
0.000186479
2.00867e-06
0.000451263
0.000407765
-9.47464e-05
0.000475792
-0.000168806
-0.000138901
-2.33098e-05
-9.26954e-05
0.000529978
-5.73027e-05
1.9973e-05
0.000491938
-7.26206e-05
5.82956e-05
0.000534891
0.000301007
-4.76331e-05
0.000568412
0.000292226
-8.78973e-05
0.000512928
-5.25011e-05
-7.34687e-05
0.000501024
-0.000483236
-2.0683e-05
0.000573788
-0.000278397
2.97161e-05
0.000756636
-7.02557e-05
-0.000139514
0.00081771
-0.000496127
-0.000268152
0.000779646
-0.000435165
-7.18968e-05
0.000699592
-6.00795e-05
-0.000116455
0.000627843
-0.000251723
-0.000235838
0.000619082
-0.000229938
-6.62466e-05
0.000545708
0.00029091
-7.66851e-05
0.000569356
0.000267798
-6.00456e-05
0.000613639
8.67967e-05
0.000223004
0.00056633
9.86583e-06
0.000254687
0.000453995
-8.86895e-05
0.000106292
0.000439913
3.13751e-05
2.53133e-05
0.000519524
0.000167894
-0.000137859
0.00058079
-9.75297e-05
-0.000108015
0.000567207
-0.000416304
-8.27057e-05
0.000535054
-0.000289597
-0.000210236
0.000597823
-0.000516064
-0.000179825
0.000602127
-0.000712235
-0.000164071
0.000567135
-0.000221615
-0.00017733
0.000502323
0.000348466
-0.000181053
0.000514163
0.000156706
-0.000265854
0.00052807
-0.000230911
-0.000165701
0.00051656
-0.000356709
-0.000288284
0.000617618
-0.000386912
-0.000257259
0.000732125
-0.000336518
-0.000118501
0.000714083
-0.000183492
-5.69385e-05
0.000684881
1.75102e-05
-0.000128029
0.000705969
3.09405e-05
-0.000128879
0.000626809
-0.000105926
-3.05443e-05
0.000567791
6.63992e-05
3.47593e-05
0.000575243
0.000194301
-5.08604e-05
0.000512932
-9.67479e-05
-9.81375e-05
3.35733e-05
-9.51951e-05
0.000580004
-9.69704e-05
-1.03026e-05
0.000536303
-2.40124e-05
0.000116476
0.000551043
0.000300892
-1.58538e-05
0.000619541
0.000208627
-0.000147087
0.000598858
-9.97703e-05
-0.000174847
0.000562854
-0.000556881
-4.59557e-05
0.00063738
-0.000421555
7.88928e-05
0.000796902
-8.77356e-05
-5.14319e-05
0.000898862
-0.000528469
-0.000281444
0.000873828
-0.000517909
-0.000141999
0.000769614
5.75657e-05
-0.000103523
0.00073269
-0.000221925
-0.000193829
0.000716364
-0.000326114
-0.000106288
0.000644173
0.000317754
-0.000112352
0.000686854
0.000359162
-0.000111
0.000704464
-1.88888e-05
0.000207683
0.000658225
-6.28689e-05
0.000248914
0.000496751
1.83639e-05
0.000117028
0.000442277
0.000105637
2.4458e-05
0.000541181
0.00017905
-7.56627e-05
0.00065518
-2.88984e-05
-4.67336e-05
0.000653128
-0.000293552
-0.000143417
0.000663533
-0.00029866
-0.000228632
0.00075147
-0.000681409
-0.000130963
0.000740681
-0.000798006
-0.00017907
0.000724844
-0.000321257
-0.000167757
0.000647201
0.000253123
-0.000216241
0.0005745
0.000143138
-0.000251753
0.000534333
-0.000130982
-0.000279207
0.00055283
-0.000299642
-0.000256031
0.000666697
-0.000425178
-0.000274066
0.0007364
-0.000428298
-0.000181554
0.000710274
-0.000187429
-2.9785e-05
0.000708772
-2.59094e-05
-0.000101942
0.000752256
4.37394e-05
-0.000158654
0.000703381
-2.821e-06
-3.03125e-05
0.000665347
-2.33354e-05
2.81064e-05
0.000701217
-7.7889e-05
2.75804e-05
0.000607898
-5.27709e-05
-3.49228e-05
8.1485e-05
-9.52214e-05
0.000565294
-2.88396e-05
-8.36709e-05
0.000576262
0.000103727
-0.000100387
0.000611872
0.000291995
-0.000140788
0.00068616
6.49481e-05
-0.000192477
0.000728386
-7.70256e-05
-0.000131164
0.000631154
-0.000529625
-7.54125e-05
0.000619168
-0.000402766
-3.9364e-05
0.00083378
-6.06646e-05
-0.000119275
0.00100673
-0.00056165
-0.000285258
0.000955202
-0.000499469
-0.000251218
0.000855524
0.000121055
-0.000137106
0.000814261
-8.66545e-05
-0.000212794
0.000743379
-0.000314512
-0.000185248
0.000696654
0.000192897
-0.000138618
0.00078996
0.000376085
-0.000135655
0.000785014
-8.99908e-05
0.000125737
0.000715712
-0.000134675
0.000233104
0.000614443
0.00011436
0.000106057
0.000574587
0.000209714
-8.09712e-05
0.00058511
0.000238922
-5.1095e-05
0.000667685
0.000116905
-6.35588e-05
0.000758459
-0.000228509
-0.000170798
0.000799654
-0.00037854
-0.000158536
0.000862544
-0.000790138
-5.37379e-05
0.000871899
-0.000821797
-0.000183235
0.000823288
-0.000317091
-0.000177992
0.000736594
0.000195594
-0.000183777
0.000651923
0.000150881
-0.000221987
0.000666006
-8.65353e-05
-0.000376002
0.000700476
-0.000254812
-0.000352949
0.000768577
-0.0004051
-0.000355465
0.000819113
-0.00045905
-0.000296945
0.000805043
-0.000223393
-0.000105478
0.000795032
-4.06213e-05
-9.28987e-05
0.000849041
4.96641e-05
-0.000146975
0.000855072
0.000102708
-8.56144e-05
0.000790838
-2.06009e-05
1.30856e-05
0.00075349
-0.000236894
0.000101638
0.000698708
-2.87114e-05
-1.75441e-05
0.000181319
-7.18855e-05
0.000676421
0.000114757
-4.77998e-05
0.000608862
0.000195381
-0.000134571
0.000651647
0.000349109
-0.000187384
0.000765067
2.57999e-05
-0.000123855
0.000845883
-9.70141e-05
-1.18952e-05
0.000775945
-0.00054572
-2.21606e-05
0.00069542
-0.000401535
-8.7872e-05
0.00087897
-6.20266e-05
-2.80343e-05
0.00107203
-0.000627952
-8.45461e-05
0.00104399
-0.000477397
-0.000184365
0.000946248
0.000148305
-0.000173152
0.000928657
-2.39693e-05
-0.000218196
0.000890012
-0.000255322
-0.000171811
0.000816147
9.8629e-05
-0.000189232
0.000859279
0.000361949
-0.000260252
0.000874195
-0.000159709
9.26812e-05
0.000793535
-0.000146645
0.000295049
0.000698204
0.000131722
8.2372e-06
0.000578296
0.000363624
-0.000105427
0.000526408
0.000411416
2.79782e-05
0.000661612
0.000124114
7.12741e-05
0.000840626
-0.000252648
5.25949e-06
0.00087932
-0.000369769
-7.21234e-05
0.00087122
-0.000707669
-7.53697e-05
0.000913796
-0.00086025
-0.000177679
0.000918592
-0.000364439
-0.000186217
0.000865336
0.000176272
-0.000169759
0.00078137
0.000199835
-0.000261488
0.000811516
-6.02521e-05
-0.000410923
0.000846489
-0.000172056
-0.000477722
0.000856522
-0.000371877
-0.000459785
0.000918635
-0.000500417
-0.000335052
0.000945585
-0.000169641
-0.000155337
0.000937022
4.721e-05
-8.45061e-05
0.000923395
0.000107767
-0.000138727
0.00088252
0.000130855
-8.88144e-05
0.000845139
-6.66652e-05
6.43248e-05
0.000814344
-0.00023881
3.68803e-05
0.000799582
2.63701e-05
-3.27114e-05
0.00038553
-3.44933e-05
0.000738128
0.000320754
2.15973e-05
0.000640774
0.000205733
-1.77129e-06
0.00077712
0.000172276
1.92596e-05
0.000900383
-1.86615e-05
3.26644e-05
0.000980745
-0.000142965
0.00014543
0.000958972
-0.00056957
5.766e-05
0.000807713
-0.000426072
-6.61226e-05
0.000899313
-7.51153e-05
-2.42194e-05
0.00104139
-0.000706815
5.24759e-05
0.00105052
-0.000505183
-8.5713e-05
0.00109282
3.39265e-05
-0.000145733
0.00113028
-0.000219151
-0.000214506
0.00100925
-9.49496e-05
-0.000187317
0.000876962
0.000252123
-9.8794e-05
0.000951765
0.000230618
-0.000211408
0.00103515
-0.000288437
-2.64084e-05
0.000948511
-0.000100287
0.000287002
0.000804194
9.13432e-05
0.000167639
0.000630739
0.000412259
5.07867e-05
0.000632932
0.000399212
7.80545e-05
0.00085269
-4.4959e-05
7.30031e-05
0.00103183
-0.000420939
2.65108e-06
0.00101544
-0.000425381
-3.20091e-05
0.000975305
-0.000640984
-1.56344e-05
0.00103199
-0.000819296
-0.00013308
0.00105008
-0.000354576
-0.000149818
0.00101279
0.00019221
-0.000138089
0.000944788
0.000239515
-0.000312002
0.000973096
-5.69176e-05
-0.000347712
0.000996041
-0.000210577
-0.000422685
0.000945301
-0.000304313
-0.000445641
0.000958238
-0.000434711
-0.00033537
0.000961521
-0.000103846
-0.00020748
0.000944101
0.000131825
-0.000187581
0.000944928
0.000227946
-0.000278707
0.000919939
0.000223807
-0.000183042
0.000941724
-0.00016313
3.29328e-06
0.000969352
-0.0002878
0.000113032
0.000929411
5.99005e-05
-1.15439e-05
0.000475479
-1.9679e-05
0.000823031
0.000346668
-6.36958e-05
0.00083989
0.000116613
-1.26855e-05
0.000979559
-8.77142e-05
8.11484e-05
0.0011221
-0.000153659
5.78766e-05
0.00122589
-0.000199209
0.000129083
0.00113041
-0.000384232
0.000105564
0.000918271
-0.000371441
-5.4505e-05
0.000940787
-0.000120696
-1.57216e-05
0.000980607
-0.000518553
4.44069e-05
0.00101889
-0.000560424
-2.71486e-05
0.00123464
-0.000337951
-6.60029e-06
0.00135884
-0.000445427
-0.000166612
0.0011369
-1.45005e-05
-0.000230242
0.00095014
0.000382985
-0.000107711
0.00112525
3.81334e-05
-0.000311199
0.00119674
-0.000431154
-0.000194147
0.0010398
-8.56957e-05
0.000254114
0.000979761
4.98705e-05
0.000179482
0.000963023
0.000275994
0.000110753
0.000939679
0.000269221
0.000176799
0.00102908
-0.000158483
0.000102691
0.00111816
-0.000577027
-1.10971e-05
0.00115377
-0.000458487
-4.01163e-05
0.00117916
-0.00053035
4.07695e-05
0.00112549
-0.000670043
-8.70191e-05
0.00101191
-0.000250512
-0.000119355
0.00108663
0.000235615
-0.000207078
0.00114672
0.000279439
-0.00031795
0.00106496
-1.19308e-05
-0.000218418
0.00102038
-0.000220095
-0.00030973
0.00103363
-0.000285622
-0.000495859
0.00104171
-0.000352263
-0.000505523
0.0010274
-0.000158314
-0.000309928
0.00102506
0.000100083
-0.000112568
0.00102133
0.000401121
-9.96936e-05
0.000983519
0.000478132
-8.37195e-05
0.000984007
-0.00012072
2.5438e-05
0.00101007
-0.000369179
0.000151023
0.000941372
9.32454e-05
5.43763e-05
0.000428295
-6.13778e-05
0.00106032
0.000302614
-4.95727e-05
0.0011204
0.000128001
-3.83924e-05
0.0011773
-6.47378e-05
0.000198843
0.001302
-0.000185978
0.000207128
0.00136056
-8.9875e-05
5.81761e-05
0.00126707
-8.74409e-05
-1.63717e-05
0.00110914
-0.000278372
-5.07571e-05
0.00104711
-0.000195158
2.24089e-05
0.00110153
-0.000358309
1.19703e-05
0.00120341
-0.000594413
2.05942e-06
0.00128944
-0.000448058
-4.31977e-05
0.00131699
-0.00044492
-9.96534e-05
0.00123709
-0.000110109
-0.000149142
0.00123176
0.000356994
-0.000214479
0.00143739
6.98753e-05
-0.000452362
0.00144936
-0.000474379
-0.000402213
0.00128641
-0.000192909
-5.26343e-05
0.00125265
4.26477e-05
2.36363e-05
0.00121557
0.000204276
2.33651e-05
0.00110882
0.000301771
0.000163051
0.00118429
-6.51397e-05
4.99919e-05
0.00132938
-0.000547902
-0.000131697
0.00141057
-0.000445124
-7.95175e-05
0.00140309
-0.000321078
-3.48928e-05
0.0013119
-0.000519727
-8.57989e-05
0.00115252
-0.000241498
-0.000144602
0.00120436
0.000324931
-0.000224143
0.00123903
0.000420496
-0.000176325
0.00106854
9.51768e-05
-8.61867e-05
0.0010626
-0.000282023
-0.000273762
0.00123317
-0.000421386
-0.000446962
0.00133617
-0.000412884
-0.000497273
0.00132651
-0.000141607
-0.000402832
0.00126085
0.000172534
-0.000132831
0.0011549
0.000511297
-4.56311e-05
0.00111847
0.000526536
-0.000111115
0.00112789
-5.61967e-06
-9.14916e-05
0.00104906
-0.000259512
-8.09219e-05
0.00095243
7.01295e-05
-3.93737e-05
0.000348479
-2.55879e-05
0.00123675
0.000270928
-8.00773e-05
0.00127876
0.000127437
5.90047e-05
0.00123273
-4.53973e-05
0.000316851
0.00131476
-0.000208533
0.000293164
0.00142603
-9.55898e-05
9.43336e-05
0.00147311
3.69232e-06
-2.45917e-05
0.00144147
-0.000129646
-0.000125162
0.00133995
-0.000111928
-0.000205161
0.00128828
-0.000230543
1.93884e-05
0.00134802
-0.000492888
0.000109435
0.00143157
-0.000389633
-0.000159179
0.00142482
-0.000477204
-0.000169334
0.00145694
-0.000350093
-4.69552e-05
0.00159459
8.93316e-05
-8.81112e-05
0.00172033
3.73441e-05
-0.000324345
0.00167609
-0.000353541
-0.000323975
0.00153106
-0.000206267
-0.000128914
0.00145149
7.15569e-05
-4.49781e-05
0.00147733
0.00014243
-1.81485e-05
0.00148455
0.000174119
1.36561e-05
0.00149948
2.35011e-05
-8.29572e-05
0.00157534
-0.00040291
-0.000155871
0.00166729
-0.000527879
-0.000140576
0.00165516
-0.000342959
-0.000200965
0.0015248
-0.000287336
-0.000141577
0.00135071
-0.000135433
-6.56371e-05
0.00140766
0.000322822
-9.70703e-05
0.00149855
0.00045535
1.57798e-06
0.00134419
0.000181332
1.22521e-05
0.00120554
-0.00019753
-0.000263606
0.00129759
-0.000467874
-0.000421601
0.00144019
-0.000478163
-0.000456199
0.00140398
-6.31918e-05
-0.000361905
0.00127753
0.000344192
-8.68825e-05
0.0012136
0.000564347
4.77904e-05
0.00131877
0.00043916
4.10376e-05
0.00141999
9.57332e-05
8.15417e-06
0.00137543
-0.000101905
-4.28892e-05
0.00130643
8.9399e-05
-8.18662e-05
0.000333229
-0.000127445
0.00145393
9.50716e-05
2.12879e-05
0.00148549
1.24405e-05
0.000211133