/*--------------------------------*- C++ -*----------------------------------*\
  =========                 |
  \\      /  F ield         | OpenFOAM: The Open Source CFD Toolbox
   \\    /   O peration     | Website:  https://openfoam.org
    \\  /    A nd           | Version:  10
     \\/     M anipulation  |
\*---------------------------------------------------------------------------*/
FoamFile
{
    format      ascii;
    class       volScalarField;
    location    "30";
    object      p;
}
// * * * * * * * * * * * * * * * * * * * * * * * * * * * * * * * * * * * * * //

dimensions      [0 2 -2 0 0 0 0];

internalField   nonuniform List<scalar> 
25600
(
-3.45572e-06
-2.09258e-06
-2.34921e-06
-3.05645e-06
-1.95514e-06
-2.93645e-06
-2.21928e-06
-2.47648e-06
-2.57614e-06
-1.85875e-06
-2.82053e-06
-1.74845e-06
-2.11652e-06
-2.51664e-06
-1.07307e-06
-2.74988e-06
-1.29959e-06
-1.65983e-06
-2.17028e-06
-9.2964e-07
-2.3066e-06
-8.11921e-07
-2.2785e-06
-9.35299e-07
-1.71665e-06
-2.08752e-06
-3.90919e-07
-3.19365e-06
-4.65091e-07
-2.09182e-06
-2.6001e-06
-4.46737e-07
-3.31415e-06
-1.60528e-06
-1.49425e-06
-3.52028e-06
-1.12058e-06
-2.70711e-06
-2.98584e-06
-1.36479e-06
-3.4518e-06
-2.09571e-06
-2.34545e-06
-3.05709e-06
-1.95531e-06
-2.93461e-06
-2.22115e-06
-2.47467e-06
-2.57782e-06
-1.85861e-06
-2.82027e-06
-1.75106e-06
-2.11495e-06
-2.51884e-06
-1.07441e-06
-2.74835e-06
-1.30397e-06
-1.6578e-06
-2.17237e-06
-9.31027e-07
-2.30547e-06
-8.15032e-07
-2.27608e-06
-9.389e-07
-1.71356e-06
-2.08985e-06
-3.90718e-07
-3.19036e-06
-4.70053e-07
-2.08526e-06
-2.60324e-06
-4.46143e-07
-3.30921e-06
-1.60964e-06
-1.4893e-06
-3.51907e-06
-1.123e-06
-2.70116e-06
-2.98805e-06
-1.36382e-06
-3.44984e-06
-2.09999e-06
-2.33883e-06
-3.06082e-06
-1.95342e-06
-2.93381e-06
-2.22319e-06
-2.47194e-06
-2.58156e-06
-1.85617e-06
-2.82196e-06
-1.75357e-06
-2.11157e-06
-2.52457e-06
-1.07238e-06
-2.74862e-06
-1.30906e-06
-1.65318e-06
-2.17768e-06
-9.29599e-07
-2.30643e-06
-8.16283e-07
-2.27485e-06
-9.42359e-07
-1.7081e-06
-2.0967e-06
-3.84577e-07
-3.1914e-06
-4.74066e-07
-2.07483e-06
-2.61269e-06
-4.39519e-07
-3.30622e-06
-1.61678e-06
-1.4784e-06
-3.52325e-06
-1.12353e-06
-2.69251e-06
-2.99537e-06
-1.35814e-06
-3.45008e-06
-2.10643e-06
-2.32794e-06
-3.06876e-06
-1.94902e-06
-2.9339e-06
-2.22582e-06
-2.46762e-06
-2.58786e-06
-1.85087e-06
-2.82566e-06
-1.75615e-06
-2.10548e-06
-2.53455e-06
-1.06629e-06
-2.75042e-06
-1.31564e-06
-1.64454e-06
-2.18716e-06
-9.24862e-07
-2.3092e-06
-8.16219e-07
-2.27411e-06
-9.46494e-07
-1.69929e-06
-2.10935e-06
-3.71521e-07
-3.19722e-06
-4.78103e-07
-2.05868e-06
-2.63104e-06
-4.25452e-07
-3.30536e-06
-1.62844e-06
-1.45926e-06
-3.5346e-06
-1.1222e-06
-2.67991e-06
-3.01021e-06
-1.34646e-06
-3.45329e-06
-2.1155e-06
-2.31154e-06
-3.08212e-06
-1.94127e-06
-2.93505e-06
-2.22923e-06
-2.4611e-06
-2.59739e-06
-1.84185e-06
-2.83179e-06
-1.75877e-06
-2.0959e-06
-2.54983e-06
-1.05506e-06
-2.75405e-06
-1.32415e-06
-1.63071e-06
-2.20199e-06
-9.15918e-07
-2.31414e-06
-8.14803e-07
-2.27368e-06
-9.5179e-07
-1.68625e-06
-2.12928e-06
-3.49999e-07
-3.20898e-06
-4.82351e-07
-2.03537e-06
-2.66191e-06
-4.01909e-07
-3.30749e-06
-1.64568e-06
-1.42982e-06
-3.55523e-06
-1.11831e-06
-2.66259e-06
-3.03423e-06
-1.32712e-06
-3.4608e-06
-2.12727e-06
-2.28856e-06
-3.1023e-06
-1.92896e-06
-2.93781e-06
-2.23334e-06
-2.45179e-06
-2.61098e-06
-1.82794e-06
-2.84109e-06
-1.76115e-06
-2.082e-06
-2.57163e-06
-1.03716e-06
-2.76018e-06
-1.33463e-06
-1.61063e-06
-2.22345e-06
-9.01463e-07
-2.32207e-06
-8.11448e-07
-2.27383e-06
-9.58414e-07
-1.66814e-06
-2.15835e-06
-3.17887e-07
-3.22864e-06
-4.86315e-07
-2.00377e-06
-2.70584e-06
-3.66344e-07
-3.31417e-06
-1.66914e-06
-1.38809e-06
-3.5877e-06
-1.11061e-06
-2.64019e-06
-3.06925e-06
-1.29811e-06
-3.4742e-06
-2.1417e-06
-2.25797e-06
-3.13083e-06
-1.91073e-06
-2.94297e-06
-2.23799e-06
-2.4391e-06
-2.62956e-06
-1.80776e-06
-2.85445e-06
-1.7629e-06
-2.06292e-06
-2.60135e-06
-1.01085e-06
-2.76965e-06
-1.34702e-06
-1.5832e-06
-2.25289e-06
-8.79989e-07
-2.33399e-06
-8.05337e-07
-2.27496e-06
-9.66393e-07
-1.64412e-06
-2.19853e-06
-2.72737e-07
-3.25851e-06
-4.89244e-07
-1.96286e-06
-2.76671e-06
-3.15929e-07
-3.3273e-06
-1.69938e-06
-1.33197e-06
-3.63482e-06
-1.09766e-06
-2.61254e-06
-3.11723e-06
-1.25729e-06
-3.49527e-06
-2.15864e-06
-2.21883e-06
-3.16946e-06
-1.88502e-06
-2.95152e-06
-2.24293e-06
-2.42245e-06
-2.65427e-06
-1.77972e-06
-2.87297e-06
-1.76361e-06
-2.03769e-06
-2.64057e-06
-9.74212e-07
-2.78334e-06
-1.36122e-06
-1.54735e-06
-2.2917e-06
-8.49859e-07
-2.35101e-06
-7.95513e-07
-2.27757e-06
-9.75669e-07
-1.61334e-06
-2.25144e-06
-2.11871e-07
-3.30118e-06
-4.90141e-07
-1.9116e-06
-2.84756e-06
-2.47629e-07
-3.34899e-06
-1.73683e-06
-1.25936e-06
-3.6996e-06
-1.07782e-06
-2.57958e-06
-3.18015e-06
-1.20237e-06
-3.52592e-06
-2.17769e-06
-2.17044e-06
-3.22087e-06
-1.85011e-06
-2.96475e-06
-2.24775e-06
-2.4013e-06
-2.68642e-06
-1.74203e-06
-2.89799e-06
-1.76285e-06
-2.00541e-06
-2.69101e-06
-9.25297e-07
-2.80226e-06
-1.37705e-06
-1.50219e-06
-2.34121e-06
-8.09423e-07
-2.37433e-06
-7.80893e-07
-2.2823e-06
-9.85986e-07
-1.57508e-06
-2.31908e-06
-1.32538e-07
-3.35944e-06
-4.87603e-07
-1.84917e-06
-2.95125e-06
-1.58269e-07
-3.38152e-06
-1.78161e-06
-1.16823e-06
-3.78501e-06
-1.04928e-06
-2.54146e-06
-3.2598e-06
-1.13107e-06
-3.56808e-06
-2.19784e-06
-2.11248e-06
-3.29057e-06
-1.80418e-06
-2.98427e-06
-2.25188e-06
-2.37526e-06
-2.72756e-06
-1.69285e-06
-2.93104e-06
-1.76028e-06
-1.96533e-06
-2.75446e-06
-8.62348e-07
-2.82754e-06
-1.39426e-06
-1.44726e-06
-2.40261e-06
-7.57297e-07
-2.4052e-06
-7.60343e-07
-2.29006e-06
-9.96764e-07
-1.52901e-06
-2.40286e-06
-3.21192e-08
-3.43623e-06
-4.79744e-07
-1.7751e-06
-3.08007e-06
-4.43368e-08
-3.42718e-06
-1.83329e-06
-1.05693e-06
-3.89359e-06
-1.01007e-06
-2.49865e-06
-3.35733e-06
-1.04133e-06
-3.62352e-06
-2.21756e-06
-2.04524e-06
-3.37098e-06
-1.74537e-06
-3.01202e-06
-2.25443e-06
-2.3441e-06
-2.7794e-06
-1.63036e-06
-2.97371e-06
-1.75577e-06
-1.9171e-06
-2.83268e-06
-7.84095e-07
-2.86034e-06
-1.41265e-06
-1.38286e-06
-2.47658e-06
-6.92771e-07
-2.44479e-06
-7.32824e-07
-2.3022e-06
-1.007e-06
-1.47552e-06
-2.50353e-06
9.13845e-08
-3.53434e-06
-4.64307e-07
-1.68951e-06
-3.23525e-06
1.10546e-07
-3.48785e-06
-1.8907e-06
-9.24597e-07
-4.02681e-06
-9.58219e-07
-2.45206e-06
-3.47264e-06
-9.31529e-07
-3.69342e-06
-2.23413e-06
-1.97004e-06
-3.46294e-06
-1.6717e-06
-3.04974e-06
-2.25417e-06
-2.3076e-06
-2.84357e-06
-1.55313e-06
-3.0273e-06
-1.74932e-06
-1.86096e-06
-2.92714e-06
-6.90102e-07
-2.9017e-06
-1.43221e-06
-1.31041e-06
-2.56301e-06
-6.16405e-07
-2.49407e-06
-6.97486e-07
-2.32088e-06
-1.0153e-06
-1.41601e-06
-2.62108e-06
2.38753e-07
-3.65572e-06
-4.39054e-07
-1.59341e-06
-3.41658e-06
2.84832e-07
-3.56458e-06
-1.95169e-06
-7.71847e-07
-4.1842e-06
-8.91885e-07
-2.40321e-06
-3.60351e-06
-8.00693e-07
-3.77794e-06
-2.24339e-06
-1.88946e-06
-3.56644e-06
-1.58164e-06
-3.09905e-06
-2.24941e-06
-2.26568e-06
-2.92076e-06
-1.46058e-06
-3.09248e-06
-1.74093e-06
-1.79781e-06
-3.03875e-06
-5.81161e-07
-2.95195e-06
-1.45343e-06
-1.2329e-06
-2.66029e-06
-5.30869e-07
-2.55364e-06
-6.53647e-07
-2.34911e-06
-1.02025e-06
-1.35297e-06
-2.75419e-06
4.07632e-07
-3.80055e-06
-4.02439e-07
-1.48938e-06
-3.62064e-06
4.85622e-07
-3.6568e-06
-2.0129e-06
-6.01775e-07
-4.36241e-06
-8.0968e-07
-2.35461e-06
-3.74479e-06
-6.45857e-07
-3.87548e-06
-2.24019e-06
-1.80746e-06
-3.67658e-06
-1.47505e-06
-3.15968e-06
-2.23814e-06
-2.21906e-06
-3.00922e-06
-1.35327e-06
-3.16875e-06
-1.73037e-06
-1.72927e-06
-3.1671e-06
-4.59974e-07
-3.00966e-06
-1.47733e-06
-1.15559e-06
-2.7643e-06
-4.4133e-07
-2.6238e-06
-6.01259e-07
-2.38986e-06
-1.02163e-06
-1.29011e-06
-2.89857e-06
5.89953e-07
-3.96556e-06
-3.5461e-07
-1.38274e-06
-3.8392e-06
7.05679e-07
-3.76207e-06
-2.06931e-06
-4.21178e-07
-4.55459e-06
-7.11297e-07
-2.30997e-06
-3.88789e-06
-4.77419e-07
-3.98045e-06
-2.22006e-06
-1.73052e-06
-3.78303e-06
-1.35538e-06
-3.22834e-06
-2.21744e-06
-2.17062e-06
-3.10292e-06
-1.23377e-06
-3.25356e-06
-1.71668e-06
-1.656e-06
-3.30878e-06
-3.3209e-07
-3.07038e-06
-1.50486e-06
-1.08637e-06
-2.86733e-06
-3.55468e-07
-2.70377e-06
-5.42619e-07
-2.44372e-06
-1.0216e-06
-1.23352e-06
-3.04405e-06
8.34896e-07
-4.14126e-06
-2.97688e-07
-1.28383e-06
-4.05716e-06
9.28401e-07
-3.87539e-06
-2.11474e-06
-2.41571e-07
-4.74949e-06
-5.99228e-07
-2.27306e-06
-4.02043e-06
-3.06252e-07
-4.0802e-06
-2.17907e-06
-1.67013e-06
-3.86693e-06
-1.2354e-06
-3.29774e-06
-2.18167e-06
-2.12828e-06
-3.18999e-06
-1.1088e-06
-3.34237e-06
-1.69727e-06
-1.58465e-06
-3.45554e-06
-2.07005e-07
-3.126e-06
-1.53742e-06
-1.03464e-06
-2.95756e-06
-2.84153e-07
-2.78815e-06
-4.84904e-07
-2.50694e-06
-1.02309e-06
-1.19512e-06
-3.17309e-06
9.91707e-07
-4.31337e-06
-2.34014e-07
-1.20919e-06
-4.25235e-06
1.13177e-06
-3.98827e-06
-2.14363e-06
-7.94228e-08
-4.92975e-06
-4.82439e-07
-2.24858e-06
-4.12522e-06
-1.45583e-07
-4.15535e-06
-2.11463e-06
-1.64709e-06
-3.89841e-06
-1.13444e-06
-3.36211e-06
-2.11809e-06
-2.10847e-06
-3.25167e-06
-9.88221e-07
-3.43146e-06
-1.66213e-06
-1.52422e-06
-3.59454e-06
-9.66017e-08
-3.16473e-06
-1.5757e-06
-1.01011e-06
-3.01775e-06
-2.48506e-07
-2.86445e-06
-4.40095e-07
-2.57196e-06
-1.02623e-06
-1.19174e-06
-3.25801e-06
1.09209e-06
-4.46169e-06
-1.67817e-07
-1.17704e-06
-4.39709e-06
1.28716e-06
-4.08588e-06
-2.15303e-06
4.25365e-08
-5.06877e-06
-3.78961e-07
-2.24128e-06
-4.17783e-06
-2.6531e-08
-4.18373e-06
-2.0232e-06
-1.69024e-06
-3.84491e-06
-1.07179e-06
-3.42275e-06
-2.00867e-06
-2.13413e-06
-3.27115e-06
-8.77733e-07
-3.52255e-06
-1.6025e-06
-1.48733e-06
-3.71365e-06
-1.139e-08
-3.17376e-06
-1.62229e-06
-1.02132e-06
-3.02693e-06
-2.55554e-07
-2.91755e-06
-4.21875e-07
-2.62685e-06
-1.0342e-06
-1.23387e-06
-3.27152e-06
1.09927e-06
-4.55778e-06
-1.12996e-07
-1.19649e-06
-4.46318e-06
1.3561e-06
-4.14385e-06
-2.14527e-06
9.91628e-08
-5.13335e-06
-3.13207e-07
-2.25526e-06
-4.14892e-06
1.14631e-08
-4.1337e-06
-1.91359e-06
-1.81592e-06
-3.68404e-06
-1.05807e-06
-3.48231e-06
-1.84539e-06
-2.2119e-06
-3.24744e-06
-7.88858e-07
-3.62068e-06
-1.51616e-06
-1.47343e-06
-3.81486e-06
4.41365e-08
-3.14165e-06
-1.69126e-06
-1.06176e-06
-2.98876e-06
-3.16191e-07
-2.91871e-06
-4.53212e-07
-2.63974e-06
-1.07365e-06
-1.30966e-06
-3.19413e-06
9.73912e-07
-4.55232e-06
-1.05671e-07
-1.25926e-06
-4.42492e-06
1.29472e-06
-4.12208e-06
-2.13438e-06
6.89628e-08
-5.08176e-06
-3.23977e-07
-2.27886e-06
-4.01741e-06
-6.99412e-08
-3.95129e-06
-1.81876e-06
-2.0223e-06
-3.40116e-06
-1.13355e-06
-3.51895e-06
-1.65039e-06
-2.33011e-06
-3.18102e-06
-7.04905e-07
-3.70233e-06
-1.4297e-06
-1.4643e-06
-3.89005e-06
6.76524e-08
-3.03287e-06
-1.83229e-06
-1.09078e-06
-2.92309e-06
-4.41893e-07
-2.84352e-06
-5.97103e-07
-2.54175e-06
-1.19001e-06
-1.40633e-06
-2.99865e-06
6.68401e-07
-4.38125e-06
-1.94045e-07
-1.34411e-06
-4.26638e-06
1.06828e-06
-3.97909e-06
-2.13408e-06
-6.81016e-08
-4.86489e-06
-4.55945e-07
-2.29616e-06
-3.75795e-06
-3.25239e-07
-3.61707e-06
-1.75477e-06
-2.30088e-06
-2.98728e-06
-1.35303e-06
-3.5144e-06
-1.44301e-06
-2.48376e-06
-3.05899e-06
-6.77101e-07
-3.74768e-06
-1.35475e-06
-1.47485e-06
-3.9218e-06
-2.14935e-08
-2.80212e-06
-2.07456e-06
-1.09464e-06
-2.81152e-06
-6.78228e-07
-2.62534e-06
-9.1043e-07
-2.30538e-06
-1.38671e-06
-1.53127e-06
-2.67582e-06
1.70577e-07
-4.01709e-06
-4.04119e-07
-1.42059e-06
-4.0036e-06
6.81244e-07
-3.70694e-06
-2.14988e-06
-3.02899e-07
-4.47431e-06
-7.14086e-07
-2.30825e-06
-3.3582e-06
-7.69719e-07
-3.17082e-06
-1.72283e-06
-2.62065e-06
-2.49199e-06
-1.6137e-06
-3.47594e-06
-1.23809e-06
-2.64671e-06
-2.91592e-06
-6.81745e-07
-3.75715e-06
-1.29325e-06
-1.48996e-06
-3.91604e-06
-1.75235e-07
-2.48752e-06
-2.39106e-06
-1.07257e-06
-2.66561e-06
-1.00899e-06
-2.28138e-06
-1.36119e-06
-1.97911e-06
-1.61817e-06
-1.68169e-06
-2.28587e-06
-4.27131e-07
-3.54164e-06
-7.07516e-07
-1.45773e-06
-3.71081e-06
2.08986e-07
-3.35281e-06
-2.18662e-06
-5.9406e-07
-3.98083e-06
-1.05898e-06
-2.30836e-06
-2.86836e-06
-1.34935e-06
-2.68109e-06
-1.71592e-06
-2.93331e-06
-1.99271e-06
-1.85717e-06
-3.42618e-06
-1.05395e-06
-2.77256e-06
-2.79772e-06
-7.02091e-07
-3.7237e-06
-1.26967e-06
-1.49748e-06
-3.88364e-06
-3.54169e-07
-2.13982e-06
-2.73378e-06
-1.02948e-06
-2.5151e-06
-1.37873e-06
-1.86497e-06
-1.86455e-06
-1.6472e-06
-1.81291e-06
-1.86801e-06
-1.90849e-06
-9.83101e-07
-3.08152e-06
-1.04562e-06
-1.43891e-06
-3.47134e-06
-2.35266e-07
-2.98818e-06
-2.24228e-06
-8.85822e-07
-3.4678e-06
-1.42783e-06
-2.30566e-06
-2.35178e-06
-1.97583e-06
-2.19926e-06
-1.72423e-06
-3.21284e-06
-1.5366e-06
-2.0847e-06
-3.34818e-06
-9.43519e-07
-2.80795e-06
-2.72765e-06
-7.52914e-07
-3.61295e-06
-1.32278e-06
-1.5013e-06
-3.8062e-06
-6.0556e-07
-1.77998e-06
-3.0753e-06
-9.73931e-07
-2.37007e-06
-1.76953e-06
-1.40449e-06
-2.38204e-06
-1.35944e-06
-1.91308e-06
-2.09355e-06
-1.5952e-06
-1.40441e-06
-2.67664e-06
-1.37576e-06
-1.36954e-06
-3.31249e-06
-6.03953e-07
-2.66075e-06
-2.31081e-06
-1.15415e-06
-2.97809e-06
-1.77515e-06
-2.32903e-06
-1.82395e-06
-2.60142e-06
-1.72758e-06
-1.74442e-06
-3.46085e-06
-1.12509e-06
-2.3091e-06
-3.20711e-06
-9.79274e-07
-2.69275e-06
-2.72299e-06
-8.66308e-07
-3.38599e-06
-1.50134e-06
-1.46833e-06
-3.67992e-06
-9.36163e-07
-1.43195e-06
-3.37371e-06
-9.31468e-07
-2.23142e-06
-2.15933e-06
-9.34687e-07
-2.87198e-06
-1.1342e-06
-1.93746e-06
-2.32782e-06
-1.40711e-06
-1.63969e-06
-2.49274e-06
-1.66826e-06
-1.22196e-06
-3.25604e-06
-8.90487e-07
-2.36929e-06
-2.38865e-06
-1.4098e-06
-2.49659e-06
-2.11388e-06
-2.36326e-06
-1.30059e-06
-3.21133e-06
-1.29467e-06
-1.80007e-06
-3.60463e-06
-8.23457e-07
-2.51634e-06
-2.96685e-06
-1.20735e-06
-2.41063e-06
-2.75502e-06
-1.12244e-06
-2.91485e-06
-1.84432e-06
-1.37071e-06
-3.49143e-06
-1.13454e-06
-1.11164e-06
-3.60234e-06
-8.79993e-07
-2.16655e-06
-2.46842e-06
-5.23603e-07
-3.30211e-06
-9.94378e-07
-1.86538e-06
-2.55923e-06
-1.36605e-06
-1.64427e-06
-2.39684e-06
-1.97862e-06
-9.63334e-07
-3.34543e-06
-1.07366e-06
-2.12283e-06
-2.46076e-06
-1.64718e-06
-2.04791e-06
-2.41053e-06
-2.42878e-06
-8.06344e-07
-3.75816e-06
-9.42406e-07
-1.91663e-06
-3.57951e-06
-6.81681e-07
-2.71781e-06
-2.61506e-06
-1.67742e-06
-1.94819e-06
-2.82021e-06
-1.51636e-06
-2.24139e-06
-2.33762e-06
-1.27043e-06
-3.21551e-06
-1.57112e-06
-8.23013e-07
-3.7496e-06
-7.92794e-07
-2.23361e-06
-2.61683e-06
-2.45989e-07
-3.62605e-06
-9.55867e-07
-1.71051e-06
-2.77234e-06
-1.49304e-06
-1.41537e-06
-2.43504e-06
-2.26683e-06
-6.42771e-07
-3.50644e-06
-1.20354e-06
-1.89603e-06
-2.55745e-06
-1.83001e-06
-1.6863e-06
-2.59613e-06
-2.5631e-06
-3.71935e-07
-4.32387e-06
-7.47066e-07
-2.02547e-06
-3.44379e-06
-6.61704e-07
-2.93631e-06
-2.03911e-06
-2.387e-06
-1.25943e-06
-2.98298e-06
-1.9814e-06
-1.43378e-06
-2.95548e-06
-1.17054e-06
-2.87634e-06
-2.02125e-06
-7.31802e-07
-3.7162e-06
-7.31808e-07
-2.44399e-06
-2.53678e-06
-1.78019e-07
-3.84253e-06
-9.26693e-07
-1.61155e-06
-2.83922e-06
-1.81251e-06
-9.64798e-07
-2.68998e-06
-2.48125e-06
-3.75078e-07
-3.65365e-06
-1.29597e-06
-1.70896e-06
-2.65047e-06
-1.98447e-06
-1.41742e-06
-2.67617e-06
-2.72468e-06
-4.89558e-08
-4.5298e-06
-8.687e-07
-2.07138e-06
-3.14638e-06
-8.4591e-07
-3.06548e-06
-1.42261e-06
-3.16009e-06
-5.87754e-07
-3.04982e-06
-2.56099e-06
-6.16967e-07
-3.58561e-06
-1.02284e-06
-2.59325e-06
-2.21993e-06
-9.06527e-07
-3.41427e-06
-6.97708e-07
-2.85352e-06
-2.15019e-06
-3.6596e-07
-3.93225e-06
-8.17483e-07
-1.67939e-06
-2.76041e-06
-2.15851e-06
-5.2709e-07
-2.88851e-06
-2.67985e-06
-1.44248e-07
-3.77514e-06
-1.34214e-06
-1.5722e-06
-2.65631e-06
-2.14008e-06
-1.2352e-06
-2.63791e-06
-2.868e-06
1.36653e-09
-4.35633e-06
-1.33891e-06
-2.12062e-06
-2.5768e-06
-1.38201e-06
-2.94239e-06
-1.05974e-06
-3.61312e-06
-3.12946e-07
-2.93487e-06
-2.96706e-06
1.71486e-08
-3.88403e-06
-1.04092e-06
-2.27716e-06
-2.36889e-06
-1.29719e-06
-2.89546e-06
-7.35992e-07
-3.37367e-06
-1.43265e-06
-8.88062e-07
-3.81992e-06
-6.24497e-07
-1.9553e-06
-2.61356e-06
-2.25786e-06
-4.8185e-07
-2.8248e-06
-2.79129e-06
-1.41892e-07
-3.6761e-06
-1.53866e-06
-1.47802e-06
-2.63737e-06
-2.23406e-06
-1.25961e-06
-2.37071e-06
-2.98626e-06
-3.23326e-07
-3.6841e-06
-2.08673e-06
-2.14345e-06
-1.8577e-06
-2.07888e-06
-2.59406e-06
-1.09428e-06
-3.45069e-06
-5.52154e-07
-2.79544e-06
-2.84754e-06
-3.38072e-07
-3.523e-06
-1.4434e-06
-2.0087e-06
-2.25862e-06
-1.99638e-06
-2.10386e-06
-1.02145e-06
-3.84745e-06
-5.65184e-07
-1.80903e-06
-3.50531e-06
-3.51266e-07
-2.52392e-06
-2.29812e-06
-2.15566e-06
-8.32912e-07
-2.64756e-06
-2.63043e-06
-5.44462e-07
-3.25978e-06
-1.78753e-06
-1.51488e-06
-2.48555e-06
-2.29388e-06
-1.53794e-06
-1.85963e-06
-3.09793e-06
-9.86227e-07
-2.5558e-06
-3.11312e-06
-1.92519e-06
-1.46252e-06
-2.59695e-06
-2.11916e-06
-1.75353e-06
-2.53466e-06
-1.41705e-06
-2.5752e-06
-2.15441e-06
-1.48118e-06
-2.62379e-06
-1.86441e-06
-1.87041e-06
-2.00412e-06
-2.74107e-06
-1.2189e-06
-1.61306e-06
-3.91469e-06
1.61458e-07
-2.86833e-06
-2.8005e-06
-6.75623e-08
-3.43488e-06
-1.62017e-06
-1.98898e-06
-1.52334e-06
-2.23638e-06
-2.44465e-06
-1.06046e-06
-2.79321e-06
-1.7765e-06
-1.79589e-06
-2.15978e-06
-2.14602e-06
-2.21533e-06
-1.01302e-06
-3.21632e-06
-1.92394e-06
-1.00674e-06
-3.62884e-06
-2.03684e-06
-2.55741e-06
-3.0206e-06
-2.00537e-06
-3.05739e-06
-2.05557e-06
-2.67888e-06
-2.38616e-06
-1.86735e-06
-2.87642e-06
-1.4307e-06
-2.31535e-06
-2.20559e-06
-1.02487e-06
-2.74149e-06
-9.5503e-07
-1.77786e-06
-1.89014e-06
-8.38115e-07
-2.26806e-06
-6.10559e-07
-2.23539e-06
-8.67258e-07
-1.60186e-06
-2.06236e-06
-3.91584e-07
-3.07071e-06
-5.96742e-07
-1.99778e-06
-2.68348e-06
-4.99233e-07
-3.31956e-06
-1.75491e-06
-1.48107e-06
-3.705e-06
-1.12067e-06
-2.87221e-06
-3.04715e-06
-1.43178e-06
-3.62551e-06
-2.0407e-06
-2.5538e-06
-3.02249e-06
-2.0057e-06
-3.05657e-06
-2.05834e-06
-2.67732e-06
-2.38952e-06
-1.86712e-06
-2.87755e-06
-1.43413e-06
-2.31388e-06
-2.20968e-06
-1.02581e-06
-2.74126e-06
-9.59998e-07
-1.77575e-06
-1.89378e-06
-8.39013e-07
-2.26773e-06
-6.1393e-07
-2.23291e-06
-8.71304e-07
-1.5988e-06
-2.06465e-06
-3.91616e-07
-3.06741e-06
-6.01536e-07
-1.99169e-06
-2.6861e-06
-4.99091e-07
-3.31445e-06
-1.75943e-06
-1.47669e-06
-3.70368e-06
-1.12376e-06
-2.86611e-06
-3.05011e-06
-1.43091e-06
-3.6248e-06
-2.04531e-06
-2.54776e-06
-3.02772e-06
-2.00358e-06
-3.05771e-06
-2.06058e-06
-2.67553e-06
-2.39499e-06
-1.86408e-06
-2.88184e-06
-1.43633e-06
-2.31148e-06
-2.21722e-06
-1.02275e-06
-2.74402e-06
-9.64623e-07
-1.77171e-06
-1.90054e-06
-8.3657e-07
-2.27022e-06
-6.15059e-07
-2.23166e-06
-8.75518e-07
-1.59314e-06
-2.07151e-06
-3.86037e-07
-3.06797e-06
-6.05896e-07
-1.98155e-06
-2.69509e-06
-4.93203e-07
-3.31097e-06
-1.76721e-06
-1.46587e-06
-3.70815e-06
-1.12491e-06
-2.85743e-06
-3.05858e-06
-1.42502e-06
-3.62702e-06
-2.05149e-06
-2.53775e-06
-3.0375e-06
-1.99826e-06
-3.06077e-06
-2.06239e-06
-2.67278e-06
-2.40309e-06
-1.85729e-06
-2.88961e-06
-1.43713e-06
-2.30722e-06
-2.22913e-06
-1.01456e-06
-2.74986e-06
-9.69327e-07
-1.76436e-06
-1.91168e-06
-8.2994e-07
-2.27555e-06
-6.14267e-07
-2.23094e-06
-8.80807e-07
-1.58374e-06
-2.08427e-06
-3.73873e-07
-3.07273e-06
-6.10816e-07
-1.96553e-06
-2.71286e-06
-4.80237e-07
-3.30915e-06
-1.78e-06
-1.44641e-06
-3.72008e-06
-1.12411e-06
-2.84476e-06
-3.07476e-06
-1.41262e-06
-3.63304e-06
-2.05956e-06
-2.52259e-06
-3.05308e-06
-1.98868e-06
-3.06617e-06
-2.06371e-06
-2.66857e-06
-2.41452e-06
-1.84562e-06
-2.90163e-06
-1.43612e-06
-2.30054e-06
-2.24649e-06
-9.9987e-07
-2.75951e-06
-9.7417e-07
-1.75274e-06
-1.92845e-06
-8.18e-07
-2.28442e-06
-6.11254e-07
-2.23064e-06
-8.87763e-07
-1.56963e-06
-2.1046e-06
-3.53647e-07
-3.08277e-06
-6.16603e-07
-1.94218e-06
-2.74195e-06
-4.58281e-07
-3.30967e-06
-1.79898e-06
-1.41622e-06
-3.74161e-06
-1.12066e-06
-2.82725e-06
-3.10053e-06
-1.39185e-06
-3.64436e-06
-2.06936e-06
-2.50128e-06
-3.07582e-06
-1.97344e-06
-3.07472e-06
-2.06409e-06
-2.66254e-06
-2.42999e-06
-1.82769e-06
-2.919e-06
-1.4325e-06
-2.29097e-06
-2.27043e-06
-9.76921e-07
-2.77413e-06
-9.78727e-07
-1.73614e-06
-1.95208e-06
-7.99283e-07
-2.29799e-06
-6.05323e-07
-2.23118e-06
-8.96632e-07
-1.54993e-06
-2.13418e-06
-3.23318e-07
-3.09993e-06
-6.22957e-07
-1.91033e-06
-2.78501e-06
-4.24885e-07
-3.31394e-06
-1.82495e-06
-1.37319e-06
-3.77535e-06
-1.11328e-06
-2.80452e-06
-3.13782e-06
-1.36052e-06
-3.66276e-06
-2.08058e-06
-2.47291e-06
-3.10722e-06
-1.95093e-06
-3.08744e-06
-2.06291e-06
-2.65433e-06
-2.45027e-06
-1.80185e-06
-2.94302e-06
-1.4253e-06
-2.27802e-06
-2.30215e-06
-9.43719e-07
-2.79498e-06
-9.82381e-07
-1.71384e-06
-1.98383e-06
-7.72133e-07
-2.31758e-06
-5.95426e-07
-2.23313e-06
-9.07537e-07
-1.52373e-06
-2.17509e-06
-2.80542e-07
-3.12642e-06
-6.29358e-07
-1.86886e-06
-2.84471e-06
-3.77334e-07
-3.32368e-06
-1.85866e-06
-1.31508e-06
-3.82423e-06
-1.10046e-06
-2.77636e-06
-3.18859e-06
-1.31626e-06
-3.6902e-06
-2.09277e-06
-2.43662e-06
-3.14884e-06
-1.91938e-06
-3.10562e-06
-2.05941e-06
-2.64364e-06
-2.4763e-06
-1.76621e-06
-2.97518e-06
-1.41343e-06
-2.2612e-06
-2.34295e-06
-8.98102e-07
-2.82348e-06
-9.84409e-07
-1.68519e-06
-2.02494e-06
-7.34774e-07
-2.34466e-06
-5.80333e-07
-2.23717e-06
-9.20476e-07
-1.49011e-06
-2.22941e-06
-2.22734e-07
-3.16469e-06
-6.35046e-07
-1.8167e-06
-2.92421e-06
-3.12635e-07
-3.34082e-06
-1.90077e-06
-1.2396e-06
-3.89137e-06
-1.08054e-06
-2.74267e-06
-3.25487e-06
-1.25653e-06
-3.72875e-06
-2.10525e-06
-2.39183e-06
-3.20227e-06
-1.8769e-06
-3.13083e-06
-2.05271e-06
-2.63028e-06
-2.50918e-06
-1.71876e-06
-3.01722e-06
-1.39574e-06
-2.24008e-06
-2.39423e-06
-8.37875e-07
-2.86113e-06
-9.8397e-07
-1.64975e-06
-2.07651e-06
-6.85431e-07
-2.38069e-06
-5.58672e-07
-2.24416e-06
-9.35184e-07
-1.44831e-06
-2.29907e-06
-1.47108e-07
-3.21746e-06
-6.38853e-07
-1.7529e-06
-3.02647e-06
-2.27518e-07
-3.36748e-06
-1.95162e-06
-1.14458e-06
-3.97986e-06
-1.05166e-06
-2.70359e-06
-3.33849e-06
-1.17888e-06
-3.78056e-06
-2.11703e-06
-2.33839e-06
-3.26884e-06
-1.8216e-06
-3.16497e-06
-2.04174e-06
-2.61426e-06
-2.55019e-06
-1.65744e-06
-3.0711e-06
-1.37121e-06
-2.21448e-06
-2.45739e-06
-7.61092e-07
-2.90942e-06
-9.80164e-07
-1.6075e-06
-2.13938e-06
-6.22638e-07
-2.42708e-06
-5.28975e-07
-2.2552e-06
-9.50945e-07
-1.39795e-06
-2.38561e-06
-5.08505e-08
-3.28756e-06
-6.39063e-07
-1.67688e-06
-3.15398e-06
-1.1869e-07
-3.40574e-06
-2.01097e-06
-1.0282e-06
-4.09237e-06
-1.01182e-06
-2.65964e-06
-3.44057e-06
-1.08118e-06
-3.84746e-06
-2.12631e-06
-2.27727e-06
-3.34897e-06
-1.75171e-06
-3.21014e-06
-2.02528e-06
-2.59581e-06
-2.60085e-06
-1.58036e-06
-3.1388e-06
-1.33909e-06
-2.18455e-06
-2.5338e-06
-6.66449e-07
-2.96979e-06
-9.72222e-07
-1.55917e-06
-2.21385e-06
-5.45719e-07
-2.48499e-06
-4.8983e-07
-2.27193e-06
-9.66431e-07
-1.33934e-06
-2.48981e-06
6.86395e-08
-3.3777e-06
-6.33439e-07
-1.58839e-06
-3.3081e-06
1.68334e-08
-3.45738e-06
-2.07768e-06
-8.8944e-07
-4.23041e-06
-9.59009e-07
-2.61176e-06
-3.56094e-06
-9.61947e-07
-3.93041e-06
-2.1304e-06
-2.20988e-06
-3.44205e-06
-1.66577e-06
-3.26839e-06
-2.00191e-06
-2.5752e-06
-2.66263e-06
-1.48615e-06
-3.222e-06
-1.29924e-06
-2.15091e-06
-2.62463e-06
-5.5373e-07
-3.04333e-06
-9.59905e-07
-1.50655e-06
-2.29939e-06
-4.55498e-07
-2.55521e-06
-4.40041e-07
-2.29678e-06
-9.7975e-07
-1.27373e-06
-2.61164e-06
2.13219e-07
-3.49008e-06
-6.19475e-07
-1.48814e-06
-3.4885e-06
1.79978e-07
-3.52331e-06
-2.14927e-06
-7.28733e-07
-4.39347e-06
-8.91328e-07
-2.56161e-06
-3.69723e-06
-8.20927e-07
-4.02919e-06
-2.12533e-06
-2.13902e-06
-3.54574e-06
-1.56295e-06
-3.34136e-06
-1.97036e-06
-2.55262e-06
-2.73629e-06
-1.37445e-06
-3.32132e-06
-1.25227e-06
-2.11454e-06
-2.7306e-06
-4.24488e-07
-3.13009e-06
-9.43906e-07
-1.45292e-06
-2.39401e-06
-3.55193e-07
-2.63809e-06
-3.78868e-07
-2.33302e-06
-9.89011e-07
-1.20341e-06
-2.75005e-06
3.82598e-07
-3.62509e-06
-5.95345e-07
-1.37787e-06
-3.69212e-06
3.6934e-07
-3.60309e-06
-2.22516e-06
-5.48948e-07
-4.57795e-06
-8.07254e-07
-2.51172e-06
-3.8437e-06
-6.59769e-07
-4.14131e-06
-2.10638e-06
-2.06832e-06
-3.65467e-06
-1.44443e-06
-3.42764e-06
-1.92979e-06
-2.52842e-06
-2.82034e-06
-1.2469e-06
-3.43542e-06
-1.19985e-06
-2.07642e-06
-2.85129e-06
-2.8291e-07
-3.22784e-06
-9.26392e-07
-1.40338e-06
-2.49365e-06
-2.50863e-07
-2.73296e-06
-3.0705e-07
-2.38364e-06
-9.93772e-07
-1.13191e-06
-2.90111e-06
5.71222e-07
-3.7794e-06
-5.60658e-07
-1.26227e-06
-3.91058e-06
5.7849e-07
-3.69424e-06
-2.29627e-06
-3.56814e-07
-4.77607e-06
-7.062e-07
-2.46583e-06
-3.99069e-06
-4.83151e-07
-4.25944e-06
-2.06998e-06
-2.00299e-06
-3.75761e-06
-1.31637e-06
-3.52098e-06
-1.87899e-06
-2.5045e-06
-2.90852e-06
-1.10867e-06
-3.55987e-06
-1.14486e-06
-2.03772e-06
-2.9831e-06
-1.37336e-07
-3.3303e-06
-9.11508e-07
-1.3645e-06
-2.59153e-06
-1.52002e-07
-2.83695e-06
-2.2917e-07
-2.44864e-06
-9.96268e-07
-1.06613e-06
-3.05392e-06
7.64628e-07
-3.94441e-06
-5.16005e-07
-1.15202e-06
-4.12849e-06
7.94112e-07
-3.79236e-06
-2.35524e-06
-1.64237e-07
-4.97536e-06
-5.90416e-07
-2.4283e-06
-4.12443e-06
-3.00252e-07
-4.36812e-06
-2.01519e-06
-1.95229e-06
-3.8342e-06
-1.19275e-06
-3.60978e-06
-1.81565e-06
-2.48788e-06
-2.98694e-06
-9.70366e-07
-3.68535e-06
-1.08937e-06
-2.00186e-06
-3.11674e-06
-1.08855e-09
-3.42546e-06
-9.05932e-07
-1.34316e-06
-2.67726e-06
-7.32172e-08
-2.94079e-06
-1.5732e-07
-2.52289e-06
-9.98523e-07
-1.02139e-06
-3.18712e-06
9.3061e-07
-4.10692e-06
-4.61317e-07
-1.06588e-06
-4.3232e-06
9.95329e-07
-3.89058e-06
-2.39448e-06
1.09694e-08
-5.15649e-06
-4.69188e-07
-2.4026e-06
-4.22629e-06
-1.29339e-07
-4.44296e-06
-1.94376e-06
-1.93425e-06
-3.85295e-06
-1.09644e-06
-3.68163e-06
-1.73185e-06
-2.49405e-06
-3.03477e-06
-8.47243e-07
-3.79814e-06
-1.03493e-06
-1.97586e-06
-3.2369e-06
1.07159e-07
-3.49302e-06
-9.1801e-07
-1.34618e-06
-2.73357e-06
-3.64137e-08
-3.02466e-06
-1.09528e-07
-2.59942e-06
-9.96281e-07
-1.02096e-06
-3.27122e-06
1.03835e-06
-4.25201e-06
-3.95246e-07
-1.02691e-06
-4.46748e-06
1.15506e-06
-3.97785e-06
-2.40803e-06
1.43734e-07
-5.29136e-06
-3.61731e-07
-2.39137e-06
-4.271e-06
-2.62918e-09
-4.45719e-06
-1.85682e-06
-1.97525e-06
-3.7795e-06
-1.04928e-06
-3.73339e-06
-1.60988e-06
-2.54747e-06
-3.0318e-06
-7.51924e-07
-3.89515e-06
-9.6756e-07
-1.97153e-06
-3.32683e-06
1.69258e-07
-3.51077e-06
-9.52657e-07
-1.3802e-06
-2.74067e-06
-6.65217e-08
-3.06597e-06
-1.00612e-07
-2.66943e-06
-9.88211e-07
-1.08106e-06
-3.27882e-06
1.04079e-06
-4.35937e-06
-3.24414e-07
-1.04737e-06
-4.53595e-06
1.24076e-06
-4.0333e-06
-2.39691e-06
2.07043e-07
-5.34418e-06
-2.95876e-07
-2.39692e-06
-4.23045e-06
2.72193e-08
-4.37561e-06
-1.7694e-06
-2.08294e-06
-3.59903e-06
-1.06078e-06
-3.76867e-06
-1.44545e-06
-2.65145e-06
-2.98031e-06
-6.79801e-07
-3.98125e-06
-8.89216e-07
-1.98079e-06
-3.39044e-06
1.81399e-07
-3.45947e-06
-1.02831e-06
-1.43095e-06
-2.70182e-06
-1.66109e-07
-3.04427e-06
-1.5939e-07
-2.69835e-06
-1.00167e-06
-1.19481e-06
-3.18669e-06
9.20944e-07
-4.38246e-06
-2.79177e-07
-1.12382e-06
-4.50204e-06
1.20508e-06
-4.01607e-06
-2.37325e-06
1.75853e-07
-5.26817e-06
-3.18783e-07
-2.40299e-06
-4.08862e-06
-5.97645e-08
-4.13783e-06
-1.72579e-06
-2.24283e-06
-3.30333e-06
-1.16054e-06
-3.75596e-06
-1.27094e-06
-2.77985e-06
-2.89087e-06
-6.29579e-07
-4.03319e-06
-8.40203e-07
-1.97181e-06
-3.44074e-06
1.44473e-07
-3.37279e-06
-1.2069e-06
-1.44973e-06
-2.6376e-06
-3.48602e-07
-2.90864e-06
-3.55746e-07
-2.62035e-06
-1.07351e-06
-1.35777e-06
-2.96269e-06
6.25503e-07
-4.26791e-06
-2.98015e-07
-1.24898e-06
-4.33997e-06
9.78756e-07
-3.89042e-06
-2.34397e-06
1.97357e-08
-5.0057e-06
-4.85078e-07
-2.38745e-06
-3.82263e-06
-3.32577e-07
-3.72477e-06
-1.74595e-06
-2.456e-06
-2.88494e-06
-1.46615e-06
-3.66291e-06
-1.10697e-06
-2.931e-06
-2.75669e-06
-6.35796e-07
-4.02256e-06
-8.31292e-07
-1.9501e-06
-3.45391e-06
-9.27845e-09
-3.06847e-06
-1.51667e-06
-1.41935e-06
-2.53746e-06
-6.53861e-07
-2.61044e-06
-7.3211e-07
-2.40818e-06
-1.20988e-06
-1.57032e-06
-2.60384e-06
1.52575e-07
-4.00169e-06
-4.0821e-07
-1.39172e-06
-4.0633e-06
6.24611e-07
-3.6491e-06
-2.31716e-06
-2.58091e-07
-4.54671e-06
-7.97151e-07
-2.35037e-06
-3.42228e-06
-8.06257e-07
-3.18805e-06
-1.81658e-06
-2.69344e-06
-2.39158e-06
-1.7566e-06
-3.53388e-06
-9.63271e-07
-3.0736e-06
-2.60987e-06
-6.75132e-07
-3.96455e-06
-8.38307e-07
-1.93182e-06
-3.44259e-06
-2.26987e-07
-2.68165e-06
-1.91939e-06
-1.34589e-06
-2.41372e-06
-1.05472e-06
-2.17672e-06
-1.25188e-06
-2.10404e-06
-1.37788e-06
-1.81489e-06
-2.17489e-06
-4.12442e-07
-3.64499e-06
-5.96547e-07
-1.51114e-06
-3.75324e-06
1.94399e-07
-3.33603e-06
-2.30783e-06
-5.97574e-07
-3.97833e-06
-1.21033e-06
-2.2894e-06
-2.94189e-06
-1.41061e-06
-2.60935e-06
-1.90762e-06
-2.91698e-06
-1.90797e-06
-2.04505e-06
-3.40747e-06
-8.42071e-07
-3.16853e-06
-2.49858e-06
-7.19905e-07
-3.87453e-06
-8.76389e-07
-1.89863e-06
-3.42351e-06
-4.68688e-07
-2.27038e-06
-2.34878e-06
-1.24641e-06
-2.29052e-06
-1.48718e-06
-1.67744e-06
-1.82417e-06
-1.78682e-06
-1.52151e-06
-2.08071e-06
-1.76107e-06
-9.38298e-07
-3.32178e-06
-8.17514e-07
-1.56648e-06
-3.50182e-06
-2.09268e-07
-3.01524e-06
-2.31631e-06
-9.30225e-07
-3.39059e-06
-1.64752e-06
-2.22019e-06
-2.44522e-06
-2.05557e-06
-2.05072e-06
-2.00306e-06
-3.11268e-06
-1.47601e-06
-2.30259e-06
-3.27112e-06
-7.91737e-07
-3.16335e-06
-2.44877e-06
-7.79474e-07
-3.72479e-06
-1.04816e-06
-1.85028e-06
-3.37377e-06
-7.4271e-07
-1.86006e-06
-2.77361e-06
-1.13116e-06
-2.17826e-06
-1.92679e-06
-1.15169e-06
-2.39632e-06
-1.507e-06
-1.60422e-06
-2.36722e-06
-1.41873e-06
-1.33034e-06
-2.92363e-06
-1.0448e-06
-1.53576e-06
-3.34427e-06
-5.43812e-07
-2.71778e-06
-2.34142e-06
-1.22693e-06
-2.84797e-06
-2.04208e-06
-2.18603e-06
-1.93379e-06
-2.69167e-06
-1.53015e-06
-2.08534e-06
-3.2865e-06
-1.09449e-06
-2.53534e-06
-3.08155e-06
-8.8351e-07
-2.98836e-06
-2.49179e-06
-8.70327e-07
-3.4668e-06
-1.31118e-06
-1.73601e-06
-3.29387e-06
-1.04487e-06
-1.47808e-06
-3.15558e-06
-1.02232e-06
-2.08007e-06
-2.34607e-06
-6.41662e-07
-2.93431e-06
-1.27123e-06
-1.63028e-06
-2.62554e-06
-1.2172e-06
-1.55276e-06
-2.78353e-06
-1.31013e-06
-1.40109e-06
-3.29747e-06
-8.0587e-07
-2.43811e-06
-2.4175e-06
-1.47679e-06
-2.34949e-06
-2.40108e-06
-2.17991e-06
-1.43464e-06
-3.29284e-06