/*--------------------------------*- C++ -*----------------------------------*\
  =========                 |
  \\      /  F ield         | OpenFOAM: The Open Source CFD Toolbox
   \\    /   O peration     | Website:  https://openfoam.org
    \\  /    A nd           | Version:  10
     \\/     M anipulation  |
\*---------------------------------------------------------------------------*/
FoamFile
{
    format      ascii;
    class       volScalarField;
    location    "6";
    object      p;
}
// * * * * * * * * * * * * * * * * * * * * * * * * * * * * * * * * * * * * * //

dimensions      [0 2 -2 0 0 0 0];

internalField   nonuniform List<scalar> 
25600
(
0.00111406
0.00142499
-0.00112993
-0.00351293
-0.00137654
0.00367595
0.00235133
0.000311164
0.00279656
0.00540184
0.00263804
-0.00180331
-0.00138702
0.000885376
0.00447866
0.00778352
0.00362224
0.00424447
0.00839034
0.00367732
-0.00105649
-0.0024228
-0.00378483
-0.00226599
-0.00269369
-0.00557611
-0.00364451
1.12621e-05
0.00137987
0.0027574
0.00192006
0.00145865
0.00192259
0.00011931
0.000745869
5.81251e-06
-0.00247375
-0.00219632
-0.000402921
0.000350606
0.00109793
0.00141176
-0.00115964
-0.00356804
-0.00140555
0.00367688
0.00235225
0.000281573
0.0027916
0.00540848
0.00265571
-0.00180379
-0.00139022
0.000824553
0.00441817
0.00779756
0.00363964
0.00422036
0.00840526
0.00373685
-0.00103014
-0.00242198
-0.00378235
-0.00225767
-0.0027175
-0.00562243
-0.00364742
2.77468e-05
0.00137088
0.002754
0.00197039
0.00148908
0.0019642
0.000139756
0.000757151
2.88187e-05
-0.00248728
-0.00222147
-0.000412707
0.000348788
0.0010745
0.00142323
-0.00113827
-0.00365708
-0.00154037
0.00363027
0.00234881
0.000208568
0.00270866
0.00540578
0.0027014
-0.00180813
-0.00137412
0.000726851
0.00434387
0.00783436
0.00365303
0.00417324
0.00844313
0.00380653
-0.00104673
-0.00247096
-0.00379055
-0.00223148
-0.00276568
-0.00571991
-0.00373426
8.63061e-05
0.001329
0.00273697
0.00203689
0.0015087
0.00190201
2.32892e-05
0.000713962
9.41613e-06
-0.00257575
-0.00228937
-0.000438085
0.000351244
0.001046
0.0014543
-0.00104712
-0.00366766
-0.00178177
0.00335148
0.00221613
5.77572e-05
0.0026617
0.00539302
0.00276932
-0.00181997
-0.00128497
0.000639866
0.00434604
0.00789474
0.0036212
0.00414153
0.00848377
0.00387305
-0.00113119
-0.00256901
-0.0037848
-0.00220732
-0.00284795
-0.00578637
-0.00393689
-7.13844e-05
0.00133688
0.0027055
0.00212791
0.00156161
0.00174468
-0.000356592
0.000537299
-7.89408e-05
-0.00275602
-0.00239351
-0.000486535
0.000352879
0.0010167
0.00147214
-0.000900972
-0.00351606
-0.00202719
0.00281637
0.00201573
-0.00026814
0.00253196
0.00529344
0.00279148
-0.00179491
-0.00120103
0.000519423
0.00439383
0.00797193
0.00368584
0.00407036
0.00845496
0.00392073
-0.00115993
-0.00267312
-0.00373778
-0.00211868
-0.00294991
-0.00576602
-0.00404216
-0.000301972
0.0010233
0.00239806
0.00214678
0.00181583
0.00183936
-0.000942014
6.4349e-05
-0.000306782
-0.00298019
-0.00249297
-0.000531761
0.000352394
0.00100387
0.00153999
-0.000773793
-0.00330171
-0.00194953
0.00227252
0.00179206
-0.000856675
0.00227314
0.00519354
0.00273508
-0.00179123
-0.00124157
0.000374804
0.00430944
0.00791953
0.00361228
0.00405306
0.00832725
0.00376739
-0.00106215
-0.00253231
-0.003642
-0.00212795
-0.00306979
-0.00563438
-0.00397061
-0.000382945
0.000795388
0.00173483
0.0019799
0.00224629
0.00244393
-0.00128375
-0.000726944
-0.000753038
-0.00321139
-0.0025836
-0.00056902
0.000306217
0.000977714
0.00175808
-0.000580987
-0.00316108
-0.00160777
0.00202059
0.00175835
-0.00109365
0.00193507
0.00504142
0.00260973
-0.00191058
-0.00140723
-0.000104965
0.00427534
0.00773941
0.00338923
0.00414754
0.00827601
0.00350023
-0.0011073
-0.00224511
-0.00338931
-0.00214966
-0.00328761
-0.00549975
-0.00374627
-0.000345039
0.00064552
0.00089562
0.00160116
0.00274048
0.00337729
-0.00102975
-0.00168713
-0.00147716
-0.00320225
-0.00263308
-0.00065726
0.000185231
0.000848349
0.00186816
-0.00027984
-0.00294529
-0.00123238
0.00203923
0.00213367
-0.000993812
0.00169028
0.00487396
0.00249183
-0.00218122
-0.00155996
-0.00090798
0.00318511
0.00718101
0.00318645
0.00440071
0.00834138
0.00332168
-0.0013803
-0.002155
-0.00302163
-0.00238021
-0.00356716
-0.00557608
-0.00351558
-0.000215084
0.00054168
0.000239223
0.0011047
0.00292729
0.00426193
-0.00033737
-0.00249642
-0.00246649
-0.00321108
-0.00261383
-0.000798197
-5.12546e-05
0.000591526
0.00184081
5.00542e-05
-0.00259315
-0.000895413
0.00215809
0.00289503
-0.000757982
0.00149928
0.00473122
0.00247003
-0.00236024
-0.00165352
-0.00140566
0.00187283
0.00627169
0.00299767
0.00467415
0.00881725
0.00332272
-0.00187953
-0.00236066
-0.00268812
-0.00220289
-0.00376039
-0.00576271
-0.0033784
-1.07838e-05
0.000455665
-6.89756e-05
0.000556887
0.00284168
0.0046433
0.000395526
-0.00287744
-0.00351528
-0.00326748
-0.00245697
-0.000866757
-0.000354983
0.000248662
0.00167612
0.000501178
-0.00219587
-0.000768608
0.00232571
0.00347792
-0.000574641
0.00128209
0.00449738
0.00229167
-0.00181989
-0.00174841
-0.00159867
0.000561577
0.00515289
0.00271292
0.00477295
0.00872886
0.0032081
-0.00232685
-0.00273659
-0.00250128
-0.00182249
-0.00368279
-0.00569469
-0.00336185
0.000275024
0.000422881
-0.000110725
-3.6992e-05
0.00255024
0.00468269
0.000862695
-0.00291444
-0.00415813
-0.003163
-0.00202847
-0.000665143
-0.000609338
1.51077e-05
0.00149395
0.00101247
-0.00167537
-0.000715887
0.00244987
0.00328269
-0.000557649
0.00096496
0.00424929
0.00196189
-0.00177312
-0.00184315
-0.00154931
-0.000375359
0.00401312
0.00213382
0.00462732
0.00817197
0.00279763
-0.00252583
-0.00307221
-0.0024535
-0.00182028
-0.0034301
-0.00545046
-0.00335061
0.000417488
0.000414315
0.000112362
-0.00100913
0.00230208
0.00452842
0.00103303
-0.00283762
-0.00431834
-0.00269936
-0.00115982
-3.90698e-05
-0.000329909
0.000142376
0.001382
0.00140146
-0.00107793
-0.000752353
0.00239015
0.00265633
-0.000535634
0.00040097
0.00393898
0.00164222
-0.00176784
-0.00192596
-0.00118611
-0.00101704
0.00290023
0.00125348
0.00425178
0.00746346
0.00221439
-0.00249493
-0.00294045
-0.0024227
-0.00232203
-0.00350125
-0.00493874
-0.0033395
0.000352592
0.000380875
0.000522936
-0.00146641
0.00215247
0.00449954
0.000891018
-0.00279918
-0.00425514
-0.00215929
-0.000754757
0.000566747
0.000458863
0.000490901
0.00131621
0.00139537
-0.000634665
-0.000780912
0.00220064
0.00238562
-0.000532711
-0.000368904
0.00346737
0.00130593
-0.00172102
-0.00216405
-0.000674414
-0.0011204
0.00182615
0.000574872
0.00358621
0.00669708
0.00165514
-0.00246767
-0.00230567
-0.00236517
-0.00305529
-0.00391335
-0.00430205
-0.00313269
6.51413e-05
0.00047735
0.00113338
-0.00121385
0.00212266
0.00463103
0.0011497
-0.00239454
-0.00397921
-0.0020759
-0.000935614
0.000716665
0.00115451
0.000878737
0.00107072
0.00108406
-0.000345166
-0.000689302
0.00187176
0.00203524
-0.000434734
-0.000907993
0.00245512
0.000817156
-0.00185368
-0.00246238
-0.000260501
-0.00088874
0.00081311
-0.00139045
0.0023247
0.00571998
0.00124902
-0.00252765
-0.00159717
-0.00152466
-0.00334193
-0.00401019
-0.00345194
-0.00262858
-0.000384071
0.000911767
0.00175235
-0.000478735
0.00219419
0.00479464
0.00172759
-0.00170099
-0.00310674
-0.00192445
-0.000914881
0.00049486
0.00157693
0.00113663
0.000864688
0.000588558
-0.000226659
-0.000673376
0.00148278
0.00157564
-0.000344777
-0.000869522
0.00135248
0.000180459
-0.00211705
-0.0024413
0.000151827
-0.000324274
5.93218e-05
-0.0038704
0.000850915
0.00465471
0.000909316
-0.00250568
-0.00113857
-0.00159404
-0.00358157
-0.00405478
-0.00265238
-0.00197516
-0.000694112
0.00103738
0.00184597
-0.00016817
0.00178092
0.00450382
0.00230256
-0.000652313
-0.00245029
-0.0020833
-0.00034871
0.000370412
0.00170191
0.00121272
0.00060115
-0.000183545
-0.000792765
-0.00080335
0.00104234
0.00116319
-0.000191698
-0.000366527
0.000634468
-0.000454792
-0.00228316
-0.00201039
0.000756078
0.000592994
-4.78878e-05
-0.00393477
-0.000272146
0.00371822
0.000604169
-0.00243691
-0.00108325
-0.0020507
-0.00411222
-0.00420839
-0.00234271
-0.00138294
-0.000974816
0.000705172
0.00116473
-0.00079703
0.00084374
0.00377131
0.00280097
0.000675639
-0.0018663
-0.00281913
0.000222821
0.000523373
0.00122891
0.00128672
0.000507619
-0.00067491
-0.00136139
-0.00103103
0.000557503
0.000942403
-2.26481e-05
0.000194301
0.000229098
-0.000925091
-0.00216605
-0.00107432
0.00159327
0.0017261
0.000418813
-0.00307972
-0.000708331
0.00308668
0.000450851
-0.0022633
-0.00127876
-0.00240333
-0.00424141
-0.00404592
-0.00228644
-0.00102997
-0.0011632
0.000283091
0.000478329
-0.00156424
0.000511779
0.00314172
0.00321383
0.00190448
-0.00104658
-0.00182753
0.000301516
0.000659915
0.00117557
0.00134534
0.000811785
-0.000691889
-0.00177356
-0.00125512
7.978e-05
0.00072685
0.000226142
0.000395995
-3.48537e-05
-0.00136883
-0.00237577
-0.000361818
0.00234089
0.00276977
0.00144533
-0.0016469
-0.000249521
0.00311005
0.000483508
-0.00218233
-0.00110208
-0.00211821
-0.00414093
-0.00357045
-0.00231923
-0.00147434
-0.00167401
-2.6295e-05
0.000155302
-0.00202275
0.000689736
0.00312655
0.00404195
0.00214807
-0.000218792
-0.00128391
9.85159e-05
0.000622436
0.00126847
0.000945016
0.000876402
-0.000495925
-0.00208201
-0.00156217
-0.000348513
0.000367552
0.000329764
0.000339397
-0.000355337
-0.00180677
-0.00273098
-0.000631923
0.00203213
0.00323685
0.00332917
0.000549821
0.000111823
0.00267976
-5.20045e-05
-0.00282227
-0.00104375
-0.0015396
-0.00396581
-0.0037216
-0.00257869
-0.00224058
-0.00220096
0.000109276
0.000474095
-0.00284478
-0.00110869
0.00272093
0.00552814
0.00298225
0.000693253
-0.00073856
4.96013e-05
0.000767301
0.000675471
0.000796795
0.000620353
-0.000306875
-0.00201881
-0.0016003
-0.000108029
0.000179946
0.000426194
0.000508239
-0.000186563
-0.00217998
-0.00300157
-0.00054186
0.00219536
0.00304539
0.00372093
0.00207256
0.000427738
0.00212254
-0.000222054
-0.00307672
-0.00160326
-0.00141311
-0.00336093
-0.00372577
-0.00314782
-0.0028404
-0.00200648
0.000512123
0.000408032
-0.00344816
-0.00315943
0.000174064
0.00372665
0.00311987
0.00149356
-3.81932e-06
3.85777e-05
0.000543431
0.000677694
0.000415078
0.000408013
5.42335e-05
-0.00142117
-0.00114412
-0.000169788
5.75149e-05
0.000473136
0.000354685
-0.000187782
-0.00155187
-0.00259235
-0.000440245
0.00240631
0.00300612
0.00335765
0.00265732
0.000744303
0.00168543
0.000268443
-0.002285
-0.00150409
-0.00148847
-0.00277142
-0.00317453
-0.00314652
-0.00275562
-0.00186753
-0.00115147
-0.000828571
-0.00256595
-0.00269043
-0.00110794
0.00180478
0.00261477
0.00127264
0.000210408
-9.29851e-05
5.32811e-05
0.000476194
3.0796e-06
0.000581699
0.000712506
-0.00108543
-0.000960508
0.000528332
0.000756282
0.00068896
0.000261592
-0.000423414
-0.00109053
-0.00219326
-0.000515231
0.00202686
0.00261208
0.00301483
0.00294945
0.00128348
0.00142544
0.000440315
-0.00151926
-0.00117528
-0.00160084
-0.00248188
-0.00234674
-0.00233337
-0.00215885
-0.00150206
-0.00135034
-0.000912197
-0.00062281
-0.000686289
-0.000186307
0.00158963
0.00225394
0.000939354
0.000130147
-0.00118045
-0.000829984
-0.000168714
-0.000436718
0.00037228
0.0015665
-7.24115e-05
-0.000783455
-8.19024e-05
0.000339521
0.000701772
0.000245388
-0.000528546
-0.000658472
-0.00119004
-0.000707612
0.0015274
0.0020154
0.00225321
0.00262868
0.00169607
0.00133504
0.000440258
-0.00115489
-0.000946882
-0.00148116
-0.00214447
-0.00148574
-0.0015583
-0.00194974
-0.00156029
-0.00100805
-0.00038675
0.000759619
0.000700341
0.000696029
0.00197394
0.00194565
0.000509259
0.000223058
0.000451801
-0.000408779
-4.16093e-05
-0.00126364
-0.000309265
0.00130518
0.000404175
-0.000947736
-0.00045336
-0.000122294
1.52808e-05
-0.000555168
-0.00103326
-0.000459015
-0.000277498
-0.000606854
0.000728953
0.00135742
0.00197867
0.00258045
0.00202606
0.00150879
0.000431006
-0.000955386
-0.000492545
-0.000909482
-0.00174598
-0.00178223
-0.00184955
-0.00259601
-0.00248156
-0.00160476
-0.000861241
0.000600959
0.00161643
0.0013722
0.00194428
0.00130153
0.000431822
0.000894986
0.000923728
-0.000148797
-0.000107534
-0.00109664
0.000150629
0.00207539
0.00146455
-0.00101201
-0.00136209
-0.000988742
-0.000594944
-0.00074477
-0.000957913
-0.000216574
0.000262354
-0.000276404
0.000448203
0.000901757
0.00146316
0.00221337
0.00199111
0.00149927
0.000457722
-0.000591467
-0.000166384
-0.000492027
-0.0014803
-0.00141995
-0.00134065
-0.00174014
-0.00207814
-0.00152007
-0.000846814
0.000405124
0.00120958
0.000419611
3.91585e-05
0.000379685
0.000613788
0.00159722
0.00107128
-0.000623253
-0.000484265
2.2211e-05
-7.62312e-07
0.00201961
0.00239623
9.89328e-06
-0.0014274
-0.000628765
-2.73252e-05
-0.000249857
-0.000984929
-0.00042882
0.000622291
0.000369516
0.000935953
0.00189711
0.00178032
0.00224138
0.00198973
0.00172619
0.00114058
0.000630232
0.000530475
-0.000332981
-0.00131649
-0.00115028
-0.00106332
-0.00149498
-0.00151661
-0.000908241
-0.000574526
0.000529953
0.00174536
0.000549904
-0.00097574
-6.72188e-05
0.000141437
0.000925518
0.000855638
-0.000160056
0.00028749
0.000693673
-0.00041874
0.00068836
0.00214135
0.000820124
-0.000421868
-0.00012038
-6.84581e-05
-0.000319422
-0.000994961
-0.000443941
0.000733508
0.000739045
0.00146268
0.00256563
0.00180608
0.00109636
0.00124059
0.00147901
0.00138602
0.000950072
0.000497256
0.000295685
-0.000498962
-0.000805059
-0.000825045
-0.000825655
-0.00033139
-0.000125084
-0.000618525
-8.95513e-05
0.00265635
0.00263704
0.00183026
0.00140921
0.000996759
0.00106779
0.000917206
-0.000309329
0.000171997
0.000863703
2.00418e-05
0.000409156
0.00206865
0.00157261
0.000321489
0.000140139
0.000680517
0.000587465
-2.87795e-05
-0.000121582
0.000589381
0.000588361
0.00130279
0.00288368
0.00232452
0.000677179
0.000498542
0.000989813
0.00144602
0.00118789
0.000568873
0.000333348
-0.000134858
-0.000778216
-0.00084782
-0.000525677
0.000445424
0.0017033
0.00143293
0.000187176
0.00152093
0.00246068
0.00202036
0.001956
0.00127283
0.000846757
0.00113755
4.59693e-05
-4.14138e-05
0.00150549
0.000876719
0.000114537
0.00138306
0.00180256
0.00112132
0.000663813
0.000643225
0.000240813
-0.000657821
-0.000605635
0.000151797
0.000790811
0.00129616
0.00269409
0.0030874
0.00187196
0.00149629
0.00128707
0.000939099
0.000782738
0.000128093
4.90562e-05
0.000484883
0.000392269
3.92571e-05
-0.000327997
-2.27673e-05
0.00160778
0.00252911
0.00124152
0.00177345
0.00258813
0.00232482
0.00241527
0.0020071
0.000822036
0.0010241
0.000442705
0.000248769
0.000395994
0.000133243
-0.00139937
-0.000628236
0.000806181
0.000767223
-6.30321e-06
-0.000121384
-0.000101653
-6.52395e-05
0.000332405
0.000742876
0.000999421
0.000896113
0.00133861
0.00241562
0.0019284
0.00163196
0.00157334
0.00140675
0.00155887
0.000714404
0.000321179
0.00062306
0.00040206
0.000870625
0.00101842
0.000419415
0.00146538
0.00243687
0.00139547
0.00157768
0.00229137
0.00171503
0.00232594
0.00272571
0.0010882
0.000809971
0.000734429
-0.000165385
0.000320516
0.000518403
-0.000876038
-0.00157432
-0.000261434
0.000440478
0.000248813
0.000103801
-0.000144841
-0.000850253
-0.00022912
0.00039446
0.00129486
0.00121911
0.000776693
0.00125936
0.00157549
0.00094424
0.000778174
0.000959676
0.00101029
0.000456435
0.000244763
0.00109437
0.000667111
0.000879756
0.00111707
0.000722165
0.00154524
0.00226331
0.000927199
0.000154345
0.000858741
0.000694432
0.00162847
0.00319866
0.00243172
0.00166764
0.0015703
0.000428865
0.000711201
0.00121858
0.0010355
-0.000445867
-6.69609e-05
0.00092832
0.000810402
0.00100664
0.00043972
0.000221011
0.000372706
0.000692593
0.00108666
0.00107937
0.000954032
0.00142687
0.00150676
0.000556558
0.000181512
0.000430975
0.000730377
0.000678862
0.000370408
0.000362367
0.0007911
0.000803173
0.000560612
0.00044434
0.000709641
0.000978006
0.000574533
-2.76456e-05
0.000378883
0.00106435
0.00144404
0.00250017
0.00206899
0.0013344
0.00253691
0.000925247
0.00277145
0.000702708
-0.000822764
-0.00300288
-0.00500931
-0.00232058
0.0043567
0.00647993
0.00442737
0.000799594
-0.00406639
-0.00314663
0.00816324
0.00611883
-0.00239986
-0.0012244
0.00107909
0.00490743
0.00918397
0.00454914
0.00120646
0.00174342
-0.00293024
-0.0019882
0.00316229
-0.00130206
-0.00582968
0.00198043
0.0038355
-0.00399045
-0.00963452
-0.00248743
0.00317498
0.00412431
0.00534792
0.00946275
0.0071181
0.00238258
0.00213986
0.00356918
0.00276161
0.000678648
-0.000868199
-0.00304595
-0.00500916
-0.00234881
0.00434466
0.00650826
0.00446537
0.000802319
-0.00409549
-0.00320068
0.00818137
0.00619781
-0.00246045
-0.00129761
0.0011001
0.00492882
0.00920928
0.00458298
0.00119531
0.00175138
-0.00294776
-0.00201608
0.00317583
-0.00127944
-0.00585539
0.00199175
0.00387683
-0.00398728
-0.00966635
-0.00250775
0.00316785
0.00411214
0.00531473
0.00946009
0.00717407
0.0023714
0.00211706
0.00355709
0.00276831
0.000680353
-0.00088053
-0.0031265
-0.00519218
-0.0024771
0.00431894
0.00651723
0.00448849
0.000772508
-0.00415397
-0.00327171
0.0082144
0.00628693
-0.00232385
-0.00145524
0.000944781
0.00493581
0.0092828
0.00458412
0.00114343
0.0017586
-0.0029712
-0.00205605
0.0032129
-0.00125843
-0.00593515
0.00200747
0.0039414
-0.0040054
-0.00968692
-0.00256266
0.00314122
0.00410365
0.00531233
0.00948657
0.0072823
0.00234109
0.00207251
0.00353598
0.00277826
0.000706833
-0.000833031
-0.00317982
-0.00551066
-0.00289087
0.00407227
0.00643478
0.00446873
0.000617935
-0.00423911
-0.003315
0.00822499
0.00638555
-0.00267691
-0.00163249
0.000797159
0.0048821
0.00921316
0.00444146
0.000997235
0.00180416
-0.00297523
-0.00207747
0.00321543
-0.00119607
-0.00595954
0.00200909
0.00398126
-0.0040393
-0.00965183
-0.00258263
0.00299507
0.00401184
0.0053405
0.00959196
0.00747391
0.00233172
0.00203396
0.00348115
0.00276056
0.000753243
-0.000758063
-0.00324389
-0.0057905
-0.00359733
0.00355289
0.0060707
0.00433909
0.000486455
-0.00430638
-0.00334874
0.0081066
0.00661016
-0.00317082
-0.00202074
0.000761772
0.00482249
0.00904944
0.00424201
0.000784002
0.00178435
-0.00284885
-0.00188216
0.00322419
-0.00122506
-0.00595058
0.00213958
0.00402758
-0.00401345
-0.00943424
-0.00238275
0.00278209
0.00364116
0.00520213
0.00976052
0.00800087
0.00239879
0.00202946
0.00343327
0.00272442
0.000811337
-0.000684993
-0.00339482
-0.00585649
-0.00448514
0.0028376
0.00547926
0.00391678
0.000471909
-0.00407362
-0.00339337
0.00772812
0.00679616
-0.00286646
-0.00246248
0.000750832
0.00495851
0.0088251
0.00399554
0.000628326
0.00183048
-0.00283247
-0.00176843
0.00326126
-0.00127658
-0.00610029
0.00220809
0.00431676
-0.00368084
-0.00903203
-0.00200378
0.00262365
0.00302898
0.00466072
0.00963628
0.00863535
0.00257246
0.00214628
0.00346821
0.00260461
0.000895279
-0.00059712
-0.00338432
-0.00585646
-0.00472342
0.00190877
0.00482281
0.00327365
6.26292e-05
-0.00387625
-0.00353587
0.00714012
0.00639949
-0.0022688
-0.00247115
0.00072561
0.00520618
0.00864906
0.00368747
0.000560021
0.00198227
-0.00300596
-0.00233939
0.00276001
-0.00141757
-0.00603001
0.00232531
0.0048141
-0.00289512
-0.00859794
-0.00161554
0.00261898
0.00244681
0.00376035
0.00894327
0.00868226
0.00278017
0.00192637
0.00339606
0.0023042
0.000929757
-0.000479226
-0.00320858
-0.00561687
-0.00402627
0.000887599
0.00408791
0.00260147
-0.00065024
-0.0040961
-0.00430742
0.00606138
0.00551112
-0.00184591
-0.00221321
0.00104443
0.00547557
0.00848453
0.00346928
0.000110561
0.00218062
-0.00276724
-0.00315278
0.0017951
-0.00164632
-0.00574483
0.00255491
0.00535314
-0.00187024
-0.00815751
-0.00128904
0.00270773
0.00202626
0.00261407
0.00759008
0.0081797
0.00300627
0.00159338
0.00304327
0.00185559
0.000803132
-0.000342663
-0.00306408
-0.00517483
-0.0032661
7.9826e-05
0.00342396
0.00192379
-0.00126881
-0.00432628
-0.00570015
0.00433693
0.00464191
-0.00134726
-0.00180501
0.00143256
0.00578085
0.00826977
0.00344475
-9.0407e-05
0.00223923
-0.00219179
-0.00287656
0.000899501
-0.00178025
-0.00560903
0.00254636
0.00571662
-0.000895551
-0.00758472
-0.00114169
0.00278979
0.00185915
0.0012628
0.00573397
0.00696054
0.00297112
0.00138332
0.00250392
0.00134376
0.000581448
-0.000341183
-0.00308216
-0.00465985
-0.00283392
-0.000378729
0.00287183
0.00126375
-0.00165779
-0.00386597
-0.00677317
0.00217238
0.00398948
-0.000682925
-0.00143287
0.00182726
0.00604393
0.00807293
0.00340641
-2.33439e-05
0.00218583
-0.00186138
-0.00204644
0.000327284
-0.00222089
-0.00576289
0.00198796
0.00585307
3.70735e-05
-0.00686958
-0.00118121
0.00256235
0.0016679
0.000706611
0.00415851
0.00532062
0.00270087
0.00128994
0.00206241
0.000731228
0.000257813
-0.000475519
-0.00317806
-0.00422881
-0.00245575
-0.000175614
0.00246445
0.000936494
-0.00165417
-0.00289701
-0.00670183
0.000433309
0.00346658
-0.00031317
-0.00122641
0.00218007
0.0061802
0.00798125
0.00318494
0.000177333
0.00187896
-0.00178739
-0.00152956
0.000294658
-0.00263743
-0.00604092
0.00107795
0.00579554
0.000967552
-0.00558422
-0.00136653
0.00208025
0.00132916
0.000428256
0.00328454
0.00400588
0.00238462
0.00132313
0.00176953
7.0304e-05
-0.000275583
-0.000724256
-0.00321274
-0.00388565
-0.00211243
0.000366817
0.00207186
0.000919829
-0.000551923
-0.00171777
-0.00581949
0.000127081
0.00353786
-0.000559737
-0.00146943
0.00251906
0.00611342
0.00774347
0.00281992
0.000144651
0.00137996
-0.00177486
-0.00130375
0.000409602
-0.00259278
-0.00608986
2.63317e-06
0.00533505
0.00191323
-0.00418417
-0.00185987
0.00205426
0.00102464
0.000514573
0.00304673
0.0034113
0.00201549
0.00145601
0.00178843
-0.000218765
-0.000884406
-0.00110579
-0.00314818
-0.00364342
-0.00194783
0.00079823
0.00175666
0.0010135
-0.000243563
-0.000879829
-0.00494726
0.00113055
0.00443776
-0.000891879
-0.00154381
0.00269443
0.00567041
0.00721273
0.00235346
-0.000133884
0.00090976
-0.0016741
-0.00155301
0.000175278
-0.00220305
-0.0055712
-0.000710238
0.00477277
0.00256354
-0.00267636
-0.00242838
0.00130457
0.000677379
0.000837219
0.00364629
0.00372322
0.00145763
0.00148141
0.00220937
3.96079e-05
-0.00145172
-0.00154119
-0.00311356
-0.00343714
-0.00174812
0.00093702
0.00141679
0.000984964
-0.000442931
-0.000651216
-0.00461886
0.00174703
0.00584542
-0.000381907
-0.00101782
0.00260425
0.00486817
0.00621232
0.0017908
-0.000637443
0.000385395
-0.00156742
-0.00203272
-0.000412371
-0.00192382
-0.00465974
-0.000960123
0.00419697
0.00311229
-0.00100868
-0.00244868
0.000647342
0.000340786
0.000928913
0.00391886
0.00460233
0.000966629
0.00133769
0.00285297
0.000789804
-0.00176218
-0.00204945
-0.00313179
-0.00330949
-0.00150207
0.000959227
0.00105899
0.000739922
-2.36589e-05
-0.000829383
-0.00456363
0.00112831
0.00628134
0.000818005
-5.73023e-05
0.00243698
0.00398758
0.00532135
0.00136173
-0.00120724
-2.72289e-05
-0.00153385
-0.00266619
-0.00151468
-0.00200456
-0.00388998
-0.001343
0.00339536
0.00435093
0.000793054
-0.0017613
0.000204662
0.000162143
0.0010165
0.0039926
0.00479411
0.000788709
0.00104851
0.00335723
0.00152674
-0.00163506
-0.00265444
-0.00332415
-0.00337034
-0.00146232
0.000900858
0.00100941
0.000713922
0.000201732
-0.00158103
-0.00455761
0.000362348
0.00542022
0.00153251
0.000913703
0.0022733
0.00306339
0.00472735
0.00122232
-0.00169549
-0.000364409
-0.0017664
-0.00331665
-0.00271053
-0.00235728
-0.0033896
-0.0014578
0.00264387
0.00448503
0.00210689
-0.000794892
4.55247e-05
0.000576665
0.00114155
0.00324328
0.00516615
0.000979306
0.000823135
0.00295781
0.00189833
-0.000986619
-0.00299239
-0.00377578
-0.00377578
-0.00170117
0.00059325
0.00104057
0.000864951
0.00046418
-0.00227421
-0.00441333
-0.000188207
0.00406372
0.00202518
0.0017455
0.00232685
0.00237349
0.0039294
0.00094735
-0.00192951
-0.000447551
-0.00173587
-0.00345453
-0.00281494
-0.00235291
-0.00280164
-0.0015369
0.00156535
0.00386844
0.00300732
0.00076608
0.000317871
0.000190392
0.00102523
0.0027398
0.00382195
0.00135811
0.000818262
0.00251879
0.00174754
-0.000323211
-0.00257492
-0.00401352
-0.00426161
-0.00205223
0.000135318
0.000761908
0.000601764
0.000537017
-0.00211475
-0.00379479
-0.000648461
0.00278009
0.00163595
0.0022187
0.00268152
0.00256971
0.00329774
0.00062069
-0.00235015
-0.000755392
-0.00124077
-0.00280271
-0.00230315
-0.00204981
-0.00227735
-0.00180214
0.000204985
0.00264622
0.00392461
0.00405194
0.00155352
-0.000576864
0.000479778
0.00194731
0.00274086
0.00129681
0.000946306
0.00209771
0.0015053
9.57182e-05
-0.00174895
-0.00345207
-0.00436071
-0.0023396
-0.000355919
0.000241559
0.000123767
0.000107681
-0.00186993
-0.00316002
-0.000694816
0.00217685
0.00170016
0.00258893
0.00335885
0.00324304
0.00298762
0.0005964
-0.00249586
-0.00118124
-0.00125695
-0.00239532
-0.00224181
-0.00204559
-0.00219608
-0.00225886
-0.00120896
0.000798897
0.00407237
0.00821784
0.00372629
-0.000491901
0.000514229
0.00141936
0.00184695
0.00103795
0.00110945
0.00134972
0.00139941
0.000658673
-0.00067489
-0.00253049
-0.00331449
-0.00227862
-0.000816624
-0.000312714
-0.000315809
-0.000403737
-0.00165693
-0.00272425
-0.000517757
0.00196842
0.001598
0.00265706
0.0037084
0.00379061
0.00311638
0.00071769
-0.00251175
-0.00263188
-0.0018447
-0.00266913
-0.00254976
-0.00240171
-0.00234774
-0.00273947
-0.00204448
-0.00123438
0.00190823
0.00466432
0.00398771
0.000491016
0.00127443
0.00153513
0.00140707
0.000584726
0.000712938
0.00111298
0.00123175
0.00094169
0.000240413
-0.00163905
-0.00248872
-0.00158956
-0.00107478
-0.000515645
-0.000524029
-0.000496476
-0.00134554
-0.00224607
-0.000298611
0.00203914
0.00149986
0.00256434
0.00357762
0.00363535
0.00332236
0.00106867
-0.00206182
-0.00259896
-0.00243
-0.00243989
-0.00250323
-0.00279182
-0.00261317
-0.00295755
-0.00411138
-0.00329623
-0.000347555
0.00278093
0.00245939
0.000595629
0.00137151
0.00150676
0.00125945
0.000590736
0.000754771
0.000958305
0.000506694
0.00100264
0.00112268
-0.000927387
-0.00193566
-0.00103997
-0.000661151
-0.000735799
-0.000558949
-0.000841565
-0.000823259
-0.00178533
-0.000386428
0.00202458
0.00177557
0.00268233
0.00356988
0.00322958
0.00311432
0.00133385
-0.00099969
-0.00184049
-0.00274441
-0.0028595
-0.00255118
-0.00312541
-0.00332944
-0.00317305
-0.00341707
-0.00331651
-0.00118454
0.00143967
0.00148827
0.000768006
0.00133991
0.00135388
0.00121136
0.000536481
0.000226537
0.000441505
-0.000474408
0.000115683
0.00118911
8.42352e-05
-0.00171982
-0.000454136
-2.27348e-05
-0.000467791
-0.000688992
-0.000302523
-0.000247666
-0.000882138
-0.00032608
0.00181437
0.00188709
0.00228844
0.00305391
0.00288979
0.0029083
0.00142751
-0.000414765
-5.30658e-06
-0.0016077
-0.00247264
-0.00204256
-0.00348176
-0.00411922
-0.00324245
-0.00278733
-0.00238491
-0.000652166
0.00126604
0.0011095
0.00076367
0.00102215
0.000531296
0.000905477
0.00106134
0.000552531
0.000407446
-0.000801095
-0.000245494
0.0007955
0.000340684
-0.00154283
-0.000184845
0.000374477
-0.000333548
-0.000978795
-0.000850242
-3.33222e-05
-0.0002405
-0.000423645
0.00120742
0.00185154
0.00213823
0.00284361
0.002215
0.00235569
0.00120066
-0.000560044
-0.000965158
-0.00166764
-0.00241612
-0.00139966
-0.0017724
-0.00319515
-0.00319404
-0.00292796
-0.00242678
-0.000789721
0.00122529
0.00116367
0.000559891
0.000437838
4.45317e-05
0.000794931
0.000927358
0.000282266
0.000460492
0.00174372
0.000621516
0.00166049
0.00100478
-0.00101631
-0.00101978
-0.0001931
-0.000372445
-0.00097368
-0.00117048
-0.000168241
0.000116411
-0.000381994
0.000859834
0.00176826
0.00221522
0.00319591
0.00252147
0.00194272
0.000858782
-0.000193994
-0.000288074
-0.00181717
-0.00288649
-0.00219592
-0.00169946
-0.00219374
-0.00246988
-0.00235965
-0.00216104
-0.000857434
0.000808429
0.000356673
-0.00050972
-0.000371045
-0.000314199
0.000670617
0.000748838
-9.64391e-05
0.000468527
0.000727488
0.000320309
0.00126079
0.0016361
9.12918e-05
-0.00104496
6.16463e-05
0.000452461
-0.000203723
-0.000758563
-1.70687e-05
0.000814006
0.000356067
0.00132306
0.00261486
0.00286207
0.00321047
0.00256283
0.00207263
0.00148944
0.00100951
0.000160291
-0.00156822
-0.0027824
-0.0021143
-0.00161708
-0.00217789
-0.00225516
-0.00231823
-0.00244694
-0.000893427
0.00131863
0.000741749
-0.00117477
2.18319e-05
2.44344e-05
0.000703808
0.000658358
-8.05314e-05
0.000391251
0.000546983
-2.57961e-05
0.000602064
0.00156284
0.000822254
-0.000248194
0.00015117
0.000177353
-0.000193628
-0.000738428
-0.000213964
0.000757744
0.000586424
0.00140892
0.00289958
0.00287896
0.00256291
0.00239927
0.00202321
0.00142326
0.00124694
-0.000499769
-0.00104362
-0.00175692
-0.00192049
-0.00176468
-0.0014972
-0.000171931
-0.000878486
-0.00292741
-0.00233049
0.00133601
0.00232272
0.00284617
0.00194203
0.00131559
0.00116289
0.000695339
-0.000542043
-0.000131731
0.000967096
0.000401198
0.000390494
0.00141348
0.00126093
0.000563965
0.000470732
0.000687577
0.000245114
-0.000376552
-0.000228702
0.000616263
0.000601008
0.00117545
0.00256013
0.00210722
0.000825788
0.000652632
0.000976203
0.00135333
0.00116391
0.000616768
0.000420046
-0.000442772
-0.00165952
-0.00192062
-0.00150506
0.000361891
0.00186747
0.000704437
-0.00124922
0.000284437
0.00180595
0.00187631
0.00235884
0.00157386
0.000842411
0.000881775
-0.0001884
-8.42435e-05
0.00129691
0.00103244
0.000322902
0.00100806
0.00132108
0.000956376
0.000464631
0.000328756
-0.000360079
-0.00109272
-0.000992196
-0.000252345
0.000384892
0.00112866
0.00243348
0.00267563
0.00148558
0.00119174
0.000896899
0.000719838
0.000770929
-9.88745e-05
-0.000312548
0.000256304
0.000387375
-0.000248106
-0.00114074
-0.00124007
0.000915467
0.00229296
0.00106541
0.00136023
0.00221164
0.00226953
0.0026413
0.00210078
0.000739153
0.000727418
5.44025e-05
-1.01341e-05
0.000450329
0.000629633
-0.000649217
-0.00039601
0.000458685
0.000557949
7.42296e-05
-0.000196068
-0.000222072
-5.25535e-05
0.000173603
0.000490479
0.000789093
0.000725359
0.0012489
0.00249511
0.00196911
0.00191648
0.00189753
0.00150665
0.00141163
0.000256216
-9.66706e-05
0.000573316
0.000676611
0.000968199
0.000665473
-0.00031362
0.000695038
0.0019112
0.00102659
0.00108033
0.00197873
0.00158515
0.002193
0.002408
0.000726325
0.000415103
-7.09587e-05
-0.000393194
0.000264972
0.00087701
3.38587e-05
-0.000770647
-0.000182604
0.000277391
0.000143573
-1.82735e-05
-0.000266889
-0.000984831
-0.000365525
0.000300808
0.00114948
0.00107982
0.000823576
0.00155934
0.00136335
0.000915477
0.00137999
0.00177262
0.0015317
0.000838808
0.000212627
0.000697764
0.000219367
0.0006559
0.000891388
0.000158974
0.000811878
0.00192466
0.00095413
0.000129306