/*--------------------------------*- C++ -*----------------------------------*\
  =========                 |
  \\      /  F ield         | OpenFOAM: The Open Source CFD Toolbox
   \\    /   O peration     | Website:  https://openfoam.org
    \\  /    A nd           | Version:  10
     \\/     M anipulation  |
\*---------------------------------------------------------------------------*/
FoamFile
{
    format      ascii;
    class       volVectorField;
    location    "12.5";
    object      UMean;
}
// * * * * * * * * * * * * * * * * * * * * * * * * * * * * * * * * * * * * * //

dimensions      [0 1 -1 0 0 0 0];

internalField   nonuniform List<vector> 
25600
(
(1.05954 -7.13283e-07 9.29034e-07)
(1.05955 -3.7452e-07 8.71635e-07)
(1.05954 1.30336e-07 9.35319e-07)
(1.05955 2.86404e-07 9.20876e-07)
(1.05954 3.55714e-07 8.52176e-07)
(1.05955 7.92875e-07 1.08036e-06)
(1.05954 2.65675e-07 6.70899e-07)
(1.05955 1.09364e-06 1.20013e-06)
(1.05954 3.43679e-07 6.26296e-07)
(1.05954 8.44844e-07 1.16769e-06)
(1.05954 6.41618e-07 8.52534e-07)
(1.05954 5.1647e-07 8.591e-07)
(1.05954 8.76713e-07 1.16362e-06)
(1.05954 3.1178e-07 5.97666e-07)
(1.05954 8.7394e-07 1.23612e-06)
(1.05954 3.68214e-08 6.5977e-07)
(1.05954 5.82997e-07 1.04931e-06)
(1.05954 -2.34295e-07 8.18755e-07)
(1.05954 1.08687e-07 8.18292e-07)
(1.05954 2.49503e-07 8.81415e-07)
(1.05954 2.39336e-08 7.01252e-07)
(1.05954 2.94052e-07 8.25917e-07)
(1.05954 -2.94195e-07 6.58711e-07)
(1.05955 4.78155e-07 7.2566e-07)
(1.05954 -2.74613e-07 6.42151e-07)
(1.05955 3.80623e-07 6.71971e-07)
(1.05954 -1.14491e-07 5.61251e-07)
(1.05955 1.28005e-08 7.55917e-07)
(1.05954 2.49711e-07 4.51667e-07)
(1.05955 -1.56886e-07 8.32889e-07)
(1.05954 4.97413e-07 5.46614e-07)
(1.05955 1.16149e-08 7.57812e-07)
(1.05954 4.37077e-07 8.03101e-07)
(1.05955 5.39041e-08 6.18291e-07)
(1.05954 1.35746e-07 1.04739e-06)
(1.05955 -5.50845e-08 6.47749e-07)
(1.05954 -1.46123e-07 1.04455e-06)
(1.05955 -3.59364e-07 8.01065e-07)
(1.05954 -1.68152e-08 9.43707e-07)
(1.05955 -6.13117e-07 8.81878e-07)
(1.05954 2.20505e-07 1.09766e-06)
(1.05954 2.88286e-07 9.49875e-07)
(1.05954 1.39064e-07 1.0637e-06)
(1.05954 6.20937e-07 1.02135e-06)
(1.05954 3.00721e-07 9.17213e-07)
(1.05954 7.89681e-07 1.20802e-06)
(1.05954 3.69199e-07 6.75188e-07)
(1.05954 1.06876e-06 1.36043e-06)
(1.05954 4.53021e-07 6.44837e-07)
(1.05954 9.48193e-07 1.27773e-06)
(1.05954 7.59406e-07 8.85176e-07)
(1.05954 6.58243e-07 9.6628e-07)
(1.05954 8.5798e-07 1.18836e-06)
(1.05954 4.64511e-07 7.08373e-07)
(1.05954 6.99464e-07 1.26069e-06)
(1.05954 3.43926e-07 7.59335e-07)
(1.05954 4.32586e-07 1.11737e-06)
(1.05954 2.13693e-07 8.50928e-07)
(1.05954 2.71175e-07 9.67217e-07)
(1.05954 1.38203e-07 8.63939e-07)
(1.05954 1.01522e-07 8.83113e-07)
(1.05954 2.35244e-07 8.05401e-07)
(1.05954 -1.8455e-08 8.57626e-07)
(1.05954 2.65022e-07 7.36192e-07)
(1.05954 9.39068e-08 7.44629e-07)
(1.05954 3.45687e-07 7.85342e-07)
(1.05954 9.01113e-08 5.62747e-07)
(1.05954 4.06888e-07 9.38012e-07)
(1.05954 1.80959e-07 4.59561e-07)
(1.05954 2.95673e-07 9.65041e-07)
(1.05954 3.51382e-07 6.49987e-07)
(1.05954 1.33987e-07 8.11203e-07)
(1.05954 4.17659e-07 9.75369e-07)
(1.05954 -8.32137e-08 7.19982e-07)
(1.05954 4.04685e-07 1.17804e-06)
(1.05954 -1.75087e-07 7.88198e-07)
(1.05954 2.97278e-07 1.19336e-06)
(1.05954 -1.84113e-07 9.05086e-07)
(1.05954 3.48194e-07 1.11617e-06)
(1.05954 -9.74938e-08 9.6819e-07)
(1.05954 6.75337e-07 1.60276e-06)
(1.05954 3.79824e-08 1.1318e-06)
(1.05954 5.42613e-07 1.54123e-06)
(1.05954 5.92795e-07 1.21238e-06)
(1.05954 6.63768e-07 1.29859e-06)
(1.05954 8.5563e-07 1.44594e-06)
(1.05954 7.66021e-07 9.45122e-07)
(1.05954 1.21746e-06 1.69448e-06)
(1.05954 8.16379e-07 8.5521e-07)
(1.05954 1.20132e-06 1.60565e-06)
(1.05954 1.03515e-06 1.051e-06)
(1.05954 9.69128e-07 1.32138e-06)
(1.05954 1.0006e-06 1.29172e-06)
(1.05954 9.28056e-07 1.0932e-06)
(1.05954 6.23898e-07 1.3432e-06)
(1.05954 8.92309e-07 1.10602e-06)
(1.05954 2.47533e-07 1.25121e-06)
(1.05954 6.68489e-07 1.09853e-06)
(1.05954 2.09681e-07 1.22369e-06)
(1.05954 3.5207e-07 1.01817e-06)
(1.05954 3.00139e-07 1.21601e-06)
(1.05954 2.75372e-07 9.3165e-07)
(1.05954 2.81422e-07 1.21062e-06)
(1.05954 3.25774e-07 8.6094e-07)
(1.05954 4.68502e-07 1.03648e-06)
(1.05954 4.16391e-07 9.59316e-07)
(1.05954 4.57456e-07 8.15135e-07)
(1.05954 6.12524e-07 1.10655e-06)
(1.05954 4.0272e-07 7.25737e-07)
(1.05954 6.62613e-07 1.12336e-06)
(1.05954 4.1929e-07 9.15633e-07)
(1.05954 5.71365e-07 1.04373e-06)
(1.05954 4.02062e-07 1.17544e-06)
(1.05954 3.49121e-07 1.13308e-06)
(1.05954 4.05985e-07 1.2878e-06)
(1.05954 6.41659e-08 1.26148e-06)
(1.05954 4.38091e-07 1.40156e-06)
(1.05954 -1.32785e-07 1.26011e-06)
(1.05954 6.63913e-07 1.50127e-06)
(1.05954 -2.88368e-07 1.20508e-06)
(1.05954 1.02293e-06 2.06546e-06)
(1.05954 3.11654e-07 1.39261e-06)
(1.05954 1.04778e-06 2.03589e-06)
(1.05954 6.97994e-07 1.38861e-06)
(1.05954 1.25503e-06 1.77661e-06)
(1.05954 8.07081e-07 1.63668e-06)
(1.05954 1.50697e-06 1.35562e-06)
(1.05954 1.12225e-06 1.99565e-06)
(1.05954 1.55288e-06 1.19159e-06)
(1.05954 1.30897e-06 1.95757e-06)
(1.05954 1.56796e-06 1.28574e-06)
(1.05954 1.23437e-06 1.77073e-06)
(1.05954 1.33203e-06 1.40942e-06)
(1.05954 1.28594e-06 1.60376e-06)
(1.05954 7.6262e-07 1.4447e-06)
(1.05954 1.3026e-06 1.54966e-06)
(1.05954 2.75338e-07 1.44259e-06)
(1.05954 1.10341e-06 1.45755e-06)
(1.05954 2.2772e-07 1.52181e-06)
(1.05954 6.97894e-07 1.32457e-06)
(1.05954 3.83254e-07 1.55405e-06)
(1.05954 6.47614e-07 1.21926e-06)
(1.05954 3.95283e-07 1.52243e-06)
(1.05954 8.40506e-07 1.15718e-06)
(1.05954 5.93744e-07 1.31507e-06)
(1.05954 9.09885e-07 1.21553e-06)
(1.05954 7.68433e-07 1.16139e-06)
(1.05954 9.92088e-07 1.23187e-06)
(1.05954 8.4774e-07 1.16671e-06)
(1.05954 9.0541e-07 1.20924e-06)
(1.05954 8.59417e-07 1.34807e-06)
(1.05954 7.23204e-07 1.26272e-06)
(1.05954 7.51493e-07 1.5071e-06)
(1.05954 5.75698e-07 1.58104e-06)
(1.05954 5.71035e-07 1.48128e-06)
(1.05954 4.03633e-07 1.84713e-06)
(1.05954 5.00815e-07 1.62684e-06)
(1.05954 3.33944e-07 1.79914e-06)
(1.05954 7.27794e-07 1.85178e-06)
(1.05954 1.34231e-07 1.59652e-06)
(1.05954 1.23827e-06 2.62323e-06)
(1.05954 7.68947e-07 1.849e-06)
(1.05954 1.30536e-06 2.56291e-06)
(1.05954 1.06527e-06 1.77122e-06)
(1.05954 1.60822e-06 2.33632e-06)
(1.05954 1.07367e-06 1.9674e-06)
(1.05954 2.12808e-06 1.96359e-06)
(1.05954 1.20088e-06 2.32091e-06)
(1.05954 2.382e-06 1.77982e-06)
(1.05954 1.39976e-06 2.33689e-06)
(1.05954 2.36232e-06 1.75808e-06)
(1.05954 1.35786e-06 2.3113e-06)
(1.05954 2.04773e-06 1.70035e-06)
(1.05954 1.36188e-06 2.26305e-06)
(1.05954 1.37763e-06 1.67779e-06)
(1.05954 1.3269e-06 2.15662e-06)
(1.05954 7.24552e-07 1.74314e-06)
(1.05954 1.18901e-06 1.99408e-06)
(1.05954 5.19973e-07 1.90106e-06)
(1.05954 9.06207e-07 1.82278e-06)
(1.05954 6.68551e-07 1.96666e-06)
(1.05954 1.00919e-06 1.70976e-06)
(1.05954 6.25254e-07 1.90802e-06)
(1.05954 1.51837e-06 1.6466e-06)
(1.05954 6.4818e-07 1.66293e-06)
(1.05954 1.7831e-06 1.64352e-06)
(1.05954 8.52804e-07 1.52918e-06)
(1.05954 1.83965e-06 1.53992e-06)
(1.05954 1.04989e-06 1.61858e-06)
(1.05954 1.62541e-06 1.47197e-06)
(1.05954 1.17125e-06 1.85058e-06)
(1.05954 1.22714e-06 1.57927e-06)
(1.05954 1.16767e-06 2.03701e-06)
(1.05954 8.76171e-07 2.00693e-06)
(1.05954 9.79395e-07 1.98547e-06)
(1.05954 5.90591e-07 2.38714e-06)
(1.05954 8.99172e-07 2.14254e-06)
(1.05954 5.99486e-07 2.36701e-06)
(1.05954 1.01286e-06 2.40379e-06)
(1.05954 6.00997e-07 2.11011e-06)
(1.05954 1.74418e-06 3.3236e-06)
(1.05954 1.24493e-06 2.41211e-06)
(1.05954 1.84456e-06 3.17812e-06)
(1.05954 1.48624e-06 2.34221e-06)
(1.05954 2.10317e-06 2.9416e-06)
(1.05954 1.5971e-06 2.51558e-06)
(1.05954 2.62109e-06 2.63671e-06)
(1.05954 1.73376e-06 2.79602e-06)
(1.05954 2.99957e-06 2.50878e-06)
(1.05954 1.93323e-06 2.80862e-06)
(1.05954 3.03575e-06 2.42668e-06)
(1.05954 1.78201e-06 2.89529e-06)
(1.05954 2.81372e-06 2.19576e-06)
(1.05954 1.49592e-06 2.97267e-06)
(1.05954 2.24721e-06 2.08405e-06)
(1.05954 1.15441e-06 2.87547e-06)
(1.05954 1.60053e-06 2.17917e-06)
(1.05954 9.92289e-07 2.70132e-06)
(1.05954 1.32432e-06 2.34503e-06)
(1.05954 8.8439e-07 2.5472e-06)
(1.05954 1.46008e-06 2.42499e-06)
(1.05954 1.17373e-06 2.414e-06)
(1.05954 1.4075e-06 2.37346e-06)
(1.05954 1.95881e-06 2.29655e-06)
(1.05954 1.28199e-06 2.11645e-06)
(1.05954 2.52507e-06 2.18597e-06)
(1.05954 1.38367e-06 1.96012e-06)
(1.05954 2.74964e-06 2.01929e-06)
(1.05954 1.47073e-06 2.05827e-06)
(1.05954 2.6623e-06 1.96781e-06)
(1.05954 1.3982e-06 2.31164e-06)
(1.05954 2.27117e-06 2.13633e-06)
(1.05954 1.27379e-06 2.58666e-06)
(1.05954 1.76558e-06 2.61403e-06)
(1.05954 1.10023e-06 2.6035e-06)
(1.05954 1.23863e-06 3.05394e-06)
(1.05954 1.21263e-06 2.81674e-06)
(1.05954 1.07946e-06 3.03284e-06)
(1.05954 1.46847e-06 3.12427e-06)
(1.05954 1.12506e-06 2.69341e-06)
(1.05954 2.10184e-06 4.16127e-06)
(1.05954 2.02229e-06 3.11222e-06)
(1.05954 2.38428e-06 3.98622e-06)
(1.05954 2.03752e-06 3.04086e-06)
(1.05954 2.75117e-06 3.75822e-06)
(1.05954 2.19532e-06 3.19875e-06)
(1.05954 3.27176e-06 3.50994e-06)
(1.05954 2.46356e-06 3.43145e-06)
(1.05954 3.69404e-06 3.44086e-06)
(1.05954 2.71468e-06 3.45498e-06)
(1.05954 3.70173e-06 3.32557e-06)
(1.05954 2.48685e-06 3.58477e-06)
(1.05954 3.4454e-06 2.96602e-06)
(1.05954 1.86568e-06 3.72344e-06)
(1.05954 2.90757e-06 2.78323e-06)
(1.05954 1.15155e-06 3.66919e-06)
(1.05954 2.33233e-06 2.86207e-06)
(1.05954 8.69438e-07 3.58843e-06)
(1.05954 2.15604e-06 2.99959e-06)
(1.05954 8.46087e-07 3.53435e-06)
(1.05954 2.47577e-06 3.0691e-06)
(1.05954 1.19186e-06 3.40842e-06)
(1.05954 2.63443e-06 2.98912e-06)
(1.05954 2.10144e-06 3.18303e-06)
(1.05954 2.52435e-06 2.71569e-06)
(1.05954 2.87866e-06 2.91314e-06)
(1.05954 2.60658e-06 2.5264e-06)
(1.05954 3.27529e-06 2.67183e-06)
(1.05954 2.60567e-06 2.61441e-06)
(1.05954 3.37666e-06 2.66068e-06)
(1.05954 2.202e-06 2.88067e-06)
(1.05954 3.15978e-06 2.90507e-06)
(1.05954 1.64234e-06 3.24291e-06)
(1.05954 2.74153e-06 3.43555e-06)
(1.05954 1.18375e-06 3.35068e-06)
(1.05954 2.21923e-06 3.94905e-06)
(1.05954 1.32939e-06 3.6129e-06)
(1.05954 2.0176e-06 3.91439e-06)
(1.05954 1.72257e-06 3.9613e-06)
(1.05954 2.07255e-06 3.44936e-06)
(1.05954 2.46078e-06 5.1387e-06)
(1.05954 3.11703e-06 4.15162e-06)
(1.05954 2.71576e-06 4.9463e-06)
(1.05954 2.96335e-06 4.10076e-06)
(1.05954 3.15759e-06 4.75248e-06)
(1.05954 3.10814e-06 4.24979e-06)
(1.05954 3.8209e-06 4.61027e-06)
(1.05954 3.43477e-06 4.42483e-06)
(1.05954 4.39152e-06 4.63074e-06)
(1.05954 3.62164e-06 4.41857e-06)
(1.05954 4.47996e-06 4.49773e-06)
(1.05954 3.2347e-06 4.52717e-06)
(1.05954 4.1328e-06 4.06503e-06)
(1.05954 2.29686e-06 4.66544e-06)
(1.05954 3.48235e-06 3.82655e-06)
(1.05954 1.34524e-06 4.59789e-06)
(1.05954 2.92893e-06 3.8691e-06)
(1.05954 1.07554e-06 4.58649e-06)
(1.05954 2.87406e-06 3.96575e-06)
(1.05954 1.19472e-06 4.68146e-06)
(1.05954 3.45092e-06 4.01137e-06)
(1.05954 1.533e-06 4.58981e-06)
(1.05954 3.95449e-06 3.82474e-06)
(1.05954 2.37052e-06 4.26014e-06)
(1.05954 4.04232e-06 3.44979e-06)
(1.05954 3.18804e-06 3.80986e-06)
(1.05954 4.29398e-06 3.18011e-06)
(1.05954 3.60578e-06 3.50716e-06)
(1.05954 4.39332e-06 3.24039e-06)
(1.05954 3.72106e-06 3.52632e-06)
(1.05954 3.85195e-06 3.53917e-06)
(1.05954 3.49603e-06 3.82436e-06)
(1.05954 2.79235e-06 4.04848e-06)
(1.05954 3.07678e-06 4.42825e-06)
(1.05954 1.93566e-06 4.31114e-06)
(1.05954 2.71906e-06 5.04024e-06)
(1.05954 1.99222e-06 4.60559e-06)
(1.05954 2.76635e-06 5.04113e-06)
(1.05954 2.26891e-06 4.95079e-06)
(1.05954 3.1035e-06 4.50681e-06)
(1.05954 3.56502e-06 6.42453e-06)
(1.05954 3.72682e-06 5.56814e-06)
(1.05954 3.59973e-06 6.18958e-06)
(1.05954 3.61476e-06 5.57528e-06)
(1.05954 3.84993e-06 6.01344e-06)
(1.05954 4.03307e-06 5.80967e-06)
(1.05954 4.41507e-06 5.99875e-06)
(1.05954 4.6352e-06 5.98072e-06)
(1.05954 4.97723e-06 6.11105e-06)
(1.05954 4.83461e-06 5.91571e-06)
(1.05954 5.13953e-06 5.97864e-06)
(1.05954 4.18321e-06 5.94654e-06)
(1.05954 4.71178e-06 5.51306e-06)
(1.05954 2.82761e-06 6.04421e-06)
(1.05954 3.92212e-06 5.24385e-06)
(1.05954 1.60488e-06 5.96433e-06)
(1.05954 3.37875e-06 5.26328e-06)
(1.05954 1.36502e-06 6.02208e-06)
(1.05954 3.47997e-06 5.40177e-06)
(1.05954 1.77255e-06 6.24715e-06)
(1.05954 4.34012e-06 5.44455e-06)
(1.05954 2.22411e-06 6.14083e-06)
(1.05954 5.16626e-06 5.09041e-06)
(1.05954 3.0256e-06 5.66201e-06)
(1.05954 5.53728e-06 4.52157e-06)
(1.05954 3.88173e-06 5.05403e-06)
(1.05954 6.00247e-06 4.11329e-06)
(1.05954 4.22724e-06 4.72445e-06)
(1.05954 6.2867e-06 4.10566e-06)
(1.05954 4.21103e-06 4.76324e-06)
(1.05954 5.77228e-06 4.38204e-06)
(1.05954 3.74205e-06 5.06876e-06)
(1.05954 4.3326e-06 5.00796e-06)
(1.05954 3.00689e-06 5.76176e-06)
(1.05954 3.23702e-06 5.48012e-06)
(1.05954 2.63204e-06 6.5018e-06)
(1.05954 3.38232e-06 5.86655e-06)
(1.05954 2.8461e-06 6.53368e-06)
(1.05954 3.61603e-06 6.24616e-06)
(1.05954 3.5037e-06 5.94887e-06)
(1.05954 5.1655e-06 8.13557e-06)
(1.05954 3.60791e-06 7.52653e-06)
(1.05954 5.11885e-06 7.93308e-06)
(1.05954 3.48444e-06 7.65469e-06)
(1.05954 5.27727e-06 7.88114e-06)
(1.05954 4.22989e-06 8.07593e-06)
(1.05954 5.68828e-06 7.99951e-06)
(1.05954 5.26658e-06 8.31087e-06)
(1.05954 6.05383e-06 8.14089e-06)
(1.05954 5.64437e-06 8.17238e-06)
(1.05954 6.04272e-06 7.94194e-06)
(1.05954 4.90931e-06 8.05987e-06)
(1.05954 5.27099e-06 7.41876e-06)
(1.05954 3.20288e-06 8.07867e-06)
(1.05954 4.12084e-06 7.10449e-06)
(1.05954 1.73051e-06 8.00005e-06)
(1.05954 3.51852e-06 7.11692e-06)
(1.05954 1.55476e-06 8.12929e-06)
(1.05954 3.8696e-06 7.35372e-06)
(1.05954 2.31402e-06 8.42022e-06)
(1.05954 5.0856e-06 7.41813e-06)
(1.05954 2.94044e-06 8.22038e-06)
(1.05954 6.28851e-06 6.87742e-06)
(1.05954 3.81124e-06 7.52695e-06)
(1.05954 6.98803e-06 6.06048e-06)
(1.05954 4.79523e-06 6.7146e-06)
(1.05954 7.60417e-06 5.46013e-06)
(1.05954 5.13731e-06 6.33674e-06)
(1.05954 8.04624e-06 5.35826e-06)
(1.05954 5.00653e-06 6.39984e-06)
(1.05954 7.52048e-06 5.60361e-06)
(1.05954 4.15224e-06 6.76933e-06)
(1.05954 5.68282e-06 6.35125e-06)
(1.05954 2.92949e-06 7.61253e-06)
(1.05954 4.47298e-06 7.0424e-06)
(1.05954 2.38135e-06 8.49643e-06)
(1.05954 4.87811e-06 7.50976e-06)
(1.05954 2.57463e-06 8.56246e-06)
(1.05954 5.28343e-06 7.93737e-06)
(1.05954 3.3477e-06 7.94816e-06)
(1.05954 6.53568e-06 1.057e-05)
(1.05954 3.10577e-06 1.04523e-05)
(1.05954 6.52477e-06 1.04138e-05)
(1.05954 2.72783e-06 1.0727e-05)
(1.05954 6.7745e-06 1.05946e-05)
(1.05954 3.60517e-06 1.14071e-05)
(1.05955 7.2807e-06 1.09492e-05)
(1.05954 4.97602e-06 1.17632e-05)
(1.05954 7.58341e-06 1.11178e-05)
(1.05954 5.40286e-06 1.15451e-05)
(1.05954 7.39455e-06 1.07923e-05)
(1.05954 4.56258e-06 1.12232e-05)
(1.05954 6.1246e-06 1.01457e-05)
(1.05954 2.53844e-06 1.11428e-05)
(1.05954 4.37138e-06 9.73821e-06)
(1.05954 1.03537e-06 1.10875e-05)
(1.05954 3.60524e-06 9.76139e-06)
(1.05954 1.19492e-06 1.13463e-05)
(1.05954 4.13413e-06 1.01689e-05)
(1.05954 2.46268e-06 1.16707e-05)
(1.05954 5.66537e-06 1.0223e-05)
(1.05954 3.37988e-06 1.13067e-05)
(1.05954 7.251e-06 9.47039e-06)
(1.05954 4.4354e-06 1.03712e-05)
(1.05954 8.33659e-06 8.33068e-06)
(1.05954 5.61348e-06 9.25683e-06)
(1.05954 9.04358e-06 7.46537e-06)
(1.05954 5.99264e-06 8.74008e-06)
(1.05954 9.62875e-06 7.26979e-06)
(1.05954 5.82321e-06 8.81341e-06)
(1.05954 9.00642e-06 7.50221e-06)
(1.05954 4.47538e-06 9.25492e-06)
(1.05954 6.53678e-06 8.41205e-06)
(1.05954 2.70634e-06 1.03242e-05)
(1.05954 5.25069e-06 9.33917e-06)
(1.05954 2.05524e-06 1.1374e-05)
(1.05954 5.97678e-06 9.87519e-06)
(1.05954 2.18259e-06 1.15026e-05)
(1.05954 6.61662e-06 1.03805e-05)
(1.05954 2.94796e-06 1.09363e-05)
(1.05954 7.43994e-06 1.42149e-05)
(1.05954 2.30915e-06 1.484e-05)
(1.05954 7.41376e-06 1.41479e-05)
(1.05954 1.58386e-06 1.53444e-05)
(1.05954 7.80839e-06 1.46524e-05)
(1.05954 2.58956e-06 1.6387e-05)
(1.05954 8.59473e-06 1.52975e-05)
(1.05954 4.20713e-06 1.68678e-05)
(1.05954 9.00208e-06 1.54793e-05)
(1.05954 4.42923e-06 1.64889e-05)
(1.05954 8.73175e-06 1.49717e-05)
(1.05954 3.16937e-06 1.58996e-05)
(1.05954 7.02193e-06 1.41777e-05)
(1.05954 5.11488e-07 1.5685e-05)
(1.05954 4.67711e-06 1.36528e-05)
(1.05954 -1.04155e-06 1.56367e-05)
(1.05954 3.85268e-06 1.36649e-05)
(1.05954 -4.40941e-07 1.60634e-05)
(1.05954 4.54224e-06 1.42781e-05)
(1.05954 1.42075e-06 1.64179e-05)
(1.05954 6.34928e-06 1.42663e-05)
(1.05954 2.79435e-06 1.58062e-05)
(1.05954 8.18658e-06 1.32029e-05)
(1.05954 4.25367e-06 1.45615e-05)
(1.05954 9.6212e-06 1.16221e-05)
(1.05954 5.7942e-06 1.30321e-05)
(1.05954 1.02951e-05 1.03804e-05)
(1.05954 6.24321e-06 1.23579e-05)
(1.05954 1.10315e-05 1.01388e-05)
(1.05954 6.22309e-06 1.24816e-05)
(1.05954 1.02617e-05 1.04071e-05)
(1.05954 4.26081e-06 1.30287e-05)
(1.05954 6.87039e-06 1.15281e-05)
(1.05954 1.87499e-06 1.43852e-05)
(1.05954 5.47521e-06 1.27635e-05)
(1.05954 1.25329e-06 1.56046e-05)
(1.05954 6.51031e-06 1.33967e-05)
(1.05954 1.34001e-06 1.58177e-05)
(1.05954 7.36572e-06 1.40666e-05)
(1.05954 2.22616e-06 1.53674e-05)
(1.05954 7.34275e-06 1.97891e-05)
(1.05954 3.91909e-07 2.15956e-05)
(1.05954 7.20211e-06 1.98921e-05)
(1.05954 -6.02125e-07 2.24475e-05)
(1.05954 7.84175e-06 2.08686e-05)
(1.05954 7.19655e-07 2.39643e-05)
(1.05954 8.97936e-06 2.18653e-05)
(1.05954 2.53359e-06 2.46123e-05)
(1.05954 9.36094e-06 2.20409e-05)
(1.05954 2.44558e-06 2.40117e-05)
(1.05953 9.03021e-06 2.12516e-05)
(1.05953 6.05785e-07 2.3056e-05)
(1.05953 6.80963e-06 2.02529e-05)
(1.05953 -2.94923e-06 2.26533e-05)
(1.05953 4.05142e-06 1.95657e-05)
(1.05953 -4.63466e-06 2.25461e-05)
(1.05953 3.38584e-06 1.95615e-05)
(1.05953 -3.69299e-06 2.31478e-05)
(1.05954 4.41463e-06 2.04577e-05)
(1.05954 -1.32457e-06 2.35838e-05)
(1.05954 6.57359e-06 2.03622e-05)
(1.05954 4.11576e-07 2.26475e-05)
(1.05954 8.60629e-06 1.89226e-05)
(1.05954 2.39526e-06 2.10802e-05)
(1.05954 1.04787e-05 1.67768e-05)
(1.05954 4.47821e-06 1.8994e-05)
(1.05954 1.10557e-05 1.50484e-05)
(1.05954 5.05565e-06 1.81976e-05)
(1.05954 1.19618e-05 1.48375e-05)
(1.05953 5.44598e-06 1.84041e-05)
(1.05953 1.08967e-05 1.50674e-05)
(1.05953 2.66799e-06 1.90239e-05)
(1.05953 6.24609e-06 1.6435e-05)
(1.05953 -4.03942e-07 2.07219e-05)
(1.05953 4.76163e-06 1.79511e-05)
(1.05954 -8.65153e-07 2.20522e-05)
(1.05954 6.01751e-06 1.86851e-05)
(1.05954 -7.75161e-07 2.24424e-05)
(1.05954 7.0855e-06 1.96809e-05)
(1.05954 3.12063e-07 2.21774e-05)
(1.0594 6.1809e-06 2.82094e-05)
(1.0594 -3.35382e-06 3.17493e-05)
(1.0594 5.8477e-06 2.8694e-05)
(1.0594 -4.49844e-06 3.3212e-05)
(1.0594 6.8737e-06 3.04001e-05)
(1.0594 -2.67204e-06 3.52869e-05)
(1.05941 8.2912e-06 3.18284e-05)
(1.0594 -7.3829e-07 3.6136e-05)
(1.0594 8.37096e-06 3.19497e-05)
(1.0594 -1.1747e-06 3.51854e-05)
(1.0594 7.95525e-06 3.06777e-05)
(1.0594 -3.60589e-06 3.37093e-05)
(1.0594 5.01385e-06 2.93548e-05)
(1.0594 -8.07823e-06 3.30756e-05)
(1.0594 2.00295e-06 2.83705e-05)
(1.0594 -9.86e-06 3.27393e-05)
(1.0594 1.49459e-06 2.82931e-05)
(1.0594 -8.77181e-06 3.356e-05)
(1.0594 2.9905e-06 2.96942e-05)
(1.0594 -5.92831e-06 3.41034e-05)
(1.0594 5.56579e-06 2.94375e-05)
(1.0594 -4.07268e-06 3.26811e-05)
(1.05941 7.88544e-06 2.75566e-05)
(1.0594 -1.48517e-06 3.07424e-05)
(1.05941 1.04422e-05 2.4699e-05)
(1.0594 1.08322e-06 2.79167e-05)
(1.0594 1.07396e-05 2.23497e-05)
(1.0594 1.65001e-06 2.71131e-05)
(1.0594 1.20351e-05 2.22638e-05)
(1.0594 2.71795e-06 2.74458e-05)
(1.0594 1.05338e-05 2.23421e-05)
(1.0594 -1.25725e-06 2.81204e-05)
(1.0594 4.23616e-06 2.40466e-05)
(1.0594 -4.85851e-06 3.02815e-05)
(1.0594 2.85402e-06 2.58183e-05)
(1.0594 -5.00436e-06 3.16429e-05)
(1.0594 4.31576e-06 2.66102e-05)
(1.0594 -4.89123e-06 3.23788e-05)
(1.05941 5.68642e-06 2.81684e-05)
(1.0594 -3.47586e-06 3.2389e-05)
(1.05818 2.53664e-06 4.12652e-05)
(1.05816 -1.04047e-05 4.73678e-05)
(1.05817 1.9819e-06 4.25197e-05)
(1.05816 -1.15851e-05 4.97644e-05)
(1.05817 3.63062e-06 4.51198e-05)
(1.05816 -9.06688e-06 5.24211e-05)
(1.05817 5.26895e-06 4.7132e-05)
(1.05816 -7.25471e-06 5.35307e-05)
(1.05817 4.75245e-06 4.71821e-05)
(1.05815 -7.92649e-06 5.20253e-05)
(1.05817 4.48262e-06 4.51517e-05)
(1.05815 -1.09171e-05 4.98939e-05)
(1.05817 6.59673e-07 4.34514e-05)
(1.05815 -1.63167e-05 4.89546e-05)
(1.05817 -2.62108e-06 4.17469e-05)
(1.05815 -1.8089e-05 4.81105e-05)
(1.05817 -3.01788e-06 4.14355e-05)
(1.05815 -1.6861e-05 4.92644e-05)
(1.05817 -8.66459e-07 4.35696e-05)
(1.05816 -1.3419e-05 4.96816e-05)
(1.05818 1.99355e-06 4.2871e-05)
(1.05816 -1.16504e-05 4.75013e-05)
(1.05818 4.48403e-06 4.06507e-05)
(1.05816 -8.15871e-06 4.51844e-05)
(1.05818 7.73893e-06 3.69179e-05)
(1.05816 -5.52286e-06 4.15087e-05)
(1.05818 7.19961e-06 3.3964e-05)
(1.05816 -5.11863e-06 4.09877e-05)
(1.05818 9.40999e-06 3.41465e-05)
(1.05816 -2.91821e-06 4.13259e-05)
(1.05817 7.24484e-06 3.38766e-05)
(1.05816 -8.69477e-06 4.20626e-05)
(1.05817 -9.71959e-07 3.61372e-05)
(1.05816 -1.25695e-05 4.48927e-05)
(1.05818 -1.88561e-06 3.8058e-05)
(1.05816 -1.25345e-05 4.61971e-05)
(1.05818 -5.14542e-07 3.89069e-05)
(1.05816 -1.25475e-05 4.76913e-05)
(1.05818 1.4238e-06 4.1436e-05)
(1.05816 -1.04408e-05 4.80695e-05)
(1.05262 -4.72204e-06 5.93083e-05)
(1.05256 -2.12205e-05 6.80603e-05)
(1.05261 -5.32578e-06 6.15474e-05)
(1.05256 -2.22946e-05 7.14948e-05)
(1.05261 -2.60965e-06 6.51843e-05)
(1.05256 -1.91842e-05 7.47883e-05)
(1.05261 -6.41504e-07 6.77371e-05)
(1.05255 -1.78783e-05 7.58159e-05)
(1.05261 -2.0712e-06 6.74534e-05)
(1.05255 -1.86287e-05 7.33836e-05)
(1.0526 -1.94872e-06 6.45483e-05)
(1.05255 -2.2458e-05 7.03637e-05)
(1.0526 -6.95292e-06 6.22299e-05)
(1.05255 -2.93077e-05 6.87066e-05)
(1.0526 -1.05788e-05 5.93438e-05)
(1.05255 -3.12338e-05 6.74911e-05)
(1.05261 -1.08562e-05 5.86965e-05)
(1.05255 -2.96504e-05 6.93638e-05)
(1.05261 -7.66926e-06 6.17774e-05)
(1.05255 -2.56334e-05 6.96561e-05)
(1.05262 -4.9788e-06 6.06425e-05)
(1.05256 -2.43565e-05 6.64442e-05)
(1.05262 -2.19418e-06 5.81732e-05)
(1.05256 -1.91984e-05 6.35641e-05)
(1.05262 1.76953e-06 5.34974e-05)
(1.05256 -1.68514e-05 5.90891e-05)
(1.05262 -6.4133e-07 5.00427e-05)
(1.05257 -1.61067e-05 5.91588e-05)
(1.05262 3.33717e-06 5.04497e-05)
(1.05257 -1.20328e-05 5.9532e-05)
(1.05262 5.54373e-08 4.99785e-05)
(1.05256 -2.02326e-05 6.05025e-05)
(1.05262 -1.02808e-05 5.30665e-05)
(1.05256 -2.35776e-05 6.40483e-05)
(1.05262 -1.05075e-05 5.52184e-05)
(1.05257 -2.37254e-05 6.5443e-05)
(1.05262 -9.75918e-06 5.61541e-05)
(1.05256 -2.39667e-05 6.81278e-05)
(1.05262 -6.78771e-06 5.97524e-05)
(1.05256 -2.08496e-05 6.88125e-05)
(1.03869 -1.89778e-05 8.10732e-05)
(1.03857 -3.65827e-05 9.23138e-05)
(1.03868 -1.93836e-05 8.47639e-05)
(1.03857 -3.69566e-05 9.72943e-05)
(1.03868 -1.51375e-05 8.96817e-05)
(1.03857 -3.36058e-05 0.000100998)
(1.03868 -1.28582e-05 9.23082e-05)
(1.03857 -3.3143e-05 0.000101721)
(1.03868 -1.48245e-05 9.19795e-05)
(1.03857 -3.37684e-05 9.84336e-05)
(1.03867 -1.40114e-05 8.77241e-05)
(1.03856 -3.91347e-05 9.38306e-05)
(1.03867 -1.99512e-05 8.46317e-05)
(1.03856 -4.78409e-05 9.11382e-05)
(1.03868 -2.33562e-05 8.05697e-05)
(1.03857 -5.05293e-05 8.9008e-05)
(1.03869 -2.3729e-05 7.9046e-05)
(1.03857 -4.83977e-05 9.21555e-05)
(1.03869 -1.85788e-05 8.35107e-05)
(1.03858 -4.43031e-05 9.28448e-05)
(1.0387 -1.70418e-05 8.13302e-05)
(1.03858 -4.45965e-05 8.81224e-05)
(1.0387 -1.35097e-05 7.88949e-05)
(1.03858 -3.70065e-05 8.48405e-05)
(1.03871 -9.356e-06 7.33211e-05)
(1.03858 -3.62767e-05 7.91409e-05)
(1.03871 -1.48108e-05 6.91066e-05)
(1.03859 -3.40976e-05 8.03312e-05)
(1.03871 -7.79515e-06 7.01341e-05)
(1.03859 -2.75909e-05 8.10164e-05)
(1.0387 -1.31984e-05 6.90693e-05)
(1.03858 -3.86624e-05 8.2081e-05)
(1.03869 -2.56135e-05 7.3368e-05)
(1.03858 -3.9588e-05 8.65967e-05)
(1.03869 -2.53917e-05 7.61465e-05)
(1.03858 -4.03299e-05 8.75066e-05)
(1.03869 -2.62025e-05 7.69403e-05)
(1.03858 -4.02128e-05 9.19958e-05)
(1.03869 -2.16406e-05 8.22395e-05)
(1.03858 -3.53774e-05 9.32787e-05)
(1.01409 -3.97869e-05 0.000104134)
(1.01391 -5.74798e-05 0.000117535)
(1.01409 -3.97564e-05 0.000110318)
(1.01391 -5.59845e-05 0.000124529)
(1.01409 -3.40895e-05 0.00011609)
(1.01391 -5.31008e-05 0.000127806)
(1.01408 -3.21309e-05 0.000118652)
(1.01391 -5.3788e-05 0.000128511)
(1.01408 -3.53165e-05 0.000118524)
(1.01391 -5.32417e-05 0.000123393)
(1.01407 -3.39812e-05 0.000111403)
(1.01391 -6.06799e-05 0.000116789)
(1.01407 -4.08788e-05 0.000108053)
(1.01391 -7.13139e-05 0.00011323)
(1.01408 -4.33131e-05 0.000102596)
(1.01391 -7.54753e-05 0.000109193)
(1.01409 -4.35394e-05 0.000100837)
(1.01392 -7.27138e-05 0.000114695)
(1.01409 -3.46593e-05 0.000108193)
(1.01392 -6.91597e-05 0.000115573)
(1.0141 -3.4371e-05 0.000103708)
(1.01392 -7.24339e-05 0.000109546)
(1.01411 -2.8755e-05 0.000102636)
(1.01392 -6.23684e-05 0.000106387)
(1.01411 -2.46507e-05 9.59299e-05)
(1.01392 -6.51352e-05 9.88926e-05)
(1.01411 -3.37769e-05 9.13718e-05)
(1.01392 -5.94082e-05 0.000102869)
(1.01411 -2.20863e-05 9.34978e-05)
(1.01392 -5.03937e-05 0.000103482)
(1.0141 -3.07472e-05 9.08174e-05)
(1.01391 -6.52816e-05 0.00010516)
(1.0141 -4.46311e-05 9.69725e-05)
(1.01391 -6.15757e-05 0.000111197)
(1.0141 -4.5165e-05 9.94394e-05)
(1.01391 -6.43805e-05 0.000109987)
(1.0141 -4.9111e-05 0.000100174)
(1.01391 -6.29535e-05 0.000117349)
(1.0141 -4.19912e-05 0.000107625)
(1.01391 -5.53679e-05 0.000118529)
(0.978191 -6.94886e-05 0.000129177)
(0.977921 -8.60432e-05 0.000143272)
(0.978186 -6.78626e-05 0.000139541)
(0.977918 -8.16395e-05 0.000152869)
(0.978182 -6.02256e-05 0.000145387)
(0.977917 -7.87043e-05 0.000155491)
(0.978173 -5.85925e-05 0.000149208)
(0.977916 -7.98658e-05 0.00015804)
(0.978166 -6.50908e-05 0.000149849)
(0.97792 -7.61149e-05 0.000149854)
(0.978159 -6.47943e-05 0.000138225)
(0.977921 -8.57359e-05 0.000142618)
(0.978155 -7.23693e-05 0.000135676)
(0.977928 -9.81284e-05 0.000139154)
(0.97816 -7.36476e-05 0.000126721)
(0.977939 -0.000106659 0.000132783)
(0.978165 -7.39485e-05 0.000125814)
(0.977951 -0.00010259 0.000143318)
(0.97817 -6.09189e-05 0.000137915)
(0.977956 -0.000100669 0.000142592)
(0.978174 -6.36617e-05 0.000129622)
(0.977961 -0.000107973 0.000135836)
(0.978183 -5.31786e-05 0.000132111)
(0.977963 -9.60967e-05 0.000132163)
(0.978186 -4.97687e-05 0.000122489)
(0.97796 -0.000105644 0.000120468)
(0.978192 -6.2959e-05 0.000117885)
(0.977964 -9.44855e-05 0.000129105)
(0.978197 -4.49491e-05 0.000120131)
(0.977956 -8.36087e-05 0.000126898)
(0.97819 -5.78331e-05 0.000113893)
(0.977949 -0.000102748 0.000129332)
(0.978195 -7.11068e-05 0.000123002)
(0.977951 -9.19025e-05 0.000137002)
(0.978197 -7.41334e-05 0.00012419)
(0.977945 -9.81794e-05 0.000131497)
(0.978199 -8.17769e-05 0.000126139)
(0.97794 -9.42433e-05 0.000143265)
(0.978198 -7.10193e-05 0.000136517)
(0.977931 -8.3575e-05 0.000142637)
(0.931459 -0.000103735 0.000147125)
(0.931143 -0.000121983 0.000164669)
(0.931463 -9.87163e-05 0.000171691)
(0.931137 -0.000114304 0.000177957)
(0.931467 -9.13387e-05 0.000173966)
(0.931133 -0.000114741 0.000177372)
(0.931467 -8.95644e-05 0.000181841)
(0.931126 -0.000116706 0.000184783)
(0.931466 -9.9421e-05 0.000185192)
(0.931129 -0.000107725 0.000167384)
(0.931461 -0.000102426 0.000165201)
(0.931131 -0.000118427 0.00016244)
(0.931454 -0.000109913 0.000168716)
(0.931142 -0.00012948 0.000159228)
(0.931456 -0.000110025 0.00014909)
(0.93116 -0.00013851 0.000147003)
(0.931462 -0.000111128 0.000149043)
(0.931183 -0.000130448 0.000169178)
(0.931465 -9.413e-05 0.000166073)
(0.931199 -0.000131446 0.000162164)
(0.931468 -0.000102089 0.000147557)
(0.931219 -0.000145125 0.000158501)
(0.93148 -8.4003e-05 0.000158621)
(0.931229 -0.0001337 0.000153948)
(0.931476 -8.11251e-05 0.000140144)
(0.931233 -0.000152011 0.000129737)
(0.93148 -9.67347e-05 0.00013683)
(0.931239 -0.000134524 0.000147555)
(0.93148 -7.15837e-05 0.000138089)
(0.931221 -0.000124256 0.00013895)
(0.931465 -8.94033e-05 0.000124836)
(0.931207 -0.000148896 0.00014697)
(0.931465 -9.8332e-05 0.000143972)
(0.931199 -0.000129997 0.00015799)
(0.93146 -0.000107246 0.00013815)
(0.931184 -0.000139868 0.000144491)
(0.93146 -0.000118453 0.000146205)
(0.931171 -0.000132851 0.000167406)
(0.931459 -0.000103101 0.000161721)
(0.931156 -0.000121044 0.000157791)
(0.875169 -0.000145544 0.000125205)
(0.874857 -0.000153796 0.000166265)
(0.875183 -0.000134974 0.000184486)
(0.87484 -0.000144014 0.000183872)
(0.875188 -0.000124772 0.000163393)
(0.87483 -0.000146454 0.000155276)
(0.875187 -0.00011825 0.000181564)
(0.874794 -0.00015287 0.000178395)
(0.875179 -0.000128961 0.000192565)
(0.874784 -0.00013418 0.000124169)
(0.875194 -0.000140191 0.000149098)
(0.874793 -0.000144288 0.000135581)
(0.875211 -0.000151355 0.000183589)
(0.874806 -0.000152976 0.00013418)
(0.87523 -0.000149791 0.000132938)
(0.874845 -0.000174391 9.62353e-05)
(0.875256 -0.000150314 0.000143684)
(0.874874 -0.000163293 0.000148891)
(0.875246 -0.000134741 0.000168477)
(0.874891 -0.0001699 0.000113608)
(0.875234 -0.000151325 0.000128012)
(0.874922 -0.000183691 0.000126075)
(0.875221 -0.000126391 0.000170201)
(0.874916 -0.000172952 0.000124076)
(0.8752 -0.000128142 0.00010678)
(0.874919 -0.000202672 8.07098e-05)
(0.875196 -0.000140214 0.000124271)
(0.874931 -0.000171999 0.000141708)
(0.875171 -0.000105799 0.00012281)
(0.874916 -0.000162778 0.000100355)
(0.875141 -0.000128426 8.71318e-05)
(0.874903 -0.000194539 0.000131434)
(0.875141 -0.000129035 0.000147309)
(0.874894 -0.000167084 0.000149625)
(0.875132 -0.000147249 0.000114281)
(0.874878 -0.000178631 0.000117563)
(0.875133 -0.00016017 0.000132006)
(0.874874 -0.000166196 0.000175834)
(0.875136 -0.0001383 0.000159555)
(0.874862 -0.000153834 0.000140209)
(0.810847 -0.000164304 6.473e-06)
(0.810622 -0.000163119 0.000102722)
(0.8108 -0.000144655 0.000126837)
(0.810562 -0.000148993 0.00011201)
(0.810825 -0.000146728 7.61199e-06)
(0.810551 -0.000161221 1.42881e-05)
(0.810835 -0.000132546 6.90766e-05)
(0.810493 -0.000174112 0.000141523)
(0.810872 -0.000143684 8.8234e-05)
(0.810521 -0.000150009 -2.55552e-05)
(0.81093 -0.00015978 2.56158e-05)
(0.810517 -0.000162915 1.25222e-05)
(0.81096 -0.000174283 0.000169913)
(0.810524 -0.000178359 1.82649e-05)
(0.811026 -0.000170593 4.9886e-05)
(0.810534 -0.000197005 -7.15635e-05)