# y+ ()       
# Time        	patch         	min           	max           	average       
48            	bottomWall	1.468956e+00	6.580891e+00	3.145408e+00
48            	topWall	1.494313e+00	6.570398e+00	3.185268e+00
