/*--------------------------------*- C++ -*----------------------------------*\
  =========                 |
  \\      /  F ield         | OpenFOAM: The Open Source CFD Toolbox
   \\    /   O peration     | Website:  https://openfoam.org
    \\  /    A nd           | Version:  10
     \\/     M anipulation  |
\*---------------------------------------------------------------------------*/
FoamFile
{
    format      ascii;
    class       volVectorField;
    location    "12.5";
    object      U;
}
// * * * * * * * * * * * * * * * * * * * * * * * * * * * * * * * * * * * * * //

dimensions      [0 1 -1 0 0 0 0];

internalField   nonuniform List<vector> 
102400
(
(0.650246 0.00116853 0.437909)
(0.644029 0.00214893 0.407907)
(0.658718 0.00347123 0.356192)
(0.664922 0.00495174 0.364496)
(0.622371 0.00312928 0.371421)
(0.606176 0.000999387 0.379603)
(0.700206 0.00289319 0.40942)
(0.618112 0.00340465 0.433037)
(0.662944 0.00359519 0.423977)
(0.679744 0.00486922 0.41661)
(0.568456 0.00524643 0.371427)
(0.494897 0.00472326 0.376327)
(0.555121 0.00225806 0.417472)
(0.676236 0.00322616 0.40421)
(0.674257 0.00185556 0.39133)
(0.589159 0.00125963 0.373413)
(0.578433 0.00277357 0.349457)
(0.618045 0.00434001 0.394722)
(0.638325 0.00356422 0.403916)
(0.647556 0.00221861 0.352917)
(0.576595 0.00244683 0.319738)
(0.574181 0.00219787 0.382346)
(0.586676 0.00225662 0.421328)
(0.647422 0.00189885 0.370187)
(0.668861 -0.000473441 0.358701)
(0.577864 0.00300628 0.380678)
(0.551995 0.00132408 0.3791)
(0.615695 0.00185471 0.382822)
(0.62169 0.0032624 0.403401)
(0.631583 0.00200069 0.392353)
(0.464687 0.00942074 0.302345)
(0.460791 0.00403293 0.346447)
(0.66786 0.000994373 0.430909)
(0.611381 0.00194627 0.394778)
(0.551988 0.00477881 0.315784)
(0.594159 0.00281355 0.276999)
(0.631626 0.00165269 0.322859)
(0.593773 0.00169885 0.404611)
(0.623326 0.00168513 0.403986)
(0.644832 0.000233348 0.356809)
(0.616398 0.00450425 0.418569)
(0.61814 0.00938997 0.350271)
(0.686996 0.0117272 0.269257)
(0.683987 0.0180632 0.284058)
(0.581101 0.0138094 0.268098)
(0.446457 -0.00148625 0.28792)
(0.793528 0.00880861 0.358672)
(0.592396 0.0123276 0.395816)
(0.661702 0.0059025 0.404078)
(0.650774 0.0237382 0.356708)
(0.41389 0.00653483 0.301887)
(0.423513 -0.0174716 0.361406)
(0.470232 -0.0276308 0.468757)
(0.688177 -0.00950061 0.402517)
(0.662923 0.00525634 0.332278)
(0.425684 0.00321858 0.294222)
(0.448195 -0.000488459 0.275667)
(0.521212 0.0121848 0.339652)
(0.590928 0.0120107 0.338013)
(0.598819 0.0117816 0.241254)
(0.362847 0.012382 0.216935)
(0.445497 0.00271999 0.319439)
(0.431045 0.000630898 0.348336)
(0.603289 0.001148 0.270434)
(0.615058 0.00651495 0.264082)
(0.403996 0.0091651 0.334082)
(0.345706 -0.00917255 0.344069)
(0.531211 -0.00353971 0.32518)
(0.471362 0.00852775 0.334612)
(0.493099 0.0167421 0.287171)
(0.343323 -0.00447765 0.208965)
(0.298407 -0.0347548 0.356496)
(0.629262 -0.0176505 0.420919)
(0.3758 0.00641735 0.309574)
(0.469077 -0.00487664 0.192651)
(0.652008 -0.0173722 0.143601)
(0.624121 0.00195164 0.221116)
(0.468766 0.00151568 0.346106)
(0.54169 -0.00704814 0.322035)
(0.617468 -0.00294055 0.263087)
(0.533205 0.00355066 0.409589)
(0.633295 0.00895033 0.323137)
(0.711624 0.0147604 0.240636)
(0.657931 0.0284512 0.222807)
(0.57493 0.0231192 0.218241)
(0.300168 -0.0179451 0.268103)
(0.830898 0.00424489 0.312763)
(0.592564 0.0186748 0.365657)
(0.644375 0.00773268 0.363858)
(0.532774 0.0431382 0.303195)
(0.40303 -0.00238703 0.24723)
(0.590848 -0.0438111 0.311177)
(0.4784 -0.0595026 0.440905)
(0.636877 -0.0261755 0.395193)
(0.574644 0.00172971 0.287543)
(0.46956 -0.0104091 0.284273)
(0.394249 -0.0178089 0.291068)
(0.399656 0.0162726 0.297532)
(0.527712 0.0180842 0.243239)
(0.598544 0.0199065 0.164322)
(0.220994 0.0193888 0.199216)
(0.37669 -0.00507895 0.293341)
(0.310502 -0.0158631 0.333774)
(0.545632 -0.00547848 0.232275)
(0.526154 0.00787215 0.219418)
(0.326013 0.00403827 0.33869)
(0.199618 -0.0307801 0.35046)
(0.489221 -0.0130446 0.289023)
(0.201935 0.0100647 0.281749)
(0.512518 0.00458818 0.223507)
(0.510341 -0.0164295 0.132661)
(0.257132 -0.0547309 0.324445)
(0.446441 -0.0335379 0.421015)
(0.102783 -0.00136681 0.267138)
(0.446643 -0.0448214 0.156026)
(0.797929 -0.0501376 0.0839667)
(0.644353 0.0071688 0.169678)
(0.372671 -0.0103784 0.341358)
(0.483013 -0.0369765 0.26582)
(0.608883 -0.0141754 0.232477)
(0.468937 -0.00121204 0.40142)
(0.706994 0.00397855 0.304049)
(0.716958 0.0252912 0.218959)
(0.572609 0.0448882 0.174308)
(0.648401 0.0375056 0.206723)
(0.35946 -0.0400965 0.307466)
(0.765129 -0.0106809 0.290442)
(0.602644 0.0257626 0.350384)
(0.634737 0.027822 0.316123)
(0.340761 0.0544655 0.287087)
(0.439545 -0.0201389 0.233752)
(0.625238 -0.0637393 0.303764)
(0.49744 -0.0593541 0.396583)
(0.52872 -0.0253781 0.369292)
(0.446948 -0.00900038 0.257389)
(0.65464 -0.0190293 0.297943)
(0.441447 -0.0229426 0.30597)
(0.318392 0.0323419 0.233931)
(0.464004 0.0248499 0.140936)
(0.655926 0.0327473 0.107673)
(0.205774 0.0360015 0.202932)
(0.416615 -0.0147659 0.29938)
(0.323986 -0.0260689 0.359975)
(0.473075 -0.0169859 0.25554)
(0.531909 0.000656878 0.213933)
(0.418008 0.0072595 0.342978)
(0.299293 -0.0419465 0.379668)
(0.482666 -0.0124295 0.280275)
(0.0672475 0.00822138 0.249416)
(0.552766 -0.0184173 0.16209)
(0.572085 -0.00679707 0.131857)
(0.388168 -0.0468915 0.323506)
(0.305773 -0.0435009 0.453211)
(0.237263 -0.0123666 0.274581)
(0.477129 -0.0695162 0.232268)
(0.684361 -0.07879 0.114307)
(0.638416 0.0160939 0.140191)
(0.465386 -0.0152297 0.311471)
(0.487872 -0.0613857 0.223021)
(0.581542 -0.0251047 0.221928)
(0.575618 -0.0237308 0.379612)
(0.823131 -0.0131157 0.281191)
(0.765267 0.0352378 0.197001)
(0.431774 0.0699108 0.137163)
(0.680211 0.0407173 0.207196)
(0.573463 -0.0589041 0.322333)
(0.68691 -0.0290241 0.278657)
(0.537683 0.031008 0.338884)
(0.652076 0.0516269 0.284499)
(0.325327 0.0513582 0.250741)
(0.476111 -0.0401419 0.250972)
(0.61013 -0.0875952 0.309712)
(0.551126 -0.0493655 0.333264)
(0.468852 -0.0167427 0.32259)
(0.349148 -0.0396746 0.275989)
(0.741416 -0.0306572 0.322309)
(0.526756 -0.0113677 0.300098)
(0.257596 0.0549393 0.152606)
(0.396934 0.0274271 0.0962975)
(0.676968 0.0389186 0.0832708)
(0.31067 0.0573087 0.222865)
(0.461972 -0.0154571 0.323895)
(0.351412 -0.021308 0.371387)
(0.597868 -0.0404827 0.278495)
(0.576462 -0.0178231 0.226167)
(0.542856 0.00857823 0.340027)
(0.566142 -0.036217 0.368253)
(0.437347 -0.0018643 0.307462)
(0.219783 0.00128143 0.228561)
(0.561769 -0.030829 0.178187)
(0.535812 -0.0127705 0.136382)
(0.581032 -0.0465213 0.286592)
(0.250298 -0.0650871 0.457593)
(0.579029 -0.0317092 0.336684)
(0.711916 -0.0612512 0.271894)
(0.507231 -0.0897935 0.181114)
(0.588603 0.00703698 0.134955)
(0.648055 -0.00710579 0.269866)
(0.518409 -0.0579314 0.167237)
(0.547713 -0.0393079 0.200669)
(0.661713 -0.0488505 0.371906)
(0.890816 -0.0333809 0.24419)
(0.741057 0.0560743 0.184689)
(0.333675 0.0898511 0.12642)
(0.521484 0.0191305 0.232586)
(0.710468 -0.0737373 0.311939)
(0.659263 -0.0415647 0.256827)
(0.57319 0.0280222 0.339698)
(0.565424 0.065817 0.259401)
(0.494935 0.0652804 0.235046)
(0.563778 -0.0422825 0.269819)
(0.730506 -0.0993103 0.300184)
(0.602543 -0.0165835 0.210316)
(0.527309 0.00963765 0.271447)
(0.263383 -0.0680944 0.342355)
(0.652773 -0.0405211 0.309303)
(0.598009 0.00935552 0.274486)
(0.192006 0.0799403 0.14034)
(0.338172 0.0204844 0.13072)
(0.707263 0.0273141 0.123148)
(0.469522 0.0845598 0.214781)
(0.576848 -0.000287052 0.314305)
(0.441491 -0.0150222 0.345806)
(0.840155 -0.0535976 0.257541)
(0.561898 -0.0316374 0.244398)
(0.641361 0.00453217 0.322347)
(0.739079 -0.00991678 0.279112)
(0.435024 0.0206936 0.315698)
(0.41911 0.00478168 0.229009)
(0.55352 -0.0422576 0.208757)
(0.645299 -0.0106456 0.132418)
(0.727471 -0.035307 0.202662)
(0.410477 -0.0834758 0.386888)
(0.585608 -0.0577053 0.375968)
(0.795265 -0.0533099 0.262854)
(0.625198 -0.0771877 0.189861)
(0.535836 -0.0127692 0.143305)
(0.728927 -0.000920654 0.247663)
(0.524024 -0.0530033 0.109637)
(0.588402 -0.0627158 0.189893)
(0.542505 -0.0620052 0.35853)
(0.857055 -0.0788549 0.20313)
(0.810076 0.0530439 0.154681)
(0.417167 0.118869 0.117954)
(0.479381 0.0203243 0.246453)
(0.676656 -0.0850783 0.287524)
(0.620031 -0.0540923 0.23329)
(0.625995 0.0220016 0.343628)
(0.559629 0.0801785 0.212463)
(0.590468 0.0561571 0.25642)
(0.606182 -0.0681189 0.283256)
(0.717421 -0.12331 0.266101)
(0.653637 0.0159453 0.101766)
(0.532107 0.0551522 0.239826)
(0.335208 -0.0838451 0.398864)
(0.607615 -0.050996 0.290082)
(0.685877 0.0359935 0.255531)
(0.189483 0.109442 0.182104)
(0.439332 0.00928034 0.169124)
(0.494902 0.00370789 0.211135)
(0.554603 0.0941281 0.22927)
(0.65968 0.0168213 0.277246)
(0.633293 0.00459635 0.293439)
(0.948606 -0.0483878 0.220124)
(0.612214 -0.0359277 0.265783)
(0.710426 0.00238969 0.314682)
(0.729995 0.00751609 0.220337)
(0.567449 0.0547311 0.29962)
(0.521972 0.0151766 0.21011)
(0.556467 -0.0555737 0.225952)
(0.71622 -0.00306178 0.138289)
(0.807504 -0.0312393 0.110763)
(0.751693 -0.0906355 0.286543)
(0.551321 -0.0593968 0.343263)
(0.707198 -0.0549799 0.243096)
(0.797648 -0.0750983 0.159617)
(0.535851 -0.0258978 0.174993)
(0.735378 0.00560783 0.20989)
(0.620449 -0.047801 0.0858483)
(0.683452 -0.0751209 0.228689)
(0.35684 -0.0710633 0.323405)
(0.971045 -0.133949 0.223528)
(0.692996 0.0385457 0.153335)
(0.315598 0.133198 0.108924)
(0.543815 0.00886717 0.198757)
(0.661895 -0.0918214 0.22597)
(0.513712 -0.0773279 0.204405)
(0.623653 0.00142579 0.345964)
(0.510081 0.0979271 0.191476)
(0.591715 0.040537 0.274272)
(0.797797 -0.0630295 0.305573)
(0.93223 -0.142943 0.190597)
(0.630361 0.030162 0.168994)
(0.548236 0.0896498 0.260841)
(0.428545 -0.111411 0.375914)
(0.638271 -0.0747989 0.264905)
(0.672801 0.0517147 0.216193)
(0.291211 0.13188 0.21061)
(0.53561 0.0170503 0.185179)
(0.245778 -0.011238 0.27539)
(0.583821 0.0861072 0.237245)
(0.662365 0.0339596 0.214192)
(0.760462 0.0288771 0.223121)
(0.948181 -0.0365686 0.189354)
(0.710952 -0.0395994 0.25551)
(0.802189 -0.00890059 0.254857)
(0.721674 0.0146555 0.202069)
(0.532032 0.0835008 0.266128)
(0.729217 0.038781 0.165956)
(0.656868 -0.0711516 0.223846)
(0.699631 0.0144576 0.10965)
(0.715446 -0.0251041 0.0253578)
(0.873057 -0.100529 0.169177)
(0.715688 -0.0482932 0.289759)
(0.908631 -0.0424346 0.200325)
(0.75767 -0.0589216 0.119892)
(0.446656 -0.0254749 0.229456)
(0.729719 -0.00305895 0.145178)
(0.843715 -0.0352252 0.063546)
(0.835393 -0.0588325 0.234328)
(0.247984 -0.0732951 0.300003)
(1.00786 -0.195298 0.262132)
(0.56579 0.0442745 0.202896)
(0.275498 0.115364 0.137442)
(0.599312 -0.0174152 0.150761)
(0.747249 -0.0785637 0.175318)
(0.52789 -0.109377 0.175599)
(0.612949 -0.0139667 0.29116)
(0.454924 0.0967406 0.152888)
(0.534481 0.0363957 0.263802)
(0.880856 -0.0852043 0.350685)
(1.09704 -0.151131 0.177534)
(0.575861 0.0363065 0.116641)
(0.473076 0.0954719 0.257096)
(0.440792 -0.103284 0.2909)
(0.541909 -0.094611 0.228508)
(0.652157 0.0701978 0.185519)
(0.36905 0.143895 0.222338)
(0.683234 0.0216002 0.145018)
(0.406722 -0.0375809 0.271617)
(0.525441 0.0399409 0.260997)
(0.700034 0.0351376 0.176836)
(0.787121 0.0387656 0.184909)
(0.95039 -0.0228654 0.203743)
(0.693217 -0.0383112 0.214367)
(0.855 -0.0559431 0.154322)
(0.836747 0.0192383 0.154288)
(0.540238 0.106031 0.201449)
(0.927638 0.0285157 0.11322)
(0.809559 -0.0856761 0.21599)
(0.771078 0.039096 0.125016)
(0.747079 -0.00917944 -0.0285029)
(0.913748 -0.0937919 0.0526537)
(0.810824 -0.0591307 0.230081)
(1.19193 -0.0255081 0.139025)
(0.723208 -0.0224166 0.0861045)
(0.468391 -0.0501131 0.267764)
(0.767675 -0.0220642 0.086969)
(0.95931 -0.0383359 0.0254932)
(0.863509 -0.0193333 0.210122)
(0.368127 -0.0972259 0.185255)
(0.782558 -0.248453 0.1894)
(0.753401 0.0296385 0.159023)
(0.754704 0.103562 0.150905)
(0.762372 -0.0467041 0.196005)
(0.786165 -0.0736939 0.151774)
(0.776962 -0.121877 0.146867)
(0.554109 -0.0234069 0.180948)
(0.408302 0.102836 0.101421)
(0.474443 0.0381023 0.21351)
(0.903538 -0.148532 0.273576)
(1.19828 -0.16044 0.199236)
(0.623227 0.0246521 0.0910887)
(0.393421 0.0877285 0.234257)
(0.767252 -0.11064 0.252902)
(0.591458 -0.13205 0.18243)
(0.616046 0.0499111 0.121801)
(0.467405 0.13825 0.179736)
(0.67643 0.0328005 0.0835696)
(0.421697 -0.0521398 0.234482)
(0.427327 0.00407757 0.258977)
(0.704459 0.0241729 0.151075)
(0.871559 0.0278941 0.208089)
(0.944242 -0.00982709 0.181528)
(0.674304 -0.0425277 0.197546)
(0.783057 -0.0520497 0.157881)
(0.675679 0.0335057 0.0674527)
(0.593062 0.119187 0.0450509)
(1.05536 0.0195958 0.0150169)
(0.888361 -0.0912358 0.177793)
(0.74921 0.0476731 0.157851)
(0.883665 0.00217865 -0.0375333)
(0.983943 -0.0679012 -0.0522982)
(0.906731 -0.0588654 0.166912)
(1.18028 -0.00230058 0.0887251)
(0.78895 -0.00306331 0.0731524)
(0.757663 -0.0830169 0.204677)
(0.793113 -0.0411127 0.0672388)
(1.06844 -0.039139 0.0338105)
(0.782799 0.00159821 0.207696)
(0.614393 -0.116584 0.0883234)
(0.806145 -0.214288 0.0236607)
(0.79512 -0.00740177 0.0716268)
(1.05381 0.0819897 0.0996808)
(0.880942 -0.0730761 0.185307)
(0.749659 -0.107509 0.155349)
(0.900647 -0.114263 0.114712)
(0.354777 -0.00190188 0.133707)
(0.381874 0.118137 0.104678)
(0.44174 0.0299926 0.240329)
(0.973619 -0.16612 0.159326)
(0.988542 -0.143057 0.0798571)
(0.61685 0.0472773 0.112917)
(0.417364 0.0651345 0.126598)
(0.877474 -0.127877 0.162117)
(0.627242 -0.131799 0.180122)
(0.531004 0.0524578 0.0576416)
(0.589565 0.140091 0.0189539)
(0.57206 0.03891 0.0260542)
(0.423292 -0.0479031 0.189252)
(0.411802 0.00805211 0.193334)
(0.652667 0.0286429 0.0401649)
(0.975414 0.0344959 0.125982)
(1.03429 0.00815187 0.104688)
(0.678353 -0.0644548 0.142965)
(0.725313 -0.0518892 0.182987)
(0.699363 0.0492332 0.0665077)
(0.720653 0.125036 -0.0846383)
(1.14968 0.0103883 -0.0338297)
(0.91915 -0.0798531 0.182064)
(0.657338 0.0370519 0.196393)
(0.874013 0.00517272 -0.0167898)
(0.993602 -0.0548602 -0.0812141)
(1.00971 -0.0628772 0.119857)
(1.1002 0.0110271 0.0978711)
(0.985692 0.0218024 0.0414983)
(0.946509 -0.0583569 0.098278)
(0.726601 -0.0602341 0.0153276)
(1.10085 -0.0371294 0.0497014)
(0.771737 0.020662 0.15833)
(0.745217 -0.0793785 0.0586977)
(1.02164 -0.169629 -0.0244995)
(0.633779 -0.0143843 0.0658294)
(0.879972 0.0964381 0.0365337)
(0.946759 -0.0542706 0.0895058)
(0.801537 -0.158522 0.176464)
(0.932649 -0.101228 0.101092)
(0.426373 2.68158e-05 0.108846)
(0.38851 0.0745421 0.118203)
(0.504036 0.00741597 0.166478)
(1.16252 -0.112848 0.082851)
(0.908041 -0.0987005 0.0423258)
(0.562446 0.0638723 0.141672)
(0.548634 0.0188654 0.0229762)
(0.714473 -0.127389 0.0413957)
(0.646839 -0.131124 0.176348)
(0.452309 0.0313185 0.0923448)
(0.634514 0.126834 -0.111113)
(0.572193 0.027679 -0.0504295)
(0.610633 -0.052584 0.139625)
(0.394825 0.0224838 0.053517)
(0.486026 0.0235461 -0.0914424)
(1.10578 0.0400728 -0.0870312)
(1.18977 0.0201526 -0.0334629)
(0.634301 -0.0624775 0.109305)
(0.663475 -0.0623624 0.158414)
(0.797819 0.02838 0.0314805)
(0.740737 0.0822916 -0.173505)
(1.20564 -0.0145274 -0.0859485)
(0.95924 -0.0690148 0.165584)
(0.663162 0.047833 0.175071)
(0.786435 0.00210271 -0.0272428)
(0.942639 -0.036449 -0.0588566)
(0.968664 -0.0338267 0.109187)
(1.17631 0.00727023 0.126736)
(0.996598 0.0351138 0.058189)
(1.03396 -0.0197464 0.0438135)
(0.629287 -0.0221403 -0.0885072)
(0.866618 -0.0386961 -0.02239)
(0.835123 -0.00554594 0.117864)
(0.859053 -0.0654062 0.0199312)
(0.974683 -0.142412 0.0154849)
(0.757587 -0.0302312 0.0200785)
(0.855701 0.0581273 0.0742353)
(1.28584 -0.0442161 -0.0407773)
(1.17747 -0.142256 0.0302177)
(0.930597 -0.0882376 0.0679223)
(0.782365 0.0419518 0.0186756)
(0.353263 0.0748046 0.0945254)
(0.604335 -0.0170878 0.0106172)
(1.14974 -0.108651 -0.0416601)
(1.18022 -0.0772165 0.0178151)
(0.689788 0.109772 0.11705)
(0.652985 0.0326088 -0.0536701)
(0.558698 -0.121055 0.0181467)
(0.802117 -0.145084 0.103364)
(0.609225 0.0180118 0.099456)
(0.889023 0.136032 -0.163822)
(0.824557 0.0264736 -0.209976)
(0.890343 -0.0497684 0.142596)
(0.568203 0.046882 0.0648042)
(0.484954 -0.00150896 -0.118812)
(1.10678 -0.0194806 -0.161167)
(1.09695 0.0222142 -0.0951374)
(0.760528 -0.0715401 0.100614)
(0.725691 -0.102966 0.130029)
(0.824176 -0.0154573 0.0173074)
(0.940787 0.0757444 -0.15863)
(1.11818 -0.00342135 -0.055845)
(0.790878 -0.0302218 0.18855)
(0.724841 0.0616412 0.151694)
(0.797217 -0.00178852 -0.0262908)
(0.902785 -0.0229802 -0.00112087)
(0.891223 -0.0734802 0.152133)
(1.02314 -0.00949835 0.156505)
(0.97962 0.0652347 0.144745)
(1.02553 0.0133815 0.0539073)
(0.777664 0.016866 -0.151863)
(0.735502 -0.0298968 -0.0708932)
(0.702331 0.00913325 0.0849474)
(0.975564 -0.0218275 0.0248273)
(0.724301 -0.115109 0.179482)
(1.09751 -0.0425771 -0.017014)
(1.13422 0.0143019 0.0108188)
(1.23688 -0.063507 -0.0923464)
(1.09142 -0.120523 -0.0559859)
(0.97327 -0.0303994 0.0364314)
(0.996332 0.0602472 0.0133598)
(0.550266 0.0183783 0.0595424)
(0.727262 -0.0940956 -0.0633033)
(1.20068 -0.0860794 -0.0939178)
(0.862805 0.035177 0.0543304)
(0.549678 0.0856265 0.0243024)
(0.748368 0.0124638 -0.165174)
(0.623552 -0.0800708 0.0185702)
(0.821156 -0.0942166 0.121826)
(0.869569 -0.00283481 0.0651867)
(1.04353 0.0537682 -0.107306)
(0.723707 0.0224867 -0.200158)
(0.795787 -0.0220469 0.164137)
(0.758549 0.0367173 0.17252)
(0.769177 -0.00297431 -0.0695974)
(0.996359 -0.0352217 -0.0635064)
(0.952933 0.00740469 -0.00363174)
(0.831192 -0.0535326 0.00257181)
(0.903461 -0.10833 0.0163681)
(0.832691 -0.0276029 -0.0801435)
(0.86997 0.059588 -0.186152)
(1.06971 -0.0629986 -0.011197)
(0.706472 -0.0581229 0.184921)
(0.647098 0.073296 0.112359)
(0.835832 0.0162861 -0.127359)
(1.03906 0.0302402 0.0483342)
(0.919658 -0.0302144 0.139818)
(0.680555 -0.0596075 0.0713767)
(0.965386 -0.00656884 0.12345)
(0.880409 0.0117235 0.105031)
(0.96637 0.0652452 -0.146538)
(0.799625 -0.00712941 -0.084755)
(0.695192 -0.0269423 0.0491108)
(1.03285 0.0330495 0.0548159)
(0.740638 -0.0897779 0.23711)
(1.1508 -0.118935 0.073997)
(1.27 0.0244184 -0.0316644)
(1.16434 -0.0107523 -0.139412)
(1.09962 -0.0625811 -0.106812)
(0.828243 -0.0247336 0.0286227)
(1.00521 0.10936 -0.0411633)
(1.22616 0.0622155 0.0267604)
(0.916812 -0.105741 0.0628812)
(1.19715 -0.1268 -0.0848351)
(0.859256 0.0224299 0.0544769)
(1.1125 0.123448 0.0268344)
(1.04328 0.0623585 -0.162898)
(0.739159 -0.124843 -0.0569126)
(0.841728 -0.16941 0.211909)
(0.92384 -0.0112631 0.0509298)
(1.0233 0.146038 -0.19225)
(0.952943 0.0799861 -0.144574)
(0.721001 -0.0409345 0.041306)
(0.707869 0.0401642 0.0761478)
(0.775288 -0.029273 -0.0105821)
(0.912945 -0.0514833 -0.08731)
(1.21476 0.0270422 0.0194323)
(1.32343 -0.0142715 0.0873337)
(1.21969 -0.09914 0.0492815)
(0.749637 -0.0747387 -0.0966298)
(0.960297 0.00433606 -0.173267)
(1.24622 0.0426479 -0.0464994)
(0.62801 0.076892 0.135666)
(0.699799 0.0136052 0.00875624)
(0.794282 -0.0441724 -0.177812)
(0.938039 0.00308415 -0.00460845)
(1.1914 -0.0264852 0.126832)
(0.914269 -0.0584899 0.0482564)
(0.912789 -0.0611798 0.0104584)
(0.783536 -0.0182735 0.00559495)
(0.851589 0.0624538 -0.136727)
(0.897661 0.0432405 -0.0714354)
(1.00175 0.0155761 -0.0486377)
(1.26547 0.0313673 0.045621)
(1.09652 -0.0505423 0.0280334)
(0.966783 -0.170515 0.0887906)
(1.28366 0.00879088 0.0114142)
(1.27464 -0.0310691 -0.0384251)
(0.97365 -0.0192567 -0.00750257)
(0.756257 0.044748 -0.0190912)
(1.05796 -0.0316241 -0.0591925)
(1.47577 -0.0752558 -0.012729)
(1.30207 -0.0439075 0.00761714)
(1.23444 0.0388271 -0.0689981)
(1.13942 0.0787358 -0.0707852)
(1.18451 -0.0367855 -0.00191397)
(1.48028 0.0309914 -0.197623)
(1.29557 0.101317 -0.188462)
(0.894764 0.0102424 0.0890153)
(0.775636 0.0531307 0.0632158)
(0.810622 0.0644957 -0.0328099)
(1.58322 0.0314005 -0.192365)
(1.29326 0.04903 -0.176768)
(0.634117 0.0370234 0.145341)
(0.815593 -0.0601046 0.144531)
(0.930241 -0.0908738 -0.0375425)
(1.13814 -0.105414 -0.0673589)
(1.11426 -0.0641985 0.0664895)
(1.12871 -0.0075043 0.203824)
(0.979161 -0.0063508 0.10112)
(0.926742 -0.0329733 -0.153281)
(1.18468 -0.0261633 -0.166597)
(1.09202 -0.0130472 0.0235633)
(1.15101 -0.0290675 -0.0288651)
(1.06655 0.0178927 -0.169817)
(0.787573 -0.00294096 -0.0916439)
(1.03802 -0.0683549 0.120589)
(1.16823 -0.096364 0.109784)
(1.15559 -0.0853963 -0.0134377)
(0.999521 -0.0167447 -0.00409821)
(0.728283 0.0666702 -0.100551)
(0.753222 -0.000566946 -0.0563008)
(1.05422 -0.0906283 0.0746879)
(1.17194 0.0885244 0.00755405)
(1.40615 0.064743 -0.0402126)
(1.10429 -0.127683 0.0343199)
(0.88249 -0.0532212 -0.0312947)
(1.06926 0.0850579 -0.0201982)
(0.795362 0.108883 0.123411)
(0.901518 0.0169756 -0.0545213)
(1.26936 -0.0695143 -0.0559734)
(1.17382 -0.00191332 0.0316988)
(0.670393 -0.0352755 0.0855837)
(0.669888 -0.0322977 0.0880822)
(1.24293 -0.00370079 0.0243246)
(1.33018 -0.000645458 -0.0334056)
(1.06125 0.0579067 -0.142578)
(0.787887 -0.00615774 0.0241932)
(0.729239 -0.0685785 0.140055)
(0.808046 -0.0371825 0.143211)
(1.11607 -0.0477243 0.051309)
(1.14922 -0.0325958 -0.142734)
(0.788901 0.0588093 -0.0205584)
(0.637258 0.0856924 0.229016)
(0.798613 -0.00610185 0.152634)
(1.06095 -0.0381613 -0.134737)
(1.2736 0.0347778 -0.248564)
(1.00988 0.0415109 0.0278961)
(0.961899 -0.0528971 0.252568)
(0.967783 -0.0616909 0.183855)
(1.02935 -0.0192492 -0.0466595)
(1.41005 0.0426503 -0.140916)
(1.16821 0.0456226 -0.0595727)
(1.06895 -0.0555887 0.0118492)
(0.859534 -0.0278594 -0.010517)
(0.67642 0.0547938 -0.0333344)
(0.955492 0.00063916 0.0464503)
(0.986732 -0.0910098 0.178258)
(1.19538 -0.0511476 0.0365967)
(1.13904 0.0216121 -0.026712)
(0.630388 0.0883341 0.0506081)
(0.842517 0.0568124 -0.0111771)
(1.16 -0.0341084 0.00170144)
(1.10579 -0.0168303 0.121944)
(1.1913 0.0594305 0.0379427)
(1.21135 0.0507122 -0.105634)
(0.945572 0.0571821 -0.22632)
(1.08647 -0.0364156 -0.184056)
(1.35462 -0.000767905 0.0581811)
(1.50882 0.017278 -0.0369905)
(1.28137 -0.0535996 -0.189516)
(1.36335 0.0292302 -0.110926)
(1.14439 0.0822112 0.00157198)
(1.00987 0.00489982 0.0395686)
(1.12936 -0.0149733 0.0111737)
(1.1597 0.00192781 -0.0546081)
(1.05116 0.0910834 -0.054889)
(1.07148 0.167624 -0.116941)
(0.882584 0.0821891 -0.00629527)
(0.903014 -0.0490274 0.212086)
(1.17438 -0.0425904 -0.04165)
(1.00235 0.0768956 -0.182657)
(0.564683 0.0538565 0.098601)
(0.584984 -0.0157895 0.21287)
(0.850989 -0.00327251 0.127723)
(0.962418 -0.0516738 0.0444083)
(1.14308 -0.117991 -0.217259)
(1.16767 0.0113647 -0.276707)
(1.26956 0.0698632 -0.0268702)
(1.29944 0.0213503 0.111194)
(1.01758 0.0190803 -0.0398762)
(1.054 0.0448804 -0.218057)
(0.99915 -0.000889964 -0.162319)
(1.41345 -0.00953554 -0.127937)
(1.63386 0.0780603 -0.129848)
(1.10666 0.0296792 -0.0962712)
(0.954633 -0.060766 -0.0752464)
(0.940103 -0.118153 -0.0109857)
(1.27564 -0.126119 -0.0474515)
(1.38723 0.0712243 -0.0232545)
(0.973171 0.140784 0.0185723)
(1.04016 -0.0439092 -0.102643)
(1.19803 -0.143074 -0.00272768)
(0.801086 0.1341 0.0860585)
(1.20779 0.0606626 0.0627837)
(0.970956 -0.0638168 0.0644483)
(1.0445 -0.0337061 -0.0902711)
(1.3582 0.0232278 -0.105208)
(1.39786 0.037611 0.0189309)
(1.16371 0.00765709 0.0317149)
(0.922476 -0.0454399 -0.0761045)
(1.3405 -0.00225804 -0.153378)
(1.53004 0.0548991 -0.0489639)
(1.08479 0.0294834 0.0251717)
(0.928155 -0.040206 -0.0674004)
(1.20884 0.0146933 -0.0831999)
(1.40414 0.0871982 -0.114135)
(1.1564 0.0730617 -0.111136)
(0.835525 0.0139377 0.0140329)
(0.924232 -0.0446516 0.0686742)
(1.14854 -0.0277881 0.0494074)
(1.1409 0.122684 -0.0511525)
(1.20644 0.145542 -0.125264)
(1.0312 0.0334104 0.036123)
(0.924068 0.0022875 0.0399556)
(1.1413 -0.0035308 -0.105765)
(1.27388 0.0418309 -0.128864)
(1.15648 0.0573978 0.00407845)
(0.913902 -0.0299411 0.129312)
(0.903532 0.00029425 0.141034)
(0.923968 0.126955 0.0114182)
(1.24456 0.138508 -0.235303)
(1.29168 0.0326428 -0.054256)
(0.870248 -0.0500935 0.153743)
(0.877104 0.0449459 0.0735183)
(1.22759 0.19795 -0.0530425)
(1.42109 0.173908 -0.0610547)
(1.21163 0.0347633 0.0447384)
(0.83353 0.00807533 0.0749531)
(0.694738 0.0951595 0.0765602)
(1.12512 0.158019 -0.0508748)
(1.5177 0.137383 -0.090494)
(0.934788 0.0738491 0.0956211)
(0.995672 0.0351893 0.112343)
(1.57889 0.0123962 0.00291354)
(1.26991 0.00818045 -0.161374)
(0.793802 -0.0669065 -0.0914389)
(0.894208 -0.0821986 0.0672448)
(1.30192 0.0887132 0.0808549)
(1.2794 0.160609 0.0447913)
(1.28676 -0.0899691 -0.115936)
(1.24322 -0.110952 -0.162884)
(0.889497 0.13474 0.0667868)
(1.10059 0.127876 0.133342)
(1.28846 -0.078041 -0.0423608)
(0.998255 -0.0805736 -0.195237)
(0.91131 0.11326 -0.219493)
(1.03212 0.238049 -0.0469027)
(1.03054 0.112195 0.0908827)
(0.935569 -0.0140322 0.081642)
(0.928353 -0.042296 -0.0567966)
(1.00458 0.0522656 -0.258556)
(0.952381 0.132726 -0.0999017)
(0.69275 0.115576 0.153437)
(0.639333 0.0034779 0.000579485)
(0.791204 -0.169519 -0.266617)
(1.09338 -0.0838335 -0.358738)
(1.01982 0.147855 -0.0853715)
(0.778507 0.128656 0.216489)
(0.66076 0.00780657 0.190032)
(0.820966 -0.114697 -0.104304)
(1.20391 -0.0990733 -0.355074)
(1.14945 0.0429571 -0.134593)
(0.902801 0.11292 0.0810341)
(0.921001 0.0543673 0.0174784)
(0.927792 -0.0260143 -0.129808)
(1.17446 0.000848526 -0.178654)
(1.24771 0.0540932 -0.0941456)
(1.04019 0.0443718 0.0114632)
(1.01749 0.0625008 0.0095001)
(1.08513 0.043512 -0.123158)
(1.18136 0.0216836 -0.196409)
(0.911397 0.0457869 -0.0333442)
(0.89008 -0.101226 0.234891)
(1.17513 -0.012697 0.203046)
(1.44799 0.123792 -0.138616)
(1.36509 0.0639716 -0.181999)
(0.972796 -0.0517185 0.0928861)
(0.996794 0.0135876 0.129169)
(1.28176 0.0901958 0.0175722)
(1.39501 0.0544837 -0.000790856)
(1.20765 0.0407014 -0.0383663)
(1.11516 0.179491 -0.0122614)
(1.16548 0.139033 0.0934567)
(1.22243 0.104374 0.0782793)
(1.2542 0.0794806 -0.0582765)
(1.25651 0.0758266 -0.0817352)
(1.22437 0.142596 -0.0657851)
(1.16579 0.133254 -0.0899834)
(1.08684 0.0716928 0.021809)
(1.42702 0.0482593 0.0642256)
(1.7498 0.0874357 -0.145568)
(1.42465 0.144115 -0.121164)
(1.18967 0.137429 0.0478925)
(1.31853 0.157926 -0.00662013)
(1.19287 0.121045 -0.1247)
(0.960815 0.0529727 -0.172634)
(0.987285 0.119175 -0.111624)
(1.22044 0.114056 -0.034941)
(1.12618 0.145124 0.0169022)
(1.06786 0.119285 0.0214968)
(1.45189 0.06315 -0.0386967)
(1.46991 0.15194 -0.0797732)
(1.18101 0.0825738 0.0545062)
(1.41245 0.0385167 0.0893835)
(1.40414 0.143501 -0.0480824)
(1.28723 0.149347 -0.10448)
(1.3435 0.0869336 -0.0775229)
(1.1215 0.03619 0.0859673)
(1.0754 0.020787 0.119435)
(1.26752 0.0606014 -0.042567)
(1.4792 0.132289 -0.168121)
(1.28479 0.0491879 -0.0695203)
(0.810103 -0.0269168 0.14921)
(0.716862 -0.0679319 0.247652)
(1.15105 0.0201607 0.0791179)
(1.53324 0.0520058 -0.0992841)
(1.04325 -0.00827347 -0.00733719)
(0.794849 -0.0282915 0.119573)
(1.17014 0.085975 0.0984357)
(1.44128 0.0330232 0.000594508)
(1.46818 0.0470263 -0.12384)
(1.0628 0.16133 -0.0613151)
(0.67165 0.0235589 0.186959)
(0.769286 -0.102271 0.211607)
(1.19124 -0.112293 -0.0166657)
(1.29507 0.00467044 -0.132514)
(1.05206 0.130468 -0.0338963)
(0.882402 0.0397458 0.12267)
(0.86425 -0.114284 0.232807)
(1.12834 -0.173823 0.151241)
(1.41635 -0.0301743 -0.0515904)
(1.24511 0.159865 -0.0808977)
(0.740939 0.102249 0.114083)
(0.598673 0.0248595 0.249518)
(0.948139 -0.0397642 0.13638)
(1.36238 -0.00540651 -0.145893)
(1.34314 0.105614 -0.183962)
(0.935007 0.0167904 0.0847435)
(0.808556 -0.0415819 0.258502)
(1.05877 -0.124348 0.220314)
(1.35044 -0.0630218 0.0318044)
(1.47846 0.157461 -0.111173)
(0.928641 0.00863229 0.084843)
(0.615112 -0.0592836 0.279551)
(0.941805 0.0312103 0.180888)
(1.40447 0.0227571 -0.0944773)
(1.36326 0.090875 -0.168435)
(0.94502 0.080275 0.11329)
(0.911224 0.00731374 0.287435)
(1.27636 -0.0374498 0.152401)
(1.48475 0.0126672 -0.0686145)
(1.1512 0.0971951 -0.0372122)
(1.53104 0.084423 -0.0449447)
(1.14799 0.00648921 0.0172909)
(1.13915 -0.0321153 0.0269377)
(1.2876 0.130579 0.00850028)
(1.3766 0.183747 -0.0126204)
(1.1773 -0.050957 0.0336513)
(1.11141 -0.0846592 0.0948822)
(1.37213 0.00577709 0.0134305)
(1.40724 0.0781302 -0.0541418)
(1.33761 0.234428 -0.00187136)
(1.39014 0.182363 0.0428041)
(1.2509 0.0350476 0.0638005)
(1.01696 0.0503484 0.0778246)
(1.03012 0.173384 -0.0188511)
(1.31368 0.245057 -0.064067)
(1.25917 0.0989255 0.0393455)
(1.0274 -0.0316354 0.126273)
(1.02245 0.00227759 0.0690616)
(1.14343 0.166946 -0.0517761)
(1.16188 0.299021 -0.053569)
(1.07063 0.188618 0.0576045)
(1.04969 0.0255038 0.107494)
(1.0365 -0.0369327 0.106695)
(1.10619 0.033239 0.0235302)
(1.29891 0.193321 -0.0264694)
(1.38715 0.110045 -0.00927009)
(1.40258 -0.0178888 0.0283059)
(1.20795 0.00911696 0.108854)
(1.07365 0.0628747 0.0501468)
(1.27142 0.171177 -0.0750274)
(1.24914 0.117614 -0.0136709)
(1.08181 -0.0259419 0.0752688)
(1.13627 -0.0140929 0.0693038)
(1.19067 0.0723438 -0.0093736)
(1.30658 0.179741 -0.0250323)
(1.34351 0.0908589 0.0188319)
(1.35188 -0.137719 0.0170005)
(1.36515 -0.0598736 0.034294)
(1.22873 0.197076 0.0343995)
(1.4287 0.208168 -0.0254192)
(1.19325 0.140853 0.00682634)
(0.915822 0.0153497 0.141298)
(0.866607 -0.0256381 0.0133154)
(0.837904 0.0298802 -0.174416)
(1.05144 0.0732816 -0.150841)
(1.02454 0.104499 0.0451378)
(0.982416 0.0533556 0.145667)
(0.998372 -0.0039103 0.0321402)
(0.777506 0.0508007 -0.222249)
(1.08785 0.199975 -0.260987)
(1.33171 0.0767537 0.0133815)
(0.965469 -0.0473658 0.180487)
(0.846958 -0.0321399 0.00759075)
(0.888085 -0.00300581 -0.210214)
(1.30256 0.153957 -0.163281)
(1.29193 0.0869516 0.0316722)
(0.893553 -0.0965525 0.0497512)
(0.753226 -0.153112 -0.0363246)
(0.919335 -0.0643226 -0.0968494)
(1.3207 0.18366 -0.108927)
(1.2833 0.191493 0.0369203)
(1.01936 0.0509107 0.163932)
(1.02377 0.0192577 0.0563381)
(0.926392 0.00163786 -0.114629)
(1.1174 0.0786361 -0.115051)
(1.27485 0.0544403 0.0737853)
(1.13216 0.00395985 0.125442)
(0.919849 0.0102191 -0.0262962)
(0.882032 -0.0253948 -0.115487)
(1.19783 0.103024 -0.106383)
(1.21976 0.133427 0.00969205)
(1.1207 0.00214857 0.0746793)
(1.07055 -0.0344082 0.00540415)
(0.837295 -0.0307785 -0.0946036)
(1.07576 0.0452675 -0.0900685)
(1.2798 0.0926251 0.0162232)
(1.0285 0.0551656 0.0838084)
(1.00346 0.0630868 -0.0150164)
(0.986911 0.0312628 -0.12722)
(1.20101 0.0633966 -0.141176)