/*--------------------------------*- C++ -*----------------------------------*\
  =========                 |
  \\      /  F ield         | OpenFOAM: The Open Source CFD Toolbox
   \\    /   O peration     | Website:  https://openfoam.org
    \\  /    A nd           | Version:  10
     \\/     M anipulation  |
\*---------------------------------------------------------------------------*/
FoamFile
{
    format      ascii;
    class       surfaceScalarField;
    location    "17.5";
    object      phi;
}
// * * * * * * * * * * * * * * * * * * * * * * * * * * * * * * * * * * * * * //

dimensions      [0 3 -1 0 0 0 0];

internalField   nonuniform List<scalar> 
74080
(
0.00522882
-2.76084e-08
-7.53381e-08
0.00522879
3.20672e-08
5.73831e-08
0.00522881
-3.95591e-08
-3.53592e-08
0.0052288
4.14411e-08
1.3122e-08
0.00522881
-3.58566e-08
-5.79772e-09
0.00522879
1.85043e-08
1.09819e-09
0.00522882
5.51274e-09
-4.10364e-09
0.00522879
-2.57042e-08
-2.69299e-08
0.0052288
3.24634e-08
6.75111e-08
0.00522881
-2.84902e-08
-1.10411e-07
0.00522879
2.86744e-08
1.04382e-07
0.00522882
-3.2188e-08
-8.17169e-08
0.00522877
4.23817e-08
3.54816e-08
0.00522883
-4.5216e-08
-1.34483e-08
0.00522878
4.35598e-08
-1.15745e-08
0.00522882
-2.41475e-08
1.43605e-08
0.00522879
2.87185e-09
-2.84379e-08
0.0052288
1.94884e-08
3.22636e-08
0.00522881
-2.54427e-08
-5.53966e-08
0.00522879
3.51085e-08
6.4382e-08
0.00522882
-3.77135e-08
-7.63799e-08
0.00522877
4.40159e-08
6.10488e-08
0.00522883
-4.20601e-08
-4.68638e-08
0.00522878
3.91693e-08
1.32766e-08
0.00522882
-2.48007e-08
1.0617e-08
0.00522879
1.81395e-08
-2.68688e-08
0.0052288
-6.98578e-09
1.84024e-08
0.00522882
-7.23085e-09
-1.47322e-08
0.00522878
2.77003e-08
2.29417e-08
0.00522881
-3.59381e-08
-5.32183e-08
0.00522881
3.48454e-08
8.38453e-08
0.00522879
-2.4414e-08
-9.50843e-08
0.00522881
1.97262e-08
8.27521e-08
0.00522881
-2.04662e-08
-5.22465e-08
0.00522878
2.30601e-08
1.35298e-08
0.00522882
-2.02616e-08
2.83287e-08
0.00522879
9.42781e-09
-6.00207e-08
0.00522881
5.44974e-09
7.61624e-08
0.00522881
-1.90753e-08
-7.76533e-08
2.46977e-08
7.82369e-08
0.00475318
-1.362e-08
-3.95331e-08
0.0047532
1.57677e-08
1.46219e-08
0.00475318
-2.08515e-08
3.17145e-09
0.00475319
2.67973e-08
-1.46829e-08
0.00475319
-2.29941e-08
1.35881e-10
0.00475318
9.1143e-09
1.40431e-08
0.00475319
1.11393e-08
-3.48053e-08
0.00475317
-2.11993e-08
1.06018e-08
0.00475319
2.42773e-08
2.78449e-08
0.00475318
-1.83983e-08
-8.0364e-08
0.00475319
2.37911e-08
8.6159e-08
0.00475319
-3.01335e-08
-7.51702e-08
0.00475318
4.46177e-08
3.09588e-08
0.00475319
-4.37536e-08
-7.33937e-09
0.00475318
3.77198e-08
-1.68642e-08
0.00475319
-1.28514e-08
1.3968e-08
0.00475318
-5.98968e-09
-1.89207e-08
0.00475319
2.28314e-08
1.6015e-08
0.00475318
-2.05171e-08
-3.56717e-08
0.00475319
2.50774e-08
4.75442e-08
0.00475318
-2.44242e-08
-5.82356e-08
0.00475319
2.94338e-08
4.60785e-08
0.00475318
-2.60067e-08
-3.53485e-08
0.00475319
2.46822e-08
9.62866e-09
0.00475318
-1.50009e-08
1.79544e-08
0.00475319
1.14368e-08
-4.0137e-08
0.00475318
-1.55973e-09
4.02805e-08
0.00475319
-1.14109e-08
-3.43851e-08
0.00475319
2.50472e-08
2.90591e-08
0.00475317
-1.98518e-08
-2.8412e-08
0.00475321
2.57292e-09
2.89536e-08
0.00475315
1.34952e-08
-2.89636e-08
0.00475321
-1.15513e-08
3.11687e-08
0.00475318
-4.93488e-09
-2.42568e-08
0.00475318
1.69109e-08
6.66858e-09
0.00475319
-1.61926e-08
2.0947e-08
0.00475318
5.67662e-09
-4.46065e-08
0.0047532
4.63165e-09
5.61744e-08
0.00475317
-1.21862e-08
-5.59186e-08
1.38859e-08
4.91194e-08
0.00432083
-5.88375e-09
-3.11198e-08
0.00432085
8.67177e-09
7.41688e-09
0.00432083
-1.32275e-08
1.07e-08
0.00432084
2.21448e-08
-2.60822e-08
0.00432084
-1.76054e-08
1.10203e-08
0.00432083
3.92666e-09
4.05963e-09
0.00432084
1.77952e-08
-3.18811e-08
0.00432083
-2.17398e-08
1.73208e-08
0.00432084
2.3011e-08
5.6406e-09
0.00432083
-1.39482e-08
-4.86369e-08
0.00432084
2.24124e-08
5.21061e-08
0.00432083
-2.60459e-08
-4.81888e-08
0.00432084
3.97334e-08
1.0265e-08
0.00432083
-3.11551e-08
8.19764e-09
0.00432084
2.11966e-08
-2.84264e-08
0.00432083
7.6068e-09
1.8734e-08
0.00432084
-1.96783e-08
-1.32314e-08
0.00432084
2.84596e-08
-3.17201e-10
0.00432083
-1.48637e-08
-9.63568e-09
0.00432085
1.18719e-08
1.71751e-08
0.00432082
-2.53882e-09
-2.62638e-08
0.00432085
2.77198e-09
2.24964e-08
0.00432081
5.71964e-09
-2.41672e-08
0.00432085
-5.55147e-09
1.56117e-08
0.00432082
9.88646e-09
7.7521e-09
0.00432085
-8.12066e-09
-3.5247e-08
0.00432082
1.36387e-08
5.00616e-08
0.00432084
-1.96063e-08
-4.82905e-08
0.00432084
2.19235e-08
3.86055e-08
0.00432082
-2.61147e-09
-1.66838e-08
0.00432086
-2.54054e-08
-4.59121e-09
0.00432081
4.05552e-08
1.78303e-08
0.00432085
-3.27224e-08
-8.22056e-09
0.00432082
1.03314e-08
-6.87446e-10
0.00432085
2.98854e-09
5.53106e-09
0.00432083
-1.67189e-10
2.5864e-09
0.00432084
-1.01385e-08
-1.34434e-08
0.00432084
1.18523e-08
2.56291e-08
0.00432083
-1.05302e-08
-3.3893e-08
7.71366e-09
3.50981e-08
0.00392781
-3.99608e-09
-3.36092e-08
0.00392782
1.19946e-08
2.26478e-08
0.00392782
-1.93048e-08
-1.10077e-08
0.00392781
3.19659e-08
-1.0048e-08
0.00392782
-2.53958e-08
4.39455e-09
0.00392781
1.26396e-08
-1.99962e-09
0.00392782
1.12849e-08
-1.8053e-08
0.00392781
-1.23839e-08
4.33958e-09
0.00392782
1.64115e-08
3.95811e-09
0.00392781
-6.13911e-09
-3.30851e-08
0.00392783
1.76615e-08
2.79087e-08
0.0039278
-1.69181e-08
-2.44603e-08
0.00392783
2.91368e-08
-6.8486e-09
0.0039278
-1.43609e-08
1.61748e-08
0.00392782
4.87659e-09
-2.68911e-08
0.00392781
2.39939e-08
1.05538e-08
0.00392781
-2.6797e-08
-8.45501e-10
0.00392782
2.95047e-08
-1.42886e-08
0.00392781
-7.47351e-09
7.62021e-09
0.00392782
4.64913e-10
6.89503e-11
0.0039278
1.64643e-08
-9.19398e-09
0.00392783
-1.92518e-08
1.46341e-08
0.0039278
3.11455e-08
-2.57006e-08
0.00392783
-2.81292e-08
3.22616e-08
0.0039278
2.84244e-08
-1.48169e-08
0.00392782
-2.09548e-08
-1.44717e-08
0.00392781
2.24252e-08
4.34374e-08
0.00392781
-2.17456e-08
-5.08529e-08
0.00392782
1.68097e-08
4.68769e-08
0.00392781
8.16724e-09
-1.77128e-08
0.00392782
-3.49422e-08
-1.11811e-08
0.00392782
4.22454e-08
3.28463e-08
0.00392781
-2.71671e-08
-2.27903e-08
0.00392782
3.73957e-09
7.86015e-09
0.00392782
3.60201e-09
1.15504e-08
0.00392781
5.41191e-09
-1.89709e-08
0.00392781
-1.61036e-08
1.91718e-08
0.00392783
1.24181e-08
-7.45108e-09
0.00392781
-5.45845e-09
-9.51352e-09
3.13095e-09
2.35064e-08
0.00357054
6.7523e-09
-2.70563e-08
0.00357055
7.26965e-09
2.95012e-08
0.00357055
-1.73447e-08
-2.72332e-08
0.00357055
3.45683e-08
4.90018e-09
0.00357055
-2.78289e-08
-1.15228e-09
0.00357054
2.08745e-08
-9.77105e-09
0.00357056
2.50078e-09
-2.51823e-09
0.00357054
-1.38623e-10
-9.49153e-09
0.00357056
7.66477e-09
4.09175e-09
0.00357054
6.36184e-09
-1.80041e-08
0.00357056
6.17637e-09
2.34282e-09
0.00357053
1.94363e-09
1.57904e-09
0.00357057
1.02078e-08
-2.59132e-08
0.00357054
8.45963e-09
2.26846e-08
0.00357055
-1.11923e-08
-1.98475e-08
0.00357055
3.70712e-08
-5.42395e-09
0.00357054
-3.05953e-08
2.1088e-08
0.00357055
3.15189e-08
-3.45917e-08
0.00357055
-3.80527e-09
2.70626e-08
0.00357055
-3.32109e-09
-1.35029e-08
0.00357054
2.64171e-08
-6.42831e-10
0.00357055
-2.89973e-08
1.56803e-08
0.00357054
4.24026e-08
-3.37395e-08
0.00357055
-3.45282e-08
5.13459e-08
0.00357055
3.30441e-08
-3.73764e-08
0.00357055
-2.1259e-08
9.23579e-09
0.00357055
2.06695e-08
2.9622e-08
0.00357054
-1.46233e-08
-4.34263e-08
0.00357056
6.13857e-09
4.78194e-08
0.00357054
1.78147e-08
-1.89245e-08
0.00357055
-3.5923e-08
-7.52496e-09
0.00357056
3.14587e-08
3.43633e-08
0.00357054
-8.71917e-09
-2.75054e-08
0.00357056
-1.43062e-08
1.69782e-08
0.00357054
1.64401e-08
1.0488e-08
0.00357056
-2.61554e-09
-2.67299e-08
0.00357054
-8.96515e-09
3.97316e-08
0.00357056
2.12268e-09
-3.20006e-08
0.00357054
9.13659e-09
1.43737e-08
-1.02801e-08
6.66003e-09
0.00324577
2.17104e-08
-2.15274e-08
0.00324579
-6.51724e-09
3.22724e-08
0.00324577
-3.27154e-09
-3.54996e-08
0.00324579
2.38039e-08
1.13159e-08
0.00324578
-1.62576e-08
4.83261e-10
0.00324578
1.67374e-08
-2.19757e-08
0.00324578
5.0916e-09
1.8049e-08
0.00324578
1.44445e-09
-3.01363e-08
0.00324579
9.83646e-09
1.44758e-08
0.00324577
1.12243e-08
-1.42767e-08
0.00324579
-2.91268e-10
-1.32145e-08
0.00324576
1.8688e-08
2.20426e-08
0.00324579
-5.64588e-09
-4.23218e-08
0.00324578
2.607e-08
2.95726e-08
0.00324578
-1.81192e-08
-1.49697e-08
0.00324579
4.07813e-08
-1.73431e-08
0.00324577
-2.7295e-08
3.6104e-08
0.00324578
3.31219e-08
-4.70943e-08
0.00324578
-4.1838e-09
3.87013e-08
0.00324578
2.12318e-09
-2.05347e-08
0.00324578
2.49537e-08
4.31243e-09
0.00324578
-2.42538e-08
1.74223e-08
0.00324578
3.84396e-08
-3.64416e-08
0.00324577
-2.50308e-08
5.98766e-08
0.00324579
2.47223e-08
-4.70946e-08
0.00324577
-1.03482e-08
2.28368e-08
0.00324579
9.87788e-09
2.05566e-08
0.00324577
5.06823e-10
-3.63048e-08
0.0032458
-1.00585e-08
4.8173e-08
0.00324577
3.16317e-08
-2.2565e-08
0.00324578
-3.83928e-08
3.1465e-09
0.00324579
2.29073e-08
2.75123e-08
0.00324577
5.69138e-09
-2.58157e-08
0.00324579
-2.61759e-08
2.54652e-08
0.00324578
2.39004e-08
-1.11292e-10
0.00324578
-7.5859e-09
-1.55075e-08
0.00324578
-4.0241e-09
3.42123e-08
0.00324579
-3.73115e-09
-3.12745e-08
0.00324577
1.8691e-08
2.04333e-08
-2.18568e-08
-8.98547e-10
0.00295056
2.52795e-08
-2.27209e-08
0.00295056
-1.32413e-08
3.85342e-08
0.00295055
9.16548e-09
-4.65249e-08
0.00295057
1.29124e-08
2.41493e-08
0.00295055
-3.29695e-09
-5.11765e-09
0.00295056
1.02137e-08
-2.62575e-08
0.00295056
1.3284e-08
3.08151e-08
0.00295056
-3.769e-09
-4.58996e-08
0.00295056
2.07309e-08
2.55518e-08
0.00295055
8.58306e-09
-1.57296e-08
0.00295057
5.24734e-10
-1.93646e-08
0.00295055
2.89408e-08
3.18479e-08
0.00295056
-1.13566e-08
-4.84806e-08
0.00295056
3.02786e-08
3.05867e-08
0.00295054
-7.25745e-09
-7.65784e-09
0.00295058
2.72886e-08
-2.68864e-08
0.00295054
-8.96975e-09
4.76297e-08
0.00295056
2.54629e-08
-5.37763e-08
0.00295056
1.02054e-09
4.4296e-08
0.00295055
6.02636e-09
-2.0611e-08
0.00295056
2.31299e-08
4.19345e-09
0.00295055
-1.59718e-08
2.18425e-08
0.00295056
2.98458e-08
-3.72572e-08
0.00295055
-9.77218e-09
6.26864e-08
0.00295056
1.28201e-08
-4.77266e-08
0.00295055
2.292e-09
2.85704e-08
0.00295056
-7.29092e-10
1.70325e-08
0.00295055
1.58133e-08
-3.07905e-08
0.00295057
-2.6628e-08
4.91684e-08
0.00295055
4.68399e-08
-2.69626e-08
0.00295055
-4.35173e-08
1.80456e-08
0.00295056
2.04744e-08
1.26919e-08
0.00295055
1.04686e-08
-1.2934e-08
0.00295056
-2.72241e-08
2.39402e-08
0.00295056
2.07988e-08
-3.59008e-09
0.00295055
-1.95387e-09
-4.9631e-09
0.00295056
-1.10516e-08
2.39241e-08
0.00295056
5.88295e-09
-2.05503e-08
0.00295056
1.18243e-08
1.52878e-08
-1.79923e-08
1.98678e-09
0.00268219
1.84131e-08
-1.90578e-08
0.00268219
-1.00582e-08
3.91425e-08
0.00268219
1.18161e-08
-5.05338e-08
0.00268219
1.18393e-08
3.34285e-08
0.00268219
3.90615e-11
-1.30823e-08
0.00268219
1.34133e-08
-2.19052e-08
0.00268219
1.3267e-08
3.3698e-08
0.00268219
-2.38065e-09
-5.00578e-08
0.00268219
2.59508e-08
2.9462e-08
0.00268218
1.16787e-08
-1.3037e-08
0.0026822
-3.66556e-09
-2.49582e-08
0.00268218
4.27523e-08
4.08854e-08
0.00268219
-1.67542e-08
-5.3073e-08
0.0026822
3.09015e-08
3.16455e-08
0.00268217
1.14984e-08
-1.62839e-09
0.00268221
5.84708e-09
-3.32766e-08
0.00268217
1.74005e-08
5.50283e-08
0.0026822
1.20861e-08
-5.58947e-08
0.00268218
1.24653e-08
4.61819e-08
0.00268219
4.90004e-09
-1.76161e-08
0.00268219
2.74204e-08
2.7772e-09
0.00268218
-1.2678e-08
2.56843e-08
0.00268219
2.71158e-08
-3.51297e-08
0.00268218
-3.12811e-10
6.01586e-08
0.00268219
8.62044e-09
-4.21247e-08
0.00268219
6.53328e-09
2.93032e-08
0.00268219
-1.4776e-09
1.58347e-08
0.00268218
2.12979e-08
-2.46912e-08
0.00268219
-3.43021e-08
4.75463e-08
0.00268219
5.5456e-08
-2.729e-08
0.00268218
-4.48101e-08
2.86464e-08
0.0026822
1.72626e-08
4.20257e-10
0.00268219
1.36e-08
2.01952e-09
0.00268219
-2.59574e-08
1.64746e-08
0.00268219
1.6078e-08
1.18013e-10
0.00268218
7.00202e-09
-6.05084e-10
0.0026822
-2.36971e-08
1.88113e-08
0.00268218
2.45558e-08
-1.34863e-08
0.0026822
-6.33092e-09
1.3823e-08
-2.46557e-09
1.64521e-09
0.00243824
1.2716e-08
-1.01691e-08
0.00243823
-7.88384e-09
3.27323e-08
0.00243823
1.31219e-08
-4.51287e-08
0.00243823
1.406e-08
3.49753e-08
0.00243823
-2.52471e-09
-1.45325e-08
0.00243823
2.23855e-08
-1.9647e-08
0.00243824
7.39167e-09
3.65241e-08
0.00243823
6.09939e-09
-5.33898e-08
0.00243824
2.39269e-08
3.37727e-08
0.00243822
2.41863e-08
-1.23046e-08
0.00243825
-1.78635e-08
-2.76373e-08
0.00243822
6.68536e-08
4.74415e-08
0.00243824
-3.04172e-08
-5.66768e-08
0.00243824
3.90458e-08
3.54098e-08
0.00243822
2.43977e-08
-1.22589e-09
0.00243825
-8.95262e-09
-3.12693e-08
0.00243822
3.69926e-08
5.4476e-08
0.00243824
6.72954e-09
-5.04762e-08
0.00243823
1.77383e-08
4.2738e-08
0.00243823
8.62835e-09
-1.0666e-08
0.00243823
3.00536e-08
-1.01864e-10
0.00243823
-9.10085e-09
2.94266e-08
0.00243824
2.58862e-08
-3.13653e-08
0.00243823
6.29863e-09
5.58533e-08
0.00243823
9.161e-09
-3.35675e-08
0.00243824
3.91762e-09
2.74423e-08
0.00243823
6.59547e-09
1.64253e-08
0.00243823
1.72071e-08
-1.81099e-08
0.00243823
-3.28908e-08
4.37085e-08
0.00243823
5.57916e-08
-2.24094e-08
0.00243822
-4.06054e-08
3.35167e-08
0.00243824
9.26027e-09
-6.09713e-09
0.00243823
2.11258e-08
1.41575e-08
0.00243824
-3.09351e-08
9.24161e-09
0.00243823
1.72498e-08
7.54342e-09
0.00243823
9.29643e-09
1.44166e-09
0.00243824
-3.17304e-08
1.60726e-08
0.00243823
3.94069e-08
-7.39469e-09
0.00243824
-2.21687e-08
1.40405e-08
1.08162e-08
-4.37342e-10
0.00221647
1.32008e-08
-1.64572e-09
0.00221647
-1.27264e-08
2.59338e-08
0.00221647
1.8869e-08
-3.64286e-08
0.00221647
1.19658e-08
3.38488e-08
0.00221647
-2.35141e-09
-1.29062e-08
0.00221647
2.72971e-08
-1.8156e-08
0.00221647
5.25373e-09
4.11594e-08
0.00221647
1.0265e-08
-5.68245e-08
0.00221647
2.43779e-08
4.188e-08
0.00221646
3.5382e-08
-1.52146e-08
0.00221648
-3.25316e-08
-2.3143e-08
0.00221645
9.16956e-08
4.84134e-08
0.00221648
-4.522e-08
-5.38437e-08
0.00221647
4.9952e-08
3.60826e-08
0.00221646
3.26285e-08
1.63265e-09
0.00221648
-1.59691e-08
-2.82222e-08
0.00221646
4.74501e-08
5.20425e-08
0.00221647
1.17779e-08
-4.18718e-08
0.00221647
1.44748e-08
3.66614e-08
0.00221646
2.04128e-08
-1.48774e-09
0.00221647
2.65575e-08
-4.10559e-09
0.00221646
7.3349e-11
3.42019e-08
0.00221648
2.00378e-08
-2.84875e-08
0.00221646
1.7121e-08
5.28569e-08
0.00221647
5.68683e-09
-2.569e-08
0.00221647
3.82734e-09
2.66506e-08
0.00221646
1.24085e-08
1.66144e-08
0.00221647
1.3318e-08
-1.02441e-08
0.00221647
-3.28395e-08
3.82988e-08
0.00221647
5.70885e-08
-1.40539e-08
0.00221646
-3.97525e-08
3.3548e-08
0.00221648
2.64338e-09
-6.78959e-09
0.00221646
2.81308e-08
2.26546e-08
0.00221647
-3.89824e-08
4.05831e-09
0.00221646
2.17363e-08
1.44445e-08
0.00221647
6.46571e-09
3.30026e-09
0.00221647
-3.65165e-08
1.44244e-08
0.00221647
4.91689e-08
-8.95537e-10
0.00221647
-3.31597e-08
1.42003e-08
1.67044e-08
-1.14701e-09
0.00201485
1.41478e-08
6.21514e-09
0.00201486
-2.07211e-08
2.10315e-08
0.00201485
2.37805e-08
-2.68794e-08
0.00201486
8.39416e-09
3.36098e-08
0.00201485
-2.84819e-09
-1.08131e-08
0.00201486
2.85767e-08
-1.4178e-08
0.00201486
6.28419e-09
4.45336e-08
0.00201486
8.34662e-09
-5.78995e-08
0.00201486
2.9206e-08
5.00446e-08
0.00201485
4.0464e-08
-1.83044e-08
0.00201486
-4.22321e-08
-1.57516e-08
0.00201485
1.10232e-07
4.64985e-08
0.00201486
-5.46054e-08
-4.66413e-08
0.00201486
5.56379e-08
3.43981e-08
0.00201484
4.3219e-08
7.17233e-09
0.00201486
-2.3509e-08
-2.59449e-08
0.00201485
5.66123e-08
5.18764e-08
0.00201485
1.88528e-08
-3.49642e-08
0.00201486
9.63445e-09
3.3636e-08
0.00201485
3.25736e-08
5.87863e-09
0.00201486
2.32466e-08
-5.06888e-09
0.00201484
8.39524e-09
3.74107e-08
0.00201487
1.38708e-08
-2.39526e-08
0.00201484
2.86364e-08
4.95096e-08
0.00201486
-1.04545e-09
-1.72816e-08
0.00201485
6.05311e-09
2.60391e-08
0.00201485
1.32642e-08
1.74369e-08
0.00201486
1.25792e-08
-1.8648e-09
0.00201486
-3.9461e-08
3.24536e-08
0.00201485
6.47296e-08
-3.36082e-09
0.00201485
-4.87814e-08
3.05246e-08
0.00201486
2.39773e-09
-2.47036e-09
0.00201485
2.8185e-08
2.77425e-08
0.00201486
-4.55131e-08
1.99014e-09
0.00201485
2.27791e-08
2.10711e-08
0.00201486
4.37581e-09
6.17186e-09
0.00201486
-4.51725e-08
1.33621e-08
0.00201485
5.84514e-08
6.9867e-09
0.00201486
-4.55057e-08
1.38046e-08
1.94236e-08
7.85989e-10
0.0018313
1.04344e-08
1.44591e-08
0.0018313
-2.89794e-08
1.88385e-08
0.0018313
2.17089e-08
-1.72862e-08
0.0018313
6.65832e-09
3.47936e-08
0.0018313
-1.0134e-08
-7.32572e-09
0.0018313
2.9292e-08
-7.22233e-09
0.0018313
3.7567e-09
4.84815e-08
0.0018313
4.26336e-09
-5.56578e-08
0.0018313
3.18069e-08
5.74694e-08
0.0018313
4.24632e-08
-1.78353e-08
0.0018313
-5.13968e-08
-6.9335e-09
0.00183129
1.23243e-07
4.68666e-08
0.0018313
-6.1236e-08
-3.82148e-08
0.0018313
5.62786e-08
3.37925e-08
0.00183129
5.48622e-08
1.41722e-08
0.00183131
-3.24535e-08
-2.19873e-08
0.0018313
6.42541e-08
5.41849e-08
0.0018313
2.44303e-08
-2.78578e-08
0.0018313
5.73551e-09
3.32776e-08
0.0018313
3.96051e-08
1.22798e-08
0.0018313
2.37565e-08
-1.76501e-09
0.00183129
9.01029e-09
4.0229e-08
0.00183131
1.22507e-08
-1.74833e-08
0.00183129
3.31013e-08
4.68283e-08
0.0018313
-6.14863e-09
-7.40568e-09
0.0018313
3.83824e-09
2.65302e-08
0.0018313
1.25591e-08
2.05974e-08
0.0018313
9.63373e-09
5.62449e-09
0.0018313
-5.0413e-08
2.87653e-08
0.0018313
7.1798e-08
8.844e-09
0.0018313
-6.54925e-08
2.85912e-08
0.0018313
3.62463e-09
4.57247e-09
0.0018313
2.15388e-08
3.24244e-08
0.0018313
-5.28385e-08
1.76197e-09
0.0018313
1.83742e-08
2.83995e-08
0.0018313
2.05633e-09
1.05601e-08
0.00183131
-6.03174e-08
1.41853e-08
0.0018313
6.69869e-08
1.52413e-08
0.0018313
-6.22927e-08
1.41421e-08
1.93739e-08
5.40302e-09
0.0016616
1.57271e-09
2.54043e-08
0.00166161
-4.00354e-08
1.76132e-08
0.0016616
1.16476e-08
-9.24779e-09
0.0016616
2.97139e-09
3.67499e-08
0.0016616
-2.43895e-08
-9.5362e-10
0.0016616
2.72254e-08
2.94153e-09
0.0016616
-4.8726e-09
5.39235e-08
0.0016616
-2.92392e-09
-5.33658e-08
0.00166159
2.76736e-08
6.56699e-08
0.0016616
4.02188e-08
-1.2196e-08
0.0016616
-6.39279e-08
5.83634e-09
0.0016616
1.28742e-07
5.13881e-08
0.0016616
-6.91701e-08
-3.0498e-08
0.00166161
5.18658e-08
3.7015e-08
0.0016616
6.0259e-08
2.60473e-08
0.00166161
-4.16604e-08
-1.24971e-08
0.00166161
6.42568e-08
6.13757e-08
0.00166161
2.72114e-08
-2.1132e-08
0.00166162
-2.20391e-09
3.74109e-08
0.00166161
4.04862e-08
2.2443e-08
0.00166162
2.25178e-08
7.56046e-09
0.00166162
1.98646e-09
4.61463e-08
0.00166163
1.00629e-08
-1.16438e-08
0.00166162
2.88459e-08
4.84329e-08
0.00166163
-1.26755e-08
4.12244e-09
0.00166163
-4.84958e-09
3.34637e-08
0.00166162
8.51781e-09
2.44525e-08
0.00166163
3.97825e-10
1.34596e-08
0.00166162
-6.40061e-08
2.65321e-08
0.00166162
7.08104e-08
2.4505e-08
0.00166162
-8.50621e-08
2.97264e-08
0.00166162
-1.46736e-09
1.4157e-08
0.00166162
1.0342e-08
3.48255e-08
0.00166162
-6.55443e-08
2.79421e-09
0.00166161
9.1857e-09
3.77994e-08
0.00166162
-5.64622e-09
1.79046e-08
0.00166162
-7.97202e-08
1.61509e-08
0.00166161
6.79819e-08
2.0798e-08
0.00166161
-8.17293e-08
1.50494e-08
1.24045e-08
1.16492e-08
0.00149472
-9.74219e-09
3.27095e-08
0.00149471
-5.06823e-08
1.03565e-08
0.00149471
-2.66594e-09
-8.61851e-09
0.0014947
-3.64512e-09
4.77986e-08
0.0014947
-3.89862e-08
2.54897e-09
0.0014947
1.99935e-08
1.4992e-08
0.0014947
-1.5502e-08
5.76741e-08
0.00149471
-1.2886e-08
-5.73322e-08
0.0014947
1.85505e-08
8.56919e-08
0.00149471
3.22112e-08
-5.27268e-09
0.00149471
-7.41979e-08
1.68882e-08
0.00149472
1.22614e-07
5.95156e-08
0.00149472
-7.54961e-08
-3.07121e-08
0.00149473
4.18139e-08
5.29168e-08
0.00149474
5.6896e-08
3.93571e-08
0.00149475
-4.95249e-08
-4.8502e-09
0.00149475
5.53263e-08
6.97859e-08
0.00149476
2.56037e-08
-2.53609e-08
0.00149477
-1.39457e-08
5.29893e-08
0.00149478
3.44501e-08
2.66658e-08
0.00149479
1.61968e-08
1.7513e-08
0.00149478
-8.76729e-09
4.28771e-08
0.0014948
2.53986e-09
-1.20398e-08
0.00149479
1.89407e-08
5.43307e-08
0.0014948
-2.45304e-08
1.05653e-08
0.00149479
-1.52513e-08
3.85372e-08
0.00149479
-1.8811e-09
1.60424e-08
0.00149479
-1.24939e-08
1.80117e-08
0.00149478
-7.72846e-08
1.92793e-08
0.00149478
5.97883e-08
4.12887e-08
0.00149477
-1.01226e-07
1.98002e-08
0.00149477
-1.20091e-08
1.51101e-08
0.00149477
-3.56968e-09
2.68397e-08
0.00149476
-7.90229e-08
2.73722e-09
0.00149475
-4.26913e-09
4.14074e-08
0.00149475
-1.71369e-08
2.14744e-08
0.00149474
-9.62736e-08
2.82599e-09
0.00149474
5.92166e-08
2.26847e-08
0.00149473
-9.72365e-08
1.3888e-08
7.38564e-11
1.57029e-08
0.00132241
-1.78443e-08
4.10747e-08
0.00132239
-5.52267e-08
3.44722e-09
0.0013224
-1.55826e-08
9.27671e-09
0.00132239
-8.11953e-09
7.82784e-08
0.00132239
-4.844e-08
-1.73125e-08
0.00132239
1.29375e-08
4.30142e-08
0.00132239
-2.25658e-08
5.27438e-08
0.0013224
-1.88755e-08
-5.39495e-08
0.0013224
9.15206e-09
1.24692e-07
0.00132242
2.52601e-08
-3.07954e-08
0.00132241
-7.62518e-08
2.80939e-08
0.00132245
1.09743e-07
5.9934e-08
0.00132244
-7.37872e-08
-4.26126e-08
0.00132246
3.09882e-08
7.81976e-08
0.00132248
5.04423e-08
1.06104e-08
0.00132248
-5.05511e-08
-9.11489e-09
0.0013225
4.29807e-08
5.49179e-08
0.00132252
2.41159e-08
-4.05131e-08
0.00132252
-2.44713e-08
6.26898e-08
0.00132253
2.68464e-08
-1.11769e-08
0.00132254
1.00809e-08
1.45041e-08
0.00132253
-2.0131e-08
1.20635e-08
0.00132255
-3.94363e-09
-1.44091e-08
0.00132253
6.73712e-09
4.44689e-08
0.00132255
-3.39797e-08
-1.00241e-08
0.00132253
-2.30898e-08
1.80282e-08
0.00132253
-1.42551e-08
-1.92431e-09
0.00132253
-2.23699e-08
1.37347e-08
0.00132251
-8.64191e-08
2.38716e-09
0.00132251
4.48564e-08
4.01369e-08
0.00132249
-1.07134e-07
-1.83e-08
0.00132249
-2.34508e-08
1.43732e-08
0.00132248
-1.4675e-08
1.98696e-08
0.00132247
-8.66509e-08
-4.1743e-09
0.00132246
-1.70625e-08
3.8322e-08
0.00132245
-2.53674e-08
1.18697e-08
0.00132244
-1.04725e-07
-1.49356e-08
0.00132244
4.59514e-08
4.9847e-08
0.00132242
-1.02159e-07
6.9292e-09
-1.21925e-08
2.06743e-08
0.00115104
-2.12149e-08
5.3484e-08
0.00115103
-5.42325e-08
4.53834e-09
0.00115104
-2.51433e-08
5.37181e-08
0.00115103
-8.14356e-09
7.23424e-08
0.00115104
-5.1758e-08
-4.15559e-08
0.00115104
8.17787e-09
9.48302e-08
0.00115106
-2.44551e-08
2.83544e-09
0.00115106
-2.02997e-08
-2.80908e-08
0.00115108
2.72554e-09
1.18632e-07
0.0011511
2.29021e-08
-9.32523e-08
0.00115109
-7.21514e-08
5.65452e-08
0.00115114
9.52938e-08
1.12115e-08
0.00115113
-6.58213e-08
-6.00186e-08
0.00115115
2.27366e-08
6.39612e-08
0.00115117
4.43118e-08
-5.92284e-08
0.00115117
-4.55639e-08
-8.57766e-09
0.0011512
3.03702e-08
4.07046e-09
0.00115121
2.43579e-08
-5.35969e-08
0.0011512
-3.1659e-08
2.68061e-08
0.00115122
2.24144e-08
-5.903e-08
0.00115121
3.40996e-09
1.11857e-08
0.00115122
-2.64716e-08
-3.40887e-08
0.00115122
-7.67017e-09
-1.12452e-08
0.0011512
-4.75553e-09
7.40452e-09
0.00115122
-3.65358e-08
-3.2892e-08
0.00115119
-3.0178e-08
6.64276e-09
0.0011512
-2.26533e-08
-7.08297e-09
0.00115118
-2.78848e-08
5.00122e-10
0.00115116
-9.00889e-08
-1.45832e-09
0.00115117
3.30666e-08
3.14914e-08
0.00115114
-1.06138e-07
-3.3945e-08
0.00115113
-3.21309e-08
4.83188e-08
0.00115113
-2.06018e-08
1.1759e-08
0.0011511
-8.90282e-08
1.6413e-09
0.0011511
-2.54958e-08
6.07887e-08
0.00115108
-2.95845e-08
5.54495e-09
0.00115107
-1.0612e-07
1.66895e-08
0.00115107
3.30065e-08
8.63465e-08
0.00115104
-9.80825e-08
-1.0109e-08
-2.20899e-08
5.90075e-08
0.000988047
-2.07122e-08
2.5647e-08
0.000988045
-5.04886e-08
1.44544e-08
0.000988058
-2.99983e-08
6.59646e-08
0.000988056
-4.80814e-09
1.49107e-08
0.000988072
-5.06193e-08
-3.42881e-08
0.000988081
5.36436e-09
8.74422e-08
0.0009881
-2.08119e-08
-7.93596e-08
0.000988107
-1.92835e-08
6.32584e-09
0.00098813
7.5323e-10
3.05458e-08
0.000988146
2.25809e-08
-1.26753e-07
0.000988148
-6.38927e-08
5.46922e-08
0.000988192
8.2846e-08
-8.22034e-08
0.000988178
-5.45835e-08
-6.06406e-08
0.000988211
1.79047e-08
5.44218e-09
0.000988221
3.8231e-08
-1.05396e-07
0.000988222
-3.71439e-08
-1.52876e-08
0.000988245
2.05452e-08
-5.38825e-08
0.000988243
2.41467e-08
-5.35756e-08
0.000988243
-3.41099e-08
-2.09814e-08
0.000988255
1.89222e-08
-6.00606e-08
0.00098824
-2.77051e-09
-6.44761e-10
0.000988248
-2.66043e-08
-5.4202e-08
0.000988235
-1.21359e-08
7.95594e-09
0.000988225
-1.12922e-08
-1.98546e-08
0.000988227
-3.62908e-08
-1.23457e-08
0.000988196
-3.58496e-08
1.65493e-08
0.000988208
-2.52788e-08
1.29885e-09
0.000988179
-3.22268e-08
1.31052e-08
0.000988167
-8.76804e-08
2.64215e-08
0.000988163
2.33105e-08
3.45988e-08
0.000988133
-1.02558e-07
1.94742e-09
0.00098813
-3.62202e-08
8.37015e-08
0.000988115
-2.44502e-08
8.89693e-09
0.000988093
-8.74449e-08
5.02451e-08
0.000988092
-3.00144e-08
7.88986e-08
0.000988073
-3.18186e-08
1.23464e-08
0.000988062
-1.01984e-07
7.14826e-08
0.000988065
2.20662e-08
7.78394e-08
0.000988044
-8.80991e-08
-4.99981e-09
-2.94527e-08
9.89618e-08
0.000837839
-1.67908e-08
-2.00415e-08
0.000837845
-4.50906e-08
1.50933e-08
0.000837859
-3.03706e-08
1.86676e-08
0.000837865
-2.2354e-10
-4.1156e-08
0.000837884
-4.6361e-08
-3.38516e-08
0.000837895
4.17715e-09
1.29006e-08
0.000837916
-1.49396e-08
-1.24551e-07
0.000837924
-1.62227e-08
3.44818e-09
0.000837949
1.60405e-09
-7.54167e-08
0.00083796
2.28169e-08
-1.14126e-07
0.000837968
-5.39469e-08
1.18754e-09
0.000838001
7.06188e-08
-1.36698e-07
0.00083799
-4.17527e-08
-4.96107e-08
0.000838019
1.40406e-08
-5.42857e-08
0.000838022
3.27264e-08
-1.03079e-07
0.000838023
-2.76679e-08
-2.54745e-08
0.000838038
1.19751e-08
-7.07482e-08
0.000838032
2.40178e-08
-3.79683e-08
0.000838032
-3.31547e-08
-3.30771e-08
0.000838034
1.44863e-08
-2.64859e-08
0.00083802
-5.78186e-09
-5.86745e-09
0.000838023
-2.48528e-08
-2.07426e-08
0.000838003
-1.61989e-08
3.03069e-08
0.000837999
-1.27904e-08
-8.64575e-09
0.000837988
-3.67618e-08
3.70998e-08
0.000837963
-3.71583e-08
3.07755e-08
0.000837967
-2.58876e-08
3.31677e-08
0.000837936
-3.59064e-08
4.67669e-08
0.000837927
-8.06757e-08
5.50496e-08
0.000837915
1.2655e-08
5.30635e-08
0.000837891
-9.51706e-08
4.75935e-08
0.000837885
-3.79752e-08
9.11402e-08
0.00083787
-2.76061e-08
2.54694e-08
0.000837854
-8.2213e-08
8.64232e-08
0.000837852
-3.27397e-08
6.51674e-08
0.000837838
-3.16997e-08
2.9582e-08
0.000837834
-9.42397e-08
8.38698e-08
0.000837837
1.36432e-08
3.96397e-08
0.000837827
-7.65534e-08
1.07652e-08
-3.37378e-08
7.82565e-08
0.000702623
-1.11908e-08
-5.48715e-08
0.000702634
-3.8577e-08
-1.26934e-08
0.000702648
-2.68657e-08
-4.4447e-08
0.000702659
4.40685e-09
-7.48788e-08
0.000702676
-3.98518e-08
-5.91821e-08
0.000702688
5.57587e-09
-5.92906e-08
0.000702708
-9.01798e-09
-1.31031e-07
0.000702715
-1.2753e-08
-3.10537e-08
0.000702737
3.05008e-09
-1.28487e-07
0.000702745
2.27242e-08
-8.7736e-08
0.000702753
-4.40887e-08
-5.34452e-08
0.000702776
5.92536e-08
-1.26864e-07
0.000702769
-3.02054e-08
-4.00175e-08
0.000702788
9.65705e-09
-7.19685e-08
0.000702788
2.86474e-08
-6.72593e-08
0.000702789
-2.00977e-08
-2.0026e-08
0.000702794
5.46274e-09
-4.5666e-08
0.000702789
2.38964e-08
-8.5409e-09
0.000702785
-3.11131e-08
-7.04188e-09
0.00070278
1.05061e-08
1.34768e-08
0.000702769
-6.66352e-09
1.41333e-08
0.000702765
-2.3603e-08
3.1781e-08
0.000702744
-1.83343e-08
4.72581e-08
0.000702739
-1.34137e-08
3.16427e-08
0.000702721
-3.75435e-08
7.24986e-08
0.000702702
-3.54805e-08
4.64733e-08
0.000702698
-2.78611e-08
6.87365e-08
0.000702671
-3.71386e-08
6.44254e-08
0.000702661
-7.33556e-08
7.05935e-08
0.000702648
2.61017e-09
6.52811e-08
0.000702631
-8.56121e-08
6.33461e-08
0.000702623
-3.92019e-08
7.80574e-08
0.000702614
-2.87283e-08
3.49317e-08
0.000702604
-7.49715e-08
7.81723e-08
0.000702603
-3.37663e-08
3.71453e-08
0.000702598
-2.91061e-08
2.87948e-08
0.000702598
-8.42718e-08
5.00915e-08
0.000702604
8.43226e-09
9.94495e-10
0.000702604
-6.40372e-08
1.02788e-09
-3.38359e-08
1.94839e-08
0.000583065
-5.55125e-09
-7.88552e-08
0.000583077
-3.17701e-08
-4.9899e-08
0.000583089
-2.17226e-08
-8.5302e-08
0.000583102
7.57305e-09
-9.19414e-08
0.000583116
-3.30333e-08
-8.43548e-08
0.000583127
6.78161e-09
-9.12861e-08
0.000583143
-4.52444e-09
-1.19509e-07
0.000583148
-9.92542e-09
-5.6332e-08
0.000583166
3.92661e-09
-1.25276e-07
0.000583171
2.14468e-08
-6.2565e-08
0.000583177
-3.6027e-08
-6.88035e-08
0.000583192
4.92512e-08
-8.21045e-08
0.000583187
-2.12322e-08
-2.60612e-08
0.000583198
5.54881e-09
-4.75461e-08
0.000583197
2.55568e-08
-2.2484e-08
0.000583195
-1.52053e-08
3.55725e-09
0.000583194
1.17132e-09
-3.69843e-09
0.000583189
2.24087e-08
2.62561e-08
0.000583182
-2.86994e-08
2.97674e-08
0.000583173
7.27509e-09
4.5462e-08
0.000583163
-7.14878e-09
4.45577e-08
0.000583153
-2.27528e-08
6.66022e-08
0.000583134
-1.90592e-08
5.8739e-08
0.000583128
-1.46597e-08
6.50247e-08
0.000583107
-3.72083e-08
7.86919e-08
0.000583093
-3.34014e-08
5.77493e-08
0.000583084
-2.99461e-08
7.884e-08
0.000583064
-3.60422e-08
5.92548e-08
0.000583054
-6.68963e-08
6.85895e-08
0.000583044
-4.39736e-09
5.49495e-08
0.000583034
-7.53839e-08
5.13205e-08
0.000583027
-3.88191e-08
5.25272e-08
0.000583025
-2.71378e-08
2.21402e-08
0.000583019
-6.65766e-08
4.44099e-08
0.000583022
-3.18496e-08
5.50954e-09
0.000583024
-2.47148e-08
5.45514e-09
0.000583027
-7.29846e-08
3.68802e-09
0.000583037
6.53798e-09
-3.26338e-08
0.000583043
-5.16291e-08
-2.87871e-08
-3.06314e-08
-3.4266e-08
0.00047884
-1.17583e-09
-9.17611e-08
0.00047885
-2.55473e-08
-7.35712e-08
0.00047886
-1.67535e-08
-9.8649e-08
0.000478873
8.84158e-09
-9.40419e-08
0.000478882
-2.68956e-08
-8.99357e-08
0.000478891
6.97871e-09
-8.97607e-08
0.000478904
-1.81118e-09
-9.72197e-08
0.000478907
-7.96624e-09
-5.5538e-08
0.00047892
3.96401e-09
-9.27794e-08
0.000478923
1.91638e-08
-3.63282e-08
0.000478927
-2.94852e-08
-4.99436e-08
0.000478935
4.04507e-08
-3.301e-08
0.000478932
-1.4766e-08
-4.26921e-09
0.000478936
2.39622e-09
-7.27426e-09
0.000478935
2.27113e-08
1.53421e-08
0.00047893
-1.19665e-08
3.18569e-08
0.000478926
-9.22761e-10
3.16227e-08
0.000478921
1.96511e-08
5.3452e-08
0.000478911
-2.58614e-08
5.48584e-08
0.000478901
4.38699e-09
6.34501e-08
0.000478891
-7.73952e-09
6.35172e-08
0.000478878
-2.18878e-08
7.53551e-08
0.000478862
-1.91346e-08
6.13234e-08
0.000478855
-1.59968e-08
7.29e-08
0.000478836
-3.54149e-08
6.52308e-08
0.000478825
-3.14375e-08