/*--------------------------------*- C++ -*----------------------------------*\
  =========                 |
  \\      /  F ield         | OpenFOAM: The Open Source CFD Toolbox
   \\    /   O peration     | Website:  https://openfoam.org
    \\  /    A nd           | Version:  10
     \\/     M anipulation  |
\*---------------------------------------------------------------------------*/
FoamFile
{
    format      ascii;
    class       volScalarField;
    location    "50";
    object      pMean;
}
// * * * * * * * * * * * * * * * * * * * * * * * * * * * * * * * * * * * * * //

dimensions      [0 2 -2 0 0 0 0];

internalField   nonuniform List<scalar> 
102400
(
-0.000128645
-0.000172529
-0.000120639
-6.41751e-05
-0.000107433
-0.000100608
-5.49329e-05
-4.55885e-05
-6.32186e-05
-7.17786e-05
-0.000111047
-0.000181255
-0.000147347
-6.06763e-05
-7.59491e-05
-0.000197458
-0.00023573
-0.000152162
-7.86199e-05
-6.08957e-05
-7.30783e-05
-3.8314e-05
0.000107459
0.000297155
0.000340004
0.000303103
0.000271699
0.000206736
0.000158464
0.000157429
0.000206603
0.000195959
0.000192846
0.000180067
0.000128078
1.62653e-05
-5.88675e-05
-5.18937e-05
-4.23209e-05
-7.27388e-05
-0.000133019
-0.000175415
-0.000122802
-6.62117e-05
-0.00011101
-0.000104811
-5.90613e-05
-5.27269e-05
-7.19613e-05
-8.12912e-05
-0.000119666
-0.000188331
-0.000153246
-6.59989e-05
-8.2611e-05
-0.000207653
-0.000247108
-0.000161473
-8.60101e-05
-6.75652e-05
-7.93832e-05
-4.2856e-05
0.000104592
0.000294108
0.000336884
0.000299122
0.000268341
0.000205251
0.000157412
0.00015522
0.000202934
0.000192362
0.000190028
0.000177181
0.000123323
9.37457e-06
-6.5175e-05
-5.60232e-05
-4.52393e-05
-7.64751e-05
-0.000158805
-0.000200746
-0.00014542
-8.64787e-05
-0.000131122
-0.00012575
-8.02595e-05
-7.95697e-05
-0.000104899
-0.000114229
-0.000154316
-0.000221841
-0.000186528
-9.64958e-05
-0.000110913
-0.000236146
-0.000276962
-0.00019488
-0.000122106
-0.000104689
-0.000115156
-7.30383e-05
8.08473e-05
0.000270909
0.000311669
0.000271392
0.000242564
0.000184676
0.000141528
0.000141529
0.000188335
0.000174501
0.000171163
0.00015656
9.93932e-05
-1.77959e-05
-9.41771e-05
-8.17851e-05
-6.82669e-05
-0.00010103
-0.000219884
-0.000265032
-0.000210931
-0.000145968
-0.000186789
-0.000185417
-0.00013926
-0.000142029
-0.000171775
-0.000183564
-0.000229066
-0.000300287
-0.000264005
-0.000168936
-0.000171165
-0.000287023
-0.000336345
-0.000271105
-0.000212366
-0.000193038
-0.000191356
-0.000140107
2.10602e-05
0.000209228
0.000247283
0.000209321
0.000182018
0.00013101
9.47379e-05
9.64745e-05
0.000140407
0.000120694
0.000114742
9.73819e-05
3.7367e-05
-7.92072e-05
-0.000153546
-0.000133936
-0.000119562
-0.0001584
-0.000305744
-0.000357412
-0.000315325
-0.00025003
-0.00029026
-0.000296071
-0.000244228
-0.000242124
-0.000280826
-0.000294138
-0.000342043
-0.000411013
-0.000369714
-0.000274873
-0.000267795
-0.000376725
-0.000452849
-0.000419792
-0.000370146
-0.000333786
-0.00031077
-0.000246391
-8.17813e-05
0.000101719
0.000144668
0.000109413
8.41954e-05
3.75807e-05
9.89552e-06
1.35891e-05
5.1312e-05
2.39391e-05
1.32557e-05
-8.5311e-06
-7.08515e-05
-0.00018051
-0.000248355
-0.000219765
-0.000196686
-0.000241951
-0.000412641
-0.000463688
-0.000435973
-0.000370697
-0.000423788
-0.000441287
-0.000377964
-0.000380409
-0.000428172
-0.00043456
-0.0004675
-0.000518387
-0.000467716
-0.000393151
-0.000402899
-0.00053473
-0.000645294
-0.000632923
-0.00057421
-0.000506035
-0.000461529
-0.000397851
-0.00023874
-6.14045e-05
-5.55072e-06
-2.79842e-05
-5.06069e-05
-9.76874e-05
-0.000123922
-0.00011037
-7.22749e-05
-0.00010617
-0.000120687
-0.000147022
-0.000211296
-0.000315865
-0.000377676
-0.000336851
-0.000308656
-0.000359695
-0.000523517
-0.000569694
-0.000545228
-0.000484645
-0.000540163
-0.000569889
-0.000514129
-0.000527283
-0.000586581
-0.000589634
-0.000592827
-0.000606879
-0.000559713
-0.000527257
-0.000570149
-0.000725866
-0.000862272
-0.000852389
-0.000779795
-0.000695439
-0.000650414
-0.000592031
-0.000445548
-0.000275326
-0.000199322
-0.000198978
-0.000217598
-0.000270058
-0.000300501
-0.000281384
-0.000234131
-0.000270288
-0.000290456
-0.000320991
-0.000382984
-0.000470798
-0.000523446
-0.000473198
-0.00043946
-0.000484151
-0.000615619
-0.000657981
-0.000628936
-0.000565339
-0.000625115
-0.000680956
-0.000646778
-0.000662539
-0.000723695
-0.000724592
-0.000710814
-0.000702026
-0.000653298
-0.000647731
-0.000705786
-0.000869693
-0.00102016
-0.00102569
-0.000969946
-0.000898452
-0.000864613
-0.000812128
-0.000672964
-0.000503872
-0.000407022
-0.000388792
-0.00040337
-0.000454786
-0.00049277
-0.000475369
-0.000422137
-0.000451404
-0.000472784
-0.000503241
-0.00055639
-0.000626356
-0.000656922
-0.000588947
-0.000557105
-0.000593019
-0.000699612
-0.000723369
-0.000695702
-0.000625733
-0.000679595
-0.000753515
-0.000746279
-0.000758305
-0.000809196
-0.000833064
-0.00083534
-0.000825383
-0.000770149
-0.000748909
-0.000796776
-0.00096131
-0.0011243
-0.00115934
-0.00112985
-0.00107524
-0.00104387
-0.00100425
-0.000883122
-0.000722787
-0.000617863
-0.00058403
-0.000587612
-0.000621742
-0.000658997
-0.000654366
-0.000600834
-0.000612056
-0.00063453
-0.000668481
-0.000717868
-0.000767029
-0.000768899
-0.000678045
-0.000651725
-0.000693624
-0.000801283
-0.000795796
-0.000762748
-0.000690456
-0.000728891
-0.00080542
-0.000812348
-0.000828121
-0.000878391
-0.000927278
-0.000959065
-0.000958398
-0.000910882
-0.000883068
-0.00092322
-0.00105625
-0.00119959
-0.00126289
-0.00126685
-0.00121526
-0.00117603
-0.00114844
-0.00105003
-0.000914289
-0.000812344
-0.000761124
-0.000751049
-0.000764951
-0.000793571
-0.000801071
-0.000744497
-0.000737653
-0.000772028
-0.000813792
-0.000851187
-0.000876189
-0.000863001
-0.000771518
-0.000756296
-0.000808851
-0.000918944
-0.000892697
-0.000856534
-0.000776761
-0.000785287
-0.000850995
-0.000869719
-0.000900961
-0.000946822
-0.000993275
-0.00102789
-0.00103271
-0.00100775
-0.00101396
-0.00105778
-0.00115875
-0.00128479
-0.00137942
-0.00141689
-0.00135889
-0.00130395
-0.00128859
-0.00120891
-0.00107598
-0.000956035
-0.000877524
-0.000847395
-0.0008496
-0.000873605
-0.00088127
-0.000822622
-0.000809394
-0.000868298
-0.000920024
-0.000936999
-0.000943677
-0.00093618
-0.000869304
-0.000859965
-0.000919499
-0.000994834
-0.000970995
-0.000931642
-0.000851059
-0.000838904
-0.000885465
-0.000896613
-0.000937231
-0.000983035
-0.00102296
-0.00106538
-0.0010702
-0.00105459
-0.00108757
-0.00114838
-0.00124626
-0.00138002
-0.00150416
-0.00155979
-0.00149843
-0.00142676
-0.00140821
-0.0013211
-0.00115924
-0.00101834
-0.000935368
-0.000888985
-0.000875983
-0.000893039
-0.000899473
-0.000847994
-0.000829124
-0.000892471
-0.000957092
-0.000973082
-0.000974435
-0.000978123
-0.000938256
-0.000929495
-0.000984032
-0.000999668
-0.000982956
-0.000946392
-0.000871723
-0.000849893
-0.000882283
-0.000874052
-0.000911846
-0.000978283
-0.00103055
-0.00108465
-0.00109088
-0.00107224
-0.001099
-0.00115925
-0.00123865
-0.00136817
-0.00151736
-0.00159578
-0.00155621
-0.00148592
-0.0014523
-0.00133785
-0.0011367
-0.000987227
-0.00092239
-0.000875707
-0.000851036
-0.000860716
-0.000878979
-0.000864912
-0.000843715
-0.000884157
-0.000954164
-0.00098141
-0.00098297
-0.00098754
-0.000962714
-0.000941328
-0.000978763
-0.000969745
-0.000961434
-0.000926913
-0.000863456
-0.000828706
-0.000846219
-0.000839392
-0.00087991
-0.000967568
-0.00103323
-0.00107469
-0.00106605
-0.00103499
-0.00105285
-0.00109694
-0.001144
-0.00123993
-0.00138252
-0.00147845
-0.00146286
-0.00140073
-0.00135336
-0.00123323
-0.00103672
-0.000895269
-0.000844926
-0.000816558
-0.000792477
-0.000792537
-0.00082107
-0.000850962
-0.000852078
-0.000871267
-0.000923325
-0.000952078
-0.000960721
-0.000967371
-0.000957884
-0.000932848
-0.000949991
-0.000897023
-0.0009112
-0.000906487
-0.000878967
-0.000849148
-0.000849015
-0.000842989
-0.000885821
-0.000972506
-0.00101329
-0.00102008
-0.000995937
-0.000958435
-0.000964033
-0.00101164
-0.00105837
-0.00111305
-0.00119797
-0.00126595
-0.0012483
-0.00118156
-0.00113395
-0.00104444
-0.000886697
-0.00076666
-0.000733584
-0.000729526
-0.000721626
-0.00071849
-0.000739914
-0.000795224
-0.000832083
-0.000853831
-0.000876542
-0.000882561
-0.000884088
-0.00088493
-0.000882146
-0.000868113
-0.000875123
-0.000779534
-0.000821311
-0.000856869
-0.000876833
-0.000874756
-0.000862204
-0.000842274
-0.000862545
-0.000916585
-0.000926797
-0.000904887
-0.000863426
-0.000826571
-0.000833592
-0.000876556
-0.000917504
-0.000944544
-0.000979118
-0.0010084
-0.000990469
-0.000941911
-0.000913029
-0.000850651
-0.000737549
-0.000639116
-0.000607338
-0.000615341
-0.000621693
-0.000622745
-0.000627723
-0.000677934
-0.00074401
-0.00078132
-0.000789839
-0.000772331
-0.000752043
-0.000737603
-0.000732301
-0.000728434
-0.000743167
-0.000633212
-0.000681028
-0.000734048
-0.000777513
-0.000797023
-0.00078708
-0.000753205
-0.00074608
-0.000772818
-0.000767648
-0.000745144
-0.000718555
-0.000696437
-0.000703046
-0.00073597
-0.000768151
-0.000782344
-0.000789696
-0.000796846
-0.000785709
-0.000757507
-0.000746268
-0.000715565
-0.00063554
-0.000543169
-0.000488847
-0.000482543
-0.000502607
-0.000527898
-0.000544307
-0.000578523
-0.000629007
-0.000667614
-0.00067812
-0.000651776
-0.000615201
-0.000588935
-0.000581698
-0.000581385
-0.000597258
-0.000541875
-0.000577843
-0.000621103
-0.000656068
-0.000669339
-0.000663676
-0.000634561
-0.000615187
-0.000622147
-0.000609918
-0.00058582
-0.000569026
-0.000561044
-0.000571318
-0.000591549
-0.000617766
-0.000640422
-0.000651847
-0.000649569
-0.000639609
-0.000621287
-0.000610029
-0.000590334
-0.000542156
-0.000483079
-0.000431197
-0.000405661
-0.000417012
-0.000453095
-0.000480635
-0.000495341
-0.000513655
-0.00053202
-0.000542844
-0.000525264
-0.00048304
-0.000455002
-0.000458804
-0.000478529
-0.000507752
-0.000487138
-0.000504471
-0.000521592
-0.000533166
-0.000535125
-0.00053526
-0.000531627
-0.000529505
-0.000531451
-0.000510921
-0.000480697
-0.00046399
-0.000463571
-0.000475628
-0.000482684
-0.000486432
-0.000496748
-0.000510327
-0.000517971
-0.000509852
-0.000490896
-0.00048176
-0.000475474
-0.000458988
-0.000440496
-0.000420217
-0.000398483
-0.00038907
-0.000401736
-0.000410576
-0.000401509
-0.000394532
-0.000389987
-0.000388312
-0.000381677
-0.00036472
-0.000360217
-0.000387221
-0.000427105
-0.000462053
-0.000401752
-0.000396554
-0.000392569
-0.000398256
-0.000404168
-0.000415113
-0.000433932
-0.000456354
-0.000472335
-0.000458055
-0.0004218
-0.000399436
-0.00040094
-0.000418864
-0.00042792
-0.000420132
-0.000415148
-0.000417015
-0.000418145
-0.00040623
-0.000380462
-0.000363992
-0.000359099
-0.000350951
-0.00034931
-0.000347678
-0.000339437
-0.00033525
-0.000340137
-0.000333992
-0.000305399
-0.000276258
-0.000254105
-0.000241796
-0.000247691
-0.000261103
-0.000280607
-0.000316588
-0.000358393
-0.000390514
-0.000280917
-0.000279128
-0.000277544
-0.00028822
-0.000307119
-0.000333218
-0.000362932
-0.00039057
-0.000408315
-0.000401298
-0.000372949
-0.000346662
-0.000342066
-0.000358751
-0.000379959
-0.000382535
-0.000371015
-0.00035615
-0.000344632
-0.000332518
-0.000307817
-0.000285288
-0.000277868
-0.000273539
-0.000274734
-0.000278245
-0.000280643
-0.000286014
-0.000289425
-0.000278573
-0.000246924
-0.000209276
-0.000177979
-0.000164469
-0.000172327
-0.00018517
-0.000197861
-0.000215655
-0.000241245
-0.000269078
-0.000221743
-0.000228967
-0.000233507
-0.000244559
-0.000263393
-0.000284273
-0.000305103
-0.000324206
-0.00033715
-0.000333024
-0.000311306
-0.000283595
-0.000263937
-0.000260315
-0.00027245
-0.000280049
-0.000269723
-0.000248661
-0.000233577
-0.000228696
-0.000218478
-0.000206394
-0.000204304
-0.000200373
-0.000196913
-0.000193444
-0.000191619
-0.000196842
-0.000207287
-0.000211114
-0.00019702
-0.000173939
-0.000149594
-0.000139044
-0.000146976
-0.000158381
-0.000163618
-0.000168616
-0.000183668
-0.000206625
-0.000199332
-0.000212145
-0.000216544
-0.000217253
-0.000225909
-0.000240572
-0.000251323
-0.000259166
-0.000266457
-0.00026381
-0.000250678
-0.000229685
-0.000209335
-0.000196722
-0.000197795
-0.000198241
-0.000190681
-0.000178603
-0.000168347
-0.000166877
-0.000162492
-0.000154936
-0.000149065
-0.000140323
-0.000130384
-0.000119948
-0.000111438
-0.000112164
-0.000120567
-0.000130854
-0.000131715
-0.000125739
-0.000116249
-0.000111353
-0.000116049
-0.000123102
-0.000128346
-0.000136188
-0.000154174
-0.00017892
-0.000141135
-0.000156243
-0.000162651
-0.000160309
-0.00016158
-0.000170495
-0.000180468
-0.000187709
-0.000193748
-0.000190516
-0.000179436
-0.000165073
-0.000148337
-0.000135054
-0.000131957
-0.000129802
-0.000126232
-0.000122514
-0.000115882
-0.000112367
-0.000102805
-8.93129e-05
-7.82546e-05
-6.61757e-05
-6.0086e-05
-5.72958e-05
-5.34219e-05
-5.49307e-05
-5.9698e-05
-6.50947e-05
-6.57534e-05
-6.03962e-05
-5.17378e-05
-4.69187e-05
-4.91595e-05
-5.67084e-05
-6.82555e-05
-8.08447e-05
-0.000100458
-0.000122944
-4.88648e-05
-6.20226e-05
-7.35778e-05
-7.75699e-05
-8.06565e-05
-8.76888e-05
-9.47672e-05
-9.75623e-05
-0.000101661
-0.00010143
-9.5548e-05
-8.82246e-05
-7.64343e-05
-6.49219e-05
-6.12086e-05
-5.67604e-05
-5.16823e-05
-4.9123e-05
-4.40745e-05
-4.06767e-05
-2.98024e-05
-1.58338e-05
-7.25824e-06
2.33225e-06
5.38938e-06
4.04152e-06
6.10692e-06
5.96544e-06
5.51257e-06
3.10773e-06
-1.23192e-06
-1.20122e-08
4.93872e-06
7.73112e-06
7.42243e-06
6.26294e-06
2.29392e-06
-4.80167e-06
-2.02225e-05
-3.78287e-05
7.30696e-06
9.22991e-09
-9.28708e-06
-1.56366e-05
-1.96059e-05
-2.66983e-05
-3.43987e-05
-3.46725e-05
-3.43486e-05
-3.3024e-05
-2.82635e-05
-2.35318e-05
-1.57036e-05
-7.19361e-06
-4.06268e-06
4.17978e-07
6.88139e-06
1.15499e-05
1.63981e-05
1.93431e-05
2.80679e-05
3.91513e-05
4.13586e-05
4.50128e-05
4.73915e-05
4.87757e-05
5.55766e-05
6.06178e-05
6.43159e-05
6.58805e-05
6.1894e-05
5.96977e-05
6.0787e-05
5.93955e-05
5.55981e-05
5.18597e-05
4.784e-05
4.33244e-05
3.03602e-05
1.40275e-05
4.27817e-05
4.06836e-05
3.55022e-05
2.93357e-05
2.70327e-05
2.51908e-05
1.99861e-05
1.74055e-05
1.61193e-05
1.57915e-05
1.83369e-05
2.13115e-05
2.6478e-05
3.19285e-05
3.45677e-05
3.75869e-05
4.17253e-05
4.6725e-05
5.16486e-05
5.29425e-05
5.81866e-05
6.79405e-05
6.87277e-05
6.96998e-05
7.11375e-05
7.25192e-05
7.95678e-05
8.52245e-05
8.98524e-05
9.26195e-05
8.93579e-05
8.56846e-05
8.36083e-05
8.03697e-05
7.58508e-05
7.09356e-05
6.73067e-05
6.65678e-05
5.80912e-05
4.57874e-05
5.85329e-05
5.85041e-05
5.83615e-05
5.41491e-05
5.23749e-05
5.27533e-05
4.90629e-05
4.58238e-05
4.34241e-05
4.24981e-05
4.30342e-05
4.47032e-05
4.94721e-05
5.24082e-05
5.42525e-05
5.72822e-05
5.92647e-05
6.37654e-05
7.02513e-05
7.23917e-05
7.40987e-05
7.99003e-05
8.22882e-05
8.28153e-05
8.3921e-05
8.65542e-05
9.29024e-05
9.66144e-05
0.000100957
0.000104483
0.000102339
9.98017e-05
9.70607e-05
9.30732e-05
8.85761e-05
8.19974e-05
7.71876e-05
7.6671e-05
7.18443e-05
6.25763e-05
7.71149e-05
7.55293e-05
7.77883e-05
7.39625e-05
7.12153e-05
7.22159e-05
6.99332e-05
6.7847e-05
6.54091e-05
6.44529e-05
6.4284e-05
6.32267e-05
6.56256e-05
6.67247e-05
6.78486e-05
7.11783e-05
7.24097e-05
7.54109e-05
8.04712e-05
8.37241e-05
8.52779e-05
8.86282e-05
9.23856e-05
9.42211e-05
9.48008e-05
9.86519e-05
0.0001044
0.000106157
0.000109674
0.000113281
0.000111706
0.000109853
0.000107066
0.00010323
0.000100783
9.47537e-05
9.07439e-05
9.08067e-05
8.77013e-05
8.2844e-05
8.6505e-05
8.34933e-05
8.7956e-05
8.56079e-05
8.21541e-05
8.29819e-05
8.13955e-05
7.98894e-05
7.75993e-05
7.59256e-05
7.64629e-05
7.51861e-05
7.52517e-05
7.57759e-05
7.65081e-05
7.81144e-05
7.87737e-05
8.08863e-05
8.41195e-05
8.80794e-05
9.0864e-05
9.25752e-05
9.60625e-05
9.89077e-05
9.93768e-05
0.000102708
0.000107812
0.000109352
0.000112097
0.000115897
0.000115759
0.000114223
0.000111433
0.000107429
0.000105919
0.000101045
9.74841e-05
9.62768e-05
9.29186e-05
9.20377e-05
9.65306e-05
9.28833e-05
9.72215e-05
9.61874e-05
9.24978e-05
9.25792e-05
9.12911e-05
9.00678e-05
8.87343e-05
8.59565e-05
8.54269e-05
8.45725e-05
8.16688e-05
8.07274e-05
8.18176e-05
8.14009e-05
8.16765e-05
8.33574e-05
8.48792e-05
8.82112e-05
9.19403e-05
9.41506e-05
9.66746e-05
0.000100238
0.000102845
0.000105652
0.000109061
0.000110845
0.000112192
0.000115051
0.000116339
0.000114795
0.000112378
0.000108918
0.000107389
0.000104382
0.000102283
0.00010054
9.79159e-05
0.000100229
0.000100681
9.79535e-05
0.00010064
0.00010101
9.86808e-05
9.72441e-05
9.63288e-05
9.55071e-05
9.4061e-05
9.06594e-05
8.85927e-05
8.78961e-05
8.35355e-05
8.14618e-05
8.25421e-05
8.04182e-05
7.95863e-05
8.06628e-05
8.18123e-05
8.42164e-05
8.82427e-05
9.24042e-05
9.36292e-05
9.66224e-05
0.000102276
0.000104806
0.000105727
0.000108085
0.000108684
0.00010984
0.000111965
0.000109999
0.000108436
0.00010661
0.000104179
0.000103344
0.000103014
0.000100783
9.97751e-05
0.000102699
-0.000362302
-0.000380484
-0.000263249
-0.000227701
-0.000255778
-0.000327793
-0.000426003
-0.000453169
-0.000333753
-0.000153572
-0.000150361
-0.000180289
-0.000143102
-0.000116568
-0.00021509
-0.000395118
-0.000456782
-0.000386848
-0.000223984
-0.000172361
-0.000277801
-0.000311271
-0.000173976
1.83381e-05
0.000134341
0.000178899
0.000115067
6.50308e-05
0.000121338
0.000105074
-7.48407e-06
-0.000135879
-0.000201372
-0.000156161
-0.00011583
-0.000123209
-0.000193064
-0.000262834
-0.000280499
-0.000298298
-0.000366324
-0.000383516
-0.00026532
-0.000230508
-0.000260189
-0.000333678
-0.00043308
-0.000459408
-0.000339009
-0.000158519
-0.000156131
-0.000185652
-0.000146944
-0.000119492
-0.000217494
-0.000399094
-0.000460935
-0.000390152
-0.000226435
-0.000174626
-0.000280144
-0.000313771
-0.000176718
1.5081e-05
0.00012881
0.00017254
0.000106978
5.58603e-05
0.00011192
9.76671e-05
-1.23252e-05
-0.000138668
-0.000202544
-0.000157581
-0.000117808
-0.000125665
-0.000195251
-0.00026485
-0.000282289
-0.000301553
-0.00038604
-0.000402984
-0.000282582
-0.000248695
-0.000284628
-0.000362752
-0.000463808
-0.000492867
-0.000371494
-0.000190661
-0.000191366
-0.000223328
-0.000186358
-0.000156357
-0.000250543
-0.000433165
-0.000497989
-0.000427423
-0.000261471
-0.000206424
-0.000309744
-0.000341921
-0.000205143
-1.33455e-05
9.99268e-05
0.000136823
6.42658e-05
1.364e-05
7.66416e-05
6.42978e-05
-4.22859e-05
-0.000164591
-0.000222606
-0.000175914
-0.000135416
-0.000142679
-0.000214877
-0.000285196
-0.000300473
-0.000320567
-0.000421808
-0.000439972
-0.000329008
-0.000300717
-0.000342223
-0.000424509
-0.000528432
-0.000561848
-0.000435559
-0.000250098
-0.000257474
-0.00029599
-0.000266173
-0.000236576
-0.000320219
-0.000502096
-0.000576782
-0.000508888
-0.000334013
-0.000267171
-0.000365099
-0.000399085
-0.000262404
-7.45642e-05
2.78613e-05
5.38868e-05
-1.79761e-05
-5.9974e-05
1.68916e-05
1.15797e-05
-9.19356e-05
-0.000211271
-0.000266161
-0.000219606
-0.000179108
-0.000185426
-0.00025809
-0.000330129
-0.000340954
-0.000358644
-0.000476977
-0.000509245
-0.000416936
-0.000390383
-0.000431237
-0.00051582
-0.000632884
-0.000673502
-0.00052931
-0.000331869
-0.000342763
-0.000395503
-0.000377987
-0.000356531
-0.000430871
-0.000605211
-0.000682003
-0.000615517
-0.000424555
-0.000332728
-0.000424552
-0.000468454
-0.000343198
-0.000168883
-7.75429e-05
-5.41723e-05
-0.000117907
-0.000156456
-7.33352e-05
-6.6659e-05
-0.000159735
-0.000284157
-0.000341291
-0.000300213
-0.000259985
-0.000263259
-0.00033295
-0.000403986
-0.000409487
-0.00041899
-0.000565615
-0.000606354
-0.000530206
-0.000495181
-0.000522453
-0.000614983
-0.000762303
-0.000814129
-0.000656383
-0.00044661
-0.000452799
-0.000518075
-0.000521515
-0.000506421
-0.000570815
-0.000725494
-0.000797534
-0.000732779
-0.00052664
-0.000402048
-0.000479323
-0.00054486
-0.000448472
-0.000295989
-0.000213797
-0.000189915
-0.000249295
-0.000301605
-0.000209269
-0.000173831
-0.00025056
-0.00038477
-0.000452494
-0.000416418
-0.00037586
-0.000374623
-0.000434052
-0.00049735
-0.000499235
-0.000511923
-0.000674801
-0.000705109
-0.000626585
-0.000582272
-0.000608427
-0.000723451
-0.00089194
-0.000955291
-0.000799984
-0.0005915
-0.000603404
-0.000683713
-0.000685231
-0.000672913
-0.000724987
-0.000847992
-0.000903239
-0.000850822
-0.000651456
-0.00050689
-0.000564079
-0.000650551
-0.000588627
-0.000460965
-0.000381803
-0.000354946
-0.000422857
-0.000479762
-0.000374131
-0.000313476
-0.000368971
-0.000502954
-0.00058012
-0.000547873
-0.00050432
-0.000492991
-0.000540249
-0.000596718
-0.000607449
-0.000628379
-0.00075924
-0.000771867
-0.000701615
-0.000675408
-0.000718396
-0.000832262
-0.00100892
-0.0010898
-0.000948458
-0.00074382
-0.000752998
-0.000829967
-0.00083531
-0.000827112
-0.000855856
-0.000946112
-0.00100734
-0.0010051
-0.000830588
-0.000662445
-0.000693232
-0.000793823
-0.000761619
-0.000644491
-0.000562702
-0.00053737
-0.000601507
-0.000656385
-0.000551121
-0.000473061
-0.000500389
-0.000631077
-0.000712248
-0.000671395
-0.00062357
-0.000604756
-0.000637255
-0.000698781
-0.000727351
-0.000744062
-0.000806496
-0.000821716
-0.000772612
-0.000773129
-0.000840524
-0.000952991
-0.0011083
-0.00118774
-0.00106882
-0.000867392
-0.000861799
-0.000921777
-0.000918952
-0.000905405
-0.000918073
-0.00101464
-0.00112378
-0.00117277
-0.00101013
-0.000822179
-0.000825053
-0.000929472
-0.000912913
-0.000797066
-0.000717265
-0.000695141
-0.000746037
-0.000799801
-0.000717353
-0.000630531
-0.000632424
-0.00074371
-0.000818823
-0.000777236
-0.00072145
-0.000680729
-0.000698513
-0.000762609
-0.000799283
-0.000801699
-0.000836448
-0.000873643
-0.000856597
-0.00086572
-0.000930523
-0.00102456
-0.00115546
-0.00122542
-0.00112912
-0.000938061
-0.00091858
-0.000957732
-0.000948648
-0.000947557
-0.000972095
-0.00108641
-0.00123994
-0.00131303
-0.00116359
-0.000952805
-0.00092722
-0.00103532
-0.00102331
-0.000897773
-0.00081547
-0.000802053
-0.00084448
-0.000896579
-0.000843833
-0.000769005
-0.000755708
-0.000837384
-0.000908151
-0.000868465
-0.000801751
-0.000738935
-0.00072894
-0.000766447
-0.000795375
-0.000812955
-0.000838257
-0.000915642
-0.000940907
-0.000950647
-0.00100216
-0.00108084
-0.00118298
-0.00124811
-0.00117275
-0.00098228
-0.000933039
-0.000955766
-0.000960515
-0.000998557
-0.00103398
-0.00114321
-0.00131071
-0.00140315
-0.00127972
-0.00106639
-0.00102003
-0.00112124
-0.00110625
-0.000957947
-0.000854487
-0.000841087
-0.000865169
-0.000916612
-0.000911545
-0.000873228
-0.000859775
-0.000912457
-0.000978096
-0.000944908
-0.000872518
-0.000794119
-0.000750061
-0.000743032
-0.000754367
-0.000792128
-0.000798886
-0.000892227
-0.000946492
-0.000960692
-0.00101453
-0.00109351
-0.00118023
-0.0012541
-0.00121381
-0.00104167
-0.000953224
-0.000929451
-0.000924207
-0.000980203
-0.00102953
-0.0011302
-0.00128182
-0.00137371
-0.00131159
-0.00115833
-0.00111812
-0.00120359
-0.00117528
-0.00101157
-0.000888906
-0.000850813
-0.000843514
-0.000889689
-0.000924387
-0.000923463
-0.000910465
-0.000923984
-0.000981929
-0.000982122
-0.000936267
-0.000863858
-0.000797857
-0.000744999
-0.000715807
-0.000746299
-0.000768269
-0.000842397
-0.000896592
-0.000904662
-0.000942233
-0.00102353
-0.00111491
-0.00120924
-0.00121174
-0.00106911
-0.000956136
-0.000892841
-0.000859202
-0.000891853
-0.000925211
-0.001004
-0.00112081
-0.00120217
-0.00121101
-0.00114686
-0.00113851
-0.00120792
-0.0011718
-0.00101828
-0.000892602
-0.000834181
-0.000804979
-0.000842257
-0.000897049
-0.0009231
-0.000908745
-0.000889783
-0.000932951
-0.000963105
-0.000953502
-0.000911482
-0.000853379
-0.000785409
-0.000720923
-0.000726664
-0.000764963
-0.000804455
-0.00083887
-0.00083866
-0.000853497
-0.000926851
-0.0010189
-0.00111845
-0.00115556
-0.00104422
-0.000919195
-0.000857796
-0.000834563
-0.000856545
-0.000872381
-0.000898083
-0.000959104
-0.00102767
-0.00106299
-0.00103738
-0.00102879
-0.00107827
-0.00105623
-0.000951223
-0.000876205
-0.000850473
-0.000826266
-0.000836116
-0.000874969
-0.000895309
-0.000868824
-0.00082438
-0.000840759
-0.000875875
-0.000899652
-0.000901424
-0.000880044
-0.000833994
-0.000763627
-0.000744378
-0.000737935
-0.000759148
-0.000786681
-0.000798482
-0.000813439
-0.000856656
-0.000913823
-0.000997796
-0.00106157
-0.00098905
-0.000865612
-0.000801734
-0.000789278
-0.000821414
-0.000860301
-0.000882517
-0.00090351
-0.000917598
-0.000898839
-0.00083925
-0.000812577
-0.000857449
-0.000870836
-0.000835018
-0.000830982
-0.000869818
-0.00089415
-0.000903932
-0.000903975
-0.000889855
-0.000835361
-0.000761627
-0.000731276
-0.000745717
-0.000777349
-0.000811424
-0.000832081
-0.000827873
-0.00077926
-0.000737557
-0.000668844
-0.00067535
-0.000717285
-0.00076461
-0.000792588
-0.000815672
-0.000850532
-0.000924107
-0.000993346
-0.000949439
-0.000834681
-0.000748583
-0.000715984
-0.000745622
-0.000802571
-0.000833305
-0.000836644
-0.000801308
-0.000715337
-0.000610344
-0.000564491
-0.00060559
-0.000647232
-0.00066521
-0.000707977
-0.000793636
-0.000858187
-0.000884156
-0.000881385
-0.000847473
-0.000773905
-0.000680556
-0.00063069
-0.000636253
-0.00067393
-0.00073212
-0.000793788
-0.000828558
-0.000795215
-0.000716229
-0.000611169
-0.000585538
-0.000618163
-0.000674452
-0.000718519
-0.000754298
-0.000799176
-0.000879387
-0.000946211
-0.000915923
-0.000819962
-0.000730465
-0.000682344
-0.00069218
-0.0007338
-0.000756668
-0.000756773
-0.00071297
-0.000604616
-0.000471002
-0.000387379
-0.000412047
-0.000476267
-0.000529436
-0.000594596
-0.000682959
-0.00074535
-0.000770064
-0.000768955
-0.000731658
-0.000658121
-0.000569108
-0.000503844
-0.000499022
-0.000547357
-0.000624411
-0.000708374
-0.00076784
-0.000763978
-0.000689395
-0.000555857
-0.000499663
-0.000483995
-0.000506636
-0.000543363
-0.000597484
-0.000658543
-0.000738173
-0.000802126
-0.000782365
-0.000705997
-0.000633734
-0.000585954
-0.000577521
-0.000594619
-0.000599755
-0.000597787
-0.000582017
-0.000517762
-0.000407083
-0.000310393
-0.000302662
-0.000353083
-0.000411186
-0.000481406
-0.000548344
-0.000593487
-0.000612026
-0.000609372
-0.000573685
-0.000502766
-0.000420447
-0.000354289
-0.000337996
-0.000382458
-0.000459081
-0.000539541
-0.000601638
-0.000632474
-0.000613615
-0.000467075
-0.00043529
-0.000410714
-0.000396826
-0.000389197
-0.000410059
-0.000452347
-0.000517168
-0.000576767
-0.000575199
-0.000533455
-0.000494497
-0.000471392
-0.00046449
-0.000462899
-0.000444982
-0.00042446
-0.000415698
-0.000387837
-0.000330627
-0.00025972
-0.000232502
-0.000260106
-0.000298691
-0.000336966
-0.000374317
-0.000403445
-0.000420815
-0.000429531
-0.000414873
-0.000361989
-0.000298181
-0.000246341
-0.000225862
-0.000255772
-0.000309344
-0.00036402
-0.000408127
-0.000447554
-0.000472307
-0.000392645
-0.000384905
-0.000359915
-0.000327741
-0.000286839
-0.000263458
-0.000270507
-0.000311853
-0.000365804
-0.000387554
-0.000378265
-0.000370292
-0.00037393
-0.000380708
-0.000374244
-0.000344577
-0.000306688
-0.000283734
-0.000266197
-0.00024139
-0.000201117
-0.000172161
-0.000183521
-0.000211012
-0.00023483
-0.00025561
-0.000272027
-0.000291156
-0.000313232
-0.0003222
-0.00030116
-0.000264132
-0.000234112
-0.000214018
-0.000221979
-0.000252607
-0.000285347
-0.000310212
-0.000338382
-0.000372509
-0.000333181
-0.000328931
-0.000298819
-0.000259266
-0.000214587
-0.000185166
-0.000182439
-0.000214905
-0.000271558
-0.000312613
-0.000322837
-0.000319633
-0.00032191
-0.00033476
-0.000345005
-0.000331133
-0.000296988
-0.000263099
-0.000234488
-0.000205006
-0.000167625
-0.000142497
-0.000149043
-0.000167237
-0.000187885
-0.000208274
-0.00022073
-0.000234824
-0.000256312
-0.000265523
-0.000251431
-0.000222269
-0.000201863
-0.000187031
-0.000182434
-0.00019482
-0.000213113
-0.000238871
-0.000272686
-0.000309502
-0.000269313
-0.000267935
-0.000249752
-0.000226699
-0.000202409
-0.000187621
-0.000193191
-0.000223778
-0.000264602
-0.000287299
-0.000277526
-0.000245195
-0.000222937
-0.000231227
-0.000254944
-0.00026344
-0.000248855
-0.000222917
-0.000193262
-0.00016275
-0.0001296
-0.000110535
-0.000113331
-0.000122583
-0.000132909
-0.000143294
-0.000151026
-0.000165845
-0.000191289
-0.000205893
-0.000199196
-0.000178989
-0.000163053
-0.00015363
-0.000147134
-0.000152219
-0.000164589
-0.000186891
-0.000220177
-0.000252062
-0.000206606
-0.000214299
-0.000215469
-0.000208898
-0.000198419
-0.000189806
-0.000191794
-0.000209875
-0.000231773
-0.000235987
-0.000218712
-0.000186986
-0.000159711
-0.000162084
-0.000187176
-0.000203126
-0.000198343
-0.000178788
-0.000151025
-0.000124296
-9.64827e-05
-7.84362e-05
-7.56185e-05
-7.20008e-05
-6.50922e-05
-5.67375e-05
-5.03841e-05
-5.76775e-05
-7.81737e-05
-9.93311e-05
-0.000108086
-0.000104952
-0.000103997
-0.000109896
-0.0001123
-0.000116622
-0.000127398
-0.000145177
-0.000171695
-0.000194421
-0.000114861
-0.000126104
-0.000131461
-0.000127672
-0.00011921
-0.00011274
-0.000113887
-0.000126415
-0.000145247
-0.000152388
-0.000147109
-0.000132327
-0.000114265
-0.000110661
-0.000121207
-0.000126566
-0.000119494
-0.000103481
-8.17036e-05
-6.33479e-05
-4.47589e-05
-3.073e-05
-2.35542e-05
-1.22892e-05
-1.48324e-06
5.56122e-06
1.10728e-05
6.85295e-06
-4.48369e-06
-2.00394e-05
-2.97883e-05
-3.00529e-05
-3.19478e-05
-4.05618e-05
-4.71979e-05
-5.19716e-05
-5.96291e-05
-7.03316e-05
-8.98795e-05
-0.000106578
-3.29948e-05
-4.1349e-05
-4.7203e-05
-4.60411e-05
-4.2537e-05
-4.18652e-05
-4.48567e-05
-5.34932e-05
-6.84506e-05
-7.49442e-05
-7.38975e-05
-6.96682e-05
-5.663e-05
-4.6976e-05
-4.79332e-05
-4.37538e-05
-3.22728e-05
-2.01016e-05
-8.04206e-06
-3.16187e-07
1.04818e-05
1.93863e-05
2.20811e-05
3.05679e-05
3.64908e-05
3.70021e-05
4.11018e-05
4.13358e-05
3.81143e-05
3.19227e-05
2.5151e-05
2.35412e-05
2.10368e-05
1.21029e-05
5.11357e-06
1.76274e-06
-1.24783e-06
-3.92637e-06
-1.51438e-05
-2.79177e-05
1.7175e-05
1.03182e-05
2.98853e-06
-9.43024e-07
-9.83168e-07
-2.43178e-06
-5.15691e-06
-6.57763e-06
-1.02153e-05
-1.17382e-05
-9.99334e-06
-7.99482e-06
9.55382e-07
1.0672e-05
1.21787e-05
1.57086e-05
2.41316e-05
3.38741e-05
4.04945e-05
4.16307e-05
4.82632e-05
5.56102e-05
5.41571e-05
5.8499e-05
6.28765e-05
6.41661e-05
7.1123e-05
7.79228e-05
8.27294e-05
8.35497e-05
7.80908e-05
7.3845e-05
7.0467e-05
6.35332e-05
5.7761e-05
5.45205e-05
5.16808e-05
4.92799e-05
3.70389e-05