/*--------------------------------*- C++ -*----------------------------------*\
  =========                 |
  \\      /  F ield         | OpenFOAM: The Open Source CFD Toolbox
   \\    /   O peration     | Website:  https://openfoam.org
    \\  /    A nd           | Version:  10
     \\/     M anipulation  |
\*---------------------------------------------------------------------------*/
FoamFile
{
    format      ascii;
    class       volVectorField;
    location    "50";
    object      U_0;
}
// * * * * * * * * * * * * * * * * * * * * * * * * * * * * * * * * * * * * * //

dimensions      [0 1 -1 0 0 0 0];

internalField   nonuniform List<vector> 
102400
(
(0.0295563 -4.80647e-07 -1.2086e-05)
(0.0295841 5.67183e-07 -4.07725e-06)
(0.0295528 -6.54446e-08 -9.5033e-06)
(0.0295866 -2.74833e-08 -1.03793e-05)
(0.0295528 4.40843e-07 -3.30244e-06)
(0.0295832 -2.30472e-07 -1.27094e-05)
(0.0295576 2.61107e-07 -5.65634e-06)
(0.0295816 1.5645e-07 -8.40342e-06)
(0.0295546 7.07221e-08 -8.60656e-06)
(0.0295883 -1.28128e-07 -8.37916e-06)
(0.0295512 6.70383e-07 -6.48513e-06)
(0.0295866 -5.06046e-07 -1.06521e-05)
(0.0295591 4.12744e-07 -5.38913e-06)
(0.0295805 3.62043e-07 -9.83421e-06)
(0.029561 -6.07944e-07 -7.83445e-06)
(0.0295871 8.40076e-07 -6.72822e-06)
(0.0295528 -1.5411e-07 -9.82585e-06)
(0.0295934 -1.65434e-07 -6.64857e-06)
(0.029556 6.62074e-07 -6.99152e-06)
(0.0295848 -1.93348e-07 -1.09105e-05)
(0.0295653 -1.47413e-07 -2.71386e-06)
(0.0295848 7.79915e-07 -1.29911e-05)
(0.0295557 -3.82778e-07 -3.66474e-06)
(0.0295981 -1.08465e-07 -9.98589e-06)
(0.0295505 1.02454e-06 -7.11462e-06)
(0.0295899 -9.43956e-07 -7.18302e-06)
(0.0295676 4.90967e-07 -8.81722e-06)
(0.0295754 8.59432e-07 -6.262e-06)
(0.029568 -1.44608e-06 -9.02722e-06)
(0.0295885 1.61663e-06 -6.63245e-06)
(0.0295493 -4.43419e-07 -8.67459e-06)
(0.0295978 -5.52814e-07 -7.17328e-06)
(0.0295518 1.40422e-06 -7.48919e-06)
(0.0295862 -1.22674e-06 -9.75539e-06)
(0.0295606 9.96171e-07 -4.16168e-06)
(0.0295821 -1.29844e-07 -1.325e-05)
(0.029558 -4.97741e-08 -2.13897e-06)
(0.0295842 4.9564e-07 -1.29054e-05)
(0.0295565 -4.43844e-07 -5.9183e-06)
(0.0295829 7.08302e-07 -6.88784e-06)
(0.0911594 -4.03495e-07 -2.56544e-05)
(0.091242 3.51298e-06 -1.8277e-05)
(0.0911566 7.67785e-07 -2.57297e-05)
(0.0912448 1.60237e-06 -2.55771e-05)
(0.0911534 2.66683e-06 -1.57341e-05)
(0.0912436 6.01699e-07 -3.18546e-05)
(0.091158 2.37871e-06 -1.64069e-05)
(0.0912403 1.80756e-06 -2.65492e-05)
(0.091157 1.54409e-06 -2.15665e-05)
(0.0912495 1.15741e-06 -2.50178e-05)
(0.0911493 3.5318e-06 -1.93089e-05)
(0.0912545 -5.32813e-07 -2.83736e-05)
(0.0911561 3.25217e-06 -1.67934e-05)
(0.0912471 2.08782e-06 -2.81349e-05)
(0.0911653 -3.22712e-07 -1.96471e-05)
(0.0912501 4.33818e-06 -2.32249e-05)
(0.0911597 3.56061e-07 -2.37475e-05)
(0.0912617 1.30606e-06 -2.12371e-05)
(0.0911591 3.55236e-06 -2.11677e-05)
(0.0912566 3.79272e-07 -2.68356e-05)
(0.0911731 1.44315e-06 -1.3804e-05)
(0.0912513 3.80475e-06 -3.19612e-05)
(0.0911683 -2.41027e-07 -1.26952e-05)
(0.0912683 1.72412e-06 -2.92409e-05)
(0.0911548 4.32579e-06 -1.72974e-05)
(0.0912687 -1.84442e-06 -2.44501e-05)
(0.0911706 3.65361e-06 -2.11575e-05)
(0.0912461 3.44998e-06 -2.15373e-05)
(0.0911835 -3.10035e-06 -2.27372e-05)
(0.0912484 7.06932e-06 -2.12711e-05)
(0.0911653 -1.02929e-06 -2.29196e-05)
(0.091263 5.97504e-07 -2.15352e-05)
(0.0911576 5.59963e-06 -2.19917e-05)
(0.0912566 -2.84375e-06 -2.49724e-05)
(0.0911619 5.11757e-06 -1.68612e-05)
(0.0912516 2.01305e-07 -3.15575e-05)
(0.0911579 1.74117e-06 -1.16686e-05)
(0.0912516 2.65154e-06 -3.38148e-05)
(0.0911565 9.56127e-08 -1.49261e-05)
(0.0912455 3.68001e-06 -2.58523e-05)
(0.158001 1.28402e-06 -3.69373e-05)
(0.158146 8.94447e-06 -3.39549e-05)
(0.158002 2.92319e-06 -3.83722e-05)
(0.158144 5.71642e-06 -4.10739e-05)
(0.157997 6.56331e-06 -2.76098e-05)
(0.158145 3.44146e-06 -4.86579e-05)
(0.157998 6.61206e-06 -2.754e-05)
(0.158142 5.28461e-06 -4.32699e-05)
(0.157997 5.05242e-06 -3.33056e-05)
(0.158151 4.41559e-06 -4.13803e-05)
(0.157988 8.54779e-06 -3.10137e-05)
(0.158162 1.01418e-06 -4.50594e-05)
(0.157989 8.72602e-06 -2.79866e-05)
(0.15816 5.25139e-06 -4.51075e-05)
(0.158001 2.19029e-06 -3.08388e-05)
(0.158158 1.00887e-05 -3.9556e-05)
(0.158004 2.32008e-06 -3.56174e-05)
(0.158167 5.22343e-06 -3.67327e-05)
(0.158003 8.36242e-06 -3.33335e-05)
(0.15817 2.6685e-06 -4.23931e-05)
(0.158015 5.36358e-06 -2.51066e-05)
(0.158165 8.79942e-06 -4.84601e-05)
(0.158018 1.52393e-06 -2.28898e-05)
(0.158178 6.05555e-06 -4.6216e-05)
(0.158005 9.44647e-06 -2.73435e-05)
(0.158187 -1.19565e-06 -4.10208e-05)
(0.158012 9.54869e-06 -3.18249e-05)
(0.15817 7.36894e-06 -3.72044e-05)
(0.158031 -2.94299e-06 -3.41263e-05)
(0.158159 1.52972e-05 -3.63958e-05)
(0.158026 -9.52166e-07 -3.47536e-05)
(0.158166 4.80685e-06 -3.63143e-05)
(0.158015 1.14127e-05 -3.42642e-05)
(0.158167 -2.98173e-06 -3.976e-05)
(0.158007 1.19808e-05 -2.88235e-05)
(0.15817 1.48592e-06 -4.7463e-05)
(0.157996 6.26402e-06 -2.23803e-05)
(0.15817 6.21241e-06 -5.11708e-05)
(0.157994 2.83688e-06 -2.48766e-05)
(0.158158 8.65024e-06 -4.31455e-05)
(0.229965 5.2003e-06 -4.74852e-05)
(0.23018 1.66714e-05 -4.77752e-05)
(0.229972 7.23942e-06 -4.91328e-05)
(0.230169 1.21789e-05 -5.56996e-05)
(0.229967 1.25998e-05 -3.72265e-05)
(0.230169 8.59774e-06 -6.43001e-05)
(0.229962 1.3072e-05 -3.73266e-05)
(0.230168 1.10375e-05 -5.81374e-05)
(0.22996 1.07949e-05 -4.38772e-05)
(0.230175 9.92893e-06 -5.6274e-05)
(0.229948 1.59088e-05 -4.1322e-05)
(0.230191 4.70057e-06 -6.05276e-05)
(0.22994 1.67023e-05 -3.79246e-05)
(0.230196 1.04999e-05 -6.06875e-05)
(0.229952 7.05893e-06 -4.12203e-05)
(0.230189 1.81607e-05 -5.44458e-05)
(0.229966 6.49696e-06 -4.64569e-05)
(0.230193 1.14861e-05 -5.13569e-05)
(0.229966 1.54462e-05 -4.38994e-05)
(0.230204 7.14069e-06 -5.7463e-05)
(0.229974 1.1627e-05 -3.48293e-05)
(0.230202 1.60604e-05 -6.40571e-05)
(0.229984 5.47118e-06 -3.21898e-05)
(0.230211 1.27616e-05 -6.15344e-05)
(0.229977 1.68e-05 -3.6845e-05)
(0.230227 1.63667e-06 -5.58326e-05)
(0.229976 1.7904e-05 -4.16541e-05)
(0.230219 1.34114e-05 -5.14205e-05)
(0.229998 -5.37951e-07 -4.41281e-05)
(0.230198 2.60583e-05 -5.03407e-05)
(0.23001 1.00565e-06 -4.47757e-05)
(0.230194 1.13901e-05 -5.00866e-05)
(0.230001 1.94033e-05 -4.4407e-05)
(0.230203 -1.00352e-06 -5.36254e-05)
(0.22998 2.12902e-05 -3.85095e-05)
(0.230216 4.85599e-06 -6.22391e-05)
(0.22996 1.31407e-05 -3.13426e-05)
(0.230219 1.18899e-05 -6.65805e-05)
(0.229955 7.85947e-06 -3.4061e-05)
(0.230202 1.58223e-05 -5.77427e-05)
(0.306695 1.15877e-05 -5.63697e-05)
(0.306979 2.68931e-05 -5.85554e-05)
(0.306709 1.39349e-05 -5.844e-05)
(0.306958 2.1218e-05 -6.79208e-05)
(0.306703 2.09644e-05 -4.41851e-05)
(0.306956 1.63356e-05 -7.8296e-05)
(0.306692 2.19577e-05 -4.47382e-05)
(0.306953 1.92888e-05 -7.06573e-05)
(0.306686 1.89986e-05 -5.26328e-05)
(0.306957 1.79321e-05 -6.8692e-05)
(0.306669 2.58067e-05 -4.96814e-05)
(0.306978 1.07089e-05 -7.40534e-05)
(0.30665 2.7398e-05 -4.57441e-05)
(0.306989 1.79895e-05 -7.42461e-05)
(0.306658 1.45754e-05 -5.0077e-05)
(0.306976 2.87146e-05 -6.71743e-05)
(0.306682 1.30637e-05 -5.58925e-05)
(0.306974 2.03571e-05 -6.40712e-05)
(0.306684 2.49882e-05 -5.28844e-05)
(0.306991 1.4022e-05 -7.10973e-05)
(0.306687 2.04851e-05 -4.25298e-05)
(0.306994 2.57828e-05 -7.85188e-05)
(0.306705 1.17803e-05 -3.97033e-05)
(0.306997 2.21202e-05 -7.52882e-05)
(0.306704 2.653e-05 -4.48942e-05)
(0.307023 6.92349e-06 -6.87833e-05)
(0.306695 2.89561e-05 -5.03347e-05)
(0.307027 2.17304e-05 -6.34327e-05)
(0.306721 4.48923e-06 -5.29647e-05)
(0.306996 3.94917e-05 -6.21996e-05)
(0.306755 5.10359e-06 -5.31359e-05)
(0.306981 2.07582e-05 -6.17906e-05)
(0.306751 2.97031e-05 -5.27084e-05)
(0.306999 3.44504e-06 -6.55339e-05)
(0.306719 3.3256e-05 -4.57193e-05)
(0.307024 1.04702e-05 -7.54059e-05)
(0.306689 2.2648e-05 -3.75853e-05)
(0.307033 1.99098e-05 -8.00419e-05)
(0.30668 1.54204e-05 -4.11201e-05)
(0.307014 2.54132e-05 -6.97353e-05)
(0.387511 2.06959e-05 -6.27093e-05)
(0.387859 3.96866e-05 -6.49896e-05)
(0.387536 2.33235e-05 -6.63169e-05)
(0.387827 3.3003e-05 -7.69685e-05)
(0.387531 3.17832e-05 -4.7487e-05)
(0.387822 2.69335e-05 -9.01185e-05)
(0.387514 3.33818e-05 -4.91565e-05)
(0.387818 3.02295e-05 -7.96938e-05)
(0.387502 2.98628e-05 -5.92981e-05)
(0.387817 2.85937e-05 -7.75166e-05)
(0.38748 3.83665e-05 -5.51962e-05)
(0.387842 1.93066e-05 -8.48706e-05)
(0.387444 4.09512e-05 -5.059e-05)
(0.387862 2.78509e-05 -8.47059e-05)
(0.387444 2.49967e-05 -5.64181e-05)
(0.387841 4.18572e-05 -7.7054e-05)
(0.387478 2.22109e-05 -6.28352e-05)
(0.387826 3.20562e-05 -7.39647e-05)
(0.387482 3.71139e-05 -5.96549e-05)
(0.387848 2.3513e-05 -8.23016e-05)
(0.387475 3.21514e-05 -4.7703e-05)
(0.387857 3.80499e-05 -9.07453e-05)
(0.387499 2.0728e-05 -4.50034e-05)
(0.387853 3.43363e-05 -8.69219e-05)
(0.387505 3.87204e-05 -5.06007e-05)
(0.387887 1.48941e-05 -7.93881e-05)
(0.387488 4.28741e-05 -5.75739e-05)
(0.387906 3.2428e-05 -7.23696e-05)
(0.387517 1.22771e-05 -6.03631e-05)
(0.387866 5.56908e-05 -7.16617e-05)
(0.387577 1.15814e-05 -5.9542e-05)
(0.387837 3.31338e-05 -7.07735e-05)
(0.387582 4.25161e-05 -5.92148e-05)
(0.387866 1.05007e-05 -7.4758e-05)
(0.38754 4.80296e-05 -5.05057e-05)
(0.387909 1.85241e-05 -8.58853e-05)
(0.3875 3.50124e-05 -4.13284e-05)
(0.387929 3.04404e-05 -9.0755e-05)
(0.387489 2.57099e-05 -4.49351e-05)
(0.387907 3.76282e-05 -7.94432e-05)
(0.47135 3.27757e-05 -6.77023e-05)
(0.471742 5.48094e-05 -6.434e-05)
(0.47139 3.57268e-05 -7.26247e-05)
(0.4717 4.76008e-05 -8.33626e-05)
(0.47139 4.50226e-05 -4.54301e-05)
(0.471695 4.05844e-05 -9.91029e-05)
(0.471365 4.74147e-05 -5.09633e-05)
(0.471693 4.38743e-05 -8.33206e-05)
(0.471351 4.35162e-05 -6.39127e-05)
(0.471686 4.20542e-05 -8.22383e-05)
(0.471322 5.35142e-05 -5.66377e-05)
(0.471717 3.07031e-05 -9.23555e-05)
(0.471262 5.73829e-05 -5.16893e-05)
(0.471751 4.01614e-05 -9.14904e-05)
(0.47125 3.83843e-05 -5.84286e-05)
(0.471719 5.76775e-05 -8.38228e-05)
(0.471297 3.40035e-05 -6.61444e-05)
(0.471681 4.66236e-05 -7.95033e-05)
(0.471305 5.18934e-05 -6.38004e-05)
(0.471708 3.56522e-05 -8.92702e-05)
(0.47128 4.68173e-05 -5.02821e-05)
(0.471725 5.27173e-05 -9.90234e-05)
(0.471303 3.24862e-05 -4.69166e-05)
(0.471713 4.95243e-05 -9.62456e-05)
(0.471314 5.32579e-05 -5.27233e-05)
(0.471752 2.57972e-05 -8.60622e-05)
(0.471285 5.96363e-05 -6.35836e-05)
(0.471785 4.55621e-05 -7.70064e-05)
(0.471319 2.30332e-05 -6.49634e-05)
(0.471729 7.45945e-05 -7.87411e-05)
(0.471411 2.06316e-05 -6.32303e-05)
(0.471684 4.85472e-05 -7.61483e-05)
(0.471428 5.78207e-05 -6.40822e-05)
(0.471725 2.03486e-05 -7.97165e-05)
(0.471374 6.57213e-05 -5.4346e-05)
(0.471792 2.89728e-05 -9.14227e-05)
(0.471323 5.03666e-05 -4.25545e-05)
(0.471827 4.37682e-05 -0.000100186)
(0.471312 3.84715e-05 -4.2338e-05)
(0.471803 5.27201e-05 -8.72496e-05)
(0.556704 4.84286e-05 -7.67542e-05)
(0.557102 7.1627e-05 -5.3925e-05)
(0.556764 5.11313e-05 -7.47726e-05)
(0.557055 6.49792e-05 -8.88555e-05)
(0.556769 6.04995e-05 -3.74927e-05)
(0.557057 5.70919e-05 -0.000102363)
(0.556738 6.40298e-05 -5.19383e-05)
(0.557059 6.01283e-05 -8.01276e-05)
(0.556728 5.97318e-05 -6.4955e-05)
(0.557048 5.83464e-05 -8.39008e-05)
(0.556691 7.10424e-05 -5.25185e-05)
(0.557099 4.49789e-05 -9.66852e-05)
(0.556598 7.62347e-05 -4.71004e-05)
(0.557156 5.53037e-05 -9.62397e-05)
(0.556574 5.43685e-05 -5.40622e-05)
(0.5571 7.59469e-05 -8.6276e-05)
(0.556654 4.87736e-05 -6.72709e-05)
(0.557024 6.35958e-05 -7.71491e-05)
(0.556664 6.94661e-05 -6.71807e-05)
(0.557069 5.0092e-05 -8.86048e-05)
(0.556598 6.46771e-05 -5.04054e-05)
(0.557107 6.95802e-05 -0.000103816)
(0.556612 4.67567e-05 -4.14766e-05)
(0.557079 6.79057e-05 -0.000103846)
(0.556634 6.97193e-05 -5.14407e-05)
(0.557113 3.97164e-05 -8.52741e-05)
(0.556593 7.90284e-05 -6.81394e-05)
(0.557153 6.09572e-05 -7.80326e-05)
(0.556635 3.68105e-05 -6.31439e-05)
(0.55707 9.58418e-05 -8.33455e-05)
(0.55676 3.21089e-05 -6.41781e-05)
(0.557004 6.69133e-05 -7.40692e-05)
(0.556784 7.56849e-05 -7.0923e-05)
(0.55706 3.221e-05 -7.40769e-05)
(0.556714 8.6878e-05 -6.01028e-05)
(0.557154 4.16492e-05 -9.30856e-05)
(0.556648 6.77028e-05 -3.32373e-05)
(0.557204 6.0929e-05 -0.000115848)
(0.556645 5.29397e-05 -3.02727e-05)
(0.557175 7.02367e-05 -8.82253e-05)
(0.641618 6.81321e-05 -9.41779e-05)
(0.641965 8.91998e-05 -3.56575e-05)
(0.641691 6.92323e-05 -6.79984e-05)
(0.64192 8.4452e-05 -9.18913e-05)
(0.641698 7.77865e-05 -2.61664e-05)
(0.641935 7.61511e-05 -9.64008e-05)
(0.641667 8.24822e-05 -5.00975e-05)
(0.64194 7.85838e-05 -7.26662e-05)
(0.641667 7.80444e-05 -5.74666e-05)
(0.641934 7.7299e-05 -8.46238e-05)
(0.641611 8.95651e-05 -3.94135e-05)
(0.642028 6.31382e-05 -0.000100356)
(0.641474 9.59237e-05 -3.35025e-05)
(0.642108 7.3024e-05 -9.82023e-05)
(0.641473 7.35658e-05 -4.73213e-05)
(0.641991 9.47594e-05 -7.71907e-05)
(0.641616 6.75966e-05 -7.31106e-05)
(0.641885 8.16882e-05 -6.03397e-05)
(0.641591 9.00866e-05 -7.38216e-05)
(0.642001 6.65677e-05 -8.04264e-05)
(0.641447 8.46035e-05 -4.14062e-05)
(0.642072 8.9583e-05 -0.000113388)
(0.64147 6.23709e-05 -2.42035e-05)
(0.641995 8.93368e-05 -0.000106486)
(0.641531 8.81216e-05 -5.15702e-05)
(0.642001 5.62083e-05 -7.55326e-05)
(0.641487 0.000100433 -6.57579e-05)
(0.642037 7.87916e-05 -8.10447e-05)
(0.641538 5.29734e-05 -5.28361e-05)
(0.641925 0.000118868 -7.91264e-05)
(0.641684 4.67642e-05 -7.28873e-05)
(0.641845 8.57914e-05 -4.97023e-05)
(0.641701 9.7768e-05 -8.95872e-05)
(0.641918 4.50108e-05 -5.61078e-05)
(0.641608 0.000109594 -5.33721e-05)
(0.642032 5.90303e-05 -0.000111709)
(0.641533 8.40046e-05 4.53161e-06)
(0.642085 8.2152e-05 -0.000137879)
(0.64154 6.9624e-05 -2.04094e-05)
(0.642046 8.8197e-05 -6.71889e-05)
(0.723735 9.22071e-05 -0.000114688)
(0.723992 0.000106237 -1.5177e-05)
(0.723809 8.88375e-05 -4.87952e-05)
(0.72395 0.00010572 -9.15392e-05)
(0.723816 9.50984e-05 -7.18666e-06)
(0.723969 9.72817e-05 -8.59843e-05)
(0.723793 0.000101397 -3.5839e-05)
(0.723972 9.91084e-05 -6.61443e-05)
(0.723791 9.56088e-05 -3.40831e-05)
(0.723996 0.00010005 -8.57204e-05)
(0.723692 0.000106413 -1.49126e-05)
(0.724144 8.42359e-05 -9.71149e-05)
(0.723541 0.000117074 -1.83854e-05)
(0.724191 8.93921e-05 -8.3006e-05)
(0.723627 9.84878e-05 -4.94156e-05)
(0.723991 0.000109909 -4.3709e-05)
(0.7238 9.15777e-05 -9.14171e-05)
(0.723954 0.000100214 -2.58945e-05)
(0.723644 0.000110038 -7.37685e-05)
(0.7242 8.86589e-05 -8.38664e-05)
(0.72344 0.000102466 -4.72235e-06)
(0.724236 0.000112584 -0.000132843)
(0.723568 8.03957e-05 -3.94855e-06)
(0.724039 0.00011153 -9.46401e-05)
(0.723709 0.000107537 -5.26111e-05)
(0.724015 7.66817e-05 -6.86954e-05)
(0.723652 0.000121892 -4.8463e-05)
(0.72407 9.74292e-05 -7.99703e-05)
(0.723681 7.4887e-05 -5.89245e-05)
(0.723964 0.000138043 -3.5003e-05)
(0.723821 6.8083e-05 -0.000114268)
(0.723879 0.000104184 -1.49121e-06)
(0.723835 0.000120108 -9.47373e-05)
(0.723947 6.39881e-05 -7.12383e-05)
(0.723734 0.000128004 7.93635e-06)
(0.724063 8.2867e-05 -0.000163733)
(0.723653 9.96549e-05 5.48738e-05)
(0.724115 0.000103989 -0.000132472)
(0.723658 9.05934e-05 -4.02793e-05)
(0.724074 0.000103756 -1.40407e-05)
(0.800453 0.000118049 -0.000118141)
(0.800618 0.000124098 -1.45497e-05)
(0.800525 0.000106928 -3.72625e-06)
(0.800567 0.000129567 -0.000100726)
(0.800535 0.000109716 2.74444e-05)
(0.800575 0.000121129 -7.85578e-05)
(0.800513 0.000117251 -4.80421e-06)
(0.800585 0.000121502 -5.88525e-05)
(0.800484 0.000111493 -3.22684e-06)
(0.800648 0.000123073 -6.75787e-05)
(0.800352 0.000122824 2.37155e-06)
(0.800794 0.000103011 -6.66655e-05)
(0.800259 0.000142253 -1.14059e-05)
(0.800751 9.7402e-05 -3.64182e-05)
(0.800412 0.000131366 -6.7981e-05)
(0.800576 0.000119912 2.37452e-05)
(0.800457 0.000112126 -0.000107095)
(0.800727 0.000127755 -3.25406e-06)
(0.800162 0.000118564 -2.24366e-05)
(0.800996 0.000117111 -0.000120589)
(0.800082 0.000120611 5.78513e-05)
(0.80083 0.000130642 -0.000137794)
(0.800415 0.000102445 6.92832e-06)
(0.800513 0.000133794 -7.26996e-05)
(0.800578 0.000125239 -4.20223e-05)
(0.800554 9.74351e-05 -5.58926e-05)
(0.800424 0.00014873 -5.70348e-05)
(0.800707 0.000108552 -1.86687e-05)
(0.800391 0.000104771 -0.00012192)
(0.800621 0.000155648 4.14202e-05)
(0.800555 8.70993e-05 -0.000133803)
(0.800487 0.000130474 -1.55195e-05)
(0.800621 0.000135329 -1.48517e-05)
(0.800522 9.03636e-05 -0.000152618)
(0.800522 0.00014389 9.76492e-05)
(0.800656 0.00010733 -0.00019146)
(0.800406 0.000119188 5.15226e-05)
(0.800735 0.000121518 -6.31773e-05)
(0.800386 0.000117638 -9.94603e-05)
(0.800701 0.00011622 5.2941e-05)
(0.869182 0.000141058 -6.71756e-05)
(0.869277 0.000144868 -5.84295e-05)
(0.869273 0.000121018 5.93125e-05)
(0.869204 0.000155446 -0.000116443)
(0.869292 0.000121719 5.72407e-05)
(0.869199 0.000144047 -6.20479e-05)
(0.86926 0.00013427 7.76449e-06)
(0.869222 0.00013998 -2.19837e-05)
(0.869198 0.000127059 2.25068e-07)
(0.869296 0.000143573 -2.21169e-05)
(0.869076 0.000139666 1.16106e-05)
(0.869385 0.00011396 -1.41054e-05)
(0.869036 0.000173743 -2.08544e-05)
(0.869332 9.66664e-05 4.99119e-05)
(0.869098 0.000158924 -9.01237e-05)
(0.869312 0.000140124 8.03779e-05)
(0.868982 0.000112433 -4.90285e-05)
(0.869515 0.000165378 -4.00755e-05)
(0.868785 0.000121899 9.09813e-05)
(0.869549 0.000133711 -0.000150952)
(0.868977 0.000148836 0.000110204)
(0.869177 0.000136542 -0.000100065)
(0.869377 0.000125025 8.56991e-06)
(0.86894 0.000153181 -1.51484e-05)
(0.86937 0.000141142 -6.52424e-05)
(0.86918 0.000113215 3.19206e-05)
(0.869071 0.000176139 -0.000117613)
(0.869403 0.000118234 6.91927e-05)
(0.869068 0.000128369 -0.00013558)
(0.869229 0.000178332 2.63667e-05)
(0.869356 9.91842e-05 -3.79229e-05)
(0.869007 0.000159524 -0.000112619)
(0.869471 0.000148438 9.86534e-05)
(0.869066 0.000114883 -0.000204069)
(0.869319 0.00016173 0.000111393)
(0.869279 0.000127809 -0.000126462)
(0.869144 0.000142575 -2.88647e-05)
(0.869407 0.000135263 3.86968e-05)
(0.869105 0.000144932 -0.000144506)
(0.86938 0.00012956 6.76181e-05)
(0.927715 0.000161401 1.169e-05)
(0.927717 0.000161135 -0.000100982)
(0.927851 0.00013522 8.78994e-05)
(0.927633 0.000176247 -9.60882e-05)
(0.927878 0.000135737 3.10593e-05)
(0.927646 0.000161728 -1.38678e-05)
(0.927819 0.000149021 -1.93708e-05)
(0.927692 0.000157866 1.93431e-05)
(0.927738 0.000139968 -6.78154e-06)
(0.92775 0.000160324 1.45946e-05)
(0.927638 0.000158177 -1.90359e-06)
(0.927819 0.000118323 5.71186e-05)
(0.927565 0.000198903 -4.23254e-05)
(0.927834 0.000105361 0.000107274)
(0.927535 0.000166835 -4.10785e-05)
(0.927848 0.000168865 4.73748e-05)
(0.927476 0.000106485 8.55807e-05)
(0.927865 0.000187221 -8.68333e-05)
(0.9275 0.000139157 0.000181885)
(0.927683 0.000128791 -0.000109619)
(0.927762 0.000180116 0.000108879)
(0.927373 0.000136812 1.03504e-05)
(0.927952 0.000135648 -2.4755e-05)
(0.927368 0.000174802 0.000106688)
(0.927742 0.000144788 -9.84529e-05)
(0.927688 0.000127768 0.000118749)
(0.927479 0.000194176 -9.15329e-05)
(0.927786 0.000122887 6.62115e-05)
(0.927631 0.000147896 -2.07202e-05)
(0.92749 0.000193806 -5.38082e-05)
(0.927976 0.000108428 8.50899e-05)
(0.927291 0.000181594 -0.000155642)
(0.928023 0.000157997 0.000132211)
(0.927456 0.000135423 -0.000142886)
(0.927785 0.000175849 4.27097e-05)
(0.927749 0.000145654 -1.8338e-05)
(0.927588 0.000159998 -9.04277e-05)
(0.927894 0.000148797 7.97346e-05)
(0.927582 0.000167388 -0.000107413)
(0.927846 0.000141272 1.50185e-05)
(0.974581 0.000184546 4.64861e-05)
(0.974435 0.000169746 -8.20028e-05)
(0.97474 0.000143797 6.22322e-05)
(0.974401 0.000188243 -2.5114e-05)
(0.97475 0.000138018 -2.28471e-06)
(0.974468 0.00018208 2.01517e-05)
(0.974695 0.000158639 -4.76645e-05)
(0.974537 0.000170436 3.64305e-05)
(0.974627 0.000145084 -1.87903e-05)
(0.974575 0.00017064 4.72952e-05)
(0.974536 0.000171917 -3.24803e-05)
(0.974644 0.000130414 6.4587e-05)
(0.974466 0.000209516 -1.68584e-05)
(0.974654 0.00011201 7.34974e-05)
(0.974465 0.00017052 6.18073e-05)
(0.974591 0.000186224 -1.87595e-05)
(0.974524 0.000116116 0.000156066)
(0.974507 0.000188024 -6.56968e-05)
(0.974605 0.000155836 0.000184029)
(0.97434 0.000118326 7.34888e-06)
(0.974715 0.000198086 5.4818e-05)
(0.974204 0.000148198 0.000124995)
(0.974712 0.000127092 -4.10944e-05)
(0.974272 0.000191691 0.000191403)
(0.97449 0.000139814 -3.59239e-05)
(0.974455 0.000132644 0.00011935)
(0.974365 0.000214437 2.3656e-05)
(0.974422 0.000112629 2.89777e-05)
(0.974556 0.000157829 0.000118605)
(0.974142 0.000197314 -5.45885e-05)
(0.974805 0.000110724 0.000138098)
(0.974045 0.000201259 -9.75612e-05)
(0.974757 0.000153971 0.000104552)
(0.974267 0.000148221 -2.67057e-05)
(0.974481 0.000175851 1.01768e-05)
(0.974553 0.000161347 4.19522e-05)
(0.974327 0.000173717 -7.58923e-05)
(0.974658 0.000151709 6.333e-05)
(0.974391 0.000184355 -2.61566e-05)
(0.974558 0.000138406 -9.55421e-06)
(1.00934 0.00018246 7.84618e-05)
(1.00909 0.000174555 -2.87627e-05)
(1.00948 0.000150287 1.39975e-05)
(1.00914 0.000205396 2.27136e-05)
(1.00949 0.000117512 2.80552e-05)
(1.00922 0.000180012 8.29087e-05)
(1.00946 0.000157303 -4.74772e-05)
(1.00932 0.000188441 1.50327e-05)
(1.00947 0.000147942 -2.99209e-05)
(1.00936 0.000165675 6.79455e-05)
(1.00939 0.000160787 1.22154e-05)
(1.00938 0.000133222 1.22834e-05)
(1.00936 0.000229732 -1.12395e-05)
(1.0094 0.000114202 3.79337e-08)
(1.0094 0.000167366 0.000121177)
(1.00929 0.000173588 6.08913e-07)
(1.00946 0.000124493 0.000124035)
(1.00925 0.000197547 -4.01717e-05)
(1.00954 0.000168245 0.000113482)
(1.0092 0.000105041 0.000116907)
(1.00953 0.000184185 5.24709e-05)
(1.00912 0.000159788 0.000157387)
(1.0095 0.000125075 -3.88236e-05)
(1.00916 0.000204782 0.000167812)
(1.00935 0.000128174 8.10859e-05)
(1.0092 0.000109007 0.000119601)
(1.00924 0.000231723 0.000110809)
(1.00915 0.000108242 1.02406e-06)
(1.00938 0.000165968 0.000167752)
(1.00895 0.000187015 4.19664e-05)
(1.00949 8.44403e-05 0.000182612)
(1.00888 0.000214836 -2.32554e-06)
(1.00943 0.000149159 6.67221e-05)
(1.00909 0.000161256 4.13509e-05)
(1.00918 0.000157747 5.90384e-05)
(1.00927 0.000147043 0.000106625)
(1.00907 0.000183881 -2.92025e-05)
(1.00932 0.000149882 3.56176e-05)
(1.00919 0.000206628 5.78231e-06)
(1.0092 0.000115423 4.27775e-05)
(1.03291 0.000164888 0.000136427)
(1.03262 0.000148411 8.81137e-05)
(1.03294 0.00012386 1.22083e-05)
(1.03268 0.000233119 -2.30081e-05)
(1.03299 0.000114578 1.75543e-05)
(1.03277 0.000167809 0.00016683)
(1.03295 0.00011929 7.37486e-05)
(1.03282 0.000174755 2.2551e-05)
(1.03302 0.000157937 -7.19334e-05)
(1.03292 0.000173943 2.27737e-05)
(1.03302 0.000143745 0.000101204)
(1.0329 9.23669e-05 7.39465e-05)
(1.03296 0.000222172 -3.6138e-06)
(1.03293 0.000119655 -9.4949e-05)
(1.03305 0.000182859 5.44001e-05)
(1.03288 0.000153202 7.21232e-05)
(1.03304 9.1314e-05 0.000153297)
(1.03282 0.000184481 -1.99927e-05)
(1.0331 0.000181524 -9.2039e-06)
(1.0329 0.000117467 9.20687e-05)
(1.03314 0.000159015 0.000108626)
(1.03282 0.00013446 0.000207651)
(1.03309 0.000103063 -1.02772e-05)
(1.03284 0.000216668 4.89136e-05)
(1.03304 0.00014332 8.37046e-05)
(1.03287 7.46851e-05 0.000158479)
(1.03289 0.000212257 0.000201494)
(1.03278 8.43703e-05 1.06489e-05)
(1.03294 0.000178097 8.19907e-05)
(1.03268 0.000202892 6.02071e-05)
(1.03304 4.90264e-05 0.00023922)
(1.03255 0.000193417 0.000144529)
(1.03295 0.000118329 8.04176e-05)
(1.03271 0.000176493 1.30242e-05)
(1.03281 0.000163672 4.89392e-05)
(1.03283 0.000117429 0.000194533)
(1.03265 0.000159882 8.91307e-05)
(1.0328 0.000117168 5.96383e-05)
(1.03278 0.000230817 -4.49957e-05)
(1.03274 0.000114077 4.10036e-05)
(1.0472 0.000162249 8.93205e-05)
(1.04696 0.000136141 0.000184517)
(1.04715 6.72361e-05 0.000135084)
(1.04694 0.000216508 -2.81634e-05)
(1.04718 0.000107111 -8.32353e-05)
(1.04706 0.000176283 0.00011336)
(1.04717 9.68323e-05 0.000194333)
(1.04704 0.00013024 0.000155979)
(1.04719 0.000130093 -4.64625e-05)
(1.04713 0.000168358 -7.88226e-05)
(1.04728 0.000150975 6.29267e-05)
(1.04718 6.27252e-05 0.000177947)
(1.0472 0.000181671 0.000125002)
(1.04714 8.45433e-05 -8.67475e-05)
(1.04727 0.000183176 -8.21988e-05)
(1.04718 0.000157745 1.81004e-05)
(1.04729 6.63258e-05 0.000215945)
(1.04711 0.000141842 9.7602e-05)
(1.04725 0.000150691 -4.30169e-05)
(1.04718 0.000121986 -4.37798e-05)
(1.04737 0.000156814 5.37139e-05)
(1.04718 0.000115353 0.0002596)
(1.04733 5.7445e-05 0.000111099)
(1.04714 0.000182315 6.98866e-06)
(1.04732 0.000151767 -3.89945e-05)
(1.04724 6.42115e-05 9.17094e-05)
(1.04723 0.000197547 0.000264418)
(1.04715 3.77751e-05 0.000125085)
(1.04718 0.000145743 3.22556e-05)
(1.04706 0.000213594 -5.15051e-05)
(1.04732 4.02584e-05 0.000158094)
(1.04695 0.000183272 0.000243743)
(1.04723 6.50873e-05 0.000199319)
(1.047 0.000148233 2.78315e-05)
(1.04713 0.000164844 -5.79104e-05)
(1.04716 0.00010931 0.000147155)
(1.04701 0.000148257 0.000189836)
(1.04707 5.84827e-05 0.000192532)
(1.04703 0.000208326 -3.37638e-05)
(1.04703 0.000108441 -5.29324e-05)
(1.05469 0.000137579 -1.05331e-05)
(1.05456 0.000133371 0.00013906)
(1.05467 2.74779e-05 0.000218037)
(1.05452 0.000184453 6.8433e-05)
(1.05464 7.16947e-05 -0.000104767)
(1.0546 0.000162457 -7.58653e-06)
(1.05466 8.8156e-05 0.000151808)
(1.05458 0.000100936 0.000243388)
(1.05465 9.6348e-05 6.55409e-05)
(1.05459 0.000132864 -8.39062e-05)
(1.05473 0.000138947 -4.04039e-05)
(1.05469 4.72606e-05 0.000146553)
(1.05469 0.000153968 0.000220412)
(1.05463 4.45082e-05 3.45899e-05)
(1.0547 0.000149442 -9.54641e-05)
(1.05467 0.000143177 -8.98384e-05)
(1.05475 5.33419e-05 0.00016348)
(1.05466 0.000112917 0.000183839)
(1.05467 0.000109149 4.6699e-05)
(1.05466 9.58213e-05 -8.28501e-05)
(1.05478 0.000137636 -6.19736e-05)
(1.0547 0.000104694 0.000194173)
(1.0548 2.93653e-05 0.000187469)
(1.05465 0.000135517 8.46209e-05)
(1.05476 0.000129504 -7.85385e-05)
(1.05476 3.92381e-05 -3.13119e-05)
(1.05473 0.000187317 0.000196139)
(1.05474 9.70975e-06 0.000200537)
(1.05468 0.000100391 9.63352e-05)
(1.05462 0.000192517 -9.19592e-05)
(1.05481 1.65401e-05 1.39341e-05)
(1.05455 0.000180805 0.000177234)
(1.05477 3.30117e-05 0.000256628)
(1.05455 0.00010969 0.000121889)
(1.05465 0.000138153 -8.56538e-05)
(1.05471 8.38679e-05 2.79752e-05)
(1.05459 0.000145833 0.000139247)
(1.05465 1.97428e-05 0.000265198)
(1.05456 0.000172664 7.21084e-05)
(1.05457 7.67519e-05 -7.4193e-05)
(1.05801 9.77655e-05 -3.3462e-05)
(1.05793 0.000122165 5.82731e-05)
(1.05802 -9.04338e-07 0.000177175)
(1.05793 0.000155684 0.000122077)
(1.05796 3.24636e-05 -4.91433e-05)
(1.05797 0.000130464 -4.14012e-05)
(1.05798 7.33769e-05 6.22233e-05)
(1.05795 7.81506e-05 0.000200031)
(1.05799 7.21898e-05 0.00011474)
(1.05792 9.38041e-05 -1.95107e-05)
(1.05801 0.00011096 -6.37694e-05)
(1.058 3.06009e-05 6.85801e-05)
(1.058 0.000131326 0.000189316)
(1.05798 1.71289e-05 9.68193e-05)
(1.058 0.00011075 -2.08825e-05)
(1.05798 0.000112594 -0.000105033)
(1.05802 3.79332e-05 8.21777e-05)
(1.05802 9.08647e-05 0.000154772)
(1.05797 7.63757e-05 9.91459e-05)
(1.05799 6.45308e-05 -2.84894e-05)
(1.05803 0.000104199 -9.2383e-05)
(1.05799 8.94531e-05 0.000101611)
(1.05809 1.16232e-05 0.000149421)
(1.05798 9.68113e-05 0.000123002)
(1.05802 0.000101924 -2.92247e-05)
(1.05807 3.55165e-06 -6.89308e-05)
(1.058 0.000168672 9.92292e-05)
(1.05808 -7.82251e-06 0.000159865)
(1.058 6.24125e-05 0.000130763)
(1.05796 0.000163327 -4.67229e-05)
(1.0581 -1.99821e-05 -3.52677e-05)
(1.0579 0.000169212 7.52885e-05)
(1.0581 1.12233e-05 0.00019093)
(1.05792 7.84182e-05 0.000155161)
(1.05799 0.000107783 -4.18497e-05)
(1.05805 4.45682e-05 -1.09941e-05)
(1.05793 0.000135874 5.02826e-05)
(1.05804 -7.29242e-06 0.000208567)
(1.05793 0.00014187 0.000123204)
(1.05794 4.31576e-05 -2.94096e-05)
(1.05922 5.72007e-05 -6.74235e-06)
(1.05915 0.000104616 2.1392e-05)
(1.05922 -2.27937e-05 9.85037e-05)
(1.05918 0.000132626 0.000105466)
(1.05917 3.34799e-06 -7.10151e-06)
(1.0592 9.47357e-05 -1.52183e-05)
(1.05918 5.34828e-05 1.85543e-05)
(1.05917 5.60724e-05 0.000119338)
(1.05921 5.61039e-05 8.73681e-05)
(1.05915 6.34712e-05 2.37455e-05)
(1.05919 7.91278e-05 -3.44984e-05)
(1.0592 1.4426e-05 2.89526e-05)
(1.05919 0.000108015 0.000116557)
(1.05919 2.02311e-06 7.5892e-05)
(1.0592 8.14345e-05 3.24635e-05)
(1.05918 7.80072e-05 -6.51621e-05)
(1.0592 2.25137e-05 4.53026e-05)
(1.05923 7.05256e-05 8.82421e-05)
(1.05916 5.3749e-05 8.0153e-05)
(1.05921 4.18086e-05 1.82389e-05)
(1.05921 6.80838e-05 -6.27971e-05)
(1.05916 7.21098e-05 5.43604e-05)
(1.05926 -7.67623e-07 8.05913e-05)
(1.05918 6.88619e-05 9.28107e-05)
(1.05919 8.13937e-05 1.42694e-05)
(1.05926 -2.97949e-05 -4.71276e-05)
(1.05915 0.000145784 5.08265e-05)
(1.05926 -2.04111e-05 8.5801e-05)
(1.0592 3.54604e-05 0.000103035)
(1.05916 0.000139152 -6.41197e-06)
(1.05928 -5.55093e-05 -1.71964e-05)
(1.05911 0.000151017 2.72653e-05)
(1.05929 -7.28827e-06 9.94816e-05)
(1.05915 5.60882e-05 0.000120586)
(1.05919 8.52516e-05 -1.19609e-05)
(1.05925 4.5821e-06 7.96708e-06)
(1.05912 0.000121149 9.04803e-06)
(1.05926 -2.94767e-05 0.000118508)
(1.05915 0.000118042 0.000102967)
(1.05917 1.9606e-05 -4.11312e-07)
(1.05958 2.61656e-05 1.73974e-05)
(1.05949 8.96006e-05 1.60664e-05)
(1.05957 -3.8545e-05 4.03284e-05)
(1.05954 0.00011072 7.08649e-05)
(1.05951 -1.4547e-05 2.99639e-06)
(1.05957 6.59805e-05 1.02818e-05)
(1.05952 3.84725e-05 9.54623e-06)
(1.05952 3.53522e-05 6.25047e-05)
(1.05956 4.18119e-05 4.35598e-05)
(1.05951 4.23763e-05 3.41129e-05)
(1.05954 5.20938e-05 -8.60464e-06)
(1.05955 6.8525e-06 1.95455e-05)
(1.05952 8.36421e-05 6.35749e-05)
(1.05953 -7.79641e-06 3.33083e-05)
(1.05956 6.18578e-05 4.73716e-05)
(1.05952 4.82224e-05 -3.23875e-05)
(1.05954 1.53297e-05 3.71088e-05)
(1.05957 5.12781e-05 4.09425e-05)
(1.0595 3.53048e-05 4.07937e-05)
(1.05956 2.92362e-05 3.31507e-05)
(1.05956 3.74737e-05 -3.22701e-05)
(1.05949 6.05459e-05 3.78719e-05)
(1.05959 -9.38571e-06 3.58985e-05)
(1.05953 4.58022e-05 4.59712e-05)
(1.05951 6.91507e-05 2.93301e-05)
(1.05961 -5.24736e-05 -2.36869e-05)
(1.05948 0.000127307 3.67091e-05)
(1.05958 -2.88221e-05 3.49443e-05)
(1.05955 1.45611e-05 6.03985e-05)
(1.05949 0.000121731 6.44269e-06)
(1.05962 -8.00819e-05 4.75857e-06)
(1.05946 0.000135462 1.74054e-05)
(1.05961 -2.22817e-05 3.83146e-05)