/*--------------------------------*- C++ -*----------------------------------*\
  =========                 |
  \\      /  F ield         | OpenFOAM: The Open Source CFD Toolbox
   \\    /   O peration     | Website:  https://openfoam.org
    \\  /    A nd           | Version:  10
     \\/     M anipulation  |
\*---------------------------------------------------------------------------*/
FoamFile
{
    format      ascii;
    class       volScalarField;
    location    "16";
    object      nut;
}
// * * * * * * * * * * * * * * * * * * * * * * * * * * * * * * * * * * * * * //

dimensions      [0 2 -1 0 0 0 0];

internalField   nonuniform List<scalar> 
25600
(
1.33184e-10
2.69718e-10
2.38696e-10
1.54478e-10
7.1616e-13
2.96206e-11
2.94825e-11
1.21645e-13
1.54358e-10
2.65109e-10
1.26986e-10
3.17207e-10
7.52927e-11
6.68226e-12
1.17732e-10
1.12061e-11
2.11637e-10
1.52416e-10
1.33823e-10
4.70256e-11
3.67198e-11
2.19925e-10
1.39197e-13
1.46004e-13
2.32462e-13
9.91511e-14
4.90586e-13
1.63821e-12
2.38107e-10
1.25012e-10
3.03151e-12
1.93013e-10
3.13992e-13
4.91763e-11
2.41833e-10
1.24152e-10
1.77996e-10
6.94212e-11
7.34118e-11
1.03222e-10
2.2656e-10
8.02276e-11
8.12841e-11
1.8408e-10
1.09704e-13
1.33201e-13
3.39423e-12
1.75653e-13
2.5192e-10
5.08854e-14
1.02812e-13
2.10836e-10
1.19437e-12
2.34802e-10
8.0393e-11
1.09681e-13
4.67885e-11
4.69323e-13
1.25572e-10
9.74454e-11
5.30991e-13
1.18018e-10
4.97857e-13
1.35612e-13
5.09959e-11
2.90843e-10
2.36296e-10
6.54256e-11
2.40211e-10
1.6188e-12
3.95768e-13
3.15261e-13
7.30343e-14
1.44765e-13
1.91909e-11
1.75643e-13
8.17576e-14
5.43209e-13
2.77433e-11
3.9226e-11
2.34687e-10
4.24267e-13
5.62144e-13
8.98112e-11
1.688e-14
2.3231e-10
2.03912e-10
2.08081e-13
1.75013e-10
1.61598e-14
8.08365e-14
1.36112e-10
2.64705e-13
2.68283e-10
4.93144e-12
1.88343e-11
8.82088e-11
7.96227e-13
1.07997e-10
4.85184e-11
1.50697e-10
2.96362e-10
1.9033e-10
9.42243e-11
1.17605e-10
2.37678e-10
1.51458e-10
1.32915e-10
2.52319e-10
1.36101e-10
5.98745e-13
1.70398e-13
1.79556e-13
2.66066e-13
1.68011e-10
3.65171e-10
2.31138e-10
3.64421e-10
1.94125e-10
3.26613e-11
1.26845e-10
4.11928e-13
1.74468e-10
2.77831e-10
8.17142e-12
3.78361e-13
1.8661e-13
2.25987e-13
7.85538e-14
5.66751e-14
5.72e-11
1.38542e-10
1.95759e-10
9.82947e-11
1.03087e-13
1.45087e-10
8.13536e-12
8.7534e-13
7.90712e-11
5.49457e-13
1.07673e-10
7.00497e-13
2.77735e-13
2.39165e-13
6.3292e-13
2.3936e-10
3.12681e-10
1.41942e-10
3.18306e-13
3.17695e-13
1.83338e-13
3.3091e-11
5.26582e-10
2.20489e-10
1.26201e-10
9.1626e-11
8.16501e-13
2.43152e-10
2.78236e-12
2.14289e-13
4.25393e-10
6.26757e-12
1.40422e-10
1.34257e-10
3.24595e-13
2.89209e-11
5.09311e-11
1.12887e-10
2.74929e-13
5.76778e-14
1.48243e-13
5.44667e-14
9.03408e-13
7.21536e-13
3.59156e-13
1.3059e-10
1.37878e-13
1.21965e-13
2.04693e-11
7.10931e-11
3.62593e-10
6.91459e-11
6.83989e-13
1.23793e-10
3.33785e-10
2.58843e-10
8.89875e-11
7.387e-11
3.30554e-11
2.20023e-10
1.29812e-11
4.57002e-13
5.65186e-13
4.2289e-13
4.4873e-10
5.92571e-10
3.52112e-10
3.75281e-10
2.07547e-10
4.30981e-10
8.22642e-10
6.29177e-10
5.10089e-10
5.00589e-10
2.64681e-10
1.09276e-10
3.03159e-10
6.49147e-11
1.66688e-13
6.10027e-11
2.63695e-13
4.2488e-13
5.24225e-10
2.30359e-10
2.00631e-10
2.76533e-13
1.29525e-13
4.81935e-10
3.78594e-10
3.63892e-13
1.15668e-12
1.04343e-12
1.55154e-10
1.83599e-10
2.35903e-12
2.72511e-11
1.07324e-10
2.16514e-10
2.97576e-10
4.42991e-10
8.29321e-11
3.19496e-13
1.98622e-10
1.13266e-10
4.57093e-11
6.49917e-14
1.66178e-13
5.75473e-12
2.72867e-13
1.88069e-10
1.61756e-12
7.74338e-14
3.3737e-14
1.68119e-13
1.03442e-13
2.52116e-13
5.95288e-12
5.3531e-11
6.83156e-11
1.07985e-10
8.04253e-14
6.12824e-14
8.51687e-14
1.10042e-13
9.18243e-11
6.33035e-10
2.23722e-10
3.22678e-10
5.73192e-13
4.08693e-10
5.41301e-10
6.66583e-13
1.29445e-10
7.19593e-11
5.61238e-10
1.00276e-09
6.42291e-10
2.19907e-13
1.99003e-13
5.30972e-11
8.23392e-11
2.2664e-12
6.15448e-13
2.56438e-13
2.79494e-10
4.16826e-10
9.90949e-13
1.173e-13
3.01593e-13
1.55059e-12
1.28896e-10
1.72295e-13
4.4169e-10
4.08096e-10
6.63228e-13
3.19888e-13
4.39932e-13
1.88968e-10
5.29596e-10
4.48465e-10
2.70814e-11
4.71314e-10
5.16006e-10
3.26421e-13
2.71786e-13
9.64623e-14
9.54377e-14
5.18453e-10
4.58166e-10
3.9849e-10
2.64205e-10
4.20409e-10
4.47517e-10
4.04687e-10
7.40123e-10
8.47485e-10
2.17868e-10
4.68879e-14
1.7935e-13
2.3924e-10
9.36516e-14
6.72815e-13
4.53792e-10
1.64107e-10
4.36857e-11
2.10851e-10
1.47959e-10
1.46785e-10
1.64946e-10
2.80665e-10
2.40321e-10
7.01677e-13
1.60403e-13
7.82187e-14
2.13232e-10
4.95973e-10
8.43685e-11
8.54411e-11
4.28754e-13
3.14404e-13
3.45223e-12
3.49979e-13
2.46638e-13
1.05129e-13
1.18461e-10
2.91963e-13
1.68771e-12
4.17618e-10
7.74859e-11
5.50531e-10
2.30756e-10
1.51434e-13
2.45893e-13
1.5993e-10
8.32106e-10
1.42e-11
2.1787e-13
2.43632e-10
5.10158e-10
2.89137e-12
5.99786e-13
2.24137e-10
2.73194e-13
3.20827e-13
7.75495e-11
1.00371e-10
1.19975e-13
5.25482e-14
7.31038e-14
4.8749e-10
1.38787e-10
6.95803e-11
3.7389e-10
2.07519e-11
1.89233e-10
1.59071e-10
7.3662e-14
3.54534e-10
4.35132e-10
4.01029e-11
3.09501e-13
4.1013e-12
1.41397e-10
3.51266e-10
1.01864e-09
2.33269e-13
8.66671e-14
4.65252e-10
3.08353e-10
3.62941e-10
3.32085e-10
1.23579e-09
7.52056e-10
4.73032e-13
2.32616e-10
3.03332e-13
1.94284e-12
1.42261e-13
2.76113e-10
8.48335e-10
2.79173e-11
8.1394e-13
2.11486e-10
1.68976e-10
5.91169e-13
1.15411e-11
3.67105e-10
1.4516e-10
3.27585e-10
8.07444e-10
6.62663e-14
2.07686e-13
9.71086e-13
3.55391e-14
1.8767e-11
3.88554e-10
7.45138e-13
1.87249e-13
3.9775e-13
3.43138e-13
7.78802e-14
2.05021e-13
2.77157e-13
1.58396e-12
9.46277e-14
8.92837e-14
8.64307e-14
2.75613e-10
9.79985e-14
1.39585e-13
3.70608e-12
8.58427e-10
1.21037e-10
3.51332e-10
3.64496e-10
1.10996e-11
2.15394e-10
7.48135e-13
3.72512e-13
1.8848e-11
3.54111e-10
5.60279e-10
2.34005e-13
1.44356e-12
3.68159e-13
4.42527e-14
3.68735e-12
1.12982e-12
5.03409e-14
1.83122e-10
1.90425e-13
3.55554e-10
4.71039e-10
4.80482e-10
1.94048e-10
4.0688e-13
1.00319e-13
3.29351e-10
1.44241e-10
6.74636e-14
2.69933e-12
1.42985e-10
2.86103e-10
8.03981e-10
1.65789e-10
5.794e-11
4.38204e-10
1.14548e-10
1.00191e-10
3.1439e-13
1.24281e-10
1.26057e-10
1.57888e-10
6.88941e-10
1.93541e-13
3.31213e-13
3.93939e-10
2.99915e-10
2.70136e-10
3.81632e-14
9.87914e-14
5.94931e-12
1.20507e-13
1.42424e-12
4.02188e-10
2.16556e-10
8.0948e-10
2.09926e-12
5.62701e-10
8.2939e-10
1.01027e-10
6.77882e-13
1.41357e-11
1.06083e-13
4.50339e-10
6.37996e-10
3.72988e-10
3.06497e-13
2.1442e-12
2.91005e-10
6.80241e-10
2.34576e-10
2.33584e-13
3.53711e-13
7.63675e-10
1.77183e-13
1.0449e-13
9.26619e-14
5.81486e-13
2.73877e-12
6.42315e-10
1.20774e-10
5.42186e-13
2.10244e-10
5.6405e-10
8.41819e-10
6.74504e-10
4.30224e-10
5.69154e-10
9.73784e-11
1.94249e-10
6.18185e-10
1.57836e-10
3.52677e-10
7.06848e-14
4.67337e-14
5.86025e-13
4.44748e-14
1.34148e-13
7.81314e-10
4.25219e-13
1.90234e-12
6.14922e-10
3.22516e-10
8.5425e-10
2.55629e-10
2.11191e-11
4.7196e-13
1.17866e-10
3.9361e-10
1.66208e-10
2.35402e-10
1.64429e-10
5.69008e-10
7.30849e-12
2.19085e-13
1.06155e-13
5.18423e-10
3.47104e-10
1.5618e-13
6.92057e-13
3.93986e-13
6.75133e-10
6.95321e-10
8.94737e-14
7.29354e-14
1.68017e-13
2.6653e-10
8.64512e-11
1.10651e-11
7.67317e-13
1.89298e-13
1.85017e-10
9.09363e-10
6.22507e-10
1.07493e-10
5.02905e-10
1.38952e-10
7.80721e-10
5.17919e-10
5.94233e-13
2.45099e-13
6.63471e-13
1.43679e-13
3.29715e-13
3.35352e-13
3.89993e-13
1.74049e-11
1.43828e-13
3.89006e-13
3.12863e-10
3.23575e-13
3.84521e-13
9.47271e-10
8.13157e-10
2.82247e-13
2.53597e-11
1.27788e-09
7.17101e-14
7.16768e-13
6.23989e-10
1.90825e-13
3.13063e-14
1.19938e-12
3.99857e-10
5.6597e-10
5.05257e-10
2.79809e-13
3.68339e-10
4.88055e-10
3.96259e-10
5.35274e-10
1.98247e-10
5.75753e-13
1.05614e-11
1.60404e-10
2.48731e-12
2.64583e-10
5.12779e-13
7.11348e-11
7.80127e-14
1.76319e-13
2.76283e-13
6.48649e-10
8.04079e-10
7.22021e-10
2.46331e-10
2.018e-12
1.33333e-13
1.08436e-11
5.3589e-11
1.77253e-13
1.06994e-12
3.65612e-10
3.36573e-10
7.79391e-14
3.5383e-14
8.39498e-14
4.8983e-14
1.20244e-12
5.10503e-13
1.06989e-12
5.59177e-10
4.49132e-10
5.69531e-13
7.25162e-12
6.117e-10
3.67775e-13
4.62705e-10
1.49817e-13
1.24473e-12
5.07318e-10
3.05292e-13
9.24198e-11
8.59488e-13
9.66146e-13
5.91419e-10
5.82243e-14
7.54184e-10
1.34635e-09
7.83391e-10
5.20131e-10
2.10907e-10
6.61872e-10
8.78522e-13
1.95819e-13
1.51038e-13
5.83171e-10
2.18006e-11
1.52307e-13
8.99374e-11
5.96254e-10
2.35517e-13
7.35068e-10
9.09231e-13
7.64383e-13
3.48433e-10
1.73367e-10
2.0467e-10
7.6542e-13
7.07274e-10
1.60803e-13
1.88899e-13
5.43639e-13
4.14962e-13
2.07716e-10
5.56812e-11
4.96087e-13
7.70453e-10
1.39491e-10
2.18168e-13
3.69021e-13
5.39197e-10
3.27e-13
1.22495e-13
8.03091e-13
7.40242e-10
1.58029e-13
1.63362e-13
9.25518e-10
6.34473e-13
2.31251e-14
1.03062e-12
5.33981e-13
1.53835e-13
3.38368e-13
4.50609e-10
2.26756e-10
5.09136e-10
9.63447e-10
2.41782e-13
4.58537e-14
1.26097e-09
6.97491e-10
2.8508e-13
2.84336e-10
1.95444e-10
1.78035e-11
5.54583e-10
1.12798e-12
3.38383e-10
8.00893e-10
5.50032e-10
1.07694e-09
5.90887e-10
1.44884e-10
6.66173e-10
5.47839e-10
2.24915e-10
4.39441e-10
1.1697e-09
1.57333e-10
5.3263e-10
3.28452e-10
4.29379e-10
2.85108e-10
3.09988e-10
5.40916e-10
8.37197e-10
3.2774e-11
2.63598e-14
2.35742e-13
5.24575e-11
2.08588e-13
1.94178e-13
3.3931e-10
3.17716e-13
1.83422e-13
1.08711e-13
3.89686e-11
4.37897e-10
1.73327e-13
5.48647e-12
4.96676e-10
1.64242e-11
7.22529e-14
2.0402e-10
4.24008e-10
8.82073e-14
4.34326e-12
3.67689e-13
9.72455e-14
3.51207e-13
6.12321e-11
4.79718e-13
3.82648e-13
2.77383e-13
9.0343e-12
3.5353e-10
2.67581e-11
2.98485e-14
1.46889e-13
2.91135e-11
8.13157e-14
7.56174e-10
1.29206e-09
3.73448e-13
2.88342e-13
1.04088e-09
7.19022e-10
4.59394e-10
7.10662e-10
6.01056e-12
5.32735e-10
1.21089e-09
8.29925e-11
3.65514e-13
9.37988e-10
1.94617e-10
4.0992e-13
8.92673e-14
2.79954e-12
2.45055e-13
6.69404e-11
9.51372e-10
5.28571e-13
7.53453e-13
6.881e-10
7.41436e-10
3.66811e-10
6.45666e-13
2.26981e-12
2.37642e-10
4.32928e-10
6.25119e-13
9.35012e-10
1.66912e-10
6.32414e-13
5.59308e-10
6.60721e-10
2.78537e-13
2.21148e-10
1.13068e-13
2.94036e-10
6.12298e-14
1.00818e-09
8.69692e-10
6.30222e-14
2.03833e-13
4.91822e-10
1.60583e-13
4.6966e-13
5.99845e-11
6.14881e-10
5.13756e-10
5.16746e-10
4.92772e-13
1.26314e-13
2.61103e-13
5.07709e-10
4.63911e-10
2.90296e-10
7.5323e-10
7.42693e-12
8.55216e-10
5.8595e-10
1.06255e-12
4.06937e-13
1.71532e-10
2.43555e-13
4.40961e-10
1.94881e-11
2.15625e-10
3.08334e-13
7.3857e-12
5.76244e-13
7.19551e-10
2.9478e-12
1.89645e-10
6.95186e-10
9.23592e-10
5.60716e-10
1.661e-11
1.85604e-13
5.67658e-10
1.04896e-10
3.43396e-13
4.26595e-13
7.8967e-10
4.12195e-12
4.51554e-14
1.64518e-10
2.48196e-10
1.19459e-10
5.8378e-13
1.06111e-12
8.17316e-11
7.14994e-10
1.31939e-10
8.33535e-10
5.33273e-13
5.9626e-10
6.32979e-11
4.12229e-10
2.89522e-13
4.49988e-13
6.6404e-10
3.70167e-10
1.37747e-13
3.91563e-10
8.99357e-10
1.78482e-13
6.20253e-10
9.46352e-10
6.97504e-14
1.80938e-13
3.64735e-11
6.03589e-10
5.19479e-10
2.14808e-10
3.23169e-13
2.81951e-14
1.16139e-09
1.20382e-13
8.69115e-10
1.39123e-11
3.73185e-13
3.73592e-10
2.7664e-10
4.27445e-10
9.96271e-13
1.08515e-10
2.22361e-12
2.50752e-13
7.19353e-13
6.01413e-11
1.29517e-10
2.76386e-13
2.47774e-12
4.98733e-11
1.25568e-13
8.69226e-14
5.44483e-13
5.79768e-11
6.18616e-14
1.85198e-13
3.21101e-13
3.60959e-10
2.48753e-13
4.95914e-10
9.34457e-13
2.07786e-10
1.60508e-13
9.69604e-11
2.97005e-10
6.03936e-10
4.34285e-10
1.26703e-11
2.58976e-10
1.08393e-12
1.63182e-13
6.79907e-10
3.71585e-12
3.85091e-13
4.64856e-13
8.08502e-10
3.66067e-10
3.26888e-13
7.15087e-14
1.16689e-11
1.69523e-10
7.69549e-13
5.45129e-10
5.50508e-10
1.2055e-09
6.11451e-10
3.96999e-12
3.7219e-12
3.55036e-12
1.92116e-10
1.13517e-09
3.19888e-10
9.95462e-10
4.31931e-10
1.09937e-09
9.56142e-10
2.06748e-10
6.10928e-10
3.9412e-13
1.07582e-13
3.63624e-10
3.31237e-13
1.68128e-12
5.09616e-10
3.0418e-10
4.9784e-10
5.4313e-10
1.75515e-10
8.44314e-10
2.55877e-10
7.20196e-10
7.73754e-10
7.89885e-13
5.49687e-13
2.83945e-10
4.519e-10
4.07715e-10
1.45166e-13
7.25842e-10
2.38692e-10
8.26778e-14
2.74221e-10
1.40093e-13
4.47441e-12
7.0256e-11
1.14785e-10
1.83798e-12
4.69757e-13
2.31257e-13
1.36805e-10
1.12836e-13
1.77583e-13
3.14553e-13
2.11824e-13
8.72045e-14
5.41014e-14
6.91494e-13
4.3549e-14
3.34065e-14
5.66627e-12
2.37883e-13
2.95661e-13
2.43991e-13
9.32203e-10
1.37934e-13
5.42421e-14
3.70301e-13
7.6968e-11
2.97119e-13
2.09774e-10
2.23262e-13
6.41015e-14
7.27681e-10
3.06985e-10
7.25883e-13
2.02594e-12
1.03232e-13
9.00645e-13
8.37647e-14
1.46829e-12
1.92824e-10
2.77478e-10
1.30045e-09
6.17311e-10
1.15732e-09
1.10095e-10
4.44533e-10
2.51868e-10
8.43279e-10
1.32184e-09
7.54988e-10
1.11046e-09
1.32262e-09
8.19953e-10
9.02069e-10
1.12494e-10
7.16291e-10
1.26494e-09
2.97808e-10
8.3432e-10
1.42954e-09
1.6269e-10
1.19288e-09
1.00599e-09
6.07917e-10
3.28088e-10
1.09845e-09
4.77082e-10
7.14803e-10
5.51018e-10
2.6914e-10
1.30584e-09
3.24821e-10
4.23077e-10
7.90466e-10
1.16917e-09
5.93738e-10
2.54479e-11
7.13525e-10
1.13757e-09
2.84694e-13
9.85017e-13
7.71947e-13
9.86952e-13
2.50133e-12
1.16345e-13
1.20768e-13
6.57337e-13
4.32048e-14
4.16135e-13
3.34019e-13
6.66676e-14
1.44301e-13
8.82227e-14
1.2632e-13
2.01979e-12
3.93287e-14
1.29695e-13
1.07438e-13
8.69782e-14
7.12603e-14
1.09483e-13
1.2014e-13
2.74962e-13
1.76007e-14
4.83354e-13
1.14012e-13
1.69585e-13
3.90697e-13
4.44208e-14
1.68166e-13
4.17678e-13
5.1887e-14
7.17674e-14
1.13065e-13
2.40902e-12
4.04962e-13
1.24557e-13
1.30266e-12
2.13449e-14
2.00464e-09
1.24844e-09
7.16205e-10
1.20478e-09
1.55453e-09
1.5631e-09
1.2087e-09
4.7892e-10
6.34635e-10
1.58616e-09
1.33827e-09
1.03061e-09
1.50792e-09
1.16898e-09
7.79285e-10
6.21802e-10
1.50588e-09
1.02055e-09
6.66725e-10
1.96041e-09
1.1026e-09
1.32684e-09
6.3469e-10
9.79349e-10
9.92364e-10
1.54327e-09
1.70758e-09
1.3357e-09
9.85316e-10
1.42482e-09
1.68148e-09
1.04604e-09
2.75442e-09
1.73564e-09
1.13993e-09
1.1235e-09
1.12013e-09
1.35789e-09
5.53523e-10
1.66496e-09
3.36958e-13
1.36285e-13
3.16815e-13
2.7395e-13
1.33154e-14
1.70814e-13
1.10262e-13
4.2153e-13
6.29835e-13
2.78639e-13
6.45326e-14
2.23438e-13
1.66874e-13
3.11895e-13
7.57169e-14
1.88159e-13
3.36468e-13
1.37993e-13
1.2597e-13
8.36111e-14
1.12138e-13
1.0877e-13
2.51262e-13
8.2289e-14
5.2998e-14
7.53706e-13
2.00444e-12
6.52041e-13
4.65494e-13
1.38833e-13
1.4127e-13
1.0889e-13
4.12176e-14
1.28403e-13
2.66013e-13
1.47767e-13
2.60534e-13
4.94708e-13
2.21185e-13
3.02895e-14
2.54023e-09
2.37099e-09
1.87365e-09
1.79719e-09
2.41859e-09
2.03881e-09
1.95888e-09
1.8418e-09
1.96801e-09
2.27392e-09
2.01979e-09
1.91167e-09
2.2042e-09
1.66624e-09
2.04278e-09
2.20569e-09
1.91139e-09
2.18126e-09
1.7111e-09
2.03386e-09
2.14686e-09
2.18965e-09
2.01823e-09
2.57809e-09
1.79054e-09
1.95889e-09
2.11104e-09
2.00688e-09
1.83712e-09
2.1508e-09
2.21718e-09
1.90679e-09
2.6279e-09
2.57945e-09
2.0006e-09
2.10696e-09
2.21082e-09
1.11515e-09
2.05091e-09
2.21991e-09
2.10566e-13
6.46123e-14
3.0158e-13
3.21508e-13
2.68171e-13
5.98179e-14
6.1267e-13
5.07963e-13
2.74755e-13
2.78487e-13
3.03278e-13
4.24915e-13
3.12927e-13
1.62487e-13
4.69622e-13
5.63086e-13
3.0348e-13
2.17448e-13
2.99017e-13
2.29591e-13
2.50504e-13
1.02529e-13
2.69391e-13
7.29657e-13
6.01387e-13
5.49658e-13
2.26823e-13
1.979e-13
4.00307e-13
3.71366e-13
2.86507e-13
4.1192e-13
2.38181e-13
7.89522e-14
2.0469e-13
3.34657e-13
2.95637e-13
1.28137e-14
3.95072e-13
1.00575e-12
1.32729e-09
7.93065e-10
1.19789e-09
1.0618e-09
1.43384e-09
1.10781e-09
1.10101e-09
1.10361e-09
1.21001e-09
1.38775e-09
1.28491e-09
1.17644e-09
1.29735e-09
1.09739e-09
1.23374e-09
1.18271e-09
1.07613e-09
1.12675e-09
9.22325e-10
1.123e-09
1.26791e-09
1.07836e-09
9.02872e-10
1.19802e-09
1.19817e-09
1.19947e-09
1.37359e-09
1.22856e-09
1.21934e-09
1.225e-09
1.21821e-09
1.09387e-09
1.14941e-09
1.09634e-09
1.07763e-09
1.2173e-09
1.20639e-09
3.80735e-10
1.0768e-09
1.31141e-09
1.27038e-13
7.45292e-14
6.70068e-14
8.68051e-11
6.28479e-11
1.62502e-10
3.25985e-10
8.8991e-11
1.16939e-10
1.87094e-13
5.5204e-14
1.61604e-11
2.25897e-13
2.72793e-14
1.43868e-13
1.20095e-13
2.36295e-13
2.47187e-13
3.23961e-13
1.14422e-13
1.47405e-13
2.88789e-10
1.05412e-11
6.119e-11
1.88535e-10
1.10338e-10
2.1e-10
3.80717e-13
1.6211e-12
7.82476e-14
5.21526e-14
2.46351e-10
2.38005e-13
2.09128e-13
2.05896e-13
4.94699e-14
1.11266e-13
1.21001e-13
2.32496e-11
2.09617e-13
1.37983e-13
1.13632e-13
1.54173e-13
1.57048e-11
1.33325e-13
8.23127e-13
2.889e-13
1.55318e-14
3.19673e-14
2.47597e-14
2.54343e-14
4.48865e-12
2.11084e-14
2.85842e-13
3.46935e-12
1.56988e-13
2.31431e-10
3.78378e-11
1.76636e-10
4.39255e-12
2.49598e-14
1.21882e-13
1.03669e-13
3.44816e-14
1.26972e-13
2.76757e-13
1.98239e-13
1.39478e-13
2.32877e-13
9.94832e-14
1.75801e-13
3.60759e-10
1.77916e-10
3.79897e-11
3.47904e-11
3.13735e-13
6.54527e-14
1.05459e-13
1.0991e-13
5.65497e-14
1.01175e-10
5.67786e-13
8.96611e-11
2.09211e-10
5.69047e-14
8.73966e-11
9.65033e-12
8.64999e-14
1.21024e-10
5.34806e-14
4.03858e-11
5.68415e-11
2.44959e-14
9.02716e-11
5.35335e-14
4.94231e-11
6.55788e-11
8.2576e-14
1.43509e-13
6.34779e-14
1.37738e-13
9.05722e-11
6.84382e-11
2.54641e-13
1.1775e-13
9.18381e-14
1.26752e-13
1.30786e-13
1.9868e-13
3.71526e-13
2.21747e-11
1.41944e-10
2.29169e-11
8.53574e-15
8.58465e-15
3.22913e-14
3.55975e-14
1.5718e-13
9.5069e-14
6.56129e-14
4.36081e-11
2.20185e-14
2.09404e-14
8.44508e-11
5.2993e-13
1.37933e-10
9.44838e-12
7.25365e-11
1.87761e-10
4.80136e-13
1.39192e-10
8.01863e-14
1.30525e-13
6.40753e-13
6.29958e-14
2.4845e-10
1.47107e-10
1.09017e-10
4.12787e-10
2.13263e-11
4.97257e-13
2.52306e-12
5.06596e-13
2.02595e-13
1.89062e-13
6.53795e-11
3.5421e-11
2.81813e-13
1.87694e-13
1.69428e-12
1.83522e-13
4.15563e-14
5.12965e-14
4.99822e-14
1.60125e-13
6.11226e-14
4.9973e-14
1.30614e-12
1.83352e-13
1.91779e-13
3.48787e-13
2.72028e-13
2.74063e-13
1.52289e-13
1.52751e-13
6.50504e-13
3.74111e-13
1.96866e-13
1.51837e-13
1.46352e-10
2.92293e-10
1.57511e-13
1.31095e-10
2.51962e-13
3.52838e-11
3.48631e-10
1.10653e-13
4.83023e-13
9.91758e-12
3.0636e-13
1.18528e-10
1.37551e-10
1.99176e-10
2.42212e-10
2.60749e-11
3.99894e-13
1.08498e-13
6.13974e-14
7.65506e-14
1.89261e-10
1.02132e-10
8.06368e-13
2.05972e-10
6.96415e-14
1.76529e-13
1.73094e-13
1.95072e-13
3.04349e-10
6.66353e-13
1.45245e-13
1.70526e-13
6.73185e-14
1.14448e-13
1.09602e-12
1.31637e-11
3.61698e-13
2.72371e-11
4.94677e-14
1.03384e-10
2.26067e-10
7.28633e-14
7.80523e-14
1.16278e-13
1.60331e-14
9.62633e-14
9.3583e-11
1.63778e-11
4.07426e-10
1.54556e-10
1.63788e-13
1.71326e-13
1.35831e-13
1.4801e-13
1.87863e-13
2.93796e-13
4.81625e-12
1.93308e-10
3.64754e-11
3.1681e-13
2.2432e-13
4.73385e-14
5.92762e-14
1.09699e-10
4.61435e-13
9.24537e-13
7.72453e-13
2.58505e-13
2.25042e-13
1.44178e-13
1.43265e-13
1.49399e-12
1.82527e-13
9.22837e-11
2.06686e-10
5.16751e-13
2.28739e-14
1.13403e-13
9.42456e-14
3.4223e-13
3.56614e-11
1.29299e-12
2.02457e-10
7.75981e-11
2.83476e-13
3.15338e-11
1.79631e-13
4.67629e-14
1.4004e-13
2.53389e-13
6.45181e-13
1.39204e-10
4.14559e-13
3.22343e-12
1.36214e-10
2.26807e-13
7.78562e-14
6.80484e-13
4.55442e-10
5.82909e-10
4.47139e-10
3.57167e-13
6.98498e-13
8.48185e-11
2.35715e-13
7.38081e-14
4.30995e-14
3.28814e-10
5.5193e-10
2.77529e-10
1.75714e-10
2.00656e-10
1.36346e-13
2.56326e-13
2.63739e-13
3.81469e-13
4.69097e-10
3.53878e-13
1.25668e-13
1.23038e-13
2.09897e-13
3.32203e-14
9.26519e-14
1.60233e-13
2.68558e-14
7.6097e-10
5.64678e-10
6.40829e-10
3.50746e-10
5.85076e-13
3.64614e-13
5.66178e-13
8.33038e-13
3.72747e-13
2.53607e-13
2.55607e-13
1.41003e-13
7.16958e-14
7.44876e-14
1.43755e-10
1.51943e-10
5.09244e-14
1.61276e-13
3.74256e-13
1.63362e-13
5.68028e-14
8.85415e-13
1.63521e-11
3.60006e-11
2.41578e-13
2.55153e-10
9.1845e-14
1.17303e-10
5.26194e-10
1.95367e-10
5.49071e-14
3.85771e-13
1.36954e-10
1.07695e-10
2.56463e-11
4.25988e-14
9.06912e-13
2.60238e-10
5.59009e-14
1.04034e-10
3.11227e-10
6.37136e-14
2.71839e-13
3.33289e-10
2.97647e-13
5.56136e-14
2.51151e-11
2.95868e-10
5.04086e-10
2.0791e-10
2.15254e-10
6.4452e-10
8.40888e-10
4.80987e-13
1.66699e-13
2.14956e-13
1.42582e-13
5.45908e-10
1.06732e-10
5.14947e-11
3.99701e-10
2.99232e-11
2.96045e-10
5.50802e-10
8.55735e-14
6.22803e-14
2.22528e-13
9.41929e-14
7.57832e-13
3.22733e-10
2.99681e-10
9.39572e-11
9.43948e-14
5.41952e-13
6.82189e-10
3.18101e-10
8.4742e-13
1.70103e-10
3.84342e-13
6.18612e-11
1.65796e-10
8.83189e-11
5.09379e-11
1.18759e-10
1.04863e-12
8.51993e-11
2.00656e-13
2.48781e-13
2.41994e-13
2.13446e-12
1.00007e-12
3.44498e-10
2.09744e-10
2.9772e-13
7.32964e-13
8.80768e-14
7.57557e-14
5.4895e-10
5.35337e-10
1.98395e-13
6.19179e-13
1.9669e-10
3.14401e-10
3.30501e-12
1.71247e-10
2.33215e-10
4.65544e-14
9.97535e-14
1.53699e-13
3.20468e-13
7.7036e-14
3.4201e-13
2.87586e-13
8.7272e-14
2.60475e-13
1.45253e-13
4.06276e-10
7.65986e-10
4.35733e-13
1.7332e-13
5.00204e-13
1.225e-10
3.38454e-10
3.00543e-10
1.95575e-10
3.00902e-10
5.04708e-11
2.90565e-13
1.37456e-10
3.189e-12
4.53427e-13
6.1411e-11
4.80519e-10
9.85677e-14
2.43051e-10
3.844e-10
1.7989e-13
3.01628e-13
2.86384e-13
1.03809e-13
1.01808e-13
4.49988e-13
7.34242e-13
6.09734e-14
1.90921e-13
3.08558e-14
8.13212e-11
9.91035e-13
4.92333e-10
1.13685e-13
1.11725e-13
6.98877e-11
4.207e-10
6.06902e-10
7.54949e-11
4.50711e-10
1.89282e-13
2.91355e-13
3.74838e-10
3.61233e-10
6.36184e-10
2.39456e-10
3.63108e-13
3.58363e-10
9.66271e-13
3.89774e-10
7.33209e-10
3.2333e-13
5.56286e-14
1.02676e-13
4.13938e-10
6.06697e-10
3.49677e-13
2.06425e-13
6.78005e-14
9.8833e-13
2.15478e-10
1.00972e-10
5.83896e-13
1.75623e-11
9.53193e-10
2.45064e-10
1.83976e-13
2.42677e-12
4.54334e-13
6.15106e-10
2.1495e-13
1.50319e-13
1.63243e-10
2.46195e-13
1.99262e-10
7.63057e-10
6.69171e-11
7.57601e-10
8.82058e-10
3.50808e-10
1.79536e-13
2.28552e-13
1.30559e-13
5.82784e-14
1.20029e-10
6.09045e-10
8.81747e-10
1.49254e-09
4.05272e-14
3.59736e-13
2.7084e-12
6.57758e-14
9.10965e-14
1.19465e-13
1.24084e-13
2.95205e-13
1.96889e-13
8.34463e-11
7.27218e-10
6.04964e-11
8.77852e-13
7.07011e-10
9.36395e-14
9.46883e-14
4.64597e-13
2.9019e-10
3.31484e-10
9.77746e-10
1.95549e-13
7.30486e-14
1.01914e-13
9.40292e-14
4.9787e-11
2.28393e-13
3.41403e-14
1.19372e-13
1.03161e-13
2.22524e-13
2.40899e-14
1.07023e-13
3.59285e-13
6.7709e-10
9.09584e-10
2.00923e-10
4.82689e-14
1.11009e-13
1.09822e-12
1.72526e-12
2.51182e-13
4.58697e-13
1.15882e-10
1.05031e-13
5.9866e-11
2.39888e-10
8.61716e-12
1.17397e-10
2.47936e-10
4.25723e-14
2.25364e-13
7.95129e-14
1.46481e-13
1.28279e-13
9.82427e-14
3.49976e-13
4.59983e-13
4.76333e-10
2.37611e-10
1.35318e-13
6.85312e-10
1.42177e-10
7.02401e-10
3.70255e-10
3.124e-10
1.16538e-13
4.47477e-10
2.48036e-10
2.77462e-10
1.8256e-09
8.48912e-10
9.49263e-12
1.31822e-12
2.95007e-14
5.51962e-11
9.28848e-11
4.78133e-13
4.72315e-13
7.46301e-13
3.11202e-13
2.54745e-14
5.23042e-11
6.96606e-10
2.80168e-13
4.78203e-10
3.64181e-10
1.87395e-13
2.50294e-10
4.58794e-10
4.24352e-10
5.80364e-10
1.53505e-10
1.72076e-11
2.63239e-10
4.53063e-13
4.17438e-14
1.82684e-10
7.13471e-13
9.68075e-14
2.41557e-13
7.14317e-13
5.47988e-13
2.73814e-13
1.64394e-10
1.672e-13
4.97936e-13
2.44187e-10
2.31716e-12
6.135e-13
2.64773e-11
1.87418e-10
8.04108e-10
1.24654e-12
2.00804e-10
1.20264e-13
8.57661e-14
1.75789e-10
1.52021e-09
4.77537e-10
7.46164e-13
7.03832e-12
1.39166e-12
4.58532e-10
9.2414e-14
2.45495e-13
5.08757e-13
9.09705e-14
2.00613e-13
4.45787e-14
3.54901e-14
1.89095e-13
4.79298e-13
4.88933e-13
1.58308e-12
6.91154e-14
2.49522e-13
3.10179e-10
1.07456e-09
1.12252e-09
7.16442e-11
2.64835e-10
1.98982e-13
6.27695e-13
3.47724e-12
3.62798e-13
1.99825e-13
3.76888e-12
1.06543e-10
1.60928e-10
4.59399e-13
4.016e-13
2.734e-11
7.32442e-10
2.03796e-13
8.66169e-14
1.05462e-13
5.48999e-14
1.89381e-13
7.94243e-13
1.51868e-12
9.55091e-14
5.25741e-14
2.19144e-10
4.63324e-10
1.36464e-10
3.39481e-13
9.23083e-11
4.2432e-10
2.68207e-12
1.1387e-12
2.29591e-12
6.74822e-14
1.56039e-13
1.62641e-13
1.77431e-13
4.77403e-14
1.29579e-11
2.39828e-13
1.66895e-14
1.44411e-13
3.77428e-13
1.46081e-13
5.04526e-10
4.77204e-10
5.37025e-10
6.33142e-10
9.64283e-10
2.47752e-12
7.16998e-10
6.44047e-10
3.55662e-13
7.20032e-13
1.18804e-13
5.68308e-13
4.04152e-10
2.05117e-13
1.96359e-13
2.13972e-13
7.39213e-12
6.48335e-13
5.41354e-14
3.17216e-13
4.52388e-10
9.13018e-13
2.3847e-12
7.95111e-10
2.9996e-13
5.43018e-13
6.07877e-13
1.14854e-13
4.28228e-12
3.76343e-13
6.2662e-13
7.4425e-10
9.82242e-14
6.82937e-13
3.30968e-13
6.49007e-13
8.43473e-10
1.00309e-09
1.15695e-13
4.77536e-10
6.09188e-12
1.06384e-12
7.63237e-13
3.04896e-13
2.63889e-10
2.99212e-10
7.96204e-13
6.66202e-10
2.28213e-10
1.8048e-13
6.07923e-10
3.85093e-13
6.51551e-10
6.34179e-14
3.89757e-11
3.13427e-11
4.33068e-13
1.94043e-14
1.82553e-14
1.31375e-13
9.41146e-10
3.17703e-13
5.07834e-13
1.90836e-13
4.30323e-13
4.82882e-13
3.14513e-10
7.05606e-11
5.77314e-13
1.69065e-11
1.02626e-13
1.61932e-13
4.71398e-13
1.45518e-13
2.28985e-12
5.5022e-10
1.81424e-10
7.81842e-13
1.40678e-13
2.27313e-13
5.18822e-13
3.28681e-13
3.30356e-13
3.86726e-13
2.8449e-10
8.21469e-13
1.36077e-13
1.32978e-12
6.69556e-11
1.56776e-10
5.36585e-10
5.01648e-10
6.82822e-14
2.28157e-13
3.22992e-14
1.70824e-10
5.43068e-10
8.5951e-10
1.05079e-11
5.37078e-10
5.62238e-10
3.89593e-13
9.23571e-10
3.65401e-10
1.68832e-13
6.19339e-10
3.21748e-10
1.59077e-13
1.271e-12
1.12271e-13
6.68984e-14
2.16814e-13
1.85154e-10
8.2454e-10
1.85422e-10
2.05464e-13
1.51125e-14
1.07688e-13
4.99465e-10
4.31941e-13
2.17477e-10
2.95416e-10
4.20217e-10
3.94721e-10
2.87999e-11
2.8305e-11
1.41368e-13
3.95717e-12
9.29374e-11
3.41001e-11
1.68409e-14
5.24609e-10
3.06379e-13
2.07139e-13
9.86535e-14
2.76219e-13
1.03407e-13
1.42535e-13
6.85192e-14
3.21013e-14
5.27382e-10
5.6325e-14
1.48408e-13
1.14358e-10
3.62396e-10
1.26978e-11
2.34978e-14
2.02354e-10
1.48513e-13
1.17056e-13
3.66571e-13
9.65124e-10
5.1138e-14
7.64459e-14
1.71609e-13
5.74518e-13
3.25407e-13
9.35361e-10
3.13439e-13
9.8974e-10
5.30762e-13
6.14167e-10
5.61445e-13
1.25486e-11
5.37637e-10
5.23173e-10
2.71075e-13
1.11092e-10
8.03271e-12
1.27124e-13
3.29021e-14
3.88939e-13
4.56326e-10
5.82913e-14
3.32958e-10
1.51008e-09
2.12347e-10
6.18383e-14
2.18627e-10
7.14129e-15
4.76788e-12
1.44754e-11
1.77506e-10
8.99831e-10
1.45925e-10
4.04648e-10
5.56915e-13
1.2717e-13
3.5103e-10
7.19469e-11
1.0447e-13
2.2906e-10
6.44764e-10
3.81346e-13
1.35297e-10
5.39402e-10
1.1343e-09
5.29911e-10
4.32463e-13
2.02984e-12
4.43935e-13
1.92334e-13
7.69201e-13
1.04099e-13
5.18806e-12
1.31718e-12
7.59414e-10
5.15559e-10
1.62116e-13
6.57234e-14
7.80825e-10
1.17567e-12
2.418e-13
1.57587e-13
4.46161e-14
5.68226e-13
2.19419e-13
7.60187e-11
3.26648e-14
7.67165e-10
2.02867e-13
8.75037e-14
1.54716e-11
6.32101e-14
4.63613e-14
2.09712e-13
5.05448e-10
1.19808e-13
3.98429e-14
1.56536e-13
4.66853e-14
4.2333e-14
1.53003e-13
8.10093e-10
4.99931e-10
2.46979e-12
4.35604e-10
4.79664e-14
1.25292e-09
1.86514e-10
1.0819e-09
5.60891e-10
7.09859e-10
2.20433e-10
9.46056e-10
7.90546e-13
4.35122e-10
3.04367e-12
1.16028e-09
1.04336e-09
1.61442e-11
4.76914e-10
1.56231e-12
7.32926e-13
1.9241e-13
2.90813e-13
2.39002e-13
5.8134e-10
1.01593e-09
8.23412e-11
1.46542e-09
9.42987e-13
1.82959e-10
5.12799e-13
1.61054e-13
9.74827e-10
2.67401e-10
1.45436e-13
2.15662e-10
2.15606e-10
1.75981e-13
1.42527e-10
1.23672e-13
1.74829e-13
1.01942e-12
3.21554e-13
2.35547e-13
8.96182e-10
2.80587e-10
4.86771e-10
2.40575e-13
5.63244e-12
5.6168e-13
2.0491e-13
1.16006e-12
2.27095e-13
1.67421e-13
1.14606e-10
1.18537e-13
6.66544e-14
5.2838e-14
1.48797e-13
7.06172e-14
3.62476e-13
1.63401e-13
4.51712e-10
6.42865e-13
5.95097e-14
9.91335e-14
2.91664e-14
1.96468e-13
2.73089e-14
1.4911e-13
6.72014e-10
9.55728e-14
1.72235e-10
4.19125e-13
5.74985e-14
3.48527e-13
1.90148e-13
1.66881e-13
1.29324e-13
1.43223e-13
8.17009e-13
3.43366e-13
8.67519e-14
3.87976e-10
3.65666e-13
1.12852e-12
1.94993e-13
5.9417e-10
7.10347e-10
4.58688e-13
5.43567e-10
9.11532e-10
1.23348e-09
7.13228e-10
1.56413e-09
2.09511e-10
2.66541e-10
7.59098e-10
6.63314e-10
3.74703e-10
5.18902e-10
8.3729e-10
1.28304e-10
1.73065e-10
4.61517e-12
2.6138e-10
1.29183e-09
6.65719e-10
6.14055e-10
3.56316e-10
1.34988e-13
1.10498e-09
3.62488e-10
9.01729e-10
1.22297e-09
5.17024e-10
4.5705e-10
5.21563e-10
1.42109e-09
1.29941e-09
9.62455e-10
8.95906e-10
1.1307e-09
1.2894e-09
8.51524e-10
7.23178e-10
1.02906e-09
1.50398e-12
2.14406e-12
3.6805e-14
1.25553e-13
9.79081e-15
9.79782e-14
2.50909e-13
9.88475e-14
4.3959e-13
6.47013e-14
1.60655e-13
1.75598e-13
1.67679e-13
2.04241e-13
4.02542e-13
2.53162e-13
1.39651e-13
1.04384e-13
5.24608e-10
7.05297e-14
1.30914e-13
6.96476e-14
6.13747e-13
3.21385e-13
1.40585e-13
3.94921e-13
2.47221e-13
1.35104e-13
4.85269e-14
2.15969e-13
2.43421e-14
7.89214e-14
1.2238e-13
3.57826e-13
3.85327e-13
1.95145e-12
1.19149e-12
1.66687e-12
6.18318e-13
1.20882e-13
7.7157e-10
1.00705e-09
2.29676e-09
1.23731e-09
1.00765e-09
1.03552e-09
1.09989e-09
1.70949e-09
6.01579e-10
7.64572e-10
5.45666e-10
9.19835e-10
1.55274e-09
8.57415e-10
1.209e-09
1.68159e-09
1.85723e-09
9.94703e-10
7.08692e-10
1.10992e-09
6.2543e-10
8.79087e-10
5.98169e-10
1.59309e-09
6.30177e-10
1.59156e-09
1.59229e-09
1.17473e-09
8.501e-10
1.01437e-09
6.44356e-10
9.76261e-10
1.61544e-09
1.76915e-09
1.34109e-09
6.53451e-10
1.59573e-09
1.51203e-09
7.18383e-10
1.56058e-09
9.27751e-14
8.18335e-14
1.09236e-13
1.14637e-14
1.07804e-13
1.30633e-13
1.95535e-13
2.48786e-13
1.76187e-13
2.08536e-13
5.56317e-14
1.71956e-13
5.38504e-13
4.79998e-13
1.06595e-13
1.35531e-13
9.61359e-14
9.01051e-14
1.96802e-13
7.58735e-14
2.42846e-13
8.49095e-13
3.54884e-14
2.99126e-14
6.83816e-13
5.04457e-13
3.58277e-13
1.31215e-13
1.41976e-14
1.49243e-14
1.14746e-14
1.00154e-13
2.84933e-13
1.89103e-13
3.04402e-13
2.92115e-13
1.04133e-12
2.80593e-13
5.60356e-14
2.30053e-13
2.23417e-09
2.49691e-09
2.32511e-09
1.47842e-09
1.92219e-09
1.86211e-09
1.70277e-09
1.9173e-09
1.60832e-09
1.87209e-09
1.65584e-09
1.82247e-09
2.50666e-09
1.70714e-09
1.77548e-09
2.31439e-09
1.8701e-09
2.04907e-09
2.47004e-09
1.56737e-09
1.94149e-09
2.27718e-09
2.85018e-09
1.75633e-09
1.87979e-09
2.13607e-09