/*--------------------------------*- C++ -*----------------------------------*\
  =========                 |
  \\      /  F ield         | OpenFOAM: The Open Source CFD Toolbox
   \\    /   O peration     | Website:  https://openfoam.org
    \\  /    A nd           | Version:  10
     \\/     M anipulation  |
\*---------------------------------------------------------------------------*/
FoamFile
{
    format      ascii;
    class       volSymmTensorField;
    location    "16";
    object      UPrime2Mean;
}
// * * * * * * * * * * * * * * * * * * * * * * * * * * * * * * * * * * * * * //

dimensions      [0 2 -2 0 0 0 0];

internalField   nonuniform List<symmTensor> 
25600
(
(0.000628459 -9.545e-05 -1.08264e-05 5.87549e-05 1.25061e-06 4.58568e-05)
(0.000504326 -9.83091e-05 1.91052e-06 6.14658e-05 -7.31302e-07 4.62626e-05)
(0.00026939 -0.000104334 -9.11232e-06 8.80292e-05 3.74184e-06 4.70177e-05)
(0.000150675 -7.40737e-05 -1.27724e-05 0.00013308 2.22529e-05 5.09056e-05)
(0.000136856 -5.56351e-05 -1.34758e-05 0.000138041 3.92165e-05 5.99019e-05)
(0.000157873 -5.69679e-05 -2.00126e-05 7.64642e-05 2.22856e-05 5.83273e-05)
(0.000231132 -2.69295e-05 -1.21781e-05 4.63857e-05 1.42644e-06 4.57936e-05)
(0.000297331 2.13689e-05 2.76997e-05 6.02342e-05 9.80209e-06 4.83031e-05)
(0.000300327 2.27796e-05 6.98968e-05 6.01055e-05 2.2189e-05 7.32133e-05)
(0.000285438 -1.33166e-05 9.03693e-05 4.80561e-05 9.26972e-06 9.81797e-05)
(0.000291084 -3.8801e-05 0.000102196 4.89944e-05 -6.84264e-06 0.000109266)
(0.000338368 -5.66459e-05 0.000123093 5.28914e-05 -1.66337e-05 0.000115587)
(0.000346345 -5.15776e-05 0.000133395 5.05468e-05 -1.43375e-05 0.000125357)
(0.000240654 -2.07515e-05 0.000106594 4.73249e-05 5.06777e-06 0.000147951)
(0.000131691 -2.00619e-05 1.43806e-05 5.34766e-05 2.45136e-05 0.00014637)
(0.000230614 -6.37713e-05 -9.31942e-05 6.23288e-05 3.54783e-05 0.000120661)
(0.000410297 -9.90015e-05 -0.0001205 6.61972e-05 3.27289e-05 9.11063e-05)
(0.000355481 -9.1229e-05 -8.15363e-05 6.67118e-05 2.42957e-05 6.983e-05)
(0.000170591 -5.04479e-05 -3.22637e-05 6.11784e-05 1.8422e-05 6.52971e-05)
(0.000155005 -1.39496e-05 1.55334e-05 5.5563e-05 1.26272e-05 5.97446e-05)
(0.000276913 1.10266e-05 4.01705e-05 5.72398e-05 1.27408e-05 5.61814e-05)
(0.000293351 2.94362e-05 3.00846e-05 6.61054e-05 1.29544e-05 5.01976e-05)
(0.000190972 1.8834e-05 4.57597e-06 7.68893e-05 5.71007e-06 4.56702e-05)
(0.000128439 -1.60891e-05 -2.22445e-06 8.29598e-05 4.87321e-08 4.5201e-05)
(0.000132097 -4.06691e-05 -2.80308e-06 8.42137e-05 8.32722e-07 4.43903e-05)
(0.000126909 -2.49682e-05 -2.83851e-06 7.16562e-05 1.19373e-05 4.8772e-05)
(0.000175786 5.68851e-06 2.96213e-05 6.40951e-05 2.20954e-05 6.72505e-05)
(0.000287542 1.89919e-05 6.79666e-05 5.63258e-05 2.00249e-05 7.44523e-05)
(0.000403194 -1.20592e-06 5.1104e-05 4.73252e-05 6.96597e-06 5.45682e-05)
(0.00038235 -2.43243e-05 -5.41613e-05 4.52126e-05 2.6395e-06 5.57197e-05)
(0.000278099 -4.65357e-05 -0.0001286 4.83891e-05 1.96946e-05 0.000151963)
(0.000193542 -4.85058e-05 -0.000121087 5.35165e-05 4.24623e-05 0.000251427)
(0.00013115 -3.72041e-05 -4.22596e-05 6.23312e-05 6.15832e-05 0.000255197)
(0.000132307 -4.59562e-06 2.92127e-05 8.2852e-05 6.19374e-05 0.000145196)
(0.000180414 3.29459e-05 3.38064e-05 9.5254e-05 3.32475e-05 6.81987e-05)
(0.000218861 5.83248e-05 6.72292e-06 0.000111887 7.93366e-06 4.88667e-05)
(0.000148342 2.44682e-05 -1.03224e-05 0.000113312 -1.0772e-05 5.01878e-05)
(0.000123788 -4.82031e-05 2.42869e-06 9.75346e-05 -7.69146e-06 4.7808e-05)
(0.000308985 -0.000104574 1.03583e-05 8.08271e-05 -4.18993e-06 4.75223e-05)
(0.000609376 -0.000115657 2.60986e-06 6.57614e-05 -1.06953e-06 4.67536e-05)
(0.000234686 9.18665e-06 -3.95242e-05 8.76406e-05 -1.01064e-05 0.000120461)
(0.000146746 -5.95493e-06 -6.2532e-06 9.42763e-05 3.75145e-06 0.000115545)
(0.000129812 6.83455e-06 8.83212e-06 8.62888e-05 -8.94346e-06 9.91065e-05)
(0.000133272 7.97184e-06 8.85724e-06 9.23548e-05 -1.03837e-05 9.55436e-05)
(0.000133028 8.12086e-06 9.5665e-06 0.000104956 -1.43478e-05 9.94961e-05)
(0.000133214 1.2951e-05 7.16243e-06 9.29877e-05 -2.10528e-05 0.000109989)
(0.000134869 1.39306e-05 1.41836e-05 8.52145e-05 -1.18092e-05 0.000132)
(0.00013914 1.87339e-05 2.66383e-05 8.09638e-05 6.43812e-08 0.000139549)
(0.000153357 2.17875e-05 3.17947e-05 7.15431e-05 -6.52399e-06 0.000121308)
(0.000178325 -1.40252e-06 2.16701e-05 8.39911e-05 -1.57234e-05 9.95627e-05)
(0.000176485 -3.75229e-05 -1.04868e-05 0.000159212 2.81283e-05 0.000108224)
(0.00017208 -6.60826e-05 -5.35516e-05 0.000260547 0.000133492 0.000199273)
(0.000156582 -5.19609e-05 -6.89198e-05 0.000300718 0.000232795 0.000350529)
(0.000138046 8.70219e-06 -1.624e-05 0.000167811 0.000173409 0.000440528)
(0.00014246 3.06806e-05 6.11793e-05 8.5521e-05 4.25908e-05 0.000316941)
(0.000232488 1.83164e-05 7.52585e-05 7.81949e-05 -5.27452e-06 0.000139283)
(0.000292844 2.39181e-05 -4.11967e-06 7.93841e-05 -5.10262e-06 9.86651e-05)
(0.000251124 5.9799e-05 -4.6797e-05 9.21794e-05 -2.44927e-05 0.000121427)
(0.000178747 5.8143e-05 -2.52024e-05 0.000108831 -3.22621e-05 0.000115245)
(0.00013301 2.87011e-05 4.6704e-06 9.94423e-05 -1.31092e-05 9.81277e-05)
(0.000129924 1.68325e-05 1.24099e-05 8.10227e-05 -7.23731e-06 0.000101055)
(0.000132649 8.28727e-07 2.19242e-05 8.90476e-05 -2.40047e-05 0.00011313)
(0.000130782 -1.57893e-05 2.30566e-05 0.000127692 -4.36939e-05 0.000117619)
(0.000117409 5.16674e-06 8.12959e-06 0.000157684 -4.61346e-05 0.000110621)
(0.000155815 7.21094e-05 -1.47478e-05 0.000175955 -4.29782e-05 0.00010538)
(0.000303258 0.000137213 -2.05267e-06 0.000165525 -1.66233e-05 9.65207e-05)
(0.000470535 0.00016087 6.75827e-05 0.000144531 1.23789e-05 0.000108153)
(0.000458022 0.000129785 0.000139493 0.00012658 3.24306e-05 0.000148631)
(0.000312116 6.83625e-05 0.000149074 0.000103324 2.84041e-05 0.000199444)
(0.000152179 2.43518e-05 6.00648e-05 8.92706e-05 7.19681e-06 0.000169054)
(0.000116082 4.57437e-06 2.39105e-07 8.54154e-05 -1.02541e-05 0.000114682)
(0.000137479 8.39844e-06 1.57473e-05 8.68829e-05 -1.17547e-05 0.000101035)
(0.000124529 1.04306e-05 3.22502e-05 8.65674e-05 -4.92147e-06 0.000142843)
(0.000120217 4.16372e-06 -6.15311e-06 8.6492e-05 -5.37891e-06 0.000180689)
(0.000163545 8.36645e-06 -5.66305e-05 8.70539e-05 -1.32861e-05 0.000194021)
(0.000180534 -3.09091e-06 -6.17151e-05 8.38799e-05 7.34116e-07 0.000184549)
(0.000153388 -2.90028e-05 -3.16505e-05 0.000112486 2.73029e-05 0.000149603)
(0.000122101 8.30334e-06 8.8834e-06 0.000185393 3.65408e-05 0.000121187)
(0.000182761 9.52979e-05 1.40705e-05 0.000214494 -4.67208e-06 0.000102486)
(0.000257985 9.05551e-05 -2.99928e-05 0.000139778 -3.59763e-05 0.000112505)
(0.00101684 0.000269184 -0.000176634 0.00014676 -5.78075e-05 0.000179)
(0.000472532 0.000146323 -9.10609e-06 0.000121163 -2.19099e-05 0.000129868)
(0.000343814 9.39992e-05 3.79565e-05 0.000103419 -1.63229e-05 0.000123915)
(0.000344304 8.98228e-05 4.98704e-05 9.7577e-05 -2.22407e-05 0.000177605)
(0.000356943 0.00010665 -2.07258e-06 0.000103228 -4.54473e-05 0.000276664)
(0.000432335 0.000141969 -7.8222e-05 0.000114676 -6.84089e-05 0.000289629)
(0.000447392 0.000162775 -5.14123e-05 0.000132919 -6.78902e-05 0.00021448)
(0.000362124 0.000128186 3.1465e-05 0.000172084 -4.88152e-05 0.000141439)
(0.000392885 3.35372e-05 5.09357e-05 0.000182338 -4.61006e-06 0.00011282)
(0.0005669 -8.80667e-06 -2.3732e-05 0.000151405 4.0085e-05 0.000136487)
(0.000568058 4.55081e-05 -0.000120448 0.00010698 4.59191e-05 0.000253457)
(0.000427253 9.98547e-05 -0.000110394 9.30094e-05 -5.04527e-06 0.00049684)
(0.000370902 9.93175e-05 6.23919e-05 0.00010504 -7.29971e-05 0.000787905)
(0.000409462 6.76468e-05 0.00021413 0.000123034 -0.000129399 0.00079488)
(0.000404262 7.3139e-05 0.000162838 0.000108292 -7.03317e-05 0.000473123)
(0.000371985 9.14319e-05 7.46059e-05 9.47665e-05 -2.84946e-06 0.000212074)
(0.000358124 8.19509e-05 4.42704e-05 0.000101294 1.06315e-05 0.000138143)
(0.000353234 6.82829e-05 3.9418e-05 0.000112923 2.04366e-05 0.000140167)
(0.000344058 8.31749e-05 5.58352e-05 0.000109108 3.51372e-05 0.000178978)
(0.000372329 9.74513e-05 9.82081e-05 9.96883e-05 3.96557e-05 0.000229404)
(0.000394638 9.27966e-05 0.000125465 8.7656e-05 2.57494e-05 0.00023505)
(0.000378632 7.35368e-05 0.000110434 8.08475e-05 6.73042e-07 0.000197315)
(0.00034341 7.01969e-05 7.89335e-05 8.7207e-05 -4.2501e-06 0.00014824)
(0.000314689 7.29476e-05 5.12505e-05 8.64377e-05 -1.3369e-07 0.000123336)
(0.0003678 7.24903e-05 3.70762e-05 8.40533e-05 -1.7643e-07 0.000119727)
(0.000507921 7.02343e-05 6.71098e-06 8.50577e-05 -1.08453e-06 0.000125539)
(0.000691037 7.7307e-05 -4.66594e-05 8.43976e-05 -1.57776e-06 0.000139529)
(0.000723531 8.09706e-05 -2.39394e-05 8.48191e-05 -5.36025e-07 0.00012789)
(0.000648451 6.25735e-05 8.53131e-05 8.48768e-05 2.41351e-06 0.000119925)
(0.00051174 2.62373e-05 0.000150906 8.80954e-05 -1.67753e-05 0.000166575)
(0.000352812 2.07784e-05 0.000107929 0.000121028 -5.34757e-05 0.000189349)
(0.000303351 7.03875e-05 4.73037e-05 0.000194706 -3.80679e-05 0.000128879)
(0.000351816 0.000161742 7.84828e-05 0.000289122 6.78083e-05 0.00013333)
(0.000366746 0.000199186 0.000127178 0.000362658 0.00016989 0.000213282)
(0.000335027 0.000166515 0.000112157 0.000391191 0.000203986 0.000242997)
(0.000347607 0.000183288 0.000108902 0.000384182 0.000159102 0.000190891)
(0.000496162 0.000297604 9.35706e-05 0.000358103 5.62013e-05 0.000117275)
(0.000980438 0.000461575 -4.29834e-05 0.00031651 -4.99469e-05 0.000118401)
(0.00163356 0.000540742 -0.000309769 0.000256536 -0.000123795 0.000204314)
(0.00179704 0.00046939 -0.000398699 0.000196058 -0.000117773 0.000241453)
(0.000476569 8.12853e-05 4.67843e-05 0.000205857 -2.5881e-05 0.000148863)
(0.000501809 2.97737e-05 5.02006e-05 0.000159477 -4.64334e-05 0.000148089)
(0.000555554 2.88979e-05 0.000145144 0.00015111 -7.86349e-05 0.000269587)
(0.000511753 2.80858e-05 0.000188327 0.000171367 -0.000152513 0.000639876)
(0.000473255 6.69152e-05 1.99819e-05 0.00023773 -0.000300755 0.000894221)
(0.00054813 0.000183875 -0.000168882 0.000348633 -0.000380114 0.000722406)
(0.000614407 0.000283398 -0.000136513 0.000485675 -0.000309511 0.000368062)
(0.000554298 0.000258316 1.60352e-05 0.000568979 -8.95227e-05 0.000164398)
(0.000471973 0.000113591 6.38915e-05 0.000419723 0.000101504 0.000239319)
(0.000500224 3.05989e-05 -5.95237e-05 0.000189541 4.44253e-05 0.000409022)
(0.000635745 0.000147652 -0.000189306 0.000204851 -0.000155017 0.000446273)
(0.000704038 0.000249811 -0.000177411 0.000308166 -0.000199629 0.000327864)
(0.000629517 0.000162819 -6.31706e-05 0.000221669 -8.89233e-05 0.000200116)
(0.000511077 4.21604e-05 3.65061e-05 0.000167713 -4.41426e-05 0.000157163)
(0.0004668 4.80125e-06 6.05708e-05 0.000295908 -0.000142013 0.000227675)
(0.000457592 -1.70674e-07 5.56796e-05 0.000368244 -0.000164142 0.000231102)
(0.000470253 -1.14539e-05 3.19979e-05 0.000283456 -5.5271e-05 0.00015921)
(0.000483331 9.0335e-06 -2.91717e-05 0.000190481 1.33556e-05 0.000211179)
(0.000472938 5.02594e-05 -5.51212e-05 0.000154232 -1.93992e-05 0.00031406)
(0.000468393 6.74556e-05 -4.31195e-05 0.000159048 -5.80657e-05 0.000297674)
(0.000464012 7.96965e-05 -1.92825e-05 0.000165241 -6.33442e-05 0.000207441)
(0.000490689 0.000113852 9.95327e-06 0.000186667 -4.54154e-05 0.00016287)
(0.000499072 0.00012732 4.30749e-05 0.000196293 -1.97425e-05 0.000170301)
(0.000489529 0.000112032 5.2785e-05 0.000170971 -1.5649e-05 0.000180858)
(0.000473562 9.00899e-05 3.97466e-05 0.000145213 -2.95754e-05 0.000168833)
(0.000469563 7.85629e-05 1.66615e-05 0.000137979 -4.1495e-05 0.000159742)
(0.000514089 9.28164e-05 -2.95199e-05 0.000140415 -5.28555e-05 0.000176789)
(0.000518739 0.000114905 -6.67574e-05 0.000154103 -7.96815e-05 0.00022199)
(0.000480327 0.000117608 -7.07131e-05 0.000175693 -0.000114656 0.000275208)
(0.000425783 7.57357e-05 -1.71208e-05 0.000161182 -0.00012729 0.000357143)
(0.000445193 5.74156e-05 9.63564e-05 0.000124781 -6.23613e-05 0.000485962)
(0.000472391 0.000117397 0.000185625 0.000192353 0.00015528 0.000711762)
(0.000485471 0.000187596 0.000236597 0.000428291 0.000437333 0.000900868)
(0.000489097 0.000205061 0.000216158 0.000517312 0.000439422 0.000739054)
(0.000551498 0.000225447 0.000197506 0.000379783 0.000207651 0.000384819)
(0.000764145 0.0002352 0.00011776 0.000225343 6.99689e-06 0.00017222)
(0.00103489 0.000216155 -7.87256e-05 0.000175485 -6.86334e-05 0.000176221)
(0.00119548 0.000277408 -0.000219111 0.000197095 -0.00011424 0.000241012)
(0.00102257 0.00032361 -0.000162818 0.000256794 -0.000134573 0.000220201)
(0.000677787 0.000228927 -2.77343e-06 0.000271501 -7.21006e-05 0.000156359)
(0.000337724 7.45099e-05 -1.20949e-05 0.000358082 7.93918e-05 0.000169857)
(0.000353941 2.56618e-05 2.5946e-06 0.000260262 -4.38829e-05 0.0001497)
(0.0003559 5.25632e-05 7.39699e-05 0.000178025 -4.13484e-05 0.000495177)
(0.000314868 6.80241e-05 5.3133e-06 0.000184011 0.000103773 0.000895809)
(0.00034162 5.43854e-05 -0.000145468 0.000183999 0.000106517 0.000815952)
(0.000400447 9.79769e-05 -0.000162672 0.000175341 -2.1007e-05 0.00043664)
(0.000399152 0.000189786 -4.2102e-05 0.000321122 -2.95667e-05 0.000161933)
(0.0003729 0.000237887 7.34006e-05 0.000622058 0.000257973 0.000283059)
(0.000345765 0.00019388 0.000106597 0.000639704 0.000494702 0.000645524)
(0.000320089 0.000100187 3.39809e-05 0.000278141 0.000258595 0.000736422)
(0.000315823 9.12916e-05 -4.3499e-05 0.000212156 -5.77001e-05 0.000369339)
(0.000360106 0.000162412 -5.2535e-06 0.000322721 3.45877e-05 0.000158199)
(0.000448266 0.000159114 0.000146727 0.000232529 0.000111315 0.000342391)
(0.000459932 3.98772e-05 0.000215403 0.000189962 -2.65393e-05 0.000492228)
(0.000353785 -3.37617e-07 9.56675e-05 0.000269099 -0.000115143 0.00036546)
(0.000318374 8.12829e-05 -8.78259e-07 0.000309768 -2.84418e-05 0.000176624)
(0.000363737 0.000109032 4.46311e-05 0.000247951 7.13922e-05 0.000187079)
(0.000349823 6.62672e-05 5.17417e-05 0.000175044 5.82275e-05 0.000266445)
(0.000364997 6.80771e-05 -8.80019e-06 0.000178472 -2.29611e-06 0.000224392)
(0.000484584 0.000133923 1.69791e-05 0.000217332 9.80093e-06 0.000155494)
(0.000578903 0.000189634 0.000111711 0.000248349 6.3986e-05 0.000179136)
(0.000594822 0.000226707 0.000148795 0.000301222 0.000102813 0.000208103)
(0.000553118 0.000205231 0.000120906 0.000301619 8.27892e-05 0.000187598)
(0.00053873 0.000156678 8.97458e-05 0.000226362 3.68864e-05 0.000158864)
(0.000531035 8.33107e-05 7.69034e-05 0.000160719 1.16294e-05 0.000152879)
(0.000476266 3.48934e-05 5.24863e-05 0.000154317 -1.00865e-06 0.000146402)
(0.000463324 4.49146e-05 1.66818e-05 0.000147992 1.32545e-07 0.000155152)
(0.000506692 8.76339e-05 -4.93017e-05 0.000162166 -4.30966e-05 0.000229287)
(0.000643195 0.000189239 -0.000208765 0.00022976 -0.000156872 0.000401521)
(0.000705428 0.000209614 -0.000348915 0.00022537 -0.000219628 0.000642199)
(0.000644079 0.000120205 -0.000381403 0.000160622 -0.000126891 0.000855747)
(0.000558986 2.54853e-05 -0.000339523 0.000155576 5.67431e-05 0.000960153)
(0.00045631 -5.40628e-06 -0.000188107 0.000201549 0.000161217 0.000789141)
(0.000416015 1.49753e-05 -7.2782e-05 0.00021465 0.000112323 0.000452412)
(0.000398804 4.32984e-05 -1.36025e-05 0.000210994 4.60157e-05 0.000218092)
(0.000395072 6.81255e-05 -1.04155e-05 0.000201217 -1.43004e-05 0.000146072)
(0.00040451 9.22475e-05 -4.60659e-05 0.000215569 -6.31717e-05 0.000186774)
(0.000457309 0.000158396 -8.40345e-05 0.000279768 -9.42518e-05 0.000201878)
(0.000465911 0.000200005 -3.82868e-05 0.000367005 -4.01324e-05 0.000151624)
(0.000391467 0.00016246 1.73095e-05 0.000401641 7.35381e-05 0.000166338)
(0.000648684 0.000333722 0.000119766 0.000444191 0.000230177 0.000295692)
(0.00067386 0.000307826 -5.14563e-05 0.000338497 -4.34936e-05 0.000192181)
(0.000725348 0.000256477 -0.000257407 0.000212388 -0.00012163 0.000614575)
(0.000703607 0.000180441 -0.000297955 0.000160838 -1.63248e-05 0.000745911)
(0.000690016 0.000164858 -0.000171223 0.000156416 2.11352e-05 0.000414875)
(0.000648402 0.000200295 -1.62941e-05 0.000192387 2.44356e-05 0.000173472)
(0.00061199 0.000232191 7.05472e-05 0.000340636 0.000193734 0.000302038)
(0.000623835 0.000274247 0.0001569 0.000546971 0.000526579 0.000788383)
(0.000647066 0.000293781 0.000219093 0.000573655 0.000661865 0.00111012)
(0.000606142 0.00021544 0.000119561 0.000336052 0.000366995 0.000849972)
(0.000589535 0.000162703 -1.30652e-05 0.000195337 7.0663e-05 0.000349106)
(0.000609551 0.000177632 5.80213e-06 0.000191275 2.92716e-05 0.000185664)
(0.000609573 0.000172187 3.49366e-05 0.000185474 3.32156e-05 0.000180111)
(0.000636513 0.000167864 6.54141e-05 0.000185945 2.20029e-05 0.000191145)
(0.000628791 0.000179371 9.44187e-05 0.000182539 2.36588e-05 0.000202142)
(0.000521131 0.000149254 7.40592e-05 0.000161015 1.78227e-05 0.000186781)
(0.000472313 0.000143516 7.72474e-05 0.000159408 2.46194e-05 0.000193227)
(0.000477773 0.000150847 0.000110449 0.000168979 5.40777e-05 0.000280854)
(0.000481667 0.000131157 1.54068e-05 0.000151116 1.66032e-06 0.00030673)
(0.000705758 0.000215115 -3.38653e-05 0.00017904 -4.08485e-05 0.000224208)
(0.000950513 0.00035771 3.01918e-05 0.000258037 -2.01253e-05 0.000188154)
(0.000985417 0.000442438 4.84047e-05 0.000363256 -1.25229e-05 0.00018361)
(0.000816659 0.000364268 1.18421e-06 0.000368093 -5.66302e-05 0.000191941)
(0.000642439 0.000204549 -6.73032e-06 0.000249344 -6.93866e-05 0.000221555)
(0.000558446 9.3695e-05 3.827e-05 0.000149578 -2.77389e-05 0.000235034)
(0.000588032 9.98956e-05 0.00010721 0.000151125 3.12895e-05 0.00029572)
(0.000565612 9.27387e-05 6.70109e-05 0.000178022 9.8255e-05 0.000447682)
(0.000784069 5.6414e-05 -0.00026125 0.000143059 4.73498e-05 0.000560552)
(0.00161695 0.000374613 -0.000575292 0.000206036 -0.000143369 0.000518326)
(0.00209439 0.000785579 -0.000547172 0.000428447 -0.00022456 0.000385051)
(0.00184134 0.000744425 -0.000462128 0.00043608 -0.000200106 0.000346604)
(0.00126085 0.000372519 -0.000414363 0.000221646 -0.000120642 0.000413799)
(0.000821986 0.000118175 -0.000285522 0.000136648 2.75722e-05 0.00046234)
(0.000713641 6.77967e-05 -0.000202653 0.000169879 0.000104965 0.000419926)
(0.00070875 6.31511e-05 -0.000140961 0.00017608 8.78077e-05 0.000273575)
(0.000701411 7.75352e-05 -1.9499e-05 0.000164688 3.42566e-05 0.00017177)
(0.000615945 9.0577e-05 6.80295e-05 0.000167061 -5.87052e-06 0.000242951)
(0.00052829 0.000139523 -8.82071e-06 0.000197099 -2.22344e-05 0.000225656)
(0.000603018 0.00024621 2.31962e-05 0.000279325 7.30247e-05 0.000170225)
(0.000650084 0.000325062 0.000162946 0.000404183 0.000269098 0.000380008)
(0.00114084 0.00055754 0.00019459 0.000664262 0.000199367 0.000290048)
(0.00193297 0.00061585 -0.000123076 0.000394843 -5.48686e-05 0.000213454)
(0.00273039 0.000403997 -0.000550059 0.000261825 -6.22572e-05 0.000358531)
(0.0022326 0.000161006 -0.000479532 0.000241654 8.0133e-06 0.000358083)
(0.00132405 0.000108622 -6.28589e-05 0.000265562 1.41238e-05 0.000191198)
(0.000905123 0.000150107 0.000130128 0.000269273 -2.70021e-05 0.000387888)
(0.000869197 0.000185741 0.000222489 0.000260478 0.000121086 0.00112671)
(0.0010078 0.000367171 0.000511351 0.000458498 0.000544567 0.00151457)
(0.00119436 0.000595319 0.000629669 0.000734452 0.000715905 0.00123578)
(0.00101836 0.00039982 0.00028396 0.000505193 0.000306808 0.000560231)
(0.000828182 0.000179854 2.72457e-05 0.000258788 1.05169e-05 0.000198779)
(0.000831092 0.000168639 3.57324e-05 0.000264911 5.36957e-05 0.000297075)
(0.000883747 0.000152781 -3.7284e-05 0.000265481 3.90244e-05 0.000311731)
(0.000993136 0.000154578 -0.00010398 0.000266236 2.11238e-05 0.000330615)
(0.000924219 0.000113741 -5.69366e-05 0.000280385 5.81084e-05 0.000318976)
(0.000830412 0.000117141 4.59975e-05 0.000289933 5.09551e-05 0.000218313)
(0.000842904 0.000126421 3.98447e-05 0.000259786 1.27579e-06 0.000274392)
(0.000978701 0.000159867 -8.30383e-05 0.000272986 -2.71664e-05 0.000457515)
(0.00115116 0.000245278 -9.58905e-05 0.00031634 -4.29821e-05 0.000323009)
(0.00133238 0.000329825 0.000112168 0.000346705 4.55918e-05 0.00021787)
(0.00155648 0.000458701 0.000227956 0.000420642 0.000102618 0.000240727)
(0.00157777 0.000612629 9.89885e-05 0.000602244 3.58499e-05 0.000211409)
(0.00130051 0.000579329 -4.55029e-05 0.000720405 -0.000103912 0.000255887)
(0.000966053 0.000347806 -1.9815e-05 0.000603471 -0.000135411 0.000295129)
(0.00077759 0.000134478 6.86373e-05 0.000332513 -6.69151e-05 0.000386828)
(0.000706677 0.0001024 7.65792e-05 0.000305335 0.000147732 0.000695472)
(0.000853456 -4.35642e-05 -0.000261518 0.000404862 0.000314628 0.000861186)
(0.00143141 -6.8164e-05 -0.000445213 0.000313132 0.000136223 0.000546577)
(0.00207585 0.000395933 -0.000169795 0.000335989 -3.29263e-05 0.000249818)
(0.00233641 0.000968204 0.000115841 0.000709439 4.20787e-05 0.000215446)
(0.002152 0.00108787 7.2482e-06 0.000865619 -1.47229e-05 0.000211496)
(0.00175372 0.000712509 -0.000215544 0.000534522 -0.000125808 0.000278783)
(0.0014814 0.000309849 -0.000275734 0.000240448 -4.77837e-05 0.000350722)
(0.00132794 0.000132015 -0.000243751 0.000204678 3.85944e-05 0.000352842)
(0.00102103 9.75531e-05 -0.000135376 0.000208319 5.98756e-05 0.000333807)
(0.000829902 0.000128519 -3.8487e-05 0.000201245 4.24869e-05 0.00030998)
(0.00077386 0.000138677 1.05865e-05 0.000207042 3.62532e-05 0.000290223)
(0.000784873 0.000139259 1.99488e-05 0.000255995 7.26225e-05 0.000303481)
(0.000783103 0.000152558 2.80973e-05 0.000453231 0.000215919 0.000401558)
(0.000832505 0.000310547 0.000139023 0.000728119 0.00038475 0.000489803)
(0.00278878 0.000342376 0.000168357 0.000224163 0.000119609 0.000316921)
(0.00390814 0.000269297 -0.0003429 0.00021042 7.5829e-05 0.000335739)
(0.00330687 0.000292078 -0.000354649 0.000220627 4.63463e-05 0.000346381)
(0.00178688 0.000291436 -0.000103081 0.000249089 2.50063e-05 0.000288879)
(0.0011756 0.000251353 7.35859e-05 0.00032278 8.68515e-05 0.000257292)
(0.0010186 0.000162513 6.7459e-05 0.000449166 0.000313967 0.00057466)
(0.00101967 0.000224197 0.00015994 0.000727181 0.000710863 0.00114435)
(0.00134757 0.000648442 0.000548318 0.00109176 0.000932715 0.00116118)
(0.00178387 0.000823725 0.000695762 0.000904058 0.000695251 0.000897859)
(0.00150589 0.000413954 0.000300195 0.000437689 0.000195489 0.000400037)
(0.00111509 0.000226991 2.48274e-05 0.000342078 4.58613e-05 0.000235798)
(0.00115604 0.000257241 2.23484e-05 0.00037139 1.17269e-05 0.000433939)
(0.00152026 0.000454079 -0.000299456 0.000470444 -0.000137888 0.000645505)
(0.00211149 0.00068992 -0.000705122 0.00052604 -0.000255174 0.000882252)
(0.00168216 0.000473265 -0.000427523 0.000409083 -0.000101173 0.00069078)
(0.00110738 0.000258106 4.89232e-05 0.000316878 6.62277e-05 0.000253128)
(0.00102545 0.000240695 5.45757e-05 0.000312672 3.82652e-05 0.00036422)
(0.00104011 0.000239203 4.78715e-05 0.000327579 2.77788e-07 0.000423709)
(0.000996853 0.000224431 6.05853e-05 0.000334746 2.41221e-05 0.000256047)
(0.00101643 0.000225251 8.60828e-05 0.000326313 5.42955e-05 0.000288416)
(0.00123075 0.000327716 0.000153173 0.000376245 7.31643e-05 0.000310332)
(0.0013311 0.000482657 9.20332e-05 0.00054485 3.38793e-05 0.000277503)
(0.00129423 0.000505126 1.02227e-05 0.000620947 -5.02851e-05 0.000281473)
(0.00131771 0.000415874 -6.91135e-05 0.00047718 -9.69356e-05 0.000318374)
(0.00120034 0.000194859 -0.000206517 0.00028783 -5.04589e-05 0.000540191)
(0.00101185 -9.58358e-06 -0.000276571 0.000314064 0.000171624 0.00084225)
(0.000982049 -0.000121235 -0.000207913 0.000429987 0.00023878 0.000630664)
(0.00109582 -0.000121625 -6.80279e-05 0.000348078 6.29665e-05 0.000350038)
(0.00152198 0.000186897 8.93159e-05 0.000239492 -9.617e-06 0.000298065)
(0.00204386 0.000703959 0.000167666 0.000501942 4.62556e-05 0.000309859)
(0.00239927 0.000908623 -6.59749e-05 0.000589834 -5.93482e-05 0.000317464)
(0.00245807 0.000723115 -0.000334746 0.000393218 -0.000125569 0.000386424)
(0.00245747 0.000450824 -0.00030496 0.000232807 -4.60604e-05 0.000365113)
(0.00214815 0.000283844 -0.000181466 0.000186377 4.44115e-07 0.000336189)
(0.00134939 0.000110897 -0.000173114 0.000161664 1.77845e-05 0.000385073)
(0.00100263 1.60316e-05 -0.000150022 0.000184067 9.1575e-05 0.00048818)
(0.000946259 -5.91907e-05 -0.000165882 0.000329359 0.000241503 0.0005663)
(0.000954688 -7.68814e-05 -0.000160855 0.000506992 0.000392244 0.00064672)
(0.000930164 0.000133133 5.11932e-05 0.000455072 0.000431381 0.000763374)
(0.00144068 0.000347629 0.000394249 0.000303783 0.000282342 0.000611997)
(0.00152003 0.000277462 -0.000141851 0.000723087 -0.000265423 0.000556686)
(0.0015995 0.000275762 -0.000159695 0.000603751 -0.000214784 0.00050891)
(0.00144609 6.52904e-05 3.14233e-05 0.000363889 -5.21942e-05 0.000354811)
(0.00133006 6.05559e-05 -1.50213e-05 0.000383809 -0.000135016 0.000530539)
(0.00128024 9.8286e-05 -2.29528e-05 0.000391662 -7.49073e-05 0.000694301)
(0.00124185 0.000130567 8.32377e-05 0.000469425 0.000168054 0.001069)
(0.00142625 0.000374119 0.000470711 0.000701647 0.000544549 0.00144296)
(0.00198492 0.000733573 0.0007884 0.000891863 0.00060518 0.00115631)
(0.00206656 0.0005257 0.000553252 0.000641047 0.000253069 0.000681928)
(0.00141591 0.000112355 0.000116946 0.000455213 -4.50754e-05 0.00036021)
(0.00132261 0.00017663 5.00266e-05 0.000590341 1.03414e-05 0.000300258)
(0.00155285 0.000102335 -0.00011723 0.000520909 6.99936e-05 0.000439073)
(0.00232025 0.000417865 -0.000747265 0.000541365 -0.000166989 0.000910109)
(0.00215898 0.000732164 -0.0010046 0.000823132 -0.000594402 0.00142793)
(0.00139445 0.000423284 -0.000330699 0.000714243 -0.000321904 0.000790109)
(0.00108144 0.000154131 5.97279e-06 0.000405123 4.13564e-05 0.000364991)
(0.00120327 0.000234301 -0.00014293 0.000417781 -4.51434e-05 0.000548677)
(0.0011201 0.000230247 -2.04362e-05 0.000433538 -2.52824e-05 0.000396897)
(0.000959087 0.000187563 0.000101663 0.000437471 2.98197e-05 0.00035891)
(0.000904035 0.000153426 0.000119481 0.000382225 5.39306e-05 0.00041414)
(0.000907139 0.00016531 0.000108137 0.000417712 2.86792e-05 0.000398129)
(0.000900562 0.000143506 8.87278e-05 0.0004927 -9.91943e-05 0.000513504)
(0.000923824 0.000166452 4.54889e-05 0.000452831 -0.000149896 0.0006658)
(0.00102882 0.00026726 -5.47053e-05 0.000453907 -0.000147893 0.000665681)
(0.00111116 0.00027695 -9.66503e-05 0.00042937 -0.000146103 0.000695014)
(0.00113844 0.000126382 -6.98418e-05 0.000324027 -1.60746e-05 0.000715721)
(0.00121563 -5.77102e-05 -8.12922e-05 0.000504647 0.00016829 0.000711834)
(0.00150452 -0.000187658 -0.000245694 0.000572802 0.000195164 0.000749703)
(0.00191516 9.9806e-05 -0.000210493 0.00037425 -5.59882e-05 0.000554035)
(0.00206972 0.00060687 0.0001202 0.000713646 -1.75823e-05 0.000436919)
(0.00200322 0.000819691 0.000261682 0.00107919 0.000140118 0.000474312)
(0.00182942 0.000623813 0.000273041 0.000801365 0.000176428 0.000506147)
(0.00186417 0.000347826 0.000386345 0.000317963 0.000105897 0.000584669)
(0.00189822 6.18955e-05 0.000300059 0.000229827 -3.24744e-05 0.000523302)
(0.00169467 -3.1055e-05 -5.52858e-05 0.000264259 1.59835e-05 0.000431512)
(0.00169237 4.54224e-06 -0.000267465 0.000249008 7.91876e-05 0.000567064)
(0.00140749 6.6019e-05 -0.000175557 0.000253404 9.54831e-05 0.000606562)
(0.00129838 0.000132399 0.000121679 0.000259562 0.000114891 0.000611237)
(0.00170059 0.000230454 0.000241416 0.000306864 0.000131606 0.000469264)
(0.00159951 0.000304304 -1.66705e-06 0.000530773 -1.43315e-06 0.00035874)
(0.00127337 0.000146413 2.87445e-05 0.000400461 -8.09157e-05 0.000404559)
(0.00126726 7.663e-05 3.62587e-05 0.000418658 -1.65309e-05 0.000256607)
(0.00138366 0.000192724 1.68486e-05 0.000464306 -8.16206e-05 0.000265835)
(0.00168481 9.41913e-05 -1.22166e-05 0.000372782 -4.37365e-05 0.000274596)
(0.00130803 -1.76919e-05 -2.70283e-06 0.000542726 5.1163e-05 0.000308579)
(0.00117947 0.000259736 0.000204581 0.000639006 0.000289031 0.000556876)
(0.00181747 0.000721473 0.000594675 0.000805631 0.000422363 0.000626252)
(0.00245496 0.00114785 0.000361771 0.00103337 0.000171227 0.000307115)
(0.00202237 0.000848213 -2.08761e-05 0.000752148 -0.000114243 0.000327044)
(0.00134531 0.000330778 5.73918e-05 0.000299928 -2.10131e-05 0.00045481)
(0.00144671 0.000386282 0.000265407 0.000322199 0.000139576 0.00057555)
(0.00153043 0.000331303 0.000219365 0.000286144 2.08806e-05 0.000564836)
(0.00149831 0.000223895 0.000257249 0.000447739 -0.000218539 0.000693713)
(0.00159221 0.00010259 0.000352533 0.000565807 -0.000422096 0.000911011)
(0.00160303 0.000176997 0.000214004 0.00030667 -0.000138185 0.000494272)
(0.00156512 0.000206948 6.47664e-05 0.0002082 -4.79691e-05 0.000414782)
(0.0015421 0.000201591 1.15399e-05 0.000219868 -4.2506e-05 0.000533606)
(0.00150252 0.0002038 8.37593e-05 0.000252327 -5.10919e-05 0.000486439)
(0.00151468 0.00016217 0.000129207 0.000306055 -2.19779e-05 0.00039769)
(0.00158941 0.000181941 0.000132591 0.000293888 1.61393e-05 0.000392172)
(0.0016454 0.000184039 0.00019479 0.000355059 -0.00010505 0.000472939)
(0.00154406 0.0001768 0.000273822 0.000366037 -0.000186538 0.000729453)
(0.00139175 0.000267383 0.00013871 0.000328246 -3.93213e-05 0.000718005)
(0.00140231 0.000254128 8.1006e-05 0.0003504 -7.41911e-05 0.000671899)
(0.00145036 0.000226485 2.36163e-05 0.000409461 -0.000158572 0.000611136)
(0.00132635 0.000208888 -5.19291e-05 0.000393737 -0.000112351 0.000567293)
(0.00125085 0.00015116 -0.000115596 0.000717416 0.000115843 0.000689368)
(0.00123105 0.000140631 -0.00012626 0.000719446 0.000266893 0.000970923)
(0.00112108 0.000177803 -5.56207e-05 0.000487437 -0.000168619 0.000765044)
(0.00125374 0.00052432 2.67809e-06 0.00106757 -0.000199 0.000428229)
(0.00182196 0.00109059 0.000218786 0.00153885 0.000114782 0.000432339)
(0.00170667 0.00102051 0.000293641 0.00144346 0.000277183 0.000512652)
(0.00129724 0.00060024 0.000265437 0.00082576 0.000270151 0.000582461)
(0.00104857 0.000272369 6.14435e-05 0.000423752 0.000121404 0.000500101)
(0.00106483 0.000204221 -4.07968e-05 0.000327376 3.62189e-05 0.000369494)
(0.00112487 0.000195546 -4.69626e-05 0.000381326 2.63206e-05 0.000330671)