/*--------------------------------*- C++ -*----------------------------------*\
  =========                 |
  \\      /  F ield         | OpenFOAM: The Open Source CFD Toolbox
   \\    /   O peration     | Website:  https://openfoam.org
    \\  /    A nd           | Version:  10
     \\/     M anipulation  |
\*---------------------------------------------------------------------------*/
FoamFile
{
    format      ascii;
    class       volTensorField;
    location    "47.5";
    object      gradientUWrite;
}
// * * * * * * * * * * * * * * * * * * * * * * * * * * * * * * * * * * * * * //

dimensions      [0 0 -1 0 0 0 0];

internalField   nonuniform List<tensor> 
25600
(
(-1.88127 1.83777 -1.56359 -0.29886 0.424138 1.67646 0.46957 1.90676 1.36538)
(-2.20457 0.970595 -1.31885 2.22272 -0.276476 -0.0592274 0.303571 1.01532 1.56594)
(-0.476872 -0.742622 0.899335 2.20448 0.76519 1.22315 2.23508 0.503111 -0.233995)
(1.68787 -0.430182 2.3467 3.30395 0.392349 2.03498 -0.955473 1.57029 -2.20342)
(-0.319081 -1.12288 0.84112 1.56619 -0.361476 0.222328 2.62564 1.19434 -0.39053)
(-1.07835 0.0739313 -2.10716 -1.6873 0.313574 0.00420402 1.35258 1.62775 0.229646)
(0.702277 2.01734 -2.47034 -3.54772 -1.57944 1.52304 8.65812 -0.67638 0.74627)
(-0.455875 -1.55534 1.7974 0.81525 -1.13996 0.414371 0.839592 2.8486 0.907643)
(-0.0141435 -0.904774 2.11871 1.49691 -1.09445 1.00661 -1.05554 3.7819 0.485635)
(-0.308053 1.45126 0.445018 -0.228411 -1.43141 1.18856 -1.51488 1.01378 0.952026)
(2.8337 -2.05583 0.898351 4.20502 -0.255642 0.845813 2.98661 1.71538 -0.55928)
(1.81207 -0.281985 -3.35968 -2.7299 -0.358771 2.06586 6.83495 0.509091 -0.0502628)
(-1.38107 2.28288 -2.20421 2.4292 2.08383 -0.248482 -2.67849 -0.821361 -1.00985)
(-1.01405 1.19953 2.04625 2.39696 2.13265 0.899438 -2.12963 -0.644425 -1.31143)
(-1.76329 -0.624461 1.07392 -0.221214 1.38738 0.106462 1.17341 4.35231 1.03018)
(0.995168 -0.0668626 0.665691 1.70368 -0.581728 0.214054 1.52721 3.3837 -0.470831)
(0.401263 0.85503 -0.0689139 -1.87831 -1.89581 1.39944 6.69591 1.99102 1.32603)
(-0.848889 -1.21776 -1.54854 0.563736 -1.51093 0.897857 3.97411 2.91567 2.47004)
(-0.15788 1.89035 -3.00722 0.895345 -0.435893 0.877124 3.58207 -0.581015 -0.30318)
(0.302009 0.932175 1.46295 3.35175 0.971043 0.367075 -5.38901 1.04965 -2.04551)
(0.160795 -1.84056 3.07259 5.34802 0.982603 1.03353 -5.5362 3.04384 -1.58085)
(-1.14837 0.0437712 -1.10663 0.0730028 0.941536 0.329884 3.71893 3.7207 -0.411373)
(1.18551 -1.88618 1.11412 4.58697 -0.0765746 1.86147 -0.839808 1.91081 -1.20184)
(2.8559 -0.926716 0.490799 0.178252 -0.301947 2.73414 1.92261 -1.96315 -1.76149)
(-1.12539 2.48961 -2.13992 -0.734715 1.02723 0.523456 6.25487 -0.100083 0.930009)
(-0.962324 1.97335 -1.81653 2.76725 -0.221759 2.61691 3.16922 2.55355 1.12074)
(0.524859 -1.23272 -0.786599 3.3631 0.658733 2.91131 1.75023 -2.04499 -0.15795)
(1.20652 -2.66087 3.38779 2.88 1.49492 0.568096 -1.7947 -0.229774 -2.30831)
(0.491403 1.22603 0.937771 -0.124179 -0.683321 0.991531 1.34947 2.14794 -1.49077)
(-2.88829 2.41727 -3.43162 1.21728 -0.544467 0.305171 0.806257 -1.09587 2.98505)
(-0.780887 -0.917222 1.00315 1.50595 0.210374 0.772705 -5.9419 -1.28356 2.30904)
(0.928359 -0.98093 3.61612 3.60166 1.07375 0.974787 -1.21347 -0.541535 -1.02944)
(-0.21254 1.02527 -0.311899 1.33753 0.640121 0.254051 -3.66532 0.00962985 -0.228848)
(1.15307 -0.0382728 -1.41256 3.24598 0.119387 1.22119 1.41357 2.65021 -0.551977)
(0.606206 -0.694189 0.606282 1.04162 -0.368428 1.81594 3.59531 2.02178 -1.89441)
(-0.61023 1.27697 -0.969194 3.08405 -0.726927 1.8718 3.96803 0.923387 1.26477)
(0.394845 1.07785 -1.71346 1.02886 -0.482492 0.775498 5.22019 0.903535 0.588531)
(-0.741063 -1.00746 0.329332 2.6184 0.464251 1.67821 1.03786 -0.811735 -0.3703)
(0.811555 -2.6807 1.70079 7.15641 1.55106 1.58058 -2.93368 0.0305907 -2.13098)
(1.31911 -1.17248 0.482715 2.35166 0.855829 1.78754 -3.45794 0.0076333 -0.89766)
(-1.73449 -0.276444 -1.21196 -0.436533 1.13037 -0.302794 5.37326 1.4256 0.450532)
(3.09006 0.386857 -0.652736 1.35238 -1.2851 1.08647 4.74234 0.500053 -1.50859)
(0.78406 0.912448 1.15977 1.08038 0.120973 1.63608 0.81796 -0.0925945 0.0922478)
(-0.843898 -0.520155 -0.239332 2.25399 0.766023 -0.438722 4.20731 0.722645 0.513299)
(-2.26496 -0.232494 -0.505707 -0.764943 1.30081 -2.12054 5.83546 2.58628 1.02181)
(-2.50586 -0.797623 0.420241 1.88641 0.555889 -0.803819 2.54082 0.449181 1.96241)
(1.49895 -1.04602 -0.322112 1.35808 -1.0883 1.80646 -3.07283 -3.10049 -0.597112)
(1.74934 -0.29255 -0.0941483 2.30061 -0.274641 1.06405 -2.19472 0.219587 -0.816127)
(-2.56008 -1.23357 0.464394 0.383511 2.13868 -1.44548 -1.22603 1.68977 0.304127)
(2.76242 0.348264 -0.14924 -2.42326 -0.500829 -0.610949 1.80016 2.4151 -1.55797)
(-0.12687 0.498129 0.46206 0.497242 -0.387469 -1.12267 3.11105 5.39932 0.158668)
(-1.43454 1.3517 -1.66075 -4.09006 2.36759 -1.50807 2.89861 2.86482 -1.80367)
(3.61983 2.57238 -0.810434 -2.69837 0.466921 1.60812 1.16852 -3.31848 -2.70588)
(-1.4331 0.940347 1.61339 -1.89395 1.56668 0.484483 1.03197 0.192601 1.05985)
(-0.298858 -0.97418 -0.580493 0.346036 0.507694 -0.362344 2.1139 -0.242593 0.567887)
(-0.781796 -2.32371 0.592946 2.99268 2.29018 -1.21731 2.04111 0.965025 -1.71612)
(-0.762058 -1.36559 1.03608 1.35539 0.340542 -1.38319 0.452823 2.72821 0.100103)
(1.20424 0.353789 -0.915567 -3.4666 -1.91037 0.0718464 2.76027 0.963378 0.718727)
(-0.110618 1.74702 -1.27003 0.687874 -0.830824 1.22982 1.70969 0.820948 1.72945)
(2.19099 0.976861 -0.845547 -1.05919 -1.95613 3.46776 -0.198382 -1.82257 -0.162649)
(-0.778089 -0.512964 0.23631 2.04397 2.0304 -1.3956 2.52625 0.512416 -0.686973)
(-1.25369 -0.613325 0.941135 0.219606 1.13695 -1.0214 -3.51959 -2.75278 0.345481)
(-0.404169 -0.415357 1.78192 0.773339 0.502605 0.910086 -2.66294 -2.53764 -0.165897)
(-1.10282 -0.0689478 -0.297172 -0.668345 2.44513 -2.66526 -0.815397 4.11953 -1.66642)
(0.960817 -0.470097 -0.790317 -0.463957 2.81434 -1.64487 1.64012 1.35997 -3.77316)
(0.568113 0.559276 1.40042 -1.05262 -1.5052 0.556158 1.27768 2.39265 0.711978)
(1.19699 1.17174 -0.655246 -3.31138 -1.63514 2.26175 6.27113 0.471746 0.921592)
(0.754788 -0.843456 -0.484916 0.307634 0.141016 1.32884 2.19105 -0.276259 -0.376044)
(0.461247 0.141929 0.760647 -1.85738 0.19769 -2.24258 3.81392 3.06321 0.466032)
(-2.13435 1.11487 -0.704653 -0.783064 0.351206 0.69235 3.48689 -4.39206 1.61939)
(-0.237172 -0.00290681 -0.910134 -1.49661 -1.29294 2.03259 1.7877 -1.93133 0.301677)
(2.16801 0.350867 -0.130358 0.220714 0.300652 -1.47499 7.0975 2.8665 -1.7949)
(0.0371238 -0.0951582 0.511748 3.35681 0.522779 -2.2859 0.324767 -1.7348 -0.410468)
(-1.04712 -1.89904 1.10421 -1.08253 -1.91141 -0.679075 0.200585 -2.62721 2.49624)
(1.23666 -0.691853 0.432351 -4.2255 -1.4767 -0.275975 3.95028 -1.13861 0.138629)
(1.45398 0.547704 -1.25107 -1.82731 -1.17909 -0.893481 2.23744 1.61877 0.498985)
(-3.21877 0.258044 0.256076 -0.95871 -1.20721 0.239132 -0.639689 -0.500193 3.11138)
(2.78616 1.52396 0.341246 -2.15526 -3.65172 0.783244 -3.0402 -4.20362 0.00331936)
(2.70046 0.0149537 -0.044917 0.194577 -1.49856 -0.395278 2.03143 -0.208803 0.12799)
(-6.19092 -1.09568 1.01189 0.589494 3.42581 -1.11205 1.17806 1.57685 3.45151)
(-1.2359 -2.25731 0.289771 3.3935 1.17001 -1.33054 2.39766 3.42762 0.151974)
(-0.466257 0.0812585 0.348008 -1.05814 0.00791326 1.05829 4.68918 -1.71927 -0.0935916)
(0.384773 1.10719 -0.340522 1.60681 -1.09698 0.508142 4.26953 -0.705497 0.929841)
(-0.0711972 0.539076 -1.00073 1.77423 -0.358704 -0.389945 0.763508 -0.967856 0.795766)
(-0.800615 -1.21597 0.416141 1.955 0.140408 -0.205147 1.55897 0.787843 0.394794)
(0.550613 -1.98462 1.37608 1.07124 -0.885434 -0.20927 0.819611 1.84826 0.175849)
(1.1179 1.05063 -0.727484 1.19732 1.32602 -0.378678 1.42466 1.58871 -1.72339)
(-1.06266 1.23293 -1.06874 -0.201684 0.838364 0.370142 1.11228 1.81607 -0.176116)
(-4.15924 -1.12207 0.580567 3.04816 2.24958 -0.207801 -2.26906 0.646249 1.18506)
(0.0654728 -0.741868 0.658394 3.83174 1.59549 -0.206487 -4.20426 -0.872434 -0.935624)
(1.18353 0.552843 0.11544 -2.76209 0.372851 0.120735 1.02767 1.00939 -1.9418)
(-1.13068 0.574444 -0.942812 3.9348 3.17772 -0.847157 7.38607 5.13091 -1.05956)
(0.89321 1.64569 -0.426689 -2.20681 -0.340208 2.42635 5.30212 -0.307756 -0.0119565)
(1.46998 1.20973 0.374443 0.267176 -2.12926 1.011 3.34222 -0.565454 0.225305)
(2.41826 -0.056887 -0.486428 3.52874 -2.4729 -0.716094 2.05352 2.68298 -0.559817)
(1.66973 -0.410634 -0.186651 1.27997 -0.67892 0.811321 2.59132 0.753239 -0.8465)
(-5.05577 -2.82692 1.0996 3.05058 1.77351 -1.14477 1.39943 1.94679 2.99243)
(-1.21513 -2.04523 0.673798 -0.344487 2.10229 -1.06842 -0.148755 -0.58132 -0.140848)
(1.84085 1.8394 -0.0358413 -0.955008 -0.534093 1.3459 6.10412 -1.33014 -0.746147)
(1.5973 3.30662 -0.922081 -2.51121 -1.5744 2.52633 4.22117 0.373828 -0.327626)
(1.13481 0.842671 -0.904469 -2.64487 0.762893 2.05217 7.94303 1.06959 -2.01957)
(-2.2106 -1.2817 0.989796 1.0537 1.70833 1.17186 3.10754 0.110628 0.00522062)
(0.305284 -0.668619 -0.186994 1.4109 0.378932 0.724271 3.57472 -1.97115 -0.0805334)
(1.47075 1.06647 -1.69754 1.88087 0.315944 -0.475741 2.67786 -1.43995 -1.91749)
(-1.25397 -1.05228 0.651645 2.44456 2.41931 -0.26909 -0.894966 -2.02025 -1.26281)
(-3.18206 -1.84147 1.71255 2.62111 4.21849 -0.0661074 -1.67733 -1.27092 -0.201889)
(1.71291 0.349815 -0.134521 -0.831365 -0.261764 -0.0673883 0.449604 1.60731 -0.790693)
(2.37 -0.977133 -0.696117 1.21953 -2.47756 0.832406 4.5883 3.94387 0.538616)
(-0.414932 1.30155 0.394358 -1.08556 -0.827912 -0.170199 0.439108 2.96555 0.67056)
(-2.52083 1.06389 0.358212 -2.60975 -0.33131 -0.502542 4.18618 2.54595 2.08723)
(0.100154 -0.875933 -0.966426 3.9844 0.0614231 -0.341585 2.2961 0.00538584 0.00684347)
(5.06195 0.64445 -0.302341 -2.26877 -1.46297 0.46757 3.0327 -1.39079 -3.15826)
(-1.26951 -0.909241 0.422401 -0.206034 -1.62618 0.574783 7.99564 1.85855 2.40193)
(-5.32865 -1.86401 0.481507 -0.234939 -0.00740379 0.707585 4.81604 2.5516 5.07229)
(0.0465399 -0.0872779 0.412836 0.0106971 1.7198 -0.722289 0.0181712 1.24158 -1.20579)
(2.28392 1.43389 -0.568093 -1.88692 -0.348374 -1.01838 4.79659 1.30322 -1.72504)
(-0.205552 -1.04518 -0.145214 -1.72964 -0.929466 0.320568 6.15663 1.71257 0.931287)
(0.535233 -1.01855 -0.195163 0.809721 -0.355584 -0.484563 2.71478 -0.885137 0.0569739)
(3.25728 3.42791 -0.0281704 -8.05285 -1.95375 0.164645 1.30904 -3.51205 -1.14536)
(0.11312 1.01245 0.60747 -2.56196 0.0263193 -1.19514 2.38788 1.59349 -0.0556541)
(-0.556626 -0.470494 0.621679 -2.14614 -0.508673 -1.89686 3.88276 -0.986744 0.397907)
(1.42102 -1.34819 0.822996 0.54982 0.24822 -1.72285 4.31288 0.450386 -1.96352)
(2.88078 0.654066 -0.0673536 1.46029 -2.09511 -0.798558 6.50001 3.94338 0.439901)
(-0.51139 0.508064 -0.845765 -2.80599 -1.43552 -0.287169 7.00953 2.6 1.83345)
(-2.66117 -0.718632 -0.285787 1.97313 0.304795 0.0374191 3.84099 2.47121 1.42676)
(-2.79844 -0.0127202 0.376503 0.564516 4.03076 -1.16927 5.12953 4.7555 -1.15433)
(0.50566 0.442877 0.0773649 -2.68179 1.11182 -1.59138 0.768038 0.413431 -1.65019)
(2.8874 0.541743 -0.054115 -3.0017 -1.5203 0.100407 4.16576 1.10349 -0.757717)
(0.331992 -0.653243 0.0407064 -0.217353 1.64595 -0.220738 2.35317 -0.456844 -0.854514)
(-1.85856 -1.16425 0.171644 0.195476 0.817832 0.168448 1.85026 -0.850695 0.417052)
(0.0699461 1.69467 -0.0519542 -0.504666 -1.16762 -0.614574 3.89366 2.27576 0.525884)
(-0.988728 0.743998 0.140905 2.5248 0.9671 -0.791494 0.313172 2.05667 0.665448)
(0.609742 -1.50856 0.623838 -2.46894 -2.01788 0.488419 0.0408131 0.0301413 0.103769)
(3.15038 -0.641261 -0.865863 3.43823 -2.72825 -1.03801 2.78952 0.350459 -0.382438)
(0.711033 0.201501 -0.722314 1.61568 -0.955918 -1.36033 3.87404 0.997164 0.746643)
(-0.91889 1.04825 0.199194 -2.08168 -2.09628 0.143132 4.09625 0.101329 2.16372)
(-2.376 0.595988 -0.373763 -1.82087 -0.521536 -0.0441621 5.66936 0.238005 2.76879)
(-2.03242 -1.60228 1.10472 2.88912 3.51807 -1.04703 0.334232 -0.79428 -0.888818)
(-1.56485 -1.01346 1.54942 0.968911 2.16311 -0.755057 0.225115 0.725059 -1.61148)
(0.864365 2.16554 -0.320626 4.50717 0.377356 -1.0166 1.95735 2.91289 -1.81855)
(2.08062 2.08255 -0.887501 -2.8524 0.67771 0.723809 4.79457 1.33065 -1.68601)
(1.71363 -0.963282 -0.0544686 1.06714 -3.30279 0.0603741 7.05516 0.780653 1.39808)
(0.283304 -1.48699 0.362016 2.18514 -3.84126 -1.30852 1.22973 -0.48607 3.30424)
(-0.0902737 1.57093 -1.17265 -1.10941 -1.46003 -0.207549 4.90454 0.319553 1.30006)
(1.31682 2.41592 -0.350657 0.400809 -0.933694 -0.178943 -0.489848 -0.0942292 0.108082)
(-2.2401 -1.67821 1.58071 3.41902 3.08926 -0.340344 -4.21369 1.52256 0.571677)
(0.188406 -3.94577 0.0687854 5.36385 0.368174 -1.1355 -0.247536 -0.159238 -0.189602)
(0.710281 -1.28198 -0.581554 -0.322771 -0.478957 -0.0586462 3.72737 1.67782 0.0411258)
(-2.50226 1.86374 -0.278012 0.572037 2.92497 1.16853 6.62462 0.582009 0.356383)
(1.64865 1.77998 -0.73704 -0.409611 -0.449748 -0.568593 5.14506 -1.69598 -0.780395)
(0.050302 -0.934565 -0.18467 1.88702 -1.16044 -0.090399 6.70862 0.0512925 1.1084)
(-0.72453 -0.893348 0.544108 1.07855 -1.30618 1.63681 4.62388 -1.59461 1.59334)
(1.44993 0.926964 0.684374 -4.78176 -1.83512 0.170521 -0.357551 -0.126771 0.18364)
(-1.27337 0.623976 0.0707514 0.152471 0.792068 -0.254683 2.11035 5.00491 0.821361)
(-0.115695 -0.89364 -0.869239 3.14854 2.46419 -0.267321 8.81532 3.43999 -1.51932)
(0.218839 -1.36683 -0.403575 3.62715 0.22969 -0.164083 0.801359 -1.31684 -0.49294)
(-0.913857 0.134066 0.621589 2.40779 -0.374081 -0.228788 6.15303 2.52471 0.877448)
(-2.18056 0.521295 0.175027 1.17957 3.29199 0.644375 0.823868 -1.08454 -1.53469)
(0.211925 0.613021 -0.578522 0.595968 2.53739 0.863434 1.37335 -1.69476 -2.10912)
(3.00268 1.44857 -0.150907 -4.88436 -2.81525 -0.693661 0.317643 -1.10875 0.132769)
(2.54606 0.00244244 -0.384607 -1.72756 -2.21207 -0.0548776 1.8834 -0.99734 -0.710049)
(2.17433 -1.13483 1.1431 -2.2204 -0.876691 -0.79242 -3.80406 -3.53467 -1.47402)
(-1.68552 -0.0866988 0.667176 -0.858311 1.99716 -1.45895 -2.43785 -0.355738 -0.249572)
(0.239846 2.1792 -0.414331 -3.92323 -0.674886 -0.215226 1.68841 1.19067 -0.0030795)
(1.33755 2.57142 -0.251583 -7.41697 -1.84175 0.194847 -5.06586 -0.0732252 -0.345855)
(-2.94073 -1.25277 0.170097 3.26234 3.13184 -1.31376 0.386559 2.29792 1.05527)
(-1.37918 -2.80484 0.214932 3.94481 1.78362 -0.0734694 1.35161 0.279097 0.517233)
(0.983779 1.53572 -0.0381147 -1.0776 -1.05876 -0.075898 -0.413142 0.402975 0.295012)
(-1.56195 0.521231 0.578038 -2.59995 -0.862171 -0.859062 -0.0558318 2.87045 1.77885)
(-0.306237 -2.70643 0.344502 -0.711284 0.333552 0.183337 -5.47756 0.25254 -0.188002)
(2.67686 0.758896 -0.556951 0.783114 0.351937 -0.915403 2.2852 0.999042 -2.03525)
(-2.46248 0.00778983 -0.089137 1.14175 -0.343576 -0.738011 -0.0527304 3.81699 1.79626)
(1.49275 -1.17102 -0.499894 -1.56689 -2.2839 -0.376975 4.90979 2.27975 0.441957)
(4.41911 1.76836 -1.00402 -4.16938 -3.10625 -1.78909 1.60685 -2.33053 -0.424725)
(-1.5159 0.399257 0.300714 -4.0274 1.12226 -0.924247 -6.47838 -1.7584 0.561137)
(-0.918356 0.0194462 0.749483 -1.43561 1.6185 -0.500991 0.365021 2.11064 -0.272794)
(-1.40905 1.32796 0.150806 -2.1739 -1.48628 0.116232 3.88581 2.01743 1.93951)
(0.62037 -0.16706 0.226327 0.634377 -1.49235 0.235598 -1.23624 -2.28804 0.359135)
(2.63875 -0.570202 0.129199 5.37781 0.520337 -1.08566 2.12046 -0.509693 -2.17965)
(-1.0854 2.18594 0.145044 3.89723 0.261833 -1.08485 5.91636 1.17462 1.16562)
(-1.13416 -1.56393 -0.165645 3.44064 -1.31544 -0.420399 4.96233 0.625655 1.94952)
(1.595 -4.34637 -0.496502 3.26197 -2.85693 -1.57733 4.41068 2.84561 1.54819)
(-1.18676 0.518474 -0.320471 -4.11996 -0.0943347 -2.00992 5.62836 4.24928 1.25394)
(0.107224 3.10285 -0.876496 -1.0584 0.515097 -0.52505 1.82389 2.46654 -0.785733)
(2.07999 2.37758 0.469561 -3.68238 -1.79132 0.942399 -2.48371 0.980612 -0.482433)
(0.301261 -0.935372 1.04571 -1.3593 -0.994392 -0.321867 -1.2365 1.02561 0.900161)
(-0.987355 -2.48369 0.0768189 1.43795 -0.877147 -1.79538 -0.00989578 -0.589149 1.62211)
(-1.06139 0.74549 0.891609 -4.55546 0.958829 -0.891405 -0.443901 2.4328 -0.155142)
(-0.664254 1.37268 -0.015907 1.72123 0.391088 -0.855105 3.78701 4.38084 0.614583)
(-1.24133 -1.6678 -0.603261 4.53393 -0.526465 -0.28115 4.07366 0.195725 1.35258)
(1.1144 -1.46757 0.614481 -0.371913 -0.373322 0.658962 6.13375 -1.03366 -0.406315)
(-0.0297865 0.0426852 -0.0467209 2.32 -0.0148054 -0.236333 3.67043 2.31629 0.412342)
(-1.65612 0.694223 -0.848665 0.292796 0.299384 -0.697951 4.17485 4.15753 1.49917)
(0.469225 1.30556 0.144402 -3.02769 -1.2486 -0.695013 -0.795851 -1.59369 0.129668)
(2.41051 -0.545625 0.358236 -0.34666 -1.93013 0.19675 1.75813 0.327936 0.00393271)
(1.58896 -0.763916 -0.526749 -2.36711 -1.14394 1.16418 5.35945 0.677572 -0.466734)
(-1.94557 1.1585 0.477998 -0.78588 1.43991 0.223015 -0.0829203 -1.73804 -0.0751861)
(-0.95216 1.11468 0.586233 -2.36519 1.12702 -0.955505 2.911 4.2541 -0.028252)
(-1.17104 -1.00909 -0.994236 2.07485 0.843046 -0.200088 4.04017 2.80178 0.468632)
(-1.50125 -1.03318 -1.35118 1.11531 0.183461 1.07367 4.98041 0.427806 0.919233)
(-2.35025 -1.08722 -0.631154 2.90653 2.2196 1.21215 2.20928 -0.827213 -0.120083)
(2.03049 1.29068 -0.0216624 -2.33712 -0.0821109 0.867 1.81836 -0.846154 -1.7984)
(1.40571 0.712268 0.358659 -0.78083 1.17124 0.0164167 -2.07688 -0.589083 -1.36755)
(-4.5246 -1.72893 0.222664 3.56234 3.18428 0.88478 1.99956 2.62829 0.934679)
(2.17426 1.94963 -0.966311 -5.5875 0.0261821 0.972115 4.25892 1.46916 -1.98807)
(4.25922 2.1306 0.190751 -2.80819 -4.57869 -0.335046 -2.6751 -2.55907 -0.0266605)
(-2.3666 -2.46042 0.860219 5.78939 1.59456 0.283267 3.27342 -1.16477 0.354964)
(-1.35866 -1.01435 -0.541545 1.76645 3.41976 -0.0506425 0.143654 -0.322514 -2.36778)
(0.387673 0.320048 0.25091 2.42902 0.20234 0.121863 1.55325 -1.33804 -0.114499)
(0.387977 -0.54898 0.152307 2.53524 0.562125 -0.213782 3.59459 0.766585 -0.038734)
(1.46025 1.18816 -0.671259 0.90893 0.813125 0.248461 4.1457 1.56733 -1.88071)
(-2.58523 -0.963291 0.455051 1.2572 -0.516421 0.436093 1.45746 -0.570495 1.3145)
(-2.61513 -3.19711 -0.132482 4.75279 4.32311 0.0908115 0.878682 -2.87685 -1.72056)
(1.73458 1.69763 -1.21901 -4.95692 1.15806 1.09452 3.96442 -0.316654 -2.85363)
(2.20973 3.15977 0.172346 -5.39594 -1.28474 1.79337 -4.1209 -1.17647 -0.113342)
(0.234617 -0.668666 0.896756 -1.14386 -1.11604 1.21328 -4.51563 -3.47701 0.565465)
(-0.999861 -1.27335 0.132344 1.21614 -0.176063 0.173947 2.13999 1.02416 0.577609)
(2.90844 -0.222976 0.276864 2.79921 -1.5116 -0.711761 -2.7036 -0.954406 -0.303835)
(0.848055 0.118511 0.598496 -1.97731 -1.53062 -0.287549 -0.791973 -0.266059 1.11119)
(-0.518527 1.02496 0.135735 -2.55724 0.422056 1.3492 4.17012 2.87653 0.306028)
(1.39286 -0.189996 -1.12831 2.64833 -3.38024 -0.405262 0.336247 2.8523 1.89355)
(-3.00223 -0.511114 -1.08386 1.38191 0.985287 -0.0220158 2.1978 0.723953 1.78432)
(-2.53905 0.793892 0.954781 -4.06744 4.11859 0.688752 -6.69775 -1.01211 -1.34438)
(0.200003 0.654227 0.691563 -0.989969 2.429 0.619692 -0.401608 0.466283 -1.99732)
(1.19899 1.47306 -0.149603 -2.93474 -0.622077 1.80983 4.3762 -2.30636 -0.305812)
(1.17753 -1.04174 -0.171713 1.8166 -2.60986 -0.246982 3.75934 -0.847074 1.29776)
(-1.90756 -2.59725 -0.284916 1.29178 0.821783 0.101309 3.54443 1.17415 0.703113)
(0.725413 -0.308309 0.137598 -3.00209 -0.806203 -1.36783 2.5584 3.2296 0.676025)
(3.32139 0.89475 0.125601 1.19821 -3.2721 -3.46676 2.4223 1.25978 0.072842)
(0.0831646 0.990654 0.217355 -2.26803 -0.781354 -0.389539 6.53682 -0.265527 0.511605)
(-1.23066 -0.664636 -0.084085 -1.28015 -0.24779 0.758953 3.19506 3.77121 1.1375)
(-0.247675 -0.389568 -0.354063 0.717742 -0.524044 0.264058 1.42492 1.71352 0.238193)
(-2.16056 0.137987 0.259478 0.0995288 0.694925 -0.103383 4.73446 1.73954 0.783423)
(-1.5128 -0.701483 0.634236 2.93513 2.04728 -0.575153 7.76592 2.70995 -0.692202)
(0.525191 -0.796855 0.399418 2.09163 0.677881 -0.884831 -0.508554 -1.17839 -1.0502)
(0.0701385 0.785242 -0.398434 -4.65379 0.634471 -1.29011 0.769975 0.530309 -1.298)
(-1.00651 1.64051 -0.710581 -0.589071 2.90002 -0.256311 1.73538 0.465815 -1.20222)
(-0.288542 0.203835 -0.0508704 -1.43152 0.242537 -1.54387 1.14715 -0.486461 0.541808)
(2.25209 -0.121724 0.646449 -6.04188 -2.27131 -0.919378 1.57551 -2.50128 -1.12337)
(0.226689 -0.678429 -0.169723 5.01639 2.52218 1.07641 4.27113 -3.15971 -2.36807)
(-2.05925 -1.56994 -0.525498 1.59239 0.325396 -0.733468 -0.921337 -1.2268 0.524975)
(0.0752887 -1.50726 0.360712 8.7122 1.97208 -0.0903439 -3.08931 -1.54762 -1.11659)
(1.93303 1.8338 0.64917 -0.980213 -1.96103 -0.0599658 -2.68359 -1.89085 -0.431347)
(-2.91271 1.17593 0.184257 1.0598 1.52834 0.361699 -0.149807 -1.88037 0.793332)
(-2.19019 -1.8767 -1.00666 6.77809 3.41516 1.31337 2.28661 1.98389 -0.338941)
(4.15019 -0.0577559 -0.21771 -0.687616 -2.00809 2.63816 2.45105 -0.553489 -1.73436)
(1.1189 1.75126 0.434519 -5.0202 -0.895338 0.145242 0.916668 -0.19863 0.0723348)
(-1.13028 0.516161 -0.175216 1.74721 1.56333 -1.00212 0.860567 -0.928759 -0.399509)
(-0.949693 -1.11365 0.455992 1.32711 0.584426 0.0543733 0.135153 -2.1256 0.0361908)
(-1.10301 -2.16465 0.398636 1.91129 1.16172 -1.16092 3.84195 -0.295475 -0.552177)
(1.8432 0.187804 -0.199711 -0.604343 -0.460364 -0.969834 5.93495 1.4366 -1.99915)
(-0.299151 1.90507 -0.128818 -1.59467 0.98773 0.455592 5.76423 5.4745 -0.898009)
(-2.39629 -0.408063 -0.0939982 4.99897 5.28045 -0.880574 2.2849 0.0985183 -1.73482)
(-1.56628 -1.41046 -0.0604269 5.73598 5.04819 0.896063 -1.04569 -2.98987 -3.04541)
(0.980071 -0.636106 0.356222 -0.115851 -1.75628 1.40988 1.34054 0.95152 0.463963)
(2.92702 0.584036 -0.153235 -3.29175 -3.04473 -0.605479 5.87569 1.49559 -0.297447)
(0.858791 0.867557 -0.93988 -2.14727 0.338331 -0.00433296 3.6127 1.58332 -0.818692)
(-0.978055 -0.938427 -0.0301469 1.8616 0.357827 -0.810281 -0.247387 -0.955019 0.092177)
(-0.554319 0.586328 1.33778 -1.66256 1.85884 -0.498915 -3.55669 -1.28534 -1.48884)
(1.58293 1.03399 0.0776066 -3.32387 -1.32435 1.14887 4.15658 1.78718 -0.133245)
(1.32411 -1.12033 -1.02892 -1.50569 -2.09282 1.07057 0.391696 0.943711 0.20458)
(-2.62234 0.244635 0.0689591 -2.21914 1.0244 1.5702 3.74471 0.471707 0.479282)
(-2.65156 1.36024 0.15855 0.449679 1.29853 1.08273 5.3204 -0.534232 0.395564)
(0.756441 0.198285 -0.0996603 0.298606 0.426444 0.965952 4.76872 -1.4193 -1.05632)
(3.58754 -0.555205 -0.0770434 4.70257 -2.76096 1.07902 2.9662 -0.895591 -0.974069)
(2.77194 -0.128248 -0.0315505 2.64563 -3.15216 -0.705871 -1.04397 0.384139 0.263107)
(-3.79702 -1.47368 -0.590159 3.73688 2.64709 0.0912088 0.511098 -0.425328 0.794594)
(-0.951786 -1.6663 -1.19546 4.86139 1.16083 0.846227 0.491641 2.92843 0.282612)
(0.113565 1.34327 0.550393 -2.95657 1.47275 -0.744159 -2.75566 0.260372 -0.834835)
(-2.52288 0.284901 1.8619 -3.78686 4.01471 -0.998208 -3.07519 -1.27751 -2.04079)
(2.59015 -1.24897 0.92068 -1.41556 -0.804588 -0.115962 2.11004 3.30726 -2.53336)
(0.730886 0.536665 -0.562507 -3.34842 1.23697 0.412549 3.75524 0.943984 -1.81668)
(-0.447617 2.09824 -1.22261 -0.839931 1.8787 0.384314 1.55231 -1.72439 -1.10392)
(1.41588 1.11335 -0.253111 0.773271 -0.418635 -0.454151 -0.27174 1.04739 -0.276533)
(-2.05408 -1.36771 -0.0424732 1.373 2.34838 -0.599324 0.803095 3.00789 -0.625691)
(-0.065689 0.63408 -0.159519 3.50033 1.32886 -1.04013 -3.85506 0.0573196 -0.797638)
(-0.0372933 0.980628 0.226327 0.570215 -0.813275 -1.39099 0.207816 -1.71519 1.269)
(-3.97648 -1.89363 0.153178 3.3735 2.15315 -0.876454 4.49653 1.49288 0.738984)
(2.78796 0.361234 0.637314 5.94731 1.7223 0.227435 -0.757965 -1.0309 -3.32003)
(3.71811 1.53963 -0.0378878 -5.92375 -2.41773 -1.14346 -3.61989 -0.635486 -0.489172)
(5.20271 1.12631 -0.0799816 -5.48274 -6.01378 -1.37204 -7.30911 -1.86184 0.603849)
(0.529684 -0.139619 0.359466 1.24301 -0.7514 -0.374938 -3.98106 1.89644 0.914904)
(-2.48155 0.586092 0.617547 -1.73118 1.56452 -0.733494 -1.75463 -0.765679 0.146914)
(-0.388298 1.3 0.925403 -6.21623 1.0575 -1.20051 -2.29005 0.217571 -1.13965)
(0.878642 -0.217025 0.200682 7.07252 -1.00404 -1.02412 -0.766389 1.85519 0.102875)
(-1.81792 -0.285126 -0.447111 5.85811 0.268337 1.43469 2.19072 -0.170355 0.993729)
(-0.797444 -0.240722 -1.0505 -0.926635 0.902699 0.307337 2.78078 0.694854 0.201826)
(1.9262 -0.114169 -0.554951 2.63276 -1.89025 -0.140092 2.41315 0.232153 0.0970934)
(0.3504 -0.0168952 0.187903 4.20663 -0.0323751 0.152172 -1.21332 -4.18081 0.678236)
(-0.740896 -1.23323 -0.351981 2.88249 0.816301 -1.55042 2.36755 -0.83318 0.604678)
(-0.307839 1.00769 0.202919 -3.2518 1.97541 -1.93422 -0.850794 2.54206 -1.55775)
(0.504212 2.24982 0.447841 -3.57807 2.01205 -0.320608 -1.31021 -0.259175 -0.529512)
(1.17454 -0.855328 0.0975294 -2.42863 -2.44961 -1.44547 2.90802 -0.81223 1.22204)
(-1.19596 -2.20371 0.0642449 6.64312 1.41399 -0.988027 0.540717 0.341773 0.391514)
(-2.54461 -1.34728 -0.58309 5.4104 1.82322 0.702871 -1.48736 -3.47642 0.598784)
(-0.56512 0.522433 0.0739873 -8.31361 0.382212 -2.08717 -3.72357 -3.25487 -0.68519)
(1.8193 0.671149 -0.0705093 -0.606813 -0.586512 -1.60826 1.23632 2.84584 -1.46941)
(2.80416 0.493862 -0.00540064 2.2336 -1.56189 -0.47359 -0.856658 -0.0691351 -0.272084)
(-1.94612 -0.703987 1.67323 1.85285 2.08568 -0.549589 -2.51647 -2.77367 0.42453)
(-0.246695 -1.00634 0.937551 -1.75723 -1.49041 -3.05134 4.96743 2.88143 0.733025)
(1.95471 0.933211 -0.902606 -3.92196 -0.607801 -1.45645 4.0569 3.25427 -0.458858)
(-1.96213 1.30162 -0.972742 -3.35176 3.10319 0.0702162 2.30459 -2.83488 -0.621698)
(-1.25454 0.537914 0.571621 2.00475 1.11308 -0.298549 -1.16187 -3.05977 -0.153703)
(2.43766 -1.47482 0.617679 8.27446 -1.34578 -0.793811 5.53847 1.69922 -0.341995)
(2.62321 -0.551726 -1.00273 2.2817 -2.83105 -0.738525 6.02904 1.50917 -0.025481)
(0.825959 1.82243 -0.666941 -1.88237 -0.708479 0.11377 -0.869568 -0.483915 -0.0694525)
(-0.939993 -0.27711 0.485479 -0.541016 0.320105 -1.48625 2.31253 1.02422 0.886369)
(-2.86923 -1.03574 -0.413249 5.36588 2.1837 1.30813 2.41936 1.30276 0.218377)
(-1.41774 2.40315 -0.784253 -5.65803 2.4286 3.45982 4.84459 -3.48603 -0.204283)
(0.638568 -0.244659 0.689999 2.50978 0.720423 0.363156 -3.21867 -2.18887 0.614768)
(-0.657639 -2.14624 0.732791 4.07153 0.824115 -1.03165 0.569442 2.58144 -0.39618)
(0.137353 1.07456 -0.115759 -5.46017 1.10002 -2.40887 -0.54894 1.29534 -1.52646)
(0.114828 -0.535087 -0.321037 6.7131 2.03137 -1.2856 1.69348 1.66093 -1.06376)
(-0.108401 -0.294864 0.0476862 1.84203 -0.499978 0.839487 -1.69851 -0.733478 0.572642)
(1.69295 0.04986 0.0578829 0.882783 -0.0177808 1.33006 1.09692 -1.13142 -0.593275)
(-0.355048 -0.85438 -0.783813 5.51803 0.342837 1.26987 4.74718 -0.971779 0.264111)
(-0.983568 2.00437 -0.541184 -1.28166 -1.54589 0.397065 -0.182111 -3.25334 1.18472)
(2.14114 1.31695 0.799961 6.66227 -0.0930513 -0.214236 -6.1185 -1.88042 0.157312)
(-2.48025 -2.42835 0.508311 11.9475 2.50387 -0.0383258 -3.24273 -2.21076 1.70552)
(-1.69522 -1.19502 -0.651872 -0.472313 -1.14058 -1.49426 -5.36609 -4.32668 2.05459)
(-0.596808 -1.14275 0.038274 -4.12313 -0.391008 1.03393 -4.29918 -2.78109 0.485673)
(1.87036 2.15977 0.659098 -7.723 -1.21535 1.77559 -4.73075 -2.39908 -0.450154)
(-1.9555 2.5659 0.260365 -0.552061 1.88142 1.46728 -2.95851 -4.06378 0.0578313)
(1.43237 -0.0135011 0.115815 1.62656 0.276637 -0.927096 -0.848357 -1.21009 0.0521024)
(3.73334 -2.09464 0.335036 1.78115 -2.40367 -1.21351 1.1921 1.3168 -0.259436)
(-0.132053 0.812901 0.383837 -1.98978 -0.578427 -1.10848 1.40922 0.0777851 0.402292)
(-0.56317 0.560993 -0.436726 7.38802 -0.840458 0.0867162 7.4047 1.02917 0.675537)
(1.54739 0.0217057 -0.282294 3.21844 -0.295114 2.17197 4.38357 -1.05027 -0.899761)
(-0.714691 0.251339 -0.22768 3.4138 -0.0508574 -0.395891 0.931296 -3.48689 0.444103)
(-4.55665 -1.14135 -0.644965 1.75418 1.23877 -0.357432 -3.90979 -1.01769 1.97063)
(-1.37258 0.82136 0.411814 3.3004 2.08653 1.0104 -6.70325 0.724231 -0.259572)
(0.158734 -0.132122 0.152114 3.67227 -1.0265 0.503791 2.3535 0.10509 0.235064)
(2.70661 -0.728321 -0.388573 -0.437098 -3.17382 0.667153 -3.00416 -2.18786 0.173455)
(2.13191 0.514794 0.955194 -2.7015 -2.90028 -1.708 -7.78978 -0.217074 1.30874)
(-6.33235 -1.18312 -0.243036 0.49357 2.87455 0.964855 6.27 2.76498 2.57546)
(-0.203503 -0.548041 -1.21295 -2.59744 1.29402 1.35087 3.00702 1.50547 -0.846401)
(5.87665 -0.0591144 -0.106502 5.66179 -3.75309 -1.77367 -1.82984 -0.087772 -0.770622)
(0.515808 0.441027 0.466999 -3.03632 -2.81644 0.806896 3.61367 0.536613 1.80409)
(-2.54651 0.502371 0.163282 -1.31418 0.434471 0.977268 -1.05576 -0.882541 1.05444)
(-1.28304 -0.410727 -0.2681 4.34334 1.76357 -3.56075 -1.7639 1.76302 -0.141957)
(0.636082 1.21383 0.441801 -5.69287 0.254667 -3.46848 0.466986 3.1596 -0.61036)
(0.208265 1.14524 0.515485 -1.91663 -0.385604 0.198081 1.39176 0.260215 -0.190661)
(2.91041 -0.794311 -0.20778 4.36738 -2.79279 0.334209 -6.49624 -2.19281 0.171179)
(1.03884 -1.79766 -0.240082 3.29672 -2.39881 -2.42571 -5.05143 -1.01516 0.44216)
(-1.24818 -0.256971 0.263017 -4.72503 1.22413 -2.15255 2.10315 3.12335 -0.511883)
(1.27539 1.52226 -0.438888 -3.74803 0.9181 0.523813 1.51439 0.748416 -1.17832)
(-0.148806 -0.0128366 0.0660097 -5.88764 -0.4973 -0.16281 -1.68892 -3.64823 0.0356347)
(-3.51825 -0.623288 1.18783 -0.60892 1.87834 -0.606295 -3.34842 0.512645 1.00388)
(-1.36086 0.755644 -0.0127566 3.47639 0.675241 1.3029 3.03684 1.75793 0.839571)
(2.31296 -0.513318 -0.344322 1.32777 -3.99081 0.946877 -1.09408 -0.541505 1.39399)
(-1.43099 -1.15314 -0.392244 -3.08429 -1.02531 0.0857747 -2.29473 1.42499 1.43261)
(1.91175 1.14995 -0.640584 2.29808 -1.14312 0.0021102 1.74957 -2.6223 -1.01197)
(3.01709 1.11075 0.377904 4.88195 -3.03731 -1.09167 -3.40775 -1.32841 0.565068)
(-1.44827 0.0273384 0.996991 -0.632227 -0.0768517 -0.955771 4.39408 1.62567 1.36372)
(0.00518102 -0.844772 0.167847 1.5149 -1.54798 0.0182894 5.31964 -1.38474 0.951633)
(-1.10382 -0.21566 -0.652455 -3.26043 0.403675 1.54345 8.60901 -0.036696 -0.177181)
(0.411527 0.869988 -0.537263 1.35216 1.46528 2.30784 0.927212 0.436485 -1.06797)