/*--------------------------------*- C++ -*----------------------------------*\
  =========                 |
  \\      /  F ield         | OpenFOAM: The Open Source CFD Toolbox
   \\    /   O peration     | Website:  https://openfoam.org
    \\  /    A nd           | Version:  10
     \\/     M anipulation  |
\*---------------------------------------------------------------------------*/
FoamFile
{
    format      ascii;
    class       volScalarField;
    location    "6";
    object      p;
}
// * * * * * * * * * * * * * * * * * * * * * * * * * * * * * * * * * * * * * //

dimensions      [0 2 -2 0 0 0 0];

internalField   nonuniform List<scalar> 
102400
(
0.00436021
-0.0110646
0.00647738
0.00721771
-0.000678411
0.00575759
0.011758
0.00653283
0.00830049
0.00786136
-0.00224034
0.00245671
0.00925032
0.0103425
-0.00144042
-0.00677163
0.00331772
0.0104271
0.0120837
0.00752268
-0.00107749
-0.00238492
0.00197812
0.00222245
-0.00837655
-0.0103977
-0.00591695
0.00019764
0.00483604
-0.00466548
-0.00915737
0.00483708
0.0087782
0.0131985
0.00505092
-0.0130892
-0.0027799
0.00487613
-0.00332753
0.00801623
-0.00795346
-0.0232326
-0.00474944
-0.0026137
-0.011369
-0.00331778
-0.000653298
-0.00618278
-0.00352722
-0.00368396
-0.0149801
-0.00921946
-0.0024855
0.000433087
-0.0121055
-0.0183135
-0.00768449
-0.00162356
0.00292302
0.000442036
-0.0110841
-0.0142568
-0.00934399
-0.00962944
-0.0179755
-0.0193279
-0.0157639
-0.00613399
-0.00457388
-0.0179199
-0.0222803
-0.00704335
-0.00376015
0.00136097
-0.00603664
-0.0240178
-0.0148772
-0.00665062
-0.0145005
-0.00371342
-0.000246458
-0.0149373
-0.000199152
0.00335986
-0.00435337
0.0016695
0.00650253
0.00580867
0.00543564
0.00338448
-0.00714538
-0.00366917
0.00442335
0.00554836
-0.00501274
-0.0126739
0.00212199
0.00776119
0.00786721
0.00612535
-0.00546067
-0.00558663
-0.000545828
-0.00273903
-0.0125242
-0.0128458
-0.00914632
-0.00451159
0.00249286
-0.00895627
-0.0117941
0.00373222
0.00604615
0.00879885
-0.000187364
-0.0177356
-0.00664988
0.00144821
-0.00660105
0.00500108
-0.00589618
-0.0156702
0.000474876
0.00158894
-0.00988505
-0.00391748
0.002428
-0.00555427
0.00157397
-0.000599995
-0.0104898
-0.00579246
0.000146643
7.5854e-05
-0.0099048
-0.0134372
-0.0038442
0.0031033
0.00377659
0.00139044
-0.0102864
-0.0124563
-0.00514677
-0.00511556
-0.0179398
-0.0177876
-0.0144923
-0.00554955
-0.000777041
-0.0153019
-0.0164621
-0.00407323
0.000910964
0.00414074
-0.0043479
-0.0228392
-0.0134334
-0.00295351
-0.0138848
0.000749735
-0.00267671
-0.0164482
0.00118253
0.0033945
-0.00554011
0.00108369
0.0046488
-0.00284857
0.000648451
0.00320026
-0.00438211
-0.00240282
0.00522715
0.00297901
-0.0101532
-0.0114534
-0.00125305
0.00930603
0.00974503
0.00473708
-0.00779083
-0.00767586
-0.00155718
-0.00376516
-0.0110507
-0.0150069
-0.0104821
-0.00545152
-0.000269095
-0.0122511
-0.0157731
-0.00291682
0.00465601
0.00837127
-0.00132854
-0.0219587
-0.0101549
1.27949e-05
-0.00862917
0.00145499
-0.000301497
-0.0188105
-0.00116624
0.000655961
-0.00759189
0.000302323
0.00109183
-0.00119778
-0.00394351
-0.000996541
-0.00785363
-0.00448001
0.00411087
0.00344357
-0.0101521
-0.0155487
-0.0064561
0.00508176
0.00624937
0.000816964
-0.00918368
-0.00967891
-0.000781803
-0.00874029
-0.0148137
-0.0158038
-0.0154206
-0.0092932
-0.00625341
-0.0172684
-0.0176463
-0.00335144
0.0022571
0.00816535
-0.00262806
-0.0227935
-0.0129719
-0.0016814
-0.0125784
0.00103286
0.000580637
-0.0129872
-0.000295992
0.00297625
-0.00730428
0.000590259
0.00505748
0.00017404
-0.000835068
-0.000613767
-0.00620891
-0.00405021
0.00811239
0.00304015
-0.00898524
-0.0133304
-0.00601273
0.00383935
0.0136432
0.0023931
-0.00512433
-0.0070035
-0.00371483
-0.00261279
-0.016823
-0.0148916
-0.0125648
-0.00676993
-0.0036215
-0.0111775
-0.0153205
-0.00258942
0.00142362
0.00648017
-0.00360422
-0.0192689
-0.00853129
0.000913848
-0.00885902
0.00190067
-0.000656809
-0.0177049
-0.0038457
0.00082385
-0.0054376
0.00323094
-9.35666e-05
-0.000916423
0.00209509
0.00245553
-0.00632169
-0.00220642
0.00512421
0.000590785
-0.00958528
-0.0116245
-0.00208177
0.00556687
0.00961072
0.00274422
-0.00515343
-0.0132624
-0.00614261
-0.00590301
-0.0177032
-0.0166736
-0.014195
-0.0101213
-0.00506108
-0.0115021
-0.0157089
-0.00326901
0.00317676
0.00548573
-0.00422261
-0.0171292
-0.0114774
-0.0012754
-0.00754612
0.000992859
0.00159185
-0.0148535
-0.00505174
-0.00223605
-0.0068608
0.0030697
0.00150183
-0.000866499
0.0045104
0.00582444
-0.00327076
0.000748895
0.00388126
0.00394607
-0.00523575
-0.00942666
-0.00151527
0.00685552
0.00905217
0.00218315
-0.00608337
-0.0131319
0.000678834
-0.00748148
-0.0168794
-0.0177815
-0.0121489
-0.0108378
-0.00757078
-0.0144414
-0.0175681
-0.00472105
0.0036014
0.00643648
-0.0033289
-0.0172539
-0.0119337
-0.00432607
-0.00904679
-0.000778601
0.00207861
-0.0127627
-0.00350197
-0.000919442
-0.00566195
0.000780009
0.0013012
-0.00168666
0.00629482
0.00566958
-0.00303759
-0.00115132
0.00402524
0.00258296
-0.00459923
-0.0138927
-0.00457843
0.00537965
0.00794096
0.00386611
-0.00521221
-0.00761398
-0.00209064
-0.00583454
-0.015426
-0.0169205
-0.0100726
-0.00988258
-0.00742003
-0.0131686
-0.0192207
-0.00792699
-2.29345e-05
0.00292043
-0.00291889
-0.0156027
-0.00837249
-0.00422519
-0.0105285
-0.000434677
0.00295202
-0.0139179
-0.00310501
0.00202578
0.0045087
0.0015932
0.000554004
-0.0011693
0.00661488
0.00255008
-0.00597107
-0.00810829
0.00418582
0.00244818
-0.00524574
-0.0098699
-0.0017473
0.00713582
0.0131156
0.00481515
-0.00590772
-0.00906417
-0.00368404
-0.00660134
-0.0167615
-0.0160509
-0.00968716
-0.00596303
-0.00387292
-0.0086051
-0.0187278
-0.00997399
0.00281102
0.00187294
-0.00412045
-0.0139893
-0.00599892
-0.00296403
-0.00815989
0.00298037
0.00174492
-0.0148582
-0.00488043
0.00133733
0.0039969
0.00226277
-0.00010321
-0.000462992
0.0057071
0.0024438
-0.00556816
-0.011049
0.0011257
0.00343093
-0.00379911
-0.00428557
-0.00100934
0.00852568
0.0144744
0.00346905
-0.00914888
-0.00948817
-0.00714438
-0.00890741
-0.0213409
-0.0182029
-0.0125568
-0.00640359
-0.00317947
-0.00872751
-0.0164866
-0.00821078
0.00408819
0.00256486
-0.00528424
-0.0120455
-0.00787655
-0.00368264
-0.00485698
0.00367365
0.000566863
-0.0135515
-0.00521667
0.00116617
-0.000130036
0.00346786
0.0010996
0.000729059
0.00760745
0.00495786
-0.00833209
-0.00685618
0.00151686
0.00626844
-0.00277263
-0.003821
-0.00263816
0.00821587
0.0129766
0.00500494
-0.00856319
-0.00606344
-0.005087
-0.00332493
-0.0232702
-0.0205675
-0.012329
-0.00663611
-0.00193836
-0.00660111
-0.015301
-0.00636126
0.00254898
0.00284531
-0.00465062
-0.012061
-0.00946223
-0.00470655
-0.00305457
0.00403257
0.00116775
-0.0117734
-0.00798872
0.00101144
-0.00186664
0.00359055
0.00227198
0.00121494
0.0105287
0.00378527
-0.0137479
-0.0117301
0.000743787
0.00762299
-0.00247144
-0.00679509
-0.00554513
0.00635511
0.0110506
0.00464783
-0.00664867
-0.00556872
-0.00636792
-0.00195932
-0.0233783
-0.0190789
-0.00916199
-0.00114535
0.000724674
-0.00502463
-0.0122068
-0.0048399
0.00311998
0.00253026
-0.0060024
-0.00898592
-0.00700937
-0.00639325
-0.00318345
0.00399329
0.00365068
-0.00919907
-0.00945213
-0.00022173
-0.00166303
0.00250206
0.00145622
0.000437152
0.0138384
0.0014115
-0.0138232
-0.0114105
0.0010534
0.00319172
-0.00171293
-0.000727887
-0.00084361
0.00550509
0.00814829
-0.00112526
-0.00923699
-0.00822482
-0.00700493
-0.00266282
-0.0203437
-0.0159809
-0.00837858
0.000464914
0.00247788
-0.00293318
-0.00765706
-0.00286944
0.00329164
0.000799805
-0.00823648
-0.00583075
-0.0037667
-0.00642043
-0.00377991
-4.25349e-05
0.00281264
-0.00401726
-0.00585684
-0.0022937
-0.00308059
0.00233329
-0.00101204
0.00258652
0.016598
0.000349848
-0.0156874
-0.00940386
0.00286172
0.00128709
0.000409301
-0.0030405
-0.00324868
0.00595411
0.00759396
0.00101228
-0.00583425
-0.00372566
-0.00555907
-0.00578373
-0.0205032
-0.0209096
-0.0130104
-0.00372972
-0.00199629
-0.00325917
-0.00647417
-0.00491781
-0.00180524
-0.0029325
-0.00830778
-0.00820473
-0.00826982
-0.00526336
-0.000966246
0.000879347
0.000185709
-0.00206588
-0.00436476
-0.00446344
-0.00318537
0.00453173
0.00123978
0.00096308
0.0147932
0.00147369
-0.0143707
-0.00920098
0.00129673
0.00212345
0.00106633
-0.0092025
-0.0047326
0.00660198
0.0106639
0.00410145
-0.00190744
-0.000225081
-0.00591746
-0.0140924
-0.023748
-0.0218729
-0.0142642
-0.00681504
-0.00250865
-0.00192797
-0.00118598
-0.00775052
-0.00689452
-0.0047723
-0.00668496
-0.00356705
-0.00397532
-0.0041858
0.00154451
0.00464924
-0.000740945
-0.00321975
-0.00510487
-0.00311198
-0.00117518
0.00593673
0.00573311
0.00173024
0.0109593
0.0023805
-0.0126525
-0.00610351
0.00235606
0.00337086
0.00322486
-0.00288648
-0.000863407
0.00518068
0.00903728
0.00432688
0.00161815
0.00110769
-0.00502444
-0.0139538
-0.0231921
-0.0219912
-0.0147714
-0.00396826
0.00298472
0.000518019
-0.000958327
-0.00676903
-0.00592916
-0.00192886
-0.00380846
-0.00247368
-0.00329384
-0.00328506
0.000802465
0.00268013
0.00294069
0.000900186
-0.00250592
0.00023152
0.00019109
-0.000487283
0.004575
0.00584399
0.0108366
0.00186639
-0.0110172
-0.00226246
0.0010376
0.00284332
0.00646254
0.000532428
-0.000647863
0.00336235
0.00575273
0.00148214
0.00187682
0.00424289
0.00018764
-0.00745083
-0.021678
-0.027047
-0.0157003
-0.00135784
0.00512987
0.00632456
-0.00140063
-0.00808891
-0.0058728
0.00124944
-0.00185524
-0.00245032
-0.0015257
-0.00210137
-0.00288723
0.000938014
0.00210339
0.00131343
0.00164395
-1.0001e-06
-0.000156896
-2.00103e-05
0.00363222
0.00434439
0.00740761
0.00364783
-0.00463166
-0.00313638
0.00374452
0.00568876
0.00389158
0.00283427
-0.00152816
0.0013242
0.0043948
-0.00362378
-0.000353065
0.00368847
0.00345118
-0.00415449
-0.0200215
-0.025924
-0.0113671
0.00110905
0.00128162
-0.000593893
0.000288975
-0.00251069
0.00150544
0.00459618
0.000778646
-0.00421975
-0.00392089
-0.00202981
-0.000563998
0.00305515
0.00101313
0.00126782
0.00273651
-0.002555
-0.000961515
0.00543007
0.00679009
0.00302793
0.00588102
0.00560632
-0.000944235
0.000672231
0.00717898
0.00726687
0.00247861
-0.000588735
-0.00127209
0.00169213
0.00488131
0.00956749
0.000924673
-5.50914e-05
0.00273929
-0.00200893
-0.0114664
-0.017832
-0.00859104
0.00121466
0.000343869
-0.00219501
0.000448265
-0.000623428
0.000873441
0.00474885
0.00280311
-0.00197455
-0.00356316
-0.00249325
0.00141938
0.00428569
0.00106032
-8.04306e-05
0.00176524
-0.000701981
0.0024523
0.00680949
0.00547614
0.00241206
0.00483879
0.00500236
-2.11506e-06
-0.000295294
0.00438478
0.00667079
0.00657865
0.00369769
0.00504962
0.00700786
0.00446329
0.00204551
-0.000134098
-0.00147464
0.00238376
0.00111075
-0.00593806
-0.0116703
-0.00922758
-0.00122945
0.00213261
0.000370944
0.00142354
0.00171429
0.00193399
0.00434461
0.00392911
-6.57411e-05
-0.00312767
-0.0030265
9.51795e-05
0.00213553
-0.00681774
-0.00567664
0.000946012
0.00309161
0.00327864
0.00538635
0.0045567
0.00275373
0.00401198
0.00364317
0.00149818
0.00167679
0.00466656
0.00767027
0.00958427
0.00335077
0.0039787
0.00728571
0.00477446
0.00189149
0.0014521
0.0016876
0.00444906
0.00239379
-0.00444852
-0.00605245
-0.00479883
-0.000561019
0.00362943
0.00135662
0.00196902
0.00426157
0.00494003
0.00441105
0.00302597
0.00120199
-0.00166896
-0.00317356
-0.0023843
-0.00268426
-0.0050124
-0.00472084
0.0020238
0.0033789
0.00310336
0.00473724
0.00418882
0.00229852
0.00261167
0.00321929
0.00355337
0.00488628
0.0052844
0.00648954
0.00787786
0.00409404
0.00409836
0.00597487
0.00441027
0.00324902
0.00262373
0.00194549
0.00577802
0.00554973
0.00131558
-0.00167097
-0.00188641
-0.000566672
0.0018704
0.00052038
0.00139822
0.00379933
0.00431824
0.00397171
0.0021267
0.00157049
0.000702079
-0.00147878
-0.00136332
-0.00163345
0.00111505
-7.77932e-05
0.00414327
0.00451962
0.00278846
0.00355826
0.00339576
0.00181899
0.00324351
0.00438879
0.00428129
0.00446296
0.0045317
0.00574229
0.00686332
0.00416838
0.0044737
0.00642174
0.00434877
0.00254575
0.00279235
0.0011323
0.0024572
0.00386424
0.00202145
-0.000369023
5.97457e-05
0.000176005
0.000210618
0.000288808
0.00202777
0.00370527
0.0030658
0.00247242
0.000801076
0.00205597
0.00277148
0.000837218
0.00299333
0.00637604
0.000877901
8.46733e-06
0.00269772
0.00343668
0.00210585
0.00371987
0.00448161
0.00295558
0.00293457
0.00187235
0.00174104
0.00331984
0.00384773
0.0048412
0.00562179
0.00332715
0.00357723
0.00630957
0.00505911
0.00285823
0.00335455
0.00308558
0.00272831
0.00404786
0.00197612
-0.000860324
-5.73183e-05
0.00199338
0.00276282
0.00322612
0.0039517
0.00531122
0.00350619
0.000120485
-0.00214833
0.000796686
0.00380074
0.00255957
0.00265632
0.0044897
0.00256341
0.00125266
0.00323792
0.00392531
0.00249873
0.00350392
0.00345123
0.00205176
0.00208427
0.00142284
0.00164008
0.00287738
0.00324676
0.00462442
0.00652329
0.00494222
0.00372472
0.00540837
0.00525887
0.00333027
0.00352502
0.00310924
0.00156088
0.00201545
0.00152012
0.000416852
0.00135265
0.0027955
0.00339053
0.00346195
0.00355282
0.00428034
0.00569825
0.0062156
0.00375476
0.00223041
0.00374279
0.00188642
0.000931531
0.00287886
0.00315362
0.0017465
0.00316716
0.004092
0.00301148
0.00355971
0.00368563
0.00279
0.00343996
0.00334293
0.00310903
0.00334455
0.00286561
0.0038678
0.00614484
0.00500841
0.0031484
0.00473873
0.00560984
0.00427916
0.00348328
0.00246139
0.00107988
0.0017448
0.00272389
0.00255704
0.00286285
0.00323884
0.00393055
0.00422583
0.00445315
0.0047496
0.00501234
0.0054286
0.00432617
0.00238574
0.00320814
0.00264825
0.00165353
0.00312701
0.00292071
0.00187299
0.00239159
0.00413016
0.00434423
0.00602805
0.00435751
0.00355219
0.00352484
0.00233875
0.0014491
0.00279015
0.00337862
0.00413693
0.00640992
0.00636067
0.00483417
0.00552139
0.00577915
0.00423331
0.00349
0.00294901
0.00239155
0.0028389
0.00309668
0.00227446
0.00164059
0.00190869
0.00335288
0.00434497
0.00457929
0.00478836
0.00499164
0.00597637
0.00629513
0.0040774
0.00390012
0.00384292
0.00225344
0.00227855
0.00291545
0.00239659
0.00125663
0.0019766
0.00315886
0.00382356
0.00284941
0.00221716
0.00274473
0.00325193
0.00355285
0.00428606
0.0048117
0.0044468
0.00525589
0.00538411
0.0046905
0.00484366
0.00533972
0.00460273
0.00435356
0.00361529
0.00296017
0.00262257
0.00265549
0.00362555
0.00375974
0.00326764
0.00381283
0.00447059
0.00498734
0.00547041
0.00502039
0.0047389
0.00625898
0.00511471
0.00358458
0.00361074
0.0027385
0.00188268
0.00283106
0.00334517
0.00197827
0.00107335
0.00223564
0.00336525
0.00325213
0.00289293
0.00301544
0.00282152
0.0018838
0.00298282
0.00446423
0.00411467
0.00408205
0.00528462
0.00515132
0.00381368
0.00361819
0.00292107
0.00253978
0.00199939
0.00189532
0.00267055
0.00297191
0.00381564
0.00402018
0.00384243
0.00449908
0.00452058
0.003251
0.00329193
0.00235135
0.00204048
0.00407131
0.00445951
0.00304732
0.00363465
0.00361989
0.000640458
0.00376605
0.00473676
0.00368535
0.00199965
0.00288721
0.00367037
0.00327079
0.00358241
0.00365791
0.00304039
0.00297544
0.00354944
0.00456625
0.00427694
0.00390053
0.0051228
0.00499384
0.00311535
0.00282433
0.00315616
0.00292555
0.00311647
0.00311797
0.00291724
0.00341473
0.00411114
0.00337138
0.00239974
0.00292895
0.00369134
0.00302916
0.00304428
0.00354818
0.00374084
0.00461477
0.00525797
0.00386189
0.00385753
0.00430055
0.00201156
0.0037492
-0.00386754
-0.00339467
0.00261817
0.00113512
-0.00103534
0.00506136
0.00942486
0.00746253
0.00751389
-0.00333801
-0.0134249
-0.000202069
0.00838527
-0.00367831
-0.0149257
-0.00193775
0.00675207
0.0131464
0.006167
-0.00793829
0.000493942
0.00657237
-0.0103268
-0.0186214
-0.00721504
-0.0053663
-0.000197649
0.000375279
-0.00518564
-0.0110585
0.00186571
0.0137696
0.00788201
-0.00357563
-0.00996691
-0.000876346
-0.00188951
-0.000779162
0.00573328
-0.00701004
-0.0138587
-0.0106219
-0.00628677
-0.0101483
-0.0132173
-0.00702069
-0.00249338
-0.00528039
-0.00171776
-0.0149941
-0.0254968
-0.0124325
-0.00193436
-0.0145688
-0.025342
-0.0138624
-0.00507741
0.001562
-0.00506116
-0.018578
-0.0104625
-0.00470542
-0.0210022
-0.0297453
-0.0183536
-0.0160712
-0.0113218
-0.0116211
-0.0171343
-0.0237471
-0.0108354
0.00233229
-0.00317912
-0.0155999
-0.0223091
-0.0128266
-0.0147026
-0.0116812
-0.00486206
-0.000622134
-0.00538795
-0.00865673
-0.000851928
-0.00405395
-0.00377981
0.00388518
0.00597872
0.00236419
0.00587027
-0.00728325
-0.0178122
-0.00529465
0.00300745
-0.0104844
-0.0186793
-0.00544735
0.00203031
0.00648788
0.000362472
-0.0124918
-0.0029766
0.0035113
-0.0168235
-0.0245557
-0.0129773
-0.0103615
-0.00604665
-0.000662223
-0.0062595
-0.0155331
-0.00473342
0.00909887
0.00260818
-0.0087722
-0.0130157
-0.00551288
-0.00598265
-0.00578282
-0.000565324
-0.00253979
-0.0118532
-0.0136009
-0.00728593
-0.00947189
-0.00957852
-0.00123162
0.00150938
0.000825637
0.00185178
-0.00985731
-0.0240765
-0.010787
-0.000539302
-0.0143857
-0.0216966
-0.0102474
-0.00260018
0.00307938
-0.0020541
-0.0159901
-0.00431499
2.68557e-05
-0.0198243
-0.0286858
-0.0167478
-0.0135073
-0.00842165
-0.00623554
-0.0135326
-0.0189804
-0.00517899
0.0042223
-0.00094587
-0.0114121
-0.0198101
-0.00802022
-0.00872005
-0.0092772
-0.0041565
-0.00113468
-0.00750665
-0.0109543
-0.00510153
-0.00610531
-0.00835509
0.000409578
0.000206534
-0.000160033
0.00310339
-0.00457613
-0.0181587
-0.00719169
0.00276218
-0.00960104
-0.0215287
-0.00489034
0.00284611
0.00436159
0.000755077
-0.0120172
-0.00459472
-0.00112046
-0.016463
-0.0252571
-0.0152249
-0.0103709
-0.00694921
-0.000142409
-0.00967416
-0.0194575
-0.00446314
0.0100163
0.00105972
-0.00871417
-0.0151624
-0.00684463
-0.00554091
-0.00627627
0.0029236
-0.000977201
-0.00933779
-0.0141478
-0.007897
-0.0120602
-0.0120122
-0.00561439
0.00192239
-0.00180848
-0.00326854
-0.00730309
-0.0195825
-0.00940419
0.00334001
-0.0102396
-0.0235605
-0.0103354
0.00162785
0.00440006
-0.000268914
-0.0131327
-0.00458502
-0.00311246
-0.0196146
-0.0263781
-0.0179278
-0.012205
-0.00991443
-0.00593755
-0.00824993
-0.0196238
-0.0052083
0.00984339
-0.00114126
-0.0122635
-0.0175504
-0.00873037
-0.00717134
-0.00742095
-0.00161362
0.000620233
-0.0108185
-0.0130428
-0.00817559
-0.0119071
-0.009497
0.000734773
0.00482061
-0.00190891
0.000374465
-0.00639128
-0.016711
-0.00728474
0.00304301
-0.00991652
-0.0221504
-0.0103661
0.00239903
0.00503585
0.000616622
-0.0119808
-0.000690536
0.000369619
-0.0211292
-0.026991
-0.0170528
-0.0121604
-0.00949936
-0.00412325
-0.00856977
-0.0196955
-0.0033979
0.00990254
5.80586e-05
-0.0108184
-0.013385
-0.00815763
-0.00684121
-0.00722396
0.000200627
0.000419004
-0.0133662
-0.0123708
-0.0105332
-0.0107702
-0.00922066
-0.00424616
0.00309018
-0.00516457
-0.00295525
-0.00366394
-0.0202555
-0.006422
-4.08987e-05
-0.0111282
-0.0216234
-0.0102471
0.000333727
0.00518447
0.00208645
-0.0126482
-0.00712996
-0.00029063
-0.0204738
-0.0269372
-0.018202
-0.0143598
-0.0109037
-0.00442993
-0.0107164
-0.0201351
-0.00226863
0.00850868
-0.00170308
-0.00808445
-0.0177443
-0.011411
-0.00712837
-0.00602404
0.00114706
-0.00111538
-0.0136983
-0.0145241
-0.0124289
-0.011919
-0.00895448
-0.00130175
0.00460053
-0.00509242
-0.00216822
-0.00116418
-0.0195616
-0.00859859
0.00135641
-0.00876014
-0.0171651
-0.00954846
0.000657935
0.00910018
0.00316823
-0.0133585
-0.000585223
0.0005329
-0.0258347
-0.0285567
-0.0182938
-0.0139984
-0.0102541
-0.00267285
-0.0102074
-0.020041
-0.0037802
0.00668153
-0.00255443
-0.00443518
-0.016521
-0.0157043
-0.00922695
-0.00316003
0.000278973
-0.00155228
-0.0131605
-0.0177009
-0.011847
-0.0160353
-0.00751518
0.00249886
0.00452244
-0.0045523
-0.0026333
-0.00280258
-0.0139598
-0.0126576
0.00275608
-0.00654726
-0.014723
-0.00910374
0.00210883
0.0101691
0.00191278
-0.0124222
9.59369e-06
-0.000726316
-0.028274
-0.0307873
-0.0166579
-0.0113631
-0.00927413
-0.00523604
-0.0114545
-0.0214249
-0.00732249
0.00334936
-0.00165654
-0.00313975
-0.0119413
-0.0136726
-0.0097805
-0.00533696
0.000491729
0.00192456
-0.0113617
-0.015897
-0.00606405
-0.00979637
-0.00378803
0.00356201
0.00300419
-0.00474867
-0.0058025
-0.00262143
-0.0134839
-0.014693
0.000151156
-0.00518634
-0.017939
-0.00973438
0.00434289
0.00613913
-0.000525654
-0.0109534
-0.000900576
0.00143187
-0.0214704
-0.0322939
-0.0193812
-0.0113449
-0.00878734
-0.0060681
-0.0133477
-0.0268863
-0.00953432
0.00211438
-0.00300603
-0.00430958
-0.0079776
-0.0124874
-0.0039995
-0.00483896
0.00262795
0.000713566
-0.00941167
-0.00973861
-0.00469641
-0.00835648
-0.00118718
0.0022289
0.00330772
-0.00407325
-0.00863091
-0.00395217
-0.0132519
-0.0144899
-0.00166243
-0.00386469
-0.0176559
-0.0118822
0.00292173
0.00684598
-0.00241253
-0.0125882
-0.0045502
-0.0013482
-0.0222431
-0.0350286
-0.023519
-0.0100109
-0.00923612
-0.00746703
-0.0135576
-0.03462
-0.0116902
0.00143572
-0.00513984
-0.00506636
-0.00629553
-0.00960479
-0.00132691
-0.00283319
0.00295853
-0.002898
-0.0129705
-0.0122227
-0.0126547
-0.00983727
0.000567469
0.0038201
0.00633678
-0.00108232
-0.00709477
-0.00627942
-0.00687503
-0.0131396
-0.00203074
-0.00414377
-0.0167672
-0.0149052
-0.00311932
0.00892715
-0.00276866
-0.0136865
-0.00389709
0.0017977
-0.023917
-0.0352123
-0.0231837
-0.0102817
-0.00759682
-0.00676544
-0.0124855
-0.0363546
-0.0154342
-0.000935705
-0.00466744
-0.00611563
-0.00517822
-0.00743152
-0.00352122
-0.000969915
0.00581495
-0.00653301
-0.0148378
-0.0171462
-0.0160736
-0.0115983
-0.000520913
0.00548377
0.00209958
-0.00330213
-0.00829293
-0.00604368
-0.00745222
-0.0141047
-0.00849166
-0.00484584
-0.0188552
-0.0196183
-0.0124727
0.000716524
-0.00522836
-0.00877692
-0.000876301
0.000642928
-0.0245217
-0.0344717
-0.0175942
-0.0129634
-0.00541062
-0.00166386
-0.0118815
-0.0297378
-0.0207852
-0.00316103
-0.00468723
-0.00262337
-0.000868484
-0.00976343
-0.00769247
-0.000856971
0.00546722
-0.007319
-0.0132416
-0.014762
-0.0136056
-0.0112593
0.00134146
0.00847942
0.00144826
-0.00670992
-0.0115111
-0.00923572
-0.00811884
-0.0109229
-0.00868121
-0.005242
-0.0204054
-0.0201876
-0.0124031
-0.00610578
-0.0102776
-0.0073478
-0.00102192
-0.0072886
-0.0226632
-0.0319812
-0.0226568
-0.0185929
-0.00669374
-0.000466156
-0.0105133
-0.0235316
-0.0169275
-0.00388279
-0.00425458
-0.00433236
-0.000395211
-0.0103588
-0.00764669
-0.000963875
0.00264184
-0.00728333
-0.0100055
-0.0106465
-0.0132482
-0.00982422
0.0042026
0.00873229
0.00163075
-0.00710013
-0.0100012
-0.00943807
-0.00774158
-0.0117438
-0.00624365
-0.00497736
-0.0194066
-0.0177053
-0.00513923
-0.00300154
-0.0136935
-0.0105616
-0.00287054
-0.0098492
-0.0198852
-0.027782
-0.0236394
-0.020512
-0.00802812
-0.00136564
-0.00947555
-0.0211542
-0.0179221
-0.00682522
-0.00583104
-0.00892024
-0.00207462
-0.00755225
-0.0051557
0.00183145
0.00287593
-0.00346925
-0.00422778
-0.0109515
-0.0128015
-0.00581455
0.00378794
0.00707376
0.00180992
-0.00351996
-0.00376463
-0.00757815
-0.00703645
-0.0119305
-0.0096417
-0.00474454
-0.0163618
-0.0153458
-0.00320054
-0.000545476
-0.0131784
-0.0158013
-0.00327916
-0.00631945
-0.0164793
-0.024158
-0.0219535
-0.018914
-0.00607476
-0.000832539
-0.00961689
-0.0187415
-0.0184553
-0.00827412
-0.00386518
-0.00360891
-0.00310456
-0.00286103
0.000432566
0.00113037
0.000532561
0.000274114
-0.00113501
-0.00641044
-0.0107643
-0.00612771
0.00237174
0.00526573
0.00227563
0.000898896
0.00133001
-0.00312605
-0.00467548
-0.00675064
-0.00957136
-0.00989128
-0.0109329
-0.0120595
-0.00308805
-0.0018316
-0.011428
-0.0131384
-0.00544673
-0.00422283
-0.00986818
-0.0169783
-0.0169475
-0.0115629
-0.000152224
-0.000622872
-0.00983104
-0.0158471
-0.0171619
-0.00643861
-0.00160181
0.00123657
-0.00365622
-0.00274749
0.00211856
0.000871589
0.00111543
0.00160793
0.000939282
0.000401412
-0.00422109
-0.00836358
0.000312698
0.00505185
0.00471802
0.00481812
0.00229649
0.00463731
0.000274654
-0.00330094
-0.00596469
-0.00883751
-0.00528926
-0.00830988
0.000740821
-0.000270095
-0.00932792
-0.0108398
-0.00672232
-0.00406352
-0.00711559
-0.00997895
-0.00555233
-0.00442912
0.00267174
0.000644354
-0.00498118
-0.0135536
-0.0156089
-0.0067106
-0.000783579
0.00123476
-0.00230212
-0.00398318
0.000440718
0.00099726
0.00471941
-0.000780505
-0.000501386
0.00105036
-0.00253186
-0.00367915
0.00261496
0.0050183
0.00357662
0.00353549
0.0023143
0.00254544
0.00203103
0.00171432
0.000968705
-0.00208456
-0.00177319
-0.00353505
0.00626017
0.00202527
-0.00531584
-0.0103466
-0.00885623
-0.0060888
-0.00703296
-0.00776076
-0.00639892
-0.00445239
0.00127567
-0.00011334
-0.00714092
-0.01047
-0.0136166
-0.00954182
-0.0011383
0.000966762
-0.000343947
0.00152205
0.00222554
0.0030352
0.0024221
-0.000357105
0.000591352
0.00147979
-0.000528462
0.00129261
0.00644786
0.00414829
0.000818669
0.0020652
0.00354967
0.00159734
0.00133705
-7.38875e-05
0.00311958
0.000853766
-0.00104805
0.00187015
0.00892798
0.0049594
-0.00223369
-0.00810563
-0.00816802
-0.0048915
-0.00542437
-0.00673601
-0.0050543
-0.00373321
0.00241855
0.000577191
-0.00342317
-0.00416788
-0.0073911
-0.00662872
-0.00142688
0.000819289
0.000526439
0.00192128
0.0023613
0.00313444
0.00306783
-0.00120648
0.000469916
0.00277013
0.00298087
0.00405095
0.00624394
0.00381802
0.00104404
0.00298659
0.00379453
0.00231905
0.00222915
0.00440989
0.00421893
0.000644146
-0.000111314
0.00426589
0.00683845
0.00587347
0.00144738
-0.00244536
-0.00240708
0.00064032
-0.00105554
-0.00528122
-0.00340497
-0.00326169
0.00057387
0.000607288
-0.00093394
0.0020433
0.00451134
0.00248776
0.00102789
0.000125407
-0.000880454
-0.000289129
0.000728165
-0.000659894
-0.00113781
-0.00388196
0.000373966
0.00203456
0.00228235
0.00331356
0.00526578
0.00381476
0.000440786
-0.000324414
0.000660944
0.000466545
0.00255979
0.00391648
0.00468339
0.00277001
0.00235338
0.0052892
0.00639525
0.00436916
0.00322163
0.000436638
-0.00264874
-0.000933623
-0.00184046
-0.0055335
-0.00515125
-0.00390737
-0.00136095
0.000824562
-0.000908164
0.000542998
0.00330688
0.00328073
0.002301
0.00138979
0.000173753
-0.00110205
2.04037e-05
-0.000639984
-0.00371806
-0.000463303
-0.000248033
0.00296289
0.00365913
0.00329683
0.00437945
0.00401157
0.00203256
0.00173551
0.00132906
0.00263244
0.00343941
0.00330653
0.00393605
0.00437303
0.00315932
0.00513984
0.00674564
0.00401335
0.00266315
0.000881069
-0.000942712
-0.000577865
0.000520585
-0.00192902
-0.00134856
-0.00182259
-0.00095498
-0.000656163
-0.00111341
0.000467073
0.00305803
0.003052
0.00263119
0.0021252
0.00182201
-6.45256e-05
-0.00141957
-7.12401e-05
0.00180609
0.00171423
0.00118326
0.00405468
0.00391813
0.00287441
0.00405848
0.0029918
0.00194956
0.00252543
0.00168922
0.000139049
0.00173853
0.00321294
0.00485133
0.00498072
0.00319561
0.004898
0.00767001
0.00458813
0.0026152
0.00225294
0.00103824
0.000950609
0.00141698
-0.00122995
-0.00108492
5.72673e-05
0.00065791
0.000428598
0.000400889
0.00190461
0.00404069
0.00282539
-0.000384102
-0.00294695
0.00026639
0.00109056
-0.00165921
0.000166739
0.00385226
0.0014461
0.00211942
0.00523081
0.00447508
0.00250026
0.00404131
0.00333218
0.00230606
0.00140886
0.00047397
0.000897861
0.00285272
0.00374839
0.00460971
0.00551438
0.00403095
0.00437206
0.00677267
0.00528034
0.00343705
0.00309785
0.00177157
0.000585121
0.00128125
0.000781463
-0.000682366
-0.000522977
0.000803916
0.00261372
0.00321211
0.00337302
0.00263856
0.00402419
0.0041397
0.00127428
0.00144821
0.00322903
0.000836264
0.000781346
0.00293141
0.00175994
0.00132706
0.00403855
0.00418484
0.00207522
0.00322331
0.00334461
0.00269947
0.00304996
0.00270213
0.00269161
0.00301267
0.00297181
0.00356745
0.00545186
0.00500805
0.00461129
0.00667211
0.00579232
0.00373046
0.00372753
0.00344126
0.00204604
0.00133363
0.000495081
-0.000176369
0.000253416
0.000896541
0.00083402
0.00105207
0.00205407
0.00378686
0.0052355
0.00723005
0.00681237
0.00411038
0.00355254
0.000377255
-0.000352029
0.00223604
0.00266793
0.00164827
0.00339418
0.00428011
0.00312377
0.00378749
0.00448038
0.00393091
0.00407854
0.00363044
0.00277798
0.0027596
0.00259383
0.00330471
0.00517658
0.00444716
0.0030037
0.0041841
0.00444044
0.00307344
0.00353964
0.00256034
0.000957349
0.000480121
0.000892631
0.00152939
0.00163258
0.0022152
0.00254987
0.0019337
0.00211627
0.0036439
0.00425551
0.00556945
0.00464604
0.00285617
0.00318374
0.00231084
0.000681682
0.00281535
0.00256907
0.00162788
0.0023465
0.00380661
0.0038584
0.00404525
0.00345522
0.00262694
0.00252773
0.00198284
0.00114311
0.0023607
0.00283685
0.00379431
0.00607958
0.00608899
0.00388626
0.00438822
0.00483948
0.00357405
0.00341051
0.00251354
0.00161015
0.00240317
0.00254498
0.000793785
-0.000229457
-0.000389564
0.0011888
0.00275315
0.00344034
0.00416327
0.00425598
0.00514354
0.00523138
0.003174
0.00315896
0.00305986
0.00144943
0.00208472
0.00295469
0.00264047
0.00178858
0.00242002
0.00302283
0.00327431
0.00261902
0.00187679
0.00225268
0.00275999
0.00336291
0.00412633
0.00438303
0.0042125
0.00485153
0.0050163
0.0042696
0.00460518
0.00498834
0.00403957
0.00406639
0.00337449
0.00272996
0.00323498
0.00330943
0.00372626
0.00251575
0.00100882
0.00193324
0.0036261
0.00493215
0.00522361
0.004372
0.00383775
0.0043202
0.00239372
0.000582749
0.00118185
0.00117194
0.00189114
0.00291152
0.00346807
0.00259795
0.00186772
0.00250631
0.00311625
0.00282076
0.00285885
0.00269755
0.00199555
0.00128342
0.00241821
0.00410589
0.00406731
0.00402091
0.00518964
0.00387871
0.00347624
0.00365445
0.00312755
0.00291089
0.00235262
0.00200686
0.00271769
0.00299713
0.00359545
0.00331628
0.00244996
0.0034026
0.00377415
0.00262329
0.00300979
0.00259747
0.00173379
0.00304619
0.00382524
0.00278885
0.00359448
0.00395841
0.00348708
0.00435818
0.00480218
0.00380867
0.00243873
0.00324264
0.00373062
0.00315535
0.00356759
0.0038403
0.00336712
0.00329226
0.00394252
0.00493151
0.00458413
0.00385057
0.0050101
0.00489432
0.00311687
0.00295121
0.00302615
0.00280032
0.00304843
0.0031322
0.00307306
0.00351574
0.00436195
0.00395948
0.00289364
0.00303992
0.0032942
0.00274788
0.00301827
0.00351444
0.00337851
0.00419751
0.00479255
0.00343695
0.00377441
0.00487373
0.00530975
0.00872347
-0.012407
-0.0239953
0.00251042
0.0197671
0.00462231
0.0038881
0.0123526
0.011548
0.00494387
0.00467506
-0.000267746
0.00187575
0.00219618
0.0010833
-0.00814014
-0.00617597
0.00519443
0.0101785
-0.000840218
-0.0226343
-0.0109244
0.000646816
-0.0215658
-0.0190456
-0.00620955
-0.00592392
-0.00554765
7.32539e-05
0.00252474
-0.00109021
0.001646