/*--------------------------------*- C++ -*----------------------------------*\
  =========                 |
  \\      /  F ield         | OpenFOAM: The Open Source CFD Toolbox
   \\    /   O peration     | Website:  https://openfoam.org
    \\  /    A nd           | Version:  10
     \\/     M anipulation  |
\*---------------------------------------------------------------------------*/
FoamFile
{
    format      ascii;
    class       surfaceScalarField;
    location    "6";
    object      phi;
}
// * * * * * * * * * * * * * * * * * * * * * * * * * * * * * * * * * * * * * //

dimensions      [0 3 -1 0 0 0 0];

internalField   nonuniform List<scalar> 
300480
(
7.88775e-05
-1.34098e-05
3.18937e-05
8.91517e-05
-2.80793e-05
3.51984e-05
9.2101e-05
-5.48432e-05
3.42375e-05
7.39636e-05
-1.75753e-05
3.28375e-05
5.36628e-05
4.86029e-06
4.56745e-05
4.45749e-05
2.85119e-05
4.21921e-05
5.33114e-05
2.85254e-05
3.63011e-06
5.31567e-05
2.05072e-05
-1.89673e-05
5.27705e-05
1.02051e-05
5.48078e-06
5.32524e-05
6.60629e-06
2.25437e-05
4.31784e-05
-1.85404e-06
4.63659e-05
3.49744e-05
-7.98054e-06
5.20225e-05
3.00728e-05
3.37061e-06
4.41616e-05
2.90897e-05
1.26877e-05
4.09776e-05
3.39484e-05
4.83472e-05
5.2793e-06
4.29078e-05
1.48422e-05
-6.67953e-07
4.30613e-05
-1.44703e-05
1.68723e-05
4.33253e-05
-3.09453e-07
2.46322e-05
4.65985e-05
-1.2199e-05
3.87657e-05
4.02215e-05
2.01656e-07
5.5612e-05
3.33111e-05
1.49856e-05
4.80044e-05
4.7594e-05
5.27989e-06
1.4987e-05
5.44913e-05
-2.03773e-05
2.27064e-05
3.93826e-05
-1.86917e-05
4.91075e-05
3.08701e-05
2.67693e-06
3.32426e-05
3.06823e-05
1.0264e-05
3.2215e-05
3.29568e-05
-1.34329e-05
4.15054e-05
3.62223e-05
-3.85755e-05
5.91487e-05
3.40355e-05
1.57685e-05
3.57129e-05
3.93532e-05
3.77508e-05
3.51583e-06
5.01103e-05
2.15902e-05
-1.96701e-05
5.00498e-05
3.16106e-06
2.11545e-07
4.34037e-05
4.78569e-06
3.09452e-05
3.75832e-05
8.53789e-06
3.2143e-05
2.36561e-05
3.38194e-05
2.69486e-05
2.39925e-05
5.29034e-05
-2.07902e-06
4.19677e-05
1.66868e-05
-6.08281e-06
5.48826e-05
-1.84302e-05
2.82875e-05
6.73235e-05
-2.27675e-05
2.73772e-05
-2.41342e-05
1.81524e-05
0.000166126
-3.49385e-05
-3.14991e-05
0.000161158
-6.14662e-05
1.87678e-05
0.000169178
-0.000137527
-2.9284e-05
0.000140416
-4.43513e-05
-3.26043e-05
9.16408e-05
1.35997e-05
4.81541e-06
8.25235e-05
7.61844e-05
-1.42092e-05
0.000117735
5.92371e-05
-6.34704e-05
0.000129588
2.07374e-05
-0.000116187
0.000124793
3.11795e-05
-8.57925e-05
0.00012613
2.87979e-05
-5.56887e-05
0.000107332
-1.48113e-05
1.03672e-05
8.24981e-05
-2.12973e-05
2.50718e-05
6.55085e-05
3.999e-06
1.28237e-05
5.17231e-05
2.43845e-05
2.23236e-05
7.59008e-05
0.000110921
-4.59692e-05
0.000110051
2.81855e-05
-6.05437e-05
0.000105706
-4.56084e-05
-4.09706e-05
9.74815e-05
4.61255e-06
-2.53329e-05
8.57662e-05
-2.39377e-05
-8.66546e-06
6.75104e-05
2.21378e-06
1.6877e-05
5.99707e-05
2.75646e-05
2.12088e-05
8.82536e-05
6.85043e-06
-2.2628e-05
0.000103452
-6.03112e-05
-1.44673e-05
7.61572e-05
-4.28762e-05
7.17337e-06
6.04886e-05
-4.08886e-06
-1.63796e-05
6.40436e-05
1.57229e-05
-1.85962e-05
5.8556e-05
-1.53752e-05
-8.53161e-06
5.09786e-05
-9.79939e-05
3.61439e-05
6.48479e-05
2.73304e-05
-1.72666e-05
0.000105783
6.21342e-05
-7.42889e-05
0.000131849
4.99367e-05
-0.000138071
0.000122318
3.10629e-05
-0.000101162
0.000103796
1.3216e-05
-2.11124e-05
8.1821e-05
3.19707e-05
-1.69439e-05
5.60712e-05
8.34645e-05
-2.3052e-05
7.40503e-05
0.000114442
-7.89749e-05
0.000121305
4.66446e-05
-0.000107444
0.000131483
-2.36648e-05
-1.77785e-05
0.000137934
-5.73985e-05
1.35195e-05
-8.60558e-05
-4.82546e-05
0.000212506
-7.73395e-05
-7.73471e-05
0.000173186
-6.98636e-05
-7.09596e-06
0.000178206
-0.000180126
-2.63969e-05
0.000175195
-7.56484e-05
-9.04582e-05
0.000128669
4.89568e-05
-4.53632e-05
0.000106949
0.000129163
-3.56727e-05
0.000149104
5.61145e-05
-5.54259e-05
0.000178199
-1.79157e-05
-9.82093e-05
0.000177584
7.31156e-05
-0.000126485
0.000201796
6.39431e-05
-0.00013342
0.000183606
-4.35665e-05
-3.7212e-05
0.00014374
-5.5527e-05
1.95672e-05
0.000118626
-1.02026e-05
-1.02897e-05
9.00902e-05
2.50353e-05
7.60704e-06
9.45713e-05
0.000153214
-4.04801e-06
0.000136091
5.32624e-05
-4.63536e-05
0.000152753
-0.000104119
-2.55941e-05
0.000157137
-1.04434e-05
-3.64228e-05
0.000148456
-2.7575e-05
-4.18068e-05
0.00010883
5.40287e-05
-4.52172e-05
9.66928e-05
5.48659e-05
-3.26392e-06
0.000134011
-7.77643e-06
-7.08482e-06
0.000156926
-0.000119665
1.26916e-05
0.000140586
-6.37867e-05
-2.34145e-05
0.000120872
1.03491e-05
-8.63544e-05
0.000120458
2.28084e-05
-6.9447e-05
0.000109054
1.67102e-06
-6.22153e-05
8.20536e-05
-0.000101874
-2.52208e-05
0.00011362
3.4624e-05
-2.68331e-05
0.000175227
5.11795e-05
-0.000113633
0.000196349
5.96312e-05
-0.000147972
0.000188284
4.69679e-05
-0.000127094
0.000164453
1.95134e-05
-5.7534e-05
0.000138808
6.61546e-05
-6.04908e-05
0.000107957
0.000141696
-6.16755e-05
0.000132697
0.000151074
-0.000103465
0.000201503
4.59184e-05
-0.00017089
0.000206578
-1.58577e-05
-6.28576e-05
0.0001836
-4.58634e-05
2.81145e-05
-0.000127104
-5.25028e-05
0.000223745
-0.000119897
-8.89533e-05
0.00018992
-8.74069e-05
-3.09319e-05
0.000195338
-0.000211032
-1.24885e-05
0.000200257
-9.31414e-05
-0.000109051
0.000167341
8.54637e-05
-6.15858e-05
0.000127115
0.000183534
-2.11868e-05
0.000151163
4.48456e-05
-3.58259e-05
0.000185429
-3.71031e-05
-6.98279e-05
0.000205529
0.00015558
-0.000139102
0.000245516
0.000128085
-0.0001671
0.000231507
-5.46154e-05
-9.38271e-05
0.000176859
-8.62444e-05
4.98436e-06
0.000146336
-1.78008e-05
-2.59645e-05
0.000133304
3.85154e-05
-3.50084e-05
0.000115116
0.000198777
4.83462e-05
0.00013837
0.000138494
-4.47427e-05
0.000162932
-0.000114541
-2.26575e-05
0.000167376
-2.1589e-05
-3.90661e-05
0.000165167
-1.89498e-05
-4.75455e-05
0.000128516
0.000106195
-5.66042e-05
0.000131741
8.41535e-05
-2.33274e-05
0.000177394
-3.42083e-06
9.46429e-06
0.000192316
-0.000139191
3.58151e-05
0.000178743
-4.13697e-05
-5.92846e-05
0.000152582
6.72094e-05
-0.00016413
0.000149981
4.34418e-05
-0.0001098
0.000134922
1.92223e-05
-8.49603e-05
9.23293e-05
-7.1953e-05
-3.01889e-05
0.000144871
7.97702e-06
-5.79674e-06
0.000217265
-6.98423e-06
-0.000112853
0.000222173
9.28192e-05
-0.000129471
0.000213539
7.92807e-05
-0.000124856
0.000191328
2.16043e-05
-6.91399e-05
0.000175881
0.000113621
-9.42113e-05
0.000138667
0.000211655
-7.18189e-05
0.000158192
0.0001671
-8.77331e-05
0.00023825
1.66892e-05
-0.000205194
0.000259381
-3.30086e-05
-0.00011056
0.000228197
1.04598e-05
5.26635e-06
-0.000127676
-6.34799e-05
0.000242896
-0.000101038
-0.00010898
0.00021736
-8.92627e-05
-1.41131e-05
0.000226236
-0.000216879
-6.25756e-05
0.00023575
-9.02857e-05
-9.86046e-05
0.00020194
0.000120325
-5.56352e-05
0.000168392
0.000196185
1.05765e-05
0.000158203
3.87085e-05
-2.89798e-05
0.000175533
-4.19802e-05
-6.48099e-05
0.000231263
0.000201439
-0.000119689
0.000271091
0.000212585
-0.000145574
0.000252915
-4.63039e-06
-0.000101492
0.000206055
-0.000108071
8.41528e-06
0.000175144
-3.83716e-05
-1.32678e-05
0.000169519
6.41742e-05
-6.23393e-05
0.000164094
0.000222511
4.05701e-05
0.000175694
0.000214867
-3.451e-05
0.000195572
-8.59611e-05
-2.33843e-05
0.00021206
-7.27924e-05
-2.77107e-05
0.000192767
3.42677e-06
-4.15309e-05
0.000150959
0.000151352
-3.84731e-05
0.0001586
0.000145981
-5.6628e-05
0.000204396
3.20179e-05
-2.9996e-05
0.000214989
-0.000139514
1.94589e-05
0.000202333
2.32756e-05
-4.54946e-05
0.000178182
0.000137726
-0.000168627
0.000175878
9.55954e-05
-0.000142369
0.000162877
3.83839e-05
-0.000112589
0.000111549
-5.96031e-06
-3.95228e-05
0.00016833
-2.76367e-05
-2.35952e-05
0.000240375
-2.91675e-05
-8.60954e-05
0.000228246
0.000127095
-0.000116667
0.000226529
0.000115096
-0.000122231
0.000227146
6.38856e-06
-8.04915e-05
0.0002036
0.00015291
-0.000121483
0.000179741
0.00024362
-6.37109e-05
0.000231993
0.000162401
-0.000108705
0.000307444
-2.84367e-05
-0.000245506
0.000315744
-5.97538e-05
-0.000166389
0.000289124
4.97516e-05
-2.97575e-05
-0.000125747
-0.000111787
0.000269562
-2.15764e-05
-0.000152019
0.000247115
-3.37683e-05
-2.3768e-05
0.000268618
-0.000205839
-5.69837e-05
0.000274679
-9.21445e-05
-7.47992e-05
0.00022709
0.000136544
-1.48815e-05
0.000196589
0.000160915
2.92015e-05
0.000182811
5.16035e-05
-5.26851e-05
0.000189277
-4.00376e-05
-5.70052e-05
0.000238297
0.000192769
-0.000103665
0.000282054
0.000280919
-0.000145567
0.000289274
3.48817e-05
-8.95466e-05
0.000256155
-0.000126649
3.13442e-06
0.00018258
-2.48398e-06
-2.24767e-05
0.000114489
0.00013543
6.256e-06
0.000129787
0.000133837
8.43348e-05
0.000189382
0.000131162
5.56503e-05
0.000227933
-0.000111626
1.10418e-05
0.000252568
-0.000154419
-5.56038e-06
0.000227881
2.61301e-05
-4.87351e-05
0.000184656
0.000182393
-1.15118e-05
0.000196388
0.000230544
-5.50087e-05
0.000241746
9.54278e-05
-4.7605e-05
0.000228252
-9.78076e-05
6.57534e-06
0.000212663
6.09908e-05
1.42553e-05
0.000221792
0.000192657
-0.000162602
0.000205051
0.000198501
-0.000181314
0.000192726
8.07265e-06
-9.73869e-05
0.00015911
6.07477e-05
-7.0147e-05
0.000190347
-0.000103687
1.9487e-05
0.00023468
-9.01702e-06
-6.63765e-05
0.000219618
0.000220041
-0.0001442
0.00024919
0.000161647
-0.000111533
0.000279846
2.32133e-06
-0.000105192
0.000231569
0.000184142
-0.000109297
0.000232737
0.000217149
-4.0257e-06
0.000314285
0.000133216
-0.000122242
0.000364233
-6.85334e-05
-0.000253555
0.000362894
-0.00010402
-0.000190017
0.000345278
2.06788e-05
-5.38225e-05
-0.000113755
-0.000134937
0.000324866
4.01272e-05
-0.00015685
0.000292945
2.46195e-05
-2.69238e-05
0.000300946
-0.000145043
-7.06962e-05
0.000323429
-0.000130554
-9.4478e-05
0.00028964
4.99168e-05
1.00805e-05
0.000235715
0.000151963
6.80403e-06
0.000210126
6.4424e-05
-5.13486e-05
0.000200681
-8.64111e-05
-1.52645e-05
0.000232413
0.000139829
-4.83838e-05
0.000283743
0.000308401
-0.000160198
0.000330942
5.47602e-05
-0.000132645
0.000310436
-9.66339e-05
-5.36903e-05
0.000247132
4.51899e-05
-2.6977e-05
0.000156647
0.00019949
2.15553e-05
0.000139998
6.51126e-05
7.83361e-05
0.000193289
1.28042e-05
6.12174e-05
0.000222201
-9.5597e-05
-6.1214e-05
0.000262861
-0.000223034
-2.46128e-05
0.000259599
-1.40074e-05
-7.35077e-05
0.000208011
0.000214423
-9.38651e-06
0.000223905
0.000271044
-3.22174e-05
0.000271272
0.000141805
-8.94402e-05
0.000247219
-4.52198e-05
2.38109e-05
0.000246445
0.000113988
-2.29023e-05
0.000237243
0.000307755
-0.000208733
0.000215266
0.000234755
-0.000157333
0.000216214
-6.56135e-05
-3.17984e-05
0.000201297
7.63882e-05
-6.74771e-05
0.000214066
-0.000149768
2.64309e-06
0.000254871
-3.67773e-05
-3.77537e-05
0.000256914
0.000336468
-0.000177225
0.00028764
0.000238947
-0.000156564
0.000303644
1.2787e-05
-7.79653e-05
0.000260199
0.000215331
-7.36917e-05
0.000284686
0.00020724
-6.57361e-05
0.000382895
6.74763e-05
-0.000131421
0.000432427
-7.43678e-05
-0.000224523
0.000426387
-0.000149611
-0.00018271
0.000398277
-5.81388e-05
-8.48945e-05
-0.000136709
-0.000105295
0.00035513
9.14515e-05
-0.000140432
0.000321573
5.11266e-05
-3.76011e-05
0.000345286
-0.000159305
-3.49654e-05
0.000384026
-0.00018044
-8.91809e-05
0.000322942
-4.50816e-05
-1.56397e-05
0.000247047
4.99372e-05
2.9473e-05
0.000259153
-3.78504e-05
-2.3997e-05
0.000252185
-0.000172025
-5.07316e-05
0.00024625
8.71301e-05
2.58291e-05
0.000279306
0.000309153
-0.000116004
0.000356606
7.21477e-05
-0.000170207
0.000366736
-3.85111e-05
-0.000104178
0.00030634
0.000104529
-7.43109e-06
0.000282328
0.000172685
-1.85548e-05
0.000260217
7.28746e-05
-6.19833e-05
0.000237967
4.6862e-06
-5.72852e-05
0.000243572
-1.49484e-05
-0.00010483
0.000281125
-0.000235707
-4.68151e-05
0.000290731
-9.45605e-05
-0.00010389
0.000237439
0.000255129
-3.2828e-05
0.000258101
0.000275655
-2.88016e-05
0.000291251
0.000164894
-7.5424e-05
0.000272677
-2.67528e-07
5.87381e-05
0.000250217
0.000206221
-1.46219e-05
0.0002264
0.000406439
-0.000203938
0.000225828
0.000199515
-0.000136463
0.000232016
-8.90285e-05
-6.40195e-05
0.000220222
4.96844e-05
-6.07235e-05
0.000248635
-0.000222358
-1.12545e-05
0.000280557
-7.894e-05
5.55175e-06
0.00028753
0.000406381
-0.000144157
0.000305389
0.000391011
-0.000164869
0.00028293
0.000111634
-4.39956e-05
0.000276036
0.000252334
-8.25177e-05
0.000344919
0.000169895
-0.000114693
0.000431125
2.45467e-05
-0.000104071
0.00046525
-4.79052e-05
-0.000168974
0.000474221
-0.000161623
-0.000190475
0.00046326
-0.000140458
-0.000112857
-0.00017075
-6.16937e-05
0.000402444
0.000122762
-0.000117885
0.000389352
5.47172e-05
-0.000132808
0.000383527
-0.000156144
-1.35776e-05
0.000392196
-0.000198868
-8.83872e-05
0.000346812
-4.41634e-05
-0.000120547
0.000327581
9.08372e-05
-3.17935e-05
0.000363808
-6.84704e-05
-0.000103328
0.000343153
-0.000224482
-0.000168436
0.000307385
4.63516e-05
-2.76003e-05
0.00031796
0.000317293
-0.000105441
0.000380752
6.74236e-05
-0.000181292
0.000421272
-5.92655e-05
-9.926e-05
0.000390377
0.000128489
-2.69904e-06
0.00036506
0.000145794
5.70784e-07
0.000316338
0.000114112
-9.96428e-05
0.000284698
-1.61087e-05
-6.6483e-05
0.000303443
-5.27206e-05
-2.60383e-05
0.000336549
-0.000220922
1.36102e-05
0.000327069
-0.000124421
-8.78471e-05
0.000279353
0.000260349
-4.95947e-05
0.000263414
0.000320105
-3.31279e-05
0.000278611
0.00018754
-3.15818e-06
0.000286229
4.23931e-06
6.60312e-05
0.000265616
0.000265113
2.4678e-05
0.000275837
0.000394078
-0.000110136
0.000302889
0.000196575
-0.000168362
0.000329053
-8.86486e-05
-0.00021189
0.000297231
0.000107424
-0.000163111
0.000281183
-0.000238323
4.34761e-06
0.000299316
-0.000116126
4.91754e-05
0.000319821
0.000431853
-0.00012625
0.000347996
0.000502707
-0.000164146
0.000343852
0.000219127
-4.08994e-05
0.000345025
0.000313877
-6.2607e-05
0.000394642
0.000171288
-6.16648e-05
0.00043557
1.82874e-05
-0.000116399
0.000450004
-9.0268e-05
-0.000137547
0.000491338
-0.000195824
-0.000126173
0.000504456
-0.00021019
-8.93885e-05
-0.000155961
-6.57148e-05
0.000448202
0.000156106
-0.000100582
0.000452727
5.8104e-05
-0.000174944
0.000421782
-9.83458e-05
-6.42558e-05
0.000391903
-0.000137323
-0.000155952
0.000381515
1.86097e-05
-0.000214798
0.000416654
0.00019515
-3.87091e-05
0.000432262
-3.83365e-05
-0.000124016
0.000391469
-0.000223707
-0.0001106
0.000338984
-4.59716e-05
-1.2584e-05
0.000353718
0.000311518
-0.000122589
0.000443842
8.86334e-05
-0.000215091
0.000497687
-8.4454e-05
-0.000110177
0.000491475
0.000138045
1.50623e-05
0.000438081
0.000194786
4.35424e-05
0.000365291
0.000144917
1.55433e-05
0.000335512
3.50055e-07
-2.81638e-05
0.000352089
-0.000125514
-4.12888e-06
0.000378188
-0.000242539
2.79087e-05
0.000357384
-9.20076e-05
-5.21911e-05
0.000316956
0.000277209
-9.96382e-05
0.000276774
0.000348048
-3.24221e-06
0.00030485
0.000196824
2.17548e-05
0.000325774
1.55403e-05
4.27332e-05
0.000315116
0.000365527
1.5176e-05
0.000324669
0.000477459
-9.55865e-05
0.000358935
0.000320452
-0.000197734
0.000396601
-6.55589e-05
-0.000200157
0.00038745
0.000139663
-0.000192686
0.000318102
-0.000116331
2.07208e-05
0.000299447
-0.000107771
6.64816e-05
0.000346313
0.000429159
-0.000119474
0.000391856
0.000511788
-0.000171029
0.000419735
0.00019714
-2.89714e-05
0.000406863
0.000413687
-6.01769e-05
0.000437174
0.000208277
-9.07721e-05
0.000450577
-9.4668e-05
-5.96601e-05
0.000410254
-0.000115201
-7.31441e-05
0.00043602
-0.000211402
-3.09073e-05
0.000488702
-0.000280783
-1.57444e-05
-0.000127821
-5.70729e-05
0.000486148
0.000199228
-0.000114463
0.000513355
-2.36586e-05
-0.000111035
0.00049651
-0.000117783
-4.88174e-05
0.000436819
-4.23384e-05
-0.000173066
0.000428642
5.87449e-05
-0.000263791
0.000471888
0.000170255
-3.27369e-05
0.000488258
-4.38983e-05
-7.41132e-05
0.000443295
-0.000211803
-6.58764e-05
0.000390233
-0.000116055
-9.20042e-06
0.000392601
0.000312324
-0.000121729
0.000481028
0.000170393
-0.000255726
0.000566006
-8.58204e-05
-0.000184974
0.000566623
0.000118138
8.57492e-06
0.000506784
0.000273683
-2.14756e-05
0.000449923
0.000149537
2.0215e-05
0.000427733
6.26838e-05
-7.0958e-05
0.000440642
-6.38352e-05
-0.00013049
0.000424787
-0.000217704
-7.00128e-05
0.000379957
-4.62722e-05
-8.89642e-05
0.000340605
0.000274367
-8.42191e-05
0.000317383
0.000338814
-1.58435e-06
0.000371897
0.0001369
-7.27453e-06
0.000382045
9.76793e-05
7.35446e-06
0.000361362
0.000401333
2.50333e-05
0.000387964
0.000557657
-0.000145572
0.000441756
0.000381448
-0.000218697
0.000484756
1.97272e-05
-0.000168803
0.000470486
0.000199785
-0.000178871
0.000373163
4.44346e-05
9.42564e-06
0.000327611
1.66684e-05
2.71391e-05
0.000375717
0.000377563
-0.000104416
0.000456367
0.000422299
-0.000194892
0.000478429
0.000152438
-8.84534e-05
0.000447885
0.000497438
-7.86518e-05
0.0004975
0.000218669
-0.000125617
0.000504837
-0.0002039
2.37873e-05
0.000450482
-0.000103928
-1.55727e-05
0.000452579
-0.000187915
-5.48284e-05
0.000504693
-0.000320934
-5.71336e-06
-7.52283e-05
-5.99265e-05
0.000510576
0.000240807
-9.79318e-05
0.000493648
-0.000134405
-5.58805e-05
0.000499832
-0.000190961
-2.39886e-05
0.00048874
7.15999e-05
-0.000156638
0.00051306
0.000113095
-0.000286603
0.000565441
0.000104948
-9.42455e-05
0.000574956
-4.52897e-05
-1.35581e-05
0.000544902
-0.000187151
-0.000114159
0.000485081
-0.000123509
-5.50544e-05
0.000432847
0.000331954
-6.91941e-05
0.000457957
0.000336897
-0.000322836
0.000548968
-4.65995e-05
-0.000221321
0.000631
4.01679e-05
4.79807e-05
0.000615108
0.000252414
4.5732e-06
0.000538896
7.33489e-05
2.59913e-05
0.000511117
7.75046e-05
-9.94207e-05
0.000518108
3.24936e-05
-0.000208134
0.000481979
-0.000137729
-0.000128464
0.000426904
-2.59659e-05
-0.000102144
0.000374179
0.000268923
-6.71696e-05
0.00035593
0.000280726
5.16482e-06
0.000385742
0.000135206
-7.18977e-05
0.000376351
0.000157979
5.36753e-05
0.000392407
0.000347323
0.000113177
0.000410845
0.000617307
-0.000153093
0.000453933
0.000446595
-0.00020502
0.000510336
0.000100857
-0.000141237
0.000532946
0.000149816
-0.000163042
0.000450664
0.000129129
-1.83882e-05
0.000382071
0.000202732
5.1823e-05
0.000413369
0.000333091
-9.91236e-05
0.000496033
0.000335486
-0.000175963
0.000505636
0.000162911
-9.4388e-05
0.000504049
0.00045653
-7.15536e-05
0.000553219
0.000251425
-0.000145779
0.000550994
-0.000180195
-1.07292e-05
0.000529572
-0.000111953
-1.60629e-05
0.00054852
-0.000217115
-0.000111842
0.00059104
-0.000264278
-0.000119293
2.49478e-05
-0.000113754
0.000580028
0.000296329
-0.000119468
0.000534304
-0.00017413
-8.69429e-05
0.000525494
-0.000305809
7.2105e-06
0.000519911
9.06563e-05
-0.000120066
0.000588081
0.000197094
-0.000298454
0.00068229
2.05994e-05
-0.000203603
0.000686025
-5.64697e-05
-3.74999e-06
0.000655211
-0.000105433
-0.000103021
0.000571747
-0.000111236
-0.000102724
0.000479344
0.000341363
1.90362e-06
0.000504514
0.000443845
-0.000274751
0.000607974
-5.63614e-05
-0.000242491
0.000701982
-8.70512e-05
5.20158e-05
0.000673234
0.000171579
0.000101355
0.000563006
7.2964e-06
5.63382e-05
0.000522872
0.000106488
-9.9919e-05
0.00056877
2.76318e-05
-0.000188125
0.000554337
-6.2657e-05
-0.00018487
0.000445802
3.37288e-05
-3.64337e-05
0.00041143
0.000195113
-1.3436e-05
0.000433296
0.00018941
-9.20574e-05
0.000386222
0.000206109
-7.49607e-05
0.000339412
0.000199805
8.99092e-05
0.000378405
0.000327434
1.39294e-05
0.000370097
0.000619782
-0.00020041
0.000408276
0.000503306
-0.000116816
0.000502688
0.000162784
-0.000104878
0.000538037
4.33915e-05
-0.000128498
0.000469023
0.000160954
-1.32473e-06
0.000412171
0.000232381
0.000159054
0.000458529
0.000221944
-2.79071e-05
0.0005436
0.000271648
-0.000152874
0.000567986
0.000161982
-9.91262e-05
0.000565568
0.00043311
-8.8328e-05
0.000642374
0.000257882
-0.00016
0.000684872
-0.000199544
-7.94189e-05
0.000622433
-0.000132683
-7.33372e-05
0.000620243
-0.000254621
-0.000105002
0.000709677
-0.000336504
-7.52148e-05
4.63162e-05
-0.000108287
0.000708467
0.000382226
-0.000130509
0.000663942
-7.65263e-05
-0.000217983
0.000616546
-0.000334533
-0.00010336
0.000580808
7.3815e-05
-8.82986e-05
0.000673968
0.000287453
-0.000229709
0.000832568
-9.2178e-05
-0.000243975
0.000838115
-0.000146114
-7.00713e-05
0.00078029
6.95565e-06
-6.32805e-05
0.00065695
-2.88094e-05
-9.62507e-05
0.000571302
0.000324052
-3.95356e-05
0.00064118
0.000378072
-0.000198822
0.000698991
-0.000114403
-0.000266879
0.000744762
-0.000160092
-8.63845e-05
0.000778142
5.18739e-05
5.98981e-05
0.000705507
-2.54586e-05
-1.97772e-05
0.000636624
0.000115588
-5.20076e-05
0.000674762
1.00433e-05
-9.8997e-05
0.000675826
2.80543e-05
-0.000192926
0.000531847
0.00018325
-5.52184e-05
0.00044911
6.65501e-05
0.000101271
0.000460236
5.05459e-05
-9.93641e-05
0.000450162
0.000165964
-2.88547e-05
0.000437669
0.000177911
0.000167985
0.000392446
0.000367898
2.21298e-05
0.000366134
0.000535953
-0.000116395
0.000463666
0.000461186
-5.86216e-05
0.000570311
0.000191385
-1.91878e-05
0.000581189
-3.78404e-07
-7.25398e-05
0.000531856
0.000120882
4.64896e-05
0.000483798
0.000152107
0.000248963
0.000511839
0.00013866
7.34819e-05
0.000573019
0.000284692
-0.000163108
0.000598212
0.000209014
-0.000155915
0.00063682
0.000361795
-0.000127521
0.000736171
0.000267627
-0.000183696
0.000776493
-0.000102488
-7.92445e-05
0.000719216
-9.08747e-05
-9.07038e-05
0.000676778
-0.000167568
-0.000168668
0.000738849
-0.000378242
-3.44252e-05
-1.02293e-05
2.52401e-05
0.000829444
0.00043171
-7.34474e-05
0.000818967
9.96446e-06
-0.000153359
0.000739953
-0.000287191
-0.000143777
0.000663052
8.13131e-05
-0.000134526
0.000743658
0.00034198
-0.000163755
0.000951015
-0.000116274
-0.000177751
0.000997241
-0.000282614
-0.000110783
0.000924398
-2.46572e-05
-6.10081e-05
0.000800069
9.79842e-05
-6.64177e-05
0.000697891
0.000434137
-0.000128828
0.000759098
0.000316297
-0.000216528
0.00078002
-0.000133558
-0.000284254
0.000820672
-0.000143227
-0.000184033
0.000900479
-5.47931e-05
-5.34369e-05
0.000852587
-9.80483e-05
-2.39583e-05
0.000756417
9.19844e-05
4.94628e-05
0.000791303
-3.01175e-06
-9.51458e-05
0.000800523
8.17718e-05
-0.000124955
0.000700547
0.000298705
-6.45779e-05
0.000603804
-6.85825e-06
6.59704e-05
0.000574221
-0.00010141
4.52551e-05
0.000576001
7.05194e-05
3.16156e-05
0.00054742
0.000223639
0.00013272
0.00042574
0.000431884
0.000150375
0.000393596
0.000439378
5.04544e-05
0.000525755
0.000352315
-1.22355e-05
0.000646967
0.000196839
-5.52332e-05
0.000663035
9.84715e-05
-0.00015003
0.000602082
0.000160351
-5.60475e-05
0.000566251
3.1574e-05
0.000201378
0.000550088
0.000108655
0.000117207
0.000587831
0.000329378
-0.000185595
0.000635372
0.000235213
-0.000185457
0.000724821
0.000253357
-9.51022e-05
0.000847004
0.000218362
-0.000163597
0.000878925
-1.47903e-05
-0.00010095
0.000835795
-1.11987e-05
-0.00010659
0.000820528
-0.000102256
-0.000179836
0.000832928
-0.000351546
-5.4836e-05
2.44673e-05
4.34469e-05
0.000897971
0.000403638
-3.45297e-05
0.000923787
9.96902e-06
3.58916e-05
0.000830805
-0.000184309
-3.19684e-05
0.000738679
0.000115612
-0.000127929
0.000781078
0.000265957
-0.000121981
0.000987044
-7.85293e-05
-0.000146159
0.00109532
-0.00026571
-0.000148396
0.00103874
-9.18084e-05
-5.73916e-05
0.000913503
0.000119174
5.1196e-05
0.000831966
0.000460863
-1.80621e-05
0.000908077
0.000282397
-0.000184837
0.000920148
-0.000109692
-0.000281613
0.000926173
-9.17746e-05
-0.000193477
0.00101156
-3.73669e-05
-6.40885e-05
0.000928772
-9.02177e-05
3.21068e-05
0.00080449
2.10772e-05
8.94082e-05
0.000883136
-7.7092e-05
-7.77165e-05
0.000999432
-6.89319e-08
-0.000103493
0.00102871
0.000200394
5.98887e-07
0.000917512
-5.40479e-05
7.04109e-05
0.000767659
-9.92056e-05
0.000120652
0.000674572
0.000152961
-5.72822e-05
0.000595605
0.000419746
-0.000143366
0.000502951
0.000595639
2.07488e-05
0.000492339
0.000447853
5.52799e-05
0.000598811
0.000264306
4.93491e-05
0.000711108
0.000165114
7.92223e-05
0.000744775
0.000122051
-7.21009e-05
0.000746117
0.000143212
-0.000119462
0.0007244
-3.04848e-05
6.52047e-05
0.000658904
8.57447e-05
0.000180483
0.000693276
0.000373564
-8.86853e-05
0.000760271
0.000261609
-0.000180096
0.00086017
0.000204591
-6.31688e-05
0.00098657
0.000151956
-8.06773e-05
0.00101798
-3.83425e-06
-0.000110606
0.000982323
-7.8388e-06
-8.64384e-05
0.000948743
-9.94715e-05
-0.000110459
0.000882988
-0.000211047
-7.45419e-05
0.000161785
-4.27179e-05
0.000982894
0.000332453
-2.58172e-05
0.000987197
4.6918e-05
9.67624e-05
0.000937584
-9.07268e-05
5.87763e-05
0.000886164
4.94292e-05
-5.61125e-05
0.000873145
0.000120746
-0.000135273
0.00100569
-8.84654e-05
-0.000181673
0.00112601
-0.000197336
-0.000150088
0.00110507
-4.66331e-05
-0.000122052
0.00105294
0.000138194
-5.14573e-06
0.00102969
0.000397273
5.80166e-05
0.00106149
0.00026524
-0.000117678
0.00103511
-7.3794e-05
-0.000245093
0.0010625
-0.000100168
-0.000232758
0.00119457
-0.000110647
-4.85633e-05
0.00113093
-0.000135553
6.60181e-05
0.00101327
1.32461e-05
-1.65546e-05
0.0010686
-0.000104357
-6.89383e-05
0.00114564
-7.98214e-05
-9.16848e-05
0.00115513
0.00011653
-2.95713e-05
0.00104041
4.96963e-05
-2.09126e-05
0.000886922
-2.2899e-05
3.36654e-05
0.000809056
0.000211215
-4.94279e-05
0.000773338
0.000529124
-0.000119977
0.000750644
0.000730312
-3.83726e-05
0.000753009
0.000606909
1.23722e-05
0.000790469
0.000390744
6.41465e-05
0.000866663
0.000195388
0.000164792
0.000954763
-2.20377e-05
6.47797e-05
0.0010029
-5.31719e-05
2.354e-05
0.000932606
2.46328e-05
7.1271e-05
0.000791398
0.000173134
0.000100689
0.000819288
0.000281845
4.58966e-06
0.000920293
0.000150668
-8.00758e-05
0.00101616
9.1607e-05
-2.70568e-05
0.00111234
7.49992e-05
-3.43803e-05
0.00115774
1.49926e-05
-0.000105856
0.00114961
6.52258e-06
-9.97646e-05
0.00105772
-8.38478e-05
-8.85379e-05
0.000939216
-9.76647e-05
-9.90068e-05
0.00020525
-9.27684e-05
0.0011856
0.000245
-3.09742e-05
0.00117613
6.41226e-05
6.71295e-05
0.00112718
-6.16388e-05
0.000105428
0.00107518
2.56925e-05
1.89016e-06
0.00101502
0.000119884
-0.000119763
0.00106711
-7.19546e-05
-0.0001911
0.0011866
-0.000205974
-0.000154614
0.00124786
-1.37599e-05
-9.15223e-05
0.00122014
0.000223602
-3.54858e-05
0.00119223
0.000377613
6.39902e-06
0.00125351
0.000177876
-4.97004e-05
0.00121434
-5.33959e-05
-0.000117211
0.00117734
-2.78102e-05
-0.000219123
0.00133541
-0.000170637
-0.000170639
0.00138068
-0.000255159
3.01119e-05
0.0012372
1.91755e-05
0.000102842
0.00114805
-5.34007e-06
-6.45621e-05
0.00118014
-0.000140743
-0.000191842
0.00129864
-4.8835e-05
-0.000137867
0.00130052
7.14441e-05
-3.32046e-05
0.00113708
7.94888e-05
2.98102e-05
0.0010208
0.000150656
8.22889e-05
0.00098686
0.000398687
8.96024e-05
0.000951754
0.000708608
0.000119499
0.000913487
0.000763401
0.00010148
0.000944254
0.000526896
0.000130952
0.00107756
0.000200984
0.000285607
0.00121757
-3.56661e-05
0.000148348
0.00123359
-0.00012245
0.00010031
0.00111458
2.28196e-05
0.000247755
0.000976354
0.000294508
0.000103307
0.00100267
0.000292039
-8.54047e-06
0.00111796
7.45707e-05
3.39162e-05
0.00118943
-1.88881e-05
6.70116e-05
0.0012372
2.68775e-06
2.04696e-05
0.00130904
7.43211e-06
-3.23641e-05
0.00132735
2.39797e-05
-3.57581e-05
0.00120616
-1.44487e-05
-6.79734e-05
0.00107065
1.30596e-05
-9.86711e-05
0.000199059
-8.82744e-05
0.00135653
0.000163536
1.38995e-05
0.00134335
7.44356e-05
8.77693e-05
0.00128488
-1.72535e-05
0.000149108
0.00124993
4.10581e-05
9.26235e-05
0.00121217
0.000144452
-1.67965e-05
0.00124486
-1.74161e-05
-0.000115612
0.00133612
-0.000109409
-0.000161645
0.00138929
9.03178e-05
-0.00010393
0.00140206
0.000277319
-5.91119e-05
0.00142991
0.00029667
-8.96422e-06
0.00145308
0.000104276
-4.46849e-05
0.00139268
-3.11142e-05
-0.000159434
0.00138069
-4.99349e-05
-0.000180314
0.00152909
-0.000234517
-0.000153973
0.00156333
-0.000291598
1.85186e-05
0.0013901
1.61494e-06
0.000185735
0.00125308
4.31549e-05
-1.61869e-05
0.00128557
-0.000219919
-0.000257444
0.00147695
-0.00027078
-0.000218528
0.00154755
-3.26171e-05
-3.8006e-05
0.00132515
0.000156686
0.000110662
0.00109243
0.000143499
0.000182322
0.00101
0.00032387
7.63921e-05
0.00100548
0.000680272
2.89635e-05
0.00105168
0.000783138
4.75584e-05
0.00117616
0.000509168
0.000129618
0.00131974
0.000137486
0.000332153
0.00137182
4.3806e-06
0.000282778
0.00130618
2.11257e-05
0.000152926
0.00122849
6.24104e-05
0.00027585
0.00121552
0.000222088
0.000254759
0.00126748
0.000214261
0.000108427
0.00131348
1.86461e-05
0.00011992
0.00133578
-8.80801e-05
0.000163056
0.00136593
-2.14882e-05
5.24281e-05
0.00140582
1.02608e-05
-1.20121e-05
0.00140314
4.6626e-06
5.65496e-05
0.00132002
1.97182e-06
2.67109e-05
0.00123806
2.79251e-05
-3.21084e-05
0.000134557
-2.53145e-05
0.0014752
4.40859e-05
3.66051e-05
0.00150318
8.90234e-06
8.76608e-05
0.0014369
9.7249e-05
0.000117034
0.00138251
0.000186415
5.18903e-05
0.00140784
0.000151346
-2.03523e-05
0.00146119
-1.13514e-05
-8.01767e-05
0.00148609
-2.82072e-06
-0.000141331
0.00150258
0.000177278
-0.000140353
0.00159227
0.000237308
-9.8622e-05
0.00167945
0.000207993
-6.22043e-06
0.00166581
9.12096e-05
-1.67619e-05
0.00158057
1.17152e-05
-0.000142462
0.00158884
-9.40313e-05
-0.000155265
0.00171472
-0.000265173
-0.000130098
0.00170839
-0.000228535
-3.84119e-05
0.00153504
4.61637e-05
8.12017e-05
0.00142145
4.36668e-05
-4.61586e-07
0.00142949
-0.000167582
-0.000187298
0.00150457
-0.000225816
-0.000164971
0.0014999
7.03175e-06
-5.8267e-05
0.00133335
0.000218735
9.481e-05
0.00113386
0.000190112
0.000207719
0.00105407
0.000279543
0.000112125
0.0011395
0.000501301
6.88989e-06
0.00132466
0.000527011
5.09326e-06
0.00149107
0.000414061
0.00012672
0.00154029
0.00021614
0.000335779
0.00151235
5.81975e-05
0.000351469
0.00145266
3.95813e-05
0.000275647
0.0014328
-5.07989e-06
0.000305439
0.00146319
2.33542e-05
0.000357126
0.00149207
-1.60394e-06
0.000305394
0.00149266
-0.000113249
0.000226849
0.00149261
-0.000143976
0.000204724
0.0015193
-5.95076e-05
0.000146371
0.00154464
6.06675e-06
6.7952e-05
0.00154605
2.88559e-05
5.01692e-05
0.00151738
2.98546e-05
2.82987e-05
0.00145346
3.40595e-05
5.68614e-06
6.9634e-05
2.48067e-05
0.00155455
-1.77193e-06
-0.000122923
0.00159698
-8.43033e-05
-5.51393e-05
0.00162286
-7.5845e-06
7.16529e-05
0.00162836
0.00013024
6.43024e-05
0.00166066
0.000126548
-4.82799e-05
0.00170281
-1.62789e-06
-0.000115407
0.00170252
5.03736e-05
-0.000121792
0.00169464
0.000217541
-7.54115e-05