/*--------------------------------*- C++ -*----------------------------------*\
  =========                 |
  \\      /  F ield         | OpenFOAM: The Open Source CFD Toolbox
   \\    /   O peration     | Website:  https://openfoam.org
    \\  /    A nd           | Version:  10
     \\/     M anipulation  |
\*---------------------------------------------------------------------------*/
FoamFile
{
    format      ascii;
    class       volScalarField;
    location    "6";
    object      pMean;
}
// * * * * * * * * * * * * * * * * * * * * * * * * * * * * * * * * * * * * * //

dimensions      [0 2 -2 0 0 0 0];

internalField   nonuniform List<scalar> 
102400
(
-0.000135421
0.00171152
-0.00220625
-0.00257323
-0.000189681
0.00156868
0.00289651
-0.00210873
-0.00490558
-0.00271572
-0.00114744
-0.00034461
-0.003027
0.0018649
0.00321641
0.00114126
-0.00236147
-0.0037542
0.000175383
0.00595083
0.00323295
-0.00210075
-0.00191114
-0.00416003
0.00211098
0.00102964
-0.0032459
-0.00215228
-0.00231562
0.00114365
0.00257751
-0.00114146
-0.00242246
0.000483731
-0.0021087
0.000914886
0.00399813
-0.00101335
0.000207141
-0.003624
-0.0170912
-0.0130127
-0.0191764
-0.0140852
-0.0205868
-0.0155898
-0.014687
-0.0200189
-0.0205435
-0.0179767
-0.0189918
-0.017544
-0.0183829
-0.0124831
-0.0132379
-0.0176361
-0.0215483
-0.0207548
-0.0133237
-0.00814036
-0.0168884
-0.020333
-0.0196131
-0.0188512
-0.0114663
-0.0189729
-0.0195817
-0.0156066
-0.0180548
-0.0131273
-0.0146572
-0.0174631
-0.0180003
-0.0151172
-0.0195443
-0.0153162
-0.0134136
-0.0178715
-0.0148013
-0.0210936
-0.00877545
-0.00558455
-0.00916771
-0.00782712
-0.00764574
-0.0104868
-0.00568229
-0.0138226
-0.0139913
-0.0129906
-0.0102078
-0.0105441
-0.0103352
-0.006649
-0.00577208
-0.0092772
-0.0150401
-0.0102384
-0.0079606
0.000490435
-0.00794562
-0.014294
-0.0112434
-0.0137433
-0.00273595
-0.00891902
-0.0110189
-0.0130826
-0.00980094
-0.00547342
-0.00607356
-0.00992515
-0.00976816
-0.00866897
-0.0132109
-0.0107129
-0.0075061
-0.0106142
-0.00657859
-0.0129374
-0.0164127
-0.0130368
-0.0160467
-0.0161768
-0.0118868
-0.0162691
-0.0126603
-0.016395
-0.0176054
-0.0208254
-0.0159508
-0.0161793
-0.0169815
-0.0103629
-0.0108299
-0.0133187
-0.017284
-0.0183202
-0.0148193
-0.00703826
-0.0118586
-0.0194508
-0.0169274
-0.0194348
-0.0104587
-0.0128166
-0.0212377
-0.0195162
-0.0152659
-0.0130104
-0.0145176
-0.0171393
-0.0173444
-0.0144253
-0.0189886
-0.0176178
-0.0140571
-0.0167935
-0.0115838
-0.018892
-0.0120939
-0.0109952
-0.013575
-0.0118873
-0.00826999
-0.0101988
-0.0092108
-0.0117519
-0.0133916
-0.0136766
-0.00981895
-0.0103381
-0.0138766
-0.00594639
-0.00315855
-0.0089928
-0.0111756
-0.0164754
-0.00659478
-0.00187408
-0.00497675
-0.0146605
-0.0130592
-0.0120455
-0.00524694
-0.00573161
-0.0176696
-0.0135408
-0.011604
-0.00732873
-0.00994591
-0.0116123
-0.0138562
-0.00943724
-0.00990543
-0.00821185
-0.00792237
-0.0110066
-0.00941863
-0.0130541
-0.0130153
-0.0128787
-0.0142004
-0.0137401
-0.0108209
-0.0110796
-0.010773
-0.0165097
-0.0163043
-0.0153705
-0.0132181
-0.011971
-0.0174575
-0.0119432
-0.00710873
-0.0116073
-0.0121865
-0.0187789
-0.00998668
-0.00555012
-0.00678884
-0.0154784
-0.0166272
-0.0175377
-0.00880691
-0.00783752
-0.0155142
-0.0180669
-0.0153289
-0.0110604
-0.0103922
-0.0142124
-0.0142223
-0.0122453
-0.0144027
-0.0104441
-0.00814627
-0.0138983
-0.0132033
-0.0169265
-0.0119479
-0.0110554
-0.0158149
-0.0115427
-0.00830019
-0.00835287
-0.0108445
-0.0177749
-0.0153792
-0.0127202
-0.0143337
-0.0123594
-0.0166974
-0.0085529
-0.00548613
-0.00788619
-0.010467
-0.0158338
-0.01215
-0.00415328
-0.00500154
-0.0119183
-0.0153483
-0.0179517
-0.00700186
-0.00664249
-0.0117839
-0.0153658
-0.0122726
-0.00916723
-0.006919
-0.0143818
-0.0118227
-0.0106328
-0.012621
-0.0108139
-0.00558528
-0.0163869
-0.011893
-0.0144559
-0.0117415
-0.0115143
-0.0214777
-0.0165285
-0.00957384
-0.00973615
-0.0110663
-0.0170824
-0.0199044
-0.0130381
-0.0131536
-0.0142692
-0.0172415
-0.00943674
-0.00627101
-0.0103132
-0.0159066
-0.0153392
-0.0147418
-0.00535782
-0.00849946
-0.0113994
-0.0143342
-0.0200691
-0.00842463
-0.00970202
-0.0134354
-0.0152264
-0.0155316
-0.0124848
-0.00686109
-0.013131
-0.0185128
-0.0126651
-0.0120185
-0.0119225
-0.00760557
-0.018672
-0.0144576
-0.0150056
-0.0118752
-0.00840845
-0.0167619
-0.0191002
-0.0094339
-0.00719468
-0.00544614
-0.0118504
-0.0208402
-0.0100056
-0.00928862
-0.00907202
-0.0150427
-0.0109545
-0.00426886
-0.0089298
-0.0129573
-0.0140957
-0.0137226
-0.0076137
-0.0100335
-0.00911264
-0.0091265
-0.0174788
-0.00990971
-0.00930767
-0.00972522
-0.0121229
-0.0179695
-0.0124803
-0.005457
-0.00856329
-0.0164383
-0.0113488
-0.0116224
-0.00926942
-0.00773743
-0.0134223
-0.0144758
-0.0158675
-0.0140215
-0.00958679
-0.0145072
-0.0181308
-0.0104323
-0.00745714
-0.00542653
-0.0118736
-0.0180155
-0.0108557
-0.00892452
-0.00814204
-0.0119134
-0.0126924
-0.00673197
-0.0068352
-0.00861406
-0.0136676
-0.0133671
-0.00753169
-0.010767
-0.00949311
-0.00758564
-0.0142721
-0.0111771
-0.00842996
-0.0114913
-0.0114824
-0.0162421
-0.012737
-0.00806074
-0.00717803
-0.010454
-0.0120818
-0.0171754
-0.00925775
-0.00536124
-0.0123183
-0.0141136
-0.0146339
-0.01065
-0.00512919
-0.00852888
-0.0173329
-0.0105733
-0.00625667
-0.00378652
-0.00876317
-0.0125894
-0.0120807
-0.00905532
-0.00542636
-0.00999063
-0.0108173
-0.00939012
-0.00582961
-0.00725481
-0.0117273
-0.0114096
-0.00831042
-0.0102632
-0.00788541
-0.00393423
-0.0113847
-0.0106156
-0.00515629
-0.0106802
-0.0103231
-0.0111734
-0.0118386
-0.00833678
-0.00445333
-0.00758725
-0.00848827
-0.0156683
-0.00953089
-0.00495597
-0.0116029
-0.0121374
-0.0136658
-0.0111154
-0.00393841
-0.00637873
-0.0141002
-0.0111998
-0.00755427
-0.00472462
-0.00714743
-0.0103206
-0.00991522
-0.0101131
-0.00775273
-0.00934098
-0.00975586
-0.00829403
-0.00617786
-0.00835664
-0.0101375
-0.0111041
-0.0112099
-0.00951379
-0.00822365
-0.00528414
-0.0094295
-0.00642737
-0.0060832
-0.00643734
-0.00842159
-0.0097989
-0.00857007
-0.00955757
-0.00402303
-0.0063005
-0.00679773
-0.0102719
-0.00927427
-0.00678499
-0.0106679
-0.00820333
-0.0104972
-0.00603766
-0.00311697
-0.00466021
-0.0117386
-0.00933456
-0.00465569
-0.00410353
-0.00563571
-0.00776278
-0.00534584
-0.00790666
-0.00751845
-0.00759587
-0.00832039
-0.00509057
-0.00604705
-0.0094301
-0.00624653
-0.00741252
-0.0101984
-0.00958564
-0.00568469
-0.00429425
-0.00604349
-0.00495166
-0.00732116
-0.00542161
-0.00696205
-0.00889533
-0.00840321
-0.00900596
-0.00763562
-0.0043945
-0.00797386
-0.0100213
-0.00705192
-0.00794191
-0.00942519
-0.00755773
-0.00676439
-0.00381436
-0.00156369
-0.0043298
-0.00982511
-0.0120277
-0.00540831
-0.00224546
-0.0049116
-0.00409377
-0.00242955
-0.00759758
-0.00423315
-0.00459224
-0.00735246
-0.00403723
-0.00336765
-0.00777577
-0.00315326
-0.00342445
-0.00891549
-0.00848329
-0.00665141
-0.00298503
-0.00320553
-0.00630372
-0.00790109
-0.00631279
-0.00538248
-0.00674716
-0.00770357
-0.0050327
-0.00979099
-0.00535865
-0.00731457
-0.00956456
-0.0060751
-0.00836823
-0.00640865
-0.00824661
-0.00645478
-0.0037397
-0.000235803
-0.00210831
-0.00739577
-0.0107687
-0.00662181
-0.00205493
-0.0037669
-0.00266403
-0.00226053
-0.00779537
-0.00351821
-0.00303585
-0.00592744
-0.00341751
-0.00125396
-0.00355369
-0.00276863
-0.00176558
-0.00782663
-0.00718111
-0.00581566
-0.00472003
-0.00319329
-0.00524651
-0.00726515
-0.00589621
-0.00208302
-0.00501077
-0.00642503
-0.00251541
-0.00536579
-0.00482456
-0.00456409
-0.00778969
-0.00669763
-0.00769803
-0.00523661
-0.00905036
-0.0059887
-0.00353615
0.000115839
-0.000610166
-0.00400672
-0.00557691
-0.00734197
-0.00248102
-0.00530454
-0.00186143
-0.00162674
-0.00637985
-0.0030096
-0.00186936
-0.00659286
-0.00228558
3.85438e-05
-0.0021636
-0.00168714
-0.00170038
-0.0056576
-0.0048875
-0.00425364
-0.0047166
-0.00170502
-0.00415148
-0.00587758
-0.00517017
-0.00201878
-0.00189714
-0.00554031
-0.00444956
-0.00116202
-0.00305465
-0.00203424
-0.00416146
-0.00277995
-0.00542149
-0.00551712
-0.00653968
-0.00614081
-0.00482944
-0.000303344
-0.000700379
-0.00290799
-0.00477427
-0.00693842
-0.00212218
-0.00341169
-0.000426325
-0.000470933
-0.00479176
-0.0031163
-0.00180278
-0.0058339
-0.00192827
0.000601595
-0.00155365
-0.000992819
-0.00103062
-0.00344657
-0.00295957
-0.00172301
-0.00207336
-0.00117566
-0.00154913
-0.00331892
-0.00407093
-0.00118642
-0.000695443
-0.00461884
-0.0022115
-0.00186062
-0.00119304
-0.000953008
-0.00230274
-0.00136791
-0.00363009
-0.00428905
-0.00351713
-0.00725631
-0.00423986
-0.00153228
-0.000596753
-0.00248018
-0.00344088
-0.00418939
-0.00173366
-0.000573903
-9.27154e-05
0.000387336
-0.00251652
-0.00264339
-0.00113487
-0.0048398
-0.00312457
9.2228e-05
-0.00104519
-0.00118447
-0.000696323
-0.0015396
-0.00374496
-0.00129103
-0.00217207
-0.000428929
-0.000152715
-0.00268624
-0.00287706
-0.0004282
-0.000967597
-0.00268605
-0.00179257
-0.000958596
8.78666e-05
-0.000310434
-0.00144111
-0.000911866
-0.00236063
-0.00283913
-0.00132805
-0.00398436
-0.00286241
-0.000868191
-0.000250742
-0.000617437
-0.000935706
-0.00241602
-0.000407293
-0.000911108
0.000257246
0.000702183
-0.00112919
-0.0029703
-0.00108745
-0.00260387
-0.00234929
0.000442361
-0.000288466
-0.000864391
-0.000216098
0.000127069
-0.00210065
-0.00133834
-0.00165137
-0.00052397
0.000269819
-0.00126915
-0.00179949
-0.000818708
-0.00102205
-0.00193501
-0.00021279
-0.00023357
0.000327623
-5.90461e-05
-0.000431717
0.000166169
-0.000892412
-0.00217062
-0.000149193
-0.00152272
-0.00128077
-0.000209196
-0.00021503
-0.000424326
-0.000689179
-0.00106512
0.000178786
-0.000783911
0.000324272
0.000594929
-0.000728783
-0.00138982
-0.000927266
-0.00122396
-0.00143389
2.07239e-05
7.25438e-05
-0.000949632
-0.00020046
0.000402046
-0.000347483
-0.000747672
-0.000875339
-3.21398e-05
0.00049744
-0.000147543
-0.000842996
-0.000403282
-0.000364346
-0.00116083
-0.000326291
0.000240531
3.18419e-05
-5.4694e-05
-0.000600376
0.000640851
-9.94464e-05
-0.00184692
0.000547827
-0.00113546
-0.000812445
0.000120078
-0.000127486
-6.9185e-05
-0.000121785
9.55285e-05
0.000605371
-0.0004175
0.000253592
0.000514679
0.000129645
-0.000424974
-0.000595865
-0.000216687
-0.000606257
0.000256299
0.000274182
-0.000473101
-4.74589e-06
0.0003629
-9.04106e-05
6.67933e-05
-0.000477988
-6.87511e-05
0.000411732
0.000241289
-0.0001837
-0.000201206
-0.000122862
-0.000295666
0.000100426
0.000335955
0.000146556
8.79064e-05
-9.767e-05
0.000918548
0.000338397
-0.00134474
0.000372666
-0.000218394
-0.000431904
-5.28501e-06
-7.23161e-05
-0.000143602
-5.50862e-06
3.17977e-05
0.000579903
-0.000182207
0.000200248
0.000383209
0.000132739
-3.05713e-06
-0.000449128
-5.79535e-05
-0.000269225
6.20161e-05
0.000260059
-0.000382556
-5.619e-05
0.000216869
8.90135e-05
0.000207824
-0.000253908
1.68852e-05
0.00038492
0.000305698
-3.09924e-05
-9.92255e-05
-2.5067e-06
-0.000141297
-0.00013659
0.000345694
7.98566e-05
0.000155943
-0.000202688
0.000754423
0.000560333
-0.000964586
0.00021901
-6.7623e-05
-8.35942e-05
7.35432e-05
1.34469e-05
-6.34543e-05
3.7427e-05
0.000110995
0.000495071
-4.27604e-05
0.000138255
0.000335696
0.000238753
0.00023118
-0.000304698
-4.86225e-05
-1.16672e-05
0.000145651
0.000232558
-0.000146922
-6.64454e-06
0.000198023
0.000291178
0.000327982
-4.96974e-05
2.86864e-05
0.000337358
0.000313858
0.000135615
5.46826e-06
8.95317e-06
7.10279e-05
0.000178388
0.000343577
0.000139203
0.000225634
0.000160981
0.000706762
0.00058221
-0.000559205
9.79347e-05
5.04392e-05
-8.93345e-05
1.93585e-05
-9.27393e-06
-7.84615e-05
1.25416e-05
5.63204e-05
0.000333036
1.64143e-05
8.37364e-05
0.000218691
0.00012146
0.000254889
-0.000220582
-7.26977e-05
-4.79414e-05
4.40323e-05
0.000175795
-7.48135e-05
-1.47556e-05
0.000129371
0.000209935
0.000259172
1.05392e-05
3.93416e-05
0.000221361
0.000226339
0.000115391
3.47215e-05
3.1949e-05
6.36665e-05
5.89492e-05
0.000264432
0.000118827
0.000158881
9.09171e-05
0.000479902
0.000470126
-0.00035028
5.33121e-06
2.62487e-05
-4.21302e-05
2.40799e-05
1.45836e-05
-3.01631e-05
1.89541e-05
7.63245e-05
0.000233768
6.49849e-05
6.97743e-05
0.000141022
8.9749e-05
0.000178337
-0.000114183
-5.73516e-05
-2.15948e-05
5.8856e-05
0.000131274
1.59392e-06
1.41678e-05
0.000120477
0.000204169
0.000219332
8.26868e-05
7.23519e-05
0.000179536
0.000189701
0.000131209
7.39445e-05
5.86682e-05
0.000100679
0.00014699
0.000226771
0.000141428
0.000154847
0.000172555
0.000337652
0.000362637
-0.000173128
-1.8141e-05
1.97478e-05
-3.47056e-05
-2.56973e-08
-4.26576e-07
-3.08634e-05
2.09298e-06
4.00166e-05
0.000132913
5.61831e-05
3.73238e-05
7.41835e-05
4.36661e-05
8.40372e-05
-7.20804e-05
-5.63985e-05
-2.36503e-05
2.26434e-05
8.2949e-05
2.10304e-05
2.02958e-05
8.55008e-05
0.000142487
0.000157756
8.43287e-05
6.89076e-05
0.000129802
0.000140829
0.000113584
8.16301e-05
6.55136e-05
9.25857e-05
9.75996e-05
0.000163016
0.000122941
0.000120759
0.000130443
0.000213283
0.000252265
-7.70636e-05
-3.81503e-05
-5.14197e-07
-1.56364e-05
1.47533e-06
5.43042e-06
-9.58088e-06
6.79131e-06
3.51387e-05
8.42022e-05
5.16024e-05
3.06296e-05
4.05475e-05
2.23531e-05
3.43671e-05
-3.83368e-05
-4.00499e-05
-1.91035e-05
1.47321e-05
5.21826e-05
3.17754e-05
3.24493e-05
7.36921e-05
0.000115884
0.000126668
9.27606e-05
8.10582e-05
0.000111959
0.00012108
0.000106988
8.57054e-05
7.35933e-05
8.98962e-05
0.000103305
0.000130936
0.000111929
0.000104672
0.00011598
0.000148439
0.000165878
-1.50628e-05
-2.79761e-05
-5.01541e-06
-1.50098e-05
-9.32542e-06
-5.72418e-06
-1.33009e-05
-4.07774e-06
1.3507e-05
3.88998e-05
2.84436e-05
1.29143e-05
1.26771e-05
2.18577e-06
2.41854e-06
-2.87244e-05
-3.34393e-05
-1.90614e-05
3.55578e-06
2.98576e-05
2.89047e-05
3.21501e-05
5.66202e-05
8.3207e-05
9.31321e-05
8.03713e-05
7.30875e-05
8.86031e-05
9.55588e-05
9.03491e-05
8.07687e-05
7.30879e-05
8.07659e-05
8.58948e-05
9.87146e-05
9.16142e-05
8.4681e-05
8.94505e-05
9.81996e-05
0.000102698
9.94978e-06
-2.01211e-05
-1.16148e-05
-1.38949e-05
-1.20637e-05
-8.72781e-06
-1.10979e-05
-6.3938e-06
4.33029e-06
1.69674e-05
1.33292e-05
3.09342e-06
-1.63806e-06
-9.14497e-06
-1.27345e-05
-2.60348e-05
-2.90926e-05
-2.06153e-05
-5.21953e-06
1.25164e-05
1.92798e-05
2.65274e-05
4.318e-05
6.1815e-05
7.0751e-05
6.80571e-05
6.5919e-05
7.28133e-05
7.65898e-05
7.38822e-05
6.81141e-05
6.36091e-05
6.70274e-05
7.06054e-05
7.57516e-05
7.21998e-05
6.66849e-05
6.6238e-05
6.5153e-05
5.96759e-05
1.35505e-05
-1.2353e-05
-1.27269e-05
-2.19763e-05
-2.42617e-05
-2.28934e-05
-2.3881e-05
-2.12189e-05
-1.45627e-05
-7.81584e-06
-7.60226e-06
-1.24581e-05
-1.63458e-05
-2.10339e-05
-2.44644e-05
-2.99319e-05
-3.10728e-05
-2.55229e-05
-1.53063e-05
-2.81169e-06
5.9346e-06
1.36899e-05
2.49891e-05
3.7239e-05
4.50404e-05
4.71649e-05
4.79039e-05
5.18188e-05
5.47891e-05
5.48441e-05
5.32218e-05
5.14916e-05
5.26367e-05
5.38539e-05
5.4899e-05
5.2446e-05
4.76932e-05
4.40411e-05
3.85357e-05
3.01676e-05
6.29547e-06
-1.39586e-05
-1.91008e-05
-6.45678e-05
-6.71816e-05
-6.54703e-05
-6.53459e-05
-6.43228e-05
-6.10978e-05
-5.8138e-05
-5.80455e-05
-6.1076e-05
-6.42635e-05
-6.73238e-05
-6.95968e-05
-7.16355e-05
-7.12351e-05
-6.7107e-05
-5.96355e-05
-5.02023e-05
-4.16293e-05
-3.34849e-05
-2.43996e-05
-1.51939e-05
-8.1705e-06
-4.18014e-06
-1.63757e-06
1.5807e-06
4.1765e-06
5.22312e-06
5.05051e-06
4.47638e-06
4.76403e-06
4.83449e-06
3.96502e-06
8.2162e-07
-4.41643e-06
-1.00292e-05
-1.72475e-05
-2.60315e-05
-4.11249e-05
-5.59648e-05
-6.14197e-05
1.58609e-05
1.06201e-05
1.03409e-05
9.60865e-06
9.69208e-06
1.16517e-05
1.33158e-05
1.40614e-05
1.29324e-05
1.09976e-05
9.07305e-06
8.02865e-06
8.00943e-06
9.63451e-06
1.35581e-05
1.973e-05
2.75001e-05
3.53966e-05
4.2687e-05
4.96932e-05
5.63953e-05
6.23207e-05
6.72546e-05
7.13503e-05
7.53392e-05
7.88503e-05
8.14701e-05
8.31365e-05
8.3782e-05
8.37282e-05
8.28589e-05
8.09848e-05
7.76747e-05
7.24961e-05
6.61882e-05
5.82754e-05
4.9789e-05
3.91554e-05
2.73642e-05
2.11639e-05
-0.00289434
-0.00138899
-0.00421537
-0.00503197
-0.00389001
-0.00104448
-0.000755084
-0.00384041
-0.00436806
-0.003043
-0.00253463
0.00117662
-0.00311362
-0.0038402
-0.000938997
-0.00258723
-0.00451764
-0.00623106
-0.00348846
-0.000310006
-0.00321951
-0.00371599
-0.001494
-0.00329484
-0.00249108
-0.00316703
-0.00198152
-0.00338586
-0.00380197
-0.00107072
-0.0014496
-0.00331041
-0.00310726
-0.00150267
-0.00200896
0.00136792
0.00091835
-0.00317008
-0.00526563
-0.00434221
-0.0236632
-0.0180706
-0.0245596
-0.0243855
-0.0247156
-0.0195363
-0.0204703
-0.0220184
-0.0245048
-0.0229596
-0.018782
-0.0189968
-0.0227887
-0.0216573
-0.0196131
-0.0183439
-0.0236548
-0.0234266
-0.0209325
-0.019571
-0.0233363
-0.0235321
-0.0213134
-0.0235101
-0.0206171
-0.0226235
-0.0213178
-0.022999
-0.0230887
-0.0216883
-0.0203208
-0.022611
-0.0234768
-0.0222463
-0.0233434
-0.0177249
-0.0193464
-0.0224794
-0.0247464
-0.0218635
-0.0153372
-0.0110926
-0.0148067
-0.0176968
-0.0168391
-0.0134678
-0.011363
-0.0143202
-0.0133133
-0.0157471
-0.0131926
-0.00844459
-0.0158656
-0.0154372
-0.0131398
-0.0116298
-0.0148699
-0.0187005
-0.0148509
-0.011885
-0.0161297
-0.0143159
-0.0135371
-0.0155563
-0.012956
-0.0136465
-0.0108503
-0.0130844
-0.0139156
-0.0143191
-0.0131049
-0.0144251
-0.0142132
-0.0141651
-0.0145226
-0.0111399
-0.0103199
-0.0144401
-0.0170644
-0.0139357
-0.0181637
-0.0156621
-0.0202089
-0.0229067
-0.0193278
-0.0175986
-0.0150418
-0.0197331
-0.016003
-0.0179943
-0.0173916
-0.0135865
-0.020339
-0.0215019
-0.0182942
-0.0208344
-0.0189756
-0.0254536
-0.0210093
-0.0163935
-0.0198204
-0.0188633
-0.0168935
-0.0201748
-0.0204395
-0.0169306
-0.0170853
-0.0184821
-0.0182075
-0.0149263
-0.0175968
-0.0202197
-0.0180391
-0.0174722
-0.0167413
-0.0158069
-0.0152592
-0.01995
-0.0198739
-0.0213762
-0.0134347
-0.00876614
-0.0140396
-0.015122
-0.0125084
-0.0109127
-0.0111413
-0.0148423
-0.0124438
-0.0142223
-0.0126282
-0.00765067
-0.0134664
-0.0145536
-0.0134227
-0.0144953
-0.0130008
-0.0174033
-0.0150124
-0.0101977
-0.0125095
-0.0138423
-0.0114214
-0.0146152
-0.0159747
-0.0139896
-0.011346
-0.0164551
-0.0148023
-0.0105985
-0.0122989
-0.014378
-0.012906
-0.0119731
-0.0131117
-0.0105747
-0.0102162
-0.0140994
-0.015895
-0.0156797
-0.0157056
-0.0112845
-0.0155149
-0.0170016
-0.0145203
-0.0114058
-0.0126111
-0.0166341
-0.0147243
-0.018119
-0.019693
-0.0102389
-0.0144152
-0.0165388
-0.0129658
-0.0150886
-0.0146176
-0.0205706
-0.0153037
-0.0117666
-0.0140567
-0.0143826
-0.015778
-0.014843
-0.0154205
-0.0161924
-0.013972
-0.0178173
-0.0178732
-0.0136948
-0.0148605
-0.0137818
-0.0135602
-0.0139097
-0.0144201
-0.0110173
-0.00909149
-0.0164228
-0.0194426
-0.0176244
-0.015991
-0.0129556
-0.0132634
-0.0159364
-0.0137417
-0.0103751
-0.0110084
-0.0143499
-0.0122087
-0.0161896
-0.0173705
-0.0122953
-0.011692
-0.0161672
-0.0103654
-0.012928
-0.0132275
-0.0175286
-0.013651
-0.00986073
-0.0119103
-0.0122939
-0.0105204
-0.0133286
-0.0134032
-0.0140887
-0.0125956
-0.0150856
-0.015979
-0.0120955
-0.0128283
-0.0139195
-0.0131729
-0.0124623
-0.0113452
-0.00852521
-0.00692628
-0.0148169
-0.0169927
-0.0168104
-0.0167401
-0.0154149
-0.0165874
-0.016861
-0.0157897
-0.0131453
-0.0127021
-0.0154601
-0.014426
-0.0148622
-0.0143139
-0.0126114
-0.0146771
-0.0158572
-0.0137032
-0.0145822
-0.0133091
-0.0157245
-0.015027
-0.0118604
-0.0128653
-0.014386
-0.00974963
-0.0153474
-0.0129982
-0.0131128
-0.0122408
-0.0151267
-0.0171025
-0.0129691
-0.0137664
-0.013179
-0.0165025
-0.0142524
-0.0125868
-0.00876344
-0.0083887
-0.0149336
-0.0175181
-0.0167692
-0.012679
-0.00905439
-0.0143858
-0.0162339
-0.0142163
-0.0108537
-0.0115956
-0.0144575
-0.0172584
-0.0146311
-0.0102849
-0.00858679
-0.015206
-0.0132153
-0.0110023
-0.0121335
-0.0117375
-0.0142034
-0.0118635
-0.0102149
-0.0116894
-0.0108062
-0.0104224
-0.015458
-0.0118415
-0.0130406
-0.0104403
-0.013212
-0.0141545
-0.0113039
-0.0130945
-0.0128278
-0.0126752
-0.012821
-0.0110625
-0.00911488
-0.00711541
-0.0143143
-0.0150419
-0.0145098
-0.0103446
-0.00938054
-0.0136076
-0.0155717
-0.0131958
-0.00913098
-0.00991402
-0.0153055
-0.0196371
-0.013741
-0.0116198
-0.00862381
-0.0124478
-0.0130259
-0.00963775
-0.0104942
-0.0120517
-0.0153183
-0.0139294
-0.00779864
-0.0105768
-0.00900002
-0.0116222
-0.016006
-0.0113632
-0.0138004
-0.0110247
-0.0140672
-0.0147605
-0.0119916
-0.0122331
-0.0134604
-0.0135236
-0.0118619
-0.0112362
-0.00927044
-0.00559566
-0.0143409
-0.0144652
-0.0137812
-0.00781014
-0.00726646
-0.0145622
-0.0156461
-0.0117543
-0.0068046
-0.00739048
-0.0128717
-0.0153946
-0.0114938
-0.0111617
-0.00766502
-0.0113207
-0.00970366
-0.00832611
-0.00912589
-0.0117535
-0.0149482
-0.015046
-0.0065911
-0.00885953
-0.00906455
-0.00842697
-0.0136718
-0.0099869
-0.0111959
-0.00844841
-0.0134426
-0.0140705
-0.012202
-0.00921944
-0.0116872
-0.0123131
-0.0106043
-0.0097178
-0.00557048
-0.00199417
-0.0145177
-0.0130537
-0.010258
-0.00660939
-0.00502611
-0.0101061
-0.0141254
-0.0119251
-0.00622796
-0.00391701
-0.00866372
-0.0130056
-0.0104601
-0.0103299
-0.00630606
-0.0102931
-0.00987726
-0.00736074
-0.00849977
-0.0124545
-0.012072
-0.014358
-0.00821732
-0.00881978
-0.00845546
-0.00550613
-0.0110067
-0.0107163
-0.0106457
-0.0108878
-0.0103572
-0.0117149
-0.00987613
-0.00856945
-0.00797991
-0.0102751
-0.0101848
-0.0115856
-0.00532318
-0.00148752
-0.0115515
-0.0137943
-0.00949824
-0.00532385
-0.00432098
-0.00754565
-0.0124827
-0.0109134
-0.00583134
-0.00377797
-0.00679551
-0.010981
-0.00985635
-0.00762804
-0.00573458
-0.00761309
-0.00829682
-0.00549236
-0.00680047
-0.0111288
-0.0103572
-0.00993431
-0.00770073
-0.00761119
-0.00683908
-0.00534304
-0.00768145
-0.00924968
-0.00862362
-0.00840678
-0.00847855
-0.00941396
-0.0085295
-0.00850866
-0.00684744
-0.00788923
-0.00813302
-0.012278
-0.00404964
-0.0014856
-0.0112048
-0.0117874
-0.00921476
-0.00310856
-0.00428202
-0.00632527
-0.0116039
-0.0114795
-0.004207
-0.00159521
-0.00549643
-0.0076434
-0.00805718
-0.00718316
-0.00485387
-0.00726571
-0.0063754
-0.00443036
-0.00408583
-0.00941206
-0.00896198
-0.00770588
-0.00833334
-0.0073797
-0.00655196
-0.00552283
-0.00619819
-0.00733589
-0.0064952
-0.00728006
-0.00814481
-0.00759671
-0.00706094
-0.00687342
-0.00626604
-0.00589892
-0.00667147
-0.00934643
-0.0032697
-0.00302209
-0.0102108
-0.00928445
-0.00842222
-0.00252774
-0.00208389
-0.00469668
-0.00777041
-0.009859
-0.00459088
-0.00185481
-0.00414873
-0.00589607
-0.00540393
-0.00591461
-0.00472703
-0.00472549
-0.00563846
-0.00425911
-0.00168138
-0.00792982
-0.00494941
-0.00507173
-0.00560814
-0.00492575
-0.00570739
-0.00537251
-0.0050534
-0.00573966
-0.00538138
-0.00649646
-0.00642122
-0.00623512
-0.00528007
-0.00412905
-0.00592364
-0.00407879
-0.00484392
-0.00649783
-0.00305085
-0.00450845
-0.00869007
-0.00659342
-0.00695873
-0.00249357
-0.00152229
-0.00328535
-0.00716677
-0.00709425
-0.00403637
-0.0027365
-0.00375271
-0.00366202
-0.00527237
-0.00533284
-0.0028432
-0.00322737
-0.00575591
-0.00347233
-0.00117922
-0.00473964
-0.00412801
-0.00412623
-0.00560342
-0.00428452
-0.00542202
-0.00398872
-0.00223176
-0.00486622
-0.00505691
-0.0048759
-0.00433034
-0.00384473
-0.00426395
-0.00194648
-0.00422275
-0.00365063
-0.00386609
-0.00708154
-0.00432069
-0.00438247
-0.00549072
-0.00539212
-0.00556978
-0.00224332
-0.000697054
-0.00223972
-0.00502398
-0.00499579
-0.00393659
-0.00180483
-0.00265149
-0.00262499
-0.003566
-0.00374465
-0.00179328
-0.00228809
-0.00469547
-2.73239e-05
-0.000628371
-0.0035094
-0.00247063
-0.0022377
-0.00481453
-0.00327221
-0.00491807
-0.00330752
-0.00128571
-0.00354504
-0.0042679
-0.00384244
-0.00300134
-0.00255039
-0.00381961
-0.00103777
-0.00399191
-0.00311606
-0.00245277
-0.00468319
-0.00459231
-0.0048429
-0.00368743
-0.00382266
-0.00420276
-0.00188447
-0.000842742
-0.00130641
-0.00253323
-0.00422521
-0.00242108
-0.00183651
-0.00265217
-0.000870593
-0.0024134
-0.00330699
-0.00196392
-0.0019207
-0.00506013
-0.000670122
6.93024e-05
-0.0019317
-0.00189991
-0.00197778
-0.00378463
-0.00308294
-0.00299028
-0.00312902
-0.0010323
-0.00304014
-0.00287665
-0.00292617
-0.00114894
-0.00185697
-0.00371772
-0.000843187
-0.00342159
-0.00242805
-0.00178571
-0.00348977
-0.00374649
-0.00291781
-0.00323605
-0.00368075
-0.00437646
-0.00232391
-0.000782877
-0.00100483
-0.0017326
-0.00251109
-0.0014341
-0.00127004
-0.0017871
-0.000516926
-0.00133409
-0.00283292
-0.00125906
-0.00105971
-0.00389258
-0.00129071
0.000590218
-0.00121784
-0.00149154
-0.0010926
-0.00275473
-0.00170146
-0.00152471
-0.00246029
-0.000718416
-0.00138701
-0.00190426
-0.00187625
-0.000335405
-0.000891512
-0.0028271
-0.000246053
-0.00149031
-0.00161265
-0.00153901
-0.00171927
-0.00209938
-0.00164575
-0.00283483
-0.00197794
-0.00309666
-0.00218973
-0.000695408
-0.00115267
-0.00129362
-0.00210478
-0.00157004
-0.000375051
-0.00112578
-0.000586936
-0.00126809
-0.00202046
-0.00113411
-0.00105981
-0.00221295
-0.00190065
3.26557e-05
-0.000764728
-0.00112023
-0.000804745
-0.00230659
-0.00125602
-0.000839602
-0.00175481
-0.000587173
-0.00126581
-0.00149354
-0.000632321
-0.000472936
-0.000703328
-0.00235565
-0.000601723
-0.000846037
-0.00105514
-0.000723916
-0.00155601
-0.00155554
-0.00103479
-0.00225227
-0.00139707
-0.00219208
-0.00154904
-0.00055135
-0.000762582
-0.00101739
-0.00122783
-0.000700655
-0.000147337
-0.000759914
-0.000378357
-0.000644817
-0.00147154
-0.000557244
-0.00044789
-0.00162949
-0.00124474
0.00014048
-0.000195155
-0.000720032
-0.000534329
-0.00130848
-0.000941579
-0.00016865
-0.00073749
-0.000440975
-0.000475179
-0.000748267
-0.000377391
-0.000148239
-0.000338628
-0.00122244
-0.000469204
-0.00027546
-0.000415483
-0.000562145
-0.00075798
-0.000783663
-0.00045596
-0.00177693
-0.000995771
-0.00119703
-0.0012489
-0.000482388
-0.000790102
-0.000779736
-0.0010153
-0.000816724
-0.000101539
-0.000494544
-0.000527877
-0.000671455
-0.00105125
-0.000643705
-0.000663663
-0.00089315
-0.000879764
-0.000166564
-0.000215616
-0.000575635
-0.000469649
-0.000917921
-0.000843903
-0.000248188
-0.000599508
-0.000393423
-0.000538202
-0.000876119
-0.000367337
-0.000314721
-0.000247167
-0.000875507
-0.000600642
-0.000333988
-0.00041119
-0.00032549
-0.000693568
-0.000610573
-0.00037239
-0.00133389
-0.000747259
-0.00092296
-0.000794859
-0.00039329
-0.000515774
-0.000623601
-0.000700595
-0.000415471
1.86173e-05
-0.000321415
-0.000332485
-0.000384567
-0.0006865
-0.000475201
-0.000346798
-0.000688237
-0.000618291
-0.000165759
-7.70121e-05
-0.000350768
-0.00032639
-0.000470372
-0.000583666
-0.000190478
-0.000241615
-0.000293929
-0.000252849
-0.000415989
-0.000218983
-0.000148699
-0.000156197
-0.000385677
-0.000338729
-8.67722e-05
-0.000109434
-0.000242094
-0.000350706
-0.000307266
8.98796e-05
-0.00087499
-0.00057362
-0.000605463
-0.000641884
-0.00041526
-0.000493842
-0.000545153
-0.000572265
-0.000498215
-0.000198382
-0.000280983
-0.000400662
-0.000421545
-0.000542534
-0.000449278
-0.000457363
-0.000521378
-0.000479693
-0.000294319
-0.000201405
-0.0003328
-0.000357413
-0.000403871
-0.000496799
-0.000276749
-0.000315583
-0.000314173
-0.000304004
-0.000467564
-0.000322997
-0.000265163
-0.000197701
-0.000352156
-0.000366406
-0.000213013
-0.000211698
-0.000211281
-0.000300535
-0.000286535
2.02658e-05
-0.00063186
-0.000535283
-0.000522548
-0.000478928
-0.000372138
-0.000394315
-0.000455728
-0.000462709
-0.000369658
-0.00016477
-0.000223442
-0.000299484
-0.000310035
-0.000390578
-0.000357307
-0.000323412
-0.000414424
-0.000396518
-0.00028057
-0.000200634
-0.000256932
-0.000289533
-0.000284681
-0.000342497
-0.000241071
-0.000206506
-0.0002473
-0.000224124
-0.000283552
-0.000243631
-0.000202857
-0.000191761
-0.000218442
-0.000228441
-0.000148154
-0.000132956
-0.000175293
-0.000205712
-0.000214838
-3.88695e-06
-0.000421195
-0.00043876
-0.000423724
-0.000440302
-0.00040144
-0.000406037
-0.000428321
-0.000423707
-0.000391242
-0.000298948
-0.000282839
-0.000338605
-0.000347801
-0.000380342
-0.000364261
-0.00036738
-0.000392309
-0.000380637
-0.000332235
-0.000282784
-0.000294068
-0.000320151
-0.000311734
-0.000337905
-0.000286455
-0.00026801
-0.000280302
-0.000274016
-0.000324298
-0.000305087
-0.000275166
-0.000249198
-0.000263704
-0.000275809
-0.000237555
-0.000213612
-0.000218232
-0.000225495
-0.000241887
-0.000139349
-0.000362325
-0.000417994
-0.000412952
-0.000387469
-0.000371991
-0.000368085
-0.000383325
-0.000380775
-0.000349352
-0.000285078
-0.000275224
-0.000300736
-0.000309659
-0.000327103
-0.000326736
-0.000323003
-0.000344198
-0.000345886
-0.000316457
-0.000283158
-0.000279738
-0.00028995
-0.000280304
-0.000282497
-0.000260578
-0.000241201
-0.000249735
-0.000248562
-0.000261778
-0.00026112
-0.000247645
-0.000239001
-0.000235915
-0.00023265
-0.000216652
-0.000204788
-0.000214613
-0.000222174
-0.000238171
-0.000202134
-0.000308617
-0.000365066
-0.000373957
-0.000382872
-0.000382419
-0.000379471
-0.000381603
-0.000375897
-0.000360036
-0.000333887
-0.000318381
-0.000329369
-0.000336511
-0.00034453
-0.000345307
-0.000346128
-0.0003538
-0.000352881
-0.000339192
-0.000320391
-0.000310926
-0.000312836
-0.000305765
-0.000303432
-0.000288941
-0.000275252
-0.000275916
-0.00027743
-0.000289927
-0.000291229
-0.000282346
-0.000272729
-0.000269279
-0.000268347
-0.000260363
-0.000250686
-0.00025264
-0.000254849
-0.000269298
-0.000261068
-0.00031184
-0.000356599
-0.000371956
-0.000346618
-0.000349224
-0.000346107
-0.000346388
-0.000342937
-0.000331773
-0.000314988
-0.000305442
-0.000308009
-0.000311313
-0.00031518
-0.000317068
-0.00031782
-0.000321929
-0.000322564
-0.000314585
-0.000301749
-0.000292213
-0.000287739
-0.000280415
-0.000273115
-0.000263548
-0.000254807
-0.000253323
-0.000252951
-0.000254833
-0.000255197
-0.000252539
-0.000249348
-0.000246799
-0.000244476
-0.000241507
-0.000239387
-0.000243573
-0.000249548
-0.000260793
-0.00026735
-0.000294904
-0.000324968
-0.000338501
-0.000370834
-0.000375147
-0.000373917
-0.000373943
-0.000372281
-0.000366621
-0.000359628
-0.000354506
-0.000355825
-0.000358129
-0.000359268
-0.000359014
-0.000357959
-0.000357848
-0.000355792
-0.000349638
-0.000340429
-0.000330739
-0.000323926
-0.000316884
-0.000310072
-0.00030172
-0.000293308
-0.000289023
-0.00028684
-0.000287748
-0.000288387
-0.000286663
-0.000284665
-0.000284135
-0.00028477
-0.000285997
-0.000287462