/*--------------------------------*- C++ -*----------------------------------*\
  =========                 |
  \\      /  F ield         | OpenFOAM: The Open Source CFD Toolbox
   \\    /   O peration     | Website:  https://openfoam.org
    \\  /    A nd           | Version:  10
     \\/     M anipulation  |
\*---------------------------------------------------------------------------*/
FoamFile
{
    format      ascii;
    class       volSymmTensorField;
    location    "22.5";
    object      UPrime2Mean;
}
// * * * * * * * * * * * * * * * * * * * * * * * * * * * * * * * * * * * * * //

dimensions      [0 2 -2 0 0 0 0];

internalField   nonuniform List<symmTensor> 
25600
(
(0.000498458 -7.35504e-10 8.55632e-09 3.68235e-11 -2.64906e-12 3.0661e-11)
(0.000498453 1.28418e-09 7.24554e-09 3.35776e-11 1.237e-13 2.55816e-11)
(0.000498465 -6.23105e-09 5.9483e-09 3.2466e-11 2.80867e-12 2.40131e-11)
(0.000498458 -5.7177e-09 9.37733e-09 3.3683e-11 5.32669e-12 2.44905e-11)
(0.000498465 -1.12754e-08 5.11619e-09 3.56023e-11 7.50453e-12 2.4411e-11)
(0.000498466 -1.44758e-08 9.24892e-09 3.79549e-11 9.08018e-12 2.26323e-11)
(0.000498468 -1.48813e-08 7.14433e-09 3.99999e-11 9.49856e-12 2.09418e-11)
(0.000498472 -1.96976e-08 7.72018e-09 4.17083e-11 8.88379e-12 2.04824e-11)
(0.000498475 -2.00412e-08 9.05605e-09 4.34115e-11 7.42728e-12 2.00732e-11)
(0.000498479 -2.01279e-08 7.69379e-09 4.54729e-11 5.85536e-12 1.89436e-11)
(0.000498481 -2.24625e-08 8.88199e-09 4.98713e-11 5.12698e-12 1.79852e-11)
(0.000498481 -1.88054e-08 8.54301e-09 5.63492e-11 5.30757e-12 1.85487e-11)
(0.000498486 -2.01016e-08 7.59012e-09 6.17755e-11 5.64769e-12 2.00476e-11)
(0.000498482 -1.53866e-08 8.88549e-09 6.33516e-11 5.93721e-12 2.07311e-11)
(0.000498487 -1.43564e-08 6.33143e-09 6.08884e-11 5.10668e-12 2.09472e-11)
(0.000498482 -1.02556e-08 8.09397e-09 5.6102e-11 3.22784e-12 2.22536e-11)
(0.000498478 -5.51775e-09 5.2339e-09 5.14069e-11 5.17785e-13 2.39214e-11)
(0.000498481 -5.76984e-09 6.23221e-09 4.68191e-11 -1.69682e-12 2.57025e-11)
(0.000498471 4.76169e-09 4.53931e-09 4.21831e-11 -2.05576e-12 2.71414e-11)
(0.000498472 1.40411e-10 3.6767e-09 3.79189e-11 -2.19507e-12 2.84863e-11)
(0.000498466 1.1335e-08 3.24099e-09 3.40651e-11 -3.32299e-12 2.9921e-11)
(0.000498459 6.89234e-09 1.44428e-09 3.32603e-11 -5.77178e-12 3.13138e-11)
(0.000498459 1.46104e-08 2.21564e-09 3.7249e-11 -8.20248e-12 3.2598e-11)
(0.00049845 1.23887e-08 -1.08684e-09 4.47957e-11 -1.06293e-11 3.28754e-11)
(0.000498448 1.51024e-08 1.66809e-09 5.18836e-11 -1.32706e-11 3.17547e-11)
(0.000498446 1.63948e-08 -2.27491e-09 5.5189e-11 -1.55861e-11 3.00654e-11)
(0.000498436 1.48485e-08 1.03362e-09 5.60392e-11 -1.70674e-11 2.94956e-11)
(0.000498442 1.70386e-08 -1.77272e-09 5.79519e-11 -1.79907e-11 3.00076e-11)
(0.000498432 1.45405e-08 9.97853e-10 6.15125e-11 -1.88516e-11 3.09172e-11)
(0.000498434 1.62191e-08 5.55226e-10 6.57863e-11 -1.95849e-11 3.15941e-11)
(0.000498434 1.36962e-08 1.27233e-09 6.74169e-11 -2.01162e-11 3.29501e-11)
(0.000498431 1.3698e-08 3.47793e-09 6.45917e-11 -2.07413e-11 3.53823e-11)
(0.000498435 1.38132e-08 2.94055e-09 6.03467e-11 -2.19046e-11 3.8675e-11)
(0.000498436 1.07604e-08 5.81461e-09 5.71666e-11 -2.30984e-11 4.31577e-11)
(0.000498436 1.23583e-08 4.93233e-09 5.59341e-11 -2.35461e-11 4.80924e-11)
(0.000498443 1.01992e-08 7.29662e-09 5.56869e-11 -2.32778e-11 5.24288e-11)
(0.000498443 7.85607e-09 6.90685e-09 5.40492e-11 -2.18129e-11 5.39945e-11)
(0.00049845 1.05176e-08 6.60635e-09 5.08068e-11 -1.79435e-11 5.13047e-11)
(0.000498447 3.03863e-09 8.93806e-09 4.63823e-11 -1.22988e-11 4.54302e-11)
(0.000498456 7.09173e-09 5.77962e-09 4.13487e-11 -6.73201e-12 3.80811e-11)
(0.000498452 -3.00308e-09 8.24419e-09 4.07414e-11 -1.03258e-11 3.20859e-11)
(0.000498448 -3.52504e-10 7.63262e-09 3.88843e-11 -6.5144e-12 2.99138e-11)
(0.000498458 -7.13492e-09 6.2879e-09 3.71881e-11 -3.40616e-12 2.92547e-11)
(0.000498453 -7.94414e-09 8.67954e-09 3.55706e-11 -8.14227e-13 2.84911e-11)
(0.000498456 -1.2118e-08 5.05823e-09 3.3056e-11 1.18651e-12 2.68692e-11)
(0.000498462 -1.65754e-08 8.69429e-09 3.15391e-11 1.61292e-12 2.5111e-11)
(0.000498463 -1.62397e-08 6.78255e-09 3.10174e-11 4.82939e-13 2.49342e-11)
(0.000498467 -2.21293e-08 7.0052e-09 3.25257e-11 -1.08635e-12 2.47904e-11)
(0.000498474 -2.06107e-08 9.29736e-09 3.52166e-11 -2.66671e-12 2.23653e-11)
(0.000498476 -2.3094e-08 6.10512e-09 3.77071e-11 -3.6749e-12 1.90689e-11)
(0.000498482 -2.18002e-08 9.93623e-09 4.18525e-11 -4.10732e-12 1.70603e-11)
(0.000498483 -2.13771e-08 6.41998e-09 4.72887e-11 -3.34253e-12 1.71459e-11)
(0.000498489 -1.82706e-08 8.74291e-09 5.01334e-11 -2.05188e-12 1.83345e-11)
(0.000498487 -1.73589e-08 7.27925e-09 4.84639e-11 -1.17911e-12 1.81779e-11)
(0.000498491 -1.16143e-08 6.79718e-09 4.4546e-11 -1.93899e-12 1.85378e-11)
(0.00049849 -1.12428e-08 7.78289e-09 4.27357e-11 -4.39235e-12 2.16479e-11)
(0.000498483 -3.27235e-09 4.42745e-09 4.28092e-11 -6.70825e-12 2.64907e-11)
(0.000498489 -3.93815e-09 7.46096e-09 4.21206e-11 -7.11136e-12 3.16232e-11)
(0.000498476 5.52778e-09 2.83628e-09 4.07439e-11 -5.49661e-12 3.44777e-11)
(0.000498478 3.17573e-09 5.23618e-09 3.95815e-11 -3.97754e-12 3.49664e-11)
(0.000498471 1.21755e-08 2.88782e-09 3.95792e-11 -3.2216e-12 3.49698e-11)
(0.000498461 9.27947e-09 1.52338e-09 4.23656e-11 -3.3569e-12 3.57786e-11)
(0.000498464 1.61688e-08 3.74225e-09 4.63464e-11 -2.29553e-12 3.75902e-11)
(0.000498449 1.36016e-08 -1.44559e-09 5.13753e-11 -8.91626e-13 3.85884e-11)
(0.000498451 1.74588e-08 3.37092e-09 5.57267e-11 -6.22313e-13 3.7241e-11)
(0.000498444 1.66842e-08 -1.69865e-09 5.81574e-11 -1.2665e-12 3.41566e-11)
(0.000498437 1.67461e-08 1.98261e-09 6.17853e-11 -2.68284e-12 3.09884e-11)
(0.000498439 1.79782e-08 -5.25419e-10 6.88447e-11 -4.95752e-12 2.87242e-11)
(0.000498431 1.39644e-08 2.25519e-09 7.78555e-11 -8.60253e-12 2.80215e-11)
(0.000498432 1.77213e-08 1.32935e-09 8.51705e-11 -1.29495e-11 2.78712e-11)
(0.00049843 1.06386e-08 3.18257e-09 8.60992e-11 -1.68655e-11 2.88423e-11)
(0.00049843 1.43399e-08 4.3345e-09 7.97477e-11 -1.88436e-11 3.06403e-11)
(0.000498431 9.23988e-09 4.37804e-09 7.05193e-11 -1.94907e-11 3.18531e-11)
(0.000498434 9.75214e-09 7.63908e-09 6.24923e-11 -2.009e-11 3.33033e-11)
(0.000498435 7.37483e-09 5.55274e-09 5.81683e-11 -2.11411e-11 3.49502e-11)
(0.000498439 8.05687e-09 9.98146e-09 5.59726e-11 -2.17987e-11 3.7036e-11)
(0.000498442 3.67954e-09 6.78545e-09 5.33678e-11 -2.19534e-11 3.96376e-11)
(0.000498446 8.19226e-09 9.42189e-09 4.9287e-11 -2.07746e-11 4.07667e-11)
(0.000498444 -1.19857e-11 8.41319e-09 4.4602e-11 -1.76355e-11 3.95117e-11)
(0.000498453 5.81158e-09 7.86699e-09 4.2066e-11 -1.40619e-11 3.6146e-11)
(0.000498447 -5.13688e-09 8.1313e-09 3.0796e-11 -8.39337e-12 3.57152e-11)
(0.000498445 -8.43591e-10 7.6253e-09 3.12789e-11 -4.9695e-12 3.73083e-11)
(0.000498451 -9.42834e-09 7.30874e-09 3.20541e-11 -1.95876e-12 3.72147e-11)
(0.000498449 -8.30955e-09 7.29157e-09 3.04151e-11 4.87001e-13 3.57537e-11)
(0.000498449 -1.58389e-08 6.18944e-09 2.63514e-11 1.47761e-12 3.46221e-11)
(0.000498459 -1.6473e-08 7.73569e-09 2.44763e-11 1.01778e-14 3.46387e-11)
(0.000498458 -2.11076e-08 7.19093e-09 2.47917e-11 -1.19297e-12 3.58845e-11)
(0.000498464 -2.31731e-08 6.79459e-09 2.68044e-11 -1.29592e-12 3.45958e-11)
(0.000498473 -2.36802e-08 9.57162e-09 2.86546e-11 -7.58078e-13 3.019e-11)
(0.000498476 -2.57287e-08 5.74571e-09 2.95297e-11 -1.09533e-12 2.65742e-11)
(0.000498483 -2.29272e-08 1.07334e-08 3.26366e-11 -2.52603e-12 2.39517e-11)
(0.000498487 -2.39506e-08 5.72212e-09 3.76425e-11 -2.11076e-12 2.23544e-11)
(0.000498493 -1.84236e-08 1.00928e-08 4.01712e-11 -9.10653e-13 2.09762e-11)
(0.000498493 -1.91488e-08 6.7698e-09 3.99258e-11 -1.20904e-12 1.77397e-11)
(0.000498497 -1.10722e-08 7.68266e-09 3.93554e-11 -3.48982e-12 1.70931e-11)
(0.000498497 -1.16478e-08 8.30826e-09 4.1704e-11 -6.38958e-12 2.02154e-11)
(0.000498491 -2.98538e-09 3.99825e-09 4.49057e-11 -6.61213e-12 2.50372e-11)
(0.000498496 -1.4885e-09 9.42256e-09 4.41219e-11 -3.28289e-12 3.06331e-11)
(0.000498483 4.5312e-09 1.44046e-09 4.03394e-11 -2.4939e-13 3.29295e-11)
(0.000498484 6.93712e-09 7.45435e-09 3.51928e-11 9.16614e-13 3.33796e-11)
(0.000498476 1.14514e-08 2.68544e-09 3.14702e-11 1.91779e-12 3.40488e-11)
(0.000498466 1.24108e-08 2.07011e-09 3.15979e-11 2.74965e-12 3.56794e-11)
(0.000498467 1.68746e-08 5.17567e-09 3.41487e-11 5.66511e-12 3.82166e-11)
(0.000498452 1.4999e-08 -1.57555e-09 3.88672e-11 8.647e-12 3.96271e-11)
(0.000498453 2.03466e-08 4.833e-09 4.48331e-11 9.52763e-12 3.88227e-11)
(0.000498444 1.59842e-08 -1.14723e-09 5.13578e-11 8.58929e-12 3.67715e-11)
(0.000498438 2.08932e-08 2.82281e-09 5.86982e-11 6.35809e-12 3.36777e-11)
(0.000498437 1.67889e-08 5.68759e-10 7.06232e-11 3.43372e-12 3.09364e-11)
(0.000498432 1.67412e-08 3.5734e-09 8.56716e-11 -1.142e-13 2.99774e-11)
(0.000498428 1.65449e-08 1.83898e-09 9.82133e-11 -3.97535e-12 2.92229e-11)
(0.000498428 1.08067e-08 5.65136e-09 1.03142e-10 -6.60554e-12 3.01933e-11)
(0.000498428 1.2615e-08 4.66504e-09 9.67298e-11 -7.36039e-12 3.20213e-11)
(0.000498427 6.97287e-09 6.93374e-09 8.27666e-11 -7.58126e-12 3.23514e-11)
(0.000498432 6.84368e-09 8.86169e-09 6.70506e-11 -8.19304e-12 3.20935e-11)
(0.000498433 4.09361e-09 7.25675e-09 5.28719e-11 -9.03873e-12 3.07922e-11)
(0.000498436 4.41893e-09 1.22932e-08 4.23499e-11 -8.24683e-12 3.11029e-11)
(0.000498443 9.66984e-10 7.40872e-09 3.70475e-11 -7.83007e-12 3.3231e-11)
(0.000498443 4.87823e-09 1.24716e-08 3.34692e-11 -8.64461e-12 3.46672e-11)
(0.000498443 -2.14832e-09 8.09061e-09 3.10289e-11 -9.31109e-12 3.54105e-11)
(0.000498451 4.16042e-09 1.00619e-08 3.0753e-11 -9.73231e-12 3.54295e-11)
(0.000498444 -4.50961e-09 8.5856e-09 3.27492e-11 -9.54085e-12 4.49836e-11)
(0.000498441 -4.22695e-09 6.88274e-09 3.77008e-11 -5.87591e-12 4.74854e-11)
(0.000498446 -9.65387e-09 8.46723e-09 4.4888e-11 -2.16059e-12 4.75868e-11)
(0.000498444 -1.10294e-08 5.41817e-09 4.29872e-11 1.51658e-12 4.84889e-11)
(0.000498444 -1.86757e-08 7.42306e-09 3.62589e-11 8.9539e-13 5.03397e-11)
(0.000498454 -1.77543e-08 6.87385e-09 3.44458e-11 -2.02506e-12 5.24917e-11)
(0.000498453 -2.65909e-08 7.45021e-09 3.45297e-11 -1.15815e-12 5.3619e-11)
(0.000498463 -2.38669e-08 7.62773e-09 3.53894e-11 5.7578e-13 4.98419e-11)
(0.000498471 -2.88918e-08 9.01601e-09 3.41981e-11 2.35694e-12 4.57358e-11)
(0.000498478 -2.66886e-08 7.09251e-09 3.10489e-11 2.8671e-13 4.28043e-11)
(0.000498485 -2.71743e-08 1.05495e-08 3.32947e-11 -2.60549e-12 3.78409e-11)
(0.000498491 -2.47109e-08 6.80536e-09 3.83896e-11 -8.42644e-13 3.45985e-11)
(0.000498497 -2.20986e-08 1.08312e-08 4.21866e-11 1.53537e-12 3.06936e-11)
(0.000498499 -1.94706e-08 7.52043e-09 4.69522e-11 1.83067e-12 2.48944e-11)
(0.000498503 -1.37549e-08 8.68121e-09 5.08063e-11 9.65885e-14 2.28537e-11)
(0.000498503 -1.11801e-08 9.28475e-09 5.73241e-11 -2.03025e-12 2.27444e-11)
(0.000498499 -4.93154e-09 4.68555e-09 6.444e-11 9.62247e-13 2.45018e-11)
(0.000498502 4.7502e-10 1.0818e-08 6.18367e-11 7.00025e-12 2.80525e-11)
(0.00049849 2.5669e-09 1.87317e-09 5.35056e-11 8.59468e-12 2.88755e-11)
(0.000498489 9.54525e-09 8.80224e-09 4.0779e-11 7.85715e-12 2.94664e-11)
(0.00049848 9.77988e-09 3.62485e-09 2.96863e-11 6.59914e-12 3.09116e-11)
(0.00049847 1.48556e-08 2.43458e-09 2.79826e-11 6.78577e-12 3.22891e-11)
(0.000498468 1.62829e-08 6.77034e-09 3.36639e-11 9.05607e-12 3.40922e-11)
(0.000498455 1.67611e-08 -1.30873e-09 4.16966e-11 1.06733e-11 3.42721e-11)
(0.000498453 2.15644e-08 5.90476e-09 5.08311e-11 1.11713e-11 3.35106e-11)
(0.000498445 1.64896e-08 -2.1468e-10 5.66973e-11 9.7084e-12 3.31816e-11)
(0.000498439 2.38208e-08 3.08412e-09 6.04572e-11 7.41789e-12 3.15064e-11)
(0.000498433 1.63849e-08 2.06463e-09 7.62392e-11 5.70031e-12 3.03071e-11)
(0.000498431 1.96273e-08 4.12472e-09 1.00413e-10 4.00257e-12 3.01681e-11)
(0.000498423 1.5268e-08 3.30564e-09 1.26499e-10 1.61676e-12 2.98402e-11)
(0.000498424 1.14471e-08 7.46292e-09 1.43526e-10 9.77552e-13 3.27163e-11)
(0.000498424 1.00124e-08 6.07252e-09 1.41951e-10 1.11037e-12 3.6772e-11)
(0.000498422 4.62957e-09 9.38775e-09 1.2741e-10 1.73484e-12 3.93054e-11)
(0.00049843 2.65385e-09 1.06335e-08 1.06714e-10 1.40006e-12 4.17416e-11)
(0.000498431 6.1971e-10 9.76175e-09 8.24166e-11 1.41311e-12 4.21769e-11)
(0.000498434 -7.49223e-10 1.43198e-08 6.46329e-11 4.56034e-12 4.35187e-11)
(0.000498443 -1.22813e-09 9.12004e-09 5.55664e-11 4.52607e-12 4.42099e-11)
(0.000498441 -4.18716e-10 1.46192e-08 4.65005e-11 8.00576e-13 4.3192e-11)
(0.000498443 -2.32721e-09 8.58408e-09 3.98676e-11 -3.54967e-12 4.38936e-11)
(0.000498448 -2.22687e-10 1.13566e-08 3.44697e-11 -8.26872e-12 4.35251e-11)
(0.000498441 -3.30486e-09 8.71657e-09 4.29044e-11 -7.3517e-12 5.02347e-11)
(0.000498438 -8.56523e-09 5.68354e-09 5.49738e-11 -2.9332e-12 5.19873e-11)
(0.000498442 -8.22083e-09 9.19642e-09 7.13859e-11 2.73119e-14 5.35118e-11)
(0.000498437 -1.60901e-08 3.60377e-09 6.53481e-11 4.08798e-12 5.80898e-11)
(0.00049844 -1.89402e-08 8.67963e-09 5.72079e-11 -1.18484e-12 6.20221e-11)
(0.000498448 -2.26874e-08 6.0747e-09 5.82254e-11 -4.38874e-12 6.54617e-11)
(0.000498449 -2.91766e-08 8.1006e-09 5.6902e-11 -1.389e-12 6.77974e-11)
(0.000498461 -2.78365e-08 8.68482e-09 5.84477e-11 -2.39751e-13 6.51796e-11)
(0.000498469 -3.24313e-08 8.74899e-09 5.53316e-11 -1.0788e-12 6.48352e-11)
(0.000498479 -2.98089e-08 9.0927e-09 4.74048e-11 -7.7622e-12 6.16758e-11)
(0.000498486 -3.11653e-08 1.03796e-08 4.92487e-11 -1.00957e-11 5.50024e-11)
(0.000498494 -2.69643e-08 8.96127e-09 5.13185e-11 -7.27455e-12 5.43093e-11)
(0.000498501 -2.61392e-08 1.16797e-08 5.53162e-11 -4.12162e-12 4.99193e-11)
(0.000498505 -2.06926e-08 9.54569e-09 6.50708e-11 -2.44208e-12 4.25798e-11)
(0.000498509 -1.71939e-08 1.01671e-08 6.75956e-11 -3.36388e-12 3.68945e-11)
(0.000498509 -1.13324e-08 1.13668e-08 7.86916e-11 -4.21588e-12 3.12752e-11)
(0.000498508 -7.97368e-09 6.50636e-09 8.96712e-11 3.81406e-12 2.93238e-11)
(0.000498507 1.21124e-09 1.25847e-08 8.25354e-11 1.179e-11 3.03212e-11)
(0.000498496 -4.8009e-10 3.97027e-09 7.10333e-11 1.2583e-11 2.98021e-11)
(0.000498494 1.03721e-08 1.00973e-08 5.09051e-11 1.08611e-11 3.01788e-11)
(0.000498484 6.83958e-09 5.95024e-09 3.59248e-11 6.46022e-12 3.18777e-11)
(0.000498475 1.59315e-08 3.11222e-09 3.98627e-11 6.15961e-12 3.24859e-11)
(0.00049847 1.40103e-08 8.99731e-09 5.11651e-11 5.98694e-12 3.36052e-11)
(0.000498459 1.84074e-08 -4.93744e-10 6.15962e-11 7.85353e-12 3.24065e-11)
(0.000498453 2.07546e-08 7.15307e-09 7.18832e-11 9.50563e-12 3.15452e-11)
(0.000498447 1.88223e-08 9.86948e-10 6.79502e-11 7.5409e-12 3.15534e-11)
(0.000498438 2.51502e-08 3.63165e-09 6.46255e-11 5.7416e-12 3.06864e-11)
(0.000498431 1.8671e-08 3.92277e-09 8.29675e-11 6.25654e-12 3.07577e-11)
(0.00049843 2.1632e-08 4.98425e-09 1.13333e-10 5.00824e-12 3.03562e-11)
(0.000498417 1.56006e-08 5.5629e-09 1.53259e-10 3.62038e-12 3.01139e-11)
(0.00049842 1.09867e-08 9.10342e-09 1.80697e-10 5.63834e-12 3.47755e-11)
(0.000498419 8.23966e-09 8.37605e-09 1.86521e-10 8.56707e-12 4.0578e-11)
(0.000498417 3.92817e-10 1.14776e-08 1.79414e-10 1.42606e-11 4.56463e-11)
(0.000498426 -7.07213e-10 1.31504e-08 1.60783e-10 1.59019e-11 5.18587e-11)
(0.000498429 -5.42207e-09 1.21414e-08 1.33854e-10 1.9258e-11 5.56365e-11)
(0.000498434 -4.89026e-09 1.66017e-08 1.1712e-10 2.51566e-11 5.95809e-11)
(0.000498443 -5.8031e-09 1.11039e-08 1.02227e-10 2.21054e-11 5.7776e-11)
(0.000498442 -4.52131e-09 1.63866e-08 7.98819e-11 1.42103e-11 5.4424e-11)
(0.000498443 -3.46732e-09 9.37459e-09 6.11921e-11 6.76587e-12 5.40405e-11)
(0.000498448 -4.22717e-09 1.19801e-08 4.66176e-11 -3.46234e-12 5.04734e-11)
(0.000498438 -4.80652e-09 7.71605e-09 6.68563e-11 2.42004e-12 5.78332e-11)
(0.000498435 -9.46587e-09 4.11537e-09 9.03322e-11 6.74048e-12 5.71579e-11)
(0.000498436 -9.69013e-09 8.58015e-09 1.12911e-10 7.75793e-12 5.83362e-11)
(0.00049843 -1.85345e-08 2.03246e-09 9.75388e-11 1.25609e-11 6.28052e-11)
(0.000498435 -2.13822e-08 8.97816e-09 9.35257e-11 1.43136e-12 6.56391e-11)
(0.000498441 -2.67141e-08 5.56266e-09 9.81588e-11 1.99494e-12 7.04085e-11)
(0.000498446 -3.26237e-08 8.37193e-09 9.54121e-11 4.57273e-12 7.5372e-11)
(0.000498459 -3.22116e-08 9.57354e-09 1.03296e-10 5.01826e-12 7.47496e-11)
(0.000498468 -3.63292e-08 8.49889e-09 9.52657e-11 -7.52056e-13 8.02198e-11)
(0.000498479 -3.40108e-08 1.09484e-08 7.74434e-11 -1.02788e-11 7.62219e-11)
(0.000498488 -3.52076e-08 1.07322e-08 7.64715e-11 -1.22784e-11 7.2584e-11)
(0.000498497 -3.11649e-08 1.15881e-08 7.03704e-11 -1.31076e-11 7.79193e-11)
(0.000498505 -2.92096e-08 1.32928e-08 7.95606e-11 -1.07103e-11 7.32173e-11)
(0.000498511 -2.48849e-08 1.22441e-08 9.31124e-11 -9.35568e-12 6.55347e-11)
(0.000498515 -1.92327e-08 1.23594e-08 8.72058e-11 -1.17437e-11 5.40884e-11)
(0.000498515 -1.50821e-08 1.4103e-08 1.04806e-10 -1.27092e-11 4.50091e-11)
(0.000498516 -9.52734e-09 9.24806e-09 1.13591e-10 2.87352e-12 3.91589e-11)
(0.000498511 -2.39845e-09 1.50874e-08 1.00969e-10 1.05931e-11 3.7415e-11)
(0.000498502 -2.8236e-09 7.10498e-09 9.2517e-11 1.38355e-11 3.59118e-11)
(0.000498499 7.14055e-09 1.23096e-08 6.65283e-11 1.19353e-11 3.43147e-11)
(0.000498488 4.14788e-09 8.86079e-09 5.4804e-11 6.73751e-12 3.66624e-11)
(0.00049848 1.37588e-08 4.88503e-09 7.17158e-11 7.13754e-12 3.62643e-11)
(0.000498472 1.10685e-08 1.12046e-08 8.37189e-11 3.91624e-12 3.75076e-11)
(0.000498464 1.82479e-08 1.00061e-09 1.02516e-10 1.03574e-11 3.59465e-11)
(0.000498454 1.87538e-08 8.24957e-09 1.16545e-10 1.17971e-11 3.55235e-11)
(0.000498451 2.15457e-08 2.54806e-09 9.58288e-11 8.17778e-12 3.46489e-11)
(0.000498439 2.56726e-08 4.71071e-09 8.4142e-11 5.90867e-12 3.5471e-11)
(0.000498429 2.24279e-08 6.11487e-09 9.34748e-11 7.09457e-12 3.66528e-11)
(0.000498427 2.30429e-08 6.57953e-09 1.18189e-10 1.24644e-12 3.49558e-11)
(0.000498409 1.66874e-08 8.0841e-09 1.6214e-10 1.48197e-12 3.43228e-11)
(0.000498415 9.84819e-09 1.14474e-08 1.95114e-10 5.83972e-12 4.04052e-11)
(0.000498411 6.28768e-09 1.11032e-08 2.13312e-10 1.55955e-11 4.74593e-11)
(0.000498411 -5.3602e-09 1.42825e-08 2.23132e-10 2.87456e-11 5.31213e-11)
(0.000498422 -4.54888e-09 1.59654e-08 2.15334e-10 3.09271e-11 6.40422e-11)
(0.000498426 -1.40285e-08 1.49816e-08 1.98093e-10 4.34211e-11 7.24534e-11)
(0.000498434 -8.84641e-09 1.87898e-08 1.91769e-10 5.26313e-11 7.8698e-11)
(0.000498444 -1.31548e-08 1.31315e-08 1.69264e-10 4.58676e-11 7.39979e-11)
(0.000498444 -6.98158e-09 1.75826e-08 1.30117e-10 3.3856e-11 7.09354e-11)
(0.000498443 -7.33779e-09 9.73574e-09 9.71673e-11 2.31546e-11 6.90912e-11)
(0.000498449 -5.21925e-09 1.17217e-08 7.45205e-11 4.88482e-12 5.92499e-11)
(0.000498436 -5.90301e-09 6.04635e-09 1.17498e-10 1.78962e-11 7.74027e-11)
(0.000498432 -8.1982e-09 1.00181e-09 1.61223e-10 1.60552e-11 7.0826e-11)
(0.000498431 -1.18962e-08 6.867e-09 1.74984e-10 1.52047e-11 7.10485e-11)
(0.000498423 -1.84834e-08 -5.12295e-10 1.46517e-10 2.05232e-11 7.06261e-11)
(0.00049843 -2.52385e-08 8.78884e-09 1.55545e-10 4.99431e-12 6.96816e-11)
(0.000498435 -2.7945e-08 4.43581e-09 1.64014e-10 1.20851e-11 7.61315e-11)
(0.000498443 -3.73883e-08 8.65751e-09 1.65444e-10 1.56784e-11 8.01415e-11)
(0.000498457 -3.3424e-08 9.57868e-09 1.83206e-10 1.87017e-11 8.08559e-11)
(0.000498467 -4.20143e-08 8.84782e-09 1.5653e-10 5.99667e-12 9.18577e-11)
(0.00049848 -3.47816e-08 1.21841e-08 1.24777e-10 8.42082e-13 8.60924e-11)
(0.00049849 -4.14367e-08 1.24974e-08 1.20073e-10 -6.89648e-12 8.87903e-11)
(0.000498501 -3.2481e-08 1.45984e-08 9.72542e-11 -1.16255e-11 9.80288e-11)
(0.000498508 -3.40685e-08 1.70824e-08 1.22993e-10 -1.01827e-11 9.54912e-11)
(0.000498517 -2.7451e-08 1.59595e-08 1.29834e-10 -1.20117e-11 8.84968e-11)
(0.000498521 -2.2698e-08 1.69677e-08 1.06888e-10 -2.08986e-11 7.14125e-11)
(0.000498521 -1.89549e-08 1.80047e-08 1.30564e-10 -2.20914e-11 6.55597e-11)
(0.000498523 -1.22336e-08 1.42625e-08 1.27633e-10 1.40547e-12 5.20812e-11)
(0.000498515 -7.75926e-09 1.89291e-08 1.17416e-10 4.65258e-12 5.06852e-11)
(0.000498508 -5.58667e-09 1.23344e-08 1.17065e-10 1.3873e-11 4.7001e-11)
(0.000498502 1.15267e-09 1.57687e-08 8.30769e-11 1.14073e-11 4.25334e-11)
(0.000498492 1.50544e-09 1.32156e-08 8.56753e-11 1.16899e-11 4.58553e-11)
(0.000498483 8.79507e-09 7.79724e-09 1.13587e-10 9.6011e-12 4.30906e-11)
(0.000498475 8.53189e-09 1.40468e-08 1.22538e-10 7.88457e-12 4.57716e-11)
(0.000498468 1.61506e-08 3.28874e-09 1.68146e-10 2.41545e-11 4.52713e-11)
(0.000498457 1.7204e-08 9.49714e-09 1.8276e-10 2.39487e-11 4.53631e-11)
(0.000498456 2.38567e-08 4.31197e-09 1.46696e-10 1.85608e-11 4.21531e-11)
(0.000498439 2.69088e-08 5.8269e-09 1.26925e-10 1.61364e-11 4.78202e-11)
(0.000498427 2.65729e-08 8.32875e-09 1.14976e-10 1.33386e-11 4.92276e-11)
(0.000498424 2.61086e-08 8.52666e-09 1.27462e-10 -3.69977e-12 4.49389e-11)
(0.000498401 1.80544e-08 1.08242e-08 1.65119e-10 1.22319e-12 4.21863e-11)
(0.000498408 9.94365e-09 1.42034e-08 1.95207e-10 4.18108e-12 5.11247e-11)
(0.000498401 2.80023e-09 1.36541e-08 2.22633e-10 2.43789e-11 5.85483e-11)
(0.000498404 -1.10361e-08 1.73953e-08 2.53733e-10 3.92758e-11 6.31336e-11)
(0.000498416 -1.10348e-08 1.81134e-08 2.60258e-10 4.16656e-11 7.9479e-11)
(0.000498424 -2.27451e-08 1.81721e-08 2.62946e-10 6.84107e-11 9.14972e-11)
(0.000498435 -1.51092e-08 2.00972e-08 2.72943e-10 7.98129e-11 1.01262e-10)
(0.000498446 -2.04403e-08 1.54514e-08 2.46497e-10 6.90608e-11 9.22298e-11)
(0.000498448 -1.06609e-08 1.72768e-08 1.96405e-10 5.41991e-11 9.52102e-11)
(0.000498445 -1.08623e-08 9.93965e-09 1.58225e-10 4.07683e-11 8.98024e-11)
(0.000498451 -5.49032e-09 9.49911e-09 1.28803e-10 1.22867e-11 7.55919e-11)
(0.000498435 -4.40628e-09 1.97015e-09 2.11685e-10 4.02247e-11 1.09754e-10)
(0.000498429 -7.68563e-09 -4.64965e-09 2.74062e-10 1.81864e-11 9.40748e-11)
(0.000498425 -1.21543e-08 3.27855e-09 2.5698e-10 1.94538e-11 9.80847e-11)
(0.000498415 -1.89985e-08 -4.37435e-09 2.26007e-10 2.16661e-11 8.69605e-11)
(0.000498425 -2.69477e-08 7.84042e-09 2.54757e-10 4.24864e-13 8.34749e-11)
(0.000498428 -2.92437e-08 2.81131e-09 2.71225e-10 1.68528e-11 9.02907e-11)
(0.00049844 -3.96663e-08 9.12911e-09 2.9097e-10 2.82391e-11 8.75131e-11)
(0.000498454 -3.43758e-08 9.02101e-09 3.20351e-10 2.94293e-11 8.98483e-11)
(0.000498467 -4.59216e-08 9.63954e-09 2.55496e-10 1.63233e-11 1.04837e-10)
(0.00049848 -3.50909e-08 1.29743e-08 2.23733e-10 2.25431e-11 9.65546e-11)
(0.000498491 -4.72775e-08 1.54422e-08 1.99038e-10 -1.64937e-12 1.07148e-10)
(0.000498505 -3.29932e-08 1.81143e-08 1.52076e-10 4.08429e-12 1.1611e-10)
(0.000498511 -3.97638e-08 2.30531e-08 2.11747e-10 -7.97214e-13 1.24174e-10)
(0.000498523 -2.88515e-08 2.07992e-08 1.84353e-10 -7.77382e-12 1.12144e-10)
(0.000498524 -2.85134e-08 2.43161e-08 1.34163e-10 -3.01256e-11 9.62824e-11)
(0.000498526 -2.17716e-08 2.32847e-08 1.54912e-10 -2.62418e-11 9.76807e-11)
(0.000498528 -1.90719e-08 2.21139e-08 1.3119e-10 3.74102e-12 6.87551e-11)
(0.000498519 -1.21593e-08 2.43245e-08 1.33759e-10 -3.79318e-12 7.78893e-11)
(0.000498512 -1.2563e-08 1.97317e-08 1.38951e-10 1.36549e-11 6.57461e-11)
(0.000498506 -4.34454e-09 2.04397e-08 9.58619e-11 8.87016e-12 6.14644e-11)
(0.000498496 -5.20487e-09 1.89244e-08 1.27057e-10 1.79568e-11 6.52853e-11)
(0.000498487 3.88738e-09 1.10802e-08 1.5179e-10 7.79015e-12 5.79944e-11)
(0.000498479 2.67688e-09 1.71966e-08 1.68401e-10 1.79992e-11 6.4901e-11)
(0.000498473 1.41876e-08 4.81458e-09 2.54713e-10 4.52212e-11 6.6635e-11)
(0.000498462 1.35156e-08 1.06142e-08 2.58888e-10 4.41555e-11 6.48396e-11)
(0.000498461 2.78418e-08 5.52868e-09 2.27318e-10 3.88382e-11 5.98863e-11)
(0.000498441 2.7819e-08 7.57874e-09 1.9524e-10 4.09807e-11 7.66572e-11)
(0.000498428 3.34819e-08 1.10046e-08 1.62308e-10 2.61038e-11 7.19924e-11)
(0.000498418 2.9584e-08 1.13531e-08 1.65962e-10 -5.0128e-12 6.33664e-11)
(0.000498392 2.05366e-08 1.38435e-08 1.86209e-10 9.62729e-12 5.48943e-11)
(0.000498399 9.37556e-09 1.71183e-08 1.98485e-10 7.64684e-12 7.29096e-11)
(0.000498388 -1.55595e-09 1.64184e-08 2.30226e-10 4.34655e-11 7.7174e-11)
(0.000498396 -1.77404e-08 2.03291e-08 2.82197e-10 4.89819e-11 8.4906e-11)
(0.00049841 -1.93246e-08 2.00437e-08 2.97822e-10 5.57248e-11 1.06171e-10)
(0.000498422 -3.17182e-08 2.06389e-08 3.22993e-10 9.33829e-11 1.18297e-10)
(0.000498436 -2.30514e-08 2.06993e-08 3.47266e-10 1.02483e-10 1.31388e-10)
(0.000498449 -2.66812e-08 1.64468e-08 3.24481e-10 8.65488e-11 1.11801e-10)
(0.000498454 -1.543e-08 1.5614e-08 2.76729e-10 7.50922e-11 1.30954e-10)
(0.000498449 -1.21417e-08 8.29418e-09 2.48866e-10 5.62695e-11 1.11132e-10)
(0.000498454 -6.39845e-09 4.76491e-09 2.10445e-10 1.75531e-11 1.00302e-10)
(0.000498434 -2.7162e-10 -5.57922e-09 3.68395e-10 7.50313e-11 1.53344e-10)
(0.000498423 -4.16918e-09 -1.38418e-08 4.19359e-10 1.64971e-11 1.26889e-10)
(0.000498418 -9.6086e-09 -3.10335e-09 3.63951e-10 3.20712e-11 1.46199e-10)
(0.000498407 -1.65379e-08 -1.09004e-08 3.55933e-10 2.01048e-11 1.12865e-10)
(0.000498418 -2.50419e-08 4.609e-09 3.96705e-10 -1.31643e-11 1.19464e-10)
(0.000498421 -2.7946e-08 -7.85029e-10 4.36236e-10 2.10642e-11 1.19037e-10)
(0.000498436 -3.77757e-08 8.23953e-09 4.96281e-10 3.4768e-11 1.03312e-10)
(0.000498449 -3.4115e-08 7.04678e-09 5.15499e-10 2.1562e-11 1.14124e-10)
(0.000498465 -4.51563e-08 1.0149e-08 4.13713e-10 3.1314e-11 1.22702e-10)
(0.000498478 -3.4909e-08 1.35581e-08 4.08876e-10 3.77305e-11 1.13141e-10)
(0.00049849 -4.79678e-08 1.97771e-08 3.11459e-10 -5.33745e-12 1.28543e-10)
(0.000498507 -3.30038e-08 2.30183e-08 2.69191e-10 3.1678e-11 1.37558e-10)
(0.000498511 -4.14013e-08 3.1777e-08 3.80659e-10 5.65818e-12 1.65432e-10)
(0.000498527 -3.16305e-08 2.80378e-08 2.71515e-10 -3.59869e-12 1.36384e-10)
(0.000498526 -3.18043e-08 3.46274e-08 2.00915e-10 -4.5511e-11 1.40951e-10)
(0.000498529 -2.62896e-08 3.08789e-08 2.03131e-10 -2.10037e-11 1.41938e-10)
(0.000498531 -2.46783e-08 3.28485e-08 1.44118e-10 8.9366e-12 9.37785e-11)
(0.00049852 -1.82059e-08 3.21247e-08 1.67859e-10 -1.50141e-11 1.2697e-10)
(0.000498514 -1.94331e-08 2.96084e-08 1.65029e-10 1.54689e-11 9.54718e-11)
(0.000498508 -1.07463e-08 2.65342e-08 1.25015e-10 4.00022e-12 1.02856e-10)
(0.000498498 -1.24696e-08 2.5902e-08 1.87646e-10 2.0837e-11 1.00073e-10)
(0.000498489 -1.80984e-09 1.40552e-08 1.83955e-10 -2.18265e-13 9.00705e-11)
(0.000498483 -4.51391e-09 2.06825e-08 2.36806e-10 2.7811e-11 1.02795e-10)
(0.000498478 1.18218e-08 5.22017e-09 3.47026e-10 6.20993e-11 1.08479e-10)
(0.000498469 8.84967e-09 1.22371e-08 3.52633e-10 6.10635e-11 9.96615e-11)
(0.000498468 3.35626e-08 5.93287e-09 3.48894e-10 5.79621e-11 9.7924e-11)
(0.000498443 2.99812e-08 1.0487e-08 2.93194e-10 7.41414e-11 1.30904e-10)
(0.000498428 4.4838e-08 1.30323e-08 2.61959e-10 3.40374e-11 1.16461e-10)
(0.000498409 3.35696e-08 1.4997e-08 2.5553e-10 -7.96265e-13 9.51321e-11)
(0.00049838 2.62659e-08 1.60127e-08 2.45038e-10 2.79321e-11 7.64536e-11)
(0.000498385 7.86579e-09 2.08484e-08 2.24275e-10 1.82978e-11 1.1368e-10)
(0.000498373 -4.09828e-09 1.86445e-08 2.63527e-10 7.94288e-11 1.05825e-10)
(0.000498385 -2.56114e-08 2.36337e-08 3.29168e-10 6.66977e-11 1.30723e-10)
(0.000498401 -2.64367e-08 2.12779e-08 3.42468e-10 8.47093e-11 1.42922e-10)
(0.000498419 -4.12839e-08 2.25292e-08 3.82999e-10 1.21777e-10 1.58888e-10)
(0.000498438 -2.98274e-08 2.01159e-08 4.18685e-10 1.2538e-10 1.70269e-10)
(0.000498452 -3.25178e-08 1.58122e-08 4.07219e-10 1.08867e-10 1.39005e-10)
(0.000498461 -1.82832e-08 1.15804e-08 3.78532e-10 1.06214e-10 1.86615e-10)
(0.000498453 -1.1663e-08 3.5048e-09 3.67167e-10 7.1769e-11 1.308e-10)
(0.000498457 -4.26973e-09 -3.78892e-09 3.22363e-10 3.03166e-11 1.44836e-10)
(0.000498397 7.73936e-09 -1.68092e-08 6.07627e-10 1.29297e-10 2.06178e-10)
(0.000498382 4.82605e-09 -2.77224e-08 5.77259e-10 1.99887e-11 1.87409e-10)
(0.000498375 -2.43691e-09 -1.23795e-08 5.17752e-10 7.36075e-11 2.18265e-10)
(0.000498364 -8.65101e-09 -2.08639e-08 5.43726e-10 2.25785e-11 1.53069e-10)
(0.000498376 -1.83275e-08 -4.52637e-10 5.83983e-10 -2.41198e-11 1.96409e-10)
(0.000498379 -2.05088e-08 -7.01818e-09 6.91364e-10 4.34813e-11 1.65073e-10)
(0.000498396 -3.05305e-08 5.80104e-09 7.88286e-10 1.89411e-11 1.46171e-10)
(0.000498409 -2.90819e-08 2.23442e-09 7.7024e-10 -1.23818e-12 1.69746e-10)
(0.000498427 -3.88175e-08 9.63244e-09 7.00969e-10 5.84687e-11 1.57674e-10)
(0.00049844 -2.99737e-08 1.2957e-08 6.89168e-10 1.39527e-11 1.47721e-10)
(0.000498454 -4.17107e-08 2.5177e-08 4.44254e-10 -2.23509e-11 1.58716e-10)
(0.000498473 -2.91356e-08 2.91119e-08 5.04902e-10 5.57292e-11 1.77059e-10)
(0.000498473 -3.84785e-08 4.34894e-08 6.4998e-10 -1.42987e-11 2.27371e-10)
(0.000498494 -3.46609e-08 3.76537e-08 4.08645e-10 -1.46443e-11 1.72179e-10)
(0.000498491 -3.21235e-08 4.77996e-08 3.59405e-10 -8.70036e-11 2.22752e-10)
(0.000498494 -3.21158e-08 4.05675e-08 2.97309e-10 -5.36976e-12 2.02575e-10)
(0.000498496 -2.63891e-08 4.61638e-08 1.95859e-10 1.40616e-11 1.35842e-10)
(0.000498485 -2.57108e-08 4.15576e-08 2.47993e-10 -2.52956e-11 2.01667e-10)
(0.00049848 -2.21506e-08 4.05671e-08 2.16217e-10 2.59376e-11 1.42157e-10)
(0.000498474 -1.90953e-08 3.25537e-08 2.00547e-10 -3.98751e-12 1.78658e-10)
(0.000498465 -1.53699e-08 3.20043e-08 2.72201e-10 2.884e-11 1.59088e-10)
(0.000498456 -1.02147e-08 1.4947e-08 2.38816e-10 -1.14418e-11 1.49142e-10)
(0.000498453 -8.16497e-09 2.17644e-08 3.39875e-10 3.09225e-11 1.71797e-10)
(0.000498447 6.86743e-09 2.29553e-09 4.45153e-10 6.60842e-11 1.78612e-10)
(0.000498442 8.30338e-09 1.16115e-08 4.93999e-10 6.21994e-11 1.56339e-10)
(0.000498442 3.86084e-08 3.67981e-09 5.15783e-10 6.64788e-11 1.67117e-10)
(0.000498413 3.87688e-08 1.25801e-08 4.33522e-10 1.06146e-10 2.22445e-10)
(0.000498393 5.7196e-08 1.25954e-08 4.41771e-10 2.25077e-11 1.95402e-10)
(0.000498363 4.2169e-08 1.763e-08 4.14757e-10 1.06417e-11 1.43386e-10)
(0.000498331 3.23714e-08 1.5572e-08 3.58233e-10 4.77157e-11 1.24903e-10)
(0.000498333 9.07742e-09 2.39578e-08 2.84986e-10 2.75943e-11 1.83192e-10)
(0.000498321 -6.13871e-09 1.78836e-08 3.60984e-10 1.30533e-10 1.54378e-10)
(0.000498337 -3.13867e-08 2.55579e-08 4.21011e-10 9.08268e-11 2.20634e-10)