/*--------------------------------*- C++ -*----------------------------------*\
  =========                 |
  \\      /  F ield         | OpenFOAM: The Open Source CFD Toolbox
   \\    /   O peration     | Website:  https://openfoam.org
    \\  /    A nd           | Version:  10
     \\/     M anipulation  |
\*---------------------------------------------------------------------------*/
FoamFile
{
    format      ascii;
    class       volVectorField;
    location    "47.5";
    object      U;
}
// * * * * * * * * * * * * * * * * * * * * * * * * * * * * * * * * * * * * * //

dimensions      [0 1 -1 0 0 0 0];

internalField   nonuniform List<vector> 
25600
(
(1.14696 -2.20198e-06 -2.01866e-06)
(1.14695 4.62173e-06 2.73633e-06)
(1.14695 -6.93508e-06 -2.66812e-06)
(1.14696 8.65852e-06 1.25979e-06)
(1.14694 -8.07739e-06 -1.4328e-07)
(1.14696 4.92942e-06 -1.08117e-06)
(1.14695 8.0851e-07 1.1383e-06)
(1.14695 -6.82313e-06 -1.1432e-06)
(1.14695 1.1319e-05 2.93805e-07)
(1.14695 -1.23568e-05 4.18195e-08)
(1.14695 1.05515e-05 -7.39269e-07)
(1.14695 -6.56648e-06 6.45211e-07)
(1.14696 2.13605e-06 -9.27748e-07)
(1.14695 2.72684e-06 6.37481e-07)
(1.14695 -6.91708e-06 -7.89682e-07)
(1.14695 1.03179e-05 2.13236e-07)
(1.14695 -1.11315e-05 6.80672e-08)
(1.14696 9.21735e-06 -1.07252e-06)
(1.14695 -4.28228e-06 1.60244e-06)
(1.14695 -1.51668e-06 -2.60681e-06)
(1.14695 6.86937e-06 2.81343e-06)
(1.14695 -9.50795e-06 -3.05179e-06)
(1.14695 9.20569e-06 2.1532e-06)
(1.14695 -5.3308e-06 -1.25742e-06)
(1.14695 -6.21952e-07 -2.54335e-07)
(1.14695 7.14561e-06 1.13299e-06)
(1.14695 -1.11551e-05 -2.27828e-06)
(1.14695 1.13332e-05 2.55617e-06)
(1.14695 -6.91339e-06 -2.76531e-06)
(1.14695 2.64163e-07 2.1824e-06)
(1.14695 5.7116e-06 -1.99003e-06)
(1.14695 -8.22559e-06 1.34751e-06)
(1.14695 7.35289e-06 -1.17557e-06)
(1.14696 -4.73257e-06 4.00679e-07)
(1.14694 2.71687e-06 3.59538e-07)
(1.14696 -1.70017e-06 -1.91752e-06)
(1.14695 1.63472e-06 2.89476e-06)
(1.14694 -1.47518e-06 -3.33166e-06)
(1.14696 9.97324e-07 1.99323e-06)
(1.14694 3.83181e-07 -1.85539e-07)
(1.14696 3.58912e-07 -4.48856e-07)
(1.14695 9.0517e-07 1.16152e-06)
(1.14695 -3.71833e-06 -1.65166e-06)
(1.14696 7.38047e-06 1.22082e-06)
(1.14694 -9.04587e-06 -1.32935e-06)
(1.14696 7.66582e-06 1.15028e-06)
(1.14694 -2.41059e-06 -1.73153e-06)
(1.14696 -4.24152e-06 1.64063e-06)
(1.14695 1.03134e-05 -1.6375e-06)
(1.14695 -1.30154e-05 4.98057e-07)
(1.14695 1.26857e-05 5.06217e-07)
(1.14695 -9.51375e-06 -1.99686e-06)
(1.14696 5.33584e-06 2.35623e-06)
(1.14694 -1.13785e-08 -2.45013e-06)
(1.14696 -5.41775e-06 1.29471e-06)
(1.14695 1.07697e-05 -4.64163e-07)
(1.14695 -1.35128e-05 -5.29871e-07)
(1.14696 1.27914e-05 3.48698e-07)
(1.14694 -7.5522e-06 3.58255e-08)
(1.14696 1.20894e-07 -1.28284e-06)
(1.14695 7.57585e-06 1.81436e-06)
(1.14695 -1.19949e-05 -2.1679e-06)
(1.14695 1.21815e-05 1.21449e-06)
(1.14694 -7.4963e-06 -2.85217e-07)
(1.14696 2.44425e-07 -1.10658e-06)
(1.14694 7.52584e-06 1.68293e-06)
(1.14696 -1.21412e-05 -2.32529e-06)
(1.14695 1.22907e-05 2.05199e-06)
(1.14695 -7.36816e-06 -1.77752e-06)
(1.14696 1.16137e-07 1.07415e-06)
(1.14695 6.64369e-06 -1.07952e-06)
(1.14695 -9.71211e-06 8.96172e-07)
(1.14695 9.13624e-06 -1.15453e-06)
(1.14695 -5.87736e-06 7.03416e-07)
(1.14695 2.30326e-06 -1.39391e-07)
(1.14696 8.29878e-07 -1.48544e-06)
(1.14695 -2.46653e-06 2.64312e-06)
(1.14695 2.87414e-06 -3.45305e-06)
(1.14696 -1.72857e-06 2.59402e-06)
(1.14694 4.27516e-07 -1.36027e-06)
(1.14696 2.81257e-06 1.44472e-06)
(1.14695 -1.68166e-06 -8.77731e-07)
(1.14695 -1.57716e-06 -2.44921e-07)
(1.14696 6.57205e-06 9.54989e-07)
(1.14694 -9.81628e-06 -2.31861e-06)
(1.14696 1.02794e-05 3.15252e-06)
(1.14694 -6.21083e-06 -4.21471e-06)
(1.14696 -2.81088e-08 3.97586e-06)
(1.14694 7.15674e-06 -3.24129e-06)
(1.14695 -1.18128e-05 9.79251e-07)
(1.14695 1.40122e-05 1.26725e-06)
(1.14694 -1.26477e-05 -3.72602e-06)
(1.14696 9.41111e-06 4.58984e-06)
(1.14694 -3.60527e-06 -4.55358e-06)
(1.14696 -2.87735e-06 2.94491e-06)
(1.14694 1.009e-05 -1.41484e-06)
(1.14695 -1.45452e-05 -2.42601e-07)
(1.14696 1.52409e-05 5.55625e-07)
(1.14694 -1.02156e-05 -4.13184e-07)
(1.14697 2.00376e-06 -6.72017e-07)
(1.14694 7.26125e-06 1.03586e-06)
(1.14696 -1.30851e-05 -1.06606e-06)
(1.14696 1.41436e-05 -4.40943e-08)
(1.14694 -9.40589e-06 9.55621e-07)
(1.14697 1.76541e-06 -1.94131e-06)
(1.14694 6.53147e-06 1.96862e-06)
(1.14696 -1.15715e-05 -1.93038e-06)
(1.14695 1.22691e-05 1.02895e-06)
(1.14694 -8.08002e-06 -3.88761e-07)
(1.14696 1.74235e-06 -3.53516e-07)
(1.14694 4.50549e-06 1.68158e-08)
(1.14696 -7.78265e-06 3.87163e-07)
(1.14695 8.08403e-06 -1.29029e-06)
(1.14695 -5.57733e-06 1.43542e-06)
(1.14695 2.29121e-06 -1.29047e-06)
(1.14695 1.21097e-06 -7.29024e-08)
(1.14695 -3.10227e-06 1.31337e-06)
(1.14695 3.38517e-06 -2.62682e-06)
(1.14696 -1.33059e-06 2.66319e-06)
(1.14694 -1.00894e-06 -2.46344e-06)
(1.14696 5.76548e-06 3.11977e-06)
(1.14694 -4.22662e-06 -2.62614e-06)
(1.14696 6.55391e-07 9.66383e-07)
(1.14695 5.12621e-06 8.29935e-07)
(1.14694 -9.2343e-06 -3.15772e-06)
(1.14696 1.13331e-05 4.72937e-06)
(1.14694 -8.95719e-06 -5.94299e-06)
(1.14697 4.36306e-06 5.5041e-06)
(1.14694 2.44129e-06 -4.13825e-06)
(1.14696 -7.91802e-06 1.24777e-06)
(1.14695 1.24409e-05 1.69938e-06)
(1.14694 -1.34352e-05 -4.54201e-06)
(1.14697 1.22669e-05 5.64535e-06)
(1.14693 -7.29447e-06 -5.52517e-06)
(1.14697 8.97279e-07 3.82283e-06)
(1.14694 7.17508e-06 -2.10278e-06)
(1.14695 -1.29042e-05 3.63154e-07)
(1.14696 1.53598e-05 1.39825e-07)
(1.14693 -1.16296e-05 -8.25182e-08)
(1.14697 4.30283e-06 -5.64493e-07)
(1.14693 5.17709e-06 4.77404e-07)
(1.14696 -1.16262e-05 9.17878e-08)
(1.14696 1.39853e-05 -1.41391e-06)
(1.14693 -1.03473e-05 2.31021e-06)
(1.14697 3.90736e-06 -2.73961e-06)
(1.14693 3.81684e-06 2.14561e-06)
(1.14696 -8.78214e-06 -1.20325e-06)
(1.14696 1.05921e-05 -2.31864e-07)
(1.14694 -7.96865e-06 1.32667e-06)
(1.14697 3.81646e-06 -1.93484e-06)
(1.14694 9.37379e-07 1.35585e-06)
(1.14696 -3.37672e-06 -2.51422e-07)
(1.14695 4.31939e-06 -1.28614e-06)
(1.14695 -2.77968e-06 2.16777e-06)
(1.14695 9.09562e-07 -2.5606e-06)
(1.14695 1.64273e-06 1.58661e-06)
(1.14695 -2.31028e-06 -2.5764e-07)
(1.14695 1.77449e-06 -1.51824e-06)
(1.14696 1.19782e-06 2.51199e-06)
(1.14694 -3.79545e-06 -3.32817e-06)
(1.14696 8.68391e-06 4.60194e-06)
(1.14694 -6.24224e-06 -3.91502e-06)
(1.14696 2.53625e-06 1.78604e-06)
(1.14695 3.56291e-06 8.86438e-07)
(1.14695 -7.80407e-06 -3.76971e-06)
(1.14696 1.12169e-05 5.71622e-06)
(1.14693 -1.04836e-05 -6.70474e-06)
(1.14697 8.23679e-06 6.00662e-06)
(1.14694 -2.62352e-06 -4.14555e-06)
(1.14696 -2.53047e-06 1.0982e-06)
(1.14695 8.59025e-06 1.99936e-06)
(1.14694 -1.15328e-05 -4.62178e-06)
(1.14697 1.29347e-05 5.70989e-06)
(1.14693 -9.62427e-06 -5.4646e-06)
(1.14697 4.55066e-06 4.0981e-06)
(1.14693 3.46062e-06 -2.58607e-06)
(1.14696 -9.63206e-06 1.32939e-06)
(1.14696 1.38301e-05 -8.84601e-07)
(1.14693 -1.1899e-05 9.28785e-07)
(1.14698 6.6141e-06 -9.50841e-07)
(1.14693 2.03615e-06 2.65331e-07)
(1.14696 -8.36497e-06 1.19105e-06)
(1.14696 1.22237e-05 -2.85333e-06)
(1.14693 -1.05566e-05 3.88789e-06)
(1.14698 6.54234e-06 -3.71768e-06)
(1.14693 -3.32623e-07 2.50505e-06)
(1.14696 -3.81894e-06 -6.64693e-07)
(1.14695 6.61462e-06 -1.27626e-06)
(1.14694 -5.97685e-06 2.7964e-06)
(1.14697 4.81625e-06 -3.2647e-06)
(1.14694 -2.41557e-06 2.38427e-06)
(1.14696 1.69507e-06 -6.4343e-07)
(1.14695 -8.52064e-07 -1.45273e-06)
(1.14695 1.74229e-06 3.11158e-06)
(1.14695 -1.8914e-06 -3.82863e-06)
(1.14695 2.63032e-06 3.1626e-06)
(1.14695 -1.08414e-06 -1.54516e-06)
(1.14695 -8.59989e-07 -6.72094e-07)
(1.14696 4.83956e-06 2.64955e-06)
(1.14694 -7.15063e-06 -4.20348e-06)
(1.14696 1.1836e-05 5.74612e-06)
(1.14694 -8.20536e-06 -4.59931e-06)
(1.14696 4.40898e-06 2.10165e-06)
(1.14694 1.86618e-06 1.27375e-06)
(1.14695 -5.83264e-06 -4.1988e-06)
(1.14696 1.03423e-05 6.18667e-06)
(1.14693 -1.11181e-05 -6.58204e-06)
(1.14697 1.15513e-05 5.66112e-06)
(1.14693 -7.6104e-06 -3.45173e-06)
(1.14696 3.43286e-06 8.00209e-07)
(1.14695 3.64809e-06 2.01706e-06)
(1.14694 -8.17517e-06 -3.87633e-06)
(1.14697 1.21935e-05 4.79929e-06)
(1.14693 -1.08416e-05 -4.39501e-06)
(1.14698 7.73593e-06 3.67663e-06)
(1.14693 -1.64588e-07 -2.67748e-06)
(1.14696 -6.06469e-06 2.35804e-06)
(1.14696 1.20086e-05 -2.17577e-06)
(1.14693 -1.20395e-05 2.41108e-06)
(1.14698 9.3704e-06 -1.71474e-06)
(1.14692 -2.07176e-06 4.38586e-07)
(1.14696 -3.68317e-06 2.03499e-06)
(1.14696 9.07137e-06 -3.97048e-06)
(1.14693 -9.61212e-06 5.22428e-06)
(1.14698 8.91843e-06 -4.44891e-06)
(1.14693 -4.90362e-06 2.76565e-06)
(1.14696 2.43043e-06 1.48601e-09)
(1.14695 9.53783e-07 -2.26502e-06)
(1.14694 -1.91986e-06 4.14391e-06)
(1.14697 4.04946e-06 -4.20967e-06)
(1.14694 -4.39244e-06 3.07334e-06)
(1.14696 6.1672e-06 -5.12222e-07)
(1.14695 -6.03135e-06 -1.95809e-06)
(1.14695 6.97832e-06 4.23633e-06)
(1.14695 -5.47702e-06 -4.97356e-06)
(1.14695 4.36305e-06 4.41073e-06)
(1.14695 -6.92943e-08 -2.25113e-06)
(1.14695 -3.61952e-06 -3.85503e-07)
(1.14695 8.90615e-06 3.19279e-06)
(1.14694 -1.08533e-05 -5.04665e-06)
(1.14695 1.47651e-05 6.70709e-06)
(1.14693 -9.79825e-06 -4.72147e-06)
(1.14696 6.04511e-06 1.9249e-06)
(1.14693 4.45146e-07 2.03723e-06)
(1.14694 -3.73625e-06 -4.52855e-06)
(1.14695 9.08312e-06 6.27189e-06)
(1.14693 -1.09011e-05 -5.70899e-06)
(1.14696 1.39194e-05 4.58024e-06)
(1.14692 -1.1648e-05 -2.04876e-06)
(1.14696 8.97058e-06 2.23731e-07)
(1.14694 -1.11136e-06 1.93502e-06)
(1.14694 -4.46042e-06 -2.54008e-06)
(1.14696 1.10334e-05 3.12982e-06)
(1.14692 -1.13709e-05 -2.40661e-06)
(1.14697 1.03627e-05 2.59228e-06)
(1.14692 -3.16124e-06 -2.27266e-06)
(1.14695 -2.84852e-06 3.27401e-06)
(1.14695 1.04587e-05 -3.44745e-06)
(1.14692 -1.20141e-05 4.06425e-06)
(1.14698 1.19047e-05 -2.57571e-06)
(1.14691 -5.82034e-06 8.15021e-07)
(1.14696 9.52872e-07 2.73152e-06)
(1.14695 5.70864e-06 -4.82918e-06)
(1.14692 -7.95289e-06 6.44529e-06)
(1.14697 1.03996e-05 -4.9857e-06)
(1.14692 -8.56038e-06 2.98228e-06)
(1.14696 7.97801e-06 7.5334e-07)
(1.14694 -4.39099e-06 -3.1715e-06)
(1.14693 2.54379e-06 5.46669e-06)
(1.14696 2.2117e-06 -4.94618e-06)
(1.14693 -4.94129e-06 3.57695e-06)
(1.14695 9.50401e-06 -6.38731e-08)
(1.14694 -1.05211e-05 -2.68489e-06)
(1.14694 1.21423e-05 5.54009e-06)
(1.14694 -9.32753e-06 -5.92564e-06)
(1.14695 6.55622e-06 5.29189e-06)
(1.14694 6.05962e-07 -2.23065e-06)
(1.14694 -6.06263e-06 -7.25397e-07)
(1.14694 1.28557e-05 4.30208e-06)
(1.14694 -1.43006e-05 -6.01724e-06)
(1.14683 1.6819e-05 7.61019e-06)
(1.1468 -1.043e-05 -4.37804e-06)
(1.14683 6.84788e-06 1.38585e-06)
(1.14681 -2.44778e-07 3.14324e-06)
(1.14682 -2.02058e-06 -4.81118e-06)
(1.14683 7.82614e-06 6.17242e-06)
(1.1468 -1.00122e-05 -4.2911e-06)
(1.14684 1.52305e-05 3.05537e-06)
(1.1468 -1.42484e-05 -1.8383e-07)
(1.14684 1.32621e-05 -4.25494e-07)
(1.14681 -4.99575e-06 1.81184e-06)
(1.14682 -1.06025e-06 -7.50459e-07)
(1.14683 9.74218e-06 9.978e-07)
(1.14679 -1.12639e-05 1.8401e-07)
(1.14685 1.20589e-05 1.1461e-06)
(1.14679 -5.04686e-06 -1.54415e-06)
(1.14683 -5.67016e-07 4.12824e-06)
(1.14682 9.48914e-06 -4.60874e-06)
(1.14679 -1.18476e-05 5.80089e-06)
(1.14685 1.37164e-05 -3.42599e-06)
(1.14678 -8.36809e-06 1.32457e-06)
(1.14684 4.53596e-06 3.41074e-06)
(1.14682 3.0901e-06 -5.49157e-06)
(1.1468 -6.2386e-06 7.58395e-06)
(1.14685 1.11401e-05 -5.30709e-06)
(1.14679 -1.08741e-05 3.14953e-06)
(1.14683 1.23459e-05 1.67423e-06)
(1.14682 -8.88782e-06 -4.01008e-06)
(1.14681 7.00202e-06 6.76432e-06)
(1.14683 -1.7858e-07 -5.38942e-06)
(1.14681 -4.19305e-06 3.844e-06)
(1.14682 1.14549e-05 8.18997e-07)
(1.14682 -1.36898e-05 -3.60661e-06)
(1.14682 1.65768e-05 7.05153e-06)
(1.14682 -1.28241e-05 -6.68988e-06)
(1.14682 8.94652e-06 5.81857e-06)
(1.14681 9.13056e-07 -1.5146e-06)
(1.14682 -7.83743e-06 -1.72002e-06)
(1.14682 1.61006e-05 6.03293e-06)
(1.14681 -1.68289e-05 -7.09903e-06)
(1.14553 1.8373e-05 8.74292e-06)
(1.14551 -1.0351e-05 -3.78584e-06)
(1.14554 6.99479e-06 6.7831e-07)
(1.14551 -5.23125e-08 4.70318e-06)
(1.14552 -9.4184e-07 -5.17301e-06)
(1.14553 7.04685e-06 6.20989e-06)
(1.1455 -8.99804e-06 -2.61912e-06)
(1.14554 1.59487e-05 1.39616e-06)
(1.1455 -1.55794e-05 2.05512e-06)
(1.14554 1.61003e-05 -1.10335e-06)
(1.14551 -7.24047e-06 1.73123e-06)
(1.14552 1.19533e-06 1.41666e-06)
(1.14553 9.19871e-06 -1.37684e-06)
(1.1455 -1.10619e-05 3.27903e-06)
(1.14555 1.3177e-05 -5.09391e-07)
(1.14549 -5.67639e-06 -5.11788e-07)
(1.14554 4.92417e-07 5.07264e-06)
(1.14553 9.59877e-06 -5.73825e-06)
(1.1455 -1.19369e-05 7.78931e-06)
(1.14556 1.51177e-05 -4.28172e-06)
(1.14549 -9.69735e-06 2.06809e-06)
(1.14554 6.82365e-06 4.10663e-06)
(1.14552 1.52358e-06 -5.99476e-06)
(1.1455 -4.62428e-06 8.82537e-06)
(1.14555 1.11782e-05 -5.4757e-06)
(1.1455 -1.15925e-05 3.36477e-06)
(1.14554 1.4948e-05 2.81307e-06)
(1.14552 -1.18025e-05 -4.87929e-06)
(1.14551 1.07445e-05 8.28097e-06)
(1.14554 -2.69033e-06 -5.70574e-06)
(1.14551 -2.46873e-06 4.03141e-06)
(1.14553 1.20765e-05 2.1519e-06)
(1.14552 -1.53981e-05 -4.84985e-06)
(1.14552 1.99198e-05 9.04484e-06)
(1.14552 -1.55464e-05 -7.48065e-06)
(1.14553 1.11098e-05 6.33942e-06)
(1.14551 1.20077e-06 -2.83145e-07)
(1.14553 -9.20648e-06 -3.12766e-06)
(1.14552 1.89005e-05 8.44822e-06)
(1.14552 -1.87294e-05 -8.47817e-06)
(1.13807 1.81971e-05 1.13181e-05)
(1.13806 -8.75567e-06 -3.79974e-06)
(1.13806 6.08496e-06 -1.85827e-08)
(1.13807 9.0307e-07 6.87752e-06)
(1.13805 -1.26044e-07 -6.17967e-06)
(1.13809 6.14652e-06 6.75132e-06)
(1.13804 -7.13012e-06 -8.83867e-07)
(1.13809 1.52599e-05 -6.38763e-07)
(1.13804 -1.4937e-05 4.9151e-06)
(1.13808 1.6988e-05 -2.13025e-06)
(1.13805 -7.77099e-06 1.55912e-06)
(1.13807 2.49131e-06 4.33145e-06)
(1.13807 8.8866e-06 -4.93572e-06)
(1.13805 -1.02682e-05 7.70466e-06)
(1.13809 1.32982e-05 -3.14041e-06)
(1.13804 -5.11386e-06 8.98464e-07)
(1.13807 7.84268e-07 6.40374e-06)
(1.13807 9.86081e-06 -7.77714e-06)
(1.13804 -1.12473e-05 1.09848e-05)
(1.1381 1.50378e-05 -6.08957e-06)
(1.13804 -9.04245e-06 3.28861e-06)
(1.13808 7.33002e-06 5.09045e-06)
(1.13807 1.1485e-06 -7.22045e-06)
(1.13804 -3.00921e-06 1.10977e-05)
(1.13809 1.01229e-05 -6.37737e-06)
(1.13804 -1.01552e-05 3.813e-06)
(1.13808 1.50409e-05 4.58298e-06)
(1.13807 -1.22357e-05 -6.85607e-06)
(1.13805 1.28315e-05 1.12851e-05)
(1.13809 -4.51872e-06 -7.08753e-06)
(1.13805 -1.72319e-07 4.65213e-06)
(1.13807 1.13214e-05 4.23035e-06)
(1.13806 -1.50515e-05 -7.57893e-06)
(1.13807 2.11961e-05 1.32016e-05)
(1.13806 -1.64042e-05 -1.01928e-05)
(1.13807 1.22445e-05 8.22987e-06)
(1.13806 1.61643e-06 7.84804e-07)
(1.13807 -9.62598e-06 -5.28274e-06)
(1.13806 2.01703e-05 1.24546e-05)
(1.13806 -1.87482e-05 -1.15007e-05)
(1.11676 1.54376e-05 1.9175e-05)
(1.11675 -5.11689e-06 -8.70912e-06)
(1.11673 3.81617e-06 1.42394e-06)
(1.11678 2.63021e-06 9.24664e-06)
(1.11671 5.30071e-07 -9.93144e-06)
(1.11679 4.69732e-06 1.00611e-05)
(1.11671 -3.85464e-06 -1.19129e-06)
(1.11679 1.23834e-05 -3.347e-06)
(1.11672 -1.16817e-05 1.01332e-05)
(1.11677 1.54237e-05 -7.18042e-06)
(1.11674 -6.65481e-06 4.42997e-06)
(1.11675 3.35361e-06 5.73538e-06)
(1.11676 7.87349e-06 -1.02195e-05)
(1.11673 -7.93426e-06 1.57909e-05)
(1.11677 1.1712e-05 -1.10434e-05)
(1.11674 -3.27566e-06 6.53909e-06)
(1.11675 7.0439e-07 5.28052e-06)
(1.11677 9.46246e-06 -1.07352e-05)
(1.11672 -8.93813e-06 1.72686e-05)
(1.11678 1.28272e-05 -1.27458e-05)
(1.11672 -6.1794e-06 8.54571e-06)
(1.11676 6.08191e-06 3.75748e-06)
(1.11676 1.74216e-06 -9.44445e-06)
(1.11672 -1.29791e-06 1.67266e-05)
(1.11679 7.85267e-06 -1.24318e-05)
(1.11672 -6.56556e-06 8.68667e-06)
(1.11676 1.24525e-05 3.93424e-06)
(1.11676 -9.94746e-06 -1.01265e-05)
(1.11673 1.27277e-05 1.85906e-05)
(1.11678 -5.15063e-06 -1.51519e-05)
(1.11672 2.25542e-06 1.16315e-05)
(1.11677 9.13073e-06 1.94905e-06)
(1.11674 -1.22464e-05 -1.01084e-05)
(1.11675 1.95594e-05 2.09845e-05)
(1.11675 -1.4613e-05 -1.99248e-05)
(1.11674 1.17108e-05 1.77988e-05)
(1.11676 2.30842e-06 -4.63294e-06)
(1.11674 -8.84526e-06 -4.62738e-06)
(1.11676 1.91607e-05 1.72335e-05)
(1.11674 -1.59927e-05 -1.88214e-05)
(1.0807 1.16377e-05 2.84259e-05)
(1.08066 -4.30102e-07 -2.28914e-05)
(1.08067 3.00487e-08 1.40788e-05)
(1.08071 6.05992e-06 2.19369e-06)
(1.08062 -8.28865e-07 -1.09869e-05)
(1.08074 4.6691e-06 1.67791e-05)
(1.08061 -1.17017e-06 -1.00186e-05)
(1.08074 8.4618e-06 1.93172e-06)
(1.08063 -6.29048e-06 1.08589e-05)
(1.0807 1.08131e-05 -1.48514e-05)
(1.08067 -2.89562e-06 1.54544e-05)
(1.08067 2.2969e-06 -4.61147e-06)
(1.0807 7.13128e-06 -5.64569e-06)
(1.08065 -4.78648e-06 1.89075e-05)
(1.0807 8.18693e-06 -2.16562e-05)
(1.08067 4.53422e-07 2.08958e-05)
(1.08067 -1.04694e-06 -8.18776e-06)
(1.0807 9.57022e-06 -2.94645e-06)
(1.08064 -6.33485e-06 1.75516e-05)
(1.08072 9.1625e-06 -2.08586e-05)
(1.08064 -1.53241e-06 2.14225e-05)
(1.08069 2.67011e-06 -9.12096e-06)
(1.08069 3.90154e-06 -1.29527e-06)
(1.08064 -7.00029e-07 1.65119e-05)
(1.08072 5.55726e-06 -2.03876e-05)
(1.08063 -2.20987e-06 2.23325e-05)
(1.0807 7.96081e-06 -1.04478e-05)
(1.08067 -5.41123e-06 -2.46098e-07)
(1.08066 1.00114e-05 1.73841e-05)
(1.08071 -3.79122e-06 -2.36943e-05)
(1.08063 3.30265e-06 2.78072e-05)
(1.08071 7.06081e-06 -1.67236e-05)
(1.08064 -8.58825e-06 4.75716e-06)
(1.0807 1.59976e-05 1.51033e-05)
(1.08067 -1.06769e-05 -2.54002e-05)
(1.08067 9.04515e-06 3.28442e-05)
(1.08069 4.25575e-06 -2.44626e-05)
(1.08065 -8.65345e-06 1.30428e-05)
(1.08071 1.78014e-05 7.03502e-06)
(1.08064 -1.25962e-05 -1.92142e-05)
(1.03324 9.5839e-06 1.34758e-05)
(1.03317 2.1562e-06 -2.17738e-05)
(1.03322 -2.45517e-06 2.43432e-05)
(1.03321 8.99151e-06 -1.5141e-05)
(1.03317 -3.18834e-06 4.48228e-06)
(1.03326 6.49195e-06 8.33772e-06)
(1.03313 -1.10239e-06 -1.22906e-05)
(1.03328 6.77681e-06 1.15226e-05)
(1.03314 -2.52047e-06 -1.47988e-06)
(1.03325 6.37533e-06 -7.22857e-06)
(1.03318 1.61634e-06 1.59474e-05)
(1.0332 -6.53217e-07 -1.44783e-05)
(1.03322 8.36056e-06 9.18743e-06)
(1.03318 -3.61456e-06 4.46706e-06)
(1.03323 5.60136e-06 -1.41904e-05)
(1.03319 3.9914e-06 2.31829e-05)
(1.0332 -3.88782e-06 -2.0304e-05)
(1.03323 1.11937e-05 1.43269e-05)
(1.03316 -5.67133e-06 7.50397e-07)
(1.03325 6.78095e-06 -1.09459e-05)
(1.03316 2.33236e-06 2.13775e-05)
(1.03322 -1.17887e-06 -1.93684e-05)
(1.03321 7.0809e-06 1.50511e-05)
(1.03317 -1.84626e-06 -5.19683e-07)
(1.03325 4.77904e-06 -9.43638e-06)
(1.03315 7.48947e-07 2.11832e-05)
(1.03324 3.96272e-06 -2.07366e-05)
(1.03318 -9.18889e-07 1.7896e-05)
(1.0332 6.47076e-06 -3.46485e-06)
(1.03323 -1.50419e-06 -8.15565e-06)
(1.03317 3.04362e-06 2.26905e-05)
(1.03324 5.87047e-06 -2.5593e-05)
(1.03316 -5.92636e-06 2.46315e-05)
(1.03324 1.29242e-05 -1.06689e-05)
(1.03318 -7.32904e-06 -3.27721e-06)
(1.03321 6.57052e-06 2.08658e-05)
(1.03321 5.90497e-06 -2.79626e-05)
(1.03318 -8.73654e-06 2.95957e-05)
(1.03324 1.70194e-05 -1.78415e-05)
(1.03316 -1.07247e-05 3.99083e-06)
(0.977608 8.38907e-06 -6.56887e-06)
(0.977533 2.9619e-06 -2.22862e-06)
(0.977595 -3.07146e-06 1.08957e-05)
(0.977561 9.8625e-06 -1.2762e-05)
(0.977557 -4.33662e-06 1.14514e-05)
(0.977604 7.72404e-06 -4.68883e-06)
(0.977517 -1.75286e-06 -4.81583e-07)
(0.977634 6.4922e-06 5.13609e-06)
(0.977504 -1.03048e-06 -3.58964e-06)
(0.977626 4.11137e-06 6.34143e-07)
(0.97753 4.19216e-06 6.04721e-06)
(0.977588 -2.82903e-06 -8.70736e-06)
(0.977573 9.80302e-06 1.02065e-05)
(0.977551 -4.00879e-06 -4.45939e-06)
(0.977596 5.04602e-06 -1.38985e-06)
(0.977549 5.32799e-06 1.07718e-05)
(0.977576 -5.49205e-06 -1.41545e-05)
(0.977585 1.25817e-05 1.62795e-05)
(0.977535 -6.27812e-06 -9.65623e-06)
(0.977617 6.32742e-06 3.35348e-06)
(0.977523 3.95984e-06 7.46423e-06)
(0.977602 -3.5719e-06 -1.17642e-05)
(0.97756 9.63001e-06 1.54972e-05)
(0.977553 -3.68995e-06 -9.8976e-06)
(0.977605 5.27202e-06 4.57028e-06)
(0.977525 1.96377e-06 6.32214e-06)
(0.97761 1.31798e-06 -1.14703e-05)
(0.977542 2.55205e-06 1.66873e-05)
(0.977578 3.19008e-06 -1.26378e-05)
(0.97758 7.55963e-07 7.82279e-06)
(0.977544 2.42221e-06 3.51026e-06)
(0.977603 4.8615e-06 -1.08274e-05)
(0.977532 -3.68519e-06 1.83228e-05)
(0.977605 1.01719e-05 -1.69275e-05)
(0.97754 -4.79378e-06 1.29196e-05)
(0.977588 4.96524e-06 -1.66782e-06)
(0.977564 6.27213e-06 -7.71226e-06)
(0.977559 -7.85233e-06 1.71309e-05)
(0.977593 1.54532e-05 -1.85286e-05)
(0.977535 -9.07544e-06 1.60642e-05)
(0.916534 7.20496e-06 -7.28185e-06)
(0.916479 3.10484e-06 4.896e-06)
(0.916532 -2.87257e-06 -6.70511e-07)
(0.916492 9.46343e-06 -1.8875e-06)
(0.916508 -4.52079e-06 3.82223e-06)
(0.916523 8.04507e-06 -3.21199e-06)
(0.916475 -2.22173e-06 2.57195e-06)
(0.916552 6.29515e-06 -1.0907e-06)
(0.916456 -4.43233e-07 1.41504e-06)
(0.916557 2.94418e-06 -1.79098e-06)
(0.916466 5.19231e-06 3.93432e-06)
(0.916534 -3.78077e-06 -4.62404e-06)
(0.916497 1.02094e-05 5.57589e-06)
(0.916503 -4.38436e-06 -3.34623e-06)
(0.916523 5.08522e-06 1.16639e-06)
(0.916491 5.17163e-06 3.70729e-06)
(0.916517 -5.6275e-06 -6.28054e-06)
(0.916513 1.26129e-05 9.39533e-06)
(0.916485 -6.64665e-06 -7.80801e-06)
(0.916544 6.47012e-06 6.19599e-06)
(0.916467 3.92331e-06 -4.25561e-07)
(0.916542 -4.25111e-06 -2.8331e-06)
(0.916488 1.05834e-05 7.49231e-06)
(0.916507 -5.05896e-06 -6.88694e-06)
(0.916527 6.1205e-06 6.54152e-06)
(0.916476 1.76114e-06 -1.25555e-06)
(0.916542 2.25431e-07 -1.86022e-06)
(0.91648 4.46745e-06 7.17522e-06)
(0.916522 6.66501e-07 -7.687e-06)
(0.916508 2.78451e-06 8.42312e-06)
(0.916493 1.28772e-06 -4.00612e-06)
(0.916531 4.45457e-06 6.42484e-07)
(0.916478 -2.17319e-06 5.35364e-06)
(0.916538 7.7557e-06 -7.62711e-06)
(0.91648 -2.61412e-06 9.56553e-06)
(0.916528 3.48074e-06 -6.58534e-06)
(0.916497 6.23379e-06 3.22156e-06)
(0.916506 -6.69238e-06 2.70338e-06)
(0.916519 1.34028e-05 -6.13529e-06)
(0.916486 -7.31313e-06 8.72099e-06)
(0.852215 6.04626e-06 -2.13112e-06)
(0.85218 2.93263e-06 1.89466e-06)
(0.852216 -2.35094e-06 -1.59015e-06)
(0.852186 8.40706e-06 9.39849e-07)
(0.852203 -4.10582e-06 -1.18183e-06)
(0.852205 7.63841e-06 8.94476e-07)
(0.852181 -2.40205e-06 -1.0887e-06)
(0.852227 6.00038e-06 -1.37226e-07)
(0.852164 -3.3592e-07 1.2376e-06)
(0.852236 2.40164e-06 -3.31056e-06)
(0.852166 5.18388e-06 4.41573e-06)
(0.852224 -3.86402e-06 -5.12797e-06)
(0.852185 9.7291e-06 4.4e-06)
(0.852203 -4.38038e-06 -2.81797e-06)
(0.852204 5.04282e-06 6.75058e-07)
(0.852191 4.39206e-06 1.8943e-06)
(0.852205 -4.94829e-06 -3.54619e-06)
(0.852202 1.15801e-05 5.1539e-06)
(0.852186 -6.36457e-06 -4.60786e-06)
(0.852224 6.35052e-06 4.18455e-06)
(0.852169 3.24121e-06 -1.37432e-06)
(0.852229 -3.85615e-06 2.82817e-08)
(0.852179 1.01069e-05 2.84025e-06)
(0.852207 -5.39533e-06 -2.6663e-06)
(0.852206 6.4512e-06 3.60004e-06)
(0.852182 1.0866e-06 -1.22732e-06)
(0.852223 1.42818e-07 7.16772e-07)
(0.852178 4.85968e-06 2.22696e-06)
(0.852214 -6.21114e-07 -2.28912e-06)
(0.852195 3.87138e-06 3.95499e-06)
(0.852193 2.46189e-07 -2.4758e-06)
(0.852214 4.36146e-06 2.40747e-06)
(0.852177 -1.50757e-06 1.08413e-07)
(0.852223 6.11572e-06 -8.59216e-07)
(0.852175 -1.19276e-06 2.80732e-06)
(0.852217 2.30022e-06 -2.60798e-06)
(0.852187 6.00699e-06 2.62015e-06)
(0.852201 -5.69555e-06 -9.97383e-07)
(0.852205 1.14161e-05 -2.60962e-07)
(0.852186 -5.76434e-06 1.60812e-06)
(0.786354 4.99062e-06 -2.36303e-07)
(0.786331 2.66339e-06 -9.81688e-07)
(0.786354 -1.84507e-06 -3.07734e-07)
(0.786335 7.15586e-06 -6.42746e-07)
(0.786347 -3.43312e-06 -1.53731e-06)
(0.786346 6.79773e-06 1.00896e-06)
(0.786333 -2.27847e-06 -2.96273e-06)
(0.786362 5.50659e-06 1.19902e-06)
(0.78632 -3.5886e-07 -1.17008e-06)
(0.78637 2.12315e-06 -2.03751e-06)
(0.78632 4.67719e-06 2.82112e-06)
(0.786364 -3.47382e-06 -4.83347e-06)
(0.786332 8.72369e-06 3.9425e-06)
(0.78635 -4.028e-06 -3.29402e-06)
(0.786345 4.75607e-06 1.05125e-06)
(0.786343 3.56069e-06 7.31954e-07)
(0.786346 -4.04182e-06 -2.21766e-06)
(0.786349 1.00951e-05 3.34673e-06)
(0.786334 -5.66413e-06 -2.93098e-06)
(0.786362 5.87732e-06 2.90535e-06)
(0.786323 2.57852e-06 -8.37605e-07)
(0.786367 -3.19846e-06 4.66607e-07)
(0.786327 8.99636e-06 1.67741e-06)
(0.786354 -5.05362e-06 -8.58436e-07)
(0.786344 6.16203e-06 1.87417e-06)
(0.786336 5.72738e-07 1.29267e-07)
(0.786357 2.86827e-07 3.94068e-07)
(0.78633 4.51977e-06 1.46544e-06)
(0.786354 -1.07568e-06 -4.92267e-07)
(0.786339 4.09136e-06 1.49169e-06)
(0.786341 -3.31641e-07 -2.20614e-07)
(0.786353 4.12702e-06 7.66476e-07)
(0.786328 -1.21268e-06 1.68254e-08)
(0.786361 5.00162e-06 4.48058e-07)
(0.786324 -4.74999e-07 -2.42084e-07)
(0.786359 1.55952e-06 2.62015e-07)
(0.786332 5.52518e-06 -3.30649e-07)
(0.786346 -4.84258e-06 -2.02004e-07)
(0.786346 9.63139e-06 -2.70926e-07)
(0.786335 -4.53612e-06 -6.19277e-07)
(0.720245 4.07674e-06 -7.41194e-07)
(0.72023 2.36753e-06 -1.98306e-06)
(0.720245 -1.4527e-06 -2.91659e-07)
(0.720234 5.96642e-06 -1.92147e-06)
(0.72024 -2.74807e-06 -1.14717e-06)
(0.720241 5.80208e-06 -2.91891e-07)
(0.720232 -1.96676e-06 -2.75787e-06)
(0.720252 4.84901e-06 8.89418e-07)
(0.720223 -3.49545e-07 -2.15526e-06)
(0.720259 1.89744e-06 -8.45446e-07)
(0.720222 4.01696e-06 1.04366e-06)
(0.720255 -2.91532e-06 -3.37361e-06)
(0.720231 7.50428e-06 2.94917e-06)
(0.720246 -3.4668e-06 -2.87755e-06)
(0.720239 4.25779e-06 1.43755e-06)
(0.720241 2.86101e-06 1.18618e-07)
(0.720239 -3.1946e-06 -9.13943e-07)
(0.720246 8.523e-06 2.32009e-06)
(0.720231 -4.80766e-06 -1.59268e-06)
(0.720254 5.19113e-06 2.38471e-06)
(0.720224 2.04084e-06 -3.29815e-07)
(0.720257 -2.56743e-06 7.94447e-07)
(0.720226 7.7079e-06 1.46566e-06)
(0.720249 -4.44451e-06 -2.05918e-07)
(0.720237 5.52858e-06 1.43615e-06)
(0.720237 2.68525e-07 6.36037e-07)
(0.720245 3.84271e-07 5.60276e-08)
(0.720232 3.93018e-06 1.50058e-06)
(0.720245 -1.13736e-06 -4.97781e-07)
(0.720236 3.82519e-06 8.4351e-07)
(0.720236 -5.67539e-07 2.23089e-07)
(0.720245 3.70497e-06 -4.81082e-07)
(0.720227 -1.02481e-06 4.70535e-07)
(0.720251 4.12645e-06 -5.30966e-07)
(0.720223 -1.45203e-07 -8.19339e-07)
(0.720251 1.11195e-06 4.11586e-07)
(0.720228 4.85501e-06 -2.04685e-06)
(0.720242 -4.0666e-06 3.5826e-07)
(0.720239 8.03808e-06 -1.73343e-06)
(0.720233 -3.58219e-06 -9.06983e-07)
(0.654861 3.29598e-06 -1.63322e-06)
(0.654852 2.07017e-06 -2.11864e-06)
(0.654861 -1.16426e-06 -8.38493e-07)
(0.654855 4.93539e-06 -2.19876e-06)
(0.654858 -2.16991e-06 -1.08903e-06)
(0.654861 4.83276e-06 -9.6328e-07)
(0.654852 -1.60909e-06 -2.10337e-06)
(0.654868 4.12887e-06 3.39034e-07)
(0.654847 -2.8647e-07 -1.85503e-06)
(0.654873 1.64418e-06 -3.06182e-07)
(0.654846 3.38949e-06 3.89644e-07)
(0.65487 -2.38189e-06 -1.94309e-06)
(0.654852 6.29514e-06 2.20642e-06)
(0.654864 -2.85896e-06 -1.84276e-06)
(0.654858 3.63359e-06 1.58355e-06)
(0.654861 2.34038e-06 2.5535e-07)
(0.654857 -2.53619e-06 3.29357e-09)
(0.654865 7.06701e-06 1.86339e-06)
(0.654851 -3.96868e-06 -4.84849e-07)
(0.65487 4.39798e-06 1.99484e-06)
(0.654846 1.64309e-06 1.44789e-07)
(0.654871 -2.06889e-06 9.81908e-07)
(0.654848 6.44824e-06 1.25743e-06)
(0.654865 -3.7731e-06 4.46938e-08)
(0.654855 4.73967e-06 1.15921e-06)
(0.654857 1.11783e-07 4.94366e-07)
(0.65486 3.85702e-07 -1.6155e-07)
(0.654854 3.30399e-06 1.09103e-06)
(0.654859 -1.05555e-06 -9.04466e-07)
(0.654856 3.34181e-06 4.26294e-07)
(0.654854 -6.14311e-07 -3.94303e-07)
(0.654862 3.17864e-06 -1.09784e-06)
(0.654848 -8.63648e-07 6.59582e-08)
(0.654866 3.38182e-06 -1.60786e-06)
(0.654845 -3.0456e-10 -9.89686e-07)
(0.654866 8.12149e-07 -6.35526e-07)
(0.654848 4.14341e-06 -2.62086e-06)
(0.65486 -3.37864e-06 -4.66202e-08)
(0.654856 6.63199e-06 -2.76832e-06)
(0.654853 -2.82592e-06 -9.9279e-07)
(0.590917 2.63674e-06 -2.08824e-06)
(0.590911 1.79153e-06 -1.9213e-06)
(0.590917 -9.51506e-07 -1.13503e-06)
(0.590914 4.05829e-06 -1.90615e-06)
(0.590914 -1.70941e-06 -1.00429e-06)
(0.590919 3.96765e-06 -8.81524e-07)
(0.59091 -1.28085e-06 -1.47025e-06)
(0.590924 3.43366e-06 2.86402e-07)
(0.590907 -2.08558e-07 -1.16809e-06)
(0.590927 1.37295e-06 9.06661e-08)
(0.590907 2.83555e-06 5.2628e-07)
(0.590925 -1.94323e-06 -9.07111e-07)
(0.590911 5.20161e-06 1.96294e-06)
(0.59092 -2.3149e-06 -8.69971e-07)
(0.590915 2.994e-06 1.67661e-06)
(0.590918 1.94483e-06 6.04126e-07)
(0.590913 -2.06357e-06 4.72795e-07)
(0.590921 5.80034e-06 1.72404e-06)
(0.590908 -3.23948e-06 8.04859e-08)
(0.590925 3.61072e-06 1.61604e-06)
(0.590905 1.35025e-06 3.82632e-07)
(0.590924 -1.70902e-06 8.11069e-07)
(0.590907 5.31611e-06 9.01156e-07)
(0.590919 -3.14815e-06 -6.99674e-08)
(0.590911 3.92831e-06 6.66708e-07)
(0.590914 4.65802e-08 2.10006e-08)
(0.590914 3.12434e-07 -5.56542e-07)
(0.590912 2.72685e-06 3.38236e-07)
(0.590913 -9.35934e-07 -1.40021e-06)
(0.590914 2.80184e-06 -2.27089e-07)
(0.590909 -5.73436e-07 -1.21007e-06)
(0.590917 2.634e-06 -1.56243e-06)
(0.590905 -7.14737e-07 -7.62223e-07)
(0.590921 2.73895e-06 -2.27261e-06)
(0.590904 6.01621e-08 -1.35672e-06)
(0.590921 5.95976e-07 -1.60681e-06)
(0.590906 3.46917e-06 -2.70775e-06)
(0.590916 -2.78662e-06 -7.44999e-07)
(0.590912 5.42359e-06 -3.09343e-06)
(0.590912 -2.22415e-06 -1.10472e-06)
(0.528921 2.08441e-06 -2.03254e-06)
(0.528918 1.53318e-06 -1.52611e-06)
(0.528921 -7.97375e-07 -1.02287e-06)
(0.528921 3.31634e-06 -1.3741e-06)
(0.52892 -1.35062e-06 -6.98742e-07)
(0.528924 3.2183e-06 -4.36683e-07)
(0.528917 -1.00769e-06 -8.56967e-07)
(0.528928 2.7997e-06 5.8216e-07)
(0.528914 -1.42285e-07 -5.16451e-07)
(0.52893 1.10608e-06 5.25044e-07)
(0.528914 2.35048e-06 8.49407e-07)
(0.528928 -1.59815e-06 -2.16702e-07)
(0.528918 4.24653e-06 1.93708e-06)
(0.528924 -1.86498e-06 -2.37757e-07)
(0.52892 2.4013e-06 1.69102e-06)
(0.528923 1.62231e-06 7.66165e-07)
(0.528918 -1.72032e-06 6.15244e-07)
(0.528925 4.72477e-06 1.53498e-06)
(0.528914 -2.6367e-06 1.31147e-07)
(0.528928 2.89325e-06 1.20224e-06)
(0.528912 1.12215e-06 2.46682e-07)
(0.528927 -1.45065e-06 3.69048e-07)
(0.528913 4.33807e-06 3.9007e-07)
(0.528923 -2.60376e-06 -4.75723e-07)
(0.528916 3.1741e-06 2.8741e-08)
(0.528919 2.95328e-08 -6.02094e-07)
(0.528918 2.04114e-07 -1.08792e-06)
(0.528918 2.22731e-06 -4.6171e-07)
(0.528917 -8.15834e-07 -1.89919e-06)
(0.52892 2.28676e-06 -9.25353e-07)
(0.528914 -4.99706e-07 -1.86376e-06)
(0.528922 2.12756e-06 -1.96236e-06)
(0.528912 -5.80041e-07 -1.4673e-06)
(0.528925 2.1887e-06 -2.5794e-06)
(0.528911 8.47406e-08 -1.71167e-06)
(0.528925 4.29372e-07 -2.08978e-06)