/*--------------------------------*- C++ -*----------------------------------*\
  =========                 |
  \\      /  F ield         | OpenFOAM: The Open Source CFD Toolbox
   \\    /   O peration     | Website:  https://openfoam.org
    \\  /    A nd           | Version:  10
     \\/     M anipulation  |
\*---------------------------------------------------------------------------*/
FoamFile
{
    format      ascii;
    class       volVectorField;
    location    "47.5";
    object      U_0;
}
// * * * * * * * * * * * * * * * * * * * * * * * * * * * * * * * * * * * * * //

dimensions      [0 1 -1 0 0 0 0];

internalField   nonuniform List<vector> 
25600
(
(1.14695 -1.95342e-06 -1.88596e-06)
(1.14693 4.36053e-06 2.69864e-06)
(1.14693 -6.73117e-06 -2.72905e-06)
(1.14695 8.61415e-06 1.3744e-06)
(1.14693 -8.27748e-06 -2.54855e-07)
(1.14694 5.37658e-06 -1.01668e-06)
(1.14693 2.20993e-07 1.13258e-06)
(1.14694 -6.2827e-06 -1.18217e-06)
(1.14694 1.09998e-05 3.54346e-07)
(1.14694 -1.23368e-05 -1.30699e-08)
(1.14694 1.07985e-05 -7.05145e-07)
(1.14694 -6.98939e-06 6.33593e-07)
(1.14694 2.64382e-06 -9.3006e-07)
(1.14693 2.21209e-06 6.48002e-07)
(1.14694 -6.48757e-06 -8.15539e-07)
(1.14694 1.00836e-05 2.61192e-07)
(1.14693 -1.11838e-05 8.21439e-10)
(1.14694 9.57036e-06 -9.93049e-07)
(1.14693 -4.84567e-06 1.52662e-06)
(1.14694 -9.20856e-07 -2.55331e-06)
(1.14694 6.43661e-06 2.8e-06)
(1.14694 -9.37174e-06 -3.09148e-06)
(1.14694 9.41581e-06 2.24199e-06)
(1.14693 -5.83064e-06 -1.37509e-06)
(1.14694 2.64191e-08 -1.38538e-07)
(1.14693 6.60926e-06 1.03328e-06)
(1.14694 -1.09266e-05 -2.20914e-06)
(1.14694 1.15116e-05 2.52933e-06)
(1.14694 -7.42258e-06 -2.77877e-06)
(1.14694 8.58816e-07 2.22363e-06)
(1.14694 5.27747e-06 -2.03748e-06)
(1.14694 -8.09098e-06 1.39769e-06)
(1.14693 7.46054e-06 -1.23382e-06)
(1.14694 -4.9183e-06 4.8397e-07)
(1.14693 2.85203e-06 2.50874e-07)
(1.14694 -1.75616e-06 -1.80897e-06)
(1.14694 1.65433e-06 2.83976e-06)
(1.14693 -1.5211e-06 -3.37688e-06)
(1.14695 1.11299e-06 2.13252e-06)
(1.14692 1.83676e-07 -3.66709e-07)
(1.14695 4.30572e-07 -3.25683e-07)
(1.14693 6.78828e-07 1.09143e-06)
(1.14694 -3.40722e-06 -1.63339e-06)
(1.14694 7.14072e-06 1.22525e-06)
(1.14693 -9.05037e-06 -1.32986e-06)
(1.14695 7.991e-06 1.13512e-06)
(1.14693 -2.98526e-06 -1.71431e-06)
(1.14694 -3.61972e-06 1.65598e-06)
(1.14693 9.85029e-06 -1.69232e-06)
(1.14694 -1.28445e-05 5.97311e-07)
(1.14694 1.28099e-05 3.92835e-07)
(1.14693 -9.86434e-06 -1.91287e-06)
(1.14695 5.83407e-06 2.3343e-06)
(1.14693 -5.90896e-07 -2.49182e-06)
(1.14695 -4.83644e-06 1.37888e-06)
(1.14693 1.03515e-05 -5.36974e-07)
(1.14693 -1.34105e-05 -5.02068e-07)
(1.14694 1.30873e-05 3.80692e-07)
(1.14693 -8.18293e-06 -3.64426e-08)
(1.14695 8.79794e-07 -1.21242e-06)
(1.14693 6.95976e-06 1.78766e-06)
(1.14694 -1.17479e-05 -2.2073e-06)
(1.14694 1.23877e-05 1.3075e-06)
(1.14693 -8.0804e-06 -3.95885e-07)
(1.14695 9.79622e-07 -1.00968e-06)
(1.14693 6.90264e-06 1.628e-06)
(1.14694 -1.18847e-05 -2.31197e-06)
(1.14694 1.2492e-05 2.07876e-06)
(1.14693 -7.93126e-06 -1.82249e-06)
(1.14694 7.80763e-07 1.10507e-06)
(1.14693 6.15172e-06 -1.09204e-06)
(1.14694 -9.551e-06 8.96199e-07)
(1.14694 9.27758e-06 -1.16607e-06)
(1.14694 -6.17861e-06 7.53057e-07)
(1.14693 2.61114e-06 -2.37916e-07)
(1.14694 6.15202e-07 -1.35398e-06)
(1.14694 -2.37699e-06 2.55279e-06)
(1.14693 2.90425e-06 -3.44627e-06)
(1.14695 -1.81795e-06 2.67888e-06)
(1.14692 4.85008e-07 -1.49518e-06)
(1.14695 2.8229e-06 1.52878e-06)
(1.14693 -1.92233e-06 -9.76152e-07)
(1.14694 -1.17162e-06 -1.39793e-07)
(1.14694 6.18517e-06 8.42794e-07)
(1.14693 -9.64686e-06 -2.2096e-06)
(1.14695 1.04497e-05 3.06591e-06)
(1.14692 -6.69772e-06 -4.18464e-06)
(1.14695 6.10461e-07 4.02347e-06)
(1.14693 6.56593e-06 -3.39002e-06)
(1.14694 -1.14386e-05 1.19365e-06)
(1.14694 1.39274e-05 1.04828e-06)
(1.14693 -1.28475e-05 -3.57214e-06)
(1.14695 9.85736e-06 4.54867e-06)
(1.14692 -4.2344e-06 -4.62592e-06)
(1.14695 -2.19219e-06 3.07717e-06)
(1.14693 9.49651e-06 -1.5499e-06)
(1.14694 -1.42819e-05 -1.62924e-07)
(1.14695 1.54382e-05 5.50374e-07)
(1.14692 -1.085e-05 -4.59268e-07)
(1.14695 2.84421e-06 -6.23073e-07)
(1.14693 6.51246e-06 1.03825e-06)
(1.14694 -1.2724e-05 -1.13061e-06)
(1.14694 1.42884e-05 5.68331e-08)
(1.14692 -9.98498e-06 8.6525e-07)
(1.14695 2.52589e-06 -1.89686e-06)
(1.14692 5.87007e-06 1.97892e-06)
(1.14694 -1.12693e-05 -1.98529e-06)
(1.14694 1.24063e-05 1.1083e-06)
(1.14693 -8.56052e-06 -4.55259e-07)
(1.14695 2.33628e-06 -3.34674e-07)
(1.14693 4.04141e-06 5.46207e-08)
(1.14694 -7.59297e-06 3.19766e-07)
(1.14694 8.17321e-06 -1.23377e-06)
(1.14694 -5.84227e-06 1.43173e-06)
(1.14694 2.60044e-06 -1.36113e-06)
(1.14694 9.81222e-07 4.59932e-08)
(1.14694 -3.02884e-06 1.18222e-06)
(1.14693 3.4817e-06 -2.54535e-06)
(1.14695 -1.52974e-06 2.65409e-06)
(1.14693 -8.47866e-07 -2.51574e-06)
(1.14695 5.77785e-06 3.16975e-06)
(1.14693 -4.50079e-06 -2.75111e-06)
(1.14694 1.12397e-06 1.15013e-06)
(1.14694 4.64501e-06 6.2087e-07)
(1.14693 -8.93118e-06 -2.96716e-06)
(1.14695 1.13368e-05 4.60075e-06)
(1.14692 -9.2794e-06 -5.91592e-06)
(1.14695 4.90783e-06 5.59895e-06)
(1.14692 1.83875e-06 -4.34806e-06)
(1.14694 -7.40506e-06 1.52659e-06)
(1.14694 1.21373e-05 1.42913e-06)
(1.14693 -1.34131e-05 -4.35884e-06)
(1.14695 1.25518e-05 5.59574e-06)
(1.14692 -7.85824e-06 -5.60174e-06)
(1.14696 1.60922e-06 3.96861e-06)
(1.14692 6.47531e-06 -2.24854e-06)
(1.14694 -1.24846e-05 4.55126e-07)
(1.14695 1.53971e-05 1.18776e-07)
(1.14692 -1.2144e-05 -9.98253e-08)
(1.14696 5.10639e-06 -5.62067e-07)
(1.14692 4.39334e-06 5.32124e-07)
(1.14695 -1.11669e-05 -1.32684e-08)
(1.14694 1.40022e-05 -1.30153e-06)
(1.14692 -1.07967e-05 2.24599e-06)
(1.14696 4.57124e-06 -2.7515e-06)
(1.14692 3.20197e-06 2.23598e-06)
(1.14695 -8.43355e-06 -1.33195e-06)
(1.14694 1.06048e-05 -1.00509e-07)
(1.14692 -8.26982e-06 1.24435e-06)
(1.14695 4.22904e-06 -1.93822e-06)
(1.14692 6.02169e-07 1.4421e-06)
(1.14694 -3.22105e-06 -3.90746e-07)
(1.14694 4.35838e-06 -1.15883e-06)
(1.14694 -2.94793e-06 2.10335e-06)
(1.14694 1.10489e-06 -2.59288e-06)
(1.14694 1.52532e-06 1.70673e-06)
(1.14694 -2.35109e-06 -4.25932e-07)
(1.14693 1.97592e-06 -1.35964e-06)
(1.14695 9.25382e-07 2.41089e-06)
(1.14693 -3.59765e-06 -3.30064e-06)
(1.14695 8.75008e-06 4.63927e-06)
(1.14693 -6.56806e-06 -4.07613e-06)
(1.14695 3.03387e-06 2.03577e-06)
(1.14693 3.04285e-06 6.09244e-07)
(1.14693 -7.41721e-06 -3.53592e-06)
(1.14695 1.10733e-05 5.58166e-06)
(1.14692 -1.0617e-05 -6.70226e-06)
(1.14696 8.61453e-06 6.13996e-06)
(1.14692 -3.15217e-06 -4.38726e-06)
(1.14695 -1.96663e-06 1.39089e-06)
(1.14694 8.1231e-06 1.73451e-06)
(1.14693 -1.12907e-05 -4.45185e-06)
(1.14695 1.30074e-05 5.66783e-06)
(1.14692 -1.00302e-05 -5.53016e-06)
(1.14696 5.21777e-06 4.21616e-06)
(1.14692 2.74594e-06 -2.69568e-06)
(1.14694 -9.0966e-06 1.39449e-06)
(1.14695 1.36925e-05 -9.03963e-07)
(1.14692 -1.2229e-05 9.42985e-07)
(1.14696 7.28569e-06 -1.00872e-06)
(1.14691 1.29582e-06 3.92337e-07)
(1.14695 -7.83451e-06 1.02587e-06)
(1.14694 1.20738e-05 -2.71604e-06)
(1.14692 -1.07941e-05 3.84449e-06)
(1.14696 7.01683e-06 -3.79033e-06)
(1.14691 -8.30467e-07 2.66359e-06)
(1.14695 -3.4753e-06 -8.65595e-07)
(1.14694 6.49388e-06 -1.09613e-06)
(1.14692 -6.04858e-06 2.69975e-06)
(1.14696 4.97448e-06 -3.29237e-06)
(1.14692 -2.54502e-06 2.52777e-06)
(1.14695 1.74299e-06 -8.48479e-07)
(1.14694 -8.17643e-07 -1.256e-06)
(1.14694 1.67388e-06 2.99425e-06)
(1.14694 -1.86168e-06 -3.83735e-06)
(1.14694 2.71028e-06 3.29399e-06)
(1.14694 -1.30817e-06 -1.75851e-06)
(1.14693 -5.2851e-07 -4.4715e-07)
(1.14694 4.51741e-06 2.46796e-06)
(1.14693 -6.96968e-06 -4.11822e-06)
(1.14695 1.19748e-05 5.79754e-06)
(1.14692 -8.59325e-06 -4.80513e-06)
(1.14695 4.93279e-06 2.40508e-06)
(1.14693 1.33299e-06 9.58737e-07)
(1.14694 -5.39379e-06 -3.96206e-06)
(1.14695 1.00706e-05 6.08091e-06)
(1.14692 -1.10569e-05 -6.62114e-06)
(1.14696 1.17285e-05 5.82398e-06)
(1.14692 -8.017e-06 -3.69187e-06)
(1.14695 3.99721e-06 1.05739e-06)
(1.14693 3.05891e-06 1.80488e-06)
(1.14693 -7.73001e-06 -3.75431e-06)
(1.14695 1.2044e-05 4.77526e-06)
(1.14691 -1.10583e-05 -4.43806e-06)
(1.14696 8.28646e-06 3.73779e-06)
(1.14691 -8.70074e-07 -2.71748e-06)
(1.14695 -5.43412e-06 2.36435e-06)
(1.14694 1.1693e-05 -2.17224e-06)
(1.14691 -1.21593e-05 2.44923e-06)
(1.14697 9.8667e-06 -1.83529e-06)
(1.14691 -2.73336e-06 6.43807e-07)
(1.14695 -3.10085e-06 1.80607e-06)
(1.14694 8.74806e-06 -3.80736e-06)
(1.14692 -9.59686e-06 5.19846e-06)
(1.14697 9.13971e-06 -4.57495e-06)
(1.14691 -5.22415e-06 2.99813e-06)
(1.14695 2.71826e-06 -2.68124e-07)
(1.14694 7.3851e-07 -2.04897e-06)
(1.14692 -1.77112e-06 4.04861e-06)
(1.14696 3.92552e-06 -4.27281e-06)
(1.14692 -4.26939e-06 3.27425e-06)
(1.14694 6.0475e-06 -7.81522e-07)
(1.14694 -5.94435e-06 -1.7096e-06)
(1.14693 6.97586e-06 4.08976e-06)
(1.14694 -5.60865e-06 -4.98206e-06)
(1.14694 4.66209e-06 4.57294e-06)
(1.14694 -5.1467e-07 -2.51945e-06)
(1.14694 -3.13507e-06 -9.12118e-08)
(1.14694 8.52181e-06 2.9589e-06)
(1.14693 -1.07003e-05 -4.93767e-06)
(1.14694 1.49857e-05 6.80414e-06)
(1.14691 -1.02509e-05 -4.98771e-06)
(1.14694 6.58934e-06 2.27591e-06)
(1.14692 -8.27385e-08 1.71314e-06)
(1.14693 -3.27897e-06 -4.32409e-06)
(1.14694 8.71945e-06 6.2268e-06)
(1.14691 -1.06735e-05 -5.80851e-06)
(1.14695 1.39048e-05 4.77245e-06)
(1.14691 -1.19119e-05 -2.26678e-06)
(1.14694 9.50636e-06 4.09263e-07)
(1.14692 -1.78863e-06 1.81863e-06)
(1.14693 -3.84252e-06 -2.4991e-06)
(1.14694 1.0682e-05 3.1413e-06)
(1.1469 -1.14126e-05 -2.42434e-06)
(1.14696 1.08036e-05 2.57751e-06)
(1.1469 -3.85839e-06 -2.21324e-06)
(1.14694 -2.14029e-06 3.19805e-06)
(1.14693 9.99276e-06 -3.40541e-06)
(1.14691 -1.19521e-05 4.11957e-06)
(1.14696 1.22417e-05 -2.75696e-06)
(1.1469 -6.40324e-06 1.09669e-06)
(1.14695 1.56145e-06 2.44052e-06)
(1.14693 5.24996e-06 -4.63706e-06)
(1.14691 -7.72446e-06 6.43418e-06)
(1.14696 1.03873e-05 -5.16218e-06)
(1.1469 -8.69768e-06 3.28224e-06)
(1.14694 8.19246e-06 4.25587e-07)
(1.14693 -4.6473e-06 -2.92376e-06)
(1.14692 2.84573e-06 5.37867e-06)
(1.14695 1.8636e-06 -5.05322e-06)
(1.14691 -4.57282e-06 3.84191e-06)
(1.14694 9.18907e-06 -3.99436e-07)
(1.14693 -1.03357e-05 -2.39006e-06)
(1.14693 1.21604e-05 5.38177e-06)
(1.14693 -9.595e-06 -5.95847e-06)
(1.14693 7.07014e-06 5.50846e-06)
(1.14692 -5.28144e-08 -2.56664e-06)
(1.14693 -5.41147e-06 -3.72874e-07)
(1.14693 1.24112e-05 4.03647e-06)
(1.14692 -1.41843e-05 -5.91745e-06)
(1.14682 1.71256e-05 7.77967e-06)
(1.14679 -1.0946e-05 -4.72016e-06)
(1.14682 7.39974e-06 1.78109e-06)
(1.14679 -7.40785e-07 2.82574e-06)
(1.14681 -1.58131e-06 -4.66326e-06)
(1.14681 7.42126e-06 6.21209e-06)
(1.14679 -9.66812e-06 -4.46495e-06)
(1.14682 1.50599e-05 3.27478e-06)
(1.14678 -1.43808e-05 -3.62704e-07)
(1.14682 1.37445e-05 -3.35885e-07)
(1.14679 -5.72203e-06 1.8161e-06)
(1.1468 -3.14764e-07 -8.11483e-07)
(1.14682 9.23619e-06 1.0533e-06)
(1.14678 -1.11714e-05 1.95772e-07)
(1.14683 1.24179e-05 1.04178e-06)
(1.14678 -5.73039e-06 -1.37064e-06)
(1.14682 2.00772e-07 3.96128e-06)
(1.14681 8.92406e-06 -4.51922e-06)
(1.14678 -1.16666e-05 5.86787e-06)
(1.14684 1.39472e-05 -3.66628e-06)
(1.14677 -8.88828e-06 1.68296e-06)
(1.14683 5.15094e-06 3.05696e-06)
(1.1468 2.54852e-06 -5.27258e-06)
(1.14679 -5.86962e-06 7.58842e-06)
(1.14683 1.09599e-05 -5.53338e-06)
(1.14678 -1.08555e-05 3.51526e-06)
(1.14682 1.24585e-05 1.29227e-06)
(1.1468 -9.13096e-06 -3.73903e-06)
(1.14679 7.38881e-06 6.69429e-06)
(1.14682 -6.89849e-07 -5.54555e-06)
(1.14679 -3.62413e-06 4.1814e-06)
(1.14681 1.09507e-05 4.18589e-07)
(1.1468 -1.3379e-05 -3.27535e-06)
(1.1468 1.65716e-05 6.89859e-06)
(1.1468 -1.3183e-05 -6.77235e-06)
(1.14681 9.63798e-06 6.11285e-06)
(1.1468 5.89583e-08 -1.93198e-06)
(1.14681 -7.04018e-06 -1.31235e-06)
(1.1468 1.56103e-05 5.75886e-06)
(1.1468 -1.67596e-05 -7.03878e-06)
(1.14552 1.87736e-05 9.00989e-06)
(1.1455 -1.09396e-05 -4.2244e-06)
(1.14552 7.5623e-06 1.13056e-06)
(1.1455 -5.11676e-07 4.39438e-06)
(1.14551 -5.42888e-07 -5.09598e-06)
(1.14552 6.63815e-06 6.35022e-06)
(1.14549 -8.58802e-06 -2.8814e-06)
(1.14553 1.56751e-05 1.65038e-06)
(1.14549 -1.56207e-05 1.91875e-06)
(1.14553 1.65488e-05 -1.12517e-06)
(1.1455 -8.00239e-06 1.87593e-06)
(1.14551 2.02684e-06 1.2374e-06)
(1.14552 8.59589e-06 -1.26933e-06)
(1.14549 -1.08989e-05 3.32102e-06)
(1.14554 1.35115e-05 -7.13751e-07)
(1.14548 -6.37965e-06 -2.09823e-07)
(1.14553 1.30719e-06 4.7815e-06)
(1.14551 8.97837e-06 -5.59177e-06)
(1.14549 -1.17069e-05 7.86513e-06)
(1.14554 1.53121e-05 -4.58265e-06)
(1.14548 -1.0199e-05 2.50665e-06)
(1.14553 7.44018e-06 3.68429e-06)
(1.14551 9.53599e-07 -5.74308e-06)
(1.14549 -4.19749e-06 8.84412e-06)
(1.14554 1.09115e-05 -5.75498e-06)
(1.14548 -1.14717e-05 3.80054e-06)
(1.14553 1.49631e-05 2.37148e-06)
(1.14551 -1.19854e-05 -4.5835e-06)
(1.1455 1.1135e-05 8.23504e-06)
(1.14553 -3.28749e-06 -5.93026e-06)
(1.1455 -1.76546e-06 4.45798e-06)
(1.14552 1.14071e-05 1.67351e-06)
(1.14551 -1.49533e-05 -4.47812e-06)
(1.14551 1.98608e-05 8.90875e-06)
(1.14551 -1.59572e-05 -7.63411e-06)
(1.14552 1.19414e-05 6.73733e-06)
(1.1455 1.67784e-07 -8.00543e-07)
(1.14552 -8.28536e-06 -2.65316e-06)
(1.14551 1.83778e-05 8.16764e-06)
(1.14551 -1.87139e-05 -8.47628e-06)
(1.13807 1.86786e-05 1.17324e-05)
(1.13806 -9.38487e-06 -4.40842e-06)
(1.13806 6.62669e-06 5.57242e-07)
(1.13807 5.24056e-07 6.539e-06)
(1.13805 1.82789e-07 -6.17528e-06)
(1.13808 5.79246e-06 7.0274e-06)
(1.13804 -6.71646e-06 -1.28057e-06)
(1.13809 1.49341e-05 -3.1845e-07)
(1.13804 -1.49092e-05 4.81971e-06)
(1.13808 1.73852e-05 -2.29841e-06)
(1.13805 -8.51688e-06 1.90183e-06)
(1.13806 3.33283e-06 3.97673e-06)
(1.13807 8.26217e-06 -4.74286e-06)
(1.13804 -1.00917e-05 7.78451e-06)
(1.13808 1.36319e-05 -3.49231e-06)
(1.13804 -5.81988e-06 1.40245e-06)
(1.13807 1.5857e-06 5.93473e-06)
(1.13807 9.26147e-06 -7.5259e-06)
(1.13804 -1.10452e-05 1.10633e-05)
(1.13809 1.52483e-05 -6.48731e-06)
(1.13803 -9.53371e-06 3.87329e-06)
(1.13808 7.9045e-06 4.53425e-06)
(1.13806 6.37557e-07 -6.89396e-06)
(1.13804 -2.6313e-06 1.11259e-05)
(1.13809 9.86847e-06 -6.7484e-06)
(1.13804 -9.99554e-06 4.38971e-06)
(1.13808 1.49727e-05 4.01e-06)
(1.13807 -1.23191e-05 -6.48704e-06)
(1.13805 1.31446e-05 1.12609e-05)
(1.13808 -5.09342e-06 -7.43124e-06)
(1.13804 5.74056e-07 5.24929e-06)
(1.13807 1.05616e-05 3.57169e-06)
(1.13806 -1.45103e-05 -7.08811e-06)
(1.13806 2.10786e-05 1.30532e-05)
(1.13806 -1.68204e-05 -1.04524e-05)
(1.13807 1.31349e-05 8.81962e-06)
(1.13806 5.10053e-07 5.51537e-08)
(1.13807 -8.66519e-06 -4.64565e-06)
(1.13806 1.96674e-05 1.21142e-05)
(1.13806 -1.88039e-05 -1.15584e-05)
(1.11677 1.59673e-05 1.9691e-05)
(1.11676 -5.72461e-06 -9.64087e-06)
(1.11674 4.26152e-06 2.38524e-06)
(1.11679 2.39958e-06 8.61947e-06)
(1.11672 6.77004e-07 -9.85513e-06)
(1.1168 4.47865e-06 1.04989e-05)
(1.11671 -3.51519e-06 -1.89518e-06)
(1.1168 1.20576e-05 -2.7312e-06)
(1.11673 -1.1589e-05 9.89735e-06)
(1.11678 1.57133e-05 -7.44833e-06)
(1.11675 -7.27858e-06 5.09214e-06)
(1.11676 4.08738e-06 4.96076e-06)
(1.11677 7.3244e-06 -9.66892e-06)
(1.11674 -7.7873e-06 1.57148e-05)
(1.11678 1.20209e-05 -1.15014e-05)
(1.11675 -3.90601e-06 7.3824e-06)
(1.11676 1.39499e-06 4.36627e-06)
(1.11678 8.98369e-06 -1.00863e-05)
(1.11673 -8.82945e-06 1.71349e-05)
(1.11679 1.30699e-05 -1.31783e-05)
(1.11673 -6.62915e-06 9.39779e-06)
(1.11677 6.54477e-06 2.80977e-06)
(1.11677 1.38213e-06 -8.74318e-06)
(1.11673 -1.06789e-06 1.65376e-05)
(1.1168 7.69912e-06 -1.28246e-05)
(1.11673 -6.42903e-06 9.53396e-06)
(1.11678 1.23251e-05 2.93868e-06)
(1.11676 -9.91028e-06 -9.33241e-06)
(1.11674 1.28961e-05 1.82977e-05)
(1.11679 -5.5956e-06 -1.54909e-05)
(1.11673 2.92524e-06 1.25169e-05)
(1.11678 8.39858e-06 7.99406e-07)
(1.11674 -1.16865e-05 -9.08304e-06)
(1.11676 1.93985e-05 2.04391e-05)
(1.11676 -1.49774e-05 -2.00638e-05)
(1.11675 1.25445e-05 1.85914e-05)
(1.11677 1.27124e-06 -5.81585e-06)
(1.11675 -7.97603e-06 -3.45311e-06)
(1.11677 1.87624e-05 1.64571e-05)
(1.11675 -1.61413e-05 -1.86905e-05)
(1.08072 1.22405e-05 2.81944e-05)
(1.08068 -1.03401e-06 -2.36129e-05)
(1.08069 4.0786e-07 1.53881e-05)
(1.08072 5.95885e-06 8.57007e-07)
(1.08065 -8.62633e-07 -1.01783e-05)
(1.08076 4.65748e-06 1.67838e-05)
(1.08063 -1.02363e-06 -1.07682e-05)
(1.08076 8.26761e-06 3.02721e-06)
(1.08065 -6.22733e-06 9.94636e-06)
(1.08072 1.10168e-05 -1.45611e-05)
(1.08069 -3.33871e-06 1.59439e-05)
(1.08069 2.80252e-06 -5.69207e-06)
(1.08071 6.79321e-06 -4.40967e-06)
(1.08067 -4.77578e-06 1.8035e-05)
(1.08072 8.51868e-06 -2.15054e-05)
(1.08069 -8.07892e-08 2.15574e-05)
(1.08069 -5.43254e-07 -9.41552e-06)
(1.08072 9.30961e-06 -1.5953e-06)
(1.08066 -6.41087e-06 1.65845e-05)
(1.08074 9.50228e-06 -2.06143e-05)
(1.08066 -1.94992e-06 2.19975e-05)
(1.08071 3.00522e-06 -1.02886e-05)
(1.08071 3.74066e-06 4.9981e-08)
(1.08066 -6.86571e-07 1.54844e-05)
(1.08074 5.58533e-06 -2.00417e-05)
(1.08065 -2.17781e-06 2.28172e-05)
(1.08073 7.84376e-06 -1.16095e-05)
(1.08069 -5.29257e-06 1.21383e-06)
(1.08068 1.00314e-05 1.61353e-05)
(1.08073 -4.05657e-06 -2.31128e-05)
(1.08065 3.80297e-06 2.8138e-05)
(1.08074 6.46542e-06 -1.79088e-05)
(1.08066 -8.11308e-06 6.42525e-06)
(1.08072 1.5862e-05 1.3505e-05)
(1.08069 -1.10052e-05 -2.44345e-05)
(1.08069 9.78315e-06 3.2859e-05)
(1.08071 3.36119e-06 -2.54738e-05)
(1.08067 -7.95536e-06 1.46921e-05)
(1.08073 1.75715e-05 5.32611e-06)
(1.08066 -1.2876e-05 -1.8056e-05)
(1.03327 1.02289e-05 1.2105e-05)
(1.0332 1.52931e-06 -2.1178e-05)
(1.03324 -2.06518e-06 2.46758e-05)
(1.03324 8.9048e-06 -1.61846e-05)
(1.0332 -3.28448e-06 5.73632e-06)
(1.03329 6.60231e-06 7.42291e-06)
(1.03316 -1.12558e-06 -1.20894e-05)
(1.0333 6.75996e-06 1.20701e-05)
(1.03316 -2.58532e-06 -2.47135e-06)
(1.03328 6.61196e-06 -6.28349e-06)
(1.0332 1.24859e-06 1.55203e-05)
(1.03323 -3.11292e-07 -1.47912e-05)
(1.03325 8.22552e-06 1.01551e-05)
(1.0332 -3.78799e-06 3.23777e-06)
(1.03326 6.0421e-06 -1.31831e-05)
(1.03321 3.45292e-06 2.28195e-05)
(1.03323 -3.48622e-06 -2.07297e-05)
(1.03325 1.11055e-05 1.54037e-05)
(1.03319 -5.93733e-06 -5.71196e-07)
(1.03328 7.2674e-06 -9.84697e-06)
(1.03319 1.8531e-06 2.09037e-05)
(1.03325 -8.83268e-07 -1.96651e-05)
(1.03323 7.04967e-06 1.60153e-05)
(1.0332 -2.01737e-06 -1.79702e-06)
(1.03328 4.997e-06 -8.28623e-06)
(1.03318 6.32855e-07 2.05698e-05)
(1.03327 3.91823e-06 -2.08839e-05)
(1.03321 -7.83976e-07 1.87831e-05)
(1.03323 6.39515e-06 -4.82116e-06)
(1.03325 -1.62113e-06 -6.77882e-06)
(1.03319 3.37878e-06 2.17632e-05)
(1.03327 5.42126e-06 -2.54735e-05)
(1.03319 -5.55252e-06 2.54025e-05)
(1.03326 1.28323e-05 -1.21253e-05)
(1.0332 -7.63652e-06 -1.61621e-06)
(1.03324 7.2301e-06 1.95592e-05)
(1.03323 5.128e-06 -2.74857e-05)
(1.03321 -8.16188e-06 3.01156e-05)
(1.03326 1.68935e-05 -1.91805e-05)
(1.03319 -1.10764e-05 5.64499e-06)
(0.977639 8.99426e-06 -7.54926e-06)
(0.977564 2.3605e-06 -1.2936e-06)
(0.977628 -2.6855e-06 1.03365e-05)
(0.97759 9.75963e-06 -1.2742e-05)
(0.97759 -4.42218e-06 1.19012e-05)
(0.977633 7.85913e-06 -5.35015e-06)
(0.977549 -1.84613e-06 6.66999e-08)
(0.977665 6.57197e-06 4.95385e-06)
(0.977535 -1.18322e-06 -3.83062e-06)
(0.977659 4.39533e-06 1.16406e-06)
(0.977559 3.83337e-06 5.51695e-06)
(0.977622 -2.54411e-06 -8.45164e-06)
(0.977602 9.75393e-06 1.04007e-05)
(0.977583 -4.27296e-06 -5.06083e-06)
(0.977627 5.56013e-06 -5.81373e-07)
(0.977579 4.7513e-06 1.00766e-05)
(0.977609 -5.09573e-06 -1.38398e-05)
(0.977614 1.25423e-05 1.6491e-05)
(0.977567 -6.62396e-06 -1.03214e-05)
(0.977648 6.90557e-06 4.24908e-06)
(0.977554 3.3896e-06 6.66169e-06)
(0.977635 -3.24049e-06 -1.13297e-05)
(0.977589 9.62384e-06 1.55799e-05)
(0.977587 -3.9491e-06 -1.04601e-05)
(0.977635 5.622e-06 5.41709e-06)
(0.977556 1.70821e-06 5.4796e-06)
(0.977643 1.37674e-06 -1.09229e-05)
(0.977572 2.65171e-06 1.66246e-05)
(0.977611 3.06757e-06 -1.31009e-05)
(0.977609 7.56438e-07 8.67193e-06)
(0.977577 2.60652e-06 2.53207e-06)
(0.977634 4.55226e-06 -1.00518e-05)
(0.977563 -3.40256e-06 1.80113e-05)
(0.977637 1.01018e-05 -1.72199e-05)
(0.97757 -5.05107e-06 1.37347e-05)
(0.977621 5.52148e-06 -2.75903e-06)
(0.977594 5.61787e-06 -6.71908e-06)
(0.977592 -7.37562e-06 1.6569e-05)
(0.977623 1.53713e-05 -1.85956e-05)
(0.977567 -9.41588e-06 1.67126e-05)
(0.916568 7.73184e-06 -7.51296e-06)
(0.916512 2.57638e-06 5.27573e-06)
(0.916566 -2.52123e-06 -1.04679e-06)
(0.916525 9.35154e-06 -1.64765e-06)
(0.916544 -4.57896e-06 3.77233e-06)
(0.916555 8.16808e-06 -3.31418e-06)
(0.916511 -2.33574e-06 2.72743e-06)
(0.916585 6.41771e-06 -1.18712e-06)
(0.91649 -6.35825e-07 1.39103e-06)
(0.916591 3.24097e-06 -1.64616e-06)
(0.916499 4.85113e-06 3.74919e-06)
(0.91657 -3.52857e-06 -4.49696e-06)
(0.916529 1.01889e-05 5.60658e-06)
(0.916538 -4.66081e-06 -3.56255e-06)
(0.916556 5.59789e-06 1.53737e-06)
(0.916524 4.60252e-06 3.29793e-06)
(0.916552 -5.23301e-06 -5.96355e-06)
(0.916545 1.25651e-05 9.29592e-06)
(0.91652 -6.97945e-06 -7.96745e-06)
(0.916576 7.04684e-06 6.57914e-06)
(0.916501 3.33641e-06 -9.04067e-07)
(0.916577 -3.88538e-06 -2.41496e-06)
(0.91652 1.0546e-05 7.27437e-06)
(0.916542 -5.31309e-06 -6.93697e-06)
(0.91656 6.50908e-06 6.8393e-06)
(0.91651 1.42752e-06 -1.70117e-06)
(0.916576 3.78418e-07 -1.41695e-06)
(0.916513 4.4968e-06 6.87538e-06)
(0.916557 5.56842e-07 -7.63316e-06)
(0.91654 2.84262e-06 8.63333e-06)
(0.916528 1.36156e-06 -4.42873e-06)
(0.916564 4.2735e-06 1.14125e-06)
(0.916512 -1.99142e-06 4.92744e-06)
(0.916572 7.72239e-06 -7.42352e-06)
(0.916513 -2.82874e-06 9.64997e-06)
(0.916562 3.93013e-06 -6.94413e-06)
(0.916529 5.70988e-06 3.73096e-06)
(0.916541 -6.31663e-06 2.20962e-06)
(0.916552 1.33551e-05 -5.82829e-06)
(0.91652 -7.6162e-06 8.68734e-06)
(0.85225 6.48959e-06 -2.13797e-06)
(0.852214 2.48953e-06 1.95546e-06)
(0.852251 -2.04826e-06 -1.66501e-06)
(0.85222 8.29717e-06 9.80642e-07)
(0.852239 -4.13779e-06 -1.18503e-06)
(0.852238 7.73396e-06 8.83587e-07)
(0.852217 -2.5071e-06 -1.11026e-06)
(0.852261 6.1299e-06 -5.40527e-08)
(0.852199 -5.33664e-07 1.0999e-06)
(0.852271 2.68688e-06 -3.15505e-06)
(0.8522 4.86961e-06 4.30387e-06)
(0.85226 -3.63725e-06 -5.10071e-06)
(0.852218 9.71297e-06 4.4839e-06)
(0.852239 -4.63162e-06 -2.99184e-06)
(0.852238 5.50828e-06 9.09527e-07)
(0.852226 3.86922e-06 1.66378e-06)
(0.85224 -4.57486e-06 -3.36645e-06)
(0.852236 1.15155e-05 5.08149e-06)
(0.852221 -6.64813e-06 -4.65341e-06)
(0.852258 6.8678e-06 4.34679e-06)
(0.852204 2.69515e-06 -1.59642e-06)
(0.852264 -3.49188e-06 2.49052e-07)
(0.852212 1.0037e-05 2.69278e-06)
(0.852243 -5.60444e-06 -2.62767e-06)
(0.85224 6.81086e-06 3.67865e-06)
(0.852217 7.44967e-07 -1.38841e-06)
(0.852257 3.40889e-07 9.07066e-07)
(0.852212 4.83204e-06 2.06539e-06)
(0.852249 -6.92517e-07 -2.20321e-06)
(0.852229 3.93472e-06 3.96289e-06)
(0.852228 2.66824e-07 -2.57922e-06)
(0.852248 4.26252e-06 2.56807e-06)
(0.852212 -1.40268e-06 -7.26879e-08)
(0.852258 6.12066e-06 -7.19389e-07)
(0.85221 -1.38448e-06 2.74168e-06)
(0.852252 2.66859e-06 -2.64727e-06)
(0.852221 5.59073e-06 2.74092e-06)
(0.852236 -5.40722e-06 -1.1652e-06)
(0.852238 1.13976e-05 -1.17088e-07)
(0.852221 -6.02901e-06 1.5268e-06)
(0.786388 5.35951e-06 -2.65904e-07)
(0.786365 2.29968e-06 -9.6186e-07)
(0.786388 -1.59479e-06 -3.07647e-07)
(0.786369 7.05888e-06 -6.90049e-07)
(0.786382 -3.44821e-06 -1.45945e-06)
(0.78638 6.86697e-06 9.32714e-07)
(0.786368 -2.36371e-06 -2.9415e-06)
(0.786396 5.62377e-06 1.26736e-06)
(0.786354 -5.40901e-07 -1.318e-06)
(0.786405 2.38063e-06 -1.85016e-06)
(0.786354 4.39822e-06 2.67214e-06)
(0.786399 -3.27288e-06 -4.76789e-06)
(0.786365 8.70517e-06 3.99591e-06)
(0.786385 -4.24091e-06 -3.43168e-06)
(0.786379 5.15723e-06 1.24409e-06)
(0.786377 3.10364e-06 5.55737e-07)
(0.786381 -3.70626e-06 -2.08299e-06)
(0.786382 1.00221e-05 3.29866e-06)
(0.78637 -5.89442e-06 -2.95656e-06)
(0.786396 6.31908e-06 3.008e-06)
(0.786358 2.09868e-06 -9.6811e-07)
(0.786402 -2.86414e-06 5.93606e-07)
(0.786361 8.9129e-06 1.60381e-06)
(0.78639 -5.21808e-06 -8.47672e-07)
(0.786378 6.47157e-06 1.92559e-06)
(0.786371 2.607e-07 4.67672e-08)
(0.786391 4.88268e-07 4.74606e-07)
(0.786365 4.46397e-06 1.41176e-06)
(0.786389 -1.11559e-06 -4.83118e-07)
(0.786373 4.14432e-06 1.51387e-06)
(0.786376 -3.31288e-07 -2.69233e-07)
(0.786387 4.07092e-06 8.06367e-07)
(0.786363 -1.15288e-06 -1.67512e-08)
(0.786396 5.02827e-06 4.52988e-07)
(0.786358 -6.47104e-07 -2.41256e-07)
(0.786393 1.86675e-06 2.42441e-07)
(0.786366 5.18989e-06 -3.1837e-07)
(0.786381 -4.62001e-06 -2.20578e-07)
(0.786379 9.63252e-06 -2.72646e-07)
(0.786369 -4.76513e-06 -6.11e-07)
(0.720278 4.38197e-06 -8.01851e-07)
(0.720264 2.0717e-06 -1.9446e-06)
(0.720278 -1.25045e-06 -3.02268e-07)
(0.720267 5.88684e-06 -1.95778e-06)
(0.720274 -2.75522e-06 -1.07098e-06)
(0.720274 5.85239e-06 -3.78904e-07)
(0.720265 -2.03259e-06 -2.69725e-06)
(0.720285 4.94746e-06 9.03625e-07)
(0.720256 -5.06707e-07 -2.23943e-06)
(0.720292 2.11938e-06 -6.98649e-07)
(0.720255 3.77789e-06 9.08188e-07)
(0.720289 -2.74268e-06 -3.27996e-06)
(0.720263 7.48487e-06 2.95558e-06)
(0.720279 -3.6415e-06 -2.95352e-06)
(0.720272 4.59243e-06 1.57758e-06)
(0.720274 2.47513e-06 -1.18952e-08)
(0.720273 -2.90569e-06 -8.03339e-07)
(0.720279 8.45108e-06 2.27643e-06)
(0.720265 -4.9914e-06 -1.59705e-06)
(0.720287 5.55807e-06 2.44995e-06)
(0.720258 1.63369e-06 -4.17271e-07)
(0.72029 -2.27559e-06 8.84318e-07)
(0.720259 7.62422e-06 1.41463e-06)
(0.720282 -4.573e-06 -2.06173e-07)
(0.72027 5.78704e-06 1.48187e-06)
(0.720271 -1.38813e-09 5.65839e-07)
(0.720278 5.68255e-07 1.11197e-07)
(0.720265 3.86635e-06 1.47074e-06)
(0.720278 -1.1587e-06 -5.18983e-07)
(0.720269 3.86643e-06 8.86122e-07)
(0.72027 -5.7367e-07 1.57551e-07)
(0.720278 3.67098e-06 -4.47672e-07)
(0.720261 -9.89689e-07 4.59092e-07)
(0.720284 4.16123e-06 -5.73354e-07)
(0.720256 -2.95556e-07 -7.69556e-07)
(0.720284 1.36765e-06 3.49694e-07)
(0.720261 4.58307e-06 -2.02419e-06)
(0.720275 -3.8922e-06 3.57417e-07)
(0.720272 8.04943e-06 -1.77598e-06)
(0.720266 -3.77761e-06 -8.56976e-07)
(0.654893 3.54718e-06 -1.69523e-06)
(0.654884 1.83074e-06 -2.07098e-06)
(0.654893 -1.00241e-06 -8.57721e-07)
(0.654887 4.87276e-06 -2.21113e-06)
(0.65489 -2.17476e-06 -1.03546e-06)
(0.654892 4.87086e-06 -1.02503e-06)
(0.654884 -1.65993e-06 -2.04236e-06)
(0.6549 4.20945e-06 3.34816e-07)
(0.654878 -4.17918e-07 -1.89172e-06)
(0.654905 1.83025e-06 -2.07269e-07)
(0.654878 3.19003e-06 2.95699e-07)
(0.654902 -2.23821e-06 -1.85791e-06)
(0.654884 6.27827e-06 2.19572e-06)
(0.654896 -3.00217e-06 -1.87768e-06)
(0.65489 3.90884e-06 1.67903e-06)
(0.654893 2.0215e-06 1.65341e-07)
(0.654889 -2.29576e-06 8.56044e-08)
(0.654896 7.00389e-06 1.82994e-06)
(0.654883 -4.11691e-06 -4.82228e-07)
(0.654902 4.69904e-06 2.03254e-06)
(0.654878 1.30507e-06 8.74247e-08)
(0.654903 -1.8232e-06 1.04277e-06)
(0.65488 6.37313e-06 1.21449e-06)
(0.654897 -3.87517e-06 4.38556e-08)
(0.654886 4.95258e-06 1.18973e-06)
(0.654889 -1.15106e-07 4.32759e-07)
(0.654891 5.44555e-07 -1.1829e-07)
(0.654885 3.24331e-06 1.05825e-06)
(0.654891 -1.06747e-06 -9.24744e-07)
(0.654888 3.37416e-06 4.60734e-07)
(0.654886 -6.21948e-07 -4.63493e-07)
(0.654893 3.15645e-06 -1.05872e-06)
(0.654879 -8.41595e-07 3.96858e-08)
(0.654898 3.417e-06 -1.64233e-06)
(0.654876 -1.2841e-07 -9.4008e-07)
(0.654898 1.02367e-06 -7.11445e-07)
(0.65488 3.923e-06 -2.57746e-06)
(0.654892 -3.24135e-06 -6.50295e-08)
(0.654887 6.64826e-06 -2.79998e-06)
(0.654885 -2.99069e-06 -9.41682e-07)
(0.590946 2.84281e-06 -2.13651e-06)
(0.59094 1.59847e-06 -1.87382e-06)
(0.590946 -8.22863e-07 -1.15194e-06)
(0.590943 4.01025e-06 -1.90427e-06)
(0.590944 -1.71413e-06 -9.64948e-07)
(0.590948 3.99782e-06 -9.18979e-07)
(0.59094 -1.32075e-06 -1.41963e-06)
(0.590953 3.4991e-06 2.84045e-07)
(0.590936 -3.16966e-07 -1.18474e-06)
(0.590956 1.52655e-06 1.61811e-07)
(0.590936 2.6717e-06 4.6408e-07)
(0.590954 -1.82624e-06 -8.40596e-07)
(0.59094 5.18897e-06 1.95191e-06)
(0.590949 -2.43338e-06 -8.87606e-07)
(0.590944 3.21964e-06 1.74368e-06)
(0.590947 1.68391e-06 5.38031e-07)
(0.590943 -1.8677e-06 5.32779e-07)
(0.59095 5.74916e-06 1.69881e-06)
(0.590938 -3.36136e-06 7.82983e-08)
(0.590954 3.85726e-06 1.63964e-06)
(0.590934 1.07284e-06 3.40217e-07)
(0.590954 -1.50707e-06 8.48332e-07)
(0.590936 5.25351e-06 8.64552e-07)
(0.590949 -3.23154e-06 -7.35128e-08)
(0.59094 4.10332e-06 6.82861e-07)
(0.590944 -1.41117e-07 -3.1636e-08)
(0.590943 4.45026e-07 -5.25714e-07)
(0.590942 2.67447e-06 3.03661e-07)
(0.590942 -9.43936e-07 -1.41533e-06)
(0.590943 2.8282e-06 -2.07337e-07)
(0.590939 -5.81128e-07 -1.26903e-06)
(0.590947 2.61859e-06 -1.52729e-06)
(0.590935 -6.99706e-07 -7.96e-07)
(0.59095 2.77091e-06 -2.29023e-06)
(0.590933 -4.68285e-08 -1.32316e-06)
(0.59095 7.69707e-07 -1.67069e-06)
(0.590936 3.29099e-06 -2.65949e-06)
(0.590946 -2.67832e-06 -7.73369e-07)
(0.590942 5.44193e-06 -3.10441e-06)
(0.590941 -2.36209e-06 -1.06467e-06)
(0.528948 2.25282e-06 -2.06489e-06)
(0.528945 1.37795e-06 -1.48194e-06)
(0.528949 -6.95849e-07 -1.03411e-06)
(0.528948 3.28033e-06 -1.36549e-06)
(0.528947 -1.35596e-06 -6.66023e-07)
(0.528951 3.24299e-06 -4.59425e-07)
(0.528944 -1.03956e-06 -8.15045e-07)
(0.528955 2.85265e-06 5.83219e-07)
(0.528941 -2.30927e-07 -5.25889e-07)
(0.528957 1.23153e-06 5.81235e-07)
(0.528941 2.21726e-06 8.03195e-07)
(0.528955 -1.5044e-06 -1.65184e-07)
(0.528945 4.23825e-06 1.92719e-06)
(0.528951 -1.96364e-06 -2.50197e-07)
(0.528947 2.58601e-06 1.73923e-06)
(0.52895 1.41007e-06 7.12032e-07)
(0.528946 -1.5628e-06 6.60305e-07)
(0.528952 4.68552e-06 1.51095e-06)
(0.528941 -2.73845e-06 1.23559e-07)
(0.528955 3.09526e-06 1.21807e-06)
(0.528939 8.96037e-07 2.0863e-07)
(0.528954 -1.28732e-06 3.91415e-07)
(0.52894 4.28868e-06 3.57475e-07)
(0.52895 -2.67361e-06 -4.82723e-07)
(0.528943 3.31813e-06 3.55309e-08)
(0.528946 -1.24247e-07 -6.47498e-07)
(0.528945 3.12358e-07 -1.06646e-06)
(0.528945 2.18481e-06 -4.94385e-07)
(0.528944 -8.22744e-07 -1.9107e-06)
(0.528947 2.30908e-06 -9.14885e-07)
(0.528941 -5.06959e-07 -1.91002e-06)
(0.528949 2.11646e-06 -1.93368e-06)
(0.528939 -5.69097e-07 -1.49836e-06)
(0.528952 2.2163e-06 -2.5856e-06)
(0.528938 -3.34833e-09 -1.68952e-06)
(0.528952 5.70969e-07 -2.13524e-06)
(0.52894 2.72259e-06 -2.5478e-06)