/*--------------------------------*- C++ -*----------------------------------*\
  =========                 |
  \\      /  F ield         | OpenFOAM: The Open Source CFD Toolbox
   \\    /   O peration     | Website:  https://openfoam.org
    \\  /    A nd           | Version:  10
     \\/     M anipulation  |
\*---------------------------------------------------------------------------*/
FoamFile
{
    format      ascii;
    class       volScalarField;
    location    "16";
    object      nut;
}
// * * * * * * * * * * * * * * * * * * * * * * * * * * * * * * * * * * * * * //

dimensions      [0 2 -1 0 0 0 0];

internalField   nonuniform List<scalar> 
25600
(
3.79431e-06
3.79273e-06
3.79338e-06
3.79089e-06
3.79518e-06
3.79257e-06
3.79545e-06
3.79562e-06
3.79201e-06
3.79831e-06
3.79606e-06
3.79416e-06
3.79758e-06
3.79295e-06
3.79651e-06
3.79498e-06
3.79276e-06
3.79385e-06
3.78717e-06
3.79171e-06
3.79069e-06
3.78707e-06
3.79393e-06
3.78515e-06
3.79806e-06
3.78815e-06
3.79343e-06
3.79523e-06
3.78764e-06
3.79664e-06
3.7926e-06
3.79362e-06
3.79394e-06
3.7912e-06
3.7963e-06
3.79256e-06
3.79272e-06
3.79575e-06
3.79053e-06
3.79397e-06
2.92238e-06
2.92117e-06
2.92167e-06
2.91521e-06
2.92046e-06
2.92115e-06
2.92134e-06
2.92077e-06
2.9165e-06
2.92321e-06
2.92164e-06
2.92258e-06
2.92431e-06
2.91731e-06
2.92366e-06
2.92142e-06
2.92087e-06
2.92271e-06
2.91363e-06
2.92088e-06
2.91799e-06
2.91293e-06
2.91996e-06
2.90959e-06
2.92183e-06
2.91395e-06
2.9193e-06
2.92002e-06
2.91342e-06
2.92168e-06
2.92088e-06
2.92085e-06
2.92045e-06
2.91827e-06
2.924e-06
2.9196e-06
2.91942e-06
2.92502e-06
2.91768e-06
2.92039e-06
2.32333e-06
2.32548e-06
2.32426e-06
2.31549e-06
2.32474e-06
2.32319e-06
2.327e-06
2.32068e-06
2.3195e-06
2.33047e-06
2.32047e-06
2.33032e-06
2.32521e-06
2.31767e-06
2.32851e-06
2.32073e-06
2.32572e-06
2.32572e-06
2.31721e-06
2.32784e-06
2.32337e-06
2.31597e-06
2.32035e-06
2.31789e-06
2.32333e-06
2.31634e-06
2.32867e-06
2.3196e-06
2.32029e-06
2.33007e-06
2.32291e-06
2.32771e-06
2.32503e-06
2.32002e-06
2.33312e-06
2.32041e-06
2.32275e-06
2.33031e-06
2.31851e-06
2.32568e-06
2.03488e-06
2.0428e-06
2.03618e-06
2.02803e-06
2.0394e-06
2.03502e-06
2.04358e-06
2.02964e-06
2.03625e-06
2.04591e-06
2.0286e-06
2.05038e-06
2.03458e-06
2.03153e-06
2.0447e-06
2.0311e-06
2.04363e-06
2.03537e-06
2.03221e-06
2.04321e-06
2.03679e-06
2.02665e-06
2.03236e-06
2.03426e-06
2.03132e-06
2.03169e-06
2.04588e-06
2.02621e-06
2.04042e-06
2.04453e-06
2.03462e-06
2.04797e-06
2.03619e-06
2.03368e-06
2.05268e-06
2.02986e-06
2.0405e-06
2.04451e-06
2.03148e-06
2.0431e-06
1.79356e-06
1.80911e-06
1.79235e-06
1.789e-06
1.79839e-06
1.79423e-06
1.80709e-06
1.78319e-06
1.80237e-06
1.8032e-06
1.78442e-06
1.81913e-06
1.78764e-06
1.79431e-06
1.80354e-06
1.78964e-06
1.80931e-06
1.79024e-06
1.79658e-06
1.80369e-06
1.79654e-06
1.78396e-06
1.79305e-06
1.79507e-06
1.78398e-06
1.79772e-06
1.80622e-06
1.77975e-06
1.8105e-06
1.79959e-06
1.79627e-06
1.81662e-06
1.79e-06
1.79769e-06
1.81619e-06
1.78466e-06
1.80874e-06
1.80224e-06
1.79319e-06
1.80585e-06
1.58344e-06
1.60571e-06
1.57518e-06
1.58052e-06
1.58146e-06
1.58466e-06
1.59774e-06
1.56462e-06
1.60001e-06
1.58227e-06
1.57269e-06
1.6161e-06
1.5671e-06
1.58815e-06
1.5854e-06
1.58109e-06
1.60221e-06
1.57406e-06
1.5915e-06
1.58885e-06
1.58672e-06
1.56929e-06
1.5846e-06
1.58081e-06
1.5644e-06
1.59703e-06
1.58911e-06
1.56576e-06
1.61021e-06
1.57635e-06
1.59373e-06
1.61191e-06
1.57011e-06
1.59481e-06
1.60172e-06
1.57009e-06
1.60805e-06
1.58446e-06
1.58705e-06
1.59297e-06
1.4036e-06
1.42611e-06
1.3842e-06
1.39788e-06
1.38332e-06
1.4047e-06
1.40963e-06
1.37317e-06
1.42316e-06
1.37966e-06
1.39239e-06
1.43358e-06
1.37216e-06
1.40725e-06
1.3864e-06
1.4042e-06
1.41494e-06
1.38676e-06
1.4106e-06
1.39522e-06
1.40601e-06
1.37894e-06
1.4043e-06
1.38511e-06
1.37182e-06
1.42508e-06
1.39094e-06
1.38523e-06
1.42943e-06
1.37328e-06
1.42564e-06
1.4255e-06
1.3778e-06
1.41898e-06
1.40362e-06
1.387e-06
1.43146e-06
1.38972e-06
1.40972e-06
1.39793e-06
1.2537e-06
1.26624e-06
1.22102e-06
1.23533e-06
1.20217e-06
1.25269e-06
1.23993e-06
1.21009e-06
1.26444e-06
1.19557e-06
1.24169e-06
1.26686e-06
1.20473e-06
1.24421e-06
1.20545e-06
1.25711e-06
1.24506e-06
1.22922e-06
1.24552e-06
1.22293e-06
1.25252e-06
1.21141e-06
1.25042e-06
1.20244e-06
1.20584e-06
1.27445e-06
1.21386e-06
1.23845e-06
1.25667e-06
1.19302e-06
1.28892e-06
1.25446e-06
1.21625e-06
1.26159e-06
1.22017e-06
1.2351e-06
1.27252e-06
1.21982e-06
1.25667e-06
1.21785e-06
1.13166e-06
1.12633e-06
1.08809e-06
1.08549e-06
1.03799e-06
1.12607e-06
1.09018e-06
1.07576e-06
1.11578e-06
1.03223e-06
1.11684e-06
1.11686e-06
1.0663e-06
1.0911e-06
1.04333e-06
1.13376e-06
1.09588e-06
1.1021e-06
1.08673e-06
1.07433e-06
1.12243e-06
1.06875e-06
1.12075e-06
1.0294e-06
1.06598e-06
1.13792e-06
1.06504e-06
1.12248e-06
1.0837e-06
1.03959e-06
1.17608e-06
1.1039e-06
1.08587e-06
1.11133e-06
1.05389e-06
1.1103e-06
1.12779e-06
1.07866e-06
1.12189e-06
1.05151e-06
1.03338e-06
1.01125e-06
9.88298e-07
9.43542e-07
8.91111e-07
1.02035e-06
9.66238e-07
9.70516e-07
9.7243e-07
8.91047e-07
1.01164e-06
9.90584e-07
9.56668e-07
9.42737e-07
9.00481e-07
1.02936e-06
9.74524e-07
1.00355e-06
9.29713e-07
9.48823e-07
1.00968e-06
9.55486e-07
1.01232e-06
8.65616e-07
9.49875e-07
1.01061e-06
9.52005e-07
1.03091e-06
9.09883e-07
9.12968e-07
1.07834e-06
9.84914e-07
9.84128e-07
9.6125e-07
9.09236e-07
1.00697e-06
1.00002e-06
9.66477e-07
9.99331e-07
8.99028e-07
9.56844e-07
9.30122e-07
9.25749e-07
8.13579e-07
7.61609e-07
9.31512e-07
8.76139e-07
8.95833e-07
8.38658e-07
7.71772e-07
9.20339e-07
8.96306e-07
8.76228e-07
8.02106e-07
7.77189e-07
9.4379e-07
8.90033e-07
9.30024e-07
7.76932e-07
8.44261e-07
9.10879e-07
8.78091e-07
9.23926e-07
7.16491e-07
8.51997e-07
8.97546e-07
8.78825e-07
9.58276e-07
7.46448e-07
8.11479e-07
9.94524e-07
9.08515e-07
9.07904e-07
8.14671e-07
7.87222e-07
9.19234e-07
8.9609e-07
8.82621e-07
8.89802e-07
7.58735e-07
9.10687e-07
8.94107e-07
9.11426e-07
7.1728e-07
6.50301e-07
8.61905e-07
8.28391e-07
8.5892e-07
7.31188e-07
6.77547e-07
8.49121e-07
8.43381e-07
8.2844e-07
6.87873e-07
6.80278e-07
8.8448e-07
8.52069e-07
8.83144e-07
6.371e-07
7.5858e-07
8.33472e-07
8.43763e-07
8.6451e-07
5.90458e-07
7.70163e-07
8.13625e-07
8.49785e-07
9.13064e-07
6.11435e-07
7.38321e-07
9.4048e-07
8.81723e-07
8.58284e-07
6.85127e-07
6.89632e-07
8.49301e-07
8.22674e-07
8.2712e-07
8.05627e-07
6.31948e-07
9.29184e-07
9.15495e-07
9.68708e-07
7.00646e-07
5.69816e-07
8.31445e-07
8.36719e-07
8.82904e-07
6.8519e-07
6.19179e-07
8.14643e-07
8.46704e-07
8.35655e-07
6.34029e-07
6.31602e-07
8.7528e-07
8.78728e-07
8.84721e-07
5.29589e-07
6.94319e-07
7.99059e-07
8.63637e-07
8.63933e-07
5.04632e-07
7.17254e-07
7.86895e-07
8.73208e-07
9.29376e-07
5.2789e-07
7.07864e-07
9.57375e-07
9.12929e-07
8.55752e-07
6.04373e-07
6.31118e-07
8.2007e-07
7.92941e-07
8.09653e-07
7.83579e-07
5.37197e-07
1.10874e-06
9.96461e-07
1.15575e-06
8.38224e-07
5.49005e-07
8.88737e-07
9.1086e-07
1.03881e-06
7.80703e-07
5.93976e-07
8.57867e-07
9.09421e-07
9.6551e-07
7.20822e-07
6.6353e-07
9.70585e-07
9.79245e-07
1.00517e-06
5.19253e-07
6.84334e-07
8.59201e-07
9.43617e-07
9.86553e-07
5.16195e-07
7.29426e-07
8.86807e-07
9.44484e-07
1.0911e-06
5.80535e-07
7.6198e-07
1.12615e-06
1.00601e-06
9.8125e-07
6.53278e-07
6.59179e-07
9.03181e-07
8.26167e-07
8.96766e-07
9.39655e-07
5.23552e-07
1.66086e-06
1.0384e-06
1.64379e-06
1.3153e-06
6.95844e-07
1.22727e-06
9.48368e-07
1.53812e-06
1.27531e-06
5.92786e-07
1.1329e-06
9.24099e-07
1.40469e-06
1.19795e-06
8.01152e-07
1.29607e-06
1.03912e-06
1.44407e-06
8.93232e-07
8.49346e-07
1.15838e-06
9.91685e-07
1.37627e-06
8.79703e-07
9.09203e-07
1.31029e-06
9.69441e-07
1.62553e-06
1.08843e-06
9.8356e-07
1.62547e-06
1.06545e-06
1.48111e-06
1.09554e-06
8.79951e-07
1.31094e-06
9.05104e-07
1.40444e-06
1.58279e-06
7.00128e-07
3.12601e-06
1.20129e-06
2.94343e-06
2.30085e-06
1.56659e-06
2.55777e-06
1.0625e-06
2.88784e-06
2.46262e-06
1.14748e-06
2.26652e-06
9.62654e-07
2.56643e-06
2.30419e-06
1.30868e-06
2.30299e-06
8.32575e-07
2.65503e-06
1.86591e-06
1.53293e-06
2.19578e-06
7.49132e-07
2.40037e-06
1.87854e-06
1.53384e-06
2.49101e-06
9.67116e-07
3.02041e-06
2.25226e-06
1.69013e-06
2.8808e-06
1.07337e-06
2.87837e-06
2.14221e-06
1.80405e-06
2.5061e-06
1.07755e-06
2.97773e-06
2.84589e-06
1.71008e-06
6.37665e-06
4.90853e-06
6.1187e-06
3.97526e-06
4.75196e-06
5.94195e-06
4.63709e-06
5.99448e-06
4.54454e-06
4.2666e-06
5.02464e-06
3.9477e-06
5.07166e-06
3.93224e-06
4.02226e-06
4.88048e-06
3.88771e-06
5.17658e-06
3.82906e-06
4.2369e-06
5.10043e-06
3.51267e-06
4.85053e-06
3.52342e-06
3.83998e-06
4.99824e-06
3.85243e-06
5.82723e-06
3.79319e-06
4.32111e-06
5.68464e-06
4.16475e-06
5.85729e-06
3.95631e-06
5.01231e-06
5.09228e-06
4.01656e-06
6.14894e-06
4.49123e-06
5.29265e-06
1.22581e-05
1.29098e-05
1.11985e-05
8.23884e-06
1.07155e-05
1.19536e-05
1.23243e-05
1.09343e-05
8.7871e-06
9.74924e-06
9.71061e-06
1.07042e-05
9.03141e-06
7.63918e-06
9.4393e-06
9.96228e-06
1.13282e-05
9.24677e-06
8.99605e-06
9.53658e-06
1.07661e-05
1.04175e-05
9.20448e-06
7.2097e-06
8.7458e-06
9.82388e-06
1.07618e-05
9.89181e-06
7.5429e-06
9.5582e-06
1.09405e-05
1.138e-05
1.03778e-05
8.40424e-06
1.0378e-05
1.00137e-05
1.13439e-05
1.0781e-05
8.7345e-06
1.14438e-05
2.11561e-05
2.15102e-05
1.62861e-05
1.5742e-05
1.7855e-05
2.02933e-05
2.07987e-05
1.59026e-05
1.56931e-05
1.55345e-05
1.72331e-05
1.86064e-05
1.38528e-05
1.49387e-05
1.59266e-05
1.84124e-05
1.9942e-05
1.47675e-05
1.70519e-05
1.59253e-05
1.91502e-05
1.84786e-05
1.43563e-05
1.40534e-05
1.53268e-05
1.78771e-05
1.89956e-05
1.45041e-05
1.51529e-05
1.61234e-05
1.91842e-05
1.95751e-05
1.54819e-05
1.58406e-05
1.61626e-05
1.82565e-05
2.00274e-05
1.61368e-05
1.68629e-05
1.83466e-05
3.02144e-05
2.63244e-05
2.17663e-05
2.39328e-05
2.56705e-05
2.87484e-05
2.59151e-05
2.11984e-05
2.3095e-05
2.20822e-05
2.63801e-05
2.4008e-05
2.02942e-05
2.33487e-05
2.34905e-05
2.81032e-05
2.55275e-05
2.20192e-05
2.49142e-05
2.35597e-05
2.7964e-05
2.37809e-05
2.03265e-05
2.2154e-05
2.33835e-05
2.70917e-05
2.46308e-05
2.08423e-05
2.36377e-05
2.41294e-05
2.81642e-05
2.48176e-05
2.17158e-05
2.345e-05
2.31114e-05
2.75119e-05
2.59552e-05
2.26666e-05
2.54324e-05
2.62324e-05
3.53419e-05
2.84488e-05
2.82156e-05
3.13233e-05
3.37888e-05
3.40322e-05
2.8254e-05
2.76995e-05
2.95969e-05
3.0572e-05
3.30808e-05
2.74091e-05
2.79771e-05
3.09749e-05
3.21964e-05
3.47208e-05
2.85967e-05
2.98538e-05
3.13966e-05
3.23469e-05
3.35441e-05
2.67698e-05
2.75633e-05
2.9847e-05
3.23125e-05
3.35601e-05
2.79953e-05
2.85665e-05
3.11208e-05
3.31498e-05
3.39871e-05
2.78908e-05
2.86616e-05
3.00702e-05
3.15291e-05
3.39234e-05
2.95563e-05
2.97605e-05
3.27496e-05
3.476e-05
3.65964e-05
3.12781e-05
3.42632e-05
3.81402e-05
3.97456e-05
3.58765e-05
3.10715e-05
3.38555e-05
3.60493e-05
3.79675e-05
3.62436e-05
3.14107e-05
3.51138e-05
3.77885e-05
3.92324e-05
3.74044e-05
3.21317e-05
3.64733e-05
3.73622e-05
3.91602e-05
3.55142e-05
3.0533e-05
3.46009e-05
3.69544e-05
3.93659e-05
3.64697e-05
3.18073e-05
3.54751e-05
3.80371e-05
4.00008e-05
3.62111e-05
3.15492e-05
3.47013e-05
3.64868e-05
3.84373e-05
3.70312e-05
3.31483e-05
3.59703e-05
3.92375e-05
4.0792e-05
3.69916e-05
3.49443e-05
3.97984e-05
4.33734e-05
4.24476e-05
3.68049e-05
3.48136e-05
3.94407e-05
4.17234e-05
4.217e-05
3.80879e-05
3.60255e-05
4.1226e-05
4.3027e-05
4.30194e-05
3.85958e-05
3.626e-05
4.1831e-05
4.21201e-05
4.25351e-05
3.65811e-05
3.52671e-05
4.07104e-05
4.2599e-05
4.31454e-05
3.80062e-05
3.61776e-05
4.12857e-05
4.34801e-05
4.3269e-05
3.73435e-05
3.57109e-05
3.99453e-05
4.18834e-05
4.2372e-05
3.87923e-05
3.6941e-05
4.12259e-05
4.39868e-05
4.32058e-05
3.80533e-05
3.88157e-05
4.43336e-05
4.61157e-05
4.32138e-05
3.82796e-05
3.88164e-05
4.41763e-05
4.5238e-05
4.41215e-05
4.00466e-05
4.05131e-05
4.5844e-05
4.59626e-05
4.45337e-05
3.9921e-05
4.0263e-05
4.57728e-05
4.47065e-05
4.37976e-05
3.82778e-05
4.00363e-05
4.54086e-05
4.59302e-05
4.46371e-05
3.96669e-05
4.03725e-05
4.57858e-05
4.64005e-05
4.42919e-05
3.8823e-05
3.97703e-05
4.42733e-05
4.52235e-05
4.42193e-05
4.03696e-05
4.05552e-05
4.521e-05
4.62329e-05
4.35508e-05
3.95932e-05
4.23683e-05
4.71275e-05
4.69369e-05
4.34686e-05
4.01696e-05
4.24937e-05
4.72893e-05
4.6791e-05
4.51704e-05
4.20576e-05
4.42866e-05
4.85039e-05
4.70481e-05
4.50957e-05
4.14185e-05
4.36529e-05
4.791e-05
4.56185e-05
4.44158e-05
4.0387e-05
4.413e-05
4.82098e-05
4.73088e-05
4.51756e-05
4.14803e-05
4.39114e-05
4.84353e-05
4.72864e-05
4.4598e-05
4.05749e-05
4.33489e-05
4.70892e-05
4.6793e-05
4.50439e-05
4.1884e-05
4.35957e-05
4.7446e-05
4.66183e-05
4.34119e-05
4.12177e-05
4.49702e-05
4.82402e-05
4.68241e-05
4.36942e-05
4.20391e-05
4.52136e-05
4.87147e-05
4.7253e-05
4.58216e-05
4.38059e-05
4.68545e-05
4.94131e-05
4.71351e-05
4.52846e-05
4.28063e-05
4.59755e-05
4.84845e-05
4.57854e-05
4.48697e-05
4.2438e-05
4.69785e-05
4.92541e-05
4.75759e-05
4.53699e-05
4.31425e-05
4.63554e-05
4.93359e-05
4.71742e-05
4.476e-05
4.22906e-05
4.59592e-05
4.83702e-05
4.7306e-05
4.53295e-05
4.31995e-05
4.56449e-05
4.80908e-05
4.61589e-05
4.333e-05
4.25796e-05
4.63845e-05
4.81806e-05
4.63476e-05
4.38726e-05
4.35116e-05
4.67418e-05
4.89108e-05
4.71773e-05
4.6122e-05
4.50431e-05
4.81054e-05
4.91363e-05
4.67561e-05
4.52228e-05
4.384e-05
4.71024e-05
4.80809e-05
4.56795e-05
4.51486e-05
4.40575e-05
4.84353e-05
4.90728e-05
4.73015e-05
4.53446e-05
4.43897e-05
4.75642e-05
4.90442e-05
4.66934e-05
4.48173e-05
4.36803e-05
4.74005e-05
4.85151e-05
4.7206e-05
4.52483e-05
4.41337e-05
4.65951e-05
4.76775e-05
4.5445e-05
4.32948e-05
4.34251e-05
4.67472e-05
4.74118e-05
4.56739e-05
4.389e-05
4.4368e-05
4.72169e-05
4.83357e-05
4.67407e-05
4.60507e-05
4.56305e-05
4.82518e-05
4.81738e-05
4.61027e-05
4.49169e-05
4.43533e-05
4.72232e-05
4.71669e-05
4.53656e-05
4.51721e-05
4.50088e-05
4.87049e-05
4.81673e-05
4.67143e-05
4.50885e-05
4.50547e-05
4.77115e-05
4.80798e-05
4.60155e-05
4.4701e-05
4.45227e-05
4.77948e-05
4.79185e-05
4.66767e-05
4.48749e-05
4.45563e-05
4.66183e-05
4.66751e-05
4.4638e-05
4.31865e-05
4.36723e-05
4.63169e-05
4.62177e-05
4.48106e-05
4.3644e-05
4.45762e-05
4.68914e-05
4.72785e-05
4.59869e-05
4.5613e-05
4.55793e-05
4.76119e-05
4.68326e-05
4.52209e-05
4.4357e-05
4.4312e-05
4.66246e-05
4.59729e-05
4.47997e-05
4.48777e-05
4.52467e-05
4.81119e-05
4.68587e-05
4.58775e-05
4.45749e-05
4.51105e-05
4.70871e-05
4.67505e-05
4.51443e-05
4.43412e-05
4.47473e-05
4.73821e-05
4.68405e-05
4.58067e-05
4.4244e-05
4.44506e-05
4.59674e-05
4.53574e-05
4.37204e-05
4.28907e-05
4.33578e-05
4.53399e-05
4.47535e-05
4.37375e-05
4.30753e-05
4.42078e-05
4.59952e-05
4.59029e-05
4.49416e-05
4.48253e-05
4.49844e-05
4.64597e-05
4.52759e-05
4.41225e-05
4.35327e-05
4.37714e-05
4.55421e-05
4.45834e-05
4.39526e-05
4.42315e-05
4.48542e-05
4.6951e-05
4.53192e-05
4.48052e-05
4.37849e-05
4.46238e-05
4.59526e-05
4.52063e-05
4.40723e-05
4.36881e-05
4.43951e-05
4.63977e-05
4.54417e-05
4.46601e-05
4.33645e-05
4.38724e-05
4.48664e-05
4.38591e-05
4.26503e-05
4.23235e-05
4.25828e-05
4.40236e-05
4.31334e-05
4.24702e-05
4.21913e-05
4.33798e-05
4.47306e-05
4.4336e-05
4.36587e-05
4.37416e-05
4.39816e-05
4.50158e-05
4.36167e-05
4.28433e-05
4.247e-05
4.28377e-05
4.41613e-05
4.30602e-05
4.28453e-05
4.3259e-05
4.39718e-05
4.54649e-05
4.36637e-05
4.35337e-05
4.27397e-05
4.37126e-05
4.45242e-05
4.35486e-05
4.28198e-05
4.2748e-05
4.35742e-05
4.5056e-05
4.38552e-05
4.33144e-05
4.22658e-05
4.29203e-05
4.35055e-05
4.22705e-05
4.14227e-05
4.14633e-05
4.12131e-05
4.22677e-05
4.12105e-05
4.08297e-05
4.08202e-05
4.19643e-05
4.29885e-05
4.24355e-05
4.19817e-05
4.22113e-05
4.24566e-05
4.31844e-05
4.17079e-05
4.12176e-05
4.1006e-05
4.13837e-05
4.23673e-05
4.1233e-05
4.13001e-05
4.1791e-05
4.24898e-05
4.35701e-05
4.17395e-05
4.18908e-05
4.12705e-05
4.2255e-05
4.27128e-05
4.16167e-05
4.11989e-05
4.13456e-05
4.21572e-05
4.32649e-05
4.19517e-05
4.16259e-05
4.07805e-05
4.14571e-05
4.17843e-05
4.04361e-05
3.98419e-05
4.01166e-05
5.00695e-06
5.00666e-06
5.00895e-06
5.00597e-06
5.00972e-06
5.00541e-06
5.00965e-06
5.01051e-06
5.00655e-06
5.01237e-06
5.00767e-06
5.00693e-06
5.01205e-06
5.00744e-06
5.01022e-06
5.00766e-06
5.00526e-06
5.00752e-06
5.00171e-06
5.00357e-06
5.00459e-06
4.99955e-06
5.00977e-06
4.99937e-06
5.01187e-06
5.00081e-06
5.00667e-06
5.00945e-06
5.001e-06
5.00876e-06
5.00323e-06
5.00527e-06
5.00726e-06
5.00328e-06
5.0088e-06
5.00426e-06
5.00475e-06
5.01031e-06
5.00467e-06
5.00768e-06
3.65526e-06
3.65667e-06
3.65702e-06
3.6508e-06
3.65748e-06
3.65557e-06
3.65855e-06
3.65601e-06
3.65237e-06
3.6608e-06
3.65503e-06
3.65938e-06
3.66031e-06
3.65229e-06
3.65692e-06
3.65444e-06
3.65379e-06
3.66233e-06
3.65278e-06
3.65947e-06
3.65557e-06
3.65068e-06
3.65875e-06
3.64849e-06
3.65953e-06
3.64745e-06
3.65482e-06
3.65696e-06
3.64922e-06
3.65612e-06
3.65287e-06
3.65335e-06
3.65438e-06
3.6524e-06
3.65911e-06
3.64995e-06
3.65196e-06
3.66152e-06
3.65166e-06
3.65447e-06
3.08284e-06
3.08935e-06
3.08683e-06
3.07942e-06
3.08844e-06
3.08338e-06
3.0923e-06
3.08333e-06
3.08334e-06
3.09381e-06
3.07988e-06
3.09542e-06
3.08912e-06
3.08036e-06
3.08876e-06
3.08107e-06
3.08729e-06
3.09251e-06
3.08371e-06
3.08982e-06
3.08781e-06
3.08171e-06
3.08722e-06
3.08367e-06
3.08607e-06
3.07665e-06
3.09086e-06
3.08271e-06
3.08165e-06
3.08781e-06
3.08058e-06
3.08821e-06
3.08548e-06
3.07992e-06
3.09459e-06
3.07729e-06
3.08336e-06
3.09445e-06
3.0794e-06
3.08637e-06
2.70145e-06
2.71634e-06
2.7069e-06
2.70224e-06
2.71115e-06
2.7024e-06
2.71918e-06
2.70104e-06
2.71051e-06
2.71722e-06
2.69628e-06
2.72584e-06
2.70707e-06
2.70449e-06
2.71351e-06
2.70059e-06
2.71509e-06
2.71217e-06
2.70779e-06
2.7113e-06
2.71262e-06
2.70224e-06
2.70886e-06
2.71149e-06
2.70091e-06
2.70144e-06
2.71768e-06
2.69751e-06
2.70988e-06
2.70819e-06
2.69971e-06
2.71752e-06
2.70472e-06
2.7013e-06
2.72312e-06
2.69328e-06
2.71027e-06
2.71749e-06
2.69988e-06
2.71191e-06
2.37118e-06
2.39706e-06
2.37458e-06
2.3789e-06
2.38282e-06
2.37367e-06
2.39721e-06
2.36757e-06
2.39351e-06
2.38702e-06
2.36592e-06
2.40844e-06
2.3727e-06
2.3845e-06
2.38588e-06
2.37288e-06
2.39363e-06
2.38116e-06
2.38586e-06
2.38319e-06
2.39046e-06
2.37145e-06
2.38398e-06
2.38995e-06
2.36398e-06
2.38271e-06
2.39115e-06
2.36321e-06
2.3937e-06
2.37417e-06
2.37328e-06
2.39874e-06
2.3709e-06
2.37877e-06
2.40101e-06
2.35742e-06
2.39281e-06
2.38799e-06
2.37346e-06
2.38797e-06
2.08149e-06
2.11745e-06
2.07805e-06
2.0984e-06
2.0887e-06
2.08679e-06
2.11155e-06
2.07228e-06
2.11937e-06
2.08925e-06
2.07941e-06
2.12649e-06
2.07581e-06
2.10804e-06
2.0907e-06
2.08786e-06
2.1065e-06
2.08917e-06
2.10605e-06
2.09095e-06
2.1092e-06
2.07538e-06
2.10131e-06
2.10417e-06
2.06468e-06
2.10884e-06
2.0947e-06
2.07178e-06
2.11901e-06
2.07217e-06
2.09247e-06
2.11516e-06
2.0729e-06
2.10143e-06
2.11181e-06
2.06044e-06
2.1178e-06
2.09184e-06
2.09025e-06
2.10003e-06
1.83021e-06
1.86928e-06
1.81466e-06
1.85644e-06
1.82339e-06
1.83917e-06
1.854e-06
1.81433e-06
1.88105e-06
1.82059e-06
1.83412e-06
1.87058e-06
1.81661e-06
1.86767e-06
1.82471e-06
1.84346e-06
1.84447e-06
1.8357e-06
1.86128e-06
1.8316e-06
1.86512e-06
1.80842e-06
1.858e-06
1.84601e-06
1.80223e-06
1.87281e-06
1.82223e-06
1.82452e-06
1.8755e-06
1.80073e-06
1.85484e-06
1.85662e-06
1.81121e-06
1.86292e-06
1.84821e-06
1.80261e-06
1.87726e-06
1.82572e-06
1.84758e-06
1.84123e-06
1.61595e-06
1.64467e-06
1.58479e-06
1.64662e-06
1.58528e-06
1.62795e-06
1.61785e-06
1.59329e-06
1.66999e-06
1.58241e-06
1.62557e-06
1.6338e-06
1.59671e-06
1.65407e-06
1.58821e-06
1.6354e-06
1.6016e-06
1.62153e-06
1.64262e-06
1.6046e-06
1.65334e-06
1.56765e-06
1.65109e-06
1.61018e-06
1.57793e-06
1.6653e-06
1.57174e-06
1.62048e-06
1.65233e-06
1.56356e-06
1.65441e-06
1.61654e-06
1.58795e-06
1.65493e-06
1.60858e-06
1.58326e-06
1.6614e-06
1.58981e-06
1.64144e-06
1.60749e-06
1.43519e-06
1.43719e-06
1.38964e-06
1.46192e-06
1.3754e-06
1.44862e-06
1.40006e-06
1.40719e-06
1.47754e-06
1.37814e-06
1.44652e-06
1.41445e-06
1.41461e-06
1.45881e-06
1.38448e-06
1.45507e-06
1.37706e-06
1.4455e-06
1.44274e-06
1.41112e-06
1.46713e-06
1.3534e-06
1.47494e-06
1.39518e-06
1.39174e-06
1.47428e-06
1.34594e-06
1.45499e-06
1.44352e-06
1.36456e-06
1.48048e-06
1.39475e-06
1.40223e-06
1.46635e-06
1.39539e-06
1.39765e-06
1.46072e-06
1.38582e-06
1.46722e-06
1.39849e-06
1.28309e-06
1.24385e-06
1.22856e-06
1.29832e-06
1.19739e-06
1.29491e-06
1.20074e-06
1.25201e-06
1.30159e-06
1.2121e-06
1.28687e-06
1.21568e-06
1.26507e-06
1.28071e-06
1.21607e-06
1.29146e-06
1.17422e-06
1.30305e-06
1.26233e-06
1.25382e-06
1.2993e-06
1.16639e-06
1.32128e-06
1.20601e-06
1.24025e-06
1.29211e-06
1.14978e-06
1.31735e-06
1.25069e-06
1.20536e-06
1.32062e-06
1.19607e-06
1.24851e-06
1.2902e-06
1.21415e-06
1.23987e-06
1.27186e-06
1.21446e-06
1.32028e-06
1.21773e-06
1.15278e-06
1.06653e-06
1.09981e-06
1.15937e-06
1.05453e-06
1.16043e-06
1.0226e-06
1.1207e-06
1.14987e-06
1.08787e-06
1.13858e-06
1.04386e-06
1.14103e-06
1.12925e-06
1.08362e-06
1.13519e-06
9.97735e-07
1.18545e-06
1.11014e-06
1.13206e-06
1.14471e-06
1.00776e-06
1.18217e-06
1.05315e-06
1.11854e-06
1.11817e-06
9.83734e-07
1.19418e-06
1.08351e-06
1.0827e-06
1.17e-06
1.02497e-06
1.11492e-06
1.13431e-06
1.06872e-06
1.10184e-06
1.09531e-06
1.07421e-06
1.20147e-06
1.07142e-06
1.0413e-06
9.09657e-07
1.00278e-06
1.06597e-06
9.52943e-07
1.04309e-06
8.70563e-07
1.00526e-06
1.03988e-06
1.01105e-06
1.00047e-06
9.07667e-07
1.03519e-06
1.02193e-06
9.87929e-07
9.85412e-07
8.4916e-07
1.08553e-06
1.00018e-06
1.04307e-06
1.00433e-06
8.7883e-07
1.05846e-06
9.50418e-07
1.02314e-06
9.58877e-07
8.39842e-07
1.08212e-06
9.59725e-07
9.90858e-07
1.03322e-06
8.82247e-07
9.90818e-07
1.01541e-06
9.57743e-07
9.79609e-07
9.32211e-07
9.6011e-07
1.12111e-06
9.68991e-07
9.55586e-07
7.79707e-07
9.44495e-07
1.05529e-06
9.03147e-07
9.49351e-07
7.57944e-07
9.07919e-07
9.95468e-07
9.9197e-07
8.81406e-07
8.20307e-07
9.53162e-07
9.86137e-07
9.3403e-07
8.50358e-07
7.35281e-07
1.01197e-06
9.51123e-07
9.87393e-07
8.85311e-07
7.86828e-07
9.69216e-07
9.15687e-07
9.56251e-07
8.23753e-07
7.12005e-07
9.979e-07
8.94143e-07
9.25914e-07
9.22418e-07
7.71523e-07
8.78558e-07
9.5288e-07
8.83527e-07
8.72535e-07
7.85552e-07
8.67823e-07
1.10336e-06
9.25036e-07
9.08299e-07
7.00967e-07
9.59298e-07
1.16689e-06
9.14098e-07
8.84295e-07
7.13616e-07
8.60677e-07
1.0428e-06
1.03247e-06
7.85298e-07
8.2086e-07
9.3216e-07
1.05573e-06
9.24915e-07
7.34865e-07
6.90065e-07
9.90006e-07
9.84291e-07
9.66275e-07
7.86116e-07
7.57032e-07
9.57486e-07
9.67036e-07
9.24954e-07
7.16963e-07
6.15649e-07
9.75207e-07
9.03898e-07
8.85757e-07
8.43178e-07
7.11503e-07
8.15534e-07
9.6955e-07
8.47719e-07
7.85681e-07
6.72818e-07
7.93429e-07
1.1867e-06
9.51348e-07
9.18232e-07
7.20036e-07
1.13369e-06
1.46066e-06
9.70602e-07
8.2212e-07
7.73155e-07
9.7128e-07
1.26497e-06
1.08844e-06
6.88051e-07
9.63496e-07
1.07184e-06
1.32058e-06
9.35078e-07
6.169e-07
7.88239e-07
1.07719e-06
1.1848e-06
9.53455e-07
6.79926e-07
8.32688e-07
1.08407e-06
1.15846e-06
9.22553e-07
6.41992e-07
6.12134e-07
1.10024e-06
1.08606e-06
8.47902e-07
7.75463e-07
7.59516e-07
9.21215e-07
1.15047e-06
8.37598e-07
7.14408e-07
6.74245e-07
8.47126e-07
1.48955e-06
1.00938e-06
1.22749e-06
8.78108e-07
1.69501e-06
2.08068e-06
1.05925e-06
9.42098e-07
9.64161e-07
1.5502e-06
1.90486e-06
1.07341e-06
7.95685e-07
1.26157e-06
1.61398e-06
1.97427e-06
9.03478e-07
6.75769e-07
1.03009e-06
1.55004e-06
1.77168e-06
8.79192e-07
7.28849e-07
9.90038e-07
1.5213e-06
1.67696e-06
9.4461e-07
8.86914e-07
7.7826e-07
1.68084e-06
1.67702e-06
7.98791e-07
9.81184e-07
9.77796e-07
1.51839e-06
1.731e-06
8.93679e-07
8.93346e-07
9.50565e-07
1.5604e-06
2.27196e-06
1.0071e-06
2.33481e-06
1.6324e-06
3.0355e-06
2.98714e-06
1.54813e-06
1.97791e-06
1.79012e-06
2.948e-06
2.95816e-06
1.31731e-06
1.76989e-06
1.95994e-06
2.83735e-06
2.9145e-06
1.23609e-06
1.56836e-06
1.54364e-06
2.85212e-06
2.63892e-06
1.24681e-06
1.70697e-06
1.36373e-06
2.62528e-06
2.48647e-06
1.49446e-06
1.89782e-06
1.51635e-06
3.10253e-06
2.55582e-06
1.30146e-06
2.02182e-06
1.7631e-06
2.91369e-06
2.66913e-06
1.58719e-06
1.87858e-06
1.8456e-06
3.27357e-06
3.40027e-06
1.39749e-06
4.56165e-06
4.8316e-06
5.51743e-06
3.6555e-06
3.35259e-06
4.22874e-06
4.86568e-06
5.34912e-06
3.85618e-06
3.00224e-06
3.57457e-06
4.38863e-06
4.76381e-06
3.52383e-06
3.02107e-06
3.41908e-06
4.17067e-06
4.92482e-06
3.29668e-06
3.22388e-06
3.9172e-06
3.75362e-06
4.66957e-06
3.11938e-06
3.39191e-06
3.62127e-06
4.41521e-06
5.2831e-06
3.27116e-06
3.01577e-06
4.10551e-06
4.7119e-06
5.23355e-06
3.49279e-06
3.53989e-06
3.88248e-06
4.65993e-06
5.76975e-06
3.93016e-06
3.53074e-06
9.93761e-06
1.10793e-05
9.12793e-06
5.09852e-06
6.83051e-06
8.98435e-06
1.06541e-05
8.73405e-06
5.28288e-06
6.09645e-06
7.69265e-06
9.29483e-06
7.51953e-06
4.83877e-06
6.19539e-06
8.19e-06
9.84675e-06
7.87419e-06
5.47128e-06
6.82661e-06
8.80155e-06
9.14191e-06
7.90554e-06
4.96272e-06
6.68006e-06
7.94897e-06
1.01301e-05
8.03806e-06
5.25732e-06
5.97055e-06
9.22178e-06
1.03788e-05
8.64796e-06
5.17535e-06
6.82756e-06
8.65625e-06
1.02541e-05
8.75549e-06
4.66314e-06
7.40425e-06
1.89814e-05
1.7873e-05
1.38098e-05
9.81512e-06
1.32512e-05
1.68337e-05
1.71256e-05
1.30914e-05
9.69591e-06
1.1923e-05
1.55181e-05
1.51168e-05
1.21152e-05
9.5072e-06
1.24421e-05
1.69121e-05
1.65014e-05
1.29861e-05
1.1155e-05
1.36874e-05
1.70226e-05
1.57043e-05
1.27812e-05
1.01303e-05
1.28921e-05
1.611e-05
1.67648e-05
1.21995e-05
1.02494e-05
1.25241e-05
1.79054e-05
1.67305e-05
1.33905e-05
9.66095e-06
1.3204e-05
1.67877e-05
1.68701e-05
1.26527e-05
9.56749e-06
1.46714e-05
2.74325e-05
2.3363e-05
2.01561e-05
1.7256e-05
2.3275e-05
2.4832e-05
2.26853e-05
1.91612e-05
1.70509e-05
2.214e-05
2.40091e-05
2.07744e-05
1.91262e-05
1.71825e-05
2.31798e-05
2.59521e-05
2.25451e-05
2.06287e-05
1.92259e-05
2.43891e-05
2.5221e-05
2.1788e-05
1.9577e-05
1.78605e-05
2.29661e-05
2.48209e-05
2.26063e-05
1.87491e-05
1.77269e-05
2.35353e-05
2.64301e-05
2.22979e-05
1.95982e-05
1.69739e-05
2.35418e-05
2.51151e-05
2.28552e-05
1.86727e-05
1.81224e-05
2.60384e-05
3.25109e-05
2.93483e-05
2.73258e-05
2.72252e-05
3.36217e-05
3.07157e-05
2.87823e-05
2.65327e-05
2.73302e-05
3.32898e-05
3.02947e-05
2.77458e-05
2.73246e-05
2.76421e-05
3.46193e-05
3.23212e-05
2.93213e-05
2.89745e-05
2.93287e-05
3.493e-05
3.08609e-05
2.84446e-05
2.73458e-05
2.78832e-05
3.36005e-05
3.13566e-05
2.88123e-05
2.64636e-05
2.81139e-05
3.47512e-05
3.21951e-05
2.84144e-05
2.65912e-05
2.73374e-05
3.43344e-05
3.13345e-05
2.91954e-05
2.62562e-05
2.96284e-05
3.69925e-05
3.62561e-05
3.63807e-05
3.46067e-05
3.79868e-05
4.11978e-05
3.58571e-05
3.60335e-05
3.45381e-05
3.85611e-05
4.15305e-05
3.55251e-05
3.60392e-05
3.57324e-05
3.87738e-05
4.29591e-05
3.71731e-05
3.69463e-05
3.69354e-05
3.96034e-05
4.20847e-05
3.55003e-05
3.59805e-05
3.53092e-05
3.84954e-05
4.15284e-05
3.66524e-05
3.58124e-05
3.46368e-05
3.93254e-05
4.26251e-05
3.66355e-05
3.54075e-05
3.4217e-05
3.86421e-05
4.22519e-05
3.65072e-05
3.61811e-05
3.46582e-05
4.12881e-05
4.39508e-05
4.08218e-05
4.29172e-05
4.18853e-05
4.68088e-05
4.59895e-05
4.15943e-05
4.30223e-05
4.25726e-05
4.75855e-05
4.65011e-05
4.12807e-05
4.38223e-05
4.36174e-05
4.76826e-05
4.78024e-05
4.21238e-05
4.38607e-05
4.41403e-05
4.75159e-05
4.61264e-05
4.07578e-05
4.30878e-05
4.29148e-05
4.71033e-05
4.64328e-05
4.19941e-05
4.24233e-05
4.28719e-05
4.81653e-05
4.71401e-05
4.14124e-05
4.21165e-05
4.21714e-05
4.77971e-05
4.69874e-05
4.17853e-05
4.27254e-05
4.30915e-05
4.99558e-05
4.72557e-05
4.56417e-05
4.80919e-05
4.81654e-05
5.26303e-05
4.91965e-05
4.71255e-05
4.86404e-05
4.92626e-05
5.32262e-05
4.95605e-05
4.69449e-05
4.98973e-05
4.98893e-05
5.33143e-05
5.04068e-05
4.68095e-05
4.91864e-05
4.9769e-05
5.23266e-05
4.86172e-05
4.60376e-05
4.88047e-05
4.91351e-05
5.26547e-05
4.94198e-05
4.69455e-05
4.78856e-05
4.97732e-05
5.35257e-05
4.97883e-05
4.6109e-05
4.77927e-05
4.89888e-05
5.36102e-05
4.96945e-05
4.66815e-05
4.81093e-05
5.00015e-05
5.47992e-05
4.88291e-05
4.96427e-05
5.16808e-05
5.25856e-05
5.58107e-05
5.14368e-05
5.14214e-05
5.24772e-05
5.37319e-05
5.59893e-05
5.16384e-05
5.14697e-05
5.38942e-05
5.39436e-05
5.60888e-05
5.1775e-05
5.04877e-05
5.27124e-05
5.33087e-05
5.46657e-05
5.04088e-05
5.03729e-05
5.27251e-05
5.3292e-05
5.54993e-05
5.12909e-05
5.08127e-05
5.18497e-05
5.43544e-05
5.59821e-05
5.15036e-05
4.9938e-05
5.19936e-05
5.36151e-05
5.64656e-05
5.12481e-05
5.05363e-05
5.19759e-05
5.44654e-05
5.66158e-05
4.98684e-05
5.23628e-05
5.36977e-05
5.50806e-05
5.7052e-05
5.28042e-05
5.41221e-05
5.45598e-05
5.6034e-05
5.67993e-05
5.29722e-05
5.44167e-05
5.59292e-05
5.59193e-05
5.68477e-05
5.23576e-05
5.28836e-05
5.45183e-05
5.4944e-05
5.53824e-05
5.16234e-05
5.33014e-05
5.48397e-05
5.5433e-05
5.64158e-05
5.23439e-05
5.33517e-05
5.41884e-05
5.66261e-05
5.65156e-05
5.25289e-05
5.2559e-05
5.45252e-05
5.60007e-05
5.72227e-05
5.20316e-05
5.31154e-05
5.42012e-05
5.65662e-05
5.65449e-05
5.06185e-05
5.37713e-05
5.43593e-05
5.59961e-05
5.69336e-05
5.33169e-05
5.53408e-05
5.51828e-05
5.66521e-05
5.63852e-05
5.35726e-05
5.58165e-05
5.63809e-05
5.63098e-05
5.63159e-05
5.2338e-05
5.40312e-05
5.48931e-05
5.51759e-05
5.50613e-05
5.2202e-05
5.47913e-05
5.54353e-05
5.60002e-05
5.60752e-05
5.26863e-05
5.4611e-05
5.50521e-05
5.71095e-05
5.58874e-05
5.29033e-05
5.39406e-05
5.5526e-05
5.66073e-05
5.66451e-05
5.22091e-05
5.44436e-05
5.49449e-05
5.68723e-05
5.54369e-05
5.10026e-05
5.40624e-05
5.40022e-05
5.57408e-05
5.58884e-05
5.30752e-05
5.53879e-05
5.4742e-05
5.61144e-05
5.52157e-05
5.34653e-05
5.59462e-05
5.57106e-05
5.56213e-05
5.50044e-05
5.18186e-05
5.41263e-05
5.42379e-05
5.44681e-05
5.40544e-05
5.21341e-05
5.50625e-05
5.49193e-05
5.54673e-05
5.49455e-05
5.24044e-05
5.47919e-05
5.47729e-05
5.63876e-05
5.45721e-05
5.26746e-05
5.42403e-05
5.53343e-05
5.59808e-05
5.52744e-05
5.1866e-05
5.46955e-05
5.45547e-05
5.59923e-05
5.37913e-05
5.0938e-05
5.34957e-05
5.29469e-05
5.46571e-05
5.42497e-05
5.22168e-05
5.45891e-05
5.35981e-05
5.48362e-05
5.35858e-05
5.27251e-05
5.51452e-05
5.43324e-05
5.42457e-05
5.32551e-05
5.08671e-05
5.34153e-05
5.29229e-05
5.31498e-05
5.2588e-05
5.14599e-05
5.44061e-05
5.36733e-05
5.42074e-05
5.33404e-05
5.15828e-05
5.41388e-05
5.37079e-05
5.49203e-05
5.28542e-05