/*--------------------------------*- C++ -*----------------------------------*\
  =========                 |
  \\      /  F ield         | OpenFOAM: The Open Source CFD Toolbox
   \\    /   O peration     | Website:  https://openfoam.org
    \\  /    A nd           | Version:  10
     \\/     M anipulation  |
\*---------------------------------------------------------------------------*/
FoamFile
{
    format      ascii;
    class       surfaceScalarField;
    location    "16";
    object      phi;
}
// * * * * * * * * * * * * * * * * * * * * * * * * * * * * * * * * * * * * * //

dimensions      [0 3 -1 0 0 0 0];

internalField   nonuniform List<scalar> 
74080
(
0.000654887
-1.16475e-08
7.50625e-09
0.00065488
8.73309e-09
7.18443e-09
0.000654886
4.36656e-09
-4.8883e-10
0.000654874
1.67355e-08
5.64396e-09
0.000654874
1.58325e-08
9.26357e-09
0.000654864
1.88066e-08
3.51762e-09
0.000654855
2.6183e-08
3.60772e-09
0.000654859
1.39987e-08
4.39923e-09
0.000654845
3.10833e-08
9.04556e-09
0.000654845
1.61898e-08
1.3401e-08
0.000654843
1.95306e-08
1.45668e-08
0.000654838
3.11372e-08
1.04076e-08
0.000654842
2.10357e-08
1.44747e-08
0.000654838
4.01783e-08
1.48971e-08
0.000654849
3.00088e-08
1.3635e-08
0.000654852
4.57438e-08
1.40483e-08
0.000654855
4.61109e-08
1.3569e-08
0.000654857
5.64304e-08
8.05947e-09
0.000654858
4.95802e-08
1.00174e-08
0.000654854
5.2944e-08
1.14538e-08
0.000654855
5.54224e-08
5.61741e-09
0.000654848
3.32522e-08
1.33843e-08
0.000654843
4.99661e-08
5.14807e-09
0.00065484
3.67194e-08
4.27048e-09
0.000654839
1.10729e-08
1.02829e-08
0.000654846
2.09691e-08
-3.45446e-09
0.000654844
-8.71304e-10
6.93798e-09
0.000654848
-9.74176e-09
3.72924e-09
0.000654855
-1.62813e-08
-2.88438e-09
0.000654862
-3.0524e-08
4.68139e-09
0.000654867
-4.45167e-08
3.33159e-09
0.000654872
-3.08381e-08
-8.70605e-10
0.000654883
-4.88647e-08
4.20884e-09
0.000654874
-4.41983e-08
5.12613e-09
0.000654885
-3.75034e-08
2.49142e-09
0.000654896
-5.31396e-08
2.10065e-09
0.000654883
-2.87945e-08
1.066e-08
0.000654888
-3.30484e-08
3.93816e-09
0.000654891
-2.28504e-08
1.12506e-09
-1.50433e-08
8.06825e-09
0.000599993
-8.60652e-09
1.45892e-08
0.000599988
2.3774e-08
9.17294e-09
0.000599996
1.07022e-08
-4.57472e-09
0.000599978
4.06453e-08
1.0258e-08
0.000599977
1.77258e-08
1.29352e-08
0.000599965
3.55191e-08
5.04287e-09
0.000599962
4.43897e-08
-1.76625e-10
0.000599968
2.12604e-08
-4.71723e-09
0.000599948
5.5201e-08
9.69253e-09
0.00059995
1.28645e-08
1.58236e-08
0.000599943
2.55809e-08
1.52476e-08
0.000599944
3.59137e-08
5.06995e-09
0.000599956
1.82003e-08
1.00376e-08
0.000599952
4.98971e-08
9.08657e-09
0.000599965
1.57381e-08
1.59439e-08
0.000599958
5.14419e-08
1.86963e-08
0.000599953
4.48909e-08
2.21341e-08
0.000599947
6.42415e-08
1.40863e-08
0.000599942
5.66128e-08
1.82293e-08
0.000599939
5.64748e-08
1.6798e-08
0.000599942
6.12635e-08
8.55657e-09
0.00059994
2.92498e-08
1.932e-08
0.000599934
6.49606e-08
4.38191e-09
0.000599932
4.05789e-08
5.44923e-09
0.000599938
-2.60567e-09
1.11926e-08
0.00059994
2.94333e-08
-1.08183e-08
0.000599943
-1.28437e-08
5.42021e-09
0.000599946
-1.50574e-08
-2.7954e-09
0.000599951
-1.43376e-08
-1.28988e-08
0.000599963
-5.23225e-08
4.50807e-10
0.000599969
-5.62067e-08
-1.27706e-09
0.000599975
-2.97276e-08
-9.1643e-09
0.000599987
-6.89654e-08
1.30633e-09
0.000599975
-3.98501e-08
5.97851e-09
0.000599992
-4.64462e-08
-2.34895e-09
0.000600004
-6.80812e-08
2.97855e-10
0.000599988
-2.30472e-08
1.4975e-08
0.000599998
-4.1884e-08
4.11863e-09
0.000599999
-1.34265e-08
-1.29009e-09
-1.9808e-08
1.12235e-08
0.000546387
-4.98701e-10
1.76658e-08
0.000546385
3.91538e-08
1.50666e-08
0.00054639
2.13162e-08
-3.76929e-09
0.000546367
7.40656e-08
1.59688e-08
0.000546374
1.52738e-08
1.05126e-08
0.000546356
6.02493e-08
6.54664e-09
0.00054636
6.0612e-08
8.88283e-10
0.000546361
3.67389e-08
-9.83397e-09
0.000546336
8.7879e-08
1.02361e-08
0.00054635
9.27074e-10
1.41573e-08
0.000546335
4.04321e-08
1.44587e-08
0.000546344
3.64865e-08
2.2899e-09
0.000546355
1.97361e-08
1.24382e-08
0.000546347
6.42766e-08
7.32276e-09
0.000546369
-5.8194e-09
1.7277e-08
0.000546356
6.61834e-08
1.99467e-08
0.000546356
4.05929e-08
2.33391e-08
0.000546342
8.42553e-08
1.54481e-08
0.000546335
6.52523e-08
2.50509e-08
0.000546333
6.06068e-08
2.06387e-08
0.000546335
6.88964e-08
1.46276e-08
0.000546337
2.27456e-08
2.36112e-08
0.00054632
9.4537e-08
7.28841e-09
0.000546323
3.94979e-08
5.76814e-09
0.000546331
-1.81546e-08
1.17578e-08
0.000546325
4.65427e-08
-1.41797e-08
0.000546339
-3.61588e-08
1.0632e-09
0.000546332
-9.52475e-09
-7.64878e-09
0.000546336
-1.37022e-08
-1.73512e-08
0.000546357
-8.4687e-08
-7.13277e-09
0.000546358
-6.51761e-08
-2.60725e-09
0.000546367
-3.25948e-08
-1.27013e-08
0.000546381
-9.17298e-08
-4.7166e-09
0.000546359
-2.86307e-08
7.98352e-09
0.000546388
-6.82697e-08
-7.71222e-10
0.000546397
-8.26599e-08
-2.51349e-09
0.00054638
-1.53986e-08
1.64204e-08
0.000546393
-5.55499e-08
6.57206e-09
0.00054639
1.47819e-09
2.08484e-09
-3.20495e-08
1.28142e-08
0.000497196
1.71784e-08
2.20216e-08
0.000497202
5.27233e-08
2.2092e-08
0.000497196
4.31467e-08
-1.97241e-09
0.00049717
1.15864e-07
2.57196e-08
0.000497189
5.15332e-09
7.7263e-09
0.00049716
9.73792e-08
1.11033e-08
0.000497175
7.30924e-08
1.22135e-09
0.000497161
6.9322e-08
-1.44619e-08
0.000497136
1.24406e-07
1.37945e-08
0.000497164
-2.12494e-08
1.25346e-08
0.000497138
6.73942e-08
1.50047e-08
0.000497161
2.9534e-08
-1.26536e-09
0.000497161
3.55563e-08
1.60968e-08
0.000497153
8.03043e-08
4.32991e-09
0.000497186
-3.62319e-08
1.93607e-08
0.000497166
9.0458e-08
2.00768e-08
0.000497176
2.74752e-08
2.4519e-08
0.000497147
1.24287e-07
1.5133e-08
0.000497142
6.95292e-08
3.34618e-08
0.000497141
6.75383e-08
2.26884e-08
0.000497144
7.68239e-08
2.09107e-08
0.000497148
1.60046e-08
2.734e-08
0.000497117
1.44638e-07
9.47665e-09
0.000497129
2.76644e-08
5.44625e-09
0.000497133
-2.80578e-08
1.17993e-08
0.000497125
6.75516e-08
-1.84703e-08
0.000497153
-7.37986e-08
-3.33057e-09
0.000497125
1.77174e-08
-1.34796e-08
0.000497137
-2.39335e-08
-2.13653e-08
0.000497168
-1.2784e-07
-1.48178e-08
0.000497159
-6.86317e-08
-3.0454e-09
0.000497181
-4.66049e-08
-1.71765e-08
0.000497189
-1.10323e-07
-1.01389e-08
0.000497156
-9.51782e-09
1.23451e-08
0.000497204
-1.09426e-07
-2.71881e-10
0.000497206
-9.1518e-08
-6.15473e-09
0.000497193
-8.9335e-09
1.96432e-08
0.000497204
-7.03442e-08
7.88929e-09
0.000497195
2.20388e-08
6.80682e-09
-5.64702e-08
1.46804e-08
0.000452389
4.69465e-08
2.71891e-08
0.000452408
5.98062e-08
2.99541e-08
0.000452381
8.72053e-08
1.67768e-09
0.000452357
1.61112e-07
3.9994e-08
0.000452385
-1.05465e-08
2.41407e-09
0.000452349
1.46087e-07
1.98254e-08
0.000452378
7.97595e-08
-1.67731e-10
0.000452338
1.29906e-07
-1.71287e-08
0.000452321
1.57463e-07
1.8929e-08
0.000452358
-4.78284e-08
9.90955e-09
0.000452324
1.05282e-07
1.65685e-08
0.000452365
1.16285e-08
-6.35128e-09
0.000452343
7.62038e-08
2.17888e-08
0.000452344
9.03577e-08
-3.2695e-10
0.000452384
-7.02169e-08
2.1152e-08
0.000452362
1.19948e-07
1.80475e-08
0.000452383
4.94757e-09
2.46725e-08
0.00045233
1.94413e-07
1.22971e-08
0.000452333
6.19119e-08
4.25968e-08
0.000452331
8.21099e-08
2.25309e-08
0.00045234
8.1491e-08
2.72681e-08
0.000452342
1.33116e-08
3.04521e-08
0.000452295
2.17314e-07
1.21772e-08
0.000452319
2.0071e-09
3.69763e-09
0.000452315
-2.49922e-08
1.17955e-08
0.000452315
8.15607e-08
-2.34745e-08
0.000452352
-1.21189e-07
-8.90237e-09
0.000452296
7.44137e-08
-2.00687e-08
0.000452326
-5.74878e-08
-2.4068e-08
0.000452359
-1.73288e-07
-2.33535e-08
0.000452348
-7.2408e-08
-2.54808e-09
0.000452386
-7.56945e-08
-2.30605e-08
0.000452374
-1.11653e-07
-1.40835e-08
0.000452338
9.84532e-09
1.91258e-08
0.000452408
-1.71855e-07
-1.62554e-09
0.000452395
-8.77764e-08
-1.01847e-08
0.000452394
-9.37169e-09
2.40622e-08
0.000452396
-8.02585e-08
7.34915e-09
0.000452385
4.50889e-08
1.33577e-08
-9.28256e-08
1.61071e-08
0.000411602
8.39034e-08
3.38721e-08
0.000411635
6.06507e-08
3.79732e-08
0.000411575
1.64606e-07
8.71253e-09
0.000411563
2.01684e-07
5.83632e-08
0.000411596
-2.60261e-08
-3.75321e-09
0.000411559
1.99125e-07
3.3544e-08
0.000411599
8.5265e-08
-5.32682e-09
0.000411524
2.27242e-07
-1.62741e-08
0.000411527
1.77243e-07
2.46009e-08
0.000411562
-6.8232e-08
7.25512e-09
0.00041153
1.44586e-07
1.97241e-08
0.000411589
-1.32252e-08
-1.34926e-08
0.000411536
1.50437e-07
2.95546e-08
0.000411554
8.60767e-08
-6.02218e-09
0.000411594
-9.89682e-08
2.33368e-08
0.000411581
1.42203e-07
1.35557e-08
0.000411608
-2.13375e-08
2.43975e-08
0.000411526
3.00675e-07
6.3773e-09
0.000411544
3.39653e-08
5.28426e-08
0.000411536
1.12612e-07
1.92166e-08
0.000411558
7.41449e-08
3.41202e-08
0.000411553
2.26281e-08
3.28684e-08
0.000411491
3.11819e-07
1.47102e-08
0.000411525
-3.66313e-08
-1.32653e-10
0.000411509
-3.29158e-09
1.23434e-08
0.000411532
7.20664e-08
-2.94674e-08
0.000411565
-1.64782e-07
-1.54648e-08
0.000411482
1.61465e-07
-2.78275e-08
0.000411538
-1.23547e-07
-2.52717e-08
0.000411561
-2.09001e-07
-3.29697e-08
0.00041156
-9.18878e-08
-1.46514e-09
0.000411611
-1.14921e-07
-3.08433e-08
0.000411567
-8.56167e-08
-1.48818e-08
0.000411542
1.79764e-08
2.7197e-08
0.000411628
-2.48604e-07
-6.44559e-09
0.000411601
-7.16933e-08
-1.33987e-08
0.000411617
-2.13316e-08
2.85294e-08
0.000411599
-7.52268e-08
4.08742e-09
0.000411595
6.32874e-08
2.25192e-08
-1.36467e-07
1.65775e-08
0.000374483
1.14744e-07
4.23726e-08
0.000374524
6.21944e-08
4.56869e-08
0.000374424
2.80891e-07
2.11409e-08
0.000374432
2.30976e-07
8.04542e-08
0.00037446
-3.32392e-08
-9.73732e-09
0.000374439
2.4148e-07
5.22878e-08
0.000374479
1.00838e-07
-1.41466e-08
0.000374367
3.63304e-07
-1.00031e-08
0.000374397
1.78724e-07
2.90282e-08
0.000374418
-7.13928e-08
6.71925e-09
0.000374407
1.67099e-07
2.48442e-08
0.000374472
-3.23029e-08
-2.22542e-08
0.000374385
2.61499e-07
3.8718e-08
0.000374425
6.41247e-08
-1.29706e-08
0.000374458
-1.15419e-07
2.67284e-08
0.00037447
1.3773e-07
6.28129e-09
0.000374489
-3.71286e-08
2.4013e-08
0.00037438
4.41407e-07
-3.60992e-09
0.000374417
-1.71053e-08
6.4589e-08
0.000374397
1.67149e-07
1.15533e-08
0.000374444
4.2288e-08
4.19254e-08
0.000374423
5.62674e-08
3.4314e-08
0.000374351
4.23643e-07
1.69045e-08
0.000374386
-7.94429e-08
-4.96247e-09
0.000374362
3.49275e-08
1.27862e-08
0.000374421
2.36008e-08
-3.71446e-08
0.000374431
-1.84305e-07
-2.34617e-08
0.000374331
2.68597e-07
-3.63408e-08
0.000374409
-2.1936e-07
-2.43236e-08
0.000374417
-2.27166e-07
-4.45477e-08
0.000374448
-1.50618e-07
-2.85681e-10
0.000374494
-1.46608e-07
-3.98655e-08
0.000374416
-2.99687e-08
-1.16107e-08
0.000374414
4.5159e-09
3.57776e-08
0.000374502
-3.2761e-07
-1.49138e-08
0.000374471
-5.35289e-08
-1.43923e-08
0.000374503
-4.26353e-08
3.10445e-08
0.000374456
-4.81552e-08
-2.29e-09
0.000374469
6.81375e-08
3.55482e-08
-1.79069e-07
1.56332e-08
0.00034071
1.2021e-07
5.26134e-08
0.000340743
7.84654e-08
5.30026e-08
0.000340605
4.34172e-07
4.08667e-08
0.000340636
2.49635e-07
1.06154e-07
0.000340653
-2.77645e-08
-1.4051e-08
0.000340665
2.54167e-07
7.57083e-08
0.000340688
1.43057e-07
-2.52859e-08
0.000340545
5.31526e-07
3.50291e-09
0.000340599
1.6691e-07
3.09096e-08
0.000340602
-5.40987e-08
1.16056e-08
0.000340631
1.51742e-07
3.12425e-08
0.000340684
-2.58964e-08
-3.09271e-08
0.000340568
4.04335e-07
4.92445e-08
0.000340626
3.09835e-08
-1.93345e-08
0.000340651
-1.21307e-07
3.17069e-08
0.000340707
8.49514e-08
-3.76028e-09
0.000340698
-2.33208e-08
2.39948e-08
0.000340573
6.07201e-07
-1.76542e-08
0.000340619
-8.32396e-08
7.78315e-08
0.000340592
2.45816e-07
-1.286e-09
0.000340672
-2.59819e-08
5.11474e-08
0.000340625
1.27652e-07
3.48599e-08
0.000340551
5.46585e-07
1.86258e-08
0.000340571
-1.09028e-07
-1.16146e-08
0.000340555
7.51192e-08
1.33141e-08
0.000340654
-7.19323e-08
-4.64831e-08
0.000340624
-1.62801e-07
-3.25593e-08
0.000340524
3.79897e-07
-4.52451e-08
0.000340606
-3.25837e-07
-2.04188e-08
0.000340606
-2.36022e-07
-5.82662e-08
0.000340686
-2.68441e-07
5.02055e-10
0.000340705
-1.46908e-07
-4.88323e-08
0.0003406
4.67302e-08
-3.27402e-09
0.000340622
-2.96148e-08
4.36706e-08
0.000340704
-4.00264e-07
-2.5807e-08
0.000340685
-5.01997e-08
-1.2956e-08
0.000340722
-6.25861e-08
2.99132e-08
0.000340644
1.83077e-09
-1.11073e-08
0.000340681
5.53651e-08
5.30148e-08
-2.13912e-07
1.33313e-08
0.000309985
8.05691e-08
6.41069e-08
0.000309993
1.24376e-07
6.03377e-08
0.000309827
6.16379e-07
7.00702e-08
0.00030987
2.69521e-07
1.35836e-07
0.000309882
-1.7237e-08
-1.40414e-08
0.00030994
2.20659e-07
1.02356e-07
0.000309928
2.25628e-07
-3.52405e-08
0.000309766
7.20418e-07
2.55411e-08
0.000309829
1.58756e-07
3.05662e-08
0.000309822
-2.8157e-08
2.59088e-08
0.000309905
8.23999e-08
3.86825e-08
0.000309925
2.37004e-08
-3.60896e-08
0.000309794
5.68873e-07
6.1201e-08
0.000309854
3.7584e-09
-2.26768e-08
0.000309881
-1.33202e-07
3.97918e-08
0.000309991
-2.65858e-08
-1.70198e-08
0.000309936
3.51361e-08
2.5671e-08
0.000309811
7.85988e-07
-3.54181e-08
0.000309848
-1.45116e-07
9.34234e-08
0.000309827
3.30978e-07
-1.48225e-08
0.000309942
-1.36524e-07
6.23555e-08
0.000309863
2.45762e-07
3.53962e-08
0.000309791
6.7688e-07
2.07855e-08
0.00030978
-1.03928e-07
-1.94676e-08
0.000309795
9.07457e-08
1.4282e-08
0.000309924
-2.09794e-07
-5.75455e-08
0.000309852
-9.69849e-08
-4.20691e-08
0.000309765
4.84684e-07
-5.39753e-08
0.000309822
-4.11986e-07
-1.31934e-08
0.000309841
-2.6178e-07
-7.48894e-08
0.000309971
-4.53287e-07
9.98709e-10
0.000309943
-9.76874e-08
-5.56003e-08
0.000309829
1.28528e-07
1.07413e-08
0.00030986
-6.72671e-08
5.0844e-08
0.00030994
-4.71753e-07
-3.80863e-08
0.000309947
-7.77153e-08
-9.89885e-09
0.000309972
-6.67869e-08
2.37268e-08
0.00030987
6.92719e-08
-2.07393e-08
0.000309927
2.92318e-08
7.60472e-08
-2.45354e-07
1.3006e-08
0.000282034
-2.37529e-08
7.67838e-08
0.000282002
2.07911e-07
7.01052e-08
0.00028182
8.19788e-07
1.10804e-07
0.000281857
3.11438e-07
1.71732e-07
0.00028188
-2.24209e-08
-6.34936e-09
0.000281987
1.28813e-07
1.32465e-07
0.000281929
3.49559e-07
-3.79976e-08
0.000281759
9.21524e-07
5.59942e-08
0.000281809
1.78254e-07
3.11938e-08
0.000281814
-2.02999e-08
5.31253e-08
0.000281952
-4.96698e-08
4.77961e-08
0.000281927
1.23535e-07
-3.20343e-08
0.00028179
7.47697e-07
7.45532e-08
0.000281831
4.29673e-09
-1.86825e-08
0.000281882
-1.81455e-07
5.25633e-08
0.000282045
-2.04012e-07
-3.01039e-08
0.000281938
1.38548e-07
3.19421e-08
0.000281822
9.72441e-07
-5.54802e-08
0.000281826
-1.79179e-07
1.12498e-07
0.000281838
3.92722e-07
-2.95791e-08
0.000281979
-2.8748e-07
7.65127e-08
0.000281871
4.08612e-07
3.83136e-08
0.000281796
8.22377e-07
2.45365e-08
0.000281744
-5.03037e-08
-2.70539e-08
0.000281815
4.98319e-08
1.65825e-08
0.000281956
-3.78433e-07
-6.91124e-08
0.000281853
-2.37062e-09
-4.96139e-08
0.000281774
5.91462e-07
-6.11923e-08
0.000281785
-4.50171e-07
-2.62217e-09
0.000281856
-3.43343e-07
-9.33356e-08
0.00028202
-6.98102e-07
1.89526e-09
0.000281944
-4.52874e-10
-5.68326e-08
0.000281832
2.06468e-07
3.17814e-08
0.00028185
-8.49481e-08
5.98166e-08
0.000281946
-5.64975e-07
-4.79282e-08
0.000281983
-1.44943e-07
-5.79887e-09
0.00028198
-4.64737e-08
1.50863e-08
0.000281864
1.45926e-07
-2.94849e-08
0.00028193
1.45198e-09
1.06147e-07
-2.92073e-07
1.90127e-08
0.000256604
-2.13515e-07
8.95167e-08
0.000256528
3.22502e-07
8.64697e-08
0.000256336
1.04531e-06
1.65067e-07
0.000256348
3.96475e-07
2.17902e-07
0.000256402
-7.69937e-08
1.58733e-08
0.000256552
-2.89395e-08
1.65963e-07
0.000256451
4.93916e-07
-2.45033e-08
0.000256275
1.13703e-06
9.56137e-08
0.000256291
2.46628e-07
3.88824e-08
0.000256333
-6.59082e-08
9.75751e-08
0.000256516
-2.48286e-07
6.20073e-08
0.000256447
2.5901e-07
-1.00657e-08
0.000256307
9.4468e-07
9.1282e-08
0.00025631
5.04804e-08
-2.94562e-09
0.00025641
-3.05153e-07
7.34717e-08
0.000256613
-4.48142e-07
-3.97044e-08
0.000256463
2.70114e-07
4.68788e-08
0.000256354
1.17721e-06
-7.49575e-08
0.000256309
-1.71276e-07
1.37868e-07
0.000256382
3.91663e-07
-4.06689e-08
0.00025653
-4.73886e-07
9.44832e-08
0.000256406
6.00991e-07
4.76737e-08
0.000256311
1.00606e-06
3.17557e-08
0.000256219
5.6666e-08
-3.23033e-08
0.00025636
-7.60023e-08
2.26044e-08
0.000256501
-5.73713e-07
-7.93727e-08
0.000256386
9.26236e-08
-5.03365e-08
0.000256293
7.33486e-07
-6.56247e-08
0.000256255
-4.35666e-07
1.91202e-08
0.000256405
-5.18491e-07
-1.11176e-07
0.00025658
-9.94007e-07
3.81905e-09
0.000256471
1.20534e-07
-4.72086e-08
0.000256355
2.89584e-07
6.11347e-08
0.000256344
-6.53701e-08
7.35417e-08
0.000256478
-7.15153e-07
-5.06511e-08
0.000256538
-2.54307e-07
-9.47004e-10
0.000256503
-9.42496e-09
7.24499e-09
0.000256379
2.31694e-07
-3.74406e-08
0.00025644
-1.56176e-08
1.47393e-07
-3.85152e-07
3.79001e-08
0.000233464
-5.10647e-07
1.01108e-07
0.000233352
4.4689e-07
1.15179e-07
0.000233144
1.30882e-06
2.35574e-07
0.000233118
5.37767e-07
2.8191e-07
0.000233225
-2.20411e-07
5.76273e-08
0.000233406
-2.6701e-07
2.05879e-07
0.000233274
6.20583e-07
1.28322e-08
0.000233081
1.38469e-06
1.45373e-07
0.000233054
3.7082e-07
6.22937e-08
0.000233154
-2.02364e-07
1.63711e-07
0.000233369
-5.20928e-07
8.52974e-08
0.000233269
4.04449e-07
3.23113e-08
0.000233112
1.17968e-06
1.15232e-07
0.000233069
1.37952e-07
4.10496e-08
0.000233239
-5.45536e-07
1.06761e-07
0.00023347
-7.65335e-07
-4.2491e-08
0.000233292
4.01382e-07
7.59751e-08
0.000233168
1.43314e-06
-8.99647e-08
0.000233077
-1.3086e-07
1.74413e-07
0.000233227
2.89812e-07
-4.09738e-08
0.00023337
-7.00996e-07
1.15845e-07
0.000233246
8.00581e-07
6.82922e-08
0.000233107
1.26354e-06
4.4382e-08
0.000232985
2.12781e-07
-3.11467e-08
0.000233198
-3.07663e-07
3.46047e-08
0.000233336
-8.09636e-07
-8.70928e-08
0.000233227
1.56857e-07
-3.8383e-08
0.000233091
9.53572e-07
-6.38044e-08
0.000233015
-3.83345e-07
5.20147e-08
0.000233252
-8.15713e-07
-1.25783e-07
0.000233424
-1.34818e-06
6.64586e-09
0.000233304
2.26903e-07
-1.97149e-08
0.00023316
4.09373e-07
1.01252e-07
0.000233121
-1.23366e-08
9.80611e-08
0.00023331
-9.58722e-07
-4.35806e-08
0.000233383
-4.09532e-07
3.15982e-09
0.000233322
2.57294e-08
6.70589e-09
0.000233186
3.38622e-07
-4.21533e-08
0.000233231
-1.84022e-08
2.07358e-07
-5.61981e-07
7.67802e-08
0.000212411
-9.46707e-07
1.06344e-07
0.000212274
5.52994e-07
1.60543e-07
0.000212034
1.6412e-06
3.27632e-07
0.000211967
7.33351e-07
3.74522e-07
0.000212139
-4.91729e-07
1.19205e-07
0.000212344
-6.12775e-07
2.50679e-07
0.000212197
6.90104e-07
7.3347e-08
0.000211967
1.69502e-06
2.11499e-07
0.0002119
5.43314e-07
1.13334e-07
0.000212067
-4.62965e-07
2.54358e-07
0.000212304
-8.91247e-07
1.18628e-07
0.000212189
5.27226e-07
1.03296e-07
0.000211994
1.48315e-06
1.57027e-07
0.00021191
2.51116e-07
1.2054e-07
0.000212158
-9.39741e-07
1.5488e-07
0.000212414
-1.1763e-06
-3.96857e-08
0.000212221
5.07595e-07
1.22894e-07
0.000212057
1.78175e-06
-9.09897e-08
0.000211932
-8.16258e-08
2.32216e-07
0.00021216
4.80372e-08
-2.59059e-08
0.000212297
-9.98283e-07
1.38012e-07
0.000212182
9.90336e-07
1.043e-07
0.000211978
1.6346e-06
6.83263e-08
0.00021184
3.98804e-07
-1.51059e-08
0.000212115
-6.69942e-07
5.30256e-08
0.000212265
-1.12357e-06
-9.49408e-08
0.000212163
1.6938e-07
-7.35603e-09
0.000211962
1.2935e-06
-4.64888e-08
0.000211864
-3.11646e-07
1.07571e-07
0.000212184
-1.2597e-06
-1.3619e-07
0.000212358
-1.79579e-06
4.1921e-09
0.000212241
2.90327e-07
2.45312e-08
0.00021204
6.07949e-07
1.59064e-07
0.000211985
5.44817e-08
1.42353e-07
0.000212233
-1.32999e-06
-2.62014e-08
0.000212313
-6.31432e-07
5.45108e-09
0.000212234
3.05483e-08
1.93123e-08
0.000212075
4.88637e-07
-3.44141e-08
0.000212104
-1.67111e-08
3.01473e-07
-8.63742e-07
1.39267e-07
0.000193267
-1.57603e-06
7.71157e-08
0.000193111
6.14195e-07
2.1614e-07
0.000192827
2.08211e-06
4.6089e-07
0.00019273
9.69293e-07
5.21859e-07
0.00019296
-9.30704e-07
1.88885e-07
0.000193187
-1.12758e-06
2.77235e-07
0.000193038
6.59587e-07
1.60622e-07
0.000192755
2.10525e-06
3.21137e-07
0.000192665
7.41416e-07
2.27854e-07
0.000192891
-8.74793e-07
3.59187e-07
0.000193147
-1.39326e-06
1.37338e-07
0.000193021
6.04168e-07
2.00116e-07
0.000192772
1.89185e-06
2.44801e-07
0.000192666
3.55602e-07
2.69406e-07
0.000192989
-1.52256e-06
2.10578e-07
0.000193272
-1.71311e-06
-5.90157e-08
0.000193062
5.84722e-07
1.80186e-07
0.000192844
2.2662e-06
-5.21923e-08
0.000192708
-6.53167e-08
3.43459e-07
0.000192996
-3.65694e-07
-1.36325e-09
0.00019314
-1.41319e-06
1.38594e-07
0.000193026
1.16973e-06
1.4565e-07
0.000192745
2.15983e-06
1.25609e-07
0.000192609
5.87704e-07
5.45312e-08
0.000192932
-1.19386e-06
6.92944e-08
0.000193106
-1.56585e-06
-1.33221e-07
0.000193006
1.31707e-07
2.49445e-08
0.000192734
1.79548e-06
1.90744e-08
0.00019263
-2.4672e-07
2.22511e-07
0.000193019
-1.87297e-06
-1.52063e-07
0.000193208
-2.38798e-06
-4.46256e-08
0.00019309
3.05999e-07
7.72131e-08
0.000192816
9.28502e-07
2.62224e-07
0.000192768
1.02903e-07
2.36362e-07
0.000193064
-1.86124e-06
-9.79794e-09
0.000193153
-9.63505e-07
-2.29724e-08
0.000193057
-2.49049e-08
4.87179e-08
0.00019287
7.02901e-07
2.61024e-08
0.000192889
-3.17215e-08
4.70686e-07
-1.32936e-06
2.15569e-07
0.000175859
-2.46725e-06
-1.05179e-07
0.000175695
5.8191e-07
2.43101e-07
0.000175384
2.67032e-06
7.10181e-07
0.00017528
1.2289e-06
8.04267e-07
0.000175528
-1.5699e-06
2.18568e-07
0.000175765
-1.88658e-06
1.81083e-07
0.000175626
4.80638e-07
2.30791e-07
0.000175301
2.65727e-06
5.67135e-07
0.00017522
9.40048e-07
5.13543e-07
0.000175472
-1.44097e-06
4.30644e-07
0.000175726
-2.08941e-06
3.65468e-08
0.00017559
6.23478e-07
2.80718e-07
0.000175301
2.44023e-06
4.63431e-07
0.000175212
4.09519e-07
5.91265e-07
0.00017558
-2.29819e-06
2.45363e-07
0.000175882
-2.41655e-06
-2.032e-07
0.000175652
6.2844e-07
2.02201e-07
0.000175393
2.90195e-06
1.28052e-07
0.000175282
-1.38911e-07
6.12597e-07
0.000175585
-9.66487e-07
-2.49591e-10
0.000175735
-2.02834e-06
3.53271e-08
0.00017561
1.33307e-06
1.45922e-07
0.000175264
2.87046e-06
2.93745e-07
0.00017516
7.39165e-07
2.80209e-07
0.000175496
-1.89831e-06
4.97122e-08
0.000175685
-2.2038e-06
-3.16859e-07
0.000175585
3.46614e-08
2.24229e-08
0.000175271
2.47702e-06
2.56829e-07
0.00017519
-2.21583e-07
5.20787e-07
0.000175609
-2.65697e-06
-2.08365e-07
0.000175808
-3.18802e-06
-2.62055e-07
0.000175681
2.73636e-07
1.08191e-07
0.000175347
1.41791e-06
5.13944e-07
0.000175331
1.00727e-07
4.83982e-07
0.000175643
-2.57462e-06
-4.5029e-08
0.000175738
-1.47912e-06
-1.98707e-07
0.000175635
-1.88568e-07
8.11379e-08
0.000175435
9.93467e-07
2.79186e-07
0.000175462
-7.75574e-08
8.42261e-07
-1.97731e-06
2.54706e-07
0.000159895
-3.73589e-06
-7.32268e-07
0.00015978
3.38624e-07
1.78671e-07
0.000159534
3.42101e-06
1.29993e-06
0.000159444
1.53505e-06
1.40661e-06
0.000159595
-2.40152e-06
6.72097e-08
0.000159799
-3.0729e-06
-3.14138e-07
0.000159732
3.57976e-08
2.09522e-07
0.000159441
3.39542e-06
1.20266e-06
0.000159383
1.16853e-06
1.21143e-06
0.000159571
-2.11993e-06
3.30228e-07
0.000159779
-3.05847e-06
-4.99778e-07
0.000159676
5.15796e-07
2.67534e-07
0.000159436
3.14241e-06
1.02626e-06
0.000159387
4.20352e-07
1.31294e-06
0.000159705
-3.19949e-06
1.56857e-07
0.000159986
-3.38211e-06
-7.19044e-07
0.000159797
5.57825e-07
1.10093e-07
0.000159578
3.64173e-06
7.09357e-07
0.000159494
-3.11708e-07
1.26768e-06
0.000159709
-1.71257e-06
-1.57428e-07
0.00015983
-2.93256e-06
-4.3707e-07
0.000159731
1.36809e-06
2.68846e-08
0.000159391
3.75215e-06
7.76945e-07
0.000159344
8.46798e-07
8.8287e-07
0.000159601
-2.75251e-06
-1.05197e-07
0.000159746
-3.15128e-06
-9.12647e-07
0.000159702
-2.00411e-07
-9.47309e-08
0.00015945
3.32936e-06
9.33978e-07
0.000159395
-2.07859e-07
1.25363e-06
0.000159725
-3.5359e-06
-4.2092e-07
0.000159887
-4.29801e-06
-9.21566e-07
0.000159797
1.28561e-07
6.73392e-08
0.000159481
2.11608e-06
1.18247e-06
0.000159478
8.37235e-08
1.10565e-06
0.000159718
-3.44888e-06
-2.83357e-07
0.000159828
-2.3604e-06
-7.74419e-07
0.000159781
-5.89627e-07
9.51242e-08
0.000159628
1.38574e-06
1.04709e-06
0.00015964
-9.23924e-08
1.67917e-06
-2.77879e-06
8.04132e-08
0.000144669
-5.57308e-06
-2.05357e-06
0.00014477
-2.92814e-07
1.74206e-07
0.000144809
4.27741e-06
2.66726e-06
0.0001447
1.89883e-06
2.43427e-06
0.000144553
-3.47683e-06
-5.78407e-07
0.000144605
-4.89465e-06
-1.49763e-06
0.000144795
-8.15909e-07
2.13663e-07
0.000144723
4.3255e-06
2.67917e-06
0.000144605
1.50809e-06
2.47637e-06
0.000144606
-2.9049e-06
-3.16809e-07
0.000144714
-4.46309e-06
-1.76685e-06
0.000144821
1.46677e-07
2.50886e-07
0.000144821
3.93467e-06
2.30421e-06
0.000144715
4.79135e-07
2.57654e-06
0.000144805
-4.14513e-06
-3.92746e-07
0.000144971
-4.77898e-06
-1.89592e-06
0.000145051
1.32059e-07
5.97527e-09
0.000145023
4.37087e-06
2.13675e-06
0.000144827
-4.53199e-07
2.42772e-06
0.00014481
-2.57159e-06
-8.32383e-07
0.000144806
-4.26173e-06
-1.53599e-06
0.000144914
1.12629e-06
-1.75833e-07
0.000144768
4.68424e-06
1.95346e-06
0.000144732
9.67754e-07
2.01689e-06
0.000144761
-3.68405e-06
-7.01374e-07
0.000144731
-4.53899e-06
-2.19113e-06
0.000144913
-7.32711e-07
-1.87144e-07
0.000144923
4.27071e-06
2.51786e-06
0.00014479
-9.13236e-08
2.52713e-06
0.000144805
-4.41959e-06
-1.13835e-06
0.0001448
-5.82622e-06
-2.27554e-06
0.000144931
-2.87288e-07
1.17974e-07
0.000144807
2.98992e-06
2.71103e-06
0.000144667
1.52123e-07
2.20997e-06
0.000144696
-4.48415e-06
-1.0722e-06
0.000144844
-3.88106e-06
-1.97151e-06
0.000145023
-1.41368e-06
2.72896e-07
0.000145007
1.8994e-06
2.81128e-06
0.000144863
2.20696e-08
3.07529e-06
-3.78685e-06
-7.48732e-07
0.000129146
-7.83146e-06
-3.52592e-06
0.000129666
-1.09866e-06
1.04973e-06
0.000130268
4.94137e-06
5.05706e-06
0.000130106
1.86782e-06
3.25709e-06
0.000129477
-5.07878e-06
-2.1418e-06
0.000129155
-7.18066e-06
-2.91954e-06
0.000129824
-1.75268e-06
9.76416e-07
0.000130208
5.2171e-06
5.22574e-06
0.000129979
1.57263e-06
3.63901e-06
0.000129785
-4.12786e-06
-2.05109e-06
0.000129685
-6.19382e-06
-3.41487e-06
0.000130212
-2.92003e-07
8.82785e-07
0.000130646
4.56568e-06
4.47567e-06
0.000130325
3.70348e-07
3.74624e-06
0.000130047
-5.32094e-06
-1.95956e-06
0.000129878
-6.49973e-06
-3.3956e-06
0.000130482
-5.38255e-07
5.87787e-07
0.000130769
4.87523e-06
4.64768e-06
0.000130302
-6.69149e-07
3.36488e-06
0.000129997
-3.76968e-06
-2.53756e-06
0.000129678
-5.89693e-06
-2.97414e-06
0.000130273
6.09822e-07
2.10162e-07
0.000130587
5.38092e-06
4.09233e-06
0.000130488
9.11518e-07
3.12753e-06
0.000130153
-4.80875e-06
-2.18027e-06
0.000129743
-6.20238e-06
-3.7629e-06
0.000130364
-1.37789e-06
4.99745e-07
0.000130813
5.05857e-06
5.2092e-06
0.000130487
-1.04125e-07
3.54697e-06
0.000129992
-5.50277e-06
-2.87495e-06
0.000129591
-7.58304e-06
-3.81477e-06
0.000130172
-7.8408e-07
1.06279e-06
0.000130414
3.74641e-06
5.2503e-06
0.000130007
1.20871e-08
3.09115e-06
0.000129765
-5.89609e-06
-2.81768e-06
0.000129839
-5.94582e-06
-3.26288e-06
0.000130354
-2.41301e-06
1.35141e-06
0.000130568
2.36472e-06
5.63072e-06
0.000130175
-1.18993e-07
4.10643e-06
-5.36587e-06
-2.79003e-06
0.000112953
-9.56652e-06
-3.48206e-06
0.000114024
-1.62195e-06
3.54424e-06
0.000115332
4.63146e-06
7.35806e-06
0.000115154
5.83312e-07
2.45814e-06
0.000113939
-7.17701e-06
-4.33406e-06
0.000113103
-8.9039e-06
-3.17963e-06
0.000114331
-2.16065e-06
3.22071e-06
0.000115312
5.26334e-06
7.72938e-06
0.000115176
3.89957e-07
3.06931e-06
0.000114816
-5.89066e-06
-4.69829e-06
0.000114301
-7.33848e-06
-3.96813e-06
0.000115291
-4.02601e-07
2.88344e-06
0.000116168
4.41495e-06
6.58653e-06
0.000115676
-6.29978e-07
3.31408e-06
0.00011496
-6.81494e-06
-4.41886e-06
0.000114213
-7.70004e-06
-3.74137e-06
0.000115344
-9.52926e-07
2.71784e-06
0.000115964
4.59995e-06
7.12771e-06
0.000115385
-1.6663e-06
2.48556e-06
0.000114776
-5.41662e-06
-5.00389e-06
0.000113999
-7.10894e-06
-3.3918e-06
0.000115253
2.49156e-07
1.98791e-06
0.000116146
5.28438e-06
6.42265e-06
0.000116003
2.34523e-08
2.82464e-06
0.00011519
-6.17514e-06
-4.37434e-06
0.000114274
-7.36978e-06
-4.18246e-06
0.000115393
-1.62207e-06
2.78899e-06
0.000116303
5.02634e-06
7.83059e-06
0.000115871
-1.02508e-06
2.65904e-06
0.000114793
-6.92821e-06
-5.32821e-06
0.000113866
-8.78243e-06
-3.93951e-06
0.000114955
-1.04292e-06
3.6409e-06
0.000115612
3.63139e-06
7.60076e-06
0.000115123
-1.11058e-06
2.28153e-06
0.00011459
-7.63509e-06
-5.10065e-06
0.00011426
-7.57545e-06
-3.16355e-06
0.000115031
-3.04726e-06
3.85729e-06
0.000115579
2.10151e-06
8.09042e-06
0.000115107
-1.42499e-06
3.05379e-06
-7.55422e-06
-5.55805e-06
9.6759e-05
-9.98918e-06
-1.02555e-06
9.85401e-05
-2.12987e-06
6.32136e-06
0.000100441
2.70653e-06
7.36748e-06
0.000100106
-1.93401e-06
-2.69491e-07
9.82402e-05
-8.65934e-06
-5.6723e-06
9.7106e-05
-9.16732e-06
-1.39303e-06
9.89505e-05
-2.28218e-06
5.81985e-06
0.00010053
3.64533e-06
7.89079e-06
0.000100567
-2.09543e-06
1.62521e-07
9.98142e-05
-7.11242e-06
-6.59179e-06
9.88842e-05
-7.07498e-06
-2.26887e-06
0.00010035
-4.20148e-07
5.29737e-06
0.000101531
2.90051e-06
6.67346e-06
0.000100901
-2.59239e-06
7.68052e-07
9.96029e-05
-7.81043e-06
-6.15326e-06
9.83884e-05
-7.65458e-06
-1.80872e-06
0.000100019
-1.23836e-06
5.33155e-06
0.000100949
2.93977e-06
7.28625e-06
0.000100386
-3.70028e-06
-5.45188e-07
9.93178e-05
-6.66592e-06
-6.50491e-06
9.83069e-05
-7.25181e-06
-1.67478e-06
0.000100273
-7.90067e-08
4.45701e-06
0.000101597
3.8802e-06
6.95682e-06
0.000101331
-1.79353e-06
5.13269e-07
9.99023e-05
-7.08762e-06
-5.83808e-06
9.86817e-05
-7.38913e-06
-2.36274e-06
0.000100307
-1.67042e-06
5.63892e-06
0.000101587
3.50142e-06
8.00708e-06
0.000101052
-3.0331e-06
-4.58286e-07
9.93328e-05
-7.91123e-06
-6.72406e-06
9.81104e-05
-8.80349e-06
-1.66387e-06
9.97145e-05
-1.31447e-06
6.54997e-06
0.00010076
2.04162e-06
7.56034e-06
0.000100323
-3.30677e-06
-4.51973e-07
9.93074e-05
-8.69376e-06
-6.27984e-06
9.84816e-05
-7.95439e-06
-9.38899e-07
9.95494e-05
-3.45191e-06
6.40886e-06
0.000100478
4.87116e-07
7.95988e-06
9.99133e-05
-3.94488e-06
-2.18397e-07
-9.2222e-06
-7.10128e-06
8.15741e-05
-9.27535e-06
2.2445e-06
8.40875e-05
-3.17373e-06
6.96793e-06
8.60844e-05
-1.22997e-07
4.53771e-06
8.52882e-05
-4.11574e-06
-3.19676e-06
8.29659e-05
-8.54478e-06
-4.967e-06
8.20807e-05
-8.23426e-06
1.26169e-06
8.45664e-05
-2.87757e-06
6.51468e-06
8.64124e-05
8.62395e-07
4.98165e-06
8.62811e-05
-4.38732e-06