# y+ ()       
# Time        	patch         	min           	max           	average       
20            	bottomWall	1.613321e+00	4.594651e+00	2.626493e+00
20            	topWall	1.622302e+00	3.984215e+00	2.498671e+00
