/*--------------------------------*- C++ -*----------------------------------*\
  =========                 |
  \\      /  F ield         | OpenFOAM: The Open Source CFD Toolbox
   \\    /   O peration     | Website:  https://openfoam.org
    \\  /    A nd           | Version:  10
     \\/     M anipulation  |
\*---------------------------------------------------------------------------*/
FoamFile
{
    format      ascii;
    class       surfaceScalarField;
    location    "22.5";
    object      phi;
}
// * * * * * * * * * * * * * * * * * * * * * * * * * * * * * * * * * * * * * //

dimensions      [0 3 -1 0 0 0 0];

internalField   nonuniform List<scalar> 
74080
(
0.00527994
-5.38517e-08
4.15165e-08
0.00527994
6.51183e-08
5.41981e-09
0.00527992
-3.22144e-08
-5.27161e-09
0.00527994
3.14958e-08
6.04714e-09
0.00527993
-1.54923e-08
3.77558e-08
0.00527996
-5.09268e-08
-7.22445e-08
0.00527995
6.45957e-08
9.07138e-08
0.00527993
-5.83284e-08
-5.62615e-08
0.00527992
1.07189e-07
3.43283e-08
0.00527988
-2.08125e-08
4.79728e-08
0.00527991
-2.74482e-09
-7.56939e-08
0.0052799
-9.61845e-09
8.49842e-08
0.00527995
-3.1147e-08
-6.73706e-08
0.00527989
3.50797e-08
4.12291e-08
0.00527993
-2.69968e-08
5.07607e-09
0.00527994
-1.28875e-08
-3.5316e-08
0.00527994
-3.08951e-08
4.046e-08
0.00527997
8.12569e-09
-3.45547e-08
0.0052799
6.48505e-08
3.2832e-08
0.00527992
-1.63184e-08
1.23137e-08
0.00527992
1.45479e-09
-2.07964e-08
0.00527991
1.33016e-08
1.22901e-08
0.00527989
2.58627e-08
1.9217e-08
0.00527992
-3.7204e-08
-2.4216e-08
0.00527991
1.7178e-08
2.24295e-08
0.00527992
-1.55796e-08
-2.66971e-08
0.0052799
3.29019e-08
4.3782e-08
0.0052799
2.76587e-09
-3.18496e-08
0.00527992
-3.10701e-08
1.69418e-08
0.00527988
6.72572e-08
1.98555e-08
0.00527993
-1.0452e-07
-5.09333e-08
0.00527995
2.85842e-08
5.92076e-08
0.00527994
-3.89141e-08
-7.71486e-08
0.00527998
-1.4788e-08
8.37304e-08
0.00527995
2.4222e-08
-7.31298e-08
0.00527994
1.23015e-09
6.28335e-08
0.00527994
4.26517e-08
-4.25366e-09
0.00527992
-2.25114e-08
-2.37092e-08
0.00527994
-2.93499e-09
6.05437e-08
1.84685e-08
-6.07789e-08
0.00479964
-5.02374e-08
3.97481e-08
0.00479967
4.44311e-08
3.65213e-09
0.00479964
-2.13155e-08
-6.04169e-11
0.00479967
1.14262e-08
-6.03883e-09
0.00479965
4.6403e-11
5.01502e-08
0.00479963
-2.11026e-08
-7.45511e-08
0.00479967
2.61549e-08
8.5369e-08
0.00479962
-1.63888e-08
-4.83681e-08
0.00479969
2.62435e-08
2.45656e-08
0.00479965
4.05907e-09
4.64841e-08
0.00479966
-5.27839e-09
-7.3679e-08
0.00479965
2.67242e-09
8.65532e-08
0.00479965
-1.95079e-08
-7.1309e-08
0.00479965
2.85531e-08
4.37733e-08
0.00479966
-2.87843e-08
5.89224e-09
0.00479965
5.20759e-09
-5.25564e-08
0.00479962
5.0991e-09
8.24076e-08
0.00479965
-2.36103e-08
-8.7211e-08
0.00479966
4.82477e-08
7.58583e-08
0.00479965
-1.68164e-08
-1.56506e-08
0.00479966
3.04176e-09
-1.26194e-08
0.00479964
1.58948e-08
2.20777e-08
0.00479966
1.66944e-09
1.2343e-09
0.00479965
-1.57549e-08
-9.83189e-09
0.00479963
3.65993e-08
1.91373e-08
0.00479967
-4.65837e-08
-2.38632e-08
0.00479965
4.63493e-08
3.49492e-08
0.00479965
-3.63583e-09
-1.6933e-08
0.00479967
-3.58615e-08
2.48038e-10
0.00479966
6.13163e-08
3.29459e-08
0.00479964
-6.37436e-08
-5.79884e-08
0.00479967
1.42578e-08
7.11656e-08
0.00479962
4.51241e-09
-9.00363e-08
0.00479967
-3.26655e-08
1.01068e-07
0.00479963
3.45784e-08
-8.72807e-08
0.00479965
-1.96464e-08
7.4212e-08
0.00479966
2.85567e-08
-1.48467e-08
0.00479964
-9.96944e-09
-1.7882e-08
0.00479966
-1.44945e-08
5.94085e-08
3.73107e-08
-5.7328e-08
0.00436305
-3.11372e-08
6.83444e-09
0.00436309
1.63724e-08
2.54676e-08
0.00436305
5.77348e-09
-1.29336e-08
0.00436309
-1.25495e-08
-2.3441e-09
0.00436307
1.41677e-08
4.66595e-08
0.00436306
-1.08263e-08
-5.84917e-08
0.00436309
-2.2395e-09
6.45188e-08
0.00436304
2.48228e-08
-2.97943e-08
0.00436309
-2.06499e-08
1.9455e-09
0.00436306
3.11468e-08
4.74566e-08
0.00436307
-1.21872e-08
-6.50863e-08
0.00436308
1.98846e-09
7.7355e-08
0.00436307
-1.02598e-08
-5.8066e-08
0.00436307
2.28834e-08
3.51089e-08
0.00436307
-2.36779e-08
1.4727e-08
0.00436307
5.50218e-09
-6.26331e-08
0.00436307
1.32568e-08
1.09811e-07
0.00436307
-2.43957e-08
-1.17827e-07
0.00436309
3.56584e-08
9.71684e-08
0.00436305
1.85482e-09
-3.89587e-08
0.00436309
-1.81986e-08
-1.04421e-09
0.00436305
4.01137e-08
2.36184e-08
0.00436309
-2.15915e-08
-1.36009e-08
0.00436307
3.9331e-09
6.93644e-09
0.00436307
3.19739e-08
1.04413e-08
0.00436308
-5.05826e-08
-1.31453e-08
0.00436307
5.7118e-08
1.91982e-08
0.00436307
-1.74294e-08
-1.97594e-09
0.00436307
-2.19851e-08
-6.38203e-09
0.00436307
4.98486e-08
2.51773e-08
0.00436306
-4.62536e-08
-2.72675e-08
0.00436309
8.8846e-10
4.35303e-08
0.00436305
2.91715e-08
-5.21956e-08
0.00436309
-5.715e-08
7.32918e-08
0.00436305
5.77886e-08
-6.4228e-08
0.00436307
-3.47171e-08
5.96247e-08
0.00436308
2.34599e-08
-2.15413e-08
0.00436306
4.02544e-09
3.58467e-09
0.00436307
-2.45601e-08
2.86677e-08
3.54708e-08
-1.77212e-08
0.00396619
-1.804e-08
-2.80426e-08
0.00396622
-5.42882e-09
5.68807e-08
0.00396619
3.15523e-08
-3.63407e-08
0.00396622
-4.02386e-08
1.73621e-08
0.00396619
3.8492e-08
2.85744e-08
0.00396621
-1.77862e-08
-3.69394e-08
0.00396621
-8.02953e-09
4.23573e-08
0.0039662
3.92407e-08
-7.69234e-09
0.00396621
-3.95123e-08
-1.35539e-08
0.00396621
3.48952e-08
5.36975e-08
0.0039662
-3.41122e-09
-6.25533e-08
0.00396622
-8.98728e-09
7.10003e-08
0.00396619
8.69008e-09
-5.03669e-08
0.00396622
8.93687e-09
2.90074e-08
0.0039662
-1.15857e-08
2.12266e-08
0.00396621
5.9466e-09
-6.83207e-08
0.0039662
1.66186e-08
1.15029e-07
0.0039662
-2.12445e-08
-1.20074e-07
0.00396622
2.64102e-08
1.00333e-07
0.00396619
1.04903e-08
-4.35787e-08
0.00396622
-2.80314e-08
2.78725e-09
0.00396619
5.73867e-08
2.63187e-08
0.00396622
-4.70032e-08
-1.94831e-08
0.00396619
3.66474e-08
1.39027e-08
0.00396622
5.81594e-09
3.52811e-09
0.0039662
-3.02754e-08
-1.62329e-09
0.00396621
4.87855e-08
5.71575e-09
0.00396621
-2.12984e-08
1.03664e-08
0.0039662
-8.22747e-09
-9.39799e-09
0.00396621
3.75258e-08
1.72375e-08
0.00396621
-3.4342e-08
-2.52144e-09
0.00396621
3.72765e-09
8.3173e-09
0.0039662
3.10445e-08
-4.8974e-09
0.00396621
-5.72938e-08
2.26933e-08
0.0039662
6.28141e-08
-1.43135e-08
0.0039662
-3.99266e-08
2.29102e-08
0.00396622
1.68269e-08
-1.64155e-09
0.0039662
1.67116e-08
4.10572e-09
0.00396621
-3.38607e-08
9.88704e-09
3.63304e-08
1.57242e-08
0.00360544
-2.22138e-08
-3.83229e-08
0.00360544
-3.92711e-09
6.60906e-08
0.00360544
3.62568e-08
-4.38586e-08
0.00360545
-5.02322e-08
2.80377e-08
0.00360543
5.28307e-08
1.71633e-08
0.00360545
-2.72134e-08
-2.42521e-08
0.00360544
-2.59757e-09
3.37093e-08
0.00360544
4.09755e-08
-2.28604e-09
0.00360544
-4.18174e-08
-1.5349e-08
0.00360545
3.34537e-08
5.10781e-08
0.00360543
6.56806e-09
-5.61889e-08
0.00360546
-2.11096e-08
6.64886e-08
0.00360543
2.84856e-08
-4.87202e-08
0.00360546
-8.85848e-09
3.3258e-08
0.00360543
6.1263e-09
1.53609e-08
0.00360545
-9.43943e-10
-5.82401e-08
0.00360544
2.26914e-08
1.01416e-07
0.00360544
-2.35044e-08
-1.01985e-07
0.00360545
3.56534e-08
8.40209e-08
0.00360544
-2.37324e-09
-3.22919e-08
0.00360544
-1.2178e-08
-2.81961e-09
0.00360544
5.20686e-08
3.16012e-08
0.00360545
-5.24565e-08
-2.42885e-08
0.00360543
5.9023e-08
1.89746e-08
0.00360546
-2.15381e-08
1.20856e-09
0.00360543
-3.02742e-09
2.9666e-09
0.00360544
3.81786e-08
3.41211e-10
0.00360545
-2.72677e-08
1.75145e-08
0.00360543
1.22252e-08
-1.11325e-08
0.00360545
2.03861e-08
1.39824e-08
0.00360544
-2.6826e-08
1.18259e-08
0.00360543
1.59254e-08
-1.14232e-08
0.00360545
1.21576e-08
2.56762e-08
0.00360543
-3.6178e-08
-1.09662e-08
0.00360545
4.9577e-08
2.26153e-08
0.00360543
-3.07856e-08
-7.79428e-09
0.00360545
6.86981e-09
1.95987e-08
0.00360543
3.01238e-08
-2.25454e-09
0.00360545
-4.58967e-08
6.77296e-09
4.6091e-08
2.72418e-08
0.0032775
-3.55516e-08
-4.30515e-08
0.00327749
1.23274e-08
7.00469e-08
0.0032775
2.62155e-08
-4.61332e-08
0.0032775
-4.73155e-08
3.31258e-08
0.00327749
5.94879e-08
1.27736e-08
0.0032775
-3.31178e-08
-2.08069e-08
0.0032775
2.68169e-09
3.75003e-08
0.00327749
4.27874e-08
-1.18486e-08
0.0032775
-4.66344e-08
7.26761e-10
0.0032775
4.16185e-08
3.41875e-08
0.0032775
1.68e-09
-3.81684e-08
0.0032775
-1.64063e-08
5.32882e-08
0.00327749
3.32373e-08
-4.03863e-08
0.00327751
-1.29399e-08
3.22801e-08
0.00327749
1.3375e-08
1.10553e-08
0.0032775
1.62526e-09
-4.55386e-08
0.0032775
2.19392e-08
8.18992e-08
0.00327749
-2.35416e-08
-7.55204e-08
0.00327749
5.03419e-08
5.90557e-08
0.0032775
-2.69255e-08
-1.28401e-08
0.00327749
2.05282e-08
-1.4685e-08
0.0032775
3.0462e-08
3.98319e-08
0.0032775
-4.41446e-08
-2.7792e-08
0.00327749
7.15139e-08
2.087e-08
0.00327751
-4.12147e-08
1.94884e-09
0.00327749
1.81676e-08
5.00284e-09
0.00327749
3.49345e-08
-1.48462e-09
0.00327751
-4.32654e-08
2.1141e-08
0.00327747
4.705e-08
-1.24146e-08
0.00327751
-1.13228e-08
1.50197e-08
0.00327749
-7.72026e-09
1.57423e-08
0.00327748
2.31253e-08
-1.80031e-08
0.00327751
-7.21854e-09
3.86486e-08
0.00327748
-1.08259e-08
-2.67389e-08
0.00327751
3.39441e-08
4.16304e-08
0.00327749
-2.39837e-08
-2.27627e-08
0.0032775
5.73621e-09
3.076e-08
0.00327749
3.28699e-08
-4.52251e-09
0.0032775
-5.0227e-08
3.98023e-09
5.66285e-08
3.46915e-08
0.00297939
-4.42754e-08
-4.43609e-08
0.00297938
2.7582e-08
7.23943e-08
0.00297939
1.70205e-08
-4.86539e-08
0.00297939
-4.56154e-08
4.0605e-08
0.00297937
7.04402e-08
5.68599e-09
0.00297939
-4.61766e-08
-1.49971e-08
0.00297938
1.68628e-08
3.98824e-08
0.00297938
3.80063e-08
-2.07237e-08
0.00297939
-4.71097e-08
1.69188e-08
0.00297938
5.34011e-08
1.60594e-08
0.00297939
-1.08867e-08
-1.94813e-08
0.00297938
-1.10455e-09
3.85687e-08
0.00297938
2.73471e-08
-2.89279e-08
0.00297939
-5.43332e-09
2.69348e-08
0.00297938
9.17589e-09
1.23924e-08
0.00297938
1.62482e-08
-3.90749e-08
0.00297939
1.01624e-08
6.89268e-08
0.00297938
-1.32964e-08
-5.67238e-08
0.00297938
5.93102e-08
4.14567e-08
0.00297939
-4.65008e-08
2.62259e-10
0.00297937
5.12695e-08
-1.9972e-08
0.00297939
1.08392e-08
4.09523e-08
0.00297938
-3.67175e-08
-2.52882e-08
0.00297937
8.71965e-08
1.8243e-08
0.00297939
-6.41959e-08
5.75991e-09
0.00297938
4.32762e-08
3.52656e-09
0.00297938
3.06769e-08
-9.70945e-10
0.0029794
-5.90387e-08
2.47425e-08
0.00297936
8.37242e-08
-1.63918e-08
0.0029794
-4.59642e-08
2.18292e-08
0.00297938
1.48536e-08
1.01364e-08
0.00297937
2.64529e-08
-1.18194e-08
0.0029794
-2.41047e-08
3.78343e-08
0.00297937
1.1617e-08
-2.82315e-08
0.00297939
2.3618e-08
4.81038e-08
0.00297938
-2.56173e-08
-2.8215e-08
0.00297938
1.86643e-08
3.58925e-08
0.00297939
2.0024e-08
-4.71552e-09
0.00297938
-4.01511e-08
2.72774e-09
5.82137e-08
3.86266e-08
0.00270839
-5.20603e-08
-4.19501e-08
0.00270838
4.22221e-08
7.21044e-08
0.00270839
1.0139e-08
-4.89037e-08
0.00270839
-4.67023e-08
4.60087e-08
0.00270838
8.72845e-08
-8.95329e-10
0.0027084
-6.61852e-08
-8.09422e-09
0.00270838
3.98186e-08
3.94081e-08
0.00270839
2.5672e-08
-2.50856e-08
0.00270839
-4.05829e-08
2.71263e-08
0.00270838
6.10911e-08
5.38683e-09
0.00270839
-1.92178e-08
-8.48413e-09
0.00270839
1.10795e-08
3.1748e-08
0.00270838
2.51147e-08
-2.35447e-08
0.00270839
3.44302e-10
2.54343e-08
0.00270838
6.62903e-09
1.20897e-08
0.00270838
3.13226e-08
-3.28556e-08
0.00270839
-1.27545e-09
5.91361e-08
0.00270838
-3.18232e-09
-4.27769e-08
0.00270839
6.99014e-08
2.93771e-08
0.00270839
-6.69676e-08
8.80588e-09
0.00270838
8.24862e-08
-2.05217e-08
0.00270839
-7.2443e-09
3.68432e-08
0.00270839
-3.14717e-08
-1.59645e-08
0.00270838
1.06086e-07
8.39529e-09
0.0027084
-9.01512e-08
1.62046e-08
0.00270838
7.24048e-08
-3.69739e-09
0.00270838
2.09546e-08
4.73284e-09
0.0027084
-6.76793e-08
2.35667e-08
0.00270836
1.12614e-07
-1.81051e-08
0.0027084
-7.15042e-08
2.91075e-08
0.00270838
2.92309e-08
1.09712e-09
0.00270837
3.65913e-08
-4.02053e-10
0.0027084
-4.54903e-08
2.95538e-08
0.00270837
3.77844e-08
-2.1611e-08
0.00270839
1.15757e-08
4.65027e-08
0.00270838
-2.73726e-08
-2.75878e-08
0.00270838
3.47808e-08
3.81532e-08
0.00270839
2.61971e-09
-4.72925e-09
0.00270838
-2.5744e-08
3.89138e-09
5.79034e-08
3.88678e-08
0.00246204
-6.49101e-08
-3.75066e-08
0.00246203
6.16064e-08
6.96791e-08
0.00246204
7.38416e-11
-4.69719e-08
0.00246204
-4.47223e-08
4.92232e-08
0.00246203
1.02174e-07
-4.6906e-09
0.00246205
-8.37448e-08
-3.02068e-09
0.00246203
6.15508e-08
3.87986e-08
0.00246204
1.51756e-08
-2.703e-08
0.00246204
-3.44192e-08
3.3853e-08
0.00246204
6.99799e-08
-8.39925e-10
0.00246204
-2.59463e-08
-2.47793e-09
0.00246204
2.1398e-08
2.9704e-08
0.00246204
2.66676e-08
-2.27834e-08
0.00246204
4.04641e-09
2.71767e-08
0.00246204
6.51999e-09
9.454e-09
0.00246203
4.45544e-08
-2.59037e-08
0.00246205
-9.02439e-09
5.03284e-08
0.00246203
2.92039e-09
-3.13903e-08
0.00246204
8.62755e-08
2.02597e-08
0.00246205
-9.14313e-08
1.51787e-08
0.00246203
1.17957e-07
-2.02964e-08
0.00246205
-2.84494e-08
3.26592e-08
0.00246204
-2.26636e-08
-7.11096e-09
0.00246203
1.212e-07
-9.67355e-10
0.00246205
-1.10907e-07
2.71291e-08
0.00246203
9.63958e-08
-1.18816e-08
0.00246203
1.51414e-08
1.1591e-08
0.00246205
-7.69e-08
2.1217e-08
0.00246202
1.39106e-07
-1.79561e-08
0.00246205
-9.29259e-08
3.49171e-08
0.00246204
3.9652e-08
-6.92672e-09
0.00246203
4.87494e-08
1.10578e-08
0.00246206
-6.72966e-08
2.07254e-08
0.00246202
6.33654e-08
-1.36287e-08
0.00246205
1.85052e-10
4.3655e-08
0.00246204
-2.87948e-08
-2.5653e-08
0.00246203
4.9651e-08
4.02448e-08
0.00246204
-1.17415e-08
-5.88067e-09
0.00246203
-1.5105e-08
7.01197e-09
6.28603e-08
3.71683e-08
0.00223809
-7.86552e-08
-3.16979e-08
0.00223808
8.15799e-08
6.63949e-08
0.00223809
-9.73811e-09
-4.30701e-08
0.00223809
-4.17922e-08
4.99954e-08
0.00223808
1.15759e-07
-5.66535e-09
0.00223809
-9.80773e-08
6.22453e-10
0.00223808
7.98486e-08
3.84e-08
0.00223809
1.0231e-08
-2.7528e-08
0.00223809
-3.21486e-08
3.81439e-08
0.00223808
8.21146e-08
-3.79394e-09
0.00223809
-3.27369e-08
2.97383e-10
0.00223809
3.1757e-08
3.05554e-08
0.00223808
2.90322e-08
-2.37003e-08
0.00223809
9.43359e-09
3.01021e-08
0.00223808
4.65352e-09
6.65391e-09
0.00223808
6.08471e-08
-1.98958e-08
0.00223809
-1.82797e-08
4.38864e-08
0.00223808
1.04649e-08
-2.32722e-08
0.00223808
1.02554e-07
1.42161e-08
0.00223809
-1.15001e-07
1.9869e-08
0.00223807
1.52608e-07
-1.99663e-08
0.00223809
-4.83677e-08
2.95678e-08
0.00223808
-1.3716e-08
2.24273e-10
0.00223808
1.3505e-07
-8.45711e-09
0.00223809
-1.28206e-07
3.58906e-08
0.00223808
1.15734e-07
-1.80729e-08
0.00223808
1.3543e-08
1.72264e-08
0.0022381
-8.78142e-08
1.99965e-08
0.00223807
1.63943e-07
-1.84618e-08
0.00223809
-1.11531e-07
4.12187e-08
0.00223808
4.82056e-08
-1.48988e-08
0.00223807
5.93528e-08
2.28735e-08
0.0022381
-8.44105e-08
1.13279e-08
0.00223807
8.22305e-08
-4.5657e-09
0.00223809
-4.64071e-09
3.99285e-08
0.00223808
-3.53767e-08
-2.32041e-08
0.00223808
6.76433e-08
4.29782e-08
0.00223809
-2.7047e-08
-8.00558e-09
0.00223808
-5.67548e-09
1.23208e-08
6.95938e-08
3.38917e-08
0.00203424
-9.16999e-08
-2.56223e-08
0.00203424
9.95058e-08
6.39055e-08
0.00203424
-1.6633e-08
-3.83009e-08
0.00203424
-4.05713e-08
5.02314e-08
0.00203423
1.30209e-07
-4.7873e-09
0.00203425
-1.10684e-07
2.94527e-09
0.00203424
9.58757e-08
3.91926e-08
0.00203424
8.54022e-09
-2.70963e-08
0.00203424
-3.10421e-08
4.11218e-08
0.00203424
9.44318e-08
-4.59126e-09
0.00203424
-3.59957e-08
1.05642e-09
0.00203424
3.86287e-08
3.39587e-08
0.00203424
3.51737e-08
-2.57834e-08
0.00203424
1.3911e-08
3.33626e-08
0.00203424
2.84652e-09
4.28296e-09
0.00203423
7.86177e-08
-1.54761e-08
0.00203425
-2.8158e-08
4.04412e-08
0.00203424
1.89233e-08
-1.83542e-08
0.00203424
1.17375e-07
1.13157e-08
0.00203425
-1.36092e-07
2.26987e-08
0.00203423
1.83406e-07
-1.89071e-08
0.00203424
-6.44172e-08
2.7289e-08
0.00203424
-8.18464e-09
6.97734e-09
0.00203423
1.49666e-07
-1.43957e-08
0.00203425
-1.44386e-07
4.31495e-08
0.00203424
1.32073e-07
-2.20802e-08
0.00203424
1.31564e-08
2.16443e-08
0.00203425
-9.75117e-08
2.0611e-08
0.00203423
1.83331e-07
-1.96213e-08
0.00203425
-1.24124e-07
4.8233e-08
0.00203424
5.1327e-08
-2.24467e-08
0.00203423
7.06862e-08
3.50192e-08
0.00203425
-9.92212e-08
3.02233e-09
0.00203423
9.53218e-08
4.8859e-09
0.00203424
-4.24832e-09
3.62585e-08
0.00203424
-4.61809e-08
-1.96438e-08
0.00203423
8.68486e-08
4.6109e-08
0.00203424
-4.18459e-08
-9.26845e-09
0.00203424
2.29426e-09
1.77317e-08
7.71364e-08
3.13292e-08
0.00184635
-1.01495e-07
-1.91795e-08
0.00184635
1.12246e-07
6.49786e-08
0.00184635
-2.03707e-08
-3.30873e-08
0.00184635
-3.97983e-08
5.1177e-08
0.00184635
1.40336e-07
-2.66434e-09
0.00184635
-1.17106e-07
5.29575e-09
0.00184635
1.05349e-07
4.21298e-08
0.00184635
1.11113e-08
-2.60458e-08
0.00184635
-3.13497e-08
4.34651e-08
0.00184635
1.04043e-07
-4.29374e-09
0.00184635
-3.48846e-08
1.03501e-09
0.00184636
4.03457e-08
3.94348e-08
0.00184635
4.49974e-08
-2.86773e-08
0.00184636
1.47739e-08
3.70505e-08
0.00184636
3.39026e-09
1.90668e-09
0.00184635
9.27458e-08
-1.18464e-08
0.00184637
-3.62166e-08
4.02476e-08
0.00184635
2.68591e-08
-1.55229e-08
0.00184636
1.27319e-07
1.00585e-08
0.00184636
-1.5008e-07
2.42133e-08
0.00184636
2.04728e-07
-1.72075e-08
0.00184636
-7.46509e-08
2.68097e-08
0.00184636
-4.84996e-09
1.32838e-08
0.00184636
1.59368e-07
-1.98975e-08
0.00184636
-1.5371e-07
4.96051e-08
0.00184636
1.40149e-07
-2.51365e-08
0.00184635
1.523e-08
2.70616e-08
0.00184636
-1.04753e-07
2.21233e-08
0.00184635
1.93888e-07
-2.08557e-08
0.00184636
-1.28326e-07
5.57212e-08
0.00184636
4.81426e-08
-2.83612e-08
0.00184635
8.15695e-08
4.85931e-08
0.00184636
-1.10269e-07
-3.06356e-09
0.00184635
1.0181e-07
1.44781e-08
0.00184635
-9.92246e-10
3.43619e-08
0.00184635
-5.68584e-08
-1.53768e-08
0.00184635
1.01582e-07
5.20034e-08
0.00184635
-5.22802e-08
-9.75845e-09
0.00184635
6.65432e-09
2.41031e-08
8.37817e-08
3.02934e-08
0.00166348
-1.00686e-07
-1.37354e-08
0.00166349
1.12735e-07
6.98305e-08
0.00166348
-1.87606e-08
-3.77967e-08
0.00166348
-3.80485e-08
5.5464e-08
0.00166349
1.39621e-07
-5.71389e-09
0.00166349
-1.11442e-07
5.54564e-09
0.0016635
1.02729e-07
4.7448e-08
0.0016635
1.74766e-08
-3.61756e-08
0.0016635
-3.23612e-08
4.89491e-08
0.00166351
1.0675e-07
-9.73377e-09
0.0016635
-2.94288e-08
-1.36507e-09
0.00166352
3.59888e-08
4.73762e-08
0.00166351
5.5768e-08
-4.24295e-08
0.00166353
9.98589e-09
4.30735e-08
0.00166352
8.39328e-09
-3.71928e-09
0.00166352
9.67525e-08
-1.17344e-08
0.00166353
-3.88147e-08
4.33666e-08
0.00166351
3.41621e-08
-2.13214e-08
0.00166353
1.25047e-07
9.00742e-09
0.00166351
-1.46121e-07
2.61258e-08
0.00166353
2.05012e-07
-1.92936e-08
0.00166351
-7.24283e-08
2.88531e-08
0.00166352
-2.8761e-09
1.50218e-08
0.00166352
1.57293e-07
-2.87203e-08
0.00166351
-1.47024e-07
6.12805e-08
0.00166352
1.34203e-07
-3.46454e-08
0.00166351
2.13597e-08
3.89279e-08
0.0016635
-1.05214e-07
1.72702e-08
0.00166351
1.90269e-07
-2.03081e-08
0.0016635
-1.20135e-07
6.54827e-08
0.0016635
4.0013e-08
-3.61263e-08
0.00166349
8.79698e-08
6.78007e-08
0.00166349
-1.11946e-07
-1.54063e-08
0.00166349
9.96426e-08
2.63659e-08
0.00166349
3.43504e-09
3.38506e-08
0.00166348
-6.17699e-08
-1.44433e-08
0.00166349
1.05734e-07
6.45184e-08
0.00166348
-5.44469e-08
-2.01106e-08
0.00166348
8.07983e-09
3.55657e-08
8.41652e-08
2.62681e-08
0.00147592
-8.92902e-08
-5.11058e-09
0.00147595
1.00195e-07
5.99147e-08
0.00147594
-9.13925e-09
-5.97201e-08
0.00147594
-3.69883e-08
7.1284e-08
0.00147596
1.30574e-07
-3.54351e-08
0.00147594
-9.48253e-08
1.38392e-08
0.00147597
8.94437e-08
3.66053e-08
0.00147596
2.72618e-08
-6.15884e-08
0.00147597
-3.25749e-08
7.15576e-08
0.00147598
1.03433e-07
-4.37898e-08
0.00147597
-2.11308e-08
8.44784e-09
0.00147599
3.03704e-08
4.22104e-08
0.00147597
6.2379e-08
-6.99226e-08
0.00147599
5.31315e-09
6.76997e-08
0.00147597
1.5795e-08
-2.83796e-08
0.00147599
8.99438e-08
-7.4642e-09
0.00147597
-3.18196e-08
4.54945e-08
0.00147597
3.52937e-08
-4.14731e-08
0.00147599
1.15924e-07
2.14998e-08
0.00147595
-1.26601e-07
2.46271e-08
0.00147599
1.8428e-07
-3.06273e-08
0.00147595
-5.57432e-08
4.07134e-08
0.00147596
-5.26104e-09
1.6184e-09
0.00147597
1.45999e-07
-2.59413e-08
0.00147594
-1.25325e-07
7.52828e-08
0.00147596
1.13742e-07
-5.55165e-08
0.00147594
3.19008e-08
6.3736e-08
0.00147593
-9.95681e-08
-7.5175e-09
0.00147595
1.72269e-07
1.96236e-10
0.00147593
-9.93903e-08
6.16897e-08
0.00147593
2.64762e-08
-4.32739e-08
0.00147594
8.89402e-08
8.48469e-08
0.00147592
-1.02746e-07
-4.60727e-08
0.00147593
8.66158e-08
5.48897e-08
0.00147593
1.15752e-08
1.29599e-08
0.00147591
-6.22433e-08
-1.21912e-08
0.00147594
9.98874e-08
6.98871e-08
0.00147592
-4.721e-08
-4.94781e-08
0.00147593
4.89006e-09
6.16836e-08
8.04333e-08
-3.08451e-09
0.0012891
-7.48174e-08
2.50812e-08
0.00128914
8.3335e-08
1.21374e-08
0.00128912
5.31114e-09
-5.35179e-08
0.00128913
-3.7847e-08
7.08351e-08
0.00128915
1.2045e-07
-7.92472e-08
0.00128912
-7.48559e-08
5.01987e-08
0.00128915
7.20007e-08
-1.6824e-08
0.00128914
3.79737e-08
-4.39568e-08
0.00128914
-3.22304e-08
7.7383e-08
0.00128915
9.57397e-08
-9.27583e-08
0.00128914
-1.15033e-08
5.86674e-08
0.00128915
2.37198e-08
-6.55434e-09
0.00128914
6.38511e-08
-5.70063e-08
0.00128915
4.08706e-09
8.94081e-08
0.00128913
1.89031e-08
-7.46698e-08
0.00128916
7.99384e-08
3.17965e-08
0.00128912
-2.14958e-08
2.62107e-08
0.00128914
2.96057e-08
-4.91773e-08
0.00128914
1.06583e-07
5.08755e-08
0.0012891
-1.04864e-07
-5.36987e-10
0.00128915
1.54131e-07
-2.61041e-08
0.0012891
-3.28065e-08
5.71306e-08
0.00128912
-1.34079e-08
-2.4842e-08
0.00128912
1.32451e-07
2.51007e-09
0.00128909
-9.96405e-08
6.12239e-08
0.00128912
8.56214e-08
-6.38474e-08
0.0012891
4.52947e-08
8.27504e-08
0.00128909
-9.40506e-08
-3.95556e-08
0.00128912
1.49005e-07
3.24471e-08
0.00128908
-7.37587e-08
2.15483e-08
0.0012891
9.43074e-09
-2.69174e-08
0.00128911
8.90066e-08
6.7586e-08
0.00128908
-8.98961e-08
-6.50326e-08
0.00128911
6.94917e-08
7.96512e-08
0.0012891
2.25681e-08
-4.27174e-08
0.00128909
-6.19202e-08
1.61729e-08
0.00128912
9.16965e-08
3.5027e-08
0.00128909
-3.57756e-08
-6.11473e-08
0.00128912
-5.13987e-10
7.66193e-08
7.77063e-08
-5.79416e-08
0.00111092
-6.13501e-08
4.84282e-08
0.00111095
6.80026e-08
-4.13994e-08
0.00111093
1.69726e-08
-1.01346e-08
0.00111094
-3.92683e-08
2.82218e-08
0.00111095
1.09626e-07
-6.88518e-08
0.00111093
-5.85087e-08
6.51007e-08
0.00111095
5.49147e-08
-6.35577e-08
0.00111094
4.5166e-08
1.75134e-08
0.00111094
-3.30922e-08
2.63179e-08
0.00111095
8.5315e-08
-7.39986e-08
0.00111093
-4.24337e-09
8.7445e-08
0.00111094
1.55407e-08
-6.3151e-08
0.00111093
6.16577e-08
1.17659e-08
0.00111093
2.81825e-09
5.19294e-08
0.00111092
1.83152e-08
-7.61732e-08
0.00111094
6.92743e-08
7.3839e-08
0.0011109
-1.29329e-08
-2.12387e-08
0.00111093
2.18654e-08
-1.65416e-08
0.00111092
9.67988e-08
5.28783e-08
0.0011109
-8.54984e-08
-2.9248e-08
0.00111093
1.23709e-07
3.41355e-09
0.00111089
-1.09604e-08
4.33679e-08
0.00111092
-2.309e-08
-4.25155e-08
0.00111091
1.20343e-07
3.04173e-08
0.0011109
-7.67273e-08
1.96921e-08
0.00111092
5.94889e-08
-4.95622e-08
0.0011109
5.74939e-08
7.14478e-08
0.0011109
-8.85872e-08
-6.10589e-08
0.00111093
1.2811e-07
4.22117e-08
0.00111089
-5.04261e-08
-2.00353e-08
0.00111092
-3.78553e-09
-5.26827e-09
0.00111092
8.76152e-08
1.91438e-08
0.0011109
-7.60918e-08
-4.88261e-08
0.00111093
5.52388e-08
5.59615e-08
0.00111091
3.12262e-08
-7.33886e-08
0.00111092
-5.84494e-08
4.38021e-08
0.00111094
8.32728e-08
-2.68581e-08
0.00111091
-2.482e-08
-3.03312e-08
0.00111094
-4.24746e-09
4.5265e-08
7.40999e-08
-7.62775e-08
0.000946211
-5.07432e-08
3.96626e-08
0.000946224
5.30513e-08
-5.2125e-08
0.000946206
2.35506e-08
2.31799e-08
0.000946215
-4.07464e-08
-9.77611e-09
0.000946216
9.6821e-08
-2.2825e-08
0.000946201
-4.72014e-08
4.10082e-08
0.000946216
3.9595e-08
-5.3311e-08
0.000946202
4.70273e-08
4.78391e-08
0.000946203
-3.4363e-08
-1.83498e-08
0.000946207
7.39072e-08
-1.43088e-08
0.000946197
-1.21326e-10
5.56902e-08
0.0009462
8.04479e-09
-6.07771e-08
0.0009462
5.71952e-08
5.27073e-08
0.000946194
1.46979e-09
-4.12001e-09
0.000946194
1.64287e-08
-2.94786e-08
0.000946201
5.90894e-08
5.94711e-08
0.000946184
-5.80247e-09
-4.47578e-08
0.000946204
1.4384e-08
1.8186e-08
0.000946192
8.84019e-08
1.79985e-08
0.000946192
-6.93659e-08
-3.17496e-08
0.000946206
9.83589e-08
1.69209e-08
0.000946188
7.3517e-09
7.09029e-09
0.000946205
-3.09941e-08
-3.88929e-08
0.000946202
1.11334e-07
3.03235e-08
0.000946195
-5.8621e-08
-2.2054e-08
0.000946212
4.03116e-08
-2.80047e-08
0.000946202
6.62344e-08
3.55113e-08
0.000946201
-8.17828e-08
-6.69762e-08
0.00094622
1.10505e-07
3.43979e-08
0.000946197
-3.13033e-08
-4.46925e-08
0.000946217
-1.22821e-08
3.89479e-11
0.000946215
8.39073e-08
-1.56529e-08
0.000946204
-6.22184e-08
-2.82251e-08
0.000946226
4.25452e-08
1.40258e-08
0.000946207
3.66683e-08
-5.84035e-08
0.000946217
-5.34975e-08
3.56048e-08
0.000946222
7.27373e-08
-5.42089e-08
0.000946207
-1.53456e-08
5.15156e-09
0.000946224
-8.42594e-09
5.53969e-10
6.81175e-08
-4.66154e-08
0.000797466
-4.44329e-08
1.99855e-08
0.00079747
3.96848e-08
-3.00825e-08
0.000797461
2.52267e-08
3.02597e-08
0.000797462
-4.19984e-08
-1.77961e-08
0.000797464
8.35519e-08
9.4438e-09
0.000797454
-3.97844e-08
1.52596e-08
0.000797462
2.72775e-08
-2.10787e-08
0.000797455
4.52464e-08
3.78769e-08
0.000797455
-3.44767e-08
-2.40346e-08
0.000797459
6.3162e-08
1.62007e-08
0.000797453
2.20945e-09
1.5624e-08
0.000797457
3.03387e-09
-2.98167e-08
0.000797459
5.21106e-08
4.00655e-08
0.000797456
1.41654e-09
-2.69982e-08
0.00079746
1.4573e-08
1.0121e-09
0.000797465
5.13558e-08
1.79798e-08
0.000797459
-5.08927e-11
-3.74086e-08
0.00079747
9.34416e-09
1.74332e-08
0.000797468
8.18337e-08
-1.46561e-08
0.000797469
-5.66842e-08
-2.29399e-08
0.000797477
8.0495e-08
3.31937e-09
0.000797474
1.95241e-08
-1.91602e-08
0.000797479
-3.4707e-08
-3.01251e-08
0.000797484
1.04173e-07
8.45346e-09
0.000797478
-4.60248e-08
-4.1077e-08
0.000797487
2.85137e-08
-1.49428e-08
0.000797485
6.9451e-08
-1.78262e-09
0.000797481
-7.43144e-08
-5.52983e-08
0.000797494
9.54889e-08
1.87161e-08
0.000797479
-1.79497e-08
-5.23143e-08
0.000797489
-1.78862e-08
1.98681e-09
0.000797487
7.78831e-08
-2.84655e-08
0.000797479
-5.12417e-08
-1.59357e-08
0.000797489
3.08627e-08
-6.79783e-09
0.000797477
3.84898e-08
-3.24268e-08
0.00079748
-5.01168e-08
1.64206e-08
0.000797479
6.15463e-08
-4.09851e-08
0.000797472
-9.63271e-09
1.77391e-08
0.000797476
-1.35026e-08
-1.69902e-08
6.07519e-08
-1.01382e-08
0.000665534
-4.04893e-08
8.93688e-09
0.000665535
2.91885e-08
-6.68209e-09
0.000665533
2.34447e-08
2.27301e-08
0.000665529
-4.12617e-08
-1.05524e-08
0.000665534
7.09671e-08
1.73371e-08
0.000665527
-3.40439e-08
2.00743e-09
0.000665533
1.88157e-08
-2.43726e-09
0.000665533
4.17121e-08
1.71749e-08
0.000665531
-3.23562e-08
-1.5841e-08
0.000665538
5.41613e-08
1.281e-08
0.000665536
4.10536e-09
-5.36689e-09
0.00066554
8.16461e-10
-1.37764e-08
0.000665545
4.73189e-08
1.16457e-08
0.000665545
2.55007e-09
-2.7508e-08
0.000665549
1.34084e-08
-3.20074e-10
0.000665555
4.58022e-08
-1.09056e-08
0.000665554
4.08117e-09
-2.78009e-08
0.000665559
7.08267e-09
-2.07625e-09
0.000665564
7.51366e-08
-2.8089e-08
0.000665562
-4.63712e-08
-2.0686e-08
0.000665569
6.80993e-08
-1.50199e-08
0.000665571
2.49252e-08
-2.78797e-08
0.000665567
-3.39186e-08
-2.65998e-08
0.000665577
9.51603e-08
-1.09238e-08
0.000665569
-3.74662e-08
-3.97122e-08
0.000665574
2.15638e-08
-1.25776e-08
0.000665575
6.63517e-08
-2.03927e-08
0.000665566
-6.63086e-08
-3.66125e-08
0.000665576
8.12608e-08
4.20281e-09
0.000665564
-1.04277e-08
-4.3043e-08
0.000665566
-2.13715e-08
4.81779e-09
0.000665565
6.93708e-08
-2.73483e-08
0.000665556
-4.39506e-08
-4.64532e-09
0.000665559
2.10009e-08
-8.72828e-09
0.000665553
3.62374e-08
-1.28161e-08
0.000665549
-4.77839e-08
8.51171e-09
0.000665547
5.07737e-08
-1.81001e-08
0.000665543
-7.84664e-09
1.7052e-08
0.00066554
-1.74512e-08
-1.0617e-08
5.23503e-08
8.68402e-09
0.000550164
-3.66557e-08
5.88734e-09
0.000550166
2.16452e-08
3.38836e-09
0.000550167
2.02766e-08
1.24308e-08
0.000550163
-3.79373e-08
-4.72632e-09
0.000550171
5.96054e-08
1.11145e-08
0.000550167
-2.84496e-08
-4.36414e-09
0.000550172
1.37256e-08
-9.28968e-10
0.000550176
3.7551e-08
7.83754e-10
0.000550175
-2.8223e-08
-1.26467e-08
0.000550182
4.6695e-08
-1.52678e-09
0.000550184
5.80029e-09
-1.37065e-08
0.000550187
5.39367e-10
-1.49348e-08
0.000550193
4.26495e-08
-8.02723e-09
0.000550195
4.07518e-09
-2.59336e-08
0.000550198
1.25955e-08
-1.23228e-08
0.000550204
4.10535e-08
-2.22893e-08
0.000550205
6.44116e-09
-2.56184e-08
0.000550207
6.29733e-09
-1.72873e-08
0.000550215
6.71038e-08
-2.92416e-08
0.000550209
-3.76482e-08
-2.2734e-08
0.000550215
5.77672e-08
-2.3426e-08
0.000550218
2.53943e-08
-2.65441e-08
0.00055021
-3.06078e-08
-2.4864e-08
0.00055022
8.33206e-08
-1.74807e-08
0.00055021
-3.10137e-08
-3.02659e-08
0.000550212
1.62819e-08
-1.22811e-08
0.000550213
5.8845e-08
-2.05733e-08
0.000550202
-5.8129e-08
-2.08718e-08
0.000550208
6.69494e-08
-1.71792e-09
0.000550198
-6.85282e-09
-2.60997e-08
0.000550195
-2.32098e-08
6.99226e-09
0.000550196
5.90777e-08
-1.80673e-08
0.000550186
-3.87616e-08
5.24596e-09
0.000550185
1.31553e-08
-4.06198e-09
0.000550183
3.12103e-08
2.92819e-10
0.000550175
-4.48509e-08
8.74827e-09
0.000550175
4.07109e-08
-2.60536e-09
0.000550172
-7.8966e-09
1.44623e-08
0.000550167
-1.90902e-08
-4.16792e-10
4.35625e-08
1.20401e-08
0.000450438
-3.18998e-08
3.99729e-09
0.000450442
1.6234e-08
2.53435e-09
0.000450445
1.72521e-08
3.54257e-09
0.000450441
-3.28556e-08
-4.94995e-09
0.000450451
4.95948e-08
1.28525e-09
0.000450448
-2.27124e-08
-9.22754e-09
0.000450453
1.06871e-08
-6.97589e-09
0.00045046
3.33304e-08
-9.54656e-09
0.000450458
-2.32085e-08
-1.49961e-08
0.000450467
3.99922e-08
-1.31323e-08
0.000450469
7.10407e-09
-1.76776e-08
0.000450471
9.38633e-10
-2.05263e-08
0.000450478
3.77614e-08
-1.69234e-08
0.00045048
5.20045e-09
-2.62222e-08
0.000450482
1.15208e-08
-1.99189e-08
0.000450487
3.61479e-08
-2.42759e-08
0.000450487
7.26268e-09
-2.56543e-08
0.000450487
5.63586e-09
-2.21354e-08
0.000450495
5.79084e-08
-2.56597e-08
0.000450487
-3.04434e-08
-2.27201e-08
0.000450492
4.78717e-08
-2.23473e-08
0.000450493
2.31765e-08
-2.12993e-08
0.000450484
-2.67706e-08
-2.08062e-08
0.000450493
6.98824e-08
-1.45764e-08
0.000450482
-2.57038e-08
-2.00643e-08
0.000450481
1.12725e-08