/*--------------------------------*- C++ -*----------------------------------*\
  =========                 |
  \\      /  F ield         | OpenFOAM: The Open Source CFD Toolbox
   \\    /   O peration     | Website:  https://openfoam.org
    \\  /    A nd           | Version:  10
     \\/     M anipulation  |
\*---------------------------------------------------------------------------*/
FoamFile
{
    format      ascii;
    class       volScalarField;
    location    "22.5";
    object      pMean;
}
// * * * * * * * * * * * * * * * * * * * * * * * * * * * * * * * * * * * * * //

dimensions      [0 2 -2 0 0 0 0];

internalField   nonuniform List<scalar> 
25600
(
-3.672e-07
-3.40252e-07
-3.35086e-07
-3.14639e-07
-3.22585e-07
-2.98437e-07
-2.88148e-07
-2.69472e-07
-2.27327e-07
-2.22557e-07
-1.89947e-07
-1.58747e-07
-1.27342e-07
-1.31514e-07
-7.58555e-08
-9.66536e-08
-1.11525e-07
-8.06272e-08
-1.31252e-07
-1.39537e-07
-1.54337e-07
-2.02464e-07
-2.27024e-07
-2.43072e-07
-2.83418e-07
-2.7459e-07
-3.20432e-07
-3.35228e-07
-3.1476e-07
-3.66801e-07
-3.41276e-07
-3.45108e-07
-3.80407e-07
-3.54578e-07
-3.79483e-07
-3.87396e-07
-3.78384e-07
-3.77057e-07
-3.53428e-07
-3.70964e-07
-4.10349e-07
-3.62476e-07
-3.61008e-07
-3.30662e-07
-3.36109e-07
-3.2235e-07
-2.9335e-07
-3.09953e-07
-2.30861e-07
-2.38713e-07
-1.95464e-07
-1.46875e-07
-1.19126e-07
-1.01103e-07
-6.2038e-08
-5.95495e-08
-8.65841e-08
-6.39432e-08
-1.00193e-07
-1.42655e-07
-1.35603e-07
-2.02478e-07
-2.21635e-07
-2.33406e-07
-2.75511e-07
-2.74329e-07
-3.14862e-07
-3.2752e-07
-3.21021e-07
-3.50701e-07
-3.40104e-07
-3.29846e-07
-3.68504e-07
-3.26985e-07
-3.69517e-07
-3.63405e-07
-3.63988e-07
-4.0403e-07
-3.85343e-07
-3.99138e-07
-4.1827e-07
-3.75372e-07
-3.9364e-07
-3.59989e-07
-3.73251e-07
-3.53133e-07
-3.22568e-07
-3.36803e-07
-2.53089e-07
-2.4786e-07
-2.0407e-07
-1.42321e-07
-1.10455e-07
-7.43522e-08
-4.97857e-08
-2.98528e-08
-5.61401e-08
-5.28726e-08
-7.04071e-08
-1.40739e-07
-1.26897e-07
-2.06169e-07
-2.22852e-07
-2.41397e-07
-2.71774e-07
-2.94162e-07
-3.09988e-07
-3.29936e-07
-3.29462e-07
-3.31156e-07
-3.3462e-07
-3.19263e-07
-3.4191e-07
-3.09864e-07
-3.49048e-07
-3.39386e-07
-3.48865e-07
-3.96546e-07
-3.71633e-07
-3.76255e-07
-4.44975e-07
-4.13424e-07
-4.23279e-07
-3.92063e-07
-4.04085e-07
-3.73995e-07
-3.5782e-07
-3.52829e-07
-2.88664e-07
-2.48897e-07
-2.11963e-07
-1.34882e-07
-9.86661e-08
-4.04842e-08
-2.8641e-08
8.16644e-09
-2.16276e-08
-3.45134e-08
-4.54086e-08
-1.2558e-07
-1.29458e-07
-2.01079e-07
-2.31594e-07
-2.50592e-07
-2.71163e-07
-3.16458e-07
-2.96882e-07
-3.28938e-07
-3.31541e-07
-3.10932e-07
-3.25654e-07
-3.08645e-07
-3.02854e-07
-2.97938e-07
-3.09544e-07
-3.20463e-07
-3.32467e-07
-3.9507e-07
-3.8048e-07
-3.91891e-07
-4.5444e-07
-4.4354e-07
-4.33692e-07
-4.25044e-07
-4.25682e-07
-4.05328e-07
-3.95024e-07
-3.7558e-07
-3.24168e-07
-2.62802e-07
-2.15697e-07
-1.27876e-07
-7.42394e-08
1.53635e-09
6.64771e-10
5.28541e-08
1.48251e-08
-8.81023e-09
-2.83551e-08
-1.12263e-07
-1.49749e-07
-2.02558e-07
-2.60504e-07
-2.61086e-07
-2.84335e-07
-3.30717e-07
-2.88385e-07
-3.22264e-07
-3.30172e-07
-2.86095e-07
-3.1624e-07
-2.89386e-07
-2.59998e-07
-2.82177e-07
-2.64304e-07
-3.0578e-07
-3.19402e-07
-3.93356e-07
-3.90468e-07
-4.0675e-07
-4.71519e-07
-4.71067e-07
-4.46766e-07
-4.56078e-07
-4.44548e-07
-4.37452e-07
-4.28447e-07
-4.05905e-07
-3.6054e-07
-2.87981e-07
-2.13113e-07
-1.27539e-07
-3.82113e-08
3.90435e-08
4.64034e-08
9.85102e-08
6.01664e-08
2.08188e-08
-8.62939e-09
-1.0762e-07
-1.72397e-07
-2.17393e-07
-2.95926e-07
-2.79245e-07
-3.08426e-07
-3.42951e-07
-2.88525e-07
-3.12971e-07
-3.30759e-07
-2.59782e-07
-3.07249e-07
-2.54418e-07
-2.1547e-07
-2.44788e-07
-2.16453e-07
-2.83285e-07
-3.13993e-07
-3.89357e-07
-4.13028e-07
-4.22428e-07
-4.95148e-07
-4.86249e-07
-4.59992e-07
-4.75011e-07
-4.64665e-07
-4.65363e-07
-4.69514e-07
-4.39769e-07
-4.02919e-07
-3.13527e-07
-2.11991e-07
-1.17588e-07
8.25158e-09
8.90886e-08
1.09145e-07
1.5099e-07
1.0841e-07
4.27281e-08
3.12492e-09
-1.24509e-07
-2.01946e-07
-2.50094e-07
-3.33294e-07
-3.07798e-07
-3.34921e-07
-3.57563e-07
-2.84683e-07
-3.04054e-07
-3.18691e-07
-2.36975e-07
-2.92787e-07
-2.14445e-07
-1.64914e-07
-1.91784e-07
-1.68138e-07
-2.54945e-07
-3.08615e-07
-3.83623e-07
-4.39884e-07
-4.37261e-07
-5.21837e-07
-4.97519e-07
-4.70272e-07
-4.87739e-07
-4.84478e-07
-5.00356e-07
-5.21046e-07
-4.78107e-07
-4.48189e-07
-3.31841e-07
-2.12507e-07
-9.09908e-08
6.27914e-08
1.60474e-07
1.80473e-07
2.14996e-07
1.53395e-07
6.67562e-08
3.1942e-09
-1.52618e-07
-2.43644e-07
-2.9723e-07
-3.78489e-07
-3.42456e-07
-3.70692e-07
-3.77854e-07
-2.8755e-07
-3.01056e-07
-3.01e-07
-2.23496e-07
-2.63455e-07
-1.63547e-07
-9.87675e-08
-1.27905e-07
-1.1434e-07
-2.33644e-07
-3.0376e-07
-3.84292e-07
-4.63111e-07
-4.57258e-07
-5.48146e-07
-5.04159e-07
-4.66835e-07
-4.86505e-07
-4.97356e-07
-5.46428e-07
-5.7053e-07
-5.18662e-07
-4.87779e-07
-3.48162e-07
-2.11801e-07
-5.74228e-08
1.30319e-07
2.45915e-07
2.59063e-07
2.75348e-07
1.8142e-07
7.65537e-08
-2.10324e-08
-1.95922e-07
-2.95821e-07
-3.43168e-07
-4.2236e-07
-3.71889e-07
-4.16507e-07
-3.96822e-07
-2.92528e-07
-2.91719e-07
-2.87125e-07
-2.17444e-07
-2.26581e-07
-8.49024e-08
-1.00423e-08
-4.10761e-08
-6.47448e-08
-2.21666e-07
-3.04475e-07
-3.92359e-07
-4.82007e-07
-4.84142e-07
-5.84393e-07
-5.12614e-07
-4.63415e-07
-4.76443e-07
-5.14199e-07
-5.99616e-07
-6.20607e-07
-5.62149e-07
-5.23202e-07
-3.59627e-07
-2.02934e-07
-8.48404e-09
2.18079e-07
3.52452e-07
3.5554e-07
3.41418e-07
2.09345e-07
7.30424e-08
-6.89484e-08
-2.63302e-07
-3.62214e-07
-4.01759e-07
-4.75372e-07
-4.15016e-07
-4.76553e-07
-4.16503e-07
-2.93053e-07
-2.78363e-07
-2.72456e-07
-2.15071e-07
-1.82961e-07
1.30879e-08
1.02285e-07
7.09947e-08
-1.54692e-08
-2.12938e-07
-3.11605e-07
-4.00386e-07
-5.07202e-07
-5.16525e-07
-6.27662e-07
-5.24342e-07
-4.61467e-07
-4.64673e-07
-5.38351e-07
-6.58669e-07
-6.72951e-07
-6.00744e-07
-5.55519e-07
-3.68986e-07
-2.00519e-07
5.24978e-08
3.29795e-07
4.91929e-07
4.69611e-07
4.09419e-07
2.26137e-07
5.04601e-08
-1.37374e-07
-3.47842e-07
-4.41658e-07
-4.69779e-07
-5.35659e-07
-4.65932e-07
-5.44817e-07
-4.39236e-07
-2.88799e-07
-2.60343e-07
-2.58233e-07
-2.13764e-07
-1.25564e-07
1.37931e-07
2.43493e-07
1.99837e-07
3.55492e-08
-2.10607e-07
-3.21595e-07
-4.10305e-07
-5.25744e-07
-5.45215e-07
-6.80828e-07
-5.40483e-07
-4.44752e-07
-4.36769e-07
-5.5896e-07
-7.25242e-07
-7.34203e-07
-6.39488e-07
-5.73695e-07
-3.65634e-07
-1.87187e-07
1.26931e-07
4.70644e-07
6.57609e-07
5.81435e-07
4.65445e-07
2.24846e-07
1.7094e-08
-2.23376e-07
-4.50141e-07
-5.39008e-07
-5.47215e-07
-6.10422e-07
-5.37633e-07
-6.35034e-07
-4.59404e-07
-2.74704e-07
-2.34442e-07
-2.51828e-07
-2.15221e-07
-4.91929e-08
3.05634e-07
4.18985e-07
3.3434e-07
7.32918e-08
-2.2305e-07
-3.28046e-07
-4.12847e-07
-5.32533e-07
-5.78047e-07
-7.50476e-07
-5.59859e-07
-4.13773e-07
-4.01711e-07
-5.92569e-07
-8.10037e-07
-8.08099e-07
-6.75805e-07
-5.68461e-07
-3.4583e-07
-1.57697e-07
2.15323e-07
6.57452e-07
8.54616e-07
6.98942e-07
5.066e-07
2.01768e-07
-2.5901e-08
-3.19583e-07
-5.66873e-07
-6.48073e-07
-6.18695e-07
-6.9561e-07
-6.2165e-07
-7.45251e-07
-4.77513e-07
-2.46156e-07
-2.08197e-07
-2.74212e-07
-2.23963e-07
4.93194e-08
5.24123e-07
6.32864e-07
4.75863e-07
9.71846e-08
-2.44518e-07
-3.29185e-07
-4.09402e-07
-5.48811e-07
-6.3396e-07
-8.36908e-07
-5.83925e-07
-3.72231e-07
-3.67877e-07
-6.43575e-07
-9.10685e-07
-8.8017e-07
-6.86753e-07
-5.31256e-07
-3.12832e-07
-1.09667e-07
3.2103e-07
8.82769e-07
1.06176e-06
8.04287e-07
5.26662e-07
1.65663e-07
-7.35762e-08
-4.23331e-07
-6.84197e-07
-7.59044e-07
-6.77185e-07
-7.96676e-07
-7.29846e-07
-8.92675e-07
-4.99771e-07
-1.99056e-07
-1.82491e-07
-3.31451e-07
-2.29593e-07
1.88373e-07
8.06834e-07
8.90358e-07
6.0624e-07
1.0384e-07
-2.74953e-07
-3.20464e-07
-3.96962e-07
-5.50785e-07
-7.02787e-07
-9.4168e-07
-6.14539e-07
-3.30313e-07
-3.49449e-07
-7.23006e-07
-1.01944e-06
-9.51228e-07
-6.62475e-07
-4.5375e-07
-2.72262e-07
-5.00185e-08
4.39827e-07
1.14141e-06
1.26407e-06
9.02811e-07
5.35795e-07
1.40647e-07
-1.26568e-07
-5.33913e-07
-8.00151e-07
-8.61071e-07
-7.22035e-07
-9.21671e-07
-8.58114e-07
-1.05993e-06
-4.91594e-07
-1.24694e-07
-1.70609e-07
-4.50044e-07
-2.28093e-07
3.78261e-07
1.16293e-06
1.15345e-06
7.06663e-07
8.36213e-08
-3.18674e-07
-3.03597e-07
-3.91888e-07
-5.63382e-07
-8.03013e-07
-1.04635e-06
-6.52626e-07
-2.84346e-07
-3.56067e-07
-8.29607e-07
-1.12885e-06
-9.98542e-07
-5.72759e-07
-3.52073e-07
-2.55371e-07
1.52304e-08
5.61197e-07
1.43273e-06
1.46835e-06
9.80439e-07
5.24192e-07
1.13967e-07
-1.9978e-07
-6.53615e-07
-8.99865e-07
-9.36769e-07
-7.42091e-07
-1.08614e-06
-9.90776e-07
-1.20853e-06
-4.12202e-07
-1.52118e-08
-2.05049e-07
-6.51409e-07
-1.92163e-07
6.46871e-07
1.59834e-06
1.41315e-06
7.6232e-07
7.6329e-08
-3.34447e-07
-2.47673e-07
-4.01839e-07
-5.97154e-07
-9.51783e-07
-1.14533e-06
-7.24305e-07
-2.55203e-07
-4.25624e-07
-9.50123e-07
-1.25537e-06
-1.03463e-06
-4.16708e-07
-2.32665e-07
-2.64412e-07
1.03617e-07
6.84817e-07
1.80292e-06
1.6692e-06
1.06129e-06
4.93608e-07
5.76281e-08
-3.17034e-07
-7.73304e-07
-9.58981e-07
-9.63515e-07
-7.8714e-07
-1.35246e-06
-1.13254e-06
-1.34566e-06
-2.05547e-07
5.64282e-08
-3.43314e-07
-9.68428e-07
-1.10813e-07
9.85582e-07
2.10333e-06
1.57145e-06
7.78054e-07
9.65221e-08
-3.14216e-07
-1.67944e-07
-4.59778e-07
-6.73727e-07
-1.14697e-06
-1.21534e-06
-8.30294e-07
-2.87519e-07
-5.63807e-07
-1.05762e-06
-1.39056e-06
-1.05767e-06
-2.59316e-07
-1.08392e-07
-3.31154e-07
2.36834e-07
7.36841e-07
2.22087e-06
1.79807e-06
1.16733e-06
4.52472e-07
-3.66553e-08
-5.47888e-07
-8.50967e-07
-9.15404e-07
-8.73712e-07
-8.77441e-07
-1.71904e-06
-1.2055e-06
-1.33622e-06
1.62053e-07
5.33088e-08
-6.406e-07
-1.36959e-06
8.50966e-08
1.39862e-06
2.6463e-06
1.53629e-06
7.89879e-07
1.85012e-07
-2.00813e-07
-1.07031e-07
-5.8301e-07
-8.29048e-07
-1.32734e-06
-1.30203e-06
-1.00634e-06
-4.6113e-07
-7.55732e-07
-1.13299e-06
-1.49277e-06
-1.10465e-06
1.015e-08
-6.92818e-08
-4.04965e-07
3.85485e-07
7.56128e-07
2.66858e-06
1.85321e-06
1.30627e-06
3.44659e-07
-1.86137e-07
-9.86708e-07
-8.88198e-07
-8.66159e-07
-6.66992e-07
-1.14176e-06
-2.17489e-06
-1.25695e-06
-1.17834e-06
6.48736e-07
-2.03629e-07
-1.16769e-06
-1.8606e-06
3.92481e-07
1.88002e-06
3.14979e-06
1.20556e-06
8.84103e-07
4.22672e-07
5.03613e-08
-1.29116e-07
-8.4655e-07
-1.12266e-06
-1.45373e-06
-1.39567e-06
-1.31369e-06
-7.21579e-07
-1.06111e-06
-1.24285e-06
-1.64639e-06
-1.24276e-06
4.50265e-07
-1.38613e-07
-3.88931e-07
5.67294e-07
6.53193e-07
3.14479e-06
1.86209e-06
1.72929e-06
2.85515e-07
-4.14954e-07
-1.47763e-06
-7.72577e-07
-5.49264e-07
-2.90453e-07
-1.65614e-06
-2.59704e-06
-1.14924e-06
-6.10901e-07
1.29146e-06
-6.18548e-07
-1.90841e-06
-2.27925e-06
8.61524e-07
2.41826e-06
3.49321e-06
5.665e-07
1.14914e-06
8.56527e-07
3.91676e-07
-2.26515e-07
-1.22471e-06
-1.45191e-06
-1.54455e-06
-1.55336e-06
-1.62218e-06
-1.01388e-06
-1.10278e-06
-9.56809e-07
-1.68681e-06
-1.27527e-06
1.08134e-06
-2.31743e-07
-3.06364e-08
7.69298e-07
6.09552e-07
3.4829e-06
1.97691e-06
1.91945e-06
2.76308e-07
-8.26626e-07
-2.07129e-06
-4.81142e-07
-6.88253e-08
3.64283e-07
-2.4522e-06
-2.83924e-06
-9.53051e-07
1.69064e-07
1.92859e-06
-1.26769e-06
-2.76777e-06
-2.47502e-06
1.54983e-06
3.09652e-06
3.61779e-06
-2.52782e-07
1.91404e-06
1.4728e-06
9.30883e-07
-3.17365e-07
-1.5959e-06
-1.63e-06
-1.24849e-06
-1.16254e-06
-1.74627e-06
-7.41564e-07
-1.00784e-06
-4.57589e-07
-1.8154e-06
-9.26021e-07
1.91363e-06
-3.06467e-07
1.02256e-06
1.23178e-06
9.50425e-07
4.19234e-06
2.21512e-06
3.56464e-06
4.46514e-07
-1.00981e-06
-1.89379e-06
5.86088e-07
1.31581e-06
1.05292e-06
-2.95823e-06
-2.52825e-06
1.31048e-07
2.08027e-06
2.69003e-06
-1.99352e-06
-3.49164e-06
-1.97533e-06
2.85752e-06
4.42881e-06
3.77701e-06
-7.67286e-07
3.50254e-06
2.61716e-06
1.73538e-06
-2.0274e-07
-1.85097e-06
-1.41176e-06
-2.66696e-07
-1.12729e-06
-1.58026e-06
-3.32913e-07
6.92423e-07
1.26436e-06
-1.45189e-06
-8.18459e-08
3.28317e-06
1.72148e-07
2.36054e-06
2.05911e-06
1.81358e-06
5.72123e-06
3.28479e-06
4.1613e-06
1.26108e-06
-1.53582e-06
-2.03879e-06
1.53197e-06
3.19041e-06
2.15778e-06
-4.02094e-06
-1.85874e-06
1.25994e-06
4.56782e-06
4.40757e-06
-2.2729e-06
-3.53284e-06
-1.25832e-06
4.39897e-06
6.32063e-06
4.09581e-06
-5.70789e-07
5.72164e-06
4.12023e-06
3.34278e-06
5.56319e-08
-1.83377e-06
-5.51605e-07
9.351e-07
-8.29744e-07
-1.03293e-06
8.62281e-07
1.42218e-06
2.79259e-06
-5.1576e-07
1.94673e-06
3.98229e-06
7.20808e-07
4.5457e-06
3.22119e-06
2.96444e-06
6.77648e-06
4.5402e-06
7.2506e-06
1.31221e-06
-1.43989e-06
-9.55541e-07
3.7675e-06
5.28395e-06
3.25842e-06
-4.13924e-06
-8.15921e-07
3.20052e-06
7.36457e-06
5.55457e-06
-2.26066e-06
-3.43489e-06
8.91132e-07
6.88014e-06
8.76905e-06
4.29551e-06
-3.547e-07
8.94541e-06
5.71249e-06
4.48189e-06
1.02059e-06
-2.0633e-06
9.6035e-07
2.59661e-06
-1.77451e-06
-7.58824e-07
7.92968e-07
5.56528e-06
6.46944e-06
-1.31042e-06
3.12565e-06
5.22373e-06
2.30827e-06
6.32776e-06
3.71357e-06
3.31726e-06
8.18813e-06
5.44874e-06
8.57881e-06
9.05064e-07
-2.68732e-06
-1.22907e-06
4.72642e-06
8.70815e-06
4.07772e-06
-4.80723e-06
-2.21976e-07
4.82781e-06
1.00692e-05
6.84192e-06
-3.71212e-06
-3.32128e-06
9.74148e-07
8.95931e-06
1.05218e-05
2.72437e-06
-5.40294e-08
1.16012e-05
7.61258e-06
4.97585e-06
-3.1653e-07
-2.73297e-06
4.42361e-07
3.78417e-06
-3.26743e-06
-1.88356e-06
1.60844e-06
5.70675e-06
6.52558e-06
-3.75414e-07
2.78106e-06
5.33246e-06
3.2033e-06
7.57159e-06
2.85705e-06
4.24372e-06
9.41791e-06
6.48279e-06
1.06304e-05
7.26072e-07
-4.97221e-06
-1.48501e-06
7.32839e-06
1.11213e-05
2.40189e-06
-7.71792e-06
-1.50711e-08
4.91514e-06
1.22697e-05
7.22504e-06
-3.34834e-06
-3.61171e-06
1.54635e-06
1.13896e-05
1.11429e-05
1.8249e-06
4.22752e-07
1.45614e-05
7.30754e-06
4.95578e-06
-9.90324e-07
-3.15978e-06
3.43999e-06
4.06421e-06
-5.07365e-06
-1.23612e-06
1.16972e-06
6.73299e-06
8.72364e-06
-1.1451e-06
3.24393e-06
6.09131e-06
3.51879e-06
8.3513e-06
2.51605e-06
2.70796e-06
9.34384e-06
5.732e-06
1.06482e-05
-5.69355e-07
-4.78851e-06
-1.78926e-06
7.05294e-06
1.30872e-05
2.83492e-06
-8.6435e-06
1.12116e-08
5.09611e-06
1.3237e-05
7.61869e-06
-4.97139e-06
-4.24461e-06
1.50009e-06
1.15653e-05
1.13039e-05
8.9738e-07
7.17609e-07
1.61134e-05
6.33224e-06
4.39858e-06
3.29146e-07
-3.07996e-06
2.38653e-06
4.13936e-06
-6.3516e-06
-1.51628e-06
8.23351e-07
6.69185e-06
7.8231e-06
-2.69154e-06
2.63972e-06
5.85971e-06
3.66632e-06
8.93441e-06
8.09041e-07
2.25478e-06
9.61535e-06
5.30153e-06
1.10114e-05
-5.05027e-07
-7.30137e-06
-2.64091e-06
7.07655e-06
1.40338e-05
1.3017e-06
-1.01203e-05
-3.56203e-07
5.21667e-06
1.32945e-05
7.44138e-06
-4.64842e-06
-4.27687e-06
5.71759e-07
1.18225e-05
1.02075e-05
-8.66389e-08
8.76237e-07
1.7299e-05
5.50701e-06
3.66907e-06
-5.95215e-07
-3.23166e-06
3.76471e-06
4.13892e-06
-7.07745e-06
-1.49905e-06
8.9745e-07
5.94753e-06
7.3772e-06
-2.49208e-06
2.98157e-06
6.01773e-06
3.62552e-06
8.29938e-06
4.01252e-07
2.00266e-06
9.72856e-06
5.07369e-06
1.04348e-05
-1.40122e-06
-7.67275e-06
-2.92492e-06
6.61597e-06
1.40247e-05
1.69624e-06
-1.07853e-05
-4.10345e-07
3.86167e-06
1.28941e-05
7.47853e-06
-4.46152e-06
-4.67211e-06
-4.82287e-07
1.13785e-05
1.10256e-05
-4.87933e-07
8.78988e-07
1.78083e-05
4.68311e-06
2.97871e-06
4.28068e-07
-3.05269e-06
3.18366e-06
3.91214e-06
-7.42136e-06
-9.18847e-07
7.40243e-07
5.54871e-06
7.09349e-06
-3.19248e-06
3.16468e-06
6.0537e-06
2.61503e-06
7.89738e-06
4.71923e-07
2.01415e-06
9.7298e-06
4.35152e-06
1.01495e-05
-1.59879e-06
-7.77957e-06
-3.00496e-06
6.17447e-06
1.37886e-05
1.43485e-06
-1.11977e-05
-3.86163e-07
3.35839e-06
1.26858e-05
7.59074e-06
-4.1473e-06
-4.66412e-06
-9.97113e-07
1.11554e-05
1.07922e-05
-6.039e-07
1.06304e-06
1.78675e-05
4.16905e-06
2.53308e-06
3.38029e-07
-3.05777e-06
3.01406e-06
3.57027e-06
-7.68903e-06
-9.19425e-07
8.5787e-07
5.10125e-06
6.96994e-06
-3.12245e-06
3.4098e-06
6.21859e-06
2.59798e-06
7.66868e-06
2.5544e-07
2.17659e-06
9.69718e-06
4.03049e-06
9.80968e-06
-1.76965e-06
-7.37129e-06
-3.26969e-06
5.88964e-06
1.38312e-05
1.34969e-06
-1.08854e-05
-1.93815e-07
3.02358e-06
1.25572e-05
7.70975e-06
-3.97149e-06
-5.0571e-06
-1.12601e-06
1.12128e-05
1.09267e-05
-6.1356e-07
1.18811e-06
1.76693e-05
3.91483e-06
2.43146e-06
2.7567e-07
-3.26352e-06
3.04164e-06
3.10261e-06
-7.83987e-06
-9.22394e-07
7.28786e-07
4.90553e-06
6.99087e-06
-3.16275e-06
3.56005e-06
6.30267e-06
2.64417e-06
7.51152e-06
1.51187e-07
2.26224e-06
9.71356e-06
3.9658e-06
9.80795e-06
-1.99441e-06
-7.28584e-06
-3.3055e-06
6.0136e-06
1.39373e-05
1.2618e-06
-1.06837e-05
-6.48743e-08
2.90545e-06
1.26926e-05
7.94102e-06
-3.94465e-06
-5.30415e-06
-1.11858e-06
1.12013e-05
1.10808e-05
-6.10889e-07
1.17732e-06
1.74605e-05
3.95902e-06
2.40638e-06
1.14009e-07
-3.46968e-06
3.12355e-06
2.73082e-06
-3.62209e-07
-3.46319e-07
-3.43044e-07
-3.16501e-07
-3.19892e-07
-3.0106e-07
-2.79491e-07
-2.73699e-07
-2.24159e-07
-2.19482e-07
-1.94528e-07
-1.51792e-07
-1.30467e-07
-1.27118e-07
-7.41859e-08
-9.33531e-08
-1.05582e-07
-7.70786e-08
-1.24299e-07
-1.29923e-07
-1.50613e-07
-1.98118e-07
-2.17957e-07
-2.42106e-07
-2.79958e-07
-2.77262e-07
-3.18844e-07
-3.40757e-07
-3.21156e-07
-3.73677e-07
-3.57173e-07
-3.52657e-07
-3.99077e-07
-3.60478e-07
-3.96421e-07
-3.92023e-07
-3.82769e-07
-3.82769e-07
-3.49587e-07
-3.76156e-07
-3.96777e-07
-3.64551e-07
-3.65248e-07
-3.34539e-07
-3.317e-07
-3.27687e-07
-2.85087e-07
-3.12148e-07
-2.26246e-07
-2.36551e-07
-2.00511e-07
-1.41096e-07
-1.21903e-07
-9.36414e-08
-6.16219e-08
-5.57691e-08
-7.85508e-08
-6.51344e-08
-8.9727e-08
-1.37384e-07
-1.33958e-07
-1.99828e-07
-2.16124e-07
-2.34876e-07
-2.72385e-07
-2.80651e-07
-3.16034e-07
-3.36921e-07
-3.34423e-07
-3.60338e-07
-3.60433e-07
-3.38534e-07
-3.90304e-07
-3.29298e-07
-3.89959e-07
-3.64924e-07
-3.721e-07
-4.03557e-07
-3.67787e-07
-3.90885e-07
-4.19255e-07
-3.7209e-07
-3.9091e-07
-3.57984e-07
-3.65508e-07
-3.54912e-07
-3.12909e-07
-3.32858e-07
-2.45997e-07
-2.40399e-07
-2.02291e-07
-1.35066e-07
-1.08951e-07
-6.42821e-08
-4.34407e-08
-2.22248e-08
-4.17094e-08
-5.49372e-08
-5.8811e-08
-1.41262e-07
-1.26744e-07
-2.03364e-07
-2.19156e-07
-2.4149e-07
-2.69288e-07
-2.99041e-07
-3.10997e-07
-3.36923e-07
-3.43295e-07
-3.43865e-07
-3.53939e-07
-3.32761e-07
-3.61331e-07
-3.16803e-07
-3.67777e-07
-3.43066e-07
-3.61103e-07
-4.01494e-07
-3.74565e-07
-3.81964e-07
-4.45703e-07
-3.99462e-07
-4.18706e-07
-3.87039e-07
-3.9826e-07
-3.73e-07
-3.50539e-07
-3.43193e-07
-2.82179e-07
-2.37339e-07
-2.07808e-07
-1.23055e-07
-9.03194e-08
-2.42477e-08
-1.55353e-08
1.74318e-08
-3.24674e-09
-4.08088e-08
-3.91848e-08
-1.3509e-07
-1.32232e-07
-2.01348e-07
-2.31061e-07
-2.51283e-07
-2.70242e-07
-3.21539e-07
-3.03505e-07
-3.41803e-07
-3.52e-07
-3.29317e-07
-3.45396e-07
-3.26205e-07
-3.16185e-07
-3.09026e-07
-3.23119e-07
-3.31204e-07
-3.45035e-07
-4.0275e-07
-3.86209e-07
-3.926e-07
-4.55385e-07
-4.2602e-07
-4.25309e-07
-4.16313e-07
-4.14117e-07
-4.00562e-07
-3.86365e-07
-3.65167e-07
-3.20217e-07
-2.4549e-07
-2.07791e-07
-1.09313e-07
-6.41231e-08
2.30854e-08
1.60725e-08
6.35681e-08
2.99403e-08
-2.22559e-08
-3.58698e-08
-1.30372e-07
-1.56924e-07
-1.99952e-07
-2.57583e-07
-2.56129e-07
-2.80678e-07
-3.33369e-07
-2.97766e-07
-3.38709e-07
-3.55737e-07
-3.08256e-07
-3.32193e-07
-3.07422e-07
-2.68401e-07
-2.97577e-07
-2.77045e-07
-3.24855e-07
-3.32415e-07
-4.07602e-07
-3.99712e-07
-4.08979e-07
-4.72253e-07
-4.50948e-07
-4.30627e-07
-4.4016e-07
-4.24164e-07
-4.32183e-07
-4.18159e-07
-4.00172e-07
-3.52828e-07
-2.63668e-07
-1.93311e-07
-9.98312e-08
-1.95864e-08
6.51468e-08
6.35812e-08
1.06654e-07
6.29361e-08
-1.09688e-08
-4.04256e-08
-1.35352e-07
-1.87123e-07
-2.08501e-07
-2.89597e-07
-2.6394e-07
-2.99855e-07
-3.41108e-07
-2.99724e-07
-3.33655e-07
-3.59744e-07
-2.82356e-07
-3.16132e-07
-2.67412e-07
-2.19695e-07
-2.64391e-07
-2.35155e-07
-3.12577e-07
-3.33837e-07
-4.10352e-07
-4.23857e-07
-4.26945e-07
-4.94835e-07
-4.67169e-07
-4.41285e-07
-4.49936e-07
-4.38454e-07
-4.5892e-07
-4.59392e-07
-4.35093e-07
-3.88164e-07
-2.81936e-07
-1.76857e-07
-8.2439e-08
3.50673e-08
1.13802e-07
1.21636e-07
1.41272e-07
8.71503e-08
-1.84555e-08
-5.41178e-08
-1.61689e-07
-2.16089e-07
-2.32017e-07
-3.18649e-07
-2.81033e-07
-3.14869e-07
-3.42769e-07
-2.90103e-07
-3.25288e-07
-3.51575e-07
-2.59553e-07
-2.94385e-07
-2.17794e-07
-1.68659e-07
-2.16554e-07
-1.98345e-07
-2.93499e-07
-3.34822e-07
-4.03361e-07
-4.4742e-07
-4.37834e-07
-5.24183e-07
-4.83706e-07
-4.49388e-07
-4.47369e-07
-4.49507e-07
-4.85961e-07
-5.11935e-07
-4.78694e-07
-4.35106e-07
-2.94868e-07
-1.63275e-07
-4.54958e-08
9.93318e-08
1.85118e-07
1.8737e-07
1.87363e-07
1.05361e-07
-2.60568e-08
-8.21255e-08
-2.03123e-07
-2.54127e-07
-2.69163e-07
-3.48513e-07
-3.01962e-07
-3.25162e-07
-3.37793e-07
-2.71168e-07
-3.14666e-07
-3.27037e-07
-2.39406e-07
-2.61566e-07
-1.66417e-07
-1.14422e-07
-1.69471e-07
-1.62415e-07
-2.82946e-07
-3.39481e-07
-4.10788e-07
-4.74142e-07
-4.57316e-07
-5.4503e-07
-4.88799e-07
-4.39563e-07
-4.34642e-07
-4.53733e-07
-5.22682e-07
-5.67802e-07
-5.34231e-07
-4.81514e-07
-3.08512e-07
-1.45765e-07
6.14936e-09
1.76572e-07
2.69644e-07
2.52886e-07
2.32699e-07
1.07595e-07
-4.23065e-08
-1.27854e-07
-2.59972e-07
-3.09926e-07
-3.15927e-07
-3.86202e-07
-3.21828e-07
-3.377e-07
-3.20164e-07
-2.44274e-07
-2.9212e-07
-2.97467e-07
-2.18951e-07
-2.17644e-07
-9.32004e-08
-4.10393e-08
-1.00041e-07
-1.29351e-07
-2.86136e-07
-3.55827e-07
-4.34699e-07
-5.02843e-07
-4.83468e-07
-5.68649e-07
-4.89723e-07
-4.22261e-07
-4.18038e-07
-4.64702e-07
-5.79788e-07
-6.44028e-07
-6.02613e-07
-5.18983e-07
-3.02302e-07
-1.05957e-07
8.23803e-08
2.80082e-07
3.72615e-07
3.25424e-07
2.69083e-07
9.66432e-08
-7.20966e-08
-1.84159e-07
-3.32839e-07
-3.7745e-07
-3.73031e-07
-4.24899e-07
-3.36092e-07
-3.442e-07
-2.88094e-07
-2.03804e-07
-2.55183e-07
-2.66849e-07
-2.09937e-07
-1.79843e-07
-1.22588e-08
4.65489e-08
-1.44346e-08
-1.02143e-07
-2.96424e-07
-3.89741e-07
-4.75778e-07
-5.46504e-07
-5.16078e-07
-5.77957e-07
-4.69327e-07
-3.8837e-07
-3.92965e-07
-4.86997e-07
-6.66384e-07
-7.49818e-07
-6.88421e-07
-5.64507e-07
-2.91448e-07
-5.37909e-08
1.82986e-07
4.04933e-07
4.93206e-07
4.01924e-07
2.9185e-07
6.51584e-08
-1.22992e-07
-2.54317e-07
-4.24116e-07
-4.6233e-07
-4.42734e-07
-4.67326e-07
-3.45397e-07
-3.4788e-07
-2.47432e-07
-1.48956e-07
-2.06979e-07
-2.37944e-07
-2.05052e-07
-1.35843e-07
8.78783e-08
1.57505e-07
8.59952e-08
-7.95695e-08
-3.22434e-07
-4.32494e-07
-5.19214e-07
-5.78217e-07
-5.30544e-07
-5.78439e-07
-4.29043e-07
-3.34572e-07
-3.54755e-07
-5.21372e-07
-7.81357e-07
-8.72181e-07
-7.78094e-07
-6.07124e-07
-2.74874e-07
6.88245e-09
3.01982e-07
5.59602e-07
6.32476e-07
4.85884e-07
3.07453e-07
1.62281e-08
-1.91839e-07
-3.46467e-07
-5.31562e-07
-5.55595e-07
-5.06873e-07
-5.03992e-07
-3.43697e-07
-3.4469e-07
-1.85414e-07
-7.94798e-08
-1.58494e-07
-2.33025e-07
-2.21656e-07
-9.019e-08
2.13002e-07
2.85765e-07
1.81416e-07
-8.19937e-08
-3.78714e-07
-4.87665e-07
-5.76609e-07
-6.10166e-07
-5.42952e-07
-5.72527e-07
-3.76188e-07
-2.63184e-07
-3.09371e-07
-5.76353e-07
-9.28525e-07
-1.0109e-06
-8.64239e-07
-6.3887e-07
-2.44556e-07
8.17505e-08
4.39408e-07
7.53145e-07
7.95213e-07
5.73253e-07
3.03213e-07
-4.21449e-08
-2.81638e-07
-4.7664e-07
-6.71109e-07
-6.62757e-07
-5.69655e-07
-5.5311e-07
-3.38421e-07
-3.39315e-07
-1.06164e-07
3.37688e-09
-1.18691e-07
-2.56842e-07
-2.47131e-07
-2.10493e-08
3.78237e-07
4.44079e-07
2.8472e-07
-9.08498e-08
-4.53956e-07
-5.56468e-07
-6.46364e-07
-6.45582e-07
-5.55071e-07
-5.66962e-07
-3.25015e-07
-2.00231e-07
-2.79791e-07
-6.69516e-07
-1.11746e-06
-1.15459e-06
-9.34887e-07
-6.51243e-07
-1.94209e-07
1.8846e-07
6.09599e-07
1.00363e-06
9.89427e-07
6.75483e-07
2.81917e-07
-1.08346e-07
-4.07974e-07
-6.48847e-07
-8.43324e-07
-7.79162e-07
-6.31394e-07
-6.19661e-07
-3.33624e-07
-3.28507e-07
1.00925e-08
8.92341e-08
-1.01174e-07
-3.32636e-07
-2.74855e-07
8.2059e-08
5.91885e-07
6.26996e-07
3.7862e-07
-1.12672e-07
-5.38924e-07
-6.29016e-07
-7.20411e-07
-6.85154e-07
-5.69946e-07
-5.44175e-07
-2.75764e-07
-1.39627e-07
-2.50451e-07
-8.03824e-07
-1.35321e-06
-1.31896e-06
-1.00794e-06
-6.76346e-07
-1.38535e-07
3.1856e-07
7.99267e-07
1.30579e-06
1.21497e-06
7.93977e-07
2.54882e-07
-1.63335e-07
-5.87212e-07
-8.51015e-07
-1.02252e-06
-8.82282e-07
-7.07048e-07
-7.31321e-07
-3.44968e-07
-3.199e-07
1.59787e-07
1.56324e-07
-1.39041e-07
-4.81579e-07
-2.88545e-07
2.46079e-07
8.51232e-07
8.11994e-07
4.44482e-07
-1.43739e-07
-6.26555e-07
-7.09009e-07
-8.15659e-07
-7.37417e-07
-5.71629e-07
-5.04882e-07
-2.58135e-07
-1.11056e-07
-2.36547e-07
-9.75811e-07
-1.62336e-06
-1.48951e-06
-1.08609e-06
-6.7766e-07
-3.48041e-08
4.90565e-07
1.01578e-06
1.64839e-06
1.45516e-06
9.07112e-07
1.9477e-07
-2.32297e-07
-8.77878e-07
-1.10557e-06
-1.1929e-06
-9.329e-07
-7.89129e-07
-8.78576e-07
-3.46602e-07
-2.91803e-07
3.65469e-07
1.66253e-07
-2.53712e-07
-7.1534e-07
-2.45796e-07
4.84167e-07
1.1482e-06
9.45182e-07
4.57416e-07
-1.62329e-07
-7.02626e-07
-8.03189e-07
-9.57186e-07
-7.87262e-07
-5.48999e-07
-4.93775e-07
-3.15212e-07
-1.43212e-07
-2.34511e-07
-1.17452e-06
-1.92748e-06
-1.6767e-06
-1.2063e-06
-6.78278e-07
1.2456e-07
6.98814e-07
1.23504e-06
2.03981e-06
1.70844e-06
1.04984e-06
1.55184e-07
-2.98783e-07
-1.3308e-06
-1.41051e-06
-1.3633e-06
-9.39629e-07
-9.92049e-07
-1.14155e-06
-3.58981e-07
-2.29698e-07
6.08132e-07
1.5912e-08
-5.03644e-07
-1.02351e-06
-4.85098e-08
8.15718e-07
1.44582e-06
9.78394e-07
4.42025e-07
-1.26837e-07
-7.63471e-07
-9.69478e-07
-1.18788e-06
-8.39187e-07
-5.00802e-07
-5.64259e-07
-5.01788e-07
-2.8469e-07
-2.0137e-07
-1.40924e-06
-2.26771e-06
-1.90649e-06
-1.3919e-06
-6.50771e-07
4.09754e-07
9.51646e-07
1.39908e-06
2.42332e-06
1.93483e-06
1.2368e-06
1.04676e-07
-3.85565e-07
-2.06551e-06
-1.65187e-06
-1.4154e-06
-8.30069e-07
-1.38769e-06
-1.49477e-06
-3.45886e-07
-6.50224e-08
8.94795e-07
-3.67838e-07
-9.00436e-07
-1.37877e-06
4.00314e-07
1.1905e-06
1.6762e-06
8.44797e-07
4.57983e-07
2.93785e-08
-7.99138e-07
-1.27801e-06
-1.49022e-06
-8.40919e-07
-3.73362e-07
-7.73291e-07
-8.52034e-07
-5.52266e-07
-9.85619e-08
-1.75526e-06
-2.66365e-06
-2.26462e-06
-1.64096e-06
-5.30168e-07
8.54092e-07
1.15036e-06
1.54989e-06
2.74956e-06
2.22934e-06
1.49133e-06
1.14404e-07
-6.52545e-07
-3.21843e-06
-1.86687e-06
-1.4182e-06
-6.67306e-07
-2.22754e-06
-1.90571e-06
-4.00028e-07
2.73515e-07
1.13346e-06
-1.12194e-06
-1.47003e-06
-1.76211e-06
1.16334e-06
1.53302e-06
1.66187e-06
4.83656e-07
4.90068e-07
3.68689e-07
-9.40348e-07
-1.78148e-06
-1.91201e-06
-7.40136e-07
-2.10735e-07
-1.19195e-06
-1.53032e-06
-1.00955e-06
1.08849e-07
-2.22213e-06
-3.12607e-06
-2.80934e-06
-2.02567e-06
-4.06534e-07
1.36615e-06
1.21437e-06
1.54833e-06
2.92742e-06
2.5122e-06
1.74215e-06
2.4983e-07
-1.2961e-06
-4.90825e-06
-1.7842e-06
-1.19375e-06
-5.3241e-07
-3.68348e-06
-2.26592e-06
-5.25204e-07
9.3323e-07
1.1361e-06
-2.25578e-06
-2.18747e-06
-2.01714e-06
2.32744e-06
1.64758e-06
1.54198e-06
-2.5616e-07
7.57006e-07
8.44916e-07
-1.28067e-06
-2.65926e-06
-2.47053e-06
-5.16077e-07
-1.23964e-07
-1.87634e-06
-2.7034e-06
-1.77313e-06
9.82597e-08
-3.01151e-06
-3.90025e-06
-3.92383e-06
-2.91014e-06
-2.90429e-08
1.92555e-06
9.85024e-07
1.29674e-06
2.74211e-06
2.89714e-06
1.7208e-06
4.20765e-07
-2.61106e-06
-7.03019e-06
-2.22721e-06
-1.18573e-06
-8.02764e-07
-5.78447e-06
-2.81946e-06
-1.16196e-06
1.53446e-06
3.30823e-07
-4.04959e-06
-3.35545e-06
-2.3997e-06
3.44743e-06
1.14887e-06
7.63686e-07
-1.45544e-06
9.424e-07
1.26468e-06
-2.16473e-06
-4.01576e-06
-3.43892e-06
-3.08512e-07
-4.02307e-07
-3.17103e-06
-4.40603e-06
-2.84666e-06
-4.61504e-07
-4.44495e-06
-5.32935e-06
-5.85013e-06
-4.19724e-06
-5.54331e-07
1.86252e-06
2.09924e-07
2.84193e-07
2.08827e-06
2.65886e-06
1.75627e-06
-1.7313e-07
-5.46936e-06
-9.79451e-06
-2.09019e-06
-1.30936e-06
-2.27794e-06
-8.74691e-06
-3.27616e-06
-1.72687e-06
2.4632e-06
-1.55993e-06
-6.49089e-06
-5.1933e-06
-2.33691e-06
4.62487e-06
1.14931e-07
-4.23865e-07
-3.45581e-06
1.56722e-06
1.33133e-06
-3.77023e-06
-6.02066e-06
-4.33652e-06
-5.79116e-07
-1.03883e-06
-4.5241e-06
-6.97011e-06
-4.13512e-06
-1.226e-06
-6.07168e-06
-7.18826e-06
-8.25236e-06
-6.14981e-06
1.9032e-07
1.67403e-06
-9.3738e-07
-9.03845e-07
1.30252e-06
2.88481e-06
1.56752e-06
4.05999e-07
-8.86251e-06
-1.27248e-05
-3.11281e-06
-1.80007e-06
-4.19433e-06
-1.27729e-05
-5.21494e-06
-2.80408e-06
3.33702e-06
-3.77775e-06
-9.2319e-06
-7.07508e-06
-2.79901e-06
5.24195e-06
-1.44742e-06
-2.19417e-06
-5.3933e-06
1.94544e-06
1.28898e-06
-5.79236e-06
-8.74007e-06
-5.7528e-06
-7.58176e-07
-2.36332e-06
-6.58127e-06
-8.25233e-06
-4.34304e-06
-1.75063e-06
-7.82841e-06
-9.01758e-06
-1.16912e-05
-7.51135e-06
-5.32042e-07
8.24161e-07
-2.69308e-06
-3.03761e-06
3.21884e-07
2.83963e-06
1.47301e-06
-1.62014e-06
-1.21625e-05
-1.49129e-05
-1.4981e-06
-1.3422e-06
-6.52303e-06
-1.49012e-05
-5.05684e-06
-3.66551e-06
3.89445e-06
-6.52435e-06
-1.16062e-05
-8.87949e-06
-1.69509e-06
6.30922e-06
-3.32364e-06
-3.57201e-06
-7.07859e-06
3.91476e-06
1.78467e-06
-7.69226e-06
-1.10865e-05
-6.52857e-06
-7.06333e-07
-3.45304e-06
-8.10957e-06
-1.13301e-05
-4.35146e-06
-2.92792e-07
-8.75168e-06
-1.10526e-05
-1.34984e-05
-8.39322e-06
1.9539e-06
1.7897e-06
-2.60971e-06
-3.98656e-06
-5.79534e-08
3.64631e-06
3.29944e-06
-1.55045e-07
-1.52253e-05
-1.65558e-05
-5.81437e-07
-5.44494e-07
-8.53911e-06
-1.78452e-05
-6.28726e-06
-1.67149e-06
6.7449e-06
-9.13871e-06
-1.3453e-05
-9.34771e-06
-7.44786e-07
7.77157e-06
-4.74198e-06
-5.44378e-06
-8.11863e-06
5.77855e-06
2.68459e-06
-1.0024e-05
-1.31423e-05
-6.74247e-06
-1.7639e-06
-4.65075e-06
-9.61371e-06
-1.14992e-05
-3.2013e-06
5.64394e-07
-9.489e-06
-1.14852e-05
-1.59389e-05
-8.36686e-06
1.81653e-06
1.33022e-06
-3.88686e-06
-5.35814e-06
1.00928e-06
4.6426e-06
2.9591e-06
-2.5621e-06
-1.64518e-05
-1.66806e-05
2.21088e-06
1.28636e-06
-1.0951e-05
-1.94764e-05
-5.74448e-06
-6.76087e-07
7.55058e-06
-1.16688e-05
-1.55149e-05
-1.01482e-05
9.59046e-07
9.22385e-06
-6.17644e-06
-6.17503e-06
-8.41161e-06
9.27164e-06
3.4664e-06
-1.06298e-05
-1.29177e-05
-6.52499e-06
-3.06475e-07
-5.0399e-06
-1.06552e-05
-1.33038e-05
-2.7316e-06
3.6734e-06
-9.78038e-06
-1.24897e-05
-1.63753e-05
-8.23118e-06