/*--------------------------------*- C++ -*----------------------------------*\
  =========                 |
  \\      /  F ield         | OpenFOAM: The Open Source CFD Toolbox
   \\    /   O peration     | Website:  https://openfoam.org
    \\  /    A nd           | Version:  10
     \\/     M anipulation  |
\*---------------------------------------------------------------------------*/
FoamFile
{
    format      ascii;
    class       volSymmTensorField;
    location    "25";
    object      UPrime2Mean;
}
// * * * * * * * * * * * * * * * * * * * * * * * * * * * * * * * * * * * * * //

dimensions      [0 2 -2 0 0 0 0];

internalField   nonuniform List<symmTensor> 
25600
(
(0.000151866 -3.43433e-07 2.51598e-07 2.7708e-07 -1.18431e-08 6.88337e-08)
(0.000151925 -2.14851e-07 4.15483e-07 2.51411e-07 -1.7621e-08 6.94455e-08)
(0.00015153 -2.72364e-07 3.22813e-07 2.85053e-07 -1.2968e-08 6.23788e-08)
(0.000152121 -3.77919e-07 4.33949e-07 2.88346e-07 -1.65935e-08 5.97418e-08)
(0.000151767 -2.78482e-07 4.75875e-07 3.02639e-07 -1.96781e-08 5.76695e-08)
(0.000151793 -4.54438e-07 3.80455e-07 2.93734e-07 -3.92936e-08 4.93952e-08)
(0.000152017 -4.51562e-07 5.09051e-07 2.85355e-07 -3.26297e-08 5.33181e-08)
(0.000151525 -5.46358e-07 4.03512e-07 3.46562e-07 -2.50581e-08 4.67606e-08)
(0.000151982 -5.67761e-07 4.70044e-07 2.66515e-07 -2.19546e-08 4.4515e-08)
(0.000151252 -6.76602e-07 3.7687e-07 3.11641e-07 4.78102e-09 4.08017e-08)
(0.000151665 -6.01938e-07 3.74414e-07 3.23038e-07 -6.33149e-09 3.17594e-08)
(0.000152036 -5.41552e-07 4.10968e-07 2.41436e-07 9.95741e-09 3.7985e-08)
(0.000151296 -6.95576e-07 3.07517e-07 3.35201e-07 1.03177e-08 3.49351e-08)
(0.000151867 -6.40999e-07 2.90867e-07 2.90744e-07 -5.21877e-09 3.9161e-08)
(0.000152091 -5.09791e-07 3.54612e-07 2.88211e-07 7.3375e-09 4.15799e-08)
(0.000151973 -5.17623e-07 2.7187e-07 3.23234e-07 -1.32681e-08 3.66311e-08)
(0.000152081 -5.93641e-07 2.13222e-07 2.83333e-07 -5.93737e-10 4.75179e-08)
(0.00015231 -1.80015e-07 3.10033e-07 3.42548e-07 8.16095e-09 4.35615e-08)
(0.000152344 -4.63142e-07 1.84183e-07 2.90272e-07 -7.21958e-09 4.47856e-08)
(0.000152275 -1.56985e-07 2.17507e-07 2.78294e-07 1.23179e-08 5.31443e-08)
(0.000152307 -2.03901e-07 1.53086e-07 3.0696e-07 4.73433e-09 4.59733e-08)
(0.000152463 -3.20293e-07 1.85801e-07 2.72461e-07 1.24423e-08 5.50548e-08)
(0.000152281 7.23761e-08 1.37295e-07 3.2234e-07 2.1653e-08 4.43529e-08)
(0.000152433 -3.67837e-07 1.18416e-07 2.3589e-07 9.92421e-10 4.00777e-08)
(0.000152758 -8.52087e-08 1.00323e-07 2.576e-07 1.77536e-08 5.21789e-08)
(0.00015235 -1.60721e-07 7.94584e-08 2.63366e-07 1.07423e-08 4.96049e-08)
(0.000152374 -2.15105e-07 1.0839e-07 2.11936e-07 9.66256e-09 6.29739e-08)
(0.000152686 -1.76255e-07 -3.26858e-08 2.69268e-07 4.08081e-09 6.48788e-08)
(0.000152036 -1.6943e-07 7.34461e-08 1.93922e-07 2.45031e-09 6.5383e-08)
(0.00015192 -2.14457e-07 -4.79196e-08 2.20559e-07 1.32937e-08 6.51494e-08)
(0.000152353 -3.10876e-07 5.83046e-08 2.41291e-07 -8.90395e-09 5.92017e-08)
(0.000152016 -6.38123e-08 -2.26429e-08 1.80255e-07 8.55314e-09 6.25477e-08)
(0.000151763 -3.69916e-07 1.39262e-08 2.93011e-07 1.21564e-08 5.82777e-08)
(0.000151839 -2.35286e-07 1.3807e-08 2.57253e-07 -8.14944e-09 6.63927e-08)
(0.000152212 -9.39412e-08 4.47874e-08 2.45498e-07 1.00434e-08 6.73473e-08)
(0.000151801 -2.82468e-07 1.00201e-07 2.87895e-07 -4.55222e-09 6.10116e-08)
(0.000151562 -2.06593e-07 2.32093e-08 1.89086e-07 -5.03833e-09 7.72393e-08)
(0.000152011 -1.46998e-07 2.46194e-07 2.20294e-07 -3.47194e-10 7.20315e-08)
(0.000151636 -2.10984e-07 1.9264e-07 2.2828e-07 -1.5084e-08 7.37091e-08)
(0.000151508 -1.71416e-07 2.38054e-07 2.26078e-07 -1.05323e-08 7.35521e-08)
(0.000151873 -5.0871e-07 4.32636e-07 2.89676e-07 1.16017e-08 6.49348e-08)
(0.000152002 -4.60568e-07 5.55804e-07 2.55441e-07 -2.06185e-09 6.49386e-08)
(0.000151502 -5.60332e-07 4.52873e-07 2.99441e-07 1.75133e-09 6.36019e-08)
(0.000152187 -5.14222e-07 6.10042e-07 2.95999e-07 1.16426e-08 5.90061e-08)
(0.000151735 -5.20984e-07 6.03696e-07 2.95801e-07 7.342e-09 4.9358e-08)
(0.000151682 -5.96295e-07 4.63739e-07 2.87071e-07 -2.35374e-09 3.67527e-08)
(0.000151922 -6.22794e-07 6.44663e-07 3.11095e-07 8.5052e-09 4.36468e-08)
(0.000151381 -6.54295e-07 5.09888e-07 3.46558e-07 1.46558e-08 3.75426e-08)
(0.000151702 -7.0093e-07 5.43867e-07 2.80233e-07 4.29923e-09 4.26839e-08)
(0.000151168 -8.45904e-07 4.63192e-07 3.50204e-07 1.30857e-08 4.88783e-08)
(0.000151757 -6.67906e-07 4.61742e-07 3.37273e-07 1.06519e-08 4.31565e-08)
(0.000151841 -7.56389e-07 4.66674e-07 2.97164e-07 2.33514e-08 5.6139e-08)
(0.00015127 -8.73413e-07 3.15889e-07 3.94116e-07 2.68862e-08 5.50983e-08)
(0.000152119 -7.71963e-07 3.52338e-07 3.54622e-07 1.12808e-08 5.28715e-08)
(0.000152241 -6.61924e-07 3.98653e-07 3.50286e-07 9.35001e-09 5.35755e-08)
(0.000151957 -7.03591e-07 2.75862e-07 3.61148e-07 -9.15255e-10 4.629e-08)
(0.000152431 -7.12658e-07 2.31072e-07 3.24155e-07 -2.49233e-09 5.58418e-08)
(0.000152461 -3.75354e-07 3.3032e-07 3.54691e-07 1.01652e-09 5.60432e-08)
(0.000152398 -5.59344e-07 1.68674e-07 3.00828e-07 2.64593e-09 5.93752e-08)
(0.00015256 -3.26762e-07 2.39742e-07 2.89077e-07 4.04214e-09 6.97165e-08)
(0.000152234 -2.60334e-07 1.23736e-07 3.07234e-07 4.51678e-09 5.8443e-08)
(0.000152714 -3.90122e-07 1.72673e-07 2.75265e-07 1.87624e-08 7.09316e-08)
(0.000152334 -8.04194e-08 1.37522e-07 2.92028e-07 1.70324e-08 6.16177e-08)
(0.000152319 -3.42258e-07 1.00895e-07 2.18884e-07 4.14869e-09 4.87848e-08)
(0.000152947 -1.7917e-07 1.20384e-07 2.51255e-07 2.21237e-08 5.56056e-08)
(0.000152278 -2.23487e-07 7.42769e-08 2.36663e-07 2.46909e-08 5.20159e-08)
(0.000152379 -2.83292e-07 1.30577e-07 2.10352e-07 2.56783e-08 6.48531e-08)
(0.000152707 -2.35492e-07 1.45019e-09 2.82062e-07 1.50168e-08 6.57797e-08)
(0.000152 -3.22554e-07 1.20923e-07 2.21548e-07 1.73229e-08 6.92399e-08)
(0.000151909 -2.90907e-07 4.58273e-09 2.62617e-07 1.49219e-08 7.24714e-08)
(0.000152533 -3.70567e-07 1.44612e-07 2.49032e-07 -3.61086e-09 6.62165e-08)
(0.000151974 -2.91932e-07 8.5178e-08 2.07448e-07 1.92264e-08 7.39106e-08)
(0.000151735 -4.86158e-07 5.41927e-08 3.09344e-07 2.58166e-08 6.80602e-08)
(0.000152185 -3.73896e-07 1.7386e-07 2.74902e-07 1.0307e-08 7.29613e-08)
(0.000152169 -1.90513e-07 1.70479e-07 2.89703e-07 2.79639e-08 7.80712e-08)
(0.000151741 -5.25772e-07 1.59478e-07 3.11826e-07 2.9674e-08 6.35362e-08)
(0.00015179 -2.84229e-07 2.07034e-07 2.21992e-07 2.01451e-08 7.34027e-08)
(0.000151945 -3.21323e-07 3.44374e-07 2.50847e-07 2.8451e-08 6.83444e-08)
(0.000151656 -4.54356e-07 3.18769e-07 2.38176e-07 1.47126e-08 6.59741e-08)
(0.000151481 -3.28628e-07 4.21056e-07 2.46434e-07 2.12836e-09 7.19258e-08)
(0.000151819 -7.02206e-07 6.20394e-07 3.24489e-07 3.13105e-08 7.72183e-08)
(0.000151976 -7.70538e-07 7.03314e-07 2.82956e-07 1.39997e-08 7.34659e-08)
(0.000151623 -8.85001e-07 6.41068e-07 3.33682e-07 1.96188e-08 8.3115e-08)
(0.000152353 -7.16319e-07 8.12956e-07 2.83633e-07 2.25336e-08 7.70708e-08)
(0.000151733 -8.1884e-07 7.29573e-07 2.88718e-07 1.35809e-08 5.39247e-08)
(0.000151713 -7.93358e-07 6.47704e-07 2.68806e-07 1.57589e-08 4.84882e-08)
(0.000151973 -7.95128e-07 8.12614e-07 2.8931e-07 2.7137e-08 5.70917e-08)
(0.000151359 -8.3179e-07 6.68235e-07 3.05165e-07 2.88933e-08 4.67328e-08)
(0.000151505 -9.01946e-07 6.88115e-07 2.5345e-07 9.46358e-09 6.09447e-08)
(0.000151242 -1.02831e-06 5.97049e-07 3.35314e-07 5.83729e-09 7.16928e-08)
(0.00015188 -8.71866e-07 6.05862e-07 2.96889e-07 1.72263e-08 6.96265e-08)
(0.000151679 -1.05041e-06 5.23021e-07 2.92157e-07 2.72721e-08 8.47187e-08)
(0.000151454 -1.09695e-06 3.71556e-07 3.96457e-07 3.68624e-08 8.7268e-08)
(0.000152487 -9.49971e-07 4.53231e-07 3.53777e-07 2.9113e-08 7.98649e-08)
(0.000152449 -8.83856e-07 4.25401e-07 3.77101e-07 2.25564e-08 7.26544e-08)
(0.000152143 -9.13442e-07 3.32564e-07 3.72611e-07 1.9258e-08 6.36548e-08)
(0.000152829 -8.29036e-07 2.88064e-07 3.38202e-07 -7.52367e-10 6.30036e-08)
(0.000152748 -5.98911e-07 3.68208e-07 3.72564e-07 2.18468e-09 5.5394e-08)
(0.000152585 -6.59331e-07 2.14866e-07 3.11879e-07 1.00096e-08 6.37234e-08)
(0.000152905 -4.95265e-07 2.93728e-07 3.27156e-07 -9.91523e-09 7.38304e-08)
(0.000152333 -3.37387e-07 1.53529e-07 3.43043e-07 -1.35828e-09 6.14693e-08)
(0.000152893 -4.47823e-07 1.86659e-07 3.11379e-07 1.36946e-08 7.59034e-08)
(0.000152452 -2.66447e-07 1.6277e-07 3.25644e-07 7.58393e-09 6.86836e-08)
(0.000152233 -3.40135e-07 1.24913e-07 3.02196e-07 3.23922e-09 5.4409e-08)
(0.000152939 -2.81333e-07 1.45166e-07 3.42294e-07 1.88553e-08 5.51061e-08)
(0.000152179 -3.55617e-07 1.2527e-07 2.75336e-07 3.28218e-08 5.68206e-08)
(0.000152299 -3.55396e-07 1.43274e-07 2.81503e-07 2.74459e-08 6.49457e-08)
(0.00015258 -3.9202e-07 5.90118e-08 3.36207e-07 1.201e-08 5.82111e-08)
(0.000151985 -4.96432e-07 1.715e-07 2.6056e-07 2.50981e-08 6.68455e-08)
(0.000151996 -4.22904e-07 1.11806e-07 3.09069e-07 5.70915e-09 7.02752e-08)
(0.000152598 -5.36672e-07 2.10404e-07 2.55773e-07 -7.36234e-09 6.53618e-08)
(0.000151968 -5.60297e-07 1.83455e-07 2.34224e-07 1.42099e-08 7.85606e-08)
(0.00015189 -6.34935e-07 1.25666e-07 3.26895e-07 1.67852e-08 6.68152e-08)
(0.000152571 -5.32775e-07 3.08388e-07 2.71646e-07 9.4707e-09 6.80665e-08)
(0.000152066 -3.8772e-07 2.83869e-07 3.18655e-07 2.72536e-08 8.11373e-08)
(0.000151799 -7.40729e-07 2.12242e-07 3.40967e-07 4.33918e-08 6.84309e-08)
(0.000152042 -3.89489e-07 4.14274e-07 2.90559e-07 2.91749e-08 7.85471e-08)
(0.000151776 -5.82115e-07 4.08905e-07 3.29479e-07 4.09159e-08 8.02819e-08)
(0.000151712 -6.85828e-07 4.68329e-07 2.76609e-07 3.16996e-08 7.67571e-08)
(0.000151537 -5.44765e-07 5.87351e-07 3.09705e-07 1.71358e-08 8.63048e-08)
(0.000151701 -9.91545e-07 8.56848e-07 4.06291e-07 3.17525e-08 1.00647e-07)
(0.000151839 -1.16957e-06 9.22381e-07 3.90615e-07 1.97231e-08 8.68752e-08)
(0.000151807 -1.29366e-06 9.26753e-07 4.34584e-07 2.8472e-08 1.09942e-07)
(0.000152503 -1.02214e-06 1.07134e-06 3.30817e-07 1.63682e-08 1.03322e-07)
(0.000151691 -1.23781e-06 9.3533e-07 3.88893e-07 3.25163e-09 6.67308e-08)
(0.000151847 -1.01323e-06 9.54568e-07 3.27808e-07 1.58948e-08 8.30774e-08)
(0.000152041 -1.01009e-06 1.05784e-06 3.42394e-07 2.95493e-08 9.08124e-08)
(0.000151288 -1.09028e-06 8.9827e-07 3.57058e-07 2.08115e-08 7.25173e-08)
(0.000151325 -1.18834e-06 9.07789e-07 3.01084e-07 -1.3723e-10 9.60704e-08)
(0.000151304 -1.26494e-06 7.81659e-07 3.75879e-07 -1.09945e-08 1.02652e-07)
(0.000151894 -1.24956e-06 8.0233e-07 3.10547e-07 8.07489e-09 1.00481e-07)
(0.000151524 -1.4412e-06 5.98783e-07 3.49868e-07 9.08621e-09 1.12945e-07)
(0.000151718 -1.40455e-06 4.94583e-07 4.22488e-07 2.26059e-08 1.22596e-07)
(0.000152843 -1.2373e-06 5.79594e-07 3.57677e-07 2.5253e-08 1.12403e-07)
(0.000152642 -1.17328e-06 5.04115e-07 4.43111e-07 2.04362e-08 9.67625e-08)
(0.000152428 -1.17889e-06 4.58674e-07 3.92526e-07 2.19818e-08 9.20947e-08)
(0.000153219 -9.57068e-07 3.99009e-07 3.90612e-07 -1.52436e-09 7.95696e-08)
(0.00015305 -8.29093e-07 4.60522e-07 4.49892e-07 1.06306e-08 5.71281e-08)
(0.000152839 -8.10125e-07 3.28894e-07 3.73424e-07 1.21833e-08 7.22252e-08)
(0.000153248 -5.92859e-07 3.77009e-07 4.48314e-07 -1.94704e-08 7.74927e-08)
(0.000152513 -4.61914e-07 2.56022e-07 4.4037e-07 -8.21471e-09 6.70237e-08)
(0.000153015 -4.87871e-07 2.49371e-07 4.21158e-07 4.70139e-09 7.84527e-08)
(0.000152594 -4.57717e-07 2.48987e-07 4.54367e-07 5.08241e-09 7.54287e-08)
(0.000152209 -3.74208e-07 2.01431e-07 4.92254e-07 4.15973e-09 6.80232e-08)
(0.000152851 -4.21191e-07 2.2047e-07 5.34293e-07 2.13144e-08 6.31968e-08)
(0.000152134 -5.04676e-07 2.43297e-07 4.01921e-07 4.82299e-08 8.28269e-08)
(0.000152168 -5.03557e-07 1.67576e-07 4.76301e-07 2.62737e-08 8.2094e-08)
(0.000152394 -5.90688e-07 1.68773e-07 5.05687e-07 2.20572e-08 6.49812e-08)
(0.000151997 -6.719e-07 2.51494e-07 3.70976e-07 3.99139e-08 8.22493e-08)
(0.00015204 -6.37109e-07 2.71178e-07 4.45534e-07 1.10889e-09 7.6946e-08)
(0.00015255 -7.54109e-07 2.89783e-07 3.48998e-07 1.0091e-08 7.42885e-08)
(0.000151964 -8.2915e-07 3.07219e-07 3.17224e-07 1.47772e-08 9.3367e-08)
(0.000152108 -8.03795e-07 2.5537e-07 4.0174e-07 4.78071e-09 6.87675e-08)
(0.000152843 -7.26681e-07 4.60041e-07 3.10746e-07 3.86615e-09 6.76027e-08)
(0.000151924 -6.63575e-07 4.10963e-07 3.74777e-07 1.11179e-08 8.65615e-08)
(0.000151969 -8.99105e-07 3.34272e-07 3.94404e-07 4.10891e-08 8.17573e-08)
(0.000152251 -5.86052e-07 6.73594e-07 3.83463e-07 2.82146e-08 9.54129e-08)
(0.000151583 -9.32924e-07 5.31778e-07 4.16067e-07 3.73325e-08 1.0658e-07)
(0.000151817 -9.24281e-07 6.98023e-07 3.44167e-07 3.2434e-08 1.02112e-07)
(0.0001516 -8.49428e-07 7.93017e-07 4.21793e-07 2.4981e-08 1.10359e-07)
(0.000151572 -1.35707e-06 1.21247e-06 5.67961e-07 1.68634e-08 1.4858e-07)
(0.000151632 -1.71011e-06 1.28131e-06 6.05776e-07 1.70273e-08 1.15583e-07)
(0.000152042 -1.78751e-06 1.33164e-06 6.3389e-07 3.20592e-08 1.50606e-07)
(0.000152618 -1.53509e-06 1.41887e-06 4.92163e-07 4.75122e-09 1.43267e-07)
(0.000151715 -1.76453e-06 1.28346e-06 6.37935e-07 -8.4541e-09 9.3445e-08)
(0.000152111 -1.28323e-06 1.39611e-06 5.04916e-07 2.18314e-08 1.37416e-07)
(0.00015208 -1.32935e-06 1.43034e-06 5.34354e-07 2.87992e-08 1.38471e-07)
(0.000151187 -1.44472e-06 1.22975e-06 5.29661e-07 8.07518e-09 1.11233e-07)
(0.000151169 -1.54535e-06 1.23662e-06 4.58822e-07 -7.64561e-09 1.50681e-07)
(0.000151295 -1.57392e-06 1.04774e-06 5.30454e-07 -2.58021e-08 1.46729e-07)
(0.000151786 -1.76346e-06 1.05195e-06 4.40869e-07 -2.61858e-09 1.36459e-07)
(0.000151379 -1.9045e-06 7.23633e-07 5.45608e-07 -1.51857e-08 1.4553e-07)
(0.000151974 -1.78122e-06 6.77651e-07 5.49666e-07 3.66133e-09 1.61981e-07)
(0.000153159 -1.58987e-06 7.31671e-07 4.85356e-07 1.55814e-08 1.52745e-07)
(0.000152808 -1.51572e-06 6.6181e-07 6.17007e-07 5.87018e-09 1.29215e-07)
(0.000152771 -1.50093e-06 6.22375e-07 4.89407e-07 -1.47849e-09 1.31909e-07)
(0.00015355 -1.09965e-06 5.53475e-07 5.59228e-07 -1.65982e-08 1.08725e-07)
(0.000153287 -1.12845e-06 5.97063e-07 5.92639e-07 7.75099e-09 7.41957e-08)
(0.000153214 -9.68242e-07 4.82463e-07 5.19276e-07 -5.4704e-09 1.0202e-07)
(0.000153583 -6.35282e-07 4.95993e-07 6.55341e-07 -4.23045e-08 9.46055e-08)
(0.00015274 -6.04892e-07 4.23541e-07 5.78153e-07 -2.60843e-08 8.99214e-08)
(0.000153139 -4.91706e-07 3.52217e-07 6.03761e-07 -8.2104e-09 9.26872e-08)
(0.000152756 -5.89146e-07 4.03827e-07 6.39385e-07 -5.20373e-09 1.00206e-07)
(0.000152305 -4.20716e-07 3.01507e-07 7.18678e-07 -7.28029e-09 9.83378e-08)
(0.000152829 -5.50581e-07 3.86466e-07 7.43605e-07 2.00767e-08 8.67821e-08)
(0.000152167 -6.54896e-07 4.11009e-07 5.63464e-07 5.71901e-08 1.36047e-07)
(0.000152126 -7.01486e-07 2.32003e-07 7.47754e-07 1.61283e-08 1.19408e-07)
(0.000152349 -7.44754e-07 3.57006e-07 7.30726e-07 3.70105e-08 9.52369e-08)
(0.000152045 -8.89441e-07 3.75232e-07 5.53839e-07 3.69276e-08 1.22409e-07)
(0.000152112 -8.96098e-07 4.7454e-07 7.08279e-07 -4.61472e-09 1.07001e-07)
(0.000152492 -9.79862e-07 4.41374e-07 5.428e-07 4.29685e-08 1.12735e-07)
(0.000151954 -1.09608e-06 4.97337e-07 5.13806e-07 1.35363e-08 1.36734e-07)
(0.000152331 -9.79921e-07 4.82214e-07 6.04386e-07 2.58892e-09 9.73876e-08)
(0.000152945 -9.69225e-07 6.89423e-07 4.71523e-07 -3.29295e-09 9.50256e-08)
(0.000151761 -9.7154e-07 5.93298e-07 5.78703e-07 -1.52736e-08 1.11536e-07)
(0.000152159 -1.01408e-06 5.76029e-07 5.49812e-07 2.93387e-08 1.20957e-07)
(0.000152311 -9.22241e-07 9.93926e-07 5.26167e-07 1.68072e-08 1.36171e-07)
(0.000151449 -1.35988e-06 7.74166e-07 5.5924e-07 1.84226e-08 1.55884e-07)
(0.000151957 -1.1822e-06 1.0284e-06 4.89576e-07 2.34342e-08 1.48955e-07)
(0.000151647 -1.26414e-06 1.09428e-06 6.08172e-07 2.67936e-08 1.50489e-07)
(0.000151438 -1.87231e-06 1.78913e-06 8.74956e-07 -1.84097e-08 2.48484e-07)
(0.000151407 -2.46128e-06 1.88801e-06 1.00703e-06 4.34142e-11 1.8206e-07)
(0.000152293 -2.43766e-06 1.90824e-06 9.94442e-07 2.29154e-08 2.2784e-07)
(0.000152726 -2.34302e-06 1.95313e-06 8.1472e-07 -2.40234e-08 2.22223e-07)
(0.000151937 -2.39764e-06 1.83611e-06 1.06333e-06 -1.09438e-08 1.58106e-07)
(0.000152495 -1.70124e-06 2.02254e-06 8.21519e-07 4.07616e-08 2.27679e-07)
(0.000152144 -1.82274e-06 1.97731e-06 8.74291e-07 1.12893e-08 2.10166e-07)
(0.000151161 -1.92177e-06 1.7367e-06 8.00001e-07 -5.03968e-09 1.6734e-07)
(0.000151088 -2.01352e-06 1.72619e-06 7.34394e-07 -2.1784e-08 2.34892e-07)
(0.000151255 -2.02613e-06 1.47504e-06 8.1345e-07 -4.42342e-08 2.15281e-07)
(0.000151643 -2.41105e-06 1.40791e-06 6.84957e-07 -1.93706e-08 1.90269e-07)
(0.000151333 -2.47476e-06 9.78047e-07 8.81797e-07 -4.57701e-08 1.98055e-07)
(0.000152284 -2.22946e-06 9.6973e-07 8.12173e-07 -3.88273e-09 2.19602e-07)
(0.000153478 -2.00983e-06 1.00103e-06 7.76283e-07 1.30118e-08 2.15939e-07)
(0.000152991 -1.92892e-06 9.54199e-07 9.1193e-07 -3.24512e-09 1.8469e-07)
(0.000153186 -1.86192e-06 8.94923e-07 7.21486e-07 -4.03432e-08 1.96074e-07)
(0.000153795 -1.34712e-06 8.12068e-07 8.66166e-07 -3.77211e-08 1.50666e-07)
(0.000153531 -1.52257e-06 8.59856e-07 8.31308e-07 -4.36581e-10 1.1679e-07)
(0.000153766 -1.11352e-06 7.3485e-07 8.11483e-07 -4.13035e-08 1.67618e-07)
(0.00015391 -7.2077e-07 7.54208e-07 9.68504e-07 -7.71367e-08 1.35824e-07)
(0.00015303 -7.88477e-07 6.93466e-07 8.08392e-07 -4.79143e-08 1.43808e-07)
(0.000153322 -5.31926e-07 5.80712e-07 9.28614e-07 -2.67754e-08 1.34555e-07)
(0.000152921 -7.05495e-07 6.51292e-07 9.26815e-07 -3.36214e-08 1.58124e-07)
(0.0001525 -5.04952e-07 4.95508e-07 1.00639e-06 -4.4541e-08 1.52348e-07)
(0.000152873 -7.04637e-07 7.10342e-07 1.00776e-06 3.8192e-09 1.38248e-07)
(0.000152258 -8.37565e-07 6.71949e-07 8.20921e-07 4.74966e-08 2.22886e-07)
(0.000152275 -9.02439e-07 4.31097e-07 1.0833e-06 -1.28971e-08 1.86144e-07)
(0.000152443 -8.98752e-07 6.88171e-07 9.898e-07 2.69068e-08 1.58052e-07)
(0.00015212 -1.16204e-06 5.94526e-07 8.47419e-07 -9.87118e-09 1.95342e-07)
(0.000152311 -1.15539e-06 7.96721e-07 1.0912e-06 -1.9351e-08 1.75731e-07)
(0.000152488 -1.24723e-06 7.25391e-07 8.29851e-07 5.51058e-08 1.98098e-07)
(0.000151985 -1.38688e-06 8.31799e-07 8.51567e-07 -5.81867e-09 2.28629e-07)
(0.000152591 -1.18724e-06 8.67617e-07 9.36383e-07 6.90508e-09 1.77619e-07)
(0.000152936 -1.30355e-06 1.05554e-06 7.87137e-07 -1.73259e-08 1.70918e-07)
(0.000151667 -1.30288e-06 9.17788e-07 1.0181e-06 -3.56242e-08 1.72758e-07)
(0.000152324 -1.17341e-06 1.02778e-06 8.48817e-07 9.22486e-09 2.07923e-07)
(0.000152208 -1.4697e-06 1.44595e-06 7.84636e-07 -1.14153e-08 2.17371e-07)
(0.00015141 -1.8587e-06 1.23446e-06 8.84074e-07 -1.35399e-08 2.483e-07)
(0.000152094 -1.55798e-06 1.52676e-06 8.10903e-07 3.03906e-09 2.33588e-07)
(0.000151718 -1.76149e-06 1.62651e-06 9.60099e-07 1.33625e-08 2.25986e-07)
(0.000151264 -2.50555e-06 2.67624e-06 1.45262e-06 -7.93392e-08 4.38187e-07)
(0.000151239 -3.311e-06 2.79984e-06 1.76305e-06 -3.52792e-08 3.21796e-07)
(0.000152569 -3.22838e-06 2.72076e-06 1.61777e-06 -6.91598e-09 3.83029e-07)
(0.000152915 -3.3376e-06 2.735e-06 1.42658e-06 -8.33459e-08 3.86517e-07)
(0.000152404 -3.03739e-06 2.63951e-06 1.73696e-06 7.92806e-09 3.04167e-07)
(0.000152969 -2.20202e-06 2.86516e-06 1.33661e-06 5.51383e-08 3.997e-07)
(0.000152324 -2.36703e-06 2.7362e-06 1.42664e-06 -4.22622e-08 3.47695e-07)
(0.000151277 -2.40644e-06 2.46004e-06 1.22618e-06 -1.94744e-08 2.76417e-07)
(0.000151055 -2.49248e-06 2.40437e-06 1.22721e-06 -6.26247e-08 3.89382e-07)
(0.000151216 -2.51371e-06 2.07982e-06 1.3118e-06 -8.15604e-08 3.40958e-07)
(0.000151523 -3.06034e-06 1.89866e-06 1.1143e-06 -7.32354e-08 2.91075e-07)
(0.000151441 -3.01114e-06 1.38786e-06 1.43276e-06 -1.05329e-07 2.9588e-07)
(0.000152708 -2.57814e-06 1.40242e-06 1.29731e-06 -2.35403e-08 3.22541e-07)
(0.000153876 -2.3441e-06 1.40861e-06 1.29057e-06 -1.99328e-09 3.32931e-07)
(0.00015333 -2.25327e-06 1.40684e-06 1.38307e-06 -1.44232e-08 2.92969e-07)
(0.000153671 -2.13227e-06 1.31155e-06 1.16096e-06 -9.92846e-08 3.12194e-07)
(0.000153981 -1.6117e-06 1.21615e-06 1.36244e-06 -5.62305e-08 2.2891e-07)
(0.000153933 -1.8111e-06 1.26977e-06 1.29672e-06 -5.2279e-09 2.11765e-07)
(0.00015451 -1.13451e-06 1.14281e-06 1.34421e-06 -9.36529e-08 2.89874e-07)
(0.000154216 -8.08164e-07 1.21301e-06 1.45636e-06 -1.24841e-07 2.24878e-07)
(0.000153382 -8.71773e-07 1.15029e-06 1.27942e-06 -7.89347e-08 2.56156e-07)
(0.000153585 -5.32745e-07 1.02713e-06 1.51647e-06 -6.07442e-08 2.32721e-07)
(0.000153138 -7.24768e-07 1.07274e-06 1.43823e-06 -8.71133e-08 2.71077e-07)
(0.000152768 -5.75667e-07 9.12972e-07 1.50791e-06 -1.17671e-07 2.54617e-07)
(0.000152942 -8.63061e-07 1.25805e-06 1.52199e-06 -2.76017e-08 2.48306e-07)
(0.000152401 -9.96e-07 1.10878e-06 1.33919e-06 2.36426e-08 3.66149e-07)
(0.000152576 -1.04504e-06 8.81301e-07 1.61246e-06 -7.49037e-08 3.15519e-07)
(0.000152629 -1.04766e-06 1.20709e-06 1.45602e-06 -2.94577e-08 2.80923e-07)
(0.000152265 -1.3867e-06 1.02484e-06 1.384e-06 -9.14708e-08 3.34165e-07)
(0.000152657 -1.34483e-06 1.34144e-06 1.68628e-06 -5.36395e-08 3.1878e-07)
(0.000152526 -1.51436e-06 1.26124e-06 1.29753e-06 1.81569e-08 3.6353e-07)
(0.000152079 -1.61221e-06 1.41921e-06 1.40321e-06 -5.04635e-08 4.13273e-07)
(0.000152908 -1.35875e-06 1.51957e-06 1.42507e-06 -9.6829e-09 3.59573e-07)
(0.000152924 -1.66481e-06 1.63916e-06 1.34509e-06 -4.23728e-08 3.35858e-07)
(0.000151712 -1.56901e-06 1.52045e-06 1.77061e-06 -3.89907e-08 3.1269e-07)
(0.000152416 -1.39465e-06 1.74947e-06 1.34354e-06 -2.73127e-08 3.92057e-07)
(0.000151997 -2.10895e-06 2.12053e-06 1.3003e-06 -4.73782e-08 3.75507e-07)
(0.000151468 -2.34506e-06 1.97182e-06 1.53088e-06 -4.8234e-08 4.22448e-07)
(0.00015226 -1.98942e-06 2.27651e-06 1.4721e-06 -2.79359e-08 3.98502e-07)
(0.00015184 -2.20001e-06 2.45994e-06 1.597e-06 -1.9102e-08 3.75103e-07)
(0.00015104 -3.2705e-06 3.9677e-06 2.56737e-06 -1.82114e-07 7.89541e-07)
(0.000151141 -4.25037e-06 4.07814e-06 3.09038e-06 -1.01951e-07 6.09298e-07)
(0.000152842 -4.20401e-06 3.87858e-06 2.68724e-06 -8.37266e-08 6.98412e-07)
(0.000153254 -4.48277e-06 3.86865e-06 2.57705e-06 -1.87227e-07 7.16804e-07)
(0.000153088 -3.71603e-06 3.77185e-06 2.76385e-06 4.00315e-08 6.10563e-07)
(0.000153475 -2.82297e-06 3.97819e-06 2.21927e-06 5.46163e-09 7.4287e-07)
(0.000152627 -2.91603e-06 3.77102e-06 2.32198e-06 -1.65265e-07 6.38095e-07)
(0.00015149 -2.92679e-06 3.45248e-06 1.96315e-06 -7.04659e-08 5.23362e-07)
(0.000151036 -2.98768e-06 3.30359e-06 2.13174e-06 -1.67193e-07 6.9519e-07)
(0.000151182 -3.01665e-06 2.90208e-06 2.17623e-06 -1.58256e-07 5.92591e-07)
(0.000151468 -3.66109e-06 2.58079e-06 1.90834e-06 -2.00084e-07 5.13589e-07)
(0.000151751 -3.44511e-06 2.00342e-06 2.40023e-06 -2.22163e-07 5.13519e-07)
(0.00015329 -2.79308e-06 2.05602e-06 2.2119e-06 -8.91146e-08 5.38168e-07)
(0.000154371 -2.57207e-06 2.01885e-06 2.18962e-06 -5.19168e-08 5.73729e-07)
(0.000153813 -2.41945e-06 2.09332e-06 2.19985e-06 -6.01765e-08 5.27889e-07)
(0.00015416 -2.31688e-06 1.94145e-06 1.98162e-06 -2.05552e-07 5.52777e-07)
(0.000154184 -1.87135e-06 1.87144e-06 2.24514e-06 -6.82271e-08 4.10034e-07)
(0.000154578 -1.9079e-06 1.94401e-06 2.21433e-06 -1.46204e-08 4.15151e-07)
(0.000155381 -1.04477e-06 1.81938e-06 2.2649e-06 -1.78866e-07 5.21179e-07)
(0.00015455 -8.54828e-07 1.97883e-06 2.31248e-06 -1.97032e-07 4.25559e-07)
(0.000153848 -8.15679e-07 1.93446e-06 2.21369e-06 -1.45164e-07 4.86635e-07)
(0.000153946 -4.67478e-07 1.79624e-06 2.539e-06 -1.26145e-07 4.4404e-07)
(0.000153394 -6.06397e-07 1.78931e-06 2.3958e-06 -1.8668e-07 5.02385e-07)
(0.000153019 -6.35798e-07 1.67013e-06 2.46496e-06 -2.45588e-07 4.75792e-07)
(0.000153037 -9.78334e-07 2.09982e-06 2.52529e-06 -7.68125e-08 4.82569e-07)
(0.00015262 -1.07707e-06 1.82087e-06 2.32339e-06 -4.13264e-08 6.33152e-07)
(0.000152995 -1.08939e-06 1.66161e-06 2.58798e-06 -2.15796e-07 5.81353e-07)
(0.000152857 -1.18409e-06 1.96458e-06 2.38391e-06 -1.53096e-07 5.3148e-07)
(0.000152482 -1.49214e-06 1.77532e-06 2.39295e-06 -2.16938e-07 6.12826e-07)
(0.000153109 -1.42754e-06 2.22245e-06 2.727e-06 -1.36215e-07 6.02007e-07)
(0.000152594 -1.75589e-06 2.17082e-06 2.1396e-06 -8.35029e-08 6.84911e-07)
(0.000152192 -1.75592e-06 2.3819e-06 2.36051e-06 -1.56545e-07 7.76443e-07)
(0.000153207 -1.50122e-06 2.52121e-06 2.25065e-06 -8.8834e-08 7.22984e-07)
(0.000152949 -2.00647e-06 2.54648e-06 2.34543e-06 -8.22324e-08 6.62603e-07)
(0.000151902 -1.78346e-06 2.51297e-06 2.96235e-06 -4.99373e-08 6.22006e-07)
(0.000152452 -1.7322e-06 2.81843e-06 2.18035e-06 -1.01853e-07 7.60738e-07)
(0.000151768 -2.78615e-06 3.11916e-06 2.28964e-06 -8.04058e-08 6.93088e-07)
(0.000151604 -2.85404e-06 3.04843e-06 2.70006e-06 -8.39202e-08 7.76704e-07)
(0.000152508 -2.43357e-06 3.38297e-06 2.71084e-06 -7.14787e-08 7.45058e-07)
(0.000152016 -2.58385e-06 3.69629e-06 2.68815e-06 -7.46273e-08 6.89053e-07)
(0.000150531 -3.88083e-06 5.53647e-06 4.66231e-06 -3.6773e-07 1.45549e-06)
(0.000150905 -5.02128e-06 5.61754e-06 5.29622e-06 -2.43195e-07 1.2064e-06)
(0.00015288 -5.08918e-06 5.27294e-06 4.5858e-06 -2.42991e-07 1.31886e-06)
(0.000153466 -5.43758e-06 5.24551e-06 4.6325e-06 -3.47712e-07 1.35002e-06)
(0.000153597 -4.22728e-06 5.11862e-06 4.40293e-06 4.25258e-08 1.21218e-06)
(0.0001537 -3.25002e-06 5.22285e-06 3.76696e-06 -1.73362e-07 1.40516e-06)
(0.000152765 -3.17598e-06 4.93272e-06 3.81214e-06 -3.99502e-07 1.24322e-06)
(0.000151424 -3.19336e-06 4.55032e-06 3.38083e-06 -2.03596e-07 1.05572e-06)
(0.000150701 -3.18657e-06 4.22769e-06 3.82533e-06 -3.8404e-07 1.28625e-06)
(0.000150894 -3.20598e-06 3.75943e-06 3.75403e-06 -3.53064e-07 1.11948e-06)
(0.000151247 -3.89413e-06 3.28223e-06 3.45869e-06 -4.66589e-07 1.01272e-06)
(0.00015202 -3.40818e-06 2.71518e-06 4.18548e-06 -4.40583e-07 1.00486e-06)
(0.000153828 -2.54609e-06 2.80973e-06 3.96779e-06 -2.61436e-07 1.02003e-06)
(0.000154849 -2.38624e-06 2.74019e-06 3.86625e-06 -1.73744e-07 1.10141e-06)
(0.0001543 -2.18545e-06 2.94268e-06 3.77037e-06 -1.88869e-07 1.05353e-06)
(0.000154423 -2.18069e-06 2.74305e-06 3.57813e-06 -3.95488e-07 1.07039e-06)
(0.00015435 -1.8238e-06 2.72596e-06 3.98013e-06 -6.22114e-08 8.54878e-07)
(0.000155366 -1.55532e-06 2.87105e-06 3.97835e-06 -4.31152e-08 8.68647e-07)
(0.000156209 -7.30635e-07 2.73493e-06 3.96911e-06 -3.22204e-07 9.90427e-07)
(0.000154761 -6.0092e-07 3.07276e-06 4.01988e-06 -3.13899e-07 8.84167e-07)
(0.000154239 -4.38474e-07 3.04363e-06 4.02763e-06 -2.69804e-07 9.70412e-07)
(0.000154318 -7.67198e-08 2.91935e-06 4.42472e-06 -2.45985e-07 9.0697e-07)
(0.000153618 -2.28799e-07 2.83202e-06 4.23893e-06 -3.59642e-07 1.00223e-06)
(0.000153136 -4.94204e-07 2.77913e-06 4.33691e-06 -4.37619e-07 9.64975e-07)
(0.000153076 -8.4615e-07 3.21117e-06 4.45322e-06 -1.60794e-07 9.84477e-07)
(0.00015279 -8.91639e-07 2.83243e-06 4.17126e-06 -1.89429e-07 1.17764e-06)
(0.000153325 -9.08637e-07 2.69757e-06 4.46606e-06 -4.88155e-07 1.1313e-06)
(0.000152956 -1.13032e-06 2.92989e-06 4.1794e-06 -3.82949e-07 1.06054e-06)
(0.000152644 -1.27114e-06 2.81182e-06 4.33138e-06 -4.35907e-07 1.18055e-06)
(0.000153427 -1.2067e-06 3.4091e-06 4.59227e-06 -3.10863e-07 1.169e-06)
(0.000152394 -1.79139e-06 3.40508e-06 3.71323e-06 -2.82012e-07 1.33373e-06)
(0.000151988 -1.61508e-06 3.6845e-06 4.11092e-06 -3.81977e-07 1.49895e-06)
(0.000153181 -1.42914e-06 3.80752e-06 3.78824e-06 -2.55791e-07 1.44036e-06)
(0.000152776 -2.11338e-06 3.73043e-06 4.1516e-06 -1.44503e-07 1.32673e-06)
(0.000151936 -1.81494e-06 3.83195e-06 4.84063e-06 -1.00864e-07 1.2649e-06)
(0.000152156 -2.00564e-06 4.13863e-06 3.74069e-06 -2.24492e-07 1.46599e-06)
(0.000151307 -3.25413e-06 4.36359e-06 4.13334e-06 -1.06096e-07 1.33743e-06)
(0.000151595 -3.1963e-06 4.3459e-06 4.76587e-06 -1.4214e-07 1.49373e-06)
(0.000152653 -2.65441e-06 4.71965e-06 4.91316e-06 -1.46816e-07 1.46943e-06)
(0.00015197 -2.6899e-06 5.21584e-06 4.60306e-06 -1.64715e-07 1.33842e-06)
(0.000149127 -3.83273e-06 6.9221e-06 8.21276e-06 -6.49541e-07 2.73839e-06)
(0.0001499 -5.19077e-06 6.97476e-06 8.75441e-06 -4.82733e-07 2.39188e-06)
(0.000152121 -5.38591e-06 6.46332e-06 7.83523e-06 -5.10722e-07 2.52256e-06)
(0.000152875 -5.7274e-06 6.43042e-06 7.97871e-06 -5.54984e-07 2.59552e-06)
(0.000153173 -4.18696e-06 6.24063e-06 7.01702e-06 -4.22064e-08 2.42877e-06)
(0.000152888 -2.92777e-06 6.1275e-06 6.366e-06 -5.59925e-07 2.72379e-06)
(0.000151838 -2.67699e-06 5.71932e-06 6.28113e-06 -8.31603e-07 2.5211e-06)
(0.000150153 -2.77218e-06 5.1589e-06 5.93743e-06 -5.08508e-07 2.17997e-06)
(0.000149218 -2.63404e-06 4.52197e-06 6.72532e-06 -7.84404e-07 2.41381e-06)
(0.000149597 -2.58712e-06 4.07527e-06 6.52531e-06 -7.70739e-07 2.21199e-06)
(0.000150232 -3.2762e-06 3.50614e-06 6.31904e-06 -9.45619e-07 2.1274e-06)
(0.000151708 -2.3972e-06 3.07784e-06 7.36866e-06 -8.38613e-07 2.1214e-06)
(0.000153791 -1.46112e-06 3.27386e-06 7.1739e-06 -6.13492e-07 2.12739e-06)
(0.000154762 -1.36247e-06 3.15767e-06 6.91503e-06 -4.15844e-07 2.30636e-06)
(0.000154258 -1.13834e-06 3.60632e-06 6.71895e-06 -4.96955e-07 2.22785e-06)
(0.000154039 -1.28871e-06 3.35439e-06 6.61851e-06 -6.95369e-07 2.17606e-06)
(0.000154175 -9.45302e-07 3.50833e-06 7.2346e-06 9.37608e-09 1.86931e-06)
(0.000155852 -3.3905e-07 3.7425e-06 7.15861e-06 -9.18836e-08 1.84358e-06)
(0.000156568 3.60479e-07 3.59696e-06 7.09231e-06 -5.41116e-07 1.98906e-06)
(0.000154531 4.74036e-07 4.22065e-06 7.1845e-06 -4.57563e-07 1.90365e-06)
(0.00015421 6.86808e-07 4.24511e-06 7.28469e-06 -4.3874e-07 1.98464e-06)
(0.000154294 1.13246e-06 4.11821e-06 7.76395e-06 -4.46996e-07 1.91867e-06)
(0.000153357 8.42344e-07 3.84456e-06 7.46583e-06 -6.24159e-07 2.05577e-06)
(0.000152748 3.55788e-07 3.84315e-06 7.68974e-06 -6.83934e-07 2.00645e-06)
(0.000152706 5.0786e-08 4.15245e-06 7.81667e-06 -3.26631e-07 2.01668e-06)
(0.000152499 4.52367e-08 3.62359e-06 7.37133e-06 -4.92046e-07 2.24739e-06)
(0.000153122 -4.46908e-08 3.47197e-06 7.71733e-06 -9.64741e-07 2.22414e-06)
(0.000152496 -3.81752e-07 3.58273e-06 7.31595e-06 -7.99973e-07 2.12357e-06)
(0.000152281 -1.38374e-07 3.61266e-06 7.72157e-06 -8.36742e-07 2.28963e-06)
(0.000153046 -1.75137e-07 4.39947e-06 7.62413e-06 -6.43108e-07 2.25369e-06)
(0.000151319 -1.13426e-06 4.49313e-06 6.43612e-06 -6.31332e-07 2.57508e-06)