/*--------------------------------*- C++ -*----------------------------------*\
  =========                 |
  \\      /  F ield         | OpenFOAM: The Open Source CFD Toolbox
   \\    /   O peration     | Website:  https://openfoam.org
    \\  /    A nd           | Version:  10
     \\/     M anipulation  |
\*---------------------------------------------------------------------------*/
FoamFile
{
    format      ascii;
    class       volSymmTensorField;
    location    "25";
    object      UPrime2Mean;
}
// * * * * * * * * * * * * * * * * * * * * * * * * * * * * * * * * * * * * * //

dimensions      [0 2 -2 0 0 0 0];

internalField   nonuniform List<symmTensor> 
25600
(
(0.000101809 3.8385e-09 -1.49892e-08 9.74381e-10 -3.5912e-11 3.2038e-10)
(0.00010182 -5.52077e-09 -3.0484e-09 9.17886e-10 -3.96053e-11 3.15295e-10)
(0.000101795 -3.40191e-10 -1.11546e-08 8.30985e-10 -1.83462e-11 3.20782e-10)
(0.000101837 -1.10144e-08 -7.88042e-09 8.54257e-10 1.62682e-11 3.32822e-10)
(0.000101794 -4.5263e-09 -5.45091e-09 8.80533e-10 6.42208e-12 3.44597e-10)
(0.000101831 -8.08884e-09 -1.1745e-08 7.93649e-10 -1.40441e-11 3.47434e-10)
(0.000101815 -7.822e-09 -3.4679e-09 9.00494e-10 -4.42249e-11 3.33082e-10)
(0.00010181 -2.40078e-09 -1.27319e-08 9.03065e-10 -6.35025e-11 3.13852e-10)
(0.000101826 -1.12959e-08 -3.12737e-09 7.82348e-10 -4.00524e-11 3.11427e-10)
(0.000101814 5.63462e-10 -1.198e-08 8.07724e-10 -3.61463e-11 3.2521e-10)
(0.00010182 -1.09361e-08 -4.97282e-09 8.4721e-10 -2.76369e-11 3.34272e-10)
(0.000101827 2.30144e-10 -9.92262e-09 8.4017e-10 -4.43344e-11 3.46887e-10)
(0.000101818 -5.49473e-09 -8.04453e-09 9.16419e-10 -6.7143e-11 3.56381e-10)
(0.000101826 -9.03723e-10 -6.71726e-09 9.11797e-10 -4.82305e-11 3.66781e-10)
(0.000101823 -2.28442e-09 -1.18112e-08 9.63806e-10 -5.30338e-11 3.66682e-10)
(0.000101824 2.54778e-09 -3.85084e-09 1.00245e-09 -6.25707e-11 3.5334e-10)
(0.000101828 -7.00138e-09 -1.33632e-08 9.5317e-10 -8.54235e-11 3.6303e-10)
(0.000101823 1.17701e-08 -1.79478e-09 9.73476e-10 -9.73982e-11 3.70738e-10)
(0.000101822 -8.70414e-09 -1.44978e-08 1.11261e-09 -6.26105e-11 3.66453e-10)
(0.000101827 1.27173e-08 -5.95128e-10 1.28576e-09 -6.78913e-11 3.54479e-10)
(0.000101812 -3.15426e-09 -1.45017e-08 1.16305e-09 -9.25069e-11 3.54937e-10)
(0.00010183 3.7611e-09 -7.23967e-10 1.09874e-09 -1.1067e-10 3.66736e-10)
(0.000101806 5.08325e-09 -1.18702e-08 1.18047e-09 -1.19392e-10 3.62951e-10)
(0.000101828 -6.9481e-10 -4.39563e-09 1.12348e-09 -1.08509e-10 3.40393e-10)
(0.000101806 4.52301e-09 -5.2524e-09 1.05892e-09 -1.27263e-10 3.4192e-10)
(0.000101822 -1.08843e-09 -1.14574e-08 1.04642e-09 -1.4098e-10 3.63519e-10)
(0.000101812 2.07528e-09 1.85058e-09 9.2272e-10 -1.42292e-10 3.75223e-10)
(0.000101813 -5.16056e-11 -1.4964e-08 8.90308e-10 -1.78758e-10 3.58368e-10)
(0.000101812 -5.54546e-10 2.03972e-09 9.9151e-10 -1.96626e-10 3.31232e-10)
(0.000101815 1.19699e-09 -1.32164e-08 8.75616e-10 -1.87861e-10 3.35662e-10)
(0.000101805 -4.55875e-10 -9.83898e-10 9.1257e-10 -1.90192e-10 3.45979e-10)
(0.000101819 -1.91764e-09 -1.06551e-08 1.03038e-09 -1.92019e-10 3.48624e-10)
(0.0001018 4.35984e-09 -4.1278e-09 9.85113e-10 -1.88014e-10 3.35023e-10)
(0.000101814 -9.71512e-09 -9.72232e-09 1.00344e-09 -1.69593e-10 3.15356e-10)
(0.000101807 8.22367e-09 -5.42723e-09 1.0512e-09 -1.47692e-10 3.02436e-10)
(0.000101809 -1.28745e-08 -8.6939e-09 9.63456e-10 -1.21288e-10 2.98657e-10)
(0.000101812 5.76271e-09 -8.66305e-09 9.36446e-10 -1.04907e-10 3.06277e-10)
(0.000101806 -6.53742e-09 -5.40302e-09 9.17769e-10 -9.31211e-11 3.23974e-10)
(0.000101813 1.78145e-09 -1.36565e-08 9.2917e-10 -8.67352e-11 3.32648e-10)
(0.000101808 1.14148e-09 -2.05834e-09 1.03966e-09 -5.2747e-11 3.26253e-10)
(0.000101801 1.30476e-09 -8.72478e-09 7.57557e-10 9.13103e-11 2.89321e-10)
(0.000101809 -1.32038e-08 -7.47793e-09 7.74434e-10 1.13768e-10 3.00987e-10)
(0.000101789 2.44081e-09 -5.0692e-09 7.41791e-10 1.05582e-10 3.0639e-10)
(0.00010182 -1.37138e-08 -1.12111e-08 7.90501e-10 1.04135e-10 3.12273e-10)
(0.000101791 -3.45415e-09 -5.70637e-10 7.94545e-10 6.87815e-11 3.04798e-10)
(0.000101813 -9.00065e-09 -1.32688e-08 7.90981e-10 2.87816e-11 2.89182e-10)
(0.000101812 -8.99635e-09 -2.78768e-10 7.56286e-10 1.1876e-11 2.65292e-10)
(0.000101796 -6.00148e-09 -1.18848e-08 7.28194e-10 -1.66081e-12 2.48922e-10)
(0.000101824 -1.02172e-08 -2.62869e-09 7.22696e-10 3.03595e-11 2.5042e-10)
(0.000101803 -4.13135e-09 -8.63569e-09 6.91806e-10 3.9609e-11 2.61708e-10)
(0.000101817 -1.01241e-08 -6.3511e-09 6.90141e-10 4.4899e-11 2.57485e-10)
(0.000101819 -1.65271e-09 -5.68604e-09 6.95087e-10 3.9758e-11 2.59206e-10)
(0.000101813 -7.28092e-09 -9.96737e-09 7.38098e-10 3.48383e-11 2.68356e-10)
(0.000101821 -1.89084e-09 -2.7093e-09 6.96443e-10 3.78816e-11 2.84074e-10)
(0.000101822 -2.23133e-09 -1.38649e-08 7.07759e-10 2.75644e-11 2.90381e-10)
(0.000101814 -5.31105e-10 -1.99541e-10 6.6341e-10 -7.6922e-12 2.74631e-10)
(0.000101831 -2.16503e-09 -1.57938e-08 7.0888e-10 -2.75058e-11 2.76707e-10)
(0.000101811 5.78642e-09 1.85516e-09 7.43898e-10 -2.08476e-11 2.76671e-10)
(0.000101819 -3.73228e-09 -1.74823e-08 7.54828e-10 -3.11804e-12 2.69048e-10)
(0.000101826 7.86052e-09 3.14858e-09 8.29363e-10 2.59485e-13 2.54568e-10)
(0.000101805 -1.9612e-10 -1.7475e-08 8.19604e-10 -1.80287e-11 2.44905e-10)
(0.000101827 4.53676e-09 2.34661e-09 8.41752e-10 -1.70822e-11 2.41201e-10)
(0.000101803 2.40521e-09 -1.45709e-08 8.06429e-10 -1.88137e-11 2.51156e-10)
(0.00010182 5.35785e-09 -2.22413e-09 8.13332e-10 -1.77786e-11 2.50599e-10)
(0.000101805 -1.67593e-09 -7.42576e-09 7.67199e-10 -3.88988e-11 2.67459e-10)
(0.000101811 7.51097e-09 -9.92263e-09 7.03904e-10 -6.48358e-11 2.87727e-10)
(0.000101809 -3.92688e-09 -1.80271e-10 6.415e-10 -7.14639e-11 2.84361e-10)
(0.0001018 5.00639e-09 -1.33184e-08 6.39126e-10 -8.64336e-11 2.6923e-10)
(0.000101808 -2.07272e-09 -1.4666e-10 6.62538e-10 -8.88417e-11 2.53459e-10)
(0.000101805 1.05346e-09 -1.16718e-08 6.52549e-10 -9.24713e-11 2.60835e-10)
(0.0001018 -9.28792e-12 -2.2366e-09 6.79768e-10 -8.09785e-11 2.72565e-10)
(0.000101811 -1.04467e-09 -1.04751e-08 6.862e-10 -7.48955e-11 2.78333e-10)
(0.000101796 1.46408e-09 -3.79866e-09 7.60528e-10 -4.92101e-11 2.84587e-10)
(0.000101806 -4.91501e-09 -1.10724e-08 7.54625e-10 -2.0859e-11 2.80326e-10)
(0.000101805 4.18554e-09 -3.37195e-09 7.73669e-10 3.44239e-12 2.61879e-10)
(0.000101795 -8.59177e-09 -1.22448e-08 7.30288e-10 1.62791e-11 2.54886e-10)
(0.000101814 3.36843e-09 -4.32625e-09 7.4113e-10 1.59746e-11 2.53504e-10)
(0.000101789 -7.13188e-09 -1.02654e-08 7.45721e-10 2.38101e-11 2.67054e-10)
(0.00010181 -2.53255e-10 -8.0058e-09 7.25358e-10 3.97022e-11 2.81401e-10)
(0.000101796 -7.83729e-09 -7.05547e-09 7.61113e-10 7.61243e-11 2.82087e-10)
(0.000101796 -1.36006e-10 -5.28633e-09 9.87116e-10 2.3049e-10 2.99283e-10)
(0.000101809 -1.38667e-08 -1.39075e-08 9.45112e-10 2.36266e-10 3.10484e-10)
(0.000101788 4.59591e-10 -1.58694e-09 9.06975e-10 1.82839e-10 2.98326e-10)
(0.000101813 -1.49262e-08 -1.64366e-08 9.37195e-10 1.61503e-10 2.92554e-10)
(0.000101794 -6.05691e-09 2.1961e-09 8.55538e-10 1.0026e-10 2.66877e-10)
(0.000101807 -1.09083e-08 -1.64323e-08 8.8338e-10 7.20838e-11 2.51625e-10)
(0.000101813 -1.06648e-08 1.90667e-09 8.06825e-10 8.35305e-11 2.36016e-10)
(0.000101795 -1.09889e-08 -1.37559e-08 8.33049e-10 6.44366e-11 2.3164e-10)
(0.000101824 -8.55387e-09 -1.67606e-09 8.4549e-10 9.66826e-11 2.40667e-10)
(0.000101802 -1.16914e-08 -9.49718e-09 7.97242e-10 7.99592e-11 2.45852e-10)
(0.00010182 -7.84583e-09 -6.17559e-09 7.74879e-10 8.56878e-11 2.31119e-10)
(0.000101819 -7.45063e-09 -6.45929e-09 7.59303e-10 9.79878e-11 2.38035e-10)
(0.000101813 -6.99989e-09 -9.80989e-09 7.18518e-10 9.7996e-11 2.46679e-10)
(0.000101824 -5.87207e-09 -3.84504e-09 6.24627e-10 9.36594e-11 2.69383e-10)
(0.000101822 -6.9715e-10 -1.33622e-08 6.43733e-10 7.04701e-11 2.67413e-10)
(0.000101815 -7.06568e-09 -1.73356e-09 6.11509e-10 2.26912e-11 2.49577e-10)
(0.000101834 4.37275e-09 -1.54454e-08 7.05409e-10 2.09877e-11 2.49774e-10)
(0.000101809 -4.36052e-09 4.18426e-10 6.71101e-10 4.07007e-11 2.42988e-10)
(0.000101822 4.83356e-09 -1.79186e-08 6.96118e-10 5.68071e-11 2.37932e-10)
(0.000101826 3.31516e-11 2.37679e-09 7.38072e-10 7.44912e-11 2.25514e-10)
(0.000101805 3.60482e-09 -1.92439e-08 7.24241e-10 5.74657e-11 2.23905e-10)
(0.000101825 2.86291e-09 2.71753e-09 7.56489e-10 8.84028e-11 2.08513e-10)
(0.000101806 6.7252e-10 -1.81897e-08 7.28151e-10 8.08921e-11 2.33977e-10)
(0.000101814 8.02074e-09 -1.76528e-10 7.87389e-10 8.08511e-11 2.34913e-10)
(0.000101808 -7.66649e-09 -1.30215e-08 7.54854e-10 6.21191e-11 2.49314e-10)
(0.000101808 1.30565e-08 -6.13184e-09 7.12761e-10 3.02189e-11 2.56462e-10)
(0.000101806 -1.09406e-08 -7.31497e-09 6.78209e-10 2.99618e-11 2.32132e-10)
(0.000101803 8.97909e-09 -8.67115e-09 7.53215e-10 2.76067e-11 2.14093e-10)
(0.000101803 -5.73942e-09 -7.47731e-09 7.19132e-10 4.55468e-11 2.08761e-10)
(0.000101806 1.6804e-09 -7.49741e-09 7.18477e-10 4.07744e-11 2.14463e-10)
(0.000101799 -2.48722e-09 -8.38774e-09 7.37267e-10 6.74446e-11 2.17705e-10)
(0.00010181 3.31925e-10 -8.4062e-09 7.54952e-10 6.87028e-11 2.26591e-10)
(0.000101794 -4.55261e-09 -7.97378e-09 8.44551e-10 9.93527e-11 2.44776e-10)
(0.000101806 -1.06121e-10 -1.13003e-08 8.22167e-10 1.20389e-10 2.59691e-10)
(0.000101802 -3.79831e-09 -5.58179e-09 8.87554e-10 1.28592e-10 2.40978e-10)
(0.000101794 -3.56659e-09 -1.50885e-08 8.59775e-10 1.19323e-10 2.46352e-10)
(0.000101813 -2.43641e-09 -3.77475e-09 9.31285e-10 1.19515e-10 2.39517e-10)
(0.000101787 -5.11072e-09 -1.51746e-08 9.18648e-10 1.4785e-10 2.43677e-10)
(0.000101809 -2.76867e-09 -5.60271e-09 9.27085e-10 1.82469e-10 2.67456e-10)
(0.000101798 -8.01862e-09 -1.32273e-08 9.78056e-10 2.26687e-10 2.71971e-10)
(0.000101792 -8.25066e-09 -5.58339e-09 1.13564e-09 2.75032e-10 3.48348e-10)
(0.000101809 -1.20787e-08 -1.76338e-08 1.06024e-09 2.89718e-10 3.32488e-10)
(0.000101787 -9.8729e-09 -1.17823e-09 9.88899e-10 1.98087e-10 3.14197e-10)
(0.000101808 -1.34649e-08 -1.92755e-08 9.61931e-10 1.88619e-10 3.03491e-10)
(0.000101797 -1.46963e-08 2.53758e-09 8.46524e-10 1.33e-10 2.85252e-10)
(0.000101804 -1.19341e-08 -1.82452e-08 9.33041e-10 1.38682e-10 2.85749e-10)
(0.000101811 -1.59276e-08 2.50617e-09 8.53677e-10 1.57296e-10 2.75706e-10)
(0.000101798 -1.49946e-08 -1.5597e-08 9.69081e-10 1.11706e-10 2.77969e-10)
(0.000101823 -1.03738e-08 -8.67647e-10 9.31999e-10 1.42957e-10 2.88338e-10)
(0.000101803 -1.76153e-08 -1.17583e-08 8.97008e-10 1.04893e-10 2.83237e-10)
(0.000101824 -8.40666e-09 -4.98545e-09 8.78292e-10 1.31506e-10 2.61705e-10)
(0.000101819 -1.23955e-08 -9.41634e-09 8.60926e-10 1.30212e-10 2.7576e-10)
(0.000101815 -8.63657e-09 -8.03122e-09 7.78546e-10 1.3219e-10 2.71187e-10)
(0.00010183 -8.45934e-09 -7.95544e-09 7.13549e-10 1.26223e-10 3.09363e-10)
(0.00010182 -1.68344e-09 -1.05601e-08 7.74971e-10 9.56981e-11 2.79054e-10)
(0.000101822 -1.09297e-08 -7.25594e-09 7.66532e-10 5.8289e-11 2.69307e-10)
(0.000101835 8.35623e-09 -1.22223e-08 8.8662e-10 8.09544e-11 2.6416e-10)
(0.000101811 -1.22298e-08 -5.67645e-09 7.86257e-10 8.54157e-11 2.5652e-10)
(0.000101826 1.20999e-08 -1.53632e-08 8.35377e-10 8.24022e-11 2.57581e-10)
(0.000101824 -7.32882e-09 -3.37858e-09 8.16721e-10 1.20342e-10 2.48511e-10)
(0.00010181 8.26529e-09 -1.81969e-08 8.40978e-10 9.85794e-11 2.613e-10)
(0.000101821 -1.05308e-09 -1.46721e-09 8.63837e-10 1.49035e-10 2.43369e-10)
(0.000101812 2.09416e-09 -1.97642e-08 8.91945e-10 1.21998e-10 2.85769e-10)
(0.000101807 5.14566e-09 -1.65811e-09 9.66207e-10 1.41637e-10 2.70796e-10)
(0.000101813 -7.63023e-09 -1.78164e-08 9.11545e-10 1.13835e-10 2.85741e-10)
(0.000101805 1.11923e-08 -4.09219e-09 9.44773e-10 9.67619e-11 2.77363e-10)
(0.000101803 -1.21641e-08 -1.46816e-08 8.86764e-10 1.03335e-10 2.52018e-10)
(0.000101808 7.41732e-09 -4.73185e-09 9.8108e-10 8.32244e-11 2.29183e-10)
(0.000101796 -6.90678e-09 -1.5793e-08 9.06797e-10 1.25812e-10 2.30452e-10)
(0.000101809 -7.14757e-10 -3.32623e-09 9.24132e-10 9.68113e-11 2.288e-10)
(0.000101798 -3.86854e-09 -1.66863e-08 8.87898e-10 1.2358e-10 2.15717e-10)
(0.000101807 -1.86872e-09 -5.18671e-09 9.00666e-10 1.10942e-10 2.29571e-10)
(0.000101795 -7.90903e-09 -1.55924e-08 9.27828e-10 1.33559e-10 2.439e-10)
(0.000101806 2.59557e-10 -9.49871e-09 9.26795e-10 1.31949e-10 2.74041e-10)
(0.0001018 -9.01697e-09 -1.21516e-08 1.01198e-09 1.26488e-10 2.51423e-10)
(0.000101796 -1.55632e-09 -1.53583e-08 9.71869e-10 1.08078e-10 2.84413e-10)
(0.000101811 -7.43268e-09 -7.84046e-09 1.09253e-09 1.31225e-10 2.61435e-10)
(0.000101787 -4.68611e-09 -1.74716e-08 1.01914e-09 1.73133e-10 2.6113e-10)
(0.000101805 -7.75471e-09 -7.35837e-09 1.11202e-09 2.20656e-10 2.937e-10)
(0.000101799 -8.14751e-09 -1.66841e-08 1.12379e-09 2.78367e-10 2.95711e-10)
(0.000101791 -1.54058e-08 -1.03687e-08 1.28462e-09 2.94635e-10 4.37658e-10)
(0.000101807 -1.14832e-08 -1.90982e-08 1.14457e-09 3.19641e-10 3.71087e-10)
(0.000101787 -2.07625e-08 -5.60783e-09 1.1037e-09 1.91948e-10 3.7681e-10)
(0.000101806 -1.22809e-08 -1.95556e-08 1.00189e-09 2.15422e-10 3.48795e-10)
(0.000101797 -2.40001e-08 -1.20341e-09 8.86745e-10 1.52007e-10 3.66706e-10)
(0.000101805 -1.3098e-08 -1.82258e-08 1.02988e-09 1.96477e-10 3.74193e-10)
(0.000101808 -2.18765e-08 -7.48906e-12 9.40478e-10 1.88528e-10 3.77616e-10)
(0.000101803 -1.81083e-08 -1.65239e-08 1.08777e-09 1.31107e-10 3.7802e-10)
(0.000101821 -1.45757e-08 -2.22627e-09 9.81365e-10 1.7692e-10 3.92138e-10)
(0.000101805 -2.15436e-08 -1.41182e-08 9.91645e-10 1.15356e-10 3.64894e-10)
(0.000101827 -1.18693e-08 -5.65185e-09 9.72918e-10 1.69774e-10 3.36861e-10)
(0.000101819 -1.58101e-08 -1.2972e-08 9.89115e-10 1.26425e-10 3.52342e-10)
(0.000101819 -1.25421e-08 -7.89976e-09 9.00354e-10 1.46083e-10 3.27492e-10)
(0.000101834 -8.97418e-09 -1.29329e-08 9.33518e-10 1.29295e-10 4.00946e-10)
(0.000101818 -6.20345e-09 -9.23215e-09 1.01262e-09 1.09939e-10 3.25128e-10)
(0.00010183 -1.01271e-08 -1.4182e-08 1.01465e-09 9.28126e-11 3.46042e-10)
(0.000101833 6.55464e-09 -1.01224e-08 1.14873e-09 1.27513e-10 3.19709e-10)
(0.000101815 -1.38223e-08 -1.39099e-08 1.04381e-09 1.20802e-10 3.26725e-10)
(0.000101829 1.32161e-08 -1.3659e-08 1.08757e-09 1.20517e-10 3.27447e-10)
(0.000101821 -9.9431e-09 -1.1707e-08 1.00511e-09 1.71429e-10 3.1677e-10)
(0.000101815 8.32214e-09 -1.75177e-08 1.08173e-09 1.30496e-10 3.34906e-10)
(0.000101817 -3.30298e-09 -8.89183e-09 1.06208e-09 1.96831e-10 3.07278e-10)
(0.000101816 1.61042e-09 -2.09239e-08 1.15353e-09 1.33646e-10 3.68563e-10)
(0.000101801 5.97531e-10 -6.84553e-09 1.15658e-09 2.01444e-10 3.32135e-10)
(0.000101817 -6.47846e-09 -2.12267e-08 1.11996e-09 1.52857e-10 3.68224e-10)
(0.000101802 4.82592e-09 -5.98062e-09 1.18349e-09 1.61228e-10 3.42266e-10)
(0.0001018 -1.10067e-08 -2.01208e-08 1.10737e-09 1.59439e-10 3.40654e-10)
(0.000101811 1.5723e-09 -5.13796e-09 1.2352e-09 1.30676e-10 3.04479e-10)
(0.000101791 -7.70995e-09 -2.18072e-08 1.12241e-09 2.01988e-10 3.21984e-10)
(0.000101811 -5.94819e-09 -3.65219e-09 1.14882e-09 1.27493e-10 3.02786e-10)
(0.000101797 -5.65777e-09 -2.31783e-08 1.04852e-09 1.66642e-10 2.74523e-10)
(0.000101804 -7.5407e-09 -5.52994e-09 1.07318e-09 1.29026e-10 2.929e-10)
(0.000101797 -9.40076e-09 -2.26085e-08 1.03335e-09 1.44209e-10 2.88679e-10)
(0.000101805 -5.01108e-09 -9.9379e-09 1.08911e-09 1.19761e-10 3.35417e-10)
(0.000101799 -1.05722e-08 -1.96106e-08 1.11909e-09 1.19032e-10 2.97452e-10)
(0.000101797 -5.78099e-09 -1.64018e-08 1.10024e-09 9.5016e-11 3.70953e-10)
(0.000101809 -9.15796e-09 -1.43102e-08 1.23711e-09 1.41636e-10 3.07048e-10)
(0.000101787 -9.50098e-09 -1.93619e-08 1.13888e-09 1.7265e-10 3.32342e-10)
(0.000101804 -1.07137e-08 -1.25808e-08 1.29615e-09 2.18052e-10 3.61519e-10)
(0.000101797 -1.14128e-08 -1.88105e-08 1.22532e-09 2.94305e-10 3.64411e-10)
(0.000101792 -2.14746e-08 -1.62124e-08 1.53188e-09 3.10499e-10 5.37061e-10)
(0.000101803 -1.59624e-08 -2.13885e-08 1.36676e-09 3.44499e-10 4.3137e-10)
(0.000101787 -3.01052e-08 -1.17938e-08 1.41435e-09 1.7547e-10 4.67417e-10)
(0.000101804 -1.5997e-08 -1.99931e-08 1.21853e-09 2.56791e-10 4.04048e-10)
(0.000101796 -3.19291e-08 -6.8633e-09 1.16084e-09 1.56348e-10 4.8305e-10)
(0.000101807 -1.87176e-08 -1.8103e-08 1.29459e-09 2.45343e-10 4.6872e-10)
(0.000101805 -2.74059e-08 -4.36648e-09 1.1837e-09 1.89273e-10 5.14761e-10)
(0.000101807 -2.47804e-08 -1.74297e-08 1.3371e-09 1.51318e-10 4.82779e-10)
(0.000101819 -2.001e-08 -5.42435e-09 1.18437e-09 2.16694e-10 5.25061e-10)
(0.000101807 -2.81996e-08 -1.67843e-08 1.26831e-09 1.36623e-10 4.60381e-10)
(0.000101831 -1.66464e-08 -8.19423e-09 1.24179e-09 2.15992e-10 4.37287e-10)
(0.000101819 -2.18491e-08 -1.66762e-08 1.27388e-09 1.25949e-10 4.42902e-10)
(0.000101824 -1.66193e-08 -9.86962e-09 1.17976e-09 1.78421e-10 4.01004e-10)
(0.000101838 -1.18135e-08 -1.77259e-08 1.32174e-09 1.27888e-10 5.22866e-10)
(0.000101819 -1.12475e-08 -1.04697e-08 1.3566e-09 1.40481e-10 3.85121e-10)
(0.000101838 -9.32585e-09 -2.06497e-08 1.32206e-09 1.13749e-10 4.70572e-10)
(0.000101831 1.42207e-09 -1.09329e-08 1.49811e-09 1.75899e-10 4.00668e-10)
(0.00010182 -1.34144e-08 -2.15925e-08 1.39784e-09 1.49658e-10 4.54564e-10)
(0.000101831 9.00592e-09 -1.50122e-08 1.40972e-09 1.73e-10 4.30323e-10)
(0.000101818 -1.08484e-08 -1.966e-08 1.33762e-09 2.33554e-10 4.25504e-10)
(0.000101819 3.91139e-09 -1.99819e-08 1.41595e-09 1.59797e-10 4.31729e-10)
(0.000101813 -5.12372e-09 -1.64752e-08 1.35386e-09 2.37673e-10 3.91772e-10)
(0.000101817 -2.42802e-09 -2.45565e-08 1.46259e-09 1.18225e-10 4.77628e-10)
(0.000101797 -4.42806e-09 -1.29486e-08 1.36746e-09 2.41013e-10 4.08802e-10)
(0.000101819 -7.31737e-09 -2.58593e-08 1.40122e-09 1.40301e-10 4.86613e-10)
(0.0001018 -3.2374e-09 -9.46321e-09 1.42759e-09 1.97224e-10 4.30799e-10)
(0.000101799 -1.11446e-08 -2.55329e-08 1.3544e-09 1.73542e-10 4.73033e-10)
(0.000101812 -6.01376e-09 -7.84563e-09 1.47291e-09 1.51066e-10 3.99414e-10)
(0.000101787 -1.12837e-08 -2.67653e-08 1.37127e-09 2.48022e-10 4.59031e-10)
(0.000101812 -1.18661e-08 -6.968e-09 1.37603e-09 1.32097e-10 3.97129e-10)
(0.000101796 -1.08015e-08 -2.79597e-08 1.22119e-09 1.95756e-10 3.70507e-10)
(0.000101802 -1.3964e-08 -9.32206e-09 1.30597e-09 1.18554e-10 3.79911e-10)
(0.000101798 -1.27898e-08 -2.79389e-08 1.22496e-09 1.50438e-10 3.52653e-10)
(0.000101804 -1.24657e-08 -1.40721e-08 1.31379e-09 1.02014e-10 4.18722e-10)
(0.000101799 -1.25108e-08 -2.5734e-08 1.25307e-09 1.2576e-10 3.5132e-10)
(0.000101798 -1.29246e-08 -2.10177e-08 1.30428e-09 9.98862e-11 4.84691e-10)
(0.000101806 -1.08966e-08 -2.03058e-08 1.42975e-09 1.68761e-10 3.53484e-10)
(0.000101786 -1.76277e-08 -2.40252e-08 1.35922e-09 1.58231e-10 4.4646e-10)
(0.000101803 -1.33929e-08 -1.80458e-08 1.50756e-09 2.08623e-10 4.43213e-10)
(0.000101793 -1.87144e-08 -2.27352e-08 1.38924e-09 3.01206e-10 4.70077e-10)
(0.000101795 -2.96832e-08 -2.26271e-08 1.96976e-09 3.18549e-10 6.33526e-10)
(0.000101798 -2.45375e-08 -2.52465e-08 1.85365e-09 3.5279e-10 5.33207e-10)
(0.000101787 -3.97659e-08 -1.8577e-08 1.98227e-09 1.63767e-10 5.74037e-10)
(0.000101804 -2.35259e-08 -2.18528e-08 1.69336e-09 3.14538e-10 4.84618e-10)
(0.000101794 -3.97753e-08 -1.27581e-08 1.72599e-09 1.47173e-10 6.23219e-10)
(0.00010181 -2.75617e-08 -1.94951e-08 1.79032e-09 3.02807e-10 5.65836e-10)
(0.000101801 -3.37802e-08 -8.88685e-09 1.66175e-09 1.6759e-10 6.73772e-10)
(0.000101812 -3.4194e-08 -2.00331e-08 1.84034e-09 1.89809e-10 5.68418e-10)
(0.000101817 -2.7593e-08 -9.10408e-09 1.71632e-09 2.6056e-10 6.89452e-10)
(0.000101809 -3.71502e-08 -2.11487e-08 1.88262e-09 1.77064e-10 5.61415e-10)
(0.000101835 -2.31075e-08 -1.14571e-08 1.83929e-09 2.78627e-10 5.76763e-10)
(0.000101819 -3.02353e-08 -2.19558e-08 1.86443e-09 1.60563e-10 5.46759e-10)
(0.000101831 -2.06015e-08 -1.31867e-08 1.75084e-09 2.53422e-10 5.06922e-10)
(0.000101841 -1.76487e-08 -2.3736e-08 1.96562e-09 1.58468e-10 6.6219e-10)
(0.000101821 -1.52956e-08 -1.37328e-08 1.91061e-09 2.23474e-10 4.61658e-10)
(0.000101845 -1.07977e-08 -2.77431e-08 1.8195e-09 1.40323e-10 6.27347e-10)
(0.000101829 -4.47792e-09 -1.44455e-08 2.0852e-09 2.55585e-10 4.92806e-10)
(0.000101825 -1.40736e-08 -2.96209e-08 1.96988e-09 1.86119e-10 6.29995e-10)
(0.000101833 2.33723e-09 -1.96572e-08 2.01225e-09 2.71769e-10 5.39012e-10)
(0.000101815 -1.30988e-08 -2.78811e-08 1.98043e-09 3.31265e-10 5.83596e-10)
(0.000101822 -2.78454e-09 -2.59234e-08 1.98211e-09 2.27302e-10 5.40366e-10)
(0.00010181 -9.07143e-09 -2.43169e-08 1.91248e-09 3.13959e-10 5.15611e-10)
(0.000101817 -8.51852e-09 -3.11465e-08 1.93934e-09 1.0823e-10 6.05271e-10)
(0.000101795 -1.13644e-08 -1.93712e-08 1.84176e-09 2.86686e-10 4.99124e-10)
(0.000101819 -1.0004e-08 -3.26907e-08 1.91856e-09 1.12689e-10 6.38115e-10)
(0.000101798 -1.39813e-08 -1.36674e-08 1.92017e-09 2.31033e-10 5.35492e-10)
(0.000101798 -1.35242e-08 -3.25461e-08 1.84332e-09 1.71929e-10 6.30333e-10)
(0.000101811 -1.68463e-08 -1.15143e-08 1.91772e-09 1.64978e-10 4.93977e-10)
(0.000101785 -1.78195e-08 -3.33752e-08 1.88609e-09 2.60475e-10 6.32701e-10)
(0.000101812 -2.01413e-08 -1.15163e-08 1.79641e-09 1.17236e-10 4.86588e-10)
(0.000101795 -1.97871e-08 -3.41211e-08 1.65409e-09 2.08169e-10 5.04754e-10)
(0.000101802 -2.22434e-08 -1.41297e-08 1.77008e-09 9.33938e-11 4.71396e-10)
(0.000101799 -1.99121e-08 -3.44412e-08 1.69085e-09 1.72823e-10 4.36759e-10)
(0.000101805 -2.20578e-08 -1.95132e-08 1.74808e-09 9.62712e-11 5.1691e-10)
(0.000101799 -1.77545e-08 -3.29345e-08 1.61258e-09 1.56288e-10 4.08943e-10)
(0.000101799 -2.24513e-08 -2.73276e-08 1.7367e-09 1.18401e-10 6.17348e-10)
(0.000101804 -1.61322e-08 -2.73587e-08 1.819e-09 2.09689e-10 3.97469e-10)
(0.000101784 -2.8315e-08 -3.05264e-08 1.79184e-09 1.36449e-10 5.8775e-10)
(0.000101803 -1.96758e-08 -2.42771e-08 1.85806e-09 1.91575e-10 5.19919e-10)
(0.000101788 -2.94244e-08 -2.84178e-08 1.78536e-09 2.88401e-10 5.98416e-10)
(0.000101798 -4.11302e-08 -3.0923e-08 2.94668e-09 3.26677e-10 7.26708e-10)
(0.000101793 -3.9384e-08 -2.90617e-08 2.9455e-09 3.53559e-10 6.83686e-10)
(0.000101788 -5.14954e-08 -2.68227e-08 3.06735e-09 1.57401e-10 6.84455e-10)
(0.000101805 -3.69622e-08 -2.41016e-08 2.74233e-09 3.77673e-10 6.09084e-10)
(0.000101792 -5.00279e-08 -1.98202e-08 2.81888e-09 1.42138e-10 7.73573e-10)
(0.000101814 -4.14512e-08 -2.17655e-08 2.78355e-09 3.68886e-10 6.78282e-10)
(0.000101798 -4.38349e-08 -1.41974e-08 2.66302e-09 1.4012e-10 8.47074e-10)
(0.000101815 -4.84037e-08 -2.36193e-08 2.90657e-09 2.31142e-10 6.27375e-10)
(0.000101816 -3.99315e-08 -1.346e-08 2.86614e-09 2.84612e-10 8.91843e-10)
(0.000101812 -4.99128e-08 -2.6788e-08 3.15672e-09 2.31415e-10 6.67652e-10)
(0.000101839 -3.38621e-08 -1.56637e-08 3.09351e-09 3.26599e-10 7.62663e-10)
(0.000101822 -4.20226e-08 -2.85275e-08 3.1026e-09 2.37024e-10 6.64139e-10)
(0.000101838 -2.77582e-08 -1.72768e-08 2.94612e-09 3.63813e-10 6.60455e-10)
(0.000101844 -2.7769e-08 -3.0845e-08 3.20629e-09 2.44001e-10 8.15198e-10)
(0.000101827 -2.20369e-08 -1.80842e-08 3.03856e-09 3.61361e-10 5.60801e-10)
(0.000101851 -1.65692e-08 -3.59634e-08 2.90752e-09 1.73885e-10 7.96108e-10)
(0.000101828 -1.32154e-08 -1.9728e-08 3.39337e-09 3.85622e-10 5.96408e-10)
(0.000101829 -1.78557e-08 -3.88505e-08 3.20103e-09 2.32115e-10 8.26418e-10)
(0.000101833 -7.82622e-09 -2.64031e-08 3.3659e-09 4.26243e-10 6.42887e-10)
(0.000101813 -1.93091e-08 -3.78252e-08 3.3287e-09 4.7803e-10 7.92809e-10)
(0.000101824 -1.3424e-08 -3.39827e-08 3.20262e-09 3.6669e-10 6.53576e-10)
(0.000101807 -1.75505e-08 -3.39329e-08 3.11671e-09 4.58142e-10 6.94397e-10)
(0.000101815 -1.82929e-08 -3.9124e-08 2.99852e-09 1.4021e-10 7.43224e-10)
(0.000101796 -2.22579e-08 -2.72511e-08 3.03814e-09 3.78526e-10 6.30314e-10)
(0.000101817 -1.68997e-08 -3.99092e-08 3.10575e-09 1.00158e-10 8.15739e-10)
(0.000101797 -2.96345e-08 -1.93781e-08 3.18402e-09 3.27824e-10 6.73866e-10)
(0.000101796 -2.0573e-08 -3.968e-08 3.02323e-09 2.09664e-10 8.16819e-10)
(0.000101809 -3.38724e-08 -1.63764e-08 3.1386e-09 2.14551e-10 6.08053e-10)
(0.000101784 -2.89949e-08 -3.99577e-08 3.14622e-09 2.88659e-10 8.57271e-10)
(0.000101811 -3.48376e-08 -1.65442e-08 2.94023e-09 1.13985e-10 5.72366e-10)
(0.000101794 -3.35524e-08 -4.04303e-08 2.8465e-09 2.16279e-10 6.93059e-10)
(0.000101802 -3.60506e-08 -1.92994e-08 2.93939e-09 6.38594e-11 5.65981e-10)
(0.000101799 -3.16144e-08 -4.16097e-08 2.91752e-09 2.29994e-10 5.64266e-10)
(0.000101807 -3.67929e-08 -2.52852e-08 2.84555e-09 1.13194e-10 6.31274e-10)
(0.000101799 -2.77931e-08 -4.1528e-08 2.73617e-09 2.06543e-10 4.89118e-10)
(0.0001018 -3.72742e-08 -3.37516e-08 2.84787e-09 1.64316e-10 7.67962e-10)
(0.000101801 -2.62567e-08 -3.59661e-08 2.91033e-09 2.94987e-10 4.51605e-10)
(0.000101783 -4.41448e-08 -3.65792e-08 2.86432e-09 1.22204e-10 7.53548e-10)
(0.000101803 -3.07374e-08 -3.21691e-08 2.8179e-09 1.88744e-10 5.95527e-10)
(0.000101783 -4.58036e-08 -3.37381e-08 2.82294e-09 2.74356e-10 7.44772e-10)
(0.000101802 -5.78527e-08 -3.89324e-08 5.1549e-09 4.101e-10 8.60863e-10)
(0.000101789 -6.27692e-08 -3.14405e-08 5.27207e-09 4.22601e-10 9.20298e-10)
(0.000101791 -6.70653e-08 -3.43066e-08 5.28675e-09 1.84689e-10 8.31457e-10)
(0.000101806 -5.93148e-08 -2.44357e-08 4.96588e-09 4.87209e-10 8.23383e-10)
(0.00010179 -6.48737e-08 -2.62853e-08 4.98302e-09 1.82665e-10 9.54123e-10)
(0.000101817 -6.45229e-08 -2.26683e-08 4.87865e-09 4.72892e-10 8.7224e-10)
(0.000101795 -5.95843e-08 -1.971e-08 4.75715e-09 1.63226e-10 1.05875e-09)
(0.000101816 -7.17927e-08 -2.64019e-08 5.10811e-09 2.90754e-10 7.11993e-10)
(0.000101817 -5.83335e-08 -1.8401e-08 5.19809e-09 3.19504e-10 1.17815e-09)
(0.000101816 -7.09351e-08 -3.14557e-08 5.68979e-09 3.23039e-10 8.14322e-10)
(0.000101844 -4.99833e-08 -2.04294e-08 5.55981e-09 3.71687e-10 1.02722e-09)
(0.000101826 -6.11245e-08 -3.38331e-08 5.57485e-09 3.94464e-10 8.20216e-10)
(0.000101846 -3.94993e-08 -2.14123e-08 5.29832e-09 5.28346e-10 8.88902e-10)
(0.000101847 -4.56079e-08 -3.64452e-08 5.56715e-09 4.24341e-10 1.00888e-09)
(0.000101833 -3.28688e-08 -2.32044e-08 5.2887e-09 5.54944e-10 7.19505e-10)
(0.000101855 -3.03094e-08 -4.29294e-08 5.21637e-09 2.44454e-10 9.96634e-10)
(0.000101829 -2.62276e-08 -2.62576e-08 6.0746e-09 5.95068e-10 7.54195e-10)
(0.000101832 -2.92074e-08 -4.71178e-08 5.73327e-09 3.01442e-10 1.03768e-09)
(0.000101833 -2.30193e-08 -3.44007e-08 6.13398e-09 6.87591e-10 7.82337e-10)
(0.000101811 -3.27748e-08 -4.73277e-08 5.95806e-09 7.13517e-10 1.06289e-09)
(0.000101825 -2.93916e-08 -4.28358e-08 5.70403e-09 6.22209e-10 7.98961e-10)
(0.000101806 -3.32845e-08 -4.31445e-08 5.48532e-09 6.98468e-10 9.39974e-10)
(0.000101813 -3.47816e-08 -4.6514e-08 5.25561e-09 2.58754e-10 8.96867e-10)
(0.000101797 -4.08529e-08 -3.43627e-08 5.48248e-09 5.42122e-10 8.37752e-10)
(0.000101813 -3.23745e-08 -4.57061e-08 5.55491e-09 1.40157e-10 1.028e-09)
(0.000101796 -5.33906e-08 -2.49682e-08 5.88716e-09 5.6422e-10 8.9433e-10)
(0.000101795 -3.6309e-08 -4.48965e-08 5.57778e-09 3.2495e-10 1.05859e-09)
(0.000101805 -5.97575e-08 -2.08247e-08 5.91623e-09 3.88229e-10 7.97994e-10)
(0.000101785 -4.86191e-08 -4.41194e-08 5.79675e-09 4.13551e-10 1.16025e-09)
(0.000101809 -5.87795e-08 -2.07154e-08 5.54754e-09 1.89237e-10 6.98487e-10)
(0.000101795 -5.52773e-08 -4.46979e-08 5.42374e-09 2.73097e-10 9.80526e-10)
(0.000101804 -5.82083e-08 -2.39674e-08 5.52701e-09 4.61819e-11 6.99814e-10)
(0.000101799 -5.11127e-08 -4.73194e-08 5.58676e-09 3.77453e-10 7.69892e-10)
(0.00010181 -5.90678e-08 -3.10321e-08 5.31116e-09 1.78665e-10 7.93569e-10)
(0.0001018 -4.53198e-08 -4.93348e-08 5.41828e-09 3.51743e-10 6.30655e-10)
(0.000101802 -5.96036e-08 -4.01502e-08 5.39083e-09 3.24382e-10 9.70737e-10)
(0.000101798 -4.38506e-08 -4.41171e-08 5.5028e-09 5.0521e-10 5.74367e-10)
(0.000101782 -6.78341e-08 -4.18517e-08 5.34119e-09 1.91503e-10 9.66817e-10)
(0.000101803 -4.88121e-08 -3.96885e-08 5.18115e-09 2.89458e-10 7.18048e-10)
(0.000101779 -7.04036e-08 -3.81421e-08 5.18772e-09 3.57259e-10 9.45389e-10)
(0.000101806 -8.8515e-08 -4.20376e-08 9.88164e-09 7.23207e-10 1.14568e-09)
(0.000101786 -1.00474e-07 -2.97564e-08 1.00772e-08 7.20409e-10 1.32337e-09)
(0.000101793 -9.51704e-08 -3.61994e-08 9.86775e-09 3.33016e-10 1.09781e-09)
(0.000101808 -9.63585e-08 -2.0492e-08 9.44363e-09 7.90679e-10 1.22505e-09)
(0.000101788 -9.25884e-08 -2.77973e-08 9.22741e-09 3.51272e-10 1.22985e-09)
(0.00010182 -1.02179e-07 -1.97692e-08 9.04132e-09 7.5424e-10 1.27421e-09)
(0.000101792 -8.80077e-08 -2.09858e-08 8.92255e-09 3.80783e-10 1.382e-09)
(0.000101817 -1.09442e-07 -2.54076e-08 9.49726e-09 4.73817e-10 9.44623e-10)
(0.000101818 -8.92125e-08 -1.98068e-08 9.81258e-09 5.16306e-10 1.65775e-09)
(0.000101821 -1.06449e-07 -3.20956e-08 1.07091e-08 5.54991e-10 1.10679e-09)
(0.000101849 -7.78872e-08 -2.20791e-08 1.04404e-08 5.30528e-10 1.47188e-09)
(0.000101832 -9.38078e-08 -3.50572e-08 1.04777e-08 7.37377e-10 1.07639e-09)
(0.000101853 -6.21666e-08 -2.32724e-08 9.85962e-09 8.56737e-10 1.27665e-09)
(0.000101851 -7.76781e-08 -3.81946e-08 1.00563e-08 8.12818e-10 1.31968e-09)
(0.000101841 -5.38669e-08 -2.67712e-08 9.68333e-09 9.04777e-10 1.01098e-09)
(0.000101858 -5.90419e-08 -4.57786e-08 9.84374e-09 4.48422e-10 1.30965e-09)
(0.00010183 -4.88676e-08 -3.16345e-08 1.12736e-08 9.70995e-10 1.05844e-09)
(0.000101834 -5.5927e-08 -5.16634e-08 1.06994e-08 4.84949e-10 1.33509e-09)
(0.000101832 -4.82743e-08 -4.17038e-08 1.14356e-08 1.15387e-09 1.04642e-09)
(0.000101809 -6.12637e-08 -5.374e-08 1.09856e-08 1.14559e-09 1.46176e-09)
(0.000101826 -5.53188e-08 -5.0945e-08 1.05931e-08 1.08839e-09 1.03507e-09)
(0.000101804 -6.37125e-08 -4.91362e-08 1.0099e-08 1.11804e-09 1.27938e-09)
(0.00010181 -6.27054e-08 -5.19909e-08 9.82709e-09 5.13112e-10 1.13859e-09)
(0.000101799 -7.52029e-08 -3.80612e-08 1.02158e-08 8.1114e-10 1.19886e-09)
(0.000101807 -6.18946e-08 -4.8872e-08 1.0493e-08 3.01491e-10 1.33914e-09)
(0.000101795 -9.292e-08 -2.70384e-08 1.12278e-08 1.0482e-09 1.28208e-09)
(0.000101793 -6.63038e-08 -4.61045e-08 1.08991e-08 6.18669e-10 1.4454e-09)
(0.0001018 -1.01693e-07 -2.04734e-08 1.16705e-08 8.59217e-10 1.17651e-09)
(0.000101787 -8.27345e-08 -4.30665e-08 1.11886e-08 7.56093e-10 1.6034e-09)