/*--------------------------------*- C++ -*----------------------------------*\
  =========                 |
  \\      /  F ield         | OpenFOAM: The Open Source CFD Toolbox
   \\    /   O peration     | Website:  https://openfoam.org
    \\  /    A nd           | Version:  10
     \\/     M anipulation  |
\*---------------------------------------------------------------------------*/
FoamFile
{
    format      ascii;
    class       surfaceScalarField;
    location    "5";
    object      phi_0;
}
// * * * * * * * * * * * * * * * * * * * * * * * * * * * * * * * * * * * * * //

dimensions      [0 3 -1 0 0 0 0];

internalField   nonuniform List<scalar> 
74080
(
0.00519574
-5.44777e-05
-6.31969e-06
0.00515129
-0.000116321
-0.000116798
0.00512295
-8.03361e-05
-0.000253918
0.00510983
1.93287e-05
-0.000354873
0.00513124
0.000131327
-0.000374708
0.00518001
0.00019801
-0.000286638
0.0052278
0.000187093
-0.000128201
0.00526719
0.00010798
3.402e-05
0.00528418
2.39197e-05
0.000130795
0.00528416
-2.50189e-05
8.46705e-05
0.00527459
-1.39031e-05
-4.38963e-05
0.00526309
3.44765e-05
-0.000162396
0.00525755
5.62912e-05
-0.000225158
0.00525605
4.91459e-05
-0.000205472
0.00526078
1.82298e-05
-0.00014138
0.0052635
4.43464e-07
-8.24116e-05
0.0052708
3.92516e-05
-9.9259e-05
0.00528799
0.00010194
-0.000193682
0.0053304
0.000134999
-0.000281149
0.00541215
0.000102217
-0.000275407
0.00548752
4.36521e-05
-0.000134066
0.00550847
2.3455e-05
3.62203e-05
0.00544197
3.19564e-05
0.000127388
0.00531328
1.07897e-06
0.000151154
0.00519607
-0.000104552
0.000167177
0.00512349
-0.000231816
0.000227151
0.00510747
-0.000293684
0.00026907
0.00512226
-0.000246008
0.000206809
0.00513561
-0.000134656
3.50237e-05
0.00516037
-1.55615e-05
-0.000192741
0.00521044
5.52212e-05
-0.000347902
0.00527502
5.93649e-05
-0.000362065
0.00532852
4.47606e-05
-0.000268035
0.00534301
3.29122e-05
-0.000122164
0.00532789
2.93711e-05
1.67836e-05
0.00532296
8.36795e-05
9.21354e-05
0.00532564
0.000164117
0.000111031
0.00532458
0.00020393
0.000104835
0.00530262
0.000176352
8.29628e-05
7.12249e-05
5.37161e-05
0.00484415
2.26279e-05
1.25725e-05
0.00472327
-9.31654e-05
-7.92634e-05
0.00467896
-9.99502e-05
-0.000218115
0.0047007
-2.72255e-05
-0.000323361
0.00476516
5.99904e-05
-0.000331124
0.00482599
0.000100916
-0.000192788
0.00483952
7.67459e-05
5.51513e-05
0.00481356
9.53633e-06
0.00028124
0.00478149
-2.89004e-05
0.000339672
0.00477828
-1.59569e-05
0.000168913
0.00479844
4.1222e-05
-6.03654e-05
0.00482815
8.05264e-05
-0.000175678
0.0048439
5.96146e-05
-0.000137793
0.00483609
1.59569e-05
-1.86358e-06
0.00482198
-2.24151e-05
0.000116159
0.0048159
-1.55688e-05
0.000135529
0.00485233
2.78872e-05
5.48853e-05
0.00492997
6.00715e-05
-3.56244e-05
0.00501127
5.40789e-05
-5.34139e-05
0.00505203
8.89119e-06
2.09727e-05
0.00500904
3.98277e-07
0.000135663
0.00490815
4.02093e-05
0.000218128
0.00479708
7.98784e-05
0.000278952
0.00469413
5.33079e-05
0.000304683
0.00459426
-5.76218e-05
0.000268822
0.0044865
-0.000180226
0.000192239
0.00440854
-0.000259705
6.38626e-05
0.0044053
-0.000259483
-9.01732e-05
0.0044794
-0.000198704
-0.000208437
0.0046173
-0.000133066
-0.000243001
0.00476335
-8.48932e-05
-0.000191674
0.00483956
-4.6842e-05
-9.47965e-05
0.00481504
9.53629e-06
-3.64281e-05
0.00473215
6.22627e-05
-5.14502e-05
0.00467523
8.86944e-05
-9.37874e-05
0.00472135
0.0001408
-0.00011441
0.0048632
0.00021642
-7.38294e-05
0.00501796
0.000265068
5.07119e-06
0.0050759
0.000258724
5.68451e-05
0.000170481
5.92512e-05
0.00425165
4.89717e-05
0.000101768
0.00416441
-9.96101e-05
-4.92593e-05
0.00416895
-0.000157022
-0.000211199
0.00423509
-0.000138973
-0.000243283
0.00432082
-9.95539e-05
-8.27598e-05
0.00435437
-5.79853e-05
0.000200644
0.00431514
-4.62845e-05
0.000416527
0.00424652
-4.75474e-05
0.000424234
0.00421448
-2.64496e-05
0.000198014
0.00425421
1.28677e-05
-8.95861e-05
0.00433088
6.43824e-05
-0.000180791
0.00439594
7.83109e-05
-5.94155e-05
0.0044344
4.538e-05
0.000105368
0.00445393
2.08588e-05
0.000187917
0.00445006
2.98205e-05
0.000147474
0.00441995
6.70286e-05
5.08335e-05
0.0043903
8.14022e-05
-2.97385e-06
0.00438426
5.81845e-05
-2.42612e-06
0.00441947
1.70781e-06
2.69638e-05
0.00446895
-6.27702e-05
9.54669e-05
0.00448549
-5.52487e-05
0.000205707
0.0044659
7.40367e-06
0.00036024
0.0044277
8.64538e-05
0.000474633
0.00437851
0.000118696
0.000384458
0.00431024
6.96086e-05
0.000105547
0.00422861
4.31798e-06
-0.000205339
0.00415246
-6.63169e-05
-0.000382483
0.00408592
-0.000114162
-0.000401842
0.00403423
-0.000129704
-0.000337903
0.00401424
-0.000159144
-0.000242807
0.00404291
-0.000188471
-0.000176727
0.00410304
-0.00015652
-0.000126096
0.0041671
-4.3226e-05
-5.24466e-05
0.00422935
7.04462e-05
1.96802e-05
0.00430646
0.000114482
6.65097e-05
0.00442083
0.000127468
6.15425e-05
0.00454859
0.000147457
4.03258e-05
0.00461465
0.000179997
5.07187e-05
0.00456076
0.000211831
9.34601e-05
0.000181222
0.000137125
0.00368933
1.99769e-05
-0.00012331
0.00372462
-0.000164818
-0.000133091
0.00375456
-0.000239827
-2.95602e-05
0.00376743
-0.000210074
0.000107033
0.00375853
-0.000129837
0.000188217
0.00373143
-4.78672e-05
0.000161077
0.00371432
-3.43365e-05
6.20418e-05
0.00372456
-5.94584e-05
-3.77091e-05
0.00378734
-5.68149e-05
-0.000138877
0.00387988
5.88476e-06
-0.000178609
0.00393842
9.89776e-05
-8.78027e-05
0.00395199
0.000133324
2.26891e-05
0.00395556
0.000112444
4.58575e-05
0.00397018
0.000102592
3.49045e-05
0.00399128
0.000120097
4.95928e-05
0.00400472
0.000133911
0.000109837
0.00399485
0.000100993
0.000184024
0.00397539
3.93929e-05
0.000177807
0.0039703
-1.72788e-05
8.73814e-05
0.0039663
-5.56981e-05
7.52464e-05
0.00395307
-4.19798e-05
0.000231499
0.00393303
1.30602e-05
0.000442293
0.00390963
6.65312e-05
0.000511437
0.003888
5.07608e-05
0.000321557
0.00388252
-2.11878e-05
-3.22316e-05
0.00389236
-6.36964e-05
-0.000347573
0.0038766
-6.01325e-05
-0.000490333
0.00380733
-7.24076e-06
-0.000505554
0.00370994
3.66007e-05
-0.000486644
0.00364418
-1.31649e-05
-0.000460216
0.00366645
-0.000123345
-0.000392746
0.00375677
-0.000162553
-0.000186445
0.00386684
-9.3783e-05
0.000123912
0.00396574
-2.09993e-05
0.000340876
0.00403183
-3.61913e-07
0.000370916
0.00405922
2.712e-05
0.000225494
0.00403005
9.70365e-05
2.74878e-05
0.00392709
0.000193319
-6.6196e-05
0.00379067
0.000250196
-5.46695e-05
0.000195133
-5.76396e-05
0.00348341
1.69526e-05
0.000185547
0.00350758
-0.000177323
4.44903e-05
0.00350453
-0.000240329
-1.91136e-05
0.00347969
-0.000166671
-9.71705e-05
0.00342958
-2.96714e-05
-0.000216751
0.00336903
6.30189e-05
-0.000284861
0.00332181
3.409e-05
-0.000214991
0.00330962
-3.52763e-05
-7.36141e-05
0.00336462
-5.89102e-05
-6.01985e-06
0.00345138
1.36371e-05
1.32513e-05
0.00350434
0.00011512
0.000105129
0.00351606
0.000150199
0.000201364
0.00352018
0.0001532
0.000202911
0.00354387
0.000165882
0.000121806
0.0035826
0.000167742
4.07888e-05
0.00360006
0.000126287
7.04775e-05
0.00357647
2.98803e-05
0.000208693
0.003561
-5.79591e-05
0.000281965
0.0036035
-7.76877e-05
0.000202936
0.00367153
-6.15382e-05
0.000139147
0.00369512
-2.99093e-05
0.000227333
0.00363397
2.34619e-05
0.000377076
0.00353264
4.97787e-05
0.000399505
0.00347357
-8.46821e-06
0.000186023
0.00347827
-9.67503e-05
-0.000136816
0.00349651
-0.000140129
-0.000374256
0.0034751
-9.63595e-05
-0.00047994
0.00340212
2.28899e-05
-0.000490639
0.00331913
0.000119344
-0.000474616
0.00326973
9.01273e-05
-0.000429773
0.00326419
-3.79397e-05
-0.000295462
0.00328403
-0.000111732
-2.55918e-05
0.00332028
-0.000100079
0.000238763
0.00337193
-6.95532e-05
0.000274031
0.00343428
-2.61428e-05
6.77263e-05
0.00351204
3.05076e-05
-0.000182277
0.00357787
0.000103395
-0.00023459
0.00357424
0.000186323
-3.04578e-05
0.00351412
0.000223292
0.000253438
0.000175882
0.00033685
0.00331858
-3.1701e-05
0.000420637
0.00329766
-0.000154003
0.000267455
0.00323624
-0.000134991
2.2392e-05
0.00317655
-3.48458e-05
-0.000215991
0.00312251
8.19522e-05
-0.000293935
0.00306498
0.000149462
-0.000191013
0.00301248
0.000125163
-7.229e-05
0.00300018
5.31703e-05
-8.07052e-05
0.00306955
-3.34726e-05
-0.000175806
0.00317451
-4.91224e-05
-0.000156665
0.00323393
2.77177e-06
4.33943e-05
0.00324738
6.81547e-05
0.000199144
0.00325039
0.000149854
0.000175998
0.00325301
0.000186778
8.72411e-05
0.00323534
0.000145401
8.51594e-05
0.0031662
7.99108e-05
0.000177618
0.0030972
8.80575e-06
0.000190393
0.00312259
-4.51009e-05
2.94856e-05
0.00325272
-7.14187e-05
-0.000113149
0.0033923
-8.07263e-05
-6.16856e-05
0.00342265
-4.27896e-05
9.90069e-05
0.00329609
5.66148e-05
0.000211312
0.00309982
0.000113115
0.000150942
0.00294602
6.28777e-05
-7.45571e-05
0.00287271
-2.41224e-05
-0.000306569
0.00287694
-7.70028e-05
-0.000461318
0.00293646
-7.31893e-05
-0.000517144
0.003026
-1.73691e-05
-0.000473969
0.00309801
5.69032e-05
-0.000354582
0.00310576
7.60104e-05
-0.000195473
0.00306001
3.54419e-05
-3.83385e-05
0.0030032
6.43816e-06
0.000128421
0.00296928
-3.32767e-05
0.000194632
0.00297387
-8.70823e-05
4.22084e-05
0.00302222
-9.25593e-05
-0.000212474
0.00310343
-3.80707e-05
-0.000398644
0.00317725
5.08799e-05
-0.00033644
0.00321969
0.000143871
-3.99685e-05
0.00325199
0.000173894
0.000283699
0.00011632
0.000447297
0.00301122
-8.71396e-06
0.00022339
0.00296625
-7.1259e-05
0.00011706
0.00288525
-3.05004e-05
-4.7015e-05
0.00281695
5.82526e-05
-0.000139432
0.00277544
0.000170221
-9.45533e-05
0.00277313
0.00023725
-2.48877e-05
0.00279879
0.000202141
-8.78081e-05
0.00282395
9.44169e-05
-0.00024036
0.00283401
-5.07145e-05
-0.000312628
0.00281481
-0.000120027
-0.000186974
0.00281014
-7.81639e-05
3.07149e-05
0.00288528
6.66163e-06
0.000122873
0.00299847
0.000103724
9.42157e-05
0.0030628
0.000131544
6.88395e-05
0.00303687
7.46871e-05
8.75198e-05
0.00294972
4.14397e-05
9.77167e-05
0.00289045
3.81658e-05
3.41934e-06
0.00289187
2.5799e-05
-0.000143198
0.00287853
1.32468e-06
-0.000123936
0.0028057
-3.24981e-05
1.98679e-05
0.00270924
-3.90227e-05
7.3268e-05
0.00261898
1.5134e-05
4.96132e-05
0.00256522
5.6744e-05
-1.82814e-05
0.00256349
3.43107e-05
-0.000102467
0.00259522
-8.0059e-06
-0.000158567
0.00264648
-4.25896e-05
-0.000225592
0.00270573
-8.07761e-05
-0.000283899
0.00279407
-9.38174e-05
-0.00032465
0.00289907
-3.19237e-05
-0.000285663
0.00295292
5.75357e-05
-9.97755e-05
0.00292924
0.000127691
0.000149246
0.0028336
0.000140624
0.000343677
0.00270588
3.71851e-05
0.000309018
0.00260802
-0.000114347
6.36796e-05
0.00257723
-0.000205118
-0.000173551
0.00261966
-0.000184853
-0.000296879
0.00271355
-6.33397e-05
-0.000248371
0.00282382
7.66686e-05
-5.86821e-05
0.00292183
0.00013418
0.000128033
9.53476e-05
0.000225809
0.00266904
6.07792e-05
-4.30176e-05
0.00267614
2.38457e-05
8.49075e-06
0.00268467
6.83922e-05
6.83907e-06
0.0026854
0.000179767
-2.05077e-05
0.00265945
0.000298336
-4.5044e-05
0.00262275
0.000318325
-8.43047e-05
0.00259525
0.000211672
-0.000145972
0.0025783
7.8775e-05
-0.000164502
0.00254921
-3.71815e-05
-0.000106007
0.00249951
-7.80193e-05
2.30065e-05
0.00248704
-6.20263e-06
9.46013e-05
0.0025499
7.27063e-05
5.72453e-05
0.00266068
0.000106941
4.39898e-05
0.00277089
7.60041e-05
4.88136e-05
0.00281542
2.06257e-05
2.19978e-05
0.00278898
1.66926e-05
-7.96797e-06
0.00276705
4.38568e-05
-5.68203e-05
0.0027687
6.45481e-05
-8.74418e-05
0.00272934
7.3123e-05
-1.22131e-05
0.00263021
4.54488e-05
1.57925e-05
0.00251125
-4.75726e-07
-9.30323e-05
0.00240534
-1.09519e-05
-0.000138457
0.00236282
-1.47664e-06
-0.000110442
0.00238586
-2.49727e-06
-4.66787e-05
0.00243313
-1.28589e-05
2.95129e-05
0.00247389
-3.44063e-05
4.16032e-05
0.00249364
-8.04276e-05
-1.56136e-05
0.00254274
-0.000112456
-0.000131674
0.00263597
-6.82121e-05
-0.000164499
0.00269827
5.13186e-05
-9.05091e-06
0.0026731
0.000178117
0.000252868
0.00259339
0.000193513
0.000449962
0.00252774
5.45313e-05
0.000346124
0.00247286
-0.000105117
5.33037e-05
0.00239129
-0.000171196
-0.000162167
0.00234105
-0.000170394
-0.000248771
0.00237773
-8.6403e-05
-0.000211908
0.00247074
1.30443e-05
-0.000106941
0.0025653
7.6825e-05
-6.52249e-05
0.000100412
-7.79237e-05
0.00231394
2.93374e-05
1.98034e-05
0.00237248
3.78703e-05
6.42971e-05
0.00240963
0.000142901
4.54209e-05
0.00240385
0.000298248
7.44341e-06
0.00236554
0.000388536
-2.00887e-05
0.00233801
0.000323297
-4.799e-05
0.00233464
0.000169318
-8.47296e-05
0.00233889
6.85252e-05
-8.15608e-05
0.00231446
4.52169e-06
-1.80058e-05
0.00225711
-2.22418e-06
9.6999e-05
0.00222655
9.01995e-05
0.000172117
0.0022516
0.000142506
0.000168114
0.00233531
0.000120521
9.30023e-05
0.00245223
5.05381e-05
-3.68819e-05
0.00252974
-1.26274e-05
-0.00011346
0.00255766
-4.50902e-06
-0.000106218
0.00259119
2.90096e-05
-0.000105761
0.00263199
6.95e-05
-0.000144383
0.00260583
0.000135275
-0.000177811
0.00248347
0.000148021
-0.000229224
0.00232069
6.56564e-05
-0.000233938
0.0021912
-1.88334e-05
-0.000122555
0.00216054
-5.87161e-05
-5.70989e-06
0.00222174
-8.13307e-05
6.30246e-05
0.00230163
-7.65699e-05
6.86658e-05
0.00233014
-4.24213e-05
9.49603e-06
0.00230075
-3.22471e-05
-5.8085e-05
0.00227557
-7.44759e-05
-9.07148e-05
0.00227659
-9.59779e-05
-2.06116e-05
0.00227191
-4.81209e-06
0.000153501
0.0022667
0.000125361
0.000344808
0.00228293
0.00015429
0.00038245
0.0022961
4.6166e-05
0.000182283
0.00228112
-6.29593e-05
-5.55126e-05
0.00223546
-0.000111086
-0.000149328
0.00218663
-0.000125678
-0.00014779
0.00215256
-9.53987e-05
-8.49582e-05
0.00214211
-6.3768e-05
-5.15408e-05
0.00217217
-8.34012e-06
-9.95156e-05
4.37722e-05
-8.80234e-05
0.00204564
-2.49213e-05
0.000165896
0.00207534
2.33736e-05
0.000168728
0.00211524
0.000179178
0.000118429
0.00214541
0.000357094
4.72089e-05
0.00215368
0.000419012
1.39596e-05
0.00213858
0.000305044
3.01873e-05
0.0021113
0.00014471
3.67173e-05
0.00209427
7.14054e-05
4.5279e-05
0.00207251
2.46051e-05
9.38727e-05
0.00204002
2.65122e-05
0.000201346
0.00204195
0.000124162
0.000261317
0.00209819
0.000178644
0.00017934
0.0021851
0.00015338
4.36888e-05
0.00225012
6.75744e-05
-4.43047e-05
0.00226724
-1.49077e-05
-6.58408e-05
0.00227616
-2.08106e-05
-4.59389e-05
0.0022939
2.14753e-05
-7.10332e-05
0.00226568
0.000118497
-0.000159597
0.00216438
0.000224883
-0.000220937
0.00205293
0.000187981
-0.000224083
0.00198735
1.04375e-05
-0.000132979
0.00196369
-0.00012227
1.07729e-05
0.00198558
-0.00014827
6.777e-05
0.00203436
-0.000127938
3.20618e-05
0.00206996
-7.04332e-05
-3.0294e-05
0.00207089
6.14146e-06
-6.47297e-05
0.00204463
2.36831e-05
-5.24395e-05
0.00202191
-3.34234e-05
-4.5443e-05
0.00201352
-7.28233e-05
-1.99378e-05
0.00200776
-2.25872e-06
9.52168e-05
0.00202179
9.95088e-05
0.000238931
0.00205585
0.000107596
0.000259364
0.00208232
2.97083e-05
0.000101901
0.00208676
-2.4418e-05
-6.74621e-05
0.00205497
-3.93361e-05
-9.74244e-05
0.0020107
-6.81721e-05
-4.40688e-05
0.00198431
-0.000102064
-2.73461e-06
0.00198483
-0.000134127
-9.01294e-06
0.00200462
-8.57686e-05
-1.62384e-05
-2.19874e-05
6.56252e-05
0.00179705
-6.35967e-05
0.000206617
0.00182723
3.10883e-05
0.00019435
0.00189531
0.000213971
0.000129537
0.0019623
0.000392366
4.77147e-05
0.00198633
0.000430796
3.37198e-05
0.00195393
0.000293316
8.05455e-05
0.00189406
0.000140752
0.000120243
0.00185182
8.18731e-05
0.000168771
0.00183654
1.9687e-05
0.000213226
0.00184957
1.07245e-05
0.000258604
0.00190236
0.000135485
0.000231756
0.00196873
0.000238889
0.000117599
0.00200736
0.000235246
4.32683e-05
0.00200682
9.52762e-05
3.37391e-05
0.00198889
-5.87122e-05
4.94653e-05
0.00197778
-6.45117e-05
4.62836e-05
0.00195409
4.63384e-05
-5.57286e-05
0.00188736
0.000190984
-0.00018404
0.00180492
0.000256845
-0.000225001
0.00177109
0.000124661
-0.000175034
0.00179378
-0.000120325
-3.6895e-05
0.00182808
-0.000237424
8.82848e-05
0.00185487
-0.000199014
9.32695e-05
0.00187114
-0.000111035
2.23715e-05
0.00186941
2.23236e-06
-3.6402e-05
0.00185857
8.16089e-05
-3.9308e-05
0.00185006
5.5925e-05
-1.67426e-05
0.00184624
-1.42401e-05
-4.09961e-05
0.00184188
-3.43128e-05
-5.37266e-05
0.00182987
2.91617e-05
6.96258e-05
0.00184587
8.37071e-05
0.000220709
0.00190325
4.87904e-05
0.000215368
0.00194461
-3.95386e-06
5.90475e-05
0.00192462
1.1835e-05
-6.27217e-05
0.00186277
2.99075e-05
-2.18093e-05
0.00182825
1.40891e-07
3.77237e-05
0.00183355
-6.89464e-05
1.29945e-05
0.00184305
-0.000151037
-3.62864e-05
0.00183341
-0.000139023
-1.40195e-05
-8.84838e-05
0.000108526
0.00161867
-0.000103015
0.000189821
0.00165183
9.08119e-06
0.000144752
0.00173287
0.000198391
5.09856e-05
0.00180375
0.00040186
-2.96143e-05
0.00179547
0.000456882
2.59378e-05
0.00171276
0.000323511
0.000117581
0.00163283
0.000165624
0.000132372
0.00160454
8.68036e-05
0.00014017
0.0016186
-2.11656e-05
0.000145431
0.00166384
-5.55687e-05
0.000152458
0.00173687
0.000114294
0.000106798
0.00180638
0.000297906
1.91115e-05
0.00182656
0.000325027
2.12326e-05
0.00178908
0.000126169
6.78738e-05
0.0017336
-9.96035e-05
6.56459e-05
0.00169421
-9.55746e-05
1.00829e-08
0.00166659
5.94262e-05
-0.00012963
0.00163617
0.000202035
-0.00022614
0.00160771
0.00023399
-0.000218141
0.00159325
7.2725e-05
-0.00012161
0.00160349
-0.000190258
-6.05317e-07
0.00162509
-0.000287295
8.19484e-05
0.00164833
-0.000204326
8.64702e-05
0.00167544
-8.41179e-05
5.05049e-05
0.00169504
6.03864e-05
2.47891e-05
0.00169841
0.00014025
2.26218e-05
0.0016867
8.25442e-05
1.68756e-05
0.00166932
6.3923e-06
-2.3085e-05
0.00165962
6.20009e-06
-3.27631e-05
0.00166001
7.28736e-05
7.55802e-05
0.00168372
9.80037e-05
0.000175584
0.0017256
2.00817e-05
0.000128066
0.0017479
-1.17646e-05
-2.20474e-05
0.00172817
4.32628e-05
-7.04301e-05
0.00169388
7.79819e-05
2.74836e-05
0.00168439
6.63469e-05
8.4234e-05
0.001688
1.33628e-06
2.55985e-05
0.00167797
-0.000121191
-3.81126e-05
0.00165644
-0.000168364
-1.48104e-05
-0.000149195
0.000111622
0.0014314
-0.000163073
0.000145643
0.00149193
-6.58341e-05
4.71986e-05
0.00158944
0.000135416
-6.69692e-05
0.00164524
0.000384956
-7.22887e-05
0.00159922
0.000486065
7.21207e-05
0.0014948
0.000373445
0.000152697
0.001424
0.000212782
9.08078e-05
0.00140897
0.00010543
6.51454e-05
0.00142935
-6.51645e-05
6.31447e-05
0.00149144
-0.00014591
3.61234e-05
0.00158575
6.05793e-05
-1.53219e-05
0.0016603
0.000321998
-4.00001e-05
0.00166116
0.000395615
2.9678e-05
0.00158646
0.000178942
8.55603e-05
0.00149222
-7.93131e-05
2.31523e-05
0.00143425
-8.38597e-05
-0.000107828
0.00142841
4.38209e-05
-0.000232798
0.00145969
0.00014558
-0.000287115
0.001489
0.000179012
-0.000207999
0.00148169
5.1764e-05
-5.5487e-05
0.00145898
-0.00019721
2.90506e-05
0.00144678
-0.000288502
4.78294e-05
0.00144897
-0.000195596
4.92205e-05
0.00147396
-7.75887e-05
3.96089e-05
0.00151666
7.80643e-05
2.33553e-05
0.00153708
0.000168244
2.7359e-05
0.00152038
9.40038e-05
3.67095e-05
0.00149951
2.36016e-05
-4.51198e-06
0.00150332
5.20377e-05
-2.96813e-05
0.0015224
0.000131185
3.95614e-05
0.00153299
0.000128822
0.000119651
0.00153192
2.16546e-06
0.000102625
0.0015213
-1.74403e-05
-3.13348e-06
0.00151251
6.15378e-05
-4.5641e-05
0.00153038
9.68706e-05
1.82296e-05
0.00156947
0.000106039
5.05075e-05
0.00157351
7.05313e-05
1.37779e-05
0.00152114
-6.35096e-05
-2.13339e-05
0.00145992
-0.000172636
1.31605e-05
-0.000200932
0.000116004
0.00129697
-0.000192449
7.70738e-05
0.00135473
-0.000123538
-2.78479e-05
0.00143562
7.57131e-05
-0.000103013
0.00147878
0.000348695
-4.07654e-05
0.00144221
0.000487802
0.000134362
0.00135222
0.000431725
0.000170912
0.00127733
0.00029866
6.90725e-05
0.00125496
0.000147732
3.97326e-05
0.00128116
-0.000100606
3.56237e-05
0.00135669
-0.000226524
-2.54335e-05
0.00145171
1.53703e-05
-9.16644e-05
0.0015128
0.000344284
-8.69634e-05
0.00151411
0.000439166
1.92575e-05
0.00144896
0.000214153
0.00010079
0.00133939
-4.05184e-05
2.48554e-05
0.00126745
-6.63084e-05
-0.000143849
0.00127421
-1.76383e-05
-0.000259932
0.00132807
4.45596e-05
-0.000286736
0.00137594
0.000110135
-0.000176694
0.00137202
3.30726e-05
-9.02824e-06
0.0013253
-0.0001771
4.51432e-05
0.00128911
-0.000261626
1.51038e-05
0.00128438
-0.000184291
5.66527e-06
0.00130981
-9.22383e-05
-2.23948e-08
0.00136067
4.63127e-05
-1.53117e-05
0.00138088
0.000141718
1.56284e-05
0.00135274
8.46187e-05
3.43867e-05
0.00134859
2.90172e-05
-2.43332e-05
0.00139459
7.64161e-05
-4.6956e-05
0.00141697
0.000197349
2.47087e-05
0.00137937
0.000190434
9.91771e-05
0.00133253
-1.99425e-05
0.000110809
0.00130052
-5.66866e-05
3.73249e-05
0.00129717
3.7486e-05
-1.81594e-05
0.00134744
7.66593e-05
-3.1792e-06
0.00143598
0.000104213
5.15816e-06
0.00148017
9.41072e-05
-1.38372e-05
0.00143411
-3.28069e-05
-2.52532e-05
0.00135138
-0.000163832
9.32419e-06
-0.000213175
8.47981e-05
0.00121043
-0.000179437
3.42122e-05
0.00125003
-0.000155856
-3.64406e-05
0.00131391
6.89678e-06
-6.85948e-05
0.00136178
0.0002665
7.89118e-06
0.00133985
0.000458217
0.000160502
0.00125439
0.000502734
0.000171714
0.00117981
0.000399712
7.86952e-05
0.0011637
0.000190762
5.32245e-05
0.00119505
-0.00011462
5.40012e-05
0.00126419
-0.000246927
-1.36643e-05
0.00133253
3.16324e-05
-0.000103381
0.00135488
0.000402225
-0.000108849
0.00135435
0.000472028
7.45404e-07
0.00132856
0.00019372
9.93651e-05
0.00125226
-5.68355e-05
2.85912e-05
0.00120127
-9.21027e-05
-0.000140204
0.00120517
-9.21363e-05
-0.000205106
0.00122844
-2.80967e-05
-0.000204856
0.00126718
5.65471e-05
-0.000145603
0.00127856
2.80976e-06
-8.89966e-06
0.00121667
-0.000140107
7.57485e-05
0.00115464
-0.000197331
3.87098e-05
0.00116357
-0.000150424
-1.13883e-05
0.00121848
-0.000110609
-2.40456e-05
0.00126967
-2.59852e-05
-2.09756e-05
0.00125692
8.22555e-05
2.24969e-05
0.00119899
6.77546e-05
2.20822e-05
0.00120788
4.52921e-06
-5.04486e-05
0.0012845
5.98142e-05
-5.29149e-05
0.00130261
0.000265324
1.47039e-05
0.00125095
0.000262199
7.13076e-05
0.00121116
-7.33377e-05
0.00011938
0.00118168
-0.000132738
6.85901e-05
0.00115998
5.29418e-06
-1.83305e-05
0.00118372
5.77513e-05
-2.18199e-05
0.00126121
8.76241e-05
2.80772e-06
0.00131738
9.12707e-05
-1.89724e-05
0.00130682
-2.63702e-05
-5.82764e-05
0.00126095
-0.000154787
-3.17684e-05
-0.00018937
4.33788e-05
0.00109222
-0.00012915
2.05037e-05
0.0011318
-0.000154597
-3.12899e-05
0.00118889
-5.55842e-05
-2.74368e-05
0.00122959
0.000201006
3.39662e-05
0.00120975
0.000461758
0.000135532
0.00115164
0.000566719
0.000149722
0.00111143
0.000457826
0.000104208
0.00110488
0.000215113
8.19501e-05
0.00112178
-0.000111297
7.99324e-05
0.001174
-0.00024235
2.45781e-05
0.0012238
6.31105e-05
-8.74414e-05
0.00121813
0.000476664
-0.000112046
0.00121719
0.000503381
-1.0803e-05
0.0012214
0.000135217
7.69346e-05
0.00118367
-0.000107055
-1.47816e-05
0.00115931
-0.000110269
-0.0001638
0.00114025
-0.00011466
-0.000141458
0.00111609
-5.3276e-05
-8.64265e-05
0.00114222
9.07549e-06
-8.56585e-05
0.00117839
-4.3126e-05
-1.30398e-05
0.00114736
-0.000131042
8.89871e-05
0.00109738
-0.000155687
8.76071e-05
0.00110843
-0.00010656
3.57448e-05
0.00116099
-9.74513e-05
2.03028e-05
0.00118591
-6.79273e-05
2.86377e-05
0.00113353
3.66378e-05
6.12842e-05
0.00106122
3.22161e-05
4.3978e-05
0.00107812
-5.89342e-05
-4.34318e-05
0.00115098
3.71788e-05
-5.90085e-05
0.00117297
0.000356601
-1.83013e-05
0.00115572
0.000335124
1.4417e-05
0.00112829
-0.00011959
8.29311e-05
0.00108703
-0.000181182
3.93315e-05
0.00106508
-9.00634e-06
-5.97531e-05
0.0010862
3.71757e-05
-2.52182e-05
0.00113367
7.08185e-05
5.29458e-05
0.00115217
9.96199e-05
3.03574e-05
0.00113722
-1.26544e-05
-5.68371e-05
0.00111298
-0.000155077
-3.58354e-05
-0.000162169
4.32554e-05
0.000950801
-6.23926e-05
4.43888e-06
0.000981942
-0.000162238
-8.51271e-06
0.00102058
-0.000129756
1.42354e-05
0.00106371
0.000156495
3.66128e-05
0.00108788
0.000486233
9.94475e-05
0.00107469
0.00061818
0.000143634
0.00104029
0.000501202
0.000132638
0.001023
0.000226576
9.49354e-05
0.00102599
-0.000119376
8.19684e-05
0.00106369
-0.000234459
3.09866e-05
0.00110529
0.000105501
-9.1819e-05
0.00109651
0.000553984
-0.000116444
0.00110448
0.000508581
-2.22168e-06
0.00112739
5.17913e-05
4.80032e-05
0.00111636
-0.000148228
-7.168e-05
0.00108783
-8.50298e-05
-0.000169642
0.00102303
-8.04076e-05
-8.85267e-05
0.000976819
-4.93276e-05
-1.18406e-05
0.00100512
-2.68248e-05
-1.16132e-05
0.00105358
-8.88638e-05
1.98179e-05
0.00107665
-0.000165698
7.73186e-05
0.00107746
-0.000169813
0.000113052
0.00106901
-7.63223e-05
0.000128614
0.00105839
-7.5574e-05
0.000122687
0.00103713
-0.000107102
9.66303e-05
0.00098247
-7.74845e-06
8.83108e-05
0.000937816
-8.3999e-06
5.04604e-05
0.000968771
-0.000118535
-1.69616e-05
0.0010204
4.92742e-05
-2.65756e-05
0.00105062
0.00047709
-4.70826e-05
0.00107153
0.0004188
-5.32314e-05
0.00104381
-0.000122627
2.07002e-05
0.000997662
-0.000204011
-1.42326e-05
0.000995781
-3.21298e-05
-9.59583e-05
0.00101851
1.62045e-05
-9.18498e-06
0.00103747
5.94432e-05
0.000110731
0.00103595
0.000111252
7.3756e-05
0.00100331
1.56908e-05
-2.92272e-05
0.000958405
-0.000145278
-5.72381e-06
-0.000123318
4.31753e-05
0.000839192
-1.23594e-05
-3.32828e-05
0.000862492
-0.000214063
3.79818e-06
0.000906764
-0.000223759
5.46091e-05
0.00096692
0.000170348
6.02751e-05
0.00100391
0.000562859
9.22936e-05
0.000986519
0.000653728
0.000144393
0.000944389
0.00050772
0.000133292
0.000931087
0.000205055
8.11635e-05
0.00092976
-0.000143019
7.78239e-05
0.000955471
-0.000218917
2.99192e-05
0.000993308
0.000159824
-0.000106285
0.000990263
0.00062693
-0.000121135
0.00100598
0.000493512
1.00931e-05
0.00103602
-3.39844e-05
1.24552e-05
0.00103078
-0.000177539
-0.000109458
0.000981098
-5.264e-05
-0.000134573
0.000896989
-2.98281e-05
-3.53764e-05
0.000870579
-3.08467e-05
1.97991e-05
0.000903182
-5.80429e-05
3.61402e-05
0.000931661
-0.000127245
6.22975e-05
0.000955665
-0.000190783
8.46359e-05
0.000973901
-0.000166284
0.000122422
0.000969623
-4.37198e-05
0.000145431
0.000929652
-5.43988e-05
0.000109197
0.000874337
-0.000124731
7.46206e-05
0.000830655
-3.8062e-05
7.86233e-05
0.000822712
-2.76063e-05
3.96673e-05
0.000861757
-0.000147966
-3.2e-06
0.000898363
5.9219e-05
5.64768e-06
0.000950064
0.000550143
-4.817e-05
0.000979675
0.000448444
-5.65311e-05
0.000921233
-0.000135047
1.49731e-05
0.000890332
-0.000259561
-2.80739e-05
0.000920655
-7.31037e-05
-7.71498e-05
0.000934204
1.75599e-05
4.61398e-05
0.000945017
2.56228e-05
0.000163792
0.000942997
9.94086e-05
9.99005e-05
0.000875024
5.98237e-05
6.0809e-06
0.000807073
-0.000116183
1.27738e-05
-7.39026e-05
8.18561e-06
0.00077865
1.30782e-05
-5.91622e-05
0.000765815
-0.000257216
4.12549e-05
0.000793319
-0.000237816
0.000114715
0.000859129
0.000241827
8.17729e-05
0.000907528
0.000575287
8.18291e-05
0.000890157
0.00060326
0.000144066
0.000852344
0.000484377
0.000118386
0.00084699
0.000180557
5.50396e-05
0.00084503
-0.00016888
7.52075e-05
0.00086216
-0.000205408
3.29456e-05
0.000891806
0.000220258
-0.000115348
0.000897384
0.00070233
-0.000115258
0.000921325
0.000477557
4.61826e-06
0.000942446
-0.000117875
-2.96363e-05
0.000923702
-0.000202595
-0.000120203
0.000858265
-3.35873e-05
-7.32979e-05
0.000787536
9.46568e-06
6.72148e-06
0.000789379
-2.32506e-06
8.03425e-06
0.000812644
-6.58653e-05
4.19467e-05
0.000815836
-0.000143107
9.03915e-05
0.000818677
-0.000177437
9.1286e-05
0.000832485
-0.000126136
9.55598e-05
0.000851173
-5.82952e-06
8.67833e-05
0.00082722
-2.35678e-05
4.04082e-05
0.000775873
-0.000110063
3.75035e-05
0.000750711
-4.10459e-05
6.78154e-05
0.000747752
-1.31564e-05
2.33448e-05
0.000757889
-0.000147522
-1.36189e-05
0.000790587
5.37224e-05
1.18496e-05
0.00087979
0.000528018
-2.09639e-05
0.000889734
0.000398791
-1.05532e-05
0.000785143
-0.000137399
2.21754e-05
0.000779383
-0.000301829
-1.01217e-05
0.000837886
-0.000114194
5.91845e-06
0.000840757
-7.2516e-06
0.000140013
0.000832262
-1.32994e-05
0.000202661
0.000792061
0.000119718
0.000116028
0.000707418
0.000112839
3.25801e-05
0.00068625
-0.000110913
-1.05873e-05
-5.17984e-05
-5.53864e-05
0.000707355
4.5338e-05
-4.51065e-05
0.000630703
-0.000235836
8.59616e-05
0.000636594
-0.000195688
0.000132298
0.000735015
0.000246232
7.19279e-05
0.000804434
0.000489354
9.01382e-05
0.000790435
0.00051797
0.000152703
0.00076504
0.000460626
8.97277e-05
0.000766536
0.000164091
3.13402e-05
0.000769549
-0.000193913
6.83084e-05
0.000778189
-0.000206436
1.9105e-05
0.000798376
0.000280458
-0.000119316
0.000818738
0.000779355
-8.66066e-05
0.000843648
0.000468986
-1.51026e-05
0.000838758
-0.000182097
-6.17417e-05
0.000796106
-0.000229497
-7.54535e-05
0.000729004
-4.33518e-05
8.12414e-06
0.000688679
2.34629e-05
1.42748e-05
0.000708197
1.75015e-05
-1.34278e-05
0.000721602
-6.60849e-05
5.90509e-05
0.000717776
-0.000131719
9.87005e-05
0.00070522
-0.000122136
7.30066e-05
0.000712141
-6.95521e-05
6.23537e-05
0.000747849
1.70086e-05
2.83304e-05
0.000736312
7.17726e-07
7.13964e-07
0.000694137
-8.84904e-05
3.54905e-05
0.000684256
-3.00717e-05
6.26657e-05
0.000672205
2.74955e-05
2.234e-05
0.000642515
-0.000108184
1.79895e-06
0.000679593
3.30128e-05
2.86332e-05
0.000810198
0.000402827
3.12436e-05
0.000810395
0.000294965
3.47619e-05
0.000691345
-8.954e-05
2.36338e-05
0.00070275
-0.000270466
1.73796e-05
0.000747047
-0.000141215
9.39578e-05
0.000699829
-4.21423e-05
0.000217941
0.000649511
-1.05607e-06
0.000202596
0.000615209
0.000141906
9.78173e-05
0.000588822
7.98571e-05
1.64405e-05
0.000627814
-0.000154316
-6.11989e-05
-3.34383e-05
-0.000102161
0.000648937
5.76425e-05
-7.58521e-06
0.000550846
-0.000197085
0.000100779
0.000541795
-0.000133507
0.000115488
0.000640628
0.00021721
7.72498e-05
0.000700838
0.000378179
0.000123035
0.000689517
0.00044436
0.000142845
0.000683683
0.000440521
4.77348e-05
0.000702961
0.000140742
2.0666e-05
0.000708238
-0.000222491
5.1708e-05
0.000697645
-0.000198751
-2.46625e-05
0.000715104
0.000343707
-0.000117262
0.000753843
0.000842614
-5.54835e-05
0.000777729
0.000445932
-3.36899e-05
0.00073829
-0.000216201
-5.12509e-05
0.000660158
-0.000239495
-5.85447e-07
0.000605753
-6.03383e-05
5.5249e-05
0.000610397
6.08563e-06
6.85583e-06
0.000644765
-3.69612e-06
-2.22873e-06
0.000643104
-8.85887e-05
8.80084e-05
0.000618615
-8.29173e-05
7.398e-05
0.000589446
-2.4807e-05
3.67024e-05
0.000604857
-2.89579e-05
2.00041e-05
0.000646843
5.31019e-06
-1.91933e-05
0.000622587
1.51672e-05
7.4489e-06
0.000587414
-8.73468e-05
6.11909e-05
0.000605065
-5.13706e-05
6.64844e-05
0.000591401
5.93331e-05