/*--------------------------------*- C++ -*----------------------------------*\
  =========                 |
  \\      /  F ield         | OpenFOAM: The Open Source CFD Toolbox
   \\    /   O peration     | Website:  https://openfoam.org
    \\  /    A nd           | Version:  10
     \\/     M anipulation  |
\*---------------------------------------------------------------------------*/
FoamFile
{
    format      ascii;
    class       volVectorField;
    location    "5";
    object      U_0;
}
// * * * * * * * * * * * * * * * * * * * * * * * * * * * * * * * * * * * * * //

dimensions      [0 1 -1 0 0 0 0];

internalField   nonuniform List<vector> 
25600
(
(1.09378 -0.0194817 -0.00533446)
(1.08413 -0.0170313 -0.017541)
(1.07431 -0.00656639 -0.029281)
(1.07029 0.00568396 -0.0353616)
(1.07222 0.0191705 -0.0331792)
(1.07736 0.0308073 -0.0227875)
(1.09054 0.0346527 -0.00853844)
(1.10152 0.0274143 0.00546227)
(1.10554 0.0137722 0.0144971)
(1.10758 0.000939856 0.0109157)
(1.10557 -0.00151816 -0.00133031)
(1.10397 0.00748699 -0.0141219)
(1.10195 0.0147966 -0.0232884)
(1.10044 0.0150784 -0.0242647)
(1.10148 0.00983493 -0.018862)
(1.10208 0.00638476 -0.0121457)
(1.10348 0.0142858 -0.0120742)
(1.10488 0.0261163 -0.0204062)
(1.10999 0.0310713 -0.0283726)
(1.12381 0.0251723 -0.0267202)
(1.14296 0.0133889 -0.0117859)
(1.15654 0.00695336 0.00474095)
(1.15149 0.00347784 0.0118826)
(1.12839 -0.00470372 0.0116913)
(1.09771 -0.0205666 0.0115702)
(1.07665 -0.0396699 0.0179794)
(1.07042 -0.0468766 0.0239427)
(1.07106 -0.0358532 0.019317)
(1.07386 -0.0160553 0.000931633)
(1.07813 0.0052158 -0.0250577)
(1.08386 0.0186657 -0.0431035)
(1.0979 0.0179356 -0.0439851)
(1.11336 0.0127921 -0.0311204)
(1.11888 0.00729894 -0.012883)
(1.11873 0.00244521 0.00390959)
(1.11524 0.0067077 0.0144775)
(1.11322 0.012443 0.018132)
(1.11695 0.00949889 0.0171356)
(1.11581 0.000355158 0.0118209)
(1.1051 -0.011427 0.00429903)
(1.13364 -0.00403753 -0.00417659)
(1.09959 -0.0293268 -0.0147569)
(1.07766 -0.0244838 -0.0279475)
(1.07707 0.00325189 -0.0379532)
(1.09063 0.0329045 -0.0386637)
(1.10589 0.0471973 -0.0252171)
(1.11675 0.0397224 -0.000562951)
(1.11448 0.0162258 0.0243645)
(1.10403 -0.00354799 0.0338372)
(1.09937 -0.0105424 0.0199991)
(1.10248 -0.0038837 -0.00189585)
(1.10938 0.00690554 -0.0147968)
(1.11539 0.0085652 -0.0139028)
(1.11677 0.00547161 -0.00205845)
(1.11277 -0.00165686 0.0105384)
(1.10875 -0.0054432 0.0151205)
(1.11129 0.00160891 0.00931658)
(1.1249 0.0143766 -9.09308e-05)
(1.14665 0.0222905 -0.00389053)
(1.16347 0.0152474 0.00142221)
(1.16459 0.00430737 0.0117734)
(1.14473 0.00279175 0.0207905)
(1.11707 0.00916002 0.0293139)
(1.09364 0.00504384 0.0342429)
(1.0695 -0.0208665 0.0314946)
(1.0454 -0.051573 0.0242171)
(1.02364 -0.0675327 0.0107437)
(1.01037 -0.0586986 -0.00794034)
(1.0179 -0.0348216 -0.0245762)
(1.04669 -0.0104798 -0.0338983)
(1.08197 0.00517576 -0.0336057)
(1.11164 0.00709102 -0.0250519)
(1.12 0.00567096 -0.0159837)
(1.1002 0.00559937 -0.0113449)
(1.07898 0.00856619 -0.00821937)
(1.07673 0.0253468 -0.00322546)
(1.09875 0.0504129 0.00503462)
(1.14108 0.0677228 0.0118524)
(1.17314 0.0653514 0.0107092)
(1.16655 0.0367733 0.0039528)
(1.09484 0.0130934 0.00726027)
(1.06039 -0.00852194 -0.00955869)
(1.05073 -0.0166187 -0.0278876)
(1.06234 -0.0134785 -0.0319562)
(1.08609 -0.00802618 -0.0131206)
(1.10487 -0.00441975 0.0208813)
(1.10246 -0.00655659 0.0471779)
(1.08463 -0.0109445 0.0494778)
(1.06791 -0.00785399 0.0243531)
(1.06925 0.00331322 -0.00765716)
(1.08798 0.0180709 -0.0165355)
(1.10749 0.0233251 -0.00120931)
(1.12012 0.0141928 0.0191756)
(1.12837 0.000875874 0.0299099)
(1.13028 -0.00717745 0.024873)
(1.12539 -0.00112345 0.0106217)
(1.11616 0.00847235 0.000310618)
(1.1091 0.00966949 -0.00231196)
(1.11376 0.000639564 0.000879477)
(1.12706 -0.0104087 0.0110602)
(1.13824 -0.00393282 0.0268956)
(1.13677 0.0114597 0.0476612)
(1.1272 0.0207154 0.0627895)
(1.11732 0.0152924 0.0499376)
(1.10206 -0.00400847 0.0128812)
(1.08196 -0.0223665 -0.0238436)
(1.06312 -0.038784 -0.0436886)
(1.04312 -0.0480269 -0.0458761)
(1.02648 -0.046704 -0.0397965)
(1.01946 -0.0424222 -0.0309177)
(1.01732 -0.03679 -0.0239737)
(1.0296 -0.0240468 -0.0163641)
(1.05157 -0.00135042 -0.00390022)
(1.0637 0.0188976 0.00842347)
(1.07801 0.0262292 0.0149777)
(1.10485 0.0295395 0.0125149)
(1.13722 0.0354048 0.00657712)
(1.16806 0.0402257 0.0039435)
(1.1726 0.041637 0.0061326)
(1.14027 0.0339898 0.010639)
(1.02498 0.00641143 -0.020749)
(1.03254 -0.0300869 -0.0180621)
(1.0444 -0.0437649 -0.00245294)
(1.05021 -0.0392273 0.0168767)
(1.05092 -0.0293896 0.0278698)
(1.04521 -0.0178036 0.0228438)
(1.0364 -0.0123401 0.00731321)
(1.03345 -0.00911193 -0.00758566)
(1.04406 -0.00345381 -0.0178668)
(1.06975 0.00268773 -0.016684)
(1.09411 0.0100333 0.00063124)
(1.10136 0.0107259 0.0167198)
(1.10169 0.00597575 0.019081)
(1.10461 0.00828302 0.0156441)
(1.11015 0.0183745 0.0139144)
(1.11678 0.0270994 0.0158774)
(1.11648 0.0241696 0.018774)
(1.11073 0.0138407 0.014558)
(1.10723 0.000248368 0.00663375)
(1.10644 -0.0147361 0.0140416)
(1.10587 -0.0175213 0.0414076)
(1.09981 -0.00681354 0.0690369)
(1.0931 0.0154787 0.0701689)
(1.08669 0.031947 0.034038)
(1.08089 0.0300536 -0.0212312)
(1.08435 0.0216459 -0.0643592)
(1.08778 0.009937 -0.0787882)
(1.07483 0.00161352 -0.0705772)
(1.0471 -0.00453021 -0.0578624)
(1.02221 -0.0210046 -0.0481005)
(1.01171 -0.0395531 -0.0368492)
(1.03024 -0.0392035 -0.00996811)
(1.06658 -0.0158189 0.0279288)
(1.09301 0.0100871 0.0500943)
(1.11517 0.0202417 0.0477565)
(1.1331 0.0232724 0.0259586)
(1.1326 0.0273042 -0.000309596)
(1.11387 0.0347132 -0.0146471)
(1.07614 0.0427162 -0.0156304)
(1.03853 0.0367669 -0.0157121)
(1.06393 0.00109811 0.0326836)
(1.07322 -0.0373163 0.01241)
(1.078 -0.0519757 0.00197805)
(1.07334 -0.0439558 -0.0115343)
(1.06059 -0.0225342 -0.0339056)
(1.04355 -0.00207187 -0.0481222)
(1.02435 -0.00106544 -0.0367747)
(1.01155 -0.0128473 -0.0090529)
(1.01998 -0.017606 0.00957789)
(1.04589 -0.000610142 0.0172218)
(1.07044 0.0268526 0.0287283)
(1.07837 0.0383052 0.0399322)
(1.07829 0.0344533 0.0418878)
(1.082 0.029185 0.0310209)
(1.09341 0.0281871 0.0138739)
(1.10508 0.026735 0.00842069)
(1.1023 0.01606 0.0213288)
(1.0919 0.00209284 0.0350539)
(1.09397 -0.00662663 0.033617)
(1.11595 -0.00669531 0.0298527)
(1.1373 0.000900407 0.0389291)
(1.13029 0.0108056 0.0528825)
(1.09855 0.0102915 0.0507111)
(1.06796 -0.0106792 0.0191797)
(1.06241 -0.0344518 -0.026258)
(1.07211 -0.0426778 -0.0617124)
(1.07377 -0.0307766 -0.0776231)
(1.05762 -0.00397338 -0.0789007)
(1.02866 0.0174614 -0.0739526)
(1.00879 0.0125082 -0.0609165)
(0.998216 -0.0122594 -0.0349756)
(1.00221 -0.0261911 0.00719367)
(1.0148 -0.0211786 0.0434777)
(1.02373 -0.0173558 0.0425097)
(1.04153 -0.0186395 0.0106886)
(1.06565 -0.0116623 -0.0242552)
(1.09014 0.00906644 -0.0320907)
(1.10399 0.0376305 -0.00527389)
(1.08906 0.0524542 0.0334327)
(1.06703 0.038602 0.0496978)
(1.11879 0.00623087 0.0753184)
(1.12003 -0.0321676 0.0530853)
(1.10484 -0.0441271 0.0136129)
(1.08089 -0.0243598 -0.030486)
(1.06194 0.00864918 -0.0506922)
(1.04573 0.0257978 -0.0361441)
(1.02331 0.0141278 -0.0101042)
(1.00828 -0.00329814 -0.00299072)
(1.01846 -0.00796285 -0.0172137)
(1.05359 0.00568729 -0.0226786)
(1.08726 0.0207974 0.00103779)
(1.09545 0.0248238 0.0305929)
(1.09548 0.0299256 0.0366077)
(1.09832 0.0378673 0.0197731)
(1.09922 0.0383717 0.00793494)
(1.08391 0.023794 0.018415)
(1.0518 -0.00313864 0.029986)
(1.03938 -0.0223144 0.0161867)
(1.06856 -0.0232854 -0.00659899)
(1.12555 -0.018818 -0.00842407)
(1.16552 -0.0134355 0.00728218)
(1.14528 8.28342e-05 0.0218039)
(1.07849 0.0118234 0.0136619)
(1.0122 0.00823641 -0.020465)
(0.975082 -0.00494422 -0.0571075)
(0.965108 -0.0148856 -0.0811709)
(0.976341 -0.0092912 -0.0899654)
(1.00482 0.0110881 -0.0849113)
(1.03737 0.0298318 -0.067499)
(1.05465 0.0235883 -0.0395053)
(1.04195 -0.00179869 -0.00583932)
(1.02229 -0.0169073 0.0285499)
(1.00691 -0.0169496 0.0371575)
(0.996377 -0.00874111 0.00516033)
(1.00806 0.0072216 -0.0406684)
(1.03289 0.0230976 -0.0689195)
(1.06147 0.0336059 -0.0510952)
(1.08297 0.0403569 0.00443842)
(1.09025 0.0408691 0.0580345)
(1.10373 0.0338382 0.0813953)
(1.12026 -0.0170396 0.0427034)
(1.11358 -0.0299607 0.0213939)
(1.08823 -0.0126516 -0.0121632)
(1.05624 0.00867116 -0.0282441)
(1.03376 0.0239363 -0.0138155)
(1.02695 0.0329138 0.00637912)
(1.03239 0.033964 -0.00389892)
(1.04523 0.0231564 -0.0374041)
(1.05307 -0.00428905 -0.0595926)
(1.04944 -0.0232759 -0.0447973)
(1.03909 -0.0184905 -0.00280966)
(1.04871 0.00153374 0.0242464)
(1.0925 0.0275045 0.0215586)
(1.13387 0.0352498 0.0111013)
(1.14175 0.0202661 0.00977859)
(1.11209 0.0087399 0.0132821)
(1.07698 0.00609927 0.00492438)
(1.07046 0.00126239 -0.0150943)
(1.07694 -0.00603847 -0.0142488)
(1.05992 -0.0116131 0.00476801)
(1.02367 -0.00275395 0.00903552)
(0.987043 0.0196482 -0.000400859)
(0.957338 0.0286506 -0.0140955)
(0.946948 0.0139482 -0.0255764)
(0.955876 -0.0055755 -0.033204)
(0.972199 -0.0146281 -0.0456847)
(0.991597 -0.0179 -0.0601066)
(1.01637 -0.0164022 -0.0713471)
(1.05837 -0.00383351 -0.0636361)
(1.09477 0.00756764 -0.023585)
(1.09821 0.0150736 0.0319292)
(1.07646 0.0177384 0.0726794)
(1.02824 0.00165985 0.0623108)
(0.979376 -0.0277075 0.00983501)
(0.956898 -0.0430538 -0.0417799)
(0.957061 -0.0354764 -0.0689338)
(0.986615 -0.00990555 -0.0526164)
(1.02949 0.0196251 -0.00819097)
(1.06661 0.0306182 0.0272138)
(1.10187 0.0145029 0.0429524)
(1.08715 0.0127833 -0.00431077)
(1.09067 0.00115764 0.00408891)
(1.09567 0.000493721 0.00699047)
(1.09868 0.0162894 0.00710818)
(1.09314 0.0449758 0.00157326)
(1.07914 0.0623791 -0.0131119)
(1.06338 0.0479384 -0.0316547)
(1.0569 0.0160926 -0.0339868)
(1.04931 -0.0139308 -0.0180902)
(1.02997 -0.0239382 0.00880049)
(1.01193 -0.012579 0.0277809)
(1.02086 0.00227474 0.0260981)
(1.06042 0.0166043 0.0232329)
(1.11319 0.0193924 0.0215616)
(1.15102 0.0108029 0.00787635)
(1.14745 0.00850423 -0.0114338)
(1.13017 0.0104706 -0.0237465)
(1.13071 0.00980402 -0.0174275)
(1.13012 0.00621435 0.0093708)
(1.09954 -0.00345666 0.01406)
(1.0498 -0.0134784 -0.0177981)
(0.999576 -0.0108928 -0.03828)
(0.965623 -0.0023592 -0.0315587)
(0.964041 0.00175381 -0.0094369)
(0.983846 0.00193587 0.0111633)
(1.00451 -0.00449478 0.0130948)
(1.01476 -0.0171859 -0.00121835)
(1.02093 -0.0231216 -0.0249926)
(1.0561 -0.00926027 -0.0306802)
(1.0982 0.0149579 0.00238809)
(1.1058 0.0359956 0.058156)
(1.07706 0.0382552 0.0979858)
(1.04073 0.0126358 0.0773767)
(1.02414 -0.0210295 0.0145951)
(0.996108 -0.038518 -0.0402868)
(0.955896 -0.0375098 -0.0694388)
(0.955385 -0.0153373 -0.0620082)
(0.988786 0.0112449 -0.0353183)
(1.02791 0.024295 -0.0193074)
(1.06678 0.0238156 -0.0136402)
(1.02372 0.0103201 0.0136438)
(1.05237 0.00698401 0.0287998)
(1.08004 0.0223529 0.0252105)
(1.08659 0.0506031 0.0100758)
(1.07167 0.0713138 -0.0068854)
(1.05429 0.0643674 -0.0172569)
(1.04664 0.0367223 -0.020876)
(1.05178 0.0146912 -0.00968457)
(1.04951 -0.00248301 0.00763525)
(1.0266 -0.00770156 0.0283237)
(1.00242 0.00906266 0.0451837)
(0.998808 0.0243359 0.046969)
(1.02323 0.024613 0.037106)
(1.07618 0.0113437 0.0168137)
(1.12725 -0.0019869 -0.00421229)
(1.14437 -0.000782444 -0.0168517)
(1.15318 0.00670046 -0.0237709)
(1.17579 0.014175 -0.029632)
(1.18962 0.0213661 -0.034645)
(1.15318 0.0213944 -0.0514146)
(1.07743 0.0123917 -0.0633224)
(1.00543 0.00486184 -0.0421814)
(0.96515 0.00114896 -0.00574016)
(0.975936 -0.00290644 0.0184685)
(1.01962 -0.00626407 0.0175093)
(1.04917 -0.00778978 -0.000428253)
(1.04291 -0.0129148 -0.0145766)
(1.02326 -0.0207283 -0.0178904)
(1.0223 -0.0178776 -0.000765353)
(1.02414 0.0044605 0.0406573)
(1.01634 0.0332579 0.0865778)
(1.02084 0.0379244 0.0959585)
(1.03092 0.0097904 0.0458187)
(1.03135 -0.0174667 -0.0126675)
(1.01701 -0.0299257 -0.0370622)
(0.99138 -0.0324065 -0.0379803)
(0.97434 -0.0194714 -0.0274806)
(0.960409 -0.00584756 -0.0257846)
(0.961519 0.00535941 -0.0335933)
(0.991644 0.0142421 -0.0193917)
(1.00401 0.00237156 0.0453661)
(1.01499 0.00921542 0.056372)
(1.03715 0.0367246 0.0441986)
(1.05408 0.0690053 0.0190691)
(1.06535 0.0828279 0.00514831)
(1.06452 0.0643978 0.00729127)
(1.04922 0.0318549 0.0111142)
(1.03906 0.0141464 0.0194561)
(1.02993 0.00410807 0.0285551)
(1.01452 0.00646673 0.0471562)
(1.00373 0.0267856 0.0645792)
(1.01502 0.0338058 0.0564531)
(1.05771 0.0247423 0.0381846)
(1.10379 0.00914808 0.0195745)
(1.11935 -0.00261714 0.00318972)
(1.11938 -0.000985961 -0.00204433)
(1.13107 0.00368492 -0.010149)
(1.13715 0.0138177 -0.0313331)
(1.10365 0.0340204 -0.0527636)
(1.03695 0.0387654 -0.0651576)
(0.990124 0.0147649 -0.0526166)
(0.972764 -0.010506 -0.0155633)
(0.970339 -0.0214745 0.0114158)
(0.991386 -0.0266429 0.01179)
(1.01894 -0.0227867 -0.00421253)
(1.02732 -0.00906216 -0.0190747)
(1.01785 -0.000756374 -0.0173828)
(1.003 -0.00898076 -0.00750668)
(0.997496 -0.0186692 0.00795499)
(0.992183 -0.00479921 0.0388614)
(0.990737 0.020518 0.0711777)
(1.00894 0.0264417 0.0716439)
(1.02396 0.00887813 0.0299218)
(1.03243 -0.00933352 -0.0106798)
(1.0284 -0.0167075 -0.01382)
(1.00419 -0.0192081 0.000891438)
(0.984523 -0.0187386 -0.00110982)
(0.975627 -0.0195365 -0.021481)
(0.984052 -0.00839866 -0.0267649)
(1 0.00429028 0.00568939)
(0.973985 -0.0117283 0.0488235)
(0.977693 0.00148986 0.064128)
(1.00968 0.0375321 0.0560326)
(1.05084 0.0759017 0.0333543)
(1.08279 0.0860364 0.0218386)
(1.07812 0.0586532 0.0222047)
(1.04558 0.025903 0.0261114)
(1.01585 0.0133812 0.0427358)
(0.996379 0.00513066 0.0547898)
(0.996759 0.00453541 0.0667545)
(1.01677 0.0231467 0.0697741)
(1.05156 0.0366886 0.0560264)
(1.08809 0.0348612 0.0470466)
(1.09679 0.0167356 0.0337485)
(1.08334 -0.00387449 0.0202512)
(1.07697 -0.00718805 0.0151588)
(1.07467 0.00586782 -0.00911261)
(1.05102 0.0334789 -0.0493787)
(1.00255 0.054163 -0.0744857)
(0.960807 0.0354512 -0.070353)
(0.96246 -0.0099851 -0.0358141)
(0.987967 -0.0379221 0.00590694)
(1.00169 -0.0375341 0.020166)
(1.01369 -0.025128 0.0118067)
(1.02039 -0.00622106 -0.000595618)
(1.01241 0.0101057 -0.00938441)
(1.00744 0.00928271 -0.0121073)
(1.00461 -0.00509002 -0.0175662)
(1.00399 -0.0114174 -0.0117363)
(0.997484 0.00245676 0.0292568)
(0.991015 0.0173928 0.0734106)
(1.01755 0.0150786 0.0678948)
(1.05268 0.0022599 0.0128118)
(1.05976 -0.000565247 -0.0265057)
(1.03135 0.000352931 -0.00615387)
(0.996634 -0.00763189 0.0259571)
(0.991713 -0.0207837 0.0147696)
(1.00009 -0.031968 -0.0221802)
(1.00302 -0.0235052 -0.0325929)
(0.992986 -0.0116324 0.00420339)
(0.966551 -0.0140447 0.0423229)
(0.967826 0.00995933 0.0408879)
(1.0077 0.0469265 0.0230691)
(1.06493 0.0811005 0.00694595)
(1.09385 0.0874006 0.0176162)
(1.05421 0.0596779 0.0287926)
(0.993276 0.029745 0.0243028)
(0.962102 0.0176046 0.0313905)
(0.955438 0.00181233 0.0350668)
(0.976966 -0.00166596 0.0400503)
(1.01601 0.028758 0.0435937)
(1.06101 0.057407 0.0422243)
(1.09904 0.0584312 0.0455242)
(1.08832 0.0215336 0.0321022)
(1.04847 -0.0193891 0.0112196)
(1.0225 -0.0191338 -0.00374756)
(1.00601 0.010125 -0.0356206)
(0.988346 0.0407907 -0.0736486)
(0.970144 0.0479227 -0.0790745)
(0.952743 0.0152337 -0.0509795)
(0.951098 -0.0366771 -0.014666)
(0.967688 -0.0568578 0.016047)
(0.977569 -0.042163 0.027953)
(0.992194 -0.0191452 0.0264332)
(1.01132 0.00673745 0.0190172)
(1.01675 0.0222356 0.00645287)
(1.01442 0.0132984 -0.00468084)
(1.00345 -0.00100342 -0.0146661)
(0.993583 -0.00271924 -0.00636227)
(0.989993 0.00915913 0.036515)
(0.995382 0.0166873 0.0677449)
(1.02037 0.00566439 0.0440627)
(1.04364 -0.00296663 -0.00920031)
(1.04408 0.00517599 -0.0270188)
(1.02285 0.0115586 0.0106176)
(1.00565 0.00721678 0.0409934)
(1.00865 -0.00748571 0.021618)
(1.0089 -0.0292885 -0.0149937)
(0.998398 -0.0325249 -0.0244274)
(0.985056 -0.0238567 0.00958617)
(0.931499 -0.025787 0.0370583)
(0.949873 -0.00489389 0.00864638)
(1.012 0.0330201 -0.0207086)
(1.08004 0.0779189 -0.0160813)
(1.08711 0.0936478 0.0284061)
(1.01658 0.0681438 0.0428278)
(0.949541 0.0362795 0.0156002)
(0.927188 0.0183189 0.00843614)
(0.92415 -0.00820637 0.00471141)
(0.953046 -0.0188847 0.00154346)
(1.01204 0.0188105 0.0101142)
(1.07389 0.0631542 0.0241393)
(1.11065 0.0723921 0.0371301)
(1.07783 0.0289544 0.026207)
(1.00618 -0.0205325 -0.00447094)
(0.955006 -0.0191466 -0.0362404)
(0.933804 0.0130329 -0.0757127)
(0.946384 0.0392536 -0.100907)
(0.976079 0.0445037 -0.0711128)
(0.98243 0.0130437 -0.0190027)
(0.965803 -0.0407105 0.00194163)
(0.955325 -0.0593807 0.00417817)
(0.949149 -0.0405372 0.010346)
(0.955216 -0.0155475 0.0192206)
(0.98467 0.0152497 0.0189795)
(1.01174 0.0329939 0.00871751)
(1.01076 0.0194869 0.00324311)
(0.990105 0.00345819 -0.00419909)
(0.982315 0.00543616 0.00114441)
(0.994674 0.0200126 0.0326769)
(1.00896 0.022156 0.0530797)
(1.00994 0.00194997 0.0363631)
(1.00441 -0.002329 0.000511907)
(0.995125 0.0120242 -0.00850086)
(0.995569 0.0203716 0.0237552)
(1.01981 0.019497 0.0445912)
(1.04423 0.00784019 0.0243258)
(1.02546 -0.0186178 -0.00482281)
(0.977052 -0.0337653 -0.00638087)
(0.945719 -0.0345014 0.0245992)
(0.925759 -0.0375581 0.0230103)
(0.948831 -0.0202071 -0.0134805)
(1.01014 0.0208338 -0.040615)
(1.06996 0.0758385 -0.0123645)
(1.07305 0.100896 0.0543787)
(1.01309 0.0810792 0.0611874)
(0.944203 0.0490739 0.0169993)
(0.907879 0.0240238 0.0052775)
(0.905124 -0.0164675 -0.000997514)
(0.946385 -0.0370595 -0.0216985)
(1.01967 0.00636945 -0.027052)
(1.08091 0.0643579 -0.0104433)
(1.10928 0.0835109 0.0219448)
(1.0854 0.0418743 0.0354402)
(1.00843 -0.0104298 -0.00177383)
(0.929332 -0.0132605 -0.0594867)
(0.90509 0.00679413 -0.106219)
(0.939662 0.0209654 -0.112169)
(0.985737 0.0288233 -0.0583957)
(1.00462 0.00831095 -0.0014751)
(0.979708 -0.0381479 0.00410369)
(0.940695 -0.056322 -0.0110363)
(0.925638 -0.038288 -0.00353406)
(0.931476 -0.0152865 0.00833696)
(0.965218 0.0169856 0.000619252)
(1.00438 0.0349316 -0.00440112)
(0.994629 0.0183103 -0.00231382)
(0.964306 0.00552155 -0.0130077)
(0.986804 0.0151606 -0.0040437)
(1.03044 0.0333312 0.0297601)
(1.02158 0.0305037 0.0497155)
(0.976935 -0.00032241 0.0396817)
(0.948975 -0.00398712 0.00723554)
(0.932357 0.0121794 -0.0116679)
(0.946306 0.0179691 0.00464537)
(1.00503 0.022212 0.0239618)
(1.07215 0.0193265 0.0187412)
(1.07062 -0.00809312 0.00513043)
(1.00639 -0.0345871 0.0079488)
(0.950862 -0.0437412 0.0270822)
(0.954044 -0.0410908 0.017102)
(0.969741 -0.02976 -0.0175089)
(1.01865 0.00894855 -0.0383452)
(1.07702 0.0645944 -0.000544941)
(1.09379 0.0956397 0.0704985)
(1.03764 0.0920614 0.0750458)
(0.9601 0.0692157 0.034402)
(0.921645 0.0339935 0.0263385)
(0.92783 -0.0236369 0.02394)
(0.972712 -0.0512259 -0.00852004)
(1.04238 0.00037512 -0.0434189)
(1.07883 0.0716358 -0.0405349)
(1.0798 0.0902658 0.00775908)
(1.07957 0.0430118 0.041161)
(1.0324 -0.0059386 -0.00504623)
(0.961796 -0.013051 -0.0822164)
(0.949614 -0.0125539 -0.110296)
(0.969351 -0.00148588 -0.0917585)
(0.990535 0.0168806 -0.0505157)
(1.02603 0.00556602 -0.00338896)
(1.00822 -0.0312617 0.0139229)
(0.931475 -0.0468762 4.04403e-05)
(0.9071 -0.0341587 0.00388607)
(0.943669 -0.0204144 0.00906953)
(0.997216 0.00255192 -0.0109306)
(1.02354 0.0227298 -0.0126276)
(0.978643 0.0161514 -0.0102123)
(0.93227 0.00661965 -0.027772)
(0.989544 0.0151605 -0.0116752)
(1.05374 0.0439304 0.0234129)
(1.02165 0.0435573 0.0365325)
(0.972404 -0.00901072 0.0391582)
(0.95288 -0.0182545 0.0139369)
(0.928195 0.0033041 -0.0219656)
(0.919687 0.0121989 -0.0186538)
(0.966002 0.0196215 0.00314369)
(1.04097 0.0192999 0.000714369)
(1.05763 -0.00587406 -0.0153296)
(1.02405 -0.0327165 -0.000830687)
(0.984907 -0.0433657 0.0258664)
(0.943774 -0.032442 0.0278881)
(0.964656 -0.0326573 -0.00180775)
(1.01522 -0.00512134 -0.0118835)
(1.07237 0.044621 0.0208274)
(1.0835 0.0876948 0.0732276)
(1.03342 0.106281 0.0758501)
(0.984472 0.0873271 0.0567185)
(0.965573 0.0411957 0.0552351)
(0.966528 -0.0232169 0.053058)
(0.995697 -0.0496871 0.0201417)
(1.06361 0.00931091 -0.0396878)
(1.07951 0.0868531 -0.0507423)
(1.05637 0.0974775 0.00795482)
(1.07774 0.0345917 0.0346663)
(1.0579 -0.016569 -0.0292838)
(1.01657 -0.0239025 -0.0997521)
(1.01221 -0.0250591 -0.082654)
(0.984802 -0.00974997 -0.0423451)
(0.973891 0.00515734 -0.0303591)
(1.02572 -0.00490537 -0.00645521)
(1.03781 -0.0246945 0.0195332)
(0.974518 -0.0312972 0.0236613)
(0.947308 -0.0243441 0.039516)
(0.991896 -0.0226025 0.0480726)
(1.04225 -0.0115615 0.0225798)
(1.03345 0.0113293 0.0125264)
(0.953881 0.0106744 -0.00394675)
(0.906987 -0.00483227 -0.0356158)
(0.978994 0.00994689 -0.0126867)
(1.03441 0.0628192 0.019723)
(1.02265 0.0598166 0.0150831)
(1.00328 -0.0226813 0.0207405)
(0.969259 -0.0352648 -0.00179317)
(0.934741 -0.00161269 -0.0450892)
(0.931935 0.0104658 -0.0233088)
(0.971836 0.0161552 0.02714)
(1.01265 0.0172048 0.0139503)
(1.00689 -0.00519737 -0.0296781)
(0.985041 -0.0303807 -0.00591174)
(0.965866 -0.0346349 0.0376981)
(0.900397 -0.0186297 0.0221998)
(0.925663 -0.0272311 0.00543233)
(0.963533 -0.0156474 0.0109053)
(1.00909 0.0381183 0.0324827)
(1.0429 0.0971478 0.0698141)
(1.05172 0.120298 0.0809727)
(1.01992 0.0970224 0.0806054)
(0.987393 0.0460716 0.0701216)
(0.980426 -0.0203869 0.0521736)
(0.994049 -0.0475096 0.0195346)
(1.05892 0.0157871 -0.0423394)
(1.07003 0.102267 -0.0494285)
(1.04618 0.102925 0.0190924)
(1.08308 0.0199885 0.0223455)
(1.08446 -0.0257623 -0.0550967)
(1.06852 -0.0206634 -0.100125)
(1.02604 -0.0211536 -0.0558499)
(0.945509 -0.011008 -0.00156317)
(0.93951 -0.00105912 0.0110246)
(0.995698 -0.012285 0.0122163)
(1.03425 -0.0290876 0.0158806)
(1.04307 -0.0326487 0.0381639)
(1.03279 -0.0195824 0.0857723)
(1.02453 -0.0179033 0.0960294)
(1.01471 -0.0169537 0.0572558)
(0.982601 0.00294957 0.0279509)
(0.913389 0.00247842 -0.00701239)
(0.895832 -0.01846 -0.0308726)
(0.966887 0.0057476 0.00214073)
(0.996611 0.0802838 0.0179968)
(1.03331 0.0743591 0.00141014)
(1.03171 -0.0245445 0.00854434)
(0.973707 -0.0361883 -0.0292881)
(0.949062 -0.00169357 -0.0733341)
(0.971304 0.00480587 -0.01123)
(0.99218 0.012997 0.0704619)
(1.00625 0.0223863 0.0393349)
(0.991618 0.000484072 -0.0188708)
(0.940411 -0.0321702 0.011884)
(0.908511 -0.0310435 0.0457885)
(0.875548 -0.00621067 -0.00566956)
(0.895121 -0.0389645 0.00525207)
(0.931275 -0.0377547 0.0368695)
(0.998 0.0277982 0.0602615)
(1.05449 0.0962316 0.0779693)
(1.07267 0.123969 0.0878844)
(1.01862 0.101698 0.0913493)
(0.98534 0.0441923 0.0651215)
(0.984591 -0.0261076 0.0405409)
(0.984021 -0.0459888 0.00792246)
(1.04505 0.0266871 -0.053298)
(1.05953 0.118848 -0.043016)
(1.04369 0.101129 0.0369947)
(1.08874 0.00222444 0.00238674)
(1.10133 -0.0327636 -0.0821045)
(1.08609 -0.0132087 -0.0932718)
(0.992508 -0.0103792 -0.0306408)
(0.90941 -0.00823785 0.0268209)
(0.937813 -0.00896784 0.0366961)
(0.974703 -0.0222771 0.0239853)
(1.00035 -0.0374147 0.026141)
(1.02817 -0.0361907 0.0694194)
(1.03594 -0.012818 0.107937)
(1.01748 -0.0135785 0.0750551)
(0.952132 -0.0249175 0.0302757)
(0.899947 -0.00565591 0.0170779)
(0.865374 -0.00501099 -0.0110247)
(0.880817 -0.0283192 -0.0214149)
(0.940064 0.010339 0.0132566)
(0.961253 0.102511 0.0141442)
(1.06213 0.0877798 0.00226281)
(1.01419 -0.0248617 0.00380785)
(0.929545 -0.0456748 -0.0430627)
(0.958927 -0.0114673 -0.0666377)
(0.994468 0.00307665 0.0352968)
(0.985426 0.0113516 0.114236)
(1.01839 0.022691 0.0595281)
(0.982751 0.00596554 0.00807037)
(0.869911 -0.0248693 0.0282174)
(0.844108 -0.0173772 0.029688)
(0.915587 0.000242744 -0.0269251)
(0.890416 -0.0506201 0.0283694)
(0.894072 -0.0520135 0.0921065)
(0.962666 0.0331707 0.0960638)
(1.04612 0.115437 0.0813994)
(1.06988 0.1329 0.0978907)
(1.00454 0.102388 0.0915424)
(0.984229 0.0390119 0.0487858)
(0.986742 -0.031111 0.0322605)
(0.98175 -0.0417486 -0.00280036)
(1.0332 0.039071 -0.0705773)
(1.04504 0.133487 -0.029048)
(1.05287 0.0967722 0.0488607)
(1.09444 -0.0155819 -0.038911)
(1.09598 -0.0378067 -0.111772)
(1.06139 -0.00814492 -0.0723538)
(0.939229 -0.00124487 0.000564047)
(0.897895 -0.00358827 0.0321792)
(0.943862 -0.0144681 0.0333906)
(0.949127 -0.0288417 0.0313772)
(0.954123 -0.0378638 0.040744)
(0.957428 -0.0302657 0.0802484)
(0.98343 -0.00516375 0.0930172)
(1.00009 -0.00788654 0.0408402)
(0.926545 -0.0250671 0.0148407)
(0.8813 -0.00970285 0.0191357)
(0.875426 -0.00672132 -0.0110549)
(0.871424 -0.0313619 -0.0178085)
(0.88791 0.0118754 0.0191296)
(0.951158 0.109946 0.0215206)
(1.11441 0.0904737 0.0128161)
(0.958898 -0.0260556 -0.0154279)
(0.860307 -0.058569 -0.0396498)
(0.960419 -0.0176826 -0.0091042)
(0.993831 0.00420646 0.113276)
(0.965868 -0.00045008 0.149862)
(0.976262 0.0173192 0.0705019)
(0.873638 0.0176295 0.0147988)
(0.773734 -0.0201759 0.00499488)
(0.830719 -0.0109415 -0.0122908)
(0.958992 0.00504715 -0.0228131)
(0.846512 -0.0496818 0.0587461)
(0.769008 -0.0435967 0.12293)
(0.870059 0.0559678 0.103943)
(1.0238 0.118883 0.0949673)
(1.03868 0.117327 0.118923)
(0.986302 0.0947885 0.079872)
(0.977112 0.0339234 0.0282872)
(0.985146 -0.0366105 0.0271359)
(0.986662 -0.040763 -0.0288599)
(1.0146 0.049998 -0.0957014)
(1.03213 0.147086 0.000528)
(1.07518 0.0938929 0.0434425)
(1.08693 -0.0320435 -0.0753754)
(1.05578 -0.0438814 -0.105974)
(0.99162 -0.00586891 -0.0292784)
(0.877947 0.00457183 0.013252)
(0.889492 0.00174033 0.0146799)
(0.927628 -0.0112702 0.0331346)
(0.921723 -0.0267483 0.040889)
(0.920994 -0.0326825 0.0393461)
(0.890241 -0.0206595 0.0640922)
(0.935841 0.00269467 0.0513926)
(0.981934 -0.00152321 0.00950654)
(0.902882 -0.0196367 0.00619652)
(0.876086 -0.00649292 0.0138471)
(0.88698 0.00161234 0.00253649)
(0.841566 -0.0273333 0.000127502)
(0.796209 0.0120012 0.0263186)
(0.943621 0.102988 0.0544779)
(1.15115 0.0725286 0.0239847)
(0.923824 -0.0246263 -0.0373722)
(0.837741 -0.0601618 -0.0149666)
(0.970113 -0.0260458 0.069597)
(0.945033 -0.00666018 0.173004)
(0.848968 -0.00393002 0.139043)
(0.819147 0.0276849 0.0408957)
(0.761129 0.0248686 -0.0170705)
(0.748968 -0.0258764 -0.0468918)
(0.865123 -0.0102445 -0.0502671)
(0.979996 0.0119377 -0.00253136)
(0.84438 -0.0429481 0.0701004)
(0.707753 -0.0336865 0.122439)
(0.826633 0.0515152 0.109809)
(0.990034 0.0888782 0.122594)
(0.985092 0.0930292 0.131459)
(0.958033 0.0889139 0.0506077)
(0.972466 0.0314257 0.0126307)
(1.00736 -0.0408013 0.0113229)
(0.988563 -0.0408171 -0.0763903)
(0.984908 0.0598232 -0.108985)
(1.03255 0.15958 0.0311539)
(1.10424 0.0913031 0.0249391)
(1.08727 -0.0424994 -0.0643679)
(0.985279 -0.0492124 -0.0511579)
(0.884766 -0.0110718 0.0181883)
(0.824657 0.00450266 0.0171295)
(0.898169 0.00594149 0.0107933)
(0.921341 -0.0139139 0.0338709)
(0.892035 -0.0238631 0.0273094)
(0.855969 -0.014907 0.0265522)
(0.809293 -0.0067034 0.0214416)
(0.896024 0.00365745 -0.017944)
(0.929271 0.00198653 -0.0166494)
(0.822756 -0.0158419 -0.00227954)
(0.832726 -0.00611796 0.0144476)
(0.883635 0.00859756 0.042886)
(0.789267 -0.0159512 0.0146619)
(0.714819 0.00561374 0.0200627)
(1.00808 0.0705026 0.0755748)
(1.22349 0.052952 0.0161382)
(0.94278 -0.00913401 -0.0336974)
(0.858486 -0.0467805 0.00808707)
(0.911045 -0.0286653 0.0931432)
(0.770164 -0.0112078 0.142187)
(0.696931 0.00191728 0.0840975)
(0.716778 0.029118 0.00283424)
(0.724677 0.00756654 -0.051738)
(0.749819 -0.0362739 -0.0871819)
(0.884823 -0.00368569 -0.0628138)
(1.01183 0.0108672 0.0229561)
(0.870874 -0.0356613 0.0769696)
(0.734097 -0.0195308 0.113195)
(0.848524 0.0402865 0.117487)
(0.93023 0.0629817 0.143008)
(0.908088 0.0808829 0.11506)
(0.914518 0.0854052 0.00908756)
(0.993711 0.024024 -0.000904088)
(1.04436 -0.0471238 -0.0232519)
(0.97221 -0.0366406 -0.132295)
(0.966819 0.0737048 -0.0948152)
(1.02229 0.171009 0.0505121)
(1.15647 0.0859282 0.0101752)
(1.09423 -0.0441199 -0.0375215)
(0.87713 -0.0467055 0.00323762)
(0.766818 -0.0132162 0.0540504)
(0.795061 -0.00223835 0.0207428)
(0.900129 -0.00761462 0.00629333)
(0.874655 -0.0205741 0.0137698)
(0.793209 -0.00784647 -0.0145549)
(0.733226 0.00524826 -0.0231376)
(0.71277 -0.00468201 -0.0376191)
(0.79945 -0.00163748 -0.0368472)
(0.838679 0.00363398 0.00502299)
(0.768245 -0.0202807 0.0103315)
(0.75719 -0.0146396 0.031076)
(0.81432 0.0146874 0.0426304)
(0.781147 -0.00338699 0.00233941)
(0.761714 -0.0253257 0.0103322)
(1.1127 0.00739402 0.023248)
(1.17859 0.0307584 -0.0116927)
(0.868872 0.00111156 -0.020502)
(0.84947 -0.0293969 -0.018644)
(0.814995 -0.0155204 0.0342665)
(0.633669 -0.0131158 0.072984)
(0.620928 -0.00195431 0.045874)
(0.690891 0.0229776 -0.0199361)
(0.711078 -0.00816772 -0.0771265)
(0.726174 -0.0390826 -0.0969647)
(0.893302 0.00366087 -0.0503257)
(1.04731 0.00860393 0.0499694)
(0.880583 -0.0281183 0.0921497)
(0.790098 -0.00795872 0.104299)
(0.873683 0.0363204 0.118383)
(0.851064 0.0541794 0.142844)
(0.842331 0.0761274 0.0601278)
(0.899208 0.075801 -0.0302319)
(1.04258 0.0121881 -0.00148116)
(1.05256 -0.0533561 -0.0630498)
(0.955972 -0.0351265 -0.159371)
(0.950743 0.0839142 -0.0769677)
(0.99489 0.176279 0.0416872)
(1.26634 0.074135 0.00459726)
(1.04332 -0.0377077 -0.0274613)
(0.711365 -0.0394282 0.0175752)
(0.711319 -0.0176017 0.0370226)
(0.809183 -0.0128302 -0.0240005)
(0.836487 -0.0156689 -0.044553)
(0.745651 -0.0143663 -0.0462188)
(0.663493 0.00552502 -0.0671555)
(0.667994 0.014182 -0.0484881)
(0.704281 0.00165048 -0.0264356)
(0.766322 0.000957482 0.0193919)
(0.798844 -0.00159148 0.0561668)
(0.726633 -0.0219908 0.0359631)
(0.65816 -0.0118373 0.024028)
(0.768459 0.0190591 -0.000857454)
(0.8611 -0.00373558 -0.0162543)
(0.802455 -0.0437064 0.00184556)
(0.938707 -0.00751044 0.00308664)
(0.882922 0.0439781 -0.000264882)
(0.754941 0.00621128 -0.0130195)
(0.8343 -0.0272201 -0.0320071)
(0.730168 -0.0147851 -0.00400678)
(0.57646 -0.0252136 0.0366338)
(0.596376 -0.0113924 0.0319852)
(0.684295 0.0171048 -0.026751)
(0.693118 -0.011072 -0.0832198)
(0.692135 -0.0316215 -0.0838619)
(0.910614 0.0108404 -0.0240277)
(1.05357 0.00839852 0.0759982)
(0.863622 -0.0178068 0.102044)
(0.815417 0.00300994 0.100532)
(0.848506 0.0388444 0.12006)
(0.812551 0.0523066 0.113457)
(0.80666 0.0663562 -0.00237211)
(0.914485 0.0597917 -0.0451017)
(1.11088 0.00219146 -0.0121965)
(1.01754 -0.0528245 -0.0914246)
(0.905619 -0.0323852 -0.155516)
(0.906223 0.0930329 -0.0522925)
(1.01723 0.166959 0.0462798)
(1.33875 0.0634808 0.0166605)