/*--------------------------------*- C++ -*----------------------------------*\
  =========                 |
  \\      /  F ield         | OpenFOAM: The Open Source CFD Toolbox
   \\    /   O peration     | Website:  https://openfoam.org
    \\  /    A nd           | Version:  10
     \\/     M anipulation  |
\*---------------------------------------------------------------------------*/
FoamFile
{
    format      ascii;
    class       volVectorField;
    location    "70";
    object      U_0;
}
// * * * * * * * * * * * * * * * * * * * * * * * * * * * * * * * * * * * * * //

dimensions      [0 1 -1 0 0 0 0];

internalField   nonuniform List<vector> 
25600
(
(0.0631463 0.000860464 0.0186369)
(0.0750114 0.000437881 0.0118069)
(0.0792926 -0.000135217 0.00130909)
(0.0747943 -0.000282415 0.020164)
(0.0791945 -6.8682e-05 0.0222901)
(0.0899587 0.000385949 -0.0125288)
(0.0999367 0.000671463 -0.0393549)
(0.127013 -4.4852e-05 -0.0485723)
(0.151247 0.00060368 -0.0513579)
(0.172649 0.000821243 -0.0411073)
(0.176979 -0.00059467 -0.0178078)
(0.139305 -0.000948379 0.00374723)
(0.104714 -0.000310932 0.00761898)
(0.0863558 0.000475047 -0.00729935)
(0.0761448 0.000276558 -0.0297169)
(0.0640017 -0.000505512 -0.0351716)
(0.0586665 -0.000456484 -0.0228267)
(0.0629312 -0.000111683 -0.00819881)
(0.0707052 0.000207822 0.00383665)
(0.0732208 -0.000155568 0.012859)
(0.076908 -0.000451441 0.0158829)
(0.089123 0.00016153 0.00549948)
(0.0966597 0.000751465 -0.00699565)
(0.0965037 -4.92746e-05 -0.00130283)
(0.0951971 -0.000616118 -0.00032523)
(0.0889013 5.435e-05 -0.00910699)
(0.0819818 0.000399836 -0.00611731)
(0.078684 0.000239412 -0.00754057)
(0.0711121 -0.00040846 -0.00961799)
(0.0695537 -0.000681122 0.00385161)
(0.0692046 0.000475308 -0.00436018)
(0.0566644 0.000955641 -0.0367822)
(0.0541057 -0.00086672 -0.0365278)
(0.0627803 -0.00119186 -0.012803)
(0.0667235 0.000235293 -0.00278146)
(0.0762895 0.000564741 -0.00593079)
(0.0799935 0.000213821 0.00774186)
(0.062603 0.000332847 0.0240883)
(0.0559842 0.000580958 0.0152761)
(0.0583794 0.000783011 0.00904144)
(0.186812 0.00516717 0.0323792)
(0.234344 0.00240565 0.00323082)
(0.250009 -0.00012496 -0.0208077)
(0.221797 -0.00044583 0.0291288)
(0.220217 0.000906377 0.0433453)
(0.257498 0.00378374 -0.0341807)
(0.288423 0.00401445 -0.098689)
(0.360256 0.000674515 -0.121368)
(0.424414 -0.000248013 -0.133708)
(0.48737 -0.000536903 -0.125303)
(0.576133 -0.000796028 -0.0820711)
(0.490315 -0.00106477 -0.0223617)
(0.346084 -0.000732542 0.00789531)
(0.297865 6.46356e-05 -0.00982081)
(0.294966 -0.00093541 -0.0535762)
(0.237956 -0.0021025 -0.0711915)
(0.189045 -0.00145405 -0.0540985)
(0.185211 -0.000437619 -0.024191)
(0.204527 0.000481469 0.00821869)
(0.21142 -0.000773958 0.031394)
(0.2074 -0.00158589 0.0386309)
(0.236292 0.000596772 0.0115422)
(0.292987 0.00223835 -0.0232181)
(0.31748 -0.000785974 -0.00958732)
(0.300034 -0.00201805 -0.00277682)
(0.269386 0.000885458 -0.0243688)
(0.250507 0.00150546 -0.0189913)
(0.260004 0.000477799 -0.0202837)
(0.247568 -0.00195424 -0.0274314)
(0.207412 -0.00233333 0.000784374)
(0.203423 0.00205699 -0.0154436)
(0.205824 0.00226756 -0.0829839)
(0.184258 -0.00389105 -0.0844651)
(0.165967 -0.00262279 -0.0294252)
(0.165359 0.00280724 -0.0116041)
(0.208357 0.0025136 -0.022551)
(0.257311 0.00257548 0.0180051)
(0.214724 0.00382342 0.0639277)
(0.17243 0.00424015 0.0437039)
(0.168882 0.00501414 0.0243091)
(0.285692 0.0112777 0.0507417)
(0.380033 0.00536917 0.00628861)
(0.434008 0.000311364 -0.0522926)
(0.373454 0.000452923 0.00105031)
(0.332506 0.00257734 0.052995)
(0.387397 0.00738559 -0.0225249)
(0.444847 0.00746398 -0.112487)
(0.533891 -0.00067677 -0.141092)
(0.674232 -0.00265963 -0.174651)
(0.692199 -0.00729911 -0.194937)
(0.805537 -0.0119069 -0.162172)
(0.860731 -0.00244324 -0.0914184)
(0.670824 0.00199721 -0.0207011)
(0.572698 -0.000114393 0.00823744)
(0.625008 -0.0027953 -0.0244364)
(0.525921 -0.00379691 -0.0676044)
(0.374173 -0.00204277 -0.0720618)
(0.316331 -0.000581605 -0.048834)
(0.323564 0.000939226 -0.0052329)
(0.334542 -0.000671565 0.0356012)
(0.313479 -0.00192728 0.0581446)
(0.329286 -0.000263756 0.0324291)
(0.453173 0.000975462 -0.0355718)
(0.529257 -0.00333684 -0.0395063)
(0.503394 -0.00321016 -0.00657252)
(0.4764 0.00249117 -0.0273933)
(0.44201 0.00277016 -0.0313082)
(0.462679 -0.000250223 -0.0280048)
(0.477779 -0.00318468 -0.0452067)
(0.373095 -0.00286711 -0.00987259)
(0.343991 0.00339136 -0.0057394)
(0.395513 0.00282998 -0.0929127)
(0.340247 -0.00656624 -0.12105)
(0.260795 -0.00181134 -0.0488728)
(0.241974 0.00788445 -0.0156582)
(0.279692 0.00432503 -0.0486006)
(0.403748 0.00435561 -0.0184136)
(0.416266 0.0101 0.0768727)
(0.321311 0.0108057 0.0769122)
(0.27328 0.0107733 0.0448275)
(0.359001 0.0181542 0.0787866)
(0.468155 0.00974343 0.0365415)
(0.602047 0.00108444 -0.0561857)
(0.538184 0.00263874 -0.0397185)
(0.439499 0.00549733 0.0356779)
(0.468417 0.010571 -0.0042874)
(0.537843 0.011001 -0.0905014)
(0.572587 -0.00648968 -0.102629)
(0.751503 -0.0131539 -0.128651)
(0.875768 -0.014012 -0.178425)
(0.863616 -0.0272718 -0.161663)
(0.972099 -0.0140694 -0.10893)
(0.905848 0.00247953 -0.060644)
(0.752093 -0.00376194 -0.00542854)
(0.870899 -0.00950932 0.0197119)
(0.914813 -0.000751383 -0.00890053)
(0.696142 0.00166406 -0.0479992)
(0.528246 -0.00120162 -0.0631166)
(0.456418 -7.58443e-05 -0.0330173)
(0.437503 -0.00137247 0.0213949)
(0.413291 -0.000221676 0.0645471)
(0.386173 7.10757e-06 0.059133)
(0.540679 -0.00404895 -0.0188215)
(0.679704 -0.00937932 -0.071032)
(0.622987 -0.0074479 -0.0323775)
(0.648447 0.00233659 -0.0266038)
(0.657445 0.0048077 -0.034582)
(0.659338 -0.00149593 -0.0261003)
(0.721817 -0.00430005 -0.054116)
(0.582496 -0.000686491 -0.0327965)
(0.479433 0.00505369 0.00875474)
(0.590145 0.00253907 -0.0640072)
(0.541131 -0.00840511 -0.134206)
(0.366266 0.000207872 -0.0734143)
(0.318866 0.0155396 -0.0171183)
(0.327664 0.00905336 -0.057712)
(0.428746 0.00418653 -0.0746161)
(0.56546 0.0144679 0.0369455)
(0.513873 0.0190046 0.0932815)
(0.4039 0.017942 0.0712292)
(0.446523 0.024275 0.107676)
(0.493394 0.0142278 0.0754409)
(0.698802 0.00112679 -0.0289198)
(0.693144 0.00545204 -0.0613788)
(0.549634 0.0115867 0.0039291)
(0.525843 0.0147065 0.00198941)
(0.628421 0.0127079 -0.0651049)
(0.676368 -0.0134297 -0.067952)
(0.744396 -0.0314785 -0.0556783)
(0.866393 -0.0251178 -0.1033)
(0.883562 -0.035519 -0.113683)
(0.942786 -0.0299104 -0.0790519)
(1.00566 -0.000860645 -0.0531734)
(0.874681 -0.00441635 -0.017145)
(0.829589 -0.0264241 0.00310706)
(0.991041 -0.0156544 0.0102063)
(1.02053 0.00349194 0.015791)
(0.90732 0.00412978 -0.0242274)
(0.748516 -0.00064896 -0.0409986)
(0.580556 -0.00589993 0.00337218)
(0.501489 -0.000370431 0.0552735)
(0.440186 0.00331823 0.0716395)
(0.565097 -0.00828724 0.0145119)
(0.791044 -0.0154519 -0.0646448)
(0.695921 -0.00953757 -0.0577475)
(0.687804 -0.00408127 -0.0415997)
(0.803101 0.000167479 -0.0457672)
(0.826066 -0.0039056 -0.0204686)
(0.909945 -0.00550894 -0.0427081)
(0.800217 0.00536213 -0.0547685)
(0.620153 0.0102632 -0.00116494)
(0.72973 0.00169019 -0.0320004)
(0.749824 -0.00956568 -0.119726)
(0.496491 0.00418823 -0.0931936)
(0.387412 0.0244296 -0.0265627)
(0.385578 0.0165186 -0.0668412)
(0.436722 0.00546137 -0.110239)
(0.590386 0.0146861 -0.0241148)
(0.650212 0.0236148 0.0720555)
(0.563119 0.0240118 0.0879944)
(0.559636 0.0286112 0.126319)
(0.518258 0.0184019 0.117479)
(0.707077 -0.00091553 0.0148095)
(0.792142 0.00636234 -0.0580136)
(0.651746 0.0215829 -0.0229022)
(0.563299 0.0207375 -0.00288643)
(0.689022 0.00609722 -0.040101)
(0.830509 -0.0193668 -0.0526179)
(0.845365 -0.0380349 -0.0147071)
(0.832864 -0.0323134 -0.0445708)
(0.844455 -0.0392451 -0.0711858)
(0.928874 -0.038876 -0.0524452)
(0.967377 -0.0079863 -0.0403404)
(0.92997 -0.000585366 -0.0014699)
(0.877973 -0.0258351 0.0137583)
(0.874674 -0.031752 -0.0222419)
(0.895083 -0.0170107 -0.0022993)
(1.04884 -0.00442227 0.0126206)
(1.19014 0.00610948 -0.0135142)
(0.945783 -0.00353556 0.00186565)
(0.633527 -0.00344663 0.0407946)
(0.503999 0.00701195 0.0698759)
(0.567393 -0.0113346 0.0363425)
(0.841446 -0.0243209 -0.038757)
(0.799538 -0.00785101 -0.0600607)
(0.711879 -0.00399518 -0.056645)
(0.826057 -0.00885407 -0.0688791)
(0.88448 -0.0150215 -0.0416815)
(0.989953 -0.0129291 -0.0309442)
(0.942047 0.0106704 -0.0558203)
(0.769122 0.0219927 -0.0255738)
(0.833103 0.00435116 -0.0374658)
(0.898548 -0.00999532 -0.103268)
(0.649619 0.010634 -0.103129)
(0.466561 0.034395 -0.04955)
(0.465292 0.0235388 -0.0917779)
(0.476426 0.00700058 -0.143172)
(0.586527 0.0135053 -0.0771947)
(0.688236 0.0217956 0.0282204)
(0.68483 0.0241729 0.0857256)
(0.663419 0.0262418 0.130478)
(0.586279 0.0202123 0.156107)
(0.684421 -0.0059984 0.0657644)
(0.812933 0.00333768 -0.032766)
(0.729873 0.0331782 -0.0393563)
(0.619218 0.0303655 -0.0133902)
(0.699983 -0.00163715 -0.0131409)
(0.850818 -0.0302059 -0.0397133)
(0.904215 -0.0403503 -0.00985393)
(0.838219 -0.0324013 -0.0199285)
(0.772691 -0.0415516 -0.0489234)
(0.932813 -0.0423044 -0.0282049)
(0.955319 -0.0105549 -0.0276276)
(0.854599 -0.00351643 -5.39175e-05)
(0.875309 -0.0271015 0.035725)
(0.912807 -0.0271655 -0.00749935)
(0.794107 -0.0260027 -0.0357731)
(0.807717 -0.0384687 -0.0270051)
(1.22546 -0.0137659 -0.0276419)
(1.32793 0.00349972 -0.00283858)
(0.893698 0.00362683 0.0256118)
(0.602288 0.0129529 0.0530788)
(0.602326 -0.0124747 0.0436406)
(0.842975 -0.0375223 -0.0189978)
(0.881951 -0.0102833 -0.0500124)
(0.772644 0.00328496 -0.0601427)
(0.853108 -0.00733962 -0.0788027)
(0.893935 -0.023679 -0.0686795)
(0.980404 -0.0272178 -0.041113)
(0.981138 0.00911841 -0.0496447)
(0.849771 0.033366 -0.0319021)
(0.956443 0.0111351 -0.04512)
(0.997444 -0.00904816 -0.105275)
(0.761032 0.0182493 -0.100226)
(0.599623 0.0465192 -0.0573938)
(0.628087 0.0312977 -0.109954)
(0.589364 0.0099713 -0.17795)
(0.607911 0.0140778 -0.12036)
(0.685683 0.0175799 -0.0193594)
(0.734247 0.0156599 0.0618775)
(0.732337 0.0148814 0.0981892)
(0.687097 0.0148233 0.174054)
(0.69784 -0.013887 0.108649)
(0.786987 -0.00490782 -0.00775774)
(0.75496 0.0396543 -0.0456422)
(0.663436 0.0416141 -0.0127711)
(0.717593 -0.00142801 0.00903886)
(0.818551 -0.0372758 -0.0252709)
(0.880953 -0.0455269 -0.00907308)
(0.850164 -0.0306705 -0.00585047)
(0.740414 -0.0397547 -0.0377824)
(0.891188 -0.0480177 -0.00944691)
(0.982678 -0.00754366 -0.00446727)
(0.834608 0.00158366 -0.0026493)
(0.804911 -0.0372044 0.0269575)
(0.914122 -0.0301069 0.0100211)
(0.874735 -0.0174435 -0.0283407)
(0.768014 -0.0530817 -0.0566899)
(1.05506 -0.0509441 -0.0675026)
(1.3662 -0.0101337 -0.0227418)
(1.08195 0.0120111 0.0086564)
(0.732621 0.0228905 0.022607)
(0.687183 -0.00874235 0.0307073)
(0.85434 -0.0476996 -0.014529)
(0.92714 -0.0186272 -0.0489982)
(0.823666 0.00740857 -0.0504425)
(0.887455 -0.00018303 -0.0626228)
(0.953663 -0.0219398 -0.0744428)
(0.962681 -0.0387971 -0.0576349)
(0.961401 0.00287573 -0.0502599)
(0.860527 0.0383256 -0.0228676)
(1.01524 0.0136983 -0.0137618)
(1.09657 -0.00606054 -0.0933395)
(0.815379 0.0283932 -0.0960851)
(0.664569 0.0569567 -0.0413066)
(0.779274 0.0384706 -0.0804901)
(0.747319 0.0166083 -0.176646)
(0.660802 0.0191629 -0.14573)
(0.696714 0.0161212 -0.0636207)
(0.75133 0.00510223 3.78525e-05)
(0.819655 -0.000734622 0.00431348)
(0.801813 -0.00352685 0.142229)
(0.771475 -0.017959 0.121923)
(0.759317 -0.00972197 0.000730739)
(0.716154 0.0421396 -0.037794)
(0.666117 0.050274 -0.00247267)
(0.742139 0.000947064 0.0127512)
(0.81299 -0.036826 -0.0122671)
(0.859882 -0.0489467 0.00341857)
(0.852857 -0.0299968 0.0145613)
(0.767985 -0.0326663 -0.0196449)
(0.8481 -0.052113 -0.00162907)
(0.958859 -0.0112797 0.0142419)
(0.887217 0.0109002 0.00569739)
(0.839955 -0.0373783 0.0167263)
(0.871579 -0.0389451 0.0044737)
(0.918079 -0.014674 -0.0246127)
(0.877318 -0.0514645 -0.0505148)
(0.990122 -0.0683202 -0.0729588)
(1.27569 -0.0255927 -0.0296433)
(1.14411 0.0121357 -0.00258437)
(0.849196 0.0298158 -0.00300414)
(0.773364 -0.00115643 0.0134003)
(0.880224 -0.05043 -0.0214853)
(0.940634 -0.0264591 -0.0607805)
(0.830775 0.00810952 -0.0414369)
(0.881698 0.00206498 -0.0282161)
(1.02906 -0.0168038 -0.0634533)
(0.976099 -0.0381064 -0.0711216)
(0.87595 -0.00240166 -0.0484768)
(0.829916 0.0365711 0.0103122)
(1.00271 0.00792247 0.0546308)
(1.13124 -0.00716179 -0.04929)
(0.886578 0.0364398 -0.0953706)
(0.710644 0.0644473 -0.0347833)
(0.835966 0.0433683 -0.0496262)
(0.844145 0.0250029 -0.145612)
(0.711818 0.0311908 -0.146171)
(0.734823 0.0187643 -0.0981713)
(0.815707 0.00184424 -0.0842301)
(0.983427 -0.00963727 -0.106997)
(0.97635 -0.0220512 0.0451372)
(0.85508 -0.0176132 0.0898755)
(0.74707 0.000770906 0.00294846)
(0.662304 0.0452729 -0.0240338)
(0.689845 0.0538627 -0.00830402)
(0.823873 0.00638603 -0.0131085)
(0.82577 -0.0286658 -0.00590897)
(0.82769 -0.0425092 0.0302672)
(0.844635 -0.0270022 0.0417595)
(0.790974 -0.0303157 0.00208281)
(0.844029 -0.0587173 -0.00095207)
(0.911551 -0.0210551 0.0145637)
(0.893075 0.0108736 0.0133025)
(0.909597 -0.0349646 0.0134167)
(0.871419 -0.0447388 -0.00864454)
(0.905599 -0.0206144 -0.0354309)
(0.929722 -0.0509177 -0.042056)
(0.97175 -0.0737624 -0.0554474)
(1.19014 -0.036866 -0.0284793)
(1.16206 0.00365158 -0.011049)
(0.927992 0.0282974 -0.0189239)
(0.820553 0.0081908 0.00312594)
(0.906027 -0.043751 -0.0299815)
(0.940705 -0.0275126 -0.073312)
(0.8175 0.00885225 -0.0274987)
(0.857484 -0.00274654 0.0182206)
(1.03878 -0.0183 -0.0422141)
(0.990251 -0.0256895 -0.093306)
(0.790711 -0.00229479 -0.0224139)
(0.755658 0.0180451 0.110597)
(0.964335 -0.0117782 0.145275)
(1.09979 -0.0112261 -0.00613853)
(0.88691 0.0498909 -0.0778803)
(0.703091 0.0763395 -0.00834207)
(0.833348 0.0469122 -0.0136227)
(0.875804 0.035915 -0.107383)
(0.740611 0.0462657 -0.12858)
(0.762818 0.0192123 -0.104464)
(0.888822 -0.00202469 -0.132973)
(1.06698 -0.0397893 -0.147412)
(1.15197 -0.035833 -0.0379377)
(0.943335 -0.00567589 0.0357366)
(0.732139 0.0251176 0.0056734)
(0.622745 0.0514834 0.010473)
(0.725036 0.0475727 0.0277916)
(0.929246 0.0073439 -0.00417691)
(0.877908 -0.0178536 -0.0043089)
(0.792015 -0.028633 0.0650444)
(0.831526 -0.0214034 0.0801079)
(0.815091 -0.0343608 0.0138499)
(0.854661 -0.0680003 -0.0120601)
(0.89564 -0.0327357 0.00660737)
(0.895608 0.00478998 0.0124223)
(0.958565 -0.0303251 0.00320352)
(0.899763 -0.0435524 -0.0286791)
(0.896039 -0.0277353 -0.0515278)
(0.962529 -0.0488665 -0.038876)
(0.951797 -0.0697325 -0.0342035)
(1.11767 -0.0501049 -0.0335749)
(1.18475 -0.0121381 -0.0309637)
(0.97355 0.0292503 -0.0245287)
(0.833456 0.0197245 0.00642775)
(0.932034 -0.0327713 -0.0374033)
(0.942566 -0.0174994 -0.0707308)
(0.797129 0.0132657 0.00549129)
(0.83966 -0.0113673 0.0541456)
(0.980116 -0.0227593 -0.016888)
(0.988573 -0.0107393 -0.0970098)
(0.817277 0.00500744 -0.0256199)
(0.744946 -0.010772 0.157338)
(0.939169 -0.0414704 0.198542)
(1.06484 -0.01163 0.0259981)
(0.823326 0.0718395 -0.0456422)
(0.603005 0.0834451 0.0409517)
(0.752127 0.0398505 0.0394919)
(0.879191 0.0443418 -0.0671341)
(0.785763 0.0641784 -0.117922)
(0.760586 0.0179164 -0.0989424)
(0.848887 -0.0312698 -0.125069)
(1.00671 -0.082548 -0.115777)
(1.17392 -0.0523383 -0.047928)
(0.959578 0.0142953 0.00697103)
(0.735329 0.0515196 0.0116977)
(0.668324 0.0517779 0.0595712)
(0.798291 0.0238032 0.104863)
(1.0327 -0.0064396 0.0605667)
(0.976094 -0.00721477 0.010262)
(0.807031 -0.0121948 0.0742699)
(0.826243 -0.017216 0.117285)
(0.856536 -0.0412848 0.028684)
(0.87515 -0.071452 -0.0265997)
(0.887677 -0.0370121 0.0127968)
(0.909157 0.000879302 0.0244374)
(0.998126 -0.0216677 0.00326134)
(0.935726 -0.0356913 -0.0344417)
(0.884587 -0.0314254 -0.0581848)
(0.975316 -0.0445846 -0.0417109)
(0.962705 -0.0578099 -0.0180814)
(1.06662 -0.0630706 -0.0412037)
(1.20576 -0.0359554 -0.068064)
(1.01529 0.0271908 -0.0307888)
(0.833715 0.0308239 0.0329603)
(0.940928 -0.0180302 -0.0281054)
(0.944797 0.00399492 -0.0561884)
(0.802409 0.0223281 0.0322617)
(0.838616 -0.019156 0.0535094)
(0.892551 -0.0222035 -0.00359362)
(0.934042 0.0105767 -0.0700474)
(0.898604 0.024743 -0.0629366)
(0.852723 -0.0289218 0.0943134)
(0.972747 -0.0714211 0.195923)
(1.04855 -0.00840286 0.0510702)
(0.772443 0.100022 -0.0224468)
(0.548699 0.0845256 0.0553775)
(0.656739 0.0167074 0.0748064)
(0.851657 0.0364731 -0.0182124)
(0.834645 0.0760265 -0.0875208)
(0.798926 0.0324536 -0.0923805)
(0.816034 -0.0471111 -0.111031)
(0.988412 -0.0966479 -0.101211)
(1.11826 -0.0612634 -0.054276)
(0.926233 0.0318724 -0.00963683)
(0.7444 0.0724247 0.0274089)
(0.756499 0.0510855 0.0804288)
(0.889315 -0.0024837 0.125251)
(1.1003 -0.0285485 0.0881227)
(1.06186 0.000300917 0.0202513)
(0.87287 0.0102576 0.0713334)
(0.84626 -0.00970416 0.147088)
(0.889832 -0.0407588 0.0621507)
(0.898608 -0.0625104 -0.0384752)
(0.876116 -0.0274445 0.0173591)
(0.897149 0.00238241 0.0508714)
(1.01155 -0.0107132 0.0111929)
(0.967776 -0.0209033 -0.0327638)
(0.880252 -0.0327884 -0.0494353)
(0.965585 -0.0464301 -0.0417499)
(1.00722 -0.0468105 -0.0177173)
(1.07674 -0.0668704 -0.0405967)
(1.19102 -0.0508364 -0.0901069)
(0.995085 0.0263531 -0.0367507)
(0.783768 0.0353787 0.0593425)
(0.912507 -0.0125669 0.00404959)
(0.959977 0.018985 -0.0384727)
(0.845866 0.034537 0.036223)
(0.856871 -0.0195815 0.0451248)
(0.852931 -0.024748 -0.00469674)
(0.88414 0.0202306 -0.0440027)
(0.935017 0.0446814 -0.0630732)
(0.926486 -0.0228466 0.0412073)
(0.997651 -0.0879151 0.174465)
(1.04645 0.00511626 0.0712774)
(0.761176 0.123222 -0.0256905)
(0.61697 0.0802931 0.023978)
(0.663222 -0.00142523 0.072158)
(0.767163 0.0148065 0.0269701)
(0.780641 0.065412 -0.032376)
(0.8363 0.0434055 -0.0770524)
(0.902492 -0.0362746 -0.118398)
(0.996544 -0.0857243 -0.0924521)
(1.01446 -0.0577756 -0.0625089)
(0.868486 0.0491393 -0.0216925)
(0.771695 0.0857294 0.0341916)
(0.79782 0.0464969 0.071515)
(0.894746 -0.0233437 0.0918463)
(1.05557 -0.0482918 0.0575927)
(1.02491 -0.000181952 0.00292785)
(0.885258 0.0277977 0.0533089)
(0.871522 0.00164318 0.15475)
(0.906535 -0.0367473 0.102461)
(0.914666 -0.0480653 -0.0303304)
(0.89047 -0.0108596 -0.00156433)
(0.890219 0.00687106 0.0506701)
(1.00738 -0.00453894 0.0163117)
(1.00802 -0.00680716 -0.0379997)
(0.910757 -0.0286829 -0.0526867)
(0.957048 -0.0545838 -0.033987)
(1.04564 -0.0461364 -0.0203298)
(1.12618 -0.0601178 -0.0432575)
(1.15259 -0.0472152 -0.0824167)
(0.954732 0.0350767 -0.0286469)
(0.767924 0.0356107 0.0674534)
(0.854085 -0.0246951 0.0336468)
(0.944415 0.0159394 -0.00915048)
(0.892873 0.0451272 0.035968)
(0.895999 -0.0113979 0.0336661)
(0.842544 -0.0265161 -0.00727343)
(0.845303 0.0203644 -0.0348072)
(0.949705 0.057969 -0.0465184)
(0.988504 -0.00331529 0.0265736)
(0.983741 -0.0866165 0.139084)
(1.02078 0.0100526 0.0953571)
(0.869278 0.132369 -0.0118126)
(0.821478 0.0793061 -0.0167681)
(0.786849 0.000335292 0.0490362)
(0.740796 0.0050205 0.0510898)
(0.733227 0.0465573 0.00190626)
(0.860421 0.0399526 -0.0597089)
(0.980534 -0.0212299 -0.107258)
(0.962504 -0.0528155 -0.0784927)
(0.876874 -0.0351427 -0.0507071)
(0.754501 0.0475073 0.00714141)
(0.756972 0.0730807 0.0569046)
(0.831069 0.0356931 0.0714032)
(0.927701 -0.0326234 0.0757802)
(1.03798 -0.055971 0.0395302)
(1.00212 -0.00356953 -0.00325304)
(0.905716 0.0332799 0.0419523)
(0.890187 0.0129285 0.146975)
(0.909169 -0.0235738 0.126857)
(0.910187 -0.0292324 -0.010499)
(0.913068 0.00524325 -0.0280345)
(0.909263 0.00551105 0.0295673)
(0.985225 -0.0126366 0.0197637)
(1.02934 -0.0030599 -0.0399838)
(0.957476 -0.0195788 -0.0652135)
(0.966478 -0.0607836 -0.0356995)
(1.05849 -0.055509 -0.0119056)
(1.15573 -0.051458 -0.0432005)
(1.13574 -0.0311393 -0.0714313)
(0.933033 0.0497575 -0.00989107)
(0.788292 0.0434093 0.0600747)
(0.834639 -0.0295952 0.0266115)
(0.911884 0.00445254 0.00270688)
(0.901674 0.0438323 0.0297603)
(0.940954 -0.000726729 0.00919279)
(0.887846 -0.0178887 -0.0138321)
(0.841692 0.0186367 -0.0245154)
(0.936886 0.0634685 -0.0419577)
(1.03512 0.0196379 0.000971811)
(1.01007 -0.068326 0.0924069)
(0.950117 0.00660668 0.101786)
(0.932 0.114851 0.0119915)
(0.967487 0.06508 -0.0292723)
(0.882723 0.00782774 0.0216642)
(0.768368 0.00981548 0.0558933)
(0.753765 0.0274674 0.0217558)
(0.903305 0.0253865 -0.0433578)
(1.00246 -0.00825337 -0.0841597)
(0.917469 -0.0290469 -0.0539099)
(0.820262 -0.0177589 -0.0326545)
(0.725282 0.0457381 0.00241339)
(0.785823 0.0642089 0.0164775)
(0.875406 0.0286543 0.0301428)
(0.961945 -0.0416145 0.0515781)
(1.05856 -0.0633194 0.0229576)
(1.02703 -0.00767218 -0.00622837)
(0.929929 0.0326854 0.0460304)
(0.894601 0.0209098 0.14253)
(0.898283 -0.0109438 0.140458)
(0.910627 -0.0147141 0.0163192)
(0.949069 0.0146292 -0.0397051)
(0.937241 0.00309964 0.0172861)
(0.938554 -0.0297368 0.0340449)
(1.00226 -0.014355 -0.0373342)
(0.993012 -0.0133287 -0.0777085)
(0.987699 -0.0624629 -0.0348552)
(1.04014 -0.0682125 0.00484893)
(1.1314 -0.0436622 -0.0248316)
(1.13257 -0.00817826 -0.0588151)
(0.954031 0.0625629 -0.0112724)
(0.816408 0.0517991 0.0481427)
(0.81694 -0.0179073 0.0291341)
(0.89668 0.00164036 0.00263833)
(0.92259 0.0353677 0.0166659)
(0.964464 0.00173236 -0.0110519)
(0.947967 -0.00939535 -0.031108)
(0.883076 0.021478 -0.0254737)
(0.911445 0.0660526 -0.0515193)
(1.03634 0.0367487 -0.036786)
(1.06028 -0.0430715 0.0503531)
(0.903382 0.00470897 0.09909)
(0.908025 0.0782875 0.0490239)
(0.980408 0.0393659 -0.00459246)
(0.90841 0.0161444 0.00996476)
(0.813914 0.020994 0.0460353)
(0.806049 0.0164031 0.028087)
(0.915943 0.0168575 -0.0329526)
(0.964108 0.00740072 -0.0666838)
(0.926837 -0.0014967 -0.0470492)
(0.844779 -0.00495637 -0.00689513)
(0.79343 0.0285482 0.00624884)
(0.874769 0.0499454 -0.034018)
(0.934654 0.0336017 -0.0339964)
(0.971172 -0.0351005 0.0239622)
(1.03825 -0.0679056 0.0222637)
(1.02257 -0.010493 -0.00718551)
(0.935051 0.0379982 0.0448797)
(0.897506 0.0314107 0.13609)
(0.880184 -0.00365719 0.146278)
(0.877682 -0.0145511 0.0453234)
(0.951767 0.0187407 -0.0296157)
(0.973531 0.0150481 0.0146905)
(0.937802 -0.0290007 0.0467711)
(0.967633 -0.02597 -0.030001)
(1.00405 -0.00964807 -0.0831086)
(1.0077 -0.0548548 -0.0241494)
(0.996453 -0.0760709 0.0313101)
(1.03404 -0.0421677 -0.00299799)
(1.08117 0.00854625 -0.049974)
(0.981923 0.0747518 -0.0293137)
(0.842021 0.0644137 0.0232372)
(0.792925 -0.00542736 0.0452358)
(0.871956 3.15618e-05 0.0219932)
(0.939463 0.0315329 0.0115018)
(0.979764 0.0107925 -0.0180431)
(0.997147 -0.00370744 -0.0429562)
(0.954237 0.0152975 -0.0381925)
(0.932395 0.0592536 -0.0652893)
(0.994063 0.0460639 -0.0571032)
(1.04813 -0.0168723 0.0345796)
(0.94759 -0.000763036 0.0952279)
(0.932522 0.0357621 0.0642874)
(0.935317 0.0119066 0.0107556)
(0.856428 0.0177337 -0.00266726)
(0.809855 0.0334921 0.0192318)
(0.811738 0.0182128 0.0264589)
(0.903922 0.0118246 -0.0139043)
(0.960247 0.019709 -0.0594279)
(0.967375 0.00322184 -0.0455759)
(0.938572 -0.00147873 0.0059107)
(0.904331 0.00986173 0.0425241)
(0.936772 0.0280195 -0.0199086)
(0.951209 0.0354656 -0.0730608)
(0.95827 -0.0151478 -0.0153764)
(0.968955 -0.059537 0.0350638)
(0.953533 -0.0147537 0.00690538)
(0.93718 0.0405705 0.0121484)
(0.948734 0.0470852 0.0855792)
(0.91209 0.0165239 0.12706)
(0.864619 -0.0137822 0.0676472)
(0.925528 0.00629749 -0.0131853)
(0.993799 0.0165853 0.00189439)
(0.977086 -0.0187134 0.0481303)
(0.969838 -0.0271262 0.00445581)
(0.998036 -0.0070708 -0.0559366)
(1.00147 -0.0401715 -0.0195782)
(0.959675 -0.0721735 0.0454461)
(0.960157 -0.0499485 0.0157669)
(0.994286 0.00453766 -0.0517566)
(0.922433 0.074995 -0.0508913)
(0.818556 0.0727357 -0.00884515)
(0.781834 0.0061959 0.035041)
(0.851741 -0.00169585 0.0355771)
(0.942177 0.0259878 0.0160143)
(0.969947 0.00763495 -0.0184452)
(1.01337 -0.0153969 -0.0439596)
(1.02784 0.00395413 -0.0366138)
(0.97861 0.0557637 -0.0687031)
(0.977299 0.0539219 -0.0658229)
(1.03253 -0.00186118 0.0356019)
(0.993203 -0.00118134 0.0896752)
(0.949189 0.0224403 0.0433705)
(0.910976 0.0106338 -0.000570533)
(0.845692 0.0261131 -0.00017983)
(0.817637 0.0459088 0.0236115)
(0.807629 0.0237546 0.0395076)
(0.867747 -0.00178749 0.0143995)
(0.945933 0.0060394 -0.0353507)
(0.950452 0.00152918 -0.0249326)
(0.928983 -0.0035291 0.0252794)
(0.885263 -0.00435728 0.0581352)
(0.911257 0.015341 -0.00894148)
(0.94339 0.0421275 -0.0988196)
(0.952793 0.013464 -0.0653911)
(0.941125 -0.0375054 0.0217917)
(0.907089 -0.0243002 0.0243415)
(0.906546 0.0307093 -0.00476656)
(0.951371 0.05897 0.0227128)
(0.965592 0.0407157 0.0740291)
(0.897021 0.00653006 0.0805933)
(0.881375 -0.00335414 0.0265877)
(0.972152 -0.00801717 0.00316757)
(1.02314 -0.0233984 0.0394542)
(0.994521 -0.0202218 0.0426121)
(0.988776 -0.00975441 -0.0112808)
(1.01592 -0.0404692 -0.0296828)
(0.973809 -0.0666118 0.0262953)
(0.9356 -0.0476481 0.0441405)
(0.95636 0.00349192 -0.0198132)
(0.90019 0.0725975 -0.0655617)
(0.844091 0.075976 -0.0506374)
(0.824854 0.0184455 0.00310116)
(0.86102 0.00154577 0.0393115)
(0.949459 0.0216438 0.0258073)
(0.970114 0.00390704 -0.0217404)
(1.00539 -0.0375872 -0.0511957)
(1.0421 -0.0258342 -0.039558)
(1.00856 0.0474042 -0.0604937)
(0.999313 0.0736491 -0.0539438)
(1.04779 0.0248345 0.035997)
(1.03234 0.00912003 0.0798848)
(0.977172 0.0209046 0.0356853)
(0.922583 0.0113451 0.00195876)
(0.878011 0.0259745 0.0244218)
(0.868104 0.0558066 0.0727469)
(0.867606 0.0439064 0.087523)
(0.898333 -4.06715e-05 0.0436931)
(0.934886 -0.00692779 -0.0161428)
(0.924727 0.0192381 -0.0209468)
(0.896778 0.01592 0.0108469)
(0.842994 -0.0155287 0.0469506)
(0.837969 -0.0402965 0.0192192)
(0.89286 -0.00786612 -0.0703941)
(0.933902 0.0172717 -0.0838001)
(0.945919 -0.00975717 -0.0022772)
(0.920177 -0.0243977 0.0341835)
(0.887929 0.0116032 0.0137536)
(0.910698 0.0477036 0.0222484)
(0.950111 0.038001 0.0572187)
(0.938648 0.0069524 0.0802124)
(0.933457 -0.0114962 0.0689272)
(0.96979 -0.0284681 0.0499911)
(1.03722 -0.0370488 0.0546966)
(1.06549 -0.0192315 0.0620892)
(1.02076 -0.00605064 0.0324254)
(1.00459 -0.0354463 -0.0193014)
(0.998448 -0.0636019 -0.0114399)
(0.960806 -0.0574836 0.0425858)
(0.972318 -0.00986829 0.0434086)
(0.973123 0.0632858 -0.00544186)
(0.990275 0.0767651 -0.0418896)
(0.975319 0.0369932 -0.0242819)
(0.931406 0.021016 0.021903)
(0.94201 0.0251188 0.0278527)
(0.97418 -1.89863e-05 -0.0139283)
(1.03725 -0.0481445 -0.0508084)
(1.04051 -0.0379112 -0.0545277)
(0.971441 0.0436819 -0.0652922)
(0.968714 0.0711707 -0.0459016)
(1.04421 0.0212505 0.0236716)
(1.09477 0.0133634 0.0653612)
(1.05778 0.0361837 0.0466661)
(0.950887 0.0217904 0.0198571)
(0.866613 0.0137714 0.0292068)
(0.856221 0.0405083 0.0700669)
(0.897835 0.0466238 0.0912791)
(0.958252 0.0141997 0.0578841)
(0.959609 0.0048726 -0.00165396)
(0.963168 0.0269891 -0.0309374)
(0.965452 0.0294842 -0.0222642)
(0.955662 0.00481162 0.0284423)
(0.906529 -0.0450697 0.0625613)
(0.874054 -0.0502367 0.00825324)
(0.88133 -0.0126808 -0.0581564)
(0.916456 -0.00143286 -0.0405938)
(0.93619 -0.00644583 0.00488657)
(0.912467 0.00974439 0.0159168)
(0.928361 0.0294583 0.0278716)
(1.00188 0.0214252 0.0472049)
(1.03342 -0.00306942 0.0578293)
(1.04752 -0.0203227 0.0620732)
(1.06554 -0.0357563 0.0807354)
(1.07634 -0.045017 0.0929962)
(1.09876 -0.022723 0.0694225)
(1.07939 0.00174659 0.0314128)
(1.04641 -0.0151439 -0.00404796)
(1.02409 -0.0411095 -0.011086)
(0.994094 -0.0538953 0.0278289)
(0.99482 -0.031148 0.064547)
(1.02482 0.023108 0.0476419)
(1.06167 0.0364555 -0.00632289)
(1.0319 0.033503 -0.0278087)
(0.971875 0.0474354 0.000530273)
(0.946026 0.0418149 0.0143232)
(0.958457 -0.00558531 -0.0175175)
(1.01591 -0.0536475 -0.0492793)
(1.01827 -0.0325277 -0.0491625)
(0.958276 0.0425137 -0.0560132)
(0.961878 0.0591344 -0.0537011)
(1.00322 0.00450659 -0.0169552)
(1.03263 -0.0106132 0.0225475)
(1.07228 0.0249508 0.0386024)
(1.06043 0.035018 0.032)
(0.968538 0.0202314 0.0238027)
(0.886923 0.0159881 0.0426815)
(0.882331 0.0132096 0.0585897)
(0.93684 0.00438647 0.0438033)
(0.971884 0.0120041 0.00145885)
(0.915798 0.0358959 -0.0369902)
(0.939415 0.0479814 -0.0635446)
(1.01143 0.0405957 -0.0411688)
(1.06643 0.00654246 0.0158656)
(1.04765 -0.0259676 0.0376778)
(1.0153 -0.0336687 -0.00373769)
(1.00789 -0.0287084 -0.0343662)
(0.992879 -0.0156324 -0.0194597)
(0.962582 0.00506485 0.00127533)
(0.965928 0.0135516 0.0123508)
(1.02155 0.00732471 0.00769164)
(1.05869 -0.00111079 0.00229467)
(1.07293 -0.0196272 0.0145066)
(1.08088 -0.0427498 0.0590468)
(1.07391 -0.0452019 0.106165)
(1.09872 -0.0177458 0.0827653)
(1.11005 0.00612219 0.0225964)
(1.08724 -0.00349512 -0.0132577)
(1.05745 -0.0169789 -0.0073329)
(1.02501 -0.028776 0.0317267)
(1.00585 -0.0303396 0.0602506)
(0.999317 -0.00145353 0.0461475)
(0.997264 0.0176886 -0.00417658)
(0.973067 0.038495 -0.0331804)
(0.957877 0.0628326 -0.0183564)
(0.95818 0.0495699 -0.00770585)
(0.959021 -0.00883163 -0.0245131)
(0.977953 -0.0528901 -0.0431385)
(0.973503 -0.0248899 -0.0344788)
(0.941678 0.0384593 -0.0328246)
(0.959319 0.0536869 -0.0526025)
(0.999683 0.0131795 -0.0508125)
(1.00906 -0.0134504 -0.0245738)
(1.00628 0.00105114 0.00175843)
(1.01122 0.027099 0.021275)
(1.02414 0.041257 0.0327422)
(1.02623 0.0266075 0.0575344)
(1.00829 -0.00678664 0.074792)
(0.97434 -0.017733 0.0580809)
(0.937338 0.00756618 0.0140465)
(0.914587 0.0282178 -0.0183721)
(0.916398 0.0421026 -0.0546097)
(0.956254 0.0286174 -0.0530775)
(1.00557 -0.00286941 -0.020268)
(1.03594 -0.0246086 0.00984067)
(1.03977 -0.0302457 0.00332824)
(1.0413 -0.0217318 -0.0252058)
(1.03603 -0.00564489 -0.0330381)
(1.01948 0.00890765 -0.0232627)
(1.01073 0.0154245 -0.0116793)
(1.03452 0.0147226 -0.0191503)
(1.06264 0.0129897 -0.0364744)
(1.07946 -0.00288147 -0.0292946)
(1.08711 -0.0347155 0.0199362)
(1.0624 -0.0535169 0.0959928)
(1.06418 -0.0362541 0.112199)
(1.1096 -0.00641654 0.054193)
(1.13575 0.00902458 -0.00627866)
(1.11738 0.0142483 -0.0209138)
(1.0802 0.00382066 0.012777)
(1.04304 -0.0142486 0.0420115)
(1.0017 -0.00753343 0.0379518)
(0.967808 0.00839359 0.0108127)
(0.946911 0.0316753 -0.0155454)
(0.95521 0.0527719 -0.0190313)
(0.970223 0.0392538 -0.0156872)
(0.962186 -0.01086 -0.0204375)
(0.949232 -0.0456426 -0.0258464)
(0.946867 -0.0171641 -0.0193705)
(0.944648 0.0314566 -0.0162145)
(0.956271 0.0335913 -0.0334801)
(0.969718 -0.00247239 -0.0449185)