/*--------------------------------*- C++ -*----------------------------------*\
  =========                 |
  \\      /  F ield         | OpenFOAM: The Open Source CFD Toolbox
   \\    /   O peration     | Website:  https://openfoam.org
    \\  /    A nd           | Version:  10
     \\/     M anipulation  |
\*---------------------------------------------------------------------------*/
FoamFile
{
    format      ascii;
    class       volScalarField;
    location    "50";
    object      p;
}
// * * * * * * * * * * * * * * * * * * * * * * * * * * * * * * * * * * * * * //

dimensions      [0 2 -2 0 0 0 0];

internalField   nonuniform List<scalar> 
25600
(
-0.000226548
-0.000388514
-0.00376613
-0.00504805
0.00112969
0.00178711
0.00114935
0.00923415
0.0120076
0.00430974
-0.000358522
-0.00649737
-0.00197161
0.0067352
0.00399825
0.000447316
0.000499747
-0.00204436
-0.00256885
0.00370946
0.00679683
0.00505594
0.00444605
0.00290196
0.00200236
0.000586424
-0.000842038
0.00212172
0.00343958
0.00446353
0.00461208
-0.00163595
-0.0065087
-0.00438566
0.003289
0.00612765
0.00360376
0.00279433
0.00430976
0.00294409
-0.000227716
-0.00040573
-0.00378654
-0.00509508
0.00111891
0.00177452
0.00110804
0.0092679
0.0120941
0.00434537
-0.000343632
-0.00651692
-0.00201712
0.00672384
0.00399753
0.000454886
0.000510205
-0.00204969
-0.0026185
0.00370072
0.00681904
0.00503913
0.0044407
0.00290309
0.00201527
0.000606601
-0.00085243
0.00206687
0.00339296
0.0044691
0.00465224
-0.00162492
-0.00650715
-0.0043939
0.0032837
0.00612935
0.00361445
0.00278531
0.00430418
0.002964
-0.000226104
-0.000357672
-0.00381377
-0.00518895
0.0010984
0.00173997
0.00104203
0.00933491
0.0122659
0.00438784
-0.000328635
-0.00660246
-0.00214109
0.00668489
0.00397763
0.00045087
0.000526479
-0.00204748
-0.00266847
0.00369828
0.00687693
0.00500936
0.00443269
0.00288889
0.00199908
0.000605019
-0.000866645
0.00209198
0.0032943
0.00436539
0.00469285
-0.00160506
-0.0065079
-0.00442487
0.00327007
0.0061439
0.00364033
0.00278944
0.00428198
0.0029696
-0.000143171
-0.000550293
-0.00400511
-0.00529926
0.00094228
0.00162477
0.000955563
0.00949593
0.0125179
0.00444154
-0.0003264
-0.00670182
-0.00237523
0.0065657
0.00384523
0.000422761
0.000492403
-0.00199357
-0.00267081
0.00368286
0.00689677
0.0049033
0.00440563
0.00286712
0.00195355
0.000586827
-0.000889074
0.00221261
0.0032502
0.00412349
0.00455711
-0.00159473
-0.00645752
-0.00452084
0.0032009
0.00612273
0.00368042
0.00281223
0.00427117
0.00301889
-0.000103946
-0.000554152
-0.00442392
-0.0054777
0.00078125
0.00118207
0.000457289
0.00960602
0.0128397
0.00453645
-0.000337434
-0.00678974
-0.00247111
0.00642124
0.0036015
0.000348895
0.000545941
-0.00200686
-0.00266851
0.00362925
0.00683319
0.00470548
0.00433987
0.00284308
0.00187659
0.000590465
-0.000874334
0.00245578
0.00331875
0.00380514
0.00421712
-0.00170966
-0.00644722
-0.00455448
0.00309149
0.00607846
0.00367114
0.00282015
0.00424617
0.00316773
1.28596e-05
-0.000363176
-0.00454154
-0.0056687
0.000747227
0.000675961
-0.000484983
0.00928806
0.0131429
0.0046752
-0.000424318
-0.00695293
-0.00249291
0.00641234
0.0032847
0.000171845
0.000815261
-0.00199125
-0.0028191
0.00345915
0.00660465
0.0044723
0.0042865
0.00281207
0.00177261
0.000596473
-0.000785071
0.00276412
0.00351751
0.0035385
0.00380111
-0.00195912
-0.00668041
-0.00485697
0.00281842
0.0059596
0.00363345
0.00282306
0.00421323
0.00330624
0.000119521
-0.000287074
-0.00436663
-0.00579747
0.000760408
0.000259618
-0.00178319
0.00831551
0.0131243
0.00480932
-0.000732271
-0.00731777
-0.00268762
0.00645389
0.00306129
-7.86657e-05
0.00122463
-0.00158986
-0.00309183
0.00305472
0.00634948
0.00429227
0.00432958
0.00277465
0.00162292
0.000532154
-0.000612851
0.00298258
0.00379257
0.00332383
0.00358686
-0.00207828
-0.00706555
-0.00544937
0.00226102
0.00565465
0.00354993
0.00270992
0.00433844
0.0033671
0.000773925
-0.000192396
-0.00456465
-0.00609155
0.000875703
0.000398165
-0.00315965
0.0065624
0.0125121
0.00487447
-0.00127571
-0.00792447
-0.00298867
0.00628203
0.0027533
-0.000591104
0.00158548
-0.000950971
-0.00329344
0.00235073
0.00600766
0.00430465
0.00451631
0.00276443
0.00140047
0.000412265
-0.000545458
0.00306215
0.00404641
0.00312916
0.00341956
-0.00191825
-0.00716433
-0.00632906
0.0014212
0.00527591
0.00356679
0.00253753
0.0041069
0.00327568
0.00189308
0.000750071
-0.0043382
-0.0069132
0.00051982
0.00123437
-0.00423771
0.00411595
0.011346
0.00492093
-0.00184807
-0.0085447
-0.00321016
0.00592143
0.00182647
-0.00157894
0.00147365
-0.000277683
-0.00339311
0.00131604
0.00557412
0.00444259
0.00483655
0.00281488
0.00114658
0.000247225
-0.000592023
0.00304202
0.00417219
0.00291742
0.00305071
-0.00173984
-0.00713473
-0.00687765
0.000444869
0.00471249
0.00340128
0.00259576
0.00371639
0.00271522
0.00233615
0.00175921
-0.00275621
-0.00700212
-0.000144422
0.00180456
-0.00494392
0.00173672
0.00992395
0.00480763
-0.00212041
-0.00898433
-0.00336819
0.00591908
0.00107788
-0.0027081
0.000734997
9.02595e-05
-0.00345681
9.73196e-05
0.00464644
0.00442977
0.00513638
0.00290474
0.000871178
-1.42569e-05
-0.000809447
0.00286452
0.00407598
0.00264532
0.00269324
-0.00137751
-0.00696183
-0.0072739
-0.00054972
0.00410298
0.00330819
0.00267868
0.00350824
0.00186756
0.00196949
0.00233411
-0.00053506
-0.00597085
-0.000403039
0.00190545
-0.00516836
-0.00037496
0.0086485
0.00482796
-0.00207731
-0.0089933
-0.0034795
0.00622142
0.00136602
-0.00297166
0.000306172
0.000232445
-0.00344863
-0.000948024
0.00372107
0.00432067
0.00532804
0.00279776
0.000657889
-0.000321852
-0.00114445
0.00251422
0.00371776
0.00221736
0.00231154
-0.000874055
-0.00631854
-0.00742634
-0.00146207
0.00342147
0.00283319
0.00243762
0.00350144
0.00123567
0.00129644
0.00267898
0.000521293
-0.00481269
-0.00040163
0.00193956
-0.00511435
-0.00213709
0.00740247
0.0048365
-0.00194355
-0.00883057
-0.00351543
0.00679147
0.00251976
-0.0022558
0.000199151
0.000220751
-0.00327349
-0.00154944
0.00302729
0.0042192
0.0052451
0.00269546
0.000556698
-0.000541927
-0.00140427
0.00205705
0.00312324
0.00145851
0.00144518
-0.00068305
-0.00529968
-0.00727408
-0.00226443
0.00258285
0.00230909
0.00221841
0.00338742
0.00101041
0.000807438
0.00259314
0.000685531
-0.00408087
-0.000618411
0.00199557
-0.0048126
-0.00342219
0.00590869
0.00461788
-0.00186724
-0.0086284
-0.00346892
0.00702778
0.00344843
-0.00154058
0.000239455
0.000232217
-0.00286363
-0.00168101
0.00248378
0.00418136
0.00501883
0.00271082
0.000362566
-0.000746514
-0.0013707
0.00164256
0.00235344
0.000390297
0.000533761
-0.000969881
-0.00447514
-0.00692108
-0.00300616
0.00165653
0.0015523
0.0020803
0.00335894
0.000936598
0.000277473
0.00223816
0.000619126
-0.00339909
-0.000595395
0.00128517
-0.0048336
-0.00423775
0.00257437
0.00429693
-0.00160311
-0.00840124
-0.00302102
0.00682554
0.00372275
-0.00144872
4.56641e-05
0.000248501
-0.00234874
-0.00150062
0.00198643
0.00420576
0.00479211
0.00271169
0.000206486
-0.000932245
-0.001234
0.00142381
0.00184441
-0.000366391
-0.000237451
-0.00107961
-0.00393233
-0.0065724
-0.00385362
0.000554403
0.000548145
0.00199909
0.00364301
0.00070401
-0.000575825
0.00178928
0.000684059
-0.00261039
-0.000339954
0.000516619
-0.00522295
-0.00462198
0.00171021
0.00390254
-0.000820327
-0.00771837
-0.00286963
0.00622524
0.00376612
-0.00159571
-0.000135937
0.000317747
-0.00189073
-0.00118872
0.00172396
0.00398468
0.00437341
0.00279523
0.000209989
-0.00101676
-0.00131202
0.00135576
0.00172835
-0.000382702
-0.000737979
-0.000997548
-0.00337706
-0.00657914
-0.00477138
-0.000744408
-0.000626306
0.00167639
0.00398148
0.000463524
-0.000965907
0.00116168
0.000645904
-0.00164806
0.000106364
-0.00022423
-0.00518401
-0.0045013
0.00125615
0.00346706
-0.000323818
-0.00763746
-0.00280385
0.00544686
0.00347472
-0.00199832
-0.000336736
0.000457024
-0.00160531
-0.000997519
0.00185784
0.003752
0.00391152
0.00302237
0.000346507
-0.00110145
-0.00146425
0.00142129
0.00207291
0.000156622
-0.000867367
-0.00100394
-0.00300257
-0.00616193
-0.00537486
-0.00176957
-0.00161902
0.00116771
0.00410157
0.000508368
-0.000774889
0.000771558
0.000382313
-0.00117717
0.000454534
-0.000568132
-0.00511565
-0.00421712
0.000914051
0.00287324
-0.000323948
-0.00650966
-0.00264389
0.00454773
0.00232517
-0.00255804
-0.000380056
0.000475294
-0.00175722
-0.00116875
0.00210301
0.00365641
0.00331707
0.00244723
0.000580228
-0.00103158
-0.00188511
0.0013212
0.00262404
0.000965922
-0.00054345
-0.000871478
-0.00259209
-0.00553911
-0.00549035
-0.00239423
-0.00222923
0.0005902
0.00399376
0.000862444
-0.000211596
0.000921923
6.20176e-05
-0.000919757
0.000797513
-0.000378325
-0.0047171
-0.00442715
2.99269e-05
0.00226075
-0.000187203
-0.00487359
-0.0020995
0.00378864
0.00114142
-0.00299826
2.26374e-05
0.000640313
-0.00199956
-0.00158614
0.00226666
0.00371355
0.00271031
0.00193551
0.000547525
-0.00094533
-0.00168957
0.00117545
0.00303684
0.00184032
-7.04998e-06
-0.000530917
-0.00113504
-0.0044849
-0.00467523
-0.00276224
-0.00262222
4.41409e-05
0.00375616
0.0014121
0.000618638
0.00138092
-0.000233749
-0.000541088
0.00107773
-0.000292253
-0.00415285
-0.00420764
-0.00033477
0.00146194
-6.307e-05
-0.00332481
-0.00141798
0.00286503
0.000195038
-0.00306668
0.000304897
0.00078378
-0.00191979
-0.00212392
0.00175834
0.00363886
0.00211628
0.00141002
0.000372689
-0.000892836
-0.00142011
0.000840687
0.0029149
0.00225965
0.000593401
-0.00011942
-0.00090188
-0.0033426
-0.00389491
-0.00292407
-0.00278376
-0.000479938
0.00332688
0.00193726
0.00175005
0.00232569
-0.00042304
-0.000133462
0.00154789
-0.000168674
-0.00373145
-0.00377064
-0.000655706
0.000920257
1.43004e-05
-0.00221671
-0.000582107
0.00225396
-0.00027295
-0.00316526
-0.00108072
0.000446798
-0.0017135
-0.00241539
0.000729238
0.00277253
0.00118845
0.000629668
2.55655e-05
-0.000959787
-0.00132
0.000880355
0.00266047
0.00266255
0.000995672
0.000164414
-0.000376647
-0.0021071
-0.00281955
-0.00255824
-0.00261977
-0.000936172
0.00288225
0.00232849
0.00250226
0.00431702
0.00129436
-1.29194e-05
0.00184384
-0.000143189
-0.00403212
-0.00349582
-0.000806352
0.000656198
0.000394214
-0.00132962
-5.08658e-05
0.00171562
-0.00037302
-0.00226895
-0.000359411
-2.69274e-05
-0.00164432
-0.00259787
-0.000277095
0.00122623
-0.000107385
-0.000213672
-0.000433023
-0.00138007
-0.00164317
0.00024198
0.0019638
0.00197025
0.00112094
0.000387979
-9.13331e-05
-0.0011043
-0.0015356
-0.00207703
-0.00362243
-0.00209775
0.00194177
0.00178505
0.00185049
0.0049751
0.00249101
0.000371154
0.00200912
-0.000173731
-0.00395212
-0.00302407
-0.000721958
0.000354833
0.000865865
-0.000332122
0.00106741
0.000801527
-0.000747139
-0.00125619
0.000513253
0.000384556
-0.00312393
-0.00370085
-0.00167074
-0.000521074
-0.00117321
-0.00062029
-0.000438281
-0.00190577
-0.00228241
-0.000718729
0.00105966
0.00140067
0.000735697
0.000372402
0.000111745
-0.000926077
-0.000722473
-0.000885161
-0.00407778
-0.0031543
0.000929128
0.0013282
0.000758866
0.00470998
0.0030177
0.000408584
0.00135757
-0.000357284
-0.00365465
-0.00271657
-0.000527808
0.000306447
0.00138752
0.00141018
0.00265277
0.00108013
-0.0020997
-0.00185036
0.000817816
0.00125383
-0.00164182
-0.00329781
-0.00206175
-0.00134986
-0.00178787
-0.00141065
-0.00103566
-0.00203614
-0.00241955
-0.00133233
0.000155802
0.00102747
0.000661043
0.000286402
0.000316081
-0.000709338
-0.000927994
0.000122605
-0.00198487
-0.00289404
0.000191991
0.000993472
0.00026984
0.00206993
0.00243199
-0.00015604
0.000617859
-0.000103546
-0.0030292
-0.00230391
-0.00016019
0.000444014
0.00132511
0.00246486
0.00301357
0.00303664
-0.00115991
-0.00252808
0.000453294
0.00192351
-0.000248795
-0.00197983
-0.00131388
-0.00137962
-0.00250053
-0.0025873
-0.00100592
-0.00122452
-0.00234911
-0.00203843
-0.000669622
0.000658547
0.000477066
0.000273805
0.00118237
0.000385574
-0.000537252
0.000506618
-0.00112656
-0.00232993
-6.92281e-05
0.000808048
0.000700046
0.00178169
0.0022006
0.000440766
0.000718614
0.000327725
-0.00246648
-0.00219481
0.000116869
0.000920644
0.00198102
0.00292866
0.00240735
0.00200465
-0.000208201
-0.00190711
0.000695829
0.00288223
0.000931723
-0.000937761
-0.00100991
-0.0016276
-0.00262961
-0.00302921
-0.0015199
-0.000427556
-0.00138248
-0.00216107
-0.00170729
0.000163191
0.00026846
-9.95313e-05
0.000742331
0.000948899
0.00113953
0.00150734
-0.000499691
-0.00183916
8.72337e-05
0.00119004
0.00120169
0.00174068
0.00145564
0.000586979
0.000882268
0.000790274
-0.000650488
-0.00102632
0.000105386
0.000806142
0.00149771
0.00298456
0.00299064
0.00247895
0.00135011
-0.000990545
-0.000174313
0.00234961
0.00176387
-0.000128777
-0.000981667
-0.00226169
-0.00238326
-0.00200095
-0.00146371
-0.000280904
0.000164806
-0.000728205
-0.00116836
-0.000272458
-3.10348e-05
-0.000113891
0.000904186
0.00115377
0.000748267
0.00148647
-8.84047e-05
-0.00151205
9.6163e-05
0.00100007
0.000806537
0.000989012
0.00039172
0.000617459
0.000699694
0.000333435
-6.67499e-05
-0.000324838
0.000395903
0.00125467
0.00173566
0.00272012
0.00251439
0.00215896
0.0023782
0.000977718
0.000900948
0.0018901
0.00164463
0.00047989
1.95711e-05
-0.00192155
-0.00207216
-0.0009613
-0.000850667
-0.000293897
0.000905065
0.000380204
-0.000229746
0.000160967
-0.000100432
-5.50889e-05
0.00105763
0.00105056
0.000730952
0.00154864
0.000425166
-0.000985657
0.000246246
0.000880706
0.000836033
0.000872339
0.000290148
0.000853305
0.000961087
0.000317058
0.000381102
0.000362765
0.000513817
0.00124401
0.00173974
0.00247092
0.0026498
0.00231364
0.00240372
0.00159361
0.00190895
0.00253511
0.000917314
0.000204984
0.000585699
-0.00149472
-0.00207273
-0.000851114
-0.000823592
-0.000525852
0.000930055
0.000525011
0.000199712
0.00087263
0.000104641
3.1793e-06
0.00118176
0.00108184
0.0007251
0.00143717
0.000674424
-0.000630205
0.000130596
0.000590013
0.000939241
0.000776995
0.000336848
0.0011573
0.00126294
0.000355541
0.000423299
0.000786431
0.000924046
0.00142303
0.00183958
0.0022393
0.00253066
0.00236906
0.00216439
0.00177913
0.00237729
0.00286475
0.00134857
0.000606741
0.000617072
-0.000927866
-0.00180171
-0.000862066
-0.000797733
-0.000767807
0.000883892
0.000581617
9.50498e-05
0.00103588
0.000374709
0.000192375
0.00118481
0.00106667
0.000770786
0.00117965
0.000789968
2.56812e-05
0.000265035
0.000606248
0.00102916
0.000753746
0.000624269
0.00118135
0.00112743
0.00061349
0.000662901
0.00114921
0.00138247
0.00156061
0.00188466
0.00202164
0.00220737
0.00263114
0.00216666
0.00156476
0.00242777
0.00248069
0.00137225
0.00108727
0.000610279
-0.000384564
-0.000942711
-0.000522148
-0.000484099
-0.000590142
0.000669449
0.000561564
0.000135927
0.000961735
0.00056799
0.000419656
0.00100812
0.000964629
0.000919355
0.000932652
0.000852784
0.000508591
0.000238892
0.000541267
0.00109573
0.000541369
0.000872995
0.0011545
0.000947018
0.00102678
0.000928273
0.00123219
0.00168755
0.00167807
0.00197959
0.00201684
0.00198333
0.0026734
0.00224842
0.00138649
0.00227896
0.002096
0.00120918
0.00146962
0.000532225
-0.000344108
-9.24329e-06
-0.000110318
-0.00043873
-0.000183376
0.000553239
0.000488851
0.000330666
0.000674413
0.000650753
0.000679439
0.000734858
0.000953683
0.00114349
0.00064705
0.000737784
0.00103344
0.000302847
0.000583749
0.000891273
0.000642946
0.00117991
0.00100236
0.000788092
0.00131675
0.001115
0.00138017
0.00199598
0.0018512
0.00209298
0.0021255
0.0018675
0.00241585
0.00230268
0.00154956
0.00188178
0.00171929
0.00121825
0.00158082
0.000501857
-0.000439884
0.000485403
0.00019413
-0.000591648
7.71295e-05
0.000437129
0.000350493
0.000542431
0.00033302
0.000674949
0.000974434
0.00030043
0.000753102
0.00124124
0.000507451
0.00063538
0.00110511
0.000418177
0.000575804
-0.00343259
-0.000608519
-0.000353454
0.00241035
0.00716363
0.00343956
-0.00446112
-0.00588128
-0.0016331
0.000606597
-0.001871
-0.00429679
0.00499487
0.012277
0.00584629
-0.00169273
-0.00100852
0.000979167
0.00212482
0.000648416
-0.000300148
0.00343891
0.00490203
0.0039668
0.00276153
0.0010328
0.00141468
0.00492622
0.00368186
-1.68313e-06
-0.00582351
-0.00732501
-0.00495875
0.0015423
0.00798862
0.00741655
0.00424274
0.00672473
0.00604932
-0.000737952
-0.00346759
-0.000646762
-0.000390324
0.00238957
0.00718998
0.00346183
-0.00447013
-0.00590584
-0.00163121
0.000599972
-0.00190603
-0.00438129
0.00495519
0.0123032
0.00586402
-0.00170516
-0.00103382
0.000962593
0.00212593
0.000641006
-0.000359201
0.00341071
0.00489008
0.00396533
0.00275085
0.00101261
0.00139657
0.00492296
0.00368762
4.12626e-06
-0.00583947
-0.00732816
-0.00496541
0.00153388
0.00800625
0.0074347
0.00422423
0.00671039
0.00604161
-0.000717215
-0.00351004
-0.000655453
-0.000455087
0.00235926
0.00725082
0.00350571
-0.00450413
-0.00596363
-0.00166598
0.00055849
-0.00198781
-0.0044652
0.00487464
0.0123174
0.00589963
-0.00172051
-0.00107455
0.00094144
0.00213358
0.000616904
-0.000439682
0.00333359
0.00484089
0.00395889
0.00274745
0.000992505
0.00134486
0.00490709
0.00364916
-4.81565e-05
-0.00590976
-0.00738612
-0.00500169
0.00152383
0.00804038
0.00746792
0.00422077
0.00676853
0.00607153
-0.000790046
-0.00369482
-0.000633386
-0.000495795
0.00226165
0.00730281
0.0035175
-0.00452814
-0.00595876
-0.00176027
0.000519832
-0.00207857
-0.00452358
0.00480166
0.0122332
0.00584975
-0.00169391
-0.00112872
0.000881262
0.00210974
0.000552255
-0.000528489
0.00319333
0.00468005
0.00387072
0.00271768
0.000965366
0.00125019
0.00488362
0.00359182
-0.000107704
-0.0058614
-0.00745073
-0.00509895
0.0014539
0.00802727
0.00748038
0.00416799
0.00688643
0.00623371
-0.000800404
-0.00391573
-0.000665367
-0.000583951
0.00206286
0.00718292
0.00343868
-0.00452772
-0.00573009
-0.00187278
0.000403816
-0.00193892
-0.00450318
0.00472192
0.0120231
0.00571647
-0.00161943
-0.00115585
0.000755204
0.00202881
0.000433192
-0.000644407
0.00302837
0.00439607
0.00357161
0.00262692
0.000951447
0.0011377
0.00473797
0.00353552
-0.00013524
-0.00543691
-0.00729443
-0.00516206
0.00127976
0.00785781
0.00751168
0.00400035
0.00676562
0.00649043
-0.000668107
-0.00425112
-0.00080366
-0.000661858
0.00177105
0.00688409
0.00310442
-0.00456188
-0.00545314
-0.0016705
3.7266e-05
-0.00175442
-0.00433799
0.0045487
0.0116654
0.00546749
-0.0014558
-0.00110045
0.00055625
0.00186788
0.000263062
-0.000555047
0.00287245
0.00407332
0.00305255
0.00240299
0.000900257
0.00109628
0.00446742
0.00343492
-0.000137773
-0.00489037
-0.0069043
-0.00518466
0.00116278
0.00754661
0.0076372
0.0037212
0.00656831
0.00662009
-0.000355395
-0.00458355
-0.00121688
-0.000777976
0.00157125
0.00645373
0.00245719
-0.00471345
-0.00516132
-0.00117285
-0.00010794
-0.0016855
-0.00409685
0.00412662
0.0111136
0.00500204
-0.0013163
-0.000986289
0.000372558
0.00160234
7.84593e-05
-0.000323996
0.0027708
0.00381894
0.00251484
0.00209711
0.00080665
0.000972409
0.00415915
0.00338973
-7.50686e-05
-0.00437356
-0.00639747
-0.00522547
0.00102299
0.00704172
0.00767752
0.00345293
0.00625063
0.00673677
0.000113949
-0.00471385
-0.00186094
-0.00117607
0.00134496
0.00581071
0.00184032
-0.00483169
-0.00483578
-0.000577301
1.16826e-05
-0.00157496
-0.00378096
0.00356342
0.0103786
0.00425625
-0.0013269
-0.000833857
0.000274089
0.00125987
-0.000182992
-6.81493e-05
0.00278498
0.00363299
0.00195594
0.00171424
0.000828863
0.000921027
0.00385502
0.00336636
-1.43363e-05
-0.0039042
-0.00605469
-0.00522833
0.000798385
0.00635128
0.00757741
0.00321685
0.00589707
0.00677419
0.000440266
-0.00461554
-0.00242875
-0.00176126
0.00102569
0.00519394
0.00166525
-0.00482534
-0.00445098
9.80111e-06
0.000347266
-0.00136692
-0.00337291
0.00317466
0.00983718
0.00345413
-0.00159162
-0.000600146
0.000205071
0.000811373
-0.000452065
0.00018051
0.00295069
0.00358796
0.00138192
0.0012389
0.000774602
0.000995382
0.00363542
0.00324703
-0.000112845
-0.00364315
-0.00609991
-0.00542706
0.000350115
0.00561508
0.00734469
0.00315438
0.00552913
0.00674741
0.000459063
-0.00437292
-0.00298795
-0.00231153
0.000603068
0.00455812
0.00176418
-0.00448211
-0.00416236
0.000464079
0.000693332
-0.00122478
-0.00322045
0.00289261
0.00965944
0.00307211
-0.00201092
-0.000786058
2.49474e-05
0.000239563
-0.000630815
0.000455572
0.0032278
0.00373779
0.000814177
0.000633851
0.000609647
0.00103388
0.00347515
0.00310257
-0.000401733
-0.00372336
-0.00651434
-0.00576048
-0.000410955
0.00481251
0.00698971
0.00306453
0.00518248
0.00668168
0.000485654
-0.00426155
-0.00353624
-0.00267405
0.000154917
0.00392068
0.00184758
-0.00391143
-0.00387488
0.00071689
0.000834321
-0.00134786
-0.00334748
0.00266755
0.00947169
0.00291391
-0.0023582
-0.00110087
-6.2602e-05
-0.000248042
-0.000641333
0.000786306
0.00358683
0.003863
0.000280884
-8.44281e-05
0.000384326
0.00098334
0.00349485
0.00303915
-0.00075136
-0.0040156
-0.00702201
-0.00610047
-0.00129192
0.00389141
0.00645115
0.00291269
0.00483675
0.00660577
0.000664501
-0.0041448
-0.00383087
-0.00281219
-0.000357969
0.00314076
0.00186719
-0.0030804
-0.00367445
0.000692312
0.00100919
-0.00171327
-0.00372794
0.0024996
0.00937951
0.00275718
-0.00269511
-0.00146655
-6.5097e-05
-0.000496828
-0.000507738
0.00114703
0.00400692
0.00402226
-5.31836e-05
-0.0007176
0.000142739
0.00104429
0.00372969
0.0031739
-0.000742964
-0.00378189
-0.0071012
-0.00636683
-0.00202008
0.00287097
0.00570908
0.0026667
0.00444538
0.0065584
0.000954667
-0.00393936
-0.00370817
-0.0027292
-0.000822149
0.00212585
0.00166274
-0.00234592
-0.003456
0.000378223
0.00124408
-0.00264222
-0.00438419
0.00236704
0.00942713
0.00297101
-0.00312682
-0.00182703
-2.73657e-05
-0.000401403
-0.000361989
0.0013795
0.00433045
0.00430236
6.00622e-05
-0.00123018
-0.000266743
0.00128464
0.0038476
0.00335547
-0.000371972
-0.00318859
-0.00659915
-0.00625292
-0.00254329
0.00171317
0.00467795
0.00226686
0.00394021
0.00644333
0.00126797
-0.0036198
-0.00329148
-0.00248149
-0.000993605
0.00145534
0.00136143
-0.00180609
-0.00359866
-0.000274451
0.00127695
-0.00297486
-0.00473072
0.00189628
0.00968681
0.00356888
-0.00343761
-0.00195978
0.000168557
-6.99312e-05
-0.000326912
0.00148652
0.00437061
0.0044804
0.000440738
-0.0015213
-0.000804139
0.00108189
0.00386256
0.00360835
0.000283736
-0.00259276
-0.00581869
-0.00561694
-0.00314091
0.000344554
0.00336143
0.00154849
0.00322738
0.00615055
0.00141186
-0.00276326
-0.00274748
-0.00199997
-0.00100544
0.00138413
0.00151961
-0.0014233
-0.00393885
-0.00101252
0.00144864
-0.00212865
-0.0035647
0.00154871
0.00913782
0.00381239
-0.00331613
-0.00196135
0.000361307
0.000166932
-0.000377521
0.00140024
0.00385547
0.00426765
0.000789639
-0.00144387
-0.00131972
0.000617312
0.00368428
0.00363438
0.0010279
-0.00199797
-0.0049989
-0.00485089
-0.00374558
-0.00110216
0.00192223
0.000462766
0.00213911
0.00555433
0.00166128
-0.00195351
-0.00219222
-0.00154838
-0.000999977
0.00143133
0.00137669
-0.00175509
-0.00403504
-0.00184688
0.00126438
-0.00109131
-0.00202953
0.00127577
0.00805086
0.00353673
-0.00289828
-0.00187127
0.00021822
-0.000133522
-0.000366956
0.00144359
0.00321042
0.0037457
0.00129591
-0.00102988
-0.00145429
-0.000196889
0.00314723
0.00354854
0.00146654
-0.0015497
-0.00412049
-0.00418227
-0.00430617
-0.00235726
0.000604659
-0.0007511
0.000933363
0.00472741
0.00196679
-0.00102109
-0.00145701
-0.00109846
-0.000865966
0.0015796
0.00123374
-0.00198341
-0.00398999
-0.00232922
0.00103278
-0.000698355
-0.00180244
0.00113539
0.00654155
0.00274036
-0.00277586
-0.00145628
4.60006e-05
-0.00057828
-0.000470768
0.00162025
0.00273037
0.00301813
0.00172754
-0.000215161
-0.00113345
-0.000776199
0.00223278
0.00326833
0.00166589
-0.000957892
-0.00310117
-0.00353021
-0.00447533
-0.00299726
-0.000629407
-0.00196834
-0.000251262
0.00391391
0.00231848
-1.04143e-05
-0.000766117
-0.000376599
-0.000639441
0.00173947
0.00125395
-0.00194569
-0.0038605
-0.00210239
0.0010725
-0.000534615
-0.00149995
0.00110407
0.00499211
0.00131614
-0.00305216
-0.000851507
0.000131543
-0.000950798
-0.000756029
0.00163816
0.00240455
0.00215746
0.00190919
0.000546468
-0.000586281
-0.000852829
0.00188283
0.00299588
0.00180823
-0.000120105
-0.00189771
-0.0027599
-0.00407944
-0.00304739
-0.00139542
-0.00278588
-0.00130475
0.00319796
0.00264756
0.00104211
-9.57215e-05
-0.000633817
-0.000362294
0.00179372
0.00106363
-0.00195593
-0.00339828
-0.00170298
0.000920158
-0.000184048
-0.00104398
0.000997668
0.00345756
0.000212406
-0.00336656
-0.000776007
0.000132411
-0.00135951
-0.00133557
0.00126551
0.00212703
0.00134834
0.00148165
0.00120803
2.24332e-05
-0.000610625
0.00109084
0.00249691
0.00196511
0.000697339
-0.000738328
-0.0019359
-0.00321975
-0.00265256
-0.00153948
-0.00295443
-0.00189583
0.00260341
0.00290621
0.00199041
0.0011972
-0.000580181
0.000128204
0.00205815
0.000870874
-0.0022963
-0.00331348
-0.00171581
0.000452353
0.00011551
-0.000197384
0.00136877
0.00259239
-0.000361482
-0.00315276
-0.00109823
-0.000299682
-0.00190649
-0.00190698
0.000655073
0.00148889
0.000374237
0.000641181
0.0010097
0.000125187
-0.000627222
0.00105841
0.00222969
0.00119989
0.000763293
1.15944e-05
-0.00105595
-0.00184579
-0.00158337
-0.00111167
-0.00261811
-0.00191812
0.00205578
0.00283873
0.00257361
0.0032655
0.000370199
0.000936075
0.00238123
0.000647975
-0.00270392
-0.00354343
-0.00190635
-0.000142459
0.000346301
0.00104279
0.00179972
0.00200928
-0.000400955
-0.00245888
-0.00112831
-0.000789858
-0.00255426
-0.0026651
-0.000324566
0.000611282
-0.000319746
-0.000370222
-0.000154571
-0.000655152
-0.00113313
0.000682941
0.00213824
0.00160224
0.000760719
0.000455894
-0.000116004
-0.000569823
-0.000555957
-0.000539964
-0.00242031
-0.00215851
0.00132157
0.00206787
0.00177856
0.00401069
0.00141501
0.000621822
0.00201178
4.00151e-05
-0.00319205
-0.00277192
-0.00132187
-0.00023444
0.000811892
0.00316479
0.00280452
0.00149836
-0.00019304
-0.0013217
-0.000384351
-0.00033849
-0.00275391
-0.00344099
-0.00153993
-0.000512618
-0.000956248
-0.000973602
-0.000971088
-0.00147843
-0.00188449
-0.00023294
0.00151138
0.00154664
0.000726633
0.000160138
0.00047387
0.00022665
0.000631708
0.000600607
-0.00189047
-0.00247383
0.000696733
0.00162424
0.00116471
0.00331491
0.0016832
0.00055604
0.00170208
-0.000357742
-0.00382168
-0.00285053
-0.0010595
-8.42386e-06
0.00166938
0.00457092
0.00508496
0.00203976
-0.000797615
-0.00180504
4.99455e-05
0.000278852
-0.00224555
-0.00355878
-0.00223876
-0.00121317
-0.00122206
-0.00120614
-0.00149891
-0.00187364
-0.00216329
-0.000981642
0.000440098
0.0012174
0.000762351
0.000245783
0.000875544
0.000874058
0.00135583
0.00181623
-0.000839972
-0.00258675
-0.000250643
0.000936756
0.000478083
0.00183989
0.0014461
0.000933773
0.00176326
-4.48217e-05
-0.00407193
-0.00311441
-0.000954295
-0.000272014
0.000765859
0.00318604
0.00616526
0.00491901
-0.000140637
-0.00310913
-0.000275587
0.00136776
-0.000519547
-0.0022811
-0.00204922
-0.0020893
-0.00236072
-0.00192258
-0.000951416
-0.00134716
-0.0019164
-0.00137924
-0.000212701
0.00088043
0.000624661
0.00013077
0.00136174
0.00137395
0.00191408
0.00238608
0.000164611
-0.00208109
-0.000167139
0.00075392
0.00101618
0.00135906
0.00119131
0.000618824
0.0023806
0.00128185
-0.00225558
-0.00275664
-0.000792566
8.97275e-07
0.00119067
0.00331541
0.00347214
0.00357855
0.000712511
-0.00185722
0.000300121
0.00268113
0.000896007
-0.00149524
-0.00211868
-0.0027485
-0.0030745
-0.00264573
-0.0013595
-0.0007024
-0.00109999
-0.00134611
-0.000482448
0.00062596
0.000669781
0.000129921
0.000478081
0.000976993
0.0016938
0.00224085
0.000578723
-0.00126608
0.000374303
0.00135657
0.00144212
0.00212012
0.00106242
0.000587559
0.0012841
0.00106806
-0.00064323
-0.00099224
-0.000125858
0.000348933
0.00108742
0.00329439
0.00394699
0.00343128
0.00181933
-0.0012173
-0.000656482
0.00185593
0.000961486
-0.000716942
-0.00167899
-0.00290356
-0.0029208
-0.00226919
-0.00161156
-0.000516155
-5.73856e-05
-0.000707339
-0.000956518
0.000145123
0.000288333
3.12039e-05
0.000789398
0.00103614
0.000877363
0.00185343
0.000429434
-0.00124926
0.000307422
0.0012596
0.000963263
0.00126737
0.000588716
0.000679867
0.000998395
0.000817197
0.000100575
-0.000539356
0.00020974
0.00114717
0.00172593
0.00295324
0.00289055
0.00252716
0.00223714
0.000783741
0.000762269
0.00146681
-0.000130919
-0.000382535
-0.000669376
-0.00224545
-0.00212787
-0.000877294
-0.000859419
-0.000382054
0.000837458
0.00035287
-0.000160693
0.000272371
0.000139169
6.34936e-05
0.000972151
0.00096664
0.000738484
0.00162016
0.000690737
-0.000709965
0.000292448
0.000954492
0.000928189
0.00097804
0.000397148
0.000940315
0.00107133
0.00038504
0.000359156
0.000461245
0.000590819
0.00123406
0.00171713
0.00282713
0.0031891
0.00271473
0.00228186
0.0013224
0.00195259
0.00283161
0.000898408
0.000135929
0.000341277
-0.0014207
-0.00202002
-0.000831591
-0.000910024
-0.000541498
0.000977421
0.000442966
0.000154771
0.000876881
0.000297879
0.000208438
0.0011892
0.00109441
0.000872403
0.00157309
0.000806103
-0.000689518
5.95446e-05
0.000620314
0.000965016
0.000878044
0.000481698
0.00118434
0.00127292
0.000382339
0.0003907
0.000735368
0.000879536
0.00130063
0.00184446
0.0023557
0.00278069
0.00276346
0.00227809
0.00156555
0.00219229
0.00279584
0.00136484
0.000717363
0.000723448
-0.000767076
-0.00167092
-0.000702215
-0.000719099
-0.000677457
0.000960443
0.000508802
5.07736e-05
0.0010464
0.000467971
0.000366624
0.00126004
0.00111676
0.000889381
0.00125965
0.000827317
9.58319e-05
0.000265956
0.000638659
0.0010122
0.000815096
0.000816181
0.00126623
0.00121351
0.000631853
0.000543115
0.00112574
0.00140225
0.00149522
0.0018898
0.00210431
0.00235783
0.00285459
0.00224055
0.00144507
0.00234926
0.00239932
0.00128403
0.0010978
0.000626538
-0.000415847
-0.000888641
-0.000422848
-0.000477384
-0.000546541
0.00075058
0.000511271
8.92781e-05
0.000957111
0.000608143
0.000567732
0.0010978
0.000997539
0.00102811
0.00104576
0.000895461
0.000501244
0.000232378
0.000561763
0.00105017
0.000606143
0.00103321
0.00120172
0.000969687
0.00107402
0.000867564
0.00119162
0.00171913
0.00166363
0.00194077
0.00202988
0.00207861
0.00276853
0.00226952
0.0013527
0.00222656
0.00200746
0.00110514
0.00145768
0.000536501
-0.000408353
-3.68058e-05
-5.12166e-05
-0.000469936
-0.000199085
0.000607791
0.000449825
0.000296493
0.000685521
0.000666145
0.000789605
0.000823502
0.000975836
0.00123228
0.000757511
0.000766572
0.00101929
0.000323264
0.000603614
0.000847586
0.000674863
0.00128681