/*--------------------------------*- C++ -*----------------------------------*\
  =========                 |
  \\      /  F ield         | OpenFOAM: The Open Source CFD Toolbox
   \\    /   O peration     | Website:  https://openfoam.org
    \\  /    A nd           | Version:  10
     \\/     M anipulation  |
\*---------------------------------------------------------------------------*/
FoamFile
{
    format      ascii;
    class       volScalarField;
    location    "50";
    object      pMean;
}
// * * * * * * * * * * * * * * * * * * * * * * * * * * * * * * * * * * * * * //

dimensions      [0 2 -2 0 0 0 0];

internalField   nonuniform List<scalar> 
25600
(
-2.13713e-06
-9.71378e-07
-2.37746e-06
5.81372e-07
-1.14763e-07
3.8673e-06
-7.96474e-07
-1.92622e-06
-3.76764e-06
-1.98464e-07
-7.37237e-07
1.57703e-06
9.93626e-09
1.71907e-06
8.29722e-07
1.1204e-06
2.14784e-07
-5.03549e-08
-5.6527e-07
7.75852e-07
9.26326e-07
1.16936e-06
1.5272e-06
4.53068e-06
6.52943e-06
3.6742e-06
2.26702e-06
2.75811e-06
4.23187e-06
4.38767e-06
5.73444e-06
3.03684e-07
1.55468e-06
-2.55024e-07
1.83859e-06
-1.73322e-06
-7.4124e-07
-8.20219e-07
-3.14592e-07
1.08958e-06
-1.95946e-06
-7.09856e-07
-2.05983e-06
8.65832e-07
1.89611e-07
4.07416e-06
-6.14605e-07
-1.63333e-06
-3.47414e-06
1.00814e-07
-5.1864e-07
1.74277e-06
1.81954e-07
2.06838e-06
1.13152e-06
1.34174e-06
3.87172e-07
2.01351e-07
-3.16729e-07
1.01315e-06
9.90751e-07
1.2918e-06
1.70882e-06
4.80965e-06
6.76665e-06
3.78447e-06
2.44006e-06
2.9537e-06
4.50295e-06
4.63951e-06
5.98979e-06
3.75007e-07
1.60815e-06
6.23475e-08
2.02303e-06
-1.49769e-06
-5.43828e-07
-4.79392e-07
1.04014e-08
1.47988e-06
-1.65088e-06
-7.33353e-07
-1.86275e-06
1.57384e-06
7.12922e-07
4.45138e-06
-6.67132e-07
-1.44879e-06
-2.94413e-06
7.17288e-07
-1.87532e-07
2.08585e-06
6.11148e-07
2.29711e-06
1.41506e-06
1.74066e-06
7.20627e-07
5.13455e-07
1.17144e-07
1.50575e-06
1.47481e-06
1.42761e-06
1.9894e-06
5.39882e-06
7.35169e-06
3.92855e-06
2.40423e-06
3.29049e-06
4.85617e-06
5.23715e-06
6.02775e-06
7.21039e-07
1.94866e-06
4.38776e-07
2.52248e-06
-1.236e-06
-5.57365e-07
-2.36031e-07
2.92757e-07
1.83552e-06
-1.57986e-06
-7.85463e-07
-1.24436e-06
2.00367e-06
1.03849e-06
4.76806e-06
-6.10842e-07
-1.40387e-06
-2.80404e-06
8.52599e-07
1.57508e-08
2.06461e-06
6.62706e-07
2.97718e-06
1.88036e-06
2.12208e-06
1.08211e-06
9.47808e-07
3.59059e-07
1.50164e-06
1.27922e-06
1.68014e-06
1.98746e-06
6.12195e-06
7.92057e-06
3.98876e-06
2.45885e-06
3.25995e-06
5.20068e-06
5.68024e-06
6.39083e-06
3.21927e-07
1.64599e-06
8.80571e-07
2.61649e-06
-1.05636e-06
-8.55973e-07
-4.74831e-08
8.21383e-07
2.325e-06
-2.69002e-06
-2.51144e-06
-2.84097e-06
1.20524e-06
6.11482e-07
3.51069e-06
-1.74495e-06
-2.31342e-06
-3.67985e-06
1.22024e-07
-1.2838e-06
4.69069e-07
-3.7734e-07
1.71172e-06
1.07719e-06
1.60568e-06
-3.81424e-08
5.3621e-10
-1.29339e-07
1.32961e-06
9.44148e-07
6.13295e-07
1.25443e-06
4.91755e-06
7.29565e-06
3.23346e-06
1.30918e-06
2.25753e-06
3.46669e-06
4.4187e-06
4.88059e-06
-5.42937e-07
3.85536e-07
-1.9416e-07
1.42737e-06
-1.81508e-06
-2.42895e-06
-1.38277e-06
-1.00355e-06
1.10983e-06
-5.6497e-06
-5.39933e-06
-5.07779e-06
-1.53181e-06
-2.32519e-06
5.99095e-07
-5.69559e-06
-5.94363e-06
-6.77348e-06
-3.02838e-06
-4.17722e-06
-2.59073e-06
-3.38554e-06
-7.52073e-07
-1.43893e-06
-1.25372e-06
-2.71505e-06
-2.78029e-06
-3.05611e-06
-2.18645e-06
-2.11702e-06
-2.28689e-06
-1.84429e-06
2.69157e-06
3.62589e-06
-7.86417e-07
-2.39183e-06
-1.33955e-06
-2.53795e-07
4.91191e-07
1.42781e-06
-5.07435e-06
-3.59421e-06
-3.50433e-06
-2.06767e-06
-5.47134e-06
-5.14065e-06
-4.57695e-06
-4.18355e-06
-2.64702e-06
-1.0468e-05
-9.52395e-06
-9.8216e-06
-4.7737e-06
-6.10341e-06
-3.73571e-06
-9.46121e-06
-9.89259e-06
-1.16119e-05
-7.98804e-06
-8.78542e-06
-7.68009e-06
-7.7445e-06
-5.10713e-06
-5.02507e-06
-5.59305e-06
-6.26053e-06
-7.11296e-06
-6.89203e-06
-5.45887e-06
-5.59074e-06
-6.16103e-06
-5.379e-06
-2.52513e-06
-1.17436e-06
-6.03161e-06
-7.44357e-06
-6.76173e-06
-5.91103e-06
-4.73732e-06
-4.40327e-06
-8.51781e-06
-8.35301e-06
-8.32475e-06
-6.42864e-06
-9.83868e-06
-1.12235e-05
-9.29495e-06
-8.67221e-06
-7.5414e-06
-1.38198e-05
-1.25683e-05
-1.23891e-05
-9.02508e-06
-1.04357e-05
-7.94715e-06
-1.2919e-05
-1.37399e-05
-1.57997e-05
-1.26119e-05
-1.22246e-05
-1.08396e-05
-1.08423e-05
-9.11666e-06
-9.14506e-06
-9.30161e-06
-9.79089e-06
-1.0735e-05
-1.08927e-05
-8.93058e-06
-9.40014e-06
-8.85191e-06
-8.99124e-06
-6.87122e-06
-6.47385e-06
-1.08004e-05
-1.24173e-05
-1.15126e-05
-1.09631e-05
-9.70835e-06
-8.41891e-06
-1.27902e-05
-1.27927e-05
-1.22621e-05
-1.12142e-05
-1.34543e-05
-1.48346e-05
-1.30342e-05
-1.33554e-05
-1.14204e-05
-1.49611e-05
-1.36857e-05
-1.39196e-05
-1.02774e-05
-1.2503e-05
-1.00383e-05
-1.38174e-05
-1.47048e-05
-1.63785e-05
-1.42498e-05
-1.33978e-05
-1.24992e-05
-1.22358e-05
-1.04404e-05
-9.96625e-06
-1.09905e-05
-1.12832e-05
-1.17537e-05
-1.16394e-05
-1.05922e-05
-1.00306e-05
-9.4093e-06
-9.72936e-06
-8.92656e-06
-8.84528e-06
-1.25595e-05
-1.4434e-05
-1.38337e-05
-1.27789e-05
-1.23275e-05
-1.1287e-05
-1.36184e-05
-1.42535e-05
-1.37909e-05
-1.31438e-05
-1.48284e-05
-1.65101e-05
-1.46917e-05
-1.48263e-05
-1.31044e-05
-1.26231e-05
-1.1051e-05
-1.10191e-05
-9.12531e-06
-1.07795e-05
-8.48251e-06
-1.07442e-05
-1.15996e-05
-1.33108e-05
-1.23543e-05
-1.11072e-05
-9.64043e-06
-9.28694e-06
-8.49525e-06
-8.63842e-06
-9.13802e-06
-9.38554e-06
-9.08766e-06
-1.02439e-05
-8.63827e-06
-8.51589e-06
-7.24802e-06
-7.731e-06
-7.37732e-06
-7.40828e-06
-1.00862e-05
-1.21394e-05
-1.1693e-05
-1.08576e-05
-1.06828e-05
-9.44524e-06
-1.09765e-05
-1.20089e-05
-1.14756e-05
-1.12537e-05
-1.18868e-05
-1.37341e-05
-1.23042e-05
-1.25468e-05
-1.11844e-05
-9.23336e-06
-8.00167e-06
-8.23441e-06
-6.51848e-06
-7.67759e-06
-6.1055e-06
-7.13299e-06
-7.81966e-06
-9.4319e-06
-9.15133e-06
-8.00108e-06
-6.90731e-06
-6.56433e-06
-5.78238e-06
-5.90641e-06
-6.2069e-06
-6.22451e-06
-5.93635e-06
-6.51343e-06
-5.99777e-06
-5.78713e-06
-4.71871e-06
-4.83381e-06
-4.73602e-06
-4.6881e-06
-6.62818e-06
-8.63068e-06
-8.22717e-06
-7.54947e-06
-7.40998e-06
-6.56916e-06
-7.09662e-06
-8.07552e-06
-7.95242e-06
-8.14047e-06
-8.43866e-06
-9.95106e-06
-8.77547e-06
-9.07769e-06
-8.11176e-06
-6.6275e-06
-5.67343e-06
-5.54786e-06
-4.33925e-06
-5.39199e-06
-4.33966e-06
-4.67411e-06
-5.0256e-06
-6.38371e-06
-6.55931e-06
-5.76629e-06
-4.50815e-06
-4.07846e-06
-3.70885e-06
-4.06477e-06
-4.03439e-06
-4.29798e-06
-3.66606e-06
-4.37297e-06
-4.19986e-06
-4.11331e-06
-3.09872e-06
-2.83892e-06
-2.73627e-06
-2.84546e-06
-4.14828e-06
-5.75741e-06
-5.573e-06
-5.0344e-06
-4.97856e-06
-4.48038e-06
-4.50385e-06
-5.3207e-06
-5.18993e-06
-5.63009e-06
-5.59874e-06
-6.7802e-06
-5.88056e-06
-6.29072e-06
-5.649e-06
-4.5829e-06
-3.84772e-06
-3.62716e-06
-2.7795e-06
-3.62872e-06
-2.97586e-06
-2.91961e-06
-2.96798e-06
-4.08605e-06
-4.53415e-06
-3.95772e-06
-2.8174e-06
-2.49796e-06
-2.2071e-06
-2.51249e-06
-2.47335e-06
-2.60279e-06
-1.96976e-06
-2.42359e-06
-2.58237e-06
-2.64658e-06
-1.78505e-06
-1.28023e-06
-1.21649e-06
-1.42948e-06
-2.2682e-06
-3.51984e-06
-3.53827e-06
-3.29133e-06
-3.21298e-06
-3.08553e-06
-2.69276e-06
-3.24335e-06
-3.12764e-06
-3.66855e-06
-3.51924e-06
-4.47379e-06
-3.86066e-06
-4.16158e-06
-3.77503e-06
-2.92074e-06
-2.37827e-06
-2.09117e-06
-1.50995e-06
-2.11809e-06
-1.7544e-06
-1.64266e-06
-1.46553e-06
-2.29772e-06
-2.77113e-06
-2.51869e-06
-1.5551e-06
-1.18105e-06
-8.96641e-07
-1.2578e-06
-1.14549e-06
-1.21952e-06
-7.11527e-07
-9.56243e-07
-1.24742e-06
-1.43374e-06
-7.64266e-07
-2.6513e-07
-9.2551e-08
-3.72046e-07
-8.91667e-07
-1.837e-06
-2.00389e-06
-2.0227e-06
-1.92699e-06
-1.93276e-06
-1.38771e-06
-1.67372e-06
-1.56028e-06
-2.12528e-06
-2.03797e-06
-2.67276e-06
-2.24647e-06
-2.47028e-06
-2.29794e-06
-1.74134e-06
-1.37237e-06
-1.06772e-06
-6.61796e-07
-1.12605e-06
-9.47791e-07
-8.84287e-07
-5.62859e-07
-1.08825e-06
-1.52385e-06
-1.46661e-06
-7.43518e-07
-3.62173e-07
-9.31634e-08
-3.80905e-07
-2.88414e-07
-3.31755e-07
5.07209e-08
-7.95677e-08
-3.29794e-07
-6.04894e-07
-9.57709e-08
3.12934e-07
5.96685e-07
3.35727e-07
-4.16942e-08
-8.00243e-07
-9.67183e-07
-1.15753e-06
-1.03199e-06
-1.07723e-06
-5.5011e-07
-6.85235e-07
-5.74157e-07
-1.06665e-06
-1.05518e-06
-1.45691e-06
-1.16616e-06
-1.34774e-06
-1.30745e-06
-1.084e-06
-8.54495e-07
-5.64211e-07
-2.75439e-07
-6.13809e-07
-5.31956e-07
-5.26008e-07
-1.41575e-07
-4.52714e-07
-7.87655e-07
-8.49409e-07
-3.59637e-07
-6.55696e-08
2.34297e-07
4.49006e-08
9.58871e-08
8.52551e-08
3.52658e-07
3.07311e-07
1.39242e-07
-1.57573e-07
1.93374e-07
4.8247e-07
8.13162e-07
6.07594e-07
2.95785e-07
-3.02397e-07
-4.33516e-07
-6.7807e-07
-5.7934e-07
-6.48944e-07
-1.96514e-07
-2.0953e-07
-1.12445e-07
-4.81767e-07
-5.33473e-07
-8.04373e-07
-5.94039e-07
-7.29247e-07
-7.3637e-07
-7.57006e-07
-6.01655e-07
-3.67894e-07
-1.67774e-07
-4.21427e-07
-3.64779e-07
-3.94017e-07
-5.37599e-08
-2.1315e-07
-4.27283e-07
-5.45113e-07
-2.37426e-07
-3.23942e-08
2.65736e-07
1.7507e-07
2.16168e-07
2.19339e-07
4.17946e-07
3.90507e-07
3.03e-07
6.36131e-09
2.32783e-07
4.2776e-07
7.13369e-07
5.85034e-07
3.72516e-07
-7.96846e-08
-1.89973e-07
-4.55844e-07
-4.12924e-07
-4.85406e-07
-1.31659e-07
-6.52086e-08
4.96728e-08
-1.96602e-07
-2.85103e-07
-4.83954e-07
-3.32271e-07
-4.42706e-07
-4.82824e-07
-5.8688e-07
-4.90897e-07
-2.94656e-07
-1.6149e-07
-3.53759e-07
-3.199e-07
-3.67552e-07
-8.31031e-08
-1.638e-07
-2.79548e-07
-3.95002e-07
-2.07914e-07
-8.06029e-08
1.83043e-07
1.71979e-07
2.0244e-07
2.39133e-07
3.79904e-07
3.388e-07
3.1098e-07
4.7266e-08
1.95439e-07
3.09309e-07
5.22935e-07
4.64314e-07
3.43461e-07
1.00375e-08
-8.69948e-08
-3.46127e-07
-3.59842e-07
-4.09386e-07
-1.54526e-07
-4.35388e-08
6.99958e-08
-7.39039e-08
-1.59023e-07
-3.29742e-07
-2.11899e-07
-3.35075e-07
-3.77435e-07
-4.7676e-07
-4.27225e-07
-2.67859e-07
-1.84892e-07
-3.25648e-07
-3.10888e-07
-3.65885e-07
-1.6394e-07
-2.03372e-07
-2.47937e-07
-3.26648e-07
-1.89288e-07
-1.29893e-07
6.81493e-08
1.12312e-07
1.40741e-07
2.06769e-07
3.14939e-07
2.53988e-07
2.62244e-07
4.35218e-08
1.36611e-07
2.01188e-07
3.52019e-07
3.48926e-07
2.84335e-07
4.13748e-08
-4.45824e-08
-2.79783e-07
-3.212e-07
-3.59994e-07
-1.89749e-07
-6.33773e-08
2.03509e-08
-4.52438e-08
-8.6237e-08
-2.43274e-07
-1.52894e-07
-2.86546e-07
-3.22383e-07
-3.98862e-07
-3.7793e-07
-2.47532e-07
-2.10438e-07
-3.07078e-07
-3.18205e-07
-3.71131e-07
-2.35585e-07
-2.44889e-07
-2.42806e-07
-2.94387e-07
-1.79837e-07
-1.64649e-07
-3.64942e-08
4.64252e-08
6.71302e-08
1.52212e-07
2.46003e-07
1.71947e-07
2.04958e-07
2.38528e-08
8.63693e-08
1.29894e-07
2.26925e-07
2.51049e-07
2.20361e-07
4.03494e-08
-2.65905e-08
-2.31303e-07
-2.74595e-07
-3.07245e-07
-2.13604e-07
-9.13102e-08
-4.22001e-08
-4.58368e-08
-4.43084e-08
-1.8348e-07
-1.08743e-07
-2.59424e-07
-2.91849e-07
-3.3275e-07
-3.35704e-07
-2.24293e-07
-2.2094e-07
-2.88741e-07
-3.20108e-07
-3.60452e-07
-2.7592e-07
-2.68784e-07
-2.43608e-07
-2.85446e-07
-1.79482e-07
-1.91203e-07
-1.12406e-07
-7.17369e-09
-3.56439e-09
9.94591e-08
1.8813e-07
9.93885e-08
1.53087e-07
2.80168e-09
4.3351e-08
8.60837e-08
1.45805e-07
1.79636e-07
1.66855e-07
3.53972e-08
-6.09906e-09
-1.80775e-07
-2.23956e-07
-2.51866e-07
-2.29277e-07
-1.09193e-07
-9.60178e-08
-6.00858e-08
-2.61451e-08
-1.54625e-07
-7.6026e-08
-2.3469e-07
-2.60944e-07
-2.75165e-07
-3.02287e-07
-2.11688e-07
-2.29387e-07
-2.67949e-07
-3.13184e-07
-3.35088e-07
-2.93606e-07
-2.76227e-07
-2.45452e-07
-2.85675e-07
-1.85247e-07
-2.09406e-07
-1.65353e-07
-4.66027e-08
-6.73661e-08
3.81266e-08
1.34419e-07
3.60609e-08
1.12677e-07
-1.10946e-08
9.96042e-09
5.82905e-08
8.85215e-08
1.27958e-07
1.25089e-07
2.84795e-08
1.25764e-08
-1.3574e-07
-1.76636e-07
-1.99692e-07
-2.27773e-07
-1.02624e-07
-1.28182e-07
-8.21272e-08
-2.91713e-08
-1.52432e-07
-5.77621e-08
-2.04604e-07
-2.22112e-07
-2.26011e-07
-2.73535e-07
-2.08956e-07
-2.33891e-07
-2.48461e-07
-2.98074e-07
-3.00875e-07
-2.98426e-07
-2.71078e-07
-2.41841e-07
-2.84381e-07
-1.87616e-07
-2.16555e-07
-2.00706e-07
-7.7974e-08
-1.12181e-07
-1.44671e-08
8.8852e-08
-8.90395e-09
8.42307e-08
-1.76563e-08
-1.38408e-08
3.4624e-08
4.49454e-08
8.91349e-08
9.43005e-08
1.22463e-08
2.13948e-08
-1.03971e-07
-1.34992e-07
-1.43572e-07
-2.14072e-07
-8.9415e-08
-1.45052e-07
-1.00898e-07
-3.5946e-08
-1.61589e-07
-5.30676e-08
-1.79547e-07
-1.89199e-07
-1.97808e-07
-2.4733e-07
-2.1067e-07
-2.32393e-07
-2.33689e-07
-2.81441e-07
-2.61262e-07
-2.8838e-07
-2.48499e-07
-2.30991e-07
-2.75958e-07
-1.88263e-07
-2.20432e-07
-2.20241e-07
-9.85197e-08
-1.39148e-07
-5.85591e-08
4.74337e-08
-4.70187e-08
5.48102e-08
-2.15766e-08
-3.45047e-08
9.99887e-09
3.01274e-09
4.43931e-08
6.07123e-08
-8.81851e-09
2.41157e-08
-8.26769e-08
-1.04456e-07
-9.7139e-08
-1.93827e-07
-6.82835e-08
-1.41534e-07
-1.09821e-07
-4.47774e-08
-1.71095e-07
-6.41637e-08
-1.68555e-07
-1.72688e-07
-1.81843e-07
-2.14516e-07
-2.106e-07
-2.184e-07
-2.22747e-07
-2.65205e-07
-2.24216e-07
-2.77846e-07
-2.24122e-07
-2.21645e-07
-2.61684e-07
-1.85582e-07
-2.17954e-07
-2.25737e-07
-1.17736e-07
-1.52376e-07
-9.07979e-08
9.73374e-09
-7.25097e-08
2.08016e-08
-2.58845e-08
-4.93873e-08
-1.13963e-08
-2.89782e-08
3.28787e-09
3.09018e-08
-3.22122e-08
2.06446e-08
-6.83025e-08
-8.46544e-08
-6.31106e-08
-1.69581e-07
-5.38902e-08
-1.29902e-07
-1.15278e-07
-5.57022e-08
-1.7393e-07
-9.07242e-08
-1.64472e-07
-1.655e-07
-1.82463e-07
-1.79597e-07
-2.19298e-07
-1.96564e-07
-2.17933e-07
-2.5199e-07
-1.9355e-07
-2.69871e-07
-1.97796e-07
-2.12133e-07
-2.39636e-07
-1.7855e-07
-2.10304e-07
-2.15184e-07
-1.32912e-07
-1.50791e-07
-1.0951e-07
-2.59726e-08
-8.29289e-08
-1.81717e-08
-3.25473e-08
-6.08874e-08
-3.22918e-08
-5.28811e-08
-3.75998e-08
3.23058e-10
-5.78726e-08
7.67261e-09
-6.39501e-08
-7.74611e-08
-4.66212e-08
-1.50984e-07
-5.55636e-08
-1.18349e-07
-1.18977e-07
-7.09717e-08
-1.60798e-07
-1.21668e-07
-1.59355e-07
-1.66762e-07
-1.89356e-07
-1.42539e-07
-2.34017e-07
-1.63778e-07
-2.11919e-07
-2.33806e-07
-1.65181e-07
-2.61835e-07
-1.71345e-07
-2.06812e-07
-2.14616e-07
-1.70393e-07
-2.00584e-07
-1.92215e-07
-1.49805e-07
-1.43761e-07
-1.23639e-07
-6.79714e-08
-8.38438e-08
-6.13175e-08
-4.2902e-08
-7.15883e-08
-5.36493e-08
-6.22272e-08
-6.3523e-08
-2.05387e-08
-7.60671e-08
-1.24107e-08
-6.61636e-08
-7.89082e-08
-4.54513e-08
-1.32206e-07
-7.07252e-08
-1.09838e-07
-1.24314e-07
-9.70234e-08
-1.38139e-07
-1.56107e-07
-1.46294e-07
-1.65495e-07
-2.04334e-07
-1.11086e-07
-2.5458e-07
-1.33662e-07
-2.10246e-07
-2.16534e-07
-1.42197e-07
-2.54267e-07
-1.49719e-07
-2.07255e-07
-1.91101e-07
-1.68095e-07
-1.94156e-07
-1.62266e-07
-1.65546e-07
-1.26651e-07
-1.22222e-07
-1.04616e-07
-6.78402e-08
-9.69592e-08
-5.16868e-08
-7.2181e-08
-7.03713e-08
-6.22333e-08
-7.95511e-08
-3.91838e-08
-8.84107e-08
-3.92051e-08
-7.60526e-08
-8.62052e-08
-6.20251e-08
-1.14586e-07
-9.79408e-08
-1.06155e-07
-1.28819e-07
-1.30174e-07
-1.08973e-07
-1.914e-07
-1.32155e-07
-1.66214e-07
-2.14765e-07
-8.93155e-08
-2.63666e-07
-1.05318e-07
-2.03329e-07
-1.97618e-07
-1.27371e-07
-2.42925e-07
-1.331e-07
-2.03858e-07
-1.64771e-07
-1.63319e-07
-1.86588e-07
-1.28568e-07
-1.83404e-07
-1.07191e-07
-1.16359e-07
-1.37804e-07
-4.57718e-08
-1.22051e-07
-6.2107e-08
-6.73196e-08
-8.70162e-08
-6.06886e-08
-8.72197e-08
-5.86827e-08
-9.21281e-08
-6.74829e-08
-8.68732e-08
-9.41488e-08
-8.97651e-08
-1.00026e-07
-1.27463e-07
-1.073e-07
-1.30866e-07
-1.64246e-07
-8.53339e-08
-2.20897e-07
-1.21325e-07
-1.69133e-07
-2.22927e-07
-9.40492e-08
-2.63206e-07
-9.79402e-08
-1.97361e-07
-1.81988e-07
-1.24155e-07
-2.22801e-07
-1.28912e-07
-1.96793e-07
-1.4742e-07
-1.62022e-07
-1.80346e-07
-1.02356e-07
-1.95588e-07
-8.85674e-08
-1.04987e-07
-1.58343e-07
-2.70194e-08
-1.33295e-07
-7.23136e-08
-5.74327e-08
-9.50783e-08
-6.11437e-08
-8.19429e-08
-7.66743e-08
-8.39667e-08
-9.11769e-08
-9.86824e-08
-1.00454e-07
-1.24155e-07
-9.19045e-08
-1.49922e-07
-1.10861e-07
-1.28799e-07
-1.86196e-07
-7.917e-08
-2.34569e-07
-1.23826e-07
-1.79702e-07
-2.02849e-07
-1.19221e-07
-2.28259e-07
-1.1949e-07
-1.8503e-07
-1.77676e-07
-1.40858e-07
-1.99471e-07
-1.48364e-07
-1.87844e-07
-1.42941e-07
-1.66056e-07
-1.68742e-07
-9.09168e-08
-1.93588e-07
-7.46996e-08
-9.77105e-08
-1.5778e-07
-2.22626e-08
-1.25805e-07
-8.16538e-08
-5.28821e-08
-9.39739e-08
-7.01182e-08
-6.91658e-08
-9.23263e-08
-7.50816e-08
-1.05041e-07
-1.12263e-07
-1.05292e-07
-1.53796e-07
-1.02703e-07
-1.62165e-07
-1.3295e-07
-1.33788e-07
-1.86323e-07
-1.0296e-07
-2.02123e-07
-1.25652e-07
-1.69842e-07
-1.96652e-07
-1.44433e-07
-1.07805e-07
-1.24599e-07
-1.31283e-07
-1.5687e-07
-1.66002e-07
-1.56773e-07
-1.8618e-07
-1.61715e-07
-1.47318e-07
-1.6667e-07
-1.43199e-07
-9.7536e-08
-1.69681e-07
-6.63113e-08
-9.62006e-08
-1.29538e-07
-3.28685e-08
-1.0296e-07
-8.01322e-08
-5.53562e-08
-7.82066e-08
-8.44585e-08
-5.99908e-08
-1.01627e-07
-7.60797e-08
-1.08554e-07
-1.19262e-07
-1.08979e-07
-1.55495e-07
-1.2972e-07
-1.51553e-07
-1.63587e-07
-1.61451e-07
-1.76293e-07
-2.0668e-07
-1.95198e-07
-1.91935e-07
-2.27042e-07
-3.66961e-06
-6.93929e-06
-4.83561e-06
-2.96556e-06
-4.24723e-06
-5.58174e-06
-7.05793e-06
-4.46376e-06
-1.61162e-06
-2.38112e-07
-2.95362e-06
-4.95691e-06
-4.39111e-06
4.00684e-07
3.8419e-07
-1.48506e-06
-4.56389e-06
-3.3363e-06
-1.88987e-06
-1.76459e-08
-1.84343e-06
-1.84202e-06
-3.91735e-06
7.82457e-07
-6.40176e-07
-2.90821e-06
-9.49229e-06
-7.3098e-06
-5.01271e-06
-3.87354e-06
-5.95477e-06
-9.31769e-06
-8.36721e-06
-5.28374e-06
-4.9816e-06
-4.50552e-06
-8.16181e-06
-6.84013e-06
-3.38449e-06
-5.27669e-06
-4.01811e-06
-7.41915e-06
-5.17145e-06
-3.25397e-06
-4.64327e-06
-5.95873e-06
-7.44491e-06
-4.69671e-06
-1.93936e-06
-5.67182e-07
-3.36558e-06
-5.36845e-06
-4.70779e-06
2.11818e-07
5.41802e-08
-1.8206e-06
-5.126e-06
-3.66713e-06
-2.10533e-06
-2.77845e-07
-2.27901e-06
-2.15375e-06
-4.17833e-06
6.48501e-07
-8.98325e-07
-3.25781e-06
-9.90349e-06
-7.62418e-06
-5.20998e-06
-4.10766e-06
-6.35634e-06
-9.69261e-06
-8.67125e-06
-5.5558e-06
-5.36109e-06
-4.91946e-06
-8.57808e-06
-7.16033e-06
-3.52551e-06
-5.56426e-06
-4.7209e-06
-7.83267e-06
-5.67117e-06
-3.5799e-06
-5.22521e-06
-6.65473e-06
-8.30672e-06
-5.39622e-06
-2.20135e-06
-9.4022e-07
-4.08789e-06
-6.18128e-06
-5.35311e-06
-1.44197e-08
-3.91458e-07
-2.51965e-06
-5.54201e-06
-4.00184e-06
-2.69067e-06
-7.90835e-07
-2.82415e-06
-3.14136e-06
-5.0157e-06
2.2657e-07
-1.36149e-06
-4.16581e-06
-1.06017e-05
-8.01989e-06
-5.70566e-06
-4.46403e-06
-7.03933e-06
-1.03403e-05
-9.29291e-06
-5.83186e-06
-5.61712e-06
-5.49247e-06
-9.32166e-06
-7.58521e-06
-4.16935e-06
-6.04315e-06
-5.73029e-06
-8.71881e-06
-6.51119e-06
-4.1753e-06
-5.94923e-06
-7.26763e-06
-9.38282e-06
-6.18254e-06
-3.20856e-06
-2.11218e-06
-5.04607e-06
-7.17673e-06
-6.30044e-06
-4.49655e-07
-1.2703e-06
-3.26445e-06
-7.23276e-06
-5.03187e-06
-3.27568e-06
-1.49832e-06
-4.05796e-06
-3.97252e-06
-5.71487e-06
-6.01691e-07
-2.31839e-06
-5.14104e-06
-1.20897e-05
-8.90337e-06
-6.58976e-06
-4.99194e-06
-8.21722e-06
-1.10764e-05
-9.74864e-06
-6.7213e-06
-6.63065e-06
-6.44024e-06
-1.07497e-05
-8.74367e-06
-4.48835e-06
-6.71591e-06
-6.13864e-06
-9.74596e-06
-7.62018e-06
-5.08675e-06
-7.23055e-06
-8.78311e-06
-1.05555e-05
-7.39526e-06
-3.83122e-06
-2.48569e-06
-6.66195e-06
-8.19373e-06
-7.48094e-06
-1.09516e-06
-2.70282e-06
-4.59567e-06
-7.54278e-06
-5.59488e-06
-4.43005e-06
-2.82717e-06
-5.25135e-06
-5.72764e-06
-7.67193e-06
-1.95586e-06
-3.35153e-06
-6.69525e-06
-1.27839e-05
-1.00132e-05
-7.45946e-06
-5.83411e-06
-8.97595e-06
-1.24325e-05
-1.11118e-05
-6.99142e-06
-6.94687e-06
-7.21017e-06
-1.08289e-05
-9.42054e-06
-5.65814e-06
-7.62615e-06
-7.99453e-06
-9.9338e-06
-8.37017e-06
-5.45067e-06
-7.47643e-06
-8.87092e-06
-1.14882e-05
-8.18374e-06
-5.8483e-06
-4.01473e-06
-7.48053e-06
-9.28445e-06
-8.69908e-06
-2.00535e-06
-4.09999e-06
-5.83612e-06
-9.72957e-06
-6.79431e-06
-5.22816e-06
-3.40545e-06
-5.62136e-06
-6.45806e-06
-8.58339e-06
-3.28832e-06
-4.5592e-06
-7.99845e-06
-1.50186e-05
-1.09263e-05
-8.43339e-06
-6.27788e-06
-1.04196e-05
-1.23859e-05
-1.09457e-05
-7.50488e-06
-7.70452e-06
-7.36616e-06
-1.22825e-05
-1.01171e-05
-6.27779e-06
-8.11505e-06
-7.13575e-06
-1.08463e-05
-9.18996e-06
-6.3774e-06
-9.39986e-06
-1.04978e-05
-1.17207e-05
-8.66825e-06
-6.40504e-06
-4.16335e-06
-8.22594e-06
-9.42944e-06
-9.40377e-06
-3.07115e-06
-4.8691e-06
-6.34655e-06
-1.07981e-05
-7.05988e-06
-5.59067e-06
-4.201e-06
-6.173e-06
-7.08881e-06
-1.00228e-05
-4.96403e-06
-6.05734e-06
-9.20318e-06
-1.45912e-05
-1.16421e-05
-9.06066e-06
-6.97186e-06
-9.79421e-06
-1.27005e-05
-1.09427e-05
-7.48075e-06
-6.8555e-06
-8.3773e-06
-1.04705e-05
-9.58635e-06
-6.50187e-06
-8.33126e-06
-9.17288e-06
-1.05203e-05
-1.00338e-05
-7.19567e-06
-9.95903e-06
-1.07935e-05
-1.32822e-05
-1.03534e-05
-7.8059e-06
-6.19855e-06
-9.03682e-06
-9.20312e-06
-9.85364e-06
-4.39179e-06
-6.78221e-06
-7.3413e-06
-1.11704e-05
-7.53599e-06
-6.84401e-06
-4.27088e-06
-6.51848e-06
-7.34324e-06
-1.0355e-05
-6.92429e-06
-7.76307e-06
-9.74651e-06
-1.4454e-05
-1.21352e-05
-9.77712e-06
-7.24957e-06
-1.06551e-05
-1.15811e-05
-1.04966e-05
-7.25078e-06
-7.48966e-06
-7.13159e-06
-1.10032e-05
-1.00998e-05
-7.04971e-06
-8.21824e-06
-9.13136e-06
-1.11553e-05
-1.11001e-05
-9.07215e-06
-1.15925e-05
-1.22828e-05
-1.32099e-05
-1.08441e-05
-9.93545e-06
-8.11577e-06
-9.87212e-06
-9.65777e-06
-1.07917e-05
-6.67198e-06
-7.97568e-06
-9.00147e-06
-1.17933e-05
-8.85853e-06
-7.04358e-06
-5.76058e-06
-7.70678e-06
-8.56453e-06
-1.13539e-05
-9.31838e-06
-9.41183e-06
-1.06579e-05
-1.542e-05
-1.35016e-05
-1.12056e-05
-9.34172e-06
-1.1113e-05
-1.24446e-05
-1.13535e-05
-8.96923e-06
-8.90274e-06
-9.27494e-06
-1.07677e-05
-1.0582e-05
-7.50436e-06
-8.96594e-06
-1.00666e-05
-1.07565e-05
-1.13069e-05
-9.55067e-06
-1.20398e-05
-1.26473e-05
-1.38243e-05
-1.19328e-05
-1.06082e-05
-8.79405e-06
-1.01789e-05
-9.66706e-06
-1.09543e-05
-7.7404e-06
-8.91777e-06
-9.15145e-06
-1.14494e-05
-9.09935e-06
-8.31806e-06
-7.06697e-06
-8.63412e-06
-9.52582e-06
-1.21246e-05
-1.01815e-05
-1.01719e-05
-1.04472e-05
-1.41236e-05
-1.31662e-05
-1.18867e-05
-9.94816e-06
-1.10013e-05
-1.23922e-05
-1.18585e-05
-9.77833e-06
-9.70015e-06
-9.49132e-06
-1.06238e-05
-1.07801e-05
-8.57066e-06
-9.37907e-06
-8.88702e-06
-9.13782e-06
-9.7381e-06
-8.96062e-06
-1.09749e-05
-1.1487e-05
-1.20602e-05
-1.02242e-05
-9.42247e-06
-8.19276e-06
-8.84439e-06
-8.11378e-06
-9.29931e-06
-7.20142e-06
-7.85922e-06
-7.88718e-06
-9.45032e-06
-8.06137e-06
-7.1496e-06
-6.73262e-06
-8.1058e-06
-8.50381e-06
-1.03509e-05
-9.38484e-06
-9.34314e-06
-9.4398e-06
-1.18829e-05
-1.14921e-05
-1.04312e-05
-9.00266e-06
-9.46826e-06
-1.05877e-05
-1.04692e-05
-9.19452e-06
-8.80542e-06
-8.71504e-06
-9.16899e-06
-9.60473e-06
-7.98924e-06
-8.56461e-06
-7.24131e-06
-6.9229e-06
-7.58413e-06
-7.07354e-06
-8.90159e-06
-9.17721e-06
-9.50287e-06
-7.92432e-06
-7.63707e-06
-6.4822e-06
-7.00268e-06
-6.13479e-06
-7.05558e-06
-5.66677e-06
-6.06745e-06
-5.77386e-06
-6.87371e-06
-5.82715e-06
-5.702e-06
-5.56321e-06
-6.55463e-06
-6.63315e-06
-8.02278e-06
-7.45244e-06
-7.48236e-06
-7.25204e-06
-8.86717e-06
-8.79304e-06
-8.16256e-06
-7.19372e-06
-7.21142e-06
-8.06793e-06
-8.17606e-06
-7.19159e-06
-6.7692e-06
-6.79343e-06
-7.01917e-06
-7.38476e-06
-6.44864e-06
-6.60936e-06
-5.5006e-06
-4.98901e-06
-5.45135e-06
-5.18577e-06
-6.76321e-06
-6.86743e-06
-7.04084e-06
-5.58544e-06
-5.44958e-06
-4.74994e-06
-5.17121e-06
-4.41699e-06
-4.99454e-06
-4.05528e-06
-4.26096e-06
-3.97966e-06
-4.55626e-06
-4.07419e-06
-4.07276e-06
-4.10087e-06
-4.8713e-06
-4.73475e-06
-5.58087e-06
-5.44013e-06
-5.56991e-06
-5.46847e-06
-6.37557e-06
-6.39145e-06
-6.00863e-06
-5.34023e-06
-5.22292e-06
-5.59996e-06
-5.8335e-06
-5.25262e-06
-4.85764e-06
-4.89477e-06
-4.97216e-06
-5.19744e-06
-4.80291e-06
-4.93254e-06
-3.98019e-06
-3.4409e-06
-3.68694e-06
-3.54386e-06
-4.8781e-06
-4.86014e-06
-4.98188e-06
-3.75379e-06
-3.73297e-06
-3.35824e-06
-3.71757e-06
-3.06816e-06
-3.33738e-06
-2.66509e-06
-2.83715e-06
-2.59585e-06
-2.91123e-06
-2.60615e-06
-2.73621e-06
-2.85961e-06
-3.44001e-06
-3.23153e-06
-3.75239e-06
-3.74426e-06
-3.94523e-06
-3.87321e-06
-4.41247e-06
-4.42007e-06
-4.20515e-06
-3.76877e-06
-3.60392e-06
-3.686e-06
-3.9079e-06
-3.52018e-06
-3.29013e-06
-3.2291e-06
-3.34546e-06
-3.34955e-06
-3.39665e-06
-3.40138e-06
-2.79269e-06
-2.30769e-06
-2.38483e-06
-2.28559e-06
-3.34053e-06
-3.32564e-06
-3.41645e-06
-2.46314e-06
-2.45853e-06
-2.28914e-06
-2.54664e-06
-2.0531e-06
-2.09052e-06
-1.58961e-06
-1.72815e-06
-1.57503e-06
-1.70093e-06
-1.51098e-06
-1.70356e-06
-1.87843e-06
-2.31004e-06
-2.15564e-06
-2.3794e-06
-2.3926e-06
-2.60928e-06
-2.61653e-06
-2.98829e-06
-2.98623e-06
-2.89897e-06
-2.59333e-06
-2.41942e-06
-2.28486e-06
-2.42807e-06
-2.1683e-06
-2.07335e-06
-1.98222e-06
-2.13199e-06
-2.00066e-06
-2.23798e-06
-2.29256e-06
-1.92888e-06
-1.55665e-06
-1.51231e-06
-1.41039e-06
-2.22452e-06
-2.24772e-06
-2.34524e-06
-1.64202e-06
-1.61558e-06
-1.52721e-06
-1.71215e-06
-1.33605e-06
-1.29746e-06
-9.19301e-07
-1.00758e-06
-9.29192e-07
-9.45645e-07
-8.233e-07
-1.02303e-06
-1.19232e-06
-1.5596e-06
-1.4251e-06
-1.51962e-06
-1.47769e-06
-1.65886e-06
-1.71181e-06
-2.01119e-06
-2.00427e-06
-1.99592e-06
-1.73839e-06
-1.59909e-06
-1.36643e-06
-1.43925e-06
-1.25367e-06
-1.27135e-06
-1.18465e-06
-1.32623e-06
-1.13965e-06
-1.42901e-06
-1.51349e-06
-1.33684e-06
-1.09867e-06
-1.00825e-06
-9.21033e-07
-1.5062e-06
-1.55404e-06
-1.64484e-06
-1.1506e-06
-1.12543e-06
-1.05773e-06
-1.16768e-06
-8.96966e-07
-8.46291e-07
-5.53853e-07
-5.9035e-07
-5.4838e-07
-5.23939e-07
-4.27155e-07
-6.13154e-07
-7.67137e-07
-1.0698e-06
-9.69208e-07
-9.96295e-07
-9.02598e-07
-1.0525e-06
-1.1139e-06
-1.37493e-06
-1.37002e-06
-1.40163e-06
-1.19319e-06
-1.08923e-06
-8.29046e-07
-8.4563e-07
-7.0822e-07
-7.61467e-07
-7.02448e-07
-8.2709e-07
-6.65173e-07
-9.26281e-07
-1.01452e-06
-9.45159e-07
-8.09034e-07
-7.157e-07
-6.54597e-07
-1.04286e-06
-1.09354e-06
-1.18471e-06
-8.45017e-07
-8.17207e-07
-7.60194e-07
-8.38569e-07
-6.34094e-07
-5.93718e-07
-3.5936e-07
-3.55978e-07
-3.32588e-07
-2.98364e-07
-2.34701e-07
-4.05534e-07
-5.08058e-07
-7.65286e-07
-6.88113e-07
-6.81851e-07
-5.71524e-07
-6.76196e-07
-7.37232e-07
-9.53522e-07
-9.49552e-07
-9.99062e-07
-8.34036e-07
-7.75155e-07
-5.34482e-07
-5.05961e-07
-4.10698e-07
-4.37681e-07
-4.05328e-07
-5.32291e-07
-4.02888e-07
-6.2373e-07
-6.97121e-07
-6.82873e-07
-6.20023e-07
-5.4456e-07
-5.26602e-07
-7.65962e-07
-8.02958e-07
-8.7378e-07
-6.45188e-07
-6.30921e-07
-5.76228e-07
-6.3748e-07
-4.7609e-07
-4.5359e-07
-2.7304e-07
-2.27788e-07
-2.16165e-07
-1.82607e-07
-1.31817e-07
-2.87558e-07
-3.50664e-07
-5.59602e-07
-5.03022e-07
-4.88755e-07
-3.93605e-07
-4.53906e-07
-4.94793e-07
-6.643e-07
-6.53499e-07
-7.08943e-07
-5.90565e-07
-5.62252e-07
-3.80834e-07
-3.05736e-07
-2.42201e-07
-2.50249e-07
-2.39092e-07
-3.62801e-07
-2.56545e-07
-4.55842e-07
-4.99346e-07
-5.08532e-07
-5.01828e-07
-4.3688e-07
-4.53885e-07
-5.9101e-07
-6.09892e-07
-6.55038e-07
-5.0557e-07
-5.02449e-07
-4.58105e-07
-5.16626e-07
-3.76221e-07
-3.68116e-07
-2.36288e-07
-1.63121e-07
-1.67256e-07
-1.19338e-07
-7.22794e-08
-2.17932e-07
-2.46877e-07
-4.192e-07
-3.81061e-07
-3.64129e-07
-2.92393e-07
-3.21126e-07
-3.44464e-07
-4.71819e-07
-4.60298e-07
-5.14373e-07
-4.27308e-07
-4.16474e-07
-2.90537e-07
-1.90532e-07
-1.63957e-07
-1.47583e-07
-1.47109e-07
-2.77643e-07
-1.72976e-07
-3.55331e-07
-3.75903e-07
-3.9846e-07
-4.26156e-07
-3.68324e-07
-4.12682e-07
-4.76115e-07
-4.85947e-07
-5.03913e-07
-4.06892e-07
-4.14234e-07
-3.84558e-07
-4.46669e-07
-3.18004e-07
-3.14297e-07
-2.28985e-07
-1.30659e-07
-1.40772e-07
-8.14322e-08
-3.70636e-08
-1.79125e-07
-1.77308e-07
-3.19944e-07
-2.98949e-07
-2.8175e-07
-2.39582e-07
-2.41132e-07
-2.45488e-07
-3.36977e-07
-3.18969e-07
-3.82196e-07
-3.17792e-07
-3.12001e-07
-2.4218e-07
-1.23095e-07
-1.24396e-07
-9.05079e-08
-8.74239e-08
-2.26781e-07
-1.2561e-07
-3.07332e-07
-3.08591e-07
-3.30724e-07
-3.80283e-07
-3.2242e-07
-3.82636e-07
-3.96371e-07
-4.08869e-07
-4.07339e-07
-3.53344e-07
-3.57252e-07
-3.31235e-07
-3.94214e-07
-2.77852e-07
-2.74478e-07
-2.19325e-07
-1.0826e-07
-1.3531e-07
-7.27353e-08
-1.60479e-08
-1.53968e-07
-1.24697e-07
-2.43497e-07
-2.3875e-07
-2.27721e-07
-2.1224e-07
-1.96733e-07
-1.88606e-07
-2.52687e-07
-2.2136e-07
-2.85014e-07
-2.40328e-07
-2.35035e-07
-2.15736e-07
-9.28954e-08
-1.2506e-07
-7.69076e-08
-5.69518e-08
-1.99935e-07
-9.83042e-08
-2.71879e-07
-2.65573e-07
-2.84821e-07
-3.39413e-07
-2.91096e-07
-3.55931e-07
-3.43376e-07
-3.62738e-07
-3.41136e-07
-3.21337e-07
-3.11586e-07
-2.8965e-07
-3.52595e-07
-2.45691e-07
-2.45971e-07
-2.18067e-07
-1.00315e-07
-1.38787e-07
-8.17679e-08
-1.16257e-08
-1.403e-07
-8.77529e-08
-1.85326e-07
-1.93963e-07
-1.8209e-07
-1.89235e-07
-1.67658e-07
-1.53153e-07
-2.0151e-07
-1.57178e-07
-2.1796e-07
-1.90187e-07
-1.7957e-07
-2.0606e-07
-8.29911e-08
-1.41144e-07
-9.13699e-08
-4.97498e-08
-1.8584e-07
-7.95742e-08
-2.40577e-07
-2.3542e-07
-2.55723e-07
-3.0174e-07
-2.67016e-07
-3.26126e-07
-3.06565e-07
-3.34294e-07
-2.96911e-07
-3.06049e-07
-2.80008e-07
-2.56606e-07
-3.1481e-07
-2.21212e-07
-2.27792e-07
-2.16762e-07
-9.66107e-08
-1.37035e-07
-9.08915e-08
-1.26107e-08
-1.33693e-07
-7.48828e-08
-1.4641e-07
-1.6453e-07
-1.45384e-07
-1.65054e-07
-1.44922e-07
-1.25497e-07
-1.73328e-07
-1.21408e-07
-1.77657e-07
-1.60731e-07
-1.39879e-07
-2.01199e-07
-8.2401e-08
-1.56669e-07
-1.13274e-07
-5.98586e-08
-1.80367e-07
-7.75919e-08
-2.17893e-07
-2.16412e-07
-2.32001e-07
-2.63726e-07
-2.60197e-07
-2.93486e-07
-2.82654e-07
-3.14226e-07
-2.60962e-07
-2.97413e-07
-2.5439e-07
-2.40562e-07
-2.86583e-07
-2.02705e-07
-2.10125e-07
-2.08439e-07
-1.02865e-07
-1.39704e-07
-1.10158e-07
-2.93551e-08
-1.3085e-07
-7.55248e-08
-1.16646e-07
-1.39588e-07
-1.10995e-07
-1.34347e-07
-1.22712e-07
-1.03038e-07
-1.58172e-07
-1.00081e-07
-1.52176e-07
-1.41875e-07
-1.11594e-07
-1.9158e-07
-8.44933e-08
-1.63502e-07
-1.3483e-07
-8.02279e-08
-1.81467e-07
-9.33195e-08
-1.96036e-07
-1.97261e-07
-2.20741e-07
-2.24605e-07
-2.63494e-07
-2.56347e-07
-2.65004e-07
-2.91365e-07
-2.26417e-07
-2.90178e-07
-2.28733e-07
-2.33948e-07
-2.63534e-07
-1.9307e-07
-1.99206e-07
-1.96142e-07
-1.16386e-07
-1.37993e-07
-1.24792e-07