/*--------------------------------*- C++ -*----------------------------------*\
  =========                 |
  \\      /  F ield         | OpenFOAM: The Open Source CFD Toolbox
   \\    /   O peration     | Website:  https://openfoam.org
    \\  /    A nd           | Version:  10
     \\/     M anipulation  |
\*---------------------------------------------------------------------------*/
FoamFile
{
    format      ascii;
    class       volVectorField;
    location    "50";
    object      UMean;
}
// * * * * * * * * * * * * * * * * * * * * * * * * * * * * * * * * * * * * * //

dimensions      [0 1 -1 0 0 0 0];

internalField   nonuniform List<vector> 
25600
(
(0.0841879 5.96211e-05 0.00153166)
(0.0838106 6.47706e-05 0.00175392)
(0.0834968 6.08242e-05 0.00190914)
(0.0832772 4.60913e-05 0.0018952)
(0.083488 3.94663e-05 0.00174347)
(0.0836294 3.80661e-05 0.00180696)
(0.0841115 4.82242e-05 0.00181115)
(0.0841772 5.32419e-05 0.00172912)
(0.0844785 4.91646e-05 0.00150314)
(0.0843901 5.09302e-05 0.0012734)
(0.0844721 5.94101e-05 0.00102361)
(0.0846566 5.26392e-05 0.000974187)
(0.0856362 3.37016e-05 0.00110903)
(0.0862889 1.11838e-05 0.00142711)
(0.0882726 1.04453e-05 0.00175517)
(0.0893059 2.34934e-05 0.00200342)
(0.090651 3.16954e-05 0.00206976)
(0.0908386 2.04368e-05 0.00208423)
(0.0920713 -5.10058e-06 0.00192872)
(0.0926498 -1.26384e-05 0.00193338)
(0.0939065 7.09712e-07 0.00202192)
(0.0938727 1.25988e-05 0.00227853)
(0.0947904 2.56181e-06 0.00240954)
(0.0949078 -1.74696e-05 0.00235536)
(0.0953761 -1.78297e-05 0.00209445)
(0.0952852 1.45828e-05 0.00215869)
(0.0948815 3.47616e-05 0.00233147)
(0.0939448 3.26086e-05 0.00244516)
(0.0934986 2.43916e-05 0.00251661)
(0.0922988 3.87684e-05 0.00252574)
(0.0918237 5.90812e-05 0.00234534)
(0.090164 7.3464e-05 0.00235417)
(0.0898582 7.82136e-05 0.00211987)
(0.0881612 7.08988e-05 0.00196633)
(0.087956 6.66381e-05 0.00180861)
(0.0864783 7.02527e-05 0.0017955)
(0.086186 7.5411e-05 0.00169688)
(0.0849664 6.67061e-05 0.00159981)
(0.0849761 4.41025e-05 0.00129548)
(0.0842815 3.85816e-05 0.00136777)
(0.248503 0.000468928 0.00318082)
(0.247635 0.00049648 0.00350808)
(0.247001 0.000491143 0.0037907)
(0.246485 0.000445979 0.00398824)
(0.246682 0.000399533 0.00375434)
(0.246578 0.00033604 0.00386544)
(0.247985 0.00034875 0.00363988)
(0.248014 0.000408824 0.00324115)
(0.249098 0.000416125 0.00265666)
(0.248517 0.000410228 0.00243833)
(0.249221 0.000392669 0.00208096)
(0.250119 0.000312481 0.0021797)
(0.253367 0.000241286 0.00261841)
(0.255112 0.000144807 0.00351189)
(0.259738 4.94532e-05 0.0044591)
(0.262502 2.87749e-05 0.00531091)
(0.26696 4.11577e-05 0.00546495)
(0.268113 5.26779e-05 0.00556553)
(0.271593 -2.79784e-05 0.00531878)
(0.272895 -8.52287e-05 0.00539754)
(0.276443 -8.9889e-05 0.00538889)
(0.276892 -3.84369e-05 0.00580203)
(0.279834 -2.43339e-05 0.00581805)
(0.280011 1.38674e-05 0.00588816)
(0.281096 2.8875e-05 0.00548441)
(0.280582 0.00010448 0.00540319)
(0.28026 0.000212159 0.00535045)
(0.277611 0.000273911 0.0054552)
(0.276286 0.000338813 0.00550882)
(0.272506 0.000399329 0.00569842)
(0.27138 0.000484657 0.00537934)
(0.266946 0.000528966 0.00535082)
(0.266512 0.000561519 0.0050199)
(0.261518 0.000584955 0.00495324)
(0.26048 0.000563175 0.00465518)
(0.255866 0.00054846 0.00471348)
(0.255088 0.000555913 0.00436821)
(0.251742 0.000572611 0.00406456)
(0.251566 0.000537878 0.00319545)
(0.24885 0.000488404 0.0030998)
(0.405733 0.00119373 0.00362987)
(0.403942 0.00117894 0.00403975)
(0.403907 0.00113763 0.00410181)
(0.402182 0.00107697 0.00430055)
(0.402279 0.0010192 0.00391594)
(0.400638 0.000862465 0.00393617)
(0.401803 0.000812294 0.00332396)
(0.401416 0.000868062 0.00254645)
(0.403983 0.000883207 0.00149372)
(0.402842 0.000897085 0.00154592)
(0.404684 0.000852624 0.00182017)
(0.405916 0.000650309 0.00273918)
(0.411323 0.000479208 0.0034659)
(0.414068 0.000307197 0.00443869)
(0.419855 0.000101855 0.00537057)
(0.42309 3.6742e-05 0.00663311)
(0.429207 -5.98885e-06 0.0069602)
(0.43125 1.25826e-05 0.00723805)
(0.436961 -8.50274e-05 0.0069432)
(0.438494 -0.000139334 0.00696917)
(0.444093 -0.000132617 0.0068625)
(0.44405 -3.45857e-05 0.00738545)
(0.449417 2.95895e-06 0.00725451)
(0.449591 0.000138296 0.00750317)
(0.452019 0.000217395 0.00718297)
(0.449864 0.000361365 0.00705852)
(0.451307 0.000554962 0.00676016)
(0.44721 0.000714205 0.00683912)
(0.446192 0.000868921 0.00646278)
(0.440765 0.00103711 0.00661285)
(0.438875 0.00119284 0.00632947)
(0.433021 0.00124484 0.00655927)
(0.432531 0.00130321 0.00645006)
(0.426068 0.00140279 0.00679991)
(0.423866 0.00140883 0.00628714)
(0.416803 0.00136104 0.00644633)
(0.415194 0.00131924 0.00583836)
(0.409731 0.00131851 0.0055893)
(0.410335 0.00127311 0.00419617)
(0.406359 0.00126358 0.00383542)
(0.540621 0.00195696 0.00335785)
(0.537547 0.00188216 0.00396374)
(0.538256 0.00181588 0.00386648)
(0.534293 0.00181387 0.00398629)
(0.535024 0.00175518 0.0034452)
(0.53132 0.00155004 0.00320892)
(0.531618 0.00141444 0.00239415)
(0.529633 0.00139811 0.00163206)
(0.534138 0.00133948 0.000416038)
(0.533115 0.00134943 0.000780567)
(0.536744 0.00120156 0.00182622)
(0.53818 0.000901291 0.00333928)
(0.544428 0.000614954 0.003831)
(0.547297 0.000478252 0.00428342)
(0.552575 0.000266612 0.00445987)
(0.554584 0.000203537 0.00565902)
(0.560087 0.000133915 0.00616915)
(0.562048 0.00011829 0.00679428)
(0.568279 -5.18157e-06 0.00647298)
(0.569891 -2.9328e-07 0.00635177)
(0.574943 3.76775e-05 0.00614777)
(0.574869 0.00019377 0.00699473)
(0.580358 0.000222473 0.00707665)
(0.581264 0.000511067 0.0076113)
(0.583813 0.000729471 0.00769971)
(0.581763 0.000908925 0.00785964)
(0.584573 0.00114571 0.00722767)
(0.581677 0.00138325 0.00714068)
(0.582105 0.00157716 0.00635323)
(0.576027 0.00182692 0.00635139)
(0.574505 0.00202084 0.00607675)
(0.567919 0.00203763 0.00655415)
(0.568125 0.00204365 0.00684024)
(0.562423 0.00219345 0.00774554)
(0.56118 0.00226749 0.0073076)
(0.553283 0.00226349 0.00727489)
(0.550846 0.00217731 0.00643021)
(0.544133 0.00211314 0.00599599)
(0.544865 0.00204534 0.00450193)
(0.540195 0.0020936 0.00367038)
(0.644989 0.00259822 0.00358341)
(0.64107 0.00252357 0.00428445)
(0.641524 0.00247967 0.00423502)
(0.636346 0.00253931 0.00431507)
(0.637918 0.00242707 0.00409647)
(0.634105 0.00229112 0.00407307)
(0.634248 0.00209879 0.00347059)
(0.63099 0.001904 0.0030359)
(0.636429 0.00173622 0.00212293)
(0.636752 0.00175585 0.00238501)
(0.642622 0.00148111 0.0032877)
(0.64279 0.00104535 0.00449348)
(0.649118 0.000624347 0.00454656)
(0.649662 0.000559345 0.00461129)
(0.655149 0.000438261 0.00422512)
(0.654321 0.000398554 0.00474114)
(0.66012 0.000259314 0.00539179)
(0.660975 0.000268685 0.00618264)
(0.666626 0.000197843 0.00575373)
(0.666297 0.000360768 0.00519796)
(0.670976 0.000490024 0.00485903)
(0.668418 0.000688946 0.00576709)
(0.674299 0.000715563 0.00616013)
(0.672936 0.00114051 0.00698911)
(0.676717 0.00149268 0.00731737)
(0.673953 0.0016918 0.00768285)
(0.679107 0.00188946 0.0073784)
(0.677198 0.00214997 0.00713317)
(0.679901 0.00237059 0.00639555)
(0.673502 0.00260625 0.00651252)
(0.674161 0.00268112 0.00639305)
(0.667797 0.00265983 0.00703416)
(0.668889 0.00253841 0.00738868)
(0.664292 0.00274809 0.0087442)
(0.664615 0.00287493 0.00862699)
(0.658318 0.00304878 0.00867804)
(0.656034 0.00291683 0.00779676)
(0.649396 0.00280266 0.00729016)
(0.649828 0.00266342 0.0058298)
(0.644924 0.00276975 0.00425405)
(0.724626 0.00319881 0.00633491)
(0.719996 0.00310208 0.00696167)
(0.719409 0.00304511 0.0065229)
(0.714817 0.0030761 0.00662181)
(0.71617 0.00292497 0.00702245)
(0.713902 0.00283029 0.00780275)
(0.714794 0.00266637 0.00755073)
(0.711338 0.00235508 0.00725935)
(0.71625 0.00200992 0.00621787)
(0.717115 0.00199722 0.00556056)
(0.723355 0.00172428 0.0056385)
(0.723022 0.00130473 0.00625234)
(0.726841 0.000780746 0.00602549)
(0.726086 0.000675987 0.00600861)
(0.730269 0.000564202 0.00549443)
(0.729516 0.00056613 0.00562381)
(0.734532 0.000381748 0.00606489)
(0.734585 0.000435116 0.00658856)
(0.739924 0.000461404 0.00614875)
(0.738005 0.000776844 0.00520404)
(0.742295 0.00102731 0.00466928)
(0.739103 0.00130614 0.00499074)
(0.742987 0.00132263 0.00534657)
(0.740655 0.00190646 0.00604402)
(0.744121 0.00233024 0.00637495)
(0.741483 0.00252627 0.00705423)
(0.745968 0.00260136 0.00733932)
(0.744819 0.00281869 0.00737695)
(0.747339 0.00303173 0.0069356)
(0.743039 0.00317591 0.00749798)
(0.743123 0.00313048 0.00735203)
(0.738842 0.00302517 0.00815513)
(0.740524 0.00275881 0.00830087)
(0.737725 0.00297364 0.00940269)
(0.739502 0.00311591 0.00921392)
(0.736416 0.00344429 0.00969707)
(0.735627 0.00341112 0.00934787)
(0.730595 0.00332226 0.00961286)
(0.730225 0.00310233 0.00864911)
(0.725846 0.0032838 0.00742625)
(0.786566 0.00334334 0.0086846)
(0.782764 0.00333324 0.00896662)
(0.782184 0.00322848 0.00803171)
(0.778006 0.00323139 0.0076861)
(0.778538 0.00296769 0.00854253)
(0.776793 0.00300438 0.0103106)
(0.778056 0.00300881 0.010902)
(0.775144 0.00281235 0.0109376)
(0.777369 0.00238799 0.00944802)
(0.7772 0.00230646 0.00790901)
(0.780981 0.00205229 0.00718263)
(0.780064 0.00174721 0.00754768)
(0.78325 0.00125978 0.00741357)
(0.782825 0.00114748 0.00741076)
(0.786263 0.00110972 0.00709548)
(0.785764 0.00105101 0.00721175)
(0.79057 0.000892055 0.00735935)
(0.78943 0.000958876 0.00769664)
(0.794021 0.00113248 0.00708426)
(0.791255 0.00141351 0.00638519)
(0.795391 0.0016496 0.00605443)
(0.792231 0.00188444 0.00634303)
(0.796608 0.00187817 0.00642827)
(0.793144 0.00246043 0.00691239)
(0.797251 0.00295295 0.00686901)
(0.79283 0.00315918 0.00719162)
(0.797302 0.00315642 0.00741224)
(0.793329 0.0033087 0.0075568)
(0.796484 0.00344175 0.0077001)
(0.791919 0.00354713 0.00841678)
(0.793783 0.00343333 0.00863716)
(0.789768 0.00328323 0.00911792)
(0.792169 0.00302428 0.00927606)
(0.789401 0.00313387 0.00922794)
(0.79326 0.00313932 0.00872444)
(0.79073 0.00339019 0.00873415)
(0.792505 0.00332978 0.00909332)
(0.789794 0.00331216 0.0098108)
(0.790247 0.00308693 0.00964552)
(0.786509 0.00335323 0.00925468)
(0.834235 0.0031964 0.00862381)
(0.832678 0.00317906 0.00924998)
(0.833083 0.00309146 0.00861075)
(0.830162 0.00319062 0.00797657)
(0.828306 0.00292435 0.00799315)
(0.825125 0.00298147 0.00893424)
(0.826032 0.00308686 0.00944228)
(0.823021 0.00306146 0.00964001)
(0.823859 0.00272609 0.00857477)
(0.822117 0.00267074 0.00688762)
(0.825173 0.00255704 0.0059257)
(0.823569 0.00234745 0.00648312)
(0.827154 0.00188452 0.00638843)
(0.825815 0.0017708 0.00673047)
(0.829324 0.00175149 0.00651734)
(0.827904 0.0016469 0.00691273)
(0.831688 0.00154381 0.00692606)
(0.829366 0.00158862 0.00763524)
(0.83361 0.00180967 0.00753584)
(0.830548 0.00216726 0.00745386)
(0.832972 0.00232879 0.00739654)
(0.830072 0.00241133 0.00783584)
(0.834006 0.0023972 0.00816127)
(0.8322 0.00294095 0.00828611)
(0.836023 0.00353487 0.00790148)
(0.831947 0.00382236 0.00784358)
(0.835259 0.00378873 0.00773363)
(0.831991 0.0039738 0.00789005)
(0.833716 0.00398732 0.00798616)
(0.830885 0.00403881 0.00847529)
(0.832793 0.00381951 0.00811296)
(0.831448 0.0036383 0.00807671)
(0.833279 0.00339045 0.00803859)
(0.832426 0.00338437 0.00766456)
(0.834314 0.00325287 0.0069118)
(0.834064 0.0033424 0.00702657)
(0.83564 0.00319862 0.00722454)
(0.834976 0.00322436 0.00818013)
(0.83607 0.00300823 0.00844482)
(0.833995 0.00325742 0.00856535)
(0.872442 0.00334975 0.00720594)
(0.870518 0.00320661 0.00794861)
(0.871911 0.00299255 0.00784495)
(0.869064 0.00310016 0.0071847)
(0.867684 0.00294221 0.00650978)
(0.862856 0.00287679 0.00618162)
(0.86366 0.00292908 0.00604815)
(0.860049 0.00314433 0.00625856)
(0.861088 0.00300778 0.00569106)
(0.858553 0.00290827 0.00443645)
(0.861536 0.00279901 0.00337218)
(0.859356 0.00267599 0.00347201)
(0.862387 0.00232352 0.00384972)
(0.859892 0.00230908 0.00423793)
(0.862726 0.00244396 0.00467514)
(0.859259 0.00256075 0.00534667)
(0.861978 0.00261425 0.00566124)
(0.859635 0.00259884 0.00629208)
(0.862917 0.00264966 0.00641783)
(0.860921 0.00301475 0.00654032)
(0.863253 0.00319603 0.00652278)
(0.860931 0.00329537 0.0067357)
(0.862504 0.00318726 0.00692269)
(0.861389 0.00365291 0.00707781)
(0.864609 0.00423481 0.00661159)
(0.863354 0.00449523 0.00678657)
(0.865648 0.00426835 0.00689288)
(0.865013 0.0043889 0.00702271)
(0.866959 0.00430791 0.00682894)
(0.865164 0.00431272 0.00657108)
(0.866946 0.00396124 0.00567531)
(0.86698 0.003788 0.00516634)
(0.869163 0.00349341 0.0052398)
(0.868728 0.00348971 0.00529419)
(0.870664 0.00339862 0.0050615)
(0.870586 0.00348211 0.00534587)
(0.871501 0.00330307 0.00533475)
(0.871094 0.00332641 0.00586274)
(0.872739 0.00313647 0.00639601)
(0.870927 0.00340846 0.00679256)
(0.898018 0.00281768 0.00482797)
(0.895799 0.00270138 0.00507541)
(0.896952 0.00241924 0.00518308)
(0.894083 0.00266453 0.00446152)
(0.89394 0.00264035 0.0035342)
(0.889077 0.00256924 0.00308703)
(0.889422 0.00261412 0.00321417)
(0.886511 0.00297779 0.00372256)
(0.888442 0.00304656 0.00375152)
(0.886758 0.00308054 0.00274978)
(0.889345 0.00294703 0.00153284)
(0.887074 0.00280393 0.000947297)
(0.888721 0.00256143 0.000873291)
(0.885644 0.00255827 0.000790501)
(0.887717 0.00277586 0.000981287)
(0.884168 0.00300622 0.00178925)
(0.885555 0.0030104 0.00260538)
(0.883714 0.00297533 0.00340301)
(0.886196 0.00289638 0.0036743)
(0.884911 0.00313792 0.00369333)
(0.888023 0.00326305 0.00379183)
(0.886865 0.00360959 0.00414795)
(0.887653 0.00365429 0.00420857)
(0.88573 0.00390846 0.00436269)
(0.887308 0.00418596 0.00382395)
(0.887236 0.00426733 0.0039192)
(0.8897 0.00396067 0.00427864)
(0.890475 0.00405864 0.00464151)
(0.893729 0.00407039 0.00474038)
(0.8925 0.00405866 0.00495185)
(0.893763 0.00362641 0.00487961)
(0.893342 0.00348943 0.00488921)
(0.895551 0.0033111 0.00526737)
(0.894475 0.00335074 0.00583059)
(0.896453 0.003204 0.00593446)
(0.89618 0.00326408 0.0061511)
(0.897562 0.00298104 0.00591677)
(0.896341 0.0028683 0.00545248)
(0.898145 0.00265479 0.00520269)
(0.896089 0.00288688 0.00493848)
(0.916336 0.00234599 0.00202854)
(0.914996 0.0022437 0.00173527)
(0.915117 0.00199689 0.00183515)
(0.912693 0.0023633 0.00163304)
(0.912312 0.00260875 0.00123944)
(0.908706 0.00264447 0.0012272)
(0.907885 0.00258759 0.00158511)
(0.904845 0.00286038 0.00200631)
(0.905492 0.0028654 0.00244835)
(0.904868 0.00294053 0.00190224)
(0.907479 0.00284462 0.00103255)
(0.907111 0.00290778 0.000675431)
(0.908807 0.00284413 0.000651292)
(0.907032 0.00281057 0.000191417)
(0.908214 0.00283427 -0.000576619)
(0.906166 0.00307696 -0.000516952)
(0.905874 0.00297068 0.000220588)
(0.90403 0.00283817 0.00122687)
(0.905125 0.00262138 0.00163923)
(0.904302 0.00274717 0.00155442)
(0.906523 0.0027213 0.00144944)
(0.906703 0.00319636 0.00181261)
(0.908106 0.0034361 0.00219609)
(0.907543 0.00365941 0.00262276)
(0.908228 0.00374381 0.00250693)
(0.906389 0.00370177 0.00229082)
(0.907147 0.00337886 0.0024839)
(0.907326 0.00351535 0.00283627)
(0.910314 0.0036273 0.00295364)
(0.91068 0.00374689 0.00342253)
(0.911991 0.00336153 0.00355493)
(0.912116 0.00318297 0.00343181)
(0.914392 0.00302173 0.00361636)
(0.913988 0.00312928 0.00419842)
(0.91556 0.00295959 0.00427935)
(0.915466 0.00301707 0.00431736)
(0.91684 0.00281554 0.00424567)
(0.915412 0.00271103 0.0037831)
(0.916455 0.00244229 0.00328215)
(0.914938 0.00251379 0.00263322)
(0.932182 0.00252314 0.000219981)
(0.931681 0.00253889 -6.62314e-05)
(0.93194 0.0023783 -0.00026075)
(0.930528 0.00272122 -0.000128819)
(0.930497 0.00306972 0.000117446)
(0.928287 0.00324387 0.000773783)
(0.927272 0.00316906 0.00136919)
(0.924112 0.00322651 0.00146634)
(0.922298 0.00296411 0.00162974)
(0.919847 0.00270345 0.00147483)
(0.92074 0.00233236 0.000698661)
(0.920626 0.00228508 0.000177873)
(0.922379 0.00234685 3.62049e-05)
(0.922312 0.00250535 1.08239e-05)
(0.923337 0.00249607 -0.000277825)
(0.922819 0.00272526 -0.000570558)
(0.922772 0.00275193 -0.000369041)
(0.921407 0.00277703 0.000456966)
(0.921662 0.00260012 0.00110344)
(0.921072 0.00264356 0.00121228)
(0.922118 0.0024642 0.00093247)
(0.922413 0.00274087 0.000912198)
(0.924143 0.00295369 0.00125349)
(0.924837 0.00324007 0.00180377)
(0.92653 0.00336267 0.00194763)
(0.926045 0.00350288 0.00179115)
(0.925978 0.00318623 0.00155412)
(0.925361 0.00327678 0.00142996)
(0.926479 0.00336609 0.00106075)
(0.926684 0.00370501 0.00107796)
(0.9272 0.00361129 0.000664597)
(0.926723 0.00344935 -0.000113249)
(0.927892 0.00315905 -0.000799972)
(0.927527 0.00313303 -0.000648473)
(0.928456 0.00284616 -0.000368298)
(0.928917 0.00283941 0.000130538)
(0.930519 0.00274083 0.000485525)
(0.930277 0.0028891 0.00068338)
(0.931395 0.00271325 0.00055757)
(0.931115 0.00269477 0.000439949)
(0.941707 0.00261261 -0.00259736)
(0.941885 0.00275374 -0.00254233)
(0.943065 0.00259874 -0.00268861)
(0.942965 0.00276818 -0.00266815)
(0.944001 0.00292379 -0.00245377)
(0.943533 0.0031282 -0.00154428)
(0.943787 0.00315395 -0.000484161)
(0.94261 0.00329984 7.01815e-05)
(0.941904 0.00299383 0.00037127)
(0.939568 0.00265036 0.000649144)
(0.938655 0.00205113 0.000478875)
(0.936952 0.00178591 -1.642e-05)
(0.936659 0.00165532 -0.000736424)
(0.936367 0.00197652 -0.00112447)
(0.937197 0.00209319 -0.00123209)
(0.937273 0.00238822 -0.00137591)
(0.937789 0.00247728 -0.00173842)
(0.937134 0.00266541 -0.00164193)
(0.937127 0.00257477 -0.00111888)
(0.936046 0.00274893 -0.000629138)
(0.935726 0.00256455 -0.000772508)
(0.934654 0.00265378 -0.00129224)
(0.935066 0.00268414 -0.0016618)
(0.93553 0.00290121 -0.0014347)
(0.937346 0.00294761 -0.00137729)
(0.938492 0.00306969 -0.00134406)
(0.939541 0.00283676 -0.00153729)
(0.939938 0.00286542 -0.00150797)
(0.941006 0.00284517 -0.00151078)
(0.941218 0.00315632 -0.00133699)
(0.941702 0.0033247 -0.00167796)
(0.941054 0.00352282 -0.00244241)
(0.940979 0.00344621 -0.00332308)
(0.939656 0.00344255 -0.00383253)
(0.939208 0.00306223 -0.00408905)
(0.938616 0.00279927 -0.00376631)
(0.939184 0.00248392 -0.00328888)
(0.939161 0.00261265 -0.00277196)
(0.940445 0.00256625 -0.00261535)
(0.940637 0.00264844 -0.00256472)
(0.949021 0.00190935 -0.00528076)
(0.949032 0.00207371 -0.00520007)
(0.950096 0.00203636 -0.00498461)
(0.950685 0.00219506 -0.00480401)
(0.951917 0.00228675 -0.00491993)
(0.952465 0.00248857 -0.00476304)
(0.953523 0.0026513 -0.00419528)
(0.954125 0.00305463 -0.00348204)
(0.955445 0.0029849 -0.00288523)
(0.955935 0.00284475 -0.00227827)
(0.95614 0.00234066 -0.00180761)
(0.955254 0.00205068 -0.00125206)
(0.954204 0.00172915 -0.00128839)
(0.953253 0.00175741 -0.0015915)
(0.953458 0.00174653 -0.00205065)
(0.953611 0.00204466 -0.00246281)
(0.954063 0.0021524 -0.00336599)
(0.953794 0.00236437 -0.00425457)
(0.953697 0.00231149 -0.00501346)
(0.952263 0.0025776 -0.00518014)
(0.951194 0.00260688 -0.00490751)
(0.949451 0.00266509 -0.0047682)
(0.948344 0.00253073 -0.00501109)
(0.947217 0.00265225 -0.00493541)
(0.947119 0.00264702 -0.00486052)
(0.947053 0.00270856 -0.00476308)
(0.94757 0.00258781 -0.00509412)
(0.947558 0.0027853 -0.0053446)
(0.948288 0.00283615 -0.00514739)
(0.948668 0.00297866 -0.00445111)
(0.949734 0.00292411 -0.00407563)
(0.950036 0.00303769 -0.00421372)
(0.950735 0.00304236 -0.00458531)
(0.950104 0.00322407 -0.00486729)
(0.949692 0.00299279 -0.00523942)
(0.948938 0.00269924 -0.00528874)
(0.948719 0.00215982 -0.00520753)
(0.948041 0.00203921 -0.00505618)
(0.948736 0.00184507 -0.00512409)
(0.948657 0.00191262 -0.00520753)
(0.95907 0.00211375 -0.00633371)
(0.959022 0.00207518 -0.00662989)
(0.959435 0.00176172 -0.00656005)
(0.959552 0.00163991 -0.00643906)
(0.959946 0.00142182 -0.00664075)
(0.960145 0.00143753 -0.00717412)
(0.960844 0.0015328 -0.0074122)
(0.961192 0.00193335 -0.00736287)
(0.962149 0.00201483 -0.00700285)
(0.963177 0.00212469 -0.00649126)
(0.964299 0.0019714 -0.00582288)
(0.964648 0.00194346 -0.00499094)
(0.964885 0.00180256 -0.00426525)
(0.964723 0.00175697 -0.00384889)
(0.964985 0.00159972 -0.00370507)
(0.965233 0.00176754 -0.00390559)
(0.965649 0.00191893 -0.00442478)
(0.965187 0.00221647 -0.00508747)
(0.964876 0.00222626 -0.00584248)
(0.963556 0.00253486 -0.0066031)
(0.962907 0.00273329 -0.0066122)
(0.96191 0.00292655 -0.00647108)
(0.961144 0.00285623 -0.00641322)
(0.960115 0.00297457 -0.00625329)
(0.959566 0.0030125 -0.00578085)
(0.958383 0.00298857 -0.00537506)
(0.95754 0.00282551 -0.0053401)
(0.956408 0.00304893 -0.0057923)
(0.956002 0.00311606 -0.00603122)
(0.955537 0.00319419 -0.00583906)
(0.956178 0.00304154 -0.00528634)
(0.956466 0.0030166 -0.00491808)
(0.957085 0.00293942 -0.00487449)
(0.956882 0.00312548 -0.00508027)
(0.956883 0.00306413 -0.00530667)
(0.957101 0.0029368 -0.00541557)
(0.957532 0.00260353 -0.00540544)
(0.957321 0.00256172 -0.00543309)
(0.958146 0.00229107 -0.00565153)
(0.958513 0.00220776 -0.00603402)
(0.965493 0.0023537 -0.00460606)
(0.965986 0.0023241 -0.00526284)
(0.966211 0.00201824 -0.00552938)
(0.965725 0.00178326 -0.00557631)
(0.965442 0.00136136 -0.00567654)
(0.964937 0.00111513 -0.00631606)
(0.965117 0.00104362 -0.00692118)
(0.964846 0.00129169 -0.00730814)
(0.965063 0.0012939 -0.00732204)
(0.965245 0.00139019 -0.00726246)
(0.965927 0.00147514 -0.00694096)
(0.966451 0.00174919 -0.00650737)
(0.96734 0.00192276 -0.00590576)
(0.968111 0.00207655 -0.00529734)
(0.968834 0.00205658 -0.00460891)
(0.96925 0.00217579 -0.00420871)
(0.969688 0.00234059 -0.00404877)
(0.969399 0.00267775 -0.00415694)
(0.969213 0.00280067 -0.00432041)
(0.968321 0.00307186 -0.0047623)
(0.967643 0.00319857 -0.00490915)
(0.967024 0.00332863 -0.0050901)
(0.966731 0.00326105 -0.00527702)
(0.96643 0.00328795 -0.005352)
(0.966716 0.00332425 -0.00497268)
(0.966626 0.00332917 -0.00450751)
(0.966316 0.00316036 -0.00412883)
(0.965557 0.00330791 -0.00426032)
(0.965169 0.00333917 -0.00439333)
(0.9647 0.00330019 -0.00457257)
(0.964869 0.00307375 -0.00427367)
(0.965195 0.00292494 -0.00388738)
(0.965691 0.00272066 -0.00363894)
(0.965485 0.00274374 -0.00372912)
(0.964892 0.00265378 -0.00386383)
(0.96448 0.00250756 -0.00400388)
(0.964448 0.00230497 -0.0039693)
(0.964006 0.00247975 -0.00391237)
(0.964479 0.002423 -0.00384908)
(0.964699 0.00241122 -0.00422718)
(0.971809 0.00171946 -0.00206285)
(0.971935 0.00170252 -0.00278797)
(0.972394 0.00155501 -0.00339549)
(0.972073 0.0014803 -0.00363446)
(0.971915 0.0011712 -0.00354578)
(0.971485 0.000945723 -0.00369892)
(0.971609 0.000830038 -0.00396682)
(0.971402 0.00100707 -0.00418715)
(0.971432 0.000990606 -0.00409724)
(0.971303 0.00101628 -0.00415323)
(0.971378 0.00105179 -0.00418932)
(0.971328 0.00133168 -0.00421411)
(0.971614 0.00160879 -0.0039699)
(0.972004 0.00182513 -0.00362748)
(0.972474 0.00189035 -0.00295292)
(0.972596 0.00204562 -0.00238992)
(0.972798 0.0021749 -0.00195655)
(0.972519 0.00251207 -0.00181288)
(0.972558 0.00273416 -0.00174046)
(0.97236 0.00302214 -0.00204727)
(0.972229 0.00320795 -0.00221632)
(0.971903 0.00325352 -0.00250757)
(0.971556 0.00309234 -0.00273463)
(0.970985 0.00296028 -0.00289962)
(0.970879 0.00287141 -0.00271341)
(0.971166 0.00290126 -0.00245274)
(0.971753 0.0028146 -0.00217539)
(0.971768 0.00285827 -0.00236107)
(0.971912 0.00286414 -0.00255333)
(0.971851 0.00290693 -0.00272587)
(0.972117 0.00272502 -0.00256355)
(0.972491 0.0025864 -0.0022769)
(0.973384 0.00236731 -0.0019585)
(0.973835 0.00231482 -0.0018811)
(0.974043 0.00222537 -0.00188709)
(0.973795 0.00209232 -0.00200066)
(0.973665 0.00184053 -0.0019594)
(0.972682 0.00191681 -0.00194097)
(0.972525 0.00184627 -0.00174565)
(0.971946 0.00178164 -0.00183651)
(0.981984 0.00179801 -0.00104968)
(0.981605 0.00187876 -0.00123894)
(0.981931 0.00182389 -0.00168606)
(0.981899 0.00174692 -0.0020698)
(0.98221 0.00144835 -0.00209726)
(0.982111 0.00118061 -0.00212055)
(0.982405 0.00102651 -0.00216179)
(0.982248 0.00111352 -0.00212861)
(0.982305 0.00109629 -0.00174246)
(0.982086 0.00107304 -0.00147201)
(0.982105 0.00102107 -0.00146474)
(0.981664 0.00121851 -0.00157684)
(0.981485 0.00150825 -0.0015028)
(0.981149 0.00175151 -0.00142556)
(0.981251 0.00185095 -0.00110936)
(0.980959 0.00203689 -0.000721949)
(0.981085 0.00210189 -0.000416595)
(0.980673 0.00228375 -0.00030439)
(0.980554 0.00237816 -0.000213277)
(0.980098 0.00247495 -0.000402832)
(0.980284 0.00260988 -0.000563737)
(0.980443 0.00268267 -0.000741977)
(0.980694 0.00260686 -0.000933607)
(0.98031 0.00251616 -0.00105067)
(0.980334 0.0023561 -0.00101007)
(0.980227 0.00227631 -0.000862219)
(0.981037 0.00211766 -0.000600616)
(0.981345 0.00205327 -0.000743903)
(0.981812 0.00197118 -0.00103082)
(0.981795 0.00200181 -0.00133505)
(0.98196 0.00188744 -0.00136671)
(0.981707 0.00182135 -0.00121157)
(0.982126 0.00169546 -0.000975888)
(0.982295 0.00170119 -0.000970025)
(0.982729 0.00169492 -0.00105765)
(0.982724 0.00170647 -0.00117966)
(0.983088 0.00159388 -0.00122461)
(0.982789 0.00167068 -0.00129095)
(0.982846 0.00167086 -0.00115755)
(0.982412 0.00169767 -0.00111838)
(0.990848 0.00189639 -4.3215e-05)
(0.990693 0.00209308 6.54198e-05)
(0.991132 0.00213164 -4.11498e-05)
(0.991247 0.00205356 -0.000303333)
(0.991744 0.00174221 -0.000517249)
(0.991784 0.00141188 -0.00078463)
(0.992183 0.00112628 -0.00108874)
(0.992143 0.00100737 -0.0012744)
(0.992294 0.000894131 -0.00116881)
(0.992107 0.000831211 -0.000965925)
(0.992187 0.000741259 -0.000897697)
(0.991744 0.000748849 -0.000911392)
(0.991482 0.000927968 -0.000772827)
(0.990865 0.00111099 -0.000776965)
(0.990826 0.00119291 -0.000846181)
(0.990519 0.00140212 -0.000803472)
(0.99068 0.0014723 -0.000781488)
(0.990378 0.00149626 -0.000836372)
(0.990383 0.00156703 -0.000730612)
(0.98978 0.00163246 -0.000662933)
(0.989541 0.00168749 -0.00060559)
(0.989391 0.00166084 -0.000632905)
(0.989741 0.00151877 -0.000790061)
(0.989656 0.00141348 -0.000961147)
(0.989946 0.00131064 -0.00106324)
(0.989874 0.00125978 -0.00106168)
(0.990348 0.00117182 -0.000778666)
(0.99062 0.00118281 -0.000641978)
(0.991238 0.00117411 -0.000725074)
(0.991474 0.00119934 -0.000849165)
(0.991903 0.00114509 -0.000834273)
(0.991708 0.00112263 -0.000732485)
(0.991903 0.00107213 -0.000524812)
(0.991659 0.00112715 -0.000484221)
(0.991697 0.00119034 -0.000514573)
(0.991296 0.00129024 -0.000465423)
(0.991364 0.00130181 -0.000343707)
(0.991189 0.00140729 -0.000327359)
(0.991332 0.00152529 -0.000223634)
(0.990965 0.00167382 -0.000180196)
(0.99849 0.00146951 0.000123888)
(0.998232 0.00175127 0.000307433)
(0.998638 0.00194736 0.000316963)
(0.99893 0.0020582 0.000161816)
(0.999729 0.00195877 -1.12024e-05)
(1.00006 0.0018312 -0.000281019)
(1.00067 0.00169427 -0.000588367)
(1.00088 0.00163308 -0.000884071)
(1.00118 0.00155553 -0.00110689)
(1.00109 0.00147456 -0.00123452)
(1.00126 0.00132031 -0.00131006)
(1.001 0.00117522 -0.00141881)
(1.00091 0.00121742 -0.00129882)
(1.00042 0.00132628 -0.00113779)
(1.00042 0.00133331 -0.00112724)
(1.00011 0.00147871 -0.00109583)
(1.00022 0.00153313 -0.00105936)
(0.999922 0.0015034 -0.00108981)
(0.9999 0.0015489 -0.000949309)
(0.999369 0.00164538 -0.000800855)
(0.998929 0.00169987 -0.000694994)
(0.998299 0.00171662 -0.000637664)
(0.998142 0.00157604 -0.000645385)
(0.997732 0.00139489 -0.000650003)
(0.997642 0.00120213 -0.000519553)
(0.997201 0.00106427 -0.00037937)
(0.997097 0.00086501 -0.000139504)
(0.996803 0.000797077 4.51634e-05)
(0.997009 0.000773718 -1.30153e-05)
(0.997097 0.000805502 -0.000204016)
(0.997628 0.000749809 -0.000273427)
(0.997773 0.000680311 -0.000319152)
(0.998388 0.000609307 -0.000310724)
(0.998536 0.000626243 -0.000365276)
(0.998821 0.000657698 -0.000387657)
(0.9987 0.000782545 -0.00029742)
(0.998961 0.00086918 -0.000101857)
(0.998828 0.000970997 -3.96606e-05)
(0.999017 0.0010956 3.65662e-05)
(0.998688 0.00126946 1.99044e-05)
(1.00663 0.0013047 -0.000278539)
(1.00615 0.00153268 -4.35403e-05)
(1.00619 0.00174934 0.000138935)
(1.00623 0.00194999 0.000155946)
(1.00686 0.00202309 0.000191719)
(1.00724 0.00209148 0.000169303)
(1.00788 0.00211051 8.63423e-05)
(1.00833 0.00218591 -8.7512e-06)
(1.00887 0.00224112 -0.00013868)
(1.00905 0.00226723 -0.000289488)
(1.00942 0.0021835 -0.000375502)
(1.00945 0.00205377 -0.000474747)
(1.00958 0.00200475 -0.000425033)
(1.00929 0.00201096 -0.000295591)
(1.00932 0.00187565 -0.000238259)
(1.00913 0.00188182 -0.000181895)
(1.00928 0.00190997 -9.72929e-05)
(1.00906 0.00190237 -9.16894e-05)
(1.00896 0.001897 -1.53793e-05)
(1.00859 0.00194448 2.46032e-05)
(1.00841 0.00193272 -9.90362e-06)
(1.00803 0.00197003 -7.20915e-05)
(1.00801 0.00191223 -0.000162209)
(1.0078 0.00181268 -0.00030827)
(1.00776 0.00168408 -0.000336817)
(1.00728 0.00164509 -0.000302688)
(1.00697 0.00149545 -0.000227952)
(1.0064 0.00137986 -0.000120246)
(1.00607 0.00132334 -7.82311e-05)
(1.00562 0.00133198 -0.000170664)
(1.00563 0.00126879 -0.000228442)
(1.00535 0.00119055 -0.000298888)
(1.00557 0.00108419 -0.000311766)
(1.00564 0.00101756 -0.000371602)
(1.0059 0.000927372 -0.000447387)
(1.00592 0.000851531 -0.000490108)
(1.00632 0.000822745 -0.000399825)
(1.00648 0.000870191 -0.000389812)
(1.00685 0.000979048 -0.000336581)
(1.00679 0.00115174 -0.000333804)
(1.01274 0.00200159 0.000175284)
(1.01224 0.00213282 0.000305851)
(1.01214 0.0021854 0.000446909)
(1.01199 0.00221523 0.00048039)
(1.01219 0.0021591 0.000568413)
(1.01219 0.00215192 0.000653751)
(1.01238 0.00216257 0.000703701)
(1.01259 0.00221794 0.000764017)
(1.01306 0.00227526 0.000806813)
(1.01335 0.00232946 0.000723955)
(1.01387 0.00232371 0.000650668)
(1.01405 0.00230116 0.000590695)
(1.01446 0.00230327 0.000665461)
(1.0146 0.00234525 0.00082903)
(1.01481 0.00224516 0.000922202)
(1.01486 0.00219787 0.000949872)
(1.01513 0.00224655 0.00100482)
(1.01514 0.00232582 0.000974711)
(1.01526 0.00240863 0.000961292)
(1.01523 0.00250582 0.000877329)
(1.01543 0.00252786 0.00073174)
(1.01552 0.00253568 0.000593509)
(1.01582 0.00252537 0.000490325)
(1.01601 0.00252516 0.000335079)
(1.01639 0.00252049 0.000194507)
(1.01645 0.0026033 9.37634e-05)
(1.01659 0.00261607 2.60662e-05)
(1.01641 0.00257568 3.36567e-05)
(1.01621 0.00251874 0.000109947)
(1.01576 0.00248128 0.000127062)
(1.01556 0.00241823 0.000154058)
(1.0151 0.0023468 0.000139926)
(1.01488 0.00219226 0.000178914)
(1.01451 0.00204542 0.000163115)
(1.01423 0.00190337 9.38486e-05)