/*--------------------------------*- C++ -*----------------------------------*\
  =========                 |
  \\      /  F ield         | OpenFOAM: The Open Source CFD Toolbox
   \\    /   O peration     | Website:  https://openfoam.org
    \\  /    A nd           | Version:  10
     \\/     M anipulation  |
\*---------------------------------------------------------------------------*/
FoamFile
{
    format      ascii;
    class       volSymmTensorField;
    location    "50";
    object      UPrime2Mean;
}
// * * * * * * * * * * * * * * * * * * * * * * * * * * * * * * * * * * * * * //

dimensions      [0 2 -2 0 0 0 0];

internalField   nonuniform List<symmTensor> 
25600
(
(0.00376802 2.4849e-07 -5.58681e-06 1.02833e-09 1.03918e-08 2.22895e-06)
(0.00374016 -1.61733e-07 2.24878e-05 1.18256e-09 2.27821e-09 2.49555e-06)
(0.00372246 -4.25581e-07 3.72248e-05 1.03241e-09 -5.2043e-10 2.65465e-06)
(0.00371715 7.65303e-08 2.73588e-06 8.83398e-10 2.08134e-09 2.2715e-06)
(0.00374276 -1.53757e-07 -2.60309e-05 7.76476e-10 8.15e-09 2.37201e-06)
(0.00374167 -2.21267e-07 -1.2601e-05 8.52505e-10 1.12837e-08 2.17697e-06)
(0.00373414 2.37692e-07 1.94546e-05 9.29252e-10 1.22637e-08 2.31384e-06)
(0.00372192 -1.31824e-07 3.21394e-05 9.67989e-10 1.01899e-08 2.43878e-06)
(0.00372187 3.87377e-08 5.0492e-06 8.05987e-10 9.09861e-09 2.25074e-06)
(0.00372892 -1.99404e-07 -2.23452e-05 8.62131e-10 8.69185e-09 2.46373e-06)
(0.00373903 -3.13056e-08 -1.0485e-05 7.26015e-10 6.26211e-09 2.41183e-06)
(0.00374446 -7.96735e-08 3.13452e-05 6.65474e-10 7.34672e-09 2.9501e-06)
(0.00373423 3.12613e-07 4.05163e-05 6.24698e-10 1.74958e-08 3.03228e-06)
(0.00372842 -5.1914e-07 1.16631e-05 8.63596e-10 1.14167e-08 2.64739e-06)
(0.00376337 -3.3636e-07 -2.436e-05 8.18286e-10 1.04085e-08 2.73846e-06)
(0.00374212 4.47238e-08 -1.17972e-05 6.92553e-10 8.47932e-09 2.58178e-06)
(0.00374345 1.04898e-07 1.8512e-05 6.56193e-10 1.15026e-08 2.56338e-06)
(0.00372253 -1.18567e-07 4.25873e-05 6.79873e-10 1.28553e-08 2.79581e-06)
(0.00375557 -3.18363e-07 -1.8232e-06 7.1527e-10 1.24238e-08 2.51172e-06)
(0.0037547 -3.27218e-07 -2.04183e-05 8.35914e-10 1.45201e-08 2.77137e-06)
(0.00377157 1.38262e-07 -1.73728e-05 8.78391e-10 8.79805e-09 2.58661e-06)
(0.00374829 4.64235e-07 2.79663e-05 9.13219e-10 1.99374e-08 2.52295e-06)
(0.00376187 9.57194e-08 3.85609e-05 9.19365e-10 1.85971e-08 2.58974e-06)
(0.00374411 -3.78158e-07 9.39198e-06 9.50858e-10 1.47137e-08 2.60592e-06)
(0.00376967 -8.67322e-07 -2.20891e-05 1.28868e-09 1.36552e-08 2.8803e-06)
(0.00380411 7.01335e-08 -9.20522e-06 1.04132e-09 8.38168e-09 2.50613e-06)
(0.00376505 -1.78695e-07 3.06034e-05 1.08349e-09 5.36711e-09 2.41702e-06)
(0.00376481 -2.97211e-07 3.21741e-05 9.69743e-10 8.6514e-09 2.28667e-06)
(0.00374975 -3.03924e-07 1.33484e-05 9.53707e-10 4.803e-09 2.29766e-06)
(0.00374554 -1.97416e-07 -1.48471e-05 9.89065e-10 6.16578e-09 2.46671e-06)
(0.00377996 -9.29009e-07 -1.02227e-05 9.71545e-10 1.40526e-08 2.40019e-06)
(0.003765 3.32744e-07 3.8299e-05 8.6004e-10 2.05502e-08 2.76981e-06)
(0.00377746 5.73185e-07 4.12679e-05 9.63186e-10 2.55724e-08 2.75986e-06)
(0.00373154 -2.64379e-09 1.02119e-05 9.17018e-10 1.5852e-08 2.49197e-06)
(0.0037757 -2.80751e-07 -1.93277e-05 9.55248e-10 9.75653e-09 2.74756e-06)
(0.00374823 4.99652e-07 -1.22472e-05 1.06597e-09 2.63017e-09 2.6302e-06)
(0.00377474 -5.22144e-07 2.80362e-05 1.12379e-09 -4.31225e-09 2.76893e-06)
(0.00371763 -3.06286e-07 3.69437e-05 9.19067e-10 5.17666e-09 2.69302e-06)
(0.00375709 -7.77166e-07 6.45141e-06 1.0955e-09 1.35867e-08 2.46889e-06)
(0.00374531 -5.89528e-07 -2.55266e-05 1.12128e-09 1.84373e-08 2.4937e-06)
(0.0152238 -3.81723e-06 1.18201e-06 2.25641e-08 -8.81678e-08 1.56408e-05)
(0.0151029 1.58174e-06 1.57296e-05 2.42397e-08 -5.98936e-08 1.65406e-05)
(0.0150622 2.93749e-06 9.24053e-05 2.4623e-08 -9.17039e-09 1.75942e-05)
(0.0149756 -4.91094e-07 2.42208e-05 2.07027e-08 -4.01003e-10 1.66473e-05)
(0.0151088 -2.03885e-06 -6.76836e-05 2.19509e-08 -2.99111e-08 1.69874e-05)
(0.0150367 -4.24219e-06 -4.60906e-05 2.3603e-08 -3.23274e-08 1.53376e-05)
(0.0151586 -3.78964e-07 2.01371e-05 2.62178e-08 -6.19095e-08 1.72934e-05)
(0.0150009 2.42703e-06 9.60691e-05 2.44444e-08 -7.77194e-08 1.75274e-05)
(0.0150766 8.78272e-07 3.54335e-05 2.2734e-08 -8.71237e-08 1.68464e-05)
(0.0149944 -1.96177e-06 -3.36937e-05 2.32731e-08 -7.02864e-08 1.80618e-05)
(0.0150868 -2.65986e-06 -5.32186e-05 2.23934e-08 -1.06628e-07 1.7475e-05)
(0.0150806 -1.66449e-06 5.73725e-05 2.27135e-08 -1.48147e-07 2.10289e-05)
(0.0151106 -1.72553e-06 0.000106144 2.13735e-08 -1.70429e-07 2.08969e-05)
(0.0150626 -1.41442e-06 6.7091e-05 2.06471e-08 -2.12518e-07 1.94686e-05)
(0.0151751 -9.67688e-07 -4.34536e-05 2.06205e-08 -2.3674e-07 1.94391e-05)
(0.0150816 -1.48962e-06 -1.78308e-05 1.92608e-08 -1.88555e-07 1.84141e-05)
(0.0151945 -2.86055e-06 1.67023e-05 1.98267e-08 -1.60035e-07 1.95381e-05)
(0.0150651 -1.80993e-06 0.000133652 2.07906e-08 -1.54879e-07 1.95645e-05)
(0.0152027 -3.70446e-06 2.23075e-05 2.23072e-08 -1.5929e-07 1.81071e-05)
(0.0151365 -3.89602e-06 7.89369e-07 2.2843e-08 -1.67805e-07 1.88791e-05)
(0.0152658 -5.85945e-06 -7.66742e-05 2.274e-08 -1.09499e-07 1.75758e-05)
(0.0151859 -3.02256e-06 7.26238e-05 2.21462e-08 -1.11477e-07 1.78129e-05)
(0.0153052 -1.81056e-06 7.8921e-05 2.40948e-08 -9.69781e-08 1.59617e-05)
(0.0151794 -2.0924e-06 9.27402e-05 2.67051e-08 -1.14992e-07 1.61709e-05)
(0.0152499 -8.58188e-06 -7.63636e-06 3.32232e-08 -9.12409e-08 1.77834e-05)
(0.0153552 -7.01222e-06 -7.28577e-06 3.37011e-08 -1.47386e-07 1.58709e-05)
(0.0153539 -1.57191e-06 5.32862e-05 3.07425e-08 -1.54458e-07 1.5494e-05)
(0.0152967 -2.68743e-06 9.81479e-05 2.52769e-08 -1.82733e-07 1.52118e-05)
(0.0152987 -8.71235e-07 7.72919e-05 2.44438e-08 -1.43272e-07 1.55382e-05)
(0.0151832 -5.06444e-06 -3.57532e-06 2.43431e-08 -6.51276e-08 1.71077e-05)
(0.0154017 -5.44389e-06 -3.90189e-05 2.69046e-08 -1.1064e-07 1.57151e-05)
(0.0152139 -2.54496e-06 5.71009e-05 2.63201e-08 -1.38564e-07 1.65125e-05)
(0.0153991 -2.82092e-06 8.82839e-05 2.59738e-08 -1.8057e-07 1.73961e-05)
(0.0150784 4.73312e-07 7.23615e-05 2.21877e-08 -1.17796e-07 1.73765e-05)
(0.0153685 -4.46424e-06 -2.93782e-05 2.38826e-08 -8.23984e-08 1.98428e-05)
(0.0150881 -1.51432e-06 -3.88235e-05 2.23941e-08 -9.97567e-08 1.85144e-05)
(0.0154091 -2.40442e-06 5.72465e-05 2.38951e-08 -1.2854e-07 2.052e-05)
(0.0150497 3.10477e-06 9.80387e-05 2.19428e-08 -6.97359e-08 1.85932e-05)
(0.0152626 -1.94577e-06 7.45758e-05 2.02998e-08 -1.0461e-07 1.69696e-05)
(0.0150246 9.78289e-07 -3.91659e-05 1.98513e-08 -8.09631e-08 1.67624e-05)
(0.0255817 -5.33668e-06 -0.000141762 9.80274e-08 -3.2534e-07 4.38292e-05)
(0.0252178 9.92343e-06 -2.67159e-05 9.5669e-08 -3.37833e-07 4.58853e-05)
(0.0254968 4.42176e-06 2.26157e-05 9.22766e-08 -4.93386e-07 4.31225e-05)
(0.0251405 6.32384e-06 -1.07596e-05 8.22336e-08 -4.51152e-07 3.7458e-05)
(0.0254488 8.27886e-07 -0.000137998 9.44537e-08 -5.00981e-07 3.83488e-05)
(0.0251509 1.71526e-06 -0.000100242 9.34355e-08 -5.4689e-07 3.66919e-05)
(0.0254082 3.22291e-07 -5.22503e-05 1.04643e-07 -6.46418e-07 4.31649e-05)
(0.025114 9.01205e-06 6.41086e-05 9.90801e-08 -6.98427e-07 4.65477e-05)
(0.0253955 3.86838e-06 -2.88639e-05 9.66578e-08 -7.01388e-07 4.74735e-05)
(0.0251465 6.1427e-06 -0.000123297 9.31903e-08 -6.41579e-07 5.08423e-05)
(0.0254003 -2.70945e-07 -0.000156145 9.20798e-08 -5.51674e-07 4.54384e-05)
(0.0252478 2.57116e-06 1.96778e-05 8.93633e-08 -6.02241e-07 4.96297e-05)
(0.0253922 2.38265e-06 3.03065e-05 8.47801e-08 -5.66304e-07 4.90216e-05)
(0.025251 2.29641e-06 3.76085e-05 8.33893e-08 -6.64199e-07 4.63213e-05)
(0.0254022 5.0151e-07 -0.00015003 8.20814e-08 -6.69353e-07 4.80656e-05)
(0.0252703 8.76103e-07 -7.35768e-05 8.31617e-08 -6.23118e-07 4.43455e-05)
(0.0254615 -3.97333e-06 -5.55049e-05 8.79121e-08 -6.89893e-07 4.94734e-05)
(0.0252591 -2.58456e-06 0.000108144 9.4721e-08 -7.97214e-07 5.04995e-05)
(0.0255572 -5.41718e-06 -4.81725e-05 1.06778e-07 -8.50913e-07 4.91722e-05)
(0.0253187 -4.1587e-06 -9.40371e-05 1.1686e-07 -1.04774e-06 5.0355e-05)
(0.0256816 -4.16774e-06 -0.000165 1.1094e-07 -9.35591e-07 4.20585e-05)
(0.0253467 -5.42038e-06 2.16605e-05 1.06446e-07 -8.98666e-07 3.8636e-05)
(0.0257404 -2.24184e-06 -6.90228e-06 1.09954e-07 -7.07798e-07 3.67604e-05)
(0.0254462 -2.75599e-06 6.57128e-05 1.21006e-07 -7.19879e-07 3.70822e-05)
(0.025775 -1.24935e-05 -0.000118039 1.30254e-07 -5.31378e-07 4.2942e-05)
(0.0255273 -9.95419e-06 -7.87652e-05 1.23128e-07 -7.93796e-07 4.14918e-05)
(0.0259349 -5.2947e-06 -1.4375e-05 1.13313e-07 -8.07346e-07 4.77916e-05)
(0.025553 -3.05601e-06 0.000117353 1.0462e-07 -8.33974e-07 4.67133e-05)
(0.0258425 -2.04627e-06 -3.76669e-05 1.0028e-07 -8.13481e-07 4.4146e-05)
(0.0255833 -4.39264e-06 -9.02591e-05 9.09974e-08 -4.82197e-07 4.60808e-05)
(0.0259091 -8.39624e-06 -0.000175575 9.73876e-08 -4.32099e-07 4.30315e-05)
(0.0255765 -1.90708e-06 1.01857e-05 9.30963e-08 -3.9418e-07 4.5912e-05)
(0.025904 2.8488e-07 6.74792e-06 9.72288e-08 -4.79451e-07 4.75595e-05)
(0.0254037 3.68383e-06 3.33451e-05 8.02753e-08 -4.6384e-07 4.68276e-05)
(0.0258388 -2.61156e-06 -0.00014936 8.8191e-08 -4.69244e-07 4.97385e-05)
(0.0253506 2.77748e-06 -7.91598e-05 7.9466e-08 -4.36756e-07 4.43937e-05)
(0.0258987 -1.85846e-06 -4.92116e-05 9.44913e-08 -4.71568e-07 4.79589e-05)
(0.0252354 1.291e-05 6.54301e-05 8.45605e-08 -3.73051e-07 4.89472e-05)
(0.0257466 -1.99007e-06 -5.79413e-05 8.59046e-08 -4.50294e-07 4.69372e-05)
(0.0252544 9.21173e-06 -0.000133655 8.17218e-08 -3.6222e-07 4.58678e-05)
(0.0311614 1.71092e-05 -0.0003325 3.50702e-07 3.11614e-07 9.24836e-05)
(0.0306005 4.10807e-05 -0.000198388 3.24324e-07 1.51946e-07 9.07058e-05)
(0.0310258 2.5386e-05 -0.000151965 3.12186e-07 -5.58859e-08 8.4684e-05)
(0.0305158 4.13769e-05 -0.000169266 2.90622e-07 7.93987e-08 7.56515e-05)
(0.0309842 2.18604e-05 -0.000310221 3.18165e-07 8.91744e-08 8.20053e-05)
(0.0305446 3.49941e-05 -0.00027291 3.17795e-07 -3.23248e-07 8.3412e-05)
(0.0309345 2.34642e-05 -0.000191081 3.49292e-07 -5.62874e-07 0.000100389)
(0.0304936 3.67406e-05 -4.11456e-05 3.379e-07 -7.84309e-07 0.000106558)
(0.0309199 2.36617e-05 -0.00018732 3.37666e-07 -4.98915e-07 0.000107924)
(0.0305485 3.34047e-05 -0.000290006 3.44461e-07 1.09427e-07 0.000108012)
(0.0309205 1.9194e-05 -0.000333488 3.59335e-07 3.00688e-07 9.31326e-05)
(0.0305934 3.27498e-05 -0.000133684 3.28777e-07 1.8885e-07 9.21208e-05)
(0.0308358 2.62436e-05 -0.000155186 3.08561e-07 1.27935e-07 9.12379e-05)
(0.030598 3.26012e-05 -0.000124766 2.99568e-07 1.69244e-08 8.84382e-05)
(0.030827 2.47056e-05 -0.000354412 2.99283e-07 2.10171e-08 9.56326e-05)
(0.0306416 2.70171e-05 -0.000248859 3.10639e-07 1.12394e-07 8.85874e-05)
(0.0308558 1.87522e-05 -0.000254382 3.1363e-07 1.01077e-07 9.64775e-05)
(0.0305785 2.40517e-05 -4.70355e-05 3.27754e-07 -6.37661e-08 9.92853e-05)
(0.03091 1.47881e-05 -0.00023745 3.42815e-07 -2.75951e-07 9.75483e-05)
(0.0306052 1.66877e-05 -0.000240663 3.43189e-07 -4.90942e-07 9.44143e-05)
(0.0309476 1.20685e-05 -0.000355921 3.34875e-07 -5.9938e-07 8.40261e-05)
(0.0306277 1.56931e-05 -0.000111206 3.46492e-07 -9.02651e-07 8.08023e-05)
(0.0310056 1.4494e-05 -0.00014963 3.44526e-07 -8.15986e-07 8.03353e-05)
(0.0307572 1.94379e-05 -8.21758e-05 3.67806e-07 -5.61049e-07 7.94878e-05)
(0.0311315 1.05307e-05 -0.000337951 3.5947e-07 -1.45755e-07 8.81211e-05)
(0.0308556 1.14031e-05 -0.000201421 3.71308e-07 -4.26482e-07 8.33985e-05)
(0.0312477 1.34509e-05 -0.000249765 3.56397e-07 -6.87025e-07 9.31089e-05)
(0.0308273 1.51481e-05 -3.02885e-05 3.71687e-07 -9.619e-07 9.85981e-05)
(0.0313409 1.66615e-05 -0.000274794 3.54772e-07 -9.06109e-07 9.72757e-05)
(0.0309727 2.22546e-05 -0.00027573 3.44222e-07 -6.07765e-07 9.67895e-05)
(0.0313652 1.60022e-05 -0.000410237 3.40018e-07 -1.53517e-07 9.27563e-05)
(0.0308895 2.37435e-05 -0.000172159 3.42932e-07 2.78836e-08 9.54882e-05)
(0.0313582 2.32412e-05 -0.000180551 3.26784e-07 2.43671e-07 0.000100496)
(0.0308279 2.89933e-05 -0.000164981 3.04159e-07 3.04658e-07 0.000100683)
(0.0313667 1.98864e-05 -0.000400252 2.9063e-07 3.58981e-07 0.000108668)
(0.030827 2.98072e-05 -0.00031633 2.86588e-07 3.65022e-07 9.48088e-05)
(0.0313792 1.87903e-05 -0.000240347 3.02576e-07 1.91093e-07 0.000100972)
(0.0307241 3.91077e-05 -0.000122592 2.93745e-07 -5.63036e-08 9.82778e-05)
(0.0312857 2.06714e-05 -0.000219624 3.1538e-07 2.77614e-08 9.65768e-05)
(0.0306725 4.14773e-05 -0.000328039 3.18559e-07 1.93982e-07 9.98191e-05)
(0.0314248 6.81848e-05 -0.000405983 1.19516e-06 2.39569e-06 0.000151623)
(0.0310223 9.23968e-05 -0.00026248 1.14588e-06 2.05804e-06 0.000149389)
(0.031317 7.08569e-05 -0.000198343 1.0998e-06 1.72758e-06 0.000143686)
(0.0309422 9.22996e-05 -0.000250618 1.02133e-06 2.19081e-06 0.000133258)
(0.0313667 6.87509e-05 -0.000381331 1.04711e-06 2.47461e-06 0.000144125)
(0.0309614 8.7145e-05 -0.000350476 1.05468e-06 2.04167e-06 0.000145173)
(0.0313143 7.19095e-05 -0.000231011 1.11697e-06 1.62435e-06 0.00016644)
(0.0309397 9.3299e-05 -0.000119777 1.09566e-06 1.20008e-06 0.000168155)
(0.0312934 7.14235e-05 -0.000215936 1.12635e-06 1.11974e-06 0.000166542)
(0.0309476 8.79476e-05 -0.00034248 1.16426e-06 2.12901e-06 0.000164944)
(0.0313309 6.67156e-05 -0.000401129 1.19712e-06 2.38127e-06 0.000145513)
(0.0308701 8.62093e-05 -0.00024104 1.11472e-06 2.32813e-06 0.000138638)
(0.0312491 7.21737e-05 -0.000257027 1.06492e-06 2.1207e-06 0.00013709)
(0.0308052 8.64846e-05 -0.000232977 1.02576e-06 2.26037e-06 0.000135069)
(0.0312731 7.22926e-05 -0.000419457 1.0172e-06 2.08571e-06 0.00014958)
(0.0308868 8.07297e-05 -0.000394872 1.05619e-06 2.17451e-06 0.000145974)
(0.0312964 6.68024e-05 -0.000267704 1.08334e-06 2.10808e-06 0.000165888)
(0.030908 7.49053e-05 -0.000119914 1.11418e-06 2.32584e-06 0.00016095)
(0.0312761 6.12841e-05 -0.000271136 1.10959e-06 1.60872e-06 0.000156539)
(0.0308653 6.7899e-05 -0.000311022 1.06537e-06 1.16625e-06 0.000153597)
(0.0313138 6.05588e-05 -0.000413824 1.00479e-06 8.37679e-07 0.000136461)
(0.0307973 6.62312e-05 -0.000193691 1.05436e-06 5.51898e-07 0.000128301)
(0.0313566 6.66818e-05 -0.000234707 1.04804e-06 6.05152e-07 0.00012366)
(0.030898 6.78242e-05 -0.000151755 1.1672e-06 1.05116e-06 0.000122666)
(0.0314303 6.22692e-05 -0.000379628 1.13216e-06 1.48767e-06 0.000137546)
(0.0309824 6.72411e-05 -0.000302688 1.21179e-06 1.57823e-06 0.000138646)
(0.0314379 6.58824e-05 -0.00030805 1.14379e-06 1.35807e-06 0.000154084)
(0.0309602 6.77102e-05 -0.000127554 1.20062e-06 8.45111e-07 0.000159829)
(0.0314774 6.53509e-05 -0.000311606 1.11896e-06 7.2947e-07 0.000162801)
(0.0310528 7.85905e-05 -0.000349777 1.16304e-06 7.41894e-07 0.0001705)
(0.0316228 6.86767e-05 -0.000450621 1.1167e-06 1.52784e-06 0.000156953)
(0.0311071 8.36051e-05 -0.000225503 1.20316e-06 2.0683e-06 0.0001523)
(0.0315634 7.17939e-05 -0.000292822 1.12088e-06 2.69769e-06 0.000152376)
(0.0310826 8.68427e-05 -0.000197593 1.13891e-06 3.08834e-06 0.000152617)
(0.0315103 6.65278e-05 -0.000459001 1.03063e-06 3.5751e-06 0.000162005)
(0.0311448 8.77513e-05 -0.000378816 1.03389e-06 3.03175e-06 0.000147695)
(0.0315159 6.50171e-05 -0.000356077 1.00481e-06 2.55991e-06 0.000153833)
(0.0310435 9.04666e-05 -0.000211083 1.06731e-06 2.17275e-06 0.000154913)
(0.0314938 6.7558e-05 -0.000311229 1.10769e-06 2.248e-06 0.00015634)
(0.0310596 9.60794e-05 -0.000393448 1.17513e-06 2.28419e-06 0.000160874)
(0.0281719 0.000118973 -0.000272312 2.9383e-06 5.87222e-06 0.000190445)
(0.027957 0.000136139 -8.18775e-05 2.91171e-06 5.49566e-06 0.00019514)
(0.0282064 0.000118276 -5.68043e-05 2.77187e-06 5.42457e-06 0.000181713)
(0.027959 0.000135257 -5.98931e-05 2.62113e-06 5.53963e-06 0.000169935)
(0.0281755 0.000112536 -0.000190628 2.58942e-06 5.52258e-06 0.000176186)
(0.0279454 0.000133836 -0.000151839 2.61414e-06 4.94117e-06 0.000178824)
(0.0281938 0.00011378 -0.000106929 2.7288e-06 3.63442e-06 0.000199849)
(0.0278963 0.000135263 1.78925e-06 2.71829e-06 2.64362e-06 0.000209727)
(0.0282942 0.000112109 -0.000114685 2.84553e-06 2.14987e-06 0.000209946)
(0.0279531 0.000137975 -0.000234654 2.91108e-06 3.32996e-06 0.000207858)
(0.0283054 0.000112713 -0.000240951 2.94987e-06 4.36522e-06 0.00018303)
(0.0279014 0.000135147 -0.000131546 2.79016e-06 5.14008e-06 0.000176479)
(0.028155 0.000117641 -0.000124464 2.62817e-06 5.23329e-06 0.000176476)
(0.0277913 0.00013546 -0.000128674 2.50551e-06 5.60223e-06 0.000174908)
(0.0281543 0.000116185 -0.000297786 2.4661e-06 5.40991e-06 0.000187291)
(0.027824 0.000129836 -0.000268155 2.60581e-06 5.08878e-06 0.000172818)
(0.0281108 0.000114205 -0.000178834 2.73259e-06 5.35991e-06 0.000173911)
(0.0277337 0.000120564 -0.000107791 2.80283e-06 6.09087e-06 0.000175027)
(0.0280847 0.000110622 -0.000120728 2.67696e-06 5.07821e-06 0.000178443)
(0.0276272 0.000114975 -0.000199209 2.55992e-06 4.30116e-06 0.000181438)
(0.0281093 0.000109529 -0.000219128 2.36448e-06 2.90325e-06 0.000166848)
(0.0277301 0.000116629 -0.000102931 2.50954e-06 2.38239e-06 0.000165796)
(0.0281023 0.000113416 -8.99962e-05 2.55154e-06 2.15099e-06 0.000165191)
(0.0278006 0.000117327 -0.000116874 2.93881e-06 2.83843e-06 0.000163104)
(0.0281765 0.000113569 -0.000249653 2.96951e-06 3.52061e-06 0.000176048)
(0.0278359 0.000120644 -0.000208331 3.23809e-06 4.06082e-06 0.000183213)
(0.028144 0.000117009 -0.000172275 3.02855e-06 4.1928e-06 0.000201445)
(0.0278807 0.000119372 -2.32547e-05 3.05581e-06 4.30081e-06 0.000203953)
(0.0281149 0.000118727 -0.000180172 2.77839e-06 4.16674e-06 0.000202495)
(0.0279857 0.000124936 -0.000197344 2.93733e-06 3.95823e-06 0.000212749)
(0.0282017 0.00012295 -0.000320256 2.81381e-06 3.84381e-06 0.000203754)
(0.0279554 0.000131172 -6.29791e-05 3.09095e-06 4.40639e-06 0.00020625)
(0.0282753 0.00011918 -0.000107738 2.94956e-06 5.63282e-06 0.00019241)
(0.0279751 0.000133971 -5.40025e-05 3.08973e-06 6.57276e-06 0.000189265)
(0.0282326 0.000112928 -0.000287732 2.80541e-06 7.8512e-06 0.000198968)
(0.0280447 0.000131984 -0.000197949 2.81397e-06 7.50288e-06 0.000188401)
(0.0282738 0.000116149 -0.000201395 2.59533e-06 7.35858e-06 0.000197924)
(0.0279427 0.000141212 -4.4135e-05 2.74906e-06 7.10369e-06 0.000201324)
(0.0282361 0.000115356 -0.000191066 2.74946e-06 6.68914e-06 0.00019655)
(0.028003 0.000138704 -0.000207238 2.94525e-06 6.27065e-06 0.000196117)
(0.0232766 0.000128 4.0578e-05 5.63339e-06 7.7402e-06 0.000183382)
(0.0231059 0.000144548 0.000104959 5.56499e-06 7.87033e-06 0.00017878)
(0.0232042 0.000125167 0.000134943 5.36037e-06 7.70425e-06 0.000176177)
(0.023092 0.000144858 0.000114881 5.12454e-06 8.01054e-06 0.000174314)
(0.0232725 0.000122133 5.92252e-06 5.07974e-06 7.50094e-06 0.000188658)
(0.0231348 0.000145263 3.63011e-05 5.14896e-06 6.45721e-06 0.000191049)
(0.0232982 0.000121349 9.95655e-05 5.37737e-06 4.30005e-06 0.000208306)
(0.0231324 0.000136424 0.00018799 5.45811e-06 2.86009e-06 0.000209258)
(0.0233091 0.000115185 9.99359e-05 5.69069e-06 2.8981e-06 0.00020152)
(0.0231503 0.000141112 4.90763e-05 5.67883e-06 4.23709e-06 0.000196114)
(0.0233036 0.000121172 1.41239e-05 5.6854e-06 5.3998e-06 0.000183774)
(0.0231018 0.000140236 0.000118699 5.31219e-06 6.13466e-06 0.000183295)
(0.0232608 0.000123428 0.000137009 5.01041e-06 5.96342e-06 0.000179356)
(0.0231338 0.000138266 0.000122964 4.76797e-06 6.68358e-06 0.000172791)
(0.0232581 0.000127611 2.04066e-05 4.78342e-06 6.73417e-06 0.000169532)
(0.0230849 0.000136194 4.52225e-05 5.07616e-06 7.26517e-06 0.000163617)
(0.0232971 0.000129228 7.32141e-05 5.32567e-06 7.93027e-06 0.00016929)
(0.0229909 0.000131345 0.000135634 5.46195e-06 9.0144e-06 0.000176778)
(0.0232236 0.000129829 9.38864e-05 5.12306e-06 8.85148e-06 0.000180529)
(0.0229786 0.000125556 2.94153e-05 4.88271e-06 8.0172e-06 0.000192017)
(0.0232409 0.000123777 4.61211e-06 4.48874e-06 5.41582e-06 0.000182346)
(0.0229977 0.000127905 0.000111226 4.81663e-06 3.61628e-06 0.000184807)
(0.0232773 0.000122914 0.000119509 5.17225e-06 2.73834e-06 0.00017562)
(0.0229932 0.000128471 0.000110312 6.07877e-06 3.66633e-06 0.000173229)
(0.0233111 0.000130845 2.90172e-06 6.36775e-06 4.65078e-06 0.000186983)
(0.0230462 0.000131833 2.43241e-05 6.84639e-06 6.10933e-06 0.000191166)
(0.0232958 0.000131883 7.60461e-05 6.44707e-06 6.37062e-06 0.000204142)
(0.023041 0.000131003 0.000172285 6.33116e-06 6.65143e-06 0.000208508)
(0.0232886 0.000133527 8.76344e-05 5.7715e-06 6.65706e-06 0.00020482)
(0.0230897 0.000133203 2.03062e-05 5.91875e-06 6.47802e-06 0.000204592)
(0.0233131 0.000136935 2.56935e-05 5.65364e-06 5.65299e-06 0.000190773)
(0.0230315 0.000135565 8.03138e-05 6.13013e-06 6.05787e-06 0.00018549)
(0.0232513 0.000130663 0.000143431 5.88701e-06 6.54523e-06 0.00017952)
(0.0230037 0.000136488 8.75627e-05 6.15818e-06 7.96727e-06 0.000176237)
(0.0233164 0.000128269 2.76496e-05 5.56198e-06 8.98635e-06 0.000186712)
(0.0230023 0.000137134 9.13349e-06 5.6328e-06 1.01718e-05 0.000196291)
(0.0232574 0.000129488 9.73346e-05 5.20381e-06 9.89391e-06 0.000210013)
(0.023051 0.000146034 0.000171676 5.39843e-06 9.33759e-06 0.00020725)
(0.0232632 0.000129261 0.000112727 5.38357e-06 8.70473e-06 0.000200343)
(0.0230985 0.000146123 3.87046e-05 5.69396e-06 8.69199e-06 0.000198711)
(0.0178747 9.63466e-05 0.000259495 8.6237e-06 5.44959e-06 0.000154538)
(0.0178642 0.000112997 0.000290915 8.34603e-06 5.84701e-06 0.000155486)
(0.0178392 9.48844e-05 0.000312289 8.15032e-06 5.12384e-06 0.000154376)
(0.0178503 0.000111915 0.000290224 8.00887e-06 5.19889e-06 0.000153829)
(0.0178903 9.55997e-05 0.0002193 8.22602e-06 4.33134e-06 0.00015898)
(0.017885 0.000114621 0.000241136 8.36252e-06 3.92538e-06 0.000158251)
(0.0179026 9.57672e-05 0.000255634 8.60001e-06 2.97757e-06 0.000161568)
(0.0178557 0.000108398 0.00030679 8.52785e-06 2.28944e-06 0.000164085)
(0.0178882 9.19415e-05 0.000267964 8.74589e-06 1.86821e-06 0.000163854)
(0.0178436 0.000107106 0.000253509 8.68863e-06 2.11674e-06 0.000164409)
(0.0179273 9.82974e-05 0.000219196 8.67208e-06 2.66719e-06 0.000155207)
(0.0178587 0.000106846 0.000315096 8.24608e-06 3.30569e-06 0.000151423)
(0.0179152 9.845e-05 0.000279255 7.91915e-06 3.97995e-06 0.000147876)
(0.0178334 0.000103386 0.000332045 7.66556e-06 4.94954e-06 0.000148076)
(0.0179197 9.83969e-05 0.00020817 7.76546e-06 5.85027e-06 0.000152442)
(0.0178946 0.000102436 0.000262671 8.03966e-06 6.46121e-06 0.000145515)
(0.0179779 0.000102866 0.000248075 8.21272e-06 7.07344e-06 0.000151581)
(0.0178275 0.000104209 0.000315899 8.24476e-06 7.20319e-06 0.000158482)
(0.0179543 0.000101304 0.000260131 7.79577e-06 7.15786e-06 0.000159277)
(0.0178793 9.9395e-05 0.000221347 7.45111e-06 6.03172e-06 0.000160911)
(0.0179378 9.92436e-05 0.000222391 7.04712e-06 3.96223e-06 0.000158484)
(0.0178307 9.88134e-05 0.000249125 7.66127e-06 2.28693e-06 0.000160984)
(0.0179229 9.73939e-05 0.000292954 8.42523e-06 1.09467e-06 0.000157216)
(0.0178031 0.000100576 0.000253891 9.8282e-06 1.26863e-06 0.000154448)
(0.0179574 0.000104005 0.0002221 1.05253e-05 1.86448e-06 0.000160232)
(0.0177955 0.000106729 0.000229987 1.10058e-05 3.30769e-06 0.000163604)
(0.0179649 0.000103832 0.000268956 1.03925e-05 3.90222e-06 0.000169115)
(0.0177863 0.000108778 0.000309013 1.01026e-05 4.68051e-06 0.000165429)
(0.0178951 0.000103992 0.000279713 9.37123e-06 4.38129e-06 0.000158308)
(0.0177946 0.00010813 0.000260253 9.34738e-06 4.45299e-06 0.000154456)
(0.0178575 0.000109008 0.000256142 8.96304e-06 3.94919e-06 0.000151557)
(0.017782 0.000111501 0.000289147 9.2915e-06 4.17954e-06 0.000151993)
(0.0178416 0.000106766 0.000324056 8.96758e-06 3.94248e-06 0.00014956)
(0.0178138 0.000111263 0.000304039 9.15407e-06 4.71677e-06 0.000147954)
(0.0178491 0.000104077 0.000269481 8.516e-06 5.14799e-06 0.000151749)
(0.0178021 0.000114518 0.000282799 8.56177e-06 6.11018e-06 0.000155922)
(0.0178866 0.00010157 0.000304834 8.19994e-06 5.7437e-06 0.000164696)
(0.017801 0.000114353 0.000342068 8.51792e-06 5.59428e-06 0.00016876)
(0.0178813 9.86747e-05 0.000306419 8.58687e-06 5.07527e-06 0.00016572)
(0.0178517 0.000114381 0.000257661 8.81411e-06 5.874e-06 0.000163531)
(0.0128838 5.51376e-05 0.000306675 1.00789e-05 2.28581e-08 0.000104192)
(0.0129126 6.60102e-05 0.000316804 9.6575e-06 2.43017e-07 0.000102838)
(0.0128582 5.3968e-05 0.000319214 9.52288e-06 -3.64644e-08 0.00010102)
(0.0128905 6.49199e-05 0.000312958 9.52837e-06 -1.3968e-07 0.000100826)
(0.0128708 5.46185e-05 0.000281034 9.9474e-06 -7.14132e-07 0.000103704)
(0.0128993 6.65785e-05 0.000288553 1.01193e-05 -1.27194e-06 0.00010525)
(0.0128794 5.66453e-05 0.000295786 1.03058e-05 -1.62943e-06 0.000109121)
(0.0128896 6.2861e-05 0.000323565 1.01137e-05 -2.05777e-06 0.000110963)
(0.0128925 5.40241e-05 0.000297766 1.01992e-05 -2.38619e-06 0.00011118)
(0.0128979 5.95011e-05 0.000284423 1.00584e-05 -2.67086e-06 0.000112517)
(0.0129107 5.73116e-05 0.000276589 1.00592e-05 -2.68047e-06 0.000110524)
(0.0128959 6.02654e-05 0.000305075 9.80164e-06 -2.06788e-06 0.00010865)
(0.0129232 5.73159e-05 0.000321262 9.64202e-06 -9.86857e-07 0.000104528)
(0.0128955 5.84878e-05 0.000301574 9.53815e-06 2.79245e-07 0.000102398)
(0.0129358 5.72729e-05 0.000283672 9.65731e-06 1.35062e-06 0.000105838)
(0.012905 5.94002e-05 0.000272172 9.86252e-06 1.73587e-06 0.000108141)
(0.0129274 6.11267e-05 0.000303419 9.91084e-06 1.68884e-06 0.000110978)
(0.0129068 6.18703e-05 0.000315029 9.86677e-06 1.35408e-06 0.000109361)
(0.0129249 5.7514e-05 0.00031607 9.40216e-06 1.27727e-06 0.000106211)
(0.0129182 5.88576e-05 0.000284847 9.04189e-06 7.48636e-07 0.000105144)
(0.0129126 5.57293e-05 0.000297916 8.69329e-06 -5.17767e-07 0.000103662)
(0.0129093 5.80439e-05 0.000293129 9.40285e-06 -1.75315e-06 0.000104918)
(0.0128837 5.53422e-05 0.000317503 1.03335e-05 -3.18039e-06 0.000105321)
(0.0128906 6.01947e-05 0.000292327 1.18355e-05 -3.37539e-06 0.000104874)
(0.0128908 6.15142e-05 0.000279759 1.26943e-05 -3.35481e-06 0.000107106)
(0.0128851 6.59334e-05 0.000278383 1.31355e-05 -2.31555e-06 0.000107969)
(0.0128807 6.17605e-05 0.000295352 1.26299e-05 -1.81592e-06 0.000109903)
(0.0128806 6.76599e-05 0.000309151 1.22577e-05 -1.03017e-06 0.000108888)
(0.0128759 6.25724e-05 0.000301533 1.14221e-05 -1.31521e-06 0.000106958)
(0.012893 6.7458e-05 0.000278543 1.12197e-05 -1.1735e-06 0.00010671)
(0.0128763 6.65947e-05 0.000286028 1.08765e-05 -1.91328e-06 0.000104792)
(0.0128969 7.06187e-05 0.000300644 1.10858e-05 -1.61982e-06 0.000105814)
(0.0128691 6.25526e-05 0.000326988 1.0949e-05 -2.12943e-06 0.00010553)
(0.0129107 6.89777e-05 0.000308406 1.1058e-05 -1.39417e-06 0.000106788)
(0.0128814 6.04544e-05 0.000294556 1.06025e-05 -1.12207e-06 0.000109749)
(0.0129224 7.05537e-05 0.00028951 1.05741e-05 2.60779e-08 0.000110246)
(0.0128904 5.86229e-05 0.000319673 1.03071e-05 -9.45821e-08 0.000111137)
(0.0129205 6.99302e-05 0.000326544 1.04876e-05 1.58735e-07 0.000111205)
(0.0128879 5.60939e-05 0.000329658 1.04909e-05 -1.75184e-07 0.000109577)
(0.0129132 6.70455e-05 0.000304158 1.04244e-05 2.53718e-07 0.000109132)
(0.0084677 2.27611e-05 0.000202362 9.23927e-06 -3.48215e-06 5.89095e-05)
(0.00852358 2.96087e-05 0.000201876 8.84557e-06 -3.34242e-06 5.76492e-05)
(0.00846472 2.15294e-05 0.000211852 8.77526e-06 -3.2873e-06 5.70837e-05)
(0.00851413 2.84878e-05 0.000199779 8.77931e-06 -3.45654e-06 5.68508e-05)
(0.00846672 2.26247e-05 0.000198995 9.08181e-06 -3.74856e-06 5.88367e-05)
(0.00851706 2.85852e-05 0.000190245 9.15446e-06 -4.26012e-06 5.9328e-05)
(0.00846468 2.41606e-05 0.000206479 9.21193e-06 -4.29252e-06 6.02365e-05)
(0.00851362 2.59977e-05 0.000204681 9.02785e-06 -4.63479e-06 5.98256e-05)
(0.00846791 2.16259e-05 0.000208751 9.04076e-06 -4.90342e-06 5.99116e-05)
(0.00850819 2.3254e-05 0.000193629 8.90854e-06 -5.16839e-06 5.92237e-05)
(0.00847523 2.21467e-05 0.000196234 8.88833e-06 -5.19772e-06 5.76669e-05)
(0.00850632 2.35512e-05 0.000194035 8.77794e-06 -4.79418e-06 5.54528e-05)
(0.00847105 2.22361e-05 0.000203488 8.6965e-06 -4.12851e-06 5.41403e-05)
(0.00850108 2.35934e-05 0.000193782 8.6785e-06 -3.40424e-06 5.37436e-05)
(0.00847043 2.36298e-05 0.000193848 8.81964e-06 -2.91658e-06 5.60944e-05)
(0.00850584 2.60075e-05 0.000187369 9.01083e-06 -2.73464e-06 5.7478e-05)
(0.00847178 2.53524e-05 0.000201999 9.10459e-06 -2.87683e-06 5.9589e-05)
(0.00851116 2.65987e-05 0.000204866 9.08524e-06 -3.13969e-06 5.95271e-05)
(0.00847045 2.30501e-05 0.000205432 8.66224e-06 -3.34498e-06 5.8885e-05)
(0.00851795 2.48521e-05 0.000193137 8.37802e-06 -3.45833e-06 5.75389e-05)
(0.00847134 2.23975e-05 0.000196375 8.15366e-06 -4.13025e-06 5.56593e-05)
(0.00851932 2.57918e-05 0.000198716 8.70179e-06 -4.4771e-06 5.48793e-05)
(0.00845619 2.36449e-05 0.000199097 9.4153e-06 -5.08995e-06 5.53039e-05)
(0.00851516 2.75191e-05 0.000199468 1.05087e-05 -5.03905e-06 5.54913e-05)
(0.00845104 2.6964e-05 0.000187861 1.11859e-05 -5.10745e-06 5.73816e-05)
(0.00851996 3.07859e-05 0.000189028 1.15947e-05 -4.5864e-06 5.70565e-05)
(0.00845134 2.7466e-05 0.000191523 1.14172e-05 -4.6329e-06 5.82427e-05)
(0.00851143 3.18937e-05 0.000196659 1.11392e-05 -4.42632e-06 5.82271e-05)
(0.00845362 2.77742e-05 0.000193569 1.04776e-05 -4.71143e-06 5.81471e-05)
(0.00851716 3.27112e-05 0.000184757 1.02151e-05 -4.51528e-06 5.75556e-05)
(0.0084526 2.90669e-05 0.000188235 9.97416e-06 -4.90135e-06 5.6862e-05)
(0.00851585 3.40048e-05 0.000190805 1.01246e-05 -4.69198e-06 5.63823e-05)
(0.00845084 2.71595e-05 0.000199994 1.01153e-05 -5.00145e-06 5.64418e-05)
(0.00851562 3.28663e-05 0.000192879 1.01773e-05 -4.64264e-06 5.725e-05)
(0.00845353 2.65683e-05 0.000191705 9.95522e-06 -4.46446e-06 5.94075e-05)
(0.00852523 3.41537e-05 0.000185335 9.93205e-06 -3.92829e-06 6.00884e-05)
(0.00846165 2.57364e-05 0.000201404 9.81629e-06 -3.87717e-06 6.09944e-05)
(0.00852878 3.30171e-05 0.000203428 9.87867e-06 -3.90735e-06 6.08219e-05)
(0.00846931 2.3957e-05 0.000207733 9.82158e-06 -3.85699e-06 6.07544e-05)
(0.0085271 3.08532e-05 0.000196599 9.59189e-06 -3.69324e-06 6.01392e-05)
(0.00483491 6.6787e-06 8.90777e-05 7.4008e-06 -3.71226e-06 2.91935e-05)
(0.00490429 1.03053e-05 8.50444e-05 7.1212e-06 -3.54284e-06 2.85336e-05)
(0.00483256 6.52605e-06 9.12908e-05 7.00496e-06 -3.47729e-06 2.88395e-05)