/*--------------------------------*- C++ -*----------------------------------*\
  =========                 |
  \\      /  F ield         | OpenFOAM: The Open Source CFD Toolbox
   \\    /   O peration     | Website:  https://openfoam.org
    \\  /    A nd           | Version:  10
     \\/     M anipulation  |
\*---------------------------------------------------------------------------*/
FoamFile
{
    format      ascii;
    class       surfaceScalarField;
    location    "20";
    object      phi_0;
}
// * * * * * * * * * * * * * * * * * * * * * * * * * * * * * * * * * * * * * //

dimensions      [0 3 -1 0 0 0 0];

internalField   nonuniform List<scalar> 
74080
(
0.00533237
2.15669e-05
-3.32107e-05
0.00536972
2.70518e-05
-2.86455e-05
0.00545745
1.7186e-05
-7.6982e-05
0.00552013
2.3547e-05
-0.000116249
0.0055182
5.93417e-05
-0.000149013
0.00547797
4.68655e-06
-0.000154594
0.0054359
-3.72907e-05
-0.000197319
0.00542677
-3.48519e-05
-0.000228755
0.00546861
-9.17113e-05
-0.000205812
0.00550708
-0.00014149
-0.000160456
0.00550782
-0.000189665
-1.48113e-05
0.00546677
-0.000159759
9.06397e-05
0.00542878
-2.18892e-06
0.000150006
0.00545977
0.000155242
0.000236279
0.00552459
0.000201518
0.000278292
0.00554929
9.95205e-05
0.000361141
0.00545099
-8.04549e-05
0.000423132
0.00528396
-0.000217242
0.000449288
0.00517958
-0.000239303
0.00045079
0.00516787
-0.000147045
0.000300903
0.00526346
2.75269e-05
8.62059e-05
0.00538236
0.000193835
-0.000125556
0.00540664
0.00028094
-0.000227652
0.00535495
0.000226291
-0.000170699
0.00525586
5.6373e-05
-9.04803e-05
0.00515091
-9.40579e-05
-3.66146e-05
0.0050941
-0.000185307
5.70969e-06
0.00503224
-0.000192111
5.4341e-05
0.00500876
-0.000232841
0.000109618
0.00501675
-0.000291062
0.000166553
0.00505619
-0.00027185
0.000159058
0.00517013
-0.000221514
9.32482e-05
0.0053199
-9.43488e-05
-9.00893e-06
0.00548576
7.52379e-05
-0.000125597
0.0055921
0.000170822
-0.000170678
0.00559342
0.000201719
-0.000168377
0.00553649
0.000166422
-0.000167397
0.00545562
7.74191e-05
-0.00015784
0.00538841
3.90975e-05
-0.000114042
3.57113e-05
-7.42671e-05
0.00496464
9.96881e-05
-0.000177752
0.00486622
7.22974e-05
-0.00013077
0.00483949
-1.56089e-05
-0.000177286
0.00486199
-4.05541e-05
-0.00022495
0.00492066
-3.14945e-05
-0.000242034
0.00500184
-9.21701e-05
-0.000272847
0.00504195
-0.000105813
-0.000283102
0.00504318
-0.000108681
-0.000236918
0.00498593
-0.000135203
-0.000170095
0.00489183
-0.000181218
-1.87735e-06
0.00485473
-0.00031546
0.000222889
0.00489958
-0.000343146
0.000383853
0.00503497
-0.000194749
0.000487894
0.00519373
6.29838e-05
0.000494238
0.0052492
0.000233579
0.000486028
0.00515305
0.000145933
0.000472133
0.00491556
-7.48346e-05
0.000378374
0.00468701
-0.000285316
0.000293529
0.00460984
-0.000393096
0.000227104
0.00468253
-0.000333067
0.00019545
0.00486326
-0.000178974
0.000205827
0.00499838
2.22542e-05
0.000165029
0.00498147
0.000199142
0.000105321
0.00488504
0.000187281
1.69343e-05
0.00475257
7.22912e-05
-8.19687e-05
0.00466116
-6.37077e-05
-0.000100376
0.00461543
-0.000145998
-1.34642e-05
0.00457033
-0.000125768
0.000156733
0.00458342
-0.000221343
0.000269886
0.00459268
-0.000301368
0.000302483
0.00461349
-0.000294172
0.000221139
0.00464588
-0.000261305
0.000116886
0.00469575
-0.000151713
3.4173e-05
0.00480806
-4.32284e-05
-1.52443e-05
0.00491564
3.71872e-05
-4.82809e-05
0.0050118
9.13099e-05
-0.000150341
0.0050894
0.000100832
-0.000299987
0.00512425
9.16002e-05
-0.000411806
0.00511935
0.0001088
-0.000401301
0.000106884
-0.000297748
0.00428738
8.69101e-05
-6.91619e-05
0.0042803
-3.39335e-05
-5.38049e-05
0.00431002
-0.000145757
-0.00016254
0.00433484
-9.43201e-05
-0.000244094
0.00434855
-2.8531e-05
-0.000189376
0.00436984
-6.39314e-05
-0.00014694
0.00441571
-0.000121718
-6.81208e-05
0.0044922
-0.000228102
4.77231e-05
0.00451795
-0.000285867
7.81496e-05
0.00445942
-0.000303368
0.000177336
0.00438064
-0.000324259
0.000287542
0.00440099
-0.000283762
0.000378628
0.00465596
-0.000230023
0.00043622
0.0050214
-0.000133393
0.000407337
0.00515013
-1.37393e-06
0.000455328
0.00489039
7.97689e-05
0.000477702
0.00443735
5.48076e-05
0.000423714
0.00410772
-0.000113625
0.000370462
0.00402114
-0.000287082
0.000237851
0.00410171
-0.000322383
0.000115142
0.00421677
-0.000250568
5.06836e-06
0.00429769
-0.000102409
-5.57972e-05
0.00436139
2.08191e-05
-5.51753e-05
0.00440673
4.02876e-05
-0.000123582
0.00440625
6.77483e-05
-0.000140962
0.00443365
-9.61973e-07
-6.78357e-05
0.00449624
-0.000113762
3.6552e-05
0.0045568
-0.000145842
0.000125022
0.0045503
-0.000252035
0.000152122
0.00444012
-0.000266501
0.000214567
0.00433087
-0.000252042
0.000272105
0.00423745
-0.000257294
0.000249
0.00424392
-0.000272537
0.00011199
0.00434497
-0.000309931
-4.37387e-07
0.00439775
-0.000200577
-6.28795e-05
0.00439567
-2.08088e-05
-0.000129516
0.00437158
0.000132633
-0.000217632
0.00435485
0.000241273
-0.000338601
0.00434659
0.000271916
-0.000334974
0.000188574
-0.000191494
0.00376436
-2.38224e-05
8.43311e-05
0.00376523
-0.000124692
-0.000107128
0.00382019
-0.000164993
-0.000323276
0.00394419
-5.04134e-05
-0.000246231
0.00403472
-6.2023e-06
3.27558e-05
0.00401738
-4.47155e-05
0.000190351
0.00391013
-0.000102728
0.000262663
0.00379352
-0.000218699
0.000206981
0.00374585
-0.000273776
4.7057e-05
0.00379206
-0.000327352
4.68005e-05
0.00390514
-0.000289668
0.00014989
0.00404691
-0.000118943
0.000303443
0.00425275
-2.9345e-05
0.000408977
0.00447389
-4.45271e-05
0.000396687
0.00455307
-3.68928e-05
0.000434008
0.00441183
3.73202e-05
0.000457571
0.00411552
8.36771e-05
0.000437222
0.00383285
-4.09892e-05
0.000378583
0.00369239
-0.000230511
0.00017266
0.00368904
-0.00029553
-9.09039e-05
0.00377699
-0.000275725
-0.000370317
0.00394054
-0.000185603
-0.000534091
0.00408609
-4.51814e-05
-0.000486328
0.00412024
4.74199e-05
-0.000320837
0.00410816
7.45197e-05
-0.000135461
0.00413381
-3.08637e-05
-9.10896e-05
0.00413067
-0.000114375
-6.26799e-05
0.00404549
-0.000102096
2.73617e-05
0.00389469
-0.000162252
9.08355e-05
0.00382902
-0.000181276
0.000125875
0.00387068
-0.000200306
0.000108957
0.00386293
-0.000196098
8.86515e-05
0.00385016
-0.000279569
4.17133e-05
0.00383437
-0.000386629
-1.88331e-05
0.00381629
-0.000268221
-0.000129396
0.00386598
-7.92794e-05
-0.000283696
0.00392197
0.000131742
-0.00041757
0.00389779
0.000299781
-0.00040529
0.00382879
0.00030196
-0.000176119
0.000111782
7.37532e-05
0.00330168
6.39281e-05
0.000184114
0.00311742
-0.000138083
-0.000124414
0.00320602
-0.000324549
-0.000291389
0.00349526
-0.000307505
-9.77943e-05
0.00369598
-0.000196088
0.0001291
0.00362907
-5.09608e-05
0.000143756
0.00340904
-4.4291e-05
0.000211098
0.00326885
-0.000169345
0.000239801
0.00329416
-0.000229422
0.000131827
0.00341602
-0.000297147
4.72119e-05
0.00351833
-0.00026311
-4.23304e-05
0.00356063
-8.85818e-05
-6.5941e-05
0.00354028
6.7115e-05
-9.82302e-05
0.00342873
0.000152261
-0.000125815
0.00331291
0.000178697
7.00273e-05
0.00329835
0.000101745
0.000272263
0.00334466
-6.58886e-05
0.000264778
0.00341774
-0.000220236
6.4479e-05
0.00348733
-0.00031826
-0.000215999
0.00348976
-0.000295961
-0.000368107
0.00343105
-0.000215143
-0.000372184
0.00338817
-8.11555e-05
-0.000306613
0.00339311
5.47386e-05
-0.000213293
0.00345003
2.37063e-05
-0.000132374
0.00348806
-5.83222e-05
-0.000144541
0.00347097
-0.000110233
-0.000214173
0.00338482
-1.3139e-05
-0.000157089
0.00330818
5.58654e-05
-6.50427e-05
0.00332914
-9.74684e-05
8.38386e-06
0.00346237
-0.00024419
-3.06133e-05
0.00350512
-0.00023909
-0.000179522
0.00336083
-8.47691e-05
-0.0002242
0.00327872
-0.000148252
-0.000160426
0.00334772
-0.000353845
-7.36443e-05
0.00349247
-0.000299047
-0.000231698
0.00357758
-0.000119088
-0.000550161
0.00354211
8.35413e-05
-0.000673255
0.0035187
0.000220623
-0.000395876
0.00356056
0.000251855
0.000107149
0.00017236
0.000338267
0.00292557
9.03495e-05
0.000274979
0.00282973
-0.00010364
-2.95684e-05
0.00288281
-0.000332482
-0.000251989
0.00308247
-0.000454814
-0.000213781
0.00331911
-0.000412725
-7.50882e-05
0.0033663
-0.000136862
9.42435e-05
0.00315399
4.28333e-05
0.000322339
0.00289612
-7.35926e-05
0.000294839
0.00286618
-0.000244381
1.65207e-05
0.00305526
-0.000326458
-0.000118558
0.00325514
-0.000187064
-0.000151686
0.00331045
8.88719e-08
-0.000121728
0.00316707
0.000140407
-0.00011863
0.00297829
0.000228116
-7.99037e-05
0.00295056
0.000169308
0.000157882
0.00309122
-3.00788e-05
0.000249496
0.00323589
-0.000329033
0.000141591
0.0031988
-0.000289291
-4.47714e-05
0.00303409
-0.000154175
-0.000217473
0.00291131
-0.000184422
-0.000156967
0.00294979
-0.000268773
1.93125e-05
0.00305312
-0.000120814
7.75551e-05
0.00309136
7.25981e-05
3.64424e-05
0.00310205
1.15427e-05
-2.62085e-05
0.0030549
-5.6426e-05
-0.000138442
0.00301723
-9.00621e-05
-0.000225575
0.00302048
-5.08916e-05
-0.00011982
0.00304604
-5.20531e-05
-8.30591e-06
0.00312886
-0.00023491
9.66761e-05
0.0032353
-0.000266403
-5.92142e-05
0.00323972
-0.000102305
-0.000281265
0.00311216
0.000143872
-0.000196104
0.00303897
-2.35863e-05
-4.50842e-05
0.0030687
-0.000351181
-2.29877e-05
0.00316188
-0.000336772
-0.000182071
0.00318702
-0.000195121
-0.000208332
0.0031162
-3.44307e-05
1.15684e-05
0.00310395
2.95914e-05
0.000290982
0.00317026
0.000135501
0.000414592
0.000160925
0.000415772
0.00273527
-0.000104329
1.32664e-06
0.00277845
-0.000144223
-0.000209905
0.00267462
-0.000203585
-0.000293028
0.00267677
-0.000377619
-0.000186314
0.00291751
-0.000430067
-8.05579e-05
0.00316569
-0.000227646
-1.29248e-05
0.00304067
4.6904e-05
0.000154973
0.00264956
0.000111935
-1.02259e-05
0.00251948
-0.000101981
-0.000266767
0.00267402
-0.000299579
-0.00010814
0.0027853
-0.000134148
0.000172434
0.00281799
0.000131381
0.000260721
0.00277522
0.000358015
0.00010592
0.00275905
0.000351541
1.06748e-05
0.00284715
0.000179608
4.90002e-05
0.00291554
0.000114687
-4.05939e-05
0.0028853
-0.000138015
-6.10013e-05
0.00276092
-0.000242812
-0.000136905
0.00263404
-0.000182886
-0.000264653
0.00262294
-0.000228695
-6.11665e-05
0.0027439
-0.000331494
0.000184923
0.00293837
-0.000210413
0.000195079
0.00304148
-3.27946e-06
0.00019085
0.00302512
2.76211e-05
0.000209974
0.00293867
6.88055e-05
0.000111665
0.00293355
-1.55358e-05
9.29671e-06
0.00292846
-8.99679e-05
3.57462e-05
0.00285961
-0.000132624
5.62724e-05
0.00273369
-0.000210767
0.000175479
0.00262053
-0.00016216
6.96733e-05
0.00261341
-5.00885e-05
-6.31097e-05
0.00268121
0.000125013
6.38348e-05
0.00280285
-0.000119745
0.000132438
0.00286059
-0.000415832
3.16419e-05
0.00287643
-0.0004535
-0.000175647
0.00287146
-0.000461846
-0.000101598
0.00274289
-0.000173129
0.00014987
0.0026333
1.78515e-06
0.000244797
0.00262513
0.000117444
0.000156471
1.73998e-05
0.000107711
0.00240689
-0.000176835
-6.39474e-05
0.00255808
-0.000160579
-8.32932e-05
0.00259219
-0.000192474
-0.000115276
0.00261662
-0.000350102
-0.000140288
0.00262512
-0.000348
-0.000146988
0.00269863
-0.000270167
-9.2056e-05
0.00277264
7.54532e-05
-5.72184e-05
0.00257331
0.000380446
2.60322e-05
0.00230783
7.67037e-05
0.000151574
0.00222039
-0.000199145
0.000184056
0.00226964
-0.000118731
0.000240156
0.00247873
4.19176e-05
0.000338077
0.00275702
0.000242549
0.000371773
0.00287814
0.000260665
0.000256002
0.00280866
0.000195382
4.5145e-05
0.00263881
0.000241656
-8.52348e-05
0.00248361
-1.40922e-05
-1.07896e-05
0.00241579
-0.000164414
-9.98365e-05
0.0023812
-0.000197537
-0.000112882
0.00234336
-0.000406203
0.000210183
0.00231515
-0.000540412
0.000293013
0.00240567
-0.00037244
0.000204067
0.00255088
-6.93067e-05
0.000183721
0.002639
3.98637e-05
5.25454e-05
0.00263778
8.64977e-05
-3.49296e-05
0.00250975
-2.92548e-05
7.65942e-05
0.00231098
-6.31542e-05
-6.94819e-06
0.00221242
-9.13479e-05
-0.000144479
0.00213023
-0.000152817
4.96547e-05
0.00209178
-6.46127e-05
5.79076e-05
0.00225051
-1.83216e-05
4.31568e-05
0.00247667
6.15062e-05
7.45087e-06
0.00257457
-0.000226185
2.34837e-05
0.00248231
-0.000368475
-9.77177e-07
0.00244754
-0.000378293
-0.000192461
0.00258328
-0.00049739
-0.000159197
0.00256105
-0.000207761
-4.28358e-05
0.00236506
1.07029e-05
2.40748e-05
0.00222659
0.000128752
-1.22941e-05
-5.7353e-05
-6.25074e-05
0.00208944
-0.000164809
0.000291029
0.00206547
-9.34216e-05
0.000149511
0.00216731
-9.19563e-05
-0.000159297
0.00241918
-0.00022992
-0.0001379
0.00255547
-0.000137304
-1.12917e-05
0.0024835
-0.000171543
5.7689e-05
0.00228096
0.000201085
0.00016316
0.00223134
0.000276004
0.000281315
0.00223418
-2.06683e-05
6.46053e-05
0.00210666
0.000121365
-0.000208868
0.00201905
6.87857e-05
-2.55008e-05
0.00217338
-0.000131231
0.000457342
0.00245102
-6.24798e-05
0.000644103
0.00253836
6.71104e-05
0.00032021
0.00243103
0.000144898
2.43769e-05
0.00219695
0.00025626
-2.74954e-05
0.00207098
-5.71086e-05
3.84937e-05
0.00212555
-8.65673e-05
-4.14838e-05
0.00211937
-5.74574e-05
0.000120805
0.00206075
-0.000446781
0.000285846
0.00207879
-0.00071348
0.000156577
0.00215268
-0.000621388
4.95868e-06
0.00223388
-0.000207812
-9.49497e-05
0.00222837
8.37604e-05
-6.17629e-05
0.00208839
0.000196258
1.86893e-05
0.00190099
-2.84881e-05
4.301e-05
0.00182901
-0.000119823
-7.48495e-05
0.00195404
-0.000168681
-1.19754e-05
0.00206351
-0.000287098
0.000256914
0.00204487
-9.25204e-05
0.000242334
0.00198398
5.75972e-05
0.000183907
0.00200593
0.000168678
2.06159e-06
0.00208072
-0.00023353
-7.05998e-05
0.00207651
-0.000364633
-1.94256e-06
0.00205914
-0.000258923
-3.44621e-05
0.00212417
-0.000380861
5.18884e-05
0.0023047
-0.0002308
-2.40255e-05
0.00246092
-0.000197501
-5.18671e-05
0.00236223
8.38105e-05
2.16769e-05
-1.08569e-05
0.000109738
0.00195137
5.46381e-06
-4.87985e-05
0.00196786
-5.74562e-05
-7.45143e-05
0.001936
-0.000146743
-0.000111361
0.00194878
-0.000322794
4.66267e-05
0.00207202
-0.000175204
-1.44502e-05
0.00212818
-0.000208479
-0.000160224
0.00203803
0.000192701
6.63627e-05
0.00209897
0.000106063
0.000133491
0.00227156
-0.00011531
-0.000232007
0.00233788
0.000281864
-0.00021999
0.00222627
0.000193009
0.000263889
0.0021675
-0.000142425
0.000493632
0.00223057
-0.000150592
0.000384377
0.00210104
3.18171e-05
0.000126414
0.00193108
0.000224694
-0.000177828
0.00185821
0.000275389
-0.000218528
0.00177208
-0.000184948
5.82785e-05
0.00179993
-0.000276754
0.000162259
0.00191941
-0.000201921
0.000187907
0.00199132
-0.000374182
5.70974e-05
0.00201167
-0.000565647
-0.000147081
0.00200683
-0.000574104
-0.000145075
0.00196475
-7.84294e-05
-4.96338e-05
0.00190516
0.0001549
0.00012757
0.00193029
0.000217325
8.95558e-05
0.00200053
-8.91964e-05
-9.69253e-05
0.00197854
-0.000189468
-6.79297e-05
0.00195397
-0.000160603
4.00928e-05
0.00185487
-0.000269615
0.000148154
0.00175524
-0.000107849
0.000137315
0.00174093
1.29752e-05
0.000265009
0.00185542
0.00015111
0.000184287
0.00199755
-0.00027885
-6.28491e-05
0.00202048
-0.000452518
0.000102166
0.00185962
-0.000253694
0.000209153
0.00168836
-0.000213383
0.00011133
0.00180031
-0.000238074
0.000111463
0.00205409
-0.000488077
0.000230235
0.00211209
-0.000114439
0.000215771
6.83157e-05
-4.43677e-05
0.00173943
7.45894e-05
8.47926e-05
0.00169228
-7.15809e-05
0.000172593
0.00169772
-0.000157354
-2.17734e-05
0.00183275
-0.000393713
-5.90888e-05
0.00187862
-4.55308e-05
-0.000240552
0.0019684
-5.7558e-05
-0.000255868
0.00212783
6.00916e-05
0.000131125
0.00199327
0.000235432
8.3989e-05
0.00197919
-3.51576e-05
-0.000180271
0.00203607
0.000207335
4.40663e-05
0.00194707
0.000194319
0.000273511
0.00188934
-2.74143e-05
8.32488e-05
0.00196044
-9.61928e-05
9.56904e-05
0.00182183
1.6527e-05
0.000193403
0.00164228
0.000225131
-7.35826e-05
0.00176494
4.14533e-05
-0.000102458
0.00173982
-0.00041714
0.000170577
0.00163321
-0.000428058
0.000211659
0.00163463
-0.000240925
-1.90875e-05
0.0015388
-0.000141563
-0.000206201
0.0014818
-0.000326893
-0.000142769
0.00156318
-0.000654738
0.000104481
0.00163419
-9.54092e-05
0.000176391
0.00167395
0.000157067
0.000178665
0.00176736
0.000208608
-1.68446e-05
0.00179136
-0.000140993
-9.33551e-05
0.00172078
-0.000238632
-3.17326e-05
0.00174247
-0.000156047
-1.55924e-05
0.00173097
-0.000317692
0.000127667
0.00168359
-0.000158172
9.34539e-05
0.00171052
1.27803e-05
0.000220918
0.00188073
8.18382e-05
0.000271435
0.00189338
-0.000186409
0.000122515
0.00187534
-0.000330259
0.000117782
0.00180549
-0.000232566
0.000203176
0.00163928
-0.000122368
0.000177884
0.00152947
-0.00019936
0.000225394
0.00162964
-0.00058594
0.00025908
0.00185224
-0.000232187
8.07264e-05
0.000167942
-0.000106534
0.00168438
-0.000160544
0.000322317
0.00162364
-1.38412e-05
0.000293198
0.00152431
-1.71152e-05
-1.54471e-05
0.00149244
-0.00034454
-8.80014e-06
0.00148426
-3.4535e-05
-0.000263924
0.00169631
-0.000197333
-0.000320166
0.00182524
-4.06942e-05
5.5404e-05
0.00161473
0.000422109
-3.49893e-05
0.00173072
-0.000111431
-0.000152578
0.00198451
-3.6436e-05
0.000116682
0.00201222
6.06604e-05
0.00026626
0.00185059
-4.80223e-05
0.000375658
0.00174006
2.7257e-05
0.000403069
0.00160158
1.64444e-05
0.000233832
0.00148074
-3.06872e-05
-1.77287e-05
0.00158776
-0.000320799
0.000157511
0.00158373
-0.000507165
0.000401311
0.00151297
-0.000304131
0.000177173
0.0013456
-4.04112e-05
-5.88346e-05
0.0012185
2.82507e-05
-4.7557e-05
0.00130799
-0.000257833
-5.87367e-05
0.00145905
-0.000642092
-0.000104891
0.00165361
-0.000202359
5.88896e-05
0.0017568
-1.12898e-05
0.000264791
0.00181791
5.07562e-05
8.06267e-05
0.00176929
-0.000218533
-0.000151075
0.00166999
-0.000196539
-3.62971e-05
0.00163775
-3.02996e-05
0.000111221
0.00161659
-0.0003176
0.000100132
0.00153863
-0.000254291
0.00019908
0.0015749
-3.33248e-05
0.000358506
0.00175082
-4.69169e-05
0.000307819
0.00174314
-0.000111866
0.000230259
0.00172776
-0.00030724
0.000249585
0.00163553
-0.000260494
0.00043511
0.00150418
-0.000121015
0.000415717
0.00139047
-0.00020641
0.000287332
0.00135369
-0.000553694
0.000136288
0.00143505
-0.000174011
-6.0522e-05
8.08214e-05
0.000106971
0.00159022
-0.000266551
0.000284799
0.00150083
6.6153e-05
0.000105673
0.00147395
8.61314e-05
0.000107622
0.00143466
-0.000292617
0.000238684
0.00150371
-0.000251101
-0.000344538
0.00159807
-0.000308128
-0.000526507
0.00154553
0.00012784
-0.000177004
0.00157635
0.000413512
-0.000146788
0.00158603
-0.000202732
-9.10752e-05
0.00165633
-9.60862e-05
6.64745e-05
0.00178255
2.74766e-05
0.000114946
0.0016363
6.48174e-05
0.000342871
0.00154864
0.000103316
0.000345604
0.00154054
-0.000129066
9.23684e-05
0.00147015
-0.000250134
2.54001e-05
0.00147306
-0.000380017
0.000137706
0.00144564
-0.000351296
0.000211956
0.00133952
2.99534e-05
-2.23406e-05
0.00111579
0.000278475
-0.000130682
0.00109798
1.46549e-05
8.89851e-05
0.00117107
-0.000381765
0.000269425
0.00121487
-0.000459914
-1.69792e-05
0.00134231
-0.000119179
-1.04526e-05
0.00141164
-0.000120937
0.000202682
0.00158231
-0.00012569
3.6984e-05
0.00160382
-0.000264966
-0.000148595
0.00148168
-0.000145552
-0.000134319
0.00143775
2.22082e-05
3.67257e-05
0.00144107
-0.000347656
7.22725e-05
0.00140144
-0.000275276
0.000182178
0.00138747
0.000105154
0.000296924
0.00129037
0.000147863
5.6476e-05
0.00119958
-7.16215e-05
5.14767e-05
0.00134628
-0.000455481
0.000209687
0.00137504
-0.000253128
0.000193516
0.00128561
-4.9279e-05
0.000108829
0.00122692
-0.000210066
4.74177e-05
0.00122721
-0.000614809
0.000179165
0.00133573
-0.000248079
-0.000100853
-8.62796e-05
4.00044e-05
0.00134604
-0.000126859
0.00034053
0.00133835
0.000167589
2.53701e-05
0.00130136
0.000251104
-0.000121842
0.00128197
-0.000179677
4.89385e-05
0.00145026
-0.000361754
-0.000231117
0.00153272
-0.000362347
-0.000388609
0.00153016
0.000175987
-0.000208973
0.0015365
0.000447298
-3.24901e-05
0.00127188
3.53141e-06
0.000172397
0.00128149
2.88012e-05
0.00011176
0.00162624
-0.00011599
-1.75997e-05
0.00168689
-9.95133e-05
2.16596e-05
0.00162692
-6.8655e-05
5.14528e-05
0.00152831
-0.000140499
-0.000104186
0.00131396
-5.67206e-05
-3.9488e-05
0.00113135
-0.00017438
0.000149827
0.00104051
-0.000204388
0.000163151
0.00105615
3.6025e-05
0.000119891
0.00121328
6.71164e-05
0.000151079
0.00129667
-0.000164188
0.000127363
0.00103176
-0.000252463
0.000231318
0.000991061
-0.000314352
0.000137745
0.00125527
-0.000195358
2.70662e-05
0.00123747
-0.000244698
0.000129862
0.00114655
-0.000261581
1.24487e-05
0.00113681
-0.000211112
-3.8146e-05
0.00115094
-5.8523e-05
-0.000116417
0.00135233
-0.000120354
-8.05419e-05
0.00149182
-0.000422375
7.04384e-05
0.00140659
-0.00017568
0.000216166
0.00135753
0.000272136
0.000324128
0.00127427
0.000271397
8.2519e-05
0.00116526
-2.92951e-05
0.000122346
0.00130166
-0.000557077
0.00032338
0.00127307
-0.000221716
0.000181121
0.00114756
-3.55864e-05
-4.93176e-05
0.00118211
-0.000350184
9.94824e-05
0.00125751
-0.000681982
0.000318125
0.0013601
-0.000196423
-0.000162527
6.78236e-05
-8.90905e-05
0.00115223
-0.000193939
0.000245715
0.00110606
0.000311277
-0.000194834
0.00109226
0.000359431
-0.000187708
0.000987541
-6.61799e-05
-1.9989e-05
0.00116085
-0.000409683
-0.00026724
0.00135326
-0.000445453
-0.000276449
0.00128924
0.000140152
-6.98739e-05
0.00117817
0.000449405
0.000100143
0.000976558
4.93978e-05
0.00028493
0.0010563
8.43366e-05
7.02528e-05
0.00136278
-0.000287501
0.000131009
0.00153583
-0.000303697
0.000173265
0.00146805
-0.000201062
0.000136971
0.00143297
-0.000210559
-0.000186177
0.00141449
1.63226e-05
-0.000136179
0.00110286
2.16511e-05
0.000179151
0.000832317
-6.78843e-05
0.000160436
0.000892649
-0.000163602
0.000206557
0.001033
-0.000156438
0.00022751
0.00108119
-0.000156383
2.52856e-05
0.000907917
-0.000160405
9.45045e-05
0.000907302
-0.000247932
7.33219e-05
0.00113661
-0.000225133
-2.51216e-05
0.00114427
-0.000397635
0.000183919
0.00107181
-0.000369592
0.000119175
0.00101617
-0.000122389
-8.44791e-05
0.000990955
-1.23724e-05
-0.000151157
0.0010879
-0.000217972
4.07008e-05
0.00121446
-0.000522589
5.32118e-05
0.00121074
4.45675e-06
5.77438e-05
0.00126515
0.000415987
0.000366848
0.00127346
0.000262319
0.000320401
0.00107224
7.24671e-05
0.000125288
0.00111587
-0.000457864
0.00020168
0.00110317
-0.000101999
0.000143305
0.00102708
5.72769e-05
-0.000182703
0.00108397
-0.000427663
-0.000110837
0.00101922
-0.000521413
0.000124151
0.00101622
2.77203e-05
-0.000128949
0.000101271
-2.79445e-05
0.000991983
-0.00039018
0.000362542
0.00112082
0.000257879
5.30205e-07
0.00123284
0.00026441
0.000100804
0.00102296
-2.34351e-05
4.20336e-05
0.00091064
-0.00017243
-0.000380315
0.00102598
-0.000346893
-0.000222913
0.00106172
0.000218314
-0.00012702
0.000998987
0.000433816
0.000154002
0.000964601
3.31052e-05
0.000246986
0.00123987
1.98848e-05
4.5524e-05
0.00137752
-0.000423669
0.000252867
0.00113991
-0.000191337
0.000256386
0.000936119
-9.21807e-05
0.00010658
0.000926477
-0.00028482
-4.39059e-05
0.000948587
-2.203e-05
7.57903e-05
0.00086386
-5.6877e-06
0.000225301
0.000779285
-1.32524e-06
0.000129372
0.000765846
-0.000187082
0.000173712
0.000768816
-0.000186267
7.09746e-05
0.000887161
-0.000192225
1.57958e-06
0.000877524
-0.000276952
0.000197236
0.000908884
-0.000224815
6.96724e-05
0.000953537
-0.000210944
4.45652e-05
0.000945611
-0.000414876
3.35692e-05
0.00103812
-0.000407015
6.30527e-06
0.000990515
-0.000118685
-3.86732e-05
0.000905999
-9.19425e-05
-1.66848e-06
0.000842037
-0.000242424
0.000163918
0.000890817
-0.000585301
5.90997e-06
0.00100866
1.06705e-05
-7.89336e-05
0.00110297
0.000425373
0.000295198
0.00116778
0.00011498
0.000321277
0.000990847
6.73097e-05
0.000214309
0.000911973
-0.000194258
9.14459e-05
0.000841049
-6.38808e-05
-9.76032e-05
0.000737996
3.34073e-06
-0.000234393
0.000795314
-0.000497913
-8.52745e-05
0.000852539
-0.000510944
-4.89592e-05
0.000865971
0.000221312
-0.000187814
7.08763e-05
0.000135221
0.000957002
-0.000401826
0.000149024
0.00113722
0.000207353
-0.000194894
0.00118176
0.000250376
6.07122e-06
0.00091903
0.000111064
-9.28269e-05
0.000830313
9.71969e-06
-0.000335712
0.000925951
-0.00031766
-8.7296e-05
0.000942542
0.000319401
-0.000111983
0.000944273
0.000315299
0.000118727
0.00096772
4.24342e-05
0.000165424
0.00107842
3.95378e-05
5.27379e-05
0.00116317
-0.000422493
0.000194271
0.00102127
-0.00010678
0.000100031
0.000882095
2.21913e-06
6.06495e-05
0.00080085
-0.000262873
0.000143141
0.000780699
-9.25315e-05
0.000185791
0.000772752
-0.000178858
0.000265565
0.000791528
-9.40763e-05
0.000114506
0.000771166
-0.00010724
7.57851e-05
0.000760089
-4.65202e-05
7.90728e-06
0.000785793
-0.000101442
-8.3331e-05
0.000791756
-0.000293827
2.74314e-05
0.000922631
-0.000263348
0.00012435
0.000905143
-0.000126047
5.77018e-05
0.000805008
-0.000362723
-4.77258e-06
0.000828293
-0.000347588
4.41044e-05
0.00081264
-0.000165417
1.92355e-05
0.000885487
-0.000297385
4.73102e-05
0.000859603
-0.000170593
2.35892e-05
0.000753191
-0.000434414
-5.39044e-05
0.000881153
-7.77111e-05
-2.01832e-05
0.000965975
0.000428193
0.00024781
0.000966502
1.00545e-05
0.000215845
0.000896532
2.25255e-05
0.000216053
0.000889661
-0.000114087
0.000182567
0.000757978
-7.55413e-05
-1.37035e-05
0.000547941
-5.55838e-05
0.000133525
0.000603511
-0.000639781
0.000265323
0.000748585
-0.000468631
-0.000178164
0.000823477
0.00045226
-0.000352634
0.000116009
5.22251e-05
0.000758624
-0.000437332
0.000107557
0.000970642
3.87039e-05
-0.000158092
0.00102976
0.000212014
-2.40532e-05
0.000830099
0.000207737
-0.000173556
0.000849052
9.57755e-05
-0.000333921
0.000923477
-0.000243503
-7.76946e-05
0.000910408
0.000464515
1.98577e-05
0.000907733
0.000264079
0.000170995
0.00100159
-7.27597e-05
6.41026e-05
0.00102227
9.22832e-05
-4.99311e-05
0.000920929
-0.000336675
0.000171193
0.000863175
-0.000127032
5.09653e-05
0.000825953
-1.24232e-05
4.13268e-05
0.000795341
-0.000197254
0.000129073
0.000786659
-8.71193e-05
9.89941e-05
0.000745371
-0.000220906
0.000197381
0.000657543
-6.78026e-05
0.000164072
0.000636838
-8.43952e-05
3.47395e-05
0.00069626
7.31158e-05
-5.83257e-05
0.00073699
-1.81116e-05
1.48695e-05
0.000769955
-0.000273009
5.19955e-05
0.000815055
-0.00016984
2.74136e-05
0.000758525
-1.10507e-05
5.19682e-05
0.000767684
-0.000417395
5.59935e-05
0.000834849
-0.000310551
0.00010809
0.000767516
-0.000117892
7.86654e-05
0.000854034
-0.000367272
8.55461e-05
0.000810234
-5.28911e-05
3.1556e-05
0.000671339
-0.000298941
-0.000154137
0.000836152
-0.000204755
0.000106466
0.00095506
0.000382521
0.000266571
0.000972976
-0.000115352
0.000187671
0.000950611
-7.53163e-05
0.000310709
0.000879514
-3.4684e-05
0.000170221
0.000702863
-2.37177e-05
2.25029e-05
0.00053704
-0.000111279
0.000241077
0.000557184
-0.000634751
0.000146213
0.000719578
-0.000362047
-0.000239706
0.000864842
0.000528579
-0.000273175
8.19828e-05
9.19606e-05
0.00053187
-0.000402999
0.000119864
0.000746781
-0.000116028
-0.000119386
0.000914143
6.65645e-05
-2.63883e-05
0.00075619
0.000248186
-0.000235814
0.000760476
7.51341e-05
-0.000287152
0.000812075
-0.000210855
-7.32595e-05
0.000837609
0.000559816
3.5885e-06
0.000819202
0.000293529
0.000129227
0.000906097
-0.000116024
-5.75099e-06
0.000967663
6.86009e-05
2.55079e-05
0.000850362
-0.000303561
9.06214e-05
0.000776258
-0.000170572
4.09643e-05
0.000753498
4.7133e-06
-8.11181e-06
0.000743684
-0.000171626
-2.84396e-05
0.000710224
-0.000103902
7.53272e-05
0.000680618
-0.000121163
8.69028e-05
0.000599157
-2.7462e-05
6.55267e-05
0.000583837
-6.95946e-05
6.84457e-05
0.000639741
0.000138552
-7.13684e-05
0.000654377
1.55977e-06
0.000152602
0.000673213
-0.000343095
0.0002029
0.000700679
-0.000129662
1.03144e-05
0.000668198
5.4111e-06
8.5743e-05
0.000688519
-0.000408717
7.97853e-05
0.000758927
-0.000273684
9.80952e-05
0.000733663
-0.000108978
1.90978e-05
0.000816665
-0.000337796
1.56747e-05
0.000787797
-3.2825e-05
3.48335e-05
0.000691545
-0.000186802
-9.67743e-05
0.000820756
-0.000208406
7.55685e-05
0.000896523
0.000437353
0.000111317
0.000845771
-0.000118997
0.000213765
0.000820799
-0.000111106
0.000368971
0.000765702
5.8345e-05
0.000170338
0.000638035
-0.000138491
9.82811e-05
0.000558493
-0.000209022
0.000104433
0.000534967
-0.000403219
-0.000115124
0.00073783
-0.00037389
-0.000231399
0.000888932
0.00028244
-0.000111862
4.27205e-05
0.000222124
0.000426713
-0.000265412
-7.1533e-06
0.000581366
-0.000184198
-5.19144e-05
0.000802415
-5.76604e-05
0.000132435
0.000817563
9.3953e-05
-5.81196e-05
0.000804624
-7.75584e-06
-0.000115466
0.00069216
-9.02537e-06
-8.595e-05
0.00072355
0.000706731
-9.45072e-05
0.000719713
0.000405047
1.61506e-05
0.000800753
-0.000175381
-1.61051e-05
0.000912361
-0.000121378
0.000161689
0.000742947
-0.00014326
5.08049e-05
0.000592549
-5.30382e-05
4.589e-05
0.000631428
1.09848e-05
4.53271e-05
0.000653986
-0.000229982
-7.70515e-07
0.000580304
-0.000146046
0.000195277
0.000571424
-9.96128e-05
0.000116097
0.00054425
-8.70914e-05
-2.47787e-05
0.00056198
-4.86781e-05
4.60608e-05
0.000657052
0.000191113
-3.48685e-05
0.000659088
3.57363e-05
0.000169639
0.000605163
-0.000307629
0.00023816
0.000626382
-4.99034e-05
-1.82744e-05
0.000628246
-1.23079e-05
1.47312e-05
0.000606329
-0.000343163
8.35401e-05
0.000661174
-0.000271095
0.000118284
0.000683517
-0.000244872
-2.75877e-05
0.000694825
-0.000224442
-1.04058e-07
0.000727343
-3.44524e-06
-3.48733e-05
0.00069321
-0.000156103
-1.94038e-05
0.000771624
-6.89805e-05
1.50799e-05
0.000791037
0.000464028
0.000116318
0.000680412
-0.000108381
0.000317189
0.000666527
-5.86385e-05
0.000237179
0.000647923
-3.92254e-06
0.000130819
0.000573813
-0.000272956
8.4986e-05
0.000523154
-0.000163007
5.32861e-05
0.000485332
-0.000236479
-6.7887e-05
0.000629933
-0.000438523
-0.000182601
0.000736418
0.000198991
-0.000136215
0.000127192
7.82314e-05
0.000468385
-0.000184535
-6.90394e-05
0.000520264
-0.000224869
4.61118e-05
0.000614801
-7.0802e-05
0.000237304
0.000687445
-8.69064e-05
2.29864e-05
0.000650589
5.60065e-06
-0.000108661
0.000560544
0.000164408
-2.7659e-05
0.00065729
0.000672464
4.14742e-05
0.000610352
0.000477078
3.34204e-05
0.000609567
-0.00020493
8.56622e-05
0.000749043
-0.000320698
0.000246359
0.000651109
-5.50281e-05
6.02784e-05
0.000521804
1.60398e-05
0.000127654
0.000602013
-8.42634e-05
0.000101807
0.000632635
-0.000308639
8.26623e-05
0.000546869
-0.000143449
0.00018062
0.000482825
-0.000144425
0.000122311
0.000453097
-0.000193447
1.75306e-05
0.000501743
-0.000137062
0.000138369
0.000607078
0.000145267
9.26077e-05
0.000587399
1.99897e-05