/*--------------------------------*- C++ -*----------------------------------*\
  =========                 |
  \\      /  F ield         | OpenFOAM: The Open Source CFD Toolbox
   \\    /   O peration     | Website:  https://openfoam.org
    \\  /    A nd           | Version:  10
     \\/     M anipulation  |
\*---------------------------------------------------------------------------*/
FoamFile
{
    format      ascii;
    class       volVectorField;
    location    "20";
    object      U;
}
// * * * * * * * * * * * * * * * * * * * * * * * * * * * * * * * * * * * * * //

dimensions      [0 1 -1 0 0 0 0];

internalField   nonuniform List<vector> 
25600
(
(1.11397 -0.00903473 0.00236943)
(1.11981 -0.0123859 0.00440988)
(1.13046 -0.00588231 -0.00637229)
(1.14915 0.000505635 -0.0184223)
(1.16277 0.0115759 -0.0277248)
(1.15193 0.00565396 -0.0295957)
(1.14296 -0.00904545 -0.0316699)
(1.13788 -0.0145732 -0.0332588)
(1.13559 -0.0282243 -0.0294414)
(1.15113 -0.0343095 -0.0244683)
(1.15766 -0.024972 -0.0104718)
(1.14982 -0.00736597 0.0024186)
(1.14249 0.0249751 0.0121534)
(1.13301 0.0482058 0.0250324)
(1.14883 0.0428153 0.033837)
(1.16884 0.0169801 0.0454649)
(1.15563 -0.0223161 0.0526635)
(1.1308 -0.0439986 0.0510397)
(1.09357 -0.0345581 0.045334)
(1.07347 -0.00894239 0.0265304)
(1.09184 0.0319398 0.00439442)
(1.11181 0.0622975 -0.015506)
(1.1336 0.0663777 -0.0222037)
(1.1366 0.0489807 -0.0103019)
(1.1106 0.010689 0.00145324)
(1.09138 -0.0200987 0.00145797)
(1.07428 -0.0334846 -0.00663181)
(1.05921 -0.038812 -0.0139188)
(1.05256 -0.0438988 -0.0152402)
(1.04626 -0.0517639 -0.0102197)
(1.05226 -0.0464702 -0.0053194)
(1.06649 -0.0360257 -0.00288003)
(1.09073 -0.0174168 -0.00554447)
(1.13126 0.0113647 -0.0122925)
(1.16217 0.031269 -0.0181007)
(1.17599 0.0425702 -0.020344)
(1.1703 0.047933 -0.0228813)
(1.15057 0.0367311 -0.0234916)
(1.1381 0.0221193 -0.0162626)
(1.12471 0.00873149 -0.00763916)
(1.15649 0.0169548 -0.0178605)
(1.13721 0.0222296 -0.00664316)
(1.11185 0.0125182 -0.013188)
(1.11368 0.00812138 -0.0241785)
(1.12839 0.0123138 -0.0296936)
(1.1368 -0.00130984 -0.0313382)
(1.16077 -0.00633189 -0.0301755)
(1.16714 0.000141969 -0.0246604)
(1.15579 -0.00713309 -0.0180772)
(1.14349 -0.0214686 -0.00255199)
(1.11941 -0.0500457 0.0196273)
(1.11571 -0.058644 0.0348861)
(1.13928 -0.0295284 0.0441589)
(1.17286 0.0110498 0.0471776)
(1.21079 0.0377603 0.0490149)
(1.2138 0.0277083 0.0463745)
(1.16602 -0.00591941 0.027505)
(1.10882 -0.0402285 0.00880003)
(1.06333 -0.060785 -0.000443203)
(1.05664 -0.0522873 -0.000967008)
(1.09748 -0.0231718 0.00591744)
(1.13685 0.0128947 0.0072361)
(1.15832 0.0447044 0.0082263)
(1.14575 0.0449986 0.00421718)
(1.10905 0.018116 -0.00302146)
(1.08548 -0.0150623 -0.00704015)
(1.06986 -0.0397736 -0.00460444)
(1.05608 -0.0389972 0.00575636)
(1.05442 -0.0492136 0.00844913)
(1.05578 -0.0658735 0.00323613)
(1.062 -0.063744 -0.0068277)
(1.06349 -0.0550792 -0.0132284)
(1.07243 -0.0259146 -0.0135089)
(1.09288 0.0106124 -0.0102821)
(1.11421 0.0315298 -0.00936428)
(1.14502 0.0354745 -0.0186279)
(1.16562 0.0204133 -0.0373586)
(1.17347 -0.00195159 -0.0541769)
(1.18658 -0.0039739 -0.0550002)
(1.17843 0.00650308 -0.0403077)
(1.08775 0.0228921 -0.000180561)
(1.08859 0.0101058 -0.00127555)
(1.0808 -0.0153994 -0.0249612)
(1.09829 -0.0235339 -0.0422761)
(1.10495 -0.0227583 -0.0370298)
(1.09635 -0.0330719 -0.0244201)
(1.11556 -0.0349226 -0.0100572)
(1.1249 -0.0421063 0.00428456)
(1.14131 -0.046472 0.00443239)
(1.15125 -0.0502272 0.00651271)
(1.11799 -0.0744308 0.021555)
(1.10132 -0.0821471 0.0369068)
(1.12754 -0.0569339 0.0491729)
(1.21436 0.00713823 0.0520614)
(1.31242 0.0589023 0.0570286)
(1.30606 0.0408891 0.0546652)
(1.19116 -0.0104245 0.0406176)
(1.07886 -0.0633172 0.0313238)
(1.01958 -0.0935685 0.0156332)
(1.01713 -0.0852498 0.00157641)
(1.0566 -0.05665 -0.0109655)
(1.07838 -0.0139493 -0.0177866)
(1.09571 0.0306845 -0.012133)
(1.1139 0.0341327 -0.0143838)
(1.11616 0.016453 -0.0111496)
(1.11821 -0.00419702 0.00456389)
(1.12645 -0.0168518 0.0182686)
(1.14887 -0.0102499 0.0215153)
(1.16197 -0.0353559 0.00576785)
(1.14512 -0.0542848 -0.00507653)
(1.11578 -0.0549436 -0.00289361)
(1.08083 -0.0524557 -0.0033931)
(1.07156 -0.0383861 -0.0125528)
(1.08319 -0.0302717 -0.0188963)
(1.10698 -0.0154613 -0.0188755)
(1.12299 0.00365365 -0.0187975)
(1.11167 0.0221152 -0.0279227)
(1.09992 0.0364656 -0.0446061)
(1.10932 0.0428122 -0.0434887)
(1.09962 0.0330796 -0.0215099)
(1.04925 0.0177006 0.00916028)
(1.05391 -0.0186343 -0.0286623)
(1.04199 -0.0405202 -0.0701621)
(1.08131 -0.0163227 -0.0609902)
(1.1181 0.0086237 -0.0231746)
(1.12562 0.00831132 -0.00260246)
(1.12066 -0.00889427 0.00704525)
(1.06859 -0.0438479 0.00529372)
(1.04462 -0.064707 -0.00711961)
(1.04931 -0.0685446 -0.00183241)
(1.06097 -0.0581034 0.0228052)
(1.10773 -0.0361771 0.0583924)
(1.14436 -0.0391789 0.095734)
(1.21042 -0.065094 0.110975)
(1.27308 -0.0610586 0.109149)
(1.27125 -0.0127017 0.0836936)
(1.19968 0.0334646 0.0492501)
(1.10998 0.0201683 0.0260787)
(1.0437 -0.0236643 -0.000636074)
(1.01914 -0.046682 -0.032227)
(1.03615 -0.0453972 -0.0713316)
(1.06657 -0.0289251 -0.0924545)
(1.1202 -0.0202544 -0.0742575)
(1.15021 -0.0153888 -0.0432696)
(1.14746 0.0106931 -0.0180768)
(1.14491 0.00730571 -0.015531)
(1.15626 -0.0237761 -0.0198932)
(1.15362 -0.0412745 -0.0191391)
(1.10895 -0.0580737 -0.016093)
(1.06813 -0.0489124 -0.00383957)
(1.06969 -0.0464698 0.00439981)
(1.0813 -0.0536636 -0.000849208)
(1.08022 -0.0721506 -0.0143902)
(1.06738 -0.0966347 -0.0246247)
(1.06468 -0.0708802 -0.0330687)
(1.06917 -0.0178061 -0.0484362)
(1.08579 0.0275574 -0.0685149)
(1.09393 0.058892 -0.0700918)
(1.08504 0.0692444 -0.0321138)
(1.0557 0.0480312 0.00745916)
(1.0647 -0.0198584 0.0108127)
(0.977068 -0.025855 -0.0534901)
(0.934608 -0.0278838 -0.0762266)
(1.02158 -0.00864363 -0.0375208)
(1.11325 -0.00998939 0.0124955)
(1.14238 -0.0195286 0.0237483)
(1.09615 -0.027591 0.023405)
(1.00913 -0.0391609 0.0234014)
(0.997067 -0.0399998 0.0120068)
(1.02508 -0.0562347 0.00974216)
(1.06 -0.0554591 0.00884296)
(1.09158 -0.0140398 0.0112369)
(1.09534 0.0238851 0.0174493)
(1.07762 0.0439937 0.0161799)
(1.03404 0.0411664 0.0269101)
(1.00602 0.0249611 0.0220036)
(1.01353 0.00185393 -0.0115411)
(1.03753 -0.0307688 -0.0477257)
(1.05731 -0.0594231 -0.0798359)
(1.07607 -0.0694167 -0.0860127)
(1.06606 -0.0693106 -0.0685796)
(1.04396 -0.0513476 -0.0396849)
(1.03452 -0.00396895 -0.00748119)
(1.04757 0.0286396 -0.00468924)
(1.06938 0.0206043 -0.0412033)
(1.06723 -0.0159999 -0.0682207)
(1.06172 -0.0234112 -0.0470511)
(1.02668 -0.00255217 -0.0231151)
(1.00088 -0.00946397 -0.00784279)
(1.03739 -0.0241327 -0.012965)
(1.08386 -0.0317214 -0.0441788)
(1.0657 -0.019879 -0.0639274)
(1.01068 -0.0311837 -0.0526424)
(0.995017 -0.0547953 -0.0290434)
(1.04748 -0.0433509 -0.0511752)
(1.09648 -0.0215398 -0.108054)
(1.09535 0.0123985 -0.12723)
(1.07565 0.0510687 -0.076189)
(1.08885 0.0526827 0.0150999)
(1.09542 0.00479991 0.0541344)
(1.02603 0.0486252 0.0384913)
(0.962161 -0.0202633 -0.0184938)
(0.945333 -0.0931358 -0.0577661)
(0.993996 -0.112987 -0.0539398)
(1.07458 -0.0747855 -0.019877)
(1.15038 -0.00723688 0.0282916)
(1.13129 0.0129493 0.0519436)
(1.0119 -0.0247733 -0.0048981)
(0.950155 -0.0518241 -0.063696)
(0.985634 -0.067844 -0.0404638)
(1.06023 -0.0593589 0.000810983)
(1.12684 -0.0296529 0.00293336)
(1.11299 0.00126166 -0.0267436)
(1.03313 0.0228766 -0.0387226)
(0.983157 0.0340426 -0.00792432)
(1.00376 0.0179682 -0.00632964)
(1.07631 -0.0253258 -0.0486319)
(1.10539 -0.0484882 -0.0803017)
(1.05809 -0.0593902 -0.086697)
(0.998717 -0.04698 -0.054991)
(0.969697 -0.022056 -0.0101363)
(1.01361 0.0105631 0.0197165)
(1.04071 0.0212386 0.0299334)
(1.05024 -0.0158711 0.0156403)
(1.04533 -0.0382642 -0.021709)
(1.01326 -0.0275221 -0.043982)
(1.02351 0.0130668 -0.0355477)
(1.01989 0.0268164 -0.0239778)
(1.02839 -0.024282 0.00858366)
(1.07647 -0.0706866 0.00155871)
(1.1058 -0.0674639 -0.050152)
(1.08415 -0.0187968 -0.0599222)
(1.03009 -0.0271557 -0.038645)
(1.01353 -0.0814091 -0.0243191)
(1.05425 -0.074405 -0.0461828)
(1.08348 -0.0312512 -0.0541694)
(1.06445 0.0186524 -0.0197499)
(1.03838 0.0398635 0.0262992)
(1.06246 0.051309 0.066159)
(1.07546 0.0653238 0.0704898)
(0.990122 -0.00495467 -0.00249914)
(1.03911 -0.0158547 -0.0269023)
(1.01918 -0.0394301 -0.0601344)
(0.975205 -0.0739555 -0.0511457)
(1.00444 -0.0998962 0.00397685)
(1.13909 -0.0556803 0.0268073)
(1.21019 0.00267728 0.00561798)
(1.06498 -0.00250264 -0.0704163)
(0.920983 -0.0386841 -0.11391)
(0.952516 -0.059155 -0.0433692)
(1.01765 -0.0224178 0.047313)
(1.05218 0.018784 0.095594)
(1.04258 0.0422182 0.0710441)
(1.01385 0.0548801 0.0292659)
(1.03568 0.029695 0.0218352)
(1.07319 -0.0151251 0.0138579)
(1.08955 -0.0838291 -0.000382677)
(1.05657 -0.0663397 -0.0642733)
(0.992883 -0.0115924 -0.106525)
(0.97545 -0.0285301 -0.021498)
(0.968848 -0.0804063 0.0704803)
(1.04783 -0.0601256 0.0862636)
(1.12231 0.0100213 0.0689701)
(1.14056 0.0221764 0.0568444)
(1.107 0.0185931 0.0259519)
(1.07404 -0.00555566 -0.00877943)
(1.10174 -0.0301906 -0.00513764)
(1.08228 -0.0418098 0.0120706)
(1.04602 -0.065426 0.040951)
(0.991501 -0.0430891 0.0128326)
(0.959035 0.0120403 -0.0233807)
(0.982395 0.0665799 0.00433899)
(1.00398 0.0222577 0.0382054)
(1.05578 -0.0605739 0.0271788)
(1.07068 -0.071907 -0.0595807)
(1.07211 -0.0580076 -0.0991997)
(1.05707 -0.0356921 -0.042456)
(0.989011 -0.0280522 0.0262668)
(0.975332 0.00142659 0.0346992)
(0.969896 0.00237954 0.00640304)
(0.930906 -0.0325539 -0.0193464)
(1.02127 -0.0382387 -0.00414484)
(1.05403 -0.0350565 -0.0121832)
(1.06564 -0.0673724 -0.0248721)
(1.0689 -0.0737995 -0.0277513)
(1.06538 -0.0493415 -0.0386809)
(1.14386 0.0041208 -0.043965)
(1.12518 0.0481968 0.00139005)
(0.991063 0.00203528 0.0326274)
(0.909559 -0.0620616 0.0449037)
(0.907534 -0.0392908 0.0684449)
(0.947042 0.0283541 0.1225)
(1.05633 0.101684 0.135134)
(1.176 0.0989679 0.0615838)
(1.16977 0.0569925 -0.0196611)
(1.13249 0.0646473 -0.0571933)
(1.0394 0.0206932 -0.0338391)
(0.995935 -0.0386638 -0.0312163)
(0.976928 -0.0594121 -0.0243231)
(0.97702 -0.0600121 0.0296228)
(0.937923 -0.0578274 0.0400642)
(0.940385 -0.0366894 0.0315781)
(1.01863 -0.0160697 0.0396927)
(1.06043 -0.0145715 0.0162026)
(1.0908 0.00580208 -0.0229098)
(1.06647 -0.000655847 -0.0431573)
(0.988534 -0.009688 -0.0524456)
(0.918124 -0.014638 -0.0457852)
(0.893149 -0.0179209 0.00843234)
(0.85211 -0.0201901 0.0171027)
(0.852474 -0.032692 0.0233314)
(0.970452 -0.00878276 0.0148916)
(1.04137 -0.0516181 -0.0126303)
(1.04483 -0.0902327 -0.0302466)
(0.994324 -0.101757 -0.0633771)
(1.00542 -0.126113 -0.0410582)
(1.08886 -0.0390857 -0.0413831)
(1.01472 0.0209612 -0.0390038)
(0.933654 0.0420283 -0.0521864)
(0.886285 0.00802987 -0.0595493)
(0.953158 -0.0336369 0.0391415)
(0.930918 -0.0216908 0.0591648)
(0.914468 -0.036186 0.0224252)
(1.02076 -0.068437 0.0271147)
(1.13449 -0.0610267 0.0408426)
(1.15892 -0.0594385 -0.000925609)
(1.08022 0.0186716 -0.0112105)
(0.989901 0.0984938 0.0212999)
(1.02007 0.0392783 -0.00715555)
(0.986135 -0.0105764 -0.0260665)
(0.914954 -0.0132378 0.0148461)
(0.904808 -0.0199265 0.150014)
(1.03446 -0.0139178 0.232876)
(1.14393 0.00148051 0.111946)
(1.13177 0.0130854 -0.0156857)
(1.07872 0.0385242 -0.0583396)
(0.912772 -0.0121346 -0.0454957)
(0.942531 -0.016203 0.00816279)
(0.971099 -0.00697154 0.0701219)
(0.933183 -0.0903502 0.0625612)
(0.920902 -0.156749 0.0272577)
(0.939557 -0.115958 -0.0197983)
(0.996793 -0.0179128 -0.0663428)
(1.01069 0.0285099 -0.0470015)
(0.992493 0.0338294 -0.0194268)
(0.897006 -0.00306182 -0.0395799)
(0.814197 -0.00952305 -0.0628357)
(0.838044 -0.0173574 -0.00840897)
(0.907587 -0.0411857 0.0550415)
(0.941284 -0.00986966 0.0453307)
(0.90255 0.0195209 0.0272576)
(0.888632 0.0359245 -0.00266702)
(0.906502 -0.0294538 -0.0386277)
(0.944166 -0.0517647 -0.0322447)
(0.938112 -0.0413832 -0.0116406)
(0.904298 -0.083595 0.0525223)
(0.98157 -0.061213 0.0516417)
(1.08068 -0.020838 -0.0123895)
(1.131 0.0151436 -0.0479413)
(1.00196 -0.0203669 -0.0378352)
(0.955857 -0.0280757 -0.011063)
(0.972099 -0.0176704 0.0172682)
(0.971054 -0.00308827 -0.0127509)
(0.943911 -0.0276677 0.0256861)
(0.973904 -0.00143667 0.0361814)
(1.0665 -0.0247642 -0.0579946)
(1.03583 0.041764 -0.0324365)
(0.990889 0.0179283 -0.0153753)
(1.06363 -0.0417914 -0.114312)
(1.15517 0.0483101 -0.0773181)
(1.16473 0.0421065 0.0316761)
(1.04782 -0.0259359 0.0995298)
(1.10358 -0.0143426 0.0967525)
(1.10277 0.025368 -0.00361848)
(0.979412 0.0386487 -0.0742273)
(0.956894 0.0618411 -0.101178)
(0.884009 -0.00933075 -0.0666034)
(0.86308 -0.0217926 -0.0041302)
(0.920595 -0.0155371 0.0353437)
(0.966242 -0.0776756 0.00216705)
(0.986457 -0.129754 -0.0436524)
(0.991951 -0.149312 -0.0359599)
(1.00412 -0.0804299 -0.00798977)
(0.949293 -0.00618075 0.0294485)
(0.924601 0.0406874 0.0354503)
(0.980224 -0.00553261 -0.0218002)
(0.992599 -0.0340389 -0.0722435)
(0.97636 -0.0416532 -0.036499)
(0.952495 -0.0707772 0.0145451)
(0.895606 -0.0325961 0.0294215)
(0.843195 -0.000401647 0.0632791)
(0.877995 0.0303677 0.0479777)
(0.945574 -0.0537041 -0.0230494)
(1.00646 -0.091416 -0.0127537)
(1.00982 -0.068499 -0.00256417)
(0.844837 -0.0700552 0.0225476)
(0.81357 -0.0352649 0.0552693)
(0.951577 -0.0699977 0.0366915)
(1.06601 0.0162449 0.00240448)
(1.02581 0.0198035 -0.0554926)
(0.951581 0.0296471 0.0255198)
(0.941196 0.00218425 0.0641074)
(0.914171 -0.0428619 -0.0157219)
(0.915012 -0.090209 -0.0295807)
(1.06262 -0.0599241 -0.0402175)
(0.971002 -0.0567919 -0.0721916)
(1.15862 0.0358836 0.0140214)
(1.15215 0.0327732 0.0291451)
(1.02205 -0.0132188 -0.0709765)
(1.11716 0.0614599 -0.0334247)
(1.11687 0.0470625 0.0216554)
(1.00457 -0.0299669 -0.0130339)
(1.04763 -0.0557733 0.0185223)
(1.08981 -0.0224091 0.0294552)
(0.896764 0.0532397 -0.0650354)
(0.910654 0.0665012 -0.0798586)
(0.991467 -0.0512432 -0.0149622)
(0.907545 -0.0898695 0.0269949)
(0.881986 -0.0694655 -0.0288677)
(0.894419 -0.0683344 -0.0945896)
(0.782695 -0.0887794 -0.0776507)
(0.817338 -0.0849304 0.0117659)
(0.878191 0.031123 0.0699917)
(0.898701 0.0563576 0.06164)
(0.904329 0.049437 -0.0178732)
(1.00704 -0.017404 -0.0652456)
(0.949928 -0.0435871 -0.0517152)
(0.929305 -0.02821 -0.0245152)
(0.952887 -0.0443383 -0.00839837)
(0.945377 -0.0165719 -0.0162124)
(0.87882 -0.00181052 0.0671265)
(0.983769 0.0380955 0.0843418)
(1.04438 -0.0390041 0.0260005)
(1.00771 -0.0912772 0.0126137)
(1.05401 -0.0341185 0.0400348)
(0.918523 -0.00892788 0.0496139)
(0.869421 -0.0442253 0.0328229)
(0.789608 -0.131112 0.00576051)
(0.967652 -0.0723489 -0.058795)
(1.04504 0.000989077 -0.0790777)
(0.990301 0.000867419 0.0419883)
(1.0279 -0.0302055 0.116507)
(0.937424 -0.0208462 -0.000850265)
(0.876286 -0.0779998 -0.0552558)
(0.911741 0.0300318 -0.122659)
(0.853583 0.0240417 -0.116162)
(1.1635 -0.0116321 0.0341178)
(1.03284 0.0661937 -0.0157483)
(0.898356 0.00483029 -0.0889141)
(1.12867 0.0264293 0.00736297)
(1.24311 0.0357374 0.0169692)
(1.1855 0.0263005 0.0508434)
(1.04153 0.0205596 0.110722)
(1.04776 0.0247741 0.0294455)
(0.87012 0.041888 -0.107718)
(0.923695 -0.0340269 -0.020178)
(0.965469 -0.111293 0.0983246)
(0.944382 -0.0770511 0.0783646)
(0.87312 -0.0263958 -0.0229572)
(0.741583 0.0106096 -0.0532996)
(0.734147 -0.0288557 -0.0435365)
(0.804599 -0.171219 -0.021528)
(0.93194 -0.0761583 0.0784662)
(1.02274 0.00796972 0.12151)
(1.05985 0.043752 0.0131594)
(1.10983 -0.022741 -0.138371)
(1.03326 -0.041605 -0.0770795)
(0.96544 -0.0257107 0.0161004)
(0.986433 -0.0789409 -0.0133198)
(0.967262 -0.0480512 -0.00681109)
(0.869372 0.00584383 0.0895297)
(1.00801 0.00138837 0.0928926)
(1.06228 -0.0332813 0.0645211)
(1.02211 -0.0465221 0.0540428)
(1.0649 -0.0684845 0.139809)
(0.898841 -0.0463059 0.103753)
(0.906043 -0.0288564 0.0412755)
(0.759144 -0.0892289 0.0142471)
(0.86805 -0.0286086 -0.0427774)
(0.84219 0.0542993 -0.0336506)
(1.08562 -0.0501381 0.114254)
(1.01713 0.0243704 0.0805928)
(0.975615 0.016632 0.0397213)
(0.948466 -0.0563091 0.085543)
(0.948204 -0.0406194 -0.141313)
(1.02435 -0.087162 -0.208023)
(1.0703 -0.0162956 -0.0215831)
(1.00363 0.0903166 -0.0638122)
(1.0359 -0.049911 -0.105845)
(1.04284 -0.0463162 0.0144381)
(1.13829 -0.0104803 0.047077)
(1.19598 -0.0446752 0.102789)
(0.98627 -0.0176645 0.0982132)
(1.0417 -0.0183003 -0.0720421)
(0.987377 -0.0514109 -0.106144)
(0.97748 -0.0752957 0.0368374)
(0.946457 -0.0797847 0.117719)
(0.971863 -0.049697 0.0415193)
(0.807006 0.00367687 -0.0239176)
(0.667129 0.00478769 0.0421849)
(0.796712 -0.0676561 0.0543783)
(0.723124 -0.104288 -0.0124823)
(0.888245 -0.0245606 0.0924101)
(0.847856 -0.0212803 0.119185)
(0.987428 -0.0184024 0.00103593)
(1.0929 -0.0638368 -0.121516)
(1.03164 -0.0494862 -0.108063)
(0.928199 0.0150441 -0.026696)
(0.955738 -0.0421877 -0.00561001)
(0.956985 -0.0651506 0.037086)
(0.89689 -0.0234723 0.0855427)
(0.934996 -0.0140678 0.0369938)
(0.751487 -0.0133108 0.0150292)
(0.836277 -0.064704 0.0614092)
(0.934069 -0.0338428 0.101897)
(0.869235 -0.00593281 0.0382932)
(0.834261 -0.042433 -0.0173677)
(0.774677 -0.127498 0.0407308)
(0.858687 -0.0453799 -0.0108247)
(0.884105 -0.0160948 0.0355425)
(0.956616 -0.073341 0.218418)
(1.00994 -0.0132486 0.0650688)
(0.947959 0.0272453 -0.0449294)
(0.913538 -0.0536909 0.0448901)
(0.937659 -0.0628912 -0.0352233)
(1.13776 -0.038877 -0.197234)
(1.07916 0.0596938 -0.0897437)
(1.16754 0.0896864 0.00182066)
(1.04613 -0.0124775 0.0773753)
(0.808515 0.00677078 0.0818935)
(1.04422 0.0109995 -0.0139064)
(1.25929 0.058798 -0.105669)
(1.20189 0.0591144 -0.0789745)
(1.15759 -0.0109684 -0.109451)
(1.06984 -0.020492 -0.0576902)
(0.879844 -0.0633603 0.0312761)
(0.761406 -0.0686634 0.0194556)
(0.752783 0.0415104 -0.0275873)
(0.775029 0.0933286 0.0399133)
(0.961661 0.0114529 0.0804962)
(0.929818 -0.0688807 0.0223154)
(0.57281 -0.0670445 0.000294718)
(0.869682 -0.0252381 0.0632611)
(0.920754 -0.0200132 0.0251969)
(0.860542 -0.023817 -0.16151)
(0.824497 -0.051889 -0.102978)
(0.814997 -0.0226732 -0.0438595)
(0.844698 -0.00462611 -0.0709399)
(1.0715 -0.0845112 -0.0177963)
(1.10007 -0.0433112 0.0549102)
(0.944546 0.0518737 0.0896853)
(1.03591 0.0612732 -0.020128)
(0.801814 -0.000630779 0.0212725)
(0.887786 -0.104225 0.1421)
(1.01 -0.0628028 0.0843933)
(0.820232 -0.0120092 -0.0659278)
(0.857373 -0.0377647 -0.0108033)
(0.845601 -0.131066 0.127654)
(0.980816 -0.0729884 -0.0190229)
(0.993936 -0.0177249 0.0424815)
(0.934937 0.0234388 0.12056)
(0.906935 0.0779034 -0.0708461)
(0.877471 0.065931 -0.0893254)
(0.849981 -0.0111808 -0.0276736)
(0.71803 -0.0902328 -0.0864595)
(1.09021 -0.126776 -0.158004)
(1.06476 -0.0075406 -0.168486)
(1.03488 0.0870325 -0.0484529)
(0.838556 0.0238729 0.127166)
(0.733763 0.00778737 0.037013)
(0.936198 -0.0493897 0.054145)
(1.1834 -0.0913814 0.00147603)
(1.25449 -0.0765077 -0.0301616)
(1.07161 -0.0547418 -0.156783)
(1.21649 -0.0109244 -0.100039)
(1.07801 -0.00507772 -0.00795037)
(0.703771 -0.0212901 -0.0386013)
(0.641316 -0.0234276 0.00876613)
(0.767243 -0.0525267 0.0658807)
(0.865212 -0.0713002 -0.0115979)
(0.853289 -0.0312236 -0.0348147)
(0.597452 -0.0674237 -0.00461844)
(0.858864 -0.0583702 0.0130404)
(0.912139 -0.0876032 0.00315445)
(0.908927 -0.0794774 -0.0354431)
(0.825857 -0.0237686 -0.0527375)
(0.781447 0.00606124 -0.0964832)
(0.80402 -0.0337854 -0.0154669)
(0.895638 -0.0942947 0.00409038)
(1.0253 -0.0415815 0.0412922)
(0.914673 0.056945 0.217022)
(1.09814 0.0618031 0.133104)
(0.929642 0.00387698 0.0552255)
(0.780753 -0.129067 0.117833)
(1.01086 -0.0516394 0.0919763)
(0.742683 -0.000301914 -0.104098)
(0.899085 -0.0808425 -0.0895335)
(0.805436 -0.12434 0.0695891)
(0.83748 -0.017218 -0.0158258)
(0.787866 0.0350478 -0.00984287)
(0.848349 -0.0988068 0.163706)
(0.889377 0.0431837 -0.0123472)
(1.0568 0.0812832 0.0594631)
(1.07994 -0.00652221 -0.00707697)
(0.744158 -0.0506483 -0.208925)
(0.842455 -0.0549188 -0.0624767)
(0.948236 0.0356461 -0.0825519)
(0.951365 0.0865522 0.034268)
(0.767655 0.000339826 0.144331)
(0.925107 0.0257821 0.0611603)
(1.23197 -0.0538241 0.135779)
(1.1577 -0.0301968 0.0661263)
(0.885552 -0.0195026 0.017229)
(0.749873 -0.0383602 -0.0699691)
(0.875024 0.0107735 0.0130168)
(0.818136 0.0122022 0.067205)
(0.694428 0.00242953 0.0234239)
(0.68032 -0.0350848 0.0284978)
(0.656854 -0.0210045 -0.0603143)
(0.702684 -0.00212554 -0.0520766)
(0.822551 -0.0393087 0.0208736)
(0.723818 -0.0384442 0.0515974)
(0.876864 -0.0313606 -0.00436605)
(0.76065 -0.0820297 -0.0691725)
(0.904475 -0.0721746 0.0518838)
(0.909319 -0.037179 -0.0429685)
(0.816812 -0.00999896 -0.149033)
(0.797422 -0.0376116 0.0566785)
(0.661296 -0.126424 0.0224063)
(0.890245 0.017145 -0.0163892)
(0.881978 0.0980936 0.148105)
(1.0418 0.0429837 0.0891524)
(0.994311 0.0358529 0.0470558)
(0.764071 -0.0354865 0.075302)
(0.864041 0.00740865 -0.0927939)
(0.609785 0.025164 -0.200319)
(0.68334 -0.0960871 -0.03133)
(0.678303 -0.10796 -0.0523769)
(0.83084 0.021985 -0.0629134)
(0.676615 0.0190438 0.0806162)
(0.900993 -0.0797898 0.098096)
(0.946495 0.0534988 -0.0784453)
(1.23529 0.0445137 0.0216673)
(1.02924 0.00961845 -0.0911234)
(0.770459 -0.00892311 -0.152455)
(0.840604 -0.0744409 0.0395413)
(0.941659 0.0520939 0.00930662)
(0.897059 0.0918784 0.101228)
(0.885309 0.0205219 0.116729)
(0.982774 -0.00636163 0.0219636)
(1.09583 -0.115723 0.0325059)
(1.11283 -0.0522945 0.00955543)
(0.90039 -0.00417163 -0.00699518)
(0.796372 -0.0676332 0.031764)
(0.774547 -0.0183435 0.132061)
(0.741644 -0.010438 0.108499)
(0.738667 -0.000132773 0.0140846)
(0.782498 -0.0300803 0.0640089)
(0.71471 -0.0368152 0.00395175)
(0.758671 -0.0575756 -0.0559223)
(0.735607 -0.0584524 -0.0280931)
(0.794397 -0.0463926 0.128427)
(0.976544 -0.0456307 0.081426)
(0.751387 -0.0620345 -0.0501876)
(0.824278 -0.0893715 0.0357772)
(0.777839 -0.0169818 -0.0354974)
(0.757795 -0.0312992 -0.0704158)
(0.965419 -0.0570203 -0.0156903)
(0.694045 -0.096996 -0.0672505)
(0.758953 -0.0237472 -0.0570553)
(0.92962 0.0747957 0.111429)
(0.935303 0.0159761 0.068426)
(0.904252 -0.00398095 0.0352842)
(0.840143 -0.0349976 0.0845576)
(0.895289 -0.0294605 -0.139347)
(0.581728 -0.0119612 -0.0177702)
(0.485586 -0.0922554 0.226304)
(0.664348 -0.0972312 -0.103296)
(0.764385 0.0420203 -0.101548)
(0.807254 0.0209172 0.168744)
(0.775071 -0.0912064 -0.0476264)
(0.838569 0.00904145 -0.101026)
(1.21542 0.050576 -0.0675847)
(0.956661 0.0381174 -0.200422)
(0.824473 0.0179368 -0.180605)
(0.957308 -0.0574445 0.00538294)
(1.01178 0.0705841 0.0321427)
(0.94314 0.0430213 0.0764079)
(0.928722 -0.000695621 0.0205311)
(1.20316 0.0287827 -0.100902)
(0.970015 -0.0582506 0.00124629)
(0.965048 -0.00312737 0.0265995)
(0.897812 0.00430868 -0.0143314)
(0.845097 -0.030307 0.0477207)
(0.85516 -0.0261452 0.10528)
(0.839458 -0.0540384 0.0622291)
(0.736428 -0.0358034 0.0200926)
(0.664314 -0.0172508 0.0196027)
(0.695447 0.01111 -0.0310137)
(0.769687 0.00875753 -0.0173847)
(0.784223 -0.0663011 0.0193499)
(0.852286 -0.0611851 0.0877756)
(0.878798 -0.00895004 0.0658203)
(0.711507 -0.0754659 -0.00864883)
(0.927427 -0.0569797 0.068676)
(0.841155 -0.0506421 0.0299235)
(0.775825 -0.0740788 0.0462299)
(1.04016 -0.00398449 -0.0177242)
(0.688046 -0.0721513 -0.143493)
(0.741972 -0.0238791 0.0251481)
(1.00812 0.0893875 0.153348)
(1.01959 -0.00638331 0.0505156)
(1.01539 0.0151264 0.12239)
(1.00771 -0.0110851 0.0965594)
(0.8908 -0.0060079 -0.0788539)
(0.620313 -0.00831541 0.121913)
(0.543016 -0.146796 0.135187)
(0.630913 -0.0950907 -0.0959545)
(0.857487 0.121656 -0.0429024)
(0.962181 0.0375105 0.03368)
(0.658724 -0.0774191 -0.0434567)
(0.588212 -0.0097122 -0.11217)
(1.14246 0.0342221 -0.136583)
(0.959959 0.0464418 -0.311478)
(0.828098 0.0250531 -0.216991)
(0.916279 -0.0489804 -0.0218766)
(0.993784 0.0890132 -0.0135144)
(0.993356 0.0633007 0.0471002)
(0.858023 -0.0265832 -0.0112719)
(1.26964 0.0188974 -0.0283507)
(0.990642 -0.0762982 -0.0267718)
(0.982336 -0.0559906 -0.0028624)
(0.869773 -0.0111036 -0.0172858)
(0.874409 -0.0346253 -0.0360319)
(0.86236 -0.00979283 0.0708201)
(0.826787 -0.0416643 0.0694526)
(0.751865 0.00833702 -0.0340759)
(0.652787 -0.0138021 0.0419558)
(0.723044 0.0184576 -0.0787309)
(0.756008 -0.00975405 0.0615278)
(0.760394 -0.0449761 0.079063)
(0.81439 -0.0181293 0.0196902)
(0.827199 0.00674778 0.079232)
(0.715622 -0.084104 0.041418)
(0.897055 -0.0703909 0.0881907)
(0.85923 -0.00135486 -0.0419054)
(0.850859 -0.072369 -0.00157836)
(1.0596 -0.0136441 -0.0734647)
(0.774278 -0.0559523 -0.111658)
(0.846251 -0.0703945 0.0542109)
(1.06927 0.0695384 0.0200574)
(1.01599 -0.0395753 0.0407688)
(0.931938 -0.0501748 0.235178)
(0.988148 -0.00363204 0.133877)
(0.817984 -0.00172647 -0.00287532)
(0.685 -0.0294358 0.0487766)
(0.641066 -0.0995869 -0.0310951)
(0.579443 -0.0665239 -0.0987018)
(1.10372 0.0898243 -0.145199)
(0.988082 0.0130973 -0.0146702)
(0.642808 -0.0682107 -0.033162)
(0.467024 -0.0346696 0.0393909)
(1.00087 -0.00978462 0.170352)
(1.00227 0.0444745 -0.111809)
(1.11628 0.0169444 -0.0982606)
(0.932449 -0.0383604 -0.0186268)
(0.879257 0.127679 -0.00909467)
(1.01157 0.0789466 0.0366892)
(0.761349 -0.0227169 -0.0385601)
(1.29842 0.00504083 0.00787822)
(1.06605 -0.0306493 -0.0849755)
(0.836447 -0.018779 0.0232328)
(0.731858 0.00865053 0.0522994)
(0.858822 -0.0437435 -0.011587)
(0.837657 -0.0340982 0.085324)
(0.678727 -0.0136561 0.0588032)
(0.767517 -0.0155953 -0.108214)
(0.635185 -0.00729333 0.07129)
(0.807332 0.0378106 -0.023441)
(0.870716 0.0129256 0.106512)
(0.809261 -0.0830881 0.128725)
(0.760519 -0.0304015 0.0091988)
(0.839725 0.0019541 0.0430102)
(0.765017 -0.0800884 0.0467749)
(0.796494 -0.0518471 0.0564752)
(0.89544 -0.0350999 -0.118325)
(0.827433 -0.05885 -0.0407445)
(0.972821 -0.00322169 -0.0676926)
(0.88122 -0.0124358 -0.0609906)
(0.885453 -0.031808 0.0388145)
(1.11303 0.10667 0.00127629)
(0.921454 0.0066934 0.165234)
(0.810256 0.00484421 0.183132)
(0.909189 0.0235191 0.0636653)
(0.767983 -0.054048 -0.0437191)
(0.717789 -0.0425973 0.0103262)
(0.646105 -0.0615911 -0.0337235)
(0.563184 -0.103945 -0.162556)
(1.04561 0.0278342 -0.15617)
(0.868415 0.0180346 -0.00770719)
(0.706426 -0.0433048 -0.0977187)
(0.63637 -0.0502895 0.133145)
(0.823538 -0.0213782 0.359882)
(0.862777 -0.00602622 0.0380781)
(1.08588 -0.0164557 -0.0562574)
(0.739956 0.0200046 -0.00152755)
(0.862224 0.146173 0.0355)
(1.0215 0.084091 -0.01656)
(0.657556 -0.0308325 0.0292088)
(1.06905 -0.0531827 0.125731)
(1.06422 -0.0231808 -0.0802219)
(0.76178 -0.00400405 0.0759596)
(0.756428 -0.000330731 0.0951338)
(0.899442 -0.0405732 0.0710797)
(0.915389 -0.0238019 0.104305)
(0.653908 -0.0185698 0.0449913)
(0.686332 -0.0303634 -0.1319)
(0.605754 -0.00832567 0.0424049)
(0.804436 0.0347075 0.0432548)
(0.9115 0.011033 0.0763421)
(0.733247 -0.0453473 0.12123)
(0.778984 -0.00241563 0.0256178)
(0.956944 -0.00503675 0.0859605)
(0.803685 -0.057904 0.0357153)
(0.813152 -0.0585066 -0.0791004)
(0.767428 -0.0757752 -0.105845)
(0.661411 -0.0426489 -0.0633388)
(0.73353 -0.000866837 -0.0142)
(0.858414 -0.0438804 -0.0476211)
(0.804824 -0.00180761 0.0410663)
(1.04361 0.0728497 0.087473)
(0.90765 -0.0343276 0.183986)
(0.846345 -0.0259433 0.178295)
(1.01154 -0.0186152 0.110017)
(0.720504 -0.0482453 -0.00470485)
(0.702068 -0.0287395 0.00577007)
(0.803079 -0.0326266 -0.0688015)
(0.611132 -0.075542 -0.133962)
(0.85135 0.0309286 -0.0787897)
(0.868803 0.0322427 -0.0799646)
(0.746663 -0.0254827 -0.0767672)
(0.743858 -0.0298094 0.188525)
(0.765547 0.00129009 0.272894)
(0.71055 -0.0279115 -0.0345732)
(0.942719 0.0150715 -0.0156074)
(0.631873 0.0484838 0.00860055)
(0.962568 0.128819 0.0120122)
(0.950446 0.111188 -0.0427401)
(0.715234 -0.0397456 0.0447337)
(0.975177 -0.0784095 0.183536)
(0.952365 -0.0103131 0.0182488)
(0.67271 0.0118545 0.00696345)
(0.832295 -0.0329469 0.139649)
(0.780273 -0.0794519 0.137862)
(0.930604 -0.0304792 0.135061)
(0.726125 -0.0309901 0.0581484)
(0.498404 -0.0338396 0.00107816)
(0.634265 -0.0523921 0.0462275)
(0.818751 0.0287481 0.0749866)
(0.820933 -0.00210202 0.122263)
(0.683184 -0.0465788 0.141446)
(0.938573 -0.0234425 0.0577651)
(0.968499 -0.0150565 0.0430935)
(0.828349 -0.0389536 0.0184508)
(0.688123 -0.0397565 -0.0765523)
(0.603583 -0.0328413 -0.0508544)
(0.535933 0.00335245 0.00814312)
(0.601473 0.0410472 0.0743207)
(0.770687 -0.0271827 0.0487275)
(0.793981 0.0183276 0.116992)
(1.06213 0.1109 0.0750053)
(0.95362 -0.0342981 0.138218)
(0.8647 0.00358366 0.165598)
(0.969213 -0.00709407 0.141558)
(0.657216 -0.0214739 0.022799)
(0.729123 -0.0180293 -0.0932911)
(0.868964 -0.0344707 -0.165554)
(0.668578 -0.0529014 -0.101686)
(0.785624 0.0259546 -0.00626492)
(0.857457 0.0443888 -0.00482527)
(0.768639 -0.0182685 0.061959)
(0.634369 -0.0170006 0.257997)
(0.859637 0.00752551 0.149631)
(0.715534 -0.0249678 -0.0725907)
(0.849105 -0.00706668 -0.0681085)
(0.57534 0.0259512 -0.113802)
(1.0358 0.0668853 -0.0275239)
(0.843927 0.0948604 -0.0269317)
(0.909795 -0.0479729 0.051147)
(0.886362 -0.10709 0.150934)
(0.721855 0.0101656 0.0225161)
(0.715986 0.00246973 0.0404213)
(0.81908 -0.0471717 0.178904)
(0.609393 -0.0553776 0.116993)
(0.829294 -0.0392598 0.129391)
(0.694897 -0.00336822 0.0369174)
(0.389627 -0.0310432 0.0761727)
(0.615968 -0.0710434 0.143775)
(0.818209 0.00151504 0.149333)
(0.675384 0.0035908 0.146257)
(0.713972 -0.0663994 0.111272)
(0.828553 -0.0585105 0.0271979)
(0.885958 -0.0318586 0.0257189)
(0.793535 -0.0462357 0.0223918)
(0.619552 -0.0122614 -0.114419)
(0.617762 -0.0253487 -0.0303576)
(0.447546 0.025538 0.0384191)
(0.559622 0.0366803 0.00598119)
(0.752743 -0.0345296 0.0367286)
(0.907225 0.00822729 0.159541)
(1.20747 0.0823115 0.174044)
(0.872814 -0.0268059 0.148245)
(0.892289 -0.0227351 0.104993)
(0.904164 -0.00670878 0.0976189)
(0.744921 -0.0303647 -0.00852934)
(0.774196 -0.0321095 -0.168355)
(0.996362 -0.0255482 -0.227128)
(0.780371 -0.0113983 -0.1551)
(0.811105 0.0107297 -0.036589)
(0.925771 0.0195594 0.0439569)
(0.534616 0.0313579 0.104031)
(0.602904 0.0290363 0.239515)
(0.957074 0.00911377 0.0868327)
(0.736814 -0.0509473 -0.12257)
(0.637125 0.0174246 -0.0978748)
(0.493919 0.041819 -0.024561)
(1.10837 0.0580215 0.0816965)
(0.815432 0.0996913 0.0163948)
(1.03516 -0.0701798 0.107316)
(0.753513 -0.0528409 0.137433)
(0.635123 0.0254171 -0.0427941)