/*--------------------------------*- C++ -*----------------------------------*\
  =========                 |
  \\      /  F ield         | OpenFOAM: The Open Source CFD Toolbox
   \\    /   O peration     | Website:  https://openfoam.org
    \\  /    A nd           | Version:  10
     \\/     M anipulation  |
\*---------------------------------------------------------------------------*/
FoamFile
{
    format      ascii;
    class       volVectorField;
    location    "20";
    object      U;
}
// * * * * * * * * * * * * * * * * * * * * * * * * * * * * * * * * * * * * * //

dimensions      [0 1 -1 0 0 0 0];

internalField   nonuniform List<vector> 
25600
(
(0.988382 0.200483 0.0461421)
(1.1652 0.0691314 0.169653)
(1.10208 -0.104868 0.225406)
(1.19986 0.223079 0.0820509)
(1.1154 0.194385 -0.0753469)
(1.11541 0.0701733 0.0359887)
(1.14625 0.161786 -0.0400277)
(1.20991 0.0567895 0.0719619)
(1.1076 0.00410652 0.0186687)
(1.01233 0.0538806 0.0757614)
(1.30329 0.123722 0.398446)
(1.15702 0.053293 0.183483)
(0.967079 0.0491037 0.145668)
(1.15148 -0.0444664 0.256965)
(1.03361 -0.192474 0.0620608)
(0.985602 0.173158 -0.137601)
(1.25759 0.244049 -0.0132277)
(1.18976 -0.0158632 0.235195)
(1.11567 -0.0688011 0.276528)
(1.17233 -0.0318589 0.09902)
(0.995432 -0.00506331 0.0428963)
(1.05681 -0.0157682 0.0883634)
(1.04593 -0.0204224 0.0854472)
(1.02477 0.022272 0.239851)
(1.2684 -0.0331399 0.295657)
(1.07604 -0.0575681 0.0830695)
(1.16536 -0.0942374 0.205243)
(1.20793 0.0288041 0.353737)
(0.982947 0.163763 0.207737)
(1.2005 -0.0196839 0.187568)
(1.34925 -0.0582759 0.0931561)
(1.16227 -0.000538095 0.0135096)
(1.31099 0.0433564 0.140604)
(1.21776 -0.0239559 0.221115)
(1.10897 -0.0464858 0.139267)
(1.20402 0.01809 0.145996)
(1.55534 -0.0195153 0.371968)
(1.40864 -0.13536 0.451688)
(0.995021 -0.00421779 0.121402)
(1.03339 0.135256 -0.15685)
(1.25701 0.066304 0.117466)
(1.48706 0.100542 0.0573404)
(1.48339 0.078074 0.0835674)
(1.20507 0.319817 0.123594)
(0.709711 -0.0581875 -0.117162)
(1.35727 -0.190087 -0.0992164)
(1.3009 0.237512 0.0131169)
(1.05334 0.0730066 -0.0815664)
(1.19483 -0.215394 0.0812344)
(0.823163 0.0971282 0.108255)
(0.966063 0.28259 -0.0182878)
(0.930294 0.259587 -0.061801)
(1.22045 0.0188567 -0.00504655)
(1.47901 0.0493743 -0.00588522)
(1.07775 0.0194336 -0.115752)
(1.51102 -0.225612 0.0441349)
(1.28862 -0.0704147 0.0651689)
(1.22643 0.122075 0.0656675)
(1.32391 0.0705589 0.147011)
(1.14967 0.0232976 -0.0487559)
(1.41118 0.20618 -0.0549838)
(1.24455 -0.0675065 -0.0658428)
(1.45812 -0.00957884 0.0196633)
(1.74866 0.372654 0.140782)
(1.56029 0.361618 0.0600879)
(1.64213 0.0919976 0.0433611)
(1.20538 -0.164743 0.00803293)
(1.49278 0.124171 -0.0132428)
(1.59472 0.391986 -0.00756222)
(1.10535 0.184402 0.0867084)
(1.37771 0.179089 0.079241)
(1.51335 0.32483 0.065857)
(0.935533 -0.108896 -0.0460272)
(1.16837 0.0398937 0.0270209)
(1.30748 0.0663777 0.0134605)
(1.38091 -0.178788 -0.10893)
(1.85971 0.215648 0.0319587)
(1.28565 0.294787 0.115271)
(0.878377 -0.0808821 -0.00595618)
(0.955763 -0.272311 -0.0337646)
(1.01471 -0.191344 0.0137039)
(1.10869 -0.240238 0.0838205)
(1.00693 0.215111 0.111311)
(1.17275 0.519903 0.00975605)
(0.839885 0.0432385 0.161805)
(0.659365 -0.317591 0.0980072)
(0.982219 0.0453394 -0.0755085)
(1.41848 0.357907 -0.205968)
(1.23526 0.247378 -0.0539243)
(0.860101 0.233558 0.100334)
(1.2424 0.324254 0.115108)
(1.27557 0.145113 0.185018)
(1.11288 -0.154318 0.165941)
(1.5355 0.173383 0.0217228)
(1.23401 0.0778264 -0.0102826)
(1.13375 -0.112201 0.0516751)
(1.02961 -0.0186698 0.150608)
(1.15117 0.0597771 0.040307)
(1.13565 0.0611571 0.00618063)
(0.784939 -0.088545 0.0969105)
(1.08574 0.0507102 -0.0371402)
(1.16265 -0.212448 0.127125)
(0.983898 -0.319349 0.21028)
(1.14052 0.155243 -0.0686738)
(1.64395 0.360496 -0.113344)
(1.10209 -0.000350344 0.105957)
(0.657746 -0.174955 0.149815)
(0.944323 -0.185557 -0.0845075)
(1.31521 0.0530639 0.0164089)
(1.51438 0.260996 0.296023)
(1.31821 0.134158 0.0516722)
(1.45033 0.148302 -0.051714)
(1.43882 0.170831 -0.0343501)
(0.98964 -0.0663165 -0.121585)
(1.17356 -0.170917 -0.154686)
(1.17802 -0.36966 0.109713)
(1.11647 -0.19981 0.165907)
(0.952583 0.0548544 -0.0139296)
(1.46104 0.197493 -0.0874984)
(1.21353 0.115765 -0.0588308)
(1.40946 -0.055921 0.0023702)
(1.28322 0.137232 -0.0489369)
(1.43565 0.0857977 -0.0959837)
(1.23258 0.109733 -0.10018)
(1.16219 0.216777 0.144208)
(0.937006 0.150865 0.14864)
(1.12083 -0.00617004 0.0114469)
(1.05882 -0.0796559 0.00755855)
(1.20721 0.228351 0.0203207)
(1.25549 0.151077 0.0909835)
(1.57548 0.27192 -0.0629063)
(1.99582 0.260342 -0.0845377)
(1.01462 -0.265754 0.203066)
(0.846699 -0.352537 0.118939)
(1.26502 -0.275825 -0.0627207)
(1.31582 0.0759795 0.121003)
(1.31781 0.290438 0.0858534)
(1.1027 0.0312708 -0.198558)
(1.20325 -0.0088641 -0.00280819)
(1.48169 0.208497 0.126287)
(0.980932 0.207697 -0.0696054)
(1.09569 -0.0800895 -0.141166)
(1.1465 -0.135774 -0.0482214)
(0.878515 -0.0583031 0.0265487)
(1.32019 -0.0551457 0.0229431)
(1.45708 0.182816 -0.0108088)
(1.37478 0.176205 -0.00890962)
(1.23211 -0.0963787 0.0187016)
(1.25559 0.0788106 0.097148)
(1.26449 0.278303 0.0114269)
(1.24679 0.0228441 -0.0582146)
(1.25137 0.137537 0.00188858)
(0.93101 0.0041578 0.0495098)
(1.20774 -0.088232 0.143331)
(1.31006 0.0499717 0.210044)
(1.16584 0.227108 0.120614)
(0.939423 0.454159 0.00662491)
(1.06048 0.0893567 0.0660997)
(0.919017 -0.284582 -0.0757978)
(1.24386 -0.203929 -0.116998)
(1.27107 0.260594 -0.173518)
(1.12085 -0.231475 0.0203945)
(1.16861 -0.144004 0.00195728)
(1.36465 0.417592 0.00758434)
(1.30028 0.192537 0.0995034)
(0.670487 -0.0725796 0.0219356)
(0.790932 -0.0114036 -0.00160676)
(1.11121 0.257004 -0.0213842)
(1.46387 0.394858 -0.0506324)
(1.4854 0.149561 -0.0729548)
(1.11709 -0.0167985 -0.0231906)
(1.35651 0.285274 0.0378541)
(1.47634 0.511087 0.101293)
(1.21049 0.206171 0.00567034)
(1.15359 -0.0125885 -0.177862)
(1.02348 -0.112947 -0.0783219)
(1.04623 0.0290694 -0.0624602)
(1.12234 0.206128 -0.114621)
(1.8301 0.110936 -0.061293)
(1.6926 0.190102 -0.00902294)
(1.47569 0.351385 0.0709323)
(1.12663 -0.163562 -0.00823522)
(0.995618 -0.164539 -0.0692876)
(1.27889 0.141494 0.035636)
(0.874455 -0.00750045 0.00413009)
(1.35283 0.0689735 0.0480881)
(1.31798 0.167061 0.0226647)
(0.991306 -0.0161949 -0.0427108)
(0.85002 -0.179111 -0.125728)
(1.79314 0.0311447 -0.128384)
(1.68425 0.0242728 0.0733696)
(1.32253 0.173239 -0.0613127)
(1.16818 0.196281 -0.127359)
(0.848054 -0.200046 0.136103)
(0.92989 -0.113187 0.122004)
(1.06597 0.205512 -0.102346)
(1.52211 0.352907 -0.0599456)
(1.50857 0.0865055 0.213479)
(1.14397 -0.291039 0.102316)
(1.58252 -0.035284 -0.186121)
(0.957632 -0.0686119 -0.011301)
(1.79662 0.177101 -0.000676796)
(1.8221 0.0597297 -0.0241294)
(1.58734 -0.0630885 -0.0478678)
(1.47005 0.169777 -0.00155953)
(1.20404 0.272519 -0.0395783)
(0.703797 -0.0749751 0.103623)
(0.992838 -0.145351 0.107063)
(1.32168 -0.134839 0.0389547)
(2.02896 0.00142757 0.0789113)
(1.28045 0.0799361 0.0413467)
(1.13677 -0.00570023 0.0106977)
(1.5635 -0.0111526 0.0447043)
(1.11195 -0.0393406 0.0157518)
(1.35248 -0.206791 0.102699)
(1.5172 0.152655 0.139136)
(0.735846 0.115339 0.0432133)
(1.0927 -0.435697 -0.0368764)
(1.26828 -0.260137 0.070427)
(1.23379 0.296979 0.0206749)
(1.91165 0.305364 -0.0738755)
(1.45094 0.116493 0.0455364)
(0.968596 0.0149001 0.125212)
(0.916218 -0.00601687 0.0309945)
(1.15629 -0.0871246 -0.045775)
(1.17218 0.0697944 -0.0146386)
(0.737021 0.345459 -0.0422365)
(1.31121 0.150049 -0.0273393)
(1.01879 -0.316474 -0.0886216)
(1.00997 -0.181206 -0.167678)
(1.45919 0.0608611 -0.0865138)
(1.68912 0.174051 0.0100732)
(1.36731 0.31787 0.00642017)
(1.22864 0.325115 -0.0551561)
(1.11048 0.0712896 0.0192844)
(1.18972 -0.0333474 -0.0345962)
(1.91072 -0.0950801 -0.130493)
(1.80091 0.243033 -0.0568129)
(1.32352 0.101598 -0.0780735)
(0.781233 -0.320592 -0.0338419)
(1.04775 -0.166347 0.0535093)
(1.27259 -0.452229 0.14984)
(1.38698 -0.12368 -0.0136274)
(1.35293 0.174291 -0.0801195)
(1.11203 0.255108 0.0680307)
(1.5338 0.44359 0.0525528)
(1.60192 0.329086 0.0189676)
(1.2807 0.0409884 0.0146523)
(1.31028 -0.0309986 -0.014004)
(1.40409 0.0732726 0.0924072)
(1.35429 0.281562 0.0069498)
(1.20251 0.136244 -0.0051979)
(1.10765 0.238862 0.0515564)
(1.11315 0.202269 0.0559106)
(1.21109 0.0719588 0.167287)
(1.12662 0.282474 0.12523)
(0.863869 0.0848201 0.00392315)
(0.882682 -0.0331074 -0.0844411)
(0.922351 0.108079 -0.0771482)
(0.715129 -0.0975993 0.0235237)
(1.10954 -0.0419535 0.112573)
(1.33427 0.15588 0.0673191)
(0.931575 0.154526 0.0383301)
(1.1868 0.0812952 0.0192272)
(1.03992 -0.00139495 0.00314149)
(0.704148 0.178554 0.0305599)
(1.28826 0.0457369 -0.0224138)
(1.5705 -0.0357598 -0.108333)
(1.23457 0.134065 -0.0961175)
(0.862197 -0.0722488 -0.0105286)
(1.19458 0.0216379 0.076676)
(1.25039 0.330816 0.0708952)
(1.21839 0.415936 0.0382207)
(1.22348 0.193369 0.0723916)
(1.07267 0.0585008 0.0770105)
(1.2814 0.109055 0.013689)
(1.47126 0.24788 -0.0397528)
(1.0337 0.199664 -0.0673415)
(1.24492 0.202242 -0.142299)
(1.16957 0.247113 -0.134196)
(1.44768 0.113144 0.0859267)
(0.982202 0.202787 0.045525)
(0.996621 0.254304 0.00603629)
(1.31688 0.431231 -0.111144)
(0.945292 0.204119 0.0221871)
(1.31906 0.175973 0.0207305)
(1.33888 0.221625 -0.0460784)
(0.904871 0.0256162 0.0692984)
(1.33597 -0.17377 0.0408147)
(1.08716 -0.0783647 -0.0307796)
(1.37873 0.156723 0.0324059)
(1.46803 0.0790932 0.00213501)
(1.012 0.16886 -0.0403872)
(1.30739 0.28608 -0.0446138)
(1.25992 0.0704498 -0.0802262)
(1.57555 0.204266 -0.0168195)
(1.73997 0.261508 -0.00266956)
(1.09552 -0.0689937 -0.0674967)
(1.39954 0.107417 -0.164475)
(1.31776 0.169451 -0.0387735)
(0.944307 0.00215198 0.0894607)
(1.39919 0.194018 0.0377518)
(1.22356 0.158206 0.0548901)
(1.28878 0.124406 0.0911513)
(1.20544 0.237424 0.042662)
(1.18884 0.137145 0.0355981)
(1.43612 0.0616158 0.0757345)
(1.21656 0.158659 0.00102284)
(1.34845 0.173537 -0.136597)
(0.987577 -0.0451357 -0.12505)
(0.686406 -0.00217075 -0.00459926)
(1.20937 0.42591 0.0349582)
(1.03308 0.4758 -0.00322278)
(1.08987 0.150172 -0.0334424)
(1.31299 -0.0507045 0.0628535)
(0.969611 -0.0462735 0.083299)
(1.59418 0.229902 -0.0731248)
(1.55563 0.435921 -0.0689222)
(0.793595 0.0307191 -0.0877559)
(0.995064 -0.162061 -0.0198963)
(0.862834 0.132818 -0.05074)
(1.26863 0.175738 -0.0368661)
(1.01938 0.107208 0.0160915)
(1.47924 0.235893 -0.0292032)
(1.52312 0.303975 0.0905309)
(1.54403 0.338076 0.0663808)
(1.21991 0.223841 -0.0122367)
(1.02419 -0.0719473 -0.10574)
(1.18951 -0.102515 -0.0586135)
(0.953278 -0.0159034 -0.0168147)
(1.16508 0.0814414 -0.0601571)
(1.40058 0.209291 -0.0362156)
(1.20743 0.215868 -0.0884507)
(0.978985 0.089264 0.00376841)
(1.41568 -0.00107814 0.056423)
(1.51991 0.0886585 -0.107474)
(1.15113 0.0829238 -0.0324668)
(0.932595 -0.0162061 0.0941964)
(1.31354 0.101302 -0.0586635)
(1.33657 0.0564444 -0.11588)
(1.55267 -0.0300716 -0.0315759)
(1.79343 0.154063 0.047095)
(1.01188 0.01633 0.0266189)
(0.6216 -0.0548797 0.0614997)
(0.892084 0.0803201 -0.00344404)
(1.00726 0.0423403 0.0828439)
(1.1714 0.0509428 0.155214)
(1.13574 0.174239 0.0534658)
(1.22173 0.200089 -0.00954606)
(1.09552 0.215399 -0.00297309)
(1.09052 0.30818 -0.0060368)
(1.2822 0.38246 -0.0263473)
(1.2548 0.244802 -0.0894435)
(1.46301 0.0264042 -0.176536)
(0.979598 0.103911 0.00310622)
(0.763854 -0.0341111 0.0951531)
(1.10689 -0.0444952 0.0107412)
(1.40263 0.255757 0.00641812)
(1.4353 0.187281 0.0541129)
(0.873023 0.0288044 0.03017)
(1.27702 -0.0300733 -0.120698)
(1.25067 -0.159183 -0.163124)
(1.50629 -0.0436698 -0.147493)
(1.54549 0.15266 -0.115999)
(1.27882 0.202792 0.0495944)
(1.27098 0.204429 -0.00614387)
(1.72122 0.357563 0.0076257)
(1.31601 0.106362 -0.0940962)
(1.16349 -0.0251017 -0.148866)
(1.0954 0.077146 0.0397848)
(1.23197 0.096466 -0.00198299)
(1.30522 0.236606 -0.0404825)
(1.2113 0.394065 -0.0534594)
(1.3734 0.314803 -0.0415925)
(1.18853 -0.0818687 0.0038046)
(1.71095 0.041561 -0.0741641)
(1.45109 0.2459 0.0750712)
(0.982694 0.0149981 0.0900491)
(1.34465 0.00020463 -0.0985671)
(1.21802 0.101771 -0.042269)
(1.01048 -0.0297693 -0.0148227)
(1.51441 0.0875463 -0.0508722)
(1.45402 0.213532 -0.00805785)
(0.802188 0.169028 -0.0579879)
(0.944447 0.234436 -0.123176)
(0.965439 0.00596203 -0.0910996)
(1.04156 -0.0863173 -0.0143209)
(1.16775 0.0446591 -0.020111)
(1.30932 0.203989 0.0254779)
(1.0187 0.145055 0.0243474)
(1.23149 0.00639125 0.0122717)
(1.20622 0.276934 0.0897829)
(1.42483 0.407844 0.0636069)
(1.39301 0.193112 -0.0833958)
(1.49432 0.184683 -0.0406564)
(1.50504 0.0407803 0.0732851)
(1.34875 0.0689278 0.0157432)
(1.31061 0.282 -0.0710984)
(1.21132 0.228899 0.00731383)
(1.25665 0.185387 0.0413293)
(1.23298 -0.0171703 -0.0143875)
(0.981907 -0.0259928 -0.0426463)
(1.20848 -0.0015863 -0.0594588)
(1.47497 0.318958 -0.0272227)
(1.43125 0.395607 -0.00498251)
(1.12624 0.245705 -0.128001)
(1.12702 0.188649 -0.110332)
(0.943856 -0.0015955 -0.0780758)
(1.04842 -0.03111 -0.0912542)
(1.12576 0.0774046 -0.0529501)
(1.06629 0.137871 -0.0309955)
(1.0426 0.294045 -0.039423)
(1.18442 0.325912 -0.104587)
(1.65807 0.238182 -0.1032)
(1.26815 -0.0607142 0.0795267)
(1.4056 -0.0709093 0.0514662)
(1.62695 0.266812 -0.0243772)
(1.14215 0.157682 0.112093)
(1.32939 0.0584138 0.0448644)
(1.11165 0.176558 -0.0567571)
(1.13204 0.0410797 0.0147614)
(1.30786 0.0447224 0.0113129)
(1.34913 0.297942 -0.00732607)
(1.09315 0.212136 -0.0300098)
(0.919843 0.0754588 -0.0863924)
(1.01602 0.0867618 -0.123623)
(1.16829 0.110486 -0.0497776)
(1.20713 0.0903263 0.0492198)
(1.37018 0.20895 0.0192868)
(1.31731 0.169119 -0.0199137)
(1.20663 0.0764612 0.0253253)
(1.40256 0.252495 0.0625081)
(1.37377 0.220045 0.039277)
(0.956376 -0.0345149 0.12941)
(1.2138 0.00272678 0.117611)
(1.37573 -0.0236114 0.023991)
(0.960259 -0.00798205 -0.0424576)
(0.952863 0.177785 -0.0110238)
(1.13179 0.154275 0.0902256)
(1.35074 0.0232672 0.078663)
(1.48719 0.144297 0.041836)
(1.40734 -0.106343 -0.00711655)
(1.17 -0.064509 -0.0579784)
(1.6513 0.189719 -0.00403943)
(1.55704 0.258035 0.101368)
(1.01974 0.269853 -0.0959959)
(1.29518 0.272387 -0.132617)
(1.39761 0.0104078 -0.0586306)
(1.25247 -0.0801413 -0.0644536)
(1.16306 0.0748168 -0.0723899)
(0.944208 0.122762 -0.0186544)
(1.11149 0.171651 -0.0393074)
(1.33901 0.135669 -0.0980549)
(1.59715 0.205047 -0.0303414)
(1.41872 0.0598575 0.0243212)
(1.23004 -0.0195906 -0.0694276)
(1.39911 0.251725 -0.0566944)
(1.5341 0.210736 0.0461007)
(1.38987 0.0189618 0.00501009)
(1.23381 0.164811 0.0239636)
(1.44393 0.0992751 0.0397321)
(1.23785 0.0809679 0.000105437)
(1.18588 0.192711 -0.0580703)
(1.09192 0.249447 -0.0355702)
(0.890769 0.283961 0.0663294)
(1.14676 -0.0118295 0.0216479)
(1.13723 -0.0412149 -0.0907648)
(1.16447 0.0600777 -0.111088)
(1.34718 0.141028 -0.0399841)
(1.40371 0.204286 -0.0367306)
(1.65279 0.110352 0.00105992)
(1.46513 0.195014 0.0596559)
(1.2729 0.368786 0.0461398)
(1.17326 0.167466 0.0277249)
(0.937603 -0.125166 -0.0749701)
(1.20146 0.00927122 -0.049646)
(1.08622 0.223171 0.00868972)
(1.1693 0.213446 -0.0525912)
(1.4055 0.137945 0.00657951)
(1.28454 0.243138 0.12364)
(1.46033 0.0615338 -0.0347319)
(1.27118 0.0716557 -0.0362704)
(1.04848 -0.0373096 0.0137238)
(1.26222 0.100121 -0.0760098)
(1.47298 0.450928 -0.0785033)
(1.4589 0.481708 -0.0554044)
(2.08198 0.231098 -0.0442843)
(1.742 0.0493388 -0.00717598)
(0.926169 0.0390243 -0.107312)
(1.46052 0.142847 -0.0924946)
(1.33029 0.173606 -0.0286311)
(1.02505 0.131523 -0.0892992)
(1.15324 0.0589885 -0.0921589)
(1.28277 0.194668 0.0225101)
(1.35221 0.123407 0.0186554)
(1.41995 0.0913195 -0.0404531)
(1.1525 0.384688 0.029595)
(1.09717 0.185579 -0.147125)
(1.40554 0.00516536 -0.145989)
(1.4355 0.0887734 -0.0176547)
(1.23888 0.0872452 -0.0399138)
(1.32255 0.127497 -0.0170768)
(1.36535 0.214742 0.0241813)
(0.914693 0.354916 -0.0140751)
(1.14183 0.256722 0.0811834)
(1.74376 0.0906672 0.159324)
(1.36819 0.141793 0.00040229)
(1.11719 0.00966375 -0.146453)
(1.61152 0.0365475 -0.0681442)
(1.55972 0.122339 -0.0608052)
(1.39002 0.033428 -0.12847)
(1.51911 0.20266 0.0161264)
(1.44874 0.353159 0.0918182)
(1.47403 0.186334 0.0318507)
(1.36841 0.0447778 -0.0225796)
(1.06222 0.0637755 -0.0119645)
(1.21214 0.14243 -0.0462767)
(1.6052 0.0688562 -0.114236)
(1.39911 0.0464735 -0.0193213)
(1.66809 0.097965 0.119933)
(1.00444 0.143045 -0.0964907)
(1.37004 0.0312238 -0.0851819)
(1.09057 -0.0653544 0.0723228)
(0.807107 0.0337077 -0.0424975)
(1.7529 0.319029 -0.0625908)
(1.60741 0.207944 -0.00931113)
(1.76731 0.125803 -0.087556)
(1.64782 0.206156 -0.0971841)
(1.06973 0.0446678 -0.124605)
(1.42812 0.0370487 -0.0861483)
(1.32942 0.193625 -0.040678)
(1.16134 0.221801 -0.107585)
(1.16782 0.0693621 -0.0504648)
(0.87249 0.0999147 -0.0477611)
(1.10909 0.0975772 -0.122399)
(1.55253 0.164256 0.0134746)
(0.973404 0.238337 -0.0425391)
(0.755193 0.0319731 -0.170405)
(1.05418 -0.125895 -0.125664)
(0.916874 0.0332517 -0.0765058)
(1.12605 0.143101 -0.0537495)
(1.05498 0.127224 -0.0433022)
(0.895958 0.200468 0.00339309)
(0.886115 0.276942 0.00653986)
(1.33589 0.122068 0.0371549)
(1.32932 0.00181425 0.0728879)
(1.62388 0.133974 0.00101351)
(1.03391 -0.0377424 -0.20029)
(1.21858 -0.0125128 -0.0923761)
(1.56763 0.210287 -0.0356656)
(1.22415 0.164059 -0.0925629)
(1.28577 0.15265 -0.017867)
(1.56482 0.290827 0.0298641)
(1.38944 0.211196 0.0254246)
(1.39633 0.0292856 0.0106312)
(1.13544 0.126816 0.0162708)
(1.20997 0.090448 -0.00694988)
(1.54374 0.0621865 -0.0901955)
(1.67535 0.108253 -0.0197501)
(1.10143 0.130044 0.0655842)
(1.24299 0.12152 -0.0438746)
(1.1178 0.100461 -0.0420927)
(1.4179 0.0957891 0.0501259)
(0.913506 -0.013688 0.0572687)
(1.71866 0.189665 0.0131287)
(1.29128 0.280316 0.0120549)
(1.36802 0.131391 -0.013693)
(1.48281 0.222016 -0.124283)
(0.893978 0.0927888 -0.0518404)
(1.40649 0.026608 -0.0445266)
(1.21717 0.237153 -0.0447247)
(1.02482 0.132607 -0.104554)
(1.45128 0.0546309 -0.0144887)
(1.03485 0.187462 -0.0207843)
(0.951986 0.0788175 -0.0959567)
(1.20354 0.21983 -0.00737729)
(1.05049 0.432681 -0.0409896)
(0.886889 0.205332 -0.0191849)
(1.16756 0.0299291 -0.0504092)
(0.809044 0.0469327 -0.0424885)
(0.919969 0.0466099 -0.0390938)
(1.1456 0.15823 -0.0773028)
(1.07471 0.225675 -0.015184)
(1.16954 0.182675 -0.0184753)
(1.48341 0.11431 -0.00915632)
(1.8646 0.0730983 0.0356459)
(1.42978 0.176095 -0.0441681)
(1.03138 0.0496917 -0.180054)
(1.1518 0.000901777 -0.163571)
(1.17975 0.221879 -0.0490196)
(1.4506 0.158732 -0.0431445)
(1.41436 0.0819731 -0.0283227)
(1.30296 0.288095 -0.0272813)
(1.15382 0.243313 -0.0472018)
(1.46902 0.120966 0.030121)
(1.0947 0.204187 -0.0455383)
(1.44652 0.13677 -0.0494676)
(1.49814 0.00932088 -0.0158288)
(1.29053 0.115831 -0.00386213)
(1.29161 0.18951 0.00880998)
(1.07395 0.180344 -0.0458719)
(0.802865 0.0410067 -0.029358)
(1.3651 0.0469957 -0.00951729)
(1.1838 -0.027572 0.0559586)
(1.34122 0.0984087 0.0385043)
(1.25518 0.222212 0.021119)
(1.13228 0.0711926 0.025006)
(1.21654 0.363681 -0.0260895)
(0.77748 0.0652563 0.0297547)
(1.52047 -0.0788376 0.0920236)
(1.48518 0.301234 0.03293)
(1.1709 0.106023 -0.11501)
(1.14201 -0.0208589 -0.111974)
(1.10703 0.19804 -0.0370724)
(1.10162 -0.00527 -0.0195329)
(1.2628 0.0363159 0.0291179)
(1.44435 0.398898 -0.00535295)
(1.20423 0.181571 -0.0420287)
(0.920272 -0.0609826 -0.0833142)
(1.14271 -0.00721721 -0.00579782)
(1.06843 0.0450957 0.00546841)
(1.02403 0.13959 -0.0415654)
(1.01308 0.0783814 -0.0470159)
(1.55434 0.0953289 -0.0836514)
(1.57942 0.00220408 -0.0449173)
(1.85135 0.0148754 -0.0119712)
(1.30734 0.298679 -0.0731926)
(1.23999 0.0473235 -0.0840443)
(1.13276 1.43174e-06 -0.111639)
(1.30472 0.235312 -0.0479959)
(1.55191 0.0737735 -0.0241483)
(1.40009 0.0860721 -0.0510782)
(1.2334 0.355446 -0.0535521)
(1.15749 0.198391 -0.0622517)
(1.15564 0.0495942 -0.00635892)
(1.36084 0.184444 -0.0714386)
(1.51 0.0365088 -0.0704561)
(1.19708 0.0219331 0.0283571)
(1.03368 0.131536 0.00759441)
(1.72293 0.167707 0.0132907)
(1.03064 0.208214 -0.01525)
(0.883568 0.0227312 0.000738159)
(1.31644 0.0527862 0.011434)
(1.24554 -0.0234576 0.00526301)
(1.27384 0.0374163 0.0464038)
(1.33259 0.265786 0.0381578)
(1.25079 0.158087 0.00480534)
(0.807544 0.288467 0.0412375)
(0.913868 -0.0434014 -0.177899)
(1.34793 -0.190031 -0.0439023)
(1.34504 0.238279 0.0778794)
(1.60381 0.15134 -0.0335867)
(1.14819 0.0352752 -0.121694)
(1.4985 0.229402 -0.0412595)
(1.33366 0.011186 0.0280037)
(1.36925 0.010899 0.0349401)
(1.35007 0.359629 -0.00663224)
(1.79577 0.293272 -0.00405681)
(1.32132 0.0813207 -0.0462082)
(1.14889 0.0463981 -0.0263942)
(0.999792 0.104926 0.0296336)
(1.26352 0.183241 0.0335203)
(1.449 0.0660543 0.0352024)
(1.70547 0.0683056 -0.0593697)
(1.49524 0.0763509 -0.0758072)
(1.54086 0.117825 -0.0279368)
(1.42916 0.344185 -0.0431375)
(1.30422 0.150509 -0.0555792)
(0.935197 0.0419363 -0.130835)
(1.2855 0.167314 -0.0549033)
(1.42672 0.0817258 -0.0202055)
(1.31898 0.124348 -0.0783016)
(1.28784 0.390643 -0.0247003)
(1.43942 0.291445 -0.0748265)
(1.18512 0.0738139 -0.122815)
(1.2108 0.12684 -0.163262)
(1.50321 0.12483 -0.128622)
(1.24306 0.0976217 0.0125066)
(1.04486 0.0160097 0.00915553)
(1.72845 0.111024 0.0491672)
(1.23579 0.295163 -0.037738)
(1.23496 0.0534936 0.060321)
(1.44124 0.0563323 -0.00400288)
(1.29823 -0.0384531 -0.0643282)
(1.45038 0.0477887 0.0701887)
(1.33473 0.210732 0.0089008)
(1.23066 0.178662 -0.0629881)
(0.947087 0.372185 0.0535986)
(1.24553 -0.0429975 -0.149826)
(1.25907 -0.164726 -0.154378)
(1.27157 0.243555 0.0346379)
(1.50212 0.11902 -0.0175203)
(1.33418 0.0322604 -0.121252)
(1.37329 0.154543 -0.0677296)
(1.68089 -0.0623386 0.0592932)
(1.04371 -0.0176917 0.0121654)
(1.52636 0.326876 0.0230532)
(1.9097 0.270201 0.0200131)
(1.17242 0.0850988 -0.0511519)
(1.4455 0.032243 -0.11329)
(1.25893 0.102419 -0.0218738)
(1.26875 0.0915618 0.00906763)
(1.6259 -0.0114912 0.0267392)
(1.41492 0.100015 -0.0497328)
(1.48656 0.133697 -0.0803506)
(1.58056 0.149465 -0.0119786)
(1.45019 0.361733 -0.0150129)
(1.45893 0.192317 0.0118266)
(1.25101 0.0702161 -0.0828258)
(1.28744 0.103031 -0.0811957)
(1.26109 0.0286095 0.0155877)
(1.47615 0.0583982 0.0138423)
(1.46346 0.317435 -0.0210733)
(1.50485 0.280189 -0.111648)
(1.33542 0.0976396 -0.11663)
(0.902236 0.0820442 -0.186774)
(1.3019 0.0440562 -0.108867)
(1.25588 0.0751729 -0.0390366)
(1.1917 -0.0116492 -0.0706342)
(1.63708 0.112529 -0.0233503)
(1.38355 0.297592 -0.0671006)
(1.40028 0.06441 -0.0349307)
(1.6121 0.0623005 0.0136263)
(1.36113 -0.0684825 -0.0512295)
(1.48149 0.00396946 0.00677397)
(1.58102 0.253403 -0.0121354)
(1.09705 0.25739 -0.00198927)
(1.08376 0.328228 0.0580014)
(1.55724 -0.0726729 -0.0850915)
(0.895532 -0.125639 -0.144904)
(1.22736 0.231131 0.00589549)
(1.48659 0.0742177 0.0530633)
(1.33199 0.0790707 -0.0811757)
(1.63681 0.10721 -0.0750188)
(1.69873 -0.0683217 0.0027)
(1.25826 0.00775643 -0.00042075)
(1.69965 0.271248 0.0427536)
(1.74313 0.288335 -0.00467622)
(1.24802 0.0862823 -0.0161888)
(1.35212 -0.00131269 -0.16132)
(1.40258 0.119094 -0.125592)
(1.24979 0.0450671 -0.000753295)
(1.43551 0.0439767 -0.0425804)
(0.89432 0.182664 -0.0744213)
(1.24794 0.100243 -0.12214)
(1.50538 0.08567 -0.0599793)
(1.43008 0.343965 -0.00116141)
(1.68774 0.2499 0.0118703)
(1.42101 0.0602561 -0.0722771)
(1.49816 0.100846 -0.0463255)
(1.08426 0.030699 0.0385154)
(1.35408 0.0525646 0.0201445)
(1.44208 0.339425 -0.00427784)
(1.53982 0.317484 -0.0837955)
(1.48897 0.187543 -0.0861997)
(1.22882 0.125832 -0.174042)
(1.19542 0.016151 -0.0714414)
(1.36524 0.0591682 -0.0321858)
(1.10277 -0.030005 -0.0960122)
(1.57005 0.0837317 -0.149234)
(1.33735 0.271777 -0.0785706)
(1.59762 0.0654412 -0.106261)
(1.71658 0.0978556 0.0394763)
(1.38718 -0.0323797 -0.0702847)
(1.11609 0.0573661 -0.093808)
(1.34339 0.2951 -0.0413701)
(1.11603 0.266742 0.00757408)
(1.5112 0.273933 0.0880846)
(1.4012 -0.0354672 -0.151237)
(0.874462 -0.0554067 -0.19843)
(1.53532 0.146013 0.0505525)
(1.28374 0.0336665 -0.0458853)
(1.27644 0.0557744 -0.177661)
(1.61412 0.0465129 -0.0314515)
(1.41952 -0.0821471 -0.0177706)
(1.39616 -0.0239497 -0.00448949)
(1.57623 0.201112 0.0534609)
(1.65406 0.325928 -0.0115003)
(1.68623 0.111262 0.0429197)
(1.54646 -0.0470739 -0.0767139)
(1.61524 0.111493 -0.0795019)
(1.08139 0.0423578 -0.0300005)
(1.42 0.0644194 -0.0630765)
(1.21051 0.194705 -0.04516)
(1.35093 0.0102539 -0.0955197)
(1.73976 0.057935 -0.0524124)
(1.4085 0.360821 -0.0066684)
(1.8652 0.267462 -0.0152305)
(1.59935 0.0852982 -0.00455341)
(1.54103 0.0820604 -0.0250617)
(0.97587 0.0201743 -0.0328962)
(1.1585 0.0546806 -0.0221949)
(1.18339 0.360363 -0.0343186)
(1.46108 0.361708 -0.0556584)
(1.54411 0.217926 -0.0436172)
(1.74629 0.188067 -0.113365)
(1.22989 0.0224311 -0.0784544)
(1.4899 0.0400121 -0.00527527)
(1.38685 -0.020982 -0.0789481)
(1.57485 0.0791067 -0.0763402)
(1.19184 0.297 -0.0510276)
(1.38976 0.0366339 -0.135983)
(1.84876 0.0622784 -0.00872289)
(1.56206 -0.0435201 -0.0778451)
(1.31276 0.0665102 -0.0908422)
(1.40565 0.281947 0.0354497)
(1.34601 0.224252 0.0507386)
(1.4897 0.238776 0.0905422)
(1.36836 -0.00731103 -0.13799)
(0.915421 -0.0542616 -0.185477)
(1.71684 0.117156 0.0643421)
(1.22994 0.0326305 -0.105757)
(1.39116 0.0519695 -0.162819)
(1.44214 -0.0293197 -0.0385667)
(1.79557 -0.133932 0.0591988)
(1.21948 0.00224791 0.00834852)
(1.29444 0.268202 -0.028622)
(1.48832 0.334506 -0.00249046)
(1.45325 0.0405768 -0.0464156)
(1.57656 -0.0345342 -0.0289388)
(1.48242 0.122241 -0.0230535)
(1.20702 0.00109619 -0.0787616)
(1.02218 0.067891 -0.0794887)
(1.24901 0.203873 -0.0399075)
(1.53373 0.0130307 -0.0560116)
(1.18329 0.103131 -0.029146)
(1.31874 0.353046 0.0344307)
(1.64621 0.248647 -0.00683318)
(1.73821 0.031466 -0.0285095)
(1.77392 0.102552 0.0183155)
(1.42809 0.0750062 0.0501252)
(1.29141 0.0670446 -0.0193994)
(1.25065 0.35931 -0.0828319)
(1.26626 0.272397 -0.0574195)
(1.50651 0.133684 -0.0634276)
(1.51598 0.187548 -0.157101)
(1.14025 -0.00672058 -0.0497817)
(1.43809 0.0189505 -0.0269492)
(1.24035 -0.0319935 -0.104121)
(1.58751 0.0653824 -0.0714061)
(0.564503 0.267348 -0.142044)
(1.15215 -0.0658967 -0.0808646)
(1.85214 0.0403173 0.0474753)
(1.41442 -0.0121866 -0.120843)
(1.22174 0.0362063 -0.0924476)
(1.33154 0.213058 -0.00934271)
(1.41452 0.141075 -0.00151642)
(1.73065 0.23612 0.162025)
(1.53651 0.0663744 -0.103526)
(1.17209 -0.024511 -0.166773)
(1.55316 0.133007 0.0013741)
(1.46965 0.06936 -0.0758706)
(1.36147 0.030508 -0.153151)
(1.69796 -0.0980654 -0.00725701)
(1.37947 -0.144362 0.0171163)
(1.48355 0.00960963 0.041775)
(1.20192 0.223492 0.0134761)
(1.27573 0.264086 0.00602037)
(1.39249 0.0246809 -0.120623)
(1.14099 -0.022797 -0.0907937)
(1.08348 0.102479 -0.0573449)
(1.6516 0.0205628 -0.0921763)
(1.06739 0.0941825 -0.0402011)
(0.729335 0.0986932 -0.0681203)
(1.21136 -0.0364482 -0.0993898)
(0.745927 0.0872075 -0.0386605)
(1.6021 0.311655 0.0260428)
(1.7092 0.20276 0.015097)
(1.49582 -0.0186109 -0.000873668)
(1.32368 0.0438374 -0.038044)
(1.77509 0.0360539 0.0590384)
(1.47625 0.0417213 0.0125052)
(1.89797 0.309353 0.0344693)
(1.58019 0.266059 0.0114707)
(1.512 0.156492 -0.0363674)
(1.60212 0.229599 -0.142663)
(1.3056 -0.00571621 -0.0389102)
(1.16963 0.0134901 -0.0577467)
(1.33375 -0.0181765 -0.0469912)
(1.1553 0.0691372 -0.0274011)
(0.541736 0.266302 -0.057862)
(1.08252 -0.0701468 -0.0359614)
(1.58341 -0.0432988 0.101)
(1.53944 -0.0115025 0.00281802)
(1.13996 0.0779997 -0.117282)
(1.29632 0.220154 -0.0557039)
(1.39257 0.124909 0.02014)
(1.50068 0.231107 0.121308)
(1.33982 0.042882 -0.0682998)
(1.58654 -0.0154934 -0.129575)
(1.51443 0.115115 -0.0338443)
(1.24101 0.0436813 -0.109907)
(1.81299 0.0223465 -0.134109)
(1.48986 -0.111461 -0.00481504)
(0.947136 -0.144341 -0.0425991)
(1.44442 0.00381767 0.0324018)
(1.43792 0.198106 0.0673309)
(1.50061 0.234981 0.0165356)
(1.45143 0.0347154 -0.0957838)
(1.20011 0.0166304 -0.0750756)
(1.2972 0.0414491 -0.0129756)
(1.23254 0.0188248 -0.118146)
(1.09957 0.19982 -0.022085)
(1.22556 0.0609633 -0.0525234)
(1.45641 -0.0561947 -0.0190377)
(1.32262 0.0454493 0.0524462)
(1.73751 0.21822 -0.0429044)
(1.88675 0.181677 0.00197837)
(1.4689 -0.0477169 0.0716874)
(1.83022 -0.0191879 -0.0413824)
(1.69233 0.0414645 0.0486093)
(1.28484 0.0918553 -0.043271)
(1.71269 0.344467 -0.00654265)
(1.71202 0.301527 -0.028378)
(1.5053 0.138411 -0.000846931)
(1.97722 0.213329 -0.111564)
(1.62892 0.0173824 -0.0537112)
(0.949095 0.034642 -0.00651165)
(1.14226 -0.0315685 -0.113999)
(1.07054 0.0920355 0.0228445)
(1.0877 0.209549 -0.103156)
(1.63041 -0.03213 -0.0099949)
(1.25649 -0.0277461 0.146669)
(1.10012 -0.00634623 -0.000196834)
(1.12653 0.0714967 -0.115357)
(1.69998 0.101951 0.0166828)
(1.77038 0.0779254 0.0891109)
(1.52307 0.246045 0.0379199)
(1.47933 0.0258405 -0.055337)
(1.72714 -0.0274189 -0.0623519)
(1.57423 0.120135 0.0287192)
(1.0608 -0.0164025 -0.211726)
(1.96143 -0.0108656 -0.136699)
(1.54621 -0.0609362 -0.0368303)
(1.26287 -0.128373 -0.062723)
(1.15908 -0.0282749 -0.0242736)
(1.86348 0.172589 0.0704128)
(1.71145 0.219664 0.013121)
(1.46208 0.0368132 -0.0504345)
(1.61479 0.0372763 -0.00132347)
(0.893108 0.0403038 -0.0887867)
(0.795236 0.00163941 -0.0982798)
(1.39196 0.160337 -0.00860667)
(1.44307 0.00431291 -0.0943086)
(1.32666 -0.079092 -0.00110791)
(1.66451 0.0352192 0.0828038)
(1.59016 0.218582 -0.0568935)
(2.06793 0.211184 -0.00511188)
(1.81731 -0.0713874 0.0577213)
(1.86506 -0.0371372 -0.0670309)
(1.84264 0.0668947 -0.0179204)
(1.48269 0.0971897 -0.0220499)
(0.934332 0.278609 -0.132925)
(1.58111 0.22618 -0.0289806)
(1.36112 0.0596948 0.0298506)
(2.24659 0.139572 -0.0237095)
(1.99411 0.0666699 0.0446193)
(1.21873 0.0420836 -0.0140589)
(1.1831 -0.0722561 -0.149725)
(0.896169 0.0878417 -0.0387418)
(1.37654 0.124564 -0.147848)
(1.48649 -0.0382947 -0.00579089)
(1.576 -0.0545332 0.215993)
(1.24829 -0.0576241 -0.00402251)
(1.17092 0.0584518 -0.172926)
(1.40788 0.0696888 -0.024401)
(1.70537 0.130802 0.00264299)
(1.28382 0.241082 -0.00824567)
(1.4661 -0.0609658 -0.120845)
(1.51401 -0.018724 -0.104859)
(1.47157 0.110889 -0.0219275)
(1.35903 -0.0566588 -0.172813)
(1.27391 -0.0374965 -0.274197)
(2.10491 -0.0726748 0.0672306)
(1.62839 -0.0828041 0.010472)