/*--------------------------------*- C++ -*----------------------------------*\
  =========                 |
  \\      /  F ield         | OpenFOAM: The Open Source CFD Toolbox
   \\    /   O peration     | Website:  https://openfoam.org
    \\  /    A nd           | Version:  10
     \\/     M anipulation  |
\*---------------------------------------------------------------------------*/
FoamFile
{
    format      ascii;
    class       volScalarField;
    location    "90";
    object      p;
}
// * * * * * * * * * * * * * * * * * * * * * * * * * * * * * * * * * * * * * //

dimensions      [0 2 -2 0 0 0 0];

internalField   nonuniform List<scalar> 
25600
(
0.00183276
0.00201731
0.00202239
0.00155269
0.000605163
-0.000164563
0.000334497
4.46423e-05
0.000283811
0.000723857
0.000353371
0.000857535
0.00169528
0.00197421
0.00137199
0.00116443
0.000372894
0.000109858
0.000977995
0.00165251
0.00126959
0.0018124
0.00301264
0.00259964
0.00206701
0.00221296
0.00181737
0.00181424
0.00206227
0.00184953
0.00165464
0.00125291
0.00133717
0.00170139
0.000964689
0.000969176
0.00113101
0.000359026
0.000916151
0.00193058
0.00123277
0.00101041
0.000877123
-3.21013e-05
-0.000760544
-0.000317629
0.000518506
-4.03322e-05
0.000314535
0.00158085
0.00128456
0.000922211
0.00072366
0.000265113
0.00054135
0.00145359
0.00187502
0.00119443
0.000646407
0.000431879
0.000412997
0.00145605
0.00245969
0.00228663
0.0020038
0.00201748
0.0019792
0.0016555
0.00199223
0.00182069
0.00104038
0.000899643
0.000873022
0.000788196
0.00102156
0.00121474
0.00126452
0.000831345
0.00110847
0.00172506
0.000858921
0.000863809
0.000842937
0.000497711
-0.000208617
0.000446086
0.000123433
-0.00120117
-0.000831147
5.52036e-05
-3.52448e-05
0.000897174
0.00190236
0.00149907
0.00110443
0.00107824
0.000408093
-0.00107769
-0.00158956
-0.00100443
0.00105126
0.00173168
0.00215082
0.0025075
0.00207337
0.00183602
0.00159262
0.00105745
0.00158958
0.00131091
0.000343595
0.000800254
0.000630648
0.000269948
0.00111381
0.00132935
0.00138134
0.00138066
0.00115001
0.00136137
0.000622364
0.00031538
-0.000447829
-0.00136975
-0.00100611
1.57131e-05
-0.00169422
-0.00345549
-0.00230791
-0.000183911
6.91769e-06
0.00158679
0.00121658
-0.000642629
-0.0009083
-0.000300125
-1.53701e-05
-0.000764624
-0.000724836
-0.000249564
0.000428281
0.000941744
0.000999902
0.00123993
0.00133305
0.0013117
0.0010806
0.000573118
0.00106294
0.000940327
0.000228086
0.0007683
0.000564401
0.000297473
0.00130829
0.00178958
0.00151995
0.00184851
0.00164286
0.00094811
-0.000557726
-0.00139846
-0.000417012
0.000564705
0.000383348
-0.00102446
-0.003715
-0.00490279
-0.00370681
-0.00198515
-0.000513397
0.000459134
0.000257462
-0.000517905
-0.000589996
9.27012e-05
0.000375453
9.86554e-05
0.000360983
0.000602825
0.000760887
0.00142496
0.00102128
0.00117976
0.00157674
0.00197106
0.00116396
0.000280174
6.00332e-05
0.000312401
0.0002163
0.000919758
0.000538046
0.00073098
0.0025856
0.00290775
0.00247299
0.0032121
0.0028976
0.00121705
0.00086845
-0.00024514
-5.22785e-05
0.000501696
0.00072559
-0.00011076
-0.0023484
-0.00427907
-0.00508842
-0.00564485
-0.00381867
-0.00141213
-0.000130718
-0.00137266
-0.000734009
0.000192988
0.000804752
0.00111767
0.001393
0.000216165
-0.000382482
0.000841823
0.00129641
0.00121264
0.00189381
0.00169261
-0.000267107
-0.00225997
-0.000844795
0.00059055
0.00124827
0.00154749
0.00105708
0.00109532
0.00259868
0.00222007
0.00130721
0.00324401
0.00225172
0.000243846
-7.59828e-05
-0.00202677
-0.00165664
5.98172e-05
0.000771965
0.000350743
-0.00180975
-0.0029122
-0.00451212
-0.0059414
-0.0043878
-0.000818744
0.00164374
0.0017812
2.04094e-05
0.000930981
0.00156259
0.00159024
0.000775034
-0.00181391
-0.00172792
0.000660614
0.00120649
0.00090567
0.00126514
0.000678587
-0.000708865
-0.000977787
9.84156e-05
0.00143174
0.00202455
0.00121652
3.97783e-05
-8.7048e-05
0.0017325
0.00301958
0.00334916
0.00356917
0.000881986
-0.000650274
-0.000657724
-0.00347609
-0.00113695
0.000449207
-0.000222697
-0.000507375
0.000543142
-0.000734526
-0.00263868
-0.00405671
-0.00305729
-8.35355e-05
0.00264845
0.000712751
-1.14511e-05
0.00118667
0.00187143
0.0020573
0.000362196
-0.00202233
-0.00154172
0.000911674
0.000345824
0.000165126
0.00149752
0.000960977
0.00011289
0.0005008
0.000810041
0.00152473
0.0023712
0.00190207
0.000246892
-0.00119169
-0.000150979
0.00246161
0.00412795
0.00325281
0.000144502
-0.00115152
-0.000335334
-0.00214575
-0.000301091
0.000657815
-0.000697829
-0.00128048
-0.00250775
-0.00329577
-0.00275675
-0.00256314
-0.00305592
-0.00162268
-9.15087e-05
-0.00068043
8.25793e-05
0.00175972
0.00242559
0.00211539
-0.000566838
-0.00375527
-0.00190716
1.52168e-05
-0.000614587
-0.000404613
0.00135965
0.000554241
8.37749e-05
0.000473259
0.000751705
0.00153783
0.00159076
0.00082913
-0.00107893
-0.00297843
-0.00165064
0.00148127
0.0022473
0.00218902
-0.000663585
-0.00084941
0.000382078
-0.000916209
-0.000180974
0.000497449
-6.26665e-05
-0.000975433
-0.00305168
-0.00384946
-0.00234963
-0.00242362
-0.00359066
-0.00254161
-0.00150471
-0.00136466
0.00045693
0.00207355
0.0027068
0.00206624
0.000124488
-0.00219485
-0.00116625
-0.000259422
-0.000551685
0.000899913
0.00189047
0.0013957
0.000560751
0.000649826
0.000477515
0.00038777
0.000492422
-0.000162106
-0.00288564
-0.00504097
-0.00163691
0.0020675
0.0027675
0.00159146
-0.00124469
-0.000190499
0.00137271
-0.000452353
-0.00171313
-0.000131048
0.000323598
-0.000457216
-0.00218044
-0.00141127
-0.000112353
-0.00257457
-0.00475408
-0.00346314
-0.00216029
-0.00157662
6.30251e-05
0.0021475
0.00304798
0.00215812
0.000930099
-0.000630348
-0.000611884
-0.00041626
-0.000279581
0.00111934
0.00209312
0.000994206
7.53357e-05
0.000798347
0.000623027
0.000703358
0.00108598
0.000151842
-0.00440612
-0.00773576
-0.00162301
0.00343507
0.00286834
0.00126734
-0.000451196
0.0010291
0.00143112
-0.000747107
-0.00238209
0.000310256
-5.95268e-05
-0.00140051
-0.00271209
-4.09874e-05
0.00102347
-0.00241716
-0.00474981
-0.00340971
-0.00226665
-0.00210123
-0.00123094
0.00187171
0.00312743
0.00209386
0.0012861
0.000426398
1.32309e-05
-0.000240869
-0.000642711
0.000445318
0.00178025
0.000306012
-0.000143637
0.00128995
0.000693458
0.00178318
0.00218079
0.000331083
-0.00526171
-0.0079956
-0.00146174
0.00322004
0.00244711
0.0013053
0.000773644
0.00182401
0.000889106
-0.00135607
-0.000771815
0.00116549
5.75364e-05
-0.0019214
-0.00202224
0.00164037
0.000487728
-0.00290726
-0.00398655
-0.00114405
-0.00203174
-0.0029822
-0.00255599
0.00262826
0.00340512
0.0021602
0.00166871
0.00151191
0.00118088
0.000408411
-0.00103833
-8.01767e-05
0.00094007
-0.000614722
-0.000263536
0.000760109
-0.00066897
0.00421569
0.00297381
-0.000369059
-0.00535413
-0.00660913
-0.000629373
0.0027264
0.00151433
0.00129816
0.00144299
0.00203034
-0.000668431
-0.000562829
0.0012529
0.0022845
9.32467e-06
-0.00202426
-0.00088691
0.0025192
-0.000614407
-0.00354375
-0.00281074
-0.000300827
-0.00140872
-0.00333996
-0.00186726
0.0033858
0.00378812
0.00211768
0.00194008
0.00233282
0.00217842
0.000539021
-0.00178916
-0.000265585
0.000744716
-0.00183986
-0.00134519
-0.0014461
-0.00478856
-0.0041206
0.00232238
-0.00131847
-0.00399589
-0.00372297
0.000434438
0.00195647
0.000960209
0.00166708
0.00209874
0.00222002
0.00139024
0.00165556
0.00342389
0.00311695
-0.00022752
-0.00222423
-0.000588143
0.00234782
-0.000970401
-0.00398211
-0.00206978
0.00078461
-0.000753742
-0.00257996
-0.00149504
0.00411038
0.00445413
0.00188708
0.00186276
0.00299144
0.00311848
0.00059605
-0.00207266
-0.000385673
0.000877156
-0.00148828
-0.00192181
-0.0045942
-0.00927292
-0.00473535
0.00280735
-0.00173238
-0.00294884
-0.00187059
0.000992916
0.00131679
0.000751243
0.0023577
0.00274946
0.00225219
0.00350003
0.00379206
0.0048205
0.00324826
-0.000584444
-0.0020985
-0.000506509
0.00147565
-0.00141931
-0.0038221
-0.00148641
0.00157666
-7.5125e-05
-0.00158482
-0.00111651
0.00482344
0.00354688
0.00152711
0.00143767
0.00364609
0.00420523
0.000794978
-0.0023807
-0.000660448
0.000572235
-0.00147156
-0.00244079
-0.00718959
-0.0117141
-0.00302379
0.00411002
-0.00205559
-0.00274889
-0.00127695
0.00019355
0.000100391
0.000644599
0.00280764
0.00312698
0.00340406
0.00410917
0.00462422
0.00515907
0.0030405
-0.000777441
-0.00169054
-0.000594242
0.000495173
-0.00148165
-0.00330664
-0.00130622
0.00217405
0.000457803
-0.000773194
-0.000477996
0.0056264
0.00355888
0.00141796
0.00132179
0.00496264
0.00642544
0.00185642
-0.00255764
-0.00134643
-7.86236e-05
-0.00226385
-0.00418167
-0.0096678
-0.0128037
-0.00177244
0.00435682
-0.00156862
-0.00188986
-0.000778509
-0.00022939
-0.000263994
0.00126865
0.00321905
0.00328066
0.00359133
0.0041469
0.00488007
0.00502785
0.00265299
-0.000770591
-0.00152707
-0.000856945
-0.000211395
-0.000698363
-0.00276243
-0.00116432
0.00242435
0.000902148
-0.000927447
0.000192162
0.00645572
0.00405741
0.00136569
0.00185909
0.00665395
0.00894255
0.00321007
-0.0025588
-0.00179006
-7.38507e-05
-0.00322376
-0.0066272
-0.0113161
-0.0121128
0.000490233
0.00498046
-0.000133233
-0.000847771
-0.000369542
-0.000436715
-1.64773e-06
0.00200371
0.00352333
0.00347733
0.00347916
0.00424233
0.00497123
0.00495542
0.00234286
-0.000476062
-0.00131084
-0.000943975
-0.00035653
-0.000318926
-0.00287501
-0.00124303
0.00189418
0.00054537
-0.00219932
0.000964558
0.00764037
0.00320531
0.000419857
0.0020553
0.0073785
0.0102042
0.00377025
-0.00264018
-0.00174824
0.000441953
-0.00412301
-0.00809991
-0.0116473
-0.0100484
0.00359129
0.00653996
0.00144827
-0.000276744
-0.000211688
-0.000331862
0.000609367
0.00259232
0.00369389
0.00365759
0.00342942
0.00438153
0.00495054
0.00482984
0.00227653
-7.31727e-05
-0.00114773
-0.000919032
-0.000318699
-0.000108573
-0.00355657
-0.00122456
0.0012272
-0.000378346
-0.00456355
0.00160245
0.0091352
0.0029029
-0.000937939
0.00156881
0.00806469
0.00956864
0.00334212
-0.00258731
-0.00159877
0.000374016
-0.00421442
-0.00865965
-0.0120427
-0.0074745
0.00670389
0.0079846
0.00249205
0.000247157
-5.17175e-05
3.58506e-05
0.00131566
0.00306529
0.00397038
0.00387871
0.00349369
0.00452776
0.00496573
0.00473128
0.00234211
8.67182e-05
-0.0011208
-0.000951097
-0.00039582
-3.48875e-05
-0.00436018
-0.00112163
0.000238661
-0.00153379
-0.00758188
0.00190923
0.0111958
0.00298287
-0.00170284
0.000880964
0.00709183
0.00768842
0.00261712
-0.0025038
-0.00147931
0.000291889
-0.00471381
-0.00972757
-0.0116276
-0.00417737
0.00900982
0.0087685
0.00299321
0.000680231
0.000255866
0.000640056
0.00187058
0.00339104
0.00429028
0.00411519
0.0036277
0.00468213
0.00504945
0.00466847
0.00256948
0.000236787
-0.00130586
-0.000983617
-0.000312793
-0.000242651
-0.00484522
-0.000910506
-0.0012025
-0.002823
-0.0106761
0.00256873
0.013066
0.00251658
-0.00186114
-1.4879e-05
0.00554238
0.0053447
0.00225115
-0.00219798
-0.00137656
-7.664e-05
-0.00535762
-0.00971108
-0.0096894
-0.00127553
0.010286
0.00897576
0.00302605
0.00107092
0.000806364
0.00116925
0.00204165
0.00356053
0.00461852
0.00436432
0.00374041
0.0048011
0.00516969
0.00472246
0.00284832
0.000355921
-0.00153017
-0.000899465
-2.79364e-05
-0.000704121
-0.00450004
-0.00178363
-0.002886
-0.00431143
-0.012281
0.00465935
0.0140163
0.00118625
-0.00175378
-0.000532075
0.00407016
0.00373136
0.00248761
-0.00198887
-0.00152962
-0.000612712
-0.00595913
-0.00892578
-0.00718648
0.00114543
0.0109872
0.00857967
0.0028329
0.00143194
0.00136168
0.00145529
0.00217588
0.00371042
0.0048393
0.0045551
0.00389734
0.00491749
0.00532661
0.00486831
0.00316451
0.000507345
-0.00164406
-0.000819084
5.74911e-05
-0.00103635
-0.0034084
-0.00139673
-0.00368473
-0.00590781
-0.0115302
0.0079588
0.0153667
0.00114064
-0.000732084
-0.000839531
0.00270863
0.00319914
0.00308381
-0.00168361
-0.00182152
-0.00123236
-0.00652444
-0.00799586
-0.0047748
0.00320361
0.0114859
0.00781531
0.00256713
0.00186026
0.00168342
0.00138386
0.00223698
0.00385284
0.00506643
0.00468659
0.00408883
0.005082
0.0055006
0.00496937
0.00340466
0.00061096
-0.00169539
-0.000840718
-1.96399e-05
-0.000911471
-0.00240397
-0.00075647
-0.00301439
-0.00764104
-0.00819932
0.0112555
0.0176819
0.00253674
-0.0001599
-0.00113658
0.0014939
0.00338325
0.00385026
-0.00128028
-0.00250118
-0.00184838
-0.00696592
-0.00724207
-0.00268155
0.00509137
0.0117118
0.00693845
0.00244892
0.00223082
0.00169725
0.00118017
0.00227536
0.00398847
0.00525172
0.00484475
0.00420998
0.00524829
0.00569957
0.00497212
0.00352287
0.000678783
-0.0017181
-0.000863641
-6.85232e-05
-0.000743956
-0.00200791
-0.000321364
-0.0025027
-0.00892775
-0.00410308
0.0142426
0.0198348
0.00382047
-2.7811e-05
-0.00129142
0.000997888
0.00390771
0.00455332
-0.000897781
-0.00269179
-0.00233165
-0.00716643
-0.00661687
-0.000918844
0.00657496
0.0116274
0.00608751
0.00254142
0.00247958
0.00152142
0.00104366
0.0023073
0.00415436
0.00545255
0.00499856
0.00420924
0.0053856
0.00579016
0.0049288
0.00363673
0.000789255
-0.0017334
-0.000891016
-0.000156241
-0.000741038
-0.00192135
8.61924e-05
-0.00247695
-0.00843649
-0.000580795
0.0166225
0.0214016
0.00462791
4.16147e-05
-0.00129197
0.00106848
0.00432744
0.00501915
-0.0006856
-0.00282585
-0.00254226
-0.0072039
-0.00612338
0.000430291
0.007462
0.0110831
0.0055266
0.00270589
0.00250578
0.00135757
0.0010251
0.00238065
0.00441744
0.00567356
0.00507167
0.00418876
0.00545549
0.00587482
0.00493841
0.00364721
0.000667769
-0.00173665
-0.000906743
-0.000254588
-0.00080356
-0.00198771
0.00021936
-0.0024257
-0.00646656
0.00192762
0.0181283
0.0222376
0.0050065
6.77639e-05
-0.000996128
0.00153915
0.00470823
0.00522158
-0.000671606
-0.00291656
-0.00256156
-0.00716034
-0.00575521
0.00125961
0.00767263
0.0104382
0.00526923
0.00283397
0.00234118
0.00132336
0.00109594
0.00256122
0.00477313
0.00588442
0.00510273
0.00416321
0.0055504
0.0059142
0.00484859
0.00356418
0.000622861
-0.0016746
-0.000892198
-0.000296624
-0.000876107
-0.00205388
0.000231117
-0.00210173
-0.00480694
0.00346609
0.0189992
0.0223892
0.00510276
6.99976e-05
-0.000486775
0.00196256
0.00490008
0.00517487
-0.000727452
-0.0028944
-0.00253126
-0.007139
-0.00558333
0.00151989
0.00758356
0.00999393
0.00524994
0.00285624
0.00214485
0.00139727
0.00121002
0.00282465
0.0051207
0.00610571
0.00509365
0.00413256
0.00560774
0.00589147
0.00480687
0.00352624
0.000645473
-0.00158792
-0.000894924
-0.000316728
-0.000917858
-0.00203609
0.000265696
-0.00175031
-0.00399197
0.00417049
0.0191313
0.0223379
0.00515436
9.3098e-05
-5.85956e-05
0.00216814
0.00490693
0.00506153
-0.000739177
-0.00282313
-0.0025067
-0.00712566
-0.00558068
0.00154901
0.00747151
0.00981948
0.00528973
0.00280849
0.00208346
0.0014793
0.00131069
0.00307853
0.00535049
0.00612002
0.00503469
0.00416578
0.00560918
0.00587721
0.00478322
0.00351705
0.000666007
-0.00155165
-0.000914784
-0.000307444
-0.000901437
-0.00197468
0.000304739
-0.00153858
-0.00378406
0.00426888
0.0191461
0.0222492
0.00525873
0.000245768
9.62638e-05
0.00213267
0.00486094
0.00500883
-0.000723786
-0.00278095
-0.00249857
-0.00710875
-0.00555143
0.00161349
0.00746593
0.00975324
0.00532013
0.00279174
0.00207103
0.00153368
0.0014078
0.0031649
0.00531593
0.00608657
0.0050481
0.00419794
0.0056069
0.00586708
0.00477477
0.00351665
0.000668701
-0.00154163
-0.000915084
-0.000289414
-0.000885594
-0.00193602
0.000343157
-0.00149472
-0.00373177
0.00431503
0.0191239
0.0221456
0.00545854
0.000255019
4.50116e-05
0.00211931
0.00484765
0.0049867
-0.000727354
-0.00277605
-0.00251229
-0.00709489
-0.00547375
0.00169497
0.0074974
0.00972831
0.00532146
0.00280002
0.00209171
0.00158343
0.00143146
0.00314609
0.00531221
0.0060781
0.00505086
0.00420494
0.00186002
0.00179146
0.00169927
0.00122045
0.000382262
-0.00048744
-0.000343073
-1.77225e-05
0.000209353
0.000513963
-0.000186467
0.00057359
0.00160911
0.00204263
0.0014904
0.00130687
0.000835333
0.000522457
0.00118438
0.00182962
0.00127288
0.0014018
0.00244352
0.00232416
0.00212754
0.00238625
0.00208207
0.00190956
0.00183503
0.00167702
0.00156994
0.00121563
0.00147834
0.00181967
0.000991107
0.000975458
0.001162
0.000498432
0.00120996
0.00226743
0.00136202
0.000757864
0.000629708
-0.000216324
-0.000444087
0.000166737
0.000966798
0.000534971
0.000798525
0.00175636
0.00135529
0.00116439
0.000968649
0.000641452
0.000676505
0.0010108
0.0012657
0.00140157
0.000884382
0.000434417
-0.000231792
0.000418027
0.0015471
0.00199409
0.00219434
0.00218695
0.00223505
0.00185641
0.00204929
0.00189316
0.00106313
0.000950555
0.000859461
0.000551813
0.000732696
0.00103295
0.00128996
0.00110215
0.00170315
0.00225694
0.00100136
0.0011333
0.00076017
-0.00167889
-0.000431458
0.000336936
-0.000161387
-0.00146597
-0.00116858
-0.000165303
-0.000188086
0.000406036
0.000801568
0.000340691
4.06083e-05
-9.58964e-07
-0.000261185
-0.00145598
-0.00149922
-0.00109066
-0.000107535
0.00119224
0.0018162
0.00251651
0.00234879
0.00191986
0.00164859
0.00089483
0.0011725
0.00101904
0.000154621
0.000638795
0.000552453
0.000216839
0.000883922
0.00108277
0.00117633
0.00134666
0.00140125
0.00150241
0.000352213
0.000619706
-0.00043037
-0.00123688
-0.000416314
0.00067734
-0.00146025
-0.00362617
-0.00230696
0.000633038
0.000549418
0.000916543
0.000216519
-0.000950796
-0.000843701
-0.000134227
-0.000105183
-0.000936897
-0.000831762
-0.000453296
0.00045347
0.00145118
0.00157248
0.0015693
0.00144283
0.00140106
0.00131524
0.000517814
0.000504884
5.02995e-05
-0.000725226
-0.000119659
-6.59191e-05
-3.49013e-06
0.00112658
0.00165497
0.00136402
0.00203009
0.00161203
0.000381145
-5.80954e-05
7.47162e-05
0.00127991
0.00225608
0.00158817
-0.000653845
-0.00427802
-0.00554939
-0.00340561
-0.00112273
-6.27526e-05
0.000143252
-0.000706643
-0.00117465
-0.000313061
0.000576136
0.000294719
-0.000197445
0.000165895
0.000233182
0.000673439
0.00165595
0.00126103
0.00125703
0.00200278
0.00259766
0.00199222
-4.749e-05
-0.0012581
-0.00124842
-0.00123152
3.69214e-05
0.000270477
0.000274455
0.00111296
0.00177958
0.00178318
0.00347267
0.00155463
-5.92489e-05
0.00186428
0.00198305
0.00110764
0.00128439
0.00121827
-5.22293e-05
-0.00331533
-0.00524318
-0.0052676
-0.00435687
-0.00245873
-0.00120406
-0.00131588
-0.00153522
-0.000312328
0.000322682
0.000345268
0.00042566
0.000643901
-0.000254072
7.63368e-05
0.00179107
0.00186917
0.00125484
0.00193308
0.00212418
7.07678e-05
-0.0018269
-0.00140981
-0.000506277
0.00047596
0.0012271
0.000387014
3.87214e-05
0.00185155
0.0019134
0.00223226
0.00371478
0.0022212
0.000481925
-0.000585127
-0.00074798
0.000386689
0.00187484
0.00152797
-0.000104541
-0.0029144
-0.00442034
-0.00507321
-0.00474984
-0.00233745
-0.000101117
0.000139608
4.93544e-05
-9.14806e-05
0.000736886
0.00132528
0.00150517
0.000720164
-0.00119471
-0.000337593
0.00161454
0.00155358
0.00122073
0.00189083
0.00166404
-6.2048e-05
-0.00089884
-0.000152538
0.000931444
0.00159897
0.00125452
-0.000138753
-0.00145387
-0.00026604
0.000556151
0.00200918
0.00334074
0.000311777
-0.00177903
-0.00144166
-0.00128435
0.000700548
0.00157623
0.000449691
-0.000170195
-5.97452e-05
-0.00183656
-0.00369631
-0.00355581
-0.00117366
0.00051903
-0.00055984
-0.000512287
-0.000248042
0.000930261
0.00162959
0.00200887
0.00103954
-0.000616797
0.000947037
0.00155959
0.000943015
0.000647897
0.00170127
0.00153962
0.000215624
5.99945e-05
0.000415611
0.00100799
0.0016138
0.00142359
-0.000191374
-0.00177735
-0.00196047
0.000281883
0.00559426
0.00394534
-0.000431141
-0.00259969
-0.00242072
-0.00075976
0.00169552
0.00178866
0.00076672
0.000424674
-0.00120955
-0.00391527
-0.00494192
-0.00446639
-0.00266424
-0.000788247
-0.00139564
-0.00227411
-0.000760913
0.00139952
0.00242027
0.00248311
0.000143966
-0.00157134
-0.0001296
0.000905045
0.000445772
0.000574072
0.00128795
0.000401733
-0.000302367
-0.000134693
-6.20288e-05
0.000394988
0.00107023
0.00104666
-0.000635563
-0.00342642
-0.00344922
-0.00128895
-0.000260331
0.00191018
-0.0023534
-0.00363989
-0.001208
0.00113131
0.00265494
0.0022188
0.00130069
-0.000283882
-0.00274114
-0.00461456
-0.00530422
-0.00558364
-0.00475919
-0.00358603
-0.00320845
-0.00239211
0.000360001
0.00254942
0.00312224
0.00328508
0.00111328
-0.000448712
0.000232632
0.000514522
0.000199444
0.000828271
0.00119622
-2.13246e-05
-0.000587564
-0.000361354
-0.000494811
-0.000630506
8.97583e-06
0.000658567
-0.00147915
-0.00482547
-0.0044857
-0.00144093
0.000738999
0.000859814
-0.00315339
-0.00347874
0.00116366
0.0025353
0.00251777
0.00150495
0.000524299
-0.000871373
-0.00187131
-0.00218678
-0.00329535
-0.00544668
-0.00618123
-0.00540759
-0.00391115
-0.00121229
0.00182195
0.00343239
0.00331276
0.00303728
0.00172918
0.000748453
0.000667622
0.000447126
0.000557135
0.00147717
0.00158224
0.000153041
-0.000492817
-6.89686e-05
-0.000464621
-0.000574466
0.000452836
0.00152959
-0.00211553
-0.00755646
-0.00469368
-0.00106297
0.00084545
0.000311631
-0.00182386
-0.00147431
0.00219094
0.00243192
0.00225629
0.00103469
0.000142944
-0.00100045
-0.00115059
-0.00068789
-0.00212476
-0.00462059
-0.00618107
-0.00648622
-0.00374304
-0.000607371
0.00161789
0.00331137
0.00327291
0.00289347
0.00179854
0.00116203
0.000767417
0.000419078
0.000350863
0.00136247
0.0010124
-0.000498823
-0.000910635
9.57626e-05
-0.000335389
-3.53406e-05
0.00104336
0.00172929
-0.00259022
-0.0057325
-0.00295235
-0.000537507
8.42156e-05
0.000190851
-0.000445994
0.000290738
0.00257291
0.00183741
0.00170505
0.0016338
0.000394899
-0.000769466
-0.000287259
0.000609949
-0.00157723
-0.00392581
-0.00510596
-0.00758067
-0.00368087
-0.000485182
0.00124546
0.00333307
0.00387662
0.00269081
0.00164954
0.00163101
0.0014158
0.00103156
0.000158086
-0.000389905
-0.000201646
-0.000779326
-0.00133746
-0.000295823
-0.00067695
0.000521719
0.000300845
-0.000567513
-0.00339292
-0.00381907
-0.00157161
-0.000412038
7.48987e-05
0.00124567
0.000718592
0.00140696
0.00317769
0.00192104
0.00305932
0.00303489
0.000524349
-0.00104261
-8.69435e-06
0.00138939
-0.00107875
-0.00330812
-0.00394644
-0.00520077
-0.00280881
-3.45688e-05
0.00125306
0.00314409
0.00361312
0.00195786
0.0012561
0.00207404
0.00246551
0.00134481
-0.000735544
-0.000980329
-5.12433e-05
-0.000641357
-0.0014849
-0.000901701
-0.000855853
-0.000655396
-0.00164402
-0.00250851
-0.00282527
-0.00201181
-0.000719892
-0.000347505
0.000260063
0.00162544
0.00163001
0.00219472
0.00302544
0.00290658
0.00487533
0.00386515
-3.23487e-05
-0.00163758
-2.35472e-05
0.00143315
-0.00106689
-0.00307386
-0.00327771
-0.00450508
-0.00324232
0.000561971
0.00161248
0.00307298
0.00321342
0.00110333
0.000918181
0.00290905
0.00366347
0.00174782
-0.00116083
-0.00122053
7.66052e-05
-0.000704629
-0.00209553
-0.00139004
-0.000533139
-0.00171843
-0.00291218
-0.00289564
-0.00140862
-0.000602217
-0.000430595
-0.00067068
0.000361443
0.00243874
0.00239159
0.00279327
0.00343069
0.00397913
0.00569134
0.00354159
-0.000776946
-0.00198761
-0.000158568
0.000917914
-0.00123035
-0.0029268
-0.00325003
-0.00491844
-0.00329665
0.00166845
0.00261195
0.00324419
0.00258288
8.88749e-05
0.000821591
0.00410621
0.00508642
0.00195994
-0.00155576
-0.00114329
0.000141743
-0.0016269
-0.0035406
-0.00143895
3.10083e-05
-0.00281218
-0.00377124
-0.00175986
0.00148404
0.000662903
-0.000536435
-0.00113558
0.00051962
0.00309217
0.00273536
0.00316334
0.00368202
0.00457789
0.00586921
0.00286111
-0.00142255
-0.00235634
-0.000700342
7.87897e-05
-0.0010502
-0.00199964
-0.00293688
-0.00569065
-0.00324756
0.00291299
0.0038482
0.00376256
0.00182077
-0.000971467
0.000818475
0.00489371
0.00632994
0.00237199
-0.00172797
-0.0012278
-5.17188e-05
-0.00307636
-0.00588418
-0.00122333
0.000587889
-0.00348989
-0.00414283
-0.000510809
0.00309668
0.00167149
-0.00053496
-0.00119742
0.00103767
0.003412
0.00293951
0.00320256
0.00375813
0.00486416
0.00555658
0.0019253
-0.00196876
-0.0024851
-0.00137284
-0.000377409
-0.000623134
-0.0010013
-0.00252685
-0.00609157
-0.00299829
0.0042472
0.00499945
0.00460723
0.000595718
-0.00227954
0.00137391
0.0069445
0.0072074
0.00230516
-0.0020436
-0.00134133
-0.000192938
-0.00440378
-0.00657387
-0.000337335
0.00126508
-0.00440548
-0.0042873
0.000655936
0.00434889
0.00251739
-0.000364533
-0.000834246
0.00175566
0.00339255
0.00285365
0.00300259
0.00367691
0.00478659
0.00498922
0.00109224
-0.00217756
-0.00231095
-0.00171974
-0.000191633
-0.000146516
-0.000318023
-0.00213469
-0.00610397
-0.00294822
0.00555002
0.00588718
0.00548521
-0.000704114
-0.00383245
0.00182719
0.00782298
0.00735214
0.00165557
-0.00251274
-0.00143945
-0.000213067
-0.00541933
-0.00711449
-0.000241555
0.000726172
-0.0056793
-0.00420357
0.00204671
0.00568988
0.00321861
-9.11362e-05
-0.000294703
0.00243568
0.0032718
0.0026427
0.00269816
0.00353879
0.0045639
0.00447376
0.000688881
-0.00193714
-0.00192804
-0.00161342
3.11374e-05
0.000236388
7.60342e-05
-0.00194061
-0.00625446
-0.00303558
0.00643597
0.00664135
0.00586717
-0.00229382
-0.0053848
0.00245144
0.00846365
0.00638453
0.00121059
-0.00264702
-0.0015926
-0.000485929
-0.00651513
-0.00823805
-0.00120548
-0.000986689
-0.00722869
-0.00397017
0.002942
0.00654844
0.00374299
0.000144584
9.29994e-05
0.00303473
0.00322396
0.0024315
0.00237449
0.00332432
0.00422571
0.00405254
0.000591023
-0.00145867
-0.00151638
-0.00144989
-6.6046e-05
0.000459425
6.82981e-05
-0.00221696
-0.00615344
-0.00256053
0.00663833
0.007355
0.00582371
-0.00359893
-0.00637624
0.0032955
0.00889204
0.00601751
0.00140148
-0.00241123
-0.00179311
-0.00110231
-0.00751074
-0.00865872
-0.00171167
-0.00232836
-0.00869872
-0.00363749
0.00382782
0.00733331
0.00397748
-0.000117444
2.3805e-05
0.00330168
0.00320413
0.00246675
0.00235063
0.00311681
0.00386152
0.00378162
0.000683392
-0.000981646
-0.00113832
-0.00145653
-0.000265165
0.000646977
-0.000476426
-0.00302005
-0.00575654
-0.00134507
0.00633284
0.00781832
0.00560185
-0.0051124
-0.00644302
0.0048124
0.00940139
0.00570944
0.00198187
-0.0018645
-0.00188027
-0.00190965
-0.00788052
-0.00800986
-0.00109965
-0.00294458
-0.00983385
-0.00301808
0.00490656
0.00801428
0.00388524
-0.000781698
-0.000312654
0.00340343
0.00317559
0.00246894
0.00237064
0.00285942
0.00346458
0.00373165
0.000948699
-0.000592472
-0.000913735
-0.00156321
-0.00025091
0.000694652
-0.001233
-0.00409271
-0.00535983
7.35181e-05
0.0057006
0.00804816
0.00512602
-0.00694515
-0.00529564
0.00684853
0.0097422
0.00552665
0.00264819
-0.00134691
-0.00186158
-0.00216955
-0.00761016
-0.00651722
-4.13939e-05
-0.00359135
-0.010216
-0.00195181
0.00600117
0.00836864
0.00364772
-0.00103129
-0.000167428
0.00346176
0.00307354
0.00244748
0.00241938
0.0025736
0.00319883
0.00396795
0.00140334
-0.000231207
-0.000868902
-0.00160337
9.59593e-05
0.000557229
-0.00194074
-0.00510802
-0.00470306
0.00147812
0.00504464
0.00827617
0.00429342
-0.00820493
-0.00343266
0.00880737
0.00961349
0.00547522
0.00310293
-0.000930147
-0.00174204
-0.00184214
-0.00712578
-0.00534703
0.000524545
-0.00418356
-0.00956749
-0.000643943
0.00682079
0.00826408
0.00362491
-0.00073674
0.000313194
0.00342163
0.0029299
0.00253086
0.00249651
0.00236026
0.00314819
0.00433184
0.00195956
9.92721e-05
-0.000919545
-0.00153086
0.000765646
0.000371194
-0.00252512
-0.00580824
-0.00378971
0.00270463
0.00450125
0.00867221
0.00339384
-0.0084445
-0.00171729
0.0103906
0.0101255
0.0054286
0.00361772
-0.000513303
-0.00155384
-0.00159503
-0.00688279
-0.00478687
0.000336282
-0.00421368
-0.00846503
0.000171242
0.00710641
0.00813798
0.00373024
-0.000317416
0.000659484
0.00327749
0.00289225
0.00269891
0.00258407
0.00224779
0.00328947
0.00483634
0.0024722
0.000263053
-0.00103996
-0.00138173
0.0011734
0.000212314
-0.00295657
-0.0059801
-0.00294138
0.00319235
0.00430136
0.00942229
0.00271377
-0.00816876
-0.000497403
0.0113753
0.0103953
0.00550414
0.00404524
-0.000137746
-0.00148243
-0.00158693
-0.00662838
-0.00493001
-3.46198e-05
-0.00382654
-0.00775445
0.000397657
0.00715549
0.00803596
0.0039398
5.93251e-05
0.000799823
0.00321109
0.00298809
0.0028745
0.00261977
0.00222358
0.0035898
0.00524639
0.00269142
0.00023386
-0.00115515
-0.00123039
0.00136585
0.000162419
-0.00304412
-0.00599169
-0.00222144
0.00346945
0.00489963
0.0102629
0.0024276
-0.00763698
0.000320842
0.0121253
0.0104502
0.00544576
0.00425339
5.53792e-05
-0.00146786
-0.00141142
-0.0062977
-0.00506072
-7.27272e-05
-0.0036016
-0.00739362
0.00041068
0.00706019
0.00799594
0.00422986
0.000315785
0.000895393
0.00331506
0.00325936
0.00302343
0.00261399
0.00233088
0.00376577
0.00527549
0.00268571
0.000161138
-0.00123292
-0.00110818
0.00144135
0.000232109
-0.00303957
-0.00599898
-0.00171378
0.0038514
0.0059315
0.0108502
0.00235043
-0.00707324
0.000960712
0.0126751
0.0104238
0.00545275
0.00436277
9.21637e-05
-0.00141721
-0.00114784
-0.00600078
-0.00506826
0.000161584
-0.00354541
-0.00730651
0.000334421
0.00695969
0.00809499
0.00449744
0.000468582
0.000995619
0.00352137
0.00348346
0.0030986
0.00259254
0.00245701
0.00378491
0.00524171
0.00266394
9.25213e-05
-0.00127129
-0.00101022
0.00147633
0.000290753
-0.00299413
-0.00600855
-0.00141349
0.00414612
0.00666127
0.0111432
0.00258853
-0.0065045
0.00137807
0.0129714
0.0104243
0.00548668
0.0044173
6.31769e-05
-0.00131229
-0.000968531
-0.00579459
-0.00487969
0.00036063
-0.00363122
-0.00731641
0.000308115
0.006954
0.0082789
0.00463374
0.000558983
0.00116987
0.0036619
0.00357406
0.00308248
0.00263502
0.00255752
0.00380651
0.00521668
0.00262289
5.40968e-05
-0.00127452
-0.000935647
0.00148625
0.000323994
-0.00295224
-0.00596223
-0.00136721
0.0041318
0.00688262
0.0113467
0.00292558
-0.0061889
0.00159077
0.0130028
0.0103423
0.00550707
0.00444437
7.40251e-05
-0.00124064
-0.000888452
-0.00564818
-0.00468256
0.000381007
-0.00372713
-0.00724452
0.000397309
0.00703607
0.00838697
0.00465769
0.000616118
0.00124602
0.00369432
0.00356508
0.00307078
0.00270547
0.00260292
0.00382394
0.00518995
0.00260941
4.81476e-05
-0.00126335
-0.000892594
0.00148777
0.000336401
-0.00294648
-0.00592788
-0.00136169
0.00405408
0.00694346
0.0115203
0.00315541
-0.00611986
0.00162343
0.0129504
0.0102306
0.00552494
0.00447545
8.92187e-05
-0.00122478
-0.00085996
-0.00555401
-0.0045982
0.000360486
-0.00372156
-0.00708266
0.000498808
0.00708708
0.00842195
0.00463456
0.000625656
0.00126069
0.00367976
0.00355048
0.00306673
0.00273595
0.00261406
0.00383233
0.00518228
0.00261096
5.47148e-05
-0.00125614
-0.000872362
0.00148977
0.000322641
-0.00295425
-0.00589195
-0.00133905
0.00400937
0.00702838
0.0115902