/*--------------------------------*- C++ -*----------------------------------*\
  =========                 |
  \\      /  F ield         | OpenFOAM: The Open Source CFD Toolbox
   \\    /   O peration     | Website:  https://openfoam.org
    \\  /    A nd           | Version:  10
     \\/     M anipulation  |
\*---------------------------------------------------------------------------*/
FoamFile
{
    format      ascii;
    class       volScalarField;
    location    "6";
    object      nut;
}
// * * * * * * * * * * * * * * * * * * * * * * * * * * * * * * * * * * * * * //

dimensions      [0 2 -1 0 0 0 0];

internalField   nonuniform List<scalar> 
102400
(
2.09337e-10
1.36991e-11
5.26482e-11
1.4283e-10
1.52105e-09
2.97627e-09
2.29228e-10
1.1569e-10
1.2154e-09
6.79319e-09
2.24883e-09
4.57339e-10
3.78514e-10
5.34519e-10
8.09226e-10
7.17507e-09
9.01837e-10
7.79127e-10
7.64344e-09
1.73948e-09
4.29225e-08
2.63891e-08
5.63595e-09
2.43975e-10
1.39767e-09
1.37336e-09
6.14122e-09
4.08583e-09
6.47976e-10
1.26644e-08
6.28751e-10
9.87491e-09
5.81524e-08
8.08045e-08
2.29873e-08
2.41739e-08
4.27075e-08
5.19765e-09
1.02906e-10
5.59048e-10
6.75077e-09
9.74398e-10
6.71746e-09
4.68185e-09
5.2279e-08
2.71137e-08
3.73225e-10
6.39969e-10
2.07615e-08
6.66923e-08
1.30427e-08
2.51449e-09
8.12157e-09
8.53114e-09
1.0039e-08
3.08753e-08
1.21042e-08
1.20424e-08
5.91802e-08
6.77897e-09
4.49971e-07
3.83258e-07
1.34248e-07
1.37598e-08
7.37585e-09
2.75593e-08
9.14504e-09
3.2708e-08
3.26329e-08
1.09274e-07
6.95778e-09
1.26837e-07
8.3431e-07
9.09624e-07
2.95706e-07
4.11802e-07
5.71123e-07
8.27441e-08
2.67087e-09
1.20447e-08
1.29645e-07
1.07772e-08
1.25911e-07
1.55159e-07
4.41196e-07
8.25505e-07
1.87444e-08
7.78196e-09
6.50798e-09
1.30326e-07
7.6653e-08
1.54555e-10
2.90668e-09
2.34137e-08
3.82062e-08
7.85221e-08
1.01756e-07
1.30744e-08
1.58682e-07
5.44779e-09
2.70493e-07
8.61217e-07
7.33629e-07
1.31309e-07
4.06047e-08
7.79269e-08
1.11154e-07
2.47149e-09
5.32337e-08
3.15197e-07
1.65152e-07
4.08199e-08
2.15658e-06
3.81105e-06
1.09436e-06
1.06445e-06
1.83165e-06
9.0798e-07
7.89293e-08
4.75495e-08
4.51851e-07
3.73452e-07
1.76163e-07
1.94073e-06
2.04543e-06
1.353e-05
3.95456e-07
1.576e-07
1.24781e-06
3.55781e-08
6.19564e-08
3.84711e-08
3.71558e-09
1.7316e-07
9.70643e-08
3.24934e-08
1.8191e-06
7.48151e-08
1.25662e-07
2.9665e-08
1.88336e-09
8.4402e-08
3.07015e-07
3.67795e-07
2.86158e-07
2.0568e-08
7.08098e-07
7.39754e-07
6.22677e-09
3.74227e-07
1.05483e-06
4.89962e-07
1.11308e-06
1.11848e-05
4.2753e-06
2.09953e-06
1.82309e-06
1.56252e-06
1.24741e-06
1.69802e-07
2.99519e-07
2.35624e-06
1.61279e-07
5.79297e-06
3.58258e-06
2.75234e-05
3.94675e-05
5.68561e-05
4.4733e-06
1.72495e-06
1.36221e-07
7.83414e-07
1.67227e-06
4.5645e-07
6.18046e-06
1.01895e-08
2.99946e-07
5.609e-06
4.45359e-08
1.35456e-08
1.04892e-08
8.73346e-09
1.70233e-08
1.27511e-07
1.36503e-06
5.74329e-07
5.73353e-07
5.19821e-05
3.60874e-06
1.46127e-07
2.68689e-06
4.62393e-06
1.46553e-07
1.52765e-05
1.99267e-05
1.06776e-05
7.7522e-06
5.38821e-07
2.43909e-06
9.4619e-07
3.84761e-07
2.61963e-06
4.16656e-06
3.81501e-06
1.62722e-05
1.84067e-05
2.32444e-05
7.73025e-05
2.91218e-05
6.91506e-06
1.07525e-05
3.6819e-05
1.54046e-05
1.82457e-05
5.1877e-05
3.01529e-06
8.42594e-09
3.95859e-06
2.54025e-07
5.25006e-08
4.40225e-07
2.94433e-08
2.6788e-08
1.30384e-06
8.6248e-06
1.15583e-05
3.5758e-08
1.4646e-05
1.93178e-05
2.31562e-06
4.50579e-06
8.29651e-06
3.29301e-06
5.19634e-06
2.91032e-05
3.06587e-05
4.62859e-05
6.71504e-06
8.5776e-07
2.40239e-06
1.29972e-06
3.85847e-06
1.11426e-05
8.48689e-07
1.75504e-05
3.18599e-05
1.15112e-05
5.50349e-05
5.47305e-05
7.27693e-06
2.23511e-05
6.81648e-05
1.47544e-05
1.03946e-05
3.14781e-05
2.24455e-05
7.87648e-09
4.17715e-07
2.69182e-07
3.66129e-06
3.22919e-05
2.4522e-06
2.57385e-07
6.34734e-05
8.7761e-05
6.51931e-05
1.073e-05
2.10812e-06
3.82493e-06
0.000117027
4.39177e-06
1.03139e-05
4.9687e-06
1.04365e-06
7.80439e-06
1.37408e-05
4.97854e-05
4.77868e-05
9.2951e-08
2.43917e-06
5.78851e-06
1.28032e-05
1.34092e-05
2.6012e-07
2.97171e-06
6.72357e-05
3.69589e-05
5.93386e-05
3.84503e-05
6.03644e-05
3.43488e-05
5.86212e-05
2.25906e-05
3.34927e-05
2.40986e-05
9.56658e-06
3.67396e-08
2.34619e-07
5.32099e-07
1.82267e-05
0.000100509
8.19582e-05
2.10114e-05
9.46776e-05
4.31322e-05
9.66651e-06
6.39037e-05
2.31735e-08
2.5075e-05
8.75844e-05
4.76082e-07
7.67648e-06
2.68732e-06
9.10923e-07
8.9274e-06
1.5172e-06
1.37367e-05
2.91722e-05
1.31403e-06
1.71881e-06
1.27306e-05
2.00258e-05
6.01254e-06
1.6629e-06
1.73756e-06
7.02186e-05
7.69972e-05
4.76343e-06
3.43554e-06
3.31316e-05
1.88945e-05
2.43736e-05
5.64207e-05
9.65926e-05
6.15831e-05
1.22535e-05
7.56274e-06
7.72165e-07
1.5853e-06
4.8924e-06
3.10286e-05
7.67295e-05
9.96378e-05
0.000103504
4.50408e-05
4.33506e-06
1.99821e-06
4.94015e-05
2.93833e-07
3.85166e-05
2.65884e-05
1.01247e-06
8.03543e-07
1.00688e-06
1.73349e-05
7.5956e-06
1.44467e-05
2.90498e-05
5.25998e-06
3.64907e-06
5.3349e-05
2.09418e-05
2.51198e-05
1.62275e-05
6.72412e-06
5.86897e-05
6.99012e-05
8.10724e-07
6.28863e-06
1.78807e-05
1.97126e-05
1.57679e-05
3.99286e-05
2.45101e-05
0.000117139
6.86551e-05
1.93199e-05
9.50587e-06
3.41665e-06
1.67249e-06
1.63563e-06
1.00707e-05
4.40131e-05
6.98865e-05
7.54871e-05
2.1927e-05
1.21602e-07
3.55724e-05
2.47122e-05
9.14689e-06
0.000148044
4.28437e-06
3.39094e-06
2.13933e-06
9.48365e-07
6.25014e-07
6.22612e-06
2.74115e-05
1.67699e-05
6.2994e-05
7.88278e-05
5.52221e-06
4.68563e-05
4.64789e-05
9.39002e-06
2.52869e-05
4.65219e-05
4.43272e-06
4.71584e-06
6.12682e-06
1.45256e-05
2.39809e-05
5.57821e-05
4.64874e-05
6.87576e-05
0.000107857
6.3951e-05
1.75065e-05
2.33188e-05
1.05675e-06
2.09652e-06
1.41533e-06
3.63829e-07
1.79904e-05
9.4626e-05
0.000127407
1.0933e-07
1.08112e-06
5.47534e-05
7.09175e-06
0.000244288
2.41216e-06
8.04808e-06
8.72162e-06
1.34957e-06
3.35345e-06
1.22554e-05
2.12519e-06
1.5152e-05
8.37857e-05
6.44412e-05
6.1238e-07
9.61368e-07
8.94617e-06
1.72647e-06
1.90255e-05
2.73018e-05
3.65686e-05
2.05586e-05
4.79273e-06
1.62607e-05
3.71799e-05
3.50041e-05
2.16682e-05
1.69242e-05
7.7902e-05
3.09898e-05
1.42294e-05
1.26504e-06
2.15647e-05
2.20934e-05
5.57365e-06
6.47272e-06
1.09604e-05
7.14045e-06
3.39068e-05
6.42641e-07
1.47459e-06
4.46714e-05
8.04559e-06
0.000240962
7.54828e-05
5.99426e-06
2.03692e-05
1.0237e-05
8.33356e-06
1.95296e-05
9.91119e-06
5.82145e-06
2.88519e-05
1.58393e-05
9.17449e-07
1.65332e-06
4.18838e-06
1.26208e-05
1.8253e-05
1.9144e-05
3.17906e-05
3.42896e-05
8.30966e-06
1.89189e-05
2.39774e-05
1.53876e-05
4.29132e-06
2.71062e-05
4.03344e-05
1.93653e-05
1.43884e-05
2.21819e-06
2.064e-05
9.53298e-05
3.17718e-05
1.87422e-05
4.16416e-07
2.66096e-05
2.75021e-06
2.91932e-05
2.42725e-06
3.80939e-06
8.45374e-06
2.98515e-05
6.94077e-06
8.99025e-06
1.22243e-05
0.000133012
1.97312e-05
2.045e-05
2.77196e-05
8.78994e-06
9.26994e-06
9.62644e-06
1.66102e-05
9.38943e-06
1.92764e-05
2.01934e-05
3.5828e-05
1.86206e-05
2.37523e-05
2.67997e-05
3.0927e-05
2.89135e-05
2.80636e-05
1.10852e-05
2.99478e-06
9.85213e-05
7.92483e-06
1.92286e-05
2.79969e-05
8.37081e-06
1.64866e-05
6.81147e-05
1.08298e-05
6.38755e-06
8.33822e-06
9.60105e-06
2.73346e-06
1.2059e-05
2.53171e-07
1.14313e-06
1.5409e-05
1.11873e-05
2.37907e-05
2.76339e-05
3.61026e-05
0.000141115
2.33036e-05
1.23026e-05
2.01536e-05
1.16752e-05
1.87994e-06
1.66999e-05
9.78946e-06
2.5832e-05
2.72586e-05
2.20462e-05
4.37805e-05
1.69052e-05
2.03032e-05
1.83017e-05
8.19562e-05
4.26501e-05
3.31801e-05
9.6111e-06
8.14192e-06
0.000111292
1.92078e-05
2.07044e-05
2.24466e-05
8.02501e-06
1.92636e-05
6.58098e-05
3.53898e-05
4.70529e-06
5.35852e-06
1.01375e-06
4.72619e-07
5.0195e-06
1.16729e-05
7.8684e-06
3.40285e-05
3.81376e-05
2.71435e-05
3.38492e-05
0.000105077
0.000179323
3.95454e-05
2.33379e-05
1.77357e-05
1.1814e-05
5.64124e-06
1.7408e-05
1.04111e-05
2.39924e-05
4.00151e-05
2.26039e-05
3.56081e-05
1.07731e-05
3.74382e-05
1.21739e-05
6.09525e-05
6.17628e-05
3.68682e-05
1.52745e-05
4.2911e-06
2.33638e-05
1.71513e-05
2.34603e-05
3.593e-05
1.53556e-05
2.43042e-05
5.89893e-05
8.09207e-05
0.000118426
7.47614e-06
1.87164e-06
1.43721e-06
2.9162e-06
5.96437e-07
1.08726e-05
3.15058e-05
1.66239e-05
1.60594e-05
1.44103e-05
2.19649e-05
5.12575e-05
4.56945e-05
8.62262e-05
1.53966e-05
7.47872e-06
3.68025e-05
1.90496e-05
1.01716e-05
1.71321e-05
3.24425e-05
3.28001e-05
2.41435e-05
1.30265e-05
7.76279e-05
8.23748e-06
3.51573e-05
0.000132975
6.29923e-05
6.18502e-05
4.74802e-06
1.83584e-05
4.35647e-06
4.84208e-05
0.000139137
5.24316e-05
1.37338e-05
4.13159e-05
0.000126148
0.000153401
0.000153707
6.43611e-06
5.84711e-07
4.14707e-06
6.89599e-07
1.04185e-05
2.81511e-05
4.33833e-07
2.11379e-05
2.30308e-05
1.48328e-05
1.24239e-05
8.50275e-06
0.00012705
2.93629e-05
8.94962e-06
1.96274e-05
2.64623e-05
2.33637e-05
1.36144e-05
1.00489e-05
1.31603e-05
1.9707e-05
1.28728e-05
5.45266e-05
7.85889e-06
1.69999e-05
8.65112e-05
4.76492e-05
5.17372e-06
1.24581e-05
2.7484e-05
3.12623e-06
6.76846e-05
0.000108839
5.18738e-05
8.11849e-06
4.78089e-05
8.37005e-06
3.39378e-05
0.000108298
2.35695e-05
1.26419e-05
1.11198e-05
2.52393e-06
1.13876e-05
9.0194e-05
3.07512e-06
2.7032e-05
5.78316e-06
2.86895e-06
8.97595e-06
2.10111e-05
8.60965e-05
2.33997e-05
6.04614e-07
3.5641e-05
2.90916e-05
2.94391e-05
2.1523e-05
2.75167e-05
7.05402e-06
2.13766e-05
2.95411e-05
2.08959e-05
1.34623e-05
1.44579e-05
4.44093e-05
7.11974e-06
3.61198e-07
1.03107e-05
2.18907e-05
1.87838e-05
1.67006e-05
1.27541e-05
1.09624e-05
2.67425e-05
3.99307e-05
1.71759e-05
1.87667e-05
5.73725e-05
0.000145359
2.49129e-05
1.56057e-05
7.66073e-05
1.08771e-05
1.25907e-05
5.55167e-05
1.5541e-05
9.59728e-06
5.0449e-06
2.12035e-05
1.51384e-05
5.08189e-05
5.47906e-05
2.19846e-06
1.39725e-05
1.42908e-05
1.16034e-05
1.82982e-05
8.58412e-06
7.53009e-06
6.91034e-06
1.88378e-05
6.21188e-06
6.42251e-06
1.80842e-05
9.35778e-05
3.90275e-05
7.07378e-06
1.39583e-05
8.7557e-06
9.47214e-06
8.42795e-06
5.73161e-06
3.94503e-06
1.44188e-06
5.03435e-06
2.13848e-05
2.34869e-05
2.39035e-05
0.000162611
6.57816e-05
9.92829e-06
4.02653e-06
1.02894e-05
2.38889e-05
6.74097e-05
0.000190512
0.000220066
6.86292e-06
6.82097e-06
4.54077e-06
2.90948e-05
0.000100929
2.20339e-05
9.91665e-06
1.47945e-05
7.86053e-05
4.69092e-05
5.11709e-06
6.25862e-06
1.51473e-05
2.63827e-05
1.11058e-05
2.44123e-06
2.05603e-05
4.93313e-05
0.000120253
2.43773e-05
2.07173e-05
1.64962e-05
2.11292e-05
9.62978e-06
1.40548e-06
1.93516e-05
5.56714e-06
3.04519e-05
1.96385e-05
1.41403e-05
5.32996e-05
0.000196486
2.7467e-05
1.53683e-05
8.10062e-06
0.000108652
6.6379e-05
5.43262e-06
4.74266e-05
0.000246551
8.42001e-05
1.58964e-05
2.57425e-06
9.98058e-06
0.000158407
5.76519e-05
5.12293e-05
0.000108879
1.35814e-05
1.5625e-05
8.03632e-06
2.6946e-05
1.84396e-05
3.24113e-06
4.45201e-06
3.99674e-06
3.14479e-05
4.73307e-05
6.03665e-05
2.70201e-05
2.59707e-05
1.65472e-05
1.94883e-05
1.38911e-05
1.6463e-05
3.31045e-05
1.02219e-05
1.79692e-05
1.02331e-05
9.8153e-06
2.81874e-05
1.00323e-05
1.11445e-05
3.24222e-05
3.8501e-05
0.000152603
0.000252141
1.97556e-05
1.20574e-05
3.9925e-05
7.19447e-05
1.30354e-05
5.23378e-07
4.06844e-06
7.11733e-05
0.000126353
0.000191158
0.000138467
2.7428e-05
3.51632e-05
3.79111e-05
6.40109e-06
1.65167e-05
1.05025e-05
7.19436e-06
4.07176e-05
6.40147e-05
4.43308e-05
2.88209e-05
1.83656e-05
2.24761e-05
6.69359e-06
3.96969e-06
1.62982e-05
1.92685e-05
2.16545e-05
3.99736e-05
9.24064e-06
1.00348e-05
1.51062e-05
4.0006e-05
1.90173e-05
2.26773e-05
2.24915e-05
1.10192e-05
1.50776e-05
3.69022e-05
2.20985e-05
1.28722e-06
7.76122e-06
1.10114e-05
4.35727e-07
1.29094e-06
2.1803e-06
5.53618e-06
3.88981e-05
0.000132775
5.46111e-05
4.94015e-05
0.000104277
3.95025e-05
4.87452e-06
3.39783e-05
3.01665e-05
1.68605e-05
4.04028e-05
5.87976e-05
4.74258e-05
3.92078e-05
1.90005e-05
3.12853e-05
4.612e-05
2.16398e-06
1.83873e-05
1.00102e-05
1.57124e-05
1.48071e-05
0.000106667
4.6687e-05
9.71838e-06
5.07017e-06
1.03784e-05
2.3759e-05
1.43484e-05
1.97928e-05
1.48838e-05
8.68863e-05
1.97461e-05
1.66093e-05
2.2438e-05
1.6256e-05
2.17624e-06
6.17524e-07
2.85656e-06
1.00153e-05
1.41411e-05
2.21226e-05
2.41969e-05
6.99017e-06
4.41142e-05
9.3449e-06
2.03531e-06
1.32665e-05
2.41208e-06
2.83291e-05
3.25939e-05
9.34717e-05
0.000117796
7.14512e-05
4.29077e-06
0.000107059
0.000206925
6.64742e-05
1.86919e-05
8.7639e-06
2.02378e-05
2.0408e-05
3.89513e-05
4.16402e-05
3.37266e-05
1.89319e-05
3.71495e-06
2.54279e-06
1.17563e-05
3.08733e-06
3.20567e-05
3.48582e-05
2.47973e-05
6.39595e-05
8.03747e-05
0.000131065
0.000115704
1.21612e-05
3.90153e-06
5.86149e-06
1.15947e-05
1.39134e-05
7.42992e-05
2.18522e-05
2.26649e-05
1.93031e-05
2.51448e-05
1.66028e-05
7.45417e-05
1.84402e-05
2.13092e-05
3.86867e-05
0.000128734
3.12565e-05
1.8282e-05
1.91901e-05
6.96425e-05
0.000133613
6.5316e-05
8.95157e-06
1.10724e-05
1.57365e-06
8.04138e-06
1.60191e-05
2.30286e-05
3.87634e-05
7.40133e-06
6.12595e-07
1.91294e-05
2.77632e-05
8.28142e-06
2.39867e-05
1.96849e-05
2.44054e-05
0.000166445
0.000135823
6.13951e-05
1.6625e-05
4.74751e-06
1.34789e-05
2.79365e-05
3.41168e-05
0.000140537
0.000178331
9.26178e-05
1.64227e-05
2.39378e-05
2.81555e-05
2.10283e-05
1.81067e-05
2.02005e-05
9.22775e-06
2.43959e-05
2.25114e-05
3.29479e-05
2.47299e-05
7.3566e-06
2.62702e-05
8.55694e-05
4.00205e-05
1.45354e-05
1.1109e-05
1.26013e-05
1.89554e-05
1.76732e-05
1.83078e-05
4.29113e-05
6.75192e-05
7.921e-05
4.39696e-05
2.39343e-05
2.15369e-05
2.97041e-05
3.92302e-05
2.78873e-05
1.64082e-05
6.2279e-05
5.80516e-05
8.42803e-05
0.000145282
0.000162364
0.000119623
5.774e-05
7.87292e-05
2.44089e-05
2.14156e-05
5.17854e-05
1.22601e-05
5.01452e-05
8.36878e-05
8.06139e-05
6.86745e-05
6.85838e-05
5.48778e-05
1.96767e-05
1.52016e-05
1.07914e-05
2.15543e-05
0.000110704
0.000156868
5.67381e-05
2.44965e-05
2.56103e-06
6.48151e-06
1.69764e-05
2.69293e-05
3.73788e-05
2.27143e-05
3.49613e-05
3.59255e-05
2.35851e-05
3.11439e-05
2.70489e-05
2.52056e-05
9.50789e-06
9.54257e-06
2.38702e-06
3.89512e-06
6.70486e-07
7.72846e-05
0.000148922
8.65433e-05
2.26292e-05
2.98708e-05
3.66705e-05
2.68718e-05
2.23607e-05
2.61336e-05
1.95298e-05
1.62617e-05
1.21665e-05
1.29759e-05
2.66259e-05
1.87498e-05
3.35393e-05
2.15748e-05
1.41114e-05
1.51511e-05
9.22921e-06
4.2531e-06
3.61088e-06
1.31521e-06
6.18023e-06
1.45803e-05
2.48488e-06
7.50494e-06
2.41171e-05
8.11118e-05
8.01773e-05
3.79716e-06
6.87278e-06
1.70982e-05
2.215e-05
2.36964e-05
1.18027e-05
1.91115e-05
2.04561e-05
1.41824e-05
4.68692e-05
3.78289e-05
3.67672e-05
5.90202e-05
9.88901e-06
2.57825e-05
0.000137718
0.000148734
4.33602e-05
3.45348e-05
2.07559e-05
1.2269e-07
6.20467e-05
1.60599e-05
1.29204e-05
1.04647e-05
1.77008e-05
0.000128212
5.84866e-05
8.59467e-06
9.91414e-06
1.4908e-05
1.58594e-05
1.57676e-05
2.90275e-05
7.61012e-05
5.98641e-05
4.25225e-05
2.95273e-05
1.05583e-05
1.99277e-05
3.14759e-05
6.81065e-06
1.09535e-05
3.0494e-05
2.99876e-05
1.53349e-05
1.64109e-06
1.10065e-05
2.50748e-05
1.28493e-05
2.04778e-05
5.83678e-05
5.44022e-05
1.7018e-05
3.3312e-05
0.000183131
0.000253042
0.000196207
2.94441e-05
1.32177e-05
2.98973e-05
3.77393e-06
2.85922e-05
0.000126762
3.60773e-05
1.71423e-05
2.10156e-05
5.30797e-05
5.48705e-05
7.49553e-06
7.77556e-06
6.2108e-06
2.34474e-05
3.82621e-05
4.24155e-05
3.48473e-05
1.5134e-05
3.19475e-05
5.11374e-05
4.11775e-05
9.9285e-05
3.64731e-05
2.35956e-05
1.8248e-05
5.76098e-05
7.27448e-05
2.48632e-05
1.12873e-05
1.23846e-05
1.69907e-05
3.02564e-05
5.5252e-05
1.00905e-05
1.8979e-05
7.18577e-06
1.24108e-05
4.59204e-05
0.000168046
0.000204555
2.36415e-05
4.52725e-06
6.31461e-05
0.000184214
6.26707e-05
1.07132e-05
5.38729e-05
6.3071e-05
2.54128e-05
3.53858e-05
2.8088e-06
1.07786e-05
1.15388e-05
4.66024e-06
1.11688e-05
8.7339e-06
7.18864e-06
3.71211e-05
1.90566e-05
1.76172e-05
2.48148e-05
6.51797e-05
2.33054e-05
1.87485e-05
2.0624e-05
8.41117e-05
0.000157712
0.000122258
3.05536e-06
1.13175e-05
1.96208e-05
1.85875e-05
2.9007e-05
7.92893e-05
1.02595e-13
1.00816e-11
1.32325e-10
5.67176e-10
1.20184e-10
7.34345e-10
3.29114e-09
1.94554e-09
5.65671e-10
6.12681e-11
1.37568e-11
9.59924e-10
2.05351e-09
2.04239e-09
2.2248e-09
2.11336e-10
4.76783e-10
2.64221e-10
1.6158e-09
3.30025e-10
1.48623e-10
1.27149e-09
2.10921e-10
3.83119e-09
6.71513e-09
1.79016e-09
8.75708e-09
2.88584e-11
3.80832e-11
1.84798e-08
1.11881e-08
9.27353e-10
7.9332e-09
6.88922e-09
6.8483e-09
9.25254e-09
1.32253e-10
2.47625e-10
3.21056e-10
1.4443e-10
3.90114e-10
6.40424e-09
2.16745e-10
2.27069e-08
1.86073e-08
3.08769e-08
3.36437e-08
3.67648e-09
3.66936e-09
2.0049e-09
8.18617e-10
1.06101e-08
9.72512e-09
1.83614e-07
2.79158e-07
4.00474e-09
1.86334e-08
8.08985e-09
1.14562e-08
2.78667e-09
3.77282e-10
1.41675e-08
3.55123e-09
2.58701e-08
7.06615e-08
7.65908e-09
3.47121e-09
6.13138e-10
5.92083e-11
4.00113e-08
8.8089e-08
9.02519e-09
6.13167e-08
5.38383e-08
2.76156e-08
3.22907e-08
1.98909e-10
5.52869e-09
4.63565e-09
1.10469e-09
9.16287e-10
2.95642e-07
8.12516e-08
1.33449e-08
3.82494e-07
7.55118e-07
9.53355e-07
6.45184e-09
2.43157e-07
1.64195e-08
8.92661e-09
6.29792e-08
1.88253e-07
2.60926e-07
4.90774e-06
3.72666e-07
7.44875e-08
5.86345e-08
5.22844e-08
1.74295e-08
2.22245e-09
1.07029e-08
1.59769e-08
4.22516e-08
2.13781e-07
3.76714e-08
1.09424e-08
1.12495e-08
4.82659e-10
3.2497e-09
8.93514e-08
1.7848e-07
4.12958e-08
2.17336e-07
1.08161e-07
2.52013e-08
1.30347e-07
1.8267e-07
1.04293e-08
1.45317e-08
1.14089e-08
9.36906e-07
4.03249e-06
3.16841e-07
2.35853e-05
3.98835e-05
8.35145e-06
5.79299e-06
2.83029e-06
1.18167e-05
2.53713e-08
1.93344e-07
9.98715e-07
1.02841e-07
8.22275e-06
5.30152e-06
4.37173e-06
3.31628e-07
1.3604e-07
2.87501e-08
5.57753e-08
2.83614e-08
1.4101e-08
3.57237e-09
1.34862e-07
1.14009e-08
9.00081e-08
3.4048e-07
2.73506e-08
6.8e-10
2.49649e-08
8.16885e-07
7.28555e-07
1.32449e-07
4.83245e-07
1.80364e-07
3.5783e-06
1.05492e-05
1.94871e-07
1.6829e-08
2.59263e-08
1.49175e-07
1.17616e-05
4.17339e-06
3.25349e-06
8.545e-06
4.50739e-05
1.47641e-05
7.99225e-06
0.000139894
1.76835e-05
2.44974e-07
1.13336e-06
1.94069e-06
6.17228e-06
1.18881e-05
3.45543e-06
3.85711e-07
1.47244e-07
3.42614e-09
9.70142e-08
1.32198e-06
3.15843e-07
3.30616e-08
5.09169e-08
2.04168e-08
1.34528e-07
1.12382e-06
2.7851e-07
3.1485e-09
1.30098e-07
3.64039e-07
9.80574e-06
6.54185e-07
4.9485e-07
1.2094e-06
8.38481e-07
4.99547e-05
1.33066e-05
6.17189e-08
1.79203e-07
2.96218e-08
4.07396e-06
5.6003e-06
3.6524e-06
1.90759e-05
1.33079e-05
1.02142e-05
1.70382e-05
1.06436e-05
4.70395e-05
6.56781e-07
6.82599e-07
8.1184e-07
3.29079e-05
4.05592e-06
5.58528e-06
8.88899e-07
8.68483e-06
1.99487e-05
1.45555e-07
5.03736e-06
3.60422e-06
2.42929e-05
5.22619e-07
8.73272e-09
7.26482e-08
1.00766e-07
4.90214e-05
3.14313e-06
4.22435e-07
1.37873e-07
5.27003e-05
1.45289e-05
6.97344e-07
1.7387e-06
1.25739e-06
2.24206e-05
4.59316e-05
8.3455e-06
1.05894e-05
3.70842e-07
5.12742e-07
4.65567e-07
2.44667e-06
1.07795e-05
2.58288e-06
5.10992e-06
4.73576e-06
2.63318e-05
8.17078e-06
3.32755e-05
2.18531e-06
6.56565e-07
1.47214e-05
6.10928e-05
1.73714e-05
2.18017e-06
2.50069e-06
3.29137e-07
2.82934e-06
1.0022e-06
1.29748e-05
2.87987e-06
4.25316e-05
3.49273e-07
2.75842e-08
1.00513e-07
3.24912e-06
4.85904e-05
8.77485e-05
5.85271e-06
3.00848e-06
0.00011942
4.17719e-06
2.85882e-06
2.82221e-06
2.3245e-06
3.04093e-05
2.53881e-05
1.80146e-05
1.50426e-05
6.94724e-06
3.45601e-06
1.63647e-06
5.58688e-06
9.2323e-07
4.3373e-05
2.54425e-06
3.5235e-07
1.37892e-05
3.40383e-06
2.87145e-06
5.74973e-07
9.08541e-07
7.43838e-05
2.46422e-05
1.95923e-05
5.4791e-07
6.23055e-05
1.38721e-07
5.75243e-06
1.20979e-06
3.31961e-07
1.72566e-06
2.0253e-05
9.88519e-07
3.88441e-07
7.91656e-08
1.96521e-05
0.000120203
3.85408e-06
2.01452e-05
1.08299e-05
3.40249e-05
7.45072e-06
4.82315e-06
1.62227e-06
8.58851e-06
2.03019e-05
1.79785e-05
4.11777e-05
5.33976e-06
2.1338e-06
2.86507e-05
4.39673e-06
7.94602e-05
1.16683e-05
3.20339e-06
5.94375e-07
3.6559e-05
4.7699e-06
4.27819e-05
4.83304e-06
7.96749e-07
1.41823e-05
2.57872e-05
6.20632e-07
4.98097e-07
3.7326e-05
1.4361e-05
1.17321e-05
2.88007e-06
1.97304e-05
7.53677e-06
2.09344e-06
2.03907e-05
1.93395e-06
6.47162e-08
4.90335e-07
0.000128665
4.48396e-06
2.68533e-05
2.48837e-05
0.000179965
7.09404e-05
7.91167e-06
4.59782e-06
4.17985e-06
1.0663e-05
1.59037e-05
5.60135e-05
3.38155e-06
8.49779e-06
3.36462e-06
3.30102e-06
7.43557e-05
5.57193e-05
5.9078e-06
2.32576e-06
1.13469e-05
3.9591e-05
3.56542e-05
5.38553e-05
8.05061e-06
2.83319e-06
6.43868e-06
3.50879e-06
8.76097e-06
1.58263e-05
7.30907e-05
1.74654e-05
4.29728e-05
2.37282e-05
5.75148e-05
4.08933e-06
8.09055e-07
1.56487e-05
5.3962e-07
6.44239e-07
3.43956e-05
2.67193e-05
1.56675e-05
9.54933e-06
0.000102825
0.000268506
4.57371e-05
1.13424e-06
2.28104e-05
2.19238e-05
2.56855e-05
8.92208e-05
1.1044e-05
1.76003e-05
1.03994e-05
2.95683e-05
5.90213e-06
4.96511e-05
2.15007e-05
2.87625e-06
9.13056e-06
4.16023e-05
1.41908e-05
1.34181e-05
6.21635e-06
4.40089e-06
2.01366e-06
1.66194e-05
3.61957e-05
1.76376e-05
2.63588e-05
1.5135e-05
4.7016e-05
2.93719e-05
4.32585e-05
8.23789e-06
1.84588e-07
1.88442e-06
6.43493e-06
4.24286e-06
1.24359e-05
2.5108e-05
1.64149e-05
9.63027e-06
6.08526e-05
0.000140859
0.000149337
4.60317e-05
3.58923e-06
4.62081e-05
3.09592e-06
1.32354e-06
2.43034e-05
2.85521e-05
1.82903e-05
3.05398e-06
6.89786e-06
4.57276e-05
1.21116e-05
9.3261e-06
1.09285e-05
2.01415e-05
6.27711e-06
1.00601e-05
9.15981e-06
3.49974e-06
2.09049e-06
4.29848e-06
5.17048e-05
1.93672e-05
2.53475e-05
1.84155e-05
1.89578e-05
2.61249e-05
3.27746e-05
7.22751e-05
4.19735e-07
1.7315e-05
1.32599e-05
9.70954e-06
7.93707e-06
3.51035e-05
1.73353e-05
2.59583e-05
8.83844e-05
0.000112298
9.70575e-05
2.25338e-05
1.12324e-05
3.77271e-06
1.42745e-05
1.55442e-06
7.39703e-05
2.70848e-05
5.18806e-05
3.0987e-06
8.25291e-06
4.22192e-06
7.62528e-06
7.46358e-06
1.46636e-05
2.87434e-05
3.1214e-05
1.13736e-05
4.88998e-07
5.46315e-06
4.60313e-06
4.21361e-06
6.19633e-05
1.5264e-05
3.42523e-05
1.74076e-05
7.14368e-06
7.19448e-06
2.27427e-05
9.78522e-05
3.04878e-05
1.14144e-05
1.62452e-05
1.33564e-05
2.33187e-05
3.11803e-05
1.74302e-05
1.78735e-05
7.73918e-05
5.40507e-05
1.31012e-05
3.67943e-06
2.40302e-06
3.42272e-06
2.88306e-06
1.88729e-05
9.82163e-05
2.81803e-05
1.97927e-05
2.88338e-06
9.5685e-06
1.12699e-06
2.23584e-05
2.11005e-06
8.21799e-06
0.000112561
2.61822e-05
4.96938e-06
4.20541e-07
5.94363e-05
2.2471e-05
1.8989e-05
7.30602e-05
1.50767e-05
3.10221e-05
1.06205e-05
1.5795e-05
1.48886e-05
1.59558e-05
5.36218e-05
9.7613e-05
8.36585e-06
3.29913e-06
1.37403e-05
5.00719e-05
3.72219e-05
1.25671e-05
1.39225e-05
3.83241e-05
2.19247e-05
9.19483e-06
9.51281e-07
1.70447e-06
6.80782e-06
1.10495e-06
8.61696e-05
0.000129018
4.18878e-05
1.48168e-05
1.59503e-05
1.26465e-05
2.02205e-06
3.48767e-05
1.80705e-06
4.92823e-06
1.28102e-05
6.43517e-06
5.294e-06
8.77258e-06
1.52092e-05
2.15119e-05
4.10607e-05
6.53677e-05
3.94845e-06
1.2059e-05
9.76199e-06
1.59212e-05
7.34454e-06
3.03829e-05
2.21869e-05
0.000117868
6.97231e-05
3.46836e-05
4.4727e-06
5.65085e-05
8.15686e-06
4.60651e-05
3.14298e-05
2.26492e-05
2.07552e-05
1.83934e-05
2.51333e-06
1.93098e-06
2.17891e-05
9.37053e-06
5.77307e-05
0.000161626
9.55017e-05
3.13701e-05
1.29939e-05
6.47244e-06
1.07398e-05
1.44963e-05
1.4289e-05
3.05398e-05
2.89541e-06
3.43896e-06
7.93255e-06
2.76304e-05
7.97457e-06
1.4869e-05
0.000100925
2.76741e-05
2.90091e-05
1.30324e-05
9.40055e-06
3.74915e-06
2.83309e-06
8.992e-06
1.64877e-06
1.68129e-05
0.000132562
4.22876e-05
2.39787e-05
5.65346e-06
0.000107005
0.000111125
2.85203e-05
3.09581e-05
7.31658e-06
2.47395e-05
2.49415e-05
1.84284e-05
2.05598e-05
1.63238e-05
1.32812e-05
0.000154172
0.00016954
9.11399e-05
5.00183e-07
4.18489e-06
2.01484e-06
1.88162e-05
8.37165e-07
9.01314e-05
2.37661e-05
1.02445e-05
3.52855e-05
8.54684e-05
3.67825e-05
1.16844e-06
0.000107611
9.78328e-05
9.80249e-05
4.00388e-05
4.4313e-06
1.31642e-05
9.65703e-06
1.66211e-05
1.34777e-06
8.67976e-07
2.09335e-05
4.95887e-06
1.57917e-05
6.79067e-05
0.000276694
6.11014e-05
2.51303e-05
2.77822e-05
3.28017e-06
2.99103e-05
1.89952e-05
5.71364e-05
1.22949e-05
1.36575e-05
3.07075e-05
0.000121647
0.000206676
0.000216428
6.8686e-05
3.77593e-06
2.8633e-06
3.32008e-06
4.54141e-06
2.92849e-05
1.30867e-05
6.92718e-05
5.40584e-05
3.48708e-05
2.93804e-05
1.0063e-05
4.46845e-05
0.000156374
0.000132106
0.000188412
3.01081e-05
3.99028e-05
3.35036e-05
1.69939e-05
2.77745e-06
1.26118e-05
5.18747e-06
1.18036e-05
2.27516e-05
3.68941e-05
8.5765e-06
4.29774e-05
3.83444e-05
1.78611e-05
2.73582e-06
2.57191e-05
5.72408e-06
2.92006e-05
1.52647e-05
3.18681e-05
4.81878e-06
2.21818e-06
6.99337e-05
0.000204722
0.000199013
7.08762e-05
7.49312e-06
9.9415e-06
1.70648e-05
6.56314e-05
2.78971e-05
9.43524e-06
9.31154e-05
1.53122e-05
1.46592e-06
2.05524e-05
2.63043e-05
4.10796e-06
4.41137e-06
0.000288652
5.8254e-05
2.30572e-05
4.76152e-06
4.77561e-06
3.03367e-06
1.67269e-05
1.82321e-05
1.11114e-05
2.07978e-05
4.4616e-05
3.26852e-05
2.01827e-06
3.88976e-06
1.79019e-05
2.94357e-05
1.79992e-05
4.58587e-05
3.93541e-05
9.24295e-07
1.79831e-05
8.96589e-06
2.02795e-06
2.01188e-05
5.43187e-05
0.000196859
0.000101649
1.6951e-05
5.03657e-05
5.70458e-05
0.00014236
2.5124e-05
3.02046e-05
2.41351e-05
7.29715e-06
1.07126e-05
1.38564e-05
3.54436e-05
1.17707e-05
1.12367e-05
0.000282044
0.000261187
2.14777e-05
2.37142e-05
5.47515e-06
1.19879e-05
2.35826e-05
5.91035e-06
7.87727e-05
8.48066e-05
6.62109e-05
5.33142e-05
4.04433e-05
4.28291e-05
2.42758e-05
1.27963e-05
1.42912e-05
1.93436e-05
2.64405e-05
2.59473e-05
1.99479e-05
1.94111e-05
8.5568e-06
2.95995e-05
5.99061e-05
0.000141236
8.35441e-05
2.68225e-05
1.37987e-05
0.000103295
0.000152731
7.34669e-05
8.75008e-06
4.05567e-06
2.259e-05
4.66693e-06
1.90354e-05
2.26056e-05
1.86738e-05
9.66404e-06
0.00016782
0.00024838
2.62024e-05
1.07817e-05
4.02334e-05
1.0107e-05
2.15706e-05
5.35754e-05
0.000185104
0.000244323
0.000178458
4.403e-05
2.81904e-05
8.46833e-05
2.5422e-06
5.92223e-06
1.32625e-05
1.59783e-06
1.17551e-06
6.82396e-06
1.18903e-05
2.82657e-05
2.03005e-05
2.45461e-06
5.26131e-05
5.07496e-05
0.000119557
5.26845e-05
1.94403e-05
5.73967e-05
9.92726e-05
3.94291e-05
2.06894e-05
1.72364e-05
1.44809e-05
8.69876e-06
1.41645e-05
1.94418e-05
1.52454e-05
1.16697e-05
1.61722e-05
0.000142894
0.000138857
3.2807e-06
3.91301e-05
0.000141193
0.000207315
0.000149743
7.69565e-05
0.000245172
0.000256228
2.41451e-05
4.32365e-05
3.58255e-05
9.14022e-07
1.23224e-05
1.67775e-05
1.00012e-06
2.1896e-07
2.05941e-06
1.01373e-05
3.46635e-06
2.08867e-05
8.77765e-05
3.9584e-05
3.90881e-05
1.93373e-05
6.66102e-06
5.77539e-05
3.0331e-05
5.20001e-05
2.79276e-05
5.82891e-06
1.72504e-05
1.05219e-05
1.34612e-06
5.16172e-06
1.93451e-05
2.42698e-05
1.40306e-05
1.98845e-05
1.45253e-05
2.45749e-05
1.1506e-05
0.000103242
0.000171024
7.24557e-05
8.21762e-05
1.47591e-05
6.27942e-05
0.000115279
4.59902e-05
3.691e-06
8.9058e-06
1.72978e-05
3.7701e-05
2.77443e-05
1.10877e-05
7.032e-06
9.43129e-06
3.7167e-05
5.95763e-05
9.14396e-06
3.22273e-05
7.62557e-07
2.86577e-05
2.76108e-05
4.29019e-06
7.25423e-05
6.72384e-05
9.57374e-06
7.52886e-06
1.66358e-05
1.34252e-05
9.47036e-06
1.26288e-05
3.08915e-05
7.15243e-06
1.53043e-05
1.30093e-05
3.69246e-05
1.98936e-05
9.56749e-06
5.20018e-06
2.00606e-05
8.52558e-05
6.59828e-05
6.31188e-05
3.27894e-05
3.10355e-05
2.38738e-05
3.69075e-05
4.15498e-05
3.50214e-05
3.00313e-05
1.39687e-05
2.52623e-06
1.35452e-06
2.24201e-05
1.96939e-05
5.92866e-05
3.69811e-05
1.74393e-05
2.52546e-06
2.77343e-07
3.666e-06
1.53011e-05
4.1357e-05
1.85073e-05
4.41604e-05
6.93112e-05
6.47382e-05
2.50326e-05
2.70677e-05
2.68872e-05
1.37691e-05
1.80758e-05
1.1194e-05
1.29037e-05
7.31233e-06
2.08214e-05
2.90697e-05
7.04212e-05
9.84678e-05
9.10357e-05
1.28674e-05
1.77794e-05
2.87965e-05
8.25359e-05
4.46031e-05
1.46299e-05
5.30413e-05
6.23271e-05
5.37621e-05
4.14204e-05
1.92862e-05
1.02271e-05
1.3118e-05
1.53837e-05
4.81002e-05
1.15757e-07
1.66953e-05
4.48792e-05
4.2782e-06
6.44102e-06
3.41364e-06
9.11031e-06
1.93797e-05
2.48122e-05
2.59727e-05
3.41075e-05
2.91838e-05
1.96514e-05
1.2429e-05
9.83812e-06
1.49698e-05
1.21195e-05
8.7834e-06
6.20006e-06
8.66638e-06
1.62814e-05
1.78934e-05
5.17884e-05
0.000138736
9.37738e-05
2.04892e-05
7.8289e-05
2.52175e-05
2.30846e-05
3.09385e-05
3.23926e-05
1.48665e-05
8.46701e-05
0.000157273
0.000128363
7.01832e-05
1.12584e-05
2.13958e-05
3.35101e-05
3.01902e-05
8.41038e-05
6.40136e-05
1.26979e-05
1.18564e-05
1.27408e-05
1.25399e-05
2.04156e-05
2.07699e-05
9.08501e-06
3.02402e-06
8.86032e-06
5.45692e-05
2.22574e-05
1.87505e-05
1.71026e-05
2.12391e-05
1.86938e-05
1.33383e-05
7.86607e-06
3.60424e-06
3.52486e-06
0.000124488
1.32126e-05
1.45302e-05
6.38145e-05
0.000164516
3.28302e-05
7.65921e-06
2.53751e-06
3.62375e-05
0.000168319
3.78709e-05
2.44238e-05
2.58485e-05
1.95734e-05
7.28045e-06
7.6953e-06
5.40856e-05
0.000155125
0.000125373
4.97549e-05
7.06713e-05
7.18902e-05
2.02636e-05
7.33856e-06
9.42515e-06
1.02982e-05
2.22115e-05
5.78505e-05
2.18207e-05
2.73564e-05
7.81079e-06
2.72143e-05
3.37286e-05
1.52665e-05
1.79073e-05
0.000144598
9.46236e-05
8.12715e-05
8.84754e-05
4.28008e-05
3.43416e-05
1.81118e-05
1.58952e-05
1.72094e-05
5.25883e-05
7.25052e-05
3.6037e-05
2.18053e-05
5.49129e-06
3.6807e-05
0.000147968
7.16736e-06
1.9998e-05
3.0266e-05
1.79078e-05
1.82836e-05
4.28773e-05
0.000117998
8.44807e-05
9.71549e-06
1.60708e-05
2.02323e-05
1.72e-05
8.17216e-06
4.57237e-06
1.30554e-05
2.63344e-05
1.81838e-05
2.28644e-05
4.52609e-05
0.000109753
5.31303e-05
7.43718e-06
7.61911e-06
9.33838e-06
2.57986e-05
4.11759e-05
3.25744e-05
1.30095e-05
5.71355e-07
8.73012e-06
8.04261e-06
8.91718e-06
1.1848e-05
1.32607e-05
3.35546e-05
3.65919e-05
4.59393e-06
2.17901e-06
2.7529e-06
8.65196e-06
1.18708e-05
1.56666e-05
1.23253e-05
1.13786e-06
4.43415e-05
0.000131906
0.000135439
4.02504e-05
4.31937e-05
2.08041e-05
1.40102e-05
1.39501e-05
2.76162e-05
1.34583e-05
1.88043e-05
2.03934e-05
5.63369e-06
4.18149e-06
7.49765e-06
1.04591e-05
0.000159792
0.00020313
4.83295e-05
2.29223e-06
1.18636e-05
1.72251e-05
1.22299e-05
1.74743e-05
1.90953e-05
9.69673e-05
0.000151907
5.27144e-05
2.29013e-06