/*--------------------------------*- C++ -*----------------------------------*\
  =========                 |
  \\      /  F ield         | OpenFOAM: The Open Source CFD Toolbox
   \\    /   O peration     | Website:  https://openfoam.org
    \\  /    A nd           | Version:  10
     \\/     M anipulation  |
\*---------------------------------------------------------------------------*/
FoamFile
{
    format      ascii;
    class       volScalarField;
    location    "6";
    object      pPrime2Mean;
}
// * * * * * * * * * * * * * * * * * * * * * * * * * * * * * * * * * * * * * //

dimensions      [0 4 -4 0 0 0 0];

internalField   nonuniform List<scalar> 
102400
(
1.78981e-06
4.19073e-06
6.11703e-05
1.83238e-05
2.88271e-05
9.53933e-05
2.36013e-06
4.6926e-05
2.1583e-05
8.08708e-07
4.05394e-06
1.99623e-06
6.28966e-06
3.15051e-05
1.14718e-05
2.12386e-06
4.81028e-06
2.39226e-05
1.11877e-05
2.23746e-05
8.8536e-06
8.94175e-06
3.94122e-06
9.34664e-07
1.18437e-06
1.55826e-06
2.94999e-06
3.24025e-06
3.58825e-06
2.10666e-05
3.33968e-06
5.17297e-05
1.26131e-06
3.40027e-05
1.31672e-06
2.77526e-05
1.91272e-06
3.5219e-06
1.63203e-05
3.03165e-06
1.79704e-06
4.20293e-06
6.1754e-05
1.84693e-05
2.98627e-05
9.77389e-05
2.36815e-06
4.74414e-05
2.13988e-05
8.14702e-07
4.01561e-06
1.97756e-06
6.49038e-06
3.22162e-05
1.16356e-05
2.13923e-06
4.84172e-06
2.40835e-05
1.12894e-05
2.23241e-05
8.68146e-06
9.04553e-06
4.06152e-06
9.30175e-07
1.19677e-06
1.56309e-06
3.01906e-06
3.34155e-06
3.76472e-06
2.14473e-05
3.4222e-06
5.19018e-05
1.26001e-06
3.41215e-05
1.29676e-06
2.73384e-05
1.85802e-06
3.49938e-06
1.61648e-05
3.01466e-06
1.75092e-06
4.33992e-06
6.16672e-05
1.88099e-05
2.86561e-05
0.000101919
2.92107e-06
4.65542e-05
2.1741e-05
8.27628e-07
3.89723e-06
1.92815e-06
6.69305e-06
3.35399e-05
1.18304e-05
2.14542e-06
4.97569e-06
2.46047e-05
1.14593e-05
2.26795e-05
8.63788e-06
9.15231e-06
4.27219e-06
9.36508e-07
1.2278e-06
1.56723e-06
3.14671e-06
3.51745e-06
4.05163e-06
2.21074e-05
3.37337e-06
5.19708e-05
1.25017e-06
3.38563e-05
1.29993e-06
2.71015e-05
1.76294e-06
3.42209e-06
1.58317e-05
2.90423e-06
1.74119e-06
4.73265e-06
6.24454e-05
1.92635e-05
2.79811e-05
0.000102085
4.07507e-06
3.96328e-05
1.99762e-05
9.07038e-07
4.06283e-06
1.75936e-06
6.5534e-06
3.51681e-05
1.22878e-05
2.18376e-06
5.0002e-06
2.50866e-05
1.20849e-05
2.24792e-05
8.60098e-06
9.07904e-06
4.39933e-06
9.43856e-07
1.25324e-06
1.51844e-06
3.27847e-06
3.72415e-06
4.46841e-06
2.21425e-05
3.23516e-06
4.98053e-05
1.19018e-06
3.23251e-05
1.28365e-06
2.72667e-05
1.7098e-06
3.1658e-06
1.54436e-05
2.79219e-06
1.71892e-06
5.10661e-06
6.32007e-05
2.03449e-05
2.64706e-05
0.000101994
7.19797e-06
3.2901e-05
1.65265e-05
9.94197e-07
4.5425e-06
1.67418e-06
6.17522e-06
3.58147e-05
1.27352e-05
2.4258e-06
5.72955e-06
2.56606e-05
1.23561e-05
2.15894e-05
8.01961e-06
9.21591e-06
4.50961e-06
9.44644e-07
1.23723e-06
1.43564e-06
3.38434e-06
3.98833e-06
4.9879e-06
2.22801e-05
3.64685e-06
4.79607e-05
1.12048e-06
3.01494e-05
1.1824e-06
2.59602e-05
1.71487e-06
3.08571e-06
1.44383e-05
2.53785e-06
1.84578e-06
5.70465e-06
6.42734e-05
2.15944e-05
2.42414e-05
9.58573e-05
1.1281e-05
2.49783e-05
1.03212e-05
1.0539e-06
5.22084e-06
1.53325e-06
5.44628e-06
3.58141e-05
1.27341e-05
2.51581e-06
7.0965e-06
2.75848e-05
1.21715e-05
2.11422e-05
6.97265e-06
1.00689e-05
4.94285e-06
9.32285e-07
1.16713e-06
1.31532e-06
3.52131e-06
4.17824e-06
5.54083e-06
2.28484e-05
4.32672e-06
4.75899e-05
1.10145e-06
2.82824e-05
1.11278e-06
2.14546e-05
1.485e-06
3.30033e-06
1.32181e-05
1.96716e-06
2.35245e-06
6.78865e-06
6.79521e-05
2.3484e-05
2.06302e-05
8.38952e-05
1.13556e-05
1.91147e-05
6.12391e-06
1.29523e-06
6.98778e-06
1.46376e-06
3.09795e-06
3.03186e-05
1.16614e-05
2.39766e-06
7.56526e-06
2.98474e-05
1.12098e-05
2.27906e-05
6.31177e-06
1.1471e-05
5.6986e-06
9.37996e-07
1.11204e-06
1.23606e-06
5.68693e-06
5.6157e-06
6.59235e-06
2.39841e-05
4.47997e-06
4.63374e-05
1.16763e-06
2.85625e-05
1.17149e-06
1.93202e-05
1.29104e-06
3.65715e-06
1.32512e-05
1.47478e-06
3.37436e-06
7.96315e-06
7.37371e-05
2.53519e-05
1.78526e-05
7.63881e-05
9.85947e-06
1.67805e-05
5.62114e-06
2.08085e-06
1.03662e-05
1.44846e-06
1.82795e-06
2.45119e-05
9.513e-06
2.17112e-06
7.50554e-06
3.0896e-05
1.06831e-05
2.40123e-05
5.85448e-06
1.36553e-05
5.95315e-06
1.0189e-06
1.09102e-06
1.74746e-06
9.56746e-06
9.01348e-06
8.90174e-06
2.54248e-05
4.35538e-06
4.45086e-05
1.29886e-06
2.99657e-05
1.14544e-06
2.15156e-05
1.38516e-06
4.10098e-06
1.51917e-05
1.4965e-06
4.35469e-06
9.24547e-06
7.50975e-05
2.37936e-05
1.64699e-05
6.73355e-05
9.26556e-06
1.59577e-05
6.76026e-06
2.91448e-06
1.45524e-05
1.76381e-06
2.05631e-06
2.50729e-05
1.01741e-05
2.36945e-06
7.25658e-06
3.39082e-05
1.42723e-05
2.35119e-05
5.51393e-06
1.80883e-05
6.37102e-06
1.18736e-06
1.17319e-06
2.78374e-06
1.02637e-05
1.0075e-05
1.08246e-05
2.81414e-05
3.83522e-06
4.16794e-05
1.47541e-06
2.89379e-05
1.62783e-06
2.08549e-05
1.64302e-06
4.58614e-06
1.79844e-05
1.43407e-06
5.54417e-06
1.1964e-05
7.62565e-05
2.01131e-05
1.52219e-05
5.59856e-05
9.42586e-06
1.43582e-05
7.56887e-06
4.85481e-06
2.1796e-05
2.51027e-06
2.29553e-06
2.61035e-05
1.11334e-05
2.54526e-06
6.6929e-06
3.10246e-05
1.64387e-05
2.13662e-05
7.04229e-06
2.20134e-05
7.60519e-06
1.31579e-06
1.43034e-06
3.65354e-06
1.05719e-05
9.52613e-06
1.17766e-05
3.20295e-05
2.42808e-06
3.55339e-05
2.10719e-06
2.53322e-05
2.10343e-06
1.60278e-05
1.92973e-06
5.96653e-06
2.16592e-05
1.284e-06
8.61019e-06
1.40969e-05
7.28499e-05
1.99137e-05
1.24157e-05
4.43761e-05
8.32935e-06
1.28477e-05
8.00039e-06
6.41506e-06
2.71024e-05
2.63331e-06
1.58796e-06
2.42267e-05
1.01767e-05
2.16325e-06
5.62431e-06
2.60845e-05
1.18744e-05
2.28961e-05
9.75514e-06
2.36294e-05
8.48725e-06
1.22765e-06
1.90011e-06
4.49166e-06
1.3256e-05
9.61618e-06
1.37729e-05
3.62192e-05
1.50025e-06
2.97885e-05
3.11728e-06
2.15219e-05
1.6679e-06
1.05538e-05
1.47499e-06
7.59427e-06
2.8238e-05
1.21174e-06
1.18115e-05
1.4147e-05
6.47049e-05
1.90649e-05
1.16058e-05
3.69484e-05
5.36462e-06
1.26761e-05
6.66217e-06
5.54479e-06
3.17791e-05
2.66341e-06
1.7797e-06
1.77134e-05
9.6176e-06
1.7188e-06
4.05706e-06
2.30743e-05
8.41586e-06
2.47507e-05
9.39755e-06
2.41244e-05
6.98585e-06
1.75149e-06
3.02725e-06
3.82482e-06
1.0558e-05
7.34938e-06
1.39767e-05
3.67721e-05
1.32728e-06
2.54005e-05
4.22332e-06
1.84413e-05
1.28282e-06
5.59292e-06
9.75628e-07
7.10111e-06
3.383e-05
8.67522e-07
1.09096e-05
1.39618e-05
5.67487e-05
1.71043e-05
1.1087e-05
3.08869e-05
2.10749e-06
1.4167e-05
2.6435e-06
1.81844e-06
3.16906e-05
3.55694e-06
2.40355e-06
1.10974e-05
8.81854e-06
1.35679e-06
3.25685e-06
1.99615e-05
7.16745e-06
2.67851e-05
8.97404e-06
2.57119e-05
7.90282e-06
2.48124e-06
5.15127e-06
2.54626e-06
5.34202e-06
5.04469e-06
1.17248e-05
3.12267e-05
1.63907e-06
2.24221e-05
5.61081e-06
1.66068e-05
1.01436e-06
2.21016e-06
7.70553e-07
6.09248e-06
3.34988e-05
6.57438e-07
9.79122e-06
1.23327e-05
4.98687e-05
1.36209e-05
1.03671e-05
2.7524e-05
7.97501e-07
1.68517e-05
1.17197e-06
9.06873e-07
2.65668e-05
6.81981e-06
1.08066e-06
9.95003e-06
9.86152e-06
1.06149e-06
2.67413e-06
2.1225e-05
9.30344e-06
2.13354e-05
6.95745e-06
2.43065e-05
1.10926e-05
1.10904e-06
6.5181e-06
2.85496e-06
2.30961e-06
2.40255e-06
9.53887e-06
2.9942e-05
2.26875e-06
2.28502e-05
5.48859e-06
1.18984e-05
8.40629e-07
9.47229e-07
6.55753e-07
7.7745e-06
3.16758e-05
5.41265e-07
1.19792e-05
7.10172e-06
4.1656e-05
1.06432e-05
1.09235e-05
2.68384e-05
1.07009e-06
2.02195e-05
1.5841e-06
7.56017e-07
2.57333e-05
9.51204e-06
8.09935e-07
9.62128e-06
1.03691e-05
9.52996e-07
1.8505e-06
2.28767e-05
1.37406e-05
1.48726e-05
3.7028e-06
2.19234e-05
9.12584e-06
7.16907e-07
6.72643e-06
4.17452e-06
1.27185e-06
7.51588e-07
6.32338e-06
3.12601e-05
2.25496e-06
2.39129e-05
5.00843e-06
7.35054e-06
1.918e-06
9.40176e-07
8.20716e-07
1.01307e-05
3.40252e-05
4.24558e-07
1.62541e-05
2.48854e-06
3.18482e-05
7.72354e-06
1.15658e-05
2.55148e-05
2.64321e-06
2.66679e-05
1.87747e-06
1.26028e-06
2.66778e-05
1.18309e-05
6.94738e-07
7.01504e-06
8.86779e-06
8.30869e-07
7.52115e-07
1.78608e-05
1.57642e-05
1.0563e-05
2.06139e-06
2.29053e-05
9.19876e-06
6.03998e-07
6.68593e-06
4.62042e-06
7.21078e-07
1.69838e-06
2.61488e-06
2.80928e-05
2.38483e-06
2.65475e-05
4.69231e-06
5.54808e-06
4.43843e-06
2.39023e-06
1.15821e-06
7.29178e-06
3.31694e-05
4.02299e-07
1.31546e-05
2.67382e-06
2.77663e-05
5.10273e-06
9.89321e-06
1.87873e-05
3.985e-06
3.34761e-05
2.85594e-06
1.83149e-06
2.73288e-05
1.55059e-05
1.0651e-06
4.68035e-06
6.59237e-06
6.88356e-07
4.28767e-07
1.65214e-05
1.89666e-05
7.27364e-06
1.63781e-06
2.3132e-05
1.23416e-05
1.48426e-06
2.53508e-06
3.22113e-06
8.44842e-07
5.73854e-06
7.87354e-07
2.52809e-05
2.53112e-06
3.22827e-05
3.11117e-06
4.85072e-06
5.64243e-06
3.59572e-06
5.66805e-07
6.55435e-06
3.16964e-05
4.53966e-07
6.15123e-06
3.98004e-06
2.51178e-05
2.83135e-06
9.72651e-06
1.20245e-05
3.98456e-06
3.07654e-05
2.0625e-06
1.30777e-06
2.37158e-05
1.50885e-05
1.22417e-06
2.15548e-06
4.28084e-06
8.33191e-07
5.40316e-07
2.19141e-05
2.33348e-05
4.431e-06
1.92683e-06
2.05375e-05
1.24519e-05
3.72043e-06
6.20483e-07
1.51166e-06
1.62954e-06
1.03873e-05
7.18708e-07
2.27803e-05
2.12276e-06
3.75474e-05
1.34093e-06
3.41692e-06
7.26995e-06
3.82837e-06
6.87843e-07
6.12241e-06
3.32835e-05
2.64814e-07
4.02492e-06
2.40495e-06
2.16361e-05
1.55013e-06
1.25471e-05
1.10951e-05
3.04128e-06
3.03786e-05
2.43283e-06
1.34051e-06
1.81188e-05
1.09335e-05
1.48562e-06
1.24493e-06
1.91455e-06
4.50406e-07
5.19185e-07
1.40262e-05
2.08236e-05
2.7175e-06
2.83286e-06
1.48819e-05
9.94473e-06
3.27797e-06
9.18369e-07
1.63864e-06
1.14999e-06
1.37436e-05
1.59258e-06
2.05041e-05
8.63923e-07
3.3514e-05
9.02014e-07
2.87284e-06
8.46194e-06
4.78098e-06
5.16594e-07
4.65125e-06
2.88264e-05
8.86618e-07
2.67447e-06
8.74534e-07
1.6043e-05
1.60709e-06
1.0441e-05
8.24351e-06
2.39165e-06
2.34235e-05
1.9059e-06
2.61804e-06
2.26483e-05
8.77912e-06
1.18236e-06
6.91651e-07
1.09315e-06
5.31792e-07
1.57524e-06
2.46701e-06
1.43738e-05
6.81638e-07
3.65082e-06
7.91432e-06
5.86994e-06
1.82956e-06
1.53225e-06
1.47289e-06
4.65445e-07
1.61625e-05
4.88086e-06
1.63714e-05
5.20275e-07
3.24785e-05
5.22973e-07
2.71976e-06
8.24629e-06
4.08015e-06
3.07206e-07
4.47201e-06
2.25547e-05
1.23355e-06
2.22903e-07
1.9498e-06
1.5594e-05
2.26772e-06
6.85132e-06
5.46411e-06
9.2564e-07
1.49588e-05
1.46848e-06
2.66579e-06
2.37302e-05
8.29742e-06
1.90123e-06
7.37496e-07
5.05099e-07
1.17783e-06
1.09926e-06
6.74704e-06
1.72825e-05
3.65761e-07
4.45506e-06
4.1462e-06
4.71597e-06
1.90717e-06
4.20469e-06
5.78158e-07
1.55841e-06
1.23936e-05
9.05902e-06
1.34391e-05
5.1862e-07
3.09658e-05
3.11949e-07
2.57453e-06
9.42223e-06
4.84048e-06
2.26781e-07
3.55837e-06
1.87717e-05
2.65162e-06
6.77088e-08
5.75283e-07
7.68709e-06
1.06685e-06
6.69795e-06
2.22702e-06
1.00241e-06
7.25302e-06
5.26714e-07
1.1797e-06
1.73685e-05
2.8556e-06
4.90266e-07
1.01623e-06
5.73876e-07
2.00301e-06
7.33231e-07
1.81407e-06
1.31326e-05
3.03669e-06
8.45563e-07
5.23622e-06
1.01999e-05
3.71056e-06
1.00438e-05
2.08289e-06
1.41473e-06
6.58363e-06
1.0176e-05
9.01475e-06
7.86939e-07
3.09109e-05
3.91056e-07
3.90732e-06
8.07929e-06
5.54395e-06
1.73083e-07
2.50064e-06
1.38574e-05
2.42929e-06
5.15834e-07
5.58636e-07
6.07619e-06
1.47653e-06
8.62115e-06
1.99032e-06
1.54856e-06
5.11109e-06
4.43467e-07
4.62063e-07
1.35884e-05
2.07863e-06
6.45808e-07
1.62979e-06
2.20958e-06
7.18132e-07
1.62947e-06
5.07925e-06
2.04063e-05
6.31511e-06
3.80215e-06
2.33093e-07
5.57024e-06
1.39961e-06
7.19816e-06
5.3234e-06
1.0586e-06
3.09784e-06
1.28002e-05
5.6652e-06
2.53543e-06
2.53126e-05
8.87823e-07
6.00899e-06
4.79305e-06
5.79517e-06
4.75712e-07
4.55948e-06
1.12841e-05
2.0772e-06
5.37639e-07
9.70188e-08
1.86419e-06
1.12881e-06
8.61701e-06
2.00035e-06
1.96702e-06
4.11919e-06
9.09054e-07
7.2705e-07
1.75608e-05
6.30052e-06
8.4474e-07
4.92232e-07
8.74601e-07
2.98691e-07
2.94768e-07
7.20946e-07
2.85325e-06
5.75464e-06
1.19977e-06
6.23124e-07
3.73958e-06
1.86457e-07
8.58937e-07
3.49015e-06
1.34198e-06
7.26755e-07
1.63667e-05
6.90797e-07
2.3033e-06
2.20565e-05
3.59755e-06
2.92404e-06
4.39567e-06
5.4013e-06
6.78145e-07
6.5846e-06
1.24146e-05
2.1319e-06
2.30624e-06
1.05419e-06
2.98044e-06
2.07293e-06
8.84805e-06
1.28683e-06
5.04065e-06
4.14423e-06
1.11597e-06
3.08029e-07
9.00451e-06
3.68796e-06
2.69979e-07
6.28378e-07
6.76142e-07
2.44211e-07
3.21233e-07
5.77947e-07
4.3083e-07
1.78808e-06
3.57108e-06
5.83494e-06
1.14105e-06
1.56948e-07
2.83675e-07
3.11471e-06
4.76429e-07
6.62496e-07
1.14788e-05
5.54205e-07
3.38078e-06
1.28768e-05
4.77627e-06
1.36552e-06
4.35101e-06
4.24863e-06
3.29108e-07
3.93019e-06
8.48039e-06
2.86229e-06
4.38873e-07
1.81286e-12
6.58729e-07
1.01214e-06
1.39422e-05
8.34536e-06
1.60697e-06
2.93435e-06
1.97943e-06
4.50467e-07
7.85218e-06
5.72072e-06
2.45038e-07
7.95073e-07
4.10866e-07
4.70543e-07
1.24073e-06
8.15619e-07
8.03244e-07
4.32884e-06
1.2588e-06
9.14716e-07
1.25732e-06
3.01029e-06
1.27396e-06
8.14317e-06
9.67121e-07
1.10541e-06
9.94787e-06
4.82973e-06
1.21533e-06
8.00483e-06
4.58117e-06
2.34811e-06
1.31232e-06
2.00688e-06
1.47211e-07
1.44002e-06
3.66933e-06
1.01542e-06
1.02447e-06
7.42539e-08
4.54803e-07
3.07603e-06
6.33312e-06
5.75487e-06
1.46797e-06
7.51106e-07
6.82694e-07
4.17386e-07
4.29345e-06
4.79519e-06
3.04654e-07
4.60732e-07
3.65152e-07
1.80246e-07
5.2174e-07
9.39087e-07
4.73746e-07
1.78644e-06
3.06373e-06
1.50737e-07
4.50323e-07
1.20695e-06
1.05669e-07
5.53685e-06
4.93668e-06
6.23245e-07
3.9636e-06
5.35845e-06
8.25626e-07
3.89764e-06
7.70173e-06
3.59114e-07
7.47495e-06
7.68045e-06
6.94305e-07
1.91295e-06
2.40811e-06
1.25648e-06
1.54575e-06
7.6867e-07
1.21769e-07
2.3212e-06
3.07673e-06
7.67343e-06
1.91557e-07
3.17664e-07
4.36837e-07
3.3983e-07
2.0736e-06
3.89876e-06
2.61212e-07
1.8779e-06
7.99154e-06
4.51039e-06
2.48701e-06
1.85322e-06
3.13923e-07
1.87519e-07
2.31624e-07
2.44487e-07
2.38169e-07
2.27738e-06
9.4299e-07
1.85662e-06
3.16737e-06
6.27607e-07
2.49384e-07
2.38628e-06
1.82266e-06
6.42284e-07
3.05257e-07
1.95316e-06
7.82117e-07
4.53183e-06
3.54782e-06
6.28411e-06
3.0371e-06
2.31457e-06
5.4994e-06
7.76032e-08
5.7181e-08
2.59399e-06
1.17738e-07
2.04063e-06
5.12854e-07
8.30189e-07
2.28402e-07
2.69459e-07
1.50313e-06
3.06889e-06
3.96035e-07
2.00527e-07
2.55701e-06
1.95336e-06
1.68793e-06
3.17465e-06
2.94612e-06
8.9568e-08
9.14984e-08
1.87274e-07
4.71199e-07
2.06701e-07
1.38549e-07
2.37116e-07
3.13826e-06
3.80368e-07
1.45567e-07
2.89067e-06
6.77271e-07
6.41269e-07
3.57531e-06
3.71626e-07
7.22816e-07
5.48697e-07
1.4471e-07
2.56389e-07
1.3951e-07
3.16825e-06
3.14845e-06
9.41601e-08
1.14215e-07
6.19664e-07
6.06255e-07
1.57935e-07
1.17522e-06
5.16649e-06
1.23146e-06
2.42014e-07
2.26314e-06
3.51482e-06
2.07926e-07
1.91047e-07
3.2882e-06
3.01503e-06
4.46129e-07
3.57221e-07
3.99238e-06
4.26984e-07
1.36972e-07
1.26674e-06
4.75596e-07
2.37436e-07
7.29612e-07
9.60012e-07
3.84874e-06
1.54396e-06
4.58928e-07
8.24583e-07
7.84094e-07
2.44007e-07
8.8738e-07
6.5832e-07
1.6247e-06
3.76495e-06
5.04173e-06
3.94468e-06
1.03054e-06
4.03785e-06
2.34749e-06
6.61622e-07
1.874e-06
1.53618e-06
9.03237e-07
2.54097e-07
5.3103e-07
1.04618e-06
4.83812e-07
2.50041e-07
5.37944e-07
8.13693e-07
6.71755e-07
4.67507e-07
1.3607e-07
3.81385e-07
1.42638e-07
1.40473e-07
6.10749e-06
1.63051e-06
5.02312e-07
3.97603e-07
5.69721e-07
4.86797e-07
1.69615e-06
6.09947e-07
2.07379e-06
1.75294e-06
9.49936e-07
7.19524e-07
8.00496e-07
3.50791e-06
1.16496e-06
1.59715e-07
4.80415e-07
4.23874e-07
6.57617e-07
2.48042e-07
1.71871e-07
2.96662e-06
1.30967e-06
4.28642e-07
1.00186e-06
1.57551e-06
2.56904e-06
2.76724e-07
5.36976e-07
1.13595e-07
4.39363e-07
6.00828e-07
7.71852e-07
6.27986e-07
5.60516e-07
3.49994e-07
1.51346e-07
1.76313e-06
5.50977e-07
2.38511e-07
3.94508e-06
3.46619e-06
3.73898e-07
2.0258e-06
9.19843e-07
8.00017e-08
4.37714e-07
5.38171e-07
2.42915e-06
3.12325e-06
1.31533e-07
1.35802e-06
2.48793e-06
1.66759e-07
5.19273e-07
9.20666e-07
1.07169e-06
2.6395e-06
4.04616e-06
1.90409e-06
5.45619e-07
2.86096e-06
5.40292e-06
1.10972e-05
5.41158e-05
6.54607e-05
3.35651e-05
5.0469e-05
4.78875e-05
0.000106209
1.39764e-05
8.20606e-06
6.52388e-05
1.54021e-05
9.11198e-06
4.39745e-06
7.42878e-06
1.05626e-05
1.19707e-05
2.82879e-05
8.72477e-06
1.70865e-05
1.81089e-05
1.15876e-06
9.49003e-06
4.14707e-05
9.09138e-06
6.62091e-06
3.15249e-05
2.3681e-05
4.15861e-06
6.79379e-06
2.43844e-06
1.75994e-05
2.05179e-06
1.21777e-06
2.4976e-05
2.31705e-05
1.08326e-05
6.72617e-06
4.42711e-05
4.61713e-05
5.60346e-06
1.13598e-05
5.46697e-05
6.5995e-05
3.40275e-05
5.14325e-05
4.84086e-05
0.000106958
1.39416e-05
8.28767e-06
6.57001e-05
1.54429e-05
9.36492e-06
4.42807e-06
7.47182e-06
1.06352e-05
1.21219e-05
2.86217e-05
8.88169e-06
1.69787e-05
1.80814e-05
1.16651e-06
9.60357e-06
4.24e-05
9.24435e-06
6.68316e-06
3.24356e-05
2.40311e-05
4.19166e-06
6.76284e-06
2.47766e-06
1.76555e-05
2.05238e-06
1.23501e-06
2.5392e-05
2.30559e-05
1.0958e-05
6.75353e-06
4.45869e-05
4.63285e-05
6.06559e-06
1.19794e-05
5.4588e-05
6.64239e-05
3.42575e-05
5.10994e-05
5.00268e-05
0.000108443
1.38936e-05
8.02125e-06
6.58069e-05
1.5899e-05
9.69388e-06
4.49765e-06
7.64282e-06
1.08131e-05
1.21934e-05
2.90405e-05
9.09346e-06
1.70001e-05
1.85658e-05
1.22002e-06
1.00985e-05
4.37963e-05
9.4917e-06
6.91425e-06
3.43029e-05
2.45968e-05
4.26876e-06
6.5425e-06
2.51934e-06
1.76488e-05
2.0892e-06
1.26736e-06
2.63137e-05
2.27324e-05
1.12695e-05
6.61713e-06
4.61847e-05
4.60021e-05
6.56072e-06
1.26391e-05
5.29107e-05
6.5898e-05
3.29461e-05
5.00508e-05
5.05236e-05
0.000110392
1.46718e-05
8.01578e-06
6.40646e-05
1.59452e-05
1.0084e-05
4.52785e-06
8.0129e-06
1.1264e-05
1.26525e-05
2.96208e-05
9.13906e-06
1.7689e-05
1.96942e-05
1.305e-06
1.10135e-05
4.51261e-05
9.42945e-06
7.47505e-06
3.75917e-05
2.53463e-05
4.18897e-06
6.24938e-06
2.58291e-06
1.77308e-05
2.11291e-06
1.29709e-06
2.74321e-05
2.25323e-05
1.17134e-05
6.57497e-06
4.93841e-05
4.67984e-05
6.29569e-06
1.25417e-05
5.037e-05
6.22686e-05
3.40777e-05
5.5364e-05
3.97301e-05
0.000102781
1.53986e-05
8.90719e-06
6.27091e-05
1.65332e-05
1.01524e-05
4.49635e-06
8.40396e-06
1.16429e-05
1.33535e-05
3.12572e-05
9.79745e-06
1.89406e-05
2.21093e-05
1.29948e-06
1.07702e-05
4.55122e-05
9.20062e-06
8.12351e-06
4.1533e-05
2.62613e-05
3.98606e-06
6.24383e-06
2.54364e-06
1.81858e-05
2.09222e-06
1.29271e-06
2.73809e-05
2.16181e-05
1.22686e-05
6.55886e-06
5.31632e-05
4.98582e-05
5.76701e-06
1.21145e-05
4.67279e-05
5.60794e-05
4.04775e-05
6.90825e-05
2.35389e-05
8.98345e-05
1.43887e-05
1.03625e-05
6.33576e-05
1.7226e-05
9.32553e-06
3.99607e-06
8.94989e-06
1.15818e-05
1.36272e-05
3.3808e-05
1.13313e-05
1.88078e-05
2.49498e-05
1.2729e-06
8.4405e-06
4.26913e-05
8.62944e-06
8.26158e-06
4.43333e-05
2.6892e-05
3.52077e-06
6.34243e-06
2.44226e-06
1.85265e-05
2.10602e-06
1.27626e-06
2.60548e-05
1.93343e-05
1.36207e-05
6.54836e-06
5.59155e-05
5.29471e-05
5.14304e-06
1.18325e-05
4.05592e-05
4.87198e-05
4.16484e-05
6.04444e-05
1.83556e-05
8.01583e-05
1.36488e-05
1.22957e-05
6.50302e-05
1.74423e-05
8.74167e-06
3.47509e-06
9.85833e-06
1.17341e-05
1.40277e-05
3.66782e-05
1.35764e-05
1.90704e-05
2.79797e-05
1.25339e-06
5.82255e-06
3.82371e-05
7.45103e-06
8.14455e-06
4.4086e-05
2.54747e-05
2.60244e-06
6.80905e-06
2.37636e-06
1.92539e-05
2.15419e-06
1.22824e-06
2.60809e-05
1.77385e-05
1.47945e-05
6.18466e-06
5.60865e-05
5.28309e-05
4.23695e-06
1.0677e-05
3.35475e-05
4.33956e-05
3.47003e-05
3.8021e-05
1.93454e-05
6.59384e-05
1.16877e-05
1.43819e-05
6.51886e-05
1.55389e-05
8.91824e-06
3.07597e-06
1.12767e-05
1.1689e-05
1.41245e-05
4.0649e-05
1.51907e-05
2.33295e-05
3.2887e-05
1.26301e-06
3.73162e-06
3.41313e-05
6.71556e-06
7.69363e-06
4.11158e-05
2.26573e-05
1.65419e-06
7.80768e-06
2.3171e-06
2.0045e-05
2.13644e-06
1.19392e-06
2.50846e-05
1.76297e-05
1.46511e-05
5.16246e-06
5.42693e-05
4.94484e-05
2.95959e-06
8.31045e-06
2.66646e-05
3.82828e-05
3.28828e-05
2.85903e-05
1.60032e-05
5.28389e-05
9.4252e-06
1.58908e-05
6.5601e-05
1.43875e-05
7.79458e-06
2.3453e-06
1.34202e-05
1.19564e-05
1.37358e-05
4.28975e-05
1.88882e-05
2.94916e-05
4.63637e-05
1.36821e-06
2.31127e-06
2.86028e-05
6.21456e-06
6.89716e-06
3.80415e-05
2.02599e-05
1.09207e-06
9.31371e-06
2.3974e-06
2.14047e-05
1.84664e-06
1.41988e-06
2.09772e-05
1.72926e-05
1.3803e-05
3.80947e-06
5.01625e-05
4.42011e-05
1.88871e-06
5.25156e-06
2.29522e-05
2.96737e-05
3.24695e-05
2.23197e-05
9.55822e-06
3.7755e-05
7.96378e-06
1.79517e-05
6.95909e-05
1.31216e-05
7.86723e-06
1.917e-06
1.38645e-05
1.07158e-05
1.36459e-05
4.28971e-05
2.32111e-05
2.53047e-05
5.67147e-05
1.61859e-06
1.55595e-06
2.26777e-05
5.57041e-06
6.38187e-06
3.29114e-05
1.68301e-05
1.14615e-06
1.01076e-05
3.28265e-06
2.35785e-05
1.39953e-06
2.02355e-06
1.81076e-05
1.72159e-05
1.21288e-05
2.23849e-06
4.64154e-05
3.73864e-05
1.11779e-06
2.66205e-06
2.48211e-05
2.27899e-05
3.04238e-05
1.72082e-05
4.81463e-06
2.18413e-05
6.45582e-06
1.87477e-05
7.20911e-05
9.24902e-06
1.11429e-05
2.07544e-06
1.1874e-05
8.8848e-06
1.29346e-05
4.44487e-05
2.72255e-05
1.94052e-05
5.32252e-05
1.3964e-06
1.24989e-06
1.75663e-05
5.43889e-06
5.28858e-06
2.57007e-05
1.47804e-05
1.56798e-06
1.05975e-05
4.86014e-06
2.51348e-05
1.03196e-06
2.47152e-06
1.77222e-05
1.81412e-05
9.88146e-06
1.04054e-06
4.55632e-05
3.02492e-05
7.3489e-07
1.06512e-06
2.9498e-05
1.953e-05
2.72152e-05
1.28146e-05
3.62429e-06
1.30097e-05
5.27138e-06
1.86254e-05
7.10566e-05
4.82638e-06
1.70131e-05
2.5723e-06
9.19531e-06
6.90674e-06
1.16653e-05
4.84562e-05
3.25314e-05
1.33698e-05
4.50707e-05
1.46278e-06
1.11523e-06
1.70628e-05
6.46013e-06
3.62651e-06
2.1459e-05
1.74644e-05
1.64979e-06
1.41487e-05
4.15257e-06
2.36025e-05
9.91567e-07
2.5794e-06
1.92503e-05
1.98922e-05
7.36146e-06
5.77777e-07
4.48257e-05
2.20848e-05
5.68896e-07
5.36094e-07
2.80721e-05
1.5323e-05
2.22912e-05
9.03033e-06
2.93861e-06
8.05402e-06
4.03367e-06
1.85976e-05
7.56588e-05
2.52929e-06
2.62089e-05
3.84936e-06
6.61541e-06
5.26215e-06
1.01223e-05
5.00128e-05
3.8887e-05
8.86852e-06
4.25999e-05
1.85697e-06
1.07956e-06
1.90027e-05
8.66214e-06
2.53097e-06
2.22108e-05
2.33605e-05
1.05411e-06
1.65306e-05
3.67604e-06
2.07375e-05
1.74179e-06
3.14934e-06
1.9887e-05
2.09329e-05
4.5196e-06
7.9644e-07
4.1886e-05
1.51666e-05
4.20686e-07
5.27133e-07
2.31428e-05
1.06632e-05
1.75581e-05
5.88269e-06
1.60692e-06
3.8752e-06
2.89588e-06
1.74414e-05
9.02559e-05
4.57734e-06
3.09786e-05
5.92967e-06
5.47033e-06
4.66183e-06
9.21645e-06
5.36668e-05
3.95212e-05
1.06022e-05
4.02794e-05
2.9934e-06
2.30073e-06
1.48582e-05
1.1015e-05
1.07858e-06
1.9793e-05
2.65836e-05
8.37727e-07
1.89567e-05
3.40086e-06
1.73842e-05
2.47557e-06
2.96895e-06
1.85645e-05
1.99019e-05
2.11619e-06
1.92962e-06
3.7828e-05
1.14956e-05
3.67195e-07
7.39351e-07
2.16134e-05
8.56922e-06
1.39777e-05
4.57189e-06
9.51945e-07
1.34268e-06
1.20664e-06
1.22505e-05
9.0642e-05
1.00353e-05
2.57067e-05
7.05484e-06
5.76743e-06
4.61782e-06
5.24174e-06
4.69e-05
3.88759e-05
1.10839e-05
3.07803e-05
5.83783e-06
5.10784e-06
8.8135e-06
1.16303e-05
6.71747e-07
1.0072e-05
2.0328e-05
7.83843e-07
2.09535e-05
2.354e-06
1.49105e-05
2.40233e-06
2.51307e-06
1.58373e-05
1.74046e-05
8.70974e-07
2.96599e-06
3.25088e-05
8.21127e-06
7.31466e-07
9.50974e-07
2.09973e-05
6.64327e-06
1.24026e-05
5.68148e-06
6.35211e-07
6.89257e-07
6.00569e-07
6.53669e-06
6.93738e-05
1.20483e-05
1.8031e-05
6.44203e-06
5.79049e-06
4.56286e-06
1.97072e-06
3.06804e-05
3.09226e-05
9.77017e-06
2.00093e-05
8.96488e-06
8.74242e-06
4.23463e-06
1.13713e-05
1.98792e-06
3.99055e-06
1.38063e-05
7.04613e-07
1.614e-05
2.86843e-06
1.67853e-05
1.99144e-06
2.78766e-06
1.0563e-05
1.29001e-05
4.4032e-07
3.23368e-06
2.75176e-05
4.91623e-06
8.09354e-07
9.34629e-07
1.90379e-05
4.98021e-06
1.19938e-05
7.94471e-06
6.55464e-07
5.96065e-07
6.40372e-07
4.10543e-06
4.58675e-05
9.12412e-06
1.19058e-05
4.80796e-06
5.00252e-06
5.02925e-06
1.95133e-06
2.49681e-05
2.56713e-05
7.79552e-06
1.17795e-05
1.04573e-05
9.05605e-06
1.57173e-06
7.35134e-06
3.7126e-06
1.36431e-06
1.16568e-05
1.0306e-06
1.28225e-05
2.48007e-06
1.79278e-05
1.44157e-06
3.1396e-06
6.95697e-06
9.84583e-06
6.44235e-07
3.8975e-06
2.63409e-05
4.74483e-06
4.41022e-07
8.33246e-07
1.62386e-05
3.83428e-06
1.02109e-05
7.84671e-06
5.92066e-07
5.66371e-07
6.65646e-07
3.79017e-06
3.22244e-05
4.25426e-06
1.08743e-05
4.38359e-06
4.10163e-06
5.75887e-06
4.31009e-06
2.78922e-05
2.70117e-05
3.7347e-06
7.33341e-06
8.90271e-06
6.05256e-06
7.00181e-07
3.36253e-06
3.92503e-06
6.01755e-07
8.36784e-06
9.21629e-07
1.44272e-05
1.13033e-06
1.54649e-05
1.14183e-06
1.90262e-06
8.28743e-06
9.87176e-06
1.05176e-06
3.69751e-06
2.30703e-05
5.33034e-06
2.0046e-07
6.64301e-07
1.34444e-05
2.86476e-06
8.21981e-06
5.13634e-06
6.23501e-07
1.45518e-06
5.11417e-07
3.23723e-06
2.18032e-05
1.42746e-06
7.2447e-06
2.13532e-06
4.00927e-06
6.58095e-06
3.7459e-06
2.17376e-05
2.45515e-05
2.10193e-06
5.90532e-06
7.81759e-06
4.65285e-06
6.94863e-07
2.55708e-06
5.43654e-06
1.69147e-06
4.92072e-06
7.37566e-07
1.68573e-05
5.72807e-07
1.25323e-05
1.29855e-06
1.46685e-06
1.01811e-05
9.71916e-06
1.41872e-06
4.0936e-06
1.80972e-05
4.75104e-06
2.33229e-07
4.52798e-07
1.10856e-05
1.94219e-06
1.00454e-05
4.96804e-06
6.31194e-07
2.988e-06
5.26903e-07
3.26132e-06
1.58063e-05
6.69945e-07
3.01063e-06
8.15512e-07
3.15328e-06
8.03924e-06
3.41865e-06
1.38247e-05
2.17458e-05
9.13948e-07
8.74088e-06
3.89459e-06
4.32462e-06
3.1265e-07
7.70913e-07
4.46101e-06
2.16287e-06
6.00563e-06
1.91868e-06
1.40482e-05
5.67675e-07
1.41068e-05
1.49579e-06
2.60072e-06
8.45024e-06
8.28002e-06
1.3993e-06
3.58835e-06
1.2911e-05
4.24194e-06
6.66617e-07
5.46578e-07
1.12943e-05
2.91853e-06
8.41918e-06
4.52139e-06
5.19614e-07
4.68338e-06
1.376e-06
3.69956e-06
1.15322e-05
5.14115e-07
1.71387e-06
7.73e-07
4.42824e-06
1.24407e-05
6.42475e-06
1.32567e-05
2.6259e-05
9.78038e-07
5.67157e-06
1.51046e-06
1.59471e-06
3.19788e-07
5.2157e-07
1.04482e-06
2.08354e-06
6.82043e-06
4.71605e-06
1.28135e-05
9.07564e-07
1.80034e-05
5.4486e-07
1.17361e-06
1.17417e-05
1.01207e-05
2.22106e-06
4.55138e-06
1.06925e-05
4.09964e-06
1.51611e-06
3.98524e-07
7.10689e-06
1.0552e-06
1.11618e-05
3.71923e-06
5.75121e-07
4.09743e-06
1.36885e-06
3.13992e-06
1.04717e-05
1.05197e-06
2.83427e-06
7.13254e-07
4.74517e-06
1.68726e-05
8.42054e-06
5.86109e-06
1.49284e-05
1.59683e-06
1.8492e-06
3.16016e-06
4.2004e-06
1.79009e-07
2.67447e-06
6.26202e-07
2.22456e-06
4.36825e-06
6.76187e-06
1.12555e-05
2.81971e-06
1.48862e-05
5.05006e-07
1.26467e-06
1.38825e-05
1.0666e-05
1.15254e-06
2.44157e-06
5.94609e-06
3.21916e-06
1.11883e-06
4.49368e-07
6.89051e-06
2.66439e-06
6.6699e-06
6.73372e-07
2.77114e-06
5.18279e-06
1.67453e-06
1.23061e-06
9.05114e-06
3.36795e-07
1.10542e-06
6.38044e-07
1.40976e-06
8.90655e-06
4.84479e-06
3.97696e-06
1.97322e-05
9.95373e-06
2.06112e-07
3.43924e-06
6.47676e-06
1.67914e-07
3.82245e-06
5.65098e-06
7.55907e-07
2.75357e-06
7.76373e-06
9.68807e-06
7.08947e-06
9.72019e-06
5.03766e-07
4.44931e-06
7.56812e-06
8.29875e-06
1.15843e-06
3.16114e-06
4.28583e-06
1.40313e-06
2.73991e-06
3.61518e-07
2.92471e-06
1.73277e-06
1.02979e-05
1.85133e-06
1.3175e-06
1.88954e-06
1.23477e-06
4.78218e-07
7.22595e-06
6.323e-07
5.50664e-07
1.17018e-06
8.37762e-07
5.00988e-06
3.4478e-06
6.83097e-07
3.8816e-06
5.9804e-06
2.03646e-07
6.11269e-07
5.14664e-06
1.60626e-07
1.3896e-06
6.45194e-06
5.163e-07
1.93625e-06
1.33077e-05
3.0929e-06
6.68129e-06
7.92778e-06
8.29852e-07
2.54046e-06
7.65997e-06
1.04042e-05
2.80436e-06
6.65177e-06
7.61391e-06
3.14437e-06
1.16327e-06
5.6404e-08
1.68807e-06
3.89446e-06
8.58718e-06
1.22119e-06
7.80875e-06
5.67096e-06
2.1745e-06
5.56467e-07
7.36637e-06
2.18894e-06
3.367e-07
2.5106e-06
1.00505e-06
1.9433e-06
2.24132e-06
3.67631e-07
3.96126e-07
2.14628e-06
5.63663e-07
1.32955e-06
2.43713e-06
1.7988e-07
3.03853e-07
3.05316e-06
8.33462e-07
3.80287e-07
8.17206e-06
1.05417e-06
8.21899e-06
2.88535e-06
3.64434e-07
5.19551e-06
2.82046e-06
5.66216e-06
9.06768e-07
3.97013e-06
5.48793e-06
1.49456e-06
1.85333e-06
3.39692e-07
3.53065e-06
8.1393e-06
4.80826e-06
4.48262e-06
6.76947e-07
2.81322e-07
3.73276e-07
3.51194e-07
5.30685e-06
2.99474e-06
7.7245e-07
8.56998e-07
7.64978e-07
5.46333e-07
1.79917e-06
1.33342e-06
6.48601e-07
4.53997e-06
3.18526e-06
2.69496e-07
1.21315e-06
8.54814e-07
8.67751e-07
1.14238e-05
1.2656e-06
5.64019e-07
8.71461e-06
8.31879e-07
4.19803e-06
3.37796e-06
1.4538e-06
2.47176e-06
2.6586e-06
4.05578e-06
2.47594e-07
1.76588e-06
2.94509e-06
1.08402e-06
1.26441e-06
8.18774e-07
1.24314e-07
3.8066e-06
3.8281e-06
4.175e-06
1.9089e-06
3.42895e-07
3.4978e-07
4.23451e-07
2.42936e-06
2.33864e-06
1.36136e-06
3.67919e-07
2.53984e-07
3.6925e-07
4.82922e-07
1.9862e-06
9.58161e-07
2.37547e-06
5.98307e-06
9.46504e-07
1.16315e-06
9.15833e-07
1.51103e-07
1.04149e-05
8.25875e-06
1.96222e-07
4.96093e-06
2.24206e-06
2.27597e-06
2.2113e-06
4.19843e-06
2.93162e-07
7.37466e-06
6.60758e-06
1.78853e-07
5.06424e-07
1.38173e-06
1.38531e-06
4.54916e-06
1.815e-07
1.33641e-07
2.73548e-06
2.34618e-06
5.27154e-06
1.67712e-06
5.52164e-07
2.78945e-07
2.95045e-07
1.88281e-06
3.97053e-06
4.08081e-07
3.73537e-07
4.03526e-06
1.70392e-06
9.91031e-07
1.98655e-06
6.68491e-07
1.90275e-07
2.35875e-07
3.43766e-07
3.05125e-07
1.29357e-06
1.14089e-06
6.08092e-06
6.44804e-06
1.55751e-07
1.57915e-06
2.59824e-06
1.69635e-06
2.38302e-07
3.54283e-07
1.27739e-06
1.67298e-06
4.04244e-06
8.32607e-07
1.73828e-06
1.58325e-06
3.95953e-06
8.24777e-06
3.36362e-07
4.33668e-08
2.90308e-06
1.15977e-07
9.79855e-07
4.56537e-06
6.27895e-06
7.859e-07
3.32865e-07
2.29844e-06
4.91618e-06
1.99514e-07
1.84253e-07
2.21657e-06
9.72636e-07
4.12901e-07
1.63864e-06
1.89983e-06
1.32667e-07
1.1055e-07
4.12624e-07
1.05143e-07
1.76459e-07
1.20559e-07
6.16938e-07
2.87184e-06
3.17999e-07
5.1673e-07
4.32628e-06
1.02664e-06
1.86879e-06
3.87915e-06
1.64785e-07
4.94002e-07
4.56007e-07
2.09761e-07
1.24975e-07
1.38388e-07
3.49487e-06
5.37623e-06
2.89649e-07
6.55248e-08
1.37864e-06
1.27488e-06
1.07038e-07
2.57645e-06
8.64389e-06
1.59145e-06
2.3071e-07
2.66086e-06
3.98717e-06
2.60123e-07
1.82574e-07
2.6725e-06
3.251e-06
4.68385e-07
5.85038e-07
5.71882e-06
8.72943e-07
8.86172e-08
1.40275e-06
5.6514e-07
2.54944e-07
7.32871e-07
1.98644e-06