/*--------------------------------*- C++ -*----------------------------------*\
  =========                 |
  \\      /  F ield         | OpenFOAM: The Open Source CFD Toolbox
   \\    /   O peration     | Website:  https://openfoam.org
    \\  /    A nd           | Version:  10
     \\/     M anipulation  |
\*---------------------------------------------------------------------------*/
FoamFile
{
    format      ascii;
    class       volScalarField;
    location    "15";
    object      nut;
}
// * * * * * * * * * * * * * * * * * * * * * * * * * * * * * * * * * * * * * //

dimensions      [0 2 -1 0 0 0 0];

internalField   nonuniform List<scalar> 
25600
(
2.72334e-08
7.65753e-08
4.44654e-08
1.08894e-07
1.7233e-08
7.00599e-10
6.86936e-08
7.57071e-08
1.17846e-08
9.73135e-08
3.37004e-08
1.00847e-07
1.59566e-08
5.2113e-08
1.27692e-08
3.74402e-08
2.92799e-08
4.17318e-08
4.19055e-08
9.9253e-09
8.15912e-08
2.67009e-08
4.55565e-08
4.8625e-08
1.37101e-08
7.83591e-08
2.42977e-08
1.15768e-07
1.37294e-08
9.94465e-08
1.78551e-08
8.17441e-08
5.00288e-08
1.41754e-08
7.11916e-08
7.53224e-08
7.28554e-08
7.60746e-08
5.76911e-08
6.24314e-08
3.94728e-08
3.46109e-08
9.17982e-09
7.75446e-08
1.51258e-08
3.83944e-09
7.33492e-08
3.74979e-09
1.44721e-08
4.08547e-08
3.75717e-08
1.77049e-08
3.22332e-08
2.11235e-08
1.84728e-08
5.4705e-08
7.80377e-09
6.77955e-08
1.99157e-08
8.26893e-09
6.75681e-08
1.5119e-08
5.7645e-09
5.06509e-08
1.71342e-08
2.06687e-08
6.19946e-08
2.83442e-08
3.05973e-08
3.79246e-08
2.98809e-08
2.77852e-08
4.20502e-08
7.93529e-09
5.11218e-08
2.22617e-08
2.69024e-08
3.1026e-08
1.99313e-08
2.21334e-08
6.32911e-08
1.59735e-08
2.54684e-08
4.99908e-08
9.73857e-09
3.39218e-09
4.47758e-08
9.71783e-09
1.30477e-08
3.68572e-08
8.04226e-09
3.19311e-08
1.95801e-08
1.45946e-08
3.61704e-08
2.30345e-08
8.99813e-09
7.10393e-08
8.88477e-09
1.43644e-08
4.06306e-08
2.62772e-08
6.36503e-09
6.45469e-08
6.43432e-09
8.04533e-09
5.32884e-08
1.24266e-08
3.14001e-08
1.40553e-08
3.65579e-08
3.54254e-08
2.82717e-08
2.61242e-08
3.92014e-08
1.96003e-08
3.00468e-08
2.12764e-08
1.63366e-08
2.08898e-08
6.9359e-08
6.07375e-09
4.98593e-08
3.41151e-08
2.02502e-08
5.42184e-09
4.60477e-08
7.47872e-09
2.27962e-08
1.97149e-08
7.00471e-09
4.25507e-08
9.48092e-09
1.18572e-08
4.40768e-08
1.13849e-08
8.99492e-09
6.69914e-08
6.19074e-09
1.7129e-08
3.28868e-08
2.85522e-08
8.25244e-09
5.99028e-08
8.89791e-09
1.52843e-08
1.71405e-08
1.34575e-08
3.22414e-08
9.64519e-09
2.46067e-08
4.71101e-08
2.02067e-08
5.49038e-08
3.14671e-08
1.91459e-08
3.58026e-08
8.97774e-09
1.4702e-08
1.09321e-08
6.08794e-08
5.86907e-09
4.20544e-08
3.40222e-08
2.1951e-08
9.79724e-09
5.12983e-08
6.18373e-09
5.74276e-08
5.76333e-09
1.79101e-08
2.22039e-08
1.23614e-08
5.64871e-09
5.47915e-08
8.54658e-09
1.44352e-08
6.44067e-08
5.29618e-09
3.76323e-08
2.42403e-08
2.90351e-08
1.68399e-08
4.21358e-08
9.3559e-09
2.29745e-08
1.14714e-08
1.7966e-08
2.98696e-08
1.48691e-08
2.0463e-08
6.22693e-08
9.99322e-09
8.68466e-08
1.52168e-08
2.47312e-08
3.29113e-08
8.94973e-09
1.48384e-08
8.51911e-09
4.54062e-08
1.40919e-08
1.81549e-08
4.79355e-08
8.65596e-09
1.69459e-08
3.45279e-08
4.07082e-09
6.13468e-08
7.42026e-09
3.87253e-08
1.59753e-08
3.26163e-08
1.98079e-09
8.32594e-08
4.29771e-09
3.58929e-08
4.32847e-08
8.25318e-09
3.57309e-08
2.49089e-08
2.28547e-08
2.06529e-08
3.38424e-08
6.36159e-09
3.24782e-08
1.04476e-08
2.04564e-08
3.56625e-08
1.32691e-08
2.24986e-08
6.50531e-08
6.44843e-09
1.10136e-07
5.58848e-09
3.53471e-08
2.82654e-08
1.51113e-08
1.85663e-08
1.49273e-08
3.55952e-08
3.0448e-08
7.54537e-09
7.2451e-08
3.73802e-09
4.09109e-08
1.79357e-08
5.87576e-09
3.95292e-08
6.94504e-09
2.63889e-08
1.68134e-08
2.44674e-08
2.02734e-09
8.21369e-08
4.38888e-09
5.38439e-08
3.2569e-08
1.86002e-08
2.78172e-08
4.57065e-08
1.08094e-08
4.14241e-08
1.11066e-08
1.19501e-08
2.96856e-08
1.63938e-08
1.78927e-08
3.577e-08
1.34717e-08
2.70717e-08
5.62668e-08
4.49355e-09
1.13061e-07
2.82786e-09
3.88322e-08
2.70121e-08
1.52978e-08
2.6106e-08
1.78008e-08
2.90454e-08
3.95325e-08
4.13593e-09
8.51327e-08
3.77522e-09
5.47193e-08
1.60116e-08
1.55489e-08
2.59627e-08
1.09463e-08
1.43169e-08
2.33883e-08
1.51883e-08
9.4182e-09
6.37923e-08
8.16817e-09
3.48809e-08
3.4951e-08
1.44936e-08
3.35281e-08
4.91357e-08
9.19957e-09
6.12675e-08
6.68284e-09
3.37632e-08
2.59627e-08
3.35466e-08
9.52964e-09
4.8921e-08
8.54527e-09
3.37288e-08
4.06132e-08
5.28211e-09
1.00419e-07
2.5437e-09
3.25729e-08
3.06948e-08
1.00872e-08
3.81467e-08
1.53328e-08
2.93308e-08
3.78398e-08
3.21465e-09
7.99553e-08
4.51856e-09
4.86463e-08
1.69234e-08
2.12133e-08
2.26606e-08
1.75372e-08
1.16467e-08
2.87028e-08
1.71733e-08
1.90405e-08
5.74596e-08
1.56014e-08
2.38318e-08
4.32797e-08
8.41053e-09
4.72877e-08
3.52568e-08
1.12036e-08
4.44688e-08
5.06999e-09
2.75163e-08
2.99619e-08
3.33775e-08
7.80014e-09
5.75498e-08
5.96689e-09
4.81253e-08
2.29027e-08
1.14932e-08
8.24321e-08
8.31905e-09
2.09459e-08
3.92072e-08
5.48694e-09
5.31315e-08
1.03901e-08
3.21019e-08
3.4859e-08
6.3991e-09
6.61755e-08
7.8329e-09
3.15827e-08
1.91623e-08
2.11334e-08
2.33638e-08
2.13481e-08
1.51557e-08
2.79156e-08
2.42903e-08
1.98014e-08
5.90697e-08
2.01002e-08
2.05526e-08
4.82914e-08
8.29413e-09
5.60394e-08
3.20826e-08
1.57026e-08
3.6521e-08
1.15247e-08
1.84406e-08
3.90515e-08
1.99016e-08
8.16885e-09
4.74688e-08
1.19931e-08
4.37092e-08
2.20811e-08
1.28603e-08
7.62418e-08
1.49668e-08
1.72012e-08
4.71488e-08
3.57447e-09
6.59075e-08
1.03907e-08
4.72104e-08
6.31647e-08
4.41848e-08
6.44148e-08
5.10654e-08
4.97172e-08
4.88952e-08
5.71953e-08
4.04517e-08
5.81789e-08
5.67142e-08
3.64329e-08
7.14825e-08
3.45857e-08
7.98525e-08
5.78224e-08
3.21827e-08
8.35117e-08
3.01683e-08
7.53515e-08
6.75754e-08
3.45993e-08
6.56378e-08
5.63697e-08
3.46241e-08
7.32861e-08
5.1958e-08
3.07157e-08
7.7732e-08
4.4448e-08
5.75813e-08
7.22649e-08
2.39524e-08
1.0016e-07
4.12192e-08
4.3803e-08
7.63525e-08
2.98953e-08
7.65947e-08
5.00096e-08
7.85571e-07
8.0773e-07
7.83952e-07
8.02055e-07
7.95005e-07
7.98861e-07
7.89448e-07
8.08607e-07
7.79769e-07
8.11508e-07
7.95618e-07
7.84196e-07
8.14102e-07
7.76495e-07
8.04174e-07
8.02204e-07
7.70254e-07
8.20448e-07
7.60734e-07
8.04428e-07
7.99314e-07
7.69183e-07
7.93654e-07
8.00831e-07
7.60824e-07
8.13139e-07
7.81483e-07
7.75598e-07
8.05448e-07
7.78882e-07
7.85066e-07
8.15039e-07
7.49589e-07
8.28708e-07
7.71082e-07
7.92497e-07
8.07077e-07
7.77446e-07
7.99126e-07
8.00875e-07
7.53162e-06
7.56183e-06
7.52905e-06
7.57265e-06
7.53043e-06
7.58206e-06
7.52003e-06
7.59862e-06
7.50357e-06
7.60861e-06
7.50004e-06
7.58386e-06
7.50918e-06
7.55565e-06
7.50402e-06
7.54527e-06
7.47697e-06
7.53983e-06
7.45568e-06
7.52307e-06
7.46817e-06
7.49314e-06
7.45633e-06
7.52489e-06
7.42096e-06
7.54781e-06
7.42834e-06
7.52143e-06
7.4577e-06
7.51238e-06
7.46307e-06
7.53404e-06
7.45017e-06
7.5581e-06
7.47049e-06
7.54769e-06
7.50982e-06
7.53649e-06
7.52613e-06
7.55185e-06
3.39108e-05
3.39517e-05
3.39125e-05
3.39805e-05
3.39029e-05
3.3999e-05
3.38829e-05
3.40122e-05
3.38394e-05
3.40281e-05
3.37791e-05
3.40122e-05
3.37466e-05
3.39467e-05
3.37467e-05
3.38674e-05
3.37346e-05
3.38237e-05
3.36962e-05
3.38119e-05
3.36798e-05
3.37904e-05
3.36745e-05
3.38166e-05
3.36403e-05
3.38627e-05
3.36166e-05
3.38755e-05
3.36481e-05
3.38598e-05
3.37092e-05
3.3862e-05
3.3741e-05
3.39137e-05
3.37601e-05
3.3951e-05
3.38041e-05
3.39481e-05
3.3868e-05
3.39443e-05
8.10838e-05
8.1151e-05
8.10902e-05
8.11512e-05
8.10743e-05
8.1127e-05
8.10434e-05
8.109e-05
8.09708e-05
8.10857e-05
8.08523e-05
8.10837e-05
8.07597e-05
8.10261e-05
8.07501e-05
8.09274e-05
8.07683e-05
8.08691e-05
8.0754e-05
8.08761e-05
8.07467e-05
8.08755e-05
8.07719e-05
8.08817e-05
8.07758e-05
8.0934e-05
8.07485e-05
8.10128e-05
8.07592e-05
8.10496e-05
8.0847e-05
8.10504e-05
8.09274e-05
8.11014e-05
8.09486e-05
8.11716e-05
8.09671e-05
8.11927e-05
8.10314e-05
8.11723e-05
0.00013022
0.00013032
0.000130204
0.000130263
0.00013017
0.000130174
0.000130134
0.000130074
0.000130079
0.000130028
0.000129974
0.000130037
0.000129868
0.00013005
0.000129836
0.000130024
0.000129873
0.000129994
0.000129918
0.000130013
0.000129949
0.000130041
0.000129991
0.000130052
0.000130056
0.000130081
0.000130096
0.000130176
0.000130095
0.000130292
0.000130129
0.000130328
0.000130208
0.000130331
0.000130247
0.000130369
0.000130226
0.000130405
0.000130216
0.000130379
0.000169824
0.000169934
0.000169774
0.000169848
0.000169721
0.000169749
0.00016969
0.000169642
0.000169683
0.000169574
0.000169662
0.000169577
0.000169615
0.000169644
0.000169577
0.000169719
0.000169594
0.000169747
0.000169672
0.000169764
0.000169749
0.000169804
0.000169793
0.000169859
0.000169871
0.000169879
0.000169982
0.000169909
0.000170015
0.000170024
0.00016997
0.000170108
0.000169969
0.000170075
0.000170013
0.000170026
0.000169983
0.00017003
0.00016989
0.000170009
0.000200189
0.000200274
0.000200125
0.000200199
0.000200079
0.000200138
0.00020006
0.000200081
0.000200091
0.000200033
0.00020015
0.00020002
0.000200191
0.000200089
0.000200183
0.000200221
0.000200169
0.000200316
0.000200235
0.000200344
0.000200344
0.000200368
0.000200402
0.000200449
0.000200445
0.000200485
0.000200546
0.000200442
0.000200621
0.000200468
0.000200545
0.000200551
0.000200438
0.000200529
0.000200438
0.000200408
0.000200421
0.000200345
0.000200302
0.000200333
0.000222697
0.000222739
0.000222644
0.0002227
0.000222627
0.000222688
0.000222627
0.000222692
0.000222671
0.000222687
0.000222767
0.000222674
0.000222871
0.000222717
0.000222912
0.000222846
0.000222891
0.000222981
0.000222923
0.000223032
0.000223024
0.000223034
0.000223093
0.000223092
0.000223095
0.000223132
0.000223129
0.000223059
0.000223195
0.000222985
0.000223134
0.000223009
0.000222974
0.000223008
0.000222906
0.000222881
0.000222898
0.00022277
0.000222811
0.000222758
0.000238738
0.000238735
0.000238708
0.000238737
0.000238721
0.000238759
0.00023874
0.000238808
0.000238784
0.000238842
0.00023888
0.000238843
0.000239005
0.000238864
0.00023908
0.000238959
0.000239075
0.000239089
0.000239077
0.000239153
0.000239139
0.000239139
0.000239192
0.00023915
0.000239166
0.000239165
0.000239134
0.000239089
0.000239153
0.000238966
0.000239111
0.000238923
0.000238965
0.000238926
0.000238859
0.000238838
0.000238848
0.00023873
0.000238814
0.000238717
0.000249528
0.000249493
0.000249524
0.000249524
0.000249558
0.000249565
0.00024959
0.000249633
0.000249629
0.00024969
0.000249709
0.000249706
0.000249823
0.000249718
0.000249906
0.000249774
0.000249915
0.000249869
0.000249898
0.000249922
0.000249914
0.000249895
0.000249933
0.000249865
0.000249888
0.000249846
0.00024982
0.000249774
0.000249794
0.000249653
0.00024976
0.000249578
0.000249659
0.000249572
0.000249562
0.000249531
0.000249549
0.00024946
0.000249555
0.000249454
0.000256091
0.00025604
0.000256108
0.000256085
0.000256152
0.000256132
0.000256191
0.000256201
0.000256223
0.000256265
0.000256283
0.000256289
0.000256373
0.000256295
0.000256441
0.000256321
0.000256452
0.000256372
0.000256422
0.000256398
0.000256403
0.000256359
0.000256388
0.000256307
0.000256331
0.000256264
0.000256255
0.000256198
0.000256208
0.000256104
0.000256177
0.000256034
0.000256121
0.000256022
0.00025606
0.000256015
0.000256054
0.000255987
0.000256082
0.000255995
0.000259283
0.000259228
0.000259312
0.000259274
0.000259358
0.000259318
0.000259397
0.000259378
0.000259422
0.000259438
0.000259463
0.00025946
0.000259526
0.000259458
0.000259569
0.000259463
0.000259569
0.000259476
0.000259532
0.000259473
0.000259491
0.000259426
0.000259454
0.000259367
0.000259394
0.000259318
0.000259327
0.000259261
0.000259283
0.000259199
0.000259258
0.000259153
0.000259234
0.000259146
0.000259211
0.000259156
0.000259218
0.000259162
0.000259253
0.000259183
0.000259809
0.000259755
0.000259843
0.000259797
0.000259886
0.000259833
0.000259921
0.000259881
0.000259939
0.000259928
0.000259962
0.000259942
0.000259999
0.000259932
0.000260018
0.000259921
0.000260003
0.000259908
0.00025996
0.000259884
0.000259912
0.000259834
0.000259867
0.00025978
0.000259812
0.000259736
0.000259761
0.000259693
0.000259731
0.000259658
0.000259716
0.00025964
0.000259713
0.000259643
0.000259718
0.000259662
0.000259738
0.000259684
0.000259774
0.000259715
0.000258252
0.000258201
0.000258285
0.000258235
0.000258321
0.000258262
0.000258349
0.000258296
0.00025836
0.000258328
0.000258368
0.000258332
0.000258384
0.000258312
0.000258383
0.00025829
0.000258355
0.000258263
0.000258311
0.000258229
0.000258263
0.000258181
0.000258222
0.000258137
0.000258177
0.000258106
0.000258144
0.000258079
0.00025813
0.000258064
0.000258127
0.000258067
0.000258135
0.000258081
0.000258156
0.000258103
0.000258185
0.000258131
0.000258219
0.000258166
0.000255086
0.000255038
0.000255115
0.000255063
0.000255143
0.000255081
0.000255163
0.000255102
0.000255166
0.00025512
0.000255162
0.000255113
0.000255162
0.000255085
0.000255148
0.000255056
0.000255111
0.000255024
0.000255068
0.000254988
0.000255027
0.000254946
0.000254995
0.000254915
0.000254963
0.000254898
0.000254945
0.000254885
0.000254946
0.000254885
0.000254953
0.000254901
0.000254967
0.000254924
0.000254994
0.000254946
0.000255028
0.000254974
0.000255059
0.000255007
0.000250696
0.00025065
0.000250719
0.000250667
0.00025074
0.000250677
0.000250753
0.000250687
0.000250748
0.000250693
0.000250735
0.000250677
0.000250724
0.000250643
0.000250702
0.000250611
0.000250661
0.00025058
0.000250622
0.000250546
0.00025059
0.000250513
0.000250569
0.000250493
0.000250549
0.00025049
0.000250543
0.000250488
0.000250555
0.000250497
0.00025057
0.000250521
0.000250586
0.000250549
0.000250614
0.00025057
0.000250648
0.000250594
0.000250675
0.000250624
0.000245392
0.000245348
0.00024541
0.000245358
0.000245425
0.000245361
0.00024543
0.000245362
0.000245419
0.000245359
0.000245399
0.000245336
0.000245382
0.000245298
0.000245356
0.000245267
0.000245314
0.00024524
0.00024528
0.000245211
0.000245258
0.000245185
0.000245246
0.000245177
0.000245236
0.000245183
0.00024524
0.000245189
0.00024526
0.000245203
0.000245278
0.000245232
0.000245295
0.000245261
0.000245322
0.00024528
0.000245354
0.0002453
0.000245377
0.000245327
0.00023943
0.000239387
0.000239444
0.000239392
0.000239454
0.00023939
0.000239453
0.000239385
0.000239436
0.000239375
0.000239413
0.000239346
0.000239393
0.000239308
0.000239364
0.000239279
0.000239323
0.000239256
0.000239295
0.000239231
0.000239282
0.000239213
0.000239278
0.000239214
0.000239274
0.000239227
0.000239285
0.000239237
0.000239311
0.000239255
0.000239329
0.000239286
0.000239346
0.000239314
0.000239372
0.00023933
0.000239402
0.000239347
0.00023942
0.000239371
0.00023297
0.000232929
0.000232981
0.000232929
0.000232987
0.000232923
0.000232981
0.000232916
0.000232961
0.000232901
0.000232937
0.000232868
0.000232917
0.00023283
0.000232884
0.000232806
0.000232846
0.000232786
0.000232825
0.000232763
0.000232819
0.000232751
0.000232817
0.00023276
0.000232818
0.000232776
0.000232836
0.000232788
0.000232863
0.000232809
0.00023288
0.000232842
0.000232896
0.000232866
0.000232923
0.000232879
0.00023295
0.000232896
0.000232962
0.000232917
0.00022641
0.000226369
0.000226421
0.000226367
0.000226424
0.00022636
0.000226413
0.000226352
0.000226391
0.000226333
0.00022637
0.000226296
0.000226348
0.000226263
0.000226312
0.000226243
0.000226277
0.000226223
0.000226263
0.0002262
0.000226261
0.000226194
0.000226259
0.000226209
0.000226263
0.000226225
0.000226287
0.000226236
0.000226314
0.000226263
0.000226327
0.000226295
0.000226345
0.000226314
0.000226373
0.000226325
0.000226395
0.000226343
0.000226403
0.000226363
0.00021838
0.000218337
0.000218392
0.000218334
0.000218391
0.00021833
0.000218376
0.000218323
0.000218355
0.000218299
0.00021834
0.00021826
0.000218316
0.000218235
0.000218274
0.000218219
0.000218244
0.000218193
0.000218238
0.00021817
0.000218236
0.000218171
0.000218229
0.000218191
0.000218237
0.0002182
0.000218269
0.000218211
0.000218289
0.000218245
0.000218298
0.000218275
0.000218321
0.000218286
0.000218352
0.000218297
0.000218366
0.000218321
0.000218369
0.000218337
2.53112e-08
7.00198e-08
1.11748e-08
6.31416e-08
3.06613e-08
7.17119e-10
8.77868e-08
1.93934e-08
1.63997e-08
4.57337e-08
7.12127e-08
2.87671e-08
2.34228e-08
3.26197e-08
7.56411e-09
3.83566e-08
1.18604e-08
5.66078e-08
3.75486e-08
5.50364e-09
6.79462e-08
2.80286e-08
1.8165e-08
4.46434e-08
1.62106e-08
4.39582e-08
3.57472e-08
6.5558e-08
5.0714e-08
3.61308e-08
3.05187e-08
1.80898e-08
6.81234e-08
7.37929e-09
7.23255e-08
3.61348e-08
1.35567e-08
4.7147e-08
2.38159e-08
3.07833e-08
2.63177e-08
4.01327e-08
8.85313e-09
6.97943e-08
1.1107e-08
2.0376e-09
6.55953e-08
3.90226e-09
1.42256e-08
3.70956e-08
2.37635e-08
1.56068e-08
2.94244e-08
1.87817e-08
1.66322e-08
4.90489e-08
7.33187e-09
6.31861e-08
2.29966e-08
7.00456e-09
6.40527e-08
1.5024e-08
3.31881e-09
5.68669e-08
1.28529e-08
2.49218e-08
4.87101e-08
2.87781e-08
8.85586e-09
3.01253e-08
4.08903e-08
1.30144e-08
6.68672e-08
9.49821e-09
6.83793e-08
1.37333e-08
1.96965e-08
3.87566e-08
6.82633e-09
3.91101e-08
5.35862e-08
1.14672e-08
2.63211e-08
4.70681e-08
9.91405e-09
8.75781e-09
3.24076e-08
1.23577e-08
8.09464e-09
4.58624e-08
1.15084e-08
2.93681e-08
2.05944e-08
1.65386e-08
3.49183e-08
2.07822e-08
8.26786e-09
5.9571e-08
1.69699e-08
1.39933e-08
4.75602e-08
2.45316e-08
3.89552e-09
7.23693e-08
4.03909e-09
2.07337e-08
3.7606e-08
2.29294e-08
2.50954e-08
1.57169e-08
4.19491e-08
2.46597e-08
4.21998e-08
1.54404e-08
6.52504e-08
1.48676e-08
3.14985e-08
2.44303e-08
7.83964e-09
2.12869e-08
8.35739e-08
4.52183e-09
6.74574e-08
2.99296e-08
1.87266e-08
1.05185e-08
3.27988e-08
1.09448e-08
1.01597e-08
3.48327e-08
6.4748e-09
5.00278e-08
9.02688e-09
1.82419e-08
3.66022e-08
1.61182e-08
1.11272e-08
5.6046e-08
9.80936e-09
1.1435e-08
4.05333e-08
1.97549e-08
6.69782e-09
6.43435e-08
5.1751e-09
3.22222e-08
1.15835e-08
2.39507e-08
2.6272e-08
1.503e-08
2.69741e-08
4.37186e-08
1.8195e-08
3.6109e-08
4.25077e-08
1.68401e-08
4.3875e-08
9.56007e-09
1.35673e-08
6.61893e-09
8.57592e-08
4.0455e-09
6.49902e-08
3.04228e-08
2.71563e-08
1.37977e-08
4.76617e-08
6.39754e-09
4.74647e-08
6.08538e-09
1.06869e-08
2.84646e-08
6.71511e-09
1.01066e-08
4.04471e-08
1.27304e-08
1.59357e-08
5.89694e-08
6.95879e-09
2.27771e-08
2.86629e-08
2.21689e-08
1.57195e-08
5.09187e-08
4.43103e-09
4.00932e-08
8.28447e-09
2.55337e-08
2.90023e-08
1.86267e-08
2.26336e-08
6.52645e-08
7.54835e-09
8.01496e-08
1.23112e-08
2.45261e-08
3.87677e-08
8.55638e-09
1.85413e-08
6.07237e-09
6.7235e-08
5.91153e-09
2.73012e-08
4.02013e-08
1.43566e-08
1.77697e-08
4.19688e-08
4.06275e-09
6.91948e-08
7.53301e-09
3.3943e-08
1.95998e-08
2.23149e-08
2.89945e-09
6.54174e-08
4.38818e-09
3.25185e-08
4.10857e-08
9.59787e-09
2.09448e-08
2.9732e-08
2.04094e-08
1.9372e-08
4.77325e-08
2.67124e-09
5.10397e-08
6.55635e-09
2.39289e-08
3.71325e-08
1.52968e-08
2.16441e-08
7.06915e-08
4.46613e-09
1.14826e-07
3.33053e-09
3.82404e-08
3.12038e-08
1.28292e-08
2.2937e-08
1.23916e-08
5.09605e-08
1.52897e-08
5.23447e-09
6.81331e-08
5.85557e-09
3.34478e-08
2.84241e-08
3.2619e-09
5.94129e-08
6.65534e-09
2.88789e-08
2.03378e-08
1.96346e-08
2.65619e-09
7.03575e-08
4.8505e-09
5.43181e-08
3.06431e-08
2.16724e-08
1.99374e-08
5.16688e-08
1.13347e-08
3.62214e-08
2.11624e-08
3.76508e-09
4.20193e-08
7.86772e-09
1.70458e-08
3.80544e-08
1.5104e-08
2.22999e-08
6.62604e-08
2.89969e-09
1.25843e-07
1.54342e-09
4.422e-08
2.81126e-08
1.27802e-08
3.10957e-08
1.63992e-08
3.98028e-08
2.67067e-08
3.14609e-09
8.82914e-08
5.01783e-09
4.58861e-08
2.43624e-08
6.54057e-09
4.8016e-08
7.45543e-09
1.94721e-08
2.62256e-08
1.44048e-08
8.74832e-09
5.79602e-08
8.97699e-09
4.3064e-08
3.1479e-08
1.79722e-08
2.50617e-08
5.28568e-08
9.8991e-09
5.22097e-08
1.10958e-08
1.82115e-08
3.03343e-08
2.23768e-08
7.00347e-09
5.07774e-08
9.89669e-09
2.55856e-08
5.20133e-08
3.20456e-09
1.1957e-07
1.05418e-09
4.01225e-08
2.94203e-08
8.11777e-09
4.32197e-08
1.51455e-08
3.53196e-08
3.1114e-08
2.94995e-09
8.79935e-08
5.11576e-09
4.07414e-08
2.56585e-08
1.0394e-08
4.21278e-08
1.09988e-08
1.77482e-08
3.19853e-08
1.85057e-08
1.71632e-08
5.5298e-08
1.39686e-08
3.44953e-08
3.56147e-08
1.14491e-08
3.47641e-08
3.8247e-08
1.00919e-08
3.8995e-08
1.02913e-08
1.7021e-08
3.34826e-08
2.44239e-08
5.41853e-09
6.08252e-08
7.21545e-09
3.70725e-08
3.43414e-08
7.33634e-09
1.02653e-07
4.52212e-09
2.85381e-08
3.4509e-08
4.60271e-09
5.59974e-08
1.14721e-08
3.09855e-08
3.48504e-08
5.07642e-09
7.83159e-08
6.60381e-09
2.63683e-08
2.91736e-08
1.2762e-08
4.08074e-08
1.5351e-08
2.06851e-08
3.28933e-08
2.67129e-08
1.72392e-08
5.83723e-08
1.60813e-08
3.27407e-08
3.84408e-08
1.20451e-08
4.22174e-08
3.56347e-08
1.20589e-08
3.64017e-08
1.56164e-08
1.32991e-08
3.81376e-08
1.55437e-08
2.83973e-09
5.04476e-08
1.19861e-08
3.22966e-08
3.26682e-08
7.98386e-09
9.54581e-08
9.00758e-09
2.30647e-08
4.22848e-08
3.64945e-09
6.5666e-08
1.15119e-08
3.60898e-08
6.32639e-08
3.98859e-08
7.55229e-08
4.27007e-08
4.65637e-08
5.05417e-08
5.01748e-08
5.10911e-08
4.97471e-08
5.41517e-08
3.76109e-08
7.06329e-08
3.12209e-08
7.87695e-08
4.77063e-08
3.93516e-08
7.49438e-08
3.22904e-08
6.47264e-08
6.63307e-08
2.40007e-08
7.06422e-08
5.18263e-08
3.30489e-08
6.55384e-08
4.69176e-08
3.07357e-08
7.83409e-08
4.02841e-08
4.84403e-08
7.22955e-08
2.03011e-08
1.11428e-07
3.39757e-08
4.25316e-08
7.10646e-08
3.12021e-08
7.34001e-08
4.9127e-08
7.38128e-07
7.59398e-07
7.38988e-07
7.58792e-07
7.40645e-07
7.49622e-07
7.38953e-07
7.57872e-07
7.34218e-07
7.56968e-07
7.41337e-07
7.3724e-07
7.64305e-07
7.30011e-07
7.56216e-07
7.4709e-07
7.29627e-07
7.71864e-07
7.20895e-07
7.56213e-07
7.56605e-07
7.19961e-07
7.63627e-07
7.555e-07
7.25874e-07
7.66853e-07
7.44107e-07
7.38913e-07
7.7212e-07
7.3625e-07
7.47715e-07
7.73678e-07
7.15694e-07
7.91289e-07
7.31774e-07
7.46492e-07
7.68024e-07
7.35479e-07
7.59468e-07
7.53805e-07
7.24801e-06
7.22559e-06
7.22988e-06
7.23472e-06
7.20685e-06
7.24075e-06
7.18838e-06
7.25822e-06
7.16768e-06
7.27148e-06
7.16072e-06
7.26133e-06
7.18019e-06
7.24246e-06
7.18754e-06
7.23557e-06
7.18138e-06
7.24086e-06
7.17523e-06
7.23296e-06
7.20365e-06
7.21233e-06
7.21268e-06
7.25143e-06
7.17821e-06
7.27893e-06
7.19099e-06
7.26255e-06
7.22694e-06
7.25045e-06
7.23106e-06
7.27129e-06
7.21248e-06
7.28385e-06
7.21925e-06
7.24964e-06
7.25613e-06
7.22436e-06
7.26235e-06
7.22253e-06
3.31789e-05
3.30764e-05
3.31442e-05
3.30982e-05
3.30988e-05
3.31215e-05
3.30642e-05
3.31488e-05
3.30163e-05
3.31936e-05
3.29613e-05
3.32165e-05
3.29509e-05
3.31839e-05
3.29836e-05
3.31311e-05
3.30126e-05
3.31121e-05
3.30148e-05
3.31279e-05
3.30355e-05
3.31253e-05
3.30568e-05
3.31589e-05
3.30361e-05
3.32107e-05
3.30285e-05
3.32262e-05
3.30641e-05
3.32015e-05
3.31083e-05
3.31883e-05
3.31028e-05
3.32067e-05
3.30867e-05
3.31977e-05
3.31211e-05
3.31423e-05
3.31662e-05
3.30903e-05
8.0177e-05
8.00928e-05
8.01766e-05
8.00986e-05
8.01548e-05
8.00978e-05
8.01361e-05
8.00977e-05
8.00865e-05
8.01427e-05
7.99849e-05
8.02024e-05
7.992e-05
8.01988e-05
7.99435e-05
8.01383e-05
8.00003e-05
8.01154e-05
8.00247e-05
8.01481e-05
8.00285e-05
8.01573e-05
8.00615e-05
8.01629e-05
8.0075e-05
8.01986e-05
8.00545e-05
8.02484e-05
8.00495e-05
8.02431e-05
8.00908e-05
8.02042e-05
8.01103e-05
8.02253e-05
8.00772e-05
8.02605e-05
8.00708e-05
8.02225e-05
8.01259e-05
8.01413e-05
0.000129521
0.000129576
0.000129561
0.000129537
0.000129568
0.000129486
0.000129577
0.000129434
0.000129567
0.000129426
0.000129491
0.000129488
0.000129407
0.000129546
0.000129385
0.000129546
0.000129433
0.000129537
0.000129477
0.000129548
0.000129475
0.00012957
0.000129493
0.00012957
0.000129529
0.000129557
0.000129543
0.000129595
0.000129506
0.000129638
0.000129494
0.000129626
0.000129537
0.000129618
0.000129531
0.000129658
0.000129477
0.000129688
0.000129473
0.000129642
0.000169406
0.000169582
0.000169438
0.000169512
0.000169449
0.000169442
0.000169472
0.000169373
0.000169503
0.00016932
0.000169509
0.000169342
0.000169474
0.000169421
0.00016942
0.000169495
0.00016942
0.000169516
0.000169457
0.000169495
0.000169484
0.000169513
0.000169486
0.000169541
0.000169499
0.000169518
0.000169556
0.000169502
0.000169551
0.000169558
0.00016949
0.00016961
0.000169501
0.000169576
0.000169539
0.000169555
0.000169498
0.000169612
0.000169419
0.000169631
0.000200042
0.000200244
0.000200041
0.000200182
0.000200054
0.000200128
0.000200081
0.000200083
0.000200129
0.000200029
0.000200199
0.000200004
0.000200236
0.000200049
0.000200196
0.000200152
0.000200145
0.000200215
0.000200152
0.000200195
0.000200209
0.000200185
0.000200224
0.000200225
0.0002002
0.000200235
0.000200252
0.000200182
0.000200296
0.000200191
0.000200231
0.000200277
0.000200171
0.000200264
0.000200208
0.00020018
0.000200218
0.000200194
0.000200119
0.000200253
0.00022278
0.000222929
0.000222752
0.000222904
0.000222765
0.000222881
0.000222794
0.000222869
0.000222839
0.00022284
0.000222924
0.000222796
0.000223009
0.00022279
0.00022301
0.000222872
0.000222947
0.000222963
0.00022292
0.000222969
0.000222976
0.000222936
0.000223012
0.000222957
0.000222976
0.000222991
0.000222986
0.00022294
0.000223042
0.000222893
0.000223008
0.000222953
0.000222905
0.000222978
0.000222896
0.000222887
0.000222939
0.000222843
0.000222877
0.000222897
0.000238982
0.000239052
0.000238948
0.000239064
0.00023896
0.000239071
0.000238984
0.000239086
0.000239018
0.000239082
0.00023909
0.000239042
0.000239183
0.000239008
0.000239219
0.000239051
0.000239176
0.000239137
0.000239131
0.000239165
0.000239163
0.000239128
0.000239204
0.000239119
0.000239174
0.000239148
0.000239148
0.000239114
0.000239178
0.000239042
0.000239171
0.000239053
0.000239076
0.000239092
0.000239026
0.000239037
0.000239067
0.000238971
0.000239055
0.000239
0.000249866
0.000249873
0.000249843
0.000249906
0.000249853
0.000249931
0.00024987
0.000249962
0.000249891
0.000249975
0.000249943
0.000249948
0.000250022
0.000249908
0.00025007
0.00024992
0.000250051
0.00024998
0.000250006
0.000250012
0.000250011
0.000249979
0.000250039
0.000249951
0.000250016
0.000249958
0.000249976
0.000249934
0.000249975
0.000249868
0.000249976
0.000249847
0.000249914
0.000249878
0.000249857
0.000249861
0.000249881
0.000249811
0.000249899
0.000249821
0.000256473
0.000256446
0.000256467
0.000256482
0.000256478
0.000256514
0.000256488
0.000256551
0.000256497
0.000256572
0.000256531
0.000256556
0.000256588
0.000256522
0.00025663
0.000256516
0.000256625
0.000256546
0.000256586
0.000256568
0.000256574
0.000256539
0.000256584
0.000256503
0.000256563
0.000256492
0.000256524
0.00025647
0.000256506
0.000256422
0.000256505
0.000256395
0.000256475
0.000256412
0.000256435
0.00025642
0.000256448
0.000256398
0.000256475
0.000256404
0.000259676
0.000259636
0.000259683
0.000259667
0.000259697
0.000259696
0.000259704
0.000259733
0.000259703
0.000259756
0.000259721
0.000259746
0.00025976
0.000259718
0.000259787
0.000259705
0.000259784
0.000259712
0.000259752
0.000259719
0.000259731
0.000259691
0.000259726
0.000259655
0.000259705
0.000259636
0.000259674
0.000259614
0.000259655
0.000259586
0.000259652
0.000259568
0.000259643
0.000259578
0.000259627
0.000259594
0.000259638
0.000259594
0.000259663
0.000259605
0.000260199
0.000260156
0.000260213
0.00026018
0.000260228
0.000260202
0.000260233
0.000260232
0.000260226
0.000260254
0.000260232
0.000260245
0.000260255
0.00026022
0.000260267
0.000260205
0.000260259
0.000260199
0.000260232
0.000260193
0.000260209
0.000260166
0.000260197
0.000260135
0.000260177
0.000260116
0.000260155
0.000260097
0.000260144
0.000260083
0.000260142
0.000260078
0.000260144
0.000260087
0.000260147
0.000260104
0.000260161
0.000260116
0.000260182
0.000260133
0.00025863
0.00025859
0.000258646
0.000258606
0.00025866
0.000258621
0.000258664
0.000258643
0.000258654
0.000258659
0.000258651
0.00025865
0.000258662
0.000258626
0.000258663
0.00025861
0.000258648
0.000258597
0.000258624
0.000258585
0.000258602
0.00025856
0.000258589
0.000258535
0.000258573
0.000258521
0.000258559
0.000258508
0.000258557
0.000258503
0.000258559
0.000258509
0.000258567
0.000258521
0.00025858
0.000258535
0.000258598
0.00025855
0.000258615
0.00025857
0.000255449
0.000255412
0.000255464
0.000255422
0.000255477
0.00025543
0.00025548
0.000255444
0.000255467
0.000255454
0.000255457
0.000255443
0.000255459
0.000255419
0.000255454
0.000255403
0.000255434
0.000255389
0.000255411
0.000255374
0.000255392
0.000255352
0.000255382
0.000255334
0.00025537
0.000255327
0.000255364
0.000255321
0.00025537
0.000255322
0.000255377
0.000255335
0.000255386
0.000255349
0.000255403
0.000255361
0.000255423
0.000255375
0.000255438
0.000255395
0.000251045
0.000251009
0.000251057
0.000251015
0.000251067
0.000251017
0.000251068
0.000251024
0.000251054
0.000251028
0.00025104
0.000251016
0.000251037
0.000250991
0.000251027
0.000250976
0.000251004
0.000250964
0.000250983
0.000250949
0.000250968
0.000250931
0.000250962
0.000250919
0.000250955
0.000250919
0.000250954
0.000250918
0.000250966
0.000250923
0.000250976
0.00025094
0.000250985
0.000250956
0.000251003
0.000250964
0.000251024
0.000250976
0.000251037
0.000250994
0.000245726
0.000245693
0.000245735
0.000245695
0.000245743
0.000245693
0.000245742
0.000245694
0.000245727
0.000245694
0.000245711
0.00024568
0.000245705
0.000245655
0.000245692
0.000245641
0.000245668
0.000245632
0.000245649
0.000245618
0.000245639
0.000245604
0.000245638
0.000245598
0.000245634
0.000245604
0.000245638
0.000245607
0.000245653
0.000245614
0.000245664
0.000245632
0.000245673
0.000245648
0.000245689
0.000245655
0.000245711
0.000245663
0.000245722
0.00024568
0.00023975
0.000239718
0.000239758
0.000239717
0.000239763
0.000239712
0.00023976
0.000239711
0.000239744
0.000239708
0.000239728
0.00023969
0.00023972
0.000239667
0.000239705
0.000239655
0.00023968
0.000239648
0.000239664
0.000239636
0.00023966
0.000239624
0.000239661
0.000239625
0.000239659
0.000239634
0.000239667
0.000239639
0.000239685
0.000239648
0.000239696
0.000239667
0.000239703
0.000239682
0.000239719
0.000239686
0.00023974
0.000239693
0.000239748
0.000239708
0.000233276
0.000233246
0.000233284
0.000233242
0.000233288
0.000233237
0.000233281
0.000233234
0.000233265
0.000233228
0.000233251
0.000233208
0.000233243
0.000233187
0.000233225
0.000233179
0.0002332
0.000233173
0.000233188
0.00023316
0.000233188
0.000233151
0.000233189