/*--------------------------------*- C++ -*----------------------------------*\
  =========                 |
  \\      /  F ield         | OpenFOAM: The Open Source CFD Toolbox
   \\    /   O peration     | Website:  https://openfoam.org
    \\  /    A nd           | Version:  10
     \\/     M anipulation  |
\*---------------------------------------------------------------------------*/
FoamFile
{
    format      ascii;
    class       volSymmTensorField;
    location    "15";
    object      UPrime2Mean;
}
// * * * * * * * * * * * * * * * * * * * * * * * * * * * * * * * * * * * * * //

dimensions      [0 2 -2 0 0 0 0];

internalField   nonuniform List<symmTensor> 
25600
(
(2.93784e-06 -6.71472e-09 -7.51054e-10 4.38433e-10 2.44588e-11 1.5863e-12)
(2.9215e-06 -6.81025e-09 -3.44501e-10 2.70374e-10 1.39538e-11 7.64735e-13)
(2.93207e-06 -9.6117e-09 -1.05291e-09 2.34561e-10 1.67445e-11 1.47386e-12)
(2.93809e-06 -7.48814e-09 -1.15808e-09 1.81793e-10 1.42177e-11 1.38988e-12)
(2.93424e-06 -7.45834e-09 -1.33698e-09 1.5096e-10 1.33002e-11 1.56566e-12)
(2.94212e-06 -7.77134e-09 -1.73261e-09 1.33252e-10 1.2578e-11 1.80989e-12)
(2.94359e-06 -8.78436e-09 -1.92339e-09 1.22998e-10 1.17483e-11 1.84065e-12)
(2.95015e-06 -6.24925e-09 -2.11783e-09 9.32793e-11 9.62453e-12 2.11149e-12)
(2.95316e-06 -4.05221e-09 -2.22273e-09 7.15019e-11 7.43382e-12 2.06173e-12)
(2.95405e-06 -1.29405e-09 -2.22563e-09 5.6801e-11 4.9327e-12 2.10009e-12)
(2.95461e-06 -7.76595e-10 -2.31952e-09 5.2611e-11 4.2397e-12 2.13322e-12)
(2.95636e-06 -3.76159e-10 -2.24821e-09 4.47843e-11 2.36369e-12 1.90428e-12)
(2.96078e-06 2.2948e-10 -2.30698e-09 3.60777e-11 1.91628e-12 2.07628e-12)
(2.9631e-06 2.05967e-09 -2.18493e-09 3.54149e-11 8.58569e-13 1.86e-12)
(2.96536e-06 4.13762e-09 -2.04086e-09 3.00149e-11 -1.24076e-12 1.64853e-12)
(2.96373e-06 6.22227e-09 -1.76229e-09 2.50418e-11 -2.4793e-12 1.29149e-12)
(2.96012e-06 7.37606e-09 -1.46282e-09 2.38279e-11 -3.41096e-12 8.27764e-13)
(2.95564e-06 8.15316e-09 -1.22474e-09 2.4647e-11 -3.73318e-12 6.31743e-13)
(2.94801e-06 6.90943e-09 -9.51485e-10 1.80419e-11 -2.51704e-12 4.32934e-13)
(2.94707e-06 7.26241e-09 -5.36752e-10 2.3368e-11 -1.86679e-12 2.09256e-13)
(2.93428e-06 3.86297e-09 -3.73268e-10 6.88255e-12 -8.96598e-13 2.30632e-13)
(2.94476e-06 5.11645e-09 1.53881e-10 1.60174e-11 -3.42701e-13 1.06929e-13)
(2.92294e-06 6.53231e-10 1.3099e-10 4.23685e-12 -3.35951e-13 1.16355e-13)
(2.94812e-06 1.29129e-09 4.05789e-10 7.98526e-12 2.23066e-13 1.23913e-13)
(2.91831e-06 -1.9889e-10 1.84794e-10 2.03902e-11 1.85605e-13 4.78647e-14)
(2.94949e-06 -3.76647e-09 -5.92309e-11 1.54435e-11 8.61178e-13 8.75783e-14)
(2.92589e-06 -2.92464e-10 -2.40214e-10 2.9289e-11 1.99252e-12 1.7469e-13)
(2.94756e-06 -5.18211e-09 -1.01759e-09 2.84344e-11 2.71488e-12 4.30727e-13)
(2.93762e-06 -2.73602e-09 -1.26061e-09 3.44413e-11 3.55643e-12 8.22231e-13)
(2.94909e-06 -3.47287e-09 -1.83995e-09 4.32626e-11 4.90291e-12 1.42326e-12)
(2.94413e-06 -1.71375e-09 -2.16815e-09 4.86338e-11 3.54582e-12 1.84109e-12)
(2.94951e-06 -4.62632e-09 -2.52976e-09 6.9657e-11 8.63121e-12 2.74357e-12)
(2.95169e-06 1.89684e-09 -2.3063e-09 6.52038e-11 2.23634e-12 2.18165e-12)
(2.94324e-06 -4.11374e-09 -2.68439e-09 8.33334e-11 8.98148e-12 3.06565e-12)
(2.95811e-06 1.03748e-09 -2.11176e-09 1.17498e-10 7.85035e-12 2.38872e-12)
(2.93731e-06 -3.8073e-09 -2.12947e-09 1.51247e-10 1.13051e-11 2.29737e-12)
(2.96561e-06 3.75583e-09 -1.21601e-09 1.86199e-10 1.09218e-11 1.75387e-12)
(2.92317e-06 -5.41176e-09 -1.47968e-09 2.64086e-10 1.76594e-11 2.11545e-12)
(2.97542e-06 2.17333e-09 5.0968e-11 4.08738e-10 3.15636e-11 2.96926e-12)
(2.91095e-06 1.89652e-08 8.6134e-10 5.1642e-10 3.08187e-11 2.15719e-12)
(2.48494e-06 -4.55727e-09 1.11442e-10 1.85912e-11 -3.76713e-12 2.31057e-12)
(2.46821e-06 -4.21616e-09 9.26756e-10 1.30647e-11 -3.8161e-12 1.81545e-12)
(2.46897e-06 -5.94986e-09 2.13836e-10 1.85866e-11 -1.88568e-12 1.04709e-12)
(2.47093e-06 -5.26773e-09 -1.6088e-10 1.51467e-11 -5.96072e-13 6.43187e-13)
(2.46683e-06 -6.06499e-09 -4.83712e-10 1.8481e-11 2.78208e-13 6.53206e-13)
(2.4726e-06 -4.98408e-09 -1.01922e-09 1.64023e-11 1.37866e-12 8.62848e-13)
(2.47001e-06 -6.20148e-09 -1.25079e-09 2.4498e-11 1.90929e-12 9.97852e-13)
(2.47132e-06 -3.62516e-09 -1.6379e-09 1.14168e-11 1.51921e-12 1.64144e-12)
(2.47153e-06 -3.42539e-09 -2.07072e-09 1.18211e-11 2.36589e-12 1.97315e-12)
(2.47336e-06 -7.01322e-10 -2.26311e-09 7.41925e-12 1.15024e-13 2.33037e-12)
(2.47421e-06 2.33458e-10 -2.58287e-09 9.4589e-12 2.36667e-14 2.82647e-12)
(2.47438e-06 1.61995e-09 -2.36278e-09 1.37527e-11 -1.74395e-12 2.51037e-12)
(2.47384e-06 3.31889e-09 -2.49433e-09 1.04868e-11 -2.79328e-12 2.92165e-12)
(2.47029e-06 4.4074e-09 -2.35078e-09 1.80774e-11 -2.956e-12 2.49409e-12)
(2.46811e-06 5.8879e-09 -2.29376e-09 1.98882e-11 -4.94465e-12 2.5479e-12)
(2.46486e-06 6.42726e-09 -2.10674e-09 1.96341e-11 -4.63956e-12 2.28608e-12)
(2.4632e-06 7.25451e-09 -1.89725e-09 2.34253e-11 -5.38183e-12 1.69376e-12)
(2.46036e-06 6.56817e-09 -1.7437e-09 1.88545e-11 -4.67277e-12 1.71784e-12)
(2.45978e-06 6.91205e-09 -1.29889e-09 2.13231e-11 -4.05526e-12 9.12877e-13)
(2.45584e-06 5.11222e-09 -1.01787e-09 1.31085e-11 -2.59646e-12 7.70243e-13)
(2.45645e-06 4.99544e-09 -4.90753e-10 1.43037e-11 -1.51756e-12 3.91256e-13)
(2.45197e-06 3.0686e-09 -9.46928e-11 8.66942e-12 -9.0643e-13 2.26304e-13)
(2.45336e-06 1.50105e-09 2.77534e-10 5.35647e-12 -1.52243e-13 1.93535e-13)
(2.45278e-06 5.66855e-10 4.5722e-10 8.12188e-12 -2.28918e-13 1.55422e-13)
(2.45058e-06 -1.48138e-09 4.40672e-10 6.62818e-12 -7.41504e-13 1.90994e-13)
(2.45811e-06 -2.73708e-09 4.11686e-10 8.14217e-12 -2.56954e-13 1.41006e-13)
(2.45243e-06 -3.05914e-09 5.68787e-11 1.01667e-11 1.96751e-13 1.07671e-13)
(2.46398e-06 -4.50771e-09 -5.04481e-10 1.12934e-11 1.00766e-12 2.03925e-13)
(2.4599e-06 -4.25504e-09 -8.60288e-10 9.50424e-12 1.71926e-12 4.83913e-13)
(2.46788e-06 -3.8377e-09 -1.3708e-09 9.23134e-12 2.08116e-12 1.00492e-12)
(2.46768e-06 -2.41287e-09 -1.94712e-09 7.83236e-12 1.5938e-12 1.88351e-12)
(2.46998e-06 -2.95188e-09 -1.95002e-09 8.94613e-12 2.00481e-12 1.97185e-12)
(2.46771e-06 -1.30404e-10 -2.29017e-09 1.83839e-12 -1.70234e-13 2.66079e-12)
(2.47212e-06 -1.8494e-09 -2.32084e-09 4.1266e-12 2.35728e-12 2.99148e-12)
(2.46713e-06 -9.22227e-11 -2.12431e-09 7.78559e-12 7.1905e-13 2.74613e-12)
(2.46823e-06 -1.44737e-09 -1.56199e-09 1.08579e-11 6.64364e-13 2.05828e-12)
(2.46793e-06 -2.83593e-10 -1.39549e-09 1.1317e-11 -2.17291e-13 2.21866e-12)
(2.46643e-06 -2.56547e-09 -6.00036e-10 1.57217e-11 -1.73571e-12 2.33788e-12)
(2.46509e-06 -1.40727e-09 4.15781e-10 1.23915e-11 -2.1038e-12 2.08974e-12)
(2.46205e-06 -2.83181e-10 -6.57136e-10 9.61764e-12 -2.16891e-12 2.46869e-12)
(2.51865e-06 -4.64256e-09 1.08377e-09 2.03811e-11 -7.54775e-12 3.86145e-12)
(2.50511e-06 -4.94145e-09 1.81778e-09 1.67205e-11 -6.32306e-12 3.68922e-12)
(2.50644e-06 -6.33208e-09 1.09883e-09 2.02467e-11 -4.87403e-12 2.15808e-12)
(2.50916e-06 -6.04319e-09 4.73519e-10 1.90792e-11 -2.47085e-12 1.11813e-12)
(2.50585e-06 -7.10927e-09 2.01893e-10 2.51564e-11 -1.68277e-12 1.07046e-12)
(2.51108e-06 -5.03102e-09 -7.13773e-10 2.1135e-11 9.60327e-13 1.10675e-12)
(2.5097e-06 -7.56935e-09 -1.07415e-09 3.81189e-11 1.37415e-12 1.11958e-12)
(2.51213e-06 -3.177e-09 -1.82159e-09 1.20452e-11 1.91568e-12 2.3649e-12)
(2.51242e-06 -4.87086e-09 -2.48665e-09 2.02178e-11 4.18904e-12 2.80978e-12)
(2.51529e-06 -2.0095e-10 -2.79197e-09 1.18775e-11 -8.601e-13 3.65283e-12)
(2.51481e-06 -1.69423e-12 -3.3872e-09 1.96307e-11 6.01014e-13 4.83535e-12)
(2.51588e-06 2.20249e-09 -2.9861e-09 2.82784e-11 -3.07244e-12 4.22615e-12)
(2.51487e-06 4.69765e-09 -3.39363e-09 1.63649e-11 -4.75098e-12 5.74727e-12)
(2.51091e-06 5.24349e-09 -3.06336e-09 3.26443e-11 -3.24959e-12 4.32265e-12)
(2.50849e-06 7.54193e-09 -3.09049e-09 3.18885e-11 -8.39068e-12 4.86737e-12)
(2.50457e-06 7.48464e-09 -2.7888e-09 2.91926e-11 -6.449e-12 4.41016e-12)
(2.50217e-06 8.76684e-09 -2.65954e-09 3.7991e-11 -8.54553e-12 3.29906e-12)
(2.49895e-06 7.34439e-09 -2.44166e-09 2.65486e-11 -7.16111e-12 3.595e-12)
(2.49762e-06 8.26515e-09 -1.83329e-09 3.28522e-11 -6.72518e-12 1.72294e-12)
(2.49328e-06 5.13978e-09 -1.50474e-09 1.73364e-11 -3.39884e-12 1.68906e-12)
(2.49396e-06 6.51147e-09 -6.78186e-10 2.81547e-11 -2.42456e-12 6.91878e-13)
(2.48757e-06 2.31974e-09 -2.12668e-10 1.08856e-11 -1.08508e-12 5.04833e-13)
(2.49074e-06 2.13991e-09 5.29662e-10 1.20745e-11 1.97191e-13 3.30608e-13)
(2.48823e-06 -1.97449e-10 5.65931e-10 1.31673e-11 -7.6375e-13 3.58067e-13)
(2.4874e-06 -2.2943e-09 9.68149e-10 9.21308e-12 -1.48554e-12 6.4867e-13)
(2.49447e-06 -3.38411e-09 7.93426e-10 1.73769e-11 -8.76603e-13 3.89156e-13)
(2.49024e-06 -4.66241e-09 4.6713e-10 1.61079e-11 -1.01232e-12 2.70078e-13)
(2.50095e-06 -5.64136e-09 -2.28396e-10 2.01022e-11 6.86941e-13 1.47924e-13)
(2.49933e-06 -6.19401e-09 -7.29869e-10 1.81799e-11 1.80844e-12 3.6687e-13)
(2.50832e-06 -4.62218e-09 -1.24585e-09 1.53106e-11 1.74625e-12 9.97994e-13)
(2.50709e-06 -2.85844e-09 -2.15128e-09 1.74128e-11 1.91161e-12 2.44438e-12)
(2.51066e-06 -3.22258e-09 -2.05962e-09 2.00651e-11 1.76191e-12 2.20166e-12)
(2.50729e-06 6.03192e-10 -2.6674e-09 7.18449e-12 -4.11475e-13 3.9633e-12)
(2.511e-06 -1.94962e-09 -2.59396e-09 8.71695e-12 4.42729e-12 4.15472e-12)
(2.50605e-06 9.15953e-10 -2.4992e-09 9.58339e-12 -3.11502e-14 4.06787e-12)
(2.50682e-06 -1.36669e-09 -1.43392e-09 1.71808e-11 1.29551e-12 2.65903e-12)
(2.50607e-06 -1.64135e-10 -1.44203e-09 2.15095e-11 -3.53834e-13 3.15011e-12)
(2.50416e-06 -2.36211e-09 1.79181e-11 2.23826e-11 -5.53012e-12 3.28238e-12)
(2.50694e-06 -2.15102e-09 9.52946e-10 1.506e-11 -4.82805e-12 2.87392e-12)
(2.4991e-06 -8.89586e-10 -8.71576e-11 1.16736e-11 -4.46811e-12 2.89984e-12)
(2.48118e-06 -5.33707e-09 2.33561e-09 3.399e-11 -1.1275e-11 7.40431e-12)
(2.46803e-06 -5.51981e-09 2.85468e-09 3.26691e-11 -5.89448e-12 6.97047e-12)
(2.46946e-06 -6.34156e-09 2.26245e-09 3.45457e-11 -7.99267e-12 4.78283e-12)
(2.47213e-06 -6.52203e-09 1.12964e-09 3.05384e-11 -4.21613e-12 2.28819e-12)
(2.4708e-06 -7.49091e-09 9.78045e-10 4.40439e-11 -3.27571e-12 2.47707e-12)
(2.47442e-06 -4.23523e-09 -5.57514e-10 3.21282e-11 1.75639e-12 2.07774e-12)
(2.47501e-06 -8.71803e-09 -9.58474e-10 5.76536e-11 1.0962e-12 1.57446e-12)
(2.47757e-06 -1.54882e-09 -2.26058e-09 1.77379e-11 3.09212e-12 4.00672e-12)
(2.47839e-06 -6.96907e-09 -3.10345e-09 3.81227e-11 8.25547e-12 4.4478e-12)
(2.48332e-06 1.74887e-09 -3.59713e-09 2.25954e-11 -4.26195e-12 6.49855e-12)
(2.48076e-06 -3.61731e-10 -4.48377e-09 4.45894e-11 2.32342e-12 8.89518e-12)
(2.48413e-06 3.94572e-09 -3.74724e-09 6.36192e-11 -5.86532e-12 7.27824e-12)
(2.48099e-06 6.81332e-09 -4.56057e-09 3.76738e-11 -9.33549e-12 1.15122e-11)
(2.47678e-06 6.02655e-09 -3.81423e-09 6.17125e-11 -2.37679e-12 7.17772e-12)
(2.4738e-06 9.93399e-09 -4.03255e-09 5.37728e-11 -1.54057e-11 9.15739e-12)
(2.46906e-06 7.92371e-09 -3.50229e-09 4.90077e-11 -7.58195e-12 8.20876e-12)
(2.46576e-06 1.05089e-08 -3.55705e-09 6.80724e-11 -1.34349e-11 5.9055e-12)
(2.46258e-06 7.28681e-09 -3.23758e-09 4.05217e-11 -1.02331e-11 6.97487e-12)
(2.45985e-06 9.29113e-09 -2.47014e-09 5.41274e-11 -1.06292e-11 3.1571e-12)
(2.45645e-06 4.14037e-09 -2.13616e-09 2.82287e-11 -3.15794e-12 3.49271e-12)
(2.45584e-06 8.05928e-09 -8.9346e-10 5.93503e-11 -3.06544e-12 1.34081e-12)
(2.44818e-06 1.96876e-10 -3.89157e-10 2.52214e-11 -2.31729e-13 1.24951e-12)
(2.45326e-06 3.04899e-09 8.10912e-10 3.11723e-11 1.24224e-12 5.87309e-13)
(2.44815e-06 -1.95893e-09 6.71872e-10 2.75933e-11 -1.5681e-12 1.07672e-12)
(2.44943e-06 -3.37187e-09 1.63957e-09 1.99276e-11 -2.69356e-12 1.82811e-12)
(2.4562e-06 -3.97843e-09 1.13071e-09 4.97499e-11 -1.47224e-12 9.28385e-13)
(2.45216e-06 -7.06226e-09 9.61217e-10 3.82773e-11 -2.81658e-12 9.53175e-13)
(2.46358e-06 -6.8149e-09 -7.54383e-11 4.35184e-11 5.08375e-13 2.31606e-13)
(2.46395e-06 -9.27077e-09 -7.09839e-10 4.99013e-11 3.24901e-12 5.04485e-13)
(2.47508e-06 -5.15274e-09 -1.26928e-09 3.49797e-11 1.26456e-12 1.47268e-12)
(2.47236e-06 -3.99928e-09 -2.70542e-09 5.10508e-11 4.93186e-12 4.51221e-12)
(2.47732e-06 -3.00144e-09 -2.36393e-09 5.08999e-11 1.5598e-12 3.14454e-12)
(2.47208e-06 1.19159e-09 -3.35674e-09 3.33475e-11 1.41273e-12 7.66275e-12)
(2.47543e-06 -1.96886e-09 -3.09199e-09 4.20589e-11 1.18503e-11 7.0163e-12)
(2.47034e-06 2.21801e-09 -3.09065e-09 1.99936e-11 -1.94837e-12 7.14756e-12)
(2.46955e-06 -1.525e-09 -1.24176e-09 3.32049e-11 6.5661e-12 4.55263e-12)
(2.46892e-06 -1.01673e-10 -1.4978e-09 4.49683e-11 2.41666e-12 5.44469e-12)
(2.4665e-06 -2.77183e-09 9.21818e-10 3.89142e-11 -1.1258e-11 5.45976e-12)
(2.4698e-06 -3.22869e-09 1.77668e-09 2.81124e-11 -8.07279e-12 4.45947e-12)
(2.46092e-06 -3.89828e-09 8.44456e-10 2.92979e-11 -8.06942e-12 4.25047e-12)
(2.44184e-06 -5.82836e-09 3.99532e-09 9.08262e-11 -2.58613e-11 1.52126e-11)
(2.42878e-06 -5.84929e-09 4.0349e-09 8.50925e-11 -6.77176e-12 1.21003e-11)
(2.43011e-06 -6.56223e-09 3.727e-09 8.78792e-11 -1.61574e-11 1.0561e-11)
(2.43276e-06 -7.33672e-09 1.70493e-09 7.80641e-11 -9.09909e-12 4.51804e-12)
(2.43419e-06 -7.90776e-09 1.85598e-09 9.73319e-11 -3.81327e-12 5.5069e-12)
(2.43469e-06 -3.75193e-09 -6.316e-10 8.9519e-11 4.9344e-12 4.64616e-12)
(2.43881e-06 -1.06121e-08 -9.71969e-10 1.28161e-10 3.92258e-12 2.61486e-12)
(2.44011e-06 3.84804e-10 -3.14137e-09 6.33274e-11 7.34553e-12 7.74289e-12)
(2.44279e-06 -1.08397e-08 -4.09485e-09 1.05812e-10 1.93069e-11 7.95636e-12)
(2.45018e-06 5.15104e-09 -4.85713e-09 7.16736e-11 -1.1153e-11 1.25736e-11)
(2.44398e-06 -2.29385e-09 -5.96809e-09 1.32411e-10 9.38352e-12 1.70799e-11)
(2.45169e-06 6.63001e-09 -4.72863e-09 1.64208e-10 -1.15464e-11 1.27206e-11)
(2.44396e-06 8.42896e-09 -6.09539e-09 9.66168e-11 -1.50763e-11 2.36956e-11)
(2.4413e-06 6.08937e-09 -4.56842e-09 1.46937e-10 5.5037e-12 1.16598e-11)
(2.43745e-06 1.31484e-08 -5.21539e-09 1.11113e-10 -2.87527e-11 1.7396e-11)
(2.43168e-06 7.60702e-09 -4.22537e-09 1.03993e-10 -4.48467e-12 1.52416e-11)
(2.42778e-06 1.3381e-08 -4.69547e-09 1.51153e-10 -2.17231e-11 1.03324e-11)
(2.42382e-06 6.93514e-09 -4.13471e-09 8.92508e-11 -1.56613e-11 1.32564e-11)
(2.41986e-06 1.04632e-08 -3.30005e-09 1.10609e-10 -1.71858e-11 6.2573e-12)
(2.41813e-06 3.07134e-09 -2.95382e-09 6.83882e-11 -2.71015e-12 7.06822e-12)
(2.41484e-06 9.58941e-09 -1.15274e-09 1.35948e-10 -1.6645e-12 3.14435e-12)
(2.40688e-06 -2.6249e-09 -7.07579e-10 8.57717e-11 3.51737e-12 3.61371e-12)
(2.41377e-06 4.43167e-09 1.12341e-09 7.94769e-11 4.00812e-12 1.11552e-12)
(2.40531e-06 -5.08405e-09 7.04958e-10 5.89305e-11 -2.19983e-12 3.47472e-12)
(2.41037e-06 -3.79477e-09 2.5652e-09 5.09351e-11 -5.19661e-12 4.87767e-12)
(2.41512e-06 -5.32033e-09 1.47403e-09 1.31759e-10 -2.61241e-12 2.40163e-12)
(2.41201e-06 -9.49147e-09 1.58057e-09 9.92085e-11 -5.69239e-12 3.12966e-12)
(2.42342e-06 -8.57194e-09 -9.01494e-11 1.07025e-10 -2.86399e-13 5.8593e-13)
(2.42744e-06 -1.35345e-08 -7.52642e-10 1.34813e-10 7.40737e-12 1.21215e-12)
(2.44105e-06 -5.20337e-09 -1.53707e-09 9.06236e-11 1.1825e-12 2.8902e-12)
(2.43585e-06 -6.0601e-09 -3.64565e-09 1.57366e-10 1.33283e-11 9.76333e-12)
(2.44353e-06 -2.12397e-09 -2.94111e-09 1.47002e-10 1.06481e-12 5.71083e-12)
(2.43439e-06 2.10722e-09 -4.49223e-09 1.13311e-10 7.67771e-12 1.72708e-11)
(2.43844e-06 -2.31461e-09 -3.84193e-09 1.39131e-10 2.9024e-11 1.32294e-11)
(2.43269e-06 4.54954e-09 -3.91985e-09 6.54046e-11 -9.23952e-12 1.41423e-11)
(2.42982e-06 -2.58e-09 -9.02076e-10 1.05772e-10 2.19024e-11 1.02111e-11)
(2.43009e-06 1.18076e-09 -1.60382e-09 1.3808e-10 8.26744e-12 1.10708e-11)
(2.42607e-06 -3.70452e-09 2.36887e-09 1.19787e-10 -2.53138e-11 1.02399e-11)
(2.43102e-06 -4.06769e-09 2.71758e-09 9.8098e-11 -1.39472e-11 7.31068e-12)
(2.42168e-06 -4.47301e-09 2.37004e-09 9.22215e-11 -2.01564e-11 8.64361e-12)
(2.40588e-06 -6.97181e-09 6.15445e-09 2.50223e-10 -5.98421e-11 3.38577e-11)
(2.39288e-06 -5.74667e-09 5.33898e-09 2.37249e-10 -2.15588e-12 2.0165e-11)
(2.39331e-06 -7.03124e-09 5.69284e-09 2.5255e-10 -3.515e-11 2.41631e-11)
(2.39641e-06 -8.18274e-09 2.08569e-09 2.2062e-10 -1.78835e-11 8.89429e-12)
(2.40122e-06 -8.07456e-09 2.8594e-09 2.50073e-10 2.15718e-12 1.15853e-11)
(2.39714e-06 -3.1017e-09 -1.07788e-09 2.46208e-10 1.38366e-11 1.17796e-11)
(2.40647e-06 -1.2128e-08 -1.20004e-09 2.92654e-10 1.78439e-11 5.40648e-12)
(2.40376e-06 2.97404e-09 -4.66347e-09 2.16034e-10 1.61401e-11 1.7076e-11)
(2.41117e-06 -1.62481e-08 -5.61897e-09 2.95541e-10 4.58297e-11 1.66258e-11)
(2.42075e-06 1.09561e-08 -6.75213e-09 2.25739e-10 -2.73456e-11 2.60847e-11)
(2.40979e-06 -6.0394e-09 -7.90754e-09 3.55202e-10 2.81385e-11 3.39681e-11)
(2.42439e-06 1.2065e-08 -5.992e-09 4.19172e-10 -2.47268e-11 2.23352e-11)
(2.40754e-06 9.64628e-09 -8.04712e-09 2.55917e-10 -2.33025e-11 4.86664e-11)
(2.40974e-06 6.44363e-09 -5.21538e-09 3.66329e-10 2.59805e-11 1.88673e-11)
(2.40314e-06 1.78642e-08 -6.69726e-09 2.67856e-10 -5.4697e-11 3.36799e-11)
(2.39668e-06 6.10981e-09 -4.81202e-09 2.59799e-10 1.04645e-11 2.82095e-11)
(2.39251e-06 1.81126e-08 -6.11441e-09 3.71459e-10 -3.53064e-11 1.78971e-11)
(2.38648e-06 5.04262e-09 -5.10528e-09 2.38036e-10 -2.20332e-11 2.51765e-11)
(2.38266e-06 1.19809e-08 -4.38042e-09 2.68337e-10 -2.81864e-11 1.37221e-11)
(2.38296e-06 1.05374e-09 -4.07285e-09 1.88091e-10 -8.58924e-14 1.43921e-11)
(2.37595e-06 1.07822e-08 -1.4169e-09 3.22109e-10 6.52825e-12 8.81494e-12)
(2.36893e-06 -6.41261e-09 -1.39362e-09 2.69514e-10 1.61041e-11 1.07752e-11)
(2.37706e-06 6.10186e-09 1.44381e-09 1.99878e-10 1.19847e-11 2.44904e-12)
(2.36478e-06 -1.00023e-08 6.25988e-10 1.48251e-10 -2.47291e-12 1.11517e-11)
(2.3757e-06 -3.43121e-09 3.81962e-09 1.32218e-10 -1.07857e-11 1.30225e-11)
(2.37578e-06 -7.55967e-09 1.83866e-09 3.31354e-10 -3.33159e-12 7.0541e-12)
(2.3746e-06 -1.19687e-08 2.30684e-09 2.5969e-10 -8.67887e-12 9.97527e-12)
(2.38495e-06 -1.10669e-08 -2.66325e-10 2.75571e-10 -3.43939e-12 1.84642e-12)
(2.39499e-06 -1.93308e-08 -8.35105e-10 3.53181e-10 1.87742e-11 3.38863e-12)
(2.4108e-06 -4.63724e-09 -2.10955e-09 2.40209e-10 4.05464e-12 6.37732e-12)
(2.40305e-06 -9.87133e-09 -5.00908e-09 4.34732e-10 3.72361e-11 2.20484e-11)
(2.41428e-06 5.24761e-10 -3.89865e-09 3.77697e-10 -3.80041e-12 1.20231e-11)
(2.39839e-06 2.19688e-09 -6.25002e-09 3.19174e-10 2.86366e-11 4.04479e-11)
(2.40556e-06 -2.18917e-09 -4.85622e-09 3.96045e-10 6.63334e-11 2.65783e-11)
(2.39711e-06 7.43149e-09 -5.09027e-09 2.01741e-10 -2.7136e-11 3.01207e-11)
(2.39265e-06 -4.73516e-09 -3.44353e-10 3.08062e-10 6.47432e-11 2.64369e-11)
(2.39426e-06 3.77329e-09 -1.72842e-09 3.75174e-10 2.20081e-11 2.47805e-11)
(2.38723e-06 -5.99283e-09 4.45061e-09 3.2665e-10 -5.16982e-11 2.14082e-11)
(2.39533e-06 -4.812e-09 3.738e-09 2.98904e-10 -1.60852e-11 1.3951e-11)
(2.38512e-06 -5.44532e-09 4.48238e-09 2.78306e-10 -4.40561e-11 2.26001e-11)
(2.3738e-06 -7.9759e-09 8.72775e-09 6.4015e-10 -1.37709e-10 7.43788e-11)
(2.36007e-06 -4.63855e-09 6.77623e-09 6.30144e-10 1.28077e-11 3.21243e-11)
(2.3585e-06 -7.88126e-09 8.15327e-09 6.90814e-10 -8.46639e-11 5.34909e-11)
(2.3632e-06 -8.65015e-09 1.92321e-09 6.08355e-10 -3.30579e-11 1.66789e-11)
(2.37159e-06 -8.29735e-09 3.94263e-09 6.4764e-10 2.53963e-11 2.28663e-11)
(2.36197e-06 -2.15727e-09 -2.1209e-09 6.4555e-10 3.57981e-11 3.17618e-11)
(2.37779e-06 -1.30336e-08 -1.80283e-09 7.04637e-10 6.50628e-11 1.37906e-11)
(2.36765e-06 5.32603e-09 -7.15852e-09 6.3726e-10 3.64499e-11 4.16695e-11)
(2.38453e-06 -2.32931e-08 -7.91774e-09 7.87332e-10 1.07883e-10 3.98579e-11)
(2.3944e-06 1.89653e-08 -9.4641e-09 6.44429e-10 -5.94278e-11 5.66796e-11)
(2.37849e-06 -1.24935e-08 -1.02538e-08 8.79414e-10 7.25122e-11 6.85963e-11)
(2.40228e-06 2.11174e-08 -7.61091e-09 1.02029e-09 -5.16685e-11 3.95562e-11)
(2.37065e-06 9.05334e-09 -1.02432e-08 6.2978e-10 -2.12932e-11 9.73028e-11)
(2.38339e-06 7.72887e-09 -5.62772e-09 9.03691e-10 7.30956e-11 3.14991e-11)
(2.37032e-06 2.35425e-08 -8.54055e-09 6.51177e-10 -9.7127e-11 6.58865e-11)
(2.36502e-06 3.26273e-09 -5.01317e-09 6.67866e-10 5.46226e-11 5.14006e-11)
(2.36002e-06 2.56273e-08 -7.92422e-09 9.3509e-10 -5.59142e-11 3.17761e-11)
(2.35021e-06 8.37e-10 -6.06161e-09 6.60508e-10 -2.47736e-11 4.8286e-11)
(2.34895e-06 1.46929e-08 -5.85885e-09 6.88941e-10 -4.57793e-11 3.24663e-11)
(2.35038e-06 -2.40434e-09 -5.47321e-09 5.26195e-10 8.83215e-12 2.9215e-11)
(2.3395e-06 1.18637e-08 -1.7858e-09 7.71283e-10 2.77076e-11 2.5698e-11)
(2.3347e-06 -1.07852e-08 -2.56496e-09 7.37702e-10 5.06516e-11 3.07362e-11)
(2.34244e-06 7.6589e-09 1.7654e-09 4.92466e-10 3.32838e-11 6.47597e-12)
(2.32721e-06 -1.67912e-08 4.00666e-10 4.0568e-10 -5.01332e-12 3.39261e-11)
(2.34549e-06 -1.93247e-09 5.6233e-09 3.44961e-10 -2.56807e-11 3.5318e-11)
(2.33791e-06 -1.12963e-08 2.34107e-09 7.6236e-10 -2.3873e-12 2.26637e-11)
(2.34025e-06 -1.36179e-08 3.03593e-09 6.44178e-10 -1.19693e-11 3.09004e-11)
(2.34727e-06 -1.50196e-08 -6.33672e-10 7.05413e-10 -1.46096e-11 6.81412e-12)
(2.36739e-06 -2.66251e-08 -1.01058e-09 8.65286e-10 4.46402e-11 9.29859e-12)
(2.38388e-06 -3.68072e-09 -3.08951e-09 6.14871e-10 1.73893e-11 1.49745e-11)
(2.37459e-06 -1.56906e-08 -6.87073e-09 1.09208e-09 9.58053e-11 4.96675e-11)
(2.38981e-06 5.98541e-09 -5.35516e-09 9.19606e-10 -2.31062e-11 2.65627e-11)
(2.36353e-06 6.20574e-10 -8.72553e-09 8.05802e-10 8.30461e-11 9.13686e-11)
(2.37736e-06 -6.91524e-10 -6.20126e-09 9.57238e-10 1.3245e-10 5.45223e-11)
(2.36277e-06 1.00133e-08 -6.66605e-09 5.40618e-10 -6.09319e-11 6.49361e-11)
(2.35898e-06 -7.8167e-09 5.62734e-10 8.1523e-10 1.70433e-10 6.76209e-11)
(2.36128e-06 8.05494e-09 -1.85785e-09 9.45575e-10 4.55506e-11 5.57334e-11)
(2.34958e-06 -1.03026e-08 7.2387e-09 8.39136e-10 -9.96172e-11 4.58626e-11)
(2.36375e-06 -4.92501e-09 4.72579e-09 8.25387e-10 3.9383e-12 3.01478e-11)
(2.35126e-06 -6.74358e-09 7.41671e-09 7.59575e-10 -8.86616e-11 6.07125e-11)
(2.34617e-06 -8.40748e-09 1.18937e-08 1.49346e-09 -3.01101e-10 1.60551e-10)
(2.32975e-06 -2.90684e-09 8.12456e-09 1.56652e-09 4.22869e-11 4.71186e-11)
(2.32564e-06 -9.31127e-09 1.09796e-08 1.75461e-09 -2.07856e-10 1.13098e-10)
(2.33322e-06 -8.36084e-09 7.50589e-10 1.55442e-09 -5.27092e-11 3.21409e-11)
(2.34525e-06 -9.1876e-09 5.02835e-09 1.59724e-09 8.81606e-11 4.41416e-11)
(2.32994e-06 -4.67518e-11 -4.03587e-09 1.54557e-09 8.60212e-11 8.72237e-11)
(2.35203e-06 -1.30558e-08 -3.07649e-09 1.68655e-09 1.93819e-10 3.95573e-11)
(2.33115e-06 6.89443e-09 -1.10478e-08 1.68927e-09 8.50482e-11 1.05249e-10)
(2.36375e-06 -3.1301e-08 -1.12808e-08 1.93228e-09 2.42554e-10 1.03699e-10)
(2.37037e-06 2.88372e-08 -1.30561e-08 1.61119e-09 -1.13931e-10 1.25463e-10)
(2.35137e-06 -2.14796e-08 -1.29986e-08 1.98209e-09 1.56867e-10 1.42199e-10)
(2.38528e-06 3.48164e-08 -9.67935e-09 2.36894e-09 -1.1005e-10 7.26234e-11)
(2.3326e-06 5.69463e-09 -1.26449e-08 1.48674e-09 1.59895e-11 1.88008e-10)
(2.36303e-06 1.15209e-08 -5.70474e-09 2.0635e-09 1.69354e-10 5.76366e-11)
(2.3375e-06 2.95018e-08 -1.06684e-08 1.49055e-09 -1.55928e-10 1.27891e-10)
(2.33764e-06 -2.55531e-10 -4.41475e-09 1.61856e-09 1.54842e-10 9.07625e-11)
(2.32935e-06 3.63971e-08 -1.02312e-08 2.25366e-09 -8.07027e-11 5.98507e-11)
(2.31442e-06 -6.60558e-09 -6.9628e-09 1.74546e-09 -9.96328e-12 9.57616e-11)
(2.31897e-06 1.95798e-08 -7.90754e-09 1.69929e-09 -6.24102e-11 7.66612e-11)
(2.31974e-06 -8.81855e-09 -7.10956e-09 1.38185e-09 4.09535e-11 5.94502e-11)
(2.30647e-06 1.35479e-08 -2.16151e-09 1.78983e-09 7.17061e-11 7.02184e-11)
(2.30375e-06 -1.58402e-08 -4.6327e-09 1.81139e-09 1.35615e-10 8.08949e-11)
(2.30944e-06 8.20525e-09 2.10677e-09 1.18919e-09 8.48516e-11 2.04176e-11)
(2.29334e-06 -2.52069e-08 5.90821e-11 1.11115e-09 -1.84805e-11 9.79684e-11)
(2.31951e-06 1.5444e-10 8.33681e-09 8.89084e-10 -6.25909e-11 9.83046e-11)
(2.30194e-06 -1.62526e-08 3.13769e-09 1.62335e-09 5.93275e-13 7.33925e-11)
(2.30874e-06 -1.3528e-08 3.63245e-09 1.52104e-09 -2.2371e-11 9.55269e-11)
(2.30949e-06 -2.12767e-08 -1.15497e-09 1.73653e-09 -4.73589e-11 2.57584e-11)
(2.34514e-06 -3.5171e-08 -1.39026e-09 1.97194e-09 9.61087e-11 2.59934e-11)
(2.35985e-06 -3.12345e-09 -4.48243e-09 1.46324e-09 5.61424e-11 3.85381e-11)
(2.35207e-06 -2.34067e-08 -9.20372e-09 2.48314e-09 2.22043e-10 1.12791e-10)
(2.36955e-06 1.51651e-08 -7.57126e-09 2.10624e-09 -8.27065e-11 5.99541e-11)
(2.3294e-06 -3.69029e-09 -1.20558e-08 1.87596e-09 1.97019e-10 1.92744e-10)
(2.35402e-06 3.59769e-09 -7.8963e-09 2.0325e-09 2.2367e-10 1.12338e-10)
(2.32852e-06 1.08479e-08 -8.74259e-09 1.26821e-09 -1.10204e-10 1.37012e-10)
(2.33007e-06 -1.09235e-08 1.95494e-09 1.91735e-09 4.01267e-10 1.58737e-10)
(2.3302e-06 1.37257e-08 -2.00647e-09 2.17992e-09 7.51485e-11 1.20737e-10)
(2.31314e-06 -1.75044e-08 1.06848e-08 2.00463e-09 -1.78873e-10 9.71148e-11)
(2.33673e-06 -3.76178e-09 5.75637e-09 2.02734e-09 1.00453e-10 7.33885e-11)
(2.31963e-06 -9.66232e-09 1.13958e-08 1.84557e-09 -1.64064e-10 1.5728e-10)
(2.32403e-06 -7.02449e-09 1.56461e-08 3.16468e-09 -6.15829e-10 3.44368e-10)
(2.30125e-06 -1.33555e-09 9.24408e-09 3.56241e-09 6.91781e-11 7.02185e-11)
(2.29519e-06 -1.10191e-08 1.38573e-08 4.09615e-09 -4.81463e-10 2.26747e-10)
(2.30626e-06 -7.73825e-09 -1.7867e-09 3.69429e-09 -7.26398e-11 6.92689e-11)
(2.32266e-06 -1.14589e-08 6.04724e-09 3.64326e-09 2.35499e-10 8.62165e-11)
(2.30199e-06 4.37623e-09 -7.00026e-09 3.42648e-09 1.93635e-10 2.33567e-10)
(2.32803e-06 -1.29158e-08 -5.28522e-09 3.90894e-09 5.03029e-10 1.1619e-10)
(2.29454e-06 7.16434e-09 -1.67483e-08 4.14981e-09 2.11829e-10 2.62257e-10)
(2.34952e-06 -4.00822e-08 -1.59135e-08 4.44979e-09 5.22053e-10 2.74267e-10)
(2.34803e-06 3.93601e-08 -1.72706e-08 3.58737e-09 -1.70575e-10 2.78958e-10)
(2.32977e-06 -3.22661e-08 -1.59694e-08 4.07801e-09 2.81706e-10 3.08604e-10)
(2.37243e-06 5.28806e-08 -1.20422e-08 5.17225e-09 -2.26951e-10 1.48798e-10)
(2.29369e-06 -1.29274e-09 -1.52596e-08 3.4482e-09 1.44719e-10 3.5475e-10)
(2.34955e-06 1.86601e-08 -5.37972e-09 4.40318e-09 3.64333e-10 1.17938e-10)
(2.30384e-06 3.42929e-08 -1.27848e-08 3.10666e-09 -2.06141e-10 2.41642e-10)
(2.31609e-06 -2.74061e-09 -2.55621e-09 3.55902e-09 3.5429e-10 1.56769e-10)
(2.29937e-06 5.00813e-08 -1.31261e-08 5.07256e-09 -9.35716e-11 1.27272e-10)
(2.27974e-06 -1.75802e-08 -7.74883e-09 4.27583e-09 5.76721e-11 1.99628e-10)
(2.2927e-06 2.75165e-08 -1.05053e-08 3.91214e-09 -4.09099e-11 1.71089e-10)
(2.29076e-06 -1.96604e-08 -8.58833e-09 3.29946e-09 1.29311e-10 1.21933e-10)
(2.27848e-06 1.74287e-08 -2.49366e-09 3.90344e-09 1.4781e-10 1.77095e-10)
(2.27509e-06 -2.24518e-08 -7.75414e-09 4.08776e-09 3.15245e-10 2.00813e-10)
(2.27819e-06 7.15948e-09 2.47687e-09 2.8236e-09 2.00867e-10 7.20557e-11)
(2.26381e-06 -3.5217e-08 -2.10648e-10 2.91452e-09 -5.32535e-11 2.70651e-10)
(2.29795e-06 1.9553e-09 1.26113e-08 2.17344e-09 -1.28734e-10 2.74665e-10)
(2.26913e-06 -2.15384e-08 4.68327e-09 3.23584e-09 7.79008e-12 2.33047e-10)
(2.27939e-06 -1.13687e-08 3.99047e-09 3.43589e-09 -6.51026e-11 2.92953e-10)
(2.27088e-06 -3.07488e-08 -1.80474e-09 4.08696e-09 -1.28231e-10 9.6636e-11)
(2.32871e-06 -4.50464e-08 -2.08415e-09 4.25997e-09 1.90042e-10 7.5441e-11)
(2.33846e-06 -4.03713e-09 -6.097e-09 3.18144e-09 1.58042e-10 1.08626e-10)
(2.33734e-06 -3.22682e-08 -1.19027e-08 5.11586e-09 4.62804e-10 2.68442e-10)
(2.35278e-06 2.82686e-08 -1.07455e-08 4.55769e-09 -2.4202e-10 1.43698e-10)
(2.29644e-06 -1.13107e-08 -1.64108e-08 4.1011e-09 3.80765e-10 3.84206e-10)
(2.33549e-06 1.15876e-08 -1.01213e-08 3.90383e-09 2.92682e-10 2.37913e-10)
(2.29367e-06 8.13186e-09 -1.12726e-08 2.6388e-09 -1.61783e-10 2.78329e-10)
(2.30745e-06 -1.22746e-08 4.14374e-09 3.98734e-09 8.4652e-10 3.38449e-10)
(2.29958e-06 1.96745e-08 -2.19016e-09 4.60702e-09 8.71507e-11 2.58138e-10)
(2.27886e-06 -2.76432e-08 1.45268e-08 4.51931e-09 -2.94911e-10 2.06314e-10)
(2.31455e-06 -1.1297e-09 6.90053e-09 4.59101e-09 3.89115e-10 1.85156e-10)
(2.29027e-06 -1.52875e-08 1.65788e-08 4.03185e-09 -2.75023e-10 3.92273e-10)
(2.30804e-06 -2.4784e-09 2.00972e-08 6.14825e-09 -1.16306e-09 7.76345e-10)
(2.27376e-06 -1.73033e-09 9.75772e-09 7.3669e-09 3.32507e-11 1.49046e-10)
(2.26778e-06 -1.21564e-08 1.61674e-08 8.71859e-09 -1.00354e-09 4.5378e-10)
(2.28212e-06 -8.21511e-09 -6.15819e-09 8.2518e-09 -6.39571e-11 1.76028e-10)
(2.30566e-06 -1.50179e-08 6.78691e-09 7.69573e-09 5.76848e-10 1.80488e-10)
(2.2789e-06 1.25119e-08 -1.12639e-08 7.04503e-09 4.14825e-10 6.15049e-10)
(2.30463e-06 -1.42116e-08 -8.8298e-09 8.48803e-09 1.19597e-09 3.48392e-10)
(2.25903e-06 6.32933e-09 -2.48799e-08 9.51043e-09 5.39483e-10 6.47495e-10)
(2.34222e-06 -5.0165e-08 -2.16811e-08 9.83912e-09 1.09522e-09 7.18984e-10)
(2.328e-06 4.98665e-08 -2.15331e-08 7.38704e-09 -1.21698e-10 6.29273e-10)
(2.31537e-06 -4.34082e-08 -1.85678e-08 7.74387e-09 4.16545e-10 7.1876e-10)
(2.36275e-06 7.40273e-08 -1.43948e-08 1.05418e-08 -4.52327e-10 3.82913e-10)
(2.25516e-06 -1.1557e-08 -1.80103e-08 7.84725e-09 4.47095e-10 6.85416e-10)
(2.34316e-06 2.91791e-08 -4.35184e-09 9.01409e-09 7.69338e-10 2.73767e-10)
(2.26972e-06 3.66193e-08 -1.42954e-08 6.01566e-09 -1.55924e-10 4.48471e-10)
(2.30198e-06 -1.63577e-09 1.32107e-09 7.05755e-09 7.44181e-10 2.83628e-10)
(2.26852e-06 6.49831e-08 -1.65806e-08 1.05122e-08 -5.12457e-11 3.31227e-10)
(2.24747e-06 -3.11618e-08 -8.57884e-09 9.66438e-09 2.55746e-10 4.56553e-10)
(2.26988e-06 3.8175e-08 -1.3461e-08 8.4627e-09 1.19432e-10 3.6563e-10)
(2.26435e-06 -3.59719e-08 -9.14506e-09 7.15706e-09 3.35331e-10 2.62292e-10)
(2.25698e-06 2.56453e-08 -2.41748e-09 7.90579e-09 2.80248e-10 4.25825e-10)
(2.24738e-06 -3.25921e-08 -1.21375e-08 8.60578e-09 6.63765e-10 4.99859e-10)
(2.24972e-06 4.55905e-09 3.00566e-09 6.53117e-09 4.7535e-10 2.65572e-10)
(2.23907e-06 -4.73358e-08 1.28147e-10 7.26692e-09 -8.43486e-11 7.3366e-10)
(2.2818e-06 2.7513e-09 1.96699e-08 5.02022e-09 -1.71682e-10 7.71124e-10)
(2.24105e-06 -2.53011e-08 7.7383e-09 6.11999e-09 6.61477e-11 7.30657e-10)
(2.25121e-06 -8.01773e-09 4.11704e-09 7.38972e-09 -1.69243e-10 9.00447e-10)
(2.23148e-06 -4.41372e-08 -2.5207e-09 9.18588e-09 -2.82771e-10 3.60397e-10)
(2.31865e-06 -5.68063e-08 -3.13192e-09 8.91375e-09 3.74058e-10 2.32976e-10)
(2.32064e-06 -7.8033e-09 -7.37715e-09 6.38966e-09 4.17937e-10 3.19377e-10)