# y+ ()       
# Time        	patch         	min           	max           	average       
4             	bottomWall	2.993786e+00	5.006776e+00	3.657222e+00
4             	topWall	2.700083e+00	5.548593e+00	3.681543e+00
