# y+ ()       
# Time        	patch         	min           	max           	average       
55            	bottomWall	1.044446e+00	6.375678e+00	3.400735e+00
55            	topWall	1.478409e+00	6.370954e+00	3.207079e+00
