/*--------------------------------*- C++ -*----------------------------------*\
  =========                 |
  \\      /  F ield         | OpenFOAM: The Open Source CFD Toolbox
   \\    /   O peration     | Website:  https://openfoam.org
    \\  /    A nd           | Version:  10
     \\/     M anipulation  |
\*---------------------------------------------------------------------------*/
FoamFile
{
    format      ascii;
    class       volVectorField;
    location    "32.5";
    object      U_0;
}
// * * * * * * * * * * * * * * * * * * * * * * * * * * * * * * * * * * * * * //

dimensions      [0 1 -1 0 0 0 0];

internalField   nonuniform List<vector> 
25600
(
(1.23967 -0.0416634 0.259334)
(0.883697 -0.024322 0.21833)
(1.17462 0.0444826 0.153126)
(1.2718 0.216131 -0.184409)
(1.13383 0.156549 -0.0437109)
(1.33711 0.118821 -0.00775681)
(1.12886 0.112958 -0.0294991)
(1.27567 -0.0623261 0.443472)
(1.07787 0.0511176 0.327916)
(0.955801 -0.0287786 0.0226132)
(0.965985 -0.0287854 0.175576)
(0.96023 -0.0560632 0.419466)
(1.19621 -0.24398 0.37608)
(0.988473 0.191807 -0.0656295)
(0.986995 0.200264 -0.0446243)
(1.31969 0.14583 0.250412)
(1.03367 -0.0327803 0.218995)
(1.28196 0.112035 -0.0573028)
(1.02546 0.223701 -0.310167)
(1.17031 -0.0571039 0.227682)
(1.41844 -0.0440614 0.220768)
(1.44564 0.224965 -0.190633)
(1.16581 0.127843 0.00877388)
(1.11305 -0.145709 0.28744)
(0.921338 0.0689244 0.167435)
(0.999558 0.269938 -0.000594976)
(1.16788 -0.0500626 0.278935)
(0.953008 -0.138084 0.300285)
(1.10386 0.203781 -0.00650792)
(0.918819 -0.15438 0.202259)
(1.3668 -0.16208 0.417107)
(1.45651 0.0582663 0.0252416)
(1.10906 0.111895 -0.181651)
(0.966144 0.0252866 0.0099858)
(0.964977 -0.286294 0.509585)
(1.40887 -0.176298 0.0874001)
(1.17192 0.368164 -0.252293)
(1.13299 0.176124 0.194199)
(0.946388 -0.0345566 -0.0431764)
(1.08643 -0.105436 0.0934463)
(1.2091 -0.00766693 0.137592)
(1.12971 0.149933 0.127977)
(1.34385 -0.0506645 0.103796)
(1.14446 0.303265 -0.0765476)
(1.38396 0.31145 -0.0843634)
(1.40099 0.0510232 -0.0343351)
(1.34108 0.178787 0.0134222)
(1.7012 0.217791 0.0620236)
(1.28595 0.161548 0.0366814)
(1.59821 0.306908 0.0767867)
(1.41018 0.337321 0.0830179)
(1.2679 0.0712584 0.0742494)
(1.09495 0.12733 0.133455)
(0.966279 0.126117 -0.00975227)
(1.339 -0.324209 0.0445708)
(1.36001 0.115226 0.220853)
(1.05526 0.200465 0.141201)
(0.770855 0.000975413 0.108986)
(0.934906 0.386004 -0.163488)
(1.22989 0.218457 -0.0621832)
(1.66317 0.00721776 0.188675)
(1.35326 0.171315 0.0264218)
(1.07707 0.115777 -0.103959)
(1.43503 0.011243 -0.0767286)
(1.26158 0.0206012 0.169824)
(1.2683 0.102927 0.127569)
(1.41407 0.0997062 0.100403)
(0.957535 0.108565 -0.0632465)
(1.68219 0.415556 -0.170662)
(1.46304 0.308064 -0.0658104)
(0.863712 -0.105765 0.0987216)
(1.16925 0.246347 0.222842)
(1.19215 0.187945 0.0173772)
(1.23356 -0.0891759 -0.0451789)
(1.19589 0.0521613 0.183552)
(0.85763 0.381283 0.210599)
(1.07276 0.322495 0.0583446)
(1.47276 0.15331 0.0656709)
(0.872322 0.481237 0.00314132)
(1.09066 0.229017 0.0123544)
(1.05122 -0.0602987 0.090076)
(1.19328 0.0463729 0.11942)
(1.23743 -0.0413042 0.216966)
(0.9059 0.0252082 0.163474)
(1.52283 0.362666 -0.0607286)
(1.50439 0.329248 0.127291)
(1.43241 -0.10018 0.232393)
(1.46305 0.0562155 0.060972)
(1.20131 -6.32885e-05 -0.0381894)
(0.924448 -0.18587 0.115185)
(1.29195 0.318688 0.118353)
(1.52106 0.376993 0.0300233)
(0.963127 -0.0113837 0.12658)
(1.13692 0.0605491 0.0989284)
(1.14173 -0.0380075 0.0828449)
(1.53361 0.249019 0.0140524)
(1.33152 0.246154 0.113315)
(0.629032 -0.196121 0.36334)
(1.07834 -0.228922 0.145727)
(1.10399 -0.246922 0.0150763)
(1.04665 -0.024871 0.0811682)
(1.10587 0.308552 0.0699638)
(1.24628 0.337938 0.0864239)
(1.454 0.0921677 0.0925833)
(1.31811 0.115194 0.0699915)
(1.49704 0.011566 -0.0115409)
(1.22522 0.0721866 0.0335347)
(1.24847 0.0263113 0.0582355)
(1.27149 0.037977 0.107306)
(1.45315 0.483262 0.0531705)
(1.03018 -0.098671 -0.0221027)
(0.806845 -0.344621 0.143469)
(1.62163 0.120449 0.0205769)
(1.02774 -0.0156376 0.00252591)
(1.00751 0.134891 0.133114)
(0.654045 0.28155 0.0901224)
(1.0904 0.114854 -0.0185931)
(0.970523 0.060831 0.045471)
(0.503038 -0.0141527 0.146757)
(1.42435 -0.15109 0.0663702)
(1.17987 -0.0330458 0.092233)
(1.22691 0.112557 0.120239)
(0.961469 0.104467 0.0219907)
(1.16507 0.120108 0.0937951)
(1.34406 0.0740965 0.0536247)
(1.29525 0.0522437 0.0478729)
(1.75049 0.33708 -0.013021)
(1.52866 0.180918 -0.00662112)
(1.19395 0.0633472 -0.0341964)
(1.42788 0.500747 -0.0848502)
(1.35581 0.177254 -0.0408981)
(1.37795 0.23514 0.0796046)
(1.49403 0.265252 0.144049)
(1.23586 -0.147004 0.0297789)
(1.70042 -0.0414177 -0.0466051)
(1.16103 -0.110095 0.044835)
(0.991741 0.0933789 0.106363)
(1.29203 0.185911 0.0858887)
(1.44901 0.264522 0.0192305)
(1.03579 0.0717017 0.0388066)
(1.02386 -0.180724 0.130606)
(1.36393 0.118432 -0.0297093)
(1.53391 0.219094 -0.039129)
(1.22234 0.0846722 0.0722175)
(1.06673 -0.0189187 -0.00830198)
(1.10489 -0.0759509 0.0489317)
(1.3771 0.169921 0.129922)
(1.4005 0.245445 -0.020025)
(1.27437 0.171414 0.00341368)
(1.32457 0.190635 -0.0410726)
(1.29203 -0.0304745 -0.0811537)
(1.15464 -0.25266 0.0308548)
(1.4241 -0.0551629 -0.069666)
(1.26662 0.018548 0.0734958)
(0.916793 0.0830367 0.160745)
(0.980002 0.243424 0.000424883)
(1.14531 0.209798 0.130359)
(0.966007 0.334816 0.208364)
(1.18276 0.279045 0.0382194)
(1.1502 -0.0596757 -0.0665739)
(1.40916 0.174305 0.0980893)
(0.845789 0.271435 0.117551)
(0.966925 0.00993865 0.0741644)
(1.01369 -0.0651696 0.0316073)
(1.27415 0.192504 0.13055)
(0.837087 -0.0920708 0.248284)
(0.771361 -0.153198 0.127708)
(1.52961 0.262366 0.092206)
(0.9436 0.362731 0.0961615)
(1.30341 0.0867718 0.00654845)
(1.63776 -0.226668 -0.044369)
(1.28488 -0.119429 0.0247414)
(1.68296 -0.00963987 0.0814971)
(1.3996 0.0640902 0.0415503)
(1.28553 0.0972221 0.0482049)
(1.10924 0.268563 0.0428054)
(1.01619 0.235839 -0.0370331)
(0.726365 -0.15007 0.0894948)
(0.914094 0.173884 0.0181613)
(1.86116 0.201084 -0.126875)
(1.27962 -0.236883 0.0759132)
(1.18452 0.0111055 0.118227)
(1.35806 0.152844 0.100509)
(1.12948 0.0947126 0.112998)
(1.00473 0.18084 0.0760288)
(1.11161 0.129735 0.0298977)
(1.0787 -0.163938 -0.00541536)
(1.28859 0.0858097 -0.0350827)
(1.34699 0.171574 -0.00824787)
(1.36318 0.0983811 -0.0306177)
(1.08346 0.0574485 0.0722218)
(1.25929 -0.126691 0.131916)
(1.08952 0.0284548 -0.0990106)
(1.21118 0.272041 -0.0312467)
(1.16573 0.498882 0.0524209)
(1.00928 0.331372 0.0105887)
(1.24334 0.307825 -0.000276315)
(1.16882 0.242406 -0.087236)
(0.991989 -0.179032 0.0434257)
(1.04726 -0.115892 0.0916893)
(0.680026 -0.0599831 0.0141333)
(1.30241 0.0690959 -0.0893462)
(1.49576 0.0970039 0.0405589)
(1.07121 0.0045784 -0.00711347)
(1.37148 0.0417916 -0.0180257)
(1.34678 0.129508 0.123666)
(1.09157 -0.129682 0.0857026)
(1.06487 -0.119515 0.0295554)
(1.40164 0.0851082 -0.0480673)
(1.29077 -0.0366068 -0.0875732)
(1.35098 0.185273 0.0174834)
(1.03555 0.0991029 0.114368)
(0.573372 -0.240982 -0.037024)
(1.28068 0.139757 -0.0530595)
(1.08608 0.172163 0.0694897)
(0.895055 0.130285 -0.0449872)
(1.26178 0.258425 -0.153377)
(1.01039 -0.0687635 0.01273)
(0.743512 -0.253913 0.159245)
(1.37454 -0.00875619 0.100084)
(1.36824 0.208745 0.116037)
(1.11248 0.224472 0.0703666)
(1.20417 0.132307 -0.0977072)
(1.17012 0.0240974 -0.0533331)
(1.08241 -0.0289558 0.0817484)
(1.65898 -0.0726556 0.0720931)
(1.42442 0.086782 0.100011)
(0.988528 0.247855 0.0327348)
(1.20989 0.0169759 0.0115147)
(1.0625 0.0658078 -0.0176298)
(0.818117 0.0505094 0.0666552)
(0.935367 -0.121745 0.150402)
(1.25607 0.127864 0.0137707)
(1.36238 0.0154622 0.0529607)
(1.14964 0.0599889 0.0686995)
(1.4137 0.39496 0.0159151)
(1.48336 0.169665 -0.0563495)
(1.61585 0.1492 -0.0837281)
(1.19813 0.426879 0.0446124)
(0.744629 0.0528302 0.0650269)
(1.00797 0.127602 0.11637)
(1.20611 0.03026 -0.0256376)
(1.34755 0.230794 -0.0680991)
(1.42595 0.121445 -0.0763257)
(1.33893 0.146014 -0.0345383)
(1.37801 0.0915975 0.00353415)
(1.29081 -0.0942363 -0.0231178)
(0.902186 0.0828476 -0.0231972)
(1.54994 0.160474 -0.0815505)
(1.55812 0.0672602 -0.0758109)
(0.963564 -0.0693647 -0.0178333)
(1.82148 0.287473 0.0370743)
(1.06114 0.207974 0.0543132)
(0.841121 -0.0570802 0.0927896)
(1.47911 0.229179 0.1126)
(1.0644 0.164154 -0.0942624)
(1.378 0.115852 -0.0280906)
(1.32911 0.116795 0.0798075)
(1.09804 -0.0184172 0.00390028)
(1.22952 0.122541 0.0541454)
(1.18371 0.154375 0.0999207)
(1.15076 0.150735 0.0795143)
(1.53864 0.00142482 0.0195845)
(1.24211 -0.0123364 -0.0252466)
(1.19552 -0.0068117 -0.00330099)
(1.36292 -0.125196 0.00608382)
(0.935265 0.0302787 0.039063)
(1.30976 0.196735 -0.0475977)
(1.44183 0.14606 -0.114024)
(1.10764 0.23226 -0.0469802)
(1.0734 0.0767928 0.0560534)
(0.844702 -0.209559 0.0886267)
(1.25988 -0.0509785 0.0611593)
(1.36274 0.179201 0.0666049)
(0.798929 0.298255 0.015694)
(1.49743 0.369857 0.098681)
(1.22793 0.113021 0.106147)
(0.704576 0.269428 -0.025664)
(1.35459 0.379546 -0.00470293)
(1.73827 0.264052 0.093872)
(1.27115 0.234613 0.0238305)
(1.2297 -0.0490944 -0.0424693)
(1.45056 0.120337 -0.143903)
(1.72233 0.149917 -0.0524729)
(1.09674 0.0724145 0.0639287)
(1.22218 0.067632 0.132491)
(1.31049 0.151916 0.0597156)
(1.00795 0.051878 -0.0676112)
(1.45118 -0.18342 -0.130743)
(1.25524 0.0549514 -0.126075)
(1.30783 0.0196141 0.0321616)
(1.55 -0.0394271 0.062843)
(0.999737 0.231068 -0.0428233)
(0.989464 0.0596076 0.0462353)
(1.12036 0.0585921 0.0699158)
(1.07211 0.117281 -0.0428211)
(1.42843 0.179604 0.0334199)
(1.47775 0.202449 0.00332492)
(1.28042 -0.103053 -0.10401)
(1.43514 -0.172084 0.0341378)
(1.3311 0.142701 0.0106592)
(1.27258 0.0855417 -0.065785)
(1.24982 -0.0654234 -0.00775652)
(1.03575 0.159845 0.0391522)
(1.2298 0.121375 0.0379874)
(1.27219 0.194232 -0.00819838)
(1.17121 0.20506 0.0646066)
(1.3902 0.110482 0.0478358)
(1.49087 0.100504 -0.0289202)
(1.49089 0.18671 0.0389585)
(1.54215 0.208632 -0.0377218)
(1.41673 0.0310244 -0.0789379)
(1.14725 -0.0495633 -0.0605531)
(1.29043 0.12002 -0.0282166)
(1.05058 0.176596 0.0366447)
(1.72648 0.165585 -0.0110558)
(1.72039 0.281433 -0.0442437)
(0.989526 0.325779 -0.0260533)
(1.28053 -0.0844182 0.0533674)
(1.34591 0.0403527 0.0771768)
(1.53722 0.352674 0.0542494)
(1.1361 0.00822354 -0.076762)
(1.02684 -0.101401 -0.111213)
(1.58575 0.151906 -0.133592)
(1.37306 0.236671 -0.0196775)
(1.23624 0.0122641 0.0339986)
(1.13883 0.0801853 -0.162745)
(1.14541 -0.00225425 -0.105177)
(1.38011 0.0501195 -0.00995413)
(1.34269 0.10667 -0.062124)
(1.00636 -0.0902785 -0.0129974)
(1.04442 0.301682 -0.0183846)
(0.81339 0.252834 -0.109453)
(0.760846 -0.0237982 -0.131097)
(1.0112 0.243533 -0.0265896)
(1.09233 0.142409 0.00546131)
(1.21801 0.0359494 0.0319991)
(1.59224 0.216004 0.0726211)
(1.59154 0.113881 -0.0720207)
(1.30026 0.0795499 -0.0846791)
(1.23464 0.195331 0.0329374)
(1.86099 0.181741 0.0117899)
(1.37716 -0.00886027 -0.0259676)
(0.976536 -0.0370322 -0.0721232)
(0.91319 -0.0516107 -0.123161)
(1.28001 -0.049709 0.0110811)
(1.33313 -0.0621422 0.130549)
(0.882822 -0.124359 0.017869)
(1.38386 0.0579325 -0.114831)
(1.30918 0.137786 -0.124751)
(0.885336 -0.0305489 -0.128321)
(1.15263 -0.00757771 0.102623)
(1.25375 0.042626 0.160288)
(1.33046 0.174614 -0.00377041)
(1.01155 0.091069 -0.0322594)
(1.0853 -0.062786 -0.0795007)
(1.58882 0.35767 -0.0348916)
(1.25785 0.390568 0.0587965)
(1.23554 0.0355404 0.070219)
(1.42777 0.307971 0.103902)
(1.24369 0.265139 -0.0186993)
(1.63816 0.28317 -0.0288578)
(1.39102 0.0945206 -0.00202964)
(1.05661 -0.00300079 -0.0839473)
(1.55824 0.138478 -0.0736598)
(1.06533 0.108629 -0.0412308)
(0.640573 0.170458 -0.172604)
(1.36447 -0.0119687 -0.14295)
(1.26266 -0.190927 -0.0371378)
(1.32834 0.135129 -0.0466467)
(0.71395 0.190933 0.0351692)
(0.770177 0.31318 0.134566)
(1.3665 0.458239 0.117784)
(1.14338 0.186673 0.0026999)
(1.22955 0.132825 0.0105855)
(1.3024 0.133889 -0.0232187)
(1.31369 0.0297012 0.0445017)
(1.80764 0.0763041 0.0907719)
(1.52852 0.0642354 -0.0374191)
(1.38559 -0.00803649 -0.0801546)
(1.30485 -0.121147 -0.0551243)
(1.29366 -0.0869449 -0.0391117)
(1.2888 0.215699 0.00437191)
(1.20985 0.383017 -0.0304115)
(1.06258 0.103997 -0.106415)
(1.19028 -0.00984245 -0.00760929)
(1.29266 0.170781 0.079809)
(1.20274 -0.0159538 -0.0959388)
(1.41684 -0.0833426 -0.153314)
(1.43705 0.174756 -0.116099)
(1.2615 0.212684 -0.0800088)
(1.26115 0.0778967 0.0171223)
(1.31139 -0.0718922 0.00189475)
(1.28345 0.150186 -0.0470646)
(1.26853 0.174295 0.0116041)
(1.01366 0.0394536 -0.0354974)
(1.19692 0.485563 0.00200147)
(0.99653 0.322685 0.023219)
(0.900655 -0.10321 -0.0399979)
(1.02312 0.0721454 0.0140782)
(1.23325 0.12852 0.0100905)
(1.26854 0.0660828 -0.130831)
(1.58213 0.109262 -0.0357663)
(1.23324 0.032157 0.0075953)
(1.13629 0.124674 -0.0537982)
(1.07274 0.318083 -0.0896287)
(0.916426 0.040628 -0.131519)
(1.31563 -0.199276 -0.0793028)
(1.12085 -0.0306271 0.0231154)
(1.05727 0.31653 0.00876024)
(0.977815 0.196966 0.0250639)
(1.07887 0.00890074 0.0444022)
(1.56561 0.0753289 -0.017533)
(1.4295 0.125667 -0.105357)
(1.26816 0.114406 -0.0540872)
(1.2099 0.141077 -0.0351269)
(1.20438 -0.0314177 -0.0411142)
(1.30613 0.0931081 -0.135183)
(1.43732 0.272369 -0.184128)
(1.32215 0.230336 -0.101049)
(1.12587 0.200948 -0.0337035)
(1.08968 0.216357 -0.0228007)
(0.937113 0.153659 -0.00904165)
(1.08194 0.190568 -0.0311066)
(1.45521 0.0870154 -0.00359738)
(0.990554 -0.0714812 -0.0189267)
(1.1506 -0.0199323 -0.0503729)
(1.62541 -0.0733396 -0.088624)
(1.2938 0.0532854 -0.0656396)
(1.50176 0.139999 -0.0571787)
(1.38054 0.00883463 -0.049872)
(1.23991 0.105145 0.00228698)
(1.12693 0.173826 -0.0406618)
(1.21866 0.298341 -0.0158065)
(1.41997 0.219888 0.0343306)
(1.19981 -0.0264381 -0.0956692)
(1.17109 0.286524 0.0569221)
(1.60713 0.309284 0.0898503)
(0.991059 0.0362811 -0.0822899)
(0.96255 0.146723 0.0338825)
(1.72472 0.0884478 -0.000859878)
(1.27612 0.0510929 -0.121824)
(1.63185 0.12013 -0.0889195)
(1.37976 0.170759 -0.0190728)
(1.04084 0.223379 -0.0690198)
(1.1615 0.247975 -0.0961669)
(1.17818 0.0309162 -0.0245979)
(1.25114 -0.0862251 -0.0242965)
(0.779694 -0.0664378 -0.00622871)
(1.32521 0.191903 0.0449888)
(1.31499 0.131173 -0.0486664)
(0.892473 -0.00941703 -0.00676747)
(1.39473 0.262113 -0.0909654)
(1.55928 0.305739 -0.0699877)
(1.20151 0.23062 0.00458459)
(1.31183 0.11291 -0.0973808)
(1.62387 0.0473637 -0.0432328)
(1.17178 0.216523 -0.0759557)
(1.08898 0.255352 -0.0652353)
(1.23524 0.213493 -0.0365141)
(1.38468 0.0278725 -0.0442851)
(1.36108 0.0111108 -0.0343897)
(1.55607 0.143013 0.0455083)
(1.40251 0.0378817 0.0415553)
(1.47978 0.0343573 0.0391827)
(1.30846 0.113006 0.11004)
(1.43865 -0.0134601 -0.0381317)
(1.42739 -0.0372152 -0.0982619)
(1.39986 0.113583 -0.0212572)
(1.5888 0.143264 -0.0319589)
(0.770359 0.109878 -0.0121109)
(0.758993 0.19555 -0.00823073)
(0.761838 0.0900405 -0.073483)
(1.05082 0.081135 -0.0343953)
(1.51993 0.100017 0.0433768)
(0.944468 0.021429 -0.13277)
(1.05799 0.22067 -0.0928491)
(1.72876 0.347864 0.029075)
(1.16022 0.261321 -0.0221218)
(1.4439 0.116071 0.0112884)
(1.57484 0.131933 -0.0179877)
(1.05171 -0.00352093 -0.138785)
(1.24837 -0.0398627 -0.185104)
(1.09299 0.208488 -0.0683924)
(1.04237 0.22184 -0.00692294)
(1.35138 0.288304 -0.0125056)
(1.34767 0.0552247 -0.047699)
(1.23479 0.0239183 -0.0673014)
(1.06255 0.00253258 -0.0231269)
(1.25416 0.108326 -0.0749802)
(1.56986 0.264902 -0.0854595)
(0.931878 -0.0824096 0.00097225)
(1.00092 0.0320028 -0.102229)
(1.57834 0.292691 -0.0391242)
(1.43174 0.283726 0.0310547)
(1.35572 0.0824348 -0.0628038)
(1.08643 0.0120951 -0.11723)
(0.971135 0.357196 0.0102675)
(1.16804 0.279202 0.0105347)
(1.27593 0.0987976 -0.105749)
(1.50104 0.0849551 -0.0663925)
(1.34084 0.158733 0.0778159)
(1.79655 0.192221 0.057912)
(1.30921 0.0863838 -0.133775)
(1.31011 0.0323976 -0.137444)
(1.18589 0.00202434 -0.0387326)
(1.21145 -0.111359 -0.0963095)
(1.71442 -0.019116 -0.0723228)
(1.33383 0.143659 -0.0301972)
(1.7667 0.247323 -0.0571228)
(1.53644 0.280843 0.000924465)
(1.03467 0.28752 0.0536838)
(1.17587 0.140147 -0.0111511)
(1.07853 -0.0096027 -0.0931311)
(1.51112 0.132752 0.0869172)
(1.38409 0.055172 0.00686678)
(1.15735 0.0220258 -0.0989515)
(1.72816 0.271469 -0.0614784)
(1.29925 0.130135 -0.0873259)
(1.59784 -0.0293539 0.0185135)
(1.40254 0.243867 -0.0127366)
(1.52307 0.126051 -0.0254993)
(1.38325 0.0624344 -0.147519)
(1.13842 0.216755 -0.0973657)
(1.313 0.13818 -0.0273814)
(1.43484 0.266052 -0.000855852)
(1.44192 0.036169 0.0684655)
(1.06232 0.00429632 -0.00636466)
(1.46156 -0.00632431 -0.0613993)
(0.98143 0.0387859 -0.0846503)
(1.38252 0.252973 -0.0466343)
(1.22461 0.103194 -0.0302926)
(1.08365 0.0963272 -0.00809791)
(1.49799 0.211197 0.0712539)
(1.41208 0.269639 0.0638186)
(1.9509 0.254656 0.0131994)
(1.13476 0.152554 -0.0277638)
(1.21771 0.221162 0.0595994)
(1.09966 0.0562903 0.0312838)
(1.65741 0.0433896 -0.0263836)
(1.73427 0.0467098 -0.0415137)
(1.47416 0.0189822 0.0218755)
(1.30077 0.0347055 -0.128342)
(0.576759 -0.0125596 -0.256009)
(0.897695 -0.0231379 -0.186575)
(1.34634 0.00981966 -0.0317659)
(1.17961 -0.155751 -0.131378)
(1.60866 0.0667493 -0.188321)
(1.18539 0.202515 -0.0827356)
(1.35361 -0.0402251 -0.0104877)
(1.32175 0.104966 0.0115224)
(1.22572 0.354825 0.0493594)
(1.52045 0.199153 0.0370342)
(1.36779 0.0125303 -0.0275539)
(1.69706 0.042794 0.0369704)
(1.42183 0.108804 -0.0122819)
(1.23753 0.083947 -0.126725)
(1.62496 0.252549 0.00518992)
(1.30539 0.253997 -0.0164682)
(1.50215 0.0527518 -0.056537)
(1.43482 0.221211 0.00404428)
(1.74965 0.072409 -0.0712216)
(1.09519 0.0541585 -0.103084)
(1.11133 0.140554 0.0130089)
(1.38552 0.138126 -0.0112461)
(1.42114 0.268345 -0.00727084)
(1.38632 0.0578425 0.0511642)
(1.06354 0.00315311 -0.00148548)
(1.68119 0.0566616 -0.0195577)
(1.10166 0.0776085 -0.00849007)
(1.21374 0.201247 -0.0304356)
(1.21364 0.0252614 -0.0916384)
(0.902482 -0.0539336 -0.0688182)
(1.33846 0.115458 0.059853)
(1.23773 0.229324 0.0213761)
(1.97829 0.217305 0.000577071)
(1.57466 0.152329 0.0534154)
(1.59893 0.192385 0.0483173)
(1.2176 0.0540131 0.0218587)
(1.43281 -0.0747757 -0.0432947)
(1.48002 0.0665402 -0.0905497)
(1.23994 0.180607 -0.0519635)
(1.36885 0.289152 -0.118135)
(1.18732 0.18121 -0.0829196)
(1.13145 -0.0420153 -0.0324273)
(1.32471 -0.0717095 -0.0237661)
(1.04882 -0.138546 -0.175279)
(1.36341 0.176494 -0.229311)
(1.25754 0.239272 -0.0641753)
(0.958092 0.00241811 -0.0238209)
(0.835329 0.216735 0.0116879)
(1.195 0.385256 0.0589333)
(1.80205 0.202467 0.0301323)
(1.51711 0.00745522 -0.0456949)
(1.60218 0.100715 -0.0261605)
(1.34975 0.243001 -0.0323887)
(1.20423 0.0492441 -0.0582084)
(1.51624 0.202325 -0.00785332)
(1.42974 0.272399 -0.0315645)
(1.26648 0.0633753 -0.0389367)
(1.41022 0.167393 0.117807)
(1.78497 0.164052 -0.0343801)
(0.985543 0.177597 -0.0742017)
(1.37286 0.0587511 0.0151032)
(1.46904 0.0576413 0.025126)
(1.37926 0.22984 0.025313)
(1.37195 0.0144806 0.00923926)
(1.13034 -0.0724341 -0.0319337)
(1.5201 0.0660695 -0.0336362)
(0.959948 0.147485 -0.0551472)
(1.40932 0.194364 -0.0397431)
(1.54301 0.169981 -0.00989958)
(1.05665 0.0323663 -0.0483632)
(1.22479 0.0479067 -0.0308055)
(1.17322 0.105595 -0.0408234)
(2.00956 0.180151 0.027897)
(1.71547 0.171035 0.0297221)
(1.5125 0.200791 -0.0817494)
(1.3287 0.047623 -0.0672742)
(1.32652 -0.0894699 -0.0639948)
(1.5685 0.123375 -0.0464162)
(1.42821 0.191301 -0.0319113)
(1.30093 0.190593 -0.141739)
(1.20854 0.0780722 -0.102701)
(1.25342 -0.0216257 0.0263646)
(1.32447 0.0134817 -0.0541179)
(1.15084 -0.0191907 -0.197776)
(1.17431 0.212788 -0.101606)
(1.28665 0.19105 0.0402045)
(0.743811 -0.0505811 -0.0585577)
(0.644245 0.0905643 -0.117872)
(1.44796 0.145881 -0.08703)
(1.7524 0.104226 -0.0319924)
(1.14543 0.0728623 -0.0409263)
(1.57882 0.114309 -0.0149953)
(1.43877 0.212194 -0.0173403)
(1.06732 0.011044 -0.00438675)
(1.28119 0.157165 -0.016778)
(1.30141 0.277514 -0.0636428)
(1.10954 0.116059 0.0437016)
(1.18847 0.0683012 0.111731)
(1.65074 0.225493 -0.0420143)
(1.09071 0.191925 -0.0984907)
(1.69138 -0.0205493 -0.0984889)
(1.63607 0.138878 0.00329115)
(1.47133 0.256454 0.0474947)
(1.3025 0.00464671 -0.0327258)
(1.02694 -0.0191898 -0.0767158)
(1.44557 0.134745 -0.0173364)
(1.07894 0.144671 -0.0292395)
(1.42212 0.1193 -0.066211)
(1.5699 0.131601 -0.0185737)
(1.22011 0.0119421 -0.0354616)
(1.39018 0.0197648 -0.0442099)
(1.06619 0.0407081 -0.0888825)
(1.61703 0.140032 -0.0357637)
(1.62764 0.204149 0.0165486)
(1.3268 0.173719 -0.0468885)
(1.3803 0.0272241 -0.0665455)
(1.31721 -0.107692 -0.0703919)
(1.4223 0.0770475 -0.0788695)
(1.19761 0.20151 -0.097173)
(1.33634 0.265979 -0.156336)
(1.34687 0.13837 -0.0522003)
(1.23145 0.00606339 0.0791829)
(1.3839 -0.0402178 -0.0490485)
(1.19288 -0.0487393 -0.175479)
(1.04003 0.202151 -0.0311181)
(1.35338 0.272392 0.0903145)
(1.16805 0.103639 0.0278485)
(0.733549 0.0195557 -0.138119)
(1.30192 0.0483714 -0.133433)
(1.72144 0.195535 -0.0667589)
(1.11987 0.111194 -0.00367531)
(1.47121 0.0100328 0.0437798)
(1.435 0.211669 -0.0288842)
(1.4107 0.066794 0.0473331)
(1.10416 0.143112 0.00774308)
(1.21374 0.311425 -0.0386876)
(1.12309 0.0517208 0.100659)
(1.3309 0.033342 0.0427436)
(1.68616 0.212158 -0.0280889)
(1.18576 0.139309 -0.0517018)
(1.49876 -0.0833065 -0.0681727)
(1.57528 0.113596 0.0328287)
(1.5831 0.243085 0.0590428)
(1.37524 0.0309754 -0.0466305)
(1.05096 -0.0581526 -0.0794936)
(1.33026 0.159214 -0.00964212)
(1.26651 0.170645 -0.0334531)
(1.11687 0.051574 -0.15956)
(1.21411 0.140221 -0.0671674)
(1.25027 0.0284215 -0.0854524)
(1.70896 0.0309093 -0.0593019)
(1.17989 0.0478258 -0.0510226)
(1.39746 0.134402 -0.0101745)
(1.48116 0.23406 0.055316)
(1.49169 0.148135 -0.0345056)
(1.25675 0.0125496 -0.0509119)
(1.33244 -0.083089 -0.0221199)
(1.16752 0.16071 -0.109368)
(1.38227 0.259816 -0.12581)
(1.41508 0.218308 -0.136356)
(1.11329 0.0937267 -0.000162195)
(1.33852 -0.0278211 0.0850017)
(1.09929 -0.0379227 -0.081732)
(0.950608 0.10359 -0.139771)
(0.948076 0.218572 -0.00693547)
(1.00025 0.151997 0.0188073)
(0.991399 0.0552934 -0.0940424)
(0.603633 -0.0174363 -0.247131)
(0.947368 -0.098334 -0.151713)
(1.56506 0.160084 -0.15668)
(1.41884 0.168241 -0.0365292)
(1.65935 -0.000794029 0.0720001)
(1.40482 0.181964 -0.0206679)
(1.51569 0.0867365 0.0184573)
(1.18039 0.185306 0.00260705)
(1.38938 0.329108 -0.0733857)
(1.47699 0.02803 -0.00325351)
(1.30545 0.0667093 -0.0656789)
(1.48336 0.259162 -0.0395677)
(1.36448 0.138356 0.00659002)
(1.55862 -0.0892125 -0.0619881)
(1.6052 0.124224 0.0256375)
(1.70739 0.259891 0.075206)
(1.5789 0.0715297 -0.0349767)
(0.959352 -0.000867697 -0.0897715)
(1.3496 0.160186 -0.0272155)
(1.45403 0.186348 0.024068)
(1.25008 0.111652 -0.101675)
(1.04642 0.0844955 -0.0753064)
(1.13162 -0.0802356 -0.0646656)
(1.40881 0.0245883 -0.12246)
(1.19014 0.0852901 0.00504285)
(1.43996 0.0936487 0.0476138)
(1.37352 0.150611 -0.00485821)
(1.1468 0.137075 -0.0953881)
(1.03942 -0.00939173 -0.119755)
(1.18375 -0.102536 -0.0744902)
(1.33496 0.122012 -0.0669579)
(1.08468 0.200127 -0.127301)
(1.43803 0.22816 -0.126306)
(1.34324 0.0772012 -0.0509642)
(1.8622 0.0092181 0.0974539)
(1.52427 -0.0240423 0.0313508)
(1.19384 0.0666669 -0.0812668)
(1.143 0.169454 -0.0500196)
(1.16046 0.148794 0.0431488)
(1.21726 0.091425 -0.0755395)
(1.01451 -0.0104856 -0.208007)
(0.953872 -0.134815 -0.0846978)
(1.27335 0.118258 -0.206377)
(1.61054 0.139762 -0.0844002)
(1.6531 -0.0130057 0.053688)
(1.19126 0.195275 -0.00756323)
(1.46955 0.0720297 -0.0256294)
(1.13561 0.154193 -0.00903027)
(1.68423 0.277521 -0.0729959)
(1.77568 -0.00483751 -0.0832975)
(1.13189 0.0867236 -0.123224)
(1.51986 0.225241 -0.0162649)
(1.34026 0.069567 -0.0501517)
(1.68786 -0.116009 -0.110635)
(1.35111 0.132614 -0.0339121)
(1.58342 0.264343 0.0790661)
(1.65067 0.104155 0.0176378)
(1.02059 -0.00488277 -0.0558137)
(1.13977 0.156028 -0.0208056)
(1.39572 0.199562 0.0293932)
(1.48019 0.10034 0.00380761)
(1.33872 0.120162 -0.0125363)
(1.12436 -0.0181185 -0.0596682)
(1.33704 0.0131404 -0.0987984)
(1.19344 0.0290242 -0.0830307)
(1.68434 0.0518887 0.014075)
(1.46794 0.182505 0.0384452)
(1.25773 0.150262 -0.0906294)
(1.24474 -0.0131284 -0.100656)
(1.12911 -0.117645 -0.0638961)
(1.14831 0.14157 -0.0536773)
(1.05514 0.279752 -0.139712)
(1.58382 0.207795 -0.128335)
(1.70378 0.0194317 -0.0146086)
(1.49195 -0.00198821 0.0421781)
(1.24741 0.00256248 -0.0186981)
(1.10911 0.115425 -0.0978708)
(1.19837 0.15758 -0.040333)
(1.4831 0.0946451 0.0954205)
(1.10525 0.0716576 -0.111269)
(0.896943 -0.0398455 -0.176452)
(1.09491 -0.120945 -0.076181)
(1.30419 0.0649035 -0.245721)
(1.38657 0.0564579 -0.0508124)
(1.4724 0.0214043 0.108913)
(0.937575 0.142096 0.0624917)
(1.54433 0.0388294 0.0748008)
(1.28493 0.178927 0.0890439)
(2.10732 0.19511 0.0353084)
(1.41856 0.00608193 -0.126109)
(1.19649 0.0532892 -0.182011)
(1.56208 0.164396 -0.0499601)
(1.39208 0.043115 -0.0833252)
(1.78807 -0.0653988 -0.182841)
(1.14793 0.173166 -0.0632047)
(1.24539 0.217567 0.0264042)
(1.85562 0.132256 0.00890038)
(1.08051 0.0632442 -0.0814536)
(1.10224 0.123649 -0.0338661)
(1.36698 0.0913308 0.00594366)
(1.43787 0.0885623 0.0344562)
(1.30463 0.118243 -0.0217835)
(0.819699 -0.0716988 -0.16078)
(1.19292 0.0159299 -0.169697)
(1.19277 0.00981136 -0.0397228)
(1.59939 0.0434773 0.0512556)
(1.22819 0.213053 -0.04864)
(1.25984 0.112589 -0.143909)
(1.29358 -0.00959393 -0.112264)
(1.36423 -0.0401584 -0.063671)
(1.01458 0.188185 -0.0347761)
(1.00759 0.231467 -0.0973004)
(1.12668 0.0860299 -0.202013)
(1.80286 -0.0422031 -0.0967286)
(1.76164 0.0808634 0.0114657)
(1.42046 0.0710455 0.0154329)
(0.82951 0.118979 -0.12187)
(1.14494 0.0442002 -0.0724029)
(1.68777 0.083561 0.121537)
(0.889123 0.0919381 -0.128505)
(1.12126 -0.0857302 -0.190968)
(1.34324 -0.12903 -0.177498)
(1.54465 0.103534 -0.0495941)
(0.730357 0.0495108 -0.0979782)
(1.24235 -0.00847871 -0.0184711)
(0.955145 0.0717652 0.0208359)
(1.43397 -0.0171183 0.0282423)
(1.49711 0.137196 0.0587472)
(2.05766 0.158224 0.088719)
(1.15419 0.0402396 -0.138143)
(1.26921 0.0345412 -0.242752)
(1.40834 0.137052 -0.130947)
(0.927742 -0.0410641 -0.0796532)
(1.67264 -0.146142 -0.199158)
(1.48839 0.185217 -0.0156295)
(1.18057 0.151913 -0.00412522)
(1.90723 0.0996643 -0.00974633)
(1.56765 0.0878508 -0.0218963)
(1.12089 0.0963973 -0.0574563)
(1.58089 0.075064 -0.0362932)
(1.26597 0.0657232 -0.00854599)
(1.45869 0.161534 0.045992)
(1.46292 -0.0117966 -0.0412101)
(0.744471 -0.0188386 -0.174031)
(1.4297 -0.0328689 0.0131773)
(1.46415 0.0870389 0.0719077)
(1.00784 0.228968 -0.0779075)
(1.47664 0.0734256 0.0309273)
(1.74808 -0.0360191 0.0258672)
(1.52725 -0.0522639 -0.0496298)
(1.11912 0.156664 -0.0262741)
(1.35767 0.232563 -0.0489736)
(1.46497 0.0595996 -0.162044)
(1.7667 -0.11254 -0.105462)
(1.82114 0.0194045 -0.022704)
(1.59549 0.0901687 0.0288989)
(0.821324 0.120245 -0.111991)
(0.818909 -0.0306333 -0.14022)
(1.69915 0.074745 0.0476366)
(1.18977 0.102549 -0.000219667)
(1.44094 -0.10351 -0.043155)
(1.78559 -0.105303 -0.1084)
(1.26181 0.126985 -0.0300114)
(0.598441 0.00808259 -0.226998)
(1.35653 -0.0837106 -0.223343)
(0.918843 0.0232937 -0.177093)
(1.24144 -0.0325025 -0.0830514)
(1.35849 0.130537 0.0245147)
(1.72967 0.172589 0.0339976)
(1.08152 0.0550065 -0.122683)
(1.38426 0.0530052 -0.228503)
(1.35392 0.128922 -0.119093)
(0.601006 -0.105292 -0.0908411)
(1.31881 -0.174956 -0.231385)
(1.18707 0.18368 -0.0295002)
(1.31879 0.0554047 0.020543)
(1.41689 0.0585786 -0.064025)
(1.59259 0.1085 0.0191974)
(1.09352 0.10922 -0.0777904)
(1.55081 0.0796699 -0.0789405)
(1.55145 0.0670866 -0.0297115)
(1.34415 0.116012 0.0676746)
(1.797 0.0550081 0.00134799)
(0.660764 0.00128023 -0.118468)
(1.27318 -0.137896 0.0347672)
(1.5474 0.0676861 0.00473681)
(0.926042 0.238658 -0.0764879)
(1.23236 -0.0240134 0.0513308)
(1.86123 -0.0354722 0.0433947)
(1.64186 0.0299643 0.027852)
(1.17762 0.164685 -0.00497441)
(1.27173 0.207135 -0.0813836)
(1.53651 -0.0209381 -0.09533)
(1.56831 -0.113523 -0.120081)
(1.60205 0.107627 -0.102518)
(1.32474 0.204685 0.0401119)
(1.01112 0.16513 -0.0479157)
(0.731592 -0.0911252 -0.0853193)
(1.21333 0.0277639 -0.0952818)
(1.35131 0.101776 0.0646713)
(1.41671 -0.134939 0.0531176)
(1.87676 -0.0419974 -0.0149561)
(1.10996 0.212992 -0.0593435)
(0.981637 0.0169664 -0.0997409)
(1.41215 -0.0842168 -0.10842)
(0.929593 0.0234106 -0.198879)
(1.01658 -0.0226334 -0.159272)
(1.09562 0.143957 -0.0245753)
(1.50262 0.188677 0.0133705)
(1.19698 0.0804069 -0.0643743)
(1.44345 0.073301 -0.220403)
(1.29594 0.134526 -0.0849117)
(0.7409 -0.12074 -0.0789855)
(0.935405 -0.173445 -0.282663)
(0.9145 0.125262 -0.0377747)
(1.18288 0.0229274 -0.00854011)
(1.1846 0.0505452 -0.060275)
(1.4777 0.105713 0.019413)
(0.494465 0.109467 -0.138055)
(1.41854 -0.0154742 -0.111417)
(1.70837 0.0492461 -0.0435975)
(1.23213 0.077144 0.037103)
(1.69388 0.07761 -0.0482678)
(1.1562 0.0445056 -0.0865169)
(0.953473 -0.106481 -0.0803665)
(1.05766 0.11867 -0.121428)
(0.977391 0.23203 0.000158982)
(1.31205 -0.0795051 -0.0177755)
(1.46342 -0.0823996 -0.117793)
(1.61436 0.0364119 -0.0325602)
(1.01137 0.0967893 -0.0118389)
(0.979837 0.124599 -0.165157)
(1.27248 -0.123793 -0.0132074)
(1.22151 -0.202443 -0.0511695)
(1.84466 0.0906972 -0.0384755)
(1.46388 0.195178 0.0198204)
(1.18617 0.173196 -0.0509474)
(1.03883 -0.106612 0.00285446)
(1.06231 -0.0304833 -0.0548706)
(1.45704 0.0338759 0.0418962)
(1.14602 -0.162604 -0.0218094)
(1.57192 -0.0350721 -0.0945687)
(1.21973 0.267257 -0.0942437)
(1.16348 0.0169152 -0.0997254)
(1.3921 -0.0861259 -0.0432508)
(0.907515 0.0148457 -0.162192)
(0.878447 0.000116062 -0.192977)
(1.12007 0.151749 -0.0515854)
(1.20805 0.177689 -0.00647208)
(1.29146 0.0666945 -0.0370001)
(1.44282 0.0846901 -0.142602)
(1.38374 0.119187 -0.0171726)
(1.58867 -0.115345 -0.00421322)
(0.795317 -0.131224 -0.272795)
(0.835426 0.10298 -0.0345998)
(1.13378 -0.00421828 -0.0178122)
(1.19636 0.034139 -0.0367062)
(1.14231 0.131917 -0.0319334)
(0.571109 0.0592414 -0.0980834)
(1.3597 -0.0965913 -0.0586417)
(1.59718 0.0333047 -0.0435048)
(1.06059 0.0607529 -0.0527101)
(1.47509 0.0728936 -0.114255)
(1.21186 0.0724768 -0.0746945)
(1.08173 -0.0791462 -0.0772741)
(0.882233 0.142719 -0.130304)