/*--------------------------------*- C++ -*----------------------------------*\
  =========                 |
  \\      /  F ield         | OpenFOAM: The Open Source CFD Toolbox
   \\    /   O peration     | Website:  https://openfoam.org
    \\  /    A nd           | Version:  10
     \\/     M anipulation  |
\*---------------------------------------------------------------------------*/
FoamFile
{
    format      ascii;
    class       surfaceScalarField;
    location    "12";
    object      phi;
}
// * * * * * * * * * * * * * * * * * * * * * * * * * * * * * * * * * * * * * //

dimensions      [0 3 -1 0 0 0 0];

internalField   nonuniform List<scalar> 
74080
(
0.000649949
2.3748e-08
7.42321e-09
0.000649943
1.49283e-08
3.87419e-10
0.000649937
2.62085e-08
-2.99992e-09
0.000649933
2.53024e-08
4.90914e-11
0.000649923
2.13341e-08
6.98082e-09
0.000649918
2.31014e-08
1.17533e-08
0.000649918
1.75405e-08
7.12647e-09
0.000649911
2.88936e-08
9.88857e-09
0.000649914
2.49353e-08
1.12847e-08
0.000649916
2.9814e-08
1.268e-08
0.000649925
3.6676e-08
1.24018e-08
0.000649937
3.60321e-08
9.74233e-09
0.000649939
5.53674e-08
8.109e-09
0.000649939
5.52753e-08
8.84353e-09
0.000649934
6.01369e-08
1.15765e-08
0.000649933
5.57544e-08
9.05149e-09
0.00064993
5.17965e-08
9.70103e-09
0.000649919
5.97954e-08
7.51932e-09
0.000649913
4.9057e-08
5.37145e-09
0.00064991
4.04871e-08
2.35519e-09
0.000649914
2.0543e-08
1.85939e-09
0.000649916
2.44672e-08
-1.45549e-09
0.000649922
-2.45355e-09
7.03597e-10
0.000649921
-4.48818e-09
-5.0831e-10
0.00064993
-1.51705e-08
-3.36524e-09
0.000649936
-3.6428e-08
4.41182e-09
0.000649949
-3.28839e-08
-4.56036e-09
0.00064995
-3.75877e-08
2.40343e-09
0.000649947
-4.21947e-08
5.65577e-09
0.000649959
-4.24793e-08
-2.28404e-09
0.000649956
-4.42565e-08
1.17966e-08
0.000649964
-4.48545e-08
9.15303e-10
0.000649969
-3.75915e-08
4.13101e-09
0.000649959
-2.24542e-08
1.56324e-08
0.000649961
-3.39803e-08
3.24131e-09
0.000649971
-1.60671e-08
1.64521e-10
0.00064997
-1.10128e-08
1.07783e-08
0.000649955
5.16387e-09
7.30525e-09
0.000649957
9.31312e-09
-2.93792e-09
8.56417e-09
-1.71254e-09
0.000595931
3.89343e-08
1.49564e-08
0.000595929
2.16033e-08
3.02777e-09
0.000595925
5.12674e-08
-8.98203e-09
0.000595924
4.15778e-08
-6.50833e-09
0.000595908
3.69745e-08
9.33212e-09
0.0005959
2.89289e-08
1.60183e-08
0.000595903
1.80838e-08
4.09807e-09
0.000595903
4.17702e-08
4.21487e-09
0.000595915
2.19546e-08
1.55918e-09
0.000595914
3.1945e-08
1.18236e-08
0.000595916
3.22321e-08
1.7918e-08
0.000595919
2.99216e-08
1.71858e-08
0.00059591
6.34431e-08
1.69243e-08
0.000595906
5.8759e-08
1.47764e-08
0.000595898
7.05626e-08
1.72259e-08
0.000595903
5.45914e-08
1.22901e-08
0.000595906
5.29327e-08
1.56443e-08
0.000595895
7.24303e-08
1.07608e-08
0.000595891
5.23992e-08
9.76096e-09
0.000595888
4.55344e-08
2.21206e-09
0.000595894
1.32462e-08
3.05622e-09
0.000595895
2.70646e-08
-6.23469e-09
0.000595903
-1.49506e-08
-1.10069e-09
0.000595902
-6.04101e-09
-8.64092e-09
0.000595908
-1.98676e-08
-9.4571e-09
0.000595921
-5.74542e-08
6.38044e-10
0.000595935
-3.84676e-08
-1.493e-08
0.000595932
-4.4608e-08
1.48851e-09
0.000595937
-5.02685e-08
4.58864e-11
0.000595942
-3.98904e-08
-6.53889e-09
0.000595942
-5.80362e-08
1.42414e-08
0.000595957
-5.21158e-08
-5.8181e-09
0.000595958
-3.37977e-08
4.78704e-09
0.000595945
-2.4609e-08
2.17444e-08
0.000595954
-3.78692e-08
1.30748e-09
0.000595963
-9.01579e-09
-2.97654e-09
0.00059596
-1.29191e-08
1.8198e-08
0.000595943
2.1176e-08
1.28703e-08
0.000595949
2.2162e-08
-7.13335e-09
2.18126e-08
-1.21159e-09
0.000542666
5.71598e-08
1.52701e-08
0.000542668
2.6493e-08
2.25314e-09
0.000542659
8.45929e-08
-6.29765e-09
0.000542658
6.03285e-08
-7.81011e-09
0.000542637
6.07345e-08
7.98508e-09
0.000542636
3.31439e-08
1.36092e-08
0.000542642
1.80737e-08
1.24489e-09
0.00054264
5.77112e-08
8.17312e-09
0.000542655
1.70705e-08
-1.7678e-09
0.000542649
4.14677e-08
1.26697e-08
0.000542659
2.47194e-08
1.75061e-08
0.000542663
2.45189e-08
1.69537e-08
0.000542649
7.65274e-08
1.99611e-08
0.000542645
6.44231e-08
1.82852e-08
0.000542629
9.00778e-08
2.40687e-08
0.000542641
4.9452e-08
1.65249e-08
0.000542643
5.66278e-08
2.41477e-08
0.000542629
8.99294e-08
1.54777e-08
0.000542624
5.78307e-08
1.42179e-08
0.000542616
5.7462e-08
2.16006e-09
0.000542625
3.54509e-09
3.13068e-09
0.000542625
3.39031e-08
-9.77873e-09
0.000542637
-3.49334e-08
-2.87533e-09
0.000542628
-3.71855e-10
-1.54755e-08
0.000542633
-2.44829e-08
-1.40537e-08
0.000542655
-8.85968e-08
-4.31309e-09
0.000542665
-4.03139e-08
-1.96502e-08
0.000542666
-5.69336e-08
-4.19132e-09
0.000542669
-5.87463e-08
-1.43797e-11
0.000542667
-3.1055e-08
-7.19356e-09
0.000542678
-8.23233e-08
1.07489e-08
0.000542692
-6.0727e-08
-6.04823e-09
0.000542691
-2.98013e-08
1.09384e-08
0.00054268
-2.91388e-08
2.08176e-08
0.000542688
-4.24623e-08
3.97386e-09
0.000542698
-1.17467e-09
7.80743e-10
0.0005427
-1.73991e-08
2.03788e-08
0.000542679
4.41505e-08
1.64636e-08
0.000542685
3.54232e-08
-2.66165e-09
4.29495e-08
1.90012e-09
0.000493838
7.47349e-08
1.70943e-08
0.000493843
3.15064e-08
1.27458e-09
0.000493826
1.2979e-07
-1.79465e-09
0.000493824
8.2243e-08
-8.8185e-09
0.000493795
9.61166e-08
8.27049e-09
0.000493807
3.08278e-08
1.13944e-08
0.000493813
1.96787e-08
-1.28257e-09
0.000493809
7.8669e-08
1.42449e-08
0.000493826
1.31623e-08
-7.04079e-09
0.000493811
6.2241e-08
1.52644e-08
0.000493836
6.46986e-09
1.64877e-08
0.000493841
1.8286e-08
1.75137e-08
0.000493824
9.21673e-08
2.19792e-08
0.000493817
7.49396e-08
2.10139e-08
0.00049379
1.23135e-07
3.05863e-08
0.000493814
3.63009e-08
1.92884e-08
0.000493814
6.57421e-08
3.35589e-08
0.000493796
1.11905e-07
1.9136e-08
0.000493788
6.79639e-08
1.85458e-08
0.000493773
7.9558e-08
2.23013e-10
0.00049379
-1.14894e-08
3.12121e-09
0.000493787
4.49017e-08
-1.48692e-08
0.000493807
-6.65259e-08
-3.79425e-09
0.000493785
1.94096e-08
-2.4344e-08
0.000493793
-3.26992e-08
-1.7877e-08
0.000493826
-1.32036e-07
-9.45811e-09
0.000493832
-3.70395e-08
-2.4688e-08
0.00049384
-8.05287e-08
-9.46289e-09
0.000493835
-5.99665e-08
1.02136e-09
0.000493826
-1.54063e-08
-7.1242e-09
0.000493854
-1.22643e-07
6.53722e-09
0.000493863
-6.59465e-08
-6.33121e-09
0.000493861
-2.93613e-08
2.02943e-08
0.000493853
-3.51902e-08
1.868e-08
0.000493855
-4.20742e-08
7.30985e-09
0.000493872
3.12076e-09
5.50555e-09
0.00049388
-2.62129e-08
2.40028e-08
0.000493849
7.79459e-08
2.21479e-08
0.000493856
4.97479e-08
3.74853e-09
7.58527e-08
7.29004e-09
0.000449366
8.75036e-08
1.97595e-08
0.000449373
3.76007e-08
2.62582e-10
0.000449349
1.86004e-07
5.6604e-09
0.000449342
1.11479e-07
-9.73299e-09
0.000449302
1.4941e-07
9.55968e-09
0.000449333
1.65553e-08
8.01303e-09
0.000449337
2.3434e-08
-2.34808e-09
0.000449335
1.01748e-07
2.32169e-08
0.000449348
1.59742e-08
-1.48818e-08
0.000449323
9.73896e-08
2.02831e-08
0.00044937
-2.80773e-08
1.25526e-08
0.000449373
1.29595e-08
1.74875e-08
0.000449358
1.07926e-07
2.09256e-08
0.000449341
9.74144e-08
2.20678e-08
0.000449302
1.72698e-07
3.67127e-08
0.000449344
9.46068e-09
2.09343e-08
0.000449339
8.20802e-08
4.49611e-08
0.000449322
1.34191e-07
2.24046e-08
0.000449306
8.91756e-08
2.33203e-08
0.000449282
1.15001e-07
-4.57133e-09
0.00044931
-3.58056e-08
3.1355e-09
0.000449307
5.77892e-08
-2.11997e-08
0.000449334
-1.12903e-07
-3.58963e-09
0.000449293
6.26522e-08
-3.5727e-08
0.000449308
-4.90064e-08
-2.05953e-08
0.000449353
-1.88522e-07
-1.54866e-08
0.000449354
-2.97989e-08
-2.91237e-08
0.000449374
-1.20888e-07
-1.53967e-08
0.000449352
-4.38367e-08
3.99849e-09
0.000449336
7.00502e-09
-6.9216e-09
0.000449387
-1.84162e-07
9.29059e-10
0.000449388
-6.43723e-08
-6.07771e-09
0.000449389
-3.7174e-08
3.19787e-08
0.00044938
-3.76923e-08
1.39645e-08
0.000449373
-3.459e-08
1.31653e-08
0.000449404
-2.15182e-09
1.09856e-08
0.000449415
-3.71519e-08
2.80539e-08
0.000449375
1.22994e-07
2.9696e-08
0.000449382
6.59792e-08
1.3076e-08
1.27827e-07
1.43265e-08
0.000408881
8.97228e-08
2.46355e-08
0.000408885
4.69491e-08
-1.22275e-09
0.00040886
2.49408e-07
1.6549e-08
0.00040884
1.56124e-07
-1.04952e-08
0.000408787
2.23181e-07
1.3176e-08
0.000408844
-1.57083e-08
3.47421e-09
0.000408844
3.00283e-08
-1.32027e-09
0.000408848
1.2312e-07
3.39694e-08
0.000408847
3.69395e-08
-2.572e-08
0.000408814
1.47621e-07
2.87918e-08
0.000408889
-8.58159e-08
5.81921e-09
0.000408888
1.01304e-08
1.73201e-08
0.00040888
1.18644e-07
1.62201e-08
0.000408845
1.43556e-07
2.17316e-08
0.000408794
2.38659e-07
4.23555e-08
0.000408859
-3.50199e-08
2.09277e-08
0.000408847
1.04662e-07
5.85895e-08
0.000408837
1.51208e-07
2.53931e-08
0.000408803
1.33386e-07
2.83726e-08
0.00040877
1.64335e-07
-1.25858e-08
0.000408813
-7.244e-08
3.07327e-09
0.000408812
7.13518e-08
-3.12833e-08
0.000408849
-1.76109e-07
-1.19517e-09
0.00040878
1.40254e-07
-4.99986e-08
0.000408807
-8.00613e-08
-2.179e-08
0.000408861
-2.55587e-07
-2.22349e-08
0.000408864
-2.43419e-08
-3.35912e-08
0.000408898
-1.82802e-07
-2.17051e-08
0.000408846
3.94439e-09
8.68828e-09
0.000408829
3.1869e-08
-6.8704e-09
0.000408904
-2.67751e-07
-7.29334e-09
0.000408894
-5.35293e-08
-6.33151e-09
0.000408907
-6.1945e-08
4.52515e-08
0.000408885
-2.60101e-08
6.95729e-09
0.00040887
-2.08997e-08
2.22708e-08
0.000408924
-2.47348e-08
1.60081e-08
0.000408934
-4.81051e-08
3.37954e-08
0.000408887
1.77407e-07
4.00792e-08
0.000408888
8.8501e-08
2.43333e-08
2.03445e-07
2.49289e-08
0.000372027
7.73669e-08
3.22116e-08
0.000372026
5.88566e-08
-3.11729e-09
0.000372007
3.12699e-07
3.21286e-08
0.000371962
2.28521e-07
-1.01439e-08
0.000371898
3.16618e-07
1.98553e-08
0.000371985
-7.03406e-08
-2.71273e-09
0.000371983
3.67047e-08
2.99569e-09
0.000371998
1.39185e-07
4.62703e-08
0.000371969
9.22105e-08
-3.88607e-08
0.000371931
2.09388e-07
4.15418e-08
0.000372039
-1.69369e-07
-4.91845e-09
0.000372035
6.79338e-09
1.79922e-08
0.00037204
1.19763e-07
6.17682e-09
0.000371972
2.28581e-07
2.05351e-08
0.000371913
3.17115e-07
4.71742e-08
0.000372003
-9.79237e-08
1.98213e-08
0.000371989
1.28362e-07
7.29566e-08
0.00037199
1.58541e-07
2.893e-08
0.000371924
2.18239e-07
3.27167e-08
0.000371887
2.24315e-07
-2.42321e-08
0.000371947
-1.22426e-07
2.77357e-09
0.000371952
8.09596e-08
-4.60805e-08
0.000371996
-2.56984e-07
5.7373e-09
0.000371893
2.6275e-07
-6.77146e-08
0.000371936
-1.32395e-07
-2.10234e-08
0.000371995
-3.28202e-07
-2.95975e-08
0.000372011
-3.32322e-08
-3.83758e-08
0.000372058
-2.66257e-07
-2.80878e-08
0.000371964
9.96369e-08
1.46936e-08
0.000371954
5.0983e-08
-6.50768e-09
0.000372048
-3.68846e-07
-1.72361e-08
0.000372032
-3.69488e-08
-8.83264e-09
0.000372062
-1.10792e-07
5.90923e-08
0.000372014
1.49466e-08
-1.86513e-09
0.000371996
-7.75051e-09
3.5891e-08
0.000372077
-7.06632e-08
2.01493e-08
0.000372082
-5.8103e-08
4.15785e-08
0.000372033
2.36608e-07
5.39079e-08
0.000372022
1.25107e-07
3.71916e-08
3.04639e-07
4.08905e-08
0.00033848
4.92533e-08
4.39783e-08
0.000338477
6.67728e-08
-5.40845e-09
0.00033847
3.6726e-07
5.42747e-08
0.000338383
3.43189e-07
-7.10796e-09
0.000338314
4.24485e-07
3.082e-08
0.000338431
-1.47844e-07
-1.01509e-08
0.000338433
3.31441e-08
1.2252e-08
0.000338462
1.48569e-07
6.06756e-08
0.00033839
1.99891e-07
-5.27314e-08
0.000338355
2.75802e-07
5.93145e-08
0.000338493
-2.78403e-07
-1.84628e-08
0.000338494
-7.5852e-09
2.04753e-08
0.000338515
1.08634e-07
-8.79488e-09
0.000338399
3.68014e-07
1.96842e-08
0.000338339
4.01677e-07
5.09036e-08
0.00033845
-1.76983e-07
1.87388e-08
0.000338446
1.40566e-07
8.67241e-08
0.000338457
1.56415e-07
3.47561e-08
0.000338344
3.61505e-07
3.6594e-08
0.000338313
2.90033e-07
-3.93957e-08
0.000338385
-1.83992e-07
2.30489e-09
0.000338407
7.67393e-08
-6.61813e-08
0.000338452
-3.53955e-07
1.93998e-08
0.000338312
4.38004e-07
-8.87224e-08
0.000338371
-2.1032e-07
-1.73552e-08
0.00033843
-4.01457e-07
-3.67566e-08
0.000338479
-7.69888e-08
-4.33787e-08
0.000338526
-3.63843e-07
-3.36374e-08
0.000338383
2.55556e-07
2.23194e-08
0.000338389
5.66435e-08
-4.79117e-09
0.000338493
-4.77656e-07
-2.87579e-08
0.000338484
-2.71379e-08
-1.58579e-08
0.00033853
-1.85316e-07
7.36199e-08
0.000338441
1.01649e-07
-1.12578e-08
0.000338431
-7.65781e-09
5.52685e-08
0.00033854
-1.42485e-07
2.38128e-08
0.000338539
-6.9557e-08
5.15958e-08
0.00033849
2.95687e-07
7.12805e-08
0.000338458
1.88441e-07
5.04397e-08
4.30103e-07
6.51728e-08
0.000307941
5.70039e-09
6.20303e-08
0.000307945
5.65316e-08
-7.71709e-09
0.000307952
4.04375e-07
8.59489e-08
0.00030781
5.12606e-07
2.14939e-09
0.000307742
5.39077e-07
4.81572e-08
0.000307886
-2.47234e-07
-1.56948e-08
0.000307906
6.27574e-10
2.78901e-08
0.000307942
1.53138e-07
7.90155e-08
0.000307815
3.76355e-07
-6.49299e-08
0.000307792
3.39426e-07
8.28152e-08
0.000307952
-4.12505e-07
-2.95141e-08
0.000307973
-5.22971e-08
2.55153e-08
0.000308006
8.77386e-08
-2.96235e-08
0.000307833
5.74113e-07
2.1303e-08
0.000307777
4.8417e-07
5.51258e-08
0.000307902
-2.70122e-07
2.03395e-08
0.000307928
1.19267e-07
9.90445e-08
0.00030794
1.50896e-07
4.60099e-08
0.000307772
5.76735e-07
4.07906e-08
0.000307752
3.55886e-07
-5.70192e-08
0.00030783
-2.55442e-07
2.04386e-09
0.000307883
4.28343e-08
-9.22008e-08
0.00030792
-4.63072e-07
4.21924e-08
0.000307744
6.6964e-07
-1.11797e-07
0.000307814
-3.12666e-07
-9.26192e-09
0.000307873
-4.76591e-07
-4.19817e-08
0.000307976
-1.82979e-07
-4.82072e-08
0.000308005
-4.61274e-07
-3.67739e-08
0.000307814
4.73061e-07
3.35964e-08
0.000307839
4.60852e-08
1.14169e-09
0.00030794
-5.84483e-07
-4.1561e-08
0.00030796
-4.50894e-08
-2.9734e-08
0.000308013
-2.76483e-07
8.81222e-08
0.000307873
2.44849e-07
-1.9425e-08
0.000307881
-3.78265e-08
8.29748e-08
0.000308012
-2.42372e-07
3.0104e-08
0.000308013
-9.44302e-08
6.62586e-08
0.000307966
3.50386e-07
9.23539e-08
0.000307902
2.87228e-07
6.60669e-08
5.76604e-07
1.01704e-07
0.000280138
-5.51261e-08
9.14887e-08
0.000280164
2.44676e-09
-9.11398e-09
0.000280183
4.1678e-07
1.31437e-07
0.000279977
7.42243e-07
2.34122e-08
0.000279913
6.51745e-07
7.52747e-08
0.000280077
-3.6931e-07
-1.47361e-08
0.000280134
-8.8031e-08
5.17973e-08
0.000280167
1.575e-07
1.05226e-07
0.00027998
6.27159e-07
-6.88387e-08
0.000279972
3.96589e-07
1.13993e-07
0.000280148
-5.73102e-07
-3.6119e-08
0.000280209
-1.55622e-07
3.28177e-08
0.000280243
6.35474e-08
-5.27186e-08
0.000280007
8.5213e-07
2.81427e-08
0.000279957
5.60134e-07
5.92342e-08
0.000280092
-3.85055e-07
2.99043e-08
0.000280169
3.70801e-08
1.08898e-07
0.000280167
1.54826e-07
6.59248e-08
0.000279941
8.71214e-07
4.57861e-08
0.000279936
4.2061e-07
-7.45928e-08
0.000280013
-3.34304e-07
1.78487e-09
0.000280115
-4.12426e-08
-1.2382e-07
0.000280132
-5.79325e-07
7.77665e-08
0.000279923
9.56208e-07
-1.34821e-07
0.000279992
-4.3152e-07
4.59616e-09
0.000280057
-5.69026e-07
-4.08937e-08
0.000280234
-3.79979e-07
-5.19848e-08
0.000280223
-5.42294e-07
-3.46638e-08
0.000279995
7.42551e-07
5.02373e-08
0.000280028
3.00982e-08
1.27784e-08
0.000280122
-6.90582e-07
-5.37818e-08
0.000280198
-1.17622e-07
-5.17465e-08
0.000280234
-3.67331e-07
1.05472e-07
0.000280045
4.41065e-07
-2.18072e-08
0.000280077
-1.16259e-07
1.2507e-07
0.000280223
-3.70826e-07
4.25951e-08
0.000280238
-1.53833e-07
8.75972e-08
0.000280187
4.03085e-07
1.14971e-07
0.000280087
4.23795e-07
8.6824e-08
7.41626e-07
1.56643e-07
0.000254826
-1.4045e-07
1.37692e-07
0.000254892
-1.27882e-07
-8.01869e-09
0.000254914
3.97657e-07
1.93943e-07
0.000254642
1.02882e-06
6.2333e-08
0.00025458
7.53793e-07
1.17245e-07
0.000254762
-5.17136e-07
-2.8927e-09
0.000254877
-2.65969e-07
8.73663e-08
0.000254889
1.67459e-07
1.4425e-07
0.000254644
9.48942e-07
-5.92404e-08
0.000254645
4.51071e-07
1.5578e-07
0.000254833
-7.72204e-07
-2.9434e-08
0.000254958
-3.48732e-07
4.25624e-08
0.000254977
4.12541e-08
-7.09567e-08
0.00025468
1.20017e-06
4.37662e-08
0.000254629
6.3353e-07
6.64269e-08
0.000254775
-5.4018e-07
5.48648e-08
0.000254926
-1.32241e-07
1.13444e-07
0.00025489
1.83909e-07
9.83922e-08
0.000254612
1.24396e-06
5.38721e-08
0.000254613
4.89378e-07
-8.64528e-08
0.000254688
-4.3615e-07
6.17475e-09
0.00025486
-1.98862e-07
-1.60493e-07
0.00025484
-7.02994e-07
1.29684e-07
0.000254609
1.29378e-06
-1.54844e-07
0.000254654
-5.47635e-07
2.78548e-08
0.000254743
-7.01362e-07
-3.36527e-08
0.000255003
-6.90269e-07
-5.36221e-08
0.000254934
-6.00613e-07
-2.15271e-08
0.000254688
1.04499e-06
7.56341e-08
0.000254703
3.02579e-08
3.80358e-08
0.0002548
-8.17306e-07
-6.19833e-08
0.000254951
-2.72054e-07
-8.13979e-08
0.000254942
-4.48229e-07
1.3394e-07
0.000254717
6.72836e-07
-1.42197e-08
0.000254768
-2.48441e-07
1.79828e-07
0.000254927
-5.40039e-07
6.94592e-08
0.000254972
-2.7388e-07
1.15221e-07
0.000254907
4.50424e-07
1.44761e-07
0.000254772
5.91995e-07
1.15195e-07
9.22585e-07
2.39408e-07
0.000231783
-2.71347e-07
2.10304e-07
0.000231906
-3.72598e-07
-1.58794e-09
0.000231918
3.21276e-07
2.88302e-07
0.000231584
1.35478e-06
1.3055e-07
0.000231515
8.51383e-07
1.74826e-07
0.000231717
-7.10811e-07
3.37171e-08
0.000231907
-5.67302e-07
1.38038e-07
0.000231883
1.82666e-07
2.06412e-07
0.000231588
1.32994e-06
-2.86742e-08
0.000231578
5.13291e-07
2.15281e-07
0.000231789
-1.03958e-06
-1.90079e-09
0.000231995
-6.584e-07
5.27652e-08
0.000231982
1.91198e-08
-7.39317e-08
0.000231631
1.60878e-06
7.36583e-08
0.000231563
7.12356e-07
8.23585e-08
0.000231732
-7.72132e-07
1.01326e-07
0.000231972
-4.18972e-07
1.18914e-07
0.000231882
2.38539e-07
1.56093e-07
0.000231567
1.68726e-06
6.87028e-08
0.000231554
5.81989e-07
-9.00299e-08
0.000231634
-5.90815e-07
2.18559e-08
0.000231891
-4.4952e-07
-2.0232e-07
0.000231824
-8.45451e-07
2.05615e-07
0.00023158
1.67631e-06
-1.65375e-07
0.000231574
-6.37004e-07
6.22207e-08
0.000231711
-9.12968e-07
-1.52603e-08
0.000232049
-1.12452e-06
-5.36078e-08
0.00023192
-6.60885e-07
1.36247e-08
0.00023167
1.35845e-06
1.16408e-07
0.000231632
7.90994e-08
8.00858e-08
0.000231757
-1.00382e-06
-6.27414e-08
0.000231991
-5.27971e-07
-1.16105e-07
0.000231914
-5.20484e-07
1.79705e-07
0.000231672
9.14895e-07
8.91893e-09
0.000231723
-4.30794e-07
2.55886e-07
0.000231904
-7.84281e-07
1.24131e-07
0.000231991
-4.87634e-07
1.55786e-07
0.000231899
4.75933e-07
1.88297e-07
0.000231736
7.77224e-07
1.56764e-07
1.13177e-06
3.50501e-07
0.000210807
-4.86221e-07
3.2042e-07
0.000210999
-7.70326e-07
1.10473e-08
0.000210991
1.48069e-07
4.261e-07
0.000210604
1.69687e-06
2.39725e-07
0.00021051
9.49734e-07
2.54581e-07
0.000210742
-9.85531e-07
1.04522e-07
0.000211019
-1.02081e-06
2.03001e-07
0.000210946
1.74383e-07
3.10295e-07
0.000210611
1.75513e-06
2.92113e-08
0.000210565
5.9593e-07
3.01491e-07
0.000210814
-1.43317e-06
6.52556e-08
0.000211113
-1.11029e-06
6.63303e-08
0.000211056
-1.82453e-08
-4.78114e-08
0.000210655
2.06692e-06
1.26254e-07
0.000210552
7.98653e-07
1.17326e-07
0.000210765
-1.1402e-06
1.79216e-07
0.000211096
-8.51456e-07
1.23515e-07
0.000210944
3.03453e-07
2.46246e-07
0.000210602
2.19719e-06
9.66704e-08
0.00021055
7.28738e-07
-8.34045e-08
0.000210652
-8.50473e-07
5.49949e-08
0.000211
-8.19297e-07
-2.41703e-07
0.000210882
-1.02829e-06
3.13072e-07
0.000210625
2.1062e-06
-1.55923e-07
0.000210548
-6.86273e-07
1.12372e-07
0.000210761
-1.26115e-06
2.27198e-08
0.000211163
-1.69571e-06
-4.81804e-08
0.000210984
-7.62525e-07
7.33616e-08
0.000210725
1.6763e-06
1.81787e-07
0.00021061
1.95801e-07
1.43558e-07
0.000210796
-1.3116e-06
-5.0135e-08
0.0002111
-8.93579e-07
-1.5251e-07
0.000210951
-6.1513e-07
2.521e-07
0.000210706
1.14524e-06
5.31258e-08
0.00021073
-6.60381e-07
3.61587e-07
0.000210953
-1.16247e-06
2.2066e-07
0.000211087
-8.2766e-07
2.09185e-07
0.000210962
4.48626e-07
2.50627e-07
0.000210777
9.61203e-07
2.19432e-07
1.38643e-06
4.99212e-07
0.000191722
-8.39555e-07
4.70709e-07
0.000191982
-1.35859e-06
2.61505e-08
0.000191954
-1.7637e-07
6.19129e-07
0.000191522
2.03214e-06
4.07165e-07
0.000191385
1.04382e-06
3.69963e-07
0.000191661
-1.38999e-06
2.13111e-07
0.000192019
-1.65284e-06
2.85725e-07
0.000191898
1.01474e-07
4.68124e-07
0.000191529
2.21805e-06
1.31165e-07
0.000191425
7.15734e-07
4.21437e-07
0.000191737
-2.01821e-06
1.63024e-07
0.000192123
-1.7115e-06
7.14752e-08
0.000192019
-9.72839e-08
2.01729e-08
0.000191571
2.56349e-06
2.19847e-07
0.000191418
8.73906e-07
1.90834e-07
0.000191695
-1.72197e-06
2.90025e-07
0.000192107
-1.444e-06
1.18933e-07
0.000191896
3.49995e-07
3.74477e-07
0.000191527
2.78375e-06
1.52413e-07
0.000191418
9.3855e-07
-5.23033e-08
0.000191564
-1.28508e-06
1.06212e-07
0.000191995
-1.32378e-06
-2.86305e-07
0.000191833
-1.2835e-06
4.57583e-07
0.000191554
2.59697e-06
-1.04717e-07
0.000191404
-7.1254e-07
1.93109e-07
0.000191707
-1.81005e-06
8.16801e-08
0.000192159
-2.41724e-06
-5.14455e-08
0.000191949
-9.59363e-07
1.69589e-07
0.000191658
2.00372e-06
2.91147e-07
0.000191464
3.64799e-07
2.43596e-07
0.000191737
-1.80795e-06
-2.44136e-08
0.000192088
-1.37863e-06
-1.90781e-07
0.000191879
-7.81644e-07
3.66252e-07
0.000191633
1.34179e-06
1.48146e-07
0.000191612
-9.54668e-07
5.13183e-07
0.000191901
-1.74667e-06
3.60089e-07
0.000192073
-1.31667e-06
2.63612e-07
0.000191917
3.17709e-07
3.38304e-07
0.000191713
1.1233e-06
3.23381e-07
1.68955e-06
6.98451e-07
0.000174387
-1.37854e-06
6.26979e-07
0.000174685
-2.17319e-06
4.10122e-09
0.000174657
-7.27193e-07
8.78517e-07
0.000174202
2.34248e-06
6.84654e-07
0.000174023
1.10015e-06
5.66159e-07
0.000174335
-1.96086e-06
3.30609e-07
0.000174741
-2.4701e-06
3.31382e-07
0.000174585
-7.79735e-08
6.80131e-07
0.000174187
2.71523e-06
3.44294e-07
0.000174048
8.34362e-07
6.33986e-07
0.00017443
-2.85303e-06
2.63088e-07
0.000174863
-2.44152e-06
2.20756e-08
0.00017472
-2.41527e-07
1.26436e-07
0.000174231
3.08625e-06
4.09313e-07
0.000174043
8.59989e-07
3.60689e-07
0.000174385
-2.59945e-06
4.09202e-07
0.000174841
-2.19889e-06
5.90616e-08
0.000174584
3.44185e-07
5.37454e-07
0.000174183
3.46766e-06
2.88076e-07
0.000174036
1.1627e-06
5.88534e-08
0.000174226
-1.95745e-06
1.48469e-07
0.00017471
-1.97587e-06
-3.74268e-07
0.000174528
-1.65118e-06
6.38804e-07
0.00017422
3.17064e-06
5.04687e-08
0.000174031
-7.90401e-07
3.69559e-07
0.000174407
-2.60312e-06
1.2846e-07
0.000174878
-3.29335e-06
-1.21952e-07
0.000174659
-1.30092e-06
2.99635e-07
0.000174323
2.34296e-06
5.07998e-07
0.00017408
5.16503e-07
4.3416e-07
0.000174433
-2.54957e-06
-1.00214e-08
0.000174798
-2.00611e-06
-2.7148e-07
0.000174549
-1.08453e-06
5.43357e-07
0.000174303
1.50019e-06
3.67739e-07
0.000174261
-1.38627e-06
7.62533e-07
0.000174613
-2.5867e-06
5.06523e-07
0.000174786
-1.96665e-06
2.54733e-07
0.000174617
1.08656e-08
4.49338e-07
0.0001744
1.23603e-06
5.25709e-07
2.00223e-06
9.86078e-07
0.000158685
-2.08383e-06
6.61609e-07
0.000158954
-3.28476e-06
-2.32578e-07
0.000158989
-1.65708e-06
1.20797e-06
0.000158584
2.59903e-06
1.24541e-06
0.000158391
1.07606e-06
1.01448e-06
0.000158649
-2.67199e-06
3.5636e-07
0.00015903
-3.48063e-06
1.47753e-07
0.000158889
-4.50027e-07
9.13398e-07
0.000158514
3.23471e-06
8.67316e-07
0.000158411
8.58396e-07
1.12955e-06
0.000158802
-3.93526e-06
2.78227e-07
0.00015919
-3.26678e-06
-2.5826e-07
0.000159059
-5.60225e-07
2.76741e-07
0.000158577
3.58127e-06
8.74336e-07
0.000158406
6.07999e-07
8.15161e-07
0.000158732
-3.78273e-06
4.62082e-07
0.000159149
-3.11099e-06
-2.48959e-07
0.00015889
1.83267e-07
7.07275e-07
0.0001585
4.22291e-06
6.86493e-07
0.000158366
1.27699e-06
4.39643e-07
0.000158516
-2.8542e-06
8.39374e-08
0.000158999
-2.82965e-06
-6.52903e-07
0.000158858
-2.24123e-06
8.42855e-07
0.000158564
3.8126e-06
5.13837e-07
0.000158414
-1.03617e-06
8.65471e-07
0.000158754
-3.59905e-06
7.65803e-08
0.000159167
-4.34092e-06
-4.49791e-07
0.000158993
-1.89558e-06
4.45013e-07
0.000158658
2.66548e-06
1.03561e-06
0.000158426
5.35032e-07
9.03114e-07
0.000158769
-3.55457e-06
-9.08656e-08
0.000159103
-2.87008e-06
-5.58859e-07
0.000158875
-1.65406e-06
8.1737e-07
0.000158664
1.62128e-06
9.60031e-07
0.000158645
-2.04898e-06
1.28745e-06
0.000158968
-3.68591e-06
5.42521e-07
0.000159074
-2.84353e-06
-2.42004e-08
0.000158946
-6.21116e-07
5.57733e-07
0.000158771
1.24948e-06
1.00941e-06
2.23881e-06
1.50607e-06
0.000144337
-2.93013e-06
2.59029e-07
0.000144516
-5.00007e-06
-1.06559e-06
0.000144747
-3.32702e-06
1.6524e-06
0.000144545
2.78833e-06
2.50305e-06
0.00014432
1.10563e-06
2.07454e-06
0.000144304
-3.37544e-06
2.13302e-08
0.000144604
-4.85525e-06
-7.15872e-07
0.000144648
-1.32788e-06
1.12298e-06
0.000144443
3.7376e-06
2.16365e-06
0.000144378
8.09307e-07
2.29307e-06
0.000144576
-5.13487e-06
-1.66953e-08
0.000144849
-4.38589e-06
-1.12624e-06
0.000144896
-1.45469e-06
4.94938e-07
0.000144575
3.89294e-06
2.04062e-06
0.000144392
9.53599e-08
1.92341e-06
0.000144453
-5.09693e-06
2.37596e-07
0.000144754
-4.35704e-06
-1.23107e-06
0.000144659
-5.37891e-07
8.72636e-07
0.000144424
4.92537e-06
1.78631e-06
0.000144282
1.27924e-06
1.41581e-06
0.000144204
-3.85434e-06
-3.095e-07
0.000144644
-4.13559e-06
-1.45344e-06
0.000144678
-3.39985e-06
1.0834e-06
0.000144539
4.428e-06
1.71073e-06
0.000144431
-1.38726e-06
2.10118e-06
0.000144476
-4.61183e-06
-2.75598e-07
0.000144722
-5.75317e-06
-1.44133e-06
0.000144762
-3.10454e-06
6.10353e-07
0.000144592
2.9099e-06
2.3413e-06
0.000144341
4.46312e-07
2.02104e-06
0.000144471
-4.74885e-06
-5.17945e-07
0.00014478
-4.32919e-06
-1.42421e-06
0.000144761
-2.88134e-06
1.26612e-06
0.000144666
1.72509e-06
2.46544e-06
0.00014454
-2.82513e-06
2.44387e-06
0.000144588
-4.93059e-06
1.71222e-07
0.000144641
-4.24948e-06
-1.09769e-06
0.000144708
-2.00421e-06
6.50388e-07
0.000144695
1.12175e-06
2.2289e-06
2.41213e-06
2.59849e-06
0.000130549
-4.14523e-06
-1.16747e-06
0.000130641
-7.85922e-06
-2.81578e-06
0.00013114
-5.95806e-06
2.50522e-06
0.000131337
3.01803e-06
4.9829e-06
0.000130937
1.55385e-06
3.81711e-06
0.000130496
-4.08385e-06
-1.23259e-06
0.000130793
-7.05942e-06
-2.65587e-06
0.000131286
-3.11928e-06
1.50775e-06
0.000131434
4.20742e-06
4.81363e-06
0.000131114
9.7788e-07
4.19728e-06
0.000130924
-6.39388e-06
-1.21033e-06
0.000131168
-6.37731e-06
-2.92048e-06
0.000131595
-3.46249e-06
1.0609e-06
0.000131651
3.88628e-06
4.45754e-06
0.000131163
-3.05188e-07
3.76499e-06
0.000130687
-6.31831e-06
-8.72632e-07
0.000130956
-6.4567e-06
-3.34288e-06
0.000131288
-2.36937e-06
1.30072e-06
0.000131434
5.45951e-06
4.16122e-06
0.000131049
1.47481e-06
3.06382e-06
0.000130678
-4.89721e-06
-1.59092e-06
0.000131044
-6.32965e-06
-3.03749e-06
0.000131357
-5.41898e-06
1.60997e-06
0.000131607
4.86008e-06
4.18812e-06
0.00013126
-1.41315e-06
4.13182e-06
0.000130789
-5.49567e-06
-1.54241e-06
0.00013079
-7.96314e-06
-3.43863e-06
0.000131251
-5.33639e-06
1.09988e-06
0.000131492
3.06928e-06
5.01943e-06
0.000130983
5.43042e-07
3.84405e-06
0.000130751
-6.12925e-06
-1.86662e-06
0.000131135
-6.95798e-06
-3.12214e-06
0.000131591
-5.14931e-06
2.20234e-06
0.000131676
1.85756e-06
5.43851e-06
0.000130949
-3.25473e-06
4.18653e-06
0.000130522
-6.34618e-06
-1.28488e-06
0.00013072
-6.88672e-06
-3.30806e-06
0.000131153
-4.59451e-06
1.04888e-06
0.000131404
9.88043e-07
4.79675e-06
2.69347e-06
4.35504e-06
0.000116529
-6.35681e-06
-4.41184e-06
0.000116277
-1.15641e-05
-4.72108e-06
0.000116754
-8.57191e-06
4.51455e-06
0.000117539
3.35685e-06
8.47456e-06
0.000117087
2.02582e-06
4.92466e-06
0.000116534
-5.38369e-06
-4.22134e-06
0.000116774
-1.00236e-05
-5.0374e-06
0.000117612
-5.20553e-06
2.91451e-06
0.000118176
4.60744e-06
8.67942e-06
0.000117433
1.08022e-06
5.48392e-06
0.000117043
-8.12054e-06
-4.10615e-06
0.00011714
-9.21751e-06
-4.97415e-06
0.000117707
-5.96335e-06
2.82154e-06
0.000118265
3.59782e-06
7.97833e-06
0.000117363
-5.93545e-07
5.0075e-06
0.000116589
-7.75658e-06
-3.80954e-06
0.000116807
-9.44361e-06
-5.99002e-06
0.000117461
-4.70103e-06
2.94864e-06
0.00011819
5.7943e-06
7.76197e-06
0.000117531
1.69775e-06
4.25866e-06
0.000117191
-6.40172e-06
-4.37086e-06
0.000117173
-9.22446e-06
-4.70492e-06
0.000117542
-7.57953e-06
3.14913e-06
0.000118386
4.96525e-06
7.8374e-06
0.000117632
-1.20754e-06
5.53047e-06
0.000116878
-6.72066e-06
-4.5227e-06
0.000116444
-1.08602e-05
-5.68676e-06
0.000117144
-7.82579e-06
2.87797e-06
0.000117916
3.17665e-06
8.97107e-06
0.000117158
5.3267e-07
5.00133e-06
0.000116818
-8.07514e-06
-4.80956e-06
0.000117096
-1.04576e-05
-4.83788e-06
0.000117888
-7.72514e-06
4.36578e-06
0.000118174
1.88138e-06
9.42123e-06
0.000116713
-3.59627e-06
4.99994e-06
0.000116118
-8.45667e-06
-4.5422e-06
0.00011634
-1.06443e-05
-5.75571e-06
0.000116839
-7.59231e-06
2.81219e-06
0.000117407
1.01318e-06
8.59336e-06
2.57458e-06
5.42464e-06
0.000102459
-9.36692e-06
-8.8192e-06
0.00010119
-1.40778e-05
-4.80049e-06
0.000101327
-9.69043e-06
7.90625e-06
0.000102962
3.0778e-06
1.1051e-05
0.000103094
1.04892e-06
3.28044e-06
0.00010276
-7.49756e-06
-8.46851e-06
0.000102361
-1.20837e-05
-5.85902e-06
0.000102999
-6.10378e-06
5.97237e-06
0.000104038
4.32242e-06
1.18154e-05
0.000103458
-1.57763e-07
3.92669e-06
0.0001031
-1.03109e-05
-8.1527e-06
0.000102351
-1.12087e-05
-5.27681e-06
0.000102552
-7.43691e-06
6.19065e-06
0.000103748
2.65682e-06
1.06727e-05
0.00010306
-1.82009e-06
3.46416e-06
0.000102458
-9.66829e-06
-8.21907e-06
0.000102068
-1.17107e-05
-6.93556e-06
0.000102579
-6.00426e-06
6.52785e-06
0.00010409
5.41225e-06
1.0829e-05
0.000103771
7.5146e-07
3.02658e-06
0.000103598
-8.42972e-06
-8.08042e-06
0.000102507
-1.12447e-05
-4.70363e-06
0.000102643
-8.62837e-06
6.0562e-06
0.000104203
4.23727e-06
1.07777e-05
0.000103568
-1.99517e-06
4.05381e-06
0.000102861
-8.53369e-06
-8.7145e-06
0.000101542
-1.2883e-05
-6.09237e-06
0.000102046
-9.02518e-06
6.51257e-06
0.00010342
2.70079e-06
1.21863e-05
0.000103082
-7.6478e-07
3.2774e-06
0.000102862
-1.04139e-05
-8.72201e-06
0.000102339
-1.28697e-05
-4.65828e-06
0.000102958
-9.12044e-06
7.86664e-06
0.00010359
1.04339e-06
1.21018e-05
0.000102257
-5.1493e-06
2.87602e-06
0.000101826
-1.1146e-05
-8.77193e-06
0.000101251
-1.3488e-05
-6.14584e-06
0.000101326
-9.2674e-06
6.45214e-06
0.000102504
5.32328e-07
1.15987e-05
6.92119e-07
3.60761e-06
8.85753e-05
-1.11976e-05
-1.18199e-05
8.60557e-05
-1.37536e-05
-1.99454e-06
8.6189e-05
-9.46584e-06
1.09767e-05
8.89459e-05
1.08628e-06
1.01427e-05
8.98782e-05
-1.72591e-06
-1.25736e-06
8.93528e-05
-8.90467e-06
-1.1558e-05
8.78635e-05
-1.15841e-05
-3.67932e-06
8.82483e-05
-5.72996e-06
9.27933e-06
9.00088e-05
2.41456e-06
1.14714e-05
8.99993e-05
-2.98285e-06
-6.38267e-07
8.92682e-05
-1.14494e-05