/*--------------------------------*- C++ -*----------------------------------*\
  =========                 |
  \\      /  F ield         | OpenFOAM: The Open Source CFD Toolbox
   \\    /   O peration     | Website:  https://openfoam.org
    \\  /    A nd           | Version:  10
     \\/     M anipulation  |
\*---------------------------------------------------------------------------*/
FoamFile
{
    format      ascii;
    class       volScalarField;
    location    "12";
    object      pPrime2Mean;
}
// * * * * * * * * * * * * * * * * * * * * * * * * * * * * * * * * * * * * * //

dimensions      [0 4 -4 0 0 0 0];

internalField   nonuniform List<scalar> 
25600
(
8.6342e-08
9.27081e-08
8.92004e-08
8.6533e-08
9.08523e-08
7.90227e-08
7.69351e-08
6.09543e-08
6.22397e-08
8.25558e-08
5.61776e-08
6.10043e-08
8.35009e-08
6.74328e-08
6.66342e-08
8.21477e-08
7.88113e-08
6.15807e-08
7.79527e-08
8.42317e-08
7.02044e-08
8.23892e-08
8.4534e-08
8.16727e-08
9.61677e-08
1.00922e-07
8.99023e-08
1.11327e-07
1.16603e-07
8.6828e-08
1.23706e-07
1.14458e-07
8.68337e-08
1.33764e-07
1.008e-07
8.12243e-08
1.14807e-07
8.61558e-08
7.4936e-08
8.74256e-08
1.03977e-07
1.30969e-07
1.10838e-07
9.05235e-08
1.10039e-07
9.0447e-08
6.12647e-08
6.72836e-08
7.93458e-08
7.54474e-08
6.47728e-08
6.75699e-08
6.3986e-08
6.1154e-08
6.10555e-08
6.67168e-08
7.03031e-08
6.46264e-08
8.04772e-08
7.83729e-08
8.34076e-08
9.32615e-08
8.37497e-08
9.02828e-08
9.29663e-08
1.04548e-07
9.13875e-08
1.07313e-07
1.26731e-07
8.96937e-08
1.36065e-07
1.24541e-07
9.42019e-08
1.59816e-07
1.10017e-07
9.27525e-08
1.3036e-07
9.49775e-08
1.0188e-07
1.06051e-07
1.04022e-07
1.39442e-07
1.09426e-07
8.50098e-08
1.17225e-07
9.69259e-08
6.10269e-08
8.44526e-08
1.10619e-07
8.6429e-08
8.52148e-08
8.99638e-08
6.04424e-08
6.78635e-08
6.44586e-08
5.56583e-08
6.32922e-08
6.64857e-08
7.66866e-08
7.31515e-08
1.00491e-07
9.71449e-08
8.59663e-08
1.03397e-07
8.49803e-08
1.06042e-07
9.36088e-08
1.01347e-07
1.32074e-07
9.87489e-08
1.44764e-07
1.29032e-07
1.07937e-07
1.7769e-07
1.17223e-07
1.00865e-07
1.40689e-07
9.99721e-08
1.09032e-07
1.09204e-07
9.48099e-08
1.35873e-07
1.00457e-07
8.75588e-08
1.27195e-07
1.0336e-07
6.98998e-08
1.01454e-07
1.34056e-07
9.13017e-08
9.76577e-08
1.01576e-07
5.428e-08
7.62679e-08
7.06696e-08
5.1294e-08
6.0708e-08
6.68493e-08
6.9239e-08
6.96927e-08
1.12666e-07
9.36697e-08
9.03063e-08
1.12872e-07
7.92387e-08
1.12528e-07
1.00544e-07
1.03555e-07
1.41656e-07
1.12693e-07
1.45522e-07
1.27237e-07
1.23396e-07
1.86691e-07
1.20986e-07
1.12701e-07
1.49059e-07
9.54197e-08
1.03739e-07
1.01796e-07
9.54908e-08
1.37749e-07
9.90623e-08
1.08389e-07
1.47226e-07
1.13481e-07
8.31403e-08
1.19691e-07
1.48137e-07
9.23678e-08
1.09093e-07
1.00306e-07
4.85449e-08
8.76432e-08
7.56285e-08
5.25322e-08
5.95065e-08
6.77721e-08
6.67169e-08
7.35486e-08
1.27046e-07
9.57724e-08
9.85014e-08
1.17643e-07
7.85262e-08
1.18148e-07
1.05984e-07
1.1278e-07
1.52377e-07
1.25775e-07
1.45673e-07
1.31885e-07
1.49655e-07
1.9671e-07
1.23748e-07
1.34139e-07
1.54821e-07
8.66026e-08
1.06463e-07
9.87732e-08
1.10736e-07
1.47787e-07
1.1108e-07
1.47518e-07
1.78205e-07
1.2742e-07
1.00499e-07
1.43289e-07
1.58866e-07
9.68046e-08
1.26686e-07
9.37361e-08
5.20018e-08
1.06956e-07
8.17246e-08
5.8769e-08
6.01054e-08
7.23863e-08
7.17355e-08
8.47766e-08
1.52335e-07
1.12519e-07
1.0886e-07
1.22277e-07
8.57977e-08
1.19514e-07
1.09621e-07
1.29444e-07
1.65228e-07
1.4072e-07
1.55726e-07
1.48533e-07
1.91366e-07
2.13608e-07
1.30369e-07
1.63369e-07
1.55137e-07
8.03849e-08
1.22678e-07
1.04427e-07
1.37713e-07
1.64382e-07
1.39406e-07
2.0233e-07
2.17732e-07
1.45238e-07
1.21851e-07
1.74611e-07
1.72946e-07
1.0806e-07
1.48432e-07
8.7487e-08
7.08207e-08
1.37834e-07
9.2667e-08
7.1815e-08
6.5605e-08
8.10561e-08
8.08778e-08
1.05639e-07
1.95459e-07
1.45792e-07
1.17931e-07
1.33416e-07
1.03623e-07
1.20211e-07
1.21488e-07
1.60183e-07
1.85568e-07
1.67894e-07
1.83005e-07
1.76703e-07
2.48821e-07
2.40518e-07
1.47222e-07
1.98259e-07
1.50209e-07
8.39801e-08
1.5292e-07
1.20647e-07
1.7418e-07
1.87289e-07
1.85881e-07
2.70977e-07
2.66472e-07
1.71868e-07
1.4953e-07
2.20299e-07
2.0082e-07
1.32441e-07
1.76678e-07
9.19718e-08
1.12574e-07
1.84952e-07
1.15735e-07
1.00263e-07
8.22573e-08
9.52192e-08
9.5955e-08
1.46638e-07
2.63498e-07
1.9138e-07
1.29071e-07
1.56663e-07
1.33076e-07
1.28145e-07
1.47922e-07
2.08836e-07
2.19921e-07
2.16521e-07
2.29105e-07
2.18413e-07
3.25321e-07
2.82735e-07
1.78536e-07
2.37593e-07
1.4389e-07
1.0387e-07
2.00408e-07
1.51919e-07
2.21467e-07
2.21695e-07
2.53816e-07
3.57154e-07
3.32804e-07
2.15209e-07
1.88898e-07
2.9019e-07
2.5373e-07
1.78334e-07
2.20908e-07
1.23617e-07
1.90534e-07
2.58465e-07
1.64227e-07
1.54115e-07
1.16693e-07
1.2334e-07
1.31204e-07
2.2464e-07
3.61586e-07
2.46774e-07
1.53114e-07
2.00052e-07
1.79944e-07
1.52664e-07
1.9617e-07
2.8027e-07
2.77463e-07
2.94037e-07
2.94139e-07
2.79555e-07
4.26941e-07
3.46544e-07
2.30007e-07
2.84072e-07
1.46463e-07
1.47267e-07
2.73657e-07
2.07028e-07
2.88467e-07
2.80184e-07
3.51865e-07
4.72553e-07
4.30982e-07
2.83176e-07
2.5377e-07
4.02939e-07
3.46024e-07
2.62025e-07
3.00151e-07
2.03209e-07
3.2119e-07
3.74256e-07
2.58506e-07
2.4945e-07
1.83915e-07
1.81543e-07
2.0891e-07
3.58096e-07
4.96128e-07
3.21777e-07
2.10218e-07
2.78907e-07
2.54945e-07
2.05964e-07
2.75976e-07
3.82763e-07
3.7298e-07
4.11856e-07
3.86745e-07
3.76589e-07
5.70021e-07
4.44832e-07
3.12699e-07
3.47522e-07
1.73244e-07
2.29338e-07
3.87926e-07
2.97854e-07
3.9526e-07
3.82241e-07
4.93191e-07
6.36533e-07
5.78536e-07
3.88291e-07
3.63704e-07
5.79268e-07
4.99498e-07
4.07435e-07
4.42298e-07
3.59357e-07
5.3063e-07
5.55745e-07
4.2451e-07
4.06458e-07
3.10334e-07
2.9941e-07
3.58686e-07
5.66796e-07
6.79577e-07
4.44716e-07
3.32246e-07
4.17928e-07
3.7747e-07
3.04027e-07
4.03336e-07
5.38347e-07
5.28155e-07
5.84115e-07
5.25117e-07
5.32028e-07
7.72226e-07
5.92565e-07
4.40252e-07
4.46207e-07
2.45925e-07
3.73821e-07
5.65758e-07
4.45848e-07
5.71811e-07
5.5786e-07
7.08335e-07
8.81967e-07
7.97538e-07
5.55692e-07
5.51406e-07
8.49229e-07
7.52435e-07
6.55556e-07
6.94628e-07
6.36927e-07
8.60421e-07
8.46672e-07
7.04539e-07
6.6071e-07
5.30554e-07
5.12539e-07
6.1472e-07
8.73292e-07
9.46954e-07
6.6017e-07
5.60527e-07
6.47653e-07
5.74863e-07
4.71454e-07
6.04923e-07
7.78564e-07
7.70673e-07
8.39174e-07
7.44274e-07
7.86879e-07
1.06633e-06
8.19632e-07
6.47958e-07
6.14022e-07
3.99179e-07
6.16707e-07
8.35717e-07
6.7875e-07
8.75177e-07
8.58221e-07
1.03953e-06
1.24722e-06
1.12012e-06
8.20832e-07
8.61409e-07
1.25597e-06
1.15266e-06
1.05885e-06
1.11974e-06
1.10095e-06
1.36719e-06
1.30012e-06
1.15439e-06
1.07149e-06
8.95153e-07
8.65253e-07
1.01433e-06
1.31794e-06
1.35393e-06
1.03103e-06
9.51925e-07
1.01971e-06
8.92133e-07
7.36609e-07
9.1651e-07
1.14293e-06
1.1379e-06
1.21522e-06
1.09215e-06
1.19183e-06
1.4894e-06
1.15756e-06
9.69319e-07
8.88877e-07
6.80412e-07
1.00755e-06
1.24146e-06
1.04697e-06
1.37788e-06
1.34329e-06
1.54938e-06
1.78721e-06
1.58912e-06
1.22805e-06
1.35519e-06
1.88227e-06
1.79042e-06
1.70477e-06
1.81632e-06
1.84113e-06
2.12657e-06
2.00217e-06
1.84494e-06
1.70479e-06
1.46817e-06
1.4214e-06
1.6039e-06
1.94679e-06
1.96787e-06
1.63165e-06
1.58721e-06
1.60808e-06
1.38706e-06
1.14787e-06
1.38769e-06
1.68642e-06
1.68067e-06
1.76877e-06
1.66168e-06
1.83009e-06
2.11378e-06
1.65059e-06
1.45744e-06
1.33439e-06
1.16159e-06
1.60977e-06
1.85233e-06
1.62483e-06
2.19987e-06
2.12115e-06
2.3561e-06
2.60576e-06
2.27759e-06
1.83921e-06
2.09783e-06
2.80501e-06
2.76575e-06
2.70149e-06
2.9311e-06
3.01225e-06
3.25965e-06
3.05848e-06
2.87681e-06
2.65504e-06
2.3196e-06
2.25711e-06
2.47034e-06
2.84684e-06
2.88206e-06
2.56813e-06
2.57376e-06
2.52387e-06
2.15003e-06
1.77856e-06
2.0835e-06
2.47034e-06
2.45249e-06
2.58187e-06
2.56056e-06
2.78565e-06
3.00835e-06
2.36862e-06
2.18009e-06
2.01761e-06
1.91868e-06
2.5137e-06
2.77077e-06
2.51517e-06
3.50226e-06
3.30313e-06
3.55844e-06
3.77848e-06
3.2559e-06
2.72305e-06
3.18683e-06
4.15087e-06
4.1943e-06
4.16485e-06
4.57015e-06
4.74634e-06
4.88802e-06
4.59116e-06
4.35394e-06
4.03678e-06
3.56308e-06
3.49483e-06
3.71516e-06
4.11625e-06
4.2346e-06
3.99165e-06
4.07175e-06
3.91648e-06
3.28802e-06
2.72195e-06
3.08852e-06
3.57883e-06
3.55469e-06
3.77183e-06
3.91215e-06
4.18139e-06
4.2877e-06
3.43298e-06
3.23636e-06
3.0362e-06
3.05122e-06
3.8598e-06
4.168e-06
3.88626e-06
5.4562e-06
5.05463e-06
5.32459e-06
5.37062e-06
4.57666e-06
3.98548e-06
4.82744e-06
6.1388e-06
6.30814e-06
6.28565e-06
6.99764e-06
7.28184e-06
7.22764e-06
6.74258e-06
6.36308e-06
5.95086e-06
5.3505e-06
5.30871e-06
5.57428e-06
5.99727e-06
6.2471e-06
6.13355e-06
6.32706e-06
5.98703e-06
4.95366e-06
4.13539e-06
4.59744e-06
5.21251e-06
5.15439e-06
5.51459e-06
5.91768e-06
6.22931e-06
6.07491e-06
4.95156e-06
4.74694e-06
4.53566e-06
4.70355e-06
5.82329e-06
6.2478e-06
5.92177e-06
8.26626e-06
7.53556e-06
7.77636e-06
7.40916e-06
6.2047e-06
5.63082e-06
7.05508e-06
8.85724e-06
9.29636e-06
9.38061e-06
1.04948e-05
1.08201e-05
1.04151e-05
9.63537e-06
8.97707e-06
8.493e-06
7.82605e-06
7.90741e-06
8.30906e-06
8.767e-06
9.18054e-06
9.14512e-06
9.48392e-06
8.8335e-06
7.19433e-06
5.99033e-06
6.58964e-06
7.40801e-06
7.42345e-06
8.03771e-06
8.89696e-06
9.26582e-06
8.6204e-06
7.10329e-06
6.822e-06
6.68207e-06
7.02277e-06
8.61615e-06
9.15403e-06
8.80432e-06
1.17326e-05
1.06268e-05
1.08705e-05
9.85514e-06
8.28036e-06
7.91658e-06
1.00653e-05
1.25208e-05
1.32194e-05
1.34965e-05
1.50359e-05
1.53319e-05
1.45096e-05
1.32678e-05
1.21468e-05
1.16818e-05
1.10599e-05
1.12359e-05
1.19758e-05
1.25512e-05
1.32089e-05
1.33373e-05
1.38114e-05
1.24283e-05
9.88545e-06
8.36006e-06
9.30069e-06
1.04787e-05
1.08595e-05
1.1878e-05
1.33764e-05
1.36565e-05
1.22042e-05
1.00126e-05
9.5563e-06
9.47599e-06
9.98778e-06
1.22023e-05
1.26975e-05
1.2378e-05
1.56794e-05
1.44373e-05
1.45769e-05
1.25338e-05
1.08336e-05
1.09951e-05
1.401e-05
1.71048e-05
1.80568e-05
1.85955e-05
2.0585e-05
2.08469e-05
1.93816e-05
1.74091e-05
1.56076e-05
1.50852e-05
1.46977e-05
1.48761e-05
1.61744e-05
1.71733e-05
1.81902e-05
1.84073e-05
1.84529e-05
1.60857e-05
1.2478e-05
1.06039e-05
1.19661e-05
1.38466e-05
1.48389e-05
1.64439e-05
1.88573e-05
1.8789e-05
1.64538e-05
1.34254e-05
1.25233e-05
1.25089e-05
1.32703e-05
1.6196e-05
1.6362e-05
1.63309e-05
1.9828e-05
1.81242e-05
1.80576e-05
1.5029e-05
1.35161e-05
1.44724e-05
1.83816e-05
2.20554e-05
2.31427e-05
2.40042e-05
2.65821e-05
2.71601e-05
2.45868e-05
2.16856e-05
1.88797e-05
1.8016e-05
1.76971e-05
1.81935e-05
2.03513e-05
2.24273e-05
2.36484e-05
2.38404e-05
2.3029e-05
2.03199e-05
1.55941e-05
1.30987e-05
1.48709e-05
1.76703e-05
1.93145e-05
2.12849e-05
2.43774e-05
2.33451e-05
2.01761e-05
1.65283e-05
1.53964e-05
1.58568e-05
1.72211e-05
2.06836e-05
2.05081e-05
2.11265e-05
2.34377e-05
2.09523e-05
2.03607e-05
1.67863e-05
1.58612e-05
1.79108e-05
2.26198e-05
2.65177e-05
2.73761e-05
2.84512e-05
3.16478e-05
3.23234e-05
2.86688e-05
2.52746e-05
2.16852e-05
2.04842e-05
1.98572e-05
2.04103e-05
2.33678e-05
2.65861e-05
2.79595e-05
2.83403e-05
2.7052e-05
2.43626e-05
1.86928e-05
1.53408e-05
1.74184e-05
2.10461e-05
2.32069e-05
2.54502e-05
2.89932e-05
2.69388e-05
2.34635e-05
1.88711e-05
1.84291e-05
1.96644e-05
2.12223e-05
2.46509e-05
2.45554e-05
2.53467e-05
2.51785e-05
2.23166e-05
2.15056e-05
1.77901e-05
1.78964e-05
2.0541e-05
2.5745e-05
2.94278e-05
3.01598e-05
3.16187e-05
3.50254e-05
3.53952e-05
3.09002e-05
2.74334e-05
2.36594e-05
2.26151e-05
2.15252e-05
2.20752e-05
2.57421e-05
2.98754e-05
3.10251e-05
3.11945e-05
2.9133e-05
2.687e-05
2.09441e-05
1.71431e-05
1.95502e-05
2.34513e-05
2.59264e-05
2.9282e-05
3.39641e-05
3.10419e-05
2.70043e-05
2.1849e-05
2.1958e-05
2.32643e-05
2.4349e-05
2.74332e-05
2.68485e-05
2.73163e-05
2.5819e-05
2.27811e-05
2.20269e-05
1.81727e-05
1.96184e-05
2.22699e-05
2.79361e-05
3.19531e-05
3.23938e-05
3.42091e-05
3.7002e-05
3.71516e-05
3.22245e-05
2.87242e-05
2.48378e-05
2.3666e-05
2.22842e-05
2.32213e-05
2.74697e-05
3.18395e-05
3.23794e-05
3.22692e-05
2.92158e-05
2.80111e-05
2.22302e-05
1.78526e-05
2.05502e-05
2.4344e-05
2.70265e-05
3.20426e-05
3.75452e-05
3.43683e-05
2.9527e-05
2.44055e-05
2.48463e-05
2.60397e-05
2.70107e-05
2.95318e-05
2.85278e-05
2.84247e-05
2.58306e-05
2.26456e-05
2.21285e-05
1.87178e-05
2.09704e-05
2.39888e-05
2.99252e-05
3.43114e-05
3.41337e-05
3.61057e-05
3.78054e-05
3.80929e-05
3.33976e-05
3.0192e-05
2.60867e-05
2.45482e-05
2.30985e-05
2.43701e-05
2.90501e-05
3.30238e-05
3.2974e-05
3.32354e-05
2.93085e-05
2.93062e-05
2.32956e-05
1.8085e-05
2.1308e-05
2.50581e-05
2.8028e-05
3.43545e-05
3.96346e-05
3.56662e-05
3.08203e-05
2.59976e-05
2.67483e-05
2.84177e-05
2.94483e-05
3.12867e-05
2.98084e-05
2.90545e-05
2.59461e-05
2.21628e-05
2.18721e-05
1.92694e-05
2.16799e-05
2.48727e-05
3.08615e-05
3.58341e-05
3.51955e-05
3.75363e-05
3.85435e-05
3.93072e-05
3.45817e-05
3.15103e-05
2.71933e-05
2.54233e-05
2.41846e-05
2.56811e-05
3.11753e-05
3.45514e-05
3.39876e-05
3.45888e-05
3.00592e-05
3.06598e-05
2.41593e-05
1.81356e-05
2.20026e-05
2.56239e-05
2.88306e-05
3.58878e-05
4.11444e-05
3.64554e-05
3.17596e-05
2.69913e-05
2.75955e-05
2.99386e-05
3.17106e-05
3.2807e-05
3.09229e-05
2.95785e-05
2.62889e-05
2.18219e-05
2.17381e-05
1.98033e-05
2.21323e-05
2.48531e-05
3.10863e-05
3.643e-05
3.54087e-05
3.84354e-05
3.87058e-05
3.94702e-05
3.52973e-05
3.21667e-05
2.77803e-05
2.60794e-05
2.5132e-05
2.6632e-05
3.31802e-05
3.60085e-05
3.53168e-05
3.54363e-05
3.12126e-05
3.10935e-05
2.33858e-05
1.79569e-05
2.17967e-05
2.56679e-05
2.92569e-05
3.67716e-05
4.28872e-05
3.72911e-05
3.2505e-05
2.75627e-05
2.75747e-05
3.05034e-05
3.28833e-05
3.32234e-05
3.17946e-05
2.98172e-05
2.63593e-05
2.15537e-05
2.12473e-05
2.01504e-05
2.23671e-05
2.46179e-05
3.09222e-05
3.63023e-05
3.52293e-05
3.84485e-05
3.82293e-05
3.85708e-05
3.46827e-05
3.22518e-05
2.77623e-05
2.63047e-05
2.54577e-05
2.68947e-05
3.39302e-05
3.67249e-05
3.62683e-05
3.5669e-05
3.1707e-05
3.09581e-05
2.24375e-05
1.76876e-05
2.1158e-05
2.53576e-05
2.91896e-05
3.72837e-05
4.3345e-05
3.72373e-05
3.28638e-05
2.76743e-05
2.72621e-05
3.01684e-05
3.31763e-05
3.28024e-05
3.18204e-05
2.97724e-05
2.59747e-05
2.11267e-05
2.09358e-05
2.01295e-05
2.23792e-05
2.43616e-05
3.05685e-05
3.59776e-05
3.46141e-05
3.78348e-05
3.74801e-05
3.76601e-05
3.39957e-05
3.17097e-05
2.75335e-05
2.6274e-05
2.54987e-05
2.68085e-05
3.3664e-05
3.66164e-05
3.61943e-05
3.52923e-05
3.13689e-05
3.00826e-05
2.17041e-05
1.73287e-05
2.03521e-05
2.45776e-05
2.8408e-05
3.64679e-05
4.22528e-05
3.63313e-05
3.23589e-05
2.71585e-05
2.66528e-05
2.95248e-05
3.25772e-05
3.21314e-05
3.11805e-05
2.91189e-05
2.55714e-05
2.07122e-05
2.04896e-05
1.98804e-05
2.21352e-05
2.38587e-05
3.00805e-05
3.53389e-05
3.40405e-05
3.70812e-05
3.67226e-05
3.66252e-05
3.33645e-05
3.12543e-05
2.72258e-05
2.59987e-05
2.52044e-05
2.64932e-05
3.31004e-05
3.61854e-05
3.56851e-05
3.47117e-05
3.06585e-05
2.96267e-05
2.11217e-05
1.70076e-05
1.96544e-05
2.38378e-05
2.76759e-05
3.55997e-05
4.12154e-05
3.54165e-05
3.16689e-05
2.65607e-05
2.60475e-05
2.88674e-05
3.17202e-05
3.14479e-05
3.05338e-05
2.85314e-05
2.52448e-05
2.04252e-05
2.01748e-05
1.96167e-05
2.20195e-05
2.35431e-05
2.98025e-05
3.48847e-05
3.37112e-05
3.65005e-05
3.62425e-05
3.606e-05
3.28703e-05
3.08739e-05
2.69828e-05
2.57479e-05
2.49655e-05
2.62375e-05
3.27386e-05
3.58464e-05
3.52561e-05
3.42905e-05
3.01678e-05
2.92831e-05
2.07554e-05
1.67849e-05
1.92533e-05
2.33772e-05
2.71589e-05
3.50157e-05
4.02935e-05
3.4784e-05
3.11308e-05
2.61222e-05
2.56365e-05
2.84049e-05
3.10904e-05
3.11026e-05
3.01404e-05
2.81206e-05
2.50261e-05
2.02803e-05
2.00253e-05
1.94984e-05
2.19309e-05
2.33909e-05
2.96887e-05
3.46873e-05
3.35681e-05
3.62013e-05
3.60381e-05
3.58405e-05
3.2706e-05
3.07562e-05
2.68861e-05
2.56483e-05
2.48709e-05
2.61242e-05
3.2569e-05
3.56799e-05
3.50686e-05
3.40972e-05
3.00018e-05
2.91272e-05
2.06459e-05
1.66872e-05
1.90998e-05
2.31874e-05
2.69301e-05
3.46489e-05
3.98955e-05
3.45489e-05
3.08978e-05
2.59063e-05
2.54139e-05
2.81622e-05
3.082e-05
3.09565e-05
2.99369e-05
2.79613e-05
8.81594e-08
1.04872e-07
9.42091e-08
9.14201e-08
9.95391e-08
8.07359e-08
7.83123e-08
6.25279e-08
5.9554e-08
8.3861e-08
5.79586e-08
5.98077e-08
8.94514e-08
7.22939e-08
6.4441e-08
8.57017e-08
8.11218e-08
6.0978e-08
7.90931e-08
8.23625e-08
7.17307e-08
8.16503e-08
8.07182e-08
8.50917e-08
9.47612e-08
9.56884e-08
9.20863e-08
1.14452e-07
1.16483e-07
8.80738e-08
1.27657e-07
1.16836e-07
8.81998e-08
1.35074e-07
9.89527e-08
7.95819e-08
1.12813e-07
8.52274e-08
7.94813e-08
8.7444e-08
1.12514e-07
1.44422e-07
1.16747e-07
9.88201e-08
1.17729e-07
8.9332e-08
6.1081e-08
6.60894e-08
7.292e-08
7.44316e-08
6.40945e-08
6.57158e-08
7.1451e-08
6.41316e-08
5.84539e-08
7.20669e-08
7.26357e-08
6.46366e-08
8.31767e-08
7.77243e-08
8.62372e-08
9.50261e-08
8.30237e-08
9.34192e-08
9.18421e-08
1.01176e-07
9.235e-08
1.10538e-07
1.28464e-07
8.94683e-08
1.41898e-07
1.31463e-07
9.47991e-08
1.61631e-07
1.11955e-07
8.96778e-08
1.28269e-07
9.87057e-08
1.05798e-07
1.05958e-07
1.19293e-07
1.5348e-07
1.15261e-07
9.51001e-08
1.21141e-07
9.03585e-08
6.00868e-08
8.17169e-08
1.00156e-07
8.40653e-08
8.33916e-08
8.82042e-08
6.8668e-08
6.69982e-08
5.99231e-08
6.14801e-08
6.7325e-08
6.83043e-08
8.02957e-08
7.4009e-08
1.05154e-07
1.02928e-07
8.86085e-08
1.05355e-07
8.4502e-08
1.04102e-07
9.42127e-08
1.0458e-07
1.35185e-07
9.65464e-08
1.51038e-07
1.40832e-07
1.07724e-07
1.79155e-07
1.22205e-07
9.54659e-08
1.39391e-07
1.09093e-07
1.10075e-07
1.08357e-07
1.15873e-07
1.49759e-07
1.07501e-07
1.00264e-07
1.27414e-07
9.53221e-08
7.26286e-08
9.8177e-08
1.21551e-07
8.78138e-08
9.52675e-08
1.02053e-07
6.16445e-08
7.00389e-08
6.20063e-08
5.56902e-08
6.54727e-08
6.86821e-08
7.19226e-08
7.07489e-08
1.19676e-07
1.05589e-07
9.47181e-08
1.12413e-07
8.03744e-08
1.11882e-07
1.02795e-07
1.07371e-07
1.45011e-07
1.07662e-07
1.51597e-07
1.43879e-07
1.22209e-07
1.87367e-07
1.26787e-07
1.05035e-07
1.51728e-07
1.10329e-07
1.00094e-07
1.01173e-07
1.22611e-07
1.52297e-07
1.10817e-07
1.24184e-07
1.45599e-07
1.12148e-07
9.10587e-08
1.15441e-07
1.34943e-07
8.52942e-08
1.09902e-07
1.09301e-07
5.36382e-08
7.54686e-08
6.12184e-08
5.53243e-08
6.54804e-08
6.85031e-08
6.78874e-08
7.4035e-08
1.37644e-07
1.15677e-07
1.00567e-07
1.13086e-07
8.10074e-08
1.20279e-07
1.13061e-07
1.1778e-07
1.53242e-07
1.16971e-07
1.52099e-07
1.51024e-07
1.4655e-07
1.94058e-07
1.26475e-07
1.25426e-07
1.63606e-07
1.06025e-07
9.70181e-08
9.91774e-08
1.43456e-07
1.6592e-07
1.30443e-07
1.63933e-07
1.75976e-07
1.38381e-07
1.11927e-07
1.37669e-07
1.41199e-07
8.47937e-08
1.3732e-07
1.14872e-07
5.3926e-08
8.79859e-08
5.91266e-08
6.06638e-08
7.02511e-08
7.42866e-08
7.03589e-08
8.5836e-08
1.69806e-07
1.40124e-07
1.0574e-07
1.13514e-07
8.76754e-08
1.27835e-07
1.2587e-07
1.34039e-07
1.5869e-07
1.28545e-07
1.63814e-07
1.70635e-07
1.87288e-07
2.04882e-07
1.27122e-07
1.5779e-07
1.73468e-07
1.04111e-07
1.06299e-07
1.06884e-07
1.74201e-07
1.89899e-07
1.65503e-07
2.15685e-07
2.15727e-07
1.70479e-07
1.36791e-07
1.66715e-07
1.44373e-07
9.3187e-08
1.76302e-07
1.22953e-07
6.87908e-08
1.09588e-07
5.72821e-08
7.25874e-08
8.44138e-08
8.5836e-08
7.72249e-08
1.08254e-07
2.24405e-07
1.79775e-07
1.10498e-07
1.18855e-07
1.02963e-07
1.40525e-07
1.48752e-07
1.59259e-07
1.67523e-07
1.54201e-07
1.93917e-07
2.05834e-07
2.46549e-07
2.22937e-07
1.38527e-07
2.02271e-07
1.84087e-07
1.11809e-07
1.2852e-07
1.25724e-07
2.12941e-07
2.27309e-07
2.16367e-07
2.7589e-07
2.66411e-07
2.13589e-07
1.70405e-07
2.05829e-07
1.56317e-07
1.17795e-07
2.30898e-07
1.42854e-07
1.04058e-07
1.39856e-07
5.97867e-08
9.94834e-08
1.14847e-07
1.01383e-07
9.06258e-08
1.5034e-07
3.0722e-07
2.32504e-07
1.20893e-07
1.32838e-07
1.31068e-07
1.66101e-07
1.85921e-07
1.95143e-07
1.87813e-07
1.99848e-07
2.43042e-07
2.60451e-07
3.25632e-07
2.52757e-07
1.68139e-07
2.60383e-07
2.01076e-07
1.35705e-07
1.67233e-07
1.57699e-07
2.63799e-07
2.85697e-07
2.87063e-07
3.47119e-07
3.36759e-07
2.75729e-07
2.18035e-07
2.63289e-07
1.90377e-07
1.65362e-07
3.09193e-07
1.8908e-07
1.71173e-07
1.85208e-07
7.90708e-08
1.52068e-07
1.64898e-07
1.28335e-07
1.23655e-07
2.28193e-07
4.21861e-07
3.00954e-07
1.44291e-07
1.62335e-07
1.78715e-07
2.12225e-07
2.42301e-07
2.47514e-07
2.27403e-07
2.68338e-07
3.13477e-07
3.40267e-07
4.26434e-07
2.99244e-07
2.22299e-07
3.39251e-07
2.34448e-07
1.80957e-07
2.30837e-07
2.07465e-07
3.41289e-07
3.8199e-07
3.86904e-07
4.43634e-07
4.47619e-07
3.69712e-07
2.9277e-07
3.54867e-07
2.58828e-07
2.48616e-07
4.29973e-07
2.80939e-07
2.80232e-07
2.57496e-07
1.33012e-07
2.46089e-07
2.45518e-07
1.84461e-07
1.9884e-07
3.59329e-07
5.78021e-07
3.9317e-07
1.9289e-07
2.21656e-07
2.57211e-07
2.89944e-07
3.2864e-07
3.23947e-07
2.94582e-07
3.62375e-07
4.14124e-07
4.58197e-07
5.58683e-07
3.74258e-07
3.10134e-07
4.47551e-07
2.96495e-07
2.59544e-07
3.3415e-07
2.84103e-07
4.69193e-07
5.38456e-07
5.28979e-07
5.86881e-07
6.16713e-07
5.1224e-07
4.13299e-07
4.99007e-07
3.80982e-07
3.92811e-07
6.19824e-07
4.46935e-07
4.47182e-07
3.77842e-07
2.4546e-07
4.02667e-07
3.78424e-07
2.98549e-07
3.47938e-07
5.68394e-07
7.96736e-07
5.3471e-07
2.89489e-07
3.27121e-07
3.79845e-07
4.17116e-07
4.66647e-07
4.46908e-07
4.03883e-07
4.97085e-07
5.63537e-07
6.34073e-07
7.37865e-07
4.89909e-07
4.49208e-07
6.03104e-07
4.06838e-07
3.93347e-07
4.9637e-07
4.07174e-07
6.77325e-07
7.84473e-07
7.43951e-07
8.11672e-07
8.71901e-07
7.25606e-07
6.13059e-07
7.211e-07
5.82183e-07
6.31171e-07
9.1415e-07
7.24825e-07
7.01176e-07
5.85606e-07
4.50003e-07
6.54756e-07
6.02083e-07
5.1384e-07
6.171e-07
8.8713e-07
1.11155e-06
7.6555e-07
4.62601e-07
4.98109e-07
5.70183e-07
6.23639e-07
6.87105e-07
6.41176e-07
5.77862e-07
6.9691e-07
7.91248e-07
8.93717e-07
9.83954e-07
6.7318e-07
6.74811e-07
8.3875e-07
5.96585e-07
6.20028e-07
7.51763e-07
6.06441e-07
1.012e-06
1.16486e-06
1.0802e-06
1.16516e-06
1.25609e-06
1.05526e-06
9.27302e-07
1.05443e-06
9.06681e-07
1.01561e-06
1.36862e-06
1.15663e-06
1.07889e-06
9.21813e-07
7.91061e-07
1.05139e-06
9.6614e-07
8.8201e-07
1.06236e-06
1.36553e-06
1.57546e-06
1.13183e-06
7.45854e-07
7.67481e-07
8.65948e-07
9.57329e-07
1.03039e-06
9.41624e-07
8.57484e-07
1.00786e-06
1.13369e-06
1.27723e-06
1.3308e-06
9.65751e-07
1.02759e-06
1.19131e-06
9.05411e-07
9.81166e-07
1.13126e-06
9.17529e-07
1.52477e-06
1.73401e-06
1.59533e-06
1.70358e-06
1.82159e-06
1.55944e-06
1.40088e-06
1.54597e-06
1.41385e-06
1.60031e-06
2.03498e-06
1.80175e-06
1.64272e-06
1.45036e-06
1.33502e-06
1.65808e-06
1.5416e-06
1.47339e-06
1.75125e-06
2.06916e-06
2.25534e-06
1.68812e-06
1.17099e-06
1.18092e-06
1.31938e-06
1.48083e-06
1.5592e-06
1.40427e-06
1.29802e-06
1.48093e-06
1.64688e-06
1.84114e-06
1.82764e-06
1.41924e-06
1.57088e-06
1.73705e-06
1.39286e-06
1.53055e-06
1.6797e-06
1.40185e-06
2.27072e-06
2.5587e-06
2.3873e-06
2.50583e-06
2.62519e-06
2.29579e-06
2.08076e-06
2.25901e-06
2.17946e-06
2.4624e-06
2.99106e-06
2.72847e-06
2.46068e-06
2.243e-06
2.15957e-06
2.55185e-06
2.40468e-06
2.37035e-06
2.78214e-06
3.10554e-06
3.23617e-06
2.4882e-06
1.78118e-06
1.79687e-06
1.99296e-06
2.26237e-06
2.33604e-06
2.09393e-06
1.97908e-06
2.18996e-06
2.40502e-06
2.62866e-06
2.52569e-06
2.12568e-06
2.39089e-06
2.55243e-06
2.11656e-06
2.30925e-06
2.45094e-06
2.12582e-06
3.34629e-06
3.73362e-06
3.56079e-06
3.6867e-06
3.80764e-06
3.37723e-06
3.03293e-06
3.29755e-06
3.32395e-06
3.67761e-06
4.33306e-06
4.04285e-06
3.63674e-06
3.39711e-06
3.38142e-06
3.85479e-06
3.66651e-06
3.70985e-06
4.29431e-06
4.59159e-06
4.61382e-06
3.58735e-06
2.63146e-06
2.68847e-06
2.98226e-06
3.40533e-06
3.45773e-06
3.11181e-06
3.0022e-06
3.21411e-06
3.45375e-06
3.70123e-06
3.52203e-06
3.20139e-06
3.62163e-06
3.75338e-06
3.15045e-06
3.41403e-06
3.55092e-06
3.19744e-06
4.87311e-06
5.35039e-06
5.27804e-06
5.40504e-06
5.51247e-06
4.94069e-06
4.37053e-06
4.76426e-06
4.94718e-06
5.35991e-06
6.16921e-06
5.82736e-06
5.24685e-06
4.9827e-06
5.06269e-06
5.60997e-06
5.36996e-06
5.59336e-06
6.37833e-06
6.63099e-06
6.46341e-06
5.05062e-06
3.78087e-06
3.908e-06
4.33983e-06
4.98995e-06
5.07869e-06
4.63141e-06
4.49227e-06
4.67305e-06
4.92461e-06
5.17363e-06
4.90775e-06
4.77936e-06
5.42678e-06
5.47349e-06
4.60829e-06
5.0012e-06
5.12954e-06
4.77826e-06
6.87839e-06
7.47234e-06
7.56899e-06
7.65275e-06
7.75026e-06
7.04822e-06
6.10718e-06
6.66091e-06
7.05955e-06
7.51543e-06
8.47643e-06
8.05313e-06
7.34673e-06
7.08371e-06
7.3158e-06
7.89643e-06
7.55956e-06
8.0734e-06
9.09816e-06
9.25697e-06
8.79452e-06
6.94376e-06
5.33176e-06
5.57002e-06
6.21805e-06
7.10435e-06
7.36407e-06
6.78718e-06
6.58248e-06
6.73108e-06
6.92908e-06
7.17892e-06
6.85481e-06
7.06419e-06
7.9739e-06
7.8478e-06
6.5615e-06
7.15012e-06
7.25045e-06
6.9028e-06
9.42459e-06
1.012e-05
1.03324e-05
1.03759e-05
1.04987e-05
9.70016e-06
8.30128e-06
9.07426e-06
9.67786e-06
1.01571e-05
1.12937e-05
1.07031e-05
9.91328e-06
9.76711e-06
1.02055e-05
1.08155e-05
1.0317e-05
1.13448e-05
1.2536e-05
1.25047e-05
1.15729e-05
9.39773e-06
7.51136e-06
7.89049e-06
8.8434e-06
9.88989e-06
1.03784e-05
9.63916e-06
9.33736e-06
9.45144e-06
9.55259e-06
9.82286e-06
9.44385e-06
1.01442e-05
1.13754e-05
1.09935e-05
9.11696e-06
9.94452e-06
1.00469e-05
9.66079e-06
1.22992e-05
1.30339e-05
1.33099e-05
1.34445e-05
1.34813e-05
1.259e-05
1.06833e-05
1.1767e-05
1.26489e-05
1.32407e-05
1.45751e-05
1.37042e-05
1.28364e-05
1.29474e-05
1.37743e-05
1.44433e-05
1.38002e-05
1.5318e-05
1.65186e-05
1.61272e-05
1.47291e-05
1.25688e-05
1.04542e-05
1.10705e-05
1.23697e-05
1.34649e-05
1.42717e-05
1.32364e-05
1.26433e-05
1.27695e-05
1.28397e-05
1.32243e-05
1.27515e-05
1.41635e-05
1.58861e-05
1.52592e-05
1.25006e-05
1.35027e-05
1.34745e-05
1.29078e-05
1.50704e-05
1.56918e-05
1.61675e-05
1.63322e-05
1.61335e-05
1.53172e-05
1.30555e-05
1.46412e-05
1.56882e-05
1.64356e-05
1.80812e-05
1.67119e-05
1.57767e-05
1.63999e-05
1.76835e-05
1.84061e-05
1.7604e-05
1.96118e-05
2.09763e-05
1.98466e-05
1.81131e-05
1.62874e-05
1.38678e-05
1.47733e-05
1.64507e-05
1.76836e-05
1.87827e-05
1.75229e-05
1.65473e-05
1.66088e-05
1.65962e-05
1.71453e-05
1.68233e-05
1.91012e-05
2.12808e-05
2.03042e-05
1.64768e-05
1.76624e-05
1.71576e-05
1.61681e-05
1.75302e-05
1.81025e-05
1.88117e-05
1.88417e-05
1.86842e-05
1.79206e-05
1.56332e-05
1.80042e-05
1.88716e-05
1.96446e-05
2.17042e-05
1.95723e-05
1.86299e-05
1.97295e-05
2.17061e-05
2.25406e-05
2.17197e-05
2.45768e-05
2.63544e-05
2.38767e-05
2.19612e-05
2.05261e-05
1.75553e-05
1.86997e-05
2.06757e-05
2.23737e-05
2.36136e-05
2.22155e-05
2.08356e-05
2.09202e-05
2.06379e-05
2.11993e-05
2.12439e-05
2.44876e-05
2.68533e-05
2.53289e-05
2.05188e-05
2.20864e-05
2.0459e-05
1.91611e-05
1.99148e-05
2.07124e-05
2.14858e-05
2.12793e-05
2.14803e-05
2.02946e-05
1.80863e-05
2.14726e-05
2.19534e-05
2.31269e-05
2.5808e-05
2.26886e-05
2.17535e-05
2.30514e-05
2.57654e-05
2.69476e-05
2.65077e-05
3.06455e-05
3.28811e-05
2.85433e-05
2.65442e-05
2.57521e-05
2.1977e-05
2.33556e-05
2.53815e-05
2.74171e-05
2.88272e-05
2.71021e-05
2.52233e-05
2.56802e-05
2.52669e-05
2.53636e-05
2.57068e-05
2.98662e-05
3.19419e-05
3.02036e-05
2.45827e-05
2.6925e-05
2.35869e-05
2.19956e-05
2.20103e-05
2.30707e-05
2.40302e-05
2.34261e-05
2.41236e-05
2.22353e-05
2.03358e-05
2.49341e-05
2.49148e-05
2.67575e-05
3.01097e-05
2.61603e-05
2.4882e-05
2.60634e-05
2.94318e-05
3.11822e-05
3.10165e-05
3.63282e-05
3.91129e-05
3.30527e-05
3.12733e-05
3.09206e-05
2.68592e-05
2.84533e-05
2.99885e-05
3.22504e-05
3.39793e-05
3.18036e-05
2.9461e-05
3.03601e-05
2.99187e-05
2.89672e-05
2.97349e-05
3.51798e-05
3.63519e-05
3.47163e-05
2.80455e-05
3.12169e-05
2.60878e-05
2.44246e-05
2.37063e-05
2.43573e-05
2.54489e-05
2.47085e-05
2.60323e-05
2.33208e-05
2.20671e-05
2.75967e-05
2.70064e-05
2.94633e-05
3.33894e-05
2.89739e-05
2.71073e-05
2.79906e-05
3.14307e-05
3.37991e-05
3.36745e-05
3.95024e-05
4.31186e-05
3.62052e-05
3.49289e-05
3.46072e-05
3.06491e-05
3.28584e-05
3.3809e-05
3.60117e-05
3.77522e-05
3.5357e-05
3.3145e-05
3.39228e-05
3.38354e-05
3.18065e-05
3.27311e-05
3.89782e-05
3.96108e-05
3.87047e-05
3.04147e-05
3.40843e-05
2.77512e-05
2.61046e-05
2.52013e-05
2.52291e-05
2.56467e-05
2.50809e-05
2.7216e-05
2.41231e-05
2.30314e-05
2.87632e-05
2.81534e-05
3.09033e-05
3.52729e-05
3.07022e-05
2.82522e-05
2.89291e-05
3.19955e-05
3.51379e-05
3.46576e-05
4.04139e-05
4.51183e-05
3.81846e-05
3.73739e-05
3.67722e-05
3.31249e-05
3.57985e-05
3.63198e-05
3.85962e-05
4.00537e-05
3.74116e-05
3.51022e-05
3.56994e-05
3.60514e-05
3.32822e-05
3.39352e-05
4.14432e-05
4.14332e-05
4.16728e-05
3.14649e-05
3.58141e-05
2.88875e-05
2.76725e-05
2.61498e-05
2.57457e-05
2.54783e-05
2.53305e-05
2.83493e-05
2.53484e-05
2.37728e-05
2.91293e-05
2.8631e-05
3.19532e-05
3.63494e-05
3.16226e-05
2.88187e-05
2.97686e-05
3.2505e-05
3.59715e-05
3.50789e-05
4.03529e-05
4.57106e-05
3.93348e-05
3.86649e-05
3.77947e-05
3.3769e-05
3.75232e-05
3.76804e-05
4.02742e-05
4.16729e-05
3.86714e-05
3.61808e-05
3.63154e-05
3.66584e-05
3.41408e-05
3.43989e-05
4.15729e-05
4.20097e-05
4.27324e-05
3.18504e-05
3.72627e-05
2.9499e-05
2.8821e-05
2.64152e-05
2.60133e-05
2.53343e-05
2.53983e-05
2.87942e-05
2.61477e-05
2.43817e-05
2.8441e-05
2.87506e-05
3.22012e-05
3.66646e-05
3.21368e-05
2.90381e-05
3.02575e-05
3.32499e-05
3.65418e-05
3.55247e-05
4.04087e-05
4.57797e-05
3.95734e-05
3.90405e-05
3.80413e-05
3.40578e-05
3.76993e-05
3.79716e-05
4.1061e-05
4.26367e-05
3.98427e-05
3.70246e-05
3.68554e-05
3.76708e-05
3.51943e-05
3.49644e-05
4.15276e-05
4.18682e-05
4.19289e-05
3.1787e-05
3.68251e-05
2.9874e-05
2.91046e-05
2.63958e-05
2.59707e-05
2.54383e-05
2.54317e-05
2.8756e-05
2.64317e-05
2.46926e-05
2.78965e-05
2.88451e-05
3.18223e-05
3.63402e-05
3.24102e-05
2.90535e-05
3.05343e-05
3.37052e-05
3.66637e-05
3.57334e-05
4.02048e-05
4.5448e-05
3.92262e-05
3.87291e-05
3.8063e-05
3.39265e-05
3.80168e-05
3.78548e-05
4.12128e-05
4.31576e-05
4.05066e-05
3.73139e-05
3.68113e-05
3.77125e-05
3.54613e-05
3.48754e-05
4.1273e-05
4.14159e-05
4.18794e-05
3.18281e-05
3.59327e-05
2.96188e-05
2.8868e-05
2.61798e-05
2.56974e-05
2.52384e-05
2.51413e-05
2.81113e-05
2.61148e-05
2.45993e-05
2.74078e-05
2.85945e-05
3.14488e-05
3.57261e-05
3.23341e-05
2.88938e-05
3.03413e-05
3.3585e-05
3.63601e-05
3.54674e-05
3.9824e-05
4.49683e-05
3.88437e-05
3.82405e-05
3.78389e-05
3.3575e-05
3.80697e-05
3.75145e-05
4.07871e-05