/*--------------------------------*- C++ -*----------------------------------*\
  =========                 |
  \\      /  F ield         | OpenFOAM: The Open Source CFD Toolbox
   \\    /   O peration     | Website:  https://openfoam.org
    \\  /    A nd           | Version:  10
     \\/     M anipulation  |
\*---------------------------------------------------------------------------*/
FoamFile
{
    format      ascii;
    class       volVectorField;
    location    "65";
    object      UMean;
}
// * * * * * * * * * * * * * * * * * * * * * * * * * * * * * * * * * * * * * //

dimensions      [0 1 -1 0 0 0 0];

internalField   nonuniform List<vector> 
25600
(
(1.064 -0.000298032 8.65461e-05)
(1.064 -0.000272903 9.53828e-05)
(1.064 -0.000262669 0.000105286)
(1.06399 -0.000259042 0.000114625)
(1.06398 -0.000264829 0.0001164)
(1.06398 -0.000283 0.000112664)
(1.064 -0.000297373 0.000102593)
(1.06403 -0.000310056 9.09789e-05)
(1.06407 -0.000310693 7.49122e-05)
(1.06411 -0.000294999 5.62291e-05)
(1.06413 -0.000278656 3.50274e-05)
(1.06415 -0.000255123 1.29001e-05)
(1.06417 -0.000234969 -7.18763e-06)
(1.06417 -0.000217816 -2.25418e-05)
(1.06417 -0.000208877 -3.35984e-05)
(1.06416 -0.000204302 -4.23927e-05)
(1.06415 -0.000204747 -4.68532e-05)
(1.06413 -0.000218101 -5.19613e-05)
(1.06409 -0.000237833 -5.4562e-05)
(1.06407 -0.00026539 -5.93104e-05)
(1.06404 -0.000304197 -6.43765e-05)
(1.06402 -0.000340345 -6.70663e-05)
(1.064 -0.000380335 -7.03218e-05)
(1.064 -0.000417625 -6.81136e-05)
(1.06399 -0.000451134 -6.52611e-05)
(1.06399 -0.000481031 -6.04185e-05)
(1.06399 -0.000510299 -4.96319e-05)
(1.06398 -0.000527332 -3.79546e-05)
(1.06397 -0.000543503 -2.07671e-05)
(1.06395 -0.000540468 -1.79478e-06)
(1.06393 -0.000531804 1.28436e-05)
(1.06391 -0.000524004 2.61444e-05)
(1.06388 -0.000514117 3.57986e-05)
(1.06387 -0.00052264 4.43942e-05)
(1.06385 -0.000526809 4.97206e-05)
(1.06386 -0.000518133 5.94288e-05)
(1.06388 -0.000490636 6.50328e-05)
(1.06391 -0.000439965 6.85564e-05)
(1.06394 -0.000388885 7.5215e-05)
(1.06398 -0.000335208 7.763e-05)
(1.06306 -0.000439892 0.000338174)
(1.06311 -0.000389516 0.000349025)
(1.06314 -0.000367424 0.000360921)
(1.06315 -0.000362832 0.000371782)
(1.06314 -0.000390635 0.000378728)
(1.06312 -0.000437581 0.000379853)
(1.06312 -0.000477357 0.000376368)
(1.06312 -0.00051216 0.000377018)
(1.06315 -0.000507057 0.000369276)
(1.06318 -0.000480677 0.000357599)
(1.06321 -0.000446885 0.000336307)
(1.06326 -0.000403914 0.00030532)
(1.0633 -0.000373127 0.000272454)
(1.06334 -0.00034772 0.000242971)
(1.06338 -0.000328241 0.000219233)
(1.0634 -0.000313809 0.000200945)
(1.06342 -0.000309189 0.000189024)
(1.06341 -0.000320383 0.000180785)
(1.06339 -0.000338048 0.000173039)
(1.06335 -0.000374025 0.00016793)
(1.06332 -0.000413622 0.000163065)
(1.06329 -0.00046019 0.000160731)
(1.06326 -0.000508238 0.000157371)
(1.06324 -0.000548908 0.000157134)
(1.06322 -0.000592653 0.000159159)
(1.06319 -0.000623294 0.000162895)
(1.06316 -0.000654906 0.000175666)
(1.06312 -0.000681238 0.000190714)
(1.06308 -0.000698422 0.000208631)
(1.06305 -0.000696249 0.000231352)
(1.06301 -0.000682298 0.00024557)
(1.06298 -0.00067066 0.000258557)
(1.06294 -0.000671143 0.000266912)
(1.06289 -0.000696506 0.000273867)
(1.06283 -0.00072935 0.000282536)
(1.06278 -0.00074146 0.00029696)
(1.06279 -0.000718745 0.000308334)
(1.06283 -0.000667059 0.000317327)
(1.0629 -0.000589961 0.0003251)
(1.06299 -0.000505654 0.000328828)
(1.06114 -0.00064613 0.000693644)
(1.06123 -0.000574196 0.000716715)
(1.06128 -0.000528511 0.000731489)
(1.0613 -0.000518458 0.000737903)
(1.06127 -0.00055955 0.000736429)
(1.06122 -0.000619326 0.000730866)
(1.06118 -0.000674728 0.000733988)
(1.06111 -0.000707227 0.000746357)
(1.06109 -0.000678591 0.000746742)
(1.06109 -0.000638783 0.000736563)
(1.06112 -0.000590836 0.000702142)
(1.06122 -0.000544309 0.000652432)
(1.06132 -0.000514371 0.00059774)
(1.06144 -0.000485541 0.000541513)
(1.06155 -0.000456223 0.000486725)
(1.06163 -0.000433773 0.000438115)
(1.06168 -0.000422266 0.000400561)
(1.06169 -0.000425497 0.000376212)
(1.06167 -0.000443054 0.00035937)
(1.06164 -0.000486712 0.000351884)
(1.06159 -0.000532634 0.000343338)
(1.06155 -0.000597735 0.000338762)
(1.0615 -0.000650948 0.000335598)
(1.06145 -0.00069859 0.000335986)
(1.06141 -0.000748046 0.00033804)
(1.06136 -0.000775474 0.000342917)
(1.0613 -0.000809424 0.00036176)
(1.06122 -0.000849475 0.00039214)
(1.06115 -0.000864014 0.00042496)
(1.0611 -0.000859417 0.000460766)
(1.06107 -0.000834339 0.000479635)
(1.06105 -0.000812484 0.000492866)
(1.06099 -0.000813226 0.000499614)
(1.0609 -0.000850141 0.000510144)
(1.06079 -0.000910043 0.000527252)
(1.06072 -0.000952353 0.00055225)
(1.06071 -0.000959462 0.000582007)
(1.06075 -0.000926537 0.000612869)
(1.06087 -0.000835013 0.000642201)
(1.06101 -0.000735767 0.000669544)
(1.05834 -0.00053485 0.00106831)
(1.0584 -0.000426947 0.00110259)
(1.05844 -0.000368624 0.00111402)
(1.05843 -0.000391405 0.00111873)
(1.05837 -0.000473743 0.00112999)
(1.05829 -0.000567572 0.00114835)
(1.05815 -0.00066008 0.00117408)
(1.05798 -0.000702607 0.00119473)
(1.0579 -0.000692853 0.00120465)
(1.05788 -0.000683796 0.00119433)
(1.05798 -0.000653915 0.00115512)
(1.05815 -0.000616655 0.00110178)
(1.05835 -0.000581738 0.00104265)
(1.05856 -0.000540496 0.000977161)
(1.05876 -0.000499961 0.000908331)
(1.05891 -0.000477131 0.000828128)
(1.05901 -0.000468747 0.00074724)
(1.05905 -0.00046924 0.000674484)
(1.05906 -0.000488715 0.000622346)
(1.05905 -0.000524002 0.000592132)
(1.05902 -0.000564569 0.000574226)
(1.05898 -0.000617907 0.000562456)
(1.05896 -0.000656087 0.000552293)
(1.05893 -0.000699361 0.000540809)
(1.05892 -0.000732989 0.000538111)
(1.05888 -0.00073772 0.000549104)
(1.05879 -0.000759293 0.000591177)
(1.0587 -0.00078962 0.000644853)
(1.05865 -0.000789824 0.000695548)
(1.05864 -0.000776175 0.000733267)
(1.05865 -0.000731764 0.000745144)
(1.05865 -0.000684992 0.000745389)
(1.05857 -0.000670622 0.000743246)
(1.05844 -0.000697044 0.000753359)
(1.0583 -0.000763131 0.000780406)
(1.0582 -0.000830945 0.000817105)
(1.05815 -0.000882986 0.000860564)
(1.05816 -0.000870598 0.000899389)
(1.05821 -0.000781927 0.000953431)
(1.05827 -0.000665526 0.00101409)
(1.05516 -0.000298382 0.00134579)
(1.05518 -0.000195185 0.00141096)
(1.05521 -0.000140909 0.00144476)
(1.05524 -0.000144352 0.00144575)
(1.05524 -0.00018557 0.0014206)
(1.05515 -0.000260072 0.00138221)
(1.05498 -0.000342269 0.00134602)
(1.05487 -0.000377361 0.00132648)
(1.05488 -0.000399303 0.00131184)
(1.05497 -0.00043205 0.0012498)
(1.05515 -0.000438353 0.00115409)
(1.05539 -0.000420424 0.00105856)
(1.05563 -0.000382835 0.00098346)
(1.05587 -0.000318447 0.000929586)
(1.05607 -0.000252167 0.000880478)
(1.0562 -0.000215603 0.000827253)
(1.05628 -0.000199564 0.000783688)
(1.05634 -0.000202631 0.000747034)
(1.05639 -0.000238978 0.000722224)
(1.05642 -0.000285099 0.00069621)
(1.05643 -0.000345972 0.000672779)
(1.05644 -0.000407171 0.000653065)
(1.05646 -0.000453011 0.000635081)
(1.05645 -0.000491805 0.000620877)
(1.05642 -0.000502557 0.000637111)
(1.05637 -0.000493845 0.000685547)
(1.05629 -0.00051406 0.000777649)
(1.05626 -0.000537878 0.00087791)
(1.05627 -0.000530085 0.000957918)
(1.05629 -0.000491628 0.000991356)
(1.05628 -0.000411126 0.00098345)
(1.05624 -0.000324807 0.000967403)
(1.05612 -0.000280823 0.000975402)
(1.05596 -0.000288831 0.00101986)
(1.0558 -0.000363907 0.00109092)
(1.05565 -0.000475347 0.00114832)
(1.0555 -0.00058102 0.00117753)
(1.05538 -0.000603561 0.00118381)
(1.05527 -0.000543768 0.0012137)
(1.05519 -0.000429764 0.00126653)
(1.05182 0.000155061 0.00050025)
(1.05186 0.000220262 0.000572285)
(1.05193 0.000209815 0.0006503)
(1.05198 0.000129703 0.000684645)
(1.05196 6.58214e-06 0.000674854)
(1.05187 -0.000139774 0.000649779)
(1.05177 -0.000249832 0.000632788)
(1.05174 -0.000282513 0.000629763)
(1.05177 -0.000308705 0.000580965)
(1.05186 -0.000347937 0.000435668)
(1.05206 -0.000362674 0.000262949)
(1.05229 -0.000341904 0.000123397)
(1.05252 -0.000283632 7.05125e-05)
(1.05271 -0.000197103 8.91108e-05)
(1.05281 -0.00011724 0.000128368)
(1.05286 -4.14921e-05 0.000154315)
(1.05291 5.04134e-05 0.000156089)
(1.05295 0.000124448 0.000143645)
(1.05295 0.000148266 0.000143165)
(1.05292 0.000135274 0.00014388)
(1.05289 9.57429e-05 0.000150884)
(1.0529 8.29911e-05 0.000140369)
(1.05289 7.66456e-05 9.96189e-05)
(1.05284 4.33799e-05 8.13264e-05)
(1.05281 6.78349e-06 0.000140385)
(1.05279 6.02733e-07 0.00023437)
(1.05281 1.11367e-06 0.000337094)
(1.05287 3.24815e-05 0.000398782)
(1.05295 0.000107882 0.000398798)
(1.053 0.000191156 0.000356987)
(1.05301 0.000284511 0.000315193)
(1.05297 0.000372321 0.000297833)
(1.0529 0.000434803 0.000326144)
(1.05283 0.000446955 0.000401856)
(1.05274 0.000354804 0.000496195)
(1.05264 0.000183679 0.000564089)
(1.05246 1.35353e-05 0.000577311)
(1.05224 -6.22875e-05 0.000537698)
(1.052 -5.35602e-05 0.000488746)
(1.05184 3.80408e-05 0.000462678)
(1.04657 0.000114895 -0.000269414)
(1.04655 0.000160606 -0.00023936)
(1.04655 0.000161815 -0.000171602)
(1.04649 7.88784e-05 -7.75321e-05)
(1.04634 -7.53682e-05 2.39507e-05)
(1.04609 -0.000252849 9.64519e-05)
(1.04587 -0.000375133 0.000124331)
(1.04576 -0.000413735 0.000132648)
(1.04575 -0.000442578 7.15979e-05)
(1.04582 -0.000489202 -5.30055e-05)
(1.04599 -0.000506265 -0.000146246)
(1.04616 -0.000458244 -0.00015476)
(1.04635 -0.000311028 -8.43934e-05)
(1.0465 -0.000145182 3.43311e-07)
(1.04662 -1.80601e-05 1.92389e-05)
(1.04677 9.07176e-05 -1.74949e-05)
(1.04698 0.000195247 -5.75076e-05)
(1.04713 0.000249957 -5.10137e-05)
(1.04721 0.000259635 -2.3872e-05)
(1.04724 0.000212114 -3.78259e-06)
(1.04734 0.000164322 1.57619e-06)
(1.0475 0.000182796 -2.6659e-05)
(1.04764 0.000212191 -9.903e-05)
(1.04767 0.00016963 -0.000129466)
(1.0477 9.91872e-05 -8.75572e-05)
(1.04773 8.53757e-05 -3.65211e-05)
(1.04782 0.000133866 -2.32279e-05)
(1.04796 0.000221167 -6.54118e-05)
(1.04811 0.00034165 -0.000148371)
(1.04817 0.000424326 -0.000224298)
(1.04817 0.000500385 -0.000271475)
(1.04811 0.000555535 -0.000279992)
(1.04804 0.000593193 -0.000233326)
(1.04798 0.000583555 -0.000136196)
(1.04792 0.000467654 -6.09753e-05)
(1.04777 0.000265569 -3.17593e-05)
(1.04751 8.73927e-05 -6.50615e-05)
(1.04717 1.4878e-05 -0.000131459)
(1.04685 6.82571e-07 -0.000196279)
(1.04664 3.89948e-05 -0.00025005)
(1.03758 -9.41727e-05 0.000315683)
(1.03765 -3.27277e-05 0.000273434)
(1.03779 1.20243e-05 0.000209071)
(1.03783 -6.29893e-06 0.000183501)
(1.0378 -7.11488e-05 0.000210089)
(1.0377 -0.000193094 0.000249834)
(1.03781 -0.000277306 0.000278983)
(1.03804 -0.000282632 0.000294277)
(1.03834 -0.000263311 0.000254758)
(1.03857 -0.000267902 0.000205708)
(1.03883 -0.000237088 0.0002505)
(1.03905 -0.000137703 0.000395894)
(1.03938 4.51645e-05 0.000559513)
(1.03969 0.000180281 0.000606164)
(1.04006 0.000263823 0.000533078)
(1.04039 0.000344097 0.000476635)
(1.0407 0.000429349 0.000516274)
(1.04085 0.000472918 0.000604658)
(1.04092 0.00048489 0.000662429)
(1.04084 0.000395035 0.000672366)
(1.04074 0.000279571 0.000675774)
(1.0407 0.000221401 0.00064807)
(1.04073 0.000208153 0.000570319)
(1.04062 0.000144616 0.000546006)
(1.04051 7.81451e-05 0.000590215)
(1.04036 8.56877e-05 0.000602336)
(1.0403 0.000150462 0.000552825)
(1.04024 0.000223752 0.000448491)
(1.04018 0.000327965 0.000353643)
(1.03997 0.000368348 0.000304666)
(1.03977 0.00040656 0.000297253)
(1.0395 0.00042773 0.000317623)
(1.03928 0.000441422 0.000379508)
(1.03905 0.000393778 0.000425648)
(1.03883 0.000234613 0.00041178)
(1.03848 3.98286e-06 0.000392824)
(1.03811 -0.000120139 0.000362591)
(1.03779 -0.000132089 0.0002992)
(1.03762 -0.000141596 0.000275068)
(1.03753 -0.000152427 0.000301839)
(1.02704 -0.000557435 0.00147959)
(1.02729 -0.000558128 0.00144497)
(1.02769 -0.000513319 0.00149299)
(1.02792 -0.000505477 0.00156124)
(1.02808 -0.000565218 0.00160545)
(1.02819 -0.000724276 0.00164783)
(1.02859 -0.000782067 0.00171148)
(1.02896 -0.000716636 0.00175832)
(1.02928 -0.000605693 0.00171345)
(1.02934 -0.000567067 0.00170239)
(1.0294 -0.000531742 0.0018222)
(1.02943 -0.000443745 0.00199297)
(1.02969 -0.00031161 0.0020785)
(1.02986 -0.000234037 0.00197976)
(1.03003 -0.000114627 0.00182606)
(1.03001 7.14679e-05 0.00176781)
(1.02996 0.000227455 0.00174287)
(1.02975 0.000291141 0.00165742)
(1.02956 0.000326859 0.00150136)
(1.02925 0.00026746 0.00134392)
(1.02904 0.000140159 0.0012182)
(1.02891 5.22453e-05 0.00107153)
(1.02886 2.85323e-05 0.000929892)
(1.02862 -6.21604e-05 0.000929112)
(1.02837 -0.000158427 0.000969506)
(1.02816 -0.000169811 0.000890006)
(1.02817 -0.000137446 0.000756531)
(1.02814 -0.000132451 0.000657574)
(1.02818 -7.07846e-05 0.000624146)
(1.02807 -5.557e-05 0.000634364)
(1.02802 -2.15147e-05 0.000664685)
(1.02787 8.40168e-07 0.000737896)
(1.02782 5.11367e-05 0.00089075)
(1.02777 4.25313e-05 0.00103408)
(1.02769 -9.35059e-05 0.00112216)
(1.02728 -0.000312562 0.00122923)
(1.02706 -0.000409838 0.00131291)
(1.027 -0.000448198 0.00135833)
(1.02704 -0.000485511 0.00143224)
(1.02693 -0.000547522 0.00150151)
(1.0158 -0.000751054 0.00228935)
(1.01607 -0.0006425 0.00236394)
(1.01642 -0.00048511 0.00248179)
(1.01673 -0.000429046 0.0025025)
(1.01715 -0.000477243 0.00243354)
(1.01738 -0.000622214 0.00236934)
(1.0177 -0.000663042 0.00239049)
(1.01782 -0.000608886 0.00238144)
(1.01799 -0.000505399 0.00223924)
(1.01791 -0.000506097 0.00217705)
(1.0178 -0.000534518 0.00223271)
(1.01755 -0.000544116 0.00223117)
(1.01757 -0.000525107 0.00211498)
(1.01745 -0.000491715 0.00194122)
(1.0174 -0.000315523 0.00180582)
(1.01718 -0.000176154 0.00165387)
(1.01709 -0.000178398 0.0014598)
(1.01684 -0.000226192 0.00122875)
(1.01674 -0.000226195 0.000943287)
(1.01654 -0.000368755 0.00071485)
(1.01657 -0.000590511 0.000602486)
(1.01667 -0.000691022 0.000548596)
(1.01678 -0.000680672 0.000578268)
(1.0166 -0.000779452 0.000750423)
(1.0166 -0.000882018 0.000856852)
(1.01679 -0.000883364 0.000836454)
(1.01714 -0.000834478 0.000863007)
(1.01727 -0.000777179 0.000983266)
(1.01751 -0.000655528 0.00110526)
(1.01747 -0.000631238 0.00125816)
(1.01739 -0.000594447 0.00144986)
(1.01718 -0.000528146 0.00167636)
(1.0171 -0.000427428 0.00192852)
(1.01699 -0.000393129 0.00206555)
(1.0167 -0.000465868 0.00211541)
(1.01612 -0.000699854 0.00220012)
(1.016 -0.000813843 0.00229031)
(1.01589 -0.000788122 0.00238198)
(1.01579 -0.000732754 0.00242509)
(1.01558 -0.000776657 0.00236265)
(1.00714 -0.00150508 0.000709261)
(1.00737 -0.00140259 0.000818365)
(1.00767 -0.0012622 0.000892409)
(1.00788 -0.00123756 0.000890978)
(1.00821 -0.00124765 0.00083341)
(1.00813 -0.00131717 0.000784694)
(1.008 -0.00132796 0.000817977)
(1.00764 -0.00133178 0.000772798)
(1.0075 -0.00130635 0.000605116)
(1.00717 -0.00134149 0.000556138)
(1.00693 -0.00132101 0.000488813)
(1.00655 -0.00134588 0.000286733)
(1.00647 -0.00143158 0.000146387)
(1.00627 -0.00151976 0.000138385)
(1.00627 -0.00145194 0.000140826)
(1.00619 -0.00149259 0.000114757)
(1.00629 -0.00164961 0.000174954)
(1.00617 -0.00180042 0.000231173)
(1.0063 -0.00185017 0.000246101)
(1.00623 -0.00201634 0.000351056)
(1.0063 -0.0022425 0.000577784)
(1.00645 -0.00234751 0.000813938)
(1.00682 -0.00228268 0.00101401)
(1.00684 -0.00230037 0.00124307)
(1.00687 -0.00237943 0.00141896)
(1.00691 -0.00238705 0.00145827)
(1.00711 -0.00229584 0.00156712)
(1.00717 -0.00221629 0.00169613)
(1.00752 -0.00207901 0.00174565)
(1.00751 -0.00197226 0.00187638)
(1.00749 -0.00185423 0.00206882)
(1.00737 -0.00174507 0.00211224)
(1.0073 -0.00163144 0.00193218)
(1.00704 -0.00156835 0.00151859)
(1.0068 -0.00159984 0.00113941)
(1.0065 -0.00180227 0.000916376)
(1.00667 -0.00183686 0.000800124)
(1.00665 -0.00170557 0.000803941)
(1.00679 -0.0015698 0.000840207)
(1.00683 -0.0015508 0.000759906)
(0.996985 -0.00133329 0.000784991)
(0.996957 -0.00127663 0.000868495)
(0.997088 -0.0012102 0.000794754)
(0.99699 -0.00126527 0.000642043)
(0.996945 -0.00128569 0.00037718)
(0.996424 -0.00136201 4.66397e-05)
(0.996082 -0.00143254 -0.000241157)
(0.995644 -0.00153556 -0.000618527)
(0.995529 -0.00158752 -0.000979916)
(0.995243 -0.00165169 -0.00108634)
(0.995175 -0.00172847 -0.00116482)
(0.995103 -0.0019635 -0.00126243)
(0.995439 -0.00221432 -0.00109843)
(0.995438 -0.00235873 -0.00083707)
(0.995557 -0.00233618 -0.00063827)
(0.995502 -0.00241506 -0.000370554)
(0.995542 -0.00261507 -1.14067e-06)
(0.995172 -0.00289091 0.000304122)
(0.995112 -0.0030349 0.000570365)
(0.994826 -0.0032503 0.000863044)
(0.994899 -0.00352885 0.00117158)
(0.995063 -0.00373518 0.00140073)
(0.99537 -0.00371818 0.00153004)
(0.995269 -0.0037894 0.00165586)
(0.995185 -0.00388915 0.00163122)
(0.994969 -0.0039225 0.00148157)
(0.995212 -0.00380646 0.00151591)
(0.995308 -0.00370209 0.00155951)
(0.995526 -0.00352856 0.00150001)
(0.995423 -0.00333721 0.00154133)
(0.995658 -0.00308805 0.00153956)
(0.995827 -0.0027754 0.00130051)
(0.99613 -0.00241509 0.000833926)
(0.996173 -0.00213015 0.000284349)
(0.996292 -0.00194069 -9.76263e-05)
(0.996207 -0.00193345 -0.000258812)
(0.996399 -0.00182366 -0.000210422)
(0.996464 -0.0016542 8.69104e-05)
(0.996822 -0.00145673 0.00046841)
(0.996868 -0.00138459 0.000663988)
(0.983729 -0.00218584 0.00158906)
(0.983662 -0.00220715 0.00157927)
(0.98385 -0.00222607 0.00132354)
(0.983628 -0.0023021 0.00095919)
(0.983724 -0.00229508 0.000394903)
(0.983569 -0.00236567 -0.000251849)
(0.983918 -0.00242156 -0.00080837)
(0.984122 -0.00247954 -0.00133919)
(0.984721 -0.0024941 -0.00174544)
(0.985221 -0.00261427 -0.0018531)
(0.986043 -0.00279552 -0.00199782)
(0.986403 -0.00311401 -0.00203845)
(0.98676 -0.00328038 -0.00180952)
(0.986433 -0.00328666 -0.00159575)
(0.986217 -0.00327945 -0.00144024)
(0.985795 -0.00342399 -0.00117162)
(0.985432 -0.00362472 -0.000842696)
(0.98464 -0.00380232 -0.000580723)
(0.984454 -0.00381515 -0.000427338)
(0.984183 -0.00399971 -0.000358401)
(0.984201 -0.00439094 -0.000391342)
(0.983927 -0.00464282 -0.000521267)
(0.983829 -0.0045402 -0.0005344)
(0.983304 -0.00453587 -0.0003543)
(0.982842 -0.00465908 -0.000312274)
(0.98216 -0.00481893 -0.000418447)
(0.982202 -0.00478297 -0.000262804)
(0.982099 -0.00475387 -0.000107074)
(0.982224 -0.00464245 -0.00014391)
(0.982182 -0.00444809 -0.000162636)
(0.98255 -0.00413869 -0.000100494)
(0.982683 -0.00372493 -2.82853e-05)
(0.982983 -0.00328002 -3.10627e-05)
(0.982901 -0.00295871 -9.29425e-05)
(0.983114 -0.00274715 -9.47076e-05)
(0.983083 -0.00272699 -1.52256e-06)
(0.983468 -0.00270863 0.000341383)
(0.98353 -0.00267039 0.00086391)
(0.983854 -0.00246191 0.00124231)
(0.983643 -0.00229545 0.00144701)
(0.974183 -0.0025729 -0.000196079)
(0.973992 -0.00246122 -0.000490936)
(0.973885 -0.00230714 -0.00103681)
(0.973487 -0.00220556 -0.00167289)
(0.973855 -0.00217518 -0.00223291)
(0.974109 -0.0023014 -0.00263159)
(0.974977 -0.00238855 -0.00285402)
(0.975461 -0.00243629 -0.00312387)
(0.976089 -0.00247171 -0.00323432)
(0.976209 -0.0026583 -0.00308153)
(0.976464 -0.00287353 -0.00295415)
(0.976057 -0.0031562 -0.00281091)
(0.975722 -0.00324691 -0.0026124)
(0.974865 -0.00323118 -0.00257153)
(0.974316 -0.00331457 -0.00256495)
(0.97351 -0.00354977 -0.0024136)
(0.972924 -0.00373488 -0.002245)
(0.972053 -0.00392374 -0.00220717)
(0.972059 -0.00403585 -0.00231206)
(0.971753 -0.00435386 -0.00243039)
(0.971394 -0.00471835 -0.00253813)
(0.970671 -0.00487785 -0.00258617)
(0.970617 -0.00476364 -0.00241926)
(0.970248 -0.00477449 -0.0020384)
(0.970152 -0.00483907 -0.0019545)
(0.96971 -0.00488695 -0.00197117)
(0.970042 -0.00477525 -0.00170111)
(0.970124 -0.004668 -0.00137087)
(0.970417 -0.00451161 -0.00118901)
(0.970515 -0.00438731 -0.00101632)
(0.971128 -0.00415752 -0.000725069)
(0.971426 -0.00384258 -0.000330498)
(0.971962 -0.00354287 -3.16052e-05)
(0.972298 -0.00334112 9.04723e-05)
(0.973054 -0.00320712 0.000113403)
(0.973487 -0.00328603 0.00015532)
(0.973977 -0.00340175 0.000392771)
(0.973689 -0.00339353 0.000587942)
(0.973783 -0.00308708 0.000422744)
(0.973688 -0.00279775 7.63977e-05)
(0.964332 -0.00286922 -0.00321186)
(0.964384 -0.00266929 -0.00335969)
(0.96511 -0.00252942 -0.00370413)
(0.965606 -0.00246211 -0.00401381)
(0.966566 -0.00242086 -0.00414431)
(0.96685 -0.00248488 -0.0041222)
(0.96753 -0.00263204 -0.00400805)
(0.967364 -0.00286981 -0.00400584)
(0.967119 -0.00312141 -0.00385754)
(0.966178 -0.00342493 -0.00355421)
(0.96586 -0.00365519 -0.00344115)
(0.965316 -0.00385861 -0.00334416)
(0.965259 -0.00382301 -0.00309359)
(0.964671 -0.0037656 -0.00283196)
(0.964357 -0.00382887 -0.00254222)
(0.963706 -0.00395113 -0.0023158)
(0.963515 -0.00401634 -0.00241788)
(0.963039 -0.00422536 -0.00281608)
(0.96309 -0.00442915 -0.00307855)
(0.962518 -0.00472143 -0.00310192)
(0.962069 -0.00495207 -0.00303062)
(0.961431 -0.00508385 -0.00289644)
(0.961485 -0.00502843 -0.00244277)
(0.961348 -0.00500625 -0.00200552)
(0.961583 -0.00490144 -0.00194957)
(0.96148 -0.00477289 -0.00200745)
(0.962166 -0.00458633 -0.00175581)
(0.962378 -0.00451095 -0.00148397)
(0.962723 -0.00450161 -0.00137138)
(0.962852 -0.00452721 -0.001399)
(0.963577 -0.00443629 -0.00129794)
(0.963875 -0.00432102 -0.00105626)
(0.964585 -0.00418134 -0.00090553)
(0.964881 -0.00405116 -0.000962483)
(0.965297 -0.0039121 -0.00105838)
(0.964793 -0.00392303 -0.00121476)
(0.964271 -0.00393348 -0.00132399)
(0.963273 -0.00384434 -0.00171129)
(0.963252 -0.00352416 -0.00241511)
(0.963409 -0.00319722 -0.00301572)
(0.953645 -0.00412957 -0.00484323)
(0.954051 -0.00407323 -0.00469593)
(0.955188 -0.00387514 -0.00456641)
(0.955876 -0.00369697 -0.00427997)
(0.956934 -0.00349292 -0.00399411)
(0.957326 -0.00345804 -0.00381371)
(0.958149 -0.00364141 -0.0037221)
(0.958082 -0.00396133 -0.00373985)
(0.95833 -0.00412206 -0.00359388)
(0.95806 -0.0041903 -0.00343342)
(0.95853 -0.00423657 -0.00335922)
(0.958567 -0.00442424 -0.00318882)
(0.959011 -0.00437725 -0.00286412)
(0.958324 -0.0042935 -0.00252514)
(0.957891 -0.00432327 -0.00220779)
(0.957071 -0.00430885 -0.00211276)
(0.956921 -0.00423018 -0.00233564)
(0.956285 -0.00429731 -0.00258347)
(0.956228 -0.00435768 -0.00259285)
(0.955568 -0.00457845 -0.0024605)
(0.955131 -0.00477959 -0.00242989)
(0.95418 -0.00489163 -0.00247393)
(0.953854 -0.00487456 -0.0024449)
(0.953363 -0.00488152 -0.00255327)
(0.953254 -0.00477439 -0.00291517)
(0.952824 -0.00463385 -0.00307637)
(0.953212 -0.00442421 -0.00292448)
(0.95318 -0.00433618 -0.00269397)
(0.95316 -0.00429999 -0.0026536)
(0.952844 -0.00429943 -0.00273884)
(0.952954 -0.00422533 -0.00274779)
(0.952671 -0.0042445 -0.00263945)
(0.952888 -0.00417136 -0.00260846)
(0.952566 -0.00410287 -0.00267054)
(0.952308 -0.00403224 -0.00305738)
(0.95137 -0.00413696 -0.00381093)
(0.951083 -0.00425288 -0.00441513)
(0.95079 -0.00432162 -0.0047879)
(0.95151 -0.00426687 -0.00503061)
(0.952401 -0.00427359 -0.00504132)
(0.947374 -0.00454108 -0.0047715)
(0.947256 -0.00435458 -0.00477576)
(0.947955 -0.00411762 -0.00449578)
(0.948253 -0.00395925 -0.00401626)
(0.949103 -0.0037484 -0.00368711)
(0.949243 -0.00368756 -0.00351897)
(0.949839 -0.00367393 -0.00329705)
(0.949681 -0.00364903 -0.00306485)
(0.950184 -0.00347444 -0.00275588)
(0.949807 -0.00343562 -0.00261863)
(0.950034 -0.00365931 -0.00253779)
(0.949505 -0.00414734 -0.00243481)
(0.949067 -0.00420366 -0.00228014)
(0.947528 -0.00415016 -0.00223193)
(0.946628 -0.00410039 -0.00210775)
(0.945811 -0.00404587 -0.00201742)
(0.946067 -0.00396525 -0.00192735)
(0.94578 -0.00398285 -0.00185187)
(0.946159 -0.0038666 -0.00180766)
(0.945599 -0.00395899 -0.00186208)
(0.945344 -0.00407734 -0.00193599)
(0.944594 -0.00424555 -0.00205673)
(0.944552 -0.00445233 -0.00228241)
(0.943849 -0.00461791 -0.00267214)
(0.943751 -0.00447422 -0.00319784)
(0.943026 -0.0042666 -0.00338582)
(0.942942 -0.00399797 -0.0032445)
(0.94228 -0.00385694 -0.00305571)
(0.941664 -0.00377571 -0.00297452)
(0.940791 -0.00376197 -0.00297002)
(0.940892 -0.00375648 -0.00302205)
(0.940862 -0.00387585 -0.00301508)
(0.941436 -0.00392393 -0.00310158)
(0.941488 -0.00398618 -0.00337302)
(0.941973 -0.00405029 -0.00410605)
(0.942423 -0.00431642 -0.00488856)
(0.943564 -0.00459677 -0.00515162)
(0.944413 -0.00482275 -0.00513772)
(0.945937 -0.00488461 -0.00511297)
(0.946639 -0.00483366 -0.00492216)
(0.942223 -0.00399264 -0.00416526)
(0.941978 -0.00403286 -0.00422949)
(0.942463 -0.00406843 -0.00413471)
(0.942278 -0.00411549 -0.00409619)
(0.942685 -0.0039276 -0.00428095)
(0.942178 -0.00380764 -0.0044215)
(0.941984 -0.00369415 -0.00423505)
(0.940952 -0.00367318 -0.00380752)
(0.9405 -0.00354138 -0.00331342)
(0.939158 -0.00358111 -0.00307477)
(0.938655 -0.003774 -0.00295936)
(0.936764 -0.00401725 -0.00266155)
(0.935581 -0.00381948 -0.00224667)
(0.934124 -0.00365726 -0.00190362)
(0.934424 -0.00360874 -0.00159379)
(0.934946 -0.00367891 -0.00138725)
(0.936298 -0.00368998 -0.00126516)
(0.936536 -0.00369416 -0.00130927)
(0.937162 -0.00349098 -0.00142587)
(0.936631 -0.00347425 -0.00138975)
(0.936526 -0.00346836 -0.00113862)
(0.936066 -0.00363365 -0.000989914)
(0.936256 -0.00377907 -0.00113084)
(0.935264 -0.00378926 -0.00156813)
(0.935234 -0.00350416 -0.0021403)
(0.934087 -0.00328504 -0.00234064)
(0.933432 -0.00303999 -0.00245142)
(0.932234 -0.00307392 -0.00262844)
(0.931758 -0.00317697 -0.00285507)
(0.931386 -0.00337983 -0.00311509)
(0.932493 -0.00356352 -0.00340318)
(0.933347 -0.00379876 -0.0035467)
(0.934847 -0.00376112 -0.00378651)
(0.93552 -0.00375288 -0.00399572)
(0.937071 -0.00382774 -0.00430359)
(0.938376 -0.00416021 -0.0043874)
(0.940205 -0.00438222 -0.00420626)
(0.94109 -0.00450649 -0.00416512)
(0.942116 -0.00439843 -0.00424018)
(0.941854 -0.004212 -0.0041615)
(0.933399 -0.00376319 -0.00255322)
(0.932725 -0.00412235 -0.00283355)
(0.932627 -0.00431572 -0.00310473)
(0.931434 -0.00444367 -0.00321549)
(0.931242 -0.00414562 -0.00347927)
(0.930328 -0.00389073 -0.00361946)
(0.929902 -0.00374495 -0.00353648)
(0.928521 -0.00383365 -0.00328742)
(0.928173 -0.00370019 -0.00290618)
(0.927079 -0.00364424 -0.00249704)
(0.926857 -0.00360959 -0.0022159)
(0.925189 -0.00362923 -0.00168108)
(0.924983 -0.00341324 -0.00112694)
(0.924789 -0.00345333 -0.000511865)
(0.926228 -0.0034846 -0.000165399)
(0.926734 -0.00352324 1.41985e-05)
(0.927312 -0.00333026 0.000174136)
(0.926679 -0.00329363 0.000318826)
(0.926843 -0.00310376 0.000344079)
(0.92625 -0.00310164 0.000503791)
(0.926489 -0.00299579 0.000672092)
(0.926128 -0.00298536 0.000531177)
(0.926134 -0.00278469 -0.000221918)
(0.924982 -0.00261141 -0.00102544)
(0.924799 -0.00227197 -0.00139647)
(0.923304 -0.00210609 -0.00131805)
(0.923221 -0.00209089 -0.00149017)
(0.922771 -0.002512 -0.00168285)
(0.923719 -0.00287766 -0.00205394)
(0.924411 -0.00324155 -0.0023401)
(0.926181 -0.0034696 -0.002316)
(0.926702 -0.00359887 -0.00194359)
(0.927991 -0.00340624 -0.0016848)
(0.928767 -0.00332557 -0.00162904)
(0.930654 -0.00336799 -0.00196445)
(0.932049 -0.00377029 -0.00194669)
(0.933844 -0.00395614 -0.00191029)
(0.934011 -0.00401695 -0.00195732)
(0.934172 -0.00382402 -0.00217575)
(0.933258 -0.0037393 -0.00230775)
(0.922438 -0.00309863 -0.000957091)
(0.921645 -0.00352824 -0.00127625)
(0.921372 -0.00376383 -0.00172531)
(0.919535 -0.00399435 -0.0017507)
(0.919193 -0.00383665 -0.00205796)
(0.91861 -0.00378988 -0.00225125)
(0.918506 -0.00378042 -0.00231539)
(0.917077 -0.00394764 -0.00215667)
(0.91715 -0.00382195 -0.00178788)
(0.91638 -0.0036758 -0.00106679)
(0.916435 -0.00355797 -0.000594469)
(0.914923 -0.00363224 2.05751e-05)
(0.915404 -0.00361499 0.000567639)
(0.915307 -0.00376548 0.00112969)
(0.916383 -0.00369415 0.00120346)
(0.915839 -0.00354789 0.00116993)
(0.91599 -0.00316794 0.00133259)
(0.915504 -0.00316632 0.00163784)
(0.916601 -0.00303967 0.00160119)
(0.917116 -0.00302223 0.00177221)
(0.918263 -0.00281593 0.00184257)
(0.918285 -0.00264017 0.00141014)
(0.918261 -0.00234155 0.000399717)
(0.91684 -0.00223001 -0.000183165)
(0.91638 -0.00194855 -0.000296923)
(0.915266 -0.00192553 -0.000271612)
(0.915927 -0.00200806 -0.000171948)
(0.915708 -0.00235657 0.000111154)
(0.916791 -0.00265699 0.000356045)
(0.916901 -0.00305598 0.000711848)
(0.917571 -0.00313277 0.00123316)
(0.917256 -0.00306476 0.00165551)
(0.918554 -0.00287111 0.00126154)
(0.919018 -0.00283046 0.000360997)
(0.920813 -0.0029346 -0.000542782)
(0.921705 -0.00334063 -0.000730314)
(0.923095 -0.0033705 -0.000809368)
(0.922775 -0.00324021 -0.000714691)
(0.922715 -0.00292335 -0.000815141)
(0.921942 -0.00293768 -0.000794417)
(0.911109 -0.00239802 -0.000601062)
(0.910093 -0.0028674 -0.000774026)
(0.909783 -0.00315699 -0.00106727)
(0.907842 -0.00353553 -0.00102702)
(0.908002 -0.00359709 -0.00121826)
(0.907552 -0.00376292 -0.000981249)
(0.907191 -0.0036642 -0.000759145)
(0.905587 -0.00374876 -0.000446512)
(0.905602 -0.00353909 -9.30558e-05)
(0.904665 -0.00325467 0.000602924)
(0.90484 -0.00297786 0.0011761)
(0.903479 -0.00310131 0.00198998)
(0.904655 -0.00330412 0.00234756)
(0.904578 -0.00346934 0.00243629)
(0.905491 -0.00325762 0.00221904)
(0.904595 -0.00293844 0.0021357)
(0.905657 -0.00255261 0.00216338)
(0.906297 -0.00266437 0.00246023)
(0.908522 -0.00267423 0.00262301)
(0.908992 -0.00272386 0.00316737)
(0.909606 -0.00247043 0.00314653)
(0.909052 -0.00228975 0.00249346)
(0.908379 -0.00197601 0.00182205)
(0.906115 -0.00186998 0.00141871)
(0.905679 -0.00161554 0.000936198)
(0.904911 -0.00164872 0.000896044)
(0.90589 -0.00165494 0.00132676)
(0.905464 -0.00195937 0.00213173)
(0.905872 -0.0023261 0.00289664)
(0.905051 -0.00278065 0.00340583)
(0.905721 -0.00274283 0.00329957)
(0.905944 -0.0025452 0.00244127)
(0.907835 -0.00212468 0.000945406)
(0.907941 -0.00197227 -0.000448775)
(0.909983 -0.00198216 -0.00127288)
(0.910629 -0.0022493 -0.00129959)
(0.911576 -0.0020379 -0.00108568)
(0.910744 -0.00182432 -0.000688135)
(0.91095 -0.00165021 -0.000741911)
(0.910571 -0.00199254 -0.000592127)
(0.896927 -0.0017192 0.000206056)
(0.895104 -0.00214244 0.000399565)
(0.894485 -0.00236413 0.000298434)
(0.892274 -0.00275371 0.000287866)
(0.893127 -0.00285508 0.000283064)
(0.892445 -0.00294233 0.000904119)
(0.892122 -0.00277485 0.00156395)
(0.89086 -0.00286606 0.00205607)
(0.891337 -0.0026139 0.00239442)
(0.890492 -0.0023089 0.00272803)
(0.891182 -0.00203366 0.00293116)