/*--------------------------------*- C++ -*----------------------------------*\
  =========                 |
  \\      /  F ield         | OpenFOAM: The Open Source CFD Toolbox
   \\    /   O peration     | Website:  https://openfoam.org
    \\  /    A nd           | Version:  10
     \\/     M anipulation  |
\*---------------------------------------------------------------------------*/
FoamFile
{
    format      ascii;
    class       surfaceScalarField;
    location    "8";
    object      phi;
}
// * * * * * * * * * * * * * * * * * * * * * * * * * * * * * * * * * * * * * //

dimensions      [0 3 -1 0 0 0 0];

internalField   nonuniform List<scalar> 
74080
(
2.14201e-05
5.57703e-07
-5.52416e-07
1.77723e-05
1.2947e-06
9.21108e-07
1.75166e-05
-5.24534e-07
-1.43953e-06
1.71197e-05
2.2668e-07
-3.11357e-08
1.61716e-05
1.00055e-06
3.20409e-06
1.59564e-05
3.74149e-06
-2.83637e-06
1.6689e-05
6.02257e-06
-1.0018e-05
1.8348e-05
3.40215e-06
-7.43899e-06
2.01512e-05
2.94861e-06
-5.69156e-06
2.08567e-05
3.10228e-06
-8.31539e-06
2.01385e-05
1.6635e-06
-9.14597e-06
1.87656e-05
3.39836e-07
-6.95613e-06
1.95111e-05
-5.59326e-06
5.67433e-08
2.20547e-05
-7.28577e-06
-4.11947e-08
2.28387e-05
-3.97189e-06
-5.45088e-06
1.97454e-05
4.54945e-06
-7.9223e-06
1.60389e-05
7.82723e-06
-4.96707e-06
1.59556e-05
-3.002e-06
1.54123e-06
1.95904e-05
-1.48202e-05
8.16887e-06
2.35342e-05
-9.6067e-06
6.51933e-06
2.58816e-05
-1.08691e-07
1.7551e-07
2.90163e-05
-4.41185e-06
-1.48334e-06
2.98722e-05
-1.43628e-05
-2.99053e-07
2.66874e-05
-1.71044e-05
-1.68892e-06
2.27564e-05
-7.98724e-06
-4.30985e-06
1.69119e-05
8.69439e-06
-9.16701e-06
1.24974e-05
9.62587e-06
-8.61235e-06
1.2478e-05
5.17752e-07
-9.05373e-07
1.33095e-05
6.37336e-07
9.06042e-07
1.46337e-05
1.94297e-06
-6.0029e-06
1.65915e-05
1.95687e-06
-5.58861e-06
1.89608e-05
1.40321e-06
3.50942e-06
1.91179e-05
5.00339e-06
8.10733e-06
1.87711e-05
5.1536e-06
1.24539e-05
2.03698e-05
-2.40823e-06
1.72112e-05
2.1294e-05
-3.85904e-06
1.51047e-05
2.26062e-05
-3.08103e-06
1.28412e-05
2.45593e-05
-3.79256e-06
1.05125e-05
2.6106e-05
-2.84621e-06
2.13492e-06
-2.84626e-06
-2.6132e-06
7.20692e-05
2.59271e-06
-3.66952e-07
6.24401e-05
5.7312e-06
1.16655e-06
6.07301e-05
9.95258e-07
-8.49679e-06
5.97192e-05
2.5899e-06
-4.54116e-06
5.69321e-05
4.58642e-06
7.58609e-06
5.48566e-05
1.14256e-05
-4.15713e-06
5.51696e-05
1.75822e-05
-2.12889e-05
5.97062e-05
1.00202e-05
-1.70227e-05
6.68674e-05
6.67886e-06
-1.48106e-05
7.16873e-05
5.37846e-06
-1.98856e-05
7.15124e-05
1.73864e-06
-2.03796e-05
6.80082e-05
-5.64934e-07
-1.60064e-05
6.89894e-05
-1.7417e-05
-1.02106e-06
7.39494e-05
-2.17842e-05
-1.42802e-06
7.20467e-05
-5.40446e-06
-1.75077e-05
6.46444e-05
1.99883e-05
-2.31743e-05
6.09586e-05
2.08583e-05
-1.23974e-05
6.06066e-05
-1.15778e-05
1.54517e-06
6.12874e-05
-3.90754e-05
1.46389e-05
6.72659e-05
-2.42196e-05
1.30683e-05
8.1743e-05
-5.2144e-06
-4.53498e-06
0.000103813
-2.14392e-05
-1.34039e-05
0.000113713
-4.55503e-05
-8.19872e-06
9.85405e-05
-4.61692e-05
-3.86831e-06
7.48817e-05
-1.30826e-05
-5.88787e-06
5.61249e-05
3.27596e-05
-1.91687e-05
4.60017e-05
3.05335e-05
-1.93006e-05
4.32168e-05
2.6275e-06
-1.02755e-06
4.23948e-05
6.8172e-08
2.00472e-06
4.70252e-05
9.8684e-07
-1.24883e-05
5.68459e-05
-2.43083e-06
-8.0627e-06
6.66037e-05
-2.43674e-06
1.42986e-05
7.09984e-05
9.00053e-06
2.70126e-05
7.15052e-05
1.30083e-05
3.55897e-05
7.06709e-05
7.19411e-07
4.19094e-05
6.76797e-05
-3.35863e-06
3.4946e-05
6.88754e-05
-3.85948e-06
2.42237e-05
7.64326e-05
-7.59298e-06
1.47453e-05
8.3899e-05
-7.41013e-06
-5.77843e-07
-8.2474e-06
-7.0283e-06
0.000134941
3.65792e-06
-5.06217e-06
0.00011911
1.35296e-05
6.14112e-06
0.000111922
6.93651e-06
-1.08211e-05
0.000112579
7.77154e-06
-1.75906e-05
0.000110192
1.30108e-05
6.86491e-06
0.000105536
2.1879e-05
5.83523e-06
0.000103883
3.00613e-05
-2.07797e-05
0.000107808
1.90818e-05
-2.05518e-05
0.000121301
9.07651e-06
-1.88288e-05
0.000137145
1.13644e-06
-2.58999e-05
0.000143509
-4.17928e-06
-2.57908e-05
0.000135346
2.12908e-06
-2.44994e-05
0.00012614
-2.01993e-05
-6.25176e-06
0.000129279
-3.8796e-05
3.94317e-06
0.000128818
-1.1272e-05
-2.11941e-05
0.00012161
4.43495e-05
-4.13379e-05
0.000124665
4.50206e-05
-2.86606e-05
0.000125673
-1.52939e-05
-4.45135e-06
0.000113715
-6.23132e-05
1.41237e-05
0.000109802
-3.69763e-05
1.69491e-05
0.000129559
-4.38867e-06
-1.47392e-05
0.00017053
-3.15261e-05
-4.13391e-05
0.000201963
-6.81523e-05
-3.48455e-05
0.000187059
-6.36225e-05
-2.11166e-05
0.000145504
-1.52732e-05
-5.20717e-06
0.000115055
5.80122e-05
-1.64514e-05
9.86666e-05
6.40772e-05
-3.21799e-05
8.78331e-05
2.06885e-05
-1.00317e-05
7.90301e-05
5.82161e-06
4.24738e-06
8.21663e-05
-2.01587e-06
-1.66038e-05
9.80915e-05
-1.80614e-05
-1.8896e-05
0.000118704
-2.53981e-05
1.1916e-05
0.000136945
-8.89873e-06
3.8942e-05
0.000146592
-7.61285e-07
5.641e-05
0.000141417
6.70256e-07
6.69219e-05
0.000124619
7.91865e-06
6.05221e-05
0.000115605
3.50237e-06
4.24879e-05
0.000124835
-7.18468e-06
2.07173e-05
0.000140216
-9.71769e-06
-3.28932e-06
-1.33703e-05
-1.65496e-05
0.000195671
4.85157e-06
-2.1148e-05
0.000182351
1.64537e-05
1.21311e-05
0.000165668
1.76912e-05
4.13875e-06
0.000166298
1.78976e-05
-2.73607e-05
0.000170701
2.955e-05
-7.73912e-06
0.00016882
4.04471e-05
1.28201e-05
0.000167799
4.5488e-05
-9.95146e-06
0.000165707
3.33808e-05
-1.1841e-05
0.000176399
1.52296e-05
-7.61613e-06
0.000204689
-8.81911e-06
-2.23491e-05
0.000230115
-2.6174e-05
-2.06372e-05
0.000227852
-7.6101e-06
-2.06105e-05
0.000200441
-1.11145e-05
-9.5749e-06
0.000185431
-4.20315e-05
1.28717e-05
0.000181483
-1.92364e-05
-1.25322e-05
0.00017376
7.32412e-05
-5.25273e-05
0.000190346
8.69079e-05
-5.03872e-05
0.000210275
-8.32284e-06
-1.34864e-05
0.000187449
-7.81853e-05
1.31752e-05
0.000153417
-3.38588e-05
1.71008e-05
0.000155587
1.96041e-05
-2.27665e-05
0.000201142
-2.76805e-05
-6.21831e-05
0.000255737
-8.80701e-05
-5.65716e-05
0.000260287
-6.57958e-05
-4.27956e-05
0.000218546
-3.83675e-07
-1.924e-05
0.000187523
7.97673e-05
-1.3539e-05
0.000173761
9.66558e-05
-4.08379e-05
0.000156606
5.63794e-05
-2.81239e-05
0.00013651
2.70912e-05
4.2015e-06
0.000130827
-2.44632e-06
-1.32393e-05
0.000140306
-3.32615e-05
-3.24643e-05
0.000158562
-5.2467e-05
-1.10633e-05
0.000190122
-5.05721e-05
2.25635e-05
0.000224669
-5.8226e-05
5.77597e-05
0.000233453
-4.07747e-05
8.59721e-05
0.00020415
1.36251e-05
9.05881e-05
0.000170865
2.04205e-05
7.65531e-05
0.000169987
-5.83305e-06
4.65598e-05
0.000188201
-7.54971e-06
5.55429e-06
-7.98316e-06
-2.48685e-05
0.000242551
1.09456e-05
-3.53283e-05
0.000238536
1.01316e-05
5.30691e-06
0.000217117
2.32529e-05
2.84532e-05
0.000212254
3.37765e-05
-1.40482e-05
0.00021912
5.74276e-05
-2.14093e-05
0.000226018
7.40044e-05
4.80574e-06
0.000244239
6.59184e-05
-7.75562e-06
0.00024817
5.14e-05
-2.14528e-06
0.000241479
3.54269e-05
1.87983e-05
0.000258587
-1.33976e-06
-5.07112e-07
0.000298785
-4.79544e-05
-6.79511e-06
0.000327831
-5.31663e-05
1.03195e-06
0.000304438
-3.10057e-05
3.38412e-06
0.000260398
-3.57822e-05
2.52637e-05
0.000234287
-1.10395e-05
4.27111e-06
0.000210756
0.00011047
-4.96474e-05
0.000230354
0.000142534
-6.63737e-05
0.000288851
-8.57907e-07
-2.26911e-05
0.000278313
-9.66709e-05
1.56799e-05
0.000208257
-9.66674e-06
1.67856e-05
0.000175281
7.56989e-05
-1.50772e-05
0.000212746
-8.04399e-06
-4.47106e-05
0.000283321
-0.000123131
-3.58867e-05
0.000310238
-9.15406e-05
-2.46079e-05
0.000277226
1.43293e-05
-1.9385e-05
0.000250932
0.000100847
-1.18787e-05
0.000249856
0.000118034
-4.49869e-05
0.00024334
8.99043e-05
-4.92753e-05
0.000226374
4.67468e-05
-1.55176e-06
0.000216082
-7.55779e-06
2.5988e-07
0.0002155
-4.68666e-05
-3.09088e-05
0.000214957
-6.90529e-05
-2.61139e-05
0.000234189
-8.80038e-05
-1.24832e-05
0.000282219
-0.000134064
1.87118e-05
0.000324285
-0.000133268
7.00688e-05
0.000309606
-2.09601e-05
0.000106332
0.000249475
3.99807e-05
0.000111984
0.000216818
3.52619e-06
8.69254e-05
0.000226262
-1.3358e-05
4.18402e-05
3.69156e-08
-7.48071e-06
0.000276123
1.48914e-05
-2.38613e-05
0.000281822
3.9035e-06
-1.08985e-05
0.000261378
2.544e-05
3.32466e-05
0.000255262
4.54727e-05
8.32618e-06
0.000262667
7.68522e-05
-1.77579e-05
0.000262179
0.000120379
7.19343e-07
0.000294669
0.000107268
-1.44361e-05
0.000332973
6.70555e-05
-9.00826e-06
0.000331245
5.34456e-05
3.56304e-05
0.000324892
3.09071e-05
3.02406e-05
0.000342395
-2.94848e-05
7.94497e-06
0.000384402
-9.40828e-05
1.16653e-05
0.000400541
-0.000105257
1.80838e-05
0.000357477
-6.92791e-05
4.30087e-05
0.000298738
-7.55498e-08
3.81806e-05
0.000243593
0.00015627
-3.16423e-05
0.000251365
0.000191895
-7.96336e-05
0.000349148
-2.21029e-05
-4.22004e-05
0.000370916
-0.000132477
3.18394e-06
0.000272227
3.13809e-05
1.15266e-05
0.000202016
0.000142581
1.2754e-05
0.000229623
1.46908e-05
-8.03096e-07
0.000309172
-0.000144925
-1.02263e-05
0.000351101
-0.000132723
9.42441e-06
0.000326361
-6.70648e-06
1.51112e-06
0.000296335
0.000100832
-4.15855e-06
0.000291083
0.000129752
-3.89027e-05
0.000298543
0.00010891
-6.24901e-05
0.000314519
4.10577e-05
-1.44037e-05
0.000325684
-3.87348e-05
1.09732e-05
0.000330247
-7.74583e-05
-1.62021e-05
0.000320964
-8.18771e-05
-1.77073e-05
0.000311657
-9.70184e-05
-1.46172e-05
0.000332931
-0.000177429
-3.71659e-06
0.000390071
-0.00023442
3.15283e-05
0.00041935
-0.000108669
8.54652e-05
0.000358837
3.59665e-05
0.000129103
0.000283193
2.79924e-05
0.000123503
0.000262115
-1.05827e-05
7.73618e-05
1.24809e-06
2.57768e-05
0.000302419
1.18874e-05
1.06628e-05
0.00031579
-8.276e-07
-1.27182e-05
0.000298386
4.06012e-05
1.63144e-05
0.000295892
5.97997e-05
1.2589e-05
0.000309551
7.64616e-05
-1.23769e-05
0.000300306
0.000152971
2.35187e-06
0.000324292
0.000161232
-1.4918e-05
0.000383634
8.54388e-05
-2.1963e-05
0.00040635
5.79801e-05
3.02806e-05
0.000399253
6.31413e-05
4.88077e-05
0.000401785
7.29658e-06
2.69747e-05
0.000426667
-0.000103143
1.75736e-05
0.00045255
-0.000179889
1.61347e-05
0.000440411
-0.000147788
4.64322e-05
0.000381873
-2.361e-05
7.06128e-05
0.000296461
0.00018267
8.24309e-07
0.000279556
0.000222775
-8.73154e-05
0.000391306
-7.57977e-05
-7.09484e-05
0.000451365
-0.000199621
-2.30233e-05
0.000352778
6.84076e-05
6.68198e-07
0.000251625
0.000197004
2.85013e-05
0.000259192
1.41355e-05
1.58382e-05
0.000349079
-0.000174519
-7.7902e-06
0.000407133
-0.000167218
1.00164e-05
0.000372689
-3.41335e-05
1.87284e-05
0.000322262
8.51527e-05
1.06231e-06
0.000301698
0.000128493
-2.57419e-05
0.000305289
0.000121378
-5.53001e-05
0.000349388
8.94518e-06
-7.666e-06
0.000401401
-0.000106046
2.69967e-05
0.000427092
-0.000143794
-4.05537e-06
0.000433585
-0.000128299
-1.78792e-05
0.000424892
-9.92888e-05
-2.78818e-06
0.000406169
-0.000164049
2.44868e-05
0.000432761
-0.000294876
4.03892e-05
0.000503187
-0.000231285
6.36583e-05
0.000481612
-1.95383e-05
0.00012125
0.000375708
5.4132e-05
0.000147407
0.00031017
1.56678e-05
0.000104634
8.64989e-06
5.34739e-05
0.000327902
1.75417e-05
4.13824e-05
0.000347235
-1.59926e-05
1.79138e-05
0.000334882
5.69559e-05
1.67412e-05
0.000333971
9.00376e-05
1.25014e-06
0.00035731
7.14024e-05
-2.02631e-05
0.000347636
0.000167569
-2.39193e-06
0.000356295
0.00021673
-1.81578e-05
0.000417196
0.000103182
-3.44539e-05
0.000454307
4.99708e-05
1.4163e-05
0.000454248
8.65141e-05
4.59832e-05
0.00047129
3.05275e-05
3.8177e-05
0.000492411
-0.000103628
2.41116e-05
0.00049065
-0.000212672
1.11304e-05
0.00049244
-0.000217409
3.74926e-05
0.000465259
-7.55042e-05
8.11624e-05
0.000382821
0.000162251
3.83887e-05
0.000353356
0.000216555
-6.7384e-05
0.000435094
-0.000111601
-8.91975e-05
0.000505469
-0.000259838
-3.85261e-05
0.000452016
6.23592e-05
2.64673e-06
0.000352084
0.000228835
2.14695e-05
0.000316669
1.79347e-05
2.54323e-06
0.000392208
-0.000214478
-1.45904e-05
0.000473731
-0.000207484
-1.00074e-05
0.000430299
-3.57479e-05
3.18647e-06
0.000346699
8.47979e-05
3.41248e-06
0.000310502
0.000121674
3.74707e-06
0.000309569
0.000123875
-1.18291e-05
0.000360164
-2.7677e-05
1.42934e-05
0.000441126
-0.000184508
4.42505e-05
0.000492324
-0.000234778
1.04405e-05
0.000509254
-0.000219268
-2.91649e-05
0.000508864
-0.000143543
-1.74789e-05
0.000472913
-0.000139911
2.97543e-05
0.000451627
-0.000299239
5.81512e-05
0.000540409
-0.000360012
6.49769e-05
0.000591117
-0.000147024
0.000110836
0.000488306
5.37243e-05
0.000157126
0.000378168
6.26078e-05
0.000128717
4.03828e-05
7.28086e-05
0.000366053
4.7229e-05
6.31411e-05
0.000381205
-3.13427e-05
5.4047e-05
0.000375928
5.45721e-05
4.85277e-05
0.000374254
0.000117726
8.99329e-06
0.000403529
6.78747e-05
-3.33758e-05
0.000403333
0.000170821
-1.56007e-05
0.000402881
0.000271056
-2.79759e-05
0.000452067
0.000128947
-5.49607e-05
0.000488253
3.60037e-05
-1.02922e-05
0.000497516
9.71694e-05
3.12844e-05
0.000536697
3.32545e-05
3.3729e-05
0.000566707
-0.000120701
1.86403e-05
0.000540804
-0.000210782
3.93956e-06
0.000530016
-0.000237561
3.17212e-05
0.000531625
-0.000129789
7.35505e-05
0.000486325
9.97273e-05
5.66047e-05
0.00047285
0.00016675
-3.46399e-05
0.000515067
-0.000119178
-8.77299e-05
0.00054177
-0.000252469
-4.32355e-05
0.00053246
3.45254e-05
9.54398e-06
0.000500393
0.000196307
1.47452e-05
0.000441313
3.178e-05
-1.10411e-05
0.000454177
-0.000210173
-1.13103e-05
0.000538472
-0.000242078
-8.26354e-06
0.000506851
-2.87895e-05
-5.18033e-06
0.000404342
9.85924e-05
9.25382e-06
0.000364213
0.000111834
2.34595e-05
0.000363259
0.000132588
1.90715e-05
0.000400226
-4.24612e-05
2.65857e-05
0.000478254
-0.00025949
4.44917e-05
0.000548094
-0.000341694
1.29038e-05
0.000567073
-0.000312576
-3.55553e-05
0.000547234
-0.000190262
-3.52882e-05
0.000508177
-0.000123146
2.26475e-06
0.000461033
-0.000268828
3.51132e-05
0.000532376
-0.000451444
4.54857e-05
0.000654626
-0.000325297
9.4074e-05
0.000610132
-1.56968e-05
0.000157926
0.000479007
0.000100734
0.000149546
9.81332e-05
8.90142e-05
0.000435608
8.88433e-05
6.64637e-05
0.000432247
-3.56299e-05
7.87814e-05
0.000427813
3.61813e-05
8.44553e-05
0.000423925
0.000127919
3.138e-05
0.000447969
5.99326e-05
-3.94024e-05
0.000460572
0.00015351
-2.73747e-05
0.000468831
0.000296784
-3.23564e-05
0.000498037
0.000163687
-8.24403e-05
0.000514389
3.67979e-05
-5.06086e-05
0.000537811
8.74399e-05
8.89874e-06
0.000594836
1.35336e-05
1.94798e-05
0.000624938
-0.000143857
2.91947e-06
0.000600042
-0.000204681
-4.76452e-06
0.000582224
-0.000239571
2.72812e-05
0.000586822
-0.000168467
6.35635e-05
0.000573007
3.40633e-05
5.75067e-05
0.000578834
9.73469e-05
-1.34038e-05
0.000602926
-0.000127914
-7.51879e-05
0.00059029
-0.00019689
-4.38413e-05
0.000586115
3.21549e-05
9.05784e-06
0.000613838
0.000124659
1.0658e-05
0.000578867
2.22993e-05
-2.18779e-05
0.00053436
-0.000159767
-2.10619e-05
0.000586984
-0.000239998
-6.83559e-06
0.000600544
-4.57619e-05
-7.04619e-06
0.000522433
9.10893e-05
1.16479e-05
0.000473052
0.000109804
2.12103e-05
0.000467313
0.000161135
1.98289e-05
0.000485137
-2.28213e-05
2.76544e-05
0.000527968
-0.000301707
3.16188e-05
0.000592975
-0.000427515
-6.58853e-06
0.000617116
-0.000377243
-4.82301e-05
0.000580675
-0.00019628
-5.35987e-05
0.000553747
-0.00010738
-2.03746e-05
0.000528816
-0.000246055
1.61867e-05
0.000560288
-0.000485677
1.82671e-05
0.000678007
-0.000468661
6.40846e-05
0.000690124
-0.000127872
0.000145342
0.000576246
9.64212e-05
0.000159776
0.000140725
9.51546e-05
0.00053608
0.000112388
5.61409e-05
0.000519579
-3.35656e-05
8.39373e-05
0.000497888
1.09374e-05
0.000106603
0.000486461
0.000116825
5.06766e-05
0.000499103
4.65046e-05
-3.45845e-05
0.000518595
0.000113918
-2.93235e-05
0.000541341
0.000275824
-2.62125e-05
0.00055995
0.000182775
-9.86899e-05
0.000557669
4.99693e-05
-8.7018e-05
0.000581835
6.69077e-05
-1.47902e-05
0.000641583
-1.53935e-05
2.60871e-06
0.000673733
-0.000158949
-1.76528e-05
0.000665746
-0.000209282
-1.56827e-05
0.000650652
-0.000251343
1.59592e-05
0.000646356
-0.00019966
5.43462e-05
0.000643644
-1.32892e-05
5.67196e-05
0.000653795
3.89987e-05
2.19584e-06
0.000667502
-0.000135656
-5.60323e-05
0.000649073
-0.00013853
-3.32832e-05
0.000643431
5.31756e-05
7.64455e-06
0.000678714
6.89247e-05
8.05542e-06
0.000665777
2.53475e-06
-2.91116e-05
0.000612141
-0.00010423
-3.39203e-05
0.000628837
-0.00020962
-9.58402e-06
0.000667607
-6.98339e-05
-1.12312e-05
0.000639253
5.66143e-05
-1.63255e-06
0.000596701
0.000100031
8.31592e-06
0.000579965
0.000196772
7.47381e-06
0.00058347
2.69345e-05
2.09721e-05
0.000596611
-0.00028874
2.10462e-05
0.000641406
-0.000455913
-2.28413e-05
0.000673282
-0.000419098
-5.099e-05
0.000636368
-0.000189594
-5.83907e-05
0.000606366
-9.49578e-05
-3.13511e-05
0.00061289
-0.000254647
6.79329e-06
0.000633844
-0.00050225
3.54078e-06
0.000707981
-0.000551825
3.69859e-05
0.000737145
-0.000230618
0.000124322
0.000648425
6.43107e-05
0.000160563
0.000150707
9.92362e-05
0.000670367
7.9911e-05
5.98528e-05
0.000673109
-5.96077e-05
9.2027e-05
0.000620689
-1.48027e-05
0.000118828
0.000582112
9.16961e-05
7.09984e-05
0.000575071
3.12909e-05
-1.15414e-05
0.000579518
7.50584e-05
-1.78591e-05
0.000600218
0.000224467
-1.40926e-05
0.000623462
0.000165489
-9.93337e-05
0.000622131
4.88503e-05
-0.000107454
0.000631731
4.72091e-05
-2.59441e-05
0.000674819
-3.37226e-05
-4.07821e-06
0.000720363
-0.000167754
-3.73001e-05
0.000743163
-0.000222561
-3.93288e-05
0.000733017
-0.000267639
-8.56202e-06
0.000717146
-0.000223494
3.75602e-05
0.000717086
-4.89234e-05
5.94465e-05
0.000723333
2.90837e-06
1.87013e-05
0.000726343
-0.000136392
-3.83736e-05
0.00071995
-9.92605e-05
-2.11848e-05
0.000718129
8.19823e-05
1.16819e-05
0.000731803
5.07836e-05
1.12537e-05
0.000723555
-1.19978e-05
-2.93081e-05
0.000687528
-6.88458e-05
-4.36941e-05
0.000681695
-0.000172828
-1.02881e-05
0.000717275
-8.76944e-05
-9.9607e-06
0.000730891
4.97491e-06
-1.20776e-05
0.000702588
8.26725e-05
-5.70846e-06
0.000665617
0.000226858
-7.16031e-06
0.000659477
6.8979e-05
1.74356e-05
0.00066706
-0.000265865
2.8327e-05
0.000696201
-0.000459033
-1.80766e-05
0.000731358
-0.000454536
-4.57369e-05
0.000704398
-0.00019294
-5.03851e-05
0.000654636
-6.28233e-05
-3.38388e-05
0.000660529
-0.00024453
-1.4335e-05
0.000702057
-0.000515187
-2.43405e-05
0.000751796
-0.000592912
8.2029e-06
0.000767797
-0.000286791
9.74206e-05
0.000703061
3.69899e-05
0.000150239
0.000128587
0.000109623
0.000748264
-3.23615e-05
5.8435e-05
0.000813964
-0.000165005
9.06484e-05
0.00077873
-7.60149e-05
0.000128435
0.000721685
5.44462e-05
0.000100333
0.000689944
1.92827e-05
2.49784e-05
0.000657491
5.78048e-05
5.4662e-06
0.000656724
0.000175233
5.00165e-06
0.000690169
0.000123053
-9.05999e-05
0.000697253
2.67065e-05
-0.000113993
0.000690227
2.78113e-05
-2.82103e-05
0.000717523
-3.90681e-05
-1.08873e-05
0.000777339
-0.000162705
-6.71261e-05
0.000831431
-0.000227068
-8.13471e-05
0.000830911
-0.000276572
-4.38216e-05
0.000802553
-0.000238225
1.1861e-05
0.00079884
-7.70195e-05
6.19259e-05
0.000802554
-1.76499e-05
3.91741e-05
0.000793501
-0.000125936
-1.7933e-05
0.000796426
-7.6989e-05
-9.98357e-06
0.000807557
9.77866e-05
1.87014e-05
0.000798729
6.00808e-05
1.87264e-05
0.000774407
-1.24981e-05
-2.38017e-05
0.00075843
-5.4841e-05
-5.39259e-05
0.00076137
-0.000150108
-1.99459e-05
0.000779996
-8.67787e-05
-8.48583e-06
0.000784411
-9.62875e-06
-8.19494e-06
0.000757692
7.43526e-05
5.94408e-06
0.000725637
0.000238319
1.411e-06
0.000729695
0.000100468
2.09987e-05
0.000739268
-0.000238498
3.98608e-05
0.000751752
-0.000453995
-2.87892e-06
0.0007805
-0.000491976
-3.22343e-05
0.000774163
-0.00023606
-2.94533e-05
0.000735584
-4.57883e-05
-2.87752e-05
0.000730738
-0.000203564
-3.39182e-05
0.000775983
-0.00051107
-5.74235e-05
0.000823833
-0.00061181
-2.30997e-05
0.000813698
-0.000284618
7.07462e-05
0.00073273
4.44282e-05
0.000132679
8.0768e-05
0.000108696
0.000784617
-0.000129652
3.69194e-05
0.000858922
-0.000272987
6.73865e-05
0.000871737
-0.000156156
0.000119759
0.000841511
1.14225e-05
0.000118412
0.000808154
1.09037e-05
5.35326e-05
0.000757585
5.72755e-05
2.58353e-05
0.000744726
0.000142872
2.79371e-05
0.000782262
8.86937e-05
-6.68227e-05
0.000788006
1.45275e-05
-0.000115314
0.000769211
2.69783e-05
-5.02512e-05
0.000788613
-2.24764e-05
-4.43716e-05
0.000851894
-0.000132321
-0.000111612
0.000922169
-0.000219382
-0.000124753
0.000936232
-0.000287225
-7.56598e-05
0.00089987
-0.000250322
-1.57761e-05
0.000881103
-9.86477e-05
5.90679e-05
0.000885005
-3.48506e-05
6.64726e-05
0.000876139
-0.000115794
1.26394e-05
0.000877441
-5.61572e-05
2.45964e-06
0.000894333
0.000103434
2.9685e-05
0.000878603
7.29627e-05
2.95221e-05
0.000840095
-3.9858e-06
-2.16801e-05
0.00083292
-4.5746e-05
-6.76117e-05
0.000848365
-0.000131676
-3.09453e-05
0.000846278
-6.4639e-05
3.97188e-06
0.000810551
2.16398e-05
2.36673e-05
0.00077137
8.88722e-05
3.00289e-05
0.000767713
0.000225973
5.16519e-06
0.00080445
0.000108595
2.17932e-05
0.000821601
-0.00021183
5.90223e-05
0.00081753
-0.000432013
1.70865e-05
0.000827215
-0.000513979
-1.45414e-05
0.000827999
-0.000306929
-4.1626e-06
0.000817259
-7.04024e-05
-1.17674e-05
0.000822196
-0.000156352
-3.1374e-05
0.00085139
-0.000472875
-6.98571e-05
0.000895441
-0.000606859
-4.23721e-05
0.00089583
-0.000271746
5.19084e-05
0.000819707
5.41684e-05
0.000110891
3.86366e-05
8.45781e-05
0.000877494
-0.000137724
1.95929e-05
0.000888914
-0.000290327
6.33538e-05
0.000926063
-0.000214151
0.000129498
0.000943285
-3.93043e-05
0.000137878
0.000930449
-1.6339e-06
8.3977e-05
0.000882046
5.61762e-05
5.02391e-05
0.000864446
0.000124703
5.27153e-05
0.000902441
6.86032e-05
-3.23131e-05
0.000906248
1.76558e-05
-0.00010416
0.000875945
4.9744e-05
-7.15141e-05
0.000885144
2.00259e-05
-7.47406e-05
0.000942915
-8.4176e-05
-0.000140011
0.00101541
-0.000208929
-0.000149523
0.00104165
-0.000308194
-9.62882e-05
0.00100302
-0.000265958
-3.75975e-05
0.000961179
-0.000106927
4.84457e-05
0.000957714
-4.84213e-05
0.000101437
0.000965258
-0.000114866
6.25492e-05
0.000971874
-4.63528e-05
1.51402e-05
0.000976612
0.000104004
2.30629e-05
0.000949023
8.89361e-05
4.06841e-05
0.000907871
1.62906e-05
-1.55976e-05
0.000905236
-3.60872e-05
-8.52226e-05
0.000924511
-0.000122213
-3.71396e-05
0.000920213
-5.37136e-05
3.83933e-05
0.000873721
5.33866e-05
5.8609e-05
0.000829556
0.000100051
2.86823e-05
0.000843642
0.000196211
-2.44605e-05
0.000896456
9.31639e-05
1.60671e-05
0.000915613
-0.000197311
8.99738e-05
0.000902546
-0.000401547
4.76092e-05
0.000892166
-0.00050849
7.11363e-06
0.000884557
-0.000370855
2.09641e-05
0.000888102
-0.000125438
1.23322e-05
0.000914518
-0.000148203
-1.36492e-06
0.000943004
-0.00043201
-5.58956e-05
0.000965069
-0.000567324
-5.58605e-05
0.000977363
-0.000253036
3.41175e-05
0.000959361
3.34011e-05
9.25505e-05
1.08448e-05
6.04099e-05
0.00101786
-0.000104226
-3.79132e-06
0.000969456
-0.00023109
5.61608e-05
0.000985271
-0.000232042
0.00014784
0.0010208
-9.98458e-05
0.00016358
0.00102911
-4.5159e-05
0.000120299
0.00100327
1.91841e-05
8.69329e-05
0.000991376
9.41232e-05
7.5832e-05
0.0010264
5.2552e-05
-1.34262e-06
0.00103512
2.11279e-05
-8.02648e-05
0.00100247
7.46311e-05
-7.14461e-05
0.000998265
7.29216e-05
-8.31201e-05
0.00104542
-2.64649e-05
-0.000147206
0.00112069
-0.000195967
-0.000161193
0.00115694
-0.000329257
-0.000119094
0.00111441
-0.00026645
-6.81549e-05
0.00105171
-9.29094e-05
3.38381e-05
0.00103494
-6.3039e-05
0.00014532
0.0010567
-0.000130113
0.000127439
0.00107786
-4.41913e-05
3.30728e-05
0.00106131
0.000115629
1.33945e-05
0.00100167
0.000119082
5.22914e-05
0.000962139
4.16146e-05
-1.73622e-06
0.000983783
-4.05425e-05
-8.95111e-05
0.00101064
-0.000137212
-3.46212e-05
0.00100172
-6.83578e-05
6.57873e-05
0.000965093
5.98391e-05
6.67421e-05
0.000939131
9.01274e-05
8.53097e-06
0.000968083
0.000147922
-3.83613e-05
0.00101928
6.48191e-05
3.82276e-05
0.00102569
-0.000183151
0.000139792
0.00100691
-0.000356474
8.28915e-05
0.000991532
-0.000471833
1.40366e-05
0.000975101
-0.000396988
2.64704e-05
0.000978594
-0.000174532
3.00872e-05
0.00101206
-0.000166567
2.65182e-05
0.00104375
-0.000405368
-2.91002e-05
0.00105919
-0.000516373
-5.71572e-05
0.00107192
-0.000227055
2.29229e-05
0.00108468
6.33701e-06
8.33296e-05
-2.17266e-05
4.34943e-05
0.00116146
-9.30456e-05
-1.70398e-05
0.00110477
-0.000165196
3.20981e-05
0.00108381
-0.000197512
0.000141217
0.00108849
-0.000117073
0.000173337
0.0010903
-8.90412e-05
0.000146308
0.0010919
-6.70909e-05
0.000125741
0.00110253
1.69163e-05
0.000103963
0.00113963
2.3805e-05
3.60407e-05
0.00116626
1.14205e-05
-4.10519e-05
0.00115464
7.58208e-05
-5.99015e-05
0.00114596
0.000108183
-8.97282e-05
0.00117535
2.82721e-05
-0.00014818
0.00124104
-0.000167862
-0.000160994
0.00128057
-0.000332842
-0.000133571
0.001238
-0.000251489
-9.28819e-05
0.001171
-7.51123e-05
2.05984e-05
0.0011498
-8.97436e-05
0.00016388
0.00116961
-0.000155787
0.000176089
0.00118599
-3.37711e-05
7.12244e-05
0.00114877
0.000143231
2.49092e-05
0.00107638
0.000141527
5.40863e-05
0.00105008
4.41235e-05
1.58987e-05
0.00108403
-4.80139e-05
-6.6163e-05
0.00110311
-0.00013799
-3.99194e-05
0.0010886
-8.07083e-05
3.14065e-05
0.00107629
3.75406e-05
4.03336e-05
0.00108426
5.71572e-05
1.82909e-05
0.00111829
9.48305e-05
-1.24157e-07
0.0011505
4.6113e-05
6.31909e-05
0.00114284
-0.000149062
0.000154868
0.00112429
-0.000283075
9.45726e-05
0.00111475
-0.000396499
7.95009e-06
0.00109756
-0.000369555
4.36573e-06
0.00109776
-0.000188512
1.85385e-05
0.00112909
-0.000184427
3.25876e-05
0.001153
-0.000392141
-3.75764e-06
0.00116433
-0.000475694
-4.28014e-05
0.00117965
-0.000209232
2.12623e-05
0.00119525
-7.41793e-06
8.0039e-05
-4.90953e-05
4.23787e-05
0.00128544
-0.000105416
-2.03484e-06
0.00124189
-0.000136499
-1.36831e-06
0.00120699
-0.000131378
8.26943e-05
0.0011866
-8.182e-05
0.000148025
0.0011792
-0.000110235
0.000160236
0.00119284
-0.000171183
0.00017063
0.00121503
-9.4086e-05
0.000159345
0.00124908
-2.23621e-05
0.000101354
0.00128472
-1.36294e-05
3.01948e-05
0.00130378
3.5842e-05
-1.09539e-05
0.0013173
8.93685e-05
-6.64908e-05
0.00133695
5.60009e-05
-0.000127779
0.00137166
-0.000120228
-0.000139293
0.00140512
-0.000308002
-0.000125801
0.00138837
-0.000255737
-9.22864e-05
0.001344
-9.61276e-05
8.93034e-06
0.00132047
-0.00011508
0.000130151
0.00130753
-0.00015441
0.000175209
0.0012943
-2.22484e-05
0.000140063
0.00127094
0.000130554
9.2272e-05
0.00123374
0.000117878
5.12187e-05
0.0012126
3.24794e-05
-1.61537e-05
0.00122194
-4.88477e-05
-7.29183e-05
0.00122893
-0.000128978
-5.54872e-05
0.00122565
-8.77578e-05
-2.06942e-05
0.00122267
3.004e-05
3.57257e-07
0.00122252
5.58373e-05
3.41789e-05
0.00123929
7.24618e-05
2.69061e-05
0.00126718
1.65097e-05
4.53118e-05
0.00127908
-0.000137805
0.000104368
0.00127358
-0.000205455
6.46443e-05
0.00125827
-0.000285238
-1.352e-06
0.00123318
-0.000303178
-2.74169e-06
0.00123069
-0.000187089
3.45802e-06
0.00125803
-0.000206282
1.63018e-05
0.00127143
-0.0003767
-7.95786e-06
0.00127473
-0.000426093
-4.84698e-05
0.00129006
-0.000180012
-2.35759e-06
0.00130505
-1.25958e-06
7.19805e-05
-5.91454e-05
6.43019e-05
0.00137272
-7.13125e-05
-6.4226e-06
0.0013277
-0.000112712
-6.0941e-05
0.0013087
-0.000111979
-8.95768e-06
0.00131273
-6.17776e-05
8.01599e-05
0.00132084
-0.000117254
0.000140098
0.00133014
-0.000230734
0.000176489
0.00134137
-0.000182107
0.000193914
0.00137116
-8.63126e-05
0.000173029
0.00141019
-7.21918e-05
0.000129079
0.00143538
-4.33506e-05
7.93898e-05
0.0014624
1.51668e-05
3.19914e-06
0.00149902
2.66332e-05
-7.14392e-05
0.00152594
-9.54114e-05
-9.45722e-05
0.00154133
-0.000264395
-9.66508e-05
0.00154532
-0.000272088
-7.72913e-05
0.00154234
-0.000164193
-8.80362e-06
0.00151858
-0.000147103
8.41541e-05
0.00145573
-0.00012314
0.000167386
0.00139844
3.42583e-06
0.000199985
0.00137989
9.25921e-05
0.000155395
0.00137532
4.62079e-05
5.40075e-05
0.00137486
-1.35787e-05
-6.80523e-05
0.00138811
-5.51004e-05
-0.000139729
0.0014005
-0.000122011
-0.000109554
0.00139934
-9.39166e-05
-5.38281e-05
0.00137773
5.96203e-05
-1.65672e-05
0.0013443
0.000123889
1.58023e-05
0.00133111
0.000102679
-4.39374e-06
0.0013559
-1.64235e-05
-3.2076e-05
0.00140238
-0.000198262
-1.1097e-06
0.0014325
-0.00020086
-2.16789e-05
0.0014209
-0.000192059
-4.96556e-05
0.00138167
-0.000230642
-8.25685e-06
0.00136954
-0.000197891
-1.23371e-05
0.0013949
-0.000228187
-4.90983e-05
0.00140704
-0.000340582
-6.86873e-05
0.00140769
-0.000366938
-6.63654e-05
0.00142221
-0.000168084
1.10528e-05
0.00143243
-6.98275e-06
0.000108744
-2.79266e-05
9.3258e-05
0.0014405
3.31154e-06
-1.27971e-06
0.0013993
-6.10294e-05
-0.000135315
0.00139788
-7.43183e-05
-0.000155764
0.00143232
-3.31492e-05
-6.71924e-05
0.00146342
-7.79757e-05
3.44544e-05
0.0014717
-0.000185164
0.000112146
0.00147744
-0.00017432
0.000172454
0.00152109
-0.000138515
0.000193192
0.00158512
-0.000183142
0.000183563
0.00161823
-0.000178223
0.000155957
0.00163903
-0.000110192
8.33744e-05
0.00167854
-7.01815e-05
-3.74368e-06
0.00170696
-0.000136922
-3.22343e-05
0.00170781
-0.000240585
-3.88308e-05
0.0017046
-0.000264961
-5.99345e-05
0.00171919
-0.000233175
-4.75422e-05
0.00169479
-0.000202216
3.09776e-05
0.00158991
-8.89145e-05
0.000160431
0.0014977
4.50341e-05
0.000228186
0.00148508
6.3857e-05
0.00017093
0.00150145
-1.46143e-05
5.61643e-05
0.00151631
-7.48307e-05
-6.35132e-05
0.00154571
-9.23082e-05
-0.000166597
0.00156846
-0.000134325
-0.000165765
0.00155963
-9.54154e-05
-8.27583e-05
0.00152209
8.82757e-05
-5.22991e-06
0.00148392
0.000184329
1.68613e-05
0.00146662
0.000132276
-4.00235e-05
0.00147167
-2.65412e-05
-0.000121717
0.00150444
-0.00024353
-0.000131001
0.00154573
-0.000254689
-0.000136002
0.00155845
-0.000175409
-0.000125563
0.00152926
-0.000176475
-3.818e-05
0.00150616
-0.000193909
-3.9767e-05
0.00152391
-0.00023462
-0.000131588
0.00154897
-0.00029544
-0.000156302
0.00156358
-0.000316638
-8.75738e-05
0.00156759
-0.000178652
4.97145e-05
0.00154698
-2.7829e-05
0.000174485
1.73724e-05
0.000149992
0.00152683
6.12512e-05
6.41884e-05
0.00151308
-4.07364e-06
-0.000101033
0.00153623
-1.94594e-05
-0.000209264
0.00158652
2.69867e-05
-0.000195446
0.00162591
-1.52344e-06
-9.29253e-05
0.00163498
-9.46581e-05
3.63261e-05
0.0016364
-9.96117e-05
0.000145039
0.00167438
-0.000112624
0.000183323
0.00175751
-0.00024542
0.000164229
0.00183923
-0.000314948
0.00014237
0.00187834