/*--------------------------------*- C++ -*----------------------------------*\
  =========                 |
  \\      /  F ield         | OpenFOAM: The Open Source CFD Toolbox
   \\    /   O peration     | Website:  https://openfoam.org
    \\  /    A nd           | Version:  10
     \\/     M anipulation  |
\*---------------------------------------------------------------------------*/
FoamFile
{
    format      ascii;
    class       volTensorField;
    location    "14";
    object      TauNN;
}
// * * * * * * * * * * * * * * * * * * * * * * * * * * * * * * * * * * * * * //

dimensions      [0 2 -2 0 0 0 0];

internalField   nonuniform List<tensor> 
25600
(
(-0.000589792 -0.00355461 0.00589041 -0.00355461 0.00971114 -0.00180455 0.00589041 -0.00180455 0.00906195)
(-0.000564556 -0.00320324 0.00544491 -0.00320324 0.00922962 -0.00187184 0.00544491 -0.00187184 0.00875702)
(-0.000375671 -0.00227078 0.0049389 -0.00227078 0.00854387 -0.00234057 0.0049389 -0.00234057 0.00715117)
(-0.001123 -0.00133724 0.00470354 -0.00133724 0.00852461 -0.00134599 0.00470354 -0.00134599 0.00728594)
(-0.0007098 -0.00304511 0.00526407 -0.00304511 0.00929557 -0.00167056 0.00526407 -0.00167056 0.00890795)
(0.000360184 -0.0028933 0.00510664 -0.0028933 0.00910892 -0.00257962 0.00510664 -0.00257962 0.00770751)
(0.00112259 -0.00245339 0.00464986 -0.00245339 0.00820286 -0.00277047 0.00464986 -0.00277047 0.00633986)
(-0.00139792 -0.00310225 0.00535162 -0.00310225 0.00919929 -0.00141069 0.00535162 -0.00141069 0.00889881)
(-4.93929e-05 -0.00253523 0.00474215 -0.00253523 0.00850287 -0.00263286 0.00474215 -0.00263286 0.00688476)
(0.0026001 -0.00228486 0.00388626 -0.00228486 0.00724884 -0.00288881 0.00388626 -0.00288881 0.00546551)
(0.000931949 -0.00231264 0.00434463 -0.00231264 0.00794074 -0.0025168 0.00434463 -0.0025168 0.00654377)
(-0.00135317 -0.0022966 0.00500265 -0.0022966 0.00909118 -0.00110741 0.00500265 -0.00110741 0.00795186)
(-0.00188418 -0.00270872 0.0052575 -0.00270872 0.00942531 -0.00114799 0.0052575 -0.00114799 0.00839159)
(-0.00164082 -0.00308046 0.00547309 -0.00308046 0.00924459 -0.00150179 0.00547309 -0.00150179 0.00857108)
(-0.00119157 -0.00257865 0.00514663 -0.00257865 0.0088711 -0.0020461 0.00514663 -0.0020461 0.00789402)
(-0.00178921 -0.00289229 0.0053228 -0.00289229 0.0093749 -0.00119418 0.0053228 -0.00119418 0.0086918)
(-0.000925884 -0.0032606 0.00547291 -0.0032606 0.00933803 -0.00174964 0.00547291 -0.00174964 0.00881416)
(0.00327742 -0.00249276 0.00354462 -0.00249276 0.00702083 -0.0030201 0.00354462 -0.0030201 0.00526824)
(-1.09506e-05 -0.00207856 0.00459091 -0.00207856 0.00818651 -0.00220093 0.00459091 -0.00220093 0.00699627)
(-0.000141439 -0.00227268 0.00450848 -0.00227268 0.00816181 -0.00252255 0.00450848 -0.00252255 0.0066168)
(-0.00160053 -0.00238611 0.00500116 -0.00238611 0.00930498 -0.000995613 0.00500116 -0.000995613 0.00826182)
(-0.00103095 -0.00292654 0.00642308 -0.00292654 0.0100471 -0.00221313 0.00642308 -0.00221313 0.00836051)
(-0.000145263 -0.00321931 0.00542517 -0.00321931 0.00919975 -0.00235592 0.00542517 -0.00235592 0.00815562)
(0.00171874 -0.00225676 0.0038852 -0.00225676 0.00747014 -0.00277632 0.0038852 -0.00277632 0.00574358)
(-0.00151895 -0.00262642 0.00514168 -0.00262642 0.00911669 -0.00143689 0.00514168 -0.00143689 0.00850572)
(-0.000682526 -0.00346194 0.00592772 -0.00346194 0.00981974 -0.00182927 0.00592772 -0.00182927 0.00903494)
(0.000595826 -0.00354013 0.00569399 -0.00354013 0.00962027 -0.00189254 0.00569399 -0.00189254 0.00928344)
(-0.000279536 -0.00329181 0.00554596 -0.00329181 0.00927675 -0.00200083 0.00554596 -0.00200083 0.00870125)
(-0.000420326 -0.00273579 0.00491269 -0.00273579 0.00860797 -0.00238623 0.00491269 -0.00238623 0.00747371)
(0.00101891 -0.00259682 0.00389137 -0.00259682 0.00781035 -0.00281436 0.00389137 -0.00281436 0.00610744)
(0.00828968 -0.00268016 0.000905443 -0.00268016 0.00566307 -0.00340526 0.000905443 -0.00340526 0.00506356)
(0.00541415 -0.00202529 0.00194778 -0.00202529 0.00693495 -0.00271022 0.00194778 -0.00271022 0.00529426)
(0.000840979 -0.000375975 0.00367747 -0.000375975 0.00925145 -0.00115047 0.00367747 -0.00115047 0.00545122)
(0.00111973 -0.00272285 0.0054331 -0.00272285 0.00938764 -0.00165692 0.0054331 -0.00165692 0.00751396)
(-0.000631009 -0.00280908 0.00643445 -0.00280908 0.0101645 -0.00227879 0.00643445 -0.00227879 0.00870703)
(6.17138e-05 -0.00351046 0.00572347 -0.00351046 0.00945803 -0.00200178 0.00572347 -0.00200178 0.00889566)
(-0.0014974 -0.00268197 0.00592883 -0.00268197 0.00979399 -0.00184643 0.00592883 -0.00184643 0.00806997)
(-0.000138892 -0.00273687 0.0050206 -0.00273687 0.00886646 -0.00254083 0.0050206 -0.00254083 0.00742833)
(0.00427648 -0.00302072 0.00272746 -0.00302072 0.00639791 -0.00325851 0.00272746 -0.00325851 0.00505453)
(-0.00176121 -0.00298992 0.00561526 -0.00298992 0.00956494 -0.0015006 0.00561526 -0.0015006 0.00855121)
(0.00140442 -0.00306591 0.00457623 -0.00306591 0.00949237 -0.0019729 0.00457623 -0.0019729 0.00873388)
(0.00111058 -0.0019571 0.00509582 -0.0019571 0.00960418 -0.00189823 0.00509582 -0.00189823 0.00751516)
(-0.000329485 -0.00114424 0.00578835 -0.00114424 0.00865688 -0.00226489 0.00578835 -0.00226489 0.00694553)
(-3.92608e-05 -0.000996737 0.0043915 -0.000996737 0.00923953 -0.00189382 0.0043915 -0.00189382 0.00800671)
(0.00207421 -0.00154843 0.00432018 -0.00154843 0.00934434 -0.00122855 0.00432018 -0.00122855 0.00768525)
(0.000294536 -0.00238817 0.00540746 -0.00238817 0.00912054 -0.00262112 0.00540746 -0.00262112 0.00761252)
(0.00213807 -0.00355589 0.00367079 -0.00355589 0.00884975 -0.00298358 0.00367079 -0.00298358 0.00714101)
(-0.000669092 -0.00100507 0.00484188 -0.00100507 0.00896316 -0.00170525 0.00484188 -0.00170525 0.00705596)
(0.00455126 0.00100446 0.00450716 0.00100446 0.00522575 -0.0036009 0.00450716 -0.0036009 0.00594234)
(0.00991711 -0.00321072 0.00204164 -0.00321072 0.00849002 -0.0027211 0.00204164 -0.0027211 0.00784703)
(0.00224058 -0.00169525 0.00626124 -0.00169525 0.00840346 -0.00300512 0.00626124 -0.00300512 0.00829993)
(0.00343788 0.000290141 0.00613052 0.000290141 0.00863829 -0.00209972 0.00613052 -0.00209972 0.00787423)
(0.00303173 -0.000233564 0.00272837 -0.000233564 0.00899965 -0.00069803 0.00272837 -0.00069803 0.00603166)
(0.00287824 0.000283635 0.00357077 0.000283635 0.00885722 -0.00123784 0.00357077 -0.00123784 0.005173)
(7.28157e-05 -0.000682789 0.00553951 -0.000682789 0.00862591 -0.00201942 0.00553951 -0.00201942 0.00642239)
(0.0039452 0.000298078 0.00297642 0.000298078 0.00905742 -0.000840975 0.00297642 -0.000840975 0.0053705)
(0.00112327 -0.00136128 0.00460208 -0.00136128 0.0091964 -0.00149801 0.00460208 -0.00149801 0.00639063)
(0.00278057 -0.00173741 0.00440382 -0.00173741 0.00736134 -0.00330828 0.00440382 -0.00330828 0.00647976)
(0.00342194 0.00136858 0.00665828 0.00136858 0.00737119 -0.00195441 0.00665828 -0.00195441 0.00687152)
(0.00382346 0.00050516 0.00694193 0.00050516 0.00775492 -0.00231084 0.00694193 -0.00231084 0.00782218)
(0.00841715 0.00103741 0.00347203 0.00103741 0.00867895 -0.000774601 0.00347203 -0.000774601 0.00494815)
(0.0043386 -0.00109963 0.00444634 -0.00109963 0.00868685 -0.00152267 0.00444634 -0.00152267 0.00469815)
(0.00337933 -0.00105314 0.00462501 -0.00105314 0.00630986 -0.003052 0.00462501 -0.003052 0.00539963)
(0.00132114 -6.01262e-06 0.00660459 -6.01262e-06 0.0075871 -0.00261438 0.00660459 -0.00261438 0.00709336)
(0.00327253 0.000151949 0.00441234 0.000151949 0.00903929 -0.00139817 0.00441234 -0.00139817 0.00607401)
(0.00422683 -0.0011374 0.00457998 -0.0011374 0.00951414 -0.00150998 0.00457998 -0.00150998 0.0057394)
(0.00033978 -0.00284636 0.00599326 -0.00284636 0.00969138 -0.00224045 0.00599326 -0.00224045 0.00822486)
(0.000419232 -0.00254018 0.00588707 -0.00254018 0.00885028 -0.00247043 0.00588707 -0.00247043 0.00835943)
(0.00133335 0.000425724 0.00563055 0.000425724 0.00698898 -0.00198221 0.00563055 -0.00198221 0.00538776)
(0.0040009 0.00122086 0.00480878 0.00122086 0.00372954 -0.00287455 0.00480878 -0.00287455 0.0051916)
(0.0134177 -0.00255724 0.000488987 -0.00255724 0.00442681 0.00124044 0.000488987 0.00124044 0.00671515)
(0.00835717 0.00182074 0.00554121 0.00182074 0.00543374 -0.0019819 0.00554121 -0.0019819 0.00743989)
(0.0033272 -0.0010982 0.00391238 -0.0010982 0.00928185 -0.00116695 0.00391238 -0.00116695 0.00696543)
(0.0136077 0.00036566 0.00322931 0.00036566 0.00914242 -0.000679115 0.00322931 -0.000679115 0.00385889)
(0.00490317 -0.00240212 0.00493695 -0.00240212 0.0103667 -0.00189255 0.00493695 -0.00189255 0.00788474)
(0.00434939 -0.000563513 0.00682883 -0.000563513 0.007987 -0.00252511 0.00682883 -0.00252511 0.00710595)
(0.00154036 -0.00127949 0.00448275 -0.00127949 0.00906908 -0.00139175 0.00448275 -0.00139175 0.00606575)
(0.00299402 -0.00129804 0.00482919 -0.00129804 0.00858512 -0.00309083 0.00482919 -0.00309083 0.00664517)
(0.0141521 -0.00421352 7.68742e-05 -0.00421352 0.00625306 -0.000222637 7.68742e-05 -0.000222637 0.0123883)
(0.00397206 -0.00283116 0.00325793 -0.00283116 0.00934538 -0.00201602 0.00325793 -0.00201602 0.00837055)
(0.00756491 0.00272995 0.00252847 0.00272995 0.00642121 8.24919e-05 0.00252847 8.24919e-05 0.00521004)
(0.0120443 -0.00527728 0.00377645 -0.00527728 0.00994713 -0.00134676 0.00377645 -0.00134676 0.00808012)
(0.00760176 -0.00267666 0.00432717 -0.00267666 0.0102378 -0.0020895 0.00432717 -0.0020895 0.00586741)
(0.0110196 -0.00197499 0.00437283 -0.00197499 0.009169 0.000378572 0.00437283 0.000378572 0.00740889)
(0.0109017 -0.000463353 0.00478563 -0.000463353 0.00818692 -9.25083e-05 0.00478563 -9.25083e-05 0.00753809)
(0.0106058 -0.00438504 0.00372194 -0.00438504 0.00958741 -0.00270283 0.00372194 -0.00270283 0.00531054)
(0.00784624 -0.00416629 0.00117905 -0.00416629 0.00956078 -0.00362822 0.00117905 -0.00362822 0.00497718)
(0.0141688 -0.00326678 0.00398961 -0.00326678 0.0105561 -0.00115281 0.00398961 -0.00115281 0.00625249)
(0.00341797 -0.00146433 0.00402128 -0.00146433 0.0085751 -0.00294058 0.00402128 -0.00294058 0.00591131)
(0.00652889 -0.00417138 0.00195356 -0.00417138 0.0050836 -0.00344037 0.00195356 -0.00344037 0.0079476)
(0.00417388 -0.0032732 0.00465976 -0.0032732 0.00935867 -0.00196566 0.00465976 -0.00196566 0.00580282)
(0.00867906 -0.00184248 0.00475048 -0.00184248 0.00903245 -0.000724046 0.00475048 -0.000724046 0.00627181)
(0.00827853 -0.000146949 0.0044427 -0.000146949 0.00841078 0.00014074 0.0044427 0.00014074 0.00663525)
(0.0160574 -0.00218416 0.00357989 -0.00218416 0.0087022 0.000936535 0.00357989 0.000936535 0.00974035)
(0.00822086 -0.00369313 0.00405981 -0.00369313 0.0103353 -0.000807351 0.00405981 -0.000807351 0.00814883)
(0.0186404 -0.00369301 0.00251093 -0.00369301 0.00974128 0.00120592 0.00251093 0.00120592 0.00725809)
(0.0129415 -0.00389274 0.00398212 -0.00389274 0.00954855 -0.000533942 0.00398212 -0.000533942 0.00695281)
(0.00546137 -0.00320529 0.00344904 -0.00320529 0.00952963 -0.00313317 0.00344904 -0.00313317 0.00485852)
(0.0111126 -0.00154448 0.00324436 -0.00154448 0.00993023 -0.00081674 0.00324436 -0.00081674 0.0037543)
(0.0113219 -0.002157 0.00313119 -0.002157 0.00976899 -8.56742e-05 0.00313119 -8.56742e-05 0.00365438)
(0.0174017 -6.04894e-06 0.00385816 -6.04894e-06 0.00806745 0.00158809 0.00385816 0.00158809 0.00615382)
(0.013427 -0.00388804 0.0035334 -0.00388804 0.0100777 -0.00172431 0.0035334 -0.00172431 0.00419579)
(0.00445419 -0.00290199 0.00424482 -0.00290199 0.00962422 -0.00269997 0.00424482 -0.00269997 0.00715597)
(0.00164247 -0.00229448 0.00536433 -0.00229448 0.00969968 -0.00229615 0.00536433 -0.00229615 0.00646253)
(0.0127488 -0.001645 0.00272728 -0.001645 0.00977508 -7.1547e-05 0.00272728 -7.1547e-05 0.005041)
(0.0153801 -0.0015277 0.00350287 -0.0015277 0.00964162 -0.000922805 0.00350287 -0.000922805 0.00275648)
(0.00926436 -0.00535553 0.00504608 -0.00535553 0.0101123 -0.00267461 0.00504608 -0.00267461 0.00780583)
(0.00711028 -0.00455839 0.00581953 -0.00455839 0.0107933 -0.00226958 0.00581953 -0.00226958 0.00893744)
(0.0052924 -0.00288762 0.0048887 -0.00288762 0.0106381 -0.00173074 0.0048887 -0.00173074 0.00768685)
(0.00297054 -0.00186498 0.00501137 -0.00186498 0.00949591 -0.00201706 0.00501137 -0.00201706 0.00584729)
(0.00192298 -0.000801804 0.00409955 -0.000801804 0.00567752 -0.00303664 0.00409955 -0.00303664 0.00514301)
(0.00517633 -0.000171304 0.00270247 -0.000171304 0.00899298 -0.000523882 0.00270247 -0.000523882 0.00299471)
(0.00628641 0.000722893 0.00446604 0.000722893 0.008099 -0.000299008 0.00446604 -0.000299008 0.00589411)
(0.0148821 0.00239593 0.0039578 0.00239593 0.00620052 0.00348742 0.0039578 0.00348742 0.00989936)
(0.0084213 -0.00450944 -0.00474509 -0.00450944 0.0108127 -0.000700783 -0.00474509 -0.000700783 0.00800101)
(0.0114741 -0.00387919 0.00157467 -0.00387919 0.010265 -0.00232877 0.00157467 -0.00232877 0.00442271)
(0.0147098 -0.00429194 0.00332667 -0.00429194 0.00990487 -0.000420484 0.00332667 -0.000420484 0.00774538)
(0.0109268 -0.0034463 0.00478569 -0.0034463 0.00977212 -0.00260211 0.00478569 -0.00260211 0.00712612)
(0.00129818 -0.00106076 0.0036837 -0.00106076 0.00628975 -0.00418997 0.0036837 -0.00418997 0.00588282)
(0.011485 -0.00311735 0.0014826 -0.00311735 0.0110258 0.00037351 0.0014826 0.00037351 0.00799593)
(0.00609446 0.000139561 0.00233036 0.000139561 0.00512697 -0.000100442 0.00233036 -0.000100442 0.00705037)
(0.0194435 -0.00413251 -0.00269431 -0.00413251 0.00852476 -0.00055014 -0.00269431 -0.00055014 0.00324316)
(0.0144626 -0.00449591 0.00316078 -0.00449591 0.0099442 -0.00307052 0.00316078 -0.00307052 0.00671547)
(0.0115824 -0.00267391 0.00344866 -0.00267391 0.00975099 -0.00187073 0.00344866 -0.00187073 0.0085013)
(0.0161879 -0.00155844 0.0033258 -0.00155844 0.0086402 -0.00087132 0.0033258 -0.00087132 0.00993812)
(0.017989 -0.00237781 0.00204809 -0.00237781 0.00927539 -0.00236301 0.00204809 -0.00236301 0.0104046)
(0.0116892 -0.00323149 0.00135478 -0.00323149 0.00879106 -0.00252187 0.00135478 -0.00252187 0.00715683)
(0.0124333 0.000140595 0.0027814 0.000140595 0.0026657 -1.12895e-05 0.0027814 -1.12895e-05 0.00714541)
(0.00825639 -0.00194303 0.00500535 -0.00194303 0.00996178 -0.00274397 0.00500535 -0.00274397 0.00684163)
(0.00474051 -0.00119303 0.00335354 -0.00119303 0.00735054 -0.00388253 0.00335354 -0.00388253 0.00571604)
(0.0139809 -0.00356069 -0.000702015 -0.00356069 0.0093376 -0.0032337 -0.000702015 -0.0032337 0.00806079)
(0.00878287 -0.0023001 0.00294908 -0.0023001 0.00932024 -0.00168994 0.00294908 -0.00168994 0.00759338)
(0.0100263 -0.00246772 0.00410956 -0.00246772 0.00981372 -0.00148733 0.00410956 -0.00148733 0.0082565)
(0.0199869 -0.000381886 0.00241033 -0.000381886 0.00807992 -0.000431635 0.00241033 -0.000431635 0.00910471)
(0.015906 -0.00310662 0.00343089 -0.00310662 0.00973048 -0.00136624 0.00343089 -0.00136624 0.00886857)
(0.0154312 6.45993e-05 -0.000148234 6.45993e-05 0.00575954 0.00309492 -0.000148234 0.00309492 0.00970625)
(0.0246258 -0.00428893 -0.000578739 -0.00428893 0.00829162 0.00105466 -0.000578739 0.00105466 0.00874494)
(0.0140862 -0.00114703 0.00526188 -0.00114703 0.00855886 -0.0025548 0.00526188 -0.0025548 0.0081979)
(0.0194614 -0.00121777 0.00246488 -0.00121777 0.00842098 0.000427424 0.00246488 0.000427424 0.00955392)
(0.0128661 -0.000630585 0.00517914 -0.000630585 0.00858582 -0.000955391 0.00517914 -0.000955391 0.00904286)
(0.0280308 -0.00211463 0.00181668 -0.00211463 0.00662799 0.000424301 0.00181668 0.000424301 0.00850647)
(0.00541101 -0.0016526 -0.000700278 -0.0016526 0.0084238 -0.00172335 -0.000700278 -0.00172335 0.00391579)
(0.0162142 -0.00583402 0.00218049 -0.00583402 0.00972826 -0.00324146 0.00218049 -0.00324146 0.00654968)
(0.00650235 -0.00285897 0.00473003 -0.00285897 0.00944922 -0.00255868 0.00473003 -0.00255868 0.00748066)
(0.0197547 -0.00245602 0.00193088 -0.00245602 0.0094929 -0.000541416 0.00193088 -0.000541416 0.00723996)
(0.0177492 -0.000865121 0.0054418 -0.000865121 0.00913558 -0.00187622 0.0054418 -0.00187622 0.00603454)
(0.0182399 -0.0012718 0.00409056 -0.0012718 0.00812237 -0.00277049 0.00409056 -0.00277049 0.00732942)
(0.0171487 -0.00404496 0.00247012 -0.00404496 0.00906109 -0.0030381 0.00247012 -0.0030381 0.00593018)
(0.0158136 -0.00291685 -0.000294005 -0.00291685 0.0088387 -0.00176608 -0.000294005 -0.00176608 0.00628801)
(0.0202087 -0.00170434 0.00515306 -0.00170434 0.0089124 -0.00137883 0.00515306 -0.00137883 0.010939)
(0.00186644 -0.00112802 0.00466628 -0.00112802 0.00856993 -0.00158753 0.00466628 -0.00158753 0.00535502)
(0.00649067 0.0017018 0.00334443 0.0017018 0.00838087 -0.00065989 0.00334443 -0.00065989 0.00436471)
(0.0129973 -0.000611955 0.00346181 -0.000611955 0.00835864 -0.000586924 0.00346181 -0.000586924 0.00765557)
(0.0221432 -0.00234688 -0.00131902 -0.00234688 0.00849638 0.00145773 -0.00131902 0.00145773 0.00999695)
(0.0130057 -0.00288527 -0.00152769 -0.00288527 0.0104241 -0.00231836 -0.00152769 -0.00231836 0.00966226)
(0.0116203 -0.00106683 -0.000449842 -0.00106683 0.00683922 -0.000261378 -0.000449842 -0.000261378 0.00342004)
(0.0108167 -0.00459088 -0.00545721 -0.00459088 0.0115902 -0.00283339 -0.00545721 -0.00283339 0.00932649)
(0.0232707 -0.00136911 0.00398022 -0.00136911 0.00834392 -0.00333507 0.00398022 -0.00333507 0.00681117)
(0.00533029 -0.0011399 0.00476667 -0.0011399 0.00823764 -0.00324872 0.00476667 -0.00324872 0.00601639)
(0.0135367 -0.00310178 -0.00084724 -0.00310178 0.0118641 -0.00250295 -0.00084724 -0.00250295 0.0088966)
(0.00775556 -0.00396771 0.000165701 -0.00396771 0.01078 -0.000193874 0.000165701 -0.000193874 0.00336261)
(0.0149295 -0.00202907 0.000781808 -0.00202907 0.00669535 0.00170168 0.000781808 0.00170168 0.00585356)
(0.0166813 -0.00480814 3.86983e-05 -0.00480814 0.00854753 -0.000394542 3.86983e-05 -0.000394542 0.00974128)
(0.0124966 -0.00259102 0.00268394 -0.00259102 0.00955755 -0.00264893 0.00268394 -0.00264893 0.00451549)
(0.00879372 -0.000360992 0.0021394 -0.000360992 0.00838032 -0.000984805 0.0021394 -0.000984805 0.00293352)
(0.00896953 -0.000733546 0.00285173 -0.000733546 0.00792706 -0.00164522 0.00285173 -0.00164522 0.00623801)
(0.0102987 -0.00442055 -0.000723088 -0.00442055 0.00887551 -0.00340794 -0.000723088 -0.00340794 0.00543973)
(0.00865608 -0.00448989 -0.00157306 -0.00448989 0.0108875 -0.00114809 -0.00157306 -0.00114809 0.00878108)
(0.00966953 -0.00574171 0.0036913 -0.00574171 0.0102688 -0.00284542 0.0036913 -0.00284542 0.00749128)
(0.00785533 -0.00136252 0.00392988 -0.00136252 0.00900356 -0.00380676 0.00392988 -0.00380676 0.00562321)
(0.00917367 -0.0049266 -0.00131846 -0.0049266 0.00886467 -0.00305459 -0.00131846 -0.00305459 0.00516015)
(0.0106617 -0.0025419 0.00432343 -0.0025419 0.00967535 -0.00140894 0.00432343 -0.00140894 0.00585554)
(0.0133392 -0.00153473 0.00231634 -0.00153473 0.00907299 -0.000198096 0.00231634 -0.000198096 0.00315665)
(0.0137277 -0.000865036 0.00437992 -0.000865036 0.00848939 -0.00124771 0.00437992 -0.00124771 0.00849425)
(0.0130202 0.000152824 0.00379178 0.000152824 0.00704241 0.00102695 0.00379178 0.00102695 0.00803896)
(0.0150793 0.00191037 0.00222553 0.00191037 0.00512416 0.00387489 0.00222553 0.00387489 0.00956459)
(0.0136403 0.00176329 0.00218609 0.00176329 0.00508396 0.003124 0.00218609 0.003124 0.00840111)
(0.0169682 -0.00133771 0.00341353 -0.00133771 0.0089965 -0.00300399 0.00341353 -0.00300399 0.00559052)
(0.0164339 2.29105e-05 0.00248874 2.29105e-05 0.00707763 0.0025501 0.00248874 0.0025501 0.0084316)
(0.0155402 -0.00189971 0.00372222 -0.00189971 0.00881832 0.000509699 0.00372222 0.000509699 0.00706877)
(0.0155148 -0.00261079 -0.00415045 -0.00261079 0.00734933 0.000704276 -0.00415045 0.000704276 0.0087771)
(0.0139366 -0.00408544 -0.000444762 -0.00408544 0.00799095 0.00113744 -0.000444762 0.00113744 0.00633147)
(0.016856 -0.00408356 -0.000208537 -0.00408356 0.00793467 -0.000633322 -0.000208537 -0.000633322 0.00782251)
(0.0123437 -0.00573501 0.00348142 -0.00573501 0.0104006 -0.00375507 0.00348142 -0.00375507 0.00612894)
(0.0142416 -0.000782238 0.00356722 -0.000782238 0.00817643 0.000541696 0.00356722 0.000541696 0.0075559)
(0.00774857 0.00080282 0.00417863 0.00080282 0.00683276 -0.000544414 0.00417863 -0.000544414 0.00579262)
(0.0107415 -0.00386724 0.00305531 -0.00386724 0.00994565 -0.00375352 0.00305531 -0.00375352 0.00542755)
(0.0152288 -0.00339631 0.00222504 -0.00339631 0.00932915 -0.00464255 0.00222504 -0.00464255 0.00537732)
(0.0103948 0.000209076 0.000295112 0.000209076 0.00738403 -0.000601892 0.000295112 -0.000601892 0.00597354)
(0.0075187 -0.00561783 -0.00444784 -0.00561783 0.0111397 -0.00168949 -0.00444784 -0.00168949 0.00935359)
(0.0232584 -0.00333505 0.00128204 -0.00333505 0.00985378 0.000588774 0.00128204 0.000588774 0.006278)
(0.0212519 -0.00180609 0.00241342 -0.00180609 0.00961285 0.000229563 0.00241342 0.000229563 0.00392962)
(0.0170675 -0.00129791 0.00211582 -0.00129791 0.00820035 0.00192637 0.00211582 0.00192637 0.00787752)
(0.0157996 0.000318573 0.00170174 0.000318573 0.00664948 0.00163647 0.00170174 0.00163647 0.00836373)
(0.00774135 0.000151249 4.07221e-05 0.000151249 0.00673544 0.00141452 4.07221e-05 0.00141452 0.00612518)
(0.0143078 -0.00102092 0.00399272 -0.00102092 0.00873976 -0.0013842 0.00399272 -0.0013842 0.00796483)
(0.019543 -0.00370694 0.000442227 -0.00370694 0.00786329 0.00152511 0.000442227 0.00152511 0.00866002)
(0.0145389 -0.00486837 0.000179632 -0.00486837 0.00830956 0.00138498 0.000179632 0.00138498 0.00871756)
(0.0172076 -0.00432014 0.00370817 -0.00432014 0.00981876 -0.00416072 0.00370817 -0.00416072 0.0054216)
(0.0127083 0.00255582 0.00500986 0.00255582 0.00707165 8.35788e-05 0.00500986 8.35788e-05 0.00305082)
(0.00426991 -0.00036867 -0.00223356 -0.00036867 0.00164345 0.000101238 -0.00223356 0.000101238 0.00532733)
(0.0215081 0.00050263 0.0012093 0.00050263 0.00763218 0.00207176 0.0012093 0.00207176 0.00491256)
(0.015769 -0.00351262 -0.000352874 -0.00351262 0.00825183 0.000265121 -0.000352874 0.000265121 0.00602205)
(0.00735506 -0.00219372 0.00117269 -0.00219372 0.00588715 -0.00290661 0.00117269 -0.00290661 0.00596203)
(0.014273 -0.00356358 0.00202305 -0.00356358 0.010331 0.00109083 0.00202305 0.00109083 0.00656632)
(0.00724906 -0.00287398 -2.66703e-05 -0.00287398 0.00836048 -0.00251961 -2.66703e-05 -0.00251961 0.00582625)
(0.0180592 -0.0034755 0.000172853 -0.0034755 0.00770598 -0.00200995 0.000172853 -0.00200995 0.00897208)
(0.0133291 0.000549014 0.00319944 0.000549014 0.0052844 -5.23841e-05 0.00319944 -5.23841e-05 0.006351)
(0.0106033 -0.00343774 -0.00180177 -0.00343774 0.0106495 0.000335754 -0.00180177 0.000335754 0.00962746)
(0.0106473 -0.0030386 0.00230711 -0.0030386 0.00582065 -0.00347644 0.00230711 -0.00347644 0.00664958)
(0.0135484 -0.00269013 -0.00123687 -0.00269013 0.00611866 -0.00205386 -0.00123687 -0.00205386 0.0102787)
(0.0112065 -0.00339611 -0.000259159 -0.00339611 0.0094857 -0.00258623 -0.000259159 -0.00258623 0.0069879)
(0.00850646 0.00253508 0.00125395 0.00253508 0.00701901 -0.00113256 0.00125395 -0.00113256 0.00460125)
(0.00898284 0.000701422 -0.000248343 0.000701422 0.00668471 -0.000454296 -0.000248343 -0.000454296 0.00382524)
(0.0179717 -0.0045113 -0.00412341 -0.0045113 0.00758029 0.000960435 -0.00412341 0.000960435 0.00747296)
(0.0119697 -0.00118005 0.000833126 -0.00118005 0.00867778 -0.00296956 0.000833126 -0.00296956 0.0111197)
(0.0134662 -0.00286317 -0.00483904 -0.00286317 0.00676702 -0.000779433 -0.00483904 -0.000779433 0.00833421)
(0.0167085 -0.00134779 0.00248224 -0.00134779 0.00762373 -0.00147693 0.00248224 -0.00147693 0.00963001)
(0.0240634 -0.00337085 -0.00187375 -0.00337085 0.00885017 0.00246783 -0.00187375 0.00246783 0.00975493)
(0.0153007 -0.00300737 0.0018603 -0.00300737 0.00942676 -0.00137191 0.0018603 -0.00137191 0.00856029)
(0.0219297 0.000666875 0.00258202 0.000666875 0.00773277 0.00155044 0.00258202 0.00155044 0.00492107)
(0.0115926 -4.12809e-05 0.00268723 -4.12809e-05 0.00541116 0.000696009 0.00268723 0.000696009 0.00911238)
(0.00908535 -0.00536323 -0.00554396 -0.00536323 0.0108884 -0.00216694 -0.00554396 -0.00216694 0.0083344)
(0.0138869 -0.00588506 0.000554821 -0.00588506 0.00956299 -0.0036156 0.000554821 -0.0036156 0.00484409)
(0.0136413 -0.00212828 0.000336215 -0.00212828 0.00787428 0.000309453 0.000336215 0.000309453 0.00801401)
(0.00630246 -0.00235646 -0.00153922 -0.00235646 0.00786184 -0.00100643 -0.00153922 -0.00100643 0.00416759)
(0.00338913 -0.000771068 0.00102372 -0.000771068 0.00720291 -0.00141103 0.00102372 -0.00141103 0.00366218)
(0.014453 -0.00329715 0.000990704 -0.00329715 0.0077106 -0.00329088 0.000990704 -0.00329088 0.00471762)
(0.0194682 -0.00593588 0.00047536 -0.00593588 0.00926364 -0.00304688 0.00047536 -0.00304688 0.00559827)
(0.0105971 -0.00129595 0.00140885 -0.00129595 0.00895554 -0.00205476 0.00140885 -0.00205476 0.00468588)
(0.0208015 -0.00218402 -0.00112701 -0.00218402 0.00599092 0.00170824 -0.00112701 0.00170824 0.0119917)
(0.0266655 -0.00304017 -0.00476506 -0.00304017 0.00827155 0.00398886 -0.00476506 0.00398886 0.00808963)
(0.012389 -3.99817e-05 -0.00304927 -3.99817e-05 0.00691825 0.00263148 -0.00304927 0.00263148 0.00727486)
(0.0188835 -0.00319378 -0.00129951 -0.00319378 0.00634492 0.00128004 -0.00129951 0.00128004 0.0098733)
(0.0142565 -0.00179114 0.00234577 -0.00179114 0.00888978 -0.00169487 0.00234577 -0.00169487 0.00794107)
(0.0131596 0.000500122 0.00200204 0.000500122 0.00751622 -0.00103223 0.00200204 -0.00103223 0.00692525)
(0.0252024 -0.00390306 -0.00479146 -0.00390306 0.00829419 0.00379683 -0.00479146 0.00379683 0.00964118)
(0.0135837 -0.00274349 -0.00397444 -0.00274349 0.00821342 -0.000660816 -0.00397444 -0.000660816 0.00832219)
(0.0127646 0.00055355 0.00377745 0.00055355 0.00268896 -2.818e-05 0.00377745 -2.818e-05 0.00652112)
(0.00506686 0.0018672 0.00491902 0.0018672 0.00757091 -0.00147124 0.00491902 -0.00147124 0.00460725)
(0.00965691 -0.0033384 0.00425709 -0.0033384 0.00998309 -0.00269925 0.00425709 -0.00269925 0.00551108)
(0.0177537 0.000228195 0.00338345 0.000228195 0.00850836 -0.000580462 0.00338345 -0.000580462 0.00403782)
(0.0180047 -0.000663817 0.00403253 -0.000663817 0.00863813 -0.00139115 0.00403253 -0.00139115 0.00503412)
(0.00610014 -0.00171937 0.00165031 -0.00171937 0.00725028 -0.00145005 0.00165031 -0.00145005 0.0077232)
(0.0123585 -0.00409516 0.00119537 -0.00409516 0.0105267 0.00119196 0.00119537 0.00119196 0.00592873)
(0.00329454 -0.00112154 -4.76902e-05 -0.00112154 0.00500784 -0.00124146 -4.76902e-05 -0.00124146 0.00205113)
(0.0100758 -0.00548845 -0.0016345 -0.00548845 0.00814313 -0.00325618 -0.0016345 -0.00325618 0.00505894)
(0.0138339 -0.00228682 0.00424189 -0.00228682 0.00966765 -0.00181081 0.00424189 -0.00181081 0.00486722)
(0.00764525 -0.00102511 0.00131165 -0.00102511 0.00775007 -0.00110539 0.00131165 -0.00110539 0.0048542)
(0.0170977 -0.0042838 0.00152637 -0.0042838 0.0111695 0.000752606 0.00152637 0.000752606 0.00909839)
(0.00880045 -0.00194785 -0.00187628 -0.00194785 0.00413161 -0.00214115 -0.00187628 -0.00214115 0.00930263)
(0.0106543 0.000629991 0.000865443 0.000629991 0.00688374 -0.00144828 0.000865443 -0.00144828 0.00417943)
(0.00548178 0.00254532 0.0020919 0.00254532 0.00596367 0.00056087 0.0020919 0.00056087 0.00263855)
(0.00313566 -0.0017581 -0.000164221 -0.0017581 0.00623665 -0.00176017 -0.000164221 -0.00176017 0.00499325)
(0.0142388 0.000810915 0.00075979 0.000810915 0.00529855 0.00320043 0.00075979 0.00320043 0.00931543)
(0.0125533 -0.000850324 0.00238481 -0.000850324 0.00721291 0.000597725 0.00238481 0.000597725 0.0124728)
(0.0119361 -0.00157986 -0.00171725 -0.00157986 0.00678118 0.00139448 -0.00171725 0.00139448 0.00557806)
(0.0111911 -0.00174968 0.00213284 -0.00174968 0.00859294 -0.00128764 0.00213284 -0.00128764 0.00739891)
(0.0217147 -0.00333188 0.00055293 -0.00333188 0.00923809 0.00174722 0.00055293 0.00174722 0.00811241)
(0.0191585 -0.00394356 0.00228502 -0.00394356 0.00952988 -0.000646755 0.00228502 -0.000646755 0.00758271)
(0.0178432 -0.00215407 0.00244125 -0.00215407 0.0091686 0.000200945 0.00244125 0.000200945 0.00719241)
(0.0125674 -0.000724198 0.00316467 -0.000724198 0.00880554 -0.00279241 0.00316467 -0.00279241 0.00932047)
(0.00680757 -0.00497177 -0.000753623 -0.00497177 0.0110005 -0.000629846 -0.000753623 -0.000629846 0.00717193)
(0.00932467 -0.00223062 0.00230315 -0.00223062 0.00638719 -0.00225841 0.00230315 -0.00225841 0.00819035)
(0.00888717 0.000320128 -0.00048776 0.000320128 0.00585346 0.00222963 -0.00048776 0.00222963 0.00514103)
(0.0102644 -0.00290601 -0.00209587 -0.00290601 0.0075822 -0.00102367 -0.00209587 -0.00102367 0.00504515)
(0.00550786 -0.00241528 0.000411745 -0.00241528 0.00879561 0.000410995 0.000411745 0.000410995 0.00713131)
(0.0151057 -0.000601505 -0.000645011 -0.000601505 0.00821904 -0.00262155 -0.000645011 -0.00262155 0.00673537)
(0.021314 -0.00527029 0.0028499 -0.00527029 0.00941765 -0.00355683 0.0028499 -0.00355683 0.00599621)
(0.0138857 6.23269e-05 0.00272964 6.23269e-05 0.0073544 0.00131478 0.00272964 0.00131478 0.0063196)
(0.0103441 -0.00396391 -0.00108013 -0.00396391 0.0109581 -0.00303146 -0.00108013 -0.00303146 0.0104616)
(0.0269831 -0.00432831 -0.00384481 -0.00432831 0.00919381 0.00318683 -0.00384481 0.00318683 0.00751041)
(0.0105774 0.00144474 0.00424604 0.00144474 0.00669253 0.000173984 0.00424604 0.000173984 0.00711971)
(0.00798525 -0.00276091 -0.000376136 -0.00276091 0.010457 -0.00260462 -0.000376136 -0.00260462 0.0103797)
(0.00819949 0.00174962 0.0025441 0.00174962 0.00571646 0.00204917 0.0025441 0.00204917 0.00510729)
(0.00976891 -0.00396492 -0.00317302 -0.00396492 0.0110864 -0.00185673 -0.00317302 -0.00185673 0.00851775)
(0.0213254 -0.00423451 -0.00601389 -0.00423451 0.00755974 0.00440645 -0.00601389 0.00440645 0.00871134)
(0.0116545 -0.000172677 -0.00157928 -0.000172677 0.00545884 0.00290657 -0.00157928 0.00290657 0.0074866)
(0.0167893 -0.00460159 -0.000972869 -0.00460159 0.0116634 0.000678066 -0.000972869 0.000678066 0.00980722)
(0.0130989 -0.00164277 0.00390975 -0.00164277 0.0100613 -0.00172608 0.00390975 -0.00172608 0.00495385)
(0.0138139 -0.00239767 0.00434208 -0.00239767 0.0087322 -0.00200516 0.00434208 -0.00200516 0.00719874)