/*--------------------------------*- C++ -*----------------------------------*\
  =========                 |
  \\      /  F ield         | OpenFOAM: The Open Source CFD Toolbox
   \\    /   O peration     | Website:  https://openfoam.org
    \\  /    A nd           | Version:  10
     \\/     M anipulation  |
\*---------------------------------------------------------------------------*/
FoamFile
{
    format      ascii;
    class       surfaceScalarField;
    location    "60";
    object      phi;
}
// * * * * * * * * * * * * * * * * * * * * * * * * * * * * * * * * * * * * * //

dimensions      [0 3 -1 0 0 0 0];

internalField   nonuniform List<scalar> 
300480
(
2.12006e-05
2.51342e-06
-9.18216e-07
1.84196e-05
5.18869e-06
-6.4447e-06
1.67794e-05
1.78904e-07
-5.6714e-06
1.86825e-05
-3.98733e-06
-2.84203e-06
2.15956e-05
2.8502e-06
-4.2919e-06
2.26074e-05
7.69096e-06
-2.27919e-06
2.09101e-05
5.3199e-06
1.23682e-06
1.91886e-05
3.41489e-06
3.7362e-07
2.08137e-05
5.82579e-06
7.38115e-08
2.22587e-05
4.12715e-06
3.06268e-06
2.00017e-05
-2.50542e-07
6.25171e-06
1.58661e-05
-2.19047e-06
4.89725e-06
1.37387e-05
-3.99837e-06
1.24109e-06
1.41399e-05
-4.28014e-06
-3.00274e-06
1.63494e-05
2.57341e-06
-7.12964e-06
1.82626e-05
9.38228e-06
-6.1434e-06
1.95406e-05
6.60466e-06
-9.24069e-07
2.02899e-05
4.15847e-08
3.65358e-06
2.13938e-05
-2.6776e-07
4.41015e-06
2.21515e-05
-2.2308e-06
4.59291e-06
1.90817e-05
-2.81771e-06
5.92735e-06
1.67779e-05
-3.64585e-06
3.76102e-06
1.9153e-05
-2.03484e-06
-1.13946e-06
2.42545e-05
-1.49455e-06
-1.08933e-06
2.92953e-05
-8.49712e-06
6.39714e-06
2.771e-05
-6.20053e-06
1.08132e-05
2.05421e-05
-4.33919e-07
5.89377e-06
1.57402e-05
-3.12185e-06
1.44781e-06
1.43587e-05
-2.34198e-06
1.11051e-07
1.39713e-05
4.99973e-06
9.97448e-07
1.57261e-05
7.60542e-06
1.75169e-06
1.72904e-05
6.43167e-06
7.05191e-07
1.58661e-05
1.80582e-06
-6.53667e-07
1.61119e-05
-7.7148e-06
8.78106e-07
1.81987e-05
-7.44654e-06
5.33422e-07
1.78008e-05
1.15026e-06
-2.01576e-06
1.83187e-05
8.87011e-07
-2.75264e-06
1.95243e-05
-1.02683e-06
-2.81156e-06
2.05727e-05
5.9393e-07
-1.75085e-06
3.12539e-06
4.73693e-08
7.30511e-05
2.82273e-06
-1.16029e-06
7.05068e-05
8.99053e-06
-1.46301e-05
6.21958e-05
-1.41026e-06
-1.28197e-05
5.90847e-05
-1.02764e-05
-6.66142e-06
6.5345e-05
1.00695e-05
-1.08954e-05
7.24413e-05
2.73045e-05
-4.99942e-06
6.97265e-05
2.46114e-05
5.9641e-06
6.33574e-05
1.78686e-05
5.04079e-06
6.74159e-05
1.90884e-05
1.12687e-06
7.53326e-05
1.27787e-05
4.8412e-06
7.3005e-05
1.52567e-06
1.30221e-05
6.14928e-05
-3.81458e-06
1.26543e-05
5.01393e-05
-9.50418e-06
4.48457e-06
4.43694e-05
-1.11629e-05
-8.41685e-06
4.88525e-05
4.35152e-06
-1.91951e-05
5.93953e-05
2.16503e-05
-1.38784e-05
6.7686e-05
1.57243e-05
1.51683e-06
6.93387e-05
-1.85981e-06
1.2115e-05
7.13345e-05
-2.08375e-06
1.11285e-05
7.45099e-05
-6.94213e-06
1.15999e-05
6.67019e-05
-9.45287e-06
1.84464e-05
5.66927e-05
-8.03436e-06
1.30773e-05
6.00758e-05
-1.37216e-06
-1.36145e-06
7.82624e-05
-6.30427e-06
-4.40912e-06
9.68537e-05
-2.95677e-05
1.18002e-05
9.43548e-05
-1.61762e-05
2.53942e-05
7.35341e-05
8.80211e-06
1.82351e-05
5.61425e-05
-2.6808e-06
7.43592e-06
4.99556e-05
-1.1313e-05
2.43273e-06
5.05369e-05
6.33805e-06
4.09006e-06
5.49532e-05
2.26333e-05
5.86219e-06
5.8114e-05
2.84496e-05
3.41754e-06
5.55965e-05
1.4961e-05
1.21779e-06
5.43722e-05
-1.28157e-05
1.05492e-06
5.58144e-05
-1.43955e-05
-2.17269e-06
5.57721e-05
5.72289e-06
-3.54048e-06
5.86704e-05
2.8665e-06
-3.28422e-06
6.25341e-05
-6.27604e-08
-7.44349e-06
6.50962e-05
5.62543e-06
-4.46898e-06
8.70823e-06
2.79693e-06
0.000131352
5.18839e-06
7.9655e-06
0.000138428
5.48265e-06
-1.23202e-05
0.000124767
-2.33431e-06
-1.80417e-05
0.000105342
-1.5946e-05
-9.11071e-06
0.000107125
1.00041e-05
-1.61427e-05
0.000126858
4.17953e-05
-1.38954e-05
0.000133182
5.08942e-05
7.36522e-06
0.000119481
4.55984e-05
1.67258e-05
0.000116082
4.1056e-05
9.88891e-06
0.00013063
2.87041e-05
2.68401e-06
0.000140056
1.28957e-05
7.52532e-06
0.00012997
7.2759e-06
1.40772e-05
0.000105879
-4.60392e-06
1.2579e-05
8.08252e-05
-1.3152e-05
-1.60148e-06
7.61901e-05
2.27105e-06
-2.67127e-05
9.74336e-05
2.00606e-05
-2.91266e-05
0.000122199
1.52422e-05
-2.92765e-06
0.000127339
-5.19512e-06
1.94605e-05
0.000126594
-3.69328e-06
1.69052e-05
0.000136021
-1.12185e-05
9.85175e-06
0.000130929
-2.08341e-05
2.61019e-05
0.00010984
-1.07516e-05
3.11716e-05
0.000104658
5.82601e-06
1.0663e-05
0.000127755
-2.062e-06
-6.1263e-06
0.000160323
-5.43703e-05
6.00772e-06
0.000170281
-3.96534e-05
3.31713e-05
0.000148038
2.56463e-05
3.32377e-05
0.000115997
2.36532e-05
1.6153e-05
9.6568e-05
-8.8393e-06
5.64516e-06
9.39936e-05
-3.14159e-06
7.0495e-06
0.000101543
2.45769e-05
9.58796e-06
0.000110439
5.34438e-05
7.57762e-06
0.000109565
4.93335e-05
6.40144e-06
0.000102306
6.34221e-06
5.1266e-06
9.9085e-05
-7.62793e-06
-4.96e-06
9.77326e-05
1.67405e-05
-5.22039e-06
9.9911e-05
8.06532e-06
3.32113e-06
0.000106553
1.81617e-06
-5.59622e-06
0.000113314
1.62481e-05
-8.92121e-06
2.34471e-05
5.23858e-06
0.000184528
2.81284e-05
2.14104e-05
0.000202444
1.68551e-06
8.52435e-06
0.00019852
-9.454e-06
-8.61535e-06
0.000164354
-1.7663e-05
-7.3424e-06
0.000144616
7.81197e-06
-1.80029e-05
0.000167591
3.74894e-05
-2.94921e-05
0.000196965
5.17701e-05
-8.49982e-06
0.00019064
5.95772e-05
2.00551e-05
0.000172144
5.72824e-05
3.019e-05
0.000177218
4.13104e-05
1.91891e-05
0.000197037
3.02034e-05
4.65741e-06
0.000204086
3.57064e-05
1.57962e-06
0.000180882
2.58441e-05
8.86617e-06
0.000134759
4.01131e-06
1.07812e-05
0.000105217
9.83207e-06
-1.92904e-05
0.000119953
1.69413e-05
-4.4449e-05
0.000162481
1.66803e-06
-2.30038e-05
0.000184392
-2.00111e-05
2.02748e-05
0.000179067
-6.79152e-06
2.75968e-05
0.000188713
-9.28153e-06
5.68934e-06
0.000196352
-3.64765e-05
1.50708e-05
0.000172955
-2.21056e-05
4.36296e-05
0.000156095
1.72221e-05
3.55182e-05
0.000175709
1.76133e-05
6.53485e-06
0.000209769
-6.29777e-05
-1.7754e-06
0.000226705
-6.67036e-05
3.12873e-05
0.000214175
3.44222e-05
4.94042e-05
0.000182704
6.54292e-05
3.10972e-05
0.000155532
2.35923e-05
8.39696e-06
0.000144517
4.88668e-06
7.82834e-06
0.000147243
2.00085e-05
1.13624e-05
0.00016256
6.00957e-05
8.80948e-06
0.000172374
8.19251e-05
1.40061e-05
0.000161847
4.8917e-05
1.78701e-05
0.000151733
2.63728e-05
-4.69376e-06
0.000149393
4.08588e-05
-1.09445e-05
0.000145227
2.06537e-05
9.64154e-06
0.000147717
5.24382e-06
5.63814e-06
0.000161784
2.74665e-05
-8.55768e-06
5.28107e-05
4.85701e-06
0.000241593
7.16625e-05
3.1027e-05
0.000257014
2.03234e-05
3.30306e-05
0.000268279
-2.73777e-05
2.51465e-05
0.000237
-2.92843e-05
1.39834e-05
0.000190845
1.00128e-05
-1.02845e-05
0.000190646
2.96949e-05
-3.64516e-05
0.000236182
2.40399e-05
-3.24911e-05
0.000261298
3.1217e-05
5.51388e-06
0.000241355
5.11733e-05
3.90957e-05
0.000224748
4.29774e-05
4.20538e-05
0.00023712
3.16463e-05
2.71166e-05
0.000258597
5.00568e-05
1.07193e-05
0.000253144
6.50209e-05
3.28866e-06
0.000202542
4.90052e-05
1.10658e-05
0.000149579
3.73401e-05
-2.81769e-06
0.000145197
3.09113e-05
-4.57975e-05
0.00018783
1.31401e-07
-4.71282e-05
0.000227189
-3.8635e-05
6.01016e-06
0.000228841
-2.00457e-05
3.75728e-05
0.000227782
6.65159e-06
1.2283e-05
0.000240131
-4.3176e-05
1.14201e-06
0.000227917
-4.86382e-05
3.40903e-05
0.000208938
2.13246e-05
5.4495e-05
0.000225459
4.02817e-05
3.06552e-05
0.000253363
-5.268e-05
-2.8379e-06
0.000263479
-7.37493e-05
2.03258e-05
0.000254859
4.29888e-05
6.0842e-05
0.000230439
0.000106242
5.41027e-05
0.000207935
7.52571e-05
1.7809e-05
0.000200371
3.55774e-05
5.65088e-06
0.000197992
2.70672e-05
1.02934e-05
0.000209934
6.05819e-05
7.25621e-06
0.000227762
0.000103332
1.84922e-05
0.000217091
9.76812e-05
3.34579e-05
0.000203051
7.64901e-05
7.03202e-07
0.000209342
6.94927e-05
-1.8819e-05
0.000203715
3.94091e-05
9.48755e-06
0.000190927
1.75175e-05
1.60702e-05
0.00020636
3.31272e-05
-4.70283e-06
7.29409e-05
5.87899e-06
0.000299674
9.55026e-05
3.32981e-05
0.000317707
4.50088e-05
4.615e-05
0.000336174
-5.0315e-05
6.14948e-05
0.000315851
-4.91731e-05
5.62436e-05
0.000256658
1.6502e-05
1.43509e-05
0.000219762
3.66497e-05
-2.95372e-05
0.000251564
6.52416e-07
-4.85557e-05
0.000310996
-2.74106e-05
-1.83204e-05
0.000319307
8.89352e-06
3.39742e-05
0.000286983
4.11958e-05
5.56365e-05
0.000271966
4.2097e-05
4.51555e-05
0.000289939
4.6066e-05
3.23374e-05
0.000306767
6.84466e-05
1.83496e-05
0.000271487
9.08527e-05
1.20732e-05
0.000209427
8.6201e-05
5.5652e-06
0.000184784
6.10951e-05
-3.19659e-05
0.000214363
1.99829e-05
-6.04187e-05
0.000259609
-4.6121e-05
-1.934e-05
0.000274863
-4.55691e-05
3.65142e-05
0.000269246
2.73711e-05
2.44671e-05
0.000273938
-2.51408e-05
-5.64635e-06
0.000270846
-7.80919e-05
1.55325e-05
0.000260903
3.66406e-06
5.50578e-05
0.000275264
4.82016e-05
4.5761e-05
0.000291567
-3.45709e-05
4.01195e-06
0.000293406
-5.83025e-05
6.36369e-06
0.000293063
4.87996e-05
5.7611e-05
0.000278006
0.000125298
7.32239e-05
0.00025519
0.000123211
3.58792e-05
0.000252916
7.82018e-05
6.28033e-06
0.000253333
4.13511e-05
5.36718e-06
0.000258667
6.42769e-05
4.04441e-06
0.000279327
0.000121485
1.89102e-05
0.000267744
0.000153834
4.30658e-05
0.000239519
0.000147306
1.01846e-05
0.000255197
9.19357e-05
-2.62779e-05
0.00026846
3.93912e-05
5.36456e-06
0.000244016
3.71956e-05
2.29258e-05
0.000243419
4.79697e-05
-4.59918e-06
7.20769e-05
1.29526e-06
0.000336075
9.78412e-05
2.85811e-05
0.000365013
4.80316e-05
4.34607e-05
0.000394248
-7.60713e-05
6.92499e-05
0.000392266
-6.79492e-05
8.47097e-05
0.000343189
3.73664e-05
4.36642e-05
0.000280739
7.12855e-05
-1.19561e-05
0.000275054
8.07474e-06
-5.3531e-05
0.000340078
-8.23374e-05
-4.8138e-05
0.000384344
-6.17632e-05
1.44205e-05
0.000357057
2.60365e-05
6.03987e-05
0.000312689
7.33375e-05
5.81279e-05
0.000308506
6.04246e-05
4.05869e-05
0.000338825
4.17652e-05
2.98782e-05
0.000331128
8.65836e-05
2.55478e-05
0.000276463
0.000126821
1.3042e-05
0.000239587
9.88787e-05
-1.35347e-05
0.00025502
4.74888e-05
-5.36967e-05
0.000298036
-3.96037e-05
-4.3343e-05
0.000321493
-6.9708e-05
2.20464e-05
0.000317759
3.49889e-05
3.36971e-05
0.000315867
2.78591e-06
-3.09323e-06
0.000313608
-9.06934e-05
-5.43704e-07
0.000311149
-2.33756e-05
4.07329e-05
0.00032588
3.23726e-05
4.70873e-05
0.000331244
-2.21657e-05
1.25261e-05
0.000321209
-2.39418e-05
-6.2361e-06
0.000333079
5.67636e-05
3.89989e-05
0.000338861
0.000117556
8.07474e-05
0.000314809
0.000149022
5.85758e-05
0.000308026
0.00011902
1.51285e-05
0.000310432
5.45374e-05
3.27238e-06
0.000309877
6.73497e-05
1.76387e-06
0.000328972
0.000137099
1.80508e-05
0.000318412
0.0002137
4.71464e-05
0.000275171
0.000244046
1.56032e-05
0.000286006
0.00012303
-3.2566e-05
0.000321319
1.33347e-05
-2.77958e-06
0.000304589
4.49031e-05
2.85028e-05
0.000287649
7.58651e-05
-6.97379e-06
7.76537e-05
-6.89304e-06
0.000359313
0.00011387
1.85125e-05
0.000389112
4.29063e-05
2.89146e-05
0.000428544
-9.69436e-05
5.39325e-05
0.000449391
-8.7813e-05
8.80845e-05
0.000428901
4.57319e-05
6.37776e-05
0.000370333
0.000110991
1.04394e-05
0.000334625
4.31657e-05
-4.48218e-05
0.000374166
-0.000105003
-6.96922e-05
0.00043171
-0.000131797
-1.11913e-05
0.000419193
2.54681e-06
5.27399e-05
0.000360732
0.0001086
7.03659e-05
0.000338861
8.73502e-05
4.75067e-05
0.000369633
2.06942e-05
1.913e-05
0.000379275
5.42312e-05
2.24107e-05
0.000340877
0.000132622
2.11308e-05
0.000308444
0.000125381
4.3432e-06
0.000319275
6.98264e-05
-3.44905e-05
0.000358555
-2.66792e-05
-5.99543e-05
0.000382993
-7.98508e-05
-5.39573e-06
0.000385587
2.29927e-05
3.58313e-05
0.000384099
1.99794e-05
9.22173e-06
0.000371502
-7.70293e-05
-8.23062e-06
0.00036354
-3.73218e-05
1.87424e-05
0.000375777
6.28771e-06
4.41129e-05
0.000374072
-1.74918e-05
2.69799e-05
0.000354828
1.52562e-05
-1.42857e-05
0.000366616
7.89842e-05
5.67543e-06
0.000388722
0.000109312
7.39253e-05
0.000377446
0.000161378
8.30131e-05
0.000370712
0.000151578
3.84737e-05
0.000372183
6.83152e-05
1.31669e-05
0.000365515
7.18351e-05
3.65075e-06
0.00037958
0.000147801
1.84178e-05
0.00037033
0.000265212
5.28173e-05
0.000319658
0.000353043
1.98382e-05
0.000317617
0.000177484
-3.79424e-05
0.000361702
-1.61212e-05
-1.13649e-05
0.000363759
2.23003e-05
3.75962e-05
0.000344962
9.8823e-05
-2.06479e-06
0.000110498
-1.35984e-05
0.00039423
0.0001482
9.89862e-06
0.000422121
4.94903e-05
1.54766e-05
0.000465015
-0.000102418
3.87354e-05
0.000497011
-0.00010136
7.29068e-05
0.000495389
3.8746e-05
6.23014e-05
0.000452447
0.000134415
2.40254e-05
0.000413676
8.02221e-05
-2.94847e-05
0.000427746
-9.85901e-05
-7.55179e-05
0.000470938
-0.000174972
-3.6912e-05
0.000471894
-2.06736e-05
3.83114e-05
0.000423849
0.000136878
6.95734e-05
0.000397417
0.000104519
6.07051e-05
0.000421724
7.48233e-06
1.51666e-05
0.000433608
2.96089e-05
1.35565e-06
0.000402362
0.000123214
1.833e-05
0.000375113
0.000142278
1.4122e-05
0.000385659
9.30645e-05
-2.18653e-05
0.000419517
-8.76308e-06
-7.01012e-05
0.000446445
-7.99499e-05
-5.49144e-05
0.000468808
-1.02944e-05
1.48635e-05
0.000479774
1.80013e-05
2.42582e-05
0.000451346
-4.09719e-05
-2.095e-06
0.000424884
-2.64525e-05
-5.06288e-06
0.000431084
-1.6158e-05
3.37692e-05
0.000421305
-1.58536e-05
4.81608e-05
0.000393916
5.78865e-05
-8.77296e-06
0.000402189
0.000113029
-3.55824e-05
0.00042661
0.000109915
4.08654e-05
0.000432061
0.000162525
9.20157e-05
0.000439808
0.000152616
6.73341e-05
0.000442731
7.16442e-05
3.37865e-05
0.00042957
8.07437e-05
1.03541e-05
0.000433616
0.000158989
1.92565e-05
0.000423197
0.00030926
5.72931e-05
0.000381146
0.00044929
2.77137e-05
0.000371993
0.000246103
-3.43205e-05
0.00040608
-2.05718e-05
-2.06284e-05
0.000420418
-1.85922e-05
4.29376e-05
0.000406724
9.07353e-05
2.38696e-05
0.000147449
-4.51844e-06
0.000449292
0.000177077
1.85965e-05
0.000474691
7.36441e-05
1.44669e-05
0.000512484
-9.03479e-05
3.15958e-05
0.00054497
-9.83333e-05
5.59513e-05
0.000546474
4.48278e-05
4.03767e-05
0.000507956
0.00015809
1.48342e-05
0.000478181
0.000115131
-2.04475e-05
0.000489986
-7.83166e-05
-6.89604e-05
0.000513445
-0.000194196
-4.87621e-05
0.000513993
-3.92563e-05
2.73378e-05
0.000490443
0.000152197
6.36036e-05
0.000473078
0.000107939
6.96246e-05
0.000486168
-4.28277e-06
2.87287e-05
0.000495535
2.88493e-05
-1.66899e-05
0.000472214
0.00011818
1.90952e-06
0.000451133
0.000148718
1.484e-05
0.000458082
0.000117402
-8.33732e-06
0.000475165
1.50596e-05
-5.28308e-05
0.00048998
-7.6515e-05
-7.94073e-05
0.000526654
-5.50941e-05
-2.46497e-05
0.000565755
-1.43824e-05
2.40741e-05
0.000536471
-7.7501e-06
1.82017e-05
0.000486923
1.29423e-05
-2.10701e-05
0.000487091
-2.42474e-05
7.71359e-06
0.000477678
-2.19803e-05
6.59214e-05
0.000436406
0.000110588
1.51079e-05
0.000432637
0.000160985
-7.25621e-05
0.000456102
0.000109238
-2.9357e-05
0.000478815
0.000131138
6.32749e-05
0.000510768
0.000100942
8.44596e-05
0.000520977
5.29047e-05
5.51215e-05
0.000499164
9.22823e-05
1.59134e-05
0.0004858
0.000171262
1.47967e-05
0.00047064
0.000349674
5.31711e-05
0.000452783
0.0005108
4.14805e-05
0.00045641
0.000293654
-1.26537e-05
0.000471665
2.67589e-06
-1.96127e-05
0.000476683
-3.53108e-05
3.18264e-05
0.000463477
6.94065e-05
3.34012e-05
0.000157681
1.49729e-05
0.000514475
0.000189419
4.52544e-05
0.000530166
0.000124451
1.67813e-05
0.000556462
-4.38962e-05
1.81268e-05
0.000583194
-7.07427e-05
3.64662e-05
0.000585675
7.32634e-05
1.01789e-06
0.000553892
0.000187583
-2.26552e-05
0.000538538
0.000139405
-1.69105e-05
0.000559485
-6.44074e-05
-4.27126e-05
0.000569361
-0.000200352
-4.3421e-05
0.000556053
-4.6821e-05
2.04976e-05
0.000549565
0.000151105
6.19718e-05
0.000547692
9.51931e-05
7.89126e-05
0.000547835
-1.39057e-05
5.41053e-05
0.000551762
4.7108e-05
-1.26107e-05
0.000542581
0.000129084
-2.17812e-05
0.000533819
0.000145872
4.76902e-06
0.000543863
0.00012626
5.26942e-06
0.000545391
3.67343e-05
-1.83041e-05
0.000531824
-6.07811e-05
-6.53086e-05
0.000563412
-8.87769e-05
-5.99382e-05
0.000626805
-7.47271e-05
1.8695e-05
0.000606838
-1.49761e-07
5.20693e-05
0.000539943
6.81596e-05
-2.16852e-05
0.000537893
-1.85377e-05
-3.76787e-05
0.000546303
-4.18917e-05
6.1464e-05
0.000496697
0.000150786
6.03167e-05
0.000454078
0.00022497
-7.32792e-05
0.000464235
0.000125324
-0.000119039
0.000508883
7.17913e-05
-2.15169e-05
0.000569361
4.3531e-06
4.97895e-05
0.000601179
7.94765e-06
4.95286e-05
0.000574774
0.000104443
1.55244e-05
0.000530983
0.000191806
3.51108e-06
0.000512246
0.000377096
3.59082e-05
0.00053326
0.000518946
5.94044e-05
0.000559832
0.000303724
2.72878e-05
0.000556266
4.82405e-05
-7.48378e-06
0.000538661
-3.13236e-06
1.10167e-05
0.000522455
5.98437e-05
2.62106e-05
0.000137552
3.52704e-05
0.000571706
0.000181891
8.91295e-05
0.000579889
0.000188729
1.2419e-05
0.000609488
3.68345e-05
-1.95443e-05
0.000628028
-9.53542e-06
1.21773e-05
0.000622866
0.000127104
-3.66584e-05
0.000609057
0.000219786
-7.89015e-05
0.00061943
0.000147664
-3.40044e-05
0.00064433
-6.61685e-05
-7.9833e-06
0.000639395
-0.000199389
-2.64656e-05
0.00061369
-4.23056e-05
1.26009e-05
0.000613624
0.000137313
6.52817e-05
0.0006198
6.80707e-05
9.34606e-05
0.000609643
-1.77388e-05
8.07746e-05
0.000613432
7.28383e-05
6.08269e-06
0.000623945
0.000143245
-3.19524e-05
0.000620878
0.000135679
6.51049e-07
0.000626692
0.000120625
1.36053e-05
0.000626228
5.12622e-05
-2.0016e-06
0.000587644
-3.0881e-05
-4.25158e-05
0.000591482
-9.36178e-05
-8.14775e-05
0.000668763
-0.000131235
-1.34131e-05
0.00066783
-1.45121e-05
8.1203e-05
0.00059547
0.00010515
1.41875e-05
0.000609516
-2.98762e-05
-7.72108e-05
0.000636083
-6.36443e-05
2.42522e-05
0.000560028
0.000204748
8.38684e-05
0.000477155
0.000274783
-3.93792e-05
0.000487798
0.000112823
-0.000176806
0.000556034
5.87786e-06
-0.000144549
0.000625432
-7.80911e-05
-4.79453e-05
0.000674222
-4.13712e-05
3.66847e-06
0.000655423
0.000106655
1.73909e-06
0.000580892
0.000227708
-2.07591e-05
0.00055696
0.00039452
8.52662e-06
0.000616292
0.000485087
6.3168e-05
0.000660768
0.000304958
5.72644e-05
0.000643372
0.00011108
9.58859e-06
0.000613448
4.66527e-05
9.08856e-06
0.00059852
5.08927e-05
3.49846e-05
9.63505e-05
7.05091e-05
0.000623254
0.000152856
0.00012332
0.000628138
0.000238429
1.78017e-05
0.000671774
0.00011794
-4.31693e-05
0.000691609
5.3548e-05
9.75721e-06
0.000675234
0.000190557
-4.36903e-05
0.000671721
0.00025927
-0.000120572
0.000702772
0.000155086
-6.37084e-05
0.000721307
-6.16929e-05
6.07399e-06
0.000701252
-0.000187012
-1.45951e-05
0.000678258
-3.01362e-05
-2.02365e-06
0.000684138
0.000121994
6.34872e-05
0.000689517
4.45777e-05
0.000103602
0.000672572
-4.55931e-06
9.52815e-05
0.000684385
9.71772e-05
2.4809e-05
0.00072194
0.000130019
-1.7135e-05
0.000725932
0.000106176
1.04334e-05
0.000714613
0.0001082
2.0774e-05
0.000712621
6.22234e-05
-7.03691e-06
0.000675917
2.97331e-06
-3.41382e-05
0.000647341
-8.14967e-05
-6.4885e-05
0.000710942
-0.000173535
-3.16224e-05
0.00073324
-3.61333e-05
7.93138e-05
0.000664277
0.000113511
6.18965e-05
0.000686294
-8.27786e-05
-5.80029e-05
0.000739992
-0.000108507
3.05461e-06
0.000663069
0.000261987
8.73752e-05
0.000556069
0.000308997
1.04447e-06
0.000562034
5.51161e-05
-0.000161656
0.000640554
-7.93258e-05
-0.000212079
0.000702861
-0.000129943
-0.000139181
0.00073715
-5.88023e-05
-5.64006e-05
0.000704955
0.000125467
-3.04083e-05
0.000611985
0.0002734
-5.1431e-05
0.000602133
0.000374982
-1.84544e-05
0.000691676
0.0004125
5.64865e-05
0.000737807
0.000314867
6.64422e-05
0.000708184
0.000187025
1.26844e-05
0.000677879
9.68527e-05
3.84457e-06
0.000670248
3.89951e-05
4.25761e-05
4.30177e-05
9.79377e-05
0.000672986
8.80176e-05
0.000140559
0.000677819
0.00025286
3.09897e-05
0.000732838
0.00018059
-4.65679e-05
0.000760054
9.97153e-05
2.9506e-05
0.000735889
0.000239618
-1.62937e-05
0.000734539
0.000297037
-0.000136293
0.000780047
0.000172169
-9.46078e-05
0.000791699
-3.22299e-05
4.54005e-06
0.000756069
-0.000149949
-1.03513e-05
0.000738927
-5.47282e-06
-2.50794e-05
0.000753159
0.000119981
3.47687e-05
0.000757984
3.7013e-05
8.59108e-05
0.000739762
2.00999e-05
9.34639e-05
0.000755586
0.000115388
4.35786e-05
0.000805676
8.60274e-05
1.37041e-05
0.000822991
5.10299e-05
2.70226e-05
0.000809774
9.31767e-05
1.95475e-05
0.000798362
8.47681e-05
-2.00466e-05
0.000778842
3.53417e-05
-3.98304e-05
0.000742979
-7.52847e-05
-2.38556e-05
0.000758301
-0.000196774
-1.06983e-05
0.000793234
-6.86276e-05
6.48838e-05
0.000770149
7.91434e-05
8.6583e-05
0.000765695
-0.000132179
-5.06713e-06
0.000802453
-0.000147746
-9.90613e-06
0.000797521
0.000251213
7.9385e-05
0.000738752
0.000301305
6.01077e-05
0.000705264
3.00416e-05
-7.74542e-05
0.00074471
-0.00013092
-0.000198006
0.000798212
-0.000168505
-0.00016515
0.000796581
-3.20414e-05
-8.41898e-05
0.000710879
0.000216475
-6.71784e-05
0.00061477
0.000332022
-8.65798e-05
0.000643572
0.000295289
-4.51381e-05
0.00075537
0.000294545
3.42606e-05
0.000804658
0.000313052
4.73745e-05
0.000773603
0.00025493
-2.34297e-06
0.000736737
0.000148785
-8.62572e-06
0.000721938
4.21226e-05
3.8147e-05
-1.66858e-05
0.000103733
0.000711028
1.92902e-05
0.000122233
0.000726632
0.000208602
4.28872e-05
0.000799687
0.000213119
-5.14741e-05
0.000842641
0.000130979
3.66221e-05
0.000816344
0.000253726
2.53664e-05
0.000809581
0.000323441
-0.000133896
0.000862259
0.000208196
-0.000130714
0.000875794
1.37694e-05
-2.96154e-06
0.000827161
-9.64841e-05
-3.77327e-06
0.000801196
3.7026e-05
-5.11736e-05
0.000812581
0.000150457
-1.64255e-05
0.000818767
4.4723e-05
5.98796e-05
0.000803603
3.14894e-05
0.000105225
0.000815267
0.00011506
8.04064e-05
0.000862459
2.57638e-05
4.80132e-05
0.000889339
-1.83236e-05
4.4647e-05
0.000893958
6.34481e-05
2.36144e-05
0.00089798
9.23705e-05
-2.01263e-05
0.000892746
6.12972e-05
-4.03787e-05
0.000842658
-5.50831e-05
1.65536e-06
0.000805677
-0.000181956
2.66561e-06
0.000843435
-7.58396e-05
6.5164e-06
0.000880985
3.5498e-05
4.29672e-05
0.00086886
-0.000162345
1.67073e-05
0.000865459
-0.000157797
-1.9286e-05
0.000893313
0.000199446
5.56894e-05
0.00089504
0.000248563
0.000106267
0.000850806
4.2518e-05
8.64953e-06
0.000828001
-0.000109088
-0.000160029
0.000850629
-0.000173051
-0.00018006
0.000839747
-7.63884e-06
-8.08925e-05
0.000755713
0.000303568
-6.84151e-05
0.000684384
0.000377161
-0.000124804
0.000727653
0.000200628
-0.000116633
0.000844871
0.000162768
-3.73235e-05
0.000910566
0.000287149
7.74239e-06
0.000879747
0.00030912
-1.68091e-05
0.000817072
0.000210184
-2.30176e-05
0.000772655
0.000103836
6.71066e-06
-9.5875e-06
6.35608e-05
0.000774662
5.81946e-07
0.000134408
0.000782706
0.000122311
7.03306e-05
0.000874511
0.000194969
-3.94687e-05
0.000933963
0.000146037
4.22118e-05
0.000914924
0.000230526
6.03936e-05
0.000909907
0.000303442
-0.000118223
0.000968021
0.000218782
-0.000161585
0.000988196
5.09737e-05
-1.8725e-05
0.00092302
-3.19724e-05
1.27464e-05
0.000870199
8.69185e-05
-5.00001e-05
0.000874853
0.000184988
-3.98929e-05
0.000887332
5.60906e-05
5.54064e-05
0.000873593
1.36511e-05
0.000149583
0.000877221
7.41755e-05
0.00014497
0.000916051
-4.98176e-05
8.66359e-05
0.000949555
-9.88954e-05
6.72539e-05
0.000978147
1.11805e-05
4.78324e-05
0.00101447
7.36206e-05
-6.84782e-06
0.00102802
7.4569e-05
-3.15812e-05
0.000953729
-4.31803e-06
1.23759e-05
0.000866404
-0.000108625
-1.04439e-05
0.000908297
-5.7291e-05
-6.52256e-05
0.00100048
-1.91885e-05
-2.03205e-05
0.00099639
-0.00019264
6.48175e-06
0.000960315
-0.000169535
-2.12507e-05
0.0009855
0.000129883
2.7616e-05
0.00100871
0.000194272
0.00010968
0.00097089
5.89238e-05
7.10088e-05
0.000906956
-5.805e-05
-0.000110027
0.00088037
-0.00013549
-0.000221099
0.000885993
-1.86778e-06
-0.000145825
0.000874498
0.000321121
-8.09093e-05
0.000850312
0.000383304
-0.00011811
0.00087612
0.000126199
-0.000166637
0.000981141
4.34775e-05
-0.000136026
0.00105007
0.000247553
-4.85938e-05
0.000994508
0.000357588
-2.26549e-05
0.000918121
0.000252218
-3.58595e-05
0.000887564
0.000156361
-1.18765e-05
5.37828e-05
6.29182e-05
0.000960045
1.21926e-06
0.000204944
0.000903126
5.2454e-05
0.000142395
0.000967167
0.000141653
3.24312e-06
0.00101991
0.000135604
7.44653e-05
0.00100036
0.000181073
0.000120458
0.000992992
0.000266444
-8.34351e-05
0.0010557
0.00022264
-0.000188237
0.00110925
7.60622e-05
-5.24364e-05
0.00107286
2.66216e-05
3.57354e-05
0.00101128
0.000146945
-1.39003e-05
0.00100667
0.000222119
-5.16477e-05
0.00102682
8.88642e-05
1.92955e-05
0.00101872
1.04723e-06
0.000158733
0.00100995
1.43305e-05
0.000208477
0.00102032
-0.000112682
0.000139472
0.00103874
-0.000150693
8.06914e-05
0.00108408
-3.82783e-05
5.66748e-05
0.00114414
4.41984e-05
2.16072e-05
0.0011732
7.64551e-05
2.89014e-06
0.00110967
4.08727e-05
1.88504e-05
0.00100568
-2.99325e-05
-6.24898e-06
0.00101211
-3.99099e-05
-5.16607e-05
0.00110254
-7.26876e-05
-2.90209e-05
0.00112954
-0.000214099
-1.17914e-05
0.00109121
-0.000176159
-1.17717e-05
0.00107947
9.72873e-05
1.81602e-05
0.00109726
0.000170962
8.18756e-05
0.00108657
5.09415e-05
9.07714e-05
0.0010266
-1.97898e-05
-6.21168e-05
0.000956201
-4.97698e-05
-0.000237311
0.000944761
4.7122e-05
-0.000231407
0.000987738
0.000306021
-0.00011013
0.00101538
0.000346666
-5.79141e-05
0.00102299
8.09262e-05
-0.000132428
0.00109749
-3.57865e-05
-0.000195506
0.00119155
0.000173194
-0.000110303
0.00116158
0.00034739
-3.07167e-05
0.00107443
0.000290513
-5.12531e-05
0.00106596
0.000201082
-3.56439e-05
9.30719e-05
8.59505e-05
0.00112365
-1.12825e-05
0.000234866
0.00102863
-1.02653e-05
0.000193715
0.00105551
7.57285e-05
1.93109e-05
0.00110086
0.000112783
6.52313e-05
0.00108744
0.000112929
0.000179061
0.00108618
0.000195556
6.20452e-06
0.00115693
0.000207967
-0.000196336
0.00122863
8.25756e-05
-0.000131239
0.00121612
7.2344e-05
9.34793e-06
0.00116793
0.000199627
3.56894e-05
0.00116425
0.000246542
-1.80831e-05
0.00118962
0.000131754
-1.34461e-05
0.00120061
3.12165e-05
0.000108393
0.00120338
-1.55197e-05
0.000205802
0.00118888
-0.000144192
0.000183846
0.00116549
-0.000146127
0.000101485
0.00118795
-1.88633e-05
2.19615e-05
0.00126207
3.42141e-05
1.48916e-05
0.00134286
2.23796e-05
5.1702e-05
0.00132067
2.40742e-05
5.3578e-05
0.00120626
2.00732e-05
2.26989e-05
0.0011733
-1.82792e-05
-2.46441e-05
0.00122053
-6.60703e-05
-4.12746e-05
0.00122313
-0.000158073
-2.77196e-05
0.00118729
-0.000151549
1.36727e-05
0.00119164
7.03455e-05
2.09512e-05
0.00123121
0.00016647
3.75368e-05
0.00124108
4.69597e-05
7.72306e-05
0.00118146
1.9102e-06
-2.11633e-05
0.00107184
5.90065e-05
-0.000223981
0.00102046
0.000158622
-0.000292916
0.00108128
0.000300716
-0.000162176
0.00115423
0.000287056
-6.00286e-05
0.00116906
6.75892e-05
-0.000130492
0.00122569
-6.35628e-05
-0.000236751
0.00132771
9.58892e-05
-0.000181913
0.00132298
0.000312694
-8.31658e-05
0.00123988
0.000322576
-7.36353e-05
0.0012173
0.000241551
-3.34936e-05
0.000106247
9.73191e-05
0.00125252
1.25291e-05
0.000175647
0.00112443
-2.8683e-05
0.000188522
0.00111142
2.60808e-05
-1.87193e-06
0.00114298
9.11199e-05
-1.05665e-05
0.00114138
4.49363e-05
0.000172402
0.00115657
8.41818e-05
0.000120133
0.00125023
0.000138662
-0.000117088
0.00134508
3.57369e-05
-0.000184014
0.00135457
7.10256e-05
-8.19351e-05
0.0013247
0.000231527
3.47735e-05
0.00133268
0.000243813
5.57726e-05
0.00136238
0.000140144
1.9786e-05
0.00136313
8.58404e-05
8.56543e-05
0.0013621
2.84959e-06
0.000182104
0.00134657
-0.000150845
0.000174411
0.00129286
-0.000120556
0.00011309
0.00129424
2.85554e-05
2.29996e-05
0.00138695
4.25228e-05
1.18816e-05
0.00151628
-5.73187e-05
7.73401e-05
0.00154908
-5.93306e-05
8.66476e-05
0.00143164
4.3715e-05
5.22184e-05
0.00132928
2.55693e-05
5.37504e-05
0.00132981
-6.11583e-05
4.92839e-05
0.00132859
-9.91863e-05
2.23298e-05
0.00126143
-7.74985e-05
6.78423e-05
0.00125384
5.24396e-05
8.39134e-05
0.00135587
0.000122154
4.11539e-05
0.00141163
4.91402e-05
6.48498e-05
0.00134443
2.47045e-05
4.73909e-05
0.00121962
0.000121541
-0.000134027
0.00115345
0.000238812
-0.000286676
0.0012118
0.000293511
-0.00023462
0.00130153
0.000228876
-0.000147309
0.00131873
7.01021e-05
-0.000179011
0.00132101
-3.11084e-05
-0.000262847
0.00136609
8.76203e-05
-0.000232909
0.00138528
0.000279666
-0.000132649
0.00136172
0.000289144
-0.000108185
0.00136483
0.000209293
-8.27146e-05
0.00011556
9.13187e-06
0.00158962
-1.88382e-05
-2.39679e-05
0.00147302
-2.5911e-05
0.00016562
0.00138454
2.15694e-05
6.25821e-05
0.00135999
9.90954e-05
-4.10118e-05
0.00132191
4.14084e-05
0.000107984
0.00130707
3.69021e-05
0.000161492
0.00137758
8.15649e-05
-2.25433e-05
0.00145957
-4.64133e-06
-0.000183514
0.00147599
3.07588e-05
-0.00017405
0.0014717
0.000205694
-2.7743e-05
0.00150615
0.000227154
7.79322e-05
0.00156915
0.000134237
4.1602e-05
0.0015932
0.000111439
6.81739e-05
0.00155912
4.66238e-05
0.000172824
0.00148944
-9.23511e-05
0.000169872
0.00141343
-7.33777e-05
0.000125084
0.00143128
3.02543e-05
5.26561e-05
0.00155096
2.34385e-05
1.31016e-06
0.00167178
-8.62903e-05
5.65843e-05
0.00168842
-9.20124e-05
0.00010519
0.00157119
6.65465e-05
9.4757e-05
0.00143288
8.06231e-05
0.000124293
0.00137925
-6.19132e-05
0.000157365
0.00141232
-0.000116194
0.000107414
0.00140674
-3.97988e-05
9.55355e-05
0.00137636
7.04473e-05
0.00012618
0.00145815
6.84914e-05
9.39477e-05
0.00154492
2.77227e-05
8.65025e-05
0.00149124
7.52812e-05
9.60841e-05
0.0013746
0.000166295
-2.59878e-05
0.00133255
0.000232266
-0.000217267
0.00139149
0.000238672
-0.000266343
0.00146379
0.000176268
-0.000207169
0.00146855
6.82604e-05
-0.000173963
0.00142525
2.18461e-06
-0.000213593
0.0014115
9.42205e-05
-0.000230117
0.00143585
0.000234572
-0.000157582
0.00144226
0.000220017
-0.000126041
0.00147276
0.000107292
-0.000146859
9.86969e-06
-0.000156947
0.00178502
-0.000171742
-0.00017518
0.00184088
-0.00010561
-1.58167e-05
0.00181115
2.55871e-06
2.4017e-05
0.00174964
0.0001154
-2.35066e-05
0.00164577
7.04686e-05
9.68713e-05
0.00154816
4.55069e-05
0.000190254
0.0015345
8.51197e-05
5.68564e-05
0.00156732
2.40294e-05
-0.000144106
0.0015808
2.25949e-05
-0.000209502
0.00159302
0.000150524
-8.4539e-05
0.00163467
0.000193241
5.30273e-05
0.00170846
0.000129672
3.49376e-05
0.00176799
9.96983e-05
3.88009e-05
0.00175174
5.50743e-05
0.00013329
0.00166824
-3.0263e-05
0.000158059
0.0015826
-7.02197e-06
0.000143049
0.0015853
4.93076e-05
7.27057e-05
0.00167759
1.95805e-05
-4.21221e-05
0.00176729