/*--------------------------------*- C++ -*----------------------------------*\
  =========                 |
  \\      /  F ield         | OpenFOAM: The Open Source CFD Toolbox
   \\    /   O peration     | Website:  https://openfoam.org
    \\  /    A nd           | Version:  10
     \\/     M anipulation  |
\*---------------------------------------------------------------------------*/
FoamFile
{
    format      ascii;
    class       surfaceScalarField;
    location    "4";
    object      phi_0;
}
// * * * * * * * * * * * * * * * * * * * * * * * * * * * * * * * * * * * * * //

dimensions      [0 3 -1 0 0 0 0];

internalField   nonuniform List<scalar> 
74080
(
3.35979e-05
5.21712e-05
4.05867e-05
3.93981e-05
2.0476e-05
1.16638e-06
7.4285e-05
-2.333e-05
-2.80562e-05
8.85561e-05
-5.59522e-05
1.89822e-05
5.94501e-05
-9.23524e-06
5.7384e-05
3.41413e-05
3.01501e-05
3.67579e-05
2.50148e-05
4.68634e-05
2.04853e-05
1.77872e-05
2.92554e-05
3.57518e-05
1.87619e-05
8.28288e-06
3.63727e-05
3.29621e-05
2.09028e-05
7.87318e-06
5.05337e-05
1.22897e-05
7.80511e-06
5.81554e-05
-4.61631e-07
1.96367e-06
5.74888e-05
4.1567e-06
-5.64884e-06
7.1429e-05
-2.49761e-06
1.58389e-05
9.0231e-05
-9.59579e-06
3.78657e-05
8.52374e-05
-2.72042e-05
6.24214e-05
6.23919e-05
-8.32099e-06
6.7139e-05
5.0773e-05
2.81813e-06
5.26284e-05
5.76787e-05
-2.01447e-05
4.43157e-05
5.51955e-05
-4.94138e-07
5.5238e-05
4.20562e-05
3.2596e-05
4.65975e-05
3.65417e-05
3.66835e-05
5.41942e-06
5.20353e-05
2.09166e-05
4.52942e-06
5.94118e-05
1.55535e-05
3.6843e-05
4.59139e-05
-1.84562e-06
6.53119e-05
3.42485e-05
7.19422e-06
4.96578e-05
3.47245e-05
1.61495e-05
2.56642e-05
4.24736e-05
4.5955e-06
3.12614e-05
4.42002e-05
1.30894e-05
1.91231e-05
4.48054e-05
6.10226e-07
1.23275e-05
4.79269e-05
7.39825e-06
1.24397e-05
4.53383e-05
3.43804e-05
-2.16963e-06
4.13618e-05
2.19504e-05
9.81505e-06
3.96535e-05
-4.69743e-06
3.73834e-05
4.54755e-05
-5.38453e-06
3.23984e-05
5.53545e-05
-5.84493e-06
1.33867e-05
5.99896e-05
8.36749e-06
2.0637e-05
7.23202e-05
-1.07708e-05
2.61347e-05
7.46335e-05
-3.31395e-05
6.57697e-05
2.33238e-05
6.90686e-05
8.28757e-05
0.000145214
-1.35272e-05
9.22714e-05
2.61759e-05
-4.10704e-05
0.000154656
-7.51983e-05
-0.000107739
0.000206422
-0.000168565
-5.24046e-05
0.000149713
-2.83291e-05
2.71328e-05
7.98799e-05
0.000110728
-1.0668e-05
5.73116e-05
0.000136487
-4.36256e-05
4.62786e-05
8.11283e-05
-8.96358e-06
5.06633e-05
2.0024e-05
-1.94524e-06
7.56119e-05
3.7494e-05
-4.71088e-05
0.00011475
3.71415e-06
-4.3416e-05
0.000130856
-2.17102e-05
-5.47824e-05
0.000111059
2.7842e-05
-9.54155e-05
0.000139005
-2.00453e-05
-5.54452e-05
0.000205783
-6.48795e-05
-1.74095e-05
0.000194916
-5.97761e-05
3.19321e-05
0.000116637
1.12819e-05
4.7429e-05
6.68167e-05
2.64752e-05
1.889e-05
7.91158e-05
-6.66972e-05
8.03002e-06
9.03312e-05
-3.98534e-05
2.77156e-05
7.77483e-05
7.20835e-05
1.93576e-05
7.252e-05
9.99918e-05
-7.55936e-05
9.91513e-05
3.61238e-05
-9.05372e-05
0.000109892
3.46498e-05
-6.1008e-06
7.68569e-05
8.70586e-06
5.1012e-05
5.99469e-05
1.91116e-05
8.76886e-06
6.66116e-05
4.28144e-05
-3.43489e-05
8.59728e-05
2.05647e-05
-1.97752e-05
0.000102348
1.872e-05
-3.67383e-05
9.5977e-05
-9.08177e-06
-4.70431e-05
9.70025e-05
2.68327e-05
-3.1868e-05
0.000118147
9.90024e-05
-6.37974e-05
0.000120845
6.44598e-05
-7.36683e-05
0.000100644
1.83741e-06
-2.191e-05
9.67727e-05
-5.08886e-06
1.68421e-06
0.000106571
-4.27868e-06
-3.50302e-05
0.000125109
3.96144e-05
-4.30275e-05
0.000145041
1.31858e-05
-4.72248e-05
0.000134403
-8.22048e-05
4.77438e-05
5.84579e-05
4.61687e-05
0.000146227
0.000204164
-3.95227e-05
0.00016761
2.12518e-05
-5.91744e-05
0.000182487
-5.81341e-05
-9.36155e-05
0.000233701
-0.000204541
-6.14073e-05
0.000216753
-7.896e-05
4.66709e-06
0.000145564
0.000155679
-2.1847e-05
0.000112054
0.000224561
-7.15062e-05
0.000110395
0.000108351
-2.11379e-05
0.0001229
-1.40526e-05
-9.05408e-06
0.00013945
4.49236e-05
-6.99665e-05
0.000177404
-1.77778e-05
-4.52082e-05
0.000188879
-0.000103179
-3.78169e-05
0.000157083
2.5809e-05
-0.000109789
0.000181567
-4.21872e-05
-8.36923e-05
0.000241931
-0.000139766
-3.31653e-05
0.000240827
-0.000112774
1.88909e-05
0.000178281
2.47679e-05
1.56422e-05
0.000117054
7.05037e-05
-2.70532e-05
9.29779e-05
-5.21994e-05
-3.40988e-05
9.49044e-05
-3.23016e-05
8.97117e-07
0.000115208
9.99043e-05
4.1029e-06
0.000135423
0.000140678
-9.31842e-05
0.000154482
6.23037e-05
-0.000170544
0.000154354
9.20437e-05
-7.92762e-05
0.000111948
5.01195e-05
1.37423e-05
8.9605e-05
3.74712e-05
-2.3194e-05
0.000107396
6.79042e-05
-5.85649e-05
0.000132237
3.32969e-05
-3.5392e-05
0.000164251
-1.16361e-05
-3.4445e-05
0.000161249
-4.69592e-05
-7.00894e-05
0.000146444
4.71407e-05
-4.46989e-05
0.000188724
0.000137513
-4.27933e-05
0.000224834
8.78135e-05
-8.63468e-05
0.000190201
4.43644e-06
-7.07674e-05
0.000155342
-4.54729e-06
-1.53381e-05
0.000149293
1.44733e-05
-3.86186e-05
0.000175765
7.6416e-05
-5.65872e-05
0.000201945
4.46331e-05
-5.95935e-05
0.000165273
-9.18783e-05
2.45886e-05
0.000127771
8.64477e-06
0.000191193
0.000177843
1.96187e-05
0.000225077
7.9566e-06
-2.03687e-05
0.00022458
-1.58343e-05
-8.50046e-05
0.000256648
-0.000164261
-4.59671e-05
0.000258557
-0.000121835
-2.26034e-06
0.00020529
0.000152394
-1.68858e-05
0.000168089
0.000289276
-4.54535e-05
0.000153606
0.000118442
1.36553e-05
0.000149248
-8.37836e-05
1.20771e-05
0.000159632
4.6662e-05
-4.86563e-05
0.000215964
-4.81887e-05
-3.86289e-05
0.000217177
-0.000181226
-3.23182e-05
0.000171997
-3.63692e-06
-8.40344e-05
0.000214673
-7.34578e-05
-7.97358e-05
0.000269689
-0.000222916
-1.38221e-05
0.000262511
-0.000185725
2.60638e-05
0.000213663
4.47183e-05
-2.63846e-06
0.000169379
0.000119336
-5.18184e-05
0.000135316
-3.43777e-05
-4.7556e-05
0.000119229
3.38204e-06
5.28675e-06
0.00014801
0.000134221
-7.26746e-06
0.000186446
0.00013845
-7.00286e-05
0.000203544
0.000108114
-0.000203422
0.000190329
0.000176693
-0.000129702
0.000149167
0.000108549
-2.30619e-05
0.000118267
7.25696e-05
-4.85861e-05
0.000137975
0.000103896
-8.81558e-05
0.000164467
4.96566e-05
-2.3883e-05
0.000185426
-3.4398e-05
-6.88921e-06
0.000176531
-6.54322e-05
-5.9948e-05
0.000181698
5.18473e-05
-4.84999e-05
0.000245637
0.000127078
-5.56564e-05
0.000266386
0.000130834
-7.61448e-05
0.000209577
3.15373e-05
-6.42166e-05
0.000174892
-4.76874e-06
-5.93824e-06
0.000175311
2.94862e-05
-3.89266e-05
0.000212187
0.000120583
-7.97978e-05
0.000235178
6.88222e-05
-3.95321e-05
0.000184703
-7.5368e-05
-8.39742e-06
0.000178586
1.16089e-05
0.000197277
0.000141309
3.53778e-05
0.000224304
-1.86607e-05
5.42297e-05
0.000258465
2.64535e-06
-3.22765e-05
0.000293617
-0.000134778
-4.00913e-05
0.000292166
-0.000119002
2.80671e-05
0.00025217
0.000168792
-2.50026e-05
0.000249728
0.00031414
-4.86715e-05
0.000255266
6.10603e-05
3.18881e-05
0.000209844
-0.000114268
5.54656e-06
0.000206897
5.2524e-05
-4.13194e-05
0.000256969
-9.95174e-05
-3.95648e-06
0.000240776
-0.000214097
-2.36686e-05
0.000221488
-4.67403e-05
-8.14039e-05
0.000255308
-7.7508e-05
-7.30076e-05
0.000315301
-0.000267024
-1.91139e-05
0.0003232
-0.00029026
5.46553e-05
0.000263061
6.85995e-05
2.68562e-05
0.000194859
0.000182843
-4.2545e-05
0.000165735
-9.29187e-05
-2.00828e-05
0.000163442
1.57884e-05
-4.59811e-05
0.000198977
0.000203232
-5.73166e-05
0.000250722
8.92824e-05
-6.58775e-05
0.000267069
9.45534e-05
-0.000175476
0.00022697
0.000232623
-0.000144788
0.000168168
0.000152708
-2.59671e-05
0.000147733
7.00446e-05
-4.23297e-05
0.000168236
0.000115199
-0.000104912
0.000177675
9.66806e-05
-8.09327e-05
0.000210003
-7.12179e-05
-8.5253e-06
0.000225472
-0.000116068
-3.72592e-05
0.000224828
4.84916e-05
-4.48939e-05
0.000267027
0.000134963
-3.64043e-05
0.000291514
0.000180289
-7.33271e-05
0.000256216
3.90419e-05
-6.15579e-05
0.000228163
-2.54884e-05
-1.56295e-05
0.00021387
2.10495e-05
-4.6938e-05
0.000243131
0.000182066
-9.81619e-05
0.000273358
8.81016e-05
-1.11453e-05
0.000206805
-2.81969e-05
3.07723e-06
0.000209163
1.86635e-05
0.000194365
0.000173408
2.18981e-05
0.00021427
-2.8791e-05
0.000105383
0.000258322
5.24683e-06
6.05956e-05
0.00030066
-0.000142352
-8.47584e-06
0.000329122
-0.000107386
9.54071e-07
0.000317802
0.000217786
-4.34459e-05
0.000318005
0.000327081
-2.79391e-05
0.000340974
-1.24898e-05
-2.97241e-06
0.000296399
-0.000143741
-1.41487e-05
0.000275857
9.55524e-05
-7.32046e-05
0.000296549
-0.000110182
4.5284e-05
0.000270363
-0.000231238
-5.74886e-06
0.000258066
-2.57893e-05
-0.000119391
0.000286532
-6.83239e-05
-6.98904e-05
0.000335749
-0.000239394
-5.73816e-05
0.000359172
-0.00034462
5.16879e-05
0.000310693
9.14179e-05
2.06641e-05
0.000234507
0.000241339
-4.38453e-05
0.000201317
-0.000229789
6.85163e-05
0.000192802
1.1196e-05
-4.39824e-05
0.000240596
0.000282509
-5.92932e-05
0.000294107
1.32271e-05
-5.13639e-05
0.000302914
-4.84646e-07
-0.000128261
0.000262708
0.000216216
-0.000151481
0.000198845
0.00017671
-4.4727e-05
0.000168217
4.27484e-05
-1.40125e-05
0.000177865
9.21101e-05
-8.52212e-05
0.000173693
0.000121817
-9.59554e-05
0.000228051
-0.00012166
1.11727e-05
0.000286796
-0.000176248
-1.26072e-05
0.000256983
8.53076e-05
-4.69626e-05
0.000259052
0.000175275
2.35191e-05
0.000326288
0.000163371
-1.68541e-05
0.000341189
5.05577e-06
-6.3787e-05
0.000301755
-6.76938e-05
-5.49417e-05
0.000265021
1.89869e-05
-4.29549e-05
0.000292368
0.000256975
-9.70135e-05
0.000316055
0.000123287
-3.18485e-05
0.00023696
4.57573e-05
1.16806e-05
0.000251477
9.29918e-06
0.000277498
0.00018064
3.44246e-05
0.000297459
-1.17779e-05
0.000134613
0.000296898
-2.5721e-05
7.64928e-05
0.000313344
-0.000177382
-9.28447e-06
0.000366721
-0.000109426
-1.36099e-05
0.000377065
0.000261516
-1.52321e-05
0.000378902
0.000327008
-3.97128e-05
0.00041495
-5.80235e-05
-5.00694e-05
0.000373089
-0.000197051
-9.46134e-06
0.000327072
0.000155524
-6.19753e-05
0.000339364
-5.94665e-05
4.2507e-05
0.000329119
-0.000234511
-1.90721e-05
0.000303303
2.86266e-05
-0.000153525
0.000329132
-6.88571e-05
-0.000110933
0.0003847
-0.00022492
-7.65332e-05
0.000406209
-0.000298236
-1.16136e-06
0.000350594
0.000194104
-3.84995e-05
0.000300027
0.000332745
-0.000115694
0.000269261
-0.000353341
6.49076e-05
0.000232937
-5.3614e-05
2.97766e-05
0.000260673
0.000376046
-8.20065e-05
0.000339441
-8.23882e-06
-7.97839e-05
0.000374483
-0.000124756
-0.000116074
0.000317961
0.000159985
-0.00013601
0.000242869
0.000200595
-5.74543e-05
0.000204966
-1.74642e-05
1.98587e-05
0.000219915
3.75991e-05
-7.42498e-05
0.000226289
9.84244e-05
-6.31685e-05
0.000266208
-0.000104935
-2.70145e-05
0.000320788
-0.000182406
-2.84962e-05
0.000280603
0.000149074
-7.81515e-05
0.000262194
0.000219737
6.44751e-06
0.000346057
6.25631e-05
9.19646e-05
0.000413876
-6.98854e-05
-1.33603e-05
0.000348339
-8.97407e-05
-5.72622e-05
0.000286639
5.54187e-05
-3.83837e-06
0.0003305
0.000302958
-8.8811e-05
0.000352979
0.000175499
-9.75266e-05
0.000257909
0.000113325
-5.46474e-06
0.000254909
3.776e-05
0.000374498
0.000135119
5.49502e-05
0.000396218
1.4167e-05
0.000118112
0.000393863
-8.69207e-05
0.000110319
0.00036317
-0.000158813
1.6085e-06
0.000368881
-8.81714e-05
1.0499e-06
0.000411856
0.000235786
-1.82937e-06
0.000442779
0.00030005
-0.000102339
0.000485812
-9.30169e-05
-9.71902e-05
0.000440107
-0.00021613
-3.725e-05
0.000390449
0.000182386
-2.14123e-05
0.000393971
5.83811e-06
2.80982e-05
0.000375235
-0.000184383
1.20664e-08
0.000349705
4.8841e-05
-0.000122889
0.000366841
-5.17501e-05
-0.0001603
0.000423113
-0.000265568
-7.2655e-05
0.000440914
-0.00028685
-2.25474e-06
0.000402224
0.000233895
5.61814e-06
0.00038913
0.000395112
-0.000123468
0.000361807
-0.000391144
5.12566e-07
0.000299038
-0.000125976
0.000105495
0.000300873
0.000463815
-0.000100874
0.00037342
6.96558e-07
-9.65433e-05
0.000414087
-0.00024574
-5.34546e-05
0.00036369
0.000136788
-0.000160458
0.000292257
0.000220313
-0.000110111
0.000258386
-0.000106828
2.18159e-06
0.000271701
-6.54743e-05
-3.99786e-05
0.000289812
4.92004e-05
-6.77496e-05
0.000313101
-2.7406e-05
-9.38538e-05
0.000335582
-0.00011562
-8.50017e-05
0.000317534
0.000177185
-8.97887e-05
0.000306092
0.0002616
-4.33175e-05
0.000375501
3.09292e-05
4.47841e-05
0.000459393
-0.000168856
-2.66745e-05
0.00038759
-4.82351e-05
-0.000108608
0.000279115
0.000157323
1.96873e-05
0.000311415
0.000303411
5.78622e-05
0.000368868
0.000231902
-7.72808e-05
0.00029356
0.000187242
-3.16984e-05
0.000210722
4.21193e-05
0.000438341
6.03372e-05
6.26124e-05
0.000455402
7.86651e-06
8.95524e-05
0.000445059
-0.000149149
0.000135666
0.000414613
-0.00014136
7.06101e-05
0.000426594
-0.000132995
6.57044e-05
0.000471152
0.00013598
1.21974e-05
0.000507616
0.000286384
-0.000107544
0.000541272
-5.03443e-05
-0.000149779
0.000510076
-0.000184323
-7.91274e-05
0.000449964
0.00012971
1.0326e-05
0.000430793
7.01624e-06
2.8187e-06
0.000415787
-0.00015146
2.09359e-05
0.000386
6.44442e-05
-0.000103881
0.000403409
-4.58607e-05
-0.000169664
0.000481061
-0.00034551
-7.98118e-05
0.000501791
-0.000295776
-2.99014e-05
0.0004759
0.000221773
2.74545e-05
0.000492092
0.000357592
-5.00841e-06
0.000425048
-0.000301136
-4.82113e-05
0.000328923
-0.000194505
0.000107178
0.00035055
0.000394278
3.71171e-05
0.000357455
-1.54337e-05
2.70233e-05
0.000379415
-0.00032407
8.89529e-06
0.000420638
0.000105971
-0.000235875
0.000406325
0.000124249
-0.000150111
0.000348926
-0.000155428
-1.06898e-05
0.000322941
-0.000137795
-1.05821e-05
0.00034707
1.14914e-05
-0.000119443
0.000363406
3.80432e-05
-0.000123141
0.00036398
-7.68538e-05
-8.61053e-05
0.000351566
0.000154953
-6.35687e-05
0.000363252
0.000278103
-5.08189e-05
0.000435864
-2.28059e-06
2.86344e-05
0.000533156
-0.000320383
-4.04934e-06
0.00047933
-6.08538e-05
-0.000136721
0.000315664
0.000250346
3.60101e-06
0.000308783
0.000305389
0.000106753
0.000373232
0.000314822
-5.38213e-05
0.000339861
0.000263581
-8.53572e-05
0.000110869
1.11408e-05
0.000524178
1.19038e-05
3.36292e-05
0.000545643
3.85418e-05
7.71815e-05
0.000492673
-0.000115553
0.000172679
0.000451266
-0.000128969
0.000126321
0.000523412
-0.000233272
0.00012144
0.000559034
1.92067e-05
0.00010022
0.000547302
0.000307296
-9.97815e-05
0.000607812
1.15832e-05
-0.000134271
0.000619864
-0.000174838
-6.23665e-05
0.000533332
4.19651e-05
-1.58392e-05
0.000473424
4.29055e-05
-5.63314e-05
0.000455897
-7.63736e-05
-1.8649e-05
0.000434875
0.000102463
-0.000100808
0.000449079
3.74658e-06
-0.000182534
0.000526035
-0.000417001
-9.58834e-05
0.00055418
-0.000298132
-1.68274e-05
0.000516591
0.000280858
3.77066e-05
0.000533258
0.000319039
2.48265e-05
0.000487083
-0.000215636
-4.71452e-05
0.000405463
-0.000247365
1.96726e-05
0.000426817
0.000263615
9.32653e-05
0.000403437
3.22606e-05
3.45835e-05
0.000353513
-0.000294289
-4.58534e-05
0.000399825
3.09881e-05
-0.000157932
0.000447676
-1.05007e-05
-5.13339e-05
0.000423874
-0.000165746
2.39601e-07
0.000402532
-0.000132727
-1.11686e-05
0.000398584
-1.3743e-05
-9.53414e-05
0.000391175
1.79288e-06
-5.90735e-05
0.000405488
-6.31496e-05
-4.99516e-05
0.000402111
0.000137576
-3.95263e-05
0.000421441
0.000264957
-4.22437e-05
0.000511003
-9.5183e-05
3.94683e-05
0.000593433
-0.000442405
2.22747e-05
0.000532418
-8.13047e-05
-8.70796e-05
0.000408338
0.000272785
-2.03528e-05
0.000401414
0.000236082
5.55485e-05
0.000414835
0.000371841
-3.5773e-05
0.000392718
0.000364424
-0.000114754
8.7294e-05
-1.60921e-05
0.000618392
8.21366e-05
-6.35443e-05
0.000660834
0.000130683
-2.93954e-05
0.000599475
-3.99169e-05
0.000148279
0.000561076
-9.33883e-05
0.000115801
0.000624104
-0.000271304
6.12037e-05
0.000625424
-7.73436e-05
9.51285e-05
0.00057398
0.000343902
-4.56417e-05
0.00063748
6.66635e-05
-3.64228e-05
0.000679691
-0.000182472
-1.81678e-06
0.000592519
-1.62444e-05
-4.1015e-06
0.000502026
0.000108714
-7.6671e-05
0.000494167
-1.09178e-05
-7.00983e-05
0.000496627
3.70247e-05
-7.41115e-05
0.000517599
5.7898e-06
-0.000157155
0.000597134
-0.00045703
-0.000127883
0.000629066
-0.000334186
-1.15682e-06
0.000575352
0.00033884
9.91665e-05
0.0006081
0.000345198
5.72888e-07
0.000632231
-0.00015189
-7.5215e-05
0.000533164
-0.000217097
-2.54696e-05
0.000467971
0.000237697
4.77097e-05
0.000452094
9.87601e-05
-2.57747e-05
0.000386993
-0.00021482
-5.95863e-05
0.000412218
-5.22838e-05
-2.79192e-05
0.000501936
-0.000214369
-3.62662e-05
0.000500314
-0.000240005
-7.84955e-05
0.000459227
-0.000106088
-7.8126e-05
0.000439481
-6.02902e-05
-4.9746e-05
0.000442121
-0.000122797
1.46839e-05
0.000467515
-8.11868e-05
9.84701e-07
0.00046574
0.000147525
-5.73606e-05
0.000498197
0.000223871
-5.57822e-05
0.000588608
-0.000144803
-3.14026e-05
0.000649964
-0.000511587
-1.99258e-05
0.000606382
-0.000144521
-4.97112e-05
0.000506279
0.00026255
-4.08749e-05
0.000438086
0.000258701
-2.68994e-05
0.000428217
0.000389897
-6.08427e-05
0.000463503
0.000393117
-0.000105437
0.000130312
-5.76485e-05
0.00071348
0.000139955
-8.71561e-05
0.000773362
5.66986e-05
-1.93149e-05
0.000713942
-3.03895e-05
9.56812e-05
0.000658921
1.16751e-06
9.12027e-05
0.000668985
-0.000252408
9.02488e-05
0.000693321
-0.000150699
4.5794e-05
0.000684313
0.000311674
-5.10382e-06
0.000701178
0.000121788
-7.26877e-05
0.00071801
-0.000155808
-1.83825e-05
0.00063311
1.38386e-05
-4.873e-05
0.000558147
0.000154127
-8.74919e-05
0.000558357
-2.49199e-05
-4.78211e-05
0.000563646
-3.41691e-05
-2.93481e-05
0.000601442
-1.88621e-05
-0.000101328
0.000679259
-0.00044019
-0.000137476
0.000693531
-0.000380183
-2.1394e-05
0.00065264
0.000324813
0.000109378
0.000690203
0.0003581
8.52539e-05
0.000745016
-0.000135715
-4.40142e-05
0.000662622
-0.000191348
-1.93381e-05
0.000545589
0.0002143
7.00389e-05
0.000501925
0.000129529
3.40083e-05
0.000464132
-8.84913e-05
-9.27952e-06
0.000507153
-9.03263e-05
-6.27192e-06
0.0006229
-0.000399158
-0.000126638
0.000625608
-0.000353662
-0.000110049
0.000571905
-7.61191e-05
-0.000114598
0.000559325
-4.70612e-05
-0.000113808
0.000560038
-0.000173766
-1.815e-05
0.000556147
-0.000105756
-2.24402e-05
0.000539638
0.000162614
-7.17144e-05
0.000586294
0.000189387
-6.66316e-05
0.000686679
-0.000173393
-8.58104e-05
0.000723582
-0.000504403
-5.16331e-05
0.000669075
-0.000174083
-2.71445e-05
0.000561982
0.000244147
-6.82637e-05
0.000456217
0.000311122
-5.22692e-05
0.000463048
0.000387892
-1.83337e-05
0.000556826
0.000337403
-7.07734e-05
0.000174466
-8.59907e-05
0.000720168
0.000152125
1.51811e-05
0.000774335
-1.04088e-06
6.19808e-05
0.000765202
-3.21074e-05
9.17961e-05
0.000740985
5.72405e-05
0.000109575
0.000689786
-0.000237898
0.000141423
0.000684795
-0.000146469
6.88484e-05
0.000728007
0.0002799
-9.223e-05
0.000779486
0.000121905
-0.000124354
0.000800465
-0.000128268
-1.17361e-05
0.000717991
5.70371e-05
-4.98314e-05
0.000646957
0.000182061
-0.00011778
0.000641596
-4.43808e-05
-4.96495e-05
0.000638197
-2.16733e-05
-1.35036e-05
0.000676034
-5.45872e-05
-4.81907e-05
0.000755828
-0.000458649
-9.44638e-05
0.000771686
-0.000384787
-1.45596e-05
0.00074048
0.000223677
0.000140938
0.00078544
0.000245035
0.000149427
0.00085085
-0.000173219
-1.58936e-05
0.000769759
-0.000164467
-4.98708e-05
0.000629504
0.000181456
2.9078e-05
0.000563039
0.000112015
0.000121111
0.000529815
4.92823e-05
2.7402e-05
0.000603742
-6.36467e-05
-9.0324e-05
0.000713112
-0.000393877
-0.000143277
0.000685609
-0.000319022
-7.02684e-05
0.000643499
5.45672e-06
-0.000115712
0.000654879
1.31181e-05
-0.000203241
0.000654502
-0.00014734
-0.000115783
0.000636615
-0.000114672
-5.30528e-05
0.000612203
0.000174932
-0.000101361
0.000661211
0.000195917
-0.00010119
0.000778678
-0.000191428
-9.63552e-05
0.000822155
-0.000436979
-4.98672e-05
0.000757952
-0.000167029
-2.87513e-05
0.000636951
0.000189068
-9.65871e-05
0.000551153
0.000307757
-0.000110787
0.00055536
0.000360401
9.83258e-06
0.000616824
0.000237094
-6.52382e-06
0.000144419
-1.33203e-05
0.000760334
0.000137642
6.27428e-05
0.000837528
3.12141e-05
-3.41176e-05
0.000855028
-1.47854e-05
1.28811e-05
0.00082813
0.000106108
0.000115226
0.000764587
-0.000140523
0.000121675
0.000700371
-0.000135582
8.42469e-05
0.000739674
0.000204833
-1.47383e-05
0.00085356
2.53602e-05
-1.76682e-05
0.000879237
-0.00018375
-6.9025e-06
0.000796666
2.86442e-05
-4.53661e-05
0.000745445
0.00013082
-8.28994e-05
0.000735879
-8.33545e-05
-4.60803e-05
0.000720705
-2.46085e-05
-3.09961e-05
0.000770101
-8.16019e-05
-6.13931e-05
0.00085146
-0.000478438
-6.2202e-05
0.000857847
-0.000383251
2.83365e-07
0.000826526
0.000126896
0.000130524
0.000879526
9.37717e-05
7.51334e-05
0.000949083
-0.000263926
-6.78611e-06
0.000857769
-0.000137301
-2.53869e-05
0.000698078
0.000218656
-3.67829e-05
0.000613587
8.94954e-05
7.58584e-05
0.000632338
3.91025e-05
5.51227e-05
0.000740095
-4.7439e-05
-5.05852e-05
0.000805393
-0.000280227
-6.82011e-05
0.000748235
-0.000256317
-1.67336e-05
0.000712744
2.81478e-06
-2.09826e-05
0.000753351
7.89375e-05
-0.000160903
0.000748578
-6.29096e-05
-0.000156144
0.000694597
-7.91213e-05
-5.70758e-05
0.000681112
0.000139402
-7.37399e-05
0.000770385
0.000135368
-6.55871e-05
0.000891882
-0.000136187
-2.32868e-05
0.000901418
-0.000316912
-2.73243e-05
0.000817253
-0.000109164
-9.49636e-05
0.000706474
0.000183513
-0.00017068
0.000640422
0.000250517
-0.000100956
0.000643226
0.000272971
3.08594e-05
0.000685227
0.000135426
2.09878e-05
5.97848e-05
5.47639e-05
0.000884516
0.000160158
-0.000101426
0.00096925
5.09612e-05
-5.70842e-05
0.000977604
-7.37227e-06
-2.08368e-05
0.000910176
0.000159237
3.60293e-05
0.000832094
7.98767e-05
6.7109e-05
0.000810738
-2.10788e-05
4.65184e-05
0.000845329
0.000118699
4.79509e-06
0.000881122
-3.64951e-05
-6.14813e-05
0.000908482
-0.000245446
-0.000100703
0.000905746
-6.91627e-05
-9.93666e-05
0.000883083
6.63808e-05
-9.49302e-05
0.000882151
-7.94186e-05
-6.89583e-05
0.00087742
-1.95979e-05
-8.48109e-05
0.00089295
-8.155e-05
-0.000164475
0.000939694
-0.000419314
-9.67087e-05
0.000944436
-0.000333929
6.55376e-06
0.00093526
5.51791e-05
7.49165e-05
0.00102549
-6.27802e-05
4.09122e-05
0.00108086
-0.000341055
2.76523e-05
0.000975349
-9.13358e-05
-5.76065e-06
0.000851646
0.000278531
-5.27281e-05
0.000769236
0.000154562
-2.01226e-05
0.000739493
6.77574e-05
1.91108e-05
0.000780087
-1.86929e-05
1.09647e-05
0.000841452
-0.000236112
-2.43603e-06
0.000783469
-0.00026552
3.87829e-05
0.000737056
-6.75899e-05
3.92112e-06
0.000804423
1.98424e-05
-0.000104259
0.000836625
-3.25775e-05
-0.000132505
0.000793861
-4.58454e-05
-1.55874e-05
0.000795843
6.97279e-05
-2.2444e-06
0.000877238
5.27671e-05
-0.000103168
0.000983706
-9.9045e-05
-2.23232e-05
0.00100626
-0.000212398
3.7696e-05
0.000948122
-3.72111e-05
-9.64271e-05
0.000849878
0.000287972
-0.000239828
0.00076247
0.000315368
-0.000130771
0.00076328
0.000241675
-2.27421e-05
0.000812972
0.000152475
-7.05886e-05
0.000130325
-0.000142183
0.00103711
0.000175451
-9.45649e-05
0.00105557
0.000125131
-0.000103011
0.00103574
0.000124944
-5.83542e-05
0.000996583
0.000196258
2.94913e-05
0.000923811
0.000139453
0.000147186
0.000896834
4.83924e-05
0.000199093
0.000940297
8.2451e-05
8.57183e-05
0.00099482
-5.41735e-05
-6.98307e-05
0.00102227
-0.00026358
-0.000100344
0.00101251
-0.000157018
-2.90335e-05
0.00096839
1.8746e-05
-2.93371e-05
0.000983471
-6.80233e-05
-2.57213e-05
0.00104036
-7.06088e-05
-6.17938e-05
0.0010204
-6.60851e-05
-0.00018139
0.000994035
-0.000284958
-0.000156631
0.0010139
-0.000281401
-5.60725e-06
0.00106975
1.12278e-05
6.68631e-05
0.00115958
-0.000154816
6.24148e-05
0.00117603
-0.000380906
5.2171e-05
0.00110432
-3.50734e-05
2.14596e-06
0.00101724
0.000357992
-6.62508e-05
0.000922963
0.000279179
-8.82171e-05
0.000842881
0.00018135
-1.41658e-05
0.00085584
3.18436e-05
2.64469e-05
0.000930991
-0.000262079
9.2153e-06
0.000896753
-0.000232635
-4.48578e-06
0.000819407
-5.70849e-05
-4.32985e-05
0.000862548
-7.0445e-05
-0.000114903
0.00093813
-7.1912e-05
-0.000155351
0.00093557
-8.45226e-06
-4.21268e-05
0.000930505
5.25455e-05
0.000112447
0.000999781
-5.12258e-05
4.0535e-05
0.00110002
-0.000163939
-2.23765e-05
0.0011183
-0.000121145
-3.72757e-05
0.00104303
4.88799e-05
-9.9449e-05
0.000956524
0.000347007
-0.000211747
0.000901247
0.000339231
-0.000156495
0.000902698
0.000221714
9.83521e-06
0.000938492
0.000249805
-4.17014e-05
0.000262932
-0.000128911
0.00118493
0.000179957
-5.95226e-05
0.0011142
0.000166254
-2.25719e-05
0.00105123
0.000212861
3.54794e-05
0.00107778
0.000185638
8.89434e-05
0.00111229
2.6585e-05
0.000120217
0.00110257
-1.41047e-05
0.000152267
0.00110505
0.000103061
6.91e-05
0.00115409
1.23289e-05
-7.51715e-05
0.00115932
-0.000145139
-0.000159656
0.00112373
-0.000160424
-5.56064e-05
0.00110311
-0.000112718
5.28652e-05
0.0011538
-0.000169776
1.26933e-05
0.00121271
-0.000157357
-3.01397e-05
0.00116563
-8.63235e-05
-4.12305e-05
0.00109802
-0.000212725
-6.16872e-05
0.00111244
-0.000272301
3.45352e-06
0.00119008
-9.30565e-05
0.000125923
0.00126419
-0.000214225
0.000112492
0.00124468
-0.000346458
2.83279e-05
0.00118054
2.72436e-06
-4.61091e-06
0.00117325
0.000377267
-6.68816e-05
0.00115986
0.00032922
-0.00010257
0.00108332
0.000234624
1.15336e-05
0.00100632
0.000108093
9.78635e-05
0.000979491
-0.000181245
1.73123e-05
0.000963007
-0.000221042
-4.7989e-05
0.000938017
-9.77444e-05
-9.59551e-05
0.000986455
-0.000117511
-0.000201114
0.00103478
-6.28947e-05
-0.000230371
0.00101307
7.88855e-05
-8.59116e-05
0.00100699
0.000101012
0.000113889
0.00108247
-0.000101381
7.73411e-05
0.00117701
-0.000219259
-7.35447e-06
0.00120573
-9.79701e-05
-8.17633e-06
0.00115526
1.2276e-05
-5.90145e-05
0.00109388
0.000210431
-0.000179561
0.00104854
0.000207549
-0.000185215
0.00101756
0.000172736
-1.90483e-05
0.00105149
0.000318379
-1.44561e-06
0.000317836
-9.39513e-05
0.00127402
5.35044e-05
-1.43179e-06
0.00121294
8.18446e-05
7.1647e-06
0.00116434
0.000202561
3.31088e-05
0.00117023
0.000222307
8.3766e-05
0.00116211
5.15784e-05
0.000137819
0.0011309
-7.19028e-06
0.000162627
0.00114654
8.90154e-05
5.8512e-05
0.00122956
-2.62892e-05
-7.77313e-05
0.00130837
-0.00013654
-0.000171667
0.00132706
-0.000135087
-0.000156854
0.00133007
-0.000180846
-1.65916e-05
0.00135322
-0.000287512
3.84782e-05
0.00136641
-0.000230995
-6.09867e-05
0.00128469
-0.000108446
-0.000109879
0.00122445
-0.000239333
-7.46628e-05
0.00125823
-0.000330171
2.48646e-05
0.00131171
-0.000144263
0.000152217
0.00134884
-0.000170819
0.000123558
0.00133746
-0.000247176
-5.49915e-06
0.00132337
-1.09767e-05
-3.54611e-05
0.00137409
0.000256695
-3.31409e-05
0.00138465
0.000257884
2.35618e-05
0.00128898
0.000243609
0.000124657
0.00113716
0.000165391
0.000138393
0.00105364
-0.000183067
7.03482e-05
0.00105429
-0.000334719
9.87498e-06
0.0010975
-0.000234111
-7.33123e-05
0.00117986
-0.000153996
-0.000185974
0.00120376
-2.81965e-06
-0.000185767
0.00111467
0.000176257
-6.32515e-05
0.00103535
0.000146486
7.40522e-05
0.00108933
-0.000146168
7.2014e-05
0.00121927
-0.000280605
1.30211e-05
0.00128024
-7.36261e-05
-3.75172e-06
0.00126103
-1.24565e-05
-4.59314e-05
0.00124405
1.78817e-05
-0.000123919
0.00120778
0.000116079
-0.000182163
0.00116214
0.000224466
-0.000102703
0.00119911
0.000311588
-2.79323e-05
0.000188965
-1.79396e-05
0.00134234
-1.59934e-05
-8.69484e-06
0.00129095
3.65585e-05
-2.0811e-05
0.00128002
0.000167263
-3.36693e-05
0.00132923
0.000242335
8.79027e-05
0.00132703
0.000178665
0.000248195
0.00129025
0.00010937
0.00024359
0.00130294
9.06988e-05
0.000122453
0.00137496
-9.50248e-05
-8.39867e-06
0.00148078
-0.000247169
-5.8791e-05
0.00152586
-0.000160967
-1.29062e-05
0.00147622
-0.000115277
5.53313e-05
0.00144578
-0.000282841
6.59655e-05
0.0014675
-0.000304716
-4.6902e-05
0.00143536
-0.000130767
-0.000157853
0.0013957
-0.000214377
-0.00011682
0.00142214
-0.000354725
4.11783e-05
0.00146741
-0.000172084
0.000193311
0.00147475
-8.1134e-05
0.000129267
0.00146484
-0.000151749
-2.3832e-06
0.00151592
-9.76579e-05
4.9131e-05
0.00156573
8.76592e-05
0.000132746
0.0014762
0.000219297
0.000108822
0.00136746
0.000235813
6.09179e-05
0.00132206
0.000109794
9.14008e-05
0.00128972
-0.000230722
0.00015192
0.00124307
-0.000394027
0.000132372
0.00121435
-0.000248102
-3.39649e-05
0.00124475
-0.000105073
-0.000163547
0.00128465
5.11315e-05
-8.73821e-05
0.0012613
0.000224167
3.35246e-05
0.00120552
0.000152001
9.39521e-05
0.00120957
-0.000186989
8.55643e-05
0.00129241
-0.000275734
1.67243e-05
0.00136842
1.68228e-05
-4.6812e-05
0.00137437
7.17199e-05
-0.000111641
0.00136836
-4.26066e-05
-0.000124377
0.00134824
2.75305e-05
-0.000123142
0.00132792
0.000221797
-0.000143365
0.00135712
0.000279452
-0.00015124
9.89061e-05
-7.84877e-05
0.00140959
0.000102372
-0.000161452
0.00140456
7.83541e-05
-0.00013413
0.00145779
0.000113087
-7.35919e-05
0.00150913
0.000219362
4.42285e-05
0.00149482
0.000310914
0.0001908
0.00148091
0.000292671
0.000195851
0.00152558
0.000161934
7.61258e-05
0.00156728
-8.56746e-05
-5.36929e-05
0.00161473
-0.000282899
-9.10801e-05
0.0016865
-0.000266835
4.67987e-05
0.001706
-0.000156244
0.000164107
0.00165357
-0.000188922
9.20209e-05
0.00162616
-0.000271763
-5.04254e-05
0.00161621
-0.000159611
-0.000126447
0.00157213
-0.000111087
-0.000112816
0.00154432
-0.000225121
-2.94761e-05
0.00159367
-0.000213675
0.000119967
0.00166039
-0.00017037
0.000148116
0.0016663
-0.000119165
8.73611e-06
0.00167773
-4.77612e-05
-1.63732e-05
0.00169109
8.18358e-05
9.57288e-05
0.00162049
0.000259873
9.70645e-05
0.00153543
0.000294004
2.72966e-05
0.00149162
0.000127876
7.75988e-05
0.00143493
-0.000185909
0.000158662
0.00136944
-0.000358072
0.000143707
0.00129711
-0.00023806
-8.37058e-06
0.00127602
-9.7428e-05
-0.000177457
0.00135013
2.17381e-05
-0.000141285
0.00145711
0.000158229
-9.05806e-06
0.00147453
0.000192248
4.35845e-06
0.00137963
-1.25747e-05
-1.3832e-05
0.00130855
-0.000150777
9.87176e-06
0.00135758
-3.70462e-05
5.90016e-05
0.00143738
-3.55352e-05
-6.71943e-06
0.0015124
-0.000158759
-0.000192648
0.00157515
-0.000129398
-0.000220114
0.00158647
6.43194e-05
-0.000101142
0.00155565
0.000195423
-7.1227e-05
0.000163443
-0.000145747
0.00162833
0.000171679
-8.91279e-05
0.00157591
0.000127407
-0.000124783
0.00159468
6.48451e-05
-9.6543e-05
0.00166807
6.68193e-05
3.59551e-05
0.00174792
0.000162294
0.00019399
0.00181323
0.000222199
0.000241223
0.00186308
0.000176181
0.000106033
0.00185426
3.84164e-06
-2.50544e-05
0.0018104
-0.000192389
-4.25563e-05