/*--------------------------------*- C++ -*----------------------------------*\
  =========                 |
  \\      /  F ield         | OpenFOAM: The Open Source CFD Toolbox
   \\    /   O peration     | Website:  https://openfoam.org
    \\  /    A nd           | Version:  10
     \\/     M anipulation  |
\*---------------------------------------------------------------------------*/
FoamFile
{
    format      ascii;
    class       volSymmTensorField;
    location    "35";
    object      UPrime2Mean;
}
// * * * * * * * * * * * * * * * * * * * * * * * * * * * * * * * * * * * * * //

dimensions      [0 2 -2 0 0 0 0];

internalField   nonuniform List<symmTensor> 
25600
(
(0.000285987 5.761e-07 -1.6082e-07 5.3393e-07 7.9282e-09 8.71028e-08)
(0.000285298 3.40853e-07 -2.91335e-07 4.66034e-07 -7.86691e-09 1.00039e-07)
(0.000285489 3.4747e-07 -1.21418e-07 5.19229e-07 -6.2957e-09 8.38349e-08)
(0.000285635 5.6995e-08 -2.30976e-07 5.49288e-07 7.65089e-09 8.63687e-08)
(0.000285065 1.46977e-07 -1.18329e-07 4.65849e-07 -2.2404e-08 9.2305e-08)
(0.000285252 2.0857e-07 -1.13438e-07 5.49199e-07 -1.31435e-08 8.26042e-08)
(0.000285044 3.40814e-07 -1.10737e-07 5.51939e-07 -1.50721e-08 9.10131e-08)
(0.000285339 5.04088e-07 -2.11495e-07 5.47811e-07 -1.13324e-08 9.61132e-08)
(0.000285952 4.92113e-07 -1.83369e-07 7.39876e-07 3.60438e-08 9.95973e-08)
(0.000285114 7.16212e-07 -1.17641e-07 6.75167e-07 5.09126e-09 9.75386e-08)
(0.000285213 6.57623e-07 -3.63693e-07 5.84505e-07 5.50275e-09 7.50811e-08)
(0.000285479 7.05519e-07 -2.56503e-07 6.46332e-07 2.0912e-08 8.9253e-08)
(0.000285046 5.12115e-07 -4.71627e-07 5.94194e-07 -4.02951e-08 1.01124e-07)
(0.000285616 5.98953e-07 -5.35916e-07 6.16704e-07 6.9868e-09 1.03626e-07)
(0.000284978 2.69674e-07 -3.99409e-07 7.0204e-07 3.56915e-08 9.34836e-08)
(0.000284413 -1.83219e-07 -4.70634e-07 6.3249e-07 1.96638e-08 9.426e-08)
(0.000285217 -1.40827e-07 -6.06632e-07 6.63859e-07 2.23069e-08 1.08446e-07)
(0.000284761 -9.40033e-07 -6.19088e-07 6.88666e-07 2.63784e-08 8.83741e-08)
(0.000284537 -9.483e-07 -4.95174e-07 6.55491e-07 5.99589e-08 1.10001e-07)
(0.000285148 -1.37894e-06 -6.48179e-07 5.5899e-07 1.10217e-08 1.07317e-07)
(0.000284852 -1.61645e-06 -5.88986e-07 5.69253e-07 3.87069e-08 8.46446e-08)
(0.000285407 -1.4493e-06 -6.48569e-07 5.21239e-07 4.78984e-08 1.01291e-07)
(0.000286277 -1.94012e-06 -7.68711e-07 5.7012e-07 1.14857e-09 8.37252e-08)
(0.00028627 -1.71521e-06 -5.33972e-07 6.44927e-07 2.72368e-08 9.79235e-08)
(0.000286678 -1.79533e-06 -6.78123e-07 4.69154e-07 1.88396e-08 1.24456e-07)
(0.000287459 -1.88155e-06 -6.36004e-07 5.67709e-07 2.40728e-08 1.0332e-07)
(0.000288025 -1.77126e-06 -3.64666e-07 6.61897e-07 3.29555e-08 9.78866e-08)
(0.000288425 -1.65368e-06 -4.96516e-07 4.99979e-07 -2.30535e-09 1.13674e-07)
(0.000289307 -1.57781e-06 -3.67839e-07 5.64757e-07 1.21416e-08 1.03607e-07)
(0.000289636 -1.58784e-06 -2.53432e-07 5.78822e-07 2.26089e-08 1.07882e-07)
(0.000289889 -1.37237e-06 -8.59974e-08 4.57743e-07 8.4092e-09 1.06705e-07)
(0.000290232 -1.40305e-06 -2.67998e-07 5.44191e-07 5.70438e-08 1.29146e-07)
(0.000290148 -1.25903e-06 -1.18061e-07 5.2403e-07 3.06937e-08 1.4375e-07)
(0.000290083 -1.02241e-06 -2.79452e-09 4.268e-07 2.66521e-08 1.271e-07)
(0.000289141 -6.1558e-07 -1.88188e-07 5.44982e-07 6.80075e-08 1.26212e-07)
(0.000289012 -1.85965e-07 2.66383e-08 4.55231e-07 4.40481e-08 1.33512e-07)
(0.000288293 -2.29389e-07 -9.32404e-08 3.47448e-07 2.06041e-08 1.32778e-07)
(0.000287177 1.37716e-07 -1.34388e-07 4.65981e-07 5.91716e-09 9.98247e-08)
(0.000286881 4.49114e-07 -1.90411e-07 4.24591e-07 1.45466e-08 9.80312e-08)
(0.000286274 4.74105e-07 -8.28222e-08 4.34828e-07 -2.10486e-09 9.71942e-08)
(0.000285948 1.92727e-07 -3.96977e-07 6.58693e-07 2.22707e-08 1.01283e-07)
(0.000285347 -1.16446e-07 -5.3981e-07 5.05664e-07 1.5678e-08 1.15988e-07)
(0.000285342 -1.45362e-07 -4.3223e-07 5.84125e-07 1.38428e-09 1.01705e-07)
(0.00028547 -5.61881e-07 -4.74154e-07 7.05507e-07 5.90447e-09 1.08873e-07)
(0.000285303 -4.84569e-07 -4.2192e-07 5.9871e-07 -1.38771e-08 1.13052e-07)
(0.000285436 -3.82093e-07 -3.80089e-07 7.7682e-07 -2.19659e-08 9.907e-08)
(0.000285468 -2.31402e-07 -3.54347e-07 8.08204e-07 -2.65253e-08 1.14361e-07)
(0.000285813 1.54857e-09 -4.96012e-07 7.12941e-07 -6.68158e-09 1.29439e-07)
(0.000286298 6.93207e-08 -4.22467e-07 9.35562e-07 3.6505e-08 1.35644e-07)
(0.000285502 6.38721e-08 -3.49382e-07 9.35811e-07 7.70268e-09 1.3888e-07)
(0.000285543 3.18766e-07 -6.12099e-07 8.08313e-07 4.08366e-08 1.03305e-07)
(0.000285434 3.26744e-07 -5.22524e-07 8.70885e-07 5.90585e-08 1.32506e-07)
(0.000285081 1.53167e-07 -7.06674e-07 9.63306e-07 -1.45172e-08 1.4714e-07)
(0.000285537 3.56814e-07 -7.93648e-07 9.16359e-07 2.38811e-08 1.25391e-07)
(0.000284389 -3.29012e-07 -7.94045e-07 8.65011e-07 5.61568e-09 1.09931e-07)
(0.000284199 -5.60862e-07 -7.18325e-07 8.8323e-07 2.6096e-08 9.24669e-08)
(0.00028453 -6.72213e-07 -9.7105e-07 8.82918e-07 5.5338e-09 1.01641e-07)
(0.000284188 -1.55656e-06 -8.75196e-07 8.56352e-07 1.10353e-08 8.6915e-08)
(0.000284184 -1.55848e-06 -7.19451e-07 8.59402e-07 7.22186e-08 1.10636e-07)
(0.000284411 -2.25033e-06 -8.65858e-07 7.40497e-07 -4.15472e-10 1.1064e-07)
(0.000284868 -2.4713e-06 -8.14168e-07 7.54712e-07 5.12209e-08 8.7658e-08)
(0.000285116 -2.41006e-06 -7.92109e-07 7.07837e-07 7.07056e-08 1.02842e-07)
(0.000286003 -2.9442e-06 -9.21384e-07 7.80875e-07 3.33128e-08 9.55838e-08)
(0.000286518 -2.71852e-06 -7.29465e-07 8.95859e-07 5.19325e-08 1.0667e-07)
(0.000286673 -2.89131e-06 -8.7694e-07 6.58353e-07 4.49142e-08 1.18709e-07)
(0.000287687 -2.97719e-06 -8.30981e-07 7.08131e-07 5.18887e-08 1.10415e-07)
(0.000288412 -2.87036e-06 -5.57094e-07 8.38824e-07 5.83275e-08 1.15991e-07)
(0.00028877 -2.86695e-06 -6.88313e-07 7.23142e-07 2.80136e-08 1.23714e-07)
(0.000289554 -2.66711e-06 -5.31395e-07 7.71794e-07 2.53565e-08 1.00591e-07)
(0.000290088 -2.74462e-06 -4.06378e-07 8.06211e-07 3.57938e-08 1.10872e-07)
(0.00029039 -2.29492e-06 -3.23558e-07 6.2745e-07 2.53708e-08 1.11664e-07)
(0.000290534 -2.26367e-06 -4.70953e-07 7.28917e-07 5.19229e-08 1.39349e-07)
(0.000290747 -2.10981e-06 -2.79116e-07 7.82797e-07 -1.23551e-09 1.41714e-07)
(0.000290891 -1.59856e-06 -2.16458e-07 6.19755e-07 8.54493e-09 1.14642e-07)
(0.000290158 -1.15203e-06 -4.089e-07 7.05387e-07 4.75983e-08 1.22965e-07)
(0.000289614 -5.69321e-07 -2.39281e-07 5.43864e-07 5.06663e-08 1.29634e-07)
(0.000288612 -6.29177e-07 -2.79601e-07 4.44078e-07 1.80357e-08 1.40818e-07)
(0.000287802 -9.41916e-08 -3.69695e-07 5.86415e-07 -8.92065e-09 1.05153e-07)
(0.000287315 1.34065e-07 -4.52539e-07 5.39178e-07 1.90923e-08 1.13257e-07)
(0.000286493 1.87229e-07 -3.69776e-07 5.50745e-07 -4.62665e-09 1.18811e-07)
(0.000285857 -3.3602e-07 -6.59112e-07 1.0547e-06 9.58088e-09 1.54169e-07)
(0.000285186 -7.39804e-07 -8.36337e-07 8.28052e-07 9.2042e-09 1.7486e-07)
(0.000285005 -9.86858e-07 -7.8309e-07 9.46188e-07 -1.49849e-08 1.76509e-07)
(0.000285313 -1.46632e-06 -7.96977e-07 1.04869e-06 1.83466e-08 1.80934e-07)
(0.000285592 -1.47588e-06 -8.06035e-07 9.02028e-07 1.90562e-08 1.81608e-07)
(0.000285757 -1.237e-06 -7.30893e-07 1.20867e-06 -3.57506e-08 1.66884e-07)
(0.000286052 -9.97045e-07 -6.77234e-07 1.1602e-06 -2.89733e-08 1.84773e-07)
(0.000286594 -7.50095e-07 -8.2616e-07 1.00965e-06 -1.46069e-08 2.14216e-07)
(0.000286808 -4.67093e-07 -6.94836e-07 1.21175e-06 -2.30522e-09 2.16135e-07)
(0.00028612 -6.80089e-07 -6.46277e-07 1.23469e-06 -2.29466e-08 2.05801e-07)
(0.000286194 -2.4868e-07 -9.00108e-07 1.172e-06 3.04524e-08 1.49846e-07)
(0.000285635 -2.17468e-07 -8.42036e-07 1.25476e-06 6.33042e-08 2.02239e-07)
(0.000285494 -1.68729e-07 -9.93811e-07 1.45898e-06 -1.34219e-09 2.283e-07)
(0.000285509 -1.22041e-07 -1.13725e-06 1.34499e-06 3.61964e-08 1.86286e-07)
(0.000284094 -1.04036e-06 -1.28922e-06 1.24894e-06 -1.09254e-08 1.67249e-07)
(0.000284119 -1.06027e-06 -1.18243e-06 1.45015e-06 3.50379e-08 1.36878e-07)
(0.000283827 -1.55065e-06 -1.42854e-06 1.2978e-06 1.06345e-08 1.4767e-07)
(0.000283793 -2.18409e-06 -1.28819e-06 1.26703e-06 2.07723e-10 1.43938e-07)
(0.000283746 -2.55485e-06 -1.09992e-06 1.27804e-06 5.45991e-08 1.58581e-07)
(0.000283761 -3.41128e-06 -1.2225e-06 1.10401e-06 -5.94594e-09 1.56649e-07)
(0.000284824 -3.6122e-06 -1.16884e-06 1.10468e-06 5.19453e-08 1.33778e-07)
(0.000284872 -3.84888e-06 -1.05706e-06 1.0281e-06 6.64719e-08 1.4322e-07)
(0.000286013 -4.14396e-06 -1.18337e-06 1.23058e-06 5.42529e-08 1.51776e-07)
(0.000286814 -3.98327e-06 -1.1214e-06 1.27642e-06 6.84794e-08 1.45088e-07)
(0.000286678 -4.35734e-06 -1.19729e-06 1.05126e-06 6.76288e-08 1.46565e-07)
(0.000287941 -4.2713e-06 -1.09912e-06 1.18672e-06 6.36864e-08 1.68764e-07)
(0.000288695 -4.27081e-06 -8.76829e-07 1.24423e-06 6.72434e-08 1.7486e-07)
(0.000289189 -4.40883e-06 -9.16189e-07 1.23816e-06 3.77855e-08 1.52253e-07)
(0.000289989 -4.03738e-06 -7.26536e-07 1.31833e-06 3.03497e-08 1.25003e-07)
(0.000290752 -4.13597e-06 -6.17912e-07 1.31038e-06 4.45887e-08 1.63234e-07)
(0.000291156 -3.50917e-06 -6.30893e-07 1.08367e-06 3.54247e-08 1.60308e-07)
(0.000290984 -3.43226e-06 -6.37352e-07 1.24594e-06 4.29248e-08 1.7599e-07)
(0.00029164 -3.19162e-06 -4.90443e-07 1.37343e-06 -2.74793e-08 1.64914e-07)
(0.000292 -2.47146e-06 -4.59786e-07 1.11461e-06 -1.13687e-08 1.40293e-07)
(0.000291339 -1.87645e-06 -5.6122e-07 1.02541e-06 7.39704e-09 1.6219e-07)
(0.000290306 -1.27859e-06 -5.21537e-07 8.2037e-07 3.36759e-08 1.51593e-07)
(0.000289154 -1.18248e-06 -4.71356e-07 7.86946e-07 -2.1527e-09 1.65704e-07)
(0.000288568 -4.34776e-07 -6.03136e-07 9.76026e-07 -4.39918e-08 1.42897e-07)
(0.000287704 -3.10981e-07 -7.22492e-07 9.07372e-07 -1.43299e-09 1.59119e-07)
(0.000286713 -2.19015e-07 -6.70639e-07 8.7968e-07 -2.36533e-08 1.69843e-07)
(0.000285749 -1.21176e-06 -1.05421e-06 1.76557e-06 1.20695e-08 2.66785e-07)
(0.000284873 -1.78672e-06 -1.24402e-06 1.52811e-06 1.00333e-10 2.77084e-07)
(0.000284623 -2.33597e-06 -1.25003e-06 1.67678e-06 -2.10939e-08 3.04489e-07)
(0.00028521 -2.89836e-06 -1.29972e-06 1.6571e-06 4.37353e-08 3.04954e-07)
(0.000285991 -2.98371e-06 -1.38202e-06 1.6089e-06 6.74439e-08 2.91579e-07)
(0.000286416 -2.5035e-06 -1.25804e-06 1.98797e-06 -4.36228e-08 2.82608e-07)
(0.000286836 -2.17519e-06 -1.16268e-06 1.80902e-06 -6.61375e-09 3.02458e-07)
(0.000287621 -1.85422e-06 -1.32246e-06 1.68854e-06 1.83505e-09 3.51804e-07)
(0.000287543 -1.33696e-06 -1.15283e-06 1.78163e-06 -3.5668e-08 3.4309e-07)
(0.000286836 -1.67891e-06 -1.14154e-06 1.84148e-06 -6.09458e-08 3.00115e-07)
(0.000286999 -1.16285e-06 -1.37855e-06 1.9479e-06 -2.66409e-09 2.29768e-07)
(0.000286272 -9.20062e-07 -1.29948e-06 2.03136e-06 4.65939e-08 3.13754e-07)
(0.000286185 -6.70851e-07 -1.45713e-06 2.21251e-06 -8.63503e-09 3.4807e-07)
(0.00028547 -1.00268e-06 -1.67066e-06 2.07504e-06 4.40121e-08 2.92534e-07)
(0.000284067 -1.8296e-06 -1.9412e-06 2.08008e-06 -7.34726e-09 2.71632e-07)
(0.000284017 -1.86965e-06 -1.91156e-06 2.42444e-06 4.32728e-08 2.36582e-07)
(0.00028337 -2.69537e-06 -2.06884e-06 2.10996e-06 4.98554e-08 2.58194e-07)
(0.000283588 -2.99835e-06 -1.93965e-06 2.15677e-06 -4.23123e-09 2.72217e-07)
(0.000283138 -3.9731e-06 -1.73484e-06 2.13829e-06 2.77694e-08 2.75202e-07)
(0.000283263 -4.87337e-06 -1.78874e-06 1.88169e-06 3.83824e-08 2.70379e-07)
(0.000284671 -5.1589e-06 -1.6627e-06 1.78132e-06 6.02116e-08 2.62331e-07)
(0.000284843 -5.68025e-06 -1.51815e-06 1.76673e-06 3.46287e-08 2.57584e-07)
(0.00028646 -5.59203e-06 -1.65923e-06 2.16357e-06 6.73158e-08 2.7552e-07)
(0.000287116 -5.65449e-06 -1.71601e-06 1.98981e-06 8.25488e-08 2.52585e-07)
(0.000286822 -6.17675e-06 -1.66525e-06 1.89862e-06 1.01198e-07 2.54934e-07)
(0.000288308 -5.85208e-06 -1.51022e-06 2.20248e-06 8.5629e-08 3.16069e-07)
(0.000288967 -6.16777e-06 -1.33816e-06 2.0495e-06 8.2887e-08 3.01698e-07)
(0.000289828 -6.34065e-06 -1.20716e-06 2.18675e-06 5.07408e-08 2.45638e-07)
(0.000290734 -5.89298e-06 -9.44339e-07 2.35323e-06 5.88454e-08 2.33534e-07)
(0.000291688 -5.858e-06 -9.07484e-07 2.10034e-06 6.65469e-08 3.06036e-07)
(0.000292077 -5.24977e-06 -1.01882e-06 1.94951e-06 4.82805e-08 2.98497e-07)
(0.000291762 -5.13334e-06 -8.12496e-07 2.30526e-06 4.31783e-08 2.78894e-07)
(0.000292998 -4.80247e-06 -7.63127e-07 2.32037e-06 -1.65694e-08 2.45686e-07)
(0.000293516 -3.97458e-06 -7.23153e-07 1.93705e-06 5.00375e-10 2.41203e-07)
(0.000292771 -3.06318e-06 -7.27409e-07 1.58653e-06 -2.33127e-08 2.83844e-07)
(0.000291251 -2.50251e-06 -8.56415e-07 1.39442e-06 2.92284e-08 2.31739e-07)
(0.000290079 -2.0264e-06 -7.03925e-07 1.50448e-06 5.05114e-09 2.42262e-07)
(0.000289537 -1.17375e-06 -9.38747e-07 1.65636e-06 -4.58201e-08 2.49538e-07)
(0.000288257 -1.11123e-06 -1.10196e-06 1.50289e-06 -1.55377e-09 2.57167e-07)
(0.000287042 -8.9355e-07 -1.06573e-06 1.5399e-06 1.77787e-09 2.67595e-07)
(0.000285708 -2.51882e-06 -1.77022e-06 3.09736e-06 1.17526e-07 4.83121e-07)
(0.000284489 -3.40288e-06 -1.97605e-06 2.87557e-06 8.44445e-08 4.43619e-07)
(0.000284262 -4.31428e-06 -2.07533e-06 3.0056e-06 7.94409e-08 5.05998e-07)
(0.000285308 -5.0535e-06 -2.22611e-06 2.89949e-06 1.24486e-07 5.14485e-07)
(0.000286687 -5.1342e-06 -2.38837e-06 3.13081e-06 1.59476e-07 4.63779e-07)
(0.000287477 -4.31299e-06 -2.17138e-06 3.37626e-06 2.65941e-09 4.73361e-07)
(0.000287889 -3.88697e-06 -2.05105e-06 3.05613e-06 6.02854e-08 5.07704e-07)
(0.00028891 -3.38328e-06 -2.26294e-06 3.02435e-06 9.82569e-08 5.70578e-07)
(0.000288523 -2.69995e-06 -2.04775e-06 2.9721e-06 6.06031e-09 5.4666e-07)
(0.000287765 -3.05328e-06 -2.08692e-06 3.1981e-06 -4.05465e-08 4.70775e-07)
(0.000288216 -2.42975e-06 -2.27965e-06 3.58208e-06 5.83854e-08 4.08088e-07)
(0.000287383 -1.93696e-06 -2.11404e-06 3.64891e-06 1.17965e-07 5.22711e-07)
(0.000286988 -1.49297e-06 -2.30744e-06 3.72717e-06 4.78115e-08 5.63381e-07)
(0.000285739 -2.1436e-06 -2.6074e-06 3.70228e-06 1.16644e-07 5.11831e-07)
(0.000284559 -2.88927e-06 -2.9629e-06 3.79136e-06 4.53129e-08 4.85634e-07)
(0.000284083 -3.33771e-06 -2.99798e-06 3.99718e-06 7.5344e-08 4.39511e-07)
(0.000283278 -4.18311e-06 -3.07494e-06 3.6945e-06 1.07439e-07 4.73294e-07)
(0.000283592 -4.11677e-06 -2.94722e-06 3.95059e-06 -2.63466e-08 5.2575e-07)
(0.000282661 -5.77963e-06 -2.73204e-06 3.75114e-06 3.82915e-08 5.14629e-07)
(0.000282979 -6.8611e-06 -2.62892e-06 3.25105e-06 1.95969e-07 5.07705e-07)
(0.000284355 -7.32837e-06 -2.39289e-06 2.98728e-06 1.35163e-07 5.53153e-07)
(0.000285049 -7.93303e-06 -2.29966e-06 3.26581e-06 3.80503e-08 5.07088e-07)
(0.000287306 -7.44537e-06 -2.45395e-06 3.75227e-06 1.44521e-07 5.17085e-07)
(0.000287579 -7.83164e-06 -2.52941e-06 3.30897e-06 1.42351e-07 5.09109e-07)
(0.00028726 -8.25289e-06 -2.32224e-06 3.58073e-06 1.74402e-07 5.10016e-07)
(0.000288715 -7.8168e-06 -2.0648e-06 4.03334e-06 1.30249e-07 5.89615e-07)
(0.000289286 -8.4619e-06 -1.87873e-06 3.57358e-06 1.07321e-07 5.3851e-07)
(0.00029076 -8.5866e-06 -1.50813e-06 3.96462e-06 1.06788e-07 4.64891e-07)
(0.000291918 -8.25906e-06 -1.16538e-06 4.18975e-06 1.35616e-07 4.88169e-07)
(0.000292801 -7.94305e-06 -1.3027e-06 3.46285e-06 8.7244e-08 5.745e-07)
(0.000292916 -7.42944e-06 -1.51612e-06 3.85689e-06 7.01784e-08 5.69823e-07)
(0.000292884 -7.26823e-06 -1.02393e-06 4.39576e-06 9.94781e-08 4.982e-07)
(0.00029472 -7.17475e-06 -1.01747e-06 3.98915e-06 4.07936e-08 4.18796e-07)
(0.000295327 -6.42565e-06 -9.12191e-07 3.66438e-06 2.29068e-08 4.55133e-07)
(0.00029438 -4.98846e-06 -9.36081e-07 2.9506e-06 -2.92292e-08 5.24051e-07)
(0.000292522 -4.29912e-06 -1.25396e-06 2.72893e-06 8.62329e-08 4.01166e-07)
(0.000291478 -3.34953e-06 -1.0514e-06 3.06226e-06 1.18572e-07 4.19649e-07)
(0.000290853 -2.54976e-06 -1.51087e-06 3.00512e-06 6.06608e-08 4.59586e-07)
(0.000289227 -2.27458e-06 -1.78493e-06 2.7823e-06 1.06109e-07 4.38389e-07)
(0.000287584 -1.80339e-06 -1.74624e-06 3.03693e-06 1.75423e-07 4.61668e-07)
(0.000284955 -4.14839e-06 -3.02296e-06 6.24675e-06 5.4464e-07 9.07778e-07)
(0.000283422 -5.39703e-06 -3.30612e-06 5.99125e-06 5.23132e-07 7.97249e-07)
(0.000283143 -6.85635e-06 -3.55314e-06 5.93078e-06 4.99156e-07 9.17198e-07)
(0.000284636 -7.80975e-06 -3.9388e-06 5.82526e-06 4.01057e-07 9.38282e-07)
(0.000286754 -7.7951e-06 -4.20177e-06 6.42741e-06 4.72362e-07 8.40241e-07)
(0.000288127 -6.69481e-06 -3.83231e-06 6.12906e-06 2.59837e-07 8.78134e-07)
(0.000288515 -6.27158e-06 -3.70565e-06 5.62904e-06 2.99412e-07 9.33775e-07)
(0.000289719 -5.36818e-06 -3.9684e-06 5.69259e-06 3.49336e-07 9.90982e-07)
(0.000289328 -4.67379e-06 -3.69429e-06 5.59987e-06 1.61861e-07 9.49768e-07)
(0.000288954 -4.69743e-06 -3.78295e-06 6.0829e-06 9.7274e-08 8.72501e-07)
(0.000289907 -3.99833e-06 -3.88947e-06 6.6779e-06 2.8872e-07 8.3923e-07)
(0.000289204 -3.40144e-06 -3.659e-06 6.70697e-06 3.25462e-07 9.7855e-07)
(0.00028848 -2.81903e-06 -3.90691e-06 6.58925e-06 2.26036e-07 1.01404e-06)
(0.000286489 -3.62548e-06 -4.28045e-06 6.80849e-06 3.33054e-07 1.01536e-06)
(0.000285202 -4.30425e-06 -4.60701e-06 6.91986e-06 1.99723e-07 9.809e-07)
(0.000284428 -5.42081e-06 -4.7066e-06 6.62323e-06 1.65169e-07 8.77876e-07)
(0.000283881 -6.26112e-06 -4.76008e-06 6.73444e-06 1.46488e-07 9.31649e-07)
(0.00028387 -5.74357e-06 -4.60609e-06 7.389e-06 -1.11144e-07 1.07416e-06)
(0.00028205 -8.05557e-06 -4.19799e-06 6.80139e-06 1.90452e-08 1.05461e-06)
(0.000282357 -9.55154e-06 -3.6913e-06 5.79714e-06 3.8863e-07 1.05172e-06)
(0.000283527 -1.02598e-05 -3.26845e-06 5.32406e-06 2.32683e-07 1.18145e-06)
(0.000285001 -1.06906e-05 -3.37407e-06 6.05718e-06 4.73499e-08 1.03258e-06)
(0.000287865 -1.00456e-05 -3.53698e-06 6.49546e-06 2.27395e-07 1.03742e-06)
(0.000287551 -1.06281e-05 -3.46823e-06 6.11366e-06 1.81245e-07 1.10226e-06)
(0.000287198 -1.06814e-05 -2.96818e-06 7.03763e-06 1.85517e-07 1.07572e-06)
(0.000288455 -1.0308e-05 -2.57823e-06 7.42634e-06 6.90632e-08 1.16326e-06)
(0.00028883 -1.12116e-05 -2.27295e-06 6.74922e-06 6.12772e-08 1.08852e-06)
(0.000290623 -1.12608e-05 -1.51299e-06 7.46186e-06 1.31474e-07 1.03512e-06)
(0.000291794 -1.13199e-05 -1.09876e-06 7.571e-06 1.03999e-07 1.09652e-06)
(0.00029241 -1.05004e-05 -1.6076e-06 6.57192e-06 -2.31679e-08 1.13477e-06)
(0.000292192 -9.83677e-06 -1.90404e-06 8.1916e-06 7.35573e-08 1.17189e-06)
(0.000292453 -9.74136e-06 -1.05909e-06 8.41266e-06 2.7419e-07 1.04784e-06)
(0.000294147 -1.03782e-05 -1.02411e-06 7.3503e-06 1.64313e-07 8.43914e-07)
(0.000294568 -9.73281e-06 -8.57547e-07 7.52545e-06 5.67604e-08 9.40097e-07)
(0.000293811 -7.78477e-06 -1.0868e-06 6.44437e-06 2.79671e-08 1.03934e-06)
(0.000292051 -6.8219e-06 -1.65088e-06 6.11152e-06 2.9771e-07 8.11586e-07)
(0.000291489 -5.46933e-06 -1.63641e-06 6.70198e-06 4.46261e-07 8.53353e-07)
(0.000291367 -4.64197e-06 -2.57765e-06 6.28753e-06 4.50982e-07 8.63962e-07)
(0.000289977 -3.87473e-06 -3.05666e-06 6.15349e-06 5.92327e-07 8.28338e-07)
(0.000287577 -3.04704e-06 -2.95399e-06 6.76001e-06 7.41995e-07 8.86797e-07)
(0.000278693 -4.59783e-06 -5.24671e-06 1.34338e-05 1.84548e-06 1.88794e-06)
(0.000276893 -6.03513e-06 -5.65834e-06 1.33582e-05 1.88918e-06 1.75876e-06)
(0.000275996 -7.73992e-06 -6.14967e-06 1.30809e-05 1.6846e-06 1.91706e-06)
(0.000277357 -8.93479e-06 -6.93737e-06 1.30362e-05 1.23994e-06 1.9239e-06)
(0.000279574 -8.75977e-06 -7.21495e-06 1.37131e-05 1.37102e-06 1.78313e-06)
(0.000281807 -7.98176e-06 -6.73099e-06 1.18478e-05 1.08684e-06 1.88841e-06)
(0.000282815 -8.00289e-06 -6.7565e-06 1.06839e-05 1.07084e-06 1.97065e-06)
(0.000284346 -7.07543e-06 -7.0029e-06 1.12531e-05 1.11944e-06 1.98563e-06)
(0.000285104 -6.4749e-06 -6.74373e-06 1.18558e-05 8.74886e-07 1.95878e-06)
(0.000286275 -6.0251e-06 -6.90667e-06 1.29023e-05 8.50762e-07 1.93094e-06)
(0.000287759 -5.52637e-06 -6.80048e-06 1.42306e-05 1.19004e-06 1.93228e-06)
(0.000286996 -4.52817e-06 -6.44502e-06 1.4646e-05 1.13786e-06 2.04716e-06)
(0.000286245 -3.20554e-06 -6.63078e-06 1.44993e-05 8.71937e-07 2.05423e-06)
(0.000283911 -4.01246e-06 -6.95869e-06 1.52121e-05 8.93259e-07 2.22238e-06)
(0.000282009 -5.18688e-06 -7.12197e-06 1.45422e-05 5.17047e-07 2.22511e-06)
(0.000280386 -7.21377e-06 -7.31403e-06 1.303e-05 2.60379e-07 2.00272e-06)
(0.000279592 -7.65246e-06 -7.45685e-06 1.39498e-05 1.66344e-07 2.13194e-06)
(0.000279269 -6.34362e-06 -7.29525e-06 1.48048e-05 -2.21173e-07 2.5234e-06)
(0.000276478 -9.257e-06 -6.58223e-06 1.34337e-05 -5.53395e-08 2.58115e-06)
(0.000275622 -1.18109e-05 -5.37855e-06 1.1178e-05 5.57709e-07 2.60309e-06)
(0.00027606 -1.27905e-05 -4.62767e-06 1.02412e-05 3.23247e-07 2.79017e-06)
(0.000277852 -1.26756e-05 -5.01893e-06 1.18181e-05 3.7731e-08 2.53529e-06)
(0.0002808 -1.20547e-05 -5.22527e-06 1.2478e-05 1.67149e-07 2.63541e-06)
(0.000279785 -1.25561e-05 -4.84706e-06 1.2801e-05 -1.68981e-07 2.78099e-06)
(0.000279111 -1.17739e-05 -3.64688e-06 1.46496e-05 -4.37905e-07 2.73526e-06)
(0.000279471 -1.13851e-05 -2.93435e-06 1.48416e-05 -6.55551e-07 2.93763e-06)
(0.000278546 -1.21209e-05 -2.58315e-06 1.43658e-05 -7.30616e-07 2.93427e-06)
(0.000279111 -1.19306e-05 -1.65765e-06 1.58299e-05 -7.13684e-07 3.04916e-06)
(0.000277949 -1.23357e-05 -1.53277e-06 1.60521e-05 -9.81783e-07 3.0868e-06)
(0.000278137 -1.0788e-05 -2.70041e-06 1.5539e-05 -1.23803e-06 2.97524e-06)
(0.000278498 -8.89557e-06 -3.1957e-06 1.91577e-05 -8.65064e-07 3.11066e-06)
(0.00027757 -9.75642e-06 -2.10209e-06 1.78592e-05 -1.84512e-08 2.77474e-06)
(0.000276321 -1.14757e-05 -1.90237e-06 1.60679e-05 -7.57829e-08 2.18443e-06)
(0.000275477 -9.49116e-06 -2.08401e-06 1.74031e-05 -2.00829e-07 2.31905e-06)
(0.000275743 -6.95359e-06 -2.96745e-06 1.52162e-05 1.40396e-07 2.39353e-06)
(0.000276091 -5.89894e-06 -3.63202e-06 1.43011e-05 7.70521e-07 2.02423e-06)
(0.000277924 -4.68892e-06 -3.89339e-06 1.54139e-05 1.22931e-06 2.026e-06)
(0.000279793 -4.68895e-06 -4.8839e-06 1.46885e-05 1.66966e-06 1.87649e-06)
(0.000280783 -4.30042e-06 -5.34624e-06 1.44829e-05 2.1606e-06 1.88639e-06)
(0.000280432 -3.23653e-06 -5.08459e-06 1.51157e-05 2.28618e-06 1.92317e-06)
(0.000265706 3.23663e-06 -6.78996e-06 2.87529e-05 4.4356e-06 4.18574e-06)
(0.000266642 4.40969e-06 -6.95494e-06 3.00325e-05 4.50057e-06 4.17886e-06)
(0.000266929 3.73938e-06 -7.54584e-06 2.90765e-05 3.98681e-06 4.47455e-06)
(0.000266359 1.6848e-06 -8.85337e-06 2.8582e-05 3.23236e-06 4.58928e-06)
(0.000267297 1.79388e-06 -8.54348e-06 2.89461e-05 3.48339e-06 4.48276e-06)
(0.000268048 4.14857e-09 -8.27526e-06 2.452e-05 3.03796e-06 4.65438e-06)
(0.000265169 -2.5342e-06 -8.20992e-06 2.2273e-05 2.89695e-06 4.63049e-06)
(0.000263514 -1.96558e-06 -8.16166e-06 2.40229e-05 2.88339e-06 4.60762e-06)
(0.000264269 -8.40031e-07 -8.54834e-06 2.56375e-05 2.7661e-06 4.99359e-06)
(0.000266073 -5.55128e-07 -8.81441e-06 2.68086e-05 3.05774e-06 5.30675e-06)
(0.000266101 -9.02248e-07 -8.34631e-06 2.87854e-05 3.8485e-06 5.39133e-06)
(0.000264926 2.15917e-07 -8.12617e-06 2.94489e-05 3.93841e-06 5.44197e-06)
(0.000264817 1.3179e-06 -8.47103e-06 2.95468e-05 3.36306e-06 5.34595e-06)
(0.00026192 1.08059e-06 -8.51797e-06 3.16522e-05 3.08045e-06 5.77541e-06)
(0.000259353 -3.97096e-07 -8.42419e-06 3.02934e-05 2.08246e-06 5.88804e-06)
(0.000256778 -3.63463e-06 -8.76442e-06 2.77616e-05 9.41501e-07 5.46478e-06)
(0.000253804 -3.12606e-06 -9.05624e-06 3.08237e-05 5.85544e-07 5.83763e-06)
(0.000253407 3.96634e-07 -8.55687e-06 3.26378e-05 -2.14985e-07 6.89346e-06)
(0.000251473 -1.47203e-06 -7.30177e-06 3.06766e-05 -4.00619e-07 7.35013e-06)
(0.000248108 -5.72366e-06 -5.29472e-06 2.57134e-05 4.70513e-07 7.53298e-06)
(0.000247063 -6.57366e-06 -4.73176e-06 2.39216e-05 1.6567e-07 7.81451e-06)
(0.000249049 -3.32408e-06 -5.66869e-06 2.75631e-05 -1.1871e-07 7.69953e-06)
(0.00025039 -9.32455e-07 -6.41939e-06 3.00894e-05 -7.1352e-07 8.47068e-06)
(0.000251206 1.71364e-06 -6.56289e-06 3.23853e-05 -2.42324e-06 9.09874e-06)
(0.000255443 5.45933e-06 -5.36992e-06 3.50632e-05 -3.58578e-06 9.22613e-06)
(0.000258389 7.45997e-06 -5.35713e-06 3.45876e-05 -3.81195e-06 9.73601e-06)
(0.000261971 1.07657e-05 -6.13066e-06 3.50325e-05 -3.73866e-06 1.00446e-05)
(0.000267167 1.53719e-05 -6.53838e-06 3.78173e-05 -3.85034e-06 1.04738e-05)
(0.000268591 1.76012e-05 -8.49645e-06 3.82137e-05 -4.18854e-06 9.4661e-06)
(0.000280164 2.28259e-05 -1.05714e-05 3.9618e-05 -4.47591e-06 8.70921e-06)
(0.000296898 3.02311e-05 -1.20954e-05 4.53226e-05 -3.24875e-06 7.98062e-06)
(0.000299749 2.6642e-05 -1.08901e-05 4.04361e-05 -4.69548e-08 5.86855e-06)
(0.000306172 2.78224e-05 -8.97351e-06 3.96186e-05 1.11492e-06 4.52647e-06)
(0.000327464 3.792e-05 -8.52008e-06 4.31627e-05 1.69342e-06 4.60902e-06)
(0.000343732 3.84368e-05 -8.30746e-06 3.89611e-05 2.40575e-06 4.6291e-06)
(0.000349831 3.7395e-05 -7.69446e-06 3.76158e-05 3.17105e-06 4.35869e-06)
(0.000335972 3.393e-05 -6.36179e-06 3.90543e-05 4.26427e-06 4.28229e-06)
(0.000302371 2.11401e-05 -2.93616e-06 3.63376e-05 6.15341e-06 4.28631e-06)
(0.000274592 8.13155e-06 -3.23034e-06 3.33319e-05 6.55911e-06 4.50032e-06)
(0.000266481 4.88465e-06 -5.16509e-06 3.16804e-05 5.52046e-06 4.22515e-06)
(0.000302941 3.11847e-05 -6.53427e-06 5.87483e-05 6.80228e-06 1.28184e-05)
(0.000308506 3.92253e-05 -4.23365e-06 6.23668e-05 7.96409e-06 1.18854e-05)
(0.000315157 4.27821e-05 -3.41741e-06 6.13465e-05 8.40278e-06 1.25456e-05)
(0.00030941 4.14065e-05 -3.07498e-06 5.9743e-05 8.15296e-06 1.34643e-05)
(0.0003092 4.37233e-05 -1.86905e-06 5.97073e-05 8.07808e-06 1.42278e-05)
(0.000297029 3.70349e-05 -2.97653e-06 5.12622e-05 6.88664e-06 1.46957e-05)
(0.000275867 3.02087e-05 -8.21995e-07 4.77998e-05 6.97608e-06 1.40462e-05)
(0.000266239 3.54386e-05 2.00622e-06 5.43186e-05 7.41429e-06 1.44157e-05)
(0.000268889 4.21937e-05 4.44153e-06 5.88205e-05 8.50734e-06 1.66491e-05)
(0.000274139 4.37527e-05 7.91728e-06 6.0239e-05 1.08332e-05 1.79216e-05)
(0.000272685 4.50541e-05 1.11129e-05 6.30295e-05 1.30021e-05 1.80897e-05)
(0.000274234 4.60304e-05 1.11763e-05 6.23498e-05 1.30646e-05 1.7617e-05)
(0.000273762 4.44913e-05 8.86797e-06 6.1568e-05 1.08779e-05 1.70985e-05)
(0.000276161 4.67788e-05 8.07551e-06 6.37423e-05 9.11214e-06 1.78621e-05)
(0.000277846 4.37273e-05 6.80395e-06 5.83714e-05 6.06331e-06 1.77453e-05)
(0.000275971 3.86702e-05 4.10349e-06 5.40968e-05 3.04277e-06 1.68985e-05)
(0.000281327 4.46395e-05 3.55767e-06 6.01464e-05 2.98794e-06 1.82867e-05)
(0.000295383 5.34372e-05 4.64945e-06 6.42602e-05 2.17958e-06 2.1127e-05)
(0.000308066 5.67825e-05 5.26873e-06 6.41633e-05 9.79559e-07 2.22575e-05)
(0.000315729 5.60684e-05 5.67097e-06 6.03248e-05 3.54114e-07 2.24997e-05)
(0.000339463 6.26446e-05 1.87265e-06 6.02553e-05 -1.76392e-06 2.33896e-05)
(0.000380569 7.82328e-05 -1.18557e-06 6.73933e-05 -2.25487e-06 2.52165e-05)
(0.000420326 9.3571e-05 -1.96281e-06 7.34504e-05 -2.40663e-06 2.79398e-05)
(0.000475255 0.000108761 -2.02662e-06 7.72219e-05 -3.26389e-06 2.91053e-05)
(0.000522602 0.00011507 -2.31292e-06 7.76644e-05 -3.74969e-06 2.73153e-05)
(0.000558316 0.000117329 -2.62885e-06 7.32835e-05 -1.819e-06 2.40702e-05)
(0.000620234 0.000131095 3.11474e-06 7.32045e-05 1.85248e-06 2.27532e-05)
(0.00068668 0.000145313 7.47362e-06 7.4834e-05 4.28665e-06 2.10783e-05)
(0.000731577 0.000148636 1.14916e-05 7.34563e-05 5.35044e-06 1.86546e-05)
(0.000781249 0.000158539 1.22236e-05 7.73817e-05 4.33263e-06 1.71532e-05)
(0.000841415 0.000169622 8.86997e-06 8.11241e-05 7.01868e-06 1.21841e-05)
(0.0008494 0.000158844 1.25329e-05 7.48911e-05 1.07874e-05 9.94166e-06)
(0.000871096 0.000166805 1.67147e-05 7.86245e-05 1.15305e-05 1.1268e-05)
(0.000926318 0.000180098 1.80686e-05 8.38028e-05 1.17015e-05 1.25981e-05)
(0.000891244 0.000164841 8.0207e-06 8.06601e-05 9.03772e-06 1.15926e-05)
(0.00078077 0.00015207 -9.59083e-06 8.35324e-05 5.86838e-06 9.71816e-06)
(0.000636365 0.000134153 -1.17673e-05 8.81309e-05 6.39818e-06 9.33853e-06)
(0.000469313 9.1206e-05 -9.16446e-07 8.34672e-05 1.08869e-05 9.59779e-06)
(0.000348938 5.10904e-05 -9.91881e-07 7.38031e-05 1.04238e-05 1.10819e-05)
(0.00031132 3.61255e-05 -4.95705e-06 6.46838e-05 7.47075e-06 1.25847e-05)
(0.000475983 0.000109797 3.25987e-05 0.000108682 1.74073e-05 3.99691e-05)
(0.000506467 0.00012748 4.64321e-05 0.000110775 2.3396e-05 3.96467e-05)
(0.000531432 0.000137373 5.7282e-05 0.000104066 2.60852e-05 4.43089e-05)
(0.000532983 0.000141286 6.30354e-05 9.95779e-05 2.36991e-05 4.82291e-05)
(0.00053602 0.000143521 5.79843e-05 9.90309e-05 1.85294e-05 4.88263e-05)
(0.000515326 0.000129275 4.47882e-05 8.83644e-05 1.08449e-05 4.38188e-05)
(0.000510431 0.000123004 4.24416e-05 8.59458e-05 8.06186e-06 4.12092e-05)
(0.000549678 0.000139907 4.79718e-05 9.69441e-05 1.06339e-05 4.37496e-05)
(0.000598006 0.00015182 5.44639e-05 0.000100719 1.77376e-05 4.74151e-05)
(0.00063039 0.00015364 6.03055e-05 0.000102712 2.33e-05 4.82771e-05)
(0.000621102 0.000159804 5.55313e-05 0.000109691 2.41866e-05 4.66906e-05)
(0.000587707 0.000155512 3.30191e-05 0.000111589 1.93346e-05 4.16289e-05)
(0.000584038 0.000151369 1.22529e-05 0.000112786 9.869e-06 3.92089e-05)
(0.00063663 0.000162945 6.51472e-06 0.000115414 4.89167e-06 4.08408e-05)
(0.000696617 0.000164073 1.25732e-06 0.000109191 -5.22553e-07 3.99148e-05)
(0.000769049 0.000165956 -5.72106e-06 0.000104779 -6.21213e-06 3.82711e-05)
(0.000881079 0.000189413 -7.13237e-06 0.000112217 -5.04486e-06 4.04634e-05)
(0.00100357 0.000211005 -7.99458e-06 0.000113345 -5.54539e-06 4.2422e-05)
(0.00111379 0.000222831 -9.16339e-06 0.000109405 -7.40355e-06 4.22195e-05)
(0.00120138 0.000232794 -1.18762e-05 0.000104764 -8.12063e-06 4.2408e-05)
(0.00128664 0.000246425 -2.06103e-05 0.000108181 -7.0865e-06 4.49533e-05)
(0.00135603 0.000267546 -1.63448e-05 0.000121742 -1.1899e-06 4.7784e-05)
(0.00138512 0.000292381 5.12365e-06 0.000136987 6.23912e-06 4.81407e-05)
(0.00140027 0.000305481 3.11769e-05 0.000142977 1.36839e-05 4.8986e-05)
(0.0013636 0.000288186 3.90577e-05 0.000139204 1.29707e-05 4.8368e-05)
(0.001295 0.000266571 3.84275e-05 0.000133971 1.17919e-05 4.50463e-05)
(0.00127734 0.000269428 4.42989e-05 0.000136597 1.44733e-05 4.60361e-05)
(0.00128116 0.000273134 5.23142e-05 0.000139692 1.49253e-05 4.85465e-05)
(0.00122745 0.000259775 5.98781e-05 0.000141161 1.32198e-05 5.38839e-05)
(0.00117774 0.000255459 5.26632e-05 0.000149332 7.22914e-06 5.76824e-05)