/*--------------------------------*- C++ -*----------------------------------*\
  =========                 |
  \\      /  F ield         | OpenFOAM: The Open Source CFD Toolbox
   \\    /   O peration     | Website:  https://openfoam.org
    \\  /    A nd           | Version:  10
     \\/     M anipulation  |
\*---------------------------------------------------------------------------*/
FoamFile
{
    format      ascii;
    class       volScalarField;
    location    "5";
    object      p;
}
// * * * * * * * * * * * * * * * * * * * * * * * * * * * * * * * * * * * * * //

dimensions      [0 2 -2 0 0 0 0];

internalField   nonuniform List<scalar> 
25600
(
-2.58865e-06
6.67997e-06
3.73958e-06
1.30643e-06
8.92194e-06
1.53647e-07
-3.77246e-07
7.04082e-06
1.82571e-06
4.00586e-06
3.99334e-06
-2.35083e-06
6.28743e-06
6.36759e-06
-3.70212e-06
2.90986e-06
7.72526e-06
-1.05498e-06
2.48305e-06
6.60045e-06
-1.04696e-06
3.95246e-06
7.50151e-06
2.43077e-06
3.1864e-06
3.68683e-06
6.16721e-06
2.97248e-06
2.30264e-06
1.07405e-05
1.92764e-06
-2.57978e-06
9.92429e-06
7.14184e-06
-1.58854e-06
6.42647e-06
6.66885e-06
-1.58434e-06
8.31763e-06
6.79536e-06
9.24035e-07
6.94761e-06
2.59317e-07
4.81604e-06
1.022e-05
-3.76052e-06
-1.74211e-06
1.14726e-05
3.37717e-06
-2.49513e-06
4.1171e-06
4.00829e-06
2.43701e-06
4.15375e-06
4.91985e-07
-1.11926e-06
9.44187e-06
5.57707e-06
-4.6545e-06
4.83922e-06
7.80185e-06
2.10932e-06
2.4473e-06
5.22257e-06
4.00812e-06
2.83878e-06
5.65837e-06
1.44601e-06
6.78829e-06
7.73376e-06
-3.78895e-06
5.74128e-06
9.10219e-06
8.66735e-08
3.54341e-06
7.0679e-06
2.25817e-06
2.06795e-06
8.71333e-06
2.67691e-06
4.39438e-06
6.08428e-06
-3.74599e-07
8.10494e-06
7.08175e-06
-4.35943e-06
8.95903e-07
1.19088e-05
3.99513e-06
-6.05488e-06
4.06473e-06
9.80499e-06
-1.07429e-06
2.00187e-06
3.72446e-06
-3.5013e-06
1.08628e-05
6.53987e-06
-9.15044e-06
4.82851e-06
1.15087e-05
1.16463e-06
-1.12125e-06
7.01051e-06
4.62165e-06
2.99236e-06
3.96577e-06
2.02198e-06
1.18698e-05
8.98222e-07
-2.86811e-06
1.37188e-05
3.12948e-06
-5.20041e-07
8.24251e-06
4.13961e-06
9.51255e-07
6.08585e-06
8.14113e-06
-5.91861e-07
6.43956e-06
5.13031e-06
2.06991e-06
7.81748e-06
1.9984e-06
-1.39312e-06
2.45039e-06
9.75256e-06
4.0326e-06
-7.59459e-06
5.29861e-06
1.20692e-05
-4.37344e-06
1.95903e-06
3.98839e-06
-2.24195e-06
1.18057e-05
1.63011e-06
-7.59017e-06
6.06732e-06
1.07467e-05
8.37006e-07
-2.59058e-06
8.02858e-06
4.59588e-06
3.91005e-06
1.92127e-06
4.96831e-06
1.17155e-05
-5.94333e-06
4.71318e-06
1.29976e-05
-1.84609e-06
5.76986e-06
6.44716e-06
3.26161e-06
2.75878e-06
7.08162e-06
7.10578e-06
-2.01774e-06
7.70614e-06
5.43438e-06
4.53682e-06
4.12893e-06
7.63291e-07
3.09927e-06
2.47492e-06
7.94065e-06
2.97146e-06
-7.19312e-06
7.80847e-06
1.01689e-05
-5.94933e-06
3.28824e-06
1.69544e-06
2.14314e-06
9.16363e-06
-3.81403e-06
-9.85378e-07
5.31561e-06
8.81941e-06
1.02314e-06
-1.65565e-06
8.24076e-06
3.92709e-06
5.29655e-06
7.49935e-07
8.22173e-06
7.11649e-06
-6.1584e-06
1.20518e-05
4.36742e-06
3.63269e-07
8.57055e-06
8.07128e-07
6.52342e-06
2.09527e-06
7.54679e-06
6.61655e-06
-2.26042e-06
8.67715e-06
6.49051e-06
4.5363e-06
3.78334e-07
2.80449e-06
4.32412e-06
2.15728e-06
6.31483e-06
1.38357e-06
-4.492e-06
9.0311e-06
6.34836e-06
-4.34851e-06
3.80565e-06
-9.70116e-08
7.80902e-06
2.77659e-06
-4.91836e-06
5.35464e-06
2.00995e-06
7.82785e-06
-2.80043e-07
5.74507e-07
7.24183e-06
3.92456e-06
7.11521e-06
-2.19542e-07
9.84569e-06
2.29045e-06
-5.74469e-07
1.29597e-05
-1.79675e-06
8.30639e-06
5.63943e-06
-2.05747e-07
1.01535e-05
3.94751e-07
9.08256e-06
4.05193e-06
-1.46028e-06
8.76947e-06
7.59579e-06
2.18599e-06
4.14204e-08
5.10176e-06
3.37745e-06
3.02013e-06
4.07151e-06
1.26945e-06
-1.53158e-06
8.26047e-06
3.51594e-06
-1.59323e-06
2.97572e-06
-1.07218e-07
1.00082e-05
-4.0333e-06
-1.24314e-06
7.15263e-06
-1.55319e-07
7.71382e-06
-1.43272e-06
4.10085e-06
3.8653e-06
5.82203e-06
7.94764e-06
-8.01742e-07
1.00508e-05
7.54219e-08
4.60012e-06
8.58333e-06
-2.31804e-06
1.17936e-05
1.40842e-07
3.54186e-06
9.39009e-06
1.79112e-07
1.00847e-05
1.99231e-06
1.72329e-06
8.39423e-06
7.46533e-06
-4.84261e-07
3.05741e-06
4.63396e-06
2.94501e-06
3.47705e-06
2.11912e-06
2.93919e-06
-1.03664e-06
7.87335e-06
1.92081e-06
3.79055e-07
1.96867e-06
1.08513e-06
9.48845e-06
-8.04594e-06
3.00614e-06
5.31776e-06
-7.92788e-08
6.05031e-06
-1.29949e-06
6.17363e-06
1.44716e-06
9.54487e-06
6.27629e-06
-2.35386e-07
1.09823e-05
1.55511e-08
6.8955e-06
5.33162e-06
3.62884e-07
9.86739e-06
-5.52748e-07
7.16717e-06
6.76766e-06
2.64735e-06
7.86647e-06
2.12506e-06
4.1294e-06
8.88846e-06
6.03583e-06
-8.57544e-07
5.55806e-06
2.06067e-06
5.32726e-06
1.61729e-06
1.99165e-06
4.05209e-06
-1.67266e-06
9.29963e-06
1.13572e-07
2.05527e-06
7.83175e-07
1.99423e-06
7.98711e-06
-9.27211e-06
5.36598e-06
2.99971e-06
6.24515e-07
3.3443e-06
6.90155e-07
5.03594e-06
1.39487e-06
1.25496e-05
4.00684e-06
2.01199e-06
1.08867e-05
1.79978e-07
6.73219e-06
5.35426e-06
1.538e-06
6.75141e-06
2.51616e-06
6.81728e-06
6.08221e-06
4.05918e-06
4.42589e-06
4.79745e-06
4.11149e-06
1.00639e-05
3.14961e-06
9.12362e-07
5.36899e-06
1.07654e-06
6.69641e-06
-1.35065e-06
3.94905e-06
2.14333e-06
-2.20541e-07
1.05564e-05
-1.79813e-06
4.77774e-06
-7.1194e-07
2.71851e-06
6.6213e-06
-9.89259e-06
5.37024e-06
2.01794e-06
4.67864e-07
2.31302e-06
3.34002e-06
2.65295e-06
3.37306e-06
1.36273e-05
2.8878e-06
3.5812e-06
1.04928e-05
6.18539e-07
6.23524e-06
6.67043e-06
-3.71425e-07
6.42558e-06
4.37536e-06
5.03184e-06
7.69005e-06
2.92589e-06
4.20084e-06
6.86889e-06
3.57192e-06
9.53046e-06
2.01622e-06
2.57974e-06
3.37673e-06
4.409e-06
6.11042e-06
-2.72207e-06
5.68069e-06
-1.04533e-06
4.0191e-06
1.02543e-05
-2.42571e-06
6.37894e-06
-3.53247e-06
3.75826e-06
5.43895e-06
-1.09735e-05
4.88327e-06
1.61183e-06
-6.02102e-07
2.55871e-06
3.31386e-06
9.77885e-07
5.80928e-06
1.2983e-05
3.23129e-06
3.63295e-06
1.09752e-05
7.50199e-07
6.33711e-06
7.95543e-06
-2.50825e-06
7.5753e-06
4.38841e-06
5.27444e-06
8.54182e-06
1.83854e-06
5.4328e-06
7.30779e-06
4.35114e-06
7.65777e-06
2.70372e-06
1.70336e-06
1.59757e-06
7.35266e-06
3.84223e-06
-1.9212e-06
4.45158e-06
-2.22273e-06
8.32171e-06
8.41245e-06
-1.31527e-06
6.75395e-06
-4.12903e-06
6.9709e-06
4.25695e-06
-1.20422e-05
4.53026e-06
1.74703e-06
-1.78003e-06
3.37177e-06
2.1693e-06
2.97329e-07
7.56595e-06
1.27676e-05
4.29344e-06
2.36117e-06
1.24509e-05
3.88455e-07
6.90769e-06
8.90484e-06
-3.59732e-06
7.75657e-06
4.50526e-06
6.03334e-06
7.27047e-06
2.38054e-06
5.41903e-06
7.54515e-06
5.81916e-06
6.3918e-06
3.88048e-06
-1.07488e-06
2.15558e-06
9.24041e-06
1.7016e-06
-7.13863e-07
1.20406e-06
-1.04078e-06
1.07328e-05
7.20984e-06
8.25551e-07
5.93111e-06
-2.90964e-06
7.26573e-06
3.20142e-06
-1.39037e-05
3.82828e-06
2.08093e-06
-3.10577e-06
4.39914e-06
7.32827e-07
-4.25722e-08
8.63737e-06
1.35189e-05
5.44958e-06
1.08302e-06
1.42646e-05
-3.35224e-07
7.49814e-06
9.64371e-06
-4.20232e-06
6.65647e-06
5.9482e-06
5.95092e-06
7.41978e-06
3.76445e-06
4.08719e-06
9.00943e-06
5.89437e-06
6.07867e-06
4.12321e-06
-3.94117e-06
4.04652e-06
1.00951e-05
5.91676e-07
-9.58667e-07
-1.63925e-06
1.4417e-06
1.09128e-05
7.47554e-06
1.8121e-06
5.63596e-06
-2.08828e-06
7.01147e-06
2.71373e-06
-1.67886e-05
3.19307e-06
3.19057e-06
-4.88831e-06
5.38923e-06
-4.00518e-07
-4.81176e-07
9.57868e-06
1.46749e-05
6.35246e-06
2.91539e-07
1.58988e-05
-6.29555e-07
7.92943e-06
1.0616e-05
-5.33258e-06
4.76768e-06
8.35895e-06
5.28087e-06
8.64387e-06
3.79512e-06
2.68053e-06
1.17026e-05
5.01183e-06
6.15071e-06
3.48148e-06
-6.29482e-06
5.67634e-06
1.06769e-05
1.5954e-07
-2.88197e-06
-3.80394e-06
3.73106e-06
8.99354e-06
8.552e-06
2.02766e-06
6.29742e-06
-2.1308e-06
7.2673e-06
2.26813e-06
-2.05318e-05
2.62328e-06
4.29157e-06
-7.14361e-06
6.36025e-06
-1.5124e-06
-9.21239e-07
1.08955e-05
1.58666e-05
7.09599e-06
-3.41739e-07
1.73467e-05
-3.69408e-07
8.25391e-06
1.18579e-05
-7.48835e-06
2.97343e-06
1.08176e-05
4.66672e-06
1.07164e-05
2.32511e-06
1.64378e-06
1.37388e-05
4.06134e-06
6.06931e-06
2.6427e-06
-7.68886e-06
6.52846e-06
1.13118e-05
6.37952e-08
-5.60916e-06
-5.5126e-06
5.67076e-06
8.74362e-06
9.67309e-06
2.26591e-06
7.17998e-06
-3.20123e-06
8.15684e-06
1.62693e-06
-2.50439e-05
1.77203e-06
5.09875e-06
-9.61716e-06
6.81517e-06
-2.87014e-06
-1.23406e-06
1.26175e-05
1.69624e-05
7.86799e-06
-8.599e-07
1.88091e-05
-5.16631e-08
8.62973e-06
1.32464e-05
-1.04839e-05
1.65037e-06
1.29695e-05
4.66521e-06
1.28266e-05
-4.05085e-07
9.48744e-07
1.51854e-05
3.72135e-06
5.86767e-06
2.12709e-06
-9.56586e-06
6.6643e-06
1.1717e-05
5.78596e-07
-8.75682e-06
-7.60389e-06
7.41737e-06
1.05088e-05
1.04835e-05
3.47312e-06
7.64164e-06
-4.7441e-06
9.14583e-06
8.58736e-07
-3.05811e-05
1.02e-06
5.10739e-06
-1.19604e-05
8.31053e-06
-4.79103e-06
-2.15193e-06
1.45947e-05
1.80996e-05
8.83152e-06
-1.46287e-06
2.03068e-05
1.00552e-07
8.98536e-06
1.44131e-05
-1.38093e-05
1.62079e-07
1.467e-05
4.93926e-06
1.48991e-05
-1.75633e-06
-2.02749e-07
1.63536e-05
3.33984e-06
5.39891e-06
1.90966e-06
-1.27394e-05
5.89488e-06
1.09033e-05
5.95891e-07
-1.18015e-05
-1.05536e-05
9.22058e-06
1.27939e-05
1.09527e-05
5.65473e-06
7.22005e-06
-6.25571e-06
1.0258e-05
-1.01219e-07
-3.48546e-05
-9.10535e-07
3.6044e-06
-1.36736e-05
9.58574e-06
-5.16791e-06
-3.57951e-06
1.53461e-05
1.99244e-05
9.73587e-06
-1.15699e-06
2.12462e-05
4.00066e-07
9.56847e-06
1.51342e-05
-1.78508e-05
-1.66419e-06
1.54843e-05
5.67708e-06
1.62289e-05
-2.8465e-06
-2.79873e-06
1.88678e-05
2.83677e-06
4.23818e-06
1.07319e-06
-1.56403e-05
6.63185e-06
1.16617e-05
-1.93026e-06
-1.51753e-05
-1.25609e-05
9.99331e-06
1.54533e-05
9.48263e-06
7.8608e-06
7.15795e-06
-7.17733e-06
1.1327e-05
-2.38531e-06
-3.86406e-05
-1.60191e-06
2.77715e-06
-1.47972e-05
9.84685e-06
-5.57003e-06
-3.76697e-06
1.48024e-05
2.21248e-05
9.30219e-06
-4.87826e-07
2.19605e-05
-1.20059e-06
1.00444e-05
1.36593e-05
-2.08965e-05
-3.1609e-06
1.54555e-05
7.02827e-06
1.55305e-05
-3.92783e-06
-5.31496e-06
1.74457e-05
2.16992e-06
3.03131e-06
9.96389e-08
-1.6228e-05
8.06833e-06
1.30198e-05
-2.97392e-06
-1.76294e-05
-1.21713e-05
1.17257e-05
1.68817e-05
1.04037e-05
9.07985e-06
7.26859e-06
-6.69587e-06
1.14738e-05
-4.05838e-06
-4.15757e-05
-8.38675e-07
3.39226e-06
-1.61047e-05
9.20663e-06
-6.2373e-06
-2.53232e-06
1.50656e-05
2.30963e-05
1.0418e-05
-2.15157e-07
2.3248e-05
-1.52487e-06
9.95806e-06
1.41406e-05
-2.3812e-05
-3.00577e-06
1.59207e-05
8.01229e-06
1.50265e-05
-5.08985e-06
-5.35029e-06
1.69412e-05
1.19301e-06
2.17866e-06
3.21245e-07
-1.5518e-05
1.00893e-05
9.47555e-06
-3.32895e-06
-1.82005e-05
-1.10208e-05
1.29156e-05
1.67747e-05
1.08942e-05
1.06714e-05
8.33267e-06
-6.24304e-06
1.00658e-05
-5.31353e-06
-4.26408e-05
-3.97724e-07
4.31537e-06
-1.72639e-05
8.13519e-06
-6.01091e-06
-1.46859e-06
1.49543e-05
2.23786e-05
1.08914e-05
5.7398e-07
2.46907e-05
-1.20744e-06
8.94894e-06
1.42047e-05
-2.55733e-05
-2.03174e-06
1.55838e-05
5.33782e-06
1.43721e-05
-4.35736e-06
-4.35036e-06
1.63978e-05
-2.36788e-07
2.37967e-06
5.43565e-07
-1.51657e-05
9.06221e-06
7.69014e-06
-2.99508e-06
-1.74956e-05
-1.06517e-05
1.39866e-05
1.63036e-05
1.10123e-05
1.22445e-05
9.34029e-06
-6.37959e-06
8.95647e-06
-5.63825e-06
-4.21063e-05
-3.8819e-07
5.56582e-06
-1.77956e-05
7.08837e-06
-5.16532e-06
-1.02188e-06
1.47389e-05
2.21059e-05
1.15571e-05
2.04599e-06
2.54872e-05
-5.454e-07
7.86035e-06
1.44504e-05
-2.42965e-05
-1.69007e-06
1.56096e-05
4.25141e-06
1.45456e-05
-2.95806e-06
-3.69227e-06
1.64924e-05
-9.06243e-07
2.75892e-06
9.91026e-07
-1.50602e-05
8.13062e-06
7.13194e-06
-3.75715e-06
-1.70904e-05
-1.06306e-05
1.36673e-05
1.59923e-05
1.16289e-05
1.30086e-05
1.01898e-05
-6.41638e-06
8.74359e-06
-6.09445e-06
-4.159e-05
-3.53197e-07
3.96906e-06
-1.76759e-05
7.95723e-06
-5.26087e-06
-7.79293e-07
1.59437e-05
2.2508e-05
1.24077e-05
2.69275e-06
2.59131e-05
1.63488e-07
7.51557e-06
1.43671e-05
-2.34581e-05
-1.48184e-06
1.55555e-05
4.29365e-06
1.46232e-05
-2.16062e-06
-3.24244e-06
1.64016e-05
-8.6751e-07
2.8162e-06
9.39208e-07
-1.48303e-05
7.81682e-06
6.82511e-06
-4.49259e-06
-1.71239e-05
-1.03172e-05
1.35017e-05
1.59407e-05
1.17874e-05
1.3229e-05
1.0229e-05
-6.0278e-06
8.87582e-06
-6.67484e-06
-4.12067e-05
-1.82865e-07
2.92611e-06
-1.74504e-05
8.14073e-06
-5.98211e-06
-2.88191e-07
1.64234e-05
2.19229e-05
1.26536e-05
2.74555e-06
2.59648e-05
6.18767e-07
7.47932e-06
1.38275e-05
-2.27354e-05
-1.00195e-06
1.58055e-05
4.51428e-06
1.42132e-05
-1.73558e-06
-2.62466e-06
1.65894e-05
-7.64556e-07
2.53772e-06
6.06027e-07
-1.44279e-05
7.7022e-06
5.60203e-06
-5.43808e-06
-1.71543e-05
-9.6642e-06
1.33405e-05
1.58448e-05
1.14434e-05
1.31705e-05
1.03492e-05
-5.46159e-06
8.92728e-06
-7.48501e-06
-4.06364e-05
2.34119e-07
2.21831e-06
-1.73631e-05
7.90992e-06
-5.91135e-06
4.41474e-07
1.67518e-05
2.144e-05
1.23907e-05
2.50731e-06
2.60141e-05
9.62534e-07
7.47947e-06
1.30028e-05
-2.17883e-05
-3.11473e-07
1.61328e-05
4.5248e-06
1.34566e-05
-1.62996e-06
-1.82303e-06
1.67812e-05
-8.57478e-07
2.0467e-06
1.6414e-07
-1.40812e-05
7.72233e-06
4.54991e-06
-6.43478e-06
-1.706e-05
-8.88645e-06
1.3178e-05
1.56562e-05
1.10642e-05
1.307e-05
1.05053e-05
-4.95966e-06
8.7879e-06
-8.43223e-06
-4.01107e-05
7.90869e-07
1.67891e-06
-1.73627e-05
7.53154e-06
-5.67141e-06
1.22427e-06
1.69319e-05
2.09415e-05
1.17849e-05
2.315e-06
2.60445e-05
1.16951e-06
7.42875e-06
1.20577e-05
-2.10251e-05
4.27958e-07
1.63859e-05
4.25868e-06
1.25537e-05
-1.70056e-06
-1.01341e-06
1.68276e-05
-1.08265e-06
1.45755e-06
-3.25373e-07
-1.38244e-05
7.70135e-06
3.65191e-06
-7.36898e-06
-1.68919e-05
-8.17642e-06
1.29971e-05
1.53833e-05
1.05367e-05
1.31166e-05
1.05991e-05
-4.62463e-06
8.4996e-06
-9.31913e-06
-3.9666e-05
1.34472e-06
1.11875e-06
-1.73879e-05
7.12915e-06
-5.41016e-06
1.89934e-06
1.69991e-05
2.04191e-05
1.11092e-05
2.25833e-06
2.60528e-05
1.25485e-06
7.3111e-06
1.11185e-05
-2.04667e-05
1.07425e-06
1.6505e-05
3.79657e-06
1.16576e-05
-1.87603e-06
-3.37949e-07
1.67084e-05
-1.48892e-06
8.49702e-07
-8.4981e-07
-1.34468e-05
7.66436e-06
2.89595e-06
-8.1813e-06
-1.67426e-05
-7.64183e-06
1.2803e-05
1.50941e-05
1.00439e-05
1.30974e-05
1.05844e-05
-4.47471e-06
8.14016e-06
-1.0103e-05
-3.93283e-05
1.79276e-06
6.57757e-07
-1.74239e-05
6.75624e-06
-5.2454e-06
2.38232e-06
1.70644e-05
1.99569e-05
1.04745e-05
2.19871e-06
2.60357e-05
1.24245e-06
7.14488e-06
1.02676e-05
-2.01102e-05
1.536e-06
1.65061e-05
3.24934e-06
1.08595e-05
-2.13853e-06
1.27094e-07
1.64567e-05
-1.93996e-06
3.12993e-07
-1.18584e-06
-1.32535e-05
7.59265e-06
2.28792e-06
-8.85595e-06
-1.66835e-05
-7.31265e-06
1.27085e-05
1.48436e-05
9.58722e-06
1.29847e-05
1.04528e-05
-4.48716e-06
7.77294e-06
-1.07655e-05
-3.91275e-05
2.13134e-06
2.53514e-07
-1.74719e-05
6.43322e-06
-5.21532e-06
2.66467e-06
1.69513e-05
1.95799e-05
9.94362e-06
2.11356e-06
2.59838e-05
1.15064e-06
6.95722e-06
9.53881e-06
-1.99523e-05
1.77999e-06
1.64307e-05
2.70182e-06
1.01929e-05
-2.48685e-06
3.61928e-07
1.61216e-05
-2.37758e-06
-1.60233e-07
-1.51431e-06
-1.32396e-05
7.47653e-06
1.8216e-06
-9.40542e-06
-1.67515e-05
-7.17624e-06
1.25655e-05
1.46715e-05
9.1775e-06
1.27839e-05
1.02165e-05
-4.63089e-06
7.42955e-06
-1.128e-05
-3.90714e-05
2.35196e-06
-3.62794e-08
-1.75335e-05
6.16604e-06
-5.30881e-06
2.77661e-06
1.68198e-05
1.9239e-05
9.53647e-06
1.9849e-06
2.58938e-05
9.93868e-07
6.7693e-06
8.93174e-06
-1.99744e-05
1.81117e-06
1.6313e-05
2.20016e-06
9.65574e-06
-2.91497e-06
3.81339e-07
1.57436e-05
-2.77848e-06
-5.79138e-07
-1.86424e-06
-1.33811e-05
7.32271e-06
1.48091e-06
-9.8541e-06
-1.69504e-05
-7.20205e-06
1.24231e-05
1.44589e-05
8.81373e-06
1.25087e-05
9.90512e-06
-4.8765e-06
7.11815e-06
-1.16923e-05
-3.91371e-05
2.46304e-06
-2.19858e-07
-1.76061e-05
5.95805e-06
-5.50171e-06
2.76182e-06
1.6706e-05
1.90134e-05
9.24372e-06
1.80171e-06
2.5778e-05
7.92295e-07
6.60017e-06
8.43214e-06
-2.01435e-05
1.66183e-06
1.61823e-05
1.76618e-06
9.23177e-06
-3.40889e-06
2.21942e-07
1.53552e-05
-3.14114e-06
-9.15629e-07
-2.19147e-06
-1.36024e-05
7.18732e-06
1.27623e-06
-1.01941e-05
-1.72098e-05
-7.32142e-06
1.23142e-05
1.42865e-05
8.5153e-06
1.22181e-05
9.6067e-06
-5.15224e-06
6.86903e-06
-1.19941e-05
-3.93099e-05
2.51539e-06
-3.03207e-07
-1.76704e-05
5.82802e-06
-5.73543e-06
2.69535e-06
1.66415e-05
1.89055e-05
9.06501e-06
1.59652e-06
2.56878e-05
6.13908e-07
6.4946e-06
8.06611e-06
-2.03811e-05
1.43165e-06
1.60965e-05
1.45049e-06
8.93051e-06
-3.89112e-06
-2.22041e-08
1.50308e-05
-3.43613e-06
-3.65645e-06
6.25211e-06
4.38224e-06
9.58524e-07
9.8795e-06
-7.53173e-07
-1.02144e-06
8.75581e-06
1.03828e-06
3.03996e-06
4.78081e-06
-2.22755e-06
6.58643e-06
5.99703e-06
-4.08689e-06
3.84693e-06
8.16353e-06
-1.93701e-06
2.57048e-06
7.43299e-06
-1.46633e-06
3.80545e-06
7.69015e-06
2.07802e-06
3.66943e-06
3.52683e-06
5.7892e-06
3.44561e-06
1.77145e-06
1.09357e-05
3.35116e-06
-4.39008e-06
9.16754e-06
1.05328e-05
-2.45022e-06
4.6824e-06
8.95259e-06
-2.37463e-06
7.56029e-06
8.66353e-06
-6.80283e-07
7.13082e-06
7.67357e-07
4.58685e-06
1.06987e-05
-4.93048e-06
-1.33698e-06
1.28257e-05
1.92017e-06
-2.0258e-06
4.5868e-06
3.64607e-06
3.40244e-06
3.24951e-06
4.58427e-08
1.97727e-07
9.38594e-06
3.96849e-06
-4.12801e-06
5.83981e-06
6.42236e-06
2.39395e-06
2.61644e-06
4.47168e-06
5.02341e-06
2.22076e-06
5.26824e-06
2.56792e-06
5.46196e-06
8.33245e-06
-1.93178e-06
2.72925e-06
9.43794e-06
3.18073e-06
1.38195e-06
6.60847e-06
3.81218e-06
5.9456e-07
9.39491e-06
3.89948e-06
2.85404e-06
7.29027e-06
-6.50289e-07
8.26267e-06
7.45975e-06
-5.5814e-06
2.61785e-06
1.17812e-05
2.19101e-06
-3.95036e-06
3.57164e-06
9.43877e-06
3.45899e-08
5.13837e-07
4.16593e-06
-2.5687e-06
1.01321e-05
5.30265e-06
-7.81759e-06
5.40979e-06
9.82328e-06
2.09308e-06
-1.29469e-06
6.40864e-06
5.88046e-06
1.81015e-06
3.98626e-06
3.1513e-06
1.00344e-05
2.40728e-06
-1.97473e-06
1.03123e-05
5.42447e-06
1.02908e-06
5.12738e-06
5.96988e-06
5.88302e-07
4.49767e-06
1.05595e-05
-1.18137e-06
6.27165e-06
6.56706e-06
9.49762e-07
8.63078e-06
1.66819e-06
-2.46232e-06
5.00491e-06
8.13661e-06
3.0807e-06
-4.80767e-06
3.60465e-06
1.25359e-05
-3.90606e-06
6.57346e-07
5.48215e-06
-2.36845e-06
1.08583e-05
1.38749e-06
-5.88231e-06
5.76163e-06
9.35092e-06
2.33969e-06
-3.03669e-06
7.99847e-06
5.54716e-06
2.51786e-06
2.28995e-06
5.55246e-06
1.03907e-05
-3.91304e-06
3.56537e-06
1.11611e-05
2.14673e-06
4.39281e-06
4.23557e-06
6.06004e-06
5.96909e-07
7.33698e-06
9.82005e-06
-4.50973e-06
8.94483e-06
5.8305e-06
4.38948e-06
5.89675e-06
-2.10965e-07
2.417e-06
4.68569e-06
5.30593e-06
3.63652e-06
-4.99318e-06
5.42743e-06
1.20732e-05
-6.83473e-06
3.37097e-06
3.63356e-06
6.35161e-07
8.92515e-06
-3.74191e-06
4.02625e-07
4.15795e-06
8.06264e-06
2.65412e-06
-2.4659e-06
8.76624e-06
4.12436e-06
4.09619e-06
1.26123e-06
8.58945e-06
6.95814e-06
-4.75501e-06
9.15938e-06
3.75051e-06
3.97857e-06
5.08668e-06
7.26919e-07
8.77873e-06
-2.09573e-07
9.90922e-06
7.61392e-06
-5.63456e-06
9.99936e-06
5.65348e-06
5.0445e-06
2.03334e-06
1.40796e-06
4.23917e-06
3.46835e-06
4.0116e-06
3.43158e-06
-4.04802e-06
7.26826e-06
8.59905e-06
-6.63688e-06
5.77175e-06
4.57222e-07
5.40846e-06
3.42007e-06
-4.83423e-06
6.70502e-06
2.20355e-07
7.73577e-06
7.06048e-07
2.67865e-07
7.55769e-06
3.74745e-06
6.14128e-06
-2.79012e-07
1.09338e-05
2.54982e-06
-5.54432e-07
9.98043e-06
5.08605e-07
1.11879e-05
1.25884e-06
1.14662e-06
1.05913e-05
-1.00009e-06
1.21134e-05
3.398e-06
-3.65425e-06
9.07375e-06
6.62474e-06
3.8603e-06
6.40402e-07
3.86796e-06
3.44288e-06
3.68368e-06
3.05641e-06
3.6469e-06
-2.88507e-06
7.87969e-06
5.04064e-06
-3.9778e-06
6.57372e-06
-1.73418e-06
8.64036e-06
-3.02659e-06
-1.11643e-06
8.29681e-06
-2.54239e-06
8.08422e-06
-6.82972e-07
4.93617e-06
3.9178e-06
5.89119e-06
6.24413e-06
-9.37338e-07
1.25161e-05
-5.51669e-07
3.96915e-06
6.52479e-06
1.25407e-06
1.25128e-05
-3.10493e-06
4.97108e-06
8.26925e-06
7.44847e-07
1.23191e-05
3.00279e-07
1.00909e-06
7.20048e-06
7.63605e-06
1.28547e-06
2.36105e-06
4.3062e-06
2.3937e-06
4.42498e-06
1.88309e-06
4.47982e-06
-3.00212e-06
8.43682e-06
2.47709e-06
-7.77105e-07
5.42955e-06
-2.57772e-06
9.55238e-06
-7.31634e-06
3.75033e-06
5.4296e-06
-2.32834e-06
6.82003e-06
-6.04952e-07
7.22969e-06
-1.40216e-08
9.58361e-06
2.6323e-06
6.95266e-07
1.32267e-05
-1.57166e-06
6.4275e-06
4.32918e-06
3.77639e-06
9.14014e-06
-2.31298e-06
7.57296e-06
5.57402e-06
3.8783e-06
8.89802e-06
8.68403e-07
4.16104e-06
6.50614e-06
8.10263e-06
2.63193e-07
4.80441e-06
2.3282e-06
2.54785e-06
4.6841e-06
1.80496e-06
4.39257e-06
-3.77898e-06
9.60922e-06
4.05086e-07
2.38593e-06
3.31047e-06
-2.63414e-06
8.7982e-06
-8.75746e-06
7.12683e-06
1.62375e-06
-6.60037e-07
3.67301e-06
1.83501e-06
6.55745e-06
-1.24815e-06
1.1903e-05
-1.52099e-06
4.53686e-06
1.11705e-05
-1.15559e-06
6.40468e-06
4.90956e-06
5.15672e-06
6.41245e-06
2.60536e-06
5.7365e-06
5.37428e-06
5.97449e-06
5.44977e-06
4.42398e-06
4.16449e-06
7.05075e-06
7.9579e-06
1.22056e-06
5.71156e-06
6.4219e-07
3.30968e-06
4.2386e-06
2.81759e-06
3.0598e-06
-3.49175e-06
1.04919e-05
-7.39564e-07
6.35147e-06
1.97566e-07
-1.41592e-06
7.48465e-06
-8.32619e-06
8.27815e-06
-9.91042e-07
5.64196e-07
1.27799e-06
4.95332e-06
3.95497e-06
2.18385e-07
1.09739e-05
-2.1036e-06
7.81394e-06
9.12513e-06
7.57086e-07
5.01323e-06
6.5568e-06
3.06922e-06
6.41476e-06
5.40449e-06
1.5641e-06
6.86953e-06
5.35004e-06
5.70398e-06
6.23946e-06
3.60371e-06
6.48764e-06
8.48793e-06
2.88353e-06
4.95622e-06
3.8457e-07
3.23928e-06
4.01856e-06
2.93716e-06
1.24579e-06
-2.40032e-06
1.01532e-05
-3.19806e-07
8.30354e-06
-3.25531e-06
1.04842e-06
5.78429e-06
-7.42807e-06
7.97994e-06
-2.23196e-06
2.27261e-07
-1.40131e-07
7.25216e-06
1.56011e-06
2.47419e-06
6.49e-06
-3.29303e-08
8.87544e-06
9.21857e-06
2.41792e-06
3.06241e-06
8.57112e-06
5.75584e-07
8.59933e-06
5.85769e-06
4.52236e-07
7.422e-06
5.06189e-06
7.45652e-06
6.05199e-06
4.03628e-06
4.83001e-06
1.05007e-05
3.44057e-06
3.65887e-06
2.07634e-07
2.63354e-06
3.91716e-06
2.02458e-06
5.53336e-07
-1.13941e-06
9.12271e-06
1.93662e-06
8.79229e-06
-5.55077e-06
4.06228e-06
3.77247e-06
-6.47734e-06
7.16247e-06
-2.46604e-06
-1.31517e-06
-5.36956e-07
8.33861e-06
5.90896e-07
3.25675e-06
4.17615e-06
2.56103e-06
7.58185e-06
1.17647e-05
2.15562e-06
2.09543e-06
1.05843e-05
-1.2552e-06
1.04899e-05
5.26182e-06
1.09156e-06
6.79885e-06
5.99899e-06
7.99762e-06
6.33377e-06
4.53548e-06
3.90309e-06
1.3168e-05
3.05541e-06
3.1454e-06
-1.17264e-06
2.14262e-06
3.78297e-06
8.53168e-07
7.5819e-07
-7.78863e-07
8.58043e-06
5.14968e-06
8.38025e-06
-5.90304e-06
6.01639e-06
1.95003e-06
-5.68369e-06
6.674e-06
-2.36014e-06
-3.91734e-06
-1.59056e-07
8.48251e-06
4.95476e-07
2.55132e-06
3.01106e-06
4.36115e-06
6.4261e-06
1.58703e-05
1.52386e-07
2.10774e-06
1.21668e-05
-2.0072e-06
1.14645e-05
5.22641e-06
1.22749e-06
6.08289e-06
9.95783e-06
7.59984e-06
7.54154e-06
3.61215e-06
3.88728e-06
1.51089e-05
2.83524e-06
3.32248e-06
-3.53813e-06
1.98961e-06
3.6763e-06
4.9802e-08
6.16058e-07
-9.63355e-07
8.36157e-06
7.31248e-06
8.30474e-06
-5.69531e-06
6.66285e-06
1.14133e-06
-5.49622e-06
6.74877e-06
-2.19334e-06
-6.78863e-06
6.43705e-07
8.08788e-06
1.0874e-06
6.97964e-07
2.91993e-06
5.1542e-06
6.1038e-06
1.98402e-05
-2.22623e-06
2.64961e-06
1.35709e-05
-1.8025e-06
1.16299e-05
6.09866e-06
-1.97914e-07
5.85551e-06
1.15731e-05
7.47302e-06
8.99504e-06
1.58217e-06
4.09598e-06
1.63761e-05
3.29705e-06
2.36762e-06
-5.82463e-06
1.82524e-06
4.16744e-06
-5.76416e-07
-4.92244e-07
-1.12577e-06
8.45744e-06
9.57561e-06
8.76214e-06
-6.05461e-06
6.64891e-06
9.38832e-07
-5.80841e-06
7.0976e-06
-2.69729e-06
-9.58178e-06
1.87252e-06
7.79034e-06
1.77962e-06
-2.42576e-06
3.24255e-06
5.60505e-06
6.8209e-06
2.3335e-05
-4.1009e-06
2.68742e-06
1.54471e-05
-1.32116e-06
1.13183e-05
7.71644e-06
-2.29759e-06
6.57332e-06
1.31805e-05
8.06595e-06
9.62229e-06
-5.0056e-07
3.86159e-06
1.77347e-05
2.91025e-06
6.66477e-07
-7.51777e-06
1.79181e-06
6.19081e-06
-1.39281e-06
-2.41722e-06
-1.5352e-06
8.97772e-06
1.27225e-05
9.19135e-06
-6.78555e-06
6.92885e-06
1.29169e-06
-6.29972e-06
8.0426e-06
-3.78966e-06
-1.19856e-05
3.33184e-06
7.90343e-06
2.52961e-06
-6.03273e-06
3.53588e-06
5.98841e-06
7.98771e-06
2.68884e-05
-5.3309e-06
1.91843e-06
1.81185e-05
-1.26006e-06
1.12972e-05
9.43089e-06
-4.72352e-06
8.23913e-06
1.48917e-05
9.15668e-06
9.2983e-06
-2.30745e-06
3.27654e-06
1.93496e-05
1.08325e-06
-1.32251e-06
-8.3611e-06
2.14922e-06
8.2294e-06
-2.1188e-06
-5.4138e-06
-2.01616e-06
9.29963e-06
1.64219e-05
9.13854e-06
-7.74264e-06
8.20181e-06
1.85109e-06
-6.4836e-06
8.8674e-06
-5.66789e-06
-1.43088e-05
5.34684e-06
8.87813e-06
3.05674e-06
-9.77941e-06
3.61743e-06
7.01262e-06
9.24864e-06
3.1322e-05
-6.36908e-06
7.09684e-07
2.18536e-05
-1.83371e-06
1.19703e-05
1.06337e-05
-6.68811e-06
1.04131e-05
1.70628e-05
1.00838e-05
8.28868e-06
-3.7787e-06
2.93613e-06
2.09028e-05
-5.02845e-08
-3.40501e-06
-8.79819e-06
3.0139e-06
8.87144e-06
-2.43658e-06
-5.34595e-06
-2.14283e-06
1.02436e-05
2.0098e-05
8.70139e-06
-8.20429e-06
9.37348e-06
2.43709e-06
-7.55453e-06
1.03691e-05
-7.73004e-06
-1.62155e-05
5.78731e-06
9.1192e-06
3.78436e-06
-1.2448e-05
3.92828e-06
8.84887e-06
9.67201e-06
3.40088e-05
-6.51242e-06
-8.89242e-07
2.63963e-05
-2.3043e-06
1.32485e-05
1.25392e-05
-8.33186e-06
1.28039e-05
2.04451e-05
1.16535e-05
8.00326e-06
-3.91434e-06
4.62233e-06
2.24449e-05
-1.56346e-06
-4.31959e-06
-9.3589e-06
4.44299e-06
8.92959e-06
-3.83405e-06
-5.13441e-06
-1.97496e-06
1.40524e-05
2.37374e-05
6.32068e-06
-8.65238e-06
1.08773e-05
4.19248e-06
-8.75526e-06
1.09157e-05
-9.77812e-06
-1.74475e-05
7.86928e-06
9.88398e-06
2.999e-06
-1.42353e-05
4.27906e-06
1.25202e-05
9.75804e-06
3.66808e-05
-6.30836e-06
-2.29696e-06
3.2373e-05
-3.34219e-06
1.39445e-05
1.44602e-05
-9.73019e-06
1.67688e-05
2.232e-05
1.12226e-05
7.76724e-06
-4.05423e-06
5.33061e-06
2.28922e-05
-2.92673e-06
-5.83228e-06
-9.03566e-06
3.72473e-06
8.17922e-06
-5.62253e-06
-4.82289e-06
-1.08695e-06
1.48355e-05
2.60198e-05
8.21058e-06
-8.45349e-06
1.2366e-05
3.82942e-06
-9.59424e-06
9.90584e-06
-1.08599e-05
-1.74899e-05
8.26786e-06
1.07465e-05
9.89049e-07
-1.51049e-05
5.38695e-06
1.22371e-05
9.98123e-06
3.8262e-05
-5.96015e-06
-2.63607e-06
3.34375e-05
-4.11797e-06
1.37591e-05
1.58029e-05
-1.03101e-05
1.80344e-05
2.29146e-05
1.06573e-05
8.08283e-06
-3.0804e-06
5.2931e-06
2.28801e-05
-3.67484e-06
-8.73206e-06
-9.3877e-06
2.52668e-06
8.46661e-06
-6.3552e-06
-5.2749e-06
-8.53594e-07
1.51385e-05
2.69945e-05
9.53052e-06
-8.3849e-06
1.23481e-05
3.17094e-06
-9.35593e-06
9.6119e-06
-1.13692e-05
-1.83937e-05
8.81392e-06
1.19948e-05
1.48383e-07
-1.55294e-05
5.76779e-06
1.17148e-05
1.10287e-05
3.88303e-05
-5.64115e-06
-2.98039e-06
3.30788e-05
-4.24031e-06
1.32974e-05
1.63394e-05
-8.75437e-06
1.81676e-05
2.35163e-05
1.10452e-05
8.15424e-06
-2.6262e-06
5.5251e-06
2.32111e-05
-4.36659e-06
-7.21751e-06
-1.00392e-05
2.51047e-06
9.86768e-06
-6.93615e-06
-7.83967e-06
-5.92622e-07
1.65248e-05
2.74113e-05
9.92656e-06
-9.42296e-06
1.21194e-05
3.11002e-06
-1.07971e-05
9.28226e-06
-1.22987e-05
-1.88675e-05
1.0533e-05
1.1916e-05
-5.56089e-07
-1.72452e-05
5.34622e-06
1.23598e-05
1.13046e-05
3.8611e-05
-6.514e-06
-2.66918e-06
3.26877e-05
-4.6132e-06
1.25931e-05
1.53119e-05
-7.97784e-06
1.89288e-05
2.47662e-05
1.11744e-05
8.29024e-06
-2.6575e-06
6.19048e-06
2.31817e-05
-5.00625e-06
-6.25107e-06
-1.03559e-05
2.9474e-06
9.61469e-06
-7.6734e-06
-7.81671e-06
2.04821e-07
1.71147e-05
2.72484e-05
9.34843e-06
-9.29835e-06
1.22845e-05
3.1332e-06
-1.21227e-05
8.93558e-06
-1.2669e-05
-1.85061e-05
9.79249e-06
1.14999e-05
-1.36639e-06
-1.76183e-05
5.35655e-06
1.27044e-05
1.12706e-05
3.77722e-05
-6.39071e-06
-2.27125e-06
3.27592e-05
-4.82921e-06
1.18945e-05
1.49104e-05
-7.12334e-06
2.00257e-05
2.48332e-05
1.06874e-05
8.39078e-06
-2.4301e-06
6.94412e-06
2.29344e-05
-5.51756e-06
-5.44428e-06
-1.01935e-05
3.17437e-06
8.66852e-06
-8.38045e-06
-7.32533e-06
8.19794e-07
1.74003e-05
2.66551e-05
9.13535e-06
-8.79608e-06
1.28586e-05
3.44969e-06
-1.29081e-05
8.5104e-06
-1.28246e-05
-1.75186e-05
9.19442e-06
1.10092e-05
-2.11794e-06
-1.76141e-05
5.79148e-06
1.28709e-05
1.10009e-05
3.67964e-05
-6.31192e-06
-1.57065e-06
3.29138e-05
-5.19593e-06
1.14816e-05
1.45713e-05
-6.02553e-06
2.12071e-05
2.43259e-05
9.91133e-06
8.5917e-06
-1.8439e-06
7.60924e-06
2.26768e-05
-5.7616e-06
-4.70613e-06
-9.16078e-06
3.28689e-06
7.42226e-06
-8.86764e-06
-6.65478e-06
1.27001e-06
1.76093e-05
2.60149e-05
9.08171e-06
-7.90552e-06
1.3478e-05
3.56355e-06
-1.32049e-05
8.06392e-06
-1.27347e-05
-1.63668e-05
8.62665e-06
9.7308e-06
-2.67757e-06
-1.72365e-05
6.40572e-06
1.27526e-05
1.08321e-05
3.59593e-05
-6.22974e-06
-5.54685e-07
3.29538e-05
-5.50615e-06
1.13737e-05
1.42562e-05
-4.95263e-06
2.19989e-05
2.35978e-05
9.23303e-06
8.96289e-06
-1.13347e-06
8.16153e-06
2.25089e-05
-5.77511e-06
-4.02354e-06
-8.34083e-06
3.35239e-06
6.30309e-06
-9.10521e-06
-6.05147e-06
1.63132e-06
1.76183e-05
2.54548e-05
9.13114e-06
-6.86522e-06
1.40037e-05
3.57897e-06
-1.31855e-05
7.64264e-06
-1.26062e-05
-1.53414e-05
8.1347e-06
8.68966e-06
-3.05284e-06
-1.67133e-05
7.03266e-06
1.25793e-05
1.07277e-05
3.53148e-05
-6.08866e-06
7.40207e-07
3.29058e-05
-5.77785e-06
1.14574e-05
1.39525e-05
-4.05158e-06
2.25405e-05
2.28957e-05
8.77834e-06
9.3765e-06
-4.62557e-07
8.61247e-06
2.25328e-05
-5.69694e-06
-3.43501e-06
-7.78187e-06
3.46803e-06
5.48737e-06
-9.14055e-06
-5.56419e-06
2.02206e-06
1.77586e-05
2.51224e-05
9.24123e-06
-5.89711e-06
1.44014e-05
3.56903e-06
-1.29883e-05
7.3334e-06
-1.23592e-05
-1.44958e-05
7.79983e-06
8.0108e-06
-3.27571e-06
-1.61796e-05
7.64595e-06
1.24378e-05
1.08874e-05
3.4909e-05
-5.90399e-06
1.99781e-06
3.28314e-05
-5.87991e-06
1.16177e-05
1.36828e-05
-3.3226e-06
2.29589e-05
2.23386e-05
8.5066e-06
9.73987e-06
1.04271e-07
8.97917e-06
2.26229e-05
-5.83934e-06
-3.00969e-06
-7.38403e-06
3.67008e-06
4.97322e-06
-9.03179e-06
-5.16645e-06
2.46489e-06
1.80521e-05
2.49763e-05
9.36546e-06
-5.10279e-06
1.46926e-05
3.57908e-06
-1.27159e-05
7.16954e-06
-1.20972e-05
-1.38148e-05
7.6433e-06
7.64617e-06
-3.37228e-06
-1.57571e-05
8.21701e-06
1.24358e-05
1.12485e-05
3.47074e-05
-5.70629e-06
3.11606e-06
3.27821e-05
-5.83432e-06
1.18015e-05
1.34899e-05
-2.73472e-06
2.33267e-05
2.19557e-05
8.35394e-06
1.00249e-05
5.64736e-07
9.27585e-06
2.26129e-05
-5.94571e-06
-2.69955e-06
-7.08584e-06
3.9478e-06
4.70228e-06