/*--------------------------------*- C++ -*----------------------------------*\
  =========                 |
  \\      /  F ield         | OpenFOAM: The Open Source CFD Toolbox
   \\    /   O peration     | Website:  https://openfoam.org
    \\  /    A nd           | Version:  10
     \\/     M anipulation  |
\*---------------------------------------------------------------------------*/
FoamFile
{
    format      ascii;
    class       volScalarField;
    location    "5";
    object      p;
}
// * * * * * * * * * * * * * * * * * * * * * * * * * * * * * * * * * * * * * //

dimensions      [0 2 -2 0 0 0 0];

internalField   nonuniform List<scalar> 
25600
(
0.000278356
5.22141e-05
-0.000151571
0.000238045
0.000183213
-9.90337e-05
0.000121749
0.000126631
8.02046e-05
0.000163282
-2.41685e-05
6.9841e-05
0.000252561
5.92035e-05
5.88913e-05
0.000228683
0.000178593
6.99565e-05
8.14689e-05
0.000232146
0.000162017
-7.18541e-05
0.0001965
0.000284628
-9.83259e-05
7.68418e-05
0.000218767
3.5891e-06
0.000121614
0.000119704
5.68963e-05
9.79983e-05
1.70129e-05
0.000131063
0.000142802
-8.01872e-05
8.63854e-05
0.00023784
-5.96988e-05
-4.82565e-05
0.00034214
-3.83571e-05
-0.000140001
0.000291684
0.000121511
-7.62922e-05
9.15284e-05
0.000114115
0.000202875
1.73968e-05
-7.3209e-05
0.000256002
0.000127905
3.56593e-05
0.000143128
0.000117437
0.000233179
0.000130206
1.31277e-05
0.000251369
0.000179188
-5.10619e-05
0.000254986
0.000236595
-0.000120306
0.000208373
0.000182894
-3.63432e-05
0.000261599
2.76259e-05
-4.18401e-06
0.000258328
-7.66595e-05
7.91101e-05
0.000269067
-0.000175447
5.14454e-05
0.000329978
-0.000148692
-5.52835e-05
0.000286947
-0.000112053
-1.57381e-05
0.000261184
2.16747e-05
4.98157e-05
5.23044e-05
0.000106434
0.000290746
-0.000213411
-2.33618e-05
0.000384228
-6.31829e-05
8.2042e-05
0.00018359
4.17489e-05
0.000293316
0.000147247
8.22202e-07
0.000234905
0.00015034
3.55956e-05
0.000288461
0.000108068
-5.82908e-05
0.000322378
6.04854e-05
1.87512e-05
0.000346959
-8.89607e-05
6.36487e-05
0.000292934
-0.000139136
0.000138557
0.000236875
-0.000194515
0.000122808
0.000266033
-0.000166963
4.60524e-05
0.000147102
-0.00012667
0.000122638
0.000197465
-3.2137e-05
0.000172756
-1.06042e-05
0.000149408
0.000280393
-0.000383835
0.000135464
0.000357435
-0.000184416
0.000204073
0.000107597
1.9236e-05
0.000353243
0.000143658
3.52846e-05
0.000183969
0.000154
0.000134113
0.000258302
-1.68405e-05
5.8288e-05
0.000355709
-6.74574e-05
0.000184305
0.000348107
-0.000161565
0.000142974
0.00022174
-9.69301e-05
0.000168164
7.51527e-05
-0.000123085
0.000153621
0.000106216
-0.00011517
0.00012417
5.39621e-05
-0.000115371
0.000211667
0.000120527
-3.03223e-05
0.000252727
-6.05205e-05
0.000230703
0.000149133
-0.000448781
0.000331577
0.000155999
-0.000178282
0.00029052
-1.33789e-05
9.89442e-05
0.000335345
0.00012638
4.50245e-05
0.000119965
0.000220822
0.000181077
0.000195645
-5.28484e-05
0.000171046
0.000311393
-0.000116
0.000340651
0.000289313
-0.000161514
0.000152626
0.000131542
3.30685e-05
0.000114623
-1.29131e-05
3.61414e-05
0.000124609
-1.27358e-05
-3.62968e-05
0.000142722
-1.58193e-05
-0.000111753
0.000281069
6.56961e-05
-2.96015e-05
0.000289934
-6.7453e-05
0.000290058
-5.09944e-05
-0.000383964
0.000432957
-4.44768e-05
-6.83682e-05
0.000254321
-8.02241e-05
0.000210708
0.000306781
0.000189628
-3.44274e-05
0.000115668
0.000304418
0.000154486
0.000176135
-5.64021e-05
0.00024202
0.000227253
-6.05366e-05
0.000495038
0.000230193
-0.000147914
0.000102385
0.000179293
0.00012108
-1.75644e-05
-6.32647e-06
0.000129814
5.94271e-05
-7.26331e-05
1.51521e-05
0.000163059
-0.000109507
-0.000153745
0.000369615
3.69855e-06
-3.41357e-05
0.000317767
-4.71852e-05
0.000299633
-0.000242063
-0.000269396
0.000424466
-0.000169248
6.90962e-05
0.000124999
-6.84759e-05
0.000262495
0.000319648
0.0002517
-0.000146606
0.000182796
0.000340242
0.000119464
0.000196183
-6.61546e-05
0.000272448
0.000126514
4.81639e-05
0.000636826
0.000191828
-0.000190838
6.1309e-05
0.000291451
0.000110171
-0.000117889
6.05946e-05
0.000189905
-8.40411e-06
-0.000133573
6.80393e-05
0.000187095
-0.000233261
-0.000157452
0.000463119
-8.58071e-05
-2.23285e-05
0.000337285
-2.57952e-05
0.00026588
-0.000390748
-0.000162912
0.000333332
-0.00020424
0.000146829
-4.77045e-06
-4.51013e-06
0.000277371
0.000405089
0.000252122
-0.00027979
0.000300283
0.000341707
0.000131965
0.000193652
-7.73248e-05
0.000274833
3.03316e-05
0.000214164
0.000765881
0.000143962
-0.000283554
8.59917e-05
0.00040698
1.39414e-06
-0.000179223
0.000124521
0.000256726
-0.000104379
-0.000186573
0.000155411
0.000186696
-0.00035741
-0.000142603
0.000537251
-0.000209006
2.28611e-05
0.000430337
-3.02837e-05
0.000203103
-0.000483791
-8.59836e-05
0.000245101
-0.000176602
0.000148504
-9.88347e-05
4.49181e-05
0.000260777
0.000559944
0.000190261
-0.000397841
0.000411676
0.000344684
0.00015887
0.000140595
-8.12119e-05
0.000246083
-3.52961e-05
0.000418194
0.000872488
6.1296e-05
-0.000389183
0.000178467
0.000477548
-0.000104939
-0.000225582
0.00020834
0.000340526
-0.000256509
-0.000190537
0.000252004
0.000169431
-0.000488104
-0.000136031
0.000582625
-0.000345739
0.000100712
0.000473967
-4.11518e-05
0.000141076
-0.000530243
-4.60413e-05
0.000163279
-0.000124744
9.80408e-05
-0.000150941
9.07646e-05
0.000262708
0.000674644
7.71683e-05
-0.0005006
0.000533669
0.000381531
0.000166952
3.94152e-05
-0.000106112
0.000201596
-5.35415e-05
0.000626758
0.000945275
-6.24541e-05
-0.000482745
0.000313401
0.000497344
-0.000219054
-0.00027265
0.000341741
0.000409821
-0.00043565
-0.000131265
0.000335294
0.00016177
-0.000647993
-0.000163969
0.00059539
-0.000449275
0.00024183
0.00044729
-5.74993e-05
0.000109947
-0.000549552
-3.34727e-05
0.000103894
-7.41938e-05
3.15145e-05
-0.000166811
0.000122941
0.00028361
0.000793725
-6.31178e-05
-0.000612468
0.000683202
0.000474019
0.000169362
-0.000131188
-0.000158154
0.000170125
-3.91929e-05
0.000820944
0.000995981
-0.00021734
-0.000541023
0.000463159
0.000472666
-0.000357027
-0.000304936
0.00054721
0.000430467
-0.000603338
-5.78062e-05
0.000414693
0.000206886
-0.000828901
-0.000274286
0.000587794
-0.000431401
0.0004039
0.000377724
-6.18599e-05
0.000105227
-0.00061524
-6.58301e-05
6.19332e-05
-3.38016e-05
-4.93492e-05
-0.000154534
0.000182261
0.00030309
0.000893639
-0.000227598
-0.000752949
0.000859218
0.000658062
0.00015579
-0.000461006
-0.000236039
0.000168133
3.96695e-06
0.00101075
0.00100578
-0.000395783
-0.000592544
0.000609535
0.000385164
-0.000550194
-0.000289648
0.000840378
0.000400415
-0.000742854
3.24976e-05
0.000505216
0.000258272
-0.00105948
-0.000372486
0.000469998
-0.000394329
0.000432263
0.000252547
-3.84621e-05
0.000130607
-0.000650435
-9.55672e-05
2.09538e-05
6.30097e-06
-0.00013144
-0.000135547
0.000234898
0.000324679
0.000986078
-0.000410184
-0.00096464
0.00105044
0.00096915
0.000131372
-0.000872878
-0.000316313
0.000199721
4.70193e-06
0.00117594
0.000983675
-0.000586267
-0.000583794
0.000752835
0.000203906
-0.000803326
-0.000190535
0.00119933
0.000336102
-0.000904056
0.000100385
0.000645319
0.000304217
-0.00135501
-0.000763548
0.000454746
-0.000319803
0.000446905
9.31479e-05
1.31399e-05
0.000147642
-0.000699087
-0.000133501
-2.29123e-05
1.70101e-05
-0.000232935
-6.24684e-05
0.000296094
0.00027114
0.00108858
-0.00059143
-0.00115986
0.00126568
0.00146482
3.03209e-05
-0.00143414
-0.000393802
0.000260582
-3.33979e-05
0.00132585
0.000881981
-0.000740064
-0.000549037
0.000929255
-0.000115484
-0.00109582
3.78238e-05
0.00161678
0.00022911
-0.00108922
0.000133753
0.000820571
0.000345004
-0.00178671
-0.00122269
0.000504014
-0.000147591
0.000361348
-9.33874e-05
0.00012423
0.000171554
-0.000780843
-0.000227808
-6.61403e-05
-1.48338e-05
-0.000381209
-1.12131e-05
0.000305791
0.000227681
0.00123828
-0.000785326
-0.00137047
0.001513
0.00230408
-0.000215102
-0.00228867
-0.000457736
0.00033903
-0.000130719
0.00140024
0.000666793
-0.000925995
-0.000517004
0.00112706
-0.000627724
-0.00139688
0.000375027
0.00205398
3.80519e-05
-0.00122617
0.000148743
0.00107738
0.000457999
-0.00235459
-0.00135048
0.000569433
3.99728e-05
0.000178548
-0.000264291
0.000256212
0.000294792
-0.0008685
-0.000328462
-0.000140384
-0.000144707
-0.000546338
2.76102e-05
0.000289329
4.98184e-05
0.00130835
-0.00100776
-0.00163453
0.00181694
0.00307418
-0.000539429
-0.00335638
-0.000484198
0.000435031
-0.000233958
0.00144707
0.00031589
-0.00125364
-0.000443295
0.00131497
-0.00133909
-0.00175015
0.000697763
0.00241717
-6.7463e-05
-0.00126667
9.46413e-05
0.00148843
0.000718957
-0.00321304
-0.00180515
0.0007245
0.000123748
-0.000162445
-0.000462129
0.000487656
0.000308827
-0.00113047
-0.000531304
-0.00027014
-0.00045373
-0.000814205
-7.47271e-06
0.000294828
-0.000107948
0.00147751
-0.00121823
-0.00203633
0.00218044
0.00393431
-0.000941797
-0.00498921
-0.000556089
0.000563688
-0.000295915
0.00151691
3.28222e-05
-0.00187731
-0.000112753
0.00138826
-0.00222428
-0.0024138
0.000736127
0.00267367
-0.000122522
-0.00132465
3.04885e-05
0.00176656
0.0010849
-0.00459022
-0.00304755
0.000761899
7.20005e-06
-0.000585883
-0.000773848
0.000790156
0.000334944
-0.00149905
-0.000915642
-0.000391846
-0.000847005
-0.00136485
-0.000144316
0.000228015
-0.000254607
0.00153704
-0.00139239
-0.00225764
0.00270242
0.00503668
-0.00166273
-0.00697962
-0.000711385
0.000800599
-0.0001411
0.001797
-0.000170552
-0.00292001
0.000880209
0.0014493
-0.00359363
-0.00403805
0.000308837
0.00297158
-0.000142392
-0.00147089
0.000196453
0.00233918
0.00170116
-0.00632938
-0.00445106
0.00104919
-1.58833e-05
-0.000818267
-0.00116843
0.0011369
0.000593269
-0.00165272
-0.001175
-0.000103922
-0.00122446
-0.00232884
-0.000272248
4.37517e-05
-0.000239885
0.00164518
-0.00158667
-0.00245582
0.0033039
0.0064296
-0.00233081
-0.00964257
-0.00107039
0.0010376
7.76713e-05
0.00233705
-0.000846599
-0.0041575
0.00249057
0.00189356
-0.00578886
-0.00671685
-0.000666327
0.00316291
7.93138e-05
-0.00142536
-0.000198612
0.00282577
0.00169081
-0.00806523
-0.00625815
0.00136912
0.000347423
-0.000921261
-0.0013606
0.00159243
0.00136306
-0.00154939
-0.00102551
0.000555616
-0.00153405
-0.0031602
-0.000159846
0.000159215
-0.000176975
0.0014841
-0.00198414
-0.00282358
0.00343564
0.00768739
-0.00257049
-0.0104062
-0.000923724
0.00153985
0.000331023
0.00280746
-0.00123999
-0.00459761
0.00437707
0.00290617
-0.00790938
-0.00954934
-0.00134205
0.0037688
0.000546962
-0.00157975
-0.0006065
0.0032351
0.00122949
-0.00888889
-0.00623788
0.00212661
0.000848864
-0.00127783
-0.00143821
0.00237966
0.00243683
-0.00157846
-0.00113032
0.00121104
-0.00175849
-0.00381368
0.000402495
0.00111148
-0.000200686
0.00151618
-0.00125727
-0.00317341
0.00364224
0.00807421
-0.00283382
-0.00975434
-0.000430634
0.00222631
0.000881244
0.00328591
-0.00197571
-0.0046703
0.00494092
0.00392519
-0.00881838
-0.0101056
-0.000331142
0.00515654
0.00116948
-0.00164851
-0.000464644
0.00397078
0.00120157
-0.00925222
-0.00491935
0.0028309
0.00054818
-0.00158404
-0.00108599
0.00352541
0.00316765
-0.00183773
-0.00120057
0.00152927
-0.00204947
-0.00383844
0.00146933
0.00229956
-0.000690072
0.00166749
-0.000882474
-0.00345236
0.00344815
0.00726261
-0.00323443
-0.00986853
-0.000681361
0.00239194
0.00146237
0.00366324
-0.00233647
-0.00574627
0.00458799
0.00439781
-0.00818222
-0.008044
0.00192268
0.00647445
0.00128277
-0.00169616
2.24333e-05
0.00570666
0.00109651
-0.00926283
-0.00347626
0.00283533
1.22617e-05
-0.00151222
-0.000428707
0.00448111
0.00335735
-0.00243927
-0.00162942
0.00160227
-0.00208338
-0.00365752
0.00212996
0.00297343
-0.000749241
0.00174633
-0.00162622
-0.00383495
0.00347613
0.00714749
-0.00339105
-0.0101682
-0.00126224
0.00237096
0.00194208
0.00375858
-0.00283352
-0.00698324
0.004954
0.00497875
-0.00674153
-0.00586813
0.0034216
0.00722605
0.00111668
-0.00158689
0.000469221
0.00480906
-8.85906e-06
-0.00896124
-0.00291304
0.00251412
-0.000260025
-0.00110258
0.000116279
0.0049027
0.00310697
-0.00266763
-0.00187286
0.00129908
-0.002477
-0.00393119
0.00225207
0.00330166
-0.00057391
0.00117529
-0.00266371
-0.00369094
0.00380139
0.00702814
-0.00362964
-0.0104997
-0.00160043
0.00246401
0.00223011
0.00360388
-0.00366916
-0.00742795
0.00623303
0.00564832
-0.00591551
-0.00533729
0.00361675
0.00747315
0.000944602
-0.00190276
-0.000207075
0.00422007
-0.000593586
-0.00851754
-0.00243691
0.00236207
-0.000359814
-0.000689297
0.00043887
0.00492034
0.00292597
-0.00229119
-0.0018203
0.000784446
-0.00288917
-0.00373262
0.00219973
0.00254118
-0.000482441
0.000609736
-0.00352976
-0.00344312
0.00403339
0.00690258
-0.00392491
-0.0107824
-0.0016999
0.00270544
0.0026643
0.00349099
-0.00460063
-0.00707512
0.00729295
0.00575383
-0.00583079
-0.00552844
0.00340243
0.00701659
0.000698631
-0.00200999
-0.000235478
0.0038825
-0.00079923
-0.00828276
-0.00225242
0.00208475
-0.000393256
-0.00030962
0.000708478
0.00477381
0.00298833
-0.00164783
-0.00161438
-6.29526e-05
-0.00303816
-0.00321357
0.00207434
0.00203586
-0.000368984
8.50072e-05
-0.00417384
-0.00322198
0.00422683
0.00669933
-0.00417134
-0.0108603
-0.00154734
0.00303346
0.00299222
0.00325969
-0.00508394
-0.00647017
0.00803774
0.00559878
-0.00589588
-0.00559752
0.00320841
0.00671368
0.000546611
-0.00206858
-0.000236278
0.00397422
-0.000864652
-0.00826328
-0.00218122
0.00214096
-0.000235123
4.94047e-05
0.000887501
0.00462883
0.00307494
-0.00123349
-0.00184497
-0.000570662
-0.00274527
-0.00265599
0.00188426
0.00157258
-0.000249753
-0.000493533
-0.00453092
-0.0028854
0.00434408
0.00647404
-0.00429821
-0.0106452
-0.00128163
0.00337848
0.00308461
0.00300585
-0.00533682
-0.0059688
0.008472
0.00536203
-0.00590225
-0.00551339
0.00312321
0.00647912
0.000437035
-0.00215961
-0.000152846
0.00422214
-0.000989
-0.00824965
-0.0020551
0.00220787
-0.00011094
0.000234379
0.000964997
0.00455176
0.00311483
-0.00113722
-0.00206032
-0.000587445
-0.00239688
-0.00233041
0.0017123
0.00129802
-0.000194736
-0.000812452
-0.00459297
-0.00251556
0.0044011
0.00627963
-0.00435925
-0.0103216
-0.000986287
0.00363544
0.00292435
0.00282784
-0.00542737
-0.0056879
0.00841617
0.00512018
-0.00586773
-0.00525998
0.00308241
0.00617149
0.000378184
-0.00209594
0.00012226
0.00430049
-0.00126209
-0.00804491
-0.00188179
0.00217629
-7.10562e-05
0.000272025
0.00100614
0.00449163
0.00308992
-0.00116343
-0.00212247
-0.000459684
-0.00220346
-0.00218584
0.00159011
0.00116394
-0.000182718
-0.000850904
-0.00447224
-0.00232896
0.00443923
0.00611295
-0.00440533
-0.00989521
-0.000722013
0.00373077
0.00275632
0.00279964
-0.00539805
-0.00555452
0.00822564
0.00489754
-0.00568236
-0.00499329
0.00301692
0.0059213
0.000500821
-0.00183617
0.000354181
0.00416903
-0.0014819
-0.0078627
-0.00185578
0.00213693
-5.62578e-05
0.000260593
0.00104789
0.00444726
0.00305636
-0.00118901
-0.0020758
-0.000391897
-0.00212784
-0.00212193
0.00151305
0.0011188
-0.00016173
-0.000810906
-0.00437754
-0.00225786
0.00444028
0.00600057
-0.00439175
-0.00952146
-0.000569021
0.00372329
0.00270406
0.00280131
-0.00534585
-0.0054138
0.00804908
0.00472182
-0.0055155
-0.0048104
0.00298369
0.005825
0.000640729
-0.0016789
0.000422248
0.00403929
-0.00154713
-0.00777093
-0.00181325
0.00211843
-5.71195e-05
0.0002523
0.00109894
0.00442781
0.00301128
-0.00120895
-0.00205629
-0.000386436
-0.00210036
-0.0020938
0.0014692
0.00108572
-0.000146485
-0.000782673
-0.00434978
-0.00223438
0.00442216
0.00590641
-0.00439243
-0.0093345
-0.00049232
0.00370226
0.00263957
0.00279442
-0.00530255
-0.00527525
0.00793763
0.00458837
-0.00544278
-0.00470661
0.00297199
0.00576619
0.000675591
-0.00162533
0.000443144
0.00401
-0.00158116
-0.00775817
-0.00177426
0.00211102
-6.63032e-05
0.000250431
0.00112263
0.00442362
0.0029751
-0.00122536
-0.00206881
-0.000401663
-0.00209652
-0.00208359
0.00144295
0.00104681
-0.000149518
-0.000778745
-0.00434812
-0.00222611
0.0044046
0.00586704
-0.00443168
-0.00929578
-0.000454059
0.00369477
0.00260707
0.00277054
-0.00527707
-0.00519583
0.00789777
0.0044956
-0.00543949
-0.00466566
0.0029694
0.00571687
0.000657473
-0.0016095
0.000453269
0.00397448
-0.00161865
0.000284403
6.56261e-05
-0.000185783
0.000257042
0.000213183
-0.00014802
0.000127902
0.00017126
5.55776e-05
0.000145316
5.51442e-07
8.78265e-05
0.000231947
4.5918e-05
9.07018e-05
0.000229753
0.000158017
8.05753e-05
8.72091e-05
0.000228495
0.000162745
-7.47201e-05
0.000192683
0.000280761
-8.36768e-05
7.76371e-05
0.000196874
3.77805e-06
0.000142232
0.000120328
2.15064e-05
0.000102049
4.3623e-05
0.000113553
0.000139307
-4.04733e-05
7.97559e-05
0.000231301
-3.1623e-05
-5.28553e-05
0.000354212
-4.20131e-05
-0.000171088
0.000333001
0.00012433
-0.000133788
0.000127454
0.000130095
0.000175357
1.32034e-05
-5.80252e-05
0.000269138
9.62507e-05
2.69179e-05
0.000177284
9.61357e-05
0.000218792
0.000132308
7.26544e-06
0.00025873
0.000168963
-5.05986e-05
0.000253765
0.000234179
-0.000105741
0.000196669
0.00017678
-3.46669e-05
0.000259618
4.50817e-05
-2.61464e-05
0.000246503
-4.74509e-05
6.95894e-05
0.000267941
-0.0001375
4.32627e-05
0.000322767
-0.00011514
-5.67043e-05
0.000317338
-0.00013468
-3.67972e-05
0.000342434
-1.27366e-05
2.17264e-05
0.000110785
7.32358e-05
0.000279259
-0.000178445
-1.51688e-05
0.000392804
-0.000105803
8.69401e-05
0.000211323
-2.1102e-05
0.000285809
0.000119126
-5.40795e-07
0.000259429
0.00013804
4.60492e-05
0.000279264
0.000108412
-4.2506e-05
0.000285796
6.87091e-05
2.36466e-05
0.000330117
-6.88681e-05
4.21299e-05
0.000277715
-0.000111317
0.000131713
0.000254896
-0.000175353
0.000111496
0.000273347
-0.000147882
4.2893e-05
0.00019851
-0.000181901
0.000121858
0.000262403
-9.9763e-05
0.000188587
4.18077e-05
8.27271e-05
0.000299434
-0.000356056
0.00015079
0.000356284
-0.000235981
0.000240431
0.000120304
-1.46505e-05
0.000325893
7.23846e-05
6.33825e-05
0.000195796
0.000143415
0.000182057
0.000199163
1.13004e-05
7.64636e-05
0.000303711
-3.33239e-05
0.000171838
0.00032354
-0.000145726
0.000119498
0.000209146
-7.82e-05
0.000162817
9.37536e-05
-0.000107816
0.000142101
0.000125719
-0.000103998
0.000125254
9.27776e-05
-0.000208005
0.000244133
0.000167879
-9.88569e-05
0.000321776
-4.61468e-05
0.000167922
0.000200894
-0.000437107
0.000365471
0.000163775
-0.00023331
0.00033446
-1.57751e-05
7.07821e-05
0.000273706
9.78292e-05
0.000126199
0.000100904
0.000234438
0.000208213
0.000138346
1.4405e-05
0.00016452
0.000253847
-6.53912e-05
0.000300052
0.000266974
-0.000154869
0.000125806
0.000139077
3.65652e-05
0.000109304
2.18792e-05
3.62074e-05
0.000109214
2.54517e-05
-4.24273e-05
0.000178235
-2.12537e-07
-0.000234919
0.000346894
7.83394e-05
8.30681e-06
0.000414467
-0.000106185
0.000243475
1.43688e-05
-0.000388499
0.000488187
-6.36809e-05
-0.000113643
0.000303162
-9.10448e-05
0.000190772
0.000191895
0.000169257
8.10937e-05
8.24997e-05
0.000382871
0.000121559
0.000111772
6.12611e-05
0.00019366
0.00019509
-4.5632e-05
0.000400334
0.000211947
-0.000155694
8.36354e-05
0.000161941
0.000109647
-1.80933e-05
2.57385e-05
0.000135317
3.83662e-05
-3.86338e-05
-9.18061e-06
0.000230936
-0.000144411
-0.00025066
0.000449615
-7.87779e-06
0.000130847
0.000481846
-0.000120282
0.000278497
-0.000203701
-0.000244341
0.000506867
-0.000223278
3.49486e-05
0.000175441
-8.13973e-05
0.000232189
0.000157359
0.000276539
-9.0494e-05
0.000189037
0.000464251
1.53545e-06
0.000154658
5.63546e-05
0.000191105
0.000135846
7.68452e-07
0.000478128
0.000170629
-0.00019769
5.61618e-05
0.000255133
9.2304e-05
-0.00012444
8.55907e-05
0.000190708
-2.64376e-05
-0.000113708
4.56446e-05
0.000281183
-0.000338873
-0.000205603
0.000541432
-0.00010118
0.000280788
0.000538103
-0.000111946
0.000266623
-0.000335407
-6.66951e-05
0.000457988
-0.000291162
0.000114407
3.83112e-05
-1.40465e-05
0.000208799
0.000209363
0.000289613
-0.000249937
0.0003779
0.00047163
-9.07638e-05
0.000182312
1.60585e-05
0.00017757
6.91364e-05
7.10712e-05
0.000565125
0.000132292
-0.000276634
7.51547e-05
0.000335521
5.28256e-06
-0.000188251
0.000151836
0.000242539
-0.000113112
-0.000233176
0.000136961
0.000266672
-0.000513403
-0.000126893
0.000607466
-0.000157816
0.000465619
0.000574336
-9.78749e-05
0.000219642
-0.000442114
8.11803e-05
0.000365791
-0.000305318
0.000119014
-6.13123e-05
7.49997e-05
0.000172201
0.000298075
0.000208855
-0.00036833
0.000593104
0.000452171
-0.000145802
0.000158133
-1.05774e-05
0.000151354
1.34046e-05
0.000180414
0.000644835
8.03499e-05
-0.000362655
0.000135746
0.000382745
-9.28002e-05
-0.000229687
0.000236695
0.000305947
-0.000226817
-0.000268834
0.000238738
0.000177288
-0.000674467
-2.84901e-05
0.000645701
-0.000195305
0.000670973
0.00061965
-0.000102868
0.000157949
-0.000533009
0.000186645
0.000293531
-0.000307476
6.59532e-05
-0.000115013
0.000151372
0.000162808
0.000415101
7.38128e-05
-0.000442253
0.000791117
0.000457615
-0.000190405
8.54526e-05
-3.18863e-05
0.000123631
-1.36619e-05
0.000280582
0.000708002
3.33027e-05
-0.000448989
0.000201648
0.000411728
-0.000186789
-0.000271203
0.000348118
0.000364188
-0.00034635
-0.000245717
0.000314629
1.47898e-05
-0.000826674
9.12021e-05
0.000664951
-0.00022295
0.000916837
0.000667423
-0.000103259
8.78663e-05
-0.00062301
0.000261209
0.00024233
-0.000323118
2.24659e-06
-0.000132622
0.000212778
0.000176054
0.000557514
-8.3342e-05
-0.000484151
0.000968385
0.000462721
-0.000269519
-3.72857e-06
-4.84266e-05
0.000105083
-2.32963e-05
0.00035827
0.000772971
-8.18178e-06
-0.000557631
0.000246069
0.000443662
-0.000268313
-0.000310411
0.000476952
0.000403032
-0.000445632
-0.000211087
0.000340096
-0.000110109
-0.000983208
0.00024343
0.000657608
-0.000301064
0.00115979
0.000711757
-9.07977e-05
1.10098e-05
-0.000742706
0.000347261
0.00020994
-0.000358958
-7.17506e-05
-0.000130323
0.000305364
0.000192655
0.000634711
-0.000261711
-0.000498382
0.00115813
0.000456589
-0.000404915
-7.70559e-05
-5.2108e-05
0.000116645
-3.85267e-05
0.000414696
0.000900893
-5.14736e-05
-0.000713358
0.000276444
0.000490698
-0.000358396
-0.000374589
0.000600579
0.000445502
-0.000529778
-0.000175931
0.00031335
-0.000345335
-0.00112605
0.000448601
0.000628156
-0.000298831
0.00136226
0.000734938
-5.43281e-05
-7.4355e-05
-0.000868547
0.000400301
0.000170604
-0.000393349
-0.000136552
-0.000121835
0.00043237
0.000225466
0.000671789
-0.000454312
-0.000492184
0.0013587
0.000420861
-0.000624335
-0.000235921
-4.11094e-05
0.000139051
-0.000112271
0.000474039
0.00105444
-0.000126261
-0.000929162
0.000313217
0.000583486
-0.000450827
-0.000472828
0.000690741
0.000486924
-0.000606853
-0.000123523
0.000244625
-0.000600315
-0.00125931
0.000680446
0.000614947
-0.000205179
0.00152466
0.000761403
1.47244e-05
-0.00021864
-0.00101038
0.000468103
0.000114435
-0.000410178
-0.000204691
-6.8048e-05
0.000582231
0.000217669
0.000652412
-0.000680648
-0.000457671
0.00160147
0.000344101
-0.000878683
-0.000379072
3.3042e-06
0.000161505
-0.000253524
0.000542067
0.00125285
-0.000255035
-0.00124918
0.000309183
0.000717298
-0.00055547
-0.000602314
0.000752093
0.000543828
-0.000703687
-2.73169e-05
0.000140811
-0.000852412
-0.00133114
0.00088445
0.00062254
-0.000122412
0.00160036
0.000819708
0.00011845
-0.000412583
-0.00116011
0.00050804
4.39453e-05
-0.000496188
-0.00031649
-1.52453e-06
0.000760575
0.000227281
0.000603421
-0.000936264
-0.000422803
0.0018261
0.000208668
-0.00107213
-0.000495309
5.19309e-05
0.000138093
-0.000488954
0.000628448
0.00150158
-0.000434293
-0.00167412
0.000282671
0.000823654
-0.000719201
-0.000810215
0.000775275
0.000628704
-0.000820355
7.76543e-05
6.77269e-06
-0.00118505
-0.00143958
0.00099167
0.000667035
-3.66247e-05
0.00155532
0.000964422
0.000194923
-0.000685501
-0.00132301
0.000527108
-6.77167e-05
-0.000664471
-0.000406974
0.000166176
0.000859234
0.000175597
0.000470681
-0.00121076
-0.000353442
0.00198427
1.84253e-05
-0.00134838
-0.000589118
7.61012e-05
5.57538e-05
-0.000885784
0.000653246
0.00174064
-0.000665141
-0.00223083
0.000264467
0.00089278
-0.00088575
-0.000989675
0.000877754
0.000685767
-0.000916997
0.000131862
-0.000189685
-0.00154856
-0.00155604
0.00116251
0.000709328
3.24618e-05
0.00133432
0.00092839
0.000268844
-0.0010897
-0.00161785
0.000469409
-0.000215729
-0.000975925
-0.000560461
0.00036822
0.00108798
0.000120129
0.00028488
-0.00151838
-0.000250845
0.00219456
-7.86419e-05
-0.00168936
-0.000910185
7.90389e-05
-4.63021e-05
-0.00143821
0.000692718
0.00201871
-0.000978246
-0.00293179
0.000133395
0.000892305
-0.00115596
-0.00107406
0.000939662
0.000738379
-0.0010136
0.000124802
-0.000336364
-0.00183826
-0.00164756
0.00153642
0.000993757
-0.000224729
0.000834234
0.000529938
0.000337105
-0.00147427
-0.00195491
0.000225302
-0.00050192
-0.00139749
-0.000727322
0.000533402
0.00129755
3.24413e-05
0.000102797
-0.00185422
-0.000135036
0.0025597
-0.000165123
-0.001982
-0.0010634
3.2729e-05
-0.000204511
-0.00185604
0.000905674
0.00221654
-0.00123243
-0.00351819
-5.94806e-05
0.000787096
-0.00132002
-0.00109606
0.00111975
0.000689714
-0.00115026
0.000137111
-0.000257132
-0.00169428
-0.00180283
0.0022838
0.00138629
-0.000276715
0.000431902
0.000100033
0.000108407
-0.00176981
-0.00209566
0.000134259
-0.000633149
-0.00187795
-0.00109382
0.000590427
0.00145279
0.000156346
-0.000343847
-0.00226605
-5.10049e-05
0.00306157
4.5359e-05
-0.00208901
-0.000810453
-3.71874e-06
-0.000375614
-0.00201237
0.00153177
0.00277495
-0.00259989
-0.00424954
-0.000215506
0.00136708
-0.00133238
-0.00145486
0.00115389
0.000674868
-0.00130186
-1.86008e-08
-0.000196235
-0.00152618
-0.00239509
0.00281766
0.00222914
-8.16454e-05
0.000500824
0.000225303
-6.85472e-05
-0.00210403
-0.00228924
0.000270497
-0.000378275
-0.00239101
-0.00169278
0.000458098
0.00155005
0.000555643
-0.000833556
-0.00274347
-0.000147681
0.00330319
8.4633e-05
-0.00210976
-0.00060441
0.000155298
-0.00038689
-0.0021647
0.00229915
0.00345832
-0.00318283
-0.00522286
-0.000431714
0.00196229
-0.000730668
-0.00192199
0.00110304
0.0006451
-0.00144554
-0.000287161
-0.000645191
-0.00205911
-0.00258592
0.00264892
0.00244713
-4.32128e-05
0.000633068
0.000783094
0.000155216
-0.00241238
-0.00259564
0.000519792
-2.24013e-05
-0.00259114
-0.00273438
0.00038966
0.00167097
0.000790912
-0.00130557
-0.00308769
-0.000305797
0.00332302
7.65309e-05
-0.00212649
-0.00052573
0.000460426
-0.000313353
-0.00193587
0.00303528
0.00393588
-0.00329188
-0.00560306
-0.000525852
0.00251643
-9.80679e-05
-0.00268928
0.00108867
0.00075911
-0.00146031
-0.000304162
-0.000621618
-0.00263256
-0.0020403
0.00304072
0.00260826
-0.000363405
0.000609133
0.00141677
0.000197802
-0.00292098
-0.00306513
0.000734971
4.3452e-05
-0.0025334
-0.00255844
0.000924952
0.00211081
0.00098507
-0.00152721
-0.00379896
-0.000519585
0.00343099
5.12232e-05
-0.00239261
-0.00114146
7.84599e-06
-0.000498087
-0.00180372
0.00338505
0.00445956
-0.00367287
-0.00589027
-0.00050003
0.00326494
0.000127591
-0.00306123
0.000881573
0.000721734
-0.00128316
3.70083e-05
-0.000514994
-0.00296954
-0.000722522
0.00342569
0.0024798
-0.000926174
0.000211364
0.0017317
0.000329904
-0.0036298
-0.00322112
0.00113736
0.000145738
-0.00276941
-0.00237338
0.00126191
0.00244091
0.00162114
-0.0018705
-0.0048324
-0.00113337
0.00344358
0.000293362
-0.0024899
-0.00192545
-0.000743182
-0.000805785
-0.00151819
0.0038639
0.00502576
-0.00418969
-0.00619874
-0.000344002
0.00412409
0.000605572
-0.00271696
0.000524509
0.000713347
-0.00124072
-0.000272664
-0.000987187
-0.00275067
-7.05307e-05
0.00332232
0.00223039
-0.00114044
0.000628925
0.00201666
0.000157352
-0.00455176
-0.00296412
0.00182136
0.00034177
-0.0034831
-0.00234301
0.00153141
0.00294528
0.002128
-0.00231718
-0.00554874
-0.00144074
0.00372624
0.00125425
-0.00259994
-0.00280617
-0.00157675
-0.00119289
-0.00126618
0.00448848
0.00570007
-0.00468666
-0.00672808
-0.000190803
0.00461164
0.00119062
-0.00244267
0.0001377
0.000702694
-0.0015678
-0.000766251
-0.000972458
-0.00194799
-8.16038e-05
0.00329618
0.00218688
-0.00129753
0.000541108
0.00195256
2.70318e-06
-0.00506018
-0.0024609
0.00243253
0.000132678
-0.0040867
-0.00196445
0.00192734
0.00320708
0.00231183
-0.00260251
-0.00599764
-0.0017138
0.00413604
0.00242342
-0.00292202
-0.00393213
-0.00229422
-0.00151338
-0.000787725
0.00517492
0.00622084
-0.00524572
-0.00738021
-0.000143269
0.00445888
0.00110915
-0.00242259
-6.73871e-05
0.000606892
-0.00179829
-0.000730632
-0.000182541
-0.00133046
-0.000184406
0.0035371
0.00224054
-0.00162633
0.000293162
0.00198045
3.05369e-05
-0.00479583
-0.00213628
0.00252322
-8.71234e-05
-0.00424371
-0.00148389
0.00202816
0.00327732
0.00283608
-0.00282927
-0.00667522
-0.00198661
0.00480997
0.00325057
-0.0037383
-0.00509329
-0.00234176
-0.00124544
-0.000183024
0.00581002
0.00628527
-0.00589827
-0.00811604
-0.000434345
0.00391642
0.00105839
-0.00236251
-9.56583e-05
0.000745925
-0.00175917
-0.000280662
0.00046752
-0.00114327
-0.0003124
0.0037442
0.00226181
-0.00193606
0.000192482
0.00200636
5.56008e-05
-0.00433032
-0.00186294
0.00232096
-0.000182057
-0.00406181
-0.0011895
0.00201577
0.00336363
0.00302811
-0.00309507
-0.00737665
-0.00199166
0.00576287
0.00361061
-0.00457802
-0.00596074
-0.00170266
-0.000566065
0.000174433
0.00646933
0.00640444
-0.0066625
-0.00889365
-0.000899089
0.00350148
0.00111606
-0.00223331
5.47822e-05
0.000862435
-0.00168065
0.000256496
0.000974935
-0.001252
-0.000404916
0.00385508
0.00232786
-0.00211203
0.000150703
0.0018218
0.000155611
-0.003952
-0.00188788
0.00215791
-9.90317e-05
-0.00386013
-0.00105499
0.00200731
0.00347864
0.00304785
-0.00333653
-0.0077106
-0.0016867
0.00669347
0.00386467
-0.00510168
-0.00616442
-0.00114782
-0.000125243
0.000360539
0.00718682
0.00673025
-0.00710445
-0.00912649
-0.00123103
0.00343235
0.00125511
-0.00205391
0.000150291
0.000819963
-0.00156572
0.000821269
0.00131957
-0.00160359
-0.000357078
0.00409396
0.00236413
-0.00218561
0.00012819
0.0017032
0.000345238
-0.003807
-0.00201137
0.00222564
5.07737e-05
-0.00370989
-0.000993464
0.00198155
0.00358561
0.00300728
-0.00351272
-0.00778783
-0.00114806
0.00768845
0.00399977
-0.00508623
-0.0060901
-0.00100484
1.30756e-05
0.000657615
0.00792021
0.00703953
-0.00721338
-0.00903778
-0.00132883
0.0036352
0.00141591
-0.00188713
0.000209906
0.000747764
-0.00131688
0.00123351
0.00134953
-0.00185895
-0.000252323
0.00407379
0.00236419
-0.00213928
0.000155062
0.00163517
0.000420379
-0.00380614
-0.00200484
0.0023386
0.000123799