/*--------------------------------*- C++ -*----------------------------------*\
  =========                 |
  \\      /  F ield         | OpenFOAM: The Open Source CFD Toolbox
   \\    /   O peration     | Website:  https://openfoam.org
    \\  /    A nd           | Version:  10
     \\/     M anipulation  |
\*---------------------------------------------------------------------------*/
FoamFile
{
    format      ascii;
    class       volScalarField;
    location    "45";
    object      p;
}
// * * * * * * * * * * * * * * * * * * * * * * * * * * * * * * * * * * * * * //

dimensions      [0 2 -2 0 0 0 0];

internalField   nonuniform List<scalar> 
25600
(
-0.00796193
-0.000427688
0.00518059
0.0138205
0.00550057
-0.0348798
-0.0385372
0.00242947
0.000753891
0.0135564
0.0558837
0.0110005
0.0114981
0.0105377
-0.00369481
-0.0040433
0.0196423
0.0549137
-0.0162323
-0.00818679
0.0603449
0.0481797
0.00389626
0.0149548
-0.00349174
-0.026732
-0.0171488
0.00999732
0.0134687
-0.029305
-0.0216132
0.0275844
0.0324986
-0.0157082
0.0386391
0.0442468
0.0354261
-0.0110384
-0.0188829
0.0178546
-0.0149994
-0.0090269
0.0111745
-0.0116974
-0.0475011
0.00189013
0.0280008
0.0258625
0.0227921
0.0112323
0.0325517
0.024088
0.00223574
-0.0246239
-0.001824
0.0112298
-0.0453749
-0.0317638
0.0131492
0.00122593
-0.0346269
0.00364579
-0.0108026
-0.0172005
-0.0206602
-0.0244089
0.0213459
0.0118336
-0.0074197
-0.0168269
-0.016606
0.00264057
0.00508952
-0.00660591
-0.00730562
0.00562504
0.00393559
-0.0266943
0.00300982
0.00715314
0.00302077
0.0098712
0.0079027
-0.0356874
-0.0112584
0.0231854
-0.0107857
-0.0245542
-0.00541129
-0.00107778
0.0283344
0.0216237
-0.00577865
-0.00900287
0.0220613
0.0223624
-0.0130108
0.00488816
-0.00579121
-0.016458
-0.00240948
0.0193185
0.00440091
0.00750841
-0.0100744
-0.00775011
-0.0170104
-0.0127393
-0.0145108
-0.0180677
0.0160598
0.0107547
-0.0164298
-0.0140836
0.00940874
-0.0139093
-0.0232396
-0.0362668
-0.0442169
-0.017588
0.00322946
0.0159263
0.000984142
-0.0368089
-0.0239851
0.00959746
0.0054372
0.000537643
-0.00723809
0.0302444
0.0355137
-0.0186306
-0.0259744
-0.00163362
-0.0127837
-0.00120652
-0.025261
-0.00489016
-0.000364156
0.0029082
0.00813497
-0.0094551
0.014744
0.0340374
-0.0113151
-0.0207372
0.00271847
0.00844378
-0.00753687
-0.0294279
-0.0269735
-0.0176359
0.00500892
0.00394366
0.0203723
-0.0119836
-0.0479748
-0.0353814
-0.00818414
0.0015106
-0.0134173
0.000410377
-0.0221009
-0.0445625
0.00202383
0.0253285
0.00329231
0.00801184
-0.00480624
0.00382492
0.0117941
-0.0106486
-0.0165562
-0.028135
0.00367465
-0.0089161
-0.0442654
-0.0070761
0.0168406
0.0115361
-0.0083704
-0.0306838
0.0113096
-0.0134973
-0.0454245
-0.0329553
0.00144554
-0.0196671
-0.0253477
-0.0138899
0.00659378
0.01356
-0.018061
-0.0178529
-0.00806119
-0.0154235
0.0218036
0.00694678
-0.0233935
0.00784828
-0.0395462
-0.0433341
-0.0368738
-0.00296188
-0.00549145
-0.0180374
-0.00812967
-0.00383553
-0.0111394
0.00854239
0.0149182
-0.0170026
-0.0138614
0.00614191
0.0171071
-0.0125134
-0.0336487
0.0204896
0.00415677
-0.0328288
-0.0152494
-0.0362001
-0.0470208
-0.00981998
-0.0179882
-0.0083165
-0.000673898
-0.0310012
-0.0285963
0.00783593
-0.00583474
-0.018384
-0.0104528
0.00231357
-0.0070318
-0.000981964
-0.0152667
-0.0116536
0.0141157
-0.00561768
0.000991221
0.0243336
-0.0177519
-0.0149693
0.00164292
0.00110441
0.00398778
0.0240561
0.013891
0.0119635
-0.00270192
-0.00686828
0.0221076
0.0216239
0.0164405
0.0186057
0.00438617
0.00732514
-0.00990056
-0.014631
-0.00503997
0.0166171
0.0101978
-0.040398
-0.0234934
-0.00351373
0.0115272
0.00143485
-0.0228151
0.00155705
-0.000781291
-0.0167383
0.00348283
-0.00369414
0.000698979
0.00681214
-0.0276153
0.00127576
-0.00402414
-0.0549333
0.0494573
0.0103168
-0.0564723
-0.0335795
0.0255885
0.00444512
0.00274774
0.01824
0.0060545
-0.0180068
-0.015517
0.0337358
0.0211206
-0.00617312
0.00559569
-0.0057392
0.00894492
0.00345473
0.00425531
0.00815694
0.0215527
0.0146675
-0.0149368
-0.00242074
-0.00913177
0.00216469
0.0124442
-0.00465257
-0.0400971
0.00443777
0.0377063
-0.0171985
-0.0118502
0.0186356
-0.00688103
0.00233744
-0.00163982
-0.00255759
-0.0106471
0.0182057
0.0414772
-0.0360842
-0.0588606
-0.0239566
-0.0324949
-0.00918073
0.00972407
0.00691973
-0.000772264
-0.0385566
-0.0472612
0.00788778
6.83028e-05
-0.0185072
-0.0190636
-0.0141
0.0065807
0.00781444
-0.0148641
-0.00661634
-0.010494
-0.00547674
-0.00054609
-0.0209243
-0.00856792
0.00184068
-0.00201041
0.017508
-0.0149315
0.0147243
-0.00136132
-0.0417884
-0.00941804
0.0307934
0.0113623
0.01318
-0.00238638
0.00387201
-0.00853159
-0.00450987
0.0154178
-0.0703888
-0.0400973
-0.027717
-0.0503795
-0.00874945
-0.00110921
0.000960922
-0.0082646
-0.0343276
-0.0169377
-0.0147628
-0.0137072
0.0116355
-0.0119687
-0.0101931
0.00921455
0.00121383
-0.0171141
-0.000582497
-0.00286416
0.011137
-0.00627319
-0.00440486
0.00451172
-0.00924629
0.0118117
0.00496284
-0.00226356
0.0174816
-0.0206709
-0.0424488
-0.000371966
0.0377275
0.00866289
-0.0197853
-0.00993684
-0.00434241
-0.0025019
0.0489908
-0.00632952
-0.0418014
-0.0257208
0.00458791
0.0166813
0.00564463
0.00557384
0.000667232
-0.0192114
-0.00733465
0.0179453
-0.010229
-0.00447806
-0.00340753
-0.0223889
-0.0064871
0.012419
-0.00430107
-0.011821
0.00623649
0.00671708
0.00769881
-0.000861962
0.0130414
-0.000618881
-0.00210578
0.0107259
0.00407569
-0.0159542
-0.0084179
-0.0124683
-0.0307145
0.00290905
0.00970253
-0.0129848
-0.0223203
-0.00903291
-0.0104685
-0.000410207
0.0106769
0.00136784
-0.0462783
-0.0204722
0.015191
-0.000242623
5.3574e-05
0.00247595
-0.00607174
-0.00869417
0.0164545
0.0223237
-0.00531377
-0.00341369
-0.00502443
-0.0158393
-0.00631451
0.0149107
-0.00154512
-0.0154768
-0.000216074
0.012137
0.00888066
0.00908101
0.029422
0.0144752
-0.0316059
-0.00330956
0.0105854
-0.0198188
-0.000955652
0.00968093
-0.00953931
0.00846674
-0.00162658
-0.029225
-0.0286424
-0.00125789
-0.000981238
-0.0206753
0.000257278
-0.00755511
-0.0514618
-0.0122578
0.0077688
0.00248352
-0.00225633
-0.0106065
-0.00837809
-0.00499556
0.0202996
0.0177537
-0.014334
-0.0135772
-0.00191217
-0.00638664
-0.0143578
0.0107207
-0.00233512
-0.0274287
-0.0074909
0.0168572
0.0111189
0.0139189
0.0244928
-0.00411452
-0.0318973
0.00581029
-0.0173186
-0.0378999
0.0174253
0.00634615
-0.0109046
0.0205684
0.00834156
-0.0349547
-0.0413767
-0.0156209
0.00357221
-0.00312682
0.0202824
-0.0107396
-0.042734
-0.0126904
0.0163021
0.0164652
-0.000555887
-0.00946559
-0.00856927
-0.0102002
0.0203271
0.0113047
-0.0196898
-0.0107261
-0.0118115
-0.00943019
-0.0111231
0.00697642
-0.0168068
-0.0309198
-0.00278051
0.0118317
0.0130342
0.000190384
-0.00634799
-0.015266
-0.0327233
-0.00577368
-0.04694
-0.0445513
0.0227157
0.00724935
-0.0062971
0.0305274
0.0218306
-0.0305678
-0.0509512
-0.0158005
0.013221
0.00149505
0.0200657
-0.0252765
-0.0376162
-0.0103144
0.0266581
0.0139334
-0.00368042
-0.00578084
-0.00194474
-0.0100399
0.0136976
0.0168545
-0.00937248
-0.0167678
0.00871771
0.0286731
-0.0075026
0.0124247
-0.0297738
-0.0426301
0.0107324
0.0200298
0.0186707
-0.0115999
-0.0230988
-0.0185028
-0.0342117
0.000785742
-0.029703
-0.031575
0.0264441
0.0179361
0.00525371
0.0272443
0.0177016
-0.0324872
-0.0413742
-0.00636119
0.0217999
-0.00195306
0.000212594
-0.032431
-0.0306272
-0.00822486
0.0302028
0.0207635
0.00520688
0.00142112
0.000224396
-0.0156998
0.00617736
0.0220069
-0.0195457
-0.0196168
0.0208906
0.0118536
-0.0337979
0.0108427
-0.0319549
-0.060633
0.0149721
0.0403575
0.0151411
-0.0155766
-2.39882e-05
0.00435415
-0.0149254
0.0242952
-0.00336268
-0.0190129
0.0309886
0.0190616
0.0076552
0.0256605
0.0154149
-0.0322276
-0.0377371
-0.0107995
0.0236174
0.00450513
-0.0170031
-0.0261151
-0.0266475
-0.00621049
0.0382277
0.0200548
0.00537191
0.00454383
-0.00617264
-0.0222802
0.0127282
0.0296496
-0.0247753
-0.0168458
0.0315707
-0.0144619
-0.0371988
0.00830941
-0.0230438
-0.0368385
0.0245623
0.0340564
0.00825747
-0.00703041
0.0123624
-0.00103688
-0.0160898
0.0212397
0.000925656
-0.0165193
0.0318211
0.0166248
0.00829261
0.0376834
0.0135283
-0.033197
-0.0390363
-0.00636948
0.0228876
0.0231393
-0.0224821
-0.0217707
-0.0177901
0.000403967
0.0379925
0.0143883
0.00493609
0.00855609
-0.014804
-0.028784
0.0274161
0.0381943
-0.030052
-0.0142816
0.0329615
-0.0119021
-0.0239754
0.00647223
-0.00445832
-0.0158829
0.0288244
0.0327543
0.0101614
-0.0103624
0.0129271
-0.0086364
-0.0223264
0.0178326
-0.00748341
-0.0213523
0.0364829
0.0231425
0.00780445
0.0416207
0.0161005
-0.029895
-0.0408659
-0.00952867
0.022937
0.000175084
-0.0395209
-0.015613
-0.0135329
0.00782112
0.0337
0.0119892
-0.0108511
0.0024695
-0.01607
-0.0335434
0.0332507
0.0300113
-0.0347832
-0.0194647
0.0336607
0.00109757
-0.0123903
0.00749479
0.00505677
-0.00446464
0.0234248
0.0297305
-0.00121326
-0.0144478
0.0200999
-0.0130927
-0.0321529
0.0118063
-0.00745398
-0.0157386
0.0521469
0.0247083
0.00450503
0.0329541
0.0217781
-0.0270648
-0.0484456
-0.018634
0.0261273
0.000722816
-0.052266
-0.0114485
-0.0120255
0.011784
0.0330195
0.00753134
-0.0258481
0.000368007
-0.0134597
-0.0354446
0.0353604
0.00947249
-0.0433077
-0.0150829
0.0344017
-0.00160233
-0.00920747
0.0116791
0.00517809
-0.0097179
0.0192528
0.0260868
-0.00384711
-0.00648137
0.0283613
-0.0160203
-0.0426437
0.00317536
-0.00122953
-0.0063165
0.0458334
0.017715
0.0054259
0.0214358
0.0202415
-0.0241473
-0.0576265
-0.0244232
0.0270091
0.0315052
-0.0532876
-0.0121458
-0.00973694
0.0111066
0.0350735
-0.00623739
-0.0297787
0.00854214
-0.00917473
-0.0357455
0.0360747
0.0110923
-0.0414531
-0.00394032
0.0330565
-0.010461
-0.00637578
0.0157567
0.00115372
-0.00370131
0.0270249
0.0260603
-0.00286277
0.011105
0.0439276
-0.0173357
-0.0500879
-0.00137264
0.000549914
-0.00155043
0.0389349
0.0129565
0.0106148
0.00780117
0.0106357
-0.0212205
-0.0659858
-0.0428144
0.032797
0.0329404
-0.0557426
-0.0284566
-0.00776084
0.0107195
0.0346705
-0.0185997
-0.0222674
0.0202895
-0.00535061
-0.032919
0.0420168
0.0440097
-0.0313862
0.00752713
0.027388
-0.0132641
-0.00180356
0.0184394
-0.00230922
-0.00395304
0.0324506
0.0274725
-0.00578893
0.0226672
0.0496131
-0.0225524
-0.0500201
0.00122211
-0.00156407
0.00205543
0.0368633
0.000851785
0.00925784
0.00161006
-0.00139217
-0.0196858
-0.0734648
-0.0337354
0.0481358
0.0319092
-0.0673262
-0.0075331
-0.00580139
0.00871407
0.0375723
-0.0204413
0.00222576
0.039991
0.000551447
-0.0306796
0.0546011
0.0697883
-0.0233646
0.0136355
0.0187916
-0.00766574
0.00482253
0.0173794
-0.00382325
-0.00644742
0.0308796
0.0295934
-0.00735022
0.0219325
0.0510603
-0.0166427
-0.0408517
0.0103236
-0.00042167
0.00231779
0.0188483
-0.010601
0.0041877
-0.000576363
-0.00699448
-0.0148641
-0.0774236
-0.017637
0.0683112
0.0185034
-0.0636606
0.0211595
-0.00298507
0.000763863
0.0388656
-0.0116381
0.020467
0.0490529
0.00386676
-0.0282632
0.0529166
0.0703404
-0.0191023
0.0139998
0.0125171
-0.00144203
0.00710252
0.0202274
-0.00549768
-0.00926434
0.0347934
0.0263955
-0.00448909
0.0279685
0.0587336
-0.00108797
-0.0253922
0.0189001
0.00131036
0.00553489
0.0252242
-0.000154953
0.0154023
-0.00847408
-0.0105669
-0.00650705
-0.0808363
-0.00256079
0.0934335
-0.000826667
-0.0341309
0.0356756
-0.00255119
-0.00209094
0.0321639
-0.00551046
0.0209627
0.0502778
0.00649517
-0.027017
0.0470436
0.0678704
-0.0136721
0.0187635
0.00977213
0.00186867
0.0127526
0.0305356
-0.00911974
-0.00440757
0.0392996
0.00391723
-0.00444917
0.0343382
0.0668539
0.00850602
-0.0213031
0.0260872
0.00452199
0.00296241
0.0283835
0.025975
0.0276291
-0.0138603
-0.0152642
1.11347e-05
-0.0845386
0.000498351
0.119602
-0.00572683
-0.00733056
0.0443685
-0.00174833
-0.00152775
0.0272061
0.000476141
0.0228396
0.0488561
0.00466601
-0.0214781
0.0458497
0.0623467
-0.00672213
0.0221628
0.00860471
0.00448679
0.0178588
0.0460944
-0.0186172
-0.00978247
0.0441991
-0.00136378
-0.0210158
0.0298909
0.0735622
0.0142106
-0.0170196
0.0287097
0.0084803
0.00277645
0.0253958
0.0554499
0.0359381
-0.0136522
-0.0120748
0.00288125
-0.0861729
0.00463123
0.140518
-0.000284955
0.00185435
0.0502256
0.000474208
7.75661e-05
0.0285118
0.00316765
0.0271186
0.046454
0.000732155
-0.0145513
0.0477669
0.0539903
-0.000642408
0.0253756
0.00736427
0.00578397
0.0184642
0.0562367
-0.0281958
-0.0248643
0.0599371
0.0130688
-0.0237307
0.0328612
0.0812359
0.0203539
-0.0161145
0.0247314
0.0117608
0.00317273
0.0280573
0.0807826
0.0487102
-0.0134209
-0.0044113
0.00478043
-0.0819346
0.0150404
0.152016
0.00719406
0.0043848
0.0529464
0.00219188
0.0025276
0.0317887
0.00412246
0.0308179
0.0429523
-0.0034472
-0.0106056
0.0503042
0.0478741
0.00520434
0.0280691
0.00600494
0.00674169
0.0207288
0.0580538
-0.0313159
-0.0417291
0.0796563
0.0271414
-0.0204635
0.0455989
0.086133
0.025484
-0.0131214
0.0243475
0.0109756
0.00629032
0.0358615
0.0940001
0.0601213
-0.0157753
-0.000516108
0.00927367
-0.0753158
0.0267436
0.15715
0.0129279
0.00638133
0.0523307
0.00178094
0.00520542
0.0339707
0.00502445
0.0338393
0.0376532
-0.00623565
-0.007819
0.0527414
0.0443904
0.0068039
0.0297779
0.0054268
0.00662953
0.0253389
0.0620405
-0.0251417
-0.0444915
0.0907129
0.0358643
-0.019689
0.053608
0.0901223
0.0295718
-0.00848828
0.0263676
0.00524153
0.00652943
0.0449003
0.09627
0.0656244
-0.0174967
0.00121601
0.0149671
-0.0731388
0.0311276
0.158393
0.01626
0.00718047
0.0522333
0.00173599
0.00671059
0.0385572
0.00841707
0.0360775
0.0355772
-0.00667062
-0.00422575
0.054173
0.0426395
0.00852235
0.0310326
0.00561292
0.00575284
0.0287988
0.0655171
-0.0204185
-0.0330799
0.0952894
0.0413305
-0.0187397
0.0568435
0.0928555
0.0297994
-0.00513337
0.0278838
0.00352751
0.0061774
0.051017
0.0976022
0.0677019
-0.0168447
0.00391063
0.0171954
-0.0749088
0.0352632
0.163595
0.0178371
0.00721516
0.0523589
0.00310059
0.00715961
0.0441377
0.0127589
0.0371795
0.0347691
-0.00638016
-0.00205238
0.0545599
0.0412331
0.0101121
0.0326529
0.00588911
0.0052615
0.0305307
0.0672944
-0.0215371
-0.0274917
0.0971568
0.0421301
-0.0176297
0.0586315
0.0940493
0.0296985
-0.00460938
0.0285622
0.00366613
0.00779217
0.0548784
0.0991248
0.0684074
-0.0159341
0.00469402
0.0167788
-0.0747149
0.0388456
0.164715
0.0188507
0.00758899
0.0529961
0.00389436
0.00918369
0.0466673
0.0136193
0.0374779
0.0354131
-0.00523912
-0.000545438
0.0548944
0.0413413
0.0116683
0.0329
0.00600262
0.00641969
0.0317413
0.0672383
-0.0199082
-0.0272814
0.0974923
0.0425078
-0.0161222
0.0598762
0.0944375
0.0301227
-0.00353103
0.0288102
0.00473688
0.0114036
0.0565714
0.098755
0.0685335
-0.0150278
0.00522074
0.0175612
-0.072002
0.0408589
0.1641
0.0193084
0.00924731
-0.0314079
0.0178206
-0.00907302
-0.0267074
-0.00873212
-0.0233268
-0.020965
0.0146477
-0.00563152
0.00654084
0.0136439
-0.00636876
0.0116816
-0.00343837
0.0121246
0.00614689
0.0247023
0.0583833
-0.0158634
-0.0485325
0.0208995
0.00994084
-0.00734946
0.0244075
0.00377346
-0.00887663
-0.0344424
-0.0322483
0.0100255
-0.0409074
-0.0340746
0.00353182
0.00870342
-0.0182469
-0.0109461
-0.0221552
-0.0491254
-0.0445302
-0.0105279
-0.047942
-0.00904277
0.00135639
0.00720315
0.00013013
7.19051e-05
-0.0175394
-0.0155248
-0.00174674
-0.00133462
0.0120331
-0.0127481
-0.0146129
-0.000590829
-0.00711933
0.00154905
-0.00884601
-0.00959949
-0.0199446
-0.0116017
-0.00491072
0.00862224
0.0256048
-0.0124403
-0.0089128
-0.0223871
-0.0273777
-0.0246157
-0.0196296
0.00113599
-0.00385712
-0.00736556
-0.00558059
-0.00896798
-0.0197468
-0.0122769
-0.0225048
-0.0165018
0.00283491
-0.00128433
-0.00638789
-0.00444141
0.00276545
-0.00636563
-0.0167371
-0.0249515
-0.00938171
0.0217633
0.0122711
-0.0052022
-0.00628137
-0.00334062
0.00570471
0.000393791
0.0290332
-0.00519191
-0.0198304
0.0165574
0.0105801
-0.0160677
0.000389508
-0.00661677
-0.0171807
-0.00875049
-0.0176589
-0.0190151
-0.0138322
-0.0113334
0.00734641
0.0212578
-0.00692366
-0.00839356
0.00010129
-0.0073541
-0.0061305
-0.00790152
-0.00324385
0.00783365
-0.0070184
-0.0403553
-0.0362093
-0.000459806
0.0104259
-0.0183262
-0.0360939
-0.0308556
0.00351191
0.0437297
0.000201855
-0.013466
0.00442676
0.0249069
-0.00401764
-0.00726784
0.028239
-0.0136018
-0.0387292
0.016885
0.00848093
-0.00316835
-0.00333965
-0.011561
-0.00553749
0.00753276
0.0146811
-0.0113793
-0.0139145
-0.00993547
-0.00567003
-0.00669315
-0.0303616
-0.0293542
-0.0144945
-0.00178362
0.00465473
-0.00825465
0.0030308
0.0077853
-0.0192796
-0.00852875
0.0128997
0.0216595
0.020387
-0.0253283
-0.0228221
-0.0092992
0.00917726
-0.0207155
-0.0121476
0.00976572
-0.0152977
-0.0023366
-0.0135601
-0.0118668
0.0085804
-0.0195395
-0.00579786
0.0172558
0.00757187
-2.46554e-05
0.0118389
0.00421644
-0.0111184
0.00760487
-0.00108584
-0.0336846
-0.0300517
-0.00452582
-0.00529464
-0.00960461
-0.0227334
-0.00297529
0.0108981
-0.00306945
-0.00285248
5.15883e-05
0.00734904
0.0129171
-0.0107823
-0.0194824
0.00288645
-0.00801643
-0.000333375
-0.00897245
0.0119936
-0.00616229
-0.00076769
-0.00671759
-0.0023425
-0.00464163
-0.00594163
0.00542195
-0.0237743
-0.0129142
0.00119482
-0.00945795
0.0107617
0.0138205
0.00908299
0.004215
-0.00645488
0.00164479
-0.00255232
-0.0185631
-0.0278464
-0.017775
-0.0125967
-0.00384372
-0.025215
-0.00154137
0.0286857
0.00150237
-0.0145878
-0.0109454
-0.00164368
-0.0108478
-0.00652522
0.00993391
-0.00454702
-0.0217459
-0.0221632
0.00537392
0.020969
-0.00553115
-0.00167179
-0.00435343
-0.0173232
-0.0177745
0.0141392
0.00360001
-0.00611667
-0.00681724
-0.00602479
0.00868687
-0.00370121
-0.00662301
0.000475624
0.00510105
0.000784479
-0.0122767
-0.00580863
0.0159182
0.0146328
-0.00620479
-0.0239214
-0.0118892
0.00816524
-0.00236144
-0.00953338
0.0361625
0.0228823
-0.0146852
-0.0164197
-0.00608836
0.00198528
-0.0093606
-0.0230219
-0.00319396
0.00138349
-0.00927012
-0.0235633
0.00334752
-0.00136301
-0.00415559
-0.0037619
-0.0121181
-0.0171503
-0.00156399
-0.00666891
-0.00267034
0.0082072
-0.0045078
-0.000647426
-0.0221122
-0.0142342
-0.0194483
-0.0188679
0.00694319
-0.00223007
0.00286571
0.0251829
0.0407434
0.00953115
-0.0280309
-0.0154571
-0.00519342
0.00257639
-0.0103058
-0.000949135
-0.0170394
-0.0249627
-0.00952528
-0.0162481
-0.00363118
0.0232033
0.00245307
-0.00554053
0.000947603
-0.00234986
0.0171136
0.0114189
0.0123421
-0.000102365
-0.0204349
-0.0163264
-0.0269018
0.00060492
0.0145943
-0.00252626
0.0531746
0.0308283
0.00329838
-0.00471619
-0.00100796
0.00775987
-0.0143508
-0.00197143
0.00324278
0.0017919
0.0142035
0.00973062
0.00863841
-0.0069071
-0.0300539
-0.00823865
-0.00486502
-0.00446602
-0.0050773
-0.0171811
-0.0337664
-0.00751016
0.00886079
-0.0141033
0.00461573
0.0387084
0.00316831
-0.0185369
-0.00317254
0.00345707
0.00936515
-0.0122909
0.00255732
-0.053322
-0.0318878
-0.00900402
-0.014632
0.0302722
0.0171341
0.0183733
0.0254338
0.00233705
0.0168445
-0.0109673
-0.00527364
0.0352386
-0.0118262
-0.0257349
0.00126167
0.0159267
0.00514245
0.0126425
0.0331115
0.000619551
-0.0243375
-0.0186821
-0.0118838
0.0174576
0.0233747
-0.014125
0.0134498
0.0161173
0.00334763
-0.0246611
0.0125041
0.0421971
-0.0154738
-0.0292784
-0.00654357
0.0171267
0.00283319
-0.0231561
-0.00305562
-0.022529
-0.018684
-0.00273766
0.0010649
0.0265147
0.0111202
-0.0292943
-0.0405087
-0.000446011
0.0039047
-0.00775247
-0.0034999
-0.0166313
-0.0269308
-0.00604816
0.0071082
-0.0036062
0.0119706
0.0584104
0.0151853
-0.0178307
-0.0382793
-0.00313745
0.00510541
0.010547
0.0034105
-0.00750006
-0.00143135
0.0155324
0.00982182
-0.0167333
0.0196004
0.0245448
-0.0263913
-0.0362315
-0.0179695
0.00880922
-0.020853
-0.0304048
0.00776811
-0.0382609
-0.020282
0.0104187
0.0097735
0.00523738
-0.00751512
-0.0411545
-0.0152739
0.00574723
0.00188699
-0.00200792
-0.00566403
-0.0185052
-0.0156165
-0.0131357
0.00411767
0.00793375
-0.00484351
-0.0125159
-0.0144365
-0.0130412
-0.01417
0.0129575
0.00835643
-0.0135336
0.00437195
0.0047243
-0.00640112
0.0226563
0.0208917
-0.0153059
0.0126954
-0.00255969
-0.0175969
-0.0155075
-0.014704
0.00374469
-0.00369293
0.000180186
-0.00190507
-0.0378678
-0.0144851
0.0144087
0.00670995
0.0131949
-0.0182286
-0.0136526
0.017984
0.00352578
0.00446733
-0.00331962
-0.0112481
-0.0144769
-0.00590506
-0.00541548
-0.000691521
0.00828697
-0.0134627
-0.0154838
0.0161601
0.0133367
0.0033915
0.0152706
0.00411395
-0.0243902
-0.00340196
-0.0142173
-0.0154991
0.0171642
0.0239932
-0.0234283
0.00148387
-0.000512472
-0.0284218
-0.0148243
-0.00501207
0.00559155
-0.00826218
-0.00842801
0.000507044
-0.0366285
-0.0157146
0.00861754
0.00194718
0.0155195
-0.0281879
-0.0114326
0.0250107
-0.0001201
-0.00527712
-0.00178975
-0.0132572
-0.00888063
0.00310506
-0.00106502
-0.0052352
-0.000588463
-0.0109255
0.0128361
0.0323562
0.0134125
0.00172449
0.0153153
-0.0017175
-0.0288408
-0.0211702
-0.011013
-0.0121075
0.0195633
0.0245014
-0.027518
-0.00776969
0.017383
-0.0113921
-0.0175102
-0.00726885
0.00306511
-0.0112004
8.16771e-05
-0.00509226
-0.0336567
-0.0127852
0.00387614
0.00629932
0.0137639
-0.0240949
0.00484231
0.0138437
-0.014685
-0.00939237
0.0178501
-0.00950789
-0.013494
0.00226641
-0.00212955
0.00428714
-0.0292131
-0.0129174
0.015626
0.0252899
0.0146392
0.00758227
0.0150211
-0.00113136
-0.0260088
-0.010412
0.000472118
-0.0129105
0.0178207
0.0204168
-0.0252838
-0.00712202
0.0175154
0.00345193
-0.0103881
-0.00986577
-0.00101013
-0.0129516
0.00450728
-0.0118845
-0.0302404
-0.00849722
0.00644423
0.0163592
0.0144988
-0.0156204
0.0107919
0.0141419
-0.011792
0.00622095
0.0192337
-0.0115421
-0.0122016
0.00430337
-0.0043914
0.00948805
-0.0400402
-0.0114736
0.0306418
0.0403472
0.0121652
0.0140677
0.0200282
-0.00340835
-0.0265901
-0.0130269
0.00298312
-0.0168296
0.0119424
0.0144404
-0.0190684
-0.00760489
0.0162274
0.00366427
-0.0205278
-0.0178815
-0.00255798
-0.0101523
-0.00671579
-0.0178767
-0.0288547
-0.000978313
0.0112987
0.0107487
0.0122155
-0.00898317
0.00643973
0.0234881
-0.0061465
0.021174
0.0239826
-0.0127037
-0.0197895
-0.013268
-0.00947384
0.0105592
-0.0396119
-0.0102865
0.0401962
0.0330274
0.00440249
0.00655551
0.0182685
-0.00814203
-0.0310116
-0.0112552
0.0100209
-0.022787
0.010342
0.0165247
-0.0213133
-0.00849317
0.0137512
-0.00750403
-0.029271
-0.0200769
-0.00254445
-0.00240677
-0.00922203
-0.0202286
-0.0299778
0.00028249
0.0160626
0.0140429
0.00553604
-0.0117468
1.56632e-06
0.014447
-0.00474285
0.0218361
0.0207009
-0.010993
-0.019509
-0.0236487
-0.00656582
0.00744303
-0.0375569
-0.00674636
0.0433525
0.0258832
-0.0014476
0.00477329
0.0147053
-0.0178103
-0.0339631
-0.00540926
0.0128424
-0.0354923
0.00705541
0.0253576
-0.0169128
-0.0045549
0.00879831
-0.0148503
-0.0327774
-0.0235507
-0.00354121
0.000941702
-0.00777908
-0.016251
-0.0303735
0.00213491
0.0165642
0.00157242
0.00128963
-0.00651529
0.00273391
-0.00268545
-0.00477275
0.0219592
0.0223452
-0.00587734
-0.0148552
-0.0220553
-0.00195306
0.00655959
-0.0301552
-0.00960375
0.0334212
0.022683
-0.00230962
0.00921502
0.0178429
-0.0184014
-0.0348313
-0.00889729
0.00984894
-0.0257168
0.00696114
0.0263422
-0.0100691
-6.41088e-05
0.0084816
-0.0197304
-0.0315433
-0.025389
-0.00537554
0.00275119
-0.00708657
-0.0122646
-0.0312759
0.00274398
0.02036
-0.00287465
-0.00072465
-0.00161632
0.00241452
-0.0100164
-0.00431462
0.0205995
0.0218552
-0.00557695
-0.0132011
-0.0182434
0.00112687
0.00481077
-0.0177006
-0.00903262
0.0262144
0.0182474
-0.000526242
0.0176977
0.0254764
-0.0123822
-0.0398167
-0.0107658
0.00637211
-0.0204308
0.00644613
0.0235247
-0.0104963
-0.000555272
0.00857429
-0.0223415
-0.0281494
-0.0246733
-0.0115272
0.00433283
-0.0104138
-0.00737271
-0.0331265
0.00153851
0.0220398
-0.0180688
-0.004596
0.00550179
0.00196619
-0.0129399
-0.00374781
0.0255082
0.0227248
-0.00452749
-0.0111687
-0.0167874
0.00465215
0.00426468
-0.0131262
-0.00523283
0.0226944
0.0128742
0.000590366
0.0231443
0.0310005
-0.00930284
-0.0430767
-0.0117471
0.00494331
-0.0155366
0.00325315
0.0212458
-0.00980648
-0.0016188
0.00750436
-0.0200777
-0.0252829
-0.0221937
-0.0154403
0.0050094
-0.014271
-0.00498746
-0.0342976
0.00184453
0.0250281
-0.0238139
-0.0100708
0.0135459
0.00456303
-0.0140142
0.00506236
0.0304839
0.0205443
-0.000993279
-0.0090604
-0.0172574
0.00633531
0.00618636
-0.00629541
0.000770533
0.0181331
0.00906276
-0.000184055
0.0262344
0.036788
-0.0081135
-0.0452972
-0.0138925
0.00624636
-0.0117907
-0.000445558
0.0154081
-0.00449228
0.000270486
0.00619792
-0.0152807
-0.0190829
-0.0158638
-0.0168182
0.00303404
-0.0178055
4.04643e-05
-0.0348325
0.00294211
0.0278217
-0.0298828
-0.0104899
0.0222579
0.006541
-0.0115662
0.00987893
0.0332491
0.0211246
0.00220019
-0.0106133
-0.0162084
0.00631317
0.00832884
0.00182844
0.00824286
0.0128007
0.00584696
-0.00155302
0.0296217
0.0399944
-0.0035293
-0.0459849
-0.015809
0.00802682
-0.00896643
0.00142558
0.00589173
0.000711319
0.00541766
0.00550297
-0.0142121
-0.0127268
-0.00664754
-0.0149985
-0.00312541
-0.0161427
0.00523875
-0.0369761
0.00236445
0.029873
-0.0318778
-0.0094258
0.0272392
0.00961428
-0.00792756
0.0102836
0.0350278
0.0241728
0.00365997
-0.0134608
-0.0148839
0.0015454
0.00752119
0.0102582
0.0162193
0.0096174
0.00417838
-0.00230351
0.034333
0.0415701
0.00276031
-0.0442009
-0.0169149
0.0109056
-0.00663289
-0.00376446
-0.0042874
0.00272677
0.0050254
0.00562412
-0.0135615
-0.00923298
0.00274155
-0.0107359
-0.0132353
-0.00505188
0.00636144
-0.0392049
-0.000391271
0.0269084
-0.035848
-0.00992847
0.0309532
0.0132458
-0.00581423
0.00966266
0.0381247
0.0268197
0.00353869
-0.0143333
-0.0129612
0.000126291
0.0044557
0.0132884
0.0203349
0.00809152
0.0049155
-0.00175788
0.0371764
0.0430859
0.00752827
-0.0421395
-0.0118833
0.0125678
-0.00665651
-0.00818863
-0.00806229
0.00421834
0.000267377
0.00699005
-0.00943952
-0.00959094
0.00908167
-0.00554007
-0.0211253
0.00306636
0.00972327
-0.0379283
-0.00273711
0.017006
-0.0390059
-0.0159312
0.0288867
0.0168425
-0.00162124
0.00360741
0.0383319
0.0280535
0.00170382
-0.0139728
-0.00875799
0.00116837
0.000777536
0.0132011
0.0211766
0.00609046
0.006402
-0.00118776
0.0359587
0.0450765
0.0126627
-0.0416696
-0.00818621
0.0141013
-0.00789563
-0.0135004
-0.00173249
0.00631229
-0.000924383
0.00901728
-0.00778395
-0.0128453
0.0148435
-0.00151514
-0.0244478
0.00698923
0.0113099
-0.0321779
-0.00208295
0.00545017
-0.0376073
-0.0195755
0.0262675
0.0219192
0.00126149
-0.00863849
0.0377536
0.0296194
-0.00126367
-0.0134466
-0.00331002
0.000321049
-0.00362294
0.0102259
0.0189236
0.0045444
0.00828492
-0.000520794
0.0342407
0.0482519
0.0158435
-0.0407606
-0.00715881
0.0100852
-0.00759042
-0.0188954
0.0023753
0.00792933
0.000138557
0.0110262
-0.0112461
-0.015077
0.0201651
0.000633138
-0.0245834
0.0102093
0.0120161
-0.0305897
-0.000760394
-0.00380161
-0.0319949
-0.0188227
0.0241662
0.0265266
0.00190782
-0.01466
0.0374564
0.0270037
-0.00535738
-0.0113584
0.00126174
-0.0019344
-0.00548422
0.00882734
0.0155032
0.00520025
0.00965879
0.000872936
0.0336099
0.0514943
0.0181813
-0.0371926
-0.00815053
0.00760027
-0.00461932
-0.0214131
0.00721913
0.00950814
-8.55657e-05
0.0125277
-0.0160274
-0.013862
0.0250655
0.00111435
-0.0251049
0.011704
0.0118922
-0.0317178
-0.000396279
-0.00867425
-0.0266095
-0.017678
0.0212865
0.0296898
0.00129342
-0.0168976
0.0384223
0.0266499
-0.00851178
-0.00816653
0.00313806
-0.00162696
-0.00396539
0.0109481
0.00825796
0.00862524
0.0126948
0.00216761
0.0344046
0.0529628
0.0189737
-0.0334953
-0.00937798
0.00729238
-0.000223413
-0.0211386
0.0119189
0.00953686
-0.000207874
0.0130036
-0.0204759
-0.0115683
0.0293574
0.000611075
-0.0259951
0.0124409
0.0113809
-0.0329301
-0.00118746
-0.00881912
-0.0237645
-0.0169236
0.0199836
0.0313592
0.000224626
-0.0169839
0.0390673
0.0233748
-0.0092496
-0.00551697
0.00300206
0.000366411
-0.00188226
0.0134723
0.00419873
0.0148085
0.0173654
2.54254e-05
0.0350774
0.0528942
0.0193638
-0.0309373
-0.00958478
0.00803414
0.000924932
-0.0193865
0.0141089
0.00981031
0.000891091
0.0111611
-0.0240904
-0.00882469
0.0321904
-0.000447271
-0.0257925
0.0133856
0.0109851
-0.0332993
-0.00355708
-0.00631564
-0.0224083
-0.0162589
0.0201028
0.0319128
-0.00104727
-0.0168041
0.0393449
0.0219043
-0.00824347
-0.00431355
0.00263689
0.00131911
-0.000892612
0.0137729
0.00484304
0.017916
0.0188117
-0.00349109
0.0357951
0.0531229
0.0194854
-0.0298978
-0.00985131
0.00761239
0.00066439
-0.0170708
0.0153178
0.0103063
0.00154116
0.00948308
-0.0236649
-0.00677271
0.0314922
-0.00109799
-0.0249228
0.0135063
0.0108626
-0.0329804
-0.00362652
-0.00497446
-0.0220609
-0.0159192
0.020419
0.0318928
-0.00196273
-0.0164448
0.0399781
0.0216807
-0.00797814
-0.00389804
0.00253501
0.00135285
-0.000440132
0.0138062
0.00455095
0.0181966
0.0190486
-0.00325085
0.0361381
0.0530674
0.0194002
-0.0297521
-0.0098951
0.00768474
0.00133887
-0.016449
0.0152473
0.0105639
0.00202402
0.00927906
-0.0227865
-0.00687405
0.0306973
-0.000796591
-0.0243497
0.0137072
-0.0170147
0.000944494
-0.00892305
-0.0438013
-0.0219665
-0.00201483
-0.00193727
-0.0243671
-0.00929482
0.0461237
0.00375936
0.011909
0.0272087
0.00597009
0.00795029
-0.00525732
0.00722235
0.0037606
-0.0130941
-0.000700137
0.00212745
0.022782
-0.011731
-0.0268315
-0.00132971
-0.00191118
-0.020442
0.027594
0.00980658
-0.049329
-0.018811
0.0101293
-0.0256706
-0.0350894
-0.0168899
-0.0238852
-0.0276795
-0.0107949
0.00551717
-0.0062138
-0.0124961
0.00766253
0.00984979
-0.00789297
-0.026733
-0.0129256
0.0193784
-0.00904645
-8.03102e-05
-0.00219363
-0.0214152
0.00553413
0.00269611
-0.0220515
-0.0146882
-0.0190682
-0.0196116
-0.0206866
-0.000570192
0.0260809
-0.0053976
-0.00923709
0.0019884
-0.020091
-0.023952
-0.00098312
-0.0121542
-0.000146801
0.0158105
-0.0184915
-0.0112631
0.0042348
-0.00767745
-0.0235359
-0.0128862
-0.0159986
-0.0190012
-0.0219138
-0.00497206
-0.00929327
-0.0121158
0.00243187
-0.0152706
-0.0397829
-0.0181075
0.0196656
0.0103262
-0.0089756
-0.00872657
-0.00152186
0.0139711
-0.00386951
0.00021926
-0.00484195
-6.5705e-05
0.00671083
-0.00736075
-0.0213491
-0.023297
-0.00457753
-0.0124626
-0.0106326
-0.0117574
-0.0118478
-0.00390023
-0.00650449
-0.004478
0.000603593
-0.00556793
-0.0275891
-0.00315701
0.00432028
-0.0010797
0.00278933
-0.0149924
-0.00778763
-0.00403258
-0.013024
-0.0232826
-0.0386761
0.00176201
0.00584582
-0.0290389
-0.0268363
-0.00218414
-0.00420816
0.00688457
-0.00530657
-0.0136132
-0.00243759
-0.00400146
-0.00174186
0.000893742
-0.00324797
-0.000257441
0.00883585
0.00192062