/*--------------------------------*- C++ -*----------------------------------*\
  =========                 |
  \\      /  F ield         | OpenFOAM: The Open Source CFD Toolbox
   \\    /   O peration     | Website:  https://openfoam.org
    \\  /    A nd           | Version:  10
     \\/     M anipulation  |
\*---------------------------------------------------------------------------*/
FoamFile
{
    format      ascii;
    class       volSymmTensorField;
    location    "45";
    object      UPrime2Mean;
}
// * * * * * * * * * * * * * * * * * * * * * * * * * * * * * * * * * * * * * //

dimensions      [0 2 -2 0 0 0 0];

internalField   nonuniform List<symmTensor> 
25600
(
(0.0427579 -0.00328833 0.00852249 0.0247007 -0.0138012 0.0224418)
(0.0403539 -0.000801985 0.00692856 0.0231828 -0.0122097 0.0229297)
(0.0421499 0.000903117 0.00343119 0.0230604 -0.0101082 0.0228852)
(0.0429044 0.000924513 0.00262864 0.0231118 -0.0103367 0.0224543)
(0.0447168 -0.00120014 0.00507443 0.0258434 -0.0151836 0.0254999)
(0.0443056 -0.00185775 0.00499325 0.0273862 -0.0166411 0.0276195)
(0.0494546 -0.000154634 0.00364688 0.0264338 -0.0147894 0.0260038)
(0.0529251 0.00290974 0.00381473 0.0284402 -0.014868 0.0259833)
(0.0523239 0.00151492 0.00670427 0.0292075 -0.0146795 0.0247615)
(0.0509331 0.0021379 0.00631844 0.0272959 -0.0129066 0.0212816)
(0.0493624 0.00310141 0.00536392 0.0252418 -0.0136008 0.0226881)
(0.050984 0.00260734 0.0072239 0.0238821 -0.014121 0.0247181)
(0.0503414 -0.000331419 0.00782759 0.0216553 -0.0122828 0.0224759)
(0.050281 -0.00163808 0.00796783 0.0234134 -0.012958 0.0215558)
(0.0463394 -0.000443654 0.00663973 0.0258256 -0.0147566 0.0218723)
(0.0433926 0.00123297 0.00435966 0.0260422 -0.0137843 0.0210446)
(0.0478237 0.0010866 0.00590194 0.0245142 -0.0121598 0.0202538)
(0.0465405 0.000198065 0.00754828 0.0229224 -0.0121096 0.0206552)
(0.04753 -0.00117366 0.00804973 0.0217901 -0.0117762 0.0216765)
(0.0419904 -0.00103163 0.00577309 0.0229468 -0.0121891 0.0228077)
(0.0402463 0.00173482 0.00365052 0.0246012 -0.013386 0.0228901)
(0.0421251 0.00319125 0.00243521 0.0250654 -0.0120377 0.0203366)
(0.0420942 0.0046124 0.000711991 0.0242744 -0.0113846 0.0202405)
(0.0430174 0.00465197 0.00137734 0.021742 -0.01151 0.02358)
(0.0456204 0.00259119 0.00346709 0.0209855 -0.0130551 0.0252338)
(0.0382397 0.00152682 0.00304522 0.0208903 -0.0126374 0.0229964)
(0.0402559 0.00302956 0.00303951 0.0200095 -0.00975893 0.0190841)
(0.0410512 0.000984346 0.00486143 0.0192515 -0.00853555 0.0179654)
(0.0385533 -0.00200276 0.0060061 0.0208225 -0.0109692 0.0197934)
(0.044611 -0.00281375 0.0083492 0.0232579 -0.012187 0.0209766)
(0.0464507 -0.00125216 0.00827589 0.0263846 -0.0117417 0.0208746)
(0.044829 0.00131379 0.00710492 0.0263882 -0.0106722 0.0199902)
(0.0444666 0.000703607 0.00708549 0.0253922 -0.0123155 0.022192)
(0.0431433 -0.00156953 0.00850159 0.0245303 -0.0134107 0.0242728)
(0.0391913 -0.00156645 0.00770351 0.023262 -0.0120669 0.0226852)
(0.041276 -0.00189678 0.00565883 0.0217407 -0.0113065 0.0223713)
(0.0436644 -0.0026225 0.00490229 0.0215039 -0.0112526 0.0224427)
(0.043895 -0.000909141 0.00310952 0.0218951 -0.0117229 0.020819)
(0.0436516 0.000612653 0.00243706 0.0224655 -0.0122213 0.0202493)
(0.0441762 -0.00108006 0.00538181 0.0235351 -0.0125671 0.0211105)
(0.046874 0.0153488 4.61309e-05 0.0219477 0.00287874 0.00947708)
(0.0447917 0.0143088 -0.00172818 0.0206424 0.00116513 0.010668)
(0.04645 0.0139478 -0.00141333 0.0225365 0.000965563 0.0110297)
(0.0479835 0.0150885 -0.00173606 0.024911 0.000651854 0.01091)
(0.0481346 0.0162789 0.000269303 0.0246199 0.00162573 0.0101832)
(0.0485084 0.0146405 0.00090593 0.0225772 0.00165307 0.00890222)
(0.0493787 0.0157951 -6.48827e-05 0.0235482 0.000689878 0.00919226)
(0.0534135 0.0170577 0.00061818 0.0249354 0.00102032 0.00901883)
(0.0475482 0.0148481 0.00109573 0.0255473 0.00108768 0.00801536)
(0.0408991 0.012116 0.00134462 0.0232257 0.00197174 0.00849572)
(0.0384695 0.0118175 0.000650334 0.022431 0.00258897 0.0100291)
(0.0398993 0.0142642 0.00106563 0.0252375 0.00201335 0.00977266)
(0.0377765 0.0125332 0.00229403 0.0266041 0.00228947 0.00883649)
(0.0348983 0.00883144 0.000947517 0.0269045 0.00124397 0.0093325)
(0.0357781 0.0113214 0.000883452 0.0296907 -0.000180887 0.0102454)
(0.0426873 0.015898 0.000662406 0.0313308 -0.000929471 0.0109598)
(0.0431411 0.0156696 0.000573652 0.029898 -0.000948397 0.0108711)
(0.0406625 0.0114713 0.00187177 0.0262042 -0.00013956 0.010368)
(0.0432309 0.011384 0.00157957 0.0249525 0.000887446 0.00964593)
(0.0392073 0.0133262 0.00340553 0.0272569 0.000277918 0.0107535)
(0.0372675 0.0139288 0.000976938 0.0271841 -0.00107403 0.011916)
(0.0403142 0.0127454 0.0012095 0.0244956 -0.00165752 0.0128451)
(0.0379344 0.0117585 0.00156884 0.0226628 -0.000961841 0.0125947)
(0.03533 0.00992531 0.000488089 0.0211909 -0.000153158 0.0119052)
(0.0370965 0.0111088 -0.00042842 0.021111 -0.000827004 0.0111511)
(0.0396764 0.0138025 -0.000887861 0.0221214 -0.00147233 0.0108913)
(0.0378669 0.0119227 -0.00122054 0.0192477 0.000367019 0.0103514)
(0.0391685 0.0109977 -0.000627822 0.01848 0.00181322 0.00883652)
(0.0407185 0.0129387 -0.0013293 0.0200048 0.000600504 0.00861791)
(0.0373884 0.0124385 -0.00219207 0.0199461 0.000381338 0.00999818)
(0.0446777 0.0147772 -0.00291935 0.0207376 0.000759288 0.00963554)
(0.0465118 0.0164067 -0.00334361 0.0216532 6.20485e-05 0.00916927)
(0.03665 0.0123411 -0.00373651 0.0229886 -0.000645104 0.00972349)
(0.0380606 0.0101477 -0.00438348 0.0228465 -0.00182702 0.0112559)
(0.0433142 0.00893602 -0.00418528 0.0214155 -0.00183197 0.0125449)
(0.0495284 0.0128286 -0.00372333 0.0219365 -0.00129534 0.0125435)
(0.0460976 0.0139748 -0.00360422 0.0223061 -0.000753651 0.0111999)
(0.0426922 0.0141586 -0.00201364 0.0236898 -0.000153588 0.00957093)
(0.0391342 0.0154892 0.000618948 0.0246862 0.00124159 0.0087602)
(0.0397835 0.015389 0.00214299 0.0243452 0.00363463 0.00911247)
(0.0533317 0.0179241 -0.00478061 0.0235971 -0.00371411 0.00659898)
(0.0472989 0.0168003 -0.00345493 0.0203203 -0.00242497 0.00632896)
(0.0462787 0.0150714 -0.00405254 0.0207617 -0.00215333 0.00646043)
(0.0482184 0.0139741 -0.00475038 0.0228075 -0.00270326 0.00713132)
(0.0474611 0.0139355 -0.00522248 0.0251263 -0.00306689 0.00779139)
(0.0562631 0.0161429 -0.00499979 0.0251389 -0.00335181 0.00779257)
(0.0559284 0.0168106 -0.00631045 0.0233209 -0.00291218 0.00716872)
(0.0508322 0.0166648 -0.0072565 0.0251645 -0.00329701 0.00744236)
(0.056545 0.0182542 -0.00760502 0.0262387 -0.00458697 0.00900216)
(0.0515318 0.0159503 -0.00494436 0.0256029 -0.00443452 0.00868512)
(0.0489152 0.0171079 -0.00385743 0.0264596 -0.00425432 0.00717841)
(0.0512832 0.0192938 -0.00276068 0.0282374 -0.0039057 0.00643069)
(0.0465543 0.0183038 -0.00139978 0.0289745 -0.00299642 0.00639033)
(0.0473181 0.0200513 -0.00179862 0.0301509 -0.00286444 0.00717545)
(0.0473676 0.0189563 -0.00361434 0.0282397 -0.00356079 0.00779251)
(0.0518509 0.0173316 -0.00398992 0.0268958 -0.00296785 0.00733946)
(0.0519781 0.0181374 -0.00190641 0.0251297 -0.00189612 0.00638524)
(0.0442497 0.015127 -0.000391617 0.0234018 -0.0016499 0.00569777)
(0.0414852 0.0102985 -0.00199113 0.0213584 -0.00238414 0.00576591)
(0.0343296 0.00954103 -0.00263203 0.0227801 -0.00395379 0.00627589)
(0.0408371 0.014344 -0.00310178 0.0264184 -0.00386288 0.00697639)
(0.0505458 0.0167997 -0.00270797 0.0275729 -0.00314707 0.00746314)
(0.051995 0.0134008 -0.00295555 0.0249785 -0.00352099 0.00782028)
(0.0478016 0.0113945 -0.00484119 0.0228465 -0.00412621 0.00870719)
(0.0423993 0.0118032 -0.00444903 0.0264491 -0.00398249 0.00974595)
(0.0480958 0.0127615 -0.00236553 0.0282565 -0.0030997 0.0093873)
(0.0516452 0.0141237 -0.0033018 0.0273741 -0.00245533 0.00781879)
(0.0471605 0.0155371 -0.0039536 0.0288487 -0.00234085 0.00641708)
(0.037955 0.0106827 -0.00353631 0.0260395 -0.00310036 0.00539654)
(0.0459699 0.0127035 -0.00339324 0.0250046 -0.00345284 0.00530325)
(0.05769 0.0213876 -0.00541227 0.0277378 -0.00389377 0.00589091)
(0.0565993 0.0195153 -0.00436857 0.0285521 -0.00405113 0.00609143)
(0.05548 0.0182441 -0.00425174 0.0254435 -0.00394928 0.00647409)
(0.0565596 0.0162074 -0.00565116 0.0215885 -0.00370943 0.00699549)
(0.0550645 0.0134553 -0.00484338 0.0203846 -0.00360536 0.00687164)
(0.0571715 0.0148608 -0.00410494 0.0229624 -0.00360044 0.00718548)
(0.0486318 0.0160116 -0.00432974 0.0283266 -0.00339025 0.0071855)
(0.0425651 0.0147599 -0.00422809 0.0296127 -0.00354106 0.00716237)
(0.047707 0.0163654 -0.0055075 0.026942 -0.00379415 0.0076792)
(0.05085 0.0179663 -0.00601404 0.0272195 -0.00422061 0.00728614)
(0.0478254 0.0159652 -0.00260186 0.0240562 -0.00151355 0.00527144)
(0.0464661 0.0162027 -0.00069774 0.0249698 -0.00089065 0.00478488)
(0.0482604 0.0146075 -0.00028387 0.0233484 0.000272396 0.00438346)
(0.0497316 0.0160208 -0.0012098 0.0223391 0.00013546 0.00406032)
(0.0500444 0.0167809 -0.0041775 0.0227214 -0.00181608 0.00461242)
(0.0474352 0.0162495 -0.00558742 0.0246122 -0.00264172 0.00528005)
(0.0448687 0.0147944 -0.0053796 0.0260195 -0.00156725 0.00508669)
(0.0388028 0.0131506 -0.0036681 0.0249377 -0.00073679 0.00492497)
(0.0441257 0.0149165 -0.0035513 0.0238415 -0.00113171 0.00523019)
(0.0471732 0.0123645 -0.00389083 0.0227686 -0.00146754 0.00565162)
(0.0448683 0.00916562 -0.00358781 0.0218613 -0.00111956 0.00572446)
(0.0434852 0.0126057 -0.0038535 0.0232878 -0.00119163 0.0057991)
(0.0413109 0.0151397 -0.00566877 0.0265634 -0.00278455 0.00624516)
(0.0398324 0.01324 -0.00539669 0.0284907 -0.00360672 0.00710715)
(0.0451861 0.0125389 -0.00324225 0.0276484 -0.00215836 0.00631204)
(0.0506292 0.0128474 -0.00366748 0.0234584 -0.000571608 0.00524033)
(0.05173 0.0132393 -0.0031752 0.0233233 -4.00499e-05 0.00465831)
(0.0482168 0.0139065 -0.00244116 0.0262096 -0.00119453 0.00503326)
(0.0488727 0.0165453 -0.00369363 0.0264581 -0.00210734 0.00516148)
(0.0529102 0.0145723 -0.00394936 0.023157 -0.00216757 0.0050784)
(0.0485024 0.012043 -0.00224381 0.0217308 -0.00158392 0.00455974)
(0.0495563 0.0147214 -0.00270214 0.022673 -0.00128899 0.00425483)
(0.0514304 0.0162451 -0.00186862 0.0249607 -0.00157282 0.00439101)
(0.0400223 0.0114349 -0.00180242 0.024901 -0.00109691 0.00463541)
(0.0360722 0.00724233 -0.00157199 0.0224305 -0.000598325 0.00493262)
(0.0480343 0.0111391 -0.0013269 0.0223527 -0.00111159 0.00504578)
(0.0578325 0.0167524 -0.00125819 0.0231395 -0.00169363 0.00516809)
(0.0516567 0.0148311 -0.00195099 0.0227807 -0.0021615 0.00555595)
(0.050804 0.0151417 -0.00361954 0.0224614 -0.00199391 0.00573731)
(0.0522504 0.0156017 -0.00409462 0.0218632 -0.00166346 0.00554234)
(0.0479616 0.0146594 -0.00230997 0.0230056 -0.00138359 0.0054584)
(0.0508477 0.0154287 -0.00287283 0.0232682 -0.000461865 0.00561527)
(0.0558676 0.0174302 -0.00292333 0.0246529 0.000286224 0.00589796)
(0.0518619 0.0164493 -0.00206962 0.0251602 0.000222429 0.0062526)
(0.0513022 0.0155997 -0.000355896 0.0239985 -0.000128787 0.00585213)
(0.0496422 0.0128976 -0.00204396 0.0213703 -0.000388781 0.00568991)
(0.0495878 0.0111773 -0.00368949 0.018455 -0.000892903 0.00576609)
(0.0465449 0.00982203 -0.00280503 0.0160092 -0.000743186 0.00567774)
(0.0504869 0.0123646 -0.00244558 0.0178788 3.80128e-05 0.00515879)
(0.0522791 0.013917 -0.00378501 0.0213028 -0.00031494 0.00517684)
(0.0479694 0.012658 -0.00347295 0.020541 -0.00263629 0.00701298)
(0.0557043 0.0168703 -0.00419498 0.0213723 -0.00217029 0.00760748)
(0.0608926 0.0199194 -0.00395253 0.0246614 -0.00276928 0.00718935)
(0.0551921 0.0185252 -0.00283093 0.0285749 -0.00239729 0.00652528)
(0.055397 0.0182697 -0.00296117 0.0272015 -0.00113126 0.00584874)
(0.0527391 0.0153728 -0.00323322 0.0207159 -0.000373031 0.0050715)
(0.0523727 0.0131548 -0.0039844 0.0188196 -0.00106166 0.00502408)
(0.05168 0.0143842 -0.00520126 0.0208869 -0.00145441 0.00542472)
(0.055466 0.0164826 -0.00458869 0.0217843 -0.00097636 0.00517072)
(0.0598756 0.0178568 -0.00238217 0.0222664 -0.000253731 0.00521192)
(0.0624691 0.0192437 -0.000688632 0.0229222 -0.000166586 0.00540023)
(0.0622076 0.0197329 -0.00152473 0.0230984 -0.000804017 0.00547596)
(0.0599576 0.0181962 -0.00282476 0.0227251 -0.00128568 0.00528952)
(0.0540712 0.0168107 -0.0040228 0.0227207 -0.00151862 0.00463862)
(0.0541121 0.0191807 -0.00408644 0.0249123 -0.00167041 0.0043379)
(0.0584013 0.0196117 -0.00460164 0.0247465 -0.00158609 0.00503601)
(0.0554832 0.0151345 -0.00474376 0.022288 -0.00160196 0.00593857)
(0.0497252 0.0119732 -0.00485642 0.0201315 -0.0019079 0.00654012)
(0.0500034 0.0129028 -0.00508925 0.0188094 -0.00180218 0.00648439)
(0.0508659 0.0142943 -0.00311038 0.0189686 -0.000874272 0.00578911)
(0.0620977 0.0177672 -0.00424967 0.0224734 -0.000220119 0.00539384)
(0.0633449 0.0195701 -0.00575692 0.0247218 -0.000828773 0.00568284)
(0.0656141 0.0177496 -0.00616947 0.0232085 -0.00240854 0.00560036)
(0.0602081 0.014179 -0.00403629 0.0191481 -0.00215935 0.00506347)
(0.0565672 0.014189 -0.0025017 0.0199924 -0.0021177 0.0049119)
(0.0614282 0.0189409 -0.00265587 0.0250686 -0.00193317 0.00416558)
(0.0621136 0.0206686 -0.00308885 0.0270103 -0.0011599 0.00393688)
(0.0585803 0.017293 -0.000889408 0.0259372 -0.00119476 0.00448074)
(0.0515365 0.0119694 -0.00111192 0.0229035 -0.00204654 0.00518291)
(0.0511142 0.00943507 -0.00257658 0.0207534 -0.0019307 0.00507869)
(0.0607163 0.0089888 -0.00153509 0.0194614 -0.00129791 0.00468024)
(0.0562294 0.012338 -0.00105136 0.0213013 -0.00206226 0.00512335)
(0.0499688 0.013114 -0.00172718 0.0233604 -0.00308799 0.00561352)
(0.0567508 0.0140001 -0.0011826 0.0224539 -0.00271474 0.00617537)
(0.0592661 0.0122002 -0.00254803 0.0215089 -0.00228657 0.00647761)
(0.0683006 0.0139087 -0.00646905 0.0215412 -0.00244408 0.00663179)
(0.068664 0.0160158 -0.00705282 0.0209467 -0.00171409 0.00625111)
(0.0651372 0.0150991 -0.00534591 0.0195005 -0.000784231 0.00577419)
(0.0587134 0.0154385 -0.00479153 0.0213622 -0.00111723 0.00606835)
(0.0543601 0.0153321 -0.00401078 0.0229895 -0.00228926 0.00645436)
(0.0624263 0.0141196 -9.30094e-05 0.0180078 -0.000156937 0.00495521)
(0.0603278 0.0147007 -0.000799443 0.0196603 -0.000482031 0.00457888)
(0.052945 0.0125508 -0.00173005 0.0211704 -0.00052138 0.0043097)
(0.0504024 0.0112184 -0.00149749 0.0208839 -0.000278323 0.00442564)
(0.0492816 0.0139148 -0.000597342 0.021909 -8.04952e-05 0.00425993)
(0.0489152 0.0133339 -0.00143152 0.0200055 0.000132451 0.00412251)
(0.0513765 0.0130703 -0.00317124 0.0152156 -0.000698173 0.00473971)
(0.0570768 0.0157289 -0.00363954 0.0149098 -0.00130407 0.00496692)
(0.0580254 0.0133599 -0.00285078 0.0159648 -0.000866975 0.00535724)
(0.0524185 0.0114916 -0.00227238 0.0186444 -0.00064444 0.0059232)
(0.0497507 0.0113324 -0.00150903 0.0194372 -0.000919932 0.00568128)
(0.0497266 0.0110801 -0.00135835 0.0183479 -0.0012261 0.00532351)
(0.0456998 0.00887175 -0.00237377 0.0170637 -0.00143708 0.00499534)
(0.0456358 0.0103249 -0.00159724 0.0157904 -0.00073054 0.00475341)
(0.0494435 0.0122144 -0.00107591 0.0161639 -0.000578858 0.00498735)
(0.0557118 0.0126116 -0.00238232 0.0179244 -0.00116263 0.00529321)
(0.0547153 0.0112389 -0.00386569 0.017926 -0.00137552 0.00453015)
(0.0516916 0.0103968 -0.00463243 0.0169293 -0.00164987 0.00431538)
(0.0429305 0.0100581 -0.00300182 0.0175888 -0.00189302 0.00432346)
(0.0442792 0.0126172 -0.00217053 0.0200929 -0.00123275 0.00421301)
(0.0537747 0.0126367 -0.00297081 0.0204881 -0.00123139 0.00405883)
(0.0548518 0.0100731 -0.002112 0.0169984 -0.00122785 0.00386504)
(0.0500276 0.00581036 -0.000442678 0.0154604 -0.000563698 0.00389241)
(0.0553468 0.00545174 -0.000415353 0.0163238 -2.79331e-05 0.00412301)
(0.0592515 0.00810732 -0.00153477 0.0183665 0.000693941 0.00428772)
(0.0560684 0.00774654 -0.00241191 0.0177792 0.000920105 0.00445846)
(0.054259 0.00986068 -0.00289756 0.0171555 -0.000232623 0.00528815)
(0.0528906 0.011743 -0.00270057 0.0188835 -0.000927443 0.0056942)
(0.0592611 0.0121264 -0.00251348 0.0196468 -0.000637282 0.00531909)
(0.0633528 0.00882291 -0.00193109 0.0187105 -0.00023451 0.00455323)
(0.0574171 0.00471868 -0.000472129 0.0183737 0.000117267 0.00405749)
(0.0544647 0.00715245 -0.00125847 0.0159735 0.000107421 0.00413073)
(0.0545589 0.0108693 -0.00287712 0.0142037 -0.000930352 0.00435454)
(0.0517478 0.00885631 -0.00215866 0.0152587 -0.00142451 0.00491583)
(0.0500082 0.00935422 -0.00134814 0.0181894 -0.001162 0.00545288)
(0.0566309 0.0121082 -0.00218751 0.0198945 -0.00118812 0.00551955)
(0.0638506 0.0140797 -0.00146147 0.0187102 -0.000793725 0.00541426)
(0.063426 0.0119795 -0.000688115 0.0160426 -0.000815055 0.00515574)
(0.0535351 0.00857225 -0.00215559 0.0145227 -0.00108146 0.00477751)
(0.0535414 0.00981733 -0.00171166 0.0158487 -0.000699871 0.00486853)
(0.0540593 0.0136331 -0.003503 0.0167201 -0.000917103 0.0054536)
(0.0557775 0.0123407 -0.00487003 0.0167309 -0.000560279 0.00538493)
(0.0566224 0.0125245 -0.00459731 0.0166376 -0.000623454 0.00553743)
(0.0456646 0.0106317 -0.0011996 0.0154483 -0.000355181 0.00527274)
(0.045725 0.0104032 -0.000475088 0.0166788 -0.000631109 0.00497582)
(0.0476313 0.0117584 -0.000547232 0.0178492 -0.000284268 0.00529351)
(0.0489457 0.0128441 0.000589301 0.0176163 -8.81326e-05 0.00585575)
(0.0544617 0.0119764 -0.000463188 0.0165617 0.000227686 0.00570211)
(0.0522379 0.0115684 -0.00140749 0.0167832 0.000286721 0.00552827)
(0.0459525 0.0105222 -0.00201424 0.0188612 8.83006e-05 0.00562355)
(0.051562 0.0123505 -0.0022762 0.0195377 0.000775999 0.00534394)
(0.0536018 0.0134373 -0.00335023 0.018326 0.000588725 0.00551105)
(0.0547589 0.0111848 -0.00336308 0.0174374 -5.94529e-05 0.0053621)
(0.0555935 0.0112473 -0.0016113 0.0177711 -7.20773e-06 0.00502457)
(0.0454767 0.00955781 -0.000193574 0.0181596 -3.99205e-05 0.00498765)
(0.0525757 0.00944051 -0.000663243 0.0189928 -0.000296585 0.00499433)
(0.0451048 0.00953417 -0.000761768 0.0217348 0.000277192 0.00523595)
(0.0452497 0.0134334 -0.00140805 0.0216179 0.000369303 0.00511901)
(0.0562918 0.0157835 -0.000984808 0.0173551 0.000321973 0.00498142)
(0.0646012 0.0144859 -0.00186196 0.0147395 0.000773098 0.00471545)
(0.0636327 0.0125188 -0.0017496 0.0140927 0.00135934 0.00444589)
(0.0574955 0.0120984 -0.000479614 0.0143002 0.00184409 0.00455541)
(0.0456682 0.00924034 -0.00173018 0.0147908 0.00152271 0.00526606)
(0.049462 0.00801699 -0.00266195 0.0163484 0.0013088 0.00592003)
(0.0590259 0.0107485 -0.000989593 0.0171128 0.00114457 0.00569489)
(0.063469 0.0127661 -0.000641666 0.016079 0.000486312 0.00565701)
(0.0591866 0.0118139 -0.000909461 0.0158035 0.000351798 0.00581027)
(0.0627133 0.0122127 -0.0012173 0.0176516 0.00039417 0.00532003)
(0.0586694 0.0100259 -0.000124376 0.0180928 0.000823929 0.00474401)
(0.0560027 0.00936064 0.000200932 0.0178813 0.00133553 0.00514829)
(0.0545143 0.0122871 0.00123544 0.0187819 0.00131014 0.00544686)
(0.0569147 0.0151017 0.00150002 0.0192637 0.00106789 0.00496972)
(0.0542548 0.0132014 -4.27287e-05 0.018097 0.0007496 0.00519571)
(0.048892 0.0096509 -0.000960429 0.0159691 0.000146825 0.0056405)
(0.0545672 0.0106139 -0.000174973 0.017133 0.000697783 0.00613773)
(0.059429 0.012752 0.000144531 0.0204088 0.00125168 0.00679545)
(0.0550405 0.0114684 0.000243116 0.0218092 0.00127833 0.00707261)
(0.0479448 0.00912415 -0.000622522 0.0182063 0.00124279 0.00674586)
(0.0510014 0.0124483 -0.000818196 0.0158731 0.000674935 0.00571665)
(0.0517297 0.0144584 -0.00177463 0.0163639 -0.000570818 0.00537133)
(0.0593107 0.0131206 -0.00305502 0.0156774 -0.000112153 0.0050284)
(0.0545812 0.0115578 -0.00164634 0.0144846 0.000301007 0.0045256)
(0.0556636 0.0109631 -0.00101216 0.014975 0.000871794 0.00448344)
(0.0519158 0.0105479 0.000767379 0.0145341 0.000909495 0.00484029)
(0.0517963 0.0102894 0.00146362 0.0146323 0.000745785 0.00487945)
(0.0467067 0.00868763 0.000695886 0.0134935 0.00107583 0.00484351)
(0.0376499 0.00640986 -0.000400847 0.0134023 0.00100996 0.00440999)
(0.0427244 0.00682525 -0.000141989 0.0159834 0.000994643 0.00440305)
(0.0546505 0.00757525 -0.000831617 0.0172112 0.000567864 0.00444256)
(0.0498421 0.00876292 -0.00199003 0.0164617 0.00010321 0.00471707)
(0.0467204 0.0100532 -0.00128006 0.0149406 0.000914426 0.00504655)
(0.0535319 0.0105364 -0.000730036 0.0136968 0.000314501 0.00479221)
(0.0601498 0.0114046 -4.41961e-05 0.0156642 -0.0001727 0.00490353)
(0.063567 0.0129577 0.00209643 0.0168176 0.00012367 0.00466099)
(0.0570787 0.0127494 0.00275796 0.0159757 0.000124027 0.00458451)
(0.0514495 0.0105968 0.00150549 0.0158398 0.000492987 0.00491249)
(0.0573493 0.00791401 -0.000614385 0.0136206 0.000511837 0.0049574)
(0.0621324 0.00921028 -0.000857631 0.0119173 0.0004209 0.00445195)
(0.0583602 0.0119347 0.000771246 0.0125962 0.00109858 0.00478283)
(0.0582054 0.0143967 0.000322372 0.0158079 0.00177818 0.00467012)
(0.0461961 0.0125939 3.64957e-06 0.0175442 0.0012842 0.00386209)
(0.0461394 0.0105589 0.000963594 0.0149718 0.000347992 0.00365659)
(0.044663 0.00821274 0.00164654 0.0133035 0.000662642 0.00418764)
(0.0458578 0.00732787 0.00140522 0.0143599 0.0015541 0.00465743)
(0.0447239 0.00832515 0.000434052 0.0149233 0.00128282 0.00459089)
(0.0512019 0.0078925 -0.000571709 0.0140724 0.00063203 0.00455086)
(0.054618 0.00682535 -0.000856539 0.0142863 0.000383134 0.00432667)
(0.0582074 0.00948042 -0.000737042 0.0144029 0.000274939 0.00418776)
(0.0539981 0.0108054 -0.000711317 0.0124093 -0.000589305 0.00419814)
(0.0532171 0.0104149 -5.58158e-05 0.0125089 -0.000736787 0.00443397)
(0.049506 0.00717576 -0.000503216 0.0130122 -0.000186063 0.00450435)
(0.0443726 0.00648388 -0.000904005 0.0142079 -0.000251811 0.00443757)
(0.046413 0.00571633 -0.00191596 0.0152221 -0.000199702 0.00437504)
(0.0475375 0.00799402 -0.00186585 0.01577 -0.000308128 0.00442181)
(0.0518172 0.0097827 -0.00261954 0.0168083 -0.000398746 0.00423169)
(0.0551316 0.00990191 -0.00260446 0.0167431 0.000439798 0.00462351)
(0.0503866 0.00819127 -0.00123764 0.0150713 0.000663706 0.0054782)
(0.0534443 0.00879427 -0.000818621 0.0140852 0.000573178 0.00619148)
(0.0594741 0.0119614 -0.00153994 0.015664 0.000364354 0.00664993)
(0.0599337 0.0142114 -0.00209447 0.0171021 1.83863e-05 0.00599462)
(0.0519129 0.0054655 -0.00263264 0.0120075 -0.000104458 0.00422485)
(0.0490794 0.00496555 -0.00108057 0.0119768 0.000233137 0.00415253)
(0.0450578 0.00566559 -0.000308688 0.0135268 0.000281357 0.00430715)
(0.0416739 0.00574401 0.00115652 0.0140503 0.000263205 0.00428384)
(0.0440365 0.00584989 0.00136737 0.0129385 -5.32064e-05 0.00419877)
(0.0491257 0.00635754 -0.00129992 0.0120687 -0.000298122 0.00432262)
(0.0516185 0.0073755 -0.00170283 0.0119652 -0.000349484 0.0044307)
(0.050791 0.00597534 0.000482267 0.0123469 0.000266202 0.00449369)
(0.0492977 0.00582798 0.00188026 0.0126033 0.00106209 0.004251)
(0.056719 0.00750361 0.00270106 0.0127734 0.00132688 0.0045784)
(0.0524764 0.00871924 0.00115166 0.0121373 0.000978258 0.00484116)
(0.050506 0.0102888 -5.41238e-05 0.01287 0.000550581 0.00437576)
(0.0426269 0.00756132 0.000594853 0.0133517 0.000166519 0.00425263)
(0.0389314 0.00547158 -0.000146618 0.0144229 0.000306 0.00441068)
(0.0463272 0.00610156 0.00051381 0.0163678 -2.36448e-05 0.00452163)
(0.0443153 0.00750845 0.000203144 0.0168149 -0.000712337 0.00491686)
(0.0472331 0.00893821 -0.00133982 0.0162181 -0.000863842 0.00488955)
(0.0500639 0.00961345 -0.000166842 0.0157613 -0.000504516 0.00451943)
(0.0505405 0.0102756 0.000766702 0.0156536 -0.000241848 0.00422862)
(0.0524314 0.0117359 0.000535152 0.0166323 -0.000330016 0.00428006)
(0.0566998 0.0120363 -0.000889741 0.016609 -0.000291747 0.00472974)
(0.0525821 0.0103981 -0.000622351 0.0155928 -2.78493e-05 0.0049458)
(0.0505534 0.00951368 0.000887263 0.0142206 0.000658657 0.00476134)
(0.0525649 0.0088109 0.00106495 0.0133416 0.000513797 0.00410199)
(0.051752 0.00693298 0.000665011 0.0126154 0.000485076 0.00360296)
(0.0511963 0.00680289 0.000263222 0.0115889 0.000199274 0.00390607)
(0.0503802 0.00700183 -0.00140506 0.0121202 -0.000235999 0.0039156)
(0.0502748 0.00747967 -0.00109074 0.0129841 0.000112074 0.00376194)
(0.0481393 0.00795971 0.000952073 0.0130995 0.000557888 0.00396531)
(0.0513565 0.0089975 0.00169061 0.0134516 0.00066163 0.0040403)
(0.0572893 0.0098425 0.000998642 0.012714 0.00089485 0.00438718)
(0.045556 0.00834016 0.000455073 0.0118824 0.000852118 0.00470733)
(0.0437454 0.00929015 -0.000444482 0.012563 0.00107003 0.00488134)
(0.0530015 0.00902932 -0.00118026 0.0121345 0.00122228 0.00549367)
(0.0511424 0.00773001 -0.00118184 0.0120509 0.000523499 0.00520968)
(0.0458341 0.0074595 -0.0010202 0.0127391 0.000269102 0.00443726)
(0.0457698 0.00828834 -0.00141441 0.0128391 9.8324e-05 0.00460935)
(0.0443459 0.00666811 -0.00154237 0.0130934 -0.000315916 0.00469962)
(0.0507225 0.00652019 -0.00363269 0.0130352 -0.000488028 0.00435602)
(0.0564035 0.00662667 -0.00428571 0.0126384 -0.00041152 0.00418365)
(0.0531388 0.00364753 0.00199194 0.012853 0.00127404 0.00406854)
(0.0514098 0.00607051 0.00091937 0.0118524 0.00127247 0.00420436)
(0.0500777 0.00637546 0.00037918 0.0106318 0.00132727 0.00422376)
(0.0509631 0.00299856 0.0019442 0.00905758 0.00112257 0.00414548)
(0.0481919 0.00326405 0.00191211 0.0100429 0.000830487 0.0040852)
(0.0445495 0.00467529 0.00107609 0.0114039 0.000815658 0.00423388)
(0.047716 0.00473258 0.000439809 0.0108218 0.000684227 0.00390378)
(0.0548756 0.00666592 0.00146302 0.0101946 0.000371843 0.00390789)
(0.0544615 0.0073148 0.00198954 0.0104841 0.000322434 0.00421615)
(0.0480857 0.0054326 0.00121633 0.0118517 0.000610043 0.00385102)
(0.0444034 0.00515326 0.000858935 0.0135414 0.000749251 0.00412416)
(0.0410558 0.00449578 -0.000647131 0.0137409 0.000822692 0.00441147)
(0.0387788 0.0033408 0.000106621 0.012557 0.000611895 0.00443658)
(0.0374179 0.00372497 0.000189376 0.0112119 0.000587965 0.00477175)
(0.0385471 0.00367398 2.51371e-05 0.0117574 0.000526671 0.00425255)
(0.0406477 0.0045956 -9.32836e-05 0.0121362 0.000226334 0.00360513)
(0.0425773 0.00540048 -0.000633264 0.0112532 9.78435e-05 0.00346767)
(0.0445427 0.00434576 -0.000821645 0.0112355 5.5891e-05 0.00321447)
(0.0457408 0.00393293 0.000176759 0.0116551 3.62286e-05 0.00338469)
(0.0448104 0.00428143 0.000707382 0.0119511 0.000185459 0.00328678)
(0.0461384 0.00660555 0.000256774 0.012618 -0.000381525 0.00324667)
(0.0503266 0.00821948 0.000643451 0.0128369 -0.000678808 0.00371107)
(0.0495908 0.00727476 0.000487444 0.0120514 0.000208248 0.00378165)
(0.0403528 0.00630815 0.000735803 0.0108058 0.000668833 0.0041335)
(0.0479086 0.00634049 0.00169075 0.00997596 0.000674649 0.00409708)
(0.0531261 0.00777726 0.00157213 0.0104266 0.0007038 0.00346331)
(0.0547119 0.00892172 0.00165948 0.0106841 0.000851843 0.00344164)
(0.046847 0.00698018 0.0019234 0.0107893 0.000950601 0.00329226)
(0.0533483 0.00479748 0.00223931 0.0107435 0.00117841 0.0036434)
(0.0539299 0.00489798 0.00326931 0.0108141 0.00178667 0.00402814)
(0.0452374 0.00663925 0.00199747 0.0112234 0.00233411 0.00439129)
(0.0466855 0.00773051 0.00256784 0.0106859 0.00258278 0.00486267)
(0.0476569 0.00914829 0.00334814 0.0107025 0.00275699 0.00511948)
(0.0491642 0.00823592 0.00207707 0.0107774 0.00230562 0.00511205)
(0.0523663 0.00648425 0.000174922 0.0111452 0.00213462 0.00506369)
(0.0516596 0.0069519 -0.000312016 0.0118185 0.00245606 0.00470289)
(0.0449238 0.00477435 -0.000408293 0.0117625 0.00166898 0.00422656)
(0.040961 0.00280336 -0.00110489 0.0111678 0.00091201 0.00443435)
(0.0446874 0.00380341 0.000174531 0.0107874 0.00133112 0.0043186)
(0.0470509 0.00360891 0.00122488 0.0123484 0.00138639 0.00374133)
(0.0429936 0.00371752 0.00117424 0.0133011 0.00113545 0.00353314)
(0.0446555 0.00534764 0.00181054 0.0127561 0.00113072 0.00417494)
(0.0540927 0.00590924 0.00184768 0.0129267 0.00105516 0.00468573)
(0.0574052 0.00487895 0.00174962 0.0121352 0.00076881 0.00442567)
(0.0513547 0.00712703 0.00121158 0.0110691 0.000828719 0.00424301)
(0.0466375 0.00797198 0.00116043 0.0103221 0.00126731 0.00425188)
(0.0459005 0.00693348 0.000818706 0.0112263 0.00140181 0.00356241)
(0.0499681 0.00617345 0.00180134 0.0122893 0.00116555 0.00325309)
(0.0478548 0.00681307 0.00199686 0.0130606 0.000981946 0.00357486)
(0.0476138 0.00747125 0.00243389 0.0135097 0.00126653 0.00416335)
(0.0509625 0.00784842 0.00277021 0.0132278 0.0016408 0.00417313)
(0.0581469 0.00704442 0.00169242 0.0129965 0.00143699 0.0037322)
(0.0551955 0.00477389 0.00130735 0.012958 0.000754634 0.00332878)
(0.0578831 0.00521613 0.00100654 0.0109628 0.000134718 0.00359124)
(0.0530615 0.00664415 -4.84264e-05 0.0108552 -0.000228704 0.0036933)
(0.0486653 0.00545553 0.000299944 0.0120086 4.01984e-05 0.00330144)
(0.0475009 0.00569426 0.000450145 0.0120946 0.00013107 0.00336536)
(0.0462614 0.00637601 0.000739867 0.0128569 0.000309512 0.00345472)
(0.0489908 0.00615163 0.0014795 0.0139636 0.000502671 0.00349766)
(0.0485645 0.00740842 0.00157715 0.0145181 0.00069232 0.00315982)
(0.0451565 0.00789116 0.000512529 0.0132174 0.000893949 0.00357071)
(0.0459913 0.00490777 -0.000580317 0.0121625 0.000341787 0.00372291)
(0.0477566 0.00475705 -8.45794e-05 0.0118381 0.000368408 0.00327847)
(0.0554061 0.00655084 0.000820965 0.011478 0.00100397 0.00351035)
(0.0553233 0.00609466 0.0022149 0.0116898 0.00175278 0.00374233)
(0.0583787 0.00823069 0.00251061 0.0120166 0.00179035 0.00334126)
(0.0570608 0.00872288 0.00283178 0.0116333 0.00143279 0.00293479)
(0.0548707 0.00682085 0.00308496 0.0114295 0.00129171 0.00266604)
(0.0539676 0.00632488 0.00419686 0.011828 0.00124989 0.00309835)
(0.0507879 0.00647392 0.00358483 0.0115649 0.00113451 0.00365783)
(0.0468934 0.00748625 0.00292105 0.0117447 0.000846066 0.00382866)
(0.0481744 0.00894903 0.00236474 0.0138377 0.000426649 0.00339374)
(0.0472594 0.0101805 0.00224808 0.0145762 0.000625325 0.00328182)
(0.0527902 0.00948094 0.0029431 0.0139799 0.00155163 0.00353713)
(0.0552103 0.00852254 0.00266113 0.0142347 0.00163063 0.00385056)
(0.0549446 0.00522281 0.00150058 0.0134584 0.000845636 0.00361249)
(0.0499385 0.00469464 0.000922282 0.0116434 0.000373324 0.00341204)
(0.045565 0.00629373 0.000889128 0.0111721 0.000284994 0.00406511)
(0.0440824 0.00787649 0.00158358 0.0123004 0.000943491 0.00478394)