/*--------------------------------*- C++ -*----------------------------------*\
  =========                 |
  \\      /  F ield         | OpenFOAM: The Open Source CFD Toolbox
   \\    /   O peration     | Website:  https://openfoam.org
    \\  /    A nd           | Version:  10
     \\/     M anipulation  |
\*---------------------------------------------------------------------------*/
FoamFile
{
    format      ascii;
    class       volScalarField;
    location    "25";
    object      nut;
}
// * * * * * * * * * * * * * * * * * * * * * * * * * * * * * * * * * * * * * //

dimensions      [0 2 -1 0 0 0 0];

internalField   nonuniform List<scalar> 
25600
(
5.30981e-09
1.87324e-08
7.14516e-09
1.05642e-08
1.77641e-08
8.49595e-09
2.92445e-08
1.31895e-08
4.36506e-08
6.98422e-09
3.63415e-08
1.02504e-08
1.62893e-08
2.79079e-08
7.05299e-09
1.59567e-08
7.55845e-09
2.75473e-08
2.08013e-08
3.0683e-08
9.36951e-09
3.4867e-08
5.43866e-09
3.77894e-08
1.89306e-08
3.96865e-09
4.38193e-08
3.14254e-09
1.55435e-08
2.54359e-08
7.19448e-09
4.39411e-08
1.07079e-08
4.42034e-08
2.94064e-08
1.4805e-08
5.02085e-08
1.64648e-08
3.4535e-08
1.89841e-08
2.54715e-09
3.93587e-08
4.7466e-09
2.02977e-08
5.38402e-09
1.25718e-08
9.75993e-09
5.6628e-09
5.32593e-08
5.48278e-09
3.13456e-08
2.67903e-09
7.94123e-09
3.8172e-08
8.30536e-09
3.55976e-08
2.93053e-09
2.47207e-08
2.50668e-08
1.14725e-08
3.54578e-08
4.2947e-09
1.41013e-08
2.53715e-08
2.01538e-08
2.66868e-09
3.28643e-08
8.12237e-09
9.07562e-09
3.48736e-08
5.70574e-09
5.39043e-08
5.21375e-09
1.84288e-08
5.45649e-08
1.03185e-08
6.97544e-08
8.12933e-09
9.53913e-09
4.31988e-08
2.7052e-09
4.26616e-08
4.87471e-09
2.35559e-08
4.20876e-09
2.48923e-08
4.86554e-09
4.51206e-09
3.24337e-08
6.56558e-09
2.71244e-08
1.34976e-08
1.37348e-08
2.70096e-08
8.94453e-09
4.50503e-08
4.04958e-09
2.74179e-08
1.75411e-08
4.57032e-09
5.24492e-08
2.72709e-09
2.73482e-08
1.46138e-08
2.09262e-08
2.4137e-09
3.15084e-08
7.3338e-09
1.33928e-08
2.29561e-08
4.42596e-09
5.20266e-08
4.83029e-09
1.1116e-08
5.16979e-08
7.29565e-09
6.83081e-08
3.52258e-09
1.43479e-09
5.19197e-08
3.56575e-09
3.16528e-08
6.01435e-09
1.89958e-08
4.43362e-09
2.65256e-08
6.75711e-09
1.24976e-08
9.24957e-09
1.0951e-08
2.15996e-08
1.70148e-08
2.74011e-08
1.44958e-08
8.42293e-09
4.37548e-08
5.69926e-09
3.60564e-08
7.22967e-09
1.07501e-09
4.2287e-08
3.12847e-09
2.59931e-08
1.14659e-08
1.52571e-08
5.90088e-09
2.63481e-08
5.82379e-09
2.53655e-08
5.98425e-09
4.59833e-09
3.37783e-08
1.01984e-08
1.68382e-08
3.79549e-08
5.11122e-09
5.38793e-08
9.69351e-09
8.74248e-09
3.88622e-08
7.54663e-09
1.95074e-08
1.01463e-08
1.26898e-08
5.68244e-09
2.25985e-08
7.77243e-09
2.04504e-08
3.60759e-09
2.15396e-08
1.59315e-08
1.45075e-08
4.07563e-08
9.40331e-09
8.75341e-09
3.442e-08
6.28704e-09
3.60973e-08
6.27459e-09
1.27224e-09
3.11931e-08
4.85393e-09
2.30433e-08
1.08253e-08
9.96313e-09
1.6648e-08
1.40154e-08
5.65744e-09
2.5128e-08
4.24923e-09
7.00581e-09
1.87121e-08
1.36765e-08
2.22271e-08
2.2109e-08
4.87289e-09
3.96321e-08
1.42975e-08
1.80747e-08
1.9636e-08
1.52569e-08
1.54683e-08
1.55517e-08
9.06046e-09
7.83696e-09
1.78972e-08
7.35769e-09
2.56118e-08
3.57014e-09
3.17027e-08
1.02371e-08
1.06417e-08
4.72618e-08
8.74262e-09
1.23862e-08
2.61412e-08
6.57754e-09
3.2205e-08
7.41756e-09
6.25018e-09
2.6455e-08
5.98888e-09
2.68497e-08
7.57303e-09
9.16933e-09
2.05999e-08
1.03861e-08
4.9062e-09
2.19566e-08
3.96253e-09
8.49249e-09
1.13028e-08
1.3249e-08
2.67043e-08
1.12988e-08
9.44279e-09
2.45887e-08
1.67579e-08
2.27553e-08
8.31826e-09
2.23715e-08
1.50623e-08
1.64438e-08
8.10747e-09
9.82233e-09
1.46427e-08
7.04439e-09
2.72619e-08
4.07016e-09
3.8543e-08
6.42994e-09
7.99515e-09
4.67666e-08
9.08002e-09
1.45353e-08
2.19821e-08
6.1575e-09
2.97954e-08
7.6798e-09
1.29542e-08
1.97052e-08
6.30764e-09
2.76392e-08
6.72989e-09
1.01004e-08
1.83039e-08
9.63772e-09
2.75601e-09
2.0649e-08
3.34783e-09
1.30921e-08
4.62861e-09
1.36859e-08
2.57393e-08
7.36181e-09
1.95301e-08
1.62213e-08
1.55296e-08
2.50272e-08
4.44835e-09
2.82874e-08
1.51638e-08
1.80142e-08
7.33584e-09
1.43282e-08
1.28761e-08
7.30011e-09
2.53974e-08
4.52265e-09
3.94008e-08
6.14237e-09
5.52464e-09
4.46338e-08
9.00633e-09
1.58953e-08
1.82743e-08
5.16106e-09
2.75016e-08
6.5071e-09
1.91933e-08
1.32526e-08
6.19276e-09
2.42167e-08
6.94628e-09
1.24873e-08
1.82291e-08
9.36309e-09
3.84127e-09
1.71079e-08
2.75197e-09
1.5382e-08
4.02463e-09
1.16875e-08
2.46564e-08
4.93896e-09
2.55014e-08
1.35184e-08
1.03016e-08
2.83547e-08
4.29492e-09
4.53553e-08
4.03409e-08
4.44588e-08
2.78109e-08
4.92533e-08
3.58329e-08
3.22033e-08
5.24422e-08
2.48584e-08
5.63951e-08
3.55993e-08
2.72869e-08
6.42888e-08
2.64188e-08
4.54114e-08
4.38126e-08
2.75075e-08
5.33745e-08
2.44212e-08
5.17367e-08
3.42948e-08
3.08413e-08
5.44784e-08
2.28739e-08
4.70799e-08
3.94117e-08
3.53947e-08
3.76028e-08
4.38684e-08
2.94366e-08
4.46624e-08
3.6561e-08
2.81155e-08
5.69631e-08
1.99749e-08
5.34351e-08
4.06286e-08
2.36516e-08
5.62805e-08
2.97701e-08
5.72139e-07
5.68195e-07
5.75496e-07
5.57067e-07
5.83502e-07
5.62029e-07
5.67576e-07
5.79595e-07
5.5705e-07
5.8026e-07
5.68166e-07
5.58906e-07
5.8839e-07
5.52024e-07
5.77886e-07
5.70471e-07
5.62106e-07
5.77356e-07
5.58097e-07
5.7894e-07
5.63732e-07
5.61391e-07
5.84322e-07
5.49335e-07
5.814e-07
5.63273e-07
5.67644e-07
5.666e-07
5.74724e-07
5.5778e-07
5.77802e-07
5.63057e-07
5.64614e-07
5.81453e-07
5.52947e-07
5.78195e-07
5.71343e-07
5.55514e-07
5.85083e-07
5.59148e-07
5.35154e-06
5.32385e-06
5.35434e-06
5.31506e-06
5.363e-06
5.31717e-06
5.35025e-06
5.33241e-06
5.3386e-06
5.33449e-06
5.34356e-06
5.31784e-06
5.35801e-06
5.30763e-06
5.35151e-06
5.31701e-06
5.33988e-06
5.31894e-06
5.33437e-06
5.32276e-06
5.33159e-06
5.31332e-06
5.34493e-06
5.30335e-06
5.34359e-06
5.31507e-06
5.33176e-06
5.319e-06
5.34123e-06
5.30711e-06
5.35245e-06
5.30519e-06
5.34927e-06
5.31828e-06
5.34086e-06
5.31942e-06
5.35376e-06
5.3062e-06
5.36353e-06
5.31294e-06
2.5296e-05
2.52216e-05
2.52922e-05
2.52173e-05
2.5298e-05
2.52142e-05
2.52895e-05
2.52223e-05
2.52758e-05
2.52244e-05
2.52716e-05
2.52104e-05
2.52799e-05
2.51944e-05
2.52776e-05
2.51921e-05
2.5272e-05
2.51869e-05
2.52677e-05
2.51931e-05
2.52552e-05
2.51998e-05
2.52535e-05
2.52032e-05
2.52488e-05
2.52163e-05
2.52418e-05
2.52206e-05
2.52562e-05
2.52058e-05
2.52797e-05
2.51922e-05
2.52952e-05
2.51934e-05
2.52964e-05
2.51977e-05
2.53044e-05
2.51951e-05
2.53095e-05
2.5206e-05
6.41736e-05
6.40795e-05
6.4157e-05
6.40811e-05
6.41543e-05
6.40749e-05
6.41474e-05
6.40747e-05
6.41357e-05
6.40733e-05
6.41305e-05
6.4061e-05
6.41368e-05
6.40479e-05
6.41375e-05
6.40451e-05
6.41405e-05
6.4035e-05
6.41502e-05
6.40365e-05
6.41433e-05
6.40545e-05
6.41302e-05
6.40758e-05
6.41173e-05
6.40955e-05
6.41098e-05
6.41044e-05
6.41185e-05
6.40969e-05
6.41384e-05
6.40813e-05
6.4162e-05
6.40686e-05
6.41758e-05
6.40624e-05
6.41871e-05
6.40555e-05
6.41915e-05
6.40621e-05
0.00010778
0.000107699
0.000107761
0.000107705
0.000107751
0.000107706
0.000107741
0.00010771
0.000107733
0.000107709
0.000107738
0.000107697
0.000107751
0.000107693
0.000107751
0.000107705
0.000107751
0.0001077
0.000107774
0.000107686
0.000107789
0.000107689
0.000107783
0.000107711
0.000107762
0.000107736
0.000107746
0.000107748
0.000107742
0.000107751
0.00010774
0.000107751
0.000107746
0.000107741
0.000107759
0.000107721
0.000107779
0.000107697
0.000107792
0.000107689
0.000144388
0.000144337
0.000144384
0.000144338
0.000144381
0.000144345
0.000144368
0.000144363
0.000144357
0.000144371
0.000144366
0.000144359
0.000144388
0.000144353
0.000144387
0.000144373
0.000144372
0.000144383
0.000144382
0.000144363
0.000144411
0.000144336
0.000144427
0.000144333
0.000144412
0.000144355
0.000144387
0.000144369
0.000144376
0.000144374
0.000144363
0.000144389
0.000144344
0.000144399
0.000144341
0.000144385
0.000144362
0.000144354
0.000144385
0.000144336
0.000173021
0.000173013
0.000173031
0.000173004
0.000173044
0.000173004
0.000173036
0.000173026
0.000173017
0.000173043
0.000173016
0.000173035
0.000173035
0.00017302
0.000173039
0.00017303
0.000173015
0.00017305
0.000173
0.000173044
0.000173017
0.000173005
0.000173052
0.000172974
0.000173059
0.000172981
0.000173038
0.000172998
0.000173026
0.000173002
0.000173018
0.00017302
0.000172992
0.00017305
0.00017297
0.000173056
0.000172983
0.000173034
0.000173009
0.000173017
0.000194666
0.000194693
0.000194677
0.00019468
0.000194696
0.000194667
0.000194698
0.000194677
0.000194678
0.000194693
0.000194664
0.000194691
0.00019467
0.000194674
0.000194674
0.000194672
0.000194656
0.000194689
0.00019463
0.000194699
0.000194628
0.000194675
0.000194664
0.000194634
0.000194692
0.000194625
0.000194686
0.00019464
0.000194679
0.000194647
0.000194679
0.00019466
0.000194662
0.000194694
0.000194635
0.000194719
0.000194633
0.000194711
0.000194654
0.000194698
0.000210432
0.000210478
0.000210438
0.000210463
0.000210452
0.000210444
0.000210457
0.00021044
0.000210443
0.000210447
0.000210427
0.000210447
0.000210422
0.000210437
0.000210423
0.000210431
0.000210414
0.000210441
0.000210393
0.00021046
0.000210382
0.000210457
0.000210407
0.000210425
0.000210445
0.000210408
0.000210455
0.00021042
0.000210453
0.000210428
0.000210459
0.000210435
0.000210454
0.000210461
0.00021043
0.000210489
0.000210417
0.000210493
0.000210426
0.000210485
0.000221369
0.000221421
0.00022137
0.000221406
0.000221376
0.000221386
0.000221379
0.000221376
0.000221372
0.000221375
0.00022136
0.000221374
0.000221355
0.000221371
0.000221353
0.000221371
0.00022135
0.000221378
0.000221342
0.000221398
0.000221331
0.000221409
0.000221346
0.000221393
0.000221381
0.000221376
0.0002214
0.000221382
0.000221402
0.000221389
0.000221408
0.000221391
0.000221409
0.000221405
0.000221391
0.000221426
0.000221374
0.000221433
0.000221371
0.000221428
0.000228394
0.000228443
0.00022839
0.000228429
0.000228392
0.000228413
0.000228393
0.000228404
0.00022839
0.000228401
0.000228386
0.0002284
0.000228385
0.000228401
0.000228385
0.000228408
0.000228386
0.000228417
0.000228386
0.000228434
0.000228381
0.00022845
0.000228389
0.000228445
0.000228416
0.000228432
0.000228434
0.000228432
0.000228437
0.000228436
0.00022844
0.000228435
0.000228441
0.000228438
0.000228428
0.000228448
0.000228412
0.000228452
0.000228402
0.000228449
0.000232281
0.000232325
0.000232275
0.000232314
0.000232277
0.000232303
0.000232277
0.000232298
0.000232277
0.000232297
0.000232279
0.000232298
0.000232284
0.000232302
0.000232288
0.000232312
0.00023229
0.000232323
0.000232295
0.000232336
0.000232293
0.000232351
0.000232297
0.000232351
0.000232314
0.000232341
0.000232327
0.000232337
0.000232329
0.000232337
0.000232328
0.000232333
0.000232326
0.000232329
0.000232317
0.000232332
0.000232303
0.000232332
0.000232291
0.000232329
0.000233674
0.000233713
0.000233669
0.000233706
0.000233672
0.000233701
0.000233673
0.0002337
0.000233676
0.000233702
0.000233682
0.000233705
0.00023369
0.00023371
0.000233697
0.000233721
0.0002337
0.000233732
0.000233704
0.000233742
0.000233704
0.000233752
0.000233705
0.000233752
0.000233714
0.000233744
0.000233721
0.000233737
0.000233721
0.000233734
0.000233716
0.000233728
0.000233712
0.000233722
0.000233704
0.000233719
0.000233693
0.000233717
0.000233684
0.000233715
0.000233101
0.000233137
0.000233099
0.000233135
0.000233103
0.000233133
0.000233107
0.000233137
0.000233111
0.000233141
0.000233119
0.000233146
0.000233128
0.00023315
0.000233135
0.000233159
0.000233138
0.000233168
0.000233141
0.000233174
0.00023314
0.00023318
0.000233138
0.000233178
0.000233141
0.000233171
0.000233143
0.000233163
0.000233141
0.000233157
0.000233135
0.000233152
0.000233129
0.000233145
0.000233122
0.000233141
0.000233115
0.000233138
0.000233109
0.000233136
0.000230994
0.000231028
0.000230994
0.000231028
0.000231
0.00023103
0.000231005
0.000231036
0.00023101
0.000231041
0.000231018
0.000231046
0.000231027
0.00023105
0.000231033
0.000231056
0.000231034
0.000231062
0.000231034
0.000231065
0.000231032
0.000231067
0.000231029
0.000231063
0.000231028
0.000231056
0.000231026
0.000231048
0.000231023
0.000231041
0.000231017
0.000231036
0.000231011
0.000231031
0.000231006
0.000231027
0.000231002
0.000231025
0.000230998
0.000231025
0.000227702
0.000227734
0.000227704
0.000227737
0.000227711
0.00022774
0.000227717
0.000227747
0.000227722
0.000227753
0.000227729
0.000227756
0.000227735
0.000227759
0.00022774
0.000227763
0.000227739
0.000227765
0.000227737
0.000227766
0.000227734
0.000227764
0.000227729
0.000227759
0.000227727
0.000227752
0.000227723
0.000227745
0.000227719
0.000227739
0.000227714
0.000227735
0.000227709
0.000227732
0.000227705
0.000227729
0.000227704
0.000227728
0.000227703
0.000227729
0.000223507
0.000223538
0.000223511
0.000223542
0.000223518
0.000223546
0.000223524
0.000223552
0.000223528
0.000223558
0.000223533
0.00022356
0.000223538
0.000223561
0.00022354
0.000223562
0.000223538
0.000223563
0.000223535
0.000223561
0.00022353
0.000223558
0.000223525
0.000223552
0.000223522
0.000223545
0.000223518
0.00022354
0.000223514
0.000223534
0.00022351
0.000223531
0.000223506
0.00022353
0.000223504
0.00022353
0.000223505
0.00022353
0.000223506
0.000223532
0.000218638
0.000218668
0.000218642
0.000218673
0.000218649
0.000218676
0.000218655
0.000218682
0.000218658
0.000218686
0.000218661
0.000218687
0.000218665
0.000218686
0.000218665
0.000218686
0.000218661
0.000218685
0.000218657
0.000218682
0.000218651
0.000218678
0.000218647
0.000218672
0.000218643
0.000218665
0.00021864
0.000218661
0.000218636
0.000218657
0.000218634
0.000218655
0.000218631
0.000218656
0.00021863
0.000218657
0.000218632
0.000218658
0.000218636
0.000218661
0.000213277
0.000213306
0.000213281
0.00021331
0.000213288
0.000213313
0.000213293
0.000213318
0.000213295
0.000213322
0.000213297
0.000213321
0.000213299
0.000213319
0.000213297
0.000213318
0.000213292
0.000213315
0.000213288
0.000213311
0.000213282
0.000213307
0.000213278
0.000213301
0.000213275
0.000213296
0.000213272
0.000213293
0.000213268
0.00021329
0.000213267
0.000213289
0.000213266
0.000213291
0.000213266
0.000213293
0.000213269
0.000213295
0.000213274
0.000213299
0.000207576
0.000207604
0.00020758
0.000207608
0.000207587
0.00020761
0.00020759
0.000207615
0.000207591
0.000207617
0.000207592
0.000207615
0.000207593
0.000207612
0.00020759
0.00020761
0.000207585
0.000207607
0.00020758
0.000207603
0.000207575
0.000207598
0.000207571
0.000207593
0.000207569
0.000207588
0.000207566
0.000207586
0.000207563
0.000207585
0.000207563
0.000207585
0.000207563
0.000207587
0.000207564
0.00020759
0.000207568
0.000207592
0.000207573
0.000207597
0.00020162
0.000201648
0.000201625
0.00020165
0.000201631
0.000201653
0.000201633
0.000201657
0.000201633
0.000201658
0.000201634
0.000201655
0.000201634
0.000201652
0.00020163
0.00020165
0.000201624
0.000201646
0.00020162
0.000201642
0.000201615
0.000201638
0.000201612
0.000201632
0.00020161
0.000201628
0.000201607
0.000201628
0.000201605
0.000201627
0.000201606
0.000201627
0.000201606
0.000201631
0.000201607
0.000201634
0.000201612
0.000201636
0.000201618
0.000201641
0.000195703
0.00019573
0.000195708
0.000195732
0.000195714
0.000195735
0.000195715
0.000195739
0.000195714
0.000195738
0.000195716
0.000195734
0.000195715
0.000195732
0.000195709
0.000195731
0.000195704
0.000195725
0.000195701
0.000195721
0.000195696
0.000195717
0.000195693
0.000195712
0.000195691
0.000195709
0.000195688
0.000195709
0.000195687
0.000195708
0.000195688
0.00019571
0.000195689
0.000195713
0.00019569
0.000195716
0.000195697
0.000195718
0.000195701
0.000195724
0.000188625
0.000188652
0.000188632
0.000188651
0.000188637
0.000188657
0.000188635
0.000188661
0.000188636
0.000188657
0.000188639
0.000188654
0.000188635
0.000188654
0.000188629
0.000188651
0.000188626
0.000188645
0.000188622
0.000188642
0.000188617
0.000188637
0.000188616
0.000188632
0.000188614
0.000188632
0.000188609
0.000188632
0.00018861
0.00018863
0.000188611
0.000188632
0.000188611
0.000188636
0.000188614
0.000188637
0.000188621
0.000188639
0.000188623
0.000188648
7.97201e-09
1.85674e-08
6.35818e-09
1.17167e-08
1.02577e-08
1.35715e-08
2.15917e-08
1.70282e-08
3.81687e-08
6.76982e-09
3.56448e-08
1.124e-08
1.66045e-08
3.21362e-08
7.91903e-09
1.5236e-08
8.70498e-09
2.58878e-08
2.56966e-08
3.01286e-08
9.63089e-09
3.43271e-08
4.51415e-09
4.00131e-08
1.78462e-08
4.02377e-09
4.48693e-08
2.47522e-09
1.62598e-08
2.34421e-08
5.36755e-09
5.04826e-08
7.00927e-09
4.83421e-08
2.89903e-08
9.82374e-09
6.58661e-08
1.01027e-08
4.26911e-08
1.65196e-08
3.31288e-09
3.79784e-08
5.18533e-09
2.23142e-08
4.51015e-09
2.22562e-08
4.74901e-09
6.37619e-09
4.79907e-08
5.93852e-09
3.38218e-08
3.67355e-09
8.48876e-09
3.90716e-08
9.01716e-09
4.02735e-08
3.08807e-09
2.85677e-08
2.64119e-08
1.19102e-08
3.95193e-08
2.3121e-09
1.6037e-08
2.62695e-08
1.97931e-08
3.08542e-09
3.1286e-08
8.38958e-09
1.26706e-08
2.61707e-08
4.85627e-09
5.65622e-08
4.19033e-09
2.23777e-08
4.85649e-08
8.90596e-09
7.92955e-08
4.61646e-09
1.08797e-08
3.80091e-08
3.12144e-09
4.00601e-08
4.59666e-09
2.11274e-08
3.45233e-09
2.62137e-08
5.27688e-09
6.75212e-09
2.85279e-08
6.65778e-09
2.71092e-08
1.33569e-08
1.61917e-08
2.48961e-08
9.33281e-09
4.97946e-08
3.63756e-09
3.52044e-08
1.39546e-08
4.2656e-09
5.65508e-08
2.38135e-09
3.18535e-08
1.56444e-08
1.95354e-08
2.74981e-09
2.88212e-08
8.41287e-09
2.02597e-08
1.2968e-08
3.7166e-09
5.13638e-08
4.98677e-09
1.71561e-08
4.37131e-08
6.85021e-09
7.03648e-08
4.65283e-09
3.04582e-09
4.73951e-08
3.85438e-09
2.90338e-08
5.55187e-09
1.52933e-08
3.00845e-09
2.36523e-08
6.79592e-09
1.43639e-08
8.28064e-09
1.11903e-08
1.97308e-08
1.69497e-08
3.07798e-08
1.21414e-08
8.48263e-09
4.54179e-08
4.93184e-09
4.30608e-08
5.9225e-09
1.25699e-09
4.50075e-08
2.39113e-09
2.80901e-08
1.19083e-08
1.31187e-08
6.3649e-09
2.37716e-08
6.42338e-09
3.00633e-08
3.86376e-09
4.63671e-09
3.36706e-08
8.95437e-09
2.23757e-08
3.13666e-08
5.15576e-09
5.25485e-08
1.12525e-08
1.24163e-08
3.23307e-08
8.68812e-09
1.77386e-08
9.71754e-09
1.10236e-08
4.34605e-09
1.96309e-08
7.36423e-09
2.09882e-08
3.58015e-09
2.26779e-08
1.40394e-08
1.42985e-08
4.37183e-08
7.77674e-09
9.15576e-09
3.31125e-08
5.64644e-09
4.01244e-08
6.77377e-09
2.52566e-09
3.28636e-08
3.82543e-09
2.24063e-08
1.13354e-08
8.49273e-09
1.72317e-08
1.43104e-08
6.0502e-09
2.77815e-08
3.69466e-09
6.95699e-09
2.0057e-08
1.08644e-08
2.74369e-08
1.75759e-08
5.23227e-09
3.668e-08
1.48243e-08
2.27183e-08
1.18848e-08
1.86239e-08
1.46548e-08
1.41557e-08
1.01461e-08
6.51523e-09
1.70694e-08
6.58991e-09
2.57046e-08
3.41044e-09
3.24432e-08
9.31058e-09
1.01735e-08
4.96074e-08
7.18308e-09
1.43242e-08
2.29114e-08
6.5178e-09
3.39099e-08
8.75322e-09
7.50186e-09
2.67266e-08
5.27642e-09
2.43445e-08
8.57883e-09
8.73022e-09
2.02636e-08
1.21998e-08
5.195e-09
2.37291e-08
3.82639e-09
8.03711e-09
1.2285e-08
1.00176e-08
3.12082e-08
9.36454e-09
1.25937e-08
2.12252e-08
1.6211e-08
2.80373e-08
3.85152e-09
2.60989e-08
1.48124e-08
1.35275e-08
1.14771e-08
7.84598e-09
1.68645e-08
6.36405e-09
2.80215e-08
3.80299e-09
3.86333e-08
6.44733e-09
7.36598e-09
4.90509e-08
7.56024e-09
1.75966e-08
1.75797e-08
6.47622e-09
2.95879e-08
9.01454e-09
1.39336e-08
1.91834e-08
6.25624e-09
2.35163e-08
7.66197e-09
1.02844e-08
1.73506e-08
1.23187e-08
3.11553e-09
2.17933e-08
3.26897e-09
1.18921e-08
5.12398e-09
1.04485e-08
2.87499e-08
6.42198e-09
2.36335e-08
1.397e-08
1.38248e-08
3.12692e-08
2.34952e-09
3.19481e-08
1.52376e-08
1.44928e-08
1.20566e-08
1.17945e-08
1.65878e-08
7.05455e-09
2.73231e-08
4.29302e-09
3.97284e-08
6.48364e-09
4.90079e-09
4.65293e-08
7.81222e-09
1.94378e-08
1.37713e-08
5.50118e-09
2.65668e-08
7.18442e-09
1.99559e-08
1.26464e-08
7.16771e-09
2.01727e-08
7.89719e-09
1.28162e-08
1.64511e-08
1.23196e-08
3.97367e-09
1.78758e-08
2.74835e-09
1.3755e-08
4.44006e-09
8.98363e-09
2.63571e-08
4.5975e-09
2.8365e-08
1.23e-08
8.21244e-09
3.4938e-08
2.73688e-09
4.63446e-08
3.96344e-08
4.22803e-08
2.92098e-08
4.6876e-08
3.63634e-08
3.05705e-08
5.39076e-08
2.19876e-08
5.71889e-08
3.43959e-08
2.54761e-08
6.60564e-08
2.32952e-08
4.75425e-08
4.0253e-08
2.68524e-08
5.26086e-08
2.23363e-08
5.1987e-08
3.19076e-08
3.17297e-08
5.11534e-08
2.25563e-08
4.59442e-08
3.6339e-08
3.64868e-08
3.62877e-08
4.2321e-08
2.91467e-08
4.21376e-08
3.62929e-08
2.699e-08
5.58654e-08
1.93007e-08
5.31103e-08
3.92133e-08
2.2445e-08
5.88274e-08
2.68286e-08
5.60719e-07
5.56617e-07
5.62496e-07
5.46196e-07
5.70401e-07
5.5051e-07
5.54191e-07
5.69952e-07
5.4226e-07
5.69949e-07
5.5531e-07
5.45865e-07
5.79093e-07
5.36542e-07
5.68316e-07
5.56226e-07
5.50557e-07
5.65421e-07
5.45146e-07
5.67424e-07
5.50179e-07
5.5081e-07
5.70549e-07
5.3825e-07
5.6885e-07
5.49205e-07
5.56746e-07
5.5416e-07
5.61453e-07
5.46561e-07
5.63596e-07
5.52078e-07
5.51916e-07
5.68778e-07
5.40531e-07
5.65873e-07
5.58636e-07
5.43327e-07
5.73945e-07
5.45304e-07
5.27456e-06
5.2502e-06
5.27525e-06
5.24202e-06
5.2832e-06
5.24365e-06
5.26981e-06
5.26e-06
5.25732e-06
5.26079e-06
5.26433e-06
5.24157e-06
5.28218e-06
5.22882e-06
5.27633e-06
5.23855e-06
5.26428e-06
5.24146e-06
5.25875e-06
5.24531e-06
5.25589e-06
5.23693e-06
5.26887e-06
5.22714e-06
5.26838e-06
5.23606e-06
5.25847e-06
5.2409e-06
5.26563e-06
5.2307e-06
5.27518e-06
5.2305e-06
5.27207e-06
5.24355e-06
5.26351e-06
5.24551e-06
5.27608e-06
5.23255e-06
5.2869e-06
5.23759e-06
2.50999e-05
2.50333e-05
2.50917e-05
2.50302e-05
2.5095e-05
2.50264e-05
2.50859e-05
2.50344e-05
2.50717e-05
2.5036e-05
2.50686e-05
2.50217e-05
2.50796e-05
2.50037e-05
2.50808e-05
2.49998e-05
2.50793e-05
2.49933e-05
2.5078e-05
2.49996e-05
2.50661e-05
2.50084e-05
2.50639e-05
2.50125e-05
2.50603e-05
2.50225e-05
2.50572e-05
2.5025e-05
2.50718e-05
2.50109e-05
2.50941e-05
2.50007e-05
2.51067e-05
2.50056e-05
2.51041e-05
2.50126e-05
2.51096e-05
2.50092e-05
2.51149e-05
2.50167e-05
6.39459e-05
6.38568e-05
6.39245e-05
6.38608e-05
6.39185e-05
6.38549e-05
6.39128e-05
6.38553e-05
6.39018e-05
6.38569e-05
6.38959e-05
6.38504e-05
6.39022e-05
6.38397e-05
6.39072e-05
6.38355e-05
6.39183e-05
6.3822e-05
6.39345e-05
6.38216e-05
6.39292e-05
6.38426e-05
6.39139e-05
6.38658e-05
6.39007e-05
6.38833e-05
6.38977e-05
6.38876e-05
6.39104e-05
6.3876e-05
6.39328e-05
6.38586e-05
6.39541e-05
6.38474e-05
6.39599e-05
6.38449e-05
6.39632e-05
6.3838e-05
6.39646e-05
6.38398e-05
0.000107626
0.000107545
0.000107607
0.000107553
0.000107597
0.000107557
0.000107589
0.000107563
0.000107585
0.000107565
0.00010759
0.000107563
0.000107599
0.000107567
0.000107597
0.000107582
0.000107602
0.000107574
0.000107631
0.000107554
0.000107651
0.000107556
0.000107643
0.000107581
0.000107618
0.000107607
0.000107602
0.000107616
0.0001076
0.000107613
0.000107602
0.000107603
0.00010761
0.000107585
0.00010762
0.000107564
0.000107632
0.000107544
0.000107638
0.000107535
0.000144307
0.000144255
0.000144306
0.000144256
0.000144307
0.000144266
0.000144297
0.000144288
0.000144288
0.000144297
0.000144301
0.000144288
0.000144321
0.00014429
0.000144313
0.00014432
0.000144293
0.000144333
0.000144305
0.000144307
0.00014434
0.000144274
0.000144359
0.000144272
0.000144339
0.000144296
0.00014431
0.00014431
0.000144295
0.000144311
0.000144282
0.000144317
0.000144266
0.000144316
0.000144267
0.000144294
0.000144288
0.000144265
0.000144306
0.000144252
0.000172991
0.000172981
0.000173003
0.000172973
0.000173021
0.000172973
0.000173017
0.000173
0.000172999
0.000173018
0.000173003
0.000173008
0.000173027
0.000172995
0.000173026
0.000173016
0.000172993
0.000173045
0.000172973
0.00017304
0.000172994
0.000172996
0.000173033
0.000172959
0.000173039
0.000172966
0.000173011
0.000172984
0.000172991
0.000172987
0.000172979
0.000173
0.000172952
0.000173023
0.000172936
0.00017302
0.000172955
0.000172994
0.000172982
0.00017298
0.000194672
0.000194696
0.000194684
0.000194685
0.000194708
0.000194673
0.000194714
0.000194688
0.000194695
0.000194708
0.000194687
0.000194703
0.000194702
0.000194683
0.000194708
0.000194687
0.000194682
0.000194713
0.000194647
0.000194728
0.000194642
0.000194702
0.000194678
0.000194654
0.000194707
0.000194639
0.000194696
0.000194655
0.000194679
0.000194661
0.000194674
0.000194672
0.000194654
0.000194702
0.000194627
0.000194722
0.000194632
0.000194709
0.000194658
0.000194696
0.000210463
0.000210508
0.000210473
0.000210497
0.000210492
0.000210481
0.000210502
0.000210482
0.000210489
0.000210494
0.000210476
0.000210493
0.00021048
0.000210476
0.000210486
0.000210471
0.000210472
0.000210485
0.000210443
0.000210508
0.000210423
0.000210503
0.000210444
0.000210465
0.00021048
0.000210441
0.000210486
0.000210449
0.000210476
0.000210458
0.000210476
0.000210464
0.000210468
0.000210489
0.000210444
0.000210517
0.000210436
0.000210519
0.00021045
0.00021051
0.000221421
0.000221474
0.000221427
0.000221464
0.00022144
0.000221448
0.000221448
0.000221443
0.000221441
0.000221446
0.00022143
0.000221444
0.000221429
0.000221434
0.000221431
0.000221428
0.000221426
0.000221435
0.000221409
0.000221454
0.000221389
0.000221464
0.000221397
0.000221442
0.000221428
0.000221419
0.000221443
0.00022142
0.00022144
0.000221429
0.000221441
0.000221432
0.00022144
0.000221446
0.000221425
0.00022147
0.000221412
0.00022148
0.000221415
0.000221478
0.000228463
0.000228517
0.000228466
0.000228507
0.000228474
0.000228494
0.000228478
0.000228487
0.000228474
0.000228486
0.000228467
0.000228483
0.000228467
0.000228477
0.000228468
0.000228475
0.000228466
0.000228479
0.000228459
0.000228493
0.000228445
0.000228506
0.000228446
0.000228498
0.000228468
0.00022848
0.000228485
0.000228478
0.000228486
0.000228484
0.000228486
0.000228486
0.000228488
0.000228492
0.00022848
0.000228507
0.000228468
0.000228517
0.000228464
0.000228519
0.000232365
0.000232414
0.000232365
0.000232405
0.00023237
0.000232394
0.000232371
0.000232389
0.000232368
0.000232387
0.000232365
0.000232385
0.000232367
0.000232381
0.000232369
0.000232383
0.000232368
0.000232387
0.000232367
0.000232396
0.00023236
0.000232408
0.000232358
0.000232406
0.000232372
0.000232395
0.000232386
0.00023239
0.000232389
0.000232393
0.000232388
0.000232395
0.000232389
0.000232397
0.000232385
0.000232404
0.000232377
0.000232411
0.00023237
0.000232414
0.000233768
0.00023381
0.000233766
0.000233803
0.000233769
0.000233795
0.00023377
0.000233792
0.000233767
0.000233792
0.000233767
0.00023379
0.000233771
0.000233788
0.000233774
0.000233791
0.000233774
0.000233796
0.000233775
0.000233802
0.000233771
0.000233811
0.00023377
0.000233811
0.000233778
0.000233804
0.000233787
0.000233799
0.00023379
0.000233799
0.000233788
0.000233801
0.000233788
0.000233801
0.000233786
0.000233803
0.00023378
0.000233807
0.000233775
0.000233809
0.0002332
0.000233236
0.000233197
0.000233231
0.0002332
0.000233225
0.0002332
0.000233225
0.000233199
0.000233226
0.0002332
0.000233225
0.000233205
0.000233224
0.000233209
0.000233228
0.000233209
0.000233233
0.00023321
0.000233237
0.000233208
0.000233242
0.000233207
0.000233242
0.000233211
0.000233237
0.000233216
0.000233233
0.000233219
0.000233232
0.000233217
0.000233233
0.000233215
0.000233232
0.000233214
0.000233232
0.000233211
0.000233233
0.000233206
0.000233234
0.000231092
0.000231124
0.00023109
0.000231121
0.000231092
0.000231117
0.000231093
0.000231119
0.000231093
0.00023112
0.000231095
0.000231121
0.0002311
0.000231121
0.000231104
0.000231124
0.000231104
0.000231128
0.000231104
0.00023113
0.000231103
0.000231133
0.000231102
0.000231132
0.000231104
0.000231129
0.000231106
0.000231126
0.000231108
0.000231123
0.000231107
0.000231124
0.000231104
0.000231124
0.000231102
0.000231122
0.000231101
0.000231121
0.000231097
0.000231122
0.000227796
0.000227825
0.000227794
0.000227823
0.000227797
0.000227821
0.000227799
0.000227824
0.000227799
0.000227826
0.000227802
0.000227827
0.000227806
0.000227827
0.000227809
0.00022783
0.000227809
0.000227832
0.000227808
0.000227834
0.000227807
0.000227835
0.000227806
0.000227834
0.000227808
0.000227831
0.000227808
0.000227828
0.000227808
0.000227826
0.000227808
0.000227826
0.000227805
0.000227826
0.000227803
0.000227824
0.000227802
0.000227823
0.0002278
0.000227823
0.000223596
0.000223623
0.000223595
0.000223622
0.000223598
0.000223621
0.000223601
0.000223624
0.000223601
0.000223627
0.000223603
0.000223628
0.000223607
0.000223628
0.000223609
0.00022363
0.000223609
0.000223632
0.000223608
0.000223632
0.000223606
0.000223633
0.000223605
0.000223631
0.000223606
0.000223628
0.000223606
0.000223626
0.000223605
0.000223624
0.000223605
0.000223623
0.000223602
0.000223623
0.0002236
0.000223622
0.0002236
0.00022362
0.000223599
0.000223621
0.000218721
0.000218747
0.000218721
0.000218747
0.000218724
0.000218746
0.000218727
0.000218749
0.000218727
0.000218752
0.000218729
0.000218753
0.000218732
0.000218752
0.000218734
0.000218754
0.000218732
0.000218755
0.000218731
0.000218755
0.00021873
0.000218755
0.000218729
0.000218752
0.000218729
0.00021875
0.000218729
0.000218748
0.000218728
0.000218747
0.000218727
0.000218746
0.000218725
0.000218746
0.000218723
0.000218745
0.000218723
0.000218744
0.000218723
0.000218744
0.000213355
0.000213379
0.000213355
0.00021338
0.000213359
0.000213379
0.000213361
0.000213382
0.000213361
0.000213385
0.000213362
0.000213385
0.000213365
0.000213384
0.000213366
0.000213385
0.000213364
0.000213386
0.000213363
0.000213386
0.000213361
0.000213385
0.000213361
0.000213383
0.000213361
0.00021338
0.000213361
0.000213379
0.000213359
0.000213378
0.000213359
0.000213377
0.000213357
0.000213377
0.000213355
0.000213377
0.000213355
0.000213376
0.000213356
0.000213376
0.000207649
0.000207672
0.000207649
0.000207673
0.000207653
0.000207672
0.000207655
0.000207676
0.000207655
0.000207679
0.000207656
0.000207678
0.000207659
0.000207677
0.000207659
0.000207678
0.000207656
0.000207678
0.000207655
0.000207678
0.000207654
0.000207677
0.000207653
0.000207674
0.000207654
0.000207672
0.000207653
0.000207672
0.000207652
0.000207671
0.000207651
0.00020767
0.00020765
0.00020767
0.000207648
0.00020767
0.000207649
0.000207668
0.00020765
0.000207669
0.000201689
0.000201712
0.00020169
0.000201712
0.000201695
0.000201712
0.000201695
0.000201716
0.000201694
0.000201718
0.000201697
0.000201716
0.000201699
0.000201715
0.000201698
0.000201717
0.000201695
0.000201717
0.000201695
0.000201716
0.000201693
0.000201715
0.000201693
0.000201712
0.000201694
0.00020171
0.000201692