# y+ ()       
# Time        	patch         	min           	max           	average       
4             	bottomWall	2.191870e+00	5.364689e+00	3.353074e+00
4             	topWall	2.249035e+00	4.798841e+00	3.292949e+00
