/*--------------------------------*- C++ -*----------------------------------*\
  =========                 |
  \\      /  F ield         | OpenFOAM: The Open Source CFD Toolbox
   \\    /   O peration     | Website:  https://openfoam.org
    \\  /    A nd           | Version:  10
     \\/     M anipulation  |
\*---------------------------------------------------------------------------*/
FoamFile
{
    format      ascii;
    class       volScalarField;
    location    "10";
    object      pMean;
}
// * * * * * * * * * * * * * * * * * * * * * * * * * * * * * * * * * * * * * //

dimensions      [0 2 -2 0 0 0 0];

internalField   nonuniform List<scalar> 
102400
(
-0.0028109
-0.00258551
-0.00306661
-0.00328745
-0.00296573
-0.00234573
-0.00198457
-0.00212272
-0.0026676
-0.00284698
-0.00248694
-0.00195434
-0.0021147
-0.00245037
-0.00237125
-0.00205155
-0.00177406
-0.00201918
-0.00251538
-0.00256586
-0.00241141
-0.00230402
-0.00258587
-0.00284559
-0.00268587
-0.00210639
-0.0018401
-0.00220634
-0.00258638
-0.00260714
-0.0020006
-0.00131604
-0.00143958
-0.00224739
-0.00276689
-0.00246475
-0.00197152
-0.00216959
-0.00286736
-0.00316231
-0.00266027
-0.00243343
-0.0029155
-0.00312693
-0.00280815
-0.00220947
-0.00184777
-0.00197913
-0.00249812
-0.00267894
-0.0023324
-0.00180884
-0.00196334
-0.00227798
-0.00220121
-0.00189859
-0.00163417
-0.00186937
-0.00234022
-0.00239592
-0.00225755
-0.00215306
-0.00242314
-0.00267308
-0.00252085
-0.00196569
-0.0017041
-0.00204761
-0.00241998
-0.00244234
-0.00183896
-0.00116228
-0.00128361
-0.00208814
-0.00260595
-0.00230576
-0.00181351
-0.00201441
-0.0027161
-0.00300711
-0.00268371
-0.00246606
-0.00294406
-0.00315712
-0.0028492
-0.00226614
-0.00190036
-0.00201773
-0.00251923
-0.00268782
-0.00236139
-0.00183546
-0.00198312
-0.00229012
-0.00219762
-0.00192768
-0.00165824
-0.00187315
-0.00233018
-0.00239712
-0.00229109
-0.00218664
-0.00242433
-0.00267562
-0.0025438
-0.00202827
-0.00176886
-0.00206818
-0.00244045
-0.00246355
-0.00189315
-0.00119415
-0.00128366
-0.00209982
-0.00260555
-0.00230081
-0.00181279
-0.00201016
-0.00272189
-0.00302386
-0.0029079
-0.00269608
-0.00318901
-0.00340974
-0.00310434
-0.00251308
-0.00213793
-0.00226069
-0.00274213
-0.00290068
-0.00258799
-0.00205481
-0.00219561
-0.00250725
-0.00239541
-0.00213378
-0.00185456
-0.00205504
-0.00251172
-0.00258346
-0.00248745
-0.00240009
-0.00262112
-0.00287458
-0.00275051
-0.00224711
-0.0019931
-0.00229166
-0.00268452
-0.00270571
-0.00215314
-0.0014279
-0.0014873
-0.00231676
-0.00281148
-0.00248394
-0.00200087
-0.00221265
-0.00293375
-0.00324674
-0.00312073
-0.00291858
-0.00340557
-0.00362342
-0.00333578
-0.00275119
-0.00235375
-0.00245877
-0.00291183
-0.00307882
-0.00279079
-0.0022516
-0.00236146
-0.0026892
-0.00259045
-0.00233511
-0.00201305
-0.00217778
-0.00264596
-0.00274158
-0.0026459
-0.00255915
-0.00276867
-0.00303693
-0.00292201
-0.00240783
-0.00214768
-0.00245007
-0.00286905
-0.00291411
-0.00237055
-0.0016371
-0.00167163
-0.00250524
-0.00300575
-0.00267317
-0.00218622
-0.00239318
-0.00311503
-0.00344494
-0.00327052
-0.00308046
-0.00353072
-0.00375636
-0.00351936
-0.00295053
-0.0025213
-0.00260031
-0.00300987
-0.00318474
-0.00292748
-0.00241144
-0.00248466
-0.00283324
-0.00276868
-0.00251899
-0.0021461
-0.00223744
-0.0027391
-0.00289431
-0.00277376
-0.00267893
-0.0028547
-0.00312712
-0.00304957
-0.00253434
-0.00224534
-0.00252273
-0.00295473
-0.0030382
-0.00252287
-0.00180329
-0.00180785
-0.00262505
-0.00312053
-0.00281206
-0.0023224
-0.00251862
-0.00322336
-0.00357337
-0.00344716
-0.00328487
-0.0037105
-0.00396586
-0.0037483
-0.00318929
-0.00274951
-0.00282556
-0.00315562
-0.00330303
-0.00307305
-0.00262039
-0.00267029
-0.00302908
-0.00297245
-0.00273404
-0.00234422
-0.00236138
-0.00290367
-0.00311714
-0.00292982
-0.00283121
-0.00297638
-0.00325133
-0.00322591
-0.0026962
-0.00238721
-0.00262401
-0.0030585
-0.00316133
-0.00267838
-0.00200297
-0.00198818
-0.00278152
-0.00323292
-0.00296929
-0.00250195
-0.00271008
-0.00340578
-0.00374355
-0.00371646
-0.00360013
-0.00401983
-0.00419942
-0.0040335
-0.00350801
-0.003063
-0.00314833
-0.00334718
-0.00346914
-0.00325373
-0.00287646
-0.0029279
-0.00325431
-0.00321107
-0.00299434
-0.00260226
-0.00258966
-0.00315077
-0.00340794
-0.00315147
-0.00303677
-0.00317449
-0.00347873
-0.00352298
-0.00294107
-0.0025974
-0.00279775
-0.0032348
-0.00334292
-0.0028806
-0.00226638
-0.00227971
-0.00305542
-0.003437
-0.00319758
-0.00278276
-0.00303451
-0.00371178
-0.00399823
-0.00407315
-0.00396832
-0.0043552
-0.0043929
-0.00436566
-0.00391831
-0.00343527
-0.00347569
-0.00355679
-0.00370756
-0.00354042
-0.00321954
-0.00326613
-0.0034816
-0.00351072
-0.0033315
-0.00294127
-0.00289871
-0.00343642
-0.00373704
-0.00346813
-0.00330538
-0.00344863
-0.00380368
-0.00388471
-0.00325387
-0.00288718
-0.00307762
-0.00350182
-0.00360552
-0.00314985
-0.00260486
-0.00268575
-0.0034209
-0.00374393
-0.0034801
-0.0031204
-0.00342989
-0.00402073
-0.00429008
-0.00437434
-0.00426793
-0.00457389
-0.00453934
-0.00465603
-0.00429502
-0.00379312
-0.00370319
-0.00370885
-0.00393759
-0.00385622
-0.003612
-0.00359834
-0.00368617
-0.0037766
-0.00362792
-0.00332187
-0.00321852
-0.00365682
-0.00394484
-0.00370898
-0.00356334
-0.00371412
-0.00403912
-0.00407886
-0.00346737
-0.003173
-0.00334489
-0.00368027
-0.00377304
-0.00334778
-0.00293698
-0.00310727
-0.00369954
-0.00396033
-0.00369644
-0.0034189
-0.0037654
-0.00416718
-0.00446757
-0.00459637
-0.0044584
-0.00457773
-0.00454432
-0.0047846
-0.00453698
-0.00399307
-0.00375353
-0.00378788
-0.00406506
-0.00409534
-0.00390466
-0.00377603
-0.00376487
-0.00396064
-0.00393292
-0.00371524
-0.00345296
-0.00373473
-0.00405665
-0.00391826
-0.00376037
-0.00383749
-0.00403415
-0.0040783
-0.00359364
-0.00339983
-0.00342407
-0.00365871
-0.00378475
-0.00342286
-0.00314192
-0.00338517
-0.00378882
-0.00402695
-0.00379506
-0.00359853
-0.00392594
-0.0041411
-0.00454208
-0.00464942
-0.00437279
-0.0044485
-0.00450555
-0.00480263
-0.00458986
-0.00394114
-0.00371403
-0.00377764
-0.00405187
-0.00414124
-0.00396423
-0.00375711
-0.00368847
-0.0040004
-0.00412132
-0.00391476
-0.00354524
-0.00366851
-0.00403319
-0.00396794
-0.00374659
-0.00375612
-0.00385487
-0.0038927
-0.00353948
-0.00338932
-0.00330556
-0.00349632
-0.00357502
-0.003297
-0.00318227
-0.00342753
-0.00369509
-0.00389289
-0.00368835
-0.00361511
-0.00392828
-0.00407255
-0.00458326
-0.00451844
-0.00414189
-0.00426084
-0.00444636
-0.0046988
-0.00442533
-0.00380414
-0.00370838
-0.00378508
-0.00400262
-0.00413931
-0.00396653
-0.00371649
-0.00364511
-0.00399554
-0.00415707
-0.00389312
-0.00349812
-0.00354503
-0.00391936
-0.00382085
-0.00351696
-0.00344714
-0.00355791
-0.00365474
-0.00341855
-0.00324747
-0.00316725
-0.00330861
-0.00336529
-0.00315929
-0.00310774
-0.00333004
-0.00354768
-0.00367408
-0.0035011
-0.00353603
-0.00376194
-0.0039637
-0.00449073
-0.00391141
-0.00362668
-0.00391742
-0.00415397
-0.00420176
-0.00380724
-0.00338712
-0.00345103
-0.00354884
-0.00368087
-0.00375761
-0.00361915
-0.00350891
-0.00355379
-0.00375007
-0.00377991
-0.00354264
-0.00325542
-0.00332273
-0.00351922
-0.00334502
-0.00317923
-0.00321058
-0.00336622
-0.00343073
-0.00312119
-0.00295133
-0.00293153
-0.00306009
-0.00314404
-0.00294497
-0.0028489
-0.00306882
-0.00333852
-0.0034233
-0.00326124
-0.00326524
-0.00344033
-0.00378366
-0.00409579
-0.00361342
-0.00365223
-0.00402574
-0.00415413
-0.00388833
-0.00360652
-0.00342174
-0.00347169
-0.00346997
-0.00335882
-0.00343053
-0.00345678
-0.00348514
-0.00352826
-0.00338257
-0.00339853
-0.00325874
-0.00310825
-0.00308909
-0.00301656
-0.00304715
-0.00312377
-0.00320878
-0.00330057
-0.00321818
-0.00295828
-0.00288458
-0.00292521
-0.00307235
-0.0030622
-0.00284401
-0.00288854
-0.00314053
-0.00331576
-0.00332778
-0.00310984
-0.0032476
-0.00365752
-0.00391918
-0.00382925
-0.003239
-0.00335009
-0.00366953
-0.00362092
-0.00326183
-0.00315518
-0.00304593
-0.00310045
-0.00300371
-0.00274982
-0.00291478
-0.00307469
-0.0031865
-0.00315911
-0.00284769
-0.00285225
-0.0027526
-0.00263483
-0.00254465
-0.00234432
-0.00246269
-0.00254283
-0.00276748
-0.00291962
-0.00273829
-0.00258308
-0.00249358
-0.00260396
-0.00273413
-0.00269045
-0.00262829
-0.00273426
-0.00294764
-0.00299124
-0.00291246
-0.00283813
-0.00305949
-0.00341147
-0.00348138
-0.00321401
-0.00283836
-0.00294973
-0.0031447
-0.00305814
-0.00274598
-0.00264155
-0.00252689
-0.00246804
-0.00240628
-0.00226612
-0.00245183
-0.00263461
-0.0027278
-0.00270224
-0.00243433
-0.00239713
-0.0023415
-0.00227658
-0.00215878
-0.00202071
-0.00211261
-0.0023188
-0.0026
-0.00270489
-0.00253117
-0.00238808
-0.00228071
-0.00236197
-0.00254521
-0.00257206
-0.00263003
-0.00266068
-0.00273487
-0.0027596
-0.00269384
-0.00275259
-0.0028269
-0.00288675
-0.00288892
-0.00276561
-0.00151923
-0.00159878
-0.00188207
-0.00185461
-0.00154587
-0.00122021
-0.00109984
-0.00111222
-0.00112363
-0.00103454
-0.000950505
-0.00119228
-0.00146756
-0.00147962
-0.00126707
-0.00102269
-0.00100032
-0.00108465
-0.00106988
-0.000959174
-0.000875405
-0.00110046
-0.00139854
-0.00153207
-0.00130459
-0.00101756
-0.0010321
-0.00121818
-0.00145692
-0.00143918
-0.00129682
-0.00133197
-0.00147118
-0.00154407
-0.00147617
-0.00132293
-0.00142739
-0.00173527
-0.00184531
-0.00169313
-0.000784338
-0.000808852
-0.00108966
-0.00116606
-0.000986654
-0.000709474
-0.000519523
-0.000541567
-0.000588828
-0.00052671
-0.000442265
-0.000619253
-0.000847443
-0.000890007
-0.000716413
-0.000510351
-0.000419555
-0.000506391
-0.000565847
-0.000532741
-0.000416735
-0.000511811
-0.000742041
-0.000881837
-0.000812963
-0.00052745
-0.00043443
-0.000542499
-0.000809787
-0.000850608
-0.000548614
-0.000524366
-0.000759297
-0.00100076
-0.0010764
-0.000861139
-0.000868114
-0.00117829
-0.00127276
-0.00104363
-0.000254516
-0.00025768
-0.000597585
-0.000886881
-0.000729104
-0.000215197
-3.45443e-05
-0.000158716
-0.000326093
-0.000300783
-0.000102344
-0.000163825
-0.000441392
-0.000636997
-0.000459676
-7.63032e-05
-2.08269e-06
-0.000144821
-0.00028478
-0.000247729
-1.62737e-05
-4.16517e-05
-0.000396073
-0.000702845
-0.000663993
-0.000224445
-8.07034e-05
-0.000260978
-0.00050875
-0.000535441
-0.000207921
-0.000231416
-0.000536711
-0.000851348
-0.000852665
-0.00046933
-0.000429504
-0.000767533
-0.000965552
-0.00068881
-8.61813e-05
-2.68377e-05
-0.000227191
-0.000397332
-0.000258848
1.65624e-05
0.000126653
8.107e-05
-2.48795e-05
5.15733e-05
0.000217301
0.000159555
-3.6495e-05
-0.000232984
-9.37274e-05
0.000184994
0.000224672
0.00013187
-3.10586e-05
-1.98106e-05
0.000170548
0.000161831
1.12958e-05
-0.000230508
-0.000221721
1.44362e-05
0.000110394
-5.35385e-05
-0.000339024
-0.000346692
-9.15877e-05
-4.19176e-05
-0.000252241
-0.00053036
-0.000465982
-0.000142455
-0.000103979
-0.000361447
-0.000555055
-0.000386776
0.000217776
0.000133242
-0.000223054
-0.000245578
-1.97487e-05
0.000203742
0.000139031
-0.000143753
-6.01085e-05
0.000223541
0.000334627
0.000149068
-0.000188975
-0.000227211
4.23683e-05
0.000285547
0.000283775
7.06461e-05
-1.37524e-05
0.000191005
0.000371068
0.000197398
-0.00014707
-0.000215941
-7.58215e-05
3.15122e-05
-8.52976e-05
-0.000294905
-0.000283649
-0.000136653
1.18423e-05
-8.87754e-05
-0.000400284
-0.000479858
-0.000347845
-0.000108664
-5.84063e-05
-0.0002741
-0.000312997
-5.73234e-05
0.000433566
0.000255228
0.000194716
0.000309125
0.00045776
0.000491081
0.000354438
0.000294513
0.000501979
0.000660768
0.000580421
0.000471249
0.000406752
0.000483616
0.00065697
0.000641828
0.000560583
0.000521707
0.000630453
0.000810383
0.000733404
0.000560478
0.000512932
0.000617039
0.000660629
0.000535497
0.00043753
0.000485536
0.00067138
0.000711004
0.000587521
0.000474745
0.000420635
0.000412853
0.000424044
0.000412114
0.000340538
0.000292953
0.000326686
0.000449577
-0.0004692
-0.000713704
-0.000846708
-0.00071466
-0.00045809
-0.000408389
-0.000623354
-0.000824612
-0.000728055
-0.00048661
-0.000417274
-0.000577907
-0.000744438
-0.000592043
-0.000357182
-0.000313546
-0.000454508
-0.000635759
-0.000546557
-0.000352909
-0.000345369
-0.000527704
-0.000697731
-0.000593589
-0.000374761
-0.000390715
-0.000581719
-0.000646021
-0.000539234
-0.000409258
-0.000452967
-0.000720033
-0.000943997
-0.00082681
-0.000568016
-0.000552487
-0.000735129
-0.000809415
-0.000643184
-0.000457936
-0.000121048
-0.000371343
-0.000380866
-7.90935e-05
5.98599e-05
-6.15806e-05
-0.000312382
-0.000388534
-0.000125342
6.12431e-05
-1.17641e-05
-0.000233665
-0.000247798
-2.91304e-06
0.00011376
1.23559e-05
-0.000211896
-0.000226505
6.53974e-05
0.000222629
0.00013694
-8.3964e-05
-0.000144744
0.000137831
0.000251585
4.32686e-06
-0.000259142
-0.000157955
0.000110603
0.000146452
-5.46215e-05
-0.000324752
-0.000301346
2.65204e-05
0.000124867
-4.2011e-05
-0.000255154
-0.000227948
-7.80037e-06
2.43353e-05
2.05371e-06
1.90554e-07
7.0595e-05
0.000129088
0.000101542
4.19031e-05
-1.22763e-05
1.13006e-05
9.76845e-05
9.24333e-05
3.33846e-05
2.83291e-05
6.70809e-05
7.97307e-05
2.04384e-05
-6.17409e-05
-3.76501e-05
4.81497e-05
5.50969e-05
4.95259e-05
4.12326e-06
-4.37261e-05
5.33661e-05
0.000145966
9.8215e-05
-1.11045e-05
-2.10287e-05
8.21929e-05
0.000120917
4.79465e-05
-2.58236e-05
-2.00724e-05
4.81017e-05
8.98901e-05
2.14366e-06
-0.000106207
-8.12448e-05
4.16947e-05
9.97188e-05
4.65281e-05
-0.000482764
-0.000383518
-0.000237476
-0.000140873
-0.000336584
-0.000442015
-0.000273214
-0.000124142
-7.84175e-05
-0.000266618
-0.000365835
-0.000277309
-0.000179144
-0.000172375
-0.000384668
-0.000473874
-0.000326541
-0.000162677
-0.00013411
-0.000306147
-0.00038723
-0.00029419
-0.000144782
-9.49539e-05
-0.000289087
-0.000399606
-0.000358428
-0.000222996
-0.000173695
-0.00039319
-0.000471035
-0.000385601
-0.000274272
-0.000198552
-0.00038278
-0.000457031
-0.000335221
-0.000186139
-0.000150314
-0.000374723
1.93388e-05
0.000140351
0.000341774
0.000324374
1.85356e-05
1.38542e-06
0.000160948
0.000377885
0.000405976
0.000174682
0.000125001
0.000206652
0.000355892
0.000325221
6.30173e-05
5.69538e-05
0.000215466
0.00039721
0.000401223
0.000135836
5.41704e-05
0.000194758
0.00041831
0.000422848
0.000204301
0.00017034
0.000236339
0.00040247
0.000376624
0.000110247
0.00012082
0.000246842
0.00041392
0.000433736
0.000165298
0.000101609
0.000230267
0.000469988
0.000434682
6.93074e-05
-0.000812777
-0.00076856
-0.000639481
-0.000641243
-0.00078234
-0.000796787
-0.000749827
-0.000539951
-0.000501372
-0.000647789
-0.000698718
-0.000739446
-0.000655941
-0.000625317
-0.000672949
-0.000643726
-0.000600451
-0.000470274
-0.000513196
-0.000742327
-0.000770626
-0.000700183
-0.000605146
-0.00061823
-0.0007283
-0.000748676
-0.00076033
-0.000667134
-0.000648995
-0.000729176
-0.000659501
-0.000591894
-0.000410814
-0.000445833
-0.000706183
-0.000728592
-0.000685928
-0.000613374
-0.000675733
-0.000846079
-0.00130796
-0.00113181
-0.000787867
-0.00070154
-0.000949795
-0.00109166
-0.000809186
-0.000492621
-0.000612421
-0.000945131
-0.00113546
-0.00111997
-0.000812859
-0.000728397
-0.00102614
-0.00120477
-0.00101406
-0.000645915
-0.000623351
-0.000940609
-0.00105025
-0.000908025
-0.000800614
-0.000877097
-0.0011943
-0.00144601
-0.00127494
-0.000867883
-0.000687248
-0.000933017
-0.00104078
-0.00089175
-0.000703172
-0.000774944
-0.00112347
-0.00126792
-0.00107079
-0.000777876
-0.000810373
-0.00111506
0.00259222
0.00274126
0.00263876
0.00246764
0.00236157
0.00240435
0.00257536
0.00264093
0.00239709
0.00230267
0.00257654
0.00273979
0.00259156
0.00217762
0.00213265
0.0025047
0.00274804
0.00278922
0.00245942
0.00221307
0.00232645
0.00227881
0.00228577
0.00219522
0.00232187
0.00277359
0.00298667
0.00267898
0.0023478
0.0022551
0.00226944
0.00242
0.00251664
0.00215633
0.00201109
0.00224854
0.00248563
0.00253042
0.00223532
0.00224365
0.0122525
0.0106811
0.00984991
0.0102706
0.0118471
0.0125463
0.0108254
0.00963518
0.0102976
0.0116572
0.0117211
0.0103101
0.00951741
0.010112
0.0117782
0.0119571
0.0105711
0.00990276
0.010316
0.0117726
0.0122134
0.0107532
0.0097655
0.0103487
0.0116006
0.0115464
0.0102698
0.00983613
0.0102756
0.0118193
0.0123817
0.0107407
0.00963483
0.0100929
0.0115559
0.011816
0.0103032
0.00961792
0.0103797
0.0119416
0.00903164
0.00837607
0.00804301
0.00844994
0.00848931
0.00836779
0.00827861
0.00866783
0.00929846
0.00918533
0.00904431
0.00877274
0.00867623
0.00898104
0.00932135
0.00908795
0.00913014
0.00976012
0.00967302
0.00930154
0.00927573
0.00940294
0.00970298
0.00939036
0.00910569
0.00904902
0.00943121
0.00998782
0.00981162
0.00925665
0.00908415
0.00961256
0.00983682
0.00919122
0.00894338
0.00911635
0.00929166
0.00866418
0.00855148
0.00901766
0.00899672
0.00833382
0.00799842
0.00840708
0.00845112
0.00832936
0.00823692
0.00862292
0.00925184
0.00914671
0.0090101
0.0087308
0.00862858
0.00893006
0.00927609
0.00905176
0.00908935
0.00971252
0.00962538
0.00925963
0.00923981
0.00936016
0.00965846
0.00934679
0.00906668
0.00901311
0.00938969
0.00994637
0.0097679
0.00921475
0.00904584
0.0095704
0.00978895
0.00914221
0.0089001
0.00908195
0.00925192
0.00861676
0.00850572
0.00898186
0.00872757
0.00803445
0.00771062
0.00813613
0.00817169
0.00802481
0.00792033
0.00833073
0.00897694
0.0088751
0.00872803
0.00842776
0.00833777
0.00865335
0.00900786
0.00877508
0.0087961
0.00942484
0.00935666
0.00898724
0.008951
0.00906675
0.0093808
0.00908991
0.00881243
0.00871879
0.00906963
0.00965751
0.00949217
0.0089492
0.00876313
0.00926947
0.00950123
0.00886636
0.00864657
0.00883531
0.00897991
0.0083349
0.0082319
0.00871885
0.00807912
0.00737191
0.00704327
0.00745798
0.00749277
0.00733652
0.00723969
0.00768457
0.00832878
0.0082152
0.0080583
0.00776663
0.00768643
0.00799457
0.00836697
0.00812067
0.00815235
0.00878604
0.0087189
0.00835269
0.00830274
0.00841521
0.00873785
0.00842454
0.00816273
0.00807018
0.00841141
0.00901784
0.00883047
0.00829252
0.00809962
0.00862414
0.0088615
0.00822955
0.00802704
0.00822341
0.00835838
0.00769012
0.00758497
0.00807829
0.00736859
0.00663534
0.00627463
0.00671311
0.006755
0.00659097
0.00648476
0.0069628
0.00761383
0.00749554
0.00736843
0.00705439
0.00695894
0.00725021
0.00764779
0.00744377
0.00746753
0.00805603
0.0079888
0.00767665
0.00765228
0.00772962
0.00799719
0.00766131
0.00746959
0.00740552
0.0077148
0.00831536
0.00810031
0.00755709
0.00741151
0.00791611
0.00813001
0.00748931
0.00728905
0.00753357
0.00765971
0.00696027
0.00685215
0.00735979
0.00651042
0.00574823
0.00534776
0.00580647
0.00589529
0.00571391
0.00557602
0.00607071
0.00673477
0.00665182
0.0065447
0.0062008
0.00605
0.00631575
0.00678418
0.00666099
0.00664054
0.00715475
0.00709125
0.00686876
0.00688433
0.00691241
0.00711039
0.00675626
0.00666645
0.0066259
0.00689178
0.00748084
0.00723893
0.00673804
0.0066219
0.00706837
0.00725429
0.00658937
0.00642966
0.00672118
0.00682617
0.00608782
0.00596616
0.00651397
0.00560679
0.00479469
0.00430112
0.00476194
0.0049342
0.0047934
0.00462954
0.00511037
0.00576588
0.00573987
0.00568463
0.00531051
0.00505145
0.00527181
0.00584871
0.00588137
0.0058333
0.00621917
0.00611647
0.00599261
0.00609296
0.00609767
0.00622982
0.0058429
0.00586818
0.00588548
0.00607365
0.00660586
0.00635989
0.00593373
0.00588542
0.00622429
0.00634712
0.00564791
0.00553977
0.00588272
0.00593725
0.00512709
0.00497401
0.00557131
0.00468159
0.00380134
0.00319788
0.00368882
0.0039565
0.00389029
0.00370745
0.00418745
0.00484433
0.00483562
0.00482725
0.00448052
0.00411673
0.00431295
0.00497713
0.00516105
0.00508377
0.00529894
0.00516495
0.00515654
0.00532525
0.00534575
0.0054207
0.00495607
0.00507525
0.00518406
0.00526671
0.00571352
0.00543959
0.00513323
0.00521354
0.00545739
0.00548351
0.00471155
0.00464366
0.0050652
0.00506351
0.00414223
0.00390757
0.00455603
0.00383593
0.0029633
0.00238396
0.00290409
0.00309615
0.00306672
0.00298222
0.00354746
0.00414357
0.00403904
0.00407963
0.00380111
0.00343786
0.00364839
0.00430038
0.00456233
0.00444573
0.00453017
0.00445872
0.00455463
0.00468257
0.00470894
0.00469049
0.00417284
0.00438117
0.00461028
0.00457999
0.00488096
0.00459507
0.00443533
0.00464191
0.00481281
0.00469685
0.00387451
0.00383178
0.00432752
0.00431323
0.00328544
0.00299237
0.00367261
0.00314862
0.00240288
0.00204265
0.0024281
0.00246416
0.00253263
0.00260926
0.0032056
0.003621
0.00337751
0.00354052
0.0033371
0.00308915
0.00329772
0.00382322
0.00415008
0.00400428
0.00401999
0.00402874
0.00417169
0.00419554
0.00420339
0.00405666
0.00362207
0.00394826
0.00424416
0.00403372
0.00418221
0.00394368
0.00388329
0.00416569
0.00426761
0.0040129
0.00318633
0.00316537
0.00371635
0.00369936
0.00266465
0.00243719
0.00303038
0.0027022
0.00223654
0.00198397
0.00209239
0.00201279
0.00229511
0.00253942
0.00306041
0.00314861
0.00281265
0.00320399
0.00314749
0.00301388
0.00314782
0.00347126
0.00391424
0.00384392
0.00382836
0.0038053
0.00385607
0.00384699
0.00389228
0.00366796
0.00335695
0.00376724
0.00405171
0.00369427
0.00376881
0.0035318
0.00350717
0.00386469
0.00390688
0.00351324
0.00271932
0.00265891
0.00325444
0.00326877
0.00238231
0.00221708
0.00258515
0.00255685
0.00238531
0.00209151
0.00177785
0.0017258
0.00237075
0.00274137
0.00306797
0.00279487
0.00251417
0.00313622
0.00327194
0.00315218
0.00304575
0.00315513
0.00373648
0.00386364
0.00378987
0.00359671
0.00353749
0.00360655
0.00375067
0.00354687
0.00317575
0.0036425
0.0039213
0.00362162
0.00367561
0.00326169
0.00330091
0.0037679
0.00372283
0.00321614
0.00239006
0.00237004
0.00307558
0.00305663
0.00233286
0.00204914
0.00218092
0.00262519
0.00269552
0.00211225
0.00145917
0.00161869
0.00250672
0.0029932
0.00296612
0.00245224
0.00242545
0.00319671
0.00337086
0.00301292
0.00273142
0.00287714
0.00357321
0.00381644
0.00363298
0.00326574
0.00324199
0.00349068
0.00370751
0.00338284
0.00289438
0.00343891
0.00376704
0.00379596
0.00376763
0.00313565
0.00321851
0.00366126
0.00359497
0.00310256
0.00222469
0.00232469
0.00305745
0.00298107
0.00233436
0.00185886
0.00192353
0.00275195
0.002559
0.0015608
0.00113348
0.00168357
0.0025259
0.00267269
0.0023152
0.00202809
0.00237204
0.00319007
0.00301441
0.00235933
0.00230535
0.00269842
0.00340637
0.00340762
0.00298991
0.00274967
0.0029931
0.00338005
0.00334127
0.00276746
0.00246594
0.00311739
0.00348298
0.00359768
0.00338947
0.00277737
0.002948
0.00341979
0.00331102
0.00266161
0.00183252
0.00221293
0.00293335
0.00289429
0.00217401
0.00159308
0.00193953
0.00255405
0.00196616
0.00119156
0.00118112
0.00191593
0.00234278
0.00212942
0.00187383
0.00192683
0.00245193
0.00305822
0.00252746
0.00191583
0.00211053
0.00261812
0.00304492
0.0027466
0.00242101
0.00249074
0.00292407
0.00311868
0.00290272
0.00242552
0.00230338
0.00287671
0.00309879
0.00308459
0.00283569
0.00243639
0.00274595
0.00319074
0.00291684
0.0021387
0.0016243
0.00218561
0.00281939
0.00267171
0.00188995
0.00146583
0.00208909
0.00234406
0.00200812
0.00145936
0.00129985
0.00177139
0.00200949
0.00201753
0.00185208
0.00176487
0.00218415
0.00255758
0.00216695
0.00172066
0.00178113
0.00228491
0.00255181
0.00243914
0.0022074
0.00217209
0.00259152
0.00271117
0.00270299
0.00229462
0.00197286
0.00243909
0.00253241
0.00269342
0.00252281
0.0022894
0.00266512
0.00294532
0.00259322
0.00191079
0.0016672
0.00226444
0.00255706
0.00228822
0.00175081
0.00164382
0.00220353
0.00194403
0.00182618
0.00122131
0.000923938
0.00130396
0.00161126
0.00162704
0.00145801
0.00124907
0.00151662
0.0018816
0.00175906
0.00143698
0.00134508
0.00170783
0.00208504
0.00219975
0.00187684
0.0016235
0.00193689
0.00216961
0.00234842
0.00187012
0.00148396
0.00187865
0.00215582
0.00253768
0.00231014
0.0019756
0.00222368
0.00253976
0.00244105
0.00172129
0.00138446
0.00178159
0.00206933
0.00210059
0.00172757
0.00146945
0.00170086
0.00146169
0.00137144
0.000847696
0.000553126
0.000886261
0.00121633
0.00117596
0.000974988
0.000771545
0.00102369
0.00135002
0.0012679
0.000969063
0.000856694
0.00115908
0.00149068
0.0014832
0.00120752
0.00110766
0.00141406
0.00162421
0.00168669
0.00127814
0.00109974
0.00137472
0.00161925
0.00193802
0.00166067
0.00143317
0.00163653
0.00193046
0.00188547
0.00122226
0.000899667
0.00123224
0.00162709
0.00173137
0.00129543
0.000885283
0.00111461
0.00114354
0.000971551
0.00056786
0.000379766
0.000703962
0.00106288
0.000998922
0.000793006
0.000634823
0.000869565
0.00117168
0.0010551
0.00076833
0.000630215
0.000916633
0.00125898
0.00128451
0.00105808
0.000892181
0.00110194
0.00135096
0.00141055
0.00102918
0.000816957
0.00103678
0.00143185
0.00165752
0.00128172
0.00108446
0.00121961
0.00149948
0.00139943
0.000802591
0.000586533
0.000882089
0.00138864
0.00145486
0.000921568
0.000534651
0.000790842
0.0012481
0.0010007
0.000702278
0.000638657
0.000982762
0.00124914
0.00108221
0.000882175
0.000851698
0.00111129
0.00128762
0.00111907
0.000857537
0.000797996
0.00113118
0.00140397
0.00133288
0.00109715
0.00101192
0.00121838
0.00146848
0.00141564
0.00104159
0.0010023
0.00124025
0.00154928
0.00160354
0.00126551
0.00114806
0.00126099
0.00152214
0.00140161
0.000906489
0.00085875
0.00113085
0.00148867
0.00142884
0.00097286
0.000751882
0.00102391
0.00160259
0.0012825
0.00105464
0.0011044
0.00150498
0.00167576
0.00145902
0.00128641
0.00134146
0.00160697
0.00168315
0.00147547
0.00130168
0.00132555
0.0016556
0.0018051
0.00162446
0.00145037
0.0014456
0.0016409
0.0017504
0.00155328
0.00129432
0.00138343
0.0016153
0.00183755
0.00171511
0.00140563
0.00145417
0.00158672
0.00170994
0.00149583
0.00124518
0.00131773
0.00155005
0.00172078
0.00153263
0.0012027
0.00116435
0.00150493
0.00197164
0.00178431
0.00160201
0.00158711
0.00189656
0.00203996
0.00191063
0.00174859
0.00170167
0.00193467
0.00202443
0.00188841
0.00169314
0.00161546
0.00187424
0.0019697
0.00181972
0.00169029
0.00161043
0.0017933
0.00196737
0.00186674
0.00161198
0.00155962
0.00181868
0.00203755
0.00192699
0.0017059
0.00165476
0.00177914
0.00197538
0.00184692
0.00160875
0.00154556
0.00174963
0.00197487
0.00186469
0.00159979
0.00153643
0.00184122
0.00214826
0.00195648
0.00183768
0.0019369
0.00212297
0.00209127
0.00194848
0.00184236
0.00192255
0.00209839
0.00206619
0.00194413
0.00186149
0.00192267
0.00211262
0.00209645
0.00193744
0.00188486
0.00196952
0.00210014
0.00206554
0.00188983
0.00182547
0.0019907
0.00215221
0.00211613
0.00197779
0.00194097
0.00204699
0.00214394
0.00207282
0.00190174
0.00187075
0.00197792
0.00217338
0.00215173
0.00194669
0.00184912
0.0019524
0.00215764
0.00187012
0.00176135
0.00157534
0.00162549
0.00171021
0.00178075
0.00169373
0.00154553
0.00163094
0.00171071
0.00176346
0.00169502
0.0015941
0.00164035
0.00176719
0.00181594
0.00173103
0.00165464
0.00167987
0.00173938
0.00177511
0.00170178
0.0015953
0.00163211
0.0017073
0.00177225
0.00173423
0.00167787
0.00173527
0.0018042
0.00183211
0.00174901
0.00159394
0.00160353
0.00168782
0.00170799
0.00165438
0.00160212
0.00167336
0.00180049
0.00226273
0.0022394
0.00222991
0.00226387
0.00219571
0.00217353
0.00218805
0.00218847
0.00220038
0.00215885
0.00216093
0.00218312
0.0021876
0.00217294
0.00217551
0.00217137
0.00220635
0.00224865
0.00223736
0.00221951
0.00220157
0.00220388
0.00221977
0.00219667
0.00220781
0.00224319
0.0022374
0.00223157
0.00225728
0.00226161
0.0022448
0.0022569
0.00220367
0.00217192
0.00221222
0.00221867
0.00227248
0.0022791
0.00225691
0.00227661
0.00140186
0.00130053
0.00126349
0.00136156
0.00141955
0.00137008
0.00129917
0.00128103
0.00136814
0.00142871
0.00137535
0.00131385
0.00129922
0.00137296
0.00141003
0.00135278
0.00134211
0.00134081
0.00139499
0.0014543
0.00140079
0.00135292
0.0013289
0.00137713
0.00144173
0.00140625
0.00134328
0.001335
0.00140068
0.00143578
0.00140484
0.00135011
0.00130843
0.00141408
0.00145604
0.00138417
0.00133954
0.00133378
0.00140943
0.00144885
0.00255283
0.00245913
0.00260863
0.00279713
0.00276561
0.00253868
0.00247132
0.00263747
0.00283554
0.00282009
0.00260446
0.0025474
0.00268535
0.00285177
0.00279933
0.00261973
0.00258888
0.00270465
0.00285767
0.00282079
0.00259594
0.00250783
0.00259819
0.00279894
0.00279253
0.00262184
0.00255365
0.00266118
0.00282884
0.00278058
0.00260468
0.00254938
0.00265902
0.00281447
0.00274738
0.00254715
0.00248664
0.00262858
0.0027875
0.00275017
-0.000343755
-0.000432333
-7.83485e-05
0.000234727
7.76628e-05
-0.000333029
-0.000363457
-1.15322e-05
0.000280437
0.000109286
-0.000300532
-0.000388023
-1.97374e-05
0.000338744
0.0001643
-0.000229389
-0.000293523
2.03097e-05
0.000374546
0.000140165
-0.000342596
-0.000335065
-1.54622e-05
0.000270908
0.000117744
-0.000371901
-0.000451651
-2.64665e-05
0.000318349
0.000159571
-0.000254031
-0.000282483
-1.66654e-05
0.000264295
0.000151134
-0.000312442
-0.00043852
-5.91172e-05
0.000258016
0.000106926
0.00300587
0.00315819
0.00344435
0.00356363
0.00332539
0.00307973
0.00320864
0.00346246
0.00350451
0.00327023
0.00311198
0.00324376
0.00345753
0.00356517
0.00326444
0.00300461
0.00312205
0.00346912
0.0036377
0.00328964
0.00305139
0.00318589
0.00336677
0.00348698
0.00324203
0.00295652
0.0030899
0.00334498
0.00352265
0.00328342
0.00306888
0.00320171
0.00343316
0.00354136
0.0032819
0.00305291
0.0032205
0.00347261
0.00356658
0.00328171
-0.00230044
-0.00260515
-0.00263735
-0.00235171
-0.00197553
-0.00221652
-0.00237487
-0.00233684
-0.00206617
-0.00164473
-0.00185585
-0.00225338
-0.00252398
-0.00239104
-0.00209936
-0.00235644
-0.00251095
-0.00239956
-0.0022282
-0.00187717
-0.00198725
-0.00223148
-0.00222979
-0.00214559
-0.00212233
-0.00249199
-0.00286773
-0.00280751
-0.0022993
-0.00184885
-0.00200444
-0.00224847
-0.00241707
-0.0022942
-0.00190523
-0.0020516
-0.00224619
-0.00231439
-0.00217368
-0.0019548
0.00403085
0.00429812
0.00440632
0.00420158
0.00395519
0.0038992
0.00411482
0.00428234
0.0041341
0.00412996
0.0043782
0.00456572
0.00427974
0.00369511
0.00369769
0.0042025
0.00476358
0.00491577
0.00447764
0.00417704
0.00393603
0.00408419
0.00439122
0.00407198
0.00387193
0.00421865
0.00445572
0.00458033
0.00461183
0.00432421
0.00417523
0.00452605
0.00477616
0.00443209
0.00411336
0.00414892
0.00452446
0.004705
0.00441248
0.00408906
0.0105754
0.0104584
0.0100515
0.0097405
0.00990372
0.0104094
0.0104636
0.0101393
0.00988041
0.0101626
0.0105701
0.0103952
0.0100863
0.00962747
0.00979034
0.0104833
0.0107154
0.0106127
0.0100793
0.00997091
0.0103579
0.0104069
0.0101736
0.00964001
0.00958785
0.0101942