/*--------------------------------*- C++ -*----------------------------------*\
  =========                 |
  \\      /  F ield         | OpenFOAM: The Open Source CFD Toolbox
   \\    /   O peration     | Website:  https://openfoam.org
    \\  /    A nd           | Version:  10
     \\/     M anipulation  |
\*---------------------------------------------------------------------------*/
FoamFile
{
    format      ascii;
    class       volVectorField;
    location    "10";
    object      U;
}
// * * * * * * * * * * * * * * * * * * * * * * * * * * * * * * * * * * * * * //

dimensions      [0 1 -1 0 0 0 0];

internalField   nonuniform List<vector> 
102400
(
(0.380496 -0.0922214 0.0530053)
(0.309004 -0.105777 0.0964783)
(0.305412 -0.0937309 0.139266)
(0.272168 -0.095886 0.0737281)
(0.340099 -0.0771981 0.0594035)
(0.379778 -0.0945631 0.106415)
(0.28545 -0.127107 0.0193756)
(0.354619 -0.0923293 0.10249)
(0.171118 -0.104037 0.0139167)
(0.0945689 -0.162292 0.0588864)
(0.300137 -0.073203 0.069592)
(0.407784 -0.0883817 0.0069365)
(0.347383 -0.102968 0.0855072)
(0.38424 -0.0873371 0.0982051)
(0.379186 -0.0890114 0.123485)
(0.278755 -0.0695276 0.0677719)
(0.334148 -0.0965413 0.0126444)
(0.250348 -0.114551 0.0497216)
(0.0802167 -0.159651 0.0308985)
(0.379211 -0.09457 0.0361277)
(0.355401 -0.0927418 0.124581)
(0.343017 -0.0847608 0.107399)
(0.475929 -0.0921873 0.0482982)
(0.354305 -0.0760841 0.0529532)
(0.346003 -0.0848989 0.0829956)
(0.354203 -0.0993913 0.0191781)
(0.26704 -0.0889654 0.0647706)
(0.236259 -0.0885725 0.0311206)
(0.369665 -0.0828562 0.0705872)
(0.349809 -0.102177 0.0704163)
(0.432216 -0.0849844 0.0474029)
(0.253536 -0.0908883 0.112315)
(0.221556 -0.0793262 0.0493075)
(0.188897 -0.179593 -0.0017539)
(0.323128 -0.0968224 0.0156327)
(0.25625 -0.0687228 0.0816784)
(0.300507 -0.0870156 0.0668963)
(0.252933 -0.120492 0.0453503)
(0.341187 -0.100304 0.0467903)
(0.320462 -0.0865303 0.0689187)
(0.346219 0.0639501 -0.0482947)
(0.171574 0.0832255 0.0837889)
(0.515573 0.095781 0.221101)
(0.218984 0.0609385 0.00062591)
(0.37073 0.0725312 -0.0344841)
(0.644152 0.0870099 0.0112872)
(-0.0254433 0.0983653 -0.121219)
(0.253544 0.0706952 0.0903802)
(0.0635084 0.0969942 -0.0875087)
(-0.496017 0.118711 0.0262677)
(0.533567 0.0528005 0.069171)
(0.425503 0.0599635 -0.0955583)
(0.453912 0.0719787 -0.00502769)
(0.443635 0.0566946 0.0277307)
(0.393346 0.0689092 0.0384433)
(0.489964 0.0646678 0.00788334)
(0.243934 0.0945053 -0.0699847)
(0.104588 0.117443 -0.0361385)
(-0.589871 0.117215 -0.00836906)
(0.278791 0.0559803 -0.127987)
(0.530656 0.0882161 0.0654293)
(0.626311 0.0589382 0.0623336)
(0.595941 0.0601819 -0.0710952)
(0.494113 0.0641564 -0.0716591)
(0.50011 0.0869895 0.0342517)
(0.401592 0.0952843 -0.177885)
(0.242453 0.0849431 -0.0417073)
(0.326391 0.0768841 -0.0494603)
(0.556305 0.0628991 0.00272249)
(0.298276 0.0760039 -0.0678977)
(0.312646 0.0631743 -0.116369)
(0.41841 0.0867429 0.0563218)
(0.313524 0.0827095 -0.00391617)
(-0.303405 0.138154 -0.0792489)
(0.140309 0.067145 -0.0979541)
(0.357751 0.0652548 0.0153625)
(0.41652 0.0704104 -0.0195235)
(0.00614683 0.100709 -0.121792)
(0.268001 0.0678741 -0.0293195)
(0.326439 0.054787 -0.0235921)
(-0.0891594 -0.0455844 -0.0330036)
(-0.0917342 -0.0653325 0.0766836)
(0.379504 -0.0466442 0.124273)
(-0.533009 -0.0395372 -0.112945)
(0.383461 -0.0435605 -0.00202593)
(0.287706 0.00107823 -0.118107)
(-0.243903 -0.0548351 -0.118401)
(-0.341345 -0.0696069 0.137993)
(0.37643 -0.0590066 0.0385401)
(-0.221629 -0.160863 -0.115338)
(0.382561 -0.0880346 0.0393061)
(-0.0246578 -0.0324553 -0.151636)
(0.141046 -0.0645936 -0.0221594)
(-0.120282 -0.0385516 0.00592124)
(-0.149636 -0.0314796 -0.0199415)
(0.243056 -0.0727695 0.0514764)
(0.412966 -0.0138948 -0.0497421)
(0.102084 0.00517101 -0.0498384)
(-0.233884 -0.117873 0.000219697)
(-0.0995891 -0.101017 -0.181689)
(0.448124 -0.0527363 0.0115511)
(0.544999 -0.0620925 -0.0151407)
(0.189339 -0.0385833 -0.219895)
(0.442713 -0.0480806 0.0700907)
(0.381505 -0.0489734 0.0472452)
(0.602906 -0.0254446 -0.132939)
(0.326958 -0.0350796 0.0185593)
(0.264562 -0.0610439 -0.106592)
(0.417521 -0.0587044 0.0182974)
(0.117771 -0.0286627 -0.102384)
(-0.098003 -0.0384149 -0.180608)
(0.588805 -0.0443932 0.0956919)
(0.264731 -0.0323884 0.102881)
(-0.276716 -0.122063 -0.12085)
(-0.182745 -0.0775477 -0.165549)
(0.203731 -0.0549925 0.0976562)
(0.325028 -0.0347613 0.0149115)
(-0.312263 -0.0647315 -0.0515489)
(-0.0421986 -0.068126 -0.0365031)
(0.0234512 -0.0293881 -0.0636963)
(-0.298055 0.0286927 -0.0484231)
(-0.153534 0.0452622 0.033088)
(-0.0702421 0.0844964 0.0292635)
(-0.7823 0.0282326 -0.185726)
(-0.0321753 0.0266183 -0.00837887)
(0.086722 0.0640584 -0.0967468)
(0.142851 0.060947 -0.142285)
(-0.367654 -0.0119105 0.0186792)
(0.0875768 0.014471 0.000713602)
(-0.398756 0.0137611 -0.191014)
(0.253298 0.0441517 -0.0682753)
(-0.0111247 0.0653486 -0.13872)
(-0.152301 0.0625352 0.0301688)
(-0.372321 0.0314023 -0.00516935)
(-0.127006 0.011921 -0.0447216)
(-0.197047 0.0368536 -0.0813609)
(0.27502 0.0258309 -0.123721)
(0.307137 0.069599 -0.107695)
(0.350654 0.0433496 0.00975563)
(-0.0780047 -0.0101211 -0.188391)
(0.300294 0.0601744 -0.0535379)
(0.127399 0.0551105 -0.151018)
(-0.0946712 0.032252 -0.112828)
(0.25806 0.00750895 0.175641)
(0.267483 0.0761577 -0.052517)
(0.570296 0.041963 0.0404999)
(0.683297 0.0396356 0.0897122)
(0.0480085 0.0794855 -0.0630512)
(0.0859409 0.0367219 0.0732969)
(0.281418 0.0521828 0.00529936)
(-0.00340598 -0.000178752 -0.204592)
(0.55428 0.0187293 0.0539486)
(0.304652 0.0916889 0.183998)
(-0.0293701 0.0727008 -0.221438)
(-0.375644 0.0226005 -0.299853)
(0.0413225 0.0565724 0.192089)
(0.372266 0.0546169 0.103169)
(-0.1433 0.0875828 0.0248296)
(-0.302426 0.0227589 -0.111307)
(-0.0182842 0.0354144 -0.144426)
(-0.54308 -0.0243877 -0.162833)
(-0.207746 -0.0419801 0.132616)
(0.188833 0.0361569 0.0727166)
(-0.170185 -0.065277 -0.107632)
(-0.40802 -0.0669292 -0.0969872)
(-0.112855 0.0193863 -0.096108)
(0.265745 -0.0256828 -0.123299)
(-0.247496 -0.0445928 -0.092824)
(-0.577533 -0.0387095 -0.0944421)
(-0.512801 -0.134759 0.0469553)
(0.148222 -0.0651781 -0.182818)
(0.302436 -0.0169077 -0.140228)
(0.129553 -0.0157682 0.110762)
(0.084475 -0.0383493 -0.0713602)
(-0.130168 -0.0240634 -0.14162)
(-0.197119 -0.0464818 -0.059991)
(-0.46318 -0.00693284 -0.169464)
(0.597069 0.0333978 -0.172908)
(0.140958 -0.072405 0.00693153)
(-0.238456 -0.0557233 -0.210949)
(0.133079 -0.0239531 -0.0937987)
(-0.296623 -0.0259661 -0.168797)
(-0.0445969 -0.0865796 0.150115)
(-0.00555309 -0.0443311 -0.00632567)
(0.134679 -0.00749518 -0.160336)
(0.202127 0.0181173 0.0339212)
(0.572499 -0.00163269 0.0202783)
(0.244951 0.00672867 0.00181989)
(0.0654323 -0.0782296 0.0446651)
(0.115328 0.0177973 0.0246639)
(-0.0992649 -0.0535348 -0.257798)
(0.265887 0.00650646 -0.149126)
(0.249837 0.0255577 0.197264)
(0.0706242 -0.0399421 -0.216798)
(-0.434761 -0.0356478 -0.0869915)
(-0.0507774 -0.0659461 0.270226)
(0.402802 -0.0312153 0.117257)
(-0.0547918 0.0365264 0.00869083)
(-0.321327 -0.036036 -0.156874)
(0.301472 -0.0262832 -0.100061)
(-0.548908 0.0640639 -0.225562)
(-0.0802656 -0.0166131 0.0697685)
(0.583199 0.00849661 0.130216)
(0.17711 0.0385414 -0.0592885)
(-0.132297 -0.00560648 -0.12867)
(-0.147054 0.0175425 -0.0976843)
(0.325877 0.00436995 0.0115531)
(-0.113465 0.0271123 -0.0187376)
(-0.566158 0.0442795 -0.0233029)
(-0.447275 -0.0731119 -0.000768631)
(-0.183236 -0.0257983 -0.167889)
(-0.204127 0.0846981 -0.162105)
(-0.128295 0.0633053 0.0230393)
(0.35999 -0.05041 0.109725)
(0.158367 0.0199286 -0.111424)
(-0.120048 0.0132777 -0.0217125)
(-0.519615 0.00094809 -0.159043)
(-0.0608811 0.0145873 -0.0423497)
(-0.195397 0.0517867 -0.027134)
(-0.661636 -0.00855499 -0.160074)
(-0.202099 0.0621743 -0.12409)
(-0.724582 0.0182863 -0.133086)
(-0.24888 -0.0760255 0.00902133)
(-0.131655 0.0162489 -0.0585765)
(-0.227908 0.0406237 -0.0925401)
(-0.152034 -0.000830083 0.0202899)
(0.499089 0.0188999 0.00843922)
(0.237561 0.0920863 -0.0450258)
(0.133494 -0.0255305 -0.0367189)
(-0.335261 0.0741936 -0.0426447)
(0.0515106 -0.069368 -0.25573)
(0.175195 -0.0270383 -0.238317)
(0.382493 0.0871396 -0.0312387)
(0.436958 0.077143 -0.0825423)
(-0.198246 0.0152613 -0.0335148)
(-0.236384 -0.0343072 0.0303101)
(0.626083 0.0379161 0.0792187)
(-0.172319 0.116438 0.00438899)
(-0.0705957 -0.0535353 -0.166998)
(0.299092 -0.0017321 -0.0440565)
(-0.437345 -0.0134409 -0.19562)
(0.0940903 -0.13022 0.0309298)
(0.725743 -0.0117692 0.0429953)
(0.261216 -0.00736482 -0.173566)
(-0.102315 -0.0400175 -0.252941)
(0.175164 -0.0386082 0.108225)
(0.272778 -0.0060411 0.00767558)
(-0.256955 -0.00554458 -0.0441114)
(-0.387606 -0.00595712 -0.0217687)
(-0.608695 -0.0899003 -0.133092)
(-0.307813 -0.0372631 -0.0903262)
(-0.573877 0.063876 -0.0491532)
(-0.117554 0.0104922 -0.0207762)
(-0.192992 -0.0476031 -0.0600448)
(-0.180786 -0.0290181 -0.146012)
(-0.434764 0.0679358 -0.197678)
(-0.0834216 -0.00278097 -0.146598)
(-0.80003 -0.0102029 0.000176601)
(-0.331696 -0.00358091 -0.117146)
(-0.487407 -0.0287985 0.0479489)
(-0.43825 0.0422028 -0.0489742)
(-0.367394 -0.0600142 -0.170327)
(-0.379955 -0.0623198 -0.310863)
(-0.0901071 -0.000358772 0.0365682)
(-0.42629 0.0945992 -0.181968)
(0.280165 -0.0528395 0.052905)
(0.152095 0.00988287 -0.151869)
(0.371657 0.0735132 -0.0729356)
(0.199473 -0.027524 -0.0588886)
(-0.269616 0.0492466 -0.059136)
(0.637602 -0.116518 -0.151929)
(-0.324137 -0.0318217 -0.0753711)
(0.292647 0.0323264 0.00704193)
(0.418897 0.0144837 0.0754767)
(0.242933 0.0354275 -0.00766981)
(-0.20695 -0.0768143 -0.224973)
(0.703713 -0.0402323 0.0564327)
(0.200064 0.132151 0.00678621)
(0.194889 -0.0467081 -0.0913357)
(-0.267635 0.0176957 -0.102171)
(-0.198878 0.0260891 -0.096311)
(-0.343355 -0.107352 -0.0210725)
(0.237628 0.00524228 -0.168924)
(0.212004 0.0524062 -0.131409)
(0.0431211 -0.0105982 -0.196608)
(-0.293843 0.0277933 0.3577)
(0.351198 0.0377025 -0.00707599)
(0.176426 0.0535767 -0.0238316)
(-0.269581 0.0911408 -0.00826268)
(-0.417797 -0.035789 -0.0981797)
(-0.494835 -0.0141665 -0.0507228)
(0.0154221 0.0212944 0.0800992)
(0.106444 -0.00298981 0.0628722)
(-0.133427 -0.00129464 -0.178662)
(-0.76585 -0.00454965 -0.216046)
(0.0192636 -0.047324 -0.147951)
(-0.0977336 0.000783255 -0.152769)
(-0.0494342 0.00188521 -0.069755)
(-0.522095 0.00333637 0.0241)
(0.287592 -0.0692749 0.0927395)
(-0.285644 0.0328928 -0.0524372)
(-0.21932 -0.0224726 -0.144491)
(-0.42627 -0.0419231 -0.352325)
(0.0954174 0.0525018 -0.0159808)
(-0.0916531 0.0566497 -0.260338)
(0.507419 0.00439118 0.171255)
(-0.0617031 0.0525793 -0.22832)
(0.29101 0.0206893 -0.0470133)
(0.47495 -0.0179812 -0.0949609)
(0.215392 0.058021 -0.138113)
(0.489323 -0.0216688 -0.184719)
(-0.554546 -0.0280035 0.0282186)
(0.343929 0.0390349 0.299869)
(-0.102594 0.0492602 0.012172)
(-0.141158 0.0526689 -0.185028)
(0.255984 -0.104078 -0.0706828)
(0.17609 0.0198914 0.022772)
(0.086652 0.172931 -0.0912554)
(0.419494 -0.045007 -0.058889)
(-0.123187 0.0419553 -0.0822)
(0.244577 -0.0148188 -0.0533846)
(-0.55352 -0.0735708 -0.174283)
(0.39937 -0.0792841 -0.128058)
(0.144546 0.0459237 -0.0754709)
(-0.215538 0.0503036 -0.0761361)
(-0.0467489 -0.0100164 -0.0223508)
(0.0529184 -0.0737011 -0.0332397)
(0.187745 -0.00668105 0.201722)
(0.116434 0.0757233 -0.0407834)
(-0.457805 -0.006112 -0.0990168)
(-0.395394 -0.0231378 -0.224716)
(0.0506248 0.0301432 -0.0459088)
(-0.136371 0.0132837 -0.0951516)
(0.000294527 0.0129943 0.118811)
(-0.449418 -0.113932 0.0572171)
(0.0705805 -0.0959597 -0.0914947)
(-0.765405 0.0161008 -0.127149)
(0.394273 -0.00816075 0.0803173)
(0.0830323 -0.0156046 -0.0779263)
(0.13112 -0.0182965 0.0603729)
(-0.241017 0.107138 -0.173379)
(-0.366119 0.00209757 -0.191292)
(-0.19174 -0.115217 -0.191387)
(0.294105 0.00579137 0.0422949)
(0.08459 0.0454377 0.00447957)
(0.555962 0.0318069 0.160975)
(0.33072 0.0704389 -0.13553)
(-0.118112 0.0574084 -0.0381295)
(0.374944 0.0182228 -0.0385629)
(0.139383 0.0477228 0.0139888)
(0.605631 -0.0962721 -0.0457466)
(-0.0353762 -0.0157877 0.156816)
(0.101997 0.00718872 0.0243131)
(0.42721 -0.0155248 0.0547656)
(-0.263615 0.0212304 -0.0126155)
(0.0787818 -0.117844 -0.0025252)
(0.182443 0.0010965 -0.0173258)
(0.215492 0.144656 0.00896635)
(0.448461 -0.0552261 -0.00516678)
(-0.172237 0.0682493 -0.00259915)
(0.319022 0.0199268 -0.0816952)
(-0.315535 -0.0622426 -0.136729)
(0.240012 -0.130746 0.0776691)
(0.267432 0.0551394 -0.00508931)
(-0.515448 0.0193792 -0.0434662)
(0.0744815 -0.00318062 -0.0482794)
(-0.094471 0.0333987 -0.171553)
(-0.331241 0.0711635 -0.0195264)
(0.0711944 0.133203 -0.0776164)
(0.18163 0.0421458 -0.17737)
(-0.32352 -0.034994 -0.358857)
(0.302064 0.0303902 -0.189626)
(-0.23643 0.0659933 -0.195837)
(0.51148 0.0011631 0.0227717)
(0.196116 -0.0399779 0.171985)
(-0.564156 -0.0105178 -0.0918437)
(-0.660689 0.00522245 -0.0205306)
(-0.0917364 -0.0553179 0.195782)
(0.290786 0.00131154 -0.0880406)
(0.155498 0.0280078 -0.102586)
(-0.0759975 0.122845 -0.0311089)
(0.277803 -0.049403 0.0592296)
(0.416 -0.132508 -0.0774286)
(0.0576662 -0.0059625 0.0334599)
(-0.258426 0.136348 -0.227155)
(0.204147 0.0477622 -0.135501)
(0.451407 0.163363 0.013545)
(0.474351 0.0621783 0.0580391)
(0.010034 0.0832153 -0.175076)
(0.448377 0.0642118 0.07523)
(0.583972 0.00976131 -0.0985419)
(0.447713 0.00964287 0.192719)
(-0.137317 0.0590293 -0.159936)
(0.0409771 0.0919971 -0.0163833)
(-0.0393455 -0.040682 0.019783)
(-0.0855032 -0.116216 0.111149)
(0.500201 -0.0820509 0.0553476)
(0.329126 0.124461 -0.0897054)
(-0.169468 -0.0154272 -0.0443271)
(0.0727945 0.0273881 -0.0773227)
(-0.198588 0.0487729 -0.043878)
(-0.0171193 -0.112683 -0.174652)
(-0.606012 -0.0451758 -0.0677563)
(-0.0467199 0.12588 -0.0974401)
(-0.111208 0.0357742 -0.125488)
(-0.218725 -0.0249378 -0.186536)
(0.133654 -0.0759785 -0.00151222)
(-0.230141 0.0580639 -0.128809)
(-0.398559 0.0697781 -0.155971)
(0.38852 -0.021836 -0.0542141)
(-0.339525 -0.0278291 -0.240517)
(0.485156 0.0556389 -0.226696)
(0.175305 -0.0174032 -0.13421)
(0.212792 -0.0212356 0.0222503)
(-0.229311 0.0185409 0.0232441)
(-0.0502849 -0.00934898 -0.149503)
(-0.551892 -0.0224248 -0.252098)
(0.170688 -0.0681814 -0.00396112)
(-0.143576 0.0102049 0.115152)
(0.190502 0.00234779 -0.266842)
(0.279475 0.0811785 0.113434)
(0.160024 -0.0301678 -0.0704336)
(0.139617 -0.0842121 -0.131708)
(-0.11781 0.0699318 -0.00334178)
(0.119145 0.0446901 -0.267229)
(-0.0411437 0.00894348 -0.108732)
(0.15723 0.0836231 0.0463521)
(0.629184 0.0498714 0.0668646)
(0.121478 0.0762322 -0.0567469)
(-0.117052 0.0364095 -0.120353)
(-0.236507 0.0090867 -0.172114)
(0.417345 0.0239657 0.0529565)
(0.0832172 -0.0210309 0.16771)
(0.127657 0.0597125 0.0390511)
(-0.115878 0.0666825 -0.185185)
(0.0712902 -0.118424 0.0775827)
(-0.418523 0.0323837 -0.0332626)
(0.108401 0.191791 -0.0617493)
(-0.0382235 -0.0234029 -0.0722854)
(0.529601 0.00532482 -0.111613)
(-0.00208025 0.0522494 0.00473594)
(-0.349941 0.00378648 -0.234851)
(-0.0993519 -0.0612461 -0.0854569)
(-0.43682 0.0716459 -0.0724051)
(-0.0295237 0.0156231 0.085074)
(0.464938 -0.0540992 0.120861)
(-0.16078 0.0509446 0.0236467)
(-0.0535898 0.0976396 -0.00538186)
(-0.0351529 0.0664405 -0.0724317)
(0.334752 0.0703401 -0.215821)
(-0.0460042 -0.0405033 -0.137778)
(0.0608767 0.0916076 -0.0853808)
(-0.178567 0.0337518 -0.028462)
(-0.174743 0.0863606 -0.0957968)
(-0.25629 0.0300711 0.0338406)
(0.52845 0.0342489 -0.0422924)
(-0.148511 -0.00258651 -0.237613)
(0.457847 -0.064105 -0.170613)
(-0.150888 0.0396424 -0.224174)
(-0.0734991 -0.0444286 -0.138882)
(-0.0355021 0.095908 -0.0295656)
(-0.186481 -0.0209677 -0.491777)
(-0.153139 -0.0735162 0.0110109)
(-0.171533 0.13865 -0.135922)
(0.0668532 -0.00726118 0.0212382)
(-0.097286 0.0161373 -0.171743)
(-0.297622 0.114692 -0.125027)
(0.384183 0.0928338 0.0266176)
(-0.562016 0.113336 -0.0581262)
(-0.288254 0.035664 -0.0882102)
(-0.363674 0.00634672 0.00981222)
(0.103613 0.0324929 -0.183097)
(0.0455483 0.0404833 0.00898661)
(0.123332 0.0757939 -0.182629)
(0.39054 0.0406759 0.00033256)
(0.344902 -0.0876036 -0.0397594)
(-0.385492 -0.0785702 -0.157945)
(0.287929 0.129601 -0.0480954)
(0.876652 -0.128791 0.0118715)
(0.506738 0.0294623 -0.125355)
(0.24468 0.0901359 -0.132194)
(-0.56974 -0.0761533 -0.332575)
(0.241612 -0.060821 -0.142127)
(-0.300131 0.0933298 -0.090395)
(-0.0634368 -0.0699324 0.0353377)
(0.188463 -0.116418 0.0414642)
(0.0922201 0.017571 -0.166865)
(-0.27514 0.107624 0.0103956)
(-0.108737 -0.0465381 0.0649262)
(0.678262 -0.0418449 -0.0657201)
(-0.263645 0.0432357 0.0735938)
(0.0384385 0.0294984 0.210217)
(0.066085 -0.00840633 0.159654)
(-0.0325703 0.0830147 -0.0332067)
(-0.0538873 -0.012284 0.0366675)
(0.299075 -0.03933 0.0225759)
(-0.252998 0.0164076 -0.109732)
(0.496642 -0.0576754 -0.130268)
(-0.255984 0.0834377 -0.0143878)
(0.0357052 -0.0478106 -0.065818)
(-0.216192 0.182579 -0.0600953)
(0.157477 0.023329 -0.222751)
(-0.429791 -0.0530361 0.0732266)
(-0.114302 0.023638 -0.112106)
(0.317836 -0.0231364 0.178761)
(-0.0776669 0.00767101 -0.246814)
(-0.0727422 -0.0792006 -0.188371)
(0.644117 -0.0213017 -0.183753)
(0.156497 0.0715162 -0.115189)
(0.158367 0.015964 -0.216876)
(-0.263093 0.0397526 -0.0844844)
(-0.313433 0.00901337 -0.217402)
(0.196225 0.0275584 -0.272487)
(0.182557 0.0324911 -0.257482)
(-0.0578292 0.0668276 -0.0694241)
(0.0208177 0.0265304 -0.104973)
(-0.371469 0.0171229 0.0135507)
(0.0837777 0.0310004 -0.0949534)
(-0.423337 -0.130837 -0.0266167)
(-0.212123 0.139582 -0.229247)
(0.357283 0.0852938 -0.0742297)
(0.357921 0.0201187 0.156791)
(0.00920811 -0.0699141 -0.121452)
(-0.0737181 0.0700757 0.0332448)
(-0.113428 -0.00698963 -0.0632521)
(-0.312141 -0.0436489 -0.0985566)
(-0.622557 0.208448 -0.107414)
(0.172465 0.0927171 0.0876594)
(0.0373746 -0.0137169 0.224682)
(0.072429 0.0425643 0.0912515)
(-0.312911 0.0533665 -0.108811)
(-0.218443 0.0506161 -0.0564639)
(-0.10236 0.0652206 -0.104811)
(0.260775 0.0535597 -0.192903)
(0.349363 0.0402507 -0.192269)
(-0.18056 0.0549164 -0.117443)
(0.19539 0.0198391 -0.279452)
(0.0849935 -0.00735048 -0.225844)
(-0.478509 0.104084 -0.128177)
(0.21296 -0.110368 -0.118735)
(-0.370031 0.101851 -0.0478346)
(0.368779 -0.0230178 -0.0558268)
(-0.403995 -0.0320261 -0.0459038)
(-0.213032 0.023437 -0.000684963)
(-0.045287 0.0542593 0.100954)
(0.0799737 0.0272533 -0.191378)
(0.152424 -0.0599944 -0.364478)
(0.153092 0.0822423 -0.237228)
(-0.109864 0.116171 -0.0828208)
(0.0387533 0.0852303 -0.00141283)
(-0.169797 0.100324 -0.0630046)
(0.120128 -0.00435606 -0.205632)
(0.460285 -0.0929173 -0.0697241)
(-0.530473 0.0967673 -0.158183)
(-0.0433741 0.0740579 0.0098677)
(-0.163492 0.0450281 -0.191561)
(-0.710173 -0.028371 -0.188267)
(0.340851 0.0257448 0.192627)
(-0.262141 -0.0277659 -0.111577)
(-0.437099 -0.02086 -0.179914)
(0.204116 0.0765865 -0.108232)
(0.332558 -0.0245306 0.000613809)
(0.210088 -0.0176979 0.0649509)
(0.108322 0.0985389 -0.189471)
(-0.121915 -0.00461639 -0.0361008)
(0.0718582 -0.114023 0.070634)
(-0.354879 0.0438981 -0.181125)
(0.249221 -0.0283341 -0.200858)
(0.239657 0.0163322 0.0216658)
(-0.00465855 0.099057 -0.0398667)
(-0.0714227 0.0486588 0.134392)
(0.149775 0.0398909 -0.132326)
(0.0606639 -0.033262 -0.112988)
(0.440986 0.0263072 -0.168346)
(0.275159 0.0662718 -0.0966336)
(-0.03485 0.0620879 -0.100052)
(-0.0971574 -0.0318473 -0.154256)
(-0.411144 0.0493169 -0.0868864)
(0.208651 -0.041499 -0.217745)
(0.0272929 -0.0808723 0.0948403)
(-0.00743234 0.134694 -0.141376)
(0.256311 0.027371 -0.0148987)
(0.216388 -0.0354657 -0.0164638)
(-0.3563 0.0884392 -0.173029)
(-0.436538 0.136065 -0.162482)
(-0.00144825 -0.0698272 -0.201436)
(-0.00410526 -0.0672007 -0.212981)
(-0.000730442 0.091903 -0.212365)
(0.0326746 0.0410596 -0.0736409)
(-0.139571 0.124923 -0.131149)
(-0.217325 0.0739935 0.0614195)
(0.320459 -0.0918582 -0.0800457)
(0.160889 0.0390815 0.0265618)
(-0.297487 0.105059 -0.0725092)
(-0.00459865 0.0336761 -0.0932859)
(-0.141122 0.146645 -0.0630513)
(0.117622 -0.00777463 -0.0863412)
(0.0955491 0.0587577 0.0464651)
(0.18402 0.0210615 -0.103573)
(-0.584379 -0.0585467 -0.0813365)
(0.0192428 -0.0191152 -0.057983)
(-0.0879563 0.0560661 0.0224041)
(-0.0512018 0.0142894 -0.138446)
(0.14628 0.0837616 -0.109185)
(0.614685 -0.00922422 0.0971653)
(0.339376 0.078875 -0.167909)
(0.0380008 -0.00124942 -0.184556)
(0.120145 0.107616 -0.0496881)
(-0.0628625 0.0757844 0.133599)
(0.0687083 0.122106 -0.244059)
(-0.239541 0.0645687 -0.0159394)
(0.311635 0.0187437 -0.225995)
(-0.0185397 -0.0239433 -0.154123)
(0.00182724 0.0329456 0.030913)
(0.128234 0.112711 0.0398298)
(-0.240034 0.151264 -0.12008)
(0.203892 0.0584603 -0.0266388)
(-0.446505 0.00325659 -0.0443976)
(0.0622265 0.0606867 0.0584638)
(-0.1996 -0.0488513 -0.0226908)
(0.0105518 0.0419996 -0.231947)
(0.0582603 0.047893 -0.175037)
(-0.245255 0.0452062 0.0250784)
(-0.228941 0.12287 -0.122279)
(0.00995206 -0.00870397 -0.127884)
(-0.321607 -0.0656444 -0.131297)
(0.102528 -0.107086 -0.0250049)
(-0.179257 0.0691611 -0.046868)
(0.150983 0.0366006 -0.0321169)
(-0.12415 0.107413 -0.126983)
(0.252699 -0.043781 -0.189892)
(-0.274854 -0.0813506 0.062905)
(-0.0287686 0.0281742 -0.0780866)
(-0.0888591 0.0740281 -0.19501)
(-0.122046 0.0118097 -0.0532748)
(-0.152613 -0.00270557 -0.15846)
(0.452791 0.0109911 -0.271859)
(-0.12183 0.072376 -0.132916)
(-0.228009 0.0743942 -0.0629618)
(-0.104994 -0.0537017 0.222217)
(0.179212 0.0871198 -0.106016)
(-0.115775 0.150981 0.0501254)
(0.0710842 -0.0585307 -0.196906)
(-0.114904 0.045569 -0.0344125)
(0.218346 -0.00990607 -0.0681476)
(0.151102 -0.0499766 -0.202145)
(0.0788203 -0.0220464 0.0229557)
(0.018176 0.0986335 -0.178861)
(0.257469 0.0311293 0.00707606)
(-0.110198 0.0122465 -0.113492)
(0.155935 0.0470725 -0.120678)
(0.0018434 -0.014071 -0.20487)
(0.0300787 -0.0114251 -0.0704491)
(-0.447457 0.0717161 0.0500685)
(0.0658944 0.166655 0.100104)
(-0.0351903 0.129224 -0.167409)
(0.215935 0.0501124 -0.121368)
(-0.227987 0.0778325 -0.0957568)
(-0.0662893 -0.0423233 -0.140394)
(-0.334219 0.0291464 -0.0718002)
(-0.285152 0.0349768 -0.134497)
(-0.162796 0.0410431 -0.0908954)
(-0.166753 0.0452788 -0.0836889)
(-0.340922 0.0167372 0.0545307)
(0.054888 0.00757247 -0.0305629)
(-0.222065 -0.0786338 -0.115787)
(-0.383808 0.042532 0.0482326)
(-0.407317 0.123169 -0.114174)
(0.0567842 0.0371014 -0.0632773)
(-0.188961 0.0992612 -0.0866847)
(-0.147728 0.118748 -0.155049)
(-0.0202395 0.0727652 0.0897603)
(0.0315939 0.0643924 -0.0223638)
(-0.269652 0.0699168 -0.100904)
(0.121984 0.046401 -0.172137)
(-0.0987441 0.064733 -0.0339209)
(-0.24715 0.126393 -0.114665)
(-0.0562968 0.124689 0.103966)
(0.160511 -0.0272324 -0.170407)
(-0.122163 0.00809547 -0.22251)
(0.13449 -0.0336497 -0.135735)
(-0.031234 -0.0209488 -0.0229848)
(0.0888179 -0.0596444 -0.14214)
(-0.262659 -0.0115499 -0.0605681)
(0.107884 0.0264657 0.131919)
(0.0503832 -0.0490095 -0.0596958)
(-0.0591842 0.0539683 0.12503)
(-0.0897364 0.066905 -0.0145705)
(0.293228 0.0726928 -0.0928217)
(0.0389134 0.0187403 -0.0369171)
(0.0722672 0.0349519 -0.23152)
(0.186239 -0.0299757 -0.144705)
(-0.00579643 0.0304545 -0.0324694)
(-0.3652 0.0316369 -0.0671372)
(0.0661653 0.122024 -0.076118)
(0.0298533 0.195403 -0.106761)
(-0.0839125 0.0208794 -0.124978)
(0.220131 -0.0737895 -0.158589)
(0.059245 -0.0593369 -0.0835435)
(-0.368328 -0.0408066 -0.0297102)
(0.171882 0.0324887 0.00856137)
(-0.16786 0.0794907 -0.0485567)
(0.0647549 0.0170088 -0.132849)
(-0.210308 0.0288346 0.0695891)
(0.169843 -0.035755 0.0688504)
(0.168279 0.00874992 -0.117551)
(-0.329585 0.0843021 0.0186878)
(-0.0149941 0.0187379 -0.160536)
(-0.211748 0.0280159 -0.0687419)
(-0.215989 0.0688285 -0.155225)
(-0.293161 0.019337 -0.138731)
(-0.109204 -0.129428 0.0106058)
(0.117175 0.047649 -0.152983)
(-0.00822108 0.0107168 0.0026629)
(0.123798 -0.00726212 -0.107975)
(-0.144645 0.0661285 -0.100311)
(-0.0764222 -0.0633923 -0.0872175)
(0.164853 -0.0108151 -0.133777)
(0.0749182 0.0557421 -0.141659)
(-0.10519 0.0311943 -0.184678)
(0.0194203 0.0439443 -0.00933291)
(0.0238971 0.0371811 -0.112289)
(-0.0639221 0.023192 -0.11073)
(-0.115657 0.0582525 -0.00630012)
(-0.0854672 0.0242175 -0.100576)
(0.148051 -0.0874293 0.0522272)
(-0.0863909 0.051389 -0.185493)
(0.0952056 0.0752443 -0.0092179)
(0.144187 0.0133001 -0.109629)
(0.0871739 -0.0464971 -0.172719)
(-0.215551 0.0623098 -0.172985)
(-0.0240424 -0.0064064 -0.0989173)
(-0.0520668 0.106867 -0.0802559)
(0.252642 -0.0906447 -0.0605912)
(0.087684 0.000802379 -0.0604643)
(0.212203 -0.00636596 -0.117202)
(-0.030696 -0.0328447 -0.000575329)
(-0.0805733 -0.0192354 -0.017292)
(0.0267732 0.0738105 -0.0366912)
(-0.0704042 0.00984457 0.0175373)
(-0.0288499 -0.022246 0.106795)
(-0.209798 0.0450479 -0.097975)
(0.0058387 0.052336 -0.0617365)
(-0.0994142 0.0525252 -0.0265388)
(0.0254207 -0.0258826 0.0795062)
(-0.337241 -0.00970194 -0.135886)
(-0.0951539 0.0839074 0.0153517)
(0.121013 -0.0414043 0.0161204)
(0.0084468 -0.0193444 -0.0933405)
(-0.157241 0.0242154 -0.0432472)
(-0.0789024 0.0505501 -0.140335)
(-0.0987571 0.0178914 -0.0469106)
(0.0436804 0.0974692 0.0378807)
(0.173544 0.0153994 0.0655189)
(0.234393 -0.0232138 0.0772473)
(-0.103405 0.12336 -0.02988)
(0.0933929 0.0573383 0.0291752)
(0.0546374 0.100368 -0.142054)
(0.119471 0.178989 -0.0528726)
(-0.0276042 -0.0198611 -0.0673436)
(0.0151495 0.0661158 -0.0114419)
(-0.0974544 0.0086581 -0.0644877)
(-0.209595 0.0803423 0.0109381)
(-0.00694993 0.0728912 0.0160602)
(-0.0842522 -0.0211216 -0.14121)
(0.02826 -0.0968933 -0.0807518)
(0.0458474 -0.00806855 -0.13387)
(0.079949 -0.0281835 -0.0991082)
(0.0655325 0.0943263 -0.122974)
(-0.0533196 0.020391 0.074382)
(-0.039652 -0.00165094 -0.107592)
(-0.186791 0.0913829 -3.07436e-05)
(0.100824 0.043594 -0.0528727)
(0.106991 -0.0376221 -0.0507817)
(0.0908975 0.0255472 -0.0737379)
(0.0659177 0.0126338 0.0417885)
(-0.172251 0.140682 -0.0596259)
(-0.0951056 0.0348237 0.0451818)
(-0.0388193 0.0130572 -0.0710414)
(-0.28779 0.0335959 -0.00756504)
(-0.10753 0.0218674 -0.0536965)
(-0.126457 0.105205 0.0283894)
(-0.118432 0.0445406 -0.159943)
(-0.141127 0.00349412 -0.0393881)
(0.170823 0.0432943 -0.0820655)
(0.0578366 -0.0256132 -0.134909)
(0.00411636 0.0172028 -0.0442631)
(0.0122542 -0.00644048 -0.0984656)
(-0.0808168 -0.0123515 -0.0154499)
(0.0247301 0.0853535 -0.0837229)
(-0.0365544 0.0013066 -0.0944496)
(-0.0213672 -0.075769 -0.0835548)
(0.0682839 -0.0391902 0.0946799)
(0.0386599 -0.0023873 0.0470042)
(-0.0450965 0.0178366 0.0106094)
(-0.045959 0.00932408 -0.0604203)
(0.0837948 -0.0263645 -0.133609)
(0.0110885 -0.0148896 -0.0550565)
(0.062474 -0.0144664 -0.00942545)
(-0.0935117 0.05828 -0.00996466)
(-0.143718 0.0932208 0.00700059)
(0.00180694 0.073247 -0.0698647)
(-0.074596 0.0161945 -0.049399)
(0.0641846 0.00702869 -0.0189659)
(0.0460519 -0.00329426 0.00782777)
(0.112407 -0.0748665 -0.101562)
(0.1221 0.0191484 -0.0944395)
(0.0785045 0.0137935 -0.0416752)
(0.0555913 0.0835232 -0.0251192)
(0.13297 0.0170413 0.0235632)
(0.00895455 0.0360485 -0.0200765)
(-0.266377 0.0325515 -0.0394671)
(0.136047 0.0204918 -0.0705123)
(0.07045 -0.0733043 -0.0978401)
(0.186882 0.00638343 -0.105134)
(0.0205052 0.0459168 -0.0193843)
(-0.0232031 0.0619918 -0.0625084)
(0.0941619 0.115163 -0.035372)
(0.0165526 0.101778 -0.140254)
(-0.00136767 0.0199209 -0.0667548)
(0.0696574 -0.0737977 -0.0824563)
(-0.187159 0.0817862 0.0710763)
(0.0791959 0.0705948 -0.0272535)
(-0.0418003 -0.0623813 -0.0237253)
(-0.18995 0.011077 -0.162678)
(0.0703107 0.0223329 -0.0417762)
(-0.128212 0.107368 -0.109556)
(0.114302 0.0244518 -0.0906358)
(-0.0554783 0.00318717 -0.018895)
(0.0803709 -0.0439139 -0.160075)
(0.0980732 0.0119456 -0.00302157)
(0.0378616 0.00858198 -0.0551425)
(0.0795129 -0.018391 0.0363953)
(-0.0504319 0.0819952 -0.0508165)
(-0.0939938 -0.00165702 -0.0858398)
(0.011121 0.0307832 -0.12567)
(-0.217944 0.182467 -0.109585)
(0.0853643 0.0172504 -0.0170678)
(0.0922438 0.0416427 -0.00763843)
(-0.0435346 0.0574139 -0.0502741)
(-0.00120638 0.0795218 -0.0393454)
(0.113704 0.037902 -0.072871)
(0.0239736 0.0873722 -0.0544519)
(0.0946478 -0.010038 -0.00408452)
(-0.0459873 0.0354355 -0.0286941)
(-0.0283037 -0.0356487 -0.0732823)
(0.0320497 0.00200951 -0.0694732)
(0.0909573 0.037563 -0.0879172)
(0.0601331 0.01958 -0.00934976)
(0.0509253 0.0728092 -0.0160447)
(-0.0305649 0.119518 -0.0633383)
(-0.0901287 0.056294 -0.0582975)
(0.054665 -0.034693 -0.153219)
(0.0448984 -0.0159445 -0.0300897)
(0.0623553 -0.00406502 -0.0580847)
(0.0739848 -0.0145814 -0.0396619)
(-0.00131844 0.0737289 -0.102565)
(-0.0431582 0.113426 -0.165067)
(0.11152 0.0500936 -0.0274325)
(0.0581972 0.0544697 -0.0655868)
(-0.0210823 0.0891878 -0.0670038)
(-0.139282 0.0643206 -0.0175947)
(0.0737725 -0.0061244 -0.0399494)
(0.0817921 0.0343701 -0.0159673)
(-0.125795 0.05132 -0.0546543)
(0.0304032 -0.0523566 -0.0417414)
(-0.0273731 0.0493334 -0.131798)
(0.0935613 0.00788248 -0.130713)
(0.112191 0.0404497 -0.105276)
(0.0742042 0.00119177 -0.0358275)
(0.0766125 0.0585865 0.051272)
(0.0645583 0.0197175 -0.028886)
(0.0941588 0.00370491 -0.0769599)
(0.0104267 0.0268488 -0.0645651)
(-0.000354536 -0.0113908 -0.090726)
(-0.15459 0.0730612 -0.0518973)
(-0.204987 -0.00425235 -0.104422)
(0.0464233 -0.0881365 -0.0113296)
(0.0437093 0.0126634 -0.0137802)
(-0.00300941 0.18008 -0.0868002)
(0.181798 0.0264246 -0.0784649)
(0.0918508 0.0617757 -0.0401218)
(0.066565 0.109296 -0.064627)
(0.0478947 0.0481386 -0.0303788)
(-0.00134439 0.0114976 -0.0187722)
(0.0705354 -0.0332491 -0.0557719)
(-0.0284057 0.0235905 -0.0685139)
(0.090418 0.0480313 -0.0277636)
(0.0581242 0.0617804 -0.0324832)
(-0.0361179 0.100906 -0.0162355)
(-0.135279 0.146591 -0.0547012)
(0.0917618 0.0114501 -0.0383176)
(0.106952 -0.0482898 -0.0586517)
(0.0353094 0.0295227 -0.057334)
(0.0356761 0.115527 -0.0364769)
(-0.0441313 0.0365178 -0.0421584)
(-0.128995 0.103428 -0.157175)
(-0.0862001 0.0461793 -0.0770343)
(0.0667135 0.0764148 0.0357149)
(-0.0113906 0.0644622 -0.0236782)
(-0.00734777 -0.0168581 -0.0243442)
(-0.00749113 0.0441636 -0.022736)
(-0.0390606 0.0623645 -0.0220865)
(0.0540136 0.0370029 -0.0636035)
(-0.0879503 0.0485324 -0.0162525)
(-0.0162329 0.0230079 -0.0909567)
(0.0271051 0.0445781 -0.147072)
(0.0658357 0.0879172 -0.06911)