/*--------------------------------*- C++ -*----------------------------------*\
  =========                 |
  \\      /  F ield         | OpenFOAM: The Open Source CFD Toolbox
   \\    /   O peration     | Website:  https://openfoam.org
    \\  /    A nd           | Version:  10
     \\/     M anipulation  |
\*---------------------------------------------------------------------------*/
FoamFile
{
    format      ascii;
    class       volVectorField;
    location    "10";
    object      U_0;
}
// * * * * * * * * * * * * * * * * * * * * * * * * * * * * * * * * * * * * * //

dimensions      [0 1 -1 0 0 0 0];

internalField   nonuniform List<vector> 
102400
(
(0.639321 0.00474493 0.335039)
(0.663016 0.00310804 0.343819)
(0.615563 0.000493746 0.352295)
(0.57588 0.00133219 0.38297)
(0.598443 0.00293456 0.365333)
(0.650915 0.00391772 0.355213)
(0.645963 0.00180358 0.346308)
(0.560475 0.00327299 0.336995)
(0.56599 0.00188169 0.368051)
(0.624085 0.00280131 0.358059)
(0.676058 0.00432361 0.349042)
(0.655651 0.00326365 0.353022)
(0.589936 0.00290793 0.347482)
(0.568057 0.0017049 0.371287)
(0.621727 0.0031874 0.349603)
(0.668763 0.00530039 0.349911)
(0.641798 0.00299799 0.376369)
(0.589054 0.00328398 0.35343)
(0.581235 0.00205128 0.348831)
(0.64001 0.00346121 0.354662)
(0.673931 0.00447494 0.361788)
(0.647121 0.00289649 0.357539)
(0.611695 0.00214264 0.356687)
(0.58856 0.00094286 0.361464)
(0.609227 0.00209395 0.329052)
(0.652861 0.00390068 0.351242)
(0.632137 0.00249446 0.366866)
(0.601091 0.00272978 0.349479)
(0.594544 0.00212921 0.347383)
(0.607484 0.00395977 0.339913)
(0.638317 0.00395399 0.350806)
(0.648191 0.00151895 0.356854)
(0.583685 0.00238278 0.335438)
(0.558666 0.0015196 0.342475)
(0.592034 0.00239239 0.342053)
(0.639291 0.0034875 0.342836)
(0.675673 0.00337167 0.359083)
(0.619539 0.000619464 0.358589)
(0.570836 0.000991193 0.37681)
(0.597438 0.00294306 0.343269)
(0.583394 0.00649695 0.234906)
(0.666158 0.0123282 0.230811)
(0.544464 0.00263051 0.266545)
(0.442759 -0.00534147 0.347348)
(0.492482 -0.00686307 0.340723)
(0.58438 0.00462537 0.282621)
(0.59312 0.0148206 0.224328)
(0.45461 -0.00254301 0.256632)
(0.426716 -0.0116963 0.352655)
(0.505723 -0.00103533 0.280004)
(0.66531 0.00972159 0.256025)
(0.632119 0.0196661 0.235683)
(0.52894 0.00309941 0.261293)
(0.423356 -0.0115082 0.375)
(0.497752 -0.000243341 0.274707)
(0.63107 0.0120376 0.255253)
(0.591953 0.018474 0.263684)
(0.529972 0.00607213 0.257352)
(0.456258 -0.0064737 0.318249)
(0.541005 0.000195424 0.288044)
(0.64944 0.010739 0.273216)
(0.614634 0.0141302 0.249358)
(0.532318 0.00915605 0.260045)
(0.499409 -0.00106084 0.306986)
(0.493858 -0.00462908 0.288212)
(0.53887 0.00502808 0.282123)
(0.569922 0.0128735 0.255573)
(0.554952 0.0048108 0.254132)
(0.499025 0.000225828 0.301513)
(0.485437 0.00244572 0.288482)
(0.530953 0.0051939 0.26598)
(0.595687 0.0117479 0.242169)
(0.479637 0.00433125 0.262592)
(0.38768 -0.00373283 0.303602)
(0.441392 0.00114801 0.272639)
(0.558194 0.00201813 0.245132)
(0.682878 0.0112213 0.266096)
(0.547569 0.00648661 0.277163)
(0.420988 -0.00377173 0.32848)
(0.487286 0.000648097 0.269142)
(0.490229 -0.00275489 0.214819)
(0.645233 0.00745492 0.198114)
(0.564086 -0.0116187 0.25577)
(0.393513 -0.0258755 0.33393)
(0.464906 -0.0327933 0.336213)
(0.454528 -0.00334254 0.266615)
(0.532816 0.0107265 0.184491)
(0.46147 -0.0231417 0.247189)
(0.379484 -0.0341983 0.347326)
(0.410775 -0.0118995 0.25829)
(0.525947 0.0150931 0.175904)
(0.571032 0.0274648 0.145979)
(0.532398 -0.0130787 0.209906)
(0.405425 -0.0407795 0.383121)
(0.371145 -0.0081904 0.270658)
(0.419168 0.0190321 0.193021)
(0.488076 0.0202009 0.177471)
(0.545034 -0.00696476 0.205231)
(0.424878 -0.0252508 0.321312)
(0.398741 -0.00833014 0.269943)
(0.471412 0.0139473 0.187464)
(0.501321 0.0146106 0.172991)
(0.463336 0.0017139 0.222813)
(0.483979 -0.0260495 0.286822)
(0.444405 -0.0322923 0.310128)
(0.327536 -0.00556385 0.271236)
(0.487771 0.00355355 0.196624)
(0.557041 -0.00785088 0.204492)
(0.443705 -0.0132683 0.286682)
(0.38401 -0.0127608 0.32341)
(0.331934 -0.006456 0.264972)
(0.493666 0.000753992 0.205562)
(0.463897 -0.00714349 0.214794)
(0.337447 -0.0156636 0.271205)
(0.366978 -0.0163858 0.29228)
(0.417 -0.0123698 0.228681)
(0.582472 0.0140146 0.201811)
(0.514355 0.00172815 0.250433)
(0.358611 -0.0199722 0.315619)
(0.452069 -0.0164906 0.264933)
(0.495386 -0.0185529 0.201068)
(0.612606 -0.0171439 0.165581)
(0.616511 -0.0284451 0.242854)
(0.408452 -0.0253089 0.314748)
(0.493428 -0.0318183 0.25302)
(0.426459 -0.014813 0.226564)
(0.484041 -0.00200752 0.1714)
(0.539995 -0.0275683 0.27174)
(0.400736 -0.0319524 0.323526)
(0.422283 -0.0104242 0.261003)
(0.349964 0.0111709 0.170111)
(0.459499 0.0172598 0.110854)
(0.497445 -0.0166007 0.18628)
(0.44349 -0.0424881 0.303253)
(0.359804 -0.00628158 0.288811)
(0.242422 0.0123591 0.207211)
(0.376646 0.0051871 0.157078)
(0.53629 -0.0108455 0.17339)
(0.451367 -0.0227659 0.285736)
(0.325625 -0.00616279 0.268817)
(0.276756 0.00891825 0.177305)
(0.332143 0.00178899 0.174638)
(0.42085 -0.00853754 0.212237)
(0.470759 -0.0367505 0.19795)
(0.506188 -0.0481999 0.217992)
(0.289981 -0.022004 0.264224)
(0.372357 -0.00785276 0.196405)
(0.512143 -0.00885202 0.165848)
(0.427854 -0.0141697 0.223303)
(0.422046 -0.0290067 0.28152)
(0.37254 -0.0338515 0.287267)
(0.370905 -0.021691 0.196187)
(0.455275 -0.0074376 0.142929)
(0.389713 -0.00655073 0.195647)
(0.419995 -0.0268143 0.26989)
(0.364809 -0.0356297 0.23856)
(0.501512 -0.0024446 0.160587)
(0.552019 -0.00311927 0.206942)
(0.403677 -0.0173815 0.293863)
(0.48302 -0.0181757 0.249525)
(0.533493 -0.0238334 0.135514)
(0.561862 -0.027409 0.130068)
(0.610509 -0.0404376 0.258503)
(0.457372 -0.0165927 0.303145)
(0.499327 -0.00708095 0.165524)
(0.435455 -0.0087197 0.162525)
(0.483136 -0.0148433 0.171815)
(0.63976 -0.0348118 0.284366)
(0.440996 -0.0222882 0.30662)
(0.499043 -0.000629936 0.24043)
(0.276293 0.00540069 0.192734)
(0.383511 0.0109887 0.148048)
(0.531428 -0.010294 0.23741)
(0.432292 -0.0253152 0.250341)
(0.458322 0.00513962 0.226058)
(0.25112 0.0132852 0.224884)
(0.327638 0.00147102 0.205532)
(0.569498 -0.00907249 0.201049)
(0.472827 -0.0103812 0.259416)
(0.365936 0.00436674 0.25777)
(0.246791 0.00627275 0.215447)
(0.240032 -0.00569458 0.227067)
(0.424133 -0.00762349 0.259256)
(0.467275 -0.0246047 0.20808)
(0.482133 -0.0345455 0.164912)
(0.289398 -0.0267378 0.237102)
(0.307553 -0.0139198 0.233492)
(0.522049 -0.00787981 0.202387)
(0.47243 -0.00793947 0.201982)
(0.459543 -0.0293528 0.177874)
(0.473489 -0.0445092 0.224841)
(0.332353 -0.0326301 0.201088)
(0.454552 -0.00487471 0.164299)
(0.435155 0.00963907 0.184825)
(0.532529 -0.0223969 0.208448)
(0.420652 -0.0477791 0.200388)
(0.44243 -0.0181231 0.125881)
(0.554077 -0.00421176 0.182476)
(0.494553 -0.00674489 0.280272)
(0.535015 -0.00714126 0.222653)
(0.508358 -0.0101431 0.0923298)
(0.572365 -0.0299263 0.139625)
(0.621812 -0.0471089 0.296712)
(0.481601 0.00731487 0.257704)
(0.492067 0.0265495 0.100757)
(0.451752 0.00418568 0.121901)
(0.535311 -0.0304434 0.18559)
(0.647024 -0.0353655 0.283207)
(0.487695 -0.0051568 0.28396)
(0.510343 0.0213539 0.198587)
(0.340982 0.00937531 0.195844)
(0.368953 -0.00400973 0.181711)
(0.58843 -0.00763378 0.252687)
(0.467926 -0.00324325 0.251051)
(0.478332 0.0256708 0.177281)
(0.349277 0.0209562 0.201865)
(0.313445 -0.0102357 0.228433)
(0.608682 -0.0120715 0.212423)
(0.509791 0.0076164 0.234143)
(0.391541 0.0295664 0.235361)
(0.3273 0.013078 0.219993)
(0.225789 -0.0269623 0.230949)
(0.447972 -0.0201675 0.271003)
(0.545912 -0.00812844 0.216311)
(0.486657 -0.00770065 0.164079)
(0.285151 -0.0228071 0.220854)
(0.268494 -0.0305849 0.22509)
(0.535098 -0.0172355 0.197589)
(0.564592 0.00708025 0.182108)
(0.474043 -0.0047202 0.145944)
(0.459318 -0.0408271 0.181541)
(0.36839 -0.0489111 0.196332)
(0.437201 -0.0144103 0.170958)
(0.493523 0.0216015 0.165485)
(0.614084 -0.00219934 0.158019)
(0.455712 -0.0444334 0.167117)
(0.435739 -0.0277177 0.153269)
(0.529379 -0.00645478 0.207236)
(0.542661 0.0106667 0.259721)
(0.58432 0.0196823 0.158217)
(0.506214 0.00618921 0.0453984)
(0.60682 -0.0390982 0.118617)
(0.675394 -0.0390856 0.298679)
(0.592144 0.035493 0.312239)
(0.519869 0.0586812 0.133268)
(0.463166 0.0226425 0.0830041)
(0.588164 -0.0439604 0.190912)
(0.654235 -0.0306606 0.279701)
(0.578166 0.013441 0.285346)
(0.538263 0.043777 0.187731)
(0.358928 0.0213206 0.176552)
(0.352727 -0.0145132 0.207308)
(0.606209 -0.00953196 0.281)
(0.604499 0.0145974 0.262453)
(0.531631 0.0422881 0.151098)
(0.372147 0.0338081 0.161081)
(0.305307 -0.0130215 0.239537)
(0.562187 -0.0163698 0.2273)
(0.605229 0.0268327 0.233393)
(0.426259 0.0528805 0.214122)
(0.333898 0.0333287 0.202383)
(0.300801 -0.0339356 0.222865)
(0.430658 -0.0322224 0.286285)
(0.579379 0.00993349 0.222142)
(0.553187 0.0294709 0.132692)
(0.341344 0.00206441 0.192289)
(0.320131 -0.0317019 0.238376)
(0.520525 -0.0241908 0.205435)
(0.628342 0.023984 0.191308)
(0.550906 0.0219451 0.137321)
(0.443365 -0.0214738 0.140503)
(0.416448 -0.0504087 0.198527)
(0.451629 -0.0228789 0.18892)
(0.524141 0.0342274 0.156948)
(0.652916 0.0265757 0.134667)
(0.494408 -0.0347499 0.120168)
(0.461191 -0.0417195 0.160065)
(0.560361 -0.00350717 0.240033)
(0.565496 0.0332405 0.274286)
(0.599277 0.047853 0.136178)
(0.555496 0.034364 -0.00529314)
(0.64197 -0.045956 0.081826)
(0.782115 -0.0448925 0.281164)
(0.640916 0.0261622 0.272896)
(0.59181 0.0825104 0.152992)
(0.488646 0.0502963 0.0507305)
(0.597149 -0.0526187 0.164635)
(0.660652 -0.040995 0.237504)
(0.660753 0.00678044 0.233679)
(0.643823 0.0665912 0.16772)
(0.361904 0.0471294 0.154983)
(0.340554 -0.0270663 0.202951)
(0.601446 -0.0278386 0.302605)
(0.633311 -0.00687335 0.272032)
(0.640318 0.0559097 0.128831)
(0.373472 0.0537945 0.127013)
(0.314819 -0.0097826 0.239633)
(0.481525 -0.027825 0.253552)
(0.674399 0.019994 0.22492)
(0.547075 0.0724744 0.192364)
(0.320061 0.0546553 0.177727)
(0.35657 -0.0368189 0.183906)
(0.458407 -0.0496393 0.289784)
(0.602052 0.0173963 0.240888)
(0.606991 0.0642746 0.124725)
(0.393094 0.0299362 0.148566)
(0.421263 -0.0375811 0.210294)
(0.547523 -0.0341872 0.208032)
(0.688403 0.0285985 0.202963)
(0.647045 0.0517562 0.139462)
(0.455268 0.00626673 0.104355)
(0.480547 -0.0536692 0.145477)
(0.534193 -0.0281123 0.193597)
(0.588525 0.0387994 0.177004)
(0.685518 0.0532576 0.127138)
(0.533368 -0.00592295 0.0750078)
(0.474292 -0.051776 0.11958)
(0.64377 -0.0121914 0.260378)
(0.65771 0.0422638 0.291829)
(0.639443 0.0664186 0.144441)
(0.587825 0.0653292 -0.0587297)
(0.736338 -0.0329179 0.0461333)
(0.676266 -0.0423914 0.195885)
(0.535736 0.0049595 0.263489)
(0.599849 0.0955172 0.156398)
(0.567768 0.0844404 0.0129772)
(0.602685 -0.0347575 0.125155)
(0.489865 -0.0440108 0.200128)
(0.654849 -0.0134351 0.181141)
(0.702881 0.0808765 0.137514)
(0.41632 0.0764983 0.129074)
(0.343431 -0.0221174 0.188142)
(0.516412 -0.0523931 0.278794)
(0.608662 -0.0275631 0.301882)
(0.685721 0.0701995 0.117874)
(0.409939 0.0736641 0.0903747)
(0.270086 -0.00727177 0.223411)
(0.426629 -0.033404 0.269371)
(0.692486 0.00768176 0.230667)
(0.637061 0.0834549 0.170326)
(0.382826 0.0829794 0.139634)
(0.350931 -0.0183711 0.143831)
(0.452886 -0.0606011 0.270324)
(0.638798 0.0177033 0.270583)
(0.680573 0.0932751 0.127857)
(0.511874 0.0588347 0.0869276)
(0.472988 -0.0316215 0.169307)
(0.589082 -0.0387502 0.216915)
(0.751056 0.0280736 0.210991)
(0.7505 0.0741204 0.140401)
(0.522192 0.0293939 0.0815182)
(0.479838 -0.0584354 0.0853824)
(0.608454 -0.0374944 0.180334)
(0.684746 0.0359222 0.195107)
(0.746633 0.076305 0.12896)
(0.602773 0.0242356 0.0406958)
(0.49817 -0.0428623 0.0421881)
(0.731276 -0.0299182 0.261966)
(0.592082 0.0174001 0.291227)
(0.632282 0.0726815 0.145515)
(0.633421 0.0908492 -0.108065)
(0.738666 0.0123055 -0.0256775)
(0.445337 -0.0358276 0.18281)
(0.445777 -0.0099582 0.297422)
(0.578323 0.096121 0.128706)
(0.615638 0.111149 -0.0408269)
(0.550888 -0.0121211 0.0644271)
(0.366442 -0.0487071 0.234183)
(0.636486 -0.0330877 0.207237)
(0.716387 0.0901701 0.104178)
(0.485732 0.116341 0.0729301)
(0.342015 0.00431758 0.17283)
(0.359446 -0.07382 0.25537)
(0.586853 -0.055743 0.308701)
(0.752729 0.0839684 0.113147)
(0.523875 0.115965 0.043666)
(0.290124 0.00460603 0.190943)
(0.34428 -0.0485105 0.270863)
(0.689924 -0.00961277 0.24244)
(0.725145 0.0867239 0.160391)
(0.467756 0.113005 0.108301)
(0.359389 0.0056564 0.115747)
(0.435333 -0.0685949 0.224765)
(0.591427 -0.00951169 0.294225)
(0.725812 0.10073 0.141465)
(0.640845 0.0780425 0.0289527)
(0.524061 -0.0220463 0.112632)
(0.60297 -0.0495157 0.2195)
(0.773117 0.0190531 0.22912)
(0.846393 0.096978 0.147107)
(0.657709 0.0551338 0.0569571)
(0.48593 -0.0521264 0.0439964)
(0.60579 -0.0513104 0.161926)
(0.721535 0.0155729 0.213712)
(0.810084 0.0871052 0.134299)
(0.685884 0.0583377 0.0327645)
(0.586676 -0.0197549 -0.0234652)
(0.749567 -0.0341049 0.199652)
(0.506274 -0.00467617 0.347166)
(0.637745 0.0676554 0.159114)
(0.635973 0.106976 -0.117825)
(0.694915 0.0517648 -0.0521484)
(0.4354 -0.04028 0.176773)
(0.460212 -0.0446969 0.323733)
(0.594414 0.0944886 0.109077)
(0.681335 0.124153 -0.0505727)
(0.469223 0.00846914 0.0279121)
(0.30705 -0.0733061 0.229173)
(0.635093 -0.0492976 0.23513)
(0.766516 0.0976279 0.0980998)
(0.53638 0.134222 0.0442624)
(0.339693 0.0252058 0.147666)
(0.234488 -0.0946158 0.247723)
(0.583646 -0.0901446 0.293473)
(0.814715 0.0905339 0.120143)
(0.567472 0.131986 0.0214744)
(0.38008 0.0147981 0.156002)
(0.239451 -0.076576 0.261788)
(0.679348 -0.0320177 0.230839)
(0.83025 0.106288 0.141285)
(0.531992 0.128353 0.0837858)
(0.393003 0.0252394 0.0827503)
(0.410471 -0.0769915 0.167929)
(0.556132 -0.0287065 0.28912)
(0.766228 0.102587 0.133721)
(0.737975 0.0899678 -0.0202552)
(0.604415 -0.00725161 0.0459768)
(0.568626 -0.0606411 0.203594)
(0.730074 0.000199524 0.240318)
(0.920992 0.101799 0.140792)
(0.774922 0.0728806 0.0473682)
(0.529489 -0.0252679 0.022299)
(0.554499 -0.061853 0.131865)
(0.696023 -0.0126236 0.231635)
(0.848574 0.0907024 0.140132)
(0.733439 0.0789887 0.0268351)
(0.671785 0.0117504 -0.0442825)
(0.675991 -0.0343679 0.119415)
(0.562595 -0.0244741 0.373759)
(0.687501 0.0689956 0.165079)
(0.72621 0.114789 -0.0653164)
(0.699632 0.0883494 -0.0968555)
(0.513756 -0.0371806 0.144247)
(0.552031 -0.0821929 0.344765)
(0.596423 0.0768858 0.143131)
(0.770704 0.142376 -0.0585833)
(0.566003 0.0467017 -0.0138605)
(0.318144 -0.0887179 0.203416)
(0.580855 -0.0903904 0.242197)
(0.765675 0.0968407 0.094353)
(0.655534 0.16945 0.0117248)
(0.451518 0.0727392 0.0929666)
(0.230795 -0.0918046 0.230163)
(0.536779 -0.119933 0.274449)
(0.787849 0.0897996 0.129717)
(0.703633 0.18316 -0.0047485)
(0.544049 0.0613067 0.0949395)
(0.233902 -0.0780979 0.230866)
(0.617394 -0.0674237 0.217998)
(0.85646 0.114123 0.137258)
(0.639099 0.168675 0.0657791)
(0.464808 0.068225 0.0734971)
(0.348835 -0.070522 0.129653)
(0.507411 -0.0593433 0.266663)
(0.761827 0.0916021 0.176913)
(0.855936 0.114077 -0.0332864)
(0.682165 0.0279409 -0.0199792)
(0.494851 -0.0503755 0.197208)
(0.640535 -0.0116757 0.271312)
(0.917561 0.109844 0.173036)
(0.896321 0.110359 0.0472552)
(0.618242 0.0271507 -0.00692537)
(0.49461 -0.0566839 0.103977)
(0.658696 -0.0236483 0.233538)
(0.84688 0.102239 0.161793)
(0.773047 0.0989256 0.0171329)
(0.738502 0.0631527 -0.0765604)
(0.609724 -0.0244089 0.0797909)
(0.625649 -0.0390012 0.35861)
(0.718218 0.0840041 0.204019)
(0.819688 0.109792 -0.0397369)
(0.659057 0.0982022 -0.0702917)
(0.504806 -0.0387763 0.167675)
(0.495413 -0.0961406 0.378428)
(0.664498 0.0545423 0.208656)
(0.811371 0.126278 -0.0587212)
(0.651828 0.0785086 -0.0292912)
(0.443199 -0.0678013 0.184032)
(0.511038 -0.120495 0.245438)
(0.788928 0.0717308 0.109495)
(0.727736 0.166913 -0.0054574)
(0.537396 0.0803916 0.0693923)
(0.358559 -0.0825562 0.196681)
(0.457525 -0.132188 0.276269)
(0.785518 0.0786418 0.145298)
(0.797149 0.17292 -0.042143)
(0.638066 0.0669235 0.0714619)
(0.370339 -0.0745235 0.21472)
(0.522518 -0.0891827 0.189813)
(0.884132 0.107761 0.143489)
(0.752076 0.176095 0.0585376)
(0.515162 0.0789912 0.077026)
(0.361878 -0.0518593 0.129652)
(0.468504 -0.0516304 0.242158)
(0.789501 0.0745366 0.177736)
(0.894848 0.097717 -0.0805496)
(0.624806 0.0430018 -0.0429244)
(0.408289 -0.0471944 0.206575)
(0.530751 -0.0299553 0.303395)
(0.864187 0.0910961 0.182181)
(0.949434 0.114512 0.0155239)
(0.655241 0.0619021 -0.0101689)
(0.420845 -0.0511971 0.115491)
(0.568841 -0.0343472 0.215509)
(0.875263 0.105414 0.195084)
(0.85414 0.109946 0.0123233)
(0.735621 0.0943448 -0.0806741)
(0.482171 -0.0282777 0.125305)
(0.515551 -0.0580528 0.384457)
(0.725662 0.0688307 0.242095)
(0.867421 0.101031 -0.010721)
(0.681476 0.10425 -0.0932078)
(0.612519 0.00530566 0.119917)
(0.433896 -0.0868934 0.330094)
(0.659716 0.0522287 0.203306)
(0.835283 0.130382 -0.035306)
(0.723291 0.113169 -0.0562233)
(0.611645 -0.0155118 0.135904)
(0.479357 -0.108095 0.231486)
(0.765323 0.058672 0.0883672)
(0.82114 0.179899 -0.0144791)
(0.668184 0.124058 -0.0216947)
(0.605641 -0.0339298 0.133139)
(0.411994 -0.157659 0.256818)
(0.776098 0.0472426 0.135002)
(0.866372 0.181424 -0.0557921)
(0.745084 0.108631 -0.0196837)
(0.627635 -0.0398554 0.175901)
(0.472391 -0.117424 0.220732)
(0.856656 0.0832893 0.129584)
(0.831591 0.192059 0.0408359)
(0.587595 0.110159 0.0154559)
(0.463904 -0.0306862 0.145894)
(0.390646 -0.0748427 0.306835)
(0.806514 0.0594537 0.190713)
(0.913548 0.124564 -0.0895952)
(0.638856 0.0933338 -0.0662646)
(0.46612 -0.0271262 0.163343)
(0.443043 -0.0593124 0.310223)
(0.830176 0.0723106 0.171661)
(0.967269 0.1335 -0.00668744)
(0.680035 0.107122 -0.0135095)
(0.452591 -0.0180937 0.117403)
(0.502983 -0.0305491 0.272729)
(0.827898 0.104176 0.194139)
(0.907385 0.125747 -0.01853)
(0.746071 0.135429 -0.0947447)
(0.559551 0.00849373 0.110055)
(0.384869 -0.0796115 0.372878)
(0.706311 0.0518165 0.23627)
(0.823924 0.0818653 0.0264539)
(0.726825 0.137593 -0.0822784)
(0.732048 0.0411103 0.103884)
(0.443338 -0.117809 0.242424)
(0.702989 -0.0261939 0.238857)
(0.823997 0.0844413 0.00768038)
(0.801707 0.11848 -0.0518972)
(0.756582 -0.00379151 0.0862488)
(0.552201 -0.159195 0.206297)
(0.794798 -0.0221111 0.142692)
(0.819468 0.122277 -0.0182133)
(0.79613 0.122503 -0.0803577)
(0.76241 -0.00654015 0.0654147)
(0.512988 -0.169408 0.221747)
(0.797681 -0.0226394 0.169122)
(0.835767 0.127854 -0.0196035)
(0.86521 0.103834 -0.100687)
(0.789028 -0.00829774 0.0699829)
(0.482826 -0.130858 0.225706)
(0.813932 0.00850016 0.165779)
(0.879231 0.154256 0.057363)
(0.798208 0.131357 -0.0310236)
(0.654619 0.0206747 0.0403482)
(0.429208 -0.110985 0.220532)
(0.823839 -0.0184951 0.240404)
(0.942559 0.0920855 -0.00436477)
(0.80226 0.121565 -0.097148)
(0.650333 0.00995144 0.0696357)
(0.405089 -0.121175 0.242852)
(0.764341 -0.00994695 0.198098)
(0.994655 0.120245 0.00382539)
(0.79308 0.138545 -0.0720179)
(0.609239 0.021771 0.0978756)
(0.444789 -0.0831351 0.241785)
(0.77756 0.025051 0.209823)
(0.968902 0.110702 0.0204796)
(0.745039 0.152651 -0.122839)
(0.772917 0.0604061 0.0378573)
(0.420346 -0.111223 0.217492)
(0.718206 -0.0255658 0.244562)
(0.836801 0.0413275 0.0962782)
(0.877628 0.108539 -0.0312298)
(0.773918 0.0516324 0.0276841)
(0.631201 -0.102552 0.178811)
(0.651394 -0.0979115 0.23753)
(0.861953 0.0492142 0.0923773)
(0.879815 0.109135 -0.0494741)
(0.821565 0.0373387 -0.0499032)
(0.754334 -0.131796 0.110214)
(0.760138 -0.10105 0.18323)
(0.889431 0.0856316 0.0156651)
(0.935242 0.123319 -0.107306)
(0.772514 0.0113458 -0.00845929)
(0.634468 -0.155882 0.171724)
(0.716362 -0.0901615 0.195027)
(0.904244 0.0865834 0.0132574)
(0.981507 0.0845035 -0.102053)
(0.74952 -0.0104931 0.040319)
(0.529813 -0.130442 0.199143)
(0.656462 -0.0684963 0.190354)
(0.964528 0.10043 0.0594315)
(0.974075 0.115286 -0.056952)
(0.703674 0.0120531 0.00851017)
(0.528465 -0.117191 0.203233)
(0.687967 -0.0825479 0.256903)
(0.940886 0.0785567 0.0342242)
(0.91396 0.115351 -0.0989174)
(0.691667 -0.00324336 0.0619381)
(0.514068 -0.140856 0.241199)
(0.720374 -0.0624633 0.204252)
(0.971033 0.0896635 -0.00923482)
(0.897519 0.145575 -0.0939574)
(0.721609 0.0454808 0.0638367)
(0.54109 -0.111114 0.217339)
(0.772034 -0.0566917 0.229445)
(0.869425 0.0783521 0.0433133)
(0.88707 0.137634 -0.10963)
(0.775489 0.063042 0.00284278)
(0.56832 -0.106693 0.170033)
(0.722334 -0.0950511 0.238248)
(0.859667 -0.0260936 0.0550441)
(0.807855 0.0886728 -0.07615)
(0.774252 0.0554128 -0.0373044)
(0.74009 -0.0638186 0.0881288)
(0.598764 -0.0938777 0.165061)
(0.837828 -0.039452 0.0853212)
(0.880519 0.0587459 -0.0705949)
(0.9099 0.0343186 -0.131755)
(0.920964 -0.0745721 -0.00450801)
(0.73025 -0.0912139 0.149399)
(0.891591 -0.00469228 0.0433819)
(0.945988 0.0740312 -0.112364)
(0.91602 0.0496177 -0.105572)
(0.822245 -0.0772583 0.0364543)
(0.696661 -0.0926807 0.145272)
(0.947044 -0.0176074 0.0206395)
(1.00139 0.0478319 -0.103457)
(0.896489 0.0425433 -0.0510367)
(0.741285 -0.0628043 0.0676495)
(0.616792 -0.0852429 0.141078)
(0.970438 -0.00180987 0.0700869)
(1.00306 0.0821992 -0.0712618)
(0.86436 0.0660631 -0.0820963)
(0.711936 -0.0567794 0.0786934)
(0.598042 -0.119048 0.177678)
(0.92445 -0.026962 0.0507544)
(0.927942 0.104938 -0.0868407)
(0.803383 0.0591821 -0.0301014)
(0.665439 -0.0863092 0.126932)
(0.698885 -0.106605 0.161621)
(0.982005 0.0216441 0.00676336)
(0.854061 0.133701 -0.0984542)
(0.726293 0.0391419 0.0123471)
(0.636577 -0.101665 0.162487)
(0.717866 -0.100557 0.171694)
(0.853096 0.011888 0.066057)
(0.797141 0.116178 -0.0374183)
(0.657834 0.0472685 0.0193084)
(0.614384 -0.106025 0.141872)
(0.641043 -0.118088 0.192004)
(0.888718 -0.017933 0.106797)
(0.907161 0.0859845 -0.033744)
(0.979975 0.0654754 -0.116137)
(0.899466 -0.0373821 -0.00756122)
(0.735606 -0.0751311 0.0945899)
(0.940218 -0.0314023 0.101257)
(0.967525 0.0643475 -0.0261432)
(1.04776 0.0562741 -0.116957)
(1.02887 -0.0412671 -0.0377169)
(0.832842 -0.0732095 0.0914021)
(0.980406 -0.010299 0.0920854)
(1.00872 0.0882324 -0.0548965)
(1.02469 0.0758925 -0.119844)
(0.911539 -0.054323 -0.00252553)
(0.730868 -0.087782 0.113907)
(0.973892 -0.0145415 0.0587151)
(1.05329 0.0671419 -0.0666702)
(1.06465 0.0610393 -0.0757488)
(0.914579 -0.02855 0.0231636)
(0.659432 -0.0794963 0.0913106)
(0.947074 -0.0356139 0.0766045)
(1.0349 0.0762267 -0.0262259)
(1.03554 0.0764362 -0.0982653)
(0.903046 -0.0103418 -0.0158367)
(0.71071 -0.0788969 0.0848778)
(0.959963 -0.0531086 0.0594201)
(0.95923 0.0683633 -0.047975)
(1.02457 0.0358303 -0.0751663)
(0.815705 -0.0408337 0.0373946)
(0.667917 -0.0759378 0.108666)
(1.03427 -0.0200057 0.0607425)
(0.966381 0.109678 -0.0541525)
(0.922291 0.0600407 -0.0663846)
(0.71081 -0.0550126 0.0667564)
(0.658873 -0.0817757 0.114001)
(0.975317 -0.0114073 0.0713197)
(0.907167 0.0929304 -0.000441789)
(0.878305 0.0522873 -0.0292843)
(0.71444 -0.0603563 0.0596757)
(0.624727 -0.0932091 0.132941)
(0.827066 -0.0896157 0.0758267)
(1.04449 -0.0292437 -0.0231455)
(1.14583 0.0467708 -0.110271)
(0.992193 0.0771642 -0.0145261)
(0.759195 0.0222094 0.0787351)
(0.838531 -0.0562525 0.0886298)
(1.08186 -0.0389868 0.00789083)
(1.2309 0.000264098 -0.0749195)
(1.10731 0.0501868 -0.0256647)
(0.868921 0.0550982 0.0409365)
(0.938603 -0.00651078 0.06965)
(1.13499 -0.00958024 -0.0125042)
(1.26799 0.0425238 -0.0848254)
(1.09931 0.0695178 -0.00106977)
(0.818366 0.0216869 0.0668071)
(0.924395 -0.0503018 0.0340681)
(1.14801 -0.0233762 -0.060839)
(1.25986 0.0454732 -0.0896208)
(1.10073 0.0693898 0.012111)
(0.779378 0.023538 0.0571079)
(0.859969 -0.0571511 0.0305661)
(1.14591 -0.0175677 -0.0311171)
(1.23971 0.0726453 -0.0902991)
(1.00947 0.0802204 -0.00662634)
(0.705359 0.006545 0.0674611)
(0.894169 -0.0669634 0.0396963)
(1.15417 0.023158 -0.0479108)
(1.22406 0.0884735 -0.0670409)
(0.908591 0.0510908 0.03137)
(0.637108 -0.0380379 0.0637029)
(0.976868 -0.0789208 0.0438197)
(1.14861 0.0398977 -0.0458396)
(1.11111 0.0574166 -0.0738934)
(0.831762 0.0175552 0.0465401)
(0.596844 -0.034076 0.0909175)
(0.936811 -0.0657642 0.0620398)
(1.16581 0.0250213 -0.0172566)
(1.05755 0.0793636 -0.0538154)
(0.797032 0.0390824 0.0406493)
(0.652764 -0.0409439 0.0860687)
(0.886852 -0.088484 0.0220036)
(0.979215 0.003049 -0.0206871)
(1.13162 0.104644 -0.0857435)
(1.11398 0.0760643 -0.0426188)
(0.97353 0.00602163 0.00982666)
(0.920467 -0.0569429 0.0186045)
(0.992816 -0.0153978 -0.00162222)
(1.18936 0.0793656 -0.0366209)
(1.16193 0.0799698 -0.0246669)
(1.01639 -0.00199088 -0.00475247)
(0.969428 -0.0385498 0.025563)
(1.05583 0.0378647 -0.00081516)
(1.23335 0.125055 -0.0650612)
(1.11411 0.101023 -0.0240282)
(0.972228 0.0174369 0.0271417)
(0.948763 -0.0431943 0.0122191)
(0.993392 0.0176348 -0.0533756)
(1.17597 0.10718 -0.0868925)
(1.14774 0.1064 -0.0120654)
(0.951904 0.0321408 0.0326119)
(0.843888 -0.0552759 0.00770266)
(0.975792 0.00176558 -0.0184836)
(1.20962 0.124156 -0.0714827)
(1.11816 0.113871 -0.023376)
(0.865311 0.0149228 0.0477261)
(0.779406 -0.0865784 0.0279216)
(0.955285 -0.0134403 -0.0277114)
(1.2171 0.0965208 -0.0620728)
(1.17493 0.106872 -0.0108146)
(0.888383 -0.0119758 0.0263641)
(0.818825 -0.116399 0.0218549)
(1.07897 0.0349568 -0.0372319)
(1.25737 0.143093 -0.0905315)
(1.0167 0.0878559 0.005827)
(0.784761 -0.039157 0.048945)
(0.800015 -0.117949 0.0429209)
(0.994529 0.0417218 0.00866993)
(1.16783 0.146312 -0.0708747)
(1.04838 0.0828988 -0.0159134)
(0.867628 -0.015591 0.0377027)
(1.17468 0.0429203 -0.033445)
(1.08864 -0.103025 -0.0340425)
(1.34677 -0.101622 -0.0471246)
(1.55555 0.109283 -0.0271564)
(1.33793 0.231795 -0.00138467)
(1.18584 0.0713533 -0.0242343)
(1.13301 -0.104373 -0.0446019)
(1.27293 -0.118387 -0.026789)
(1.53751 0.0923817 -0.00031365)
(1.46964 0.242753 -0.0135234)
(1.22718 0.101902 -0.0299122)
(1.13405 -0.0739519 -0.0264169)
(1.35709 -0.0868491 -0.0254782)
(1.58146 0.11396 -0.01319)
(1.50894 0.211684 -0.0178083)
(1.28878 0.0843497 -0.0223841)
(1.16399 -0.0458699 -0.0299655)
(1.37362 -0.0869313 -0.0439931)
(1.60633 0.0900631 -0.0157398)
(1.45033 0.231825 0.00308656)
(1.24022 0.0915852 -0.032723)
(1.09935 -0.102325 -0.0303925)
(1.41617 -0.0906484 -0.0304594)
(1.55056 0.154737 -0.0143552)
(1.38239 0.238318 -0.00366117)
(1.22761 0.0614466 -0.0153092)
(1.15303 -0.0843224 -0.0268135)
(1.35519 -0.0433371 -0.0362407)
(1.47906 0.153636 0.000500487)
(1.4103 0.202131 -0.00601657)
(1.12952 0.0350977 -0.0152565)
(1.06595 -0.111533 -0.015298)
(1.41077 -0.0690615 -0.0436384)
(1.48043 0.152904 -0.00196269)
(1.37267 0.212331 -0.00206925)
(1.13309 0.0229476 -0.0221253)
(1.04218 -0.109554 -0.0058603)
(1.38181 -0.0536672 -0.0381191)
(1.4466 0.148099 -0.0176717)
(1.2892 0.205228 0.000768041)
(1.42394 0.020125 -0.0419373)
(1.13176 0.0200211 -0.0170736)
(0.781609 0.0139892 0.0425045)
(0.805551 0.0732543 0.0549374)
(1.25696 0.0841761 0.00654373)
(1.50195 0.0383045 -0.0384021)
(1.11936 0.0390279 -0.0194667)
(0.749379 0.0183884 0.0344322)
(0.826911 0.0339441 0.0712963)
(1.29358 0.0588033 0.0256879)
(1.49189 0.0555665 -0.0342755)
(1.15194 0.0454756 -0.0196898)
(0.859672 0.0301898 0.0273125)
(0.945611 0.0632023 0.039478)
(1.33861 0.0782146 -0.00143678)
(1.44609 0.0638263 -0.0351059)
(1.20578 0.0393701 -0.0259481)
(0.930637 0.0154407 0.0187579)
(0.914928 0.0654612 0.0524966)
(1.3074 0.117922 0.0182285)
(1.48272 0.0838905 -0.0445989)
(1.07167 0.0420908 -0.020514)
(0.748594 0.0300176 0.0476839)
(0.888231 0.106305 0.0664808)
(1.3335 0.12272 -0.00122793)
(1.39557 0.0539316 -0.0442442)
(1.08313 0.0348441 -6.59504e-06)
(0.837753 0.0326336 0.0435055)
(0.984771 0.0783501 0.0590399)
(1.32434 0.0936518 0.0106998)
(1.34161 0.0430061 -0.0204984)
(1.04444 0.0267546 -0.00536004)
(0.777966 0.0443303 0.0372377)
(0.929571 0.116201 0.0631129)
(1.36486 0.107483 0.00183996)
(1.40787 0.0554565 -0.0430263)
(1.07283 0.0513603 -0.00186626)
(0.798961 0.0722468 0.0291123)
(0.837926 0.107441 0.0476397)
(1.25449 0.0677094 0.0155717)
(1.5296 0.0944217 0.00911347)
(1.58122 0.0544434 -0.0287354)
(1.55443 0.0828691 -0.007803)
(1.47896 0.12553 0.052982)
(1.54537 0.124659 0.0463596)
(1.57442 0.0989695 -0.00364513)
(1.57814 0.0740176 -0.0132261)
(1.56903 0.090283 -0.0116949)
(1.54543 0.108149 0.0297164)
(1.55214 0.111902 0.0521865)
(1.57434 0.111988 0.000334295)
(1.60914 0.0898567 -0.0200419)
(1.55045 0.0863261 -0.000505755)
(1.55382 0.11779 0.033477)
(1.56987 0.127743 0.038775)
(1.58418 0.119011 -0.000236804)
(1.63564 0.085719 -0.0154236)
(1.58391 0.0744645 0.00308701)
(1.55 0.126564 0.0438209)
(1.57106 0.143009 0.0500247)
(1.59883 0.119989 0.00367817)
(1.64763 0.0823198 -0.0254844)
(1.61367 0.0896212 -0.000227801)
(1.55131 0.15164 0.0507477)
(1.56218 0.149133 0.0533675)
(1.61263 0.0984591 0.00457005)
(1.60045 0.0721385 -0.0160505)
(1.55373 0.0932459 0.0137258)
(1.58643 0.123136 0.0617623)
(1.53036 0.156083 0.0471213)
(1.53432 0.114178 0.000296264)
(1.65179 0.0537081 -0.0150542)
(1.5528 0.0769487 0.00732198)
(1.51056 0.112113 0.0552304)
(1.56145 0.155478 0.0563041)
(1.55823 0.130214 -0.0057215)
(1.61949 0.045393 -0.0265338)
(1.56392 0.0892209 0.00871338)
(1.51498 0.149983 0.0502354)
(1.53856 0.131225 0.0541708)
(1.15835 0.0672421 -0.0805676)
(1.02479 0.162366 -0.00443024)
(0.868993 0.0978839 0.0470174)
(0.868493 -0.0247108 0.00672845)
(1.02717 -0.0523106 -0.0723611)
(1.19752 0.077822 -0.0683424)
(1.05788 0.183817 -0.00389164)
(0.879158 0.102186 0.033489)
(0.868211 -0.0248438 -0.0035984)
(0.999297 -0.0509722 -0.0633171)
(1.23291 0.0861583 -0.0538663)
(1.12107 0.203204 0.000414701)
(0.880557 0.111196 0.0268551)
(0.925054 -0.0126935 -0.0144095)
(1.06155 -0.0251339 -0.0655386)
(1.20312 0.0841522 -0.0489756)
(1.12973 0.185747 0.00189258)
(0.894812 0.113561 0.0359981)
(0.910504 -0.0156295 -0.0052003)
(1.06844 -0.0215189 -0.0717922)
(1.20612 0.10343 -0.0518945)
(1.1319 0.18915 0.00386188)
(0.906744 0.103283 0.0304645)
(0.902746 -0.0145757 -0.0102707)
(1.12559 -0.0068124 -0.071698)
(1.2252 0.128201 -0.0399362)
(1.03491 0.186544 0.0237174)
(0.910868 0.0736597 0.0350256)
(0.926441 -0.0209702 -0.0136187)
(1.11729 0.0109531 -0.0760683)
(1.21025 0.105998 -0.0513562)
(0.992448 0.168578 0.0150969)
(0.792928 0.0858126 0.0471964)
(0.816509 -0.0351247 -0.000120051)
(1.04371 -0.0428773 -0.0783412)