/*--------------------------------*- C++ -*----------------------------------*\
  =========                 |
  \\      /  F ield         | OpenFOAM: The Open Source CFD Toolbox
   \\    /   O peration     | Website:  https://openfoam.org
    \\  /    A nd           | Version:  10
     \\/     M anipulation  |
\*---------------------------------------------------------------------------*/
FoamFile
{
    format      ascii;
    class       volScalarField;
    location    "32.5";
    object      p;
}
// * * * * * * * * * * * * * * * * * * * * * * * * * * * * * * * * * * * * * //

dimensions      [0 2 -2 0 0 0 0];

internalField   nonuniform List<scalar> 
25600
(
-8.32865e-06
-9.00705e-06
-1.22453e-05
-1.09269e-05
-4.51318e-06
-1.799e-05
-4.8238e-06
-1.14494e-05
-1.32096e-05
-5.93867e-06
-1.37456e-05
-8.05526e-06
-1.1303e-05
-8.55387e-06
-1.35499e-05
-7.67136e-06
-9.6626e-06
-1.35116e-05
-6.01814e-06
-1.53545e-05
-5.42454e-06
-1.18858e-05
-1.19663e-05
-6.69252e-06
-1.49926e-05
-5.42035e-06
-1.17474e-05
-1.14241e-05
-1.14982e-05
-4.2153e-06
-1.59429e-05
-1.07123e-05
-7.80955e-07
-2.4002e-05
-1.44656e-06
-7.62006e-06
-2.00714e-05
-1.63072e-06
-1.28578e-05
-1.19379e-05
-4.9389e-06
-1.34828e-05
-1.0068e-05
-1.05766e-05
-6.45771e-06
-1.62714e-05
-5.80005e-06
-1.07117e-05
-1.37842e-05
-5.72023e-06
-1.39732e-05
-6.309e-06
-1.31427e-05
-9.76572e-06
-9.27806e-06
-1.18353e-05
-8.4978e-06
-1.10163e-05
-9.99061e-06
-1.22118e-05
-7.27503e-06
-9.96621e-06
-1.35987e-05
-7.16782e-06
-1.15008e-05
-9.43488e-06
-9.14332e-06
-1.16419e-05
-1.28444e-05
-2.8336e-06
-1.70836e-05
-9.52073e-06
-1.8205e-06
-2.39008e-05
-2.11032e-07
-9.53767e-06
-1.91683e-05
6.5553e-08
-1.55128e-05
-1.19631e-05
-3.83923e-06
-1.59278e-05
-9.05484e-06
-9.27098e-06
-9.0409e-06
-1.41236e-05
-6.43094e-06
-1.0847e-05
-1.35357e-05
-6.1376e-06
-1.35909e-05
-6.23456e-06
-1.28629e-05
-1.20269e-05
-5.89036e-06
-1.42065e-05
-8.94546e-06
-7.83029e-06
-1.37626e-05
-9.80112e-06
-8.25797e-06
-9.23369e-06
-1.40029e-05
-8.56639e-06
-8.05997e-06
-1.35529e-05
-6.96609e-06
-1.14836e-05
-1.42854e-05
-2.02727e-06
-1.71159e-05
-8.66355e-06
-4.41362e-06
-2.08413e-05
-1.37294e-06
-1.16465e-05
-1.56208e-05
-1.1877e-06
-1.70532e-05
-1.06313e-05
-4.54376e-06
-1.65448e-05
-8.64494e-06
-7.87058e-06
-1.19747e-05
-1.171e-05
-7.05564e-06
-1.1658e-05
-1.25443e-05
-6.85147e-06
-1.27727e-05
-7.32421e-06
-1.12748e-05
-1.4269e-05
-4.10997e-06
-1.43145e-05
-1.08261e-05
-4.79436e-06
-1.6576e-05
-8.63896e-06
-8.21498e-06
-9.49816e-06
-1.37615e-05
-9.74685e-06
-5.66276e-06
-1.65987e-05
-5.19102e-06
-1.16766e-05
-1.49685e-05
-1.99379e-06
-1.65353e-05
-8.19817e-06
-7.1887e-06
-1.67236e-05
-3.7498e-06
-1.32584e-05
-1.13515e-05
-4.2427e-06
-1.75476e-05
-8.62447e-06
-6.49533e-06
-1.62055e-05
-8.17229e-06
-7.30306e-06
-1.39056e-05
-9.80983e-06
-7.54288e-06
-1.23646e-05
-1.1628e-05
-7.51477e-06
-1.18728e-05
-8.88272e-06
-8.9603e-06
-1.61035e-05
-3.76701e-06
-1.28896e-05
-1.32628e-05
-2.30771e-06
-1.80834e-05
-8.44137e-06
-7.48057e-06
-1.03682e-05
-1.32387e-05
-1.02176e-05
-4.84753e-06
-1.76121e-05
-4.11773e-06
-1.20071e-05
-1.46544e-05
-2.94005e-06
-1.53026e-05
-8.29036e-06
-9.42887e-06
-1.29442e-05
-6.27116e-06
-1.43666e-05
-7.49632e-06
-7.48979e-06
-1.75777e-05
-6.2449e-06
-9.00819e-06
-1.52523e-05
-7.64301e-06
-7.62074e-06
-1.46129e-05
-8.73652e-06
-7.85333e-06
-1.28275e-05
-1.10267e-05
-7.79301e-06
-1.1244e-05
-1.04735e-05
-6.6935e-06
-1.74817e-05
-4.28307e-06
-1.08185e-05
-1.56446e-05
-7.27734e-07
-1.84819e-05
-9.11033e-06
-6.33322e-06
-1.14427e-05
-1.26735e-05
-1.00505e-05
-5.38279e-06
-1.70705e-05
-4.42245e-06
-1.20617e-05
-1.39208e-05
-4.45995e-06
-1.35928e-05
-8.98176e-06
-1.07985e-05
-1.00076e-05
-8.45622e-06
-1.49781e-05
-4.41693e-06
-1.0275e-05
-1.73639e-05
-3.89937e-06
-1.13009e-05
-1.42246e-05
-7.04439e-06
-8.55652e-06
-1.44005e-05
-8.32778e-06
-8.10754e-06
-1.29666e-05
-1.08266e-05
-7.68332e-06
-1.11549e-05
-1.17214e-05
-4.82272e-06
-1.85419e-05
-5.10869e-06
-8.72278e-06
-1.75692e-05
-2.18347e-08
-1.78862e-05
-1.03736e-05
-5.07441e-06
-1.24549e-05
-1.22583e-05
-9.4721e-06
-6.71325e-06
-1.55973e-05
-5.37395e-06
-1.18239e-05
-1.31199e-05
-6.08312e-06
-1.18308e-05
-9.92809e-06
-1.14212e-05
-7.96176e-06
-1.02645e-05
-1.49989e-05
-2.4679e-06
-1.23149e-05
-1.69715e-05
-2.1384e-06
-1.30732e-05
-1.33561e-05
-6.46224e-06
-9.72874e-06
-1.36579e-05
-8.41865e-06
-8.30378e-06
-1.278e-05
-1.1223e-05
-7.14978e-06
-1.15572e-05
-1.2399e-05
-3.50456e-06
-1.92071e-05
-5.93617e-06
-7.14997e-06
-1.87489e-05
-1.63973e-07
-1.66477e-05
-1.18649e-05
-3.96413e-06
-1.32668e-05
-1.20161e-05
-8.67145e-06
-8.31984e-06
-1.38076e-05
-6.62609e-06
-1.14757e-05
-1.22937e-05
-7.65738e-06
-1.01898e-05
-1.09806e-05
-1.14241e-05
-6.67363e-06
-1.1693e-05
-1.44342e-05
-1.73579e-06
-1.35269e-05
-1.64759e-05
-1.08176e-06
-1.41314e-05
-1.27678e-05
-5.96934e-06
-1.09666e-05
-1.26556e-05
-8.79457e-06
-8.4248e-06
-1.24185e-05
-1.17446e-05
-6.2747e-06
-1.23932e-05
-1.24648e-05
-2.77796e-06
-1.95701e-05
-6.61044e-06
-6.11334e-06
-1.9239e-05
-8.96132e-07
-1.51256e-05
-1.33494e-05
-3.08477e-06
-1.37434e-05
-1.19945e-05
-7.81715e-06
-9.91597e-06
-1.20293e-05
-7.92024e-06
-1.10674e-05
-1.15826e-05
-9.044e-06
-8.71038e-06
-1.20301e-05
-1.10753e-05
-5.83486e-06
-1.26934e-05
-1.35409e-05
-1.84873e-06
-1.40393e-05
-1.58639e-05
-7.42081e-07
-1.4511e-05
-1.24741e-05
-5.52003e-06
-1.21076e-05
-1.16121e-05
-9.31536e-06
-8.48076e-06
-1.20127e-05
-1.24005e-05
-5.23427e-06
-1.35552e-05
-1.20683e-05
-2.53319e-06
-1.97217e-05
-7.01872e-06
-5.64973e-06
-1.92119e-05
-1.95161e-06
-1.34582e-05
-1.4724e-05
-2.5346e-06
-1.38743e-05
-1.21582e-05
-6.96594e-06
-1.12803e-05
-1.04842e-05
-9.08171e-06
-1.06074e-05
-1.10176e-05
-1.01925e-05
-7.51132e-06
-1.29299e-05
-1.05604e-05
-5.92405e-06
-1.34282e-05
-1.2409e-05
-2.57649e-06
-1.40087e-05
-1.51557e-05
-1.05548e-06
-1.43337e-05
-1.24356e-05
-5.12697e-06
-1.30867e-05
-1.06707e-05
-9.86201e-06
-8.49012e-06
-1.16471e-05
-1.3086e-05
-4.11178e-06
-1.48779e-05
-1.13373e-05
-2.69755e-06
-1.97846e-05
-7.18629e-06
-5.60658e-06
-1.88145e-05
-3.23112e-06
-1.17899e-05
-1.59488e-05
-2.2099e-06
-1.37298e-05
-1.25033e-05
-6.17911e-06
-1.23606e-05
-9.20068e-06
-1.00272e-05
-1.01437e-05
-1.05781e-05
-1.11098e-05
-6.54271e-06
-1.36729e-05
-9.93458e-06
-6.10343e-06
-1.39543e-05
-1.11037e-05
-3.87793e-06
-1.35598e-05
-1.4473e-05
-1.84281e-06
-1.37853e-05
-1.26189e-05
-4.76009e-06
-1.38603e-05
-9.88038e-06
-1.03697e-05
-8.40406e-06
-1.13516e-05
-1.37686e-05
-2.9923e-06
-1.62853e-05
-1.039e-05
-3.10808e-06
-1.97172e-05
-7.2494e-06
-5.87661e-06
-1.81553e-05
-4.55861e-06
-1.02055e-05
-1.70536e-05
-2.09189e-06
-1.33853e-05
-1.29291e-05
-5.4566e-06
-1.31945e-05
-8.29882e-06
-1.07319e-05
-9.66335e-06
-1.02512e-05
-1.18386e-05
-5.81653e-06
-1.42958e-05
-9.23371e-06
-6.42692e-06
-1.43076e-05
-9.7565e-06
-5.46077e-06
-1.27499e-05
-1.3838e-05
-2.93549e-06
-1.29984e-05
-1.29529e-05
-4.46569e-06
-1.44913e-05
-9.22619e-06
-1.07435e-05
-8.32564e-06
-1.11366e-05
-1.44739e-05
-1.94135e-06
-1.77015e-05
-9.36996e-06
-3.7071e-06
-1.95464e-05
-7.20584e-06
-6.31091e-06
-1.74489e-05
-5.89222e-06
-8.68695e-06
-1.80431e-05
-2.09976e-06
-1.29225e-05
-1.34542e-05
-4.77229e-06
-1.37774e-05
-7.70619e-06
-1.12391e-05
-9.16674e-06
-1.00162e-05
-1.24076e-05
-5.28318e-06
-1.48008e-05
-8.51697e-06
-6.86327e-06
-1.45029e-05
-8.46295e-06
-7.17039e-06
-1.17354e-05
-1.32783e-05
-4.15797e-06
-1.21398e-05
-1.33643e-05
-4.07528e-06
-1.50075e-05
-8.71711e-06
-1.13948e-05
-8.21119e-06
-1.09293e-05
-1.49493e-05
-1.0156e-06
-1.9081e-05
-8.3319e-06
-4.43907e-06
-1.93712e-05
-7.11616e-06
-6.7731e-06
-1.67672e-05
-7.19514e-06
-7.31218e-06
-1.89611e-05
-2.15046e-06
-1.235e-05
-1.40156e-05
-4.16699e-06
-1.41858e-05
-7.38036e-06
-1.15592e-05
-8.73051e-06
-9.89005e-06
-1.28698e-05
-4.91672e-06
-1.51756e-05
-7.77399e-06
-7.38912e-06
-1.45616e-05
-7.25993e-06
-8.8922e-06
-1.05576e-05
-1.28642e-05
-5.40306e-06
-1.1282e-05
-1.38351e-05
-3.76406e-06
-1.54063e-05
-8.31273e-06
-1.19636e-05
-8.07229e-06
-1.08049e-05
-1.53268e-05
-2.0362e-07
-2.04167e-05
-7.34473e-06
-5.06569e-06
-1.91785e-05
-7.03301e-06
-7.22085e-06
-1.61609e-05
-8.27793e-06
-6.06873e-06
-1.98383e-05
-2.21323e-06
-1.17768e-05
-1.4564e-05
-3.67784e-06
-1.44673e-05
-7.22052e-06
-1.17814e-05
-8.33047e-06
-9.84231e-06
-1.32312e-05
-4.60953e-06
-1.54804e-05
-7.06171e-06
-7.98711e-06
-1.4528e-05
-6.15688e-06
-1.05881e-05
-9.307e-06
-1.25705e-05
-6.59996e-06
-1.04749e-05
-1.43024e-05
-3.51162e-06
-1.57569e-05
-8.02163e-06
-1.24805e-05
-7.89894e-06
-1.07586e-05
-1.56565e-05
4.60258e-07
-2.16471e-05
-6.48491e-06
-5.62281e-06
-1.89861e-05
-6.98304e-06
-7.59396e-06
-1.57009e-05
-9.22293e-06
-4.96759e-06
-2.06895e-05
-2.26176e-06
-1.12082e-05
-1.51359e-05
-3.27407e-06
-1.46366e-05
-7.1575e-06
-1.18609e-05
-8.00164e-06
-9.94109e-06
-1.35028e-05
-4.37124e-06
-1.57152e-05
-6.44041e-06
-8.63495e-06
-1.4427e-05
-5.17188e-06
-1.21457e-05
-8.05835e-06
-1.24437e-05
-7.71373e-06
-9.82885e-06
-1.46831e-05
-3.18805e-06
-1.61025e-05
-7.921e-06
-1.2999e-05
-7.61725e-06
-1.0722e-05
-1.59884e-05
8.81453e-07
-2.28051e-05
-5.67981e-06
-6.05639e-06
-1.88531e-05
-7.0972e-06
-7.94265e-06
-1.53324e-05
-9.94045e-06
-4.04564e-06
-2.16095e-05
-2.39231e-06
-1.05643e-05
-1.56129e-05
-2.96985e-06
-1.47957e-05
-7.3022e-06
-1.17848e-05
-7.60002e-06
-1.01738e-05
-1.38001e-05
-4.27445e-06
-1.58129e-05
-5.75346e-06
-9.32898e-06
-1.43545e-05
-4.38426e-06
-1.34625e-05
-6.74999e-06
-1.2489e-05
-8.7915e-06
-9.25625e-06
-1.48699e-05
-2.91971e-06
-1.64934e-05
-7.98885e-06
-1.34117e-05
-7.20464e-06
-1.07405e-05
-1.63277e-05
1.12552e-06
-2.38229e-05
-4.89426e-06
-6.34941e-06
-1.88472e-05
-7.28155e-06
-8.16058e-06
-1.50174e-05
-1.04736e-05
-3.37456e-06
-2.25462e-05
-2.48596e-06
-9.80614e-06
-1.60123e-05
-2.82167e-06
-1.49858e-05
-7.51882e-06
-1.15431e-05
-7.23545e-06
-1.05519e-05
-1.41451e-05
-4.19873e-06
-1.57069e-05
-5.09984e-06
-1.01028e-05
-1.43701e-05
-3.6454e-06
-1.44499e-05
-5.55352e-06
-1.27076e-05
-9.84091e-06
-8.56982e-06
-1.47737e-05
-2.78258e-06
-1.71372e-05
-8.22018e-06
-1.3469e-05
-6.59082e-06
-1.08431e-05
-1.68563e-05
1.14882e-06
-2.43664e-05
-4.01722e-06
-6.58508e-06
-1.91838e-05
-7.51432e-06
-8.02198e-06
-1.46087e-05
-1.0947e-05
-3.15902e-06
-2.34452e-05
-2.33844e-06
-8.95598e-06
-1.64072e-05
-2.99641e-06
-1.52856e-05
-7.58686e-06
-1.11071e-05
-6.99128e-06
-1.11731e-05
-1.44997e-05
-3.94129e-06
-1.53472e-05
-4.60954e-06
-1.10786e-05
-1.44073e-05
-2.69617e-06
-1.51679e-05
-4.61042e-06
-1.32145e-05
-1.08232e-05
-7.66442e-06
-1.49125e-05
-3.22698e-06
-1.74681e-05
-7.93636e-06
-1.30224e-05
-6.42976e-06
-1.14837e-05
-1.7123e-05
1.60431e-06
-2.42825e-05
-3.62246e-06
-7.23237e-06
-1.94972e-05
-7.19724e-06
-7.52642e-06
-1.46028e-05
-1.19058e-05
-2.96632e-06
-2.35848e-05
-1.85325e-06
-8.46295e-06
-1.72926e-05
-3.14146e-06
-1.49646e-05
-7.35397e-06
-1.09889e-05
-7.31519e-06
-1.16041e-05
-1.41911e-05
-3.36308e-06
-1.52689e-05
-4.77708e-06
-1.18556e-05
-1.38512e-05
-1.34369e-06
-1.59233e-05
-4.41682e-06
-1.36299e-05
-1.10358e-05
-7.33133e-06
-1.52073e-05
-3.43621e-06
-1.72894e-05
-7.66545e-06
-1.2935e-05
-6.61962e-06
-1.16649e-05
-1.68293e-05
1.94166e-06
-2.45128e-05
-3.68289e-06
-7.40637e-06
-1.94105e-05
-6.97081e-06
-7.47066e-06
-1.48692e-05
-1.22354e-05
-2.44968e-06
-2.34799e-05
-1.93683e-06
-8.35858e-06
-1.78006e-05
-2.86513e-06
-1.45759e-05
-7.48552e-06
-1.10865e-05
-7.3775e-06
-1.14991e-05
-1.38396e-05
-3.27832e-06
-1.5425e-05
-4.79048e-06
-1.20838e-05
-1.3315e-05
-1.50816e-06
-1.66711e-05
-4.11544e-06
-1.34818e-05
-1.10818e-05
-7.15937e-06
-1.5209e-05
-3.53613e-06
-1.71176e-05
-7.62678e-06
-1.27445e-05
-6.64819e-06
-1.17031e-05
-1.66639e-05
1.94885e-06
-2.45936e-05
-3.70088e-06
-7.36568e-06
-1.93524e-05
-6.93162e-06
-7.50751e-06
-1.48993e-05
-1.22345e-05
-2.20747e-06
-2.34474e-05
-2.11846e-06
-8.16719e-06
-1.79776e-05
-2.72136e-06
-1.44045e-05
-7.63049e-06
-1.10158e-05
-7.29582e-06
-1.14734e-05
-1.36894e-05
-3.2822e-06
-1.54025e-05
-4.73692e-06
-1.23319e-05
-1.3044e-05
-1.65518e-06
-1.69896e-05
-3.8717e-06
-1.3271e-05
-1.1216e-05
-7.14545e-06
-1.51717e-05
-3.6837e-06
-1.69381e-05
-7.59359e-06
-1.26927e-05
-6.77509e-06
-1.1753e-05
-1.6541e-05
1.878e-06
-2.44837e-05
-3.80958e-06
-7.41286e-06
-1.92249e-05
-6.87834e-06
-7.60518e-06
-1.48831e-05
-1.22924e-05
-2.1221e-06
-2.32626e-05
-2.32278e-06
-8.03251e-06
-1.80484e-05
-2.71663e-06
-1.41557e-05
-7.79372e-06
-1.09792e-05
-7.25844e-06
-1.14495e-05
-1.34754e-05
-3.34848e-06
-1.53488e-05
-4.78026e-06
-1.24787e-05
-1.27662e-05
-1.89785e-06
-1.71051e-05
-3.85675e-06
-1.30634e-05
-1.11966e-05
-7.25217e-06
-1.49988e-05
-3.90512e-06
-1.67813e-05
-7.54477e-06
-1.27226e-05
-6.87674e-06
-1.17832e-05
-1.64169e-05
1.73729e-06
-2.42821e-05
-4.01217e-06
-7.44318e-06
-1.90384e-05
-6.92095e-06
-7.65129e-06
-1.49099e-05
-1.22533e-05
-2.11371e-06
-2.30639e-05
-2.48577e-06
-7.99818e-06
-1.80273e-05
-2.76639e-06
-1.39399e-05
-7.95008e-06
-1.09279e-05
-7.31448e-06
-1.13696e-05
-1.32655e-05
-3.58902e-06
-1.52217e-05
-4.88942e-06
-1.23991e-05
-1.25582e-05
-2.15752e-06
-1.70846e-05
-3.99616e-06
-1.27794e-05
-1.1178e-05
-7.35989e-06
-1.4873e-05
-4.16476e-06
-1.6564e-05
-7.57617e-06
-1.27408e-05
-6.93576e-06
-1.18986e-05
-1.61961e-05
1.54531e-06
-2.40634e-05
-4.20399e-06
-7.52812e-06
-1.88307e-05
-6.96714e-06
-7.71557e-06
-1.49475e-05
-1.21583e-05
-2.24425e-06
-2.27702e-05
-2.63817e-06
-8.10972e-06
-1.78781e-05
-2.90387e-06
-1.37529e-05
-8.08676e-06
-1.09365e-05
-7.37057e-06
-1.12899e-05
-1.30991e-05
-3.82845e-06
-1.51056e-05
-5.05559e-06
-1.22941e-05
-1.23947e-05
-2.40647e-06
-1.69893e-05
-4.17846e-06
-1.25701e-05
-1.11293e-05
-7.52893e-06
-1.47333e-05
-4.40955e-06
-1.6395e-05
-7.614e-06
-1.27579e-05
-7.00826e-06
-1.20344e-05
-1.59358e-05
1.28087e-06
-2.38264e-05
-4.37502e-06
-7.66467e-06
-1.8586e-05
-7.04789e-06
-7.78977e-06
-1.49701e-05
-1.20692e-05
-2.4256e-06
-2.24491e-05
-2.81187e-06
-8.25943e-06
-1.76744e-05
-3.09874e-06
-1.35796e-05
-8.20967e-06
-1.09703e-05
-7.42634e-06
-1.1252e-05
-1.29276e-05
-4.08017e-06
-1.50161e-05
-5.19679e-06
-1.22329e-05
-1.22626e-05
-2.64577e-06
-1.6874e-05
-4.40353e-06
-1.24028e-05
-1.10517e-05
-7.696e-06
-1.4603e-05
-4.66089e-06
-1.62386e-05
-7.64926e-06
-1.27845e-05
-7.07423e-06
-1.21711e-05
-1.56835e-05
9.84972e-07
-2.35876e-05
-4.51853e-06
-7.83596e-06
-1.83379e-05
-7.14683e-06
-7.86639e-06
-1.49876e-05
-1.19877e-05
-2.63284e-06
-2.21473e-05
-2.97091e-06
-8.44007e-06
-1.74573e-05
-3.31483e-06
-1.34363e-05
-8.31289e-06
-1.1022e-05
-7.49203e-06
-1.12371e-05
-1.27756e-05
-4.32605e-06
-1.49234e-05
-5.34671e-06
-1.22057e-05
-1.2121e-05
-2.89965e-06
-1.67629e-05
-4.59615e-06
-1.22985e-05
-1.09768e-05
-7.85674e-06
-1.45003e-05
-4.88382e-06
-1.61097e-05
-7.68674e-06
-1.28157e-05
-7.13209e-06
-1.23009e-05
-1.54616e-05
6.94399e-07
-2.33731e-05
-4.63228e-06
-8.02428e-06
-1.81091e-05
-7.25128e-06
-7.94473e-06
-1.50011e-05
-1.19227e-05
-2.83974e-06
-2.18858e-05
-3.10658e-06
-8.63314e-06
-1.72496e-05
-3.52191e-06
-1.33295e-05
-8.39609e-06
-1.10826e-05
-7.55343e-06
-1.12431e-05
-1.26481e-05
-4.54386e-06
-1.48497e-05
-5.48994e-06
-1.21934e-05
-1.19966e-05
-3.14782e-06
-1.66552e-05
-4.76356e-06
-1.225e-05
-1.08982e-05
-8.00121e-06
-1.44253e-05
-5.06973e-06
-1.60196e-05
-7.72098e-06
-1.28525e-05
-7.18241e-06
-1.24183e-05
-1.5286e-05
4.37276e-07
-2.32038e-05
-4.71582e-06
-8.20978e-06
-1.79198e-05
-7.34925e-06
-8.02134e-06
-1.50136e-05
-1.18765e-05
-3.02581e-06
-2.16821e-05
-3.21267e-06
-8.81782e-06
-1.70735e-05
-3.70185e-06
-1.32605e-05
-8.45847e-06
-1.11459e-05
-7.60901e-06
-1.12634e-05
-1.255e-05
-4.7277e-06
-1.47986e-05
-5.61198e-06
-1.22018e-05
-1.18963e-05
-3.36572e-06
-1.65708e-05
-4.90001e-06
-1.22408e-05
-1.08308e-05
-8.12038e-06
-1.43811e-05
-5.21447e-06
-1.59709e-05
-7.7524e-06
-1.28932e-05
-7.22634e-06
-1.25198e-05
-1.51654e-05
2.31836e-07
-2.3092e-05
-4.77251e-06
-8.37467e-06
-1.77835e-05
-7.43182e-06
-8.09301e-06
-1.50281e-05
-1.18508e-05
-3.17954e-06
-2.15445e-05
-3.28877e-06
-8.97822e-06
-1.69455e-05
-3.84405e-06
-1.32278e-05
-8.50386e-06
-1.12069e-05
-7.65779e-06
-1.12947e-05
-1.24851e-05
-4.87161e-06
-1.47719e-05
-5.70924e-06
-1.22274e-05
-1.18255e-05
-3.54159e-06
-1.65182e-05
-5.00298e-06
-1.22614e-05
-1.07835e-05
-8.21201e-06
-1.43674e-05
-5.3184e-06
-1.59623e-05
-7.78205e-06
-1.29372e-05
-7.26518e-06
-1.26049e-05
-1.51019e-05
8.57075e-08
-2.30427e-05
-4.80879e-06
-8.50849e-06
-1.77069e-05
-7.49606e-06
-8.15661e-06
-1.50488e-05
-1.18463e-05
-3.29495e-06
-2.14752e-05
-3.33912e-06
-9.1057e-06
-1.68732e-05
-3.94534e-06
-1.32282e-05
-8.53789e-06
-1.12624e-05
-7.70018e-06
-1.13349e-05
-1.24537e-05
-4.97547e-06
-1.47705e-05
-5.7807e-06
-1.22668e-05
-1.17879e-05
-3.6699e-06
-1.65011e-05
-5.07499e-06
-1.23025e-05
-1.07607e-05
-8.2792e-06
-1.43771e-05
-5.38471e-06
-1.59876e-05
-7.80314e-06
-1.29891e-05
-7.29173e-06
-1.26753e-05
-1.50843e-05
-5.58282e-09
-2.30497e-05
-4.817e-06
-8.61647e-06
-1.76785e-05
-7.54409e-06
-8.20844e-06
-1.50746e-05
-1.18591e-05
-3.37171e-06
-2.14671e-05
-3.35767e-06
-9.2036e-06
-1.68478e-05
-4.01121e-06
-1.32532e-05
-8.55979e-06
-1.13132e-05
-7.7317e-06
-1.13822e-05
-1.24478e-05
-5.04337e-06
-1.47903e-05
-5.82416e-06
-1.23181e-05
-1.17755e-05
-3.75436e-06
-1.65152e-05
-5.11449e-06
-1.23587e-05
-1.0756e-05
-9.75832e-06
-7.36599e-06
-1.21404e-05
-1.24232e-05
-2.58527e-06
-1.90297e-05
-5.13219e-06
-1.04786e-05
-1.4008e-05
-5.88133e-06
-1.30086e-05
-8.67921e-06
-1.13431e-05
-8.33053e-06
-1.32987e-05
-8.27268e-06
-9.32113e-06
-1.31289e-05
-6.64248e-06
-1.55381e-05
-4.34838e-06
-1.24261e-05
-1.27078e-05
-5.31221e-06
-1.5514e-05
-4.79161e-06
-1.21649e-05
-1.1249e-05
-1.14663e-05
-4.48083e-06
-1.53082e-05
-1.13559e-05
-3.93268e-07
-2.43751e-05
-1.11921e-06
-7.895e-06
-1.98602e-05
-1.51506e-06
-1.34544e-05
-1.09214e-05
-5.95531e-06
-1.34419e-05
-9.17894e-06
-1.23051e-05
-4.69474e-06
-1.668e-05
-6.67094e-06
-9.33147e-06
-1.47405e-05
-5.90633e-06
-1.31638e-05
-6.89588e-06
-1.31621e-05
-9.80825e-06
-8.77212e-06
-1.24944e-05
-8.46363e-06
-1.03217e-05
-1.07149e-05
-1.24727e-05
-6.30292e-06
-1.03687e-05
-1.44703e-05
-5.71546e-06
-1.2326e-05
-9.21626e-06
-8.96081e-06
-1.19891e-05
-1.25552e-05
-2.9502e-06
-1.68114e-05
-9.75916e-06
-1.6537e-06
-2.43922e-05
5.64665e-07
-1.01632e-05
-1.90884e-05
8.42719e-07
-1.69419e-05
-1.05893e-05
-4.30341e-06
-1.69988e-05
-7.58075e-06
-1.09491e-05
-7.95641e-06
-1.41038e-05
-7.5152e-06
-9.44277e-06
-1.43951e-05
-6.32321e-06
-1.28053e-05
-6.75372e-06
-1.29002e-05
-1.21867e-05
-5.3001e-06
-1.47123e-05
-9.11192e-06
-7.07684e-06
-1.44272e-05
-9.94721e-06
-7.63367e-06
-9.31643e-06
-1.48211e-05
-7.53907e-06
-8.36753e-06
-1.37916e-05
-6.37945e-06
-1.20541e-05
-1.40009e-05
-1.93653e-06
-1.71891e-05
-8.6857e-06
-4.27733e-06
-2.15433e-05
-2.80392e-07
-1.23606e-05
-1.58938e-05
3.04499e-07
-1.92381e-05
-9.0826e-06
-4.61059e-06
-1.80387e-05
-6.84703e-06
-9.27209e-06
-1.14248e-05
-1.14725e-05
-8.0061e-06
-1.05497e-05
-1.31321e-05
-7.16765e-06
-1.19857e-05
-7.83589e-06
-1.13414e-05
-1.44337e-05
-3.66842e-06
-1.45524e-05
-1.11802e-05
-4.00139e-06
-1.71005e-05
-8.7052e-06
-7.95606e-06
-9.30441e-06
-1.43899e-05
-9.35445e-06
-5.32038e-06
-1.74926e-05
-4.49728e-06
-1.20639e-05
-1.49787e-05
-1.59504e-06
-1.681e-05
-8.2133e-06
-6.86178e-06
-1.76895e-05
-2.39928e-06
-1.39837e-05
-1.19869e-05
-2.05278e-06
-2.02424e-05
-6.9023e-06
-6.29818e-06
-1.8027e-05
-6.39741e-06
-8.22522e-06
-1.39049e-05
-9.44417e-06
-8.22311e-06
-1.16345e-05
-1.19563e-05
-7.94243e-06
-1.09498e-05
-9.43824e-06
-8.73945e-06
-1.62267e-05
-3.52382e-06
-1.28515e-05
-1.37835e-05
-1.4498e-06
-1.85653e-05
-8.39529e-06
-7.54222e-06
-1.00029e-05
-1.35789e-05
-1.05074e-05
-3.81473e-06
-1.87384e-05
-3.62922e-06
-1.20468e-05
-1.51019e-05
-2.16597e-06
-1.57439e-05
-8.4188e-06
-8.7748e-06
-1.4247e-05
-4.72257e-06
-1.50384e-05
-8.45759e-06
-5.22725e-06
-2.05194e-05
-4.45004e-06
-8.67131e-06
-1.71457e-05
-6.08188e-06
-8.04442e-06
-1.4925e-05
-8.34157e-06
-8.25423e-06
-1.23986e-05
-1.12048e-05
-8.28099e-06
-1.01471e-05
-1.11317e-05
-6.32596e-06
-1.75581e-05
-4.23712e-06
-1.05618e-05
-1.62896e-05
1.80926e-07
-1.89715e-05
-8.9559e-06
-6.65311e-06
-1.09561e-05
-1.26436e-05
-1.09455e-05
-3.82748e-06
-1.83575e-05
-4.01998e-06
-1.17225e-05
-1.47712e-05
-3.41387e-06
-1.41415e-05
-9.29825e-06
-9.79874e-06
-1.16177e-05
-6.77665e-06
-1.55902e-05
-5.57123e-06
-7.76089e-06
-2.03104e-05
-2.11549e-06
-1.0942e-05
-1.60454e-05
-5.79328e-06
-8.48798e-06
-1.4995e-05
-7.99565e-06
-8.27398e-06
-1.27412e-05
-1.096e-05
-8.12767e-06
-1.01941e-05
-1.25239e-05
-4.3605e-06
-1.87199e-05
-5.19451e-06
-8.27953e-06
-1.83103e-05
9.26007e-07
-1.83974e-05
-1.00924e-05
-5.57095e-06
-1.19186e-05
-1.20117e-05
-1.07694e-05
-4.81834e-06
-1.69365e-05
-5.16809e-06
-1.11393e-05
-1.42959e-05
-4.83655e-06
-1.23942e-05
-1.05025e-05
-1.01325e-05
-9.83001e-06
-8.50087e-06
-1.55853e-05
-3.71599e-06
-9.81719e-06
-1.97254e-05
-4.4812e-07
-1.27117e-05
-1.50128e-05
-5.49659e-06
-9.33815e-06
-1.44048e-05
-8.14082e-06
-8.29692e-06
-1.2698e-05
-1.1255e-05
-7.52109e-06
-1.06008e-05
-1.32928e-05
-2.94896e-06
-1.93961e-05
-6.08204e-06
-6.62567e-06
-1.95122e-05
7.21309e-07
-1.72054e-05
-1.15014e-05
-4.5566e-06
-1.27026e-05
-1.16458e-05
-1.01997e-05
-6.34066e-06
-1.50693e-05
-6.60371e-06
-1.051e-05
-1.37346e-05
-6.30551e-06
-1.07126e-05
-1.17216e-05
-9.92419e-06
-8.81151e-06
-9.89847e-06
-1.50348e-05
-2.90754e-06
-1.12049e-05
-1.89646e-05
4.50194e-07
-1.38652e-05
-1.42054e-05
-5.18905e-06
-1.03605e-05
-1.34647e-05
-8.58011e-06
-8.36715e-06
-1.23983e-05
-1.17892e-05
-6.54309e-06
-1.14918e-05
-1.34284e-05
-2.14647e-06
-1.97666e-05
-6.73748e-06
-5.61258e-06
-1.99607e-05
-9.38392e-08
-1.56573e-05
-1.29383e-05
-3.72088e-06
-1.32138e-05
-1.15573e-05
-9.41411e-06
-8.02177e-06
-1.31832e-05
-8.12587e-06
-9.90621e-06
-1.31773e-05
-7.66603e-06
-9.21631e-06
-1.28545e-05
-9.49666e-06
-8.50622e-06
-1.09472e-05
-1.41812e-05
-2.9022e-06
-1.19584e-05
-1.80294e-05
6.3937e-07
-1.43597e-05
-1.36799e-05
-4.92492e-06
-1.1386e-05
-1.23642e-05
-9.17565e-06
-8.39627e-06
-1.19938e-05
-1.2531e-05
-5.34479e-06
-1.26879e-05
-1.30681e-05
-1.90205e-06
-1.9907e-05
-7.12024e-06
-5.20016e-06
-1.98129e-05
-1.33223e-06
-1.39304e-05
-1.42811e-05
-3.12528e-06
-1.34084e-05
-1.17482e-05
-8.52543e-06
-9.45807e-06
-1.14801e-05
-9.40334e-06
-9.37255e-06
-1.27011e-05
-8.81904e-06
-7.98996e-06
-1.37623e-05
-8.97281e-06
-8.03066e-06
-1.1742e-05
-1.30681e-05
-3.51808e-06
-1.22566e-05
-1.69854e-05
2.30938e-07
-1.43228e-05
-1.34208e-05
-4.68102e-06
-1.23451e-05
-1.12656e-05
-9.82505e-06
-8.42563e-06
-1.15261e-05
-1.33592e-05
-4.08216e-06
-1.40659e-05
-1.23725e-05
-2.06263e-06
-1.986e-05
-7.28064e-06
-5.25111e-06
-1.92565e-05
-2.77652e-06
-1.21217e-05
-1.55221e-05
-2.74093e-06
-1.33723e-05
-1.21629e-05
-7.57994e-06
-1.07283e-05
-1.01562e-05
-1.04077e-05
-8.97086e-06
-1.22741e-05
-9.74106e-06
-7.08388e-06
-1.4496e-05
-8.45393e-06
-7.90793e-06
-1.23753e-05
-1.18297e-05
-4.58329e-06
-1.21512e-05
-1.60049e-05
-6.49758e-07
-1.38999e-05
-1.33931e-05
-4.4977e-06
-1.31813e-05
-1.02547e-05
-1.04845e-05
-8.39725e-06
-1.1075e-05
-1.41791e-05
-2.81504e-06
-1.54946e-05
-1.14731e-05
-2.53618e-06
-1.97024e-05
-7.28276e-06
-5.56581e-06
-1.85328e-05
-4.3377e-06
-1.03838e-05
-1.65563e-05
-2.50692e-06
-1.31679e-05
-1.27371e-05
-6.62167e-06
-1.17543e-05
-9.07396e-06
-1.11394e-05
-8.70821e-06
-1.19386e-05
-1.04708e-05
-6.36595e-06
-1.50418e-05
-7.99405e-06
-7.99048e-06
-1.28097e-05
-1.05235e-05
-5.95122e-06
-1.17542e-05
-1.5087e-05
-1.78422e-06
-1.32499e-05
-1.3522e-05
-4.36107e-06
-1.38794e-05
-9.35391e-06
-1.11523e-05
-8.33316e-06
-1.07472e-05
-1.49486e-05
-1.59707e-06
-1.69273e-05
-1.04951e-05
-3.14575e-06
-1.9465e-05
-7.27491e-06
-5.9968e-06
-1.77498e-05
-5.90747e-06
-8.70379e-06
-1.77129e-05
-2.46015e-06
-1.28267e-05
-1.34078e-05
-5.58524e-06
-1.25852e-05
-8.31916e-06
-1.16379e-05
-8.50458e-06
-1.14972e-05
-1.10628e-05
-5.97666e-06
-1.5434e-05
-7.55497e-06
-8.18572e-06
-1.31129e-05
-9.22332e-06
-7.4803e-06
-1.11257e-05
-1.42195e-05
-3.03741e-06
-1.24652e-05
-1.37659e-05
-4.27733e-06
-1.44932e-05
-8.53377e-06
-1.18206e-05
-8.23276e-06
-1.058e-05
-1.56188e-05
-4.27588e-07
-1.82802e-05
-9.56393e-06
-3.84159e-06
-1.9185e-05
-7.20787e-06
-6.46292e-06
-1.70652e-05
-7.41059e-06
-7.05672e-06
-1.87126e-05
-2.59879e-06
-1.24538e-05
-1.41754e-05
-4.42998e-06
-1.31845e-05
-7.84492e-06
-1.19944e-05
-8.38465e-06
-1.11428e-05
-1.14898e-05
-5.87351e-06
-1.57635e-05
-7.18179e-06
-8.40071e-06
-1.32756e-05
-7.99473e-06
-9.07863e-06
-1.04212e-05
-1.34855e-05
-4.23959e-06
-1.16862e-05
-1.40915e-05
-4.18338e-06
-1.5008e-05
-7.84556e-06
-1.24884e-05
-8.10121e-06
-1.04622e-05
-1.621e-05
6.04581e-07
-1.95968e-05
-8.71347e-06
-4.50657e-06
-1.89143e-05
-7.13976e-06
-6.83675e-06
-1.65343e-05
-8.72224e-06
-5.73751e-06
-1.96512e-05
-2.30792e-06
-1.20703e-05
-1.49841e-05
-3.89343e-06
-1.36418e-05
-7.56892e-06
-1.224e-05
-8.28371e-06
-1.08751e-05
-1.18478e-05
-5.2754e-06
-1.60222e-05
-6.85905e-06
-8.66658e-06
-1.33506e-05
-6.87915e-06
-1.0622e-05
-9.59825e-06
-1.29342e-05
-5.407e-06
-1.10084e-05
-1.44865e-05
-4.0897e-06
-1.54086e-05
-7.2438e-06
-1.3114e-05
-7.97533e-06
-1.03876e-05
-1.66412e-05
1.50142e-06
-2.08447e-05
-7.98812e-06
-5.10644e-06
-1.86482e-05
-7.11372e-06
-7.17637e-06
-1.61756e-05
-9.80502e-06
-4.53187e-06
-2.05767e-05
-2.14019e-06
-1.17319e-05
-1.57851e-05
-3.24671e-06
-1.39892e-05
-7.49637e-06
-1.24571e-05
-8.2116e-06
-1.06439e-05
-1.21603e-05
-4.97773e-06
-1.62696e-05
-6.5711e-06
-8.92679e-06
-1.33501e-05
-5.91893e-06
-1.2132e-05
-8.72438e-06
-1.24718e-05
-6.45693e-06
-1.0349e-05
-1.47705e-05
-4.02013e-06
-1.58434e-05
-6.81634e-06
-1.36063e-05
-7.71496e-06
-1.03561e-05
-1.70165e-05
2.17735e-06
-2.19129e-05
-7.27479e-06
-5.62879e-06
-1.85126e-05
-7.21668e-06
-7.36351e-06
-1.58624e-05
-1.06887e-05
-3.5582e-06
-2.15987e-05
-2.01724e-06
-1.13163e-05
-1.64859e-05
-2.63781e-06
-1.43648e-05
-7.51836e-06
-1.25239e-05
-8.12465e-06
-1.05464e-05
-1.2519e-05
-4.75902e-06
-1.63928e-05
-6.27405e-06
-9.24238e-06
-1.33576e-05
-5.03363e-06
-1.34408e-05
-7.84153e-06
-1.22105e-05
-7.41687e-06
-9.64641e-06
-1.50459e-05
-4.05736e-06
-1.62033e-05
-6.36063e-06
-1.38858e-05
-7.466e-06
-1.04062e-05
-1.72935e-05
2.82245e-06
-2.26837e-05
-6.69199e-06
-6.12516e-06
-1.84821e-05
-7.33083e-06
-7.28628e-06
-1.56996e-05
-1.14963e-05
-2.76275e-06
-2.25374e-05
-1.81834e-06
-1.0946e-05
-1.71724e-05
-2.03227e-06
-1.46192e-05
-7.53014e-06
-1.25634e-05
-8.09462e-06
-1.05401e-05
-1.27515e-05
-4.42389e-06
-1.65205e-05
-6.05546e-06
-9.51986e-06
-1.32371e-05
-4.13541e-06
-1.46099e-05
-7.1006e-06
-1.20508e-05
-8.10385e-06
-8.94789e-06
-1.53775e-05
-4.21148e-06
-1.64185e-05
-5.75857e-06
-1.39683e-05
-7.34752e-06
-1.05196e-05
-1.74497e-05
3.57536e-06
-2.31689e-05
-6.37392e-06
-6.58757e-06
-1.84771e-05
-7.20185e-06
-7.00967e-06
-1.57983e-05
-1.22874e-05
-2.07855e-06
-2.29935e-05
-1.51058e-06
-1.07256e-05
-1.79453e-05
-1.43411e-06
-1.45137e-05
-7.48373e-06
-1.26773e-05
-8.14089e-06
-1.05256e-05
-1.25988e-05
-3.97556e-06
-1.67678e-05
-5.93495e-06
-9.69365e-06
-1.28192e-05
-3.27979e-06
-1.57177e-05
-6.50181e-06
-1.18818e-05
-8.43722e-06
-8.79956e-06
-1.58072e-05
-4.0905e-06
-1.61336e-05
-5.22174e-06
-1.43912e-05
-7.45632e-06
-1.01824e-05
-1.71511e-05
4.22588e-06
-2.38668e-05
-6.42835e-06
-6.67261e-06
-1.81098e-05
-7.01114e-06
-7.11228e-06
-1.61878e-05
-1.26466e-05
-1.09675e-06
-2.32871e-05
-1.61674e-06
-1.06949e-05
-1.84286e-05
-5.38852e-07
-1.4329e-05
-7.82106e-06
-1.2906e-05
-7.80861e-06
-1.01442e-05
-1.23658e-05
-3.93936e-06
-1.71324e-05
-5.53137e-06
-9.48534e-06
-1.24043e-05
-2.96824e-06
-1.67935e-05
-5.65048e-06
-1.1344e-05
-8.61595e-06
-8.82277e-06
-1.57356e-05
-3.62418e-06
-1.60277e-05
-5.27448e-06
-1.47507e-05
-7.17613e-06
-9.15169e-06
-1.70541e-05
4.24766e-06
-2.44557e-05
-6.19363e-06
-6.27446e-06
-1.80384e-05
-7.2327e-06
-7.34961e-06
-1.61972e-05
-1.24127e-05
-4.16247e-07
-2.39414e-05
-1.87194e-06
-1.02663e-05
-1.8482e-05
-1.46204e-07
-1.45009e-05
-8.1954e-06
-1.27018e-05
-7.05956e-06
-1.00257e-05
-1.25404e-05
-4.04092e-06
-1.70318e-05
-4.79919e-06
-9.61866e-06
-1.24488e-05
-2.89835e-06
-1.7221e-05
-4.48328e-06
-1.1157e-05
-9.14022e-06
-8.59083e-06
-1.55572e-05
-3.6376e-06
-1.61168e-05
-5.22707e-06
-1.46255e-05
-7.01203e-06
-9.82374e-06
-1.72002e-05
4.28967e-06
-2.44835e-05
-6.02487e-06
-6.18204e-06
-1.82089e-05
-7.27369e-06
-7.16971e-06
-1.61362e-05
-1.24545e-05
-1.03616e-07
-2.42801e-05
-1.82897e-06
-9.80945e-06
-1.87053e-05
2.45171e-08
-1.44042e-05
-8.23099e-06
-1.24747e-05
-6.91338e-06
-1.01765e-05
-1.24734e-05
-3.89252e-06
-1.68541e-05
-4.68003e-06
-9.93266e-06
-1.23046e-05
-2.65646e-06
-1.73992e-05
-4.34383e-06
-1.11821e-05
-9.33616e-06
-8.59768e-06
-1.54134e-05
-3.68626e-06
-1.61085e-05
-5.13091e-06
-1.45974e-05
-7.06645e-06
-1.01418e-05
-1.71642e-05
4.37637e-06
-2.44803e-05
-6.04928e-06
-6.04788e-06
-1.81699e-05
-7.21171e-06
-7.09741e-06
-1.61533e-05
-1.24646e-05
1.97476e-07
-2.43248e-05
-1.94438e-06
-9.5102e-06
-1.88245e-05
7.01959e-08
-1.4188e-05
-8.45335e-06
-1.22778e-05
-6.77036e-06
-1.01801e-05
-1.23122e-05
-3.98656e-06
-1.66704e-05
-4.62037e-06
-9.99762e-06
-1.21227e-05
-2.69871e-06
-1.74586e-05
-4.27101e-06
-1.09923e-05
-9.37795e-06
-8.614e-06
-1.50887e-05
-3.77672e-06
-1.60106e-05
-5.16564e-06
-1.4567e-05
-6.98537e-06
-1.031e-05
-1.71137e-05
4.3517e-06
-2.438e-05
-6.04217e-06
-5.87847e-06
-1.81225e-05
-7.2288e-06
-7.00404e-06
-1.6128e-05
-1.23509e-05
3.02957e-07
-2.43042e-05
-1.90456e-06
-9.30395e-06
-1.88191e-05
6.62687e-08
-1.40889e-05
-8.57769e-06
-1.19978e-05
-6.79821e-06
-1.01598e-05
-1.22352e-05
-4.0721e-06
-1.63754e-05
-4.61811e-06
-9.99328e-06
-1.2076e-05
-2.73181e-06
-1.72926e-05
-4.33919e-06
-1.08244e-05
-9.49642e-06
-8.60015e-06
-1.485e-05
-3.86816e-06
-1.58318e-05
-5.29734e-06
-1.44377e-05
-6.85778e-06
-1.04867e-05
-1.69104e-05
4.19001e-06
-2.42109e-05
-5.97152e-06
-5.84144e-06
-1.80072e-05
-7.20646e-06
-7.01438e-06
-1.60315e-05
-1.21591e-05
1.67354e-07
-2.40723e-05
-1.91846e-06
-9.25355e-06
-1.86105e-05
-7.80207e-08
-1.39815e-05
-8.59774e-06
-1.1836e-05
-6.7832e-06
-1.0138e-05
-1.21639e-05
-4.12413e-06
-1.61413e-05
-4.6287e-06
-9.94613e-06
-1.20451e-05
-2.7776e-06
-1.70951e-05
-4.42346e-06