/*--------------------------------*- C++ -*----------------------------------*\
  =========                 |
  \\      /  F ield         | OpenFOAM: The Open Source CFD Toolbox
   \\    /   O peration     | Website:  https://openfoam.org
    \\  /    A nd           | Version:  10
     \\/     M anipulation  |
\*---------------------------------------------------------------------------*/
FoamFile
{
    format      ascii;
    class       volScalarField;
    location    "10";
    object      nut;
}
// * * * * * * * * * * * * * * * * * * * * * * * * * * * * * * * * * * * * * //

dimensions      [0 2 -1 0 0 0 0];

internalField   nonuniform List<scalar> 
25600
(
0.000245761
0.000245808
0.000245722
0.000245769
0.000245696
0.000245709
0.000245659
0.000245678
0.000245618
0.000245655
0.000245628
0.000245642
0.000245642
0.000245668
0.000245661
0.000245692
0.000245708
0.000245709
0.000245745
0.000245741
0.000245779
0.000245757
0.000245821
0.000245756
0.000245854
0.000245779
0.000245854
0.000245799
0.000245858
0.000245792
0.000245854
0.000245792
0.000245827
0.000245796
0.000245801
0.000245799
0.000245792
0.0002458
0.000245785
0.000245804
0.000254625
0.000254667
0.000254588
0.000254635
0.000254555
0.000254577
0.00025452
0.000254533
0.000254479
0.000254513
0.000254478
0.000254499
0.000254496
0.000254516
0.000254517
0.000254544
0.000254559
0.000254561
0.000254605
0.000254589
0.00025464
0.000254611
0.000254676
0.000254616
0.000254712
0.000254633
0.000254719
0.000254655
0.000254717
0.000254657
0.000254714
0.000254655
0.00025469
0.000254657
0.000254662
0.000254663
0.000254646
0.000254666
0.000254639
0.000254667
0.000261681
0.000261727
0.000261654
0.0002617
0.000261621
0.000261647
0.000261585
0.000261594
0.000261542
0.000261569
0.000261529
0.000261551
0.000261544
0.000261559
0.000261565
0.000261586
0.000261604
0.0002616
0.000261654
0.000261624
0.000261693
0.00026165
0.000261723
0.000261663
0.00026176
0.00026168
0.00026177
0.000261704
0.00026177
0.000261716
0.000261767
0.000261716
0.000261745
0.000261718
0.000261715
0.000261725
0.000261694
0.000261728
0.000261688
0.000261729
0.000268445
0.0002685
0.000268434
0.000268477
0.000268405
0.000268432
0.000268367
0.000268373
0.000268321
0.000268339
0.000268295
0.000268313
0.000268302
0.00026831
0.000268319
0.000268329
0.000268355
0.000268338
0.000268409
0.000268358
0.000268449
0.000268387
0.000268475
0.000268409
0.000268508
0.000268431
0.000268523
0.00026846
0.000268526
0.000268481
0.000268525
0.000268489
0.000268505
0.000268491
0.000268476
0.000268499
0.000268449
0.000268501
0.000268442
0.000268503
0.000274404
0.000274468
0.000274413
0.000274452
0.000274394
0.000274419
0.000274357
0.00027436
0.000274306
0.000274315
0.000274267
0.000274275
0.00027426
0.000274257
0.000274269
0.000274264
0.000274302
0.000274261
0.000274356
0.000274276
0.000274395
0.00027431
0.000274415
0.000274343
0.000274443
0.000274372
0.000274462
0.000274406
0.000274469
0.00027444
0.000274472
0.000274457
0.000274457
0.000274464
0.000274429
0.000274473
0.000274398
0.000274472
0.000274391
0.000274472
0.000279308
0.000279375
0.000279338
0.00027937
0.000279332
0.000279357
0.000279301
0.000279303
0.000279248
0.000279249
0.000279197
0.00027919
0.000279173
0.000279153
0.000279168
0.00027914
0.000279196
0.000279119
0.000279247
0.000279128
0.000279278
0.000279168
0.000279287
0.000279212
0.000279309
0.000279249
0.00027933
0.00027929
0.000279344
0.000279338
0.000279353
0.000279369
0.000279346
0.000279383
0.000279321
0.000279396
0.000279289
0.00027939
0.000279283
0.000279384
0.000282778
0.000282836
0.000282828
0.000282846
0.000282834
0.000282861
0.000282815
0.000282822
0.000282768
0.000282763
0.000282711
0.000282686
0.000282668
0.000282624
0.000282647
0.000282581
0.000282667
0.000282535
0.000282706
0.000282538
0.000282718
0.000282585
0.000282708
0.000282641
0.000282723
0.000282683
0.000282747
0.000282729
0.000282766
0.000282793
0.000282784
0.000282839
0.000282788
0.000282865
0.000282772
0.000282886
0.000282744
0.000282874
0.000282741
0.000282855
0.000284357
0.000284383
0.000284415
0.000284413
0.000284427
0.000284463
0.000284428
0.000284447
0.000284402
0.000284393
0.000284349
0.000284303
0.00028429
0.000284213
0.000284254
0.000284132
0.00028426
0.000284056
0.000284275
0.000284054
0.000284251
0.000284109
0.000284213
0.000284172
0.000284221
0.00028421
0.000284248
0.000284258
0.000284267
0.000284339
0.000284295
0.000284401
0.000284316
0.000284441
0.000284313
0.000284474
0.000284298
0.000284456
0.000284305
0.000284418
0.000283472
0.000283438
0.000283519
0.000283494
0.000283523
0.000283579
0.000283551
0.000283587
0.000283563
0.000283552
0.000283531
0.000283463
0.000283469
0.000283346
0.000283425
0.000283222
0.00028341
0.000283119
0.00028338
0.000283119
0.000283305
0.000283179
0.000283227
0.000283236
0.000283232
0.000283255
0.000283256
0.0002833
0.000283267
0.000283396
0.000283307
0.000283471
0.000283348
0.000283527
0.000283365
0.000283574
0.000283373
0.00028355
0.000283402
0.00028349
0.00027941
0.000279297
0.000279417
0.000279381
0.0002794
0.000279488
0.000279462
0.000279511
0.000279524
0.000279509
0.000279532
0.000279442
0.000279492
0.000279306
0.000279456
0.000279151
0.000279407
0.000279037
0.000279311
0.000279047
0.000279171
0.000279104
0.000279052
0.000279128
0.000279058
0.000279115
0.000279067
0.00027915
0.000279055
0.000279249
0.000279107
0.00027933
0.000279169
0.0002794
0.000279211
0.000279459
0.000279258
0.000279428
0.000279322
0.000279352
0.000271281
0.000271099
0.000271227
0.000271207
0.000271187
0.000271305
0.000271285
0.000271324
0.000271392
0.000271364
0.00027145
0.000271336
0.000271467
0.000271202
0.000271458
0.000271058
0.000271364
0.000270961
0.000271185
0.000270986
0.000270985
0.000271023
0.00027084
0.00027098
0.000270851
0.000270932
0.000270824
0.000270948
0.000270769
0.000271024
0.000270829
0.0002711
0.000270908
0.000271173
0.000270981
0.000271236
0.000271078
0.000271199
0.000271182
0.000271123
0.000257987
0.000257793
0.000257876
0.000257904
0.000257831
0.000257956
0.000257964
0.000257958
0.000258084
0.000258029
0.000258194
0.000258038
0.000258295
0.000257943
0.000258314
0.000257882
0.000258177
0.000257842
0.000257924
0.000257874
0.000257699
0.000257864
0.000257567
0.000257735
0.000257566
0.000257668
0.000257485
0.000257655
0.000257379
0.000257666
0.000257428
0.000257716
0.000257517
0.000257772
0.000257622
0.000257825
0.000257769
0.000257787
0.000257899
0.000257739
0.000238201
0.000238091
0.000238089
0.000238171
0.000238075
0.000238155
0.00023822
0.000238144
0.00023832
0.000238213
0.000238468
0.000238239
0.000238628
0.000238239
0.000238647
0.000238327
0.000238501
0.000238376
0.000238236
0.000238388
0.000238053
0.000238307
0.000237973
0.000238118
0.000237928
0.000238067
0.000237804
0.000238014
0.000237664
0.000237919
0.000237667
0.000237908
0.000237753
0.000237919
0.000237874
0.00023795
0.000238048
0.000237931
0.00023816
0.000237939
0.000210407
0.000210438
0.000210376
0.000210464
0.000210414
0.000210399
0.00021053
0.00021039
0.000210604
0.000210421
0.000210752
0.000210462
0.000210878
0.000210596
0.000210855
0.000210823
0.000210765
0.000210953
0.000210608
0.000210918
0.000210539
0.000210777
0.000210512
0.000210618
0.000210402
0.000210593
0.00021029
0.000210507
0.000210174
0.000210313
0.000210104
0.000210192
0.000210155
0.000210139
0.000210249
0.000210145
0.00021039
0.000210177
0.000210437
0.000210247
0.00017306
0.000173163
0.000173126
0.000173154
0.000173203
0.000173095
0.000173259
0.000173073
0.00017331
0.000173087
0.000173387
0.000173181
0.000173373
0.000173408
0.000173325
0.000173655
0.000173345
0.000173786
0.000173403
0.000173733
0.000173476
0.000173611
0.000173453
0.00017356
0.000173338
0.000173539
0.000173303
0.000173437
0.000173279
0.000173237
0.00017318
0.000173007
0.000173134
0.000172896
0.000173139
0.000172885
0.000173168
0.00017296
0.000173131
0.000173065
0.000124532
0.000124564
0.000124589
0.000124522
0.00012464
0.000124513
0.000124638
0.000124486
0.000124604
0.00012454
0.000124554
0.000124694
0.000124435
0.000124858
0.00012443
0.000124975
0.000124566
0.000125008
0.000124782
0.000125006
0.000124963
0.000125014
0.000124964
0.000125045
0.000124953
0.000125021
0.000125027
0.000124938
0.000125096
0.000124848
0.000125069
0.000124674
0.000124924
0.000124541
0.000124803
0.000124515
0.000124695
0.000124563
0.00012458
0.00012462
6.75436e-05
6.7467e-05
6.75147e-05
6.74061e-05
6.74696e-05
6.74192e-05
6.74107e-05
6.74403e-05
6.72837e-05
6.75155e-05
6.71628e-05
6.76123e-05
6.70845e-05
6.76224e-05
6.71337e-05
6.75766e-05
6.72924e-05
6.75254e-05
6.74788e-05
6.75674e-05
6.76661e-05
6.76705e-05
6.7771e-05
6.77183e-05
6.78803e-05
6.77163e-05
6.8003e-05
6.77082e-05
6.80916e-05
6.77474e-05
6.81303e-05
6.77686e-05
6.80283e-05
6.77004e-05
6.78682e-05
6.76558e-05
6.77014e-05
6.76347e-05
6.75656e-05
6.7592e-05
2.20421e-05
2.19653e-05
2.19794e-05
2.19414e-05
2.18966e-05
2.1933e-05
2.18438e-05
2.19736e-05
2.17354e-05
2.20122e-05
2.16686e-05
2.20072e-05
2.16647e-05
2.19604e-05
2.17003e-05
2.18787e-05
2.17887e-05
2.18314e-05
2.18507e-05
2.18611e-05
2.19435e-05
2.19312e-05
2.20694e-05
2.19496e-05
2.21814e-05
2.19658e-05
2.22505e-05
2.20134e-05
2.22914e-05
2.20728e-05
2.23211e-05
2.21573e-05
2.23204e-05
2.217e-05
2.22341e-05
2.21432e-05
2.2132e-05
2.2104e-05
2.20582e-05
2.20319e-05
3.4163e-06
3.39836e-06
3.36638e-06
3.4186e-06
3.32796e-06
3.38726e-06
3.34805e-06
3.39856e-06
3.29476e-06
3.40915e-06
3.29468e-06
3.38651e-06
3.30939e-06
3.36608e-06
3.30818e-06
3.33222e-06
3.35168e-06
3.31591e-06
3.33679e-06
3.33427e-06
3.34652e-06
3.36445e-06
3.39942e-06
3.33343e-06
3.4469e-06
3.34368e-06
3.45824e-06
3.38166e-06
3.45552e-06
3.3901e-06
3.47013e-06
3.41889e-06
3.4839e-06
3.4412e-06
3.4431e-06
3.45118e-06
3.42769e-06
3.4338e-06
3.41667e-06
3.38879e-06
2.60608e-07
2.66519e-07
2.1673e-07
2.994e-07
2.03099e-07
2.5469e-07
2.60541e-07
2.54168e-07
2.20339e-07
2.59016e-07
2.38674e-07
2.47578e-07
2.52058e-07
2.38903e-07
2.45568e-07
2.23309e-07
2.81704e-07
2.22056e-07
2.45189e-07
2.37364e-07
2.35507e-07
2.63506e-07
2.59348e-07
2.13754e-07
2.75768e-07
2.19691e-07
2.73119e-07
2.45633e-07
2.58516e-07
2.36287e-07
2.66798e-07
2.44493e-07
2.66468e-07
2.63623e-07
2.25356e-07
2.83865e-07
2.40332e-07
2.74341e-07
2.48586e-07
2.34916e-07
4.21121e-08
4.06608e-08
3.71124e-09
8.87165e-08
1.48164e-08
3.50101e-08
6.05178e-08
3.25034e-08
1.11007e-08
3.45849e-08
2.54359e-08
4.54213e-08
3.87388e-08
2.00827e-08
8.05836e-08
7.85757e-09
9.04787e-08
8.98728e-09
4.52422e-08
1.12501e-08
5.42114e-08
3.70266e-08
6.88663e-08
2.8007e-09
4.39704e-08
8.96025e-09
3.05739e-08
2.44596e-08
2.52606e-08
1.52389e-08
2.56866e-08
2.95792e-08
1.74713e-08
5.66842e-08
2.11448e-09
6.90884e-08
7.9636e-09
6.12457e-08
2.00741e-08
3.30763e-08
4.08663e-08
2.81152e-08
2.76436e-09
8.69046e-08
2.07915e-08
2.65113e-08
7.18086e-08
1.80699e-08
1.41413e-08
1.95662e-08
2.62173e-08
4.13477e-08
4.40292e-08
2.68884e-09
1.07995e-07
1.05552e-09
1.12808e-07
6.37826e-09
4.30945e-08
1.71435e-08
4.09074e-08
3.3003e-08
4.99991e-08
1.96745e-09
1.30298e-08
4.44448e-08
1.62147e-08
4.90672e-08
7.78795e-09
3.08833e-08
1.26639e-08
2.92769e-08
7.71427e-09
4.94159e-08
4.58279e-09
5.61937e-08
1.21805e-08
5.03536e-08
2.58552e-08
2.5276e-08
4.68429e-08
2.77824e-08
2.67383e-09
9.17086e-08
1.35622e-08
1.58405e-08
8.01568e-08
7.48247e-09
3.88144e-08
7.82939e-09
5.108e-08
3.81591e-08
6.42705e-08
6.58059e-09
1.23471e-07
2.63276e-09
1.07933e-07
6.48637e-09
2.02951e-08
5.36184e-08
1.34612e-08
5.76415e-08
1.73118e-08
3.30684e-08
1.13642e-08
7.19862e-08
1.77256e-08
5.16389e-08
4.04573e-09
1.52884e-08
1.17661e-08
8.68535e-09
1.52694e-08
3.43972e-08
1.52006e-08
4.77337e-08
3.17825e-08
4.54551e-08
4.2367e-08
2.0465e-08
3.83609e-08
3.09758e-08
2.19705e-10
9.29511e-08
1.15314e-08
7.63853e-09
1.0534e-07
5.46269e-09
8.56762e-08
1.18192e-08
6.88698e-08
3.88769e-08
5.65085e-08
1.33998e-08
7.67559e-08
3.494e-09
6.32801e-08
4.71078e-08
8.3502e-09
1.13958e-07
7.6894e-09
8.58972e-08
1.15107e-08
2.9915e-08
1.04393e-08
3.41216e-08
1.67224e-08
2.01297e-08
7.00008e-09
9.74882e-09
3.14997e-08
9.75989e-09
4.04837e-08
3.52913e-08
3.0166e-08
4.41738e-08
3.87162e-08
4.02297e-08
3.92256e-08
1.59088e-08
3.76085e-08
2.42846e-08
6.38887e-09
7.5527e-08
3.13932e-08
1.27242e-08
1.29903e-07
6.68314e-09
1.02763e-07
8.02174e-09
4.29256e-08
5.56762e-08
2.01092e-08
6.51187e-08
2.72345e-08
2.5111e-08
4.9016e-08
7.32794e-08
5.342e-09
1.15364e-07
2.17183e-09
6.01508e-08
1.21297e-08
5.41735e-09
2.9916e-08
8.52459e-09
3.02359e-08
1.55191e-08
2.70183e-08
2.13153e-08
4.29033e-08
1.51077e-08
4.76559e-08
3.72619e-08
2.63032e-08
3.53966e-08
2.09358e-08
2.8582e-08
1.75825e-08
1.29242e-08
5.91098e-08
9.71199e-09
2.04974e-08
5.76711e-08
3.48624e-08
1.85826e-08
7.87436e-08
9.77157e-09
6.84824e-08
1.68814e-08
2.16729e-08
9.34816e-08
1.30363e-08
1.06225e-07
1.73916e-08
2.27829e-08
5.92874e-08
2.86438e-08
3.3399e-09
6.97705e-08
5.65424e-09
4.74113e-08
2.82214e-08
5.46055e-09
5.66272e-08
8.43705e-09
4.50149e-08
1.99709e-08
3.00265e-08
3.34677e-08
3.23598e-08
1.5813e-08
3.05543e-08
2.87984e-08
7.81803e-09
2.26813e-08
4.90469e-09
2.44831e-08
2.80819e-08
1.56398e-08
5.89222e-08
9.42347e-09
1.22139e-08
6.51165e-08
2.05103e-08
7.14865e-08
1.94871e-08
2.51218e-08
5.46122e-08
2.37002e-08
3.58078e-08
5.40208e-08
1.52283e-08
8.89469e-08
1.47839e-08
6.99495e-09
7.71901e-08
1.86962e-08
1.71303e-08
5.75952e-08
1.04935e-08
6.40282e-08
1.93579e-08
5.41875e-09
6.75984e-08
4.31476e-09
5.46606e-08
1.51381e-08
1.92918e-08
4.4003e-08
1.08853e-08
1.31976e-08
1.33159e-08
2.70566e-08
1.33593e-08
2.4047e-08
3.46007e-08
2.32546e-08
4.98893e-08
1.05495e-08
3.17371e-08
4.3525e-08
3.64577e-08
7.08841e-08
2.03067e-08
1.14437e-07
8.7539e-09
2.35126e-08
7.94712e-08
2.24381e-08
9.09889e-08
1.13189e-08
1.86061e-08
6.98077e-08
1.20487e-08
3.22773e-08
5.4069e-08
2.51639e-08
2.87724e-08
4.78765e-08
9.69869e-09
7.0492e-08
1.73288e-08
2.06255e-09
7.21991e-08
2.13669e-09
5.55184e-08
4.88378e-09
7.94616e-09
4.87599e-08
1.89618e-09
1.87066e-08
2.77295e-08
3.09253e-08
3.36404e-08
1.91514e-08
4.6768e-08
1.19915e-08
2.77722e-08
1.8542e-08
2.58016e-08
4.76703e-08
5.74815e-08
1.24826e-08
1.99726e-08
1.18371e-07
2.56227e-08
4.19013e-08
7.12321e-08
1.41531e-08
1.08467e-07
1.22331e-08
2.09742e-08
6.72929e-08
1.2811e-08
7.32065e-08
3.20979e-08
1.83852e-08
4.25602e-08
1.80637e-08
9.12492e-09
6.40419e-08
1.37917e-08
7.41676e-09
5.24758e-08
9.67922e-09
6.38194e-08
4.65485e-09
7.19136e-09
3.11113e-08
9.66015e-09
1.94353e-08
1.88015e-08
2.67638e-08
1.2758e-08
1.22301e-08
2.78499e-08
1.45426e-08
1.38847e-08
4.46515e-08
4.50943e-08
2.77172e-08
9.93919e-08
6.98597e-09
4.021e-08
9.9782e-08
2.53782e-08
8.50496e-08
1.70631e-08
2.35834e-08
8.77515e-08
1.68418e-08
7.36294e-08
4.20411e-08
2.44057e-08
6.7109e-08
9.23821e-09
8.56536e-09
5.25639e-08
2.47168e-08
5.20604e-09
7.13188e-08
1.53012e-08
3.49784e-08
6.52219e-08
1.64317e-08
9.276e-08
7.39635e-09
5.90466e-08
1.04176e-08
1.7628e-08
5.24563e-08
1.47156e-08
7.63951e-08
1.92291e-09
3.70976e-08
3.00271e-08
9.57048e-09
2.44592e-08
4.6105e-08
1.29313e-07
2.37695e-08
1.52776e-07
7.74007e-09
6.2342e-08
7.12588e-08
4.05107e-08
1.4227e-07
1.33614e-08
1.17992e-07
8.82629e-08
7.16781e-09
1.87328e-07
4.06865e-08
6.27933e-08
1.055e-07
6.9241e-08
9.92076e-08
4.07652e-08
1.51974e-07
1.1004e-08
1.31477e-07
1.0448e-07
8.97732e-08
1.06677e-07
5.12177e-08
1.46611e-07
1.21478e-08
8.59799e-08
1.0434e-07
2.78704e-08
7.88627e-08
3.25514e-08
1.11562e-07
6.22946e-09
6.05282e-08
7.30813e-08
9.84048e-09
1.28915e-07
3.90622e-08
5.90325e-08
1.18645e-07
1.51389e-07
9.81707e-08
1.85151e-07
3.33511e-08
7.79373e-08
1.52222e-07
1.40613e-07
2.0869e-07
2.32834e-07
4.91426e-08
1.53761e-07
9.14354e-08
3.79979e-07
1.09216e-07
5.80029e-08
1.62032e-07
6.33339e-08
5.08371e-08
3.45369e-08
1.4347e-07
7.88384e-08
1.20602e-07
3.6989e-07
1.18636e-07
8.76975e-08
7.25467e-08
2.367e-07
1.47785e-07
2.23643e-07
7.49873e-08
9.95956e-08
6.64524e-08
1.00547e-07
1.64601e-07
7.7616e-08
1.43751e-07
3.4404e-08
4.44841e-07
0.000246444
0.000246422
0.000246433
0.000246417
0.000246454
0.000246395
0.000246469
0.000246411
0.000246476
0.000246425
0.000246517
0.000246431
0.000246547
0.000246459
0.000246559
0.000246462
0.000246575
0.000246445
0.000246565
0.000246433
0.000246544
0.000246411
0.000246547
0.000246391
0.000246553
0.000246403
0.000246538
0.000246422
0.00024654
0.000246417
0.000246531
0.000246411
0.000246502
0.000246409
0.000246471
0.000246402
0.000246458
0.000246397
0.000246458
0.000246403
0.000255335
0.000255303
0.000255326
0.000255304
0.000255337
0.000255285
0.000255358
0.000255289
0.000255368
0.000255307
0.0002554
0.000255318
0.000255439
0.000255341
0.000255454
0.000255351
0.000255469
0.000255336
0.000255466
0.000255319
0.000255444
0.000255302
0.000255437
0.000255283
0.000255442
0.000255286
0.000255433
0.000255308
0.000255429
0.000255308
0.000255421
0.000255301
0.000255396
0.000255297
0.000255361
0.000255292
0.000255341
0.000255289
0.00025534
0.000255289
0.000262413
0.000262378
0.00026241
0.00026238
0.000262416
0.000262363
0.000262437
0.000262359
0.000262449
0.000262376
0.000262475
0.00026239
0.000262517
0.000262412
0.000262538
0.000262427
0.000262556
0.000262418
0.000262559
0.000262398
0.000262539
0.000262383
0.000262523
0.000262367
0.000262521
0.000262363
0.000262514
0.000262384
0.000262509
0.00026239
0.0002625
0.000262387
0.000262479
0.000262381
0.000262441
0.000262377
0.000262416
0.000262373
0.000262412
0.00026237
0.000269196
0.000269162
0.000269202
0.000269161
0.000269207
0.000269146
0.000269224
0.000269136
0.000269236
0.000269148
0.000269257
0.000269163
0.000269298
0.000269186
0.000269326
0.000269207
0.000269352
0.000269204
0.000269362
0.000269186
0.000269345
0.000269174
0.00026932
0.000269159
0.000269308
0.000269151
0.000269299
0.000269169
0.000269293
0.00026918
0.000269285
0.000269183
0.000269268
0.000269179
0.000269229
0.000269174
0.000269198
0.000269168
0.000269191
0.000269161
0.000275168
0.000275136
0.000275186
0.00027513
0.000275191
0.000275118
0.000275204
0.000275103
0.000275213
0.000275107
0.000275227
0.000275121
0.000275265
0.000275145
0.000275298
0.00027517
0.000275335
0.000275175
0.000275357
0.000275163
0.000275343
0.000275157
0.000275308
0.000275145
0.000275284
0.000275132
0.000275272
0.000275144
0.000275265
0.00027516
0.000275257
0.00027517
0.000275243
0.000275171
0.000275205
0.000275166
0.000275171
0.000275157
0.00027516
0.000275144
0.000280077
0.000280042
0.000280108
0.000280032
0.000280113
0.000280023
0.000280122
0.000280005
0.000280126
0.00028
0.000280132
0.000280007
0.000280162
0.00028003
0.000280197
0.000280057
0.000280247
0.000280071
0.000280283
0.000280071
0.000280275
0.000280078
0.000280231
0.000280072
0.000280195
0.000280053
0.000280177
0.000280056
0.000280166
0.000280073
0.000280155
0.000280092
0.000280148
0.000280101
0.000280113
0.000280097
0.000280077
0.000280086
0.000280064
0.000280063
0.000283541
0.00028349
0.000283582
0.000283479
0.000283586
0.000283477
0.000283592
0.000283458
0.000283592
0.000283444
0.000283587
0.000283442
0.000283604
0.000283459
0.000283638
0.00028348
0.0002837
0.000283501
0.000283751
0.000283522
0.000283748
0.000283553
0.000283698
0.000283557
0.000283655
0.000283528
0.000283631
0.00028352
0.000283611
0.000283537
0.000283594
0.000283562
0.000283593
0.00028358
0.000283566
0.000283582
0.000283532
0.000283568
0.00028352
0.000283531
0.000285095
0.000285009
0.000285141
0.000285001
0.000285137
0.00028501
0.000285142
0.000284992
0.000285142
0.000284971
0.000285124
0.00028496
0.000285124
0.000284962
0.000285153
0.000284967
0.000285221
0.000284993
0.00028528
0.000285041
0.000285281
0.00028511
0.00028523
0.000285127
0.000285191
0.000285088
0.000285167
0.000285069
0.000285132
0.000285085
0.0002851
0.000285108
0.000285105
0.000285134
0.000285088
0.000285144
0.000285063
0.00028513
0.000285061
0.000285074
0.000284159
0.000284011
0.000284198
0.000284016
0.000284175
0.000284037
0.000284183
0.00028402
0.000284188
0.000284
0.000284159
0.000283982
0.000284143
0.000283958
0.000284164
0.000283937
0.000284224
0.000283963
0.000284275
0.000284043
0.000284274
0.000284161
0.000284232
0.000284191
0.000284215
0.000284141
0.0002842
0.000284123
0.000284142
0.000284136
0.000284093
0.000284146
0.000284099
0.000284174
0.000284092
0.000284192
0.000284082
0.000284179
0.000284102
0.0002841
0.000280008
0.000279777
0.000280025
0.000279807
0.000279973
0.000279836
0.000279989
0.000279816
0.000280002
0.000279808
0.000279967
0.00027979
0.000279947
0.000279732
0.000279958
0.000279678
0.000279989
0.000279701
0.000280005
0.00027981
0.000279989
0.000279975
0.000279977
0.00028001
0.000280001
0.000279956
0.000279997
0.000279961
0.000279918
0.000279973
0.000279857
0.000279955
0.000279859
0.000279974
0.000279855
0.000279996
0.000279864
0.000279978
0.000279922
0.000279874
0.000271743
0.000271428
0.000271721
0.000271496
0.000271643
0.000271518
0.000271671
0.000271492
0.000271685
0.000271503
0.000271654
0.000271492
0.000271656
0.000271401
0.000271654
0.000271327
0.000271633
0.000271348
0.000271582
0.000271467
0.000271536
0.000271651
0.000271579
0.00027168
0.000271653
0.000271637
0.000271651
0.000271692
0.000271567
0.000271702
0.000271517
0.000271651
0.000271508
0.000271651
0.000271497
0.000271661
0.000271528
0.000271624
0.000271634
0.0002715
0.000258252
0.000257896
0.000258187
0.000258004
0.000258105
0.000258003
0.000258148
0.000257973
0.000258147
0.000257997
0.000258131
0.000257992
0.000258184
0.000257895
0.000258159
0.00025783
0.000258074
0.000257863
0.000257943
0.00025795
0.000257861
0.000258093
0.000257974
0.000258111
0.000258082
0.000258107
0.00025806
0.000258218
0.000258006
0.000258219
0.000257996
0.000258153
0.000257981
0.000258132
0.000257957
0.000258104
0.000258011
0.000258034
0.000258153
0.000257901
0.000238204
0.000237895
0.000238113
0.000238021
0.000238065
0.000237992
0.000238117
0.000237979
0.000238096
0.000237987
0.000238094
0.000237973
0.000238202
0.00023793
0.000238146
0.000237908
0.000238007
0.000237969
0.000237839
0.000237975
0.000237729
0.000237996
0.000237881
0.000238025
0.000237977
0.000238086
0.000237927
0.000238212
0.000237946
0.000238193
0.000237988
0.00023815
0.000237986
0.00023812
0.000237963
0.000238033
0.000238036
0.000237931
0.000238177
0.000237818
0.000210068
0.000209905
0.000209988
0.000210007
0.000209994
0.000209969
0.000210034
0.000209991
0.000210028
0.000209962
0.000210016
0.000209923
0.000210122
0.000209993
0.000210054
0.000210026
0.000209898
0.000210099
0.000209797
0.000210015
0.000209687
0.000209881
0.000209775
0.000209945
0.000209818
0.000210057
0.00020978
0.000210119
0.000209883
0.000210089
0.000209946
0.000210089
0.000209985
0.000210073
0.000210006
0.000209932
0.000210069
0.000209837
0.000210159
0.000209797
0.000172279
0.000172313
0.000172226
0.000172359
0.000172258
0.000172333
0.000172274
0.000172364
0.000172322
0.000172346
0.000172279
0.000172289
0.000172279
0.000172441
0.000172254
0.000172511
0.00017215
0.000172528
0.000172189
0.000172429
0.000172126
0.000172228
0.000172051
0.000172282
0.000172045
0.000172364
0.000172077
0.000172329
0.000172211
0.000172318
0.000172255
0.000172332
0.000172336
0.000172334
0.000172436
0.000172221
0.000172438
0.000172188
0.000172434
0.000172263
0.000123144
0.000123406
0.000123113
0.000123395
0.00012313
0.000123376
0.00012312
0.000123377
0.000123166
0.000123427
0.000123119
0.000123402
0.000123005
0.000123486
0.000123028
0.000123537
0.000123045
0.000123473
0.000123158
0.000123433
0.000123187
0.000123315
0.000123044
0.000123273
0.00012302
0.000123241
0.0001231
0.000123158
0.000123185
0.00012317
0.00012321
0.000123159
0.000123286
0.00012317
0.000123394
0.000123204
0.000123329
0.000123273
0.000123234
0.000123419
6.58095e-05
6.62419e-05
6.58179e-05
6.62141e-05
6.58066e-05
6.61957e-05
6.57836e-05
6.61794e-05
6.57576e-05
6.62402e-05
6.57355e-05
6.62664e-05
6.56349e-05
6.62326e-05
6.56366e-05
6.62027e-05
6.573e-05
6.6127e-05
6.58164e-05
6.61009e-05
6.59105e-05
6.60922e-05
6.58949e-05
6.59959e-05
6.58864e-05
6.58875e-05
6.5921e-05
6.58191e-05
6.59344e-05
6.58164e-05
6.59436e-05
6.57988e-05
6.5963e-05
6.58256e-05
6.5969e-05
6.5977e-05
6.59018e-05
6.61307e-05
6.57984e-05
6.62498e-05
2.09111e-05
2.12254e-05
2.09218e-05
2.12373e-05
2.09121e-05
2.12112e-05
2.09046e-05
2.12017e-05
2.08568e-05
2.12257e-05
2.08477e-05
2.12386e-05
2.08244e-05
2.1202e-05
2.08044e-05
2.11344e-05
2.08596e-05
2.10956e-05
2.09051e-05
2.10666e-05
2.09608e-05
2.10731e-05
2.10334e-05
2.10229e-05
2.10575e-05
2.09518e-05
2.10317e-05
2.09224e-05
2.10227e-05
2.09099e-05
2.10155e-05
2.0898e-05
2.09976e-05
2.09378e-05
2.09424e-05
2.10489e-05
2.09064e-05
2.11651e-05
2.08776e-05
2.12136e-05
3.12613e-06
3.21198e-06
3.08915e-06
3.25844e-06
3.10159e-06
3.21221e-06
3.12382e-06
3.20344e-06
3.09866e-06
3.22547e-06
3.09952e-06
3.19526e-06
3.1043e-06
3.19811e-06
3.10721e-06
3.16341e-06
3.11368e-06
3.14628e-06
3.13358e-06
3.15927e-06
3.12237e-06
3.15165e-06
3.16126e-06
3.12958e-06
3.20369e-06
3.11512e-06
3.16064e-06
3.11838e-06
3.16202e-06
3.12279e-06
3.15892e-06
3.10369e-06
3.14204e-06
3.14138e-06
3.10909e-06
3.18108e-06
3.08658e-06
3.19539e-06
3.11505e-06
3.19759e-06
2.32116e-07
2.47653e-07
1.75709e-07
3.01971e-07
1.94793e-07
2.36627e-07
2.35437e-07
2.22864e-07
2.20429e-07
2.46568e-07
2.28452e-07
2.05206e-07
2.36924e-07
2.16031e-07
2.57127e-07
2.02211e-07
2.48953e-07
1.94034e-07
2.53108e-07
2.30848e-07
2.21523e-07
2.24525e-07
2.36019e-07
2.06524e-07
2.74996e-07
2.07983e-07
2.2924e-07
2.23429e-07
2.30791e-07
2.37598e-07
2.33173e-07
2.15002e-07
2.18545e-07
2.51566e-07
1.98366e-07
2.73904e-07
1.82117e-07
2.47509e-07
2.25018e-07
2.32497e-07
4.02589e-08
5.3986e-08
8.85151e-09
1.02331e-07
6.40782e-09
2.09429e-08
6.0828e-08
1.00232e-08
4.73754e-08
1.53111e-08
5.45782e-08
1.94132e-08
6.43183e-08
1.06652e-08
1.1466e-07
8.35378e-09
8.79576e-08
2.18617e-08
5.22888e-08
3.09187e-08
3.85372e-08
3.55797e-08
4.6799e-08
2.78697e-08
4.7472e-08
2.3288e-08
1.53526e-08
3.64965e-08
1.42415e-08
5.20094e-08
1.84913e-08
3.3787e-08
1.87704e-08
6.85898e-08
4.2024e-09
8.69031e-08
3.04767e-10
6.99044e-08
2.33277e-08
4.44189e-08
3.48117e-08
2.9099e-08
4.08015e-09
8.19681e-08
2.19758e-08
1.05754e-08
9.44799e-08
2.81836e-09
6.72746e-08
1.02951e-08
6.82748e-08
2.54772e-08
7.17913e-08
7.23776e-09
1.26808e-07
3.7291e-09
9.20394e-08
1.94544e-08
2.38485e-08
3.62986e-08
1.2768e-08
3.42807e-08
1.92105e-08
2.25362e-08
2.06126e-08
6.39309e-08
1.43508e-08
6.69495e-08
1.07071e-08
6.80711e-08
1.06456e-08
3.832e-08
1.4678e-08
6.43769e-08
2.68072e-09
7.05697e-08
2.86108e-09
5.69614e-08
1.87238e-08
2.51732e-08
5.05196e-08
7.79993e-09
5.23418e-09
6.96493e-08
3.71527e-08
5.79521e-09
1.21434e-07
1.98061e-09
9.76844e-08
1.44428e-08
8.09959e-08
2.94408e-08
6.50016e-08
7.69008e-09
1.02816e-07
3.41533e-09
5.9138e-08
2.68638e-08
9.51926e-09
8.50257e-08
4.73613e-09
7.01935e-08
1.25199e-08
4.61371e-08
1.93697e-08
8.58341e-08
1.43172e-08
7.21075e-08
7.3964e-09
5.70656e-08
6.20838e-09
1.87912e-08
1.08267e-08
4.62108e-08
3.58294e-09
4.77879e-08
1.59503e-08
3.96843e-08
3.65153e-08
1.07101e-08
6.32813e-08
1.91614e-09
8.83549e-09
6.68431e-08
4.47708e-08
5.88325e-09
1.4103e-07
5.17291e-09
1.14744e-07
1.47864e-08
6.5765e-08
3.6015e-08
2.86489e-08
1.79233e-08
4.15575e-08
1.73883e-08
3.40899e-08
6.86376e-08
1.11191e-08
1.33397e-07
5.81622e-09
9.56106e-08
1.16029e-08
3.57762e-08
1.88144e-08
4.50997e-08
9.06039e-09
4.13803e-08
2.95485e-09
3.73952e-08
1.05462e-08
1.01161e-08
2.31215e-08
3.18745e-08
1.55373e-08
3.15867e-08
3.84695e-08
2.86695e-08
5.43366e-08
4.86873e-09
6.23598e-08
9.94974e-09
2.11221e-08
7.14052e-08
4.99634e-08
9.24944e-09
1.24465e-07
4.62623e-09
9.02367e-08
1.19166e-08
2.83117e-08
7.01423e-08
1.28791e-08
8.46565e-08
1.83999e-08
4.54172e-08
3.3569e-08
7.7775e-08
8.44887e-09
1.20283e-07
2.71432e-09
6.60117e-08
1.00227e-08
9.22234e-09
3.28533e-08
5.84413e-09
6.34546e-09
2.47667e-08
1.01538e-08
4.01372e-08
3.09906e-08
1.17621e-08
4.9726e-08
2.1955e-08
3.14064e-08
1.93876e-08
4.17465e-08
1.77169e-08
5.0242e-08
2.29913e-09
6.91565e-08
1.36792e-08
2.02745e-08
7.2403e-08
2.95242e-08
2.02379e-08
5.78179e-08
1.41968e-08
6.38738e-08
2.81351e-08
1.90079e-08
9.2676e-08
9.30489e-09
1.08621e-07
1.07194e-08
3.96346e-08
4.25136e-08
3.84071e-08
7.79972e-09
6.77947e-08
4.91814e-09
4.82092e-08
1.15611e-08
5.23e-09
5.13294e-08
6.59391e-09
2.45391e-08
2.31191e-08
2.17763e-08
4.38033e-08
3.50532e-08
8.79743e-09
6.02741e-08
1.1453e-08
3.11046e-08
1.04243e-08
3.44628e-08
1.79023e-08
4.86351e-08
9.42715e-09
4.94682e-08
2.38564e-08
1.0629e-08
9.38142e-08
2.01199e-08
8.29876e-08
2.90517e-08
1.95426e-08
6.25832e-08
1.7404e-08
3.11458e-08
4.32137e-08
8.98364e-09
1.01012e-07
1.07331e-08
2.9153e-08
5.02616e-08
1.97994e-08
1.79387e-08
4.17025e-08
8.48436e-09
6.08997e-08
1.34453e-08
5.49852e-09
6.40546e-08
5.39417e-09
5.13797e-08
1.56316e-08
1.81177e-08
4.42604e-08
2.209e-08
2.68995e-09
5.27529e-08
9.50822e-09
3.66007e-08
2.00142e-08
4.44635e-08
2.73671e-08
4.51411e-08
1.1521e-08
3.75807e-08
6.2032e-08
3.15612e-08
7.94184e-08
2.6121e-08
1.00558e-07
1.45914e-08
5.04078e-09
8.80988e-08
1.92787e-08
8.45857e-08
1.50803e-08
7.34244e-09
9.18497e-08
6.48439e-09
5.27149e-08
3.4352e-08
1.7674e-08
3.96951e-08
2.68908e-08
1.08904e-08
6.30601e-08
1.86255e-08
5.58305e-09
6.69539e-08
4.2261e-09
6.17696e-08
4.80305e-09
5.06976e-09
3.66538e-08
1.37633e-08
5.00357e-09
4.93965e-08
1.60511e-08
3.86323e-08
2.204e-08
2.9341e-08
2.43507e-08
1.08287e-08
3.30706e-08
3.85854e-08
4.17752e-08
6.90258e-08
9.48943e-09
3.86188e-08
1.00957e-07
2.85599e-08
3.2932e-08
5.70122e-08
2.29052e-08
9.06916e-08
2.02157e-08
4.8718e-09
7.85309e-08
6.20307e-09
7.12872e-08
2.47785e-08
9.19566e-09
6.31973e-08
1.31064e-08
1.22926e-08
5.47501e-08
1.64526e-08
1.36497e-08
4.10953e-08
6.18262e-09
7.20132e-08
6.35221e-09
2.83375e-08
2.38735e-08
1.56036e-08
1.77644e-08
2.2296e-08
1.51512e-08
1.04115e-08
2.87118e-08
6.679e-09
4.3968e-08
7.11374e-09
5.73796e-08
7.50312e-08
1.0849e-08
1.37653e-07
3.89916e-09
4.4705e-08
1.03965e-07
1.95784e-08
1.03914e-07
5.19104e-09
4.37504e-08
6.85796e-08
2.08749e-08
6.5977e-08
2.64666e-08
8.98132e-09
5.22329e-08
2.23761e-08
1.66208e-09
5.57468e-08
2.1273e-08
4.59469e-09
5.78237e-08
1.4056e-08
3.62786e-08
3.27173e-08
1.02128e-08
9.32781e-08