/*--------------------------------*- C++ -*----------------------------------*\
  =========                 |
  \\      /  F ield         | OpenFOAM: The Open Source CFD Toolbox
   \\    /   O peration     | Website:  https://openfoam.org
    \\  /    A nd           | Version:  10
     \\/     M anipulation  |
\*---------------------------------------------------------------------------*/
FoamFile
{
    format      ascii;
    class       volScalarField;
    location    "10";
    object      pMean;
}
// * * * * * * * * * * * * * * * * * * * * * * * * * * * * * * * * * * * * * //

dimensions      [0 2 -2 0 0 0 0];

internalField   nonuniform List<scalar> 
25600
(
-3.44661e-06
-6.99892e-06
4.55331e-07
-8.35144e-06
6.77415e-06
2.6157e-05
-4.30052e-06
-9.85049e-06
8.62677e-07
2.29536e-06
1.01768e-05
1.17452e-05
5.2097e-06
1.23e-05
8.37828e-07
1.31037e-05
1.26567e-05
8.92106e-06
9.1349e-06
4.68837e-06
1.01172e-05
9.52435e-06
-2.47402e-06
3.1133e-05
3.03244e-05
-6.78453e-06
-2.14029e-05
4.23308e-06
3.45908e-06
2.33174e-05
1.7064e-05
-1.32013e-05
-6.51766e-06
-4.85268e-06
1.43705e-05
-2.41059e-06
1.54802e-05
-4.26965e-06
8.22694e-06
-3.66925e-06
-3.50648e-06
-7.10101e-06
6.96503e-07
-7.71095e-06
6.1429e-06
2.58543e-05
-4.23623e-06
-9.00797e-06
8.48016e-07
2.74961e-06
9.81752e-06
1.16199e-05
4.85778e-06
1.26695e-05
8.47566e-07
1.30715e-05
1.26193e-05
9.27457e-06
8.8063e-06
4.59855e-06
9.69893e-06
9.74711e-06
-2.39597e-06
3.13239e-05
3.07501e-05
-6.78333e-06
-2.15516e-05
3.69307e-06
4.26957e-06
2.38081e-05
1.71047e-05
-1.3449e-05
-6.41107e-06
-4.68395e-06
1.49918e-05
-2.46706e-06
1.49149e-05
-4.03996e-06
8.59908e-06
-3.87666e-06
-3.42768e-06
-7.74002e-06
5.91069e-07
-6.54527e-06
6.28438e-06
2.55503e-05
-4.80707e-06
-8.46649e-06
1.62467e-06
3.86005e-06
9.18663e-06
1.11193e-05
4.63783e-06
1.3113e-05
1.61362e-06
1.30649e-05
1.23106e-05
9.51334e-06
9.2923e-06
5.18475e-06
9.41571e-06
9.473e-06
-2.24067e-06
3.18281e-05
3.17285e-05
-6.73306e-06
-2.19036e-05
3.84713e-06
5.30084e-06
2.40311e-05
1.70813e-05
-1.36093e-05
-6.20671e-06
-4.35314e-06
1.63651e-05
-2.84696e-06
1.41531e-05
-3.75439e-06
9.09389e-06
-3.34368e-06
-3.0562e-06
-8.41547e-06
6.69486e-07
-5.58093e-06
6.98254e-06
2.57741e-05
-4.93131e-06
-8.39381e-06
2.05138e-06
5.02017e-06
8.98959e-06
9.89793e-06
4.59655e-06
1.52488e-05
3.52001e-06
1.30412e-05
1.27332e-05
9.31936e-06
9.64915e-06
5.37027e-06
9.06777e-06
9.66356e-06
-2.25442e-06
3.30097e-05
3.28975e-05
-6.76742e-06
-2.14307e-05
3.58769e-06
6.10008e-06
2.51874e-05
1.7538e-05
-1.52437e-05
-6.39479e-06
-3.13754e-06
1.76485e-05
-3.14925e-06
1.34915e-05
-3.32657e-06
1.07014e-05
-1.50561e-06
-2.55569e-06
-8.85827e-06
-5.40337e-07
-4.60708e-06
8.37035e-06
2.48056e-05
-3.22323e-06
-6.36826e-06
3.39639e-06
6.38871e-06
7.883e-06
8.41088e-06
4.79614e-06
1.50862e-05
6.38877e-06
1.34011e-05
1.24834e-05
9.39268e-06
1.13189e-05
9.51595e-06
1.04271e-05
8.56191e-06
-1.65941e-06
3.0914e-05
3.44853e-05
-4.49958e-06
-1.96169e-05
3.79338e-06
5.2831e-06
2.56183e-05
1.87089e-05
-1.23378e-05
-5.67544e-06
-2.75686e-06
1.86283e-05
-9.16874e-07
1.16003e-05
-3.50903e-06
9.94131e-06
1.11746e-07
-1.12082e-07
-6.12671e-06
1.56037e-06
-3.83236e-06
8.84321e-06
2.48906e-05
-4.85004e-06
-7.22726e-06
3.77925e-06
6.36124e-06
9.83735e-06
8.25313e-06
6.66013e-06
1.56642e-05
8.59711e-06
1.34403e-05
1.47297e-05
1.00025e-05
1.1303e-05
7.96867e-06
1.10786e-05
8.52854e-06
-9.95183e-07
3.30063e-05
3.15005e-05
-4.59289e-06
-1.66443e-05
3.87213e-06
5.4162e-06
2.47666e-05
1.7998e-05
-1.43197e-05
-4.54694e-06
-1.01197e-06
1.84829e-05
-1.78595e-06
1.49324e-05
-2.06942e-06
1.05679e-05
4.23901e-07
-1.45004e-06
-6.11725e-06
-1.08977e-06
1.37327e-06
8.91497e-06
2.30471e-05
-2.6723e-07
-4.58197e-06
4.64595e-07
5.39874e-06
9.53233e-06
7.26639e-06
6.44292e-06
1.44135e-05
1.05994e-05
1.32822e-05
1.72574e-05
9.18312e-06
1.24974e-05
1.11242e-05
9.05391e-06
8.01042e-06
1.85563e-06
2.90134e-05
3.12527e-05
-1.62378e-06
-1.27176e-05
2.26609e-06
4.29373e-06
2.41871e-05
1.64155e-05
-7.29986e-06
-3.95644e-06
-1.4408e-07
2.0833e-05
-1.95018e-06
8.38126e-06
-2.14813e-06
1.21394e-05
1.00312e-06
1.03461e-06
-3.45934e-06
2.67433e-08
-2.001e-06
6.13828e-06
2.08397e-05
1.65473e-06
-4.2062e-06
-2.41311e-06
4.07497e-06
1.17719e-05
1.0516e-05
7.86762e-06
1.11831e-05
9.45774e-06
1.36035e-05
1.88783e-05
8.82958e-06
9.66861e-06
1.12498e-05
5.7315e-06
1.04808e-05
1.55501e-06
2.43875e-05
2.68695e-05
1.50653e-06
-1.00404e-05
1.47381e-06
1.72708e-06
2.13406e-05
1.98748e-05
-5.82551e-06
-3.77135e-06
-4.20697e-07
1.64621e-05
-5.13226e-07
8.12315e-06
-1.48629e-06
6.97084e-06
2.0626e-06
7.83216e-07
-3.20623e-06
-2.26822e-06
-1.70138e-06
3.13297e-07
1.66243e-05
2.1381e-06
-3.99808e-06
-3.60219e-06
1.55549e-06
8.38405e-06
8.26899e-06
5.03805e-06
9.71753e-06
1.01924e-05
1.0957e-05
1.74033e-05
9.23766e-06
8.58188e-06
7.64891e-06
6.00021e-06
1.17948e-05
2.87364e-06
1.79798e-05
2.0322e-05
1.37085e-06
-9.72045e-06
-1.23754e-06
2.09891e-06
1.47304e-05
1.63286e-05
-1.5037e-06
-2.43292e-06
-2.31303e-06
1.27718e-05
-2.46789e-06
4.73867e-06
-2.66135e-06
5.08104e-06
-1.1003e-07
-2.08278e-06
-2.00131e-06
-1.47515e-06
-4.3015e-06
-3.77298e-06
1.14753e-05
2.28901e-06
-2.8679e-06
-4.24003e-06
-2.07138e-06
3.912e-06
7.2596e-06
5.45911e-06
6.18091e-06
6.7302e-06
7.54611e-06
1.38189e-05
8.94026e-06
2.75767e-06
5.4132e-06
1.89315e-06
1.08602e-05
2.60134e-06
1.26134e-05
1.45657e-05
6.13815e-07
-1.07045e-05
-3.36636e-06
-3.72889e-07
9.10464e-06
1.48171e-05
-6.17364e-07
-1.96118e-06
-3.41629e-06
9.46247e-06
-1.94882e-06
2.28329e-06
-3.50317e-06
1.72359e-06
-2.2437e-06
-3.60275e-06
-2.94521e-06
-3.71546e-06
-4.75163e-06
-6.35461e-06
6.26741e-06
2.69206e-06
-2.77568e-06
-5.48411e-06
-4.84196e-06
6.50794e-07
3.99449e-06
2.46407e-06
3.93144e-06
4.71854e-06
4.63969e-06
1.02175e-05
7.54659e-06
1.83039e-06
2.64304e-06
1.80701e-07
8.25793e-06
2.49104e-06
7.70518e-06
1.02042e-05
-2.72475e-07
-1.00433e-05
-4.98383e-06
-2.62018e-06
3.72552e-06
1.09528e-05
9.2287e-08
-1.04041e-06
-4.95203e-06
5.04577e-06
-3.14517e-06
-3.18674e-07
-3.89045e-06
-1.32858e-06
-4.14736e-06
-4.60432e-06
-2.7988e-06
-3.16685e-06
-4.316e-06
-7.45161e-06
2.72192e-06
2.34022e-06
-1.90784e-06
-5.65186e-06
-5.97509e-06
-1.52541e-06
2.69745e-06
2.71187e-06
2.13463e-06
2.44764e-06
3.15576e-06
6.46576e-06
6.69571e-06
-2.89067e-08
4.61878e-07
-1.68567e-06
5.50235e-06
2.58676e-06
4.84781e-06
6.6605e-06
-5.65485e-07
-7.87354e-06
-6.355e-06
-3.19884e-06
1.55611e-07
8.27747e-06
8.75068e-07
-2.94132e-07
-4.92401e-06
1.87064e-06
-2.77021e-06
-1.32619e-06
-3.14097e-06
-2.8529e-06
-4.71341e-06
-4.91551e-06
-2.37753e-06
-2.41462e-06
-3.44647e-06
-6.74477e-06
3.40359e-07
2.06615e-06
-6.02232e-07
-4.5333e-06
-5.66655e-06
-2.27441e-06
1.92311e-06
2.09144e-06
1.3763e-06
1.56285e-06
2.46105e-06
4.47057e-06
6.14452e-06
5.05957e-07
-4.09211e-07
-2.03292e-06
3.62127e-06
3.19549e-06
3.72458e-06
4.55544e-06
-5.85654e-07
-5.9061e-06
-6.39195e-06
-3.26617e-06
-1.5714e-06
5.48103e-06
1.66253e-06
7.58986e-07
-3.92994e-06
9.51713e-08
-1.9377e-06
-1.72185e-06
-2.26667e-06
-3.18837e-06
-4.62138e-06
-4.72801e-06
-2.06604e-06
-1.56512e-06
-2.3613e-06
-5.63385e-06
-1.13694e-06
1.46309e-06
4.17509e-07
-3.10735e-06
-4.80002e-06
-2.56035e-06
1.13468e-06
1.97571e-06
1.56701e-06
1.20553e-06
2.09931e-06
3.28656e-06
5.45276e-06
1.20353e-06
-7.48124e-07
-1.94682e-06
2.0438e-06
3.26565e-06
3.02376e-06
3.27631e-06
-7.02369e-07
-4.23718e-06
-5.68505e-06
-3.2221e-06
-2.36428e-06
3.34574e-06
2.03254e-06
1.27883e-06
-2.60332e-06
-9.21659e-07
-1.67586e-06
-1.75439e-06
-1.689e-06
-2.9434e-06
-4.27274e-06
-4.37114e-06
-2.0431e-06
-1.08591e-06
-1.61156e-06
-4.53532e-06
-1.8965e-06
8.17829e-07
9.26329e-07
-1.85173e-06
-3.84198e-06
-2.67859e-06
5.54546e-07
1.7188e-06
1.53346e-06
9.85323e-07
1.57715e-06
2.54673e-06
4.47306e-06
1.6247e-06
-7.40015e-07
-1.65493e-06
1.0626e-06
2.91034e-06
2.6205e-06
2.35381e-06
-7.65256e-07
-3.09525e-06
-4.62082e-06
-3.14143e-06
-2.52535e-06
1.54416e-06
1.85016e-06
1.5595e-06
-1.33628e-06
-1.36147e-06
-1.56907e-06
-1.72971e-06
-1.3375e-06
-2.55939e-06
-3.83687e-06
-3.95769e-06
-2.08642e-06
-9.17893e-07
-1.12068e-06
-3.51754e-06
-2.12101e-06
2.22997e-07
9.11817e-07
-1.00096e-06
-2.9484e-06
-2.4845e-06
-3.1658e-08
1.3061e-06
1.31167e-06
8.57268e-07
1.18971e-06
2.02087e-06
3.47347e-06
1.73976e-06
-5.08435e-07
-1.35087e-06
4.11848e-07
2.23717e-06
2.21635e-06
1.68294e-06
-6.88936e-07
-2.3836e-06
-3.7239e-06
-2.96827e-06
-2.51627e-06
3.09371e-07
1.37015e-06
1.50113e-06
-5.30457e-07
-1.37503e-06
-1.50464e-06
-1.71381e-06
-1.21927e-06
-2.25957e-06
-3.41006e-06
-3.45481e-06
-2.12436e-06
-9.09326e-07
-8.58047e-07
-2.64415e-06
-2.08248e-06
-2.18358e-07
6.50498e-07
-5.24752e-07
-2.13926e-06
-2.15897e-06
-4.15415e-07
8.14347e-07
1.04924e-06
7.0318e-07
8.90672e-07
1.52966e-06
2.65442e-06
1.58067e-06
-2.08915e-07
-1.0775e-06
3.03743e-08
1.54309e-06
1.78162e-06
1.2049e-06
-5.75258e-07
-1.93826e-06
-3.02904e-06
-2.73873e-06
-2.359e-06
-4.35652e-07
7.8746e-07
1.2069e-06
-1.11854e-07
-1.16257e-06
-1.43765e-06
-1.68022e-06
-1.24491e-06
-2.03607e-06
-3.00876e-06
-2.97422e-06
-2.07098e-06
-9.7401e-07
-7.27731e-07
-2.03873e-06
-1.88791e-06
-5.37787e-07
3.37121e-07
-3.53684e-07
-1.47834e-06
-1.80943e-06
-6.10277e-07
3.39479e-07
7.32295e-07
5.41694e-07
6.31818e-07
1.15567e-06
1.96437e-06
1.29972e-06
-9.34062e-09
-7.96466e-07
-1.70202e-07
9.79353e-07
1.32634e-06
8.51479e-07
-5.1035e-07
-1.60667e-06
-2.51373e-06
-2.4489e-06
-2.14835e-06
-8.21341e-07
2.43178e-07
8.13205e-07
1.78142e-08
-9.59667e-07
-1.37145e-06
-1.63844e-06
-1.32537e-06
-1.86701e-06
-2.66115e-06
-2.57705e-06
-1.94372e-06
-1.07907e-06
-6.46528e-07
-1.64465e-06
-1.61785e-06
-6.89843e-07
5.37038e-08
-3.26198e-07
-1.01452e-06
-1.4807e-06
-6.99054e-07
-2.30864e-08
4.19254e-07
4.11219e-07
4.24076e-07
8.73634e-07
1.41881e-06
1.0025e-06
9.31834e-08
-5.63018e-07
-2.66226e-07
5.62877e-07
8.79413e-07
5.81071e-07
-4.43184e-07
-1.33073e-06
-2.1024e-06
-2.12689e-06
-1.933e-06
-1.01127e-06
-1.82476e-07
4.00063e-07
-4.14363e-08
-8.37394e-07
-1.26766e-06
-1.5553e-06
-1.34836e-06
-1.74972e-06
-2.34937e-06
-2.24925e-06
-1.76778e-06
-1.13268e-06
-6.00125e-07
-1.3628e-06
-1.3758e-06
-7.05081e-07
-1.5063e-07
-3.47488e-07
-7.61117e-07
-1.20376e-06
-7.33426e-07
-2.67403e-07
1.23742e-07
2.87758e-07
2.30255e-07
6.64831e-07
9.7957e-07
7.24171e-07
1.17531e-07
-3.84521e-07
-2.9823e-07
2.82684e-07
5.0855e-07
3.60128e-07
-4.12374e-07
-1.11279e-06
-1.78095e-06
-1.85775e-06
-1.72299e-06
-1.08125e-06
-4.66749e-07
2.61915e-08
-1.72272e-07
-8.25254e-07
-1.16094e-06
-1.4923e-06
-1.32443e-06
-1.67545e-06
-2.08298e-06
-1.95896e-06
-1.6191e-06
-1.16266e-06
-6.11366e-07
-1.14928e-06
-1.1805e-06
-6.45273e-07
-2.99999e-07
-3.61107e-07
-6.1466e-07
-9.6647e-07
-7.0578e-07
-4.1858e-07
-1.10509e-07
1.49869e-07
3.3132e-08
4.80643e-07
6.29957e-07
4.93201e-07
8.71265e-08
-2.91581e-07
-3.00868e-07
1.1716e-07
2.28195e-07
1.77094e-07
-3.66723e-07
-9.48766e-07
-1.47913e-06
-1.63084e-06
-1.49756e-06
-1.10399e-06
-6.32208e-07
-2.88485e-07
-3.11051e-07
-8.74962e-07
-1.09601e-06
-1.43605e-06
-1.29363e-06
-1.58261e-06
-1.85068e-06
-1.70218e-06
-1.51266e-06
-1.17187e-06
-6.43639e-07
-9.97937e-07
-1.00493e-06
-5.45008e-07
-3.95875e-07
-3.87546e-07
-5.60514e-07
-7.99127e-07
-6.62527e-07
-5.08981e-07
-2.93759e-07
1.73124e-08
-1.31724e-07
3.6266e-07
3.65243e-07
2.8378e-07
3.24954e-08
-2.65977e-07
-2.73278e-07
-2.26052e-08
4.53591e-08
3.67836e-09
-2.93773e-07
-8.52261e-07
-1.20132e-06
-1.44826e-06
-1.29554e-06
-1.10963e-06
-7.48081e-07
-5.11e-07
-4.81529e-07
-9.18947e-07
-1.08984e-06
-1.3607e-06
-1.27611e-06
-1.47466e-06
-1.68158e-06
-1.50453e-06
-1.38714e-06
-1.13152e-06
-6.32473e-07
-8.90039e-07
-8.5451e-07
-4.59629e-07
-4.46343e-07
-3.97624e-07
-5.51124e-07
-6.72461e-07
-6.3755e-07
-5.45845e-07
-4.24369e-07
-1.01227e-07
-2.67097e-07
2.44094e-07
2.05888e-07
9.10016e-08
8.55001e-09
-3.26055e-07
-2.3119e-07
-1.6998e-07
-7.44513e-08
-1.65897e-07
-2.57984e-07
-7.70224e-07
-1.0017e-06
-1.26108e-06
-1.15933e-06
-1.05053e-06
-8.5999e-07
-6.46071e-07
-6.47854e-07
-9.44906e-07
-1.11441e-06
-1.28433e-06
-1.26841e-06
-1.38651e-06
-1.55748e-06
-1.34866e-06
-1.24301e-06
-1.08266e-06
-6.31698e-07
-8.41558e-07
-7.74354e-07
-3.97556e-07
-4.92827e-07
-3.59044e-07
-5.68426e-07
-5.58945e-07
-6.13544e-07
-5.71239e-07
-4.65656e-07
-2.4574e-07
-3.39557e-07
6.35577e-08
1.13201e-07
-9.22875e-08
1.24131e-08
-4.05051e-07
-2.12646e-07
-2.82088e-07
-1.97458e-07
-2.5914e-07
-3.1131e-07
-6.56459e-07
-8.78224e-07
-1.06052e-06
-1.06715e-06
-9.87408e-07
-9.47475e-07
-7.27621e-07
-7.64613e-07
-9.71181e-07
-1.12615e-06
-1.23208e-06
-1.24504e-06
-1.3123e-06
-1.43451e-06
-1.20765e-06
-1.11438e-06
-9.84842e-07
-6.63828e-07
-8.00233e-07
-7.37772e-07
-3.60746e-07
-5.44812e-07
-3.26427e-07
-5.38056e-07
-4.8702e-07
-5.22105e-07
-6.38841e-07
-4.13301e-07
-3.88121e-07
-3.35706e-07
-1.08689e-07
-2.48842e-10
-2.20829e-07
-2.6792e-08
-4.13816e-07
-2.70264e-07
-3.26823e-07
-3.68365e-07
-3.00262e-07
-4.29974e-07
-5.86777e-07
-8.18313e-07
-9.19705e-07
-9.75349e-07
-9.47446e-07
-9.8349e-07
-8.00346e-07
-8.33958e-07
-1.01451e-06
-1.12593e-06
-1.20684e-06
-1.20396e-06
-1.25677e-06
-1.31003e-06
-1.07117e-06
-1.049e-06
-8.59463e-07
-6.94159e-07
-7.61278e-07
-6.55702e-07
-3.93807e-07
-5.31198e-07
-3.61402e-07
-4.78291e-07
-4.79078e-07
-4.37274e-07
-6.82701e-07
-3.83395e-07
-4.81955e-07
-3.55706e-07
-1.86086e-07
-1.83761e-07
-2.62704e-07
-1.34003e-07
-3.73105e-07
-3.23123e-07
-3.67485e-07
-4.89469e-07
-3.51087e-07
-5.04979e-07
-5.7698e-07
-7.87232e-07
-8.63463e-07
-8.8156e-07
-9.22516e-07
-9.70624e-07
-8.57515e-07
-8.88766e-07
-1.05258e-06
-1.09724e-06
-1.1572e-06
-1.15439e-06
-1.19924e-06
-1.22604e-06
-9.87809e-07
-9.78537e-07
-7.89186e-07
-6.73938e-07
-7.73389e-07
-5.41222e-07
-4.9983e-07
-5.00939e-07
-4.13067e-07
-4.57521e-07
-4.29622e-07
-4.30662e-07
-6.20162e-07
-4.08321e-07
-4.9754e-07
-3.85342e-07
-2.038e-07
-3.2627e-07
-2.92216e-07
-2.30624e-07
-3.90669e-07
-3.28312e-07
-4.37155e-07
-5.45766e-07
-4.21717e-07
-5.73283e-07
-5.70781e-07
-7.69454e-07
-8.48249e-07
-8.24718e-07
-9.12257e-07
-9.22857e-07
-8.82328e-07
-9.16609e-07
-1.06648e-06
-1.08923e-06
-1.08181e-06
-1.12149e-06
-1.11672e-06
-1.18113e-06
-9.68747e-07
-8.79462e-07
-7.6656e-07
-6.80907e-07
-7.69637e-07
-4.7137e-07
-5.7948e-07
-5.18951e-07
-4.14833e-07
-4.93357e-07
-3.36546e-07
-4.74904e-07
-5.11971e-07
-4.21189e-07
-5.13882e-07
-3.65837e-07
-2.67362e-07
-3.80526e-07
-3.25103e-07
-2.99177e-07
-4.37556e-07
-3.53854e-07
-4.93918e-07
-5.76364e-07
-4.68845e-07
-6.40761e-07
-5.74467e-07
-7.52765e-07
-8.45555e-07
-8.16854e-07
-9.40314e-07
-9.05522e-07
-8.86865e-07
-9.31338e-07
-1.0312e-06
-1.07816e-06
-1.01127e-06
-1.08155e-06
-1.06072e-06
-1.0737e-06
-9.33941e-07
-8.05865e-07
-7.0728e-07
-7.48577e-07
-7.08519e-07
-4.64543e-07
-6.19026e-07
-5.42016e-07
-4.56982e-07
-5.09717e-07
-3.20014e-07
-5.01798e-07
-4.33256e-07
-3.84719e-07
-5.12033e-07
-3.1558e-07
-3.43453e-07
-4.22245e-07
-3.28672e-07
-3.61098e-07
-4.453e-07
-3.955e-07
-5.40428e-07
-5.76391e-07
-5.34064e-07
-6.87936e-07
-6.21786e-07
-7.68356e-07
-8.03118e-07
-8.37121e-07
-9.32421e-07
-9.01067e-07
-8.93118e-07
-9.21117e-07
-1.02e-06
-1.02307e-06
-9.75944e-07
-1.02561e-06
-1.04366e-06
-9.70761e-07
-9.0512e-07
-7.99255e-07
-6.3333e-07
-8.0734e-07
-6.32081e-07
-4.8782e-07
-6.56117e-07
-5.08703e-07
-5.44188e-07
-4.52638e-07
-3.68396e-07
-5.03823e-07
-3.42243e-07
-3.78508e-07
-4.50742e-07
-2.98297e-07
-3.71888e-07
-4.43889e-07
-3.25954e-07
-3.78327e-07
-4.53867e-07
-4.17488e-07
-5.91199e-07
-5.59903e-07
-5.78914e-07
-7.05896e-07
-6.39877e-07
-8.32016e-07
-7.5719e-07
-8.68739e-07
-9.12052e-07
-8.64475e-07
-9.38634e-07
-8.7218e-07
-1.04238e-06
-9.42048e-07
-9.57515e-07
-1.02661e-06
-1.04003e-06
-1.00643e-06
-8.75596e-07
-7.92508e-07
-6.27385e-07
-8.55703e-07
-6.31335e-07
-5.61878e-07
-7.1182e-07
-4.80777e-07
-6.31315e-07
-4.01908e-07
-4.4404e-07
-5.22152e-07
-2.7035e-07
-4.05436e-07
-3.63785e-07
-3.13628e-07
-3.76078e-07
-4.15072e-07
-3.62563e-07
-3.5986e-07
-4.43016e-07
-4.33325e-07
-5.89225e-07
-5.92108e-07
-6.24363e-07
-7.18574e-07
-6.66178e-07
-8.49167e-07
-7.77513e-07
-8.72064e-07
-8.94356e-07
-8.35591e-07
-9.60675e-07
-8.5816e-07
-1.0535e-06
-9.00324e-07
-8.95614e-07
-9.87235e-07
-9.14589e-07
-9.54293e-07
-7.63085e-07
-3.07227e-07
-3.0611e-07
-7.35571e-07
-6.09118e-07
-6.51596e-07
-7.05915e-07
-5.07282e-07
-6.4805e-07
-3.76103e-07
-4.90969e-07
-4.86437e-07
-2.43693e-07
-3.47167e-07
-3.09439e-07
-2.9208e-07
-3.43753e-07
-3.58099e-07
-3.67099e-07
-3.64381e-07
-3.94067e-07
-4.55332e-07
-5.42005e-07
-6.38088e-07
-6.82533e-07
-6.78663e-07
-7.35667e-07
-7.74796e-07
-8.28821e-07
-8.60084e-07
-8.36669e-07
-8.53856e-07
-8.94617e-07
-8.86563e-07
-1.0331e-06
-9.07108e-07
-1.03935e-06
-1.18204e-06
-1.30282e-06
-1.42684e-06
2.92431e-06
-2.45819e-05
-7.23089e-06
-1.37053e-05
-7.78067e-06
-2.22092e-05
-2.74637e-05
-7.49795e-06
8.3475e-06
-5.03192e-06
-1.85559e-05
-2.83825e-05
-2.5696e-05
2.8013e-05
-3.65417e-06
-1.26765e-05
-1.34521e-05
-6.96538e-06
9.87468e-06
-8.176e-06
-1.82342e-05
-2.19166e-05
-1.71281e-05
1.98302e-05
1.53188e-05
-1.02451e-05
-5.30557e-05
-2.15397e-05
-1.89459e-05
4.88517e-06
-1.28053e-05
-2.81778e-05
-1.23108e-06
4.84711e-06
8.31899e-06
6.14631e-06
-3.57656e-05
-1.30796e-05
8.49773e-06
-1.55279e-05
2.69645e-06
-2.45545e-05
-7.75843e-06
-1.33664e-05
-7.95197e-06
-2.20316e-05
-2.75027e-05
-7.55324e-06
7.98173e-06
-5.2458e-06
-1.90105e-05
-2.85617e-05
-2.61061e-05
2.79144e-05
-3.68423e-06
-1.30967e-05
-1.33186e-05
-6.85834e-06
9.81887e-06
-8.30933e-06
-1.84957e-05
-2.20503e-05
-1.74319e-05
2.02778e-05
1.49008e-05
-1.01929e-05
-5.31503e-05
-2.16808e-05
-1.97396e-05
4.4737e-06
-1.32341e-05
-2.84956e-05
-1.67597e-06
4.73689e-06
7.51329e-06
6.01776e-06
-3.59965e-05
-1.35989e-05
7.96192e-06
-1.56169e-05
2.32729e-06
-2.50391e-05
-8.36522e-06
-1.29421e-05
-7.97529e-06
-2.22242e-05
-2.80909e-05
-7.86683e-06
7.82615e-06
-5.37451e-06
-1.99043e-05
-2.89607e-05
-2.66995e-05
2.78669e-05
-3.81174e-06
-1.37225e-05
-1.34665e-05
-6.99409e-06
9.3808e-06
-8.41076e-06
-1.85633e-05
-2.26871e-05
-1.84782e-05
2.05177e-05
1.45993e-05
-1.04518e-05
-5.31105e-05
-2.19738e-05
-1.98916e-05
4.25624e-06
-1.36284e-05
-2.90801e-05
-2.53702e-06
5.28705e-06
7.07444e-06
5.72718e-06
-3.62481e-05
-1.42598e-05
7.09285e-06
-1.57658e-05
9.33762e-07
-2.65179e-05
-9.26643e-06
-1.24985e-05
-8.01636e-06
-2.23071e-05
-2.86619e-05
-8.30416e-06
6.1661e-06
-6.33731e-06
-2.04322e-05
-2.89385e-05
-2.73112e-05
2.74292e-05
-3.75876e-06
-1.34665e-05
-1.73049e-05
-8.16691e-06
9.47309e-06
-8.66745e-06
-1.9111e-05
-2.22253e-05
-1.92983e-05
1.97558e-05
1.42295e-05
-1.09097e-05
-5.4802e-05
-2.28017e-05
-1.92697e-05
4.53428e-06
-1.4648e-05
-2.94593e-05
-2.94961e-06
4.14147e-06
6.79264e-06
4.91486e-06
-3.73202e-05
-1.50397e-05
7.78288e-06
-1.6094e-05
3.34753e-06
-2.804e-05
-1.08847e-05
-1.32429e-05
-9.39231e-06
-2.39119e-05
-2.91063e-05
-9.81792e-06
7.65827e-06
-5.22598e-06
-2.22461e-05
-2.81217e-05
-2.72255e-05
2.61648e-05
-4.83009e-06
-1.25697e-05
-1.58169e-05
-8.25144e-06
6.80449e-06
-9.28667e-06
-1.94026e-05
-2.50521e-05
-2.13886e-05
1.87153e-05
1.31108e-05
-1.30306e-05
-5.23591e-05
-2.40087e-05
-1.80787e-05
4.23014e-06
-1.33988e-05
-3.10914e-05
-5.14098e-06
5.07071e-06
6.97864e-06
3.99078e-06
-3.39212e-05
-1.58253e-05
6.52063e-06
-1.60776e-05
-2.73649e-06
-2.68521e-05
-1.06855e-05
-1.42117e-05
-9.28505e-06
-2.17164e-05
-2.90239e-05
-1.23186e-05
2.30914e-06
-6.96876e-06
-2.12652e-05
-2.86057e-05
-2.68193e-05
2.28343e-05
-4.43169e-06
-1.28622e-05
-1.97004e-05
-9.02417e-06
5.05904e-06
-8.65476e-06
-1.72845e-05
-2.46384e-05
-2.1126e-05
1.71372e-05
1.06967e-05
-1.51868e-05
-5.47929e-05
-2.41673e-05
-1.69459e-05
3.89233e-06
-1.6802e-05
-2.89673e-05
-4.85438e-06
2.99886e-06
5.28005e-06
3.23401e-06
-3.40879e-05
-1.70915e-05
5.24915e-06
-1.65965e-05
1.76375e-06
-2.95331e-05
-1.15806e-05
-1.57258e-05
-1.42053e-05
-2.38857e-05
-2.56549e-05
-1.28148e-05
2.94494e-06
-4.4594e-06
-2.07248e-05
-2.57754e-05
-2.66333e-05
1.9631e-05
-1.04974e-06
-1.05508e-05
-2.09016e-05
-9.21363e-06
2.50193e-06
-9.91665e-06
-1.73338e-05
-2.50731e-05
-2.271e-05
1.35385e-05
6.70905e-06
-1.64447e-05
-5.00481e-05
-2.48859e-05
-1.50262e-05
2.40398e-06
-1.3491e-05
-3.11157e-05
-7.36582e-06
2.82224e-06
7.75988e-06
-5.26179e-07
-2.6418e-05
-1.65674e-05
3.51534e-06
-1.59654e-05
-5.03894e-06
-2.65516e-05
-1.25396e-05
-1.57108e-05
-1.40808e-05
-2.14882e-05
-2.79881e-05
-1.71123e-05
5.69712e-07
-7.00479e-06
-1.73331e-05
-2.00826e-05
-2.49379e-05
1.43438e-05
-1.89524e-06
-8.80659e-06
-1.9251e-05
-8.71656e-06
-3.62642e-06
-7.83331e-06
-1.6579e-05
-2.32827e-05
-2.17562e-05
6.69731e-06
2.40148e-06
-1.42982e-05
-4.45286e-05
-2.3381e-05
-1.39392e-05
1.67608e-06
-1.4949e-05
-2.54695e-05
-7.77631e-06
2.52154e-06
5.48394e-06
5.50865e-06
-2.44451e-05
-2.03684e-05
1.04931e-06
-1.53853e-05
-7.15253e-07
-2.30938e-05
-1.16604e-05
-1.67138e-05
-1.56538e-05
-2.01883e-05
-1.90196e-05
-1.26504e-05
-3.21483e-06
-7.11261e-06
-1.44225e-05
-1.50334e-05
-2.15488e-05
9.49777e-06
2.14692e-06
-7.7618e-06
-1.56118e-05
-8.43166e-06
-1.35714e-06
-7.53921e-06
-1.41305e-05
-1.88985e-05
-1.94759e-05
1.93773e-06
-1.21547e-07
-1.18404e-05
-4.00838e-05
-2.22154e-05
-1.27031e-05
-1.60596e-06
-1.13832e-05
-2.27676e-05
-7.7728e-06
1.0219e-06
3.39647e-06
1.18416e-06
-1.71645e-05
-1.95487e-05
6.27214e-07
-1.52633e-05
-2.65235e-06
-1.66733e-05
-9.70385e-06
-1.2481e-05
-1.42542e-05
-1.64549e-05
-1.62033e-05
-1.23132e-05
-2.40972e-06
-4.48897e-06
-1.15672e-05
-1.07365e-05
-1.71757e-05
7.13797e-06
3.12942e-06
-4.18994e-06
-1.10201e-05
-5.65704e-06
-2.90463e-06
-5.44303e-06
-1.07882e-05
-1.48794e-05
-1.75534e-05
1.49443e-06
-5.81416e-08
-6.23166e-06
-2.92664e-05
-1.85242e-05
-1.15991e-05
-1.8123e-06
-7.41212e-06
-1.78537e-05
-6.98259e-06
2.08211e-06
3.45174e-06
2.77178e-06
-1.03686e-05
-1.72912e-05
-1.22221e-07
-1.32858e-05
-1.42224e-06
-1.10202e-05
-6.51517e-06
-1.01545e-05
-1.21049e-05
-1.22106e-05
-1.00162e-05
-7.08186e-06
-1.20139e-06
-3.173e-06
-8.18811e-06
-5.35376e-06
-1.15593e-05
5.05492e-06
3.93319e-06
-1.73419e-06
-6.88842e-06
-3.56102e-06
-4.70141e-07
-3.04202e-06
-7.74594e-06
-8.70352e-06
-1.18602e-05
1.56757e-06
9.12476e-07
-3.09581e-06
-2.10817e-05
-1.55941e-05
-8.99101e-06
-1.43617e-06
-3.79209e-06
-1.14564e-05
-4.53699e-06
1.57045e-06
3.60083e-06
2.87474e-06
-4.8552e-06
-1.36767e-05
-1.64461e-07
-1.11118e-05
-1.61263e-06
-6.17056e-06
-3.95243e-06
-6.44378e-06
-9.45677e-06
-8.3819e-06
-5.78105e-06
-3.42559e-06
-1.4662e-06
-1.54376e-06
-5.89449e-06
-2.11875e-06
-7.10842e-06
3.32636e-06
3.61467e-06
8.29823e-07
-3.28322e-06
-5.56482e-07
-4.01673e-07
-1.93562e-06
-5.6298e-06
-4.52201e-06
-7.82416e-06
2.07005e-06
1.87917e-06
-3.45472e-07
-1.36857e-05
-1.1746e-05
-6.70749e-06
-1.41885e-06
-8.9137e-07
-6.99619e-06
-2.65133e-06
1.99533e-06
4.72347e-06
2.75838e-06
-5.3752e-07
-9.76524e-06
-2.85129e-07
-8.06862e-06
-2.23186e-06
-3.51797e-06
-2.14808e-06
-3.96144e-06
-7.73499e-06
-6.19659e-06
-3.40679e-06
-8.43925e-07
-8.66214e-07
-8.21369e-07
-4.21233e-06
-5.35083e-07
-4.15716e-06
1.77008e-06
2.83366e-06
1.83012e-06
-1.06401e-06
4.60522e-07
-2.59874e-07
-1.22564e-06
-3.94084e-06
-1.97349e-06
-4.14107e-06
2.06527e-06
1.95186e-06
-2.76331e-07
-9.17579e-06
-9.76516e-06
-5.80216e-06
-2.15266e-06
6.29455e-08
-3.88604e-06
-9.63888e-07
1.30002e-06
4.11636e-06
2.09599e-06
1.0936e-06
-6.62368e-06
-1.17248e-06
-6.55157e-06
-3.07393e-06
-2.14638e-06
-1.15988e-06
-2.47583e-06
-6.57452e-06
-4.91107e-06
-2.3351e-06
4.84434e-07
-8.11748e-07
-9.5257e-07
-3.48883e-06
-3.68374e-07
-2.54669e-06
7.2112e-07
1.61903e-06
1.96306e-06
7.08905e-08
9.89409e-07
-3.13625e-07
-1.24897e-06
-3.07211e-06
-7.50016e-07
-1.81644e-06
1.52886e-06
1.45151e-06
-6.92935e-07
-6.25638e-06
-7.93091e-06
-5.21289e-06
-2.79994e-06
1.96817e-07
-2.16061e-06
-1.99694e-07
6.28883e-07
3.14167e-06
1.31879e-06
1.24008e-06
-4.2043e-06
-2.1366e-06
-5.38052e-06
-3.55579e-06
-1.64313e-06
-6.97901e-07
-1.59274e-06
-5.42243e-06
-4.12149e-06
-1.79196e-06
9.5201e-07
-5.3208e-07
-1.1187e-06
-2.89795e-06
-4.52798e-07
-1.53345e-06
1.05175e-07
7.85633e-07
1.58435e-06
7.73846e-07
1.1351e-06
-2.51468e-07
-1.28407e-06
-2.20885e-06
-2.52069e-07
-3.58564e-07
1.12956e-06
9.83901e-07
-1.03537e-06
-4.42724e-06
-6.37351e-06
-4.691e-06
-3.1181e-06
-1.85591e-07
-1.13417e-06
2.3978e-07
3.63177e-07
1.92881e-06
7.86566e-07
6.89292e-07
-2.66663e-06
-2.65295e-06
-4.72598e-06
-3.59179e-06
-1.53437e-06
-4.98927e-07
-9.76132e-07
-4.2517e-06
-3.40737e-06
-1.4406e-06
9.30719e-07
-2.41173e-07
-1.19216e-06
-2.44457e-06
-6.70043e-07
-9.93334e-07
-2.10527e-07
3.12243e-07
1.08697e-06
9.73537e-07
1.0887e-06
-1.35762e-07
-1.20507e-06
-1.72964e-06
-1.4331e-07
2.85357e-07
9.50655e-07
6.77135e-07
-1.09194e-06
-3.36861e-06
-5.038e-06
-4.15224e-06
-3.0504e-06
-6.44051e-07
-5.14169e-07
4.07282e-07
2.54613e-07
9.13619e-07
3.03096e-07
3.64003e-08
-1.82486e-06
-2.71647e-06
-4.10384e-06
-3.36602e-06
-1.63163e-06
-4.8893e-07
-6.61504e-07
-3.18862e-06
-2.80893e-06
-1.23166e-06
7.13109e-07
-4.15785e-08
-1.08055e-06
-2.02314e-06
-8.32392e-07
-7.56881e-07
-3.3915e-07
3.81534e-08
6.5771e-07
8.94031e-07
9.96314e-07
-1.65466e-08
-1.01079e-06
-1.37872e-06
-9.7456e-08
5.39638e-07
8.86386e-07
4.62101e-07
-1.01481e-06
-2.6973e-06
-3.94925e-06
-3.5771e-06
-2.80302e-06
-9.66509e-07
-3.0946e-07
3.79668e-07
1.64435e-07
2.42425e-07
-1.33129e-07
-4.98462e-07
-1.49936e-06
-2.51782e-06
-3.56989e-06
-3.03355e-06
-1.68624e-06
-6.3923e-07
-5.24345e-07
-2.36479e-06
-2.21049e-06
-1.05182e-06
4.62565e-07
1.54548e-08
-8.5343e-07
-1.67205e-06
-8.79924e-07
-7.30784e-07
-3.73129e-07
-1.13995e-07
3.50429e-07
7.04877e-07
8.86935e-07
6.20857e-08
-7.91511e-07
-1.09037e-06
-1.29306e-07
5.24476e-07
7.5458e-07
3.21276e-07
-9.04887e-07
-2.15929e-06
-3.11394e-06
-2.97928e-06
-2.48095e-06
-1.14093e-06
-3.86533e-07
2.59061e-07
5.31295e-08
-1.60452e-07
-5.0819e-07
-8.99078e-07
-1.4135e-06
-2.29578e-06
-3.09013e-06
-2.67057e-06
-1.65542e-06
-8.30505e-07
-4.61989e-07
-1.7714e-06
-1.68607e-06
-9.1024e-07
2.21749e-07
-2.43145e-08
-6.50073e-07
-1.36785e-06
-8.77399e-07
-7.29232e-07
-4.01766e-07
-1.79642e-07
8.97603e-08
4.97073e-07
6.87723e-07
1.03421e-07
-6.06871e-07
-8.25227e-07
-1.90939e-07
4.33812e-07
5.54464e-07
2.37287e-07
-7.72435e-07
-1.7129e-06
-2.48001e-06
-2.43513e-06
-2.15938e-06
-1.22281e-06
-5.45816e-07
7.1933e-08
-4.51413e-08
-4.02564e-07
-7.32167e-07
-1.16643e-06
-1.41915e-06
-2.12999e-06
-2.65833e-06
-2.34829e-06
-1.57337e-06
-9.9889e-07
-4.57865e-07
-1.37018e-06
-1.30049e-06
-7.69127e-07
1.10878e-09
-1.08588e-07
-5.54746e-07
-1.08823e-06
-8.29677e-07
-7.14592e-07
-4.79574e-07
-1.85489e-07
-9.32938e-08
3.65081e-07
4.64896e-07
1.19478e-07
-4.47133e-07
-5.94113e-07
-2.47147e-07
2.88847e-07
3.09923e-07
1.41206e-07
-6.3508e-07
-1.37432e-06
-1.97506e-06
-2.02308e-06
-1.85233e-06
-1.24806e-06
-6.79396e-07
-1.71743e-07
-1.57327e-07
-5.94611e-07
-8.32205e-07
-1.34777e-06
-1.44103e-06
-2.03315e-06
-2.31572e-06
-2.04147e-06
-1.46326e-06
-1.07074e-06
-5.11587e-07
-1.09893e-06
-1.06856e-06
-6.27911e-07
-2.18739e-07
-1.92317e-07
-5.09833e-07
-8.31941e-07
-7.65562e-07
-6.71991e-07
-5.4751e-07
-1.67023e-07
-2.4111e-07
2.55119e-07
2.49322e-07
6.38409e-08
-3.44468e-07
-4.21944e-07
-2.55107e-07
1.20405e-07
7.94713e-08
-9.79719e-09
-5.21168e-07
-1.15288e-06
-1.55768e-06
-1.72841e-06
-1.5488e-06
-1.24191e-06
-7.61837e-07
-4.16011e-07
-2.81017e-07
-7.57417e-07
-9.04147e-07
-1.42311e-06
-1.43682e-06
-1.92141e-06
-2.05377e-06
-1.7475e-06
-1.37413e-06
-1.06925e-06
-5.80531e-07
-9.31842e-07
-9.61877e-07
-5.075e-07
-3.83325e-07
-2.33149e-07
-4.96686e-07
-6.46735e-07
-7.22177e-07
-6.41588e-07
-6.13703e-07
-1.93256e-07
-3.47843e-07
1.60333e-07
1.04274e-07
-3.097e-08
-2.36731e-07
-3.46172e-07
-2.1503e-07
-4.52575e-08
-5.962e-08
-1.84251e-07
-4.45641e-07
-1.04234e-06
-1.23592e-06
-1.50867e-06
-1.30584e-06
-1.22641e-06
-8.38894e-07
-6.13293e-07
-4.37644e-07
-8.70352e-07
-9.57378e-07
-1.39676e-06
-1.41515e-06
-1.76086e-06
-1.85389e-06
-1.48486e-06
-1.29896e-06
-1.04559e-06
-6.40578e-07
-8.33189e-07
-8.86823e-07
-4.21487e-07
-5.01373e-07
-2.82632e-07
-5.26993e-07
-5.23052e-07
-6.49346e-07
-6.07516e-07
-6.07866e-07
-2.45556e-07
-3.86884e-07
4.94032e-08
2.87617e-08
-1.66647e-07
-1.51394e-07
-3.75887e-07
-1.54035e-07
-1.83156e-07
-1.47003e-07
-3.36886e-07
-4.42039e-07
-9.68117e-07
-1.04391e-06
-1.31613e-06
-1.15577e-06
-1.16818e-06
-9.36649e-07
-7.3068e-07
-6.00057e-07
-9.37811e-07
-1.01684e-06
-1.31452e-06
-1.36886e-06
-1.56654e-06
-1.6878e-06
-1.28836e-06
-1.22016e-06
-1.00689e-06
-6.61551e-07
-7.85696e-07
-8.27226e-07
-3.7486e-07
-5.78171e-07
-3.18483e-07
-5.57421e-07
-4.73974e-07
-5.62659e-07
-6.08885e-07
-5.27452e-07
-3.38992e-07
-3.68521e-07
-8.25152e-08
-6.45123e-09
-2.89873e-07
-1.11365e-07
-4.46477e-07
-1.42737e-07
-2.72603e-07
-2.33354e-07
-3.80808e-07
-4.91824e-07
-8.74005e-07
-9.63383e-07
-1.15792e-06
-1.06913e-06
-1.10062e-06
-1.01185e-06
-7.92588e-07
-7.46856e-07
-9.76693e-07
-1.07056e-06
-1.23042e-06
-1.32308e-06
-1.39289e-06
-1.54269e-06
-1.14406e-06
-1.1189e-06
-9.44312e-07
-6.74006e-07
-7.67189e-07
-7.6777e-07
-3.89937e-07
-6.07573e-07
-3.54915e-07
-5.32036e-07
-4.71932e-07
-4.67118e-07
-6.39921e-07
-4.15964e-07
-4.29273e-07
-3.3432e-07
-1.98242e-07
-8.59666e-08
-3.50073e-07
-1.51041e-07
-4.59141e-07
-2.08825e-07
-3.11849e-07
-3.5481e-07
-3.62823e-07
-5.48552e-07
-7.8597e-07
-9.39856e-07
-1.06524e-06
-1.01592e-06
-1.05235e-06
-1.04676e-06
-8.24489e-07
-8.61218e-07
-1.00243e-06
-1.11833e-06
-1.16135e-06
-1.25527e-06
-1.26416e-06
-1.3899e-06
-1.02942e-06
-1.03532e-06
-8.83348e-07
-6.9003e-07
-7.83976e-07
-6.65583e-07
-4.50768e-07
-5.73818e-07
-4.13089e-07
-4.96673e-07
-4.71367e-07
-4.19184e-07
-6.60559e-07
-3.71679e-07
-4.80194e-07
-3.26407e-07
-2.29471e-07
-2.14173e-07
-3.31026e-07
-2.29374e-07
-4.27831e-07
-2.82499e-07
-3.58659e-07
-4.47573e-07
-3.7631e-07
-5.71172e-07
-7.14083e-07
-9.09252e-07
-1.02425e-06
-9.87118e-07
-1.04109e-06
-1.06844e-06
-8.52957e-07
-9.36008e-07
-1.00754e-06
-1.1183e-06
-1.10648e-06
-1.16859e-06
-1.17516e-06
-1.25174e-06
-9.67127e-07
-9.43408e-07
-8.37629e-07
-6.54256e-07
-8.02349e-07
-5.43582e-07
-5.30404e-07