/*--------------------------------*- C++ -*----------------------------------*\
  =========                 |
  \\      /  F ield         | OpenFOAM: The Open Source CFD Toolbox
   \\    /   O peration     | Website:  https://openfoam.org
    \\  /    A nd           | Version:  10
     \\/     M anipulation  |
\*---------------------------------------------------------------------------*/
FoamFile
{
    format      ascii;
    class       volScalarField;
    location    "10";
    object      pPrime2Mean;
}
// * * * * * * * * * * * * * * * * * * * * * * * * * * * * * * * * * * * * * //

dimensions      [0 4 -4 0 0 0 0];

internalField   nonuniform List<scalar> 
25600
(
5.01034e-08
5.30362e-08
2.76013e-07
7.82266e-07
2.76111e-08
2.73722e-07
8.80773e-08
2.93745e-07
2.41058e-07
7.69232e-08
1.55919e-07
3.38809e-07
2.164e-08
7.4906e-08
1.51837e-07
2.07665e-07
1.23586e-07
7.19668e-08
4.09867e-07
2.62773e-08
1.77555e-07
2.36769e-07
1.05925e-07
3.15172e-07
4.41881e-08
8.41075e-08
7.16087e-08
1.06304e-07
1.75042e-07
1.5836e-07
1.38893e-07
4.77483e-08
5.94826e-08
3.40904e-07
3.45067e-08
4.46394e-08
2.07441e-07
1.59548e-07
2.74586e-07
1.56845e-07
5.03492e-08
5.07459e-08
2.67838e-07
7.77508e-07
2.96727e-08
2.68859e-07
8.9097e-08
2.8721e-07
2.4303e-07
7.56051e-08
1.58565e-07
3.37407e-07
2.13298e-08
7.98026e-08
1.55683e-07
2.11661e-07
1.31576e-07
6.83956e-08
4.11045e-07
2.70087e-08
1.83456e-07
2.37415e-07
1.04854e-07
3.20365e-07
4.40189e-08
8.24409e-08
7.13765e-08
1.03214e-07
1.81632e-07
1.59704e-07
1.3906e-07
4.74338e-08
5.82046e-08
3.44426e-07
3.4556e-08
4.445e-08
2.05958e-07
1.57628e-07
2.78139e-07
1.69192e-07
5.24968e-08
4.38364e-08
2.62752e-07
7.74788e-07
2.98285e-08
2.71539e-07
9.52327e-08
2.8693e-07
2.42931e-07
7.54275e-08
1.63354e-07
3.40424e-07
2.14674e-08
8.79016e-08
1.59012e-07
2.31979e-07
1.38659e-07
6.743e-08
4.18996e-07
2.65147e-08
1.93792e-07
2.38597e-07
1.01321e-07
3.40944e-07
4.50359e-08
8.31983e-08
7.01228e-08
1.0433e-07
1.86893e-07
1.7112e-07
1.39278e-07
4.93875e-08
5.74706e-08
3.52179e-07
3.40456e-08
4.46545e-08
1.93152e-07
1.62153e-07
2.81889e-07
1.7655e-07
5.58398e-08
3.87797e-08
2.61483e-07
8.1317e-07
2.79678e-08
2.70029e-07
9.8848e-08
2.83206e-07
2.44162e-07
8.15755e-08
1.75497e-07
3.21191e-07
2.31663e-08
8.59026e-08
1.50252e-07
2.58639e-07
1.5176e-07
6.56553e-08
4.25423e-07
2.96727e-08
2.03846e-07
2.47982e-07
9.48428e-08
3.68315e-07
4.78622e-08
8.69904e-08
7.28434e-08
1.09446e-07
1.94794e-07
1.88388e-07
1.50003e-07
5.15583e-08
5.8326e-08
3.32039e-07
3.51865e-08
4.84571e-08
1.80052e-07
1.6492e-07
2.85227e-07
1.69951e-07
6.11569e-08
2.94028e-08
2.56879e-07
8.27727e-07
2.32355e-08
2.3673e-07
1.0711e-07
2.73383e-07
2.25898e-07
1.00368e-07
1.76737e-07
2.75077e-07
2.54407e-08
1.01637e-07
1.25573e-07
2.91874e-07
1.54632e-07
6.04009e-08
3.73922e-07
2.41903e-08
2.23453e-07
2.23937e-07
8.85763e-08
3.80593e-07
5.25049e-08
8.88985e-08
8.09554e-08
1.04142e-07
2.31952e-07
1.87908e-07
1.67907e-07
5.73166e-08
5.6806e-08
3.08973e-07
3.5341e-08
4.98927e-08
1.85388e-07
1.65977e-07
3.09309e-07
1.63668e-07
6.99501e-08
2.7002e-08
2.55957e-07
7.67941e-07
2.1481e-08
2.11662e-07
1.19293e-07
2.59701e-07
2.30903e-07
1.10826e-07
1.95562e-07
2.18631e-07
2.82362e-08
1.07623e-07
1.00022e-07
2.96617e-07
1.87287e-07
6.43946e-08
3.24881e-07
3.53258e-08
2.19258e-07
1.82669e-07
7.73163e-08
3.84794e-07
4.89911e-08
8.91257e-08
9.70167e-08
9.37074e-08
2.4197e-07
1.7563e-07
1.48878e-07
5.57434e-08
5.37452e-08
2.6038e-07
3.17496e-08
4.89615e-08
1.99782e-07
1.56921e-07
2.77597e-07
1.64333e-07
6.1184e-08
2.38766e-08
2.74412e-07
5.97387e-07
2.02277e-08
1.77704e-07
1.08137e-07
2.2529e-07
2.95646e-07
9.20909e-08
2.0063e-07
1.4616e-07
2.36483e-08
1.18509e-07
6.56944e-08
2.42607e-07
2.28109e-07
7.5315e-08
2.30538e-07
2.37761e-08
1.62879e-07
1.41241e-07
6.78307e-08
3.06254e-07
4.46818e-08
7.88439e-08
1.16531e-07
8.04213e-08
2.10451e-07
1.69278e-07
1.27122e-07
4.86895e-08
5.78968e-08
1.94385e-07
2.57089e-08
4.76056e-08
1.17973e-07
1.28027e-07
2.21065e-07
1.53862e-07
5.07476e-08
2.09161e-08
2.70657e-07
5.25078e-07
1.64233e-08
1.4013e-07
8.45343e-08
1.88892e-07
3.11967e-07
6.55239e-08
2.09912e-07
1.17713e-07
2.06172e-08
1.28747e-07
4.63135e-08
1.87624e-07
2.33316e-07
7.57655e-08
1.57573e-07
1.70203e-08
1.16001e-07
1.37013e-07
5.17037e-08
2.19646e-07
3.45617e-08
6.32207e-08
1.05641e-07
6.50457e-08
1.50703e-07
1.48902e-07
1.14053e-07
3.68503e-08
5.08016e-08
1.2531e-07
2.42312e-08
4.78174e-08
7.03314e-08
1.09529e-07
2.03205e-07
1.017e-07
4.1525e-08
1.51409e-08
2.2891e-07
4.32667e-07
1.82012e-08
9.39668e-08
6.0087e-08
1.48566e-07
2.18781e-07
3.90028e-08
1.62315e-07
7.18484e-08
1.44643e-08
8.31172e-08
2.06172e-08
1.1047e-07
1.85098e-07
4.92615e-08
1.01916e-07
1.47881e-08
1.05776e-07
1.45319e-07
3.98243e-08
1.35216e-07
2.48319e-08
4.64062e-08
6.01275e-08
5.1919e-08
8.01892e-08
9.44781e-08
9.56994e-08
2.83173e-08
3.90147e-08
7.17608e-08
2.01881e-08
3.88564e-08
4.11525e-08
8.00916e-08
1.66573e-07
7.1008e-08
2.83808e-08
1.41531e-08
1.76395e-07
3.72151e-07
1.71997e-08
6.07268e-08
3.41666e-08
1.02369e-07
1.3654e-07
2.11034e-08
1.11096e-07
5.1902e-08
1.11794e-08
5.15581e-08
1.22005e-08
7.12366e-08
1.26694e-07
2.83865e-08
7.9519e-08
1.04749e-08
9.27495e-08
1.47007e-07
3.11779e-08
8.28004e-08
1.71848e-08
3.18853e-08
3.00205e-08
3.8861e-08
5.36566e-08
5.39724e-08
6.9757e-08
2.04684e-08
2.55489e-08
3.81489e-08
1.37838e-08
2.39305e-08
2.63862e-08
5.7306e-08
1.20131e-07
5.53416e-08
1.78181e-08
8.41031e-09
1.30494e-07
2.81048e-07
1.5784e-08
3.54602e-08
1.60472e-08
7.01012e-08
8.07616e-08
1.10653e-08
6.49248e-08
2.73172e-08
6.4192e-09
2.33536e-08
6.87829e-09
4.74365e-08
8.56864e-08
1.55787e-08
5.05234e-08
7.4622e-09
7.57455e-08
1.20368e-07
2.62131e-08
4.64345e-08
1.08489e-08
2.07747e-08
1.76536e-08
2.45179e-08
3.95953e-08
3.04639e-08
4.72484e-08
1.41855e-08
1.54031e-08
2.32138e-08
9.2582e-09
1.49838e-08
1.62411e-08
4.10472e-08
9.03088e-08
3.97359e-08
1.05817e-08
5.65694e-09
9.42224e-08
1.91691e-07
1.35145e-08
1.93494e-08
7.79134e-09
4.77247e-08
5.04582e-08
6.03844e-09
3.7054e-08
1.57879e-08
3.82844e-09
1.16484e-08
3.93331e-09
2.96025e-08
4.92476e-08
8.42084e-09
2.93685e-08
5.29936e-09
5.78485e-08
8.84673e-08
2.27117e-08
2.6832e-08
6.16337e-09
1.2826e-08
1.07123e-08
1.48984e-08
2.33089e-08
1.61988e-08
2.87666e-08
9.17005e-09
8.61248e-09
1.43015e-08
5.85883e-09
8.58786e-09
7.75364e-09
2.89565e-08
6.68072e-08
2.59979e-08
5.32197e-09
4.01126e-09
6.74045e-08
1.27266e-07
1.11446e-08
1.003e-08
4.06989e-09
3.15283e-08
3.22207e-08
3.25298e-09
2.00364e-08
8.50282e-09
2.06659e-09
5.64228e-09
2.32865e-09
1.79243e-08
2.71639e-08
4.44951e-09
1.62505e-08
4.08036e-09
4.25051e-08
6.35018e-08
1.90796e-08
1.54545e-08
3.23715e-09
7.6682e-09
6.88481e-09
9.07093e-09
1.29714e-08
8.58971e-09
1.67844e-08
6.03875e-09
4.66474e-09
8.58376e-09
3.52788e-09
4.87081e-09
3.3858e-09
2.09775e-08
4.73751e-08
1.71454e-08
2.41988e-09
3.28006e-09
4.80936e-08
8.36969e-08
9.27249e-09
4.89605e-09
2.41268e-09
2.07359e-08
2.07649e-08
1.784e-09
1.05229e-08
4.48377e-09
1.14669e-09
2.68241e-09
1.47475e-09
1.08291e-08
1.48705e-08
2.39486e-09
8.29288e-09
3.35024e-09
3.118e-08
4.53272e-08
1.55216e-08
8.85051e-09
1.70119e-09
4.59134e-09
4.60669e-09
5.53168e-09
7.1387e-09
4.58097e-09
9.56338e-09
3.79258e-09
2.49466e-09
5.01564e-09
2.1642e-09
2.80675e-09
1.72291e-09
1.55167e-08
3.30584e-08
1.18558e-08
1.07505e-09
3.00046e-09
3.41418e-08
5.47166e-08
7.71029e-09
2.31174e-09
1.69223e-09
1.37216e-08
1.35114e-08
1.02874e-09
5.2926e-09
2.34279e-09
7.0747e-10
1.32051e-09
1.03246e-09
6.53699e-09
7.96761e-09
1.33066e-09
3.94584e-09
2.88694e-09
2.26665e-08
3.18897e-08
1.22224e-08
5.15532e-09
9.40342e-10
2.83758e-09
3.18094e-09
3.4626e-09
3.88601e-09
2.47526e-09
5.36783e-09
2.35105e-09
1.36594e-09
2.95671e-09
1.44301e-09
1.77406e-09
1.31956e-09
1.16717e-08
2.29615e-08
8.55762e-09
6.90689e-10
2.96832e-09
2.40939e-08
3.56309e-08
6.40675e-09
1.1602e-09
1.37951e-09
9.18925e-09
8.91962e-09
7.35762e-10
2.56315e-09
1.25645e-09
4.77686e-10
6.84113e-10
7.58757e-10
3.90187e-09
4.18511e-09
7.66812e-10
1.77094e-09
2.5049e-09
1.62275e-08
2.20984e-08
9.326e-09
3.10213e-09
5.72057e-10
1.85087e-09
2.21736e-09
2.24607e-09
2.12649e-09
1.34205e-09
2.96659e-09
1.42039e-09
8.03917e-10
1.80487e-09
1.09e-09
1.31147e-09
1.41649e-09
8.90396e-09
1.5944e-08
6.45187e-09
8.11211e-10
2.99331e-09
1.69258e-08
2.31873e-08
5.31014e-09
7.68352e-10
1.24027e-09
6.25336e-09
5.99257e-09
6.45547e-10
1.22124e-09
7.19934e-10
3.51565e-10
3.78581e-10
5.52949e-10
2.2732e-09
2.16045e-09
4.5967e-10
7.82245e-10
2.10918e-09
1.13562e-08
1.50539e-08
6.88534e-09
1.94742e-09
3.85931e-10
1.26086e-09
1.57109e-09
1.50169e-09
1.1925e-09
7.31759e-10
1.60835e-09
8.25321e-10
5.27842e-10
1.18816e-09
9.37418e-10
1.14797e-09
1.62245e-09
6.86938e-09
1.11357e-08
5.05191e-09
1.11149e-09
2.96554e-09
1.18686e-08
1.51281e-08
4.38331e-09
7.40008e-10
1.17398e-09
4.34006e-09
4.11597e-09
6.52829e-10
6.26679e-10
4.61115e-10
2.76201e-10
2.34451e-10
3.74694e-10
1.26978e-09
1.09407e-09
2.83866e-10
3.71188e-10
1.69439e-09
7.70657e-09
1.0018e-08
4.89945e-09
1.27092e-09
2.73802e-10
8.71436e-10
1.13739e-09
1.0289e-09
7.02359e-10
4.05841e-10
8.47818e-10
4.5667e-10
3.94429e-10
8.72631e-10
8.82823e-10
1.13339e-09
1.77349e-09
5.35177e-09
7.86907e-09
4.07342e-09
1.39839e-09
2.84843e-09
8.34007e-09
9.94263e-09
3.6047e-09
8.48539e-10
1.13191e-09
3.08528e-09
2.89983e-09
6.79222e-10
4.02636e-10
3.4068e-10
2.25346e-10
1.62832e-10
2.3044e-10
6.65458e-10
5.42282e-10
1.78883e-10
2.06973e-10
1.27027e-09
5.04507e-09
6.45494e-09
3.34664e-09
8.47959e-10
1.98465e-10
6.04006e-10
8.24184e-10
7.22151e-10
4.47249e-10
2.35267e-10
4.29104e-10
2.42347e-10
3.30036e-10
7.2007e-10
8.75472e-10
1.1731e-09
1.8375e-09
4.21308e-09
5.65966e-09
3.3525e-09
1.5769e-09
2.64378e-09
5.89769e-09
6.61358e-09
2.95176e-09
9.71288e-10
1.09202e-09
2.24896e-09
2.09916e-09
6.91152e-10
3.47015e-10
2.87117e-10
1.92384e-10
1.27683e-10
1.3029e-10
3.20151e-10
2.654e-10
1.17006e-10
1.35008e-10
8.94002e-10
3.16604e-09
3.99851e-09
2.18136e-09
5.65938e-10
1.46578e-10
4.19074e-10
6.0147e-10
5.22061e-10
3.13063e-10
1.51084e-10
2.11246e-10
1.34363e-10
3.06186e-10
6.56219e-10
8.88489e-10
1.21566e-09
1.8168e-09
3.35009e-09
4.16069e-09
2.79308e-09
1.62661e-09
2.36495e-09
4.21566e-09
4.47582e-09
2.40337e-09
1.05048e-09
1.04443e-09
1.68629e-09
1.56268e-09
6.78068e-10
3.50401e-10
2.66461e-10
1.74449e-10
1.11875e-10
7.48e-11
1.39466e-10
1.33793e-10
8.1259e-11
9.34959e-11
5.87518e-10
1.89011e-09
2.35993e-09
1.34453e-09
3.68695e-10
1.11349e-10
2.94165e-10
4.43721e-10
3.93132e-10
2.43797e-10
1.18705e-10
1.15661e-10
1.00636e-10
3.12051e-10
6.40064e-10
9.0627e-10
1.23667e-09
1.7396e-09
2.69345e-09
3.13597e-09
2.34583e-09
1.57776e-09
2.05112e-09
3.06066e-09
3.09877e-09
1.94707e-09
1.06827e-09
9.83241e-10
1.30565e-09
1.19374e-09
6.37221e-10
3.63062e-10
2.58655e-10
1.67677e-10
1.10357e-10
5.58653e-11
5.96522e-11
7.744e-11
6.38849e-11
6.61134e-11
3.57381e-10
1.06277e-09
1.31052e-09
7.72694e-10
2.31298e-10
8.87627e-11
2.17256e-10
3.35841e-10
3.11689e-10
2.11511e-10
1.1805e-10
9.54649e-11
1.1651e-10
3.39873e-10
6.46436e-10
9.18849e-10
1.22835e-09
1.61429e-09
2.1899e-09
2.42607e-09
1.98155e-09
1.45101e-09
1.73655e-09
2.26745e-09
2.20583e-09
1.57273e-09
1.03661e-09
9.05139e-10
1.04657e-09
9.37819e-10
5.79882e-10
3.67364e-10
2.54521e-10
1.66657e-10
1.15597e-10
6.09031e-11
3.6973e-11
5.97077e-11
5.83731e-11
4.69429e-11
2.00673e-10
5.55427e-10
6.71186e-10
4.04191e-10
1.39723e-10
7.6333e-11
1.74791e-10
2.6941e-10
2.62433e-10
2.00976e-10
1.39355e-10
1.22266e-10
1.64779e-10
3.82113e-10
6.65359e-10
9.20381e-10
1.19331e-09
1.47178e-09
1.80252e-09
1.92339e-09
1.68221e-09
1.29774e-09
1.44851e-09
1.72203e-09
1.62168e-09
1.27123e-09
9.57539e-10
8.13232e-10
8.63737e-10
7.61334e-10
5.17281e-10
3.5852e-10
2.5097e-10
1.67347e-10
1.22064e-10
7.69568e-11
4.25753e-11
6.04379e-11
6.02548e-11
3.66947e-11
1.05816e-10
2.67417e-10
3.0873e-10
1.85246e-10
8.51029e-11
7.31506e-11
1.5588e-10
2.34757e-10
2.36644e-10
2.0748e-10
1.75279e-10
1.76178e-10
2.32938e-10
4.31833e-10
6.86066e-10
9.08518e-10
1.13342e-09
1.32901e-09
1.50674e-09
1.56047e-09
1.4369e-09
1.14752e-09
1.2033e-09
1.34362e-09
1.23756e-09
1.03151e-09
8.57949e-10
7.17177e-10
7.2071e-10
6.37797e-10
4.57459e-10
3.39684e-10
2.46767e-10
1.69011e-10
1.27303e-10
9.4698e-11
5.90551e-11
6.765e-11
6.753e-11
3.42567e-11
5.63391e-11
1.22424e-10
1.24647e-10
7.19668e-11
6.07688e-11
7.99908e-11
1.52775e-10
2.23408e-10
2.3189e-10
2.26697e-10
2.20422e-10
2.42982e-10
3.10832e-10
4.82176e-10
7.031e-10
8.86391e-10
1.06045e-09
1.19534e-09
1.28373e-09
1.29568e-09
1.23577e-09
1.01575e-09
1.00782e-09
1.07572e-09
9.85756e-10
8.44581e-10
7.54183e-10
6.29105e-10
5.99022e-10
5.4655e-10
4.08483e-10
3.12145e-10
2.41354e-10
1.73009e-10
1.30819e-10
1.08433e-10
7.67821e-11
7.40959e-11
7.64199e-11
4.05353e-11
3.71962e-11
6.45738e-11
5.27177e-11
3.01431e-11
6.02027e-11
9.70464e-11
1.61089e-10
2.28547e-10
2.43388e-10
2.56356e-10
2.71673e-10
3.1219e-10
3.88155e-10
5.28699e-10
7.12869e-10
8.59054e-10
9.84432e-10
1.07591e-09
1.11862e-09
1.10366e-09
1.06939e-09
9.03729e-10
8.62885e-10
8.8017e-10
8.19256e-10
7.05019e-10
6.53303e-10
5.58099e-10
4.99045e-10
4.68541e-10
3.71117e-10
2.84784e-10
2.3075e-10
1.79652e-10
1.3497e-10
1.15764e-10
9.19953e-11
7.95351e-11
8.40264e-11
5.42419e-11
3.84435e-11
5.30615e-11
4.42462e-11
3.51159e-11
7.63146e-11
1.23262e-10
1.80272e-10
2.45287e-10
2.68217e-10
2.94532e-10
3.26823e-10
3.77646e-10
4.57674e-10
5.70562e-10
7.14419e-10
8.30473e-10
9.16489e-10
9.73452e-10
9.97821e-10
9.69387e-10
9.3288e-10
8.07919e-10
7.63001e-10
7.39344e-10
7.06323e-10
6.12067e-10
5.64328e-10
5.05036e-10
4.29842e-10
3.9802e-10
3.4031e-10
2.62956e-10
2.14456e-10
1.82704e-10
1.40624e-10
1.17306e-10
1.02872e-10
8.66022e-11
8.81243e-11
7.06576e-11
5.28781e-11
6.26614e-11
6.58491e-11
6.67953e-11
1.03897e-10
1.5559e-10
2.08778e-10
2.69627e-10
3.03521e-10
3.38236e-10
3.82157e-10
4.36952e-10
5.1378e-10
6.06685e-10
7.12629e-10
8.00883e-10
8.62052e-10
8.91876e-10
9.0924e-10
8.82407e-10
8.27079e-10
7.27563e-10
6.95644e-10
6.46766e-10
6.28375e-10
5.59161e-10
4.99004e-10
4.63117e-10
3.91965e-10
3.41912e-10
3.10089e-10
2.4846e-10
1.96298e-10
1.76977e-10
1.45935e-10
1.16121e-10
1.049e-10
9.62837e-11
9.20351e-11
8.30364e-11
7.51666e-11
8.04221e-11
9.63271e-11
1.11236e-10
1.40638e-10
1.92626e-10
2.45315e-10
3.02248e-10
3.44936e-10
3.85171e-10
4.36162e-10
4.89734e-10
5.56598e-10
6.35835e-10
7.13561e-10
7.75034e-10
8.22516e-10
8.35347e-10
8.47392e-10
8.32595e-10
7.5707e-10
6.6328e-10
6.52418e-10
6.01048e-10
5.8251e-10
5.36549e-10
4.66656e-10
4.32569e-10
3.73127e-10
3.08508e-10
2.7984e-10
2.35695e-10
1.8262e-10
1.63071e-10
1.45811e-10
1.15727e-10
9.92809e-11
1.02883e-10
9.73517e-11
8.89976e-11
9.64453e-11
1.0012e-10
1.23248e-10
1.55228e-10
1.8254e-10
2.34268e-10
2.88228e-10
3.42779e-10
3.9146e-10
4.32172e-10
4.86195e-10
5.37788e-10
5.88291e-10
6.5486e-10
7.16323e-10
7.56413e-10
7.96931e-10
8.06659e-10
8.19386e-10
8.27221e-10
7.24677e-10
5.46498e-10
6.12639e-10
5.94399e-10
5.75222e-10
5.38735e-10
4.70929e-10
4.22579e-10
3.64053e-10
2.94519e-10
2.5271e-10
2.12913e-10
1.65004e-10
1.36589e-10
1.2761e-10
1.06386e-10
8.41306e-11
9.71212e-11
9.65653e-11
8.91243e-11
1.10056e-10
1.17623e-10
1.43619e-10
1.88092e-10
2.23026e-10
2.77427e-10
3.32447e-10
3.90619e-10
4.43428e-10
4.78882e-10
5.30568e-10
5.79245e-10
6.12924e-10
6.63764e-10
7.14588e-10
7.41923e-10
7.77563e-10
8.00979e-10
8.38214e-10
9.42712e-10
7.23394e-10
5.3428e-10
6.36308e-10
6.2336e-10
6.04594e-10
5.64404e-10
5.01267e-10
4.33707e-10
3.61383e-10
2.91741e-10
2.29026e-10
1.81393e-10
1.41765e-10
1.03627e-10
9.59904e-11
8.54956e-11
6.42725e-11
8.09478e-11
8.43606e-11
8.20779e-11
1.10806e-10
1.27065e-10
1.56088e-10
2.0907e-10
2.59752e-10
3.22578e-10
3.81748e-10
4.46939e-10
5.05471e-10
5.31195e-10
5.72458e-10
6.15795e-10
6.32398e-10
6.70401e-10
7.11412e-10
7.33682e-10
7.70318e-10
8.04393e-10
8.87938e-10
1.57135e-09
7.6454e-10
2.00814e-07
4.38907e-08
2.48998e-07
1.17629e-06
2.21912e-07
8.31708e-08
3.39986e-08
1.27601e-07
2.51383e-07
3.44706e-08
6.2336e-08
5.27576e-08
2.9368e-08
7.07462e-08
3.43094e-08
9.81236e-08
5.05898e-08
5.73809e-08
3.87717e-07
1.88564e-08
2.11757e-07
1.36446e-07
9.01848e-08
7.58632e-07
8.49702e-08
9.78917e-08
8.5117e-08
6.48028e-08
2.99754e-07
5.27946e-08
6.64514e-08
4.43761e-08
5.45336e-08
1.85681e-07
4.0161e-08
1.44337e-07
8.68156e-08
7.21228e-08
7.80486e-07
5.89142e-08
2.04426e-07
4.61658e-08
2.46982e-07
1.16681e-06
2.2456e-07
8.63699e-08
3.39991e-08
1.29163e-07
2.53547e-07
3.31792e-08
6.20396e-08
5.11617e-08
2.89896e-08
6.9599e-08
3.54132e-08
9.90209e-08
5.10465e-08
5.58714e-08
3.7955e-07
1.93675e-08
2.1365e-07
1.31989e-07
8.92009e-08
7.69092e-07
8.56494e-08
9.16596e-08
8.53095e-08
6.26103e-08
3.06004e-07
5.15381e-08
6.56252e-08
4.40854e-08
5.36015e-08
1.87412e-07
3.96581e-08
1.40949e-07
8.83363e-08
7.06204e-08
7.83226e-07
5.8627e-08
2.12589e-07
5.14827e-08
2.46829e-07
1.16369e-06
2.27817e-07
9.18844e-08
3.40999e-08
1.30564e-07
2.52141e-07
3.10875e-08
6.19423e-08
5.04992e-08
2.90144e-08
6.8912e-08
3.86534e-08
1.00354e-07
5.30311e-08
5.47191e-08
3.86799e-07
1.97746e-08
2.09324e-07
1.253e-07
8.95688e-08
7.89142e-07
8.85981e-08
8.75242e-08
8.61359e-08
5.92251e-08
3.25565e-07
5.09292e-08
6.51499e-08
4.52007e-08
5.05897e-08
1.91913e-07
3.87671e-08
1.40068e-07
9.35303e-08
6.96207e-08
7.96168e-07
5.96083e-08
2.29997e-07
5.29295e-08
2.47145e-07
1.1646e-06
2.22366e-07
9.78406e-08
3.51487e-08
1.29502e-07
2.52509e-07
3.08759e-08
6.02563e-08
5.04821e-08
2.92785e-08
6.73962e-08
4.39399e-08
1.00557e-07
4.99685e-08
5.08397e-08
3.94313e-07
2.01375e-08
1.96156e-07
1.28412e-07
8.95455e-08
8.04217e-07
9.77246e-08
8.39311e-08
8.98422e-08
5.7834e-08
3.29397e-07
5.13029e-08
6.72118e-08
4.91847e-08
4.62574e-08
1.94157e-07
3.83468e-08
1.34636e-07
1.03218e-07
6.8483e-08
7.70239e-07
6.54421e-08
2.43196e-07
5.26247e-08
2.40901e-07
1.17023e-06
2.11706e-07
1.04552e-07
3.81936e-08
1.2828e-07
2.52274e-07
2.81272e-08
5.58323e-08
5.1114e-08
2.93996e-08
6.48468e-08
6.23964e-08
9.7441e-08
5.71978e-08
4.73169e-08
4.2627e-07
2.17284e-08
2.09634e-07
1.22717e-07
8.24177e-08
8.3514e-07
1.16182e-07
6.94802e-08
8.77998e-08
5.60795e-08
2.94998e-07
5.28015e-08
6.39904e-08
5.10416e-08
4.03376e-08
1.64726e-07
3.77401e-08
1.27068e-07
9.86199e-08
6.60362e-08
7.64081e-07
6.91676e-08
2.37682e-07
5.03604e-08
2.18653e-07
1.14647e-06
1.92538e-07
1.01755e-07
4.39406e-08
1.28873e-07
2.80088e-07
3.00898e-08
5.1917e-08
5.55753e-08
2.86024e-08
6.07614e-08
6.2925e-08
9.06555e-08
3.9615e-08
3.79335e-08
4.44695e-07
2.01999e-08
2.39909e-07
1.20358e-07
7.58652e-08
8.15895e-07
1.2988e-07
5.22543e-08
8.47101e-08
5.12802e-08
2.35979e-07
5.68238e-08
7.59987e-08
5.29433e-08
3.93114e-08
1.47351e-07
3.91175e-08
1.05173e-07
8.55114e-08
5.7281e-08
7.32652e-07
7.61249e-08
2.11217e-07
3.71085e-08
1.8929e-07
1.09691e-06
2.04498e-07
9.41482e-08
4.8181e-08
1.26716e-07
2.49837e-07
2.21562e-08
4.71894e-08
4.62092e-08
2.66511e-08
5.49552e-08
4.64318e-08
8.76896e-08
4.32878e-08
3.34185e-08
4.98883e-07
2.58436e-08
2.1418e-07
1.09898e-07
6.40357e-08
6.66377e-07
1.10342e-07
4.07582e-08
7.07931e-08
4.43351e-08
1.5761e-07
6.25841e-08
6.7653e-08
4.44092e-08
3.09952e-08
1.11734e-07
4.43732e-08
8.40489e-08
5.71776e-08
5.92783e-08
6.5245e-07
6.34634e-08
1.53881e-07
3.44061e-08
1.71759e-07
9.35008e-07
1.70528e-07
6.39802e-08
3.00711e-08
1.11534e-07
2.00119e-07
2.45596e-08
4.05304e-08
3.57269e-08
2.40399e-08
4.46354e-08
4.27738e-08
7.96801e-08
4.5719e-08
3.07305e-08
5.39852e-07
1.66768e-08
1.37897e-07
9.67622e-08
6.04602e-08
3.9178e-07
8.21279e-08
3.15326e-08
5.81494e-08
3.58731e-08
8.59671e-08
6.05276e-08
7.78573e-08
4.04196e-08
2.489e-08
7.56174e-08
4.5526e-08
7.36446e-08
4.49127e-08
6.01357e-08
4.86299e-07
5.3496e-08
1.15048e-07
2.93161e-08
1.56582e-07
7.53286e-07
1.2191e-07
4.88879e-08
2.85971e-08
9.01853e-08
1.82516e-07
2.34807e-08
3.45046e-08
3.26901e-08
2.00294e-08
3.34514e-08
2.5197e-08
5.41437e-08
3.31018e-08
2.67616e-08
4.08041e-07
1.33751e-08
9.08461e-08
7.3979e-08
5.94735e-08
2.08468e-07
6.46035e-08
2.36877e-08
5.1118e-08
2.85554e-08
5.47668e-08
4.4005e-08
6.49596e-08
3.10458e-08
1.85045e-08
5.39047e-08
3.42033e-08
5.69639e-08
3.45882e-08
5.75259e-08
3.07928e-07
3.9864e-08
8.4761e-08
2.04625e-08
1.36956e-07
5.18642e-07
8.37225e-08
3.24216e-08
1.87476e-08
6.5233e-08
1.32256e-07
1.5101e-08
2.66002e-08
2.29191e-08
1.51752e-08
2.34903e-08
1.44377e-08
3.84613e-08
2.14798e-08
2.50906e-08
2.63752e-07
9.57268e-09
6.72404e-08
5.20707e-08
5.40978e-08
1.34076e-07
4.48373e-08
1.83812e-08
3.93356e-08
2.5044e-08
4.23382e-08
2.92563e-08
4.27539e-08
2.01869e-08
1.3304e-08
3.48405e-08
2.24521e-08
3.44723e-08
2.49341e-08
4.97817e-08
2.00634e-07
2.88934e-08
5.18714e-08
1.27673e-08
1.16262e-07
3.59637e-07
4.94424e-08
2.08197e-08
1.04855e-08
4.73456e-08
8.38636e-08
1.06081e-08
2.02979e-08
1.4671e-08
1.0648e-08
1.50635e-08
8.88298e-09
2.70893e-08
1.31283e-08
2.03525e-08
1.44463e-07
7.65405e-09
5.61599e-08
4.63415e-08
4.59431e-08
7.61995e-08
2.44566e-08
1.25201e-08
2.62122e-08
2.16458e-08
3.22553e-08
1.81891e-08
2.66436e-08
1.3979e-08
9.70461e-09
2.32473e-08
1.45897e-08
2.22251e-08
1.6345e-08
4.03426e-08
1.44333e-07
2.28563e-08
2.79044e-08
7.42047e-09
9.45666e-08
2.42016e-07
3.00559e-08
1.25578e-08
6.25984e-09
3.43169e-08
5.5926e-08
6.23413e-09
1.31584e-08
8.87368e-09
6.8218e-09
9.10838e-09
5.14736e-09
1.8217e-08
7.9241e-09
1.48758e-08
7.73247e-08
6.16094e-09
4.80077e-08
4.47509e-08
3.66183e-08
4.46389e-08
1.21432e-08
7.60007e-09
1.64073e-08
1.74009e-08
2.41374e-08
1.09738e-08
1.54835e-08
8.57893e-09
6.45579e-09
1.40695e-08
8.8311e-09
1.2791e-08
9.85749e-09
3.23078e-08
9.81883e-08
1.65698e-08
1.40819e-08
4.44306e-09
7.30886e-08
1.62274e-07
1.96524e-08
7.07591e-09
3.81463e-09
2.46402e-08
3.67213e-08
3.66731e-09
7.73326e-09
5.0062e-09
4.17096e-09
5.18873e-09
2.87804e-09
1.20609e-08
4.54653e-09
9.99418e-09
3.94305e-08
5.1046e-09
4.02588e-08
4.03652e-08
2.8762e-08
2.62096e-08
5.82298e-09
4.89485e-09
1.06761e-08
1.32628e-08
1.78466e-08
6.80121e-09
9.06449e-09
5.03475e-09
4.20031e-09
8.40276e-09
5.17188e-09
7.02009e-09
5.83639e-09
2.54706e-08
6.6883e-08
1.19928e-08
6.30665e-09
3.14176e-09
5.47511e-08
1.07805e-07
1.36823e-08
3.6487e-09
2.43285e-09
1.74001e-08
2.38234e-08
2.25977e-09
4.35533e-09
2.73124e-09
2.507e-09
2.81244e-09
1.6586e-09
7.56213e-09
2.50359e-09
6.24752e-09
1.90177e-08
4.31956e-09
3.2345e-08
3.50729e-08
2.24198e-08
1.54855e-08
2.75029e-09
3.20054e-09
7.1485e-09
9.98547e-09
1.30904e-08
4.47098e-09
5.276e-09
2.95582e-09
2.56181e-09
5.09861e-09
3.16779e-09
3.82036e-09
3.63188e-09
1.96681e-08
4.49565e-08
8.80343e-09
2.43718e-09
2.78651e-09
4.00163e-08
7.07808e-08
1.01562e-08
1.76664e-09
1.7298e-09
1.22135e-08
1.55489e-08
1.58723e-09
2.40352e-09
1.4972e-09
1.51786e-09
1.50536e-09
1.00015e-09
4.45033e-09
1.352e-09
3.69529e-09
8.62255e-09
3.71992e-09
2.49837e-08
2.87174e-08
1.72076e-08
9.24179e-09
1.334e-09
2.20097e-09
5.02228e-09
7.40473e-09
9.21917e-09
2.9877e-09
3.06656e-09
1.73466e-09
1.57727e-09
3.1778e-09
2.08107e-09
2.27299e-09
2.6928e-09
1.50981e-08
3.00742e-08
6.70704e-09
8.93124e-10
2.83044e-09
2.87056e-08
4.6064e-08
7.95323e-09
9.23578e-10
1.41228e-09
8.58595e-09
1.02184e-08
1.27472e-09
1.35705e-09
9.09164e-10
9.72352e-10
8.08577e-10
5.91495e-10
2.45399e-09
7.18452e-10
2.08535e-09
3.66506e-09
3.14614e-09
1.86051e-08
2.22327e-08
1.2933e-08
5.60031e-09
6.9075e-10
1.59697e-09
3.68903e-09
5.44818e-09
6.33135e-09
2.09336e-09
1.83288e-09
1.03761e-09
1.00311e-09
2.0744e-09
1.55353e-09
1.62945e-09
2.41242e-09
1.15562e-08
2.01307e-08
5.31226e-09
5.77568e-10
2.97097e-09
2.03239e-08
2.98288e-08
6.44035e-09
7.11662e-10
1.29033e-09
6.09357e-09
6.82746e-09
1.14589e-09
8.49238e-10
6.49412e-10
6.7795e-10
4.55785e-10
3.35177e-10
1.26705e-09
3.92023e-10
1.1315e-09
1.4627e-09
2.58235e-09
1.33516e-08
1.6337e-08
9.46259e-09
3.45281e-09
3.99147e-10
1.20886e-09
2.76106e-09
3.95762e-09
4.24768e-09
1.48445e-09
1.10912e-09
6.49422e-10
7.11263e-10
1.47576e-09
1.33368e-09
1.4545e-09
2.41772e-09
8.86242e-09
1.35905e-08
4.35196e-09
7.93898e-10
3.0463e-09
1.42743e-08
1.92946e-08
5.28475e-09
8.09115e-10
1.25056e-09
4.38993e-09
4.66599e-09
1.08385e-09
6.42828e-10
5.51041e-10
5.25975e-10
2.83014e-10
1.78386e-10
6.04514e-10
2.30127e-10
6.05616e-10
5.66925e-10
2.04154e-09
9.24756e-09
1.14595e-08
6.71355e-09
2.17306e-09
2.55066e-10
9.3213e-10
2.07984e-09
2.85005e-09
2.81819e-09
1.07503e-09
7.12162e-10
4.43278e-10
5.79298e-10
1.16405e-09
1.25919e-09
1.46682e-09
2.47029e-09
6.82165e-09
9.32588e-09
3.65953e-09
1.13748e-09
2.99255e-09
9.99811e-09
1.25373e-08
4.337e-09
1.00885e-09
1.23826e-09
3.22272e-09
3.27848e-09
1.03609e-09
5.74089e-10
5.11245e-10
4.42009e-10
2.06697e-10
9.6361e-11
2.67279e-10
1.56992e-10
3.35766e-10
2.35498e-10
1.53914e-09
6.16871e-09
7.70464e-09
4.59561e-09
1.38616e-09
1.74072e-10
7.17658e-10
1.5546e-09
2.03539e-09
1.87451e-09
7.99024e-10
4.9088e-10
3.43131e-10
5.35826e-10
1.0158e-09
1.25068e-09
1.53954e-09
2.46628e-09
5.2872e-09
6.54839e-09
3.12871e-09
1.41406e-09
2.80813e-09
7.01759e-09
8.22353e-09
3.53558e-09
1.17935e-09
1.22234e-09
2.41918e-09
2.37165e-09
9.77617e-10
5.59108e-10
4.84197e-10
3.89255e-10
1.79237e-10
6.47584e-11
1.14243e-10
1.23815e-10
2.05491e-10
1.20957e-10
1.0999e-09
3.9487e-09
4.95499e-09
3.01749e-09
8.821e-10
1.22864e-10
5.4956e-10
1.15133e-09
1.44994e-09
1.27204e-09
6.20232e-10
3.78015e-10
3.07336e-10
5.3643e-10
9.53809e-10
1.25722e-09
1.59704e-09
2.37843e-09
4.13316e-09
4.72974e-09
2.69953e-09
1.55428e-09
2.52751e-09
4.96107e-09
5.46747e-09
2.85954e-09
1.26913e-09
1.18334e-09
1.86468e-09
1.76611e-09
9.0327e-10
5.51291e-10
4.54377e-10
3.46569e-10
1.73984e-10
6.50585e-11
5.85402e-11
1.09329e-10
1.47637e-10
8.41431e-11
7.42914e-10
2.41292e-09
3.03092e-09
1.88549e-09
5.50755e-10
8.99414e-11
4.13639e-10
8.47475e-10
1.03851e-09
8.96741e-10
5.09404e-10
3.3254e-10
3.11392e-10
5.58117e-10
9.32953e-10
1.25602e-09
1.60656e-09
2.21943e-09
3.26454e-09
3.5234e-09
2.33714e-09
1.56866e-09
2.19739e-09
3.55566e-09
3.70856e-09
2.29185e-09
1.27152e-09
1.11917e-09
1.47558e-09
1.35335e-09
8.13243e-10
5.33158e-10
4.19643e-10
3.08754e-10
1.75856e-10
8.12385e-11
4.95495e-11
1.02844e-10
1.2292e-10
6.92712e-11
4.71823e-10
1.39696e-09
1.74631e-09
1.10744e-09
3.31286e-10
6.98027e-11
3.14133e-10
6.27164e-10
7.57723e-10
6.6713e-10
4.44811e-10
3.28172e-10
3.40769e-10
5.86847e-10
9.26822e-10
1.23797e-09
1.56907e-09
2.01388e-09
2.60878e-09
2.70562e-09
2.02663e-09
1.49075e-09
1.86428e-09
2.59752e-09
2.5844e-09
1.82783e-09
1.20736e-09
1.03106e-09
1.19423e-09
1.06675e-09
7.14886e-10
5.01948e-10
3.82654e-10
2.74998e-10
1.76866e-10
1.02805e-10
6.02721e-11
9.97354e-11
1.11973e-10
6.05885e-11
2.8246e-10
7.59547e-10
9.32457e-10
5.99048e-10
1.8907e-10
5.98967e-11
2.48352e-10
4.76517e-10
5.72892e-10
5.30446e-10
4.12268e-10
3.48675e-10
3.85665e-10
6.16292e-10
9.21633e-10
1.20028e-09
1.48418e-09
1.79399e-09
2.11226e-09
2.13435e-09
1.7574e-09
1.36118e-09
1.5594e-09
1.94529e-09
1.86492e-09
1.45724e-09
1.09573e-09
9.24716e-10
9.81009e-10
8.66232e-10
6.18176e-10
4.61599e-10
3.49055e-10
2.47134e-10
1.74558e-10
1.21875e-10
7.64531e-11
9.81767e-11
1.05453e-10
5.4401e-11
1.60473e-10
3.87654e-10
4.50323e-10
2.89275e-10
1.04106e-10
5.9774e-11
2.10011e-10
3.81718e-10
4.56605e-10
4.53496e-10
4.016e-10
3.82766e-10
4.38131e-10
6.43028e-10
9.10139e-10
1.14661e-09
1.37364e-09
1.58219e-09
1.73765e-09
1.72299e-09
1.5244e-09
1.22033e-09
1.29824e-09
1.49828e-09
1.40189e-09
1.16563e-09
9.68143e-10
8.10417e-10
8.09999e-10
7.22813e-10
5.31363e-10
4.12913e-10
3.18726e-10
2.2678e-10
1.68592e-10
1.3413e-10
9.19442e-11
9.55924e-11
1.02558e-10
5.17775e-11
8.85817e-11
1.91525e-10
1.9217e-10
1.19566e-10
6.27512e-11
6.87922e-11
1.93101e-10
3.28167e-10
3.89618e-10
4.15171e-10
4.07156e-10
4.22384e-10
4.92521e-10
6.66251e-10
8.91259e-10
1.08314e-09
1.25277e-09
1.39062e-09
1.45709e-09
1.42083e-09
1.32264e-09
1.08852e-09
1.08721e-09
1.18515e-09
1.102e-09
9.40357e-10
8.39721e-10
7.0396e-10
6.6603e-10
6.11933e-10
4.61442e-10
3.63767e-10
2.92393e-10
2.14904e-10
1.61332e-10
1.38991e-10
1.04965e-10
9.17782e-11
1.00198e-10
5.45408e-11
5.23956e-11
1.01522e-10
7.83684e-11
4.42258e-11
5.36158e-11
8.73188e-11
1.91332e-10
3.04117e-10
3.58295e-10
4.01577e-10
4.24432e-10
4.6183e-10
5.42728e-10
6.84799e-10
8.66224e-10
1.01764e-09
1.13594e-09
1.22377e-09
1.2504e-09
1.2003e-09
1.14821e-09
9.7031e-10
9.2806e-10
9.58399e-10
9.0372e-10
7.74291e-10
7.17792e-10
6.1641e-10
5.48918e-10
5.16128e-10
4.09521e-10
3.19928e-10
2.66154e-10
2.10444e-10
1.56964e-10
1.36982e-10
1.14912e-10
8.92493e-11
9.61839e-11
6.27994e-11
4.04147e-11
6.83031e-11
4.8705e-11
3.01999e-11
6.67524e-11
1.15116e-10
2.02613e-10
3.01113e-10
3.51694e-10
4.05398e-10
4.50173e-10
4.98874e-10
5.83935e-10
6.99968e-10
8.37313e-10
9.55398e-10
1.03458e-09
1.08392e-09
1.09883e-09
1.04453e-09
9.98533e-10
8.64591e-10
8.15769e-10
7.95632e-10
7.67734e-10
6.63521e-10
6.11081e-10
5.48675e-10
4.66567e-10
4.31463e-10
3.68103e-10
2.8645e-10
2.38291e-10
2.06146e-10
1.57081e-10
1.29968e-10
1.19711e-10
9.21834e-11
9.067e-11
7.34267e-11
4.73927e-11
6.33972e-11
6.02481e-11
5.32539e-11
9.34593e-11
1.48929e-10
2.2473e-10
3.12071e-10
3.65037e-10
4.21648e-10
4.8021e-10
5.33319e-10
6.13617e-10
7.11157e-10
8.09706e-10
8.97798e-10
9.54717e-10
9.74854e-10
9.86731e-10
9.42165e-10
8.79124e-10
7.72998e-10
7.38458e-10
6.88284e-10
6.73107e-10
5.98946e-10
5.33561e-10
4.95182e-10
4.19817e-10
3.66718e-10
3.30886e-10
2.65106e-10
2.12289e-10
1.94427e-10
1.58956e-10
1.23013e-10
1.1509e-10
9.99125e-11
8.91533e-11
8.17674e-11
6.75844e-11
7.3245e-11
8.68041e-11
9.59575e-11
1.30271e-10
1.87513e-10
2.5585e-10
3.34289e-10
3.904e-10
4.46431e-10
5.1241e-10
5.66211e-10
6.3408e-10
7.18255e-10
7.90602e-10
8.49503e-10
8.94842e-10
8.99184e-10
9.07196e-10
8.81607e-10
7.97987e-10
6.98428e-10
6.86092e-10
6.32469e-10
6.15315e-10
5.67506e-10
4.94149e-10
4.56485e-10
3.9521e-10
3.2861e-10
2.96926e-10
2.49378e-10
1.9425e-10
1.7534e-10
1.56091e-10
1.20271e-10
1.04294e-10
1.05762e-10
9.32863e-11
8.63826e-11
9.11997e-11
9.14365e-11
1.1446e-10
1.43074e-10
1.73988e-10
2.31202e-10
2.94915e-10
3.66524e-10
4.24969e-10
4.75808e-10