/*--------------------------------*- C++ -*----------------------------------*\
  =========                 |
  \\      /  F ield         | OpenFOAM: The Open Source CFD Toolbox
   \\    /   O peration     | Website:  https://openfoam.org
    \\  /    A nd           | Version:  10
     \\/     M anipulation  |
\*---------------------------------------------------------------------------*/
FoamFile
{
    format      ascii;
    class       volVectorField;
    location    "10";
    object      U;
}
// * * * * * * * * * * * * * * * * * * * * * * * * * * * * * * * * * * * * * //

dimensions      [0 1 -1 0 0 0 0];

internalField   nonuniform List<vector> 
25600
(
(0.00503763 5.4991e-06 -0.000142673)
(0.00507547 1.10958e-05 1.0776e-06)
(0.00547062 -6.31066e-08 0.000242561)
(0.00511098 -1.0237e-05 0.000159317)
(0.00501258 -2.48346e-06 -0.00030338)
(0.00501029 6.18509e-06 -0.000193179)
(0.00515566 1.09705e-05 -0.000234781)
(0.00545494 -7.86852e-07 0.000204191)
(0.00524688 -1.04712e-05 4.34117e-05)
(0.00492298 -1.97563e-06 -0.000339176)
(0.00500482 4.44111e-06 -6.84882e-05)
(0.00501851 9.26538e-06 -5.6596e-05)
(0.00538639 -3.6009e-07 0.000128676)
(0.00509437 -9.25602e-06 -3.02943e-05)
(0.0049848 -1.14903e-06 -0.000493449)
(0.00505636 3.55774e-06 -9.12901e-05)
(0.00514151 7.95855e-06 -3.35736e-05)
(0.00544308 -1.15981e-06 0.000249528)
(0.00511241 -1.17287e-05 0.000212958)
(0.00484723 -7.30644e-07 -0.00021021)
(0.00498833 6.17047e-06 -8.59716e-05)
(0.00498489 1.16226e-05 8.90973e-06)
(0.00544029 9.63769e-07 0.000120092)
(0.00512229 -1.13215e-05 3.89837e-05)
(0.00487513 -2.06187e-06 -0.000220468)
(0.00501743 6.01737e-06 -3.7813e-05)
(0.00502477 1.08081e-05 -0.000193135)
(0.00537775 -5.79333e-07 9.51158e-05)
(0.00511245 -9.9334e-06 0.000123574)
(0.00490564 -4.62934e-07 -0.00016639)
(0.00494688 8.54987e-06 -0.000144624)
(0.00499018 1.33246e-05 -0.00023961)
(0.00528923 1.30401e-06 9.88692e-05)
(0.00513599 -1.08137e-05 -4.19211e-05)
(0.00489076 -2.63451e-06 -0.000402616)
(0.00503573 5.6231e-06 -0.000160699)
(0.00505376 9.25018e-06 -0.000110859)
(0.00536107 3.03764e-07 6.62316e-05)
(0.00514534 -1.02787e-05 4.75196e-05)
(0.00490678 -1.95397e-06 -0.000395623)
(0.0153161 8.47469e-05 -0.000571323)
(0.0155088 0.00010941 -0.000307987)
(0.0168493 -1.78767e-05 0.000604566)
(0.0156949 -8.77063e-05 0.000611689)
(0.0152649 -7.09519e-07 -0.000682795)
(0.0152462 9.01288e-05 -0.000732038)
(0.015793 0.000115533 -0.000966499)
(0.0168039 -1.97198e-05 0.00053005)
(0.0160878 -9.2834e-05 0.000299949)
(0.0150062 2.34243e-06 -0.000760979)
(0.0152493 7.41618e-05 -0.000354137)
(0.0153559 0.000108147 -0.000469372)
(0.0165809 -1.10346e-05 0.00029352)
(0.0156184 -7.6253e-05 8.82576e-05)
(0.0151837 8.43541e-06 -0.00117562)
(0.0153967 5.63537e-05 -0.000372149)
(0.0157326 8.80028e-05 -0.000393824)
(0.0167704 -2.41564e-05 0.000634779)
(0.0156791 -8.83472e-05 0.000792182)
(0.0147428 1.97257e-05 -0.000425334)
(0.015187 9.21e-05 -0.000445081)
(0.0152476 0.00011751 -0.000285246)
(0.0167543 -7.92702e-06 0.000264023)
(0.0157277 -9.61427e-05 0.000300731)
(0.0148235 7.29171e-06 -0.000425451)
(0.0152546 9.33795e-05 -0.00033176)
(0.0153942 0.000126326 -0.000887341)
(0.0165898 -1.46688e-05 0.000254501)
(0.0156769 -8.39757e-05 0.000584717)
(0.0148908 2.19718e-05 -0.000331598)
(0.0150255 0.000126098 -0.000674908)
(0.0152937 0.000144454 -0.00097399)
(0.0163303 -2.74673e-06 0.000233807)
(0.0157898 -9.35675e-05 6.29186e-05)
(0.014891 -5.32141e-07 -0.00093951)
(0.0153075 8.35537e-05 -0.00063724)
(0.0154614 0.000109093 -0.000624215)
(0.0165226 -8.00964e-06 0.000121741)
(0.0157953 -8.85705e-05 0.000337056)
(0.0149358 6.03014e-06 -0.000934204)
(0.0260949 0.0002483 -0.00111735)
(0.0265015 0.000299364 -0.00103975)
(0.0289944 -4.46427e-05 0.000679554)
(0.0270043 -0.000216 0.00123047)
(0.0260732 1.77037e-05 -0.000737371)
(0.0260027 0.000257253 -0.00134519)
(0.027038 0.000316983 -0.00207871)
(0.0289122 -4.43171e-05 0.000591579)
(0.0276481 -0.000231026 0.000760129)
(0.0256663 2.3093e-05 -0.000864782)
(0.0260409 0.000216228 -0.000738179)
(0.0262783 0.000303401 -0.00125658)
(0.0285135 -1.78178e-05 0.000232548)
(0.0268242 -0.000181805 0.000433882)
(0.0259296 4.34019e-05 -0.00150664)
(0.0262642 0.0001692 -0.000731866)
(0.0269159 0.00024424 -0.00114239)
(0.0288746 -6.23663e-05 0.000738227)
(0.0269651 -0.000212937 0.00154759)
(0.025159 7.47277e-05 -0.000335157)
(0.025909 0.000265704 -0.000936998)
(0.0260723 0.000322327 -0.000976873)
(0.0288123 -1.62061e-05 0.000175039)
(0.0270754 -0.000238339 0.000747407)
(0.0252951 4.29015e-05 -0.000333254)
(0.0260005 0.000268819 -0.000755917)
(0.0263705 0.000351583 -0.00197605)
(0.0285692 -2.70716e-05 0.000187286)
(0.0269407 -0.000203713 0.00126081)
(0.0253812 7.6637e-05 -0.000223012)
(0.0255992 0.000354788 -0.00135259)
(0.0262099 0.000394252 -0.00207245)
(0.0281325 -5.87315e-07 0.000135674)
(0.0271774 -0.000229863 0.000378682)
(0.0254389 1.99738e-05 -0.00114554)
(0.0260899 0.000240288 -0.00123175)
(0.0264672 0.000302771 -0.0015232)
(0.0284352 -1.14397e-05 -6.43945e-05)
(0.0271607 -0.000217553 0.000843487)
(0.0255022 3.88414e-05 -0.00114392)
(0.0372925 0.00048932 -0.0016041)
(0.0379448 0.000587408 -0.00225518)
(0.0418213 -4.6257e-05 0.000205389)
(0.0390212 -0.000360621 0.00192075)
(0.0373678 5.62892e-05 -0.000316466)
(0.0372104 0.000494196 -0.00180032)
(0.0387931 0.000614542 -0.00361619)
(0.0416957 -3.67249e-05 0.000112217)
(0.0398958 -0.000390867 0.00134592)
(0.0368498 6.53102e-05 -0.000528554)
(0.0373188 0.000421235 -0.00103056)
(0.0376992 0.000600648 -0.00244278)
(0.0411018 1.62492e-05 -0.000280956)
(0.0386713 -0.000290215 0.000944152)
(0.0371379 0.000112297 -0.00136667)
(0.037576 0.000341482 -0.00100696)
(0.0385852 0.000479559 -0.00231659)
(0.0416787 -8.30637e-05 0.00029619)
(0.0389686 -0.000352393 0.00237499)
(0.0360308 0.000167436 0.000218466)
(0.0370866 0.000515762 -0.00135864)
(0.0373572 0.000631328 -0.00210873)
(0.0415177 8.95902e-06 -0.000373596)
(0.0391606 -0.000401452 0.00127165)
(0.0362305 0.000109224 0.000176007)
(0.037183 0.000519024 -0.00107584)
(0.0378716 0.00068699 -0.00348814)
(0.041235 2.91461e-06 -0.000397712)
(0.0388858 -0.000334316 0.00204263)
(0.0363166 0.000161783 0.000330474)
(0.0366039 0.000672663 -0.00193822)
(0.0376655 0.000759146 -0.00358479)
(0.0406128 4.31801e-05 -0.00045344)
(0.0392681 -0.000386955 0.000821939)
(0.0364745 6.36018e-05 -0.000888671)
(0.0373126 0.000465016 -0.00175482)
(0.0379909 0.00059069 -0.00284595)
(0.041015 2.38955e-05 -0.000749309)
(0.039213 -0.000360936 0.00147418)
(0.0365343 0.000101188 -0.000875777)
(0.0488044 0.000780587 -0.00168363)
(0.0496751 0.000966066 -0.00385701)
(0.0551453 2.48186e-05 -0.00111746)
(0.0516821 -0.000463795 0.00240565)
(0.049035 0.000122526 0.00068366)
(0.0487694 0.000764322 -0.00170424)
(0.050904 0.000992937 -0.00544707)
(0.054978 5.47256e-05 -0.00121931)
(0.0527462 -0.000512087 0.00180634)
(0.0484549 0.000138147 0.000342664)
(0.048994 0.000658076 -0.000884912)
(0.0494829 0.000991121 -0.00390407)
(0.0541822 0.000142616 -0.00151839)
(0.0510782 -0.000343766 0.00138086)
(0.048673 0.000229325 -0.000655238)
(0.04922 0.000560474 -0.000870507)
(0.0505722 0.000791938 -0.00379647)
(0.0550007 -4.02378e-05 -0.00098682)
(0.0516509 -0.000455071 0.00299107)
(0.0472566 0.000303051 0.00136381)
(0.0486289 0.000807363 -0.00133887)
(0.048954 0.00103435 -0.00357706)
(0.0546795 0.000116592 -0.00165097)
(0.0519271 -0.000524256 0.00160596)
(0.0475395 0.000214981 0.00119345)
(0.0487025 0.000805613 -0.000896246)
(0.0497614 0.00111642 -0.00529111)
(0.0544174 0.000130331 -0.00183112)
(0.0514579 -0.000416081 0.00265239)
(0.0476036 0.000275255 0.00147619)
(0.0479408 0.00102614 -0.00203273)
(0.049535 0.00121348 -0.00540309)
(0.0536036 0.000177632 -0.00183009)
(0.0519827 -0.000503539 0.00113744)
(0.0478983 0.000138893 -6.12845e-05)
(0.0488775 0.000725815 -0.00185039)
(0.0498982 0.000959719 -0.00447445)
(0.0540912 0.000145728 -0.00223096)
(0.0518803 -0.000459385 0.00195808)
(0.0479174 0.000201027 -2.50696e-06)
(0.0605064 0.00107722 -0.000879063)
(0.0614913 0.00140819 -0.00545271)
(0.0686772 0.000214029 -0.00347819)
(0.0648763 -0.000447319 0.00220624)
(0.0609359 0.000245001 0.0021736)
(0.0605487 0.00101205 -0.000566971)
(0.0631687 0.00140932 -0.00712368)
(0.0684887 0.000274686 -0.0035965)
(0.0660711 -0.000512779 0.00169117)
(0.0603431 0.0002697 0.00168551)
(0.0609497 0.000877069 0.000145677)
(0.0614539 0.00144111 -0.00524114)
(0.0675095 0.000408705 -0.00365586)
(0.0639399 -0.000265796 0.00130035)
(0.0603653 0.000427667 0.000578044)
(0.0610634 0.00080559 0.000121141)
(0.0626607 0.00116592 -0.00517551)
(0.0685462 0.000110951 -0.00329089)
(0.0649313 -0.000451801 0.00291053)
(0.0587197 0.00050145 0.00305143)
(0.0604228 0.00108711 -0.000386251)
(0.0606861 0.00149491 -0.00499588)
(0.0680144 0.000353372 -0.00383288)
(0.0652629 -0.000523007 0.00130689)
(0.0591206 0.0003865 0.00263936)
(0.0604327 0.00107196 0.000280761)
(0.0618553 0.00159299 -0.00694823)
(0.0678582 0.000400146 -0.00432856)
(0.0645678 -0.000365712 0.00261067)
(0.0591408 0.000430811 0.00318847)
(0.0594664 0.00133638 -0.00112157)
(0.0616411 0.00169611 -0.0071222)
(0.0668557 0.000441527 -0.00418304)
(0.0652012 -0.00049669 0.000873569)
(0.0595848 0.000274366 0.00128201)
(0.0606592 0.000974259 -0.00104404)
(0.0620073 0.00137135 -0.00600051)
(0.067405 0.000398865 -0.00469737)
(0.0650539 -0.000432674 0.00181675)
(0.0595112 0.000364286 0.00143906)
(0.072241 0.00134066 0.00121749)
(0.0731497 0.00184683 -0.00626339)
(0.0820099 0.000533939 -0.0066955)
(0.078401 -0.000231039 0.000765867)
(0.0729362 0.000490836 0.00370727)
(0.0723818 0.00119361 0.0019659)
(0.0753099 0.00177333 -0.00780526)
(0.0818456 0.000627018 -0.00682913)
(0.0796688 -0.000308176 0.000458793)
(0.0723612 0.000525716 0.00312138)
(0.0730306 0.00103827 0.00240087)
(0.0733789 0.00187182 -0.00570644)
(0.080735 0.000822319 -0.00652295)
(0.0771025 3.2167e-05 0.000155853)
(0.0720396 0.000770985 0.00196311)
(0.0729434 0.00106106 0.00232366)
(0.0745802 0.00155527 -0.00567968)
(0.0818949 0.00039002 -0.00642648)
(0.078634 -0.000268948 0.00156284)
(0.0703212 0.000814694 0.00487556)
(0.0723191 0.00130403 0.00190625)
(0.0723416 0.00192858 -0.00560782)
(0.081134 0.000725791 -0.00675526)
(0.0789582 -0.000305916 -0.000131962)
(0.0708852 0.000687009 0.00409778)
(0.0722185 0.00126729 0.00283416)
(0.0738891 0.00201719 -0.00763162)
(0.0811918 0.0008072 -0.00771883)
(0.0780423 -9.3913e-05 0.00133699)
(0.070859 0.000684441 0.00508785)
(0.0709865 0.00152972 0.00123135)
(0.0737115 0.00208913 -0.00795245)
(0.0800169 0.000821808 -0.00733173)
(0.0787261 -0.00027594 -0.0005051)
(0.0714111 0.0005359 0.00275836)
(0.0724945 0.00116802 0.00105426)
(0.0740656 0.00174218 -0.0066454)
(0.0805914 0.000783859 -0.00796328)
(0.078548 -0.000194971 0.000474986)
(0.0711862 0.000648631 0.00307146)
(0.0838481 0.00156575 0.00455933)
(0.0843426 0.00216637 -0.00524365)
(0.0946174 0.000915743 -0.00995718)
(0.0918854 0.000228505 -0.00218785)
(0.0849171 0.000957393 0.00444062)
(0.0841276 0.00131275 0.00570504)
(0.0869303 0.00194598 -0.00641222)
(0.0945423 0.00102427 -0.0100851)
(0.0931946 0.000144322 -0.00218455)
(0.0843628 0.00100027 0.00389599)
(0.0850752 0.0011402 0.00574881)
(0.0849403 0.00215379 -0.00434669)
(0.0933882 0.00130428 -0.00935415)
(0.0902902 0.000581339 -0.00236296)
(0.0835603 0.00133506 0.00272898)
(0.084689 0.00133578 0.00561676)
(0.0859916 0.00187329 -0.00430465)
(0.0945088 0.000746346 -0.00958115)
(0.0923973 0.000144815 -0.0013565)
(0.081998 0.00132216 0.00599547)
(0.0841623 0.00144524 0.00547243)
(0.0836519 0.00219552 -0.00440892)
(0.0935436 0.00115191 -0.00965725)
(0.0926358 0.000161861 -0.0029507)
(0.0827606 0.00120867 0.00476251)
(0.0839326 0.00138316 0.00662035)
(0.0854697 0.00223296 -0.0062572)
(0.09393 0.00124491 -0.0111771)
(0.091534 0.000450036 -0.00151228)
(0.0827394 0.00113313 0.00635803)
(0.0823433 0.00158843 0.00499721)
(0.0853162 0.00221834 -0.00683447)
(0.0926026 0.00120422 -0.010469)
(0.092206 0.000176737 -0.00327173)
(0.0832754 0.00101605 0.00359186)
(0.0842255 0.00130811 0.00436936)
(0.0857131 0.00194167 -0.00539535)
(0.0931623 0.00120899 -0.0112124)
(0.0920169 0.000291325 -0.00238598)
(0.0828602 0.00113561 0.00409674)
(0.0952558 0.00180707 0.00825974)
(0.0947617 0.00223257 -0.00165737)
(0.105847 0.00119501 -0.0117988)
(0.104718 0.000840112 -0.00615175)
(0.096687 0.00168816 0.0034321)
(0.0957638 0.00145403 0.00956999)
(0.0975999 0.00179656 -0.00226829)
(0.105921 0.00127109 -0.0118893)
(0.106069 0.000752711 -0.00580403)
(0.0961541 0.00173441 0.00311915)
(0.0969778 0.00124825 0.00925064)
(0.0958204 0.00214721 -0.000587263)
(0.104846 0.00167154 -0.0107857)
(0.103011 0.00127889 -0.00584063)
(0.0948091 0.00212574 0.00194142)
(0.0961826 0.00167808 0.00903269)
(0.0965733 0.00201889 -0.000429618)
(0.105746 0.00103816 -0.011304)
(0.10559 0.000712394 -0.00539404)
(0.0936364 0.00205647 0.00537552)
(0.0958685 0.00157145 0.00939266)
(0.09436 0.00214441 -0.000725564)
(0.104636 0.00144337 -0.0111517)
(0.105678 0.000780649 -0.00666701)
(0.0945983 0.00198801 0.0037111)
(0.0955784 0.00149364 0.0105957)
(0.0961564 0.00208336 -0.00209526)
(0.105415 0.0014897 -0.0132045)
(0.104436 0.00115568 -0.00554866)
(0.094695 0.00183479 0.00597583)
(0.0935861 0.00160437 0.00927269)
(0.0959416 0.0019212 -0.00298597)
(0.103926 0.00136021 -0.0121435)
(0.105033 0.000739687 -0.00695528)
(0.0950283 0.00174864 0.00286699)
(0.0957856 0.00147518 0.00799505)
(0.0965607 0.00184218 -0.00158702)
(0.10447 0.00147789 -0.0129912)
(0.10486 0.000927645 -0.00633033)
(0.0944373 0.00185236 0.0035377)
(0.10644 0.00213372 0.0106402)
(0.10449 0.0020637 0.00389058)
(0.114971 0.00116719 -0.0106103)
(0.116012 0.00136675 -0.00964056)
(0.107851 0.0025475 0.000417082)
(0.107255 0.00173003 0.0117425)
(0.107354 0.00137817 0.00383733)
(0.11522 0.00113359 -0.0106644)
(0.117408 0.00127889 -0.0090118)
(0.107395 0.00259472 0.000456633)
(0.108587 0.00145395 0.0112627)
(0.106069 0.00186535 0.00483707)
(0.114383 0.00168732 -0.00937765)
(0.114473 0.00190884 -0.00891472)
(0.10559 0.00298114 -0.000753945)
(0.107295 0.00211331 0.0108386)
(0.106411 0.00199264 0.00516954)
(0.114929 0.00107755 -0.0100334)
(0.117286 0.00122533 -0.00911498)
(0.104927 0.00289584 0.00253135)
(0.107354 0.00176952 0.0119341)
(0.104577 0.00179421 0.00480172)
(0.11376 0.00136603 -0.00972188)
(0.117173 0.00131688 -0.00987073)
(0.106039 0.00288512 0.000649992)
(0.107174 0.00171138 0.0129156)
(0.10598 0.00159616 0.00415927)
(0.114822 0.00126632 -0.0121219)
(0.115847 0.00174473 -0.00939558)
(0.106358 0.00267262 0.00342264)
(0.104912 0.00174311 0.012289)
(0.105572 0.00125096 0.00306051)
(0.113119 0.0010263 -0.0107556)
(0.116256 0.00115874 -0.0101196)
(0.10633 0.0025815 0.000250137)
(0.10713 0.00177284 0.0102737)
(0.106621 0.0014834 0.00410959)
(0.113745 0.00135402 -0.0117142)
(0.116162 0.00147397 -0.00994143)
(0.105653 0.00265875 0.000969221)
(0.117104 0.00245348 0.0101337)
(0.114262 0.00185379 0.00904977)
(0.121816 0.000796007 -0.00603067)
(0.124722 0.00155121 -0.0107264)
(0.117832 0.00322155 -0.00341596)
(0.118126 0.00208318 0.0107198)
(0.116984 0.000967193 0.0093383)
(0.122225 0.000583158 -0.00613078)
(0.126137 0.0014518 -0.00997725)
(0.117599 0.00327578 -0.00308753)
(0.1194 0.00169987 0.0103361)
(0.116253 0.00151338 0.0096236)
(0.121765 0.00128093 -0.00491443)
(0.123644 0.00220334 -0.00979903)
(0.115573 0.00360828 -0.00428538)
(0.117655 0.00248867 0.00952057)
(0.116194 0.00189648 0.0100045)
(0.121934 0.000801916 -0.00550764)
(0.126372 0.00146587 -0.0106149)
(0.115346 0.00357232 -0.00158689)
(0.11822 0.00198014 0.0114241)
(0.114936 0.00137144 0.00985882)
(0.120849 0.000864579 -0.00507938)
(0.126022 0.0014972 -0.0107252)
(0.116516 0.00358198 -0.00329774)
(0.118315 0.00198978 0.0119462)
(0.115819 0.00106197 0.00996149)
(0.121817 0.000526657 -0.00743508)
(0.124674 0.00190175 -0.0111122)
(0.117039 0.00332776 -0.000481353)
(0.116079 0.00203332 0.0123115)
(0.115178 0.000585503 0.00893329)
(0.11996 0.000211769 -0.00595976)
(0.124725 0.00113578 -0.0108785)
(0.116615 0.00316992 -0.00322631)
(0.117883 0.00213326 0.00971786)
(0.116558 0.00112327 0.00934364)
(0.120778 0.000805904 -0.00700099)
(0.124821 0.00165414 -0.0113098)
(0.115995 0.0032502 -0.00265872)
(0.126526 0.00247406 0.00687484)
(0.124401 0.00172074 0.0111518)
(0.127805 0.00043104 -0.000320131)
(0.130489 0.00128993 -0.00856165)
(0.126105 0.00333031 -0.00580819)
(0.127428 0.00220424 0.0069445)
(0.126777 0.000798137 0.011478)
(0.12826 2.7601e-05 -0.000589008)
(0.131821 0.00114551 -0.00790169)
(0.126289 0.0034078 -0.00540761)
(0.128532 0.0017227 0.00674504)
(0.12642 0.00127209 0.0112682)
(0.128135 0.000791289 0.000435165)
(0.129995 0.00201513 -0.00770457)
(0.124286 0.00367759 -0.00645147)
(0.126652 0.00249011 0.00553072)
(0.126185 0.00175481 0.0114421)
(0.128067 0.000468885 -4.22364e-05)
(0.132259 0.00130701 -0.0089511)
(0.124303 0.00375263 -0.00478426)
(0.127647 0.00194794 0.0078932)
(0.125501 0.00107165 0.0118028)
(0.127318 0.000296737 0.000536068)
(0.131761 0.00120279 -0.00841789)
(0.125418 0.00368904 -0.00589755)
(0.128019 0.00204558 0.00796498)
(0.126091 0.000761923 0.0123975)
(0.127812 -0.00024422 -0.00132802)
(0.130477 0.00147281 -0.00956834)
(0.126019 0.00340074 -0.00368531)
(0.126078 0.00222362 0.00921864)
(0.125259 0.000309616 0.0117743)
(0.126124 -0.000518624 -6.21422e-05)
(0.130168 0.000592464 -0.00843157)
(0.125292 0.00311355 -0.00544731)
(0.127232 0.00224028 0.00653893)
(0.126541 0.000973114 0.0114821)
(0.127003 0.000264237 -0.00102019)
(0.130447 0.00134271 -0.00943068)
(0.124841 0.00327618 -0.00525575)
(0.133709 0.00192819 0.00300562)
(0.133392 0.00154134 0.00949494)
(0.134118 0.000465483 0.0032877)
(0.134473 0.000908988 -0.0047946)
(0.13252 0.00274393 -0.00531275)
(0.134206 0.00176488 0.00288302)
(0.13508 0.000750796 0.00969763)
(0.134344 -5.23618e-05 0.00277716)
(0.135408 0.000661738 -0.00435849)
(0.133158 0.00284173 -0.00505921)
(0.135038 0.00126694 0.00274976)
(0.134866 0.00107375 0.00923587)
(0.134391 0.000644916 0.00358971)
(0.13432 0.00160061 -0.0041591)
(0.131325 0.00306443 -0.00576247)
(0.133479 0.00185965 0.00144964)
(0.134836 0.00144315 0.00912527)
(0.134369 0.000423082 0.00316886)
(0.135745 0.000978099 -0.00552629)
(0.131375 0.00324351 -0.00532968)
(0.134595 0.00141401 0.00356646)
(0.134483 0.000828838 0.00988923)
(0.134138 0.000119995 0.00390636)
(0.13545 0.000756879 -0.00456879)
(0.132378 0.00303676 -0.00559852)
(0.13508 0.00156747 0.00340691)
(0.135022 0.000643373 0.0106317)
(0.134077 -0.00046626 0.00277696)
(0.134354 0.000812675 -0.00596135)
(0.132839 0.00272355 -0.00445966)
(0.133671 0.00196905 0.0049714)
(0.134117 0.000361914 0.0105638)
(0.132853 -0.000610655 0.00363105)
(0.134003 -2.77635e-05 -0.00446898)
(0.132036 0.00231183 -0.00499805)
(0.134215 0.00177466 0.00289627)
(0.134903 0.000914753 0.00981233)
(0.133539 0.000195423 0.00298667)
(0.13424 0.000869287 -0.00564466)
(0.131768 0.002622 -0.00526704)
(0.137663 0.00103912 0.000669422)
(0.138574 0.00112446 0.00580948)
(0.138992 0.000693944 0.00355173)
(0.137415 0.000753787 -0.00197852)
(0.136981 0.00192712 -0.00292043)
(0.137864 0.000956871 0.000686999)
(0.139394 0.000541232 0.0060215)
(0.138746 0.000167658 0.00291224)
(0.137613 0.000392628 -0.00175941)
(0.137756 0.00198855 -0.00290915)
(0.138309 0.000542231 0.000503429)
(0.139114 0.000730563 0.00546027)
(0.138778 0.000712072 0.00345827)
(0.137223 0.0013049 -0.00162542)
(0.136391 0.00219436 -0.0031476)
(0.13735 0.000882077 -0.000511398)
(0.139399 0.000851147 0.00519393)
(0.139015 0.000530643 0.00308271)
(0.137719 0.000801523 -0.00276797)
(0.136285 0.00238337 -0.00363275)
(0.138198 0.000571962 0.000876979)
(0.139172 0.000442846 0.00591886)
(0.139206 0.000202982 0.00383543)
(0.137904 0.000559754 -0.00177727)
(0.137153 0.00209553 -0.00327475)
(0.138594 0.00073525 0.000647397)
(0.139704 0.000438252 0.00657162)
(0.138826 -0.00028278 0.00338909)
(0.13713 0.000438072 -0.00279395)
(0.137121 0.00176234 -0.00306145)
(0.13788 0.00131986 0.00189748)
(0.13911 0.000353596 0.00693082)
(0.138182 -0.000292996 0.00385144)
(0.137023 -0.000242081 -0.00155997)
(0.13662 0.00132927 -0.00272534)
(0.137989 0.000942103 0.00084098)
(0.139183 0.000682313 0.00610421)
(0.138531 0.000384804 0.0036253)
(0.137074 0.000635762 -0.0024769)
(0.136513 0.00175479 -0.00325173)
(0.138865 0.000420398 1.48468e-05)
(0.139495 0.000615416 0.0025868)
(0.140218 0.000694733 0.0020458)
(0.138639 0.00067476 -0.000787016)
(0.138908 0.00135673 -0.000808695)
(0.139015 0.000380553 0.000189778)
(0.139778 0.000227658 0.00296058)
(0.139723 0.000232727 0.00153509)
(0.138314 0.000282328 -0.000654248)
(0.139429 0.00136805 -0.00099989)
(0.139132 8.33394e-05 -3.62612e-05)
(0.139448 0.000323324 0.00243085)
(0.139649 0.000625868 0.00181713)
(0.138338 0.00105002 -0.000670392)
(0.138763 0.00155008 -0.000839716)
(0.138759 0.000261602 -0.000639425)
(0.139756 0.000249205 0.00212985)
(0.139984 0.000466967 0.00152217)
(0.138303 0.000679654 -0.00136974)
(0.138543 0.00169981 -0.00160323)
(0.139163 1.83049e-05 0.000113062)
(0.139634 2.05319e-05 0.00253647)
(0.140257 0.000162135 0.00208085)
(0.138676 0.000496739 -0.000687203)
(0.139167 0.00145582 -0.00116207)
(0.139348 0.000168124 -0.000192376)
(0.14006 0.000145869 0.00301262)
(0.139997 -0.000171543 0.00206987)
(0.138285 0.000315066 -0.00115108)
(0.138694 0.00111838 -0.0013138)
(0.139112 0.000761292 0.000568939)
(0.139979 0.000175981 0.00353146)
(0.139841 -9.75708e-05 0.00223568)
(0.138372 -0.000198014 -0.000389883)
(0.138587 0.00075013 -0.000694352)
(0.139011 0.000363436 0.000328927)
(0.139558 0.00033698 0.00288147)
(0.139884 0.000401574 0.00233341)
(0.138355 0.00053215 -0.000916774)
(0.138624 0.00119799 -0.00118354)
(0.138981 0.000156611 -5.22693e-05)
(0.138848 0.000259474 0.000919852)
(0.139336 0.000491169 0.000888509)
(0.138566 0.000539434 -0.000336473)
(0.139022 0.00102497 0.00017027)
(0.139086 0.000123651 0.000170799)
(0.138959 6.3394e-06 0.00136861)
(0.13896 0.00012212 0.000567628)
(0.138205 0.000216726 -0.000229078)
(0.13928 0.00102647 -0.000121766)
(0.139085 -7.50015e-05 -4.35122e-05)
(0.138718 4.04959e-05 0.000936636)
(0.138848 0.000396873 0.00069358)
(0.138314 0.000785108 -0.000339771)
(0.139047 0.00116201 0.00020767)
(0.139047 6.51246e-05 -0.000376961)
(0.138914 -9.37925e-05 0.000667129)
(0.13907 0.000278088 0.000493369)
(0.138199 0.000506538 -0.000682504)
(0.138906 0.00127845 -0.000427568)
(0.139181 -0.000163539 4.27968e-05)
(0.13885 -0.000228853 0.000806886)
(0.139206 1.43087e-05 0.000842548)
(0.138385 0.000414886 -0.000317428)
(0.13924 0.00112041 -0.000173236)
(0.139202 -4.93109e-05 -0.000296371)
(0.139112 -5.86579e-05 0.0011424)
(0.139198 -0.000200921 0.000983544)
(0.138268 0.000243741 -0.000463779)
(0.138743 0.000805638 -0.000353797)
(0.139096 0.000443747 0.000135825)
(0.139301 1.04313e-05 0.00162357)
(0.139257 -0.000114392 0.000983115)
(0.138374 -0.000134433 -1.78333e-05)
(0.13877 0.000523365 0.0002239)
(0.138942 0.000128316 0.000257558)
(0.138803 8.72309e-05 0.00116662)
(0.139155 0.000263952 0.0012047)
(0.138388 0.000422068 -0.000302064)
(0.138893 0.000926576 -0.000125423)
(0.138923 2.29995e-05 -5.54989e-05)
(0.138392 7.47729e-05 0.000355535)
(0.13856 0.000276035 0.000453236)
(0.138299 0.000384014 -0.000109244)
(0.138734 0.000783993 0.00040283)
(0.138951 -1.06958e-05 0.000151297)
(0.138458 -0.000100426 0.000751697)
(0.138344 -6.71351e-06 0.000238752)
(0.138059 0.000177081 -3.51796e-05)
(0.13888 0.00079242 0.000104117)
(0.138938 -0.000139809 -1.71542e-05)
(0.138329 -9.58878e-05 0.000411316)
(0.13826 0.000185252 0.000302679)
(0.138146 0.000568126 -0.000151111)
(0.138778 0.000880806 0.000418565)
(0.139014 2.03807e-06 -0.000241087)
(0.138454 -0.000224875 0.000203073)
(0.138368 0.000113349 0.000175013)
(0.138077 0.000336205 -0.000322465)
(0.138741 0.000976791 -2.36043e-05)
(0.139066 -0.000212784 3.35465e-05)
(0.138396 -0.000297019 0.000228669)
(0.138396 -9.79092e-05 0.000411827)
(0.138083 0.000327499 -0.000126619)
(0.138901 0.000878748 9.95802e-05)
(0.139021 -0.000136018 -0.000252883)
(0.138537 -0.000137433 0.000469984)
(0.138508 -0.000245884 0.000531334)
(0.138084 0.000175929 -0.000183018)
(0.138552 0.000616006 -4.433e-05)
(0.138925 0.000257544 4.83292e-06)
(0.138767 -8.18215e-05 0.000839207)
(0.138604 -0.000186034 0.000481438)
(0.138155 -0.000100657 0.000122813)
(0.138571 0.000409291 0.000403581)
(0.138778 1.98223e-05 0.000201302)
(0.138359 -3.43455e-05 0.000516433)
(0.138475 0.00012707 0.000704117)
(0.138184 0.000313624 -4.89633e-05)
(0.138702 0.00074749 0.000174789)
(0.138822 -6.57331e-05 -5.97627e-05)
(0.138242 -9.72996e-06 0.000202941)
(0.138279 0.000128427 0.000301445)
(0.138187 0.000247855 -1.57193e-05)
(0.138538 0.000584425 0.000359292)
(0.138801 -9.73479e-05 0.000104184)
(0.138287 -0.000142017 0.000502902)
(0.138132 -8.19784e-05 0.000144929)
(0.138025 0.000144246 3.70951e-05)
(0.138657 0.000598929 0.000102078)
(0.13879 -0.000181778 -1.05311e-05)
(0.138219 -0.000149569 0.00023592)
(0.138088 4.88311e-05 0.000183002)
(0.138092 0.000404957 -5.75726e-05)
(0.138577 0.000647603 0.000344223)
(0.13888 -3.42305e-05 -0.00018695)
(0.138308 -0.000253843 8.88036e-05)
(0.138142 2.15334e-05 0.000100811)
(0.138055 0.000199768 -0.000159589)
(0.138576 0.000736364 4.62563e-05)
(0.138914 -0.000230609 9.41651e-06)
(0.13825 -0.000277191 8.42297e-05)
(0.138136 -0.000139598 0.000282407)
(0.137999 0.000244131 -4.18875e-05)
(0.138672 0.000673529 0.00011519)
(0.138862 -0.000179036 -0.000194432)
(0.138333 -0.00014478 0.000255656)
(0.138264 -0.000252035 0.000336447)
(0.138028 0.000117512 -8.8596e-05)
(0.138433 0.000473771 9.43439e-06)
(0.138782 0.000130487 -3.20691e-05)
(0.138536 -0.000116118 0.000519032)
(0.138339 -0.000220247 0.000291905)
(0.138069 -8.34304e-05 0.000146717)
(0.138444 0.000314971 0.000325817)
(0.138656 -5.159e-05 0.000142442)
(0.138213 -8.03782e-05 0.000287269)
(0.13823 4.3173e-05 0.000475469)
(0.138099 0.000219435 3.27594e-05)
(0.138545 0.000594481 0.000184341)
(0.138692 -0.000116573 -5.80529e-05)
(0.138183 -5.03265e-05 0.000141671)
(0.138199 4.80837e-05 0.00020437)
(0.138155 0.000139664 3.11911e-06)
(0.138413 0.000428763 0.000261187)
(0.13865 -0.000143721 5.97985e-05)
(0.138212 -0.000154604 0.000356516)
(0.138071 -0.000106371 9.35428e-05)
(0.138026 0.00011006 5.00069e-05)
(0.138523 0.000445706 5.74153e-05)
(0.138638 -0.00019861 -7.9647e-06)
(0.138172 -0.000159753 0.000149136)
(0.138058 -2.18169e-05 0.000115937)
(0.138083 0.00028129 -2.71477e-05)
(0.138446 0.00046587 0.000229428)
(0.138718 -5.72553e-05 -0.000150876)
(0.138236 -0.000245534 5.13888e-05)
(0.138089 -1.49275e-05 6.08788e-05)
(0.138061 9.97026e-05 -9.54748e-05)
(0.138448 0.000550562 2.98195e-05)
(0.138741 -0.000227699 -9.05076e-06)
(0.138181 -0.000233798 3.90956e-05)
(0.138083 -0.000133685 0.000204289)
(0.138003 0.000171282 -2.03157e-05)
(0.138526 0.000512435 7.50433e-05)
(0.138702 -0.000193966 -0.000143825)
(0.138239 -0.000126914 0.000158194)
(0.138193 -0.000224141 0.000211718)
(0.138029 7.03475e-05 -6.5084e-05)
(0.13835 0.000367026 4.95009e-06)
(0.138643 4.5688e-05 -4.16842e-05)
(0.138412 -0.000122597 0.0003427)
(0.138245 -0.000213374 0.000184198)
(0.138051 -7.11791e-05 0.000119792)
(0.138363 0.00024103 0.00021549)
(0.138542 -9.38238e-05 9.94123e-05)
(0.138149 -9.36554e-05 0.000177952)
(0.138162 5.79195e-06 0.000321454)
(0.13808 0.000140064 3.98594e-05)
(0.138431 0.000470621 0.000130717)
(0.138551 -0.000132973 -5.16245e-05)
(0.13813 -7.05341e-05 9.88862e-05)
(0.138147 1.48317e-05 0.000128797)
(0.138128 5.85997e-05 -1.86557e-06)
(0.138302 0.000309701 0.000177295)
(0.138499 -0.000155461 2.83895e-05)
(0.138147 -0.000152437 0.000249354)
(0.138031 -9.87434e-05 5.52565e-05)
(0.138018 7.77599e-05 4.34709e-05)
(0.138402 0.000325891 2.19477e-05)
(0.138485 -0.000191182 -5.69167e-06)
(0.138122 -0.00014825 9.11339e-05)
(0.138039 -4.89881e-05 6.68227e-05)
(0.138066 0.00018881 -2.05434e-05)
(0.138331 0.00032825 0.00014064)
(0.138553 -6.46167e-05 -0.000118592)
(0.138168 -0.000223573 2.89552e-05)
(0.138057 -1.84468e-05 2.96442e-05)
(0.138055 3.29625e-05 -6.79959e-05)
(0.13833 0.000408352 6.57046e-06)
(0.138567 -0.000205381 -1.74173e-05)
(0.138118 -0.000190562 1.39172e-05)
(0.138056 -0.000102957 0.000139571)
(0.138006 0.00011102 -1.93115e-05)
(0.138399 0.000388253 3.81671e-05)
(0.138544 -0.000186341 -0.000104988)
(0.138161 -0.000105689 9.37994e-05)
(0.138144 -0.000175591 0.00012445)
(0.138026 3.34861e-05 -5.7948e-05)
(0.138265 0.000284546 -2.23737e-06)
(0.138503 -3.10908e-06 -4.21192e-05)
(0.138306 -0.000117092 0.000224044)
(0.138178 -0.000179969 0.000112049)
(0.138035 -6.38067e-05 8.55266e-05)
(0.138282 0.00018376 0.000132329)
(0.138424 -0.000110508 7.05842e-05)
(0.138092 -9.26998e-05 0.000109744)
(0.138117 -1.92135e-06 0.00020767)
(0.138063 7.81199e-05 2.72348e-05)
(0.138322 0.000370664 8.21882e-05)
(0.138404 -0.000124244 -4.30231e-05)
(0.13807 -7.89324e-05 6.64853e-05)
(0.138084 6.38969e-06 7.58173e-05)
(0.138085 4.46976e-06 -8.32769e-06)
(0.138193 0.000218171 0.000117537)
(0.13835 -0.000142584 9.36309e-06)
(0.138078 -0.000142886 0.000170068)
(0.137983 -7.73871e-05 3.01425e-05)
(0.137992 5.0158e-05 3.37245e-05)
(0.13828 0.000233097 2.64942e-06)
(0.138337 -0.000166855 -2.80618e-06)
(0.13806 -0.000127003 5.1744e-05)
(0.138003 -5.19346e-05 3.48256e-05)
(0.138032 0.000120771 -1.88428e-05)
(0.138217 0.000225682 8.237e-05)
(0.138393 -5.96783e-05 -9.01505e-05)
(0.138093 -0.000194881 1.30675e-05)
(0.13801 -7.4081e-06 9.78428e-06)
(0.138027 -7.96729e-06 -5.22085e-05)
(0.138213 0.000297932 -7.65838e-06)
(0.138401 -0.000171187 -1.88575e-05)
(0.13805 -0.000151546 -2.13836e-06)
(0.138016 -6.61704e-05 9.0453e-05)
(0.137988 6.51868e-05 -2.02478e-05)
(0.138273 0.000291938 1.48021e-05)
(0.138391 -0.000162825 -7.5441e-05)
(0.138082 -8.62724e-05 5.05016e-05)
(0.138083 -0.000123072 6.80499e-05)
(0.138005 6.6754e-06 -5.08948e-05)
(0.138174 0.000219665 -4.59178e-06)
(0.138361 -2.54929e-05 -3.83071e-05)
(0.138201 -0.000106031 0.000141838)
(0.138105 -0.000138444 6.59945e-05)
(0.138004 -5.69077e-05 5.83075e-05)
(0.13819 0.000139346 7.89476e-05)
(0.138302 -0.000107437 5.12031e-05)
(0.138029 -8.56285e-05 6.5769e-05)