/*--------------------------------*- C++ -*----------------------------------*\
  =========                 |
  \\      /  F ield         | OpenFOAM: The Open Source CFD Toolbox
   \\    /   O peration     | Website:  https://openfoam.org
    \\  /    A nd           | Version:  10
     \\/     M anipulation  |
\*---------------------------------------------------------------------------*/
FoamFile
{
    format      ascii;
    class       volScalarField;
    location    "47.5";
    object      nut;
}
// * * * * * * * * * * * * * * * * * * * * * * * * * * * * * * * * * * * * * //

dimensions      [0 2 -1 0 0 0 0];

internalField   nonuniform List<scalar> 
25600
(
2.32441e-11
1.97887e-11
2.36772e-11
2.01938e-11
2.98632e-11
9.43989e-11
3.5144e-11
2.20652e-11
2.45213e-11
3.39429e-11
8.04654e-11
5.07762e-11
1.84629e-11
2.14927e-11
3.11582e-11
2.87091e-11
4.1734e-11
3.11306e-11
2.33099e-11
1.88539e-11
1.99894e-11
2.31822e-11
2.3258e-11
2.85781e-11
3.78621e-11
2.92974e-11
2.64384e-11
4.94676e-11
3.91222e-11
2.54804e-11
5.72596e-11
2.90632e-11
3.10305e-10
7.46841e-11
2.08989e-11
2.4201e-11
2.35832e-11
3.95192e-11
1.18007e-10
2.88664e-11
1.11867e-13
2.96075e-13
6.85219e-13
5.52443e-13
5.80706e-13
1.79703e-10
1.31324e-12
1.49107e-13
2.67987e-14
1.23186e-13
5.27561e-11
7.75645e-13
2.17349e-13
2.98252e-13
2.37584e-13
2.71435e-13
3.58638e-13
7.71055e-13
2.90236e-12
3.06128e-13
2.22519e-13
1.73307e-13
2.41472e-13
2.57388e-13
3.15307e-13
8.46414e-14
4.25995e-13
8.96873e-13
3.19673e-13
1.41749e-13
1.14457e-13
6.55402e-13
9.46917e-11
4.52448e-10
4.5122e-13
3.36753e-13
1.29717e-13
5.75535e-13
1.96953e-10
3.48316e-13
1.42053e-13
5.65844e-13
9.21192e-14
7.86686e-14
2.82152e-13
2.60788e-10
1.83292e-12
1.41004e-13
6.3095e-14
6.18118e-14
8.21997e-11
7.07221e-13
8.41182e-14
1.72459e-13
1.06069e-13
1.16809e-13
1.66415e-13
1.15645e-12
8.87327e-13
5.63734e-13
1.20933e-12
1.91081e-13
5.95689e-13
2.37265e-13
2.65262e-13
1.32872e-13
9.6684e-13
5.51606e-13
3.03646e-13
1.16409e-13
9.03223e-13
1.49421e-12
2.33741e-13
1.64124e-12
3.08044e-13
8.26831e-13
2.60518e-13
1.11303e-12
3.28588e-10
2.42845e-13
2.70606e-13
4.44353e-13
4.34811e-13
2.40555e-13
2.54453e-13
1.10338e-10
4.6326e-13
7.39437e-14
1.71746e-13
9.68281e-14
5.88019e-11
9.99608e-13
1.45122e-13
2.3608e-13
6.04407e-14
1.5121e-13
1.40678e-13
2.19531e-13
7.66172e-13
4.18539e-13
1.4426e-12
9.06596e-14
6.69857e-13
1.69415e-13
2.77556e-13
1.5792e-13
6.79559e-14
2.68096e-13
4.29611e-13
7.52428e-14
3.16065e-13
1.45451e-12
2.17141e-10
2.63753e-13
2.02921e-13
6.77974e-13
3.33913e-13
5.81487e-13
2.51517e-10
2.91086e-14
1.27186e-13
8.78619e-14
2.00152e-13
5.06732e-13
4.49723e-12
5.29401e-11
4.65447e-13
3.62868e-14
1.45638e-13
1.58176e-13
1.36426e-10
3.51449e-11
4.46402e-13
2.13201e-13
2.0838e-13
1.30854e-13
3.00829e-13
9.67164e-14
1.67776e-12
1.94859e-13
2.61529e-13
1.69814e-13
5.67834e-13
1.31617e-13
2.03142e-13
4.76906e-13
2.11371e-12
5.91136e-13
4.63773e-13
1.08481e-13
2.7013e-12
9.62294e-12
2.96493e-10
1.55509e-10
9.00364e-14
8.86368e-13
2.81373e-13
5.83828e-13
2.33726e-10
9.64491e-14
8.29082e-13
3.00931e-13
1.1381e-12
4.42528e-13
8.74389e-13
1.18966e-12
1.31581e-12
2.7939e-14
1.178e-13
4.85516e-13
2.54657e-10
4.50157e-10
1.9252e-13
1.66197e-13
1.8715e-13
3.01455e-14
3.15077e-13
1.42515e-13
1.81402e-12
3.4736e-13
5.11672e-14
1.95413e-13
1.99899e-13
1.67413e-13
6.44812e-14
3.05601e-13
1.0149e-11
1.14667e-11
4.06829e-13
7.31552e-14
3.47768e-13
3.80772e-13
2.84396e-13
1.41598e-12
1.57928e-14
3.32615e-13
3.58215e-14
7.26363e-13
3.21678e-10
1.18933e-13
5.28492e-13
4.78955e-13
1.16097e-12
3.66872e-13
7.52239e-14
3.16021e-10
1.61504e-10
2.8357e-14
1.66309e-13
4.47172e-13
1.41063e-10
1.61375e-10
4.99512e-13
4.74019e-14
6.44619e-14
2.07956e-13
6.13297e-14
3.99644e-14
1.56661e-10
1.18184e-11
3.0153e-14
2.11679e-13
2.25582e-13
1.15472e-13
9.65017e-13
2.90645e-12
3.56472e-13
2.3555e-13
1.57325e-10
9.1726e-14
2.82469e-13
1.4603e-13
1.73485e-13
3.82378e-12
1.47352e-14
1.6735e-13
2.28214e-13
1.6241e-13
3.15103e-10
1.6704e-13
2.27207e-13
4.91857e-13
3.30246e-13
3.73692e-13
3.90045e-13
3.28737e-10
8.7861e-11
4.00857e-14
1.62879e-13
3.37479e-13
5.88198e-11
1.36834e-12
3.13955e-13
1.64203e-13
3.61738e-14
2.18527e-13
8.74506e-14
3.4602e-13
2.05416e-13
1.22714e-12
1.76266e-13
1.45137e-13
2.42773e-13
7.16311e-14
4.89641e-12
4.67766e-12
2.79334e-14
4.04488e-13
2.80506e-14
1.31457e-13
6.6405e-11
1.03439e-12
3.58095e-13
6.57594e-13
5.8759e-14
6.02754e-14
1.88418e-12
2.18386e-13
2.31057e-10
6.69955e-13
2.53332e-13
1.01991e-12
1.03605e-12
1.13133e-13
9.77706e-13
1.52909e-10
1.47448e-10
2.0518e-14
7.72446e-14
1.14463e-12
4.44966e-10
1.08233e-12
6.70245e-14
3.70616e-14
3.36298e-14
5.96007e-14
3.07822e-11
6.48867e-13
1.40111e-13
7.41823e-13
7.76352e-14
3.77233e-14
6.52753e-14
5.68982e-14
2.98179e-13
6.22936e-12
1.11678e-13
4.42046e-13
6.22734e-14
4.99804e-14
1.09439e-10
1.75701e-10
2.35199e-13
2.62182e-13
7.75168e-14
1.34591e-13
1.14367e-12
2.56037e-11
4.72878e-10
4.03778e-13
5.49632e-13
8.08415e-14
1.35739e-12
1.24225e-13
3.30423e-13
1.84835e-10
2.47285e-10
4.12461e-14
2.37202e-13
2.66272e-13
2.82251e-10
5.89771e-10
5.77204e-14
1.74537e-13
6.34444e-14
6.33659e-14
5.14468e-13
1.52708e-12
6.12189e-11
2.03277e-12
1.79673e-13
5.01214e-14
3.35516e-13
1.72266e-14
1.23858e-13
2.93661e-11
1.82707e-12
1.80967e-13
6.63457e-13
2.49779e-14
1.21842e-10
1.60986e-11
2.58981e-12
4.17541e-13
1.00391e-13
1.52021e-13
3.50949e-14
1.56272e-13
4.86708e-10
5.56532e-13
7.99021e-13
2.06505e-14
1.00201e-12
5.46595e-12
1.59314e-13
2.18146e-13
2.7732e-10
1.67087e-14
3.96217e-11
2.14116e-14
9.63092e-13
4.23869e-10
5.35467e-14
3.3733e-13
2.82362e-14
5.1279e-14
2.41244e-14
5.25504e-13
1.83806e-10
8.90175e-11
3.95994e-13
1.72566e-14
4.07004e-13
3.19299e-14
9.82708e-13
4.44663e-13
2.2366e-13
2.4588e-13
2.87449e-13
3.39548e-14
3.28456e-10
3.25828e-13
3.65343e-13
3.79661e-13
7.24171e-14
2.37377e-13
1.13338e-13
7.75802e-14
5.34821e-10
1.39564e-12
5.84987e-13
7.24039e-14
1.0464e-12
1.94796e-10
1.79018e-13
4.95164e-10
4.53573e-10
5.21584e-14
5.87128e-13
1.39512e-10
2.37815e-13
1.29286e-13
8.1358e-14
2.59323e-10
4.69813e-14
6.2197e-14
1.33666e-13
3.24781e-13
1.88173e-12
3.12172e-10
1.50034e-11
2.1536e-14
2.24926e-13
3.92457e-14
6.06827e-13
9.61927e-11
1.42043e-13
2.06532e-13
7.01409e-13
2.07883e-14
1.66027e-10
1.22152e-11
1.85805e-10
3.9765e-13
1.08084e-13
2.04636e-13
1.31746e-10
1.53795e-13
4.08194e-13
7.83927e-13
3.39814e-14
4.26402e-13
1.32228e-12
6.90173e-10
2.69576e-13
1.03831e-13
6.69922e-10
7.94459e-14
1.76453e-13
1.46451e-13
6.67865e-10
8.1875e-10
5.57582e-13
2.56054e-13
7.05611e-14
9.63538e-14
1.11988e-12
3.31022e-10
5.59476e-10
2.06427e-11
2.15835e-13
3.05542e-14
1.11836e-12
1.63344e-13
1.0968e-10
2.45662e-10
4.47674e-14
1.32076e-13
4.57616e-13
7.8095e-14
6.63125e-11
1.79085e-13
2.59639e-13
5.18598e-13
3.87165e-12
4.27191e-10
1.80577e-11
2.11832e-10
1.07482e-10
2.77554e-10
2.56582e-13
2.14871e-10
1.49837e-13
7.63753e-10
2.94215e-10
1.36068e-13
6.78929e-10
1.04876e-10
7.11969e-13
5.9052e-14
5.15233e-10
1.89387e-13
4.73665e-13
9.77072e-11
1.14084e-11
8.82283e-11
1.93626e-10
3.08842e-10
3.54445e-11
9.05421e-11
1.44811e-10
6.97518e-14
3.03262e-13
1.71114e-13
7.15983e-11
4.53131e-13
2.4704e-14
7.07695e-14
1.73059e-10
6.94998e-13
1.50803e-13
5.25258e-14
1.8949e-10
1.62605e-13
3.14174e-10
3.4315e-10
5.60375e-13
8.2151e-14
5.21323e-10
1.44573e-10
2.67581e-13
1.06095e-13
5.28883e-13
3.8475e-10
1.06776e-13
6.93629e-13
1.28798e-09
1.60372e-13
8.16423e-13
1.78275e-10
4.29259e-13
4.7417e-13
7.32416e-11
4.84733e-12
1.39253e-13
1.02425e-13
5.53732e-13
3.27344e-10
1.49998e-10
1.11585e-13
2.71921e-13
3.1448e-13
2.27899e-13
2.9529e-12
7.45219e-11
1.12131e-10
5.60093e-11
3.87248e-13
1.3627e-13
5.22482e-10
4.85699e-10
9.22033e-14
2.17477e-13
4.42609e-14
1.04253e-10
1.33698e-12
2.19256e-10
1.49133e-14
1.63575e-10
8.80219e-11
1.95387e-10
3.41819e-10
5.52324e-13
1.58457e-13
1.58334e-13
5.73837e-11
4.19305e-12
2.8595e-13
7.03381e-11
1.71075e-13
4.14955e-10
2.90856e-10
3.14543e-14
1.33528e-10
4.01711e-11
5.56809e-11
9.03159e-11
1.40413e-13
1.15165e-13
6.18799e-13
3.75464e-10
1.15453e-13
6.46044e-11
2.21273e-10
6.06243e-13
4.10408e-12
5.11651e-13
4.47916e-13
1.59846e-13
3.50235e-13
6.50731e-13
1.6865e-13
1.12756e-13
9.10808e-11
4.84793e-13
5.04016e-10
2.54465e-10
8.29209e-12
6.36118e-11
2.42721e-10
5.35186e-13
1.56312e-13
8.86226e-13
1.17047e-09
5.3843e-10
1.28292e-13
4.18461e-10
2.42826e-13
2.79542e-13
3.07833e-13
7.30216e-13
8.99066e-10
1.21205e-12
6.20052e-12
4.93523e-13
6.48668e-13
7.96752e-13
2.20132e-10
2.8478e-10
5.86945e-13
1.09969e-13
4.80408e-13
2.62344e-13
1.77076e-13
3.08591e-10
1.21334e-09
4.02697e-12
1.86089e-10
2.9709e-13
2.71726e-13
1.36284e-10
9.07986e-10
4.73503e-10
2.13935e-13
5.25997e-13
2.01583e-13
1.60606e-10
8.33235e-14
3.64107e-13
1.31097e-09
1.88036e-11
5.10589e-13
5.1317e-12
3.47179e-14
2.02522e-13
6.01419e-10
8.98724e-10
1.579e-13
4.40368e-13
6.87638e-10
9.49547e-10
1.60757e-09
1.52319e-10
1.03238e-12
2.33556e-11
7.29979e-10
1.41782e-09
1.25167e-09
1.33082e-13
4.54047e-13
7.30322e-10
9.94343e-10
6.76487e-10
8.95023e-10
1.10991e-10
5.25929e-10
2.94421e-10
2.6838e-10
3.08469e-13
5.06007e-12
6.76667e-13
2.01774e-10
1.31443e-13
4.31672e-13
1.68931e-13
5.95563e-13
1.31977e-09
1.83948e-10
1.28847e-09
4.2779e-10
2.42781e-10
4.0654e-13
1.04459e-13
7.34808e-13
1.33853e-13
5.49627e-13
8.10111e-10
1.94887e-13
2.35871e-13
3.39705e-10
1.6689e-12
1.30375e-10
3.53711e-13
1.32053e-13
1.56929e-10
1.81752e-13
1.49718e-13
4.76656e-14
1.13792e-12
2.90006e-13
4.79309e-13
4.75013e-13
3.86045e-13
4.47789e-13
8.34088e-13
8.60692e-10
4.64774e-11
6.99049e-14
4.69803e-13
2.04817e-13
2.39229e-11
1.78905e-10
1.51799e-13
4.08301e-10
2.3957e-10
1.18453e-09
6.50605e-10
4.24873e-13
3.67858e-10
2.16465e-09
4.91212e-13
3.77255e-13
4.09269e-10
1.07397e-09
8.02935e-13
1.39985e-09
2.18577e-09
3.70464e-13
2.94494e-13
1.99291e-13
4.91049e-10
3.50129e-10
8.3782e-14
2.00194e-13
9.03449e-14
4.94889e-13
1.87206e-10
3.42436e-13
1.15508e-11
1.18718e-12
5.32681e-13
1.71775e-13
2.62148e-13
7.28494e-10
5.48338e-10
1.21451e-09
1.00389e-09
2.28823e-14
1.00512e-09
3.95008e-13
1.64291e-13
1.09355e-12
1.52961e-13
2.61809e-13
2.08345e-12
4.49964e-10
3.80568e-13
6.20841e-13
2.92471e-13
2.24786e-13
1.5499e-09
9.17385e-13
7.60561e-14
1.90394e-10
2.20711e-13
1.45976e-13
2.31162e-13
2.76849e-13
1.91821e-10
1.63375e-09
2.14262e-09
9.51663e-11
9.56062e-10
9.4918e-10
1.88868e-10
2.57859e-09
3.42822e-12
7.75576e-10
2.3005e-09
1.16136e-09
3.39207e-13
1.11103e-09
1.15965e-10
7.14177e-13
6.81344e-10
8.57383e-11
1.3794e-10
1.37933e-13
2.26271e-10
7.67422e-11
3.5589e-10
4.87476e-12
8.11545e-10
1.27346e-09
1.1378e-13
2.94406e-13
1.75491e-10
1.4983e-13
4.84637e-13
1.75038e-09
5.2668e-13
7.95836e-10
6.50993e-10
3.2226e-13
3.16915e-13
1.16123e-09
1.51683e-09
5.99912e-10
8.7959e-10
1.06631e-09
8.37347e-13
1.49172e-12
2.34713e-13
5.79168e-14
1.6316e-09
9.23893e-14
4.34389e-13
5.22412e-10
5.84308e-13
1.79896e-13
7.39537e-10
2.07048e-09
6.50033e-13
3.39583e-13
8.77486e-10
2.40386e-13
2.3985e-13
2.13425e-13
5.86512e-13
1.12949e-09
4.79283e-13
1.79914e-13
3.7197e-13
4.12503e-14
1.77182e-13
3.10299e-10
8.46182e-10
1.03305e-09
7.37764e-10
1.11861e-12
2.45735e-09
6.26169e-10
1.61564e-13
5.07783e-13
4.27755e-10
5.30812e-10
6.81771e-13
2.78134e-12
5.52288e-13
1.32505e-10
9.87749e-10
2.1529e-13
1.10244e-09
8.81477e-14
7.19448e-14
1.25952e-12
2.22414e-09
1.70372e-12
8.13316e-13
1.15538e-09
4.54773e-10
9.78693e-10
1.76385e-13
4.05146e-13
5.3136e-10
2.87091e-10
1.98181e-13
5.21156e-13
6.1945e-10
8.03991e-14
2.6843e-13
1.20869e-09
4.53198e-10
1.19292e-12
2.90666e-10
3.75749e-11
1.60369e-09
1.07838e-12
1.67596e-13
6.83207e-10
3.71322e-13
1.55296e-13
2.49334e-13
1.2811e-09
2.49292e-10
4.77234e-10
4.24494e-11
4.06341e-13
1.11019e-09
1.81046e-09
1.14187e-09
1.57805e-12
1.23335e-09
1.78521e-13
6.78231e-10
1.40384e-09
3.15989e-13
5.51639e-10
9.9668e-10
2.98186e-13
4.98641e-13
2.14722e-10
2.93606e-13
4.87773e-10
1.18023e-10
2.48472e-10
2.85901e-13
7.39707e-10
1.76976e-13
6.37238e-10
2.09924e-09
2.01212e-13
3.01223e-10
1.39092e-10
9.45972e-13
1.87589e-10
1.11893e-09
4.37664e-13
1.62203e-09
1.76659e-09
3.92804e-13
1.28118e-09
1.55625e-09
4.98921e-10
2.68666e-10
1.54978e-09
4.88297e-10
2.42678e-12
1.59047e-09
9.2562e-12
4.24043e-14
1.46603e-13
9.48222e-10
1.87067e-10
1.23981e-13
3.07946e-13
9.36339e-10
5.69644e-10
1.05598e-13
6.25253e-10
2.60747e-09
5.3393e-10
4.04806e-13
2.15909e-13
2.10221e-10
9.1579e-10
4.67898e-13
3.08354e-13
8.43214e-10
7.34651e-10
3.01849e-13
2.8139e-13
5.39109e-10
1.34536e-09
4.62015e-13
3.27521e-10
5.13215e-10
2.68645e-13
2.91309e-13
7.24794e-14
1.26264e-09
2.67667e-10
2.01061e-13
1.1113e-12
2.42204e-13
1.02955e-12
4.84244e-10
2.6167e-13
1.33783e-13
2.27707e-13
5.28472e-10
1.1913e-09
9.52813e-12
4.58289e-13
5.16761e-10
3.55274e-09
9.9264e-13
6.37682e-11
3.26916e-09
1.2507e-12
1.28724e-12
3.35938e-13
6.03058e-14
5.36066e-13
1.34839e-11
8.31214e-13
1.52663e-13
1.3726e-09
1.4748e-09
5.79382e-13
1.47233e-09
1.45864e-09
8.21682e-13
1.56039e-09
8.95799e-10
5.62215e-10
5.353e-13
1.04894e-09
2.46094e-09
5.80825e-13
2.76695e-10
1.09283e-13
5.79824e-10
1.7045e-09
1.06593e-09
2.32617e-09
5.90342e-13
2.84114e-13
2.99971e-09
5.8601e-10
5.36219e-13
6.19135e-10
2.25207e-13
4.80288e-13
1.3532e-09
7.11345e-14
2.78446e-13
2.18675e-09
8.35026e-13
1.525e-12
2.19365e-10
8.47124e-10
4.09518e-10
4.27856e-10
7.05325e-10
4.25215e-13
1.75972e-13
6.18154e-11
5.86721e-14
1.38162e-09
2.94303e-09
1.77935e-13
1.29244e-09
2.64037e-11
1.20261e-13
2.83685e-13
1.51913e-09
7.11545e-10
1.53025e-13
1.34782e-10
4.44517e-13
2.54291e-09
2.91752e-13
1.46329e-10
5.33603e-10
1.56565e-13
9.33555e-10
7.17755e-10
3.14873e-13
3.45565e-09
2.42976e-09
6.07173e-13
1.32388e-12
1.46757e-13
9.2645e-13
1.63676e-09
2.37234e-09
4.19902e-13
9.70746e-10
1.54102e-09
8.84221e-10
3.38381e-11
4.24431e-13
1.55375e-12
7.86937e-13
4.0104e-13
1.31802e-09
2.77331e-13
7.38134e-13
8.31662e-10
7.28538e-14
1.17577e-09
1.76685e-13
1.74312e-13
1.25596e-09
2.23674e-13
1.90635e-09
5.71775e-10
1.38141e-09
1.11888e-11
2.57047e-11
1.46379e-13
6.86028e-10
7.48415e-10
5.68723e-10
2.68561e-10
2.89221e-13
7.85559e-13
2.44511e-09
2.09807e-09
1.62534e-13
3.47839e-10
3.10966e-09
2.91878e-13
4.72866e-12
2.38184e-09
1.73852e-12
7.6184e-10
5.70475e-12
9.82705e-14
4.78672e-13
1.05972e-13
5.42514e-13
8.55683e-10
3.02456e-09
6.808e-13
2.57178e-12
2.23651e-09
5.99943e-11
1.5936e-13
3.76117e-09
8.42957e-10
4.78851e-13
1.63793e-09
2.45412e-11
9.90442e-13
2.52872e-13
1.44903e-09
1.40549e-12
1.07365e-13
1.59516e-13
1.60997e-09
1.38537e-09
3.22526e-13
3.42653e-10
1.58292e-10
3.84468e-10
7.4193e-14
1.23473e-10
7.83394e-13
2.69619e-09
2.24464e-09
2.59856e-14
1.58039e-12
3.40589e-09
7.00135e-13
3.26292e-13
4.59229e-13
7.84563e-13
4.62786e-09
1.55882e-09
1.5896e-12
6.60236e-10
4.97715e-10
1.1404e-12
5.36418e-11
1.67015e-12
3.20479e-13
2.48074e-09
5.96492e-09
4.79905e-10
1.39666e-13
1.19211e-09
1.39365e-13
2.62149e-13
7.11891e-10
1.64189e-09
4.9626e-12
8.12555e-13
1.45151e-09
5.69356e-10
1.11144e-12
1.11685e-12
1.56252e-09
6.36869e-13
3.46791e-11
5.54378e-14
1.55408e-12
3.04865e-09
1.99324e-09
2.43383e-13
3.57223e-13
3.00644e-09
4.68053e-10
1.20653e-09
2.10944e-13
7.00515e-13
5.16402e-10
2.31271e-12
2.6158e-09
3.78899e-13
3.75597e-14
1.22127e-12
9.79029e-10
1.79062e-09
2.96516e-10
1.91193e-10
8.26087e-10
1.09495e-09
2.6785e-13
1.08586e-13
3.06086e-09
1.45027e-11
1.67437e-12
1.32968e-09
2.11215e-13
6.40719e-10
2.25534e-09
7.33758e-10
5.81143e-13
1.923e-09
8.458e-10
2.59054e-09
6.57585e-14
6.81808e-13
1.56962e-12
1.56047e-12
1.55545e-09
3.69128e-13
4.07527e-13
4.23351e-09
5.2247e-09
9.64466e-13
3.66577e-13
2.01003e-12
6.13793e-09
4.33571e-09
8.34216e-13
5.0962e-11
3.51597e-13
5.0271e-13
7.18934e-09
4.5976e-09
3.19719e-12
5.13306e-13
1.05487e-13
3.0482e-09
4.03199e-09
1.7107e-13
2.79162e-12
9.27954e-09
4.20384e-09
2.99314e-13
3.82492e-09
4.84997e-09
9.4383e-14
8.24382e-09
3.15014e-09
4.97492e-13
3.85544e-09
5.25841e-10
6.58001e-10
2.76637e-10
3.11981e-10
4.1864e-10
1.52212e-10
2.49169e-10
4.59942e-10
3.96119e-10
1.92425e-10
4.07268e-10
2.99607e-10
5.06581e-10
5.82396e-10
3.24642e-10
3.84606e-10
3.46619e-10
1.57253e-10
2.87158e-10
2.09833e-10
3.36785e-10
2.57355e-10
3.8425e-10
4.13033e-10
2.69301e-10
4.06179e-10
4.60936e-10
1.50996e-10
3.06888e-10
2.46667e-10
2.63234e-10
5.00194e-10
5.99052e-11
7.95917e-11
3.71668e-10
1.69925e-10
4.10871e-10
2.45019e-10
1.96847e-10
3.55242e-10
4.82711e-10
5.38522e-10
1.64212e-10
2.68978e-10
2.97715e-10
7.24504e-11
1.57326e-10
4.16713e-10
3.36452e-10
9.18046e-11
3.38146e-10
1.98499e-10
4.55443e-10
4.46883e-10
2.55295e-10
3.6505e-10
2.62198e-10
7.90228e-11
3.2741e-10
4.74463e-10
4.55434e-10
1.51583e-10
3.05886e-10
3.11897e-10
1.83344e-10
3.55498e-10
3.64033e-10
2.53633e-11
2.80526e-10
9.92966e-11
2.23521e-10
4.07475e-10
3.00759e-11
4.42755e-11
4.08783e-10
1.63654e-10
4.74771e-10
1.16384e-10
5.52135e-11
2.77761e-10
5.98996e-10
7.74257e-10
2.35877e-10
2.93371e-10
4.13807e-10
1.58338e-10
2.84886e-10
4.8578e-10
3.91956e-10
1.31806e-10
4.61775e-10
2.65934e-10
5.8453e-10
5.38399e-10
3.96751e-10
4.67366e-10
3.92794e-10
2.92147e-10
4.6328e-10
2.95437e-10
5.98867e-10
2.13425e-10
5.5015e-10
4.53376e-10
2.82332e-10
4.279e-10
4.8468e-10
9.12827e-11
3.82991e-10
2.75615e-10
2.30121e-10
5.55435e-10
3.9044e-13
1.90273e-12
4.50402e-10
1.44391e-10
5.68988e-10
2.21484e-10
1.99152e-10
4.37472e-10
4.87279e-10
7.82729e-10
1.9239e-10
1.92575e-10
3.96269e-10
2.28914e-12
1.38564e-10
3.20396e-10
2.06138e-10
3.31506e-11
4.44819e-10
1.24913e-10
5.78704e-10
5.83174e-10
2.8629e-10
3.17632e-10
3.16047e-10
2.46863e-11
2.32952e-10
1.03175e-10
5.65813e-10
1.85682e-10
4.69281e-10
4.58174e-10
1.83106e-10
3.08541e-10
2.56152e-10
1.4399e-12
3.39756e-10
1.32788e-10
2.70923e-10
2.59701e-10
3.72718e-12
3.82544e-12
4.38695e-10
2.97182e-11
4.64672e-10
1.55399e-10
1.22132e-10
3.07442e-10
4.69894e-10
7.1653e-10
3.37067e-10
4.04307e-10
6.58838e-10
9.52969e-13
1.57534e-10
4.08713e-10
2.44817e-10
8.49691e-11
4.48771e-10
1.83175e-10
6.49495e-10
6.30655e-10
2.27082e-10
3.45353e-10
3.11648e-10
7.63217e-13
3.34731e-10
2.746e-10
6.04528e-10
2.82028e-10
3.45029e-10
4.9206e-10
2.53236e-10
3.8996e-10
4.08795e-10
3.99726e-12
3.73728e-10
1.40334e-10
2.48729e-10
4.78234e-10
1.70236e-13
5.27769e-11
5.71662e-10
3.07661e-10
7.27209e-10
1.45015e-10
2.39133e-11
4.17592e-10
5.62252e-10
6.20355e-10
2.17208e-10
3.82898e-10
7.27863e-10
5.46751e-11
2.52558e-10
4.90551e-10
2.67462e-10
9.96556e-11
3.69038e-10
1.61867e-10
4.41863e-10
4.21926e-10
2.29483e-10
4.03924e-10
3.10066e-10
1.62966e-11
3.47239e-10
2.645e-10
4.48437e-10
2.37455e-10
3.65209e-10
4.99624e-10
5.50782e-11
2.96893e-10
6.49214e-10
2.21812e-10
3.40172e-10
8.04178e-11
2.63154e-10
5.16776e-10
1.59674e-13
2.85283e-13
5.72801e-10
8.15692e-11
6.14494e-10
1.00253e-10
7.83125e-13
4.40281e-10
7.08045e-10
5.17871e-10
2.86776e-11
1.38843e-10
5.76021e-10
4.25286e-12
2.28524e-10
5.05562e-10
1.84693e-10
1.25559e-13
3.92157e-10
5.61834e-11
3.20204e-10
4.68059e-10
3.14174e-10
4.15434e-10
2.87407e-10
6.47085e-11
1.09528e-10
1.74856e-10
3.08992e-10
2.34509e-10
3.75367e-10
5.68951e-10
1.38039e-10
3.32223e-10
3.35526e-10
5.97348e-11
3.75431e-10
4.16754e-12
2.26286e-10
4.23482e-10
3.26481e-13
1.52736e-10
5.4634e-10
6.47054e-13
5.32056e-10
5.02642e-11
1.32598e-11
3.60145e-10
5.61937e-10
5.05797e-10
2.88064e-11
1.58126e-10
4.69748e-10
5.73253e-13
8.37794e-11
4.42208e-10
1.5458e-12
1.69738e-13
4.18701e-10
9.9719e-11
3.68244e-10
7.75338e-10
3.53743e-10
3.30692e-10
4.42176e-11
2.70739e-13
1.61175e-13
1.64201e-13
1.9351e-10
1.16058e-10
2.48057e-10
4.78207e-10
2.72285e-10
3.04629e-10
1.22084e-11
4.34145e-11
1.67748e-10
6.79811e-11
1.85746e-10
4.03932e-10
2.14373e-13
1.42965e-10
5.4413e-10
8.85413e-13
7.55582e-10
1.08288e-10
7.20571e-11
6.15469e-10
4.82213e-10
5.49267e-10
4.30649e-11
1.37633e-10
6.30577e-10
2.88662e-13
8.90024e-11
4.51978e-10
4.94695e-11
1.60288e-13
8.32351e-10
1.18221e-10
4.46953e-10
7.20279e-10
4.66726e-10
5.69723e-10
2.18403e-10
2.17425e-13
9.58106e-11
4.70103e-13
5.74744e-10
3.55335e-10
2.4983e-10
5.45058e-10
9.08727e-11
2.28241e-10
8.91978e-11
1.8344e-10
4.71451e-10
1.23728e-10
4.94447e-11
4.32941e-10
1.50145e-13
1.8598e-10
5.20789e-10
6.0551e-13
7.77353e-10
2.02861e-10
3.21063e-13
4.21138e-10
3.73903e-10
5.90205e-10
7.5744e-13
1.41801e-10
9.19316e-10
6.86179e-13
1.51688e-12
3.69252e-10
6.30511e-11
1.8773e-13
2.93925e-10
1.72051e-10
5.61016e-10
6.55874e-10
2.60173e-10
4.3203e-10
4.75285e-10
4.79234e-13
3.60791e-10
5.92737e-11
1.85332e-10
1.49255e-10
3.17107e-10
5.46181e-10
3.8666e-11
3.40671e-10
1.95061e-10
9.22966e-12
6.22532e-10
4.58169e-13
2.77182e-13
5.08667e-10
4.98973e-13
1.77481e-10
4.54288e-10
1.8177e-13
5.1364e-10
1.35252e-10
1.84312e-13
1.80755e-10
8.691e-10
7.38321e-10
2.11447e-12
2.05612e-10
5.72697e-10
4.1734e-13
7.61025e-13
2.86601e-10
4.66424e-11
2.1269e-12
1.74947e-13
5.87011e-13
2.21251e-10
6.86982e-10
5.09785e-10
1.77333e-10
1.48048e-12
1.85129e-13
3.92869e-10
5.44336e-12
5.60987e-13
3.27426e-13
1.99174e-10
4.47398e-10
1.66084e-13
3.04615e-10
2.28584e-10
2.33146e-10
4.96733e-10
7.71712e-11
6.73169e-11
4.2228e-10
2.56602e-10
3.66276e-10
1.95358e-10
2.52931e-13
4.03915e-10
4.78679e-13
1.09225e-13
3.90229e-10
3.78703e-10
2.64044e-10
1.18336e-12
8.12787e-13
5.88765e-10
1.19408e-10
4.51714e-10
8.05118e-10
3.4121e-13
4.97903e-13
7.09348e-10
3.87619e-10
2.12975e-11
2.23471e-10
9.22754e-10
5.06577e-10
1.08406e-10
3.96272e-13
3.07454e-14
3.69798e-13
4.62325e-10
3.15769e-10
2.50332e-10
5.18879e-10
8.78585e-11
2.76623e-10
7.21678e-13
4.35182e-13
5.695e-10
2.02154e-13
5.66939e-11
5.28186e-10
6.09638e-11
3.98497e-10
4.32476e-10
5.30918e-13
5.53156e-10
4.78827e-10
2.35572e-13
8.69482e-13
5.2424e-10
2.74426e-13
2.2484e-12
6.28107e-13
1.72112e-10
2.25617e-13
6.04667e-13
5.18939e-10
1.41842e-12
2.19798e-13
8.94084e-10
4.75756e-10
3.49022e-10
1.316e-13
4.90964e-10
6.95875e-10
6.40686e-10
2.58012e-13
4.89778e-14
3.63527e-12
2.21802e-10
2.47949e-10
4.79901e-10
3.75954e-10
1.95613e-13
2.92471e-13
4.61344e-10
8.69217e-11
3.25288e-10
2.3606e-11
3.51794e-10
5.26362e-10
2.92503e-13
1.82191e-10
5.58044e-10
2.09717e-13
2.59987e-10
1.99301e-10
2.56789e-13
2.55935e-10
1.41122e-09
3.60471e-10
1.00937e-10
5.85102e-13
7.53324e-10
4.4613e-10
4.38252e-13
3.88484e-10
2.27781e-13
2.6208e-10
1.14756e-10
3.04438e-10
2.0221e-10
3.40824e-10
4.03603e-11
9.45533e-11
2.46674e-10
3.75974e-13
5.91164e-11
2.92736e-10
4.11293e-10
1.18464e-13
4.29375e-10
4.95012e-10
3.80837e-10
5.68524e-10
6.90845e-10
2.28071e-10
5.62549e-10
1.50703e-10
1.87583e-13
7.66734e-11
2.41476e-10
2.13046e-13
3.19203e-13
4.31213e-13
2.67904e-10
2.15076e-13
9.52857e-14
4.67977e-10
6.43529e-10
4.88571e-13
9.22727e-13
4.78646e-10
4.91302e-11
5.71493e-14
5.56303e-10
1.27222e-09
1.22321e-12
6.81285e-13
4.74137e-11
2.49287e-11
9.73651e-10
4.87302e-10
6.91661e-10
3.7115e-13
1.47781e-12
3.84809e-13
5.76481e-10
2.46944e-10
2.28344e-10
2.17444e-11
1.83884e-10
1.08728e-11
1.60018e-13
4.14704e-13
4.03925e-10
1.19221e-10
2.67452e-11
2.34379e-10
7.36332e-10
8.71538e-10
1.97247e-10
7.39726e-10
1.10874e-11
4.32171e-13
5.49528e-10
1.49706e-10
2.75345e-13
3.20142e-11
9.31248e-10
2.03492e-10
1.44904e-13
6.55812e-11
2.80367e-13
3.20231e-11
9.39583e-11
4.06739e-10
2.713e-10
2.15876e-13
8.68466e-13
4.90567e-13
7.96199e-10
1.14797e-10
1.44833e-09
3.21432e-10
2.84796e-10
6.81477e-13
3.15257e-13
7.29238e-11
6.23204e-11
3.79188e-10
3.85838e-10
5.9325e-10
1.09386e-13
3.82783e-12
2.6127e-10
2.01138e-13
7.19238e-13
8.79777e-11
1.92229e-13
1.68147e-10
1.47042e-10
1.31523e-10
3.6455e-13
3.30006e-13
6.35838e-13
6.17122e-10
1.78143e-13
4.53906e-11
9.64324e-10
6.60946e-10
4.94336e-11
8.63128e-10
1.43592e-10
2.86778e-13
8.41193e-10
4.98307e-10
4.90733e-12
4.4823e-11
1.24027e-10
8.64421e-14
6.91004e-10
1.12125e-10
7.97075e-10
7.10227e-10
6.67443e-11
9.61129e-14
1.46793e-10
4.63853e-10
2.87642e-10
5.15224e-11
9.10584e-14
1.70362e-10
4.63689e-10
6.26707e-10
7.8416e-10
1.66751e-13
5.88943e-10
4.36026e-14
9.8872e-11
6.75443e-10
7.59444e-14
1.86879e-10
2.72487e-10
9.74299e-14
2.31427e-13
1.77214e-10
4.06035e-13
1.84484e-13
2.26715e-13
3.46733e-10
1.03428e-10
1.19596e-10
4.36323e-13
1.21759e-11
5.27009e-10
4.99783e-10
7.65504e-12
1.42447e-10
7.09987e-10
1.58529e-12
5.03163e-13
1.3863e-10
2.54804e-12
6.67926e-14
7.69633e-14
6.35283e-10
7.70682e-10
6.20303e-10
3.73911e-11
9.69635e-10
4.13675e-10
7.84952e-14
3.2579e-13
4.83841e-12
1.16188e-09
4.16398e-13
2.34811e-10
3.28347e-10
7.30956e-10
8.35865e-11
2.03982e-10
8.61102e-10
4.59993e-10
2.38314e-10
4.30256e-10
5.15809e-13
5.46247e-14
3.36694e-14
1.3e-10
5.29907e-10
3.70963e-10
7.63006e-10
3.94862e-10
1.42593e-13
1.16176e-13
3.95253e-10
1.95332e-10
4.46061e-13
8.2358e-12
2.6452e-10
6.23504e-10
4.829e-10
5.80196e-10
5.28761e-10
2.92785e-14
4.88939e-10
7.17936e-14
2.10768e-10
2.88072e-10
5.94483e-10
8.33703e-10
5.7698e-10
1.77828e-11
2.85408e-13
7.20241e-10
2.73496e-13
5.89325e-10
7.61502e-10
4.76485e-10
8.23131e-11
8.07533e-11
1.61432e-13
4.69891e-10
1.02172e-13
4.89515e-13
7.94224e-10
2.23647e-13
7.44289e-13
1.54188e-13
2.63324e-10
4.11544e-10
1.10218e-09
1.64148e-10
4.41167e-13
4.8346e-10
8.43193e-10
2.23503e-12
1.29678e-13
7.91674e-12
2.45583e-14
1.09677e-12
2.21966e-10
1.54608e-09
7.08543e-10
3.42687e-10
3.00234e-14
8.74586e-14
4.85663e-10
8.9256e-13
4.8814e-13
7.52886e-13
5.47062e-11
2.46096e-13
1.84626e-13
8.7123e-10
1.57253e-13
4.10336e-10
5.15623e-10
8.08807e-13
7.22945e-10
7.1219e-10
4.97364e-13
2.37715e-10
8.41404e-13
2.15711e-13
1.18097e-12
2.65846e-10
3.79451e-13
6.78433e-10
3.9371e-10
4.4934e-13
4.85335e-13
1.1376e-09
5.46141e-10
9.37578e-14
3.47155e-12
3.0329e-12
4.31281e-13
5.62783e-13
3.08715e-13
7.01116e-10
4.74479e-13
1.44909e-13
8.69928e-11
2.55196e-09
8.02847e-10
8.88718e-13
1.99782e-10
2.56558e-12
8.01505e-10
6.82438e-10
8.65651e-12
5.88793e-14
3.01669e-13
3.73784e-10
1.15836e-12
6.50416e-11
9.91713e-10
8.08417e-11
3.65257e-10
1.39719e-09
1.23711e-13
1.48868e-10
2.36892e-10
3.11782e-10
2.00416e-10
8.04804e-13
1.16146e-13
2.44907e-13
3.65492e-14
2.71582e-14
5.43698e-11
3.14417e-13
3.78788e-14
1.54061e-12
1.54978e-09
2.8973e-12
1.83625e-12
5.55631e-10
1.65571e-13
7.40366e-11
6.98505e-10
5.52975e-13
5.39755e-13
6.2828e-13
7.37056e-14
3.78187e-13
5.39892e-10
7.93345e-13
7.77413e-14
5.93499e-10
4.40005e-11
1.40024e-12
1.60946e-09
2.56829e-11
1.98037e-13
6.91771e-10
1.40558e-13
9.04385e-14
5.7246e-13
1.80194e-09
2.57521e-10
1.03693e-09
7.86564e-10
9.55462e-13
1.12589e-13
4.55074e-13
1.42792e-13
6.37296e-11
6.03227e-10
9.15861e-10
7.44125e-10
7.63212e-11
4.45024e-10
1.78285e-12
6.21076e-13
2.68186e-13
4.46737e-13
7.6717e-10
2.91323e-11
1.53543e-11
5.97686e-10
9.22869e-11
1.97323e-09
8.11704e-10
4.73584e-14
2.62056e-13
8.75984e-10
6.91006e-14
1.2265e-13
6.15447e-10
2.10147e-13
1.96989e-13
4.79049e-11
1.38852e-09
5.03897e-10
4.09997e-12
1.46181e-09
7.1284e-10
8.42018e-10
1.63712e-09
2.37327e-13
5.97727e-13
2.079e-13
6.40224e-13
1.10869e-13
6.04509e-11
7.64199e-14
7.97014e-10
3.63343e-13
1.78306e-11
1.40434e-10
1.29645e-13
2.32866e-13
1.13646e-13
1.26629e-12
5.76715e-13
5.76124e-13
1.4864e-12
5.18164e-12
2.80364e-13
5.62899e-14
1.6073e-10
3.33913e-12
7.85834e-13
4.45783e-13
8.077e-10
2.14358e-09
4.71674e-13
7.46558e-10
1.77698e-09
2.68007e-11
8.20329e-13
1.71478e-10
3.5158e-13
1.14592e-09
1.29863e-09
4.93752e-13
1.67622e-13
7.09301e-13
3.56236e-13
4.07179e-13
1.68634e-09
1.26776e-12
6.01293e-13
5.40045e-10
2.84796e-13
3.28176e-12
1.14215e-09
7.82451e-10
3.29008e-11
2.82689e-10
1.89139e-13
4.30738e-13
5.36185e-10
5.74426e-10
7.88295e-11
1.63646e-09
6.63358e-10
1.66841e-13
1.8575e-10
1.22998e-13
1.32615e-10
2.03175e-10
2.49459e-13
2.47604e-12
6.0058e-10
5.21965e-13
1.36271e-09
1.83995e-10
5.60314e-10
6.59209e-10
1.89324e-13
3.4992e-14
2.69757e-10
6.30741e-10
1.16032e-13
2.75646e-13
4.52858e-10
1.65968e-09
5.73656e-10
5.24701e-10
3.26054e-12
9.00296e-10
3.6747e-10
5.82305e-11
4.16804e-10
4.72593e-10
4.34032e-13
2.8038e-13
7.90687e-10
4.6649e-13
5.20432e-13
1.43793e-09
2.16056e-13
8.07865e-11
8.99488e-12
6.1803e-13
5.02073e-10
9.95741e-10
4.56463e-10
1.74246e-10
1.48176e-09
5.56365e-10
3.42218e-13
2.28759e-10
8.14556e-13
5.88366e-13
8.49026e-13
1.22371e-12
2.54007e-09
6.35544e-14
3.15121e-12
3.28581e-09
3.19861e-13
8.13437e-10
7.00782e-13
2.56036e-09
2.75126e-09
4.13004e-13
2.10156e-13
3.73865e-13
1.02194e-13
4.58951e-13
8.49375e-13
1.02596e-10
1.92275e-13
1.98921e-13
1.12369e-09
1.39125e-12
6.43205e-10
1.91263e-09
1.112e-09
1.71129e-12
2.40915e-10
7.99166e-11
1.57148e-13
1.15445e-09
2.04107e-10
3.71512e-13
4.51305e-13
1.85472e-12
1.84949e-13
5.77659e-10
1.08218e-09
1.20584e-09
9.57173e-10
5.43862e-13
4.75522e-13
2.56132e-09
4.03148e-13
2.71784e-13
1.67773e-09
1.65342e-09
1.42003e-12
9.24647e-10
6.99273e-10
1.13922e-09
3.70577e-13
4.09357e-13
1.30635e-09
4.38958e-10
5.7713e-10
2.30851e-09
6.56223e-10
2.00216e-13
9.19948e-13
3.04809e-12
4.24031e-10
4.02646e-13
1.13979e-12
8.58094e-14
1.74978e-14
3.65158e-13
5.02011e-10
2.69264e-10
2.73578e-13
1.55479e-13
1.40982e-13
1.57816e-09
1.15434e-09
6.8698e-10
1.73761e-12
2.28381e-13
3.67647e-13
3.32663e-14
6.25666e-13
1.30393e-09
7.31009e-10
7.1391e-10
3.83211e-13
1.06081e-09
1.13047e-09
8.60585e-13
1.86716e-09
1.23973e-09
4.05731e-11
2.95565e-13
2.3914e-12
3.02602e-13
1.26084e-09
7.37998e-10
1.10335e-09
2.50127e-12
2.21639e-13
3.32455e-10
1.07802e-12
1.08108e-09
1.63616e-09
6.26972e-10
2.13882e-10
1.7837e-09
2.06243e-10
9.43826e-14
1.01934e-09
3.26579e-13
6.25143e-12
2.36941e-13
5.49676e-10
6.66375e-12
5.69834e-13
9.20045e-10
4.32023e-10
2.82888e-13
7.44944e-10
2.21377e-13
8.85174e-14
1.35645e-09
7.27678e-10
1.38697e-09
6.15365e-13
6.09063e-13
1.43144e-09
1.89648e-09
3.01668e-13
6.14716e-10
3.78862e-13
1.09202e-09
1.23283e-09
4.45955e-14
3.33642e-09
1.08594e-12
3.09732e-13
1.57802e-09
3.25649e-13
3.57755e-11
2.30349e-13
5.74314e-13
2.64726e-09
4.29644e-13
6.71793e-14
4.70665e-12
7.00328e-14
1.9475e-12
9.38419e-12
1.24737e-09
9.70859e-11
6.29082e-13
9.72761e-10
6.40741e-10
1.12327e-09
1.01207e-10
2.89434e-13
6.44915e-10
3.92554e-09
1.6333e-10
3.87963e-10
1.40292e-12
2.16287e-12
1.93602e-09
1.10838e-12
2.19313e-13