/*--------------------------------*- C++ -*----------------------------------*\
  =========                 |
  \\      /  F ield         | OpenFOAM: The Open Source CFD Toolbox
   \\    /   O peration     | Website:  https://openfoam.org
    \\  /    A nd           | Version:  10
     \\/     M anipulation  |
\*---------------------------------------------------------------------------*/
FoamFile
{
    format      ascii;
    class       volScalarField;
    location    "47.5";
    object      p;
}
// * * * * * * * * * * * * * * * * * * * * * * * * * * * * * * * * * * * * * //

dimensions      [0 2 -2 0 0 0 0];

internalField   nonuniform List<scalar> 
25600
(
-0.0208237
-0.024756
-0.0205285
-0.0225716
-0.0172292
-0.0122755
-0.00731638
-0.0103716
-0.0219722
-0.0246979
-0.0143516
-0.00494522
-0.0162194
-0.0138108
-0.0171691
-0.010611
-0.0219981
-0.0317687
-0.0310249
-0.00803731
0.0160404
-0.00460112
-0.0107719
-0.0139152
-0.0242698
-0.0259028
-0.0178
-0.0102206
-0.0193787
-0.014794
-0.0173442
-0.0197494
0.000599437
0.00901565
-0.0116493
-0.0129271
-0.0107809
-0.0241735
-0.0149239
-0.00760542
-0.0205466
-0.0244171
-0.0201837
-0.0223789
-0.0168871
-0.0116171
-0.00684528
-0.0101141
-0.0216722
-0.024384
-0.0137436
-0.00427289
-0.0160007
-0.0134853
-0.0167772
-0.0101924
-0.0216008
-0.0314408
-0.0307762
-0.0084596
0.0157066
-0.00418629
-0.0104546
-0.0135506
-0.023734
-0.0255838
-0.0175661
-0.00971238
-0.0189823
-0.0147034
-0.0169538
-0.0192604
-0.000780306
0.0085877
-0.0112492
-0.0131072
-0.0106777
-0.0236548
-0.0142431
-0.00720409
-0.0202154
-0.0240799
-0.0197629
-0.022104
-0.0166268
-0.0111391
-0.00640116
-0.009713
-0.0211926
-0.0240354
-0.0131256
-0.00359072
-0.0156209
-0.0130594
-0.0163886
-0.00973795
-0.0212482
-0.0313107
-0.0309465
-0.00931417
0.01455
-0.00393433
-0.0104246
-0.0132107
-0.0233136
-0.0252802
-0.0170195
-0.00929965
-0.0184931
-0.0146305
-0.0172933
-0.0183362
-0.00218677
0.00714188
-0.0117041
-0.01385
-0.0107494
-0.0232652
-0.0136707
-0.00668173
-0.0198932
-0.023767
-0.0193668
-0.0220199
-0.0169144
-0.0109517
-0.00601398
-0.00958759
-0.0206417
-0.0237185
-0.0125005
-0.0030112
-0.0153847
-0.012663
-0.0160725
-0.00934827
-0.0209476
-0.0314848
-0.0318424
-0.0103281
0.0119285
-0.0039611
-0.0108211
-0.013209
-0.0231223
-0.0250833
-0.0160526
-0.00920097
-0.0180095
-0.0144134
-0.0168653
-0.0175555
-0.00324437
0.00577629
-0.0133404
-0.0153876
-0.0114288
-0.0231399
-0.0134959
-0.00616195
-0.0194323
-0.023536
-0.0187197
-0.0217703
-0.0182077
-0.0106857
-0.00554497
-0.00958178
-0.0201083
-0.0235055
-0.0117639
-0.00266371
-0.0152852
-0.0124649
-0.0158145
-0.00906829
-0.02057
-0.0318352
-0.032835
-0.0110632
0.00833294
-0.00434221
-0.0113913
-0.0134835
-0.0231058
-0.0247962
-0.0145394
-0.00917941
-0.0177084
-0.0144913
-0.0153861
-0.0169873
-0.00445564
0.00420382
-0.0160088
-0.0175927
-0.0130951
-0.0234041
-0.013761
-0.00569554
-0.0189025
-0.0233339
-0.0177339
-0.0221182
-0.0203069
-0.00972337
-0.00483946
-0.00930003
-0.0201059
-0.0235376
-0.0108479
-0.00302228
-0.0159219
-0.0126314
-0.015518
-0.00897527
-0.020348
-0.031936
-0.0327368
-0.010797
0.0055317
-0.0051377
-0.0119025
-0.0135324
-0.0229406
-0.0241673
-0.0133686
-0.00916833
-0.0176226
-0.0158885
-0.015095
-0.0165805
-0.00523493
0.0024336
-0.0186117
-0.0197053
-0.0152888
-0.0241151
-0.0143747
-0.00564553
-0.0182399
-0.0227775
-0.0179397
-0.0240737
-0.0221197
-0.0079635
-0.0038399
-0.00889917
-0.0196828
-0.0238874
-0.00981692
-0.00444891
-0.0175119
-0.0130138
-0.0150516
-0.0090664
-0.0206218
-0.0311744
-0.0292043
-0.0100882
0.00408793
-0.00645075
-0.0124025
-0.0133966
-0.0221288
-0.0230288
-0.0129768
-0.00940206
-0.018439
-0.0173942
-0.0143711
-0.0159478
-0.00556625
0.000767396
-0.0197838
-0.0208284
-0.0170605
-0.0247656
-0.015103
-0.00546971
-0.0169606
-0.0227031
-0.0201354
-0.0273594
-0.0228438
-0.00724974
-0.00346703
-0.00895835
-0.0193452
-0.0241712
-0.00898726
-0.00600351
-0.0182174
-0.0133711
-0.0148642
-0.0097202
-0.0207897
-0.0296318
-0.0283137
-0.00964998
0.00287044
-0.00792247
-0.0130482
-0.0141703
-0.0214026
-0.0219883
-0.0123894
-0.00942013
-0.0200851
-0.0181242
-0.0133482
-0.0143554
-0.00535487
-0.000873735
-0.020111
-0.0217804
-0.0186491
-0.0247733
-0.0155869
-0.0047809
-0.0155414
-0.0234017
-0.0233882
-0.0307341
-0.0232424
-0.00717392
-0.00361275
-0.00927587
-0.0190148
-0.0235989
-0.00706887
-0.00688446
-0.0173698
-0.0134344
-0.0154764
-0.0115323
-0.0204695
-0.0281675
-0.0272538
-0.00945938
0.00195226
-0.00884717
-0.0135286
-0.0159198
-0.0221375
-0.0210965
-0.0105184
-0.00919167
-0.0203158
-0.0188706
-0.012384
-0.0124935
-0.00416633
-0.00261367
-0.020305
-0.0213998
-0.0195278
-0.0245363
-0.0157123
-0.00532622
-0.0149666
-0.0256397
-0.0279731
-0.0312385
-0.0234071
-0.00755806
-0.00386068
-0.00935146
-0.0182774
-0.0222206
-0.00954704
-0.00718819
-0.0154767
-0.0134845
-0.0161046
-0.0139078
-0.0206463
-0.0275539
-0.0247774
-0.00942825
0.00204054
-0.00980339
-0.0139327
-0.0168828
-0.0229353
-0.0207952
-0.00897155
-0.00924714
-0.0191972
-0.0194148
-0.0114416
-0.0113819
-0.00282258
-0.00459027
-0.0200406
-0.0194409
-0.0191063
-0.0243259
-0.0165598
-0.00634513
-0.0144186
-0.0277649
-0.0300843
-0.0273282
-0.0222401
-0.0083407
-0.00361534
-0.00932668
-0.0170354
-0.0204633
-0.012502
-0.00796526
-0.0143996
-0.0136985
-0.0168585
-0.0161159
-0.0213267
-0.0274194
-0.0232311
-0.00976915
0.00274945
-0.0107866
-0.0144337
-0.0171473
-0.0233657
-0.0216966
-0.00939479
-0.00970038
-0.0176449
-0.0188838
-0.0106431
-0.0111684
-0.00235778
-0.00701484
-0.0192853
-0.0172819
-0.0172526
-0.0221293
-0.0183091
-0.00832295
-0.0134662
-0.0277358
-0.0289171
-0.0210284
-0.0215841
-0.00981177
-0.00220841
-0.0089416
-0.0164383
-0.0185189
-0.0126425
-0.0100664
-0.0123546
-0.0137516
-0.0172897
-0.0177441
-0.0207273
-0.0261274
-0.0218704
-0.0105783
0.00285864
-0.0113748
-0.0146194
-0.0173488
-0.023588
-0.0238563
-0.0103595
-0.0103528
-0.0155065
-0.0167447
-0.010707
-0.0121586
-0.00239882
-0.00975089
-0.0173237
-0.0144836
-0.013989
-0.0177485
-0.0202925
-0.0112757
-0.01284
-0.0254281
-0.0251927
-0.0148833
-0.0209372
-0.0139512
-0.00114388
-0.00703839
-0.0158468
-0.0192524
-0.00951065
-0.0120731
-0.0116857
-0.014001
-0.0175789
-0.0187485
-0.018806
-0.0227873
-0.0200022
-0.0121125
0.00114669
-0.012225
-0.0150095
-0.0159781
-0.0232023
-0.0274063
-0.0115341
-0.0110659
-0.0149569
-0.0136848
-0.0108856
-0.0143235
-0.00459293
-0.0133222
-0.0132911
-0.00916108
-0.0108641
-0.015426
-0.0205571
-0.0127289
-0.0132425
-0.0234281
-0.0236482
-0.0135946
-0.0208648
-0.0161707
-0.00079163
-0.00471971
-0.0154891
-0.0217942
-0.0104466
-0.0160057
-0.0145421
-0.0111937
-0.0167015
-0.0186269
-0.0161459
-0.0186318
-0.0186537
-0.0138296
-0.00128849
-0.0131072
-0.0162374
-0.0142158
-0.0235555
-0.0309439
-0.0119218
-0.0109038
-0.0183243
-0.0111661
-0.0116186
-0.0169998
-0.00751498
-0.0173906
-0.0102849
-0.00811663
-0.00857202
-0.017816
-0.0205415
-0.0139833
-0.0122028
-0.0229071
-0.0197802
-0.0157403
-0.0240339
-0.0177229
-0.00215793
-0.00591284
-0.0186057
-0.02347
-0.0130006
-0.0163983
-0.0168646
-0.00687911
-0.014502
-0.019423
-0.0141732
-0.0158232
-0.0167629
-0.0151261
-0.00569772
-0.0152817
-0.0182323
-0.0128898
-0.0261805
-0.029881
-0.0101468
-0.00895996
-0.0247489
-0.0119631
-0.0095824
-0.0173072
-0.0113446
-0.0192939
-0.0109802
-0.0089149
-0.0108959
-0.0212718
-0.0217922
-0.014649
-0.00881293
-0.0147434
-0.0165669
-0.0181445
-0.0211867
-0.0179666
-0.00774747
-0.0103553
-0.0273729
-0.0302811
-0.0139172
-0.00854297
-0.0175297
-0.00596969
-0.00923608
-0.0131861
-0.0113997
-0.0133603
-0.01861
-0.0150148
-0.00842762
-0.0186341
-0.0208225
-0.0125117
-0.0287224
-0.0245873
-0.0060398
-0.00719381
-0.0286623
-0.0159054
-0.0122966
-0.0159284
-0.0135125
-0.0182331
-0.0135338
-0.0103265
-0.0161739
-0.025598
-0.0230217
-0.0136185
-0.00687915
-0.0154048
-0.0180877
-0.0152276
-0.01104
-0.0180787
-0.0103439
-0.0156635
-0.0410446
-0.033887
-0.0128444
0.00277873
-0.00803719
-0.0083943
-0.00972791
-0.0100943
-0.0103848
-0.0130729
-0.0152529
-0.0141696
-0.0129341
-0.0150227
-0.0209427
-0.0177002
-0.028652
-0.0147221
0.00358498
-0.00509285
-0.0280485
-0.0180287
-0.0147091
-0.011561
-0.00925762
-0.0184432
-0.016037
-0.0126892
-0.018745
-0.031356
-0.0251986
-0.00929364
-0.0071009
-0.0164494
-0.0188945
-0.0151098
-0.0137145
-0.0194193
-0.00878975
-0.0145935
-0.04371
-0.0335246
-0.00774188
0.0113332
-0.00203554
-0.0157063
-0.0141136
-0.0099077
-0.00842617
-0.01454
-0.0192528
-0.0154856
-0.0115988
-0.014573
-0.019708
-0.0158926
-0.025148
-0.0103634
0.00934652
-0.00636843
-0.0199424
-0.0156454
-0.0136408
-0.0120132
-0.00909397
-0.0203078
-0.0187424
-0.0137799
-0.0182306
-0.0252467
-0.0204658
-0.00555225
-0.00372813
-0.0170178
-0.0212696
-0.0121651
-0.0127522
-0.0234012
-0.00734324
-0.0105433
-0.0381429
-0.0386794
-0.0124831
0.0104141
-0.0071061
-0.0243349
-0.0192125
-0.0106702
-0.0171334
-0.033129
-0.0219849
-0.0130064
-0.0132291
-0.0270283
-0.0275183
-0.0205752
-0.0212276
-0.00690716
0.00937924
-0.0135533
-0.0158363
-0.0149077
-0.0123446
-0.0144855
-0.00876889
-0.0221665
-0.0178845
-0.00898736
-0.0213294
-0.0277966
-0.0289858
-0.00551608
-0.00780466
-0.0177069
-0.0149198
-0.00438441
-0.0115915
-0.0143216
0.00313995
-0.00709518
-0.031492
-0.0417346
-0.0113531
0.0104223
-0.0138962
-0.0263482
-0.0229148
-0.00603358
-0.0135746
-0.0330905
-0.0161498
-0.00962226
-0.0171221
-0.0434534
-0.0311913
-0.0162023
-0.0115535
-0.00689721
0.00574368
-0.0178741
-0.0143004
-0.00690513
-0.0117107
-0.0156575
-0.0065693
-0.02467
-0.0230457
-0.0118982
-0.0298734
-0.0327064
-0.0376503
-0.0158377
-0.00327197
-0.0127194
-0.0196611
-0.0120474
-0.0184964
-0.0261112
-0.0186116
-0.013146
-0.0234037
-0.0232947
-0.00241127
0.00622852
-0.0129076
-0.0187694
-0.013774
0.0169712
-0.0157926
-0.0207038
-0.0025733
0.000535925
-0.0184894
-0.00718456
-0.0182512
-0.0239666
-0.0101987
-0.0150182
-0.00876933
-0.0167003
-0.014616
-0.00268221
-0.00751091
-0.0104265
-0.00672403
-0.0137653
-0.0263697
-0.0208197
-0.0246378
-0.0336368
-0.0386371
-0.00681506
-0.0105959
-0.00229741
-0.00893148
-0.013897
-0.0263261
-0.0193632
-0.00790517
-0.0124289
-0.0187869
-0.0175587
-0.00845731
-0.012904
-0.0142786
-0.0203482
0.00153395
-0.0045098
-0.0397349
-0.0365422
-0.0102301
-0.0236991
-0.0192473
-0.00224259
-0.0100394
-0.0215823
-0.0126196
-0.0183053
-0.0210537
-0.0185293
-0.0113533
-0.00179896
-0.0085957
-0.00645734
-0.0138978
-0.0243173
-0.0238027
-0.0228603
-0.0197103
-0.0237703
-0.00781367
-0.00601361
0.00363246
-0.00888829
-0.0168369
-0.0113104
-0.0179659
-0.00705001
-0.00797068
-0.0191945
-0.0304076
-0.0214493
-0.00652348
-0.0115995
-0.00588549
-0.00981224
-0.0123361
-0.0127189
-0.0242166
-0.0307452
-0.011126
-0.00949113
-0.0163521
-0.00558919
-0.00881251
-0.0231183
-0.0164134
-0.0110749
-0.0210937
-0.0187782
-0.00661432
-0.0072563
-0.0121073
-0.00229495
-0.0112631
-0.0122837
-0.0128791
-0.0214329
-0.0109245
-0.0157571
-0.0193362
-0.00698276
-0.00738737
-0.0294547
-0.020853
-0.00331872
-0.0124826
-0.00748028
-0.00517122
-0.0255634
-0.0272878
-0.00650237
0.00113256
-0.0110811
-0.00185803
-0.00402566
-0.0103587
0.00516637
-0.030562
-0.0214474
0.00173729
-0.0147983
-0.0212445
-0.00776938
-0.0111654
-0.0188776
-0.0191226
-0.0129825
-0.0205677
-0.0156718
-0.0123336
-0.00594266
-0.00556495
-0.00897028
-0.00810182
-0.00809306
-0.00984185
-0.0132852
-0.00759978
-0.0234555
-0.00999903
0.00171557
-0.0258362
-0.0113392
0.00235552
-0.00415789
-0.0192013
-0.00955592
-0.00405807
-0.0209907
-0.0164828
-0.00629341
-0.0146057
-0.0246957
0.00345234
0.00232476
-0.0203354
-0.0246075
-0.0260838
-0.00736422
-0.0176057
-0.0248243
-0.00730237
-0.00424571
-0.0161668
-0.0286818
-0.022835
-0.0135086
-0.0170803
-0.0196431
-0.00216302
-0.00206052
-0.0300003
-0.0187689
-0.00733601
-0.00376522
-0.0102338
-0.0125972
-0.00780534
-0.0247408
-0.0177693
-0.0152542
-0.0121903
0.00154978
-0.0161571
-0.0167477
-0.034831
-0.0289991
-0.00525279
-0.0194298
-0.0279593
-0.0160443
-0.010477
-0.00257746
0.00646783
-0.0245745
-0.0168494
0.0081358
-0.0192114
-0.0135847
0.00765044
-0.0188786
-0.0228391
-0.00990719
-0.0251773
-0.0273587
-0.0193508
-0.0091444
-0.0226052
-0.0172783
0.00735811
-0.0194052
-0.0134555
-0.00241554
-0.0126347
-0.00806282
-0.0100318
-0.0140847
-0.0265121
-0.0147712
0.00671938
-0.0194496
-0.00579062
-0.0158653
-0.0215325
-0.0146373
-0.0152685
0.00922012
-0.00955276
-0.038749
-0.00882596
0.00167424
-0.0143411
-0.00579942
-0.00466254
-0.0219562
-0.0165876
-0.0215181
-0.0234169
0.004954
-0.00493035
-0.0269251
-0.022835
0.00418377
-0.00646232
-0.0166328
-0.0123228
-0.0128912
-0.0226315
-0.016205
-0.0292781
-0.0254607
0.00839406
-0.00996414
-0.00927751
-0.00282755
-0.0392774
-0.0456595
-0.0221855
-0.00855948
-0.0313193
-0.0239148
-0.0132422
-0.00288108
-0.0155771
-0.0238379
-0.0145487
-0.0110537
-0.0156154
-0.0123726
-0.0253788
-0.00439458
0.018219
0.00104536
-0.00838186
-0.0172237
-0.0397096
-0.0149169
-0.00184287
-0.0163281
-0.0185538
-0.0120751
-0.00187419
0.0014723
-0.0128008
-0.0219992
-0.0169976
-0.024086
-0.00947082
-0.0297511
-0.0380974
-0.0207142
-0.0380161
-0.0123789
-0.00475418
-0.0224382
-0.0273293
-0.0341178
-0.0192929
-0.00850367
-0.00656962
-0.0127488
-0.0116877
-0.0355335
-0.0323681
-0.015727
-0.0114001
-0.00329212
-0.0208241
-0.0346975
-0.0205246
0.00795748
-0.0290871
-0.0258901
0.0239456
-0.00872995
-0.030922
0.00299799
-0.0102769
-0.0212155
-0.0285487
-0.0317676
-0.014133
-0.0220646
-0.0282224
-0.0146731
0.0069485
-0.0177879
-0.0381714
-0.0261268
-0.00785545
-0.0177924
0.0123318
0.00880178
-0.0176049
-0.0163541
-0.0148002
-0.0189709
-0.0202025
-0.0117022
-0.0116407
-0.0266957
-0.0245906
-0.0182779
-0.0134019
-0.015249
-0.00878747
-0.00408955
-0.00379897
-0.0260373
-0.022909
-0.0234892
0.000540288
0.0165921
-0.0146916
-0.0202414
0.0166702
-0.010223
-0.0431463
-0.0320731
-0.0456089
0.00709745
0.00719877
-0.025718
-0.0242194
-0.0102645
-0.0275189
-0.0284966
-0.0376043
-0.0373198
-0.00582124
0.0594961
0.0225996
-0.0338017
-0.0204631
-0.0330028
-0.0314298
-0.0106436
-0.0160709
-0.0148946
-0.0216028
-0.0107149
-0.018602
-0.0215132
-0.016102
0.000922251
-0.0101539
-0.0123833
-0.00416687
-0.0192286
0.0122745
0.0125802
-0.0286253
-0.0399198
-0.00824991
0.00639024
-0.00412686
-0.0563413
-0.077155
0.00178935
0.0266109
0.0133287
-0.0248977
-0.0614803
-0.0365208
-0.0245385
0.00412223
-0.000780166
-0.0279649
-0.0144893
0.00687145
0.00107926
-0.0586139
-0.0140986
-0.0160961
-0.0362631
0.00495166
-0.0142934
-0.0327406
-0.0023282
-0.0123656
-0.0124739
0.0250374
0.0134844
0.010677
-0.0167959
-0.0393715
-0.0266739
-0.00886794
0.00736569
-0.029273
-0.0939615
-0.0473862
0.0257232
0.0190967
0.000356416
-0.0163512
0.0163441
0.0533333
0.0236883
0.0143007
-0.0365592
-0.0968615
0.0115458
0.0350228
-0.0251318
-0.0353786
-0.0843166
-0.0345826
0.0583894
0.0104689
-0.0229682
0.0123545
0.0439743
-0.0327591
-0.0172062
0.012945
-0.00886715
0.0513605
0.018186
-0.0503023
-0.0152333
0.00168645
0.00457802
-0.0105168
-0.0166943
-0.00665223
-0.0066293
-0.00244122
-0.000821989
-0.00807671
-0.0197766
-0.00307064
0.00307022
-0.000387073
0.00440572
-0.00245459
-0.00235171
-0.00509541
-0.0170183
-0.019058
-0.0141076
0.00286989
0.0014464
-0.00272867
-0.00541346
-0.0121911
-0.0142538
-0.00446845
-0.00465217
-0.00424471
-0.00970648
-0.0124641
-0.00299202
-0.00954025
-0.00808306
-0.00184947
-0.0183082
-0.0155218
-0.0150932
-0.0115654
-0.00526676
0.00177283
0.00455063
-0.0105441
-0.0167681
-0.00668823
-0.00661351
-0.00240887
-0.000839238
-0.00809289
-0.0198143
-0.00306699
0.00306803
-0.000483286
0.00431497
-0.00237414
-0.00239224
-0.00502999
-0.0170052
-0.0190883
-0.0144186
0.00269086
0.00146627
-0.00280453
-0.00544442
-0.0121399
-0.0142828
-0.00445909
-0.00466709
-0.00412879
-0.00981307
-0.0124482
-0.00303195
-0.00981137
-0.00826275
-0.00179364
-0.0183976
-0.0156609
-0.0151702
-0.011645
-0.00530502
0.00198092
0.00459825
-0.0103895
-0.0168792
-0.00658952
-0.00661576
-0.0022512
-0.000858806
-0.00808195
-0.0198425
-0.00294312
0.0031256
-0.000700859
0.00420785
-0.00223547
-0.00250032
-0.00475574
-0.0171071
-0.0194181
-0.0153631
0.00183536
0.00148547
-0.00302362
-0.00537876
-0.0120176
-0.0141197
-0.00436168
-0.00465898
-0.00393748
-0.00993686
-0.0123762
-0.00306285
-0.010335
-0.00878435
-0.0018113
-0.0189527
-0.0160431
-0.0151423
-0.0117776
-0.00535965
0.00205554
0.00449699
-0.0104619
-0.0171941
-0.0065322
-0.00691588
-0.00229317
-0.000935091
-0.00840531
-0.0201979
-0.00285239
0.00318982
-0.00114956
0.00393733
-0.00222129
-0.00276344
-0.00449752
-0.0175516
-0.020376
-0.0164594
0.00016121
0.00139702
-0.00367648
-0.00546699
-0.0121095
-0.0142648
-0.00444293
-0.00462412
-0.00386045
-0.010264
-0.0122628
-0.00357851
-0.0103405
-0.0091488
-0.00204577
-0.0200629
-0.0167637
-0.0155249
-0.0120643
-0.00554192
0.00203969
0.00427894
-0.010891
-0.0177883
-0.0067507
-0.0072649
-0.0024253
-0.00097888
-0.00882037
-0.0203988
-0.00281068
0.00322604
-0.00182245
0.00341461
-0.00220499
-0.00303348
-0.00425672
-0.0181315
-0.0211656
-0.0173047
-0.00207535
0.00109393
-0.00462618
-0.00582126
-0.0124136
-0.0144835
-0.00468415
-0.00433659
-0.00395332
-0.0107339
-0.0122475
-0.00409211
-0.0105326
-0.00961972
-0.00268811
-0.0217587
-0.0178787
-0.0159635
-0.012453
-0.00580151
0.00195842
0.0041671
-0.0118082
-0.0191585
-0.00762477
-0.00774566
-0.0027589
-0.00110535
-0.00953039
-0.0207984
-0.00288541
0.00312488
-0.00278592
0.00280337
-0.0019622
-0.00322062
-0.00421151
-0.0185985
-0.021841
-0.0180614
-0.00450241
0.000471151
-0.00551539
-0.00643086
-0.0128721
-0.0148421
-0.00554373
-0.00390432
-0.00422721
-0.0113829
-0.0124636
-0.00500387
-0.0107918
-0.0100932
-0.00367575
-0.0241056
-0.0194038
-0.0164101
-0.0129105
-0.00614945
0.00150384
0.00427447
-0.0129904
-0.0212809
-0.00915029
-0.00826681
-0.00343669
-0.00156247
-0.0106659
-0.021524
-0.00322952
0.00299093
-0.00370457
0.00251739
-0.00127237
-0.00320905
-0.00438501
-0.0188395
-0.0224093
-0.0190269
-0.00644916
-0.000371555
-0.00625998
-0.00723248
-0.0132432
-0.0153042
-0.00716443
-0.00381939
-0.00473033
-0.0118658
-0.0128673
-0.00623212
-0.0112842
-0.010423
-0.00461802
-0.0262338
-0.0207337
-0.0165835
-0.0134988
-0.00673236
0.000644832
0.00439542
-0.0140528
-0.0232588
-0.0106115
-0.00877588
-0.00436809
-0.00256146
-0.0121039
-0.0220153
-0.00408359
0.00304798
-0.00424231
0.00226578
-0.000287066
-0.00292469
-0.00459697
-0.0189764
-0.0227698
-0.0200574
-0.00756382
-0.00136198
-0.00683174
-0.0080925
-0.0136024
-0.0159112
-0.0087206
-0.00389204
-0.00510334
-0.0120949
-0.0132636
-0.00740142
-0.0113974
-0.0105879
-0.0053379
-0.0274898
-0.0215751
-0.0159777
-0.0144912
-0.00790642
-0.000404048
0.00458395
-0.015033
-0.0248859
-0.0117645
-0.00926152
-0.00524291
-0.00367463
-0.013409
-0.0217257
-0.00598411
0.00298339
-0.00437258
0.00125795
0.00133856
-0.00245899
-0.00477106
-0.01888
-0.0225467
-0.02047
-0.00779676
-0.00246278
-0.00702327
-0.00877684
-0.0142196
-0.0166029
-0.00960187
-0.00403991
-0.0047737
-0.0122594
-0.0135969
-0.00822427
-0.0102032
-0.010605
-0.00590571
-0.0276064
-0.0222031
-0.0160798
-0.0160551
-0.00997782
-0.00154523
0.00361215
-0.0158821
-0.0258776
-0.0133383
-0.00981869
-0.00583139
-0.00471236
-0.0144263
-0.021236
-0.00944247
0.00253066
-0.00448894
-0.000520192
0.00142853
-0.00326851
-0.00537948
-0.0185117
-0.0219839
-0.020027
-0.00800259
-0.00445574
-0.00688701
-0.00935265
-0.0148622
-0.0173381
-0.0104225
-0.00433109
-0.00420718
-0.0125071
-0.0137391
-0.00868439
-0.00768472
-0.0105364
-0.00644871
-0.0264344
-0.0222793
-0.0162604
-0.017305
-0.0121458
-0.00255853
0.00143884
-0.0165949
-0.0260254
-0.0158724
-0.0107831
-0.00586127
-0.00498747
-0.0159516
-0.0214087
-0.0121412
0.00101296
-0.00515615
-0.00326822
0.000893615
-0.00411249
-0.00674172
-0.0184656
-0.0227268
-0.0198022
-0.00734452
-0.00588038
-0.00706086
-0.00981328
-0.0152686
-0.0184792
-0.0120883
-0.00489331
-0.00414653
-0.0126273
-0.0126339
-0.00881304
-0.00517225
-0.0104399
-0.00638938
-0.0248221
-0.0213587
-0.0152512
-0.0181406
-0.0137286
-0.0035661
-0.00240168
-0.0171521
-0.0259542
-0.0180633
-0.0121604
-0.00591177
-0.00408324
-0.0171793
-0.0243796
-0.0125956
0.00129072
-0.00521166
-0.00644789
-0.000885828
-0.00469097
-0.00823944
-0.0183799
-0.0248155
-0.0195684
-0.00538567
-0.00548138
-0.00704364
-0.010203
-0.0152177
-0.0200676
-0.0137596
-0.00657762
-0.00532245
-0.0126957
-0.0114475
-0.0084827
-0.00469344
-0.0105976
-0.00542407
-0.0234313
-0.0183021
-0.0131926
-0.0182324
-0.0148093
-0.00303798
-0.00573074
-0.0163205
-0.0236419
-0.0197189
-0.0137471
-0.00659233
-0.00340258
-0.0178208
-0.0249202
-0.0137554
-0.000911812
-0.00105042
-0.00772183
-0.00409754
-0.0064349
-0.0101959
-0.0177572
-0.0240954
-0.0178262
-0.00413902
-0.00585524
-0.00717228
-0.0103331
-0.0155826
-0.0221899
-0.013247
-0.00717598
-0.0081941
-0.0124266
-0.0102522
-0.00909854
-0.00544741
-0.0112821
-0.00562372
-0.0230878
-0.0173269
-0.0124763
-0.0189995
-0.0149958
-0.00074875
-0.00667088
-0.0144817
-0.0198168
-0.0200701
-0.015341
-0.00629113
-0.00202961
-0.017355
-0.0216622
-0.0159402
-0.00562466
-0.000983874
-0.00656058
-0.00548264
-0.00905948
-0.0124019
-0.0171435
-0.0211917
-0.015479
-0.00395317
-0.0079459
-0.00939796
-0.0102713
-0.015869
-0.0227215
-0.0126341
-0.00732806
-0.0119409
-0.0117791
-0.0109343
-0.0117043
-0.00591987
-0.0116503
-0.00984957
-0.0229702
-0.0165573
-0.0128519
-0.0203572
-0.0142796
-0.00454486
-0.00571051
-0.0135879
-0.0152391
-0.0218954
-0.0179176
-0.00606013
-0.000321922
-0.0145137
-0.0259642
-0.0181699
-0.0122378
-0.00186637
-0.00524767
-0.00441921
-0.00907083
-0.0138231
-0.0160837
-0.0193258
-0.0140122
-0.00508693
-0.0106937
-0.0132184
-0.0109045
-0.0192725
-0.0224245
-0.0127547
-0.00724632
-0.0156013
-0.0127707
-0.0101566
-0.00934967
-0.0077401
-0.0105161
-0.0109393
-0.0219182
-0.0187832
-0.0125067
-0.0205452
-0.01323
-0.00461313
-0.00320398
-0.0123161
-0.0151938
-0.0210721
-0.0184859
-0.00743848
-0.000650937
-0.0159658
-0.0304281
-0.0187185
-0.015748
-0.00429303
-0.0052601
-0.00354989
-0.00659562
-0.0139135
-0.0148951
-0.0195484
-0.0145156
-0.00643559
-0.0116947
-0.0170862
-0.0112093
-0.0205438
-0.0196064
-0.00925955
-0.00806309
-0.0161494
-0.0152004
-0.0134269
-0.00921975
-0.00825421
-0.0117531
-0.0116108
-0.0220343
-0.024085
-0.0120783
-0.0201375
-0.0134865
-0.00725413
-0.00178156
-0.0109348
-0.00865406
-0.0150916
-0.0194464
-0.00990422
0.000306778
-0.0198724
-0.025905
-0.0153623
-0.0115719
-0.00704601
-0.00601622
-0.00519401
-0.00559222
-0.0142194
-0.0154359
-0.0182268
-0.0152805
-0.00542787
-0.012333
-0.0191674
-0.0164797
-0.020001
-0.0129377
-0.00110807
-0.00791213
-0.0141465
-0.0159829
-0.0129094
-0.00598946
-0.0113752
-0.0142071
-0.0100209
-0.0224674
-0.028271
-0.0143479
-0.0206428
-0.0146536
-0.0117464
-0.00711901
-0.0099456
-0.00794796
-0.0132919
-0.0204067
-0.0139203
0.00128385
-0.0201121
-0.0261077
-0.0120344
-0.0031022
-0.00869835
-0.00985145
-0.00883708
-0.00908928
-0.0166968
-0.0111969
-0.016616
-0.0162692
-0.010204
-0.0122532
-0.0153927
-0.0189785
-0.0230867
-0.015965
0.00487578
-0.00743392
-0.0126967
-0.0107706
-0.00957408
-0.00746891
-0.0119744
-0.0141233
-0.00931079
-0.0213995
-0.0332023
-0.017749
-0.0230505
-0.0164654
-0.0128543
-0.0108221
-0.00940988
-0.00217234
-0.00997857
-0.0257535
-0.0190239
-0.00398258
-0.0177149
-0.0316692
-0.0147082
-0.00132052
-0.00887697
-0.017726
-0.0104509
-0.00297376
-0.0141749
-0.0159479
-0.0207907
-0.0175673
-0.0156192
-0.014217
-0.0134864
-0.0159241
-0.0172473
-0.0171735
0.00447492
-0.00784657
-0.0107103
-0.00344749
-0.00775607
-0.00877068
-0.00909097
-0.0195302
-0.0122878
-0.0225871
-0.0439238
-0.018804
-0.0250489
-0.0196736
-0.0131749
-0.0118089
-0.0109893
-0.00480871
-0.00758001
-0.0189163
-0.0232076
-0.00646726
-0.0141208
-0.0336817
-0.017261
-0.00522943
-0.0155925
-0.0242985
-0.0121842
0.00202881
-0.00443339
-0.0243942
-0.021768
-0.0161568
-0.0216453
-0.017831
-0.0150155
-0.013395
-0.0185131
-0.0167711
0.000918789
-0.00735399
-0.0104013
-0.000664362
-0.00711539
-0.00877486
-0.0021757
-0.0170347
-0.0146479
-0.0186806
-0.0362529
-0.0247553
-0.0207669
-0.0195332
-0.0121058
-0.0117129
-0.0146409
-0.0142447
-0.00851622
-0.0164355
-0.0266954
-0.0109003
-0.0148893
-0.0260631
-0.0172996
-0.00467428
-0.0142214
-0.0176459
-0.0144596
-0.0015608
0.00826224
-0.0135168
-0.017312
-0.0131499
-0.0202636
-0.0157098
-0.00341916
-0.00821595
-0.0194575
-0.0153649
-0.00701741
-0.00911768
-0.0108452
-0.00077682
-0.00708754
-0.0095485
0.00659682
-0.0115038
-0.0154767
-0.0137334
-0.0238716
-0.0271979
-0.0220619
-0.0173004
-0.017986
-0.0189539
-0.0166399
-0.015906
-0.018551
-0.0263609
-0.0222903
-0.00871335
-0.0140833
-0.0210845
-0.00966939
-0.0101749
-0.0133364
-0.00888668
-0.00796949
-0.00297457
-0.00462394
-0.0272254
-0.0206778
-0.0127564
-0.0146679
-0.0154328
-0.002119
-0.0108605
-0.0179981
-0.0021882
-0.00805964
-0.0133719
-0.00845325
-0.00406951
-0.0116681
-0.0111657
0.0110993
-0.00928275
-0.010662
-0.00903205
-0.0181596
-0.0288697
-0.0224978
-0.0162011
-0.011033
-0.00664736
-0.0107936
-0.0107414
-0.0165053
-0.0142799
-0.013321
-0.0185105
-0.0281094
-0.0244183
-0.00608277
-0.00863331
-0.00985525
0.00528117
-0.00737972
0.00629563
-0.0145176
-0.0294483
-0.0181058
-0.00502612
-0.0148085
-0.0187318
-0.00156018
-0.0194459
-0.0184404
-0.00892542
-0.00833661
-0.0099217
-0.0092997
-0.00523187
-0.0139768
-0.00757959
0.00468548
-0.00946619
-0.0133502
-0.0110337
-0.0171888
-0.0268321
-0.0206213
-0.0178552
-0.00480133
-0.0077202
-0.0146209
-0.012669
-0.017669
-0.0171705
-0.012636
-0.0200324
-0.0272928
-0.0169734
-0.00381577
-0.0109793
-0.00696504
-0.00617186
-0.00996533
-0.00516477
-0.0300993
-0.0296202
-0.0107392
-0.0019323
-0.0117894
-0.0119189
0.00171418
-0.00715506
-0.0226291
-0.0130827
-0.0198594
-0.0116381
-0.00292032
-0.0211582
-0.0325716
-0.0111774
-0.00968467
-0.010442
-3.24058e-05
-0.00552459
-0.0203051
-0.0204539
-0.0176979
-0.0155142
-0.00397546
-0.00441832
-0.0116315
-0.0154198
-0.018165
-0.0224077
-0.0112571
-0.0106831
-0.0205225
-0.00952091
0.00456825
-0.0207752
-0.0042514
-0.00776569
-0.015013
-0.0130677
-0.0270156
-0.0189799
-0.0110857
-0.0238664
-0.00577691
-0.00485668
-0.00218545
-0.0138321
-0.028666
-0.01492
-0.0133128
-0.00949773
-0.0116255
-0.0291548
-0.0176673
-0.00434165
-0.0087907
-0.00921168
-0.0126108
-0.0118495
-0.0109491
-0.0198979
-0.0178839
-0.0142896
-0.0130269
-0.0141309
-0.0113277
-0.0122095
-0.0125867
-0.0104884
-0.0108604
-0.0156725
-0.0225055
-0.0203524
-0.0052937
0.00333115
0.00225052
-0.0147387
-0.00898424
-0.00119757
-0.0132252
-0.0140844
-0.00948928
-0.0327835
-0.0257569
-0.0022793
0.0104818
-0.0260611
-0.0229363
0.0171755
-0.0209308
-0.0186333
-0.0010118
0.00246506
0.0104292
-0.0144606
-0.0132704
-0.021924
-0.0314594
-0.0205149
-0.017132
-0.0211912
-0.0221837
-0.0211985
-0.00794923
-0.0120412
-0.0146149
-0.00564118
-0.00507705
-0.00561536
-0.00955652
-0.0157639
-0.020405
0.00380743
-0.00901913
-0.0109496
-0.00413819
-0.0142588
-0.0196029
-0.0115638
-0.00398785
-0.000442104
-0.00111269
-0.0266371
-0.0330705
0.00975112
-0.00408345
-0.0312142
-0.00675365
0.00651167
-0.0164433
-0.0154435
-0.00436178
-0.00835893
-0.0116568
-0.0225046
-0.00823236
-0.00855886
-0.0225166
-0.0187164
-0.0185191
-0.0204578
-0.0309345
-0.0205663
0.000377017
-0.013777
-0.0285905
-0.0242993
-0.0217976
-0.0175854
-0.0124396
-0.0169657
-0.0162187
-0.0250941
-0.0241036
-0.00485473
0.00565676
-0.00038368
-0.0232913
-0.0198151
-0.0146117
-0.0201027
-0.0242268
-0.0142629
-0.000215074
0.00515586
-0.0102842
-0.0180679
-0.00890249
-0.0107646
-0.0123467
-0.0106673
-0.0147979
-0.0282941
-0.0216384
-0.0174781
-0.00155483
-0.00555395
-0.0207992
-0.0195313
-0.0319909
-0.0234552
-0.0199538
-0.0107418
0.00219047
-0.0111958
-0.0210918
-0.0040653
-0.00846427
-0.015583
-0.00909699
-0.0321102
-0.0187651
-0.0113255
-0.0136205
-0.00865664
-0.00280207
-0.00304059
-0.0193276
-0.0155997
-0.0126765
-0.0112969
-0.0230552
-0.010482
-0.000655629
-0.00464174
-0.0186748
-0.0380726
-0.00937134
-0.00595495
-0.0303843
-0.02273
-0.0232523
-0.00971228
0.0117857
-0.023548
-0.00792998
-0.0228185
-0.0362951
-0.00209854
-0.0135191
-0.0202282
-0.0239369
-0.0236289
0.0129866
-0.00893942
-0.030727
-0.0111345
-0.013739
-0.0242296
-0.00951984
-0.0139733
-0.0228036
-0.0256452
-0.00407209
0.0118568
0.00619751
-0.00852043
-0.018691
-0.0133826
0.00567526
0.00775064
-0.0182847
-0.00960686
-0.011544
-0.0116068
-0.0186694
-0.0317761
-0.011762
-0.0433412
-0.0332069
-0.0260678
-0.0232016
-0.00778289
0.000700623
-0.0174412
-0.0301921
-0.063753
-0.0139813
0.0274734
-0.00836042
-0.0268593
-0.0224946
-0.0106032
0.00377881
-0.0325372
-0.0138579
0.0353678
-0.00766487
-0.0114265
0.0273827
-0.0227066
-0.046363
-0.00219766
-0.00411365
-0.00202236
-0.0265935
-0.00602944
-0.000411711
-0.0310169
0.000905498
0.0206797
0.0105457
0.00688497
-0.0123193
-0.0475426
-0.0318861
0.0179722
-0.00249165
-0.0158952
0.00247253
-0.0229168
-0.0323559
0.010814
-0.0177889
-0.0418997
-0.0412429
-0.0200733
0.0618224
0.0159236
-0.0502444
-0.0443938
-0.0321917
0.00440948
-0.00795999
0.000960325
-0.0131964
-0.0282506
-0.0212568
-0.0121688
-0.0107107
-0.00523875
-0.00567989
-0.0444415
-0.0118471
0.0534029
0.0438179
0.0106825
-0.00967739
0.00122013
0.011646
0.0117249
-0.00317959
-0.0255403
0.00845822
-0.00592978
-0.0192487
-0.0260047
-0.0416202
-0.00423118
0.00272517
0.00834986
0.0146194
0.00377794
-0.00115342
0.0233487
-0.0228655
-0.0327932
-0.0128747
0.00342488
-0.0203856
-0.0504916
-0.0157572
0.0210035
-0.0084436
-0.0165848
-0.0162258
-0.0142508
-0.0141772
-0.0123983
-0.00710129
-0.00767487
-0.00816698
-0.0185622
-0.00998322
-0.00711855
-0.0134193
-0.0109601
-0.0083856
-0.0123901
-0.00575876
-0.00899542
-0.0186059
-0.0261869
-0.00854751
-0.00114984
-0.00946971
-0.0115217
-0.0140307
-0.0166385
-0.0139111
-0.00433694
-0.000944866
-0.00782731
-0.0123086
-0.0148221
-0.0184017
-0.00990344
-0.00539695
-0.025895
-0.0221157
-0.0116257
-0.0176662
-0.0151288
-0.0085355
-0.0167777
-0.016317
-0.0142627
-0.0143936
-0.0125776
-0.00718052
-0.00779375
-0.00821427
-0.0186458
-0.0101119
-0.0071524
-0.0135799
-0.0111744
-0.00841503
-0.0125635
-0.00577052
-0.00899371
-0.0186753
-0.0263442
-0.00875522
-0.00125855
-0.00971038
-0.0116919