/*--------------------------------*- C++ -*----------------------------------*\
  =========                 |
  \\      /  F ield         | OpenFOAM: The Open Source CFD Toolbox
   \\    /   O peration     | Website:  https://openfoam.org
    \\  /    A nd           | Version:  10
     \\/     M anipulation  |
\*---------------------------------------------------------------------------*/
FoamFile
{
    format      ascii;
    class       volScalarField;
    location    "47.5";
    object      pMean;
}
// * * * * * * * * * * * * * * * * * * * * * * * * * * * * * * * * * * * * * //

dimensions      [0 2 -2 0 0 0 0];

internalField   nonuniform List<scalar> 
25600
(
-0.000856793
-0.000621601
-0.000388933
-0.000483379
-0.000307633
-0.000974858
-0.00191267
-0.00132249
-0.000498733
-0.00156334
-0.00157344
-0.00186797
-0.00213794
-0.00268882
-0.00224549
-0.0016763
-0.00173409
-0.00174737
-0.00135397
-0.00114611
-0.00100237
-0.00141494
-0.00190477
-0.00109159
-0.000872404
-0.000897559
-0.00137458
-0.00239722
-0.00254823
-0.00186688
-0.00135267
-0.0010787
-0.0018207
-0.00174788
-0.00108793
-0.00233618
-0.00274477
-0.00115632
-0.00107604
-0.000617673
-0.000641611
-0.000405336
-0.000153589
-0.000258637
-6.79059e-05
-0.00072793
-0.00167304
-0.00106583
-0.000248474
-0.00133643
-0.0013457
-0.00163098
-0.00188083
-0.00244925
-0.00202635
-0.00141958
-0.00149924
-0.00153742
-0.0011492
-0.000930804
-0.000757936
-0.00116311
-0.00162492
-0.000807403
-0.000598915
-0.000642886
-0.0011504
-0.00215715
-0.00230173
-0.00160901
-0.00109831
-0.000843039
-0.00158578
-0.00146691
-0.000824477
-0.00210008
-0.00250186
-0.000900414
-0.000835343
-0.000377797
-0.000564269
-0.000363634
-8.65018e-05
-0.000194839
-1.82902e-05
-0.000654531
-0.00155087
-0.000944722
-0.000122058
-0.00125522
-0.00128517
-0.00156016
-0.00176623
-0.00232987
-0.00197507
-0.001319
-0.00136804
-0.00144837
-0.00107684
-0.000916689
-0.000722108
-0.00108276
-0.0014887
-0.000644971
-0.000462292
-0.000534152
-0.00103708
-0.0020539
-0.00222193
-0.00154443
-0.000989259
-0.000758312
-0.00153146
-0.00133354
-0.000711136
-0.00201373
-0.00237171
-0.000777815
-0.000745368
-0.000294832
-0.000713602
-0.000557894
-0.000259111
-0.00040068
-0.000223648
-0.000825901
-0.00163585
-0.00103081
-0.000202223
-0.00136893
-0.00149002
-0.00175811
-0.00190175
-0.00244899
-0.00221173
-0.0015195
-0.00143521
-0.00153642
-0.0012387
-0.00119098
-0.00100274
-0.00127692
-0.00166418
-0.000789556
-0.000589933
-0.000674235
-0.00114342
-0.00216403
-0.00236544
-0.0016991
-0.00109029
-0.000924377
-0.00172075
-0.00148478
-0.000869393
-0.00219722
-0.00249039
-0.000904215
-0.000930011
-0.000488889
-0.000904104
-0.000752878
-0.000469752
-0.000654615
-0.000450663
-0.00100514
-0.00172853
-0.00110436
-0.000302128
-0.00145778
-0.00171409
-0.00202596
-0.00207877
-0.00260252
-0.00250845
-0.00183979
-0.00154612
-0.00159069
-0.00142038
-0.00150125
-0.00134059
-0.00153158
-0.00195414
-0.00105313
-0.000798927
-0.00086681
-0.00131813
-0.00230887
-0.00252084
-0.00180513
-0.00119897
-0.00114177
-0.00192582
-0.00172625
-0.00116162
-0.00244401
-0.00270943
-0.00111889
-0.00116739
-0.000757644
-0.00115585
-0.00096738
-0.00068915
-0.000932285
-0.000667575
-0.00119867
-0.00181612
-0.00113279
-0.00039326
-0.00152095
-0.00188537
-0.00229568
-0.00226647
-0.00277302
-0.00280086
-0.00221555
-0.00173011
-0.00169527
-0.00162071
-0.00178325
-0.00166743
-0.0017821
-0.00226029
-0.00137764
-0.00104947
-0.00111262
-0.00152042
-0.00247319
-0.00269377
-0.00187432
-0.00137668
-0.00139366
-0.00214895
-0.00201146
-0.00157765
-0.00271357
-0.00292523
-0.00135704
-0.00141292
-0.00103315
-0.00145737
-0.00118009
-0.000901379
-0.0012291
-0.000917689
-0.00149548
-0.00192558
-0.00116825
-0.000524941
-0.00156016
-0.0019912
-0.00251069
-0.00251027
-0.00300767
-0.00310426
-0.00261284
-0.00201989
-0.0019489
-0.00186576
-0.00197119
-0.0019391
-0.00205041
-0.00253291
-0.00178629
-0.00130103
-0.00138855
-0.00173816
-0.00261385
-0.00282829
-0.0020241
-0.00163796
-0.00167684
-0.00237301
-0.00230475
-0.00201515
-0.00289529
-0.00300045
-0.00155581
-0.0016122
-0.00131287
-0.00184467
-0.00135134
-0.00113041
-0.00151776
-0.00123575
-0.00186712
-0.00208002
-0.00130163
-0.000716566
-0.00158057
-0.00209912
-0.00269143
-0.0028168
-0.0032308
-0.00342427
-0.00308094
-0.00242002
-0.00226407
-0.00210911
-0.00208694
-0.00221385
-0.00239222
-0.00279979
-0.00222285
-0.00156033
-0.00165197
-0.001996
-0.00274188
-0.00285217
-0.00219252
-0.00187562
-0.00193327
-0.00256109
-0.00254101
-0.00232374
-0.00286174
-0.00303082
-0.00174682
-0.00175526
-0.00158584
-0.00222964
-0.00156152
-0.00137907
-0.00178067
-0.00153619
-0.00221386
-0.00228799
-0.00160248
-0.000960729
-0.00170141
-0.00227775
-0.00289198
-0.00308664
-0.00338083
-0.00365882
-0.00350211
-0.00280993
-0.00247911
-0.0022877
-0.00221849
-0.00252177
-0.00274066
-0.0030006
-0.00244518
-0.00181301
-0.00192007
-0.00225972
-0.00280761
-0.00278811
-0.00227429
-0.00208061
-0.00212021
-0.0026532
-0.00277745
-0.00256199
-0.00273251
-0.00307346
-0.0019541
-0.00196167
-0.00185504
-0.00242496
-0.00181235
-0.00158872
-0.0020251
-0.00178225
-0.00244618
-0.00246457
-0.00193942
-0.00117655
-0.00182958
-0.00237843
-0.00299301
-0.00325163
-0.00346044
-0.00380912
-0.00378975
-0.00304562
-0.00257649
-0.00240813
-0.00245586
-0.00283818
-0.00297688
-0.00299606
-0.00246061
-0.00207283
-0.00221849
-0.00244275
-0.00272258
-0.00261478
-0.00233402
-0.00222403
-0.00216615
-0.00263538
-0.00301793
-0.00275914
-0.00260959
-0.00298835
-0.00217912
-0.00226078
-0.00210486
-0.00242902
-0.00198007
-0.00174851
-0.00220617
-0.00206606
-0.00258698
-0.00257797
-0.00224699
-0.00142012
-0.00192632
-0.00221475
-0.00293571
-0.00327279
-0.00337277
-0.00385853
-0.00394725
-0.00311066
-0.00257825
-0.00242524
-0.00275975
-0.0032938
-0.0031483
-0.00296109
-0.00229723
-0.00226813
-0.00249513
-0.00249422
-0.00249944
-0.00234928
-0.0024713
-0.0024225
-0.00216056
-0.00262783
-0.00325901
-0.00292609
-0.0025381
-0.0029038
-0.00236149
-0.00249563
-0.00228996
-0.00226868
-0.0019516
-0.0018477
-0.00227935
-0.0022311
-0.00255113
-0.00243564
-0.0024018
-0.00168612
-0.00186581
-0.00186465
-0.00279332
-0.00312768
-0.00313262
-0.00392094
-0.00379096
-0.00295609
-0.00242524
-0.00221558
-0.00293649
-0.00359826
-0.00329812
-0.00294532
-0.00207501
-0.00232569
-0.00262769
-0.00230063
-0.00212041
-0.00212334
-0.00248447
-0.00249635
-0.00213824
-0.00262689
-0.00332173
-0.00294865
-0.00238945
-0.00272327
-0.00231521
-0.00250787
-0.00227861
-0.00227326
-0.00191318
-0.00178292
-0.00220423
-0.00239248
-0.00244456
-0.00210179
-0.00221289
-0.00177425
-0.0016968
-0.00173313
-0.00274956
-0.00273114
-0.00262759
-0.00346624
-0.00327819
-0.0026817
-0.00215236
-0.00180391
-0.00271162
-0.00336702
-0.00325134
-0.00273503
-0.00196993
-0.00234569
-0.00248185
-0.00208112
-0.00183349
-0.0017708
-0.00204152
-0.00212315
-0.00209583
-0.00259198
-0.00333353
-0.00309648
-0.00230849
-0.0023393
-0.00228662
-0.00243264
-0.00221528
-0.00209908
-0.0016353
-0.00146271
-0.00190517
-0.00235216
-0.00209968
-0.00153843
-0.00159731
-0.00148961
-0.00132224
-0.00159983
-0.00281338
-0.00244304
-0.00220275
-0.00288592
-0.00281336
-0.00240646
-0.0017074
-0.00134317
-0.00227018
-0.00267925
-0.00292526
-0.00234144
-0.00178138
-0.00212801
-0.00192904
-0.00181214
-0.00157441
-0.00113683
-0.00123593
-0.00149839
-0.00193759
-0.00229355
-0.00317531
-0.00329483
-0.0022618
-0.00211751
-0.00224762
-0.00213849
-0.00199527
-0.00149399
-0.00109291
-0.000935214
-0.00150687
-0.00215332
-0.00166977
-0.00104624
-0.00120145
-0.00125483
-0.000978194
-0.00131929
-0.00246713
-0.00203781
-0.00199472
-0.00250453
-0.00250854
-0.00231346
-0.00122482
-0.000867957
-0.00182202
-0.00232196
-0.0025688
-0.00182097
-0.00153296
-0.00163078
-0.00145157
-0.00153984
-0.000982183
-0.00044795
-0.000683209
-0.0012362
-0.00164047
-0.00190396
-0.00293662
-0.00303039
-0.00226399
-0.00211003
-0.0019555
-0.00171613
-0.00140669
-0.00117889
-0.00111328
-0.000833729
-0.00142912
-0.00194505
-0.00128663
-0.000762473
-0.000865951
-0.000866926
-0.000622624
-0.000880971
-0.00175118
-0.00131512
-0.00143785
-0.00179769
-0.00197043
-0.0018141
-0.000739522
-0.000644401
-0.00139706
-0.00213194
-0.00217728
-0.00125998
-0.000918728
-0.000941241
-0.00106428
-0.00121804
-0.000337308
0.000153225
-0.00019939
-0.00101756
-0.00137923
-0.00156059
-0.00256267
-0.00286084
-0.00231825
-0.00190961
-0.00177397
-0.00159592
-0.00100257
-0.000544851
-0.000299461
-0.000344887
-0.0011803
-0.00136158
-0.000835678
-0.000583764
-0.000516585
-0.00021026
-0.000166299
-0.000816178
-0.00150668
-0.00112233
-0.0010197
-0.0011027
-0.0015048
-0.00134109
-0.000702802
-0.000833993
-0.0011657
-0.00142659
-0.00122704
-0.000425545
2.81678e-05
1.55986e-06
-0.000296745
-0.000514565
0.000291452
0.000541361
0.000107685
-0.000894692
-0.00129544
-0.00127516
-0.00212679
-0.0026659
-0.00215513
-0.00148467
-0.00108954
-0.00069875
-0.000339827
-0.00015161
0.000161184
0.000128573
-0.000815916
-0.0010634
-0.000645504
-0.000565513
-0.000545564
-0.000133976
0.000147071
-0.000349788
-0.00080131
-0.000704122
-0.000512779
-0.000331237
-0.000621004
-0.000708433
-0.00047671
-0.00108727
-0.0014646
-0.00156393
-0.00112981
-0.000411896
6.34885e-05
0.000613001
0.000555472
8.2577e-05
0.000190379
0.000259589
-6.73536e-05
-0.000841026
-0.00131559
-0.00146116
-0.00199696
-0.00267443
-0.00227573
-0.0013602
-0.000259092
0.000584752
0.000192796
-0.000540001
-0.00020475
-0.000119741
-0.000842018
-0.00124115
-0.000795038
-0.000487761
-0.000410572
-2.38878e-05
0.000315964
0.000248827
0.000236916
-2.23138e-05
-0.000359005
-0.000166342
1.206e-05
7.03735e-05
-5.59026e-05
-0.00070545
-0.000827332
-0.000662644
9.96425e-05
0.00037195
0.000495072
0.000870736
0.00102181
0.000810738
6.93888e-05
-0.000307834
-0.000398949
-0.000411308
-0.000532281
-0.000782912
-0.00110433
-0.00164414
-0.00138796
-0.0007327
0.00014167
0.000541423
4.20473e-05
-0.000576475
-0.000176943
-1.47985e-05
-0.000481835
-0.00117622
-0.00111964
-0.00070523
-0.000489265
0.000238371
0.000849519
0.000473988
6.51784e-05
-0.000262286
-0.000672484
-0.000536448
-0.000267653
-0.00029705
-0.000798241
-0.00129342
-0.000886188
-0.000201008
0.000375238
0.000618797
0.000782135
0.00078107
0.000700357
0.000851877
6.24523e-05
-0.000474776
-0.00045263
-3.82831e-05
5.15965e-05
-0.00012625
-0.000280092
-0.000544768
-0.000564227
-0.000251019
5.21908e-05
0.000267545
9.16429e-05
-0.000716166
-0.000925815
-0.000827285
-0.000683541
-0.000886972
-0.00116399
-0.000899111
-0.000279219
0.000490673
0.000809809
0.000940021
0.00100845
0.000704992
0.000134562
6.70548e-05
0.000376489
0.000213452
-0.000685741
-0.00106619
-0.000800272
-0.000390008
0.000300826
0.000486112
0.000737982
0.000839558
0.000909283
0.00104457
0.000714439
0.000362065
0.000367793
0.000352398
0.000213568
0.000149011
-0.000121116
-0.000514864
-0.000539773
-0.000207984
-4.43074e-05
0.000138624
3.61292e-06
-0.00122136
-0.0011303
-0.000508124
-5.01139e-05
-0.000604521
-0.00120369
-0.00136984
-0.00109515
-0.000379148
0.000193787
0.000158969
-1.91501e-05
-7.03678e-05
-0.000100743
-9.28503e-05
0.000356689
0.000318549
-0.000687766
-0.00103731
-0.000967948
-0.000684829
-0.00063803
-0.00101079
-0.00107316
-0.000598873
-0.000295542
-0.000283427
-0.000126161
-1.47583e-05
9.92508e-05
0.000385095
0.000266112
-5.68613e-06
-0.000248766
-0.000465579
-0.000220524
0.000695384
0.000863833
0.000206504
-0.000600184
0.0006424
0.000285762
0.000285184
0.000394992
-9.39249e-05
-0.000375072
-0.000320149
-0.000156572
0.000257197
0.000697513
0.000197728
-0.000524469
-0.000338544
1.55535e-05
8.8898e-05
-1.4655e-05
-0.000230208
-0.000652451
-0.00052521
-0.000272584
-0.000262898
-0.00032316
-0.000633825
-0.00077645
-0.000462326
-0.000289998
-0.000173956
0.000542253
0.000661305
0.000623858
0.000723704
0.000437847
-0.000443188
-0.000943436
-0.00124385
-0.000334509
0.0011101
0.00178898
0.00164287
0.00133222
0.000294938
-0.000473018
0.000121118
0.000468366
3.10299e-05
-0.00050942
-0.000590428
4.54957e-05
0.000175583
-0.000483753
-0.000915991
-0.00074946
-0.000471169
-0.000550969
-0.000534954
-0.00054314
-0.000804742
-0.00137439
-0.0014246
-0.0008205
-0.000267537
0.000199486
0.000259467
0.000358205
0.00029718
0.000162242
-0.000171647
-0.000130455
-0.000407485
-0.000464321
-0.000524125
-0.000337747
-0.000460436
-0.000423186
-0.000508984
0.000328906
0.00126914
0.00119361
0.00150102
0.00141508
-0.000628263
-0.00066962
8.51435e-05
0.000812261
0.000388083
-0.00042584
-0.000632093
-0.000212215
2.08409e-05
7.03416e-05
-6.86634e-05
5.79823e-06
0.000257353
-0.00048819
-0.000556696
2.5142e-05
9.55512e-05
-0.000149656
-6.6551e-05
0.00047638
0.00109901
0.0011521
0.000724871
0.000590398
0.000430818
0.00019497
-0.000256742
-0.000950769
-0.00110226
-0.000630357
-0.000207682
8.09102e-05
0.000154123
0.000130056
0.000420539
0.00108832
0.000706851
0.000239168
0.000363694
6.77664e-05
-0.00045693
-0.000340067
-0.000554453
-0.000563528
-0.000328453
-0.000320351
-0.000454891
-0.000158498
2.4016e-05
-0.000135834
-0.000649847
-0.000572423
-0.000206873
0.000296715
0.000897318
0.00126111
0.000617621
0.00027952
0.000269434
0.000355115
0.000653058
0.000158449
-0.000320909
-0.000205283
0.000383923
0.000415738
0.000254489
-0.000134767
-0.000127178
0.000373031
0.000540265
0.000977535
0.00146369
0.00096906
0.000219315
5.6353e-05
-0.000552369
-0.000630561
-0.000408359
-0.000497776
-0.000577978
-0.00019259
-0.000427332
-0.000606005
-0.000379833
1.95642e-05
-0.000458379
-0.000995817
-0.0010854
-0.00062697
-0.000509361
-0.000174585
0.00029931
0.000850385
0.000292704
-0.000510423
-0.00028282
0.000465404
0.000707666
8.39841e-05
-0.000657051
-0.000919023
-0.000856739
-0.000775382
-0.000472657
-0.000417875
-0.000996735
-0.00106921
-8.41285e-05
0.000509242
-3.57624e-06
0.000138046
0.000369603
-0.000496559
-0.00119491
-0.000929948
-0.000833065
-0.000510749
-0.000582223
-0.000801794
-1.47706e-05
-0.000449559
-0.000890023
-0.000967248
-0.00109071
-0.00111449
-0.00114929
-0.00142297
-0.00177373
-0.00179268
-0.00172323
-0.00150854
-0.00163669
-0.00192129
-0.00212132
-0.00200413
-0.00157571
-0.00155472
-0.00132151
-0.000849681
-0.000542395
-0.000402444
-0.000342216
-0.000312363
-6.61012e-05
0.000151943
-0.00046789
-0.000376449
0.000435124
0.000593723
0.000117631
-0.000339991
-0.000913027
-0.0013153
-0.00150632
-0.00149084
-0.000867806
6.88373e-05
0.000330768
0.000203071
-0.000385548
-0.00107855
-0.00139907
-0.000838403
-0.0006919
-0.00128915
-0.00123266
-0.00117654
-0.0011964
-0.00138959
-0.00131526
-0.00137378
-0.00221699
-0.00207428
-0.00130377
-0.000856355
-0.000619777
-0.00093865
-0.00119349
-0.000485561
-5.74805e-06
9.53924e-05
-2.20006e-05
-0.000717956
-0.00123151
-0.00128968
-0.000425219
0.000415229
0.000615498
-2.07909e-05
-0.000680119
-0.00135373
-0.00160238
-0.00102704
-0.000799292
-0.00155426
-0.00193082
-0.00155034
-0.000962341
-0.000599005
-0.0022284
-0.0015709
-0.00137602
-0.00144374
-0.00167786
-0.00201463
-0.00175516
-0.00118326
-0.000764784
-0.000611206
-0.000565427
-0.000675198
-0.000876616
-0.000680347
-0.00105565
-0.00191835
-0.00207924
-0.00173692
-0.00149486
-0.000896134
-0.00072908
-0.000878021
-0.00126679
-0.00204404
-0.00282141
-0.00364338
-0.00334332
-0.00245681
-0.00187037
-0.00172352
-0.00167128
-0.00170638
-0.00199983
-0.00213932
-0.00156924
-0.00157301
-0.00119624
-0.000731848
-0.001654
-0.00273838
0.00300731
0.00281471
0.00286756
0.00243459
0.00134651
0.000495312
0.000688588
0.00126642
0.00187607
0.00203828
0.0016413
0.00168012
0.00269356
0.00284905
0.00151137
0.000700804
0.00126113
0.00119348
0.000989089
0.00188803
0.00248452
0.00222942
0.00251734
0.00229584
0.00133088
0.000737925
0.00141234
0.00164294
0.00102999
0.00129241
0.00131861
0.000372878
-8.68173e-06
-7.97764e-05
0.000531588
0.000904672
0.000924858
0.00110728
0.00117337
0.00182178
0.00605106
0.00754581
0.00940834
0.00886885
0.0082269
0.00762992
0.00790453
0.0083467
0.00867196
0.00862193
0.00860629
0.00765233
0.00730038
0.00641285
0.005775
0.00525395
0.00475772
0.00558626
0.00644044
0.00697711
0.00696924
0.00817379
0.00948017
0.00859654
0.00813161
0.00889768
0.00879987
0.00829849
0.00930627
0.00933449
0.00785878
0.00560671
0.00494869
0.00639714
0.00720753
0.00647427
0.00531861
0.00384769
0.00378951
0.00522153
0.00807161
0.00785507
0.00869855
0.00869404
0.00885658
0.00876691
0.0083935
0.00898623
0.00905623
0.00828735
0.00832212
0.00822363
0.00825184
0.00773742
0.00784333
0.00819474
0.00793264
0.00773752
0.00812581
0.00797118
0.00713075
0.00802358
0.00867815
0.00898649
0.00949751
0.00884654
0.00854125
0.00822802
0.00832651
0.00865396
0.00813115
0.00811048
0.0086922
0.00905156
0.00861494
0.00879613
0.00814221
0.00833894
0.00825058
0.00827314
0.00803085
0.00779886
0.00863928
0.00864056
0.00879768
0.00871809
0.00835014
0.0089478
0.00901115
0.00824333
0.00827033
0.00817192
0.00820497
0.00769702
0.00779697
0.00814873
0.00787719
0.00768738
0.00807194
0.0079106
0.00706792
0.0079721
0.00863239
0.00893624
0.00945901
0.00880695
0.00850067
0.00819472
0.00828628
0.00861125
0.00809306
0.00805986
0.00863317
0.00898582
0.00855164
0.00875184
0.00809984
0.00829273
0.00821013
0.00822068
0.00782971
0.00758895
0.00844769
0.0084532
0.00860866
0.0085432
0.00819245
0.0087983
0.00886179
0.00807757
0.0080841
0.00799154
0.00803864
0.00753782
0.00762535
0.00798784
0.00769517
0.00748298
0.00784793
0.00767148
0.00687194
0.00779063
0.0084724
0.00877256
0.00931945
0.00864397
0.00836128
0.00804882
0.00812711
0.00844901
0.00793575
0.0078771
0.00843283
0.00880888
0.00836874
0.0085706
0.00791235
0.00809751
0.00802772
0.00802256
0.00731988
0.00710318
0.00798197
0.00796901
0.00813292
0.00808506
0.00775271
0.00833528
0.00838203
0.00760615
0.00759644
0.00750353
0.00754787
0.00708457
0.00715317
0.00752361
0.00721354
0.00696834
0.00731424
0.00710703
0.00636827
0.00730912
0.00799644
0.00828237
0.00887272
0.00819981
0.00794313
0.00761145
0.00767605
0.00800356
0.00750944
0.00740563
0.00796144
0.008343
0.00788389
0.00806304
0.0073902
0.0075794
0.00752406
0.00748661
0.00670179
0.00654997
0.00744096
0.00740135
0.00759562
0.00754961
0.00720706
0.00773942
0.00778035
0.00705078
0.00701539
0.00686105
0.00691844
0.00653212
0.00657675
0.00693108
0.00661728
0.00634803
0.00667074
0.00643746
0.00577006
0.00671786
0.00736725
0.00765047
0.00830546
0.00766014
0.00742114
0.00707399
0.00713737
0.00751251
0.00704933
0.00688754
0.00742135
0.00779579
0.00730004
0.00741336
0.00671576
0.00693225
0.0068918
0.00683645
0.0059687
0.00591544
0.00680798
0.0067564
0.00700275
0.00691699
0.00650879
0.00697309
0.0070311
0.00638714
0.00629741
0.00606681
0.00615054
0.00583944
0.00588488
0.00619001
0.0058614
0.00557387
0.00588443
0.00569029
0.00508859
0.00598206
0.00655644
0.00692199
0.00762246
0.00699027
0.00674746
0.00641238
0.00647642
0.00693517
0.00650064
0.00629791
0.00676023
0.00712004
0.00659987
0.00662748
0.00590931
0.00614362
0.00614014
0.00609115
0.00521657
0.0052575
0.00612742
0.00609583
0.00637779
0.00620254
0.00569638
0.00610812
0.0061879
0.00571548
0.00555048
0.0052553
0.00531288
0.00506604
0.00512877
0.0053747
0.0049958
0.0047364
0.00502504
0.00490446
0.00437967
0.0051715
0.00569915
0.00614887
0.00686636
0.00624775
0.00600364
0.00569781
0.00577961
0.00627126
0.00589877
0.00566369
0.00602373
0.00636346
0.00583024
0.00580166
0.00508295
0.00532679
0.00536163
0.00533655
0.00447636
0.00457062
0.00540921
0.00543477
0.00564197
0.00535958
0.00483163
0.00520244
0.00531507
0.00507232
0.00484879
0.00446565
0.00445772
0.00429647
0.00435123
0.00451173
0.00406854
0.00390355
0.0041385
0.00409064
0.00365967
0.00431955
0.00488451
0.00534876
0.00607742
0.00548943
0.00527942
0.00501616
0.00516498
0.00560171
0.00528352
0.00502523
0.00527816
0.00558812
0.00505291
0.00501062
0.00431129
0.00451616
0.00463753
0.00461564
0.00384881
0.00384959
0.00467349
0.00478657
0.00484499
0.00449778
0.00405887
0.00436436
0.00453994
0.0044941
0.00422583
0.00374633
0.00370548
0.00361502
0.00353837
0.00358685
0.00317687
0.00310798
0.00325546
0.0032906
0.00300861
0.00352188
0.00417603
0.00461999
0.00531458
0.00479137
0.00465008
0.00442459
0.00470962
0.00505032
0.00475797
0.00440265
0.00458967
0.0048858
0.00429015
0.0042664
0.00364653
0.00374934
0.00401527
0.0040346
0.0034383
0.00326593
0.00399994
0.00413488
0.0040388
0.0037192
0.00344031
0.00365014
0.00390051
0.00395469
0.00376214
0.00322029
0.00314091
0.00301359
0.00273299
0.00271259
0.00239138
0.00240608
0.00245386
0.00263116
0.00246902
0.00288629
0.00361992
0.00405633
0.00464069
0.00418032
0.00408799
0.0038999
0.00431248
0.00458026
0.00433034
0.00388648
0.00401521
0.00432005
0.00361816
0.00359821
0.00309094
0.0031143
0.00356255
0.00367385
0.00318727
0.00293107
0.0034679
0.00344657
0.00320628
0.00304781
0.00297739
0.00308677
0.00336626
0.00349496
0.00343991
0.00285441
0.00267609
0.00254174
0.00213686
0.00201285
0.00187477
0.00197443
0.00196181
0.00215385
0.00203321
0.00242927
0.00320695
0.00372995
0.00408039
0.00359637
0.00353611
0.003444
0.00385967
0.00397285
0.0037266
0.00338392
0.00357921
0.00386984
0.00311642
0.00310922
0.00267815
0.00263867
0.00324538
0.00340912
0.00299394
0.00276084
0.00308
0.00295962
0.00271309
0.00268405
0.00277102
0.00268318
0.00284184
0.00306261
0.00318807
0.00265279
0.00238818
0.00234311
0.00183616
0.0016409
0.00167256
0.00175772
0.00169134
0.00187829
0.00178188
0.00200968
0.00292844
0.00361889
0.0036153
0.00298285
0.00285429
0.0030401
0.00348275
0.00350378
0.00319367
0.00291169
0.00329311
0.00353819
0.00291155
0.00293605
0.00245969
0.00230264
0.00297812
0.00310718
0.00289604
0.00259796
0.00283149
0.00255762
0.00236793
0.00255903
0.00275443
0.00255742
0.00254897
0.00287229
0.0030572
0.00263887
0.00240523
0.00232739
0.00188401
0.00168051
0.00161353
0.0016813
0.00152843
0.00170833
0.0016565
0.00167174
0.00249077
0.00335834
0.00330884
0.00261628
0.00232092
0.00248711
0.00296165
0.00306923
0.00283123
0.00255501
0.00291084
0.0030771
0.00270302
0.00282157
0.00244852
0.00212861
0.00278533
0.00298117
0.00279379
0.00241549
0.00278202
0.00238715
0.0022863
0.00249137
0.0025817
0.00242876
0.0024942
0.00295274
0.00312788
0.00256559
0.00237136
0.00234582
0.00203826
0.0017251
0.00148418
0.00158314
0.00158455
0.00171957
0.00169363
0.00154736
0.00199328
0.00280621
0.00300527
0.00245077
0.0020209
0.00198758
0.00242924
0.00274593
0.00256741
0.00228791
0.00230981
0.00252166
0.00240785
0.00252673
0.00225497
0.00195764
0.00257663
0.00290598
0.00289741
0.00250006
0.0029456
0.00249969
0.0022208
0.00224543
0.00214336
0.00215027
0.00237658
0.00293209
0.00303589
0.00243367
0.00228572
0.00235703
0.00211069
0.00161771
0.00138871
0.0016159
0.00176427
0.00180958
0.00156717
0.0012385
0.00155127
0.00219116
0.00247006
0.00212942
0.00180219
0.00193107
0.00246202
0.00296415
0.00267864
0.00239829
0.00235199
0.00225069
0.00208692
0.00218427
0.00219902
0.00208736
0.00250582
0.00291942
0.00277372
0.0024455
0.00284056
0.0024292
0.00206398
0.00209307
0.00213258
0.00231535
0.00263722
0.00300672
0.00308149
0.00256162
0.00243378
0.00243353
0.00214953
0.00179222
0.00179587
0.00218336
0.00219133
0.00200757
0.0015252
0.00132128
0.00166007
0.00193906
0.00225429
0.00219428
0.00207331
0.00228253
0.00262727
0.00311622
0.00272654
0.00251977
0.00260795
0.0021844
0.00184375
0.00200879
0.00230846
0.00230761
0.00243911
0.00267579
0.00231059
0.00216313
0.002465
0.00230277
0.0019624
0.00198986
0.00219717
0.00222111
0.00263513
0.00286032
0.0028265
0.00242427
0.00221597
0.00195313
0.00166859
0.00156113
0.00189665
0.00230577
0.00223725
0.00186552
0.00150847
0.0015781
0.001632
0.00176521
0.00218275
0.00235847
0.00205024
0.00224541
0.0024024
0.00303892
0.00303442
0.00276912
0.00262527
0.00225423
0.00197535
0.00205016
0.00225465
0.0022639
0.00232392
0.00223838
0.00198473
0.00203104
0.00230932
0.00237445
0.00209424
0.00175854
0.00186212
0.00207909
0.00244501
0.002572
0.00242906
0.00202592
0.00181638
0.00170789
0.00156826
0.00169776
0.00204072
0.00208284
0.00181007
0.00179669
0.00190134
0.00188804
0.00157998
0.00173297
0.00233006
0.00244791
0.00207588
0.00210797
0.00225812
0.00291778
0.00310098
0.00259341
0.00235221
0.00229415
0.00199168
0.00173332
0.00199362
0.0023098
0.00256494
0.00223545
0.00198357
0.00207834
0.00216656
0.0022629
0.00185876
0.00110397
0.00125252
0.00186232
0.00226882
0.00246906
0.0023409
0.00211047
0.0016355
0.00129874
0.00156879
0.00212716
0.00252591
0.00212024
0.00162837
0.00184474
0.00192819
0.00172522
0.00155309
0.0017514
0.00220716
0.00242076
0.00238055
0.00227451
0.00207687
0.00252431
0.00264097
0.00223451
0.00208949
0.0020338
0.00156441
0.00127995
0.00166683
0.00204592
0.00234659
0.00221735
0.00188433
0.0019211
0.00189281
0.00191757
0.00166136
0.001044
0.00110405
0.00136708
0.00184281
0.00246589
0.00231782
0.00198097
0.0014353
0.00118101
0.0015318
0.00227072
0.00258729
0.00191686
0.00144079
0.00170271
0.00175104
0.00152839
0.00162595
0.00181583
0.0020159
0.00244665
0.00278216
0.00270852
0.00218631
0.00209561
0.0024329
0.0025
0.00218261
0.00172115
0.00139537
0.00134012
0.0018236
0.00205561
0.00231104
0.00214189
0.00204278
0.00169054
0.00164888
0.0015859
0.00126374
0.000730256
0.000445152
0.000853422
0.00150184
0.00189505
0.00163513
0.00133039
0.00115757
0.00130116
0.00149318
0.00204977
0.00224796
0.00161284
0.00129712
0.00163787
0.00187656
0.0017977
0.00172078
0.00192977
0.00218169
0.00248913
0.00280637
0.00292978
0.00245346
0.00204855
0.00239758
0.00265531
0.00222826
0.00155465
0.00116163
0.0010153
0.0016419
0.00244031
0.00285429
0.00255315
0.00229498
0.00197788
0.00213389
0.00205623
0.00136722
0.000558728
0.000156776
0.00066838
0.0014972
0.00183114
0.00151808
0.00120109
0.00133084
0.00141476
0.0014537
0.00167191
0.00168952
0.0013758
0.00137208
0.00133529
0.00134002
0.00146761
0.00125901
0.000887475
0.00108103
0.0011929
0.00129484
0.001786
0.00191767
0.0019398
0.00238859
0.00267664
0.00244649
0.00211165
0.00182409
0.00167243
0.00216191
0.00270989
0.00267802
0.00265141
0.00256271
0.00214841
0.00199311
0.00197594
0.00178571
0.00120191
0.000766168
0.000640968
0.000906518
0.00137833
0.00141074
0.00104166
0.000978919
0.000870823
0.000799976
0.00096753
0.00100957
0.000896145
0.000661666
0.000618749
0.00110723
0.00175011
0.00136154
0.000744715
0.00103318
0.00125059
0.0013808
0.0015532
0.00139581
0.00147378
0.00211803
0.0026548
0.0026516
0.00242456
0.00230283
0.00259076
0.00294695
0.00290302
0.00278428
0.00296663
0.00220977
0.00154461
0.00185636
0.0019253
0.0017526
0.00157366
0.00140516
0.000945285
0.000700173
0.000757354
0.000853426
0.000938123
0.000941509
0.000722235
0.00116704
0.00178862
0.00176414
0.00160055
0.00141737
0.00121325
0.00161384
0.00170443
0.00102298
0.00101691
0.00132578
0.00131104
0.0012021
0.000948291
0.000867978
0.00130654
0.00198807
0.00222393
0.00209245
0.00224514
0.00241727
0.00245365
0.00254058
0.002302
0.00256411
0.00293769
0.00216339
0.00186556
0.00177033
0.00147579
0.00132856
0.00131862
0.00139171
0.00137971
0.00146358
0.00189501
0.00193309
0.00175221
0.00169886
0.00151258
0.00215203
0.00241988
0.0020857
0.00210089
0.00198096
0.00195257
0.00201873
0.00159266
0.00126442
0.00159903
0.00173949
0.00154632
0.00169118
0.00141307
0.00138705
0.00183503
0.00206043
0.00183606
0.00190027
0.0023139
0.00221142
0.00218333
0.00204746
0.00190903
0.00240906
0.00274936
0.000475681
0.000453471
1.32612e-05
-9.44193e-06
0.000271969
0.000303072
0.000582803
0.000820175
0.0011538
0.0015391
0.00160236
0.00161512
0.0017313
0.00191894
0.00218089
0.00155377
0.000448022
-1.39905e-05
-4.69275e-05
0.000407448
0.000801528
0.000849586
0.000873154
0.000881414
0.000690336
0.000627237
0.000782242
0.000524642
0.000497602
0.0007976
0.000546759
0.000141872
0.000676789
0.00110712
0.000763575
0.000315084
-0.000122232
0.00017513
0.000743332
0.000568258
0.00106465
0.00111254
0.00103418
0.00169192
0.00170721
0.00124993
0.0012163
0.00106603
0.000847043
0.000918292
0.000824821
0.00120725
0.00168617
0.00143684
0.000511716
-0.000410891
-0.000777832
-0.000855484
-0.000359393
0.000263398
0.00107321
0.00161964
0.00150095
0.00137612
0.00142211
0.00146254
0.000738458
0.000208444
0.000717024
0.001268
0.000637124
0.000496514
0.00107539
0.000800002
0.000437102
0.00030673
-6.86527e-05
-2.02538e-05
0.000483667
0.00077114
0.000787618
0.000275812
0.000337428
0.000317616
-0.000354739
-0.000736634
-0.00108696
-0.00127521
-0.00108279
-0.000767749
-0.000803122
-0.000253927
-0.000434419
-0.00123588
-0.00168257
-0.000836233
1.19732e-05
-5.83097e-05
-1.39038e-05
0.000736658
0.00105358
0.000801093
0.000331938
-4.74443e-05
0.000371071
0.000207821
-0.000119582
0.000192809
0.00112363
0.00129132
0.00090848
0.000741473
0.000250626
-0.000705865
-0.000804374
-0.00057639
-0.000640949
-0.00068887
3.8092e-05
0.000916302
0.000281137
-0.000799189
-0.000737948
-0.000270739
-0.000600025
-0.000576157
-0.000827592
-0.00105322
-0.000348775
-0.00018609
0.000108963
0.000411249
-0.000359004
-0.00107497
-0.000406168
0.000433861
0.000102464
-5.05912e-05
-1.77802e-06
0.00114213
0.00176315
0.00161554
0.00113721
0.000621962
4.23075e-05
-0.000887336
-0.000791517
0.000201454
0.000511894
0.000370628
0.00093697
0.00122167
0.000900615
0.000802134
0.00109978
0.000493506
9.38376e-05
0.00053875
0.000693721
0.000569371
-0.0017806
-0.00211773
-0.00149191
-0.00101652
-0.00137792
-0.00134785
-0.00130741
-0.000872995
-0.00099124
-0.00136179
-0.000797435
-0.000730157
-0.00111597
-0.000566363
-0.000226567
-0.000827745
-0.00105635
-0.00176049
-0.00157769
-0.000361422
-0.000613692
-0.00160824
-0.00286984
-0.00322382
-0.00294814
-0.00329213
-0.00297522
-0.00222763
-0.00177078
-0.00185562
-0.00221183
-0.00271689
-0.00291788
-0.00318472
-0.00337182
-0.00329829
-0.00278915
-0.00200093
-0.00202453
-0.00188512
0.00304973
0.00289864
0.00416491
0.00225167
-0.000342946
0.000605803
0.0016186
0.0025315
0.00271335
0.00250311
0.00306898
0.00282233
0.00302733
0.00335259
0.000898272
-0.000866375
-0.000212494
-0.00022508
0.000399403
0.00200907
0.00257055
0.000874389
-0.000467849
0.00117762
0.00157918
0.000648471
0.00152679
0.00231545
0.00116732
0.000319943
0.00104763
0.00156106
0.00121031
0.00115081
0.00306734
0.00332266
0.00182713
0.00131108
0.00241673
0.0037892
0.00394778
0.00559099
0.00484648
0.00236314
0.00275879
0.00429957
0.00670453