/*--------------------------------*- C++ -*----------------------------------*\
  =========                 |
  \\      /  F ield         | OpenFOAM: The Open Source CFD Toolbox
   \\    /   O peration     | Website:  https://openfoam.org
    \\  /    A nd           | Version:  10
     \\/     M anipulation  |
\*---------------------------------------------------------------------------*/
FoamFile
{
    format      ascii;
    class       volScalarField;
    location    "47.5";
    object      pPrime2Mean;
}
// * * * * * * * * * * * * * * * * * * * * * * * * * * * * * * * * * * * * * //

dimensions      [0 4 -4 0 0 0 0];

internalField   nonuniform List<scalar> 
25600
(
0.000212108
0.000223688
0.000236265
0.000258803
0.000259872
0.000228924
0.000214333
0.000205272
0.000243101
0.000265217
0.000247155
0.000230475
0.000211278
0.000233881
0.000238143
0.00023767
0.0002316
0.000245048
0.000272955
0.000251696
0.00021228
0.000215692
0.000247387
0.000240348
0.000229144
0.000232017
0.000229571
0.000232061
0.000211462
0.000198214
0.000215343
0.000238263
0.000274697
0.000269398
0.000265171
0.000239958
0.000236669
0.00022745
0.000212659
0.000205067
0.000212163
0.000223756
0.000237271
0.000258724
0.000259834
0.000228881
0.000215039
0.000205609
0.000243026
0.000265124
0.000245802
0.000229981
0.000211673
0.000234209
0.000237881
0.000238555
0.000232321
0.000244704
0.000273023
0.000252541
0.000212067
0.000215359
0.000247925
0.000241121
0.000229799
0.00023288
0.000230621
0.00023241
0.000212555
0.00019923
0.000216454
0.000238915
0.000274495
0.000269659
0.000266466
0.00024094
0.000237457
0.000228947
0.000213258
0.000204725
0.000211705
0.000223457
0.000237529
0.000256882
0.000257355
0.000228454
0.000215404
0.000206869
0.00024173
0.000264747
0.000243303
0.000227297
0.000210741
0.000232368
0.000235026
0.000237834
0.000232579
0.000243707
0.000271591
0.000254184
0.000211767
0.000213515
0.000246886
0.000241273
0.000229844
0.000232436
0.0002305
0.000232762
0.000214205
0.000201167
0.000217821
0.000238706
0.000274662
0.000268987
0.000267256
0.000242776
0.000237365
0.000231128
0.000213668
0.000203975
0.000211341
0.00022374
0.000238307
0.000255898
0.000253944
0.00022813
0.000215553
0.000209823
0.000240631
0.000264678
0.000241669
0.000225299
0.000211268
0.000230749
0.000231396
0.000236103
0.000233473
0.000243103
0.000269907
0.000256536
0.000211925
0.000211324
0.000246512
0.00024245
0.000229927
0.000232937
0.000229795
0.000233627
0.000217096
0.000204617
0.00021924
0.000237522
0.000275549
0.000268872
0.000267409
0.000244985
0.000238242
0.000234534
0.00021332
0.000203824
0.000210838
0.000223777
0.000239732
0.000256632
0.000250553
0.000227537
0.00021655
0.000214589
0.000239884
0.00026424
0.000240997
0.000224301
0.000212233
0.000229094
0.000226955
0.000235347
0.000236332
0.000243881
0.00026748
0.000257748
0.000212112
0.000210531
0.000247419
0.000244684
0.000230573
0.000234663
0.000229434
0.000233644
0.000221001
0.000209688
0.000220675
0.000235964
0.000272943
0.000272201
0.000267998
0.000246619
0.000240597
0.000236896
0.000212701
0.000203114
0.000209562
0.00022418
0.000241232
0.000258374
0.00024715
0.000227231
0.000220643
0.000220197
0.000238564
0.000264018
0.000240406
0.000222803
0.000212986
0.000226983
0.000222603
0.000236914
0.000240466
0.000247682
0.00026561
0.000257787
0.000212271
0.000210675
0.000248226
0.000246858
0.000230232
0.000236257
0.00022904
0.000233792
0.000225308
0.00021564
0.00022272
0.00023541
0.000267131
0.00027973
0.000270816
0.000249578
0.00024115
0.000237123
0.000213211
0.000200864
0.000207456
0.000225629
0.000241586
0.000261505
0.000244351
0.000228115
0.00022553
0.000225239
0.000238994
0.000263413
0.00023937
0.000220468
0.00021517
0.000225052
0.00022095
0.000239315
0.000244246
0.00025175
0.000265641
0.000259476
0.000211133
0.000210298
0.000247943
0.000250906
0.000231436
0.000238101
0.000226962
0.000235415
0.000228295
0.000221796
0.000225155
0.000233878
0.000261993
0.00028744
0.000276885
0.000253689
0.000236275
0.000234843
0.00021587
0.000196823
0.000207334
0.00022652
0.000241353
0.00026531
0.000240754
0.000227881
0.000226885
0.000228651
0.00024107
0.000263649
0.000239411
0.000219022
0.000218049
0.000225255
0.000223746
0.000243005
0.000251344
0.000253218
0.000267787
0.000261795
0.000210954
0.000212541
0.000246604
0.00025615
0.00023407
0.000240776
0.000225202
0.000235853
0.000229783
0.000225905
0.000226853
0.000231434
0.000254376
0.000289834
0.000283539
0.000254631
0.000228992
0.00023198
0.00021917
0.000193615
0.000207699
0.000224387
0.00024123
0.000267349
0.000235751
0.000226167
0.000224248
0.000228459
0.000243895
0.000267435
0.000242423
0.000220074
0.000221703
0.000230665
0.000231501
0.000242994
0.000256641
0.000249542
0.000269667
0.000260782
0.000215978
0.000218319
0.00024553
0.000262444
0.000238708
0.000242
0.000224449
0.000233439
0.000233667
0.000228801
0.000231275
0.000231244
0.000245986
0.000289267
0.000285173
0.00024967
0.000219519
0.000227732
0.000218643
0.000194068
0.000205587
0.000220951
0.000238198
0.000268125
0.000232679
0.000221083
0.000222377
0.000229646
0.000249843
0.000270691
0.000244449
0.000219951
0.000223599
0.000238645
0.000241516
0.000239511
0.000255385
0.000244548
0.000268961
0.000264553
0.000226809
0.000223863
0.000244335
0.000270891
0.000245734
0.0002406
0.000220864
0.000232523
0.000236675
0.00023321
0.000241468
0.000232749
0.000245908
0.000290538
0.000278646
0.000239672
0.000211371
0.000224015
0.000214768
0.000194427
0.000200515
0.000216242
0.000235711
0.000267741
0.000228368
0.000214853
0.000220949
0.000231931
0.000251821
0.000266023
0.000244127
0.000220825
0.000219451
0.000243159
0.000250244
0.000239287
0.000250955
0.000238262
0.000267114
0.000275076
0.000237481
0.000228387
0.000243301
0.000278001
0.000254531
0.000240074
0.000215275
0.000229852
0.000238591
0.000244891
0.000252544
0.000237837
0.000248811
0.000293899
0.000270275
0.000227305
0.000210713
0.000219696
0.000209274
0.000193657
0.000197194
0.000208556
0.000235916
0.000265127
0.000229712
0.000207782
0.000218803
0.000232106
0.000247048
0.000259098
0.000239771
0.000222335
0.00021453
0.000248245
0.000260473
0.000232561
0.000236284
0.000233622
0.000270615
0.000279249
0.00024407
0.000231798
0.000248467
0.000284325
0.000262868
0.000234844
0.000212252
0.000231821
0.000245313
0.000259585
0.000263895
0.000245257
0.000250165
0.000284218
0.000262299
0.000217578
0.000214044
0.000214323
0.000201844
0.000196341
0.000195598
0.000208406
0.000234828
0.000256329
0.000229591
0.000206205
0.000220246
0.000227785
0.000239118
0.00024885
0.000236283
0.000225828
0.000216417
0.000256026
0.000260267
0.000219264
0.000215924
0.000223538
0.000265512
0.000269538
0.000244202
0.000227317
0.000245656
0.000280376
0.000259389
0.000223471
0.000210355
0.00023311
0.000246853
0.000256558
0.00026864
0.000251942
0.000247504
0.000274331
0.00025939
0.000217822
0.000217619
0.000206955
0.000195311
0.000197192
0.000197881
0.000211159
0.000233991
0.000249269
0.000230033
0.000215315
0.000216903
0.000218955
0.000229892
0.000244498
0.000233719
0.000218958
0.00021935
0.000255683
0.00025362
0.000207363
0.000208001
0.000218547
0.000257827
0.000260359
0.000235285
0.000225082
0.000237315
0.000269969
0.000255886
0.000220027
0.000209845
0.000228529
0.000239774
0.000256643
0.00026924
0.000249677
0.000249005
0.000271935
0.000259323
0.000229457
0.000227443
0.000208905
0.000188684
0.000200923
0.000200498
0.000208337
0.0002255
0.0002366
0.000223874
0.000215148
0.000214241
0.000211874
0.000224938
0.000242697
0.000230553
0.000204203
0.000213764
0.000237751
0.00024144
0.000198475
0.000197546
0.00021296
0.000255069
0.000256505
0.000229531
0.000220227
0.000233634
0.000256923
0.000250652
0.000223373
0.000209633
0.000222191
0.000239152
0.000249341
0.000261743
0.000244089
0.000246066
0.000264327
0.000258505
0.000227063
0.000233307
0.000210781
0.000183233
0.000201527
0.000205612
0.000203925
0.000219669
0.00022079
0.000213897
0.000201548
0.000199237
0.000204219
0.000218797
0.000236471
0.000227465
0.000195926
0.000210621
0.000217573
0.000223132
0.000199687
0.00020445
0.000217829
0.000241032
0.000239257
0.000219643
0.00020819
0.000221552
0.000229409
0.000226883
0.000218448
0.000209173
0.000211094
0.000227387
0.000241936
0.000255232
0.000236747
0.000236766
0.000253962
0.000249311
0.000213042
0.000225032
0.000220055
0.000190352
0.000202465
0.000220093
0.000204731
0.000221652
0.000212885
0.000202407
0.000210938
0.00020854
0.00020943
0.000215798
0.000221484
0.000212422
0.000195623
0.000209648
0.000215809
0.000215198
0.000198831
0.000208303
0.00022161
0.000227064
0.000234788
0.000211532
0.000205451
0.000220269
0.000211994
0.000213715
0.000215082
0.000209202
0.00021336
0.000225208
0.0002277
0.00025208
0.000241083
0.000234374
0.000232083
0.000220503
0.000194131
0.000220546
0.000221616
0.000193385
0.000198083
0.000241989
0.000203962
0.000210155
0.000213339
0.000202828
0.000198246
0.000209041
0.000205871
0.000204806
0.000212752
0.000217397
0.000206597
0.000208986
0.000210392
0.000209223
0.000199258
0.000208423
0.000230213
0.000227162
0.000220998
0.000207099
0.000208852
0.000224136
0.00021863
0.000222454
0.000217537
0.000206503
0.000219458
0.000223799
0.000231103
0.000264168
0.000248576
0.000235297
0.000226359
0.000212385
0.000194119
0.000221281
0.00020867
0.000201541
0.000229585
0.000237917
0.000214469
0.000198709
0.000190956
0.000200352
0.000196998
0.00021135
0.00020616
0.000206439
0.000214295
0.000213437
0.000209328
0.000219699
0.000212999
0.000214513
0.000207688
0.000208886
0.000215602
0.000213666
0.000213901
0.00021139
0.000216795
0.000220044
0.000215463
0.000232418
0.000212215
0.000210941
0.00022492
0.000216718
0.000217451
0.000253986
0.000244567
0.000209412
0.000219091
0.000222864
0.000195142
0.000227452
0.000224516
0.000208115
0.000221216
0.000263288
0.00023672
0.000223957
0.000209813
0.000209688
0.000203444
0.000221819
0.000225893
0.000213511
0.000210667
0.000219173
0.000242408
0.000242493
0.000225241
0.000237377
0.000231392
0.00022198
0.000228198
0.000236051
0.000204708
0.00021424
0.00024404
0.000239014
0.000230939
0.00021947
0.000187043
0.000213629
0.000221777
0.000208588
0.000208395
0.000231056
0.00022699
0.000209835
0.000232998
0.000237047
0.000214908
0.000229358
0.000211711
0.00021383
0.000262372
0.000242855
0.000221588
0.000220354
0.000238524
0.000236453
0.0002238
0.000228518
0.000225236
0.000209424
0.000219389
0.000236829
0.000244222
0.000238836
0.000228424
0.000238955
0.000250554
0.000228801
0.000213533
0.000246213
0.000223828
0.000216104
0.000226149
0.000244328
0.000224482
0.000200882
0.000197552
0.000216272
0.000223239
0.000207348
0.000216833
0.000227434
0.000229337
0.000208308
0.000243085
0.000237058
0.000198403
0.000194714
0.000204888
0.000232148
0.00025673
0.000210689
0.000228184
0.000221963
0.000232051
0.00024563
0.000212863
0.00024953
0.000281224
0.000255937
0.000245407
0.000258483
0.000261601
0.000242108
0.000245563
0.000254969
0.000243798
0.000210863
0.000258162
0.000285648
0.000237084
0.0002054
0.000256002
0.000270133
0.000221204
0.000199764
0.000217506
0.000249747
0.000272442
0.000245016
0.000210239
0.000214412
0.000231145
0.000222731
0.000262295
0.0002554
0.000213412
0.000236232
0.000256109
0.000246742
0.000227338
0.000220599
0.000246541
0.000232115
0.000241693
0.000255969
0.000226638
0.000263783
0.00026452
0.000245486
0.000258362
0.000242936
0.000222113
0.000217269
0.000243254
0.000247966
0.000224991
0.000219913
0.000254503
0.00025838
0.000254027
0.000236505
0.000260081
0.000282109
0.000257888
0.000235912
0.000260279
0.000274438
0.000280447
0.000258514
0.000248266
0.000248434
0.000228263
0.000209826
0.000242611
0.000253396
0.000229718
0.00022974
0.000224754
0.000253746
0.000244658
0.000249695
0.000233627
0.000231565
0.000250852
0.00028191
0.000257174
0.000230974
0.000241451
0.000270568
0.000275077
0.000231037
0.000218027
0.000242285
0.000267893
0.000278236
0.000237448
0.00022496
0.000229551
0.000249281
0.000233379
0.000235828
0.000254817
0.000255426
0.000259307
0.000261483
0.000281911
0.000276426
0.000260935
0.000238926
0.000254071
0.00025859
0.000241781
0.000235159
0.000265292
0.000287797
0.000229658
0.00019124
0.000227359
0.000292292
0.000287665
0.000249836
0.000227345
0.000242437
0.000251267
0.00027007
0.000260562
0.000211838
0.000234993
0.000303711
0.000303108
0.000260964
0.000264026
0.000274838
0.000267547
0.000265476
0.000250307
0.000220317
0.000242978
0.0002891
0.000298488
0.000270855
0.00024189
0.000267283
0.000274863
0.000262793
0.000271393
0.000270938
0.000303689
0.000303931
0.000293457
0.000272463
0.000251078
0.000264209
0.000315323
0.000300998
0.000252016
0.000224878
0.000235959
0.000311271
0.000331462
0.000256952
0.000256088
0.000275083
0.000286144
0.000304865
0.000252955
0.000205424
0.000253875
0.000304814
0.000295616
0.000260459
0.000229926
0.000264676
0.000262701
0.000285704
0.000269034
0.000216729
0.000301514
0.00034204
0.000299084
0.000258055
0.000301787
0.000314284
0.000276275
0.000327762
0.000316464
0.000288797
0.000297524
0.000321686
0.00030455
0.000271982
0.000231157
0.000271202
0.000312692
0.000290517
0.000251532
0.000220349
0.000250243
0.000274162
0.000282702
0.000298864
0.000305429
0.000332292
0.000371515
0.000351882
0.000265913
0.000240329
0.000286478
0.000318421
0.00032721
0.000280883
0.000294997
0.000365258
0.000354221
0.000321994
0.000256492
0.000285328
0.000352199
0.000324546
0.000284043
0.000301785
0.000344852
0.000304627
0.000304149
0.000345336
0.000287189
0.000270345
0.000338395
0.000363406
0.000287605
0.000269586
0.000298934
0.000317958
0.000330938
0.000323765
0.00029654
0.000265932
0.000276838
0.000321355
0.000326929
0.000316026
0.000329537
0.000381942
0.000413789
0.000406169
0.000338939
0.000296381
0.000397636
0.000450025
0.00039343
0.00032415
0.00034532
0.000360113
0.000351583
0.000280968
0.000244483
0.000350899
0.000394763
0.000345516
0.000316163
0.000312594
0.000376135
0.000365219
0.000347046
0.000341088
0.000315046
0.000336177
0.000358093
0.000339026
0.000345939
0.000344629
0.000341113
0.000353012
0.000340905
0.000316517
0.000330979
0.000334744
0.000332422
0.000351374
0.000331164
0.000443001
0.000481701
0.0004422
0.000442025
0.000437933
0.000385262
0.000347726
0.000358472
0.000394661
0.000363659
0.000347162
0.000375766
0.000390603
0.000374158
0.00033845
0.000382229
0.000424157
0.000370717
0.000368806
0.000358718
0.000361311
0.000342319
0.000324697
0.000343904
0.000375997
0.000397005
0.000391322
0.000415266
0.000384054
0.000386442
0.000383536
0.000368107
0.000350205
0.000343528
0.000413175
0.000445778
0.000445358
0.000423171
0.000374522
0.000377595
0.000454967
0.000406217
0.000396482
0.000450004
0.000457125
0.000456817
0.000409908
0.000375377
0.000372641
0.000363012
0.000396942
0.000395091
0.000469225
0.000477393
0.000454436
0.0004591
0.000429464
0.000410649
0.00043336
0.000435721
0.000416648
0.000382832
0.000412084
0.000492156
0.000520854
0.000481662
0.000454901
0.000444729
0.000461499
0.00050222
0.00045002
0.000392577
0.000450669
0.00054961
0.000531661
0.000429049
0.000363128
0.000392766
0.00047781
0.000501838
0.000723274
0.000667412
0.000690452
0.000761462
0.000803509
0.000778762
0.000677662
0.000614245
0.000663057
0.000679117
0.00067825
0.000750674
0.000803393
0.000730159
0.000706076
0.000756663
0.000807427
0.000661005
0.000570602
0.000667971
0.000715205
0.000699356
0.000714325
0.00078005
0.000773331
0.000733259
0.00083277
0.000837016
0.000761459
0.000759937
0.00078663
0.000671392
0.000618548
0.000730328
0.000763161
0.000684149
0.000694571
0.000731743
0.000669171
0.000652264
0.000901353
0.000952924
0.000968977
0.000969053
0.001096
0.00120329
0.00105561
0.000906223
0.000883154
0.000751701
0.000729967
0.00082528
0.000902173
0.000879163
0.000896879
0.00100447
0.00108261
0.000975069
0.000941665
0.000850076
0.000745301
0.000810172
0.00088481
0.00090538
0.000891217
0.000943518
0.00101163
0.000914898
0.000912457
0.000915998
0.000936099
0.000888728
0.000880417
0.000839081
0.000878971
0.000862629
0.000944701
0.000953025
0.000907828
0.00086968
0.000223063
0.000226105
0.000221679
0.000220001
0.00022151
0.000214801
0.000228754
0.000220983
0.000208243
0.000256759
0.000249484
0.000199435
0.000186894
0.000193204
0.000214226
0.000225159
0.00021995
0.0002269
0.000242291
0.000243913
0.000231178
0.00022688
0.00024751
0.000252163
0.000232807
0.000221232
0.000216917
0.000229925
0.000207055
0.000188493
0.000206459
0.000223489
0.000238821
0.000250679
0.000269731
0.000257892
0.000263131
0.000228038
0.000207701
0.000214119
0.000223404
0.000226225
0.000221853
0.000220331
0.000221297
0.000214666
0.000228936
0.000221359
0.000208344
0.000256816
0.000249639
0.000199607
0.000187045
0.000193337
0.000214354
0.000225353
0.000220289
0.000227155
0.0002424
0.000243802
0.000231007
0.000226781
0.000247855
0.000252593
0.000233094
0.000221292
0.00021725
0.000230555
0.000207466
0.000188589
0.00020645
0.000223676
0.000238757
0.000250288
0.000269269
0.000257804
0.000263389
0.000228297
0.000207983
0.00021464
0.000224044
0.000227281
0.000222473
0.000220859
0.000221099
0.000214835
0.00022967
0.000222576
0.000208214
0.000256683
0.000250347
0.000199903
0.000187211
0.000193152
0.000214475
0.000225552
0.000221152
0.000227962
0.000243708
0.000244918
0.000230704
0.000226389
0.000247458
0.000252944
0.00023341
0.000222177
0.000218213
0.000231786
0.000208965
0.000189277
0.000206925
0.00022456
0.000239629
0.000249794
0.000268743
0.000258309
0.000263959
0.00022955
0.000209437
0.000215738
0.000225042
0.000229371
0.000223919
0.000221996
0.0002202
0.0002148
0.000230576
0.00022509
0.000208528
0.000257128
0.000252354
0.000201298
0.000188483
0.000192977
0.000214563
0.000225657
0.00022263
0.000230563
0.000246155
0.000247205
0.000230841
0.000226365
0.000247438
0.000254037
0.000234066
0.000223322
0.000219493
0.000233921
0.000211482
0.000191105
0.000207875
0.00022619
0.000241936
0.000249983
0.000268816
0.000259831
0.000265458
0.000231839
0.000212123
0.000218364
0.000226101
0.000231946
0.000226381
0.000223533
0.000218486
0.000214329
0.000231258
0.000228148
0.000209292
0.00025737
0.000254642
0.000203647
0.000190155
0.000192796
0.000215304
0.000225782
0.000224351
0.000232686
0.000248935
0.000249301
0.000230641
0.000226942
0.000248592
0.000256191
0.000235109
0.000225662
0.000221144
0.00023612
0.000214243
0.000193769
0.000209327
0.00022828
0.000244313
0.000250115
0.000269777
0.000263016
0.0002671
0.00023458
0.000215207
0.000221911
0.000227594
0.000233755
0.000229078
0.000225563
0.000217054
0.000214679
0.000232378
0.000231137
0.000210916
0.000257972
0.000257645
0.000205638
0.000191205
0.000192566
0.000216244
0.000225918
0.000226372
0.000234259
0.000250549
0.000250757
0.000230537
0.000228226
0.000250298
0.000257799
0.000235989
0.000229187
0.000223259
0.000238447
0.000218067
0.000197785
0.000212005
0.000231373
0.000246138
0.00025107
0.000271495
0.000267289
0.000268163
0.000237885
0.000218768
0.000226176
0.000229383
0.000234633
0.000231173
0.000228333
0.000216238
0.000215958
0.000234682
0.000234112
0.000212714
0.000258281
0.000261124
0.000206579
0.000191476
0.00019262
0.000216855
0.000225062
0.000228841
0.000235374
0.000250094
0.000251384
0.000231379
0.000230795
0.00025231
0.000258803
0.000236417
0.000231711
0.000225301
0.000241692
0.000221746
0.00020315
0.000214855
0.00023414
0.000246806
0.000251314
0.000272826
0.000270558
0.000266182
0.000239055
0.000221987
0.00022901
0.000230542
0.000234531
0.00023312
0.000231838
0.00021351
0.000217445
0.0002359
0.000235517
0.000213721
0.000257376
0.000263645
0.00020641
0.000190669
0.000192663
0.000217039
0.000224184
0.000231801
0.000234776
0.000246366
0.000250561
0.000231322
0.000234414
0.000254972
0.000260179
0.000237313
0.000232572
0.000227228
0.000243329
0.000222336
0.000208645
0.000216718
0.000236304
0.000247507
0.000250173
0.000272177
0.000270434
0.000260235
0.000237641
0.000223743
0.000228857
0.000229802
0.000233598
0.000233318
0.000233689
0.000210648
0.000216974
0.000232336
0.000233073
0.000212629
0.000255079
0.000264357
0.000205768
0.00018939
0.000192382
0.000216902
0.000224126
0.000234789
0.000231338
0.000238275
0.000246491
0.000230611
0.000236197
0.000255923
0.00026096
0.000238466
0.000232712
0.000227167
0.000240738
0.000220417
0.000212726
0.000216648
0.000238654
0.00024914
0.000248609
0.0002678
0.000266087
0.000251536
0.000232624
0.000223628
0.000227731
0.000224619
0.000231064
0.000232428
0.000230756
0.000206061
0.000210672
0.00022694
0.000231166
0.000209439
0.000251513
0.00026139
0.000204198
0.000188201
0.000193265
0.000215416
0.000222486
0.000234879
0.00022543
0.000224055
0.000239462
0.000227753
0.000230472
0.000251394
0.000260559
0.000239872
0.00023154
0.000223469
0.000234489
0.000215787
0.000213929
0.000213987
0.000241231
0.000251001
0.000245388
0.000258779
0.000257455
0.000242737
0.00022421
0.000222161
0.000226373
0.000220645
0.000229138
0.000229873
0.000225023
0.000200352
0.000203849
0.000222383
0.000232171
0.000210273
0.000247057
0.000255638
0.000201923
0.000189326
0.000195256
0.000212868
0.000218982
0.000226567
0.000218757
0.000211372
0.000234556
0.000226664
0.000220168
0.000243032
0.000255051
0.000238119
0.000227066
0.000216416
0.000226017
0.000212854
0.000215424
0.000210214
0.000241658
0.000252105
0.000240092
0.000250532
0.000245758
0.000232065
0.00021582
0.000220742
0.000225631
0.000215742
0.000223833
0.000226736
0.000222393
0.000198764
0.000195982
0.000217535
0.000231497
0.000212914
0.000246669
0.000251442
0.000204219
0.00019025
0.00019581
0.000209304
0.000207761
0.000212506
0.000207007
0.00020285
0.000234946
0.000224453
0.000213391
0.00023812
0.000245623
0.000230159
0.00021603
0.000208231
0.000222347
0.000213012
0.000213964
0.000207167
0.000238885
0.000248447
0.00023315
0.000245082
0.000234908
0.000222779
0.000205002
0.00021808
0.000223833
0.000216342
0.00021719
0.000218899
0.000211358
0.000197197
0.000192691
0.000211967
0.000218392
0.000213176
0.000242806
0.000243738
0.000206167
0.000190601
0.000197624
0.000203521
0.00019631
0.000209233
0.000199467
0.000195006
0.000236251
0.000222969
0.000200541
0.000221904
0.000234234
0.00022176
0.000202671
0.000198611
0.000218424
0.00021233
0.000207236
0.000204389
0.000235814
0.000240949
0.000231468
0.000234945
0.000226316
0.000218452
0.000197831
0.00020834
0.000220458
0.000212471
0.00021199
0.000209431
0.000201654
0.000191949
0.000195225
0.000209801
0.000214155
0.000215734
0.000236446
0.000237587
0.000205691
0.000196789
0.000198306
0.000197053
0.000187584
0.000203708
0.000203104
0.000194334
0.000233519
0.000215656
0.000190442
0.000213265
0.000227412
0.000218491
0.000197338
0.000195049
0.000213441
0.000209066
0.000194212
0.000193344
0.000230015
0.000244293
0.000238716
0.000224044
0.00021872
0.000212334
0.000191871
0.000194016
0.00021249
0.000213576
0.00021196
0.000210576
0.0002018
0.00018869
0.000196727
0.000201674
0.000211672
0.00021481
0.000235312
0.000235239
0.00020006
0.000206883
0.000202019
0.000189593
0.000181084
0.000200164
0.000207983
0.000197239
0.000218999
0.000197471
0.000186505
0.000212164
0.000223446
0.000215631
0.000194835
0.000193148
0.000207642
0.00020139
0.000182076
0.000182204
0.000215038
0.000232938
0.000232474
0.000212526
0.000210026
0.000205771
0.000190248
0.000188157
0.000203895
0.000208669
0.000213402
0.000216097
0.000199314
0.000184764
0.0001984
0.000203613
0.000204943
0.000214917
0.000231659
0.000228732
0.000196908
0.00020311
0.000194264
0.000186168
0.000186545
0.000203996
0.000209256
0.000199223
0.000217573
0.00018891
0.000186746
0.000210103
0.000210175
0.000205008
0.000189732
0.000193964
0.000201607
0.000193162
0.000180404
0.000184306
0.000206051
0.00021308
0.000208582
0.000199963
0.000192105
0.000200234
0.000197479
0.000191266
0.000192673
0.00019949
0.000206203
0.0002069
0.000188701
0.000174957
0.000189328
0.000201955
0.000194907
0.000209555
0.000223026
0.00021851
0.00019091
0.000203422
0.000192618
0.000181501
0.000178919
0.000199555
0.00020008
0.000196487
0.000207556
0.000179766
0.000181379
0.000200546
0.000190636
0.000184318
0.000185365
0.000188635
0.000184246
0.000184355
0.000180177
0.000184779
0.000211123
0.000209235
0.000193414
0.000191999
0.000199897
0.000207607
0.000195665
0.00019026
0.000187228
0.000192183
0.000191878
0.000186049
0.000179704
0.000176715
0.000179729
0.000186381
0.000186255
0.000198546
0.000207809
0.000200116
0.000174788
0.000189852
0.000185768
0.000179682
0.000176103
0.000187058
0.000191242
0.000193464
0.000204054
0.000175094
0.000178613
0.000198319
0.000193466
0.000185693
0.000172418
0.000174687
0.000178868
0.000176376
0.000176455
0.000191326
0.000210305
0.000205035
0.000186139
0.000182127
0.000188502
0.000204911
0.00017922
0.000172824
0.000185256
0.000188535
0.000185786
0.000179262
0.000179446
0.000176574
0.000179272
0.00018388
0.00017111
0.000184414
0.000200891
0.000191096
0.000164021
0.000184094
0.000189307
0.000183795
0.000171713
0.000176168
0.000181658
0.000189442
0.000198328
0.000173735
0.000180396
0.000193864
0.000184759
0.000177385
0.00017025
0.000176652
0.00018499
0.000176017
0.000170035
0.000187188
0.00020291
0.000197789
0.000186597
0.000179825
0.000181832
0.00020094
0.00017569
0.00017542
0.000189037
0.000188943
0.000180815
0.000175621
0.000180011
0.000172181
0.000174342
0.000167012
0.000157848
0.000177318
0.0001922
0.000176885
0.000158909
0.000178359
0.000188972
0.000181806
0.000176854
0.000180685
0.000177632
0.000183933
0.000189802
0.000176518
0.000185233
0.000188853
0.00017929
0.000180913
0.000171857
0.000183161
0.000192995
0.000170721
0.000170121
0.000186441
0.000188309
0.000188783
0.000186518
0.000187129
0.000178575
0.000192866
0.000179238
0.000171715
0.00018848
0.000185374
0.000174546
0.000179498
0.000191697
0.000181119
0.000181164
0.000178399
0.000171086
0.000176852
0.000189072
0.000187861
0.000159113
0.000167687
0.000190594
0.000185525
0.000178362
0.000192537
0.000197155
0.000190339
0.000189668
0.000183898
0.000206096
0.000208858
0.000186344
0.000179463
0.000184014
0.000194911
0.000191462
0.00017803
0.000174031
0.000189457
0.000197542
0.000187558
0.000179988
0.000188271
0.000176864
0.000181951
0.000176706
0.000172216
0.000178084
0.000180601
0.000189399
0.000189008
0.00019049
0.000188708
0.000186942
0.000177007
0.00016796
0.000163963
0.00019229
0.000192812
0.000169591
0.000182084
0.000192339
0.000178058
0.000195515
0.000198937
0.000193395
0.000205182
0.000193035
0.000177604
0.000206139
0.000218847
0.000204873
0.000188515
0.000174945
0.000200508
0.000204873
0.000192264
0.00018221
0.000177487
0.000195899
0.000191078
0.000186532
0.000199208
0.000177372
0.000166353
0.000178203
0.000179459
0.000173075
0.000187465
0.000198206
0.000205827
0.000201632
0.000202556
0.000178745
0.000181098
0.000189901
0.000176301
0.000205768
0.000195405
0.000181287
0.000192622
0.000204071
0.000197991
0.000179059
0.000191126
0.00020525
0.000208054
0.000201454
0.000178529
0.00019799
0.000217345
0.000200179
0.000190041
0.000199875
0.000215505
0.000218822
0.000197859
0.000194451
0.000180326
0.000189925
0.00018968
0.000195274
0.000207291
0.000174548
0.000167317
0.000183927
0.000199236
0.000193121
0.000192268
0.000180138
0.000168022
0.000174061
0.00019873
0.000194294
0.000201785
0.000179575
0.000176699
0.000202098
0.000200661
0.00020321
0.000198109
0.000205899
0.000222638
0.000220833
0.000206844
0.000195847
0.000208773
0.00020835
0.000195896
0.000204793
0.000209214
0.000201074
0.00019697
0.000198771
0.000208437
0.000191906
0.000203079
0.000208328
0.000186108
0.000200992
0.000188035
0.000191134
0.000199065
0.000174988
0.00018308
0.000187607
0.000195239
0.000190208
0.000182019
0.000155513
0.000162008
0.000173528
0.000184448
0.000197422
0.000194266
0.00017566
0.000170031
0.000192676
0.00019686
0.000201207
0.00020446
0.000209203
0.000206864
0.000186611
0.000190382
0.000194153
0.000194423
0.000193187
0.000184485
0.000180462
0.000195448
0.000187996
0.000202685
0.000213997
0.000204544
0.000184684
0.000217061
0.000216047
0.000192012
0.000193869
0.000196432
0.000220341
0.000221815
0.000199703
0.000195693
0.000192435
0.00019878
0.000204316
0.000205889
0.000175293
0.000184382
0.000202441
0.000215539
0.000209422
0.000197182
0.000208345
0.000206557
0.000234671
0.000225612
0.000208858
0.000217823
0.000219085
0.000186266
0.000192075
0.000222803
0.000204041
0.000207102
0.000219197
0.000201558
0.00019333
0.000197785
0.000219272
0.000250403
0.000231361
0.000199881
0.000225885
0.000240591
0.000229988
0.000214862
0.000213471
0.000214611
0.000232597
0.000212441
0.000201484
0.000193763
0.000189992
0.000224922
0.000231332
0.000235811
0.000226216
0.000231505
0.000238449
0.000213315
0.000207322
0.000226741
0.000249061
0.00022524
0.000237615
0.000270406
0.000283198
0.000260032
0.000240793
0.000224077
0.0002129
0.000252451
0.000296338
0.00031189
0.00027101
0.000219724
0.000245267
0.000252097
0.000276591
0.000267078
0.000219767
0.000240274
0.000267241
0.000258334
0.000255536
0.000230312
0.000239568
0.000261889
0.000267981
0.000265399
0.000238566
0.00022353
0.0002411
0.000254276
0.000239009
0.000271104
0.00022704
0.000221553
0.000247433
0.00029753
0.000281846
0.000230387
0.000237702
0.000260731
0.000295042
0.000278744
0.000262993
0.000265827
0.000253609
0.000238386
0.00025753
0.000300173
0.000324293
0.000297919
0.000249357
0.000252663
0.000263292
0.000272227
0.000277087
0.000261293
0.00027899
0.000304792
0.000265269
0.000255653
0.00028191
0.000245177
0.000242884
0.000280838
0.000284905
0.000268198
0.000231992
0.000244936
0.000246032
0.000252503
0.000274456
0.0002581
0.000313285
0.00028262
0.000292318
0.000312591
0.000320926
0.000350921
0.000313874
0.000302246
0.000288471
0.000299604
0.000338715
0.000320716
0.000295074
0.000333143
0.000318793
0.00030117
0.000325489
0.000358234
0.000281651
0.000286188
0.000328148
0.000338248
0.000323811
0.000311657
0.000341272
0.000374022
0.000337605
0.000335384
0.000305405
0.000314823
0.000340884
0.000313874
0.00025355
0.000279313
0.000334702
0.000305257
0.000301269
0.000315506
0.000281003
0.000361121
0.000331863
0.000278792
0.00031025
0.000334361
0.000367025
0.000360092
0.000341797
0.00034056
0.000313136
0.000343246
0.00036733
0.000383304
0.000436873
0.000437966
0.00035995
0.00032485
0.000307638
0.000349696
0.00035727
0.000338859
0.000394041
0.000363098
0.00037999
0.000420343
0.000393666
0.000339012