/*--------------------------------*- C++ -*----------------------------------*\
  =========                 |
  \\      /  F ield         | OpenFOAM: The Open Source CFD Toolbox
   \\    /   O peration     | Website:  https://openfoam.org
    \\  /    A nd           | Version:  10
     \\/     M anipulation  |
\*---------------------------------------------------------------------------*/
FoamFile
{
    format      ascii;
    class       volVectorField;
    location    "42.5";
    object      U;
}
// * * * * * * * * * * * * * * * * * * * * * * * * * * * * * * * * * * * * * //

dimensions      [0 1 -1 0 0 0 0];

internalField   nonuniform List<vector> 
25600
(
(0.0170631 9.78974e-09 -4.88593e-07)
(0.0170626 5.45975e-09 -3.26116e-07)
(0.0170631 -1.84024e-08 -1.72914e-07)
(0.0170626 2.22585e-08 -4.22322e-07)
(0.0170629 -2.06056e-08 -1.67824e-08)
(0.0170627 1.33192e-08 -2.49296e-07)
(0.0170627 -5.47212e-09 -1.11285e-07)
(0.0170627 -2.91402e-09 1.11794e-08)
(0.0170626 9.65646e-09 -1.31861e-07)
(0.0170627 -1.42159e-08 5.00279e-08)
(0.0170627 1.59662e-08 2.49344e-08)
(0.0170626 -1.34391e-08 -2.38453e-08)
(0.0170628 8.61661e-09 1.02464e-07)
(0.0170625 -4.23702e-11 2.76419e-08)
(0.0170629 -7.38073e-09 -1.17295e-08)
(0.0170625 1.48186e-08 1.33135e-07)
(0.0170629 -1.49006e-08 -1.16552e-07)
(0.0170628 1.08433e-08 8.12462e-08)
(0.0170628 8.41985e-10 -9.28996e-08)
(0.017063 -9.96475e-09 -1.08016e-07)
(0.0170629 1.70909e-08 -4.1826e-08)
(0.0170629 -1.40326e-08 -2.86871e-07)
(0.0170631 7.29137e-09 -8.67443e-08)
(0.0170628 4.83825e-09 -3.65048e-07)
(0.0170633 -1.2641e-08 -2.43934e-07)
(0.0170629 1.67031e-08 -3.50965e-07)
(0.0170632 -1.11931e-08 -4.54385e-07)
(0.0170632 1.7454e-09 -3.12862e-07)
(0.017063 9.86469e-09 -6.07144e-07)
(0.0170633 -1.55958e-08 -3.6437e-07)
(0.0170632 1.3314e-08 -5.83156e-07)
(0.017063 -2.52249e-09 -5.45367e-07)
(0.0170635 -1.18292e-08 -4.43063e-07)
(0.0170629 2.15963e-08 -6.90802e-07)
(0.0170633 -2.21429e-08 -3.8205e-07)
(0.0170631 1.05921e-08 -6.29567e-07)
(0.0170629 6.06355e-09 -4.97698e-07)
(0.0170633 -2.21455e-08 -3.80814e-07)
(0.0170629 2.8024e-08 -6.23663e-07)
(0.0170629 -2.4235e-08 -2.33787e-07)
(0.052215 6.06786e-08 -1.41159e-06)
(0.052214 3.48042e-09 -8.23474e-07)
(0.0522151 -6.10003e-08 -6.89804e-07)
(0.0522138 8.97685e-08 -1.0107e-06)
(0.0522146 -8.65788e-08 -1.44873e-07)
(0.0522139 6.56289e-08 -7.07138e-07)
(0.0522142 -3.08737e-08 -1.91231e-07)
(0.0522139 2.76354e-09 -8.2796e-08)
(0.0522139 3.25875e-08 -2.58907e-07)
(0.0522139 -4.8854e-08 1.47531e-07)
(0.0522139 6.79804e-08 3.94147e-08)
(0.0522137 -5.60532e-08 2.14957e-08)
(0.0522141 4.77672e-08 2.62239e-07)
(0.0522136 -8.69101e-09 5.80564e-08)
(0.0522144 -1.47567e-08 5.24821e-08)
(0.0522135 5.57177e-08 2.57073e-07)
(0.0522146 -5.8878e-08 -2.61474e-07)
(0.052214 5.77506e-08 1.71727e-07)
(0.0522144 -9.66074e-09 -3.40449e-07)
(0.0522146 -2.57518e-08 -2.59665e-07)
(0.0522145 6.70384e-08 -3.0088e-07)
(0.0522147 -6.04048e-08 -7.61326e-07)
(0.0522151 4.28269e-08 -4.10692e-07)
(0.0522145 6.52203e-09 -1.08208e-06)
(0.0522156 -4.08383e-08 -7.61186e-07)
(0.0522147 6.69635e-08 -1.17011e-06)
(0.0522155 -5.44286e-08 -1.26931e-06)
(0.0522153 2.16269e-08 -1.12896e-06)
(0.0522152 2.59599e-08 -1.71203e-06)
(0.0522156 -5.89699e-08 -1.19486e-06)
(0.0522155 6.0864e-08 -1.78598e-06)
(0.0522151 -2.84269e-08 -1.54047e-06)
(0.052216 -3.02541e-08 -1.50645e-06)
(0.0522147 7.82772e-08 -1.89599e-06)
(0.0522159 -9.749e-08 -1.26546e-06)
(0.052215 6.21081e-08 -1.85527e-06)
(0.052215 2.45967e-10 -1.37343e-06)
(0.0522154 -7.30935e-08 -1.31306e-06)
(0.0522146 1.11348e-07 -1.63078e-06)
(0.0522149 -1.10201e-07 -8.15116e-07)
(0.08962 1.5093e-07 -2.28088e-06)
(0.0896189 -1.853e-08 -1.34736e-06)
(0.0896201 -1.098e-07 -1.30324e-06)
(0.0896183 1.85407e-07 -1.49482e-06)
(0.0896196 -1.87417e-07 -4.08673e-07)
(0.0896182 1.54817e-07 -1.11193e-06)
(0.089619 -7.82348e-08 -2.78082e-07)
(0.0896182 2.50296e-08 -2.45197e-07)
(0.0896185 6.11526e-08 -3.20142e-07)
(0.0896182 -9.17813e-08 1.90786e-07)
(0.0896183 1.48728e-07 5.43915e-08)
(0.0896181 -1.19056e-07 9.50911e-08)
(0.0896185 1.18038e-07 3.82034e-07)
(0.0896179 -2.64224e-08 1.01667e-07)
(0.089619 -1.13864e-08 1.43476e-07)
(0.0896178 1.13941e-07 3.18806e-07)
(0.0896194 -1.17639e-07 -3.31589e-07)
(0.0896183 1.36987e-07 2.01603e-07)
(0.0896193 -3.16736e-08 -5.6604e-07)
(0.0896192 -3.41918e-08 -3.95014e-07)
(0.0896193 1.38189e-07 -6.23154e-07)
(0.0896196 -1.2729e-07 -1.16201e-06)
(0.0896201 1.0605e-07 -8.27032e-07)
(0.0896195 8.31014e-11 -1.74254e-06)
(0.089621 -7.15719e-08 -1.32757e-06)
(0.0896197 1.38689e-07 -2.00752e-06)
(0.0896212 -1.22093e-07 -2.05595e-06)
(0.0896205 6.13404e-08 -2.04368e-06)
(0.0896208 3.75459e-08 -2.74288e-06)
(0.089621 -1.16435e-07 -2.13293e-06)
(0.089621 1.30541e-07 -2.97033e-06)
(0.0896206 -7.76388e-08 -2.55113e-06)
(0.0896217 -4.60402e-08 -2.66361e-06)
(0.0896199 1.49989e-07 -3.02925e-06)
(0.0896217 -2.10834e-07 -2.28276e-06)
(0.0896201 1.47331e-07 -3.03855e-06)
(0.0896206 -2.8266e-08 -2.28333e-06)
(0.0896206 -1.34262e-07 -2.33905e-06)
(0.0896198 2.26364e-07 -2.54772e-06)
(0.0896201 -2.44601e-07 -1.54327e-06)
(0.129458 2.69855e-07 -3.14814e-06)
(0.129457 -5.78029e-08 -1.99013e-06)
(0.129458 -1.57667e-07 -1.98486e-06)
(0.129456 2.97859e-07 -2.01086e-06)
(0.129457 -3.0909e-07 -8.11306e-07)
(0.129455 2.71606e-07 -1.51816e-06)
(0.129457 -1.40328e-07 -4.65998e-07)
(0.129455 6.43487e-08 -4.63014e-07)
(0.129456 9.34075e-08 -4.04899e-07)
(0.129455 -1.34183e-07 1.58204e-07)
(0.129455 2.50791e-07 5.73549e-08)
(0.129455 -1.9183e-07 1.44573e-07)
(0.129456 2.14375e-07 4.71393e-07)
(0.129455 -4.85549e-08 1.57079e-07)
(0.129456 6.00936e-09 2.35935e-07)
(0.129455 1.8489e-07 3.75015e-07)
(0.129457 -1.80858e-07 -3.41477e-07)
(0.129455 2.41764e-07 2.17155e-07)
(0.129457 -6.03514e-08 -7.18356e-07)
(0.129456 -3.18801e-08 -5.06595e-07)
(0.129457 2.23895e-07 -9.06595e-07)
(0.129457 -2.04899e-07 -1.48422e-06)
(0.129458 1.90564e-07 -1.23942e-06)
(0.129457 -1.258e-08 -2.30311e-06)
(0.129459 -1.00621e-07 -1.8908e-06)
(0.129457 2.23495e-07 -2.77214e-06)
(0.129459 -2.05772e-07 -2.80744e-06)
(0.129458 1.15686e-07 -2.94573e-06)
(0.129459 4.30343e-08 -3.70136e-06)
(0.129459 -1.81796e-07 -3.10897e-06)
(0.129459 2.12928e-07 -4.09254e-06)
(0.129459 -1.44991e-07 -3.59113e-06)
(0.12946 -5.86232e-08 -3.83063e-06)
(0.129458 2.2733e-07 -4.14655e-06)
(0.12946 -3.50022e-07 -3.38525e-06)
(0.129458 2.55564e-07 -4.19564e-06)
(0.129459 -7.70715e-08 -3.28168e-06)
(0.129458 -1.98749e-07 -3.41089e-06)
(0.129458 3.58427e-07 -3.48673e-06)
(0.129458 -4.1151e-07 -2.40136e-06)
(0.171821 4.17031e-07 -4.09251e-06)
(0.17182 -1.14989e-07 -2.79607e-06)
(0.17182 -2.03956e-07 -2.76253e-06)
(0.171818 4.27423e-07 -2.66846e-06)
(0.17182 -4.51612e-07 -1.3635e-06)
(0.171817 4.17285e-07 -2.02038e-06)
(0.171819 -2.17291e-07 -8.15629e-07)
(0.171817 1.22017e-07 -7.71756e-07)
(0.171818 1.30041e-07 -6.00998e-07)
(0.171817 -1.75325e-07 2.54205e-08)
(0.171818 3.75766e-07 -1.13678e-09)
(0.171817 -2.7354e-07 1.2677e-07)
(0.171817 3.38382e-07 5.22065e-07)
(0.171817 -7.38147e-08 2.0124e-07)
(0.171818 3.84208e-08 3.19091e-07)
(0.171816 2.70653e-07 4.54113e-07)
(0.171819 -2.47472e-07 -3.01439e-07)
(0.171817 3.73324e-07 2.70357e-07)
(0.171819 -9.40779e-08 -7.69369e-07)
(0.171818 -1.7776e-08 -5.54466e-07)
(0.171819 3.2555e-07 -1.0726e-06)
(0.171819 -2.92499e-07 -1.69781e-06)
(0.17182 2.97358e-07 -1.54594e-06)
(0.17182 -3.09366e-08 -2.71948e-06)
(0.171822 -1.27425e-07 -2.36188e-06)
(0.17182 3.22271e-07 -3.38812e-06)
(0.171822 -3.0536e-07 -3.46828e-06)
(0.171821 1.84755e-07 -3.73232e-06)
(0.171822 4.2359e-08 -4.55989e-06)
(0.171822 -2.55538e-07 -4.02654e-06)
(0.171822 3.07755e-07 -5.11918e-06)
(0.171822 -2.30191e-07 -4.61723e-06)
(0.171823 -6.89795e-08 -4.94609e-06)
(0.171821 3.10532e-07 -5.26227e-06)
(0.171824 -5.15589e-07 -4.51285e-06)
(0.171821 3.85974e-07 -5.35446e-06)
(0.171823 -1.46261e-07 -4.36759e-06)
(0.171821 -2.67188e-07 -4.52175e-06)
(0.171821 5.07639e-07 -4.52061e-06)
(0.171821 -6.10945e-07 -3.37382e-06)
(0.216803 5.97023e-07 -5.17748e-06)
(0.216802 -1.93199e-07 -3.78547e-06)
(0.216803 -2.49762e-07 -3.69124e-06)
(0.2168 5.76884e-07 -3.54272e-06)
(0.216802 -6.20106e-07 -2.09954e-06)
(0.216799 5.96711e-07 -2.71764e-06)
(0.216801 -3.13203e-07 -1.37913e-06)
(0.216798 2.00315e-07 -1.24406e-06)
(0.2168 1.71175e-07 -9.89292e-07)
(0.216798 -2.16834e-07 -2.56603e-07)
(0.216799 5.27653e-07 -1.93784e-07)
(0.216798 -3.67488e-07 -9.18607e-09)
(0.216799 4.94658e-07 4.95284e-07)
(0.216798 -1.03489e-07 1.92785e-07)
(0.216799 8.72583e-08 3.70507e-07)
(0.216797 3.74463e-07 5.51263e-07)
(0.2168 -3.19464e-07 -2.26326e-07)
(0.216798 5.36702e-07 3.91737e-07)
(0.2168 -1.33493e-07 -7.08906e-07)
(0.216799 9.83612e-09 -4.95112e-07)
(0.216801 4.46798e-07 -1.07022e-06)
(0.2168 -3.91775e-07 -1.75737e-06)
(0.216802 4.31166e-07 -1.65997e-06)
(0.216801 -5.50246e-08 -2.93923e-06)
(0.216803 -1.51357e-07 -2.64157e-06)
(0.216802 4.39025e-07 -3.78354e-06)
(0.216804 -4.23146e-07 -3.95023e-06)
(0.216803 2.72249e-07 -4.30833e-06)
(0.216805 3.59269e-08 -5.25352e-06)
(0.216804 -3.38704e-07 -4.77908e-06)
(0.216805 4.18607e-07 -5.99874e-06)
(0.216804 -3.35353e-07 -5.54708e-06)
(0.216806 -7.67687e-08 -5.95042e-06)
(0.216803 4.02252e-07 -6.34054e-06)
(0.216807 -7.12072e-07 -5.60137e-06)
(0.216803 5.42621e-07 -6.51634e-06)
(0.216806 -2.38123e-07 -5.50466e-06)
(0.216803 -3.41455e-07 -5.67387e-06)
(0.216804 6.78088e-07 -5.67304e-06)
(0.216803 -8.4919e-07 -4.454e-06)
(0.26448 8.16075e-07 -6.41998e-06)
(0.264479 -2.97668e-07 -4.95651e-06)
(0.26448 -2.96502e-07 -4.81212e-06)
(0.264477 7.48375e-07 -4.67361e-06)
(0.264479 -8.21288e-07 -3.0611e-06)
(0.264475 8.14992e-07 -3.68894e-06)
(0.264478 -4.34561e-07 -2.21043e-06)
(0.264474 3.01818e-07 -1.96486e-06)
(0.264477 2.152e-07 -1.64878e-06)
(0.264474 -2.61124e-07 -7.62668e-07)
(0.264476 7.0976e-07 -6.08233e-07)
(0.264474 -4.78957e-07 -3.3789e-07)
(0.264475 6.88215e-07 3.1907e-07)
(0.264473 -1.41087e-07 6.4392e-08)
(0.264475 1.54322e-07 3.34853e-07)
(0.264473 4.98575e-07 6.22315e-07)
(0.264476 -3.99619e-07 -1.56293e-07)
(0.264473 7.37738e-07 5.69627e-07)
(0.264477 -1.80671e-07 -5.537e-07)
(0.264475 5.36609e-08 -3.12287e-07)
(0.264477 5.9114e-07 -8.83313e-07)
(0.264476 -5.04391e-07 -1.62756e-06)
(0.264478 5.98178e-07 -1.52536e-06)
(0.264477 -8.50501e-08 -2.91234e-06)
(0.26448 -1.70553e-07 -2.64384e-06)
(0.264478 5.78694e-07 -3.88819e-06)
(0.264481 -5.61155e-07 -4.15435e-06)
(0.264479 3.84017e-07 -4.58072e-06)
(0.264482 2.43511e-08 -5.68807e-06)
(0.264481 -4.31047e-07 -5.2526e-06)
(0.264482 5.50752e-07 -6.64596e-06)
(0.264481 -4.62667e-07 -6.2706e-06)
(0.264483 -7.95802e-08 -6.75904e-06)
(0.264481 5.05682e-07 -7.29585e-06)
(0.264484 -9.44063e-07 -6.56606e-06)
(0.26448 7.31684e-07 -7.6307e-06)
(0.264484 -3.56038e-07 -6.62265e-06)
(0.264481 -4.22603e-07 -6.83775e-06)
(0.264482 8.74034e-07 -6.91504e-06)
(0.264481 -1.13397e-06 -5.62099e-06)
(0.314905 1.08204e-06 -7.76932e-06)
(0.314904 -4.34593e-07 -6.26298e-06)
(0.314904 -3.43366e-07 -6.11317e-06)
(0.314902 9.43674e-07 -6.05533e-06)
(0.314903 -1.06286e-06 -4.25989e-06)
(0.314899 1.07699e-06 -4.97294e-06)
(0.314903 -5.89693e-07 -3.35005e-06)
(0.314897 4.28724e-07 -3.00051e-06)
(0.314901 2.58006e-07 -2.65354e-06)
(0.314897 -3.11432e-07 -1.57482e-06)
(0.314899 9.24042e-07 -1.33792e-06)
(0.314896 -6.15383e-07 -9.58591e-07)
(0.314898 9.23337e-07 -1.06634e-07)
(0.314896 -1.92366e-07 -2.83844e-07)
(0.314898 2.4062e-07 1.14317e-07)
(0.314896 6.43527e-07 5.76316e-07)
(0.314899 -4.91762e-07 -1.76939e-07)
(0.314896 9.81833e-07 7.33967e-07)
(0.3149 -2.3907e-07 -3.68144e-07)
(0.314897 1.16583e-07 -4.42333e-08)
(0.3149 7.61685e-07 -5.48135e-07)
(0.314899 -6.32222e-07 -1.31743e-06)
(0.314901 8.05078e-07 -1.13504e-06)
(0.3149 -1.21031e-07 -2.62013e-06)
(0.314903 -1.81655e-07 -2.32153e-06)
(0.314901 7.47357e-07 -3.65123e-06)
(0.314904 -7.2087e-07 -4.0001e-06)
(0.314902 5.27473e-07 -4.46528e-06)
(0.314906 9.28011e-09 -5.76536e-06)
(0.314904 -5.30824e-07 -5.33093e-06)
(0.314906 7.11425e-07 -6.94744e-06)
(0.314905 -6.13429e-07 -6.66045e-06)
(0.314907 -7.31278e-08 -7.2498e-06)
(0.314905 6.2556e-07 -8.00042e-06)
(0.314909 -1.21545e-06 -7.28247e-06)
(0.314904 9.61499e-07 -8.58599e-06)
(0.314909 -5.03271e-07 -7.60604e-06)
(0.314904 -5.10109e-07 -7.92168e-06)
(0.314907 1.10078e-06 -8.15742e-06)
(0.314905 -1.4734e-06 -6.80433e-06)
(0.368095 1.40519e-06 -9.09151e-06)
(0.368094 -6.10307e-07 -7.57889e-06)
(0.368094 -3.91559e-07 -7.4951e-06)
(0.368092 1.16496e-06 -7.61018e-06)
(0.368093 -1.35355e-06 -5.63052e-06)
(0.368089 1.38796e-06 -6.53873e-06)
(0.368093 -7.88472e-07 -4.78732e-06)
(0.368086 5.82959e-07 -4.35782e-06)
(0.368091 2.93832e-07 -4.04708e-06)
(0.368085 -3.72472e-07 -2.74663e-06)
(0.368089 1.17115e-06 -2.45692e-06)
(0.368085 -7.86687e-07 -1.97207e-06)
(0.368087 1.20327e-06 -8.90182e-07)
(0.368085 -2.65728e-07 -9.7446e-07)
(0.368086 3.45722e-07 -4.21813e-07)
(0.368084 8.07819e-07 2.76982e-07)
(0.368087 -6.01653e-07 -4.25229e-07)
(0.368083 1.27328e-06 7.50713e-07)
(0.368088 -3.14518e-07 -2.84786e-07)
(0.368084 2.00609e-07 1.98773e-07)
(0.368088 9.60622e-07 -1.75304e-07)
(0.368086 -7.78598e-07 -9.15553e-07)
(0.368089 1.05814e-06 -5.5493e-07)
(0.368088 -1.63608e-07 -2.11507e-06)
(0.36809 -1.82202e-07 -1.69817e-06)
(0.368089 9.52161e-07 -3.07803e-06)
(0.368093 -9.03626e-07 -3.4645e-06)
(0.36809 7.11464e-07 -3.91355e-06)
(0.368094 -6.35411e-09 -5.42388e-06)
(0.368093 -6.3605e-07 -4.92052e-06)
(0.368095 9.10579e-07 -6.78914e-06)
(0.368094 -7.8835e-07 -6.59392e-06)
(0.368096 -5.07243e-08 -7.27728e-06)
(0.368094 7.6888e-07 -8.30141e-06)
(0.368098 -1.52934e-06 -7.5851e-06)
(0.368093 1.24384e-06 -9.21664e-06)
(0.368099 -6.82565e-07 -8.28561e-06)
(0.368094 -6.0121e-07 -8.75947e-06)
(0.368097 1.36615e-06 -9.23973e-06)
(0.368095 -1.87558e-06 -7.85467e-06)
(0.424023 1.79916e-06 -1.01699e-05)
(0.424022 -8.3034e-07 -8.67347e-06)
(0.424021 -4.3624e-07 -8.74725e-06)
(0.42402 1.41602e-06 -9.16121e-06)
(0.424021 -1.70098e-06 -6.98743e-06)
(0.424016 1.7549e-06 -8.24451e-06)
(0.424021 -1.04088e-06 -6.41459e-06)
(0.424013 7.66923e-07 -5.93031e-06)
(0.42402 3.16683e-07 -5.78996e-06)
(0.424012 -4.49448e-07 -4.25253e-06)
(0.424017 1.45059e-06 -3.96737e-06)
(0.424012 -1.00438e-06 -3.42906e-06)
(0.424014 1.5304e-06 -2.10026e-06)
(0.424011 -3.72152e-07 -2.1134e-06)
(0.424013 4.6746e-07 -1.39609e-06)
(0.42401 9.87602e-07 -4.2826e-07)
(0.424013 -7.38296e-07 -1.06819e-06)
(0.424009 1.61455e-06 4.46169e-07)
(0.424014 -4.16326e-07 -5.05436e-07)
(0.424009 3.05538e-07 2.37568e-07)
(0.424014 1.18797e-06 4.5482e-08)
(0.424012 -9.49848e-07 -6.13835e-07)
(0.424014 1.3621e-06 5.70488e-08)
(0.424014 -2.15422e-07 -1.55512e-06)
(0.424016 -1.72543e-07 -9.03272e-07)
(0.424015 1.20002e-06 -2.27336e-06)
(0.424018 -1.11299e-06 -2.63249e-06)
(0.424016 9.44699e-07 -2.95833e-06)
(0.42402 -1.84875e-08 -4.69014e-06)
(0.424018 -7.46997e-07 -4.00685e-06)
(0.424021 1.16076e-06 -6.10617e-06)
(0.42402 -9.88628e-07 -5.99903e-06)
(0.424023 -3.92254e-09 -6.72271e-06)
(0.42402 9.44748e-07 -8.06088e-06)
(0.424026 -1.88862e-06 -7.3025e-06)
(0.42402 1.59455e-06 -9.33582e-06)
(0.424027 -8.95998e-07 -8.45554e-06)
(0.42402 -6.90922e-07 -9.1319e-06)
(0.424025 1.68062e-06 -9.93442e-06)
(0.424022 -2.3482e-06 -8.53742e-06)
(0.4826 2.28266e-06 -1.07481e-05)
(0.4826 -1.09857e-06 -9.23118e-06)
(0.482598 -4.73853e-07 -9.55045e-06)
(0.482598 1.70494e-06 -1.04323e-05)
(0.482599 -2.11047e-06 -8.01524e-06)
(0.482594 2.1879e-06 -9.80024e-06)
(0.4826 -1.35477e-06 -7.99806e-06)
(0.48259 9.85793e-07 -7.45187e-06)
(0.482599 3.20762e-07 -7.69221e-06)
(0.482588 -5.45791e-07 -5.93328e-06)
(0.482595 1.76124e-06 -5.72534e-06)
(0.482588 -1.28061e-06 -5.25722e-06)
(0.482591 1.90776e-06 -3.68381e-06)
(0.482588 -5.25174e-07 -3.71748e-06)
(0.482589 6.0325e-07 -2.84392e-06)
(0.482587 1.17686e-06 -1.62963e-06)
(0.482589 -9.14098e-07 -2.24772e-06)
(0.482585 2.00617e-06 -3.15604e-07)
(0.48259 -5.58401e-07 -1.25342e-06)
(0.482584 4.29206e-07 -1.40196e-07)
(0.48259 1.43926e-06 -1.07398e-07)
(0.482586 -1.15582e-06 -6.92125e-07)
(0.482589 1.72032e-06 4.58886e-07)
(0.482589 -2.82546e-07 -1.20003e-06)
(0.48259 -1.56237e-07 -1.91675e-07)
(0.48259 1.49693e-06 -1.4609e-06)
(0.482593 -1.35764e-06 -1.73895e-06)
(0.482591 1.23306e-06 -1.76749e-06)
(0.482595 -2.35175e-08 -3.71652e-06)
(0.482593 -8.66861e-07 -2.73465e-06)
(0.482597 1.47696e-06 -4.95158e-06)
(0.482596 -1.21843e-06 -4.91842e-06)
(0.482599 7.63774e-08 -5.58262e-06)
(0.482596 1.16369e-06 -7.22388e-06)
(0.482602 -2.29804e-06 -6.33697e-06)
(0.482595 2.03439e-06 -8.81022e-06)
(0.482604 -1.1469e-06 -7.93101e-06)
(0.482596 -7.69628e-07 -8.83786e-06)
(0.482603 2.05726e-06 -9.99788e-06)
(0.482599 -2.89751e-06 -8.56606e-06)
(0.543656 2.87923e-06 -1.06334e-05)
(0.543657 -1.41891e-06 -8.95287e-06)
(0.543654 -4.89559e-07 -9.5462e-06)
(0.543655 2.03941e-06 -1.11007e-05)
(0.543656 -2.58531e-06 -8.34135e-06)
(0.543651 2.70064e-06 -1.07797e-05)
(0.543658 -1.73486e-06 -9.19108e-06)
(0.543646 1.2502e-06 -8.51663e-06)
(0.543657 3.0163e-07 -9.36625e-06)
(0.543644 -6.5666e-07 -7.47255e-06)
(0.543653 2.10449e-06 -7.38078e-06)
(0.543645 -1.62608e-06 -7.19981e-06)
(0.543649 2.34315e-06 -5.37548e-06)
(0.543645 -7.40093e-07 -5.62134e-06)
(0.543646 7.53494e-07 -4.62517e-06)
(0.543644 1.36918e-06 -3.21895e-06)
(0.543646 -1.14258e-06 -3.99592e-06)
(0.54364 2.45076e-06 -1.51096e-06)
(0.543647 -7.59528e-07 -2.64041e-06)
(0.54364 5.69107e-07 -1.10519e-06)
(0.543645 1.70805e-06 -7.71179e-07)
(0.543641 -1.41249e-06 -1.41807e-06)
(0.543644 2.13319e-06 3.7924e-07)
(0.543644 -3.75813e-07 -1.32652e-06)
(0.543645 -1.42649e-07 9.11469e-08)
(0.543645 1.84627e-06 -9.4623e-07)
(0.543647 -1.65084e-06 -1.13649e-06)
(0.543646 1.5774e-06 -6.89294e-07)
(0.543649 -1.96334e-08 -2.76028e-06)
(0.543647 -1.00875e-06 -1.4556e-06)
(0.543651 1.8746e-06 -3.57382e-06)
(0.54365 -1.48938e-06 -3.54553e-06)
(0.543653 1.98526e-07 -4.07518e-06)
(0.54365 1.43451e-06 -5.90065e-06)
(0.543658 -2.76822e-06 -4.7631e-06)
(0.543649 2.58871e-06 -7.68674e-06)
(0.543661 -1.44448e-06 -6.63741e-06)
(0.54365 -8.25355e-07 -7.81362e-06)
(0.543659 2.51008e-06 -9.29843e-06)
(0.543655 -3.53101e-06 -7.68611e-06)
(0.606914 3.61341e-06 -9.84288e-06)
(0.606917 -1.79935e-06 -7.72873e-06)
(0.606912 -4.67772e-07 -8.52074e-06)
(0.606916 2.42836e-06 -1.09067e-05)
(0.606915 -3.12214e-06 -7.71141e-06)
(0.60691 3.30935e-06 -1.07686e-05)
(0.606919 -2.18261e-06 -9.59378e-06)
(0.606905 1.57823e-06 -8.73915e-06)
(0.60692 2.53278e-07 -1.02693e-05)
(0.606903 -7.66309e-07 -8.46062e-06)
(0.606915 2.48546e-06 -8.40498e-06)
(0.606905 -2.04586e-06 -8.82241e-06)
(0.606909 2.85563e-06 -6.69149e-06)
(0.606906 -1.02969e-06 -7.39396e-06)
(0.606906 9.25479e-07 -6.41172e-06)
(0.606904 1.56212e-06 -4.75334e-06)
(0.606906 -1.43423e-06 -6.125e-06)
(0.6069 2.95824e-06 -2.8839e-06)
(0.606907 -1.0401e-06 -4.45323e-06)
(0.606898 7.25054e-07 -2.66421e-06)
(0.606905 1.98943e-06 -1.87484e-06)
(0.6069 -1.73732e-06 -2.81631e-06)
(0.606902 2.59973e-06 -3.78854e-07)
(0.606902 -5.09224e-07 -2.0506e-06)
(0.606902 -1.47202e-07 -3.32327e-07)
(0.606903 2.24721e-06 -1.04073e-06)
(0.606904 -2.01189e-06 -1.08139e-06)
(0.606904 1.97026e-06 -2.42102e-07)
(0.606907 -6.5699e-09 -2.0902e-06)
(0.606905 -1.19917e-06 -6.10395e-07)
(0.606909 2.36856e-06 -2.48037e-06)
(0.606907 -1.82613e-06 -2.15263e-06)
(0.606911 3.67415e-07 -2.68706e-06)
(0.606907 1.76157e-06 -4.42827e-06)
(0.606916 -3.32238e-06 -2.84929e-06)
(0.606905 3.28568e-06 -6.34116e-06)
(0.60692 -1.80939e-06 -4.69627e-06)
(0.606907 -8.49469e-07 -6.23611e-06)
(0.606918 3.05092e-06 -8.00281e-06)
(0.606913 -4.26048e-06 -5.80513e-06)
(0.671959 4.50462e-06 -8.74086e-06)
(0.671965 -2.25632e-06 -5.74116e-06)
(0.671958 -3.98637e-07 -6.66572e-06)
(0.671964 2.87024e-06 -9.82272e-06)
(0.671962 -3.71368e-06 -6.12751e-06)
(0.671957 4.02504e-06 -9.73791e-06)
(0.671969 -2.7014e-06 -8.83333e-06)
(0.67195 1.99642e-06 -8.04392e-06)
(0.671971 1.64097e-07 -9.9194e-06)
(0.67195 -8.54008e-07 -8.55472e-06)
(0.671965 2.91268e-06 -8.31719e-06)
(0.671953 -2.54316e-06 -9.60125e-06)
(0.671958 3.46964e-06 -7.15504e-06)
(0.671956 -1.40004e-06 -8.3404e-06)
(0.671954 1.13223e-06 -7.80124e-06)
(0.671954 1.76228e-06 -5.54321e-06)
(0.671955 -1.79294e-06 -8.08709e-06)
(0.671949 3.54593e-06 -4.0448e-06)
(0.671956 -1.41408e-06 -6.06401e-06)
(0.671947 9.03875e-07 -4.435e-06)
(0.671953 2.28089e-06 -3.18939e-06)
(0.671948 -2.14369e-06 -4.38708e-06)
(0.67195 3.12285e-06 -1.76535e-06)
(0.671951 -6.92514e-07 -3.22724e-06)
(0.671948 -1.83904e-07 -1.27484e-06)
(0.671952 2.70152e-06 -2.06428e-06)
(0.671949 -2.46153e-06 -1.35199e-06)
(0.67195 2.39866e-06 -8.845e-07)
(0.671953 1.84064e-08 -1.96143e-06)
(0.67195 -1.47687e-06 -2.88463e-07)
(0.671955 2.97918e-06 -2.43132e-06)
(0.671951 -2.26885e-06 -8.89328e-07)
(0.671957 5.83584e-07 -1.98269e-06)
(0.671951 2.14586e-06 -3.40654e-06)
(0.671963 -4.00179e-06 -8.51934e-07)
(0.671949 4.15567e-06 -5.51562e-06)
(0.671967 -2.27894e-06 -2.46682e-06)
(0.671951 -8.30352e-07 -4.46766e-06)
(0.671965 3.67994e-06 -6.71259e-06)
(0.671959 -5.09845e-06 -3.09246e-06)
(0.738199 5.557e-06 -8.12871e-06)
(0.738207 -2.82421e-06 -3.34365e-06)
(0.738197 -2.61543e-07 -4.57306e-06)
(0.738206 3.33671e-06 -8.42233e-06)
(0.738204 -4.35249e-06 -3.60126e-06)
(0.738197 4.84127e-06 -8.50846e-06)
(0.738213 -3.30142e-06 -6.68583e-06)
(0.73819 2.52358e-06 -6.80763e-06)
(0.738216 1.53405e-08 -8.34754e-06)
(0.73819 -8.98892e-07 -7.55964e-06)
(0.73821 3.38577e-06 -7.19045e-06)
(0.738197 -3.11346e-06 -9.03669e-06)
(0.738201 4.19313e-06 -6.70348e-06)
(0.738201 -1.84644e-06 -7.84741e-06)
(0.738197 1.38871e-06 -8.35248e-06)
(0.738199 1.97163e-06 -5.21225e-06)
(0.738198 -2.20612e-06 -9.01145e-06)
(0.738193 4.22589e-06 -4.54401e-06)
(0.7382 -1.88195e-06 -6.94882e-06)
(0.738191 1.12264e-06 -5.34124e-06)
(0.738198 2.58556e-06 -4.56838e-06)
(0.738192 -2.63026e-06 -5.24659e-06)
(0.738193 3.7083e-06 -3.05607e-06)
(0.738196 -9.20557e-07 -4.8674e-06)
(0.738189 -2.64845e-07 -1.51054e-06)
(0.738196 3.22209e-06 -4.36471e-06)
(0.73819 -3.00681e-06 -1.24072e-06)
(0.738193 2.84383e-06 -2.25287e-06)
(0.738195 7.99496e-08 -2.92495e-06)
(0.73819 -1.89808e-06 4.06248e-07)
(0.738198 3.74414e-06 -4.16977e-06)
(0.738191 -2.86193e-06 2.87476e-07)
(0.7382 8.37347e-07 -1.95687e-06)
(0.73819 2.59962e-06 -3.72865e-06)
(0.738205 -4.86461e-06 1.39699e-06)
(0.738187 5.22936e-06 -6.00413e-06)
(0.73821 -2.90324e-06 -5.15106e-07)
(0.73819 -7.56857e-07 -2.72648e-06)
(0.738206 4.36542e-06 -6.39985e-06)
(0.7382 -6.06185e-06 1.95943e-07)
(0.804812 6.76191e-06 -8.93085e-06)
(0.804824 -3.55165e-06 -1.16611e-06)
(0.80481 -3.59282e-08 -2.1793e-06)
(0.804822 3.76337e-06 -8.47329e-06)
(0.804819 -5.01198e-06 4.60701e-07)
(0.804811 5.70261e-06 -8.57209e-06)
(0.804832 -3.97767e-06 -3.52566e-06)
(0.804801 3.15207e-06 -5.22221e-06)
(0.804836 -2.40241e-07 -6.79622e-06)
(0.804804 -8.59796e-07 -5.10683e-06)
(0.804828 3.83825e-06 -6.04629e-06)
(0.804813 -3.7115e-06 -7.03999e-06)
(0.804818 4.99875e-06 -5.48736e-06)
(0.804819 -2.38078e-06 -6.38645e-06)
(0.804813 1.73838e-06 -7.43961e-06)
(0.804818 2.14156e-06 -4.0662e-06)
(0.804815 -2.63447e-06 -8.73273e-06)
(0.804812 4.99465e-06 -3.32518e-06)
(0.804818 -2.45202e-06 -7.7763e-06)
(0.804809 1.41603e-06 -3.98418e-06)
(0.804816 2.89329e-06 -5.56686e-06)
(0.804811 -3.17055e-06 -5.59452e-06)
(0.80481 4.34936e-06 -2.02477e-06)
(0.804816 -1.15859e-06 -7.99503e-06)
(0.804804 -4.02233e-07 9.26897e-07)
(0.804817 3.81819e-06 -7.52954e-06)
(0.804807 -3.61418e-06 -9.32605e-07)
(0.80481 3.25493e-06 -2.01223e-06)
(0.804814 2.60569e-07 -6.24442e-06)
(0.804804 -2.5313e-06 3.23467e-06)
(0.804817 4.70714e-06 -7.49847e-06)
(0.804805 -3.6142e-06 1.00365e-06)
(0.804817 1.09859e-06 -1.10883e-06)
(0.804804 3.15358e-06 -6.48385e-06)
(0.804823 -5.9571e-06 4.66392e-06)
(0.804801 6.53368e-06 -7.88617e-06)
(0.804827 -3.73984e-06 3.9594e-07)
(0.804804 -5.99507e-07 -3.88258e-07)
(0.804821 5.05201e-06 -8.32112e-06)
(0.804815 -7.15552e-06 4.35149e-06)
(0.870689 8.09506e-06 -1.02357e-05)
(0.870707 -4.48221e-06 -1.53837e-06)
(0.870686 3.48383e-07 3.12052e-06)
(0.870703 4.00325e-06 -1.27064e-05)
(0.870699 -5.56609e-06 6.77619e-06)
(0.870687 6.47305e-06 -9.92109e-06)
(0.870716 -4.71587e-06 -1.66462e-06)
(0.870676 3.91922e-06 -1.62069e-06)
(0.87072 -7.66034e-07 -7.83455e-06)
(0.870681 -5.84446e-07 -8.47503e-07)
(0.87071 4.09447e-06 -5.39455e-06)
(0.870694 -4.2852e-06 -5.36988e-06)
(0.870697 5.89041e-06 -2.59166e-06)
(0.870703 -3.124e-06 -5.69889e-06)
(0.87069 2.29048e-06 -5.45885e-06)
(0.870703 2.1594e-06 -1.30846e-06)
(0.870694 -3.04532e-06 -9.75911e-06)
(0.870695 5.8514e-06 1.43529e-06)
(0.8707 -3.16958e-06 -9.54578e-06)
(0.87069 1.83174e-06 -1.48214e-06)
(0.870699 3.14412e-06 -3.32602e-06)
(0.870693 -3.69341e-06 -8.81525e-06)
(0.87069 4.97599e-06 4.56248e-06)
(0.870702 -1.3525e-06 -1.35001e-05)
(0.870683 -5.82219e-07 5.53322e-06)
(0.870701 4.42785e-06 -8.16197e-06)
(0.870689 -4.1436e-06 -3.57029e-06)
(0.870689 3.49948e-06 3.74864e-06)
(0.870701 6.71193e-07 -1.29114e-05)
(0.870681 -3.39052e-06 8.57348e-06)
(0.870703 5.84702e-06 -9.74671e-06)
(0.870684 -4.45718e-06 -7.45418e-07)
(0.8707 1.34021e-06 3.64974e-06)
(0.870684 3.82888e-06 -1.24111e-05)
(0.870704 -7.28126e-06 9.46035e-06)
(0.87068 8.09645e-06 -9.3733e-06)
(0.870708 -4.85242e-06 -1.39862e-06)
(0.870682 -2.71983e-07 5.01582e-06)
(0.870702 5.6621e-06 -1.38844e-05)
(0.870695 -8.33169e-06 9.97732e-06)
(0.93436 9.54057e-06 -5.85532e-06)
(0.934385 -5.72565e-06 -9.57871e-06)
(0.934356 1.14155e-06 1.50012e-05)
(0.934378 3.77249e-06 -2.06679e-05)
(0.934374 -5.78327e-06 1.20539e-05)
(0.934357 7.0886e-06 -7.20171e-06)
(0.934395 -5.6415e-06 -6.06569e-06)
(0.934343 5.07559e-06 6.71035e-06)
(0.934399 -1.87368e-06 -1.15453e-05)
(0.934351 1.25196e-07 2.25228e-06)
(0.934384 4.07386e-06 -1.8279e-06)
(0.93437 -4.94546e-06 -7.50816e-06)
(0.934366 7.02104e-06 2.19209e-06)
(0.934384 -4.28827e-06 -4.24445e-06)
(0.934358 3.13888e-06 -7.12221e-06)
(0.934382 1.95619e-06 6.63794e-06)
(0.934366 -3.49508e-06 -1.48113e-05)
(0.934369 6.83702e-06 7.7117e-06)
(0.934377 -4.15979e-06 -8.04516e-06)
(0.934362 2.46724e-06 -4.93802e-06)
(0.934375 3.16479e-06 7.47119e-06)
(0.934371 -4.0802e-06 -1.82086e-05)
(0.934361 5.50937e-06 1.51679e-05)
(0.934382 -1.58261e-06 -1.68403e-05)
(0.934355 -6.20834e-07 5.34011e-06)
(0.934377 4.77039e-06 1.58508e-07)
(0.934368 -4.35758e-06 -1.33335e-05)
(0.934359 3.45284e-06 1.59157e-05)
(0.934383 1.27683e-06 -2.01478e-05)
(0.934351 -4.34621e-06 1.19409e-05)
(0.934382 7.01965e-06 -5.21236e-06)
(0.934358 -5.29048e-06 -8.69259e-06)
(0.934374 1.56564e-06 1.46911e-05)
(0.93436 4.58359e-06 -1.99652e-05)
(0.934378 -8.75776e-06 1.29738e-05)
(0.934353 9.92686e-06 -5.10673e-06)
(0.934385 -6.3001e-06 -9.66567e-06)
(0.934354 3.8264e-07 1.65427e-05)
(0.934377 6.03558e-06 -2.18623e-05)
(0.93437 -9.44152e-06 1.38936e-05)
(0.993907 1.12717e-05 1.19955e-05)
(0.993943 -7.58985e-06 -2.54665e-05)
(0.993905 2.71311e-06 2.75856e-05)
(0.99393 2.83623e-06 -2.12156e-05)
(0.993931 -5.6401e-06 6.16745e-06)
(0.993902 7.76588e-06 6.36482e-06)
(0.993957 -7.04108e-06 -1.6264e-05)
(0.993889 6.89328e-06 1.4382e-05)
(0.993955 -3.61027e-06 -9.32299e-06)
(0.993905 1.17122e-06 -2.32736e-06)
(0.993931 3.97789e-06 6.80458e-06)
(0.993931 -5.87218e-06 -9.67619e-06)
(0.99391 8.47414e-06 1.34138e-06)
(0.993945 -5.82143e-06 5.55095e-06)
(0.993907 4.12106e-06 -1.63487e-05)
(0.993937 1.67013e-06 1.71057e-05)
(0.993922 -4.1202e-06 -1.59085e-05)
(0.993919 8.00381e-06 4.02076e-06)
(0.993935 -5.51455e-06 6.00995e-06)
(0.993915 3.36373e-06 -1.93314e-05)
(0.993928 2.85699e-06 2.39516e-05)
(0.993929 -4.38789e-06 -2.58701e-05)
(0.993911 6.07383e-06 1.76005e-05)
(0.993939 -2.15431e-06 -7.38926e-06)
(0.99391 -2.58459e-07 -7.69764e-06)
(0.993927 4.61102e-06 1.89116e-05)
(0.99393 -4.28275e-06 -2.70371e-05)
(0.993905 3.25511e-06 2.60892e-05)
(0.993944 1.78386e-06 -1.85011e-05)
(0.993901 -5.19539e-06 4.10756e-06)
(0.993936 8.1106e-06 1.12716e-05)
(0.993914 -6.20965e-06 -2.33254e-05)
(0.993925 1.92705e-06 2.69143e-05)
(0.993916 5.2084e-06 -2.04331e-05)
(0.993932 -1.03018e-05 5.8429e-06)
(0.993905 1.20905e-05 1.15592e-05)
(0.993941 -8.28287e-06 -2.49682e-05)
(0.993905 1.6455e-06 2.87676e-05)
(0.99393 5.95412e-06 -2.1585e-05)
(0.993927 -1.04194e-05 5.42875e-06)
(1.04689 1.34154e-05 3.13582e-05)
(1.04694 -1.01546e-05 -3.00875e-05)
(1.0469 5.00043e-06 2.23303e-05)
(1.04692 1.37564e-06 -4.03691e-06)
(1.04693 -5.29561e-06 -9.23332e-06)
(1.04688 8.5558e-06 1.92241e-05)
(1.04695 -8.77444e-06 -1.65243e-05)
(1.04688 9.05235e-06 9.64982e-06)
(1.04694 -5.64806e-06 1.94212e-06)
(1.04691 2.3919e-06 -7.39647e-06)
(1.04691 3.77163e-06 7.88755e-06)
(1.04693 -6.74665e-06 2.99832e-07)
(1.04689 9.84281e-06 -9.6548e-06)
(1.04694 -7.3461e-06 1.84232e-05)
(1.0469 5.10761e-06 -1.90216e-05)
(1.04692 1.31487e-06 1.32865e-05)
(1.04692 -4.76793e-06 2.23057e-07)
(1.04691 9.21152e-06 -1.3758e-05)
(1.04693 -7.12666e-06 2.61726e-05)
(1.04691 4.52133e-06 -2.9827e-05)
(1.04692 2.24694e-06 2.75923e-05)
(1.04692 -4.69297e-06 -1.54891e-05)
(1.0469 6.78225e-06 1.61392e-06)
(1.04693 -3.22407e-06 1.60327e-05)
(1.04691 5.65675e-07 -2.67542e-05)
(1.04691 3.95893e-06 3.41395e-05)
(1.04693 -4.05446e-06 -2.84546e-05)
(1.04689 3.01923e-06 1.85812e-05)
(1.04694 2.09675e-06 1.32817e-06)
(1.0469 -5.9649e-06 -1.64288e-05)
(1.04693 9.13759e-06 3.09011e-05)
(1.04691 -7.30834e-06 -2.9736e-05)
(1.04692 2.43872e-06 2.27686e-05)
(1.04691 5.69002e-06 -1.92579e-06)
(1.04693 -1.20205e-05 -1.46764e-05)
(1.0469 1.46392e-05 3.09916e-05)
(1.04693 -1.09425e-05 -3.0031e-05)
(1.0469 3.52265e-06 2.2412e-05)
(1.04692 5.43625e-06 -8.56321e-07)
(1.04692 -1.1408e-05 -1.61007e-05)
(1.09032 1.59603e-05 2.84187e-05)
(1.09036 -1.34336e-05 -1.47657e-05)
(1.09033 7.96918e-06 6.71996e-06)
(1.09033 -6.30179e-07 1.04498e-05)
(1.09036 -4.75522e-06 -1.24428e-05)
(1.09031 9.39085e-06 1.7092e-05)
(1.09037 -1.08475e-05 -7.14635e-06)
(1.09032 1.16601e-05 4.68395e-06)
(1.09035 -8.24878e-06 4.29918e-06)
(1.09034 4.10342e-06 2.73159e-08)
(1.09033 3.13541e-06 -3.69118e-07)
(1.09036 -7.3888e-06 1.05852e-05)
(1.09032 1.11415e-05 -1.07713e-05)
(1.09036 -8.99627e-06 1.39896e-05)