/*--------------------------------*- C++ -*----------------------------------*\
  =========                 |
  \\      /  F ield         | OpenFOAM: The Open Source CFD Toolbox
   \\    /   O peration     | Website:  https://openfoam.org
    \\  /    A nd           | Version:  10
     \\/     M anipulation  |
\*---------------------------------------------------------------------------*/
FoamFile
{
    format      ascii;
    class       volVectorField;
    location    "42.5";
    object      UMean;
}
// * * * * * * * * * * * * * * * * * * * * * * * * * * * * * * * * * * * * * //

dimensions      [0 1 -1 0 0 0 0];

internalField   nonuniform List<vector> 
25600
(
(0.02407 2.08359e-08 -2.58524e-05)
(0.0240622 3.81473e-08 6.54898e-06)
(0.0240672 3.63134e-08 2.55368e-05)
(0.0240601 4.74961e-08 3.72313e-07)
(0.0240715 -8.74727e-08 -2.60922e-05)
(0.0240638 -5.8187e-08 -2.15627e-05)
(0.0240701 -1.87872e-08 8.64989e-06)
(0.0240596 1.24765e-07 2.8504e-05)
(0.0240762 -6.73676e-08 1.51613e-06)
(0.0240654 1.54899e-08 -3.54281e-05)
(0.024081 -3.79717e-08 -2.43451e-05)
(0.0240661 1.78295e-08 1.33013e-05)
(0.024071 -6.736e-08 2.31453e-05)
(0.0240638 -1.75583e-08 3.60756e-07)
(0.0240704 -4.52037e-08 -3.06283e-05)
(0.0240689 -7.65427e-09 -2.86907e-05)
(0.0240692 1.43616e-09 7.56185e-06)
(0.0240685 -6.48639e-09 2.57845e-05)
(0.0240724 -1.35486e-07 -4.99903e-06)
(0.0240674 -7.20882e-08 -3.01063e-05)
(0.0240735 -6.68615e-08 -2.73284e-05)
(0.024064 2.63961e-09 1.05273e-05)
(0.0240708 3.0342e-08 2.24778e-05)
(0.0240635 -4.5873e-08 8.4651e-06)
(0.02407 -6.32803e-08 -2.97117e-05)
(0.0240698 -1.46859e-08 -2.25601e-05)
(0.0240628 5.83425e-08 7.52064e-06)
(0.0240646 -1.38883e-07 2.91881e-05)
(0.0240616 -1.83011e-08 7.79902e-08)
(0.0240697 -2.30486e-08 -2.92218e-05)
(0.0240665 -3.05383e-08 -3.15516e-05)
(0.0240655 9.8337e-08 1.30363e-05)
(0.0240609 4.64511e-08 1.89119e-05)
(0.0240611 -7.14236e-09 6.96315e-06)
(0.0240634 3.87546e-08 -3.5058e-05)
(0.0240707 6.54194e-08 -1.94067e-05)
(0.0240693 -9.14984e-08 6.3133e-06)
(0.0240595 -4.18484e-08 2.71409e-05)
(0.0240692 -2.94575e-08 -5.70566e-06)
(0.0240606 -3.804e-08 -3.02241e-05)
(0.0735955 -1.30671e-07 -7.87796e-05)
(0.0735716 1.01968e-06 1.59362e-05)
(0.0735878 2.01838e-07 7.52851e-05)
(0.0735663 3.11633e-07 2.43091e-06)
(0.0736013 -1.01013e-06 -7.88429e-05)
(0.0735768 -4.36446e-08 -6.82477e-05)
(0.0735965 2.86215e-07 2.20551e-05)
(0.0735645 7.47486e-07 8.38683e-05)
(0.0736151 -8.26707e-07 5.57572e-06)
(0.0735814 6.12142e-08 -0.000106256)
(0.0736294 -6.28293e-07 -7.58838e-05)
(0.0735842 1.30937e-06 3.61062e-05)
(0.0735991 -1.62161e-07 6.58951e-05)
(0.0735772 5.66582e-07 2.98843e-06)
(0.0735969 -7.49919e-07 -9.24346e-05)
(0.0735923 -1.18124e-07 -8.84258e-05)
(0.073593 -1.46926e-07 1.99016e-05)
(0.0735914 -6.9749e-08 7.56994e-05)
(0.0736029 -7.57909e-07 -1.24277e-05)
(0.0735869 -4.45974e-07 -9.02093e-05)
(0.0736054 -8.07177e-07 -8.3919e-05)
(0.0735786 4.33866e-07 2.78318e-05)
(0.073598 6.87307e-07 6.44076e-05)
(0.0735779 8.04799e-08 2.5452e-05)
(0.0735944 -6.51188e-07 -8.9065e-05)
(0.0735948 6.94876e-07 -7.06e-05)
(0.073572 9.3196e-07 1.6974e-05)
(0.0735831 -7.30037e-07 8.54252e-05)
(0.0735699 4.52787e-07 2.85349e-07)
(0.0735951 -4.23174e-07 -8.7659e-05)
(0.0735835 3.4928e-07 -9.7187e-05)
(0.0735819 6.69233e-07 3.43481e-05)
(0.0735702 8.48119e-07 5.54154e-05)
(0.07357 -3.09424e-07 2.16855e-05)
(0.0735769 -2.72974e-07 -0.000105506)
(0.073597 -2.06537e-07 -5.9777e-05)
(0.073595 6.59053e-07 1.52437e-05)
(0.073565 1.78747e-07 8.0365e-05)
(0.073592 2.46906e-07 -1.42172e-05)
(0.073568 -1.42913e-07 -9.07204e-05)
(0.126043 -2.03501e-07 -0.000132809)
(0.126005 2.41106e-06 3.06499e-05)
(0.126036 5.45973e-07 0.0001228)
(0.125996 1.76932e-06 7.76194e-06)
(0.126055 -2.50637e-06 -0.000133194)
(0.126013 3.54345e-07 -0.00011791)
(0.126044 4.96536e-07 3.25666e-05)
(0.125995 1.97427e-06 0.000136693)
(0.126076 -1.71714e-06 4.9359e-06)
(0.126022 8.91681e-07 -0.000181681)
(0.126103 -1.87464e-06 -0.000126348)
(0.126027 3.83631e-06 5.56241e-05)
(0.126054 -2.74122e-07 0.000102516)
(0.126014 1.89912e-06 5.41964e-06)
(0.126048 -1.69411e-06 -0.000158679)
(0.12604 -3.09264e-08 -0.00014804)
(0.126044 -7.73665e-07 3.26613e-05)
(0.126043 1.20212e-08 0.000122524)
(0.126057 -1.23909e-06 -2.22986e-05)
(0.126032 -3.85105e-07 -0.000154533)
(0.126066 -1.78082e-06 -0.000137342)
(0.126014 1.08481e-06 3.78682e-05)
(0.126056 1.96904e-06 0.000101821)
(0.126013 7.34653e-07 3.86225e-05)
(0.126046 -7.07443e-07 -0.000153313)
(0.126041 2.40528e-06 -0.0001202)
(0.12601 2.17083e-06 3.05964e-05)
(0.12602 -1.45649e-06 0.000139038)
(0.125999 2.1179e-06 -1.18354e-05)
(0.126046 -8.35928e-07 -0.000148726)
(0.126029 1.385e-06 -0.000163934)
(0.126022 2.02469e-06 5.59107e-05)
(0.126002 2.55687e-06 8.90374e-05)
(0.125999 -9.0582e-07 3.42873e-05)
(0.126011 8.0009e-08 -0.000176709)
(0.126048 -8.86808e-07 -9.60697e-05)
(0.126041 1.94451e-06 1.77592e-05)
(0.125992 7.39482e-07 0.000131324)
(0.12604 1.13938e-06 -3.11606e-05)
(0.125999 2.54662e-07 -0.000152949)
(0.181284 2.15101e-07 -0.000181973)
(0.181229 4.16872e-06 2.82215e-05)
(0.181272 1.67617e-06 0.000160837)
(0.181211 4.59997e-06 1.9006e-05)
(0.181298 -5.05198e-06 -0.000183096)
(0.181238 2.32932e-06 -0.000172214)
(0.181288 8.97888e-07 4.03573e-05)
(0.181211 3.47656e-06 0.000180705)
(0.181338 -3.24309e-06 3.77172e-06)
(0.181254 2.35235e-06 -0.000246913)
(0.181375 -3.08519e-06 -0.000179672)
(0.181258 8.50365e-06 5.07467e-05)
(0.181294 -1.54125e-07 0.000122381)
(0.181241 5.76412e-06 1.68596e-05)
(0.181289 -2.85604e-06 -0.000219665)
(0.181281 9.51813e-07 -0.000209579)
(0.181273 -3.94549e-07 2.52242e-05)
(0.181276 3.99802e-07 0.000156146)
(0.181297 -2.12107e-06 -1.98011e-05)
(0.18126 -9.6565e-07 -0.000202875)
(0.181306 -3.26342e-06 -0.000201146)
(0.181247 3.53789e-06 3.95254e-05)
(0.18129 3.86908e-06 0.000130086)
(0.181251 3.55189e-06 3.75806e-05)
(0.181277 5.94986e-07 -0.000200057)
(0.181286 4.85936e-06 -0.000164685)
(0.181224 3.57196e-06 5.86209e-06)
(0.181265 -2.66866e-06 0.000179746)
(0.181231 5.88621e-06 -2.34295e-05)
(0.181288 4.01279e-07 -0.000197493)
(0.181241 3.88079e-06 -0.000239822)
(0.181253 2.63423e-06 5.83353e-05)
(0.181228 5.13755e-06 0.000112628)
(0.181228 -1.39744e-06 4.02369e-05)
(0.181245 1.29079e-06 -0.0002479)
(0.181292 -2.26244e-06 -0.000139634)
(0.181286 3.58384e-06 1.5131e-05)
(0.181214 2.08103e-06 0.000170933)
(0.181277 4.22486e-06 -2.5227e-05)
(0.181221 1.65445e-06 -0.000210859)
(0.239215 1.15278e-06 -0.000229642)
(0.239153 5.09343e-06 2.79803e-05)
(0.239182 2.7528e-06 0.000187441)
(0.239133 6.56282e-06 1.20097e-05)
(0.239237 -7.12974e-06 -0.000227579)
(0.239148 4.98658e-06 -0.000223388)
(0.239227 4.97124e-06 3.21622e-05)
(0.239125 7.54736e-06 0.00020086)
(0.239259 -3.55296e-06 3.36978e-05)
(0.239182 6.99375e-06 -0.00028841)
(0.239291 -4.87419e-06 -0.000256696)
(0.239162 1.3999e-05 5.42882e-06)
(0.239214 -1.65911e-07 0.000112353)
(0.239147 1.21991e-05 4.03676e-05)
(0.23923 -2.38751e-06 -0.000278193)
(0.239196 4.43031e-06 -0.000283455)
(0.239235 -4.7276e-07 5.82905e-05)
(0.239206 1.86048e-06 0.00017168)
(0.239218 -1.78867e-06 2.41738e-06)
(0.239196 1.60306e-06 -0.000245674)
(0.239234 -2.81177e-06 -0.000253678)
(0.239156 8.96858e-06 1.24339e-05)
(0.239229 7.59427e-06 0.000135836)
(0.239157 5.70172e-06 6.28983e-05)
(0.239209 6.78475e-06 -0.000229351)
(0.239194 1.17735e-05 -0.000233714)
(0.239142 6.54395e-06 -1.47598e-05)
(0.239174 -3.59723e-06 0.000199673)
(0.239133 1.06392e-05 -8.37536e-06)
(0.23921 2.97726e-06 -0.000243409)
(0.239203 1.11362e-05 -0.000271683)
(0.239155 6.14623e-06 2.38504e-05)
(0.239151 8.97032e-06 0.000109868)
(0.239111 -1.49408e-06 9.21481e-05)
(0.239166 2.68808e-06 -0.000288393)
(0.239205 -8.71498e-07 -0.000198338)
(0.239193 4.43361e-06 -3.51731e-05)
(0.239116 4.13673e-06 0.000187457)
(0.239202 7.43008e-06 -2.13797e-05)
(0.239131 5.67389e-06 -0.000250125)
(0.299561 8.53131e-06 -0.000306043)
(0.299565 6.32152e-06 3.47252e-05)
(0.299636 8.97356e-06 0.000175535)
(0.299523 6.23092e-06 6.04422e-05)
(0.299586 -7.55279e-06 -0.000210135)
(0.299561 9.61905e-06 -0.000215434)
(0.299611 7.24287e-06 -2.75927e-05)
(0.299539 8.67636e-06 0.000194257)
(0.299715 7.30871e-07 -3.78218e-06)
(0.299582 1.86186e-05 -0.000306567)
(0.299738 -4.27183e-06 -0.000269154)
(0.299575 2.21828e-05 -4.44612e-05)
(0.299586 2.05278e-06 8.03252e-05)
(0.29955 2.03924e-05 2.31954e-05)
(0.299625 -1.76782e-06 -0.000319913)
(0.299628 1.29468e-05 -0.000283783)
(0.299593 4.47283e-07 -4.21418e-05)
(0.299599 5.66924e-06 0.000104724)
(0.299573 3.81785e-06 6.40453e-05)
(0.299536 2.90993e-06 -0.000243078)
(0.299678 2.79788e-06 -0.000235933)
(0.29959 1.73993e-05 -2.08521e-05)
(0.299603 1.08671e-05 0.000136045)
(0.299584 1.21768e-05 2.26146e-06)
(0.299594 1.71023e-05 -0.000226164)
(0.299572 2.1126e-05 -0.000280406)
(0.299553 1.17025e-05 -3.73268e-05)
(0.299599 7.99126e-07 0.000193857)
(0.299508 1.57879e-05 -1.09843e-06)
(0.299659 2.48688e-06 -0.000255045)
(0.29953 2.49174e-05 -0.000366877)
(0.299591 4.1894e-06 4.80499e-05)
(0.299584 1.49992e-05 0.000117665)
(0.299513 7.33858e-07 8.56511e-05)
(0.299563 3.39982e-06 -0.000295562)
(0.299619 -6.0277e-07 -0.0002259)
(0.299619 1.72676e-05 -7.04756e-05)
(0.299491 1.2452e-05 0.000185847)
(0.299618 9.16156e-06 -3.85494e-05)
(0.29953 9.46283e-06 -0.000246869)
(0.362203 1.60942e-05 -0.000226846)
(0.362101 1.06191e-05 -9.86175e-05)
(0.362155 1.36898e-05 8.75597e-05)
(0.362116 1.56433e-05 -1.33589e-05)
(0.362219 -1.80172e-06 -0.000261995)
(0.36215 2.25902e-05 -0.000265653)
(0.36225 7.08999e-06 -4.65771e-05)
(0.362136 8.44917e-06 0.000134131)
(0.362275 1.54359e-06 -6.68637e-06)
(0.362165 3.00868e-05 -0.000207149)
(0.362244 1.70234e-06 -0.000299346)
(0.362141 2.72069e-05 -4.73964e-05)
(0.362209 1.55136e-06 2.93841e-05)
(0.362228 3.04407e-05 1.44906e-05)
(0.362121 8.26677e-06 -0.000238257)
(0.362196 2.11863e-05 -0.000189865)
(0.362172 1.04128e-05 -9.2203e-05)
(0.362137 1.10955e-05 6.17154e-05)
(0.362168 1.91775e-05 -1.58545e-05)
(0.362181 1.6528e-06 -0.000263898)
(0.362219 1.20603e-05 -0.000282851)
(0.362234 2.12416e-05 -3.83299e-05)
(0.362222 1.19049e-05 9.03385e-05)
(0.362171 2.48089e-05 1.40586e-05)
(0.362212 3.61625e-05 -0.000238861)
(0.36219 2.65512e-05 -0.000276212)
(0.36216 2.03665e-05 -9.73528e-05)
(0.362185 9.24683e-06 0.000148786)
(0.362135 2.66709e-05 -5.10233e-05)
(0.362201 6.20012e-06 -0.000221178)
(0.362131 3.60375e-05 -0.000279224)
(0.362095 -2.3182e-06 -0.000109053)
(0.362094 2.12308e-05 6.87954e-05)
(0.362101 -5.33683e-07 -4.42905e-05)
(0.36219 1.8957e-05 -0.000215309)
(0.362027 -4.49609e-06 -0.000318934)
(0.362214 3.14307e-05 -4.73747e-05)
(0.362082 1.98775e-05 0.000142457)
(0.362204 2.62097e-05 2.64743e-06)
(0.362097 1.52174e-05 -0.000255703)
(0.426551 2.15694e-05 -0.000158302)
(0.426479 2.00121e-05 -9.96816e-05)
(0.426482 1.06105e-05 3.11625e-05)
(0.426488 2.30817e-05 -8.75536e-05)
(0.426578 1.0025e-05 -0.000244663)
(0.426534 3.89923e-05 -0.000210426)
(0.426568 1.65797e-05 -0.000106872)
(0.426486 2.62081e-05 1.16745e-06)
(0.426566 3.71752e-06 -5.42931e-05)
(0.42655 3.04174e-05 -0.000172287)
(0.426619 1.26611e-05 -0.00022338)
(0.426575 3.05521e-05 -1.8273e-05)
(0.426544 1.14123e-05 -6.8449e-05)
(0.426563 3.09905e-05 5.04516e-05)
(0.426542 1.95704e-05 -0.000280757)
(0.426654 2.2106e-05 -0.000103582)
(0.426593 2.82139e-05 -0.000141756)
(0.426527 1.89874e-05 6.11256e-05)
(0.426593 2.66695e-05 -0.000148132)
(0.426661 1.90748e-05 -0.00025045)
(0.426547 2.63243e-05 -0.000254598)
(0.426606 2.04856e-05 -0.000129298)
(0.426513 1.65683e-05 3.19059e-05)
(0.426593 2.10077e-05 -0.000114969)
(0.426591 5.34771e-05 -0.000227778)
(0.426567 3.96659e-05 -0.000210413)
(0.426556 3.55278e-05 -0.000100421)
(0.426499 2.74957e-05 4.06633e-05)
(0.426472 3.49573e-05 -7.62132e-05)
(0.426516 1.99852e-05 -0.000129532)
(0.426444 5.33079e-05 -0.000171958)
(0.426439 1.06864e-05 -6.88246e-05)
(0.426424 3.48836e-05 3.60965e-05)
(0.42649 -1.39371e-06 -6.7306e-05)
(0.426477 3.80227e-05 -0.000159423)
(0.426447 1.06757e-05 -0.000139799)
(0.426551 3.47391e-05 -4.31589e-05)
(0.426414 1.81269e-05 5.04237e-05)
(0.426571 3.34799e-05 -3.59625e-05)
(0.426491 2.91252e-05 -0.000218449)
(0.492295 3.0942e-05 -0.00010464)
(0.492217 3.71658e-05 -6.41387e-05)
(0.492202 2.03272e-05 8.05506e-06)
(0.492169 3.03401e-05 -6.71011e-05)
(0.492234 1.19975e-05 -0.0001885)
(0.492237 4.71465e-05 -0.000158849)
(0.492261 2.74159e-05 -7.93087e-05)
(0.492243 3.56235e-05 3.86835e-05)
(0.492266 1.37324e-05 -0.000103648)
(0.492303 2.27845e-05 -0.000159158)
(0.492317 2.52048e-05 -0.000207246)
(0.492328 3.52186e-05 -2.30683e-05)
(0.492315 3.17037e-05 2.11497e-05)
(0.492314 3.04102e-05 -3.87288e-05)
(0.492362 3.14968e-05 -0.000171513)
(0.492353 2.3119e-05 -0.000156105)
(0.492342 4.64684e-05 -4.89329e-05)
(0.492316 3.15538e-05 3.50949e-05)
(0.492299 3.53729e-05 -4.73179e-05)
(0.492357 3.34433e-05 -0.000180123)
(0.492305 3.82681e-05 -0.000129671)
(0.492359 3.30777e-05 -9.1193e-05)
(0.492219 2.98569e-05 2.04126e-05)
(0.492302 2.36824e-05 -0.000102984)
(0.492251 5.56492e-05 -0.00019905)
(0.49233 4.4675e-05 -0.000167172)
(0.492256 4.93969e-05 -8.30725e-05)
(0.49227 4.33907e-05 6.13061e-06)
(0.49223 5.00462e-05 -7.81059e-05)
(0.492262 3.13775e-05 -0.00018174)
(0.492265 7.48983e-05 -0.000152375)
(0.492236 3.25599e-05 -6.27052e-05)
(0.492223 5.36167e-05 4.40636e-05)
(0.492203 1.58506e-05 -7.94329e-05)
(0.492258 4.55369e-05 -0.000154931)
(0.492221 2.28376e-05 -0.000179889)
(0.492279 4.03447e-05 -1.69189e-05)
(0.492184 3.18565e-05 -1.5921e-05)
(0.492262 3.0945e-05 -6.72816e-06)
(0.492196 3.41473e-05 -0.000175293)
(0.558813 3.64482e-05 -7.99856e-05)
(0.558789 5.04693e-05 -4.39594e-05)
(0.558807 2.70865e-05 1.75331e-05)
(0.558773 4.37353e-05 -3.12204e-05)
(0.558797 2.15411e-05 -7.9636e-05)
(0.558791 4.84718e-05 -0.000111435)
(0.558789 3.76704e-05 -3.57204e-05)
(0.558817 3.47046e-05 -4.24141e-06)
(0.558801 2.65445e-05 -1.13752e-05)
(0.558806 2.3942e-05 -8.24192e-05)
(0.558829 3.44672e-05 -9.14604e-05)
(0.55882 3.3211e-05 -4.95888e-05)
(0.55884 3.98888e-05 1.23833e-05)
(0.558822 3.04461e-05 -2.21586e-05)
(0.558852 4.27844e-05 -6.09472e-05)
(0.558851 2.99427e-05 -9.56649e-05)
(0.558876 5.15947e-05 -1.20398e-05)
(0.558873 3.9787e-05 2.40345e-05)
(0.55886 4.64592e-05 6.95541e-06)
(0.558885 4.15391e-05 -8.81408e-05)
(0.558864 4.80289e-05 -6.67451e-05)
(0.558895 4.5033e-05 -4.31263e-05)
(0.558824 4.75723e-05 -2.13801e-05)
(0.558871 3.63561e-05 -1.25204e-05)
(0.558799 6.55079e-05 -0.000109838)
(0.558865 4.81878e-05 -8.65517e-05)
(0.558825 6.05425e-05 -6.50149e-05)
(0.558829 4.40276e-05 -9.2028e-06)
(0.558848 6.09345e-05 -4.28641e-05)
(0.558805 4.34635e-05 -0.000110806)
(0.558834 7.81109e-05 -9.6226e-05)
(0.558781 4.82446e-05 -6.70771e-05)
(0.558833 6.66345e-05 8.34102e-06)
(0.558764 3.6002e-05 -4.48761e-05)
(0.558817 5.95091e-05 -6.90548e-05)
(0.558766 4.11165e-05 -0.000124179)
(0.55882 4.89829e-05 -2.64546e-05)
(0.558773 4.49673e-05 -9.84263e-06)
(0.55883 3.97317e-05 -1.12697e-05)
(0.558767 4.73788e-05 -9.11021e-05)
(0.62556 4.75879e-05 -2.37653e-05)
(0.625551 5.54292e-05 -2.08813e-05)
(0.625543 4.44415e-05 1.33142e-05)
(0.625546 4.8358e-05 -1.54269e-05)
(0.625538 3.33957e-05 -1.99381e-05)
(0.625556 4.83504e-05 -4.19709e-05)
(0.625538 4.73667e-05 9.95435e-06)
(0.625548 3.99698e-05 -1.11502e-05)
(0.625539 3.77616e-05 2.21355e-05)
(0.62555 3.15453e-05 -3.33633e-05)
(0.62555 3.99621e-05 -5.74728e-06)
(0.625561 3.90702e-05 -1.07285e-05)
(0.625546 4.57883e-05 3.114e-05)
(0.625572 3.76621e-05 -2.28554e-06)
(0.625556 4.40393e-05 -6.73331e-06)
(0.625592 3.84236e-05 -2.43143e-05)
(0.625564 4.86523e-05 1.3593e-05)
(0.625604 5.02427e-05 1.74177e-05)
(0.625571 4.44329e-05 2.55944e-05)
(0.625621 4.72779e-05 -1.41692e-05)
(0.625582 4.75189e-05 -2.64136e-06)
(0.625619 5.02821e-05 -4.07935e-06)
(0.625577 5.40586e-05 3.08552e-05)
(0.625602 4.47096e-05 1.18572e-07)
(0.625595 6.63338e-05 -1.21151e-05)
(0.625597 5.54472e-05 -3.21545e-05)
(0.625602 6.39382e-05 1.17106e-05)
(0.625582 4.72359e-05 1.09811e-05)
(0.625593 6.27761e-05 1.88731e-05)
(0.625574 4.53729e-05 -2.4345e-05)
(0.625599 7.65664e-05 -1.55387e-05)
(0.625558 5.48845e-05 -1.37754e-05)
(0.625592 6.85726e-05 2.97086e-05)
(0.625556 4.53985e-05 -1.10751e-05)
(0.625586 6.3832e-05 -1.2449e-05)
(0.625551 5.39305e-05 -3.58403e-05)
(0.625576 5.8929e-05 3.50942e-06)
(0.625544 5.61775e-05 2.92019e-06)
(0.625558 5.07026e-05 9.61105e-06)
(0.625549 5.59302e-05 -3.73752e-05)
(0.691774 4.78641e-05 2.20988e-05)
(0.691772 5.14046e-05 9.52603e-06)
(0.691764 4.58369e-05 3.47318e-05)
(0.691768 4.44183e-05 1.16708e-05)
(0.691754 3.70681e-05 2.56715e-05)
(0.691761 4.19108e-05 5.90038e-06)
(0.691747 4.73352e-05 3.37778e-05)
(0.691759 3.99052e-05 1.86628e-05)
(0.691745 3.97735e-05 3.73592e-05)
(0.691761 3.29595e-05 5.37144e-06)
(0.691742 3.94794e-05 2.78193e-05)
(0.691765 3.79679e-05 1.54859e-05)
(0.691743 4.24912e-05 4.10727e-05)
(0.69177 3.56228e-05 2.12369e-05)
(0.691747 4.2518e-05 2.64643e-05)
(0.691778 3.72617e-05 1.08475e-05)
(0.691751 4.56728e-05 3.02846e-05)
(0.691781 4.7587e-05 2.28208e-05)
(0.691762 4.42679e-05 3.56895e-05)
(0.691786 4.46722e-05 1.29058e-05)
(0.69178 4.61122e-05 2.33954e-05)
(0.691787 4.72524e-05 1.70605e-05)
(0.691791 5.38228e-05 3.97254e-05)
(0.691785 4.41423e-05 2.57311e-05)
(0.6918 6.05397e-05 2.92203e-05)
(0.691788 5.21931e-05 1.47489e-05)
(0.691813 5.96521e-05 3.55605e-05)
(0.691788 4.48792e-05 3.22548e-05)
(0.691814 5.93719e-05 4.08386e-05)
(0.691783 4.17337e-05 2.20634e-05)
(0.691814 6.79432e-05 2.7828e-05)
(0.691784 5.06099e-05 2.7703e-05)
(0.691811 6.41398e-05 4.25498e-05)
(0.691785 4.41295e-05 3.14481e-05)
(0.691801 5.95362e-05 3.04482e-05)
(0.691787 4.96824e-05 1.58856e-05)
(0.691794 5.57363e-05 3.18272e-05)
(0.691784 5.14586e-05 2.50254e-05)
(0.691782 5.03686e-05 3.48203e-05)
(0.691778 5.03683e-05 1.1941e-05)
(0.756568 3.99256e-05 3.90353e-05)
(0.756571 4.23924e-05 2.47672e-05)
(0.756563 3.91795e-05 4.17219e-05)
(0.756569 3.78217e-05 2.61182e-05)
(0.756557 3.24346e-05 4.01159e-05)
(0.756562 3.42038e-05 2.46622e-05)
(0.756549 3.95206e-05 4.32091e-05)
(0.756558 3.48594e-05 2.96918e-05)
(0.756546 3.41108e-05 4.48212e-05)
(0.756553 2.87559e-05 2.58878e-05)
(0.756541 3.24762e-05 3.98001e-05)
(0.756547 3.18936e-05 2.75054e-05)
(0.756539 3.57308e-05 4.28156e-05)
(0.756543 3.21207e-05 3.01044e-05)
(0.75654 3.46951e-05 3.75449e-05)
(0.75654 3.28419e-05 2.52184e-05)
(0.756542 3.70723e-05 3.68122e-05)
(0.756537 3.93521e-05 2.96293e-05)
(0.756549 3.73862e-05 3.91191e-05)
(0.756538 3.48814e-05 2.64926e-05)
(0.756555 3.82084e-05 3.51049e-05)
(0.756538 3.58979e-05 2.6151e-05)
(0.756559 4.50153e-05 3.96489e-05)
(0.756541 3.45842e-05 3.11753e-05)
(0.756565 4.91324e-05 3.78982e-05)
(0.756547 3.96003e-05 2.67943e-05)
(0.756573 4.97902e-05 3.86003e-05)
(0.756554 3.45496e-05 3.34326e-05)
(0.756576 4.83083e-05 4.3121e-05)
(0.756558 3.27819e-05 3.20173e-05)
(0.756575 5.3036e-05 3.98595e-05)
(0.756563 4.12042e-05 3.36832e-05)
(0.756577 5.14881e-05 4.6819e-05)
(0.756569 3.76983e-05 3.63754e-05)
(0.756576 4.70284e-05 4.28063e-05)
(0.756572 4.15036e-05 3.07379e-05)
(0.756575 4.50916e-05 4.1417e-05)
(0.756574 4.323e-05 3.17887e-05)
(0.756572 4.18675e-05 4.32647e-05)
(0.756574 4.15043e-05 2.6763e-05)
(0.818858 2.98624e-05 3.6349e-05)
(0.818859 3.15956e-05 2.39698e-05)
(0.81886 2.99876e-05 3.67532e-05)
(0.81886 2.85025e-05 2.52044e-05)
(0.818861 2.49552e-05 3.69744e-05)
(0.818857 2.52292e-05 2.59298e-05)
(0.818858 2.93296e-05 3.87925e-05)
(0.818855 2.70754e-05 2.89317e-05)
(0.818859 2.61731e-05 3.99354e-05)
(0.818852 2.21546e-05 2.81391e-05)
(0.818857 2.42493e-05 3.74741e-05)
(0.818846 2.42767e-05 2.87501e-05)
(0.818855 2.72656e-05 3.80486e-05)
(0.818842 2.45563e-05 3.02942e-05)
(0.818854 2.63398e-05 3.60032e-05)
(0.818837 2.50321e-05 2.75912e-05)
(0.818851 2.86483e-05 3.46031e-05)
(0.818834 2.92609e-05 2.86757e-05)
(0.818851 3.03333e-05 3.62374e-05)
(0.818833 2.61386e-05 2.74015e-05)
(0.818849 3.05035e-05 3.39926e-05)
(0.818831 2.65284e-05 2.57677e-05)
(0.818847 3.56213e-05 3.54757e-05)
(0.818832 2.70693e-05 2.8279e-05)
(0.818846 3.81196e-05 3.53463e-05)
(0.818835 3.01733e-05 2.59853e-05)
(0.818848 3.87231e-05 3.49015e-05)
(0.818839 2.6748e-05 2.87694e-05)
(0.818848 3.59709e-05 3.78498e-05)
(0.818842 2.56125e-05 2.90936e-05)
(0.818847 3.79359e-05 3.68415e-05)
(0.818844 3.20256e-05 2.94265e-05)
(0.81885 3.8058e-05 4.02612e-05)
(0.81885 3.04157e-05 3.15423e-05)
(0.818852 3.39036e-05 3.90236e-05)
(0.818853 3.25063e-05 2.84297e-05)
(0.818854 3.34616e-05 3.69934e-05)
(0.818856 3.34932e-05 2.7538e-05)
(0.818857 3.15792e-05 3.81465e-05)
(0.818859 3.13797e-05 2.57936e-05)
(0.877463 2.14061e-05 3.0799e-05)
(0.877453 2.26726e-05 2.19175e-05)
(0.877464 2.1793e-05 3.03765e-05)
(0.877454 2.08032e-05 2.24899e-05)
(0.877466 1.83331e-05 3.07081e-05)
(0.877454 1.78977e-05 2.32199e-05)
(0.877466 2.04893e-05 3.18682e-05)
(0.877455 1.96157e-05 2.498e-05)
(0.877469 1.90726e-05 3.27318e-05)
(0.877456 1.5986e-05 2.48135e-05)
(0.877469 1.72279e-05 3.14618e-05)
(0.877456 1.70002e-05 2.5025e-05)
(0.877469 1.95319e-05 3.19102e-05)
(0.877456 1.7671e-05 2.6099e-05)
(0.877468 1.94435e-05 3.13836e-05)
(0.877456 1.79481e-05 2.4718e-05)
(0.877467 2.13714e-05 3.04803e-05)
(0.877455 2.06693e-05 2.51283e-05)
(0.877466 2.34802e-05 3.16594e-05)
(0.877456 1.88686e-05 2.48283e-05)
(0.877465 2.30497e-05 3.02944e-05)
(0.877454 1.89279e-05 2.33422e-05)
(0.877462 2.63626e-05 3.04749e-05)
(0.877453 2.05152e-05 2.46358e-05)
(0.877461 2.79906e-05 3.06642e-05)
(0.877453 2.26015e-05 2.35517e-05)
(0.87746 2.81922e-05 3.02909e-05)
(0.877454 2.05316e-05 2.50783e-05)
(0.877459 2.5461e-05 3.24696e-05)
(0.877452 1.95979e-05 2.59972e-05)
(0.877457 2.60772e-05 3.23157e-05)
(0.877451 2.41395e-05 2.61778e-05)
(0.877457 2.72163e-05 3.41081e-05)
(0.877451 2.35043e-05 2.75256e-05)
(0.877458 2.41831e-05 3.35033e-05)
(0.877451 2.41632e-05 2.53806e-05)
(0.877459 2.40441e-05 3.17799e-05)
(0.877452 2.4758e-05 2.41748e-05)
(0.877461 2.2956e-05 3.2069e-05)
(0.877453 2.29189e-05 2.32702e-05)
(0.931132 1.50744e-05 2.64923e-05)
(0.931119 1.58783e-05 2.01054e-05)
(0.931131 1.54038e-05 2.58855e-05)
(0.93112 1.47828e-05 2.02018e-05)
(0.931131 1.31134e-05 2.60932e-05)
(0.931119 1.23585e-05 2.06873e-05)
(0.93113 1.39262e-05 2.67637e-05)
(0.931119 1.36909e-05 2.16563e-05)
(0.931131 1.35998e-05 2.72198e-05)
(0.93112 1.13662e-05 2.15751e-05)
(0.931131 1.1942e-05 2.64034e-05)
(0.931119 1.15267e-05 2.15426e-05)
(0.93113 1.35829e-05 2.65875e-05)
(0.93112 1.23862e-05 2.21874e-05)
(0.931131 1.38271e-05 2.65195e-05)
(0.93112 1.26039e-05 2.15199e-05)
(0.931131 1.5086e-05 2.59128e-05)
(0.93112 1.45176e-05 2.1637e-05)
(0.931131 1.68535e-05 2.66142e-05)
(0.931121 1.37347e-05 2.16408e-05)
(0.931132 1.6122e-05 2.57519e-05)
(0.931121 1.37138e-05 2.04906e-05)
(0.931132 1.82155e-05 2.54017e-05)
(0.931121 1.55691e-05 2.09779e-05)
(0.931132 1.94779e-05 2.55993e-05)
(0.931122 1.68794e-05 2.04872e-05)
(0.931133 1.93296e-05 2.5548e-05)
(0.931123 1.56369e-05 2.15381e-05)
(0.931133 1.72257e-05 2.72665e-05)
(0.931122 1.47397e-05 2.26895e-05)
(0.931132 1.72707e-05 2.76811e-05)
(0.931121 1.75091e-05 2.30432e-05)
(0.931132 1.87093e-05 2.87867e-05)
(0.931121 1.76604e-05 2.39496e-05)
(0.931132 1.69628e-05 2.86213e-05)
(0.931121 1.75058e-05 2.26078e-05)
(0.931132 1.68653e-05 2.74258e-05)
(0.93112 1.78536e-05 2.15832e-05)
(0.931132 1.63421e-05 2.73582e-05)
(0.93112 1.64506e-05 2.11028e-05)
(0.978603 1.0285e-05 2.22679e-05)
(0.978591 1.06756e-05 1.79739e-05)
(0.978602 1.0415e-05 2.17192e-05)
(0.978591 1.00182e-05 1.78399e-05)
(0.978602 8.94803e-06 2.1852e-05)
(0.978591 8.24848e-06 1.81592e-05)
(0.978602 9.07479e-06 2.22882e-05)
(0.97859 9.1923e-06 1.87191e-05)
(0.978602 9.18221e-06 2.2498e-05)
(0.97859 7.91264e-06 1.86748e-05)
(0.978602 7.81684e-06 2.19903e-05)
(0.97859 7.71644e-06 1.85788e-05)
(0.978601 8.77229e-06 2.20799e-05)
(0.978589 8.58228e-06 1.8958e-05)
(0.978601 9.18257e-06 2.22037e-05)
(0.978589 8.85338e-06 1.86873e-05)
(0.978601 1.00636e-05 2.18563e-05)
(0.978589 1.02379e-05 1.8705e-05)
(0.978601 1.13989e-05 2.22082e-05)
(0.97859 1.00913e-05 1.87656e-05)
(0.978601 1.07904e-05 2.16204e-05)
(0.978589 9.99082e-06 1.78321e-05)
(0.9786 1.20771e-05 2.103e-05)
(0.978589 1.15553e-05 1.77399e-05)
(0.978601 1.31455e-05 2.10812e-05)
(0.97859 1.23531e-05 1.74764e-05)
(0.978602 1.29411e-05 2.11741e-05)
(0.978591 1.1509e-05 1.82628e-05)
(0.978602 1.14177e-05 2.24618e-05)
(0.978591 1.06425e-05 1.94083e-05)
(0.978601 1.11558e-05 2.30817e-05)
(0.97859 1.21485e-05 1.9862e-05)
(0.978601 1.24889e-05 2.37924e-05)
(0.97859 1.26762e-05 2.04355e-05)
(0.978602 1.1647e-05 2.38516e-05)
(0.978591 1.22826e-05 1.96434e-05)
(0.978602 1.15255e-05 2.30884e-05)
(0.978591 1.24431e-05 1.89066e-05)
(0.978603 1.12799e-05 2.28654e-05)
(0.978591 1.13931e-05 1.86569e-05)
(1.01872 6.6626e-06 1.84262e-05)
(1.01871 7.12879e-06 1.56732e-05)
(1.01872 6.5799e-06 1.80219e-05)
(1.01871 6.71521e-06 1.54223e-05)
(1.01872 5.62845e-06 1.81227e-05)
(1.01871 5.55978e-06 1.56013e-05)
(1.01872 5.40928e-06 1.83898e-05)
(1.0187 6.14381e-06 1.59304e-05)
(1.01872 5.62293e-06 1.84277e-05)
(1.0187 5.51474e-06 1.58945e-05)
(1.01872 4.65097e-06 1.8079e-05)
(1.0187 5.18911e-06 1.5774e-05)
(1.01872 5.16902e-06 1.81463e-05)
(1.0187 5.87333e-06 1.60022e-05)
(1.01872 5.67419e-06 1.83252e-05)
(1.0187 6.13689e-06 1.59715e-05)
(1.01871 6.30908e-06 1.81435e-05)
(1.0187 7.07784e-06 1.60031e-05)
(1.01871 7.3019e-06 1.82506e-05)
(1.0187 7.22176e-06 1.60284e-05)
(1.01872 6.96468e-06 1.78521e-05)
(1.0187 7.1028e-06 1.52422e-05)
(1.01871 7.75436e-06 1.72705e-05)
(1.0187 8.274e-06 1.48401e-05)
(1.01871 8.6641e-06 1.71992e-05)
(1.0187 8.79617e-06 1.46694e-05)
(1.01872 8.47359e-06 1.73193e-05)
(1.01871 8.15932e-06 1.53257e-05)
(1.01872 7.37063e-06 1.82434e-05)
(1.01871 7.3697e-06 1.63603e-05)
(1.01872 7.02781e-06 1.89034e-05)
(1.0187 8.13619e-06 1.6842e-05)
(1.01871 8.06048e-06 1.9466e-05)
(1.0187 8.78452e-06 1.71619e-05)
(1.01872 7.78342e-06 1.96393e-05)
(1.01871 8.50996e-06 1.67276e-05)
(1.01872 7.60987e-06 1.91878e-05)
(1.01871 8.54911e-06 1.62721e-05)
(1.01872 7.41927e-06 1.88636e-05)
(1.01871 7.78333e-06 1.61465e-05)
(1.05055 4.03333e-06 1.50916e-05)
(1.05054 4.71442e-06 1.34333e-05)
(1.05055 3.84688e-06 1.48767e-05)
(1.05054 4.39943e-06 1.31331e-05)
(1.05055 3.23053e-06 1.49427e-05)
(1.05054 3.64469e-06 1.32501e-05)
(1.05055 2.91144e-06 1.50462e-05)
(1.05054 3.92039e-06 1.348e-05)
(1.05055 3.07753e-06 1.49777e-05)
(1.05054 3.6339e-06 1.34192e-05)
(1.05055 2.49353e-06 1.47581e-05)
(1.05054 3.32695e-06 1.3274e-05)
(1.05055 2.77339e-06 1.4832e-05)
(1.05054 3.78364e-06 1.34318e-05)
(1.05055 3.26158e-06 1.49631e-05)
(1.05054 4.0406e-06 1.35514e-05)
(1.05055 3.72073e-06 1.48707e-05)
(1.05054 4.70423e-06 1.36215e-05)
(1.05055 4.42306e-06 1.4887e-05)
(1.05054 4.96777e-06 1.35365e-05)
(1.05055 4.28552e-06 1.46651e-05)
(1.05054 4.91774e-06 1.28371e-05)
(1.05055 4.77576e-06 1.41788e-05)
(1.05054 5.75212e-06 1.23278e-05)
(1.05055 5.49857e-06 1.39695e-05)
(1.05054 6.129e-06 1.22227e-05)
(1.05055 5.32727e-06 1.39886e-05)
(1.05054 5.64481e-06 1.28059e-05)
(1.05055 4.5177e-06 1.46444e-05)
(1.05054 5.00616e-06 1.36899e-05)
(1.05055 4.20683e-06 1.53053e-05)
(1.05054 5.37375e-06 1.40996e-05)
(1.05055 4.92957e-06 1.58187e-05)
(1.05054 5.97339e-06 1.42516e-05)
(1.05055 4.96549e-06 1.60186e-05)
(1.05054 5.86872e-06 1.40875e-05)
(1.05055 4.77738e-06 1.57131e-05)
(1.05054 5.82998e-06 1.38979e-05)
(1.05055 4.58036e-06 1.53637e-05)
(1.05054 5.27219e-06 1.38327e-05)
(1.07363 2.32705e-06 1.23401e-05)
(1.07362 3.13436e-06 1.12587e-05)
(1.07363 2.11478e-06 1.22428e-05)
(1.07362 2.86965e-06 1.10154e-05)
(1.07363 1.72432e-06 1.22227e-05)
(1.07362 2.37055e-06 1.1138e-05)
(1.07363 1.40939e-06 1.22059e-05)
(1.07362 2.47874e-06 1.12797e-05)
(1.07363 1.46941e-06 1.21287e-05)
(1.07362 2.36296e-06 1.11761e-05)
(1.07363 1.13705e-06 1.20234e-05)
(1.07362 2.12382e-06 1.1057e-05)
(1.07363 1.264e-06 1.20457e-05)
(1.07362 2.39551e-06 1.12209e-05)
(1.07363 1.67272e-06 1.20924e-05)
(1.07362 2.65996e-06 1.13864e-05)
(1.07363 2.0435e-06 1.20765e-05)
(1.07362 3.15884e-06 1.14033e-05)
(1.07363 2.53724e-06 1.21303e-05)
(1.07362 3.44718e-06 1.11913e-05)
(1.07363 2.52889e-06 1.20102e-05)
(1.07362 3.47892e-06 1.06043e-05)
(1.07363 2.85055e-06 1.15648e-05)
(1.07362 4.02859e-06 1.01757e-05)
(1.07363 3.38241e-06 1.12146e-05)
(1.07362 4.30354e-06 1.01529e-05)
(1.07363 3.25744e-06 1.11316e-05)
(1.07362 3.9335e-06 1.06318e-05)
(1.07363 2.66354e-06 1.16514e-05)
(1.07362 3.43626e-06 1.12875e-05)
(1.07363 2.41342e-06 1.23321e-05)
(1.07362 3.5737e-06 1.15822e-05)
(1.07363 2.9088e-06 1.28056e-05)
(1.07362 4.04087e-06 1.16995e-05)
(1.07363 3.06571e-06 1.29251e-05)
(1.07362 4.0663e-06 1.17572e-05)
(1.07363 2.91497e-06 1.26678e-05)
(1.07362 4.02432e-06 1.17326e-05)
(1.07363 2.72749e-06 1.24179e-05)
(1.07362 3.60609e-06 1.16298e-05)
(1.08815 1.24174e-06 9.9689e-06)
(1.08815 2.04964e-06 9.21428e-06)
(1.08815 1.07259e-06 9.87925e-06)
(1.08815 1.83935e-06 9.08334e-06)
(1.08815 8.35826e-07 9.80897e-06)
(1.08815 1.51048e-06 9.18714e-06)
(1.08815 5.4587e-07 9.77083e-06)
(1.08815 1.53891e-06 9.24329e-06)
(1.08815 5.37052e-07 9.7194e-06)
(1.08815 1.50878e-06 9.15683e-06)
(1.08815 3.45553e-07 9.63074e-06)
(1.08815 1.33599e-06 9.09534e-06)
(1.08815 3.9176e-07 9.58631e-06)
(1.08815 1.47831e-06 9.22131e-06)
(1.08815 7.09583e-07 9.63211e-06)
(1.08815 1.71736e-06 9.32856e-06)
(1.08815 1.00528e-06 9.71637e-06)
(1.08815 2.09529e-06 9.27552e-06)
(1.08815 1.33811e-06 9.79429e-06)
(1.08815 2.3724e-06 9.04602e-06)
(1.08815 1.40159e-06 9.65549e-06)
(1.08815 2.46109e-06 8.62845e-06)
(1.08815 1.64117e-06 9.18837e-06)
(1.08815 2.81027e-06 8.33011e-06)
(1.08815 2.03355e-06 8.78322e-06)
(1.08815 2.99386e-06 8.3138e-06)
(1.08815 1.93792e-06 8.71254e-06)
(1.08815 2.71515e-06 8.61043e-06)
(1.08815 1.49442e-06 9.1878e-06)
(1.08815 2.31442e-06 9.04984e-06)
(1.08815 1.30256e-06 9.81388e-06)
(1.08815 2.34911e-06 9.31354e-06)
(1.08815 1.65176e-06 1.01636e-05)
(1.08815 2.69794e-06 9.48394e-06)
(1.08815 1.83015e-06 1.01911e-05)
(1.08815 2.79223e-06 9.6375e-06)
(1.08815 1.70821e-06 1.005e-05)