/*--------------------------------*- C++ -*----------------------------------*\
  =========                 |
  \\      /  F ield         | OpenFOAM: The Open Source CFD Toolbox
   \\    /   O peration     | Website:  https://openfoam.org
    \\  /    A nd           | Version:  10
     \\/     M anipulation  |
\*---------------------------------------------------------------------------*/
FoamFile
{
    format      ascii;
    class       surfaceScalarField;
    location    "40";
    object      phi;
}
// * * * * * * * * * * * * * * * * * * * * * * * * * * * * * * * * * * * * * //

dimensions      [0 3 -1 0 0 0 0];

internalField   nonuniform List<scalar> 
74080
(
0.000138412
-1.50113e-05
0.000165997
0.000160118
-2.05498e-05
0.000162367
0.000157704
-1.28749e-05
0.000186155
0.000151153
9.05815e-06
0.000180948
0.000161975
-2.82059e-07
0.000170143
0.000165422
2.96867e-05
0.000169663
0.000158674
3.33576e-05
0.0001736
0.000149005
3.61837e-05
0.000165668
0.000151711
2.92909e-06
0.000162698
0.000150357
1.74727e-05
0.000156684
0.000145885
1.29852e-05
0.000159467
0.000153544
-1.82422e-05
0.000186319
0.000158907
-3.31307e-06
0.000172441
0.000159833
-7.84068e-06
0.000170583
0.000159836
-1.14705e-05
0.000175812
0.000163523
2.7418e-06
0.000181895
0.000162757
1.20446e-05
0.000187056
0.000149867
1.88328e-05
0.000202326
0.000154778
-1.12953e-05
0.000181271
0.000160964
-6.64711e-06
0.000171269
0.000151947
1.6055e-05
0.00018392
0.000148101
-5.66055e-06
0.000166159
0.000150132
2.31178e-06
0.000159475
0.000163449
-4.50587e-06
0.00017809
0.000168431
9.42125e-06
0.000177258
0.000159929
2.45165e-05
0.000178144
0.000151157
4.32344e-05
0.000186751
0.000150021
-2.5989e-08
0.00016155
0.000160544
-2.72889e-05
0.000177574
0.000158164
-4.72419e-06
0.000196581
0.000153955
1.96498e-05
0.000170633
0.000160925
-1.84179e-05
0.000169192
0.000165356
-1.28256e-05
0.000163235
0.000169965
-1.0421e-05
0.000150832
0.000159192
1.58606e-05
0.000168264
0.000160357
3.84823e-06
0.000162156
0.000149911
2.57528e-05
0.000172784
0.000126243
3.56032e-05
0.000186574
0.000150926
-4.869e-05
0.000186604
1.2691e-05
0.000164111
0.000126124
-0.00010517
0.000170175
0.000175751
-0.000103681
0.000133908
0.000167881
-3.856e-05
0.000178238
0.00015219
2.07091e-05
0.000157972
0.000176348
-3.56786e-05
0.000136236
0.000183302
3.14191e-05
0.000154121
0.0001765
9.00362e-05
0.000153972
0.000150898
8.94552e-05
0.000122066
0.00015575
-5.22619e-05
0.000136865
0.000152764
-4.35696e-07
0.000119424
0.000132062
-1.35359e-05
0.0001324
0.000157962
-0.000100236
0.000165162
0.000171529
-4.18934e-05
0.000132861
0.00016672
-6.26424e-05
0.00015307
0.000169737
-7.70301e-05
0.000153861
0.000180607
-1.27766e-06
0.0001641
0.000177331
2.15996e-05
0.000171065
0.000152075
3.08329e-05
0.000199332
0.00016344
-6.91045e-05
0.000154648
0.000173899
-3.41783e-05
0.000139141
0.000152637
1.38031e-05
0.00016113
0.000145837
-9.0986e-05
0.000154961
0.000151752
-3.63505e-05
0.00012861
0.000178083
-6.02981e-05
0.000156612
0.000191453
-9.00094e-06
0.000154571
0.000177082
4.01586e-05
0.000171075
0.000151218
0.000113738
0.000170397
0.000142532
-6.27351e-05
0.000142108
0.000172564
-0.000148034
0.00016483
0.000163312
-1.01857e-05
0.000199676
0.000161646
3.77663e-05
0.000128452
0.000190505
-0.000106956
0.000141169
0.000197803
-8.94351e-05
0.000140203
0.000208168
-8.75968e-05
0.00011162
0.000170789
5.06223e-05
0.00014407
0.000163578
3.4929e-06
0.000118274
0.000135607
8.39675e-05
0.00015427
0.000101673
5.65085e-05
0.00018818
0.000174053
-0.000189611
0.000193013
4.74063e-06
0.000128284
0.000124902
-0.000144869
0.000181791
0.000191566
-0.000225513
0.000135246
0.000179555
-8.14172e-05
0.000168227
0.000169303
4.01078e-05
0.000139308
0.000201708
-7.55411e-05
0.000125497
0.000201498
1.09962e-05
0.000163791
0.000208388
0.000139303
0.000132612
0.000161132
0.000159323
9.69175e-05
0.000166768
-9.66015e-05
0.000129634
0.00018636
-6.15881e-05
9.7627e-05
0.000138198
-8.00303e-05
0.000141923
0.000179639
-0.000201346
0.000137887
0.000210338
-0.000144459
0.000122007
0.000183437
-0.000137391
0.000164049
0.000179666
-0.000157589
0.000138837
0.000197484
-1.49109e-05
0.000149173
0.000186323
3.02763e-05
0.000144742
0.000169572
3.19239e-05
0.000175475
0.000192363
-0.00014663
0.000133954
0.000192284
-6.11383e-05
0.000118447
0.00018388
-3.03487e-05
0.000153507
0.000177219
-0.000207851
0.00017324
0.000164257
-7.56258e-05
0.000125208
0.00019753
-0.000137782
0.000148352
0.000214264
-5.48978e-05
0.000148459
0.000193311
4.57887e-05
0.00016957
0.000159215
0.000199861
0.000141095
0.00013491
-0.000108322
0.000133851
0.000173928
-0.000293625
0.000153121
0.000163582
-2.83692e-05
0.000193314
0.000173911
6.23312e-05
0.000102233
0.000225562
-0.000159529
0.00011269
0.000227857
-0.00014974
0.000121705
0.000247498
-0.000206083
9.60002e-05
0.000185603
0.0001019
0.000132073
0.000158845
2.12253e-06
9.42538e-05
0.000152564
0.000125878
0.000136647
0.000142158
5.88515e-05
0.00020313
0.000234709
-0.000329322
0.000231156
3.40346e-06
0.000134669
0.000161874
-0.000132242
0.000196592
0.000206174
-0.000340894
0.000141893
0.000200168
-0.000153899
0.000150588
0.00019807
7.78317e-05
0.000130516
0.000228027
-8.17719e-05
0.00011513
0.000219176
-1.75829e-05
0.000174439
0.000236651
0.000174901
0.000108934
0.000176728
0.000244292
8.92334e-05
0.000178624
-8.60535e-05
0.000138572
0.000253449
-0.0001644
7.05217e-05
0.000195073
-0.000169699
0.000149323
0.000222872
-0.000234965
9.81337e-05
0.000271156
-0.000293345
0.000122976
0.000219388
-0.000175736
0.000156307
0.000199941
-0.000202357
0.000121261
0.000210198
-3.52546e-05
0.000139539
0.000174606
3.73894e-05
0.000131936
0.000184254
2.62819e-05
0.000147916
0.000224932
-0.000217643
0.000112461
0.000210306
-7.34725e-05
0.000103697
0.000228952
-0.0001032
0.000159357
0.000223714
-0.000301587
0.000185426
0.00018415
-6.15045e-05
0.000118662
0.000214269
-0.000188935
0.000142326
0.000226782
-0.000108879
0.000160651
0.000200718
4.76386e-05
0.000162684
0.000175946
0.000267254
0.000128982
0.000144443
-6.90918e-05
0.000114922
0.000171905
-0.000385136
0.000123392
0.000163014
-5.33419e-05
0.000176734
0.000195695
8.00359e-05
0.000102604
0.000267855
-0.000184935
0.000123261
0.00025824
-0.000163217
0.000111262
0.000280703
-0.000295619
6.36533e-05
0.000209668
0.000172076
0.000114574
0.000153794
1.11039e-05
8.85158e-05
0.000184739
0.000151103
0.000125566
0.00020554
1.06458e-06
0.000202404
0.000287904
-0.00049824
0.000265569
-2.07699e-05
0.000151486
0.000213419
-0.000128789
0.000201942
0.000237764
-0.000423967
0.000138069
0.000234167
-0.000246686
0.000131457
0.000226988
0.000134261
0.000131827
0.000252009
-4.22898e-05
7.73611e-05
0.000227134
-3.19484e-05
0.000160556
0.000254295
0.000201834
8.38029e-05
0.000221519
0.000298116
7.80606e-05
0.000200924
-3.51522e-05
0.00016143
0.000287913
-0.000249684
6.60998e-05
0.000254472
-0.000239016
0.000135449
0.00026628
-0.000197724
8.42334e-05
0.00031778
-0.000439453
0.000116923
0.000261044
-0.000177234
0.000135874
0.000208184
-0.000192448
0.000114258
0.000189302
-5.81022e-05
0.000154794
0.000140894
1.69759e-05
0.000149794
0.00019422
3.74657e-05
7.89927e-05
0.000259058
-0.000275783
7.82207e-05
0.00024188
-7.64216e-05
9.16514e-05
0.000252039
-0.000154465
0.000155408
0.000226296
-0.000377816
0.000200637
0.000189885
-4.79159e-06
0.000108843
0.00021646
-0.000199216
0.000125956
0.000219556
-0.000152919
0.000167968
0.000188331
5.03386e-05
0.00014262
0.000187087
0.000282121
0.000126555
0.000180518
-1.36777e-05
0.000120792
0.000190223
-0.000433551
0.0001151
0.000175469
-6.87947e-05
0.000166362
0.000227429
9.31967e-05
0.000102623
0.000309934
-0.000219929
0.000130047
0.000294067
-0.000154013
0.000105027
0.000308642
-0.000318199
1.81023e-05
0.000244935
0.000261185
8.29823e-05
0.000151753
4.88118e-05
8.79278e-05
0.0001984
0.000184544
0.000114299
0.000231023
-4.35684e-05
0.000197873
0.000287293
-0.000645356
0.00027557
-0.000102423
0.000150308
0.000239227
-0.000138633
0.000191807
0.000285291
-0.000517744
0.0001403
0.000273041
-0.000342571
0.000124935
0.000251512
0.000204151
0.000130054
0.000281187
2.23038e-05
2.5458e-05
0.000235174
-2.79881e-05
0.000133512
0.000265864
0.000231513
7.40507e-05
0.000272051
0.000322433
6.44218e-05
0.000245563
2.93264e-05
0.000167472
0.00028902
-0.00025815
7.22178e-05
0.000264056
-0.000254277
0.000130994
0.000296782
-0.000164107
0.000101954
0.000363896
-0.000584451
0.000103386
0.000302447
-0.000165633
0.000125982
0.00019374
-0.000129946
0.000125436
0.000164844
-0.000114277
0.000199269
0.000151292
-5.11751e-05
0.000176262
0.000230989
0.000120565
-5.42609e-05
0.000302216
-0.000305182
3.26297e-05
0.000293589
-8.90773e-05
7.93007e-05
0.0002706
-0.000146
0.000120438
0.000202247
-0.000392184
0.000179387
0.000183265
5.95807e-05
0.000100316
0.000209238
-0.000178216
9.86957e-05
0.000190681
-0.000174077
0.000156641
0.0001615
4.52035e-05
0.000117938
0.000179055
0.000252825
0.000130694
0.000211575
-1.47084e-05
0.000140898
0.000232334
-0.00050013
0.000119591
0.000215626
-7.39933e-05
0.000154982
0.000268265
0.000113588
9.5315e-05
0.000348942
-0.000242121
0.000113767
0.000330495
-0.000134899
0.00010395
0.000328755
-0.000280637
-1.8116e-05
0.000283393
0.000348593
5.31627e-05
0.000178114
8.83604e-05
9.53511e-05
0.000208246
0.000224185
8.53521e-05
0.00022913
5.37984e-06
0.000161465
0.000259865
-0.000720593
0.000257782
-0.000207768
0.000138999
0.000273006
-0.000145746
0.000167407
0.000340261
-0.00061589
0.000144784
0.000304765
-0.000422394
0.000136445
0.000275785
0.000252656
0.000146408
0.000320218
0.000103517
-9.09506e-06
0.000267806
-1.83588e-06
0.000104071
0.000283371
0.000294481
7.47569e-05
0.000303746
0.000360251
5.56979e-05
0.000297374
6.16419e-05
0.000165846
0.000322693
-0.000206376
6.08133e-05
0.000301856
-0.000236754
0.000119393
0.00035158
-0.000185319
0.000114714
0.000421809
-0.000713621
7.81272e-05
0.000360828
-0.000151166
0.000110003
0.000228482
-7.46052e-05
0.000143417
0.000199538
-0.000222557
0.000256869
0.000202175
-0.000107499
0.000240829
0.00028241
0.00023141
-7.35749e-05
0.000354745
-0.000317717
1.22125e-06
0.000346167
-0.000137423
9.91993e-05
0.000319781
-8.29732e-05
4.44727e-05
0.00021988
-0.000297463
9.97327e-05
0.000195973
8.68714e-05
0.000102261
0.000210944
-0.000133529
9.24359e-05
0.000169028
-0.00015941
0.000145995
0.000178239
3.50085e-05
8.69846e-05
0.000224726
0.000191313
0.000132843
0.00026487
-1.14706e-05
0.000142526
0.000291998
-0.000533008
9.96587e-05
0.000277803
-7.72826e-05
0.000139654
0.000318662
0.000152854
8.10503e-05
0.000410114
-0.000238311
8.6845e-05
0.000394187
-0.000128741
0.000126487
0.000335875
-0.000183554
-7.53844e-06
0.000285862
0.000429941
4.53982e-05
0.000206142
0.000111158
0.000121501
0.000237169
0.000237985
6.16375e-05
0.000276625
8.6501e-05
0.000101649
0.000287504
-0.000728204
0.000209981
-0.000272496
0.000119756
0.000316844
-0.000149574
0.000123241
0.000388797
-0.000659641
0.000117112
0.000319622
-0.000484065
0.000142889
0.000296257
0.000226925
0.000190597
0.000358279
0.000161507
1.18521e-05
0.000305093
2.37634e-05
0.000105364
0.000300459
0.000390113
6.70986e-05
0.000298452
0.000439822
4.47071e-05
0.000309187
4.93295e-05
0.000171379
0.000355392
-0.0001343
4.52985e-05
0.00037136
-0.000184139
7.3386e-05
0.00044924
-0.000241368
9.92393e-05
0.00048928
-0.000781776
4.76775e-05
0.000435143
-0.000151037
8.73061e-05
0.000338295
-7.19247e-05
0.000131303
0.000287049
-0.000366926
0.000290547
0.000236464
-0.000128863
0.000265752
0.000331309
0.000257559
6.38626e-06
0.000439913
-0.000354438
-3.85308e-05
0.000408535
-0.000208008
0.000120353
0.000366493
5.26699e-05
-3.61404e-05
0.000255659
-0.00014441
5.63254e-05
0.000222778
8.09938e-05
0.000113163
0.000234851
-9.85735e-05
9.74579e-05
0.000191152
-0.000118909
0.000144208
0.000216029
4.93356e-05
4.68735e-05
0.000293661
7.0886e-05
0.000150062
0.000339986
-6.96397e-08
0.000143062
0.000358649
-0.000479069
1.94441e-05
0.000344111
-7.47824e-05
0.000110839
0.000357328
0.000231501
6.69088e-05
0.000461023
-0.000198097
5.61788e-05
0.000463922
-0.000169743
0.000165044
0.000325354
-2.5351e-05
2.42779e-05
0.000255143
0.000530566
3.86303e-05
0.000226931
7.30729e-05
0.000181666
0.000259349
0.000243689
5.33872e-05
0.000317103
0.000152161
5.58336e-05
0.000337631
-0.000699782
0.000165849
-0.000276965
9.29441e-05
0.000371201
-0.000110797
5.31158e-05
0.000446517
-0.000636927
4.38023e-05
0.000359822
-0.000525129
0.000126705
0.000339491
0.000157504
0.000188385
0.000390754
0.000204472
3.34365e-05
0.000329246
3.806e-05
0.000115688
0.000325488
0.000487817
6.80302e-05
0.000297228
0.000543201
3.91734e-05
0.000307804
5.31211e-06
0.000179544
0.000365984
-6.51496e-05
4.83507e-05
0.000414184
-0.000107793
1.21382e-05
0.000541106
-0.000278033
4.77679e-05
0.000546443
-0.000749919
8.01166e-06
0.000452838
-0.000132848
8.10675e-05
0.000421372
-0.000100026
8.83574e-05
0.000397168
-0.000548482
0.000264678
0.000277293
-0.000134369
0.000292772
0.000356003
0.00025929
4.43431e-05
0.000509421
-0.000435174
-4.16497e-05
0.000505429
-0.000314109
9.78e-05
0.000435331
0.000229658
-4.81642e-05
0.000310761
1.13474e-05
7.56816e-05
0.000276365
8.63388e-05
0.000107471
0.000283307
-5.83291e-05
5.17747e-05
0.000258237
-8.41511e-05
0.000140472
0.000283897
0.000114621
6.57955e-06
0.00033841
-1.56378e-05
0.00017781
0.000391747
-1.79241e-05
0.000179066
0.000430715
-0.000423547
-6.6178e-05
0.000415489
-6.0775e-05
6.99806e-05
0.000395421
0.000344491
5.81132e-05
0.000492187
-0.000127798
2.00942e-05
0.000519214
-0.000234769
0.000157504
0.000348115
0.000106088
6.80719e-05
0.000285269
0.000656045
-1.17285e-06
0.000292284
1.94258e-05
0.000208197
0.000309293
0.000215543
5.4178e-05
0.000360715
0.000214345
4.01625e-05
0.000390469
-0.000634156
0.000142653
-0.000194814
3.61534e-05
0.000444578
-1.32746e-05
4.07028e-06
0.000524498
-0.000596319
-4.03934e-06
0.000450051
-0.000533761
0.000111758
0.000436413
9.5141e-05
0.000147355
0.000449009
0.000277873
1.11465e-05
0.000348693
8.73379e-05
0.00011279
0.000349644
0.00056415
6.52779e-05
0.000349372
0.00062799
1.4784e-05
0.000357242
-4.75652e-05
0.000153495
0.000400975
-1.51791e-05
8.96453e-05
0.000463177
-3.39164e-05
-5.2635e-05
0.000598793
-0.000267152
-2.66834e-05
0.000596354
-0.000629859
-3.50547e-05
0.000492419
-9.44583e-05
6.67885e-05
0.000465666
-0.000102272
4.14818e-05
0.000449843
-0.000685006
0.00022738
0.000317465
-0.000170806
0.000340074
0.000357626
0.000232939
8.12778e-05
0.000492225
-0.000513411
3.47703e-05
0.000554931
-0.000459664
8.99398e-05
0.000537198
0.000332671
-1.19691e-05
0.00041083
7.99296e-05
0.000140791
0.000355332
7.74913e-05
0.000121761
0.000314035
5.33491e-05
-8.86665e-06
0.00026673
-3.47986e-05
0.000140745
0.000328486
0.00020432
-2.57042e-05
0.000381849
-6.79552e-05
0.00018419
0.000443149
-7.74557e-05
0.000238274
0.000488078
-0.000401638
-4.38749e-05
0.000464142
-3.70607e-05
6.36876e-05
0.00044253
0.000454839
7.54656e-05
0.000532637
-6.62237e-05
2.86678e-05
0.000560283
-0.000240743
0.000137533
0.000387179
0.000197609
0.000120921
0.000378009
0.000728156
-2.79591e-05
0.000424158
-8.91095e-06
0.000150252
0.00040285
0.000183252
6.07894e-05
0.000418622
0.000293321
3.38392e-05
0.000450791
-0.000552961
0.000112747
-6.79946e-05
1.0584e-06
0.000521638
9.16995e-05
-1.91091e-05
0.000604778
-0.000578893
-1.68181e-05
0.00053025
-0.000530122
0.000101667
0.000516482
7.56961e-05
0.00013858
0.000532915
0.00034752
-2.25719e-05
0.000415638
0.000147081
9.52307e-05
0.000421277
0.000601622
6.86974e-05
0.000459788
0.000677473
-2.86062e-05
0.00044576
-5.48635e-05
7.55259e-05
0.000447735
2.75659e-05
0.000154103
0.000500796
4.77932e-05
-7.45999e-05
0.000636012
-0.000232091
-8.17515e-05
0.000680762
-0.000530298
-3.96894e-05
0.000614388
-3.53331e-05
1.66811e-05
0.000542042
-6.76503e-05
-1.41364e-05
0.000464799
-0.000733659
0.000211803
0.000367703
-0.000291476
0.000381406
0.000417958
0.000142854
0.000136329
0.000474074
-0.000515628
8.91774e-05
0.000539073
-0.000579113
0.000161198
0.000586657
0.000342468
4.2479e-05
0.000508398
6.68419e-05
0.000150249
0.00048362
5.6999e-05
0.00010055
0.000429511
0.000193527
-9.07631e-05
0.000319083
8.55554e-05
0.000124028
0.000377184
0.000294285
-1.86157e-05
0.000427727
-0.000123949
0.00014615
0.000504376
-0.000166557
0.000284406
0.000551193
-0.000401902
-5.78734e-06
0.000505842
-1.59913e-05
9.77596e-05
0.000533071
0.000482371
0.000139738
0.000618901
-4.67017e-05
4.16611e-05
0.000594251
-0.000177628
0.000148535
0.000430898
0.000293416
0.000157166
0.000437141
0.000781441
-2.89416e-06
0.000506436
-3.01959e-06
6.17823e-05
0.000479666
0.000167743
9.33266e-05
0.000460435
0.000383988
5.49036e-05
0.000490236
-0.00044563
6.57729e-05
6.04375e-05
-2.73996e-05
0.000554416
0.000216497
-5.2821e-06
0.000644077
-0.00057865
1.34685e-05
0.000575172
-0.000581783
0.000108683
0.000568422
4.88308e-05
0.000181763
0.000626246
0.000365287
-3.0219e-05
0.000502562
0.000216512
7.96127e-05
0.000482577
0.000627883
8.99245e-05
0.00054213
0.000664594
-5.29347e-05
0.000524413
-3.50131e-05
-3.55908e-06
0.000493087
6.29304e-05
0.000170392
0.000527329
0.000113611
-3.08214e-05
0.000654464
-0.000212224
-6.59774e-05
0.000749515
-0.000503364
2.3034e-05
0.000706497
6.77435e-05
-2.44644e-05
0.000614257
3.10739e-05
-3.74531e-05
0.000507418
-0.000730305
0.000203291
0.000443853
-0.000468407
0.000387252
0.000559013
-2.13128e-06
0.000157012
0.000557839
-0.000441106
7.05618e-05
0.000537105
-0.000611787
0.000210194
0.000637706
0.000238366
0.0001111
0.000586392
5.87523e-05
0.000102696
0.000536077
0.000107496
9.32442e-05
0.000539074
0.0002654
-8.65889e-05
0.000472976
0.000176449
0.000112086
0.000546195
0.000349746
4.65772e-06
0.000582586
-0.000155535
6.19052e-05
0.000633431
-0.000196285
0.000255758
0.000637564
-0.000310476
-5.5183e-05
0.000495714
4.91219e-05
0.000149575
0.000560229
0.000387987
0.000268282
0.000712546
-0.000120957
6.19018e-05
0.000668399
-8.50688e-05
0.000136643
0.000513132
0.00037323
0.000156094
0.000502145
0.000823089
1.9122e-05
0.000558209
7.6891e-05
-1.93691e-05
0.000554825
0.000102229
0.000151822
0.000543648
0.000414333
0.000112116
0.000573511
-0.000312216
7.38888e-05
0.00019458
-3.64358e-05
0.000616571
0.000352129
3.14077e-05
0.00067231
-0.000516388
7.48186e-05
0.000648306
-0.000674886
8.95799e-05
0.000634964
-3.20828e-05
0.000260587
0.00072484
0.00036506
1.78098e-05
0.000586949
0.000274517
7.43256e-05
0.000531305
0.000653328
0.000101438
0.000652538
0.000561884
-6.83453e-05
0.000666482
-3.35481e-05
-3.67783e-05
0.00059016
0.000107465
0.000147962
0.000577435
0.000169629
4.91045e-05
0.000685938
-0.000202908
-5.66624e-06
0.000786834
-0.000514844
0.000106481
0.000789867
0.000155221
1.43527e-05
0.000763201
0.00016652
-3.6932e-05
0.000626839
-0.000613604
0.000143431
0.000521426
-0.000590591
0.000382934
0.00070411
-0.000186078
0.000140025
0.000691505
-0.000311482
2.52051e-05
0.00054104
-0.000497192
0.000204897
0.000636503
0.000133012
0.000144514
0.000588956
-4.36732e-06
0.0001083
0.000546051
0.00010452
0.000171916
0.000583588
0.00034272
-8.04065e-05
0.000547809
0.000242608
9.8453e-05
0.000670859
0.000365691
-3.68336e-05
0.000694814
-0.000152666
9.13048e-06
0.000709707
-0.000177183
0.000248596
0.000758677
-0.000215885
-0.000105459
0.000614437
0.000110472
0.000120778
0.000603916
0.00033486
0.00028971
0.00074173
-0.00019165
4.55598e-05
0.000715487
3.93893e-05
7.37231e-05
0.000600537
0.000464848
0.000103007
0.000626712
0.000769945
-5.50781e-06
0.000665298
0.000192854
-6.37371e-05
0.000641077
5.94784e-05
0.000145933
0.000619246
0.000403785
0.000148736
0.000649715
-0.000222065
0.000165673
0.000224965
7.26013e-06
0.000763038
0.000399212
3.12602e-05
0.000743543
-0.000377342
0.000104334
0.000669836
-0.000645065
9.86742e-05
0.000588639
-0.000171385
0.000333512
0.000685605
0.000296964
9.72344e-05
0.000709963
0.000122053
0.000113501
0.000745066
0.000548213
0.000125414
0.000797455
0.000489883
-2.87776e-05
0.000762312
2.05669e-06
-1.13019e-05
0.000649714
0.000162691
0.000135063
0.000618754
0.000231405
8.09478e-05
0.000736997
-0.00018041
3.39082e-05
0.000843915
-0.000533904
0.000165492
0.000888006
0.000182833
7.04251e-05
0.000919721
0.000273767
-6.06369e-05
0.000761942
-0.000503932
0.000125292
0.000602964
-0.000643817
0.000373839
0.000798229
-0.000356187
0.000155985
0.000824998
-0.000166197
3.45327e-05
0.000674039
-0.000301663
0.000141775
0.000766149
0.000102726
0.000104761
0.000677124
-9.98644e-05
8.32948e-05
0.000608745
8.9162e-05
0.000201282
0.000636735
0.000427702
-2.83165e-05
0.000608028
0.00032987
7.42246e-05
0.00079284
0.000319015
-3.81405e-05
0.000809656
-0.000143892
1.48142e-05
0.000789572
-0.000103561
0.00021031
0.000838495
-0.000126516
-0.000114516
0.000728577
0.000207196
8.96477e-05
0.000691989
0.000353313
0.000238468
0.000731918
-0.000160128
5.06496e-05
0.00070605
0.00014017
6.99313e-05
0.000638954
0.000547759
6.43254e-05
0.00076226
0.000629001
-6.9858e-05
0.000812971
0.000273191
-9.67676e-05
0.000708365
0.000111437
0.000103633
0.000667053
0.000447929
0.000126913
0.000675879
-0.00013521
0.0002407
0.000130889
7.02e-05
0.000912167
0.000381449
5.63859e-05
0.000857153
-0.000212224
0.000132518
0.000764651
-0.000552013
0.000154465
0.000638768
-0.000335459
0.000397038
0.000692241
0.000157504
0.000189743
0.000789459
-0.000157198
0.000227352
0.00086051
0.000331313
0.00020612
0.000873883
0.000440765
5.43549e-05
0.000846014
6.50692e-05
1.74759e-05
0.000778295
0.000198607
8.46323e-05
0.000813707
0.000296135
4.77663e-05
0.000894095
-0.00012681
8.53533e-07
0.000933062
-0.000509156
0.000186393
0.00102684
0.000188922
0.00011162
0.00107195
0.000337693
-8.74867e-05
0.000870081
-0.000404508
0.000165422
0.000689466
-0.000601744
0.000282757
0.000862771
-0.00036324
5.86937e-05
0.000928415
-4.7728e-05
3.10741e-05
0.000809372
-0.000173153
0.000124476
0.000896984
7.78227e-05
4.52128e-05
0.000806058
-0.000174239
4.90587e-05
0.000737653
4.27183e-05
0.000243552
0.000760287
0.000496595
3.02999e-05
0.000715088
0.000445095
1.84129e-05
0.000917767
0.000225059
-8.99332e-07
0.000955143
-0.000180611
8.19216e-06
0.000899576
-3.65142e-06
0.000193782
0.000872531
1.29062e-05
-2.89732e-05
0.000838283
0.000243987
7.72563e-05
0.000847819
0.000313617
0.00018249
0.000788536
-6.04389e-05
0.000128155
0.000772197
0.00019364
0.000102975
0.000712886
0.00058063
7.87354e-05
0.000851269
0.000465132
-5.436e-05
0.000862426
0.000344862
-0.000101134
0.000701243
0.000246189
9.0788e-05
0.000679955
0.000517766
0.000132153
0.000698364
-3.04895e-05
0.000242987
-7.69924e-05
0.000207763
0.000975413
0.000311915
6.65979e-05
0.00104169
-0.000104597
6.72426e-05
0.000963896
-0.000403034
7.49228e-05
0.000810631
-0.000377469
0.000325983
0.000751238
0.000132777
0.000182757
0.000772849
-0.000398908
0.000296056
0.000851946
5.02327e-05
0.000286618
0.000973769
0.0004046
6.93808e-05
0.00105313
9.77437e-05
0.000109143
0.000960805
0.000280292
5.79138e-05
0.00102816
0.000407439
2.03812e-05
0.00110702
-2.23124e-05
-2.62642e-05
0.00106493
-0.000478026
0.000194182
0.00114119
0.000235607
0.000115013
0.00114041
0.000478937
-0.000106932
0.00098092
-0.000346901
0.000209477
0.000857338
-0.000555551
0.000233996
0.00092836
-0.00025444
1.90479e-05
0.00105556
-3.78404e-05
1.44092e-05
0.000981441
-0.000206764
0.000133702
0.000896967
0.000160942
6.89246e-05
0.000734041
-8.18986e-05
1.21403e-05
0.000727521
-3.43337e-05
0.00025653
0.000852996
0.000415541
0.000129172
0.000840198
0.00043254
8.27491e-05
0.000952073
0.000135604
0.00011023
0.000980847
-0.000178552
5.05961e-05
0.000954232
5.14704e-05
0.000185843
0.000949625
0.000180512
-1.67257e-06
0.000968831
0.000265354
5.31126e-05
0.000887701
0.000297551
0.000209403
0.000787262
-1.2069e-06
0.000265736
0.000990801
6.47822e-05
0.000107443
0.000986104
0.00053744
9.01227e-05
0.00102541
0.000477733
-1.24029e-05
0.0010892
0.000367041
-5.04094e-05
0.000898804
0.000424919
5.7709e-05
0.000763639
0.000713324
0.000124896
0.000723718
0.000152887
0.000113957
-0.000160265
0.000192053
0.00101749
0.000337134
-0.00011486
0.00114596
-4.14346e-06
-0.000131607
0.00113461
-0.000237847
-0.000122134
0.000962885
-0.000263153
0.000204509
0.000840137
0.000250245
8.0916e-05
0.000804067
-0.000476962
0.000230691
0.000931607
-0.000315905
0.000257755
0.0010845
0.000411317
5.86588e-05
0.00116494
0.000169808
0.00026619
0.00109829
0.00039744
0.000127264
0.00121095
0.000467731
8.34454e-06
0.00123009
0.000193322
-6.47488e-05
0.00117349
-0.000350373
0.000121666
0.00142635
0.00011471
9.24658e-05
0.0014372
0.000574401
-0.000108834
0.0012147
-0.000145142
0.000102214
0.00108158
-0.000386274
0.000133057
0.00107524
-0.000149877
5.17621e-05
0.0011991
-4.37923e-05
-1.06867e-05
0.00113336
-0.000271069
0.000106725
0.00104474
0.00013745
0.000197449
0.000862259
0.000117813
-4.78989e-05
0.000825917
-1.82015e-05
0.000224785
0.000902807
0.000368544
0.000190283
0.000924585
0.000354964
0.000104891
0.00103909
7.27239e-06
0.000118174
0.000962811
-0.000121617
8.6849e-05
0.00100789
-3.56119e-05
0.000213503
0.000998923
0.000324285
2.57838e-05
0.000916556
0.000460569
2.66078e-05
0.000904102
0.000229769
0.00027377
0.000932539
-6.81021e-05
0.000306551
0.00110951
-8.82965e-06
6.131e-05
0.00108359
0.000569762
0.000125491
0.00104826
0.000594035
1.99794e-05
0.00109554
0.000432976
1.17559e-05
0.00100644
0.000456289
0.000134688
0.000919278
0.000722306
0.000141792
0.000877475
0.00023468
9.79051e-05
-0.000102327
1.36024e-05
0.00116483
0.000354333
-7.1942e-05
0.00123868
0.000185586
-0.000259326
0.0013111
-4.02948e-05
-0.00024276
0.00122323
-0.000165463
0.000125478
0.000994302
0.000520292
-4.72892e-05
0.000906002
-0.000262295
0.000161957
0.000988792
-0.000588743
0.000233245
0.00106407
0.000433455
-9.83496e-06
0.00120654
9.15873e-05
0.000255219
0.00124655
0.000308514
0.000140012
0.00137354
0.000455797
-9.98668e-05
0.00138349
0.000359344
-6.86101e-05
0.00129928
-0.000126126
6.38669e-05
0.00145921
6.72036e-05
6.61856e-05
0.00148211
0.000678646
-0.000112671
0.00138184
3.24886e-06
2.84059e-05
0.00122625
-0.000172984
5.55005e-05
0.00109033
0.000133228
9.19269e-05
0.00124007
-2.59339e-05
0.000148876
0.00126715
-0.000375857
0.000140909
0.0012222
-5.00277e-05
0.000345027
0.00103042
0.000274822
-9.89602e-06
0.000959324
0.000111007
0.00013367
0.00112859
0.000328873
0.000109984
0.00117634
0.000257278
4.08411e-05
0.00126332
-9.6827e-05
0.000149002
0.000994909
9.57508e-05
0.000108232
0.00106285
-0.000152792
0.000245227
0.00133843
7.93497e-05
0.000135325
0.00109072
0.000703216
8.42397e-05
0.000907421
0.000370972
0.000317616
0.000977316
-9.36992e-05
0.000266609
0.00105725
1.39474e-05
2.38125e-05
0.00115467
0.000554863
0.000152846
0.00122108
0.000474216
0.000180281
0.00125827
0.000343825
3.89753e-05
0.00111705
0.000514447
0.000198075
0.000997257
0.000848486
0.000212564
0.00107897
0.000334785
0.000127463
-0.000102298
0.000166987
0.00123726
0.000358995
0.000247495
0.00123088
0.000347458
-6.32559e-05
0.0012995
0.000232505
-0.000396985
0.00139717
-0.000167833
-3.07417e-06
0.00146169
0.000594957
-0.000166736
0.00127948
0.000280455
-0.000127523
0.00109361
-0.000488619
0.000283526
0.00104236
0.000327526
3.19474e-05
0.00120707
-0.00012112
0.000179461
0.00136211
2.3719e-05
0.000255173
0.00153081
0.000309702
1.72068e-05
0.00163908
0.000474446
-0.00021935
0.00155576
0.000164967
-0.000166165
0.00167171
-2.40065e-05
9.51342e-05
0.00182169
0.000534808
-0.000176136
0.00165426
0.00021153
-2.06571e-05
0.001576
-6.12164e-05
6.89422e-05
0.00156512
0.000187356
-6.07675e-05
0.00138177
0.000247026
0.000170991
0.00122979
-0.00018805
0.000208272
0.00135904
-0.00028049
0.000373661
0.00123118
0.000300561
0.000140128
0.00105225
0.00035761
0.000105533
0.00133937
0.000236026
0.000116107
0.00135104
0.000227173
3.33596e-05
0.00129747
6.8558e-07
0.000144622
0.00128452
0.000168958
6.64233e-05
0.00121372
-0.000218635
0.000228292
0.00135435
-3.71951e-05
0.000289163
0.00123854
0.000879225
9.44957e-05
0.00101007
0.000547089
0.000312735
0.0011472
-3.43867e-05
0.000235118
0.0012913
-3.14662e-05
5.54536e-05
0.00138543
0.000477565
0.000191104
0.00130936
0.000430755
0.000342673
0.00118926
0.000403903
0.000129311
0.00111662
0.000554684
9.40178e-05
0.00107938
0.000966429
0.000159469
0.00121831
0.000433053
0.000136155
-0.000235826
0.000344332
0.00122025
0.000599868
0.000122059
0.00115151
0.000565
-7.22203e-05
0.00130844
0.000313316
-0.000161872
0.00171007
-0.000437638
1.01685e-05
0.00201081
0.000367693
-5.71207e-05
0.00169559
0.000923362
-0.000247823
0.00139651
-0.000195716
0.000214159
0.0014887
-5.43731e-05
0.000173921
0.00142715
-0.000143845
0.000135445
0.00128725
9.4989e-05
0.000286337
0.0014638
0.000220236
0.000242987
0.00181509
0.00031165
-0.000143732
0.00183866
0.000268306
-0.000207357
0.00188481
-2.226e-05
0.000162791
0.00206878
0.000380557
-0.000186272
0.00193508
0.000396909
-1.30833e-05
0.00178927
4.86843e-05
0.000218712
0.00167125
0.000225298
7.26222e-05
0.00155826
0.000391431
0.000193179
0.00130705
1.6739e-05
0.000305033
0.00130974
-0.000249028
0.000282011
0.0012382
0.000348039
9.45252e-05
0.00117716
0.000464024
8.39102e-05
0.00161765
8.17105e-05
1.0141e-05
0.00158247
0.000411353
-9.2551e-05
0.00147333
0.000156879
1.87348e-05
0.00142392
0.000311465
-2.20976e-05
0.00124535
2.13248e-06
7.83484e-05
0.00134249
-0.000165341
0.000297758
0.00122254
0.000901261
0.000166792
0.000996428
0.000604317
0.000254418
0.00119511
-0.000163918
0.000290895
0.00145916
-0.000113071
-7.96668e-05
0.00151082
0.00041742
3.73275e-05
0.00132717
0.000448105
0.000427457
0.00114724
0.000552572
0.000275667
0.00105384
0.000620858
0.000147228
0.00122034
0.000904467
4.32942e-05
0.00148696
0.000486858
-5.74301e-05
-0.000100437
0.00028929
0.00159529
0.000828361
0.00023102
0.00153048
0.000780485
-2.2618e-05
0.00157616
0.000381954
-3.40088e-06
0.0016111
-0.000527407
0.000206255
0.00177558
0.00019275
0.000147587
0.00177492
0.00122055
-0.000360146
0.00159781
0.000258495
-0.000198521
0.00157901
1.38506e-05
-1.78697e-05
0.00168168
-0.000156271
-4.38868e-06
0.00162835
0.000156333
-4.23768e-05
0.00164998
0.000165009
0.000319867
0.00189792
8.39812e-05
0.000172323
0.00185833
0.000406051
-0.000253296
0.00175425
0.000116077
-3.4827e-05
0.00165892
0.000405163
-0.000231133
0.00162331
0.000595939
-0.000168435
0.00186599
6.37212e-05
0.000100095
0.00170119
0.000367533
7.37031e-05
0.00169029