/*--------------------------------*- C++ -*----------------------------------*\
  =========                 |
  \\      /  F ield         | OpenFOAM: The Open Source CFD Toolbox
   \\    /   O peration     | Website:  https://openfoam.org
    \\  /    A nd           | Version:  10
     \\/     M anipulation  |
\*---------------------------------------------------------------------------*/
FoamFile
{
    format      ascii;
    class       volVectorField;
    location    "40";
    object      UMean;
}
// * * * * * * * * * * * * * * * * * * * * * * * * * * * * * * * * * * * * * //

dimensions      [0 1 -1 0 0 0 0];

internalField   nonuniform List<vector> 
25600
(
(0.617441 0.00245809 0.375293)
(0.620229 0.00236278 0.373646)
(0.622537 0.00228043 0.370476)
(0.621608 0.00235689 0.372846)
(0.627883 0.00234598 0.372564)
(0.624963 0.00242102 0.371747)
(0.6244 0.00240795 0.375123)
(0.623748 0.00237884 0.37471)
(0.623917 0.00219766 0.374226)
(0.623556 0.00241396 0.37651)
(0.62267 0.0024008 0.374797)
(0.625871 0.0024753 0.375731)
(0.623137 0.00231209 0.376796)
(0.619735 0.00240622 0.378519)
(0.62106 0.0024603 0.375828)
(0.620122 0.00234877 0.376686)
(0.622455 0.00237415 0.378282)
(0.619952 0.00247377 0.37945)
(0.619309 0.00232327 0.377425)
(0.617867 0.002366 0.37123)
(0.623118 0.00229065 0.37119)
(0.62518 0.00222684 0.37224)
(0.624633 0.00228728 0.373744)
(0.62442 0.00217143 0.375955)
(0.621042 0.00222748 0.377199)
(0.623203 0.00229676 0.378364)
(0.62425 0.00233586 0.379324)
(0.625004 0.00241718 0.378047)
(0.624741 0.00232784 0.373502)
(0.625808 0.00244945 0.374816)
(0.618101 0.00237291 0.37908)
(0.622624 0.00222421 0.379136)
(0.62844 0.00230198 0.373362)
(0.626659 0.00230794 0.371044)
(0.625377 0.00230474 0.371705)
(0.624417 0.00253346 0.378032)
(0.623245 0.00244731 0.380475)
(0.622103 0.00227609 0.378213)
(0.620928 0.00239807 0.377563)
(0.623265 0.00230897 0.374197)
(0.578225 -0.00115212 0.321388)
(0.590408 -0.00227459 0.317981)
(0.59316 -0.00124032 0.311482)
(0.586504 -0.000839526 0.313009)
(0.602645 -0.000641063 0.313258)
(0.594165 0.000528271 0.311172)
(0.590724 0.000607731 0.315161)
(0.59318 0.00038001 0.316308)
(0.586941 0.000458699 0.315918)
(0.586394 0.000349485 0.319049)
(0.584515 -0.000202551 0.315835)
(0.594008 0.000110643 0.319118)
(0.588866 0.000282793 0.320539)
(0.580489 -0.000247614 0.324479)
(0.590144 -0.000495132 0.318401)
(0.583965 -1.93016e-05 0.321171)
(0.591667 -0.000256526 0.323323)
(0.580588 -0.000282162 0.325906)
(0.584575 -0.00157959 0.324533)
(0.578294 -0.00171455 0.315165)
(0.591093 -0.000518686 0.308787)
(0.597425 0.000557081 0.307225)
(0.587463 0.00177051 0.308949)
(0.592531 0.00163638 0.312853)
(0.578522 0.00122245 0.318969)
(0.590134 0.000414041 0.321554)
(0.590828 0.00030985 0.324211)
(0.593656 -5.02907e-05 0.325001)
(0.589929 -1.45592e-05 0.317154)
(0.595457 0.00118969 0.318739)
(0.579295 0.000640583 0.322356)
(0.59214 -0.000857735 0.323173)
(0.606524 -0.000552828 0.317409)
(0.595983 0.000730166 0.312087)
(0.598601 0.00074331 0.311004)
(0.594264 0.0014683 0.321144)
(0.592496 0.000299332 0.3263)
(0.594643 -0.000505955 0.323262)
(0.587508 -0.000737716 0.32393)
(0.595383 -0.000952896 0.320327)
(0.591649 -0.0139611 0.284274)
(0.617135 -0.0161494 0.282043)
(0.610683 -0.0138109 0.276845)
(0.603846 -0.0128876 0.274866)
(0.620292 -0.0130398 0.277154)
(0.611046 -0.010636 0.27449)
(0.602958 -0.00989587 0.27506)
(0.611804 -0.011113 0.27931)
(0.596708 -0.0104547 0.279235)
(0.596663 -0.0117886 0.281837)
(0.592895 -0.0125205 0.277547)
(0.599676 -0.0112631 0.281514)
(0.597887 -0.0110543 0.283863)
(0.590464 -0.0121683 0.285391)
(0.616418 -0.0124064 0.282024)
(0.597398 -0.0108711 0.283675)
(0.611552 -0.0114775 0.291045)
(0.590648 -0.0121929 0.289184)
(0.607687 -0.0147722 0.290817)
(0.596718 -0.0148183 0.280695)
(0.608207 -0.0123042 0.272247)
(0.618437 -0.00935051 0.270533)
(0.590169 -0.00672719 0.270787)
(0.611844 -0.00666444 0.270975)
(0.585443 -0.00789152 0.277933)
(0.609617 -0.00953603 0.280121)
(0.602112 -0.00963535 0.285132)
(0.606184 -0.011554 0.290389)
(0.596623 -0.0122781 0.283679)
(0.604041 -0.0101334 0.284814)
(0.593638 -0.0109088 0.282636)
(0.618197 -0.0139866 0.284486)
(0.634503 -0.012848 0.282443)
(0.61319 -0.00958221 0.277074)
(0.620345 -0.00981204 0.274986)
(0.602551 -0.00790296 0.280079)
(0.606532 -0.0105944 0.284713)
(0.616836 -0.0122346 0.283375)
(0.602506 -0.0130356 0.287854)
(0.622948 -0.0136205 0.286969)
(0.621557 -0.0188089 0.251716)
(0.659997 -0.0213743 0.249636)
(0.634412 -0.0187967 0.246652)
(0.641589 -0.0179075 0.244398)
(0.648592 -0.0179599 0.245793)
(0.639743 -0.0145658 0.245018)
(0.632457 -0.0139157 0.243014)
(0.641748 -0.0162497 0.246679)
(0.620929 -0.0153378 0.244686)
(0.624865 -0.0168901 0.247035)
(0.62054 -0.0172208 0.244337)
(0.621576 -0.0155889 0.249058)
(0.625461 -0.0162054 0.249729)
(0.617362 -0.0170759 0.249777)
(0.653216 -0.0172644 0.250862)
(0.622349 -0.0142355 0.249184)
(0.646523 -0.0155267 0.260225)
(0.616844 -0.0167055 0.257134)
(0.647089 -0.0203437 0.261908)
(0.632076 -0.0200999 0.253062)
(0.631692 -0.0178118 0.245463)
(0.643567 -0.0137106 0.247588)
(0.607372 -0.010847 0.244938)
(0.645349 -0.0112943 0.241652)
(0.615285 -0.0117442 0.244462)
(0.638192 -0.0130356 0.2484)
(0.626278 -0.0128796 0.253458)
(0.630476 -0.0159819 0.259609)
(0.624491 -0.0175153 0.252894)
(0.624329 -0.0150648 0.251888)
(0.627231 -0.0162104 0.248407)
(0.661276 -0.0203419 0.251306)
(0.664544 -0.0176165 0.251529)
(0.643363 -0.0148544 0.24642)
(0.652768 -0.0142212 0.244275)
(0.620574 -0.0108383 0.24697)
(0.639788 -0.0159209 0.248911)
(0.649906 -0.016893 0.248456)
(0.626297 -0.0182542 0.256042)
(0.660138 -0.0194333 0.252925)
(0.647984 -0.0228679 0.228753)
(0.700689 -0.0254947 0.226746)
(0.662393 -0.0218336 0.226056)
(0.683081 -0.0213725 0.225012)
(0.676341 -0.0209841 0.224774)
(0.667473 -0.0174215 0.227191)
(0.66815 -0.0176201 0.222986)
(0.672562 -0.0202844 0.227313)
(0.643545 -0.0187483 0.22256)
(0.655123 -0.0204968 0.226493)
(0.65076 -0.0203659 0.223761)
(0.645962 -0.0193052 0.226217)
(0.664711 -0.0204602 0.226763)
(0.642894 -0.0207125 0.226162)
(0.671684 -0.0209751 0.228107)
(0.645571 -0.0172842 0.226682)
(0.669965 -0.0186115 0.236843)
(0.647301 -0.0206865 0.234765)
(0.675536 -0.0242322 0.237568)
(0.664807 -0.0236396 0.2333)
(0.647787 -0.02215 0.225472)
(0.655337 -0.0179783 0.231313)
(0.6329 -0.0156804 0.22433)
(0.672117 -0.0159124 0.222692)
(0.648301 -0.0142054 0.222619)
(0.65766 -0.0157016 0.229557)
(0.654347 -0.0159866 0.233928)
(0.651058 -0.0199511 0.238137)
(0.661283 -0.0214687 0.230864)
(0.647575 -0.0184843 0.228435)
(0.664799 -0.0213123 0.227165)
(0.692064 -0.024365 0.232603)
(0.690607 -0.0207564 0.232299)
(0.67123 -0.0190536 0.225334)
(0.679539 -0.0171649 0.223326)
(0.649923 -0.0137622 0.225134)
(0.674298 -0.0211719 0.225987)
(0.685932 -0.0207599 0.227919)
(0.648302 -0.0224659 0.233666)
(0.689874 -0.0245876 0.227769)
(0.678111 -0.0237175 0.204075)
(0.732808 -0.026214 0.200491)
(0.69912 -0.0214607 0.205975)
(0.720846 -0.0220628 0.204157)
(0.705409 -0.0205503 0.204782)
(0.695641 -0.0185905 0.206225)
(0.706167 -0.0189018 0.201897)
(0.697196 -0.0213396 0.206373)
(0.682528 -0.0197942 0.20061)
(0.691379 -0.0213669 0.206555)
(0.688468 -0.0211251 0.202283)
(0.678035 -0.0201382 0.204228)
(0.707661 -0.0218 0.205952)
(0.673664 -0.0203461 0.202958)
(0.69065 -0.0217135 0.205557)
(0.675346 -0.017725 0.205452)
(0.692014 -0.0201941 0.21386)
(0.693845 -0.0220357 0.210875)
(0.699525 -0.0250174 0.212704)
(0.699492 -0.0241384 0.21211)
(0.6726 -0.0235754 0.203826)
(0.677136 -0.0192972 0.210671)
(0.66547 -0.0177346 0.203307)
(0.701271 -0.0176116 0.204596)
(0.68092 -0.0142388 0.203804)
(0.681888 -0.0164683 0.207624)
(0.68801 -0.016452 0.213355)
(0.677181 -0.0210169 0.214287)
(0.695603 -0.0234054 0.207373)
(0.677274 -0.0199417 0.20611)
(0.708984 -0.0240314 0.206134)
(0.716443 -0.0251481 0.212124)
(0.719839 -0.0224116 0.212052)
(0.706772 -0.020339 0.205543)
(0.710163 -0.0176001 0.204413)
(0.689741 -0.0152261 0.202683)
(0.703153 -0.0231337 0.205672)
(0.71438 -0.0215024 0.20639)
(0.680282 -0.0241572 0.210531)
(0.716381 -0.0260668 0.203981)
(0.713894 -0.0229705 0.180448)
(0.755297 -0.0253616 0.175761)
(0.734616 -0.0198065 0.18728)
(0.747037 -0.0218582 0.182485)
(0.733896 -0.0189506 0.184782)
(0.722754 -0.0190234 0.186024)
(0.739827 -0.0187284 0.181942)
(0.720432 -0.0217196 0.184924)
(0.728941 -0.0197364 0.179374)
(0.723978 -0.0199576 0.186554)
(0.729798 -0.0204766 0.182953)
(0.709904 -0.0196638 0.18408)
(0.741145 -0.0218258 0.186392)
(0.707361 -0.0190126 0.181848)
(0.721927 -0.022141 0.184771)
(0.706226 -0.0172445 0.184868)
(0.723383 -0.0208899 0.19092)
(0.733712 -0.0218826 0.188319)
(0.725126 -0.0249296 0.188521)
(0.735553 -0.0238635 0.186649)
(0.709867 -0.0225687 0.181342)
(0.714789 -0.019301 0.18868)
(0.698573 -0.018887 0.183616)
(0.726732 -0.019011 0.185386)
(0.706289 -0.0142433 0.185237)
(0.710936 -0.0169635 0.183054)
(0.721429 -0.0163906 0.192043)
(0.717553 -0.0205864 0.190547)
(0.726372 -0.0234496 0.185505)
(0.708547 -0.0200281 0.1855)
(0.745969 -0.0241505 0.186891)
(0.737372 -0.024178 0.190338)
(0.745846 -0.023104 0.194721)
(0.73452 -0.0198575 0.18724)
(0.737401 -0.0167187 0.186957)
(0.730231 -0.0145025 0.182638)
(0.727952 -0.0228592 0.186144)
(0.73223 -0.0204642 0.188459)
(0.716183 -0.0238875 0.18906)
(0.738056 -0.0252019 0.180926)
(0.75868 -0.0200761 0.156589)
(0.784735 -0.0220047 0.155625)
(0.76699 -0.0157017 0.166459)
(0.780063 -0.0189243 0.161775)
(0.766673 -0.0147447 0.1646)
(0.757051 -0.0176149 0.166223)
(0.768756 -0.0167749 0.162317)
(0.752373 -0.0199139 0.164037)
(0.769117 -0.0176174 0.158832)
(0.753436 -0.0175777 0.162352)
(0.765099 -0.0180104 0.160197)
(0.735902 -0.0178087 0.159707)
(0.768173 -0.019668 0.160888)
(0.746364 -0.0161358 0.158682)
(0.755825 -0.0203798 0.160765)
(0.73588 -0.0164245 0.161427)
(0.762837 -0.0203395 0.166084)
(0.761115 -0.0208843 0.161744)
(0.76088 -0.0236137 0.163404)
(0.766415 -0.0219212 0.159276)
(0.746997 -0.0198167 0.159816)
(0.761431 -0.0173973 0.164627)
(0.737557 -0.0178617 0.16047)
(0.754882 -0.0175162 0.164079)
(0.738161 -0.0133597 0.162356)
(0.747228 -0.016221 0.159083)
(0.754502 -0.0147625 0.166709)
(0.757686 -0.0176465 0.164367)
(0.760241 -0.0193401 0.161689)
(0.739154 -0.0173243 0.162597)
(0.777284 -0.0211549 0.161915)
(0.75997 -0.0204272 0.168764)
(0.776634 -0.020988 0.17371)
(0.758421 -0.0171522 0.168516)
(0.763796 -0.0150169 0.168107)
(0.758572 -0.0126768 0.165019)
(0.756735 -0.020081 0.166973)
(0.755091 -0.018119 0.170057)
(0.755419 -0.0211848 0.164591)
(0.766582 -0.0219953 0.157021)
(0.797087 -0.015526 0.132068)
(0.812721 -0.017709 0.136717)
(0.798707 -0.0110623 0.142928)
(0.81265 -0.0152236 0.141372)
(0.799206 -0.00993873 0.143334)
(0.789049 -0.014508 0.146052)
(0.799741 -0.0136149 0.142746)
(0.780725 -0.0176187 0.144414)
(0.797728 -0.0153031 0.13766)
(0.77869 -0.0150983 0.139823)
(0.796154 -0.0154908 0.137005)
(0.773932 -0.0153791 0.132872)
(0.799365 -0.0171114 0.135287)
(0.780585 -0.0123969 0.135176)
(0.795096 -0.0179855 0.135759)
(0.775796 -0.0137453 0.134135)
(0.80347 -0.0189602 0.137875)
(0.790014 -0.0184693 0.133163)
(0.8029 -0.0210284 0.136098)
(0.798362 -0.0181562 0.132201)
(0.783333 -0.016288 0.138786)
(0.801705 -0.0153936 0.139536)
(0.784693 -0.0147259 0.1369)
(0.791147 -0.0151202 0.140957)
(0.78124 -0.0119464 0.137937)
(0.786678 -0.0137611 0.135003)
(0.788813 -0.0107804 0.138525)
(0.788484 -0.0131197 0.136606)
(0.791246 -0.013873 0.137288)
(0.769237 -0.0140621 0.139301)
(0.801586 -0.0165504 0.139192)
(0.785038 -0.0156213 0.148077)
(0.80383 -0.0171019 0.149609)
(0.784179 -0.0135608 0.148459)
(0.791633 -0.0124733 0.142934)
(0.781221 -0.00940332 0.145613)
(0.786028 -0.0152271 0.143972)
(0.7898 -0.0149837 0.147532)
(0.789052 -0.0175532 0.136133)
(0.801927 -0.017603 0.134274)
(0.821214 -0.00937452 0.110383)
(0.841681 -0.0114468 0.116481)
(0.834135 -0.00531775 0.118603)
(0.844569 -0.00986691 0.119276)
(0.828465 -0.00365013 0.121028)
(0.82045 -0.00874299 0.124216)
(0.828504 -0.0074693 0.120666)
(0.810906 -0.0124869 0.121048)
(0.824837 -0.00961438 0.1152)
(0.810069 -0.00972368 0.116517)
(0.826291 -0.0110319 0.113685)
(0.814202 -0.0114202 0.107475)
(0.831416 -0.0122215 0.110815)
(0.816014 -0.0086541 0.113521)
(0.832781 -0.0139469 0.112857)
(0.820312 -0.0108124 0.110464)
(0.83977 -0.015853 0.109694)
(0.821942 -0.0149134 0.108346)
(0.833982 -0.0168497 0.109814)
(0.826457 -0.0132425 0.108115)
(0.81792 -0.0116944 0.115346)
(0.833431 -0.0117631 0.114409)
(0.821352 -0.0101082 0.11372)
(0.822457 -0.0119448 0.115117)
(0.823601 -0.00831679 0.11394)
(0.824055 -0.00887327 0.111193)
(0.821332 -0.00646173 0.111108)
(0.822152 -0.00817691 0.109536)
(0.819563 -0.00749338 0.111978)
(0.809038 -0.00834441 0.115528)
(0.821959 -0.0104971 0.117295)
(0.810852 -0.0103544 0.124091)
(0.822849 -0.0116715 0.126436)
(0.809792 -0.0089963 0.125515)
(0.818034 -0.00804859 0.118709)
(0.812256 -0.00444328 0.121371)
(0.816035 -0.00863228 0.117604)
(0.822909 -0.00970705 0.124701)
(0.819912 -0.0112565 0.112531)
(0.832048 -0.0111074 0.115124)
(0.84939 -0.00431643 0.0919846)
(0.867571 -0.00589046 0.095995)
(0.862318 3.33684e-05 0.0969445)
(0.866238 -0.0027422 0.0959659)
(0.853587 0.00274732 0.0995109)
(0.850202 -0.00296801 0.101103)
(0.848326 -0.00174808 0.100136)
(0.847154 -0.006777 0.100168)
(0.844735 -0.00448846 0.0961915)
(0.841228 -0.00371395 0.0940765)
(0.84883 -0.00641025 0.0912013)
(0.842455 -0.00682938 0.0878613)
(0.856718 -0.00668803 0.0881679)
(0.849766 -0.00480944 0.0933608)
(0.863294 -0.0090244 0.0924373)
(0.852909 -0.00665511 0.0881813)
(0.872561 -0.0109066 0.0848698)
(0.857053 -0.00796526 0.0875673)
(0.862086 -0.0109204 0.0863796)
(0.859139 -0.00707379 0.0860965)
(0.853651 -0.00737397 0.0873222)
(0.867886 -0.00804536 0.089393)
(0.851 -0.0051127 0.0891505)
(0.854458 -0.0066236 0.088911)
(0.847241 -0.00377744 0.0905061)
(0.852057 -0.00393837 0.0869266)
(0.846553 -0.00196875 0.0865623)
(0.856324 -0.00260048 0.0841696)
(0.852182 -0.00116175 0.088325)
(0.844176 -0.00345007 0.0910437)
(0.847893 -0.0040473 0.0938834)
(0.840249 -0.00465238 0.0972278)
(0.841692 -0.00459464 0.102197)
(0.833126 -0.00241595 0.0984813)
(0.839339 -0.00258368 0.0951117)
(0.842803 0.000724164 0.0939559)
(0.846582 -0.00184951 0.0945363)
(0.849736 -0.00361701 0.0988803)
(0.854373 -0.004888 0.0919835)
(0.857671 -0.00457138 0.095012)
(0.883101 0.00413192 0.0742357)
(0.887549 0.00204758 0.0764965)
(0.882835 0.00698991 0.0798618)
(0.885947 0.00495013 0.0782096)
(0.877753 0.0105325 0.0812391)
(0.876748 0.00611468 0.0802395)
(0.865811 0.00591013 0.0809509)
(0.870154 0.00033536 0.0812061)
(0.864971 0.00209588 0.0775949)
(0.868163 0.00257395 0.0759523)
(0.877004 -0.000271813 0.0730632)
(0.866223 -0.00124877 0.072923)
(0.882337 -0.000736855 0.0705449)
(0.876517 -0.00120429 0.0748885)
(0.893579 -0.00425766 0.0726327)
(0.885143 -0.00189538 0.0678922)
(0.904977 -0.005181 0.0622712)
(0.893124 -0.00185587 0.0692054)
(0.895165 -0.0040817 0.0625062)
(0.893407 0.000916223 0.0678579)
(0.889763 -0.00132069 0.0626519)
(0.901535 -0.00190685 0.0669189)
(0.884206 0.00109363 0.0658781)
(0.891748 -0.000674981 0.0695005)
(0.87435 0.00221068 0.0708504)
(0.882651 0.00189568 0.0653486)
(0.87219 0.00211973 0.0641658)
(0.884852 0.00311615 0.0609789)
(0.879453 0.00584636 0.0646337)
(0.877558 0.00404183 0.0666892)
(0.879434 0.00374353 0.0686475)
(0.878831 0.003693 0.0700985)
(0.873122 0.00412306 0.0762604)
(0.863961 0.00566143 0.0743976)
(0.867089 0.00470718 0.0707666)
(0.868096 0.00809828 0.0694926)
(0.870368 0.00600255 0.0738024)
(0.870122 0.0028587 0.0745544)
(0.877753 0.00396924 0.0743749)
(0.878433 0.00429266 0.0755231)
(0.905223 0.00898794 0.0602097)
(0.908768 0.00869907 0.0580307)
(0.903139 0.0130172 0.0622445)
(0.902759 0.0118306 0.062539)
(0.902359 0.016119 0.0654626)
(0.902823 0.013022 0.0615478)
(0.898718 0.0119589 0.0622875)
(0.893308 0.00752945 0.0605565)
(0.899033 0.00899385 0.0597709)
(0.893539 0.00784888 0.058608)
(0.904463 0.00381759 0.0560915)
(0.896539 0.00341826 0.057935)
(0.908628 0.00423624 0.053851)
(0.903964 0.00441043 0.0560888)
(0.915361 0.00266811 0.0525727)
(0.913131 0.00395124 0.0515114)
(0.925218 0.0009049 0.044866)
(0.921085 0.0044678 0.0493468)
(0.923104 0.00326855 0.0438181)
(0.919482 0.00784386 0.0511405)
(0.917433 0.00547594 0.0444444)
(0.926511 0.00569183 0.0504483)
(0.910133 0.00834839 0.0503451)
(0.914889 0.00683269 0.0553747)
(0.901035 0.00927626 0.0558381)
(0.906852 0.00886952 0.0505983)
(0.894489 0.00634154 0.0520946)
(0.9026 0.00909409 0.0458865)
(0.898708 0.0125624 0.045729)
(0.910894 0.0118061 0.0469674)
(0.895965 0.010714 0.0485142)
(0.90607 0.0111608 0.0507398)
(0.895683 0.0124522 0.0580971)
(0.893368 0.0122812 0.0576619)
(0.895187 0.0105168 0.0543502)
(0.895994 0.0139823 0.0547169)
(0.897842 0.0126458 0.0574473)
(0.897828 0.0096174 0.0582311)
(0.898903 0.00995714 0.0591617)
(0.902192 0.0100081 0.0588642)
(0.91906 0.0171133 0.0498538)
(0.929083 0.0166167 0.0444712)
(0.918116 0.0190915 0.0484214)
(0.922118 0.0174901 0.0480067)
(0.923694 0.0213266 0.0493308)
(0.932673 0.0184471 0.0459489)
(0.931818 0.0187706 0.0453633)
(0.930983 0.0144164 0.0457358)
(0.932268 0.0165759 0.0465587)
(0.927027 0.0149009 0.0465035)
(0.929097 0.0114918 0.0441502)
(0.925705 0.0102755 0.0477013)
(0.93059 0.00892163 0.0434398)
(0.931382 0.00976355 0.0469469)
(0.932365 0.00911578 0.0440735)
(0.937262 0.0100696 0.0449348)
(0.940463 0.00842294 0.0412403)
(0.940853 0.0127859 0.0395842)
(0.944609 0.0112032 0.037005)
(0.944827 0.0146799 0.0404016)
(0.94639 0.0117804 0.0357086)
(0.94268 0.0131697 0.0403424)
(0.934554 0.0160423 0.0399574)
(0.934134 0.0162675 0.0440993)
(0.925221 0.01672 0.0427361)
(0.930185 0.0155202 0.0388352)
(0.920526 0.0136216 0.0422814)
(0.926692 0.0157972 0.0396831)
(0.92817 0.0177507 0.0377631)
(0.934283 0.020045 0.0389326)
(0.925395 0.0182915 0.0385875)
(0.924173 0.0202775 0.0426055)
(0.916523 0.0208579 0.0468055)
(0.918136 0.0207984 0.0489587)
(0.915546 0.0182124 0.0474473)
(0.925237 0.0196844 0.0469981)
(0.920235 0.0187853 0.0452017)
(0.92818 0.0178769 0.0457462)
(0.918337 0.018078 0.0477516)
(0.927793 0.0182757 0.0464223)
(0.949979 0.0215306 0.0399489)
(0.958875 0.0197074 0.0365194)
(0.951265 0.0226772 0.038955)
(0.95459 0.0215814 0.0384108)
(0.952759 0.0251704 0.0363258)
(0.959157 0.0222674 0.0357638)
(0.959969 0.0237481 0.0343159)
(0.963175 0.0208753 0.0359432)
(0.963982 0.021876 0.0353591)
(0.965818 0.0204191 0.0375409)
(0.966674 0.0179388 0.0376632)
(0.963788 0.0183284 0.0378338)
(0.962462 0.0162387 0.0363216)
(0.96214 0.0173174 0.0371564)
(0.963034 0.0160285 0.038202)
(0.962691 0.0174871 0.0379889)
(0.963869 0.0168587 0.0375296)
(0.960132 0.0202769 0.035261)
(0.966569 0.0184505 0.0314804)
(0.967548 0.02086 0.0341654)
(0.971757 0.0183901 0.0299112)
(0.96267 0.0214125 0.0311669)
(0.962462 0.0222451 0.0293651)
(0.961893 0.0235508 0.0321292)
(0.957362 0.0229462 0.0333043)
(0.960948 0.0216136 0.0312883)
(0.955277 0.0210822 0.0328189)
(0.954992 0.0211975 0.0331904)
(0.953477 0.0221631 0.0327766)
(0.952591 0.0245431 0.0366969)
(0.957002 0.0260452 0.0340888)
(0.951382 0.0275841 0.039679)
(0.944622 0.0265633 0.0399724)
(0.943059 0.0269446 0.0440441)
(0.941698 0.0230762 0.0421801)
(0.945543 0.0242305 0.0439858)
(0.944052 0.0241993 0.0413828)
(0.95576 0.0232823 0.0406518)
(0.945993 0.0229158 0.0405122)
(0.956502 0.023861 0.0381937)
(0.976173 0.0261222 0.0338915)
(0.978592 0.0248449 0.0311951)
(0.976149 0.0269563 0.0331105)
(0.971103 0.0283973 0.035334)
(0.973452 0.0315656 0.0335305)
(0.97248 0.0294094 0.0332796)
(0.973567 0.0294983 0.0319884)
(0.97458 0.02824 0.0311227)
(0.979438 0.0284674 0.0312957)
(0.983343 0.0279229 0.0304936)
(0.986377 0.0250474 0.0336482)
(0.982532 0.0267791 0.0317198)
(0.988355 0.0241635 0.0335374)
(0.979907 0.0262363 0.0323675)
(0.987644 0.0250403 0.0352334)
(0.978868 0.0260166 0.0355947)
(0.986674 0.0263203 0.0343237)
(0.978154 0.0269125 0.0354516)
(0.986683 0.0256463 0.0344343)
(0.983336 0.0294445 0.0369006)
(0.987251 0.028644 0.0323728)
(0.982411 0.0300659 0.0314507)
(0.98878 0.0294538 0.0284306)
(0.988584 0.0314404 0.0276477)
(0.986693 0.0292216 0.0296227)
(0.984998 0.0293269 0.0301662)
(0.982022 0.0291296 0.031178)
(0.980194 0.0283382 0.0328606)
(0.979794 0.0297729 0.0353175)
(0.974434 0.0324732 0.0394497)
(0.97096 0.034162 0.0364214)
(0.973311 0.0366492 0.039052)
(0.961444 0.0363338 0.0403624)
(0.957448 0.034785 0.0430632)
(0.96493 0.0295634 0.0410024)
(0.960749 0.0313967 0.0410188)
(0.963346 0.029213 0.0385467)
(0.966238 0.0276967 0.0390567)
(0.969096 0.0263073 0.0374796)
(0.973373 0.0279001 0.0356496)
(1.00148 0.0338689 0.0283975)
(1.00262 0.0335311 0.0250923)
(0.998491 0.0352221 0.0268847)
(0.994675 0.0349792 0.0265502)
(0.998992 0.0352767 0.0256166)
(0.999498 0.0333172 0.0256721)
(1.00274 0.033963 0.0277226)
(1.00477 0.0342819 0.026185)
(1.00349 0.0356139 0.0290261)
(1.00029 0.0363887 0.0264496)
(0.99989 0.0348933 0.0301543)
(0.998655 0.0338823 0.0283408)
(1.00386 0.032656 0.0305196)
(0.998466 0.0338265 0.028334)
(1.00326 0.0325752 0.0291243)
(0.996118 0.0326802 0.0294207)
(0.999268 0.0317384 0.0289291)
(0.995966 0.0335386 0.0301344)
(0.998062 0.0322442 0.0315627)
(0.993381 0.0358159 0.0319046)
(0.99602 0.0353002 0.0307825)
(0.991786 0.0346956 0.031428)
(0.999224 0.0352106 0.0308757)
(0.993345 0.0368797 0.0325084)
(0.990366 0.0360654 0.0314832)
(0.988401 0.0360031 0.0321201)
(0.98995 0.0363135 0.0306503)
(0.990734 0.0357286 0.0316569)
(0.992563 0.0361039 0.0346158)
(0.993414 0.0383189 0.0379369)
(0.990846 0.0389156 0.0379778)
(0.991537 0.0417152 0.0355109)
(0.992548 0.0422395 0.0367341)
(0.987118 0.0399405 0.0379187)
(0.992431 0.0350114 0.0371752)
(0.986862 0.0356519 0.0370644)
(0.98974 0.0336639 0.0333638)
(0.990428 0.0347681 0.0335291)
(0.994335 0.0342857 0.0312162)
(0.99601 0.0349006 0.0306334)
(1.01697 0.0375691 0.0259094)
(1.0188 0.0398703 0.0253238)
(1.01898 0.0425142 0.0270716)
(1.01635 0.043059 0.0256169)
(1.01898 0.0419067 0.0234775)
(1.01927 0.0421626 0.0227165)
(1.02022 0.041924 0.0237482)
(1.02098 0.0412635 0.0228251)
(1.02372 0.0425917 0.0252964)
(1.01832 0.0438326 0.0250585)
(1.0236 0.0448982 0.0265834)
(1.02071 0.0447064 0.0267005)
(1.02451 0.0433179 0.0302182)
(1.02233 0.0427725 0.0300842)
(1.02999 0.0434307 0.0293098)
(1.02473 0.0458467 0.0282849)
(1.02651 0.0440586 0.0256536)
(1.02201 0.0437553 0.0259476)
(1.02541 0.0427646 0.0242313)
(1.01881 0.0436845 0.0259004)
(1.02007 0.0422422 0.0265272)
(1.013 0.0417163 0.0283333)
(1.01513 0.0409248 0.0297805)
(1.01455 0.0424038 0.033067)
(1.01736 0.0429156 0.0335645)
(1.01372 0.0439128 0.0345065)
(1.01242 0.0426383 0.0333895)
(1.01387 0.04286 0.0319312)
(1.01685 0.0448009 0.0327246)
(1.01252 0.0475537 0.0348675)
(1.01391 0.0489026 0.0360398)
(1.0067 0.0502423 0.0342585)
(1.01642 0.0507621 0.0317555)
(1.01589 0.0497498 0.0306178)
(1.01427 0.0444934 0.0289987)
(1.01213 0.0436834 0.0298844)
(1.01067 0.0412363 0.0279906)
(1.01198 0.0402609 0.0276947)
(1.01085 0.0384892 0.0268346)
(1.01021 0.0395569 0.0271311)
(1.03989 0.0469214 0.0256348)
(1.04301 0.0478963 0.0257692)
(1.0406 0.0493514 0.0274236)
(1.03895 0.0477268 0.0277893)
(1.03948 0.045404 0.0267638)
(1.04095 0.0465024 0.0271879)
(1.03905 0.0492176 0.0262659)
(1.0373 0.0484292 0.0253583)
(1.04247 0.0495717 0.0246932)
(1.03645 0.0495612 0.024569)
(1.04354 0.049315 0.023604)
(1.04371 0.0482932 0.0263756)
(1.04251 0.046319 0.0284435)
(1.03822 0.0452121 0.0289355)
(1.04614 0.0454954 0.0283045)
(1.03937 0.046544 0.0297495)
(1.04258 0.0465239 0.0264626)
(1.03861 0.0466373 0.0282032)
(1.04638 0.0472997 0.0259007)
(1.04433 0.0493697 0.0261511)
(1.0506 0.0485789 0.0239594)
(1.04165 0.049302 0.0236546)
(1.04091 0.0495616 0.0240027)
(1.04163 0.0505054 0.0261015)
(1.04596 0.0507191 0.0260594)
(1.05152 0.0529663 0.0263047)
(1.04761 0.0529936 0.0269413)
(1.04469 0.0534454 0.0281671)
(1.05039 0.0534792 0.0289353)
(1.04733 0.055561 0.029595)
(1.04675 0.0562969 0.0299644)
(1.04835 0.0573143 0.0284983)
(1.04557 0.0557151 0.0278293)
(1.04775 0.0552959 0.0254845)
(1.04159 0.0536225 0.0226968)
(1.04171 0.0536186 0.0221405)
(1.03684 0.0534584 0.0236673)
(1.0371 0.0522425 0.02459)
(1.03735 0.0504323 0.0259754)
(1.0385 0.0500917 0.0257297)
(1.04764 0.0602622 0.0223089)
(1.0472 0.0592224 0.0235031)
(1.05269 0.0597007 0.0247251)
(1.05099 0.0593668 0.0269091)
(1.05223 0.0587584 0.0270498)
(1.04959 0.057186 0.0298191)
(1.05196 0.0576658 0.0271987)
(1.04575 0.0574686 0.0270916)
(1.04974 0.0591408 0.0269475)
(1.04513 0.0596465 0.0288603)
(1.04275 0.0590392 0.0278651)
(1.05118 0.0589458 0.0291898)
(1.04967 0.0582525 0.0306565)
(1.04529 0.0581077 0.0318836)
(1.04433 0.0583819 0.0325079)
(1.04094 0.0579349 0.0347591)
(1.03967 0.056598 0.0341183)
(1.03633 0.0564236 0.0356739)
(1.03646 0.0555568 0.0343107)
(1.03796 0.053772 0.0325899)
(1.03984 0.0530204 0.0314222)
(1.04232 0.0543288 0.0285696)
(1.04425 0.0522388 0.026813)
(1.04953 0.0540913 0.0257612)
(1.043 0.0555163 0.0256709)
(1.05338 0.0575261 0.0250725)
(1.05432 0.0585189 0.0258694)
(1.05574 0.0618204 0.0264619)
(1.05454 0.062812 0.0273124)
(1.05786 0.0647263 0.0247929)
(1.05316 0.0632502 0.0254115)
(1.0593 0.0650319 0.0244179)
(1.05654 0.0655119 0.0256585)
(1.05637 0.0650919 0.0242014)
(1.05391 0.0629509 0.0222163)
(1.05142 0.0592413 0.0206626)
(1.04723 0.0587816 0.0224331)
(1.04374 0.05781 0.0227413)
(1.04454 0.0577542 0.0239146)
(1.04446 0.0588889 0.0239676)
(1.09015 0.0599223 0.0238895)
(1.08653 0.0584364 0.0253325)
(1.09334 0.0596756 0.025525)
(1.08875 0.0597837 0.0250801)
(1.09611 0.061396 0.0205793)
(1.09842 0.0617913 0.0195383)
(1.10177 0.0615003 0.0189062)
(1.09945 0.0627792 0.0203839)
(1.10235 0.0623106 0.0221899)
(1.10595 0.061658 0.0234383)
(1.1039 0.0611958 0.0225654)
(1.10712 0.061717 0.0229498)
(1.10303 0.0622995 0.0240175)
(1.1025 0.0614568 0.022918)
(1.09966 0.0603129 0.0230066)
(1.09823 0.0600585 0.0229799)
(1.09419 0.0600764 0.0228393)
(1.09334 0.0599689 0.0232979)
(1.09315 0.0584933 0.0222853)
(1.09442 0.0575583 0.0206061)
(1.09399 0.0572087 0.0219402)
(1.09617 0.0587636 0.0203614)
(1.09825 0.0588134 0.0204803)
(1.10388 0.060431 0.0214572)
(1.1056 0.0619609 0.0226552)
(1.1087 0.0640495 0.0230628)
(1.11177 0.0662712 0.0234606)
(1.10754 0.0676412 0.0248213)
(1.10847 0.0682667 0.0242213)
(1.10578 0.0697819 0.0214235)
(1.10494 0.0694394 0.0208978)
(1.09914 0.0689901 0.0219276)
(1.1023 0.0677062 0.0218742)
(1.09961 0.0674365 0.0217768)
(1.10813 0.069604 0.0199643)
(1.10268 0.0706263 0.0195922)
(1.10585 0.0700648 0.0207898)
(1.09809 0.0680085 0.0236103)
(1.09926 0.0633668 0.0241649)
(1.09094 0.0609531 0.025686)
(1.09472 0.0745606 0.02484)
(1.09341 0.0743973 0.024992)
(1.09264 0.0734565 0.0252174)
(1.08781 0.0734485 0.0244832)
(1.07981 0.0719292 0.0236178)
(1.08347 0.0702347 0.0226365)
(1.07869 0.0687931 0.0221686)
(1.08649 0.0702248 0.0220349)
(1.08839 0.0710156 0.0249511)
(1.09233 0.0727303 0.0252459)
(1.09047 0.0717478 0.025136)
(1.09224 0.0707392 0.0241972)
(1.08798 0.068086 0.023934)
(1.09029 0.0677924 0.0228802)
(1.09002 0.0675057 0.0246975)
(1.08845 0.0677081 0.0237973)
(1.08598 0.0686975 0.023936)
(1.08241 0.0703665 0.0242917)
(1.08718 0.0691455 0.0233935)
(1.08756 0.0699116 0.0227569)
(1.09389 0.0697924 0.0238746)
(1.08941 0.0678092 0.023584)
(1.09451 0.0665078 0.0243982)
(1.09071 0.0665002 0.0260878)
(1.10138 0.0675243 0.0254022)
(1.09278 0.0688346 0.0263448)
(1.10147 0.0706519 0.0250699)
(1.09648 0.0722776 0.0260771)
(1.10684 0.0738579 0.0255324)
(1.10088 0.0762145 0.0254425)
(1.10907 0.0787871 0.0214354)
(1.09858 0.0790017 0.0212715)
(1.10014 0.0783284 0.01937)
(1.0889 0.076333 0.0190517)
(1.09082 0.0747732 0.0187622)
(1.08674 0.074921 0.0180857)
(1.09569 0.0747661 0.0186038)
(1.09246 0.0760004 0.0206722)
(1.09585 0.0738636 0.0211801)
(1.0954 0.0745725 0.0241795)
(1.14321 0.0785773 0.0120536)
(1.14805 0.0784042 0.013513)
(1.14676 0.0770803 0.0135089)
(1.14995 0.0778663 0.0133528)
(1.14469 0.0772537 0.0125137)
(1.1455 0.0748325 0.0125479)
(1.14308 0.0742604 0.0128106)
(1.13789 0.0767854 0.0141381)
(1.14196 0.0766907 0.0164016)
(1.13717 0.0785715 0.0162214)
(1.13895 0.0796084 0.0164234)
(1.1313 0.081018 0.0158597)
(1.13617 0.0796415 0.0158941)
(1.12768 0.0776405 0.0169396)
(1.13252 0.0773356 0.0185063)
(1.1232 0.0764842 0.0186424)
(1.13602 0.0753477 0.0218751)
(1.13163 0.0740091 0.0209036)
(1.13808 0.0732361 0.0176093)
(1.12943 0.0752302 0.0159984)
(1.14016 0.0753087 0.0156494)
(1.13511 0.0770274 0.0143861)
(1.14103 0.0771163 0.0144202)
(1.13574 0.0797178 0.0150084)
(1.14756 0.0798791 0.0152475)
(1.14243 0.0811197 0.0172225)
(1.15226 0.0808591 0.0179029)
(1.14561 0.0816322 0.0170875)
(1.14941 0.0800288 0.0153159)
(1.14622 0.08032 0.0136096)
(1.15535 0.0812423 0.0105424)
(1.15117 0.0840255 0.00955561)
(1.15207 0.0856251 0.00859045)
(1.14305 0.0847053 0.0104144)
(1.13919 0.0824835 0.0114362)
(1.13909 0.0817318 0.010183)
(1.13738 0.0790353 0.00845349)
(1.14044 0.0776712 0.00877354)
(1.14083 0.0769968 0.0111025)
(1.14541 0.0790005 0.0130599)
(1.12004 0.0839574 0.00929425)
(1.11944 0.085906 0.00914174)
(1.12672 0.0879281 0.00985367)
(1.12366 0.0890041 0.0111934)
(1.12989 0.0896559 0.0100538)
(1.12799 0.0878558 0.00989322)
(1.13184 0.0886709 0.0101436)
(1.12464 0.0893719 0.0117438)
(1.12648 0.087974 0.0126692)
(1.11851 0.0864356 0.0109242)
(1.12583 0.0875664 0.00898161)
(1.12244 0.0884956 0.00875336)
(1.13114 0.0890562 0.00713519)
(1.12769 0.0890599 0.00720524)
(1.13185 0.0888854 0.00692223)
(1.12532 0.0874965 0.00533395)
(1.13176 0.0877508 0.00585989)
(1.1273 0.0877972 0.00670749)
(1.12914 0.0869225 0.00625977)
(1.12949 0.0866248 0.00559151)
(1.12975 0.085071 0.00780905)
(1.13065 0.0854741 0.0081634)
(1.13304 0.0838752 0.00871078)
(1.12645 0.0806873 0.00921608)
(1.12691 0.0784407 0.00886981)
(1.12347 0.0792217 0.0107745)
(1.12492 0.0793836 0.0126667)
(1.12824 0.0812534 0.0128605)
(1.12694 0.0835164 0.0123001)
(1.12574 0.0830995 0.0132096)
(1.12592 0.0858777 0.0144258)
(1.1301 0.0893029 0.014549)
(1.13247 0.0900961 0.0126532)
(1.13585 0.0913791 0.0137739)
(1.1337 0.0917851 0.0124869)
(1.13648 0.0920916 0.0111121)