/*--------------------------------*- C++ -*----------------------------------*\
  =========                 |
  \\      /  F ield         | OpenFOAM: The Open Source CFD Toolbox
   \\    /   O peration     | Website:  https://openfoam.org
    \\  /    A nd           | Version:  10
     \\/     M anipulation  |
\*---------------------------------------------------------------------------*/
FoamFile
{
    format      ascii;
    class       volScalarField;
    location    "42.5";
    object      p;
}
// * * * * * * * * * * * * * * * * * * * * * * * * * * * * * * * * * * * * * //

dimensions      [0 2 -2 0 0 0 0];

internalField   nonuniform List<scalar> 
25600
(
1.32714e-06
2.78966e-06
5.88838e-07
2.62547e-06
1.88698e-06
7.30328e-07
3.38666e-06
4.54971e-07
2.25533e-06
2.44612e-06
5.99121e-07
3.14531e-06
1.40516e-06
1.52572e-06
2.28921e-06
1.5458e-06
1.8358e-06
1.71398e-06
2.04952e-06
1.45725e-06
2.14995e-06
1.58414e-06
1.59419e-06
2.32612e-06
1.07533e-06
2.5724e-06
1.13222e-06
2.11733e-06
2.03716e-06
1.03654e-06
2.75574e-06
9.9025e-07
2.12643e-06
1.52826e-06
2.09074e-06
1.62246e-06
1.71317e-06
2.00306e-06
1.65988e-06
1.86596e-06
1.1877e-06
2.79427e-06
4.97504e-07
2.90633e-06
1.5845e-06
8.98232e-07
3.32478e-06
4.92303e-07
2.29908e-06
2.05939e-06
1.23004e-06
1.94534e-06
1.94398e-06
1.43127e-06
1.71574e-06
2.55395e-06
8.5508e-07
2.27598e-06
2.06777e-06
9.34518e-07
2.84188e-06
1.17908e-06
1.52818e-06
2.64302e-06
9.75795e-07
2.0366e-06
1.88869e-06
1.50068e-06
1.96905e-06
1.67988e-06
1.82418e-06
1.99729e-06
1.86793e-06
1.16678e-06
2.9237e-06
7.00474e-07
2.18559e-06
2.13672e-06
1.14781e-06
2.39589e-06
1.39911e-06
2.3894e-06
7.95861e-07
2.76894e-06
1.55137e-06
1.10588e-06
2.83311e-06
1.09802e-06
1.95065e-06
1.72368e-06
2.19686e-06
9.53456e-07
2.69636e-06
1.39725e-06
1.07103e-06
3.54144e-06
-6.20552e-08
2.76255e-06
2.13586e-06
4.37275e-07
3.44668e-06
9.26503e-07
1.38222e-06
3.09224e-06
8.05804e-07
1.72815e-06
2.6311e-06
9.3507e-07
2.07626e-06
2.08786e-06
1.14195e-06
2.49671e-06
1.57961e-06
1.10945e-06
3.17094e-06
4.73454e-07
2.20465e-06
2.36956e-06
8.50926e-07
2.47402e-06
1.76832e-06
1.87971e-06
1.23778e-06
2.46676e-06
1.6416e-06
1.36945e-06
2.22168e-06
1.91574e-06
1.45533e-06
1.49912e-06
3.10394e-06
-7.05579e-08
3.31625e-06
1.44752e-06
4.92138e-07
4.32383e-06
-7.14792e-07
3.06528e-06
2.26504e-06
-2.29567e-08
3.974e-06
6.10252e-07
1.30123e-06
3.41268e-06
5.69499e-07
1.6149e-06
3.08236e-06
5.3629e-07
2.14401e-06
2.34394e-06
7.32335e-07
2.80639e-06
1.39184e-06
1.19507e-06
3.0798e-06
6.04439e-07
2.00505e-06
2.55293e-06
7.80974e-07
2.31111e-06
2.19851e-06
1.4049e-06
1.66882e-06
2.14669e-06
1.74416e-06
1.64688e-06
1.56395e-06
2.70936e-06
9.78099e-07
1.3574e-06
3.80578e-06
-8.56651e-07
3.75022e-06
1.54525e-06
3.91075e-08
4.86951e-06
-1.12693e-06
3.27001e-06
2.33349e-06
-3.22625e-07
4.33108e-06
3.23321e-07
1.32158e-06
3.54483e-06
4.26223e-07
1.56932e-06
3.31769e-06
2.95935e-07
2.19108e-06
2.48926e-06
4.801e-07
3.00573e-06
1.24402e-06
1.34955e-06
2.85304e-06
8.57547e-07
1.80445e-06
2.58671e-06
9.17169e-07
2.00637e-06
2.53344e-06
1.02848e-06
2.03151e-06
1.86672e-06
1.80098e-06
1.92136e-06
1.00099e-06
3.3335e-06
6.40415e-07
1.25176e-06
4.27994e-06
-1.36239e-06
4.01871e-06
1.62227e-06
-2.25823e-07
5.15476e-06
-1.33269e-06
3.3713e-06
2.34879e-06
-4.38792e-07
4.45925e-06
2.14544e-07
1.35557e-06
3.59437e-06
3.40027e-07
1.58502e-06
3.41847e-06
1.34889e-07
2.28859e-06
2.49315e-06
3.72764e-07
3.13757e-06
1.06362e-06
1.56436e-06
2.58326e-06
1.09069e-06
1.68477e-06
2.51559e-06
1.13089e-06
1.70384e-06
2.71845e-06
8.09483e-07
2.27871e-06
1.67131e-06
1.7981e-06
2.19045e-06
5.65626e-07
3.74054e-06
4.74093e-07
1.15744e-06
4.55187e-06
-1.61323e-06
4.13231e-06
1.67787e-06
-3.14463e-07
5.20596e-06
-1.31932e-06
3.3671e-06
2.34334e-06
-4.22136e-07
4.42949e-06
2.3815e-07
1.36996e-06
3.57354e-06
3.016e-07
1.63665e-06
3.4239e-06
6.04144e-08
2.44035e-06
2.37934e-06
3.78866e-07
3.22377e-06
8.82189e-07
1.80022e-06
2.33084e-06
1.24537e-06
1.68166e-06
2.35968e-06
1.33979e-06
1.49596e-06
2.75277e-06
7.23049e-07
2.43474e-06
1.54993e-06
1.73487e-06
2.4645e-06
2.34358e-07
3.96627e-06
4.52766e-07
1.05635e-06
4.68978e-06
-1.69278e-06
4.15275e-06
1.7064e-06
-2.89797e-07
5.12059e-06
-1.19628e-06
3.29676e-06
2.32619e-06
-2.60427e-07
4.2754e-06
3.67564e-07
1.3433e-06
3.53954e-06
3.0003e-07
1.68989e-06
3.3933e-06
-4.61862e-08
2.64749e-06
2.17842e-06
4.38388e-07
3.30756e-06
6.73002e-07
2.03851e-06
2.13818e-06
1.28781e-06
1.79386e-06
2.13943e-06
1.52905e-06
1.40451e-06
2.67842e-06
7.18538e-07
2.53841e-06
1.47234e-06
1.62808e-06
2.75032e-06
-3.82429e-08
4.06837e-06
5.4143e-07
9.31893e-07
4.75169e-06
-1.66428e-06
4.11497e-06
1.71712e-06
-1.96616e-07
4.95598e-06
-1.00727e-06
3.17861e-06
2.33041e-06
-1.24344e-07
4.04929e-06
5.82635e-07
1.25726e-06
3.52948e-06
3.0232e-07
1.7441e-06
3.35793e-06
-1.73122e-07
2.90716e-06
1.91487e-06
5.35918e-07
3.40309e-06
4.3126e-07
2.2834e-06
1.99159e-06
1.24578e-06
1.98501e-06
1.88649e-06
1.67503e-06
1.40508e-06
2.52544e-06
7.70417e-07
2.61699e-06
1.40947e-06
1.50093e-06
3.03616e-06
-3.33559e-07
4.10464e-06
6.90275e-07
7.89101e-07
4.78244e-06
-1.59255e-06
4.06278e-06
1.71902e-06
-8.66643e-08
4.77617e-06
-8.05814e-07
3.03945e-06
2.36393e-06
4.54167e-10
3.81478e-06
8.29979e-07
1.13228e-06
3.55255e-06
2.84757e-07
1.80782e-06
3.32989e-06
-3.27211e-07
3.21374e-06
1.61209e-06
6.41492e-07
3.5215e-06
1.60574e-07
2.53408e-06
1.88364e-06
1.13342e-06
2.2477e-06
1.62017e-06
1.77803e-06
1.48256e-06
2.33061e-06
8.48888e-07
2.68272e-06
1.35204e-06
1.38088e-06
3.2911e-06
-5.40955e-07
4.09088e-06
8.67111e-07
6.53985e-07
4.78864e-06
-1.49873e-06
4.00697e-06
1.7172e-06
1.6831e-08
4.62361e-06
-5.99917e-07
2.9043e-06
2.41758e-06
9.82887e-08
3.60363e-06
1.06675e-06
1.00001e-06
3.58986e-06
2.58504e-07
1.87158e-06
3.3063e-06
-4.82479e-07
3.51537e-06
1.32356e-06
7.28804e-07
3.65247e-06
-1.03951e-07
2.75377e-06
1.82458e-06
9.75921e-07
2.52629e-06
1.37825e-06
1.83026e-06
1.6201e-06
2.12687e-06
9.62796e-07
2.71882e-06
1.31144e-06
1.30083e-06
3.45167e-06
-6.19912e-07
4.01078e-06
1.04975e-06
5.64309e-07
4.73688e-06
-1.35639e-06
3.92336e-06
1.72543e-06
1.1546e-07
4.48133e-06
-4.25172e-07
2.78501e-06
2.46702e-06
1.76901e-07
3.43107e-06
1.25198e-06
9.10057e-07
3.59632e-06
2.55684e-07
1.92562e-06
3.26113e-06
-5.73989e-07
3.72883e-06
1.10945e-06
7.92593e-07
3.74866e-06
-2.95568e-07
2.89668e-06
1.81213e-06
8.235e-07
2.77063e-06
1.19694e-06
1.83625e-06
1.78032e-06
1.94723e-06
1.08073e-06
2.70604e-06
1.30386e-06
1.26339e-06
3.49374e-06
-5.78089e-07
3.86655e-06
1.22271e-06
5.32762e-07
4.6234e-06
-1.16096e-06
3.8045e-06
1.74225e-06
2.19573e-07
4.33622e-06
-2.81687e-07
2.69299e-06
2.48115e-06
2.65711e-07
3.29199e-06
1.37107e-06
8.89571e-07
3.54247e-06
2.99932e-07
1.96031e-06
3.18417e-06
-5.69307e-07
3.81301e-06
9.93491e-07
8.39104e-07
3.78005e-06
-3.8229e-07
2.95201e-06
1.82431e-06
7.1365e-07
2.92535e-06
1.05846e-06
1.82672e-06
1.91224e-06
1.82429e-06
1.17577e-06
2.66582e-06
1.31629e-06
1.26044e-06
3.53127e-06
-5.12638e-07
3.70314e-06
1.35489e-06
5.61269e-07
4.47591e-06
-1.0031e-06
3.67987e-06
1.74138e-06
3.4586e-07
4.17629e-06
-1.47076e-07
2.63685e-06
2.45025e-06
3.76415e-07
3.16732e-06
1.44207e-06
9.26138e-07
3.43836e-06
3.8291e-07
1.97482e-06
3.08768e-06
-4.90743e-07
3.79695e-06
9.49084e-07
8.86024e-07
3.7464e-06
-3.84908e-07
2.94936e-06
1.82931e-06
6.68679e-07
2.98912e-06
9.84305e-07
1.81823e-06
1.99043e-06
1.74779e-06
1.2505e-06
2.61872e-06
1.32574e-06
1.29596e-06
3.42905e-06
-3.49728e-07
3.55028e-06
1.42618e-06
6.59448e-07
4.26284e-06
-7.65489e-07
3.56879e-06
1.70883e-06
5.07543e-07
3.98744e-06
-1.09585e-08
2.60582e-06
2.37855e-06
5.14406e-07
3.04696e-06
1.48046e-06
1.00123e-06
3.30342e-06
4.81938e-07
1.98753e-06
2.96878e-06
-3.59569e-07
3.71873e-06
9.37458e-07
9.55381e-07
3.64552e-06
-3.12201e-07
2.91111e-06
1.81637e-06
6.88478e-07
2.97497e-06
9.84654e-07
1.80811e-06
2.0309e-06
1.70437e-06
1.31168e-06
2.5661e-06
1.33581e-06
1.35715e-06
3.2902e-06
-1.35262e-07
3.40263e-06
1.45833e-06
8.03249e-07
4.00425e-06
-4.92139e-07
3.45667e-06
1.66051e-06
6.9411e-07
3.77212e-06
1.79567e-07
2.57959e-06
2.28729e-06
6.69106e-07
2.92374e-06
1.504e-06
1.09462e-06
3.15394e-06
5.86372e-07
2.00264e-06
2.83282e-06
-1.92062e-07
3.60016e-06
9.44099e-07
1.04738e-06
3.49236e-06
-1.82204e-07
2.84732e-06
1.79e-06
7.57724e-07
2.90393e-06
1.02434e-06
1.79637e-06
2.044e-06
1.67994e-06
1.36566e-06
2.51088e-06
1.34766e-06
1.43009e-06
3.13339e-06
7.60516e-08
3.26219e-06
1.46916e-06
9.63917e-07
3.74251e-06
-2.30086e-07
3.3401e-06
1.61223e-06
8.84257e-07
3.54582e-06
3.4169e-07
2.54841e-06
2.19351e-06
8.251e-07
2.80238e-06
1.52093e-06
1.19221e-06
3.00343e-06
6.89368e-07
2.01933e-06
2.69065e-06
-6.51829e-09
3.46003e-06
9.62753e-07
1.15016e-06
3.31273e-06
-2.04402e-08
2.76825e-06
1.76039e-06
8.50726e-07
2.80447e-06
1.08119e-06
1.78361e-06
2.0432e-06
1.66716e-06
1.4156e-06
2.45374e-06
1.3634e-06
1.50266e-06
2.97672e-06
2.70168e-07
3.13235e-06
1.46969e-06
1.12118e-06
3.49512e-06
1.05837e-08
3.22523e-06
1.57098e-06
1.06144e-06
3.32361e-06
5.01679e-07
2.51177e-06
2.10806e-06
9.71595e-07
2.68751e-06
1.53776e-06
1.28435e-06
2.86171e-06
7.87495e-07
2.03444e-06
2.55405e-06
1.79676e-07
3.31528e-06
9.87861e-07
1.25342e-06
3.12961e-06
1.48138e-07
2.68707e-06
1.72966e-06
9.50987e-07
2.69825e-06
1.14085e-06
1.7757e-06
2.03269e-06
1.66304e-06
1.45987e-06
2.39793e-06
1.3818e-06
1.56799e-06
2.83246e-06
4.43263e-07
3.01722e-06
1.46546e-06
1.26398e-06
3.27295e-06
2.23037e-07
3.11911e-06
1.53699e-06
1.21813e-06
3.12594e-06
6.4982e-07
2.47397e-06
2.03478e-06
1.10146e-06
2.58421e-06
1.55291e-06
1.366e-06
2.73568e-06
8.76237e-07
2.04759e-06
2.43042e-06
3.53617e-07
3.17869e-06
1.01397e-06
1.35139e-06
2.95665e-06
3.08358e-07
2.61219e-06
1.69827e-06
1.05022e-06
2.59589e-06
1.19653e-06
1.77423e-06
2.01399e-06
1.66452e-06
1.49734e-06
2.34703e-06
1.40002e-06
1.62429e-06
2.70643e-06
5.91934e-07
2.9196e-06
1.45859e-06
1.3883e-06
3.08099e-06
4.0505e-07
3.02644e-06
1.50854e-06
1.35291e-06
2.95655e-06
7.80063e-07
2.43919e-06
1.97331e-06
1.21285e-06
2.49532e-06
1.56687e-06
1.43618e-06
2.62749e-06
9.53489e-07
2.05964e-06
2.32209e-06
5.08877e-07
3.05708e-06
1.03728e-06
1.4412e-06
2.80098e-06
4.52201e-07
2.54757e-06
1.66713e-06
1.1431e-06
2.50265e-06
1.24536e-06
1.77769e-06
1.99113e-06
1.66896e-06
1.52832e-06
2.30296e-06
1.41603e-06
1.67209e-06
2.59969e-06
7.15918e-07
2.84005e-06
1.44982e-06
1.49398e-06
2.9198e-06
5.56899e-07
2.9491e-06
1.48403e-06
1.46695e-06
2.81225e-06
8.90313e-07
2.40987e-06
1.92204e-06
1.30651e-06
2.42127e-06
1.57888e-06
1.49539e-06
2.53691e-06
1.01881e-06
2.07086e-06
2.22932e-06
6.43072e-07
2.95302e-06
1.05622e-06
1.52134e-06
2.66548e-06
5.76275e-07
2.4943e-06
1.63715e-06
1.22652e-06
2.42104e-06
1.28641e-06
1.78419e-06
1.96731e-06
1.67456e-06
1.55371e-06
2.26606e-06
1.4293e-06
1.71244e-06
2.51125e-06
8.17038e-07
2.77726e-06
1.4398e-06
1.58245e-06
2.78738e-06
6.80753e-07
2.887e-06
1.46245e-06
1.56222e-06
2.69291e-06
9.81043e-07
2.38685e-06
1.87924e-06
1.38405e-06
2.36106e-06
1.58847e-06
1.54473e-06
2.46256e-06
1.07256e-06
2.08129e-06
2.15142e-06
7.55975e-07
2.86672e-06
1.07047e-06
1.59111e-06
2.55061e-06
6.79998e-07
2.45202e-06
1.60918e-06
1.29905e-06
2.35189e-06
1.31976e-06
1.79232e-06
1.94468e-06
1.68024e-06
1.57443e-06
2.23597e-06
1.43974e-06
1.74626e-06
2.43935e-06
8.9798e-07
2.72906e-06
1.42923e-06
1.65552e-06
2.68064e-06
7.80431e-07
2.83883e-06
1.44323e-06
1.64079e-06
2.59612e-06
1.0539e-06
2.36985e-06
1.84358e-06
1.44732e-06
2.31309e-06
1.59562e-06
1.5854e-06
2.40255e-06
1.11569e-06
2.09096e-06
2.08716e-06
8.48694e-07
2.79714e-06
1.08031e-06
1.65055e-06
2.45552e-06
7.64362e-07
2.41971e-06
1.58381e-06
1.36043e-06
2.29502e-06
1.34603e-06
1.80116e-06
1.92444e-06
1.68542e-06
1.59123e-06
2.21206e-06
1.44768e-06
1.77427e-06
2.382e-06
9.61634e-07
2.69308e-06
1.41873e-06
1.71497e-06
2.59623e-06
8.57802e-07
2.80272e-06
1.42614e-06
1.70461e-06
2.51922e-06
1.11109e-06
2.35808e-06
1.81405e-06
1.49813e-06
2.27565e-06
1.60073e-06
1.61848e-06
2.35493e-06
1.14942e-06
2.09988e-06
2.03505e-06
9.23108e-07
2.74259e-06
1.08636e-06
1.70018e-06
2.37836e-06
8.31248e-07
2.39599e-06
1.5614e-06
1.41116e-06
2.24955e-06
1.36612e-06
1.81006e-06
1.90715e-06
1.68986e-06
1.60473e-06
2.19355e-06
1.45357e-06
1.79713e-06
2.33724e-06
1.01058e-06
2.66705e-06
1.40881e-06
1.76253e-06
2.53083e-06
9.16881e-07
2.77666e-06
1.41111e-06
1.75557e-06
2.45941e-06
1.15462e-06
2.35057e-06
1.78988e-06
1.53819e-06
2.24712e-06
1.60362e-06
1.645e-06
2.31788e-06
1.17509e-06
2.108e-06
1.99356e-06
9.81467e-07
2.70107e-06
1.08937e-06
1.74082e-06
2.31684e-06
8.83201e-07
2.37938e-06
1.54213e-06
1.45215e-06
2.21426e-06
1.38099e-06
1.81858e-06
1.89294e-06
1.69344e-06
1.61544e-06
2.17965e-06
1.45779e-06
1.81548e-06
2.30314e-06
1.04726e-06
2.64893e-06
1.39984e-06
1.79981e-06
2.48139e-06
9.60866e-07
2.75868e-06
1.39813e-06
1.79542e-06
2.41407e-06
1.18668e-06
2.34634e-06
1.77046e-06
1.56905e-06
2.22598e-06
1.60501e-06
1.66588e-06
2.2897e-06
1.19402e-06
2.11528e-06
1.96123e-06
1.02611e-06
2.6705e-06
1.09014e-06
1.7734e-06
2.27001e-06
9.21879e-07
2.36846e-06
1.52602e-06
1.48445e-06
2.18773e-06
1.39157e-06
1.82639e-06
1.88171e-06
1.69618e-06
1.62379e-06
2.16961e-06
1.46067e-06
1.82991e-06
2.27792e-06
1.07398e-06
2.63695e-06
1.39203e-06
1.82835e-06
2.44507e-06
9.92598e-07
2.74699e-06
1.3872e-06
1.82581e-06
2.38074e-06
1.20953e-06
2.34451e-06
1.75521e-06
1.59219e-06
2.2109e-06
1.60533e-06
1.68194e-06
2.2689e-06
1.20747e-06
2.12169e-06
1.93666e-06
1.05926e-06
2.64891e-06
1.08936e-06
1.79889e-06
2.23517e-06
9.4988e-07
2.36191e-06
1.51295e-06
1.5092e-06
2.16854e-06
1.39876e-06
1.83328e-06
1.8732e-06
1.69813e-06
1.63017e-06
2.16273e-06
1.4625e-06
1.84098e-06
2.25998e-06
1.0927e-06
2.62964e-06
1.38551e-06
1.84953e-06
2.41941e-06
1.01456e-06
2.74007e-06
1.37831e-06
1.84825e-06
2.35719e-06
1.22506e-06
2.34435e-06
1.74363e-06
1.60892e-06
2.20067e-06
1.60494e-06
1.69394e-06
2.25416e-06
1.21652e-06
2.12718e-06
1.9186e-06
1.08297e-06
2.63448e-06
1.08765e-06
1.81822e-06
2.21023e-06
9.69296e-07
2.35858e-06
1.50275e-06
1.52749e-06
2.15536e-06
1.40337e-06
1.83913e-06
1.8671e-06
1.69942e-06
1.6349e-06
2.15841e-06
1.46352e-06
1.84917e-06
2.24793e-06
1.10512e-06
2.62576e-06
1.38036e-06
1.86458e-06
2.40228e-06
1.02891e-06
2.73659e-06
1.37141e-06
1.86408e-06
2.34149e-06
1.23496e-06
2.34521e-06
1.73527e-06
1.6204e-06
2.19425e-06
1.60415e-06
1.70251e-06
2.24432e-06
1.22217e-06
2.13175e-06
1.90597e-06
1.09905e-06
2.62564e-06
1.08551e-06
1.83225e-06
2.19338e-06
9.81939e-07
2.3575e-06
1.49519e-06
1.54034e-06
2.14697e-06
1.40606e-06
1.84384e-06
1.86306e-06
1.70022e-06
1.63825e-06
2.15611e-06
1.46396e-06
1.85495e-06
2.24058e-06
1.11266e-06
2.62432e-06
1.37656e-06
1.87464e-06
2.39183e-06
1.03743e-06
2.73551e-06
1.3664e-06
1.87451e-06
2.33197e-06
1.24063e-06
2.34658e-06
1.72968e-06
1.62768e-06
2.19072e-06
1.60326e-06
1.70824e-06
2.2384e-06
1.22524e-06
2.13538e-06
1.8978e-06
1.10899e-06
2.62103e-06
1.08333e-06
1.8418e-06
2.18303e-06
9.89384e-07
2.35786e-06
1.49003e-06
1.5487e-06
2.14229e-06
1.40743e-06
1.8474e-06
1.86075e-06
1.70073e-06
1.64039e-06
2.15547e-06
1.46394e-06
1.85877e-06
2.23693e-06
1.11635e-06
2.62481e-06
1.3738e-06
1.88085e-06
2.38653e-06
1.04147e-06
2.73629e-06
1.36283e-06
1.88085e-06
2.32714e-06
1.24315e-06
2.34829e-06
1.72628e-06
1.63176e-06
2.18932e-06
1.60241e-06
1.71166e-06
2.23559e-06
1.22631e-06
2.13823e-06
1.89318e-06
1.11411e-06
2.6197e-06
1.08115e-06
1.84784e-06
2.17771e-06
9.92852e-07
2.35925e-06
1.48675e-06
1.55357e-06
2.14039e-06
1.40785e-06
1.84995e-06
1.85978e-06
1.7012e-06
1.64135e-06
2.15615e-06
1.46339e-06
1.86105e-06
2.23613e-06
1.11679e-06
2.62712e-06
1.37128e-06
1.88444e-06
2.38498e-06
1.04179e-06
2.73894e-06
1.35971e-06
1.88451e-06
2.32557e-06
1.24317e-06
2.35048e-06
1.72413e-06
1.63365e-06
2.18936e-06
1.60156e-06
1.71329e-06
2.23518e-06
1.22565e-06
2.14059e-06
1.8911e-06
1.11539e-06
2.62111e-06
1.07849e-06
1.85152e-06
2.17589e-06
9.93152e-07
2.36163e-06
1.48447e-06
1.55603e-06
2.14038e-06
1.40744e-06
1.85182e-06
1.8595e-06
1.38203e-06
2.86951e-06
4.79657e-07
2.72404e-06
1.89465e-06
5.89272e-07
3.59601e-06
3.08408e-07
2.24246e-06
2.59893e-06
3.26338e-07
3.28104e-06
1.22766e-06
1.50823e-06
2.45172e-06
1.36106e-06
1.95105e-06
1.64848e-06
2.09598e-06
1.43373e-06
2.13065e-06
1.65666e-06
1.48969e-06
2.37831e-06
1.11323e-06
2.44977e-06
1.23139e-06
1.99772e-06
2.1068e-06
1.04831e-06
2.63199e-06
1.22506e-06
1.94182e-06
1.6538e-06
2.02072e-06
1.54421e-06
1.78721e-06
1.90015e-06
1.79082e-06
1.74908e-06
1.30057e-06
2.85584e-06
3.72266e-07
3.09041e-06
1.44001e-06
9.38535e-07
3.40653e-06
3.72209e-07
2.36901e-06
2.06802e-06
1.1459e-06
2.21169e-06
1.83259e-06
1.429e-06
1.86294e-06
2.3626e-06
1.003e-06
2.1752e-06
2.11253e-06
9.71031e-07
2.74298e-06
1.34692e-06
1.371e-06
2.74945e-06
9.83291e-07
1.9737e-06
2.03821e-06
1.32797e-06
2.15401e-06
1.59599e-06
1.71823e-06
2.20927e-06
1.55562e-06
1.45249e-06
2.76116e-06
6.9465e-07
2.34158e-06
1.92274e-06
1.39637e-06
2.16682e-06
1.53604e-06
2.36271e-06
7.11532e-07
2.97825e-06
1.30908e-06
1.27125e-06
2.76582e-06
1.02662e-06
2.06961e-06
1.59403e-06
2.28331e-06
9.76119e-07
2.62982e-06
1.43471e-06
1.1271e-06
3.43544e-06
2.76155e-08
2.69054e-06
2.16658e-06
4.68096e-07
3.36882e-06
1.05451e-06
1.26007e-06
3.20143e-06
7.93962e-07
1.69132e-06
2.74551e-06
7.55117e-07
2.29396e-06
1.93342e-06
1.13093e-06
2.69236e-06
1.25669e-06
1.45322e-06
2.93573e-06
5.10287e-07
2.33202e-06
2.13731e-06
1.11897e-06
2.24788e-06
1.91572e-06
1.79494e-06
1.21462e-06
2.65091e-06
1.3556e-06
1.62456e-06
2.13247e-06
1.87679e-06
1.61833e-06
1.25495e-06
3.3336e-06
-1.76492e-07
3.29447e-06
1.52747e-06
4.27288e-07
4.35968e-06
-7.47149e-07
3.0796e-06
2.25403e-06
4.58401e-10
3.95332e-06
6.72953e-07
1.2689e-06
3.44935e-06
5.23308e-07
1.62425e-06
3.11145e-06
4.41668e-07
2.31549e-06
2.16024e-06
8.29145e-07
2.87873e-06
1.155e-06
1.51281e-06
2.82693e-06
6.92189e-07
2.08708e-06
2.36612e-06
1.00543e-06
2.11917e-06
2.33665e-06
1.27575e-06
1.70987e-06
2.28749e-06
1.45013e-06
1.93771e-06
1.4147e-06
2.6829e-06
1.17926e-06
1.02846e-06
4.13674e-06
-1.06596e-06
3.77644e-06
1.64767e-06
-1.18606e-07
5.03012e-06
-1.28398e-06
3.3826e-06
2.2684e-06
-3.09007e-07
4.36548e-06
1.80112e-07
1.38489e-06
3.52647e-06
4.04026e-07
1.64173e-06
3.24873e-06
3.17486e-07
2.27893e-06
2.31879e-06
6.59274e-07
2.94162e-06
1.13052e-06
1.59974e-06
2.60822e-06
9.8913e-07
1.81611e-06
2.48193e-06
1.0706e-06
1.85878e-06
2.67187e-06
8.67429e-07
2.1158e-06
1.97498e-06
1.51541e-06
2.23056e-06
8.20635e-07
3.31739e-06
8.56106e-07
8.78174e-07
4.66789e-06
-1.63566e-06
4.08087e-06
1.73067e-06
-4.42812e-07
5.40545e-06
-1.57262e-06
3.5453e-06
2.25791e-06
-4.39032e-07
4.55498e-06
3.63535e-08
1.5054e-06
3.51952e-06
3.22339e-07
1.70402e-06
3.26327e-06
2.66829e-07
2.29926e-06
2.34108e-06
6.15245e-07
2.95526e-06
1.07927e-06
1.73623e-06
2.3574e-06
1.26181e-06
1.62344e-06
2.49477e-06
1.2104e-06
1.59758e-06
2.86019e-06
6.25528e-07
2.39096e-06
1.7543e-06
1.52474e-06
2.50381e-06
3.66947e-07
3.73787e-06
6.85341e-07
7.75345e-07
4.95538e-06
-1.90545e-06
4.20995e-06
1.78706e-06
-5.59822e-07
5.50293e-06
-1.60469e-06
3.56444e-06
2.25525e-06
-4.30862e-07
4.56528e-06
2.43075e-08
1.5594e-06
3.46122e-06
2.77131e-07
1.78858e-06
3.20852e-06
2.39399e-07
2.39277e-06
2.2457e-06
6.59753e-07
2.95507e-06
9.96804e-07
1.89318e-06
2.13255e-06
1.4403e-06
1.56165e-06
2.40619e-06
1.36992e-06
1.41536e-06
2.91387e-06
5.16783e-07
2.56307e-06
1.61805e-06
1.46833e-06
2.77855e-06
2.20476e-08
3.97796e-06
6.49046e-07
6.8882e-07
5.07987e-06
-1.98534e-06
4.23561e-06
1.81367e-06
-5.42836e-07
5.42641e-06
-1.48658e-06
3.48236e-06
2.2466e-06
-3.24718e-07
4.43552e-06
1.48219e-07
1.53143e-06
3.44535e-06
2.55386e-07
1.87052e-06
3.14696e-06
1.72788e-07
2.57162e-06
2.05607e-06
7.42382e-07
2.98982e-06
8.53313e-07
2.07388e-06
1.96332e-06
1.50236e-06
1.62211e-06
2.23391e-06
1.52647e-06
1.32639e-06
2.86711e-06
4.91052e-07
2.6743e-06
1.53564e-06
1.36445e-06
3.06456e-06
-2.72232e-07
4.09812e-06
7.14425e-07
5.89401e-07
5.11381e-06
-1.94127e-06
4.19294e-06
1.82142e-06
-4.44516e-07
5.24957e-06
-1.26864e-06
3.32761e-06
2.29953e-06
-2.1472e-07
4.22446e-06
3.74046e-07
1.41942e-06
3.47746e-06
2.22863e-07
1.94952e-06
3.10125e-06
5.28533e-08
2.83276e-06
1.78891e-06
8.5129e-07
3.06457e-06
6.47768e-07
2.28394e-06
1.83027e-06
1.48108e-06
1.76142e-06
2.01489e-06
1.66059e-06
1.31222e-06
2.74933e-06
5.23615e-07
2.753e-06
1.47553e-06
1.23724e-06
3.35268e-06
-5.56703e-07
4.15202e-06
8.36695e-07
4.7709e-07
5.10988e-06
-1.84579e-06
4.12945e-06
1.82355e-06
-3.25898e-07
5.0356e-06
-1.02895e-06
3.13491e-06
2.38954e-06
-1.27058e-07
4.00032e-06
6.44944e-07
1.2494e-06
3.55873e-06
1.59227e-07
2.03523e-06
3.07666e-06
-1.18545e-07
3.1635e-06
1.47132e-06
9.64507e-07
3.17743e-06
3.92275e-07
2.51831e-06
1.72654e-06
1.39032e-06
2.00827e-06
1.77356e-06
1.76706e-06
1.36235e-06
2.58632e-06
5.85609e-07
2.8163e-06
1.42466e-06
1.11507e-06
3.61168e-06
-7.77406e-07
4.15144e-06
9.89401e-07
3.71118e-07
5.08128e-06
-1.728e-06
4.05971e-06
1.82548e-06
-2.12251e-07
4.86251e-06
-7.50874e-07
2.94365e-06
2.49759e-06
-6.5304e-08
3.79673e-06
9.13746e-07
1.06327e-06
3.65601e-06
8.81897e-08
2.11894e-06
3.0656e-06
-3.04395e-07
3.49893e-06
1.16553e-06
1.05392e-06
3.31435e-06
1.2966e-07
2.73391e-06
1.666e-06
1.25321e-06
2.26821e-06
1.54586e-06
1.83225e-06
1.46705e-06
2.40548e-06
7.01527e-07
2.84348e-06
1.39263e-06
1.03513e-06
3.77346e-06
-8.65998e-07
4.07954e-06
1.15503e-06
3.0525e-07
4.99419e-06
-1.56529e-06
3.9626e-06
1.83523e-06
-1.01142e-07
4.69593e-06
-5.52547e-07
2.77697e-06
2.59213e-06
-1.3746e-08
3.62116e-06
1.13171e-06
9.24953e-07
3.71098e-06
5.52404e-08
2.1799e-06
3.04272e-06
-4.29499e-07
3.74686e-06
9.37855e-07
1.10914e-06
3.42976e-06
-7.32281e-08
2.87968e-06
1.65287e-06
1.11197e-06
2.49293e-06
1.36303e-06
1.85413e-06
1.59797e-06
2.23515e-06
8.23663e-07
2.81717e-06
1.3902e-06
1.00361e-06
3.82113e-06
-8.26528e-07
3.93835e-06
1.31581e-06
2.94878e-07
4.84249e-06
-1.34973e-06
3.8338e-06
1.84873e-06
1.7301e-08
4.52317e-06
-3.75508e-07
2.6554e-06
2.63052e-06
6.57087e-08
3.47056e-06
1.28063e-06
8.68549e-07
3.6882e-06
8.63268e-08
2.20765e-06
2.99337e-06
-4.57926e-07
3.85929e-06
8.15881e-07
1.13889e-06
3.49064e-06
-1.79579e-07
2.94269e-06
1.66558e-06
1.00221e-06
2.6518e-06
1.22338e-06
1.85799e-06
1.7141e-06
2.1096e-06
9.30526e-07
2.76284e-06
1.40498e-06
1.01009e-06
3.7959e-06
-7.30678e-07
3.77336e-06
1.43894e-06
3.45273e-07
4.73474e-06
-1.17464e-06
3.70241e-06
1.8416e-06
1.5749e-07
4.34118e-06
-2.16012e-07
2.58329e-06
2.60758e-06
1.79205e-07
3.33215e-06
1.37451e-06
8.82805e-07
3.59871e-06
1.69305e-07
2.21028e-06
2.92135e-06
-4.06113e-07
3.86209e-06
7.722e-07
1.16818e-06
3.48446e-06
-1.98862e-07
2.94821e-06
1.67279e-06
9.49252e-07
2.72763e-06
1.1495e-06
1.85872e-06
1.78742e-06
2.02155e-06
1.01965e-06
2.70626e-06
1.41066e-06
1.06113e-06
3.69037e-06
-5.65146e-07
3.61941e-06
1.4998e-06
4.61848e-07
4.48958e-06
-9.35181e-07
3.59024e-06
1.79831e-06
3.35396e-07
4.13538e-06
-6.32013e-08
2.54863e-06
2.53031e-06
3.29039e-07
3.19711e-06
1.42749e-06
9.49756e-07
3.46298e-06
2.79549e-07
2.20679e-06
2.82176e-06
-2.90141e-07
3.78981e-06
7.71118e-07
1.21645e-06
3.4084e-06
-1.40926e-07
2.91213e-06
1.66973e-06
9.54604e-07
2.72788e-06
1.13465e-06
1.85071e-06
1.83346e-06
1.95876e-06
1.09797e-06
2.64768e-06
1.41077e-06
1.14387e-06
3.53457e-06
-3.64254e-07
3.47213e-06
1.518e-06
6.2542e-07
4.21183e-06
-6.24531e-07
3.48119e-06
1.7361e-06
5.41158e-07
3.90206e-06
1.12767e-07
2.52572e-06
2.42551e-06
5.01426e-07
3.05844e-06
1.4604e-06
1.04413e-06
3.30299e-06
4.02235e-07
2.20194e-06
2.70193e-06
-1.2978e-07
3.6675e-06
7.95323e-07
1.2833e-06
3.27905e-06
-2.38215e-08
2.84577e-06
1.65993e-06
1.00237e-06
2.67474e-06
1.16157e-06
1.8352e-06
1.86152e-06
1.9101e-06
1.17063e-06
2.58775e-06
1.40999e-06
1.24135e-06
3.35597e-06
-1.10921e-07
3.33235e-06
1.51335e-06
8.07885e-07
3.92555e-06
-3.61194e-07
3.36794e-06
1.67267e-06
7.51303e-07
3.65875e-06
2.85963e-07
2.50049e-06
2.31581e-06
6.7686e-07
2.92134e-06
1.48412e-06
1.14706e-06
3.13704e-06
5.26718e-07
2.1977e-06
2.57433e-06
5.26258e-08
3.51824e-06
8.35183e-07
1.35937e-06
3.12287e-06
1.26259e-07
2.76185e-06
1.64968e-06
1.0701e-06
2.59656e-06
1.20832e-06
1.81563e-06
1.88013e-06
1.87235e-06
1.23917e-06
2.52637e-06
1.41296e-06
1.33818e-06
3.17487e-06
9.64339e-08
3.2021e-06
1.49939e-06
9.87051e-07
3.65345e-06
-1.1222e-07
3.25538e-06
1.61757e-06
9.47279e-07
3.4251e-06
4.53797e-07
2.47e-06
2.21504e-06
8.41391e-07
2.79237e-06
1.50541e-06
1.24567e-06
2.97931e-06
6.46156e-07
2.19301e-06
2.45098e-06
2.36981e-07
3.36307e-06
8.8157e-07
1.43679e-06
2.9621e-06
2.84006e-07
2.67574e-06
1.63808e-06
1.1449e-06
2.51226e-06
1.25842e-06
1.80068e-06
1.88915e-06
1.84517e-06
1.30019e-06
2.4672e-06
1.41946e-06
1.42555e-06
3.00766e-06
2.81524e-07
3.08607e-06
1.48254e-06
1.1499e-06
3.40923e-06
1.09478e-07
3.15055e-06
1.57182e-06
1.12032e-06
3.21344e-06
6.07492e-07
2.43783e-06
2.12832e-06
9.86923e-07
2.67767e-06
1.52397e-06
1.33396e-06
2.8387e-06
7.53679e-07
2.18898e-06
2.33845e-06
4.09852e-07
3.21675e-06
9.26876e-07
1.51165e-06
2.80907e-06
4.34571e-07
2.59642e-06
1.62401e-06
1.22088e-06
2.43012e-06
1.30542e-06
1.79252e-06
1.88932e-06
1.82653e-06
1.35193e-06
2.41393e-06
1.42692e-06
1.50126e-06
2.86148e-06
4.41799e-07
2.98746e-06
1.46492e-06
1.29171e-06
3.19845e-06
3.0043e-07
3.05849e-06
1.53362e-06
1.2689e-06
3.0306e-06
7.41761e-07
2.40815e-06
2.05551e-06
1.11132e-06
2.57989e-06
1.53975e-06
1.41068e-06
2.71778e-06
8.46751e-07
2.18684e-06
2.23898e-06
5.64707e-07
3.08661e-06
9.66625e-07
1.58176e-06
2.67033e-06
5.70251e-07
2.52792e-06
1.60797e-06
1.29352e-06
2.35439e-06
1.34708e-06
1.78967e-06
1.88352e-06
1.81394e-06
1.39467e-06
2.36838e-06
1.4335e-06
1.56577e-06
2.7377e-06
5.76129e-07
2.90709e-06
1.44712e-06
1.41225e-06
3.02165e-06
4.60342e-07
2.98143e-06
1.50119e-06
1.3944e-06
2.87678e-06
8.5494e-07
2.38346e-06
1.99472e-06
1.21549e-06
2.49908e-06
1.5525e-06
1.47604e-06
2.61633e-06
9.25033e-07
2.18672e-06
2.15304e-06
6.99043e-07
2.97524e-06
9.99204e-07
1.6457e-06
2.54873e-06
6.87723e-07
2.47129e-06
1.59091e-06
1.35976e-06
2.28734e-06
1.3826e-06
1.7903e-06
1.87463e-06
1.80544e-06
1.42954e-06
2.33077e-06
1.43854e-06
1.62016e-06
2.63521e-06
6.85994e-07
2.84378e-06
1.42955e-06
1.51309e-06
2.87653e-06
5.91166e-07
2.91956e-06
1.4732e-06
1.49898e-06
2.75007e-06
9.47719e-07
2.36452e-06
1.94406e-06
1.30143e-06
2.4338e-06
1.56215e-06
1.53091e-06
2.53286e-06
9.89283e-07
2.18829e-06
2.08025e-06
8.12489e-07
2.88273e-06
1.0246e-06
1.70245e-06
2.44499e-06
7.86336e-07
2.426e-06
1.57376e-06
1.41809e-06
2.23009e-06
1.41188e-06
1.79305e-06
1.86475e-06
1.79969e-06
1.45772e-06
2.30053e-06
1.44206e-06
1.66554e-06
2.55195e-06
7.74164e-07
2.79544e-06
1.41273e-06
1.59628e-06
2.75967e-06
6.95888e-07
2.8717e-06
1.4488e-06
1.58501e-06
2.64769e-06
1.02191e-06
2.35106e-06
1.902e-06
1.37135e-06
2.38208e-06
1.56894e-06
1.57635e-06
2.46537e-06
1.04078e-06
2.19116e-06
2.01973e-06
9.05997e-07
2.80796e-06
1.04343e-06
1.7516e-06
2.35833e-06
8.66894e-07
2.39099e-06
1.55736e-06
1.46798e-06
2.18272e-06
1.43527e-06
1.79712e-06
1.85517e-06
1.79583e-06
1.48026e-06
2.27685e-06
1.44431e-06
1.70287e-06
2.48566e-06
8.43367e-07
2.75957e-06
1.39712e-06
1.66387e-06
2.66733e-06
7.77699e-07
2.83601e-06
1.42753e-06
1.65473e-06
2.56655e-06
1.07982e-06
2.34228e-06
1.86737e-06
1.42734e-06
2.34194e-06
1.57325e-06
1.61345e-06
2.41178e-06
1.08106e-06
2.19493e-06
1.9703e-06
9.81328e-07
2.74916e-06
1.05662e-06
1.79325e-06
2.28777e-06
9.31027e-07
2.36493e-06
1.54227e-06
1.50959e-06
2.14466e-06
1.4534e-06
1.8019e-06
1.8466e-06
1.79328e-06
1.49806e-06
2.25881e-06
1.4456e-06
1.73309e-06
2.43401e-06
8.964e-07
2.73384e-06
1.38308e-06
1.71785e-06
2.59588e-06
8.40016e-07
2.81046e-06
1.40917e-06
1.71027e-06
2.50362e-06
1.12481e-06
2.33724e-06
1.83924e-06
1.47137e-06
2.31151e-06
1.57557e-06
1.64326e-06
2.37006e-06
1.11177e-06
2.19925e-06
1.93071e-06
1.04063e-06
2.70423e-06
1.06524e-06
1.82782e-06
2.23199e-06
9.80779e-07
2.34634e-06
1.52883e-06
1.5435e-06
2.115e-06
1.46704e-06
1.80695e-06
1.83937e-06
1.79163e-06
1.51189e-06
2.24552e-06
1.44618e-06
1.75709e-06
2.39476e-06
9.36106e-07
2.71615e-06
1.37085e-06
1.76009e-06
2.5419e-06
8.86349e-07
2.79301e-06
1.39359e-06
1.75362e-06
2.456e-06
1.15713e-06
2.33502e-06
1.81681e-06
1.50521e-06
2.28911e-06
1.57641e-06
1.66677e-06
2.33836e-06
1.13448e-06
2.20383e-06
1.89966e-06
1.08618e-06
2.67099e-06
1.07029e-06
1.85591e-06
2.18896e-06
1.0183e-06
2.33378e-06
1.51729e-06
1.57046e-06
2.09262e-06
1.47695e-06
1.81193e-06
1.83357e-06
1.7906e-06
1.52244e-06
2.23614e-06
1.44626e-06
1.77574e-06
2.36581e-06
9.64943e-07
2.70467e-06
1.36054e-06
1.79235e-06
2.50232e-06
9.19727e-07
2.78186e-06
1.38069e-06
1.78662e-06
2.42106e-06
1.18009e-06
2.33481e-06
1.79936e-06
1.53052e-06
2.27324e-06
1.57624e-06
1.6849e-06
2.31499e-06
1.15069e-06
2.20839e-06
1.87594e-06
1.12015e-06
2.64736e-06
1.07272e-06
1.87818e-06
2.15675e-06
1.04569e-06
2.32591e-06
1.50771e-06
1.5913e-06
2.0764e-06
1.48387e-06
1.81658e-06
1.82917e-06
1.78996e-06
1.53028e-06
2.22991e-06
1.446e-06
1.78985e-06
2.34531e-06
9.85063e-07
2.69788e-06
1.35215e-06
1.81625e-06
2.47442e-06
9.42792e-07
2.77544e-06
1.37034e-06
1.81094e-06
2.39646e-06
1.19565e-06
2.33588e-06
1.78623e-06
1.54876e-06
2.26258e-06
1.57542e-06
1.69846e-06
2.29844e-06
1.1617e-06
2.21271e-06
1.85839e-06
1.14456e-06
2.63145e-06
1.07332e-06
1.8953e-06
2.13355e-06
1.06482e-06
2.32158e-06
1.50007e-06
1.60685e-06
2.06523e-06
1.48845e-06
1.82071e-06
1.82606e-06
1.7896e-06
1.53592e-06
2.22618e-06
1.44555e-06
1.80013e-06
2.33159e-06
9.98329e-07
2.6945e-06
1.34568e-06
1.8332e-06
2.45583e-06
9.5782e-07
2.77242e-06
1.36243e-06
1.82805e-06
2.38011e-06
1.20553e-06
2.33766e-06
1.77685e-06
1.56125e-06
2.25597e-06
1.57431e-06
1.70819e-06
2.28743e-06
1.16865e-06
2.21659e-06
1.84603e-06
1.1612e-06
2.62158e-06
1.07279e-06
1.90791e-06
2.11785e-06
1.0774e-06
2.31975e-06
1.49432e-06
1.61789e-06
2.05812e-06
1.49127e-06
1.82418e-06
1.82411e-06
1.78946e-06
1.53974e-06
2.22439e-06
1.44503e-06
1.80723e-06
2.32328e-06
1.00632e-06
2.69351e-06
1.34101e-06
1.84447e-06
2.44455e-06
9.66729e-07
2.77172e-06
1.35678e-06
1.83932e-06
2.37026e-06
1.21116e-06