/*--------------------------------*- C++ -*----------------------------------*\
  =========                 |
  \\      /  F ield         | OpenFOAM: The Open Source CFD Toolbox
   \\    /   O peration     | Website:  https://openfoam.org
    \\  /    A nd           | Version:  10
     \\/     M anipulation  |
\*---------------------------------------------------------------------------*/
FoamFile
{
    format      ascii;
    class       surfaceScalarField;
    location    "35";
    object      phi;
}
// * * * * * * * * * * * * * * * * * * * * * * * * * * * * * * * * * * * * * //

dimensions      [0 3 -1 0 0 0 0];

internalField   nonuniform List<scalar> 
300480
(
8.45109e-06
9.54552e-09
-9.11747e-09
8.45005e-06
9.34175e-09
-1.14317e-08
8.44842e-06
1.23093e-08
-8.69377e-09
8.45131e-06
5.79106e-09
-1.28686e-08
8.44911e-06
1.10423e-08
-7.93781e-09
8.44615e-06
1.23138e-08
-1.18376e-08
8.45322e-06
1.63696e-09
-1.05459e-08
8.44487e-06
1.86023e-08
-1.0549e-08
8.449e-06
4.92009e-09
-1.13875e-08
8.45051e-06
7.96818e-09
-1.13155e-08
8.44497e-06
1.46049e-08
-9.3609e-09
8.45022e-06
5.01003e-09
-1.38501e-08
8.4489e-06
1.16229e-08
-9.42709e-09
8.44512e-06
1.33771e-08
-1.38797e-08
8.45175e-06
3.23353e-09
-9.5148e-09
8.44826e-06
1.41032e-08
-1.38839e-08
8.44585e-06
1.15768e-08
-1.0891e-08
8.45352e-06
4.65385e-09
-1.28119e-08
8.44647e-06
1.71247e-08
-1.32888e-08
8.45051e-06
5.69884e-09
-1.10293e-08
8.45058e-06
1.17726e-08
-1.18734e-08
8.45031e-06
1.00816e-08
-1.41331e-08
8.45111e-06
1.1469e-08
-9.59028e-09
8.44979e-06
1.21633e-08
-1.40362e-08
8.454e-06
6.58037e-09
-1.04497e-08
8.45075e-06
1.40256e-08
-1.2066e-08
8.45043e-06
1.11663e-08
-9.63325e-09
8.45575e-06
6.10418e-09
-1.40944e-08
8.45109e-06
1.55043e-08
-7.95749e-09
8.45008e-06
1.07014e-08
-1.27164e-08
8.45812e-06
2.5732e-09
-8.87859e-09
8.44915e-06
1.94505e-08
-1.2183e-08
8.45195e-06
6.82063e-09
-8.72135e-09
8.45642e-06
6.52123e-09
-1.16552e-08
8.44892e-06
1.61638e-08
-9.82968e-09
8.45342e-06
5.12367e-09
-9.241e-09
8.45245e-06
1.07827e-08
-1.07087e-08
8.45102e-06
1.16031e-08
-1.11661e-08
8.45101e-06
8.84186e-09
-8.39821e-09
9.23261e-09
-1.14936e-08
2.86484e-05
3.98934e-08
-2.82918e-08
2.86464e-05
3.8934e-08
-3.58338e-08
2.86441e-05
4.5882e-08
-2.80374e-08
2.8647e-05
3.00925e-08
-3.82895e-08
2.86422e-05
4.47088e-08
-2.62728e-08
2.86396e-05
4.38743e-08
-3.79404e-08
2.86472e-05
2.28026e-08
-3.04703e-08
2.86347e-05
6.2055e-08
-3.56943e-08
2.86426e-05
2.57149e-08
-3.30073e-08
2.86409e-05
3.99159e-08
-3.63056e-08
2.86354e-05
4.95031e-08
-3.11947e-08
2.86421e-05
3.04132e-08
-4.13392e-08
2.86389e-05
4.61496e-08
-3.07861e-08
2.86358e-05
4.74757e-08
-4.24555e-08
2.86442e-05
2.65121e-08
-3.10255e-08
2.86381e-05
5.32162e-08
-4.35642e-08
2.86379e-05
4.27344e-08
-3.3234e-08
2.86472e-05
3.21988e-08
-4.2349e-08
2.86375e-05
5.82852e-08
-3.75455e-08
2.86459e-05
3.03694e-08
-3.78911e-08
2.86442e-05
4.89646e-08
-3.73454e-08
2.8646e-05
4.07704e-08
-4.19939e-08
2.8647e-05
4.75646e-08
-3.26191e-08
2.8647e-05
4.55862e-08
-4.28169e-08
2.86528e-05
3.53611e-08
-3.24857e-08
2.86482e-05
5.23222e-08
-3.90983e-08
2.86507e-05
4.29802e-08
-3.14424e-08
2.86569e-05
3.46085e-08
-4.17744e-08
2.86504e-05
5.53604e-08
-2.70653e-08
2.86523e-05
4.0375e-08
-4.01667e-08
2.86611e-05
2.69316e-08
-2.78063e-08
2.86485e-05
6.40505e-08
-3.86209e-08
2.86559e-05
3.04509e-08
-2.71484e-08
2.86583e-05
3.67953e-08
-3.76112e-08
2.86491e-05
5.38276e-08
-2.85247e-08
2.8656e-05
2.87201e-08
-3.27981e-08
2.86524e-05
4.4286e-08
-3.1468e-08
2.86509e-05
4.38679e-08
-3.44254e-08
2.865e-05
3.74011e-08
-2.75721e-08
3.8949e-08
-3.59054e-08
5.45302e-05
9.39752e-08
-5.02254e-08
5.4527e-05
9.25131e-08
-6.42258e-08
5.45238e-05
1.03646e-07
-4.9977e-08
5.45256e-05
7.77418e-08
-6.73341e-08
5.4519e-05
1.03132e-07
-4.76667e-08
5.45156e-05
9.87585e-08
-6.71674e-08
5.45221e-05
6.84136e-08
-5.30155e-08
5.4508e-05
1.30707e-07
-6.47872e-08
5.45161e-05
6.93576e-08
-5.63687e-08
5.45121e-05
9.7573e-08
-6.55754e-08
5.45065e-05
1.08194e-07
-5.51053e-08
5.45128e-05
8.08568e-08
-7.24278e-08
5.45087e-05
1.05663e-07
-5.49028e-08
5.45054e-05
1.06419e-07
-7.44594e-08
5.4514e-05
7.4476e-08
-5.56865e-08
5.4507e-05
1.18817e-07
-7.68075e-08
5.45078e-05
9.81926e-08
-5.86563e-08
5.45176e-05
8.64444e-08
-7.6156e-08
5.45076e-05
1.25038e-07
-6.45742e-08
5.45175e-05
7.99893e-08
-7.0289e-08
5.45158e-05
1.13147e-07
-6.56151e-08
5.45192e-05
9.64699e-08
-7.49619e-08
5.45208e-05
1.10758e-07
-5.98517e-08
5.45225e-05
1.04007e-07
-7.61587e-08
5.45293e-05
9.06844e-08
-5.9248e-08
5.45254e-05
1.1641e-07
-7.11093e-08
5.453e-05
1.00286e-07
-5.75734e-08
5.45371e-05
8.91173e-08
-7.42562e-08
5.45314e-05
1.20932e-07
-5.09765e-08
5.45352e-05
9.44122e-08
-7.21854e-08
5.45447e-05
7.69875e-08
-5.11945e-08
5.45321e-05
1.34175e-07
-6.96709e-08
5.45415e-05
7.73998e-08
-4.93776e-08
5.45433e-05
9.30694e-08
-6.82794e-08
5.45342e-05
1.15059e-07
-5.0296e-08
5.45417e-05
7.62958e-08
-6.16033e-08
5.45371e-05
1.02539e-07
-5.43984e-08
5.45357e-05
1.0002e-07
-6.26599e-08
5.45337e-05
8.96813e-08
-4.93606e-08
9.28975e-08
-6.45361e-08
8.70659e-05
1.75415e-07
-7.49738e-08
8.70614e-05
1.73603e-07
-9.66449e-08
8.70572e-05
1.89099e-07
-7.41777e-08
8.70574e-05
1.52281e-07
-1.00208e-07
8.70488e-05
1.89685e-07
-7.15214e-08
8.7044e-05
1.8048e-07
-9.92505e-08
8.70486e-05
1.41757e-07
-7.77891e-08
8.70326e-05
2.27672e-07
-9.68155e-08
8.70396e-05
1.3967e-07
-8.15473e-08
8.70327e-05
1.83906e-07
-9.75176e-08
8.70263e-05
1.93988e-07
-8.02254e-08
8.7031e-05
1.59603e-07
-1.06484e-07
8.70255e-05
1.93459e-07
-8.02207e-08
8.70209e-05
1.93487e-07
-1.09203e-07
8.7029e-05
1.50101e-07
-8.17331e-08
8.70204e-05
2.13885e-07
-1.12853e-07
8.70213e-05
1.81066e-07
-8.58937e-08
8.70312e-05
1.70425e-07
-1.12835e-07
8.70205e-05
2.20377e-07
-9.44442e-08
8.70312e-05
1.57724e-07
-1.06036e-07
8.70295e-05
2.07345e-07
-9.69338e-08
8.70341e-05
1.80103e-07
-1.12533e-07
8.70364e-05
2.04298e-07
-9.0475e-08
8.70398e-05
1.90466e-07
-1.14395e-07
8.70478e-05
1.76084e-07
-9.08877e-08
8.70453e-05
2.0923e-07
-1.08047e-07
8.70521e-05
1.86631e-07
-8.84245e-08
8.70611e-05
1.73094e-07
-1.12729e-07
8.7057e-05
2.15382e-07
-7.94216e-08
8.7063e-05
1.76707e-07
-1.09987e-07
8.70747e-05
1.56114e-07
-7.96573e-08
8.70632e-05
2.3343e-07
-1.06399e-07
8.70751e-05
1.51409e-07
-7.59564e-08
8.7078e-05
1.79095e-07
-1.04647e-07
8.70699e-05
2.0328e-07
-7.61815e-08
8.70784e-05
1.51934e-07
-9.52859e-08
8.70739e-05
1.88939e-07
-8.08721e-08
8.70734e-05
1.83626e-07
-9.59918e-08
8.70704e-05
1.69513e-07
-7.37439e-08
1.74439e-07
-9.77562e-08
0.000127212
2.87304e-07
-1.0274e-07
0.000127206
2.85272e-07
-1.33025e-07
0.000127202
3.05634e-07
-1.00788e-07
0.000127201
2.56066e-07
-1.35778e-07
0.00012719
3.07593e-07
-9.81137e-08
0.000127184
2.91744e-07
-1.3378e-07
0.000127186
2.45505e-07
-1.03684e-07
0.000127168
3.55469e-07
-1.31192e-07
0.000127173
2.39626e-07
-1.0806e-07
0.000127162
3.01182e-07
-1.30535e-07
0.000127154
3.09389e-07
-1.05792e-07
0.000127156
2.6923e-07
-1.42058e-07
0.000127148
3.1193e-07
-1.05234e-07
0.000127141
3.11005e-07
-1.45257e-07
0.000127148
2.55822e-07
-1.07337e-07
0.000127136
3.40493e-07
-1.49861e-07
0.000127136
2.936e-07
-1.13025e-07
0.000127145
2.86682e-07
-1.50113e-07
0.000127132
3.46249e-07
-1.25567e-07
0.000127143
2.65801e-07
-1.42063e-07
0.00012714
3.33964e-07
-1.30262e-07
0.000127145
2.93433e-07
-1.51935e-07
0.000127148
3.31087e-07
-1.23425e-07
0.000127152
3.06746e-07
-1.55252e-07
0.000127161
2.94584e-07
-1.26432e-07
0.00012716
3.33176e-07
-1.48835e-07
0.000127169
3.04417e-07
-1.22777e-07
0.00012718
2.89891e-07
-1.5721e-07
0.000127178
3.41216e-07
-1.11477e-07
0.000127187
2.90456e-07
-1.53682e-07
0.000127202
2.67207e-07
-1.12675e-07
0.000127193
3.65355e-07
-1.49975e-07
0.000127208
2.55384e-07
-1.06337e-07
0.000127214
2.98939e-07
-1.48044e-07
0.000127208
3.21181e-07
-1.06371e-07
0.000127219
2.59536e-07
-1.34272e-07
0.000127216
3.07058e-07
-1.11832e-07
0.000127218
2.9764e-07
-1.341e-07
0.000127215
2.80589e-07
-1.01633e-07
2.86543e-07
-1.35111e-07
0.000175821
4.31561e-07
-1.33171e-07
0.000175815
4.2871e-07
-1.72146e-07
0.000175815
4.56919e-07
-1.31839e-07
0.000175811
3.89851e-07
-1.71335e-07
0.000175801
4.58333e-07
-1.27182e-07
0.000175794
4.34846e-07
-1.7141e-07
0.000175793
3.80782e-07
-1.28706e-07
0.000175775
5.14928e-07
-1.67001e-07
0.000175778
3.71177e-07
-1.35978e-07
0.000175762
4.50069e-07
-1.62611e-07
0.000175753
4.54999e-07
-1.30697e-07
0.000175752
4.11267e-07
-1.78153e-07
0.000175741
4.62071e-07
-1.28318e-07
0.00017573
4.59111e-07
-1.80202e-07
0.000175734
3.93271e-07
-1.31653e-07
0.000175719
4.99339e-07
-1.85229e-07
0.000175714
4.3565e-07
-1.37714e-07
0.000175723
4.36893e-07
-1.85387e-07
0.000175706
5.03254e-07
-1.56031e-07
0.000175715
4.0445e-07
-1.73555e-07
0.000175711
4.9494e-07
-1.6436e-07
0.000175713
4.36123e-07
-1.88014e-07
0.000175716
4.92625e-07
-1.56614e-07
0.000175719
4.53962e-07
-1.94998e-07
0.000175728
4.46809e-07
-1.62004e-07
0.000175728
4.89942e-07
-1.91619e-07
0.000175737
4.5429e-07
-1.56684e-07
0.00017575
4.41693e-07
-2.0598e-07
0.000175751
4.99426e-07
-1.44562e-07
0.000175761
4.38128e-07
-2.01887e-07
0.000175778
4.11202e-07
-1.4697e-07
0.000175774
5.32712e-07
-2.00947e-07
0.000175792
3.905e-07
-1.37647e-07
0.000175801
4.5615e-07
-1.99249e-07
0.0001758
4.70503e-07
-1.40381e-07
0.000175813
4.00796e-07
-1.77196e-07
0.000175814
4.61242e-07
-1.49564e-07
0.000175821
4.42847e-07
-1.75012e-07
0.000175819
4.25908e-07
-1.34157e-07
4.31945e-07
-1.76425e-07
0.000233531
6.11457e-07
-1.6787e-07
0.000233524
6.00419e-07
-2.07396e-07
0.000233532
6.4534e-07
-1.71304e-07
0.000233526
5.55791e-07
-2.06135e-07
0.000233519
6.381e-07
-1.53124e-07
0.000233515
6.12125e-07
-2.15657e-07
0.000233511
5.475e-07
-1.50482e-07
0.000233495
7.03036e-07
-2.00089e-07
0.0002335
5.34854e-07
-1.66439e-07
0.000233479
6.3031e-07
-1.91941e-07
0.000233468
6.28341e-07
-1.51663e-07
0.000233468
5.83408e-07
-2.12603e-07
0.000233452
6.44779e-07
-1.5036e-07
0.000233439
6.34038e-07
-2.08228e-07
0.000233439
5.59918e-07
-1.52881e-07
0.000233422
6.90889e-07
-2.18644e-07
0.000233411
6.03037e-07
-1.55036e-07
0.00023342
6.18693e-07
-2.14833e-07
0.000233398
6.92516e-07
-1.87309e-07
0.000233401
5.68054e-07
-1.90965e-07
0.000233398
6.90563e-07
-1.99897e-07
0.000233392
6.07693e-07
-2.15703e-07
0.000233398
6.83471e-07
-1.83022e-07
0.000233397
6.34339e-07
-2.33115e-07
0.000233402
6.29351e-07
-1.89393e-07
0.000233404
6.77915e-07
-2.33475e-07
0.000233409
6.35442e-07
-1.84627e-07
0.000233423
6.28751e-07
-2.55231e-07
0.000233424
6.87448e-07
-1.73079e-07
0.000233433
6.21601e-07
-2.53263e-07
0.000233451
5.85946e-07
-1.74958e-07
0.00023345
7.3705e-07
-2.59252e-07
0.00023347
5.55572e-07
-1.63752e-07
0.000233481
6.50014e-07
-2.54555e-07
0.000233486
6.56157e-07
-1.81582e-07
0.000233501
5.70043e-07
-2.1399e-07
0.000233504
6.55848e-07
-1.98718e-07
0.00023352
6.2011e-07
-2.16468e-07
0.000233517
6.04243e-07
-1.68525e-07
6.12244e-07
-2.22524e-07
0.000300641
8.34193e-07
-2.18531e-07
0.000300625
7.98528e-07
-2.29547e-07
0.000300647
8.60524e-07
-2.129e-07
0.000300639
7.64073e-07
-2.53126e-07
0.000300636
8.3854e-07
-1.6231e-07
0.000300638
8.20454e-07
-2.67864e-07
0.000300632
7.49126e-07
-1.74333e-07
0.000300618
9.1401e-07
-2.21316e-07
0.000300627
7.25916e-07
-1.97895e-07
0.000300609
8.39145e-07
-2.17875e-07
0.000300591
8.29987e-07
-1.69207e-07
0.000300599
7.74841e-07
-2.33416e-07
0.000300579
8.5701e-07
-1.74532e-07
0.000300565
8.36449e-07
-2.28772e-07
0.000300564
7.41691e-07
-1.56343e-07
0.000300551
9.12415e-07
-2.53702e-07
0.000300529
7.94238e-07
-1.62913e-07
0.000300542
8.13418e-07
-2.20127e-07
0.00030052
9.17396e-07
-2.30691e-07
0.000300508
7.49679e-07
-1.80661e-07
0.000300519
9.03183e-07
-2.27067e-07
0.000300496
8.16232e-07
-2.43035e-07
0.000300504
8.87296e-07
-1.8358e-07
0.000300505
8.41391e-07
-2.69449e-07
0.000300498
8.40574e-07
-2.02588e-07
0.000300506
8.87313e-07
-2.66354e-07
0.000300504
8.39932e-07
-1.98655e-07
0.000300515
8.50286e-07
-3.02479e-07
0.000300519
8.95936e-07
-1.85518e-07
0.000300522
8.39376e-07
-3.08173e-07
0.00030054
7.85683e-07
-1.85642e-07
0.000300539
9.73294e-07
-3.21282e-07
0.000300558
7.55599e-07
-1.86249e-07
0.000300569
8.62613e-07
-2.90564e-07
0.000300575
8.90558e-07
-2.46814e-07
0.000300593
7.6047e-07
-2.28868e-07
0.000300593
8.83808e-07
-2.52468e-07
0.000300621
8.35631e-07
-2.656e-07
0.000300614
8.13154e-07
-1.97751e-07
8.18426e-07
-2.65406e-07
0.000377012
1.08364e-06
-2.8875e-07
0.000376976
1.04505e-06
-2.59578e-07
0.000377011
1.07361e-06
-2.20311e-07
0.000377001
1.01598e-06
-3.33314e-07
0.000376994
1.06571e-06
-1.56343e-07
0.000377007
1.04214e-06
-3.10109e-07
0.000376994
9.91269e-07
-2.18866e-07
0.000376987
1.1419e-06
-2.24524e-07
0.000376985
9.43643e-07
-2.31765e-07
0.000376987
1.06371e-06
-2.29177e-07
0.000376952
1.06183e-06
-1.96504e-07
0.000376968
9.87799e-07
-2.38494e-07
0.000376953
1.07372e-06
-1.77773e-07
0.000376935
1.07374e-06
-2.65639e-07
0.000376928
9.35168e-07
-1.27013e-07
0.00037693
1.13342e-06
-2.69653e-07
0.000376898
1.02783e-06
-1.91292e-07
0.000376907
9.98617e-07
-1.62653e-07
0.00037691
1.14882e-06
-2.81833e-07
0.000376863
9.72568e-07
-1.61322e-07
0.000376902
1.08799e-06
-1.99606e-07
0.000376869
1.05507e-06
-2.83773e-07
0.000376868
1.10369e-06
-1.48243e-07
0.000376887
1.04275e-06
-2.81735e-07
0.000376861
1.07121e-06
-1.97673e-07
0.000376879
1.11033e-06
-2.85088e-07
0.000376877
1.04333e-06
-1.76418e-07
0.000376876
1.09464e-06
-3.44924e-07
0.000376894
1.10959e-06
-1.65141e-07
0.000376887
1.07367e-06
-3.5757e-07
0.000376902
1.01149e-06
-1.79885e-07
0.000376908
1.20321e-06
-3.51298e-07
0.000376917
1.00844e-06
-2.38016e-07
0.000376931
1.06824e-06
-2.63472e-07
0.000376933
1.15288e-06
-3.36323e-07
0.000376956
9.88989e-07
-2.39314e-07
0.000376944
1.12189e-06
-2.77215e-07
0.000376981
1.07508e-06
-3.22806e-07
0.000376977
1.06449e-06
-2.35443e-07
1.03627e-06
-2.78753e-07
0.00046198
1.30125e-06
-3.17743e-07
0.000461926
1.35352e-06
-3.55378e-07
0.000461961
1.29102e-06
-1.73999e-07
0.000461961
1.25551e-06
-4.11243e-07
0.00046193
1.33684e-06
-1.7731e-07
0.000461969
1.25295e-06
-3.05801e-07
0.000461929
1.27256e-06
-3.07484e-07
0.000461947
1.38277e-06
-2.09605e-07
0.000461913
1.17519e-06
-2.7437e-07
0.000461928
1.30106e-06
-2.28809e-07
0.000461892
1.29131e-06
-2.10061e-07
0.000461887
1.24495e-06
-2.84968e-07
0.000461883
1.29337e-06
-1.32438e-07
0.000461865
1.29752e-06
-3.06227e-07
0.000461836
1.17872e-06
-1.19265e-07
0.000461849
1.32381e-06
-2.06768e-07
0.000461829
1.28031e-06
-2.73674e-07
0.000461794
1.23248e-06
-7.38592e-08
0.000461853
1.30896e-06
-2.63742e-07
0.000461767
1.24692e-06
-1.84926e-07
0.000461813
1.26056e-06
-9.90241e-08
0.000461804
1.27319e-06
-3.0728e-07
0.000461772
1.34102e-06
-9.5448e-08
0.00046182
1.21745e-06
-2.48092e-07
0.000461785
1.2841e-06
-1.40622e-07
0.000461797
1.33522e-06
-2.95239e-07
0.00046182
1.23433e-06
-1.01661e-07
0.000461796
1.32388e-06
-3.53688e-07
0.00046183
1.3185e-06
-1.11008e-07
0.000461833
1.26041e-06
-3.39216e-07
0.000461829
1.27917e-06
-1.97186e-07
0.000461862
1.38264e-06
-2.78742e-07
0.00046186
1.273e-06
-3.24596e-07
0.000461879
1.28011e-06
-1.81268e-07
0.000461884
1.37305e-06
-3.69806e-07
0.000461913
1.24402e-06
-2.77828e-07
0.000461898
1.37955e-06
-2.73613e-07
0.000461927
1.29699e-06
-3.37983e-07
0.000461948
1.32425e-06
-2.92297e-07
1.28631e-06
-2.69734e-07
0.000554335
1.45251e-06
-2.19763e-07
0.000554306
1.63438e-06
-4.78533e-07
0.000554308
1.58044e-06
-1.74229e-07
0.000554354
1.43497e-06
-3.98828e-07
0.000554271
1.60227e-06
-2.40345e-07
0.000554356
1.41917e-06
-2.16403e-07
0.000554293
1.545e-06
-4.13852e-07
0.000554331
1.66884e-06
-2.33629e-07
0.000554293
1.38581e-06
-2.90176e-07
0.000554279
1.53247e-06
-2.55943e-07
0.000554268
1.48653e-06
-1.493e-07
0.000554241
1.48686e-06
-3.74821e-07
0.000554223
1.5858e-06
-1.42251e-07
0.000554209
1.47592e-06
-2.78135e-07
0.000554163
1.40312e-06
-1.78161e-07
0.000554134
1.5302e-06
-7.98658e-08
0.000554166
1.46278e-06
-3.38412e-07
0.000554058
1.57067e-06
-9.73541e-08
0.000554142
1.43373e-06
-1.54205e-07
0.000554057
1.4775e-06
-2.1687e-07
0.000554062
1.44999e-06
2.55174e-08
0.000554093
1.45575e-06
-2.9457e-07
0.000554029
1.61383e-06
-4.5751e-08
0.000554078
1.37185e-06
-2.00773e-07
0.000554059
1.44958e-06
-1.92089e-09
0.000554045
1.5063e-06
-2.443e-07
0.000554094
1.43164e-06
-2.24294e-08
0.000554065
1.51714e-06
-2.86009e-07
0.000554075
1.54075e-06
-7.40508e-08
0.000554117
1.33885e-06
-1.58455e-07
0.000554089
1.5068e-06
-2.15609e-07
0.000554141
1.5513e-06
-1.24187e-07
0.000554149
1.48357e-06
-3.58404e-07
0.000554163
1.49373e-06
-1.04851e-07
0.000554184
1.5079e-06
-2.6641e-07
0.000554226
1.42797e-06
-2.56145e-07
0.00055424
1.62606e-06
-2.74394e-07
0.000554245
1.54049e-06
-3.15955e-07
0.000554311
1.51094e-06
-2.88369e-07
1.53305e-06
-2.76412e-07
0.000652441
1.49579e-06
4.55582e-09
0.000652504
1.69873e-06
-3.77819e-07
0.000652474
1.87743e-06
-2.78881e-07
0.000652585
1.66146e-06
-3.72053e-07
0.000652458
1.83325e-06
-3.14757e-07
0.00065255
1.47995e-06
-3.49169e-08
0.000652523
1.64172e-06
-3.41352e-07
0.000652566
1.94638e-06
-3.29428e-07
0.000652581
1.66243e-06
-3.26152e-07
0.000652533
1.72966e-06
-3.15666e-07
0.000652534
1.59385e-06
-1.67521e-08
0.000652519
1.57216e-06
-3.07008e-07
0.000652516
1.86619e-06
-2.68381e-07
0.000652478
1.76255e-06
-2.89283e-07
0.000652451
1.54386e-06
-2.51922e-07
0.000652341
1.67897e-06
4.98913e-08
0.000652411
1.47972e-06
-2.3309e-07
0.000652284
1.90096e-06
-2.48018e-07
0.000652321
1.68435e-06
-1.40427e-07
0.000652251
1.64911e-06
-2.55887e-07
0.000652193
1.58255e-06
1.82886e-07
0.000652247
1.50341e-06
-2.01669e-07
0.000652184
1.91726e-06
-4.00035e-08
0.000652195
1.60781e-06
-2.29168e-07
0.000652173
1.62845e-06
9.45196e-08
0.000652137
1.54119e-06
-2.41852e-08
0.000652179
1.53076e-06
8.04527e-08
0.000652184
1.68796e-06
-1.47479e-07
0.000652144
1.83438e-06
-1.46826e-07
0.000652175
1.42415e-06
7.90628e-08
0.000652133
1.54908e-06
-7.21631e-08
0.00065218
1.61586e-06
1.01074e-07
0.000652213
1.64106e-06
-2.96371e-07
0.000652206
1.76566e-06
-9.96384e-08
0.000652223
1.60361e-06
-9.93767e-08
0.00065225
1.45968e-06
-4.83546e-08
0.000652332
1.67985e-06
-1.13645e-07
0.000652343
1.77459e-06
-3.17755e-07
0.000652445
1.72825e-06
-2.4188e-07
1.72472e-06
-2.79265e-07
0.00075469
1.59863e-06
1.48099e-07
0.000754787
1.47276e-06
9.04868e-08
0.000754777
1.82713e-06
-1.25782e-07
0.000754971
1.84043e-06
-3.88281e-07
0.000754889
2.19317e-06
-5.07493e-07
0.000754895
1.6005e-06
4.74504e-08
0.000754882
1.47583e-06
3.61473e-08
0.000754931
1.88299e-06
-1.77437e-07
0.000755056
1.8972e-06
-4.00976e-07
0.000755036
2.07223e-06
-4.96468e-07
0.000755028
1.73047e-06
2.69066e-08
0.00075499
1.43563e-06
4.06551e-08
0.00075506
1.78224e-06
-1.53557e-07
0.000755062
2.04782e-06
-3.95427e-07
0.00075509
1.82627e-06
-4.4275e-07
0.000754921
1.84462e-06
6.4629e-08
0.000754946
1.26287e-06
1.22168e-07
0.000754873
1.84829e-06
-1.8924e-07
0.0007549
1.94702e-06
-2.66928e-07
0.000754847
1.94618e-06
-4.89814e-07
0.0007547
1.77979e-06
2.11653e-07
0.000754703
1.30532e-06
9.00495e-08
0.000754676
1.91379e-06
8.89075e-08
0.000754717
1.84065e-06
-3.20659e-07
0.000754677
2.00577e-06
-1.26483e-07
0.000754578
1.65455e-06
1.69966e-07
0.000754552
1.39142e-06
3.43458e-07
0.0007546
1.59034e-06
1.75545e-07
0.000754601
2.07995e-06
-2.65535e-07
0.000754608
1.74411e-06
3.31631e-08
0.000754495
1.63288e-06
9.87233e-08
0.000754456
1.46146e-06
4.89646e-07
0.000754513
1.49114e-06
1.50075e-08
0.000754522
2.01444e-06
-1.61426e-07
0.000754523
1.88222e-06
-1.27374e-07
0.00075445
1.5335e-06
1.44762e-07
0.000754493
1.48031e-06
3.56962e-07
0.000754549
1.66844e-06
-6.44791e-08
0.000754704
1.91482e-06
-2.19688e-07
2.0389e-06
-3.70982e-07
0.000859995
1.96848e-06
-5.4312e-08
0.000860011
1.40241e-06
5.16131e-07
0.000859936
1.43241e-06
5.01873e-07
0.000860146
1.54098e-06
-8.42294e-08
0.000860256
2.3848e-06
-7.43211e-07
0.000860268
1.96673e-06
-2.13767e-07
0.000860186
1.44898e-06
3.5073e-07
0.000860106
1.49337e-06
4.05158e-07
0.000860273
1.64242e-06
-1.7026e-07
0.000860397
2.28909e-06
-7.38642e-07
0.000860477
2.08845e-06
-2.32224e-07
0.000860368
1.45416e-06
3.31946e-07
0.000860383
1.365e-06
4.13101e-07
0.000860444
1.83742e-06
-2.05784e-07
0.000860632
2.01208e-06
-7.14474e-07
0.000860558
2.22444e-06
-2.14491e-07
0.000860485
1.20561e-06
4.469e-07
0.000860372
1.403e-06
3.44704e-07
0.000860422
1.72157e-06
-1.26997e-07
0.000860514
2.09154e-06
-8.25844e-07
0.000860394
2.18593e-06
-1.47608e-07
0.000860271
1.24187e-06
3.31801e-07
0.000860138
1.54453e-06
5.2064e-07
0.000860223
1.60798e-06
-1.40209e-07
0.000860314
2.24158e-06
-5.4871e-07
0.000860252
2.04378e-06
-7.21598e-08
0.000860095
1.3933e-06
5.34068e-07
0.00086002
1.21377e-06
7.50029e-07
0.000860061
1.84514e-06
-7.26445e-08
0.000860195
1.97233e-06
-2.48439e-07
0.000860144
1.98382e-06
-9.83634e-08
0.000859958
1.47468e-06
7.70294e-07
0.000859878
1.05138e-06
6.55454e-07
0.000859897
1.792e-06
5.40903e-08
0.000859981
2.09314e-06
-3.57201e-07
0.000859896
1.86907e-06
-4.12631e-08
0.000859765
1.46188e-06
7.234e-07
0.000859689
1.25892e-06
5.80509e-07
0.000859802
1.66256e-06
7.18597e-08
2.23084e-06
-5.28614e-07
0.000967834
2.1312e-06
-5.3995e-07
0.000967881
1.58623e-06
4.21125e-07
0.000967707
1.26331e-06
1.15653e-06
0.000967743
1.01094e-06
7.38565e-07
0.000967941
2.02541e-06
-6.14491e-07
0.000968112
2.08578e-06
-6.99296e-07
0.000968104
1.62845e-06
1.83522e-07
0.000967882
1.30565e-06
1.01485e-06
0.000967868
1.12518e-06
5.77229e-07
0.000968012
1.969e-06
-6.69709e-07
0.000968263
2.20345e-06
-7.10416e-07
0.000968242
1.68315e-06
1.62703e-07
0.000968152
1.17023e-06
1.02697e-06
0.000968088
1.34399e-06
5.39935e-07
0.000968326
1.67759e-06
-6.85827e-07
0.000968476
2.36873e-06
-7.35255e-07
0.000968473
1.40109e-06
3.16866e-07
0.000968294
1.16279e-06
1.0034e-06
0.000968216
1.20555e-06
5.9132e-07
0.000968392
1.69979e-06
-7.97047e-07
0.000968476
2.31285e-06
-7.43429e-07
0.000968419
1.38767e-06
1.31039e-07
0.000968144
1.33262e-06
1.00375e-06
0.00096807
1.09996e-06
5.36719e-07
0.000968236
1.90997e-06
-6.41969e-07
0.000968378
2.17676e-06
-6.57287e-07
0.000968295
1.58996e-06
2.55744e-07
0.00096807
1.04168e-06
1.26515e-06
0.000967945
1.34645e-06
5.85293e-07
0.000968109
1.67875e-06
-2.85078e-07
0.000968282
2.10008e-06
-6.20825e-07
0.000968186
1.70994e-06
5.54091e-07
0.000967954
8.38391e-07
1.24302e-06
0.000967825
1.30356e-06
7.38602e-07
0.000967939
1.79629e-06
-3.61083e-07
0.000968007
1.99336e-06
-5.6981e-07
0.000967882
1.67014e-06
5.57771e-07
0.000967636
1.07409e-06
1.18756e-06
0.0009675
1.19209e-06
7.89328e-07
1.9274e-06
-4.41221e-07
0.00107871
1.83645e-06
-7.55895e-07
0.00107885
1.52714e-06
-1.1865e-07
0.00107873
1.25943e-06
1.1616e-06
0.00107862
7.38513e-07
1.50102e-06
0.0010787
1.49833e-06
7.42297e-08
0.0010789
1.73698e-06
-8.14192e-07
0.00107904
1.5366e-06
-3.42719e-07
0.00107888
1.25805e-06
1.03289e-06
0.00107873
8.20622e-07
1.33006e-06
0.00107872
1.46264e-06
-4.04376e-08
0.00107897
1.84716e-06
-8.51904e-07
0.00107908
1.64295e-06
-3.61523e-07
0.00107904
1.14071e-06
1.03844e-06
0.00107887
1.07025e-06
1.31605e-06
0.00107896
1.16348e-06
-6.64888e-08
0.00107917
2.03592e-06
-9.29481e-07
0.0010793
1.3631e-06
-2.28918e-07
0.00107921
1.1204e-06
1.08211e-06
0.00107903
9.21146e-07
1.37684e-06
0.0010791
1.147e-06
-1.38501e-07
0.00107927
1.96063e-06
-9.35155e-07
0.00107938
1.28399e-06
-4.01048e-07
0.00107919
1.25544e-06
9.78493e-07
0.00107897
7.96399e-07
1.25281e-06
0.00107902
1.38532e-06
-9.97132e-08
0.00107923
1.82488e-06
-8.95867e-07
0.00107933
1.49598e-06
-3.70576e-07
0.00107919
1.00425e-06
1.19285e-06
0.00107894
1.04045e-06
1.23599e-06
0.00107895
1.209e-06
2.11959e-07
0.00107917
1.73576e-06
-8.6411e-07
0.00107927
1.67361e-06
-5.39799e-08
0.00107911
7.91247e-07
1.20923e-06
0.00107888
1.01712e-06
1.40933e-06
0.00107889
1.31295e-06
1.78333e-07
0.00107902
1.65446e-06
-8.27934e-07
0.00107904
1.61413e-06
-3.15894e-08
0.00107886
1.02612e-06
1.1649e-06
0.00107858
9.35741e-07
1.45696e-06
1.45757e-06
1.33242e-07
0.00119441
1.38213e-06
-4.45015e-07
0.00119452
1.17227e-06
-3.98191e-07
0.00119449
1.12064e-06
6.85007e-07
0.0011944
6.15894e-07
1.5344e-06
0.0011944
1.10574e-06
6.66244e-07
0.00119448
1.25467e-06
-3.92381e-07
0.00119463
1.1532e-06
-5.5229e-07
0.00119458
1.08311e-06
6.14059e-07
0.00119449
6.53176e-07
1.42715e-06
0.00119439
1.06953e-06
5.58555e-07
0.00119451
1.33439e-06
-4.53434e-07
0.0011946
1.29728e-06
-5.68194e-07
0.00119464
9.84012e-07
6.07328e-07
0.00119453
9.40375e-07
1.42189e-06
0.00119451
7.79434e-07
5.50431e-07
0.00119462
1.54251e-06
-5.48848e-07
0.00119473
1.03476e-06
-4.94317e-07
0.00119475
9.76866e-07
6.5656e-07
0.00119463
8.05887e-07
1.49755e-06
0.00119462
7.50392e-07
4.99734e-07
0.0011947
1.47718e-06
-5.35196e-07
0.00119484
9.17219e-07
-6.01162e-07
0.0011948
1.06872e-06
5.57558e-07
0.00119463
6.40029e-07
1.35851e-06
0.0011946
9.82956e-07
4.74643e-07
0.0011947
1.33618e-06
-5.29852e-07
0.00119483
1.10932e-06
-6.46958e-07
0.00119483
8.42536e-07
7.12815e-07
0.00119466
8.55031e-07
1.27237e-06
0.00119458
8.54241e-07
7.13012e-07
0.00119468
1.21671e-06
-5.58068e-07
0.00119481
1.33368e-06
-3.75652e-07
0.00119479
6.32701e-07
7.26399e-07
0.00119464
8.64323e-07
1.4207e-06
0.00119458
9.39365e-07
7.1656e-07
0.00119464
1.167e-06
-5.34705e-07
0.00119471
1.26325e-06
-3.41613e-07
0.00119467
8.39436e-07
6.87874e-07
0.00119447
7.95251e-07
1.46654e-06
1.08356e-06
6.69588e-07
0.00131741
9.66717e-07
-5.02826e-08
0.00131745
7.58688e-07
-2.51144e-07
0.00131746
8.72685e-07
3.17413e-07
0.00131743
4.83688e-07
1.08431e-06
0.00131743
8.05147e-07
7.21319e-07
0.00131743
8.42664e-07
5.12536e-08
0.00131749
7.31421e-07
-3.46064e-07
0.00131749
8.23123e-07
3.0095e-07
0.00131748
4.87522e-07
1.05449e-06
0.00131741
7.72441e-07
6.65475e-07
0.00131744
8.8313e-07
-4.16053e-09
0.00131746
8.94634e-07
-3.55674e-07
0.00131751
7.27582e-07
2.92271e-07
0.00131748
8.03829e-07
1.03387e-06
0.00131746
5.02362e-07
6.75963e-07
0.00131748
1.11065e-06
-9.04208e-08
0.00131751
6.62162e-07
-3.19981e-07
0.00131755
7.39625e-07
2.98862e-07
0.00131751
7.00757e-07
1.10678e-06
0.00131751
4.71899e-07
6.28125e-07
0.00131752
1.07138e-06
-6.73037e-08
0.00131757
5.3604e-07
-3.75957e-07
0.0013176
8.13366e-07
2.45173e-07
0.00131753
5.02333e-07
1.00026e-06
0.00131751
6.80203e-07
5.85431e-07
0.00131753
9.28243e-07
-7.04678e-08
0.00131758
6.97435e-07
-4.65655e-07
0.00131762
6.08722e-07
3.62271e-07
0.00131757
6.73784e-07
8.66038e-07
0.00131751
5.93834e-07
7.67791e-07
0.00131752
7.66272e-07
-1.58163e-07
0.00131758
9.47246e-07
-2.64319e-07
0.0013176
3.99472e-07
3.5034e-07
0.00131756
7.1511e-07
9.6387e-07
0.00131753
6.59667e-07
7.90577e-07
0.00131753
7.44553e-07
-1.42037e-07
0.00131754
8.7145e-07
-2.18379e-07
0.00131757
5.67278e-07
3.21689e-07
0.0013175
6.44054e-07
1.01945e-06
7.74443e-07
7.42121e-07
0.00145041
6.50068e-07
1.33048e-07
0.00145041
4.31495e-07
-1.1292e-08
0.00145042
6.34584e-07
1.81105e-07
0.00145042
3.38364e-07
6.35983e-07
0.00145044
5.48763e-07
4.78257e-07
0.0014504
5.42689e-07
2.39745e-07
0.00145042
4.08248e-07
-7.61372e-08
0.00145041
5.91492e-07
1.93713e-07
0.00145044
3.26674e-07
6.52527e-07
0.00145041
5.34767e-07
4.64482e-07
0.00145041
5.42624e-07
2.06554e-07
0.00145039
5.78779e-07
-8.15657e-08
0.00145042
4.84164e-07
1.95139e-07
0.00145044
6.47173e-07
6.13724e-07
0.00145042
2.85189e-07
4.87947e-07
0.00145042
7.79578e-07
1.36877e-07
0.0014504
3.86676e-07
-5.34705e-08
0.00145044
5.09944e-07
1.54905e-07
0.00145044
5.85357e-07
6.77498e-07
0.00145044
2.53714e-07
4.3528e-07
0.00145043
7.71867e-07
1.5736e-07
0.00145042
2.65129e-07
-8.39091e-08
0.00145046
5.88706e-07
1.34722e-07
0.00145044
3.76875e-07
6.07196e-07
0.00145045
4.32942e-07
3.93908e-07
0.00145044
6.36684e-07
1.55662e-07
0.00145043
3.98434e-07
-1.96513e-07
0.00145047
4.10231e-07
2.37184e-07
0.00145047
5.01829e-07
4.47939e-07
0.00145045
3.85686e-07
5.50933e-07
0.00145043
4.3684e-07
3.41148e-08
0.00145044
6.5373e-07
-5.15312e-08
0.00145046
1.99306e-07
2.05529e-07
0.00145047
5.66828e-07
4.99376e-07
0.00145046
4.32554e-07
5.81114e-07
0.00145044
4.34554e-07
4.38692e-08
0.00145043
5.82725e-07
3.93596e-09
0.00145046
3.29501e-07
1.82658e-07
0.00145044
4.95723e-07
5.69344e-07
5.02247e-07
5.33817e-07
0.00159576
4.35286e-07
1.49025e-07
0.00159575
2.08895e-07
1.18705e-07
0.00159577
4.52087e-07
1.3437e-07
0.00159577
2.17772e-07
3.63304e-07
0.0015958
3.44206e-07
2.46896e-07
0.00159575
3.44601e-07
2.56611e-07
0.00159576
1.92822e-07
6.33615e-08
0.00159575
4.21681e-07
1.55898e-07
0.00159578
1.96426e-07
3.96847e-07
0.00159576
3.55342e-07
2.49885e-07
0.00159576
3.09806e-07
2.39153e-07
0.00159574
3.65459e-07
5.68475e-08
0.00159575
2.99352e-07
1.68715e-07
0.00159578
4.99365e-07
3.41931e-07
0.00159576
1.301e-07
2.84437e-07
0.00159577
5.37869e-07
1.74734e-07
0.00159573
2.17194e-07
9.5094e-08
0.00159577
3.26663e-07
9.746e-08
0.00159577
4.80196e-07
4.05689e-07
0.00159577
9.49677e-08
2.25516e-07
0.00159578
5.62193e-07
1.93925e-07
0.00159573
1.06236e-07
7.22157e-08
0.00159578
4.17446e-07
9.28232e-08
0.00159577
2.8571e-07
3.53889e-07
0.00159578
2.43434e-07
1.86707e-07
0.00159578
4.39434e-07
2.03244e-07
0.00159574
2.12378e-07
-5.37073e-08
0.00159578
2.70751e-07
1.96022e-07
0.00159579
3.68578e-07
1.83759e-07
0.00159579
2.34214e-07
3.36184e-07
0.00159576
2.18789e-07
6.78815e-08
0.00159576
4.65002e-07
5.78974e-08
0.00159576
5.84153e-08
1.62301e-07
0.00159579
4.49587e-07
2.02678e-07
0.00159579
2.60332e-07
3.73546e-07
0.00159577
2.28862e-07
6.6949e-08
0.00159575
3.98846e-07
1.21565e-07
0.00159578
1.57357e-07
1.36971e-07
0.00159577
3.87703e-07
2.84665e-07
2.79802e-07
3.27429e-07
0.00175538
3.07301e-07
1.07472e-07
0.00175537
6.95408e-08
1.43975e-07
0.0017554
3.19721e-07
9.85257e-08
0.00175538
1.36785e-07
2.26025e-07
0.00175542
1.92945e-07
1.12823e-07
0.00175538
2.2994e-07
2.19055e-07
0.00175539
5.81703e-08
8.92203e-08
0.00175538
3.05591e-07
1.17643e-07
0.00175541
1.01983e-07
2.61694e-07
0.00175538
2.32825e-07
1.12967e-07
0.00175539
1.62437e-07
2.11092e-07
0.00175537
2.30007e-07
7.71835e-08
0.00175537
1.7542e-07
1.41618e-07
0.00175541
3.68808e-07
1.95476e-07
0.00175537
4.03058e-08
1.59976e-07
0.0017554
3.6362e-07
1.41721e-07
0.00175536
1.27848e-07
1.30344e-07
0.00175539
1.88319e-07
5.2602e-08
0.0017554