/*--------------------------------*- C++ -*----------------------------------*\
  =========                 |
  \\      /  F ield         | OpenFOAM: The Open Source CFD Toolbox
   \\    /   O peration     | Website:  https://openfoam.org
    \\  /    A nd           | Version:  10
     \\/     M anipulation  |
\*---------------------------------------------------------------------------*/
FoamFile
{
    format      ascii;
    class       volScalarField;
    location    "20";
    object      p;
}
// * * * * * * * * * * * * * * * * * * * * * * * * * * * * * * * * * * * * * //

dimensions      [0 2 -2 0 0 0 0];

internalField   nonuniform List<scalar> 
25600
(
-0.0546433
-0.0436915
-0.0209008
-0.00159888
0.0062999
-0.0258365
-0.0610622
-0.0331282
-0.0078878
0.000927188
-0.00927629
-0.0133023
-0.0211293
-0.0250361
0.00654293
0.0083939
0.0229353
0.0226631
-0.0308957
-0.00831611
0.00359193
-0.00546182
-0.00350168
-0.0012418
-0.0290698
-0.0413921
-0.0148052
0.0087701
-0.0227388
-0.0480953
-0.0175325
0.0340166
-0.0221794
-0.0691144
-0.0376897
-0.0381329
-0.0514773
-0.00686671
-0.0112628
-0.0576796
-0.0830725
-0.0733578
0.0129526
0.0144131
-0.00754657
-0.0111662
0.000753098
0.00971022
-0.0138839
-0.0496502
-0.065215
-0.0238056
-0.00444561
-0.0202168
-0.0130479
-0.0134897
-0.0301398
0.00221692
-0.0170438
-0.0453653
-0.0324559
-0.0170583
-0.0351447
-0.0555139
-0.0188068
-0.0129161
0.00416517
0.0225486
-0.0306095
-0.0226255
-0.0176738
-0.0460042
-0.0614711
-0.0545422
-0.0301051
-0.0129047
0.00565299
-0.0076907
-0.0144276
0.0212896
-0.034331
-0.0355011
-0.0275601
-0.0534748
-0.0337181
-0.00412481
-0.0257787
-0.0373844
-0.0126826
-0.014489
-0.0136819
0.00203321
-0.0263693
-0.0543359
-0.0311677
-0.0227901
-0.0276729
-0.0168376
-0.0215747
-0.0260179
-0.0432157
-0.0209083
0.00108143
0.0248861
0.00446096
-0.0308343
-0.0274695
-0.0337122
-0.0335028
-4.06629e-05
-0.0170134
-0.0537631
-0.0357559
-0.00724174
0.00235273
0.035982
-0.00505514
-0.0329127
-0.000742653
-0.0216737
-0.005648
-0.000822771
-0.0139919
-0.0162407
0.0254558
0.00934676
-0.0201322
-0.0122771
-0.0426929
-0.0257278
-0.00489355
-0.0301675
-0.0552197
-0.0209754
0.0232131
-0.0091822
-0.0375319
0.00184333
0.0111073
-0.0260569
-0.0388187
-0.0443644
-0.0243903
-0.00430415
-0.0190507
-0.00707549
-0.0134593
-0.0185386
-0.00374531
-0.0230529
-0.052369
-0.0426544
-0.0108194
-0.00960599
-0.0134808
-0.040097
-0.0396193
0.00515033
-0.0177926
-0.0448544
-0.00332296
-0.0159127
-0.0244871
-0.0151276
0.000128946
-0.00379346
-0.0136243
-0.0366526
-0.0292131
-0.0179883
-0.0267818
-0.0298135
-0.0323033
0.00535703
-0.0220312
-0.0407017
-0.0136505
0.00386485
-0.0114806
-0.04078
-0.0447424
-0.0467549
-0.0133342
0.00833684
-0.0211256
-0.0272831
-0.0228422
-0.0201685
-0.00788162
-0.0241103
-0.0584507
-0.0456285
-0.0152748
-0.0171818
-0.0159202
-0.0145035
-0.0012634
-0.00697143
-0.0407125
0.00872119
-0.0363203
0.0130132
-0.0156276
-0.0381047
-0.0141266
-0.00440174
-0.0186453
-0.0414735
0.0088752
0.00979287
-0.0388113
-0.027653
-0.00539435
-0.0159119
-0.0222124
0.0152668
-0.0215694
-0.0350676
-0.031348
-0.0356153
-0.0459151
-0.0371128
0.0178312
-0.00863107
-0.0353167
0.00778354
0.0011515
-0.00166449
-0.00663336
-0.0141648
-0.0458298
-0.0470705
-0.000765764
-0.0186582
-0.0222013
-0.00408578
-0.0039727
-0.0331984
-0.0323201
-0.00801125
-0.014606
-0.00053127
-0.0276029
-0.0114854
-0.000591168
-0.0255071
-0.0357423
-0.00707017
0.00832723
-0.0273193
-0.0277825
-0.0208606
-0.0405959
-0.0458354
-0.0224459
-0.0301537
-0.0266826
0.000752402
-0.0374174
-0.0328284
-0.02483
-0.0268612
-0.00151218
-0.0104459
0.0231603
0.00944834
-0.0092099
0.000184923
-0.0142701
0.0272471
-0.032638
-0.0606263
-0.0110461
-0.012949
-0.0296081
-0.0281406
-0.0220627
-0.0381816
-0.0138306
-0.0032187
-0.0340133
-0.00880086
-0.0197172
-0.0364083
-0.0025153
-0.00307251
-0.0271811
-0.0151541
-0.0204491
-0.0278759
-0.0249703
-0.0422015
-0.0457921
-0.0438179
-0.0298115
-0.0256133
-0.000140146
-0.0341018
-0.050703
-0.00673583
-0.00685833
-0.0435321
-0.019256
-0.000624918
0.00354942
-0.0207679
-0.040915
-0.0241084
-0.0187708
-0.0175464
-0.0273467
-0.00468661
-6.26056e-05
-0.00899791
-0.00630394
-0.00225392
-0.0348289
-0.0338184
-0.0172051
-0.0351475
-0.0271352
0.00679672
-0.00893187
-0.0169117
0.00296568
-0.00356946
-0.0274378
-0.0181814
0.00244481
-0.0204333
-0.0430948
-0.0253527
-0.0108371
-0.0138992
-0.0156791
-0.004777
-0.0273749
-0.0441829
-0.0338537
0.00298274
-0.00117969
-0.04759
-0.014422
-0.0263044
-0.0101226
-0.00851371
-0.0106572
-0.0445103
-0.0566095
-0.0293728
-0.0358023
-0.0220676
-0.00794549
-0.0126172
0.000999536
-0.0230382
-0.0349895
-0.0353994
-0.0397814
-0.0507059
-0.0221717
-0.0105561
-0.0250145
-0.0169332
-0.00593925
-0.0143019
-0.0223323
-0.000919463
0.000104958
-0.0270637
-0.0237845
0.00741916
0.000771801
-0.0181647
-0.0258522
-0.00665943
-0.00736091
-0.0268659
-0.0403416
-0.0100904
-0.0114621
-0.0321788
-0.0223658
-0.023083
-0.000921227
0.00711943
-0.00833737
-0.0495082
-0.0511112
-0.0306176
-0.0157751
-0.00189898
9.27734e-05
-0.0150233
-0.0203937
-0.0206385
-0.0245399
-0.0400397
-0.0316743
-0.0229725
-0.00924225
-0.00821386
-0.0285561
-0.0259143
-0.0183382
-0.0241899
-0.00377733
0.00626772
-0.00397881
-0.0282697
-0.0307779
0.00679394
0.0121917
-0.025504
-0.0308361
-0.0158989
-0.00722928
-0.0240605
-0.0337161
-0.0353965
-0.0407423
-0.0156145
-0.00641147
-0.0168762
-0.003258
-0.014529
-0.0292681
0.00390242
-0.0147188
-0.0381413
0.0114621
0.0268913
-0.00824625
-0.025977
-0.011281
-0.00233682
-0.0258654
-0.0231594
-0.00967149
-0.0198106
0.0051973
-0.0143399
-0.0284354
-0.0341391
-0.0330077
-0.0212744
-0.00393838
-0.0249705
-0.0173962
-0.0219754
-0.0405762
-0.0202429
-0.0198703
-0.040757
-0.0153886
-0.000197438
-0.000687327
-0.0183643
-0.0366145
-0.0267714
-0.0330523
0.00271655
0.0120162
-0.0271304
-0.0231227
-0.0309095
-0.0236399
-0.01417
-0.0610608
-0.0302012
0.0183001
-0.00946698
-0.0448216
-0.0401098
-0.00415864
-0.0105946
-0.043439
-0.00153631
-0.00695907
-0.0165201
-0.0141711
-0.016205
-0.023211
-0.0470348
-0.0359117
-0.01733
-0.013838
-0.0159173
-0.0132947
-0.0323029
-0.0551687
-0.0299248
-0.0120977
-0.0402612
-0.0253798
0.00979673
0.00811968
-0.0234634
-0.0253344
-0.00660455
-0.0357813
-0.0301936
0.0289118
0.0350096
-0.00678977
-0.0342213
-0.0261789
-0.0269446
-0.0456428
-0.0290505
0.00364753
-0.0238088
-0.040499
-0.0322906
-0.0215746
-0.0116888
-0.00443065
-0.00884089
-0.0376515
-0.0469098
-0.0151143
-0.00798111
-0.0252183
-0.0363725
-0.0249686
-0.0195763
-0.00333078
-0.00975493
-0.0278481
-0.0308433
-0.0351902
-0.0174232
-0.0145432
-0.0392773
-0.00783937
0.0314297
0.00336089
-0.0191162
-0.0215898
-0.0250895
-0.0238762
0.0132189
0.0338816
0.0150388
-0.0269941
-0.0397675
-0.0283322
-0.0126373
-0.0301244
-0.0319452
0.00512185
-0.0144688
-0.0296159
-0.0260278
-0.0111335
0.0010569
-0.028887
-0.0287507
-0.0545311
-0.0664495
-0.00543788
-0.0020252
-0.0227333
-0.0188344
-0.0176036
-0.0138296
0.00839936
-0.010978
-0.0183422
-0.00215411
-0.0334168
-0.0112371
-0.00280832
-0.0342018
-0.00271978
0.0372248
-0.00142948
-0.0224753
-0.0220352
-0.018482
-0.013085
0.00224689
0.00135985
-0.00887811
-0.0283472
-0.0256706
-0.0252157
-0.0129568
-0.0281679
-0.0281976
0.002037
-0.0209995
-0.0268439
-0.0166093
-0.00934741
0.000111992
-0.0156894
-0.0285138
-0.0362893
-0.0345834
0.00338818
0.0067766
-0.0172234
-0.00986277
-0.00637937
-0.0128898
0.00327055
-0.0077943
-0.0179978
0.000700396
-0.0401246
-0.0166124
0.00565331
-0.0289185
-0.0079949
0.0312961
-0.0019175
-0.0252386
-0.023132
-0.0270257
-0.0129907
0.00553191
0.0017734
-0.00823194
-0.0261771
-0.00800918
-0.0135001
-0.0147305
-0.0218135
-0.0185038
0.000377686
-0.0212644
-0.0169404
-0.00574372
-0.00977324
-0.00170282
-0.021012
-0.0307365
-0.0188606
-0.0119477
0.00572041
0.0111848
-0.0109877
0.000441677
0.00772268
-0.00109146
0.0025304
-0.00846609
-0.0145565
-0.00768119
-0.0520847
-0.0275798
0.000288345
-0.0316001
-0.000735932
0.029424
-0.00294391
-0.025648
-0.0317162
-0.0222837
-0.00675398
0.00576918
0.00281857
-0.0153076
-0.0279204
-0.00994325
-0.0100037
-0.00892949
-0.0198808
-0.0171024
-0.0148406
-0.0252833
-0.0052751
0.0106489
-0.00910575
-0.0197488
-0.0266705
-0.0278668
-0.0231262
-0.00356915
0.0115479
0.0195333
-0.0169067
-0.0140726
0.0157523
0.000587217
-0.00247074
-0.00940315
-0.00833278
-0.0277426
-0.0624024
-0.0359083
-0.0021367
-0.0335777
0.00128329
0.0217696
-0.0145001
-0.0346885
-0.0490885
-0.0226067
-0.0017479
0.0142524
0.00844808
-0.0377881
-0.0445637
-0.0145639
-0.0127571
-0.00521939
-0.0208575
-0.0177595
-0.0150331
-0.0270636
-0.00387331
0.013378
-0.0162802
-0.0268027
-0.0221115
-0.0255228
-0.0252165
-9.93212e-05
0.0153669
0.0165912
-0.0302631
-0.0172001
0.0123863
-0.00537173
-0.00530972
-0.0178996
-0.0187624
-0.0616936
-0.069558
-0.0419138
-0.00992261
-0.029948
-0.00514955
0.00439753
-0.00514248
-0.0255063
-0.0445342
-0.032335
-0.00354573
0.0247087
0.00515261
-0.0743627
-0.0653523
-0.0221161
-0.0115449
-0.000862346
-0.017339
-0.0153433
-0.014789
-0.021902
-0.00210241
0.015019
-0.0125162
-0.0227972
-0.0188046
-0.0378804
-0.0269734
0.00456985
0.0151737
0.0145916
-0.0460049
-0.0279663
0.0175987
-0.00584121
-0.0114736
-0.0210191
-0.0198471
-0.0834426
-0.0704744
-0.0406177
-0.0184934
-0.0366358
-0.0057999
0.000849606
0.00591403
-0.0225721
-0.0473918
-0.0340381
0.00157149
0.0345747
-0.00747281
-0.103272
-0.0742884
-0.0323018
-0.0151104
-0.00778388
-0.0166515
-0.0139805
-0.0182941
-0.021201
0.00936466
0.0183903
-0.0122166
-0.0155128
-0.0135119
-0.0485999
-0.0329463
0.00376118
0.027406
0.00601188
-0.0610171
-0.0326905
0.0158241
-0.00573074
-0.0130633
-0.0316214
-0.0194691
-0.0611869
-0.0473632
-0.0355511
-0.0233155
-0.0363151
0.0116903
-0.00958467
-0.0153162
-0.0238649
-0.0487903
-0.0347538
0.0102599
0.0487532
-0.0133494
-0.110799
-0.0680113
-0.0418136
-0.0249766
-0.018185
-0.0150719
-0.0124259
-0.0155632
-0.017939
0.012463
0.0229125
-0.0155549
-0.0091625
-0.013899
-0.0517865
-0.0328403
0.00145395
0.0347096
-0.00605191
-0.0634829
-0.029808
0.0087113
-0.0086679
-0.0116226
-0.0401337
-0.020385
-0.0180195
-0.0371491
-0.0307376
-0.0179336
-0.0294826
0.00782361
-0.0188637
-0.0118466
-0.024773
-0.0393933
-0.037222
0.0106265
0.0588452
-0.00994371
-0.0960734
-0.0525269
-0.0522887
-0.0376399
-0.019845
-0.00718148
-0.00858732
-0.00907567
-0.020601
0.00664762
0.0270768
-0.0225389
-0.0141558
-0.0109508
-0.053952
-0.027507
0.010366
0.0342521
-0.0157279
-0.0626286
-0.0284177
0.00977375
-0.00624017
-0.0119149
-0.0463569
-0.0153104
0.0215206
-0.0229513
-0.0209576
-0.0121229
-0.0374959
0.00170859
0.00507788
-0.015551
-0.0271337
-0.0316737
-0.0387701
0.00468698
0.0605268
-0.0106823
-0.0662215
-0.0247357
-0.0503038
-0.0419687
-0.0183619
-0.00533709
-0.00826264
-0.00947216
-0.0214674
0.00410045
0.0252198
-0.0222451
-0.00687038
-0.00611118
-0.0614902
-0.0237117
0.0150375
0.0413005
-0.0243485
-0.0595225
-0.0252297
0.0115346
-0.000767437
-0.0133958
-0.0480973
-0.00349614
0.0561634
0.00377939
-0.0128547
-0.00907721
-0.0647285
0.00384341
0.0331065
-0.0168406
-0.0242966
-0.0215887
-0.0383149
-0.0117702
0.0619674
-0.00692593
-0.0333687
0.0138137
-0.0359669
-0.042738
-0.0119978
0.00319342
-0.00903644
-0.00114375
-0.0178768
0.00588058
0.020813
-0.0205537
0.00369385
0.00207748
-0.0598667
-0.0244745
0.0189106
0.0396045
-0.0269415
-0.052818
-0.015215
0.0121154
0.000199587
-0.0142662
-0.0450702
0.00804124
0.082036
0.0153641
-0.00678755
-0.00294297
-0.0862078
-0.00109957
0.0466638
-0.020863
-0.0198837
-0.0125186
-0.0358214
-0.0167471
0.0681276
0.00986039
-0.0129352
0.0376708
-0.0240639
-0.0416866
-0.000678062
0.000440197
-0.00821193
0.0101
-0.0152573
0.00420779
0.0170594
-0.0215519
0.0122603
0.0127404
-0.0560752
-0.0263193
0.0257879
0.0300182
-0.0234216
-0.0432977
0.0017794
0.0163902
-0.00189881
-0.0140149
-0.0432605
0.0141575
0.0987683
0.0271377
-0.00321183
-0.00662872
-0.0969332
-0.00353266
0.0685113
-0.0152664
-0.0166006
-0.00895998
-0.030135
-0.0114425
0.0754953
0.0216264
-0.00518984
0.0503354
-0.0185068
-0.0422629
0.00869827
0.000464275
-0.00735619
0.0167189
-0.0160606
0.00134336
0.0188761
-0.0104662
0.017758
0.0185796
-0.0494661
-0.0272508
0.0170886
0.0189685
-0.011786
-0.028649
0.0182366
0.0206328
-0.00249277
-0.0116611
-0.0413788
0.0182821
0.108694
0.0342158
0.00256444
-0.00285024
-0.0952553
-0.00283382
0.0913628
-0.00315318
-0.0160338
-0.00694237
-0.0226378
-0.00540581
0.074613
0.0180116
-0.00212153
0.0634125
-0.0142131
-0.0422463
0.0170643
0.00351637
-0.00972919
0.0190928
-0.0140483
0.000798107
0.0229889
-0.00731099
0.0225695
0.0197165
-0.0550829
-0.029968
0.0119734
0.0100455
0.0213
-0.00833406
0.0286755
0.0236472
-0.0025026
-0.00816277
-0.0411773
0.0217129
0.113687
0.0369055
0.0059647
0.00277082
-0.0788757
0.0125446
0.0916725
-0.00796765
-0.0165362
0.000430282
-0.0164886
-0.00289762
0.0715036
0.0079103
0.00210917
0.076723
-0.0114366
-0.0381077
0.0198668
0.0060914
-0.0130592
0.0200232
-0.0180634
-0.000114652
0.0263245
-0.000714144
0.0301472
0.0185083
-0.0651551
-0.0256186
0.0134454
0.00814327
0.0590904
0.00454459
0.0322541
0.0249464
-0.00399586
-0.00543745
-0.0402791
0.0257419
0.114238
0.0368431
0.00812986
0.0080856
-0.0685468
0.0356821
0.0894173
-0.0117742
-0.00974348
0.0101469
-0.0123551
-0.00156419
0.0699043
-0.000185368
0.00740903
0.0873492
-0.0113241
-0.0355086
0.0226784
0.00797226
-0.0161606
0.0197776
-0.0185994
-8.02844e-07
0.0317769
0.00804074
0.038243
0.0194415
-0.0624127
-0.0140673
0.0191671
0.013589
0.0800181
0.0100716
0.0332114
0.0255455
-0.00481079
-0.00301549
-0.0394013
0.0297335
0.117593
0.0360877
0.00869087
0.0105457
-0.0651833
0.044681
0.0915979
-0.0106469
-0.00321382
0.015087
-0.00982393
-0.000521053
0.0691805
-0.00550232
0.011595
0.0937775
-0.0109632
-0.0342688
0.0248602
0.0098088
-0.018096
0.0203342
-0.0157766
0.000563123
0.0390104
0.0121524
0.0418016
0.0216513
-0.0630976
-0.00548089
0.0261146
0.0182923
0.0834405
0.0120347
0.0352272
0.0265585
-0.00445853
-0.00156928
-0.0385744
0.0323323
0.117126
0.0354085
0.00951107
0.0102214
-0.0638237
0.044874
0.0909963
-0.00906725
-0.00186839
0.0158897
-0.00825392
-7.769e-05
0.0685128
-0.00791482
0.0154465
0.0955667
-0.010859
-0.0333385
0.0259025
0.0114936
-0.0183931
0.0213199
-0.0154954
0.00257626
0.0425177
0.0138033
0.0409861
0.0205451
-0.0637633
-0.00194945
0.0299098
0.019775
0.0836495
0.01315
0.0358607
0.0268958
-0.00307654
-0.000544387
-0.0380732
0.0335128
0.117101
0.0358428
0.0107791
0.0103228
-0.0622993
0.0465308
0.0908248
-0.00855723
-0.0017397
0.0164403
-0.00718353
0.000868278
0.0687686
-0.00693527
0.0186061
0.095657
-0.00989391
-0.0324573
0.0259524
0.0123382
-0.0169228
0.0220215
-0.0141103
0.00405642
0.0418438
0.0142643
0.0419365
0.0204394
-0.0624828
0.000210255
0.0310497
-0.00317893
0.00239101
-0.00705909
-0.0115321
-0.0656348
-0.0358843
-0.0140858
-0.0383514
-0.030476
0.00878168
-0.0178045
-0.015056
-0.0126218
-0.0215468
-0.0160346
-0.00942375
0.0108355
-0.0337834
-0.0341178
-0.00945285
-0.0154809
-0.0418174
-0.0170933
-0.0220301
-0.024375
-0.0160438
-0.0144874
-0.0287865
-0.035874
-0.017285
-0.0137125
-0.00952324
-0.0454268
-0.0442342
-0.0170371
-0.0347648
-0.0457774
0.0184124
0.00254317
-0.0520513
-0.039714
-0.0339146
-0.0132097
-0.00201465
0.0109006
0.013549
0.00391637
-0.0145668
-0.0352604
-0.0265283
-0.00131766
-0.0234065
-0.0339455
-0.042286
-0.0153055
-0.0114439
-0.0322813
-0.0113884
0.00317013
-0.00884626
-0.0362483
-0.0695192
-0.0319665
-0.0385868
-0.0321138
-0.0186592
-0.00739604
-0.0181107
-0.0194028
-0.014706
-0.01183
-0.00833086
-0.0507553
-0.0718303
-0.032518
-0.0265335
-0.0106428
-0.0105863
-0.0347853
-0.0287171
-0.00631393
-0.0301593
-0.0124975
-0.0063765
-0.0308367
-0.0144881
-0.00493507
-0.0174024
0.00197498
-0.00327216
-0.00716043
-0.0182027
-0.0326936
-0.0370518
0.00440124
-0.0100842
-0.0273681
-0.0114031
-0.0147629
-0.0233499
-0.0366868
-0.0315911
-0.0419398
-0.00991581
-0.0246827
-0.0388788
-0.0360728
-0.0269253
-0.0244523
-0.0209078
-0.00571691
-0.0258072
-0.0420894
-0.0258637
-0.0091966
-0.0114151
-0.00804476
-0.0219209
-0.02784
-0.0294573
-0.00279178
-0.0152154
-0.0216227
-0.0278268
0.00200098
-0.00801104
-0.0193276
-0.00493715
-0.01753
-0.0172064
-0.00806656
-0.0264059
-0.0270664
-0.0157974
-0.00737307
-0.0203386
-0.0323909
-0.017485
0.0025935
-0.0237142
-0.0254388
-0.0231197
-0.0265504
-0.0420465
-0.0302315
-0.02352
-0.0216053
-0.0111017
-0.0167391
-0.0253054
-0.0102812
-0.0286471
-0.0120368
-0.00115064
-0.0248701
-0.0416605
-0.0136786
-0.0248769
-0.0559318
-0.0276405
-0.015878
-0.0181585
-0.0245713
0.0101382
0.0055883
-0.0195084
-0.00152395
0.00532059
-0.0280686
-0.0241604
-0.0192933
-0.0236273
-0.0350786
-0.0158735
-0.0108125
-0.012751
-0.0162795
-0.0260655
-0.0141719
-0.0171766
-0.0106427
-0.0191596
-0.0313249
0.0151641
-0.0100894
-0.0217072
-0.00525397
-0.00967585
-0.0267918
-0.0289947
-0.0219476
-0.00980825
-0.0166145
-0.0254662
-0.0277592
-0.0135711
-0.00816023
-0.0131272
0.00390611
-0.00928692
-0.0150926
-0.0133119
-0.00177694
-0.0212741
-0.045063
-0.0138802
0.00550401
-0.0121765
-0.0263911
-0.0124835
-0.018577
-0.0387341
-0.026431
-0.0124015
-0.0240099
-0.0252517
-0.0317876
-0.0257391
-0.0328722
-0.0431025
-0.0233923
-0.0291536
-0.00605161
-0.0108868
-0.0458587
-0.0234996
-0.00859957
-0.0167386
-0.023404
-0.0213309
-0.0244309
-0.0142603
0.000494891
-0.00710684
-0.0222165
-0.00848237
-0.00675019
-0.0206016
-0.0275093
-0.0153808
-0.00807368
-0.0149356
-0.0200807
-0.0561226
-0.0158838
0.000508808
-0.00212591
-0.011512
-0.0276868
-0.0277759
-0.0128164
-0.0254319
-0.0342593
-0.0278686
-0.0190135
-0.0309311
-0.0165697
-0.0235884
-0.0567039
-0.0266035
-0.00373035
-0.0254325
-0.0220855
-0.0266436
-0.0174789
0.00247866
0.0076823
-0.0171406
-0.0352007
-0.0195457
-0.0116356
-0.013271
-0.0156979
-0.0201661
-0.0207344
0.00205897
-0.0177069
-0.0374789
-0.0355244
-0.0152032
0.00283447
-0.0195027
-0.0174626
0.00228952
0.0130078
-0.0105235
-0.0290075
-0.0186745
-0.0144256
-0.000707358
-0.00507684
-0.0458164
-0.0389881
0.00442094
-0.0102857
-0.0174418
2.80652e-05
-0.0178556
-0.00642006
-0.0484955
-0.0148139
-0.00518126
-0.00882086
-0.0101566
-0.0100347
0.0316342
0.0118396
-0.0315932
-0.0368298
-0.0176497
-0.0135888
-0.0327538
-0.0134847
0.0109306
-0.00237921
-0.0279214
-0.0248958
-0.0260038
-0.0455095
-0.0195293
0.00174514
-0.0149782
-0.0289238
-0.0355996
-0.0107279
-0.0161931
-0.018441
-0.00439602
-0.0096848
-0.0155761
-0.0398922
-0.0557815
-0.0316131
0.00695138
-0.021716
0.0166046
0.0216065
-0.0450137
-0.0607037
-0.0025931
-0.00243441
-0.025519
-0.0243948
-0.0381365
-0.000699093
0.0192168
-0.0295154
-0.0558904
-0.0344559
-0.018288
-0.0477839
-0.0480612
-0.0103564
0.00491817
-0.00532583
-0.0323056
-0.0206349
-0.0285702
-0.0213006
0.0235666
-0.00271513
-0.0134207
-0.020856
-0.0390351
-0.0137075
-0.00863746
-0.00120996
0.0128525
-0.0204326
-0.0284675
-0.0223824
-0.0428553
-0.015497
0.00236299
-0.0194681
0.0474721
0.0223557
-0.0450408
-0.0512725
-0.000742748
0.0114364
-0.026654
-0.0294271
-0.00367097
-0.0020564
-0.0184516
-0.048348
-0.0428041
-0.0301279
-0.02799
-0.0202003
-0.0102986
-0.00713033
0.0134474
-0.0007771
-0.0351155
-0.0252871
-0.0180413
-0.0177396
0.0126783
-0.00450921
-0.00932447
-0.026949
-0.0387581
-0.0123131
-0.0152234
0.011521
0.00936153
-0.0336907
-0.0173702
-0.0233755
-0.0565235
-0.00267616
-0.0127434
-0.0350519
0.0139097
0.00866121
-0.0388757
-0.0363611
0.0116579
0.0088918
-0.0230368
-0.0184157
-0.0194611
-0.00297948
-0.0273492
-0.0389057
-0.0170002
-0.0266284
-0.0272353
0.00616902
0.0140081
0.000508473
0.0205723
-0.00850825
-0.0384931
-0.0183746
-0.0181907
-0.0290354
-0.00761547
0.0040951
-0.00943773
-0.0338297
-0.0262195
-0.00936726
-0.0223705
0.000516651
-0.0128086
-0.0213774
-0.00118791
-0.0275064
-0.0567623
-0.0263493
-0.0159528
-0.0414038
-0.0198552
0.00330963
-0.0384528
-0.0537884
0.0174537
-0.0027367
-0.0199202
-0.00802362
-0.0164019
0.00220396
-0.0238127
-0.0255619
-0.00598463
-0.0196015
0.00340339
0.00639291
0.00841776
-0.00423226
-0.00523877
-0.0168482
-0.0394032
-0.0178047
-0.0226942
-0.0335957
-0.0120446
0.0189896
0.00916468
-0.0316458
-0.0247477
-0.00682666
-0.0223714
0.00449101
-0.0111977
-0.021188
-0.0169138
-0.0544255
-0.0446621
-0.00919702
-0.00826396
-0.0207057
-0.0110689
0.00523314
-0.043176
-0.0518514
0.0162668
-0.0260956
-0.0330752
0.0102492
0.00146662
-0.00577347
-0.0194098
-0.0153722
-0.0176431
-0.012186
-0.00735529
-0.0431832
-0.0268206
-0.0211824
-0.007844
-0.0186566
-0.0398963
-0.00916868
-0.0322807
-0.0491436
-0.00833809
0.0115137
0.0153149
-0.0306199
-0.0270098
-0.0149012
-0.0185042
0.00875117
-0.00772946
-0.0205954
-0.015806
-0.0465232
-0.0262459
-0.00840921
0.0100199
-0.0115619
-0.0265674
-0.000442008
-0.0377843
-0.0451365
-0.000762448
-0.0233933
-0.0331898
0.0101088
4.13887e-05
-0.0178823
-0.0202331
-0.0369909
-0.0244771
-0.00998411
-0.0165386
-0.0356878
-0.0235198
-0.0106929
-0.00539185
-0.0197076
-0.0416527
-0.00497232
-0.0319634
-0.0442315
-0.0100961
0.00854979
0.0149612
-0.0321166
-0.0211145
-0.0131063
-0.013975
0.00660345
-0.00669043
-0.015524
-0.0143189
-0.0484592
-0.0218412
-0.000171079
0.0105779
-0.0224826
-0.0458976
-0.00481399
-0.0280354
-0.0372552
-0.00660065
-0.0124226
-0.029648
-0.00886499
-0.0105994
-0.0281393
-0.0233936
-0.0240456
-0.0164675
-0.0104698
-0.0173806
-0.0239758
-0.023121
-0.0141377
-0.00535361
-0.0180452
-0.0461437
-0.011135
-0.0340146
-0.0420343
-0.016816
0.0198187
0.0163634
-0.0325556
-0.0191927
-0.0116329
-0.0107393
0.00894172
-0.00560477
-0.0189319
-0.0193619
-0.0480108
-0.0154083
0.00661259
0.00307951
-0.0277027
-0.0457093
-0.00563525
-0.0306625
-0.027081
-0.00440773
-0.00698603
-0.0285629
-0.0104095
-0.00559444
-0.0313159
-0.0228955
-0.0119995
-0.00380671
-0.00668812
-0.017187
-0.0271069
-0.0306665
-0.00503552
-0.0111075
-0.0195623
-0.0371622
-0.0182726
-0.0375784
-0.0426599
-0.0100438
0.00999038
0.018462
-0.0309067
-0.033374
-0.00925378
-0.00394943
0.00914733
-0.00502572
-0.0247543
-0.0283314
-0.0435364
-0.00762473
0.00900937
-0.00585864
-0.0284
-0.0395688
-0.0149105
-0.0329734
-0.0240402
-0.00253616
-0.00375207
-0.0359521
-0.0184251
-0.00207177
-0.033853
-0.0197516
-0.012485
-0.00515138
-0.00725555
-0.0105634
-0.0223957
-0.0325984
0.00140962
-0.0064123
-0.0161831
-0.0318905
-0.0243741
-0.0341568
-0.0364591
-0.0151772
0.0171851
0.020928
-0.0333391
-0.0334043
-0.00469357
-0.00534318
0.00377105
-0.00723515
-0.0227072
-0.0362868
-0.0401465
-0.013548
0.00744688
-0.0126547
-0.0316727
-0.0257289
-0.0124962
-0.0321369
-0.0248198
-0.00254863
-0.00521378
-0.0295655
-0.0169621
-0.0069603
-0.0391553
-0.0332781
-0.0308301
-0.01349
-0.00564939
-0.0142606
-0.0256675
-0.0152974
0.00769145
-0.00436566
-0.0191127
-0.0290413
-0.0257934
-0.0381561
-0.0338937
-0.0134147
0.0157091
0.0211263
-0.0351539
-0.0389653
-0.00333354
-0.00437844
0.000355618
-0.00786591
-0.0245245
-0.046554
-0.0364787
-0.0057549
0.0016411
-0.0166153
-0.0315635
-0.0160736
-0.00550984
-0.0316285
-0.025779
-0.00155311
-0.00749204
-0.025133
-0.01794
-0.0168695
-0.0434567
-0.0387364
-0.0425617
-0.00587947
-0.0018956
-0.0115242
-0.0256745
-0.0147918
0.00983002
-0.00494988
-0.0216263
-0.0242
-0.0245438
-0.0445376
-0.0282736
-0.00770013
0.0149142
0.019326
-0.0385692
-0.0374915
-0.00139289
-0.00727778
-0.00160323
-0.00671291
-0.0280196
-0.0484838
-0.0328107
-0.00958876
-0.0118249
-0.022106
-0.0286294
-0.0145625
-0.00105371
-0.0335142
-0.0261603
-0.00258768
-0.0111218
-0.0255195
-0.0220984
-0.0262359
-0.0450664
-0.0496987
-0.0392269
0.0106305
0.00414889
-0.0173311
-0.028309
-0.0165849
0.00890862
-0.00593708
-0.0239452
-0.0187905
-0.0207553
-0.048274
-0.0279735
-0.00913226
0.0186089
0.0136831
-0.0423022
-0.0357572
0.00184568
-0.00534235
0.000125808
-0.0076511
-0.0308602
-0.0431078
-0.0313784
-0.0228114
-0.0223001
-0.0256176
-0.0239372
-0.0176485
-0.00266891
-0.0335597
-0.0250471
-0.00863694
-0.0142873
-0.0249422
-0.0217985
-0.0306923
-0.0444706
-0.0609668
-0.0354858
0.0194941
0.0142919
-0.0186811
-0.0315645
-0.0188071
0.00705491
-0.0043651
-0.0237321
-0.0119114
-0.0194351
-0.051646
-0.0320333
-0.00976214
0.0179793
0.00256869
-0.0402337
-0.0320541
0.00596185
-0.00588473
0.00122532
-0.00889739
-0.0331935
-0.0377094
-0.0309243
-0.0252191
-0.0237631
-0.0236515
-0.022612
-0.0166114
-0.000907532
-0.0313073
-0.0246883
-0.0153028
-0.0138359
-0.0223955
-0.0147037
-0.0208538
-0.0420025
-0.0717848
-0.0312547
0.0296584
0.0273925
-0.00947796
-0.0327915
-0.0199399
0.0080582
-0.00188611
-0.0230598
-0.0116323
-0.0203375
-0.0552903
-0.0363716
-0.00717381
0.0158333
-0.0063123
-0.0342464
-0.0276519
0.00799489
-0.00464735
0.00128811
-0.0108849
-0.0356853
-0.0333838
-0.032337
-0.0224727
-0.0225505
-0.0222048
-0.019462
-0.00787362
0.000573605
-0.0335314
-0.0234578
-0.0148622
-0.00955028
-0.0186537
-0.00744032
0.00145727
-0.0353922
-0.0772151
-0.0287486
0.0322529
0.0404516
-0.00397683
-0.0341379
-0.0216782
0.00675059
-0.00417873
-0.0213883
-0.0111546
-0.0239168
-0.0565181
-0.0362274
-0.00373685
0.0137708
-0.0108597
-0.0270405
-0.0234595
0.0106795
-0.00100394
-0.000722237
-0.0150053
-0.0353769
-0.0314031
-0.0334107
-0.0186913
-0.0234307
-0.0225168
-0.0101148
0.00347133
0.00310816
-0.0403725
-0.0208215
-0.0147329
-0.0074418
-0.0146913
-0.00336958
0.0278405
-0.0280141
-0.0694659
-0.026613
0.0315788
0.0456921
-0.00182194
-0.0358497
-0.0238952
0.00357496
-0.00686453
-0.0187345
-0.0116255
-0.0291235
-0.055926
-0.0372448
0.000612619
0.0121322
-0.0121023
-0.0189599
-0.0192303
0.0150037
0.00333414
-0.00309431
-0.0181415
-0.031833
-0.0307052
-0.0336944
-0.0141895
-0.0239559
-0.0224519
-0.00593895
0.0103536
0.00776291
-0.039719
-0.0168076
-0.014477
-0.00566164
-0.0166714
-0.00230703
0.0510405
-0.0211591
-0.0565069
-0.0301187
0.0246937
0.0421369
-0.00209819
-0.0381685
-0.025087
0.00197775
-0.00864347
-0.0157059
-0.0150696
-0.030741
-0.0542222
-0.0374824
0.00465158
0.0147355
-0.0115423
-0.0101332
-0.0139676
0.0189599
0.00333951
-0.00549599
-0.0199208
-0.0294054
-0.0290561
-0.0323152
-0.0101095
-0.0252537
-0.0222645
-0.00907131
0.0178852
0.0129459
-0.0347381
-0.0133665
-0.0154635
-0.00572567
-0.0232408
0.00128164
0.0655908
-0.0162794
-0.055668
-0.0387295
0.0219411
0.0371308
-0.0024254
-0.0397187
-0.0257097
0.00134905
-0.00946673
-0.0127201
-0.0181962
-0.0302137
-0.0528751
-0.0337033
0.00889999
0.0152074
-0.0102838
-0.00215269
-0.00731542
0.0212822
0.00257028
-0.00689367
-0.021675
-0.0287294
-0.0261639
-0.0316665
-0.00741811
-0.0264761
-0.023347
-0.0177255
0.0290441
0.0205922
-0.0295496
-0.0138156
-0.0146154
-0.00696262
-0.02861
0.00515172
0.0733271
-0.0144721
-0.0646297
-0.0485819
0.0218842
0.033532
-0.000770221
-0.0412807
-0.025913
0.00140431
-0.00908339
-0.00955956
-0.0195791
-0.0295103
-0.0519918
-0.0293399
0.0122376
0.0148853
-0.00563842
0.00440992
-0.00088659
0.0222446
0.00211698
-0.00621108
-0.0229092
-0.0273371
-0.0232636
-0.031614
-0.00500581
-0.0264074
-0.025669
-0.0256313
0.0365664
0.0249498
-0.0264318
-0.0128371
-0.00801022
-0.00773633
-0.0341824
0.00596404
0.0781422
-0.0132512
-0.0663536
-0.0509616
0.0237122
0.0320503
-0.00717994
-0.042311
-0.0249039
0.00226269
-0.00798623
-0.00468294
-0.0164208
-0.0287012
-0.0529604
-0.0256919
0.0134267
0.0122127
0.00160836
0.00902133
0.00328831
0.0230356
0.00259724
-0.00627501
-0.0244786
-0.0259458
-0.0209812
-0.0298051
-0.00286157
-0.0261912
-0.0278855
-0.0268109
0.0376017
0.0243067
-0.0240075
-0.00955905
-0.00376402
-0.00917147
-0.0369537
0.00732692
0.0821788
-0.0124346
-0.0664467
-0.046148
0.0252878
0.0306334
-0.00904727
-0.0415052
-0.0226384
0.00158054
-0.00766509
-0.000415769
-0.012403
-0.0271148
-0.0539544
-0.0222311
0.0153235
0.00787196
0.00836831
0.0120017
0.00274893
0.0231409
0.00271758
-0.0077577
-0.0259704
-0.0240282
-0.0188774
-0.0279369
-0.00181216
-0.0248036
-0.0282314
-0.0252887
0.0388742
0.0175261
-0.0221929
-0.00748098
-0.00407376
-0.0106363
-0.0347834
0.00835398
0.0836941
-0.0120661
-0.0669759
-0.0411981
0.0272533
0.028198
-0.0093115
-0.0388427
-0.0216006
-0.00149612
-0.00565208
0.00297337
-0.0111538
-0.0257971
-0.054693
-0.0183768
0.0166934
0.00687096
0.0125372
0.0136669
0.00274315
0.0230537
0.00196763
-0.00836129
-0.0264216
-0.0223287
-0.0175532
-0.0270888
-0.00101873
-0.0232553
-0.0283117
-0.02462
0.0400932
0.0165407
-0.0216598
-0.00741943
-0.00436269
-0.0110732
-0.0326813
0.00840433
0.0838588
-0.01216
-0.0670082
-0.0388996
0.0283927
0.0266599
-0.0100491
-0.0371973
-0.0215179
-0.00130079
-0.00308181
0.00298027
-0.0115124
-0.0251324
-0.0552298
-0.0161697
0.0166639
0.00742535
0.0131917
0.0135677
0.00258234
0.0231359
0.00234281
-0.00844811
-0.0265625
-0.0215768
-0.0170208
-0.0266399
-0.000856941
-0.0230062
-0.0284892
-0.02407
0.0403978
0.015888
-0.021581
-0.00733857
-0.00436538
-0.0112427
-0.0319293
0.00880072
0.0836803
-0.0118917
-0.0661474
-0.0384875
0.0284155
0.0263118
-0.0103988
-0.0367689
-0.0210544
-0.000997448
-0.00280275
0.00289276
-0.0116293
-0.0247797
-0.0550207
-0.0158077
0.0166923
-0.0379112
-0.0347331
-0.00177524
0.013919
0.00233059
-0.0320549
-0.0371493
-0.0474374
-0.0103084
-0.001975
-0.0195605
0.00430899
-0.0175842
-0.0364071
0.0117225
0.0206529
-0.0120425
-0.0257935
-0.00753048
-0.0161855
-0.0171592
-0.0228024
-0.0182235
-0.00817253
-0.00767692
-0.0261513
-0.0176514
-0.0198776
-0.0293885
-0.0134559
-0.0175511
-0.0313736
-0.037122
-0.0257035
0.00893348
-0.0104546
-0.0310869
0.00320649
-0.000573132
-0.0106871
-0.0299184
-0.0193018
-0.015889
-0.0108395
-0.00113164
-0.000757211
-0.0141056
-0.0308408
-0.0406454
-0.0144025
-0.0235404
-0.0402706
-0.033461
-0.0237039
-0.016122
-0.0103609
-0.00651122
-0.00931145
-0.02009
-0.0186925
-0.0330835
-0.033181
-0.0236625
0.00239577
-0.0110857
-0.0159564
0.000981662
0.00996366
-0.0306521
-0.0113776
0.00530995
-0.0300444
-0.0369824
-0.00762081
0.00741086
-0.0181339
0.0122384
0.0088687
-0.0449143
-0.0564329
-0.0126639
-0.00727234
-0.0146289
-0.0312116
-0.0247345
-0.0149947
-0.0150371
-0.0171406
-0.00342367
-0.023617
-0.0293697
-0.00973846
-0.0201207
-0.0302616
-0.0172061
-0.0123884
-0.0186093
-0.0257068
-0.0178417
-0.0239814
-0.0351895
-0.0202766
0.0113792
-0.00995891
-0.0256046
-0.0313076
-0.0336332
-0.0235536
-0.0196217
-0.0109385
-0.0232472
-0.0334077
-0.0224205
-0.00376621
-0.0139253
-0.0203408
-0.0058817