/*--------------------------------*- C++ -*----------------------------------*\
  =========                 |
  \\      /  F ield         | OpenFOAM: The Open Source CFD Toolbox
   \\    /   O peration     | Website:  https://openfoam.org
    \\  /    A nd           | Version:  10
     \\/     M anipulation  |
\*---------------------------------------------------------------------------*/
FoamFile
{
    format      ascii;
    class       volScalarField;
    location    "20";
    object      pPrime2Mean;
}
// * * * * * * * * * * * * * * * * * * * * * * * * * * * * * * * * * * * * * //

dimensions      [0 4 -4 0 0 0 0];

internalField   nonuniform List<scalar> 
25600
(
0.000470002
0.000401687
0.000475936
0.000611902
0.000620464
0.000578766
0.000624988
0.000648101
0.000697391
0.000647636
0.000496168
0.000432397
0.000528647
0.000654282
0.000497254
0.00050176
0.000602315
0.000639561
0.000734864
0.000768343
0.000797149
0.000837288
0.000770706
0.00066954
0.000655137
0.000647174
0.000648389
0.000535039
0.000608641
0.000636696
0.000726818
0.000762848
0.000575362
0.000550934
0.000533604
0.000605476
0.000763767
0.00065289
0.000553886
0.000558134
0.00051229
0.000727892
0.000835568
0.000687869
0.000569253
0.000515513
0.000538449
0.000552194
0.000497512
0.000439353
0.000467906
0.000553385
0.000687249
0.000669661
0.000530859
0.000515502
0.000502887
0.000558339
0.000592328
0.000507543
0.000443234
0.000501157
0.000513247
0.000470325
0.000368863
0.000417485
0.000495767
0.000466824
0.000610187
0.000640447
0.000461642
0.000471041
0.000570053
0.000608274
0.000612846
0.000534824
0.000413939
0.000518439
0.000694564
0.000585848
0.00038394
0.000515494
0.000557577
0.000398982
0.00032923
0.00040631
0.000432546
0.000378966
0.000305496
0.000354958
0.000389003
0.000347129
0.0004111
0.000376823
0.000400642
0.000402321
0.000450763
0.000530175
0.000481166
0.000331862
0.000317816
0.000444324
0.000484957
0.000407758
0.000269148
0.000291393
0.000336157
0.000339668
0.000359622
0.000347452
0.000353049
0.000451254
0.000484533
0.000398541
0.000399645
0.00042508
0.000417647
0.000503768
0.000493834
0.000395751
0.000479498
0.000521835
0.000588894
0.000469712
0.000470883
0.000460487
0.000401181
0.000416541
0.000438086
0.000362922
0.000377849
0.000547737
0.000527496
0.000448067
0.000512224
0.0004442
0.000389823
0.000482598
0.000382971
0.000312268
0.00044022
0.000464012
0.000431778
0.000382041
0.000363496
0.000525243
0.000489001
0.000411177
0.000379106
0.000360961
0.000309275
0.000352222
0.000391782
0.000354701
0.000362624
0.000378079
0.000392122
0.000431144
0.000532365
0.000548056
0.000332723
0.000483599
0.000474503
0.000320941
0.000286186
0.000314019
0.000325955
0.000335037
0.000329646
0.000328026
0.000442643
0.000474597
0.000388173
0.000447913
0.000457296
0.000299187
0.000270567
0.000375507
0.000378651
0.000396307
0.000325731
0.000370385
0.000440564
0.00033501
0.000368355
0.000508102
0.00045271
0.000330641
0.000301676
0.000293877
0.000361487
0.00038991
0.000360211
0.000345159
0.000332391
0.000417158
0.000517204
0.000568901
0.000477004
0.000302681
0.000471238
0.000429239
0.000312258
0.000323373
0.000341957
0.000295781
0.000288647
0.000323688
0.000299226
0.0003219
0.000365207
0.000312323
0.000266597
0.000318935
0.000258368
0.000227083
0.00036191
0.000335919
0.00025956
0.000250035
0.000301404
0.000418248
0.00041783
0.000298073
0.000457009
0.000498975
0.000396725
0.000352031
0.000333612
0.000310794
0.000311423
0.000345487
0.000355671
0.000389671
0.000373576
0.000436932
0.000503921
0.000350683
0.000230443
0.000315784
0.000336762
0.00034109
0.000362694
0.00036044
0.000329212
0.00029249
0.000337087
0.000390136
0.000293054
0.000235519
0.000406463
0.000459889
0.000320975
0.000280421
0.000304341
0.000347336
0.000382908
0.000339049
0.000316514
0.000267631
0.000290874
0.000397445
0.000435566
0.000316448
0.000259619
0.000324656
0.000299216
0.000265381
0.000358061
0.000348314
0.000269513
0.000271136
0.000291498
0.000234963
0.000227511
0.000316239
0.000334253
0.000297227
0.000313257
0.00033912
0.000298102
0.000303086
0.000299036
0.000313012
0.000263387
0.000253102
0.000363313
0.000305402
0.000184096
0.000262575
0.000398359
0.000358859
0.000354435
0.000359268
0.000294984
0.000350547
0.000401747
0.000326979
0.000304511
0.00025039
0.000239138
0.000334083
0.00041273
0.000310624
0.000277098
0.000344007
0.000263987
0.000286517
0.000393186
0.000330922
0.000281075
0.000262137
0.000302992
0.000321932
0.000291849
0.000212271
0.000260122
0.000392524
0.00042664
0.000365911
0.000329317
0.000383318
0.000358652
0.000265194
0.000260196
0.000332844
0.00032102
0.000239144
0.000191649
0.000210065
0.000227057
0.000251594
0.00025533
0.000252908
0.000296329
0.000374125
0.000301165
0.000255277
0.00033268
0.000286686
0.000274896
0.000372764
0.000322398
0.000212584
0.000253524
0.000247315
0.000185116
0.000246752
0.000385514
0.000342472
0.000202949
0.000248146
0.000308442
0.000269127
0.000234297
0.000234729
0.000293557
0.000390685
0.000375009
0.000315202
0.000284392
0.000380085
0.000318282
0.000241085
0.000322134
0.000342915
0.000283979
0.000217872
0.000172578
0.000235536
0.000260117
0.000223126
0.000240305
0.000270279
0.000258803
0.000258539
0.000251314
0.000306879
0.000367089
0.000302368
0.00027209
0.000386201
0.000399777
0.000290762
0.000264702
0.000209712
0.000179543
0.000340007
0.000476835
0.00031028
0.000203333
0.000241842
0.000199212
0.000250764
0.000301209
0.000212973
0.000229909
0.000314825
0.000282693
0.000225154
0.000297256
0.000267237
0.000243084
0.000257891
0.000331891
0.000311797
0.000317992
0.000312531
0.000323075
0.000304106
0.000254371
0.000268383
0.000257965
0.000267382
0.000259889
0.000260753
0.000291571
0.000329231
0.000305903
0.000286837
0.000285396
0.000361562
0.000404688
0.000269327
0.000241303
0.000262738
0.000216906
0.000286152
0.00028817
0.000253959
0.000221117
0.000240033
0.000285849
0.000322911
0.000288833
0.000203539
0.0002334
0.000289889
0.000250909
0.000283149
0.000355052
0.00030892
0.000251197
0.000287083
0.000363981
0.000341603
0.000236855
0.000240165
0.000288601
0.000301323
0.000290884
0.000329737
0.000302662
0.000318838
0.000303247
0.000265487
0.000306415
0.000340771
0.000297806
0.000230039
0.000220903
0.000289012
0.000276646
0.000235663
0.000250706
0.000209833
0.000193292
0.000254648
0.000345063
0.000321349
0.000195996
0.000253523
0.000302318
0.000275147
0.000326688
0.000254335
0.000238706
0.000279331
0.000271369
0.000339171
0.000332969
0.000263504
0.000250103
0.000328051
0.0003816
0.000336724
0.000262619
0.000258752
0.000256035
0.000327437
0.000344645
0.000330982
0.000298517
0.000327119
0.000340364
0.000291213
0.000279068
0.000334084
0.000359151
0.000343638
0.000321833
0.00037849
0.000383574
0.000289123
0.000249661
0.000209652
0.00021263
0.000291508
0.000356595
0.0002925
0.000218164
0.000230091
0.000241226
0.000267377
0.000281018
0.000226525
0.000216849
0.000235168
0.00027131
0.000342806
0.000377716
0.000314417
0.000276335
0.000377782
0.000492594
0.000372983
0.000335909
0.000302291
0.000255956
0.000316933
0.000366123
0.000324723
0.000335874
0.000342952
0.000330318
0.000241874
0.000242848
0.000347334
0.000397867
0.000421021
0.000361882
0.000298461
0.000306043
0.000264526
0.000267276
0.00024761
0.000218844
0.000271317
0.000333964
0.000302754
0.00023199
0.000229837
0.000241709
0.000274114
0.000280549
0.000246191
0.000234777
0.00027083
0.000297169
0.000353845
0.000366361
0.000302449
0.000268894
0.000401266
0.000506229
0.00033081
0.000257054
0.000267851
0.000269007
0.000324442
0.000369864
0.000317648
0.000296753
0.000313983
0.000318197
0.00028161
0.000353295
0.000403847
0.000397017
0.000371988
0.000309855
0.000259076
0.000250094
0.000345003
0.000367781
0.000298876
0.000243952
0.000275369
0.000351542
0.000288169
0.000241377
0.000240958
0.000243254
0.00033028
0.000349743
0.000259332
0.000298394
0.000329894
0.00034366
0.000396141
0.000342009
0.000312324
0.000313025
0.000457776
0.000516403
0.000362328
0.000253782
0.00028292
0.000310219
0.000368182
0.000391706
0.0003502
0.000349299
0.000403617
0.000377455
0.000317022
0.000421862
0.000412383
0.000456064
0.000392858
0.000298471
0.000255275
0.00027649
0.000398802
0.000433767
0.000356426
0.000275336
0.000358519
0.000381391
0.000307587
0.000306788
0.000294971
0.000311391
0.000413733
0.000348078
0.000277253
0.00033214
0.000343805
0.000399784
0.000446622
0.000324598
0.000306282
0.000371067
0.000540282
0.000526012
0.000355143
0.00028466
0.000308236
0.000323617
0.000337026
0.000397601
0.000395512
0.000380557
0.000425573
0.000401658
0.000318726
0.000436898
0.000453659
0.000457764
0.000410925
0.000281175
0.000228377
0.000290248
0.000401204
0.000460668
0.000375991
0.000280857
0.000391914
0.000423434
0.00039426
0.000377617
0.000344713
0.000366809
0.000443718
0.000358092
0.000289131
0.000348077
0.000381533
0.000477317
0.000473835
0.000354619
0.000336048
0.000418518
0.00057382
0.000556135
0.000407208
0.000322726
0.000304071
0.000343795
0.000386716
0.000430733
0.000410348
0.000413562
0.000446723
0.000400132
0.000326376
0.000417683
0.000521437
0.000470633
0.0004165
0.000301845
0.000279849
0.000365636
0.000486932
0.000491751
0.000390171
0.000332208
0.000420116
0.00044361
0.000416864
0.000418734
0.000375615
0.000407905
0.000409772
0.000367963
0.000308872
0.000315026
0.000392045
0.000517391
0.000480427
0.000407013
0.000413585
0.000417932
0.000506981
0.000566992
0.000459387
0.000361755
0.000326049
0.000368185
0.000426663
0.000418057
0.000409024
0.000401319
0.000419548
0.000360887
0.000323542
0.000444645
0.0005816
0.000507294
0.000414414
0.000331339
0.000319144
0.000391969
0.000562844
0.000496781
0.000381666
0.000387789
0.000419504
0.000453991
0.000462046
0.000440465
0.000410389
0.000432752
0.000420785
0.000374621
0.00035084
0.000300484
0.000400911
0.000547197
0.000482762
0.000481572
0.000460603
0.000469221
0.00048377
0.000529919
0.000495546
0.00039238
0.000378809
0.000362405
0.000413684
0.000393546
0.000418537
0.000428669
0.000439229
0.000352472
0.000312783
0.000445089
0.000637263
0.000539949
0.000441646
0.000388695
0.000351046
0.000420787
0.00058685
0.000492309
0.000403719
0.000449
0.000446361
0.000508988
0.000560449
0.000506066
0.000452898
0.000455614
0.000428052
0.000389821
0.000385967
0.000343231
0.000456451
0.00056122
0.000539547
0.000542923
0.000470959
0.000555796
0.00053531
0.000526001
0.000463669
0.000400231
0.000432898
0.000400633
0.000425928
0.000435012
0.000507505
0.000515639
0.000491229
0.000354805
0.000339219
0.000506428
0.000677835
0.000598794
0.000497224
0.000454166
0.000428716
0.000511209
0.00063606
0.000505777
0.000449677
0.000499542
0.000503367
0.000577851
0.000641602
0.000584924
0.000545611
0.000510671
0.000494103
0.000458065
0.000462502
0.000463309
0.000574228
0.000617646
0.000599474
0.000606956
0.000545517
0.000652213
0.000615414
0.000602299
0.000520902
0.000462416
0.000497728
0.000460928
0.000454853
0.000491208
0.000619271
0.000617515
0.000561792
0.000412083
0.000395482
0.000612018
0.000749034
0.000677323
0.000587099
0.000541936
0.00050129
0.000588472
0.000697721
0.000580758
0.000489513
0.000536125
0.000543362
0.000646764
0.000730142
0.00064504
0.000585162
0.000596396
0.000580198
0.000557335
0.000550071
0.000598794
0.000721464
0.000691609
0.000665256
0.000720405
0.000689666
0.000770371
0.000728069
0.000718699
0.000649734
0.000564357
0.000593004
0.000517361
0.000493306
0.000605526
0.000734076
0.00070251
0.000673665
0.000531238
0.000493621
0.000688891
0.000877509
0.000762456
0.000684331
0.000624463
0.000578754
0.000654371
0.000771141
0.000701599
0.000626694
0.000629584
0.000624936
0.000739318
0.000827521
0.000754868
0.000640419
0.000705655
0.000674862
0.000668071
0.000705076
0.000747375
0.000862144
0.000798009
0.000804621
0.00084354
0.000829199
0.000885868
0.000900191
0.000880578
0.000775713
0.000668224
0.000690881
0.000611247
0.000587339
0.000766171
0.000894131
0.00080686
0.000802674
0.000632912
0.000592956
0.000821479
0.00104375
0.000873476
0.000784618
0.000772302
0.000696199
0.000772154
0.000866483
0.000804396
0.000726341
0.000762954
0.000764294
0.000910481
0.000964657
0.000882551
0.00076766
0.000819182
0.000798536
0.000794976
0.000877063
0.000920256
0.00104987
0.000992775
0.000990501
0.000967202
0.00100684
0.00108296
0.00112779
0.00104531
0.000892587
0.000823869
0.000845113
0.000745491
0.000694771
0.000901633
0.00104929
0.000940671
0.000927227
0.000758246
0.000708584
0.00103739
0.00119824
0.000980214
0.000907804
0.000960948
0.000873643
0.000955625
0.0010161
0.000923334
0.00080749
0.000899645
0.000894903
0.00112066
0.00112753
0.000986423
0.000905133
0.000997596
0.000977215
0.000980375
0.00101316
0.00105875
0.00123561
0.00118151
0.00115436
0.00107692
0.00124989
0.00133101
0.00135295
0.00121557
0.0010435
0.00100345
0.0010323
0.000895112
0.000812964
0.00103187
0.00119715
0.00108125
0.00103259
0.000882276
0.000828385
0.00124222
0.0013041
0.00108539
0.00105558
0.00113417
0.00112572
0.00117179
0.00119724
0.00108335
0.000952383
0.00099175
0.00100569
0.00128405
0.00126962
0.00109816
0.00106983
0.00122159
0.00114571
0.0011206
0.00113506
0.00116662
0.00140623
0.00134677
0.001273
0.00121135
0.0015026
0.00160044
0.00156823
0.00142229
0.0011997
0.00113338
0.00120872
0.00104683
0.000955741
0.00123436
0.00136988
0.00124254
0.00113782
0.00102083
0.00097664
0.00144738
0.00144225
0.00119634
0.00121061
0.00126695
0.00139229
0.00139343
0.00136665
0.00123601
0.00109832
0.00107351
0.00110066
0.00141655
0.00141745
0.00118872
0.00127302
0.00145171
0.00132003
0.00124447
0.00126295
0.00128984
0.00159415
0.00152692
0.00138068
0.00137466
0.00175619
0.00186196
0.00178699
0.00158092
0.00132084
0.00121575
0.00129681
0.00118807
0.00110671
0.00143973
0.00156797
0.00140185
0.00121538
0.00115752
0.00113054
0.00159593
0.00158436
0.00132544
0.00134733
0.00135001
0.00155447
0.00156833
0.00149953
0.00134871
0.00124209
0.00115942
0.00120003
0.00154574
0.00157115
0.00127592
0.00138871
0.00163169
0.00147836
0.00143588
0.0013842
0.00140105
0.00174671
0.00172213
0.00148028
0.00152709
0.00198042
0.00209938
0.00199567
0.00171133
0.00141775
0.00129008
0.001318
0.00127923
0.00121265
0.0015538
0.00172471
0.00152941
0.00127995
0.0012498
0.00124167
0.001673
0.00168924
0.00144553
0.00144904
0.00142436
0.00165171
0.00167891
0.0015439
0.0014254
0.00136141
0.0012237
0.00128852
0.00165263
0.00168565
0.00135109
0.00140561
0.00171181
0.00159447
0.00162014
0.00149009
0.00152098
0.00188023
0.00189276
0.00158902
0.00162796
0.00212215
0.00224819
0.00211463
0.0017852
0.00146579
0.00134241
0.0013111
0.0013148
0.00126838
0.00162395
0.00178603
0.00159481
0.00132228
0.00130275
0.00129305
0.00169846
0.0017529
0.00150602
0.00149411
0.00148988
0.00171229
0.0017141
0.0015459
0.00147692
0.00143375
0.00125827
0.00133783
0.00172045
0.00174388
0.001401
0.00141356
0.0017112
0.00165282
0.00173119
0.00154166
0.00159563
0.0019444
0.00196698
0.00165077
0.00166539
0.00217413
0.00230071
0.0021512
0.00181353
0.00147738
0.00136995
0.00130133
0.00131955
0.00129625
0.00168835
0.00179588
0.00160948
0.00133657
0.00132968
0.00131677
0.00170563
0.00177434
0.0015088
0.00150165
0.0015308
0.00173634
0.00171817
0.00156337
0.00150342
0.00147381
0.00126793
0.00134661
0.001746
0.00176106
0.0014143
0.00142887
0.00169924
0.00166286
0.00176791
0.00154571
0.00161229
0.00195276
0.00198985
0.00168419
0.00163596
0.00215524
0.00226499
0.00212357
0.00179119
0.00146319
0.00135963
0.00128262
0.00130652
0.00128776
0.00167556
0.00176988
0.00157938
0.00131404
0.001311
0.0012998
0.00168407
0.00175464
0.00149117
0.00148323
0.00152385
0.00172079
0.00169811
0.00155207
0.00148706
0.00146222
0.00125389
0.00133408
0.00172403
0.00173877
0.00139841
0.00141275
0.00168099
0.00164442
0.001753
0.00152916
0.00159622
0.00192744
0.00197594
0.00166321
0.000769651
0.00068113
0.000535907
0.000489618
0.000566948
0.000792451
0.000838974
0.0006973
0.000643203
0.000738719
0.000883091
0.000801441
0.000653212
0.000629782
0.000563695
0.000644091
0.000770872
0.000677906
0.000587585
0.000624284
0.000819276
0.000912078
0.000701163
0.000647547
0.000740477
0.000767873
0.000792421
0.000678723
0.000514007
0.000523003
0.000580588
0.000603645
0.000555713
0.000445935
0.000535893
0.000792323
0.000835867
0.000724381
0.00060244
0.000624542
0.000294728
0.000385096
0.00045383
0.000367996
0.000338912
0.000394259
0.000441363
0.000421113
0.000329958
0.000406781
0.000477355
0.000372024
0.000330119
0.00034202
0.000375626
0.000400561
0.00040716
0.000443108
0.000435418
0.000454322
0.000464749
0.000470248
0.000396373
0.000308145
0.000359153
0.00043927
0.000436489
0.000374008
0.000308451
0.000297931
0.000335941
0.000422813
0.000407754
0.000393395
0.000470145
0.000506442
0.000434538
0.000394034
0.000360273
0.000318246
0.000332873
0.000341693
0.000295641
0.000220719
0.000260189
0.000317045
0.000280834
0.000256948
0.000271899
0.000265739
0.000219995
0.000196836
0.000246122
0.000284266
0.000308451
0.000296582
0.000287884
0.000260415
0.000257255
0.000261922
0.000288588
0.000296135
0.000280646
0.000291815
0.000238786
0.000269015
0.000285724
0.000227462
0.000204758
0.000260629
0.000303996
0.000303078
0.000290536
0.000263374
0.000229687
0.000277353
0.000298729
0.000244808
0.000251476
0.000307514
0.000297472
0.000305591
0.000297261
0.000228518
0.000272883
0.000302938
0.000272639
0.000222157
0.000232426
0.000232386
0.000235115
0.000304793
0.000295016
0.000270966
0.000263527
0.000248821
0.000287461
0.000320457
0.000264175
0.000234211
0.000270956
0.000275733
0.000218747
0.000201783
0.000220532
0.000302779
0.000272303
0.000222098
0.000209863
0.000254101
0.000287686
0.00028836
0.000281631
0.000202429
0.000197799
0.000321712
0.000316158
0.00029046
0.000342051
0.000334653
0.000260314
0.000310453
0.000356284
0.000367971
0.000309461
0.000261578
0.000238725
0.000278535
0.000330995
0.000315051
0.000270167
0.000266153
0.000294651
0.000327957
0.000304834
0.000250962
0.000235071
0.000260107
0.000314786
0.000334257
0.00028419
0.000228551
0.000311739
0.000300667
0.000238055
0.000251903
0.000287832
0.00029823
0.000286809
0.000260465
0.000275435
0.000259936
0.000268976
0.000261661
0.00027185
0.000335719
0.000311341
0.000321976
0.000361251
0.000288713
0.000300646
0.000293463
0.000253387
0.000234716
0.000232113
0.000267017
0.000265023
0.000209846
0.000199806
0.000199176
0.000223869
0.000239842
0.000270466
0.000247827
0.000254928
0.000220732
0.000259218
0.000283946
0.000276236
0.000243797
0.000251432
0.00029777
0.00032961
0.00023111
0.000279436
0.000354715
0.000271012
0.000269779
0.000286851
0.000241704
0.000262517
0.000280525
0.000285429
0.000235438
0.000235611
0.000248222
0.000260051
0.000319519
0.000237001
0.000234623
0.00025957
0.000287452
0.00027146
0.000254612
0.000299838
0.000316324
0.000257836
0.000230901
0.000302772
0.000260246
0.000266913
0.000278462
0.000285546
0.000278023
0.000254402
0.000247831
0.00026362
0.000239873
0.000292445
0.000313811
0.000309738
0.000269049
0.000227833
0.000247258
0.000299672
0.000275036
0.00023951
0.000253452
0.000308378
0.000281092
0.000200192
0.000278868
0.000278964
0.000227237
0.000278146
0.000210082
0.000234022
0.000328295
0.000274892
0.000219714
0.000257085
0.000261957
0.000283827
0.00030733
0.000417723
0.000407503
0.000266083
0.000285994
0.000319847
0.000265574
0.000258849
0.000327479
0.000292371
0.00020849
0.000205855
0.000225284
0.000222423
0.000246623
0.000274895
0.000208812
0.000260203
0.000366592
0.000353494
0.000322719
0.000307473
0.000290889
0.000213583
0.000221782
0.000283292
0.000258812
0.000249874
0.000238653
0.000230997
0.000241215
0.000236826
0.000235085
0.00028443
0.00029499
0.000252667
0.000249928
0.000219113
0.000262793
0.000284242
0.000344893
0.000366031
0.000300449
0.000256169
0.000254334
0.000267498
0.000306274
0.000292249
0.000269082
0.000262094
0.000269407
0.000304534
0.000329774
0.000247608
0.000272353
0.000332766
0.000257854
0.000263874
0.000322279
0.000390088
0.00033632
0.000357282
0.000346676
0.000272776
0.000266369
0.000296768
0.000323576
0.000234684
0.000260808
0.000360905
0.000256616
0.000239499
0.000259264
0.000329632
0.000324069
0.000294502
0.000250122
0.000336821
0.000346487
0.000380569
0.000484355
0.000517831
0.000345462
0.000274155
0.000304163
0.000297365
0.000358943
0.000344703
0.000328679
0.00035746
0.000395209
0.000426763
0.000453113
0.000302986
0.000322347
0.000353339
0.000405809
0.000508742
0.000533914
0.000505941
0.00043806
0.000456569
0.000428474
0.000360842
0.00026228
0.000369712
0.000293738
0.000294612
0.0003762
0.000356925
0.000340052
0.000306968
0.0002989
0.000329016
0.000323852
0.000294795
0.000317635
0.000339316
0.000365262
0.000409587
0.000492667
0.000462279
0.000348985
0.000417807
0.000416438
0.000401951
0.000433945
0.000380749
0.000543372
0.00052339
0.00045633
0.000444248
0.000367629
0.000328537
0.000404261
0.000410078
0.000428808
0.000394403
0.000363675
0.000456634
0.000491522
0.000450365
0.000338143
0.000271898
0.000301404
0.000373464
0.000312484
0.00028138
0.000327661
0.000393101
0.000344888
0.000262763
0.000266953
0.000295264
0.000319943
0.000310515
0.000337783
0.000339844
0.000337745
0.000530528
0.000474694
0.000475157
0.000537493
0.000520199
0.000434834
0.00039899
0.000375728
0.000433551
0.00062302
0.000583672
0.000357975
0.000314044
0.000402028
0.00034986
0.000351884
0.000292834
0.000307
0.000376684
0.000416579
0.000461917
0.000372423
0.000397747
0.000375975
0.000299514
0.00033555
0.000396669
0.000374815
0.000341697
0.000368065
0.000391006
0.00031165
0.000294646
0.000334328
0.000358268
0.000364465
0.000351322
0.000373019
0.000366913
0.000370206
0.000517879
0.000691436
0.000782425
0.000632933
0.000516268
0.000422132
0.000323094
0.000305776
0.00037737
0.000502819
0.000513017
0.000417012
0.000313541
0.000319718
0.000387223
0.000376949
0.000275038
0.000373942
0.000539902
0.000479797
0.000428368
0.000412928
0.0004742
0.000328908
0.000306378
0.000382295
0.000394697
0.000362959
0.000386393
0.00036593
0.000359744
0.000356138
0.000342842
0.00040106
0.000392549
0.000413491
0.000444817
0.000399258
0.000396365
0.000405077
0.000426804
0.000530674
0.000593556
0.000504757
0.000505443
0.000425038
0.000332168
0.000321393
0.000425528
0.000478227
0.00048822
0.000373691
0.000342089
0.000324782
0.00042052
0.000405274
0.000392695
0.000511657
0.000508369
0.000444573
0.00043973
0.000453147
0.000491912
0.000439108
0.000389603
0.000395427
0.000433727
0.000322377
0.000416681
0.000404573
0.000424156
0.000411771
0.000422419
0.000457685
0.000359643
0.00048294
0.000547608
0.000463915
0.000487195
0.000451824
0.000452043
0.000502584
0.000543564
0.00048258
0.000506604
0.000507359
0.000402547
0.000357179
0.000525292
0.000500191
0.000414338
0.000365502
0.000370139
0.000360448
0.000385859
0.000432605
0.000363885
0.000466395
0.000595674
0.000487653
0.000447916
0.000447531
0.000477941
0.000396701
0.000429086
0.000455916
0.000497624
0.000365961
0.000427121
0.000443159
0.000454291
0.000434441
0.000473396
0.000474403
0.000522887
0.000604697
0.000468695
0.000482751
0.000437746
0.000474895
0.000564736
0.000616752
0.000641371
0.000463582
0.000515472
0.000534165
0.000472366
0.000417079
0.00046063
0.000423761
0.000513942
0.00048801
0.00042314
0.000393416
0.000396563
0.00037209
0.000363454
0.000509115
0.000495165
0.00039208
0.000442155
0.00049266
0.000592151
0.000508127
0.000469042
0.00054443
0.000416025
0.000351518
0.000467129
0.000484977
0.000424279
0.000404781
0.000403773
0.000407604
0.000488133
0.000559598
0.000506442
0.000497973
0.00036392
0.000468651
0.000572325
0.000598989
0.000623793
0.000450737
0.000520778
0.000528029
0.000465825
0.000446684
0.000420765
0.000453141
0.000510827
0.00041644
0.000400597
0.000374947
0.000347621
0.000311221
0.000377144
0.000448742
0.000366959
0.000347347
0.000409378
0.000512273
0.0006221
0.000465935
0.000450556
0.000459668
0.000391019
0.000407152
0.000493767
0.000465379
0.000390772
0.000371471
0.000363525
0.000382915
0.000442475
0.000543621
0.000490798
0.000425266
0.000361843
0.000369429
0.000483843
0.000645196
0.000655461
0.000466448
0.000508179
0.000504978
0.000454893
0.000412836
0.000442704
0.000608882
0.000572807
0.000486715
0.000487133
0.000402954
0.000419614
0.000358627
0.000453994
0.000419421
0.000353621
0.000380593
0.000485495
0.000492214
0.000472704
0.000431506
0.000431022
0.000428688
0.000420241
0.000468317
0.000581344
0.000479819
0.000378552
0.000339764
0.000373068
0.000420533
0.000455144
0.000460656
0.000431252
0.000410381
0.000393778
0.00044484
0.000567635
0.000702852
0.000631735
0.000466113
0.000486709
0.000504686
0.000482719
0.000381303
0.000377718
0.000531568
0.000537689
0.000533991
0.000517349
0.000402432
0.000481344
0.000363581
0.000498971
0.000433544
0.000391592
0.000442715
0.000476069
0.000470221
0.000474049
0.000432342
0.000436201
0.000522283
0.000505314
0.000516975
0.000607728
0.000491217
0.000383355
0.000365127
0.000379808
0.000394332
0.00042514
0.000424473
0.000424646
0.000425385
0.000441295
0.000519246
0.000642397
0.000680817
0.000634344
0.000483738
0.000505379
0.000503627
0.000429466
0.000346864
0.000411885
0.000545204
0.00060318
0.000601715
0.000513609
0.000437824
0.000604863
0.000480999
0.000549874
0.000462174
0.000393837
0.000427734
0.000433573
0.000446309
0.00041395
0.000451763
0.000516795
0.00058076
0.000512099
0.000487143
0.000560376
0.000475863
0.000374503
0.000344357
0.000379226
0.000380095
0.000409642
0.000426032
0.000433627
0.000418932
0.000519393
0.000576423
0.000678139
0.000656437
0.00066748
0.000511808
0.000561409
0.000571207
0.000449666
0.000317113
0.000387052
0.000580218
0.000642132
0.000650886
0.000558215
0.000518262
0.000732901
0.000572342
0.000579282
0.000437687
0.000396729
0.000468061
0.000490258
0.000485017
0.000406493
0.000515249
0.000599777
0.00062458
0.000536599
0.000510772
0.000606829
0.000522171
0.000400665
0.000358349
0.000394998
0.000399633
0.00048719
0.000480633
0.000451248
0.000462218
0.000576589
0.000597604
0.000647913
0.000642691
0.000662355
0.000514001
0.00059883
0.000582407
0.000445516
0.000290433
0.000388058
0.000660274
0.000689609
0.000680531
0.000568934
0.000519914
0.000736974
0.000606046
0.000588037
0.000419092
0.000394422
0.00047015
0.000477941
0.000524753
0.000450513
0.000586788
0.00064047
0.000653512
0.000544956
0.000537825
0.00061642
0.000523682
0.000425801
0.000363882
0.00038992
0.000417267
0.000519155
0.00050375
0.000445611
0.000484349
0.000576517
0.000574328
0.000630185
0.000635573
0.000675053
0.000533033
0.000587703
0.000590148
0.000476564
0.000329837
0.000468375
0.000754051
0.000699535
0.000706532
0.000568195
0.000546472
0.000784786
0.000650715
0.000639501
0.000438684
0.000410493
0.000497365
0.000476021
0.000545948
0.000443729
0.000637078
0.000647392
0.000676706
0.000590203
0.000558524
0.000641354
0.000540823
0.000447197
0.00038155
0.000408687
0.000426352
0.000510717
0.000516036
0.000468243
0.000464669
0.00059637
0.000568004
0.000636478
0.000638439
0.000669868
0.000556631
0.00061868
0.00063999
0.000509704
0.000371812
0.0005292
0.000841496
0.00074032
0.000735123
0.000576635
0.000572044
0.0008134
0.000681727
0.000664113
0.000456726
0.000451467
0.000555984
0.00050948
0.000583714
0.000445145
0.000661514
0.000654845
0.00068898
0.000603833
0.000581729
0.000670183
0.000570451
0.000463296
0.000389649
0.00042285
0.00045128
0.000543857
0.000558558
0.000515622
0.000497438
0.000621465
0.000572893
0.000659834
0.000665253
0.000715447
0.000606589
0.000656931
0.000690561
0.000556739
0.000427133
0.00056347
0.00090094
0.000772946
0.000770722
0.000603966
0.000609173
0.000859738
0.000708825
0.000682668
0.000469382
0.000478116
0.000617302
0.000549119
0.000609981
0.000447634
0.000673746
0.00066215
0.000685077
0.000621523
0.000619727
0.000710022
0.000607047
0.000484719
0.000406153
0.000443669
0.000466742
0.000567282
0.000597518
0.000579846
0.000538132
0.000647877
0.000608645
0.000706199
0.000690908
0.000759369
0.000661497
0.000690841
0.000729416
0.000627586
0.000484084
0.000602872
0.000933408
0.000794031
0.000804968
0.000612603
0.000639842
0.000893375
0.000743815
0.000706541
0.000484934
0.000518116
0.000686479
0.000585775
0.000648426
0.000461985
0.000699576
0.00067482
0.000691713
0.00064765
0.00064915
0.000737335
0.000639874
0.000512928
0.000422122
0.000460245
0.000491077
0.000588146
0.000636303
0.000639681
0.000565607
0.000680832
0.000652037
0.000746426
0.000720957
0.000793482
0.000713895
0.000711157
0.000761553
0.00067664
0.000531696
0.000642699
0.000990004
0.000805875
0.000833958
0.000626885
0.000665057
0.000935659
0.000763667
0.000724868
0.000508784
0.000555337
0.000737644
0.000619443
0.000683987
0.000483341
0.000718639
0.000690472
0.000704748
0.000679602
0.000693163
0.000760509
0.000673336
0.00054421
0.000432764
0.00048293
0.000516018
0.000609801
0.000669073
0.000689912
0.000593599
0.000710613
0.000682323
0.000776474
0.000739328
0.000817121
0.000753692
0.000721804
0.00078021
0.000705466
0.000560456
0.000668077
0.00103909
0.000797045
0.000862871
0.000646071
0.000680357
0.000972786
0.000794485
0.000736547
0.000530137
0.000587343
0.000776446
0.000641383
0.000708973
0.000508559
0.000728227
0.000708993
0.000720953
0.000698035
0.000729806
0.000769014
0.000694953
0.000572877
0.000440997
0.000500111
0.000530044
0.000624116
0.000693068
0.000727804
0.000605689
0.000723712
0.000697108
0.000787442
0.000753425
0.000812129
0.000770782
0.000726746
0.000779312
0.000713394
0.000573253
0.000689748
0.00106834
0.000782705
0.000868419
0.000654823
0.000679994
0.000989832
0.000822611
0.000734724
0.000538661
0.000607532
0.000787127
0.000650456
0.000723175
0.000535534
0.000724945
0.000716177
0.000726948
0.000693496
0.000755131
0.000762563
0.000696328
0.000591471
0.000443803
0.000504472
0.000535075
0.000629416
0.000702285
0.000752258
0.000606176
0.000709525
0.000698089
0.000793203
0.000766243
0.000795529
0.000766584
0.00072243
0.000768652
0.00071541
0.000570659
0.000693629
0.00106812
0.000767371
0.000863681
0.000644823
0.000663113
0.000988435
0.000844156
0.000728636
0.000543481
0.000606193
0.000777952
0.00064967
0.000727309
0.000546409
0.000704761
0.000712793
0.000720978
0.000679351
0.000761479
0.000741514
0.000681473
0.0005978
0.000444004
0.000500974
0.000529329
0.000627562
0.000704203
0.000772394
0.000599749
0.000693602
0.000695104
0.000794622
0.000762192
0.000776326
0.000757677
0.000717129