/*--------------------------------*- C++ -*----------------------------------*\
  =========                 |
  \\      /  F ield         | OpenFOAM: The Open Source CFD Toolbox
   \\    /   O peration     | Website:  https://openfoam.org
    \\  /    A nd           | Version:  10
     \\/     M anipulation  |
\*---------------------------------------------------------------------------*/
FoamFile
{
    format      ascii;
    class       volVectorField;
    location    "20";
    object      U_0;
}
// * * * * * * * * * * * * * * * * * * * * * * * * * * * * * * * * * * * * * //

dimensions      [0 1 -1 0 0 0 0];

internalField   nonuniform List<vector> 
25600
(
(1.07998 -0.0130039 -0.00418264)
(1.07499 -0.00137879 0.0120212)
(1.07944 0.0123621 0.0190873)
(1.08179 0.0294308 0.0156653)
(1.089 0.0513415 0.00234967)
(1.09828 0.051808 -0.0100155)
(1.11018 0.0454365 -0.0118412)
(1.12436 0.0291325 -0.00875599)
(1.12427 0.0116758 -0.00360092)
(1.11685 -0.00169874 0.00170884)
(1.11484 -0.0101678 0.00331852)
(1.11425 -0.0177497 0.00761407)
(1.13034 -0.0255137 0.0133407)
(1.14325 -0.0296312 0.00754588)
(1.14275 -0.0282575 -0.00103179)
(1.14384 -0.00582295 -0.010721)
(1.12876 0.0122368 -0.0186574)
(1.12837 0.022234 -0.0116044)
(1.14319 0.0237921 -0.00304472)
(1.14454 0.0145585 0.00209491)
(1.15318 0.0126529 0.00711396)
(1.14973 0.003732 0.00268813)
(1.13837 -0.0112496 0.000252412)
(1.14334 -0.0294386 -0.000866496)
(1.1413 -0.0455232 -0.00124412)
(1.13608 -0.0466201 0.00693974)
(1.12828 -0.0387506 0.00876678)
(1.10861 -0.0231233 0.00453468)
(1.09705 -0.00513182 -0.0027118)
(1.10147 0.00360959 -0.0113925)
(1.11029 0.00666984 -0.0112313)
(1.12386 0.00344179 -0.00651476)
(1.12542 0.00259606 -0.00526636)
(1.11138 0.0147063 -0.00770411)
(1.10824 0.0236948 -0.0148782)
(1.10276 0.0241546 -0.01906)
(1.10661 0.0187292 -0.0173738)
(1.11093 0.00300367 -0.0187909)
(1.09681 -0.00718113 -0.0187889)
(1.08944 -0.00824282 -0.0150528)
(1.19266 -0.0101837 0.00328859)
(1.13338 -0.00611365 -0.00217809)
(1.07956 -0.00138583 -0.00197799)
(1.04728 0.00409473 0.00342314)
(1.04837 0.0128999 0.00810409)
(1.06959 0.0184446 0.00308971)
(1.11689 0.0275277 -0.0104356)
(1.16184 0.0275816 -0.0305746)
(1.18003 0.0254632 -0.0403615)
(1.17983 0.0172711 -0.0346566)
(1.17088 0.0176413 -0.0239791)
(1.16293 0.0203649 -0.0131899)
(1.16746 0.020974 -0.0153873)
(1.1554 0.0200447 -0.0292008)
(1.13595 0.0150374 -0.0297326)
(1.13898 0.0213756 -0.0168604)
(1.13766 0.0255658 0.0023954)
(1.16 0.0332549 0.0228767)
(1.16892 0.0217188 0.0287655)
(1.1382 -0.00708424 0.0276946)
(1.10473 -0.0288921 0.0223773)
(1.0623 -0.0509214 0.0127811)
(1.04333 -0.0521879 0.00640109)
(1.05997 -0.0488458 -0.0042541)
(1.09388 -0.0443535 -0.0147428)
(1.12102 -0.0267776 -0.026436)
(1.12402 -0.0129343 -0.0312207)
(1.10245 -0.000229874 -0.0230054)
(1.0798 0.00760504 -0.00895052)
(1.07702 0.0115898 0.00111333)
(1.0849 0.0241678 0.00326993)
(1.10382 0.0373948 -0.00218651)
(1.11083 0.0390778 -0.0132666)
(1.10463 0.0304041 -0.0157508)
(1.10701 0.00739454 -0.0111346)
(1.11438 -0.00495254 -0.00207144)
(1.1431 0.00201486 0.0109473)
(1.18819 0.00628396 0.0164612)
(1.22336 0.0115779 0.0158455)
(1.23204 0.00551122 0.0119799)
(1.09279 0.00938767 -0.00397375)
(1.06753 0.00788368 -0.0077566)
(1.04721 -0.00506934 -0.00484379)
(1.07693 0.0110376 0.00869606)
(1.12267 0.0400426 0.0180959)
(1.15066 0.0467615 0.0131623)
(1.16839 0.0406134 0.00435187)
(1.15369 0.024257 -0.0113817)
(1.12763 0.0153594 -0.0146675)
(1.10877 0.00951416 -0.00661471)
(1.1093 0.00138477 -0.00905045)
(1.12945 0.00064133 -0.01292)
(1.15294 0.00898008 -0.0214166)
(1.15081 0.00820173 -0.022151)
(1.14029 0.0110569 -0.004776)
(1.12742 0.0168999 0.0114743)
(1.10282 0.0139016 0.0144826)
(1.0917 0.0198858 0.00741624)
(1.06597 0.00577596 -0.00168134)
(1.03976 -0.00166606 -0.00398136)
(1.02432 -0.008316 -0.0153369)
(1.00831 -0.0389127 -0.0373811)
(1.00485 -0.0597137 -0.0568918)
(1.01085 -0.0738212 -0.0622606)
(1.03477 -0.0540874 -0.0474752)
(1.05244 -0.0176596 -0.0282919)
(1.05149 -0.00317909 -0.0108519)
(1.05843 -0.0033245 0.00133928)
(1.06681 -0.00880238 0.000427634)
(1.07518 -0.00776387 -0.0150216)
(1.07614 -0.00973272 -0.0340457)
(1.06259 -0.0197484 -0.0513519)
(1.06658 -0.0286786 -0.051894)
(1.10717 -0.0134806 -0.0323321)
(1.14545 0.00141794 -0.0140156)
(1.16694 0.00547726 0.0106144)
(1.14823 -0.0135081 0.0302208)
(1.11801 -0.0388626 0.0363686)
(1.12375 -0.0193826 0.0333924)
(1.11774 0.00497099 0.0138033)
(1.09907 -0.0101991 0.00270274)
(1.09879 -0.0326068 -0.00970134)
(1.07126 -0.0509792 -0.0240376)
(1.0647 -0.0235031 -0.0200553)
(1.11061 0.00800906 -0.0204358)
(1.17159 0.0131371 -0.0211479)
(1.19568 0.0118947 -0.0125437)
(1.16061 0.0129441 0.00216211)
(1.1026 0.0251927 0.0259209)
(1.07427 0.030918 0.0294818)
(1.07757 0.0126591 0.00580726)
(1.07971 -0.00537064 -0.0168982)
(1.07046 -0.00939499 -0.016181)
(1.04809 -0.00106812 0.0113301)
(1.02234 0.0321472 0.0304482)
(1.01766 0.0487847 0.0184506)
(1.04563 0.0536212 -0.0185738)
(1.10336 0.0530786 -0.0654944)
(1.14964 0.0248289 -0.0944268)
(1.13028 0.00763743 -0.0864519)
(1.08103 -0.00512275 -0.0726362)
(1.04476 -0.0187376 -0.0589502)
(1.02592 -0.0314519 -0.0460257)
(1.02537 -0.0497317 -0.0276165)
(1.03925 -0.0455389 0.00746201)
(1.05655 -0.0222448 0.0283864)
(1.06861 -0.00487154 0.0279088)
(1.06647 0.00199517 0.00442951)
(1.05998 0.0108508 -0.0253372)
(1.06821 0.0139853 -0.0329568)
(1.06791 0.0138272 -0.0313316)
(1.05841 0.01149 -0.0361895)
(1.04205 -0.000359681 -0.0311824)
(1.03403 0.00121115 -0.0184915)
(1.07512 -0.00660599 0.00693611)
(1.14761 -0.00742647 0.0354654)
(1.19246 -0.00841374 0.0289735)
(1.16478 -0.00206268 0.0143318)
(1.11582 0.0223987 0.00984012)
(1.09589 0.0134521 0.00309705)
(1.11846 -0.0241847 0.00290342)
(1.06793 -0.0246847 -0.00500568)
(1.04308 -0.0213774 -0.00695556)
(1.04101 0.00721452 -0.0154538)
(1.04819 0.0161334 -0.0361644)
(1.08135 0.0193115 -0.0408658)
(1.09584 0.0311958 -0.0293913)
(1.08862 0.022383 0.00102225)
(1.08061 0.0225392 0.029537)
(1.10602 0.0227937 0.0219182)
(1.16512 0.0103371 -0.0137736)
(1.17096 0.0258488 -0.0500892)
(1.11356 0.0389115 -0.0428374)
(1.06807 0.0343406 0.00770708)
(1.05545 0.0340446 0.0504234)
(1.04051 -0.00788184 0.0582381)
(1.04301 -0.0474997 0.03528)
(1.05009 -0.0627704 0.00262977)
(1.05799 -0.0434435 -0.0177121)
(1.07325 0.0180576 -0.00373338)
(1.09581 0.0514551 0.00164243)
(1.15234 0.055245 -0.00122467)
(1.21102 0.0287082 -0.0177386)
(1.22795 -0.00802264 -0.0459819)
(1.19929 -0.0163152 -0.0492305)
(1.14854 -0.0129157 -0.0477067)
(1.11201 -0.0220084 -0.0341666)
(1.08668 -0.0402862 -0.0243142)
(1.05608 -0.0366991 -0.0276156)
(1.03769 -0.025755 -0.0237642)
(1.04703 -0.0105733 -0.019906)
(1.07424 -0.00600718 -0.00227006)
(1.0911 -0.03469 0.0316749)
(1.07032 -0.0375364 0.045049)
(1.06633 -0.025864 0.0466711)
(1.08779 -0.00203158 0.0329492)
(1.12 0.0294684 0.00801642)
(1.16795 0.0426662 0.00148821)
(1.19718 0.0192847 -0.00320497)
(1.17289 -0.0142133 -0.00485867)
(1.13182 0.0178209 -0.00677038)
(1.09819 0.00143858 -0.00762295)
(1.09939 -0.0207826 0.00398855)
(1.09138 -0.0137664 0.0070647)
(1.05428 -0.0154547 -0.0127606)
(1.04409 -0.0102937 -0.010896)
(1.03475 0.00285224 0.0015495)
(1.02722 0.00024967 0.014508)
(1.05292 0.00523962 0.0304348)
(1.1124 0.00386776 0.0161444)
(1.16587 0.00627622 -0.0214758)
(1.16301 0.0394721 -0.0545372)
(1.11475 0.0394496 -0.0521728)
(1.08794 0.0105938 -0.0158204)
(1.10017 0.00494505 0.0266091)
(1.1171 -0.0139177 0.0489656)
(1.10294 -0.0256799 0.0548265)
(1.06155 -0.0341091 0.0352523)
(1.01045 -0.0382129 -0.00194004)
(0.981235 -0.0296438 -0.00897983)
(1.00382 -0.0354236 -0.0121753)
(1.05863 -0.0558022 0.017042)
(1.11588 -0.0818098 0.0423092)
(1.15681 -0.0751998 0.0188122)
(1.17083 -0.0361919 -0.0104865)
(1.15672 -0.0257639 -0.0448216)
(1.13904 -0.0455096 -0.0411364)
(1.13756 -0.0417889 -0.0256883)
(1.14221 -0.0101786 -0.0331183)
(1.14672 -0.0168576 -0.0247451)
(1.15108 -0.0299167 -0.0161332)
(1.12972 -0.0295986 -0.00384007)
(1.11119 -0.0263203 0.0142729)
(1.07775 0.0103676 0.0175199)
(1.0344 0.0108033 0.0141626)
(1.03334 0.000158141 0.0057571)
(1.06306 -0.00627188 -0.00168496)
(1.12049 -0.0133099 0.0136403)
(1.17946 -0.00884154 0.0013844)
(1.17567 0.00744232 -0.0169459)
(1.15255 0.0300079 0.0613109)
(1.15335 0.00426228 0.0501548)
(1.15452 0.0248362 0.0315564)
(1.17154 0.0849947 0.023082)
(1.13997 0.0552465 -0.00931954)
(1.06361 0.0161883 -0.0259184)
(1.03268 0.0294051 -0.0250105)
(1.00645 0.0235693 -0.0223507)
(1.03611 0.00646488 0.0239035)
(1.10861 0.00378696 0.0427224)
(1.10999 0.00535786 0.00524441)
(1.08943 0.0354038 -0.0362473)
(1.04144 0.0228143 -0.0585722)
(1.01231 -0.00934731 -0.0334252)
(1.02513 -0.0185667 0.0305533)
(1.06747 -0.0217034 0.0354483)
(1.06675 -0.0277218 0.00630153)
(1.0592 -0.057209 -0.00984652)
(1.05463 -0.0544499 -0.0168275)
(1.03404 -0.0137413 -0.00207109)
(1.07371 0.0220209 -0.00818855)
(1.09513 0.0256602 0.0143658)
(1.12064 -0.00316713 0.0307508)
(1.17065 -0.0262065 0.000626726)
(1.21199 0.000580168 -0.0248175)
(1.20271 0.0337901 -0.0633301)
(1.14075 0.00214204 -0.0610799)
(1.13446 -0.0374173 -0.0493889)
(1.17461 -0.03386 -0.0539625)
(1.22633 -0.0222612 -0.0410722)
(1.22478 0.00416131 -0.0329322)
(1.1331 -0.0127528 -0.0107734)
(1.05862 -0.0536927 0.00779925)
(1.03838 -0.0192647 0.0133124)
(1.02807 -0.0154336 0.00979776)
(1.06731 -0.0396313 -0.0055452)
(1.10375 -0.0347749 -0.00773197)
(1.09411 -0.00666095 0.0226119)
(1.09361 0.0190685 0.0236743)
(1.12086 0.0405917 0.0332359)
(1.12073 -0.029478 0.0160842)
(1.10048 -0.017972 0.0195955)
(1.11341 0.00400697 0.0126648)
(1.19446 0.0223875 -0.0265494)
(1.18612 -0.0198 -0.0509951)
(1.0826 -0.0442309 -0.0332619)
(1.06897 -0.033447 -0.0457764)
(1.02636 -0.0102731 -0.0578047)
(1.03578 -0.00954189 -0.00393894)
(1.11752 -0.0233608 0.00260996)
(1.10584 -0.0360903 -0.0493722)
(1.09715 -0.0382852 -0.0925026)
(1.05533 -0.0334016 -0.0754193)
(0.973939 0.0016065 0.0145387)
(0.966484 0.0205798 0.0773393)
(1.07441 0.0385769 0.00545009)
(1.10771 0.0547694 -0.0664876)
(1.07147 0.0325609 -0.0389284)
(1.01322 0.00188642 0.0330256)
(0.984552 -0.0353119 0.0645551)
(1.05359 -0.0362571 0.0368901)
(1.06886 -0.0215267 0.039531)
(1.10412 -0.0338816 0.0126916)
(1.14011 -0.0496829 -0.0268145)
(1.17959 -0.0223354 -0.0311463)
(1.22809 0.0224238 -0.0705903)
(1.17561 0.00778239 -0.0634421)
(1.12894 -0.0456101 -0.0401904)
(1.13134 -0.0783786 -0.0538916)
(1.16029 -0.0758905 -0.0617808)
(1.17509 -0.0206221 -0.0428203)
(1.17193 -0.00723163 -0.00497818)
(1.08158 -0.0424762 0.0235043)
(1.11447 -0.0094997 0.0176643)
(1.13304 -0.00477764 -0.0134889)
(1.07821 0.00843615 -0.0192681)
(1.0464 0.0504773 -0.00712064)
(1.0362 0.0715954 -0.0217273)
(1.04821 0.020838 -0.0344311)
(1.10811 -0.0221417 -0.0153193)
(1.09497 0.0101941 0.0119075)
(1.08106 0.0274491 0.00137988)
(1.09302 0.0517201 -0.0136238)
(1.17127 0.0487629 -0.0741498)
(1.1103 0.00823191 -0.051243)
(1.01619 0.0278204 0.00226448)
(1.08395 0.072691 -0.0272026)
(1.13134 0.0445796 -0.0324448)
(1.13623 -0.0362391 0.0341534)
(1.06729 -0.0435471 0.0451501)
(1.00868 -0.0212543 -0.00484695)
(1.0513 -0.0257056 -0.0352824)
(1.04449 -0.0626313 -0.0412153)
(0.996326 -0.0570422 -0.00491104)
(1.05262 -0.0802976 0.0333067)
(1.0921 -0.061022 0.0034851)
(1.11255 0.0336399 0.00310248)
(1.13831 0.053407 0.042511)
(1.05111 0.0244255 0.0500694)
(1.00168 -0.0337293 0.00523662)
(1.05205 -0.0410436 -0.00426308)
(1.0117 -0.0233027 0.0487148)
(1.01729 -0.0144552 0.0283327)
(1.05294 -0.0391031 0.0359351)
(1.07408 -0.039696 0.0381422)
(1.08945 0.00036835 -0.0335922)
(1.08281 -0.0144242 0.0164529)
(1.04671 -0.0467189 0.0448814)
(1.00014 -0.0400944 0.00917471)
(1.00962 -0.0555378 0.00565109)
(1.08723 -0.0233076 -0.024897)
(1.13639 0.00475701 -0.037362)
(1.09796 -0.0340267 0.0174612)
(1.18533 -0.0283869 -0.00158713)
(1.17456 -0.00722054 -0.017919)
(1.10119 -0.0292815 -0.00949131)
(1.05857 -0.0172243 -0.0514811)
(1.01249 0.00198596 -0.075367)
(0.991392 -0.0368498 -0.0415704)
(1.07601 -0.0438468 0.00665166)
(0.965502 0.0525177 -0.0198939)
(1.01012 0.0661989 0.0212557)
(1.08616 0.0661622 0.0553638)
(1.19082 -0.0115275 0.00446221)
(1.03448 -0.0183005 0.0374757)
(0.998009 0.00433786 0.0740791)
(1.16398 -0.00933763 0.00496379)
(1.18421 -0.0157337 -0.0517138)
(1.08975 0.0192588 -0.00339612)
(1.03925 0.0389157 0.00835556)
(1.05006 0.004547 -0.0158512)
(1.05099 -0.0504239 0.0308589)
(0.961874 -0.0407964 0.0196566)
(0.988675 0.009583 0.0109265)
(1.15254 -0.0284051 0.0293182)
(1.1241 0.0214733 -0.0183324)
(1.08365 0.0521488 0.00772954)
(1.09154 0.0203432 0.0416134)
(0.989646 0.0176213 0.0510398)
(1.00201 -0.0642327 0.000806594)
(1.1132 -0.0776346 -0.0585946)
(1.08434 -0.0463227 -0.0434069)
(1.00395 -0.0343408 -0.0582192)
(0.922737 -0.0145952 0.0048696)
(0.908253 0.0447768 0.00608962)
(0.917987 0.0580742 -0.0631553)
(0.961257 -0.00720155 0.0244837)
(0.984393 0.0116449 0.016674)
(0.962352 0.0513003 -0.00716947)
(1.0514 -0.0142876 0.0744025)
(1.05831 0.00433926 0.0741127)
(1.07752 0.0154151 0.0283912)
(1.12514 -0.0255517 0.0628099)
(1.0592 -0.0153148 0.0401681)
(1.06116 -0.0420835 0.0700566)
(1.08343 -0.0483888 0.0806202)
(1.00378 0.0375078 -0.0289029)
(0.996861 0.0614666 -0.0610497)
(0.94328 -0.0191464 -0.000628684)
(0.931723 -0.00803504 0.0202967)
(1.14464 -0.0271981 -0.0536017)
(1.1034 0.00186138 0.0080319)
(1.13132 0.0395009 0.0459567)
(1.08098 0.0415725 -0.037729)
(0.992341 0.0328495 0.018353)
(1.15766 -0.0277887 0.132122)
(1.25203 -0.019658 0.0135254)
(1.0882 0.0389203 -0.0292918)
(0.943984 0.0358983 0.0265126)
(1.04131 0.00947691 -0.00255012)
(0.973224 -0.00737836 -0.0452372)
(0.939024 -0.0487998 -0.0477882)
(0.868924 -0.0648066 -0.0357242)
(1.02739 -0.0562686 -0.0433989)
(1.10551 -0.0661371 -0.0510642)
(0.98204 0.0365895 -0.120303)
(1.09218 0.0712436 -0.101477)
(1.01412 0.0357501 -0.0130773)
(1.00891 0.00151307 0.0419095)
(0.905496 -0.0245894 0.039162)
(0.912925 -0.0269371 0.0525032)
(1.08729 0.013063 0.0277194)
(0.959539 0.0415861 -0.0412522)
(0.809088 -0.0236661 0.00349465)
(0.944126 0.000735557 -0.036176)
(0.950407 0.0411296 -0.0957048)
(0.927594 -0.0498901 0.0226752)
(1.01581 -0.0804669 0.0304464)
(1.08731 -0.0340095 0.0392747)
(1.04352 -0.113302 0.121677)
(0.952679 -0.00903587 0.0880489)
(0.968395 0.0590648 -0.0233943)
(1.02101 -0.0118145 -0.0441388)
(1.04449 0.0130004 0.0185454)
(1.09252 -0.0481551 0.103165)
(1.16605 -0.0725808 0.104197)
(1.13029 0.0487625 -0.0831183)
(1.17002 0.0455986 -0.0910509)
(1.1461 -0.0613288 -0.0121782)
(1.15953 -0.0718267 -0.0424992)
(1.06774 0.00199894 0.00978799)
(1.05425 0.0329653 -0.0141944)
(0.989332 0.0734613 -0.0971058)
(0.961298 0.00840589 -0.126538)
(1.14164 -0.0594436 0.0544218)
(1.18447 -0.0230555 0.0891377)
(1.13451 0.0609035 -0.0405768)
(1.06347 0.0583737 0.0032373)
(1.0984 -0.0096788 0.0537694)
(1.17631 0.0125321 0.0845991)
(0.988373 0.0483239 0.00343734)
(0.955271 -0.016993 -0.103947)
(1.0412 -0.121989 0.0172645)
(1.09214 -0.122492 0.0575784)
(0.898176 -0.0305325 -0.0103156)
(0.995322 0.0636042 -0.0732918)
(1.02628 0.0709877 -0.0628772)
(0.811887 0.00321223 -0.0261381)
(1.05116 -0.0115862 -0.0104088)
(0.807247 -0.0284935 0.0183926)
(0.850317 -0.0327506 0.00222008)
(1.01114 0.00409199 -0.0466856)
(0.855443 0.0120669 -0.0579527)
(0.909258 -0.034414 0.0335251)
(1.04423 0.0117547 -0.0424351)
(1.03653 0.0336628 -0.0123843)
(0.997749 -0.0318841 0.154474)
(0.996277 -0.0129703 0.0472716)
(0.997605 0.0388903 0.0253929)
(0.855702 0.0434639 0.079592)
(0.917183 0.0537404 -0.03237)
(0.891913 0.0347702 -0.114945)
(0.832467 -0.0208394 -0.067995)
(1.1245 -0.0415467 0.145888)
(1.08618 -0.102163 0.216078)
(0.93711 -0.038693 -0.0237553)
(0.99735 0.0328763 -0.160946)
(0.913588 -0.0120427 -0.0162396)
(0.922141 -0.0947401 0.00205393)
(1.10482 -0.0695976 -0.0188616)
(0.982164 0.0353577 -0.0514083)
(1.20034 0.049578 -0.00672162)
(1.10103 0.043212 -0.178183)
(1.10825 -0.034338 -0.153767)
(1.14179 -0.023551 0.0875801)
(1.14948 0.0285196 0.137355)
(1.21932 0.0386524 0.0617907)
(1.14822 0.00104268 0.00175448)
(1.04068 -0.0567535 0.0521302)
(0.915693 -0.0174827 0.0700766)
(0.965965 0.0337159 -0.100734)
(1.04327 -0.0315669 -0.106836)
(1.05752 -0.152381 0.0305527)
(1.03246 -0.106259 0.0512053)
(0.869579 -0.0294263 0.0332288)
(0.953154 0.032682 0.060433)
(0.884218 0.111723 0.0559824)
(0.951092 -0.0136647 -0.0087967)
(1.19204 -0.0511573 0.0281733)
(0.846094 0.0165565 -0.00902468)
(0.963527 -0.0607263 0.0537458)
(1.06815 -0.0220528 -0.0024476)
(0.917291 -0.000242029 -0.119549)
(1.00157 -0.0680214 -0.00315486)
(1.08515 0.00736384 -0.0388638)
(1.13951 0.00069823 0.00271389)
(1.04992 -0.0436209 0.0805855)
(0.886622 0.00470048 -0.0367224)
(0.90633 0.00799444 0.0266173)
(1.07111 -0.0355345 0.0749963)
(1.22623 0.0318312 -0.0224623)
(1.15561 0.108445 -0.088518)
(1.06371 -0.0392018 -0.0180439)
(1.18017 -0.0472527 0.103803)
(0.943977 0.0265981 0.0670692)
(0.791324 -0.0464728 -0.0543573)
(0.991127 -0.000169463 -0.0177412)
(0.865618 0.0432505 0.0233722)
(0.77372 -0.0812409 0.0480473)
(0.850328 -0.0706596 0.0299663)
(1.05569 -0.0986998 -0.0531114)
(1.22237 -0.0309061 -0.0606286)
(1.23206 0.0373569 -0.192844)
(1.10954 0.0254582 -0.0774341)
(1.0664 -0.0188334 0.0213374)
(1.28091 -0.0311192 0.0616245)
(1.13666 -0.000148318 0.0792922)
(1.03088 -0.0103309 0.0074246)
(1.01089 0.01076 0.116097)
(0.985497 -0.0238466 0.0726744)
(1.10219 -0.0582303 -0.137097)
(1.00469 -0.0316085 -0.0481832)
(0.848211 -0.080618 0.0829508)
(0.892925 -0.0448234 0.0325827)
(0.856909 0.0453365 -0.0418974)
(0.821656 0.119017 0.0802544)
(0.969426 0.108339 0.0449817)
(1.1054 -0.00694432 0.0189352)
(1.01834 0.00703084 0.0772446)
(0.931936 0.0681846 -0.105967)
(1.00736 -0.025924 0.0372213)
(0.993151 -0.0148953 -0.00643524)
(1.02987 -0.00938364 -0.12411)
(1.0397 -0.053647 0.029801)
(1.14211 0.0521657 0.0283835)
(1.05281 0.057676 0.071664)
(0.970971 0.022968 0.0668105)
(1.11023 0.0534393 0.0549214)
(1.10894 -0.00209015 0.0960911)
(1.14326 -0.0315701 -0.0312293)
(1.18349 0.0596776 -0.0715111)
(1.05641 0.0713009 -0.0752246)
(0.925835 -0.0474644 0.0306277)
(0.972201 -0.00494327 0.125893)
(0.882009 -0.00853112 0.0418767)
(0.762915 -0.0850603 -0.0395673)
(0.877897 -0.000457865 0.052176)
(0.842089 0.0498401 0.0838028)
(0.867371 -0.0434892 0.0644996)
(0.828307 -0.104729 0.0437462)
(0.935435 -0.0811929 -0.0863519)
(0.987898 -0.0377304 -0.113272)
(1.10123 -0.0102186 -0.111025)
(0.99594 -0.0336849 0.0979303)
(1.05195 -0.0781483 0.108046)
(1.19373 -0.036101 0.00528776)
(1.0993 0.0210465 0.0598294)
(1.10137 -0.00742215 -0.00254747)
(1.10897 -0.0355746 0.111986)
(1.12537 -0.0317187 0.0589731)
(1.06218 -0.0265999 -0.018504)
(0.931275 -0.00160073 -0.0306812)
(0.887764 -0.0449455 0.104342)
(0.884549 -0.0257366 -0.0139412)
(0.752565 -0.00468171 -0.166581)
(0.841901 0.0315417 -0.0909176)
(1.14874 0.0775803 -0.0672441)
(1.06094 0.0330166 0.0611822)
(0.916122 0.0427442 0.123005)
(1.04137 0.0755005 -0.0053192)
(0.944336 -0.0125566 0.0375127)
(0.738895 -0.0284491 -0.0528725)
(0.858952 -0.088851 -0.0617171)
(0.885716 -0.0790728 0.0864282)
(1.02698 0.0562859 -0.0516446)
(1.02892 0.0376288 0.0424348)
(0.923131 -0.0532903 0.262277)
(1.17712 -0.0224947 0.21373)
(1.08475 -0.0312292 0.067311)
(0.928504 -0.0135654 -0.0154614)
(0.990429 0.0766912 -0.0368586)
(0.94907 0.0932133 -0.036636)
(0.986413 -0.0280942 0.0529599)
(1.08917 -0.0117906 0.142016)
(1.03546 0.0126629 0.0769169)
(0.74649 -0.0874387 -0.065341)
(0.689431 -0.011449 -0.0703337)
(0.816666 0.0606031 -0.0345817)
(1.00624 -0.0215755 0.0135724)
(0.971849 -0.0901082 -0.0205607)
(0.84691 -0.0958163 -0.0178539)
(0.878895 -0.0391361 -0.0111113)
(0.831228 0.0221139 0.08328)
(0.743887 -0.0193078 0.176913)
(0.834451 -0.0525598 0.0792417)
(0.940964 -0.0176425 -0.0374206)
(1.06718 0.018727 0.0602658)
(1.0505 0.00748027 0.109436)
(1.02871 0.0195023 0.0896013)
(1.09965 0.0047181 0.0314381)
(1.09861 -0.0328565 -0.0553567)
(0.99186 -0.0210796 -0.0806176)
(0.963221 -0.0420849 0.024435)
(0.972158 0.0246052 -0.00928042)
(0.817842 0.0558705 -0.104376)
(0.907906 0.0660777 0.00493936)
(0.932981 0.0806633 0.0416432)
(0.947701 0.0321679 0.0599958)
(1.09217 0.0563967 0.15801)
(1.04163 0.0897277 0.0432597)
(0.889351 0.0277506 -0.0177434)
(0.742691 -0.00847622 -0.0488854)
(0.699721 -0.0737607 0.0550269)
(0.659637 -0.0702199 0.131485)
(0.973411 0.130821 -0.00972999)
(0.998319 0.0908542 0.0701791)
(0.912576 -0.0281961 0.23453)
(1.13975 -0.022825 0.10179)
(1.10701 0.00298966 0.0153628)
(0.986584 0.0238983 0.0435352)
(1.04938 0.071634 -0.012118)
(1.01697 0.0332044 -0.0201425)
(1.04221 -0.0657572 0.0582994)
(1.14409 0.00633073 0.10934)
(1.05104 0.0243402 -0.0309322)
(0.814242 -0.0986337 -0.0957684)
(0.74094 -0.0422805 -0.0149397)
(0.87922 0.00511382 0.0292732)
(0.988952 -0.03776 -0.0036381)
(0.923906 -0.0619518 -0.052068)
(0.974038 -0.0661824 0.00611507)
(0.878473 -0.0453224 0.0600857)
(0.787336 -0.00676648 0.165789)
(0.736397 -0.0356142 0.121683)
(0.777732 -0.0490041 0.0668416)
(0.859153 0.00383213 0.042503)
(1.01633 0.0106263 0.00572695)
(0.912719 0.0188163 0.147929)
(0.977766 0.0368728 0.0765972)
(0.994398 -0.0396728 -0.019791)
(1.02383 -0.0403054 -0.0147131)
(1.11187 0.0327002 -0.0811396)
(0.935659 -0.0357285 -0.0680029)
(0.891049 0.0362242 -0.0756858)
(0.931705 0.0624964 -0.130714)
(1.00634 0.0878685 0.0154194)
(0.902769 0.114129 0.0810766)
(1.03932 -0.0191133 -0.0787322)
(1.14383 0.0530968 -0.0747073)
(1.11724 0.117465 0.0465292)
(1.11221 0.065225 0.0163274)
(1.00359 0.0135022 -0.0935534)
(0.851053 -0.069581 0.0932492)
(0.754249 -0.0761522 0.124643)
(0.834088 0.0519571 0.0899096)
(0.78198 0.0497042 0.165659)
(0.883582 -0.0147118 0.163962)
(0.948416 -0.0635217 -0.0509439)
(0.94471 0.00357662 -0.0441422)
(0.958077 0.0346993 -0.0669414)
(1.082 0.079634 -0.0898251)
(1.00347 0.0506713 -0.0185738)
(0.880652 -0.0565216 0.154482)
(1.01217 0.0135626 0.195727)
(0.960661 0.00645132 0.0068722)
(0.874013 -0.0417674 -0.108759)
(0.774748 -0.0299346 -0.00809697)
(0.786418 -0.0185165 0.0367668)
(0.873527 -0.0297545 0.0781002)
(0.924944 -0.0112946 0.0250747)
(0.979837 -0.0261211 -0.00639399)
(0.833395 -0.00921963 0.0509797)
(0.951617 -0.0150144 0.15106)
(0.865648 -0.00846791 0.128838)
(0.745074 -0.0294669 0.0551893)
(0.94608 -0.040343 0.00796715)
(0.996359 0.0406776 0.0916032)
(1.041 0.0653877 0.145908)
(1.09177 0.0425669 0.0108706)
(0.974963 -0.0220657 -0.011071)
(0.913688 -0.0221379 -0.0226956)
(1.06573 0.0123307 -0.0712058)
(0.782677 -0.0124672 -0.033148)
(0.735466 0.0708609 -0.0733387)
(0.903729 0.0175708 -0.0158403)
(0.946432 0.0536905 0.105485)
(1.02229 0.0891958 0.0673588)
(1.06488 -0.0151632 -0.0463729)
(1.17065 0.00746535 0.0678675)
(1.14698 0.106974 0.14782)
(1.06977 0.105772 0.0411303)
(0.906211 0.0150918 -0.141113)
(0.88513 -0.0928649 0.019107)
(0.843327 -0.0678353 0.167826)
(0.900945 0.108512 0.0228933)
(0.842638 0.0735481 0.182757)
(1.09488 -0.0260887 0.149008)
(0.810896 -0.0463508 -0.0332159)
(0.837791 0.00595329 -0.00174917)
(0.953808 0.027667 -0.0774627)
(1.01803 0.0707237 -0.174155)
(1.1372 0.0654983 -0.0866848)
(0.708311 -0.0490525 0.213402)
(1.02062 -0.0109154 0.156301)
(0.841149 0.0289051 -0.0269354)
(0.779641 -0.0767789 -0.0311091)
(0.846101 -0.0387719 0.0275987)
(0.722866 -0.0109468 0.00493714)
(0.908492 -0.0159911 -0.0288725)
(1.0028 0.00992145 -0.0668458)
(0.944771 0.00558894 -0.0358839)
(0.86299 0.0182281 -0.0437742)
(0.862613 -0.00840709 0.179998)
(0.813776 0.0087386 0.163849)
(0.700218 -0.0201558 0.00338507)
(0.867674 -0.0526293 -0.0167199)
(0.982746 -0.0180424 0.105096)
(1.14781 0.0251664 0.0390105)
(1.12174 0.062011 -0.0298043)
(0.926135 -0.0197079 0.00023253)
(0.903624 -0.0310412 0.00907628)
(1.01107 0.0802813 -0.0558074)
(0.68728 0.0362924 -0.0902095)
(0.751133 0.0441027 -0.11801)
(0.734227 0.0366553 0.0616232)
(0.873468 0.0653016 0.0870622)
(0.923295 0.0436703 0.0884988)
(0.952617 -0.0208768 0.0275306)
(1.03949 0.0184078 0.147596)
(1.06981 0.13062 0.122549)
(1.09064 0.120607 0.0238404)
(0.982 0.0293476 -0.127071)
(0.925843 -0.0660701 -0.0372216)
(0.713282 -0.0745652 0.221902)
(1.06483 0.059721 -0.0337327)
(1.17374 0.0446653 0.109629)
(1.19332 -0.0404871 0.187507)
(0.876544 -0.0438793 -0.0494187)
(0.944311 -0.00545684 -0.0567287)
(0.87609 0.00170074 -0.0998718)
(1.06462 0.0302544 -0.19513)
(1.13653 0.0697669 -0.0330349)
(0.773658 -0.0170317 0.14189)
(0.931607 0.00231578 0.0594035)
(0.712342 0.0170812 -0.0603719)
(0.807424 -0.0755888 0.0349982)
(0.830869 -0.0503516 0.110769)
(0.723622 -0.0278959 0.0160513)
(0.971327 -0.00621039 -0.0991082)
(1.02516 -0.0199154 -0.0188184)
(0.88705 0.0195508 -0.0800602)
(0.841726 0.0435464 -0.0490188)
(0.840519 0.00667841 0.223324)
(0.911996 0.0266594 0.173991)
(0.86573 -0.0253543 0.0046817)
(0.870459 -0.0723363 0.131615)
(0.8608 -0.00386772 0.0935976)
(0.96383 0.0359881 -0.00816996)
(0.883616 0.114113 -0.133576)
(0.773949 0.0157003 -0.025727)
(0.845009 -0.0482079 0.0951712)
(1.16371 0.0560003 0.0175882)
(0.950271 0.00222958 -0.0545753)
(0.921825 0.0426398 -0.0842845)
(0.731261 0.0129078 0.116864)
(0.853573 0.0222751 0.159777)
(0.833906 0.0557107 0.135491)
(1.01159 -0.0440715 0.0642457)
(0.961545 0.0183299 0.0916317)
(1.04344 0.114827 0.0809234)
(1.07715 0.106518 0.00648253)
(0.972985 0.0404589 -0.0895805)
(1.04833 -0.0180506 0.0121131)
(0.741298 -0.0593863 0.192779)
(1.14786 -0.00195382 0.0568253)
(1.38848 -0.0125943 0.250374)
(1.07902 0.00542786 0.172962)
(0.756426 -0.0237005 -0.219138)
(0.820317 0.0126421 -0.0174817)
(0.8815 0.00148133 -0.0164482)
(1.14023 0.0440864 -0.0571154)
(1.04368 0.108977 0.0783358)
(0.816457 -0.0173794 0.0904831)
(0.797389 0.00596582 0.0191454)
(0.715686 0.0138955 -0.0761877)
(0.809801 -0.0893433 0.02578)
(0.777316 -0.0356002 0.0697173)
(0.753824 -0.0259116 -0.0299774)
(1.02017 -0.0143668 -0.0268641)
(0.969116 -0.001702 0.0381042)
(0.832789 -0.000864422 -0.0517054)
(0.834761 0.0454562 -0.00837654)
(0.837441 -0.0278936 0.21135)
(0.828369 -0.0212106 0.156787)
(0.919788 -0.0197566 -0.00113616)
(0.894236 -0.0851512 0.0876117)
(0.84465 -0.0235021 0.174174)
(0.809837 0.0218874 0.0522745)
(0.728521 0.0966406 -0.125197)
(0.732543 0.0103113 0.0477414)
(0.66766 -0.0574662 0.057695)
(1.19308 0.0145274 0.0262893)
(0.829198 0.0119124 -0.0708215)
(0.881325 0.09307 -0.0407425)
(0.836768 0.0327044 0.0629758)
(0.923608 0.00711344 0.19544)
(0.781724 0.0242334 0.109255)
(0.97534 -0.0579468 0.0754216)
(0.91882 -0.00025239 0.0961392)
(1.00026 0.0630043 0.0764456)
(1.09207 0.088733 -0.0351462)
(0.983292 0.0343575 -0.105307)
(1.01385 -0.028043 0.0136272)
(0.752785 -0.105242 0.167125)
(1.12011 -0.0768846 0.17052)
(1.13425 -0.00854887 0.27475)
(0.834871 0.0415586 0.0121902)
(0.75665 -0.0278735 -0.213608)
(0.723842 0.00287974 0.0757444)
(0.836213 -0.0459258 0.175996)
(1.00919 0.0509394 0.034758)
(1.05318 0.106436 -0.0327797)
(0.863814 0.019519 -0.00223876)
(0.817201 0.0167256 0.000832056)
(0.880477 -0.00715686 -0.0656663)
(0.792347 -0.0583827 0.0886234)
(0.816242 -0.0118871 0.113299)
(0.826443 -0.00949926 -0.0516786)
(0.99201 -0.0120807 -0.093853)
(0.87739 -0.00609491 0.0658096)
(0.673261 -0.00171001 -0.0508466)
(0.890676 0.0893074 -0.00802623)
(0.863583 0.0297316 0.175241)
(0.68899 0.0130223 -0.0202599)
(0.923601 -0.00922631 0.0143776)
(0.835006 -0.0890435 0.0616521)
(0.885746 -0.0194472 0.138685)
(0.799272 0.0538636 -0.0380774)
(0.714542 0.0997407 -0.163687)
(0.756835 -0.00660781 0.0405374)
(0.538834 -0.0952955 -0.000504798)
(1.07222 0.00453883 -0.0346997)
(0.656992 0.0676907 -0.0897698)
(0.792357 0.0749979 0.0785307)
(0.95294 0.00624886 0.0829111)
(0.830773 0.0207259 0.22483)
(0.790029 0.0212756 0.103929)
(0.829783 -0.068442 0.129672)
(0.876556 0.0165189 0.074213)
(0.985559 0.0832531 0.0286376)
(1.15302 0.106923 -0.129155)
(1.0401 0.0403312 -0.173555)
(1.02055 0.0309528 0.0475015)
(0.795924 -0.0734887 0.181854)
(0.929729 -0.0910584 0.137605)
(0.816404 0.0216895 0.174866)
(0.694964 0.0520834 -0.0379926)
(0.715075 -0.0401514 -0.0940258)
(0.7612 0.00952783 0.120368)
(0.522261 -0.0139761 0.222014)
(0.896016 0.0521367 -0.0226587)
(1.11112 0.0935085 -0.13053)
(0.937354 -0.00326569 -0.0551488)
(0.858341 0.00246914 0.0108263)
(0.964845 -0.0113058 -0.0244355)
(0.803184 -0.0426444 0.174828)
(0.796517 0.00966928 0.106111)
(0.891548 0.00366936 -0.121616)
(0.96605 0.0310233 -0.0673859)
(0.740231 0.0173831 0.190558)
(0.586008 -0.00882627 -0.125332)
(0.904974 0.068825 -0.0247257)
(0.833654 0.0214205 0.118384)
(0.724812 -0.0417449 -0.00897849)
(1.03114 -0.04955 0.0817953)
(0.753787 -0.0619475 0.0890907)
(0.785256 -0.00917913 -0.0127714)
(0.692292 0.0613894 -0.202069)
(0.753507 0.0855544 -0.214351)
(0.88393 0.00449391 0.00392697)
(0.517585 -0.119684 0.00846869)
(0.760504 0.00253618 -0.147593)
(0.619263 0.0668601 -0.121598)
(0.804063 0.0386796 0.125124)
(0.97298 -0.0270948 0.161519)
(0.747945 0.00919366 0.183781)
(0.867958 -0.00433221 0.0763077)
(0.712211 -0.0711054 0.148785)
(0.810593 0.0100642 0.0446589)
(1.00191 0.0459384 0.037723)
(1.16744 0.0794254 -0.0722017)
(1.03586 0.0438819 -0.132886)
(0.990912 0.0264791 0.0937697)
(0.826026 -0.0804271 0.204217)
(0.750127 -0.102312 0.0285193)
(0.636504 0.00745192 0.125293)
(0.680844 0.0325425 -0.0357004)
(0.58122 -0.0304474 -0.042845)
(0.822987 -0.00117428 0.117049)
(0.501378 -0.0183297 0.0983542)
(0.957041 -0.0304347 -0.0710776)
(1.00301 0.0466518 -0.0580075)
(0.863222 -0.00836615 -0.0443409)
(0.783734 0.0134163 0.00621961)
(0.914705 -0.0400677 0.0559734)
(0.692601 -0.0469252 0.188362)
(0.655654 0.0330725 0.161558)
(0.93512 0.00643515 -0.247103)
(0.961852 0.0644521 -0.0919791)
(0.688308 0.0280964 0.156969)
(0.604884 -0.00367703 -0.0569983)
(0.854396 0.0974263 -0.0584521)
(0.851376 0.0666917 0.0344007)
(0.776594 -0.0539053 0.0341917)
(0.960971 -0.01459 0.0547769)
(0.683389 -0.0503434 0.0601413)
(0.704144 -0.0348058 -0.0693291)
(0.700096 0.0150639 -0.260899)
(0.817669 0.0725549 -0.165756)
(0.952648 0.0136329 -0.0407063)
(0.499768 -0.0750576 0.047951)
(0.559625 -0.00391788 -0.113687)
(0.742579 0.0580359 -0.123418)
(0.928167 0.0162379 0.119257)
(1.01901 -0.0371963 0.196135)
(0.692328 0.0317179 0.155139)
(0.926819 0.0235054 0.0762065)