/*--------------------------------*- C++ -*----------------------------------*\
  =========                 |
  \\      /  F ield         | OpenFOAM: The Open Source CFD Toolbox
   \\    /   O peration     | Website:  https://openfoam.org
    \\  /    A nd           | Version:  10
     \\/     M anipulation  |
\*---------------------------------------------------------------------------*/
FoamFile
{
    format      ascii;
    class       volVectorField;
    location    "2.5";
    object      UMean;
}
// * * * * * * * * * * * * * * * * * * * * * * * * * * * * * * * * * * * * * //

dimensions      [0 1 -1 0 0 0 0];

internalField   nonuniform List<vector> 
102400
(
(0.255289 -2.53508e-05 -0.000176004)
(0.255134 3.51567e-06 0.00165299)
(0.254641 1.13902e-05 0.00187109)
(0.253997 -2.52696e-05 0.00207554)
(0.254322 -3.15168e-05 0.00038706)
(0.25457 -1.5734e-05 0.000452408)
(0.254734 6.32401e-06 0.0010478)
(0.25351 -4.0605e-06 0.00218272)
(0.254651 -1.40241e-05 0.00142453)
(0.253171 -3.44873e-05 0.000792642)
(0.254951 -2.56291e-05 0.00024412)
(0.25325 2.1192e-07 0.00126801)
(0.254496 4.05984e-06 0.00198931)
(0.252781 -2.08199e-05 0.00184335)
(0.254467 -4.4773e-05 0.000615211)
(0.254377 -4.28858e-05 0.000395349)
(0.255451 1.51341e-05 0.00139336)
(0.254832 -5.86182e-06 0.00228856)
(0.254653 -3.18213e-05 0.00184585)
(0.255476 -6.40963e-05 0.000519613)
(0.255432 -2.33427e-05 0.000382548)
(0.25634 -7.68519e-06 0.00129209)
(0.254455 4.09305e-06 0.00193625)
(0.256092 -3.77502e-05 0.001752)
(0.254611 -1.43052e-05 0.000186296)
(0.256323 -3.61736e-05 0.00035461)
(0.254802 4.66421e-06 0.000781013)
(0.255308 7.66436e-06 0.00202578)
(0.254209 -3.98008e-05 0.0010405)
(0.255524 -4.31659e-05 0.000256402)
(0.254778 -3.18544e-05 -0.000228333)
(0.25549 -9.42387e-06 0.00121099)
(0.254698 9.09789e-07 0.00180485)
(0.254422 -3.42042e-05 0.00191093)
(0.254973 -5.76839e-05 0.000319833)
(0.255265 -2.36689e-05 0.000762996)
(0.255134 2.58167e-06 0.000928645)
(0.254469 -1.18915e-05 0.00235166)
(0.25453 -3.01185e-05 0.00132763)
(0.255234 -4.76321e-05 0.000626469)
(0.609002 -0.000247711 0.000398225)
(0.608403 -0.000146385 0.00316727)
(0.608795 -0.000105697 0.00309233)
(0.606899 -7.59038e-05 0.00393541)
(0.607869 -0.000164597 0.000810692)
(0.60671 -0.000197409 0.00142413)
(0.608826 -8.87143e-05 0.00214768)
(0.604849 -0.000100705 0.00399982)
(0.608698 -9.08698e-05 0.00283252)
(0.604027 -0.000112175 0.00178304)
(0.608531 -0.000224986 0.000874649)
(0.603773 -0.000111335 0.00243296)
(0.607798 -0.000125736 0.00362233)
(0.603615 -8.31047e-05 0.00312179)
(0.607377 -0.000276523 0.0014046)
(0.606004 -0.000274984 0.000770611)
(0.609534 -0.000299112 0.00318076)
(0.608609 -0.000167821 0.00414167)
(0.608404 -0.000259592 0.00369168)
(0.609955 -0.000318059 0.00128511)
(0.608114 -0.000321255 0.00139127)
(0.611952 -0.000221839 0.00186095)
(0.607466 -0.000159265 0.00329128)
(0.612619 -0.000220528 0.00266198)
(0.608202 -0.000223491 0.000288956)
(0.612496 -0.000334356 0.00132476)
(0.607968 -0.000184043 0.0010501)
(0.610467 -0.000170493 0.00368214)
(0.607327 -0.00018426 0.00131455)
(0.610071 -0.000281506 0.000696192)
(0.607795 -0.000243508 -0.000467133)
(0.609535 -0.000275332 0.00242108)
(0.608638 -0.000119672 0.00323725)
(0.60748 -0.00019923 0.00343866)
(0.608288 -0.000233082 0.00129183)
(0.607937 -0.000275725 0.00181896)
(0.609161 -0.000143676 0.00237497)
(0.60795 -0.000102301 0.00500579)
(0.608561 -0.000203373 0.0024448)
(0.608717 -0.00020649 0.00210809)
(0.834086 -0.000418467 -0.000884764)
(0.832192 -0.00020784 0.00254153)
(0.833751 -0.000203874 0.00357861)
(0.829999 -0.000148464 0.00248151)
(0.833402 -0.000241623 -0.00064179)
(0.828992 -0.000287807 -0.00064112)
(0.834305 -0.000139116 0.0024565)
(0.827175 -0.000157803 0.00442873)
(0.833651 -0.000138628 0.00241859)
(0.826882 -0.000129338 -0.000377624)
(0.833732 -0.000330305 -0.000549945)
(0.827956 -9.77924e-05 0.00294755)
(0.831927 -0.000270279 0.00460045)
(0.826905 -0.000108245 0.00290277)
(0.831121 -0.000445559 -0.000588672)
(0.82986 -0.000434498 -0.000253036)
(0.833705 -0.000482465 0.00250617)
(0.831492 -0.000340772 0.00374055)
(0.832693 -0.000509139 0.00242548)
(0.8337 -0.000511287 -0.00200895)
(0.832229 -0.000576424 -0.000292034)
(0.836636 -0.000483138 0.00105714)
(0.831963 -0.000316177 0.00386036)
(0.837586 -0.000522989 0.000831677)
(0.83293 -0.000365254 -0.00127761)
(0.838582 -0.000669989 -0.00191371)
(0.832824 -0.000311052 0.0016217)
(0.836692 -0.000410901 0.00350394)
(0.830584 -0.000308659 0.00136647)
(0.834171 -0.000491609 -0.00136483)
(0.831845 -0.000400813 -0.0024149)
(0.832991 -0.000499557 0.00112476)
(0.832347 -0.000166671 0.00369246)
(0.830303 -0.000364083 0.00155307)
(0.831981 -0.000359037 -3.12754e-05)
(0.831138 -0.000456972 -0.000796421)
(0.83292 -0.000329021 0.0032813)
(0.832732 -0.000275062 0.00532083)
(0.833452 -0.000373071 0.00244638)
(0.832566 -0.000270963 -0.000100225)
(0.951962 -0.00040814 -0.00441546)
(0.950659 -3.74807e-05 -0.000455317)
(0.952732 -0.000106698 0.00314487)
(0.94816 8.01052e-05 0.000446144)
(0.951384 -0.000162756 -0.00295493)
(0.946931 -7.50148e-05 -0.00478135)
(0.952871 -0.000156743 0.000581228)
(0.947351 0.000133593 0.00256731)
(0.95288 -7.87378e-05 0.00208044)
(0.9452 0.000107539 -0.00384032)
(0.952217 -0.0003861 -0.0040841)
(0.947362 4.81829e-05 0.000606175)
(0.952466 -0.000289868 0.00390594)
(0.946871 0.000127318 0.00192188)
(0.949434 -0.000553149 -0.00174321)
(0.947251 -0.000332407 -0.00422999)
(0.951826 -0.000567442 0.00133978)
(0.950105 -0.000284782 0.00226087)
(0.951113 -0.000582718 0.00197866)
(0.950331 -0.000559979 -0.00692342)
(0.951522 -0.000712996 -0.00407574)
(0.953916 -0.000533811 -0.00300613)
(0.9511 -0.000390176 0.00260353)
(0.954538 -0.000528764 -0.00227845)
(0.950691 -0.000320685 -0.00553145)
(0.954972 -0.000728211 -0.00787463)
(0.950756 -0.000327301 -0.00113707)
(0.955181 -0.000253545 0.00055946)
(0.948464 -0.000153715 0.000813501)
(0.949834 -0.000414243 -0.00512282)
(0.948866 -0.000310572 -0.00630085)
(0.949691 -0.000509349 -0.00185768)
(0.951129 -3.11846e-06 0.00324895)
(0.948919 -0.000241884 -0.000269708)
(0.949288 -0.000218963 -0.00301713)
(0.948985 -0.000259741 -0.00481281)
(0.950807 -0.000316517 0.000655648)
(0.949943 -0.000299836 0.00223603)
(0.950611 -0.000235098 0.00221245)
(0.94849 -8.54008e-05 -0.00497666)
(1.00082 -7.48228e-05 -0.00458013)
(0.998882 0.000376915 -0.00312139)
(1.00228 8.64019e-05 0.00418216)
(1.00015 0.000632644 5.46123e-05)
(1.00313 0.000113474 -0.00354794)
(0.997953 0.0005037 -0.00763876)
(1.00348 -3.21069e-05 -0.000592242)
(1.0004 0.000719002 0.00200596)
(1.00469 0.000191456 0.00354289)
(0.999281 0.000751095 -0.00487507)
(1.00287 -0.000222059 -0.00572835)
(1.00047 0.000433419 -0.0026807)
(1.00366 -4.77536e-05 0.00283223)
(1.00137 0.000700247 0.0016085)
(1.00179 -0.000253379 -0.00323295)
(0.999389 0.000192733 -0.00700153)
(1.00132 -0.000519507 -0.000699718)
(1.00382 -2.28917e-05 0.00175839)
(1.00331 -0.000413314 0.00245492)
(1.00155 -0.000118276 -0.00635614)
(1.00146 -0.00066088 -0.00692184)
(1.00244 -0.000111832 -0.0037028)
(1.00304 -0.000180707 0.00166907)
(1.00255 0.000140394 0.000457682)
(0.999855 9.60165e-05 -0.00399263)
(1.00009 -0.000229387 -0.00806719)
(0.999542 -7.93084e-05 -0.00339992)
(1.00166 -4.60526e-05 0.000478863)
(1.00055 0.000338164 0.000645812)
(0.997945 0.000179548 -0.00625262)
(0.997577 0.000143839 -0.00684945)
(0.998325 -0.000144406 -0.00425406)
(1.00082 0.000377333 0.00333959)
(0.999294 0.000311681 4.97758e-05)
(0.998864 0.000267068 -0.00303305)
(0.997656 0.000100151 -0.00710438)
(0.999632 3.28385e-05 -0.000623783)
(1.00061 0.000137606 0.00216528)
(1.00349 0.000132506 0.00361125)
(0.998694 0.000583842 -0.0045362)
(1.01873 0.000333841 -0.00225019)
(1.01652 0.000777808 -0.000949838)
(1.02094 0.000121328 0.00480853)
(1.02118 0.00119622 0.00441113)
(1.02065 0.000502941 0.00122048)
(1.0187 0.00103944 -0.00324813)
(1.02095 0.000157536 0.00141109)
(1.02104 0.0010257 0.00370012)
(1.02473 0.000433997 0.00592916)
(1.02186 0.00123714 -0.00238513)
(1.02193 0.000264517 -0.00312158)
(1.02108 0.000814576 -0.00255674)
(1.02219 0.000173078 0.00406077)
(1.02417 0.00113276 0.00237094)
(1.02217 0.000336777 -0.0014395)
(1.0193 0.00085028 -0.00453842)
(1.0197 -5.24461e-05 -0.00143921)
(1.02153 0.000314539 0.00299147)
(1.02025 0.000265581 0.00315303)
(1.02072 0.000707112 -0.00115829)
(1.01743 1.57432e-05 -0.00582496)
(1.01797 0.000328355 -0.00205903)
(1.02027 0.000392217 0.00346448)
(1.01987 0.000774227 0.00314191)
(1.01861 0.000729182 -0.000799404)
(1.01589 0.000462572 -0.00498581)
(1.01658 0.00034109 -0.00158219)
(1.01794 0.000292913 0.00337083)
(1.01979 0.000853108 0.00352769)
(1.01736 0.000960438 -0.00321987)
(1.0155 0.000662764 -0.00339542)
(1.01607 0.000361241 -0.00443099)
(1.01731 0.00071781 0.00501)
(1.01942 0.000919648 0.000307628)
(1.0179 0.000874209 -0.000747893)
(1.0159 0.000588445 -0.00623661)
(1.01739 0.000361379 0.000805899)
(1.01924 0.000564455 0.00218927)
(1.02166 0.00058754 0.00662436)
(1.01755 0.00124715 -0.00110734)
(1.02582 0.000580523 -0.00113301)
(1.02537 0.000974363 0.000644385)
(1.0279 0.000256194 0.00666421)
(1.02816 0.00144682 0.00521562)
(1.03039 0.000937374 0.00383644)
(1.02583 0.00148771 -0.00195726)
(1.02827 0.000384248 0.00342312)
(1.02811 0.00100569 0.00426153)
(1.03207 0.00065539 0.00830378)
(1.02807 0.00159526 0.00159448)
(1.02857 0.000661601 0.00146043)
(1.0267 0.00103851 0.000253069)
(1.02776 0.000204658 0.00449505)
(1.02838 0.00130488 0.00441521)
(1.02947 0.000836841 0.00149315)
(1.02424 0.00140894 -0.00166568)
(1.02558 0.000415855 -0.000302989)
(1.02628 0.000511521 0.00599388)
(1.02832 0.000917729 0.00421123)
(1.02677 0.0012576 0.00185691)
(1.02512 0.00101249 -0.00161193)
(1.02334 0.000552917 0.000492879)
(1.02672 0.000643415 0.00520014)
(1.02794 0.00091219 0.00540552)
(1.02666 0.00113558 0.00244227)
(1.02417 0.000848935 -0.00129434)
(1.02377 0.000465902 0.00210084)
(1.0265 0.000491553 0.006106)
(1.02815 0.00105268 0.0064653)
(1.02635 0.0014153 0.00210641)
(1.02489 0.00110477 -0.00078468)
(1.0229 0.000742942 -0.000372877)
(1.02616 0.000785101 0.00485585)
(1.02614 0.00127882 0.00427433)
(1.02586 0.0013368 0.00271411)
(1.02318 0.0010642 -0.00209748)
(1.02355 0.000433798 0.00122552)
(1.02591 0.000689014 0.00436225)
(1.0281 0.000802095 0.00609012)
(1.02778 0.00160496 0.000978457)
(1.02778 0.00107855 -0.00104021)
(1.02835 0.000863324 0.00145297)
(1.02894 0.000370017 0.00467174)
(1.03137 0.00110329 0.00584793)
(1.03114 0.0010517 0.00255284)
(1.03015 0.00158066 0.00142508)
(1.02845 0.000379551 0.00128679)
(1.03031 0.000740881 0.00477141)
(1.03102 0.000652638 0.00505808)
(1.03237 0.00174197 0.00315106)
(1.0283 0.000942257 -5.44769e-05)
(1.02828 0.000962256 0.00165574)
(1.02826 0.000222098 0.00389016)
(1.0302 0.00111102 0.00561518)
(1.03049 0.00122632 0.00214437)
(1.02852 0.00166914 0.000948724)
(1.02777 0.000742378 0.00157149)
(1.02963 0.000679265 0.00609233)
(1.02922 0.00116643 0.00545258)
(1.03118 0.00171407 0.0042273)
(1.0267 0.00171571 0.00068416)
(1.02813 0.000833198 0.00230385)
(1.0269 0.000713982 0.00510789)
(1.02973 0.000978227 0.00632397)
(1.02821 0.00151217 0.00324968)
(1.02723 0.0011506 0.00155428)
(1.02506 0.000564951 0.00165448)
(1.02713 0.000217057 0.00529988)
(1.02821 0.00102914 0.00540234)
(1.02843 0.00152216 0.00258555)
(1.02695 0.00138069 -0.000406529)
(1.02434 0.000949465 -0.000179219)
(1.02702 0.000543765 0.00331354)
(1.02857 0.00128495 0.00396047)
(1.02901 0.00152617 0.00173048)
(1.02733 0.0014605 -0.00021994)
(1.02643 0.000610795 0.000287028)
(1.02889 0.000750968 0.00518119)
(1.02958 0.000776197 0.00376359)
(1.03232 0.00178035 0.00276679)
(1.0275 0.00126769 0.00126946)
(1.02707 0.000777654 0.00106944)
(1.02736 5.685e-05 0.0041119)
(1.02957 0.000737275 0.00353178)
(1.03039 0.00094561 0.00274865)
(1.02874 0.00163652 0.000776616)
(1.02694 0.000228094 0.00104465)
(1.02901 0.00033505 0.00413775)
(1.02948 0.000231591 0.00404731)
(1.03085 0.00143908 0.00340765)
(1.02803 0.00112472 0.00107626)
(1.02776 0.000759371 0.00207561)
(1.02758 8.79896e-05 0.0039599)
(1.02989 0.000778116 0.00487446)
(1.02908 0.00130607 0.00418029)
(1.02847 0.00177468 0.00199709)
(1.02667 0.000737159 0.00308573)
(1.02878 0.000724311 0.00494463)
(1.02791 0.00103787 0.00567105)
(1.03024 0.00190196 0.00413141)
(1.02672 0.00183511 0.00241389)
(1.02802 0.000966689 0.00261666)
(1.02639 0.00057242 0.00514548)
(1.0296 0.000891408 0.00519989)
(1.02836 0.00163623 0.00352259)
(1.02804 0.00140529 0.00193669)
(1.02541 0.00067068 0.00226739)
(1.02806 0.000136641 0.00479747)
(1.02793 0.000834911 0.0048889)
(1.02872 0.00154089 0.00397543)
(1.02633 0.00140599 0.00109102)
(1.02563 0.000841575 0.00178766)
(1.02636 -3.40906e-05 0.00404251)
(1.02804 0.000808287 0.00437394)
(1.02861 0.00125466 0.00252739)
(1.0277 0.00155106 0.000947765)
(1.02671 0.000480447 0.00141957)
(1.02768 0.000397781 0.00305259)
(1.02836 0.000393778 0.00389254)
(1.02953 0.0016511 0.00264059)
(1.02305 0.0010297 -3.25439e-05)
(1.02262 0.000719985 0.00130776)
(1.02285 -0.000290385 0.00181143)
(1.02344 0.00042054 0.00289618)
(1.02388 0.000775858 0.00186555)
(1.02373 0.00165488 0.00103321)
(1.02295 0.000200031 0.00099214)
(1.02325 7.14094e-05 0.00256789)
(1.02397 -0.000118471 0.0028234)
(1.02454 0.00124579 0.00232096)
(1.0241 0.00100231 0.000872725)
(1.02343 0.00074495 0.00158557)
(1.02324 -0.000226524 0.00209338)
(1.02421 0.0005568 0.00353743)
(1.02477 0.00107282 0.00172595)
(1.02413 0.00180462 0.00172627)
(1.02335 0.000588955 0.000557134)
(1.02265 0.000501095 0.00281008)
(1.02375 0.00057373 0.00218859)
(1.02404 0.00166188 0.00259479)
(1.02338 0.00158076 0.000869054)
(1.02294 0.000850741 0.00216753)
(1.0229 0.000129535 0.00279915)
(1.0239 0.000496326 0.00403812)
(1.02417 0.00135284 0.00207786)
(1.024 0.00133053 0.00161212)
(1.02282 0.000579027 0.00112531)
(1.0231 -5.12925e-05 0.00298299)
(1.02355 0.000450517 0.00269438)
(1.02376 0.00146174 0.00291896)
(1.02289 0.00134131 0.000847663)
(1.02216 0.000738775 0.00183914)
(1.02245 -0.000301925 0.00242311)
(1.02299 0.000437914 0.00354931)
(1.02343 0.00095885 0.00220797)
(1.02297 0.00143996 0.00138902)
(1.02192 0.00029937 0.000617175)
(1.02189 5.21499e-05 0.0019188)
(1.02245 -7.1003e-05 0.00203169)
(1.02333 0.00133797 0.00166271)
(1.01693 0.000766186 -0.000608293)
(1.0163 0.000371598 -1.97102e-05)
(1.01631 -0.000566935 0.000253236)
(1.01628 -0.000100659 0.000917291)
(1.01674 0.000377992 -0.000185424)
(1.0169 0.00114202 -0.000277103)
(1.01666 -1.74092e-05 -0.000546811)
(1.01629 -0.000311641 0.000720155)
(1.01655 -0.000461148 0.000537047)
(1.01687 0.000662543 0.000408941)
(1.01725 0.000695976 -0.000670362)
(1.01652 0.000381968 -1.98639e-05)
(1.01673 -0.000463172 0.000405357)
(1.01635 -3.32628e-07 0.00118116)
(1.01737 0.00059653 0.000160518)
(1.01693 0.00124033 -0.000132682)
(1.01709 0.000356975 -0.000324175)
(1.01621 2.53352e-05 0.00104336)
(1.01679 9.8576e-05 0.000697826)
(1.01691 0.00105135 0.000627219)
(1.0174 0.00124084 -0.000260826)
(1.01662 0.000495555 0.000422991)
(1.01673 -0.000163541 0.00104017)
(1.01659 4.03898e-06 0.00153969)
(1.01724 0.000880472 0.000650975)
(1.01712 0.000922097 0.000103982)
(1.0167 0.000337978 0.000151319)
(1.01657 -0.000349955 0.00119724)
(1.01651 2.24993e-05 0.00101297)
(1.0172 0.00101845 0.00078997)
(1.01716 0.000996915 -0.000255419)
(1.01657 0.000506947 0.000187444)
(1.01637 -0.000497169 0.000673482)
(1.01634 1.18837e-05 0.00116247)
(1.0169 0.00061157 0.000335151)
(1.01669 0.0011271 -8.08879e-05)
(1.01664 0.000220734 -0.000215083)
(1.01601 -0.000189326 0.000793729)
(1.01629 -0.000331364 0.000599847)
(1.01651 0.000794803 0.000437675)
(1.01165 0.000411648 -0.000945023)
(1.01156 0.000172353 -0.000252708)
(1.01148 -0.000624319 -0.000172806)
(1.01122 -0.000332673 0.000216296)
(1.01134 2.57734e-05 -0.000735299)
(1.01167 0.000772167 -0.000710542)
(1.01175 -9.2549e-05 -0.000734794)
(1.01145 -0.00038703 2.00658e-05)
(1.01134 -0.00059646 -0.000193478)
(1.01144 0.00028765 -0.000523338)
(1.01181 0.000429793 -0.00102197)
(1.01163 0.000213517 -0.000588717)
(1.01157 -0.000466854 -0.000160637)
(1.01136 -0.000237937 8.73022e-05)
(1.01157 0.000249986 -0.000598071)
(1.01179 0.000827969 -0.000745804)
(1.01186 0.000219731 -0.0005936)
(1.01147 -0.000140251 0.000154331)
(1.0115 -0.000124565 -6.53442e-06)
(1.01152 0.000556295 -0.000384237)
(1.01194 0.00084255 -0.00069437)
(1.01178 0.000278518 -0.000295502)
(1.01165 -0.000245851 0.00028079)
(1.01142 -0.000248197 0.000278499)
(1.01165 0.000484832 -0.000204644)
(1.0118 0.000596113 -0.000496868)
(1.01169 0.000144855 -0.000276637)
(1.01154 -0.000413367 0.000292242)
(1.0113 -0.000252348 0.000130754)
(1.01164 0.000571996 -0.000184506)
(1.01185 0.00062842 -0.000652786)
(1.01184 0.000303178 -0.000227066)
(1.01155 -0.000581313 9.73087e-05)
(1.01133 -0.000260851 0.000198152)
(1.01157 0.000223042 -0.000313438)
(1.01169 0.00073919 -0.000588897)
(1.01174 3.30908e-05 -0.000481908)
(1.01142 -0.000308915 0.000163334)
(1.01119 -0.000553992 -0.000100456)
(1.01131 0.000389244 -0.0002241)
(1.00902 0.000249436 -0.000709015)
(1.00912 0.000131357 -0.000182221)
(1.00912 -0.000471976 -0.000120389)
(1.00893 -0.000333455 4.20477e-05)
(1.00878 -7.92252e-05 -0.000593)
(1.00899 0.00052032 -0.000553916)
(1.00918 -6.43626e-05 -0.000433427)
(1.00912 -0.000326318 -8.56643e-07)
(1.00892 -0.000533613 -0.000189382)
(1.00885 0.000105873 -0.000525997)
(1.00901 0.000259549 -0.000702183)
(1.00913 0.000156829 -0.000431844)
(1.0091 -0.000374016 -6.84236e-05)
(1.00895 -0.000280903 -7.26256e-05)
(1.00883 8.17233e-05 -0.00051156)
(1.00906 0.000554679 -0.000611949)
(1.00917 0.000184465 -0.000358999)
(1.00913 -0.000125462 7.52039e-05)
(1.00898 -0.000160625 -7.67147e-05)
(1.00886 0.000313196 -0.000387225)
(1.00909 0.000598542 -0.000568365)
(1.00921 0.000219144 -0.000192605)
(1.00917 -0.000188484 0.000130377)
(1.00897 -0.000283044 5.12498e-05)
(1.00893 0.000252682 -0.00036333)
(1.0091 0.000410729 -0.000446598)
(1.0092 0.000106818 -0.000230948)
(1.00916 -0.000309397 0.000133281)
(1.00892 -0.000291393 -7.90262e-05)
(1.00897 0.000332184 -0.000318704)
(1.00915 0.000404082 -0.000577025)
(1.0093 0.000203507 -0.000166195)
(1.0092 -0.000468734 4.21455e-06)
(1.00897 -0.000296797 -2.12911e-05)
(1.00891 3.67378e-05 -0.000383829)
(1.00908 0.000512386 -0.0005536)
(1.00921 3.56906e-05 -0.000320468)
(1.00917 -0.000235873 5.00654e-05)
(1.0089 -0.000485943 -0.000168984)
(1.00883 0.000203731 -0.000319195)
(1.00818 0.000126191 -0.000392753)
(1.00833 9.40054e-05 3.97708e-06)
(1.0084 -0.000340136 5.24613e-06)
(1.00827 -0.000289199 0.000111193)
(1.00806 -0.000131769 -0.000343771)
(1.00816 0.000347384 -0.000271613)
(1.00838 -3.16397e-05 -0.000176942)
(1.0084 -0.000226372 8.51016e-05)
(1.00826 -0.000410697 -6.16283e-05)
(1.0081 1.7592e-05 -0.000318826)
(1.00818 0.00016923 -0.000374122)
(1.00833 0.000120852 -0.000210622)
(1.0084 -0.000235254 5.33457e-05)
(1.00826 -0.00023199 -6.00989e-06)
(1.0081 3.21742e-05 -0.000285291)
(1.0082 0.000376924 -0.000331506)
(1.00836 0.00016908 -0.000132172)
(1.00842 -7.78992e-05 0.000143883)
(1.0083 -0.00014018 2.23571e-06)
(1.00809 0.000164579 -0.000197187)
(1.00823 0.000419623 -0.000301585)
(1.00839 0.000165027 -1.09043e-05)
(1.00843 -0.000112156 0.000166826)
(1.00829 -0.000260614 9.24466e-05)
(1.00812 0.000128666 -0.000189827)
(1.00824 0.000279201 -0.000206988)
(1.00838 8.29152e-05 -3.95635e-05)
(1.00844 -0.000208903 0.000196829)
(1.00823 -0.000260457 1.64159e-05)
(1.00815 0.000184864 -0.000126645)
(1.00827 0.000259656 -0.000279612)
(1.00844 0.000169187 2.93971e-05)
(1.00846 -0.000351713 0.000120289)
(1.00826 -0.000256597 5.2931e-05)
(1.00812 -6.70966e-05 -0.00017343)
(1.00819 0.000334754 -0.000297141)
(1.00837 1.5284e-05 -9.11955e-05)
(1.00844 -0.000168317 0.000132716)
(1.00824 -0.000414086 -4.84e-05)
(1.00808 7.87424e-05 -0.00014738)
(1.00804 7.77702e-05 -0.000201623)
(1.00816 8.3752e-05 8.28937e-05)
(1.00826 -0.000211537 5.28675e-05)
(1.00818 -0.000221275 0.000131886)
(1.00797 -0.000122363 -0.000173873)
(1.00802 0.00024275 -0.000119576)
(1.0082 1.18936e-05 -4.9337e-05)
(1.00825 -0.000132985 0.000102301)
(1.00816 -0.000297101 1.61324e-05)
(1.008 -1.35734e-05 -0.000171775)
(1.00804 0.000113333 -0.000174089)
(1.00817 0.000110394 -9.66843e-05)
(1.00826 -0.000127991 9.72195e-05)
(1.00816 -0.000174923 3.101e-05)
(1.008 3.70672e-06 -0.00013742)
(1.00806 0.000250937 -0.000159763)
(1.00819 0.000146074 -2.71151e-05)
(1.00828 -3.18858e-05 0.00015172)
(1.00819 -0.000123061 4.23653e-05)
(1.00799 8.13516e-05 -6.55251e-05)
(1.00807 0.000290153 -0.000139739)
(1.00822 0.000131453 6.97252e-05)
(1.00828 -5.06942e-05 0.000171471)
(1.00819 -0.000207698 0.000125895)
(1.00802 5.37136e-05 -6.19077e-05)
(1.00808 0.000200101 -5.77261e-05)
(1.00821 7.62989e-05 5.25601e-05)
(1.00829 -0.000126854 0.000210216)
(1.00813 -0.000210105 7.97168e-05)
(1.00804 0.000101746 7.00951e-06)
(1.0081 0.000161265 -9.45569e-05)
(1.00824 0.000137627 0.000121259)
(1.00831 -0.000263337 0.000161514)
(1.00816 -0.000207774 0.000103555)
(1.00801 -0.000116938 -3.01629e-05)
(1.00803 0.000214447 -0.000124961)
(1.00819 2.18794e-05 2.42643e-05)
(1.00828 -0.000106394 0.000161742)
(1.00814 -0.000320007 2.43163e-05)
(1.00799 1.77928e-05 -2.70485e-05)
(1.00804 3.7591e-05 -0.000103669)
(1.00814 5.73854e-05 9.81961e-05)
(1.00823 -0.000134455 5.36598e-05)
(1.00818 -0.000177068 0.000113637)
(1.00801 -0.000119406 -8.66111e-05)
(1.00803 0.000154931 -5.626e-05)
(1.00817 2.82392e-05 -5.81728e-06)
(1.00823 -8.04472e-05 7.60635e-05)
(1.00817 -0.000211231 3.17372e-05)
(1.00804 -3.54874e-05 -0.000102656)
(1.00805 7.46887e-05 -8.36873e-05)
(1.00815 8.42119e-05 -6.16707e-05)
(1.00823 -5.74684e-05 8.14031e-05)
(1.00817 -0.000139562 2.4735e-05)
(1.00804 -1.21952e-05 -7.35031e-05)
(1.00807 0.000157732 -8.42954e-05)
(1.00817 0.000121828 -2.2985e-07)
(1.00825 -9.15328e-06 0.000117524)
(1.0082 -0.000102198 3.79957e-05)
(1.00803 2.5401e-05 -1.11792e-05)
(1.00807 0.000195736 -6.39464e-05)
(1.00819 9.68812e-05 7.76995e-05)
(1.00825 -1.60795e-05 0.000142008)
(1.0082 -0.000163187 0.0001109)
(1.00805 4.21058e-07 1.55552e-07)
(1.00808 0.000127462 5.48513e-07)
(1.00818 6.02854e-05 7.96746e-05)
(1.00827 -8.62597e-05 0.000176912)
(1.00815 -0.000172324 9.80763e-05)
(1.00806 4.00003e-05 6.31322e-05)
(1.0081 8.02881e-05 -2.95205e-06)
(1.0082 0.00010266 0.000135819)
(1.00828 -0.000198676 0.000156147)
(1.00817 -0.000169572 0.000102783)
(1.00805 -0.000137173 3.83649e-05)
(1.00804 0.000120847 -4.41027e-05)
(1.00816 1.65258e-05 6.179e-05)
(1.00825 -7.74518e-05 0.000142389)
(1.00816 -0.000254182 4.89881e-05)
(1.00802 -2.98672e-05 2.55666e-05)
(1.00806 1.46242e-05 -5.38534e-05)
(1.00814 4.48512e-05 8.66113e-05)
(1.00822 -7.78709e-05 3.88607e-05)
(1.00819 -0.000130818 7.99849e-05)
(1.00805 -0.000102755 -4.27009e-05)
(1.00805 0.000102079 -3.51112e-05)
(1.00816 4.1532e-05 3.00683e-06)
(1.00822 -3.62339e-05 4.08025e-05)
(1.00818 -0.000144397 2.3983e-05)
(1.00807 -3.84464e-05 -7.15776e-05)
(1.00807 5.27881e-05 -4.38957e-05)
(1.00815 7.03992e-05 -5.12663e-05)
(1.00822 -1.18992e-05 5.2553e-05)
(1.00818 -9.79337e-05 8.96305e-06)
(1.00807 -1.3516e-05 -4.57441e-05)
(1.00809 0.000104681 -4.90911e-05)
(1.00816 0.000100042 -2.04079e-06)
(1.00824 1.23255e-05 7.8614e-05)
(1.00821 -8.32866e-05 1.88211e-05)
(1.00806 -3.28775e-06 7.18752e-06)
(1.00809 0.000131128 -3.16663e-05)
(1.00818 7.39458e-05 6.2736e-05)
(1.00823 3.32023e-06 0.000103792)
(1.0082 -0.000120125 8.53466e-05)
(1.00808 -2.84419e-05 2.53214e-05)
(1.0081 7.7817e-05 2.17064e-05)
(1.00817 5.50211e-05 7.68857e-05)
(1.00825 -5.29271e-05 0.000137059)
(1.00817 -0.000136322 8.91568e-05)
(1.0081 8.66939e-06 7.89564e-05)
(1.00812 2.85675e-05 3.22059e-05)
(1.00819 7.98588e-05 0.000121964)
(1.00826 -0.000150992 0.00012937)
(1.00818 -0.000138206 8.3864e-05)
(1.00808 -0.000133252 6.05437e-05)
(1.00807 5.20923e-05 -9.37183e-06)
(1.00815 1.33663e-05 6.51355e-05)
(1.00824 -5.79858e-05 0.00011018)
(1.00817 -0.000192387 4.80534e-05)
(1.00806 -5.31791e-05 4.26161e-05)
(1.00808 2.00097e-06 -2.97344e-05)
(1.00813 3.44217e-05 6.89351e-05)
(1.00821 -4.38196e-05 2.33825e-05)
(1.00819 -9.61041e-05 4.91332e-05)
(1.00808 -8.39774e-05 -2.08853e-05)
(1.00807 6.15169e-05 -2.737e-05)
(1.00815 4.37741e-05 1.59067e-06)
(1.0082 -1.27087e-05 1.46018e-05)
(1.00819 -9.66567e-05 1.04092e-05)
(1.0081 -3.78031e-05 -5.35359e-05)
(1.00809 4.00519e-05 -2.67241e-05)
(1.00815 5.51845e-05 -4.67373e-05)
(1.00821 1.34865e-05 2.45175e-05)
(1.00819 -6.86782e-05 -5.20125e-06)
(1.0081 -1.29123e-05 -3.59909e-05)
(1.00811 6.77503e-05 -3.36968e-05)
(1.00816 7.74565e-05 -1.11324e-05)
(1.00823 2.18931e-05 4.7176e-05)
(1.00821 -6.75134e-05 1.36068e-06)
(1.00809 -1.8142e-05 8.13135e-06)
(1.0081 8.64124e-05 -1.69633e-05)
(1.00817 5.45597e-05 4.13515e-05)
(1.00822 1.22982e-05 7.2877e-05)
(1.0082 -8.86502e-05 5.67686e-05)
(1.00811 -3.55138e-05 3.05142e-05)
(1.00811 4.17032e-05 2.52184e-05)
(1.00817 4.64755e-05 6.34036e-05)
(1.00824 -3.12191e-05 0.000101032)
(1.00818 -0.000112515 7.25542e-05)
(1.00812 -8.39539e-06 7.66128e-05)
(1.00814 -6.52975e-06 4.31834e-05)
(1.00818 5.71842e-05 9.9612e-05)
(1.00825 -0.000114259 0.000102561)
(1.00819 -0.000115487 6.17886e-05)
(1.0081 -0.000116802 6.31348e-05)
(1.00809 4.89344e-06 5.96958e-06)
(1.00815 1.04477e-05 5.6222e-05)
(1.00822 -4.63601e-05 7.98609e-05)
(1.00817 -0.000145253 3.91384e-05)
(1.00808 -6.32519e-05 4.56187e-05)
(1.0081 -6.29692e-06 -1.66568e-05)
(1.00813 2.59627e-05 5.16575e-05)
(1.0082 -2.29155e-05 1.30429e-05)
(1.00819 -7.04329e-05 2.55233e-05)
(1.0081 -6.44818e-05 -8.4326e-06)
(1.00809 3.64949e-05 -2.39625e-05)
(1.00815 4.10627e-05 -2.19114e-06)
(1.00819 3.09265e-06 -2.55535e-06)
(1.00818 -6.20352e-05 -8.55027e-07)
(1.00811 -3.16759e-05 -4.187e-05)
(1.0081 3.1861e-05 -2.00896e-05)
(1.00815 4.58812e-05 -4.30123e-05)
(1.0082 2.52961e-05 4.06444e-06)
(1.00818 -4.47439e-05 -1.45206e-05)
(1.00811 -7.83345e-06 -3.13411e-05)
(1.00812 4.83817e-05 -2.47297e-05)
(1.00816 5.92342e-05 -1.90067e-05)
(1.00821 2.83276e-05 2.46226e-05)
(1.00821 -5.26054e-05 -9.93862e-06)
(1.00811 -2.25989e-05 3.36252e-06)
(1.00811 5.74275e-05 -1.01771e-05)
(1.00817 4.09056e-05 2.31204e-05)
(1.00821 1.65824e-05 4.90624e-05)
(1.0082 -6.38366e-05 3.50578e-05)
(1.00812 -3.17915e-05 2.85659e-05)
(1.00812 1.79345e-05 2.46464e-05)
(1.00816 3.65722e-05 4.88172e-05)
(1.00822 -1.33177e-05 7.42323e-05)
(1.00819 -9.26448e-05 5.63143e-05)
(1.00813 -1.39812e-05 6.77023e-05)
(1.00815 -2.50988e-05 4.31775e-05)
(1.00817 3.89095e-05 7.76466e-05)
(1.00823 -8.33636e-05 8.02287e-05)
(1.00819 -9.91828e-05 4.41038e-05)
(1.00812 -9.42138e-05 5.7522e-05)
(1.00811 -2.2019e-05 1.15985e-05)
(1.00815 5.7078e-06 4.4954e-05)
(1.00821 -3.92498e-05 5.70418e-05)
(1.00817 -0.000109107 2.9267e-05)
(1.0081 -6.12592e-05 4.26391e-05)
(1.00811 -1.16233e-05 -9.32799e-06)
(1.00813 2.05784e-05 3.69972e-05)
(1.00819 -1.09567e-05 7.3253e-06)
(1.00818 -5.22664e-05 9.36801e-06)
(1.00811 -4.50785e-05 -2.59847e-06)
(1.00811 2.1623e-05 -2.1773e-05)
(1.00815 3.51765e-05 -6.21737e-06)
(1.00818 1.13091e-05 -1.06762e-05)
(1.00818 -3.72185e-05 -9.62541e-06)
(1.00813 -2.43692e-05 -3.26799e-05)
(1.00811 2.74646e-05 -1.70783e-05)
(1.00815 3.86303e-05 -3.74485e-05)
(1.00819 2.86064e-05 -8.04845e-06)
(1.00818 -2.69002e-05 -1.89182e-05)
(1.00813 -4.07845e-06 -2.82517e-05)
(1.00813 3.69103e-05 -1.88312e-05)
(1.00816 4.42271e-05 -2.34462e-05)
(1.0082 2.87811e-05 9.78611e-06)
(1.0082 -3.97255e-05 -1.35989e-05)
(1.00812 -2.23423e-05 -2.45514e-06)
(1.00812 3.91468e-05 -6.30922e-06)
(1.00817 2.87337e-05 9.63164e-06)
(1.00819 1.82197e-05 3.33413e-05)
(1.00819 -4.86678e-05 2.11149e-05)
(1.00813 -2.44742e-05 2.24956e-05)
(1.00813 6.42268e-06 2.29073e-05)
(1.00816 2.42208e-05 3.55354e-05)
(1.00821 -8.48113e-07 5.41954e-05)
(1.00819 -7.56439e-05 4.27306e-05)
(1.00814 -1.53009e-05 5.60825e-05)
(1.00815 -3.14976e-05 3.89472e-05)
(1.00817 2.18847e-05 5.83971e-05)
(1.00821 -5.81068e-05 6.3153e-05)
(1.00819 -8.77777e-05 3.1221e-05)
(1.00813 -7.32948e-05 4.80227e-05)
(1.00812 -3.47472e-05 1.38182e-05)
(1.00815 -6.82541e-07 3.42855e-05)
(1.00819 -3.2451e-05 4.09606e-05)
(1.00817 -8.30894e-05 2.04509e-05)
(1.00812 -5.38268e-05 3.74248e-05)
(1.00812 -1.39238e-05 -4.21659e-06)
(1.00813 1.49819e-05 2.51827e-05)
(1.00818 -3.34911e-06 4.98735e-06)
(1.00818 -3.9569e-05 -6.49558e-07)
(1.00812 -3.02583e-05 3.36457e-07)
(1.00812 1.33979e-05 -1.88311e-05)
(1.00815 2.8065e-05 -8.92933e-06)
(1.00817 1.42292e-05 -1.32479e-05)
(1.00817 -2.02015e-05 -1.48678e-05)
(1.00814 -1.75778e-05 -2.5445e-05)
(1.00812 2.36836e-05 -1.5026e-05)
(1.00815 3.28042e-05 -3.19326e-05)
(1.00818 2.81351e-05 -1.39289e-05)
(1.00818 -1.50415e-05 -1.97192e-05)
(1.00813 -1.03371e-06 -2.51899e-05)
(1.00814 3.0962e-05 -1.38001e-05)
(1.00816 3.353e-05 -2.41061e-05)
(1.00819 2.68244e-05 3.29684e-07)
(1.0082 -2.76386e-05 -1.23613e-05)
(1.00813 -1.91512e-05 -6.68698e-06)
(1.00813 2.8605e-05 -4.29199e-06)
(1.00816 2.01871e-05 1.60491e-06)
(1.00818 1.84095e-05 2.20106e-05)
(1.00819 -3.65513e-05 1.34487e-05)
(1.00814 -1.71762e-05 1.5671e-05)
(1.00814 4.10823e-06 2.08006e-05)
(1.00816 1.19257e-05 2.56954e-05)
(1.00819 6.78451e-06 3.97459e-05)
(1.00818 -5.97596e-05 3.33339e-05)
(1.00815 -1.53156e-05 4.49662e-05)
(1.00816 -3.05247e-05 3.41956e-05)
(1.00817 7.05007e-06 4.30762e-05)
(1.0082 -3.81142e-05 4.99989e-05)
(1.00819 -7.77075e-05 2.29751e-05)
(1.00814 -5.6224e-05 3.82992e-05)
(1.00813 -3.6537e-05 1.47082e-05)
(1.00815 -6.75468e-06 2.54954e-05)
(1.00818 -2.71382e-05 3.02964e-05)
(1.00817 -6.47701e-05 1.38156e-05)
(1.00813 -4.38047e-05 3.11938e-05)
(1.00813 -1.37498e-05 -8.75392e-07)
(1.00814 9.65132e-06 1.61372e-05)
(1.00817 2.18798e-06 4.19967e-06)
(1.00818 -3.06308e-05 -6.10077e-06)
(1.00813 -2.02531e-05 9.75969e-07)
(1.00813 9.87151e-06 -1.57974e-05)
(1.00815 2.1311e-05 -1.0999e-05)
(1.00817 1.40466e-05 -1.22495e-05)
(1.00817 -9.10107e-06 -1.73772e-05)
(1.00814 -1.10229e-05 -2.04912e-05)
(1.00813 2.02994e-05 -1.3116e-05)
(1.00815 2.77e-05 -2.66262e-05)
(1.00817 2.57029e-05 -1.56542e-05)
(1.00817 -6.96315e-06 -1.79911e-05)
(1.00814 1.22374e-06 -2.25188e-05)
(1.00814 2.67563e-05 -9.82289e-06)