/*--------------------------------*- C++ -*----------------------------------*\
  =========                 |
  \\      /  F ield         | OpenFOAM: The Open Source CFD Toolbox
   \\    /   O peration     | Website:  https://openfoam.org
    \\  /    A nd           | Version:  10
     \\/     M anipulation  |
\*---------------------------------------------------------------------------*/
FoamFile
{
    format      ascii;
    class       volVectorField;
    location    "19";
    object      U;
}
// * * * * * * * * * * * * * * * * * * * * * * * * * * * * * * * * * * * * * //

dimensions      [0 1 -1 0 0 0 0];

internalField   nonuniform List<vector> 
102400
(
(0.287656 -0.0863861 -0.0410309)
(0.321353 -0.0818869 -0.0205624)
(0.241271 -0.0705638 0.0816867)
(0.17106 -0.0709006 0.110948)
(0.115108 -0.0543593 0.14854)
(0.0633825 -0.0773027 0.0241849)
(0.217264 -0.0797339 -0.045493)
(0.206075 -0.0782406 0.0110001)
(0.160279 -0.0623108 0.119987)
(0.0388822 -0.0723251 0.0618146)
(0.241046 -0.076933 -0.0150515)
(0.212986 -0.0797984 -0.00557419)
(0.21961 -0.0737838 0.0254888)
(0.145961 -0.0596051 0.120562)
(0.0980332 -0.0726002 0.031865)
(0.232313 -0.0764504 0.0165987)
(0.171981 -0.0575237 0.143905)
(0.123879 -0.073357 0.0506285)
(0.244037 -0.0816973 -0.0584239)
(0.314643 -0.0808683 0.0155018)
(0.213145 -0.0709729 0.116891)
(0.185768 -0.0803818 0.0778078)
(0.170254 -0.0700769 0.0653786)
(0.131486 -0.0728428 0.0656907)
(0.137839 -0.0795565 0.00413519)
(0.171346 -0.0740201 0.0148237)
(0.248146 -0.076415 0.0318654)
(0.260478 -0.0662115 0.136668)
(0.226287 -0.058764 0.176089)
(0.248948 -0.0614442 0.177492)
(0.210681 -0.0728072 0.0882346)
(0.274142 -0.0776306 -0.00144494)
(0.280863 -0.0701549 0.0823807)
(0.147901 -0.0534514 0.131377)
(0.166168 -0.0550481 0.183529)
(0.0669829 -0.0752057 0.0998597)
(0.102624 -0.0770957 -0.0213114)
(0.119966 -0.0793866 -0.0304808)
(0.143109 -0.0757557 -0.0694492)
(0.270646 -0.0863065 -0.082853)
(0.52117 0.06632 -0.233064)
(0.695753 0.0637884 -0.238945)
(0.448566 0.0514955 -0.0396255)
(0.301062 0.0673385 0.039335)
(0.156846 0.0630208 0.0931182)
(0.140012 0.0774275 -0.122157)
(0.454972 0.0608999 -0.244537)
(0.431783 0.0638181 -0.146135)
(0.258095 0.0620139 0.0545541)
(0.0824428 0.083694 -0.0367719)
(0.439865 0.0598186 -0.135499)
(0.404415 0.068487 -0.168025)
(0.455109 0.0629828 -0.12263)
(0.247553 0.0592379 0.0212928)
(0.190256 0.0669933 -0.0639716)
(0.427505 0.0549157 -0.0884518)
(0.268418 0.0546848 0.082438)
(0.16664 0.0732224 0.00353711)
(0.460773 0.0635604 -0.232232)
(0.622656 0.0542221 -0.140158)
(0.373123 0.0635483 0.0198272)
(0.337836 0.080399 -0.0283021)
(0.330618 0.0636812 -0.00882043)
(0.240884 0.0712706 -0.014648)
(0.335286 0.0778416 -0.128158)
(0.337687 0.0624034 -0.137612)
(0.532767 0.0507379 -0.146892)
(0.436178 0.0613131 0.0655847)
(0.377121 0.0466641 0.158326)
(0.361544 0.0491898 0.180797)
(0.296937 0.0712532 0.0561558)
(0.503674 0.061192 -0.10721)
(0.494262 0.0497059 0.0258354)
(0.262422 0.0446877 0.0518767)
(0.238067 0.0497484 0.137619)
(0.125674 0.0878292 0.0158656)
(0.265087 0.075596 -0.166195)
(0.347047 0.0695711 -0.148084)
(0.37919 0.0603884 -0.270794)
(0.532418 0.0623801 -0.252268)
(0.710184 -0.0808071 -0.126452)
(0.890219 -0.0629796 -0.281119)
(0.620801 -0.0501519 -0.151894)
(0.422746 -0.0379836 -0.041821)
(0.230958 -0.0124886 0.0377128)
(0.289602 -0.0353366 -0.10531)
(0.534784 -0.0725842 -0.279927)
(0.602056 -0.0477521 -0.266129)
(0.389719 -0.0325417 -0.041664)
(0.18375 -0.023897 -0.0797567)
(0.466147 -0.0594389 -0.151505)
(0.526939 -0.0434751 -0.172881)
(0.616205 -0.048518 -0.213168)
(0.405495 -0.0326394 -0.138284)
(0.384543 -0.0322473 -0.130245)
(0.536741 -0.0653317 -0.112652)
(0.385288 -0.019312 -0.00695731)
(0.261419 -0.0339686 0.0242737)
(0.449628 -0.0817929 -0.0915517)
(0.69049 -0.0763123 -0.189154)
(0.488473 -0.0455779 -0.0859796)
(0.474217 -0.0294343 -0.0941233)
(0.479109 -0.032429 -0.057255)
(0.364431 -0.02801 -0.0204957)
(0.524615 -0.0368908 -0.186285)
(0.561541 -0.0453647 -0.245861)
(0.735903 -0.0759258 -0.288679)
(0.532614 -0.033282 -0.044002)
(0.425188 -0.0386232 0.104652)
(0.373642 -0.0317204 0.182646)
(0.393973 -0.029738 0.158841)
(0.645608 -0.0530488 -0.0266216)
(0.563364 -0.0545067 -0.00792508)
(0.36877 -0.0298071 -0.0411181)
(0.31445 -0.01962 0.0886742)
(0.269391 -0.0244571 -0.0558674)
(0.344911 -0.0421147 -0.170633)
(0.595829 -0.0485525 -0.151016)
(0.60425 -0.062755 -0.305123)
(0.650519 -0.0812539 -0.172391)
(0.726651 -0.00683772 -0.0271173)
(0.868874 0.026539 -0.223479)
(0.690147 0.0440989 -0.225457)
(0.45832 0.0705878 -0.0693085)
(0.279312 0.0682948 0.0126723)
(0.26164 0.0512721 -0.0569185)
(0.574114 0.0191923 -0.285757)
(0.625309 0.0472695 -0.296925)
(0.491303 0.0631919 -0.0790403)
(0.25481 0.0678646 -0.128471)
(0.547121 0.00970434 -0.232293)
(0.578861 0.0426974 -0.147519)
(0.678893 0.0485321 -0.219562)
(0.395068 0.0326301 -0.235933)
(0.627106 0.0379526 -0.202704)
(0.582845 0.0210673 -0.123295)
(0.414975 0.0401923 -0.0355761)
(0.466651 0.0614045 -0.0103426)
(0.353426 0.0214054 0.0209148)
(0.687938 -0.00908996 -0.237488)
(0.544373 0.0533183 -0.102335)
(0.493269 0.0676228 -0.0688865)
(0.541083 0.044928 -0.0942081)
(0.451298 0.0352073 -0.00320675)
(0.569278 0.0486126 -0.160541)
(0.636323 0.0371512 -0.279544)
(0.735299 -0.00788034 -0.305319)
(0.589374 0.0433219 -0.165639)
(0.596747 0.0174523 -0.014314)
(0.539475 0.0270673 0.140174)
(0.589383 0.0446259 0.231288)
(0.691532 0.0464963 0.0438482)
(0.655976 0.0275987 -0.0994641)
(0.357112 0.0259594 -0.0315085)
(0.397254 0.049265 0.0852592)
(0.347444 0.0746876 -0.13111)
(0.483598 0.0339591 -0.209927)
(0.673232 0.0164048 -0.101984)
(0.541614 0.0255384 -0.210763)
(0.722538 -0.00179101 -0.146596)
(0.616436 -0.0687881 -0.0427724)
(0.849024 -0.0723277 -0.0887343)
(0.742697 -0.030258 -0.269491)
(0.499757 0.0238638 -0.0908424)
(0.301251 0.054218 0.00425904)
(0.18138 0.00723717 -0.0786614)
(0.617886 -0.07405 -0.108727)
(0.751494 -0.0279338 -0.33379)
(0.526521 0.0157132 -0.111631)
(0.456689 0.0239736 -0.188523)
(0.633136 -0.0758324 -0.296612)
(0.619063 -0.0288713 -0.198072)
(0.693167 -0.0132441 -0.180794)
(0.369091 -0.0355477 -0.162502)
(0.718903 -0.036158 -0.271407)
(0.70831 -0.0418569 -0.254144)
(0.407156 -0.0182286 -0.0205484)
(0.540767 0.0233467 -0.10617)
(0.42604 -0.0362107 -0.0247955)
(0.730664 -0.104737 -0.169701)
(0.598651 -0.00857723 -0.163776)
(0.523586 0.0317154 -0.0845111)
(0.562608 -0.0188704 -0.12746)
(0.509433 -0.0295196 -0.0918678)
(0.615507 -0.0118878 -0.127064)
(0.612859 -0.0347401 -0.245998)
(0.777403 -0.0828463 -0.278565)
(0.520528 -0.00484087 -0.184158)
(0.779488 -0.0440279 -0.182423)
(0.678608 -0.0545755 -0.0162092)
(0.587245 -0.00468568 0.105377)
(0.703602 -0.00275623 0.0122578)
(0.733016 -0.0308857 -0.149468)
(0.447023 -0.0324925 0.00663254)
(0.323856 0.00302565 0.112792)
(0.498825 0.0223559 -0.084334)
(0.646948 -0.0438935 -0.33063)
(0.732591 -0.0458475 -0.119319)
(0.588029 -0.0342878 -0.105474)
(0.856595 -0.0656246 -0.169065)
(0.78744 -0.025202 -0.0351819)
(0.778851 -0.0290213 -0.0223346)
(0.704969 0.0188599 -0.265878)
(0.475007 0.0567326 -0.104345)
(0.264255 0.0731972 -0.0488513)
(0.430211 0.0018121 -0.0658225)
(0.556063 -0.0489745 0.0577156)
(0.759051 0.0157382 -0.293281)
(0.595574 0.04054 -0.195796)
(0.575007 0.042798 -0.169706)
(0.641153 -0.0179697 -0.216357)
(0.683531 -0.00875684 -0.289767)
(0.609693 0.0543829 -0.194883)
(0.375098 0.0139879 -0.190591)
(0.715736 -0.0159566 -0.199618)
(0.835308 0.0193444 -0.376767)
(0.570252 0.019371 -0.150455)
(0.678671 0.0461885 -0.158691)
(0.605518 0.0146439 -0.126734)
(0.640638 -0.050168 -0.048554)
(0.598223 0.0179447 -0.188734)
(0.548464 0.0617475 -0.110696)
(0.538035 0.0278411 -0.159371)
(0.56124 -0.000323704 -0.139919)
(0.648032 0.0289944 -0.187018)
(0.483031 0.0319176 -0.251865)
(0.805916 -0.0178872 -0.301593)
(0.503264 0.0162752 -0.19086)
(0.885981 -0.0207227 -0.32971)
(0.725573 -0.0202164 -0.156265)
(0.601089 0.0275498 0.023188)
(0.782733 0.0394858 0.0659736)
(0.723908 0.0349898 -0.140689)
(0.539773 0.0131993 -0.0350245)
(0.215098 0.0594246 0.190996)
(0.504465 0.0322051 0.0217023)
(0.54647 -0.0239384 -0.279059)
(0.71653 -0.0308404 -0.118098)
(0.781169 0.00718582 -0.0191881)
(1.0785 -0.0298837 -0.0636847)
(0.78659 -0.0535939 -0.0388658)
(0.757574 -0.0483931 -0.0668318)
(0.621268 -0.0185907 -0.229319)
(0.534047 0.0664593 -0.119864)
(0.484783 0.0819335 -0.0916255)
(0.798472 -0.033303 -0.10195)
(0.672101 -0.0743199 -0.0272006)
(0.760226 -0.0271462 -0.15966)
(0.66192 0.0182797 -0.239979)
(0.671121 0.013099 -0.173967)
(0.694369 -0.0481141 -0.183526)
(0.693488 -0.0481739 -0.242196)
(0.603413 0.0133055 -0.193695)
(0.483398 -4.27469e-05 -0.22719)
(0.646638 -0.0702244 -0.066608)
(0.833743 -0.0261873 -0.313262)
(0.718263 0.00755865 -0.278568)
(0.68929 0.0175178 -0.21928)
(0.633191 -0.00639941 -0.132872)
(0.630777 -0.0566325 -0.0622868)
(0.490646 0.0144612 -0.0760246)
(0.529824 0.0270036 -0.0785989)
(0.611483 -0.00868518 -0.14008)
(0.610459 -0.0404791 -0.129686)
(0.667414 0.00160765 -0.211393)
(0.493907 -0.0188628 -0.24653)
(0.868967 -0.042444 -0.306344)
(0.575767 -0.003717 -0.257673)
(0.941541 -0.0859596 -0.343062)
(0.73667 -0.0473824 -0.149757)
(0.553344 -0.0187217 0.00654294)
(0.657417 0.00614764 0.0540663)
(0.736219 -0.00673135 -0.0633561)
(0.610762 0.00595292 -0.078461)
(0.270631 0.0203978 0.0194532)
(0.305113 0.0131999 -0.00728763)
(0.484033 -0.0624141 -0.113727)
(0.523988 -0.0709093 -0.0645976)
(0.740126 -0.0613491 -0.044313)
(0.970323 -0.0950653 0.0406974)
(0.606237 0.00311894 -0.0465227)
(0.775538 -0.0304713 -0.0964268)
(0.524537 0.014749 -0.0907917)
(0.506374 0.0789801 -0.181626)
(0.676458 0.0370504 -0.18601)
(0.888238 -0.0440434 -0.138975)
(0.757956 -0.0525505 -0.0462274)
(0.750424 0.025515 -0.139935)
(0.658494 0.0466912 -0.23749)
(0.889786 0.0060622 -0.159869)
(0.79881 -0.0124448 -0.194825)
(0.686028 -0.0216231 -0.162202)
(0.641344 0.0337431 -0.24382)
(0.563236 0.0220036 -0.236447)
(0.504687 -0.0357029 -0.0320527)
(0.743791 -0.0145469 -0.232716)
(0.771625 0.0281069 -0.287845)
(0.487856 0.0444951 -0.117404)
(0.657535 -0.00373838 -0.0800418)
(0.679392 -0.0297546 -0.0591985)
(0.445122 0.0352295 -0.0412614)
(0.575089 0.0673451 -0.0233738)
(0.657426 0.0290116 -0.09987)
(0.709175 -0.00517231 -0.16239)
(0.634736 0.0241237 -0.213948)
(0.492567 -0.0141693 -0.17656)
(0.853588 -0.012551 -0.304909)
(0.626915 0.0196814 -0.28662)
(0.928532 -0.121963 -0.21198)
(0.756527 -0.0423513 -0.153938)
(0.635548 0.0220133 -0.0764304)
(0.551632 0.0128619 0.014277)
(0.750856 0.0242904 0.0164552)
(0.676208 0.042323 -0.0448683)
(0.408705 0.0246726 -0.119949)
(0.284151 0.0156704 -0.0113705)
(0.622221 -0.0776502 -0.0384873)
(0.598428 -0.0575854 -0.0724854)
(0.681644 -0.0613401 -0.0849946)
(0.760687 -0.071211 0.0425518)
(0.610902 -0.0237503 -0.0789328)
(0.88232 -0.0420129 -0.126362)
(0.626748 -0.015981 -0.0396637)
(0.476658 0.0549465 -0.156121)
(0.68099 0.0156467 -0.284212)
(0.902951 -0.0710172 -0.111935)
(0.751359 -0.0392916 -0.0983578)
(0.743184 0.00537117 -0.219677)
(0.760034 0.0227137 -0.141417)
(0.950856 -0.011513 -0.0884465)
(0.835607 -0.0230658 -0.136766)
(0.724438 -0.0412394 -0.186707)
(0.733105 0.0186554 -0.272141)
(0.544261 0.0206811 -0.254564)
(0.549386 -0.0447243 -0.115119)
(0.641524 -0.0321301 -0.148226)
(0.701248 0.0389905 -0.202637)
(0.575159 0.0212269 -0.0337621)
(0.750485 -0.0368249 -0.0762041)
(0.692612 -0.031357 -0.139023)
(0.534985 0.0208517 -0.0788262)
(0.594191 0.02979 0.0112586)
(0.675176 0.00817727 -0.0686894)
(0.750708 -0.0222885 -0.126578)
(0.552124 0.0511752 -0.19786)
(0.48403 -0.0536087 -0.123324)
(0.764608 -0.0267556 -0.259664)
(0.700423 -0.0149298 -0.261677)
(0.895216 -0.150048 -0.144028)
(0.732348 -0.0718129 -0.110936)
(0.678841 0.0265803 -0.102745)
(0.589219 -0.01495 -0.0461732)
(0.765776 0.0134454 0.0162411)
(0.625698 0.0261779 -0.0020081)
(0.413477 0.0308102 -0.164189)
(0.288496 -0.0242536 0.0389997)
(0.655353 -0.121606 0.0200078)
(0.647101 -0.114238 -0.0870833)
(0.793882 -0.0857439 -0.0971296)
(0.881886 -0.0905222 -0.00770607)
(0.671954 0.00834736 -0.126409)
(0.845357 -0.0249057 -0.0533497)
(0.722329 0.0289152 -0.0965436)
(0.48176 0.0655067 -0.110164)
(0.796876 0.00336396 -0.228966)
(0.977942 -0.0727818 -0.0726115)
(0.761754 -0.0292992 -0.103906)
(0.79348 -0.00238347 -0.157127)
(0.738811 0.0415784 -0.0763167)
(0.924897 -0.00272946 -0.0544667)
(0.811143 -0.0193042 -0.154642)
(0.771896 -0.00711029 -0.185802)
(0.746187 0.0447156 -0.272223)
(0.509881 0.0459465 -0.224815)
(0.60562 -0.0217446 -0.136283)
(0.678557 -0.00358119 -0.144987)
(0.65363 0.052089 -0.161813)
(0.634315 0.0285148 -0.0528829)
(0.761737 -0.0295157 -0.0356815)
(0.667799 -0.0124502 -0.0958018)
(0.546465 0.0395883 -0.135983)
(0.625255 0.0509196 -0.0410927)
(0.693945 0.0276839 -0.0159743)
(0.584676 0.0271824 -0.0853995)
(0.464515 0.0817754 -0.0924704)
(0.673701 -0.0488315 -0.123384)
(0.706126 -0.01666 -0.164513)
(0.687412 0.00219571 -0.284614)
(0.8344 -0.122521 -0.248076)
(0.701751 -0.0695763 -0.121349)
(0.632752 -0.00418969 -0.0896011)
(0.706178 -0.0149441 -0.151293)
(0.727892 0.057333 0.0170345)
(0.654028 0.0555257 0.0748978)
(0.581245 0.0306381 -0.139339)
(0.502043 -0.0188273 0.0184842)
(0.746064 -0.0972159 0.0377428)
(0.693352 -0.0563725 -0.0914636)
(0.808579 -0.086262 -0.0579801)
(0.847182 -0.0947503 0.0413692)
(0.724347 0.0111495 -0.0836288)
(0.823898 -0.0505749 -0.0741418)
(0.82821 0.0162344 -0.0871484)
(0.607882 0.0671368 -0.0529278)
(0.820957 0.00253849 -0.143999)
(0.941553 -0.089605 -0.113593)
(0.75813 -0.0398737 -0.0602129)
(0.836155 -0.0311788 -0.0717038)
(0.721189 0.0218462 -0.113653)
(0.921834 0.00152374 -0.0799104)
(0.847067 -0.0220169 -0.191936)
(0.778933 -0.0341007 -0.157212)
(0.737879 0.0146695 -0.251712)
(0.608048 0.0330247 -0.264741)
(0.675385 -0.00629895 -0.19641)
(0.707923 -0.0209598 -0.132424)
(0.674014 0.0101634 -0.149482)
(0.721664 -0.0131512 -0.0384555)
(0.796366 -0.0789932 0.0133356)
(0.673377 -0.0213038 -0.0253294)
(0.60561 0.0282822 -0.0798787)
(0.715904 0.0565551 -0.0911721)
(0.669907 0.039615 -0.0622701)
(0.546977 -0.00214319 -0.0781273)
(0.498487 0.0327115 -0.0548521)
(0.840306 -0.045419 -0.152348)
(0.722441 -0.0137279 -0.16579)
(0.648002 0.0105846 -0.259542)
(0.810455 -0.142211 -0.297202)
(0.677862 -0.0557908 -0.187101)
(0.679469 0.0146037 -0.176923)
(0.817381 -0.0462209 -0.172873)
(0.571693 0.0455609 0.0288568)
(0.667795 0.059656 0.0320164)
(0.757036 0.0657273 -0.0937409)
(0.709905 -0.00348763 -0.0122531)
(0.923807 -0.108007 -0.0395505)
(0.86035 -0.0674227 -0.154099)
(0.851944 -0.0896525 -0.0823311)
(0.831616 -0.0800569 0.0234804)
(0.666052 0.0309794 -0.00618017)
(0.842467 -0.0421739 -0.0607149)
(0.939666 0.0110091 -0.0789339)
(0.643463 0.0754881 -0.077787)
(0.793329 0.0062157 -0.0709778)
(0.978526 -0.0452884 -0.112935)
(0.81986 -0.0138127 -0.0910373)
(0.874773 -0.0151529 -0.0290118)
(0.797278 0.0157816 -0.0322151)
(0.875755 -0.0301474 -0.0657256)
(0.861779 -0.0051704 -0.152922)
(0.815934 -0.0153121 -0.110145)
(0.726902 0.0491684 -0.191792)
(0.658395 0.0504516 -0.266602)
(0.679546 -0.0125931 -0.21814)
(0.691483 -0.0234008 -0.167467)
(0.725748 0.0485659 -0.218186)
(0.820987 0.00572329 -0.109909)
(0.793917 -0.0389097 -0.0253378)
(0.685358 -0.00220653 -0.0249324)
(0.714117 0.0241743 -0.0409317)
(0.698453 0.0529675 -0.0591015)
(0.717442 0.065413 -0.0590587)
(0.761616 -0.00589747 -0.0669269)
(0.718971 0.00359509 -0.11768)
(0.923378 -0.0620651 -0.128472)
(0.679588 0.033689 -0.15403)
(0.611339 0.0220568 -0.284489)
(0.80333 -0.122356 -0.267241)
(0.642364 -0.0464498 -0.226535)
(0.876481 -0.00342034 -0.164674)
(0.924285 -0.0625004 -0.132332)
(0.640177 0.0632005 -0.0266748)
(0.760131 0.0536612 -0.0355854)
(0.81772 0.069118 -0.0955397)
(0.860694 -0.0155018 -0.0526221)
(1.03014 -0.0860548 -0.0577323)
(0.918574 -0.0469325 -0.143975)
(0.932153 -0.0595043 -0.146818)
(0.811129 -0.0619061 -0.0248571)
(0.662075 0.00167505 0.0279392)
(0.881635 -0.072271 -0.0583167)
(0.938228 -0.0233044 -0.0865255)
(0.615509 0.0736325 -0.149227)
(0.835418 -0.0021018 -0.0275614)
(0.97499 -0.0441266 -0.0729597)
(0.842883 -0.0189542 -0.112812)
(0.938766 -0.0391334 -0.0115816)
(0.888575 0.0203476 0.045365)
(0.893575 -0.0584734 -0.0244981)
(0.815928 -0.0634757 -0.0746753)
(0.811398 -0.0299586 -0.0855906)
(0.72737 0.0510835 -0.159254)
(0.688043 0.0197366 -0.193024)
(0.717205 -0.0748083 -0.184054)
(0.746394 -0.0686201 -0.205785)
(0.762684 0.00842474 -0.237199)
(0.836293 -0.0203711 -0.15678)
(0.780642 -0.0789488 -0.0465499)
(0.704893 -0.0233707 -0.0608265)
(0.774634 0.0265874 -0.0428381)
(0.609878 0.139648 -0.057275)
(0.714297 0.0833777 -0.0050218)
(0.789728 -0.0130678 -0.0380556)
(0.881146 -0.0689683 -0.0924148)
(0.940726 -0.0886734 -0.00685398)
(0.58758 0.0386534 -0.0767372)
(0.707677 -0.0120535 -0.20718)
(0.883789 -0.14404 -0.219157)
(0.735241 -0.0345485 -0.227001)
(0.880692 -0.00357829 -0.0363349)
(0.986801 -0.06309 0.0313501)
(0.768034 0.0351346 -0.0942702)
(0.735412 0.0473186 -0.0548331)
(0.782063 0.0666796 -0.0940009)
(0.987916 -0.0421151 -0.0434405)
(1.11856 -0.140812 -0.0183085)
(0.994326 -0.0579664 -0.115643)
(0.989472 -0.0545552 -0.194505)
(0.812978 -0.0740422 -0.0119873)
(0.680865 0.0144104 0.0300991)
(0.902209 -0.0532883 -0.0475851)
(0.979857 -0.0334601 -0.0733035)
(0.72722 0.0826714 -0.0970137)
(0.868715 0.00601817 -0.0265353)
(0.910777 -6.55692e-05 -0.114039)
(0.857786 -0.0311003 -0.160126)
(0.906693 -0.0587923 -0.0624226)
(0.939059 0.0296518 -0.0390865)
(0.876537 -0.0556689 -0.0314388)
(0.69703 -0.0662444 -0.0288853)
(0.763021 -0.0350729 -0.0401677)
(0.737627 0.0265785 -0.123381)
(0.753101 0.0338148 -0.152218)
(0.730312 -0.0517905 -0.241539)
(0.758792 -0.0764059 -0.210234)
(0.716378 0.000995614 -0.172148)
(0.864303 -0.00753013 -0.186417)
(0.779473 -0.060922 -0.0952505)
(0.760588 -0.0139582 -0.0970686)
(0.796316 0.00992872 -0.0365146)
(0.62818 0.133325 -0.0712978)
(0.748577 0.064737 -0.00718539)
(0.834788 -0.0414184 -0.0596751)
(0.825349 -0.0526224 -0.164279)
(0.803022 -0.0690878 -0.0283381)
(0.65932 0.0588653 -0.0419685)
(0.722859 -0.0297164 -0.0986038)
(0.795258 -0.16608 -0.105023)
(0.700577 -0.0211413 -0.13661)
(0.872579 -0.0326745 -0.0381774)
(0.999658 -0.0501126 0.107671)
(0.829072 0.0283153 -0.0317571)
(0.661607 0.0607491 -0.0417785)
(0.714346 0.0699777 -0.059559)
(0.953228 -0.0353449 -0.0638778)
(1.10536 -0.143432 -0.0616538)
(1.06674 -0.0597366 -0.0863448)
(1.06528 -0.00162834 -0.218683)
(0.948061 -0.0148932 -0.106381)
(0.626746 0.0500185 -0.0267966)
(0.816021 -0.0451657 0.0781787)
(0.981374 -0.0309094 0.019054)
(0.833186 0.0414284 -0.059955)
(0.855935 -0.00260199 -0.0929825)
(0.942818 -0.00900413 -0.158309)
(0.879269 -0.0597428 -0.166612)
(0.845475 -0.0664573 -0.0845222)
(1.03804 0.0173583 -0.105437)
(0.902821 -0.0299306 -0.07473)
(0.636269 -0.0371513 -0.07865)
(0.692503 -0.0482031 -0.040688)
(0.740986 0.0484712 -0.0745413)
(0.736096 0.0379392 -0.0916243)
(0.76473 -0.0520429 -0.243847)
(0.817349 -0.0647835 -0.19838)
(0.717486 0.0050833 -0.148917)
(0.8446 0.00411067 -0.196111)
(0.855641 -0.0593005 -0.146748)
(0.798923 -0.0288136 -0.128782)
(0.820953 0.0233594 -0.0577174)
(0.611664 0.171187 -0.0917354)
(0.813749 0.0640857 -0.0496993)
(0.892916 -0.0308105 -0.125604)
(0.840351 -0.0418422 -0.138841)
(0.819224 -0.0783765 -0.083841)
(0.811673 0.0316251 0.0139925)
(0.723643 -0.0555514 -0.0855966)
(0.690928 -0.130982 -0.104154)
(0.665128 -0.0212363 -0.0543611)
(0.951724 -0.0660525 -0.0639999)
(0.988925 -0.0661312 0.0177175)
(0.912338 0.0119764 0.00319563)
(0.720864 0.0410675 -0.00377778)
(0.709206 0.0678041 0.031987)
(0.839305 -0.0490017 -0.0862279)
(1.00715 -0.142569 -0.150444)
(1.06834 -0.0558262 -0.150087)
(1.14123 -0.047527 -0.183022)
(0.987458 -0.0583535 -0.163518)
(0.719207 0.0571256 -0.0376399)
(0.799992 -0.0229081 0.0854436)
(0.887136 -0.0310086 0.0342181)
(0.83377 0.0435681 -0.0372351)
(0.878689 -0.0201302 -0.0513653)
(0.97911 -0.0333607 -0.158422)
(0.939492 -0.0574702 -0.136135)
(0.784337 -0.0672069 -0.00118059)
(0.952478 -0.0191221 -0.0363371)
(0.84623 -0.0181947 -0.0983728)
(0.611485 -0.0440288 -0.110483)
(0.61408 -0.0052095 -0.0647994)
(0.661759 0.0419791 -0.0929774)
(0.696508 0.0231631 -0.108482)
(0.810892 -0.0365732 -0.189772)
(0.836869 -0.0308538 -0.176865)
(0.76843 0.0177196 -0.126436)
(0.85463 0.0240167 -0.227273)
(0.961164 -0.0676499 -0.132416)
(0.822629 -0.0436801 -0.0646437)
(0.783769 0.0120944 -0.0635872)
(0.686574 0.199608 -0.0436294)
(0.889734 0.074224 -0.0587601)
(0.905852 -0.0469878 -0.0994631)
(0.940117 -0.0492406 0.0519161)
(0.829701 -0.0561508 -0.0742951)
(0.724062 0.0293247 -0.0253699)
(0.768627 -0.0268733 -0.017361)
(0.688427 -0.109061 -0.0970762)
(0.703392 -0.0355244 -0.0639264)
(0.908698 -0.0871618 -0.0169042)
(0.984725 -0.0736547 -0.0362718)
(0.933053 0.0277268 -0.0648942)
(0.78283 0.10115 -0.0293304)
(0.810616 0.0908146 0.0542849)
(0.882628 -0.0304772 -0.0577345)
(1.00372 -0.152176 -0.199774)
(1.11466 -0.0856225 -0.181002)
(1.11798 -0.04549 -0.149449)
(0.963814 -0.00186946 -0.166268)
(0.938137 0.0327911 -0.0444697)
(0.87223 0.0581192 -0.0108434)
(0.899936 0.00159771 -0.0255087)
(0.931543 -0.0153779 -0.0205278)
(0.973354 -0.0453634 -0.0205724)
(0.953639 -0.0372134 -0.0838029)
(0.996172 -0.0663072 -0.0920287)
(0.814519 -0.0685349 -0.00107698)
(0.787768 0.0121621 0.00580394)
(0.77017 -0.0236284 -0.078842)
(0.666142 -0.067177 -0.132883)
(0.586628 0.0148559 -0.0871413)
(0.687002 0.0931931 -0.0611179)
(0.704137 0.0259121 -0.0965446)
(0.80492 -0.0449342 -0.165617)
(0.774735 -0.0135864 -0.20467)
(0.759003 0.0516094 -0.129686)
(0.95861 -0.0016183 -0.158471)
(0.985017 -0.0480225 -0.11882)
(0.878431 -0.0205189 -0.0527823)
(0.694018 0.0676167 -0.122029)
(0.737833 0.209304 0.0143457)
(0.976442 0.0957837 -0.0303217)
(0.955376 -0.0647269 -0.0512975)
(0.917415 -0.0155916 0.0577627)
(0.839812 -0.00396432 -0.0688283)
(0.683405 0.0136672 -0.0645607)
(0.806209 -0.0128395 -0.0125996)
(0.763393 -0.0839856 -0.0616196)
(0.75363 -0.0387163 -0.019083)
(0.925062 -0.126862 0.00191185)
(1.01741 -0.0972834 -0.0160885)
(0.935919 0.0146249 0.0284198)
(0.869262 0.0568507 0.0106873)
(0.982852 0.0382801 0.00526086)
(1.12244 -0.0248316 0.00603038)
(1.01455 -0.115048 -0.0714569)
(1.04129 -0.0874444 -0.102305)
(1.08336 -0.0571709 -0.149583)
(1.01787 -0.0740315 -0.186918)
(0.754436 0.040709 -0.000949054)
(0.712558 0.095335 -0.0102124)
(0.903218 -0.00510662 0.0158858)
(0.990004 -0.0583248 0.0405772)
(0.941046 -0.0600967 -0.00366629)
(0.957421 -0.0528423 -0.0258571)
(1.04846 -0.0515423 -0.0449606)
(0.946455 -0.0293414 -0.0666786)
(0.815804 0.0154209 -0.0485381)
(0.807744 -0.0685328 -0.00803544)
(0.721263 -0.0526245 -0.0394893)
(0.668853 0.0396204 -0.0675908)
(0.728015 0.0893522 -0.0837419)
(0.714044 0.0108184 -0.0637814)
(0.792193 -0.0645229 -0.11417)
(0.791077 0.020492 -0.175497)
(0.704858 0.0673052 -0.110534)
(0.983083 -0.0046252 -0.0680334)
(0.96889 -0.0637728 -0.125077)
(0.856258 -0.0278931 -0.129716)
(0.713643 0.0749623 -0.11221)
(0.565731 0.216551 -0.0196641)
(0.956459 0.0977826 -0.0492025)
(0.998867 -0.0392608 -0.0343577)
(0.876992 -0.00418517 -0.0388493)
(0.931159 0.0121479 -0.0909319)
(0.8079 0.00370942 -0.0559129)
(0.802136 0.00438654 -0.0368408)
(0.771613 -0.0637684 -0.049897)
(0.847805 -0.0721166 -0.0866133)
(0.964225 -0.156754 -0.0265723)
(1.04021 -0.142464 0.0527053)
(1.02484 0.00917923 0.0453276)
(0.887955 0.0450665 0.0441802)
(0.825758 -0.0106842 0.0816039)
(0.98763 -0.104721 0.0297069)
(1.03668 -0.141544 -0.028608)
(0.976544 -0.0932498 -0.0773309)
(0.942567 -0.0258866 -0.0950696)
(0.881362 -0.0572219 -0.0495172)
(0.754929 0.0188872 -0.028999)
(0.731942 0.0282344 0.0366501)
(0.972084 -0.047996 0.0938193)
(1.10419 -0.0916884 0.0666627)
(0.896791 -0.0525415 0.0284063)
(0.900464 -0.0436518 0.0587126)
(1.09438 -0.0972087 0.0124905)
(0.929235 -0.0206832 -0.0071699)
(0.85206 0.0699204 -0.0534109)
(0.983843 -0.0429154 -0.0787419)
(0.847316 -0.0551712 -0.0261008)
(0.701147 0.077323 -0.0698961)
(0.682801 0.0785118 -0.0656586)
(0.756534 -0.0128972 0.0300003)
(0.852383 -0.060744 -0.00953048)
(0.808234 0.0214919 -0.145819)
(0.771427 0.0679733 -0.140204)
(0.879384 -0.00786988 -0.11882)
(0.941155 -0.0361213 -0.120579)
(0.828767 -0.0147875 -0.129529)
(0.68586 0.0894195 -0.0659068)
(0.596839 0.153862 -0.0857082)
(0.898983 0.0514793 -0.0975974)
(0.943225 0.0116046 -0.0614189)
(0.892324 -0.0225988 -0.0982337)
(0.925464 -0.0540154 -0.0893963)
(0.821398 -0.0102763 -0.0635521)
(0.801277 0.000566712 -0.0287729)
(0.868933 -0.064256 -0.0294464)
(0.911903 -0.112773 -0.070703)
(1.01535 -0.13651 -0.0585642)
(1.01129 -0.103824 0.00901449)
(0.925332 -0.00927576 -0.0620193)
(0.874974 0.0421846 -0.0284825)
(0.783504 0.0510813 0.0464801)
(0.869912 -0.0261232 0.0581012)
(0.960277 -0.0836637 0.0279016)
(0.811721 -0.0275688 0.0145334)
(0.770823 -0.0212223 0.0181553)
(0.881327 -0.0238589 -0.00960407)
(1.02346 0.0246893 -0.0476426)
(1.02852 0.0146058 -0.0194249)
(1.1193 -0.0619476 -0.0102411)
(1.16775 -0.0606143 -0.0175684)
(0.983041 -0.042736 -0.0230805)
(0.932697 -0.0277186 -0.0091785)
(1.10458 -0.0411691 -0.00932388)
(0.958827 0.021881 0.00115716)
(0.911908 0.0592659 0.0203389)
(1.0561 -0.029144 -0.0428541)
(0.846279 -0.0488038 -0.0755222)
(0.598507 0.0447128 -0.0796095)
(0.605641 0.0595868 -0.0241078)
(0.765286 0.0133198 0.0464524)
(0.876299 -0.0145362 0.0105084)
(0.757167 0.0439319 -0.131759)
(0.701271 0.0865197 -0.164237)
(0.812849 0.0431093 -0.132777)
(0.901209 0.0350037 -0.119143)
(0.875101 0.0296996 -0.088021)
(0.73954 0.0529595 -0.0570017)
(0.761 0.0724697 -0.123804)
(0.872847 0.0150806 -0.158349)
(0.8909 0.0200393 -0.104624)
(0.939009 0.0318095 -0.108519)
(1.01322 -0.0342673 -0.1185)
(0.933731 -0.065206 -0.0631149)
(0.908393 -0.0697534 -0.0431073)
(0.951071 -0.0694011 -0.069832)
(0.990817 -0.0674005 -0.0436085)
(1.0695 -0.122824 -0.0533136)
(1.04824 -0.0897103 -0.0338893)
(0.928241 0.00815908 -0.0615147)
(0.863119 0.0214358 -0.0285974)
(0.729244 0.0138866 0.0274484)
(0.861905 -0.0352845 0.0475932)
(0.96615 -0.0303022 0.0251569)
(0.885378 -0.00303442 0.0026701)
(0.909396 -0.0171555 0.00688217)
(1.02639 -0.0353327 -0.020153)
(1.03249 0.00174913 -0.0363059)
(1.06914 0.0159352 -0.0319213)
(1.09306 -0.0450899 0.0387744)
(1.22974 -0.0667716 -0.0370493)
(1.11293 -0.0289821 -0.0969111)
(0.95345 -0.00352107 -0.0355635)
(1.07031 -0.00840308 -0.00109978)
(1.10083 0.00175675 -0.00304454)
(1.04977 0.00386301 0.00817459)
(1.10102 -0.013259 -0.0560432)
(1.04443 0.00131881 -0.100092)
(0.799131 0.0381018 -0.0333038)
(0.692643 0.0338618 -0.00329892)
(0.726484 -0.0181002 -0.0136041)
(0.80212 0.00180723 -0.0492221)
(0.815643 0.0709804 -0.124301)
(0.765566 0.0727829 -0.106664)
(0.822906 0.0132263 -0.065961)
(0.890767 0.0123491 -0.0367818)
(0.88221 0.0304863 -0.00440083)
(0.873955 0.0511387 0.00228027)
(0.867073 0.0646045 -0.0591989)
(0.938181 0.0275279 -0.135617)
(0.941268 -0.00609355 -0.093987)
(0.941702 -0.0427961 -0.0509577)
(0.975411 -0.0624205 -0.0921143)
(1.01894 -0.0568821 -0.0722884)
(1.03718 -0.0815168 -0.0308908)
(0.98925 -0.113279 -0.0240452)
(1.0187 -0.11148 -0.0821508)
(1.09866 -0.121473 -0.0785004)
(1.08762 -0.0745028 0.00577391)
(1.01859 0.0152295 0.00975269)
(0.970422 0.0936722 -0.0430037)
(0.981873 0.0399293 -0.0761988)
(1.03327 -0.131762 -0.103354)
(1.07069 -0.0916303 -0.0680246)
(1.08529 0.0160899 -0.0866581)
(1.02625 -0.0120789 -0.111098)
(0.984347 -0.0326692 -0.0472352)
(0.981436 -0.019946 -0.0714931)
(1.04902 -0.00147574 -0.0960679)
(1.11045 -0.0531309 -0.0448759)
(1.21835 -0.101803 -6.83635e-05)
(1.13496 -0.0410345 -0.0627806)
(1.02625 0.0111052 -0.0247951)
(1.06324 -0.00466814 0.00675547)
(1.06547 0.0129256 -0.0210306)
(1.07257 -0.0134155 0.0291359)
(1.11881 -0.044519 -0.0124045)
(1.11392 0.00323291 -0.126861)
(0.954572 0.0570561 -0.097362)
(0.850599 0.0358036 -0.0235292)
(0.801327 -0.0388608 -0.00845548)
(0.77695 -0.0318046 -0.0724254)
(0.781179 0.0600643 -0.139176)
(0.765084 0.0936324 -0.101788)
(0.80564 0.0579359 -0.0448872)
(0.835712 0.0525605 -0.00297907)
(0.85985 0.0603004 0.026258)
(0.891812 0.0551277 0.00376461)
(0.875921 0.0486242 -0.0364839)
(0.913095 0.0285682 -0.0571062)
(0.986484 0.0405132 -0.0632043)
(1.06405 0.0396473 -0.0984625)
(1.05868 -0.0208727 -0.119243)
(1.00061 -0.0731941 -0.0850913)
(1.01235 -0.0899706 -0.0520686)
(1.08054 -0.0825925 -0.0363937)
(1.15186 -0.101996 -0.0462784)
(1.11051 -0.137411 -0.047553)
(1.0509 -0.0583569 0.0136066)
(1.05138 0.0516872 0.0329811)
(1.06269 0.0492527 -0.0373189)
(1.07058 -0.00585495 -0.0262429)
(0.970217 -0.051641 -0.0246583)
(0.949722 -0.0314293 -0.056088)
(1.0285 -0.00182608 -0.0829508)
(1.00981 -0.00851058 -0.106228)
(0.938371 -0.0250146 -0.0980093)
(0.963101 -0.0137948 -0.0830118)
(0.938413 0.0140182 -0.114304)
(1.03725 0.0069422 -0.0952215)
(1.15296 -0.0465039 -0.0340537)
(1.08756 -0.0355102 -0.0444012)
(0.971497 -0.000101309 -0.0430606)
(1.01977 0.0187765 -0.018372)
(1.13394 0.0190222 -0.0474827)
(1.19429 -0.0103565 -0.0201347)
(1.14659 -0.0357281 0.0160567)
(1.10994 -0.0175155 -0.046275)
(1.01557 0.0338786 -0.10688)
(0.96926 0.0505058 -0.112207)
(0.969157 0.0135677 -0.04772)
(0.895859 -0.0232569 0.011458)
(0.831235 0.00770107 -0.00906981)
(0.809022 0.0566499 -0.0331391)
(0.775353 0.0499981 -0.0409861)
(0.767776 0.0229288 -0.0276092)
(0.800961 0.0146768 -0.0159283)
(0.877614 0.0386742 0.00967873)
(0.937575 0.0818934 -0.00562938)
(0.978469 0.0471347 -0.0698269)
(1.04057 0.0131002 -0.108371)
(1.11063 -0.00579171 -0.119997)
(1.14743 0.0134917 -0.119957)
(1.10435 0.0192134 -0.104789)
(1.03152 -0.056934 -0.0564478)
(1.05136 -0.0800208 -0.0351193)
(1.13992 -0.0605772 -0.0494952)
(1.14116 -0.0690968 -0.0447363)
(1.06865 -0.0596983 0.0288061)
(1.04366 0.00617239 0.0715477)
(1.12301 0.0505993 0.0113503)
(1.15897 0.00665259 -0.00756147)
(1.04117 -0.0807265 -0.0166934)
(0.940132 -0.0774112 -0.0387097)
(1.01897 -0.0124257 -0.038783)
(1.11173 0.019231 -0.0537344)
(1.07258 0.0051865 -0.0651288)
(0.960916 0.0133288 -0.05167)
(0.936451 0.0156783 -0.0677259)
(1.0292 -0.0473162 -0.0315013)
(1.06041 -0.0772159 0.0153481)
(0.968853 -0.00676444 -0.0237927)