/*--------------------------------*- C++ -*----------------------------------*\
  =========                 |
  \\      /  F ield         | OpenFOAM: The Open Source CFD Toolbox
   \\    /   O peration     | Website:  https://openfoam.org
    \\  /    A nd           | Version:  10
     \\/     M anipulation  |
\*---------------------------------------------------------------------------*/
FoamFile
{
    format      ascii;
    class       volVectorField;
    location    "75";
    object      U_0;
}
// * * * * * * * * * * * * * * * * * * * * * * * * * * * * * * * * * * * * * //

dimensions      [0 1 -1 0 0 0 0];

internalField   nonuniform List<vector> 
25600
(
(1.12964 0.0272092 -0.0100046)
(1.13382 0.0209333 -0.0127598)
(1.13397 0.00860476 -0.0116234)
(1.12914 -0.00457084 -0.00799596)
(1.12499 -0.0204278 -0.00730602)
(1.126 -0.0318858 -0.0098485)
(1.12812 -0.0315172 -0.0134781)
(1.12965 -0.0259376 -0.0160368)
(1.12711 -0.010926 -0.0143009)
(1.12103 0.00120522 -0.00862261)
(1.11648 0.00602564 -0.000168152)
(1.11597 0.0115734 0.00756029)
(1.12112 0.0077209 0.010574)
(1.12709 0.00506285 0.00812404)
(1.13373 0.00573226 0.00175908)
(1.13427 0.00521608 -0.00335767)
(1.12455 0.00506455 -0.0063316)
(1.11729 0.00166901 -0.00564215)
(1.11116 -0.00496573 -0.00132155)
(1.10598 -0.0120012 0.00494998)
(1.10798 -0.0130975 0.0127767)
(1.11348 -0.0111797 0.0197999)
(1.1179 -0.00332275 0.0249982)
(1.12063 0.00852961 0.0252221)
(1.12295 0.0161006 0.0218907)
(1.12355 0.0174096 0.0156168)
(1.12654 0.0137158 0.0074784)
(1.13148 0.00521126 0.000727556)
(1.13624 -0.00210963 -0.00405987)
(1.14103 -0.0034498 -0.00509307)
(1.14065 -0.00681666 -0.00507649)
(1.13894 -0.00623032 -0.00574374)
(1.13342 -0.00345044 -0.0066727)
(1.12469 -0.00119006 -0.00987369)
(1.11842 0.00601055 -0.0134602)
(1.10896 0.011369 -0.012914)
(1.10287 0.0158463 -0.00977891)
(1.10319 0.0228529 -0.00521581)
(1.10731 0.0267823 -0.00252245)
(1.11903 0.0275527 -0.00543466)
(1.13869 0.0225154 -0.021319)
(1.11755 0.0135895 -0.0172142)
(1.09577 -0.0046314 -0.00732599)
(1.07677 -0.0209167 0.00149806)
(1.06323 -0.031534 0.0016867)
(1.06032 -0.0379198 -0.00737165)
(1.06429 -0.033885 -0.0190426)
(1.07275 -0.0248689 -0.027623)
(1.08346 -0.010106 -0.0265765)
(1.09092 0.0039481 -0.0145125)
(1.0994 0.0100974 0.00388112)
(1.1103 0.0150734 0.0169054)
(1.12032 0.0116012 0.0158468)
(1.13035 0.00954003 0.00383572)
(1.1354 0.0130673 -0.0100392)
(1.1299 0.0115164 -0.0153848)
(1.11836 0.00786466 -0.0125779)
(1.10999 0.00124874 -0.00383083)
(1.10452 -0.0084623 0.00716648)
(1.10305 -0.012205 0.0168163)
(1.10666 -0.00620405 0.0249501)
(1.10723 0.00255848 0.0285355)
(1.10574 0.0130088 0.0298046)
(1.10315 0.0200157 0.0281403)
(1.10338 0.01774 0.0235851)
(1.11114 0.0107229 0.016019)
(1.12041 0.00266752 0.00479337)
(1.12862 -0.00625888 -0.00684259)
(1.13182 -0.0115333 -0.0149851)
(1.12598 -0.0134733 -0.0155762)
(1.1134 -0.013275 -0.0119466)
(1.1024 -0.00544042 -0.00883108)
(1.09222 0.0011441 -0.00839015)
(1.08866 0.00808757 -0.0135472)
(1.0936 0.0125871 -0.0190939)
(1.09927 0.00862004 -0.0179244)
(1.11191 0.0047837 -0.0134722)
(1.1271 0.0034613 -0.00954439)
(1.13972 0.0106012 -0.0106016)
(1.14697 0.0209072 -0.0173675)
(1.03897 0.00327732 -0.0115926)
(1.00373 -0.00747137 0.0121749)
(0.990377 -0.0173765 0.0268645)
(0.997253 -0.0210687 0.0197943)
(1.01081 -0.0234275 -0.0032847)
(1.02251 -0.0331787 -0.0312776)
(1.03222 -0.0380604 -0.0456553)
(1.03838 -0.0364045 -0.03995)
(1.0479 -0.0293572 -0.0197391)
(1.06008 -0.0153054 0.00611486)
(1.07879 -0.0005424 0.0203325)
(1.10092 0.0128068 0.0158348)
(1.10995 0.0164604 0.00311752)
(1.11364 0.0128248 -0.00769362)
(1.11351 0.00819542 -0.0113965)
(1.11092 0.00143537 -0.00772704)
(1.1131 -0.000653516 -0.00555509)
(1.11301 2.92376e-05 -0.00208518)
(1.10359 -0.00243497 0.00771011)
(1.08942 -0.00279839 0.0225354)
(1.07773 0.00301295 0.03884)
(1.0754 0.0116286 0.0444131)
(1.08863 0.0236518 0.0384941)
(1.10748 0.0304527 0.0273802)
(1.12399 0.0238852 0.0140165)
(1.1326 0.0112582 0.00351532)
(1.12365 -0.00468437 -0.00199778)
(1.10556 -0.0149443 -0.00472473)
(1.08506 -0.0151618 -0.00466742)
(1.06615 -0.0133156 -0.00446506)
(1.05757 -0.00555941 -0.00998232)
(1.05917 0.00130764 -0.017248)
(1.06528 -0.00019315 -0.0235757)
(1.08101 0.0026473 -0.0287299)
(1.10392 0.00386766 -0.0259567)
(1.12729 0.00474237 -0.0167206)
(1.14882 0.00865913 -0.0116648)
(1.15081 0.00830169 -0.0156794)
(1.12781 0.0136948 -0.0249609)
(1.08642 0.0143677 -0.0262339)
(0.990128 -0.00133325 0.000449338)
(0.973266 -0.0222787 0.0207581)
(0.978125 -0.0341583 0.0291367)
(0.992622 -0.0339301 0.0168667)
(0.993294 -0.0330505 -0.0107996)
(0.984952 -0.0462189 -0.042573)
(0.985952 -0.0589769 -0.0556053)
(0.99408 -0.0604705 -0.0434313)
(1.01921 -0.0462655 -0.0184292)
(1.04883 -0.0138958 0.00416251)
(1.07434 0.0190959 0.00431468)
(1.08918 0.0342082 -0.010753)
(1.09281 0.0248997 -0.0179094)
(1.10349 0.00635968 -0.0145159)
(1.10829 -0.00320758 -0.00315786)
(1.09961 -0.00480185 0.00594862)
(1.086 -0.00109566 0.00366591)
(1.0733 0.00124114 0.00420422)
(1.06523 -0.00196676 0.0153199)
(1.07033 -0.00495267 0.0331804)
(1.09124 -0.00025765 0.0489308)
(1.11895 0.0120641 0.0490732)
(1.14033 0.0244428 0.0356901)
(1.1401 0.0275695 0.020232)
(1.12246 0.017522 0.00755254)
(1.09757 -0.000858748 0.0029598)
(1.0701 -0.021911 0.00268849)
(1.05147 -0.0285375 -0.0026425)
(1.04339 -0.025567 -0.00640431)
(1.04728 -0.0237621 -0.00924311)
(1.06919 -0.0136282 -0.013691)
(1.09122 -0.00737109 -0.0161066)
(1.09926 -0.00564818 -0.024958)
(1.10201 0.000519076 -0.0346616)
(1.1105 0.00244924 -0.0302916)
(1.13481 0.00332758 -0.0168897)
(1.15678 0.00319518 -0.00916957)
(1.14248 0.00696605 -0.0126563)
(1.09423 0.0211043 -0.0195587)
(1.03516 0.0207169 -0.0160992)
(1.02141 -0.014588 0.00986632)
(1.01149 -0.0390375 0.0200993)
(1.00698 -0.0360215 0.0202001)
(0.992852 -0.0207461 0.00737497)
(0.957393 -0.0261281 -0.0159975)
(0.927969 -0.0580302 -0.0446398)
(0.92638 -0.0761028 -0.0615)
(0.939648 -0.0683221 -0.0584038)
(0.974111 -0.0369292 -0.0449243)
(1.01694 0.0110386 -0.0356549)
(1.04956 0.0439307 -0.0375813)
(1.06999 0.040445 -0.0281865)
(1.07765 0.0109866 -0.00732948)
(1.08389 -0.0110341 0.00351373)
(1.08467 -0.0122116 0.00302631)
(1.07702 -0.00330858 -0.00824443)
(1.07685 0.00400239 -0.0126059)
(1.07919 0.000808386 0.00834885)
(1.0631 -0.0128683 0.0407168)
(1.04551 -0.0282113 0.064979)
(1.04979 -0.0261206 0.065837)
(1.06888 -0.00663267 0.0411219)
(1.09266 0.0207033 0.0130925)
(1.11025 0.0380731 0.00295217)
(1.11064 0.0300547 0.00752153)
(1.09359 0.00699546 0.016367)
(1.0651 -0.0177757 0.0145018)
(1.04489 -0.024832 0.00294813)
(1.05179 -0.0193975 -0.00389596)
(1.0827 -0.00862415 -0.0114336)
(1.1215 0.0105512 -0.01811)
(1.1242 0.0171688 -0.027532)
(1.08772 0.0130049 -0.0439101)
(1.05831 0.00525931 -0.0433992)
(1.06223 -0.00596451 -0.0156387)
(1.10358 -0.00870381 0.00977831)
(1.14411 0.0064583 0.00771697)
(1.14256 0.0339456 -0.00829071)
(1.1035 0.0492102 -0.0157703)
(1.05403 0.0276889 -0.00627511)
(1.09462 -0.0033853 0.0174176)
(1.06766 -0.0124383 0.0246287)
(1.03874 -0.00187136 0.0245171)
(1.00208 0.000329662 0.0119383)
(0.95672 -0.0277971 -0.0163719)
(0.923889 -0.0705001 -0.0466301)
(0.918873 -0.0879311 -0.0568598)
(0.934996 -0.0743932 -0.0540626)
(0.978365 -0.0352709 -0.0498252)
(1.0129 0.0146554 -0.0424466)
(1.02106 0.0441017 -0.0280586)
(1.02274 0.037707 -0.00704163)
(1.02733 0.00884332 -0.00342593)
(1.05538 -0.0141108 -0.0148374)
(1.08168 -0.017286 -0.017887)
(1.08419 -0.0127306 -0.00693481)
(1.07309 -0.0108619 0.0201263)
(1.05309 -0.00213255 0.0487236)
(1.01829 -0.00272072 0.0623135)
(0.996564 -0.0228184 0.0577119)
(1.00897 -0.0288554 0.0276147)
(1.02691 -0.020465 -0.0100713)
(1.05799 -0.00576232 -0.0253304)
(1.07962 0.00956155 -0.0143145)
(1.07128 0.011537 0.00993371)
(1.06153 0.00852822 0.0262221)
(1.04863 0.00182718 0.0147105)
(1.04467 -0.00460218 -0.00748102)
(1.05567 -0.0186464 -0.0223151)
(1.08779 -0.0340368 -0.0312375)
(1.14169 -0.0183142 -0.0389046)
(1.15251 0.00798993 -0.0522724)
(1.10994 0.0163518 -0.0525304)
(1.07105 0.00713885 -0.0240058)
(1.05066 -0.00761982 0.0102528)
(1.05176 -0.0148958 0.0167691)
(1.08222 -0.00205919 -0.00429854)
(1.12743 0.0308954 -0.0210857)
(1.15194 0.0502366 -0.0171397)
(1.13219 0.0296576 0.00135573)
(1.02649 -0.010272 0.0317007)
(1.01575 -0.00586704 0.0498521)
(0.997219 0.00992888 0.0405286)
(0.979769 0.0156856 -0.00173268)
(0.956074 -0.00118433 -0.0476345)
(0.93993 -0.0284454 -0.0606867)
(0.94303 -0.0460554 -0.037811)
(0.960819 -0.0423639 -0.0178362)
(0.986455 -0.0113789 -0.0131632)
(0.994605 0.0251937 -0.0102416)
(1.01335 0.0345274 -0.0111678)
(1.05363 0.0156713 -0.0207774)
(1.07745 -0.00583324 -0.0241624)
(1.06057 -0.00836854 -0.00609317)
(1.00842 -0.00335979 0.0203187)
(0.978442 -0.00608372 0.0428736)
(0.98252 -0.00210076 0.0542229)
(0.980662 0.0113971 0.0504607)
(0.9694 -0.00198347 0.0389605)
(0.985038 -0.0375341 0.0179057)
(1.00701 -0.0576821 -0.0157001)
(1.01278 -0.0575834 -0.0327045)
(1.02807 -0.0314783 -0.0219115)
(1.01882 0.00164039 -0.00216752)
(0.997663 0.00710868 0.0168656)
(1.00561 0.00154386 0.0184498)
(1.02935 -0.00436378 0.00178924)
(1.05541 -0.0128635 -0.0106189)
(1.07961 -0.027035 -0.0262745)
(1.12353 -0.0320128 -0.0472354)
(1.15565 -0.00595714 -0.059756)
(1.12261 0.0174309 -0.0566046)
(1.07022 0.0146502 -0.0311063)
(1.03598 -0.000374389 -0.0117516)
(1.0044 -0.0175771 -0.0171819)
(0.994572 -0.0316462 -0.030937)
(1.02573 -0.0265662 -0.031567)
(1.0705 -0.000370363 -0.015633)
(1.08002 0.013173 -0.00295733)
(1.04913 0.00185327 0.00923715)
(1.01558 0.00312503 0.0145562)
(1.01789 0.0251701 0.0255467)
(0.994179 0.0307194 -0.00566799)
(0.980732 0.00843078 -0.051787)
(0.977893 -0.0207362 -0.0633756)
(0.967806 -0.034917 -0.0359561)
(0.948517 -0.0321137 0.000307944)
(0.936203 -0.0165028 0.0196279)
(0.947927 0.00378497 0.0320417)
(0.996625 0.014645 0.0418136)
(1.07551 0.0152616 0.0268838)
(1.11482 0.0209351 -0.00362767)
(1.07286 0.0303958 -0.0142881)
(1.00515 0.024172 -0.00184989)
(0.973644 -0.00733335 0.0125837)
(0.98016 -0.0452951 0.0236424)
(0.983235 -0.0577931 0.0252309)
(0.971126 -0.0531622 0.00732793)
(0.972157 -0.0640592 -0.0227163)
(0.983135 -0.071682 -0.0430647)
(0.976859 -0.0548041 -0.04484)
(0.968072 -0.0346221 -0.0251749)
(0.980111 -0.00885538 0.00959706)
(0.991198 0.0135146 0.0364381)
(1.00147 0.0159803 0.0470815)
(1.01686 0.0177982 0.0460928)
(1.02777 0.0158472 0.0374531)
(1.0314 0.00350124 0.0180576)
(1.05659 -0.0134884 -0.02784)
(1.09898 -0.0217254 -0.0684845)
(1.11594 -0.00717507 -0.0719118)
(1.10481 0.00255028 -0.0476676)
(1.10078 -0.00243962 -0.0153512)
(1.10106 0.000147975 -0.00605583)
(1.07684 0.00255428 -0.0229974)
(1.04739 -0.00823321 -0.0348128)
(1.01931 -0.0165104 -0.0173804)
(0.994191 -0.0138384 6.03087e-06)
(0.984167 -0.0125116 -0.0100555)
(0.990982 -0.0111332 -0.0100903)
(0.992735 -0.00897179 -0.0176439)
(0.992657 0.0122276 -0.0112582)
(0.987537 0.0198237 -0.0341227)
(0.998027 0.0106384 -0.0608875)
(0.996519 -0.00190341 -0.0551907)
(0.967272 -0.0184983 -0.0292275)
(0.936287 -0.0364146 -0.00499166)
(0.919844 -0.0381478 0.0246547)
(0.945664 -0.0238227 0.0614485)
(1.02775 -0.00282552 0.075811)
(1.11487 0.0203181 0.0551095)
(1.14598 0.0412954 0.0202069)
(1.11669 0.0439348 -0.000520647)
(1.08629 0.0232225 -0.00407314)
(1.07812 -0.00185956 0.00519971)
(1.03843 -0.0216636 0.0276098)
(0.966613 -0.0374114 0.0280305)
(0.935376 -0.0554611 -0.0131212)
(0.93666 -0.0686648 -0.0435604)
(0.932588 -0.0606351 -0.0258233)
(0.939957 -0.043219 -0.00277927)
(0.95818 -0.0346644 0.0124514)
(0.969531 -0.0218251 0.0385578)
(0.978628 -0.0129578 0.0516063)
(0.985894 -0.0185462 0.0475509)
(0.997528 -0.0125203 0.0420832)
(1.01953 9.27312e-05 0.018562)
(1.03266 -0.00471933 -0.0218065)
(1.04935 -0.0212758 -0.0533511)
(1.06065 -0.0288334 -0.0457547)
(1.0618 -0.0165171 -0.0215941)
(1.06878 -0.000894702 -0.00985938)
(1.07163 0.00696997 0.00263466)
(1.04238 0.00845872 0.00720839)
(0.997835 -0.00208687 -0.0146255)
(1.00908 -0.0109708 -0.0322462)
(1.05924 -0.0034466 -0.00914319)
(1.08181 0.00159589 0.00329874)
(1.04255 -0.0118309 -0.022044)
(0.993431 -0.0215416 -0.0325083)
(0.927696 -0.0125916 -0.0275935)
(0.935632 0.000285864 -0.0395245)
(0.95106 0.005099 -0.0695367)
(0.982372 0.00399718 -0.0842024)
(1.007 0.00404674 -0.0620303)
(1.00348 -0.00693839 -0.0384451)
(0.976077 -0.0296409 -0.0299187)
(0.951403 -0.0438609 -0.00788935)
(0.9867 -0.0345722 0.0290924)
(1.06766 -0.00185439 0.0515654)
(1.12629 0.0297632 0.0408424)
(1.14238 0.0380652 0.00698283)
(1.11477 0.023886 -0.0178768)
(1.06861 0.0174257 -0.0140917)
(1.03665 0.0278012 0.0214922)
(0.996538 0.0181878 0.0617466)
(0.95318 -0.0161322 0.0544417)
(0.939244 -0.0385711 0.0136862)
(0.934354 -0.0347567 0.0101027)
(0.942333 -0.0308952 0.035271)
(0.978537 -0.0289548 0.0330543)
(0.995782 -0.0153164 0.0339561)
(0.991738 0.00556242 0.055155)
(0.994208 0.0126348 0.0488492)
(0.96965 -0.00219284 0.0363433)
(0.959554 -0.0151439 0.0264878)
(0.982525 -0.0163786 -0.0033677)
(0.99369 -0.0152064 -0.0246592)
(0.998265 -0.0151583 -0.0263097)
(0.985232 -0.0180254 -0.011545)
(0.990905 -0.00981559 0.00325544)
(1.02125 0.0134849 0.0117719)
(1.02104 0.0298427 0.0239539)
(0.984414 0.0258422 0.0201756)
(0.960833 0.00179792 -0.0118525)
(1.00063 -0.0177358 -0.0248072)
(1.08906 -0.0110893 -0.00635377)
(1.131 0.00392624 -0.017834)
(1.04647 -0.00222476 -0.0431902)
(0.945685 -0.0164679 -0.0374147)
(0.915344 -0.00258018 -0.0151307)
(0.891648 -0.00789021 -0.0455209)
(0.901778 -0.0118923 -0.0827325)
(0.956034 -0.00634636 -0.0846214)
(1.01413 0.00872199 -0.050958)
(1.03099 0.00611361 -0.0231025)
(1.00517 -0.0168662 -0.0124914)
(0.976512 -0.0340971 0.0003083)
(1.00153 -0.0232273 0.0140561)
(1.05736 0.0140794 0.0206067)
(1.08254 0.0404909 0.00695522)
(1.07401 0.0362703 -0.0237687)
(1.04295 0.0222972 -0.0362901)
(1.01277 0.0245528 -0.013208)
(1.00573 0.0293449 0.0335269)
(0.983307 0.00875817 0.0639128)
(0.942767 -0.0211233 0.0390825)
(0.924236 -0.0281196 0.00223757)
(0.929478 -0.016177 0.031949)
(0.957227 -0.0134271 0.0704061)
(0.986674 -0.0124507 0.0457805)
(0.990381 -0.000299405 0.0276529)
(0.998996 0.0196849 0.0330631)
(0.995595 0.0292361 0.0271916)
(0.956383 0.00741976 0.0397402)
(0.955782 -0.0172679 0.0332631)
(0.982711 -0.0184303 -0.00746279)
(0.985538 -0.0115377 -0.0195581)
(0.978583 -0.00791253 -0.00648025)
(0.96748 -0.0100905 0.00934324)
(0.992659 -0.00142777 0.0155571)
(1.01826 0.0237375 0.0190447)
(0.997011 0.0310004 0.0225954)
(0.967844 0.0137303 -0.000100876)
(0.968792 -0.00962529 -0.032832)
(1.01559 -0.0201068 -0.0261921)
(1.08058 -0.00899948 -0.0169819)
(1.08788 0.00867704 -0.0455269)
(1.01388 0.0110167 -0.0492896)
(0.946749 0.00385788 -0.0199559)
(0.95081 0.0103759 -0.00551733)
(0.913378 0.000196993 -0.035487)
(0.910088 -0.0124448 -0.0524298)
(0.953166 -0.0157513 -0.046257)
(1.00262 -0.0013833 -0.029438)
(1.02478 -0.00230733 -0.00564867)
(1.02872 -0.0266315 0.0219153)
(1.02672 -0.0416994 0.0374234)
(1.02733 -0.0197766 0.0349959)
(1.03055 0.0262868 0.0246455)
(1.03704 0.0484677 -0.00437567)
(1.04439 0.0380526 -0.043649)
(1.04228 0.0211883 -0.0504921)
(1.0329 0.0182085 -0.0151192)
(1.01559 0.0202015 0.0342098)
(0.959626 0.00692386 0.0490042)
(0.903529 -0.0152946 0.00847167)
(0.895029 -0.0192979 -0.00460722)
(0.931855 -0.00682095 0.0711233)
(0.988404 -0.00140397 0.120328)
(1.01493 0.00382628 0.0838538)
(1.00615 0.0149221 0.0588567)
(1.0085 0.0312941 0.0487318)
(1.00203 0.0391137 0.0394052)
(0.97121 0.013641 0.0584884)
(0.957136 -0.013001 0.030478)
(0.952427 -0.0126753 -0.0301343)
(0.949599 -0.00557876 -0.0293204)
(0.959067 -0.00224233 0.000449684)
(0.964803 -0.0010661 0.0155736)
(0.986082 0.0146095 0.0202235)
(1.00782 0.0345155 0.0215998)
(1.01829 0.0263751 0.0106982)
(1.01557 0.00671466 -0.02469)
(1.01442 -0.00593648 -0.0447789)
(1.05082 -0.00975718 -0.0249226)
(1.07779 0.000856229 -0.0283318)
(1.04564 0.0151617 -0.0552303)
(0.999807 0.0182015 -0.0327516)
(0.977113 0.0163365 0.00231295)
(0.94686 0.0241525 -0.0241139)
(0.913197 0.0148917 -0.0328418)
(0.923586 -0.00692627 -0.0187758)
(0.96307 -0.0250193 -0.0103508)
(1.00494 -0.0143269 -0.0119266)
(1.02351 -0.0130278 0.0037444)
(1.01968 -0.0383858 0.0405644)
(1.00413 -0.0435521 0.0704142)
(1.00776 -0.00515889 0.0781158)
(1.04273 0.0401801 0.0636011)
(1.06641 0.0497576 0.0208376)
(1.05579 0.0310476 -0.032002)
(1.04869 0.0151268 -0.0510917)
(1.05594 0.0170964 -0.00924154)
(1.02714 0.0194019 0.0520725)
(0.943312 0.000300029 0.0419564)
(0.895422 -0.0187041 -0.0267555)
(0.906317 -0.0182378 -0.0108864)
(0.947831 -0.0137598 0.10006)
(0.997536 -0.010771 0.13525)
(1.02193 0.00569121 0.0845588)
(1.01674 0.0193004 0.0584639)
(1.02608 0.0330539 0.0489296)
(1.02714 0.0424424 0.0547909)
(0.996206 0.0134153 0.0707742)
(0.959676 -0.0133385 0.00850224)
(0.930386 -0.00470904 -0.0617133)
(0.923111 0.00590813 -0.0417286)
(0.940678 0.00342057 -0.00443924)
(0.959371 0.00401026 0.0137516)
(0.989906 0.0212722 0.0302197)
(1.03222 0.024887 0.0252014)
(1.06117 -0.0027312 -0.0129445)
(1.04751 -0.0139285 -0.0552071)
(1.02993 -0.00193537 -0.0538589)
(1.06039 0.0115972 -0.0305388)
(1.06029 0.0205778 -0.0448984)
(1.01005 0.0136321 -0.054182)
(0.991294 0.00646468 -0.0156479)
(0.984803 0.0180264 -0.001205)
(0.908715 0.0296729 -0.031526)
(0.905996 0.0201455 -0.00919442)
(0.923858 -0.00494706 0.0163031)
(0.933354 -0.0278701 0.0227704)
(0.972739 -0.014085 0.022454)
(0.995728 -0.0110045 0.0394681)
(0.962019 -0.037293 0.0631947)
(0.94096 -0.0445014 0.0760156)
(1.0037 -0.0149334 0.0807682)
(1.08854 0.0259164 0.0678031)
(1.06909 0.0375624 0.0217624)
(1.01146 0.0178213 -0.0295878)
(1.00643 0.00249354 -0.0399389)
(1.02326 0.0121111 0.0142653)
(0.991848 0.0167494 0.0683563)
(0.914961 -0.0112882 0.0289936)
(0.885316 -0.0278774 -0.0333338)
(0.904994 -0.00942319 0.0185981)
(0.920736 0.00336631 0.109761)
(0.951188 0.00569952 0.0859625)
(0.981945 0.0231174 0.0229045)
(0.979434 0.0306358 0.00577926)
(1.00284 0.0321908 0.0102763)
(1.0378 0.0338007 0.0549107)
(1.01548 0.00215329 0.0699746)
(0.968545 -0.018718 -0.0231072)
(0.937039 -0.00156765 -0.0821913)
(0.930041 0.0122688 -0.0453467)
(0.93703 0.00732959 -0.0185942)
(0.951488 0.00619403 -0.0051075)
(1.01783 0.0234252 0.0171433)
(1.0912 0.0172538 0.00681472)
(1.07048 -0.0160645 -0.0435806)
(1.01357 -0.00983957 -0.0755435)
(1.00599 0.0200118 -0.051654)
(1.04444 0.0329646 -0.0372524)
(1.04269 0.0288369 -0.0636575)
(1.0044 0.0109539 -0.0515994)
(0.97956 0.00536306 -0.0123122)
(0.949743 0.023365 -0.0201273)
(0.872249 0.0374439 -0.00811328)
(0.901068 0.0367932 0.0213216)
(0.923913 0.000915237 0.0320751)
(0.923627 -0.0327878 0.0460723)
(0.945771 -0.0198374 0.0519622)
(0.924743 -0.0206363 0.0492999)
(0.875938 -0.0470575 0.0556074)
(0.884 -0.0440309 0.0621147)
(0.956636 -0.00766124 0.0559717)
(0.992655 0.0324216 0.0293801)
(0.941277 0.0307355 -0.0138078)
(0.921081 -0.000318347 -0.0431956)
(0.952254 -0.0143415 -0.0291388)
(0.979857 0.00449459 0.0293257)
(0.960303 0.0139911 0.0572361)
(0.895855 -0.0105393 0.0130097)
(0.860575 -0.0248627 -0.00266946)
(0.87683 -0.000344455 0.0621408)
(0.905375 0.012108 0.0947699)
(0.931774 0.00662084 0.0374905)
(0.943209 0.0213725 -0.0164692)
(0.947488 0.0261552 -0.0328752)
(0.9774 0.0237166 0.00105257)
(1.00165 0.0232669 0.0667544)
(0.978957 -0.00527249 0.0374743)
(0.949288 -0.0186002 -0.0657781)
(0.94053 0.00270701 -0.0856762)
(0.944499 0.0114292 -0.0373853)
(0.953288 0.00404388 -0.0178729)
(0.98176 0.00198119 -0.0100029)
(1.07878 0.0154748 -0.00533477)
(1.11029 0.0104541 -0.0361289)
(1.0013 -0.012464 -0.0750098)
(0.933328 -0.00134914 -0.070913)
(0.959841 0.0248885 -0.0408581)
(1.02133 0.0364196 -0.0453398)
(1.03714 0.0339542 -0.0662559)
(0.9955 0.0179848 -0.0440396)
(0.927861 0.00798849 -0.0244816)
(0.882361 0.0220184 -0.0318887)
(0.871426 0.0478367 0.0123049)
(0.924375 0.0348513 0.0221902)
(0.962716 -0.0118928 0.0363606)
(0.941004 -0.0307707 0.0653459)
(0.914136 -0.00725187 0.0442346)
(0.886319 -0.0253931 0.0126969)
(0.862642 -0.0603508 0.040598)
(0.868453 -0.047001 0.0703169)
(0.900491 -0.00464474 0.0606951)
(0.901538 0.0286596 0.0228034)
(0.865329 0.0208809 -0.0214256)
(0.866423 -0.0111945 -0.0307689)
(0.912418 -0.0229665 0.00377873)
(0.956384 0.00268082 0.0524149)
(0.954985 0.0232003 0.0537787)
(0.89993 0.004834 0.022515)
(0.860651 -0.0177573 0.0371127)
(0.88203 -0.00333522 0.0794021)
(0.92265 0.0114192 0.0644253)
(0.928066 0.00894216 0.00482876)
(0.933379 0.0195701 -0.0347585)
(0.954812 0.0266744 -0.017875)
(0.958205 0.0224346 0.0546598)
(0.946319 0.0116793 0.0580521)
(0.9328 -0.0130388 -0.0426724)
(0.92829 -0.0171733 -0.0989646)
(0.934914 -0.00084129 -0.0439091)
(0.942103 -0.00400905 0.015765)
(0.974858 -0.0112029 0.0102298)
(1.00692 -0.00915245 -0.0221653)
(1.05946 0.00712301 -0.0412078)
(1.00944 0.0169518 -0.0686035)
(0.893199 -0.0019986 -0.0806074)
(0.861719 -0.00132607 -0.0488795)
(0.921457 0.0168754 -0.018319)
(1.01062 0.0286516 -0.0273374)
(1.02883 0.0361939 -0.0450602)
(0.980908 0.026461 -0.0435521)
(0.907319 0.0105749 -0.0418869)
(0.866798 0.0255976 -0.025229)
(0.911307 0.0433352 -0.00390698)
(0.97857 0.0183787 0.00204393)
(0.999084 -0.016149 0.0460824)
(0.962922 -0.0183089 0.0724939)
(0.935432 -0.00238234 0.0152865)
(0.936545 -0.0327207 -0.0269473)
(0.907411 -0.0568256 0.0327636)
(0.863688 -0.0349988 0.0900519)
(0.839118 0.0010789 0.0828054)
(0.811796 0.0289635 0.0289057)
(0.785045 0.0248644 -0.0139476)
(0.789116 -0.0131511 0.00169512)
(0.840268 -0.0330869 0.0595153)
(0.926455 0.000377808 0.104147)
(0.968574 0.0373517 0.0881143)
(0.917912 0.0263115 0.0590611)
(0.861403 -0.00485012 0.0667949)
(0.88749 -0.00426344 0.0741142)
(0.927147 0.0117152 0.0415392)
(0.921687 0.0102396 -0.0107421)
(0.95096 0.0173254 -0.0294749)
(0.973143 0.0307849 0.0282377)
(0.937807 0.0249105 0.0673649)
(0.906028 0.00223136 -0.0250235)
(0.874017 -0.0199322 -0.110377)
(0.89016 -0.0174603 -0.0716158)
(0.907001 -0.012911 0.0051927)
(0.92584 -0.0178725 0.0383506)
(0.952458 -0.00510472 0.00340269)
(0.961937 0.00276899 -0.0408128)
(0.962127 0.0137015 -0.0521506)
(0.900147 0.0193859 -0.0738704)
(0.843219 -0.0103018 -0.0699055)
(0.838596 -0.0178791 -0.0203685)
(0.915553 0.00170677 0.00533864)
(1.00143 0.0239457 -0.0062076)
(1.00397 0.0396066 -0.0258921)
(0.976708 0.0245476 -0.0405666)
(0.910369 0.00904195 -0.035475)
(0.870403 0.0305604 -0.0135642)
(0.982958 0.0258292 -0.0185559)
(1.00151 0.00564943 0.00360101)
(0.990042 -0.0182836 0.0594707)
(0.973084 -0.0174857 0.0675196)
(0.948817 -0.0119506 -0.00288324)
(0.950217 -0.0350912 -0.0336561)
(0.936521 -0.0378139 0.0407921)
(0.877409 -0.0199284 0.0957713)
(0.801491 -0.00542543 0.077973)
(0.759773 0.0220276 0.0318094)
(0.759997 0.0305185 -0.000199892)
(0.758296 -0.0114186 0.0169)
(0.762899 -0.0408175 0.0781823)
(0.851855 -0.0043412 0.122441)
(0.926846 0.047133 0.108096)
(0.886083 0.0504731 0.0781943)
(0.847241 0.0134354 0.0655274)
(0.885474 -0.0018704 0.0611431)
(0.914133 0.0115833 0.0278167)
(0.930638 0.0115842 -0.0194186)
(0.98134 0.0185422 -0.0111536)
(0.962192 0.0320314 0.0509501)
(0.910718 0.0192512 0.0234096)
(0.862859 -0.00569339 -0.0935013)
(0.82781 -0.0175645 -0.106922)
(0.859315 -0.0203987 -0.034762)
(0.874124 -0.0248175 0.0113403)
(0.899195 -0.0144922 0.0259313)
(0.92854 0.00954683 -0.0159361)
(0.921855 0.00663335 -0.0462423)
(0.899997 0.0105593 -0.044199)
(0.868324 0.0135287 -0.0766094)
(0.848798 -0.0180616 -0.0561708)
(0.849225 -0.0273983 0.0102854)
(0.922661 -0.00316351 0.0177379)
(0.971083 0.022271 -0.00245957)
(0.96117 0.0319112 -0.0256157)
(0.947881 0.0169681 -0.0295047)
(0.898064 0.0105301 -0.00500473)
(0.908409 0.0267301 -0.00262044)
(1.00978 0.0141801 -0.0100796)
(1.00645 0.00535917 0.01429)
(0.987302 -0.0191066 0.0582422)
(0.956703 -0.0211453 0.0582185)
(0.933793 -0.0200363 -0.0079252)
(0.944163 -0.0329052 -0.0235179)
(0.928559 -0.0171041 0.0551716)
(0.857456 -0.0116381 0.0868738)
(0.777926 -0.0165726 0.0583226)
(0.750838 0.0233373 0.0168482)
(0.77293 0.0425466 -0.0147614)
(0.786272 -0.00366712 0.00254384)
(0.775549 -0.0411827 0.0624775)
(0.828111 -0.00735425 0.11418)
(0.880635 0.05521 0.113999)
(0.853116 0.0665538 0.0761016)
(0.838899 0.0250858 0.0382006)
(0.857701 0.00553687 0.0258207)
(0.886827 0.017205 0.00782798)
(0.95412 0.0143862 -0.012282)
(0.995586 0.0217224 0.0147813)
(0.950675 0.03387 0.0543564)
(0.910783 0.0197314 -0.0172393)
(0.829567 -0.00236525 -0.115127)
(0.799058 -0.0141199 -0.0779755)
(0.835012 -0.0237148 -0.014306)
(0.821007 -0.025491 0.00609565)
(0.853772 -0.00739668 0.0113259)
(0.898194 0.0150838 -0.0321186)
(0.887252 0.00652663 -0.0320362)
(0.873153 0.00760124 -0.0184759)
(0.864109 0.00859567 -0.0716388)
(0.858788 -0.0195206 -0.0426802)
(0.864683 -0.0279091 0.0329871)
(0.915637 -0.00309629 0.0250279)
(0.942366 0.0203151 -0.00283413)
(0.945681 0.0275728 -0.0215474)
(0.943895 0.0126604 -0.0101561)
(0.922121 0.0026147 0.0185416)
(0.960673 0.00875456 0.00696989)
(1.0072 0.0110727 0.000304866)
(1.01281 0.00635524 0.0213117)
(0.965084 -0.0214076 0.0546755)
(0.910959 -0.0275484 0.0511732)
(0.912287 -0.0279641 -0.00507473)
(0.928997 -0.0230687 -0.00503134)
(0.900136 0.0046104 0.0717878)
(0.829652 -0.00676764 0.0758477)
(0.758779 -0.0217857 0.0302924)
(0.749119 0.0243261 -0.00916615)
(0.791023 0.0404697 -0.0296656)
(0.811594 -0.00418515 -0.000809246)
(0.803121 -0.0348012 0.0637599)
(0.82561 -0.00093569 0.112513)
(0.84471 0.0629554 0.110343)
(0.843459 0.0761389 0.0644857)
(0.839075 0.0345187 0.0196888)
(0.831852 0.0147527 0.0122912)
(0.878303 0.0184536 0.00948729)
(0.963086 0.00788177 0.00739017)
(0.982116 0.0177803 0.0347265)
(0.948304 0.0317623 0.0486053)
(0.920333 0.0239925 -0.0281174)
(0.82481 0.00852422 -0.0964209)
(0.80291 -0.013774 -0.0533965)
(0.826949 -0.0311306 -0.00850206)
(0.780848 -0.0279369 3.68176e-05)
(0.821929 -0.0102926 -0.000641439)
(0.891422 0.0094802 -0.0360745)
(0.884164 0.00169221 -0.00413434)
(0.865445 0.00242212 0.0136894)
(0.85232 0.00611299 -0.0624502)
(0.864632 -0.0213153 -0.0346813)
(0.886172 -0.0276148 0.0440784)
(0.920464 0.00213011 0.0352857)
(0.967224 0.0238808 0.0153949)
(1.0123 0.0232753 0.00266985)
(0.998383 0.00298793 0.0113399)
(0.961394 -0.00816411 0.0314263)
(0.97692 -0.00232889 0.0144182)
(0.986345 0.0106607 0.00853808)
(1.02288 0.00885047 0.0301747)
(0.95828 -0.0232125 0.0529896)
(0.870349 -0.0345154 0.0463382)
(0.878133 -0.0315436 0.00473801)
(0.897162 -0.0102687 0.0145915)
(0.877181 0.0199806 0.0842416)
(0.826672 -0.0051856 0.0712473)
(0.756878 -0.0241609 0.00316999)
(0.760006 0.0243146 -0.0386892)
(0.817697 0.0375862 -0.0501527)
(0.829624 -0.000449595 -0.0171927)
(0.8134 -0.0208649 0.0476934)
(0.813942 0.011687 0.0969739)
(0.820725 0.0686552 0.0962908)
(0.849979 0.0800479 0.0474652)
(0.836378 0.0409128 0.00288811)
(0.822651 0.0209353 0.00818186)
(0.891963 0.0159985 0.0139274)
(0.95059 -0.00110276 0.0109664)
(0.954211 0.0105623 0.0334654)
(0.947448 0.0298892 0.0366933)
(0.916875 0.0286974 -0.032839)
(0.836753 0.0135712 -0.0790448)
(0.829591 -0.0191041 -0.0372612)
(0.814779 -0.0335943 -0.0171026)
(0.755379 -0.02249 -0.0243449)
(0.814494 -0.01198 -0.0263931)
(0.896008 -0.000595221 -0.0382283)
(0.882575 -0.00619434 0.0188059)
(0.854939 -0.001623 0.0253103)
(0.850515 0.00447256 -0.0540236)
(0.881628 -0.0252742 -0.0149554)
(0.899062 -0.0264345 0.0541571)
(0.934712 0.00723921 0.0428785)
(1.03537 0.0167348 0.035595)
(1.07885 0.0103615 0.0170472)
(1.00052 0.000232411 0.0136212)
(0.94647 -0.00797892 0.0306169)
(0.952261 -0.00649908 0.0177067)
(0.96902 0.010838 0.0189373)
(1.04481 0.0070362 0.0505445)
(0.970923 -0.0227356 0.0541965)
(0.836673 -0.0364389 0.0343751)
(0.82827 -0.0307598 0.0100746)
(0.838771 -0.000824968 0.0386479)
(0.834848 0.0237382 0.101523)
(0.816291 -0.00775095 0.0683094)
(0.767293 -0.0208747 -0.023867)
(0.794605 0.0236324 -0.0768736)
(0.855491 0.0292557 -0.0788833)
(0.843898 0.000799307 -0.0310059)
(0.810675 -0.00864301 0.0362834)
(0.794532 0.0212765 0.0765004)
(0.809548 0.0708329 0.0739494)
(0.863129 0.0816537 0.0277775)
(0.833229 0.0462392 -0.0116993)
(0.831275 0.0243258 -0.0016529)
(0.928812 0.0121607 0.000990316)
(0.955457 -0.00694565 -0.00468364)
(0.937489 0.00587216 0.0213028)
(0.940528 0.0290213 0.0241741)
(0.929251 0.0322311 -0.044049)
(0.909722 0.0119343 -0.0706528)
(0.876677 -0.024343 -0.0184597)
(0.79415 -0.029509 -0.0210165)
(0.749864 -0.0126582 -0.0470785)
(0.820994 -0.0121425 -0.0503643)
(0.872167 -0.0109652 -0.0434095)
(0.855268 -0.0142275 0.0195558)
(0.841742 -0.00467155 0.0179742)
(0.871776 0.00124127 -0.0392613)
(0.892781 -0.0276292 0.0198217)
(0.880516 -0.0203027 0.0682839)
(0.946596 0.00866595 0.0416941)
(1.0562 0.0054838 0.0272815)
(1.0217 0.0068635 0.00142309)
(0.912708 0.00909152 0.000768691)
(0.904482 -0.00189429 0.0290324)
(0.927761 -0.00491885 0.0206142)
(0.958549 0.00904602 0.0303868)
(1.05002 0.00264588 0.0772818)
(0.963061 -0.0193145 0.0502086)
(0.779009 -0.033479 0.0171402)
(0.726348 -0.0242852 0.0240848)
(0.718955 0.0072668 0.0819319)
(0.764914 0.0170764 0.112157)
(0.797878 -0.0131623 0.0459919)
(0.797594 -0.0189732 -0.0590967)
(0.852707 0.0132082 -0.114146)
(0.86487 0.0165147 -0.0859779)
(0.811087 0.0037337 -0.0123764)
(0.769144 0.00316041 0.0464167)
(0.760725 0.0271012 0.0611221)
(0.811868 0.0692291 0.0490842)
(0.87797 0.0816166 0.0088588)
(0.831722 0.0503983 -0.0209849)
(0.859359 0.0207506 -0.0170891)
(0.974727 0.00178919 -0.0233857)
(0.976002 -0.0118743 -0.0182075)
(0.934984 0.00455172 0.0185953)
(0.923729 0.0289682 0.0174367)
(0.966579 0.0289293 -0.0633127)
(1.00612 0.00467061 -0.0752697)
(0.904553 -0.025337 -0.00504877)
(0.774923 -0.0188119 -0.0290095)
(0.771255 -0.00232761 -0.075251)
(0.805218 -0.0124744 -0.066595)
(0.817757 -0.0170368 -0.0361108)
(0.826934 -0.0201167 0.0211743)
(0.834891 -0.00994019 0.00953488)
(0.889205 -0.00476739 -0.0155928)
(0.87108 -0.0253371 0.0574274)
(0.846821 -0.0121129 0.0694846)
(0.951557 0.00796533 0.0189227)
(0.994832 0.00283174 0.00183862)
(0.907049 0.011958 -0.0187269)
(0.847455 0.0156932 -0.00822721)
(0.894733 0.00368253 0.0311031)
(0.926306 0.000214808 0.0150085)
(0.924278 0.00709964 0.0522469)
(1.00342 -0.00476476 0.0906238)