# y+ ()       
# Time        	patch         	min           	max           	average       
50            	bottomWall	1.135908e+00	3.628869e+00	2.079874e+00
50            	topWall	9.076579e-01	3.632570e+00	2.112266e+00
