/*--------------------------------*- C++ -*----------------------------------*\
  =========                 |
  \\      /  F ield         | OpenFOAM: The Open Source CFD Toolbox
   \\    /   O peration     | Website:  https://openfoam.org
    \\  /    A nd           | Version:  10
     \\/     M anipulation  |
\*---------------------------------------------------------------------------*/
FoamFile
{
    format      ascii;
    class       volScalarField;
    location    "35";
    object      nut;
}
// * * * * * * * * * * * * * * * * * * * * * * * * * * * * * * * * * * * * * //

dimensions      [0 2 -1 0 0 0 0];

internalField   nonuniform List<scalar> 
25600
(
3.14473e-13
2.39435e-13
6.26574e-13
8.96477e-13
4.417e-13
1.72592e-10
1.40141e-12
2.49942e-13
4.24267e-09
1.56373e-12
2.44539e-13
1.63772e-09
1.63793e-09
4.70435e-13
3.07172e-13
3.1227e-13
1.3219e-13
3.01174e-13
5.39796e-10
4.97416e-09
2.19675e-11
3.05275e-09
2.07764e-09
2.02623e-12
2.82781e-09
2.04227e-12
9.98678e-13
2.65496e-13
4.75128e-13
4.27614e-11
5.51681e-13
4.0618e-09
1.82099e-09
4.3653e-13
5.5618e-13
1.67768e-13
3.40772e-13
1.8875e-13
1.19114e-12
1.84562e-13
3.79107e-13
3.22675e-10
2.67726e-10
3.57342e-09
6.68671e-13
3.34536e-13
1.14553e-12
1.22294e-09
9.23807e-13
3.51582e-13
9.68389e-10
4.54773e-12
5.43738e-13
2.4316e-09
8.2289e-11
1.1384e-09
9.40694e-10
1.44014e-12
1.87348e-09
1.04909e-09
2.43707e-09
2.28469e-13
2.61362e-13
4.97601e-09
1.11361e-12
9.65496e-13
2.71802e-11
2.60366e-12
1.50996e-12
6.5309e-13
9.28198e-10
1.22119e-12
1.06436e-09
4.30821e-09
5.69815e-13
2.66172e-13
5.46234e-09
3.57182e-09
2.42212e-09
4.18076e-09
2.31581e-13
5.72818e-10
1.79488e-10
3.62179e-12
2.29473e-13
1.71314e-13
2.88909e-09
2.38362e-09
1.05349e-13
3.0988e-13
3.64814e-09
4.24861e-10
8.157e-13
2.15021e-09
3.86478e-13
2.08876e-12
1.87965e-09
5.79326e-10
4.25198e-13
1.77888e-09
6.99998e-13
1.55372e-10
3.92109e-09
2.45444e-13
2.14697e-09
9.87261e-10
7.72816e-13
1.52173e-09
2.71864e-09
3.41178e-10
5.27252e-13
3.88727e-09
3.32633e-09
8.13364e-13
1.28611e-09
4.67641e-10
4.95781e-14
1.53483e-11
6.80923e-10
3.47338e-13
3.83369e-10
1.32518e-09
1.34475e-09
4.30766e-10
2.78533e-12
1.64099e-09
2.71259e-09
9.88547e-10
2.31781e-09
1.42123e-09
2.61545e-12
1.7529e-13
3.52993e-12
6.83766e-10
2.0237e-13
5.94292e-10
3.9769e-09
4.83796e-12
9.2628e-10
8.22316e-10
6.00344e-13
2.61367e-13
6.63659e-14
8.59057e-10
4.63407e-13
3.80286e-13
1.23758e-09
2.31553e-09
8.61497e-13
4.04528e-13
8.16917e-10
3.33965e-09
6.41725e-13
3.08384e-13
6.01351e-13
7.27853e-11
4.68196e-09
2.44653e-10
1.33149e-12
3.04898e-13
7.46678e-10
2.12179e-12
7.46312e-13
3.71963e-10
1.58288e-09
2.23888e-12
9.34676e-13
1.85962e-12
1.90738e-10
2.62552e-13
1.32189e-12
9.22257e-13
1.4513e-13
4.14588e-13
1.06338e-09
5.19276e-09
1.03756e-12
2.59374e-13
2.9784e-09
5.2411e-13
5.18332e-10
1.58784e-09
1.34651e-09
2.949e-14
5.6647e-13
1.86226e-09
1.88444e-13
1.1209e-13
3.62256e-12
3.86012e-09
1.54056e-09
1.79729e-13
8.05686e-10
9.53671e-10
1.77157e-09
4.19988e-09
5.54208e-13
1.19859e-13
1.48267e-09
5.07159e-10
1.75215e-10
3.72896e-13
2.92157e-13
8.14214e-10
3.11952e-13
2.87691e-12
5.0587e-13
1.47488e-09
1.50265e-09
2.03279e-12
8.45126e-12
3.1572e-13
3.24249e-12
1.95793e-09
4.33409e-10
1.28384e-13
2.75628e-12
1.12905e-11
1.55438e-12
1.83553e-10
2.75155e-09
2.68883e-13
2.88275e-13
4.07141e-10
1.73795e-12
1.34543e-13
2.55746e-13
1.31062e-09
3.48389e-09
1.49358e-09
9.60072e-14
2.60148e-12
5.9163e-10
3.34182e-09
1.81076e-09
3.14371e-13
1.22669e-10
2.53164e-09
2.0114e-12
2.73829e-09
1.75191e-13
2.12985e-13
4.15439e-13
2.39171e-13
1.11582e-09
6.69007e-10
3.39411e-11
1.12013e-10
3.15721e-13
3.67759e-12
2.56278e-09
1.88056e-09
2.38435e-13
9.6514e-13
1.26278e-13
9.1991e-10
1.63703e-12
3.95968e-13
2.48871e-09
1.85065e-09
2.93572e-13
6.45326e-12
3.52103e-13
1.58803e-12
3.21311e-09
2.06475e-09
3.53756e-10
9.59146e-10
7.43319e-14
1.72592e-09
1.65422e-12
2.74491e-13
1.35575e-09
5.74187e-13
4.7549e-13
3.62481e-09
1.28201e-09
2.67827e-13
1.78521e-09
9.76708e-10
2.44594e-09
2.39186e-13
9.21169e-14
1.72262e-09
1.3958e-13
8.97724e-11
2.63436e-09
4.22639e-12
4.30842e-13
1.94353e-12
1.89534e-13
2.10728e-13
3.24219e-13
1.50372e-09
5.51909e-09
1.38339e-10
1.93555e-12
6.67039e-09
2.5608e-12
3.73837e-13
4.06436e-12
1.85201e-13
2.18426e-13
1.44412e-09
1.26557e-13
2.9943e-13
4.24428e-10
9.85278e-14
2.44527e-10
1.00149e-09
6.59723e-13
7.20424e-13
7.65099e-10
5.95518e-10
1.56665e-11
2.931e-13
2.16189e-13
9.63727e-10
1.3395e-13
4.38773e-13
1.44487e-09
1.80027e-09
1.73906e-09
3.2478e-13
3.91999e-12
1.63696e-09
3.84666e-13
1.10831e-13
1.85129e-12
1.72452e-09
1.2122e-09
3.13196e-13
9.12105e-10
2.75534e-12
1.48549e-13
2.20144e-13
2.75986e-09
1.55275e-13
2.51265e-13
7.2473e-13
5.90948e-10
1.17218e-10
4.4511e-10
1.5815e-13
5.30733e-13
2.50466e-09
4.57727e-14
2.49627e-13
5.74766e-13
1.17728e-13
2.16586e-13
1.06426e-12
1.12632e-09
1.76098e-12
2.00293e-13
7.25659e-10
1.6317e-09
5.69313e-13
7.10151e-10
2.74252e-09
1.31728e-10
2.08455e-13
1.62535e-13
1.04177e-09
7.11358e-10
1.6425e-13
1.30876e-09
1.47995e-09
1.51664e-13
2.54183e-10
3.40813e-13
5.09399e-13
5.59077e-13
2.08818e-10
1.55954e-09
4.15522e-10
1.536e-13
6.2265e-10
3.47021e-09
6.56115e-13
2.67111e-13
1.75689e-09
2.14886e-09
3.04267e-09
2.08289e-09
3.09473e-10
2.06491e-09
2.77063e-09
3.26818e-11
1.962e-09
2.75231e-09
1.68315e-13
4.7989e-10
1.80944e-09
2.96958e-12
8.24017e-10
9.11485e-11
3.62578e-10
1.69235e-09
2.34807e-13
2.09297e-10
3.33222e-13
2.01862e-09
1.74897e-12
1.95865e-13
1.66255e-09
7.11977e-10
4.08258e-13
1.52226e-09
8.31063e-10
7.62442e-10
2.79593e-09
1.11613e-09
1.37005e-09
8.81189e-12
3.54448e-13
3.85441e-13
8.36004e-10
1.01915e-13
8.31524e-10
1.20594e-09
2.73564e-13
1.49692e-10
1.08195e-13
1.6228e-12
2.01887e-13
1.34569e-12
1.65877e-13
1.19813e-13
3.13704e-12
4.41618e-10
1.12035e-12
1.74525e-09
2.24646e-13
9.92984e-14
1.30776e-13
6.09162e-14
7.77455e-10
9.30683e-13
3.80995e-13
2.59136e-09
1.33937e-09
6.46844e-13
4.60147e-13
1.02662e-09
1.32591e-13
3.91153e-11
1.01662e-09
1.20382e-10
1.30393e-09
2.84348e-10
5.17251e-14
5.85461e-11
7.89706e-13
4.30267e-14
2.28534e-09
9.80508e-11
8.67248e-14
1.99403e-09
1.3703e-09
4.96905e-13
2.5651e-09
8.72237e-11
2.2808e-12
4.1054e-14
1.83739e-11
1.16927e-09
1.40236e-13
8.91181e-10
1.30301e-09
1.49121e-09
2.95714e-13
9.99004e-14
6.11305e-10
5.13147e-10
3.33371e-10
2.40519e-13
2.38639e-12
1.58945e-12
1.13801e-09
2.34647e-13
5.77364e-10
2.05237e-09
1.30207e-09
3.69566e-13
3.87884e-12
1.23622e-09
4.65748e-13
1.15756e-13
4.76352e-13
4.54653e-13
7.97344e-10
7.82333e-10
2.81976e-14
1.66788e-10
1.35149e-09
6.11348e-13
1.5496e-12
2.50482e-13
5.06218e-14
2.67574e-13
1.14122e-12
5.42892e-10
7.74381e-10
1.96612e-09
2.14035e-09
1.04529e-09
1.55662e-09
3.65784e-14
1.99675e-10
1.96117e-13
6.74839e-14
7.53381e-10
5.62206e-14
7.06896e-14
7.46469e-13
3.53793e-10
1.87804e-09
4.69944e-10
8.0804e-13
1.45322e-09
1.38343e-09
2.79479e-13
2.29298e-13
3.38434e-10
1.54911e-09
1.30427e-09
7.26399e-10
1.23061e-09
4.13299e-10
1.85343e-13
1.04088e-13
8.84755e-10
1.25044e-09
3.19172e-13
1.24674e-13
3.89843e-13
1.57097e-13
7.05647e-10
8.94903e-10
7.73367e-10
2.06246e-13
8.9309e-14
1.07203e-09
1.04944e-09
4.96291e-10
9.77606e-12
1.04539e-10
9.52666e-11
2.43646e-13
4.50093e-13
2.69573e-10
1.12522e-09
2.92311e-10
7.53702e-10
1.61226e-09
1.00687e-09
2.13066e-13
1.27088e-13
5.4964e-10
6.9137e-10
1.34105e-10
3.27313e-10
9.98951e-10
1.22277e-13
1.59367e-13
3.04752e-12
3.84379e-10
1.75163e-12
6.24259e-11
5.1771e-13
3.80149e-10
2.70197e-09
7.68542e-12
1.60166e-13
9.05741e-10
4.96333e-11
1.00753e-13
2.71121e-09
1.26696e-09
2.21776e-13
4.47481e-10
1.1725e-09
1.58002e-13
2.11357e-13
9.32695e-13
1.63174e-09
5.8931e-13
1.30271e-09
1.62814e-09
7.40882e-13
4.63806e-12
2.44067e-12
8.8301e-13
1.34291e-10
5.4485e-13
1.76777e-13
4.34266e-10
1.54942e-14
1.11958e-13
5.48726e-10
1.3213e-09
1.01217e-13
4.25419e-14
5.2616e-13
9.25633e-11
1.04002e-10
2.35298e-10
6.49672e-10
9.32685e-10
4.84918e-10
2.30417e-13
6.9585e-10
5.60706e-10
1.17571e-09
1.45745e-09
4.7501e-10
1.74758e-10
2.71997e-10
1.69773e-13
9.34358e-13
2.97664e-13
9.82021e-10
1.63306e-12
2.47264e-13
2.26984e-09
8.20214e-10
4.54024e-12
6.90541e-10
2.35761e-09
5.68839e-13
7.23785e-14
3.05336e-13
4.83443e-10
1.03405e-09
4.23069e-13
2.58658e-13
3.19952e-12
1.01138e-09
1.2753e-09
1.02049e-09
2.3323e-10
5.28661e-14
8.46324e-11
4.07417e-10
5.87656e-10
7.97111e-11
8.70571e-10
2.77521e-10
6.07441e-11
5.30022e-10
3.71643e-10
3.59911e-10
3.67494e-13
6.84826e-14
9.32907e-10
7.11581e-13
1.06678e-13
7.66406e-10
1.49738e-13
5.5115e-13
2.2842e-10
1.72027e-09
9.74181e-11
2.71289e-10
2.51976e-10
6.55578e-10
8.55343e-13
1.31972e-13
7.44635e-14
1.2338e-14
5.04271e-10
9.44829e-10
8.95399e-10
8.2102e-10
6.77432e-11
6.73287e-11
4.28815e-10
2.19075e-13
5.12581e-10
8.9906e-13
4.75378e-10
2.96195e-09
1.90567e-09
2.08477e-10
6.22536e-10
3.1931e-13
7.22649e-12
7.09934e-14
2.80724e-13
7.1794e-10
6.8646e-12
7.21964e-13
6.4707e-12
7.56735e-10
7.7518e-10
8.08491e-14
4.22045e-13
1.67862e-09
8.57251e-10
1.09337e-09
1.55006e-09
8.58328e-14
1.597e-10
2.28408e-09
2.55245e-10
3.8963e-10
5.67333e-13
5.58856e-10
2.11118e-09
8.74157e-13
4.91854e-14
1.60976e-13
1.64278e-12
8.71301e-10
3.7702e-13
6.82824e-13
9.67263e-10
1.0697e-13
9.66551e-13
8.35432e-10
2.92632e-10
4.44215e-10
9.42845e-14
1.51684e-13
8.82021e-10
9.27316e-13
9.14511e-10
1.20588e-09
5.39143e-13
9.44549e-14
1.36355e-09
1.63756e-09
1.33578e-14
8.7208e-14
2.31845e-09
2.86505e-13
7.12908e-10
1.53321e-12
1.64711e-14
4.43326e-14
3.99442e-13
5.50523e-10
4.92356e-10
2.51222e-10
1.68137e-09
8.82998e-14
1.58587e-13
3.21335e-10
3.35828e-13
1.45273e-10
9.9518e-12
7.95997e-10
1.39583e-10
1.05089e-09
4.78728e-13
3.97937e-12
5.60503e-12
3.10549e-13
1.38177e-09
1.42366e-12
9.86764e-10
1.24027e-09
8.47038e-13
2.84508e-12
4.47634e-12
1.09752e-09
1.60691e-09
1.71737e-09
2.12236e-09
7.88662e-10
7.89065e-13
9.12526e-11
1.17433e-12
8.42094e-13
2.39287e-10
4.57841e-13
2.74695e-11
1.89673e-09
1.85199e-11
1.86744e-11
2.03471e-13
5.80417e-13
8.56359e-10
3.37966e-10
3.58611e-13
1.32389e-12
3.22024e-11
6.83518e-14
1.2059e-13
3.33991e-13
1.24778e-13
1.34689e-10
6.0788e-12
1.8611e-10
8.3053e-13
2.55936e-10
7.15725e-13
2.512e-09
6.15938e-10
1.76566e-09
1.35738e-09
1.81037e-09
9.95081e-10
1.2382e-09
8.06099e-10
4.16059e-13
6.34441e-10
1.02733e-09
5.7713e-10
8.73046e-10
1.33888e-10
1.89576e-09
6.09791e-13
4.59189e-13
6.49569e-10
9.63643e-10
3.63042e-13
1.49091e-13
6.70588e-13
4.52444e-10
8.11469e-13
1.51009e-09
2.35238e-09
4.05318e-10
2.14056e-09
2.0006e-09
1.72548e-13
1.0399e-09
4.28144e-13
2.21536e-13
3.5521e-12
1.05428e-09
2.24693e-10
8.16036e-12
9.71693e-10
1.21835e-09
4.76613e-10
4.37474e-10
2.85462e-11
1.39842e-09
1.57351e-11
1.58519e-10
6.08728e-10
3.86636e-10
3.24013e-13
2.41575e-12
4.6699e-10
6.7728e-14
2.54041e-12
3.32975e-10
3.33048e-10
8.61112e-10
5.02491e-10
9.49373e-10
1.80844e-09
1.36724e-09
4.92066e-13
1.69551e-10
2.06082e-10
7.62117e-10
1.61361e-09
1.16415e-09
2.95271e-10
2.33054e-11
5.54385e-10
9.21792e-11
1.47286e-12
2.4195e-09
2.7649e-09
6.73056e-10
2.13369e-10
3.22577e-10
7.09117e-10
7.68153e-10
1.15734e-09
3.10161e-11
1.5055e-13
7.95873e-14
5.046e-10
5.43394e-13
1.69245e-10
9.63874e-11
2.71109e-13
1.06253e-12
1.67012e-10
7.88524e-10
1.77373e-13
7.84481e-11
1.45508e-09
7.30285e-10
2.30813e-13
1.98585e-09
2.15326e-10
5.9308e-12
2.60211e-09
2.57064e-09
6.66661e-11
1.10703e-09
1.41048e-10
4.17626e-10
4.47598e-10
3.20863e-12
2.37602e-12
1.26e-10
1.00668e-13
8.91794e-14
1.02928e-09
9.26969e-14
2.00028e-10
1.02465e-09
2.23962e-10
6.27565e-10
5.18336e-10
3.98985e-10
9.30148e-10
9.36559e-13
9.59673e-14
7.18122e-10
2.58232e-10
8.61092e-10
7.20571e-10
1.76249e-09
4.22564e-13
8.44149e-10
1.15187e-09
8.5616e-11
5.41593e-10
1.0552e-09
1.45978e-09
7.76571e-12
4.15293e-13
1.06698e-09
5.10459e-13
1.28797e-12
5.46481e-12
3.01374e-12
1.03759e-12
8.4619e-10
5.20041e-13
3.0997e-10
1.02815e-10
1.0393e-11
2.03548e-09
7.06454e-10
1.30203e-09
1.84585e-13
9.58378e-12
5.38807e-12
8.03574e-13
9.71298e-11
1.26008e-09
7.49262e-10
7.60958e-10
3.99728e-10
2.4787e-10
1.84996e-10
1.45804e-09
6.21402e-10
1.09403e-09
1.32171e-09
8.39484e-10
1.57898e-09
1.14446e-12
7.06438e-10
2.67387e-10
8.97358e-11
6.2715e-10
3.06569e-13
2.96176e-10
1.04737e-10
3.8671e-10
6.49836e-10
2.1216e-11
1.96197e-12
2.44369e-12
6.28838e-10
2.11799e-13
2.27303e-13
4.04595e-12
1.9083e-10
9.17535e-10
7.23782e-10
2.08171e-09
1.6962e-13
9.81525e-12
5.32063e-13
7.11595e-10
1.7738e-09
7.10037e-10
9.40048e-10
1.01711e-10
6.39987e-10
1.49609e-10
8.09592e-10
3.23829e-10
6.16228e-14
1.71317e-09
9.33985e-11
4.21787e-10
9.85895e-13
5.51065e-12
6.08577e-10
7.36091e-12
3.1758e-13
3.2615e-10
5.9421e-10
4.24856e-11
3.60289e-10
1.03988e-09
5.42145e-10
2.88574e-10
1.6169e-09
7.91405e-10
3.14495e-10
1.7324e-09
2.83058e-09
4.0681e-12
7.0435e-13
6.10515e-10
3.85122e-10
7.27597e-10
2.69669e-10
9.67688e-10
1.645e-12
1.34114e-12
1.03335e-09
2.22456e-09
1.7289e-12
5.86986e-10
6.19245e-10
2.35115e-13
4.83053e-10
1.0286e-09
6.52176e-10
1.29583e-10
3.04902e-12
7.73937e-11
9.49609e-13
6.77837e-12
7.77366e-10
8.47552e-10
8.31159e-10
3.8906e-12
1.86945e-10
2.46285e-10
9.77579e-14
6.80697e-13
3.29887e-10
5.1381e-11
1.96156e-10
1.61656e-12
1.29366e-09
2.43156e-12
3.86207e-12
2.38516e-09
5.61132e-11
9.39548e-13
1.04044e-09
2.07177e-09
9.70629e-10
4.48804e-10
8.5416e-13
1.1057e-09
7.58892e-12
9.14081e-12
3.00452e-09
8.2965e-10
8.5853e-10
2.33689e-10
1.70892e-12
3.13698e-10
4.47934e-10
4.84982e-10
3.2371e-10
9.40094e-13
4.11003e-10
3.65599e-10
1.09541e-12
9.00392e-10
8.44753e-10
5.58275e-10
1.4728e-09
2.6547e-13
1.01125e-09
7.91209e-10
8.10483e-13
4.41258e-10
5.72131e-11
8.49397e-10
8.48437e-10
9.4777e-12
6.90968e-10
2.92749e-10
7.17511e-13
6.76266e-10
4.18697e-10
3.34666e-12
1.7955e-13
3.22183e-10
3.20442e-12
1.3334e-11
7.93084e-10
1.53212e-09
1.6813e-10
2.59136e-10
1.75724e-09
4.89057e-10
1.92726e-10
6.91014e-13
9.09608e-10
1.01836e-09
1.02308e-09
4.77757e-10
9.28516e-10
3.36426e-12
2.81811e-12
2.03269e-10
3.16807e-10
4.97043e-10
1.80245e-10
8.73841e-11
1.08312e-09
3.19174e-12
4.93173e-10
1.07855e-09
2.16685e-10
5.17008e-10
5.52143e-10
1.15265e-09
4.06412e-10
5.35505e-11
1.17916e-09
3.94201e-12
1.96319e-13
5.10566e-11
1.52642e-09
4.20738e-11
6.7673e-13
6.10473e-10
1.11749e-09
2.77999e-10
7.06074e-11
8.45296e-10
3.42638e-11
7.9657e-12
1.26913e-11
8.08449e-10
4.02772e-11
4.7476e-13
2.74653e-10
8.64491e-10
5.30011e-10
3.32221e-10
3.70622e-10
5.4866e-10
1.80089e-12
7.50468e-11
7.42233e-10
5.27841e-10
5.54588e-10
7.83981e-10
1.2395e-09
1.32486e-12
1.80093e-10
8.64422e-10
3.45014e-12
3.98063e-10
7.97819e-10
6.84466e-10
4.72074e-10
1.88447e-11
1.08056e-09
3.37586e-10
4.02091e-12
1.00177e-09
1.68151e-09
7.7836e-14
7.96411e-10
1.28065e-09
5.60691e-10
4.00303e-10
7.92868e-10
1.48291e-09
2.37993e-13
3.00075e-12
5.82081e-10
1.61908e-09
7.29853e-10
1.14213e-10
8.17887e-10
1.31619e-09
9.36657e-10
3.7877e-10
6.97747e-10
9.96793e-10
5.41786e-13
5.416e-10
5.36497e-10
8.46701e-10
3.37448e-10
4.24945e-10
1.02555e-09
8.42957e-12
2.95442e-10
5.91387e-10
6.92742e-12
1.76983e-10
2.51261e-10
4.55948e-10
4.21145e-10
1.34006e-11
6.17976e-10
3.4275e-11
1.61055e-11
1.10602e-09
1.15268e-09
1.41643e-12
1.14462e-11
4.62219e-10
4.47971e-10
1.22479e-10
1.25605e-10
3.70217e-10
2.58732e-10
4.03099e-11
5.03238e-10
9.67395e-10
3.35306e-12
6.7454e-10
9.00998e-10
4.44617e-10
5.09155e-10
2.12468e-10
3.99532e-10
9.83127e-11
9.07409e-13
1.31347e-10
7.62349e-11
3.31563e-10
6.10029e-10
9.61617e-10
1.07265e-09
1.30032e-11
6.70179e-10
7.37687e-10
9.56326e-13
8.31035e-10
6.59267e-10
6.74483e-10
6.34181e-10
2.00138e-10
9.15844e-10
2.1195e-10
4.4319e-12
9.46579e-10
1.05269e-09
2.03173e-11
2.82994e-10
9.23707e-10
7.86308e-10
5.193e-10
7.53074e-10
1.39641e-09
3.25312e-10
2.21437e-11
7.93848e-10
1.3787e-09
3.36378e-10
3.75486e-10
3.07343e-10
8.64859e-10
9.12675e-10
4.06817e-10
6.62519e-10
4.00157e-10
3.66923e-12
4.37555e-10
7.62026e-10
5.74959e-10
1.89043e-13
6.00793e-09
2.76053e-09
2.2698e-13
1.88063e-09
3.2877e-13
5.34987e-09
1.4057e-09
9.18088e-13
1.26275e-13
1.1946e-12
2.6274e-09
3.849e-13
2.92898e-13
3.62961e-09
2.34157e-09
2.99536e-13
1.62426e-12
8.85569e-12
2.48896e-13
6.15225e-13
9.57419e-13
2.55629e-13
3.08784e-13
3.07928e-11
4.03601e-13
6.93577e-13
1.96808e-09
1.98222e-10
2.38536e-09
2.08005e-10
1.23627e-13
4.93903e-14
7.96485e-10
7.09697e-09
2.98637e-09
3.42101e-09
1.85731e-09
7.60719e-13
3.70589e-09
4.99344e-10
2.10382e-09
4.09824e-13
2.72381e-13
5.96627e-13
3.89792e-09
7.83739e-13
2.0338e-14
3.92302e-09
1.08599e-09
1.57633e-12
6.04124e-13
6.24011e-13
1.4718e-09
3.11782e-13
4.1635e-10
1.87139e-09
8.52718e-10
1.37546e-11
2.59415e-13
5.00017e-13
1.78786e-13
9.16434e-10
4.82841e-13
9.32406e-13
2.0605e-09
2.44419e-13
1.35983e-09
3.80123e-09
1.86945e-11
7.04947e-11
1.20608e-09
1.84808e-13
1.28588e-09
1.15276e-11
2.45462e-09
6.20589e-10
2.72793e-14
6.29915e-13
6.39976e-13
3.03872e-10
2.13106e-09
8.03803e-10
1.87873e-09
1.10737e-09
4.73752e-13
1.5865e-13
4.35271e-13
2.38261e-09
1.02609e-10
3.65456e-13
3.36573e-13
3.98895e-11
2.43028e-09
1.67257e-12
5.27798e-13
2.0097e-12
1.40832e-12
3.28188e-13
1.43418e-13
1.93185e-09
3.23828e-13
5.19293e-13
1.8665e-09
1.84052e-09
3.71151e-12
1.52126e-09
6.87277e-12
1.69987e-13
1.4557e-09
1.24534e-09
1.40306e-11
3.43843e-13
1.37165e-09
2.33632e-12
2.75512e-13
1.07966e-12
2.2624e-13
1.56493e-09
5.16347e-13
1.44841e-09
2.96104e-10
2.77685e-13
2.55689e-12
3.32114e-13
2.31013e-12
2.37617e-13
9.97559e-10
4.21131e-13
8.49514e-14
1.11636e-09
1.28237e-13
2.40019e-09
2.03158e-09
8.18606e-14
5.98771e-13
2.00162e-13
1.30905e-10
7.13007e-14
3.56961e-10
2.54085e-09
1.11115e-13
6.64728e-12
4.6187e-10
7.90096e-12
8.79276e-11
1.77848e-12
6.13381e-11
5.9987e-10
1.03866e-10
5.36902e-13
1.90314e-13
3.15929e-13
4.82164e-10
7.55941e-11
7.80614e-13
1.08389e-09
1.05634e-09
2.2545e-13
3.7169e-10
1.07426e-12
1.27371e-12
6.41218e-10
6.52886e-10
8.62439e-10
9.89172e-13
3.11809e-11
1.43122e-09
2.71443e-13
3.90514e-13
4.47081e-10
1.90174e-09
9.93371e-10
1.48648e-13
2.63348e-09
1.09125e-09
5.15374e-14
8.91933e-10
3.72236e-10
4.32705e-13
2.08764e-13
1.26264e-10
2.40226e-10
6.80205e-11
1.75371e-09
1.90159e-09
7.17515e-13
2.66929e-13
6.87794e-13
9.21264e-10
6.63091e-10
2.64212e-13
5.16455e-10
1.19313e-10
5.25638e-13
1.10422e-13
1.37878e-09
1.62202e-09
3.00823e-12
8.61495e-10
2.48346e-12
4.49936e-10
5.14725e-13
8.68658e-10
2.9667e-10
2.57529e-13
1.64665e-09
1.5603e-09
4.34933e-13
1.87927e-13
1.97737e-12
8.30007e-10
2.33796e-10
1.02657e-09
4.1933e-13
6.31356e-10
1.899e-09
2.38562e-09
9.64503e-10
7.5342e-10
1.5366e-09
2.8375e-14
2.75402e-11
2.35372e-09
5.04657e-10
1.74903e-09
1.10629e-09
1.75573e-13
7.17075e-12
1.28114e-09
9.85687e-12
2.9958e-13
1.15526e-12
1.5174e-13
3.87734e-13
3.08333e-09
1.74051e-09
1.48497e-13
1.2605e-12
2.57468e-13
1.00474e-09
4.46877e-13
7.61072e-10
1.49996e-09
3.84075e-13
8.04486e-13
3.00808e-10
1.00756e-12
9.61389e-13
1.13851e-09
4.89029e-10
7.31405e-14
7.6534e-10
3.89226e-10
8.64008e-14
1.36763e-11
6.29876e-11
1.36937e-13
4.573e-13
8.63337e-10
1.11385e-12
2.74776e-12
8.53233e-10
2.92761e-12
2.57578e-09
9.8598e-13
2.47694e-13
7.44806e-13
2.10788e-09
3.64633e-10
3.29945e-13
3.02496e-09
2.84067e-09
2.65516e-10
2.24993e-09
2.82392e-13
8.31633e-10
1.88381e-09
2.80559e-13
2.74891e-09
5.88839e-13
1.76086e-09
2.18325e-10
5.57263e-10
8.1778e-11
5.17247e-10
6.47882e-10
1.95441e-09
2.52189e-09
3.92792e-13
9.08799e-10
1.49316e-09
1.4495e-12
1.1772e-09
1.18028e-09
2.80192e-10
4.13481e-12
1.69011e-13
5.27424e-13
2.39832e-09
1.19229e-09
1.39656e-09
1.46234e-09
1.04253e-09
3.71344e-13
1.19213e-12
6.5758e-10
4.23788e-09
2.74423e-09
4.08833e-13
3.35285e-09
3.23521e-09
2.32268e-13
6.51567e-13
1.91139e-09
2.5217e-09
1.82075e-09
1.66619e-13
6.83714e-13
7.29824e-10
8.59652e-13
4.26301e-13
1.1135e-09
3.74307e-13
5.64921e-13
2.65573e-09
4.36096e-10
5.00395e-13
1.39045e-13
6.42801e-13
2.10033e-09
1.90322e-10
1.22721e-10
3.2511e-09
3.73935e-10
1.41016e-13
2.12992e-10
1.88615e-09
3.92154e-09
2.05568e-09
6.76655e-13
3.65522e-10
2.25671e-13
8.45487e-13
3.62469e-09
5.96375e-10
1.45004e-12
1.02963e-09
2.08171e-13
1.17275e-13
5.57263e-13
3.24238e-14
1.57923e-13
1.46903e-13
1.90468e-09
5.61656e-10
8.17105e-14
2.65024e-13
9.75225e-12
6.52301e-13
4.61681e-14
2.49631e-10
3.62541e-13
1.08396e-12
2.97144e-09
8.56292e-10
3.68944e-13
8.38415e-10
3.49045e-09
4.98844e-10
1.10696e-12
8.94774e-10
1.09479e-10
7.29926e-14
5.24972e-13
1.55189e-09
2.22712e-09
7.39681e-13
3.08757e-13
7.88188e-14
1.95098e-13
9.97948e-10
1.26794e-12
1.40939e-09
2.41742e-13
1.10957e-13
2.86417e-09
8.5065e-11
8.49841e-10
1.72176e-09
2.02703e-09
1.58965e-09
2.04076e-13
2.84746e-13
1.02038e-09
4.7651e-13
3.22795e-10
8.52889e-10
4.44334e-09
7.02405e-13
8.112e-10
1.65833e-09
2.90664e-09
1.41897e-12
4.38758e-13
3.0398e-10
1.52689e-09
9.98115e-10
1.41023e-13
1.76391e-11
1.40557e-09
2.49384e-12
3.68162e-13
3.7296e-09
5.01941e-10
1.49454e-13
1.45605e-09
8.28234e-13
2.5692e-10
8.53503e-10
2.92601e-10
5.76916e-10
4.27653e-13
4.44408e-13
2.03944e-09
6.84175e-10
9.40377e-14
1.02084e-13
1.21706e-13
6.68379e-12
1.76258e-13
8.09737e-10
3.85242e-10
1.50826e-09
2.46883e-09
7.06301e-10
5.06525e-14
1.52036e-13
8.73014e-10
1.88539e-09
7.93821e-14
5.44674e-11
2.30342e-13
6.69894e-13
2.4181e-09
7.20208e-12
4.6781e-14
7.58395e-10
2.25299e-09
1.93942e-13
1.4041e-13
8.52328e-13
2.75145e-10
1.10907e-13
3.50219e-13
2.04747e-09
1.62098e-09
3.53201e-13
1.64845e-09
7.61677e-14
2.25211e-13
2.73249e-10
9.45592e-14
8.99351e-10
8.28683e-13
5.29295e-13
1.16382e-09
3.35196e-13
4.28861e-13
5.70463e-10
3.22973e-12
2.00828e-09
1.04896e-13
4.10968e-10
4.57466e-13
7.34968e-14
1.74123e-10
2.80309e-13
1.27473e-09
3.07241e-13
3.60011e-14
2.65587e-13
1.23383e-14
2.42576e-13
3.16633e-10
4.90046e-12
1.63206e-13
5.48545e-13
2.94657e-10
7.66596e-14
1.25656e-09
3.18484e-10
1.63812e-12
1.8849e-09
1.22917e-09
1.84778e-13
5.49077e-13
1.74295e-13
2.02152e-13
5.2679e-14
1.17702e-09
1.39514e-09
5.50385e-14
1.40557e-10
2.01562e-09
1.38573e-09
1.30475e-09
1.63122e-12
1.73697e-13
1.256e-09
5.73237e-10
4.43357e-13
1.48211e-14
4.49103e-10
1.69504e-10
9.96477e-13
1.3104e-13
1.57849e-13
5.19191e-10
1.05822e-13
4.61601e-11
9.78707e-14
1.93792e-13
4.33853e-13
1.21749e-09
1.03336e-09
1.19043e-09
7.77936e-10
1.89763e-09
5.02343e-11
4.95286e-13
1.28995e-09
9.84848e-10
1.79206e-10
4.85765e-10
2.67093e-13
6.85342e-11
8.76098e-10
2.03442e-09
7.4833e-10
7.36259e-13
1.13517e-13
7.63045e-13
2.01598e-11
1.89363e-13
1.60989e-13
3.5827e-13
6.91291e-13
5.94655e-12
9.93836e-10
1.64747e-09
8.08773e-14
6.2524e-14
1.51024e-09
1.01089e-12
7.84084e-14
1.09122e-11
2.21185e-12
1.35761e-09
2.44396e-09
1.49615e-13
4.85804e-12
2.03371e-10
4.44221e-10
5.91096e-10
1.3946e-13
1.51293e-13
6.33786e-10
2.41952e-13
3.06215e-13
3.44162e-10
7.56e-10
1.60137e-13
1.04104e-13
3.74769e-13
1.33825e-09
1.80652e-09
1.28651e-13
9.09012e-14
9.33488e-10
6.64296e-10
1.07261e-10
4.35891e-12
1.19212e-09
8.80985e-10
7.05683e-10
3.64726e-10
2.78792e-13
7.61179e-11
1.54653e-13
2.0293e-12
4.46206e-10
1.10671e-13
7.68608e-13
1.30993e-09
1.34635e-09
1.63977e-12
4.21555e-10
7.76748e-10
2.62349e-13
1.2415e-10
1.78773e-10
2.2155e-12
2.01192e-12
2.73232e-10
1.82255e-10
7.51108e-12
7.6217e-10
5.21096e-14
2.06761e-13
4.07471e-13
1.91565e-12
7.26714e-13
1.06497e-09
6.36136e-10
3.03094e-10
5.23801e-10
2.20018e-13
2.92704e-12
2.01047e-13
5.77734e-10
4.19738e-11
1.49362e-13
1.38473e-09
1.09494e-10
2.93793e-13
5.24945e-10
1.83923e-13
3.14076e-14
6.47351e-13
6.94071e-10
9.74741e-13
3.32331e-12
8.59929e-10
8.39967e-14
4.36058e-14
5.8756e-14
1.30625e-12
8.29461e-10
4.22079e-12
1.14017e-10
1.23143e-12
2.1153e-10
1.12041e-09
8.91266e-10
5.61472e-10
5.24639e-10
2.31853e-13
1.0265e-09
3.25458e-13
2.22811e-13
2.00481e-09
1.16209e-09
1.45358e-12
8.21932e-14
1.02822e-09
1.05433e-09
2.26732e-14
1.01628e-09
3.66154e-10
3.24833e-10
1.06173e-13
2.47617e-10
1.65749e-13
4.16868e-13
1.19437e-13
2.14742e-12
1.20892e-09
2.32808e-13
1.7665e-09
3.81012e-09
5.48547e-10
1.85752e-13
5.34344e-10
6.13965e-10
1.03317e-09
1.31784e-10
4.57604e-10
1.09582e-09
7.15897e-10
4.84269e-13
1.97758e-13
9.49401e-13
1.27944e-12
2.21457e-10
5.82752e-14
8.86296e-13
4.66066e-10
3.62687e-13
1.72262e-13
1.5579e-09
8.59346e-13
1.57028e-13
8.3009e-10
5.94395e-13
5.79577e-10
4.49699e-13
1.14057e-13
4.14417e-10
3.06254e-13
3.12484e-10
4.79965e-11
4.30291e-13
8.92427e-10
6.91548e-10
3.99861e-10
7.49124e-10
5.0387e-10
7.72977e-10
3.02065e-10
7.73622e-11
2.98189e-10
4.49238e-10
6.78093e-10
1.3925e-13
1.63809e-13
5.64025e-10
1.23085e-09
9.83677e-10
6.60261e-10
9.28047e-13
7.30763e-10
5.84178e-13
2.20343e-11
4.37586e-10
9.0386e-10
4.22148e-10
5.2659e-10
1.10464e-09
1.21755e-12
2.15643e-14
1.60687e-10
2.55455e-12
3.27038e-10
4.96932e-14
1.92978e-11
1.13422e-09
1.59861e-13
1.45126e-12
5.13066e-10
8.87853e-10
9.07649e-10
3.67218e-14
1.23829e-12
7.22012e-14
2.2818e-13
8.58027e-10
1.28851e-13
1.77172e-13
8.07247e-10
2.81732e-09
5.02932e-14
5.59042e-13
3.97828e-13
3.59654e-12
1.40696e-10
5.18577e-10
5.51829e-10
4.33907e-13
5.77394e-13
6.33243e-10
1.33573e-09
1.83054e-12
2.40491e-11
6.11627e-10
1.27827e-12
1.44368e-10
7.04791e-13
1.47046e-13
9.72422e-13
6.24475e-10
9.76414e-13
1.94739e-13
4.31006e-10
1.51675e-10
3.54162e-12
4.01189e-10
2.64939e-12
5.69356e-10
9.56022e-10
7.21417e-10
2.18018e-13
4.58164e-14
3.61805e-13
8.99874e-10
2.049e-10
9.35593e-10
4.91528e-10
2.72e-13
1.15518e-09
2.26264e-09
4.03478e-10
3.07319e-10
9.20125e-10
8.17781e-13
2.04947e-13
1.02778e-09
2.21552e-13
2.45684e-12
1.23116e-13
2.10452e-10
2.86733e-13
2.43304e-13
2.5714e-10
1.93227e-11
5.39957e-13
2.35564e-12
3.19631e-10
9.87647e-10
6.9043e-11
9.85836e-10
2.32739e-10
3.04315e-13
2.47272e-10
4.98343e-13
8.37847e-13
1.11217e-12
1.40074e-13
2.86427e-10
9.7804e-12
1.07756e-13
1.72517e-13
2.20821e-10
1.29612e-13
2.58419e-12
1.76916e-13
1.99646e-10
5.32142e-10
7.70012e-14
1.83945e-11
1.07211e-09
8.28251e-13
4.15491e-10
3.40139e-10
9.50472e-13
5.80109e-12
3.95574e-10
3.59922e-11
5.98275e-10
3.07007e-11
7.86653e-12
1.7509e-13
2.46566e-14
1.65045e-12
2.56167e-13
6.4694e-13
1.07183e-12
1.15539e-13
2.87314e-12
1.18724e-11
4.84888e-11
1.28109e-13
3.07162e-13
2.19458e-12
5.92082e-14
3.80305e-13
5.00165e-10
2.99692e-10
8.19403e-10
7.43587e-10
7.13162e-10
4.57509e-10
9.39768e-11
8.25249e-13
3.09829e-12
9.27683e-13
6.43965e-10
1.68268e-09
5.72735e-13
6.70158e-10
1.68456e-09
8.44233e-13
7.9482e-14
3.47176e-12
5.46581e-13
2.61257e-12
4.52359e-10
3.53058e-10
2.17652e-10
3.2624e-13
8.1557e-13
8.58515e-13
1.04473e-12
8.72262e-10
6.8358e-10
1.55961e-12
1.19849e-10
1.41236e-12
2.77638e-10
1.79006e-12
4.37209e-13
4.32247e-13
1.07921e-12
3.55829e-13
1.65612e-13
3.85906e-13
1.86245e-13
1.04825e-13
2.9135e-10
1.15445e-09
4.39629e-13
2.31407e-14
5.48656e-13
6.18598e-13
1.08845e-12
4.08168e-12
7.31944e-12
2.92845e-11
1.24129e-13
4.19488e-10
8.31933e-10
2.09767e-12
3.81057e-12
3.71163e-10
1.0633e-12
6.96811e-10
5.5546e-10
8.98583e-11
8.18426e-13
4.57238e-10
4.73138e-13
9.50966e-10
4.08186e-13
6.68655e-10
7.88218e-10
3.29519e-10
4.45184e-13
2.50995e-13
3.38878e-10
4.17169e-10
1.73925e-11
7.75149e-11
1.00046e-12
1.04664e-12
5.88516e-10
6.18356e-11
5.24546e-11
3.51062e-10
8.04596e-10
4.13275e-13
3.49895e-14
5.5929e-11
1.55082e-10
1.28216e-13
3.13633e-11
8.57458e-13
5.64224e-10
5.52922e-10
9.80917e-13
2.28824e-10
1.077e-09
2.12439e-12
1.4752e-12
8.81628e-10
1.55621e-13
1.22357e-12
3.60396e-13
4.31405e-10
6.59724e-10
6.60075e-13
7.54593e-10
5.62222e-10
1.37818e-13
1.82842e-11
8.4514e-11
4.28817e-13
2.6868e-13
3.02687e-12
2.69663e-10
1.37366e-12
2.57122e-12
3.28256e-12
6.55927e-12
3.18939e-11
2.14321e-10
2.33766e-10
4.22345e-10
5.03901e-13
2.09551e-09
4.39365e-10
2.97594e-10
3.90244e-10
1.98794e-10
3.29293e-13
5.55473e-10
2.66548e-12
3.8717e-11
8.40828e-12
1.37349e-12
9.55158e-10
1.01531e-09
3.71994e-12
2.56685e-12
1.65259e-12
7.05753e-13
6.38168e-13
8.18178e-10
3.56301e-13
6.01565e-13
1.37516e-13
1.39408e-10
1.2101e-12
4.62979e-13
6.97482e-10
3.90284e-10
9.65656e-13
1.09851e-12
1.78409e-10
7.18831e-10
5.27407e-13
7.03583e-13
3.2459e-13
4.74984e-13
4.21927e-13
1.29149e-13
7.13393e-13
4.06406e-10
5.92408e-13
5.77368e-10
4.62911e-10
7.77974e-13
9.48654e-13
5.35888e-13
1.54305e-13
4.39383e-13
2.41058e-10
2.9714e-13
5.47191e-10
1.83626e-13
6.14482e-12
8.74857e-10
3.07568e-11
3.22518e-13
3.31125e-12
9.92538e-13
2.15524e-13
3.02671e-10
8.67976e-11
2.62347e-10
5.48389e-13
5.14411e-11
2.87977e-12
4.57076e-13
4.0719e-10
4.97665e-10
1.17782e-12
3.55121e-13
2.14229e-10
2.33231e-12
4.1705e-10
3.80938e-13
1.20678e-13
2.61974e-13
1.29248e-13
1.98412e-13
6.59081e-11
3.67282e-12
4.20497e-10
4.36109e-10
9.45908e-13
3.6525e-13
2.01009e-10
8.90374e-10
8.44119e-14
7.42703e-11
2.45056e-12
2.39826e-10
2.59733e-10
5.81083e-13
9.7385e-10
1.88109e-09
3.68354e-13
3.05502e-13
6.32198e-11
1.72326e-11
7.20639e-11
3.6164e-12
1.06478e-12
4.89584e-12
9.84576e-13
1.22215e-10
6.27815e-13
8.7196e-13
8.76263e-11
3.89204e-10
4.77275e-12
1.44998e-12
1.62238e-10
4.9527e-10
4.26366e-10
2.27704e-13
8.57145e-13
5.58742e-13
1.02614e-13
3.95248e-10
2.75049e-10
1.90568e-12
5.32478e-13
3.81301e-10
1.63566e-12
1.89193e-12
3.53559e-10
8.93121e-11
8.33009e-14
7.62142e-10
7.93641e-13
1.54308e-12
2.96013e-13
5.45342e-13
6.30924e-11
1.30892e-09
1.3891e-12
5.97623e-12
4.96228e-10
2.09114e-13
8.23241e-14
5.42103e-12
8.56826e-11
3.25104e-10
4.96939e-12
8.67312e-13
6.55043e-13
1.23202e-12
1.79971e-10
6.60268e-10
2.21892e-12
2.6854e-12
4.02613e-10
2.91576e-10
6.76225e-13
3.71701e-13
2.25071e-13
7.4942e-13
4.12071e-12
9.75272e-12
8.55593e-11
2.40605e-12
2.48337e-11
8.40019e-10
4.90066e-12
5.42041e-13
6.59652e-12
2.50751e-12
2.7434e-13
1.36357e-10
1.19831e-12
3.985e-12
2.16856e-10
2.6265e-12
2.23949e-11
3.4233e-11
3.69474e-10
1.1704e-13
1.32516e-12
7.04543e-13
7.01224e-13
2.85449e-10
2.30152e-10
1.30586e-10
3.16178e-13
9.60155e-12
3.0353e-10
1.21042e-12
2.2352e-10
4.00998e-10
4.19016e-13
1.30795e-11
2.10873e-12
6.70052e-11
2.71946e-12
6.99284e-13
5.90061e-13
1.77564e-12
3.61155e-12
4.34526e-12
9.21889e-11
8.81733e-12
5.77717e-11
3.67407e-10
1.20164e-12
1.67862e-11
7.84018e-11
1.03241e-10
1.4676e-12
2.15845e-12
4.14141e-11
4.32176e-10
1.57963e-10