# y+ ()       
# Time        	patch         	min           	max           	average       
45            	bottomWall	1.082876e+00	3.439446e+00	2.045982e+00
45            	topWall	1.242921e+00	3.450918e+00	2.101213e+00
