/*--------------------------------*- C++ -*----------------------------------*\
  =========                 |
  \\      /  F ield         | OpenFOAM: The Open Source CFD Toolbox
   \\    /   O peration     | Website:  https://openfoam.org
    \\  /    A nd           | Version:  10
     \\/     M anipulation  |
\*---------------------------------------------------------------------------*/
FoamFile
{
    format      ascii;
    class       surfaceScalarField;
    location    "5";
    object      phi;
}
// * * * * * * * * * * * * * * * * * * * * * * * * * * * * * * * * * * * * * //

dimensions      [0 3 -1 0 0 0 0];

internalField   nonuniform List<scalar> 
74080
(
7.88537e-06
5.21954e-09
-1.06463e-10
7.88188e-06
9.34207e-09
-8.29247e-09
7.88009e-06
8.94852e-09
-1.33444e-08
7.88106e-06
2.92347e-11
-1.59198e-08
7.8787e-06
3.45762e-09
-1.85018e-08
7.87875e-06
5.45658e-09
-2.0475e-08
7.87765e-06
8.63407e-09
-1.94983e-08
7.87496e-06
9.41415e-09
-1.33223e-08
7.87517e-06
1.30028e-09
-9.64597e-09
7.87531e-06
3.72874e-10
-2.69427e-09
7.87118e-06
1.0978e-08
-2.81527e-09
7.87023e-06
8.39904e-09
8.82078e-10
7.86867e-06
8.41899e-09
1.00266e-09
7.86804e-06
1.66186e-09
3.69515e-09
7.86782e-06
1.02879e-09
-3.02212e-10
7.86539e-06
1.08362e-08
-4.35822e-09
7.86376e-06
9.27585e-09
-9.41169e-09
7.86206e-06
1.22235e-08
-9.61848e-09
7.86204e-06
3.14513e-09
-1.03765e-08
7.86253e-06
8.28954e-09
-1.08664e-08
7.86111e-06
9.66001e-09
-9.9727e-09
7.86537e-06
1.24079e-08
-1.40237e-08
7.8667e-06
1.46814e-08
-1.61745e-08
7.8713e-06
9.73507e-09
-1.94619e-08
7.87872e-06
6.32356e-09
-2.59249e-08
7.88105e-06
1.32804e-08
-2.55526e-08
7.88465e-06
1.52378e-08
-2.74356e-08
7.88754e-06
5.31737e-09
-1.87538e-08
7.88869e-06
3.90509e-09
-1.54879e-08
7.8879e-06
-1.23624e-09
-9.40704e-09
7.88933e-06
3.85184e-09
-1.12013e-08
7.88641e-06
1.13179e-08
-1.00068e-08
7.8866e-06
7.36446e-09
-9.62511e-09
7.89103e-06
-2.46338e-09
-6.31608e-09
7.88894e-06
6.65904e-09
-8.96359e-09
7.89097e-06
1.51381e-09
-5.29597e-09
7.89139e-06
1.2926e-08
-6.70232e-09
7.88847e-06
7.35734e-09
2.90911e-10
7.89182e-06
-3.94338e-09
4.40074e-09
3.4431e-09
1.39963e-09
2.6507e-05
2.17905e-08
-6.88514e-10
2.64968e-05
3.36373e-08
-2.48069e-08
2.64901e-05
3.34963e-08
-4.00682e-08
2.64913e-05
6.74053e-09
-5.44797e-08
2.64856e-05
1.67562e-08
-6.13506e-08
2.64855e-05
2.15855e-08
-6.49626e-08
2.64813e-05
3.11307e-08
-5.7492e-08
2.64742e-05
3.37286e-08
-4.05861e-08
2.6473e-05
9.85879e-09
-2.91967e-08
2.64705e-05
1.00623e-08
-7.91213e-09
2.64595e-05
4.15239e-08
-6.27392e-09
2.64564e-05
3.16213e-08
5.02552e-09
2.64516e-05
3.29006e-08
4.96844e-09
2.64498e-05
1.03769e-08
7.78006e-09
2.64468e-05
1.10247e-08
-2.59661e-09
2.64403e-05
4.13985e-08
-1.49735e-08
2.64341e-05
3.66614e-08
-2.80001e-08
2.64309e-05
4.5663e-08
-2.98257e-08
2.64273e-05
1.80319e-08
-3.46547e-08
2.64295e-05
3.75894e-08
-3.25475e-08
2.64254e-05
3.80488e-08
-3.16234e-08
2.64374e-05
5.15033e-08
-4.17827e-08
2.64427e-05
5.64737e-08
-4.98355e-08
2.64589e-05
4.14956e-08
-6.60523e-08
2.64817e-05
2.9693e-08
-8.18508e-08
2.64904e-05
4.97931e-08
-8.04099e-08
2.65064e-05
5.12133e-08
-8.32043e-08
2.65132e-05
1.93145e-08
-5.56113e-08
2.65189e-05
1.58893e-08
-4.96481e-08
2.65169e-05
-2.11309e-09
-2.83146e-08
2.65179e-05
1.86812e-08
-3.38933e-08
2.65122e-05
3.87023e-08
-2.69768e-08
2.65129e-05
2.6837e-08
-2.79624e-08
2.65233e-05
-1.09193e-09
-2.26868e-08
2.65205e-05
2.64042e-08
-2.81143e-08
2.65247e-05
9.1974e-09
-1.57257e-08
2.65274e-05
4.46675e-08
-1.72903e-08
2.65201e-05
2.3276e-08
3.34232e-09
2.6528e-05
-7.14644e-09
9.60943e-09
1.37652e-08
5.89983e-09
4.99288e-05
5.02487e-08
1.9456e-09
4.99113e-05
7.1235e-08
-3.94302e-08
4.98966e-05
7.41258e-08
-6.45498e-08
4.98964e-05
2.47322e-08
-9.75653e-08
4.98881e-05
4.13996e-08
-1.10688e-07
4.98876e-05
4.92032e-08
-1.18013e-07
4.98802e-05
6.76232e-08
-1.02424e-07
4.9868e-05
7.24471e-08
-7.39812e-08
4.98629e-05
2.9615e-08
-5.24706e-08
4.98566e-05
3.23319e-08
-1.53676e-08
4.98389e-05
9.1445e-08
-1.10099e-08
4.98326e-05
7.10125e-08
1.02241e-08
4.98239e-05
7.52222e-08
1.12553e-08
4.982e-05
2.93212e-08
1.12006e-08
4.9813e-05
3.4723e-08
-4.23183e-09
4.9803e-05
9.11667e-08
-2.68557e-08
4.97904e-05
8.41768e-08
-4.74052e-08
4.9786e-05
1.00378e-07
-5.1047e-08
4.97751e-05
4.91478e-08
-6.29636e-08
4.97795e-05
9.02647e-08
-5.52139e-08
4.97718e-05
8.69284e-08
-5.71805e-08
4.97911e-05
1.21347e-07
-7.12875e-08
4.98016e-05
1.25456e-07
-8.44828e-08
4.98304e-05
9.98063e-08
-1.18964e-07
4.98723e-05
7.25958e-08
-1.43661e-07
4.98907e-05
1.08987e-07
-1.45063e-07
4.99245e-05
1.0565e-07
-1.49268e-07
4.99358e-05
4.2414e-08
-9.86466e-08
4.99485e-05
3.71836e-08
-9.19139e-08
4.99461e-05
-1.74182e-09
-5.00843e-08
4.99455e-05
4.59272e-08
-6.09282e-08
4.99386e-05
8.01642e-08
-4.49604e-08
4.99383e-05
5.9187e-08
-4.6612e-08
4.99536e-05
9.42747e-09
-4.25362e-08
4.99528e-05
5.89955e-08
-4.93607e-08
4.99581e-05
2.55155e-08
-2.9097e-08
4.99657e-05
9.39895e-08
-3.11631e-08
4.99535e-05
4.63793e-08
7.3366e-09
4.99655e-05
-4.37983e-09
1.29849e-08
3.01001e-08
1.34071e-08
7.90766e-05
9.16497e-08
9.71208e-09
7.90521e-05
1.19888e-07
-4.79364e-08
7.9025e-05
1.29673e-07
-7.90867e-08
7.902e-05
5.80662e-08
-1.37396e-07
7.90092e-05
7.86633e-08
-1.62783e-07
7.90088e-05
8.92882e-08
-1.80867e-07
7.89988e-05
1.18975e-07
-1.58957e-07
7.89805e-05
1.2476e-07
-1.17622e-07
7.89677e-05
6.42189e-08
-8.34282e-08
7.89568e-05
7.03349e-08
-2.86167e-08
7.89327e-05
1.60004e-07
-2.05464e-08
7.89222e-05
1.27283e-07
1.38631e-08
7.89079e-05
1.37481e-07
2.08861e-08
7.89e-05
6.18669e-08
1.5859e-08
7.88884e-05
7.65017e-08
-2.71871e-09
7.8876e-05
1.58886e-07
-3.72502e-08
7.88554e-05
1.52923e-07
-6.65087e-08
7.88495e-05
1.77096e-07
-6.9814e-08
7.88266e-05
9.94929e-08
-9.37765e-08
7.88327e-05
1.69621e-07
-7.81809e-08
7.88195e-05
1.57133e-07
-8.56778e-08
7.88452e-05
2.2468e-07
-1.02276e-07
7.88612e-05
2.21609e-07
-1.14564e-07
7.89013e-05
1.88795e-07
-1.71736e-07
7.89676e-05
1.38032e-07
-2.07947e-07
7.89997e-05
1.91189e-07
-2.19193e-07
7.90582e-05
1.79285e-07
-2.31391e-07
7.90766e-05
7.57029e-08
-1.52023e-07
7.90984e-05
7.08398e-08
-1.46691e-07
7.90982e-05
8.37329e-10
-7.81082e-08
7.90959e-05
8.52856e-08
-9.51163e-08
7.90896e-05
1.34363e-07
-6.73082e-08
7.90857e-05
1.04227e-07
-6.4022e-08
7.9104e-05
3.38364e-08
-6.45637e-08
7.91081e-05
1.0493e-07
-7.28271e-08
7.91143e-05
5.16554e-08
-4.69199e-08
7.91306e-05
1.61226e-07
-5.3187e-08
7.91121e-05
7.70436e-08
9.31118e-09
7.91282e-05
1.00308e-08
1.34686e-08
5.16616e-08
2.36634e-08
0.000114927
1.44269e-07
2.79376e-08
0.000114898
1.76275e-07
-4.71101e-08
0.000114853
1.95218e-07
-7.49109e-08
0.000114837
1.10162e-07
-1.61728e-07
0.000114823
1.30338e-07
-2.0833e-07
0.000114823
1.42374e-07
-2.50068e-07
0.000114813
1.86072e-07
-2.30325e-07
0.000114788
1.88147e-07
-1.76723e-07
0.000114762
1.16182e-07
-1.27658e-07
0.000114745
1.25812e-07
-5.19255e-08
0.000114716
2.45273e-07
-3.94128e-08
0.0001147
1.9871e-07
1.10089e-08
0.000114678
2.20947e-07
3.3873e-08
0.000114663
1.10759e-07
2.38436e-08
0.000114645
1.40609e-07
6.00031e-09
0.000114633
2.42514e-07
-4.11353e-08
0.000114603
2.4223e-07
-8.45128e-08
0.000114596
2.75558e-07
-8.17442e-08
0.000114554
1.70011e-07
-1.24049e-07
0.00011456
2.79097e-07
-9.93491e-08
0.000114539
2.47722e-07
-1.13279e-07
0.000114568
3.62004e-07
-1.36025e-07
0.00011459
3.43716e-07
-1.34033e-07
0.000114636
3.11021e-07
-2.15439e-07
0.000114732
2.31229e-07
-2.67073e-07
0.000114783
2.96895e-07
-2.95827e-07
0.000114875
2.74211e-07
-3.34028e-07
0.000114905
1.21002e-07
-2.20254e-07
0.000114938
1.21685e-07
-2.19657e-07
0.000114945
8.76976e-09
-1.17508e-07
0.000114942
1.3563e-07
-1.39086e-07
0.00011494
1.99675e-07
-1.00857e-07
0.000114929
1.59118e-07
-7.97994e-08
0.000114946
7.65087e-08
-8.68716e-08
0.000114959
1.66068e-07
-9.8044e-08
0.000114965
8.80063e-08
-6.78025e-08
0.000114996
2.47464e-07
-8.85511e-08
0.00011497
1.14784e-07
4.95853e-09
0.000114989
4.39528e-08
8.1337e-09
7.93561e-08
3.36553e-08
0.000158545
2.06659e-07
5.85686e-08
0.000158517
2.37115e-07
-3.73943e-08
0.000158453
2.60868e-07
-4.77252e-08
0.000158413
1.80507e-07
-1.55586e-07
0.000158393
1.98748e-07
-2.29502e-07
0.000158394
2.08506e-07
-3.12273e-07
0.000158386
2.70491e-07
-3.14732e-07
0.000158358
2.57897e-07
-2.56421e-07
0.000158309
1.8361e-07
-1.92184e-07
0.000158283
2.02369e-07
-8.92974e-08
0.000158252
3.44862e-07
-7.14819e-08
0.000158231
2.78584e-07
-6.07987e-09
0.000158199
3.24568e-07
4.60917e-08
0.00015817
1.75923e-07
3.58641e-08
0.000158142
2.29368e-07
2.78089e-08
0.000158138
3.41059e-07
-2.96337e-08
0.000158097
3.4938e-07
-1.01349e-07
0.000158091
3.92674e-07
-8.38886e-08
0.000158021
2.5703e-07
-1.48924e-07
0.000158021
4.2142e-07
-1.15204e-07
0.000157991
3.56212e-07
-1.30605e-07
0.000158019
5.30982e-07
-1.75792e-07
0.000158047
4.89909e-07
-1.41243e-07
0.000158088
4.64227e-07
-2.40355e-07
0.000158216
3.60084e-07
-3.0947e-07
0.000158292
4.27551e-07
-3.56891e-07
0.000158428
3.93546e-07
-4.56231e-07
0.000158478
1.79438e-07
-3.07268e-07
0.000158521
1.94447e-07
-3.16188e-07
0.000158543
2.89754e-08
-1.75017e-07
0.000158543
1.97314e-07
-1.93454e-07
0.000158553
2.75851e-07
-1.57177e-07
0.000158534
2.16605e-07
-9.88728e-08
0.000158538
1.38453e-07
-1.07836e-07
0.000158564
2.4703e-07
-1.24046e-07
0.000158569
1.339e-07
-8.47373e-08
0.000158624
3.54795e-07
-1.39887e-07
0.00015859
1.55011e-07
-1.27306e-08
0.000158606
1.04491e-07
-5.62632e-09
1.18765e-07
3.5906e-08
0.000211032
2.79933e-07
1.00988e-07
0.000211017
3.08787e-07
-2.2154e-08
0.00021094
3.13082e-07
-4.2625e-09
0.00021086
2.59909e-07
-1.11275e-07
0.000210825
2.84573e-07
-2.02648e-07
0.000210824
2.8677e-07
-3.37563e-07
0.000210823
3.75074e-07
-3.95558e-07
0.000210801
3.28589e-07
-3.56608e-07
0.000210722
2.55818e-07
-2.85727e-07
0.000210675
3.02399e-07
-1.44744e-07
0.000210647
4.65103e-07
-1.15221e-07
0.000210623
3.64209e-07
-5.80299e-08
0.00021058
4.44118e-07
4.54808e-08
0.00021053
2.51033e-07
4.719e-08
0.000210482
3.47771e-07
5.7106e-08
0.000210492
4.54922e-07
1.41793e-08
0.000210442
4.70484e-07
-1.13568e-07
0.000210444
5.25652e-07
-7.81567e-08
0.000210339
3.49432e-07
-1.64254e-07
0.000210321
5.96095e-07
-1.23815e-07
0.00021028
4.78358e-07
-1.18196e-07
0.000210298
7.25452e-07
-2.20065e-07
0.000210338
6.5601e-07
-1.43474e-07
0.000210358
6.36913e-07
-2.42182e-07
0.00021051
5.36004e-07
-3.25585e-07
0.000210614
5.85779e-07
-3.69271e-07
0.000210808
5.41485e-07
-5.81057e-07
0.00021089
2.50234e-07
-4.12647e-07
0.000210943
2.88898e-07
-4.38971e-07
0.000210986
7.11265e-08
-2.59628e-07
0.000210994
2.74846e-07
-2.51811e-07
0.000211029
3.67797e-07
-2.47213e-07
0.000211009
2.66018e-07
-1.3673e-07
0.000210983
2.11941e-07
-1.30563e-07
0.000211024
3.55432e-07
-1.53419e-07
0.000211025
1.87333e-07
-8.35771e-08
0.000211113
4.88755e-07
-1.99718e-07
0.00021108
1.99898e-07
-5.54681e-08
0.000211079
1.89696e-07
-2.74474e-08
1.81667e-07
1.72369e-08
0.000273464
3.68738e-07
1.49743e-07
0.000273479
4.03946e-07
3.38654e-09
0.000273414
3.47159e-07
3.18038e-08
0.000273281
3.27782e-07
-4.61415e-08
0.000273212
3.81349e-07
-1.17006e-07
0.000273202
3.72513e-07
-2.81546e-07
0.000273206
5.02487e-07
-4.26803e-07
0.000273211
3.99164e-07
-4.57296e-07
0.000273098
3.11548e-07
-4.1609e-07
0.00027301
4.16518e-07
-2.27343e-07
0.000272985
6.11701e-07
-1.59492e-07
0.000272965
4.60079e-07
-1.33034e-07
0.000272919
5.74893e-07
1.3744e-08
0.00027284
3.22167e-07
4.21563e-08
0.000272749
4.9163e-07
7.69549e-08
0.000272778
6.0204e-07
9.26657e-08
0.000272724
6.01273e-07
-1.02106e-07
0.00027275
6.73909e-07
-6.97331e-08
0.000272607
4.28322e-07
-1.71579e-07
0.000272553
7.9451e-07
-1.35954e-07
0.000272496
6.05287e-07
-4.76706e-08
0.000272491
9.44991e-07
-2.4502e-07
0.000272552
8.41871e-07
-1.51932e-07
0.000272535
8.05983e-07
-2.29702e-07
0.000272692
7.42367e-07
-3.25359e-07
0.00027282
7.68062e-07
-2.92654e-07
0.00027308
7.23879e-07
-6.60505e-07
0.000273219
3.32673e-07
-5.21014e-07
0.000273277
3.93406e-07
-5.82605e-07
0.000273345
1.397e-07
-3.86264e-07
0.000273364
3.75255e-07
-2.97576e-07
0.00027344
4.8962e-07
-3.62973e-07
0.000273446
3.0126e-07
-2.16934e-07
0.000273369
2.76263e-07
-1.69677e-07
0.00027342
4.88379e-07
-2.03589e-07
0.000273408
2.43915e-07
-5.08078e-08
0.000273539
6.61334e-07
-2.38819e-07
0.000273529
2.38845e-07
-1.18685e-07
0.00027349
2.93623e-07
-6.37541e-08
2.80792e-07
-4.17582e-08
0.000346785
4.74838e-07
1.83387e-07
0.000346837
5.49985e-07
4.9576e-08
0.000346838
3.85446e-07
5.21119e-08
0.000346661
3.59845e-07
-6.32937e-09
0.000346532
4.72109e-07
-1.7628e-08
0.000346494
4.48323e-07
-1.18039e-07
0.000346489
6.46564e-07
-3.28921e-07
0.000346548
4.79109e-07
-4.90155e-07
0.000346421
3.28863e-07
-5.72153e-07
0.00034626
5.10847e-07
-3.61913e-07
0.000346225
7.82716e-07
-1.93337e-07
0.000346217
5.64466e-07
-1.99093e-07
0.000346184
7.18672e-07
-5.15269e-08
0.000346085
3.66792e-07
-3.95613e-09
0.000345914
6.42064e-07
3.72417e-08
0.000345954
7.85619e-07
2.06599e-07
0.000345897
7.36878e-07
-1.55091e-08
0.000345971
8.45021e-07
-4.72343e-08
0.000345811
4.75192e-07
-1.73718e-07
0.000345696
9.881e-07
-1.93726e-07
0.000345617
7.33334e-07
7.89699e-08
0.000345563
1.16931e-06
-1.87294e-07
0.000345662
1.05473e-06
-1.52466e-07
0.000345603
9.44634e-07
-2.15601e-07
0.00034573
9.67513e-07
-3.61302e-07
0.000345858
9.77392e-07
-1.173e-07
0.000346181
9.43078e-07
-6.10911e-07
0.000346413
4.34131e-07
-5.80313e-07
0.000346481
4.85281e-07
-7.17159e-07
0.000346567
2.19488e-07
-5.81147e-07
0.00034659
4.95002e-07
-3.20078e-07
0.000346717
6.58925e-07
-4.50499e-07
0.000346802
3.36123e-07
-3.42234e-07
0.000346664
3.03793e-07
-2.46774e-07
0.000346713
6.27206e-07
-3.21114e-07
0.00034667
2.95346e-07
-5.64088e-09
0.000346841
8.81798e-07
-2.03607e-07
0.000346901
2.74864e-07
-1.77563e-07
0.000346803
3.61523e-07
-1.05029e-07
4.1757e-07
-1.69072e-07
0.000431652
5.79439e-07
1.36213e-07
0.000431717
7.46732e-07
1.51413e-07
0.000431849
4.77446e-07
1.07409e-07
0.000431688
3.55102e-07
-9.11155e-09
0.000431486
5.16427e-07
-1.40715e-08
0.000431392
4.88628e-07
7.1505e-08
0.000431335
7.58928e-07
-3.30163e-08
0.000431464
5.8372e-07
-3.18046e-07
0.000431383
3.12605e-07
-6.69264e-07
0.000431127
5.31129e-07
-5.81881e-07
0.000431044
9.49739e-07
-2.50753e-07
0.000431043
6.64801e-07
-1.96411e-07
0.000431046
8.82344e-07
-9.02793e-08
0.00043097
3.56306e-07
-5.08117e-08
0.000430679
7.30648e-07
-1.22468e-07
0.000430696
9.81786e-07
2.62084e-07
0.000430623
8.86225e-07
1.77377e-07
0.000430767
1.05336e-06
5.28797e-08
0.000430645
4.91943e-07
-1.32131e-07
0.000430454
1.13492e-06
-3.62206e-07
0.000430345
8.37249e-07
1.70169e-07
0.000430199
1.35622e-06
3.26426e-08
0.000430343
1.30014e-06
-6.04275e-08
0.00043027
1.04389e-06
-1.58468e-07
0.000430331
1.14414e-06
-5.16045e-07
0.000430414
1.17804e-06
4.60529e-08
0.00043076
1.18837e-06
-3.60597e-07
0.000431124
5.77386e-07
-4.83909e-07
0.000431228
5.50758e-07
-7.47115e-07
0.000431325
2.71569e-07
-8.6351e-07
0.000431329
5.99107e-07
-3.70408e-07
0.000431482
8.62332e-07
-4.19397e-07
0.000431721
4.09714e-07
-4.34355e-07
0.000431549
2.87044e-07
-3.41494e-07
0.000431581
7.43563e-07
-5.65391e-07
0.000431484
3.17687e-07
-6.09906e-08
0.000431655
1.1304e-06
-5.55091e-08
0.000431857
3.33809e-07
-1.58658e-07
0.000431701
3.66475e-07
-1.00825e-07
5.59173e-07
-3.77977e-07
0.000528202
6.1444e-07
-9.91262e-08
0.0005282
9.32596e-07
2.46737e-07
0.000528488
6.41821e-07
3.11228e-07
0.000528462
3.96773e-07
6.29627e-08
0.000528223
4.87953e-07
-1.63199e-07
0.000528062
4.6168e-07
4.49045e-08
0.000527884
8.37582e-07
2.91162e-07
0.000528044
7.07704e-07
1.77954e-07
0.0005281
3.14703e-07
-4.79044e-07
0.000527782
4.53017e-07
-8.35737e-07
0.000527601
1.04641e-06
-4.55172e-07
0.000527563
7.05321e-07
-1.33497e-07
0.000527605
1.06058e-06
4.64892e-09
0.000527637
3.61707e-07
1.03756e-08
0.000527232
7.09624e-07
-3.71645e-07
0.00052717
1.11573e-06
6.01418e-08
0.000527035
9.99525e-07
4.02095e-07
0.000527231
1.27944e-06
3.28391e-07
0.000527238
5.34087e-07
1.04655e-07
0.000526996
1.22074e-06
-6.1355e-07
0.000526863
8.53129e-07
2.20293e-08
0.000526567
1.46804e-06
2.88373e-07
0.000526723
1.54837e-06
2.34234e-07
0.000526698
1.14646e-06
1.18491e-07
0.000526692
1.24713e-06
-7.58818e-07
0.000526679
1.29668e-06
-4.51355e-08
0.000526951
1.38074e-06
1.66481e-08
0.000527448
7.75754e-07
-1.31409e-07
0.000527649
6.18129e-07
-4.69008e-07
0.000527772
2.68304e-07
-1.13931e-06
0.000527733
6.29654e-07
-6.07189e-07
0.000527821
1.0223e-06
-2.71527e-07
0.000528258
5.50211e-07
-3.27173e-07
0.000528135
2.69048e-07
-2.92637e-07
0.000528164
8.21046e-07
-8.85919e-07
0.000528003
2.83979e-07
-4.10268e-07
0.000528076
1.3579e-06
6.3473e-08
0.000528479
4.48092e-07
2.07342e-08
0.000528325
3.42093e-07
7.3553e-08
6.68958e-07
-5.90579e-07
0.000635693
6.02196e-07
-5.85146e-07
0.000635516
9.87042e-07
8.06654e-08
0.000635851
7.73925e-07
6.23197e-07
0.000636074
4.80964e-07
5.14696e-07
0.000635922
4.48818e-07
-2.31637e-07
0.000635747
3.85679e-07
-3.64227e-07
0.000635406
7.96882e-07
2.49689e-07
0.000635458
7.29079e-07
8.33888e-07
0.000635704
3.99644e-07
2.48998e-07
0.000635453
3.47422e-07
-7.97073e-07
0.000635167
1.04096e-06
-8.75796e-07
0.000635017
6.22257e-07
-2.45822e-07
0.000635022
1.15472e-06
2.3244e-07
0.000635251
3.51011e-07
4.4495e-07
0.000634831
6.25541e-07
-3.91995e-07
0.000634667
1.1314e-06
-5.13376e-07
0.000634403
9.74365e-07
3.25135e-07
0.000634546
1.40911e-06
6.90427e-07
0.000634748
5.66153e-07
7.78632e-07
0.000634542
1.26921e-06
-5.93026e-07
0.000634446
8.03328e-07
-4.96475e-07
0.00063397
1.40863e-06
2.5942e-07
0.000634034
1.67876e-06
6.22861e-07
0.000634095
1.20485e-06
8.83281e-07
0.000634094
1.29327e-06
-6.96569e-07
0.00063399
1.31366e-06
-5.54338e-07
0.000634056
1.42798e-06
9.03388e-08
0.000634581
9.29632e-07
3.37435e-07
0.000634935
7.36757e-07
2.95093e-07
0.000635142
2.3951e-07
-1.02173e-06
0.000635095
5.85013e-07
-1.1086e-06
0.000634984
1.01876e-06
-2.97482e-07
0.000635538
6.46016e-07
-4.61035e-09
0.000635567
3.33416e-07
1.6065e-07
0.000635656
8.81506e-07
-9.04834e-07
0.000635487
2.25582e-07
-1.08295e-06
0.000635326
1.4042e-06
-1.50992e-07
0.000635895
5.59076e-07
2.21149e-07
0.000635855
2.98137e-07
6.18189e-07
7.35916e-07
-5.11167e-07
0.000751902
5.65694e-07
-8.3897e-07
0.000751539
9.07631e-07
-5.18489e-07
0.000751671
7.02788e-07
5.45213e-07
0.000752088
4.94257e-07
1.25669e-06
0.000752164
4.53805e-07
3.4458e-07
0.000752125
3.3406e-07
-7.31365e-07
0.00075172
6.93169e-07
-4.38903e-07
0.000751491
5.37566e-07
9.28759e-07
0.000751801
3.61563e-07
1.33533e-06
0.000751777
2.82916e-07
1.90662e-08
0.00075152
1.0022e-06
-1.09452e-06
0.000751241
4.41086e-07
-7.71425e-07
0.000751049
1.04038e-06
1.84975e-07
0.000751427
2.32723e-07
1.07531e-06
0.000751168
5.49941e-07
3.23164e-07
0.000750993
1.1088e-06
-9.6106e-07
0.000750603
7.96934e-07
-2.92412e-07
0.000750519
1.30249e-06
5.89566e-07
0.000750845
5.00499e-07
1.62602e-06
0.000750767
1.26884e-06
2.41176e-07
0.000750835
7.45632e-07
-8.79673e-07
0.000750278
1.21505e-06
-3.04211e-07
0.000750118
1.56035e-06
5.23622e-07
0.000750188
1.10413e-06
1.82343e-06
0.000750276
1.27362e-06
2.6738e-07
0.000750212
1.30087e-06
-9.42911e-07
0.000750028
1.26109e-06
-3.70267e-07
0.000750358
8.60659e-07
3.87815e-07
0.000750802
7.25545e-07
1.2907e-06
0.00075115
2.4886e-07
-2.24684e-08
0.000751238
5.39741e-07
-1.36283e-06
0.000750895
8.78355e-07
-8.20341e-07
0.000751322
4.84011e-07
9.25926e-08
0.000751493
2.87008e-07
9.82217e-07
0.000751708
9.09709e-07
-6.87107e-08
0.000751699
2.08495e-07
-1.44925e-06
0.000751257
1.34974e-06
-8.99006e-07
0.000751792
4.89052e-07
7.90632e-09
0.00075193
1.92047e-07
1.23554e-06
7.511e-07
2.39816e-07
0.000872301
4.93677e-07
-2.14456e-07
0.000871986
8.06484e-07
-8.49825e-07
0.000871765
4.9108e-07
-1.92639e-07
0.00087208
2.86062e-07
1.30919e-06
0.000872325
3.5917e-07
1.31419e-06
0.000872531
2.51289e-07
-1.42536e-07
0.000872333
6.51038e-07
-1.00024e-06
0.000871884
2.94187e-07
5.81095e-08
0.000871969
1.27356e-07
1.54001e-06
0.000872125
1.35202e-07
1.19456e-06
0.000872094
9.41268e-07
-3.68277e-07
0.000871876
3.00431e-07
-1.08599e-06
0.000871439
8.15071e-07
-3.9264e-07
0.000871702
-6.86286e-08
9.96468e-07
0.000871658
3.70201e-07
1.38717e-06
0.000871634
1.02447e-06
-3.84687e-07
0.000871315
6.33728e-07
-7.47861e-07
0.000870957
1.05123e-06
-2.32239e-07
0.000871182
2.45106e-07
1.60011e-06
0.000871179
1.09438e-06
1.39593e-06
0.00087147
6.05961e-07
-2.28307e-07
0.000871092
1.03364e-06
-7.09073e-07
0.000870766
1.25211e-06
-2.69129e-07
0.000870668
7.89446e-07
1.76812e-06
0.000870784
1.0103e-06
1.61154e-06
0.000870903
1.20895e-06
-2.68209e-07
0.000870679
1.0322e-06
-7.08782e-07
0.00087066
6.1973e-07
-2.37502e-07
0.000870969
4.58092e-07
1.37701e-06
0.000871335
1.07324e-07
1.30249e-06
0.000871679
4.63947e-07
-5.25504e-07
0.000871347
7.67728e-07
-1.13541e-06
0.000871446
1.66466e-07
-4.59565e-07
0.00087157
5.39329e-08
1.11322e-06
0.000871813
7.21808e-07
1.17453e-06
0.000872106
1.80045e-07
-6.28001e-07
0.000871607
1.26874e-06
-1.23078e-06
0.000871869
2.55527e-07
-7.19738e-07
0.000872055
-5.99426e-08
1.07541e-06
6.37744e-07
1.19907e-06
0.000988652
3.48389e-07
3.82121e-07
0.000988607
6.50402e-07
-1.97974e-07
0.000988345
3.25175e-07
-3.49549e-07
0.000988405
3.5385e-08
5.3498e-07
0.000988523
2.0057e-07
1.09541e-06
0.000988757
8.06707e-08
5.21815e-07
0.000988805
5.78509e-07
-3.69719e-07
0.000988538
1.35901e-07
-3.24321e-07
0.000988411
-6.8883e-08
6.8472e-07
0.000988486
-5.46305e-08
1.04887e-06
0.00098859
7.67645e-07
4.08783e-07
0.000988597
2.14509e-07
-4.62338e-07
0.000988271
6.23802e-07
-4.20427e-07
0.000988275
-2.79033e-07
2.07208e-07
0.000988277
1.53639e-07
1.15595e-06
0.000988347
7.94638e-07
2.97122e-07
0.000988303
4.59422e-07
-1.41493e-07
0.000987976
7.57716e-07
-4.21008e-07
0.000988026
-2.27751e-08
7.22171e-07
0.000987961
8.12778e-07
1.19377e-06
0.00098825
3.5547e-07
4.97714e-07
0.000988141
8.21442e-07
-9.33179e-08
0.000987979
9.07755e-07
-3.83546e-07
0.000987778
4.62907e-07
7.66649e-07
0.000987797
6.11584e-07
1.44153e-06
0.000987952
9.61011e-07
5.29563e-07
0.00098792
7.24832e-07
-5.32781e-08
0.000987786
3.85314e-07
-2.77897e-07
0.00098784
1.36298e-07
5.90433e-07
0.000987984
-1.0091e-07
1.20828e-06
0.000988297
2.66524e-07
3.876e-07
0.00098824
6.61693e-07
-3.82622e-07
0.000988171
-9.68966e-08
-4.75747e-07
0.000988156
-1.37628e-07
4.1957e-07
0.000988212
4.1783e-07
1.0749e-06
0.000988544
4.3674e-08
2.99685e-07
0.000988316
1.09358e-06
-4.14612e-07
0.000988381
5.23469e-08
-6.24906e-07
0.000988387
-2.7266e-07
3.02537e-07
4.72817e-07
9.71542e-07
0.00109686
2.87979e-07
1.70806e-07
0.00109694
4.45208e-07
1.88559e-07
0.00109683
2.11107e-07
3.10564e-08
0.00109683
-9.77357e-08
2.06314e-07
0.00109679
1.57561e-07
4.03071e-07
0.00109689
-1.56972e-08
3.03369e-07
0.00109695
4.84285e-07
9.25903e-08
0.0010969
3.18378e-09
8.19765e-09
0.00109681
-1.20067e-07
2.42727e-07
0.00109678
-1.02202e-07
3.39817e-07
0.00109687
6.22799e-07
2.49867e-07
0.00109692
1.55502e-07
-2.60343e-08
0.00109687
4.18306e-07
5.47992e-09
0.00109677
-2.64884e-07
-8.89718e-08
0.00109677
3.6999e-08
4.56617e-07
0.00109679
6.27429e-07
1.00914e-07
0.0010969
2.82803e-07
2.54111e-07
0.00109675
5.19525e-07
-6.47625e-08
0.00109676
-1.6149e-07
3.6964e-07
0.00109667
6.13061e-07
4.63259e-07
0.00109682
2.13197e-07
3.11944e-07
0.0010968
6.1652e-07
2.52004e-07
0.00109683
5.9716e-07
4.2529e-08
0.0010967
2.58123e-07
3.53794e-07
0.00109668
3.16688e-07
6.45558e-07
0.00109676
7.58558e-07
3.69634e-07
0.0010968
4.45408e-07
2.91226e-07
0.00109676
2.03127e-07
1.45943e-07
0.00109671
-1.24339e-08
2.47022e-07
0.00109669
-1.73656e-07
5.28871e-07
0.00109679
1.67755e-07
2.42542e-07
0.00109687
5.0299e-07
1.29047e-07
0.0010968
-2.3705e-07
-5.55311e-08
0.00109677
-1.64364e-07
1.30524e-07
0.00109671
2.25658e-07
3.89507e-07
0.00109687
6.34542e-09
1.77481e-07
0.00109683
8.24095e-07
9.02025e-08
0.00109689
-5.92269e-08
-8.32417e-08
0.00109674
-2.89658e-07
5.03384e-08
3.32001e-07
3.73639e-07
0.0012076
2.72873e-07
2.93661e-08
0.00120771
2.6858e-07
1.80196e-07
0.00120764
1.60866e-07
1.15735e-07
0.00120763
-1.74715e-07
1.54986e-07
0.00120758
1.58713e-07
1.80455e-07
0.00120762
-6.70424e-08
1.52173e-07
0.00120769
4.20425e-07
1.00588e-07
0.00120764
-6.57559e-08
1.11536e-07
0.00120761
-1.31494e-07
1.41546e-07
0.00120754
-6.08719e-08
1.16967e-07
0.00120766
4.67843e-07
9.20462e-08
0.00120766
1.57976e-07
6.43099e-09
0.0012077
2.39394e-07
1.09189e-07
0.00120758
-1.78136e-07
-1.03691e-07
0.00120759
-3.8784e-08
2.54172e-07
0.0012076
5.17069e-07
-6.09143e-08
0.00120771
1.63516e-07
2.74253e-07
0.00120763
3.58484e-07
6.09371e-09
0.00120762
-2.05258e-07
3.10262e-07
0.00120756
4.69216e-07
2.16099e-07
0.00120764
1.47635e-07
1.57678e-07
0.00120765
4.59581e-07
2.39813e-07
0.00120769
3.94698e-07
1.27977e-07
0.00120761
1.19282e-07
2.83006e-07
0.00120758
1.42094e-07
3.53712e-07
0.00120764
5.93834e-07
2.19246e-07
0.00120769
2.62918e-07
2.44485e-07
0.00120767
9.87305e-08
2.42214e-07
0.00120761
-7.91221e-08
1.56839e-07
0.00120757
-1.66258e-07
3.04731e-07
0.00120761
9.96324e-08
8.08226e-08
0.0012077
4.05335e-07
1.65875e-07
0.00120764
-2.94811e-07
4.09589e-08
0.00120762
-1.45116e-07
9.5676e-08
0.00120754
1.24646e-07
1.62294e-07
0.00120766
-1.13844e-08
3.62674e-08
0.00120763
6.17477e-07
1.0517e-07
0.00120771
-1.25571e-07
4.12758e-08
0.00120753
-2.27187e-07
2.6385e-08
1.99465e-07
1.81555e-07
0.00132835
2.76562e-07
2.48941e-09
0.00132844
1.28272e-07
1.33317e-07
0.0013284
1.40023e-07
9.52074e-08
0.00132836
-2.02299e-07
1.21382e-07
0.00132835
1.44718e-07
1.18322e-07
0.00132834
-7.44142e-08
1.2046e-07
0.00132846
3.35716e-07
5.90734e-08
0.00132836
-6.00271e-08
1.07835e-07
0.00132839
-1.58138e-07
8.89169e-08
0.00132827
1.87834e-08
7.52818e-08
0.00132842
3.06874e-07
4.67541e-08
0.0013284
1.91744e-07
-1.90669e-08
0.00132845
9.72171e-08
1.10512e-07
0.00132834
-8.71853e-08
-1.22401e-07
0.00132834
-8.33634e-08
2.25592e-07
0.00132837
4.26424e-07
-1.16324e-07
0.00132843
9.67562e-08
2.52571e-07
0.0013284
2.36973e-07
-2.91299e-08
0.00132835
-1.89414e-07
2.76547e-07
0.00132834
3.31119e-07
1.45717e-07
0.00132838
1.34616e-07
1.12084e-07
0.00132841
3.16544e-07
2.08167e-07
0.00132844
2.7898e-07
9.50699e-08
0.00132837
2.38685e-08
2.46985e-07
0.00132835
3.29519e-08
2.4693e-07
0.00132839
4.68531e-07
1.9108e-07
0.00132845
1.23317e-07
1.6324e-07
0.00132841
5.94178e-08
2.40766e-07
0.00132837
-1.21058e-07
9.13812e-08
0.00132833
-1.31006e-07
2.5546e-07
0.00132836
3.99527e-08
3.31318e-08
0.00132845
3.37082e-07
1.40865e-07
0.00132837
-3.00472e-07
3.41983e-08
0.00132838
-1.33469e-07
6.89605e-08
0.00132829
7.21998e-08
1.14812e-07
0.00132842
-4.81754e-08
-7.07113e-09
0.00132837
4.91737e-07
7.85581e-08
0.00132846
-1.81906e-07
3.11714e-08
0.00132828
-1.36044e-07
1.17391e-08
7.11922e-08
1.25449e-07
0.00146113
2.66511e-07
-1.1483e-08
0.00146118
4.28334e-08
9.90448e-08
0.00146118
1.04106e-07
6.78053e-08
0.0014611
-1.77083e-07
1.0391e-07
0.00146114
9.45831e-08
8.01806e-08
0.00146107
-3.6541e-08
1.11807e-07
0.00146124
2.23129e-07
2.84467e-08
0.0014611
-4.18231e-09
9.71459e-08
0.00146116
-1.96598e-07
5.23333e-08
0.00146104
1.05002e-07
5.42624e-08
0.00146117
1.71692e-07
3.05463e-08
0.00146117
2.16233e-07
-4.64061e-08
0.00146119
1.40528e-08
1.11516e-07
0.00146113
-2.7181e-08
-1.39894e-07
0.00146108
-9.14985e-08
2.21791e-07
0.00146115
3.31677e-07
-1.41218e-07
0.00146117
7.66761e-08
2.3847e-07
0.00146118
1.28724e-07
-5.85101e-08
0.0014611
-1.27312e-07
2.40362e-07
0.00146112
2.01706e-07
1.11689e-07
0.00146113
1.52219e-07
8.09222e-08
0.00146118
1.91388e-07
1.95175e-07
0.00146121
2.12232e-07
4.66625e-08
0.00146112
-1.98e-08
2.32195e-07
0.00146113
-5.36083e-08
1.61589e-07
0.00146113
4.00158e-07
1.91605e-07
0.00146122
1.71959e-09
9.44763e-08
0.00146117
6.06419e-08
2.34256e-07
0.00146113
-1.53109e-07
4.13811e-08
0.0014611
-8.78445e-08
2.2172e-07
0.00146111
-2.79954e-09
1.85198e-08
0.00146122
2.67014e-07
1.115e-07
0.00146112
-2.57831e-07
3.55869e-08
0.00146117
-1.48441e-07
3.66288e-08
0.00146104
7.8678e-08
1.06237e-07
0.00146119
-1.1093e-07
-3.27762e-08
0.00146112
4.26834e-07
6.46643e-08
0.00146122
-2.38614e-07
1.21124e-08
0.00146106
-4.20416e-08
5.79199e-09
-3.05967e-08
9.26291e-08
0.0016072
2.09986e-07
-2.15831e-08
0.00160718
2.98259e-08
8.06031e-08
0.00160724
3.64292e-08
3.71213e-08
0.00160712
-1.04565e-07
9.14825e-08
0.0016072
1.99814e-08
4.56735e-08
0.0016071
2.84717e-08
1.06232e-07
0.00160727
1.06602e-07
6.96077e-09
0.00160714
5.57647e-08
7.72466e-08
0.00160719
-2.16652e-07
3.52234e-08
0.00160711
1.54297e-07
3.13824e-08
0.00160718
9.61593e-08
2.89365e-08
0.00160722
2.06804e-07
-6.51089e-08
0.00160721
-2.28268e-08
1.15134e-07
0.00160719
4.04111e-09
-1.58094e-07
0.00160711
-7.09947e-08
2.25545e-07
0.00160721
2.36732e-07
-1.58663e-07
0.00160718
9.30509e-08
2.21727e-07
0.00160724
2.61509e-08
-7.25273e-08
0.00160713
-4.22114e-08
2.02459e-07
0.00160716
8.25442e-08
1.05327e-07
0.00160718
1.73876e-07
4.27768e-08
0.00160719
1.06884e-07
2.03876e-07
0.00160727
1.39623e-07
-7.29731e-11
0.00160713
6.10601e-10
2.29748e-07
0.00160719
-1.41891e-07
8.83222e-08
0.00160716
3.78411e-07
1.956e-07
0.00160724
-1.04202e-07
4.49499e-08
0.00160721
7.74243e-08
2.22326e-07
0.00160716
-1.6493e-07
1.3857e-08
0.00160716
-6.17582e-08
1.87109e-07
0.00160712
-7.97457e-09
2.56534e-08
0.00160728
1.75479e-07
6.99934e-08
0.00160713
-1.65165e-07
5.26563e-08
0.00160722
-1.95234e-07
-5.06109e-09
0.00160707
1.26339e-07
1.13034e-07
0.00160723
-1.85113e-07
-5.61171e-08
0.00160716
3.96635e-07
5.61843e-08
0.00160723
-2.73056e-07
4.08764e-09
0.00160713
1.64731e-08
-6.16744e-09
-6.98309e-08
7.69613e-08
0.00176787
1.0556e-07
-4.01888e-08
0.0017678
7.52217e-08
7.09568e-08
0.00176789
-4.98336e-08
1.63224e-08
0.00176776
-2.27347e-08
8.55795e-08
0.00176785
-4.67101e-08
2.2774e-08
0.00176775
7.76524e-08
9.30097e-08
0.00176788
3.30734e-08
2.57384e-09
0.00176781
7.14837e-08
5.36375e-08
0.00176781
-1.86142e-07
3.33668e-08
0.00176779
1.47287e-07
6.39037e-09
0.0017678
6.8449e-08
3.14756e-08
0.00176786
1.82751e-07
-8.00432e-08
0.00176783
-3.69113e-08
1.20084e-07
0.00176786
1.09594e-08
-1.67143e-07
0.00176774
-3.21728e-08
2.23965e-07
0.00176786
1.42534e-07
-1.62022e-07
0.0017678
1.36426e-07
2.00005e-07
0.00176788
-6.48829e-08
-6.63958e-08
0.00176779
3.58841e-08