/*--------------------------------*- C++ -*----------------------------------*\
  =========                 |
  \\      /  F ield         | OpenFOAM: The Open Source CFD Toolbox
   \\    /   O peration     | Website:  https://openfoam.org
    \\  /    A nd           | Version:  10
     \\/     M anipulation  |
\*---------------------------------------------------------------------------*/
FoamFile
{
    format      ascii;
    class       volScalarField;
    location    "5";
    object      pMean;
}
// * * * * * * * * * * * * * * * * * * * * * * * * * * * * * * * * * * * * * //

dimensions      [0 2 -2 0 0 0 0];

internalField   nonuniform List<scalar> 
25600
(
-0.000125123
-0.000110502
0.000169987
0.000232228
-0.000150371
-0.000440254
-0.000611015
-0.000425301
-0.000165352
0.000277772
0.000342343
0.000506905
0.00068656
0.000774335
0.000579672
0.000193977
7.23979e-05
8.57963e-05
5.13536e-06
-4.33763e-05
-7.5879e-05
9.73522e-05
0.000396863
0.0006103
0.000463632
-0.000250758
-0.0005866
-0.000120972
0.00015403
0.000178867
0.000196142
8.49663e-05
0.00017767
0.000158511
-0.000100052
-0.000352666
0.000119483
0.000585898
0.000632356
0.000414791
-0.000132944
-0.000110235
0.00017264
0.000230852
-0.000153534
-0.000448363
-0.000615783
-0.000423866
-0.000164127
0.000274346
0.000338611
0.000506864
0.000693759
0.000779472
0.000582541
0.000193811
7.43667e-05
9.40072e-05
1.01534e-05
-4.29833e-05
-8.26618e-05
9.50458e-05
0.000402666
0.000615113
0.000460802
-0.000257964
-0.000591276
-0.000123252
0.000157246
0.0001752
0.000195861
8.34809e-05
0.000177017
0.000160539
-0.000106927
-0.000359676
0.000111553
0.000588471
0.000636781
0.000407208
-0.000147603
-0.000125584
0.000182216
0.00023977
-0.00016258
-0.000473669
-0.00064344
-0.000428705
-0.0001597
0.000268351
0.000329364
0.000503335
0.000705124
0.000793367
0.000585543
0.000192442
6.17985e-05
9.32427e-05
1.86943e-05
-4.60412e-05
-9.03877e-05
8.43838e-05
0.000400554
0.000626047
0.000459506
-0.00028416
-0.000614492
-0.00012068
0.000161472
0.000168183
0.000173172
7.36387e-05
0.0001874
0.000174388
-0.000107898
-0.000373521
0.00010116
0.000582605
0.000639016
0.000413517
-0.00017447
-0.000145287
0.000177044
0.000231164
-0.000190498
-0.000517356
-0.000686229
-0.000444556
-0.000167518
0.000243556
0.000285597
0.000466085
0.000694439
0.000801419
0.000578423
0.000162902
3.30419e-05
6.45326e-05
6.28922e-06
-5.83638e-05
-0.000125526
6.05621e-05
0.000378391
0.000615662
0.000438146
-0.000337808
-0.000671609
-0.000160037
0.000163714
0.000151472
0.000159724
4.827e-05
0.000176299
0.000175195
-0.000119352
-0.000395581
7.03824e-05
0.000573913
0.000636001
0.000412274
-0.000250311
-0.000220943
0.000140989
0.000186057
-0.000247557
-0.000584789
-0.000758987
-0.000452622
-0.000197678
0.000166339
0.000166249
0.000329504
0.000582643
0.000718042
0.00050693
7.70111e-05
-9.66195e-05
-2.99709e-05
-7.5692e-05
-0.000130777
-0.000185894
-1.31642e-05
0.000322839
0.000560758
0.000385737
-0.000418295
-0.000757322
-0.000222198
0.000107957
7.08066e-05
9.39812e-05
2.38163e-05
0.000167282
0.000157812
-0.000175578
-0.000433553
2.72146e-05
0.000530803
0.000583396
0.000382765
-0.000379543
-0.000410869
-4.23817e-05
5.3373e-05
-0.000399187
-0.000718259
-0.000893872
-0.000550482
-0.000314373
-2.23028e-05
-7.76194e-05
9.13613e-05
0.000341515
0.000503074
0.000280743
-0.000125981
-0.000301093
-0.000249859
-0.000282337
-0.000315981
-0.000355536
-0.000142225
0.000175852
0.000402025
0.000251827
-0.000542724
-0.000880819
-0.000372009
-2.84247e-05
-9.24046e-05
-6.79685e-05
-0.000145523
1.79333e-05
4.90191e-06
-0.000361666
-0.000627167
-0.000124696
0.000388196
0.000430831
0.000255325
-0.000638512
-0.000684664
-0.000317115
-0.000191635
-0.000637724
-0.000926968
-0.00107244
-0.000727053
-0.000579164
-0.000351784
-0.000404308
-0.000246219
2.3201e-05
0.000222274
4.46633e-05
-0.000346855
-0.00052372
-0.000478978
-0.000514593
-0.000505884
-0.000535893
-0.000331837
-5.16141e-05
7.41191e-05
-5.25742e-05
-0.00078312
-0.00108891
-0.000632173
-0.000269336
-0.000360607
-0.000310211
-0.000329746
-0.000225877
-0.000278828
-0.000638467
-0.000927321
-0.000445548
0.000113426
0.000151201
-5.7375e-05
-0.000885489
-0.000942268
-0.00058759
-0.000467176
-0.000855004
-0.00112429
-0.00121551
-0.000926427
-0.000870181
-0.000733762
-0.000713742
-0.000479125
-0.000189846
-6.65065e-05
-0.000226914
-0.000536505
-0.000692649
-0.000680901
-0.000727489
-0.000646109
-0.000648352
-0.000439217
-0.000277286
-0.000274253
-0.000405701
-0.00106436
-0.00134263
-0.000906347
-0.00051241
-0.000637469
-0.000559404
-0.0005666
-0.000503694
-0.000576597
-0.000981583
-0.00128042
-0.000762879
-0.000195438
-0.000182995
-0.000355717
-0.000997603
-0.00104088
-0.000716936
-0.000621058
-0.000964255
-0.0011871
-0.00122534
-0.00100413
-0.00102331
-0.000962157
-0.000918018
-0.000654291
-0.000366179
-0.000268517
-0.000387387
-0.000715937
-0.000871867
-0.00082621
-0.000860059
-0.000774209
-0.000674149
-0.00043929
-0.000380931
-0.000500761
-0.000651572
-0.00123752
-0.00153733
-0.0011225
-0.000701493
-0.000860532
-0.00073676
-0.000684975
-0.00070129
-0.000877089
-0.00125639
-0.00152829
-0.00105245
-0.000418941
-0.00040823
-0.000563951
-0.000969843
-0.00100366
-0.000728579
-0.000672499
-0.000934039
-0.0011033
-0.00111857
-0.000967546
-0.0011136
-0.00119099
-0.00111479
-0.00077558
-0.000484328
-0.000446973
-0.000571899
-0.000916196
-0.00106506
-0.000991231
-0.000973395
-0.00083432
-0.000663991
-0.000423972
-0.000459182
-0.000666119
-0.000828008
-0.00132647
-0.00163907
-0.00128421
-0.00091429
-0.00114121
-0.00102697
-0.000851393
-0.000856137
-0.0010478
-0.00144084
-0.00168741
-0.00129876
-0.000624739
-0.000558297
-0.000626293
-0.00120058
-0.00117827
-0.000878185
-0.000731942
-0.000847766
-0.000949646
-0.000995493
-0.000955723
-0.00119656
-0.00137921
-0.00132243
-0.000995917
-0.00069254
-0.000695319
-0.000821584
-0.00119159
-0.00140826
-0.00133588
-0.00121161
-0.00103812
-0.000849491
-0.000628504
-0.000749555
-0.00101761
-0.00115981
-0.00153678
-0.00181698
-0.00144234
-0.00105782
-0.0012787
-0.00122212
-0.000997516
-0.000952972
-0.00109536
-0.00148663
-0.00180195
-0.00160085
-0.00103709
-0.000958712
-0.000979863
-0.00136493
-0.00133974
-0.00103136
-0.000823385
-0.000827836
-0.000851992
-0.00096615
-0.00104771
-0.00129601
-0.00152195
-0.00146685
-0.00115955
-0.000853007
-0.000879068
-0.00100189
-0.00135121
-0.00159052
-0.00148707
-0.00132322
-0.00114662
-0.000988963
-0.000831844
-0.00102412
-0.00134384
-0.00152543
-0.00177787
-0.00193165
-0.00148965
-0.00100232
-0.00110375
-0.00111503
-0.000952922
-0.00085803
-0.000863512
-0.00121114
-0.00158655
-0.00158545
-0.00118691
-0.00112749
-0.00116322
-0.00118449
-0.00123233
-0.00102122
-0.000879229
-0.000888269
-0.000913567
-0.00104527
-0.00118496
-0.0013684
-0.00154828
-0.00146621
-0.0011735
-0.000877852
-0.000894176
-0.000986053
-0.00123096
-0.00143435
-0.00128011
-0.00112023
-0.000980346
-0.000903264
-0.000792738
-0.00100193
-0.00130433
-0.00148615
-0.00164646
-0.00172045
-0.00135295
-0.000922701
-0.00102957
-0.00106541
-0.000934135
-0.000787122
-0.00067201
-0.000905577
-0.00123037
-0.00127326
-0.000943648
-0.000916726
-0.00098186
-0.000960999
-0.00103666
-0.000891947
-0.000815444
-0.000838207
-0.000877729
-0.000996496
-0.001117
-0.0011917
-0.00126192
-0.00115706
-0.000899447
-0.000665471
-0.000695216
-0.000779278
-0.00095769
-0.00110842
-0.000964391
-0.000824857
-0.000742958
-0.000739103
-0.000667979
-0.000820359
-0.00103524
-0.00116029
-0.00123067
-0.00127668
-0.00109815
-0.000844707
-0.000984725
-0.000996987
-0.000856403
-0.000728633
-0.00062365
-0.00076962
-0.00099051
-0.00100621
-0.000731953
-0.000708847
-0.000761614
-0.00068172
-0.000745582
-0.000640225
-0.000612062
-0.000629342
-0.000652512
-0.000730697
-0.000787528
-0.000798131
-0.000841383
-0.00080144
-0.000629255
-0.000479343
-0.000522625
-0.000596117
-0.000682825
-0.000772718
-0.000669336
-0.000581033
-0.000561941
-0.000596737
-0.000534789
-0.000620511
-0.000761329
-0.000828309
-0.000851457
-0.000872274
-0.000799962
-0.000634722
-0.000745421
-0.000756301
-0.000644357
-0.000589121
-0.000507382
-0.000587008
-0.000724971
-0.000715483
-0.000497623
-0.000472591
-0.000530763
-0.000426212
-0.000487853
-0.000411679
-0.000419471
-0.000434446
-0.000424804
-0.000465012
-0.000479063
-0.000480481
-0.000525607
-0.00052655
-0.000415596
-0.00028815
-0.000305365
-0.000347356
-0.00038834
-0.000451962
-0.000403757
-0.000365866
-0.000376086
-0.000426205
-0.000377366
-0.000413567
-0.000499889
-0.000527985
-0.000548477
-0.000554577
-0.000517692
-0.000397395
-0.000479041
-0.000513924
-0.000428469
-0.00040414
-0.000332553
-0.000377427
-0.000465788
-0.000463008
-0.000301982
-0.000266181
-0.000315173
-0.000232253
-0.000294511
-0.000241157
-0.000275146
-0.000296127
-0.00025254
-0.000262525
-0.000255996
-0.00025696
-0.000294983
-0.000303519
-0.000228343
-0.000119637
-0.000122269
-0.000170346
-0.000193491
-0.000239529
-0.000223835
-0.00021451
-0.000232068
-0.00028186
-0.000244181
-0.000254944
-0.000312461
-0.000325402
-0.000346853
-0.000334708
-0.000305953
-0.000211516
-0.000268706
-0.000309039
-0.000239388
-0.000220842
-0.000159704
-0.000200426
-0.000267315
-0.000272235
-0.000152881
-0.000109947
-0.000153306
-0.00011549
-0.000173647
-0.000140191
-0.000182163
-0.000214036
-0.000149112
-0.000137822
-0.00012282
-0.000115665
-0.000145648
-0.000159685
-0.000112207
-2.77072e-05
-2.75208e-05
-7.5333e-05
-8.5999e-05
-0.000114564
-0.000103591
-0.000107601
-0.0001267
-0.000171791
-0.000154695
-0.000154695
-0.000196084
-0.000191552
-0.00020989
-0.00019146
-0.000162117
-8.61101e-05
-0.000119839
-0.000162028
-0.000104975
-9.26293e-05
-4.4861e-05
-9.19408e-05
-0.000148685
-0.000153463
-7.29989e-05
-2.98574e-05
-6.39242e-05
-5.30244e-05
-0.000100849
-7.88379e-05
-0.000118784
-0.000159774
-9.26774e-05
-6.69106e-05
-4.8825e-05
-3.35234e-05
-5.79092e-05
-7.56836e-05
-4.35984e-05
2.14901e-05
2.12555e-05
-2.05906e-05
-2.57589e-05
-4.18526e-05
-2.99445e-05
-4.32504e-05
-6.53986e-05
-0.000105155
-0.000100122
-9.23755e-05
-0.000126412
-0.000106408
-0.000118614
-0.00010066
-7.36298e-05
-1.68846e-05
-3.16943e-05
-6.76506e-05
-2.38471e-05
-2.26768e-05
1.38581e-05
-2.91295e-05
-8.04522e-05
-8.62621e-05
-3.67969e-05
6.34305e-06
-1.90557e-05
-2.59248e-05
-5.59068e-05
-4.28449e-05
-7.56385e-05
-0.000121599
-6.48901e-05
-3.15111e-05
-9.42928e-06
1.45166e-05
-2.37153e-06
-2.15264e-05
-1.84908e-06
4.75984e-05
4.51909e-05
6.06163e-06
3.59074e-06
-6.26334e-06
8.18494e-06
-6.50229e-06
-2.82093e-05
-5.74271e-05
-6.25793e-05
-5.2507e-05
-8.33857e-05
-5.52565e-05
-5.93919e-05
-4.42493e-05
-1.94975e-05
1.51941e-05
1.47288e-05
-9.31914e-06
2.45094e-05
1.56116e-05
4.42017e-05
1.0211e-05
-4.18718e-05
-4.79393e-05
-2.34926e-05
2.1975e-05
1.7309e-06
-1.48737e-05
-3.06468e-05
-2.33882e-05
-4.6158e-05
-9.14893e-05
-5.14378e-05
-1.61593e-05
8.55067e-06
4.18745e-05
3.22998e-05
1.05272e-05
2.2184e-05
6.03021e-05
5.66336e-05
2.1032e-05
1.64995e-05
1.4503e-05
2.98815e-05
1.49596e-05
-7.32897e-06
-2.5336e-05
-3.73459e-05
-2.58331e-05
-5.4467e-05
-2.7676e-05
-2.15538e-05
-1.03123e-05
1.41211e-05
2.99123e-05
3.78493e-05
2.30615e-05
5.09141e-05
3.60628e-05
5.62431e-05
3.27675e-05
-2.03681e-05
-2.60463e-05
-2.10693e-05
2.61327e-05
1.27318e-05
-1.12354e-05
-1.54219e-05
-1.26468e-05
-2.66624e-05
-6.6268e-05
-4.13868e-05
-8.04562e-06
1.3258e-05
5.44052e-05
5.36361e-05
2.8826e-05
3.83388e-05
6.65161e-05
6.21935e-05
3.24056e-05
2.1458e-05
2.31245e-05
3.87554e-05
2.67717e-05
3.05116e-06
-6.02532e-06
-2.02318e-05
-9.08751e-06
-3.1788e-05
-1.3646e-05
-4.16106e-07
8.17265e-06
3.5211e-05
3.78938e-05
4.6114e-05
3.79334e-05
6.25272e-05
4.73512e-05
5.79874e-05
4.54051e-05
-7.40159e-06
-1.01366e-05
-2.09696e-05
2.25718e-05
2.05345e-05
-9.13116e-06
-5.44955e-06
-5.91757e-06
-1.47783e-05
-4.41165e-05
-3.26503e-05
-3.67423e-06
1.06547e-05
5.70105e-05
6.48084e-05
3.78641e-05
4.78116e-05
6.66067e-05
6.19987e-05
4.14734e-05
2.365e-05
2.47566e-05
4.12916e-05
3.3964e-05
7.99217e-06
4.27367e-06
-7.24366e-06
5.03069e-07
-1.47947e-05
-4.62514e-06
1.10932e-05
1.69892e-05
4.63182e-05
4.21561e-05
4.74267e-05
4.44634e-05
6.442e-05
5.34837e-05
5.51231e-05
5.14442e-05
9.97271e-07
1.62714e-06
-1.82005e-05
1.35291e-05
2.54868e-05
-7.56116e-06
-7.93172e-07
-9.42968e-08
-8.12208e-06
-2.5469e-05
-2.38373e-05
1.02497e-06
7.30452e-06
5.26083e-05
7.00686e-05
4.16771e-05
5.20546e-05
6.3378e-05
5.79473e-05
4.86485e-05
2.78448e-05
2.33251e-05
4.11823e-05
3.82185e-05
1.09095e-05
9.45693e-06
2.73033e-06
5.85325e-06
-2.69602e-06
1.46605e-06
1.61486e-05
1.93744e-05
4.94624e-05
4.46174e-05
4.54928e-05
4.6625e-05
5.97985e-05
5.50325e-05
5.08503e-05
5.22319e-05
7.41165e-06
1.01448e-05
-1.1071e-05
3.03825e-06
2.7697e-05
-5.14309e-06
4.59445e-07
6.47298e-06
-4.51593e-06
-1.0681e-05
-1.3617e-05
5.06102e-06
5.5466e-06
4.35417e-05
7.08235e-05
4.33081e-05
5.10794e-05
6.06775e-05
5.18419e-05
5.27678e-05
3.42753e-05
2.03546e-05
3.71276e-05
3.90313e-05
1.26289e-05
1.22607e-05
9.74498e-06
8.40503e-06
5.83276e-06
6.42251e-06
1.9159e-05
1.98055e-05
4.71953e-05
4.60265e-05
4.17634e-05
4.72913e-05
5.23145e-05
5.24207e-05
4.7346e-05
4.97812e-05
1.31669e-05
1.54491e-05
-9.5235e-07
-4.32532e-06
2.64488e-05
-1.07326e-06
-7.78779e-07
1.34411e-05
-1.69339e-06
-1.01301e-06
-2.31356e-06
8.37487e-06
7.2236e-06
3.3434e-05
6.76292e-05
4.48435e-05
4.59836e-05
5.76661e-05
4.51148e-05
5.11939e-05
4.2031e-05
1.88356e-05
3.16443e-05
3.92749e-05
1.37898e-05
1.30913e-05
1.53952e-05
1.07956e-05
1.25771e-05
1.11489e-05
2.12498e-05
2.08324e-05
4.0964e-05
4.49506e-05
3.73002e-05
4.6891e-05
4.56095e-05
4.55573e-05
4.5413e-05
4.65139e-05
1.66525e-05
1.75775e-05
8.93963e-06
-6.78112e-06
2.32568e-05
5.1516e-06
-2.47418e-06
1.92459e-05
3.14544e-06
2.62987e-06
9.03701e-06
1.20531e-05
9.60261e-06
2.52113e-05
6.00491e-05
4.65909e-05
3.90141e-05
5.36336e-05
4.03922e-05
4.56808e-05
4.86767e-05
2.05774e-05
2.56735e-05
3.94783e-05
1.72048e-05
1.39937e-05
2.01286e-05
1.20932e-05
1.60033e-05
1.58895e-05
2.07779e-05
2.18725e-05
3.49179e-05
4.19618e-05
3.25396e-05
4.4134e-05
4.16299e-05
3.66247e-05
4.32977e-05
4.45649e-05
1.84117e-05
1.76135e-05
1.7475e-05
-5.07369e-06
1.92369e-05
1.26602e-05
-2.82773e-06
2.09229e-05
1.10488e-05
2.95139e-06
1.76021e-05
1.73066e-05
1.10312e-05
2.04996e-05
5.07186e-05
4.74595e-05
3.47885e-05
4.87991e-05
3.77083e-05
3.81095e-05
5.11965e-05
2.60051e-05
2.06932e-05
3.85148e-05
2.26967e-05
1.43404e-05
2.30574e-05
1.31654e-05
1.51176e-05
2.08406e-05
2.00371e-05
2.07562e-05
3.13933e-05
3.83324e-05
2.7714e-05
3.84671e-05
4.02895e-05
2.90058e-05
3.79225e-05
4.39917e-05
1.95496e-05
1.61425e-05
2.41231e-05
2.24009e-07
1.53351e-05
1.95818e-05
2.01e-07
1.77259e-05
1.9984e-05
4.26014e-06
1.90656e-05
2.44412e-05
1.41565e-05
1.79575e-05
4.22124e-05
4.54732e-05
3.32705e-05
4.44998e-05
3.71825e-05
3.10731e-05
4.9825e-05
3.41059e-05
1.74765e-05
3.47081e-05
2.79862e-05
1.41247e-05
2.52742e-05
1.79427e-05
1.23662e-05
2.3911e-05
2.18818e-05
1.70641e-05
2.79164e-05
3.65916e-05
2.41322e-05
3.02016e-05
3.92714e-05
2.53107e-05
2.92802e-05
4.17754e-05
2.1987e-05
1.3779e-05
2.72712e-05
7.2599e-06
1.15142e-05
2.38837e-05
6.94698e-06
1.28479e-05
2.67739e-05
1.06413e-05
1.57826e-05
2.94363e-05
2.07648e-05
1.69074e-05
3.46518e-05
4.14545e-05
3.23674e-05
4.13248e-05
3.7711e-05
2.56558e-05
4.49996e-05
4.18447e-05
1.76975e-05
3.02202e-05
3.32538e-05
1.5423e-05
2.55384e-05
2.51271e-05
9.91878e-06
2.19433e-05
2.71663e-05
1.39429e-05
2.13624e-05
3.58015e-05
2.36232e-05
2.09006e-05
3.49906e-05
2.66955e-05
2.15073e-05
3.51398e-05
2.52341e-05
1.29813e-05
2.5823e-05
1.4332e-05
9.96585e-06
2.4908e-05
1.41056e-05
9.95898e-06
2.87753e-05
1.98584e-05
1.25505e-05
2.83029e-05
2.84213e-05
1.88335e-05
2.83049e-05
3.70463e-05
3.209e-05
3.92608e-05
3.89022e-05
2.35262e-05
3.87543e-05
4.64627e-05
2.18625e-05
2.69456e-05
3.62473e-05
1.76781e-05
2.38326e-05
3.11786e-05
1.17348e-05
1.7413e-05
2.97227e-05
1.49162e-05
1.40053e-05
3.14212e-05
2.52415e-05
1.37896e-05
2.62714e-05
2.92188e-05
1.84553e-05
2.51442e-05
2.69349e-05
1.62718e-05
2.18326e-05
1.88311e-05
1.25545e-05
2.45227e-05
1.9253e-05
1.24553e-05
2.81578e-05
2.70743e-05
1.36834e-05
2.45166e-05
3.32855e-05
2.38694e-05
2.41004e-05
3.25723e-05
3.25075e-05
3.80423e-05
3.89081e-05
2.48562e-05
3.49841e-05
4.63014e-05
2.78227e-05
2.78596e-05
3.60438e-05
2.1669e-05
2.42271e-05
3.19781e-05
1.66854e-05
1.55664e-05
2.60752e-05
1.72917e-05
1.06643e-05
2.25131e-05
2.41709e-05
1.1115e-05
1.67208e-05
2.85346e-05
1.91748e-05
1.58545e-05
2.53126e-05
2.11287e-05
1.74471e-05
1.91972e-05
1.77289e-05
-0.00123868
-0.00109969
-0.000486316
-0.000193547
-0.000195421
-0.000433339
-0.00065139
-0.000524144
7.70704e-05
0.000260568
-0.000278805
-0.000289808
0.000268904
0.000554647
0.000236167
-0.000204588
-0.000421455
3.70233e-06
0.000358812
0.000458599
0.000121555
-0.000265777
-0.000333653
2.95816e-05
7.81188e-05
-0.000341845
-0.000599567
7.36499e-05
0.000610818
0.000450263
-0.000202379
-0.00058531
-0.00056382
-0.000404287
-0.000252487
-0.000831691
-0.000940353
-0.000484892
-0.000122895
-0.000626413
-0.0012567
-0.00111488
-0.000495321
-0.000201064
-0.000204604
-0.000446961
-0.000660143
-0.000526217
7.07711e-05
0.000248869
-0.000289799
-0.000294624
0.000267313
0.000547195
0.000224398
-0.000218574
-0.000436807
-5.53911e-06
0.00034774
0.000440567
0.000100405
-0.000283424
-0.000343224
1.78154e-05
5.79363e-05
-0.000361733
-0.000613541
6.42991e-05
0.000598264
0.000432882
-0.000215027
-0.000594323
-0.000569865
-0.000410926
-0.000260567
-0.000841979
-0.000950057
-0.000489245
-0.000131922
-0.000637513
-0.00129422
-0.00114521
-0.000513927
-0.000215224
-0.00022366
-0.000469297
-0.000700444
-0.000552405
5.85894e-05
0.0002337
-0.000319314
-0.000314025
0.000262527
0.000544276
0.00019699
-0.000252837
-0.000455425
-2.19239e-05
0.000330503
0.000410557
5.87891e-05
-0.000333606
-0.000378134
6.109e-07
2.98593e-05
-0.000409138
-0.000656463
3.96198e-05
0.000583195
0.000398728
-0.000253622
-0.000619832
-0.000584144
-0.00042562
-0.000277587
-0.000869219
-0.000974255
-0.000506219
-0.000158529
-0.000666959
-0.00135256
-0.00119936
-0.00055002
-0.000241983
-0.000245074
-0.000511203
-0.000759341
-0.00060692
2.91014e-05
0.000189783
-0.000370577
-0.000356668
0.000230688
0.000519887
0.000154739
-0.000324795
-0.000533813
-7.05442e-05
0.000296956
0.000359783
-2.50125e-05
-0.00043347
-0.000456729
-4.08442e-05
-1.82974e-05
-0.000471232
-0.000737791
-1.49827e-05
0.000541886
0.000333262
-0.000322032
-0.000666932
-0.000602696
-0.000453965
-0.000308972
-0.00091185
-0.00104866
-0.000549063
-0.000184837
-0.000694714
-0.00133712
-0.00124177
-0.000597716
-0.000293867
-0.000314975
-0.000596644
-0.000897439
-0.000743043
-6.56072e-05
0.000146851
-0.000466251
-0.000466474
0.000128082
0.000426434
3.09275e-05
-0.000446721
-0.000655061
-0.000190792
0.000184399
0.000232304
-0.000162897
-0.000605599
-0.00062988
-0.000145647
-9.00376e-05
-0.000570439
-0.000831173
-0.000133012
0.000459501
0.00021895
-0.000422851
-0.000734821
-0.000665868
-0.000529612
-0.000417956
-0.000992673
-0.00110466
-0.000612164
-0.000262055
-0.000697085
-0.00143131
-0.00135907
-0.000738306
-0.000440504
-0.000451783
-0.000745127
-0.00108768
-0.00094705
-0.00026806
-2.41737e-05
-0.000629453
-0.000680717
-0.000105074
0.000238261
-0.00017331
-0.000678659
-0.000894189
-0.000420808
-2.81558e-05
-6.94224e-08
-0.000388534
-0.000847795
-0.000861528
-0.000303002
-0.000240693
-0.000730857
-0.000997603
-0.000261535
0.000336475
7.20602e-05
-0.000605773
-0.000914202
-0.000817652
-0.000732228
-0.000653311
-0.00121935
-0.00133794
-0.00073558
-0.000378295
-0.000777591
-0.0016088
-0.00167593
-0.00105167
-0.000741021
-0.000761974
-0.000945493
-0.00129101
-0.00115815
-0.000501665
-0.000209314
-0.000827537
-0.000925447
-0.000402817
-5.14589e-05
-0.000399466
-0.000884473
-0.00115653
-0.000716533
-0.000324546
-0.000297694
-0.000668034
-0.00113766
-0.00117921
-0.000606945
-0.000496431
-0.0010258
-0.00126594
-0.000563078
0.000120121
-0.000116277
-0.000822011
-0.00117101
-0.00106499
-0.00102178
-0.000981294
-0.00155051
-0.00166814
-0.00102837
-0.000667306
-0.00101065
-0.00187986
-0.00196998
-0.0014108
-0.0010362
-0.000932312
-0.00105928
-0.00138884
-0.00131887
-0.000697232
-0.000370575
-0.000948594
-0.00108283
-0.000618741
-0.000283034
-0.000580517
-0.00104727
-0.00133611
-0.000996778
-0.000633538
-0.000545496
-0.000900815
-0.00137201
-0.0014604
-0.000953949
-0.000852071
-0.00133372
-0.00155652
-0.000867118
-0.000118723
-0.000318239
-0.00101919
-0.00138839
-0.00130377
-0.00128015
-0.00129466
-0.00177439
-0.00190951
-0.00128652
-0.000918457
-0.00124072
-0.00182507
-0.00199157
-0.00152875
-0.00116873
-0.00103154
-0.00105101
-0.00133875
-0.00135291
-0.00083256
-0.000461517
-0.000921867
-0.00107604
-0.000682386
-0.0003658
-0.000620856
-0.00110763
-0.00143273
-0.00116996
-0.000807565
-0.000734688
-0.00101322
-0.00144425
-0.0015961
-0.00121077
-0.00105331
-0.00148724
-0.00173338
-0.0011186
-0.000329657
-0.000413022
-0.00103601
-0.00141129
-0.00135934
-0.00138573
-0.00142266
-0.00178887
-0.00188636
-0.00126698
-0.000934079
-0.00124046
-0.00157054
-0.00174874
-0.00138251
-0.00105793
-0.000903559
-0.000913249
-0.00116247
-0.00124901
-0.000884222
-0.000493265
-0.000832056
-0.000987485
-0.000644869
-0.00036598
-0.000548206
-0.00101481
-0.00138049
-0.00125001
-0.000916019
-0.000772288
-0.000989088
-0.00140463
-0.00158447
-0.00128459
-0.00110303
-0.00143655
-0.00169367
-0.00117568
-0.000412287
-0.000378181
-0.000897314
-0.00124906
-0.00124542
-0.00129346
-0.00137431
-0.00162607
-0.00167034
-0.00108773
-0.000791283
-0.00105255
-0.00120138
-0.00134051
-0.00108127
-0.000854332
-0.000760085
-0.000772563
-0.00100078
-0.00110901
-0.000862119
-0.000549254
-0.000750369
-0.000904824
-0.000615496
-0.000342481
-0.000435849
-0.000816902
-0.00118597
-0.0011694
-0.000876568
-0.000742364
-0.000856748
-0.00118373
-0.00139497
-0.00119428
-0.000999279
-0.00122659
-0.0014754
-0.0010589
-0.000355528
-0.000245539
-0.000672809
-0.000983916
-0.00100001
-0.00105406
-0.00117023
-0.00136682
-0.00142267
-0.000928004
-0.000622341
-0.000823616
-0.000861622
-0.00097079
-0.000768965
-0.000655266
-0.000616638
-0.000644788
-0.000862566
-0.0010076
-0.000833197
-0.000574755
-0.000689165
-0.000821182
-0.000583914
-0.000327312
-0.000317021
-0.000560074
-0.000886281
-0.000933181
-0.000743986
-0.000602324
-0.000670102
-0.000893545
-0.00109974
-0.00100366
-0.000832764
-0.00099544
-0.00123881
-0.000947224
-0.00030788
-0.00013459
-0.000459421
-0.000693661
-0.000704522
-0.000718614
-0.00085371
-0.00104734
-0.00114001
-0.000770814
-0.00044812
-0.000587182
-0.000669412
-0.000764395
-0.000625398
-0.000601426
-0.000599852
-0.000622203
-0.000793097
-0.000915852
-0.000762867
-0.000540907
-0.000581359
-0.000676879
-0.000506467
-0.000295925
-0.000244479
-0.00038862
-0.00066557
-0.000731931
-0.000621163
-0.000486745
-0.000528202
-0.000672237
-0.000850715
-0.000834955
-0.000706266
-0.000818683
-0.00105377
-0.000891597
-0.000358734
-0.000158052
-0.000356231
-0.000507603
-0.00051932
-0.000516543
-0.000649
-0.000810692
-0.000945406
-0.000706816
-0.000417546
-0.000487732
-0.000562833
-0.000633792
-0.000555383
-0.000580367
-0.000602751
-0.000613676
-0.000695832
-0.000732454
-0.00059221
-0.000391041
-0.000386584
-0.000448302
-0.000356742
-0.000233961
-0.000207716
-0.000310291
-0.000515523
-0.000593409
-0.000530209
-0.000379499
-0.000383
-0.000483718
-0.000626402
-0.000655033
-0.00056541
-0.000625767
-0.000811759
-0.00072171
-0.00031466
-0.000136769
-0.000239059
-0.000349563
-0.00039001
-0.000411293
-0.000532192
-0.000671755
-0.000813706
-0.000674871
-0.000439692
-0.000434989
-0.000409453
-0.000445193
-0.000410258
-0.00045624
-0.000512455
-0.000494137
-0.000500704
-0.000481943
-0.000360083
-0.000202356
-0.000177903
-0.000227744
-0.000200166
-0.000168013
-0.000169559
-0.000238551
-0.00037326
-0.00042386
-0.00038433
-0.00026786
-0.00025787
-0.000325754
-0.000424437
-0.000476713
-0.000413063
-0.000438581
-0.000572089
-0.000529682
-0.000229543
-6.18787e-05
-0.000113375
-0.000188243
-0.000241512
-0.000294845
-0.000425021
-0.000548536
-0.000666246
-0.000594062
-0.000383117
-0.000336253
-0.000313576
-0.000337847
-0.000309308
-0.000367416
-0.000428991
-0.00039394
-0.000377467
-0.000340895
-0.000224067
-9.03778e-05
-5.48828e-05
-9.51505e-05
-9.65246e-05
-0.00011162
-0.00012759
-0.000167592
-0.000246451
-0.000285999
-0.000280825
-0.000200616
-0.000173357
-0.000208502
-0.000281291
-0.000346577
-0.000311593
-0.000306293
-0.000388003
-0.000377611
-0.000155935
-5.00943e-06
-2.19311e-05
-5.77097e-05
-0.000115541
-0.000172998
-0.000311014
-0.000408037
-0.000508015
-0.000486058
-0.000318055
-0.000267974
-0.000235422
-0.000242534
-0.000225666
-0.000280829
-0.000347712
-0.000313535
-0.000283181
-0.000240561
-0.000138719
-3.25741e-05
-4.33447e-06
-2.48998e-05
-2.69791e-05
-6.03023e-05
-8.75749e-05
-0.000100003
-0.000145562
-0.000186022
-0.000199988
-0.000155437
-0.000118171
-0.000127893
-0.000179002
-0.000247871
-0.000235372
-0.000215486
-0.000255829
-0.000257197
-0.0001082
1.72538e-05
3.38622e-05
2.60422e-05
-2.88034e-05
-8.10017e-05
-0.000208645
-0.000291572
-0.000367368
-0.000376763
-0.000250509
-0.000205434
-0.000177902
-0.000180912
-0.000167341
-0.000210402
-0.000281519
-0.00024842
-0.000210064
-0.000174727
-8.57665e-05
-2.28503e-06
2.17417e-05
1.25084e-05
1.82954e-05
-1.60401e-05
-5.20496e-05
-5.01569e-05
-7.61163e-05
-0.000116494
-0.000141326
-0.000119634
-8.52647e-05
-7.37401e-05
-0.000106083
-0.000171256
-0.000176739
-0.000155848
-0.00016715
-0.000172034
-7.28471e-05
2.99428e-05
6.48129e-05
8.06895e-05
2.88212e-05
-1.44916e-05
-0.00012877
-0.000208948
-0.000258066
-0.000279389
-0.000189141
-0.000156872
-0.000140043
-0.000135365
-0.000122288
-0.000151057
-0.000219252
-0.000191891
-0.000150403
-0.000120591
-4.57997e-05
1.71961e-05
3.87669e-05
3.52946e-05
4.48062e-05
1.81273e-05
-2.30815e-05
-1.91287e-05
-2.62994e-05
-6.09864e-05
-9.41319e-05
-9.13646e-05
-6.16654e-05
-3.99743e-05
-5.64591e-05
-0.000109854
-0.000128169
-0.000112868
-0.000106731
-0.000106575
-4.281e-05
3.94595e-05
8.20383e-05
0.00011154
6.82658e-05
3.16511e-05
-6.93962e-05
-0.000149358
-0.000178505
-0.000201538
-0.000135696
-0.000119005
-0.000112901
-0.000100725
-8.8039e-05
-0.000103892
-0.00016574
-0.000145395
-0.000103464
-8.21125e-05
-1.94879e-05
2.51419e-05
4.42126e-05
4.90561e-05
5.59122e-05
4.00294e-05
-9.19056e-07
1.11179e-06
7.08724e-06
-1.86422e-05
-5.83439e-05
-6.98156e-05
-4.70108e-05
-2.1984e-05
-2.66151e-05
-6.52185e-05
-8.84789e-05
-8.12345e-05
-6.67207e-05
-5.98261e-05
-1.93195e-05
4.44631e-05
8.49297e-05
0.000121022
8.83174e-05
6.0514e-05
-2.39821e-05
-0.000105315
-0.000122666
-0.000143199
-9.19072e-05
-8.88798e-05
-9.29028e-05
-7.38024e-05
-6.22786e-05
-6.95148e-05
-0.000121619
-0.000107425
-6.59975e-05
-5.488e-05
-2.30492e-06
2.62301e-05
4.02945e-05
5.6648e-05
6.05266e-05
5.3002e-05
1.56457e-05
1.25969e-05
2.5268e-05
1.07117e-05
-2.87961e-05
-5.29238e-05
-3.73474e-05
-1.19946e-05
-1.15029e-05
-3.47272e-05
-5.59032e-05
-5.52905e-05
-4.06046e-05
-2.82393e-05
-2.87947e-06
4.55773e-05
8.12287e-05
0.000118251
9.47924e-05
7.46589e-05
1.01419e-05
-7.10521e-05
-8.1074e-05
-0.000101675
-5.95638e-05
-6.22525e-05
-7.66128e-05
-5.32912e-05
-4.24707e-05
-4.47359e-05
-8.50136e-05
-7.83489e-05
-3.89883e-05
-3.63014e-05
9.36816e-06
2.68412e-05
3.25872e-05
5.87501e-05
5.99943e-05
5.83987e-05
2.76306e-05
1.82396e-05
3.14835e-05
2.7454e-05
-4.95575e-06
-3.77596e-05
-2.96274e-05
-6.5269e-06
-4.04439e-06
-1.60204e-05
-3.09924e-05
-3.60211e-05
-2.35439e-05
-6.8007e-06
7.54366e-06
4.32539e-05
7.31821e-05
0.00010747
9.21807e-05
7.76505e-05
3.44577e-05
-4.31274e-05
-5.01879e-05
-7.36872e-05
-4.01487e-05
-3.83457e-05
-6.136e-05
-3.78429e-05
-2.71061e-05
-2.80145e-05
-5.56153e-05
-5.75061e-05
-2.02711e-05
-2.29277e-05
1.73162e-05
3.10792e-05
2.3758e-05
5.51366e-05
5.78955e-05
5.78802e-05
3.76173e-05
2.11219e-05
3.12987e-05
3.52369e-05
1.16898e-05
-2.3975e-05
-2.25038e-05
-1.67676e-06
-2.00914e-06
-6.23389e-06
-1.28228e-05
-2.08562e-05
-1.17602e-05
7.27305e-06
1.35565e-05
3.88639e-05
6.38376e-05
9.30703e-05
8.64202e-05
7.4651e-05
4.98443e-05
-2.0352e-05
-2.72871e-05
-5.19495e-05
-3.03311e-05
-1.83365e-05
-4.66044e-05
-2.62702e-05
-1.39262e-05
-1.79535e-05
-3.25502e-05
-4.13337e-05
-7.82947e-06
-1.28011e-05
1.99822e-05
3.85623e-05
1.76853e-05
4.77482e-05
5.49703e-05
5.2577e-05
4.57445e-05
2.36378e-05
2.65335e-05
3.65987e-05
2.11401e-05
-1.07988e-05
-1.44695e-05
3.11364e-06
-5.5396e-08
-1.81531e-06
-9.8364e-08
-8.51595e-06
-5.14015e-06
1.57851e-05
1.74452e-05
3.33616e-05
5.56162e-05
7.74201e-05
7.81155e-05
6.84895e-05
5.66274e-05
-1.94197e-06
-1.00517e-05
-3.30646e-05
-2.63791e-05
-4.3145e-06
-3.1982e-05
-1.77247e-05
-1.74981e-06
-1.24177e-05
-1.49894e-05
-2.71944e-05
-7.89547e-07
-3.85151e-06
1.84708e-05
4.65036e-05
1.65409e-05
3.80871e-05
5.27882e-05
4.43699e-05
5.05455e-05
2.88246e-05
2.1097e-05
3.59583e-05
2.66422e-05
1.11557e-06
-6.88851e-06
6.60018e-06
3.43478e-06
-8.51239e-07
6.50482e-06
1.08547e-06
-3.71558e-07
2.08511e-05
2.14255e-05
2.90255e-05
4.98495e-05
6.23203e-05
6.71819e-05
6.26589e-05
5.68093e-05
1.09325e-05
7.61888e-07
-1.64625e-05
-2.25318e-05
4.58899e-06
-1.83844e-05
-1.23611e-05
9.09207e-06
-8.41081e-06
-3.8784e-06
-1.31817e-05
2.46604e-06
4.78505e-06
1.52698e-05
5.07721e-05
2.12393e-05
2.82552e-05
5.07341e-05
3.67423e-05
5.04373e-05
3.58569e-05
1.64013e-05
3.35168e-05
3.04698e-05
1.02058e-05
1.34179e-06
8.50433e-06
7.18625e-06
8.5583e-07
8.87715e-06
8.13715e-06
3.8044e-06
2.28874e-05
2.48852e-05
2.5308e-05
4.49553e-05
5.03671e-05
5.43833e-05
5.7772e-05
5.33555e-05
1.80571e-05
8.27008e-06
-2.13693e-06
-1.69501e-05
9.37625e-06
-6.65163e-06
-1.01595e-05
1.74956e-05
-2.47675e-06
9.63668e-07
1.07801e-06
5.14396e-06
1.06381e-05
1.28103e-05
4.99627e-05
3.07848e-05
2.19766e-05
4.72414e-05
3.21349e-05
4.43446e-05
4.36458e-05
1.60434e-05
2.84427e-05
3.285e-05
1.53169e-05
8.48275e-06
1.15461e-05
1.02258e-05
5.02902e-06
9.46738e-06
1.15664e-05
8.44741e-06
2.31312e-05
2.74169e-05
2.26952e-05
4.10224e-05
4.42257e-05
4.09902e-05
5.10065e-05
4.92142e-05
2.02011e-05
1.36837e-05
9.38541e-06
-1.01149e-05