/*--------------------------------*- C++ -*----------------------------------*\
  =========                 |
  \\      /  F ield         | OpenFOAM: The Open Source CFD Toolbox
   \\    /   O peration     | Website:  https://openfoam.org
    \\  /    A nd           | Version:  10
     \\/     M anipulation  |
\*---------------------------------------------------------------------------*/
FoamFile
{
    format      ascii;
    class       surfaceScalarField;
    location    "1";
    object      phi;
}
// * * * * * * * * * * * * * * * * * * * * * * * * * * * * * * * * * * * * * //

dimensions      [0 3 -1 0 0 0 0];

internalField   nonuniform List<scalar> 
74080
(
3.66972e-06
4.37613e-07
-1.44771e-06
3.93864e-06
9.41179e-08
2.60365e-06
3.80153e-06
-2.51173e-07
2.67924e-06
3.38376e-06
-7.23257e-07
-4.44289e-07
3.33525e-06
-2.92694e-07
-2.69807e-06
3.59784e-06
7.63616e-07
-1.54423e-06
3.88378e-06
3.38623e-07
2.41364e-06
3.85657e-06
-2.02237e-07
2.64253e-06
3.34507e-06
-5.67749e-07
-5.71621e-07
3.37099e-06
-2.16591e-07
-3.20413e-06
3.7169e-06
3.97095e-07
-1.23659e-06
3.84998e-06
4.73143e-07
2.45709e-06
3.75622e-06
-2.01262e-07
2.49396e-06
3.30546e-06
-5.46417e-07
-4.64947e-07
3.33001e-06
-4.61291e-07
-2.89924e-06
3.67638e-06
5.71241e-07
-1.46608e-06
3.90682e-06
1.93043e-07
2.36273e-06
3.84521e-06
-3.0222e-07
2.4187e-06
3.38735e-06
-8.89001e-07
-1.67482e-07
3.32141e-06
-2.40109e-07
-2.84402e-06
3.60598e-06
5.14352e-07
-1.37062e-06
3.85445e-06
4.26979e-07
2.63622e-06
3.81804e-06
-3.06499e-07
2.48368e-06
3.36355e-06
-7.14803e-07
-2.53675e-07
3.27103e-06
5.96906e-09
-2.81383e-06
3.58698e-06
7.4303e-07
-1.46398e-06
3.90441e-06
1.05967e-07
2.49872e-06
3.73211e-06
-2.07942e-07
2.77693e-06
3.26618e-06
-6.71016e-07
-6.33431e-07
3.27606e-06
-3.30006e-07
-3.05257e-06
3.63548e-06
7.09598e-07
-1.55344e-06
3.89543e-06
2.11455e-07
2.4364e-06
3.77476e-06
-1.39147e-07
2.52382e-06
3.27504e-06
-5.82801e-07
-3.94253e-07
3.31976e-06
-3.45368e-07
-3.01663e-06
3.72396e-06
3.93678e-07
-1.29141e-06
3.85336e-06
4.07945e-07
2.33262e-06
3.71727e-06
-9.39522e-08
2.57481e-06
3.2607e-06
-5.60414e-07
-7.51456e-07
-2.36407e-07
-3.00986e-06
1.22406e-05
7.40533e-07
-5.00034e-06
1.32689e-05
-3.20038e-07
8.15893e-06
1.28522e-05
-8.97295e-07
9.25106e-06
1.11926e-05
-1.57288e-06
-1.42029e-06
1.08495e-05
-5.03754e-07
-9.38219e-06
1.19991e-05
2.08185e-06
-5.25717e-06
1.30652e-05
6.33926e-07
7.65639e-06
1.30308e-05
-8.69711e-07
9.2443e-06
1.10725e-05
-1.09325e-06
-1.676e-06
1.09838e-05
-2.36739e-07
-1.09954e-05
1.24037e-05
4.75734e-07
-4.20866e-06
1.29936e-05
1.12768e-06
7.84474e-06
1.26994e-05
-7.03704e-07
8.67035e-06
1.09132e-05
-7.51694e-07
-1.55395e-06
1.08288e-05
-1.18527e-06
-1.00569e-05
1.22561e-05
1.25377e-06
-4.99492e-06
1.31659e-05
-4.97739e-08
7.50917e-06
1.29967e-05
-1.12053e-06
8.44787e-06
1.1192e-05
-2.22793e-06
-5.64143e-07
1.08094e-05
-2.9697e-07
-9.84652e-06
1.20154e-05
1.08287e-06
-4.73664e-06
1.30031e-05
9.56923e-07
8.3618e-06
1.29119e-05
-1.14472e-06
8.65362e-06
1.1087e-05
-1.37443e-06
-8.5429e-07
1.06392e-05
6.82679e-07
-9.81202e-06
1.19796e-05
1.91495e-06
-4.9729e-06
1.31518e-05
-2.59265e-07
7.87541e-06
1.26267e-05
-7.2529e-07
9.60247e-06
1.07645e-05
-1.20774e-06
-2.10487e-06
1.06114e-05
-6.04883e-07
-1.06221e-05
1.21272e-05
1.64213e-06
-5.17692e-06
1.31363e-05
-2.91887e-08
7.81364e-06
1.2771e-05
-5.67176e-07
8.80197e-06
1.08329e-05
-1.10786e-06
-1.17755e-06
1.08063e-05
-7.43662e-07
-1.03972e-05
1.2418e-05
5.59263e-07
-4.48662e-06
1.29704e-05
1.02084e-06
7.3193e-06
1.2562e-05
-2.87673e-07
8.98753e-06
1.0773e-05
-9.93424e-07
-2.37828e-06
-3.23909e-07
-1.03921e-05
2.25496e-05
-3.62266e-07
-1.01969e-05
2.47207e-05
-1.96983e-06
1.38207e-05
2.40001e-05
-1.49156e-06
1.76466e-05
2.05084e-05
-8.58543e-07
-1.93482e-06
1.9537e-05
5.82598e-08
-1.77954e-05
2.21154e-05
2.75226e-06
-1.0546e-05
2.43212e-05
1.57558e-07
1.31116e-05
2.43381e-05
-1.77981e-06
1.78025e-05
2.02848e-05
4.22603e-08
-2.1111e-06
1.97837e-05
5.38742e-07
-2.06844e-05
2.28857e-05
-1.29033e-06
-8.51363e-06
2.42423e-05
1.28038e-06
1.35115e-05
2.37301e-05
-1.12747e-06
1.66117e-05
1.99425e-05
1.32507e-06
-2.30272e-06
1.94535e-05
-1.52484e-06
-1.90345e-05
2.25761e-05
7.38171e-07
-1.00853e-05
2.45319e-05
-1.47092e-06
1.28329e-05
2.42565e-05
-2.09238e-06
1.62376e-05
2.04684e-05
-2.2354e-06
-5.0819e-07
1.94411e-05
5.19617e-07
-1.85849e-05
2.21298e-05
4.89416e-07
-9.72376e-06
2.4257e-05
8.89944e-07
1.44015e-05
2.41171e-05
-2.20741e-06
1.66662e-05
2.02723e-05
-2.28656e-08
-1.15e-06
1.91284e-05
2.87286e-06
-1.86892e-05
2.20582e-05
2.1593e-06
-9.97146e-06
2.44902e-05
-1.81315e-06
1.34045e-05
2.35885e-05
-1.06877e-06
1.83448e-05
1.96519e-05
2.93326e-07
-3.17889e-06
1.90057e-05
-1.22668e-07
-2.00959e-05
2.23223e-05
1.33177e-06
-1.03085e-05
2.44925e-05
-1.59705e-06
1.34393e-05
2.3885e-05
-1.00049e-06
1.68611e-05
1.98485e-05
6.45634e-08
-1.38136e-06
1.9446e-05
-5.83081e-07
-1.95172e-05
2.28818e-05
-8.96048e-07
-9.1918e-06
2.41481e-05
1.26626e-06
1.24027e-05
2.34319e-05
-1.10126e-07
1.7312e-05
1.97116e-05
4.05174e-07
-3.65209e-06
3.68932e-07
-1.95687e-05
3.42555e-05
-4.3716e-06
-1.75934e-05
3.81327e-05
-5.79093e-06
1.8677e-05
3.7104e-05
-1.40566e-06
2.78625e-05
3.10499e-05
3.58102e-06
-1.29155e-06
2.89161e-05
2.35562e-06
-2.77295e-05
3.36502e-05
1.27701e-06
-1.79841e-05
3.75153e-05
-2.0899e-06
1.79566e-05
3.76581e-05
-2.57962e-06
2.83201e-05
3.07275e-05
4.90468e-06
-1.06405e-06
2.9295e-05
2.9056e-06
-3.19149e-05
3.48548e-05
-6.77426e-06
-1.46615e-05
3.7467e-05
1.2992e-08
1.86148e-05
3.67478e-05
-9.6419e-07
2.62862e-05
3.0084e-05
8.21862e-06
-2.0488e-06
2.86703e-05
-5.17276e-07
-2.95892e-05
3.43076e-05
-2.5845e-06
-1.73126e-05
3.78492e-05
-4.8839e-06
1.74715e-05
3.74624e-05
-2.67215e-06
2.5779e-05
3.08982e-05
1.59781e-06
4.63792e-07
2.86957e-05
3.16197e-06
-2.87847e-05
3.36221e-05
-2.67423e-06
-1.70238e-05
3.7504e-05
-7.54359e-07
1.99338e-05
3.73077e-05
-3.12015e-06
2.65895e-05
3.0655e-05
5.96529e-06
-7.11378e-07
2.82499e-05
7.81145e-06
-2.92633e-05
3.34593e-05
-3.04995e-07
-1.69288e-05
3.77503e-05
-5.497e-06
1.82189e-05
3.64751e-05
-5.43249e-07
2.90144e-05
2.96584e-05
6.21562e-06
-3.04114e-06
2.7952e-05
2.08456e-06
-3.10929e-05
3.38503e-05
-1.98394e-06
-1.75016e-05
3.7813e-05
-5.61303e-06
1.84529e-05
3.70163e-05
-1.04666e-06
2.66477e-05
3.01134e-05
4.98021e-06
-3.18225e-07
2.87758e-05
1.01749e-06
-2.99033e-05
3.478e-05
-5.7132e-06
-1.59281e-05
3.7246e-05
3.24221e-07
1.67982e-05
3.61806e-05
1.04163e-06
2.76286e-05
2.98302e-05
5.86173e-06
-3.87596e-06
2.68521e-06
-3.01255e-05
4.65809e-05
-1.28021e-05
-2.6734e-05
5.2863e-05
-1.2852e-05
2.16649e-05
5.16215e-05
-2.76148e-07
3.93208e-05
4.2205e-05
1.40591e-05
8.55984e-07
3.81634e-05
7.59432e-06
-3.83697e-05
4.58853e-05
-3.97047e-06
-2.74193e-05
5.20789e-05
-7.46794e-06
2.12465e-05
5.24789e-05
-3.13728e-06
4.01487e-05
4.19667e-05
1.54826e-05
2.0019e-06
3.88012e-05
7.89367e-06
-4.33823e-05
4.75009e-05
-1.76295e-05
-2.25879e-05
5.20794e-05
-3.86899e-06
2.20675e-05
5.12862e-05
8.1115e-08
3.70612e-05
4.07377e-05
2.22715e-05
-2.59297e-07
3.76524e-05
3.20188e-06
-4.07657e-05
4.67029e-05
-1.04724e-05
-2.63101e-05
5.24854e-05
-1.09986e-05
2.0401e-05
5.20106e-05
-2.38432e-06
3.65133e-05
4.185e-05
1.20515e-05
2.41469e-06
3.77162e-05
8.82405e-06
-3.95099e-05
4.57113e-05
-9.80463e-06
-2.65735e-05
5.22183e-05
-5.4172e-06
2.39274e-05
5.19749e-05
-3.81843e-06
3.78963e-05
4.17108e-05
1.90675e-05
6.83509e-07
3.72402e-05
1.70775e-05
-4.06514e-05
4.53616e-05
-7.65293e-06
-2.53356e-05
5.2282e-05
-1.24484e-05
2.12932e-05
5.07577e-05
1.27475e-06
4.1027e-05
4.03114e-05
1.90343e-05
-1.09898e-06
3.67286e-05
7.29609e-06
-4.24014e-05
4.58655e-05
-1.01803e-05
-2.62608e-05
5.24367e-05
-1.33886e-05
2.18804e-05
5.1671e-05
-6.27529e-07
3.7543e-05
4.12739e-05
1.54431e-05
2.42148e-06
3.8112e-05
5.35288e-06
-4.01684e-05
4.72856e-05
-1.57103e-05
-2.43057e-05
5.1717e-05
-3.10886e-06
1.97795e-05
5.03188e-05
3.31232e-06
3.94681e-05
4.06914e-05
1.774e-05
-2.50024e-06
7.64068e-06
-4.07835e-05
5.8368e-05
-2.67084e-05
-3.46777e-05
6.7676e-05
-2.37533e-05
2.20288e-05
6.65091e-05
8.29191e-07
5.039e-05
5.31957e-05
3.10721e-05
4.13208e-06
4.65492e-05
1.61952e-05
-4.72514e-05
5.76852e-05
-1.43662e-05
-3.67903e-05
6.68968e-05
-1.7207e-05
2.22668e-05
6.77928e-05
-4.46148e-06
5.14407e-05
5.37402e-05
3.14444e-05
6.69838e-06
4.78108e-05
1.59454e-05
-5.13589e-05
5.93606e-05
-3.34574e-05
-3.12189e-05
6.68671e-05
-1.13572e-05
2.28219e-05
6.63715e-05
1.41585e-06
4.72173e-05
5.13992e-05
4.35881e-05
3.22985e-06
4.59623e-05
1.06001e-05
-4.95641e-05
5.86478e-05
-2.42357e-05
-3.44073e-05
6.71868e-05
-1.97363e-05
2.08217e-05
6.66795e-05
-1.4158e-06
4.69902e-05
5.26158e-05
3.02639e-05
4.74715e-06
4.58074e-05
1.79362e-05
-4.81323e-05
5.7114e-05
-2.20997e-05
-3.59466e-05
6.73136e-05
-1.49288e-05
2.55913e-05
6.70782e-05
-5.36343e-06
4.90266e-05
5.28696e-05
3.98449e-05
2.94907e-06
4.55885e-05
3.13612e-05
-5.01632e-05
5.65362e-05
-2.12256e-05
-3.3242e-05
6.68576e-05
-2.32731e-05
2.17518e-05
6.54149e-05
3.36088e-06
5.26852e-05
5.11972e-05
3.84067e-05
2.56553e-06
4.49648e-05
1.63957e-05
-5.11695e-05
5.70741e-05
-2.43726e-05
-3.38842e-05
6.7002e-05
-2.55945e-05
2.29136e-05
6.67993e-05
-8.36348e-07
4.79744e-05
5.30777e-05
3.12112e-05
6.47955e-06
4.69487e-05
1.37074e-05
-4.73868e-05
5.89738e-05
-3.17422e-05
-3.20415e-05
6.65485e-05
-1.09633e-05
2.12862e-05
6.49785e-05
4.99246e-06
5.13285e-05
5.1892e-05
3.61062e-05
6.26981e-07
1.54467e-05
-4.85157e-05
6.82003e-05
-4.34369e-05
-3.69115e-05
7.99701e-05
-3.6444e-05
1.99566e-05
7.94008e-05
-5.14471e-07
5.69054e-05
6.35461e-05
5.17144e-05
6.0059e-06
5.51225e-05
2.50828e-05
-4.99355e-05
6.77585e-05
-2.86122e-05
-4.12887e-05
7.96444e-05
-2.97708e-05
2.08847e-05
8.14707e-05
-7.69733e-06
5.73508e-05
6.59466e-05
4.86732e-05
1.09781e-05
5.68062e-05
2.51238e-05
-5.14793e-05
6.83414e-05
-4.9635e-05
-3.67874e-05
7.92497e-05
-2.17295e-05
2.11956e-05
7.99738e-05
1.26375e-06
5.28755e-05
6.26866e-05
6.64571e-05
7.5333e-06
5.51899e-05
2.01573e-05
-5.11858e-05
6.88737e-05
-4.13903e-05
-3.73689e-05
7.95223e-05
-2.88592e-05
1.90776e-05
7.89193e-05
-7.09224e-07
5.39977e-05
6.28997e-05
5.22865e-05
5.68357e-06
5.4019e-05
2.80338e-05
-5.11088e-05
6.66243e-05
-3.88803e-05
-3.9187e-05
8.05548e-05
-2.89308e-05
2.45361e-05
8.04822e-05
-9.14904e-06
5.63042e-05
6.38935e-05
6.32568e-05
5.32049e-06
5.43268e-05
4.67135e-05
-5.25286e-05
6.57917e-05
-3.76161e-05
-3.7364e-05
7.90315e-05
-3.5509e-05
1.96583e-05
7.85105e-05
2.78084e-06
5.97296e-05
6.22725e-05
5.93754e-05
6.44981e-06
5.37443e-05
2.76377e-05
-5.37231e-05
6.56315e-05
-4.04455e-05
-3.6935e-05
7.82014e-05
-3.92708e-05
2.13722e-05
7.99876e-05
-3.69351e-06
5.43436e-05
6.50025e-05
4.88261e-05
9.82174e-06
5.556e-05
2.56717e-05
-4.91847e-05
6.807e-05
-4.93585e-05
-3.60494e-05
7.97833e-05
-2.39002e-05
2.18138e-05
7.87736e-05
2.82539e-06
5.93066e-05
6.33624e-05
5.6591e-05
4.66154e-06
2.41975e-05
-5.01577e-05
7.52449e-05
-5.40236e-05
-3.44467e-05
8.55066e-05
-4.43508e-05
1.77496e-05
8.58537e-05
-3.59701e-06
5.39677e-05
7.27329e-05
6.66706e-05
5.62084e-06
6.56323e-05
3.02067e-05
-4.63744e-05
7.51503e-05
-3.93287e-05
-3.86615e-05
8.58856e-05
-3.87651e-05
1.9451e-05
8.88e-05
-1.13929e-05
5.31637e-05
7.64943e-05
5.93099e-05
1.1948e-05
6.72164e-05
3.12583e-05
-4.5434e-05
7.50638e-05
-5.87744e-05
-3.71559e-05
8.57438e-05
-3.0047e-05
1.94952e-05
8.78264e-05
-3.0583e-07
5.01395e-05
7.36536e-05
8.08879e-05
1.04663e-05
6.60643e-05
2.84733e-05
-4.63378e-05
7.63251e-05
-5.43323e-05
-3.53247e-05
8.58666e-05
-3.38534e-05
1.76049e-05
8.55059e-05
-8.09381e-07
5.32101e-05
7.26111e-05
6.78656e-05
5.32553e-06
6.46911e-05
3.5021e-05
-4.80208e-05
7.43419e-05
-5.19547e-05
-3.61316e-05
8.62646e-05
-3.87271e-05
2.1568e-05
8.67118e-05
-1.32816e-05
5.43699e-05
7.36921e-05
7.84745e-05
5.91631e-06
6.50329e-05
5.6775e-05
-4.78517e-05
7.32839e-05
-4.89736e-05
-3.55118e-05
8.48412e-05
-4.26242e-05
1.7246e-05
8.56762e-05
-1.19298e-07
5.60413e-05
7.24487e-05
7.27447e-05
7.59926e-06
6.4253e-05
3.69022e-05
-4.98191e-05
7.2221e-05
-5.03773e-05
-3.54337e-05
8.31396e-05
-4.71917e-05
1.91343e-05
8.67838e-05
-7.76057e-06
5.19331e-05
7.51995e-05
6.06413e-05
1.00252e-05
6.58368e-05
3.59999e-05
-4.56343e-05
7.51209e-05
-6.02739e-05
-3.50335e-05
8.67743e-05
-3.50578e-05
2.14293e-05
8.73149e-05
-2.24371e-06
5.67699e-05
7.4208e-05
6.98898e-05
7.32118e-06
3.06275e-05
-4.57317e-05
8.1e-05
-5.51332e-05
-2.90269e-05
8.7849e-05
-4.46036e-05
1.50828e-05
8.83113e-05
-6.54579e-06
4.45718e-05
8.09532e-05
7.12303e-05
4.51247e-06
7.68569e-05
2.95788e-05
-3.73162e-05
8.11123e-05
-4.2479e-05
-3.14469e-05
8.87868e-05
-4.0955e-05
1.71561e-05
9.14976e-05
-1.42674e-05
4.31267e-05
8.47635e-05
6.03734e-05
9.94677e-06
7.8334e-05
3.15793e-05
-3.52999e-05
8.11326e-05
-5.86713e-05
-3.23708e-05
8.92016e-05
-3.33525e-05
1.69681e-05
9.12487e-05
-2.29934e-06
4.25252e-05
8.31483e-05
8.30874e-05
1.08786e-05
7.7048e-05
3.27315e-05
-3.68651e-05
8.15994e-05
-5.87251e-05
-3.03736e-05
8.90103e-05
-3.34751e-05
1.6388e-05
8.91539e-05
-1.99398e-06
4.59081e-05
8.17965e-05
7.26936e-05
5.14608e-06
7.65662e-05
3.66954e-05
-3.93341e-05
8.08525e-05
-5.58609e-05
-2.95505e-05
8.80216e-05
-3.98426e-05
1.73656e-05
8.88087e-05
-1.58508e-05
4.53457e-05
8.21174e-05
8.16441e-05
4.8711e-06
7.67258e-05
5.8117e-05
-3.80577e-05
8.00359e-05
-5.19057e-05
-2.90941e-05
8.77066e-05
-4.27321e-05
1.43918e-05
8.90933e-05
-3.91663e-06
4.55029e-05
8.14475e-05
7.57026e-05
6.54031e-06
7.58383e-05
4.06831e-05
-4.06105e-05
7.88203e-05
-5.1782e-05
-3.00945e-05
8.61908e-05
-4.64655e-05
1.53638e-05
8.97598e-05
-1.09375e-05
4.30886e-05
8.34635e-05
6.3701e-05
7.94876e-06
7.6908e-05
4.06965e-05
-3.73935e-05
8.10304e-05
-6.17672e-05
-3.05436e-05
8.95917e-05
-3.96822e-05
1.89136e-05
9.11708e-05
-7.63129e-06
4.63465e-05
8.33935e-05
7.21996e-05
8.25122e-06
3.24289e-05
-3.62947e-05
8.59951e-05
-4.88204e-05
-2.12716e-05
8.92026e-05
-3.8487e-05
1.16291e-05
8.92146e-05
-7.59851e-06
3.0485e-05
8.79689e-05
6.41627e-05
4.16116e-06
8.65501e-05
2.42024e-05
-2.44674e-05
8.61485e-05
-3.87732e-05
-2.16069e-05
9.0411e-05
-3.64184e-05
1.33117e-05
9.19063e-05
-1.5337e-05
2.89255e-05
9.03396e-05
5.32253e-05
6.64905e-06
8.75416e-05
2.74001e-05
-2.33806e-05
8.64595e-05
-5.19297e-05
-2.26859e-05
9.09244e-05
-3.07281e-05
1.35717e-05
9.20364e-05
-3.55081e-06
3.07332e-05
9.01459e-05
7.44771e-05
8.79259e-06
8.65191e-05
3.16694e-05
-2.42919e-05
8.61925e-05
-5.394e-05
-2.3017e-05
9.0764e-05
-2.80762e-05
1.38989e-05
9.11256e-05
-3.21892e-06
3.26435e-05
8.93717e-05
6.59177e-05
5.74226e-06
8.67234e-05
3.34882e-05
-2.65931e-05
8.62584e-05
-5.14774e-05
-2.02759e-05
8.87239e-05
-3.32354e-05
1.23203e-05
8.91875e-05
-1.56983e-05
3.04183e-05
8.88008e-05
7.33411e-05
3.35527e-06
8.69218e-05
5.1666e-05
-2.50167e-05
8.58798e-05
-4.6819e-05
-2.0324e-05
8.93837e-05
-3.7626e-05
1.13217e-05
9.04866e-05
-7.14545e-06
3.09035e-05
8.89904e-05
6.76141e-05
4.73974e-06
8.633e-05
3.84125e-05
-2.75456e-05
8.48179e-05
-4.60423e-05
-2.12388e-05
8.84602e-05
-3.85862e-05
1.09789e-05
9.06874e-05
-1.22171e-05
2.94798e-05
8.96486e-05
5.82682e-05
5.16523e-06
8.65341e-05
3.92873e-05
-2.56132e-05
8.59638e-05
-5.45833e-05
-2.33112e-05
9.07364e-05
-3.66239e-05
1.4247e-05
9.23094e-05
-1.11673e-05
3.11755e-05
9.024e-05
6.45589e-05
7.59621e-06
3.01828e-05
-2.39122e-05
9.10905e-05
-3.89274e-05
-1.30657e-05
9.16164e-05
-2.96841e-05
7.89984e-06
9.12359e-05
-6.90113e-06
1.55227e-05
9.34393e-05
5.05278e-05
4.3422e-06
9.33973e-05
1.72995e-05
-1.2149e-05
9.11521e-05
-3.18019e-05
-1.14758e-05
9.26391e-05
-2.78398e-05
8.54848e-06
9.25549e-05
-1.40212e-05
1.4379e-05
9.39165e-05
4.21979e-05
3.15201e-06
9.37437e-05
2.1562e-05
-1.24022e-05
9.12207e-05
-4.16953e-05
-1.26938e-05
9.26744e-05
-2.42473e-05
9.29314e-06
9.29337e-05
-4.46095e-06
1.71053e-05
9.49169e-05
6.00388e-05
5.64251e-06
9.35236e-05
2.69469e-05
-1.21526e-05
9.08936e-05
-4.37051e-05
-1.44531e-05
9.28048e-05
-1.99185e-05
9.89992e-06
9.27502e-05
-3.22258e-06
1.70717e-05
9.46415e-05
5.25512e-05
5.35995e-06
9.37634e-05
2.72941e-05
-1.292e-05
9.08688e-05
-4.1785e-05
-1.19163e-05
9.08387e-05
-2.37808e-05
7.59316e-06
9.07131e-05
-1.32949e-05
1.50713e-05
9.41192e-05
5.86684e-05
2.4412e-06
9.42915e-05
4.11912e-05
-1.19774e-05
9.11154e-05
-3.70462e-05
-1.18793e-05
9.18664e-05
-3.00352e-05
7.79827e-06
9.19097e-05
-8.03706e-06
1.55846e-05
9.44004e-05
5.30958e-05
3.80007e-06
9.40378e-05
3.1741e-05
-1.36509e-05
9.04945e-05
-3.67187e-05
-1.17707e-05
9.14936e-05
-2.84107e-05
7.45527e-06
9.21175e-05
-1.14631e-05
1.5601e-05
9.44056e-05
4.73851e-05
2.76948e-06
9.39325e-05
3.34165e-05
-1.31397e-05
9.10952e-05
-4.33792e-05
-1.37786e-05
9.26086e-05
-2.86369e-05
9.07671e-06
9.30103e-05
-1.15841e-05
1.55297e-05
9.47858e-05
5.15396e-05
5.37772e-06
2.4843e-05
-1.19558e-05
9.70921e-05
-2.86092e-05
-6.83147e-06
9.67121e-05
-2.15965e-05
4.87348e-06
9.6153e-05
-5.72924e-06
4.93844e-06
9.90502e-05
3.67231e-05
3.56876e-06
9.92495e-05
1.16741e-05
-3.61699e-06
9.71216e-05
-2.38554e-05
-4.82874e-06
9.73239e-05
-1.94885e-05
4.82419e-06
9.64054e-05
-1.14185e-05
4.52034e-06
9.87778e-05
3.07241e-05
7.59196e-07
9.96241e-05
1.58673e-05
-4.69243e-06
9.71574e-05
-3.08445e-05
-5.79785e-06
9.7004e-05
-1.7404e-05
5.11527e-06
9.66373e-05
-4.35777e-06
6.30476e-06
9.98943e-05
4.51271e-05
2.91864e-06
9.99246e-05
2.08254e-05
-3.80495e-06
9.68765e-05
-3.25107e-05
-7.48294e-06
9.72498e-05
-1.27274e-05
6.00777e-06
9.66974e-05
-2.7269e-06
5.35154e-06
9.95364e-05
3.87903e-05
3.97899e-06
9.99565e-05
2.03092e-05
-3.93128e-06
9.71141e-05
-3.09754e-05
-6.20616e-06
9.64046e-05
-1.60907e-05
4.87765e-06
9.5629e-05
-1.03816e-05
5.10014e-06
9.9448e-05
4.37004e-05
2.15962e-06
0.000100599
3.07575e-05
-2.96564e-06
9.75293e-05
-2.67971e-05
-5.50467e-06
9.69646e-05
-2.24223e-05
4.71825e-06
9.61216e-05
-6.89094e-06
4.89557e-06
9.9459e-05
3.86384e-05
2.79252e-06
0.000100346
2.39112e-05
-4.36347e-06
9.7167e-05
-2.70404e-05
-5.04984e-06
9.68884e-05
-1.97933e-05
4.7761e-06
9.6233e-05
-9.56166e-06
5.53991e-06
9.93376e-05
3.55739e-05
1.45986e-06
0.000100305
2.59854e-05
-4.11193e-06
9.74122e-05
-3.21361e-05
-6.68466e-06
9.72362e-05
-2.07239e-05
5.17981e-06
9.65358e-05
-9.87034e-06
4.34701e-06
9.94679e-05
3.81116e-05
3.20483e-06
1.8485e-05
-3.66983e-06
0.000105415
-2.01188e-05
-3.46655e-06
0.000104921
-1.53246e-05
2.9916e-06
0.000104149
-4.63124e-06
5.02881e-07
0.000106588
2.55399e-05
2.58212e-06
0.000106907
7.74531e-06
-2.80889e-07
0.00010535
-1.65035e-05
-2.17945e-06
0.000105313
-1.32969e-05
2.89673e-06
0.000104194
-8.72435e-06
3.54234e-07
0.000106312
2.0945e-05
-7.07358e-08
0.000107249
1.11369e-05
-1.0254e-06
0.000105298
-2.163e-05
-2.53022e-06
0.000104747
-1.21611e-05
2.84752e-06
0.000104019
-3.66788e-06
1.08221e-06
0.000107029
3.26637e-05
1.68029e-06
0.000107602
1.52204e-05
-1.08806e-07
0.000105114
-2.29367e-05
-3.78165e-06
0.000105081
-7.96689e-06
3.74556e-06
0.000104337
-2.45018e-06
3.96465e-07
0.000106753
2.73771e-05
2.90174e-06
0.000107503
1.43778e-05
-3.19459e-07
0.000105356
-2.17839e-05
-3.07598e-06
0.000104763
-1.09003e-05
3.14861e-06
0.00010372
-7.97831e-06
7.3343e-07
0.000106719
3.1403e-05
1.92385e-06
0.000108059
2.20985e-05
1.27111e-06
0.000105745
-1.84563e-05
-2.27433e-06
0.000104948
-1.62564e-05
2.76594e-06
0.000103847
-5.3847e-06
4.68281e-07
0.000106643
2.70161e-05
1.812e-06
0.000107763
1.73831e-05
-6.00912e-07
0.00010552
-1.90365e-05
-1.83479e-06
0.000104987
-1.3615e-05
2.99655e-06
0.000103829
-7.41383e-06
1.11022e-06
0.000106558
2.55141e-05
6.89129e-07
0.000107901
1.92949e-05
-1.92199e-07
0.000105659
-2.26892e-05
-3.3797e-06
0.000105043
-1.46189e-05
2.88425e-06
0.000104033
-7.92065e-06
-3.1165e-07
0.000106659
2.69172e-05
1.92022e-06
1.30468e-05
-3.17471e-07
0.00011547
-1.36808e-05
-2.08116e-06
0.00011508
-1.06083e-05
1.88055e-06
0.000114366
-3.49513e-06
-7.78275e-07
0.000116245
1.70641e-05
1.93526e-06
0.0001165
4.86367e-06
6.51883e-07
0.000115412
-1.07595e-05
-1.16595e-06
0.000115448
-8.86498e-06
1.90059e-06
0.000114441
-6.26556e-06
-7.85397e-07
0.000116017
1.35827e-05
-3.38526e-07
0.000116801
7.56336e-06
-6.97113e-08
0.000115362
-1.4522e-05
-1.35655e-06
0.00011483
-8.32743e-06
1.85393e-06
0.00011406
-2.92142e-06
-2.86961e-07
0.000116484
2.29638e-05
1.2265e-06
0.000117059
1.05824e-05
1.06843e-06
0.000115204
-1.55553e-05
-2.25602e-06
0.000115172
-4.77474e-06
2.5318e-06
0.000114481
-1.8103e-06
-9.74143e-07
0.000116331
1.86993e-05
2.22447e-06
0.000116961
9.69211e-06
6.2519e-07
0.000115415
-1.47177e-05
-1.85022e-06
0.000115005
-7.25199e-06
2.00395e-06
0.000113963
-5.97113e-06
-4.49099e-07
0.000116235
2.19742e-05
1.59189e-06
0.000117405
1.52435e-05
2.22223e-06
0.000115757
-1.22187e-05
-1.10062e-06
0.000115062
-1.15752e-05
1.78343e-06
0.000114028
-3.81074e-06
-7.56369e-07
0.000116183
1.81957e-05
1.31266e-06
0.000117146
1.22365e-05
5.28492e-07
0.000115555
-1.29623e-05
-7.09209e-07
0.000115113
-9.24569e-06
2.09869e-06
0.000113967
-5.63466e-06
8.75058e-08
0.000116128
1.77042e-05
4.08014e-07
0.000117321
1.37889e-05
9.87651e-07
0.000115669
-1.54651e-05
-1.94532e-06
0.000115097
-1.00855e-05
1.75722e-06
0.000114167
-5.89482e-06
-1.5788e-06
0.00011625
1.83654e-05
1.27091e-06
8.73884e-06
5.83058e-07
0.000126867
-9.00822e-06
-1.44852e-06
0.000126605
-7.10573e-06
1.25913e-06
0.000126006
-2.48713e-06
-8.72015e-07
0.000127395
1.08678e-05
1.55972e-06
0.000127536
2.82212e-06
6.78345e-07
0.000126811
-6.65544e-06
-6.7993e-07
0.000126918
-5.64853e-06
1.29238e-06
0.000126092
-4.29249e-06
-7.70971e-07
0.000127219
8.32238e-06
-3.9328e-07
0.000127805
4.91129e-06
1.46421e-07
0.000126793
-9.37616e-06
-8.86764e-07
0.000126379
-5.50773e-06
1.31266e-06
0.000125676
-2.14254e-06
-4.85446e-07
0.000127572
1.56761e-05
9.68936e-07
0.000128004
7.0833e-06
1.10125e-06
0.000126641
-1.01514e-05
-1.5237e-06
0.000126682
-2.58577e-06
1.87784e-06
0.000126091
-1.22402e-06
-1.00335e-06
0.000127473
1.23228e-05
1.78337e-06
0.000127918
6.20127e-06
6.26183e-07
0.000126817
-9.57673e-06
-1.255e-06
0.000126545
-4.61217e-06
1.27429e-06
0.00012564
-4.36027e-06
-5.6346e-07
0.00012739
1.49733e-05
1.22982e-06
0.000128286
1.00988e-05
1.92818e-06
0.000127105
-7.74698e-06
-6.4049e-07
0.000126559
-8.0674e-06
1.25551e-06
0.000125708
-2.49342e-06
-7.3701e-07
0.000127332
1.17335e-05
1.05944e-06
0.000128077
8.35195e-06
6.75275e-07
0.000126932
-8.55383e-06
-2.84542e-07
0.000126616
-6.0592e-06
1.52265e-06
0.000125627
-4.18315e-06
-6.99086e-08
0.000127296
1.19074e-05
3.0472e-07
0.000128237
9.59239e-06
1.03842e-06
0.000127041
-1.02009e-05
-1.28691e-06
0.000126605
-6.71064e-06
1.20303e-06
0.000125829
-4.20152e-06
-1.4313e-06
0.00012742
1.20717e-05
9.6289e-07
5.56654e-06
5.97279e-07
0.000139456
-5.75051e-06
-1.03996e-06
0.000139311
-4.58679e-06
8.43448e-07
0.000138841
-1.72076e-06
-6.98497e-07
0.000139815
6.53969e-06
1.26129e-06
0.00013986
1.46432e-06
5.47855e-07
0.000139409
-3.87784e-06
-3.94501e-07
0.000139563
-3.37919e-06
8.92578e-07
0.000138927
-2.80612e-06
-5.37873e-07
0.000139689
4.74711e-06
-3.8259e-07
0.000140098
3.0411e-06
1.64745e-07
0.000139412
-5.81522e-06
-6.20202e-07
0.000139113
-3.50431e-06
9.57109e-07
0.000138527
-1.53877e-06
-3.41762e-07
0.00013997
1.03943e-05
7.53117e-07
0.00014025
4.584e-06
9.38666e-07
0.000139274
-6.34618e-06
-1.04752e-06
0.00013938
-1.12603e-06
1.42614e-06
0.000138913
-8.01979e-07
-7.60079e-07
0.000139903
7.84063e-06
1.43167e-06
0.00014018
3.75355e-06
4.45114e-07
0.000139419
-5.99636e-06
-8.73465e-07
0.000139255
-2.74933e-06
7.77149e-07
0.000138519
-3.12007e-06
-4.31431e-07
0.000139854
9.94251e-06
8.99332e-07
0.000140497
6.4047e-06
1.45234e-06
0.000139661
-4.68277e-06
-3.87641e-07
0.000139249
-5.47933e-06
8.82524e-07
0.000138593
-1.51965e-06
-4.85271e-07
0.000139776
7.19853e-06
8.65958e-07
0.000140324
5.5507e-06
6.07343e-07
0.000139514
-5.47726e-06
-5.27821e-08
0.000139303
-3.77922e-06
1.11035e-06
0.000138493
-3.02929e-06
4.1594e-09
0.000139756
7.75667e-06
2.38047e-07
0.000140468
6.50015e-06
8.59097e-07
0.000139616
-6.4988e-06
-8.73378e-07
0.000139306
-4.27506e-06
8.44084e-07
0.000138691
-2.9164e-06
-1.06687e-06
0.000139868
7.61799e-06
7.43988e-07
3.3383e-06
4.55041e-07
0.000153298
-3.56756e-06
-7.41099e-07
0.000153241
-2.84324e-06
5.42442e-07
0.000152888
-1.15944e-06
-5.32345e-07
0.000153532
3.66163e-06
1.01127e-06
0.000153509
6.17323e-07
4.26922e-07
0.000153257
-2.09917e-06
-1.96436e-07
0.000153435
-1.85836e-06
6.04646e-07
0.00015297
-1.73618e-06
-3.32997e-07
0.00015345
2.45044e-06
-3.48116e-07
0.00015372
1.77907e-06
1.56762e-07
0.000153278
-3.46359e-06
-4.30047e-07
0.00015307
-2.13191e-06
6.85571e-07
0.000152596
-1.07953e-06
-2.12897e-07
0.000153667
6.69967e-06
5.74238e-07
0.000153832
2.86059e-06
7.74298e-07
0.000153157
-3.77715e-06
-6.87532e-07
0.000153305
-2.27072e-07
1.08954e-06
0.000152944
-5.05424e-07
-5.32218e-07
0.000153629
4.81256e-06
1.137e-06
0.00015378
2.111e-06
2.85914e-07
0.000153271
-3.60751e-06
-5.93584e-07
0.000153188
-1.49933e-06
4.21688e-07
0.000152611
-2.1783e-06
-3.11245e-07
0.000153611
6.45209e-06
6.26848e-07
0.000154048
3.86469e-06
1.0388e-06
0.000153474
-2.6695e-06
-2.29933e-07
0.000153173
-3.63743e-06
6.2653e-07
0.000152689
-8.6363e-07
-2.42885e-07
0.000153514
4.15852e-06
7.13368e-07
0.00015391
3.60633e-06
5.22341e-07
0.000153342
-3.4405e-06
1.38274e-07
0.000153217
-2.21585e-06
8.02216e-07
0.00015258
-2.12971e-06
6.06735e-08
0.000153511
4.89345e-06
1.89566e-07
0.000154033
4.30387e-06
6.96085e-07
0.00015344
-3.99876e-06
-5.70282e-07
0.000153233
-2.5815e-06
5.91321e-07
0.000152765
-1.97505e-06
-7.4124e-07
0.000153607
4.59911e-06
5.70158e-07
1.85931e-06
3.2803e-07
0.000168506
-2.16268e-06
-5.15646e-07
0.000168511
-1.69376e-06
3.36401e-07
0.000168259
-7.6586e-07
-3.96357e-07
0.000168654
1.85714e-06
7.97094e-07
0.00016859
1.38505e-07
3.32276e-07
0.000168472
-1.02712e-06
-6.81498e-08
0.000168655
-9.02698e-07
4.06126e-07
0.000168336
-1.0013e-06
-1.79615e-07
0.000168606
1.07622e-06
-2.97473e-07
0.000168773
9.65083e-07
1.51096e-07
0.000168503
-1.97827e-06
-2.98222e-07
0.000168366
-1.23994e-06
4.90538e-07
0.000167995
-7.4808e-07
-1.1039e-07
0.000168767
4.2077e-06
4.3428e-07
0.00016885
1.72339e-06
6.3194e-07
0.000168402
-2.11689e-06
-4.23037e-07
0.000168569
2.6957e-07
8.3135e-07
0.000168301
-3.11676e-07
-3.50598e-07
0.000168755
2.86312e-06
8.9154e-07
0.000168815
1.07798e-06
1.65225e-07
0.000168487
-2.08096e-06
-3.91291e-07
0.000168461
-7.13078e-07
1.80621e-07
0.000168024
-1.47947e-06
-2.2775e-07
0.000168759
4.12081e-06
4.10103e-07
0.00016904
2.20251e-06
7.13676e-07
0.000168659
-1.41302e-06
-1.2613e-07
0.000168443
-2.36247e-06
4.35699e-07
0.000168104
-4.54962e-07
-6.20924e-08
0.000168652
2.22646e-06
5.855e-07
0.000168934
2.3003e-06
4.59284e-07
0.000168539
-2.14242e-06
2.54541e-07
0.000168476
-1.19683e-06
5.78788e-07
0.000167994
-1.43829e-06
9.35569e-08
0.000168661
2.99705e-06
1.54269e-07
0.000169035
2.78764e-06
5.58848e-07
0.000168631
-2.37593e-06
-3.49727e-07
0.000168505
-1.46248e-06
4.1617e-07
0.000168158
-1.31109e-06
-4.86233e-07
0.000168741
2.64511e-06
4.29507e-07
9.27414e-07
2.35779e-07
0.000185219
-1.29298e-06
-3.53415e-07
0.000185261
-9.72031e-07
2.00252e-07
0.000185089
-4.9792e-07
-2.9159e-07
0.000185307
8.01217e-07
6.22853e-07
0.000185226
-9.43979e-08
2.63201e-07
0.00018519
-4.27376e-07
1.33742e-08
0.000185363
-3.48987e-07
2.72096e-07
0.000185159
-5.29288e-07
-7.30246e-08
0.000185287
3.23266e-07
-2.39812e-07
0.000185381
4.67473e-07
1.43494e-07
0.000185226
-1.08841e-06
-2.04773e-07
0.000185138
-6.89946e-07
3.50644e-07
0.000184856
-5.15995e-07
-3.99634e-08
0.0001854
2.58433e-06
3.29386e-07
0.00018543
1.00265e-06
5.13346e-07
0.000185146
-1.09546e-06
-2.34164e-07
0.000185313
4.87486e-07
6.41681e-07
0.000185118
-1.84833e-07
-2.16942e-07
0.000185408
1.66299e-06
6.92608e-07
0.00018541
4.68432e-07
8.39538e-08
0.000185205
-1.1492e-06
-2.50283e-07
0.000185214
-2.62271e-07
3.09844e-08
0.000184895
-9.69957e-07
-1.76171e-07
0.000185427
2.61234e-06
2.47436e-07
0.000185595
1.17286e-06
4.70343e-07
0.000185351
-6.69514e-07
-6.55549e-08
0.000185194
-1.50582e-06
3.09031e-07
0.000184977
-1.86461e-07
3.74908e-08
0.000185316
1.07524e-06
4.83054e-07
0.000185518
1.45332e-06
4.05222e-07
0.000185239
-1.3326e-06
3.02821e-07
0.00018522
-5.7206e-07
4.22434e-07
0.000184871
-9.27096e-07
1.13369e-07
0.000185336
1.79439e-06
1.31152e-07
0.000185596
1.77267e-06
4.56385e-07
0.000185327
-1.36714e-06
-1.94461e-07
0.000185257
-7.62428e-07
2.99857e-07
0.000185009
-8.57508e-07
-2.97294e-07
0.0001854
1.44067e-06
3.23067e-07
3.80508e-07
1.72755e-07
0.000203583
-7.73551e-07
-2.35693e-07
0.000203645
-5.44184e-07
1.18078e-07
0.000203535
-3.23573e-07
-2.08623e-07
0.000203636
2.35361e-07
4.83884e-07
0.00020355
-1.89751e-07
2.12212e-07
0.000203557
-1.43374e-07
8.32053e-08
0.000203711
-6.42901e-08
1.87147e-07
0.000203596
-2.48877e-07
-4.93361e-09
0.000203634
-3.99372e-08
-1.80567e-07
0.000203679
1.81975e-07
1.34721e-07
0.000203596
-5.83017e-07
-1.40989e-07
0.000203541
-3.71241e-07
2.55542e-07
0.000203334
-3.52956e-07
-2.64088e-09
0.000203708
1.56077e-06
2.52718e-07
0.000203705
5.7642e-07
4.14159e-07
0.000203535
-5.00344e-07
-1.08792e-07
0.00020369
5.30757e-07
5.01738e-07
0.000203551
-1.06026e-07
-1.2058e-07
0.00020373
9.43483e-07
5.31629e-07
0.000203697
1.43409e-07
3.03156e-08
0.000203572
-6.06204e-07
-1.56772e-07
0.0002036
-2.06035e-08
-6.98979e-08
0.000203379
-6.08103e-07
-1.43765e-07
0.000203758
1.65429e-06
1.30096e-07
0.000203849
5.74801e-07
2.9556e-07
0.000203698
-2.57775e-07
-3.22072e-08
0.00020358
-9.41201e-07
2.21652e-07
0.000203459
-8.39506e-09
7.84047e-08
0.000203651
4.46056e-07
3.99009e-07
0.000203796
9.34219e-07
3.60982e-07
0.000203594
-8.36131e-07
3.1196e-07
0.000203601
-2.1605e-07
3.18057e-07
0.000203362
-5.62836e-07
1.23734e-07
0.000203676
1.05943e-06
1.1677e-07
0.000203853
1.11246e-06
3.74816e-07
0.000203675
-7.65087e-07
-9.11425e-08
0.000203643
-3.53114e-07
2.26045e-07
0.000203472
-5.59632e-07
-1.62585e-07
0.000203726
7.35811e-07
2.42989e-07
8.50089e-08
1.32805e-07
0.00022376
-4.71419e-07
-1.5227e-07
0.000223829
-3.0364e-07
6.9612e-08
0.000223763
-2.13725e-07
-1.44872e-07
0.000223794
-4.3319e-08
3.73527e-07
0.000223713
-2.15819e-07
1.73816e-07
0.000223737
-2.97855e-08
1.08287e-07
0.000223866
5.72344e-08