/*--------------------------------*- C++ -*----------------------------------*\
  =========                 |
  \\      /  F ield         | OpenFOAM: The Open Source CFD Toolbox
   \\    /   O peration     | Website:  https://openfoam.org
    \\  /    A nd           | Version:  10
     \\/     M anipulation  |
\*---------------------------------------------------------------------------*/
FoamFile
{
    format      ascii;
    class       surfaceScalarField;
    location    "8";
    object      phi;
}
// * * * * * * * * * * * * * * * * * * * * * * * * * * * * * * * * * * * * * //

dimensions      [0 3 -1 0 0 0 0];

internalField   nonuniform List<scalar> 
74080
(
0.00530869
4.10149e-05
-0.000116717
0.00533887
4.10171e-06
-4.87659e-05
0.00535377
8.49566e-07
1.56891e-05
0.00534398
1.33719e-05
3.28159e-05
0.00530177
1.44733e-05
-3.28496e-05
0.00525004
7.89199e-06
-0.000104328
0.00521079
-6.96809e-06
-9.34368e-05
0.00520463
-1.63774e-05
-5.31989e-05
0.00524145
9.40667e-06
-3.5732e-05
0.00533764
6.24756e-05
-5.86489e-05
0.00544264
0.000146762
-0.000120709
0.00548302
0.000207229
-0.000149047
0.00543529
0.000171903
-0.000110601
0.00531504
4.3134e-05
-1.27861e-05
0.00520238
-0.000130482
0.000107492
0.00514278
-0.000229102
0.000180624
0.00513232
-0.00021833
0.000189683
0.0051657
-0.000162951
0.000124838
0.00518953
-6.4933e-05
5.59836e-05
0.00517937
-1.12873e-05
2.07455e-05
0.00517524
-7.08048e-05
-6.5918e-06
0.00516607
-0.000115594
-5.08015e-05
0.00515758
-0.000132573
-0.000150898
0.00518386
-0.000146079
-0.000258746
0.00522284
-8.92463e-05
-0.000252059
0.00528926
-1.25659e-05
-0.000131243
0.00536982
7.82219e-05
3.76328e-05
0.00541622
0.000161375
0.000222084
0.00541519
0.000153343
0.000326306
0.00535375
6.72154e-05
0.000323832
0.00525438
-3.4427e-05
0.000248778
0.00515571
-7.12765e-05
0.000104605
0.00507783
-2.36009e-05
-6.63708e-05
0.0050409
3.3374e-05
-0.000187966
0.00507172
6.08223e-05
-0.000221798
0.00515095
8.40036e-05
-0.000187256
0.00521852
0.000123275
-0.000112177
0.00526343
0.000151744
-7.15108e-05
0.00527121
0.000142639
-0.000103758
0.000101823
-0.000144733
0.00490098
-1.71612e-05
-6.9808e-05
0.0049272
-3.16915e-05
9.50837e-06
0.00490916
-1.65679e-05
8.18099e-05
0.0048718
8.16124e-06
0.000111362
0.00484132
1.37161e-05
7.9411e-05
0.00483241
1.81018e-05
4.80779e-05
0.00483853
1.20552e-05
4.0995e-05
0.00484646
-1.1428e-05
4.93845e-05
0.00486587
-2.69431e-05
3.82331e-05
0.00494222
-4.77866e-05
1.42576e-05
0.0050672
-1.16574e-05
9.95484e-06
0.005185
3.57506e-05
8.00981e-05
0.00521026
3.31246e-05
0.000252137
0.00507407
1.3443e-05
0.000389334
0.00484163
-5.19215e-05
0.000339015
0.00463308
-9.75689e-05
0.000132427
0.00453963
-0.000114964
-0.000116579
0.00454917
-0.000143571
-0.00027745
0.00458379
-0.000110705
-0.000280896
0.00459415
-0.00010574
-0.000187071
0.00455402
-0.000181809
-5.18425e-05
0.00446913
-0.000207491
3.83507e-05
0.00440077
-0.000207801
1.91574e-05
0.00438563
-0.000193328
-7.30359e-05
0.00443257
-9.54065e-05
-0.000156837
0.00454535
1.24295e-05
-0.00017763
0.00469117
0.000121769
-9.0823e-05
0.00484103
0.000200323
7.98678e-05
0.00495083
0.000195557
0.000221642
0.00496119
0.000164111
0.00026672
0.00487443
0.000126591
0.000203066
0.00476632
9.90303e-05
4.18847e-05
0.00470598
7.43836e-05
-0.000126064
0.00470903
2.08789e-05
-0.000206021
0.00476221
-4.16414e-05
-0.000172957
0.00479616
-2.39286e-05
-9.35951e-05
0.00477907
6.39293e-05
-3.47685e-05
0.00476982
0.000114604
-4.05333e-05
0.00477533
0.00012097
-0.000109992
6.20143e-05
-0.000136091
0.00435299
-6.16703e-05
3.0273e-05
0.00449536
-6.23086e-05
2.40348e-05
0.00454999
-1.92435e-05
0.000140392
0.00448743
2.77756e-05
0.000240623
0.00438918
3.71235e-05
0.000249247
0.00434584
7.95402e-05
0.000159444
0.00438506
0.000108241
1.52847e-05
0.00444002
8.32059e-05
-5.93373e-05
0.00446828
-7.71965e-06
-6.51357e-05
0.0044752
-0.000137081
4.7487e-05
0.00449067
-0.000163635
0.000245569
0.00459366
-0.00015156
0.000413893
0.00473774
-0.000120731
0.000527615
0.00474864
-3.60487e-05
0.00050258
0.0045384
1.29994e-05
0.000340746
0.0042068
3.58674e-05
0.000107289
0.00394942
9.40909e-06
-0.000184773
0.00382725
-6.06124e-05
-0.000369326
0.00380761
-9.40019e-05
-0.000361974
0.00384961
-0.000163497
-0.000211301
0.00385676
-0.000252929
-2.7605e-06
0.00383895
-0.000265068
9.05682e-05
0.00384001
-0.000238995
1.73708e-05
0.0038636
-0.000184024
-0.000133409
0.0039783
-9.76811e-05
-0.000294289
0.00416923
-1.82218e-05
-0.000325401
0.00437259
6.40294e-05
-0.000171125
0.0045521
0.00012216
5.22083e-05
0.0046471
0.000161451
0.000233761
0.00462326
0.000194327
0.000261051
0.00454275
0.000175582
0.000131562
0.00445836
0.000128562
-1.45166e-05
0.00437847
6.54171e-05
-7.36104e-05
0.00433009
-4.80315e-05
-2.20577e-05
0.00433549
-0.00016333
4.83324e-05
0.00435582
-0.000154113
4.62344e-05
0.00435595
-5.56798e-05
7.38128e-05
0.00429819
3.96904e-05
0.000146637
0.0042152
8.88689e-05
0.000139171
1.80438e-05
8.33741e-05
0.00387158
-7.32561e-05
-0.000227441
0.00391434
-4.79262e-05
-0.000132662
0.00390207
3.18361e-05
5.13265e-05
0.00386262
9.53842e-05
9.28419e-05
0.00387203
8.84146e-05
1.34728e-05
0.00394885
9.34509e-05
-2.96218e-05
0.00403324
8.02086e-05
1.2401e-05
0.00405179
5.25873e-05
0.000103648
0.00403903
-4.25487e-05
0.00010301
0.00402713
-0.000164516
0.000104963
0.00403405
-0.00018783
0.000201449
0.00406755
-0.000212675
0.000356607
0.00407442
-0.000212552
0.000522694
0.00404521
-0.000145671
0.000508325
0.00397299
-8.96672e-05
0.000326766
0.00385092
-1.03144e-05
0.000111697
0.00371389
2.92749e-05
-0.000121785
0.00356865
3.11295e-05
-0.000277127
0.00347215
3.29911e-06
-0.000307262
0.00344625
-0.000101493
-0.000270458
0.00345779
-0.00021337
-0.000188523
0.00354307
-0.0002791
-0.000117553
0.00367423
-0.000290284
-7.94676e-05
0.00379865
-0.000237607
-8.10007e-06
0.00393025
-0.000180548
9.39294e-05
0.0040314
-0.000105898
0.000201561
0.00410439
9.55258e-06
0.000213182
0.00416198
0.00012662
8.72854e-05
0.00414664
0.000241567
-2.58555e-05
0.00406131
0.000275339
-6.34646e-05
0.00396622
0.000193951
-1.43172e-05
0.00389088
0.000104773
3.15771e-05
0.00383761
4.70841e-05
-2.01793e-05
0.00379474
-4.5845e-05
-6.23051e-05
0.00375227
-0.00015916
-3.46964e-05
0.00372064
-0.000177302
7.05806e-05
0.00371586
-0.000108972
0.000219673
0.00371197
-1.18545e-05
0.000233067
0.00372922
3.05236e-05
3.75596e-05
-3.71829e-05
-0.000164386
0.00336842
-0.00010253
0.000118457
0.00341704
-6.51105e-05
0.000203509
0.00338076
3.9354e-05
0.000191893
0.00332874
8.79907e-05
4.29391e-05
0.00335774
6.06164e-05
-2.51371e-05
0.00346872
8.45155e-05
6.76051e-06
0.00356859
0.000116939
1.30181e-05
0.00357994
7.48659e-05
-4.47663e-05
0.0035332
-0.000134348
-7.10751e-05
0.00346681
-0.000311781
0.000110057
0.00342324
-0.000239999
0.000321225
0.00342278
-0.000119706
0.000388153
0.00343594
-9.24118e-05
0.000296723
0.00343633
-0.000129983
3.19136e-05
0.00342239
-0.000152888
-0.000232868
0.00342496
-0.000112714
-0.00035205
0.00343257
-8.47491e-05
-0.000353056
0.00338361
-4.00824e-05
-0.000206727
0.00330671
-1.13374e-05
-8.61113e-06
0.00324181
-6.49044e-05
0.000107726
0.00320493
-0.000121932
8.78048e-05
0.0032285
-0.000209338
-9.08621e-05
0.0032959
-0.000246843
-0.000317739
0.00340733
-0.000219283
-0.00041328
0.00354912
-0.000190165
-0.000355754
0.00363315
-8.55463e-05
-0.000189881
0.00365565
6.6954e-05
-3.50741e-05
0.00368832
0.000172645
2.80254e-05
0.00375575
0.000239132
3.59719e-05
0.00379377
0.000245907
7.80675e-05
0.00373448
0.000202581
0.000224175
0.00363738
0.000156546
0.000244896
0.00359693
8.54334e-05
4.04102e-05
0.00359918
-6.0593e-06
-0.000172846
0.00356233
-9.26886e-05
-0.000272444
0.00346355
-0.000110243
-0.000216463
0.0033498
-6.70832e-05
-0.000103437
0.00325312
1.3589e-06
-0.000102566
0.00323223
1.25853e-05
-0.000135154
-6.38021e-05
-3.25393e-05
0.00318359
-1.40729e-05
3.36129e-06
0.00319718
1.06972e-05
6.09268e-05
0.0031551
5.41435e-05
0.00011574
0.00312594
-6.11823e-06
0.000138054
0.00315431
-7.74551e-05
0.000164418
0.0032113
5.07546e-05
5.65742e-05
0.00324786
0.000217067
-0.000124457
0.00326504
0.000165629
-0.000207704
0.00325813
-0.000117991
-0.000128085
0.00317198
-0.000290528
7.59273e-05
0.00304901
-0.000174428
0.000177705
0.00296992
-3.05305e-05
0.000163406
0.00296322
-3.3536e-05
3.01198e-05
0.00300659
-0.000123325
-0.000217128
0.00302268
-0.000176439
-0.00034734
0.00301133
-0.000140953
-0.000394124
0.00299204
-0.000122804
-0.000387158
0.00296703
-9.00237e-05
-0.000223966
0.00297379
-6.62869e-05
2.90008e-05
0.00301609
-9.17578e-05
0.000213802
0.00309643
-0.000102872
0.00016092
0.0031737
-0.000174108
-8.66044e-05
0.00317903
-0.000219208
-0.000289822
0.0031383
-0.000220008
-0.000293299
0.00307278
-0.000225127
-0.000190655
0.00299842
-0.000134148
-0.000133594
0.00300265
-2.81913e-05
-0.000148518
0.00311897
2.7276e-05
-0.0001388
0.00328527
8.62447e-05
-3.72157e-05
0.00341298
0.000104587
0.000169183
0.00344928
0.000123151
0.000392349
0.00343741
0.000126745
0.000384539
0.00342815
6.51341e-05
0.00017169
0.00338338
1.51307e-05
-2.03778e-05
0.00327105
-1.44574e-05
-0.000153726
0.00314046
-1.8745e-05
-0.000179464
0.00307358
-2.78309e-05
-0.000126938
0.00306116
-3.09274e-05
-0.000128458
0.0030938
-5.74933e-05
-0.000116182
-7.37907e-05
-3.25815e-05
0.00276437
1.30605e-05
-9.62551e-05
0.00275433
-4.10405e-05
-4.7372e-05
0.00276372
-1.33033e-05
-2.15465e-05
0.00281555
-5.15754e-05
1.99034e-05
0.00290923
-0.000124291
0.000136915
0.00304402
-8.93187e-05
0.000210759
0.00315699
-3.3264e-05
0.000217857
0.00316064
-6.52151e-05
7.42663e-05
0.00300363
-0.000133149
-0.000127693
0.00277161
-0.000112788
-0.000163126
0.00265444
-2.82852e-05
-4.94186e-05
0.0027135
-8.29389e-05
0.000170905
0.00283812
-0.000222883
0.000194135
0.00287227
-0.0002319
-9.27778e-05
0.00279253
-0.000147874
-0.000335017
0.0027331
-9.20571e-05
-0.000453911
0.00271955
-0.000136912
-0.000405995
0.00270453
-0.000171537
-0.000150929
0.00271801
-0.000174811
8.8533e-05
0.0027987
-0.000185935
0.000218094
0.00295231
-0.000180835
0.000194341
0.00305848
-0.000216394
4.33359e-05
0.00297857
-0.000186557
-5.26404e-05
0.00278716
-0.0001555
-3.03645e-05
0.00260914
-0.000190599
5.68625e-05
0.00254395
-0.00015772
9.33269e-05
0.00265684
-0.000147507
7.38029e-05
0.00285618
-0.000145527
2.51502e-05
0.00298782
-7.88078e-05
-2.39335e-05
0.00300509
-3.60676e-05
2.35413e-05
0.00295685
3.72836e-05
0.00011332
0.00296018
8.37452e-05
5.56134e-05
0.0030428
3.63103e-05
-4.53512e-05
0.00308092
8.3985e-06
-6.39906e-05
0.00297914
1.92252e-05
-7.83036e-05
0.00281448
4.23547e-05
-0.000114458
0.00274651
3.34742e-05
-0.000210078
0.00279213
-3.68538e-06
-0.000304562
0.00284676
-5.464e-05
-0.000251829
-3.0733e-05
-0.000138294
0.00245076
2.40957e-05
-9.36858e-05
0.00249157
-7.92494e-05
-7.17695e-05
0.00250012
-7.56795e-05
-9.71614e-05
0.00244091
-5.11958e-05
-9.15362e-05
0.00236642
-3.89203e-05
-1.2772e-05
0.00241187
-7.02936e-05
6.77032e-05
0.00259451
-0.000152857
0.000118066
0.00283954
-0.00026804
5.16347e-06
0.00299299
-0.000267489
-0.00010817
0.00302943
-0.000142354
-4.81477e-05
0.00304971
-5.64767e-05
7.59163e-05
0.00303095
-9.68868e-05
0.000132204
0.00291079
-0.000138566
-2.04375e-05
0.00272756
-7.71259e-05
-0.000245926
0.00257593
-4.69324e-05
-0.000257925
0.00252031
-0.000103693
-0.000234621
0.0025623
-0.000229455
-0.000197715
0.00263083
-0.000255333
-3.536e-05
0.00262841
-0.000172562
7.37622e-05
0.00255452
-8.97457e-05
6.90905e-05
0.00249667
-4.82441e-05
-1.52046e-05
0.00250063
-0.000123858
-0.000122606
0.00256794
-0.00013356
-0.000170073
0.00264584
-0.000111853
-0.000188462
0.00261892
-9.47626e-05
-0.000175749
0.00249704
-3.89288e-05
-7.67289e-05
0.00241906
-0.000122968
0.00011562
0.00247924
-0.000209737
0.00023724
0.00261615
-0.000126164
0.00017602
0.00266221
-1.07836e-05
8.0117e-05
0.00257885
9.31271e-05
2.43447e-05
0.00254684
8.42158e-05
-3.78711e-05
0.00266049
-5.02121e-05
-2.68361e-05
0.00280694
-0.000121322
4.42588e-05
0.00285535
-7.42209e-05
3.17169e-05
0.00279691
-1.60205e-05
4.20162e-06
0.00270534
2.55958e-05
-4.30953e-05
0.00261819
3.46419e-05
-0.000157316
0.0025289
-1.02555e-05
-0.000167214
2.13271e-05
-0.000117566
0.00227562
0.000164032
-3.16599e-05
0.00216367
5.27202e-05
-0.000130396
0.0021457
-2.57676e-05
-0.000203183
0.00219025
-4.94881e-05
-0.000186114
0.00227545
-7.64882e-05
-0.00014706
0.00241523
-0.000119627
-0.000126004
0.00253712
-0.000110763
-5.27569e-05
0.00262878
-9.42993e-05
-0.000112377
0.00270268
-7.41551e-05
-0.000198602
0.00277618
-7.06871e-05
-0.00010614
0.00279292
-5.55907e-05
4.79165e-05
0.00269302
-4.27352e-05
0.000150512
0.00254575
-7.20928e-06
9.79032e-05
0.00243073
3.43238e-05
-3.50466e-06
0.00234836
-5.69322e-07
1.26739e-05
0.00227605
-7.94891e-05
-2.29392e-05
0.00220713
-0.000210062
-7.45749e-05
0.00215625
-0.00022817
-4.1426e-05
0.00214111
-0.000162799
2.2469e-05
0.00215739
-4.62787e-05
4.36569e-05
0.00217839
6.83718e-05
-6.50447e-05
0.00218443
2.6075e-05
-0.000209157
0.00221869
-2.78317e-05
-0.000236198
0.00227524
-9.5436e-05
-0.000186465
0.00228868
-0.000106675
-0.000136766
0.00223626
-6.38586e-05
-6.41921e-05
0.0021728
-0.000181936
9.79068e-05
0.0021567
-0.000263834
0.000219433
0.00216226
-0.000120893
0.000222957
0.00215095
3.13602e-05
0.000202138
0.00218174
9.34139e-05
0.000143882
0.0022683
4.5295e-05
2.95593e-05
0.00234991
-9.02708e-05
-1.2177e-05
0.00239993
-0.000140443
-9.29724e-06
0.00240901
-9.33172e-05
-1.10529e-07
0.00239616
-5.73725e-05
6.3538e-05
0.00239232
-2.32383e-05
7.93434e-05
0.00238614
-4.11391e-05
4.07387e-05
0.00238529
-0.000100758
7.15959e-05
2.99309e-05
7.16971e-05
0.00213379
0.000161939
3.12939e-05
0.00200936
-6.9935e-06
1.66626e-05
0.00201062
-2.80297e-05
-3.03556e-05
0.00209036
1.79153e-05
-2.24016e-05
0.00216044
-2.87299e-05
-5.76573e-05
0.00216986
-7.44669e-05
-0.000119961
0.00210349
-2.63829e-05
-0.000155852
0.00211561
-5.18189e-05
-0.000215032
0.00223688
-0.000104665
-0.00016056
0.00230879
-9.3337e-05
8.26536e-05
0.00219504
2.5484e-05
0.000320524
0.00201694
4.27546e-05
0.000335603
0.00195259
3.93332e-05
4.08108e-05
0.00199475
4.22876e-05
-0.000227428
0.00206702
-5.7827e-05
-0.000244886
0.00210193
-0.000100293
-0.000163193
0.00202629
-0.000106755
-6.37343e-05
0.00191255
-8.9845e-05
-7.66503e-06
0.00186418
-0.000120597
-3.39653e-05
0.00188135
-8.50186e-05
-5.8741e-05
0.0019339
-2.86248e-05
-8.90381e-05
0.00199922
-0.000112855
-0.000120614
0.00205578
-0.000165537
-8.10556e-05
0.00207721
-0.000162284
-1.50317e-05
0.0020592
-7.13758e-05
-2.68637e-05
0.00200693
-2.01649e-05
-3.9382e-05
0.00195351
-0.000157956
-3.11333e-05
0.00194784
-0.000256894
-3.93797e-05
0.00194214
-0.000115002
9.65363e-06
0.00193631
-1.00004e-05
9.95031e-05
0.00199422
3.08457e-05
6.7437e-05
0.00210172
1.91033e-05
-3.25357e-05
0.00217044
-6.95851e-05
-2.66777e-05
0.00217599
-3.10576e-05
5.66957e-06
0.00217266
2.14523e-05
3.29989e-06
0.00220489
-4.03168e-05
4.55183e-05
0.00221386
-3.67359e-05
0.00010193
0.00219404
-7.07381e-06
9.88048e-05
0.00221411
-6.57279e-05
5.70996e-05
7.02322e-05
2.68233e-05
0.00188507
8.90457e-05
9.14656e-05
0.00190916
-0.000102053
0.000188548
0.00201909
-0.000102326
9.6023e-05
0.00206897
-1.95721e-05
-1.03054e-05
0.00191772
-8.25524e-06
-0.000152117
0.00168916
7.27619e-05
-0.000291306
0.00152953
7.24316e-05
-0.000229449
0.00155094
-0.000128418
-0.000184733
0.00170295
-0.000214097
-0.000195564
0.00182099
-0.000160262
-0.00011088
0.00183052
2.56029e-06
1.90199e-05
0.00179644
1.3875e-05
0.000102412
0.00173876
3.79729e-05
-1.91512e-05
0.00170004
1.86506e-05
-0.000210023
0.00173582
-0.000160207
-0.000232925
0.00182206
-0.000231103
-0.00019078
0.00182057
-0.00019551
-8.4004e-05
0.00174343
-9.04228e-05
1.70232e-05
0.00173907
-9.40907e-05
9.93808e-05
0.00178235
-8.35022e-06
8.54783e-05
0.00181696
-9.4971e-06
-1.23154e-05
0.0018589
-0.000241794
-1.0946e-05
0.00193067
-0.000398715
2.86762e-05
0.00199738
-0.000355774
5.95562e-05
0.00198291
-4.06004e-05
-1.91374e-06
0.00191328
0.000193749
-7.24996e-05
0.0018604
-1.28302e-06
3.04491e-05
0.00184551
-0.00020228
2.64716e-05
0.0018392
-7.99736e-05
-3.83358e-05
0.00180627
6.25798e-05
3.25755e-05
0.00179382
0.000137473
0.000111903
0.00180319
0.000100517
0.000115637
0.00182026
-4.8693e-05
6.03288e-05
0.00181189
2.45454e-05
-3.44904e-05
0.00176802
0.000116401
-2.95279e-05
0.00177409
-7.86147e-06
3.54747e-05
0.00181698
-1.47186e-05
1.29541e-05
0.00182522
0.00010927
-2.97888e-05
0.00184935
2.22219e-05
-6.59252e-06
5.73973e-05
1.32761e-05
0.00164257
9.03732e-07
0.000267603
0.00174651
-9.65076e-05
0.000235145
0.00183053
-8.7944e-05
0.000130906
0.00190026
-0.000110192
8.40346e-05
0.00188339
-8.04696e-05
-5.87406e-05
0.00177441
0.000183767
-0.00024027
0.00163819
0.000225126
-0.000179155
0.00157079
-5.16448e-05
-3.24307e-05
0.00160055
-0.000162771
2.63257e-05
0.0017085
-0.000180296
1.09392e-05
0.00178322
-5.53643e-05
8.76632e-06
0.00175692
-2.92883e-05
5.26215e-05
0.00168453
-1.0213e-05
2.60026e-05
0.00165417
-8.09163e-05
2.22502e-05
0.00160206
-0.000172382
5.96264e-05
0.00156508
-0.000172735
-6.43368e-05
0.00159626
-0.000218141
-0.000116377
0.00164584
-0.000239165
4.24457e-05
0.00173001
-0.000307808
0.000197855
0.0017726
-8.40475e-05
0.00019481
0.00175479
2.47884e-05
0.000117013
0.00168001
-0.000206017
6.53248e-05
0.00161486
-0.000349085
-1.93969e-05
0.00167854
-0.000401822
2.41828e-05
0.00182019
-0.000127604
1.82584e-05
0.00193194
0.000142783
-4.65572e-05
0.00190672
-6.13582e-05
0.000147406
0.0017825
-0.000250941
0.000327327
0.00169903
-1.59414e-05
0.000209921
0.00171581
0.000176899
0.000109912
0.00176242
0.000252359
4.42589e-05
0.00175523
0.000182036
1.55846e-05
0.00165318
1.3963e-05
6.84969e-05
0.00153085
9.07081e-05
5.96555e-05
0.00155531
5.96923e-05
2.23521e-05
0.00167106
-7.99397e-05
1.03412e-05
0.00165828
0.000193824
-8.36093e-05
0.00156113
0.000424073
-0.000105117
0.00150839
0.000116164
0.00014761
-1.28694e-05
0.000286149
0.00161167
-7.3959e-05
0.000422664
0.0016045
-0.000130937
0.000452372
0.0016389
-6.5859e-05
0.000333245
0.0016933
-0.000113994
0.000285847
0.00171077
-2.13583e-05
8.61431e-05
0.00159486
0.000449434
-0.000123931
0.00147978
0.000412337
-0.00013763
0.00145694
-4.89064e-05
-9.87586e-05
0.00148952
-0.000178522
5.28254e-05
0.00155714
-0.000155221
5.39012e-05
0.00158256
-4.33931e-05
7.05523e-05
0.00150796
3.55544e-05
9.19093e-05
0.00149576
-2.12459e-05
1.56935e-05
0.00161403
-0.000309764
4.45388e-05
0.00162298
-0.000332134
0.000181732
0.00150703
-7.40351e-05
9.66068e-05
0.00145467
-5.67754e-05
-4.65752e-05
0.00146497
-0.000299753
9.90204e-05
0.0014903
-0.000508888
0.000229657
0.00158325
-0.000223176
8.25691e-05
0.00164166
8.91251e-06
1.2585e-05
0.00152953
-9.09557e-05
6.6038e-05
0.00143578
-0.000187344
4.23918e-05
0.00150423
-0.000341677
7.28642e-05
0.00164188
-0.000224298
5.60625e-05
0.00172412
4.63329e-05
-7.27163e-05
0.00168833
-0.000145185
5.63955e-05
0.00162115
-0.000352382
0.000211428
0.00163366
-3.01705e-05
0.00016756
0.00173117
0.00013548
7.419e-05
0.00181962
6.33588e-05
6.61292e-05
0.00180145
2.94917e-05
0.000172156
0.00165819
-4.9446e-06
0.000239695
0.00148898
0.000148393
6.23925e-05
0.00143345
3.21034e-05
-1.60666e-05
0.00148759
-0.000175666
0.000103393
0.00154287
0.000271915
0.000134606
0.00164037
0.000461983
0.000114333
0.00170996
1.99463e-06
0.000152163
-0.000115749
0.000253588
0.00159853
-2.07048e-05
0.000210098
0.00158973
-3.826e-05
0.000221804
0.0015303
0.000114283
0.000158644
0.00149842
2.67472e-05
5.02519e-05
0.00153972
-2.06164e-05
-0.000117533
0.0014848
0.00060024
-0.000157725
0.00139478
0.000568505
-9.8946e-05
0.00136009
-4.94342e-05
-0.000114077
0.00136202
-0.00010755
-0.000146102
0.00140761
-2.66609e-05
-6.12275e-05
0.00141828
3.92018e-05
4.58755e-05
0.00132211
6.79404e-05
3.37051e-05
0.00125552
-4.27764e-05
-8.35441e-05
0.00133671
-0.000449491
-7.42566e-05
0.00145363
-0.000558002
0.000119177
0.00145045
-7.43633e-05
0.000128871
0.00143153
0.000104528
1.88813e-05
0.0013703
-0.000239053
8.36648e-05
0.00129911
-0.000527851
0.000170349
0.00142472
-0.000281476
0.000138803
0.00154143
1.64157e-05
8.84793e-05
0.00139165
0.000116614
2.80577e-05
0.00124811
-1.95612e-05
-9.82319e-05
0.00130078
-0.000302932
-7.35675e-05
0.00148903
-0.000279655
-3.72053e-05
0.00166609
1.13649e-05
-5.59648e-05
0.00161152
-5.69769e-05
0.000117331
0.0014699
-0.000266306
0.000190394
0.0014905
-3.99086e-05
9.33034e-05
0.0015967
2.15453e-05
2.68181e-05
0.00165542
-1.35999e-05
2.26218e-05
0.00163518
5.48529e-05
4.9348e-05
0.00159019
-5.14468e-06
6.80652e-05
0.00151812
0.00017565
2.59819e-05
0.00140663
5.18892e-05
9.66533e-05
0.0013731
-0.000241869
8.26089e-05
0.0014219
0.000314124
7.8795e-05
0.00147936
0.000460168
0.000116213
0.00153273
-0.000126261
0.00013521
-0.000174801
0.000153867
0.00123073
7.38698e-05
4.46825e-05
0.00123551
5.90223e-05
-0.000120184
0.00126062
0.000218713
-0.000207651
0.00128071
4.88704e-05
-0.000171765
0.00133129
4.38321e-06
-0.000215289
0.00136125
0.000630537
-0.000129866
0.00128516
0.000544283
-2.68811e-05
0.00126326
-0.000113686
-0.000100848
0.00131815
-7.30969e-05
-0.000161751
0.00133216
2.46206e-05
-2.50268e-05
0.00131381
4.0208e-06
0.000109865
0.00129457
9.86673e-05
-2.65066e-05
0.00125494
0.000151974
-0.00017983
0.00121729
-0.000236948
1.41708e-05
0.00127469
-0.000518074
0.000198596
0.00138061
-0.000138501
0.000133041
0.00142034
9.67386e-05
6.50666e-05
0.00125326
-0.000186051
0.000243073
0.00111051
-0.000496797
0.00021891
0.00120713
-0.000294334
9.42373e-05
0.00127388
5.36753e-05
3.55451e-05
0.00121215
0.000151662
5.8905e-06
0.00112024
6.09896e-05
-9.69662e-05
0.00109236
-0.00028196
-6.26228e-06
0.0012856
-0.000378794
0.00014084
0.00155874
-5.99671e-05
0.000169006
0.00155231
-2.69713e-05
0.000215553
0.00131786
-0.000176551
0.000192946
0.00127785
-3.83556e-05
4.67415e-05
0.00147882
-0.000151231
0.000162775
0.00153392
2.16067e-05
0.000248075
0.00135201
0.000330263
-2.95249e-05
0.00124791
5.85074e-05
-4.89467e-05
0.00127463
0.000207454
0.00017424
0.00126218
7.7178e-05
0.000287781
0.00130137
-0.000325212
0.000115686
0.00132837
0.000385472
-3.55575e-05
0.00139012
0.000418852
2.8582e-05
0.00139111
-0.000321368
0.000179328
-0.000144734
0.000160845
0.0010165
0.000110124
3.97205e-05
0.00104903
-7.95771e-06
-6.77403e-05
0.00122844
7.55712e-05
-0.000209194
0.00125404
3.44289e-05
-0.0001653
0.00118088
0.000255056
-0.000193497
0.00131969
0.000631521
-0.000136498
0.0012888
0.00047686
-0.000121684
0.00116514
-5.51291e-05
-0.000127878
0.00119678
-0.000105808
-8.97328e-05
0.00120515
-2.90868e-05
-2.5109e-05
0.00121772
-8.17263e-05
0.000159734
0.00122041
0.000194264
1.1805e-05
0.00119167
0.000229357
-6.97288e-05
0.00110559
-0.000184549
0.000123417
0.00105521
-0.000429444
9.84488e-05
0.00121856
-0.000269949
-4.54691e-05
0.00133547
-2.49436e-05
-8.78538e-06
0.00106128
7.84979e-06
0.000202122
0.000886165
-0.000373356
8.21245e-05
0.00101958
-0.000290156
-6.76366e-05
0.00110914
2.48618e-05
9.23858e-05
0.00110978
0.000123918
9.8182e-05
0.0010789
0.000144271
-4.57082e-05
0.00101193
-0.000261178
8.38827e-06
0.00109632
-0.000367329
-8.84186e-06
0.00135994
-7.93062e-05
5.14607e-05
0.00144651
-0.000134779
0.000271771
0.00116357
-0.000123813
0.000167407
0.00100641
8.60364e-05
-9.98986e-05
0.00120746
-0.000159527
3.25485e-06
0.00137694
0.000174854
2.95329e-06
0.00130101
0.000592296
-0.00010142
0.0011263
0.000233248
7.98408e-05
0.00109088
0.00025427
0.000203719
0.00120469
2.62799e-05
0.000155221
0.00120174
-0.000281179
9.77787e-05
0.0011309
0.000439255
4.60957e-05
0.00122223
0.000257705
9.24474e-05
0.00123635
-0.000415021
3.49319e-05
-6.16318e-05
-2.16745e-07
0.00105302
0.000239417
-6.7038e-05
0.00100141
3.58189e-05
-0.000141039
0.0011233
-6.61109e-05
-0.000150112
0.00106439
0.000152397
-0.000117312
0.000955313
0.000476737
-0.000196461
0.00109909
0.00052975
-0.000142449
0.00110295
0.000473097
-8.68622e-05
0.00104276
3.26528e-05
7.93327e-06
0.00107231
-0.000195331
5.0884e-05
0.00101056
-1.62039e-05
0.000109586
0.00101412
-5.57425e-05
0.000159441
0.00110597
0.000101248
-1.58868e-05
0.00117407
5.56604e-05
-2.80067e-05
0.00115076
-0.00030049
0.000247809
0.00107237
-0.000371452
0.00017443
0.00109764
-0.000323526
-1.48137e-05
0.00105366
3.59336e-05
3.51502e-05
0.000768913
0.000254898
0.000185895
0.000618831
-0.000242306
9.495e-05
0.000731341
-0.000270333
3.36721e-06
0.00089382
-9.91676e-08
5.71465e-05
0.000973072
0.000142341
-9.40749e-06
0.0010342
0.000161294
-8.99583e-05
0.00106534
-0.000272535
1.24699e-05
0.00106147
-0.000266646
1.7056e-05
0.00111314
3.43534e-06
-3.86555e-05
0.00124875
-0.000315391
0.000215791
0.00121203
-0.000211963
0.000237543
0.00108492
0.000195259
4.4997e-06
0.0010704
-9.80945e-05
-9.39557e-05
0.00113308
0.000245051
-0.000220276
0.00113458
0.00060344
-0.000100594
0.00102564
0.000301572
5.42925e-05
0.00100552
0.000272143
0.000172787
0.00106893
-2.04832e-05
0.000223219
0.00105214
-0.000214287
7.42008e-05
0.00109708
0.000339058
0.000105417
0.00113951
8.4387e-05
0.000244063
0.00107395
-0.000223196
-7.16658e-05
0.000204884
-0.000213039
0.000987897
0.000199883
-6.79038e-05
0.000925477
6.25805e-05
-0.000131816
0.000942937
-0.000156579
3.41421e-05
0.000856438
0.000313878
-5.90222e-05
0.000856788
0.000605584
-0.000166932
0.000960046
0.000421741
-1.02758e-05
0.00091362
0.000487102
0.000187148
0.000858571
9.84596e-05
0.000142523
0.000877287
-0.000191447
6.64459e-05
0.000887216
-3.76339e-05
0.000108315
0.000882956
1.21234e-05
0.000111699
0.000911289
8.57819e-05
-2.973e-05
0.000919093
-1.46722e-05
0.00012442
0.000849233
-0.000306386
0.000331461
0.000803737
-0.000303707
0.00013674
0.000866496
-0.000256871
-4.74892e-05
0.000767128
0.000196733
0.00011928
0.000588228
0.000328967
0.000226481
0.000543118
-0.000334474
0.000110583
0.000655251
-0.000351795
1.21087e-05
0.000786985
-2.22117e-05
4.84119e-05
0.000841729
0.000246672
6.17773e-07
0.000897348
0.000171942
-3.6884e-05
0.000928647
-0.000310253
6.05848e-05
0.000970769
-0.000194514
2.69006e-05
0.000919443
0.000197831
-2.72618e-05
0.000869401
-0.000311342
0.00017686
0.000999325
-0.000442151
0.000272716
0.00111194
3.76089e-05
0.000242596
0.00107043
-0.000192646
0.000121867
0.00109731
0.000148065
-9.27821e-05
0.00107333
0.00057695
-8.72165e-05
0.000975468
0.000359422
5.37024e-05
0.000943303
0.000339877
0.000247305
0.000944548
3.96639e-05
0.000208221
0.0010461
-0.000349394
2.16681e-05
0.00106175
0.000184483
0.000121269
0.000941485
3.46189e-05
0.000265391
0.000841747
-4.10624e-05
-6.64042e-05
0.000272264
-0.000169596
0.000834349
0.000172599
-2.84042e-05
0.000768399
0.000129861
-0.000166347
0.000805275
-0.00013164
4.48937e-05
0.000776276
0.000322257
-4.3808e-06
0.000814697
0.000579365
-0.000153308
0.000879103
0.000317656
1.18107e-05
0.000885925
0.000418645
0.000209473
0.000851552
0.000148097
0.000167336
0.00086064
-0.000108334
5.06427e-05
0.000859966
-3.73722e-05
5.60676e-05
0.000752546
0.000148677
3.75538e-05
0.000739494
5.242e-05
-2.83016e-05
0.000791977
-0.000213938
0.000159817
0.000718417
-0.000300321
0.000294335
0.000736263
-0.000373037
2.72151e-05
0.000822069
-0.000250702
-0.000191819
0.000724914
0.000406491
1.28725e-05
0.000602641
0.000400897
8.85447e-05
0.000638747
-0.000512863
8.98557e-05
0.000759761
-0.000430505
3.93368e-05
0.000734294
0.000103969
2.68298e-05
0.000686717
0.000370793
-3.62933e-05
0.000731574
0.000173815
-6.79801e-05
0.000767415
-0.000284463
2.61672e-05
0.000836985
-5.40527e-05
-0.000130133
0.000820859
0.000439824
-5.9846e-06
0.000723571
-0.000263696
0.000270592
0.000786846
-0.000542739
0.000216039
0.000825772
3.53142e-05
0.000182678
0.000806312
-0.000172146
5.53609e-05
0.000956847
-6.7806e-05
-8.26835e-05
0.00105465
0.000531722
-4.53867e-05
0.00103718
0.000387714
7.53517e-05
0.000947692
0.000435694
0.000193
0.000775326
0.000299869
9.71475e-05
0.000838517
-0.000477479
-4.38099e-05
0.000918791
-9.57098e-05
9.05081e-05
0.000839147
6.09725e-05
0.00014421
0.000802418
0.000115812
-3.34391e-05
0.000235258
-3.59813e-05
0.000781309
0.000155565
-0.000130433
0.000745816
0.00018826
-0.00014548
0.000792636
-0.000133598
-3.46259e-05
0.000755804
0.000379182
-1.15991e-05
0.000782194
0.000550979
-0.000115976
0.000860219
0.000204742
-2.72935e-05
0.000851592
0.000403981
0.000143794
0.000805752
0.000219149
0.000139574
0.000818704
-2.67815e-05
5.58324e-06
0.000816638
3.32749e-05
6.96216e-05
0.000763101
0.000240113
5.84747e-05
0.000762083
2.62533e-05
-1.88442e-05
0.000817359
-0.000384376
5.5238e-05
0.000769798
-0.000311488
0.000183773
0.000712176
-0.000459235
2.39839e-05
0.000715612
-0.000303431
-0.000120351
0.000687857
0.00051563
3.43625e-05
0.000550458
0.000454594
-7.50392e-05
0.000500212
-0.000590435
-2.25429e-05
0.000647654
-0.000589138
0.000119117
0.000666875
0.000207389
5.04315e-05
0.000618506
0.000452596
-3.14571e-05
0.00060726
0.000134516
2.34793e-05
0.000652525
-0.000250394
1.80117e-05
0.00076811
0.000175602
-0.000134267
0.000727842
0.000617382
2.06417e-05
0.000631211
-0.000377901
0.00030467
0.000764994
-0.000618078
0.000116518
0.000801896
2.35124e-05
3.09316e-05
0.000631741
-1.20502e-05
-2.86148e-05
0.000741818
-0.000145018
-0.000161139
0.000896953
0.00037486
-0.000152353
0.000871075
0.000352561
-1.19375e-05
0.000850365
0.000443497
0.00018162
0.000728588
0.000494694
6.18364e-05
0.000661601
-0.000484566
-7.53267e-05
0.000728577
-0.000313077
0.000110705
0.000684331
0.000148409
0.000111985
0.000669409
0.000261475
-8.05142e-05
5.00225e-05
-8.32023e-05
0.00064479
0.000129701
-7.23856e-05
0.000677391
0.000164507
-0.000111886
0.000700677
-0.000151028
8.21708e-07
0.000700801
0.000440889
-1.39314e-05
0.000756033
0.000550116
-0.000105997
0.000780728
0.000123272
-9.35241e-05
0.000798607
0.00035173
4.42242e-05
0.000771306
0.000232016
0.000132601
0.000766062
-1.98811e-05
6.47567e-05
0.000763087
0.000118205
3.11463e-05
0.000712388
0.000297245
2.98298e-05
0.000687616
8.53868e-05
3.13373e-05
0.000738121
-0.000438672
0.000127178
0.000674316
-0.000328821
0.000169847
0.000524784
-0.000476108
4.41988e-05
0.000551581
-0.000329806
-5.21908e-05
0.000660685
0.000445048
6.28985e-05
0.000528885
0.000499787
-3.26049e-05
0.000399938
-0.000581672
-7.86729e-05
0.000507394
-0.000747692
0.000195868
0.0005709
0.000226732
0.000128642
0.000581284
0.000394118
5.77469e-05
0.000553426
0.000139458
7.51662e-05
0.000567333