/*--------------------------------*- C++ -*----------------------------------*\
  =========                 |
  \\      /  F ield         | OpenFOAM: The Open Source CFD Toolbox
   \\    /   O peration     | Website:  https://openfoam.org
    \\  /    A nd           | Version:  10
     \\/     M anipulation  |
\*---------------------------------------------------------------------------*/
FoamFile
{
    format      ascii;
    class       volScalarField;
    location    "42.5";
    object      pMean;
}
// * * * * * * * * * * * * * * * * * * * * * * * * * * * * * * * * * * * * * //

dimensions      [0 2 -2 0 0 0 0];

internalField   nonuniform List<scalar> 
25600
(
-2.50994e-06
-1.10839e-06
-2.77534e-06
6.73717e-07
-4.41788e-08
4.4802e-06
-8.32719e-07
-2.27172e-06
-4.45232e-06
-1.16366e-07
-9.3338e-07
1.91244e-06
7.16851e-08
1.96149e-06
1.07919e-06
1.29443e-06
2.69859e-07
2.95227e-09
-7.0878e-07
9.98472e-07
1.0499e-06
1.43577e-06
1.79848e-06
5.34006e-06
7.72585e-06
4.31574e-06
2.6951e-06
3.27865e-06
4.9727e-06
5.18919e-06
6.79504e-06
3.15534e-07
1.90551e-06
-2.95925e-07
2.14275e-06
-1.94955e-06
-9.15815e-07
-9.08228e-07
-3.67568e-07
1.31386e-06
-2.30285e-06
-8.03087e-07
-2.40354e-06
1.00581e-06
3.12222e-07
4.72105e-06
-6.20857e-07
-1.92892e-06
-4.10984e-06
2.34165e-07
-6.78562e-07
2.10494e-06
2.72558e-07
2.36964e-06
1.43241e-06
1.55274e-06
4.70143e-07
2.97363e-07
-4.18864e-07
1.27561e-06
1.1236e-06
1.57736e-06
2.01041e-06
5.66564e-06
8.00318e-06
4.44305e-06
2.89659e-06
3.50665e-06
5.28945e-06
5.48316e-06
7.09364e-06
3.9697e-07
1.96636e-06
7.55583e-08
2.35717e-06
-1.67425e-06
-6.85776e-07
-5.09619e-07
1.2958e-08
1.77058e-06
-1.94184e-06
-8.33151e-07
-2.1735e-06
1.83582e-06
9.26688e-07
5.16166e-06
-6.84374e-07
-1.7137e-06
-3.48953e-06
9.58467e-07
-2.91928e-07
2.50618e-06
7.76282e-07
2.63537e-06
1.76461e-06
2.01976e-06
8.59796e-07
6.63136e-07
8.86267e-08
1.8535e-06
1.69068e-06
1.73484e-06
2.33877e-06
6.35594e-06
8.68997e-06
4.60987e-06
2.85241e-06
3.90078e-06
5.70271e-06
6.18387e-06
7.13668e-06
8.01144e-07
2.36512e-06
5.1645e-07
2.94181e-06
-1.3678e-06
-7.04323e-07
-2.25559e-07
3.4322e-07
2.1865e-06
-1.86008e-06
-8.96704e-07
-1.44744e-06
2.33843e-06
1.30931e-06
5.53063e-06
-6.19206e-07
-1.66251e-06
-3.32825e-06
1.11768e-06
-5.61004e-08
2.47915e-06
8.36301e-07
3.43166e-06
2.31136e-06
2.46617e-06
1.28241e-06
1.17335e-06
3.69966e-07
1.84772e-06
1.45805e-06
2.02996e-06
2.33504e-06
7.20381e-06
9.3583e-06
4.67799e-06
2.91496e-06
3.86308e-06
6.10585e-06
6.70297e-06
7.56273e-06
3.28512e-07
2.00774e-06
1.03454e-06
3.04932e-06
-1.15715e-06
-1.05842e-06
-5.62261e-09
9.63445e-07
2.76005e-06
-3.16779e-06
-2.92934e-06
-3.32693e-06
1.39581e-06
8.07337e-07
4.04722e-06
-1.95386e-06
-2.73413e-06
-4.36239e-06
2.59084e-07
-1.58873e-06
6.00374e-07
-3.87486e-07
1.93876e-06
1.36647e-06
1.85634e-06
-3.81439e-08
5.87068e-08
-2.08197e-07
1.64502e-06
1.06118e-06
7.73213e-07
1.47145e-06
5.78395e-06
8.6227e-06
3.78657e-06
1.56103e-06
2.68219e-06
4.06377e-06
5.21679e-06
5.78529e-06
-6.92254e-07
5.23995e-07
-2.31325e-07
1.64711e-06
-2.04983e-06
-2.91196e-06
-1.57807e-06
-1.18507e-06
1.32832e-06
-6.65127e-06
-6.32863e-06
-5.95933e-06
-1.8276e-06
-2.64639e-06
6.17251e-07
-6.60131e-06
-7.00647e-06
-8.00575e-06
-3.44563e-06
-4.99682e-06
-3.00061e-06
-3.92641e-06
-9.64143e-07
-1.59303e-06
-1.50998e-06
-3.18988e-06
-3.21256e-06
-3.65524e-06
-2.49121e-06
-2.54298e-06
-2.64001e-06
-2.17508e-06
3.16229e-06
4.30545e-06
-9.4558e-07
-2.79411e-06
-1.55103e-06
-3.15183e-07
5.94405e-07
1.72291e-06
-6.02669e-06
-4.15843e-06
-4.12692e-06
-2.46789e-06
-6.35083e-06
-6.10526e-06
-5.33704e-06
-4.92762e-06
-3.09334e-06
-1.23213e-05
-1.11825e-05
-1.15409e-05
-5.6449e-06
-7.08947e-06
-4.48739e-06
-1.10303e-05
-1.16538e-05
-1.37015e-05
-9.27835e-06
-1.04224e-05
-8.98872e-06
-9.05424e-06
-6.09193e-06
-5.81084e-06
-6.61731e-06
-7.36313e-06
-8.30915e-06
-8.17183e-06
-6.34025e-06
-6.63251e-06
-7.19861e-06
-6.33433e-06
-2.97763e-06
-1.34132e-06
-7.11922e-06
-8.73787e-06
-7.93121e-06
-6.97238e-06
-5.55827e-06
-5.13711e-06
-1.0081e-05
-9.75693e-06
-9.79911e-06
-7.60137e-06
-1.1488e-05
-1.32645e-05
-1.08883e-05
-1.02096e-05
-8.85289e-06
-1.62658e-05
-1.47649e-05
-1.45619e-05
-1.06495e-05
-1.21838e-05
-9.44693e-06
-1.50964e-05
-1.61817e-05
-1.86313e-05
-1.47159e-05
-1.44724e-05
-1.27059e-05
-1.26983e-05
-1.08127e-05
-1.06564e-05
-1.09824e-05
-1.15181e-05
-1.25694e-05
-1.28819e-05
-1.04234e-05
-1.11168e-05
-1.03646e-05
-1.05846e-05
-8.09287e-06
-7.57499e-06
-1.27322e-05
-1.45894e-05
-1.35214e-05
-1.29173e-05
-1.14076e-05
-9.86106e-06
-1.51102e-05
-1.49796e-05
-1.44322e-05
-1.32339e-05
-1.57406e-05
-1.75155e-05
-1.52878e-05
-1.57202e-05
-1.34173e-05
-1.76098e-05
-1.60794e-05
-1.63627e-05
-1.21252e-05
-1.46133e-05
-1.19118e-05
-1.61507e-05
-1.73185e-05
-1.93139e-05
-1.66407e-05
-1.5856e-05
-1.46578e-05
-1.43376e-05
-1.23729e-05
-1.16209e-05
-1.29709e-05
-1.32748e-05
-1.3767e-05
-1.37632e-05
-1.23767e-05
-1.18608e-05
-1.10201e-05
-1.14534e-05
-1.05125e-05
-1.03635e-05
-1.48039e-05
-1.69614e-05
-1.62527e-05
-1.50541e-05
-1.44895e-05
-1.32348e-05
-1.60866e-05
-1.66975e-05
-1.62314e-05
-1.55056e-05
-1.73563e-05
-1.94884e-05
-1.72377e-05
-1.74513e-05
-1.53988e-05
-1.48603e-05
-1.29792e-05
-1.29507e-05
-1.07715e-05
-1.25829e-05
-1.00856e-05
-1.25322e-05
-1.3667e-05
-1.57055e-05
-1.4409e-05
-1.31635e-05
-1.12937e-05
-1.08684e-05
-1.0086e-05
-1.00575e-05
-1.07927e-05
-1.10425e-05
-1.06298e-05
-1.21231e-05
-1.00766e-05
-1.00805e-05
-8.47691e-06
-9.10251e-06
-8.69069e-06
-8.67157e-06
-1.18959e-05
-1.4261e-05
-1.37349e-05
-1.27937e-05
-1.25545e-05
-1.10675e-05
-1.29795e-05
-1.40558e-05
-1.35078e-05
-1.32822e-05
-1.38953e-05
-1.62234e-05
-1.44286e-05
-1.477e-05
-1.31397e-05
-1.08731e-05
-9.39064e-06
-9.67504e-06
-7.70565e-06
-8.93149e-06
-7.29209e-06
-8.28122e-06
-9.22129e-06
-1.11418e-05
-1.064e-05
-9.51024e-06
-8.07761e-06
-7.6656e-06
-6.89495e-06
-6.84246e-06
-7.34495e-06
-7.32357e-06
-6.92173e-06
-7.7353e-06
-6.96904e-06
-6.87112e-06
-5.50069e-06
-5.69401e-06
-5.5833e-06
-5.47033e-06
-7.82868e-06
-1.01318e-05
-9.65808e-06
-8.90137e-06
-8.7039e-06
-7.6832e-06
-8.41525e-06
-9.42739e-06
-9.36283e-06
-9.6196e-06
-9.83865e-06
-1.17728e-05
-1.0277e-05
-1.06884e-05
-9.5245e-06
-7.80762e-06
-6.65003e-06
-6.51502e-06
-5.14155e-06
-6.24164e-06
-5.21567e-06
-5.3876e-06
-5.93398e-06
-7.55515e-06
-7.59091e-06
-6.87957e-06
-5.25617e-06
-4.74022e-06
-4.45537e-06
-4.67599e-06
-4.78791e-06
-5.0577e-06
-4.24992e-06
-5.21687e-06
-4.85405e-06
-4.90153e-06
-3.59503e-06
-3.34661e-06
-3.2298e-06
-3.3023e-06
-4.9114e-06
-6.75053e-06
-6.53648e-06
-5.94119e-06
-5.84379e-06
-5.2252e-06
-5.36405e-06
-6.18671e-06
-6.11127e-06
-6.66584e-06
-6.49829e-06
-8.04086e-06
-6.87191e-06
-7.40834e-06
-6.62719e-06
-5.40143e-06
-4.50084e-06
-4.25606e-06
-3.305e-06
-4.16847e-06
-3.60868e-06
-3.32591e-06
-3.51096e-06
-4.85142e-06
-5.21135e-06
-4.74609e-06
-3.27123e-06
-2.87874e-06
-2.68732e-06
-2.85231e-06
-2.94752e-06
-3.06512e-06
-2.2537e-06
-2.92204e-06
-2.95315e-06
-3.17383e-06
-2.05064e-06
-1.51243e-06
-1.44007e-06
-1.63753e-06
-2.69873e-06
-4.11734e-06
-4.1446e-06
-3.88841e-06
-3.76833e-06
-3.58337e-06
-3.2314e-06
-3.74483e-06
-3.68179e-06
-4.35827e-06
-4.05283e-06
-5.32455e-06
-4.49755e-06
-4.90105e-06
-4.42375e-06
-3.44463e-06
-2.77087e-06
-2.45098e-06
-1.80701e-06
-2.39634e-06
-2.16577e-06
-1.83038e-06
-1.7389e-06
-2.74628e-06
-3.14421e-06
-3.04309e-06
-1.79499e-06
-1.32583e-06
-1.14269e-06
-1.38225e-06
-1.37875e-06
-1.44167e-06
-7.72684e-07
-1.1929e-06
-1.38681e-06
-1.74354e-06
-8.52375e-07
-3.1722e-07
-1.15096e-07
-3.95999e-07
-1.07856e-06
-2.13644e-06
-2.343e-06
-2.39142e-06
-2.25927e-06
-2.22737e-06
-1.69237e-06
-1.90401e-06
-1.83098e-06
-2.54456e-06
-2.31229e-06
-3.20075e-06
-2.60344e-06
-2.90606e-06
-2.68966e-06
-2.05469e-06
-1.58617e-06
-1.25226e-06
-8.02344e-07
-1.23782e-06
-1.2064e-06
-9.49798e-07
-6.71886e-07
-1.32153e-06
-1.6886e-06
-1.78874e-06
-8.54288e-07
-3.59122e-07
-1.92304e-07
-3.61314e-07
-3.59087e-07
-4.04687e-07
1.23386e-07
-1.57269e-07
-3.14197e-07
-7.6125e-07
-7.10372e-08
3.63642e-07
6.97826e-07
4.33299e-07
-7.6953e-08
-9.15315e-07
-1.13007e-06
-1.36694e-06
-1.21099e-06
-1.22191e-06
-7.00465e-07
-7.53078e-07
-6.60785e-07
-1.30191e-06
-1.15947e-06
-1.76224e-06
-1.34276e-06
-1.57719e-06
-1.53013e-06
-1.2801e-06
-9.74923e-07
-6.6715e-07
-3.39088e-07
-6.49465e-07
-7.03144e-07
-5.42997e-07
-1.69772e-07
-5.71509e-07
-8.40959e-07
-1.04186e-06
-4.20325e-07
-7.11712e-09
2.0071e-07
1.22271e-07
1.07223e-07
7.73747e-08
4.77167e-07
3.04106e-07
2.25832e-07
-2.25753e-07
2.62401e-07
5.64093e-07
9.54397e-07
7.4714e-07
3.21026e-07
-3.27266e-07
-5.10361e-07
-7.95134e-07
-6.84729e-07
-7.21755e-07
-2.73911e-07
-2.10084e-07
-1.05691e-07
-6.18537e-07
-5.52819e-07
-9.82451e-07
-6.8399e-07
-8.3943e-07
-8.67511e-07
-8.94233e-07
-6.74457e-07
-4.4642e-07
-1.9968e-07
-4.41382e-07
-4.89127e-07
-4.063e-07
-6.0211e-08
-2.83531e-07
-4.39963e-07
-6.59349e-07
-2.97309e-07
3.43564e-08
2.49063e-07
2.53354e-07
2.65821e-07
2.24741e-07
5.51065e-07
4.11459e-07
4.03939e-07
-2.17794e-08
3.00129e-07
5.00557e-07
8.39631e-07
7.14184e-07
4.11989e-07
-6.24615e-08
-2.33521e-07
-5.249e-07
-4.94823e-07
-5.34838e-07
-1.8416e-07
-6.10751e-08
1.00014e-07
-2.87912e-07
-2.7068e-07
-5.89661e-07
-3.9455e-07
-4.8858e-07
-5.79742e-07
-6.93952e-07
-5.38949e-07
-3.73514e-07
-1.76554e-07
-3.82473e-07
-4.16254e-07
-3.93945e-07
-8.75586e-08
-2.16834e-07
-2.92927e-07
-4.55361e-07
-2.84073e-07
-2.15789e-08
1.67085e-07
2.24514e-07
2.68726e-07
2.37775e-07
5.02516e-07
3.63699e-07
3.95826e-07
3.98578e-08
2.47575e-07
3.62177e-07
6.19462e-07
5.66115e-07
3.78245e-07
4.69737e-08
-1.2257e-07
-3.8604e-07
-4.36552e-07
-4.52809e-07
-1.9333e-07
-5.94178e-08
1.39821e-07
-1.46711e-07
-1.36236e-07
-3.87903e-07
-2.74576e-07
-3.4627e-07
-4.66396e-07
-5.65604e-07
-4.55747e-07
-3.56845e-07
-1.85335e-07
-3.71101e-07
-3.84148e-07
-4.11225e-07
-1.76767e-07
-2.5173e-07
-2.8434e-07
-3.4455e-07
-2.82886e-07
-8.02604e-08
5.08641e-08
1.26939e-07
2.1717e-07
1.90196e-07
4.19919e-07
2.79813e-07
3.19718e-07
5.12213e-08
1.69142e-07
2.36412e-07
4.23441e-07
4.24532e-07
3.0984e-07
8.84072e-08
-8.37323e-08
-2.97694e-07
-3.93442e-07
-4.03903e-07
-2.14251e-07
-1.08328e-07
9.78993e-08
-1.13968e-07
-6.75984e-08
-2.62545e-07
-2.28602e-07
-2.71884e-07
-4.10844e-07
-4.76676e-07
-3.87342e-07
-3.47877e-07
-1.94845e-07
-3.71325e-07
-3.70793e-07
-4.3568e-07
-2.56455e-07
-2.87116e-07
-3.08214e-07
-2.75173e-07
-2.90323e-07
-1.23555e-07
-5.05102e-08
2.07553e-08
1.52361e-07
1.1845e-07
3.31444e-07
2.0114e-07
2.32552e-07
4.45207e-08
1.00876e-07
1.54133e-07
2.82266e-07
3.03673e-07
2.36034e-07
9.25658e-08
-7.29734e-08
-2.30669e-07
-3.39761e-07
-3.53546e-07
-2.19638e-07
-1.67068e-07
4.06044e-08
-1.13126e-07
-3.76478e-08
-1.65811e-07
-2.00967e-07
-2.22313e-07
-3.83756e-07
-4.02682e-07
-3.26482e-07
-3.35431e-07
-1.87587e-07
-3.70335e-07
-3.51576e-07
-4.3954e-07
-3.00891e-07
-3.00447e-07
-3.37826e-07
-2.34871e-07
-3.05562e-07
-1.60515e-07
-1.16145e-07
-7.07632e-08
9.01732e-08
5.03679e-08
2.54594e-07
1.34274e-07
1.51703e-07
3.59517e-08
4.15875e-08
1.04311e-07
1.92834e-07
2.1467e-07
1.74339e-07
9.23255e-08
-5.82436e-08
-1.62834e-07
-2.79009e-07
-3.02042e-07
-2.13833e-07
-2.12773e-07
-8.95596e-09
-1.24517e-07
-3.79576e-08
-1.04207e-07
-1.86533e-07
-1.77637e-07
-3.53819e-07
-3.39062e-07
-2.76891e-07
-3.33112e-07
-1.81043e-07
-3.6338e-07
-3.25304e-07
-4.24042e-07
-3.19825e-07
-2.95144e-07
-3.66046e-07
-2.10156e-07
-3.22549e-07
-1.91055e-07
-1.54036e-07
-1.42988e-07
3.24034e-08
-2.52581e-08
1.82414e-07
7.73646e-08
8.63262e-08
3.43998e-08
-6.16413e-09
7.33457e-08
1.29551e-07
1.49588e-07
1.26504e-07
8.85094e-08
-4.3917e-08
-1.04291e-07
-2.1968e-07
-2.55762e-07
-1.88235e-07
-2.26443e-07
-3.6846e-08
-1.41357e-07
-6.47427e-08
-7.49868e-08
-1.85598e-07
-1.29911e-07
-3.11753e-07
-2.84884e-07
-2.36163e-07
-3.36869e-07
-1.76455e-07
-3.52333e-07
-2.93862e-07
-3.95592e-07
-3.24129e-07
-2.77963e-07
-3.81692e-07
-1.91933e-07
-3.28599e-07
-2.11923e-07
-1.7349e-07
-2.00166e-07
-8.88053e-09
-8.73098e-08
1.20352e-07
3.88272e-08
3.88473e-08
3.90371e-08
-4.15578e-08
4.87004e-08
7.97998e-08
1.01411e-07
9.14711e-08
7.1958e-08
-3.74409e-08
-6.50908e-08
-1.64105e-07
-2.05029e-07
-1.51184e-07
-2.26877e-07
-5.28116e-08
-1.50379e-07
-9.58594e-08
-6.35116e-08
-1.94263e-07
-9.44075e-08
-2.72974e-07
-2.52881e-07
-2.05205e-07
-3.36044e-07
-1.75392e-07
-3.38696e-07
-2.66678e-07
-3.57974e-07
-3.09745e-07
-2.45634e-07
-3.78333e-07
-1.76719e-07
-3.23406e-07
-2.31319e-07
-1.79335e-07
-2.35072e-07
-3.75621e-08
-1.35619e-07
6.4836e-08
2.35589e-09
-3.53829e-09
4.23397e-08
-7.26062e-08
2.47328e-08
2.90592e-08
4.8528e-08
5.30848e-08
4.55264e-08
-3.26334e-08
-4.31858e-08
-1.18148e-07
-1.64168e-07
-1.11808e-07
-2.09295e-07
-5.2885e-08
-1.44051e-07
-1.26824e-07
-6.04984e-08
-2.11369e-07
-8.34362e-08
-2.49202e-07
-2.31997e-07
-1.77377e-07
-3.19886e-07
-1.72826e-07
-3.18439e-07
-2.4707e-07
-3.19339e-07
-2.92109e-07
-2.19193e-07
-3.63141e-07
-1.70081e-07
-3.04109e-07
-2.44313e-07
-1.77717e-07
-2.54936e-07
-6.17471e-08
-1.65572e-07
1.73666e-08
-2.80082e-08
-4.30554e-08
3.99759e-08
-9.56063e-08
7.43261e-09
-1.3934e-08
2.91519e-09
2.08527e-08
1.07973e-08
-2.76006e-08
-3.66102e-08
-8.27184e-08
-1.34006e-07
-7.74837e-08
-1.86819e-07
-5.44988e-08
-1.31648e-07
-1.54428e-07
-6.1897e-08
-2.31852e-07
-9.13787e-08
-2.32781e-07
-2.24653e-07
-1.60582e-07
-2.97575e-07
-1.77432e-07
-2.91845e-07
-2.38132e-07
-2.85086e-07
-2.74592e-07
-2.02101e-07
-3.30793e-07
-1.71235e-07
-2.69299e-07
-2.48731e-07
-1.70574e-07
-2.52032e-07
-8.2501e-08
-1.74731e-07
-2.28567e-08
-5.05746e-08
-7.79784e-08
2.86286e-08
-1.14069e-07
-6.57244e-09
-5.33284e-08
-4.02506e-08
-9.2111e-09
-3.41303e-08
-2.37693e-08
-4.86912e-08
-6.12227e-08
-1.17944e-07
-6.31392e-08
-1.68964e-07
-6.59044e-08
-1.1608e-07
-1.75559e-07
-6.1599e-08
-2.39969e-07
-1.10176e-07
-2.21845e-07
-2.17047e-07
-1.55123e-07
-2.64708e-07
-1.84728e-07
-2.53404e-07
-2.31292e-07
-2.51956e-07
-2.542e-07
-1.95454e-07
-2.87029e-07
-1.84349e-07
-2.25261e-07
-2.4649e-07
-1.64698e-07
-2.31974e-07
-1.11048e-07
-1.73824e-07
-6.37917e-08
-7.30543e-08
-1.0577e-07
6.57237e-09
-1.27896e-07
-1.88813e-08
-7.848e-08
-6.55989e-08
-2.45978e-08
-7.86095e-08
-1.74768e-08
-7.48791e-08
-5.1248e-08
-1.10843e-07
-6.47238e-08
-1.51363e-07
-9.02207e-08
-1.05952e-07
-1.96059e-07
-6.89906e-08
-2.3465e-07
-1.31809e-07
-2.05749e-07
-2.15458e-07
-1.65049e-07
-2.2999e-07
-2.01352e-07
-2.16641e-07
-2.26728e-07
-2.23553e-07
-2.30844e-07
-2.00456e-07
-2.38269e-07
-2.09695e-07
-1.86112e-07
-2.40354e-07
-1.66786e-07
-1.93854e-07
-1.39573e-07
-1.53479e-07
-9.49963e-08
-8.52679e-08
-1.17953e-07
-1.95957e-08
-1.28244e-07
-2.6805e-08
-9.33086e-08
-7.85658e-08
-3.41378e-08
-1.22616e-07
-1.41128e-08
-1.12239e-07
-5.39245e-08
-1.10146e-07
-8.30875e-08
-1.34849e-07
-1.24142e-07
-1.02692e-07
-2.10065e-07
-8.68262e-08
-2.18073e-07
-1.60677e-07
-1.90688e-07
-2.11301e-07
-1.81955e-07
-1.88706e-07
-2.14422e-07
-1.8031e-07
-2.19294e-07
-2.00385e-07
-2.11505e-07
-2.06385e-07
-1.907e-07
-2.27734e-07
-1.52204e-07
-2.20488e-07
-1.75854e-07
-1.50102e-07
-1.69145e-07
-1.26618e-07
-1.19695e-07
-9.11943e-08
-1.15245e-07
-4.89161e-08
-1.18099e-07
-3.97609e-08
-1.03085e-07
-8.63651e-08
-4.15654e-08
-1.57886e-07
-1.12182e-08
-1.48138e-07
-6.54327e-08
-1.13381e-07
-1.12871e-07
-1.19067e-07
-1.5582e-07
-1.09358e-07
-2.12172e-07
-1.17649e-07
-1.92678e-07
-1.93446e-07
-1.75844e-07
-2.16172e-07
-2.10264e-07
-1.61726e-07
-2.26323e-07
-1.628e-07
-2.07472e-07
-1.82935e-07
-1.97774e-07
-2.05695e-07
-1.6077e-07
-2.35181e-07
-1.38515e-07
-1.9575e-07
-1.87758e-07
-1.13134e-07
-1.83395e-07
-1.02706e-07
-1.29318e-07
-9.76526e-08
-1.01951e-07
-8.04831e-08
-9.45748e-08
-5.66847e-08
-1.02228e-07
-8.38463e-08
-4.91608e-08
-1.69458e-07
-1.6306e-08
-1.70563e-07
-8.72861e-08
-1.17607e-07
-1.49149e-07
-1.06375e-07
-1.76369e-07
-1.2224e-07
-2.00144e-07
-1.55069e-07
-1.68083e-07
-2.27342e-07
-1.72092e-07
-2.1014e-07
-2.17575e-07
-1.48935e-07
-2.20836e-07
-1.74491e-07
-1.96494e-07
-1.80166e-07
-2.06381e-07
-1.96673e-07
-1.65336e-07
-2.2274e-07
-1.51102e-07
-1.65327e-07
-1.93061e-07
-9.61966e-08
-1.71711e-07
-9.6862e-08
-1.19597e-07
-1.02213e-07
-8.3157e-08
-1.0323e-07
-7.04206e-08
-7.46255e-08
-9.87126e-08
-7.33293e-08
-6.9972e-08
-1.50945e-07
-4.3182e-08
-1.71272e-07
-1.17557e-07
-1.23713e-07
-1.85414e-07
-1.08803e-07
-1.94534e-07
-1.47989e-07
-1.80618e-07
-1.87974e-07
-1.33359e-07
-2.3045e-07
-1.49102e-07
-2.50379e-07
-1.70814e-07
-9.76218e-08
-1.42157e-07
-1.66011e-07
-1.65498e-07
-1.67915e-07
-2.25284e-07
-1.70622e-07
-1.94493e-07
-1.83008e-07
-1.79611e-07
-1.2835e-07
-1.812e-07
-1.04113e-07
-1.21933e-07
-1.15591e-07
-8.41519e-08
-1.03755e-07
-6.82956e-08
-1.01342e-07
-5.35854e-08
-8.59476e-08
-8.83981e-08
-6.81443e-08
-9.9846e-08
-1.13459e-07
-8.76104e-08
-1.51383e-07
-1.36052e-07
-1.27568e-07
-2.01043e-07
-1.19825e-07
-2.06209e-07
-1.90051e-07
-1.85893e-07
-2.62379e-07
-1.81827e-07
-2.75565e-07
-2.06514e-07
-4.37331e-06
-8.1883e-06
-5.72527e-06
-3.55675e-06
-4.96893e-06
-6.68961e-06
-8.26286e-06
-5.31221e-06
-1.97618e-06
-2.2352e-07
-3.59542e-06
-5.83858e-06
-5.16305e-06
3.52761e-07
4.90302e-07
-1.82488e-06
-5.41415e-06
-3.92195e-06
-2.32706e-06
1.14042e-08
-2.27825e-06
-2.15261e-06
-4.67658e-06
8.77233e-07
-7.6747e-07
-3.49066e-06
-1.11937e-05
-8.62707e-06
-5.96296e-06
-4.58698e-06
-7.01836e-06
-1.1061e-05
-9.8287e-06
-6.26789e-06
-5.94552e-06
-5.26426e-06
-9.70994e-06
-8.04391e-06
-4.04417e-06
-6.22975e-06
-4.77917e-06
-8.74963e-06
-6.11618e-06
-3.89301e-06
-5.43051e-06
-7.13e-06
-8.71423e-06
-5.58241e-06
-2.35851e-06
-6.06629e-07
-4.07629e-06
-6.3197e-06
-5.531e-06
1.33416e-07
1.0624e-07
-2.21598e-06
-6.07195e-06
-4.30722e-06
-2.57699e-06
-2.91051e-07
-2.78672e-06
-2.51613e-06
-4.97924e-06
7.22563e-07
-1.06672e-06
-3.89881e-06
-1.16734e-05
-8.99342e-06
-6.19112e-06
-4.85909e-06
-7.48653e-06
-1.14989e-05
-1.01824e-05
-6.58418e-06
-6.38859e-06
-5.74742e-06
-1.01958e-05
-8.41741e-06
-4.20581e-06
-6.56494e-06
-5.60158e-06
-9.23272e-06
-6.69952e-06
-4.27355e-06
-6.11005e-06
-7.94609e-06
-9.72358e-06
-6.40131e-06
-2.66371e-06
-1.04066e-06
-4.92254e-06
-7.27268e-06
-6.28497e-06
-1.3031e-07
-4.13201e-07
-3.03477e-06
-6.55783e-06
-4.6965e-06
-3.26238e-06
-8.90272e-07
-3.42432e-06
-3.6744e-06
-5.95988e-06
2.29099e-07
-1.60674e-06
-4.96402e-06
-1.24905e-05
-9.45527e-06
-6.77026e-06
-5.27496e-06
-8.28532e-06
-1.2258e-05
-1.09094e-05
-6.90491e-06
-6.6866e-06
-6.417e-06
-1.10669e-05
-8.9137e-06
-4.95878e-06
-7.12505e-06
-6.78491e-06
-1.02721e-05
-7.68328e-06
-4.97164e-06
-6.95639e-06
-8.66517e-06
-1.09849e-05
-7.32241e-06
-3.84637e-06
-2.41399e-06
-6.04701e-06
-8.44057e-06
-7.39403e-06
-6.40701e-07
-1.44203e-06
-3.90764e-06
-8.54385e-06
-5.90348e-06
-3.94814e-06
-1.71797e-06
-4.87273e-06
-4.64859e-06
-6.7781e-06
-7.42876e-07
-2.72744e-06
-6.10887e-06
-1.42368e-05
-1.04911e-05
-7.80665e-06
-5.89286e-06
-9.66626e-06
-1.31217e-05
-1.14411e-05
-7.94729e-06
-7.87651e-06
-7.52707e-06
-1.27438e-05
-1.02731e-05
-5.3298e-06
-7.9135e-06
-7.26117e-06
-1.14774e-05
-8.9834e-06
-6.04204e-06
-8.45792e-06
-1.04468e-05
-1.23595e-05
-8.7453e-06
-4.57714e-06
-2.84748e-06
-7.94585e-06
-9.63386e-06
-8.77715e-06
-1.3991e-06
-3.12189e-06
-5.47064e-06
-8.90576e-06
-6.56073e-06
-5.30432e-06
-3.27631e-06
-6.27404e-06
-6.70967e-06
-9.07625e-06
-2.33387e-06
-3.93754e-06
-7.93531e-06
-1.50491e-05
-1.17934e-05
-8.82624e-06
-6.88064e-06
-1.05539e-05
-1.47151e-05
-1.30403e-05
-8.26107e-06
-8.24655e-06
-8.42752e-06
-1.28344e-05
-1.10658e-05
-6.70182e-06
-8.98147e-06
-9.44053e-06
-1.16954e-05
-9.86114e-06
-6.4686e-06
-8.74082e-06
-1.05495e-05
-1.34513e-05
-9.6693e-06
-6.94865e-06
-4.64004e-06
-8.90713e-06
-1.09138e-05
-1.02044e-05
-2.46928e-06
-4.75987e-06
-6.92704e-06
-1.14758e-05
-7.96645e-06
-6.2418e-06
-3.95127e-06
-6.70707e-06
-7.56501e-06
-1.01444e-05
-3.89951e-06
-5.35275e-06
-9.46682e-06
-1.76734e-05
-1.28643e-05
-9.96851e-06
-7.39981e-06
-1.22472e-05
-1.46586e-05
-1.28402e-05
-8.86114e-06
-9.13621e-06
-8.60538e-06
-1.45422e-05
-1.18817e-05
-7.4267e-06
-9.55375e-06
-8.42635e-06
-1.27657e-05
-1.08211e-05
-7.55747e-06
-1.0997e-05
-1.24634e-05
-1.37189e-05
-1.0236e-05
-7.6021e-06
-4.80851e-06
-9.78261e-06
-1.10809e-05
-1.10278e-05
-3.7226e-06
-5.65885e-06
-7.52471e-06
-1.27301e-05
-8.27345e-06
-6.667e-06
-4.88166e-06
-7.35404e-06
-8.30289e-06
-1.18338e-05
-5.86902e-06
-7.10957e-06
-1.08828e-05
-1.71658e-05
-1.37033e-05
-1.0703e-05
-8.2134e-06
-1.15064e-05
-1.50273e-05
-1.2832e-05
-8.8288e-06
-8.13571e-06
-9.78926e-06
-1.24082e-05
-1.12535e-05
-7.68634e-06
-9.80515e-06
-1.08194e-05
-1.23787e-05
-1.18096e-05
-8.51877e-06
-1.16481e-05
-1.28115e-05
-1.55499e-05
-1.22157e-05
-9.24825e-06
-7.19692e-06
-1.07351e-05
-1.0811e-05
-1.15517e-05
-5.27541e-06
-7.90386e-06
-8.69226e-06
-1.31653e-05
-8.82831e-06
-8.14013e-06
-4.95834e-06
-7.75857e-06
-8.59789e-06
-1.22208e-05
-8.17316e-06
-9.11064e-06
-1.15208e-05
-1.69994e-05
-1.42805e-05
-1.15423e-05
-8.5372e-06
-1.25142e-05
-1.37086e-05
-1.23026e-05
-8.55443e-06
-8.87987e-06
-8.31832e-06
-1.30327e-05
-1.18538e-05
-8.32698e-06
-9.66907e-06
-1.07675e-05
-1.31221e-05
-1.30602e-05
-1.07248e-05
-1.35633e-05
-1.45638e-05
-1.54586e-05
-1.27909e-05
-1.17509e-05
-9.44748e-06
-1.1716e-05
-1.1342e-05
-1.26507e-05
-7.95639e-06
-9.30269e-06
-1.06426e-05
-1.38949e-05
-1.03794e-05
-8.37312e-06
-6.70576e-06
-9.15454e-06
-1.00303e-05
-1.33924e-05
-1.09875e-05
-1.10449e-05
-1.25917e-05
-1.81309e-05
-1.58854e-05
-1.32194e-05
-1.09956e-05
-1.30484e-05
-1.47224e-05
-1.33063e-05
-1.05725e-05
-1.05399e-05
-1.08353e-05
-1.27529e-05
-1.24176e-05
-8.85824e-06
-1.05453e-05
-1.18651e-05
-1.2649e-05
-1.33e-05
-1.12858e-05
-1.40838e-05
-1.49927e-05
-1.61753e-05
-1.40702e-05
-1.2539e-05
-1.02416e-05
-1.20746e-05
-1.13493e-05
-1.28383e-05
-9.21081e-06
-1.04066e-05
-1.08163e-05
-1.3487e-05
-1.06586e-05
-9.87011e-06
-8.23818e-06
-1.02432e-05
-1.11572e-05
-1.42957e-05
-1.20004e-05
-1.19342e-05
-1.23423e-05
-1.66008e-05
-1.54885e-05
-1.40168e-05
-1.17061e-05
-1.29131e-05
-1.46582e-05
-1.38965e-05
-1.15213e-05
-1.14746e-05
-1.10863e-05
-1.25805e-05
-1.26471e-05
-1.01096e-05
-1.10277e-05
-1.04745e-05
-1.07409e-05
-1.14512e-05
-1.05892e-05
-1.28258e-05
-1.36269e-05
-1.40948e-05
-1.20584e-05
-1.114e-05
-9.53184e-06
-1.05015e-05
-9.5188e-06
-1.08884e-05
-8.57342e-06
-9.15777e-06
-9.32595e-06
-1.11316e-05
-9.43393e-06
-8.49267e-06
-7.8412e-06
-9.61879e-06
-9.95141e-06
-1.22058e-05
-1.10604e-05
-1.09553e-05
-1.11551e-05
-1.396e-05
-1.35171e-05
-1.23004e-05
-1.05911e-05
-1.11059e-05
-1.25324e-05
-1.22587e-05
-1.08311e-05
-1.04184e-05
-1.01701e-05
-1.08655e-05
-1.12612e-05
-9.42225e-06
-1.00665e-05
-8.53543e-06
-8.13167e-06
-8.9149e-06
-8.36567e-06
-1.03833e-05
-1.09074e-05
-1.10835e-05
-9.34985e-06
-9.03567e-06
-7.51867e-06
-8.33001e-06
-7.1898e-06
-8.24548e-06
-6.76421e-06
-7.04805e-06
-6.83579e-06
-8.09825e-06
-6.80206e-06
-6.78621e-06
-6.46319e-06
-7.78981e-06
-7.74887e-06
-9.46315e-06
-8.78396e-06
-8.76312e-06
-8.57873e-06
-1.04077e-05
-1.03402e-05
-9.62652e-06
-8.46075e-06
-8.44767e-06
-9.5641e-06
-9.55936e-06
-8.47022e-06
-8.0195e-06
-7.90773e-06
-8.33194e-06
-8.64778e-06
-7.60559e-06
-7.76421e-06
-6.48413e-06
-5.85378e-06
-6.40498e-06
-6.1404e-06
-7.86751e-06
-8.18475e-06
-8.18815e-06
-6.59377e-06
-6.45845e-06
-5.4833e-06
-6.16672e-06
-5.17159e-06
-5.81747e-06
-4.86388e-06
-4.92437e-06
-4.71866e-06
-5.37187e-06
-4.73726e-06
-4.86535e-06
-4.74313e-06
-5.80345e-06
-5.51571e-06
-6.58722e-06
-6.41346e-06
-6.51201e-06
-6.47691e-06
-7.4729e-06
-7.51447e-06
-7.08701e-06
-6.27925e-06
-6.10509e-06
-6.65609e-06
-6.80465e-06
-6.18345e-06
-5.76807e-06
-5.67344e-06
-5.91824e-06
-6.07535e-06
-5.66434e-06
-5.79138e-06
-4.69242e-06
-4.03036e-06
-4.33027e-06
-4.20236e-06
-5.65432e-06
-5.81512e-06
-5.77125e-06
-4.43289e-06
-4.4347e-06
-3.85333e-06
-4.44399e-06
-3.59132e-06
-3.86382e-06
-3.22256e-06
-3.25552e-06
-3.08243e-06
-3.43902e-06
-3.0081e-06
-3.28788e-06
-3.28663e-06
-4.11287e-06
-3.74949e-06
-4.43306e-06
-4.41488e-06
-4.60183e-06
-4.59716e-06
-5.16043e-06
-5.19651e-06
-4.95846e-06
-4.43202e-06
-4.19843e-06
-4.39852e-06
-4.54398e-06
-4.13714e-06
-3.92387e-06
-3.71533e-06
-3.9974e-06
-3.90511e-06
-4.00254e-06
-3.99296e-06
-3.29225e-06
-2.69519e-06
-2.80281e-06
-2.71316e-06
-3.85407e-06
-3.99805e-06
-3.93934e-06
-2.90859e-06
-2.9302e-06
-2.60708e-06
-3.04924e-06
-2.40813e-06
-2.39352e-06
-1.94972e-06
-1.96121e-06
-1.87006e-06
-2.0207e-06
-1.71908e-06
-2.06679e-06
-2.13884e-06
-2.775e-06
-2.48875e-06
-2.81547e-06
-2.82108e-06
-3.03235e-06
-3.11618e-06
-3.48286e-06
-3.51387e-06
-3.41408e-06
-3.05179e-06
-2.80439e-06
-2.74284e-06
-2.81317e-06
-2.53597e-06
-2.49405e-06
-2.25208e-06
-2.56086e-06
-2.32664e-06
-2.62962e-06
-2.69337e-06
-2.27311e-06
-1.80798e-06
-1.78328e-06
-1.67258e-06
-2.55407e-06
-2.71517e-06
-2.69156e-06
-1.93648e-06
-1.93263e-06
-1.72737e-06
-2.04652e-06
-1.57825e-06
-1.45817e-06
-1.15158e-06
-1.12916e-06
-1.09595e-06
-1.13903e-06
-9.10994e-07
-1.25877e-06
-1.34209e-06
-1.8818e-06
-1.63583e-06
-1.80148e-06
-1.74142e-06
-1.91821e-06
-2.04959e-06
-2.33077e-06
-2.36487e-06
-2.34403e-06
-2.05016e-06
-1.84084e-06
-1.65195e-06
-1.66422e-06
-1.44724e-06
-1.55378e-06
-1.31986e-06
-1.60035e-06
-1.32623e-06
-1.66612e-06
-1.78433e-06
-1.57476e-06
-1.2645e-06
-1.19987e-06
-1.0828e-06
-1.72569e-06
-1.88197e-06
-1.88282e-06
-1.35234e-06
-1.34803e-06
-1.19628e-06
-1.38184e-06
-1.07818e-06
-9.26439e-07
-7.09014e-07
-6.57917e-07
-6.3163e-07
-6.51105e-07
-4.4717e-07
-7.66598e-07
-8.54891e-07
-1.29362e-06
-1.10795e-06
-1.18322e-06
-1.06068e-06
-1.20972e-06
-1.34433e-06
-1.57984e-06
-1.62651e-06
-1.63626e-06
-1.41331e-06
-1.24477e-06
-1.00658e-06
-9.83904e-07
-7.90453e-07
-9.57261e-07
-7.61479e-07
-9.97559e-07
-7.84656e-07
-1.0603e-06
-1.20687e-06
-1.11309e-06
-9.17224e-07
-8.6824e-07
-7.5304e-07
-1.2003e-06
-1.3212e-06
-1.35796e-06
-9.87858e-07
-9.75396e-07
-8.72035e-07
-9.68018e-07
-7.86921e-07
-6.29708e-07
-4.64386e-07
-4.05344e-07
-3.59501e-07
-3.94088e-07
-2.24343e-07
-5.10453e-07
-5.65684e-07
-9.21621e-07
-7.86607e-07
-8.10614e-07
-6.66793e-07
-7.72729e-07
-8.99261e-07
-1.0811e-06
-1.14112e-06
-1.15364e-06
-9.95595e-07
-8.81165e-07
-6.43903e-07
-6.05319e-07
-4.23996e-07
-5.7943e-07
-4.23803e-07
-6.31682e-07
-4.96518e-07
-6.88313e-07
-8.44451e-07
-8.04132e-07
-6.86692e-07
-6.81647e-07
-5.83473e-07
-8.95894e-07
-9.58543e-07
-1.00903e-06
-7.48668e-07
-7.43861e-07
-6.83044e-07
-7.03268e-07
-6.18747e-07
-4.66906e-07
-3.44206e-07
-2.79488e-07
-2.03035e-07
-2.6562e-07
-1.0815e-07
-3.57469e-07
-3.97656e-07
-6.64477e-07
-5.78386e-07
-5.80776e-07
-4.52762e-07
-5.17112e-07
-6.12309e-07
-7.37001e-07
-8.02227e-07
-8.02566e-07
-7.12723e-07
-6.38315e-07
-4.44378e-07
-3.93024e-07
-2.08813e-07
-3.60713e-07
-2.4286e-07
-4.09689e-07
-3.46396e-07
-4.73345e-07
-6.22515e-07
-5.99975e-07
-5.37452e-07
-5.70616e-07
-4.77979e-07
-7.11859e-07
-7.10246e-07
-7.68435e-07
-5.81374e-07
-5.78476e-07
-5.72677e-07
-5.31939e-07
-5.17558e-07
-3.70278e-07
-2.79613e-07
-2.29361e-07
-1.25389e-07
-1.97997e-07
-4.4832e-08
-2.60224e-07
-2.93843e-07
-4.8317e-07
-4.44151e-07
-4.31491e-07
-3.28609e-07
-3.66692e-07
-4.33699e-07
-5.06218e-07
-5.84493e-07
-5.64436e-07
-5.22556e-07
-4.76171e-07
-3.17339e-07
-2.8201e-07
-1.00349e-07
-2.39482e-07
-1.51606e-07
-2.83965e-07
-2.71634e-07
-3.37167e-07
-4.86702e-07
-4.72516e-07
-4.37576e-07
-5.04922e-07
-4.09557e-07
-5.966e-07
-5.44189e-07
-6.06132e-07
-4.63059e-07
-4.59992e-07
-5.14074e-07
-4.21808e-07
-4.62753e-07
-3.13368e-07
-2.47436e-07
-2.16882e-07
-7.51903e-08
-1.58971e-07
-1.08552e-08
-1.98417e-07
-2.30397e-07
-3.50483e-07
-3.56753e-07
-3.3186e-07
-2.6116e-07
-2.77455e-07
-3.1572e-07
-3.42957e-07
-4.27177e-07
-4.00965e-07
-3.93478e-07
-3.64582e-07
-2.37757e-07
-2.26613e-07
-3.85892e-08
-1.6865e-07
-1.00843e-07
-1.97437e-07
-2.39144e-07
-2.63909e-07
-4.14606e-07
-3.95903e-07
-3.73822e-07
-4.63297e-07
-3.57762e-07
-5.19712e-07
-4.35686e-07
-5.06166e-07
-3.98438e-07
-3.79054e-07
-4.76619e-07
-3.36406e-07
-4.24195e-07
-2.76032e-07
-2.12933e-07
-2.1429e-07
-5.30976e-08
-1.52036e-07
6.17038e-09
-1.53725e-07
-1.85248e-07
-2.45815e-07
-2.94668e-07
-2.65277e-07
-2.25565e-07
-2.29141e-07
-2.47794e-07
-2.40073e-07
-3.19302e-07
-2.80989e-07
-2.9902e-07
-2.8723e-07
-1.83803e-07
-2.12317e-07
-2.83323e-08
-1.45222e-07
-8.66976e-08
-1.4019e-07
-2.27601e-07
-2.089e-07
-3.68759e-07
-3.44738e-07
-3.19293e-07
-4.33026e-07
-3.16568e-07
-4.68413e-07
-3.67657e-07
-4.40024e-07
-3.59083e-07
-3.15046e-07
-4.46454e-07
-2.72246e-07
-3.88773e-07
-2.54641e-07
-1.90531e-07
-2.23222e-07
-4.69516e-08
-1.62714e-07
3.98943e-09
-1.24593e-07
-1.54827e-07
-1.65053e-07
-2.50024e-07
-2.07837e-07
-1.97153e-07
-1.97186e-07
-2.05236e-07
-1.77527e-07
-2.47482e-07
-2.0001e-07
-2.33639e-07
-2.36375e-07
-1.52009e-07
-2.17205e-07
-4.17991e-08
-1.50697e-07
-1.00516e-07
-1.01779e-07
-2.20286e-07
-1.65153e-07
-3.34413e-07
-3.11625e-07
-2.75301e-07
-4.0135e-07
-2.82502e-07
-4.27983e-07
-3.26744e-07
-3.97004e-07
-3.37317e-07
-2.73372e-07
-4.16144e-07
-2.23444e-07
-3.54077e-07
-2.47568e-07
-1.73387e-07
-2.28404e-07
-4.31788e-08
-1.69362e-07
-3.22967e-09
-1.09079e-07
-1.46962e-07
-1.11241e-07
-2.22128e-07
-1.59339e-07
-1.70453e-07
-1.70327e-07
-1.71437e-07
-1.45552e-07
-2.03586e-07
-1.55848e-07
-1.89421e-07
-2.03787e-07
-1.30201e-07
-2.24726e-07
-6.30624e-08
-1.60574e-07
-1.32498e-07
-8.13306e-08
-2.22682e-07
-1.39911e-07
-3.08702e-07
-2.81749e-07
-2.41066e-07
-3.76872e-07
-2.59407e-07
-3.91215e-07
-3.03116e-07
-3.60605e-07
-3.20374e-07
-2.47206e-07
-3.91782e-07
-2.0108e-07
-3.16676e-07
-2.4179e-07
-1.56779e-07
-2.31743e-07
-5.55949e-08
-1.83772e-07
-2.61554e-08
-1.05844e-07
-1.46788e-07
-7.34497e-08
-1.97812e-07
-1.11359e-07
-1.40027e-07
-1.40961e-07
-1.42647e-07
-1.33886e-07
-1.69827e-07
-1.36016e-07
-1.54996e-07
-1.82084e-07
-1.11509e-07
-2.23405e-07
-8.50645e-08
-1.66816e-07
-1.71458e-07
-8.02096e-08
-2.31216e-07
-1.26481e-07
-2.7776e-07
-2.62083e-07
-2.18425e-07
-3.47217e-07
-2.47983e-07
-3.4814e-07
-2.83803e-07
-3.23188e-07
-3.01576e-07
-2.33015e-07
-3.61211e-07
-2.00624e-07
-2.79668e-07
-2.41048e-07
-1.48533e-07
-2.26643e-07
-7.62482e-08