/*--------------------------------*- C++ -*----------------------------------*\
  =========                 |
  \\      /  F ield         | OpenFOAM: The Open Source CFD Toolbox
   \\    /   O peration     | Website:  https://openfoam.org
    \\  /    A nd           | Version:  10
     \\/     M anipulation  |
\*---------------------------------------------------------------------------*/
FoamFile
{
    format      ascii;
    class       volScalarField;
    location    "5";
    object      pPrime2Mean;
}
// * * * * * * * * * * * * * * * * * * * * * * * * * * * * * * * * * * * * * //

dimensions      [0 4 -4 0 0 0 0];

internalField   nonuniform List<scalar> 
25600
(
8.41759e-07
2.84821e-07
9.01908e-07
6.72558e-06
1.3177e-06
5.71817e-07
2.75038e-06
8.84965e-07
1.49891e-06
1.41876e-06
6.02581e-07
1.66555e-06
7.89734e-07
2.16523e-07
4.08724e-07
1.17007e-07
2.48998e-06
1.2236e-07
2.14872e-07
2.02748e-06
1.4427e-07
3.67762e-07
3.35707e-06
4.55678e-07
6.63708e-07
2.73284e-06
9.58683e-08
5.05643e-07
3.87943e-07
3.72122e-06
7.37001e-07
2.73719e-06
1.22912e-07
1.23048e-06
1.95946e-06
1.09606e-06
1.10217e-06
1.57753e-06
1.09164e-06
3.62011e-07
9.22757e-07
1.0151e-07
2.53626e-07
4.69956e-06
1.71405e-07
8.06682e-07
1.5893e-06
1.49635e-07
1.19205e-07
1.15639e-07
6.18351e-07
1.25987e-07
3.19419e-07
7.73079e-07
7.09082e-07
2.05915e-07
5.36837e-07
1.04574e-06
1.2866e-07
3.69466e-06
4.41228e-07
5.86993e-07
3.03284e-06
1.94401e-07
2.40148e-07
9.09801e-07
4.23093e-08
1.28222e-07
1.81846e-07
2.4792e-06
2.14311e-06
3.40738e-06
3.15356e-07
7.26619e-06
1.52592e-06
1.16334e-07
1.06227e-06
1.15567e-07
1.21189e-06
7.7471e-07
6.83509e-06
1.0138e-06
7.48397e-07
1.89969e-06
2.03193e-07
5.72868e-07
5.19084e-06
3.14163e-06
2.40203e-06
2.52086e-06
3.28278e-07
5.16373e-07
5.77296e-07
1.48883e-07
1.37262e-07
4.66594e-07
1.8322e-06
3.30931e-07
1.45635e-06
4.07137e-06
8.10714e-07
9.50216e-07
3.68793e-06
1.79547e-06
1.78211e-07
2.66655e-06
1.16958e-06
1.14535e-07
5.90025e-07
3.40432e-06
1.27934e-07
3.54328e-07
2.1672e-07
9.0213e-06
7.421e-07
2.1e-07
3.46985e-06
2.2539e-07
2.27702e-06
1.09498e-06
4.65108e-06
1.46911e-07
1.48687e-07
5.95599e-07
1.93629e-06
7.45892e-07
5.60562e-07
2.18732e-06
4.47446e-06
5.61547e-06
1.66565e-06
3.05926e-06
2.5681e-06
9.40519e-07
3.46128e-07
4.10069e-07
3.61695e-07
1.11266e-06
3.47069e-06
4.68099e-06
1.57001e-06
1.66646e-07
1.72161e-07
1.8066e-07
1.00044e-06
8.85921e-07
2.01715e-06
1.30341e-07
3.71926e-07
5.18394e-07
4.40963e-07
3.21763e-07
1.84027e-06
6.99286e-06
3.00838e-07
2.31879e-07
3.0398e-06
2.6786e-07
1.62897e-07
5.31656e-06
3.62593e-06
1.72853e-07
1.91071e-06
3.36107e-06
2.78185e-06
1.34211e-06
2.55053e-07
4.21222e-06
8.95059e-06
3.92545e-06
7.28832e-07
2.03409e-07
2.60605e-07
3.10835e-06
2.69789e-07
3.03266e-06
1.98099e-06
3.97571e-06
2.97753e-06
1.19391e-06
3.33228e-07
2.61773e-07
3.74923e-07
1.84678e-06
2.35972e-07
2.34514e-06
1.76862e-06
1.48244e-06
2.02084e-06
7.03096e-07
4.53667e-07
1.45144e-06
4.66296e-07
2.27978e-06
3.82336e-07
8.52545e-07
9.17802e-07
1.66893e-06
2.09608e-07
5.08793e-06
8.97211e-07
2.26017e-06
4.80277e-06
4.24601e-06
2.26946e-06
5.1976e-07
1.86999e-06
9.95907e-06
7.82798e-06
9.64958e-07
2.57612e-07
1.66326e-06
8.69303e-07
1.14029e-06
8.42812e-07
2.18494e-06
1.36793e-06
4.68047e-06
2.92359e-06
3.8766e-07
3.75828e-07
1.55038e-06
2.40138e-07
3.99123e-07
1.37169e-06
1.6489e-07
2.39114e-06
3.16968e-07
2.49044e-07
2.84287e-07
4.3872e-07
6.52372e-07
1.31513e-06
1.77059e-06
4.2554e-07
1.77731e-06
4.68807e-07
1.46571e-06
5.53255e-07
5.46565e-06
1.08996e-06
2.2057e-06
6.50166e-06
3.42507e-06
1.14734e-06
5.67647e-07
7.04966e-07
3.6154e-06
1.0728e-06
2.45189e-06
3.07726e-06
6.42385e-07
5.26824e-07
3.55879e-07
9.54837e-07
8.08842e-07
7.2854e-07
2.27991e-06
2.71616e-07
2.33181e-06
3.05738e-06
1.48675e-06
5.29476e-07
2.11991e-07
3.58146e-06
4.29174e-07
2.52834e-06
1.4869e-06
4.02856e-06
5.31241e-07
3.18877e-07
3.35453e-07
4.91539e-07
4.19224e-07
4.52314e-07
1.40645e-06
4.65121e-07
6.21057e-07
7.02629e-06
1.08332e-05
1.51139e-06
3.84159e-07
2.37349e-06
9.52864e-07
1.14056e-06
5.41547e-07
1.69296e-06
6.93047e-06
2.81852e-06
1.42181e-06
4.33172e-07
3.98201e-06
1.26436e-06
4.69362e-07
6.86433e-07
1.09948e-06
8.88995e-07
1.74378e-06
3.70304e-07
1.22614e-06
3.93223e-07
1.81467e-06
7.32601e-06
1.68394e-06
3.76471e-07
2.02365e-06
9.97224e-07
1.52654e-06
8.21225e-07
7.1861e-07
3.1599e-07
3.72918e-06
2.24948e-06
3.73295e-07
1.06312e-06
4.29102e-06
2.06419e-06
3.28889e-06
1.408e-05
9.08531e-06
5.46436e-06
2.1202e-06
5.35721e-06
4.47886e-07
3.41457e-07
5.1721e-07
2.40956e-06
7.64463e-06
3.96609e-06
1.69425e-06
9.3827e-07
9.8299e-07
7.48393e-07
1.26595e-06
6.18918e-07
3.88202e-07
9.12304e-07
6.52115e-06
1.6456e-06
3.375e-06
1.79319e-06
1.17347e-06
7.28334e-06
2.44348e-06
3.54322e-07
3.95617e-06
5.20744e-07
2.63882e-06
1.47586e-06
5.90859e-07
2.69451e-07
5.4617e-06
1.9031e-06
2.55524e-07
1.53309e-06
3.38097e-06
1.48501e-07
1.33201e-07
1.38488e-05
2.3819e-05
1.00195e-06
2.1051e-06
2.16624e-07
4.36316e-06
3.58711e-07
6.76348e-07
4.07364e-07
2.67102e-06
2.83796e-06
6.14973e-07
5.57706e-07
2.23862e-06
5.68083e-07
1.2118e-06
4.3038e-07
4.77655e-07
1.90156e-06
8.74963e-06
7.73204e-07
5.02904e-06
3.42966e-07
4.81163e-06
4.5087e-06
5.43916e-07
3.75544e-07
2.95066e-06
5.61368e-07
7.76354e-06
7.19155e-06
3.85864e-07
4.66149e-07
2.46376e-06
2.68268e-07
1.19556e-06
4.5109e-06
7.51051e-06
4.45231e-07
3.01673e-07
1.84264e-06
2.83131e-06
4.10808e-06
1.21321e-06
7.04703e-07
7.23869e-06
4.07385e-07
1.27784e-06
4.20814e-07
6.90135e-06
7.70524e-06
4.8794e-07
1.65089e-06
3.50352e-06
1.19776e-06
4.5595e-07
6.66247e-07
3.21074e-07
1.538e-06
1.89412e-05
2.9295e-06
6.22454e-06
3.99145e-07
6.29036e-06
5.10783e-06
8.39418e-07
4.72023e-07
1.01991e-06
1.79204e-06
6.39686e-06
5.39233e-06
1.78643e-06
2.46729e-06
3.12988e-06
1.21367e-06
3.53194e-07
1.73613e-06
7.01865e-06
1.31326e-06
7.17525e-07
3.63649e-07
3.30915e-06
2.87335e-06
2.01368e-06
2.52524e-06
1.22774e-05
9.81337e-07
6.516e-07
3.81479e-07
4.40606e-06
3.1168e-06
5.18647e-07
1.36799e-06
1.9967e-06
4.06109e-07
3.52892e-07
3.66813e-07
1.42415e-06
4.71934e-07
1.83199e-05
4.00461e-06
2.266e-06
1.97841e-06
9.8493e-06
4.74933e-06
6.64121e-07
8.35035e-07
1.75247e-06
8.28296e-07
2.99093e-06
7.55462e-07
4.45345e-06
7.54067e-07
7.17811e-06
2.67018e-06
5.02704e-07
5.27211e-06
1.29055e-05
9.95182e-07
1.89613e-07
3.12973e-07
3.9715e-06
1.48115e-06
1.50063e-06
4.91716e-06
1.20979e-05
2.6994e-07
1.12487e-06
6.11477e-07
2.04022e-06
8.3225e-07
3.50024e-07
3.06456e-06
9.31239e-07
2.44999e-07
1.66226e-06
6.87635e-07
2.59274e-06
4.04641e-07
2.01549e-05
3.59947e-06
3.24479e-06
6.56809e-07
3.36057e-06
1.17593e-06
5.41707e-07
2.55491e-06
9.75981e-07
5.36929e-06
7.79063e-06
1.9703e-06
2.6498e-06
3.66306e-07
6.99965e-06
4.01893e-06
1.05693e-06
8.41537e-06
1.40618e-05
5.71938e-07
2.12277e-07
9.21818e-07
1.43754e-06
2.41683e-06
7.31822e-07
5.96839e-06
1.50163e-05
6.10247e-07
1.47507e-06
1.3744e-06
2.4465e-06
1.46048e-06
9.94001e-07
3.02038e-06
3.05035e-07
1.3141e-06
6.57049e-06
9.07254e-07
3.08684e-06
6.61509e-07
2.11908e-05
3.44683e-06
3.41072e-06
6.85968e-07
4.5689e-06
1.46457e-06
9.4396e-07
2.26177e-06
3.36439e-07
1.15361e-05
1.05232e-05
1.46098e-06
3.86621e-06
6.81184e-07
4.27726e-06
4.5975e-06
1.29554e-06
1.11123e-05
1.41816e-05
4.84191e-07
2.24498e-07
8.4111e-07
1.73476e-06
2.47424e-06
9.02373e-07
5.26637e-06
1.53874e-05
3.0186e-07
3.19033e-06
1.33275e-06
4.56304e-06
1.01328e-06
5.35395e-07
7.1617e-07
4.60912e-07
9.7452e-07
2.8279e-06
2.38101e-07
6.44751e-06
2.58593e-07
1.78368e-05
2.62268e-06
2.96821e-06
1.15693e-06
3.90551e-06
6.29242e-07
3.97807e-07
1.17167e-06
5.57959e-07
1.20027e-05
9.18697e-06
9.51634e-07
1.26438e-05
3.85919e-06
6.65299e-07
2.19498e-06
5.24985e-07
1.90237e-05
1.35712e-05
2.55499e-07
3.46006e-07
7.43816e-07
1.37135e-06
2.87094e-06
1.28075e-06
3.28115e-06
1.4207e-05
5.18167e-07
3.56298e-06
1.58423e-06
5.01985e-06
1.41375e-06
1.58155e-06
5.85844e-07
6.10184e-07
2.84838e-07
5.43781e-07
1.27593e-06
8.39172e-06
3.02031e-07
1.39128e-05
2.18511e-06
1.69464e-06
2.29634e-06
3.48952e-06
3.78216e-07
3.85691e-07
2.36285e-06
2.44602e-07
1.11774e-05
6.52425e-06
5.58962e-06
2.11024e-05
8.95771e-06
4.9839e-07
3.8007e-06
5.04976e-07
2.29039e-05
8.12479e-06
2.0252e-07
5.26834e-07
7.68076e-07
1.51802e-06
3.30057e-06
9.79053e-07
2.98875e-06
1.54808e-05
1.95188e-06
2.11246e-06
1.54781e-06
3.78485e-06
1.02191e-06
2.90297e-06
8.39991e-07
8.27504e-07
3.88421e-07
7.09563e-07
2.49733e-06
1.10522e-05
2.77427e-07
2.10518e-05
3.94238e-06
9.5644e-07
4.42047e-06
4.51753e-06
3.08675e-07
3.61579e-07
5.33331e-06
1.10155e-06
1.31714e-05
5.79421e-06
8.21067e-06
1.83269e-05
9.59077e-06
7.35529e-07
4.79265e-06
1.10314e-06
1.72359e-05
2.84849e-06
5.54849e-07
5.42994e-07
8.46917e-07
1.47783e-06
2.2093e-06
3.85833e-06
5.51368e-07
8.77579e-06
1.64619e-06
2.64672e-06
2.91085e-06
1.40303e-06
5.37796e-07
3.62983e-06
9.32774e-07
2.21512e-06
4.89861e-07
2.65429e-06
2.81933e-06
1.04889e-05
1.69705e-06
3.68524e-05
6.32983e-06
9.12297e-07
5.10929e-06
3.8229e-06
1.22853e-06
4.76908e-07
1.12254e-05
1.67828e-06
2.2481e-05
7.87224e-06
8.60961e-06
2.0757e-05
1.30794e-05
1.68505e-06
6.08584e-06
1.85372e-06
8.88465e-06
1.0737e-06
5.73458e-07
4.58628e-07
9.60558e-07
1.8557e-06
2.73986e-06
5.73573e-06
8.4213e-07
3.92825e-06
8.94136e-07
5.41011e-06
5.55275e-06
5.08431e-07
1.78058e-06
3.30837e-06
7.80407e-07
3.51184e-06
3.2749e-07
6.1617e-06
1.76223e-06
7.63389e-06
5.54712e-06
4.95153e-05
6.60534e-06
1.22303e-06
6.40907e-06
4.12415e-06
5.34828e-06
1.44985e-06
2.00639e-05
1.75997e-06
3.84942e-05
9.3686e-06
1.28308e-05
2.88875e-05
1.56962e-05
1.07525e-06
1.02438e-05
3.23626e-06
4.72213e-06
7.28656e-07
8.96398e-07
5.6354e-07
9.79266e-07
1.69333e-06
5.9299e-06
4.36242e-06
1.46406e-06
5.47864e-06
2.51808e-06
4.28883e-06
6.59934e-06
5.52141e-07
4.86277e-06
3.40587e-06
7.20008e-07
5.46991e-06
1.12667e-06
1.24397e-05
1.32018e-06
8.68417e-06
6.33818e-06
4.82627e-05
5.88119e-06
1.06429e-06
7.61107e-06
3.24926e-06
1.14557e-05
2.1467e-06
3.03245e-05
1.34105e-06
6.03856e-05
1.00283e-05
1.83897e-05
3.65368e-05
1.73921e-05
1.18937e-06
1.00491e-05
3.83009e-06
4.11179e-06
6.701e-07
1.00626e-06
1.48043e-06
9.78632e-07
1.47033e-06
1.01762e-05
4.24432e-06
1.86026e-06
1.1007e-05
6.80565e-06
3.49129e-06
7.59305e-06
8.05149e-07
7.66787e-06
3.07059e-06
6.44783e-07
9.77853e-06
1.01531e-06
1.32569e-05
2.9332e-06
1.14207e-05
5.41777e-06
4.08785e-05
5.7858e-06
1.49853e-06
4.24984e-06
1.32394e-06
1.23101e-05
1.18936e-06
4.23562e-05
8.03514e-07
9.01492e-05
9.98879e-06
2.36241e-05
4.45758e-05
2.03426e-05
2.31123e-06
4.90409e-06
2.06837e-06
7.39389e-06
8.46449e-07
8.45914e-07
2.78528e-06
1.034e-06
1.4792e-06
1.45185e-05
4.62013e-06
2.12689e-06
1.64866e-05
9.83339e-06
3.70979e-06
6.7119e-06
1.15946e-06
1.0434e-05
1.94403e-06
6.40099e-07
2.2525e-05
5.69939e-07
1.42358e-05
3.33618e-06
1.25905e-05
5.42058e-06
3.99419e-05
5.43912e-06
2.90782e-06
2.39726e-06
1.71505e-06
9.1358e-06
8.00735e-07
4.93766e-05
1.63698e-06
0.000117903
9.71906e-06
2.79523e-05
4.34688e-05
2.08744e-05
4.79502e-06
2.78931e-06
1.802e-06
8.56097e-06
8.94894e-07
1.05067e-06
3.26607e-06
1.22764e-06
1.59266e-06
2.01666e-05
4.40602e-06
1.87698e-06
2.09372e-05
1.23695e-05
2.59103e-06
4.5284e-06
1.78353e-06
1.19095e-05
1.09809e-06
9.18575e-07
4.26803e-05
1.04824e-06
1.85342e-05
3.65984e-06
1.39203e-05
5.70857e-06
4.4862e-05
5.22777e-06
4.01752e-06
2.43524e-06
2.07547e-06
1.10453e-05
8.77151e-07
5.53178e-05
2.72122e-06
0.000145242
1.01659e-05
3.24451e-05
3.71149e-05
2.42733e-05
1.1588e-05
2.32789e-06
2.7579e-06
7.09632e-06
9.36854e-07
8.44815e-07
4.53278e-06
1.80798e-06
1.76148e-06
2.36308e-05
4.35883e-06
8.84242e-07
2.95999e-05
1.58283e-05
1.9334e-06
3.48752e-06
2.56989e-06
1.39104e-05
1.08944e-06
2.32237e-06
5.46585e-05
8.35825e-07
2.13605e-05
3.64734e-06
1.38811e-05
5.61949e-06
4.99179e-05
5.55853e-06
4.21048e-06
2.52607e-06
1.95357e-06
1.28732e-05
1.07544e-06
6.15982e-05
2.9338e-06
0.000161809
1.12159e-05
3.00279e-05
3.05314e-05
3.61334e-05
2.10084e-05
2.69503e-06
3.68938e-06
7.82257e-06
1.09755e-06
8.2986e-07
5.39993e-06
2.20787e-06
2.18819e-06
2.41611e-05
3.82956e-06
5.46063e-07
4.11739e-05
1.81747e-05
2.50769e-06
4.10698e-06
4.17843e-06
1.64772e-05
1.77343e-06
4.56276e-06
5.4371e-05
6.71962e-07
2.2708e-05
3.00084e-06
1.2333e-05
5.62784e-06
5.20929e-05
5.42806e-06
4.48851e-06
2.37417e-06
2.07431e-06
1.24687e-05
1.28776e-06
6.50105e-05
3.27322e-06
0.000172652
1.24469e-05
2.92734e-05
3.0155e-05
5.07508e-05
2.42674e-05
3.88973e-06
4.08318e-06
8.87669e-06
1.15515e-06
9.76755e-07
5.39384e-06
2.25682e-06
2.62742e-06
2.57254e-05
2.58949e-06
9.21306e-07
4.89863e-05
1.8055e-05
3.32024e-06
4.56714e-06
6.07478e-06
2.0233e-05
3.37159e-06
4.57819e-06
4.65467e-05
1.30074e-06
2.44538e-05
2.43038e-06
1.11711e-05
5.40605e-06
5.24831e-05
5.64516e-06
4.61344e-06
2.1801e-06
2.23784e-06
1.21637e-05
1.22018e-06
6.63031e-05
3.2461e-06
0.000182744
1.42859e-05
3.0998e-05
3.53704e-05
6.29328e-05
2.54232e-05
4.98344e-06
4.55196e-06
8.83574e-06
1.24293e-06
1.0686e-06
5.28458e-06
2.60688e-06
3.00928e-06
2.80789e-05
1.96418e-06
1.43267e-06
5.17187e-05
1.67464e-05
3.72052e-06
4.8069e-06
7.88404e-06
2.34378e-05
3.38072e-06
2.82603e-06
3.89796e-05
1.99071e-06
2.60459e-05
2.139e-06
1.05877e-05
4.89471e-06
5.06984e-05
6.04495e-06
4.80991e-06
1.7662e-06
2.36541e-06
1.1737e-05
1.06681e-06
6.51303e-05
2.80787e-06
0.00019276
1.74543e-05
3.24095e-05
4.24886e-05
7.48739e-05
2.77004e-05
5.69782e-06
5.07687e-06
9.3012e-06
1.35711e-06
1.21874e-06
4.63959e-06
3.0637e-06
3.58124e-06
2.87975e-05
2.04188e-06
1.71032e-06
5.19482e-05
1.54771e-05
4.03483e-06
4.82926e-06
7.55723e-06
2.34442e-05
2.06589e-06
1.84668e-06
3.69025e-05
2.00543e-06
2.80303e-05
1.66027e-06
1.00509e-05
4.42567e-06
4.84685e-05
6.13629e-06
5.12583e-06
1.43925e-06
2.47417e-06
1.18437e-05
9.98199e-07
6.57125e-05
2.16899e-06
0.000194574
1.95911e-05
3.41405e-05
4.83745e-05
8.34278e-05
2.70271e-05
6.30252e-06
5.01006e-06
9.60197e-06
1.44118e-06
1.39666e-06
4.41444e-06
3.23547e-06
3.97678e-06
2.81671e-05
2.1305e-06
1.7375e-06
5.13587e-05
1.47382e-05
3.94282e-06
4.21973e-06
6.50656e-06
2.23155e-05
1.55237e-06
1.68868e-06
3.68343e-05
2.13252e-06
3.02941e-05
1.15957e-06
9.93502e-06
3.87195e-06
4.66341e-05
6.09935e-06
5.39538e-06
1.24446e-06
2.40844e-06
1.18572e-05
1.01598e-06
6.78651e-05
1.64323e-06
0.000188964
1.8585e-05
3.4877e-05
4.85408e-05
8.45761e-05
2.55622e-05
6.47309e-06
4.86618e-06
9.64417e-06
1.51008e-06
1.49581e-06
4.40728e-06
3.36084e-06
3.93147e-06
2.76673e-05
2.2053e-06
1.62096e-06
5.06096e-05
1.43344e-05
3.76627e-06
3.76655e-06
5.8282e-06
2.1499e-05
1.51669e-06
1.60797e-06
3.61137e-05
2.26784e-06
3.21929e-05
9.4446e-07
1.05122e-05
3.42295e-06
4.55287e-05
6.14441e-06
5.53633e-06
1.13874e-06
2.20712e-06
1.16004e-05
1.07319e-06
6.80293e-05
1.40943e-06
0.000182535
1.76074e-05
3.37115e-05
4.7649e-05
8.38594e-05
2.43658e-05
6.83484e-06
4.93471e-06
9.77392e-06
1.5373e-06
1.5709e-06
4.18441e-06
3.52444e-06
3.88455e-06
2.73163e-05
2.31793e-06
1.57109e-06
5.01114e-05
1.40231e-05
3.82451e-06
3.63006e-06
5.46973e-06
2.084e-05
1.51278e-06
1.51875e-06
3.50581e-05
2.35159e-06
3.23755e-05
8.7786e-07
1.08433e-05
3.2488e-06
4.47772e-05
6.14309e-06
5.58237e-06
1.09257e-06
2.19345e-06
1.13539e-05
1.04423e-06
6.78078e-05
1.27353e-06
0.000178311
1.69503e-05
3.33485e-05
4.71407e-05
8.2382e-05
2.34308e-05
7.19554e-06
4.88374e-06
1.00231e-05
1.53957e-06
1.63111e-06
4.03951e-06
3.52268e-06
3.8793e-06
2.72661e-05
2.30162e-06
1.55752e-06
4.9828e-05
1.37994e-05
3.92667e-06
3.68539e-06
5.36597e-06
2.02887e-05
1.46952e-06
1.45293e-06
3.45344e-05
2.26798e-06
3.21058e-05
8.34978e-07
1.08246e-05
3.16525e-06
4.42394e-05
6.13831e-06
5.56923e-06
1.08605e-06
2.20249e-06
1.13161e-05
1.03914e-06
6.75426e-05
1.23156e-06
0.000176149
1.65472e-05
3.32684e-05
4.67661e-05
8.15659e-05
2.29602e-05
7.31899e-06
4.81301e-06
1.01235e-05
1.537e-06
1.64118e-06
3.99301e-06
3.49186e-06
3.87869e-06
1.95985e-06
1.98155e-07
1.10071e-06
3.50534e-06
1.44393e-07
2.32121e-06
2.14067e-06
1.48452e-06
3.0242e-06
2.92777e-06
1.4172e-06
2.3015e-06
1.06424e-07
1.35621e-06
9.57799e-07
1.0581e-07
1.75641e-06
3.16234e-07
1.14923e-07
1.69791e-06
1.62456e-07
4.77364e-07
3.54344e-06
6.43799e-07
1.26101e-06
3.51605e-06
1.62601e-07
1.82489e-06
6.87405e-07
2.39165e-06
1.17294e-06
1.92702e-06
1.13576e-07
1.37533e-06
1.8616e-06
1.07131e-06
1.0186e-06
2.4465e-06
1.70147e-06
8.74523e-08
8.80146e-07
4.2209e-07
4.26755e-07
2.62094e-06
7.01947e-07
1.91487e-06
7.87624e-07
1.27322e-07
1.9528e-07
2.19347e-07
3.35017e-07
1.45605e-07
1.29767e-07
1.45062e-06
1.32571e-06
2.13595e-07
1.10269e-06
5.22741e-07
1.42959e-07
3.72596e-06
9.07898e-07
1.32124e-06
3.897e-06
3.11714e-07
1.90605e-07
1.13831e-07
2.07657e-07
1.11636e-07
7.15185e-08
2.23287e-06
2.64067e-06
2.1637e-06
2.03037e-07
7.2989e-06
2.10764e-06
5.05171e-07
2.00794e-06
3.02955e-07
4.21143e-07
2.64297e-07
2.1006e-06
1.38659e-07
3.9075e-07
1.0925e-06
3.12871e-07
1.38571e-07
2.00796e-06
1.48462e-06
2.17135e-06
2.83117e-06
5.38644e-07
1.49722e-06
2.7511e-06
1.47173e-06
1.3909e-06
1.80757e-06
1.90505e-06
1.91595e-07
1.063e-06
5.0978e-06
2.42456e-06
2.47724e-06
5.2575e-06
2.7936e-06
4.24509e-07
1.90607e-06
1.08861e-06
9.58048e-08
1.36496e-06
3.07508e-06
1.56805e-07
1.19077e-06
9.47991e-07
5.94653e-06
4.85318e-07
5.74889e-07
6.84584e-06
5.04545e-07
2.70586e-07
1.05324e-06
1.05406e-06
1.49288e-07
1.38836e-07
3.95212e-07
1.94303e-06
1.03031e-06
2.42683e-07
1.02581e-06
1.65124e-06
1.05292e-06
2.20964e-07
9.10274e-07
1.54024e-06
1.14157e-06
2.43215e-07
8.59098e-07
3.48285e-07
3.44268e-07
1.10296e-06
1.91213e-06
7.51853e-07
1.7563e-07
1.44704e-07
1.84157e-07
1.906e-07
1.23208e-06
3.2821e-06
8.74321e-08
7.95533e-07
1.1794e-06
2.28927e-07
5.25638e-07
1.33827e-06
9.14545e-06
3.5499e-07
1.7009e-06
5.46715e-06
5.5621e-07
3.87297e-07
2.1747e-06
6.26295e-07
1.51849e-07
5.57779e-07
1.52353e-06
2.82829e-06
2.06714e-06
4.39585e-07
6.02804e-07
8.40814e-07
5.36043e-07
4.37253e-06
2.53797e-07
2.02112e-06
4.25471e-07
2.33717e-06
4.1955e-06
7.45808e-07
1.07006e-06
1.24452e-06
1.54188e-06
2.31872e-06
1.49318e-06
2.65586e-06
6.94212e-06
2.87188e-06
4.05438e-06
1.58108e-06
2.82669e-06
3.37689e-06
7.54144e-07
6.95065e-07
2.40218e-06
4.39922e-07
2.21793e-06
3.58924e-07
2.9464e-06
3.5976e-06
2.55084e-07
5.98538e-07
2.4228e-06
1.59853e-06
1.51004e-07
6.08071e-07
1.04905e-06
2.13417e-06
1.04572e-06
2.85121e-07
1.25395e-06
3.49347e-07
2.21062e-06
2.38782e-06
8.2148e-07
3.57885e-07
1.90632e-06
1.40551e-06
2.55665e-06
6.07961e-07
1.54301e-06
7.70002e-07
2.9115e-07
3.70739e-07
1.08395e-06
2.33045e-07
1.45333e-06
3.63315e-07
6.13608e-07
2.60712e-06
1.73037e-07
7.1894e-07
9.60449e-07
2.62961e-06
2.17691e-06
2.16579e-06
4.48999e-06
2.05197e-06
6.21087e-06
9.7338e-07
9.44775e-07
6.46008e-07
2.74029e-06
2.05959e-06
4.86954e-07
3.29315e-06
1.92986e-06
1.65681e-06
3.22136e-07
2.94994e-06
2.85713e-06
5.94033e-07
7.57466e-06
4.40265e-06
3.52335e-07
4.25215e-07
3.12933e-07
1.7781e-06
1.07359e-06
4.79935e-07
5.79889e-07
7.75223e-07
2.69314e-06
1.27183e-06
6.89489e-07
1.59268e-06
2.09419e-06
3.26527e-07
2.12232e-06
2.78192e-06
1.19006e-06
3.11824e-06
9.98913e-07
7.44892e-07
7.81798e-07
1.07038e-06
9.09394e-07
1.30811e-06
5.11796e-06
4.02956e-07
2.23977e-07
2.90887e-06
3.64302e-06
4.32331e-06
1.90055e-06
1.72103e-06
4.63517e-07
2.69418e-07
1.96841e-06
1.34954e-05
1.30771e-05
1.93971e-06
2.3407e-06
1.04937e-06
1.48216e-06
2.80536e-07
1.43906e-06
4.04921e-07
1.23743e-06
5.31522e-07
1.30335e-06
5.91784e-07
3.27071e-07
1.00136e-06
4.45201e-06
1.58165e-05
7.42472e-06
2.05276e-07
3.43515e-06
1.78709e-06
1.14971e-06
9.82363e-07
3.75956e-07
3.18737e-07
2.46778e-06
3.50034e-07
1.44088e-06
6.0528e-06
1.0623e-05
3.07584e-07
1.88343e-07
2.57203e-06
7.01491e-06
1.21319e-06
5.64532e-06
7.07285e-07
3.66298e-06
9.12486e-07
5.06298e-06
1.92497e-05
1.76039e-05
1.94303e-06
5.51602e-06
5.37245e-06
3.25023e-07
4.58389e-07
1.17172e-06
3.66782e-06
3.79088e-07
2.61325e-07
3.33864e-06
4.37427e-07
2.1039e-06
7.73095e-07
9.84763e-06
1.60751e-05
1.71516e-06
1.00093e-06
1.67169e-06
7.03751e-07
6.9378e-07
4.91786e-07
6.98429e-07
2.90071e-07
4.15896e-06
3.10267e-07
8.50316e-07
4.17153e-06
7.69193e-06
1.48651e-07
9.81279e-07
1.30901e-05
1.29872e-05
3.82627e-06
7.15115e-07
2.24085e-06
7.03828e-06
4.46851e-07
4.19494e-07
3.92163e-06
3.60731e-06
2.76522e-07
7.22163e-06
1.28321e-06
5.21278e-07
1.34807e-06
9.41186e-07
4.58484e-07
3.44232e-07
1.04146e-06
8.1953e-06
1.73927e-06
5.89071e-07
4.25544e-06
1.36337e-05
8.85611e-06
1.24063e-07
5.57654e-07
4.49845e-06
2.12458e-06
3.77908e-07
1.45612e-06
1.01589e-06
1.55036e-06
5.89622e-07
1.27002e-06
3.08621e-06
9.42166e-06
1.29421e-05
5.49293e-07
8.0762e-07
3.21467e-06
6.26775e-06
1.58081e-05
2.56037e-07
5.71495e-06
1.06181e-05
3.1708e-07
5.86046e-07
5.94534e-06
1.38161e-05
3.89153e-06
3.75654e-06
2.29494e-06
1.58206e-06
2.96364e-06
4.41716e-07
2.32757e-06
1.19935e-06
1.91011e-06
1.44085e-05
5.34847e-06
6.27783e-07
3.7644e-06
2.00967e-05
9.99978e-06
1.29898e-07
1.93628e-07
2.97082e-06
2.62265e-07
2.69382e-06
4.45641e-06
1.16211e-06
8.5871e-07
2.55294e-06
7.76067e-07
1.6965e-06
7.72018e-06
8.95447e-06
2.41992e-07
1.83756e-07
2.2158e-06
1.67135e-05
8.36208e-06
3.50218e-06
1.80289e-06
6.68033e-06
2.5057e-07
3.72654e-07
3.68503e-06
1.31324e-05
2.78905e-06
3.84255e-06
1.284e-06
1.3526e-06
3.37847e-06
1.08936e-06
1.1893e-06
4.43655e-07
4.78091e-07
1.20755e-05
5.9253e-06
3.18426e-07
5.1561e-06
1.75784e-05
1.82782e-06
2.57604e-06
1.71786e-07
4.50789e-06
5.46261e-07
4.154e-06
4.56533e-06
3.05001e-06
9.38657e-07
2.2195e-06
1.13796e-06
1.04845e-06
8.12944e-06
9.69928e-06
4.50176e-07
2.20679e-07
2.60887e-06
1.74367e-05
1.03794e-05
1.96793e-06
3.14374e-06
8.03967e-06
2.77716e-07
1.90475e-07
1.03253e-06
8.58941e-06
1.80688e-06
1.5592e-06
3.18179e-07
8.21985e-07
2.26709e-06
3.2776e-07
2.17057e-06
1.36232e-06
2.91598e-07
2.1089e-05
8.52416e-06
1.32418e-06
2.32837e-06
1.24072e-05
3.28751e-07
2.34976e-06
1.06456e-06
8.0258e-06
2.69083e-07
1.1136e-05
6.95216e-06
5.04435e-06
2.16454e-06
1.3095e-06
7.83605e-07
1.55801e-06
5.29359e-06
5.7281e-06
1.0977e-06
2.99638e-07
1.13872e-06
1.36105e-05
1.88304e-05
1.77846e-06
1.35556e-06
9.55603e-06
9.09134e-07
5.06573e-07
3.59615e-07
6.34206e-06
2.25695e-06
7.46305e-07
3.35593e-07
6.45934e-07
3.04644e-07
3.97347e-06
3.9081e-06
1.40132e-06
4.43579e-07
1.51342e-05
3.85894e-06
2.88131e-06
3.2739e-06
1.29848e-05
1.76706e-07
1.87031e-06
3.02507e-06
1.08241e-05
4.16964e-07
1.69109e-05
9.69518e-06
5.20672e-06
2.95398e-06
4.00048e-07
4.90641e-07
1.58405e-06
3.38216e-06
2.92484e-06
1.31011e-06
3.90798e-07
7.30044e-07
1.85979e-05
1.05165e-05
5.0423e-06
6.61871e-07
1.13401e-05
7.75409e-07
1.35943e-06
4.66586e-07
8.11992e-06
1.73422e-06
1.35482e-06
1.35266e-06
1.3878e-06
1.20274e-06
7.44531e-06
3.66584e-06
3.47551e-06
2.77898e-06
1.00259e-05
2.14303e-06
4.32102e-06
3.46628e-06
9.80166e-06
9.07247e-07
2.91184e-06
4.92646e-06
1.34034e-05
9.07946e-07
2.52098e-05
6.70532e-06
8.87125e-06
3.06337e-06
4.46752e-07
8.31479e-07
9.92049e-07
6.38039e-06
4.45424e-06
1.36465e-06
2.32747e-07
3.02378e-07
1.18525e-05
7.91738e-06
1.03519e-05
4.66904e-07
1.09708e-05
9.21573e-07
3.30762e-06
1.1094e-06
6.93218e-06
1.35085e-06
2.00777e-06
3.31062e-06
4.76386e-06
1.73367e-06
6.25134e-06
4.19048e-06
2.38806e-06
4.5477e-06
6.29174e-06
1.13465e-06
4.83463e-06
2.52968e-06
4.84844e-06
3.36353e-06
2.42558e-06
1.08587e-05
1.74439e-05
2.53537e-06
3.33373e-05
5.05552e-06
8.04258e-06
3.44005e-06
4.94378e-07
2.49355e-06
1.38818e-06
1.01078e-05
5.26226e-06
1.46113e-06
4.76785e-07
9.4749e-07
9.20047e-06
9.61082e-06
6.07907e-06
4.38195e-07
1.66034e-05
3.20953e-06
4.59188e-06
1.20603e-06
7.60248e-06
1.48554e-06
2.08654e-06
5.81161e-06
7.18552e-06
1.38517e-06
7.42281e-06
7.70366e-06
2.62912e-06
1.02481e-05
5.81463e-06
1.05226e-06
5.54634e-06
2.52975e-06
4.09805e-06
4.37102e-06
9.01984e-07
1.94958e-05
2.0282e-05
4.83975e-06
3.29471e-05
3.16744e-06
6.08254e-06
3.62191e-06
7.11808e-07
5.39234e-06
8.35902e-07
1.74821e-05
6.31729e-06
1.10251e-06
4.18107e-07
1.22918e-06
8.20838e-06
9.24101e-06
6.20411e-06
3.92517e-07
1.90718e-05
2.91429e-06
9.23806e-06
1.72448e-06
7.13965e-06
1.39842e-06
1.28282e-06
5.03174e-06
3.59647e-06
1.0078e-06
1.04914e-05
1.12072e-05
4.62615e-06
2.03404e-05
3.90289e-06
8.66418e-07
4.87208e-06
2.95639e-06
1.53787e-06
8.53954e-06
4.13805e-07
2.85596e-05
2.36852e-05
8.89353e-06
3.87683e-05
3.19911e-06
6.24392e-06
6.59817e-06
7.84225e-07
9.96023e-06
1.08632e-06
2.0459e-05
6.25672e-06
1.1091e-06
3.82119e-07
2.07883e-06
5.02738e-06
1.1194e-05
6.94706e-06
2.89467e-07
2.48977e-05
3.30551e-06
1.34594e-05
1.31153e-06
9.39202e-06
1.2594e-06
7.36537e-07
2.5629e-06
1.9644e-06
2.46902e-06
1.71242e-05
1.88033e-05
3.84859e-06
2.6404e-05
3.6547e-06
1.59744e-06
4.23758e-06
3.18595e-06
4.38921e-07
1.21885e-05
1.05205e-06
4.52075e-05
3.35668e-05
1.42744e-05
5.08733e-05
6.36236e-06
6.03285e-06
1.07342e-05
1.83249e-06
1.83097e-05
1.43143e-06
2.23729e-05
7.1204e-06
1.10663e-06
4.63286e-07
2.92018e-06
3.80473e-06
1.18656e-05
6.35095e-06
2.41908e-07
2.83863e-05
3.86155e-06
1.65024e-05
1.32998e-06
9.69816e-06
1.10697e-06
3.978e-07
1.48233e-06
1.66118e-06
3.92327e-06
2.47429e-05
2.65417e-05
3.63021e-06
3.0986e-05
3.35593e-06
2.24865e-06
3.57792e-06
4.118e-06
6.26398e-07
1.4451e-05
3.97389e-06
6.69216e-05
4.61481e-05
2.072e-05
6.2869e-05
1.10296e-05
5.07925e-06
1.42434e-05
4.33161e-06
2.59371e-05
1.64157e-06
2.62132e-05
7.76052e-06
1.68378e-06
5.83255e-07
3.35199e-06
2.7564e-06
1.12156e-05
7.32361e-06
3.38645e-07
3.03959e-05
3.26332e-06
1.94909e-05
1.12979e-06
9.56206e-06
1.25061e-06
3.16968e-07
1.16798e-06
1.71998e-06
4.84841e-06
3.08454e-05
3.07931e-05
5.53957e-06
4.03901e-05
1.82537e-06
2.64213e-06
3.5985e-06
3.58449e-06
1.56273e-06
1.16726e-05
6.56295e-06
8.19262e-05
5.83456e-05
2.66143e-05
7.56573e-05
1.77126e-05
5.35743e-06
2.16465e-05
5.24706e-06
2.95295e-05
1.20917e-06
3.25252e-05
7.20225e-06
3.4731e-06
9.37933e-07
3.76922e-06
2.24229e-06
1.14011e-05
9.35894e-06
1.0061e-06
3.231e-05
2.89309e-06
2.10169e-05
8.54397e-07
7.9572e-06
1.13553e-06
5.1704e-07
2.97028e-06
2.5016e-06
5.40654e-06
3.8887e-05
3.68698e-05
6.4635e-06
4.09564e-05
1.71586e-06
2.69118e-06
4.33038e-06
3.04391e-06
1.97132e-06
1.01111e-05
6.68888e-06
9.37305e-05
6.86197e-05
3.12128e-05
8.83903e-05
2.29795e-05
5.4197e-06
3.04757e-05
4.14309e-06
3.21328e-05
1.18964e-06
3.68384e-05
5.16193e-06
6.43072e-06
9.17889e-07
3.66554e-06
2.14776e-06
1.31405e-05
1.03983e-05
2.62795e-06
3.16319e-05
2.42232e-06
2.06901e-05
7.40231e-07
5.68503e-06
1.02841e-06
1.04909e-06
5.79865e-06
3.06296e-06
5.26515e-06
4.59765e-05
4.04607e-05
7.64219e-06
3.66845e-05
2.90173e-06
2.52815e-06
5.32366e-06
2.70171e-06
2.77323e-06
1.07695e-05
8.07539e-06
0.000114841
7.27512e-05
3.90598e-05
9.81486e-05
2.60569e-05
4.53698e-06
3.8216e-05
3.91168e-06
3.53556e-05
1.62617e-06
3.4744e-05
3.53984e-06
7.67198e-06
9.54247e-07
4.69314e-06
1.67877e-06
1.57891e-05
1.01982e-05
4.19206e-06
3.00846e-05
2.01325e-06
1.78614e-05
6.44411e-07
4.17951e-06
1.12932e-06
1.35701e-06
8.28857e-06
3.24581e-06
4.17527e-06
5.1369e-05
4.35271e-05
9.3e-06
3.50706e-05
3.95804e-06
1.89562e-06
6.22605e-06
2.53809e-06
3.50878e-06
1.16787e-05
9.35854e-06
0.000134947
7.15774e-05
4.56596e-05
0.000107684
3.38907e-05
3.89172e-06
4.57067e-05
4.24255e-06
4.19874e-05
2.31272e-06
3.55816e-05
3.79388e-06
5.19593e-06
6.56125e-07
4.80552e-06
1.43214e-06
1.90924e-05
9.57523e-06
5.2462e-06
2.81571e-05
1.85584e-06
1.51491e-05
7.52557e-07
3.17315e-06
1.381e-06
1.97301e-06
1.13472e-05
3.49033e-06
3.08617e-06
5.52142e-05
4.51099e-05
1.13442e-05
3.47817e-05
4.64669e-06
1.38725e-06
6.51511e-06
2.30166e-06
4.26999e-06
1.22423e-05
1.06784e-05
0.000144108
7.23907e-05
4.47938e-05
0.000109528
4.00122e-05
4.08593e-06
5.15478e-05
3.47326e-06
4.18607e-05
2.00859e-06
4.16429e-05
4.04733e-06
3.44785e-06
1.17313e-06
4.18026e-06
1.39277e-06
2.16593e-05
9.63962e-06
6.20207e-06
2.61597e-05
1.88321e-06
1.29935e-05
9.6789e-07
2.10962e-06
1.77406e-06
3.77078e-06
1.48816e-05
3.21271e-06
2.09961e-06
5.45196e-05
4.41334e-05
1.31248e-05
3.43286e-05
5.49044e-06
1.50674e-06
6.39807e-06
2.16188e-06
4.59827e-06
1.19499e-05
1.22843e-05
0.000148788
7.3121e-05
4.57316e-05
0.000104648
3.93432e-05
6.02992e-06
6.17629e-05
3.65218e-06
4.03673e-05
2.11716e-06
4.36525e-05
3.43565e-06
2.75458e-06
1.98537e-06
4.44389e-06
1.20482e-06
2.38299e-05
1.0289e-05
7.13116e-06
2.45241e-05
1.9496e-06
1.0694e-05
1.0851e-06
1.38264e-06
2.07511e-06
5.39167e-06
1.6512e-05
2.42076e-06
1.13803e-06
5.12438e-05
4.21898e-05
1.43963e-05
3.35026e-05
6.89829e-06
2.09821e-06
6.26977e-06
2.10138e-06
4.71073e-06
1.3397e-05
1.42778e-05
0.000153043
7.01346e-05
4.80312e-05
0.000102804
3.71506e-05
9.44488e-06
7.14435e-05
3.91763e-06
4.23965e-05
2.24599e-06
4.26056e-05
3.30903e-06
2.33998e-06
2.14945e-06
5.29533e-06
1.09437e-06
2.47968e-05
1.08773e-05
7.55385e-06
2.28957e-05
2.1342e-06
8.99141e-06
1.3086e-06
8.57929e-07
2.1278e-06
5.78652e-06
1.61717e-05
1.81766e-06
7.85712e-07
4.87817e-05
3.96045e-05
1.57023e-05
3.22071e-05
8.60375e-06
2.56112e-06
6.16482e-06
1.87811e-06
4.63797e-06
1.31843e-05
1.54085e-05
0.000154828
6.82013e-05
4.72507e-05
0.000100918
3.55768e-05
1.06989e-05
7.16159e-05
3.74032e-06
4.34118e-05
2.25174e-06
4.31699e-05
3.49346e-06
2.29217e-06
2.10615e-06
5.60769e-06
1.13121e-06
2.4947e-05
1.07977e-05
7.6573e-06
2.17483e-05
2.45401e-06
8.6132e-06
1.65496e-06
6.6655e-07
2.0229e-06
5.62123e-06
1.61063e-05
1.33154e-06
6.10806e-07
4.60222e-05
3.6718e-05
1.66816e-05
3.06743e-05
1.01961e-05
2.82611e-06
6.24461e-06
1.72937e-06
4.20308e-06
1.26554e-05
1.56252e-05
0.000157524
6.7788e-05
4.53191e-05
9.91892e-05
3.63723e-05
1.05226e-05
6.94761e-05
3.6809e-06
4.23609e-05
2.24914e-06
4.26754e-05
3.38972e-06
2.31635e-06
2.12744e-06
5.57639e-06
1.14884e-06
2.50941e-05
1.05113e-05
7.72189e-06
2.13124e-05
2.59926e-06
8.66926e-06
1.95653e-06
6.32521e-07
2.0334e-06
5.5417e-06
1.51205e-05
8.92825e-07
4.7423e-07
4.4458e-05
3.55649e-05
1.68774e-05
2.98101e-05
1.10224e-05
2.97281e-06
6.26516e-06
1.75952e-06
4.03039e-06
1.30587e-05
1.63082e-05
0.000160913
6.58132e-05
4.45858e-05
9.77011e-05