/*--------------------------------*- C++ -*----------------------------------*\
  =========                 |
  \\      /  F ield         | OpenFOAM: The Open Source CFD Toolbox
   \\    /   O peration     | Website:  https://openfoam.org
    \\  /    A nd           | Version:  10
     \\/     M anipulation  |
\*---------------------------------------------------------------------------*/
FoamFile
{
    format      ascii;
    class       surfaceScalarField;
    location    "42.5";
    object      phi;
}
// * * * * * * * * * * * * * * * * * * * * * * * * * * * * * * * * * * * * * //

dimensions      [0 3 -1 0 0 0 0];

internalField   nonuniform List<scalar> 
74080
(
0.00544133
-3.9608e-08
-8.17542e-09
0.00544132
3.44596e-08
1.13338e-08
0.00544133
-8.22739e-09
-1.4358e-08
0.00544132
-2.72419e-08
8.69508e-09
0.00544133
5.79237e-08
-2.2043e-09
0.00544132
-6.79489e-08
-1.04181e-08
0.00544132
5.50999e-08
1.86062e-08
0.00544133
-2.14843e-08
-2.66426e-08
0.00544132
-1.93442e-08
2.45047e-08
0.00544133
5.37492e-08
-2.23157e-08
0.00544132
-6.84988e-08
1.30966e-08
0.00544133
6.18196e-08
-6.58546e-09
0.00544131
-3.50966e-08
-2.48286e-09
0.00544133
1.26063e-10
2.27836e-09
0.00544132
3.0256e-08
-1.69743e-09
0.00544132
-4.17501e-08
-3.94127e-09
0.00544134
3.47945e-08
9.60648e-10
0.0054413
-1.49969e-08
1.83282e-09
0.00544134
-1.95849e-09
-1.28023e-08
0.00544132
8.76125e-09
1.82516e-08
0.00544131
-2.8822e-09
-2.68764e-08
0.00544135
-4.98896e-09
2.64201e-08
0.0054413
8.72088e-09
-2.40674e-08
0.00544135
-2.1562e-09
7.23919e-09
0.00544131
-6.91728e-09
8.93538e-09
0.00544133
1.44379e-08
-3.03381e-08
0.00544133
-1.15199e-08
3.91297e-08
0.00544131
2.88774e-09
-4.64712e-08
0.00544134
8.95644e-09
3.97948e-08
0.00544131
-1.39318e-08
-3.24039e-08
0.00544134
1.38004e-08
1.22744e-08
0.00544131
-7.06739e-09
7.12627e-09
0.00544132
2.61775e-09
-3.08426e-08
0.00544133
6.54882e-10
4.02439e-08
0.00544131
1.17172e-09
-4.25541e-08
0.00544134
-2.0973e-09
2.93451e-08
0.00544132
2.60777e-09
-1.70021e-08
0.00544133
3.59733e-09
1.80107e-09
0.00544133
-1.40629e-08
7.34733e-10
3.02682e-08
-6.34974e-10
0.00494636
-2.83633e-08
-2.58319e-08
0.00494636
2.95274e-08
2.99929e-08
0.00494637
-1.46091e-08
-2.89841e-08
0.00494635
-6.18289e-09
1.61545e-08
0.00494638
2.60674e-08
-2.95373e-09
0.00494635
-3.30998e-08
-1.46018e-08
0.00494637
2.80159e-08
2.50091e-08
0.00494637
-1.02798e-08
-3.24522e-08
0.00494635
-1.1215e-08
2.68477e-08
0.00494638
3.12769e-08
-1.92429e-08
0.00494635
-3.91597e-08
5.56499e-09
0.00494638
3.30533e-08
2.17977e-09
0.00494635
-1.1011e-08
-9.31084e-09
0.00494637
-1.4672e-08
5.54511e-09
0.00494637
3.22715e-08
-3.07686e-09
0.00494635
-2.84694e-08
-2.65647e-09
0.00494638
7.50436e-09
-2.53289e-10
0.00494634
2.0149e-08
2.44181e-09
0.00494638
-3.26398e-08
-1.26088e-08
0.00494636
2.47867e-08
1.77693e-08
0.00494635
3.07704e-09
-2.63578e-08
0.00494638
-3.11711e-08
2.56707e-08
0.00494634
4.89797e-08
-2.34534e-08
0.00494639
-4.43931e-08
7.02368e-09
0.00494635
2.6914e-08
8.9825e-09
0.00494637
-2.48969e-09
-2.99945e-08
0.00494637
-1.24877e-08
3.72635e-08
0.00494635
1.93722e-08
-4.00159e-08
0.00494638
-1.63555e-08
2.71576e-08
0.00494635
1.52616e-08
-1.53086e-08
0.00494638
-1.3429e-08
-3.21132e-09
0.00494636
1.40397e-08
1.42262e-08
0.00494636
-8.48545e-09
-2.40614e-08
0.00494637
1.55969e-09
1.89125e-08
0.00494636
8.92789e-09
-9.51818e-09
0.00494637
-1.4256e-08
-6.65499e-09
0.00494636
1.63554e-08
1.28065e-08
0.00494637
-9.66047e-09
-1.41606e-08
0.00494636
-8.83374e-10
2.17023e-09
1.7451e-08
1.04167e-08
0.00449642
-1.44416e-08
-3.76906e-08
0.00449643
2.27717e-08
4.09321e-08
0.00449644
-2.06518e-08
-3.51392e-08
0.00449641
1.61214e-08
1.70561e-08
0.00449645
-7.72454e-09
7.65901e-10
0.00449641
3.22194e-09
-1.93624e-08
0.00449644
2.08579e-09
2.87625e-08
0.00449643
-3.48752e-09
-3.25292e-08
0.00449641
4.54928e-09
2.31125e-08
0.00449645
-7.75656e-10
-1.12163e-08
0.00449641
4.09199e-11
-4.90177e-09
0.00449645
-1.4554e-09
1.2476e-08
0.00449642
1.12857e-08
-1.68125e-08
0.00449643
-1.94054e-08
1.02948e-08
0.00449644
2.15796e-08
-5.71508e-09
0.00449641
-5.50882e-09
-1.81626e-09
0.00449644
-1.91306e-08
9.83508e-10
0.00449642
4.39614e-08
-2.20144e-09
0.00449643
-4.60521e-08
-4.20523e-09
0.00449643
2.62503e-08
6.543e-09
0.00449642
1.42088e-08
-1.43267e-08
0.00449644
-5.01445e-08
1.47656e-08
0.00449641
7.21067e-08
-1.64939e-08
0.00449644
-6.47802e-08
6.08026e-09
0.00449642
4.13792e-08
4.33597e-09
0.00449643
-6.51165e-09
-2.14775e-08
0.00449644
-1.83553e-08
2.76854e-08
0.00449641
3.50201e-08
-2.98294e-08
0.00449644
-3.67799e-08
1.78082e-08
0.00449641
3.71735e-08
-6.68526e-09
0.00449644
-3.16161e-08
-8.65128e-09
0.00449642
2.6585e-08
1.50051e-08
0.00449643
-1.2912e-08
-1.7978e-08
0.00449643
-4.07959e-10
6.31387e-09
0.00449642
1.6161e-08
8.39834e-09
0.00449643
-2.32722e-08
-2.55301e-08
0.00449642
2.64704e-08
2.8415e-08
0.00449643
-1.98433e-08
-2.14162e-08
0.00449642
1.13753e-08
3.66442e-10
3.42238e-09
1.97698e-08
0.00408742
-6.32162e-09
-4.56068e-08
0.00408742
2.12405e-08
4.83934e-08
0.00408743
-2.8864e-08
-3.88208e-08
0.00408741
3.6788e-08
1.73945e-08
0.00408744
-3.49682e-08
3.74319e-09
0.00408741
3.02142e-08
-2.28795e-08
0.00408743
-1.36831e-08
3.11823e-08
0.00408743
-4.14929e-09
-3.16764e-08
0.0040874
2.51971e-08
1.94244e-08
0.00408744
-3.54051e-08
-4.85176e-09
0.0040874
4.08585e-08
-1.17757e-08
0.00408744
-3.51323e-08
1.88298e-08
0.00408741
2.94489e-08
-2.11047e-08
0.00408742
-1.53848e-08
1.28904e-08
0.00408743
3.87006e-10
-6.64564e-09
0.00408741
2.51434e-08
-2.02831e-09
0.00408743
-4.54004e-08
3.9914e-09
0.00408742
5.87565e-08
-8.0997e-09
0.00408742
-4.50599e-08
4.80228e-09
0.00408743
1.53964e-08
-3.55426e-09
0.00408741
2.97662e-08
-3.96234e-09
0.00408743
-6.22539e-08
6.44797e-09
0.00408742
7.98367e-08
-1.14475e-08
0.00408742
-6.61687e-08
6.59045e-09
0.00408742
3.98138e-08
-8.87192e-10
0.00408742
-9.58386e-10
-1.28986e-08
0.00408743
-2.57156e-08
1.97014e-08
0.00408741
4.5663e-08
-2.37656e-08
0.00408743
-4.76671e-08
1.5475e-08
0.00408741
4.87441e-08
-7.02381e-09
0.00408743
-3.99245e-08
-5.67492e-09
0.00408742
3.25385e-08
1.108e-08
0.00408742
-1.40325e-08
-1.25743e-08
0.00408742
-2.23474e-09
6.81525e-10
0.00408742
2.18641e-08
1.50861e-08
0.00408743
-3.00395e-08
-3.10261e-08
0.00408742
3.50844e-08
3.22259e-08
0.00408742
-2.80157e-08
-2.10021e-08
0.00408742
2.06979e-08
-3.39888e-09
-5.19822e-09
2.69593e-08
0.00371562
-4.45868e-09
-4.7121e-08
0.00371562
2.52056e-08
5.13641e-08
0.00371562
-3.82602e-08
-4.0981e-08
0.00371561
5.3551e-08
1.94104e-08
0.00371563
-5.34361e-08
3.57455e-09
0.00371561
4.7194e-08
-2.21774e-08
0.00371562
-2.10909e-08
3.10175e-08
0.00371562
-8.08892e-09
-3.03029e-08
0.00371561
4.45632e-08
1.8239e-08
0.00371564
-6.53277e-08
-2.77462e-09
0.0037156
7.67101e-08
-1.3083e-08
0.00371563
-6.37061e-08
2.00798e-08
0.00371562
4.26998e-08
-2.08677e-08
0.00371561
-5.21881e-09
1.26399e-08
0.00371563
-2.67981e-08
-5.33409e-09
0.0037156
6.01284e-08
-3.5144e-09
0.00371563
-7.16995e-08
7.38997e-09
0.00371562
6.98756e-08
-1.28576e-08
0.00371561
-3.79208e-08
1.12466e-08
0.00371563
6.05238e-10
-9.48274e-09
0.00371561
4.48742e-08
1.34086e-09
0.00371562
-6.73485e-08
3.6075e-09
0.00371562
7.61108e-08
-1.08421e-08
0.00371561
-5.41406e-08
9.77371e-09
0.00371563
2.7859e-08
-6.17802e-09
0.00371561
9.54364e-09
-5.92563e-09
0.00371562
-3.03597e-08
1.42142e-08
0.00371562
4.81843e-08
-2.04645e-08
0.00371562
-4.66226e-08
1.62846e-08
0.00371562
4.79373e-08
-9.7874e-09
0.00371562
-3.7506e-08
-8.77912e-10
0.00371562
3.17009e-08
7.63845e-09
0.00371562
-1.24321e-08
-9.9924e-09
0.00371562
-2.72353e-09
5.62207e-10
0.00371562
2.56072e-08
1.49944e-08
0.00371562
-3.53719e-08
-2.99986e-08
0.00371561
4.37982e-08
3.24112e-08
0.00371562
-3.57267e-08
-2.05531e-08
0.00371561
2.79816e-08
-3.18792e-09
-9.05647e-09
2.85282e-08
0.00337763
-6.5008e-09
-4.30291e-08
0.00337764
3.22864e-08
5.10089e-08
0.00337764
-4.67108e-08
-4.2105e-08
0.00337763
6.52232e-08
2.34715e-08
0.00337764
-6.27946e-08
8.04134e-11
0.00337763
5.49532e-08
-1.83557e-08
0.00337764
-2.1719e-08
2.94733e-08
0.00337764
-1.31063e-08
-2.91748e-08
0.00337763
6.03018e-08
1.95941e-08
0.00337765
-8.82335e-08
-4.17045e-09
0.00337762
1.06013e-07
-1.0263e-08
0.00337765
-8.72448e-08
1.80709e-08
0.00337763
5.35806e-08
-1.8199e-08
0.00337763
6.42255e-09
1.09902e-08
0.00337765
-5.45066e-08
-2.93213e-09
0.00337762
9.60196e-08
-6.02956e-09
0.00337764
-9.753e-08
1.16636e-08
0.00337764
8.02147e-08
-1.67479e-08
0.00337763
-2.94819e-08
1.54728e-08
0.00337764
-1.4088e-08
-1.14856e-08
0.00337763
5.82052e-08
2.26262e-09
0.00337763
-6.77005e-08
5.35699e-09
0.00337765
6.61282e-08
-1.31538e-08
0.00337762
-3.47522e-08
1.41376e-08
0.00337765
1.02277e-08
-1.02449e-08
0.00337763
2.3188e-08
-1.49813e-09
0.00337764
-3.37129e-08
1.2414e-08
0.00337764
4.5961e-08
-2.01635e-08
0.00337763
-3.76903e-08
1.92733e-08
0.00337764
3.92304e-08
-1.28092e-08
0.00337763
-2.80784e-08
2.23889e-09
0.00337764
2.7257e-08
7.60526e-09
0.00337764
-9.71375e-09
-1.16099e-08
0.00337764
-1.93833e-09
5.55582e-09
0.00337764
2.80666e-08
9.97479e-09
0.00337764
-3.96755e-08
-2.48648e-08
0.00337763
5.31129e-08
3.10863e-08
0.00337764
-4.33754e-08
-2.16398e-08
0.00337763
3.42309e-08
1.73511e-09
-9.29409e-09
2.40447e-08
0.00307039
-1.10753e-08
-3.46855e-08
0.00307039
4.15638e-08
4.81443e-08
0.00307039
-5.40657e-08
-4.29049e-08
0.00307039
7.34547e-08
2.92489e-08
0.0030704
-6.62947e-08
-5.90582e-09
0.00307039
5.76519e-08
-1.20866e-08
0.00307039
-1.93208e-08
2.68828e-08
0.00307039
-1.66871e-08
-2.82628e-08
0.00307039
7.13708e-08
2.2595e-08
0.0030704
-1.03935e-07
-7.63199e-09
0.00307038
1.29153e-07
-5.17072e-09
0.0030704
-1.06596e-07
1.47511e-08
0.00307039
6.41703e-08
-1.46751e-08
0.00307039
1.6071e-08
9.39867e-09
0.00307041
-7.84855e-08
-1.51244e-10
0.00307038
1.29052e-07
-8.06833e-09
0.0030704
-1.21609e-07
1.53367e-08
0.00307039
9.11925e-08
-1.90588e-08
0.00307039
-2.24463e-08
1.75571e-08
0.0030704
-2.67869e-08
-1.02628e-08
0.00307039
7.05882e-08
-3.06824e-11
0.00307039
-6.72772e-08
1.01626e-08
0.0030704
5.61603e-08
-1.71418e-08
0.00307038
-1.46155e-08
1.8674e-08
0.0030704
-7.79766e-09
-1.23005e-08
0.00307039
3.7437e-08
2.49347e-10
0.00307039
-3.60619e-08
1.38045e-08
0.0030704
4.17005e-08
-2.19029e-08
0.00307039
-2.51807e-08
2.34438e-08
0.0030704
2.72988e-08
-1.54586e-08
0.00307039
-1.58579e-08
4.37837e-09
0.00307039
2.23882e-08
9.64954e-09
0.00307039
-7.75582e-09
-1.53164e-08
0.00307039
1.09382e-09
1.29303e-08
0.00307039
2.88958e-08
3.33289e-09
0.00307039
-4.27917e-08
-1.85483e-08
0.00307039
6.24352e-08
3.02326e-08
0.0030704
-5.06582e-08
-2.4427e-08
0.00307039
3.98354e-08
1.00966e-08
-7.08729e-09
1.54943e-08
0.00279101
-1.5879e-08
-2.4402e-08
0.00279101
5.08802e-08
4.44893e-08
0.00279101
-5.94733e-08
-4.35761e-08
0.00279101
7.90542e-08
3.63486e-08
0.00279101
-6.61309e-08
-1.32942e-08
0.00279101
5.83075e-08
-4.30132e-09
0.00279101
-1.66226e-08
2.38757e-08
0.00279101
-1.71324e-08
-2.75488e-08
0.00279101
7.74005e-08
2.66892e-08
0.00279101
-1.12861e-07
-1.20009e-08
0.002791
1.46829e-07
7.90608e-10
0.00279102
-1.2259e-07
1.15611e-08
0.00279101
7.55563e-08
-1.14814e-08
0.00279101
2.19767e-08
8.75774e-09
0.00279102
-9.64551e-08
2.21761e-09
0.002791
1.57427e-07
-9.80037e-09
0.00279102
-1.43199e-07
1.90796e-08
0.00279101
1.03306e-07
-2.04955e-08
0.002791
-1.79131e-08
1.85784e-08
0.00279101
-3.64734e-08
-7.29644e-09
0.00279101
8.23361e-08
-3.82083e-09
0.00279101
-6.78919e-08
1.67024e-08
0.00279102
4.9381e-08
-2.1974e-08
0.002791
2.61822e-09
2.34553e-08
0.00279102
-2.32604e-08
-1.326e-08
0.002791
5.07347e-08
4.45037e-10
0.00279101
-3.75156e-08
1.70619e-08
0.00279101
3.72922e-08
-2.49288e-08
0.002791
-1.17553e-08
2.82779e-08
0.00279102
1.51836e-08
-1.73483e-08
0.002791
-3.62598e-09
5.4517e-09
0.00279101
1.88303e-08
1.33698e-08
0.00279101
-7.11836e-09
-2.01177e-08
0.00279101
6.11969e-09
2.12948e-08
0.00279101
2.86112e-08
-3.37775e-09
0.00279101
-4.47465e-08
-1.25983e-08
0.002791
7.17061e-08
3.08835e-08
0.00279101
-5.75303e-08
-2.91719e-08
0.00279101
4.54796e-08
2.11437e-08
-4.1175e-09
4.71758e-09
0.00253605
-1.9702e-08
-1.33869e-08
0.00253605
5.85429e-08
4.11057e-08
0.00253604
-6.17715e-08
-4.40461e-08
0.00253605
8.12735e-08
4.40684e-08
0.00253604
-6.23941e-08
-2.09002e-08
0.00253605
5.73846e-08
4.33685e-09
0.00253605
-1.40389e-08
2.09887e-08
0.00253604
-1.4424e-08
-2.66208e-08
0.00253605
7.8432e-08
3.11966e-08
0.00253604
-1.14775e-07
-1.60372e-08
0.00253604
1.57991e-07
6.76123e-09
0.00253605
-1.33536e-07
9.13219e-09
0.00253604
8.64202e-08
-8.67269e-09
0.00253605
2.42326e-08
8.86172e-09
0.00253605
-1.06888e-07
4.35642e-09
0.00253604
1.78069e-07
-1.08316e-08
0.00253605
-1.59025e-07
2.27623e-08
0.00253605
1.14058e-07
-2.14555e-08
0.00253604
-1.46625e-08
1.95849e-08
0.00253605
-4.32453e-08
-3.64876e-09
0.00253604
9.29788e-08
-7.65949e-09
0.00253604
-6.94529e-08
2.39455e-08
0.00253605
4.60243e-08
-2.66217e-08
0.00253604
1.61495e-08
2.82386e-08
0.00253605
-3.52763e-08
-1.31987e-08
0.00253604
6.24135e-08
8.61022e-11
0.00253604
-3.832e-08
2.15702e-08
0.00253605
3.35909e-08
-2.80899e-08
0.00253604
9.69256e-10
3.33798e-08
0.00253605
4.59899e-09
-1.85194e-08
0.00253604
7.42891e-09
6.12819e-09
0.00253605
1.70313e-08
1.79559e-08
0.00253605
-7.63889e-09
-2.47917e-08
0.00253604
1.25788e-08
2.9609e-08
0.00253605
2.74603e-08
-9.00917e-09
0.00253605
-4.50361e-08
-7.31684e-09
0.00253604
7.95798e-08
3.27611e-08
0.00253605
-6.25027e-08
-3.44202e-08
0.00253604
5.03062e-08
3.30652e-08
-5.08392e-10
-6.47066e-09
0.00229767
-2.1623e-08
-2.50126e-09
0.00229767
6.2214e-08
3.94473e-08
0.00229766
-5.79005e-08
-4.72727e-08
0.00229768
7.70551e-08
5.4822e-08
0.00229766
-5.25337e-08
-3.05521e-08
0.00229767
5.25353e-08
1.43013e-08
0.00229767
-1.01479e-08
1.80534e-08
0.00229766
-9.08567e-09
-2.58867e-08
0.00229768
7.30333e-08
3.62172e-08
0.00229766
-1.06046e-07
-1.95436e-08
0.00229767
1.56552e-07
1.19254e-08
0.00229767
-1.32771e-07
8.58587e-09
0.00229767
9.1148e-08
-7.30954e-09
0.00229767
2.49079e-08
1.03989e-08
0.00229767
-1.07534e-07
6.82466e-09
0.00229767
1.84823e-07
-1.26536e-08
0.00229767
-1.61235e-07
2.85998e-08
0.00229767
1.16297e-07
-2.41591e-08
0.00229767
-8.72303e-09
2.24589e-08
0.00229767
-4.79689e-08
-2.33806e-10
0.00229767
1.00012e-07
-1.15994e-08
0.00229767
-6.842e-08
3.29925e-08
0.00229767
4.31481e-08
-3.31009e-08
0.00229766
2.69851e-08
3.55355e-08
0.00229767
-4.30354e-08
-1.4337e-08
0.00229767
7.07883e-08
3.48435e-10
0.00229767
-3.69218e-08
2.71916e-08
0.00229767
2.9672e-08
-3.25176e-08
0.00229766
1.29572e-08
4.02071e-08
0.00229767
-4.35936e-09
-2.00864e-08
0.00229766
1.73925e-08
6.83345e-09
0.00229767
1.59649e-08
2.39809e-08
0.00229767
-7.89942e-09
-3.08465e-08
0.00229766
1.9421e-08
3.91973e-08
0.00229767
2.48674e-08
-1.42473e-08
0.00229766
-4.14558e-08
-3.39089e-09
0.00229767
8.23015e-08
3.75758e-08
0.00229767
-6.18698e-08
-4.26942e-08
0.00229767
5.14229e-08
4.77138e-08
4.41633e-09
-1.86707e-08
0.00206142
-2.27891e-08
1.62427e-08
0.00206143
6.16961e-08
3.59636e-08
0.00206141
-4.78127e-08
-5.73197e-08
0.00206144
6.52412e-08
7.58068e-08
0.00206141
-3.51725e-08
-5.20667e-08
0.00206143
4.08364e-08
3.1745e-08
0.00206143
-1.67983e-09
1.13286e-08
0.00206141
-4.70337e-09
-2.71113e-08
0.00206144
6.28833e-08
4.46169e-08
0.0020614
-8.62797e-08
-2.66121e-08
0.00206144
1.38776e-07
1.65066e-08
0.00206141
-1.14911e-07
1.1526e-08
0.00206143
8.3577e-08
-1.30484e-08
0.00206143
2.77606e-08
1.85701e-08
0.00206141
-9.92141e-08
4.55865e-09
0.00206144
1.74798e-07
-1.53228e-08
0.00206141
-1.45404e-07
3.98627e-08
0.00206143
1.04897e-07
-3.70554e-08
0.00206142
2.68389e-09
3.66819e-08
0.00206142
-5.07961e-08
-6.98267e-09
0.00206142
1.01887e-07
-1.15e-08
0.00206142
-6.27109e-08
4.3804e-08
0.00206143
3.85712e-08
-4.824e-08
0.00206142
3.5961e-08
5.42968e-08
0.00206142
-4.6955e-08
-2.71265e-08
0.00206142
7.51977e-08
7.24327e-09
0.00206142
-3.33874e-08
3.1667e-08
0.00206142
2.58787e-08
-4.33454e-08
0.00206141
2.3086e-08
5.62363e-08
0.00206143
-1.14255e-08
-3.15519e-08
0.00206141
2.64895e-08
1.16584e-08
0.00206142
1.37233e-08
3.1481e-08
0.00206142
-5.79582e-09
-4.6377e-08
0.00206142
2.41496e-08
6.04943e-08
0.00206143
2.16365e-08
-3.14735e-08
0.00206141
-3.34219e-08
4.98192e-09
0.00206143
7.7231e-08
4.43551e-08
0.00206142
-5.2785e-08
-6.22042e-08
0.00206142
4.58433e-08
7.63375e-08
1.22832e-08
-4.54659e-08
0.00182307
-2.56913e-08
7.46559e-08
0.00182308
6.10806e-08
-5.80281e-09
0.00182306
-3.81007e-08
-4.56793e-08
0.00182309
5.22078e-08
9.41382e-08
0.00182305
-1.65842e-08
-9.09272e-08
0.00182308
2.55106e-08
7.38846e-08
0.00182306
1.08136e-08
-1.91783e-08
0.00182306
-5.75886e-09
-1.66716e-08
0.00182308
5.52401e-08
5.39127e-08
0.00182304
-6.56618e-08
-4.67685e-08
0.00182309
1.13886e-07
3.57531e-08
0.00182305
-8.74147e-08
4.03569e-09
0.00182308
6.59543e-08
-2.07888e-08
0.00182307
3.48425e-08
3.95452e-08
0.00182305
-8.92448e-08
-2.03602e-08
0.00182308
1.5654e-07
3.57332e-09
0.00182305
-1.20622e-07
3.5724e-08
0.00182308
8.58731e-08
-5.00012e-08
0.00182306
1.6514e-08
6.44379e-08
0.00182307
-5.30652e-08
-4.13872e-08
0.00182307
1.00559e-07
1.86527e-08
0.00182306
-5.56097e-08
2.76292e-08
0.00182307
3.44113e-08
-5.2357e-08
0.00182306
4.10038e-08
7.77902e-08
0.00182307
-4.68969e-08
-6.39868e-08
0.00182306
7.61319e-08
4.38604e-08
0.00182306
-2.99701e-08
6.59872e-09
0.00182307
2.43205e-08
-4.08276e-08
0.00182306
2.81423e-08
7.60624e-08
0.00182307
-1.41678e-08
-6.83619e-08
0.00182306
3.2423e-08
4.80221e-08
0.00182307
1.06777e-08
8.75971e-09
0.00182306
-8.83013e-10
-5.13155e-08
0.00182307
2.42244e-08
9.17557e-08
0.00182307
2.07607e-08
-8.22276e-08
0.00182306
-2.57282e-08
5.41731e-08
0.00182308
6.86441e-08
1.32845e-08
0.00182306
-3.96816e-08
-6.45952e-08
0.00182308
3.57719e-08
1.10776e-07
2.22643e-08
-1.0266e-07
0.00159119
-2.82522e-08
1.28725e-07
0.00159119
6.02607e-08
-8.74452e-08
0.00159118
-3.15645e-08
3.22976e-08
0.0015912
4.23367e-08
4.50993e-08
0.00159117
-3.10902e-09
-8.53914e-08
0.0015912
1.29348e-08
1.06855e-07
0.00159118
2.1196e-08
-7.35638e-08
0.00159119
-8.70549e-09
3.45606e-08
0.00159119
5.00434e-08
2.40277e-08
0.00159117
-4.94067e-08
-4.73819e-08
0.00159121
9.11468e-08
5.98959e-08
0.00159116
-6.20261e-08
-3.02031e-08
0.0015912
4.81953e-08
4.47866e-09
0.00159118
4.06175e-08
3.36972e-08
0.00159118
-7.90265e-08
-3.92769e-08
0.0015912
1.36886e-07
3.85488e-08
0.00159117
-9.69651e-08
-5.24244e-09
0.0015912
6.85686e-08
-2.04458e-08
0.00159118
2.59657e-08
5.42302e-08
0.00159118
-5.22756e-08
-5.90257e-08
0.00159119
9.64032e-08
5.67525e-08
0.00159118
-4.97607e-08
-2.42069e-08
0.00159118
3.29998e-08
-6.72306e-09
0.00159119
4.03521e-08
4.89905e-08
0.00159118
-4.24385e-08
-6.75167e-08
0.00159119
7.29251e-08
7.5845e-08
0.00159119
-2.65757e-08
-4.85529e-08
0.00159118
2.43937e-08
1.3187e-08
0.00159119
2.80663e-08
3.94239e-08
0.00159119
-1.22475e-08
-6.97113e-08
0.00159118
3.30848e-08
8.44162e-08
0.00159119
9.59214e-09
-5.42127e-08
0.00159118
3.03128e-09
8.70799e-09
0.00159119
2.2108e-08
5.70072e-08
0.00159119
2.14448e-08
-9.42603e-08
0.00159118
-2.09026e-08
1.08979e-07
0.0015912
6.1118e-08
-6.88092e-08
0.00159118
-2.91032e-08
1.16761e-08
0.0015912
2.69703e-08
6.69784e-08
2.95405e-08
-1.10203e-07
0.00137319
-2.78999e-08
8.66463e-08
0.00137319
5.76007e-08
-9.6058e-08
0.00137319
-2.73912e-08
8.4974e-08
0.00137319
3.59158e-08
-3.194e-08
0.00137318
4.43767e-09
-1.47092e-08
0.0013732
4.64361e-09
6.48812e-08
0.00137318
2.77959e-08
-7.32348e-08
0.0013732
-1.16015e-08
6.72985e-08
0.00137319
4.57626e-08
-2.60211e-08
0.00137318
-3.67641e-08
-5.16401e-09
0.0013732
7.12991e-08
3.89598e-08
0.00137317
-4.07864e-08
-3.86794e-08
0.0013732
3.31993e-08
3.14205e-08
0.00137318
4.27931e-08
-5.88677e-10
0.00137318
-6.71971e-08
-1.75996e-08
0.0013732
1.16077e-07
3.54341e-08
0.00137318
-7.56712e-08
-2.71667e-08
0.00137319
5.48092e-08
1.47553e-08
0.00137318
2.90459e-08
1.29265e-08
0.00137318
-4.6558e-08
-3.01225e-08
0.00137319
8.77364e-08
4.53997e-08
0.00137319
-4.35329e-08
-4.01935e-08
0.00137319
3.27073e-08
2.84101e-08
0.00137319
3.51472e-08
-8.09329e-10
0.00137318
-3.4299e-08
-2.31129e-08
0.00137319
6.55348e-08
4.71231e-08
0.00137319
-2.22781e-08
-5.15284e-08
0.00137319
2.40272e-08
4.42723e-08
0.00137319
2.54641e-08
-1.4392e-08
0.00137319
-8.61953e-09
-1.71925e-08
0.00137319
3.04463e-08
5.11018e-08
0.00137319
9.82754e-09
-5.95602e-08
0.00137319
4.62782e-09
5.05456e-08
0.00137319
2.03342e-08
-9.66192e-09
0.00137319
2.06194e-08
-3.22144e-08
0.00137319
-1.6729e-08
7.60953e-08
0.0013732
5.39016e-08
-8.38642e-08
0.00137318
-2.19891e-08
7.02583e-08
0.0013732
2.16303e-08
-1.68111e-08
3.1414e-08
-3.39132e-08
0.00117345
-2.47192e-08
2.5071e-08
0.00117345
5.20912e-08
-4.63262e-08
0.00117345
-2.3525e-08
6.30502e-08
0.00117345
3.14192e-08
-4.60828e-08
0.00117344
7.07123e-09
2.63326e-08
0.00117345
8.5702e-10
1.201e-08
0.00117344
3.00948e-08
-3.04327e-08
0.00117345
-1.36997e-08
4.63527e-08
0.00117344
4.27741e-08
-3.30941e-08
0.00117344
-2.87628e-08
2.00278e-08
0.00117345
5.60915e-08
6.59139e-09
0.00117343
-2.45815e-08
-1.63403e-08
0.00117345
2.05864e-08
2.44673e-08
0.00117344
4.3467e-08
-1.30793e-08
0.00117344
-5.64959e-08
3.67023e-09
0.00117345
9.61942e-08
1.218e-08
0.00117344
-5.68879e-08
-1.61439e-08
0.00117345
4.26504e-08
1.72529e-08
0.00117344
2.90719e-08
-7.07071e-09
0.00117344
-3.87139e-08
-3.21114e-09
0.00117345
7.57224e-08
1.5946e-08
0.00117344
-3.57682e-08
-2.214e-08
0.00117344
3.07109e-08
2.3619e-08
0.00117345
2.89925e-08
-1.60667e-08
0.00117344
-2.5399e-08
4.13873e-09
0.00117345
5.56287e-08
1.15974e-08
0.00117344
-1.70268e-08
-2.33607e-08
0.00117344
2.21269e-08
2.96342e-08
0.00117345
2.22354e-08
-2.33407e-08
0.00117344
-5.05032e-09
9.79789e-09
0.00117345
2.64208e-08
1.22122e-08
0.00117345
1.00674e-08
-2.73594e-08
0.00117344
5.18705e-09
3.66042e-08
0.00117345
1.82849e-08
-2.47876e-08
0.00117345
1.87711e-08
6.08296e-09
0.00117344
-1.26153e-08
2.60038e-08
0.00117345
4.59801e-08
-4.41382e-08
0.00117344
-1.61897e-08
5.62514e-08
0.00117345
1.78342e-08
-3.83897e-08
2.96442e-08
1.54446e-08
0.000993975
-2.0691e-08
2.6497e-09
0.000993978
4.50353e-08
-1.32155e-08
0.000993975
-1.92312e-08
3.06272e-08
0.000993976
2.70626e-08
-2.59786e-08
0.000993975
7.38779e-09
2.44238e-08
0.000993975
7.68355e-11
-4.04533e-09
0.000993973
2.84412e-08
-4.767e-09
0.000993976
-1.36561e-08
2.03713e-08
0.000993973
3.93637e-08
-1.71488e-08
0.000993972
-2.40571e-08
1.66015e-08
0.000993978
4.56861e-08
-3.02524e-09
0.000993968
-1.44885e-08
-1.99928e-09
0.000993977
1.17043e-08
9.82823e-09
0.000993973
4.25302e-08
-7.15116e-09
0.000993969
-4.80822e-08
5.06483e-09
0.00099398
7.95024e-08
1.18012e-09
0.000993968
-4.22154e-08
-4.54129e-09
0.000993975
3.23651e-08
5.9998e-09
0.000993976
2.7896e-08
-5.37468e-09
0.000993968
-3.16373e-08
1.39674e-09
0.000993979
6.34049e-08
1.35267e-09
0.000993971
-2.7926e-08
-6.79896e-09
0.000993974
2.69404e-08
7.66615e-09
0.000993978
2.39818e-08
-9.75536e-09
0.00099397
-1.82137e-08
5.30433e-09
0.00099398
4.57569e-08
-1.6784e-09
0.000993974
-1.19314e-08
-6.33786e-09
0.000993976
1.90351e-08
1.05965e-08
0.000993978
1.94499e-08
-1.29643e-08
0.000993974
-2.48529e-09
8.93341e-09
0.000993978
2.213e-08
-2.30024e-10
0.000993977
1.0166e-08
-8.87305e-09
0.000993976
5.04882e-09
1.71842e-08
0.000993979
1.5954e-08
-1.49789e-08
0.000993977
1.69208e-08
9.58711e-09
0.000993976
-9.47522e-09
7.39087e-09
0.00099398
3.84536e-08
-1.7307e-08
0.000993975
-1.13322e-08
3.02594e-08
0.000993978
1.4369e-08
-2.43746e-08
2.6762e-08
1.95605e-08
0.000835159
-1.70922e-08
1.43091e-09
0.000835162
3.79732e-08
-3.27144e-09
0.000835159
-1.521e-08
1.61197e-08
0.00083516
2.25254e-08
-1.09549e-08
0.00083516
7.10572e-09
1.43279e-08
0.000835158
7.6464e-11
-2.04467e-09
0.000835159
2.48263e-08
5.0241e-10
0.000835158
-1.1999e-08
9.58023e-09
0.000835158
3.46633e-08
-7.12149e-09
0.000835156
-2.046e-08
8.50776e-09
0.00083516
3.79997e-08
-1.86579e-09
0.000835154
-9.0292e-09
-4.96545e-10
0.000835159
6.48668e-09
3.32854e-09
0.000835159
3.94704e-08
-3.1392e-09
0.000835153
-4.10163e-08
3.58453e-10
0.000835163
6.5772e-08
-2.31557e-10
0.000835153
-3.16289e-08
-3.11888e-09
0.000835159
2.44054e-08
-3.84319e-10
0.000835161
2.58432e-08
-2.1323e-09
0.000835154
-2.58249e-08
-2.97733e-09
0.000835164
5.23359e-08
-6.91976e-10
0.000835156
-2.11958e-08
-3.91402e-09
0.00083516
2.25571e-08
-5.68296e-10
0.000835162
2.01565e-08
-3.59062e-09
0.000835157
-1.30981e-08
-8.13958e-10
0.000835164
3.72617e-08
-1.88603e-09
0.000835159
-7.88303e-09
-2.8384e-09
0.000835162
1.57074e-08
2.3042e-09
0.000835163
1.71742e-08
-5.29979e-09
0.00083516
-1.05076e-09
3.66245e-09
0.000835163
1.83667e-08
-6.15745e-10
0.000835162
9.9293e-09
-3.4185e-09
0.000835161
4.4575e-09
9.168e-09
0.000835163
1.3774e-08
-7.43686e-09
0.000835162
1.50716e-08
6.97142e-09
0.000835161
-7.32514e-09
4.59304e-09
0.000835164
3.1976e-08
-7.75921e-09
0.00083516
-7.75423e-09
1.84482e-08
0.000835162
1.13202e-08
-1.24772e-08
2.36495e-08
1.37294e-08
0.000696321
-1.41818e-08
2.13112e-09
0.000696324
3.15396e-08
-8.09819e-10
0.000696321
-1.19774e-08
1.12896e-08
0.000696322
1.82191e-08
-5.64072e-09
0.000696322
6.60333e-09
8.79452e-09
0.00069632
-6.67135e-11
-7.45178e-11
0.000696322
2.08481e-08
-3.52126e-10
0.000696319
-9.95578e-09
5.92089e-09
0.000696321
2.93146e-08
-4.92504e-09
0.000696318
-1.71669e-08
3.96574e-09
0.000696322
3.15312e-08
-1.77486e-09
0.000696318
-6.0729e-09
-2.34694e-09
0.00069632
3.61189e-09
7.47294e-10
0.000696322
3.49849e-08
-3.7147e-09
0.000696316
-3.46487e-08
-2.45292e-09
0.000696325
5.42235e-08
-1.20673e-09
0.000696317
-2.39985e-08
-5.08468e-09
0.000696322
1.84605e-08
-2.06163e-09
0.000696324
2.32421e-08
-2.78122e-09
0.000696318
-2.11368e-08
-5.43409e-09
0.000696326
4.29368e-08
-5.05294e-10
0.00069632
-1.58655e-08
-5.39608e-09
0.000696324
1.83645e-08
-1.73728e-09
0.000696325
1.72006e-08
-2.31509e-09
0.000696321
-9.65633e-09
-3.44265e-09
0.000696327
3.03441e-08
1.68502e-10
0.000696323
-5.01534e-09
-3.27969e-09
0.000696325
1.27369e-08
1.3094e-09
0.000696326
1.51303e-08
-1.98806e-09
0.000696324
-3.78266e-10
1.69942e-09
0.000696326
1.52633e-08
1.05618e-09
0.000696326
9.24857e-09
-9.73143e-10
0.000696325
3.71732e-09
6.85618e-09
0.000696326
1.17885e-08
-3.29287e-09
0.000696325
1.31359e-08
6.60016e-09
0.000696324
-5.85815e-09
4.03436e-09
0.000696326
2.64592e-08
-2.92804e-09
0.000696323
-5.36862e-09
1.3915e-08
0.000696324
8.76878e-09
-6.97511e-09
2.04633e-08
1.10514e-08
0.000576156
-1.18676e-08
1.20073e-09
0.000576159
2.58634e-08
3.39063e-10
0.000576155
-9.54877e-09
7.80054e-09
0.000576157
1.44355e-08
-4.39389e-09
0.000576156
5.91355e-09
5.74348e-09
0.000576155
-3.90005e-10
-9.51978e-10
0.000576157
1.71805e-08
-1.56635e-09
0.000576154
-8.14215e-09
3.00603e-09
0.000576157
2.41358e-08
-5.41875e-09
0.000576153
-1.41694e-08
1.24675e-09
0.000576157
2.58524e-08
-3.40793e-09
0.000576154
-4.29119e-09
-3.74138e-09
0.000576155
1.9711e-09
-1.45196e-09
0.000576158
3.00519e-08
-5.02797e-09
0.000576152
-2.89093e-08
-3.66564e-09
0.00057616
4.44296e-08
-2.82209e-09
0.000576154
-1.83541e-08
-5.92987e-09
0.000576157
1.40147e-08
-2.51657e-09
0.00057616
2.0431e-08
-4.05172e-09
0.000576155
-1.73423e-08
-5.06879e-09
0.000576162
3.51385e-08
-8.50716e-10
0.000576157
-1.1853e-08
-5.46913e-09
0.00057616
1.47159e-08
-7.61993e-10
0.000576161
1.47773e-08
-2.31552e-09
0.000576158
-7.37105e-09
-2.37001e-09
0.000576163
2.47701e-08
1.30425e-09
0.00057616
-3.14781e-09
-2.6142e-09
0.000576161
1.02387e-08
2.67222e-09
0.000576162
1.31519e-08
-3.48847e-10
0.00057616
-1.4157e-10
2.24611e-09
0.000576162
1.26471e-08
2.62572e-09
0.000576161
8.22392e-09
1.00221e-09
0.00057616
2.96306e-09
6.16159e-09
0.000576161
9.92512e-09
-3.31436e-10
0.000576161
1.11615e-08
6.55451e-09
0.000576159
-4.86301e-09
3.67413e-09
0.000576161
2.17329e-08
3.34925e-10
0.000576158
-3.88309e-09
1.0532e-08
0.000576158
6.66286e-09
-3.94991e-09
1.73216e-08
9.37308e-09
0.000473026
-9.98859e-09
-2.06167e-10
0.000473028
2.09464e-08
3.92183e-10
0.000473026
-7.71359e-09
4.17294e-09
0.000473027
1.12518e-08
-4.23707e-09
0.000473026
5.1059e-09
2.96231e-09
0.000473025
-7.32852e-10
-2.66962e-09
0.000473027
1.39933e-08
-2.57732e-09
0.000473024
-6.67263e-09
1.12593e-10
0.000473027
1.95501e-08
-5.99018e-09
0.000473024
-1.15508e-08
-8.38808e-10
0.000473027
2.09248e-08
-4.86376e-09
0.000473026
-3.0775e-09
-4.38669e-09
0.000473026
9.62648e-10
-3.09049e-09
0.000473029
2.52987e-08
-5.40231e-09
0.000473024
-2.38528e-08
-4.09613e-09
0.000473031
3.61413e-08
-3.60995e-09
0.000473026
-1.40576e-08
-5.37709e-09
0.000473029
1.06253e-08
-2.48929e-09
0.000473031
1.76441e-08
-3.99395e-09
0.000473027
-1.42391e-08
-3.56393e-09
0.000473033
2.86595e-08
-8.37198e-10
0.000473029
-8.89002e-09
-3.86834e-09
0.000473031
1.16508e-08
3.78344e-10
0.000473032
1.26367e-08
-1.44325e-09
0.00047303
-5.83437e-09
-2.42571e-10
0.000473033
2.0203e-08
1.95795e-09
0.000473031
-2.02145e-09
-7.40658e-10
0.000473032
8.14819e-09
3.90653e-09
0.000473032
1.12053e-08
9.01063e-10
0.000473031
-1.43006e-10
3.39792e-09
0.000473032
1.03652e-08
3.55393e-09
0.000473031
7.01154e-09
2.30482e-09
0.000473031
2.23693e-09
5.73351e-09
0.000473031
8.16985e-09
1.37377e-09
0.000473031
9.24135e-09
5.8215e-09
0.000473029
-4.17676e-09
3.32289e-09
0.00047303
1.76669e-08
1.62212e-09
0.000473028
-2.98661e-09
7.39455e-09
0.000473028
4.92401e-09
-2.31233e-09
1.43633e-08
6.92945e-09
0.000385161
-8.40892e-09
-1.47278e-09
0.000385164
1.67464e-08
-4.63209e-10
0.000385161
-6.26704e-09
1.14876e-09
0.000385162
8.64023e-09
-4.40586e-09
0.000385162
4.30251e-09
4.6868e-10
0.000385161
-9.90631e-10
-3.92061e-09
0.000385163
1.12947e-08
-3.39396e-09
0.000385161
-5.48536e-09
-1.96434e-09
0.000385164
1.56617e-08
-6.03033e-09
0.000385161
-9.33079e-09
-2.20005e-09
0.000385164
1.67353e-08
-5.34581e-09
0.000385163
-2.18571e-09
-4.36437e-09
0.000385163
2.92062e-10
-3.65897e-09
0.000385166
2.09959e-08
-4.87033e-09
0.000385161
-1.95029e-08
-3.8038e-09
0.000385167
2.91436e-08
-3.24168e-09
0.000385164
-1.07394e-08
-4.11977e-09
0.000385165
7.97206e-09
-1.86841e-09
0.000385168
1.49967e-08
-2.85775e-09
0.000385164
-1.1702e-08
-1.87285e-09
0.000385169
2.32225e-08
-1.61841e-10
0.000385166
-6.71147e-09
-1.83836e-09
0.000385168
9.08387e-09