/*--------------------------------*- C++ -*----------------------------------*\
  =========                 |
  \\      /  F ield         | OpenFOAM: The Open Source CFD Toolbox
   \\    /   O peration     | Website:  https://openfoam.org
    \\  /    A nd           | Version:  10
     \\/     M anipulation  |
\*---------------------------------------------------------------------------*/
FoamFile
{
    format      ascii;
    class       volVectorField;
    location    "5";
    object      U_0;
}
// * * * * * * * * * * * * * * * * * * * * * * * * * * * * * * * * * * * * * //

dimensions      [0 1 -1 0 0 0 0];

internalField   nonuniform List<vector> 
25600
(
(0.0603588 -0.000550967 -0.00135074)
(0.0637716 -0.000319762 -0.016618)
(0.0783285 0.000503747 -0.0308266)
(0.0725309 0.00103629 -0.0334561)
(0.0620497 0.000503644 -0.017455)
(0.0746485 -0.0004884 0.0050104)
(0.100357 -0.000905306 0.0117889)
(0.105928 -0.000181577 0.00628418)
(0.114645 0.00130734 0.00861446)
(0.13578 0.00137125 -0.0003395)
(0.151179 -0.000250299 -0.0242159)
(0.144639 -0.000795072 -0.0297783)
(0.125665 -0.000392176 -0.0188924)
(0.111242 0.000102917 -0.0155443)
(0.100199 0.000668069 -0.0227165)
(0.0810939 0.000458486 -0.0244348)
(0.0707296 -5.85872e-05 -0.0182796)
(0.068701 0.000179383 -0.0140472)
(0.0649436 0.000511772 -0.0107474)
(0.0628956 0.000185447 -0.00593906)
(0.0694266 -2.13458e-05 -0.00909878)
(0.0732794 -2.73196e-05 -0.0102479)
(0.0722793 3.16817e-05 -0.000917261)
(0.0794402 0.000274518 0.00169886)
(0.103734 -2.97742e-05 -0.00681021)
(0.130156 -0.000522323 -0.011052)
(0.145308 -0.000634867 -0.00727443)
(0.140189 -0.000434629 -0.00370712)
(0.134732 -0.000356611 -0.00563175)
(0.133502 -0.000139699 -0.00905866)
(0.117496 2.68215e-05 -0.00309872)
(0.0965736 7.91641e-05 0.00427898)
(0.0905553 0.00020399 -0.000711133)
(0.0863812 0.000433309 -0.0134684)
(0.0749575 0.000273716 -0.0201597)
(0.0678407 7.63753e-05 -0.0178512)
(0.0637056 -8.87453e-05 -0.00889507)
(0.0691916 -0.000244972 0.00489203)
(0.0736924 -0.000228722 0.0184784)
(0.0691602 -0.000372253 0.0155969)
(0.185117 -0.00340605 -0.00701633)
(0.173815 -0.0024751 -0.0298007)
(0.209864 0.00231535 -0.0487499)
(0.217458 0.00509283 -0.0507914)
(0.211649 0.00179833 -0.0266814)
(0.227202 -0.0020163 0.00718475)
(0.272226 -0.0024986 0.0270741)
(0.25862 -1.46938e-05 0.0241392)
(0.265746 0.00421656 0.0397376)
(0.37083 0.00477541 0.0373351)
(0.465934 -0.00168814 -0.0127429)
(0.463388 -0.00361254 -0.0555985)
(0.397355 -0.00200679 -0.0514334)
(0.332278 -0.000151244 -0.0455605)
(0.316299 0.00336174 -0.058429)
(0.279638 0.00361879 -0.0523039)
(0.229857 0.00229446 -0.0315935)
(0.205693 0.002779 -0.0238684)
(0.199265 0.00258304 -0.0199111)
(0.198011 0.000741946 -0.0146372)
(0.210774 0.000313206 -0.0246294)
(0.216249 0.00079868 -0.0226025)
(0.21167 0.000920329 -0.000578643)
(0.235333 -0.000185208 0.00274631)
(0.312587 -0.00327353 -0.00956202)
(0.374852 -0.00618103 -0.0150977)
(0.399231 -0.00582053 -0.0165422)
(0.396834 -0.0034715 -0.0159426)
(0.388425 -0.00289232 -0.0157308)
(0.395897 -0.00133454 -0.0234442)
(0.376146 0.000894992 -0.0140311)
(0.313519 0.00116273 0.00275554)
(0.279601 0.0012885 -0.00517773)
(0.280285 0.00166881 -0.0313976)
(0.260078 0.000857026 -0.0456638)
(0.229368 0.000119411 -0.0413188)
(0.197028 6.14046e-05 -0.0203974)
(0.201824 0.00010067 0.0126202)
(0.220668 -0.000784843 0.0404142)
(0.216224 -0.00239574 0.030245)
(0.340936 -0.00433756 0.00219687)
(0.274005 -0.00500088 -0.0286292)
(0.281752 0.00320088 -0.0409746)
(0.322567 0.00950041 -0.0363214)
(0.364504 0.00314218 -0.00763511)
(0.365942 -0.00371298 0.00849238)
(0.412576 -0.00207794 0.0311115)
(0.382485 0.00381057 0.0417142)
(0.319853 0.00670379 0.0640562)
(0.437153 0.00466583 0.0942353)
(0.617403 -0.00388492 0.0693113)
(0.694785 -0.00606614 0.000299554)
(0.675608 -0.00197469 -0.0480493)
(0.555158 -0.00242795 -0.066783)
(0.504465 0.00115757 -0.0940397)
(0.489261 0.00649493 -0.0819616)
(0.409299 0.00762151 -0.0404857)
(0.352706 0.00828943 -0.0222491)
(0.343265 0.00641659 -0.017346)
(0.339557 0.00160469 -0.0111594)
(0.351721 0.000713568 -0.0322548)
(0.356164 0.00190175 -0.0395326)
(0.351421 0.00229476 -0.00523087)
(0.387829 -0.00154677 0.0156382)
(0.512244 -0.00782016 0.0126086)
(0.608465 -0.0119151 0.0111197)
(0.58751 -0.0121204 -0.00780815)
(0.562753 -0.00803274 -0.0320598)
(0.5615 -0.00584159 -0.0321957)
(0.571242 -0.00439439 -0.0425649)
(0.608252 0.000817686 -0.0389426)
(0.569409 0.00385748 -0.0106492)
(0.491326 0.00365424 -0.00400097)
(0.496707 0.00256429 -0.0332557)
(0.50294 0.00117462 -0.0590194)
(0.459337 0.000228983 -0.0640313)
(0.356501 0.000457722 -0.0434037)
(0.322181 0.00165997 0.00258251)
(0.363733 0.000490796 0.0493082)
(0.386181 -0.00260212 0.0488256)
(0.521611 0.000243308 0.0151392)
(0.421439 -0.00200735 -0.0266736)
(0.342134 0.00554117 -0.0316428)
(0.377574 0.0127346 -0.00841439)
(0.517514 0.00282357 0.0354671)
(0.532501 -0.00760815 0.033788)
(0.529278 -0.00231637 0.0329954)
(0.48804 0.0122467 0.0506618)
(0.372126 0.01234 0.0777972)
(0.454689 0.000924539 0.112553)
(0.670107 -0.00834022 0.115218)
(0.731762 -0.00863947 0.0618235)
(0.813604 -0.0015441 0.0145894)
(0.749631 -0.000735928 -0.0312005)
(0.641405 -0.00235247 -0.0912882)
(0.644947 0.00660061 -0.106115)
(0.582684 0.0147661 -0.056059)
(0.495201 0.0169568 -0.0156922)
(0.476215 0.0123099 -0.00193456)
(0.473289 0.00290511 0.0126063)
(0.484748 0.00099199 -0.0146864)
(0.480568 0.00332792 -0.0528388)
(0.471958 0.00379975 -0.0189184)
(0.510206 -0.00398269 0.0419753)
(0.635759 -0.0160592 0.0597493)
(0.821702 -0.0166804 0.0724822)
(0.803012 -0.0121739 0.0454596)
(0.678752 -0.00974747 -0.0284486)
(0.648671 -0.00624892 -0.0551699)
(0.644628 -0.00438198 -0.0666707)
(0.687845 -0.00131588 -0.075991)
(0.744261 0.0050791 -0.0450053)
(0.688638 0.00814302 -0.0164273)
(0.677064 0.00466255 -0.0334718)
(0.72041 0.000866678 -0.0615827)
(0.760451 0.000934768 -0.0779356)
(0.616885 0.00107468 -0.0729643)
(0.450956 0.00213369 -0.0255583)
(0.469755 0.00303892 0.0387923)
(0.53291 0.00137695 0.0584083)
(0.659214 0.00661253 0.0200206)
(0.589121 0.00548848 -0.0323124)
(0.448712 0.0121901 -0.0323385)
(0.438474 0.0146578 -0.0104304)
(0.680739 -0.00251986 0.0209952)
(0.78452 -0.0131311 0.0385364)
(0.671111 -0.00258079 0.0386734)
(0.572427 0.0224584 0.0578932)
(0.470311 0.0223831 0.0696627)
(0.503686 -0.00512129 0.0760977)
(0.754299 -0.0181844 0.105962)
(0.791074 -0.0124216 0.0836509)
(0.831645 -0.00495277 0.0548709)
(0.841938 0.00226061 0.0290267)
(0.725942 0.000778388 -0.0473283)
(0.726114 0.00638969 -0.102134)
(0.711454 0.0219738 -0.0686362)
(0.631757 0.0290905 -0.0129893)
(0.596583 0.0209504 0.00972133)
(0.582907 0.00442552 0.0342832)
(0.595882 3.54332e-05 0.0247228)
(0.587169 0.00524859 -0.0436494)
(0.56864 0.00809493 -0.0241576)
(0.59251 -0.00167995 0.0799041)
(0.621046 -0.0275716 0.093452)
(0.828518 -0.0351991 0.0978645)
(0.990205 -0.0154722 0.112945)
(0.85856 -0.00639421 0.0256909)
(0.735535 -0.00395062 -0.049493)
(0.706901 0.000406515 -0.0765099)
(0.714955 0.000267562 -0.100521)
(0.795572 0.00396051 -0.0834756)
(0.801027 0.0119217 -0.0446977)
(0.802126 0.00917956 -0.0514548)
(0.805406 0.000319807 -0.0803001)
(0.937229 0.000336159 -0.0884395)
(0.967746 0.0035965 -0.0984288)
(0.686062 0.00342456 -0.0619944)
(0.55821 0.0043391 0.0134735)
(0.618644 0.00595672 0.0521096)
(0.751259 0.0105927 0.0131266)
(0.723366 0.0116605 -0.0411094)
(0.573043 0.0208285 -0.0409124)
(0.500848 0.0194793 -0.0282123)
(0.684239 -0.00898007 -0.0333742)
(0.958301 -0.0202343 -0.0176115)
(0.83661 -0.000760407 0.0217295)
(0.649613 0.0320958 0.059077)
(0.609715 0.0379836 0.0495011)
(0.62081 -0.00752691 0.0339539)
(0.853889 -0.0347624 0.0739747)
(0.915707 -0.0178262 0.0789982)
(0.864925 -0.00720947 0.0691195)
(0.867746 0.00265473 0.0722626)
(0.773807 0.00426784 0.000515434)
(0.769628 0.00604136 -0.0936352)
(0.782574 0.0285578 -0.0848527)
(0.731366 0.0433592 -0.0183373)
(0.705688 0.0332045 0.00552775)
(0.680459 0.00738103 0.0224093)
(0.682492 -0.00409014 0.04402)
(0.678046 0.00439365 -0.0269118)
(0.663353 0.013959 -0.0150071)
(0.68834 0.0111098 0.122531)
(0.649571 -0.021997 0.110716)
(0.699374 -0.0594823 0.0505048)
(0.980346 -0.0374356 0.102064)
(1.01666 -0.00845426 0.0700706)
(0.863233 -0.00122268 -0.0111447)
(0.780984 0.00623808 -0.0541032)
(0.769989 0.00524578 -0.0852685)
(0.830062 0.00298745 -0.0882871)
(0.842888 0.0130104 -0.0582039)
(0.886525 0.0130227 -0.0599375)
(0.856696 0.00110221 -0.0956821)
(0.891208 -0.0042772 -0.106674)
(1.13737 0.00292157 -0.113811)
(1.00141 0.00758873 -0.0931741)
(0.703643 0.00621039 -0.0151788)
(0.680733 0.00808009 0.0352777)
(0.808722 0.00956118 0.00403225)
(0.834793 0.0153479 -0.0503584)
(0.714936 0.0264862 -0.0557236)
(0.593968 0.0262792 -0.0524108)
(0.654978 -0.0120419 -0.0624806)
(0.93841 -0.0295107 -0.0477059)
(0.89629 0.00143025 0.00665305)
(0.692911 0.041271 0.0441911)
(0.727096 0.0494239 0.0299962)
(0.75179 -0.0103281 0.0466525)
(0.911252 -0.059992 0.0790259)
(1.01942 -0.0289114 0.0799387)
(0.923366 -0.00595039 0.0746985)
(0.871317 0.00495605 0.0982681)
(0.802751 0.00747188 0.0446943)
(0.813751 0.00296442 -0.0850906)
(0.824759 0.0311351 -0.102784)
(0.785478 0.0550076 -0.0257754)
(0.790616 0.0442533 -0.0085517)
(0.786352 0.0126215 -0.0174736)
(0.746554 -0.0069051 0.0275479)
(0.732268 4.77913e-05 -0.0129099)
(0.73514 0.0150064 -0.0108522)
(0.767677 0.0216522 0.121291)
(0.77812 -9.99735e-05 0.132925)
(0.725282 -0.0584194 0.0309864)
(0.872294 -0.0655668 0.0477002)
(1.06393 -0.0257518 0.0584901)
(0.990715 -0.00449539 0.00573649)
(0.859831 0.0108893 -0.0212747)
(0.826968 0.0111769 -0.0452287)
(0.88162 0.00302601 -0.0581102)
(0.884405 0.0133087 -0.0428185)
(0.929472 0.016466 -0.0442582)
(0.894603 0.00347187 -0.0789819)
(0.819497 -0.00885625 -0.104649)
(1.06939 -0.00659259 -0.113748)
(1.15289 0.00790145 -0.0957114)
(0.869663 0.0106955 -0.0273233)
(0.753612 0.00719199 0.0202822)
(0.835802 0.00485238 0.00779819)
(0.888357 0.0127762 -0.0458307)
(0.84214 0.0288839 -0.0716227)
(0.710285 0.0350277 -0.0820398)
(0.697192 -0.00662834 -0.0747246)
(0.900315 -0.0335944 -0.0465122)
(0.89846 0.00089687 -0.00349866)
(0.717921 0.0441428 0.0276638)
(0.7827 0.0562006 0.0499597)
(0.873286 -0.0048357 0.10735)
(0.963018 -0.0750583 0.112709)
(1.06699 -0.0461426 0.0896195)
(0.966871 -0.00454294 0.0790991)
(0.866288 0.00963613 0.113213)
(0.837347 0.00946669 0.0843458)
(0.902263 -0.00621945 -0.0607302)
(0.872497 0.028055 -0.111174)
(0.80291 0.0632934 -0.0295562)
(0.836075 0.0500944 -0.018018)
(0.900763 0.0161304 -0.0656418)
(0.837245 -0.00243562 -0.0131158)
(0.742614 0.00114914 0.011136)
(0.727035 0.0126038 0.00766578)
(0.814449 0.0222926 0.0875751)
(0.917062 0.0129477 0.14034)
(0.896752 -0.0407639 0.0780403)
(0.843781 -0.0762951 0.0347067)
(0.993973 -0.0501884 0.0356623)
(1.06022 -0.0166712 -0.00652739)
(0.950869 0.0116299 -0.00824858)
(0.878487 0.0163462 -0.0105043)
(0.916038 0.00210533 -0.0213183)
(0.937307 0.0117262 -0.0138891)
(0.982476 0.0203481 -0.0216102)
(0.911057 0.00668278 -0.0550687)
(0.783555 -0.0131332 -0.0851804)
(0.968664 -0.0179237 -0.0977196)
(1.1265 0.00111525 -0.0765311)
(0.944222 0.0124356 -0.019123)
(0.823628 0.00659258 0.018534)
(0.854262 0.00027544 0.0188022)
(0.886805 0.00681657 -0.02702)
(0.889414 0.0263744 -0.0820354)
(0.80126 0.0377993 -0.102017)
(0.7726 0.00051786 -0.0854579)
(0.886942 -0.02993 -0.0414444)
(0.886141 0.00304242 -0.0148002)
(0.721227 0.0417949 0.000228061)
(0.807706 0.0506494 0.0569941)
(1.00487 0.00422797 0.14397)
(1.05892 -0.0651106 0.144298)
(1.0926 -0.0507293 0.0985325)
(1.00402 -0.000845311 0.0744267)
(0.871263 0.015621 0.111085)
(0.897214 0.00469199 0.133459)
(1.04269 -0.0201646 0.011939)
(0.949628 0.0224258 -0.0940251)
(0.818359 0.0702913 -0.0310123)
(0.84584 0.0497615 -0.0115419)
(0.965709 0.0117719 -0.0974771)
(0.9402 0.00460508 -0.0670343)
(0.760801 0.0117573 0.0311178)
(0.671349 0.012884 0.0475048)
(0.813422 0.0103865 0.0585311)
(0.996834 0.00641809 0.104117)
(1.00878 -0.0314048 0.0901064)
(0.906204 -0.0723598 0.0418748)
(0.89773 -0.0692636 0.0243887)
(1.02075 -0.0370345 -0.0227234)
(1.02354 0.00524389 -0.0186547)
(0.937427 0.0196733 0.000105347)
(0.931441 0.000333961 -0.000144661)
(0.984528 0.00724065 0.00858758)
(1.03898 0.0253307 0.00189573)
(0.928179 0.0144515 -0.0328432)
(0.788716 -0.0178908 -0.0689574)
(0.928865 -0.0333883 -0.0775975)
(1.09141 -0.0106373 -0.058231)
(0.977081 0.0113536 -0.0180944)
(0.869024 0.0077764 0.011763)
(0.890857 -0.000802239 0.0329879)
(0.891077 0.0023803 -0.00757767)
(0.861643 0.0220082 -0.0817865)
(0.828688 0.0328604 -0.0997242)
(0.833023 0.000856089 -0.085014)
(0.870551 -0.0242162 -0.0441765)
(0.869331 0.00736684 -0.025851)
(0.778732 0.0331294 -0.027888)
(0.871715 0.0316216 0.0247808)
(1.04195 -0.000980133 0.101596)
(1.08903 -0.0576494 0.121565)
(1.07814 -0.0458068 0.0938667)
(1.01235 0.00839305 0.0582398)
(0.902795 0.018816 0.0810735)
(0.949763 -0.0169434 0.159045)
(1.15005 -0.0418798 0.10305)
(1.0558 0.0165712 -0.0424652)
(0.86178 0.0784179 -0.0254731)
(0.868692 0.0482104 -0.00617837)
(0.996915 7.1779e-05 -0.108695)
(0.997791 0.00858184 -0.110018)
(0.8029 0.026931 0.0278542)
(0.674246 0.015973 0.0765265)
(0.820175 -0.00398834 0.0379542)
(1.00785 -0.00549568 0.0486829)
(1.00595 -0.028052 0.0633099)
(0.935671 -0.0654584 0.0375461)
(0.859201 -0.0791996 0.0222611)
(0.935426 -0.0621858 -0.0268588)
(1.03406 -0.011066 -0.0396941)
(0.987511 0.0195696 -0.013452)
(0.95005 -0.00114389 0.00281709)
(1.00597 0.000204319 0.0193582)
(1.07402 0.0295543 0.017039)
(0.963059 0.0259472 -0.0159697)
(0.820926 -0.0173352 -0.0530367)
(0.915721 -0.0480896 -0.0563662)
(1.06703 -0.0249931 -0.0432232)
(0.988355 0.00893563 -0.0245085)
(0.89709 0.0114517 0.00364864)
(0.940519 0.00206136 0.0588084)
(0.928545 0.00449462 0.0214263)
(0.856855 0.0186766 -0.0597372)
(0.855125 0.0231745 -0.082245)
(0.908183 0.00029716 -0.0803999)
(0.889357 -0.0172469 -0.0515172)
(0.872341 0.00434451 -0.0325384)
(0.882112 0.0144151 -0.0443824)
(0.943908 0.0098681 -0.00246099)
(1.04002 -0.00210902 0.0713039)
(1.08399 -0.0443678 0.100124)
(1.05847 -0.0311131 0.0887754)
(1.00861 0.0221077 0.0521269)
(0.954077 0.0159694 0.0546776)
(0.971811 -0.0468881 0.129365)
(1.1216 -0.0652908 0.115431)
(1.09667 0.0131842 -0.00330001)
(0.909401 0.0871161 -0.0144823)
(0.918995 0.0478873 -0.0106214)
(1.04094 -0.0130477 -0.110424)
(1.02248 0.00756659 -0.129434)
(0.839877 0.0409912 0.0144857)
(0.722915 0.0215497 0.0767848)
(0.84597 -0.0163588 0.0106194)
(1.02203 -0.0159241 -0.00199952)
(1.01325 -0.0219278 0.0436464)
(0.946297 -0.0569559 0.0442191)
(0.877239 -0.0830144 0.0363)
(0.893762 -0.0847389 -0.00610756)
(1.00302 -0.0353556 -0.0514538)
(0.999127 0.0110417 -0.0393264)
(0.968611 -0.00372824 -0.00664072)
(1.00734 -0.00714 0.0198848)
(1.07032 0.0287508 0.0191929)
(1.00143 0.0369288 -0.00556124)
(0.877024 -0.00837636 -0.0392737)
(0.913715 -0.0530873 -0.0440384)
(1.01997 -0.0337185 -0.0385955)
(0.961297 0.00674584 -0.0381368)
(0.910972 0.0120119 0.00264027)
(0.934836 0.00145177 0.0669035)
(0.948456 0.00580859 0.0457852)
(0.902251 0.0184095 -0.026293)
(0.918482 0.0141396 -0.0618021)
(0.999506 -0.0020385 -0.0782442)
(0.960758 -0.00861773 -0.0653839)
(0.917653 -0.00257499 -0.0413821)
(0.954146 -0.00514892 -0.0441249)
(0.980732 -0.00245232 -0.00520494)
(1.01794 -0.00286481 0.0580882)
(1.05839 -0.035121 0.0831933)
(1.05411 -0.0187897 0.0857537)
(1.03062 0.0314986 0.0556219)
(0.991399 0.011336 0.0417727)
(0.97627 -0.0676722 0.0952954)
(1.06607 -0.0846058 0.102602)
(1.07026 0.0107624 0.019078)
(0.939174 0.0941423 -0.00647362)
(0.986245 0.0460596 -0.022958)
(1.09464 -0.0227763 -0.1048)
(1.02748 0.00462209 -0.120334)
(0.842575 0.0513734 0.00984326)
(0.756303 0.0280414 0.0622356)
(0.878601 -0.0279081 -0.00764021)
(1.03879 -0.0293827 -0.0230791)
(1.03384 -0.0181624 0.0316698)
(0.960188 -0.0488038 0.0443653)
(0.90074 -0.0811765 0.0443563)
(0.886135 -0.0939594 0.0181459)
(0.950852 -0.0562035 -0.0429909)
(0.966311 -0.00361128 -0.0533175)
(0.954702 -0.0109294 -0.0154457)
(0.990647 -0.0148699 0.017267)
(1.04692 0.0245706 0.0142329)
(1.00908 0.042197 -0.00396772)
(0.918935 0.000580422 -0.0336889)
(0.907914 -0.0511151 -0.045877)
(0.955022 -0.0380826 -0.045387)
(0.942527 0.00158228 -0.0487946)
(0.926941 0.00778347 0.00213664)
(0.922578 0.00250476 0.0660807)
(0.936149 0.00038765 0.0528022)
(0.942114 0.00939164 -0.00775502)
(0.97659 0.00199139 -0.0501269)
(1.05384 -0.00996354 -0.076033)
(1.02531 -0.00232146 -0.0750617)
(0.972399 -0.0027508 -0.0502403)
(0.990118 -0.0187072 -0.0427053)
(0.979876 -0.00844845 -0.00585021)
(0.983151 0.0016216 0.0450361)
(1.0434 -0.0241991 0.067541)
(1.06171 -0.00965504 0.0836888)
(1.0544 0.0376111 0.0611779)
(1.03385 0.0143908 0.0379678)
(1.00202 -0.0729819 0.0740159)
(1.02452 -0.0950374 0.0917504)
(1.01355 0.00865334 0.0323368)
(0.940496 0.089157 -0.00896818)
(1.0403 0.0383456 -0.0363997)
(1.12864 -0.0248721 -0.0962012)
(0.995426 0.0079653 -0.100329)
(0.802505 0.0605301 0.00610651)
(0.760083 0.0304857 0.0492662)
(0.895759 -0.0399083 -0.00642143)
(1.04356 -0.0418346 -0.0190178)
(1.06339 -0.0143448 0.0311035)
(1.00886 -0.0380449 0.0452578)
(0.93545 -0.0752565 0.0411026)
(0.891745 -0.0923878 0.0228919)
(0.901293 -0.0660061 -0.0247544)
(0.914088 -0.0185331 -0.0417179)
(0.920162 -0.0212098 -0.00917921)
(0.950934 -0.023095 0.0178027)
(1.00315 0.0188465 0.00819675)
(0.993524 0.044673 -0.00421757)
(0.941359 0.0117993 -0.0337582)
(0.912061 -0.0423656 -0.0548306)
(0.908995 -0.0424475 -0.0460609)
(0.935925 -0.00770282 -0.0406569)
(0.948683 0.00585432 0.00849146)
(0.926193 0.00565897 0.0694829)
(0.940534 -0.00953705 0.0559242)
(0.979066 -0.00898046 0.00611247)
(1.01564 -0.0136308 -0.039598)
(1.06168 -0.0178732 -0.0730789)
(1.03086 0.00167028 -0.0758379)
(0.988418 0.00156096 -0.0550901)
(1.00538 -0.0226326 -0.0494523)
(0.970525 -0.00831348 -0.0104188)
(0.954801 0.0060169 0.036886)
(1.02844 -0.0187258 0.0510185)
(1.05741 -0.00409265 0.077043)
(1.06384 0.0408467 0.0715209)
(1.07834 0.0195972 0.0406737)
(1.0388 -0.0645034 0.0600532)
(0.997787 -0.0930756 0.0863126)
(0.955974 0.00434877 0.0381439)
(0.929069 0.073289 -0.0150377)
(1.0543 0.0283625 -0.0375556)
(1.12762 -0.0162888 -0.0864169)
(0.945518 0.0203211 -0.093562)
(0.76184 0.0653171 -0.00877699)
(0.775126 0.0236734 0.040918)
(0.915662 -0.0556963 0.00129349)
(1.04254 -0.0558097 -0.0154204)
(1.07593 -0.0153889 0.0329671)
(1.05167 -0.0280541 0.0519949)
(0.973943 -0.0661004 0.0392891)
(0.905444 -0.0882068 0.0173741)
(0.886427 -0.0687906 -0.00821408)
(0.893942 -0.0283143 -0.0180461)
(0.903948 -0.0276942 0.00223582)
(0.910722 -0.0263663 0.019585)
(0.949527 0.0149085 0.00638462)
(0.961591 0.0453321 -0.00188005)
(0.947289 0.0213969 -0.0306191)
(0.930287 -0.0317228 -0.0639198)
(0.894701 -0.0440022 -0.0476678)
(0.920391 -0.0146501 -0.0213824)
(0.950912 0.00707792 0.0267897)
(0.934939 0.00871377 0.0791044)
(0.969005 -0.0245381 0.0685947)
(1.01204 -0.0326599 0.0332221)
(1.03248 -0.0262466 -0.0195548)
(1.03316 -0.0193097 -0.0644213)
(0.986655 0.00598446 -0.0701909)
(0.971721 0.00465542 -0.0560505)
(1.00947 -0.0222105 -0.0557091)
(0.975516 -0.00457619 -0.0223469)
(0.952612 0.0109217 0.0223312)
(1.00615 -0.0144268 0.0336862)
(1.02068 -0.00355372 0.0643684)
(1.04943 0.035764 0.0749562)
(1.0949 0.0212635 0.0454368)
(1.04723 -0.0502871 0.0515231)
(0.961723 -0.0817224 0.0752069)
(0.91465 0.00162688 0.0384968)
(0.929988 0.0557745 -0.0117392)
(1.02138 0.0175087 -0.0237274)
(1.07952 -0.00629647 -0.0656196)
(0.943522 0.0362847 -0.103208)
(0.809308 0.0675489 -0.0530817)
(0.843826 0.0135019 0.013159)
(0.951457 -0.0697791 0.000626598)
(1.03752 -0.0700378 -0.0178349)
(1.06369 -0.0205987 0.0289787)
(1.06207 -0.0198149 0.0577141)
(1.00802 -0.0529156 0.0441341)
(0.935303 -0.0808748 0.0134722)
(0.897466 -0.0690781 0.00100238)
(0.902821 -0.0318715 0.00444321)
(0.911382 -0.0279789 0.0144136)
(0.890846 -0.0234974 0.019659)
(0.902052 0.0152892 0.0046258)
(0.922799 0.0447012 0.00258377)
(0.940719 0.0277912 -0.0191875)
(0.949708 -0.0188254 -0.0651015)
(0.903197 -0.0377148 -0.0550786)
(0.894123 -0.0161634 -0.00890208)
(0.924525 0.011035 0.0452467)
(0.936792 0.00669474 0.0955566)
(0.993939 -0.0331411 0.0761159)
(1.00653 -0.0539142 0.0399013)
(1.00085 -0.0440645 -0.0220222)
(0.980453 -0.0257022 -0.0736055)
(0.933567 0.00596443 -0.0730718)
(0.946543 0.00841169 -0.0451552)
(1.00808 -0.0181267 -0.0411828)
(0.994041 -0.000604256 -0.0325726)
(0.978962 0.0182973 0.00333637)
(1.00712 -0.00355921 0.0259504)
(1.00368 -0.00307383 0.051651)
(1.036 0.0203658 0.0644853)
(1.07685 0.0142603 0.0485771)
(1.02839 -0.0330856 0.0518334)
(0.93377 -0.0632909 0.0615343)
(0.886528 -0.00255244 0.0335381)
(0.913575 0.0423732 -0.000268652)
(0.961576 0.0137325 -0.00396133)
(1.01374 -0.00310376 -0.0431349)
(0.976548 0.034818 -0.111232)
(0.906728 0.0570402 -0.09948)
(0.927485 0.00297796 -0.0194897)
(0.989246 -0.0747168 -0.00183989)
(1.02317 -0.0775137 -0.0169243)
(1.03108 -0.0284689 0.024035)
(1.05403 -0.018333 0.0578555)
(1.04038 -0.0430649 0.0500551)
(0.983103 -0.0710824 0.0130826)
(0.926588 -0.0645619 0.00269942)
(0.917957 -0.0300729 0.0251334)
(0.92255 -0.0228546 0.035515)
(0.886155 -0.0159116 0.0255565)
(0.873094 0.0155367 0.00440677)
(0.888048 0.0395823 0.00649394)
(0.920145 0.0307514 -0.00609815)
(0.956683 -0.00412943 -0.0613446)
(0.928406 -0.0228667 -0.0691088)
(0.88371 -0.0128926 -0.00960927)
(0.886502 0.00849749 0.0636531)
(0.914696 -0.0115717 0.112533)
(0.993748 -0.0474216 0.074439)
(0.985293 -0.0661613 0.0202343)
(0.923389 -0.0523597 -0.0356938)
(0.887768 -0.0271558 -0.0708291)
(0.881031 0.000744873 -0.0537682)
(0.939338 0.000268689 -0.0159949)
(1.01402 -0.0233793 -0.0163494)
(1.01205 -0.00324603 -0.033149)
(0.996718 0.0211064 -0.0034218)
(1.00953 0.00299563 0.0319335)
(1.02169 -0.00893631 0.0447679)
(1.05682 0.0030605 0.0512089)
(1.05268 0.0107281 0.0518269)
(0.989127 -0.00715627 0.056699)
(0.901654 -0.0259405 0.0529383)
(0.830262 0.0139698 0.0362051)
(0.84669 0.0391162 0.0375391)
(0.906687 0.0067927 0.0412823)
(0.973134 -0.00931446 -0.0113248)
(1.00536 0.0224154 -0.0933935)
(0.98274 0.0450505 -0.105052)
(0.98945 0.000588714 -0.0361575)
(1.01638 -0.0668217 -0.00406113)
(1.009 -0.0745222 -0.0150356)
(1.00199 -0.0311863 0.0169306)
(1.04734 -0.0172907 0.050506)
(1.07624 -0.0384594 0.0512542)
(1.045 -0.0642725 0.0145292)
(0.972139 -0.0548618 -0.00343176)
(0.937397 -0.0196056 0.0352375)
(0.931292 -0.011915 0.0584199)
(0.888539 -0.00677318 0.0404674)
(0.865539 0.0163556 0.0048838)
(0.872211 0.0315883 -0.00418169)
(0.897994 0.0269854 -0.00367282)
(0.9427 0.00763992 -0.0513188)
(0.952565 -0.000959345 -0.081515)
(0.913834 0.000479085 -0.0258855)
(0.873193 0.00113983 0.0711482)
(0.910629 -0.0190331 0.0987037)
(0.947959 -0.0503439 0.0758582)
(0.953326 -0.0672184 0.0283838)
(0.902276 -0.0663858 -0.0236117)
(0.882507 -0.0572782 -0.0633402)
(0.929704 -0.0319701 -0.0668518)
(1.02404 -0.0222322 -0.0493699)
(1.05911 -0.0347608 -0.0470067)
(1.01238 -0.0130284 -0.0516238)
(0.994071 0.0173613 -0.0248359)
(1.0206 0.00776251 0.0136626)
(1.03114 -0.0115465 0.0375905)
(1.03568 -0.00875687 0.0473371)
(1.00304 0.0106166 0.0512958)
(0.943324 0.0144621 0.0591151)
(0.877154 0.00733714 0.0556956)
(0.801445 0.030852 0.0530453)
(0.82221 0.0345429 0.0800102)
(0.902645 -0.00179418 0.095378)
(0.960368 -0.0178259 0.0409794)
(1.00278 0.00822821 -0.0405601)
(1.02436 0.033997 -0.0784149)
(1.03989 0.00692229 -0.0477166)
(1.04585 -0.0460535 -0.0138933)
(1.01159 -0.0629587 -0.0202214)
(0.996459 -0.0322503 -0.00189118)
(1.05267 -0.016549 0.0305932)
(1.09639 -0.0336907 0.0412543)
(1.08616 -0.0591085 0.0128668)
(1.02182 -0.0470589 -0.0123381)
(0.971278 -0.00796865 0.0282733)
(0.943202 0.000941496 0.0658382)
(0.884441 0.00267565 0.0553706)
(0.862423 0.0173053 0.012007)
(0.880022 0.0225304 -0.0183387)
(0.897674 0.0205853 -0.0209861)
(0.921553 0.0147256 -0.0499095)
(0.947586 0.0154119 -0.0736611)
(0.955211 0.0170309 -0.0299392)
(0.923568 0.00457004 0.0556568)
(0.932919 0.000180845 0.0720655)
(0.925864 -0.0397506 0.082633)
(0.953697 -0.065519 0.061212)
(0.968939 -0.077883 0.0156865)
(0.970252 -0.0960141 -0.0151234)
(1.00219 -0.0888822 -0.0308025)
(1.09368 -0.0636858 -0.0385037)
(1.11676 -0.047714 -0.0456325)
(1.0314 -0.0206642 -0.0570047)
(0.995292 0.00676448 -0.0528965)
(1.04139 0.00854359 -0.0245288)
(1.04866 -0.000307944 0.0187283)
(1.00092 -0.0022306 0.0503645)
(0.937502 0.0251271 0.0544479)
(0.892782 0.0509793 0.0451907)
(0.857005 0.0539845 0.0259354)
(0.809509 0.0513025 0.0155969)
(0.845982 0.02011 0.0433659)
(0.933187 -0.0187882 0.0848518)
(0.981149 -0.0236873 0.0713914)
(1.00028 -0.00259478 0.0137783)
(1.02568 0.00715488 -0.0328084)
(1.06229 -0.00965176 -0.0326887)
(1.07821 -0.0382791 -0.0066837)
(1.03663 -0.0526445 -0.0122078)
(0.995076 -0.0338352 -0.0138791)
(1.03473 -0.0204254 0.0108134)
(1.07827 -0.0334061 0.0247424)
(1.07917 -0.0558882 0.0114368)
(1.02938 -0.0419467 -0.00675467)
(0.965888 0.00543878 0.0150191)
(0.924939 0.0183551 0.0431596)
(0.868816 0.0089137 0.0407166)
(0.856088 0.00483563 0.00778877)
(0.891422 0.00227288 -0.0274382)
(0.90491 0.0139303 -0.0502746)
(0.908681 0.0260658 -0.0710788)
(0.935499 0.0270054 -0.056821)
(0.969002 0.0272612 -0.00749991)
(0.965861 0.0230738 0.0425091)
(0.946962 0.012716 0.0494955)
(0.941103 -0.0341327 0.0719113)
(0.964314 -0.0664723 0.0618828)
(0.994783 -0.0721554 0.0327406)
(1.01425 -0.0867297 0.0326032)
(1.01872 -0.0911214 0.0409155)
(1.04325 -0.069203 0.0314568)
(1.04442 -0.0415272 0.00554113)
(0.993032 -0.013198 -0.0392329)
(0.983849 0.00269581 -0.0681068)
(1.0357 0.0086342 -0.0576727)
(1.04459 0.0187106 -0.017941)
(0.992239 0.0213749 0.0374985)
(0.902722 0.0370134 0.06715)
(0.841137 0.0595055 0.0550261)
(0.839823 0.0687921 0.0219962)
(0.867502 0.0632814 -0.00909779)
(0.943576 0.0181782 -0.000210201)
(1.00359 -0.0269398 0.0476244)
(1.01122 -0.0291954 0.0750375)
(1.01431 -0.0133257 0.0512849)
(1.05516 -0.0166246 0.00740518)
(1.10427 -0.0258964 -0.0182435)
(1.11073 -0.0327846 -0.00553506)
(1.06322 -0.0437455 0.00485497)
(0.996822 -0.0343761 -0.00739267)
(1.00676 -0.0225334 -0.00688535)
(1.0611 -0.0316655 0.00387508)
(1.09376 -0.0505902 0.00887358)
(1.05569 -0.0373302 0.00189023)
(0.969125 0.0142144 0.000140234)
(0.932613 0.0331872 0.0153086)
(0.915151 0.0133776 0.0240207)
(0.909468 -0.0134812 0.00861024)
(0.925527 -0.0286599 -0.0185686)
(0.928198 -0.0143107 -0.0490326)
(0.927634 0.00851677 -0.0718342)
(0.946863 0.0212784 -0.0525416)
(0.963586 0.0329701 -0.0128456)
(0.960884 0.0363425 0.0190416)
(0.955803 0.00697728 0.0166)
(0.93159 -0.0398804 0.0423689)
(0.948655 -0.0695931 0.0339304)
(0.991553 -0.0685847 0.0159397)
(1.02381 -0.0748609 0.0195913)
(1.02382 -0.0737571 0.030973)
(1.01088 -0.0483359 0.0178722)
(0.995511 -0.0248869 -0.0113386)
(0.977846 -0.00937994 -0.0470243)
(0.977734 -0.0103558 -0.0646099)
(1.00004 -0.00448383 -0.048669)
(1.00136 0.0273473 -0.0221368)
(1.00497 0.0418789 0.0131797)
(0.993641 0.0477442 0.0523337)
(0.935989 0.0530109 0.0694986)
(0.902258 0.046159 0.0561478)
(0.924984 0.030303 0.022386)
(1.02618 -0.00620244 0.00583381)
(1.09796 -0.0321874 0.0349066)
(1.07913 -0.0311287 0.0697329)
(1.05206 -0.0282243 0.0652014)
(1.07965 -0.0478923 0.0326865)
(1.12807 -0.0548721 -0.00207316)
(1.12199 -0.0326329 -0.02159)
(1.07634 -0.0279161 -0.0153392)
(1.01786 -0.0320925 -0.00603016)
(0.997372 -0.0331229 -0.00125794)
(1.0173 -0.0398476 0.00590371)
(1.05127 -0.0480415 0.0106496)
(1.05875 -0.0330594 0.00545038)
(1.00804 0.00973781 -0.00131999)
(0.986026 0.0297922 0.0125332)
(0.984816 0.0193249 0.0389791)
(0.976619 -0.00586542 0.0456316)
(0.968608 -0.0324279 0.0216782)
(0.944242 -0.0279896 -0.0139129)
(0.922259 0.00269956 -0.04998)
(0.934541 0.0283192 -0.0676332)
(0.958937 0.0435505 -0.0574363)
(0.969913 0.0388287 -0.0270976)
(0.985813 0.00763803 -0.0337901)
(0.959101 -0.0294654 -0.0131079)
(0.951003 -0.0593619 -0.0170183)
(0.979305 -0.0618187 -0.0302616)
(1.02856 -0.0621987 -0.0303905)
(1.04553 -0.0584807 -0.0164988)
(1.02304 -0.0331177 -0.018161)
(0.995675 -0.0026253 -0.0294464)
(0.977278 0.0195259 -0.0345899)
(0.956973 0.00995922 -0.0320941)
(0.936662 -0.00353922 -0.0182133)
(0.912435 0.0120659 -0.00736346)
(0.917928 0.0180631 -0.00893417)
(0.961568 0.0203295 0.00378726)
(0.995047 0.0274405 0.0336386)
(1.00652 0.0191837 0.0486257)
(1.0043 -0.00350128 0.0208796)
(1.04531 -0.0360227 -0.0220625)
(1.10324 -0.047968 -0.00442561)
(1.1307 -0.0347773 0.050924)
(1.14384 -0.0275772 0.068391)
(1.15153 -0.0484822 0.0393078)
(1.15034 -0.0649835 0.00460562)
(1.12331 -0.0445111 -0.0244103)
(1.09338 -0.0270966 -0.0373893)
(1.04606 -0.0230052 -0.0191444)
(1.00745 -0.0229365 0.00608448)
(1.01276 -0.0338814 0.0203591)
(1.04385 -0.0483798 0.0192487)
(1.06293 -0.0379395 0.0106058)
(1.02997 0.000349643 0.0118691)
(1.00515 0.0202534 0.0252255)
(0.994726 0.013313 0.052477)
(0.983305 -0.00783632 0.0767795)
(0.981168 -0.0333242 0.064552)
(0.969481 -0.038682 0.0226696)
(0.959478 -0.0139093 -0.030687)
(0.978887 0.0167602 -0.0763198)
(1.00044 0.0349744 -0.0868317)
(1.00096 0.0319999 -0.0666772)
(0.98861 0.00124361 -0.0596962)
(0.992738 -0.0152747 -0.0527158)
(1.00436 -0.0350218 -0.0532476)
(1.01374 -0.0515809 -0.066424)
(1.03056 -0.0532383 -0.0701937)
(1.03273 -0.0267834 -0.0477125)
(1.00113 0.0158415 -0.0224596)
(0.960417 0.040927 -0.00541092)
(0.939619 0.0336985 -0.00358926)
(0.936937 -0.00424569 -0.0203035)
(0.936398 -0.035153 -0.0322474)
(0.933524 -0.0317834 -0.0338236)
(0.944406 -0.0272509 -0.0384278)
(0.96562 -0.025918 -0.0338005)
(0.985343 -0.0184788 -0.0128922)
(1.01376 -0.0148662 0.0142301)
(1.03742 -0.018318 0.015009)
(1.05858 -0.0316746 -0.0230326)
(1.08807 -0.0429698 -0.0312235)
(1.12614 -0.0485311 0.0126291)
(1.16621 -0.0475216 0.0559107)
(1.18857 -0.0452415 0.055471)
(1.17609 -0.0438558 0.0245689)
(1.13107 -0.0305529 -0.012975)
(1.09832 -0.0163682 -0.0456707)
(1.06748 -0.00991644 -0.0348053)
(1.03275 -0.012561 0.00181143)
(1.02963 -0.0252444 0.0221436)
(1.05204 -0.0300444 0.022275)
(1.07412 -0.0129982 0.012959)
(1.06442 0.0106385 0.0192446)
(1.03817 0.0155336 0.0394184)
(1.01123 0.00541718 0.061596)