/*--------------------------------*- C++ -*----------------------------------*\
  =========                 |
  \\      /  F ield         | OpenFOAM: The Open Source CFD Toolbox
   \\    /   O peration     | Website:  https://openfoam.org
    \\  /    A nd           | Version:  10
     \\/     M anipulation  |
\*---------------------------------------------------------------------------*/
FoamFile
{
    format      ascii;
    class       volVectorField;
    location    "22.5";
    object      U;
}
// * * * * * * * * * * * * * * * * * * * * * * * * * * * * * * * * * * * * * //

dimensions      [0 1 -1 0 0 0 0];

internalField   nonuniform List<vector> 
25600
(
(1.33326 -0.0414714 0.179869)
(1.23926 0.199952 -0.0430259)
(1.24641 0.117693 0.0302529)
(1.13288 0.09463 0.172009)
(1.11045 0.134266 0.0566844)
(1.00857 -0.0682542 0.0175433)
(1.14522 -0.16694 0.122671)
(1.34295 0.0408137 0.143333)
(1.25703 0.0614969 0.201878)
(1.28088 0.0546847 0.365328)
(1.57055 0.192194 0.352695)
(1.31309 0.251555 0.161553)
(1.28097 0.120975 -0.028053)
(1.46989 -0.322329 0.333322)
(1.25547 -0.11088 0.307387)
(0.997652 0.398614 -0.242182)
(0.976162 0.278569 0.0365212)
(1.03388 0.0129237 0.283512)
(1.17209 0.111619 0.104789)
(1.15819 0.206526 0.0431473)
(1.07933 0.230745 0.0243347)
(1.30226 0.270395 0.0276438)
(1.02297 -0.095894 0.459506)
(1.16482 -0.323391 0.430668)
(1.238 0.191678 -0.0496137)
(1.19478 0.404738 -0.043048)
(1.27941 0.0555282 -0.129747)
(1.15353 0.120171 -0.15354)
(1.1853 0.355802 -0.0916527)
(1.19246 0.0431459 0.111674)
(0.996084 -0.0647831 0.109011)
(0.981978 0.0671374 0.0104638)
(1.11096 -0.0524199 0.259946)
(1.37579 -0.166334 0.340478)
(1.1313 -0.0628617 0.0554107)
(1.23511 0.211546 -0.111683)
(1.50679 0.430603 0.0327225)
(1.3473 0.477554 0.0125668)
(1.09824 0.23348 -0.0147256)
(1.12646 -0.224159 0.2964)
(0.982967 -0.21326 0.0993357)
(1.04252 0.0532584 0.191915)
(1.27024 0.131012 0.0228773)
(1.5764 0.260185 -0.1708)
(1.70458 0.222816 -0.0806944)
(1.17209 -0.0969897 0.0895292)
(1.11577 -0.0168806 0.0111233)
(1.59437 0.334932 0.0720086)
(1.25129 0.151582 0.184643)
(0.983302 0.085917 0.143482)
(0.951842 0.227368 -0.0440305)
(1.13821 0.187063 -0.143928)
(1.13427 -0.193866 -0.0987147)
(1.59961 -0.219341 0.00057605)
(1.10812 0.125178 -0.0219737)
(1.09262 0.517896 -0.138004)
(1.36735 0.550047 -0.119587)
(0.98798 -0.00242518 -0.0072023)
(1.39629 -0.0724154 0.0153276)
(1.08808 -0.00198464 0.112529)
(1.14719 0.163948 0.0773114)
(1.18813 0.205812 -0.052982)
(1.38587 0.306826 -0.0116918)
(1.26012 0.0800048 -0.0338659)
(1.08374 0.0590798 0.0433945)
(1.15383 0.340375 0.0381773)
(1.26097 0.118604 -0.0401682)
(1.27778 0.078497 -0.0135395)
(1.33078 0.21452 0.036102)
(1.26672 0.223975 0.0841519)
(1.23562 0.110144 0.0387078)
(1.704 0.145846 0.00168514)
(1.27001 -0.100569 -0.0257832)
(1.09777 0.0205412 0.0805937)
(0.759999 0.138685 0.0503463)
(0.795 0.0685509 -0.110319)
(1.35642 0.143716 -0.0370554)
(1.38635 -0.224424 0.117987)
(1.55893 0.0174293 0.0171261)
(1.40112 0.0416741 -0.0920686)
(0.679191 0.00499663 0.0819064)
(0.814461 -0.188336 0.0404002)
(1.04673 -0.0609275 0.00512879)
(0.715096 -0.118996 0.0876027)
(1.13639 0.101884 0.0279112)
(1.15123 0.14856 0.0231986)
(0.889435 -0.0144626 0.00190761)
(1.34106 0.0915687 0.0413612)
(1.21265 -0.00699986 0.194821)
(1.18833 0.116695 0.0907175)
(1.45639 0.199616 -0.013661)
(1.30823 0.118027 0.0226534)
(1.35322 0.0952238 0.0472649)
(1.20333 0.089626 0.0838303)
(0.913083 0.0931845 0.0986279)
(0.724179 -0.226772 0.156657)
(1.36381 0.0410583 0.189693)
(1.04162 0.0138813 0.0805211)
(0.593143 -0.118011 0.143163)
(1.1026 0.151654 0.111352)
(0.882396 0.0395817 -0.0301815)
(0.802159 -0.203468 0.0815095)
(1.05379 -0.202794 0.0891205)
(1.47834 0.145117 -0.0218781)
(1.22783 0.297786 0.000297647)
(1.47216 0.208537 -0.0629326)
(1.37813 -0.135117 0.0053912)
(0.832535 -0.266186 0.155123)
(1.15495 0.177845 0.210644)
(1.08383 0.245075 0.138462)
(1.14286 -0.0149909 -0.0190732)
(1.38658 0.330441 -0.0738381)
(1.58034 0.501532 0.0523969)
(0.999361 0.129385 0.177667)
(1.03036 0.0875106 0.0879602)
(0.932278 -0.183881 -0.0761961)
(1.03349 -0.236099 0.0160048)
(1.0304 0.0161149 0.10318)
(0.958993 -0.0679803 0.0258033)
(1.37859 0.201707 -0.00117176)
(1.4942 0.246782 -0.0807746)
(1.31704 0.000834664 -0.20479)
(1.3227 -0.0663551 -0.146183)
(1.47152 0.243323 -0.0234736)
(1.26619 -0.100567 0.0805352)
(1.4148 0.0743523 0.145645)
(1.07169 0.138829 -0.0135032)
(1.10872 -0.216032 0.0277941)
(1.36988 0.11748 0.0226385)
(0.8631 0.0323576 -0.0636021)
(0.985916 -0.0520552 -0.0263064)
(1.32234 0.109519 0.00428712)
(1.41737 0.0127716 0.0508062)
(1.21538 0.313018 0.0171707)
(1.16657 0.431781 0.0380055)
(0.895228 0.0255904 0.0555968)
(0.973203 -0.0344346 -0.0136689)
(1.32761 0.0969462 -0.104726)
(1.13363 -0.135895 -0.0567431)
(1.15537 -0.159166 0.0361424)
(1.10637 0.0502918 0.000210656)
(0.761634 -0.0323506 0.0282081)
(0.662672 -0.0963716 0.0791782)
(1.2647 -0.0132728 -0.0354272)
(1.27345 -0.0248538 -0.0990779)
(1.57144 0.169565 -0.0315408)
(1.49476 0.243708 0.0338572)
(1.01993 -0.0732908 0.0284781)
(0.617581 -0.226025 0.0652697)
(1.2713 0.000455342 0.00764561)
(1.16408 -0.0458043 0.039338)
(0.92468 -0.121199 0.0416093)
(1.78612 0.248918 -0.0657162)
(1.88461 0.3738 0.00210853)
(1.01098 -0.025913 0.136319)
(0.596242 0.0228498 0.0928991)
(0.727665 0.125175 -0.132299)
(1.15752 0.333039 -0.0586746)
(1.18634 0.243993 0.0567892)
(1.10474 0.00987519 -0.00572782)
(1.16718 0.0845838 -0.0033963)
(1.42658 0.114261 -0.119714)
(0.791484 -0.165634 0.154218)
(0.976463 -0.0487406 0.149158)
(1.16257 0.325643 0.102532)
(0.701517 0.326915 0.0453667)
(1.27057 0.436475 -0.128251)
(0.936594 0.0646013 -0.0270711)
(0.737857 -0.289717 0.0787455)
(1.33237 0.16281 -0.00612563)
(0.92274 0.0884628 -0.0122272)
(1.39554 -0.0159547 -0.0349021)
(1.68081 0.20406 0.0217179)
(1.07133 -0.013273 0.0865407)
(1.52005 0.0871536 0.0510539)
(1.52677 0.194274 0.0250911)
(0.992069 -0.146135 0.130677)
(1.30456 -0.0298629 -0.0626723)
(1.35338 0.153524 -0.264162)
(1.41101 -0.0109355 0.0331721)
(1.1856 0.017385 0.101469)
(0.898153 0.113495 -0.0566473)
(0.859657 -0.0774508 0.0356079)
(0.901653 -0.0622463 0.163782)
(0.943065 -0.0158539 0.0851079)
(0.867475 -0.159442 -0.00132526)
(1.29348 0.114971 0.127675)
(1.28291 0.149828 0.133846)
(0.718525 -0.0623287 -0.0636093)
(0.864292 -0.0490652 -0.123519)
(1.04316 0.253891 -0.0525841)
(1.1044 0.113484 -0.0959353)
(1.15232 -0.0549004 0.155166)
(1.64272 0.382169 0.0827562)
(1.22707 0.554707 -0.0256202)
(0.671909 0.154942 0.211502)
(0.912023 -0.187698 0.0612513)
(1.43751 -0.244807 -0.0718629)
(1.55371 -0.278594 -0.0945596)
(0.901402 -0.141501 0.121302)
(0.977899 0.242715 -0.00861724)
(1.35873 0.202189 -0.0949252)
(1.01277 0.191994 -0.00155259)
(0.803418 0.215468 0.0874168)
(0.989141 0.352521 0.0731335)
(1.12118 0.141991 0.0192993)
(1.29562 0.120791 0.104911)
(1.6382 0.288886 0.046339)
(1.87552 0.125289 -0.0290685)
(1.4393 0.0907231 0.0781725)
(0.833214 0.0294678 0.0877301)
(1.46234 -0.206219 0.0267178)
(1.47044 0.0348183 0.0639258)
(1.42386 0.37433 -0.0568756)
(1.35356 0.11489 0.0119185)
(0.914645 -0.0272649 0.0851702)
(1.10137 0.125739 -0.023513)
(1.08971 0.251132 0.0759728)
(1.25823 0.0469595 0.0970255)
(1.24388 -0.129003 0.0780996)
(1.28328 0.0926717 0.117216)
(1.54108 0.277038 0.0760446)
(1.28105 0.227571 -0.0334995)
(1.08547 0.0318595 -0.0836147)
(1.56351 -0.0147512 -0.0420757)
(1.49384 0.080171 0.0972231)
(1.31509 0.0321001 0.132231)
(1.40845 0.0481971 0.023007)
(1.25334 0.248567 -0.0970353)
(1.10892 0.111906 -0.024026)
(1.22842 -0.196934 0.0377907)
(1.67421 0.0494278 -0.0509276)
(1.08109 0.0644618 0.0359797)
(1.29853 0.020791 -0.00550415)
(1.33263 0.238611 -0.0169)
(1.64249 0.275218 0.114389)
(1.75337 0.299853 0.0656725)
(1.50918 0.0724137 -0.0508899)
(1.25235 0.0167707 -0.0431625)
(0.810959 0.307766 0.126551)
(1.09881 -0.0496592 0.0471879)
(0.934549 0.119862 0.00288771)
(1.27422 0.135116 0.0389065)
(1.51082 0.133851 -0.0385372)
(1.29384 0.0941052 -0.0609844)
(1.48224 -0.0815377 -0.0926545)
(1.40683 0.0687295 -0.0596984)
(1.20394 -0.0337698 -0.0199072)
(1.27458 -0.0459331 0.0311471)
(1.28794 0.375372 0.155802)
(1.2178 0.0300539 -0.0268697)
(0.906403 -0.285256 -0.179871)
(0.906527 0.169998 -0.108613)
(1.45856 0.0690973 -0.0565729)
(1.57532 0.0314384 -0.0173511)
(1.26935 0.210635 -0.105771)
(1.15356 -0.138751 -0.145752)
(1.24996 -0.0218136 -0.0867085)
(1.36586 0.245584 -0.123198)
(1.0617 0.0944466 0.0275423)
(0.775366 -0.0440989 0.0516037)
(1.10837 0.176223 0.0001601)
(1.48905 0.219707 -0.00190985)
(1.30095 0.0268534 -0.0343122)
(1.32866 -0.104061 -0.0591957)
(1.35127 -0.184087 0.012065)
(0.995821 0.0544194 0.0626732)
(0.981881 0.19366 0.0569535)
(1.12034 0.224508 -0.0483714)
(1.55951 0.196304 -0.00810818)
(1.18032 0.0499217 0.111256)
(1.10124 0.291819 -0.00503256)
(1.19802 0.135457 -0.0643284)
(1.02285 -0.126018 -0.00161838)
(1.27155 0.291891 0.170397)
(1.13282 0.262979 0.129353)
(1.17064 -0.0781779 0.0531081)
(1.5958 -0.125432 -0.00417325)
(1.03676 0.152424 -0.0349564)
(0.941164 0.249433 0.081959)
(1.38353 0.21822 -0.0146814)
(1.27932 0.0318052 0.13368)
(1.57352 0.0259688 0.0977562)
(1.32674 0.169105 0.00615506)
(1.10145 0.0791718 0.0634297)
(1.23314 0.0927341 0.02496)
(0.956369 0.275047 0.0380703)
(1.33183 0.246055 -0.0495091)
(1.16858 0.141496 -0.193551)
(1.22873 0.236744 0.0347458)
(1.16736 0.235637 0.246654)
(0.997849 0.155739 -0.000152611)
(1.08705 0.00547777 -0.0800585)
(1.60259 -0.093939 0.0323337)
(1.06482 0.179852 -0.00976314)
(1.11231 0.201835 -0.0256099)
(1.38523 0.0871961 0.0395704)
(0.910709 0.144557 0.0449247)
(1.2252 0.080848 -0.0114295)
(1.58929 0.223696 -0.0784536)
(1.14518 0.120331 -0.0747792)
(0.893755 -0.126644 0.05526)
(1.44745 0.0359496 0.0637866)
(1.38643 0.115785 0.00741378)
(1.57051 0.0167676 -0.0924441)
(1.22101 0.211565 -0.0981698)
(0.778031 0.206005 0.0751315)
(1.05345 0.0735321 0.150684)
(0.999911 0.102104 0.135501)
(1.09968 0.0229364 0.0983394)
(1.18638 0.0875938 0.0468147)
(1.258 0.197428 -0.0038134)
(1.03124 0.0329558 0.0701814)
(0.890792 -0.00139595 -0.0541907)
(1.13861 0.20982 -0.17658)
(1.02461 0.108671 -0.167277)
(0.683931 -0.0877888 0.0532704)
(0.71925 0.0596296 0.0733291)
(0.914289 0.435022 -0.0328419)
(1.4191 0.375648 -0.0137911)
(1.40681 -0.124946 0.0534051)
(1.46996 -0.0764973 -0.0519903)
(1.02089 0.0950449 -0.0175382)
(1.40826 0.390812 -0.0141338)
(1.51622 0.0455708 0.0108858)
(0.900011 0.0445683 0.057573)
(1.19652 0.313055 0.0640901)
(1.60562 0.0671961 -0.0323002)
(1.09927 0.133759 -0.0492732)
(0.877071 0.196336 0.125207)
(1.34183 0.0959914 0.0833439)
(1.43717 0.026239 0.0809612)
(1.58692 -0.0528525 0.0566946)
(1.3312 0.0910124 -0.0978337)
(0.869035 0.309261 -0.0678834)
(1.19668 0.123435 -0.0360147)
(1.13246 0.0468972 -0.0482714)
(1.11228 0.0586746 0.1129)
(1.27586 -0.0624016 0.144217)
(1.47567 0.131854 -0.0161741)
(1.19953 0.257183 0.0292253)
(1.07846 -0.0269953 0.128536)
(1.1137 -0.0479417 0.105758)
(1.53115 0.049975 -0.0125439)
(1.43144 -0.175275 0.0246924)
(1.1546 0.0428326 0.00355484)
(1.24742 0.237606 0.000959195)
(1.2433 0.140866 0.148862)
(0.72793 0.216097 -0.00235332)
(1.41288 0.135841 -0.0311205)
(1.46995 -0.00474227 0.033161)
(1.7153 0.0623158 -0.0411182)
(1.32912 0.153245 0.0812253)
(1.2616 0.182731 0.0727432)
(1.45999 0.405564 -0.00777516)
(1.44755 0.290231 -0.0297581)
(1.31402 0.125962 -0.0592201)
(0.856237 -0.116313 -0.0265593)
(1.31599 -0.16309 -0.0242011)
(1.56311 -0.123589 0.0663634)
(1.49683 0.304268 0.083774)
(1.31337 0.187921 -0.0503511)
(0.989925 0.173054 -0.119662)
(0.904474 0.198557 -0.00613087)
(1.34547 0.0944713 0.0312463)
(1.197 0.0204111 0.100209)
(1.65309 -0.0546744 -0.0164103)
(1.60848 0.131372 -0.111655)
(1.08894 0.394106 0.0224088)
(1.09389 0.237409 0.0974298)
(1.52685 0.0793545 -0.0593786)
(1.24869 0.111508 -0.0552061)
(1.16449 0.0293647 0.0667156)
(0.909924 0.0987633 -0.0159743)
(1.02435 0.326571 -0.00380825)
(1.06671 0.116051 -0.00976819)
(1.22436 0.0509926 -0.0859577)
(1.23552 0.0117838 -0.0840513)
(1.00852 -0.199017 0.032673)
(1.48318 0.21257 -0.0169035)
(1.48836 0.393785 -0.00351084)
(1.3594 0.0280594 0.0607101)
(1.35029 -0.07049 0.0959937)
(1.23981 -0.00878469 0.0704144)
(1.47593 0.06424 -0.0260609)
(1.01212 0.272157 0.0116454)
(1.2031 0.212231 -0.132214)
(1.07508 0.243081 -0.0627768)
(1.23285 0.226617 0.0239498)
(1.94276 -0.0636421 0.0469482)
(1.34222 -0.0607039 -0.0197371)
(1.07074 0.104364 -0.00890122)
(1.06017 0.208299 0.061151)
(1.07808 0.226575 -0.111437)
(1.74156 0.155441 -0.0355592)
(1.82483 0.144976 0.0991463)
(1.37216 0.0998927 -0.0416907)
(1.40882 -0.127871 -0.111196)
(1.22603 -0.0667625 -0.0810083)
(1.42844 0.232224 0.0245583)
(1.10688 -0.108789 -0.0470462)
(1.20162 0.0402583 -0.0416364)
(0.884153 0.257249 -0.0752616)
(1.42802 0.252163 -0.0664791)
(1.27136 -0.0454315 -0.16516)
(1.09688 -0.0750753 0.000593447)
(1.31961 0.0306155 0.0781077)
(1.40502 0.185461 0.0205885)
(1.05674 0.290688 -0.019612)
(1.19626 0.11858 0.0514932)
(1.25128 0.029433 0.00433694)
(1.27534 0.0267346 -0.077441)
(1.75956 0.0591849 0.0440261)
(1.29481 0.097734 -0.0577579)
(1.20597 0.120734 -0.0187998)
(1.25843 0.0907058 0.0619532)
(1.15012 0.0888571 0.0587008)
(1.01425 0.0191452 0.0163973)
(0.727604 -0.145131 -0.0226257)
(0.929234 0.201541 0.0260417)
(1.75405 0.420982 0.00382437)
(1.46283 0.11796 -0.0230614)
(1.48395 0.0199605 0.0469206)
(1.39022 0.119863 0.0439649)
(1.10366 0.0293342 0.00790062)
(1.14378 0.247765 0.0747555)
(1.50097 0.325427 0.00184532)
(1.08409 0.147039 -0.0696415)
(1.15314 -0.0544027 -0.0659688)
(1.20493 0.0576675 0.0185689)
(0.973933 0.25958 -0.0435734)
(0.872357 0.184561 0.0337424)
(0.658829 0.162296 0.0457995)
(0.995616 0.00803693 -0.153193)
(1.80915 -0.00249036 -0.14977)
(1.64478 0.175451 -0.00515748)
(1.14734 0.247619 0.0153497)
(1.16285 0.0264435 -0.00620116)
(1.19796 -0.036342 -0.0336734)
(1.14434 -0.0858474 -0.105146)
(1.49251 0.154269 0.0717106)
(1.12311 0.152557 -0.0166838)
(1.13958 0.21925 -0.0139496)
(1.37034 0.108164 -0.0325392)
(0.869969 0.0618204 -0.115594)
(0.893161 -0.0366011 -0.0566114)
(1.01324 -0.15572 -0.0722958)
(1.35907 0.0886882 -0.127616)
(1.12344 0.297176 -0.0581211)
(1.38549 0.171027 0.102745)
(1.43525 0.073721 -0.0504548)
(1.31977 0.0217974 -0.0806525)
(1.26235 -0.0179853 -0.064468)
(1.38583 0.120028 -0.137969)
(1.12474 0.238175 0.0298785)
(1.062 0.0795933 -0.0490493)
(1.12983 0.144251 -0.0172794)
(1.3743 0.207078 0.0880331)
(0.761537 0.0425498 -0.0366459)
(0.898657 -0.0173032 -0.0766089)
(1.86668 0.126608 -0.10179)
(1.69458 0.0690748 -0.0348616)
(1.66101 0.0458611 0.036261)
(1.31017 0.0852059 -0.0714846)
(1.3429 0.0867592 -0.0377138)
(1.30053 0.278136 0.113407)
(1.47127 0.241248 0.048347)
(1.42434 0.303741 -0.0162024)
(1.36283 0.141584 -0.0139764)
(1.16579 0.121937 -0.00802967)
(1.25778 0.189913 -0.0269225)
(1.20083 0.172734 0.0208713)
(0.914839 0.180959 -0.0775658)
(1.3371 -0.0939838 -0.0865991)
(1.11567 0.0185055 -0.0347904)
(1.01214 0.486768 8.245e-05)
(1.01113 0.377283 0.0878271)
(1.27694 0.0449912 -0.00925909)
(1.32256 0.120482 -0.047198)
(1.28771 0.189671 0.00188978)
(1.43665 -0.119677 -0.0763806)
(1.34798 0.161221 -0.0194205)
(1.08588 0.209695 -0.0323141)
(1.29303 0.215998 -0.0977426)
(1.58649 0.156959 0.00214706)
(1.42427 0.0211213 0.00377257)
(1.32343 -0.00892242 -0.05472)
(1.20487 0.169249 -0.0362746)
(1.32112 0.269591 -0.0204459)
(1.27944 0.0977197 -0.0603709)
(1.21472 0.075587 -0.210947)
(1.18857 0.0930574 -0.109629)
(1.34856 0.113476 -0.0527589)
(1.15375 0.208434 -0.172292)
(1.27913 0.208193 -0.0200887)
(1.09186 0.102626 -0.00944739)
(1.25367 0.127541 0.0846124)
(1.11658 0.201972 0.00154854)
(0.713522 0.0531382 -0.0979621)
(1.3386 -0.159038 -0.0148379)
(1.44872 -0.0570745 -0.0725843)
(1.63498 0.0601944 -0.0209188)
(1.45227 0.114432 0.00823784)
(1.63387 0.241245 0.0255559)
(1.09977 0.0838452 0.0934777)
(1.02008 0.184007 0.102171)
(1.37413 0.327818 0.0501243)
(1.80398 0.209585 0.00129866)
(1.35926 0.0630636 0.0259126)
(0.957279 0.099379 -0.0483894)
(1.65142 0.1089 -0.021732)
(1.43274 0.176365 -0.0165513)
(0.969701 0.204187 -0.166813)
(0.84897 -0.00806872 -0.110173)
(1.12528 -0.0894428 -0.000564184)
(1.23052 0.127555 0.00734713)
(1.58038 0.285759 0.0786317)
(1.17326 0.0890679 -0.0346317)
(1.08358 0.0272782 -0.140954)
(1.41719 -0.108603 -0.102409)
(1.44763 0.0757281 -0.0359554)
(1.28754 0.294443 -0.00594154)
(1.18145 0.242466 0.0381411)
(1.66436 0.084216 -0.0176502)
(1.76551 0.0700257 -0.0551241)
(1.09422 0.0521453 -0.070471)
(0.950935 -0.0146431 -0.0779585)
(1.16725 0.216486 -0.0984151)
(1.40909 0.272649 0.00726369)
(1.28727 0.13399 0.0280844)
(1.06416 0.0852037 -0.150627)
(1.35652 0.101726 -0.0728663)
(1.12849 0.0993677 -0.0327925)
(1.0609 0.155693 -0.0565347)
(1.51707 0.144602 -0.0389025)
(1.12243 0.0566445 -0.0908737)
(1.16904 0.0905369 0.0818453)
(1.44498 0.281289 0.0409203)
(0.669143 -0.0114141 -0.126566)
(1.26983 -0.280624 -0.0087591)
(1.21476 -0.0322973 -0.0887921)
(1.17511 0.0505042 -0.0376379)
(1.28586 0.0998389 0.0376445)
(1.62072 0.2256 -0.074931)
(1.53712 0.192565 -0.0102229)
(1.24706 0.198474 0.0778996)
(1.38312 0.0624636 -0.00346882)
(1.83692 0.208008 -0.0210649)
(1.45872 0.321727 0.042194)
(0.926519 0.106895 0.020746)
(1.24163 0.103286 -0.0600105)
(1.22421 0.366283 -0.0477739)
(1.28785 0.359967 -0.0998601)
(0.96879 0.0141052 -0.0772021)
(1.07589 -0.0819409 -0.00278636)
(1.31623 0.208019 -0.0185172)
(1.05327 0.298607 0.0181496)
(1.18308 0.168951 0.0182663)
(1.27322 -0.0110308 -0.125403)
(1.45426 -0.0577816 -0.121588)
(1.3011 -0.0265634 -0.122962)
(1.37696 0.277333 -0.0339678)
(1.38345 0.246575 -0.0112782)
(1.40524 0.124632 -0.122556)
(1.49034 0.263758 -0.0645565)
(1.20795 0.250098 -0.0294028)
(1.3691 0.0591736 -0.0254659)
(1.10791 0.166773 -0.0724434)
(1.43602 0.228692 -0.00117243)
(1.42986 0.196401 0.0263517)
(0.983196 0.0108456 -0.116453)
(1.38412 0.073116 -0.0530554)
(1.36137 0.20754 -0.0112765)
(1.21546 0.0880239 -0.0662287)
(1.25207 0.165322 -0.0762401)
(0.941555 0.177457 -0.141397)
(1.33662 0.022444 0.0170331)
(1.44528 0.291025 0.0337258)
(1.2469 0.11865 -0.14663)
(1.36838 -0.273334 -0.0416501)
(1.35963 -0.0181239 -0.0138512)
(1.02152 0.132454 0.0166816)
(1.05586 -0.0162906 0.0570021)
(1.44836 0.0869025 -0.0113316)
(1.77344 0.154555 -0.0133921)
(1.52538 0.0806232 0.0182175)
(1.28742 0.0457764 -0.0214927)
(1.31252 0.173076 -0.0455169)
(1.329 0.263664 0.0158518)
(1.08574 0.125719 0.042989)
(1.02062 0.068492 -0.0149685)
(1.10095 0.28006 0.0265347)
(1.42361 0.350032 -0.0496824)
(1.45661 0.140009 -0.142251)
(0.948116 -0.109329 -0.111796)
(1.11912 0.166999 -0.122287)
(1.32294 0.427148 0.0012546)
(1.47534 0.183057 0.0236491)
(1.36104 -0.0617252 -0.0675729)
(1.12242 -0.128655 -0.132268)
(1.10731 -0.00838771 -0.131124)
(1.73701 0.304067 0.0333184)
(1.11302 0.219899 -0.0150538)
(1.08293 0.0699355 -0.157052)
(1.04936 0.248245 -0.063074)
(1.40936 0.120263 -0.0666462)
(1.38228 0.0632418 -0.0906665)
(0.928593 0.179109 -0.0691754)
(1.63031 0.162499 0.0567241)
(1.39296 0.277576 0.0189643)
(1.00141 0.0205487 -0.0880092)
(0.833529 0.0503715 0.0253166)
(1.2585 0.215182 0.0519771)
(1.23318 0.165681 0.0223303)
(1.15452 0.203856 0.00678036)
(0.708913 0.0465574 -0.117048)
(1.41568 -0.155188 -0.0251489)
(1.71445 0.259389 0.0387428)
(1.40586 0.0844553 -0.107481)
(1.54985 -0.318448 -0.0620169)
(1.33734 0.0664892 0.00517643)
(1.09393 0.221792 -0.0523699)
(1.10026 0.0141193 -0.0273131)
(1.34164 -0.0104964 0.00651612)
(1.32222 0.124152 -0.0327831)
(1.46542 0.273881 -0.0144519)
(1.14149 0.0917824 -0.0255217)
(1.2657 0.0782362 -0.0670202)
(1.65217 0.37933 -0.00258144)
(1.23554 0.179577 -0.0111875)
(1.28801 -0.0335809 0.0067582)
(1.30622 0.204414 0.0826293)
(1.42604 0.223532 -0.0179584)
(1.41429 0.134865 -0.121057)
(1.05934 -0.0641239 -0.17979)
(1.11866 0.0579964 -0.18031)
(1.48521 0.292605 -0.0196581)
(1.30263 0.107238 0.0149924)
(1.6105 0.023272 0.0370153)
(0.968273 -0.0271716 -0.0722193)
(1.3056 -0.173832 -0.107718)
(1.45182 0.286241 0.00557532)
(1.55286 0.376958 0.0912233)
(1.86042 0.212928 -0.00956126)
(1.17042 0.266807 -0.000992486)
(1.61186 0.0897459 -0.03657)
(1.18734 0.148728 -0.084076)
(0.84796 0.121094 -0.083207)
(1.44606 0.0431149 -0.0571175)
(1.70778 0.237853 -0.0360636)
(1.29611 0.103872 -0.122953)
(0.483803 0.031952 0.00830569)
(1.14485 0.0716629 0.0331093)
(1.1772 0.126023 -0.00233471)
(1.40933 0.302524 0.121826)
(1.20998 0.116883 0.0487316)
(1.25913 -0.161487 -0.0715425)
(1.6239 0.201746 -0.0324088)
(1.38637 0.191677 -0.0350813)
(1.70008 -0.182782 -0.0293406)
(1.22645 0.0296006 -0.0490795)
(1.14779 0.232832 -0.154818)
(1.45674 -0.00107201 -0.0794455)
(1.19897 0.0167064 -0.0318558)
(1.16185 0.158899 -0.0197748)
(1.41557 0.234986 0.0239281)
(1.4011 0.081068 -0.0247312)
(1.26744 -0.05155 -0.125393)
(1.77522 0.27337 0.0027086)
(1.38991 0.195246 -0.0376012)
(1.3783 -0.0146412 -0.0401812)
(1.47491 0.189178 0.0772854)
(1.51034 0.252467 0.0335323)
(1.38434 0.323721 0.0226688)
(1.45367 0.0133202 -0.060214)
(1.37478 -0.0133385 -0.0579707)
(1.54722 0.300964 0.00728694)
(1.64668 0.118029 0.00656769)
(1.55317 0.0475095 -0.00249759)
(0.988665 -0.0265232 -0.0523142)
(1.02946 -0.146701 -0.118047)
(0.973867 0.401927 -0.0742819)
(1.23414 0.196758 0.124726)
(1.97337 0.1025 0.105638)
(1.50752 0.23039 0.0447604)
(1.6224 0.0648447 -0.0362693)
(0.844874 0.155564 -0.0707102)
(0.91436 0.0599859 -0.073186)
(1.09018 -0.0734935 -0.0542376)
(1.63204 0.158982 0.006554)
(1.37342 0.181405 -0.0751678)
(0.806825 0.0834064 -0.0112595)
(1.0626 -0.0509564 -0.0627816)
(1.03822 0.0118251 -0.0594634)
(1.7706 0.206997 0.16711)
(1.62392 0.064791 0.0362517)
(0.993888 -0.172209 -0.14431)
(1.51272 0.313237 -0.00997958)
(1.5643 0.14363 -0.00497839)
(1.37674 -0.227836 -0.0805701)
(0.92323 0.203245 -0.0635879)
(1.24064 0.281487 -0.138151)
(1.17461 0.025294 -0.0187994)
(0.992647 0.0327153 -0.0504029)
(1.12063 0.140031 -0.0939643)
(1.2982 0.240108 0.0151133)
(1.32574 0.0743261 -0.0881877)
(1.24794 -0.0589799 -0.199794)
(1.74146 0.354558 0.00349351)
(1.5451 0.218333 -0.0191841)
(1.07323 -0.0833277 -0.113544)
(1.39301 0.138725 0.0231788)
(1.53434 0.260092 0.0181958)
(1.42636 0.266872 0.0130406)
(1.54065 -0.067616 -0.0320277)
(1.2306 -0.0299992 -0.117911)
(1.6935 0.243671 -0.0471919)
(1.36552 0.0388165 -0.0708543)
(1.46143 0.11907 -0.0116681)
(1.36895 -0.00130737 -0.00738754)
(0.893251 -0.137821 -0.156688)
(1.33446 0.341297 -0.114427)
(1.06865 0.0737328 0.0344509)
(1.55919 0.0292506 0.101285)
(1.29669 0.253221 0.0303398)
(1.47548 0.137642 -0.000761287)
(0.776566 0.240818 -0.0608085)
(1.17382 0.0501737 -0.00387462)
(1.31128 -0.123755 0.0025369)
(1.51268 0.180583 0.00990364)
(1.43583 0.251046 -0.0355104)
(1.00772 0.0847979 -0.0360133)
(0.976793 -0.0391718 -0.159284)
(1.0921 -0.0113167 -0.0484975)
(1.60269 0.165871 0.0711196)
(1.66349 0.154557 0.0260133)
(0.944835 -0.110003 -0.084863)
(1.41606 0.307865 -0.025093)
(1.50786 0.176737 -0.00195745)
(1.28113 -0.134302 -0.0300574)
(1.23191 0.215924 -0.0366386)
(1.12009 0.219263 -0.162625)
(0.935419 0.0168779 -0.0173319)
(0.871776 0.0317338 0.0185204)
(1.27433 0.156505 -0.0719061)
(1.12641 0.220278 -0.0283203)
(1.02256 0.0270817 -0.125516)
(1.29461 -0.144444 -0.27357)
(1.44483 0.275053 -0.0875876)
(1.77186 0.280919 -0.000384717)
(1.00254 0.0310797 -0.148992)
(1.53442 0.131508 -0.038461)
(1.40347 0.233144 -0.0265119)
(1.82776 0.326842 0.0752494)
(1.72584 0.0443812 0.0456702)
(1.13648 -0.00758299 -0.125781)
(1.81531 0.28789 -0.00885274)
(1.14808 0.0737074 -0.119536)
(1.34016 0.0476947 -0.0774776)
(1.62257 -0.00153089 -0.0122021)
(0.773669 -0.173747 -0.190784)
(1.66866 0.293298 -0.0410403)
(1.37578 0.0827981 -0.0421025)
(1.08281 0.00990678 -0.0358613)
(1.26711 0.28868 0.0477552)
(1.32132 0.148365 -0.0168528)
(0.947126 0.203329 -0.0262388)
(1.32665 0.010364 0.00262379)
(1.33887 -0.15843 -0.0179281)
(1.21077 0.0531756 0.0236247)
(1.75411 0.222281 0.0616858)
(1.22802 0.15496 0.00264509)
(0.983775 -0.0843075 -0.130078)
(1.38557 -0.0301677 -0.0519173)
(1.4674 0.171768 -0.0154317)
(1.65406 0.109257 0.0461352)
(0.880604 -0.120023 -0.0432235)
(1.4653 0.295102 -0.0486104)
(1.56912 0.13559 0.0412847)
(0.813821 -0.116389 -0.0322784)
(1.14928 0.230807 0.00110838)
(1.05599 0.288783 -0.113997)
(0.924989 0.0599607 0.000314001)
(0.994587 0.0131098 0.0260446)
(1.35778 0.123303 -0.046816)
(1.15537 0.250352 -0.0419426)
(1.22397 0.00690102 -0.0168936)
(1.42663 -0.162692 -0.241948)
(1.32042 0.255557 -0.016734)
(1.65129 0.284854 -0.00184312)
(1.01469 -0.0372872 -0.210078)
(1.66225 0.036221 -0.0658168)
(1.28161 0.21289 0.00676436)
(1.68973 0.300113 0.0396844)
(1.89917 0.0393484 0.00949268)
(1.38359 -0.036909 -0.108297)
(1.92408 0.222264 0.0184347)
(0.991628 0.0442855 -0.118339)
(1.32494 -0.0164415 -0.101355)
(1.90008 0.0135971 0.0244628)
(0.758275 -0.13941 -0.203117)
(1.55382 0.299226 0.012304)
(1.36602 0.101327 -0.0766747)
(0.973187 -0.0261182 -0.109881)
(1.1959 0.255061 0.0335364)
(1.35813 0.149975 -0.0531708)
(1.26786 0.19316 -0.0206241)
(1.59804 0.0123424 -0.00103623)
(1.31526 -0.106713 -0.0396939)
(1.19542 0.0797547 0.0465718)
(1.44665 0.246285 -0.0425606)
(1.14229 0.158366 -0.0510738)
(1.03382 -0.0841117 -0.136455)
(1.40615 -0.0588802 -0.0470549)
(1.16607 0.128368 -0.0265485)
(1.74721 0.140429 -0.0118286)
(1.1632 -0.0392733 -0.0404423)
(1.31526 0.238753 -0.0126833)
(1.98149 0.177401 0.0664637)
(1.11631 -0.088767 0.0513705)
(1.08485 0.263336 -0.0189039)
(1.06809 0.302704 -0.0920396)
(0.832262 0.0565872 -0.00307872)
(1.06875 -0.00704539 0.0116954)
(1.12639 0.121509 -0.0681364)
(1.25257 0.279656 -0.0833949)
(1.41715 -0.0449456 -0.00253374)
(1.54934 -0.19865 -0.203258)
(1.31816 0.222078 -0.0252104)
(1.42617 0.316693 -0.00563026)
(1.5228 -0.00361711 -0.11186)
(1.73732 0.0265792 -0.0387817)
(1.42018 0.220979 -0.00141739)
(1.53696 0.226985 -0.0382053)
(1.81514 -0.0167611 -0.0249678)
(1.06506 -0.0512142 -0.100319)
(1.90562 0.276719 0.0380944)
(0.948302 0.0689022 -0.13406)
(1.39564 -0.110822 -0.121556)
(1.72699 0.0223544 0.00616618)
(0.917957 -0.148347 -0.143454)
(1.53077 0.239385 0.0219688)
(1.58983 0.101779 -0.0243237)
(1.15561 -0.0290611 -0.117883)
(1.10691 0.229751 -0.0260491)
(1.40522 0.0991264 -0.0959872)
(1.35145 0.137166 -0.0472206)
(1.48895 0.0150757 -0.0275561)
(1.1966 -0.110705 -0.0708441)
(1.2497 0.0391018 0.0375996)
(1.24036 0.217342 -0.0583939)
(1.58243 0.186838 -0.0838848)
(1.64966 -0.0415741 -0.113585)
(1.16702 0.0333718 -0.0997174)
(0.933043 0.135113 0.0339575)
(1.68544 0.0827628 -0.0107298)
(1.1321 -0.0125313 -0.160991)
(1.38589 0.222391 -0.00433042)
(2.04818 0.165677 0.0787382)
(1.12631 -0.0540481 0.0592137)
(1.08446 0.230593 -0.0631131)
(0.979761 0.30246 -0.120623)
(0.998594 0.0450438 -0.127582)
(1.00564 0.0130547 -0.0237485)
(1.07435 0.140167 -0.076957)
(1.40292 0.207771 -0.00115431)
(1.47005 -0.0741417 -0.0606714)
(1.1119 -0.187119 -0.214946)
(1.57927 0.215201 -0.0779707)
(1.49053 0.296278 0.0648555)
(1.55525 -0.052967 -0.0869036)
(1.74125 -0.00573532 -0.0372477)
(1.21988 0.25032 -0.0267446)
(1.8007 0.224462 -0.00783506)
(1.94123 -0.0172499 -0.00553945)
(1.17726 -0.0500144 -0.0664632)
(1.72219 0.243555 -0.00101201)
(1.07332 -0.000551021 -0.168645)
(1.55545 -0.167557 -0.144789)
(1.70801 0.0430242 0.0146078)
(0.901927 -0.11618 -0.0743086)
(1.35458 0.191982 -0.0334244)
(1.51846 0.105338 0.00480164)
(1.36957 -0.0351486 -0.0491123)
(1.39484 0.177448 -0.0395503)
(1.19929 0.0844691 -0.167059)
(1.35298 0.079067 -0.0629631)
(1.69986 0.0377421 -0.0022729)
(1.51406 -0.0390563 0.00569728)
(1.16138 0.053066 -0.0158128)
(1.21708 0.220206 -0.0087758)
(1.59743 0.16424 -0.0530497)
(1.99697 -0.0232902 -0.0392286)
(1.06855 0.0591 -0.187698)
(1.10742 0.0419293 0.170983)
(1.46584 0.0378248 0.0917905)
(0.997871 -0.00171391 -0.177826)
(1.61098 0.125363 -0.0673013)
(2.30828 0.142533 0.0392404)
(1.45247 -0.0255756 0.0413619)
(1.23347 0.20946 -0.0679518)
(0.894782 0.306841 -0.154023)
(1.39175 0.00399242 -0.239352)
(1.03495 0.0353197 -0.096402)
(0.990143 0.134081 -0.069349)
(1.44803 0.155102 -0.0609745)
(1.46013 -0.0674662 -0.16257)
(0.773015 -0.17807 -0.198935)
(1.40908 0.221532 -0.0565379)
(1.55276 0.251997 0.130813)
(1.72086 -0.0365707 -0.0354084)
(1.25695 0.0864737 -0.027394)
(0.969321 0.277688 -0.123767)
(1.94003 0.156801 0.0208592)
(1.93262 -0.0388056 0.0583104)
(1.26741 -0.0210885 -0.0446236)
(1.65471 0.246857 -0.0672257)
(1.34596 -0.0351093 -0.100366)
(1.64483 -0.150616 -0.112906)
(1.46342 0.10327 -0.0613282)
(1.25902 -0.0834138 0.00399792)
(0.99862 0.171148 -0.0989091)
(1.69244 0.0845266 0.0165356)
(1.33656 -0.0497339 -0.0240944)
(1.25322 0.202445 -0.0705742)
(1.35836 0.072124 -0.12717)
(1.19984 0.0123398 -0.099563)
(1.44079 0.0135727 -0.0660513)
(1.45749 -0.0389281 -0.00156259)
(1.4623 0.0482581 -0.0116229)
(1.094 0.169661 0.0073093)
(1.74459 0.070165 0.0502481)
(2.05935 -0.00543295 -0.00744816)
(1.01811 0.116123 -0.17703)
(1.17367 0.0383185 0.13103)
(1.30176 0.00986227 0.0580264)
(1.50377 -0.0277279 -0.101832)
(1.67685 0.0579419 0.0360474)
(1.80297 0.129395 -0.0206711)
(1.16339 -0.045184 -0.0172593)
(1.47058 0.237022 0.0877858)
(1.05963 0.327135 -0.0933229)
(1.6422 -0.025877 -0.152922)
(1.52831 0.0641505 -0.0849378)
(1.12276 0.14163 -0.00415183)
(1.64512 0.106219 -0.0928338)
(1.42198 -0.052053 -0.175774)
(0.603325 -0.20234 -0.154154)
(1.224 0.178864 0.0427171)
(1.46281 0.206024 0.0889298)
(1.53263 -0.0429292 -0.0480788)
(1.15063 0.0992905 -0.0311962)
(1.5125 0.202755 -0.122475)
(1.69902 0.078851 0.0626294)
(1.23534 -0.0605913 0.0402931)
(0.858081 0.00421368 -0.132369)
(1.74682 0.218145 -0.107442)
(1.38102 -0.057705 0.00284004)
(1.41634 -0.135924 -0.140955)
(1.49231 0.115285 -0.0856747)
(1.43589 -0.0421471 -0.00578122)
(1.0827 0.137336 -0.0834947)
(1.69271 0.0667933 -0.021741)
(1.0771 -0.0283388 -0.00706817)
(1.13539 0.175429 -0.0710685)
(1.40368 0.0624046 -0.10741)
(0.832678 -0.0174363 -0.144295)
(1.14783 0.0110676 -0.0901975)
(1.12867 -0.0269174 -0.0605955)
(1.49666 0.02996 0.0097828)
(1.23291 0.126932 0.0694562)
(1.62656 0.0217372 0.0710577)
(1.95666 -0.00486 -0.0699244)
(1.26196 0.15649 -0.135857)
(1.50737 0.0304171 0.0406464)