/*--------------------------------*- C++ -*----------------------------------*\
  =========                 |
  \\      /  F ield         | OpenFOAM: The Open Source CFD Toolbox
   \\    /   O peration     | Website:  https://openfoam.org
    \\  /    A nd           | Version:  10
     \\/     M anipulation  |
\*---------------------------------------------------------------------------*/
FoamFile
{
    format      ascii;
    class       volScalarField;
    location    "40";
    object      nut;
}
// * * * * * * * * * * * * * * * * * * * * * * * * * * * * * * * * * * * * * //

dimensions      [0 2 -1 0 0 0 0];

internalField   nonuniform List<scalar> 
102400
(
9.79444e-17
1.27652e-19
1.83737e-16
2.24235e-17
1.81242e-17
5.29236e-17
8.63914e-17
8.22703e-18
5.78895e-17
1.22959e-16
1.5114e-20
2.61312e-16
1.22371e-17
1.32983e-17
1.33646e-16
1.82514e-18
1.39903e-16
7.86133e-19
1.87916e-16
7.65494e-19
4.53325e-17
9.04659e-17
1.68306e-21
3.13507e-16
4.81532e-19
1.38048e-16
3.16828e-17
2.4568e-20
4.29883e-16
1.56001e-18
8.02306e-17
7.89815e-17
2.04621e-19
8.10219e-17
3.45618e-17
1.54453e-17
1.06627e-17
2.25678e-16
2.05397e-20
8.96505e-17
9.10081e-16
2.36137e-16
1.72588e-15
4.87813e-16
7.02457e-16
8.47087e-16
1.10097e-15
4.50884e-16
1.00601e-15
1.18365e-15
1.9423e-16
2.11715e-15
3.69248e-16
6.4228e-16
1.16203e-15
2.69855e-16
1.39801e-15
1.7361e-16
1.71186e-15
1.27449e-16
9.45954e-16
7.22301e-16
1.49589e-16
1.84719e-15
3.98422e-17
1.45425e-15
3.82861e-16
1.60231e-16
2.1772e-15
2.36046e-17
1.19758e-15
6.33004e-16
2.27704e-16
8.91256e-16
5.69015e-16
4.84882e-16
4.30269e-16
1.65735e-15
1.06072e-16
1.31023e-15
3.74021e-15
2.04408e-15
6.84913e-15
2.67007e-15
3.96897e-15
4.13092e-15
5.03106e-15
2.83314e-15
5.0192e-15
5.00035e-15
1.86402e-15
8.24829e-15
2.23501e-15
3.93892e-15
4.84036e-15
2.11829e-15
5.89217e-15
1.49187e-15
6.96162e-15
1.11507e-15
4.83299e-15
3.11575e-15
1.53303e-15
6.5442e-15
6.63071e-16
6.08005e-15
1.95672e-15
1.59955e-15
7.19778e-15
5.073e-16
5.44314e-15
2.68854e-15
1.8426e-15
3.91642e-15
2.87987e-15
2.66754e-15
2.60629e-15
6.16001e-15
1.07993e-15
5.93787e-15
1.0429e-14
7.38582e-15
1.77407e-14
8.51745e-15
1.2076e-14
1.22063e-14
1.43045e-14
9.55107e-15
1.46913e-14
1.42358e-14
7.37297e-15
2.16039e-14
7.96988e-15
1.2863e-14
1.38348e-14
8.22385e-15
1.64011e-14
6.24888e-15
1.89877e-14
4.84462e-15
1.47024e-14
9.56619e-15
6.36445e-15
1.70277e-14
3.49443e-15
1.65672e-14
6.68195e-15
6.25603e-15
1.79319e-14
2.84208e-15
1.49433e-14
8.20617e-15
6.57201e-15
1.12209e-14
8.80459e-15
8.45703e-15
8.2907e-15
1.59034e-14
4.42338e-15
1.60002e-14
2.31324e-14
1.96759e-14
3.81741e-14
2.04345e-14
2.8899e-14
2.8354e-14
3.17987e-14
2.45985e-14
3.36002e-14
3.25615e-14
2.06228e-14
4.72961e-14
2.08607e-14
3.33151e-14
3.18106e-14
2.38064e-14
3.77366e-14
1.88842e-14
4.38909e-14
1.48953e-14
3.73026e-14
2.39065e-14
1.9554e-14
3.87957e-14
1.17241e-14
3.95692e-14
1.78642e-14
1.8668e-14
3.93132e-14
1.00457e-14
3.46939e-14
2.07833e-14
1.78755e-14
2.70604e-14
2.11754e-14
2.1862e-14
2.04038e-14
3.46614e-14
1.26497e-14
3.58644e-14
4.72029e-14
4.53676e-14
7.6749e-14
4.30711e-14
6.10253e-14
6.03248e-14
6.08367e-14
5.56722e-14
6.73767e-14
6.57869e-14
4.80187e-14
9.31371e-14
4.5678e-14
7.57534e-14
6.28382e-14
5.95111e-14
7.5929e-14
4.80981e-14
9.25593e-14
3.71921e-14
8.72333e-14
5.28744e-14
5.05325e-14
8.36362e-14
3.14792e-14
8.79002e-14
4.32474e-14
4.80983e-14
8.1169e-14
2.99005e-14
7.38436e-14
4.93121e-14
4.28525e-14
6.15867e-14
4.61473e-14
5.16412e-14
4.61905e-14
7.02899e-14
3.14994e-14
7.46854e-14
9.67503e-14
9.86648e-14
1.53101e-13
9.05427e-14
1.1839e-13
1.2932e-13
1.10043e-13
1.18134e-13
1.29629e-13
1.25821e-13
1.01284e-13
1.75513e-13
8.86036e-14
1.62909e-13
1.0951e-13
1.35362e-13
1.424e-13
1.0406e-13
1.91327e-13
7.93387e-14
1.88537e-13
1.12054e-13
1.11069e-13
1.74564e-13
7.42282e-14
1.81973e-13
9.8655e-14
1.13568e-13
1.57897e-13
8.13133e-14
1.48259e-13
1.12592e-13
9.77154e-14
1.34996e-13
9.83062e-14
1.17271e-13
1.02946e-13
1.40171e-13
7.50513e-14
1.52267e-13
2.00258e-13
2.14147e-13
3.04579e-13
2.01308e-13
2.22828e-13
2.82416e-13
2.05986e-13
2.48527e-13
2.52872e-13
2.45009e-13
2.0193e-13
3.4292e-13
1.60205e-13
3.44835e-13
1.90805e-13
2.72081e-13
2.81992e-13
1.97587e-13
3.8601e-13
1.65733e-13
3.57977e-13
2.39198e-13
2.17745e-13
3.43445e-13
1.68609e-13
3.46382e-13
2.08054e-13
2.631e-13
2.78874e-13
2.01383e-13
2.98057e-13
2.33713e-13
2.14603e-13
2.95266e-13
2.01722e-13
2.54242e-13
2.33245e-13
2.76661e-13
1.7063e-13
3.17331e-13
4.483e-13
4.47976e-13
5.85194e-13
4.77496e-13
4.11782e-13
6.18122e-13
4.08168e-13
5.37782e-13
4.86511e-13
5.15385e-13
3.95966e-13
6.88951e-13
3.18187e-13
6.68096e-13
4.01047e-13
5.02306e-13
5.84201e-13
3.94596e-13
6.96637e-13
3.88646e-13
6.1312e-13
4.86968e-13
4.49762e-13
5.97713e-13
3.87853e-13
6.75735e-13
3.69232e-13
6.06235e-13
4.98748e-13
4.23907e-13
6.05165e-13
4.85463e-13
4.17533e-13
6.19532e-13
4.23679e-13
5.16681e-13
4.78681e-13
5.87934e-13
3.54246e-13
6.31828e-13
9.55039e-13
1.05347e-12
9.34163e-13
1.15795e-12
7.78956e-13
1.30881e-12
7.92797e-13
1.19953e-12
9.21218e-13
1.04457e-12
9.10352e-13
1.21954e-12
7.72115e-13
1.21772e-12
8.8544e-13
1.06128e-12
1.01867e-12
9.61215e-13
1.1593e-12
8.4246e-13
1.28606e-12
8.00323e-13
1.03299e-12
1.14327e-12
7.16923e-13
1.51383e-12
6.45977e-13
1.25158e-12
9.82728e-13
8.74635e-13
1.13697e-12
1.02704e-12
8.07388e-13
1.26916e-12
7.77701e-13
1.12817e-12
9.021e-13
1.10046e-12
8.69873e-13
1.07503e-12
1.50944e-12
2.67327e-12
1.49266e-12
2.44021e-12
1.51528e-12
2.76022e-12
1.58941e-12
2.20249e-12
2.17121e-12
1.72747e-12
2.2753e-12
2.18686e-12
1.63364e-12
2.76262e-12
1.44615e-12
2.58126e-12
1.85605e-12
1.94834e-12
2.75931e-12
1.42895e-12
2.87676e-12
1.66886e-12
1.74253e-12
2.7967e-12
1.19471e-12
3.18324e-12
1.37941e-12
2.28858e-12
1.92346e-12
1.91704e-12
2.06071e-12
2.32929e-12
1.44642e-12
2.64211e-12
1.56688e-12
2.06208e-12
2.29355e-12
1.71705e-12
1.86285e-12
2.43015e-12
2.42771e-12
5.89767e-12
3.36666e-12
4.64393e-12
3.11203e-12
4.45901e-12
4.3315e-12
3.98506e-12
5.14981e-12
2.97066e-12
3.87623e-12
5.76704e-12
3.01583e-12
6.02892e-12
2.48263e-12
4.40927e-12
5.46676e-12
3.63875e-12
6.02914e-12
3.01487e-12
3.9884e-12
5.19048e-12
2.8809e-12
5.94653e-12
2.51596e-12
4.95338e-12
3.13562e-12
4.64017e-12
3.45125e-12
4.04578e-12
3.26769e-12
4.98461e-12
3.50803e-12
4.50997e-12
3.72586e-12
3.54221e-12
4.88966e-12
4.46238e-12
3.22565e-12
5.59029e-12
5.83808e-12
8.52551e-12
7.69368e-12
1.03062e-11
9.10142e-12
7.73252e-12
7.67643e-12
8.25233e-12
1.18017e-11
8.89548e-12
6.97096e-12
9.34543e-12
6.15848e-12
1.25702e-11
7.56383e-12
7.92347e-12
8.06382e-12
7.63701e-12
1.19925e-11
1.02269e-11
5.55702e-12
9.73775e-12
5.64943e-12
1.36602e-11
7.29801e-12
7.47433e-12
5.41348e-12
8.57956e-12
8.07749e-12
9.66937e-12
5.8516e-12
6.97192e-12
7.4958e-12
1.00471e-11
8.64843e-12
7.85618e-12
6.50091e-12
1.12571e-11
7.75511e-12
1.25076e-11
2.29055e-11
2.39734e-11
1.22097e-11
1.39474e-11
2.37858e-11
2.72727e-11
1.88452e-11
1.49835e-11
1.61808e-11
2.74501e-11
2.50012e-11
2.00511e-11
1.08209e-11
1.77517e-11
2.16707e-11
2.72894e-11
1.55956e-11
1.38928e-11
1.34227e-11
3.0327e-11
1.90253e-11
2.2645e-11
1.0373e-11
1.99434e-11
1.96974e-11
2.43807e-11
1.971e-11
1.28793e-11
1.154e-11
2.1882e-11
1.96145e-11
2.0815e-11
1.03152e-11
1.39713e-11
1.91935e-11
2.63613e-11
1.89275e-11
1.36564e-11
1.24819e-11
2.90844e-11
5.17969e-11
9.41751e-11
7.84295e-11
2.80639e-11
2.31089e-11
5.77157e-11
8.13333e-11
9.03467e-11
2.28552e-11
2.98548e-11
5.62945e-11
8.38004e-11
7.53222e-11
2.80607e-11
1.9737e-11
6.62382e-11
6.72022e-11
9.0814e-11
1.3539e-11
2.85545e-11
5.06089e-11
8.87723e-11
7.27796e-11
2.00437e-11
2.18197e-11
6.60385e-11
8.25778e-11
7.8643e-11
1.55433e-11
2.2811e-11
4.64232e-11
8.23124e-11
7.05641e-11
2.28403e-11
1.71496e-11
5.5563e-11
7.51673e-11
6.39051e-11
2.5397e-11
2.82106e-11
7.60728e-11
2.22601e-10
3.06222e-10
2.55176e-10
3.91408e-11
9.21483e-11
2.04391e-10
3.67756e-10
2.34077e-10
3.30782e-11
8.24219e-11
1.97376e-10
3.14902e-10
2.48871e-10
2.24807e-11
9.80316e-11
1.63796e-10
3.81081e-10
1.92292e-10
4.41857e-11
7.44543e-11
2.19413e-10
3.20432e-10
1.70278e-10
4.71459e-11
9.49696e-11
2.04285e-10
3.34412e-10
1.81276e-10
5.19493e-11
6.55996e-11
2.0292e-10
2.77809e-10
2.27652e-10
2.4559e-11
8.56415e-11
1.8145e-10
2.63678e-10
2.50371e-10
2.68388e-11
1.14121e-10
7.47695e-10
7.49848e-10
1.01336e-09
4.16977e-10
1.70041e-10
7.12855e-10
1.02074e-09
9.87422e-10
3.42621e-10
1.67998e-10
5.36394e-10
8.41349e-10
1.06254e-09
3.23335e-10
1.98195e-10
5.10204e-10
1.00429e-09
9.15899e-10
5.09962e-10
1.15391e-10
6.81572e-10
9.33566e-10
7.82319e-10
5.9203e-10
8.74032e-11
6.92259e-10
9.4527e-10
8.43135e-10
5.48076e-10
7.08772e-11
6.53344e-10
7.54253e-10
9.72501e-10
3.50147e-10
1.41728e-10
6.46545e-10
7.05631e-10
1.07235e-09
2.93351e-10
4.44493e-10
2.23576e-09
2.43713e-09
2.53194e-09
2.28611e-09
5.96927e-10
2.01261e-09
3.40668e-09
2.6114e-09
1.91773e-09
8.59506e-10
1.38578e-09
2.73477e-09
2.96928e-09
1.8075e-09
9.19278e-10
1.45059e-09
3.22265e-09
2.48535e-09
2.75211e-09
6.0669e-10
1.85356e-09
3.39321e-09
2.07309e-09
3.41446e-09
2.84176e-10
2.00977e-09
3.35513e-09
2.25458e-09
2.99462e-09
3.01183e-10
1.81287e-09
2.64505e-09
2.62099e-09
2.05422e-09
5.23746e-10
1.90877e-09
2.34589e-09
3.02281e-09
1.79733e-09
1.61975e-09
3.76941e-09
3.82739e-09
4.0039e-09
4.72156e-09
1.96514e-09
2.70473e-09
6.22616e-09
4.82088e-09
4.62535e-09
3.69209e-09
2.5485e-09
4.75093e-09
6.86241e-09
3.94878e-09
3.85187e-09
2.69698e-09
6.21347e-09
4.97939e-09
6.48441e-09
2.8497e-09
3.346e-09
7.17175e-09
4.00952e-09
8.66933e-09
1.47413e-09
3.20366e-09
7.27379e-09
3.68609e-09
7.42985e-09
1.28302e-09
2.94537e-09
4.55552e-09
4.72226e-09
4.03403e-09
2.07564e-09
2.78184e-09
3.866e-09
5.50363e-09
4.14474e-09
8.36365e-12
1.98827e-11
1.11772e-11
1.729e-11
2.04556e-11
1.10243e-11
8.53979e-12
2.13988e-11
2.71547e-11
2.01226e-11
3.32685e-11
1.39785e-11
1.26336e-11
6.25918e-11
1.58768e-11
3.7065e-11
1.44871e-11
2.41817e-11
3.41565e-11
2.97151e-11
2.53545e-11
1.64822e-11
3.96018e-11
2.17017e-11
5.34519e-11
1.22667e-11
1.40211e-11
4.64434e-11
1.63502e-11
4.48345e-11
8.77101e-12
1.3198e-11
1.72685e-11
2.45251e-11
1.5549e-11
1.40225e-11
1.25606e-11
1.00016e-11
2.99291e-11
1.90134e-11
1.19981e-14
6.80305e-14
1.73475e-14
5.20346e-14
3.60427e-14
2.0094e-14
1.00235e-14
3.6481e-14
1.1738e-13
2.62525e-14
1.12184e-13
2.6576e-14
1.11633e-14
4.86612e-13
2.58895e-14
1.37108e-13
2.46633e-14
3.79792e-14
2.14145e-13
4.24728e-14
9.4808e-14
2.39735e-14
1.59111e-13
7.17904e-14
1.27167e-13
2.6682e-14
2.01497e-14
2.6333e-13
5.07551e-14
1.15902e-13
1.89227e-14
1.9786e-14
4.22734e-14
7.31572e-14
2.52075e-14
2.52698e-14
3.72628e-14
9.70083e-15
9.92669e-14
3.81907e-14
1.06119e-16
6.57338e-16
1.31301e-16
8.15104e-16
4.31548e-16
1.62628e-16
2.34702e-17
1.51579e-16
1.59088e-15
1.74234e-16
8.5091e-16
7.65757e-16
3.04223e-16
1.85588e-14
6.84937e-17
1.40328e-15
5.50651e-17
6.50198e-16
8.40104e-15
3.76873e-16
2.30175e-15
5.30873e-17
2.13918e-15
2.12927e-15
6.79173e-16
5.17555e-16
9.42435e-17
6.82546e-15
1.23848e-15
8.50504e-16
1.46047e-16
7.6004e-17
3.53157e-16
5.18848e-16
1.64226e-16
7.68325e-17
3.94833e-16
2.44024e-17
7.67246e-16
5.9693e-16
2.01245e-17
3.08453e-17
8.63672e-18
5.59038e-17
7.22159e-17
1.13029e-17
2.17804e-17
2.03192e-18
1.01189e-16
3.50681e-17
1.47508e-17
8.97722e-16
1.19768e-16
3.58709e-15
8.25682e-18
3.76654e-17
8.18969e-17
2.24224e-16
1.83927e-15
1.00879e-17
2.36458e-16
1.52652e-17
1.27532e-16
4.05489e-16
6.85894e-17
8.45638e-17
4.34682e-19
1.05867e-15
1.77241e-16
3.18398e-17
8.2146e-18
3.2701e-18
2.18852e-17
1.00103e-17
4.92898e-18
3.7737e-18
2.99975e-17
6.01389e-18
2.56838e-17
7.94293e-17
1.64739e-17
3.79019e-18
6.90071e-19
5.60898e-18
1.96381e-17
2.69256e-18
2.48211e-17
5.85639e-18
4.5782e-17
2.77394e-17
1.82398e-17
7.48715e-16
2.4441e-16
1.15467e-15
1.20487e-17
3.82104e-18
5.9165e-17
9.84396e-17
8.05244e-16
1.75112e-18
2.58454e-17
3.24953e-18
2.89753e-17
1.42265e-16
3.32834e-17
2.077e-17
7.49478e-18
4.10257e-16
4.76807e-17
1.07273e-17
1.32862e-18
7.75896e-19
5.76138e-18
6.07443e-19
6.19007e-19
9.78737e-19
6.62948e-18
7.02493e-18
2.55602e-18
1.85681e-17
1.97275e-17
5.44376e-18
1.75112e-19
5.04679e-19
5.66034e-18
3.16645e-18
2.97098e-17
2.4984e-17
7.13197e-17
2.22979e-17
3.20461e-17
5.37048e-16
4.99295e-16
3.37829e-16
2.28031e-18
5.12787e-19
8.22221e-17
9.44911e-17
3.89212e-16
2.6417e-18
9.4578e-19
4.09946e-19
1.1495e-17
7.21555e-17
2.3057e-17
9.64787e-18
4.26918e-17
2.17642e-16
1.86057e-17
1.40991e-17
2.07025e-18
2.43588e-18
2.79773e-18
2.97843e-19
5.38893e-19
8.2355e-19
3.69448e-18
6.98708e-18
3.51766e-19
3.46101e-18
2.33928e-17
1.62053e-17
6.26513e-19
1.9022e-20
5.22038e-19
1.59183e-18
3.15007e-17
7.20182e-17
1.5529e-16
2.14523e-17
1.69825e-17
3.11687e-16
7.284e-16
1.69979e-16
7.14448e-19
4.46339e-18
2.11573e-16
9.60143e-17
1.47e-16
1.17307e-17
2.9253e-19
3.3226e-19
7.95907e-18
4.19821e-17
4.08168e-17
1.68823e-17
7.53085e-17
1.01976e-16
8.3513e-18
1.57373e-17
7.80557e-18
3.82065e-18
1.10471e-18
4.84838e-19
8.59073e-19
1.1921e-18
3.63959e-18
8.34235e-18
4.20723e-19
2.51314e-19
1.96203e-17
2.63695e-17
3.33491e-18
6.90974e-20
3.18262e-19
3.03673e-19
2.14756e-17
1.37341e-16
3.21675e-16
3.55627e-17
2.84437e-18
1.07858e-16
7.85035e-16
3.51822e-16
4.64192e-18
6.4068e-17
3.28896e-16
3.32145e-17
4.49633e-17
3.1454e-17
4.74574e-18
3.30671e-19
1.52007e-17
2.43321e-17
9.61388e-17
5.82788e-17
8.25702e-17
3.08752e-17
3.06653e-18
9.56602e-18
1.60558e-17
2.28289e-18
1.3282e-19
1.03843e-18
1.24964e-18
2.24197e-18
3.75575e-18
9.46662e-18
1.22915e-18
1.20013e-19
8.68034e-18
2.29039e-17
8.09977e-18
8.41275e-19
2.42547e-18
1.91892e-19
8.11303e-18
1.48318e-16
4.86395e-16
9.3943e-17
4.01685e-19
3.84274e-17
5.31464e-16
5.17754e-16
2.20494e-17
1.1168e-16
1.52456e-16
9.77054e-19
7.82601e-18
3.49651e-17
2.05657e-17
3.5802e-19
2.79061e-17
1.16423e-17
1.49918e-16
1.69266e-16
1.02432e-16
5.12908e-18
3.97147e-19
7.73498e-18
1.77774e-17
2.19868e-18
1.32024e-19
1.64645e-18
1.07282e-18
3.77932e-18
3.43988e-18
8.02198e-18
1.7798e-18
1.66849e-19
2.16064e-18
1.01226e-17
7.8702e-18
3.65311e-18
4.08647e-18
1.43411e-19
1.09762e-18
7.14541e-17
4.62621e-16
2.90394e-16
8.60051e-18
1.18459e-17
1.4661e-16
2.81762e-16
4.55275e-17
4.31822e-17
4.32614e-18
5.34052e-19
1.6412e-17
6.19479e-17
4.49957e-17
3.89379e-17
5.38352e-17
2.48764e-18
1.01894e-16
2.97072e-16
2.29005e-16
1.85539e-17
7.04928e-19
1.30971e-17
1.17143e-17
6.74425e-18
4.95777e-19
1.58846e-18
6.33916e-19
3.4261e-18
5.23841e-18
6.94688e-18
2.06322e-18
3.81079e-20
5.18348e-19
2.80792e-18
5.16456e-18
1.04437e-17
2.51185e-18
8.90934e-20
1.18922e-18
7.61947e-18
1.76617e-16
6.55648e-16
3.14371e-16
8.06394e-18
3.67747e-18
2.78871e-17
2.30693e-17
2.20349e-17
2.04013e-17
4.47466e-18
1.35591e-16
8.48984e-17
5.47238e-17
3.52101e-16
1.88026e-16
3.30417e-19
2.26085e-17
2.8824e-16
5.21306e-16
1.23534e-16
7.37654e-18
1.04126e-17
3.6485e-18
6.47804e-18
2.18537e-18
1.07888e-18
4.69249e-19
4.9939e-19
8.80162e-18
5.35842e-18
9.61084e-19
1.26609e-20
1.37622e-18
1.0195e-17
1.6449e-17
5.38821e-18
1.64327e-18
4.63805e-20
2.75305e-17
5.37659e-17
4.16131e-17
7.50601e-16
1.24837e-15
1.95992e-16
2.70866e-18
9.40735e-20
2.33852e-18
5.23979e-17
1.26451e-16
8.6045e-17
1.58479e-16
2.32549e-17
2.6006e-17
8.06607e-16
7.06713e-16
8.51526e-18
8.67953e-19
1.22265e-16
6.37443e-16
2.55319e-16
1.98654e-17
5.54511e-19
6.11036e-19
4.39994e-18
5.87877e-18
1.82181e-19
8.79506e-21
4.00353e-18
1.18527e-17
1.33796e-18
1.32558e-19
3.61699e-20
1.59485e-17
2.28619e-17
7.24598e-18
4.3603e-19
7.8466e-19
1.59407e-17
1.08931e-16
5.98813e-17
2.44757e-18
7.71812e-17
5.38153e-16
3.6031e-16
1.88007e-17
3.88457e-19
7.00614e-19
1.61278e-17
9.05661e-17
1.72161e-16
1.03053e-16
9.78566e-19
1.45531e-18
4.21338e-16
1.70938e-15
3.49932e-16
4.79872e-19
1.19987e-17
2.42027e-16
2.27112e-16
4.33952e-17
2.46269e-18
3.12019e-18
9.31878e-18
2.54506e-18
4.76172e-19
2.47393e-17
6.01032e-17
4.83637e-18
1.58528e-20
3.07093e-20
3.06193e-18
1.95267e-18
3.93138e-16
6.94716e-18
4.55374e-17
1.09182e-16
5.8532e-17
7.6399e-18
2.08665e-16
4.24262e-17
1.6749e-18
4.46584e-16
1.7016e-18
5.30137e-17
2.51163e-16
1.19678e-19
2.59593e-16
9.35444e-18
2.00445e-16
4.39888e-18
1.89096e-16
3.7924e-17
1.87864e-17
3.22377e-16
1.16635e-20
4.46754e-16
4.04063e-18
5.53625e-17
4.23378e-16
2.84191e-18
6.40855e-16
1.32731e-17
1.82207e-17
2.63548e-16
2.61199e-17
3.28915e-17
9.4329e-17
1.5558e-16
1.19297e-19
3.51408e-16
3.67409e-17
5.54777e-16
3.20844e-15
4.33691e-16
1.35326e-15
1.32151e-15
1.21849e-15
5.37346e-16
2.30498e-15
7.91279e-16
5.20035e-16
3.15095e-15
3.19969e-16
1.32382e-15
2.19837e-15
2.5996e-16
2.81188e-15
4.46878e-16
2.57617e-15
3.60435e-16
2.61481e-15
7.21085e-16
1.11718e-15
2.42743e-15
3.30979e-16
3.6239e-15
4.19954e-16
1.60739e-15
3.03206e-15
1.03289e-16
5.10016e-15
4.44599e-16
1.29734e-15
2.17079e-15
1.01198e-15
9.93694e-16
1.64512e-15
1.78709e-15
3.58813e-16
3.18827e-15
8.27957e-16
4.02335e-15
1.23295e-14
2.91061e-15
7.22302e-15
5.98416e-15
6.30155e-15
3.42674e-15
9.91149e-15
3.99936e-15
3.87073e-15
1.1331e-14
2.49544e-15
6.67918e-15
8.71107e-15
2.25013e-15
1.13956e-14
2.84437e-15
1.09758e-14
2.45028e-15
1.1496e-14
3.70537e-15
6.64822e-15
9.036e-15
3.02045e-15
1.32602e-14
3.0619e-15
8.12993e-15
1.12811e-14
1.57025e-15
1.87229e-14
2.78323e-15
7.72164e-15
8.54754e-15
5.90526e-15
5.32084e-15
8.20239e-15
7.63191e-15
3.13454e-15
1.24445e-14
4.5455e-15
1.31822e-14
3.2718e-14
1.01493e-14
2.14714e-14
1.75864e-14
1.91024e-14
1.12527e-14
2.74338e-14
1.23518e-14
1.30006e-14
2.87186e-14
9.1214e-15
1.87635e-14
2.36777e-14
8.0334e-15
2.95751e-14
9.57359e-15
2.87938e-14
8.43399e-15
3.0521e-14
1.13558e-14
2.01454e-14
2.29704e-14
1.10965e-14
3.23418e-14
1.08461e-14
2.25617e-14
2.93568e-14
6.59049e-15
4.61049e-14
9.53427e-15
2.30201e-14
2.28957e-14
1.85442e-14
1.58935e-14
2.40655e-14
2.12861e-14
1.14192e-14
3.20823e-14
1.49077e-14
3.24112e-14
7.14265e-14
2.57259e-14
4.99755e-14
4.1016e-14
4.51704e-14
2.78705e-14
6.13927e-14
2.98915e-14
3.18753e-14
6.19635e-14
2.32472e-14
4.24923e-14
5.17635e-14
2.04352e-14
6.29217e-14
2.32052e-14
6.1562e-14
2.08661e-14
6.42892e-14
2.63523e-14
4.64213e-14
4.68955e-14
2.8373e-14
6.51752e-14
2.64398e-14
4.97605e-14
6.08147e-14
1.77803e-14
9.39008e-14
2.2886e-14
5.28958e-14
4.87421e-14
4.34261e-14
3.68129e-14
5.38143e-14
4.76625e-14
2.90104e-14
6.86247e-14
3.60304e-14
6.56023e-14
1.41042e-13
5.44544e-14
9.99072e-14
8.40453e-14
9.21217e-14
5.953e-14
1.20246e-13
6.47042e-14
6.44722e-14
1.23561e-13
4.95897e-14
8.53484e-14
1.01981e-13
4.29058e-14
1.21505e-13
4.81617e-14
1.15033e-13
4.52643e-14
1.18742e-13
5.14775e-14
9.48342e-14
8.26506e-14
6.06874e-14
1.17334e-13
5.24767e-14
9.78327e-14
1.08678e-13
3.84614e-14
1.72112e-13
4.50028e-14
1.03805e-13
9.24171e-14
8.45877e-14
7.31744e-14
1.03692e-13
9.38616e-14
5.89281e-14
1.32576e-13
7.36233e-14
1.1127e-13
2.57211e-13
1.07556e-13
1.73683e-13
1.61037e-13
1.69106e-13
1.16091e-13
2.10615e-13
1.35161e-13
1.13186e-13
2.31685e-13
9.81918e-14
1.53401e-13
1.96353e-13
7.96608e-14
2.17641e-13
9.72644e-14
1.92075e-13
9.14825e-14
2.12239e-13
8.59234e-14
1.89332e-13
1.32381e-13
1.14938e-13
2.08157e-13
8.6546e-14
1.8474e-13
1.81079e-13
7.0145e-14
2.99577e-13
8.06981e-14
1.78635e-13
1.63312e-13
1.49251e-13
1.31857e-13
1.75065e-13
1.7792e-13
1.02976e-13
2.29338e-13
1.45158e-13
1.87674e-13
4.06237e-13
2.12761e-13
2.77141e-13
2.91493e-13
2.863e-13
2.2271e-13
3.31214e-13
2.72803e-13
1.9124e-13
3.94722e-13
2.01516e-13
2.42666e-13
3.69127e-13
1.49146e-13
3.49218e-13
2.04407e-13
3.08389e-13
1.5904e-13
4.18828e-13
1.29054e-13
3.65618e-13
2.25196e-13
1.78764e-13
4.00669e-13
1.32363e-13
3.22002e-13
3.10271e-13
1.16205e-13
4.99433e-13
1.42126e-13
2.86609e-13
2.81515e-13
2.34803e-13
2.39453e-13
2.71211e-13
3.06042e-13
1.88257e-13
3.44368e-13
2.75857e-13
3.41521e-13
5.97391e-13
4.1367e-13
4.28007e-13
5.26593e-13
4.59881e-13
4.26962e-13
5.18543e-13
5.06151e-13
3.49044e-13
6.08499e-13
4.49411e-13
3.69195e-13
6.30738e-13
3.22199e-13
5.24549e-13
3.95101e-13
5.80582e-13
2.48126e-13
8.36141e-13
2.32741e-13
5.90844e-13
4.44199e-13
2.66783e-13
7.64467e-13
2.24682e-13
5.00626e-13
5.76506e-13
1.96907e-13
7.77014e-13
2.79375e-13
4.15756e-13
4.99863e-13
3.79988e-13
4.028e-13
4.36963e-13
4.93018e-13
3.48942e-13
5.20085e-13
4.76814e-13
7.41816e-13
8.39131e-13
8.24979e-13
7.16557e-13
9.16871e-13
7.87268e-13
8.79516e-13
8.34535e-13
8.45312e-13
8.33994e-13
8.64961e-13
9.83316e-13
7.00661e-13
9.86076e-13
7.70003e-13
8.80096e-13
7.33054e-13
1.1767e-12
4.90216e-13
1.56355e-12
4.56949e-13
9.45688e-13
9.55168e-13
4.68091e-13
1.36292e-12
4.67182e-13
7.9122e-13
1.02208e-12
4.29014e-13
1.08018e-12
5.99014e-13
6.94973e-13
8.35054e-13
6.37504e-13
7.43147e-13
7.32508e-13
7.96312e-13
7.28708e-13
7.56674e-13
8.06671e-13
1.68884e-12
1.5454e-12
1.68917e-12
1.43637e-12
1.71186e-12
1.43586e-12
1.79563e-12
2.0061e-12
1.39851e-12
2.01569e-12
1.57367e-12
1.81547e-12
2.09511e-12
1.63546e-12
1.70591e-12
1.82983e-12
1.46764e-12
3.19899e-12
1.04655e-12
2.78671e-12
1.17383e-12
1.66805e-12
2.69605e-12
9.88898e-13
2.36363e-12
1.12315e-12
1.71035e-12
1.98452e-12
1.11328e-12
1.76993e-12
1.27066e-12
1.43291e-12
1.77504e-12
1.29342e-12
1.26135e-12
1.68441e-12
1.28978e-12
1.58937e-12
1.60951e-12
1.24454e-12
3.61485e-12
4.1688e-12
3.84448e-12
3.79864e-12
4.04651e-12
3.75095e-12
3.87658e-12
5.68883e-12
3.58239e-12
4.34556e-12
4.61123e-12
3.85792e-12
6.01571e-12
4.51753e-12
3.60951e-12
5.5076e-12
3.56791e-12
8.05146e-12
3.45126e-12
5.15363e-12
4.49863e-12
3.66544e-12
7.4042e-12
3.1786e-12
5.54306e-12
3.7637e-12
4.23132e-12
5.21846e-12
3.66346e-12
4.68201e-12
3.58266e-12
4.05523e-12
4.09783e-12
4.53511e-12
2.92554e-12
4.22091e-12
3.65662e-12
3.33768e-12
5.30111e-12
3.12493e-12
8.951e-12
1.67531e-11
1.59151e-11
1.37372e-11
1.17122e-11
1.00175e-11
1.72531e-11
1.77676e-11
1.40704e-11
1.16427e-11
1.26283e-11
1.99329e-11
1.65354e-11
1.83257e-11
9.56666e-12
1.54729e-11
1.79379e-11
1.9555e-11
1.66024e-11
1.24534e-11
1.40249e-11
1.71959e-11
2.00811e-11
1.48153e-11
1.58863e-11
1.19378e-11
1.4987e-11
2.06855e-11
1.38931e-11
1.73322e-11
1.01646e-11
1.75124e-11
1.65864e-11
1.72685e-11
1.13868e-11
1.08108e-11
1.6473e-11
1.70609e-11
1.77381e-11
1.01817e-11
3.23541e-11
3.12975e-11
9.28467e-11
9.18619e-11
6.7185e-11
3.39726e-11
2.93794e-11
9.47121e-11
1.08574e-10
6.79472e-11
4.25976e-11
3.7261e-11
8.20193e-11
1.24417e-10
5.92575e-11
4.95621e-11
3.18172e-11
1.00372e-10
1.18003e-10
6.89824e-11
4.90297e-11
3.14206e-11
8.93386e-11
1.16715e-10
6.91312e-11
4.57004e-11
2.59366e-11
1.02498e-10
9.18309e-11
8.46489e-11
3.82864e-11
3.27035e-11
8.52252e-11
1.08706e-10
7.47093e-11
4.05521e-11
3.2962e-11
1.02854e-10
9.43214e-11
7.30721e-11
3.40008e-10
1.16126e-10
1.26127e-10
5.40308e-10
4.87082e-10
3.28922e-10
8.73574e-11
1.30794e-10
5.92477e-10
5.80908e-10
3.61682e-10
9.69939e-11
1.13326e-10
7.03894e-10
5.01401e-10
4.09055e-10
9.6023e-11
1.41373e-10
6.27086e-10
5.92139e-10
4.1311e-10
1.00151e-10
1.29407e-10
6.61172e-10
4.87232e-10
4.5489e-10
8.82543e-11
1.52747e-10
5.01041e-10
5.49163e-10
3.51626e-10
1.09844e-10
1.13696e-10
5.5759e-10
5.28493e-10
3.89006e-10
1.14315e-10
1.36638e-10
4.76403e-10
5.85372e-10
2.09684e-09
1.39488e-09
1.42184e-10
1.23543e-09
2.35091e-09
1.89249e-09
1.12295e-09
1.72202e-10
1.20212e-09
2.874e-09
2.11377e-09
1.26702e-09
1.69201e-10
1.54446e-09
2.5028e-09
2.42232e-09
1.2553e-09
1.90538e-10
1.34288e-09
2.97823e-09
2.47474e-09
1.37855e-09
1.81242e-10
1.46781e-09
2.3641e-09
2.82262e-09
1.23853e-09
2.14175e-10
1.14315e-09
2.60105e-09
2.24657e-09
1.2326e-09
1.65516e-10
1.18279e-09
2.41043e-09
2.21216e-09
1.27283e-09
1.61392e-10
1.02028e-09
2.60146e-09
7.11296e-09
6.93257e-09
1.34622e-09
1.76309e-09
7.67119e-09
6.99714e-09
5.62906e-09
1.48445e-09
1.69381e-09
8.43453e-09
7.56092e-09
6.73973e-09
1.61575e-09
2.28228e-09
7.73365e-09
8.74811e-09
6.58807e-09
1.81443e-09
1.96458e-09
9.21136e-09
9.09995e-09
7.22902e-09
1.66051e-09
2.06164e-09
7.51585e-09
1.01203e-08
6.50345e-09
1.82292e-09
1.71501e-09
7.88934e-09
8.99439e-09
6.28091e-09
1.51686e-09
1.66555e-09
7.58898e-09
7.70873e-09
6.31059e-09
1.47549e-09
1.58296e-09
7.55524e-09
1.89617e-08
1.86007e-08
7.53809e-09
3.63978e-09
1.71045e-08
2.0456e-08
1.71248e-08
7.25984e-09
3.8704e-09
1.7757e-08
2.04756e-08
2.08567e-08
8.25151e-09
5.57873e-09
1.65997e-08
2.40654e-08
1.9454e-08
9.56305e-09
4.70169e-09
1.92635e-08
2.60129e-08
2.18395e-08
8.51728e-09
4.69811e-09
1.62125e-08
2.78558e-08
1.85262e-08
9.15842e-09
4.17134e-09
1.56757e-08
2.60011e-08
1.91275e-08
7.99398e-09
3.6154e-09
1.65605e-08
2.10213e-08
1.77177e-08
8.35951e-09
3.69789e-09
1.59057e-08
5.54385e-10
4.12945e-10
3.19988e-10
2.37577e-10
5.15725e-10
5.70327e-10
3.81339e-10
3.12018e-10
2.95004e-10
5.6566e-10
8.08448e-10
4.88797e-10
3.96868e-10
4.63888e-10
5.53932e-10
8.9583e-10
4.70413e-10
4.62338e-10
3.46896e-10
6.06858e-10
9.61914e-10
5.23099e-10
4.09807e-10
3.42617e-10
5.50457e-10
9.36833e-10
4.43387e-10
4.50903e-10
2.73118e-10
4.75163e-10
7.33368e-10
4.19782e-10
3.29892e-10
2.35012e-10
4.83158e-10
5.50086e-10
3.80647e-10
3.27032e-10
2.55727e-10
5.07631e-10
1.80047e-12
1.13535e-12
1.34633e-12
2.35953e-12
2.1287e-12
2.09639e-12
9.314e-13
1.51599e-12
2.88259e-12
2.07473e-12
3.88039e-12
1.11638e-12
1.75598e-12
5.45487e-12
1.98146e-12
4.32772e-12
1.0839e-12
2.55162e-12
3.36516e-12
2.53723e-12
4.18483e-12
1.28093e-12
2.13392e-12
2.83502e-12
2.19002e-12
3.49864e-12
1.20414e-12
2.54711e-12
2.11095e-12
2.1569e-12
2.32899e-12
1.17516e-12
1.47685e-12
2.19165e-12
2.05467e-12
1.5294e-12
1.06204e-12
1.12194e-12
2.69408e-12
2.01713e-12
3.20319e-15
2.38782e-15
6.86112e-15
2.69145e-14
2.06615e-14
8.44397e-15
1.10496e-15
1.09207e-14
3.01805e-14
7.95549e-15
3.05088e-14
1.24988e-15
1.15585e-14
9.83208e-14
6.08244e-15
3.1467e-14
7.86396e-16
2.50024e-14
5.05004e-14
1.92379e-14
2.00955e-14
4.90372e-16
1.84635e-14
2.53919e-14
1.00197e-14
6.86492e-15
5.54571e-16
1.9788e-14
1.81148e-14
1.73386e-14
3.98881e-15
1.03038e-15
7.54116e-15
1.96767e-14
1.39072e-14
1.92278e-15
2.32963e-15
2.58904e-15
3.71908e-14
1.24014e-14
6.36863e-18
2.43207e-17
1.47799e-16
7.74481e-16
7.99951e-16
2.96553e-16
4.3017e-17
2.75032e-16
4.95969e-16
2.51884e-16
1.90807e-15
2.39579e-16
1.12002e-15
6.93504e-15
1.60607e-16
1.46878e-15
1.56221e-17
1.67133e-15
2.86646e-15
6.76463e-16
7.11791e-16
1.503e-17
9.34056e-16
8.04987e-16
1.71557e-16
1.52046e-16
4.46953e-17
4.97082e-16
1.04786e-15
4.27545e-16
1.9176e-17
3.86245e-17
7.81091e-17
2.259e-16
2.47418e-16
1.16763e-17
5.0687e-17
4.46696e-17
1.13364e-15
3.94999e-16
2.77617e-18
2.0757e-18
7.02597e-18
6.29271e-17
5.26256e-17
5.40982e-17
9.87854e-18
1.52122e-17
7.18726e-17
6.18081e-17
4.67182e-16
2.72061e-16
5.03321e-16
2.30464e-15
3.11088e-17
1.55259e-16
3.51763e-17
4.5913e-16
6.28893e-16
6.33116e-17
5.32811e-17
1.1714e-17
2.33443e-16
1.10777e-16
5.33052e-17
4.43027e-17
4.37388e-17
9.00693e-17
1.77657e-16
4.62223e-17
8.40692e-19
1.53053e-17
1.28622e-18
4.02453e-18
9.87504e-18
1.16407e-19
5.25211e-18
6.92083e-18
1.13391e-16
3.63504e-17
8.35277e-18
1.22543e-18
3.33025e-19
6.86974e-18
3.17924e-18
2.01858e-17
1.2522e-17
5.80232e-18
8.31291e-17
2.99232e-17
2.28138e-16
3.27872e-16
4.70826e-16
1.0067e-15
3.6382e-18
2.85075e-17
4.56185e-17
2.63731e-16
2.65206e-16
1.41979e-17
4.40081e-18
4.92846e-18
9.03029e-17
3.70478e-17
3.40887e-17
1.40586e-17
4.29728e-17
7.58295e-17
3.64559e-17
3.37027e-17
4.55857e-19
9.61711e-18
6.68191e-19
1.51769e-19
9.60694e-19
6.5045e-21
1.03968e-18
3.20226e-18
1.89579e-17
5.81493e-18
1.3524e-17
2.76606e-18
2.2816e-21
9.69935e-19
5.70447e-19
9.12783e-18
2.48351e-17
2.05028e-17
1.14922e-16
1.83289e-17
1.02796e-16
3.7061e-16
5.84312e-16
2.86967e-16
6.07952e-20
3.12444e-18
1.041e-16
2.06202e-16
1.16961e-16
9.391e-18
1.34097e-18
6.67036e-19
3.09392e-17
2.53305e-17
2.59368e-17
4.56003e-18
5.5126e-17
6.84244e-17
1.52051e-17
4.09983e-17
1.46001e-18
9.27768e-18
7.96472e-19
1.83356e-19
4.52958e-19
7.04071e-20
5.57609e-19
2.55978e-18
2.63503e-18
1.69553e-18
1.87192e-17
7.64149e-18
1.86299e-19
3.26857e-20
8.0293e-20
2.50117e-18
2.88188e-17
6.48583e-17
1.83659e-16
1.54331e-17
3.12118e-17
2.91746e-16
7.3433e-16
1.20191e-16
2.08026e-19
2.29644e-17
2.50091e-16
1.11239e-16
4.28664e-17
1.9665e-17
9.59424e-19
4.79615e-19
7.25379e-18
2.67402e-17
4.19142e-17
5.60748e-18
6.18264e-17
4.41936e-17
1.36335e-17
4.28552e-17
7.20819e-18
8.15659e-18
3.43342e-19
5.93776e-19
7.50599e-19
2.48004e-19
8.09056e-19
3.01549e-18
2.32585e-19
5.86623e-19
1.67198e-17
1.36584e-17
1.76124e-18
1.12281e-19
3.86579e-19
2.12885e-19
1.92568e-17
1.29333e-16
3.30479e-16
2.81655e-17
5.07392e-18
1.44614e-16
8.30603e-16
2.91763e-16
3.90355e-18
1.42125e-16
3.13602e-16
1.56936e-17
2.44878e-17
3.91905e-17
4.0665e-18
2.01463e-18
8.61954e-18
2.51968e-17
1.10701e-16
3.40655e-17
5.77053e-17
1.88714e-17
8.15572e-18
3.1301e-17
1.72172e-17
3.32882e-18
7.78374e-21
1.21816e-18
1.23204e-18
6.19502e-19
1.30546e-18
4.45786e-18
7.54584e-19
5.78247e-19
8.96113e-18
1.26709e-17
4.86235e-18
1.14832e-18
2.84546e-18
1.40201e-19
6.59886e-18
1.43316e-16
5.12058e-16
9.24575e-17
1.47061e-18
6.47793e-17
6.12741e-16
4.65295e-16
2.94335e-17
1.76131e-16
1.13687e-16
5.67317e-20
1.22884e-17
5.99263e-17
2.30577e-17
9.1559e-19
3.06482e-17
1.56847e-17
2.09533e-16
1.53937e-16
6.73003e-17
3.43742e-18
1.68731e-18
1.80236e-17
2.32925e-17
3.11102e-18
9.35939e-20
1.6862e-18
1.02184e-18
1.42014e-18
1.32601e-18
4.65894e-18
1.85521e-18
4.78402e-19
3.22845e-18
7.41481e-18
4.47904e-18
4.14937e-18
5.22945e-18
1.93268e-19
1.63032e-18
7.0255e-17
5.14674e-16
3.2198e-16
6.09604e-18
1.80903e-17
1.67379e-16
2.61468e-16
6.45124e-17
4.48106e-17
1.12343e-18
2.50044e-18
4.43941e-17
1.23508e-16
5.13551e-17
2.50575e-17
8.16559e-17
3.85957e-18
1.90322e-16
3.59949e-16
1.80774e-16
4.56661e-18
6.36633e-19
1.47866e-17
2.02968e-17
1.19118e-17
7.93415e-19
1.44413e-18
5.27445e-19
1.86914e-18
2.25169e-18
5.03026e-18
2.76997e-18
9.02989e-20
9.7233e-19
2.3449e-18
4.17417e-18
1.28737e-17
3.3873e-18
1.62874e-19
2.15875e-18
6.61862e-18
2.03024e-16
6.96052e-16
3.04966e-16
1.01332e-17
3.90983e-18
3.06441e-17
3.28942e-17
1.95246e-17
1.86623e-17
1.23475e-17
2.23397e-16
1.11261e-16
6.7624e-17
2.9296e-16
2.04997e-16
6.3297e-19
6.45567e-17
4.58858e-16