/*--------------------------------*- C++ -*----------------------------------*\
  =========                 |
  \\      /  F ield         | OpenFOAM: The Open Source CFD Toolbox
   \\    /   O peration     | Website:  https://openfoam.org
    \\  /    A nd           | Version:  10
     \\/     M anipulation  |
\*---------------------------------------------------------------------------*/
FoamFile
{
    format      ascii;
    class       volScalarField;
    location    "40";
    object      pMean;
}
// * * * * * * * * * * * * * * * * * * * * * * * * * * * * * * * * * * * * * //

dimensions      [0 2 -2 0 0 0 0];

internalField   nonuniform List<scalar> 
102400
(
-5.297e-05
-5.36841e-05
1.32335e-05
6.97152e-05
1.1874e-05
1.90226e-05
7.52602e-05
7.05085e-05
-7.39897e-06
-6.495e-05
-9.64346e-05
-0.000187605
-0.000186189
-8.83904e-05
-6.90038e-05
-9.03788e-05
-5.2855e-05
-1.97618e-05
-6.63892e-06
-1.634e-05
-0.000114939
-0.000156062
-4.53949e-05
0.000123133
0.000213682
0.000302508
0.000336098
0.000239001
0.000116029
5.94227e-05
0.000106353
0.000106683
0.000138159
0.000189641
0.000136793
-7.10564e-05
-0.000214684
-0.000169128
-8.20462e-05
-5.42799e-05
-5.80128e-05
-5.66954e-05
1.14993e-05
6.82011e-05
8.67165e-06
1.52272e-05
7.16072e-05
6.28403e-05
-1.68075e-05
-7.53534e-05
-0.000105976
-0.000195438
-0.000192821
-9.4341e-05
-7.64856e-05
-0.000101767
-6.49597e-05
-2.90377e-05
-1.33191e-05
-2.23994e-05
-0.000121179
-0.000161166
-4.87002e-05
0.000119832
0.000210276
0.000298395
0.00033298
0.000238061
0.000115316
5.66315e-05
0.000101666
0.000102333
0.000135144
0.000186857
0.000132182
-7.74472e-05
-0.000220172
-0.00017249
-8.48447e-05
-5.83462e-05
-7.98366e-05
-7.85015e-05
-7.73569e-06
5.13906e-05
-7.80088e-06
-2.71658e-06
5.39599e-05
3.97392e-05
-4.70867e-05
-0.000108097
-0.000142567
-0.000230548
-0.000228446
-0.000126192
-0.000104685
-0.000129791
-9.48046e-05
-6.30848e-05
-4.95012e-05
-5.7806e-05
-0.000154711
-0.000189664
-7.12564e-05
9.59773e-05
0.000184046
0.000271367
0.000308578
0.000219119
0.000101073
4.37332e-05
8.65144e-05
8.33847e-05
0.000117013
0.000168851
0.000112999
-9.88724e-05
-0.000242729
-0.000191543
-0.000101835
-7.86543e-05
-0.000132254
-0.000134081
-6.57681e-05
-1.5796e-06
-5.69012e-05
-5.73165e-05
-2.53455e-08
-1.71514e-05
-0.000110261
-0.000177612
-0.000220677
-0.000313042
-0.000308996
-0.000199266
-0.000164294
-0.000181007
-0.000156277
-0.00014352
-0.000144357
-0.000146373
-0.000226533
-0.000251549
-0.000123159
3.87856e-05
0.000121173
0.000213186
0.000252222
0.000168278
5.73943e-05
1.90415e-06
4.10671e-05
3.01054e-05
6.40693e-05
0.000117435
6.24144e-05
-0.000149306
-0.000292583
-0.000236498
-0.000146538
-0.00012914
-0.000211241
-0.000217349
-0.00016032
-9.96288e-05
-0.000157649
-0.000165496
-0.000101152
-0.000113192
-0.000221289
-0.000293655
-0.000342484
-0.000433953
-0.000421134
-0.000305758
-0.000260416
-0.000275149
-0.0002821
-0.000301592
-0.000310744
-0.000291168
-0.000343448
-0.000350008
-0.000209797
-5.7448e-05
2.30094e-05
0.000121157
0.000161537
7.67756e-05
-2.62926e-05
-7.9475e-05
-4.71351e-05
-6.49539e-05
-3.22872e-05
1.7471e-05
-4.13246e-05
-0.000247114
-0.00038612
-0.000326369
-0.000225154
-0.000208055
-0.000321062
-0.000324496
-0.000278378
-0.00021847
-0.000291466
-0.00030715
-0.000225178
-0.00024448
-0.000368117
-0.000435404
-0.000473398
-0.00054775
-0.000521627
-0.000421077
-0.000393899
-0.000445972
-0.000494769
-0.000532303
-0.000525629
-0.00046601
-0.000490558
-0.000491256
-0.000345471
-0.000205952
-0.000123583
-9.39633e-06
3.31987e-05
-6.17307e-05
-0.000169415
-0.000211294
-0.000173289
-0.000194344
-0.000167281
-0.00013148
-0.000198683
-0.000398379
-0.00052854
-0.00045894
-0.000351044
-0.000333251
-0.000443669
-0.000443317
-0.000394095
-0.000334417
-0.000402968
-0.000426147
-0.00034553
-0.000371889
-0.000511258
-0.000581204
-0.000593351
-0.000631348
-0.000610127
-0.000552747
-0.000560089
-0.000650666
-0.000736715
-0.000770482
-0.000737541
-0.000653664
-0.000672947
-0.000671687
-0.000532835
-0.000412491
-0.000321005
-0.000178238
-0.00013271
-0.000242012
-0.000356376
-0.000392767
-0.000336852
-0.00035799
-0.000346002
-0.000333725
-0.000410076
-0.000585423
-0.000699007
-0.000621034
-0.000506073
-0.000473682
-0.00054604
-0.000548203
-0.000484949
-0.000407835
-0.00047586
-0.000526664
-0.000462549
-0.000482027
-0.000624576
-0.00070236
-0.000706611
-0.000722684
-0.000698153
-0.000663446
-0.000684176
-0.000798263
-0.000908589
-0.00095137
-0.000929311
-0.000856693
-0.000879287
-0.000877162
-0.000748141
-0.000643249
-0.00053647
-0.000369978
-0.000321481
-0.000434459
-0.000556646
-0.00059149
-0.000527057
-0.000541219
-0.000539996
-0.000544321
-0.000618142
-0.000770767
-0.000857204
-0.000759403
-0.000642216
-0.000591739
-0.000643957
-0.000629198
-0.000557536
-0.000459105
-0.00051436
-0.000584371
-0.000548353
-0.000556519
-0.000688714
-0.000808727
-0.000842085
-0.000854677
-0.000814368
-0.000750981
-0.00075773
-0.000886772
-0.00101887
-0.00108802
-0.00109133
-0.00103539
-0.00104902
-0.00105624
-0.000955268
-0.000867812
-0.000756346
-0.000573665
-0.000516071
-0.000609637
-0.000723797
-0.000767493
-0.000706661
-0.000703348
-0.000709588
-0.000722226
-0.000793876
-0.000926187
-0.00098245
-0.00085853
-0.000745464
-0.000700194
-0.00076945
-0.000726971
-0.000644097
-0.000530663
-0.000559107
-0.000632773
-0.000616041
-0.000625473
-0.000755887
-0.0009159
-0.000987401
-0.00100276
-0.000959028
-0.000879906
-0.000879806
-0.000984838
-0.00110266
-0.00120157
-0.00123992
-0.00118392
-0.00117522
-0.0011929
-0.00112591
-0.00106591
-0.000961073
-0.000765609
-0.000694733
-0.000758232
-0.000849012
-0.000898263
-0.000838657
-0.000820078
-0.000847955
-0.000877323
-0.000935538
-0.00103803
-0.0010761
-0.00095289
-0.000860714
-0.000833732
-0.00091276
-0.000861035
-0.000782919
-0.000652886
-0.000635335
-0.000696061
-0.000698729
-0.00072389
-0.000840153
-0.000997013
-0.0010658
-0.00107498
-0.00104434
-0.000999775
-0.00100819
-0.00109187
-0.00120765
-0.00134839
-0.00142042
-0.0013483
-0.00131274
-0.00134298
-0.00129728
-0.00122809
-0.00110309
-0.00088836
-0.000796395
-0.000839013
-0.000913485
-0.000952099
-0.000890711
-0.000871538
-0.000940039
-0.000995889
-0.0010302
-0.00109807
-0.00113017
-0.00104201
-0.000972088
-0.000959578
-0.00100618
-0.000972731
-0.000906529
-0.000778429
-0.000731189
-0.000766633
-0.000759697
-0.000793271
-0.000896653
-0.00103396
-0.00110002
-0.00109809
-0.0010677
-0.00105005
-0.00108187
-0.00117874
-0.00132776
-0.00151207
-0.00160031
-0.0015202
-0.00146164
-0.00148322
-0.00141829
-0.0012938
-0.00113895
-0.000935992
-0.000831293
-0.000850973
-0.000909203
-0.000941308
-0.000886127
-0.000863802
-0.000947652
-0.00103188
-0.00106329
-0.00110458
-0.00113045
-0.00108093
-0.0010352
-0.00103165
-0.00101395
-0.000992896
-0.000942706
-0.000838629
-0.000785601
-0.000802973
-0.000771098
-0.000794805
-0.000908143
-0.00104229
-0.00110629
-0.00109365
-0.00105416
-0.00103284
-0.00106965
-0.0011537
-0.0013102
-0.00152656
-0.0016407
-0.00159365
-0.00153698
-0.00152859
-0.00142172
-0.00123425
-0.00105972
-0.00089825
-0.000809735
-0.000813805
-0.000859974
-0.000903212
-0.000886511
-0.000860004
-0.000920615
-0.00100695
-0.00104417
-0.00107237
-0.00108376
-0.00105437
-0.00102159
-0.00102259
-0.000987502
-0.000971699
-0.000927274
-0.000848546
-0.000793355
-0.000798654
-0.000768203
-0.000785643
-0.000908704
-0.00104067
-0.00107302
-0.00102886
-0.000972738
-0.000949564
-0.00097421
-0.00102452
-0.00114487
-0.00135363
-0.00149465
-0.0014834
-0.00143616
-0.00140169
-0.00128233
-0.00109062
-0.000919634
-0.00079361
-0.000732715
-0.000735865
-0.00078364
-0.000844874
-0.000873226
-0.000866089
-0.000897728
-0.000955429
-0.000982252
-0.00100796
-0.00101555
-0.00100831
-0.000991575
-0.000991185
-0.000915561
-0.000922459
-0.000914303
-0.000882453
-0.000836002
-0.000824588
-0.000801956
-0.000821234
-0.000934953
-0.0010231
-0.00100422
-0.000933223
-0.000866367
-0.00083513
-0.000866914
-0.000918382
-0.000996028
-0.00114061
-0.00125306
-0.00124306
-0.00119166
-0.00115457
-0.00106538
-0.000910512
-0.000763896
-0.000670689
-0.000635463
-0.000646945
-0.000691382
-0.000752774
-0.00081155
-0.000837477
-0.000860393
-0.000876925
-0.000878397
-0.000901142
-0.000909546
-0.000910171
-0.000910637
-0.000912073
-0.000796508
-0.000836359
-0.000872861
-0.000889638
-0.000870882
-0.000843075
-0.000810524
-0.00080614
-0.000875531
-0.000921377
-0.00087317
-0.000785657
-0.000721731
-0.000698602
-0.000728933
-0.000775025
-0.000820241
-0.00090009
-0.000963853
-0.000955438
-0.00092824
-0.000917365
-0.000856783
-0.000745755
-0.000622874
-0.000537271
-0.000517268
-0.00053075
-0.000559908
-0.000599975
-0.000665469
-0.000732313
-0.000771782
-0.000771616
-0.000748712
-0.000751952
-0.000748488
-0.000744308
-0.000750605
-0.000767152
-0.00064085
-0.000692854
-0.000748872
-0.000785982
-0.000784777
-0.000756015
-0.000711287
-0.000680889
-0.000712785
-0.000734861
-0.000691854
-0.000629429
-0.00058758
-0.000575649
-0.000604883
-0.000646115
-0.000671012
-0.000706142
-0.000734558
-0.000734396
-0.000732294
-0.00074255
-0.000718017
-0.000643571
-0.000528894
-0.000424061
-0.000392204
-0.000410648
-0.000444246
-0.000478308
-0.000526688
-0.000584303
-0.000635416
-0.000647956
-0.000621504
-0.00061016
-0.000599735
-0.000588633
-0.000586661
-0.000604293
-0.000529894
-0.000569276
-0.000615806
-0.000641344
-0.000631374
-0.000605347
-0.000566197
-0.000524175
-0.000531027
-0.00054424
-0.000507482
-0.000465362
-0.00044765
-0.000453047
-0.00047883
-0.000517612
-0.000545286
-0.00056952
-0.000578319
-0.000578139
-0.000587613
-0.000599377
-0.000584898
-0.000540816
-0.000464802
-0.000372339
-0.000326046
-0.000334002
-0.000370736
-0.000408317
-0.000432662
-0.000450931
-0.000481186
-0.000505114
-0.000493346
-0.000474811
-0.000464158
-0.000464135
-0.000474511
-0.000497016
-0.000454339
-0.000469339
-0.000485893
-0.000488182
-0.000469302
-0.000448737
-0.00043626
-0.000415801
-0.000412582
-0.000413417
-0.000376046
-0.000338013
-0.000333656
-0.00035268
-0.000375563
-0.000398722
-0.000416528
-0.000432563
-0.000442379
-0.000441678
-0.000450254
-0.000463258
-0.00046213
-0.000449671
-0.000422863
-0.000375294
-0.00033803
-0.00032499
-0.000337597
-0.000357177
-0.00035655
-0.000341205
-0.000340677
-0.000354515
-0.000350058
-0.000347851
-0.000354736
-0.00037512
-0.000406983
-0.000434426
-0.000367014
-0.000352251
-0.000341556
-0.000336742
-0.000324878
-0.000316438
-0.000324718
-0.000330213
-0.000338795
-0.000347407
-0.000312486
-0.000272751
-0.000268472
-0.000294427
-0.000320576
-0.000335161
-0.00034497
-0.000350958
-0.000351396
-0.000342077
-0.000337512
-0.000341079
-0.000336558
-0.000323568
-0.000312107
-0.000290572
-0.000269855
-0.000267702
-0.000280307
-0.000290558
-0.00027312
-0.000233095
-0.000213447
-0.000221888
-0.000227255
-0.000243201
-0.000268459
-0.000297998
-0.00033637
-0.000364333
-0.000248244
-0.000226902
-0.000211222
-0.000212684
-0.000224239
-0.000239103
-0.000253724
-0.000260252
-0.000265294
-0.000278938
-0.000263446
-0.000234146
-0.000227614
-0.0002458
-0.000272103
-0.000287232
-0.000293669
-0.00029007
-0.000286006
-0.000281024
-0.000276367
-0.000273453
-0.000263019
-0.000244354
-0.000228161
-0.000217318
-0.000213667
-0.000224492
-0.000237528
-0.000238473
-0.000214207
-0.000167154
-0.000137425
-0.000146172
-0.000157317
-0.000173902
-0.00019373
-0.000202412
-0.000223478
-0.000249104
-0.000181472
-0.000169376
-0.000158224
-0.000160903
-0.000176938
-0.000192484
-0.000201939
-0.000200787
-0.00019541
-0.000203078
-0.000196843
-0.000174072
-0.000158603
-0.000157852
-0.000170995
-0.000184052
-0.000187561
-0.000178546
-0.000173912
-0.000178794
-0.000187701
-0.000196437
-0.000196571
-0.000182238
-0.000163447
-0.000152657
-0.000152841
-0.000165367
-0.000185454
-0.000197124
-0.000186765
-0.00015274
-0.000118389
-0.000118318
-0.000126396
-0.000135257
-0.000144756
-0.000140767
-0.000149091
-0.000174523
-0.000174044
-0.00016911
-0.000156814
-0.000147219
-0.000150559
-0.000157185
-0.000156082
-0.000145546
-0.000129354
-0.00012368
-0.000118008
-0.000100844
-8.25585e-05
-7.17831e-05
-7.40425e-05
-7.57689e-05
-7.5982e-05
-7.60773e-05
-8.10262e-05
-9.29812e-05
-0.000105931
-0.000115174
-0.00011369
-0.000103703
-8.36468e-05
-6.97133e-05
-7.2597e-05
-8.30363e-05
-9.71923e-05
-0.000114016
-0.000122227
-0.000112408
-9.20221e-05
-9.2228e-05
-9.89581e-05
-0.00010113
-0.000111415
-0.000114235
-0.000122664
-0.000153458
-0.000127806
-0.000129655
-0.000116939
-0.000101479
-9.89784e-05
-0.000102563
-0.000105209
-9.7316e-05
-7.5958e-05
-6.21796e-05
-5.37387e-05
-3.98139e-05
-2.43279e-05
-1.23293e-05
-1.13846e-05
-9.5435e-06
-7.92883e-06
-1.20536e-05
-1.95604e-05
-2.42628e-05
-2.58695e-05
-2.3805e-05
-1.47197e-05
-1.23472e-05
-6.4391e-06
-2.89514e-07
-1.08308e-05
-2.46737e-05
-3.3792e-05
-4.50478e-05
-5.28225e-05
-4.93876e-05
-3.42591e-05
-3.15307e-05
-4.11426e-05
-4.67065e-05
-6.00634e-05
-6.7986e-05
-7.3356e-05
-0.000100613
-4.0412e-05
-4.29347e-05
-3.71063e-05
-2.90311e-05
-3.33951e-05
-4.2788e-05
-4.83187e-05
-4.45359e-05
-2.76291e-05
-1.41392e-05
-5.12806e-06
7.32865e-06
2.0474e-05
3.16982e-05
3.34308e-05
3.30982e-05
3.48367e-05
3.2335e-05
2.62551e-05
2.71338e-05
3.22458e-05
3.83091e-05
4.9845e-05
4.95722e-05
4.68377e-05
5.13084e-05
4.34467e-05
3.12915e-05
2.61039e-05
1.50678e-05
3.51347e-06
-2.0847e-06
1.80992e-06
4.89304e-06
-2.41293e-06
-3.78573e-06
-7.75616e-06
-1.20478e-05
-8.81637e-06
-2.1727e-05
1.47696e-06
1.81948e-08
4.18863e-06
1.01036e-05
6.75255e-06
-1.54386e-06
-4.15856e-06
-1.1602e-06
1.20643e-05
2.35527e-05
2.92702e-05
3.7536e-05
4.85246e-05
5.82611e-05
6.18688e-05
5.96152e-05
5.95906e-05
5.99281e-05
5.29844e-05
5.385e-05
5.97129e-05
6.29276e-05
7.213e-05
7.35317e-05
6.82786e-05
7.43211e-05
7.56948e-05
6.90854e-05
6.65728e-05
5.9753e-05
5.02181e-05
4.3587e-05
4.10394e-05
4.29813e-05
3.66367e-05
3.16427e-05
2.63707e-05
1.89017e-05
2.26528e-05
1.56629e-05
3.8023e-05
3.86022e-05
4.13797e-05
4.50681e-05
4.39757e-05
3.80917e-05
3.56376e-05
3.62039e-05
4.24599e-05
5.09565e-05
5.58372e-05
6.07549e-05
6.9048e-05
7.67217e-05
8.22537e-05
8.14082e-05
7.83064e-05
8.05951e-05
7.48344e-05
7.12142e-05
7.47729e-05
7.50431e-05
8.0848e-05
8.57463e-05
8.13734e-05
8.53711e-05
9.16386e-05
8.85861e-05
8.63131e-05
8.20982e-05
7.55962e-05
6.94175e-05
6.32539e-05
6.30164e-05
5.97539e-05
5.41666e-05
4.80649e-05
4.09531e-05
4.54966e-05
4.53647e-05
5.50383e-05
5.40857e-05
5.61086e-05
5.7611e-05
5.74563e-05
5.47559e-05
5.23181e-05
5.31707e-05
5.69049e-05
6.29092e-05
6.88773e-05
7.23931e-05
7.91844e-05
8.46496e-05
8.90044e-05
9.19455e-05
8.82318e-05
8.99744e-05
8.77887e-05
8.2447e-05
8.4912e-05
8.50393e-05
8.72748e-05
9.23087e-05
9.00155e-05
9.02618e-05
9.60815e-05
9.58391e-05
9.22725e-05
8.96058e-05
8.64499e-05
8.1668e-05
7.49869e-05
7.22715e-05
7.05219e-05
6.5905e-05
5.91125e-05
5.42198e-05
5.81823e-05
5.99558e-05
6.54269e-05
6.19781e-05
6.4251e-05
6.57238e-05
6.49527e-05
6.61441e-05
6.43119e-05
6.40963e-05
6.67174e-05
7.01354e-05
7.60725e-05
7.9775e-05
8.54839e-05
8.97905e-05
9.16729e-05
9.67961e-05
9.41245e-05
9.23049e-05
9.35569e-05
9.023e-05
9.01325e-05
9.00045e-05
9.11103e-05
9.5033e-05
9.46624e-05
9.34065e-05
9.69188e-05
9.89954e-05
9.49508e-05
9.28795e-05
9.20134e-05
8.72636e-05
8.10135e-05
7.62168e-05
7.58215e-05
7.38098e-05
6.62779e-05
6.37407e-05
6.59033e-05
6.72624e-05
7.03383e-05
6.63158e-05
6.78317e-05
7.04986e-05
6.79483e-05
7.03936e-05
7.16053e-05
7.03552e-05
7.24166e-05
7.5398e-05
8.02892e-05
8.3828e-05
8.85372e-05
9.17412e-05
9.00587e-05
9.51923e-05
9.55723e-05
9.16244e-05
9.39692e-05
9.43706e-05
9.32142e-05
9.20649e-05
9.34301e-05
9.64506e-05
9.66345e-05
9.51493e-05
9.63999e-05
9.91404e-05
9.51176e-05
9.34415e-05
9.43828e-05
8.98313e-05
8.46802e-05
7.84111e-05
7.75194e-05
7.71171e-05
6.87998e-05
6.80456e-05
6.84589e-05
6.80475e-05
7.36206e-05
7.12601e-05
7.11444e-05
7.47481e-05
7.28145e-05
7.37492e-05
7.82223e-05
7.76019e-05
7.78257e-05
8.08622e-05
8.38817e-05
8.65709e-05
9.07553e-05
9.35034e-05
8.98118e-05
9.32564e-05
9.67385e-05
9.2523e-05
9.34978e-05
9.58097e-05
9.55046e-05
9.38026e-05
9.45167e-05
9.72698e-05
9.84135e-05
9.72917e-05
9.68518e-05
9.88688e-05
9.48292e-05
9.2942e-05
9.40743e-05
8.96709e-05
8.52376e-05
7.92923e-05
7.80104e-05
7.75824e-05
7.04648e-05
7.11458e-05
7.08311e-05
6.9294e-05
7.38153e-05
7.49396e-05
7.39701e-05
7.6541e-05
7.70696e-05
7.63666e-05
8.22163e-05
8.33346e-05
8.18706e-05
8.53206e-05
8.68587e-05
8.81605e-05
9.19782e-05
9.41244e-05
9.01181e-05
9.10815e-05
9.56537e-05
9.34122e-05
9.28021e-05
9.47973e-05
9.66202e-05
9.60593e-05
9.52451e-05
9.79734e-05
0.000100036
9.87811e-05
9.75778e-05
9.85852e-05
9.49875e-05
9.20447e-05
9.16438e-05
8.7561e-05
8.37569e-05
7.97611e-05
7.85604e-05
7.58458e-05
7.14852e-05
7.31632e-05
7.16293e-05
6.98379e-05
-0.000350156
-0.000445293
-0.000349068
-0.000362244
-0.000472923
-0.000595983
-0.000676946
-0.000717007
-0.000620629
-0.000397154
-0.000368227
-0.00038548
-0.000269383
-0.000131346
-0.00020146
-0.000453566
-0.000648669
-0.000663665
-0.000437713
-0.000308518
-0.0004393
-0.000488535
-0.000320253
-0.000110609
2.52149e-05
0.000102056
6.92826e-05
1.68518e-05
0.000114848
0.000161639
2.22417e-05
-0.00017625
-0.00025871
-0.000195039
-0.000230366
-0.000346724
-0.000358768
-0.000327408
-0.000325954
-0.000272051
-0.000353741
-0.000447859
-0.000349797
-0.0003631
-0.000474838
-0.000599076
-0.000680914
-0.000720266
-0.000623225
-0.000399841
-0.00037243
-0.000389685
-0.000272486
-0.000133395
-0.000202547
-0.00045565
-0.000650932
-0.00066526
-0.000438232
-0.000309191
-0.000441576
-0.000491457
-0.000323502
-0.000114881
1.80121e-05
9.46172e-05
6.00686e-05
5.74133e-06
0.000102933
0.000152285
1.59646e-05
-0.000179766
-0.000260001
-0.000196285
-0.000232306
-0.000349914
-0.000361255
-0.000329021
-0.000327267
-0.000274952
-0.000372344
-0.00046753
-0.000368044
-0.000381409
-0.000496312
-0.000623169
-0.000705492
-0.000747897
-0.000650568
-0.000427575
-0.000403854
-0.000423938
-0.000308326
-0.000167235
-0.000234224
-0.000488859
-0.000688041
-0.000702882
-0.000473561
-0.000339494
-0.000470102
-0.000520819
-0.000354092
-0.000146877
-1.50274e-05
5.39727e-05
1.1689e-05
-4.35553e-05
6.15411e-05
0.000115135
-1.6688e-05
-0.000208814
-0.00028311
-0.000217362
-0.000253432
-0.00037177
-0.000384334
-0.000349528
-0.000344469
-0.000293076
-0.000408212
-0.000504697
-0.00041476
-0.000432286
-0.000546166
-0.000674765
-0.000760733
-0.000807324
-0.000704192
-0.000475691
-0.000461035
-0.000491356
-0.00038705
-0.000248103
-0.000304922
-0.000556042
-0.000762221
-0.000782671
-0.000548675
-0.000400183
-0.000523847
-0.000578766
-0.000411987
-0.000211387
-9.53394e-05
-3.90109e-05
-8.13118e-05
-0.000127703
-7.39718e-06
5.51587e-05
-7.1856e-05
-0.000262875
-0.00033387
-0.000267323
-0.000304296
-0.000421715
-0.000431541
-0.000396477
-0.000385909
-0.000332628
-0.000467229
-0.000574434
-0.00049578
-0.000508591
-0.000620554
-0.000753317
-0.000857195
-0.000911395
-0.000783562
-0.000541064
-0.00053432
-0.000588487
-0.000504232
-0.000373992
-0.000419258
-0.000656725
-0.000860043
-0.000887431
-0.000643058
-0.000465683
-0.000581223
-0.000646175
-0.000491981
-0.000308387
-0.000208962
-0.000160651
-0.000192036
-0.000230222
-0.000104413
-3.14295e-05
-0.000146183
-0.000344175
-0.000415658
-0.000350847
-0.000388735
-0.000503415
-0.000511742
-0.000479448
-0.000465263
-0.000403167
-0.000555625
-0.000666522
-0.000600664
-0.000598306
-0.000695513
-0.000839667
-0.000985121
-0.00104727
-0.000894072
-0.000635603
-0.000625803
-0.000703481
-0.000653932
-0.000530888
-0.000565237
-0.000782062
-0.000977258
-0.00100691
-0.000746738
-0.000533888
-0.000631224
-0.000717124
-0.000599507
-0.00044762
-0.000363167
-0.000313249
-0.000331174
-0.000378893
-0.000249798
-0.000153048
-0.000248372
-0.000455732
-0.000533606
-0.000465496
-0.000502757
-0.000616501
-0.000622492
-0.000590241
-0.000571687
-0.000507576
-0.000655873
-0.000759546
-0.000694659
-0.000678802
-0.000771879
-0.000943184
-0.00111483
-0.00117927
-0.00101719
-0.000757367
-0.000753687
-0.000859496
-0.000824405
-0.000711318
-0.000732922
-0.000917796
-0.00109059
-0.00112399
-0.000864339
-0.000637338
-0.000716763
-0.000827431
-0.000756749
-0.000640926
-0.00055876
-0.000500402
-0.000523445
-0.000574281
-0.000441609
-0.000323585
-0.000386077
-0.000586961
-0.000670598
-0.000602198
-0.000635969
-0.000741288
-0.000741307
-0.000706459
-0.000686592
-0.000620897
-0.000739886
-0.000833951
-0.000780791
-0.000776863
-0.000880141
-0.00104607
-0.00122997
-0.00130681
-0.00115319
-0.000894535
-0.00088712
-0.000999982
-0.000987312
-0.000884863
-0.000874452
-0.00102025
-0.00119571
-0.0012758
-0.00103894
-0.000793031
-0.000851291
-0.00098804
-0.000958281
-0.000857508
-0.000770505
-0.000711875
-0.000734963
-0.000785635
-0.000654687
-0.000515575
-0.000532539
-0.000719664
-0.000810034
-0.000737312
-0.000760423
-0.000852165
-0.000843827
-0.000818855
-0.000802955
-0.000729406
-0.000796507
-0.000896164
-0.000869727
-0.000886445
-0.0010026
-0.00115836
-0.0013207
-0.00139394
-0.00126327
-0.00100554
-0.000979278
-0.00108435
-0.00107791
-0.000973229
-0.00093267
-0.00107923
-0.00130648
-0.00143906
-0.00120841
-0.000945651
-0.000984138
-0.00113465
-0.00112695
-0.00102735
-0.000948643
-0.000896817
-0.000912364
-0.000956957
-0.000843378
-0.000691289
-0.000671056
-0.000825094
-0.000914364
-0.000849589
-0.000855543
-0.000914172
-0.000895134
-0.000881067
-0.000873584
-0.000792988
-0.000836153
-0.000954537
-0.000967027
-0.00098588
-0.00107907
-0.00119865
-0.00133583
-0.00140317
-0.00130362
-0.00105757
-0.00101254
-0.00110421
-0.00110292
-0.00101461
-0.00097513
-0.00113433
-0.00141062
-0.00156712
-0.0013429
-0.00105427
-0.00106443
-0.00122616
-0.00122494
-0.00111435
-0.00104134
-0.00100337
-0.00101724
-0.00106252
-0.000979338
-0.000840909
-0.000800789
-0.000914067
-0.00100149
-0.000941833
-0.000928035
-0.000953336
-0.000903579
-0.00086974
-0.000864408
-0.000813384
-0.000837194
-0.000990347
-0.0010525
-0.00106281
-0.00112073
-0.00121009
-0.00131605
-0.00138825
-0.00132539
-0.00108555
-0.00100234
-0.0010775
-0.00109524
-0.00104971
-0.00101116
-0.00115593
-0.00144682
-0.00162022
-0.00142065
-0.00113036
-0.00111935
-0.00128024
-0.0012778
-0.00113232
-0.00103178
-0.000998448
-0.0010108
-0.00106973
-0.00104616
-0.000953752
-0.000913607
-0.000990005
-0.0010698
-0.00101917
-0.00099292
-0.000987903
-0.000898547
-0.000823857
-0.000810228
-0.000794006
-0.000779107
-0.000938321
-0.00103152
-0.0010389
-0.00108706
-0.00117041
-0.0012606
-0.00135063
-0.00134184
-0.00113285
-0.000999813
-0.00101169
-0.00101032
-0.000985825
-0.000962772
-0.0010905
-0.00135143
-0.00151546
-0.00139098
-0.00117978
-0.00117865
-0.00132892
-0.00131483
-0.00113721
-0.00100322
-0.000953454
-0.00095658
-0.00103136
-0.00105448
-0.00100177
-0.00095942
-0.000986876
-0.00105524
-0.00104805
-0.00104886
-0.00103966
-0.000927643
-0.000808482
-0.000753917
-0.000736242
-0.000728466
-0.000850778
-0.000941507
-0.000942884
-0.000970856
-0.00105871
-0.00115521
-0.00126843
-0.0013142
-0.0011497
-0.000980633
-0.000926341
-0.000881106
-0.000839304
-0.000811591
-0.000908786
-0.00111091
-0.00125693
-0.00122971
-0.00113126
-0.00117139
-0.00131272
-0.00129539
-0.00111767
-0.000970002
-0.000902918
-0.000895099
-0.00097301
-0.00102184
-0.000997622
-0.000945069
-0.00092966
-0.000981862
-0.00101542
-0.00105097
-0.00106433
-0.000966553
-0.000838794
-0.00074815
-0.000705526
-0.000714487
-0.000779216
-0.000841059
-0.000838283
-0.000844579
-0.000926206
-0.00102605
-0.00114009
-0.00122434
-0.00110596
-0.000919169
-0.000848084
-0.000808494
-0.000767399
-0.000735725
-0.00077057
-0.000892862
-0.00102667
-0.00105287
-0.00100417
-0.00104046
-0.00116102
-0.00116867
-0.00104454
-0.000948267
-0.000915796
-0.000907208
-0.000954106
-0.000991038
-0.000961534
-0.000890195
-0.00084058
-0.000860473
-0.000898549
-0.000963316
-0.00101495
-0.000966673
-0.000876965
-0.000786868
-0.000722806
-0.000679899
-0.000710232
-0.000754882
-0.000767568
-0.000774281
-0.000817164
-0.000877904
-0.000970639
-0.00108204
-0.00102075
-0.000841843
-0.000757442
-0.00072783
-0.000707506
-0.000709463
-0.000730729
-0.000791947
-0.000863838
-0.000843702
-0.000759354
-0.000768022
-0.000879521
-0.000935599
-0.000899504
-0.000885264
-0.000923367
-0.000966163
-0.00101297
-0.00101076
-0.000946608
-0.000843012
-0.000752997
-0.000714592
-0.000719907
-0.000781917
-0.000867209
-0.000876993
-0.000845683
-0.000791892
-0.000713783
-0.000607642
-0.000610129
-0.0006619
-0.000712627
-0.000731811
-0.000744994
-0.000779959
-0.000861181
-0.000974283
-0.000953874
-0.000794393
-0.000684078
-0.00063583
-0.00062385
-0.000656342
-0.000686569
-0.000714618
-0.000719379
-0.000630143
-0.000497058
-0.000473633
-0.00057166
-0.000664231
-0.000701408
-0.000740607
-0.000830501
-0.000925875
-0.00099341
-0.000985156
-0.000892784
-0.000761914
-0.000652369
-0.000597685
-0.000584868
-0.000639617
-0.000754368
-0.000822382
-0.000839654
-0.000805409
-0.000695175
-0.000569236
-0.000530383
-0.000562125
-0.0006198
-0.000656865
-0.000676976
-0.000716925
-0.000800871
-0.000903177
-0.000898301
-0.000765941
-0.000654322
-0.000596667
-0.000575887
-0.000598964
-0.000620933
-0.000645013
-0.000639754
-0.000536875
-0.000380411
-0.000307099
-0.000375353
-0.000488343
-0.00056893
-0.000634703
-0.000726766
-0.000824488
-0.000891202
-0.000885458
-0.000788317
-0.0006417
-0.000521847
-0.000460818
-0.000450906
-0.000505726
-0.000627443
-0.000726085
-0.000775139
-0.000775632
-0.000682049
-0.000521509
-0.000453165
-0.000429759
-0.000454051
-0.000489774
-0.000528907
-0.00057869
-0.000649489
-0.000736769
-0.000745037
-0.000640293
-0.000547963
-0.000497673
-0.000468849
-0.000477953
-0.00048512
-0.0005017
-0.000523305
-0.000476571
-0.000351529
-0.000256355
-0.000279261
-0.000367294
-0.000451596
-0.000522458
-0.000585773
-0.000659353
-0.00071779
-0.000718419
-0.000643728
-0.000511866
-0.00037796
-0.000307484
-0.00029531
-0.000335456
-0.000434446
-0.000528905
-0.000586627
-0.000624243
-0.000599023
-0.00041741
-0.000376417
-0.000343123
-0.000327387
-0.000321013
-0.000332856
-0.000361885
-0.000408357
-0.000477442
-0.000503608
-0.000447566
-0.00039785
-0.000380439
-0.00036228
-0.000359724
-0.000347206
-0.000337897
-0.000357962
-0.000353641
-0.000296439
-0.00023102
-0.000226365
-0.000279458
-0.000334952
-0.000367615
-0.00039494
-0.000443061
-0.000497186
-0.000519093
-0.00048669
-0.000394207
-0.00027317
-0.000200867
-0.000186489
-0.000210345
-0.00027084
-0.000329587
-0.000368617
-0.000416187
-0.000437675
-0.000345965
-0.000328356
-0.000292207
-0.00024724
-0.000194974
-0.000156422
-0.000151164
-0.000176336
-0.000236617
-0.000291826
-0.000287846
-0.000283388
-0.000297711
-0.000294717
-0.000286249
-0.000263875
-0.000234935
-0.000228183
-0.000226446
-0.000208095
-0.000181256
-0.000175179
-0.000203655
-0.000241365
-0.000254652
-0.000259493
-0.000283311
-0.000329932
-0.000368834
-0.000377435
-0.000339745
-0.000257181
-0.000198447
-0.000183
-0.000186339
-0.000218547
-0.000249231
-0.000268973
-0.000307926
-0.000341222
-0.000304092
-0.000281809
-0.000235985
-0.000178951
-0.000121083
-7.95907e-05
-7.09902e-05
-9.46443e-05
-0.000155364
-0.000227441
-0.000249717
-0.000251401
-0.000261131
-0.000261603
-0.000263788
-0.0002541
-0.000225793
-0.000200148
-0.000177275
-0.000148842
-0.000123499
-0.000118272
-0.00013612
-0.000161804
-0.000175419
-0.000188393
-0.000214011
-0.000256071
-0.000295727
-0.000311145
-0.000294253
-0.000238268
-0.000193421
-0.000180112
-0.000174176
-0.000188024
-0.000205422
-0.000220313
-0.000260043
-0.000298727
-0.00024207
-0.000217674
-0.000183679
-0.000147492
-0.000118455
-9.88421e-05
-0.000101952
-0.000123818
-0.000156963
-0.000199403
-0.000198866
-0.000166695
-0.000147279
-0.000145173
-0.000163354
-0.000176842
-0.000170203
-0.000153275
-0.000130726
-0.000104512
-8.39319e-05
-8.09002e-05
-9.05415e-05
-0.000107492
-0.00011367
-0.000118795
-0.000138053
-0.000174411
-0.000216098
-0.000238634
-0.000238128
-0.000204237
-0.000165865
-0.000154616
-0.00014634
-0.00014922
-0.000162938
-0.000174771
-0.000206508
-0.000241901
-0.000191105
-0.00017366
-0.000155604
-0.000134577
-0.000119139
-0.000106898
-0.00010443
-0.000114322
-0.000123541
-0.000136491
-0.000125099
-9.26555e-05
-6.80385e-05
-6.23604e-05
-8.34712e-05
-0.000106225
-0.000111303
-0.000102008
-8.6195e-05
-6.91045e-05
-5.65412e-05
-5.38556e-05
-5.60091e-05
-5.99044e-05
-5.03469e-05
-3.65381e-05
-3.90825e-05
-5.67312e-05
-8.28005e-05
-0.000108952
-0.000126636
-0.000121647
-0.000107608
-0.000111753
-0.00011495
-0.000115536
-0.000128218
-0.000139507
-0.000159639
-0.000188392
-8.79037e-05
-7.9092e-05
-6.56565e-05
-5.10543e-05
-4.31069e-05
-3.63591e-05
-3.68925e-05
-4.5703e-05
-5.08651e-05
-6.04992e-05
-5.88198e-05
-4.34147e-05
-3.11253e-05
-2.50545e-05
-3.10193e-05
-4.14305e-05
-4.22539e-05
-3.65902e-05
-2.98153e-05
-1.94807e-05
-1.00443e-05
-4.0137e-06
7.44032e-06
1.28056e-05
2.00462e-05
3.01935e-05
2.6383e-05
1.34074e-05
1.12771e-06
-1.74177e-05
-3.22725e-05
-3.61107e-05
-2.99798e-05
-3.40481e-05
-4.26102e-05
-4.20483e-05
-4.76878e-05
-5.32933e-05
-5.96808e-05
-7.87111e-05
-2.13931e-06
3.93492e-06
1.37311e-05
2.36969e-05
2.37606e-05
1.95546e-05
1.40271e-05
4.83132e-06
-2.35787e-06
-1.15568e-05
-1.19109e-05
-9.36309e-07
1.17042e-05
2.41598e-05
2.94213e-05
2.87652e-05
3.2913e-05
3.64081e-05
3.58052e-05
4.00636e-05
4.68989e-05
5.37099e-05
6.74393e-05
7.16927e-05
7.02583e-05
7.45667e-05
7.06414e-05
6.02506e-05
5.3391e-05
3.9744e-05
2.61838e-05
1.95431e-05
1.9681e-05
1.63734e-05
5.64134e-06
5.411e-06
5.90604e-06
6.43292e-06
1.29015e-05
6.22725e-06
2.98279e-05
2.99639e-05
3.48728e-05
4.11705e-05
3.97878e-05
3.41062e-05
3.30614e-05
3.17557e-05
3.67016e-05
3.63408e-05
3.63186e-05
4.39148e-05
5.54712e-05
6.80295e-05
7.514e-05
7.3956e-05
7.35895e-05
7.36091e-05
6.61775e-05
6.51883e-05
7.04749e-05
7.45078e-05
8.69057e-05
9.29607e-05
8.96536e-05
9.60459e-05
0.000100411
9.77457e-05
9.73576e-05
8.73472e-05
7.38554e-05
6.47838e-05
5.98903e-05
5.79136e-05
4.8957e-05
4.41365e-05
4.25041e-05
4.02264e-05
4.63011e-05
4.12859e-05
5.0306e-05
5.16458e-05
5.54641e-05
6.0445e-05
6.05573e-05
5.55467e-05
5.46491e-05
5.59626e-05
6.03159e-05
6.23322e-05
6.2963e-05
6.81814e-05