/*--------------------------------*- C++ -*----------------------------------*\
  =========                 |
  \\      /  F ield         | OpenFOAM: The Open Source CFD Toolbox
   \\    /   O peration     | Website:  https://openfoam.org
    \\  /    A nd           | Version:  10
     \\/     M anipulation  |
\*---------------------------------------------------------------------------*/
FoamFile
{
    format      ascii;
    class       volScalarField;
    location    "35";
    object      nut;
}
// * * * * * * * * * * * * * * * * * * * * * * * * * * * * * * * * * * * * * //

dimensions      [0 2 -1 0 0 0 0];

internalField   nonuniform List<scalar> 
25600
(
0.000171924
0.000171924
0.000171925
0.000171928
0.000171927
0.000171929
0.000171932
0.00017193
0.000171933
0.000171933
0.000171934
0.000171935
0.000171935
0.000171934
0.000171936
0.000171934
0.000171934
0.000171934
0.000171933
0.000171931
0.000171932
0.000171929
0.000171928
0.000171927
0.000171926
0.000171925
0.000171924
0.000171923
0.000171921
0.000171921
0.000171921
0.000171918
0.00017192
0.000171919
0.000171919
0.00017192
0.00017192
0.00017192
0.000171922
0.000171921
0.000178445
0.000178444
0.000178446
0.000178448
0.000178448
0.00017845
0.000178451
0.000178451
0.000178454
0.000178453
0.000178455
0.000178456
0.000178456
0.000178456
0.000178457
0.000178455
0.000178456
0.000178455
0.000178454
0.000178453
0.000178453
0.00017845
0.00017845
0.000178448
0.000178447
0.000178446
0.000178445
0.000178444
0.000178442
0.000178442
0.000178441
0.000178439
0.000178441
0.000178439
0.00017844
0.00017844
0.00017844
0.000178441
0.000178442
0.000178441
0.000183959
0.000183957
0.00018396
0.000183961
0.000183962
0.000183964
0.000183965
0.000183966
0.000183969
0.000183968
0.00018397
0.00018397
0.000183971
0.000183971
0.000183972
0.000183971
0.000183972
0.00018397
0.00018397
0.000183969
0.000183969
0.000183966
0.000183966
0.000183964
0.000183963
0.000183962
0.000183961
0.000183959
0.000183958
0.000183957
0.000183956
0.000183955
0.000183956
0.000183953
0.000183955
0.000183954
0.000183954
0.000183955
0.000183956
0.000183956
0.000189561
0.00018956
0.000189563
0.000189563
0.000189565
0.000189567
0.000189568
0.000189569
0.000189571
0.000189571
0.000189574
0.000189574
0.000189575
0.000189575
0.000189576
0.000189576
0.000189576
0.000189575
0.000189575
0.000189574
0.000189574
0.000189572
0.000189572
0.00018957
0.000189569
0.000189567
0.000189566
0.000189565
0.000189563
0.000189562
0.000189561
0.00018956
0.00018956
0.000189558
0.000189559
0.000189557
0.000189558
0.000189558
0.000189559
0.000189559
0.000195009
0.000195007
0.000195011
0.00019501
0.000195012
0.000195014
0.000195015
0.000195016
0.000195019
0.000195019
0.000195021
0.000195022
0.000195023
0.000195024
0.000195025
0.000195025
0.000195026
0.000195025
0.000195025
0.000195024
0.000195025
0.000195022
0.000195023
0.00019502
0.00019502
0.000195018
0.000195017
0.000195016
0.000195014
0.000195013
0.000195011
0.00019501
0.000195009
0.000195007
0.000195008
0.000195006
0.000195007
0.000195006
0.000195007
0.000195007
0.000200245
0.000200243
0.000200247
0.000200246
0.000200248
0.000200249
0.00020025
0.000200251
0.000200254
0.000200254
0.000200257
0.000200258
0.000200259
0.000200261
0.000200262
0.000200262
0.000200264
0.000200264
0.000200264
0.000200264
0.000200264
0.000200262
0.000200263
0.000200261
0.000200261
0.000200259
0.000200257
0.000200256
0.000200254
0.000200253
0.000200251
0.00020025
0.000200249
0.000200247
0.000200247
0.000200245
0.000200245
0.000200244
0.000200244
0.000200243
0.000205162
0.000205159
0.000205163
0.000205161
0.000205163
0.000205163
0.000205165
0.000205166
0.000205168
0.000205169
0.000205172
0.000205173
0.000205174
0.000205176
0.000205177
0.000205179
0.00020518
0.000205181
0.000205182
0.000205182
0.000205183
0.000205181
0.000205183
0.00020518
0.000205181
0.000205179
0.000205178
0.000205177
0.000205174
0.000205174
0.000205171
0.00020517
0.000205169
0.000205166
0.000205166
0.000205164
0.000205163
0.000205162
0.000205162
0.00020516
0.000209629
0.000209625
0.000209628
0.000209625
0.000209627
0.000209627
0.000209628
0.000209629
0.000209631
0.000209631
0.000209634
0.000209635
0.000209637
0.000209639
0.000209641
0.000209642
0.000209645
0.000209646
0.000209647
0.000209648
0.000209649
0.000209649
0.000209651
0.000209649
0.00020965
0.000209649
0.000209648
0.000209647
0.000209644
0.000209645
0.000209641
0.00020964
0.000209639
0.000209636
0.000209636
0.000209633
0.000209632
0.00020963
0.000209629
0.000209627
0.000213483
0.000213477
0.00021348
0.000213476
0.000213478
0.000213477
0.000213478
0.000213477
0.00021348
0.00021348
0.000213482
0.000213483
0.000213485
0.000213487
0.000213489
0.00021349
0.000213493
0.000213495
0.000213496
0.000213499
0.0002135
0.0002135
0.000213503
0.000213501
0.000213503
0.000213503
0.000213502
0.000213503
0.0002135
0.000213501
0.000213498
0.000213497
0.000213496
0.000213492
0.000213492
0.000213489
0.000213487
0.000213485
0.000213484
0.00021348
0.000216522
0.000216514
0.000216518
0.000216512
0.000216514
0.000216511
0.000216512
0.00021651
0.000216512
0.000216511
0.000216512
0.000216514
0.000216515
0.000216517
0.000216519
0.00021652
0.000216522
0.000216526
0.000216525
0.000216531
0.000216531
0.000216532
0.000216537
0.000216535
0.000216538
0.000216539
0.000216538
0.000216541
0.000216537
0.00021654
0.000216537
0.000216536
0.000216536
0.000216533
0.000216532
0.00021653
0.000216528
0.000216524
0.000216525
0.000216519
0.000218496
0.000218486
0.000218491
0.000218483
0.000218485
0.000218481
0.000218481
0.000218479
0.000218478
0.000218478
0.000218477
0.000218478
0.000218479
0.00021848
0.000218481
0.000218483
0.000218483
0.00021849
0.000218486
0.000218494
0.000218493
0.000218495
0.000218501
0.000218499
0.000218503
0.000218505
0.000218504
0.000218509
0.000218506
0.00021851
0.000218508
0.000218507
0.000218508
0.000218506
0.000218505
0.000218503
0.000218502
0.000218497
0.0002185
0.000218491
0.000219095
0.000219085
0.000219091
0.000219081
0.000219084
0.000219078
0.000219077
0.000219076
0.000219072
0.000219073
0.00021907
0.00021907
0.000219069
0.00021907
0.000219069
0.000219073
0.000219068
0.000219079
0.00021907
0.000219081
0.000219079
0.000219079
0.000219088
0.000219084
0.00021909
0.000219093
0.000219093
0.000219098
0.000219097
0.0002191
0.000219101
0.000219101
0.000219102
0.000219102
0.000219101
0.0002191
0.000219102
0.000219094
0.0002191
0.00021909
0.000217942
0.00021793
0.00021794
0.000217926
0.000217932
0.000217925
0.000217923
0.000217923
0.000217916
0.000217919
0.000217913
0.000217913
0.00021791
0.000217911
0.000217906
0.000217914
0.000217901
0.000217918
0.000217903
0.000217915
0.000217915
0.00021791
0.000217923
0.000217916
0.000217923
0.000217926
0.000217926
0.000217931
0.000217932
0.000217934
0.000217937
0.000217939
0.000217938
0.000217942
0.000217942
0.00021794
0.000217947
0.000217936
0.000217945
0.000217935
0.000214572
0.000214558
0.000214574
0.000214555
0.000214566
0.00021456
0.000214553
0.00021456
0.000214547
0.000214553
0.000214545
0.000214546
0.00021454
0.000214545
0.000214531
0.000214547
0.000214524
0.000214547
0.000214528
0.000214535
0.000214541
0.000214528
0.000214545
0.000214535
0.000214542
0.000214543
0.000214545
0.000214546
0.000214552
0.000214552
0.000214554
0.00021456
0.000214557
0.000214563
0.000214566
0.00021456
0.000214573
0.000214561
0.000214572
0.000214564
0.000208427
0.000208406
0.000208432
0.000208409
0.00020842
0.000208422
0.000208405
0.000208424
0.000208403
0.000208415
0.000208404
0.000208409
0.000208395
0.000208411
0.000208384
0.000208412
0.000208379
0.000208403
0.000208389
0.000208384
0.000208401
0.000208377
0.000208398
0.000208385
0.000208392
0.000208389
0.000208396
0.00020839
0.000208398
0.000208399
0.000208396
0.000208408
0.000208401
0.000208407
0.000208415
0.000208403
0.000208421
0.00020841
0.00020842
0.000208413
0.000198835
0.000198803
0.000198837
0.000198816
0.000198817
0.000198837
0.000198805
0.000198838
0.00019881
0.000198828
0.000198812
0.000198827
0.000198801
0.000198832
0.000198793
0.000198826
0.000198798
0.000198808
0.000198812
0.000198789
0.000198818
0.000198787
0.000198809
0.000198793
0.000198803
0.000198793
0.000198805
0.000198795
0.0001988
0.000198807
0.000198794
0.000198812
0.000198803
0.000198804
0.000198818
0.000198802
0.00019882
0.00019881
0.000198822
0.000198809
0.000184998
0.000184962
0.000184989
0.000184987
0.000184963
0.000185009
0.000184957
0.000185004
0.000184969
0.000184994
0.000184972
0.000184998
0.000184963
0.000185
0.000184966
0.000184985
0.000184981
0.000184965
0.000184992
0.000184955
0.000184991
0.000184957
0.00018498
0.000184961
0.000184977
0.000184959
0.000184974
0.000184966
0.000184961
0.000184979
0.000184955
0.000184976
0.000184968
0.000184963
0.000184981
0.000184961
0.000184982
0.000184966
0.000184986
0.000184961
0.000165992
0.000165976
0.000165972
0.000166005
0.000165949
0.000166018
0.000165954
0.000166004
0.00016597
0.000165995
0.000165972
0.000165998
0.00016597
0.000165991
0.000165984
0.000165972
0.000165999
0.000165961
0.000166001
0.000165962
0.000165995
0.000165966
0.000165989
0.000165968
0.000165985
0.000165971
0.000165977
0.000165983
0.000165961
0.000165993
0.000165961
0.000165981
0.000165979
0.000165965
0.000165991
0.000165961
0.000165991
0.000165965
0.000165991
0.000165965
0.000140827
0.000140851
0.000140811
0.000140869
0.000140801
0.000140868
0.000140815
0.000140849
0.000140832
0.000140838
0.000140836
0.000140835
0.00014084
0.000140825
0.000140851
0.000140814
0.000140855
0.000140815
0.000140849
0.000140818
0.000140846
0.000140821
0.000140839
0.000140829
0.000140831
0.000140837
0.00014082
0.000140848
0.000140812
0.000140848
0.000140825
0.000140828
0.000140846
0.000140813
0.000140853
0.000140817
0.000140844
0.00014083
0.000140834
0.000140838
0.000108652
0.000108694
0.000108653
0.000108697
0.000108655
0.000108687
0.000108673
0.000108667
0.00010869
0.000108657
0.000108692
0.000108658
0.000108688
0.000108659
0.000108688
0.000108657
0.000108684
0.000108659
0.000108681
0.000108658
0.000108676
0.000108667
0.00010866
0.000108682
0.000108649
0.000108685
0.000108651
0.00010868
0.000108659
0.000108668
0.000108676
0.000108653
0.000108688
0.000108652
0.000108681
0.000108669
0.000108661
0.00010869
0.00010865
0.000108695
6.95864e-05
6.95971e-05
6.95975e-05
6.95955e-05
6.96012e-05
6.95877e-05
6.96174e-05
6.95729e-05
6.96281e-05
6.95722e-05
6.96207e-05
6.95868e-05
6.96051e-05
6.95972e-05
6.9601e-05
6.95957e-05
6.96019e-05
6.9593e-05
6.96015e-05
6.9594e-05
6.95901e-05
6.9611e-05
6.9568e-05
6.96226e-05
6.95685e-05
6.96062e-05
6.95885e-05
6.95871e-05
6.95997e-05
6.95796e-05
6.96038e-05
6.95791e-05
6.95987e-05
6.9591e-05
6.9583e-05
6.96111e-05
6.95654e-05
6.96244e-05
6.95659e-05
6.96137e-05
3.13817e-05
3.13545e-05
3.13879e-05
3.13604e-05
3.13833e-05
3.13585e-05
3.13947e-05
3.13485e-05
3.13996e-05
3.13551e-05
3.13854e-05
3.13761e-05
3.13678e-05
3.13862e-05
3.13687e-05
3.13808e-05
3.13746e-05
3.13764e-05
3.1377e-05
3.13779e-05
3.13659e-05
3.1396e-05
3.13468e-05
3.1401e-05
3.13577e-05
3.13758e-05
3.1381e-05
3.13607e-05
3.13823e-05
3.13636e-05
3.13764e-05
3.13684e-05
3.13686e-05
3.13772e-05
3.13572e-05
3.13894e-05
3.13465e-05
3.13931e-05
3.13557e-05
3.13727e-05
8.15743e-06
8.12497e-06
8.15131e-06
8.14128e-06
8.13917e-06
8.14068e-06
8.1515e-06
8.12753e-06
8.15825e-06
8.13208e-06
8.14462e-06
8.15152e-06
8.12958e-06
8.15646e-06
8.13618e-06
8.14648e-06
8.14591e-06
8.13899e-06
8.15227e-06
8.13838e-06
8.14263e-06
8.15802e-06
8.12327e-06
8.16408e-06
8.13431e-06
8.14261e-06
8.15186e-06
8.13639e-06
8.14718e-06
8.14176e-06
8.14498e-06
8.13971e-06
8.14563e-06
8.14089e-06
8.13954e-06
8.15028e-06
8.12875e-06
8.15419e-06
8.13656e-06
8.13502e-06
1.10441e-06
1.07804e-06
1.08916e-06
1.1012e-06
1.07448e-06
1.09809e-06
1.09109e-06
1.07976e-06
1.10131e-06
1.08193e-06
1.08786e-06
1.10071e-06
1.0749e-06
1.10025e-06
1.08746e-06
1.08434e-06
1.10095e-06
1.07506e-06
1.10646e-06
1.07793e-06
1.09068e-06
1.10399e-06
1.06847e-06
1.10917e-06
1.08249e-06
1.08672e-06
1.09802e-06
1.08546e-06
1.09019e-06
1.09098e-06
1.0923e-06
1.08376e-06
1.0984e-06
1.08202e-06
1.09308e-06
1.09392e-06
1.0793e-06
1.10003e-06
1.08676e-06
1.08133e-06
1.05049e-07
7.55159e-08
8.16579e-08
1.04569e-07
6.88669e-08
9.73672e-08
8.64366e-08
7.66337e-08
9.83009e-08
7.90642e-08
8.16024e-08
1.00531e-07
7.10333e-08
9.44153e-08
8.9194e-08
7.40206e-08
1.06343e-07
6.73503e-08
1.06018e-07
7.79286e-08
7.91931e-08
1.13474e-07
6.22539e-08
1.07195e-07
8.32444e-08
7.85914e-08
9.94654e-08
8.02737e-08
8.58469e-08
8.74077e-08
8.81508e-08
7.88821e-08
9.52418e-08
7.71851e-08
8.85586e-08
9.17198e-08
7.46917e-08
9.60769e-08
8.56409e-08
7.57953e-08
4.27323e-08
4.68801e-09
3.2025e-09
4.52107e-08
4.30648e-09
2.57229e-08
9.29985e-09
5.54331e-09
2.82531e-08
4.93437e-09
3.83345e-09
3.41387e-08
3.39101e-09
1.58426e-08
1.97696e-08
5.71973e-09
4.15266e-08
4.54402e-09
3.17995e-08
1.18418e-08
3.29883e-09
6.20134e-08
4.10911e-09
3.34391e-08
2.03701e-08
4.37871e-09
4.14014e-08
3.97276e-09
1.3345e-08
1.11546e-08
1.06236e-08
5.90301e-09
1.59803e-08
2.36409e-09
8.87006e-09
1.92309e-08
6.09653e-09
1.76436e-08
1.6545e-08
6.12847e-09
4.5473e-08
5.16987e-09
2.7397e-09
5.07804e-08
2.95981e-09
2.94093e-08
6.63492e-09
4.86166e-09
3.04755e-08
3.3465e-09
4.58477e-09
3.18586e-08
3.55405e-09
8.2239e-09
2.59481e-08
7.8848e-09
4.148e-08
5.37695e-09
2.04361e-08
1.66489e-08
5.06919e-09
6.57749e-08
3.78495e-09
2.50684e-08
2.4624e-08
3.30961e-09
4.30762e-08
1.87748e-09
1.51008e-08
9.10646e-09
9.61137e-09
5.91367e-09
1.09645e-08
5.85603e-09
6.06838e-09
2.38966e-08
6.02448e-09
1.39326e-08
1.93207e-08
5.53451e-09
4.97365e-08
5.97239e-09
5.07659e-09
5.06688e-08
2.74652e-09
3.33667e-08
7.35708e-09
4.45242e-09
3.28946e-08
3.57393e-09
8.40576e-09
2.65304e-08
4.89193e-09
6.08378e-09
3.48177e-08
8.97795e-09
3.44801e-08
6.37255e-09
5.40054e-09
3.6232e-08
7.36676e-09
6.68675e-08
2.71124e-09
1.788e-08
3.15853e-08
4.82936e-09
3.75981e-08
2.37051e-09
1.58063e-08
9.75353e-09
1.29213e-08
3.11115e-09
9.01627e-09
8.15911e-09
6.22645e-09
2.77198e-08
5.63752e-09
9.67085e-09
2.62537e-08
4.88891e-09
4.81665e-08
9.94042e-09
1.05622e-08
4.67383e-08
2.78321e-09
3.97824e-08
8.77836e-09
4.66141e-09
3.02963e-08
5.41089e-09
1.33444e-08
2.13519e-08
7.85858e-09
6.94572e-09
3.8289e-08
9.22668e-09
1.9548e-08
1.94751e-08
4.65801e-09
5.81264e-08
8.15583e-09
5.72622e-08
1.75202e-09
1.25899e-08
4.08222e-08
6.36934e-09
2.7877e-08
4.45018e-09
1.80849e-08
8.47907e-09
2.12592e-08
6.87578e-10
1.12336e-08
8.64941e-09
6.7581e-09
2.80461e-08
6.14716e-09
7.72358e-09
3.33038e-08
3.9042e-09
3.78049e-08
1.76911e-08
1.9471e-08
3.38898e-08
2.90854e-09
3.91293e-08
1.38656e-08
7.46754e-09
2.41175e-08
7.05427e-09
1.91791e-08
1.39238e-08
1.5882e-08
6.76957e-09
3.80513e-08
6.92673e-09
9.22754e-09
4.11439e-08
6.1048e-09
6.79342e-08
6.50838e-09
3.48589e-08
1.15371e-08
1.23914e-08
4.44123e-08
7.08923e-09
1.50999e-08
8.28445e-09
1.75278e-08
6.03391e-09
2.67745e-08
7.94993e-10
9.65841e-09
1.57471e-08
5.29315e-09
2.96018e-08
6.74644e-09
1.0543e-08
3.35832e-08
3.34803e-09
2.76423e-08
2.0865e-08
3.38131e-08
1.11502e-08
8.83956e-09
2.74396e-08
2.13813e-08
1.51955e-08
1.01522e-08
7.31402e-09
1.90547e-08
6.89814e-09
2.11708e-08
5.59006e-09
2.81982e-08
6.39555e-09
9.75397e-09
5.02999e-08
6.58721e-09
6.00272e-08
2.59284e-09
1.71315e-08
2.62243e-08
1.19199e-08
3.44725e-08
9.15271e-09
5.15557e-09
1.65357e-08
1.02152e-08
3.53293e-09
2.01116e-08
6.9721e-09
1.12369e-08
2.82091e-08
3.9282e-09
2.35944e-08
1.38931e-08
1.4084e-08
3.18197e-08
2.50581e-09
1.5937e-08
1.98061e-08
4.98087e-08
6.28309e-09
3.78627e-08
1.42921e-08
1.91677e-08
3.1975e-08
4.01334e-09
2.20528e-08
8.48576e-09
2.3387e-09
1.75962e-08
5.64654e-09
1.48399e-08
1.56949e-08
1.75669e-08
3.50426e-08
6.05531e-09
3.01092e-08
4.1205e-09
1.63311e-08
2.94553e-08
1.26936e-08
2.15159e-08
1.46742e-08
2.91505e-09
2.33852e-08
4.86302e-09
7.62104e-09
1.5007e-08
1.85229e-08
1.55371e-08
2.43748e-08
2.31842e-09
1.25537e-08
2.95673e-08
1.65817e-08
2.38667e-08
8.57197e-09
0.000171948
0.000171948
0.000171948
0.000171952
0.00017195
0.000171952
0.000171955
0.000171953
0.000171956
0.000171957
0.000171956
0.000171958
0.000171958
0.000171957
0.000171959
0.000171958
0.000171958
0.000171958
0.000171956
0.000171956
0.000171956
0.000171954
0.000171953
0.000171952
0.000171951
0.00017195
0.000171949
0.000171948
0.000171946
0.000171946
0.000171946
0.000171944
0.000171945
0.000171944
0.000171944
0.000171945
0.000171944
0.000171945
0.000171946
0.000171945
0.000178469
0.000178469
0.00017847
0.000178472
0.000178471
0.000178474
0.000178475
0.000178475
0.000178478
0.000178478
0.000178478
0.00017848
0.000178479
0.00017848
0.000178481
0.00017848
0.00017848
0.00017848
0.000178479
0.000178478
0.000178478
0.000178476
0.000178476
0.000178475
0.000178473
0.000178472
0.000178471
0.00017847
0.000178468
0.000178468
0.000178467
0.000178466
0.000178466
0.000178465
0.000178465
0.000178466
0.000178465
0.000178466
0.000178467
0.000178466
0.000183984
0.000183983
0.000183985
0.000183987
0.000183986
0.000183989
0.00018399
0.00018399
0.000183993
0.000183993
0.000183994
0.000183995
0.000183995
0.000183997
0.000183997
0.000183996
0.000183997
0.000183996
0.000183996
0.000183995
0.000183994
0.000183993
0.000183992
0.000183991
0.00018399
0.000183989
0.000183987
0.000183987
0.000183985
0.000183985
0.000183983
0.000183982
0.000183982
0.000183981
0.000183981
0.000183981
0.000183981
0.000183982
0.000183982
0.000183982
0.000189588
0.000189587
0.000189589
0.00018959
0.00018959
0.000189593
0.000189593
0.000189595
0.000189597
0.000189597
0.000189599
0.0001896
0.0001896
0.000189602
0.000189601
0.000189602
0.000189602
0.000189602
0.000189601
0.000189601
0.000189601
0.000189599
0.000189599
0.000189597
0.000189596
0.000189595
0.000189594
0.000189593
0.000189591
0.000189591
0.000189588
0.000189588
0.000189587
0.000189586
0.000189586
0.000189586
0.000189585
0.000189586
0.000189586
0.000189586
0.000195037
0.000195035
0.000195038
0.000195038
0.000195039
0.000195041
0.000195041
0.000195043
0.000195045
0.000195045
0.000195047
0.000195049
0.000195049
0.000195051
0.000195051
0.000195052
0.000195052
0.000195052
0.000195052
0.000195052
0.000195052
0.000195051
0.00019505
0.000195049
0.000195048
0.000195047
0.000195045
0.000195044
0.000195042
0.000195042
0.00019504
0.000195039
0.000195038
0.000195037
0.000195036
0.000195036
0.000195035
0.000195035
0.000195035
0.000195035
0.000200275
0.000200273
0.000200275
0.000200275
0.000200276
0.000200278
0.000200278
0.00020028
0.000200281
0.000200282
0.000200284
0.000200286
0.000200286
0.000200288
0.000200289
0.00020029
0.000200291
0.000200291
0.000200291
0.000200292
0.000200292
0.000200291
0.000200291
0.00020029
0.000200289
0.000200288
0.000200286
0.000200286
0.000200283
0.000200283
0.00020028
0.00020028
0.000200278
0.000200277
0.000200276
0.000200275
0.000200274
0.000200274
0.000200274
0.000200273
0.000205192
0.00020519
0.000205192
0.000205191
0.000205192
0.000205193
0.000205194
0.000205195
0.000205197
0.000205198
0.000205199
0.000205201
0.000205202
0.000205205
0.000205205
0.000205207
0.000205208
0.000205209
0.000205209
0.00020521
0.00020521
0.00020521
0.000205211
0.00020521
0.000205209
0.000205209
0.000205207
0.000205207
0.000205204
0.000205204
0.000205201
0.000205201
0.000205199
0.000205197
0.000205196
0.000205195
0.000205193
0.000205193
0.000205192
0.00020519
0.00020966
0.000209656
0.000209659
0.000209657
0.000209657
0.000209658
0.000209658
0.000209659
0.000209661
0.000209662
0.000209663
0.000209665
0.000209665
0.000209669
0.000209669
0.000209671
0.000209673
0.000209674
0.000209675
0.000209677
0.000209677
0.000209678
0.000209679
0.000209678
0.000209678
0.000209678
0.000209677
0.000209677
0.000209674
0.000209675
0.000209671
0.000209671
0.000209669
0.000209668
0.000209666
0.000209665
0.000209663
0.000209661
0.000209661
0.000209658
0.000213515
0.000213509
0.000213512
0.000213509
0.000213509
0.000213509
0.000213509
0.000213509
0.00021351
0.000213511
0.000213511
0.000213514
0.000213514
0.000213517
0.000213518
0.00021352
0.000213522
0.000213524
0.000213524
0.000213528
0.000213528
0.000213529
0.000213531
0.000213531
0.000213532
0.000213532
0.000213531
0.000213532
0.000213529
0.000213531
0.000213527
0.000213528
0.000213526
0.000213524
0.000213522
0.000213521
0.000213519
0.000213517
0.000213517
0.000213512
0.000216554
0.000216546
0.00021655
0.000216545
0.000216545
0.000216544
0.000216543
0.000216543
0.000216543
0.000216544
0.000216543
0.000216546
0.000216544
0.000216548
0.000216548
0.000216551
0.000216552
0.000216555
0.000216555
0.00021656
0.000216559
0.000216561
0.000216564
0.000216564
0.000216566
0.000216567
0.000216566
0.000216569
0.000216566
0.000216569
0.000216566
0.000216567
0.000216565
0.000216564
0.000216562
0.000216561
0.000216559
0.000216556
0.000216557
0.00021655
0.000218528
0.000218518
0.000218523
0.000218516
0.000218516
0.000218514
0.000218512
0.000218512
0.000218509
0.000218512
0.000218508
0.000218512
0.000218508
0.000218512
0.000218511
0.000218514
0.000218514
0.000218519
0.000218516
0.000218523
0.000218522
0.000218524
0.000218528
0.000218527
0.00021853
0.000218533
0.000218532
0.000218536
0.000218534
0.000218537
0.000218536
0.000218537
0.000218536
0.000218536
0.000218533
0.000218533
0.000218532
0.000218527
0.000218531
0.000218522
0.000219126
0.000219115
0.000219121
0.000219112
0.000219114
0.000219111
0.000219107
0.000219109
0.000219102
0.000219107
0.000219099
0.000219104
0.000219099
0.000219102
0.0002191
0.000219103
0.000219099
0.000219107
0.0002191
0.000219109
0.000219108
0.000219108
0.000219115
0.000219113
0.000219117
0.00021912
0.00021912
0.000219124
0.000219124
0.000219127
0.000219127
0.000219129
0.000219128
0.00021913
0.000219128
0.000219128
0.00021913
0.000219122
0.00021913
0.000219118
0.00021797
0.000217957
0.000217967
0.000217955
0.000217959
0.000217956
0.000217949
0.000217955
0.000217943
0.000217951
0.00021794
0.000217946
0.000217938
0.000217942
0.000217936
0.000217942
0.000217933
0.000217945
0.000217933
0.000217942
0.000217943
0.000217938
0.000217948
0.000217944
0.000217948
0.000217952
0.000217952
0.000217955
0.000217958
0.000217959
0.000217961
0.000217964
0.000217962
0.000217968
0.000217966
0.000217965
0.000217973
0.000217961
0.000217973
0.000217961
0.000214597
0.000214581
0.000214597
0.000214582
0.000214587
0.000214588
0.000214575
0.00021459
0.000214569
0.000214583
0.000214569
0.000214575
0.000214566
0.000214572
0.00021456
0.000214572
0.000214554
0.000214571
0.000214557
0.000214561
0.000214567
0.000214555
0.000214568
0.000214562
0.000214565
0.000214567
0.00021457
0.000214569
0.000214576
0.000214575
0.000214577
0.000214584
0.000214578
0.000214586
0.000214588
0.000214582
0.000214596
0.000214582
0.000214596
0.000214585
0.000208447
0.000208424
0.00020845
0.000208432
0.000208434
0.000208447
0.00020842
0.00020845
0.00020842
0.00020844
0.000208424
0.000208432
0.000208419
0.000208431
0.00020841
0.00020843
0.000208407
0.000208422
0.000208414
0.000208407
0.000208422
0.000208401
0.000208417
0.000208408
0.000208413
0.000208409
0.000208418
0.000208409
0.000208419
0.000208419
0.000208415
0.000208428
0.000208419
0.000208426
0.000208433
0.000208422
0.00020844
0.000208427
0.00020844
0.000208429
0.00019885
0.000198816
0.000198847
0.000198836
0.000198823
0.00019886
0.000198811
0.000198858
0.000198821
0.000198844
0.000198828
0.00019884
0.000198821
0.000198844
0.000198814
0.000198838
0.000198819
0.000198822
0.00019883
0.000198806
0.000198833
0.000198805
0.000198823
0.000198811
0.000198819
0.000198808
0.000198822
0.000198809
0.000198815
0.000198821
0.000198808
0.000198826
0.000198816
0.000198819
0.000198829
0.000198816
0.000198833
0.000198822
0.000198837
0.000198819
0.000185004
0.00018497
0.000184986
0.000185003
0.000184957
0.000185024
0.000184957
0.000185012
0.000184977
0.000184996
0.000184983
0.000185
0.000184974
0.000185003
0.000184978
0.000184988
0.000184993
0.00018497
0.000185002
0.000184963
0.000184997
0.000184969
0.000184985
0.000184972
0.000184983
0.000184967
0.000184982
0.000184972
0.000184969
0.000184985
0.000184961
0.000184983
0.000184971
0.000184972
0.000184983
0.000184968
0.000184988
0.000184967
0.000184996
0.000184962
0.00016598
0.000165978
0.000165952
0.000166011
0.000165932
0.000166015
0.000165948
0.000165991
0.000165971
0.000165981
0.000165972
0.000165988
0.000165968
0.000165983
0.000165984
0.000165962
0.000166
0.000165954
0.000165999
0.00016596
0.000165988
0.000165968
0.00016598
0.000165969
0.00016598
0.000165967
0.000165975
0.000165977
0.000165958
0.000165988
0.000165954
0.00016598
0.000165969
0.000165962
0.000165984
0.000165953
0.000165989
0.000165952
0.000165989
0.000165957
0.000140793
0.000140839
0.000140776
0.00014085
0.000140776
0.000140836
0.0001408
0.000140813
0.000140816
0.000140807
0.000140815
0.000140809
0.000140818
0.000140799
0.000140833
0.000140787
0.000140836
0.000140794
0.000140825
0.000140803
0.000140819
0.000140807
0.000140815
0.00014081
0.000140812
0.000140815
0.000140804
0.000140827
0.000140792
0.00014083
0.0001408
0.000140811
0.000140823
0.000140791
0.000140835
0.000140789
0.000140827
0.000140804
0.00014081
0.000140821
0.000108599
0.000108651
0.000108607
0.000108643
0.000108617
0.000108627
0.000108636
0.00010861
0.000108646
0.000108605
0.000108644
0.000108608
0.00010864
0.000108608
0.00010864
0.00010861
0.000108633
0.000108617
0.000108627
0.000108618
0.000108625
0.000108624
0.000108615
0.000108635
0.000108608
0.000108638
0.000108609
0.000108637
0.000108614
0.000108628
0.000108631
0.000108609
0.000108647
0.000108604
0.000108641
0.000108622
0.000108616
0.000108649
0.000108597
0.000108658
6.95135e-05
6.95146e-05
6.95298e-05
6.9509e-05
6.95336e-05
6.95022e-05
6.95453e-05
6.94911e-05
6.95508e-05
6.94928e-05
6.95405e-05
6.95076e-05
6.9523e-05
6.95194e-05
6.95158e-05
6.95199e-05
6.95152e-05
6.95168e-05
6.95174e-05
6.95144e-05
6.9511e-05
6.95277e-05
6.94924e-05
6.95393e-05
6.94926e-05
6.95259e-05
6.95105e-05
6.95101e-05
6.95215e-05
6.95026e-05
6.95286e-05
6.94997e-05
6.95261e-05
6.95123e-05
6.95083e-05
6.95366e-05
6.9487e-05
6.95522e-05
6.94878e-05
6.95379e-05
3.1306e-05
3.12681e-05
3.13122e-05
3.12752e-05
3.13064e-05
3.12746e-05
3.1316e-05
3.12666e-05
3.13183e-05
3.12752e-05
3.13017e-05
3.12967e-05
3.12825e-05
3.13067e-05
3.12825e-05
3.12999e-05
3.12892e-05
3.12927e-05
3.12935e-05
3.12913e-05
3.12843e-05
3.13072e-05
3.1266e-05
3.13125e-05
3.12759e-05
3.12889e-05
3.12976e-05
3.12758e-05
3.12984e-05
3.12792e-05
3.1294e-05
3.12831e-05
3.12875e-05
3.12929e-05
3.12757e-05
3.13064e-05
3.12658e-05
3.13093e-05
3.12779e-05
3.12867e-05
8.11506e-06
8.08252e-06
8.10779e-06
8.09911e-06
8.09736e-06
8.09681e-06
8.11097e-06
8.08444e-06
8.11586e-06
8.09154e-06
8.10084e-06
8.11068e-06
8.08696e-06
8.11389e-06
8.09464e-06
8.10271e-06
8.10396e-06
8.09566e-06
8.10894e-06
8.09524e-06
8.09949e-06
8.11275e-06
8.08167e-06
8.11728e-06
8.09313e-06
8.09584e-06
8.10887e-06
8.09196e-06
8.10192e-06
8.09862e-06
8.10014e-06
8.09494e-06
8.10288e-06
8.09503e-06
8.09802e-06
8.10373e-06
8.08825e-06
8.10759e-06
8.09619e-06
8.09002e-06
1.09219e-06
1.07198e-06
1.07658e-06
1.09343e-06
1.06548e-06
1.08679e-06
1.08408e-06
1.06904e-06
1.09202e-06
1.07388e-06
1.07758e-06
1.09149e-06
1.06692e-06
1.08901e-06
1.08071e-06
1.07333e-06
1.09236e-06
1.06664e-06
1.09522e-06
1.07106e-06
1.07974e-06
1.09479e-06
1.06021e-06
1.09743e-06
1.07575e-06
1.07504e-06
1.08892e-06
1.07709e-06
1.07797e-06
1.08396e-06
1.08106e-06
1.07397e-06
1.08999e-06
1.0703e-06
1.08601e-06
1.08139e-06
1.07218e-06
1.08851e-06
1.07785e-06
1.07278e-06
1.00107e-07
7.80597e-08
7.78516e-08
1.04926e-07
6.88991e-08
9.37338e-08
8.81142e-08
7.46289e-08
9.69832e-08
7.94896e-08
7.96074e-08
9.94937e-08
7.14902e-08
9.15563e-08
9.02649e-08
7.19405e-08
1.05566e-07
6.76713e-08
1.0273e-07
7.93108e-08
7.70961e-08
1.12246e-07
6.27888e-08
1.03497e-07
8.46929e-08
7.63073e-08
9.75816e-08
8.16332e-08
8.11604e-08
8.96364e-08
8.56785e-08
7.71897e-08
9.61186e-08
7.36582e-08
9.03279e-08
8.79326e-08
7.55286e-08
9.38834e-08
8.4316e-08
7.65659e-08
3.74459e-08
5.52199e-09
3.30481e-09
4.49428e-08
4.86727e-09
2.19963e-08
1.32431e-08
6.7364e-09
2.74329e-08
6.08451e-09
3.85376e-09
3.45856e-08
4.60031e-09
1.5875e-08
2.07054e-08
6.2883e-09
4.16762e-08
4.53022e-09
3.13979e-08
1.22484e-08
4.26199e-09
5.97281e-08
4.61468e-09
2.98929e-08
2.1257e-08
4.47265e-09
3.74852e-08
5.2391e-09
7.79449e-09
1.40648e-08
9.04158e-09
3.89241e-09
1.84395e-08
8.17058e-10
1.12282e-08
1.60806e-08
6.00803e-09
1.64946e-08
1.51061e-08
6.75808e-09
4.09426e-08
5.09445e-09
3.41151e-09
4.91372e-08
3.32792e-09
2.41755e-08
1.09206e-08
6.37108e-09
2.92075e-08
4.45186e-09
4.55702e-09
3.27642e-08
4.39992e-09
1.03855e-08
2.55244e-08
8.62263e-09
4.13494e-08
5.15214e-09
2.1949e-08
1.60973e-08
6.20988e-09
6.23964e-08
4.47112e-09
2.21096e-08
2.56842e-08
3.71952e-09
3.78974e-08
3.04406e-09
9.77379e-09
1.13007e-08
7.56616e-09
5.15729e-09
1.35628e-08
4.48851e-09
6.79692e-09
2.09175e-08
6.08391e-09
1.25246e-08
1.83426e-08
5.3852e-09
4.64565e-08
5.27459e-09
5.33274e-09
4.8731e-08
3.16534e-09
2.84162e-08
1.04758e-08
6.04044e-09
3.08941e-08
5.10679e-09
7.35515e-09
2.8558e-08
5.08672e-09
8.21279e-09
3.28478e-08
1.01918e-08
3.40393e-08
6.6372e-09
6.93845e-09
3.37277e-08
8.32069e-09
6.27692e-08
3.68823e-09
1.5884e-08
3.24014e-08
4.8547e-09
3.24779e-08
4.50417e-09
1.19229e-08
1.06029e-08
1.14235e-08
3.05872e-09
1.18655e-08
7.19967e-09
6.21171e-09
2.55336e-08
6.0539e-09
7.40596e-09
2.64831e-08
4.03404e-09
4.57179e-08
9.2053e-09
9.48418e-09
4.6163e-08
3.24416e-09
3.67152e-08
9.54344e-09
5.78949e-09
2.83043e-08
7.14188e-09
1.19913e-08
2.29198e-08
7.83999e-09
8.58877e-09
3.62145e-08
1.1045e-08
2.00561e-08
1.88936e-08
5.1989e-09
5.34183e-08
9.11722e-09
5.26627e-08
3.3198e-09
1.12907e-08
4.10028e-08
5.84565e-09
2.37661e-08
7.27788e-09
1.56828e-08
7.89517e-09
2.16327e-08
9.36971e-10
1.2283e-08
9.18556e-09
5.9177e-09
2.7751e-08
6.28419e-09
5.46209e-09
3.43823e-08
2.96403e-09
3.68691e-08
1.67876e-08
1.71093e-08
3.43306e-08
3.78627e-09
3.73584e-08
1.36943e-08
5.84485e-09
2.51539e-08
7.56725e-09
1.97536e-08
1.41964e-08
1.70923e-08
7.73748e-09
3.61776e-08
9.01975e-09
9.68958e-09
4.00625e-08
6.29482e-09
6.38896e-08
7.42202e-09
3.29264e-08
1.1996e-08
1.15171e-08
4.1995e-08
6.67105e-09
1.10009e-08