/*--------------------------------*- C++ -*----------------------------------*\
  =========                 |
  \\      /  F ield         | OpenFOAM: The Open Source CFD Toolbox
   \\    /   O peration     | Website:  https://openfoam.org
    \\  /    A nd           | Version:  10
     \\/     M anipulation  |
\*---------------------------------------------------------------------------*/
FoamFile
{
    format      ascii;
    class       volScalarField;
    location    "0.04";
    object      pPrime2Mean;
}
// * * * * * * * * * * * * * * * * * * * * * * * * * * * * * * * * * * * * * //

dimensions      [0 4 -4 0 0 0 0];

internalField   nonuniform List<scalar> 
102400
(
2.77753e-06
4.17871e-06
1.40475e-05
8.59885e-06
4.472e-07
1.44891e-06
7.56923e-06
5.93177e-05
0.000257834
0.000144189
3.65313e-05
5.43198e-05
1.90134e-05
3.03452e-07
1.62789e-05
3.56262e-06
2.64657e-05
1.01573e-05
2.75545e-06
4.28619e-06
6.61024e-07
3.52611e-07
8.05996e-05
7.90956e-06
1.48494e-05
5.26496e-05
3.33156e-05
3.45063e-07
0.00013205
9.57456e-06
1.51896e-05
0.000104587
6.77128e-05
5.39237e-07
3.84286e-05
1.70663e-05
6.59572e-07
1.22033e-07
2.35375e-05
2.05811e-05
1.89891e-06
6.3874e-06
1.32582e-05
9.37097e-06
5.06668e-07
1.29558e-06
6.86053e-06
4.47048e-05
0.000217139
4.4561e-05
2.2129e-05
5.64289e-05
2.00135e-05
4.19429e-07
2.00704e-05
4.50807e-06
2.61147e-05
1.08193e-05
3.36601e-06
1.31752e-06
2.99211e-07
3.15027e-07
6.62285e-05
7.94068e-06
1.07342e-05
5.27316e-05
3.67192e-05
4.04985e-07
0.000115366
8.282e-06
1.0966e-05
0.000103429
5.70347e-05
5.98021e-07
3.71227e-05
1.78192e-05
4.05475e-07
4.37893e-07
2.40989e-05
1.49648e-05
1.59287e-06
8.56689e-06
1.40646e-05
8.5813e-06
6.48673e-06
1.87322e-06
6.66976e-06
3.4596e-05
0.000201822
3.64508e-05
1.55214e-05
5.56953e-05
2.04271e-05
4.13484e-07
2.00517e-05
4.17581e-06
2.82893e-05
1.05219e-05
2.62377e-06
6.68956e-09
7.99479e-07
1.87764e-07
6.06373e-05
8.32576e-06
8.64804e-06
5.05603e-05
3.85792e-05
4.57545e-07
0.000101945
8.47293e-06
7.39986e-06
0.00010376
5.06886e-05
6.14117e-07
4.26393e-05
1.70271e-05
6.39703e-07
2.58793e-07
2.29418e-05
1.28715e-05
1.34528e-06
1.18899e-05
1.45732e-05
1.04238e-05
1.79469e-06
1.52294e-06
6.54237e-06
2.61556e-05
0.000189033
3.12345e-05
8.58112e-06
5.53184e-05
2.21212e-05
5.70028e-07
2.07702e-05
3.95692e-06
2.92353e-05
1.0301e-05
2.3083e-06
2.52456e-09
9.65705e-07
5.71759e-08
5.36304e-05
8.24068e-06
5.98121e-06
4.59521e-05
4.35917e-05
5.53951e-07
9.02439e-05
7.9762e-06
4.94532e-06
0.000105716
4.31128e-05
3.89408e-07
5.01271e-05
1.59e-05
1.00692e-06
1.82723e-07
1.90993e-05
1.00777e-05
8.18921e-07
1.33261e-05
1.42219e-05
1.08383e-05
6.17813e-07
1.47926e-06
6.28236e-06
1.94743e-05
0.000163229
2.69964e-05
4.49797e-06
5.87147e-05
2.5453e-05
3.67326e-07
2.31657e-05
3.40073e-06
2.57477e-05
9.76364e-06
1.59868e-06
2.28653e-08
1.48361e-06
7.55892e-09
4.58772e-05
9.82589e-06
5.27826e-06
4.16256e-05
4.94111e-05
5.43027e-07
8.23505e-05
8.18701e-06
3.78322e-06
0.000111393
3.5603e-05
2.79556e-07
6.26384e-05
1.48637e-05
2.48514e-06
9.13752e-08
1.24893e-05
9.00895e-06
6.52582e-07
1.14575e-05
1.36972e-05
1.14775e-05
1.28939e-06
1.37283e-06
6.31733e-06
1.37055e-05
0.00013293
1.6209e-05
1.36759e-06
6.31742e-05
2.78776e-05
3.25014e-07
2.23127e-05
2.49815e-06
2.05733e-05
8.90561e-06
1.1266e-06
1.59126e-08
1.76094e-06
7.10407e-07
3.77783e-05
1.17562e-05
5.63275e-06
4.0593e-05
4.79697e-05
3.49923e-07
7.87778e-05
8.77084e-06
2.73434e-06
0.000123457
2.99906e-05
6.73633e-08
6.73733e-05
1.40836e-05
3.12074e-06
1.11275e-07
7.07078e-06
6.51228e-06
5.23367e-07
9.13753e-06
1.27213e-05
9.46798e-06
1.0927e-06
1.55881e-06
7.33848e-06
8.6368e-06
0.000101934
7.93331e-06
1.77422e-08
6.34962e-05
2.74769e-05
2.15498e-07
1.83533e-05
1.07953e-06
1.06963e-05
7.26782e-06
1.93781e-06
5.36128e-09
1.60749e-06
1.37732e-06
3.12569e-05
9.79713e-06
4.9884e-06
4.16425e-05
4.19547e-05
1.76065e-07
6.8113e-05
8.2489e-06
1.41044e-06
0.000130896
2.25523e-05
8.36369e-08
6.53751e-05
1.39162e-05
3.11927e-06
7.41948e-08
4.29842e-06
3.89743e-06
2.06841e-07
7.89413e-06
1.21313e-05
6.99759e-06
1.03983e-06
1.4475e-06
7.37695e-06
4.15521e-06
7.35013e-05
2.50115e-06
4.49345e-07
5.54793e-05
2.62132e-05
3.43324e-07
1.43689e-05
2.35203e-07
4.44895e-06
5.75731e-06
2.20439e-06
3.32099e-08
1.52192e-06
9.7881e-07
2.44398e-05
4.52472e-06
3.15473e-06
4.10111e-05
3.20114e-05
4.08934e-08
5.72336e-05
9.44094e-06
2.50492e-08
0.000132089
1.86136e-05
2.71793e-07
5.57312e-05
1.34401e-05
2.49788e-06
5.66951e-08
3.22974e-06
2.73813e-06
1.14311e-07
7.10685e-06
1.12412e-05
2.49581e-06
7.76199e-06
9.65979e-07
8.23799e-06
2.0527e-06
5.09014e-05
1.15099e-08
8.48721e-07
4.57541e-05
2.54093e-05
9.76528e-07
8.43516e-06
9.2705e-09
2.80936e-06
4.86649e-06
1.94692e-06
7.71194e-07
1.20671e-06
3.76634e-07
1.85173e-05
1.87025e-06
1.30375e-06
3.60454e-05
1.79857e-05
1.44433e-08
4.91527e-05
1.06479e-05
1.8517e-06
0.000122904
1.33647e-05
1.07785e-06
4.8559e-05
1.01152e-05
1.97593e-06
9.33717e-09
2.57497e-06
2.73626e-06
8.95553e-07
6.3316e-06
1.0598e-05
1.20541e-06
1.16149e-05
4.85381e-07
7.56476e-06
1.27886e-06
3.42574e-05
2.65531e-07
8.15768e-07
4.01289e-05
2.33319e-05
1.65483e-06
3.40643e-06
4.7794e-07
3.89562e-06
4.41979e-06
1.06534e-06
3.06049e-06
5.31268e-07
9.52266e-08
1.57743e-05
1.29323e-06
1.55059e-06
3.23101e-05
1.16349e-05
1.69227e-07
4.1039e-05
1.28244e-05
5.68977e-06
0.000105765
7.79431e-06
2.02586e-06
3.69335e-05
7.37156e-06
2.32823e-06
5.02479e-09
1.87333e-06
3.28995e-06
3.1251e-06
5.03162e-06
8.37394e-06
7.99008e-07
3.2536e-06
5.19938e-08
6.71446e-06
7.2052e-07
2.33169e-05
7.18005e-07
7.42201e-07
3.33608e-05
1.94608e-05
3.04119e-06
4.99686e-07
1.17455e-06
4.12014e-06
4.21789e-06
4.78874e-07
1.84259e-06
1.39873e-07
1.27998e-09
1.24319e-05
1.19333e-06
1.60988e-06
2.91575e-05
9.25042e-06
4.23488e-07
3.48548e-05
1.45845e-05
1.16422e-05
9.67193e-05
4.43799e-06
3.38087e-06
2.30029e-05
6.24551e-06
2.65822e-06
1.45643e-08
1.60934e-06
3.13694e-06
9.25555e-06
3.43166e-06
6.87388e-06
5.74325e-07
7.66403e-07
3.63528e-08
5.78954e-06
2.24835e-07
1.33087e-05
2.18589e-06
1.02231e-06
2.86877e-05
1.60466e-05
4.10725e-06
1.05654e-07
2.03934e-06
4.27297e-06
3.85021e-06
3.0828e-07
5.81225e-07
3.88746e-09
7.4497e-08
8.32047e-06
8.53509e-07
9.81099e-07
2.66482e-05
9.07629e-06
4.76118e-07
2.82274e-05
1.50802e-05
2.00883e-05
8.70599e-05
3.11607e-06
4.80837e-06
1.23973e-05
5.51627e-06
2.71855e-06
3.58029e-08
1.632e-06
2.68116e-06
1.71109e-05
2.05119e-06
5.42694e-06
4.45238e-07
4.40767e-08
2.40633e-07
5.18092e-06
2.28817e-08
7.41088e-06
1.88615e-06
1.41538e-06
2.48906e-05
1.31368e-05
4.98731e-06
1.6901e-06
3.2029e-06
4.44258e-06
3.46766e-06
2.70436e-07
9.33677e-07
3.97228e-08
2.4846e-07
5.68881e-06
5.65759e-07
4.5515e-07
2.39905e-05
9.02164e-06
4.65573e-07
2.18965e-05
1.59191e-05
3.03193e-05
7.92974e-05
2.00229e-06
6.16139e-06
2.72705e-05
4.14295e-06
2.62455e-06
1.06451e-07
1.43876e-06
2.37002e-06
2.34362e-05
8.60424e-07
4.01689e-06
4.08534e-07
5.22119e-07
4.69372e-07
4.71051e-06
1.46095e-08
4.37143e-06
2.17335e-06
1.63306e-06
2.14348e-05
1.19663e-05
5.96779e-06
3.83972e-06
4.26418e-06
4.56209e-06
3.20038e-06
2.87789e-07
1.04719e-06
1.26385e-07
3.98224e-07
3.35796e-06
3.66971e-07
5.50785e-08
2.16116e-05
8.49643e-06
4.58405e-07
1.77141e-05
1.68041e-05
3.90668e-05
7.196e-05
1.02013e-06
7.17049e-06
6.00064e-05
2.81039e-06
2.50613e-06
2.42417e-07
1.21224e-06
2.34187e-06
3.00394e-05
1.8345e-07
2.84402e-06
3.16352e-07
4.39592e-07
6.83099e-07
4.18527e-06
6.54325e-08
2.68547e-06
1.25038e-06
1.66419e-06
1.80896e-05
1.23052e-05
7.30738e-06
5.04777e-06
5.21395e-06
4.41853e-06
3.04524e-06
4.35181e-07
4.5284e-07
1.88231e-07
4.74383e-07
1.36407e-06
2.27886e-07
9.54166e-08
1.95201e-05
7.11743e-06
2.75798e-07
1.55974e-05
1.70311e-05
4.38424e-05
6.53451e-05
3.99917e-07
8.50544e-06
3.93821e-05
2.33863e-06
2.38323e-06
3.84166e-07
1.05991e-06
2.55077e-06
4.12716e-05
6.17316e-09
1.92645e-06
2.08163e-07
1.92258e-08
7.98793e-07
3.55653e-06
8.82936e-08
1.66843e-06
8.84975e-08
1.8334e-06
1.56988e-05
1.19459e-05
8.25086e-06
6.60248e-06
5.91542e-06
4.15211e-06
2.96074e-06
7.26052e-07
2.21797e-09
1.90565e-07
5.71597e-07
4.908e-07
1.78326e-07
4.33794e-07
1.73769e-05
6.94424e-06
8.72697e-11
1.34725e-05
1.4515e-05
4.88453e-05
5.98469e-05
1.11763e-07
8.95901e-06
4.18755e-05
1.58894e-06
2.16403e-06
5.00868e-07
1.02116e-06
2.52958e-06
4.12769e-05
1.99531e-08
1.30046e-06
1.03209e-07
3.84186e-08
8.94368e-07
3.03661e-06
2.78488e-07
6.57515e-07
2.57942e-07
2.86481e-06
1.46132e-05
1.06621e-05
8.4346e-06
8.70292e-06
6.53019e-06
4.02758e-06
2.96294e-06
1.13025e-06
1.17786e-06
1.00093e-07
6.18493e-07
3.14333e-07
2.07853e-07
4.49028e-07
1.51278e-05
7.20586e-06
1.40676e-06
1.14714e-05
8.4431e-06
5.46468e-05
5.45385e-05
9.63832e-08
9.18078e-06
4.87017e-05
1.085e-06
1.92633e-06
5.2896e-07
9.58254e-07
1.67484e-06
2.11753e-05
2.06149e-07
9.27291e-07
3.45699e-08
2.23484e-07
1.10388e-06
2.89608e-06
1.01178e-06
2.31107e-08
1.14429e-06
5.17983e-06
1.40019e-05
1.1646e-05
8.79714e-06
8.05692e-06
6.86711e-06
4.15818e-06
2.95764e-06
1.53063e-06
2.44901e-06
2.38568e-08
5.08183e-07
2.41552e-07
2.31638e-07
4.24294e-07
1.38898e-05
7.47135e-06
1.81386e-06
1.08204e-05
9.16819e-06
5.7071e-05
4.86029e-05
1.90558e-07
9.67601e-06
2.57368e-05
1.0358e-06
1.75953e-06
5.27883e-07
8.42896e-07
9.25384e-07
1.21181e-05
2.981e-07
6.07484e-07
1.96681e-08
3.20368e-07
1.11691e-06
2.89679e-06
2.02952e-06
9.86342e-08
1.10742e-06
7.34184e-06
1.32555e-05
1.5609e-05
9.31369e-06
5.45027e-06
6.73642e-06
4.13502e-06
2.85491e-06
1.71994e-06
1.01049e-06
9.56588e-09
3.54934e-07
4.26197e-08
1.95118e-07
9.22237e-07
1.38703e-05
7.79875e-06
1.07816e-07
1.18907e-05
1.69924e-05
5.43171e-05
4.26888e-05
1.65637e-07
9.1881e-06
1.19753e-05
8.75227e-07
1.48619e-06
6.00964e-07
8.42923e-07
8.40527e-07
1.20668e-05
3.34336e-07
3.5308e-07
5.20786e-09
1.16083e-07
1.07058e-06
2.68023e-06
2.81201e-06
3.82097e-07
8.24223e-07
8.34088e-06
1.21403e-05
1.81158e-05
9.91345e-06
4.00589e-06
6.2961e-06
3.80179e-06
2.73797e-06
1.79721e-06
7.65312e-08
1.38507e-08
2.76836e-07
2.03251e-08
1.51773e-07
1.82639e-06
1.46702e-05
8.93203e-06
1.98737e-07
1.3186e-05
2.36626e-05
4.94384e-05
3.74569e-05
8.30806e-08
8.2601e-06
3.83248e-06
6.9226e-07
1.10189e-06
6.10874e-07
9.35281e-07
7.67052e-07
1.50911e-05
4.27316e-07
2.26505e-07
1.07643e-08
3.70649e-08
1.12339e-06
2.07364e-06
3.2112e-06
7.06656e-07
1.63158e-06
8.49111e-06
1.09127e-05
1.47587e-05
9.9849e-06
5.37082e-06
5.92423e-06
3.56884e-06
2.62392e-06
1.76215e-06
2.08809e-08
1.02123e-08
2.59675e-07
5.91111e-08
1.84201e-07
2.17865e-06
1.51717e-05
1.09056e-05
4.5352e-07
1.20499e-05
2.64156e-05
4.91451e-05
3.28513e-05
5.8359e-08
8.07069e-06
1.13306e-07
5.26423e-07
7.14804e-07
5.09207e-07
9.95519e-07
6.00511e-07
1.5581e-05
2.53911e-07
1.07066e-07
5.24471e-08
2.20277e-07
1.18352e-06
1.33694e-06
1.53266e-06
2.96258e-07
8.37619e-07
5.67655e-06
9.52026e-06
8.5064e-06
9.22078e-06
9.64483e-06
6.05452e-06
3.45002e-06
2.75529e-06
1.65135e-06
4.15397e-07
1.8037e-09
1.85598e-07
2.73828e-10
2.72472e-07
1.66123e-06
1.50426e-05
1.18931e-05
1.35541e-07
1.027e-05
2.38382e-05
5.104e-05
2.85259e-05
2.12593e-07
8.1962e-06
8.24967e-06
9.58213e-08
4.72435e-07
3.37432e-07
8.69322e-07
7.26102e-07
1.93733e-05
8.61836e-11
2.61838e-08
4.25278e-08
2.51371e-07
8.03219e-07
7.69119e-07
3.03395e-07
1.59036e-09
2.17516e-07
3.14692e-06
7.58306e-06
5.37316e-06
8.30304e-06
1.26681e-05
6.57736e-06
3.47422e-06
2.7205e-06
1.45086e-06
4.77717e-07
3.66933e-09
8.51936e-08
2.64107e-09
3.13796e-07
1.75838e-06
1.38675e-05
9.10724e-06
2.23088e-07
9.91769e-06
1.8059e-05
5.14087e-05
2.49795e-05
1.08244e-06
8.0932e-06
4.60266e-05
6.89703e-08
2.34679e-07
2.40404e-07
7.23583e-07
1.331e-06
2.31105e-05
7.04341e-08
1.48659e-09
2.29482e-08
3.09462e-08
3.5581e-07
5.29237e-07
7.75142e-08
3.5297e-09
5.79389e-07
2.89725e-06
6.02112e-06
5.83835e-06
7.58172e-06
1.07389e-05
6.68633e-06
3.40408e-06
2.48798e-06
1.29752e-06
1.45627e-07
3.30605e-09
2.42351e-08
3.53942e-08
3.37579e-07
1.93621e-06
1.27857e-05
8.14913e-06
1.3034e-07
1.04763e-05
1.88381e-05
4.71377e-05
2.1851e-05
1.22868e-06
7.53105e-06
2.3631e-05
9.23984e-08
6.94391e-08
1.91167e-07
5.60398e-07
1.40268e-06
1.97954e-05
3.01815e-08
2.96942e-09
5.25808e-08
4.08849e-08
3.01768e-07
3.32478e-07
3.70771e-09
3.65875e-08
2.87547e-07
2.35741e-06
4.5547e-06
5.76968e-06
7.33268e-06
8.41629e-06
6.16469e-06
3.03222e-06
2.30393e-06
1.34587e-06
1.35353e-07
1.25544e-09
2.20103e-11
1.61805e-07
4.07323e-07
1.63268e-06
1.29174e-05
9.32504e-06
3.25419e-08
1.10172e-05
2.17581e-05
4.08147e-05
1.90572e-05
1.24953e-06
6.01911e-06
9.89909e-06
4.31023e-08
3.77558e-09
5.18092e-08
5.36494e-07
1.18737e-06
1.69816e-05
3.93852e-13
6.82214e-09
1.31302e-07
3.40511e-07
2.89574e-07
1.32494e-07
1.43277e-09
4.53669e-08
1.86727e-07
1.75173e-06
3.54133e-06
3.81501e-06
6.49981e-06
8.59159e-06
5.59375e-06
2.7363e-06
2.20746e-06
1.4193e-06
4.81206e-07
3.94827e-08
7.4683e-09
9.69773e-08
5.12441e-07
2.01041e-06
1.17802e-05
1.12046e-05
4.80274e-07
1.00795e-05
1.57923e-05
3.78055e-05
1.64175e-05
1.74036e-06
4.69889e-06
6.54998e-06
4.33434e-08
2.31886e-08
2.74869e-11
4.90607e-07
1.10133e-06
1.79722e-05
1.16405e-08
1.80888e-10
9.93672e-08
8.9693e-08
1.23516e-07
1.87151e-08
4.43027e-09
1.35779e-10
7.18355e-07
2.19333e-06
3.06211e-06
2.60096e-06
5.28848e-06
8.63137e-06
5.19656e-06
2.38333e-06
2.08652e-06
1.55087e-06
1.39855e-06
1.82039e-07
3.42783e-08
2.22607e-07
7.04427e-07
1.88216e-06
1.05473e-05
1.02755e-05
4.73803e-06
1.0176e-05
7.69208e-06
3.35286e-05
1.32788e-05
3.06416e-06
4.16526e-06
3.93432e-06
9.40793e-08
1.23425e-07
3.13797e-08
2.52457e-07
7.50915e-07
2.18967e-05
1.70851e-08
1.58586e-10
3.2896e-08
1.51098e-07
9.34147e-09
7.11887e-09
2.35184e-08
1.90993e-08
9.73989e-07
2.48659e-06
2.65713e-06
3.02349e-06
4.24116e-06
6.03165e-06
4.48533e-06
2.11197e-06
1.76232e-06
1.53613e-06
1.32798e-06
2.48195e-07
7.21068e-08
4.84799e-07
9.40277e-07
1.99069e-06
1.31935e-05
1.12233e-05
1.44674e-06
1.0525e-05
9.50214e-06
2.96764e-05
1.05682e-05
5.56323e-06
4.16476e-06
2.27538e-05
6.49329e-07
2.99413e-07
9.17594e-08
7.03724e-08
1.17913e-06
1.94904e-05
1.73524e-07
3.64882e-09
1.4649e-09
4.89929e-09
2.98895e-08
9.65282e-08
3.56702e-07
3.73236e-07
3.35505e-07
1.37624e-06
1.96364e-06
4.04946e-06
3.50709e-06
3.11988e-06
3.55898e-06
1.82077e-06
1.48351e-06
1.31415e-06
5.072e-07
2.01064e-07
1.3411e-07
4.07043e-07
1.11734e-06
3.18089e-06
1.45143e-05
8.45093e-06
1.00477e-08
1.12155e-05
1.39164e-05
2.52426e-05
8.47214e-06
7.44978e-06
3.3998e-06
3.21583e-05
1.06272e-06
5.00649e-07
1.90666e-07
1.06733e-08
2.4002e-06
2.77159e-05
6.03593e-08
4.15362e-09
6.68753e-10
1.56107e-07
9.711e-08
2.82191e-07
5.20063e-07
4.68093e-07
2.57383e-07
8.70052e-07
9.84765e-07
2.31741e-06
3.05168e-06
3.19787e-06
3.31335e-06
1.49437e-06
1.32776e-06
1.12587e-06
1.18189e-07
1.58359e-07
2.39172e-07
4.91204e-07
1.27104e-06
3.58469e-06
1.57043e-05
1.0138e-05
1.92743e-06
8.2779e-06
1.75699e-05
2.25439e-05
7.07841e-06
7.18146e-06
2.38761e-06
1.28982e-05
6.17199e-07
5.61219e-07
3.62679e-07
4.25478e-09
2.28469e-06
3.69015e-05
4.71419e-08
5.22364e-08
7.36789e-09
1.11785e-07
1.63092e-07
8.30682e-07
1.18499e-06
9.76396e-07
2.43529e-07
2.68585e-07
3.14484e-07
7.64302e-08
2.16775e-06
7.16059e-06
3.59274e-06
1.35435e-06
1.28015e-06
1.10989e-06
4.09395e-07
3.0112e-07
3.23798e-07
8.67511e-07
1.40744e-06
2.99581e-06
1.35925e-05
1.12095e-05
3.50089e-08
5.42784e-06
7.5986e-06
2.44036e-05
5.77959e-06
8.02361e-06
1.67076e-06
1.79408e-05
7.04745e-07
6.89468e-07
4.79065e-07
1.70823e-10
1.93081e-06
5.4307e-05
1.89121e-07
1.19873e-07
1.16148e-07
2.55115e-07
4.5796e-07
1.42312e-06
1.51455e-06
9.51439e-07
1.17171e-06
7.54857e-07
4.17925e-07
8.0602e-07
1.75644e-06
3.2337e-06
2.69321e-06
9.73644e-07
1.21647e-06
1.52766e-06
2.32877e-06
9.44789e-07
4.39717e-07
7.97086e-07
1.41592e-06
2.75452e-06
9.89494e-06
1.22673e-05
1.90613e-05
9.39509e-06
4.78506e-07
1.5412e-05
3.56564e-06
1.2184e-05
6.81482e-07
1.24673e-05
4.90151e-07
8.27704e-07
6.84288e-07
6.06484e-08
1.0786e-06
4.43086e-06
2.03634e-06
7.84237e-06
6.72598e-07
1.51603e-06
2.70787e-06
1.0641e-05
3.21427e-05
0.000176476
5.17413e-05
1.54275e-05
7.89432e-05
2.61997e-05
2.50556e-06
2.07031e-06
8.33231e-07
1.0597e-08
2.03582e-06
3.55847e-07
1.40672e-05
1.85747e-08
4.99533e-06
9.32431e-05
1.03124e-05
4.22873e-05
3.97706e-05
1.40366e-05
7.18028e-06
0.000129678
3.76225e-05
2.00401e-05
4.20784e-05
0.00010171
1.36062e-05
0.000213472
9.03951e-06
4.58178e-06
3.17146e-07
8.26666e-06
1.29936e-05
1.02157e-06
3.49617e-06
7.23014e-06
1.16083e-06
4.52873e-06
2.09295e-06
1.01655e-05
2.12142e-05
0.000145331
6.52169e-06
6.77083e-06
8.20784e-05
2.98986e-05
3.04522e-06
3.67815e-06
1.06573e-06
1.2222e-08
2.16335e-06
5.44773e-07
2.33321e-06
2.81952e-07
5.41922e-06
7.65934e-05
1.01842e-05
3.3325e-05
4.04486e-05
1.52285e-05
7.00423e-06
0.000114418
3.59072e-05
1.48839e-05
4.05653e-05
8.57563e-05
1.36934e-05
0.000185355
9.53792e-06
3.95663e-06
1.01329e-07
8.9079e-06
9.27641e-06
1.62353e-07
3.90345e-06
7.81499e-06
7.33073e-07
8.96384e-07
2.88178e-06
1.07532e-05
1.56109e-05
0.00013162
1.93019e-06
3.86797e-06
8.00093e-05
3.64315e-05
3.86665e-06
5.76673e-06
9.55988e-07
4.98544e-11
2.13608e-06
1.60762e-07
1.7396e-05
1.22936e-07
5.79048e-06
6.63621e-05
9.7194e-06
2.66571e-05
4.13672e-05
1.32609e-05
7.11532e-06
0.000106651
3.84674e-05
1.09542e-05
4.07578e-05
7.49184e-05
1.44096e-05
0.000148216
8.10854e-06
4.17985e-06
2.66555e-07
1.0168e-05
1.00576e-05
1.23253e-07
3.98376e-06
7.36952e-06
9.29948e-07
4.58685e-06
2.8834e-06
1.31385e-05
1.1401e-05
0.000119633
1.19013e-07
1.51346e-06
8.20812e-05
4.31768e-05
5.46543e-06
7.93464e-06
7.7332e-07
4.73206e-10
2.18004e-06
2.78733e-09
1.26754e-05
3.56755e-07
5.04071e-06
5.67453e-05
7.82409e-06
2.21108e-05
4.13937e-05
1.16293e-05
7.61705e-06
9.93278e-05
3.978e-05
7.2781e-06
4.30116e-05
6.46065e-05
1.49792e-05
0.000118725
6.94877e-06
3.0384e-06
1.9576e-07
1.14586e-05
1.04375e-05
1.25858e-06
5.31816e-06
7.12066e-06
8.17294e-07
8.52384e-06
2.58966e-06
1.81209e-05
6.16199e-06
0.000105358
5.95781e-07
2.82669e-13
9.04782e-05
4.56543e-05
7.84094e-06
7.90929e-06
8.6315e-07
3.88087e-09
2.85854e-06
7.05932e-07
6.90907e-06
2.23715e-07
3.1715e-06
4.94642e-05
4.21044e-06
2.13441e-05
3.92462e-05
1.074e-05
8.1953e-06
9.02149e-05
3.73787e-05
2.76409e-06
5.04376e-05
5.49082e-05
1.51431e-05
0.000102546
5.24827e-06
1.75966e-06
1.2787e-07
1.34496e-05
9.69779e-06
8.45104e-07
5.58216e-06
6.76509e-06
3.82911e-07
9.78844e-06
1.62024e-06
2.20423e-05
2.22358e-06
9.05506e-05
3.50539e-06
1.79066e-06
0.000101967
4.92378e-05
8.01239e-06
8.3371e-06
4.51264e-07
9.87568e-08
2.70663e-06
2.674e-06
7.43654e-06
5.90689e-09
2.26723e-06
4.22954e-05
2.96013e-06
1.7629e-05
3.23177e-05
9.7617e-06
8.78267e-06
8.27668e-05
3.48483e-05
6.3572e-08
5.76329e-05
4.57797e-05
1.53974e-05
8.90262e-05
3.38766e-06
1.4207e-06
1.62777e-07
1.65913e-05
7.3377e-06
3.29603e-08
5.95421e-06
6.40726e-06
8.31563e-07
1.83814e-06
2.48477e-07
1.78363e-05
3.35329e-07
6.84432e-05
6.35141e-06
5.01136e-06
9.99916e-05
5.93794e-05
6.94924e-06
1.11615e-05
2.57105e-07
9.90766e-08
2.83893e-06
3.40358e-06
9.51362e-06
1.7019e-07
1.77861e-06
3.36535e-05
3.2244e-06
1.2166e-05
2.6733e-05
8.11225e-06
9.95183e-06
7.19388e-05
3.28758e-05
6.66125e-07
6.04649e-05
3.59137e-05
1.41346e-05
7.30312e-05
3.24678e-06
1.10708e-06
2.24653e-07
1.51744e-05
5.33025e-06
1.21937e-07
9.02881e-06
6.25998e-06
8.6612e-07
9.37034e-07
1.74887e-07
1.20262e-05
1.54241e-07
4.39771e-05
1.31985e-05
1.04404e-05
8.81981e-05
7.66362e-05
5.94335e-06
1.88263e-05
5.12591e-07
4.67e-08
2.56549e-06
3.283e-06
1.97622e-05
2.62778e-07
7.77718e-07
2.40801e-05
3.90316e-06
7.14788e-06
2.52888e-05
8.72008e-06
1.24942e-05
6.57693e-05
3.72482e-05
1.91473e-06
5.91555e-05
2.77481e-05
1.34177e-05
5.26319e-05
3.90869e-06
8.87054e-07
3.52626e-07
1.14107e-05
3.11067e-06
5.56388e-07
1.11845e-05
7.19167e-06
5.45596e-07
1.07224e-05
2.35841e-07
8.97405e-06
1.17836e-06
2.44452e-05
6.99001e-06
1.50466e-05
7.27715e-05
8.83189e-05
4.60187e-06
2.22959e-05
1.81795e-07
3.18177e-07
2.0365e-06
1.73243e-06
2.99904e-06
7.49499e-08
2.74953e-07
1.6403e-05
3.2919e-06
3.51276e-06
2.60485e-05
1.02515e-05
1.71086e-05
6.09851e-05
4.35807e-05
1.08057e-06
5.57761e-05
1.81206e-05
1.03827e-05
3.43967e-05
3.86591e-06
1.11758e-06
6.63039e-07
9.2488e-06
1.98747e-06
1.13477e-07
1.05807e-05
6.67314e-06
1.91811e-07
5.00584e-06
1.86392e-09
7.28331e-06
1.35639e-06
1.57509e-05
2.26583e-06
1.21283e-05
6.14908e-05
6.35467e-05
4.31993e-06
1.04382e-05
1.22566e-09
1.07745e-06
1.89038e-06
3.07712e-07
2.33335e-05
3.8067e-09
9.77608e-09
1.13163e-05
2.14073e-06
1.89131e-06
2.56756e-05
1.28279e-05
2.28266e-05
4.59781e-05
4.70136e-05
1.52861e-06
5.85199e-05
7.84428e-06
9.26317e-06
3.56864e-05
4.2375e-06
1.28256e-06
6.03057e-07
5.93031e-06
1.60256e-06
1.63816e-07
8.03031e-06
5.68582e-06
6.93576e-08
5.34117e-07
2.04759e-07
5.83121e-06
7.8152e-07
1.08081e-05
1.01718e-05
7.82682e-06
4.9365e-05
3.57209e-05
5.06438e-06
9.32777e-07
2.10194e-07
1.6207e-06
2.11617e-06
5.88967e-10
4.13019e-05
4.18325e-08
1.61322e-07
8.27783e-06
1.06341e-06
1.1627e-06
2.49331e-05
1.47541e-05
2.42442e-05
2.7025e-05
4.97723e-05
6.11084e-06
6.2726e-05
2.05216e-06
8.97577e-06
5.68785e-05
4.05032e-06
1.65033e-06
4.40187e-07
4.10367e-06
1.47261e-06
2.35958e-07
4.53205e-06
5.12617e-06
1.14342e-08
2.22206e-07
3.4095e-07
5.11457e-06
2.85493e-08
7.33451e-06
2.32394e-06
4.80775e-06
3.87283e-05
2.49396e-05
6.06891e-06
1.15014e-07
8.01757e-07
2.22309e-06
2.4755e-06
8.89604e-08
7.72535e-06
8.41186e-09
2.49776e-07
4.52318e-06
6.10104e-07
1.80767e-07
2.35126e-05
1.66493e-05
2.32636e-05
1.77916e-05
5.32079e-05
1.11101e-05
6.47375e-05
5.25616e-07
9.24068e-06
6.48855e-05
3.34537e-06
2.24426e-06
6.42658e-07
2.84931e-06
1.88376e-06
4.0617e-07
9.98895e-07
4.1025e-06
4.17354e-08
3.69177e-08
5.46015e-07
4.98763e-06
9.60442e-08
6.11797e-06
9.66814e-07
2.39845e-06
3.00884e-05
2.66184e-05
7.41942e-06
3.0355e-07
1.70149e-06
2.75913e-06
2.78581e-06
3.37993e-07
4.60388e-06
3.75433e-08
2.98568e-07
2.33697e-06
3.46207e-07
1.0903e-09
2.23328e-05
1.767e-05
2.49778e-05
1.62724e-05
5.84252e-05
1.23164e-05
6.36012e-05
8.14977e-10
9.43889e-06
4.2309e-05
3.08113e-06
2.67208e-06
8.63341e-07
1.95758e-06
4.3152e-06
4.06675e-07
4.25248e-08
2.85079e-06
9.81338e-08
8.59029e-08
6.21694e-07
4.74155e-06
7.50044e-09
5.39371e-06
1.02863e-05
1.23206e-06
2.40552e-05
1.9909e-05
8.12159e-06
2.09099e-06
3.16756e-06
3.27261e-06
2.93435e-06
6.65632e-07
1.98232e-05
1.76048e-07
3.42392e-07
1.506e-06
1.74107e-07
8.5395e-09
2.18368e-05
1.6078e-05
2.81566e-05
1.24974e-05
6.17626e-05
1.79489e-05
6.05166e-05
1.23739e-06
9.96536e-06
1.59284e-05
3.31619e-06
2.92937e-06
9.9402e-07
1.22867e-06
6.28392e-06
1.14869e-07
1.34075e-07
1.99583e-06
8.85215e-08
2.39014e-06
5.99786e-07
4.08893e-06
1.7044e-07
3.52178e-06
1.42873e-05
1.38665e-06
1.98893e-05
7.24742e-06
8.12781e-06
1.13232e-05
4.86526e-06
3.62951e-06
2.97272e-06
9.32647e-07
3.12757e-05
2.4349e-07
3.85526e-07
6.72485e-07
7.02655e-08
1.1358e-07
2.05324e-05
1.45524e-05
2.58335e-05
4.50111e-06
5.81651e-05
3.52625e-05
5.78979e-05
3.63049e-06
1.0654e-05
1.09415e-05
3.06852e-06
2.80102e-06
1.06446e-06
9.26926e-07
3.93272e-06
6.76897e-06
3.76446e-09
1.35233e-06
1.89741e-08
7.16627e-07
6.70904e-07
3.31565e-06
6.12916e-09
5.29552e-06
1.42411e-06
3.48269e-07
1.70653e-05
2.47758e-08
7.38206e-06
3.72005e-05
6.49395e-06
4.01692e-06
3.15542e-06
1.32786e-06
6.17507e-06
1.14918e-07
4.11528e-07
4.50084e-07
8.24398e-08
2.02822e-07
1.66888e-05
1.64938e-05
1.65802e-05
1.98896e-07
4.96045e-05
6.11097e-05
5.66555e-05
5.78452e-06
1.09436e-05
1.64434e-05
2.10561e-06
2.41816e-06
1.11612e-06
1.02253e-06
4.03127e-06
1.78342e-05
3.74249e-07
8.48842e-07
2.69785e-09
3.94449e-06
8.87517e-07
2.7508e-06
6.40735e-07
5.84944e-06
6.53266e-06
2.06619e-07
1.55828e-05
1.60167e-07
7.50993e-06
3.59524e-05
7.07778e-06
4.55686e-06
3.69385e-06
1.76462e-06
3.37861e-05
1.96939e-08
2.56631e-07
3.42942e-07
1.3249e-07
2.87503e-07
9.74861e-06
1.36126e-05
5.23026e-06
2.54885e-07
3.9686e-05
6.65609e-05
5.26239e-05
3.91874e-06
1.07499e-05
1.90288e-05
1.4798e-06
2.18412e-06
1.09153e-06
9.91164e-07
5.06379e-06
9.08577e-06
3.52078e-08
6.34787e-07
1.06976e-08
7.11872e-06
1.03759e-06
2.80639e-06
2.12152e-09
6.5527e-07
1.40952e-05
4.39351e-06
1.44678e-05
2.60913e-05
1.02577e-05
1.87625e-06
6.00852e-06
4.83442e-06
3.88172e-06
2.50719e-06
6.56218e-05
1.29785e-07
1.69476e-07
5.70663e-08
1.6371e-07
7.14738e-07
8.07031e-06
1.12679e-05
5.25568e-06
7.34152e-06
4.6102e-05
3.7232e-05
4.5549e-05
2.04332e-06
1.09136e-05
1.84457e-05
1.09083e-06
2.04467e-06
1.02474e-06
7.45988e-07
3.00817e-06
5.44375e-07
3.01352e-07
5.66199e-07
4.26075e-08
6.91833e-08
7.7096e-07
3.20842e-06
2.75989e-06
7.36693e-07
1.72769e-06
1.36101e-05
1.44519e-05
5.06945e-05
1.12566e-05
4.13342e-07
5.5302e-06
4.62606e-06
3.48479e-06
2.83901e-06
4.94039e-06
4.43324e-08
2.13569e-07
5.57833e-08
1.52495e-07
1.67033e-06
1.16143e-05
8.11438e-06
1.41011e-05
1.48153e-05
6.18158e-05
2.30893e-05
3.99443e-05
1.98926e-06
1.12517e-05
1.90231e-05
6.70604e-07
1.80214e-06
1.06345e-06
6.42532e-07
1.20687e-06
8.82625e-08
2.68982e-06
4.82312e-07
3.81878e-08
1.79285e-06
6.65076e-07
3.09037e-06
1.10601e-05
4.34287e-06
2.4535e-07
2.31257e-05
1.42641e-05
3.4484e-05
1.05655e-05
3.15352e-07
5.53055e-06
4.2836e-06
3.11683e-06
2.63117e-06
4.15593e-06
9.90603e-09
2.24116e-07
9.14572e-08
1.6172e-07
1.93358e-06
1.70634e-05
1.04546e-05
2.41645e-05
1.06348e-05
7.23742e-05
2.77319e-05
3.51854e-05
4.11465e-06
1.15434e-05
1.81924e-05
3.1896e-07
1.37017e-06
9.30339e-07
7.75528e-07
1.63441e-08
4.70927e-07
6.59814e-06
3.90359e-07
4.10834e-09
2.1593e-07
9.16574e-07
2.20355e-06
1.79353e-05
8.04926e-06
9.73631e-06
2.8403e-05
1.39168e-05
1.70949e-05
9.72199e-06
4.53899e-06
5.61312e-06
4.44511e-06
2.87953e-06
2.44418e-06
1.85821e-06
5.50903e-09
1.89446e-07
5.7212e-08
1.95404e-07
1.97493e-06
2.00385e-05
1.99872e-05
2.5125e-05
2.71468e-06
7.09456e-05
4.37755e-05
3.13389e-05
8.92692e-06
1.18182e-05
6.91878e-06
1.65179e-07
8.67854e-07
8.4996e-07
8.82752e-07
4.46836e-07
2.47154e-06
2.09589e-06
2.00688e-07
8.98598e-08
2.40826e-06
1.15452e-06
1.36055e-06
3.48991e-06
8.15315e-07
1.10866e-05
8.78375e-06
1.17195e-05
5.12956e-06
8.844e-06
1.49773e-05
6.10787e-06
4.59552e-06
2.99393e-06
1.86002e-06
4.82645e-06
7.71445e-08
7.45478e-08
3.86481e-09
2.6918e-07
1.60908e-06
1.92242e-05
3.78765e-05
2.14816e-05
2.92344e-06
6.95828e-05
4.07591e-05
2.69633e-05
7.79209e-06
1.1672e-05
1.14265e-06
9.45769e-08
4.98587e-07
7.96297e-07
7.56571e-07
3.85717e-07
5.32437e-07
4.96543e-07
3.19991e-08
6.86556e-08
3.1151e-07
6.24894e-07
9.57134e-07
2.36978e-06
3.69736e-06
2.89565e-07
2.93234e-08
7.35605e-06
5.89746e-06
8.90871e-06
1.37222e-05
6.11786e-06
4.0816e-06
3.25092e-06
1.35739e-06
2.7031e-06
1.08913e-08
5.02369e-09
3.54456e-09
2.65823e-07
2.08224e-06
1.20127e-05
2.22866e-05
1.02918e-05
8.04638e-06
6.21735e-05
2.70026e-05
2.3336e-05
2.28722e-06
9.38442e-06
6.95263e-06
1.19075e-09
2.59475e-07
5.45033e-07
5.91388e-07
7.37011e-06
4.18058e-08
9.03826e-08
1.07177e-08
8.5044e-09
9.26126e-08
2.46011e-07
6.30505e-07
3.34575e-07
3.72153e-07
1.26972e-06
1.16389e-06
5.95568e-06
1.23991e-05
8.83435e-06
4.87306e-06
5.74651e-06
3.70735e-06
3.04292e-06
1.32994e-06
1.32576e-07
4.23014e-09
5.82044e-11
9.67084e-08
2.59639e-07
3.47122e-06
1.34219e-05
1.28599e-05
1.37463e-05
8.6923e-06
6.45712e-05
2.57461e-05
2.03765e-05
5.16767e-07
8.25975e-06
1.19152e-05
4.99937e-08
1.22039e-07
2.63797e-07
3.45376e-07
4.47757e-06
7.86683e-08
4.54017e-07
2.52188e-08
1.26958e-08
2.33293e-07
2.17323e-07
4.12636e-07
5.86873e-07
6.64604e-08
1.10158e-07
4.16848e-06
5.07859e-06
5.77628e-06
7.25742e-06
8.57925e-06
5.97499e-06
3.54367e-06
2.65749e-06
1.3849e-06
6.79259e-07
6.4222e-10
2.7046e-09
2.68326e-08
4.15019e-07
1.905e-06
1.70627e-05
1.4777e-05
2.24273e-05
4.58949e-06
6.52243e-05
3.00354e-05
1.79116e-05
1.6287e-06
7.93389e-06
7.77939e-06
4.63212e-08
1.06343e-08
7.78473e-08
3.34246e-07
1.27111e-06
1.95182e-07
9.83802e-07
3.24553e-08
7.16503e-08
6.25712e-07
1.39977e-07
1.8754e-07
2.58176e-07
4.48095e-08
5.94555e-07
1.93981e-06
4.29148e-06
1.086e-07
4.92805e-06
2.12344e-05
6.47053e-06
3.50647e-06
2.53199e-06
1.42131e-06
7.59769e-08
6.02317e-08
3.59933e-08
4.4009e-07
5.49747e-07
1.05688e-06
1.12944e-05
1.83334e-05
3.54895e-06
1.0904e-06
3.49814e-05
3.84395e-05
1.61491e-05
2.92789e-06
6.93497e-06
4.2114e-06
6.22038e-08
3.16234e-08
1.77551e-08
3.68366e-07
9.18276e-07
9.74629e-07
1.35504e-06
4.89149e-08
4.41192e-08
2.08923e-07
3.64951e-08
8.12002e-08
7.57955e-08
4.22624e-08
2.66698e-06
2.90544e-06
3.70455e-06
2.05877e-06
4.94559e-06
1.07731e-05
5.32592e-06
3.09631e-06
2.50654e-06
1.37043e-06
4.89014e-06
3.62906e-07
1.15082e-07
1.46444e-07
5.12757e-07
2.30755e-06
4.91926e-06
1.90177e-05
4.33854e-07
4.12405e-06
2.37613e-05
2.31829e-05
1.30066e-05
1.45678e-06
5.82427e-06
5.37074e-06
2.15626e-07
1.30953e-07
1.04823e-09
1.64276e-07
8.09319e-07
1.11385e-06
7.55684e-08
2.38882e-08
7.01031e-09
1.12778e-07
1.45563e-09
5.60986e-09
2.36841e-07
1.08073e-07
1.54451e-06
2.1898e-06
2.6548e-06
1.03138e-05
5.00145e-06
1.09697e-06
3.8276e-06
2.3772e-06
2.04129e-06
1.49407e-06
2.21772e-06
3.47568e-07
2.04506e-07
7.72505e-09
6.88841e-07
4.05911e-06
1.25988e-05
3.08641e-05
5.31139e-06
1.00472e-05
4.38623e-05
9.70033e-06
9.75826e-06
2.14186e-08
4.62395e-06
8.59238e-06
5.0579e-07
2.40765e-07
2.50639e-08
8.47557e-09
3.18139e-06
1.12099e-07
3.39654e-08
6.80185e-09
2.97258e-09
3.76646e-09
7.69658e-08
5.92377e-08
7.00211e-07
5.71222e-07
5.49028e-10
1.09005e-06
2.01515e-06
8.44048e-06
3.67993e-06
6.47221e-07
3.22397e-06
1.97881e-06
1.69927e-06
1.35082e-06
1.29295e-08
1.88074e-07
2.52236e-07
9.43326e-08
1.02914e-06
3.99142e-06
1.47581e-05
1.53483e-05
1.90146e-05
8.51408e-06
5.74972e-05
1.10151e-05
7.73508e-06
1.5511e-07
3.87219e-06
9.85644e-06
6.16189e-07
3.55936e-07
1.49317e-07
1.81016e-08
6.0782e-06
2.00303e-07
5.70796e-07
1.19604e-07
1.79834e-08
9.49122e-08
1.88014e-07
2.19538e-07
2.27544e-08
1.1364e-07
4.10121e-08
1.63307e-06
1.05431e-06
1.56363e-06
2.73358e-06
4.16208e-06
3.46743e-06
1.75127e-06
1.4516e-06
1.05459e-06
3.62411e-07
1.33852e-07
3.33938e-07
4.16324e-07
1.39545e-06