/*--------------------------------*- C++ -*----------------------------------*\
  =========                 |
  \\      /  F ield         | OpenFOAM: The Open Source CFD Toolbox
   \\    /   O peration     | Website:  https://openfoam.org
    \\  /    A nd           | Version:  10
     \\/     M anipulation  |
\*---------------------------------------------------------------------------*/
FoamFile
{
    format      ascii;
    class       volVectorField;
    location    "0.04";
    object      UMean;
}
// * * * * * * * * * * * * * * * * * * * * * * * * * * * * * * * * * * * * * //

dimensions      [0 1 -1 0 0 0 0];

internalField   nonuniform List<vector> 
102400
(
(0.158466 -0.0341043 0.0101985)
(0.160991 -0.0341099 0.0230754)
(0.158296 -0.036033 0.0103609)
(0.157269 -0.0359549 0.000459393)
(0.161632 -0.0370774 -0.00107712)
(0.160627 -0.0361955 0.0138133)
(0.159154 -0.0364794 0.0200027)
(0.159421 -0.0349172 0.00991162)
(0.161494 -0.0364838 -0.00131108)
(0.159032 -0.0362761 0.0018481)
(0.159919 -0.0354632 0.0136561)
(0.162108 -0.0359171 0.0240737)
(0.155084 -0.0330063 0.00874398)
(0.159476 -0.0371715 0.000946283)
(0.163268 -0.0378151 0.000639434)
(0.16511 -0.0374386 0.0163136)
(0.158723 -0.0351066 0.0180452)
(0.158521 -0.0360285 0.00987135)
(0.163375 -0.0369823 -0.000324618)
(0.157808 -0.0339743 -0.00231007)
(0.16391 -0.0358548 0.0161798)
(0.15799 -0.0355283 0.0212284)
(0.164221 -0.036521 0.0134917)
(0.162422 -0.0360865 0.00105314)
(0.160036 -0.0345868 -0.00104207)
(0.159245 -0.0360835 0.0133767)
(0.161122 -0.0354308 0.0212105)
(0.159582 -0.0346046 0.0108511)
(0.160648 -0.0372579 -0.00360534)
(0.160523 -0.0356162 0.00149396)
(0.159535 -0.0353349 0.0130012)
(0.163493 -0.036811 0.0220079)
(0.15501 -0.0334231 0.00802599)
(0.158604 -0.0351071 -0.00197007)
(0.158985 -0.0346385 -0.00507654)
(0.161442 -0.0356534 0.0138843)
(0.161949 -0.0384229 0.020608)
(0.164522 -0.0382672 0.0151245)
(0.163016 -0.0374128 -0.00298963)
(0.16117 -0.0336685 -0.00530078)
(0.154526 0.0119095 0.00825462)
(0.155904 0.0123998 0.0329683)
(0.151244 0.0142536 0.000560903)
(0.145753 0.0143269 -0.0304156)
(0.155998 0.0149634 -0.0433671)
(0.158713 0.0139998 0.00931121)
(0.149538 0.0132112 0.0247249)
(0.157372 0.0120112 0.00630521)
(0.150944 0.0140233 -0.0362427)
(0.153421 0.0133745 -0.0309778)
(0.14959 0.0116772 0.00483131)
(0.153908 0.0119051 0.0301215)
(0.149027 0.0132785 0.00538392)
(0.150333 0.0134732 -0.0371571)
(0.155132 0.013282 -0.0376653)
(0.156724 0.0134905 0.00680142)
(0.161314 0.0141413 0.0382899)
(0.149842 0.0138288 0.00424006)
(0.155852 0.011459 -0.0366309)
(0.152052 0.0130333 -0.0262665)
(0.157995 0.0119479 0.0124673)
(0.143655 0.013043 0.021095)
(0.155725 0.0111365 0.00665614)
(0.161485 0.0113835 -0.039975)
(0.157363 0.0117082 -0.0300769)
(0.153241 0.0137125 0.00761003)
(0.149739 0.0121029 0.0229094)
(0.151179 0.0122473 0.00450489)
(0.157161 0.0148779 -0.0505838)
(0.153654 0.0107166 -0.0266947)
(0.154237 0.0142242 0.00710872)
(0.166281 0.0126372 0.0433117)
(0.15008 0.012766 0.00588368)
(0.148061 0.0121851 -0.0282595)
(0.147915 0.0139315 -0.0342383)
(0.154986 0.0134981 0.00965197)
(0.156692 0.0135995 0.0348935)
(0.149627 0.0130334 0.00462838)
(0.156667 0.0133466 -0.0466596)
(0.153066 0.0116431 -0.0277897)
(0.173157 -0.00125085 0.0208789)
(0.174473 -0.000376863 0.0554199)
(0.169533 -0.000138001 0.0162105)
(0.170365 -0.0025099 -0.0389515)
(0.173285 -0.0012018 -0.04665)
(0.172326 0.00091826 0.017986)
(0.174527 0.000487028 0.0572157)
(0.173781 -0.00241508 0.0203062)
(0.172764 0.00178051 -0.0544718)
(0.174491 -0.000817037 -0.0441962)
(0.176211 0.000414282 0.0218222)
(0.178834 0.000929622 0.061338)
(0.164748 -0.00317826 0.0226309)
(0.169367 0.000560344 -0.0554854)
(0.177948 -0.000775897 -0.0559493)
(0.181589 0.00182411 0.0240764)
(0.173751 -0.00102872 0.0512368)
(0.175094 -0.00344328 0.0227054)
(0.178588 0.000520754 -0.0680032)
(0.171428 -0.00392216 -0.0321377)
(0.183463 0.00104644 0.0298976)
(0.17269 0.000442835 0.0582011)
(0.179917 -0.000152494 0.0145085)
(0.175074 0.00134938 -0.0581453)
(0.173172 -0.00101704 -0.0458694)
(0.169285 -0.000735233 0.0148833)
(0.17876 0.0020237 0.0636001)
(0.170662 -0.00207714 0.0152797)
(0.167697 -0.000507309 -0.043713)
(0.173894 0.000648339 -0.0498666)
(0.172588 -0.00301614 0.0168138)
(0.183904 0.00121353 0.0670033)
(0.166574 -0.00328122 0.0225538)
(0.167937 -0.00217683 -0.0431534)
(0.167055 -0.00186744 -0.0350341)
(0.170893 -0.000578216 0.0190168)
(0.188366 0.00174034 0.077455)
(0.186509 0.00129992 0.0158189)
(0.176728 0.00108809 -0.0545882)
(0.170676 -0.00106206 -0.0392198)
(0.202125 0.00187627 0.0300743)
(0.196893 0.00297724 0.0764103)
(0.181932 -0.00266504 0.0273603)
(0.175007 -0.00107061 -0.0496154)
(0.174841 -0.00222247 -0.0493247)
(0.189589 -0.00326842 0.0288292)
(0.180334 -0.00110467 0.065732)
(0.198367 -0.000277855 0.0141427)
(0.180748 -0.000923935 -0.0539609)
(0.186989 4.51247e-05 -0.0653437)
(0.190138 0.000535069 0.0251182)
(0.192882 0.00166468 0.0760979)
(0.188167 0.0032026 0.0176648)
(0.178977 -0.00394066 -0.0460658)
(0.181703 -0.00124783 -0.0562837)
(0.185977 -0.00042206 0.0250963)
(0.191911 -0.00150019 0.0719508)
(0.183509 0.000543559 0.0210508)
(0.190416 0.000307494 -0.0786049)
(0.187779 0.00118589 -0.0733187)
(0.215335 0.000423736 0.0370354)
(0.17966 -0.00152662 0.060337)
(0.194807 -0.000492488 0.0169517)
(0.199962 0.000385574 -0.0869823)
(0.203023 0.00240543 -0.0829738)
(0.180377 -0.00137364 0.0119482)
(0.191186 0.00262541 0.0788717)
(0.18826 0.00134436 0.0144143)
(0.16901 -0.00623116 -0.0261966)
(0.19742 3.6096e-05 -0.0727823)
(0.184006 -0.00130292 0.0174656)
(0.205807 0.00136539 0.0893028)
(0.189495 0.00340603 0.0174219)
(0.184683 -0.00291919 -0.0588162)
(0.176391 0.000716382 -0.0512409)
(0.186501 -0.0015594 0.0248496)
(0.186377 -0.00482475 0.0645056)
(0.179176 -0.00300498 0.0209564)
(0.179133 0.000745011 -0.0555122)
(0.190937 0.00163308 -0.0768777)
(0.200391 -0.000332106 0.0266154)
(0.192918 -0.00110872 0.073626)
(0.196063 0.00183237 0.025757)
(0.207938 0.000249777 -0.095583)
(0.209929 0.000945507 -0.0822493)
(0.197706 0.00188215 0.0234422)
(0.200068 -0.000447692 0.08639)
(0.207105 0.00131019 0.0207476)
(0.19649 -0.000768395 -0.068802)
(0.214321 -0.000894362 -0.0869098)
(0.203374 -0.00154576 0.0271938)
(0.195243 -0.00103617 0.0737907)
(0.195781 0.0031614 0.0212056)
(0.192409 -0.000310431 -0.0683852)
(0.211857 -0.00225403 -0.0806225)
(0.209382 0.000432204 0.0296038)
(0.201733 -0.000931013 0.0875784)
(0.226482 -0.00287048 0.0202194)
(0.197051 -0.00231236 -0.0699303)
(0.217913 -0.00224487 -0.0938148)
(0.22349 -0.000512659 0.0376677)
(0.198625 0.0035432 0.0814127)
(0.198759 -0.003686 0.0200522)
(0.18024 -0.00184599 -0.0502213)
(0.198942 -0.00177419 -0.0680844)
(0.185043 0.000274928 0.0168501)
(0.200261 -0.0014359 0.0815675)
(0.187776 -0.00127297 0.0244225)
(0.193677 0.00109726 -0.0709981)
(0.189013 -0.00275149 -0.0651384)
(0.20947 -0.00178248 0.0325791)
(0.216723 0.00211944 0.0989561)
(0.200242 0.00269191 0.0213981)
(0.195099 -0.000446375 -0.0689972)
(0.193582 0.00108146 -0.0679584)
(0.195485 -8.93233e-06 0.0238924)
(0.189715 -0.00161742 0.074409)
(0.216762 -0.000902106 0.0241943)
(0.200619 0.00388288 -0.0748048)
(0.19028 -0.00153609 -0.0658081)
(0.222959 -0.00380064 0.0380416)
(0.193832 -0.000958496 0.0780949)
(0.227123 -0.000492131 0.0169707)
(0.190479 -0.00113195 -0.0544294)
(0.176414 -0.00297874 -0.0570114)
(0.23059 0.00029164 0.0509874)
(0.20022 -0.00181932 0.081487)
(0.229561 -0.00355415 0.0275262)
(0.212909 -0.000983153 -0.0836009)
(0.216014 -0.000675715 -0.0811662)
(0.207631 0.000860391 0.0263895)
(0.186797 0.00162132 0.0637606)
(0.203601 -0.00194885 0.0267953)
(0.217051 0.000121134 -0.0937872)
(0.186159 -0.000710798 -0.0622438)
(0.208915 0.00270565 0.0359146)
(0.209829 -0.00373241 0.0858553)
(0.181333 -0.00275087 0.021697)
(0.178412 0.000869786 -0.0569438)
(0.212333 -0.00412178 -0.0674022)
(0.167623 0.0023892 0.00743731)
(0.209447 0.00355952 0.0942633)
(0.190576 0.0012655 0.0247288)
(0.182599 0.000852395 -0.0587595)
(0.190014 -0.00204626 -0.0598815)
(0.188063 0.00217034 0.0199533)
(0.213673 -0.001182 0.0887099)
(0.189231 -0.000393621 0.0286247)
(0.210477 0.00200912 -0.0908244)
(0.18034 -0.000428145 -0.0606313)
(0.202809 -0.00542916 0.0288354)
(0.203454 0.0016169 0.0813137)
(0.191761 0.00113531 0.0286179)
(0.223348 -0.00132932 -0.0977365)
(0.188378 -0.00139761 -0.0636875)
(0.210084 -0.0034814 0.0348154)
(0.210558 -0.000468667 0.0926542)
(0.210411 0.000861096 0.0212524)
(0.17843 0.00279409 -0.0461538)
(0.200497 -0.00137351 -0.0707515)
(0.203323 -0.00251534 0.0260455)
(0.212498 -0.00132057 0.0907919)
(0.201449 -0.00141899 0.0263176)
(0.194845 8.69382e-05 -0.0658781)
(0.19421 -0.00245601 -0.0616207)
(0.197655 -0.00167533 0.023205)
(0.205237 -0.00249958 0.0844465)
(0.198388 -0.00035164 0.0218224)
(0.179608 -0.000639989 -0.0458361)
(0.173669 0.000569561 -0.054836)
(0.213868 -0.000820975 0.0418577)
(0.16438 0.00245995 0.037737)
(0.171573 0.000728898 0.0157455)
(0.19217 -0.00170782 -0.0623775)
(0.179308 0.00151742 -0.0482885)
(0.168942 0.00371997 0.0109646)
(0.209855 -0.00493444 0.0870394)
(0.174205 0.00288331 0.024163)
(0.204151 6.3737e-05 -0.0771917)
(0.175527 0.00251013 -0.0526778)
(0.18348 0.000958525 0.0235898)
(0.19474 -0.0020065 0.0803501)
(0.220498 -0.00276661 0.0240757)
(0.190871 -0.00167988 -0.0554958)
(0.185429 -0.000830621 -0.0540857)
(0.196131 -0.000168219 0.0255759)
(0.221139 -0.00496972 0.101303)
(0.207144 0.000116091 0.0257467)
(0.194442 -0.000770773 -0.0574127)
(0.187799 -0.00125403 -0.0520807)
(0.179858 -0.000962248 0.0165101)
(0.195234 0.00236314 0.0773024)
(0.201338 0.00165813 0.020389)
(0.176453 0.000728787 -0.0441221)
(0.179675 -0.00138736 -0.0466855)
(0.175254 -0.00235566 0.0164661)
(0.193534 -0.000830123 0.073198)
(0.194057 1.79973e-05 0.0242397)
(0.198087 0.00231166 -0.0665629)
(0.210895 -0.00352323 -0.0708355)
(0.151437 0.0032592 0.000907313)
(0.189402 -0.000597211 0.0676795)
(0.174261 0.00400594 0.0186872)
(0.184323 -0.00159023 -0.0505279)
(0.182732 -0.00194717 -0.04726)
(0.185222 0.00201214 0.0263903)
(0.166203 0.00104892 0.0390641)
(0.162617 0.00395734 0.0129452)
(0.176256 0.00131445 -0.0509581)
(0.181429 -0.000770332 -0.0464372)
(0.161429 0.000991304 0.00749112)
(0.172425 0.000149213 0.048391)
(0.159188 0.000324594 0.0134962)
(0.170674 0.00182902 -0.0474445)
(0.181946 0.000421586 -0.0477785)
(0.191312 -0.000533861 0.0276571)
(0.194575 -0.002521 0.066543)
(0.170791 -0.000846749 0.0171819)
(0.180287 -0.000530671 -0.0498086)
(0.174567 0.0011088 -0.0398775)
(0.167315 -0.000108085 0.0112742)
(0.180408 -0.00157006 0.0570611)
(0.151094 0.000986775 0.0144179)
(0.170471 -0.00165332 -0.0432792)
(0.171947 4.59521e-05 -0.0405255)
(0.175817 -0.0012042 0.0177066)
(0.170652 -0.00271548 0.0472854)
(0.167158 0.000593914 0.0147783)
(0.173888 0.00188952 -0.0487452)
(0.194142 -0.000918327 -0.0486221)
(0.159699 0.00219417 0.00386514)
(0.169282 0.00120046 0.0465582)
(0.188451 0.000325411 0.0157264)
(0.172935 0.00438507 -0.0465309)
(0.180134 -0.000629198 -0.0416709)
(0.163786 0.000606089 0.0102219)
(0.184011 -0.000247732 0.0591822)
(0.169898 0.00210365 0.0195476)
(0.192785 0.00118222 -0.0628365)
(0.184862 -0.000786077 -0.0445858)
(0.149595 -0.000141082 0.00511798)
(0.155313 0.00159152 0.030189)
(0.163101 0.000674692 0.0116283)
(0.173085 -0.00231449 -0.0412794)
(0.161697 0.00036738 -0.0262503)
(0.142834 0.000566006 -0.00112067)
(0.160813 0.000159456 0.0378816)
(0.16685 -0.00099051 0.0111695)
(0.166399 -0.00161301 -0.0320935)
(0.16185 -5.10205e-05 -0.0264801)
(0.152323 0.00127964 0.0076272)
(0.161722 0.00061026 0.0365515)
(0.167168 -0.00116412 0.00985124)
(0.154711 9.35653e-05 -0.0230107)
(0.1513 0.00193047 -0.0214232)
(0.163121 -0.00102316 0.0149634)
(0.167675 0.00183881 0.0422859)
(0.159282 0.00218698 0.0099276)
(0.15316 0.00115849 -0.0280286)
(0.163777 0.00088765 -0.0274157)
(0.161146 0.000706934 0.0120663)
(0.162088 -0.000892403 0.0359364)
(0.145817 0.00370734 0.0090442)
(0.167734 -0.000743499 -0.0384119)
(0.160639 -0.000284432 -0.0277692)
(0.15565 0.000135484 0.00814752)
(0.156433 -0.00100152 0.035201)
(0.166335 0.000892316 0.00855507)
(0.155249 0.000951815 -0.0240388)
(0.162826 -0.00018402 -0.0261874)
(0.153664 0.000947345 0.0056097)
(0.169728 -0.00206734 0.0431594)
(0.157665 0.00177319 0.0109837)
(0.169049 0.00169829 -0.0367011)
(0.168727 -3.82193e-05 -0.0314338)
(0.165303 -0.0013589 0.0131971)
(0.162403 -0.000138291 0.0329128)
(0.152055 0.00240402 0.00816487)
(0.154599 0.00170443 -0.0270761)
(0.1534 0.00282155 -0.0242724)
(0.154802 -0.00113824 0.00933218)
(0.152463 -0.000960233 0.0239162)
(0.149268 0.000666706 0.00453464)
(0.140237 0.000516384 -0.00913906)
(0.144 0.00101824 -0.01335)
(0.146723 0.000278366 0.00625504)
(0.149234 -0.00174545 0.0194306)
(0.15185 -0.000343332 0.00537629)
(0.146801 -1.52115e-05 -0.014944)
(0.145181 0.00174182 -0.0154612)
(0.152714 -0.000875281 0.0105336)
(0.145979 0.000510294 0.0162384)
(0.149103 2.26642e-05 0.00533846)
(0.147577 0.000897781 -0.0162884)
(0.146301 0.00124687 -0.0152469)
(0.145974 0.000632457 0.00567076)
(0.13992 0.00228193 0.00877706)
(0.142523 0.00184363 0.00296226)
(0.147358 -0.0010235 -0.0176742)
(0.138794 0.0013744 -0.0104027)
(0.152358 -0.000826036 0.0115126)
(0.149978 5.91899e-05 0.0235372)
(0.154606 -0.00137672 0.00679706)
(0.149612 -0.00108554 -0.0163796)
(0.152422 -0.00029868 -0.0184665)
(0.151399 -0.000297862 0.00795332)
(0.146851 -0.00295496 0.0160457)
(0.147987 -0.000500638 0.00408856)
(0.143792 0.00102817 -0.0119823)
(0.140223 0.00153612 -0.0125309)
(0.147222 0.000217889 0.00625142)
(0.151288 -0.00208874 0.0208732)
(0.145158 0.000881243 0.00336311)
(0.144089 0.00216693 -0.0130766)
(0.147602 0.000327876 -0.0136917)
(0.14367 0.000365365 0.003508)
(0.138541 0.000487339 0.00702902)
(0.143964 0.000873323 0.00340808)
(0.145052 0.00157714 -0.0184998)
(0.150667 0.00069021 -0.0187447)
(0.140143 0.000102191 0.00277912)
(0.137676 -0.000985378 0.00528354)
(0.140078 0.000748899 0.00147233)
(0.138225 0.000182603 -0.00719627)
(0.138636 0.000545961 -0.00637196)
(0.139851 -0.000826947 0.00265999)
(0.138182 -0.000974011 0.00624885)
(0.138748 0.000307469 0.00102884)
(0.138205 -7.48652e-05 -0.00663722)
(0.138618 0.000377565 -0.00616494)
(0.138849 0.000540055 0.00224754)
(0.139835 0.000188155 0.00819914)
(0.137563 4.70301e-05 0.00144108)
(0.138436 0.000698045 -0.00613901)
(0.140527 0.000385517 -0.00640487)
(0.138509 -0.00067935 0.00175992)
(0.139548 0.000368147 0.00721104)
(0.136907 0.000858329 0.00102473)
(0.139254 -0.000197912 -0.00755321)
(0.137348 0.000644312 -0.00567399)
(0.140343 -0.00073529 0.00351545)
(0.139271 -0.000751288 0.00869897)
(0.142736 3.14161e-05 0.00250901)
(0.138349 -0.00060338 -0.00656427)
(0.140219 7.32374e-05 -0.007257)
(0.139671 0.000486594 0.00249549)
(0.140718 -0.00110071 0.00860348)
(0.137833 0.000243762 0.00136924)
(0.139287 0.00123374 -0.00692099)
(0.140782 -0.00038714 -0.00725729)
(0.137356 -0.000287195 0.000290689)
(0.136497 -0.000657326 0.00378414)
(0.138382 0.000281604 0.00101927)
(0.139028 0.00144345 -0.00832362)
(0.138981 0.000122942 -0.0068451)
(0.138869 0.000213591 0.0026995)
(0.139228 -0.000745449 0.00659206)
(0.138681 0.000551851 0.0020109)
(0.140565 -6.08212e-05 -0.00857307)
(0.139057 0.000359764 -0.00606325)
(0.134958 -1.19581e-05 0.000262045)
(0.135003 -0.000549511 0.00162003)
(0.134871 0.000446745 0.000270852)
(0.135218 -0.000205131 -0.001643)
(0.135551 0.000207067 -0.00226539)
(0.135602 -0.000142975 0.000773082)
(0.134876 -0.00110991 0.00162612)
(0.134283 -0.00040848 3.67308e-06)
(0.134594 -0.000327708 -0.00177646)
(0.135222 0.00037983 -0.00211357)
(0.135055 0.000395059 0.000503431)
(0.135453 0.000241032 0.00284913)
(0.135323 -0.000268019 0.000563761)
(0.135241 0.000278247 -0.00237085)
(0.13533 0.000367732 -0.00219406)
(0.135636 -0.000307514 0.00110513)
(0.135134 0.000339331 0.00144627)
(0.135058 0.000578722 3.56007e-05)
(0.135444 -0.000188455 -0.00303689)
(0.135039 0.000206409 -0.00116568)
(0.135239 -0.000713785 0.00100879)
(0.134979 -0.00078692 0.00250407)
(0.134938 -0.000113163 0.00032903)
(0.134919 -0.000857201 -0.00208219)
(0.13415 -1.63458e-05 -0.00179672)
(0.134844 0.000241398 0.000523799)
(0.135521 -0.000876122 0.00223858)
(0.134767 -0.000275781 0.000274317)
(0.135273 0.00078581 -0.00211735)
(0.135346 8.73615e-05 -0.00188432)
(0.135273 -7.69035e-05 0.000581465)
(0.134636 -0.00114828 0.000593894)
(0.134054 0.000187224 -0.00026056)
(0.135368 0.000784748 -0.0026572)
(0.135028 -6.7616e-05 -0.00167937)
(0.134976 -0.000169074 0.000773515)
(0.135492 -0.000303872 0.00187265)
(0.134571 0.000356044 0.000381685)
(0.135116 0.000208079 -0.00266978)
(0.134991 0.000317509 -0.00210674)
(0.133843 -0.000103342 -7.68228e-05)
(0.133821 -0.000491379 1.9976e-06)
(0.133785 0.000259686 -4.55689e-05)
(0.133847 -0.000150792 -0.000377362)
(0.133801 0.000187432 -0.000454569)
(0.134065 -8.26899e-05 0.00013236)
(0.134097 -0.000915539 0.000488587)
(0.1335 -0.000407046 -0.000101331)
(0.13338 -0.000164306 -0.000110876)
(0.133669 0.000398622 -0.000338184)
(0.133959 0.00033019 0.000222903)
(0.134019 0.000196197 0.000835018)
(0.134039 -0.000196057 0.000218915)
(0.133878 0.000186573 -0.000556494)
(0.133951 0.000199044 -0.000541117)
(0.133954 -0.000263686 0.000227448)
(0.133602 0.000315622 -0.000218353)
(0.134001 0.000410317 -0.000321139)
(0.133819 -0.000118915 -0.000737692)
(0.133941 0.000260048 -0.000109175)
(0.133887 -0.000546577 0.000309073)
(0.133952 -0.00067751 0.000875859)
(0.13355 -0.000331325 0.00012641)
(0.133762 -0.000625953 -0.000502904)
(0.133633 1.84491e-05 -0.000532248)
(0.134015 8.07897e-05 0.000285967)
(0.133898 -0.000601735 0.00024159)
(0.133459 -0.000184992 -6.74543e-05)
(0.133781 0.000521462 -0.00054661)
(0.133973 3.69368e-05 -0.000726737)
(0.134186 -0.000143691 0.000142615)
(0.133836 -0.000744369 -0.000296928)
(0.133482 -4.98347e-05 -0.000438038)
(0.133697 0.000578281 -0.000696324)
(0.133804 0.000113748 -0.000328818)
(0.133852 4.82801e-05 0.00028546)
(0.133844 -0.000169143 -3.8896e-06)
(0.133599 0.000241149 -7.0974e-05)
(0.133776 0.000165466 -0.000807467)
(0.134057 0.00016126 -0.000483313)
(0.133509 -3.03303e-05 -0.000161319)
(0.133531 -0.000299705 -0.000295951)
(0.133649 0.000181884 -4.91722e-05)
(0.133576 -0.000170394 -9.42198e-06)
(0.133548 0.000139337 -0.000104339)
(0.13387 -2.45479e-05 0.000103521)
(0.133743 -0.000709741 3.73458e-05)
(0.133318 -0.0003464 -8.49617e-05)
(0.133264 -8.56048e-05 0.000116775)
(0.133437 0.000370412 2.68672e-05)
(0.133708 0.000335448 0.000129176)
(0.133818 0.00017918 0.00045433)
(0.133747 -0.000154003 0.000131231)
(0.133574 0.000105093 -0.000113313)
(0.133673 0.000111469 -9.65814e-05)
(0.13361 -0.000191735 1.96112e-05)
(0.133511 0.000142474 -0.000299097)
(0.133609 0.000245251 -0.00027565)
(0.133621 -3.37666e-05 -0.000288625)
(0.133683 0.000175267 0.000161998)
(0.133746 -0.000351094 0.000312991)
(0.133619 -0.000490959 0.000361838)
(0.133585 -0.000319388 0.000142263)
(0.133393 -0.000497361 5.37987e-05)
(0.13338 4.62469e-05 -3.25409e-05)
(0.133725 0.000114855 0.000185673)
(0.133714 -0.000420332 3.25375e-05)
(0.133414 -0.000183993 -7.03138e-05)
(0.133529 0.000345549 -9.34885e-05)
(0.133746 -1.31228e-05 -0.00024843)
(0.133769 -0.000125716 -8.7046e-05)
(0.133631 -0.000530116 -0.000441246)
(0.133363 -0.000109072 -0.000356656)
(0.133395 0.000373151 -0.000232058)
(0.133514 9.87487e-05 -2.44467e-05)
(0.133589 5.78892e-05 0.00013264)
(0.133588 -0.000150348 -0.000270706)
(0.133417 0.000166506 -0.000117241)
(0.133615 0.000150822 -0.000346251)
(0.133719 0.00010542 -8.06216e-05)
(0.133464 -3.72489e-06 -0.000147458)
(0.13352 -0.00019278 -0.000271159)
(0.133644 0.000119759 -5.17856e-05)
(0.133541 -0.000156113 3.58594e-05)
(0.133526 0.000103745 -2.15356e-05)
(0.133785 -2.03814e-06 6.61549e-05)
(0.133681 -0.000545773 -2.1486e-05)
(0.133356 -0.000299712 -6.83298e-05)
(0.133286 -3.82261e-05 0.000125233)
(0.133452 0.000330769 8.18258e-05)
(0.133662 0.00029337 0.000103595)
(0.133769 0.000170337 0.000327636)
(0.133697 -0.000112109 0.000120765)
(0.133567 4.95106e-05 -3.08629e-05)
(0.133627 5.73148e-05 -2.45388e-05)
(0.133601 -0.000141106 5.47723e-06)
(0.133516 5.4028e-05 -0.000227333)
(0.133563 0.000148267 -0.000190325)
(0.133594 -9.84579e-06 -0.000129144)
(0.133644 0.000108632 0.000173276)
(0.133675 -0.000240431 0.000249577)
(0.133596 -0.000363625 0.000259536)
(0.13357 -0.000292694 0.000147885)
(0.133409 -0.000381848 7.97632e-05)
(0.133386 3.69599e-05 1.29081e-05)
(0.133652 0.000100081 0.000121991)
(0.133676 -0.000282651 1.79494e-05)
(0.133447 -0.000166575 -3.48846e-05)
(0.133513 0.000229353 -2.51549e-05)
(0.133678 -2.31588e-05 -0.000156243)
(0.133704 -0.000109089 -0.000112761)
(0.133609 -0.000394686 -0.000370672)
(0.133394 -0.000138513 -0.000283289)
(0.133392 0.000211019 -0.000144913)
(0.133468 7.8056e-05 -1.91403e-05)
(0.133544 7.51164e-05 5.95349e-05)
(0.133569 -0.000102888 -0.000236695)
(0.133408 0.000117753 -0.000121735)
(0.133575 0.000119592 -0.000207611)
(0.133684 6.55145e-05 -4.61461e-05)
(0.133451 1.13556e-05 -0.000129449)
(0.133532 -0.000111466 -0.000219096)
(0.133649 8.61418e-05 -5.37927e-05)
(0.133543 -0.000121364 2.1325e-05)
(0.133544 7.47884e-05 -1.36617e-05)
(0.133732 1.01735e-05 3.10224e-05)
(0.13366 -0.00040544 -2.53108e-05)
(0.133405 -0.000241447 -5.1744e-05)
(0.133345 -5.45037e-06 8.48187e-05)
(0.133484 0.000285301 7.37025e-05)
(0.133652 0.000250678 8.57683e-05)
(0.133737 0.000153792 0.00024211)
(0.133688 -7.74803e-05 0.000103092)
(0.133584 1.30278e-05 -1.20735e-05)
(0.133616 2.40793e-05 -9.61547e-06)
(0.133606 -0.000105779 -3.07112e-06)
(0.133542 2.36701e-06 -0.000145319)
(0.133566 8.28456e-05 -0.000121245)
(0.133593 -3.64604e-06 -6.01546e-05)
(0.133628 5.73988e-05 0.000150114)
(0.133639 -0.000168129 0.000199433)
(0.133595 -0.00026303 0.000202721)
(0.133568 -0.000251811 0.000131477)
(0.133446 -0.000285256 6.86872e-05)
(0.133433 3.22681e-05 1.45152e-05)
(0.13363 8.19468e-05 8.61707e-05)
(0.133656 -0.000190015 1.92384e-05)
(0.133489 -0.00014046 -1.82437e-05)
(0.13353 0.000143823 -1.74103e-05)
(0.133654 -2.55463e-05 -0.000120753)
(0.133679 -9.63843e-05 -0.000116131)
(0.133609 -0.000295325 -0.000285251)
(0.133446 -0.000147202 -0.00022)
(0.133418 0.000102282 -0.000119203)
(0.133465 6.29185e-05 -4.43112e-05)
(0.133534 7.6118e-05 1.42438e-05)
(0.133576 -6.51191e-05 -0.000183888)
(0.13343 8.42826e-05 -0.000114381)
(0.133571 9.25942e-05 -0.000149752)
(0.133682 3.96264e-05 -4.92212e-05)
(0.13344 1.8198e-05 -0.000112274)
(0.133537 -5.43869e-05 -0.000173809)
(0.133647 6.60987e-05 -5.47944e-05)
(0.133542 -8.4604e-05 6.24945e-06)
(0.133558 5.53851e-05 -1.32202e-05)
(0.133688 1.38609e-05 9.07054e-06)
(0.133636 -0.000291926 -2.64554e-05)
(0.133444 -0.000183132 -4.09391e-05)
(0.133398 1.75792e-05 5.24603e-05)
(0.133508 0.000238377 5.94867e-05)
(0.13364 0.000209183 7.06392e-05)
(0.133706 0.000131087 0.000177534)
(0.133673 -5.06834e-05 8.51802e-05)
(0.133592 -7.71893e-06 -2.69261e-06)
(0.133606 2.79286e-06 -2.90892e-06)
(0.133604 -8.01568e-05 -5.01231e-06)
(0.133559 -2.34585e-05 -8.62398e-05)
(0.133568 3.79479e-05 -7.30891e-05)
(0.133591 -4.62435e-06 -2.00926e-05)
(0.133614 1.84919e-05 0.000122182)
(0.133612 -0.000123472 0.000158228)
(0.133586 -0.000188319 0.00015733)
(0.133567 -0.000204191 0.000112498)
(0.133474 -0.000210459 5.56456e-05)
(0.133468 2.33881e-05 1.33185e-05)
(0.133611 6.15328e-05 5.99631e-05)
(0.133636 -0.000128005 1.8984e-05)
(0.133518 -0.000113164 -7.62443e-06)
(0.133541 8.34026e-05 -1.59968e-05)
(0.133633 -2.64614e-05 -9.5201e-05)
(0.133655 -8.58898e-05 -0.000108835)
(0.133603 -0.00022453 -0.000215181)
(0.133481 -0.000142748 -0.000170128)
(0.13344 3.16489e-05 -0.000102374)
(0.133467 4.61839e-05 -5.83463e-05)
(0.133523 6.84598e-05 -1.62521e-05)
(0.133577 -3.5948e-05 -0.000142729)
(0.133445 6.27266e-05 -0.000103416)
(0.133565 7.21615e-05 -0.00011205)
(0.133677 2.49269e-05 -5.19732e-05)
(0.133435 2.02854e-05 -9.45276e-05)
(0.13354 -1.69786e-05 -0.000136069)
(0.133644 5.46407e-05 -5.29647e-05)
(0.133541 -5.10351e-05 -4.24604e-06)
(0.133567 4.22592e-05 -1.34695e-05)
(0.133654 1.39289e-05 -3.58925e-06)
(0.133616 -0.000202087 -2.5636e-05)
(0.133476 -0.000130604 -3.24129e-05)
(0.133442 3.0877e-05 3.04996e-05)
(0.133528 0.000192942 4.63323e-05)
(0.133628 0.000169846 5.82066e-05)
(0.133679 0.000106593 0.000128814)
(0.133657 -3.16906e-05 6.89425e-05)
(0.133596 -1.80218e-05 4.52562e-06)
(0.1336 -9.50807e-06 2.29379e-06)
(0.133601 -6.19787e-05 -2.40231e-06)
(0.13357 -3.64858e-05 -4.64209e-05)
(0.133571 8.47299e-06 -3.93981e-05)
(0.133589 -1.02885e-05 2.68543e-06)
(0.133602 -9.36092e-06 9.73395e-05)
(0.133593 -9.63678e-05 0.000124449)
(0.133577 -0.000135706 0.000121907)
(0.133564 -0.000159378 9.3257e-05)
(0.133498 -0.000153535 4.68743e-05)
(0.133495 1.2961e-05 1.42925e-05)
(0.133597 4.16459e-05 4.2194e-05)
(0.133617 -8.81611e-05 1.73332e-05)
(0.133538 -8.96587e-05 -1.7965e-06)
(0.13355 4.08134e-05 -1.44083e-05)
(0.133616 -2.69191e-05 -7.40693e-05)
(0.133635 -7.65599e-05 -9.46724e-05)
(0.133596 -0.000173633 -0.000160128)
(0.133505 -0.000131268 -0.000130699)
(0.133461 -1.159e-05 -8.63306e-05)
(0.133474 2.94529e-05 -6.1089e-05)
(0.133516 5.67159e-05 -3.28982e-05)
(0.133576 -1.51596e-05 -0.000110874)
(0.133455 4.84435e-05 -8.98477e-05)
(0.13356 5.61476e-05 -8.58734e-05)
(0.133674 1.81999e-05 -5.11854e-05)
(0.133433 2.09612e-05 -7.77058e-05)
(0.133542 6.49946e-06 -0.00010483)
(0.13364 4.77712e-05 -4.86793e-05)
(0.133539 -2.3466e-05 -1.08327e-05)
(0.133574 3.38383e-05 -1.36874e-05)
(0.133627 1.34255e-05 -9.90348e-06)
(0.1336 -0.000132788 -2.31494e-05)
(0.133502 -8.63657e-05 -2.54769e-05)
(0.133479 3.69787e-05 1.67332e-05)
(0.133543 0.000151947 3.52102e-05)
(0.133618 0.000134369 4.76531e-05)
(0.133656 8.34154e-05 9.29548e-05)
(0.133642 -1.86947e-05 5.53819e-05)
(0.133598 -2.14679e-05 1.00124e-05)
(0.133595 -1.52672e-05 6.4136e-06)
(0.133597 -4.89496e-05 1.76183e-06)
(0.133577 -4.0386e-05 -2.05981e-05)
(0.133575 -9.58711e-06 -1.67588e-05)
(0.133587 -1.81979e-05 1.40792e-05)
(0.133592 -2.69888e-05 7.63317e-05)
(0.13358 -7.90227e-05 9.70196e-05)
(0.13357 -9.95754e-05 9.43769e-05)
(0.133562 -0.000121157 7.58811e-05)
(0.133517 -0.000111622 4.0606e-05)
(0.133517 2.66849e-06 1.61324e-05)
(0.133586 2.39055e-05 3.07906e-05)
(0.133603 -6.27812e-05 1.54709e-05)
(0.133551 -7.02934e-05 1.34648e-06)
(0.133557 1.31194e-05 -1.2895e-05)
(0.133603 -2.7357e-05 -5.68841e-05)
(0.133618 -6.82194e-05 -7.80977e-05)
(0.133589 -0.000136262 -0.000117689)
(0.133522 -0.000116065 -9.94349e-05)
(0.133481 -3.44342e-05 -7.118e-05)
(0.133484 1.4526e-05 -5.7351e-05)
(0.133512 4.34009e-05 -3.94697e-05)
(0.133575 -1.47391e-06 -8.57502e-05)
(0.133463 3.8782e-05 -7.53412e-05)
(0.133555 4.43056e-05 -6.71643e-05)
(0.133672 1.60995e-05 -4.78465e-05)
(0.133433 2.15e-05 -6.2574e-05)
(0.133545 1.94408e-05 -7.96557e-05)
(0.133636 4.30111e-05 -4.29982e-05)
(0.133537 -2.9369e-06 -1.42875e-05)
(0.133578 2.89584e-05 -1.35619e-05)
(0.133608 1.34502e-05 -1.21661e-05)
(0.133589 -8.12846e-05 -1.99225e-05)
(0.133523 -5.12335e-05 -1.97513e-05)
(0.133507 3.84354e-05 8.38311e-06)
(0.133555 0.000117074 2.62132e-05)
(0.133609 0.000103837 3.84525e-05)
(0.133637 6.32979e-05 6.68559e-05)
(0.133628 -1.01894e-05 4.40657e-05)
(0.133597 -2.12252e-05 1.34204e-05)
(0.133592 -1.78692e-05 9.48319e-06)
(0.133594 -3.94911e-05 5.86903e-06)
(0.133581 -3.93338e-05 -4.74843e-06)
(0.133578 -2.02202e-05 -2.15589e-06)
(0.133585 -2.51098e-05 1.92609e-05)
(0.133585 -3.62405e-05 5.93713e-05)
(0.133573 -6.67319e-05 7.50953e-05)
(0.133566 -7.52229e-05 7.30289e-05)
(0.133561 -9.08297e-05 6.08827e-05)
(0.133532 -8.13148e-05 3.56695e-05)
(0.133533 -5.66539e-06 1.76661e-05)
(0.133579 9.52505e-06 2.35368e-05)
(0.133592 -4.668e-05 1.34938e-05)
(0.133559 -5.51724e-05 2.60932e-06)
(0.133562 -3.54367e-06 -1.11252e-05)
(0.133594 -2.76684e-05 -4.31555e-05)
(0.133605 -6.03782e-05 -6.19862e-05)
(0.133583 -0.000107985 -8.57929e-05)
(0.133533 -9.9553e-05 -7.51692e-05)
(0.133498 -4.40977e-05 -5.77003e-05)
(0.133496 2.82129e-06 -5.01217e-05)
(0.133512 3.07162e-05 -3.97456e-05)
(0.133575 6.41638e-06 -6.61335e-05)
(0.133468 3.20868e-05 -6.14608e-05)
(0.133552 3.6088e-05 -5.33767e-05)
(0.13367 1.65987e-05 -4.29057e-05)
(0.133435 2.25044e-05 -4.96839e-05)
(0.133547 2.55432e-05 -5.97958e-05)
(0.133633 3.8889e-05 -3.65415e-05)
(0.133535 1.07361e-05 -1.5868e-05)
(0.133579 2.62936e-05 -1.31635e-05)
(0.133594 1.42438e-05 -1.23908e-05)
(0.133581 -4.44123e-05 -1.64318e-05)
(0.133539 -2.51454e-05 -1.50587e-05)
(0.133529 3.7048e-05 3.71142e-06)
(0.133563 8.87225e-05 1.91742e-05)
(0.133602 7.86363e-05 3.03566e-05)
(0.133622 4.69713e-05 4.79768e-05)
(0.133616 -4.82598e-06 3.47925e-05)
(0.133596 -1.88299e-05 1.49565e-05)
(0.13359 -1.83533e-05 1.13893e-05)
(0.133591 -3.2538e-05 9.07913e-06)
(0.133582 -3.60091e-05 4.6393e-06)
(0.133579 -2.60434e-05 6.37572e-06)
(0.133582 -2.97303e-05 2.05304e-05)
(0.13358 -4.01061e-05 4.61515e-05)
(0.133569 -5.70788e-05 5.77272e-05)
(0.133563 -5.86729e-05 5.65328e-05)
(0.13356 -6.79802e-05 4.84376e-05)
(0.133543 -5.99164e-05 3.11051e-05)
(0.133544 -1.15089e-05 1.78982e-05)
(0.133574 -1.05398e-06 1.88897e-05)
(0.133583 -3.62867e-05 1.1531e-05)
(0.133564 -4.37491e-05 2.80686e-06)
(0.133565 -1.35419e-05 -9.42986e-06)
(0.133586 -2.75888e-05 -3.24893e-05)
(0.133594 -5.29133e-05 -4.78589e-05)
(0.133578 -8.59575e-05 -6.22524e-05)
(0.133541 -8.32321e-05 -5.65448e-05)
(0.133512 -4.57257e-05 -4.61944e-05)
(0.133507 -5.33714e-06 -4.22707e-05)
(0.133513 2.00961e-05 -3.65293e-05)
(0.133575 1.03732e-05 -5.08707e-05)
(0.133472 2.72343e-05 -4.91014e-05)
(0.133549 3.05695e-05 -4.27655e-05)
(0.13367 1.8022e-05 -3.7274e-05)
(0.133437 2.3289e-05 -3.88539e-05)
(0.133548 2.79287e-05 -4.45959e-05)
(0.133632 3.53077e-05 -3.03191e-05)
(0.133533 1.89672e-05 -1.58069e-05)
(0.133579 2.49476e-05 -1.24058e-05)
(0.133585 1.5597e-05 -1.15688e-05)
(0.133576 -1.90997e-05 -1.32191e-05)
(0.13355 -6.71251e-06 -1.119e-05)
(0.133545 3.40982e-05 1.37216e-06)
(0.133569 6.64865e-05 1.38099e-05)
(0.133596 5.85882e-05 2.33496e-05)
(0.133609 3.43287e-05 3.43237e-05)
(0.133606 -1.63836e-06 2.71774e-05)
(0.133593 -1.5521e-05 1.50035e-05)