/*--------------------------------*- C++ -*----------------------------------*\
  =========                 |
  \\      /  F ield         | OpenFOAM: The Open Source CFD Toolbox
   \\    /   O peration     | Website:  https://openfoam.org
    \\  /    A nd           | Version:  10
     \\/     M anipulation  |
\*---------------------------------------------------------------------------*/
FoamFile
{
    format      ascii;
    class       volVectorField;
    location    "50";
    object      U;
}
// * * * * * * * * * * * * * * * * * * * * * * * * * * * * * * * * * * * * * //

dimensions      [0 1 -1 0 0 0 0];

internalField   nonuniform List<vector> 
102400
(
(0.577298 0.00286834 0.447971)
(0.736038 0.000322412 0.403586)
(0.638458 0.000542159 0.393112)
(0.603715 0.00160558 0.381235)
(0.666219 0.00276901 0.396643)
(0.623715 0.00296237 0.371638)
(0.612847 0.00135014 0.398389)
(0.672101 0.00324778 0.420437)
(0.589604 0.00362037 0.383057)
(0.62213 0.00220497 0.354008)
(0.742532 -0.000387028 0.409927)
(0.584017 0.00378423 0.396175)
(0.65993 0.0121556 0.340148)
(0.726436 0.00219997 0.355068)
(0.648871 0.00278507 0.356582)
(0.643024 0.00376112 0.341129)
(0.65985 0.00264583 0.392946)
(0.647022 0.00272395 0.391788)
(0.637674 0.00322021 0.36608)
(0.659292 0.00209894 0.38775)
(0.652984 0.000969351 0.411263)
(0.616088 0.00307599 0.37981)
(0.622093 0.00271174 0.341634)
(0.643853 0.00386202 0.368598)
(0.599909 0.00207794 0.383281)
(0.639036 0.000381804 0.37528)
(0.647416 0.00233206 0.403667)
(0.644194 0.000711549 0.38359)
(0.638579 0.000446114 0.35038)
(0.653513 0.0013336 0.359338)
(0.659944 0.00139261 0.386374)
(0.59059 0.00394146 0.401356)
(0.578032 0.000498352 0.400536)
(0.663809 -0.00053373 0.384079)
(0.66671 0.00300334 0.383176)
(0.634054 0.00207644 0.397478)
(0.651777 0.00267163 0.405695)
(0.699369 0.00272677 0.393486)
(0.631973 0.00224924 0.380204)
(0.502482 0.00334513 0.389046)
(0.580263 -0.0337431 0.48534)
(0.88246 -0.0128001 0.377515)
(0.57266 0.00680185 0.348777)
(0.531609 7.40199e-06 0.342327)
(0.689826 0.00757906 0.355739)
(0.631074 0.00560769 0.316096)
(0.613588 -0.0111377 0.377071)
(0.684715 0.00354108 0.38142)
(0.462361 0.0107202 0.322806)
(0.558683 -0.0183447 0.273889)
(0.820488 0.00223389 0.385416)
(0.41434 0.0162717 0.291831)
(0.864093 -0.0449168 0.320955)
(0.922768 -0.00763175 0.305939)
(0.705541 0.00406284 0.282182)
(0.66045 -0.0129382 0.309409)
(0.636691 0.00140736 0.352292)
(0.668451 0.00671386 0.334546)
(0.642726 0.00259415 0.284519)
(0.66994 -0.000392064 0.329071)
(0.611737 0.00143907 0.367876)
(0.553247 0.00887932 0.30669)
(0.605547 0.00467046 0.230822)
(0.638185 0.014754 0.284098)
(0.514079 0.00425622 0.325581)
(0.623128 -0.000967503 0.307391)
(0.635606 -0.000132863 0.376396)
(0.636247 -0.000275368 0.315305)
(0.601929 0.00125819 0.252133)
(0.655965 0.00571297 0.26883)
(0.678096 0.0107298 0.348768)
(0.509807 0.0139271 0.356082)
(0.528016 -0.0117146 0.334844)
(0.72187 -0.00976897 0.304259)
(0.67628 0.00797631 0.316838)
(0.558344 0.0048651 0.352306)
(0.635768 0.00203144 0.371214)
(0.768248 0.00653604 0.351912)
(0.566788 0.0185034 0.300265)
(0.301905 -0.00623637 0.386064)
(0.714689 -0.0890534 0.384401)
(0.955766 -0.0341726 0.340539)
(0.47071 0.0116258 0.312766)
(0.52811 -0.00557512 0.320077)
(0.722414 0.0130901 0.313242)
(0.681713 0.0028506 0.287295)
(0.620263 -0.0321859 0.372671)
(0.610926 -0.000323369 0.355622)
(0.369307 0.00615049 0.339258)
(0.527575 -0.0644456 0.212084)
(0.807746 0.00214703 0.331525)
(0.329149 0.0187347 0.29203)
(0.838967 -0.121464 0.185202)
(0.97304 -0.0264418 0.237057)
(0.802557 -0.00348106 0.240065)
(0.675301 -0.0483101 0.301662)
(0.545897 -0.0120335 0.318281)
(0.725968 0.00526066 0.306396)
(0.687396 -0.00712046 0.256364)
(0.632597 -0.0119517 0.323539)
(0.554197 -0.00230696 0.322133)
(0.545065 0.00187765 0.270953)
(0.601908 -0.00495293 0.225814)
(0.632268 0.0226709 0.209522)
(0.437395 -0.00540141 0.342697)
(0.603025 -0.0139412 0.294888)
(0.607111 -0.0149223 0.359977)
(0.622759 -0.00664714 0.314051)
(0.544276 -0.00145983 0.199494)
(0.659988 0.00621791 0.167593)
(0.709446 0.0202238 0.294722)
(0.485397 0.0247294 0.291631)
(0.534223 -0.0514734 0.318256)
(0.808848 -0.0387037 0.281098)
(0.730996 0.0111529 0.279704)
(0.490816 0.00878022 0.308962)
(0.602322 -0.00611791 0.342384)
(0.76423 0.00635726 0.295429)
(0.501778 0.0325329 0.251323)
(0.180243 -0.0235611 0.333201)
(0.788853 -0.101073 0.227153)
(0.912409 -0.0413833 0.267885)
(0.461063 0.018196 0.279934)
(0.531732 0.000709197 0.306522)
(0.754866 0.033723 0.27161)
(0.681999 0.0104002 0.244417)
(0.518371 -0.0330144 0.346656)
(0.451655 -0.00173332 0.364765)
(0.378438 -0.0122609 0.335781)
(0.640931 -0.0978067 0.126017)
(0.768437 0.00284636 0.262533)
(0.396287 0.0231005 0.358987)
(0.790246 -0.128515 0.232695)
(0.899696 -0.0354879 0.216538)
(0.867476 -0.00246239 0.227114)
(0.646514 -0.0541439 0.251072)
(0.453656 -0.0247905 0.274415)
(0.768828 0.00701707 0.302758)
(0.707916 -0.00498661 0.235985)
(0.611796 -0.026676 0.317343)
(0.543692 -0.0120146 0.291761)
(0.556598 -0.00156711 0.246389)
(0.578646 -0.00966739 0.236816)
(0.595987 0.039579 0.169596)
(0.38651 -0.0295784 0.365287)
(0.585635 -0.0321862 0.276413)
(0.564891 -0.0271151 0.297703)
(0.588736 -0.0112337 0.348711)
(0.479988 -0.000998244 0.220971)
(0.664598 0.00537677 0.10998)
(0.731473 0.0350303 0.238458)
(0.50918 0.0418329 0.229672)
(0.560887 -0.0852548 0.284644)
(0.800742 -0.0758739 0.274796)
(0.77653 0.0170585 0.265317)
(0.478959 0.020748 0.273692)
(0.572578 -0.00492149 0.303296)
(0.694144 0.0127074 0.240508)
(0.513381 0.0391622 0.213463)
(0.200069 -0.0195636 0.266181)
(0.77158 -0.104975 0.110973)
(0.844077 -0.0456381 0.197928)
(0.534692 0.0259193 0.254496)
(0.516284 9.51025e-05 0.259121)
(0.765196 0.05082 0.22833)
(0.62025 0.028534 0.200316)
(0.394651 -0.0244992 0.322743)
(0.352493 -0.0113618 0.389502)
(0.469464 -0.0302376 0.309814)
(0.804087 -0.102336 0.0940768)
(0.705052 0.00417527 0.198061)
(0.480581 0.0267257 0.390012)
(0.885588 -0.149086 0.245894)
(0.861843 -0.0569175 0.188887)
(0.879421 0.000168301 0.238912)
(0.631631 -0.0521716 0.238751)
(0.465104 -0.0375227 0.256914)
(0.752559 0.0070848 0.289765)
(0.718463 -0.0038457 0.212617)
(0.631821 -0.0415733 0.281942)
(0.546699 -0.0246793 0.268428)
(0.568983 -0.0103747 0.217471)
(0.591371 -0.0164496 0.234221)
(0.561529 0.0407891 0.210709)
(0.40262 -0.0547165 0.327158)
(0.594204 -0.0448083 0.226695)
(0.580397 -0.0308406 0.217964)
(0.575603 -0.0218876 0.352702)
(0.468923 -0.00341025 0.284662)
(0.656133 0.000390275 0.128275)
(0.744668 0.0493834 0.197232)
(0.499397 0.0548159 0.198212)
(0.598707 -0.109546 0.253914)
(0.727443 -0.10853 0.274655)
(0.797769 0.0221893 0.2665)
(0.519028 0.0338904 0.241167)
(0.566017 -0.000751005 0.25336)
(0.65545 0.0156607 0.200356)
(0.539939 0.0358647 0.170089)
(0.29137 -0.00836786 0.164039)
(0.728 -0.112237 0.0201231)
(0.836746 -0.0569098 0.163541)
(0.605807 0.0327624 0.221469)
(0.576512 -0.00875295 0.204759)
(0.742016 0.06104 0.18739)
(0.565737 0.052528 0.172666)
(0.408292 -0.0148746 0.291182)
(0.367658 -0.0172863 0.365559)
(0.575498 -0.0299094 0.358845)
(0.87868 -0.0821331 0.10362)
(0.731464 0.00507967 0.147971)
(0.513728 0.0277277 0.376519)
(0.941844 -0.16048 0.203291)
(0.879187 -0.0738462 0.146873)
(0.848932 0.00800732 0.231496)
(0.636428 -0.0515158 0.227686)
(0.516031 -0.0428795 0.244111)
(0.736285 0.00644016 0.254983)
(0.727019 -0.00187891 0.187759)
(0.651038 -0.0401085 0.265277)
(0.606835 -0.0329539 0.2544)
(0.552599 -0.0177163 0.19289)
(0.549519 -0.0171523 0.222811)
(0.468494 0.0328927 0.193384)
(0.459886 -0.0693699 0.324229)
(0.607353 -0.0515405 0.2126)
(0.654843 -0.0239634 0.163196)
(0.613168 -0.0337729 0.304107)
(0.51809 -0.0102142 0.301908)
(0.642483 -0.00277238 0.148988)
(0.770833 0.0635023 0.171966)
(0.432834 0.0700591 0.194499)
(0.693765 -0.147142 0.221702)
(0.638071 -0.145503 0.281056)
(0.810474 0.0217141 0.281441)
(0.582361 0.0442885 0.215313)
(0.55259 0.00279362 0.213431)
(0.677777 0.0176682 0.140311)
(0.590593 0.0301594 0.160894)
(0.385784 0.0021042 0.098219)
(0.742849 -0.113585 -0.0191088)
(0.809105 -0.0671119 0.143736)
(0.659422 0.0441789 0.214957)
(0.702536 -0.0112353 0.219867)
(0.750152 0.0630253 0.143484)
(0.59735 0.0713212 0.139525)
(0.517209 0.0019108 0.242209)
(0.454964 -0.0107444 0.282532)
(0.564156 -0.0308455 0.384036)
(0.870842 -0.0676589 0.0910633)
(0.856437 0.0101072 0.111624)
(0.524095 0.0216307 0.308613)
(0.954038 -0.15477 0.193806)
(0.890474 -0.083446 0.124549)
(0.859879 0.0152646 0.20912)
(0.654459 -0.0451796 0.222128)
(0.549793 -0.0442142 0.222892)
(0.783095 0.00124784 0.208601)
(0.711269 -0.000150519 0.160003)
(0.701691 -0.0415942 0.247527)
(0.678734 -0.0343914 0.23609)
(0.574603 -0.0213358 0.188528)
(0.50511 -0.0161955 0.227155)
(0.543938 0.0421907 0.164951)
(0.505659 -0.0774733 0.307709)
(0.597019 -0.0640149 0.237023)
(0.761145 -0.0161988 0.129397)
(0.697453 -0.0401729 0.23262)
(0.571116 -0.0195714 0.276749)
(0.685551 -0.0104472 0.129715)
(0.809713 0.075534 0.157634)
(0.370244 0.0833381 0.194942)
(0.845616 -0.171858 0.151844)
(0.519214 -0.176245 0.278325)
(0.746826 0.0154635 0.298682)
(0.632919 0.047118 0.227916)
(0.499177 -0.00020921 0.195843)
(0.798286 0.0116384 0.0555816)
(0.739701 0.0307168 0.154894)
(0.492516 0.0217325 0.0757446)
(0.834965 -0.105418 -0.0137256)
(0.76793 -0.0764609 0.0969264)
(0.699412 0.0473129 0.271795)
(0.789671 0.00124164 0.289572)
(0.822837 0.0617509 0.143668)
(0.620391 0.0827772 0.136247)
(0.556593 0.0133955 0.189488)
(0.541617 0.00403878 0.19619)
(0.485664 -0.0249219 0.348465)
(0.811819 -0.0538085 0.0486748)
(0.906851 0.0140529 0.0343577)
(0.648775 0.0240745 0.251267)
(0.985974 -0.143379 0.158015)
(0.873959 -0.0783992 0.113575)
(0.90385 0.0276888 0.189966)
(0.690489 -0.0300688 0.232739)
(0.571022 -0.0426017 0.197137)
(0.837082 -0.00229316 0.155437)
(0.665096 -0.000384782 0.134627)
(0.765266 -0.0514096 0.202917)
(0.662369 -0.0396034 0.201065)
(0.704865 -0.0188914 0.162846)
(0.456432 -0.031192 0.227827)
(0.652874 0.0559197 0.145015)
(0.526408 -0.0725973 0.255326)
(0.544148 -0.0791098 0.250846)
(0.897617 -0.0118033 0.0853774)
(0.84329 -0.0402935 0.14269)
(0.620829 -0.0276603 0.249666)
(0.754279 -0.0162796 0.118193)
(0.759246 0.0936173 0.167446)
(0.387987 0.0806445 0.180223)
(0.940257 -0.179762 0.0927516)
(0.465512 -0.187639 0.279255)
(0.613799 0.00274175 0.303942)
(0.620944 0.0398134 0.286731)
(0.497119 -0.0110877 0.156284)
(0.963463 -0.0147925 -0.0205304)
(0.877372 0.0338438 0.125205)
(0.627432 0.0390871 0.0951497)
(0.904176 -0.0934115 -0.0192412)
(0.819505 -0.0843249 0.0696683)
(0.691324 0.0491866 0.315363)
(0.796146 0.015015 0.283636)
(0.931282 0.0496685 0.154234)
(0.692644 0.0917629 0.132521)
(0.569906 0.0311228 0.125202)
(0.61972 0.0269818 0.118586)
(0.513554 -0.0055675 0.302499)
(0.696734 -0.0491363 0.0518823)
(0.930637 0.0119594 -0.0739516)
(0.781166 0.0275395 0.154885)
(1.03323 -0.135942 0.101733)
(0.890675 -0.0837506 0.0917936)
(0.95277 0.0369049 0.160953)
(0.736888 -0.0133533 0.234878)
(0.590557 -0.0334905 0.155894)
(0.834928 -0.00909834 0.098883)
(0.667276 0.000654582 0.120357)
(0.840328 -0.0534432 0.173373)
(0.68232 -0.0564851 0.158651)
(0.813624 -0.0145246 0.120283)
(0.529666 -0.0435185 0.189668)
(0.669132 0.0555119 0.133)
(0.596961 -0.0583493 0.224485)
(0.523686 -0.094731 0.262349)
(1.00443 -0.0141612 0.031388)
(0.966628 -0.0334574 0.0649363)
(0.670364 -0.031808 0.238695)
(0.777362 -0.0191182 0.121183)
(0.627314 0.117689 0.187868)
(0.490902 0.0677729 0.130816)
(0.972995 -0.180824 0.0545659)
(0.521463 -0.192219 0.267207)
(0.552535 -0.0203693 0.260428)
(0.63656 0.0152605 0.343401)
(0.566146 -0.0290813 0.104314)
(0.999645 -0.0507724 -0.0712245)
(0.877934 0.039886 0.060274)
(0.795199 0.0617291 0.130174)
(0.899728 -0.091027 -0.0433903)
(0.855339 -0.0959566 0.0622346)
(0.58085 0.0587082 0.321129)
(0.7768 0.00649343 0.23242)
(1.02167 0.0298336 0.126626)
(0.709318 0.0980443 0.128078)
(0.565808 0.043221 0.070731)
(0.655118 0.0268718 0.0689506)
(0.61806 0.0202763 0.245621)
(0.610599 -0.0365677 0.0910133)
(0.944357 -0.00706861 -0.154822)
(0.891107 0.0287159 0.0509905)
(1.0298 -0.0918466 0.117384)
(0.871951 -0.0714469 0.104914)
(0.95993 0.0412981 0.125977)
(0.746125 0.00691635 0.230926)
(0.637243 -0.00125672 0.102497)
(0.806829 -0.0158846 0.0483455)
(0.714057 0.00733608 0.116079)
(0.894024 -0.0424539 0.159539)
(0.800613 -0.0585951 0.137528)
(0.90083 -0.0147467 0.122842)
(0.576986 -0.0398004 0.170242)
(0.685254 0.0556535 0.114162)
(0.689051 -0.0300421 0.181331)
(0.597309 -0.0949269 0.265471)
(1.05899 -0.0202888 -0.0207528)
(1.001 -0.0236467 0.0152379)
(0.705187 -0.0321513 0.243147)
(0.748757 -0.0117691 0.142668)
(0.543573 0.133407 0.187511)
(0.596819 0.0548199 0.0704018)
(0.974522 -0.172346 0.021979)
(0.590327 -0.183543 0.251293)
(0.580434 -0.0372866 0.237107)
(0.646947 -0.0109846 0.296335)
(0.654648 -0.0580301 0.119005)
(0.92279 -0.0572566 -0.0262055)
(0.753119 0.0419684 0.0628903)
(0.884636 0.0635839 0.164804)
(0.89145 -0.0751998 -0.0665989)
(0.810971 -0.103058 0.0709948)
(0.515201 0.0576671 0.295303)
(0.737391 -0.00522202 0.221508)
(1.01515 -0.00119275 0.106406)
(0.742871 0.101322 0.120573)
(0.58977 0.0700901 0.0351997)
(0.651841 0.0338475 0.0102216)
(0.663409 0.0411191 0.193697)
(0.684896 -0.0139026 0.0873307)
(0.957306 -0.0263263 -0.151886)
(0.873489 0.0379833 0.048543)
(1.00625 -0.0659752 0.147331)
(0.848218 -0.0554356 0.119781)
(0.912921 0.0436683 0.109104)
(0.711828 0.00855169 0.223562)
(0.670018 0.0246132 0.0947792)
(0.796745 -0.0200971 0.027503)
(0.722381 0.0141969 0.105749)
(0.855453 -0.0319249 0.144792)
(0.825647 -0.0513218 0.102787)
(0.883412 -0.0103628 0.162791)
(0.574312 -0.0271055 0.17099)
(0.713601 0.0464907 0.100249)
(0.707868 -0.0149141 0.123532)
(0.681609 -0.0923506 0.242083)
(1.03171 -0.0150819 -0.042005)
(0.997169 -0.000372265 -0.00261001)
(0.754536 -0.0357042 0.228781)
(0.770122 -0.00898986 0.163239)
(0.566576 0.140944 0.17411)
(0.568016 0.0404567 0.0272243)
(0.9594 -0.181332 -0.0122569)
(0.640055 -0.172027 0.231089)
(0.595128 -0.0424326 0.216121)
(0.644658 -0.0237179 0.206439)
(0.711061 -0.0780019 0.12314)
(0.844014 -0.0445775 0.0257744)
(0.681021 0.0419204 0.150286)
(0.913906 0.0571586 0.179218)
(0.956729 -0.0540163 -0.0723519)
(0.726586 -0.108226 0.100153)
(0.546649 0.0482365 0.241887)
(0.777681 0.00147699 0.200785)
(0.915231 -0.00164417 0.110947)
(0.653594 0.119461 0.0933618)
(0.543309 0.0747768 0.0273228)
(0.637752 0.00551764 -0.0225191)
(0.629041 0.0424411 0.149262)
(0.751844 0.00219608 0.0630646)
(0.946376 -0.0269695 -0.120666)
(0.850541 0.0450953 0.0752745)
(0.95187 -0.0304399 0.159614)
(0.837272 -0.0317799 0.0931594)
(0.953069 0.0321472 0.0839409)
(0.714326 0.00541389 0.18529)
(0.718813 0.0454935 0.0634277)
(0.752538 -0.0271641 0.0216746)
(0.690784 0.0183307 0.118946)
(0.842575 -0.014489 0.134642)
(0.773292 -0.0429836 0.0645648)
(0.803999 -0.00691361 0.216073)
(0.586006 -0.00908511 0.165757)
(0.799623 0.0392277 0.0764431)
(0.735328 0.000579977 0.0641986)
(0.743743 -0.0790161 0.207894)
(0.975015 -0.0078119 -0.0221185)
(1.00599 0.0203341 -0.00867687)
(0.813424 -0.0305504 0.205892)
(0.834153 -0.00634447 0.171229)
(0.537887 0.127367 0.156829)
(0.472495 0.0211018 0.0119506)
(0.908011 -0.20092 -0.00646505)
(0.770946 -0.182576 0.189219)
(0.60171 -0.0525611 0.203791)
(0.684948 -0.0208262 0.122638)
(0.713555 -0.0772531 0.0778335)
(0.798681 -0.0352548 0.0311402)
(0.709003 0.0173456 0.151046)
(0.925591 0.0484597 0.173533)
(0.967865 -0.0258439 -0.0622231)
(0.715201 -0.104499 0.0714505)
(0.526864 0.0238236 0.229238)
(0.781546 0.000280908 0.206777)
(0.87905 -0.00105925 0.136186)
(0.631591 0.123098 0.056613)
(0.537191 0.0837401 0.0390625)
(0.652195 -0.00291081 0.00258696)
(0.596618 0.0346737 0.111555)
(0.73082 0.0126923 0.0772876)
(0.910565 -0.0241956 -0.0725291)
(0.880275 0.0618994 0.0733978)
(0.928195 -0.0143281 0.134001)
(0.8437 -0.0122632 0.0236664)
(1.03567 0.0127486 0.0446008)
(0.761891 -0.0115316 0.142344)
(0.726531 0.0485218 0.0468567)
(0.723971 -0.0324575 0.0152944)
(0.646403 0.00470594 0.156429)
(0.791026 -0.00418831 0.145868)
(0.814079 -0.0323755 0.0345369)
(0.777191 -0.0241129 0.234803)
(0.588541 -0.0212365 0.153512)
(0.864595 0.0279114 0.0325177)
(0.786468 0.030645 -0.00167944)
(0.76604 -0.0642781 0.14447)
(0.963793 -0.00189292 -0.0158686)
(0.952668 0.0256955 -0.0332697)
(0.915854 -0.0287831 0.17863)
(0.8827 0.0119069 0.143167)
(0.526643 0.122791 0.137132)
(0.507223 0.0300229 0.0314555)
(0.920056 -0.188186 0.0633813)
(0.82965 -0.174204 0.179135)
(0.575126 -0.0576048 0.222407)
(0.730628 -0.00884935 0.0977393)
(0.725304 -0.0570911 0.0653478)
(0.730067 -0.0394915 0.0311506)
(0.662025 0.00425679 0.125666)
(0.876504 0.0305571 0.201854)
(0.99897 -0.000106463 -0.0137263)
(0.730857 -0.074386 0.037237)
(0.494756 -0.0240577 0.239514)
(0.754241 -0.0236374 0.237303)
(0.836628 0.00997351 0.15246)
(0.704007 0.124689 0.059513)
(0.542583 0.0773123 0.0630037)
(0.670649 -0.0346722 0.0314889)
(0.635516 0.0121095 0.0888375)
(0.74944 0.0230018 0.080746)
(0.87988 -0.0357896 -0.0130396)
(0.785833 0.0499743 0.115911)
(0.888954 0.00112395 0.142226)
(0.831636 -0.0049399 0.00186054)
(1.00568 0.00233722 0.0374329)
(0.798956 -0.00992375 0.125232)
(0.674155 0.0634509 0.0652596)
(0.739795 -0.0267163 0.000849805)
(0.619427 -0.000910833 0.167728)
(0.767087 0.00890496 0.13784)
(0.841057 -0.0311944 0.00173025)
(0.828554 -0.0289939 0.200699)
(0.641095 -0.0253439 0.168466)
(0.837706 0.0205697 -0.00262081)
(0.862755 0.0539337 -0.0464868)
(0.780307 -0.0384937 0.0823866)
(1.01376 -0.00798633 -0.0449364)
(0.926475 0.0240486 -0.066245)
(0.914742 -0.0254885 0.177927)
(0.817393 0.0330093 0.118418)
(0.617073 0.12663 0.114933)
(0.641708 0.0429462 0.0663959)
(1.00207 -0.148561 0.0751902)
(0.830742 -0.114917 0.188685)
(0.521914 -0.0528516 0.232498)
(0.711142 -0.019691 0.141113)
(0.745565 -0.0242062 0.0737637)
(0.699993 -0.0275795 0.0387521)
(0.58802 -0.015545 0.149171)
(0.819525 0.0143578 0.228902)
(0.961735 -0.00645309 0.0357114)
(0.802117 -0.0389991 -0.00102124)
(0.509619 -0.0306386 0.210846)
(0.718408 -0.0414487 0.262638)
(0.754106 -0.00399857 0.138708)
(0.789608 0.113902 0.108542)
(0.6675 0.114254 0.0882054)
(0.700251 0.000798792 0.023663)
(0.637738 -0.00323468 0.090384)
(0.750032 0.0224602 0.0813263)
(0.902322 0.000320441 0.00553181)
(0.778406 0.072427 0.10927)
(0.92681 -0.012976 0.119224)
(0.886315 -0.0116279 -0.00784449)
(0.963278 0.0252789 0.0357922)
(0.808026 0.00506658 0.135272)
(0.660719 0.076302 0.0794173)
(0.794707 -0.0217222 -0.0236651)
(0.604214 -0.0329071 0.155234)
(0.766729 0.0161037 0.121909)
(0.923953 -0.0113866 -0.0206431)
(0.917268 -0.0160457 0.169605)
(0.666541 -0.0293727 0.171505)
(0.838907 0.0130103 0.00341058)
(0.870193 0.0964473 -0.0630883)
(0.810705 -0.0156915 0.0575948)
(1.06206 -0.0148445 -0.0640576)
(0.911843 0.0377803 -0.0655868)
(0.825158 -0.0203827 0.162382)
(0.847785 0.0486344 0.0772018)
(0.758387 0.14009 0.123416)
(0.689471 0.0597581 0.129328)
(0.977891 -0.135119 0.0633147)
(0.858468 -0.0992204 0.16949)
(0.614628 -0.0577277 0.218083)
(0.650204 -0.0181297 0.178242)
(0.747543 -0.0162641 0.059042)
(0.798901 -0.0410693 0.0195085)
(0.664893 -0.0152215 0.113237)
(0.753926 -0.0233899 0.216221)
(1.02572 -0.0133537 0.0544076)
(0.765319 0.0220803 0.0302437)
(0.491531 -0.0236519 0.221895)
(0.65808 -0.0625745 0.266461)
(0.801772 0.0148037 0.117373)
(0.727099 0.108837 0.14287)
(0.602271 0.100887 0.0841404)
(0.650859 -0.0199171 0.00994317)
(0.637605 -0.0213653 0.06905)
(0.742133 0.0282121 0.0569204)
(0.84261 -0.0240309 0.0502483)
(0.7365 0.0418218 0.10381)
(0.975993 0.0443273 0.060901)
(0.862246 -0.00140162 -0.00274518)
(0.867521 0.0481238 0.0216467)
(0.72152 0.0181782 0.150594)
(0.689959 0.0751129 0.126149)
(0.902402 0.0111218 -0.0215679)
(0.640238 -0.00715686 0.144237)
(0.763625 0.0173894 0.096462)
(0.940714 -0.0401781 -0.0293795)
(0.99993 -0.00567678 0.109637)
(0.753641 -0.000640023 0.122188)
(0.823791 -0.00862837 0.0730445)
(0.909819 0.0855049 -0.0253272)
(0.799763 0.000555902 0.0464599)
(1.0241 -0.00711533 -0.0333847)
(0.984889 0.0867952 -0.0951432)
(0.859848 -0.00344888 0.109468)
(0.83344 0.0382951 0.0254818)
(0.81031 0.138997 0.112058)
(0.753491 0.0655782 0.171895)
(1.00438 -0.113708 0.0657403)
(0.822592 -0.0396982 0.11825)
(0.773572 -0.022648 0.148806)
(0.695708 -0.0147463 0.196692)
(0.834899 0.00895529 0.0959004)
(0.883437 -0.0493907 -0.00482456)
(0.613534 -0.0150454 0.0850251)
(0.709003 -0.00291714 0.206153)
(0.974616 0.0278833 0.0624713)
(0.716157 0.0628633 0.000611638)
(0.659303 -0.0173153 0.12492)
(0.592095 -0.0844879 0.232254)
(0.77092 0.0261277 0.0761174)
(0.74823 0.093398 0.152096)
(0.764507 0.126459 0.0968642)
(0.847858 0.0753231 -0.0261167)
(0.756743 0.000679348 0.0183085)
(0.783495 0.0382889 0.0226048)
(0.951338 0.0286799 0.0495984)
(0.68061 0.0517176 0.0759304)
(0.847592 0.0315954 0.0723362)
(0.971418 0.009956 0.0331442)
(0.984964 0.0944326 -0.0329397)
(0.696001 0.0188998 0.101232)
(0.686077 0.052187 0.138654)
(0.968673 0.0308511 0.00459182)
(0.630009 -0.0384628 0.141551)
(0.79055 0.0183915 0.0976574)
(0.984883 0.0222631 -0.0048105)
(0.950657 0.0588227 0.0838649)
(0.761108 0.0289626 0.0765444)
(0.799036 -0.0304008 0.0882015)
(0.939439 0.114889 -0.00296061)
(0.773268 0.0303 0.0752424)
(0.943266 -0.04976 0.0567494)
(0.990255 0.096699 -0.109081)
(0.870177 0.0306134 0.0798166)
(0.94874 0.0409437 0.0442214)
(0.816415 0.158678 0.0376976)
(0.859918 0.128705 0.144491)
(1.09322 -0.085027 0.102296)
(0.871145 -0.0210277 0.103468)
(0.931026 -0.0204521 0.0587944)
(0.722839 -0.0105495 0.165966)
(0.884157 0.0209779 0.124282)
(0.94077 -0.0458382 -0.0236924)
(0.6574 -0.026208 0.0629201)
(0.700435 -0.0390795 0.177151)
(0.765749 -0.00721327 0.138975)
(0.906996 0.12499 0.0078994)
(0.796354 0.0226791 0.027888)
(0.751078 -0.0810413 0.173845)
(0.887638 0.0158522 0.123597)
(0.779618 0.0304335 0.139501)
(0.832197 0.0851388 0.0937175)
(0.788267 0.0553295 -0.0130501)
(0.865511 0.00533936 -0.023725)
(0.630903 0.0488729 0.043746)
(0.950378 0.0294997 0.0527339)
(0.857138 0.0399513 0.0462084)
(0.940135 0.0577194 0.027746)
(0.947195 -0.0266149 0.0616254)
(0.964623 0.110953 0.0364049)
(1.00621 0.114414 0.0113566)
(0.663391 0.032164 0.0846676)
(1.00945 0.0752868 0.000709385)
(0.843809 0.0577664 0.0243381)
(0.672944 0.0163265 0.16295)
(1.03503 -0.0350505 0.0454128)
(1.03852 0.0287081 0.0135916)
(0.9032 0.0901085 0.0408334)
(0.851343 -0.0532062 0.072629)
(0.842873 0.052626 0.0678203)
(0.883558 0.0475307 0.0909455)
(0.916063 -0.0197515 0.055092)
(0.89638 0.140035 -0.103937)
(0.766628 0.0517389 0.064137)
(0.944901 -0.0133582 0.0296068)
(0.880064 0.120658 -0.0147774)
(0.878393 0.106206 0.129678)
(1.12394 -0.0468606 0.126569)
(0.953081 0.0239044 0.131135)
(1.06539 0.012135 0.0459352)
(0.786135 -0.0280777 0.10951)
(0.883986 0.00367402 0.162646)
(0.974244 -0.0404372 0.00357942)
(0.848557 0.00157223 0.0247284)
(0.637829 -0.0124357 0.1699)
(0.646024 -0.028216 0.125125)
(0.764639 0.0722993 0.0261654)
(0.996416 0.0353345 0.0254017)
(0.687103 -0.0775854 0.16701)
(0.901875 0.0322078 0.128247)
(1.07578 0.0445108 0.113299)
(0.688926 0.073773 0.131828)
(0.87698 0.149061 -0.0163255)
(0.890163 0.0908423 -0.0894744)
(0.705446 0.0578303 -0.0138856)
(1.11629 -0.0229091 0.0442077)
(0.874886 -0.0103774 0.0235944)
(1.00424 0.0565048 -0.0388984)
(0.905226 0.0288991 0.0213503)
(0.811501 0.0593065 0.0471616)
(0.98296 0.103312 -0.0141512)
(0.6816 0.107333 0.0934953)
(0.97269 0.0650692 0.0223991)
(0.804098 0.022211 -0.0267714)
(0.847581 0.0230648 0.126679)
(0.991692 -0.00209364 0.115728)
(0.883261 0.110023 0.0475296)
(0.952585 0.141823 0.0183207)
(0.883075 -0.0472231 0.0237853)
(0.854833 0.0499725 0.101492)
(0.829298 0.0422358 0.131379)
(0.792617 -0.00899694 0.054447)
(0.898034 0.110783 -0.1537)
(0.959507 0.098342 -0.056097)
(0.99822 0.0426304 -0.0079922)
(0.855568 0.125338 -0.0255912)
(0.898236 0.154599 0.0305866)
(0.985477 0.00676374 0.101425)
(0.87987 0.0628849 0.13059)
(1.12655 0.0216822 0.0456834)
(0.950203 0.00576756 0.0320035)
(0.796781 0.0347537 0.0930727)
(0.836728 -0.0370232 0.00582809)
(0.877532 0.0409878 0.00854164)
(0.82115 0.00679155 0.112471)
(0.54047 -0.0265464 0.113065)
(0.810338 0.00539407 0.0391574)
(0.960107 0.0342146 0.0587655)
(0.812295 -0.00431632 0.17202)
(0.746913 -0.044965 0.147096)
(1.10256 0.0376032 0.0973671)
(0.866117 0.133253 0.0993978)
(0.829217 0.0316622 0.0682928)
(1.01912 0.0628573 0.0111493)
(0.791391 0.0862222 -0.0702828)
(1.19687 0.0136387 -0.0192044)
(0.849489 0.0495179 0.0903819)
(0.873582 0.0516724 0.0110082)
(1.21689 -0.0305503 -0.0299839)
(1.21886 0.100676 0.00452811)
(0.981556 0.180763 -0.0966941)
(0.660649 0.0124511 0.0762924)
(0.93216 0.0581688 0.0688909)
(0.862333 0.101743 -0.0378027)
(0.703639 0.0297767 0.0918204)
(0.969017 -0.0610256 0.14888)
(0.856626 -0.00828769 0.0597659)
(0.912431 0.185219 -0.0605335)
(0.989039 0.0109051 -0.0489274)
(1.01503 -0.0285465 0.0493748)
(0.981929 0.0313003 0.147249)
(0.752507 0.0203109 0.116214)
(1.00136 0.0829084 -0.113966)
(1.09087 0.0802116 -0.122054)
(0.986718 0.0227792 -0.0139966)
(0.800513 0.0920571 0.0172555)
(0.738181 0.146174 -0.0156133)
(0.999545 0.0344811 0.0699567)
(0.884666 0.0845918 0.151947)
(1.06903 0.062723 0.0825096)
(1.09427 0.0110295 0.0285351)
(1.08069 0.06043 0.0498817)
(0.960325 -0.00818516 -0.00887758)
(0.857724 0.0128667 0.021171)
(0.776195 0.0534195 0.123364)
(0.792511 -0.0239803 0.0993875)
(0.613331 -0.0502239 0.08571)
(0.811813 0.0345049 0.0579393)
(1.14622 0.0170572 0.0742912)
(0.923361 -0.0463408 0.0993339)
(0.857419 -0.0492305 0.0969224)
(1.10017 0.0817275 0.0568048)
(0.931052 0.108777 0.118635)
(1.05173 0.11394 0.0986321)
(0.757284 0.0654378 -0.0229368)
(1.09379 -0.0166438 -0.0052954)
(1.17271 0.00930589 0.0577034)
(0.849521 0.00352693 0.067871)
(1.1695 -0.0809181 -0.0549046)
(0.901479 -0.0171197 0.0480086)
(1.28805 0.200114 -0.0871172)
(1.23193 0.176843 -0.0871902)
(0.904741 0.0358798 0.104669)
(0.910974 0.0657125 0.00797945)
(0.752738 0.0132301 0.016064)
(1.19476 -0.0847293 0.101164)
(1.05305 0.109113 0.059017)
(1.01236 0.177609 -0.0294118)
(0.980049 -0.0606305 -0.00952508)
(1.04974 -0.036026 0.0402884)
(0.816927 0.0520603 0.133183)
(0.782958 0.00697933 0.124062)
(0.907671 -0.100645 -0.0801582)
(0.971542 0.0561385 -0.159195)
(1.18554 0.182326 -0.0674714)
(0.84234 0.140074 0.0401458)
(0.927212 0.140212 -0.0293055)
(1.00782 0.0625875 0.0229438)
(0.812912 0.129629 0.165813)
(1.02724 0.0233966 0.0831796)
(0.919073 -0.0381709 0.0612318)
(1.14602 0.0994807 0.0841831)
(1.03489 0.0704438 -0.0443407)
(0.729337 0.056074 -0.0114712)
(0.727274 0.0315147 0.110443)
(0.964258 0.0328276 0.107424)
(0.838311 0.0878163 0.0868796)
(0.822856 -0.0297175 -0.0146453)
(1.15654 -0.0385524 0.031342)
(0.989226 0.0259372 0.000918513)
(0.739839 -0.0824566 0.0248401)
(0.934629 0.0705138 0.00393)
(0.9508 0.00247714 0.113013)
(0.904307 0.055863 0.166427)
(0.667957 0.150044 0.0194921)
(1.20469 -0.0432845 0.0112684)
(1.0861 0.0499797 0.0864801)
(0.743445 0.0644129 0.102824)
(1.01982 0.0176215 -0.0189683)
(0.859693 -0.0245438 0.0510916)
(1.45622 0.166178 -0.0556159)
(1.24804 0.148486 -0.0915503)
(1.12945 0.0810343 0.0740205)
(1.18684 0.17498 -0.0168618)
(0.921929 0.0347583 -0.0114593)
(0.925226 -0.102945 0.0888895)
(0.939644 -0.0686488 0.0715365)
(1.05672 0.18175 -0.0413729)
(1.09955 0.136544 -0.111241)
(1.22062 -0.0217406 -0.0560622)
(0.849201 -0.00212782 0.0914874)
(0.795963 -0.0202696 0.150548)
(0.757905 0.000492955 0.0518727)
(0.688291 0.0352202 -0.0402712)
(1.12062 0.0582402 -0.131484)
(1.02407 0.114989 -0.0185696)
(1.0196 0.102748 0.00304313)
(1.00654 0.0598997 0.0421779)
(0.839655 0.111726 0.132493)
(1.1771 0.170798 -0.0270189)
(0.977234 -0.0327492 0.0138276)
(0.866158 -0.00279666 0.120074)
(1.08915 0.212543 -0.0529229)
(1.10512 0.122563 -0.0694363)
(0.948551 0.0121828 -0.0138608)
(0.81037 0.0356758 0.041845)
(1.01805 0.12632 0.0690236)
(0.983807 0.0399697 0.00927889)
(1.05907 -0.0715451 0.0118803)
(1.04415 0.0233058 0.0202946)
(0.965763 -0.0376356 0.0473676)
(0.947783 0.0403293 -0.0373425)
(0.937521 0.117151 0.0176006)
(1.03324 0.201614 0.0681706)
(0.802382 0.089526 -0.084787)
(1.17721 -0.0311513 -0.067873)
(1.09735 0.0954097 0.0284781)
(0.762711 0.00659809 0.0973635)
(0.753369 -0.0838935 -0.0429475)
(0.892833 -0.183542 -0.0224211)
(1.24398 -0.00791463 0.00926925)
(1.1327 0.225123 -0.0867579)
(0.907823 0.091582 -0.00681688)
(1.22442 0.0235733 0.0230308)
(1.18542 0.0554713 0.0133705)
(1.11182 0.000417987 0.0210659)
(1.06772 0.0801318 0.074363)
(1.06413 0.204608 0.0316535)
(1.11354 0.0619447 -0.0630732)
(1.20925 0.0706561 -0.150611)
(1.06831 0.0697479 -0.0249343)
(0.901943 -0.00132142 0.139651)
(0.800124 -0.0368424 0.0876606)
(0.858828 -0.0602273 0.0825188)
(1.29404 0.128964 -0.0560864)
(1.16236 0.139712 -0.0019793)
(0.93305 0.0454009 0.0399701)
(0.928859 0.140819 0.0713722)
(0.852849 0.143506 0.163613)
(1.17916 0.0932623 0.00291735)
(1.11472 0.0950662 0.0706346)
(0.762325 0.091181 0.133598)
(0.884666 0.0713356 0.0366887)
(1.09828 0.166406 -0.0487829)
(1.0882 0.0865946 -0.0997397)
(0.931632 0.148348 0.0741593)
(1.20995 0.184275 0.0151295)
(1.10996 0.0468691 -0.0420728)
(1.18373 0.00154864 0.051049)
(1.10782 0.107319 0.00734416)
(0.896156 -0.085396 0.0636228)
(0.977142 0.0634477 -0.0309549)
(0.783257 0.0064981 -0.0268441)
(0.974644 0.0906919 0.139346)
(0.953738 0.256299 0.0176014)
(0.849198 -0.0362907 -0.0842406)
(1.22834 0.0983162 -0.0734236)
(1.09454 0.183807 0.108866)
(1.07719 0.0877852 0.0467297)
(0.848961 -0.137429 -0.0159578)
(1.26188 0.119942 -0.0402618)
(1.15654 0.222788 -0.116964)
(0.996458 0.00343996 0.0334848)
(1.19833 0.0803592 0.056071)
(0.970166 0.0790423 0.0461242)
(0.915688 0.0118915 0.0783232)
(0.812597 -0.0664701 0.00942072)
(1.14633 -0.00609805 -0.109702)
(1.18644 0.107558 -0.130718)
(1.11411 0.112585 -0.0635968)
(1.39323 0.0435271 -0.0210695)
(1.05575 0.0165219 0.0475079)
(1.1207 0.182856 -0.0455805)
(1.08018 -0.0127896 0.054051)
(1.04676 -0.0807236 0.112154)
(1.22351 0.109209 0.0579565)
(1.16692 0.175317 -0.00424315)
(1.02981 0.128668 0.0723759)
(0.838634 0.0581901 0.163585)