/*--------------------------------*- C++ -*----------------------------------*\
  =========                 |
  \\      /  F ield         | OpenFOAM: The Open Source CFD Toolbox
   \\    /   O peration     | Website:  https://openfoam.org
    \\  /    A nd           | Version:  10
     \\/     M anipulation  |
\*---------------------------------------------------------------------------*/
FoamFile
{
    format      ascii;
    class       surfaceScalarField;
    location    "25";
    object      phi_0;
}
// * * * * * * * * * * * * * * * * * * * * * * * * * * * * * * * * * * * * * //

dimensions      [0 3 -1 0 0 0 0];

internalField   nonuniform List<scalar> 
74080
(
4.9116e-06
2.63742e-10
5.93337e-10
4.91156e-06
3.46169e-11
4.68309e-10
4.91183e-06
-2.50147e-10
5.54751e-10
4.91141e-06
4.8092e-10
6.71319e-10
4.91163e-06
-1.87819e-10
4.28749e-10
4.91178e-06
-7.18232e-11
6.80737e-10
4.91134e-06
5.41853e-10
4.17431e-10
4.91185e-06
-4.37891e-10
3.88084e-10
4.91165e-06
3.33551e-10
4.7203e-10
4.91159e-06
1.70331e-10
4.42945e-11
4.91195e-06
-2.32115e-10
2.99578e-10
4.91173e-06
3.46696e-10
-8.70196e-11
4.91186e-06
-2.10089e-11
-1.51283e-10
4.91201e-06
-9.00659e-12
-1.28262e-10
4.91199e-06
1.16921e-10
-5.54426e-10
4.91199e-06
1.20537e-10
-3.65522e-10
4.91224e-06
-1.591e-10
-7.08596e-10
4.91214e-06
1.82382e-10
-7.53439e-10
4.91215e-06
7.17711e-11
-7.97215e-10
4.91247e-06
-2.84872e-10
-9.83503e-10
4.91214e-06
3.80152e-10
-1.00684e-09
4.9124e-06
-2.38221e-10
-1.03867e-09
4.91251e-06
-1.24863e-10
-1.14507e-09
4.91213e-06
4.02933e-10
-1.10105e-09
4.91264e-06
-5.7089e-10
-1.11203e-09
4.91229e-06
3.20492e-10
-1.16382e-09
4.91229e-06
-6.08724e-11
-9.5645e-10
4.91254e-06
-3.29091e-10
-1.09368e-09
4.91212e-06
3.54453e-10
-8.67696e-10
4.91241e-06
-3.87718e-10
-8.06328e-10
4.91217e-06
1.48719e-10
-7.74301e-10
4.91221e-06
-1.34844e-10
-4.97765e-10
4.91209e-06
2.02364e-11
-5.3846e-10
4.91206e-06
-5.60058e-11
-2.6395e-10
4.91208e-06
-1.13541e-10
-2.13436e-10
4.91179e-06
2.13445e-10
-3.68692e-11
4.91202e-06
-3.08571e-10
9.47709e-11
4.91177e-06
1.93041e-10
1.61983e-10
4.91168e-06
4.83621e-11
3.92551e-10
-2.20568e-10
2.85311e-10
1.65284e-05
8.71816e-10
1.92141e-09
1.65284e-05
1.85039e-11
1.55109e-09
1.65287e-05
-4.87297e-10
1.92059e-09
1.65279e-05
1.45819e-09
2.03239e-09
1.65285e-05
-5.84051e-10
1.53738e-09
1.65286e-05
1.15502e-10
2.07823e-09
1.65279e-05
1.52507e-09
1.29443e-09
1.65289e-05
-1.17381e-09
1.32255e-09
1.65284e-05
1.22368e-09
1.24435e-09
1.65285e-05
4.14578e-10
2.42805e-10
1.65292e-05
-4.8373e-10
7.55771e-10
1.65288e-05
1.11682e-09
-4.30514e-10
1.65293e-05
-7.51875e-11
-4.64014e-10
1.65296e-05
1.02099e-10
-7.57791e-10
1.65296e-05
4.05609e-10
-1.74266e-09
1.65298e-05
3.25301e-10
-1.41191e-09
1.65303e-05
-4.0336e-10
-2.43947e-09
1.65302e-05
5.92975e-10
-2.47005e-09
1.65304e-05
8.31745e-11
-2.79358e-09
1.65309e-05
-7.28446e-10
-3.23918e-09
1.65304e-05
1.05739e-09
-3.33966e-09
1.65311e-05
-8.42093e-10
-3.47714e-09
1.65311e-05
-2.20749e-10
-3.7318e-09
1.65306e-05
9.57451e-10
-3.60539e-09
1.65315e-05
-1.70025e-09
-3.6744e-09
1.65308e-05
9.8328e-10
-3.67524e-09
1.65309e-05
-4.35181e-10
-3.18283e-09
1.65312e-05
-8.77211e-10
-3.45437e-09
1.65304e-05
9.04841e-10
-2.73689e-09
1.65309e-05
-1.2286e-09
-2.63419e-09
1.65304e-05
4.33258e-10
-2.31381e-09
1.65304e-05
-4.86122e-10
-1.62116e-09
1.65301e-05
3.50329e-11
-1.58822e-09
1.65299e-05
-2.39304e-10
-7.59492e-10
1.65298e-05
-2.72624e-10
-6.06557e-10
1.65292e-05
5.35204e-10
2.17215e-11
1.65296e-05
-8.80586e-10
3.61859e-10
1.65289e-05
6.61916e-10
6.92762e-10
1.65288e-05
4.5331e-11
1.26208e-09
-5.16657e-10
1.10249e-09
3.1192e-05
1.74021e-09
3.41918e-09
3.1192e-05
-1.73394e-14
2.86752e-09
3.11922e-05
-5.59959e-10
3.56662e-09
3.11912e-05
2.78193e-09
3.58014e-09
3.11919e-05
-1.02862e-09
2.9698e-09
3.11919e-05
6.37081e-10
3.64973e-09
3.11912e-05
2.79885e-09
2.40088e-09
3.11925e-05
-1.95326e-09
2.47259e-09
3.11919e-05
2.57875e-09
2.07459e-09
3.11922e-05
7.38093e-10
6.28001e-10
3.11931e-05
-6.06326e-10
1.1859e-09
3.11927e-05
2.21064e-09
-7.7639e-10
3.11934e-05
-9.85035e-11
-7.98662e-10
3.11939e-05
3.686e-10
-1.61353e-09
3.11941e-05
8.43452e-10
-3.01924e-09
3.11945e-05
5.92721e-10
-2.78021e-09
3.11953e-05
-6.58361e-10
-4.4543e-09
3.11952e-05
1.15671e-09
-4.51482e-09
3.11957e-05
1.06645e-11
-5.23472e-09
3.11964e-05
-1.23343e-09
-5.90184e-09
3.11959e-05
1.85068e-09
-6.15644e-09
3.11968e-05
-1.72258e-09
-6.41881e-09
3.11968e-05
-2.87157e-10
-6.81883e-09
3.11963e-05
1.47229e-09
-6.63366e-09
3.11975e-05
-3.19294e-09
-6.7752e-09
3.11965e-05
1.80277e-09
-6.65329e-09
3.11968e-05
-1.12721e-09
-5.95e-09
3.1197e-05
-1.56316e-09
-6.2395e-09
3.1196e-05
1.46493e-09
-5.03367e-09
3.11966e-05
-2.40366e-09
-4.8794e-09
3.11957e-05
7.56256e-10
-4.12761e-09
3.11957e-05
-1.02812e-09
-3.08226e-09
3.11951e-05
4.11039e-12
-2.81368e-09
3.11949e-05
-5.33503e-10
-1.42999e-09
3.11945e-05
-4.53089e-10
-1.10337e-09
3.11937e-05
8.79775e-10
6.54458e-11
3.1194e-05
-1.57983e-09
6.24605e-10
3.1193e-05
1.3311e-09
1.33935e-09
3.11928e-05
5.74732e-12
2.21169e-09
-7.64651e-10
2.13799e-09
4.95359e-05
2.85731e-09
4.99382e-09
4.95358e-05
1.81278e-11
4.36777e-09
4.95359e-05
-4.45261e-10
5.42838e-09
4.95347e-05
4.46243e-09
5.36305e-09
4.95355e-05
-1.47757e-09
4.72028e-09
4.95354e-05
1.51847e-09
5.48219e-09
4.95346e-05
4.38151e-09
3.84701e-09
4.95362e-05
-2.73399e-09
3.91452e-09
4.95354e-05
4.42725e-09
3.16937e-09
4.9536e-05
1.15391e-09
1.30809e-09
4.95371e-05
-5.52986e-10
1.78458e-09
4.95367e-05
3.63538e-09
-9.1783e-10
4.95378e-05
-7.17659e-11
-1.02734e-09
4.95385e-05
8.23098e-10
-2.44344e-09
4.95388e-05
1.43053e-09
-4.25425e-09
4.95395e-05
9.38871e-10
-4.28898e-09
4.95405e-05
-9.10554e-10
-6.57696e-09
4.95406e-05
1.87044e-09
-6.79884e-09
4.95414e-05
-1.44755e-10
-7.96381e-09
4.95423e-05
-1.79507e-09
-8.90493e-09
4.95419e-05
2.74006e-09
-9.39914e-09
4.95431e-05
-2.8784e-09
-9.8195e-09
4.95432e-05
-3.34725e-10
-1.04161e-08
4.95427e-05
1.91946e-09
-1.02122e-08
4.95442e-05
-5.04931e-09
-1.04624e-08
4.95429e-05
2.75781e-09
-1.02143e-08
4.95434e-05
-2.16526e-09
-9.35382e-09
4.95436e-05
-2.38458e-09
-9.60122e-09
4.95423e-05
2.00003e-09
-7.94441e-09
4.9543e-05
-3.92817e-09
-7.70008e-09
4.95418e-05
1.11997e-09
-6.45887e-09
4.95417e-05
-1.79827e-09
-5.07593e-09
4.95409e-05
-6.68181e-11
-4.44736e-09
4.95405e-05
-9.49045e-10
-2.5105e-09
4.95398e-05
-6.64278e-10
-1.91044e-09
4.95388e-05
1.24466e-09
-1.34793e-10
4.95389e-05
-2.40238e-09
7.0067e-10
4.95375e-05
2.2046e-09
1.90438e-09
4.95372e-05
-6.55444e-11
3.10766e-09
-9.30028e-10
3.24512e-09
7.22691e-05
4.2102e-09
6.46776e-09
7.22689e-05
8.88427e-11
5.89503e-09
7.22688e-05
-1.59395e-10
7.39281e-09
7.22672e-05
6.52094e-09
7.35901e-09
7.22682e-05
-1.92704e-09
6.74844e-09
7.22679e-05
2.76625e-09
7.65936e-09
7.2267e-05
6.30021e-09
5.71517e-09
7.22688e-05
-3.51453e-09
5.7785e-09
7.22679e-05
6.80271e-09
4.75193e-09
7.22687e-05
1.67294e-09
2.44972e-09
7.227e-05
-2.96139e-10
2.84158e-09
7.22697e-05
5.42184e-09
-5.97249e-10
7.22712e-05
2.54776e-11
-8.83593e-10
7.22721e-05
1.49725e-09
-2.91151e-09
7.22727e-05
2.17959e-09
-5.20042e-09
7.22737e-05
1.39742e-09
-5.6127e-09
7.2275e-05
-1.14776e-09
-8.54182e-09
7.22753e-05
2.75909e-09
-9.08607e-09
7.22765e-05
-3.64257e-10
-1.0716e-08
7.22777e-05
-2.40596e-09
-1.20747e-08
7.22773e-05
3.74756e-09
-1.28954e-08
7.2279e-05
-4.30407e-09
-1.35531e-08
7.22792e-05
-3.57617e-10
-1.4453e-08
7.22788e-05
2.31077e-09
-1.4295e-08
7.22805e-05
-7.27661e-09
-1.47475e-08
7.22791e-05
3.85701e-09
-1.44327e-08
7.22797e-05
-3.55697e-09
-1.34761e-08
7.22799e-05
-3.34333e-09
-1.37104e-08
7.22785e-05
2.50395e-09
-1.16544e-08
7.22792e-05
-5.81687e-09
-1.13159e-08
7.22777e-05
1.52864e-09
-9.59668e-09
7.22775e-05
-2.82549e-09
-7.86615e-09
7.22764e-05
-1.73414e-10
-6.82409e-09
7.22758e-05
-1.50502e-09
-4.31374e-09
7.22749e-05
-9.20064e-10
-3.35756e-09
7.22734e-05
1.63542e-09
-9.27522e-10
7.22734e-05
-3.36878e-09
2.85463e-10
7.22716e-05
3.27926e-09
2.07789e-09
7.2271e-05
-1.76119e-10
3.70094e-09
-1.01276e-09
4.16643e-09
0.000100218
5.77597e-09
7.52288e-09
0.000100217
1.88781e-10
7.13279e-09
0.000100217
2.49672e-10
9.2311e-09
0.000100215
8.9702e-09
9.41599e-09
0.000100216
-2.42628e-09
8.92114e-09
0.000100215
4.37239e-09
1.0189e-08
0.000100214
8.56623e-09
8.01919e-09
0.000100216
-4.33962e-09
8.1809e-09
0.000100215
9.74229e-09
7.02128e-09
0.000100216
2.28055e-09
4.24892e-09
0.000100218
1.74415e-10
4.68977e-09
0.000100217
7.59413e-09
4.9357e-10
0.000100219
1.99765e-10
1.64403e-11
0.00010022
2.42502e-09
-2.60452e-09
0.000100221
3.11155e-09
-5.47127e-09
0.000100223
2.01531e-09
-6.28875e-09
0.000100224
-1.35481e-09
-9.95043e-09
0.000100225
3.87967e-09
-1.09713e-08
0.000100226
-6.15452e-10
-1.30863e-08
0.000100228
-3.04158e-09
-1.50702e-08
0.000100228
4.93961e-09
-1.63244e-08
0.00010023
-5.98936e-09
-1.73486e-08
0.00010023
-3.10886e-10
-1.87239e-08
0.00010023
2.69211e-09
-1.87114e-08
0.000100232
-9.87417e-09
-1.95403e-08
0.000100231
5.15494e-09
-1.92862e-08
0.000100232
-5.29527e-09
-1.83327e-08
0.000100232
-4.42205e-09
-1.86963e-08
0.00010023
3.00166e-09
-1.63083e-08
0.000100231
-8.07901e-09
-1.59622e-08
0.000100229
2.00323e-09
-1.38368e-08
0.000100229
-4.12823e-09
-1.17677e-08
0.000100228
-3.0661e-10
-1.03525e-08
0.000100227
-2.22492e-09
-7.22881e-09
0.000100226
-1.23345e-09
-5.89336e-09
0.000100224
2.04197e-09
-2.7541e-09
0.000100223
-4.52048e-09
-1.07262e-09
0.000100221
4.547e-09
1.41213e-09
0.00010022
-3.60696e-10
3.58548e-09
-1.04061e-09
4.49084e-09
0.000134329
7.51543e-09
7.64767e-09
0.000134328
2.50523e-10
7.53838e-09
0.000134327
7.09372e-10
1.0505e-08
0.000134325
1.17956e-08
1.11706e-08
0.000134326
-3.08134e-09
1.09053e-08
0.000134325
6.31124e-09
1.28944e-08
0.000134323
1.11516e-08
1.06123e-08
0.000134326
-5.30363e-09
1.10979e-08
0.000134324
1.32742e-08
1.00681e-08
0.000134325
2.91564e-09
6.8313e-09
0.000134327
8.48339e-10
7.61114e-09
0.000134327
1.01656e-08
2.65558e-09
0.000134329
4.40831e-10
2.08234e-09
0.00013433
3.63428e-09
-1.06768e-09
0.000134331
4.24041e-09
-4.57324e-09
0.000134333
2.84325e-09
-5.7425e-09
0.000134335
-1.51612e-09
-1.02487e-08
0.000134336
5.31311e-09
-1.1879e-08
0.000134338
-8.57087e-10
-1.4494e-08
0.00013434
-3.65722e-09
-1.73257e-08
0.00013434
6.42296e-09
-1.91687e-08
0.000134343
-7.91745e-09
-2.07036e-08
0.000134344
-9.72636e-11
-2.28111e-08
0.000134344
3.13608e-09
-2.30732e-08
0.000134347
-1.28163e-08
-2.45416e-08
0.000134345
6.76118e-09
-2.45578e-08
0.000134346
-7.35877e-09
-2.37612e-08
0.000134347
-5.55921e-09
-2.45351e-08
0.000134345
3.55021e-09
-2.19139e-08
0.000134346
-1.07023e-08
-2.17762e-08
0.000134344
2.59642e-09
-1.93928e-08
0.000134344
-5.7071e-09
-1.70571e-08
0.000134342
-4.37461e-10
-1.54336e-08
0.000134341
-3.12697e-09
-1.16704e-08
0.000134339
-1.6026e-09
-1.00292e-08
0.000134337
2.44875e-09
-6.14587e-09
0.000134337
-5.90435e-09
-3.96589e-09
0.000134334
5.98824e-09
-6.66717e-10
0.000134332
-6.84968e-10
2.17513e-09
-1.05728e-09
3.61146e-09
0.00017568
9.38088e-09
6.13174e-09
0.000175679
1.71957e-10
6.30672e-09
0.000175678
1.13678e-09
1.0478e-08
0.000175674
1.49484e-08
1.19734e-08
0.000175675
-4.04726e-09
1.204e-08
0.000175674
8.53655e-09
1.52785e-08
0.000175672
1.39768e-08
1.30535e-08
0.000175674
-6.55174e-09
1.41834e-08
0.000175672
1.74012e-08
1.37289e-08
0.000175673
3.45383e-09
1.00784e-08
0.000175675
1.68341e-09
1.16752e-08
0.000175675
1.31185e-08
6.02859e-09
0.000175677
6.78767e-10
5.62979e-09
0.000175679
5.15444e-09
2.08215e-09
0.00017568
5.54696e-09
-2.02879e-09
0.000175682
3.91523e-09
-3.379e-09
0.000175685
-1.63029e-09
-8.77983e-09
0.000175686
7.14002e-09
-1.11142e-08
0.000175689
-1.04841e-09
-1.4205e-08
0.000175691
-4.20368e-09
-1.80335e-08
0.000175692
8.33214e-09
-2.06946e-08
0.000175695
-1.00711e-08
-2.28212e-08
0.000175696
4.27696e-10
-2.60082e-08
0.000175697
3.73386e-09
-2.66828e-08
0.0001757
-1.60466e-08
-2.91191e-08
0.000175699
8.84249e-09
-2.97124e-08
0.0001757
-9.71373e-09
-2.9265e-08
0.000175701
-6.62651e-09
-3.08939e-08
0.000175699
4.23634e-09
-2.81861e-08
0.000175701
-1.36335e-08
-2.86148e-08
0.000175698
3.41002e-09
-2.62398e-08
0.000175698
-7.5347e-09
-2.37996e-08
0.000175696
-4.94622e-10
-2.22973e-08
0.000175695
-4.20709e-09
-1.79445e-08
0.000175693
-1.99036e-09
-1.61999e-08
0.000175691
2.85192e-09
-1.16006e-08
0.00017569
-7.55567e-09
-9.03383e-09
0.000175686
7.6346e-09
-4.85325e-09
0.000175685
-1.22761e-09
-1.2495e-09
-1.09534e-09
7.22265e-10
0.000225481
1.13491e-08
2.17142e-09
0.000225479
-1.57337e-10
2.4536e-09
0.000225478
1.46896e-09
8.1003e-09
0.000225473
1.83615e-08
1.08836e-08
0.000225474
-5.50422e-09
1.12684e-08
0.000225472
1.09933e-08
1.63978e-08
0.000225469
1.69163e-08
1.4492e-08
0.000225472
-8.27073e-09
1.65745e-08
0.000225469
2.20957e-08
1.7387e-08
0.00022547
3.70417e-09
1.34056e-08
0.000225472
2.59328e-09
1.65018e-08
0.000225471
1.63869e-08
1.03437e-08
0.000225474
7.6929e-10
1.05984e-08
0.000225475
6.9628e-09
6.93654e-09
0.000225477
6.94539e-09
2.384e-09
0.000225479
5.21823e-09
1.19552e-09
0.000225483
-1.73398e-09
-4.97611e-09
0.000225484
9.3973e-09
-8.00887e-09
0.000225487
-1.16821e-09
-1.14978e-08
0.00022549
-4.66728e-09
-1.6228e-08
0.000225491
1.08022e-08
-2.00228e-08
0.000225496
-1.2456e-08
-2.26528e-08
0.000225497
1.42614e-09
-2.72972e-08
0.000225498
4.5778e-09
-2.85055e-08
0.000225502
-1.94995e-08
-3.22205e-08
0.0002255
1.16144e-08
-3.37942e-08
0.000225503
-1.23301e-08
-3.38693e-08
0.000225504
-7.42741e-09
-3.69468e-08
0.000225502
5.16697e-09
-3.43625e-08
0.000225504
-1.67732e-08
-3.58256e-08
0.000225502
4.60937e-09
-3.38834e-08
0.000225502
-9.55104e-09
-3.16039e-08
0.0002255
-3.398e-10
-3.07333e-08
0.000225499
-5.41707e-09
-2.59983e-08
0.000225497
-2.30501e-09
-2.45247e-08
0.000225494
3.29642e-09
-1.93209e-08
0.000225493
-9.47088e-09
-1.67574e-08
0.000225489
9.53859e-09
-1.16538e-08
0.000225487
-2.05396e-09
-7.31489e-09
-1.19434e-09
-5.07514e-09
0.000285068
1.34872e-08
-4.85099e-09
0.000285066
-8.05288e-10
-4.8503e-09
0.000285064
1.71274e-09
2.19843e-09
0.000285059
2.19969e-08
6.83056e-09
0.000285059
-7.60664e-09
7.29017e-09
0.000285056
1.36599e-08
1.48564e-08
0.000285053
1.98341e-08
1.36814e-08
0.000285055
-1.0644e-08
1.6816e-08
0.000285051
2.73174e-08
1.98026e-08
0.000285052
3.43578e-09
1.55924e-08
0.000285053
3.44703e-09
2.10219e-08
0.000285052
1.98781e-08
1.46193e-08
0.000285055
4.813e-10
1.62415e-08
0.000285056
8.99834e-09
1.29335e-08
0.000285058
8.2958e-09
8.26545e-09
0.00028506
6.65484e-09
7.80456e-09
0.000285064
-1.92955e-09
1.25022e-09
0.000285065
1.20217e-08
-2.19198e-09
0.000285069
-1.24114e-09
-6.05616e-09
0.000285073
-5.12229e-09
-1.10712e-08
0.000285074
1.39196e-08
-1.63638e-08
0.000285079
-1.51372e-08
-1.9172e-08
0.000285081
3.01634e-09
-2.54819e-08
0.000285083
5.73063e-09
-2.73204e-08
0.000285088
-2.31562e-08
-3.24459e-08
0.000285086
1.53101e-08
-3.54383e-08
0.00028509
-1.52268e-08
-3.61157e-08
0.000285091
-7.7226e-09
-4.12669e-08
0.00028509
6.45074e-09
-3.90734e-08
0.000285093
-2.00059e-08
-4.20783e-08
0.000285091
6.42485e-09
-4.10972e-08
0.000285091
-1.168e-08
-3.93841e-08
0.000285089
2.28451e-10
-3.97599e-08
0.000285088
-6.64418e-09
-3.50456e-08
0.000285086
-2.405e-09
-3.45116e-08
0.000285083
3.91178e-09
-2.87771e-08
0.000285082
-1.15856e-08
-2.70638e-08
0.000285077
1.18345e-08
-2.11879e-08
0.000285075
-3.14196e-09
-1.61434e-08
-1.30139e-09
-1.44898e-08
0.000355886
1.59812e-08
-1.48801e-08
0.000355884
-1.78268e-09
-1.56353e-08
0.000355881
2.01621e-09
-7.97027e-09
0.000355875
2.59211e-08
-9.95748e-10
0.000355875
-1.04076e-08
-8.63429e-10
0.000355871
1.66234e-08
9.12829e-09
0.000355867
2.26411e-08
9.27201e-09
0.000355869
-1.37676e-08
1.31874e-08
0.000355863
3.3061e-08
1.91566e-08
0.000355865
2.46601e-09
1.486e-08
0.000355865
4.10732e-09
2.34405e-08
0.000355863
2.35319e-08
1.69995e-08
0.000355866
-4.54636e-10
2.09228e-08
0.000355866
1.11592e-08
1.85246e-08
0.000355868
9.41769e-09
1.43049e-08
0.00035587
8.01523e-09
1.53163e-08
0.000355874
-2.31693e-09
8.80197e-09
0.000355875
1.48188e-08
6.05417e-09
0.00035588
-1.36522e-09
1.45172e-09
0.000355884
-5.75374e-09
-2.46108e-09
0.000355884
1.765e-08
-9.41904e-09
0.000355891
-1.82683e-08
-1.19949e-08
0.000355892
5.1944e-09
-1.96197e-08
0.000355895
7.17086e-09
-2.21437e-08
0.000355901
-2.71171e-08
-2.84861e-08
0.0003559
2.01154e-08
-3.3124e-08
0.000355905
-1.85447e-08
-3.43796e-08
0.000355906
-7.30153e-09
-4.2021e-08
0.000355906
8.13706e-09
-4.03709e-08
0.00035591
-2.32873e-08
-4.55023e-08
0.000355908
9.10965e-09
-4.57808e-08
0.000355909
-1.38719e-08
-4.52688e-08
0.000355907
1.40987e-09
-4.74927e-08
0.000355907
-7.70723e-09
-4.31186e-08
0.000355905
-2.15585e-09
-4.48503e-08
0.000355902
4.91008e-09
-3.82719e-08
0.000355901
-1.37546e-08
-3.87277e-08
0.000355896
1.46983e-08
-3.27849e-08
0.000355894
-4.33198e-09
-2.66688e-08
-1.31906e-09
-2.73533e-08
0.000439449
1.91265e-08
-2.67031e-08
0.000439446
-2.99564e-09
-2.83714e-08
0.000439443
2.68682e-09
-2.16243e-08
0.000439436
3.02206e-08
-1.23974e-08
0.000439436
-1.38194e-08
-1.28412e-08
0.000439431
2.01617e-08
-1.51333e-09
0.000439426
2.53173e-08
3.956e-10
0.000439428
-1.75074e-08
4.71755e-09
0.000439421
3.94082e-08
1.35997e-08
0.000439422
7.89797e-10
9.42926e-09
0.000439422
4.52877e-09
2.18217e-08
0.000439419
2.73982e-08
1.49589e-08
0.000439421
-2.20278e-09
2.24765e-08
0.000439421
1.3354e-08
2.11472e-08
0.000439422
1.02455e-08
1.80489e-08
0.000439424
9.02023e-09
2.17872e-08
0.000439428
-2.96155e-09
1.48156e-08
0.000439428
1.75182e-08
1.54935e-08
0.000439433
-1.72724e-09
9.00848e-09
0.000439437
-6.76908e-09
8.01113e-09
0.000439437
2.17871e-08
1.91919e-10
0.000439446
-2.213e-08
-2.21986e-09
0.000439446
7.81478e-09
-9.87863e-09
0.00043945
8.73178e-09
-1.2853e-08
0.000439456
-3.1647e-08
-2.00963e-08
0.000439455
2.60996e-08
-2.5838e-08
0.000439462
-2.26261e-08
-2.75308e-08
0.000439463
-6.08046e-09
-3.78757e-08
0.000439464
1.01588e-08
-3.60523e-08
0.000439468
-2.67568e-08
-4.44139e-08
0.000439466
1.28227e-08
-4.53567e-08
0.000439469
-1.61581e-08
-4.67085e-08
0.000439467
3.23341e-09
-5.17398e-08
0.000439468
-8.39793e-09
-4.68078e-08
0.000439466
-1.52591e-09
-5.34411e-08
0.000439464
6.45497e-09
-4.50421e-08
0.000439464
-1.57426e-08
-4.86986e-08
0.000439458
1.82243e-08
-4.48215e-08
0.000439457
-5.34508e-09
-3.61954e-08
-1.11021e-09
-4.18225e-08
0.000537269
2.31962e-08
-3.75355e-08
0.000537267
-4.43769e-09
-3.98439e-08
0.000537263
4.20648e-09
-3.53914e-08
0.000537257
3.50286e-08
-2.5721e-08
0.000537257
-1.76524e-08
-2.61962e-08
0.00053725
2.48353e-08
-1.52316e-08
0.000537246
2.78325e-08
-1.27219e-08
0.000537248
-2.13774e-08
-7.22265e-09
0.000537239
4.65194e-08
2.64519e-09
0.00053724
-1.35353e-09
-1.58964e-09
0.000537239
4.91531e-09
1.58231e-08
0.000537235
3.16634e-08
6.03487e-09
0.000537238
-4.5947e-09
1.93959e-08
0.000537236
1.55742e-08
1.84747e-08
0.000537236
1.10147e-08
1.58765e-08
0.000537238
9.47949e-09
2.58507e-08
0.000537241
-3.76543e-09
1.46877e-08
0.000537241
2.0022e-08
2.365e-08
0.000537245
-2.51816e-09
1.39545e-08
0.000537249
-8.19917e-09
1.61975e-08
0.000537249
2.60827e-08
1.0691e-08
0.000537258
-2.69157e-08
7.24008e-09
0.000537257
1.06995e-08
1.28818e-09
0.000537262
1.00916e-08
-6.03535e-10
0.000537269
-3.71327e-08
-9.22798e-09
0.000537267
3.32277e-08
-1.44207e-08
0.000537276
-2.80155e-08
-1.54208e-08
0.000537276
-4.1822e-09
-2.98467e-08
0.000537278
1.22967e-08
-2.44489e-08
0.000537283
-3.07894e-08
-3.83377e-08
0.000537281
1.74436e-08
-3.85451e-08
0.000537286
-1.86482e-08
-4.05955e-08
0.000537284
5.34902e-09
-5.17008e-08
0.000537286
-8.61583e-09
-4.20545e-08
0.000537284
-6.51455e-10
-5.74646e-08
0.000537283
8.38011e-09
-4.67437e-08
0.000537283
-1.72828e-08
-5.19589e-08
0.000537277
2.22453e-08
-5.48685e-08
0.000537278
-5.96399e-09
-4.09335e-08
-6.0881e-10
-5.38216e-08
0.00065075
2.83356e-08
-4.31813e-08
0.00065075
-6.56522e-09
-4.65024e-08
0.000650745
7.02682e-09
-4.33623e-08
0.000650739
4.02874e-08
-3.69754e-08
0.00065074
-2.2038e-08
-3.73923e-08
0.000650732
3.14454e-08
-2.58974e-08
0.000650729
2.97777e-08
-2.85369e-08
0.00065073
-2.46454e-08
-1.82145e-08
0.000650721
5.45778e-08
-1.0211e-08
0.000650721
-3.70042e-09
-1.81366e-08
0.000650721
5.77351e-09
9.43095e-09
0.000650714
3.64895e-08
-1.04035e-08
0.000650718
-7.03707e-09
1.15641e-08
0.000650716
1.79146e-08
1.22626e-08
0.000650715
1.22985e-08
3.12879e-09
0.000650717
9.54363e-09
2.87964e-08
0.000650718
-4.48737e-09
5.00189e-09
0.000650718
2.27293e-08
2.62912e-08
0.000650722
-3.83362e-09
1.58473e-08
0.000650726
-9.79299e-09
1.61945e-08
0.000650724
3.05951e-08
1.90637e-08
0.000650734
-3.27958e-08
1.33876e-08
0.000650732
1.39047e-08
8.18666e-09
0.000650737
1.11169e-08
1.21395e-08
0.000650744
-4.39393e-08
6.34481e-10
0.000650741
4.14944e-08
-3.76537e-09
0.000650752
-3.52156e-08
1.70027e-09
0.00065075
-1.90087e-09
-2.28112e-08
0.000650753
1.4277e-08
-6.56377e-09
0.000650759
-3.58123e-08
-2.75567e-08
0.000650757
2.24243e-08
-2.90132e-08
0.000650762
-2.14054e-08
-2.36416e-08
0.000650761
6.99029e-09
-4.93564e-08
0.000650763
-8.57403e-09
-2.76128e-08
0.000650762
2.56636e-10
-5.30245e-08
0.000650761
9.93223e-09
-4.42408e-08
0.000650762
-1.82157e-08
-4.33438e-08
0.000650757
2.62104e-08
-6.00064e-08
0.000650758
-6.28991e-09
-3.81593e-08
-5.13057e-11
-5.80635e-08
0.000781008
3.46002e-08
-3.9089e-08
0.00078101
-1.04609e-08
-4.69082e-08
0.000781003
1.10299e-08
-4.08177e-08
0.000780999
4.58927e-08
-3.91239e-08
0.000781001
-2.80456e-08
-4.58791e-08
0.000780992
4.08089e-08
-2.36704e-08
0.00078099
3.02041e-08
-4.32327e-08
0.00078099
-2.6895e-08
-2.49858e-08
0.000780982
6.36362e-08
-1.41554e-08
0.000780982
-6.35745e-09
-4.0719e-08
0.000780982
7.69699e-09
1.05728e-08
0.000780975
4.18252e-08
-2.84684e-08
0.000780978
-8.89759e-09
-2.90902e-09
0.000780977
2.05523e-08
1.31893e-08
0.000780973
1.46018e-08
-2.32798e-08
0.000780977
9.80179e-09
3.31412e-08
0.000780977
-4.74254e-09
-9.47442e-09
0.000780976
2.63261e-08
1.72876e-08
0.000780981
-5.20195e-09
1.85604e-08
0.000780983
-1.11847e-08
5.47355e-09
0.000780981
3.58649e-08
2.0489e-08
0.000780992
-3.93847e-08
1.71357e-08
0.000780988
1.75395e-08
5.10975e-09
0.000780993
1.23679e-08
2.04129e-08
0.000781002
-5.21446e-08
9.28082e-09
0.000780995
5.10474e-08
-4.0465e-09
0.000781009
-4.39997e-08
2.33429e-08
0.000781005
4.32256e-10
-2.18506e-08
0.000781009
1.59114e-08
9.23748e-09
0.000781016
-4.17148e-08
-9.50855e-09
0.000781012
2.67942e-08
-2.74153e-08
0.000781018
-2.41817e-08
4.36729e-09
0.000781017
7.33171e-09
-4.63449e-08
0.000781019
-8.84444e-09
-1.11124e-08
0.000781018
1.18451e-09
-3.53002e-08
0.000781018
9.88953e-09
-4.25723e-08
0.00078102
-1.85469e-08
-2.26086e-08
0.000781014
2.92178e-08
-5.71658e-08
0.000781017
-6.64714e-09
-2.89522e-08
-3.70801e-10
-5.17601e-08
0.000928613
4.18738e-08
-2.34021e-08
0.000928618
-1.68832e-08
-4.11897e-08
0.000928609
1.48019e-08
-3.27726e-08
0.000928605
5.21268e-08
-2.20787e-08
0.000928609
-3.75742e-08
-5.63879e-08
0.000928596
5.30591e-08
-4.7953e-09
0.000928599
2.78447e-08
-4.55056e-08
0.000928596
-2.85494e-08
-3.50497e-08
0.00092859
7.31074e-08
6.8098e-09
0.000928589
-1.00638e-08
-6.66206e-08
0.000928588
1.07778e-08
1.85499e-08
0.000928583
4.6846e-08
-2.7801e-08
0.000928583
-9.91916e-09
-3.18337e-08
0.000928586
2.33477e-08
3.51055e-08
0.000928578
1.78961e-08
-5.45537e-08
0.000928585
1.0508e-08
3.38451e-08
0.000928584
-4.08851e-09
-1.10632e-08
0.000928582
3.06915e-08
-6.13622e-09
0.000928589
-5.80901e-09
2.53847e-08
0.000928589
-1.18717e-08
-6.33786e-09
0.000928587
4.18831e-08
9.81928e-09
0.000928599
-4.52413e-08
2.24782e-08
0.000928594
2.15454e-08
-3.47304e-09
0.0009286
1.47474e-08
1.41373e-08
0.000928609
-6.05832e-08
2.50852e-08
0.0009286
6.13658e-08
-2.24614e-08
0.000928616
-5.2835e-08
4.2868e-08
0.000928611
2.97288e-09
-1.97806e-08
0.000928614
1.70528e-08
4.5037e-09
0.000928622
-4.69038e-08
2.16335e-08
0.000928618
2.93998e-08
-4.13634e-08
0.000928623
-2.59081e-08
3.11309e-08
0.000928624
6.32128e-09
-3.56814e-08
0.000928625
-1.01487e-08
-9.57863e-09
0.000928624
2.8112e-09
-3.66536e-09
0.000928625
7.09021e-09
-4.47758e-08
0.000928625
-1.81124e-08
7.40242e-11
0.00092862
3.01023e-08
-4.45656e-08
0.000928623
-6.84087e-09
-1.75084e-08
-3.05216e-09
-3.97478e-08
0.00109321
4.91725e-08
-4.92886e-09
0.00109322
-2.46194e-08
-2.33681e-08
0.0010932
1.61675e-08
-3.72799e-08
0.0010932
5.95599e-08
1.67153e-08
0.00109321
-5.17193e-08
-6.52474e-08
0.00109319
6.74102e-08
9.49447e-09
0.0010932
2.17288e-08
-1.48201e-08
0.00109319
-3.02357e-08
-6.13792e-08
0.00109318
8.16907e-08
4.85928e-08
0.00109318
-1.57338e-08
-7.31536e-08
0.00109318
1.44002e-08
8.65008e-09
0.00109318
4.99238e-08
1.46351e-08
0.00109317
-1.04472e-08
-7.31232e-08
0.00109318
2.49719e-08
6.78442e-08
0.00109317
2.17964e-08
-6.08099e-08
0.00109317
1.03736e-08
1.73657e-08
0.00109318
-2.81645e-09
1.36884e-08
0.00109317
3.52202e-08
-2.95792e-08
0.00109318
-6.62994e-09
2.90673e-08
0.00109318
-1.04221e-08
-2.15589e-09
0.00109318
4.67941e-08
-5.75431e-09
0.00109319
-4.87117e-08
2.28721e-08
0.00109318
2.5845e-08
5.07032e-09
0.00109319
1.71279e-08
-1.39275e-08
0.0010932
-6.64058e-08
5.10857e-08
0.00109319
7.09131e-08
-4.07442e-08
0.00109321
-6.02357e-08
3.84979e-08
0.00109321
7.24001e-09
6.35852e-09
0.00109321
1.61514e-08
-3.01088e-08
0.00109322
-4.82444e-08
5.78228e-08
0.00109321
2.94323e-08
-5.25276e-08
0.00109322
-2.5812e-08
3.04472e-08
0.00109322
5.48094e-09
-4.87255e-09
0.00109322
-1.32041e-08
-2.97488e-08
0.00109322
6.70083e-09
2.74602e-08
0.00109322
9.55218e-10
-4.25255e-08
0.00109322
-1.53639e-08
9.21853e-09
0.00109322
2.79178e-08
-2.74376e-08
0.00109322
-5.88042e-09
-4.57211e-09
-8.4134e-09
-3.2037e-08
0.00127297
5.46316e-08
-6.04332e-09
0.00127298
-3.06219e-08
1.32382e-08
0.00127297
1.37933e-08
-5.56574e-08
0.00127296
6.86894e-08
4.66872e-08
0.00127298
-6.9386e-08
-4.52294e-08
0.00127295
8.27455e-08
-1.06296e-08
0.00127296
1.23006e-08
4.13332e-08
0.00127295
-3.202e-08
-8.13019e-08
0.00127294
8.85319e-08
6.3241e-08
0.00127295
-2.39554e-08
-2.93701e-08
0.00127293
1.86398e-08
-3.22218e-08
0.00127294
4.88869e-08
7.51846e-08
0.00127293
-9.85094e-09
-9.0001e-08
0.00127294
2.32056e-08
7.31105e-08
0.00127293
2.57034e-08
-2.41461e-08
0.00127293
8.72203e-09
-8.58722e-09
0.00127294
-3.14828e-09
4.34725e-08
0.00127292
4.03754e-08
-2.85941e-08
0.00127293
-1.08122e-08
2.67856e-08
0.00127293
-6.64173e-09
1.05862e-08
0.00127293
4.90471e-08
2.86448e-09
0.00127295
-5.18696e-08
4.33207e-09
0.00127294
3.19674e-08
3.87896e-08
0.00127294
1.60309e-08
-3.73614e-08
0.00127296
-6.81112e-08
5.87855e-08
0.00127295
7.88032e-08
-1.73115e-08
0.00127297
-6.79849e-08
-1.70591e-09
0.00127296
1.59202e-08
5.39449e-08
0.00127297
1.06453e-08
-5.8544e-08
0.00127297
-4.40206e-08
6.4941e-08
0.00127298
2.73819e-08
-2.67951e-08
0.00127298
-2.52176e-08
-2.78429e-09
0.00127298
7.34009e-09
3.43415e-08
0.00127298
-1.90118e-08
-4.46351e-08
0.00127298
1.44624e-08
3.6071e-08
0.00127299
-8.13616e-09
-2.77925e-08
0.00127298
-9.45455e-09
8.45763e-09
0.00127298
2.3091e-08
-1.8561e-08
0.00127298
-3.46465e-09
8.95879e-09
-1.43374e-08
-2.28623e-08
0.00146397
5.54269e-08
-2.11345e-08
0.00146397
-3.13483e-08
4.12377e-08
0.00146397
6.94656e-09
-5.08992e-08
0.00146396
7.86976e-08
3.64122e-08
0.00146397
-8.65948e-08
-1.62697e-09
0.00146395
9.5685e-08
-3.26404e-08
0.00146396
2.80173e-09
6.51382e-08
0.00146395
-3.42835e-08
-5.60426e-08
0.00146394
9.38793e-08
3.31136e-08
0.00146395
-3.4338e-08
2.99161e-08
0.00146393
2.46321e-08
-5.59341e-08
0.00146394
4.25269e-08
9.59599e-08
0.00146392
-7.42484e-09
-6.24619e-08
0.00146393
1.9026e-08
5.11561e-08
0.00146392
2.64059e-08
1.89712e-08
0.00146391
8.38757e-09
-1.61746e-08
0.00146392
-7.6628e-09
5.96603e-08
0.00146391
4.57191e-08
-1.79709e-08
0.00146392
-1.73832e-08
4.01565e-08
0.00146392
-4.14851e-09
5.98377e-09
0.00146391
5.01448e-08
3.65949e-08
0.00146392
-5.75528e-08
-7.63937e-09
0.00146392
3.84752e-08
5.37267e-08
0.00146392
1.14536e-08
-1.361e-08
0.00146393
-6.86715e-08
2.97772e-08
0.00146392
8.52515e-08
3.71212e-08
0.00146394
-7.83449e-08
-3.08814e-08
0.00146393
2.80836e-08
7.35503e-08
0.00146395
8.31392e-11
-3.77898e-08
0.00146395
-3.69816e-08
3.7866e-08
0.00146395
2.4921e-08
1.9657e-08
0.00146396
-2.70128e-08
-2.4355e-08
0.00146396
1.27957e-08
5.11349e-08
0.00146397
-2.79911e-08
-3.366e-08
0.00146396
2.42395e-08
3.19069e-08
0.00146397
-1.84709e-08
-1.10382e-08
0.00146397
-1.96756e-09
1.23307e-08
0.00146397
1.69539e-08
-1.02972e-08
0.00146397
-1.0109e-09
7.95912e-09
-1.79731e-08
2.4431e-09
0.00165939
4.83878e-08
-1.8522e-08
0.00165938
-2.5903e-08
4.34565e-08
0.00165939
-2.99116e-09
-2.63004e-08
0.00165938
8.44764e-08
2.37178e-08
0.00165939
-9.66822e-08
1.55932e-08
0.00165938
1.0005e-07
-2.24529e-08
0.00165938
-3.37082e-09
5.45351e-08
0.00165938
-3.72413e-08
-1.97296e-08
0.00165937
9.59774e-08
1.37219e-08
0.00165938
-4.41692e-08
4.80798e-08
0.00165936
2.99107e-08
-4.31151e-08
0.00165937
3.37798e-08
8.43165e-08
0.00165936
-5.79545e-09
-2.71248e-08
0.00165936
1.60041e-08
3.37299e-08
0.00165936
2.24734e-08
4.13024e-08
0.00165935
9.79843e-09
-1.75688e-08
0.00165936
-1.30913e-08
7.52217e-08
0.00165935
4.72209e-08
-1.76986e-08
0.00165935
-2.13511e-08
5.9011e-08
0.00165935
-4.79306e-09
2.53483e-09
0.00165934
4.93573e-08
4.67329e-08
0.00165934
-6.08547e-08
1.36951e-08
0.00165934
4.0332e-08
3.82086e-08
0.00165934
7.71163e-09
2.66015e-08
0.00165935
-6.95806e-08
6.74061e-09
0.00165934
8.86026e-08
6.24017e-08
0.00165935
-8.73432e-08
-1.89554e-08
0.00165934
3.78685e-08
6.36154e-08
0.00165936
-1.0357e-08
-2.26329e-09
0.00165935
-3.16462e-08
1.86026e-08
0.00165936
2.35967e-08
4.35402e-08
0.00165937
-3.15692e-08
-1.7918e-08
0.00165936
1.90923e-08
5.40021e-08
0.00165938
-3.68808e-08
-1.62211e-08
0.00165937
3.13474e-08
2.9773e-08
0.00165938
-2.72222e-08
4.41554e-09
0.00165938
3.92174e-09
1.41294e-08
0.00165939
1.11004e-08
9.99049e-09
0.00165938
-1.02741e-09
9.94833e-10
-1.71892e-08
2.07805e-08
0.00185103
3.62817e-08
-8.93083e-09
0.00185102
-1.7257e-08
3.75961e-08
0.00185103
-1.08378e-08
-1.45178e-08
0.00185102
8.17037e-08
2.67947e-08
0.00185102
-9.5186e-08
1.34249e-08
0.00185102
9.36497e-08
-9.2971e-09
0.00185103
-5.76029e-09
4.47769e-08
0.00185102
-3.86944e-08
-8.77793e-09
0.00185102
9.18824e-08
1.76581e-08