/*--------------------------------*- C++ -*----------------------------------*\
  =========                 |
  \\      /  F ield         | OpenFOAM: The Open Source CFD Toolbox
   \\    /   O peration     | Website:  https://openfoam.org
    \\  /    A nd           | Version:  10
     \\/     M anipulation  |
\*---------------------------------------------------------------------------*/
FoamFile
{
    format      ascii;
    class       volScalarField;
    location    "55";
    object      nut;
}
// * * * * * * * * * * * * * * * * * * * * * * * * * * * * * * * * * * * * * //

dimensions      [0 2 -1 0 0 0 0];

internalField   nonuniform List<scalar> 
25600
(
3.07045e-06
3.00901e-06
1.83763e-06
8.3809e-07
3.27969e-07
4.40313e-06
6.6029e-07
3.72363e-06
3.21296e-06
1.28879e-07
8.21852e-07
4.89514e-07
2.63933e-07
1.31579e-06
2.76967e-06
2.22951e-06
7.81141e-07
8.60807e-08
1.70668e-08
3.25911e-07
4.78639e-06
2.2792e-06
4.05496e-06
2.67973e-06
5.74786e-06
8.81326e-07
5.421e-06
4.62444e-06
3.12217e-06
5.32724e-06
2.13171e-06
3.55486e-06
4.20928e-06
1.57492e-06
2.2587e-06
1.72564e-06
2.83965e-06
1.42655e-06
1.29961e-06
2.28468e-06
2.26431e-06
2.37523e-06
1.98773e-06
7.24228e-07
1.12948e-06
3.74583e-06
1.93594e-06
3.98987e-06
2.50949e-06
1.82647e-07
2.99015e-07
1.93608e-06
1.26694e-06
4.80474e-07
4.30269e-06
4.94827e-06
4.28675e-06
5.78181e-07
7.16391e-07
7.58954e-07
1.39194e-06
1.37564e-06
5.33325e-06
3.19101e-06
5.12434e-06
2.14475e-06
2.98851e-06
2.84749e-06
1.92399e-06
3.64906e-06
2.25354e-06
1.54003e-06
4.51506e-06
4.52704e-06
4.15012e-06
2.89145e-06
1.82766e-06
1.97793e-06
1.50544e-06
2.12228e-06
2.65277e-06
2.36273e-06
2.18717e-06
9.93527e-07
2.90203e-06
2.99795e-06
2.56721e-06
3.0495e-06
3.0216e-06
3.45206e-06
1.68267e-06
4.82632e-06
1.4786e-06
2.78299e-06
3.79306e-06
6.07686e-06
3.96704e-06
1.9646e-06
3.11994e-06
7.18493e-06
1.4977e-05
2.96434e-06
7.04117e-06
7.51105e-06
3.63446e-06
2.05591e-06
4.04678e-06
6.36475e-06
3.3236e-06
1.41676e-06
6.36068e-07
1.05025e-06
2.38783e-06
5.58083e-06
1.05528e-05
1.42202e-05
5.73676e-06
2.94086e-06
2.70984e-06
2.2271e-06
4.52526e-06
1.23759e-06
1.09602e-06
9.87182e-07
3.49388e-06
3.47225e-06
3.18224e-06
4.1964e-06
4.32981e-06
3.37959e-06
4.24929e-06
4.93001e-06
4.19529e-06
5.99237e-06
5.37072e-06
4.3035e-06
7.94956e-06
6.30011e-06
6.39443e-06
1.21242e-05
3.53334e-05
9.84847e-06
7.5042e-06
1.78115e-05
9.23405e-06
1.07872e-05
6.64286e-06
6.21652e-06
8.07595e-06
3.17481e-06
2.64797e-07
8.05213e-07
1.38868e-06
7.32113e-06
1.88206e-05
2.45049e-05
1.18968e-05
5.57858e-06
6.47027e-06
6.54669e-06
4.01736e-06
3.70697e-06
1.17508e-06
3.98918e-07
4.10396e-06
6.96574e-06
4.5905e-06
6.49588e-06
7.21208e-06
6.44789e-06
1.34837e-05
5.78514e-06
1.53267e-05
4.54058e-06
7.49189e-06
4.2896e-06
2.5584e-06
6.74788e-06
1.5416e-05
1.48054e-05
4.67024e-06
2.99955e-06
1.86148e-06
1.66914e-05
2.44948e-05
1.31996e-05
1.76656e-05
1.47438e-05
8.90484e-06
3.44844e-06
1.35361e-05
1.31218e-05
7.82252e-06
1.44834e-05
2.43653e-05
2.96662e-05
1.87181e-05
5.59378e-06
6.18839e-06
5.824e-06
6.49193e-06
3.89834e-06
2.39556e-06
1.4108e-05
4.05875e-06
4.90978e-06
2.9443e-05
1.36866e-05
2.37258e-05
2.83442e-05
1.22975e-05
2.38681e-05
3.66591e-05
7.36537e-05
1.18763e-05
7.49302e-06
1.16201e-05
2.72769e-05
3.36091e-05
1.86288e-05
3.09726e-06
5.72901e-06
1.33977e-05
7.0844e-06
8.3441e-06
1.03095e-05
8.27135e-06
1.479e-05
1.87018e-05
1.5802e-05
7.57942e-06
1.01419e-05
1.49098e-05
2.32941e-05
1.7316e-05
1.04488e-05
1.05056e-05
1.52229e-05
1.43789e-05
8.69005e-06
9.43669e-06
8.52002e-06
2.04661e-05
2.91881e-06
1.81703e-05
4.91448e-05
5.66308e-06
2.2948e-05
5.52169e-05
1.54554e-05
1.37577e-05
1.7286e-05
3.61941e-05
9.48606e-06
2.97203e-05
1.415e-05
2.17099e-05
3.97783e-05
4.01937e-06
1.59321e-05
2.14487e-05
1.54719e-05
1.25261e-05
2.59893e-05
3.02761e-05
1.29843e-05
2.15888e-06
6.89365e-06
1.13482e-05
6.58382e-06
3.3813e-05
4.75505e-05
7.79241e-06
1.44513e-05
8.58054e-06
6.97147e-06
9.16041e-06
1.57314e-05
2.41596e-05
1.57664e-05
6.9992e-06
1.35121e-05
7.07248e-06
7.28957e-06
1.03683e-05
8.08599e-06
5.42938e-06
1.47075e-05
2.41385e-05
1.42928e-05
1.08599e-05
1.27023e-05
9.46424e-06
1.9429e-05
2.19271e-05
4.07592e-05
4.3162e-05
1.33482e-05
2.32607e-05
5.62192e-05
0.000137781
6.08158e-06
3.00181e-05
3.40102e-05
1.32181e-05
1.06945e-05
8.68063e-06
9.41391e-07
5.24095e-06
5.27452e-05
3.4264e-05
1.30171e-05
4.41767e-06
2.03138e-05
5.34467e-06
3.19281e-05
6.80388e-05
5.52193e-05
3.31753e-05
2.0714e-05
1.11954e-05
7.37455e-06
3.28825e-05
9.34511e-06
6.23638e-06
1.06798e-05
2.26777e-06
2.48757e-05
1.6211e-05
1.4854e-05
2.0099e-06
1.60206e-05
2.46506e-05
1.48885e-05
2.36938e-05
4.26861e-05
6.05902e-05
0.000107777
4.68772e-06
5.90556e-05
2.5058e-05
5.13745e-05
4.27644e-05
8.59265e-06
3.44035e-06
3.8504e-06
3.85993e-06
8.50482e-05
0.000176511
5.40499e-05
5.98101e-06
8.82052e-06
3.34875e-06
2.50248e-05
4.1597e-05
3.85454e-05
0.000106586
7.15389e-05
8.33399e-06
1.64577e-05
1.36875e-05
2.0908e-05
9.86035e-06
1.85479e-05
6.3274e-05
2.74551e-05
1.9214e-06
7.03464e-05
1.54458e-05
6.56355e-05
9.94167e-06
2.07816e-05
2.43496e-05
5.3354e-05
1.33102e-05
2.76706e-05
0.00010697
6.3425e-05
1.14287e-05
1.13338e-07
9.94023e-06
2.85085e-05
1.75779e-05
1.07151e-05
1.75984e-05
1.32305e-05
1.28784e-05
5.79994e-05
4.01831e-06
3.9584e-06
2.09137e-05
3.77583e-05
2.95474e-05
2.1609e-05
1.4544e-05
1.19183e-05
6.13173e-05
5.7505e-05
1.30217e-05
2.04526e-05
2.29025e-05
8.01009e-05
2.79378e-05
2.14123e-05
6.09279e-05
7.17149e-05
0.000110863
9.34651e-06
5.07669e-05
8.05791e-05
2.03872e-05
2.15495e-05
3.21666e-05
1.39735e-05
2.59305e-05
2.22533e-05
2.11064e-05
3.46414e-05
4.0554e-05
4.10292e-06
4.91562e-06
2.21012e-05
2.11166e-05
1.16273e-05
0.000108388
3.86328e-05
2.26172e-05
1.33954e-05
1.24846e-05
5.62052e-06
2.23547e-06
3.07699e-06
4.75505e-05
1.26288e-05
1.57907e-05
2.64145e-05
0.000156595
0.000171928
6.65523e-05
3.96001e-05
3.23112e-05
1.00497e-05
1.44298e-05
1.02192e-05
0.00010571
5.23111e-06
1.50978e-05
1.9986e-06
3.30536e-05
1.7985e-05
1.58575e-05
3.52888e-05
3.14637e-05
3.63617e-05
3.17949e-05
0.000263321
1.28177e-05
0.000222267
0.00010198
1.16888e-05
1.42898e-05
1.69512e-05
1.89928e-05
1.02416e-05
8.42749e-05
7.81535e-05
7.72312e-05
2.52354e-06
1.33673e-05
1.02415e-05
7.49477e-06
8.95461e-06
7.71698e-06
3.57681e-06
3.62845e-05
3.97075e-05
3.35676e-05
1.5294e-05
1.00368e-05
2.37751e-05
1.43178e-05
1.35357e-05
1.48559e-05
9.27063e-05
6.15291e-05
1.47753e-06
1.11553e-07
1.82207e-05
2.2211e-05
1.62712e-05
6.7482e-06
3.80191e-05
2.53324e-05
2.61638e-05
0.000124206
0.000110007
3.03178e-05
0.000106622
2.12627e-05
3.45566e-05
2.48756e-05
1.89926e-06
2.28174e-05
3.24339e-05
3.5988e-05
0.000231637
0.000170311
1.79704e-05
5.71103e-06
0.000144288
5.47496e-05
2.96519e-05
4.50663e-05
0.000111486
2.55665e-05
4.68923e-05
4.38825e-05
1.94914e-05
2.43838e-05
4.09143e-05
7.91191e-06
1.25838e-05
2.44449e-05
0.000253681
3.09982e-05
2.13167e-05
8.53656e-06
3.6272e-05
1.79e-05
4.69074e-06
3.74978e-06
5.23135e-06
1.54156e-05
4.24535e-05
0.000132816
2.44832e-05
9.60555e-06
6.97482e-06
2.29517e-05
6.26248e-06
5.39313e-06
1.0119e-05
7.24681e-06
4.20401e-06
1.55916e-06
9.19517e-06
1.7879e-05
2.05135e-05
0.000231261
0.000265034
4.81647e-05
5.18099e-06
0.000192642
0.000379676
2.2196e-05
1.19842e-05
4.58744e-05
5.46707e-05
4.50984e-05
5.99196e-05
1.69569e-05
2.87311e-05
0.000178591
3.96953e-05
1.037e-05
7.93423e-06
2.05793e-06
5.27287e-05
5.1997e-05
1.25852e-05
2.73623e-06
2.15712e-05
1.79544e-05
3.39007e-05
2.76807e-05
1.22524e-05
1.24429e-05
5.02225e-05
1.09681e-07
2.92261e-07
1.61673e-05
1.94278e-05
3.42395e-05
7.26823e-06
1.26622e-05
4.68656e-05
3.08559e-05
5.44342e-05
0.000106349
1.48686e-05
1.09974e-05
3.13062e-05
0.000287694
0.000109205
2.43304e-05
4.71357e-06
1.34403e-05
2.2315e-05
1.82253e-06
9.9062e-06
3.07157e-05
2.97866e-05
0.000182081
2.91654e-05
8.14108e-06
1.81234e-05
1.05198e-05
3.41261e-05
1.61246e-05
4.81598e-05
3.55627e-06
0.000148374
5.56764e-05
4.77592e-05
2.10346e-05
6.13486e-06
5.10526e-06
1.25955e-05
1.27719e-05
3.10543e-05
2.47748e-05
1.50059e-05
2.20179e-05
4.12648e-06
2.51972e-06
2.41795e-05
1.04737e-05
4.62324e-05
1.64434e-05
1.77649e-05
2.78941e-05
7.0305e-06
3.16945e-05
2.76922e-05
3.40682e-06
0.00011125
0.000350758
0.000193769
1.25787e-05
2.8358e-05
5.52007e-05
0.000153166
6.80176e-05
5.75264e-06
6.15238e-05
2.08627e-06
2.13871e-06
1.36308e-05
2.03765e-05
1.59994e-05
0.000156014
0.000195366
4.66625e-05
1.00294e-05
6.1628e-06
1.395e-06
4.82323e-06
5.21171e-05
8.59262e-06
4.17605e-06
8.63629e-05
2.79505e-05
1.42672e-06
5.58509e-06
2.55407e-05
9.54105e-06
2.52147e-05
0.0001223
9.84198e-05
7.11741e-06
3.67775e-05
2.62628e-06
1.72925e-05
1.13725e-05
9.52286e-06
7.67774e-05
0.000165151
0.000247405
0.000184277
9.27711e-05
9.88895e-06
7.48142e-05
3.80475e-06
3.80979e-05
2.97109e-05
2.57849e-05
3.0061e-05
1.39983e-05
1.20103e-05
4.49577e-06
4.19099e-05
2.84191e-05
4.58084e-05
6.83788e-05
2.30091e-05
6.53426e-06
1.97025e-05
4.03356e-05
5.19745e-06
9.814e-07
3.38439e-05
1.29978e-06
5.64735e-06
1.93559e-05
1.99185e-05
8.12444e-05
1.4332e-05
0.00024964
7.22515e-05
1.18722e-05
2.5211e-05
3.64982e-07
1.26614e-05
1.96098e-05
5.58193e-05
0.00033077
0.00019066
0.000185804
0.000162528
2.05171e-05
5.36522e-06
3.21273e-05
3.06204e-06
2.47017e-05
3.00422e-05
1.11823e-05
0.000125691
0.000113243
9.78839e-06
1.19635e-05
2.23414e-05
2.06299e-05
0.000110447
6.29412e-07
1.20095e-05
3.38478e-06
1.07623e-05
2.43708e-05
9.57166e-06
1.23761e-05
2.71299e-05
4.41817e-06
4.70746e-05
1.42219e-05
1.4031e-05
6.82108e-05
3.99316e-05
0.000280767
2.10117e-05
2.42647e-05
3.0317e-05
1.15349e-05
4.35756e-05
2.98656e-06
0.000252048
0.000120159
1.37621e-05
1.80129e-06
0.000211526
8.64907e-06
2.66538e-05
2.08403e-05
1.03143e-05
3.36638e-05
8.54855e-06
4.45188e-05
5.45466e-05
3.24436e-05
1.56993e-05
8.90208e-06
2.13009e-05
1.95263e-05
5.84945e-05
4.70665e-05
1.00694e-05
4.78284e-06
3.77098e-05
3.01512e-05
3.14294e-05
4.4303e-05
1.20905e-05
1.99822e-05
6.35027e-05
5.66774e-06
2.17738e-05
2.57612e-05
4.67432e-05
1.42243e-05
4.78715e-05
1.22774e-05
6.41266e-05
1.7092e-06
1.93476e-05
1.32916e-05
0.000364545
8.51595e-06
1.06207e-07
3.53007e-06
0.000127199
5.45107e-06
6.70397e-06
3.10227e-05
1.15824e-05
1.46072e-05
2.99289e-05
0.000151544
0.000101118
4.13327e-06
3.38832e-06
2.03577e-06
1.74398e-05
1.83017e-05
5.87443e-05
2.33386e-05
2.62807e-05
3.71534e-06
6.06142e-05
3.85956e-05
4.39593e-05
1.40859e-05
1.28764e-05
1.86291e-05
5.26619e-05
2.03064e-06
5.14736e-05
1.75974e-05
5.08798e-05
2.1627e-05
1.89709e-05
0.000103501
0.000103718
1.62629e-06
1.814e-05
0.000108152
0.000257819
2.0052e-06
1.12257e-06
8.7644e-06
2.38946e-06
4.53173e-06
6.12902e-06
1.42417e-05
6.94881e-06
7.3176e-06
0.000151279
0.000121893
1.2121e-05
1.81197e-06
1.8226e-06
5.40206e-05
3.15635e-06
1.57377e-05
3.97978e-06
2.29641e-05
4.46625e-05
3.33743e-05
2.76794e-05
1.67199e-05
3.08708e-05
1.10744e-06
1.95344e-05
1.16614e-05
4.68465e-05
1.54077e-06
0.000202904
2.21491e-05
2.83037e-05
1.07167e-05
7.04315e-06
1.045e-05
1.17053e-05
9.69643e-06
1.74794e-05
8.84918e-05
0.000223221
1.17904e-05
8.6238e-06
4.17741e-05
1.11198e-07
2.29214e-06
8.12405e-07
6.91526e-06
2.06557e-05
1.93239e-05
0.000190344
3.02573e-06
1.00689e-05
5.52334e-06
2.22939e-06
1.72066e-06
3.55785e-05
2.44768e-05
3.79006e-06
5.22417e-05
7.21058e-05
6.31216e-05
5.63069e-06
2.91307e-05
5.71398e-05
3.31855e-05
2.79038e-05
4.76415e-06
2.62861e-05
1.67472e-05
4.87326e-05
1.79805e-05
1.06445e-05
2.3752e-06
3.49983e-06
2.11844e-06
1.28152e-05
2.87904e-05
2.31743e-05
0.000110473
0.000280929
2.93499e-05
1.51861e-05
1.6339e-05
6.54119e-09
2.21072e-06
1.24536e-05
8.69792e-06
1.2223e-05
0.00021758
8.87779e-06
6.94617e-06
1.09132e-05
8.5078e-06
2.12755e-05
9.16704e-06
1.46462e-05
1.45514e-05
4.33008e-05
0.000101569
6.09027e-05
4.5593e-06
5.75005e-06
6.69262e-05
9.33703e-06
4.23552e-05
3.09583e-05
5.03897e-07
1.3634e-05
7.49751e-05
7.04757e-05
1.53569e-05
9.7677e-06
1.45316e-05
3.14307e-06
1.57937e-06
1.47912e-05
1.96357e-05
3.26422e-05
0.000105533
7.83566e-05
8.0408e-06
3.85847e-06
3.11595e-06
1.20887e-06
9.82213e-06
4.67339e-05
2.7323e-05
1.49275e-06
1.33691e-05
9.86052e-07
1.40085e-05
2.91881e-05
1.83877e-05
1.9985e-05
3.93369e-06
9.55478e-06
2.5395e-05
7.3668e-05
3.69689e-05
4.58677e-07
2.28337e-06
5.03578e-06
0.000145734
3.06151e-06
1.48747e-05
2.10745e-05
2.36336e-07
1.30934e-05
8.25841e-05
9.54659e-07
4.29869e-05
2.68537e-05
7.52371e-06
1.68003e-06
1.66653e-06
1.51958e-05
2.86423e-06
1.50433e-05
6.34737e-05
1.42995e-05
4.67647e-06
3.98432e-06
1.33355e-07
2.0647e-07
1.06173e-05
0.000131641
4.9056e-06
8.03203e-07
5.24021e-07
5.64727e-06
3.53267e-05
1.80956e-05
4.63471e-05
3.91057e-05
4.09165e-05
4.65484e-05
4.40276e-05
2.87676e-05
3.85503e-07
6.94392e-07
1.86173e-06
7.14597e-06
2.44793e-05
1.51774e-05
2.00889e-05
4.58897e-06
1.01872e-06
1.27134e-05
5.23296e-06
2.22446e-05
4.59165e-06
2.44863e-06
2.82673e-06
9.29336e-07
1.46001e-06
1.21482e-05
1.10579e-05
6.43871e-06
4.32509e-05
2.15408e-06
7.49123e-07
7.49339e-07
6.71238e-07
1.63146e-05
4.30931e-05
0.000121027
1.73726e-07
3.63876e-07
1.51626e-06
8.9036e-06
1.65247e-05
1.12146e-06
3.19823e-05
5.80991e-05
6.51869e-05
4.53047e-05
8.9451e-06
1.68437e-06
2.37902e-08
1.24027e-06
1.49339e-06
5.97689e-05
6.84218e-05
1.9009e-08
4.16344e-06
7.14046e-07
2.69537e-06
3.6422e-06
4.91161e-07
5.16878e-06
8.55873e-08
5.26137e-07
1.27443e-06
2.56978e-07
1.07757e-06
9.30023e-06
3.66847e-05
1.17423e-05
5.95678e-06
2.25107e-07
1.3483e-07
1.54036e-06
5.99943e-06
3.99022e-05
0.000139442
1.19733e-06
1.95425e-06
5.9997e-07
8.22608e-07
8.06826e-07
6.24066e-07
5.78618e-06
2.65352e-05
3.3342e-05
2.06042e-05
2.4996e-06
2.94169e-07
1.11023e-07
2.61724e-08
1.7843e-06
1.02729e-06
0.000129568
4.46507e-06
8.07946e-08
1.0681e-06
9.82123e-08
2.93948e-06
4.50716e-07
3.35759e-07
5.7104e-06
3.0892e-08
4.21063e-07
1.03806e-06
5.85839e-08
2.81507e-07
5.43118e-06
2.38e-05
3.01953e-06
6.25146e-08
5.09132e-07
1.36429e-07
3.78737e-06
7.82543e-06
2.85413e-05
3.87582e-05
4.8813e-08
6.53406e-07
1.97029e-07
5.9074e-08
2.81477e-07
7.10869e-07
5.7577e-06
1.06758e-05
5.05951e-06
1.2185e-06
2.7525e-08
5.00891e-09
2.22837e-08
1.84575e-07
2.28585e-06
1.37309e-06
4.08019e-07
1.01719e-08
1.78918e-08
4.69525e-07
2.43299e-08
1.57037e-06
2.59202e-08
1.25722e-06
1.43915e-06
2.24417e-09
5.77131e-07
4.29611e-07
1.39162e-08
8.20942e-08
1.5158e-06
1.81657e-06
1.74446e-08
5.3964e-07
5.55422e-07
4.02959e-07
3.23624e-06
4.97851e-06
4.73996e-06
1.64988e-06
3.23173e-08
2.75625e-07
3.65556e-08
2.54946e-07
4.02092e-07
5.54011e-07
1.79023e-06
1.72844e-06
5.82687e-07
8.4754e-08
1.97337e-10
2.38472e-09
7.42751e-08
5.72982e-07
9.08082e-07
2.56753e-08
1.30732e-08
3.50704e-09
1.01253e-08
3.09119e-07
9.40268e-09
6.2881e-07
3.10151e-08
4.97528e-07
1.17771e-07
6.93719e-09
2.30922e-07
5.91891e-08
3.92018e-09
2.8405e-08
1.19034e-07
2.785e-08
8.14329e-08
7.40219e-07
2.49865e-08
4.41227e-07
2.26244e-06
1.3035e-06
8.59906e-07
2.7053e-07
1.65081e-08
1.83605e-07
1.59734e-08
1.26575e-07
8.0244e-08
7.58769e-08
2.92335e-07
3.39141e-07
1.29375e-07
1.77989e-08
3.17942e-10
7.46526e-09
1.27136e-07
2.87192e-07
1.22109e-07
1.64795e-09
5.49557e-09
5.83896e-09
4.91712e-09
1.68321e-07
3.34614e-09
1.92502e-07
2.36827e-08
6.72177e-08
5.352e-09
2.46538e-09
3.07773e-08
1.94487e-08
6.61538e-09
4.84149e-09
5.54778e-09
1.00478e-09
5.36697e-08
9.24845e-08
1.69319e-09
2.90043e-07
9.9869e-07
4.57085e-07
5.30904e-07
1.69485e-07
4.59702e-09
7.12218e-08
4.21914e-09
1.95966e-08
6.17074e-10
8.59392e-10
1.17016e-08
4.64091e-08
2.09543e-08
2.88799e-09
7.13638e-11
7.3865e-10
2.11157e-08
2.79757e-08
1.26173e-08
4.36547e-10
3.62708e-10
5.61535e-09
1.10133e-09
5.78938e-08
7.70785e-09
1.78136e-08
2.02852e-09
3.54408e-09
3.20275e-09
2.63179e-09
4.4068e-09
1.14359e-08
5.31491e-09
2.90349e-10
7.0674e-10
9.41169e-11
1.47088e-09
1.98212e-09
1.34696e-09
4.87917e-08
1.4653e-07
8.03457e-08
1.61657e-07
8.66243e-08
3.3471e-06
2.931e-06
1.67418e-06
2.25639e-07
4.59314e-07
5.41816e-06
1.34015e-06
2.75389e-06
2.74785e-06
6.72768e-07
1.96203e-07
2.67865e-06
7.95999e-07
1.99756e-06
4.34281e-06
1.6424e-06
1.12281e-08
3.41161e-07
7.59582e-07
2.12208e-07
3.73026e-06
1.19189e-06
3.62588e-06
2.36695e-06
6.90636e-06
1.0672e-06
4.30618e-06
2.53337e-06
9.75979e-07
3.36464e-06
6.71447e-07
1.20899e-06
3.09419e-06
5.25365e-07
1.27969e-06
1.36442e-06
2.82458e-06
1.57351e-06
1.28976e-06
2.22448e-06
2.74685e-06
1.85756e-06
2.60093e-06
9.58217e-07
1.1959e-06
3.316e-06
3.12838e-06
3.56129e-06
2.24709e-06
1.83845e-06
1.02375e-06
4.19489e-06
2.04801e-06
3.63622e-06
3.5127e-06
2.20605e-06
9.44039e-07
4.53466e-06
2.63579e-06
7.1528e-07
1.54102e-06
3.38177e-07
4.76996e-06
8.16667e-06
6.23356e-06
2.12035e-06
3.2313e-06
2.84255e-06
1.80489e-06
3.25405e-06
1.65171e-06
2.0104e-06
6.68204e-06
6.38834e-06
7.32584e-06
5.26252e-06
2.18561e-06
1.72883e-06
1.29662e-06
2.25902e-06
2.8252e-06
2.63435e-06
2.94297e-06
1.14454e-06
1.91649e-06
2.83235e-06
3.26003e-06
3.6416e-06
3.9703e-06
5.27521e-06
1.88426e-06
2.28276e-06
4.22234e-06
3.85424e-06
1.48992e-06
1.81621e-06
4.58681e-06
5.05466e-06
6.75329e-06
2.1076e-05
6.14636e-06
3.6056e-06
1.19273e-05
2.74603e-05
7.40805e-06
2.34094e-06
1.96549e-06
4.73477e-06
3.35365e-06
1.67772e-06
1.13799e-06
1.43093e-06
1.98242e-06
3.88141e-06
9.82366e-06
1.60189e-05
6.09651e-06
1.66611e-06
3.58575e-06
2.98181e-06
7.15736e-06
2.18326e-06
4.56021e-07
2.94725e-06
2.98662e-06
5.02592e-06
5.48709e-06
4.51907e-06
6.42211e-06
5.28308e-06
8.30038e-06
4.28306e-05
4.59931e-06
1.80527e-06
1.63172e-06
5.53484e-07
1.01372e-05
2.51938e-06
1.0165e-05
1.79585e-05
4.01403e-06
5.12572e-06
1.62838e-05
2.08723e-05
7.34992e-06
2.20296e-06
4.77543e-06
1.28741e-05
7.31184e-06
2.15727e-06
6.81062e-07
1.24356e-06
9.88801e-07
5.67659e-06
1.67641e-05
2.63257e-05
1.32002e-05
3.02423e-06
7.61604e-06
1.14236e-05
5.59042e-06
9.13383e-06
8.91779e-06
3.48324e-06
3.54215e-06
5.38607e-06
8.14029e-06
1.2118e-05
6.3353e-06
1.08209e-05
1.16583e-05
4.1347e-05
1.53519e-05
1.53014e-06
4.52547e-06
8.03875e-06
1.54288e-05
3.4508e-06
1.34752e-05
2.55233e-05
6.51238e-06
3.09272e-06
7.56019e-06
1.00519e-05
1.01293e-05
9.13626e-06
6.3723e-05
1.54754e-05
4.26228e-06
1.74897e-06
1.57899e-06
5.82019e-06
1.33354e-05
2.01491e-05
1.76143e-05
1.43201e-05
1.44735e-05
1.83976e-06
6.93143e-06
9.03211e-06
7.21372e-06
4.42874e-06
7.51041e-06
2.20002e-06
4.64e-06
1.12491e-05
1.15637e-05
1.90101e-05
1.56242e-06
4.0516e-06
1.29759e-05
1.86231e-05
1.55663e-05
1.29364e-05
7.22122e-06
2.54745e-05
1.17856e-05
1.3983e-05
1.18356e-05
8.34192e-05
4.4614e-05
6.60508e-06
8.749e-06
5.60686e-06
8.34845e-06
1.62419e-05
1.28714e-05
1.9699e-05
9.45358e-06
5.35074e-06
4.46377e-06
6.05685e-06
6.56556e-06
1.19662e-05
1.50835e-05
1.13808e-05
1.00474e-05
9.03765e-06
1.73964e-05
1.01949e-05
1.45026e-05
1.1561e-05
1.07524e-05
1.89239e-05
1.67682e-05
1.29277e-05
1.08484e-05
1.61224e-05
1.31965e-05
5.01602e-06
7.28545e-06
2.87937e-05
1.25053e-05
1.08405e-05
2.04937e-06
1.03894e-05
1.7242e-05
1.88629e-05
1.52189e-05
3.01637e-06
1.46529e-05
2.36477e-05
2.74909e-05
3.316e-05
5.15375e-05
9.04954e-05
4.84924e-05
1.50963e-05
3.39582e-06
9.21902e-06
8.90226e-08
1.72946e-05
1.92716e-05
2.98879e-05
2.41567e-05
5.23123e-06
3.59632e-06
2.08658e-05
1.88338e-05
1.75763e-05
3.32715e-05
2.19804e-05
4.56793e-05
1.83486e-05
3.74894e-05
1.45521e-05
1.03483e-05
2.37177e-05
2.50873e-05
5.52829e-06
1.43519e-05
0.000159526
5.11582e-05
3.05246e-05
9.36899e-06
2.17418e-05
7.3003e-06
3.89465e-05
3.89468e-05
0.000196325
0.000151033
1.25252e-05
3.54653e-05
5.22549e-05
8.71077e-05
4.8524e-05
7.44375e-06
8.99588e-06
2.41032e-05
7.35557e-06
7.95874e-05
2.11996e-05
3.52295e-05
1.25636e-05
8.64196e-06
2.67279e-05
3.72174e-05
1.73472e-05
1.64326e-05
1.46969e-05
2.46789e-05
1.43757e-05
1.35972e-05
1.25978e-05
1.60809e-05
4.07669e-05
1.82652e-05
2.96059e-05
3.29286e-05
7.13848e-06
8.53445e-06
2.8045e-05
2.04964e-05
0.000142282
4.11553e-05
2.04097e-05
0.000114804
2.52124e-05
0.000116122
0.000227709
3.18361e-05
9.7969e-06
1.01038e-05
9.83702e-06
1.21556e-05
1.20565e-05
4.97571e-06
1.77393e-05
1.86147e-05
0.000140403
7.98612e-05
7.09355e-06
1.18477e-05
1.60956e-05
4.7032e-05
1.36284e-05
3.7861e-05
5.40056e-05
1.37098e-05
2.65195e-05
1.79523e-05
7.28766e-05
7.72525e-05
6.15216e-06
0.00013108
7.58084e-05
8.43312e-06
2.90577e-05
1.29022e-05
4.69634e-05
2.15028e-05
4.49284e-05
5.06608e-05
0.000235688
1.86427e-05
3.52527e-05
0.000289872
4.25851e-06
3.21746e-05
5.26348e-05
2.25935e-06
5.98378e-05
3.33708e-05
9.30008e-06
1.12007e-05
1.32293e-05
2.10846e-05
3.19336e-07
7.30555e-05
1.96467e-06
5.58448e-07
9.15257e-06
1.6913e-05
4.21746e-06
2.8801e-06
2.10814e-06
0.00013757
7.99351e-05
1.80208e-05
1.97731e-05
7.18138e-06
0.000187253
3.47254e-05
4.93866e-05
0.000106359
1.28491e-06
7.5624e-07
2.20588e-05
7.27138e-05
5.35009e-05
2.07278e-05
5.11895e-05
8.74896e-05
0.000105395
2.16608e-05
0.000313039
9.39139e-05
2.60707e-05
2.64725e-06
8.48207e-05
4.00335e-05
1.07336e-05
9.9487e-06
9.25996e-06
2.67936e-05
3.42575e-05
9.49365e-06
3.29037e-06
1.5758e-05
1.19768e-05
1.94888e-06
1.06481e-05
3.919e-06
1.36992e-05
9.63146e-05
0.000109936
0.0001683
1.80211e-05
2.81117e-05
2.07179e-05
4.79722e-05
0.00010949
1.35239e-05
1.21814e-05
2.03588e-05
5.05495e-06
1.74648e-06
7.25035e-05
0.000104973
2.62473e-05
1.28269e-05
1.61742e-05
6.53601e-05
9.45072e-06
5.20763e-05
0.000320252
2.28937e-06
3.26721e-05
3.99736e-05
2.36466e-05
6.14015e-06
8.22462e-06
4.69192e-05
8.087e-05
4.62787e-05
2.16435e-05
1.17776e-05
3.75144e-05
0.000121175
2.91683e-07
0.00016764
1.15704e-05
7.71031e-06
7.49311e-05
5.43484e-05
6.79625e-05
6.9743e-06
9.60385e-06
3.29285e-05
2.50557e-05
0.000230586
4.09241e-05
1.25069e-05
4.31867e-06
2.27367e-05
5.1411e-06
1.86715e-06
1.62773e-05
1.24942e-05
3.34111e-05
1.34896e-05
6.75686e-06
3.84328e-05
3.04048e-05
8.45594e-05
0.000228735
2.37106e-05
3.05591e-05
7.66626e-07
3.77891e-06
2.78033e-05
9.04495e-07
4.4372e-06
3.28711e-05
4.1431e-05
3.96088e-05
9.60129e-05
0.000167336
1.84407e-05
1.05435e-05
1.92562e-05
4.08965e-05
4.03367e-05
5.65785e-05
7.12558e-05
2.00854e-05
9.16038e-06
1.78523e-05
4.18374e-05
3.07879e-05
0.00030377
1.70735e-05
9.79995e-06
4.61467e-05
2.02177e-05
2.61376e-06
5.01996e-06
2.76663e-05
1.87583e-05
9.0943e-06
6.54868e-06
1.27442e-05
2.55705e-05
3.30946e-05
0.00011225
4.91246e-05
3.59765e-05
3.0405e-05
4.05916e-05
7.03946e-05
4.97444e-05
2.67033e-05
3.37918e-05
3.5629e-05
8.12846e-06
1.38256e-05
1.8661e-05
9.0522e-06
2.28557e-05
1.51169e-05
1.75385e-05
0.000246474
8.89126e-05
0.000132979
6.28579e-05
2.00563e-05
3.59407e-05
2.46147e-05
1.82218e-05
0.000155571
9.66615e-05
4.51655e-06
0.000109152
0.00013661
2.31744e-05
4.57205e-06
3.68e-05
6.26602e-06
9.54461e-06
6.30065e-06
2.04614e-06
1.69944e-05
2.03285e-05
8.11259e-05
6.48237e-05
3.39504e-05
3.64284e-05
8.9621e-06
1.04253e-05
6.37676e-05
3.48956e-05
2.76426e-05
1.56601e-05
1.62733e-06
3.95693e-05
4.02945e-05
7.03359e-06
2.44692e-06
2.36475e-05
2.02634e-05
1.51094e-05
0.000155297
8.48242e-05
0.000157199
0.000163353
2.9531e-05
4.78547e-05
5.21003e-05
3.52311e-05
0.000125945
4.62716e-06
7.43944e-05
0.000154989
1.7038e-05
1.32835e-05
1.17764e-05
1.17891e-05
1.56616e-05
1.77454e-05
4.77498e-06
1.31628e-05
2.25831e-05
2.59975e-05
0.000408065
9.35554e-05
1.56055e-05
3.48248e-05
2.99347e-05
0.000150327
0.000145163
1.01818e-05
3.70275e-06
9.96299e-06
2.22306e-05
2.68032e-05
3.42507e-05
3.34056e-06
3.30585e-05
2.34135e-05
4.73238e-05
1.93347e-05
0.000204148
1.72434e-05
1.49552e-05
0.0001881
0.000217341
5.50668e-05
7.94801e-05
2.55748e-05
4.4369e-06
0.000116367
7.25673e-05
0.000106084
3.10551e-05
7.44967e-07
2.97163e-05
2.74523e-05
1.2713e-05
1.64933e-05
1.86929e-05
2.20657e-05
1.14276e-06
0.000159457
0.00045948
0.000192151
2.53646e-05
2.16033e-05
0.000221174
0.00010621
0.000112789
3.18067e-05
1.57674e-06
6.56046e-06
1.35364e-05
3.56224e-05
6.58845e-05
2.50795e-05
4.17198e-05
3.42927e-05
5.94664e-05
1.75193e-07
2.72082e-05
1.23508e-05
7.10611e-06
6.80572e-05
0.000147973
8.73188e-05
4.8774e-06
1.98781e-05
1.86259e-05
5.85745e-05
6.74088e-06
1.70463e-05
2.37169e-05
2.58231e-05
3.9897e-05
1.81519e-05
1.72338e-05
2.08327e-05
2.24809e-06
0.000112014
8.0411e-05
0.000174016
0.000399384
8.42063e-05
1.23711e-05
0.000146769
0.000170798
4.70084e-05
8.23284e-05
7.35632e-05
7.77777e-06
1.17184e-05
8.80664e-06
3.17733e-05
0.000156015
4.3516e-05
4.58594e-05
2.25972e-05
3.07288e-05
2.76343e-06
2.39424e-05
9.63777e-06
1.64777e-05
8.1301e-05
9.79471e-06
2.90545e-06
2.77532e-05
1.80869e-05
7.90484e-05
1.2612e-05
4.39676e-06
1.18558e-05
2.10018e-05
3.16156e-05
1.43772e-05
1.7387e-05
1.99891e-05
2.98548e-05
0.000234133
0.000120094
0.0001127
0.000308829
0.000437152
5.76378e-05
0.000116019
6.07342e-05
7.61939e-05
5.08651e-05
7.14015e-05
1.43508e-05
2.64077e-05
5.93328e-06
8.94386e-06
2.29406e-05
0.000186721
2.88651e-05
3.031e-05
2.39439e-05
1.75412e-05
1.13683e-05
5.08131e-05
1.23261e-05
7.83884e-05
4.21021e-05
5.95796e-06
1.06728e-05
6.90248e-05
8.9262e-05
3.17578e-05
7.00914e-06
1.51529e-05
3.3677e-05
3.04725e-05
6.34951e-06
3.78056e-05
1.02181e-05
3.96174e-05
2.53817e-06
0.00028284
6.45296e-06
1.92479e-05
0.000360621
0.000318996
3.73164e-05
9.21019e-05
3.69736e-05
2.4904e-05
0.000145649
5.71728e-05
2.03334e-05
2.0604e-05
3.27442e-06
1.85063e-05
3.23406e-05
0.000161824
2.81438e-05
1.23657e-05
2.48087e-05
3.00012e-05
6.66819e-06
0.000168812
1.55779e-05
8.1493e-05
1.66017e-05
0.00012806
0.000209875
0.000228769
2.62179e-05
5.61157e-06
1.83605e-05
1.99726e-05
7.45352e-06
2.02221e-05
0.000157083
3.87053e-05
1.43048e-05
2.95377e-05
0.00033749
2.57353e-05
2.60751e-06
2.54583e-05
0.000316527
0.000101045
1.05164e-05
2.51485e-05
8.84342e-05
8.369e-06
1.52895e-05
7.3337e-06
5.6684e-06
2.16207e-05
4.49103e-05
3.34806e-05
3.0585e-05
0.000123423
3.12459e-05
1.04302e-05
2.13077e-05
6.64681e-05
2.2375e-05
7.46396e-05
1.53943e-05
6.85616e-05
8.83354e-05
0.00024334
0.000360704
0.000198033
4.09663e-05
6.25357e-06
2.28314e-06
1.14479e-05
3.99042e-07
0.000166825
0.000161295
1.27749e-06
1.84571e-05
7.36456e-06
0.000368913
9.23914e-06
9.212e-06
8.03596e-05
8.97975e-05
1.99422e-05
3.66714e-07
1.77972e-05
7.13741e-07
2.13926e-07
7.91261e-07
5.32769e-06
1.47301e-06
0.000148181
2.23629e-05
6.30629e-05
1.94672e-05
0.000100844
1.09856e-05
3.17229e-05
1.18695e-05
4.61449e-05
4.80594e-05
3.33168e-05
1.58424e-05
4.85443e-05
9.45212e-05
0.000278515
0.00024272
8.96873e-05
3.69921e-05
1.32856e-05
5.76867e-06
4.34889e-06
1.66261e-06
0.000159831
1.65902e-05
2.37415e-06
6.11864e-05
0.00028523
0.000165597
7.30324e-06
6.97074e-06
5.47005e-05
1.82496e-05
6.39066e-06
1.02455e-06
7.40422e-06
3.63335e-07
4.1364e-07
1.48351e-06
6.4596e-06
4.92238e-07
0.00031278
5.81871e-05
6.68344e-06
2.78916e-05
1.85588e-05
1.36902e-05
1.40801e-05
9.89538e-06
1.13414e-05
8.31827e-05
1.22333e-05
1.06514e-05
5.59171e-05
2.82881e-05
0.00023777
1.3445e-05
5.45398e-05
5.28841e-05
5.21339e-08
2.7216e-06
1.482e-06
1.2518e-06
0.000129116
2.86852e-05
4.61059e-05
2.7886e-05
0.000265635
0.000159875
5.36984e-05
2.71851e-06
2.01651e-05
2.11224e-05
3.21232e-06
1.95845e-05
1.29919e-06
3.38731e-07
1.12433e-07
4.90139e-06
3.81413e-05
2.36397e-05
0.000331304
2.62017e-05
4.09715e-06
6.49186e-05
5.11295e-06
1.53508e-05
3.71436e-06
5.42859e-06
7.70728e-06
1.28504e-05
1.29581e-05
8.86098e-06
3.43933e-05
2.28127e-05
7.57259e-05
2.50863e-05
0.000134175
2.26541e-05
1.41223e-09
1.69033e-06
2.3162e-06
2.30499e-05
1.83714e-05
4.87941e-05
3.31316e-06
9.09755e-05
0.000185307
0.000196345
3.58269e-05
2.3096e-06
3.28593e-07
8.68289e-05
9.70764e-06
5.19612e-06
8.81959e-07
3.32378e-08
1.53109e-06
6.55571e-05
5.00579e-05
3.61467e-06
0.000268022
4.59421e-07
1.36657e-06
2.54425e-06
1.24291e-07
4.47353e-05
3.10375e-06
1.73509e-06
1.19802e-05
1.1245e-05
1.30216e-05
9.36106e-06
1.00973e-05
1.09225e-05
2.9208e-05
3.68117e-05
1.71854e-05
4.33383e-06
1.83085e-06
2.28483e-06
3.11267e-07
3.1238e-06
1.21374e-05
6.86082e-06
1.56815e-05
3.64186e-05
0.00016812
0.000150913
2.44243e-05
5.00043e-06
1.27843e-05
1.55656e-06
4.58308e-06
2.89034e-07
2.38348e-07
6.77691e-07
7.11724e-06
7.40813e-05
1.12636e-06
6.53376e-06
1.26544e-05
1.4182e-07
5.88243e-08
3.56916e-07
2.61887e-05
5.49845e-05
6.26277e-06
1.57166e-07
1.42396e-05
1.89408e-05
1.53779e-05
5.83904e-06
1.06273e-05
2.97141e-05
1.39276e-05
6.4453e-05
2.83172e-06
4.26023e-06
3.94462e-06
1.14779e-05
8.13081e-07
1.30102e-06
9.6015e-07
4.62894e-06
1.26775e-05
1.76446e-05
0.000177766
0.000128086
5.03609e-07
1.29825e-07
2.72953e-07
2.0747e-07
4.08972e-07
1.96081e-07
5.3179e-07
3.35111e-07
1.65538e-05
5.75743e-06
3.54972e-05
3.85977e-05
6.39149e-07
2.16458e-07
1.43533e-07
3.05694e-07
2.67926e-05
3.75938e-06
4.46924e-07
1.54475e-07
1.73517e-05
1.24516e-05
1.80845e-05
2.79719e-05
8.77312e-06
8.86908e-06
2.47537e-05
7.55939e-06
1.98301e-06
5.84555e-06
1.34068e-05
1.10428e-05
2.08356e-07
5.1335e-07
1.96091e-07
1.97282e-06
1.0229e-06
3.36261e-05
0.000137961
2.66435e-08
5.0042e-07
1.40724e-08
6.41002e-08
9.86561e-08
1.57346e-08
2.95365e-07
4.0849e-07
3.52301e-07
1.66153e-05
6.86652e-07
4.19597e-07
4.02868e-06
1.37881e-07
7.55489e-07
1.86593e-06
3.8604e-07
2.81198e-06
1.21944e-06
5.69254e-08
1.7519e-07
2.9586e-05
3.13729e-06
1.77427e-06
5.53068e-06
2.54416e-06
1.91083e-05
1.31924e-06
2.78862e-06
2.0455e-06
3.72102e-06
1.64214e-05
1.86986e-05
8.42838e-07
2.72645e-08
4.94023e-08
1.82656e-08
2.6587e-08
2.25977e-05
9.84708e-08
6.39794e-08
5.00392e-08
2.10339e-09
4.75264e-08
3.94516e-08
1.64081e-08
2.77054e-07
5.82382e-07
1.64562e-06
1.38802e-05
6.92147e-06
2.2795e-06
3.09893e-07
2.69484e-08
1.71908e-06
2.48635e-07
1.82946e-06
2.77199e-07
5.63799e-07
6.82984e-08
3.40637e-07
2.57495e-05
1.10613e-07
1.27641e-06
4.01256e-06
1.2034e-05
2.10455e-07
3.05277e-07
3.71997e-07
7.03946e-07
5.94283e-07
1.23055e-05
8.76753e-06
4.51018e-07
9.38699e-09
3.87571e-08
8.23529e-08
1.75175e-08
8.98466e-09
9.44822e-09
8.2351e-09
1.4197e-08
2.60095e-09
2.90672e-08
1.29461e-08
8.31518e-09
2.79188e-07
7.23924e-07
1.76246e-06
7.5903e-06
2.48404e-06
2.41783e-07
1.99237e-08
1.19874e-08
3.00262e-07
2.95583e-09
3.66847e-07
4.63524e-08
1.91788e-09
5.16473e-08
3.37843e-07