/*--------------------------------*- C++ -*----------------------------------*\
  =========                 |
  \\      /  F ield         | OpenFOAM: The Open Source CFD Toolbox
   \\    /   O peration     | Website:  https://openfoam.org
    \\  /    A nd           | Version:  10
     \\/     M anipulation  |
\*---------------------------------------------------------------------------*/
FoamFile
{
    format      ascii;
    class       volTensorField;
    location    "8";
    object      strainTensor;
}
// * * * * * * * * * * * * * * * * * * * * * * * * * * * * * * * * * * * * * //

dimensions      [0 0 -1 0 0 0 0];

internalField   nonuniform List<tensor> 
25600
(
(0.514973 0 0 0 -2.3449 -0 0 -0 0.184665)
(-0.0332793 0 0 0 -2.85302 -0 0 -0 0.828914)
(-0.472352 0 0 0 -2.3356 -0 0 -0 0.78886)
(-0.568446 0 -0 0 -2.13376 0 -0 0 1.08941)
(-0.208066 0 -0 0 -1.08854 0 -0 0 -0.0563708)
(0.373682 0 -0 0 -1.46222 -0 -0 -0 -0.634334)
(0.234597 0 -0 0 -1.56421 0 -0 0 -0.225133)
(-0.376343 0 -0 0 0.543517 0 -0 0 -1.55306)
(0.348419 0 -0 0 -0.45469 -0 -0 -0 -1.72464)
(0.75156 0 0 0 -1.87717 -0 0 -0 -0.915095)
(-0.331238 0 0 0 -2.40646 -0 0 -0 0.629909)
(-0.571548 0 0 0 -1.63949 0 0 0 0.217111)
(0.126224 0 0 0 -0.794582 0 0 0 -1.06085)
(1.26257 0 0 0 -2.76892 -0 0 -0 -0.426425)
(0.917906 0 0 0 -4.8321 -0 0 -0 1.67982)
(-0.872262 0 -0 0 -3.4879 -0 -0 -0 2.02868)
(-1.1865 0 -0 0 -1.77038 0 -0 0 0.727921)
(-0.646517 0 -0 0 0.00621784 0 -0 0 -0.734911)
(-0.209467 0 -0 0 0.0827019 0 -0 0 -1.00938)
(0.252219 0 -0 0 -1.6944 0 -0 0 -0.320555)
(0.179033 0 -0 0 -1.60493 -0 -0 -0 -0.0696015)
(-0.239603 0 -0 0 -0.705702 0 -0 0 -0.312068)
(-0.0126629 0 -0 0 0.254648 0 -0 0 -1.56853)
(0.499683 0 0 0 -0.859373 0 0 0 -1.48687)
(0.0822747 0 0 0 -2.04494 -0 0 -0 0.0460999)
(-0.298325 0 0 0 -1.32125 -0 0 -0 0.110406)
(-0.112346 0 -0 0 -0.958878 0 -0 0 -0.321455)
(-0.176465 0 -0 0 -0.510361 0 -0 0 -0.936759)
(0.444104 0 -0 0 -0.183267 -0 -0 -0 -2.08058)
(1.00418 0 0 0 -1.88979 -0 0 -0 -1.22265)
(0.308431 0 0 0 -3.12474 -0 0 -0 0.967886)
(-0.612969 0 -0 0 -2.51085 0 -0 0 1.35793)
(-0.442471 0 -0 0 -0.477021 0 -0 0 -0.602908)
(-0.235018 0 -0 0 -0.778739 0 -0 0 -0.480364)
(0.0620201 0 -0 0 -2.47723 0 -0 0 1.10638)
(0.0285471 0 -0 0 -1.51421 0 -0 0 0.0874341)
(0.308579 0 -0 0 0.251763 0 -0 0 -2.36727)
(0.467968 0 0 0 -1.98629 -0 0 -0 -0.339225)
(-0.551454 0 -0 0 -1.44624 0 -0 0 0.1559)
(-0.00962964 0 0 0 -0.371355 0 0 0 -1.3046)
(1.29639 0 0 0 2.37539 0 0 0 -0.191545)
(0.0914753 0 0 0 2.33075 -0 0 -0 1.4554)
(-1.1744 0 0 0 3.46909 -0 0 -0 1.2641)
(-1.52185 0 -0 0 2.17932 -0 -0 -0 2.44602)
(-0.40995 0 -0 0 1.62349 -0 -0 -0 0.841246)
(0.503936 0 -0 0 2.47372 -0 -0 -0 -0.632598)
(0.160319 0 -0 0 3.00348 -0 -0 -0 0.121065)
(-0.34767 0 -0 0 7.97273 -0 -0 -0 -2.15982)
(1.21256 0 -0 0 5.66854 -0 -0 -0 -2.325)
(1.99386 0 0 0 3.13721 -0 0 -0 -1.12587)
(-0.325982 0 0 0 2.70825 -0 0 -0 1.14917)
(-1.51989 0 0 0 3.19901 -0 0 -0 1.67331)
(-0.726903 0 0 0 6.11307 -0 0 -0 -1.84806)
(2.3365 0 0 0 2.80099 0 0 0 -1.47959)
(2.4018 0 0 0 -0.248818 -0 0 -0 2.64204)
(-1.55567 0 -0 0 3.06774 -0 -0 -0 1.78417)
(-2.39749 0 -0 0 4.78392 -0 -0 -0 0.194045)
(-1.37984 0 -0 0 6.89398 -0 -0 -0 -1.39591)
(-0.523277 0 0 0 6.76636 -0 0 -0 -1.96327)
(-0.353716 0 -0 0 3.90143 -0 -0 -0 -0.725845)
(-0.328611 0 -0 0 2.67755 -0 -0 -0 -0.232333)
(0.208109 0 -0 0 2.80053 -0 -0 -0 0.00464977)
(0.800276 0 -0 0 4.40033 -0 -0 -0 -2.08384)
(1.5037 0 0 0 6.55794 -0 0 -0 -3.57014)
(0.185836 0 0 0 3.62543 -0 0 -0 0.110648)
(-0.929931 0 0 0 3.77009 -0 0 -0 0.282964)
(-0.416011 0 -0 0 3.44551 -0 -0 -0 0.158013)
(-0.326329 0 -0 0 4.29309 -0 -0 -0 -0.60769)
(0.839089 0 -0 0 6.55671 -0 -0 -0 -3.37604)
(1.86651 0 0 0 4.73853 -0 0 -0 -3.24362)
(0.871311 0 0 0 2.49967 -0 0 -0 1.39361)
(-1.22579 0 -0 0 1.78792 -0 -0 -0 3.38622)
(-1.07257 0 -0 0 5.30929 -0 -0 -0 -0.441931)
(-0.459588 0 -0 0 5.85808 -0 -0 -0 -1.52394)
(-0.640238 0 -0 0 2.13112 -0 -0 -0 1.5325)
(-0.19416 0 -0 0 1.49478 -0 -0 -0 1.50737)
(1.46057 0 -0 0 7.14273 -0 -0 -0 -4.26753)
(1.37998 0 0 0 4.25094 -0 0 -0 -2.02585)
(-1.21272 0 -0 0 3.92062 -0 -0 -0 0.41647)
(-0.0696421 0 -0 0 6.23213 -0 -0 -0 -2.29588)
(1.5281 0 0 0 -3.68001 0 0 0 -0.419394)
(0.0336465 0 -0 0 -5.09976 0 -0 0 1.51843)
(-0.956605 0 -0 0 -1.95125 -0 -0 -0 0.622905)
(-1.64824 0 -0 0 -2.70361 -0 -0 -0 2.31426)
(-0.579999 0 -0 0 -2.51246 -0 -0 -0 1.27012)
(0.309799 0 0 0 -1.58057 -0 0 -0 -0.795794)
(-0.683681 0 -0 0 -2.00251 -0 -0 -0 0.0672876)
(-0.0605774 0 -0 0 -2.78585 -0 -0 -0 -1.27844)
(1.93647 0 -0 0 -4.39714 0 -0 0 -1.15923)
(1.66783 0 0 0 -4.05692 -0 0 -0 -0.410917)
(-0.047973 0 0 0 -3.86394 -0 0 -0 0.840525)
(-1.28635 0 -0 0 -4.43559 -0 -0 -0 3.16927)
(-0.811642 0 0 0 -3.36079 -0 0 -0 0.438563)
(1.6838 0 0 0 -2.96057 0 0 0 -2.0182)
(1.56882 -0 -0 -0 -8.72907 0 -0 0 1.88866)
(-0.980369 -0 -0 -0 -2.87289 -0 -0 -0 0.481878)
(-1.5934 0 -0 0 -1.12499 -0 -0 -0 -1.16202)
(-0.903947 0 -0 0 -1.62283 -0 -0 -0 -1.00358)
(-0.275451 0 0 0 -1.84971 -0 0 -0 -1.65139)
(-1.08748 0 0 0 -0.333475 -0 0 -0 -1.72386)
(-1.00013 0 -0 0 -0.541252 -0 -0 -0 -0.914311)
(0.183857 0 -0 0 -2.19975 -0 -0 -0 0.0274734)
(0.777674 0 -0 0 -2.68064 -0 -0 -0 -1.50781)
(2.21289 0 0 0 -3.60475 0 0 0 -2.16615)
(1.20285 0 0 0 -3.78414 0 0 0 -0.267012)
(-1.05129 0 0 0 -0.815863 -0 0 -0 -0.722097)
(-1.27841 0 0 0 -1.06995 -0 0 -0 0.0771924)
(-0.441669 0 -0 0 -2.04679 -0 -0 -0 -0.394424)
(0.874094 0 0 0 -3.22695 -0 0 -0 -1.93374)
(1.34096 0 0 0 -0.914776 0 0 0 -4.34184)
(0.758856 0 0 0 -4.47746 0 0 0 -0.219714)
(-0.94502 0 -0 0 -6.12065 -0 -0 -0 3.86827)
(-0.896596 0 -0 0 -3.30227 -0 -0 -0 0.465678)
(0.282752 0 -0 0 -1.75561 -0 -0 -0 -2.22893)
(-1.17145 0 -0 0 -0.275539 -0 -0 -0 -0.37234)
(-1.17193 0 -0 0 -2.61226 -0 -0 -0 1.30583)
(1.76827 0 -0 0 -3.23071 0 -0 0 -3.4486)
(1.60233 0 0 0 -0.173089 -0 0 -0 -4.63522)
(-1.11979 0 -0 0 -1.1172 -0 -0 -0 -0.689879)
(0.259012 0 -0 0 -2.88238 0 -0 0 -1.38494)
(1.29228 0 -0 0 1.67593 -0 -0 -0 -0.432842)
(-0.462413 0 -0 0 1.08446 0 -0 0 1.45276)
(-1.05025 0 -0 0 2.07734 0 -0 0 0.0865146)
(-1.12436 0 0 0 1.73485 -0 0 -0 1.45487)
(-0.564375 0 -0 0 1.25283 -0 -0 -0 0.792545)
(-0.123827 0 0 0 3.83998 -0 0 -0 -2.33141)
(-0.800185 0 -0 0 3.12016 -0 -0 -0 -0.322961)
(0.115925 0 -0 0 3.05534 -0 -0 -0 0.488721)
(1.71145 -0 -0 -0 1.33518 0 -0 0 -0.759947)
(1.48462 0 0 0 1.50134 0 0 0 -0.68188)
(0.314931 0 -0 0 2.64251 -0 -0 -0 -0.981116)
(-0.864493 0 -0 0 0.231329 -0 -0 -0 2.4787)
(-0.554285 0 -0 0 1.12099 -0 -0 -0 2.02742)
(1.1582 0 0 0 2.26566 -0 0 -0 -1.4632)
(0.977446 -0 -0 -0 0.639282 0 -0 0 1.48986)
(-0.64724 0 -0 0 0.704972 0 -0 0 1.07748)
(-1.59773 0 -0 0 5.91533 -0 -0 -0 -1.38703)
(-0.825991 0 -0 0 3.98184 0 -0 0 0.24003)
(0.0698906 0 0 0 3.68069 -0 0 -0 0.343039)
(-1.2521 0 -0 0 5.7598 -0 -0 -0 -1.87054)
(-1.21105 0 -0 0 4.11287 -0 -0 -0 -1.03031)
(-0.0899563 0 -0 0 0.914168 -0 -0 -0 0.698765)
(1.08592 0 -0 0 2.3468 0 -0 0 -0.687563)
(2.23768 0 0 0 -0.195717 0 0 0 -0.413278)
(1.07012 -0 -0 -0 1.06309 0 -0 0 -0.593552)
(-0.472519 0 0 0 4.74023 -0 0 -0 -1.20008)
(-1.37791 0 0 0 4.41975 -0 0 -0 -0.267368)
(-0.779499 0 0 0 3.57076 -0 0 -0 -0.317495)
(0.646983 0 0 0 4.13519 -0 0 -0 -1.2284)
(1.20621 0 0 0 5.74308 0 0 0 -3.89873)
(1.11599 0 -0 0 3.57537 0 -0 0 -1.14675)
(-0.477073 0 0 0 -0.516302 -0 0 -0 3.9831)
(-0.928442 0 -0 0 2.0946 -0 -0 -0 1.85168)
(-0.058641 0 -0 0 5.35709 0 -0 0 -1.62054)
(-1.3498 0 -0 0 4.49854 0 -0 0 -0.93552)
(-0.89199 0 -0 0 2.15282 -0 -0 -0 0.0514266)
(1.62335 0 -0 0 5.26947 0 -0 0 -3.24038)
(1.55404 0 0 0 6.90954 0 0 0 -5.20934)
(-0.474345 0 -0 0 4.42625 -0 -0 -0 -1.35766)
(0.313429 0 -0 0 2.33969 -0 -0 -0 -0.0453735)
(0.337242 0 -0 0 -0.548449 -0 -0 -0 -0.533905)
(-0.158876 -0 -0 -0 -0.791852 0 -0 0 0.456985)
(-0.480079 0 -0 0 -0.297069 0 -0 0 -0.416232)
(-1.25588 0 -0 0 -0.886643 0 -0 0 0.709664)
(-0.42202 0 -0 0 -2.37697 -0 -0 -0 1.48783)
(-0.0613159 0 0 0 -0.865351 0 0 0 -1.71224)
(-1.16947 0 0 0 0.552927 -0 0 -0 -1.23838)
(-0.33103 0 -0 0 -0.854361 -0 -0 -0 0.529788)
(2.04509 -0 -0 -0 -1.43677 0 -0 0 -1.65255)
(2.24133 0 0 0 -4.04059 0 0 0 -0.412236)
(0.293101 0 0 0 -1.21884 -0 0 -0 -0.499682)
(-0.652321 0 -0 0 -1.42269 -0 -0 -0 1.04333)
(-1.09621 0 -0 0 -2.33246 -0 -0 -0 2.13181)
(-0.0324177 -0 0 -0 -0.713538 -0 0 -0 -0.29334)
(1.31675 -0 -0 -0 -1.22345 0 -0 0 -0.0361385)
(0.177983 0 -0 0 -2.31575 0 -0 0 0.673192)
(-1.58327 0 -0 0 0.239254 -0 -0 -0 -1.42093)
(-0.830435 0 -0 0 -1.82223 0 -0 0 0.553525)
(0.128586 0 0 0 -3.54316 -0 0 -0 2.36491)
(-1.3766 0 0 0 -0.060968 -0 0 -0 -1.03637)
(-1.39409 0 0 0 0.556097 -0 0 -0 -1.81414)
(0.0739424 0 -0 0 -2.16606 0 -0 0 0.578023)
(0.807467 0 -0 0 -1.35965 -0 -0 -0 -0.643772)
(1.41307 -0 -0 -0 -0.833517 0 -0 0 -0.994476)
(1.44694 -0 -0 -0 -1.59778 0 -0 0 -0.651552)
(0.409604 -0 0 -0 -1.39462 0 0 0 -0.939328)
(-1.07764 0 0 0 -0.243353 -0 0 -0 -0.322845)
(-0.919866 0 0 0 -0.466575 -0 0 -0 -0.428185)
(0.337476 0 0 0 -1.38737 -0 0 -0 -1.6626)
(1.20054 0 0 0 -1.03342 0 0 0 -3.50888)
(1.31547 0 -0 0 -2.28383 0 -0 0 -0.88496)
(-0.591461 0 0 0 -2.45478 -0 0 -0 2.75002)
(-0.991049 0 -0 0 -3.09545 -0 -0 -0 2.58557)
(-0.0552164 0 -0 0 -0.950333 0 -0 0 -1.18372)
(-1.27804 0 -0 0 -0.0399989 0 -0 0 -0.875075)
(-1.19787 0 0 0 0.872484 -0 0 -0 -0.920118)
(1.47888 -0 -0 -0 -1.16107 0 -0 0 -2.86333)
(2.07998 0 0 0 -2.02765 0 0 0 -3.48713)
(-0.0151193 0 -0 0 -1.07993 -0 -0 -0 -1.12996)
(-0.133159 0 -0 0 -1.92579 -0 -0 -0 0.634027)
(-0.251217 0 -0 0 0.305552 -0 -0 -0 0.05553)
(-0.187605 0 -0 0 -0.408278 0 -0 0 -0.334702)
(-0.0830852 0 -0 0 2.61152 -0 -0 -0 -1.19469)
(-1.22158 0 -0 0 1.26839 0 -0 0 1.05737)
(-0.679543 0 -0 0 -0.184341 0 -0 0 1.81532)
(-0.0912421 0 -0 0 2.87516 0 -0 0 -0.92865)
(-1.08309 0 -0 0 3.41545 0 -0 0 -1.76548)
(-0.137454 0 -0 0 -0.532919 0 -0 0 0.31362)
(2.32438 0 -0 0 1.07268 0 -0 0 -2.32524)
(2.15013 0 0 0 -0.513374 -0 0 -0 -0.78393)
(0.0636449 -0 -0 -0 -0.509458 0 -0 0 0.817957)
(-0.569991 0 -0 0 0.699654 -0 -0 -0 1.00059)
(-1.3188 0 -0 0 -0.325522 -0 -0 -0 2.10313)
(-0.207498 0 0 0 0.620544 -0 0 -0 0.454046)
(1.34696 0 0 0 -1.17378 -0 0 -0 -0.836272)
(-0.0314988 0 -0 0 -0.42113 0 -0 0 0.615218)
(-1.45644 0 -0 0 1.06254 0 -0 0 0.657802)
(-0.4504 0 -0 0 1.32109 -0 -0 -0 1.09776)
(0.127148 0 0 0 -2.0159 0 0 0 3.06433)
(-1.27685 0 0 0 1.70044 -0 0 -0 0.504483)
(-1.39781 0 0 0 4.95459 -0 0 -0 -1.55348)
(0.341967 0 -0 0 0.574641 0 -0 0 0.735826)
(0.785281 0 -0 0 0.536795 -0 -0 -0 -1.3884)
(0.305212 0 -0 0 1.44566 -0 -0 -0 -0.872378)
(1.14 -0 -0 -0 1.4562 0 -0 0 -1.37298)
(1.15061 -0 0 -0 1.69999 0 0 0 -1.20735)
(-0.189054 0 0 0 2.03185 -0 0 -0 0.195588)
(-0.864035 0 0 0 2.26798 -0 0 -0 -0.0975721)
(0.257583 0 0 0 2.76619 -0 0 -0 -1.53526)
(1.08549 0 -0 0 4.3864 0 -0 0 -3.59933)
(0.747356 -0 -0 -0 1.66588 0 -0 0 -0.904583)
(-0.832975 0 0 0 -0.811885 0 0 0 1.37738)
(-0.897632 0 -0 0 -1.60657 -0 -0 -0 2.30863)
(0.354665 0 -0 0 1.58411 -0 -0 -0 -0.382072)
(-0.743085 0 -0 0 4.11774 0 -0 0 -1.00911)
(-1.43094 0 -0 0 3.96055 -0 -0 -0 -0.830993)
(0.939938 0 -0 0 0.750327 0 -0 0 -0.911591)
(2.14042 -0 -0 -0 2.19085 -0 -0 -0 -2.04379)
(0.367465 0 -0 0 1.42039 -0 -0 -0 -0.579539)
(-0.226417 0 -0 0 0.0850443 -0 -0 -0 1.01317)
(-0.0726469 -0 -0 -0 -0.186734 -0 -0 -0 -0.361237)
(-0.0172404 0 -0 0 0.211919 0 -0 0 -0.434536)
(-0.262558 0 -0 0 -0.0879408 0 -0 0 -0.93834)
(-1.18374 0 -0 0 0.0462322 -0 -0 -0 0.168512)
(-0.690045 0 -0 0 -0.593869 0 -0 0 0.761981)
(-0.336721 0 0 0 -1.31885 0 0 0 -0.770164)
(-0.855021 0 -0 0 1.91662 -0 -0 -0 -1.70576)
(0.333727 0 -0 0 0.882722 0 -0 0 -0.382558)
(1.95968 0 -0 0 -0.605079 -0 -0 -0 -1.82617)
(1.47515 -0 0 -0 0.116585 -0 0 -0 -0.844203)
(0.495324 -0 0 -0 -0.422013 0 0 0 -0.42415)
(-0.364335 0 -0 0 -1.66688 0 -0 0 0.968447)
(-1.21366 0 -0 0 -1.12454 0 -0 0 1.60981)
(0.342036 0 0 0 -1.0033 -0 0 -0 0.350373)
(1.34454 0 0 0 -1.78157 -0 0 -0 -0.222088)
(-0.433056 0 -0 0 -2.07195 -0 -0 -0 1.46838)
(-1.34763 0 -0 0 -0.814554 0 -0 0 1.32261)
(-0.0837275 0 -0 0 -0.0751639 -0 -0 -0 -0.203573)
(-0.332386 0 0 0 -1.71618 0 0 0 2.1012)
(-1.63739 0 0 0 -1.86797 0 0 0 2.59763)
(-1.04384 0 0 0 -0.403419 0 0 0 -0.137658)
(0.61538 0 -0 0 -1.14704 0 -0 0 -0.121811)
(0.76023 -0 -0 -0 0.446428 0 -0 0 -0.760011)
(-0.0174531 0 -0 0 -0.157442 -0 -0 -0 -0.886169)
(0.860438 -0 0 -0 -0.632139 -0 0 -0 -1.44554)
(1.36161 0 0 0 -0.767396 0 0 0 -1.72801)
(0.35695 0 0 0 -0.677405 -0 0 -0 -0.0257019)
(-0.791122 0 0 0 -0.216729 -0 0 -0 0.882782)
(-0.368297 0 0 0 2.19493 -0 0 -0 -1.38877)
(0.421274 -0 -0 -0 3.10826 -0 -0 -0 -3.33625)
(0.974132 -0 -0 -0 1.09418 0 -0 0 -1.66235)
(-0.357662 0 0 0 -0.73229 0 0 0 1.96531)
(-0.993048 0 0 0 0.0291273 -0 0 -0 1.17532)
(0.256895 0 -0 0 -0.0491924 -0 -0 -0 0.0167074)
(-0.618479 0 -0 0 0.527839 0 -0 0 -1.00295)
(-1.38242 0 -0 0 -0.0620615 -0 -0 -0 -0.318364)
(-0.0584455 0 -0 0 0.56014 -0 -0 -0 -0.197771)
(2.18261 -0 -0 -0 -1.15126 -0 -0 -0 -0.484741)
(1.10476 0 -0 0 -1.94426 -0 -0 -0 0.735424)
(-0.383816 0 -0 0 -0.732988 -0 -0 -0 0.194852)
(-0.33078 -0 -0 -0 1.92673 0 -0 0 -0.839459)
(0.282057 0 -0 0 2.42035 -0 -0 -0 -2.05389)
(-0.0534142 0 -0 0 1.47128 -0 -0 -0 -0.425899)
(-1.21946 0 -0 0 1.56145 -0 -0 -0 0.162659)
(-0.721653 0 -0 0 0.703408 0 -0 0 -0.117745)
(-0.247954 0 0 0 1.19336 0 0 0 -0.167902)
(-0.954595 0 -0 0 3.02252 -0 -0 -0 -0.450138)
(0.651313 0 -0 0 2.25161 -0 -0 -0 -1.71823)
(1.92022 0 -0 0 0.597569 -0 -0 -0 -1.82564)
(0.27637 0 0 0 0.424058 -0 0 -0 -0.692156)
(0.706004 -0 0 -0 2.00499 -0 0 -0 -2.22817)
(0.340818 0 0 0 0.707746 0 0 0 -0.497603)
(-0.828177 0 -0 0 -0.584552 0 -0 0 1.58539)
(0.464341 0 0 0 0.130031 -0 0 -0 0.0351517)
(0.972887 0 0 0 -0.235824 -0 0 -0 0.0569537)
(-0.796594 0 -0 0 -0.393749 0 -0 0 1.59953)
(-1.3871 -0 -0 -0 -0.211448 0 -0 0 1.84822)
(0.915778 0 0 0 1.24659 0 0 0 -1.12599)
(-0.310904 0 0 0 0.0935139 0 0 0 1.0347)
(-2.26161 0 0 0 -1.0649 0 0 0 3.26925)
(-0.674138 0 0 0 0.657717 -0 0 -0 0.940095)
(-0.40505 0 0 0 1.72635 -0 0 -0 -1.18459)
(0.0366377 -0 0 -0 2.94161 0 0 0 -1.30194)
(0.580747 -0 -0 -0 -0.149981 0 -0 0 0.239362)
(1.00928 -0 0 -0 0.942033 0 0 0 -1.66715)
(1.55241 -0 0 -0 1.54001 0 0 0 -2.11625)
(0.45066 0 0 0 0.889621 0 0 0 -0.462464)
(-0.35365 0 0 0 -0.120281 0 0 0 0.669853)
(-0.606987 0 0 0 0.689424 -0 0 -0 -0.951804)
(-0.0154625 -0 0 -0 1.03028 0 0 0 -2.97359)
(1.34283 -0 -0 -0 1.23894 0 -0 0 -2.92049)
(-0.089701 0 0 0 -1.03386 0 0 0 1.26618)
(-1.0869 0 0 0 1.2614 -0 0 -0 0.42636)
(0.0408949 0 -0 0 0.475829 -0 -0 -0 -0.959548)
(-0.737842 0 -0 0 1.59966 -0 -0 -0 -1.09213)
(-1.6261 0 -0 0 1.67014 -0 -0 -0 -0.297327)
(-0.289571 0 -0 0 -0.442181 -0 -0 -0 -0.353051)
(2.39294 0 0 0 -2.29485 -0 0 -0 -1.30019)
(1.54354 0 -0 0 -2.68941 -0 -0 -0 0.805972)
(-0.482089 0 -0 0 0.299382 -0 -0 -0 0.867591)
(-0.262954 0 -0 0 -0.10308 0 -0 0 0.04666)
(0.545596 0 -0 0 0.463622 -0 -0 -0 -1.50989)
(-0.16849 0 -0 0 -0.0840877 -0 -0 -0 0.273348)
(-1.14562 0 -0 0 -0.804518 -0 -0 -0 1.78314)
(-0.617426 0 -0 0 0.226915 0 -0 0 0.155623)
(-0.394915 0 -0 0 0.0940682 -0 -0 -0 0.377068)
(-1.05005 0 -0 0 0.100885 -0 -0 -0 0.524611)
(0.785552 0 -0 0 1.44864 -0 -0 -0 -2.2999)
(1.95168 0 0 0 0.11888 -0 0 -0 -1.88197)
(0.309381 0 0 0 -0.827712 0 0 0 -0.69704)
(0.927593 0 0 0 0.46912 -0 0 -0 -1.81089)
(0.462817 0 0 0 0.625137 -0 0 -0 -1.0839)
(-0.959041 0 0 0 -0.668328 0 0 0 1.08015)
(0.173405 0 0 0 -0.599313 0 0 0 0.158397)
(0.710139 0 0 0 -0.277472 0 0 0 -0.145731)
(-0.887588 0 -0 0 -1.88308 0 -0 0 1.10684)
(-1.18349 0 -0 0 -1.19465 0 -0 0 1.37044)
(1.09017 0 0 0 -0.930661 0 0 0 -0.339059)
(-0.485546 0 0 0 0.480487 0 0 0 0.163829)
(-1.68257 0 0 0 0.0960746 0 0 0 1.06537)
(-0.0978605 0 0 0 -0.509081 -0 0 -0 1.42816)
(-1.63677 0 0 0 0.862734 -0 0 -0 1.14942)
(-0.52922 -0 0 -0 0.201287 0 0 0 -2.07767)
(1.09902 0 -0 0 -1.13114 -0 -0 -0 0.124846)
(0.678493 0 -0 0 -0.366311 -0 -0 -0 -0.440101)
(2.08312 -0 0 -0 -0.453482 0 0 0 -0.802404)
(1.2751 0 0 0 -1.69585 0 0 0 0.461393)
(-0.854111 0 0 0 -0.359639 0 0 0 0.656806)
(-1.31878 0 0 0 1.35587 0 0 0 0.0346868)
(-0.257286 -0 0 -0 1.56205 0 0 0 -1.08213)
(1.37544 -0 -0 -0 2.26866 -0 -0 -0 -3.20211)
(0.369886 -0 0 -0 -1.17919 -0 0 -0 0.435296)
(-0.772967 0 0 0 -0.555281 -0 0 -0 1.01549)
(-0.214744 0 -0 0 0.841372 0 -0 0 -0.908609)
(-0.760176 0 -0 0 2.04932 -0 -0 -0 -0.318635)
(-1.4287 0 -0 0 2.38501 -0 -0 -0 0.152977)
(-0.114817 0 -0 0 0.644849 -0 -0 -0 -0.515987)
(2.18803 0 0 0 -0.431416 0 0 0 -1.61245)
(1.40237 -0 -0 -0 -2.40867 -0 -0 -0 0.662071)
(-0.604661 0 -0 0 -1.1031 -0 -0 -0 0.953907)
(-0.145974 0 -0 0 -0.968058 -0 -0 -0 0.958266)
(0.471327 -0 -0 -0 0.811214 0 -0 0 -0.969492)
(0.0072883 0 -0 0 -0.696173 -0 -0 -0 0.334221)
(-0.87434 0 -0 0 -1.07818 -0 -0 -0 2.2512)
(-0.580137 0 -0 0 1.11895 -0 -0 -0 -0.30419)
(-0.834647 0 -0 0 -0.962667 -0 -0 -0 0.250746)
(-1.21265 -0 -0 -0 0.305126 0 -0 0 0.161338)
(1.23547 0 -0 0 0.972908 -0 -0 -0 -1.90506)
(2.2506 0 0 0 -0.472193 0 0 0 -1.66492)
(0.178069 0 0 0 0.446729 0 0 0 -0.100814)
(0.664892 0 -0 0 0.797187 -0 -0 -0 -0.797865)
(0.695497 0 0 0 1.41939 0 0 0 -1.78357)
(-0.721078 0 0 0 -0.0453207 -0 0 -0 0.900785)
(0.088976 0 0 0 0.272012 -0 0 -0 -0.0376961)
(0.570813 0 -0 0 1.49228 0 -0 0 -1.5746)
(-0.799714 0 -0 0 -0.829875 0 -0 0 1.99431)
(-1.3662 0 -0 0 -0.933616 0 -0 0 1.76212)
(0.958485 0 0 0 -1.32023 0 0 0 0.410055)
(0.0714731 0 0 0 -1.24021 -0 0 -0 1.65631)
(-1.43163 0 0 0 1.01608 0 0 0 0.130876)
(0.122672 0 -0 0 -1.93369 0 -0 0 1.107)
(-1.80839 0 0 0 -1.39383 -0 0 -0 3.67938)
(-0.642578 0 0 0 0.522844 -0 0 -0 0.749377)
(1.38781 0 0 0 0.346385 -0 0 -0 -1.30102)
(0.0141615 0 0 0 0.997276 -0 0 -0 -0.755995)
(1.60501 0 0 0 0.207343 0 0 0 -1.87152)
(1.36253 -0 0 -0 -1.27545 0 0 0 0.0222592)
(-1.14587 -0 0 -0 0.402123 0 0 0 0.453599)
(-1.22236 0 0 0 1.82477 -0 0 -0 -0.436207)
(-0.135199 0 -0 0 1.84851 -0 -0 -0 -0.486769)
(0.844794 0 -0 0 1.61967 -0 -0 -0 -1.85594)
(0.218364 -0 0 -0 1.47508 -0 0 -0 0.279583)
(-0.587551 -0 0 -0 0.646213 0 0 0 0.901389)
(-0.0228598 -0 -0 -0 1.63054 0 -0 0 -0.281121)
(0.024782 0 -0 0 1.2529 0 -0 0 -0.88768)
(-0.824503 0 0 0 -0.0109375 0 0 0 0.928333)
(-0.389613 0 0 0 0.466045 0 0 0 0.685946)
(1.4231 0 0 0 0.783496 0 0 0 -1.60998)
(0.934132 -0 -0 -0 -2.3229 0 -0 0 0.732179)
(-0.384962 0 -0 0 -2.15924 -0 -0 -0 1.97593)
(-0.452283 0 -0 0 -0.837437 -0 -0 -0 1.26535)
(0.621317 0 -0 0 0.267251 0 -0 0 -1.35478)
(0.178109 0 -0 0 -0.602418 0 -0 0 -0.548985)
(-0.977842 0 -0 0 -0.731462 -0 -0 -0 1.52182)
(-0.719582 0 -0 0 -0.0673669 -0 -0 -0 0.0904151)
(-0.864649 0 -0 0 0.981665 0 -0 0 -0.789026)
(-0.952385 0 -0 0 0.144237 0 -0 0 1.25535)
(1.67778 0 0 0 -0.713186 -0 0 -0 0.748954)
(2.1762 0 0 0 -1.27818 0 0 0 -0.93957)
(-0.35988 -0 -0 -0 -0.507124 0 -0 0 0.332499)
(0.678389 0 -0 0 -0.43151 0 -0 0 -0.948465)
(1.31619 0 0 0 -0.51182 0 0 0 -1.02669)
(-0.0991764 0 -0 0 -0.219437 -0 -0 -0 0.640606)
(-0.0774766 0 0 0 -0.462217 0 0 0 0.332945)
(-0.195441 0 0 0 -0.135578 0 0 0 -0.646812)
(-0.946662 0 -0 0 1.155 0 -0 0 -0.0407977)
(-1.24607 0 -0 0 -0.69349 0 -0 0 1.76032)
(1.2308 0 0 0 -0.779512 0 0 0 0.00151391)
(-0.0794786 0 0 0 -1.9148 0 0 0 2.07125)
(-1.95918 0 0 0 -0.686904 -0 0 -0 2.31331)
(0.155201 0 -0 0 -1.1632 0 -0 0 1.20414)
(-1.13492 -0 -0 -0 -1.67778 0 -0 0 2.4143)
(-0.0760878 0 0 0 -1.72982 -0 0 -0 3.13345)
(1.08336 0 0 0 -0.628276 -0 0 -0 -0.344514)
(-0.296295 0 0 0 -0.232423 -0 0 -0 0.219168)
(0.647636 0 0 0 0.998825 -0 0 -0 -1.15772)
(0.769782 -0 0 -0 1.60238 0 0 0 -1.04184)
(-0.28069 -0 0 -0 1.06889 0 0 0 -0.557889)
(-0.65307 0 -0 0 -0.234325 -0 -0 -0 0.483455)
(0.0418639 0 -0 0 -0.061287 -0 -0 -0 -1.37655)
(0.648386 0 0 0 -0.304327 0 0 0 -0.696137)
(-0.519498 0 0 0 -1.30538 0 0 0 1.38236)
(-0.859954 -0 0 -0 0.380506 0 0 0 0.841877)
(0.586342 -0 -0 -0 0.24313 0 -0 0 -1.15089)
(1.24691 0 -0 0 -0.214382 0 -0 0 -1.19303)
(-0.30086 0 0 0 -1.77435 0 0 0 1.31563)
(-1.08695 0 -0 0 -0.230858 0 -0 0 0.663865)
(0.720547 0 0 0 1.52209 0 0 0 -2.05117)
(0.863804 0 -0 0 0.0621029 0 -0 0 0.182621)
(-0.504169 0 -0 0 -0.840216 0 -0 0 1.85836)
(-0.232237 0 -0 0 -0.22178 -0 -0 -0 0.602542)
(0.368476 0 -0 0 0.401973 -0 -0 -0 -0.50649)
(-0.0290597 -0 -0 -0 1.5449 0 -0 0 -1.02426)
(-0.667406 -0 -0 -0 0.0351433 -0 -0 -0 0.351233)
(-0.732752 0 -0 0 -0.115976 -0 -0 -0 0.807371)
(-1.11581 0 -0 0 1.20199 0 -0 0 0.313546)
(-0.480942 0 -0 0 -1.05926 0 -0 0 1.96142)
(1.70201 0 -0 0 -2.58916 0 -0 0 1.56709)
(1.30819 -0 0 -0 -0.530011 0 0 0 -0.0460465)
(0.0759708 -0 -0 -0 0.247622 0 -0 0 -0.119996)
(1.39209 -0 -0 -0 -0.0147322 0 -0 0 -0.881775)
(0.938581 -0 0 -0 -1.67025 0 0 0 0.0695279)
(-0.437008 0 0 0 0.236192 0 0 0 -0.48175)
(0.0672816 0 0 0 0.997157 0 0 0 -0.701987)
(-0.0774714 0 0 0 0.682339 0 0 0 0.190948)
(-0.727079 0 -0 0 1.20371 0 -0 0 -1.23669)
(-1.04461 0 -0 0 0.581124 -0 -0 -0 -0.226016)
(0.687049 0 -0 0 -0.820493 -0 -0 -0 -0.0108872)
(-0.16599 -0 -0 -0 -0.724176 -0 -0 -0 1.19499)
(-1.55303 0 0 0 -1.36759 -0 0 -0 2.68178)
(-0.477624 0 0 0 -1.42608 0 0 0 2.14925)
(-0.513651 -0 -0 -0 -0.118792 0 -0 0 1.63285)
(0.49733 0 -0 0 -3.06631 0 -0 0 2.1113)
(0.277442 0 0 0 -0.0791188 0 0 0 0.156827)
(-0.0952606 0 0 0 -0.117168 -0 0 -0 0.465175)
(0.5503 0 0 0 -1.1163 -0 0 -0 -0.212763)
(0.368514 0 -0 0 0.136536 -0 -0 -0 -1.32781)
(-0.125468 0 -0 0 0.283586 -0 -0 -0 -0.364672)
(-0.609165 -0 -0 -0 0.202743 -0 -0 -0 1.62213)
(-0.16328 -0 -0 -0 1.53702 0 -0 0 -1.40703)
(0.592019 -0 0 -0 0.949861 0 0 0 -0.821577)
(-0.766502 0 0 0 -0.814458 0 0 0 2.15134)
(-0.836197 -0 0 -0 -0.412989 -0 0 -0 1.4035)
(1.04121 0 0 0 0.567907 0 0 0 -1.57121)
(1.30636 0 -0 0 -0.417459 -0 -0 -0 -0.627332)
(-0.384204 -0 -0 -0 -0.677355 0 -0 0 1.15864)
(-1.09099 0 -0 0 0.47894 0 -0 0 0.293532)
(0.616296 0 0 0 1.08021 0 0 0 -1.56544)
(0.844808 -0 -0 -0 0.773857 0 -0 0 -1.08517)
(-0.308186 -0 -0 -0 -0.787836 0 -0 0 0.408324)
(-0.0566774 0 -0 0 -1.4462 0 -0 0 1.60017)
(-0.441971 -0 -0 -0 -0.979383 -0 -0 -0 1.72134)
(-0.198925 -0 -0 -0 0.570686 0 -0 0 -0.502887)
(0.0437884 0 -0 0 0.801224 0 -0 0 -0.592641)
(-0.246238 0 0 0 -0.876476 -0 0 -0 0.928229)
(-0.943142 0 -0 0 -0.949078 -0 -0 -0 0.962794)
(-0.200047 0 -0 0 -1.87869 0 -0 0 1.55742)
(0.76598 0 -0 0 -3.35348 0 -0 0 2.58538)
(0.0476685 -0 -0 -0 -1.82446 -0 -0 -0 2.19308)
(0.00327113 -0 0 -0 0.103384 0 0 0 0.287538)
(1.44047 -0 -0 -0 -0.0680962 0 -0 0 -0.975983)
(1.79308 -0 -0 -0 -1.03267 0 -0 0 -0.768636)
(0.731516 -0 0 -0 -1.11114 -0 0 -0 -0.148348)
(0.257515 0 0 0 -1.05528 -0 0 -0 0.507031)
(-0.4674 0 -0 0 -1.0695 0 -0 0 1.03609)
(-0.978355 0 -0 0 -1.15891 0 -0 0 1.5503)
(-0.888745 0 -0 0 0.693174 -0 -0 -0 0.400354)
(0.383912 0 -0 0 0.523332 -0 -0 -0 -0.427749)
(0.0843479 -0 -0 -0 -0.363703 -0 -0 -0 0.371381)
(-0.690868 0 -0 0 -0.879833 -0 -0 -0 1.58126)
(-1.06774 0 0 0 -0.897611 -0 0 -0 1.93844)
(-1.48952 0 -0 0 -0.363112 -0 -0 -0 1.32769)
(0.661595 -0 0 -0 -0.883403 0 0 0 0.702818)
(0.438366 0 0 0 -0.524992 0 0 0 0.054696)
(-0.602664 -0 0 -0 0.779582 0 0 0 -0.18395)
(0.887567 -0 0 -0 0.473089 0 0 0 -0.109462)
(1.15587 -0 -0 -0 -0.442505 -0 -0 -0 -0.951604)
(-0.696917 0 0 0 -0.846738 -0 0 -0 0.775667)
(-1.32434 -0 0 -0 -1.32133 0 0 0 2.03237)
(0.103413 -0 -0 -0 0.167376 0 -0 0 0.452144)
(0.985055 -0 0 -0 1.05463 -0 0 -0 -1.68843)
(-0.853418 0 0 0 0.929844 0 0 0 0.0481622)
(-0.71114 0 0 0 -1.57942 -0 0 -0 2.26741)
(1.29329 0 -0 0 -0.624547 -0 -0 -0 -0.0281796)
(0.453111 0 -0 0 -0.728485 -0 -0 -0 0.357797)
(-0.574577 -0 -0 -0 -0.90696 -0 -0 -0 1.29959)
(-0.215755 0 -0 0 -0.235157 -0 -0 -0 0.346078)
(0.721839 -0 -0 -0 0.35568 0 -0 0 -1.30183)
(0.420041 -0 -0 -0 0.964598 -0 -0 -0 -2.22698)
(-0.0232554 0 -0 0 -0.239846 -0 -0 -0 -0.0370793)
(-0.858493 0 -0 0 -0.175219 0 -0 0 1.10355)
(-0.967841 -0 -0 -0 -0.866565 0 -0 0 1.56952)
(0.700208 0 -0 0 -0.731908 0 -0 0 -0.0320158)
(0.725745 0 -0 0 1.51257 0 -0 0 -2.40572)
(-0.881701 0 0 0 0.192865 0 0 0 0.565464)
(-0.558607 0 -0 0 -1.44698 -0 -0 -0 1.63583)
(-0.0424188 0 -0 0 -1.60831 -0 -0 -0 1.4747)
(-0.346692 0 -0 0 -1.89627 0 -0 0 2.24496)
(0.345598 0 -0 0 -1.95816 -0 -0 -0 1.31174)
(0.440042 0 0 0 -0.494775 -0 0 -0 -0.456117)
(0.589022 0 -0 0 -0.102697 -0 -0 -0 -0.648192)
(1.10469 -0 -0 -0 0.773673 0 -0 0 -0.882797)
(1.07908 -0 0 -0 -0.566492 0 0 0 0.148052)
(0.515741 -0 0 -0 -1.89472 -0 0 -0 1.38548)
(-0.32082 -0 0 -0 -2.52668 -0 0 -0 2.2527)
(-0.593356 0 -0 0 -1.19657 0 -0 0 1.65792)
(-0.52521 0 -0 0 -0.81388 0 -0 0 0.745023)
(-0.00121339 0 -0 0 0.37518 -0 -0 -0 -0.642193)
(-0.308192 -0 -0 -0 1.28472 0 -0 0 -0.760969)
(-0.28418 0 -0 0 -0.664562 0 -0 0 0.501528)
(-0.455236 0 -0 0 0.0390131 0 -0 0 0.622977)
(-1.92814 0 0 0 0.345525 -0 0 -0 1.41648)
(0.291971 0 0 0 -1.38415 0 0 0 1.27793)
(0.612882 -0 0 -0 -0.832469 0 0 0 0.118907)
(-1.41666 0 0 0 0.882413 0 0 0 0.219061)
(0.571252 -0 0 -0 -0.20659 0 0 0 0.160193)
(1.2127 -0 -0 -0 -0.479792 0 -0 0 0.0533095)
(-0.561896 -0 -0 -0 0.661002 0 -0 0 0.647705)
(-0.529526 -0 0 -0 -0.382115 0 0 0 0.076255)
(0.590182 0 -0 0 -0.923477 0 -0 0 -0.111593)
(0.830171 -0 0 -0 0.647816 -0 0 -0 -1.73402)
(-0.79818 0 0 0 1.28701 0 0 0 -0.417047)
(-0.572551 0 -0 0 -1.07848 0 -0 0 1.98071)
(1.35781 0 -0 0 -1.09477 -0 -0 -0 0.194518)
(0.5672 -0 0 -0 -0.537244 -0 0 -0 -0.109251)
(-0.721768 0 -0 0 -0.5448 -0 -0 -0 1.07319)
(-0.873573 0 -0 0 -0.440663 0 -0 0 1.03467)
(0.5143 -0 -0 -0 -0.0177597 0 -0 0 -0.689533)
(1.16843 0 -0 0 2.04417 0 -0 0 -2.71934)
(0.329233 0 -0 0 1.24447 0 -0 0 -0.758386)
(-0.668782 -0 -0 -0 0.516535 0 -0 0 -0.0232031)
(-0.414177 0 -0 0 -0.184316 0 -0 0 0.543945)
(0.549944 0 -0 0 -1.05053 0 -0 0 0.813494)
(0.839717 -0 -0 -0 0.826293 0 -0 0 -1.46247)
(-0.549794 0 -0 0 1.43069 0 -0 0 -1.17524)
(-0.411034 0 -0 0 -0.471549 -0 -0 -0 0.573697)
(0.0896602 0 -0 0 -1.25427 -0 -0 -0 1.05632)
(-0.292519 0 -0 0 -0.038057 -0 -0 -0 0.764363)
(0.385594 0 -0 0 0.823686 -0 -0 -0 -0.64428)
(0.647747 0 0 0 0.261819 -0 0 -0 -0.718169)
(0.366489 0 0 0 0.561943 -0 0 -0 -0.550591)
(0.223805 0 -0 0 1.56362 0 -0 0 -1.95009)
(0.575032 0 -0 0 0.83497 0 -0 0 -1.4967)
(0.799394 -0 -0 -0 -0.113383 -0 -0 -0 -0.56408)
(-0.0901242 -0 0 -0 0.153093 -0 0 -0 0.738628)
(-0.574825 0 0 0 -1.25322 -0 0 -0 1.46357)
(-0.627353 0 -0 0 -1.07441 0 -0 0 1.70375)
(-0.111258 0 -0 0 -0.208705 -0 -0 -0 0.389004)
(0.0353265 0 -0 0 0.725284 -0 -0 -0 -0.385938)
(-0.0183091 0 -0 0 0.0334038 0 -0 0 0.162684)
(0.0230564 0 -0 0 -0.0709607 0 -0 0 -0.157642)
(-1.27477 0 0 0 0.303901 -0 0 -0 1.34691)
(-0.835907 0 -0 0 -0.0879392 -0 -0 -0 0.666793)
(-0.163798 -0 0 -0 0.300755 0 0 0 0.128844)
(-0.807191 0 0 0 0.317633 0 0 0 0.631381)
(-0.193599 0 0 0 -0.130313 0 0 0 -0.564205)
(-0.171458 -0 -0 -0 0.0641973 0 -0 0 0.353373)
(-0.401835 -0 -0 -0 -1.25135 0 -0 0 1.53942)
(0.301962 -0 0 -0 -0.193403 -0 0 -0 -0.363493)
(0.730657 -0 -0 -0 -0.763953 0 -0 0 -0.545812)
(1.43395 -0 -0 -0 -0.786299 -0 -0 -0 -0.666085)
(-0.104616 0 0 0 -0.07746 -0 0 -0 0.553018)
(-1.2836 0 -0 0 -0.312889 0 -0 0 1.57077)
(0.559967 -0 -0 -0 0.420291 0 -0 0 -0.320011)
(1.08681 -0 0 -0 -0.554024 0 0 0 -0.287973)
(-0.227947 -0 -0 -0 -1.04904 -0 -0 -0 0.920896)
(-1.02622 0 -0 0 -0.462304 0 -0 0 1.46897)
(0.58501 0 -0 0 0.409282 0 -0 0 -0.197635)
(1.2126 0 -0 0 1.01537 0 -0 0 -1.95233)
(-0.197611 0 -0 0 0.755291 0 -0 0 -0.756609)
(-0.547152 0 -0 0 1.14095 -0 -0 -0 -0.709512)
(-0.626037 0 -0 0 0.079362 -0 -0 -0 0.355152)
(-0.153096 -0 -0 -0 -0.337475 -0 -0 -0 0.342007)
(0.662463 -0 -0 -0 0.32691 -0 -0 -0 -0.31744)
(0.384161 -0 -0 -0 0.433824 0 -0 0 -0.727183)
(0.172237 0 -0 0 -0.0639844 0 -0 0 -0.332419)
(0.132732 0 -0 0 -0.552372 0 -0 0 -0.109341)
(-0.335056 0 -0 0 0.25313 -0 -0 -0 0.382914)
(0.0592318 0 -0 0 0.975676 -0 -0 -0 -0.883267)
(0.51636 0 0 0 0.819584 -0 0 -0 -1.19146)
(0.522673 0 0 0 0.548502 0 0 0 -0.739955)
(0.39376 0 -0 0 1.14358 -0 -0 -0 -1.89003)
(0.347622 0 -0 0 1.34176 -0 -0 -0 -2.12361)
(0.260574 0 -0 0 0.252919 0 -0 0 -0.331571)
(-0.202601 -0 -0 -0 1.04842 0 -0 0 -0.727515)
(-0.354845 -0 0 -0 -0.0939085 0 0 0 0.189165)
(-0.410929 0 -0 0 -1.35112 0 -0 0 1.35172)
(-0.0577682 0 -0 0 0.143305 -0 -0 -0 -0.0207315)
(0.0462087 0 0 0 1.11444 -0 0 -0 -1.0322)
(-0.116849 0 -0 0 0.421878 -0 -0 -0 -0.275491)
(0.165532 0 -0 0 0.186638 0 -0 0 -0.424699)
(-0.809377 0 0 0 0.357064 -0 0 -0 0.306019)
(-1.35211 0 -0 0 1.12446 -0 -0 -0 0.465364)
(-0.888944 0 -0 0 0.416332 0 -0 0 0.490784)
(-0.734118 -0 0 -0 -0.00424227 0 0 0 0.870205)
(-0.033834 0 0 0 1.52512 -0 0 -0 -0.595916)
(0.112736 0 0 0 1.03565 0 0 0 -0.804061)
(-0.591819 0 -0 0 -1.06405 0 -0 0 1.1063)
(-0.316526 0 -0 0 -1.64109 -0 -0 -0 1.08697)
(1.00869 -0 -0 -0 -1.5557 -0 -0 -0 0.506395)
(2.03595 -0 -0 -0 -1.39479 -0 -0 -0 -0.209745)
(0.036885 0 0 0 0.341722 -0 0 -0 -0.223591)
(-1.76132 0 -0 0 0.748979 0 -0 0 0.9884)
(0.0234021 0 -0 0 -0.603774 0 -0 0 0.260856)
(1.16812 -0 0 -0 -1.19178 -0 0 -0 -0.0698282)
(0.219939 -0 0 -0 -1.45163 -0 0 -0 0.883835)
(-0.346336 0 -0 0 -1.11061 -0 -0 -0 1.59878)
(0.507311 0 -0 0 0.144946 0 -0 0 -0.180853)
(0.849226 0 -0 0 0.741866 0 -0 0 -1.84921)
(0.0129128 0 -0 0 1.32435 0 -0 0 -1.49678)
(-0.443917 0 -0 0 1.42032 -0 -0 -0 -0.91941)
(-0.809761 0 -0 0 0.436167 -0 -0 -0 0.242141)
(-0.573302 0 -0 0 0.191581 -0 -0 -0 0.215134)
(0.501606 0 -0 0 -0.405948 -0 -0 -0 -0.404632)
(0.755205 -0 -0 -0 -0.456056 -0 -0 -0 -0.651873)
(0.75809 0 -0 0 -0.74987 0 -0 0 0.00484772)
(0.373089 0 -0 0 -0.358022 0 -0 0 0.0604209)
(-0.482067 0 -0 0 0.241167 0 -0 0 0.0945054)
(-0.171097 0 -0 0 -0.010911 -0 -0 -0 -0.0061368)
(0.640795 0 0 0 0.35872 -0 0 -0 -1.03098)
(0.530851 0 0 0 0.395524 0 0 0 -0.838581)
(0.0337137 0 -0 0 -0.103497 -0 -0 -0 0.279162)
(0.439147 0 -0 0 -0.2299 -0 -0 -0 -0.401086)
(0.376406 0 -0 0 0.366749 0 -0 0 -0.82243)
(-0.503963 0 -0 0 0.968401 0 -0 0 -0.732606)
(-0.49729 0 0 0 0.606456 0 0 0 -0.152281)
(-0.0617886 0 -0 0 -1.29824 0 -0 0 1.1546)
(0.189958 0 -0 0 -0.0680744 -0 -0 -0 0.25839)
(-0.122086 0 0 0 0.924638 -0 0 -0 -0.683071)
(-0.111902 0 -0 0 -0.326942 -0 -0 -0 0.208847)
(0.42978 0 -0 0 -0.768206 0 -0 0 0.193112)
(-0.580924 0 -0 0 0.406443 0 -0 0 0.0454754)
(-1.3724 0 0 0 1.05406 -0 0 -0 0.457739)
(-1.13226 0 -0 0 0.116021 0 -0 0 0.978207)
(-0.739733 0 -0 0 -0.0992093 0 -0 0 0.70879)
(0.310491 0 -0 0 0.380803 0 -0 0 -0.623526)