/*--------------------------------*- C++ -*----------------------------------*\
  =========                 |
  \\      /  F ield         | OpenFOAM: The Open Source CFD Toolbox
   \\    /   O peration     | Website:  https://openfoam.org
    \\  /    A nd           | Version:  10
     \\/     M anipulation  |
\*---------------------------------------------------------------------------*/
FoamFile
{
    format      ascii;
    class       volVectorField;
    location    "8";
    object      U_0;
}
// * * * * * * * * * * * * * * * * * * * * * * * * * * * * * * * * * * * * * //

dimensions      [0 1 -1 0 0 0 0];

internalField   nonuniform List<vector> 
25600
(
(0.254185 -0.0683431 0.015145)
(0.270193 -0.0737783 0.00776776)
(0.247529 -0.0758418 0.0272757)
(0.175723 -0.0655833 0.0924144)
(0.13384 -0.0559671 0.10957)
(0.134109 -0.0755689 0.0336999)
(0.208577 -0.0676773 0.0852755)
(0.181029 -0.0703634 0.140069)
(0.133308 -0.0783061 0.0386381)
(0.250713 -0.079734 -0.0136468)
(0.28362 -0.0758836 0.0193609)
(0.184465 -0.0720043 0.0524169)
(0.16931 -0.0780951 0.0575171)
(0.20971 -0.0743965 -0.0180988)
(0.421823 -0.0864347 -0.0846623)
(0.393291 -0.0783247 0.0368232)
(0.247371 -0.0797461 0.106363)
(0.15599 -0.0823082 0.090631)
(0.118068 -0.0798789 0.0561635)
(0.114097 -0.0742835 0.0508341)
(0.168511 -0.0683607 0.0213198)
(0.149903 -0.0581526 0.112095)
(0.120591 -0.0645687 0.11959)
(0.147371 -0.0755519 0.0424919)
(0.220527 -0.0807735 -0.0216894)
(0.163826 -0.0744663 0.0608877)
(0.160862 -0.0679424 0.0994632)
(0.141357 -0.0717553 0.0945597)
(0.125569 -0.087084 0.0390705)
(0.230177 -0.0840341 -0.0288358)
(0.326406 -0.08728 -0.03942)
(0.291864 -0.0728834 0.0589016)
(0.203812 -0.0740263 0.113087)
(0.203369 -0.0837521 0.0596673)
(0.156808 -0.0679791 0.0843563)
(0.215774 -0.0572545 0.144143)
(0.162517 -0.083101 0.102071)
(0.277489 -0.0839585 0.0480451)
(0.256111 -0.0700394 0.114878)
(0.167199 -0.0763507 0.0777805)
(0.502966 0.0506908 -0.0197237)
(0.559095 0.0513636 -0.0702354)
(0.521261 0.0590364 -0.0605506)
(0.324215 0.0498598 0.0235548)
(0.216891 0.0501965 0.0197172)
(0.242225 0.0678562 -0.0849062)
(0.317678 0.0581106 0.0172499)
(0.274289 0.0830747 0.152101)
(0.248144 0.0813881 -0.0799766)
(0.516801 0.0681048 -0.218214)
(0.646916 0.0583424 -0.11612)
(0.451605 0.0620842 -0.0334404)
(0.342939 0.0776067 -0.023525)
(0.306224 0.0529217 -0.0731856)
(0.810239 0.0446193 -0.308207)
(0.786583 0.0497349 -0.119064)
(0.499104 0.0692333 0.0253386)
(0.307085 0.0906033 -0.0116929)
(0.223137 0.0887298 -0.0431508)
(0.20243 0.0640178 -0.0357117)
(0.152393 0.0584371 -0.0286253)
(0.136707 0.0565982 0.0255718)
(0.194015 0.0736841 0.00287376)
(0.296763 0.0741327 -0.0418536)
(0.494754 0.0674963 -0.18472)
(0.33393 0.0681155 -0.0833765)
(0.308768 0.0647232 0.0157595)
(0.250728 0.0736009 0.0141639)
(0.243502 0.093878 -0.0770949)
(0.418546 0.0727031 -0.180239)
(0.616805 0.0633779 -0.245654)
(0.592808 0.0539521 -0.0575489)
(0.371647 0.0764472 0.0449621)
(0.378293 0.0839949 -0.0275007)
(0.279729 0.0489086 -0.0130304)
(0.250245 0.0471677 0.0874939)
(0.240898 0.0940394 -0.0318761)
(0.542359 0.0716123 -0.0818903)
(0.516894 0.0619408 0.0584458)
(0.299816 0.0801073 0.0404769)
(0.651946 -0.0529608 0.0351152)
(0.694623 -0.0595195 -0.0427344)
(0.658676 -0.0494811 -0.0929701)
(0.503302 -0.052094 -0.0631631)
(0.329028 -0.0479345 -0.0612888)
(0.387302 -0.061496 -0.165752)
(0.390988 -0.0457559 -0.0738224)
(0.250566 0.00587222 0.114558)
(0.378872 -0.029163 -0.0743125)
(0.63786 -0.0584814 -0.256704)
(0.712439 -0.0581969 -0.166944)
(0.628266 -0.0486669 -0.0823808)
(0.455168 -0.0234466 -0.0707668)
(0.465937 -0.0549539 0.00921714)
(0.791928 -0.102397 -0.211348)
(0.779701 -0.0558922 -0.155677)
(0.595854 -0.0396927 -0.048632)
(0.461021 -0.0204107 -0.0930198)
(0.415065 -0.0190171 -0.161025)
(0.405931 -0.043299 -0.146592)
(0.197569 -0.050284 -0.0229048)
(0.205905 -0.0374587 -0.0765282)
(0.234341 -0.0278487 -0.0939084)
(0.361439 -0.0151918 -0.0309164)
(0.676919 -0.053956 -0.140159)
(0.60201 -0.0454185 -0.235988)
(0.466661 -0.0416312 -0.102466)
(0.346328 -0.0369774 -0.0408738)
(0.378327 -0.0298656 -0.117822)
(0.521147 -0.0452778 -0.178085)
(0.646518 -0.0736323 -0.225815)
(0.672918 -0.065029 -0.143922)
(0.457514 -0.0280877 -0.00757714)
(0.493599 -0.0332371 -0.0712302)
(0.514065 -0.055188 -0.163463)
(0.259309 -0.0505262 0.0333668)
(0.279678 -0.018769 -0.0132678)
(0.612962 -0.0506862 -0.111779)
(0.600144 -0.0382025 -0.00534196)
(0.389004 -0.0204103 0.0612711)
(0.732872 0.0145583 0.0348778)
(0.764145 -0.00198432 -0.0222422)
(0.640389 0.0452333 -0.096961)
(0.554095 0.0258943 -0.127344)
(0.415517 0.0282639 -0.104735)
(0.44122 0.0608199 -0.224968)
(0.390752 0.0431947 -0.129359)
(0.281183 0.0555953 0.101551)
(0.413937 0.0368846 0.00510218)
(0.623473 0.0295033 -0.208745)
(0.71086 0.0211745 -0.197534)
(0.686459 0.0171148 -0.118201)
(0.537961 0.0452477 -0.111129)
(0.575602 0.0263016 0.0017152)
(0.769601 -0.0509719 -0.118312)
(0.771092 0.0239978 -0.169385)
(0.640153 0.0659107 -0.053197)
(0.451546 0.0811994 -0.0933623)
(0.474955 0.0761326 -0.23277)
(0.465524 0.0705351 -0.223049)
(0.224535 0.0624696 -0.0684255)
(0.223315 0.0382093 -0.125731)
(0.206544 0.0499667 -0.071505)
(0.4405 0.0375185 -0.0121254)
(0.654079 0.031828 -0.112044)
(0.654523 0.0691595 -0.298312)
(0.559575 0.061839 -0.170562)
(0.378941 0.0587967 -0.0396342)
(0.403676 0.0654789 -0.104703)
(0.508338 0.0729421 -0.16484)
(0.644918 0.0205052 -0.188138)
(0.731536 -0.0114851 -0.214094)
(0.549504 0.0451757 -0.00642422)
(0.545848 0.0735351 -0.0470043)
(0.537776 0.055836 -0.202105)
(0.275888 0.0239304 0.0165408)
(0.359378 0.0644993 0.0597217)
(0.600557 0.0816542 -0.105151)
(0.670186 0.0578385 -0.0640414)
(0.505688 0.0537395 0.113586)
(0.724792 -0.0364195 0.027985)
(0.702435 -0.0502003 -0.0117918)
(0.693017 -0.0300802 -0.0706253)
(0.606419 -0.0357807 -0.0807275)
(0.441841 -0.0381415 -0.124507)
(0.522015 -0.0203572 -0.234258)
(0.429578 -0.011285 -0.131224)
(0.288121 0.0433646 0.0620139)
(0.363372 -0.0172104 0.0736437)
(0.697138 -0.046413 -0.163065)
(0.811638 -0.0294069 -0.22149)
(0.755758 -0.0520294 -0.15404)
(0.681174 -0.0147355 -0.1734)
(0.536516 -0.0315899 -0.0183443)
(0.67469 -0.0986542 -0.0571671)
(0.799866 -0.0540826 -0.130104)
(0.710287 0.0319612 -0.0655045)
(0.483212 0.0247703 -0.0375477)
(0.544199 0.0226243 -0.264056)
(0.508929 0.0253704 -0.250955)
(0.268879 -0.00439626 -0.100442)
(0.230111 -0.0323194 -0.108328)
(0.283667 -0.00301285 -0.0571797)
(0.391605 -0.0231825 -0.00497804)
(0.566282 -0.0477585 -0.082356)
(0.680992 0.00900614 -0.251475)
(0.648203 0.00944986 -0.21352)
(0.465463 0.00307375 -0.111226)
(0.464229 0.0180732 -0.121211)
(0.532958 0.0227207 -0.107644)
(0.704338 -0.0333534 -0.186362)
(0.796052 -0.0775588 -0.236946)
(0.586046 -0.0063019 -0.0237016)
(0.597842 0.0305414 -0.0276718)
(0.575002 -0.00376708 -0.137204)
(0.342234 -0.0280505 -0.0325275)
(0.335429 0.0461419 0.0492321)
(0.63801 0.0321123 -0.0575572)
(0.751424 0.0137119 -0.0985345)
(0.634986 0.00469314 0.0256672)
(0.739329 0.0112709 0.0136501)
(0.675937 -0.00926904 -0.00662777)
(0.701808 0.0482224 -0.0913658)
(0.65932 0.0185062 -0.047946)
(0.457492 -0.0014355 -0.120988)
(0.523412 0.0557074 -0.173984)
(0.439244 0.0570954 -0.138411)
(0.306793 0.0437567 0.0374406)
(0.411753 0.0203282 0.131978)
(0.771668 -0.0246786 -0.100266)
(0.841779 0.00759843 -0.211533)
(0.784397 0.00227847 -0.203218)
(0.727781 0.0155866 -0.252977)
(0.520638 0.0211816 -0.0175854)
(0.686282 -0.0649083 -0.0299265)
(0.790031 -0.00359825 -0.0912853)
(0.679982 0.0729632 -0.0785649)
(0.498742 0.0589834 -0.0267612)
(0.589902 0.0273147 -0.227503)
(0.524172 0.0741192 -0.272586)
(0.334531 0.0776574 -0.134411)
(0.244609 0.0121467 -0.117306)
(0.402925 0.0344778 -0.144533)
(0.401665 0.0308452 -0.00708573)
(0.463967 0.015359 0.0131409)
(0.629666 0.0538533 -0.198971)
(0.694089 0.0633571 -0.225791)
(0.591855 0.0572355 -0.212552)
(0.521282 0.0490088 -0.0958397)
(0.643372 0.0621648 -0.00249661)
(0.738379 -0.00902473 -0.0917404)
(0.792843 -0.0424071 -0.224719)
(0.571784 0.00299942 -0.0328409)
(0.613317 0.0633053 -0.0375721)
(0.642717 0.0611843 -0.0571031)
(0.4647 0.0424667 -0.0541376)
(0.35653 0.0485843 0.0932864)
(0.652688 0.055609 -0.0311828)
(0.784613 0.0457407 -0.151262)
(0.726181 0.0292021 -0.0816219)
(0.748717 -0.0360497 -0.0360945)
(0.711423 -0.061159 0.00882066)
(0.745269 0.00600753 -0.0878307)
(0.658911 -0.0198786 -0.0599403)
(0.508521 -0.0449118 -0.112739)
(0.520902 0.020388 -0.160754)
(0.441177 0.0393144 -0.119755)
(0.349898 0.0343634 0.0570144)
(0.507923 -0.00292482 0.0769584)
(0.741835 -0.0572195 -0.179487)
(0.802953 -0.0416746 -0.13787)
(0.8409 -0.0456938 -0.15614)
(0.730086 -0.0232417 -0.222651)
(0.598168 -0.026431 -0.0529126)
(0.798493 -0.121768 -0.110469)
(0.867076 -0.0662126 -0.108569)
(0.711882 0.0457298 -0.0580193)
(0.59755 0.0435657 -0.0664545)
(0.695137 -0.0117456 -0.158171)
(0.531073 0.0490918 -0.250952)
(0.367658 0.0707194 -0.153286)
(0.322305 -0.0271021 -0.10454)
(0.490734 0.00226556 -0.174261)
(0.474351 -0.00427347 -0.0687257)
(0.487244 -0.0295812 -0.0340283)
(0.646438 0.0331102 -0.224438)
(0.759565 0.0382287 -0.250294)
(0.717828 0.0357981 -0.270649)
(0.601341 0.0614984 -0.174901)
(0.644169 0.0925419 -0.0223331)
(0.685595 -0.00777131 -0.0733619)
(0.838995 -0.0947269 -0.191952)
(0.614063 -0.0342493 -0.0581105)
(0.640386 0.0539048 -0.0492341)
(0.665442 0.0589855 -0.0342785)
(0.51669 0.0315021 -0.0843401)
(0.388958 0.0585157 0.0767034)
(0.505001 0.066606 -0.0560713)
(0.82548 0.0343956 -0.177019)
(0.725952 0.00367261 -0.07667)
(0.739887 0.0125483 -0.0356812)
(0.701811 -0.000160305 0.0208438)
(0.796299 0.0508168 -0.0263556)
(0.691128 0.0231995 -0.07916)
(0.552406 -0.00807381 -0.0936764)
(0.546797 0.0348424 -0.142384)
(0.502816 0.0943277 -0.189919)
(0.355878 0.0610248 0.0369905)
(0.633078 0.0114604 0.0126493)
(0.739922 -0.0192681 -0.249747)
(0.688352 0.0047188 -0.112509)
(0.881123 -0.0237592 -0.104884)
(0.756516 -0.00133302 -0.126141)
(0.715487 0.00738303 -0.129096)
(0.849384 -0.0921789 -0.156138)
(0.910065 -0.035665 -0.119297)
(0.690065 0.0606184 -0.031944)
(0.632644 0.0591347 -0.0340677)
(0.873221 -0.000525956 -0.0980384)
(0.570463 0.0420673 -0.201827)
(0.420899 0.0708885 -0.144469)
(0.435636 -0.00514708 -0.0844595)
(0.339889 0.0459569 -0.0844883)
(0.442963 0.0314443 -0.0251703)
(0.456038 0.00815914 -0.000728605)
(0.64482 0.0417319 -0.169597)
(0.76652 0.0533389 -0.265136)
(0.734952 0.0553699 -0.28997)
(0.69579 0.0883626 -0.235592)
(0.613554 0.116625 -0.0172321)
(0.692698 0.0110905 -0.0298735)
(0.882119 -0.0507217 -0.163552)
(0.674757 0.00726281 -0.130462)
(0.66474 0.0633353 -0.0694813)
(0.682936 0.0711683 -0.0237535)
(0.517172 0.042415 -0.0886208)
(0.357717 0.0579529 0.00934389)
(0.459258 0.0332129 -0.0519118)
(0.836305 0.0109095 -0.161714)
(0.767967 0.0181958 -0.11793)
(0.730382 -0.00170405 -0.000865484)
(0.758692 -0.0180092 -0.0533477)
(0.839501 0.0314647 -0.111281)
(0.724994 0.00758632 -0.0902414)
(0.610377 -0.0342823 -0.0113508)
(0.601508 0.0432252 -0.144528)
(0.531394 0.0953157 -0.306178)
(0.391499 0.0775133 -0.0625984)
(0.688504 0.00779612 -0.041165)
(0.781836 -0.0523857 -0.196132)
(0.75038 -0.00551602 -0.185291)
(0.967355 -0.0334859 -0.140513)
(0.842944 -0.0373269 -0.0663391)
(0.775546 -0.0271663 -0.116876)
(0.877625 -0.129525 -0.147061)
(0.917574 -0.0772792 -0.0962783)
(0.700107 0.0399386 0.0113064)
(0.680876 0.0673745 -0.0286002)
(0.91814 -0.0109647 -0.0497266)
(0.583767 0.0281255 -0.164533)
(0.581625 0.0840857 -0.224658)
(0.564195 0.00583045 -0.157453)
(0.254272 0.0577526 -0.00674704)
(0.458351 -0.0108968 0.0185348)
(0.474076 -0.0141864 0.0391319)
(0.59405 0.0635843 -0.0825844)
(0.8907 0.0548198 -0.184813)
(0.849069 0.0313936 -0.224314)
(0.719878 0.0728406 -0.1932)
(0.585314 0.111098 -0.00501139)
(0.66842 0.0155526 -0.0275099)
(0.860401 -0.120164 -0.125451)
(0.742398 -0.0127333 -0.154302)
(0.705808 0.062644 -0.0744628)
(0.699449 0.0903171 -0.0416049)
(0.553772 0.0643949 -0.102957)
(0.413708 0.0495745 -0.0549564)
(0.530809 0.0232494 -0.0652239)
(0.851314 -0.0179802 -0.212957)
(0.811282 0.00831223 -0.165872)
(0.7487 0.0116662 -0.00760213)
(0.757587 0.0120015 -0.0122187)
(0.842965 0.0508698 -0.172913)
(0.759045 0.00675349 -0.137135)
(0.668097 -0.000374212 0.00175178)
(0.643017 0.0361097 -0.149423)
(0.501168 0.0964869 -0.243247)
(0.400487 0.0918004 -0.11496)
(0.748262 0.0144876 -0.00858892)
(0.850607 -0.0344831 -0.0868774)
(0.783876 0.0162424 -0.193173)
(0.983585 -0.00879435 -0.142704)
(0.922976 -0.0126929 -0.0966327)
(0.839369 -0.00257653 -0.101827)
(0.940771 -0.0946552 -0.105425)
(0.953532 -0.0736524 -0.127669)
(0.780828 0.0359467 -0.00373103)
(0.680292 0.0374801 -0.00366667)
(0.972525 0.0112724 -0.0481592)
(0.694587 0.0456117 -0.0869009)
(0.6862 0.0581743 -0.256807)
(0.719121 0.0130655 -0.272862)
(0.324522 0.0492828 -0.0611051)
(0.590606 0.0103602 -0.13202)
(0.602084 0.0021945 -0.0148139)
(0.593438 0.0293967 -0.0276291)
(0.923086 0.0152332 -0.129446)
(0.865945 0.0497177 -0.185136)
(0.693912 0.120263 -0.144014)
(0.621473 0.152141 0.0179424)
(0.666872 0.061423 -0.0729628)
(0.790432 -0.0701714 -0.185964)
(0.710545 -0.0031664 -0.178795)
(0.672922 0.0822366 -0.0487651)
(0.705973 0.115123 -0.0288114)
(0.677878 0.0936 -0.110352)
(0.541073 0.0732241 -0.0591782)
(0.599955 0.024553 -0.0140673)
(0.825692 -0.0401142 -0.178307)
(0.786782 -0.00550615 -0.169644)
(0.745726 -0.0268753 -0.029266)
(0.751027 -0.0010373 0.04224)
(0.869989 0.012384 -0.165262)
(0.786649 -0.0188759 -0.137308)
(0.674421 -0.0101234 -0.0320965)
(0.642732 0.0202351 -0.137148)
(0.501491 0.102711 -0.207959)
(0.452255 0.100038 -0.222954)
(0.837046 -0.00449871 0.0189605)
(0.887495 -0.043177 -0.0901106)
(0.76507 0.0119356 -0.193188)
(1.02317 -0.0010085 -0.142748)
(1.02831 -0.0409059 -0.136043)
(1.00334 -0.022928 -0.138074)
(1.01281 -0.0962705 -0.102339)
(0.964249 -0.098074 -0.0904196)
(0.82348 0.0173514 0.00206284)
(0.715035 0.0378585 0.112494)
(1.06964 -0.0437231 -0.0331033)
(0.699139 0.0513938 -0.081046)
(0.677804 0.0390677 -0.0885407)
(0.730179 -0.0292102 -0.205248)
(0.45082 0.0714724 -0.183153)
(0.714962 -0.00449405 -0.255511)
(0.667491 0.00872937 -0.133147)
(0.655703 0.0721077 -0.0712245)
(0.797019 0.0273757 -0.0987057)
(0.809659 0.0394619 -0.164317)
(0.740881 0.113026 -0.207186)
(0.679045 0.152506 -0.122179)
(0.749253 0.0508433 -0.0335758)
(0.808722 -0.0888453 -0.142857)
(0.645354 0.0022203 -0.154123)
(0.636731 0.10083 -0.0782296)
(0.762622 0.118684 0.00626774)
(0.886113 0.0612053 -0.00913617)
(0.70245 0.0586841 0.0169903)
(0.668723 0.0424093 0.0164416)
(0.84656 -0.0729585 -0.0879386)
(0.841484 -0.0434682 -0.188112)
(0.773773 -0.00715992 -0.0514455)
(0.806554 0.0205432 0.0314149)
(0.847468 0.038403 -0.100454)
(0.800742 -0.0104937 -0.147998)
(0.713987 -0.00122384 -0.0378304)
(0.654192 0.0642831 -0.0359992)
(0.490824 0.0997709 -0.203593)
(0.558004 0.0716617 -0.280337)
(0.831227 -0.0182304 0.107842)
(0.819642 -0.047348 0.0300849)
(0.846421 0.00498657 -0.134962)
(1.09806 -0.0234343 -0.142903)
(1.03414 -0.0158147 -0.0887743)
(1.01066 -0.0130596 -0.0336725)
(1.04759 -0.0981655 -0.0758686)
(0.995164 -0.0399299 -0.100352)
(0.902178 0.0190246 0.00486604)
(0.786241 0.0163311 0.110452)
(1.03959 -0.0350864 0.0348535)
(0.753043 0.0264304 -0.106194)
(0.728981 0.0285823 -0.0388479)
(0.657518 -0.0281459 -0.0217235)
(0.626251 0.00021582 -0.209184)
(0.756984 -0.00516989 -0.239186)
(0.68174 -0.00475356 -0.187113)
(0.737932 0.0521768 -0.108989)
(0.7918 0.0574158 -0.0933876)
(0.811635 0.0796915 -0.146105)
(0.766706 0.11464 -0.2542)
(0.689802 0.150444 -0.121658)
(0.73405 0.0542389 0.0958737)
(0.808206 -0.103657 -0.104094)
(0.58075 0.00660007 -0.172345)
(0.640966 0.086962 -0.0417607)
(0.788992 0.108961 0.0385261)
(0.902238 0.0487853 0.0389906)
(0.712151 0.0684257 0.0827374)
(0.68404 0.0639898 0.0400313)
(0.83541 -0.0351482 -0.00953125)
(0.853002 -0.0244655 -0.119578)
(0.843853 -0.0354536 -0.0931733)
(0.807343 0.00877986 -0.0473584)
(0.755459 0.0558061 -0.0730197)
(0.767558 -0.0186671 -0.154081)
(0.764216 -0.0144683 -0.103828)
(0.71831 0.0516389 0.021105)
(0.575588 0.0714489 -0.0827864)
(0.678301 0.0257431 -0.108593)
(0.728784 -0.018915 0.155118)
(0.687835 -0.0353831 0.17193)
(0.729438 0.0121916 -0.052461)
(0.975928 -0.048524 -0.0910985)
(1.08805 -0.0363785 -0.0926675)
(1.12223 0.00579127 -0.109516)
(1.13956 -0.0757537 -0.0369482)
(1.02875 -0.0680287 -0.124564)
(0.943886 0.0344961 -0.05165)
(0.851002 0.0155681 0.0386598)
(1.02067 -0.0661603 -0.0417104)
(0.867872 0.0131486 -0.0682738)
(0.882495 -0.00236777 -0.0951842)
(0.654325 -0.0328555 -0.0232335)
(0.584592 -0.01275 -0.115685)
(0.786644 -0.00678347 -0.152755)
(0.672265 0.00658704 -0.15397)
(0.666111 0.0408452 -0.113012)
(0.849778 0.0284394 -0.140233)
(0.897285 0.0438874 -0.168586)
(0.710395 0.118904 -0.217732)
(0.632416 0.198501 -0.0621652)
(0.731078 0.0788007 0.11946)
(0.829427 -0.111627 -0.0653683)
(0.560394 -0.0105209 -0.203818)
(0.687199 0.119135 -0.0778856)
(0.819051 0.10722 -0.0490782)
(0.777821 0.0422683 0.0142197)
(0.704136 0.0719779 0.0897761)
(0.73467 0.0724315 0.0590389)
(0.848504 -0.0536855 -0.00230546)
(0.818678 -0.0688384 -0.109674)
(0.915684 -0.051722 -0.0508067)
(0.739455 -0.0103745 -0.0336077)
(0.722116 0.0553639 -0.0529139)
(0.879497 0.0165793 -0.111517)
(0.867265 -0.0286212 -0.138726)
(0.703156 0.0344466 -0.0548554)
(0.755544 0.0410391 -0.091394)
(0.694673 -0.0336387 -0.0390974)
(0.686205 -0.0779486 0.0684163)
(0.763792 -0.0451565 0.107226)
(0.774213 0.00203464 -0.0283331)
(0.881596 -0.0547655 -0.042726)
(0.995151 -0.0501699 -0.0963179)
(1.09741 -0.0495256 -0.157291)
(1.0983 -0.135454 -0.00433327)
(1.03325 -0.0750971 0.00062079)
(0.979628 0.0401925 -0.0460213)
(0.928207 0.0335567 0.0552703)
(0.979385 -0.0438977 -0.0243327)
(0.866569 -0.00107323 -0.0894235)
(0.922549 0.00226276 -0.117741)
(0.775522 -0.0395739 -0.0291591)
(0.536922 -0.0274364 -0.015891)
(0.833916 -0.0222123 -0.0975343)
(0.659498 0.019659 -0.105805)
(0.550583 0.0688127 -0.0588236)
(0.773748 0.0458126 -0.107831)
(0.793123 0.0555244 -0.134848)
(0.661369 0.0709145 -0.137747)
(0.687218 0.151124 -0.0241697)
(0.779406 0.0863425 0.0784474)
(0.853252 -0.0723897 -0.00355488)
(0.61977 -0.0434449 -0.204152)
(0.738742 0.0632788 -0.187088)
(0.891331 0.0852626 -0.140219)
(0.852182 0.0197163 0.0228926)
(0.746977 0.0603646 0.0539213)
(0.677467 0.0748011 0.052606)
(0.849837 -0.0016852 -0.0320826)
(0.911154 -0.0278882 -0.125533)
(0.846641 -0.0401429 -0.0192853)
(0.785466 -0.0205412 0.0157817)
(0.763805 0.0294678 0.0147818)
(0.895454 0.032331 0.0403241)
(0.931749 -0.00610105 -0.0338802)
(0.785496 0.00119982 -0.105135)
(0.849542 0.0165163 -0.142387)
(0.803428 -0.0366725 -0.116101)
(0.791038 -0.0835965 0.0196382)
(0.880546 -0.0522406 0.0423256)
(0.920587 0.00950541 -0.0291794)
(0.953844 -0.020012 -0.0252241)
(0.965348 -0.0554194 -0.0396995)
(1.06885 -0.0569748 -0.146862)
(1.12523 -0.160861 -0.0938138)
(1.05083 -0.110454 -0.0209882)
(1.01026 0.00458929 -0.0593304)
(0.925355 0.0272932 0.0366646)
(0.988011 -0.022077 0.0413993)
(0.932421 -0.00938424 -0.0378687)
(0.984349 -0.00142451 -0.0838501)
(0.937032 -0.0197289 -0.0629713)
(0.729395 -0.0611748 0.0261222)
(0.76985 -0.035248 -0.107056)
(0.696635 0.0370876 -0.0793311)
(0.608412 0.0306019 0.019733)
(0.657916 0.00940753 -0.0275139)
(0.574121 0.0665505 -0.0988631)
(0.577549 0.109929 -0.077594)
(0.634513 0.16995 0.0525616)
(0.72368 0.101398 0.070951)
(0.921302 -0.0691592 -0.030445)
(0.702757 -0.0461039 -0.1051)
(0.664583 0.0852581 -0.133504)
(0.81475 0.0900499 -0.0799413)
(0.881945 0.0248854 0.0250319)
(0.769161 0.057255 0.0890395)
(0.676702 0.0715544 0.115048)
(0.886163 0.0147994 0.0519216)
(0.919222 -0.0280747 -0.0169163)
(0.886138 -0.032399 -0.0226154)
(0.825114 -0.0166662 -0.018286)
(0.760931 0.0162994 -0.0142656)
(0.794495 0.0477672 0.0567313)
(0.893424 0.0258546 0.0671137)
(0.871327 0.0190739 -0.0613817)
(0.927871 -0.00624141 -0.104509)
(0.897873 -0.0348443 -0.159567)
(0.86086 -0.0447243 -0.0156748)
(0.90972 -0.0340669 0.068582)
(0.964132 0.0235689 -0.0447098)
(1.01425 0.00375794 -0.00858471)
(1.04288 -0.0165381 0.0339899)
(1.08378 -0.0532764 -0.175362)
(1.095 -0.126843 -0.183817)
(1.04326 -0.121253 -0.0377877)
(1.02403 0.00115165 -0.0458555)
(0.961072 0.0259077 0.00180269)
(1.01248 -0.0173217 -2.34482e-05)
(0.970314 0.00108229 -0.0198509)
(0.989106 -0.000182175 -0.037279)
(1.00342 -0.0295085 -0.109102)
(0.827231 -0.0275496 -0.0441958)
(0.732999 -0.00898369 -0.0507111)
(0.649442 0.0305106 -0.101593)
(0.586175 0.0674665 -0.0293588)
(0.642675 0.0519983 0.0721603)
(0.608722 0.004805 -0.0264742)
(0.524311 0.0593448 -0.148402)
(0.545417 0.11895 -0.0674233)
(0.726048 0.0536599 0.0130259)
(0.952607 -0.0757841 -0.0521561)
(0.733425 -0.0555852 -0.072432)
(0.600343 0.0777458 -0.0483802)
(0.738106 0.0628166 -0.0608765)
(0.833966 -0.0223956 -0.0513733)
(0.782094 0.0423449 0.0760602)
(0.764699 0.091354 0.136489)
(0.883556 0.0369266 0.0893322)
(0.934544 0.00207809 0.026192)
(0.901331 0.00884568 -0.0343701)
(0.848921 -0.0174673 -0.0455529)
(0.739379 0.0160655 -0.0481558)
(0.734261 0.0450457 0.017801)
(0.8397 0.00962498 0.0704986)
(0.885302 -0.00337814 0.0032263)
(0.991318 -0.00529995 -0.079732)
(0.95992 -0.0258149 -0.155758)
(0.894905 -0.044929 -0.0776398)
(0.9257 -0.0183114 0.0723106)
(1.02306 0.0320222 0.0107642)
(1.03187 0.0274886 -0.086639)
(1.02981 -0.000785939 -0.0633131)
(1.1197 -0.0463135 -0.0835274)
(1.10509 -0.118536 -0.0935068)
(1.01891 -0.11347 0.00261989)
(1.00563 -0.0539966 -0.0107977)
(1.00655 0.033682 -0.0238936)
(1.04362 0.0260542 -0.0281665)
(0.982132 0.00796951 -0.0494362)
(1.02124 0.00659154 0.00345751)
(1.06809 -0.00317755 -0.0661329)
(0.905056 -0.0154935 -0.0690417)
(0.793608 -0.0197158 -0.0101776)
(0.678605 0.0375602 -0.0501035)
(0.645661 0.0934342 -0.0230281)
(0.740703 0.0503189 0.0689974)
(0.75882 0.0263157 0.110997)
(0.641408 0.0434105 -0.0612833)
(0.598449 0.107198 -0.136562)
(0.764315 0.0453371 -0.0602182)
(0.95716 -0.0535925 -0.0708021)
(0.796004 -0.0124889 -0.106735)
(0.686502 0.0596755 -0.091411)
(0.80396 0.0407934 -0.128722)
(0.866177 -0.0337 -0.128472)
(0.809938 0.0103064 -0.0175069)
(0.804733 0.0758965 0.109594)
(0.919027 0.0449436 0.123585)
(0.937705 0.026672 0.038846)
(0.945727 0.0316186 -0.0534079)
(0.901393 0.00433967 -0.0406772)
(0.807289 0.0255141 -0.0527396)
(0.804142 0.0285634 -5.67962e-06)
(0.860842 0.0055975 0.0982253)
(0.910573 -0.0146572 0.085383)
(0.99762 -0.0235122 -0.038039)
(1.01148 -0.0241769 -0.108625)
(0.950035 -0.0452273 -0.0425691)
(0.914613 -0.0184323 0.0370979)
(1.05822 0.0416995 0.00859195)
(1.18043 -0.00358035 -0.0434289)
(1.1144 -0.0291429 -0.0385887)
(1.13316 -0.0363773 -0.0443956)
(1.18356 -0.0812129 -0.0799001)
(1.06443 -0.0929353 -0.0263974)
(0.9962 -0.0556189 0.00615069)
(1.00652 0.0218644 -0.034805)
(1.05139 0.0227019 -0.0468131)
(1.00882 -0.0152919 -0.0673455)
(0.999665 -0.0377152 -0.00715823)
(1.06704 -0.0126417 -0.0461805)
(0.982708 0.0218147 -0.0886326)
(0.876672 -0.00234429 0.00795627)
(0.733499 0.025046 0.0275785)
(0.669608 0.0831395 -0.0194548)
(0.721969 0.0632499 -0.0109442)
(0.765245 0.0434859 0.0796878)
(0.720847 0.0625891 0.00576735)
(0.68561 0.0456982 -0.126251)
(0.793071 -0.0191516 -0.12917)
(0.922364 -0.0635515 -0.0897627)
(0.822757 -0.000628714 -0.10462)
(0.749618 0.052329 -0.152135)
(0.850182 0.0219087 -0.177547)
(0.9382 -0.0411543 -0.137998)
(0.86667 -0.0259328 -0.0426131)
(0.834075 0.0334374 0.0936506)
(0.918045 0.0588602 0.111326)
(0.957495 0.0725141 0.0123044)
(0.956466 0.0473065 0.0193791)
(0.938431 0.000778196 0.00438856)
(0.862416 0.0262846 -0.0214393)
(0.88521 0.0479407 -0.002294)
(0.928661 0.00759352 0.0479697)
(0.930112 -0.0131011 0.0454014)
(0.987909 -0.0277562 -0.0289985)
(1.0058 -0.0125978 -0.0651997)
(0.983609 0.00740722 -0.0189134)
(0.970517 0.0334024 0.00343554)
(1.09248 0.0423585 -0.0031073)
(1.22874 -0.0009348 -0.0247285)
(1.14301 -0.0410701 -0.0494259)
(1.07131 -0.0592917 -0.048993)
(1.12375 -0.0903329 -0.0449234)
(1.0964 -0.0881865 -0.0233027)
(1.06999 -0.0689433 0.0185045)
(1.04525 -0.0165477 0.004917)
(1.04007 0.0229642 -0.00470772)
(1.02969 0.00514986 -0.0315105)
(1.03168 -0.0354489 -0.00503549)
(1.08697 -0.0188054 -0.00471992)
(1.0368 0.0137289 -0.0997929)
(0.947132 0.00209974 -0.0970286)
(0.786606 0.0424274 0.011924)
(0.676955 0.0888218 -0.00413052)
(0.738975 0.047003 -0.0363116)
(0.825887 0.0283769 -0.00898537)
(0.853712 0.0757272 -0.00496584)
(0.874001 0.0792871 -0.0339111)
(0.90644 0.00854962 -0.0501682)
(0.919784 -0.0459371 -0.055442)
(0.83228 0.00974462 -0.107912)
(0.809631 0.0450903 -0.141691)
(0.934712 -0.00332934 -0.115574)
(1.00622 -0.0673452 -0.0961741)
(0.899597 -0.0501404 -0.0787573)
(0.836262 0.0211514 0.00620032)
(0.919665 0.0562841 0.0652512)
(0.955154 0.0701348 0.0524739)
(0.957758 0.0777442 0.0608215)
(0.964414 0.0385725 0.047124)
(0.917033 0.0166452 0.000112453)
(0.935608 0.0103787 -0.0196039)
(0.974905 -0.00961175 0.00350051)
(0.959703 -0.0196202 0.0263223)
(0.967111 -0.0382351 0.0138245)
(0.981464 -0.0491615 -0.0145016)
(1.01204 -0.0303916 0.000403543)
(1.06959 -0.00669345 -0.00834199)
(1.15438 0.00987594 -0.0436216)
(1.21563 0.00725516 -0.0515548)
(1.16164 -0.0236843 -0.0352413)
(1.10536 -0.0621303 -0.0324149)
(1.12859 -0.0873188 -0.0570613)
(1.13994 -0.0677391 -0.0564347)
(1.14779 -0.049502 0.000724396)
(1.0863 -0.0314859 0.025496)
(1.02621 -0.0321935 0.000101722)
(1.02885 -0.0394531 -0.0293441)
(1.0366 -0.0424132 -0.00740381)
(1.07856 -0.0248613 0.034802)
(1.11167 0.00690623 -0.0282299)
(1.06462 -0.00120194 -0.131669)
(0.873693 0.0188311 -0.113102)
(0.772218 0.050637 -0.0556343)
(0.79859 0.00577995 0.00878594)
(0.859175 -0.0221574 0.0499845)
(0.924336 0.016897 0.0253352)
(0.958877 0.0497663 0.00594866)
(0.967166 0.030992 0.00639362)
(0.93786 -0.0124926 -0.00717156)
(0.890461 0.0197005 -0.0447076)
(0.892017 0.0363142 -0.0672885)
(0.938763 -0.0280552 -0.04514)
(0.979377 -0.103622 -0.0222805)
(0.937955 -0.0864965 -0.0483481)
(0.887356 -0.00181564 -0.0270886)
(0.945231 0.0639689 0.0227344)
(0.962769 0.0904584 0.0530095)
(0.978338 0.074734 0.0864872)
(0.987027 0.0439616 0.116358)
(0.99418 0.0292668 0.0595081)
(1.01351 0.00154214 -0.00751886)
(1.02396 -0.0250694 -0.0141734)
(1.01131 -0.0312598 0.0234523)
(1.00909 -0.0380462 0.020318)
(0.99751 -0.0454022 -0.0176616)
(1.00688 -0.0354623 0.0254603)
(1.06982 -0.00303809 0.0723575)
(1.14611 0.0197199 0.0316022)
(1.2161 0.0108293 -0.0426557)
(1.21419 0.00013928 -0.0701559)
(1.14421 -0.0309195 -0.0374948)
(1.12826 -0.0728151 -0.0288478)
(1.14187 -0.0726319 -0.0660339)
(1.20097 -0.0319318 -0.0664128)
(1.22136 0.00569239 -0.0100173)
(1.09023 -0.0143445 0.0116177)
(0.981707 -0.0348592 -0.0218215)
(0.987254 -0.0360189 -0.0277881)
(1.00664 -0.0430622 0.00723401)
(1.01732 -0.0318357 0.00764724)
(1.05583 0.012823 -0.0260102)
(1.04459 0.0629955 -0.0433198)
(0.982242 0.0556567 -0.029746)
(0.904649 0.00248574 -0.00932865)
(0.862288 -0.0377017 0.0261785)
(0.883882 -0.0352787 0.0379592)
(0.947788 -0.0136849 0.00749971)
(0.998209 0.00187159 -0.0191354)
(0.979435 0.00856952 -0.0320429)
(0.919017 0.0356706 -0.0527487)
(0.908673 0.041621 -0.0778749)
(0.948416 0.000681412 -0.0479739)
(0.941989 -0.0556981 0.0224803)
(0.907265 -0.0596422 0.0247099)
(0.888041 -0.00302891 -0.00541172)
(0.941984 0.0467036 0.00820505)
(0.983713 0.0806438 0.0382863)
(1.01947 0.0657955 0.0516721)
(1.03261 0.0228517 0.0727711)
(1.02798 0.000712481 0.0440105)
(1.01598 -0.0178799 -0.00671906)
(1.02333 -0.0298183 -0.0352623)
(1.04354 -0.036379 -0.0362125)
(1.0325 -0.0532835 -0.0587358)
(0.983838 -0.0687997 -0.0443198)
(0.921829 -0.0588219 0.0343774)
(0.928577 -0.0142692 0.0706114)
(1.06269 0.0235967 0.0234609)
(1.22776 0.0136112 -0.0437493)
(1.27408 -0.0328697 -0.0643221)
(1.16433 -0.0674394 -0.0418225)
(1.08977 -0.0675569 -0.00940647)
(1.14342 -0.0473874 0.00380104)
(1.24971 -0.0191835 -0.00575972)
(1.27539 0.0180742 0.0293838)
(1.13537 0.0216807 0.0658713)
(0.968016 -0.00170554 0.0202503)
(0.936384 -0.00147722 -0.0220894)
(0.987686 0.00777819 -0.0130993)
(1.00668 0.00583564 -0.00818775)
(0.997949 -0.00590627 -0.0227746)
(0.992562 0.00331684 -0.0169058)
(0.985917 0.0553033 0.0107072)
(0.982183 0.0804453 0.00870069)
(1.00744 0.0460355 -0.0240528)
(0.997455 0.0104977 -0.0375024)
(0.985332 0.00261204 -0.0208979)
(1.00457 0.00749773 0.00345076)
(1.01167 0.00920783 -0.0158938)
(0.998085 0.0390054 -0.066398)
(0.988983 0.0601668 -0.103133)
(0.998012 0.0137499 -0.104688)
(0.945888 -0.0657953 -0.052685)
(0.883131 -0.0843543 -0.0242502)
(0.879931 -0.0232484 -0.0330658)
(0.907718 0.0342167 -0.0164344)
(0.972997 0.0717272 0.0109037)
(1.03966 0.0401524 0.00186682)
(1.05901 0.0288876 0.0262551)
(1.03693 0.00569391 0.0332476)
(1.00404 -0.0176828 0.0288147)
(1.01711 -0.024913 0.0098489)
(1.08493 -0.00694972 0.00286984)
(1.1343 0.00982181 0.002233)
(1.12187 -0.00782816 0.000542805)
(1.04658 -0.0387474 0.0368937)
(0.992131 -0.0244685 0.0699656)
(1.07875 -0.00789006 0.0724257)
(1.25198 -0.00267862 0.05892)
(1.31852 0.00118101 0.0175597)
(1.21667 -0.0270096 -0.0201332)
(1.09589 -0.065666 -0.0214194)
(1.12667 -0.066862 -0.00856887)
(1.21053 -0.0231125 0.000464257)
(1.19308 0.025817 0.00768759)
(1.10246 0.0347843 0.0201504)
(0.992719 0.00404393 0.0293262)
(0.925325 -0.0280353 0.0287889)
(0.93655 -0.0509288 0.0205671)
(0.979478 -0.0436477 -0.00677651)
(1.00362 -0.0017483 -0.0397615)
(0.994279 0.0266695 -0.0384724)
(0.978177 0.0366304 -0.0146652)
(0.985344 0.0280032 -0.00569805)
(1.00899 0.00697755 -0.0227638)
(1.01359 0.00685936 -0.065577)
(1.02397 0.0118878 -0.0964378)
(1.03716 0.00125196 -0.0841494)
(1.02405 -0.0238881 -0.0664948)
(0.984895 -0.0230175 -0.060348)
(0.961504 -0.00120263 -0.0822428)
(0.980263 -0.0033489 -0.116297)
(0.970379 -0.0259832 -0.0994395)
(0.927439 -0.0409681 -0.0699393)
(0.917973 -0.0137659 -0.0577019)
(0.94048 0.0162447 -0.0390319)
(0.987545 0.0281541 -0.0229286)
(0.974194 0.00136001 0.023824)
(1.01164 -0.0219199 0.0307857)
(1.04163 -0.0282568 0.0315948)
(1.03218 -0.0269817 0.043401)
(1.02007 -0.0315436 0.0476895)
(1.04801 -0.0324404 0.0385512)
(1.10881 -0.01905 0.031228)