/*--------------------------------*- C++ -*----------------------------------*\
  =========                 |
  \\      /  F ield         | OpenFOAM: The Open Source CFD Toolbox
   \\    /   O peration     | Website:  https://openfoam.org
    \\  /    A nd           | Version:  10
     \\/     M anipulation  |
\*---------------------------------------------------------------------------*/
FoamFile
{
    format      ascii;
    class       surfaceScalarField;
    location    "30";
    object      phi;
}
// * * * * * * * * * * * * * * * * * * * * * * * * * * * * * * * * * * * * * //

dimensions      [0 3 -1 0 0 0 0];

internalField   nonuniform List<scalar> 
300480
(
8.96447e-06
1.20154e-08
-1.59091e-08
8.97352e-06
5.17172e-09
-1.70021e-08
8.96343e-06
2.52827e-08
-1.37031e-08
8.96886e-06
8.62102e-09
-1.87985e-08
8.96717e-06
1.585e-08
-1.14804e-08
8.97051e-06
8.53046e-09
-1.61173e-08
8.96491e-06
1.86954e-08
-1.12221e-08
8.96805e-06
1.04887e-08
-1.53761e-08
8.97019e-06
1.10288e-08
-1.18374e-08
8.9615e-06
2.17051e-08
-1.37558e-08
8.97313e-06
1.99792e-10
-1.11222e-08
8.95984e-06
2.4715e-08
-1.2267e-08
8.96973e-06
3.22827e-09
-1.08163e-08
8.96412e-06
1.89057e-08
-1.42518e-08
8.96107e-06
1.38595e-08
-9.09715e-09
8.96895e-06
4.95648e-09
-1.36998e-08
8.9579e-06
2.19953e-08
-9.75978e-09
8.96634e-06
4.05364e-09
-1.42097e-08
8.95896e-06
2.0779e-08
-1.01068e-08
8.96334e-06
8.0941e-09
-1.54887e-08
8.96129e-06
1.30724e-08
-1.02202e-08
8.95777e-06
1.6583e-08
-1.36496e-08
8.96686e-06
4.23391e-09
-1.52329e-08
8.95471e-06
2.60374e-08
-1.2949e-08
8.96212e-06
6.18123e-09
-1.40612e-08
8.96503e-06
1.00228e-08
-1.64665e-08
8.95545e-06
2.2819e-08
-1.10284e-08
8.9641e-06
5.72289e-09
-1.87346e-08
8.96278e-06
1.69935e-08
-1.3702e-08
8.95951e-06
1.68001e-08
-1.81586e-08
8.96365e-06
9.75414e-09
-1.28914e-08
8.96409e-06
1.36537e-08
-1.90549e-08
8.96249e-06
1.65209e-08
-1.49709e-08
8.96448e-06
1.3473e-08
-1.95381e-08
8.9637e-06
1.50097e-08
-1.40113e-08
8.96645e-06
1.1065e-08
-2.09301e-08
8.96635e-06
1.35462e-08
-1.29206e-08
8.96204e-06
2.01169e-08
-1.93219e-08
8.97211e-06
4.8335e-09
-1.83913e-08
2.27748e-08
-1.50854e-08
3.03839e-05
4.7835e-08
-4.87939e-08
3.0393e-05
4.23084e-08
-5.40591e-08
3.03804e-05
8.34011e-08
-4.43438e-08
3.03904e-05
4.31192e-08
-5.57367e-08
3.03865e-05
6.34903e-08
-3.77134e-08
3.03921e-05
4.32072e-08
-5.14921e-08
3.0383e-05
7.03739e-08
-3.58833e-08
3.03902e-05
4.57215e-08
-4.88086e-08
3.03892e-05
5.38018e-08
-3.56591e-08
3.03798e-05
7.16815e-08
-4.46777e-08
3.03938e-05
2.45801e-08
-3.36072e-08
3.03738e-05
8.29728e-08
-4.1617e-08
3.039e-05
2.75776e-08
-3.36971e-08
3.03757e-05
7.32082e-08
-4.36657e-08
3.03764e-05
4.90946e-08
-3.02614e-08
3.03814e-05
3.94673e-08
-4.38224e-08
3.03666e-05
7.25369e-08
-3.1699e-08
3.03779e-05
3.23506e-08
-4.50348e-08
3.03644e-05
7.41074e-08
-3.29704e-08
3.03722e-05
3.87651e-08
-4.77234e-08
3.03648e-05
5.73297e-08
-3.32113e-08
3.03633e-05
5.89929e-08
-4.6708e-08
3.03717e-05
3.64004e-08
-4.24275e-08
3.03554e-05
8.47519e-08
-4.39012e-08
3.03688e-05
3.45585e-08
-4.3389e-08
3.03673e-05
5.29935e-08
-4.95328e-08
3.03578e-05
7.45703e-08
-3.88376e-08
3.03704e-05
3.76565e-08
-5.59254e-08
3.03665e-05
6.71712e-08
-4.24682e-08
3.0365e-05
6.09939e-08
-5.60498e-08
3.0371e-05
4.80652e-08
-4.21892e-08
3.03715e-05
5.77365e-08
-5.92838e-08
3.03709e-05
6.33296e-08
-4.59944e-08
3.03747e-05
5.64519e-08
-6.01786e-08
3.03747e-05
5.99631e-08
-4.53418e-08
3.03797e-05
5.07436e-08
-6.34625e-08
3.03788e-05
5.88e-08
-4.28812e-08
3.03768e-05
7.06369e-08
-6.24362e-08
3.03901e-05
3.74075e-08
-5.08962e-08
8.07573e-08
-5.266e-08
5.77774e-05
1.15919e-07
-8.5985e-08
5.77874e-05
1.16283e-07
-1.00049e-07
5.77759e-05
1.76002e-07
-8.03206e-08
5.77882e-05
1.11925e-07
-1.00726e-07
5.77848e-05
1.46117e-07
-7.06547e-08
5.77917e-05
1.11791e-07
-9.50594e-08
5.77825e-05
1.57606e-07
-6.70427e-08
5.77918e-05
1.13568e-07
-8.96294e-08
5.77898e-05
1.3254e-07
-6.57791e-08
5.7781e-05
1.54407e-07
-8.31285e-08
5.77951e-05
8.16479e-08
-6.12667e-08
5.77732e-05
1.75878e-07
-7.85794e-08
5.77908e-05
8.33623e-08
-6.1018e-08
5.7773e-05
1.63089e-07
-7.95649e-08
5.77747e-05
1.1404e-07
-5.59483e-08
5.77764e-05
1.08417e-07
-7.96316e-08
5.776e-05
1.54392e-07
-5.75543e-08
5.77697e-05
9.31965e-08
-8.09076e-08
5.77534e-05
1.6101e-07
-5.95302e-08
5.77603e-05
1.00157e-07
-8.41814e-08
5.7749e-05
1.35213e-07
-5.97987e-08
5.77473e-05
1.32862e-07
-8.41396e-08
5.77533e-05
1.01912e-07
-7.21186e-08
5.77353e-05
1.77103e-07
-7.99443e-08
5.77492e-05
9.41253e-08
-7.45315e-08
5.77452e-05
1.30702e-07
-8.7271e-08
5.77359e-05
1.5834e-07
-6.94707e-08
5.77488e-05
1.0321e-07
-9.65119e-08
5.77442e-05
1.51635e-07
-7.38881e-08
5.77437e-05
1.37759e-07
-9.76896e-08
5.77502e-05
1.19783e-07
-7.45678e-08
5.77511e-05
1.35654e-07
-1.03109e-07
5.77516e-05
1.44332e-07
-8.02431e-08
5.77569e-05
1.3305e-07
-1.04909e-07
5.77582e-05
1.38904e-07
-8.05454e-08
5.77645e-05
1.24353e-07
-1.10594e-07
5.77648e-05
1.38499e-07
-7.77439e-08
5.77651e-05
1.56037e-07
-1.11028e-07
5.77802e-05
1.04349e-07
-8.80165e-08
1.74651e-07
-9.85639e-08
9.21008e-05
2.20226e-07
-1.2745e-07
9.21136e-05
2.30653e-07
-1.5401e-07
9.21048e-05
3.07214e-07
-1.22505e-07
9.212e-05
2.20095e-07
-1.55396e-07
9.21188e-05
2.67907e-07
-1.10305e-07
9.2128e-05
2.19451e-07
-1.49037e-07
9.21209e-05
2.85826e-07
-1.07334e-07
9.21329e-05
2.19282e-07
-1.39391e-07
9.21321e-05
2.52752e-07
-1.04922e-07
9.21254e-05
2.75978e-07
-1.32077e-07
9.21403e-05
1.77406e-07
-9.61312e-08
9.21189e-05
3.08542e-07
-1.24764e-07
9.21383e-05
1.77647e-07
-9.57997e-08
9.21185e-05
2.93619e-07
-1.23609e-07
9.21215e-05
2.15193e-07
-8.76427e-08
9.21206e-05
2.17573e-07
-1.22297e-07
9.21031e-05
2.73238e-07
-8.86259e-08
9.21101e-05
1.92256e-07
-1.21733e-07
9.20916e-05
2.86527e-07
-9.04246e-08
9.20959e-05
1.98185e-07
-1.25219e-07
9.20799e-05
2.51391e-07
-8.90768e-08
9.20764e-05
2.42989e-07
-1.24895e-07
9.20784e-05
2.0598e-07
-1.04856e-07
9.20575e-05
3.07046e-07
-1.18707e-07
9.20691e-05
1.89803e-07
-1.07369e-07
9.20619e-05
2.46909e-07
-1.28189e-07
9.20509e-05
2.78048e-07
-1.00354e-07
9.20624e-05
2.06948e-07
-1.40029e-07
9.20558e-05
2.73721e-07
-1.05455e-07
9.20551e-05
2.51069e-07
-1.40939e-07
9.20608e-05
2.28494e-07
-1.07187e-07
9.20611e-05
2.50594e-07
-1.48187e-07
9.20618e-05
2.63279e-07
-1.15415e-07
9.20677e-05
2.463e-07
-1.50573e-07
9.20702e-05
2.54925e-07
-1.16589e-07
9.20774e-05
2.35503e-07
-1.60656e-07
9.20789e-05
2.54711e-07
-1.13578e-07
9.2082e-05
2.80146e-07
-1.63719e-07
9.2099e-05
2.08562e-07
-1.28668e-07
3.07965e-07
-1.50366e-07
0.000134257
3.62593e-07
-1.69403e-07
0.000134273
3.85498e-07
-2.09644e-07
0.000134269
4.78754e-07
-1.6817e-07
0.000134287
3.6969e-07
-2.16902e-07
0.000134291
4.31246e-07
-1.5415e-07
0.000134303
3.67061e-07
-2.09612e-07
0.000134302
4.59151e-07
-1.58557e-07
0.000134317
3.66792e-07
-1.9732e-07
0.00013432
4.16657e-07
-1.51585e-07
0.000134319
4.42024e-07
-1.94613e-07
0.000134335
3.17355e-07
-1.3978e-07
0.000134318
4.83917e-07
-1.80266e-07
0.000134341
3.18097e-07
-1.42036e-07
0.000134322
4.69263e-07
-1.77313e-07
0.000134328
3.59568e-07
-1.28706e-07
0.000134326
3.72396e-07
-1.73285e-07
0.00013431
4.35697e-07
-1.28992e-07
0.000134314
3.35992e-07
-1.68696e-07
0.000134295
4.55637e-07
-1.27797e-07
0.000134297
3.40067e-07
-1.73179e-07
0.000134276
4.10575e-07
-1.21997e-07
0.000134269
3.9549e-07
-1.70136e-07
0.000134265
3.53114e-07
-1.412e-07
0.000134241
4.78903e-07
-1.59765e-07
0.000134247
3.27204e-07
-1.42835e-07
0.000134235
4.05828e-07
-1.71562e-07
0.00013422
4.37369e-07
-1.30437e-07
0.000134228
3.52923e-07
-1.85654e-07
0.000134217
4.37468e-07
-1.36437e-07
0.000134213
4.03767e-07
-1.83288e-07
0.000134216
3.77716e-07
-1.38185e-07
0.000134213
4.04786e-07
-1.91397e-07
0.000134212
4.23315e-07
-1.49045e-07
0.000134216
3.98725e-07
-1.93617e-07
0.000134219
4.08834e-07
-1.4833e-07
0.000134225
3.87582e-07
-2.10923e-07
0.000134226
4.06692e-07
-1.43453e-07
0.000134232
4.45568e-07
-2.16939e-07
0.00013425
3.49971e-07
-1.66166e-07
4.81599e-07
-2.03342e-07
0.000184998
5.45245e-07
-2.07794e-07
0.000185015
5.7629e-07
-2.5459e-07
0.000185017
6.87924e-07
-2.07914e-07
0.000185037
5.56823e-07
-2.7555e-07
0.000185049
6.36641e-07
-1.97336e-07
0.00018506
5.49413e-07
-2.62352e-07
0.000185071
6.72765e-07
-2.13787e-07
0.000185089
5.59732e-07
-2.61852e-07
0.000185097
6.19398e-07
-1.94872e-07
0.000185107
6.50658e-07
-2.65596e-07
0.000185124
5.06593e-07
-1.93811e-07
0.000185115
6.97856e-07
-2.38e-07
0.000185145
5.09215e-07
-2.00646e-07
0.000185131
6.90623e-07
-2.3973e-07
0.000185142
5.52197e-07
-1.81624e-07
0.000185144
5.75697e-07
-2.32215e-07
0.000185135
6.4512e-07
-1.82636e-07
0.000185136
5.3218e-07
-2.25334e-07
0.000185122
6.70459e-07
-1.73529e-07
0.000185123
5.34612e-07
-2.33658e-07
0.000185099
6.15453e-07
-1.60396e-07
0.000185093
5.97913e-07
-2.24703e-07
0.000185081
5.49277e-07
-1.85438e-07
0.000185056
6.95278e-07
-2.03612e-07
0.000185053
5.14172e-07
-1.85183e-07
0.000185036
6.12064e-07
-2.19911e-07
0.000185014
6.41029e-07
-1.61827e-07
0.000185016
5.4456e-07
-2.33222e-07
0.000185
6.48241e-07
-1.70696e-07
0.000184987
5.99177e-07
-2.24235e-07
0.000184987
5.706e-07
-1.67991e-07
0.000184976
6.01556e-07
-2.32354e-07
0.00018497
6.26022e-07
-1.79255e-07
0.00018497
5.94907e-07
-2.34932e-07
0.000184967
5.99102e-07
-1.69661e-07
0.000184971
5.85551e-07
-2.61483e-07
0.000184967
5.91524e-07
-1.59296e-07
0.000184974
6.5404e-07
-2.67031e-07
0.000184988
5.28606e-07
-1.93126e-07
6.90162e-07
-2.4612e-07
0.00024481
7.7136e-07
-2.42846e-07
0.000244821
7.99225e-07
-2.79651e-07
0.00024483
9.329e-07
-2.30668e-07
0.000244843
7.72053e-07
-3.13053e-07
0.000244867
8.78621e-07
-2.33999e-07
0.000244871
7.66582e-07
-2.93886e-07
0.000244893
9.0598e-07
-2.45812e-07
0.00024492
7.95251e-07
-3.27246e-07
0.000244923
8.57152e-07
-2.23154e-07
0.000244953
8.82026e-07
-3.17574e-07
0.000244973
7.4584e-07
-2.55262e-07
0.00024497
9.38097e-07
-2.81846e-07
0.000245011
7.43779e-07
-2.59151e-07
0.000245008
9.50089e-07
-3.01563e-07
0.000245026
7.87647e-07
-2.39357e-07
0.000245035
8.25962e-07
-2.93245e-07
0.000245039
8.92048e-07
-2.43187e-07
0.000245043
7.85135e-07
-2.93033e-07
0.00024504
9.23177e-07
-2.21513e-07
0.000245044
7.8893e-07
-3.13744e-07
0.000245021
8.65535e-07
-2.04229e-07
0.000245025
8.47462e-07
-2.87056e-07
0.000245004
8.07782e-07
-2.50822e-07
0.000244987
9.52597e-07
-2.48385e-07
0.000244976
7.57051e-07
-2.40198e-07
0.000244955
8.7041e-07
-2.79668e-07
0.00024493
8.94427e-07
-2.01909e-07
0.000244919
7.85812e-07
-2.83934e-07
0.000244905
9.08411e-07
-2.14517e-07
0.000244875
8.46533e-07
-2.71823e-07
0.000244871
8.06812e-07
-1.96993e-07
0.000244853
8.47829e-07
-2.79314e-07
0.000244835
8.72198e-07
-2.05032e-07
0.00024483
8.41237e-07
-2.82487e-07
0.000244815
8.23775e-07
-1.77885e-07
0.000244812
8.37406e-07
-3.20071e-07
0.000244798
8.10585e-07
-1.59286e-07
0.0002448
9.00671e-07
-3.08952e-07
0.000244806
7.57577e-07
-2.17821e-07
9.22527e-07
-2.61074e-07
0.000313793
1.03844e-06
-2.748e-07
0.000313783
1.05913e-06
-2.91863e-07
0.0003138
1.21353e-06
-2.38906e-07
0.000313791
1.0186e-06
-3.18729e-07
0.000313823
1.13725e-06
-2.48966e-07
0.000313818
1.03072e-06
-3.14306e-07
0.000313834
1.14954e-06
-2.30473e-07
0.00031388
1.04737e-06
-3.64839e-07
0.00031387
1.13709e-06
-2.43152e-07
0.000313909
1.11218e-06
-3.13452e-07
0.00031394
1.01906e-06
-3.03694e-07
0.00031394
1.19439e-06
-2.98142e-07
0.000313986
9.98e-07
-2.85539e-07
0.000314003
1.23185e-06
-3.42818e-07
0.000314025
1.04133e-06
-2.75836e-07
0.000314048
1.1133e-06
-3.39844e-07
0.000314069
1.15014e-06
-2.84762e-07
0.000314076
1.08778e-06
-3.64265e-07
0.000314094
1.18967e-06
-2.44957e-07
0.000314112
1.08265e-06
-3.98911e-07
0.000314088
1.17114e-06
-2.63829e-07
0.00031412
1.11214e-06
-3.26028e-07
0.000314092
1.13087e-06
-3.45904e-07
0.00031409
1.2453e-06
-2.92642e-07
0.000314084
1.04262e-06
-2.99372e-07
0.000314056
1.18343e-06
-3.564e-07
0.000314046
1.19312e-06
-2.57177e-07
0.000314015
1.08591e-06
-3.44818e-07
0.000314013
1.20273e-06
-2.61605e-07
0.000313972
1.15749e-06
-3.45701e-07
0.000313955
1.08854e-06
-2.26003e-07
0.000313942
1.14202e-06
-3.42502e-07
0.0003139
1.16583e-06
-2.3228e-07
0.000313894
1.14354e-06
-3.47893e-07
0.000313867
1.0798e-06
-1.73024e-07
0.000313848
1.14062e-06
-3.95232e-07
0.000313825
1.08923e-06
-1.69967e-07
0.000313816
1.1639e-06
-3.22878e-07
0.000313805
1.05556e-06
-2.71487e-07
1.18025e-06
-2.44178e-07
0.000391555
1.33264e-06
-2.98876e-07
0.000391508
1.37084e-06
-3.13484e-07
0.000391526
1.52894e-06
-2.52135e-07
0.00039149
1.31685e-06
-3.17164e-07
0.000391508
1.39643e-06
-2.22634e-07
0.000391499
1.33199e-06
-3.34591e-07
0.000391487
1.43934e-06
-2.02736e-07
0.000391538
1.29707e-06
-3.4244e-07
0.000391525
1.45352e-06
-2.6398e-07
0.000391549
1.34782e-06
-2.52158e-07
0.000391586
1.29475e-06
-3.01455e-07
0.000391596
1.47195e-06
-2.95184e-07
0.00039162
1.25749e-06
-2.53838e-07
0.000391669
1.51184e-06
-3.38251e-07
0.000391685
1.27777e-06
-2.52956e-07
0.000391717
1.41939e-06
-3.48915e-07
0.000391769
1.38857e-06
-2.66999e-07
0.000391772
1.40901e-06
-4.14851e-07
0.000391805
1.4667e-06
-2.30249e-07
0.000391861
1.33029e-06
-4.02495e-07
0.000391829
1.52752e-06
-3.48071e-07
0.000391895
1.37427e-06
-3.10903e-07
0.000391886
1.46615e-06
-4.29036e-07
0.000391887
1.57127e-06
-3.39045e-07
0.000391919
1.32119e-06
-3.21711e-07
0.000391879
1.53685e-06
-4.36102e-07
0.000391906
1.50758e-06
-3.13867e-07
0.000391864
1.45204e-06
-4.3203e-07
0.000391869
1.51147e-06
-2.87365e-07
0.00039185
1.49157e-06
-4.3694e-07
0.000391801
1.4289e-06
-2.67669e-07
0.000391812
1.47291e-06
-4.22818e-07
0.000391758
1.50003e-06
-2.65211e-07
0.000391733
1.49272e-06
-4.40051e-07
0.000391716
1.37581e-06
-1.67226e-07
0.000391674
1.44748e-06
-4.50563e-07
0.000391642
1.46354e-06
-2.56803e-07
0.000391623
1.44294e-06
-2.96568e-07
0.000391592
1.40242e-06
-3.62871e-07
1.47948e-06
-2.24552e-07
0.000477166
1.6012e-06
-2.84272e-07
0.000477093
1.71447e-06
-3.49616e-07
0.000477094
1.88666e-06
-2.97013e-07
0.00047703
1.69347e-06
-3.76311e-07
0.000477012
1.66496e-06
-1.74219e-07
0.000476987
1.59956e-06
-3.05876e-07
0.000476952
1.77522e-06
-2.10182e-07
0.000476976
1.59376e-06
-3.03448e-07
0.000476951
1.80689e-06
-2.99841e-07
0.000476959
1.60389e-06
-1.81472e-07
0.000476956
1.542e-06
-2.05564e-07
0.000477008
1.75049e-06
-2.79157e-07
0.000476977
1.56851e-06
-1.99067e-07
0.000477036
1.81611e-06
-3.09268e-07
0.000477056
1.47206e-06
-1.49063e-07
0.000477061
1.68333e-06
-2.73488e-07
0.000477148
1.6108e-06
-1.79459e-07
0.000477157
1.70268e-06
-3.89577e-07
0.000477174
1.78973e-06
-2.37186e-07
0.00047726
1.50069e-06
-2.50622e-07
0.000477245
1.79415e-06
-3.56928e-07
0.000477318
1.64225e-06
-2.48312e-07
0.000477365
1.76315e-06
-4.32604e-07
0.000477358
1.92726e-06
-3.92114e-07
0.000477442
1.53165e-06
-2.55939e-07
0.000477413
1.84638e-06
-4.48568e-07
0.000477476
1.78813e-06
-3.10896e-07
0.000477476
1.83863e-06
-5.42328e-07
0.00047746
1.876e-06
-3.10563e-07
0.000477497
1.76586e-06
-4.77268e-07
0.000477445
1.7602e-06
-2.81571e-07
0.000477459
1.80509e-06
-5.04353e-07
0.000477444
1.89049e-06
-3.22289e-07
0.000477384
1.85779e-06
-5.39611e-07
0.000477382
1.70914e-06
-2.07178e-07
0.000477337
1.68957e-06
-3.88396e-07
0.000477299
1.86241e-06
-4.11411e-07
0.000477282
1.79514e-06
-2.92869e-07
0.000477237
1.7761e-06
-4.74669e-07
1.80238e-06
-2.30153e-07
0.000569239
1.77973e-06
-1.96998e-07
0.000569153
1.90712e-06
-2.74994e-07
0.00056917
2.18397e-06
-2.99855e-07
0.000569088
2.1753e-06
-5.62216e-07
0.000569021
2.05783e-06
-2.72555e-07
0.000568944
1.79068e-06
-1.99271e-07
0.000568878
1.9647e-06
-1.39974e-07
0.000568896
1.874e-06
-2.55856e-07
0.000568817
2.26925e-06
-4.10297e-07
0.000568828
1.96542e-06
-2.59679e-07
0.00056872
1.76998e-06
-4.31317e-08
0.000568802
1.87851e-06
-1.45249e-07
0.000568756
1.87959e-06
-1.19497e-07
0.000568773
2.25077e-06
-3.54985e-07
0.000568792
1.77864e-06
-1.21369e-07
0.000568732
1.86074e-06
-7.25103e-08
0.000568824
1.69855e-06
1.72734e-08
0.000568845
1.92618e-06
-1.98918e-07
0.000568853
2.17716e-06
-3.21031e-07
0.000568892
1.79086e-06
-1.24947e-07
0.00056889
1.89828e-06
-1.7656e-07
0.000568946
1.75314e-06
-5.02178e-08
0.000569052
1.94705e-06
-2.72e-07
0.000569054
2.34147e-06
-4.76565e-07
0.000569139
1.79684e-06
-1.80139e-07
0.000569144
2.0028e-06
-3.2239e-07
0.00056923
1.89527e-06
-1.01062e-07
0.000569331
2.07476e-06
-5.32552e-07
0.00056934
2.34929e-06
-4.02762e-07
0.000569388
2.06149e-06
-5.15251e-07
0.000569387
1.98861e-06
-1.88397e-07
0.000569404
1.94268e-06
-4.067e-07
0.000569475
2.22388e-06
-3.75622e-07
0.000569425
2.3021e-06
-6.46587e-07
0.000569407
2.12376e-06
-3.99516e-07
0.000569371
1.85947e-06
-2.03767e-07
0.000569337
2.04588e-06
-3.97508e-07
0.000569371
2.11393e-06
-2.93656e-07
0.000569343
2.23027e-06
-6.39636e-07
2.22852e-06
-3.56657e-07
0.000666109
2.19163e-06
-3.06691e-07
0.000665965
1.90912e-06
-4.11057e-08
0.000666014
2.042e-06
4.46739e-08
0.000666027
2.43304e-06
-5.83872e-07
0.000665986
2.6713e-06
-6.58023e-07
0.000665866
2.19997e-06
-3.2071e-07
0.000665669
1.9792e-06
5.09154e-08
0.000665699
1.72818e-06
4.06339e-08
0.000665598
2.57104e-06
-4.07498e-07
0.000665659
2.51345e-06
-6.03956e-07
0.000665446
2.2607e-06
-1.55566e-07
0.000665413
1.84857e-06
9.94593e-08
0.000665389
1.79348e-06
2.00697e-07
0.000665393
2.57329e-06
-3.14018e-07
0.000665453
2.35248e-06
-4.01565e-07
0.000665283
2.32679e-06
-4.49842e-08
0.000665303
1.62972e-06
3.01842e-07
0.000665296
1.80326e-06
3.05077e-07
0.000665357
2.36595e-06
-2.38118e-07
0.000665371
2.34848e-06
-2.77322e-07
0.000665281
2.25524e-06
-1.08123e-07
0.000665231
1.69018e-06
2.81567e-07
0.000665323
1.73776e-06
2.64934e-07
0.000665399
2.52811e-06
-4.03222e-07
0.000665476
2.32428e-06
-2.93495e-07
0.00066544
2.3276e-06
-2.94197e-07
0.000665456
1.85413e-06
3.00813e-07
0.000665596
1.82073e-06
-6.49274e-08
0.000665756
2.60403e-06
-3.55407e-07
0.000665854
2.55086e-06
-6.84407e-07
0.000665883
2.37807e-06
-2.45315e-07
0.000665869
1.8931e-06
-3.39318e-08
0.000666008
2.07829e-06
-8.49131e-08
0.000666106
2.54396e-06
-5.77871e-07
0.000666128
2.72024e-06
-8.04152e-07
0.000666081
2.27676e-06
-2.67072e-07
0.000665978
2.02213e-06
-1.391e-07
0.000666045
1.99445e-06
3.56537e-08
0.000666145
2.45802e-06
-6.25312e-07
2.86171e-06
-7.18801e-07
0.000766138
2.91508e-06
-7.93541e-07
0.000765979
2.29387e-06
-5.33406e-08
0.000765885
1.68049e-06
6.46635e-07
0.000765961
1.95521e-06
1.07042e-08
0.000766109
2.8883e-06
-8.59159e-07
0.000766194
2.86656e-06
-7.97066e-07
0.000765903
2.36068e-06
-1.56071e-08
0.000765785
1.32762e-06
5.58174e-07
0.000765614
2.16974e-06
7.11207e-08
0.000765801
2.66211e-06
-8.14566e-07
0.000765746
3.00185e-06
-6.86278e-07
0.000765551
2.2083e-06
4.71558e-08
0.00076538
1.44043e-06
6.71306e-07
0.000765293
2.23708e-06
1.76144e-07
0.000765516
2.57298e-06
-6.72896e-07
0.000765422
3.1527e-06
-4.82078e-07
0.000765336
1.97861e-06
2.86663e-07
0.000765146
1.52218e-06
9.34168e-07
0.000765151
1.92404e-06
3.6592e-07
0.000765309
2.54793e-06
-4.03608e-07
0.000765294
2.98404e-06
-4.41152e-07
0.000765096
2.03454e-06
2.98918e-07
0.000764933
1.40545e-06
9.94845e-07
0.000764941
2.01877e-06
2.20314e-07
0.000765118
2.54226e-06
-3.55338e-07
0.000765147
2.95911e-06
-6.07575e-07
0.000765039
2.24191e-06
3.79045e-07
0.00076493
1.39648e-06
7.28668e-07
0.000765064
2.13827e-06
2.52139e-07
0.000765319
2.72277e-06
-6.86724e-07
0.000765494
3.02243e-06
-6.30014e-07
0.000765466
2.23292e-06
1.2568e-07
0.000765465
1.68304e-06
5.71342e-07
0.000765633
2.06527e-06
8.34949e-08
0.000765856
2.89391e-06
-9.71096e-07
0.000765975
2.98157e-06
-7.56875e-07
0.000765819
2.37632e-06
-1.31455e-07
0.000765696
1.6602e-06
6.18632e-07
0.000765798
1.98495e-06
-3.07201e-08
3.07699e-06
-8.92102e-07
0.000868056
3.09141e-06
-1.32997e-06
0.000868148
2.91913e-06
-5.82988e-07
0.000867942
1.82526e-06
1.03481e-06
0.000867819
1.31342e-06
1.13232e-06
0.000867982
2.30142e-06
-4.05454e-07
0.000868403
2.9786e-06
-1.28496e-06
0.000868375
2.94293e-06
-5.32393e-07
0.000868188
1.36774e-06
9.43016e-07
0.000867799
1.57175e-06
1.03137e-06
0.000867875
2.02595e-06
-4.4531e-07
0.000868134
3.14594e-06
-1.27665e-06
0.000868123
2.78672e-06
-5.0443e-07
0.000867865
1.48128e-06
9.70694e-07
0.000867491
1.68294e-06
1.10692e-06
0.00086767
1.96859e-06
-4.19849e-07
0.000867822
3.42464e-06
-1.13988e-06
0.000867887
2.57776e-06
-3.09045e-07
0.000867602
1.67289e-06
1.27724e-06
0.000867321
1.38897e-06
1.3717e-06
0.000867436
1.97155e-06
-1.21015e-08
0.00086768
3.20364e-06
-9.19841e-07
0.000867663
2.62145e-06
-2.60477e-07
0.000867328
1.58894e-06
1.38397e-06
0.000867012
1.39295e-06
1.27086e-06
0.000867088
2.01707e-06
5.71225e-08
0.000867289
3.1085e-06
-1.05138e-06
0.000867319
2.87845e-06
-1.57297e-07
0.00086702
1.52361e-06
1.23546e-06
0.000866797
1.52787e-06
1.30204e-06
0.00086694
2.18439e-06
-1.69569e-07
0.000867263
3.18095e-06
-1.07272e-06
0.000867411
2.83344e-06
-2.73006e-07
0.000867297
1.78196e-06
1.05686e-06
0.00086725
1.45396e-06
1.23206e-06
0.000867492
2.25669e-06
-4.26235e-07
0.000867881
3.11793e-06
-1.26561e-06
0.000867959
2.93355e-06
-6.38674e-07
0.000867717
1.78235e-06
1.00148e-06
0.000867542
1.36348e-06
1.02562e-06
2.4653e-06
-4.14847e-07
0.000971921
2.5137e-06
-1.20359e-06
0.000972262
2.91283e-06
-1.35352e-06
0.000972215
2.07573e-06
6.52279e-07
0.000971939
1.16871e-06
2.01018e-06
0.000971851
1.67128e-06
7.65406e-07
0.000972286
2.3904e-06
-1.1289e-06
0.00097258
2.91553e-06
-1.24873e-06
0.000972618
1.51268e-06
6.51356e-07
0.000972196
1.3898e-06
1.89714e-06
0.000971971
1.35097e-06
6.48129e-07
0.00097223
2.55146e-06
-1.21906e-06
0.000972504
2.7426e-06
-1.25916e-06
0.000972476
1.59351e-06
6.14954e-07
0.000971994
1.52318e-06
1.91067e-06
0.000971908
1.26312e-06
5.94316e-07
0.000972084
2.90424e-06
-1.19106e-06
0.000972371
2.55583e-06
-1.19949e-06
0.00097229
1.85414e-06
8.17943e-07
0.000971886
1.28357e-06
2.12579e-06
0.000971728
1.34078e-06
1.01281e-06
0.00097198
2.69994e-06
-8.4957e-07
0.000972254
2.58465e-06
-1.05771e-06
0.000972117
1.83964e-06
9.44488e-07
0.000971661
1.23788e-06
2.0604e-06
0.000971458
1.42093e-06
1.08468e-06
0.000971617
2.56453e-06
-9.49107e-07
0.000971853
2.8847e-06
-9.77358e-07
0.000971716
1.78898e-06
8.76414e-07
0.000971309
1.37394e-06
2.10516e-06
0.00097114
1.59222e-06
9.11345e-07
0.000971346
2.65002e-06
-9.57651e-07
0.00097163
2.85202e-06
-9.72787e-07
0.00097162
2.00898e-06
7.48126e-07
0.000971403
1.33743e-06
2.12915e-06
0.000971405
1.5953e-06
8.09604e-07
0.000971794
2.52816e-06
-1.06455e-06
0.000972136
2.83844e-06
-1.35614e-06
0.000972082
1.9751e-06
6.795e-07
0.000971762
1.20365e-06
1.85832e-06
1.79254e-06
7.63458e-07
0.00107927
1.80282e-06
-3.01441e-07
0.00107955
2.31705e-06
-1.43099e-06
0.00107966
1.8696e-06
-5.35923e-08
0.0010795
1.14762e-06
1.87757e-06
0.00107928
1.37732e-06
1.64292e-06
0.00107948
1.72277e-06
-2.67441e-07
0.00107976
2.35467e-06
-1.31633e-06
0.00107997
1.26433e-06
4.48135e-09
0.00107977
1.32237e-06
1.84195e-06
0.00107948
1.01682e-06
1.53614e-06
0.00107953
1.8651e-06
-3.99157e-07
0.00107977
2.15756e-06
-1.34528e-06
0.00107996
1.29772e-06
-4.61751e-08
0.00107968
1.4625e-06
1.82162e-06
0.0010795
8.67995e-07
1.45066e-06
0.00107952
2.22728e-06
-4.19134e-07
0.00107976
1.9661e-06
-1.38155e-06
0.00107988
1.57048e-06
3.20941e-08
0.00107965
1.23801e-06
1.91234e-06
0.00107941
1.00983e-06
1.74434e-06
0.00107946
2.0712e-06
-1.08344e-07
0.00107973
1.9903e-06
-1.19085e-06
0.00107981
1.62667e-06
1.74593e-07
0.00107955
1.17693e-06
1.8665e-06
0.00107928
1.11755e-06
1.82495e-06
0.00107927
1.91245e-06
-1.75275e-07
0.00107947
2.29764e-06
-1.13268e-06
0.00107952
1.61177e-06
1.25872e-07
0.00107928
1.32241e-06
1.93958e-06
0.00107902
1.28668e-06
1.69039e-06
0.00107903
1.9904e-06
-1.96149e-07
0.00107921
2.29417e-06
-1.07454e-06
0.0010793
1.79741e-06
4.65006e-08
0.00107915
1.33288e-06
1.9998e-06
0.00107901
1.28543e-06
1.6812e-06
0.00107919
1.86675e-06
-1.48815e-07
0.00107949
2.17835e-06
-1.39505e-06
0.00107961
1.71202e-06
4.0742e-08
0.00107944
1.13745e-06
1.7506e-06
1.45386e-06
1.64105e-06
0.00119232
1.21906e-06
4.31882e-07
0.00119241
1.61494e-06
-8.33791e-07
0.00119249
1.3998e-06
-2.6406e-07
0.00119249
9.77898e-07
1.21697e-06
0.00119235
1.17778e-06
1.59834e-06
0.0011924
1.18828e-06
4.10761e-07
0.00119248
1.72053e-06
-7.63761e-07
0.00119264
8.1353e-07
-2.19188e-07
0.00119264
1.14961e-06
1.22708e-06
0.00119249
8.05231e-07
1.54334e-06
0.00119245
1.31621e-06
3.02419e-07
0.0011925
1.51372e-06
-7.82301e-07
0.00119268
8.05482e-07
-2.69937e-07
0.0011926
1.28658e-06
1.20478e-06
0.00119253
5.9654e-07
1.4538e-06
0.00119248
1.66058e-06
2.72143e-07
0.00119254
1.30293e-06
-8.39898e-07
0.00119265
1.06139e-06
-2.60023e-07
0.00119261
1.04623e-06
1.20456e-06
0.0011925
7.62987e-07
1.603e-06
0.00119246
1.54727e-06
4.53547e-07
0.00119255
1.31651e-06
-6.95085e-07
0.00119264
1.16223e-06
-1.16813e-07
0.00119258
9.8202e-07
1.17052e-06
0.00119245
8.90136e-07
1.69172e-06
0.00119239
1.36986e-06
4.25881e-07
0.00119244
1.59579e-06
-6.24242e-07
0.0011925
1.16773e-06
-1.71833e-07
0.00119246
1.127e-06
1.26059e-06
0.00119233
1.05246e-06
1.6096e-06
0.00119227
1.42119e-06
4.06342e-07
0.00119229
1.61175e-06
-5.62579e-07
0.00119235
1.30844e-06
-2.2188e-07
0.00119233
1.16462e-06
1.3285e-06
0.00119225
1.06395e-06
1.5923e-06
0.00119229
1.34896e-06
5.52581e-07
0.00119239
1.45514e-06
-8.0645e-07
0.00119249
1.21768e-06
-1.57675e-07
0.00119248
9.19593e-07
1.15191e-06
1.21722e-06
1.60435e-06
0.00131355
7.59417e-07
5.98194e-07
0.00131354
1.04532e-06
-2.48959e-07
0.00131354
9.70032e-07
-6.78474e-08
0.00131361
7.41801e-07
6.84043e-07
0.00131357
9.47959e-07
1.07277e-06
0.00131358
7.50697e-07
5.51923e-07
0.00131355
1.21774e-06
-2.27197e-07
0.00131359
4.31044e-07
-6.17102e-08
0.00131365
9.3696e-07
6.91217e-07
0.00131363
5.983e-07
1.05287e-06
0.00131361
8.76989e-07
4.83227e-07
0.00131354
1.02193e-06
-2.2425e-07
0.00131363
3.94279e-07
-1.08597e-07
0.00131364
1.07307e-06
6.73931e-07
0.00131367
3.44589e-07
9.69785e-07
0.00131363
1.19916e-06
4.48363e-07
0.00131359
7.917e-07
-2.698e-07
0.00131361
6.29059e-07
-1.23794e-07
0.00131365
8.20072e-07
6.36738e-07
0.00131366
5.04637e-07
1.02893e-06
0.00131362
1.1068e-06
5.26282e-07
0.0013136
7.80166e-07
-2.05459e-07
0.00131362
7.52739e-07
3.46143e-09
0.00131365
7.43916e-07
6.11087e-07
0.00131365
6.44911e-07
1.12404e-06
0.0013136
9.25655e-07
5.11415e-07
0.00131357
1.02909e-06
-1.18442e-07
0.00131358
7.5003e-07
-5.63364e-08
0.00131362
8.68769e-07
7.08842e-07
0.00131361
7.97012e-07
1.08312e-06
0.00131358
9.42144e-07
5.15627e-07
0.00131352
1.04477e-06
-5.81152e-08
0.00131351
8.43188e-07
-8.93318e-08
0.00131357
9.08181e-07
7.82635e-07
0.00131355
8.03681e-07
1.02935e-06
0.00131356
9.32088e-07
6.83124e-07
0.00131354
8.93169e-07
-2.47967e-07
0.00131355
7.97247e-07
1.59676e-08
0.00131361
6.41995e-07
6.63478e-07
9.67244e-07
1.08343e-06
0.00144545
4.17082e-07
4.76465e-07
0.00144542
6.41132e-07
3.98836e-08
0.00144539
6.62842e-07
1.34558e-07
0.00144547
5.20446e-07
3.95277e-07
0.00144546
7.29125e-07
5.96904e-07
0.00144547
4.06052e-07
4.27795e-07
0.00144542
8.62899e-07
3.52592e-08
0.00144541
1.77294e-07
1.14386e-07
0.00144547
7.55687e-07
3.81214e-07
0.00144548
4.14952e-07
5.88889e-07
0.00144549
5.37089e-07
3.90828e-07
0.0014454
6.9279e-07
4.72696e-08
0.00144544
1.27056e-07
6.83703e-08
0.00144546
8.94941e-07
3.67934e-07
0.0014455
1.39772e-07
5.16039e-07
0.0014455
8.33838e-07
3.49132e-07
0.00144543
4.49637e-07
1.71315e-08
0.00144543
3.39191e-07
4.49861e-08
0.00144546
6.43612e-07
3.2552e-07
0.0014455
2.80068e-07
5.35301e-07
0.00144549
7.62103e-07
3.73827e-07
0.00144544
4.12153e-07
1.96044e-08
0.00144543
4.70184e-07
1.592e-07
0.00144547
5.53507e-07
2.99499e-07
0.0014455
4.2757e-07
6.32704e-07
0.00144548
5.83706e-07
3.59623e-07
0.00144544
6.3286e-07
1.17217e-07
0.00144542
4.5123e-07
9.52647e-08
0.00144548
6.42736e-07
4.02234e-07
0.00144549
5.63275e-07
6.15834e-07
0.00144549
5.65006e-07
3.88632e-07
0.00144542
6.40206e-07
1.74292e-07
0.0014454
5.0702e-07
7.30524e-08
0.00144547
6.68544e-07
4.82048e-07
0.00144547
5.54703e-07
5.3622e-07
0.00144548
6.02459e-07
5.44984e-07
0.00144543
5.03027e-07
1.93566e-08
0.0014454
5.22766e-07
1.94686e-07
0.00144546
4.06102e-07
3.85646e-07
7.3362e-07
6.15406e-07
0.00159007
1.93823e-07
3.22199e-07
0.00159006
3.70969e-07
1.19738e-07
0.00159003
4.59588e-07
1.97716e-07
0.0015901
3.33714e-07
2.41079e-07
0.00159009
5.55945e-07
3.19577e-07
0.00159009
1.65469e-07
2.87358e-07
0.00159006
6.24507e-07
1.0443e-07
0.00159004
2.42355e-08
1.75181e-07
0.00159009
6.06376e-07
2.17485e-07
0.0015901
2.78453e-07
3.11801e-07
0.00159011
3.01682e-07
2.72911e-07
0.00159003
4.90236e-07
1.0739e-07
0.00159006
-3.36453e-08
1.33604e-07
0.00159009
7.47239e-07
2.07942e-07
0.0015901
5.28266e-09
2.5135e-07
0.00159012
5.67391e-07
2.23976e-07
0.00159006
2.46102e-07
8.75072e-08
0.00159005
1.57897e-07
1.06038e-07
0.00159008
5.16623e-07
1.63147e-07
0.0015901
1.16279e-07
2.56082e-07
0.00159011
5.23082e-07
2.36774e-07
0.00159006
1.83302e-07
6.20101e-08
0.00159006
2.93338e-07
2.14031e-07
0.00159008
4.1255e-07
1.38319e-07
0.00159011
2.63852e-07
3.52658e-07
0.00159009
3.50978e-07
2.1595e-07
0.00159007
3.78387e-07
1.62804e-07
0.00159004
2.57796e-07
1.44797e-07
0.00159011
4.59429e-07
2.44848e-07
0.00159011
3.88696e-07
3.38618e-07
0.00159011
3.02443e-07
2.59546e-07
0.00159006
3.79439e-07
2.13463e-07
0.00159003
2.8918e-07
1.29232e-07
0.00159011
4.68048e-07
3.237e-07
0.0015901
3.61813e-07
2.55319e-07
0.00159011
3.70528e-07
3.96249e-07
0.00159007
2.48666e-07
8.53542e-08
0.00159004
3.61699e-07
2.50289e-07
0.00159008
2.20377e-07
2.29361e-07
5.47997e-07
3.46454e-07
0.00174908
6.49328e-08
2.071e-07
0.00174907
1.96594e-07
1.1179e-07
0.00174904
3.3327e-07
1.71643e-07
0.00174911
1.81242e-07
1.48924e-07
0.00174909
4.34856e-07
1.80702e-07
0.00174909
1.42298e-08
1.91077e-07
0.00174908
4.65912e-07
9.22843e-08
0.00174904
-5.91994e-08
1.57605e-07
0.0017491
4.78966e-07
1.26254e-07
0.0017491
1.85786e-07
1.67633e-07
0.00174911
1.49476e-07
1.97638e-07
0.00174905
3.70203e-07
7.94947e-08
0.00174907
-1.22977e-07
1.27694e-07
0.0017491
6.17351e-07
1.16452e-07
0.00174909
-6.15927e-08
1.21753e-07
0.00174912
3.77652e-07
1.42189e-07
0.00174907
1.42885e-07
6.81437e-08
0.00174906
4.61308e-08
1.00511e-07
0.0017491
4.19779e-07
7.36452e-08
0.0017491