/*--------------------------------*- C++ -*----------------------------------*\
  =========                 |
  \\      /  F ield         | OpenFOAM: The Open Source CFD Toolbox
   \\    /   O peration     | Website:  https://openfoam.org
    \\  /    A nd           | Version:  10
     \\/     M anipulation  |
\*---------------------------------------------------------------------------*/
FoamFile
{
    format      ascii;
    class       surfaceScalarField;
    location    "30";
    object      phi;
}
// * * * * * * * * * * * * * * * * * * * * * * * * * * * * * * * * * * * * * //

dimensions      [0 3 -1 0 0 0 0];

internalField   nonuniform List<scalar> 
300480
(
3.8124e-05
2.08516e-06
5.80458e-06
3.98719e-05
3.22708e-06
1.03482e-05
3.64386e-05
3.80968e-06
5.47112e-06
3.25889e-05
7.30244e-06
-4.15173e-07
3.04786e-05
7.48586e-06
3.54195e-06
2.38525e-05
3.58358e-06
1.02659e-05
1.64155e-05
-1.76287e-06
1.04895e-05
1.35445e-05
-5.95006e-07
3.79008e-06
1.42168e-05
-4.23774e-06
7.30304e-06
1.4578e-05
-6.50574e-06
1.12031e-05
1.27283e-05
3.30383e-06
-1.63471e-07
1.06014e-05
6.09495e-06
-7.48677e-06
1.17735e-05
-5.82917e-06
-5.83827e-07
1.80105e-05
-1.45797e-05
6.52714e-06
2.172e-05
1.72512e-07
1.71116e-06
2.22617e-05
1.5965e-05
-8.14243e-06
2.4968e-05
1.09594e-05
-4.98713e-06
2.82621e-05
2.03676e-06
4.1226e-06
2.62678e-05
1.4735e-05
4.81025e-06
2.57322e-05
2.48411e-05
-4.94516e-06
3.3727e-05
6.33372e-06
-9.00052e-06
3.99629e-05
-6.74405e-06
1.38487e-07
4.23088e-05
-9.96543e-06
8.26061e-06
4.58865e-05
-1.16397e-05
7.25985e-06
4.95085e-05
-7.76091e-06
8.63857e-06
4.96429e-05
-9.09662e-06
1.60287e-05
4.01897e-05
-6.88074e-06
1.54405e-05
3.00442e-05
-6.86215e-06
1.07669e-05
2.60051e-05
-6.43188e-06
1.00033e-05
2.4757e-05
-7.82161e-06
1.24152e-05
2.03165e-05
5.39318e-06
6.57478e-06
1.55608e-05
1.63371e-05
-2.48569e-06
1.70733e-05
-6.02536e-06
5.86787e-07
2.2605e-05
-2.3303e-05
7.06381e-06
2.16421e-05
5.90376e-06
-9.05212e-07
1.80197e-05
3.09182e-05
-1.03268e-05
1.84463e-05
2.82308e-05
-1.13544e-05
2.17905e-05
1.58903e-05
-4.13048e-06
2.68878e-05
3.72341e-06
1.51598e-06
-2.0302e-06
2.37578e-06
0.0001141
5.74252e-06
9.35739e-06
0.000131576
1.21377e-05
2.81268e-05
0.000124641
1.44734e-05
2.47242e-05
0.000110435
2.34624e-05
8.09347e-06
0.000107156
2.1925e-05
1.21629e-05
9.38309e-05
1.23756e-05
2.54768e-05
6.72706e-05
5.71482e-06
2.61218e-05
5.06165e-05
6.82435e-06
1.26326e-05
4.7015e-05
-6.70183e-06
1.55786e-05
4.44761e-05
-7.98285e-06
1.48493e-05
4.10925e-05
1.42321e-05
-5.10115e-06
3.8988e-05
1.67467e-05
-1.12097e-05
4.08435e-05
-1.67005e-05
4.05832e-06
5.08781e-05
-4.37246e-05
8.84331e-06
6.01329e-05
-7.87417e-06
-4.73796e-06
6.95308e-05
3.39127e-05
-1.76737e-05
8.23691e-05
2.23367e-05
-5.25794e-06
8.8685e-05
6.94324e-06
1.13557e-05
8.31125e-05
4.59709e-05
1.21738e-05
8.77499e-05
6.50913e-05
4.80288e-07
0.000112126
1.63145e-05
-7.02446e-06
0.000123251
-6.37156e-06
1.69164e-06
0.000123901
-1.36975e-05
9.5812e-06
0.000137095
-3.83744e-05
9.27146e-06
0.000157738
-4.6236e-05
1.87204e-05
0.000172183
-4.6271e-05
4.24089e-05
0.000152462
-2.51202e-05
4.53094e-05
0.000113885
-6.71812e-06
2.71355e-05
9.23162e-05
-2.97523e-06
1.92018e-05
7.89072e-05
-7.08185e-06
2.50914e-05
6.41668e-05
2.72583e-05
1.17301e-05
5.94713e-05
5.3297e-05
-5.09484e-06
6.15127e-05
-5.34887e-06
3.09344e-06
6.441e-05
-5.75258e-05
9.5873e-06
6.34165e-05
5.1048e-06
-6.21794e-06
6.35941e-05
7.26598e-05
-1.86023e-05
6.71689e-05
7.42969e-05
-1.22516e-05
7.25484e-05
4.89589e-05
1.43038e-06
8.07376e-05
1.60828e-05
6.83344e-06
-5.53218e-06
3.71232e-06
0.000148404
1.06719e-05
1.31779e-06
0.000201951
1.10565e-05
3.26005e-05
0.000226402
9.2814e-06
4.94297e-05
0.000200847
4.68666e-05
2.83113e-05
0.000190789
4.49617e-05
2.10689e-05
0.000189175
1.93667e-05
3.29591e-05
0.00015348
2.38229e-05
3.63344e-05
0.00011157
3.44978e-05
2.20446e-05
9.04702e-05
2.25475e-06
2.48808e-05
7.99033e-05
3.6431e-07
1.70145e-05
7.62691e-05
3.44191e-05
-1.21464e-05
7.68009e-05
3.71685e-05
-1.67887e-05
7.65704e-05
-9.08927e-06
4.57104e-06
8.09183e-05
-5.9614e-05
8.58028e-06
8.80742e-05
-1.53944e-05
-1.42795e-05
0.000106925
3.99906e-05
-3.39685e-05
0.000134917
1.51322e-05
-1.39052e-05
0.00014843
-6.47537e-07
1.3622e-05
0.000143475
7.13956e-05
1.85886e-05
0.000151152
0.000102479
9.45423e-06
0.000192062
1.5807e-05
2.63111e-06
0.000209267
-1.86844e-06
1.0781e-05
0.000189182
2.34896e-05
1.05794e-05
0.000199146
-4.38664e-05
-4.03979e-06
0.000236422
-9.98714e-05
1.02632e-06
0.000272591
-0.000103598
3.26213e-05
0.000270664
-6.25721e-05
6.29883e-05
0.000218109
-3.82326e-06
4.76966e-05
0.000171615
2.14395e-05
2.35795e-05
0.000140402
1.67879e-05
2.76532e-05
0.000115742
6.00864e-05
1.49365e-05
0.000119324
9.99505e-05
-3.61741e-06
0.000119971
3.33795e-05
7.92843e-06
0.000104466
-5.23665e-05
1.12222e-05
0.000100754
-4.88293e-06
-1.16676e-05
0.000113355
8.59475e-05
-2.46596e-05
0.000125022
0.000102291
-1.02902e-05
0.000127311
8.51681e-05
8.71018e-06
0.000127213
4.32029e-05
1.34329e-05
-2.82918e-06
3.91753e-06
0.00016333
8.5186e-06
-3.8979e-06
0.000221743
5.68735e-06
1.52334e-05
0.000293543
-2.73186e-05
5.02392e-05
0.000291818
4.42224e-05
4.94273e-05
0.000263983
7.44752e-05
3.43278e-05
0.000266957
2.35324e-05
3.57746e-05
0.00025098
3.22368e-05
3.76252e-05
0.000204683
7.03982e-05
2.50678e-05
0.000158166
2.93631e-05
3.56068e-05
0.000126062
2.11324e-05
3.02044e-05
0.000115699
6.57561e-05
-1.73982e-05
0.000117356
6.6834e-05
-3.12108e-05
0.000119686
8.53541e-06
4.571e-07
0.000119703
-5.46741e-05
1.0788e-05
0.000116272
-1.71288e-06
-2.17368e-05
0.000131731
5.78856e-05
-5.42211e-05
0.000170493
-3.48688e-06
-3.05432e-05
0.00019617
-2.96163e-05
9.4497e-06
0.000185326
8.8599e-05
2.24631e-05
0.0001735
0.000151153
1.02598e-05
0.000232188
-6.39133e-06
-1.13179e-05
0.000284089
-3.99266e-05
9.36497e-06
0.00024915
7.72318e-05
1.72542e-05
0.000229728
-1.41231e-06
-1.1549e-05
0.000264438
-0.000139593
-1.61566e-05
0.000321245
-0.000177873
6.11165e-06
0.000344976
-0.000115474
5.18957e-05
0.000298779
-2.07788e-06
5.33645e-05
0.000241469
5.4338e-05
2.82641e-05
0.000193246
6.61841e-05
2.6091e-05
0.000153572
0.000116468
6.87325e-06
0.000170927
0.000137382
-8.40106e-06
0.000189343
8.37433e-05
1.91482e-05
0.000152409
1.32256e-05
1.69096e-05
0.000126548
2.62841e-05
-2.33655e-05
0.000153692
8.3822e-05
-3.88528e-05
0.000185534
0.000100152
-1.34967e-05
0.000186969
0.000111686
1.59997e-05
0.000173353
8.41355e-05
2.24357e-05
6.25658e-06
8.44715e-06
0.000182429
4.01719e-06
-3.51762e-06
0.000223895
4.14949e-06
-8.57878e-06
0.000322596
-7.57901e-05
2.53113e-05
0.000363129
3.42931e-06
5.63504e-05
0.000333049
9.55357e-05
5.13411e-05
0.000322228
2.62569e-05
3.56447e-05
0.000317693
2.38912e-05
3.15382e-05
0.000297153
8.82774e-05
1.57055e-05
0.000253165
5.75377e-05
3.53944e-05
0.000194548
5.59473e-05
5.14702e-05
0.000165647
0.000111286
-1.05426e-05
0.000160415
0.000101403
-4.80712e-05
0.000161508
1.36489e-05
-1.44443e-05
0.000162402
-5.66831e-05
1.79247e-05
0.000150229
2.71646e-05
-2.06307e-05
0.000157828
9.41078e-05
-7.20552e-05
0.000200296
-2.07629e-05
-4.64288e-05
0.000233311
-6.90244e-05
5.68744e-06
0.000210933
0.000107392
2.86131e-05
0.000174598
0.000224877
-1.97284e-06
0.000242954
-3.74581e-05
-4.99116e-05
0.000326609
-0.000122252
-1.30541e-05
0.000295965
0.00011611
1.26489e-05
0.000264001
5.9777e-05
-1.75561e-05
0.000285356
-0.000155213
-2.58278e-05
0.000343809
-0.000251234
-4.30027e-06
0.000391157
-0.000193096
4.11482e-05
0.000359378
-8.83731e-06
4.71259e-05
0.000299322
9.2276e-05
2.27658e-05
0.000239895
0.000118375
3.37304e-05
0.000183249
0.000197109
1.7355e-06
0.000198676
0.000193478
-3.18358e-05
0.000237905
0.000119108
1.61823e-05
0.000202559
9.40668e-05
3.0656e-05
0.000153856
0.000104098
-3.00858e-05
0.000173706
0.000106775
-6.57011e-05
0.00022617
7.98444e-05
-3.53608e-05
0.000251641
0.000105591
1.41025e-05
0.000237416
0.000124594
3.38413e-05
3.5257e-05
1.93006e-05
0.0002194
1.60248e-05
2.42616e-06
0.000230396
2.04115e-05
-1.98724e-05
0.000333144
-0.000110605
-1.16105e-05
0.000409597
-6.53019e-05
4.51325e-05
0.000386394
0.000103293
6.45574e-05
0.000365309
2.85398e-05
4.02732e-05
0.000363913
-8.81704e-06
2.45801e-05
0.000354193
8.10273e-05
5.62484e-06
0.000329569
7.64913e-05
1.8235e-05
0.000277585
8.21354e-05
6.63232e-05
0.000249559
0.000154601
1.39573e-05
0.000239809
0.000121376
-5.13399e-05
0.000220022
-2.01541e-06
-3.60742e-05
0.000207375
-6.51406e-05
1.63123e-05
0.000190655
5.77893e-05
-1.33213e-05
0.000197695
0.000137904
-8.34239e-05
0.000238309
-3.37264e-05
-5.48101e-05
0.000261293
-0.000100375
8.01419e-06
0.000219834
0.000146732
2.67439e-05
0.000177613
0.000321473
-4.62514e-05
0.000257368
-6.9019e-05
-0.00010475
0.000354109
-0.000228929
-4.7385e-05
0.000329278
0.000136414
2.72347e-07
0.000300225
0.000111405
-1.74981e-05
0.000320509
-0.000158459
-3.62146e-05
0.000369855
-0.000304287
-1.54147e-05
0.000427848
-0.000285302
3.80449e-05
0.000413242
-5.33913e-05
5.99856e-05
0.000353757
0.000115453
1.70133e-05
0.000286787
0.000155919
4.35615e-05
0.000217403
0.000252239
4.30194e-05
0.000222556
0.000267457
-4.50344e-05
0.000274089
0.000157365
-1.35014e-05
0.000251912
0.000160555
4.20471e-05
0.000185636
0.000197538
-1.50325e-05
0.000184561
0.000165876
-9.86433e-05
0.000239988
7.19016e-05
-7.78336e-05
0.00029466
6.66931e-05
-1.28184e-05
0.00030862
0.000139495
3.12816e-05
7.66771e-05
2.95507e-05
0.000269919
4.5532e-05
9.6168e-06
0.0002504
5.38214e-05
-2.36699e-05
0.000345796
-0.000126239
-3.7708e-05
0.000442726
-0.00014153
2.41608e-05
0.000428751
9.2055e-05
7.11475e-05
0.000397212
3.27606e-05
4.95924e-05
0.000401971
-5.98572e-05
2.07543e-05
0.000402603
3.15977e-05
3.41505e-07
0.000378561
7.9409e-05
8.91088e-06
0.000327196
0.000118402
6.4954e-05
0.000325352
0.000186793
2.12538e-05
0.000352603
0.000108756
-7.18497e-05
0.000321632
-3.23446e-05
-6.8812e-05
0.000270368
-5.81201e-05
3.19134e-06
0.000236142
9.92051e-05
-5.60541e-06
0.000243826
0.000180413
-9.09109e-05
0.000279965
-4.20062e-05
-6.53484e-05
0.000282495
-0.000112068
1.04376e-05
0.000228938
0.000206641
9.92642e-06
0.000216237
0.000421985
-0.000107751
0.000304815
-7.7809e-05
-0.000162624
0.000384425
-0.000320693
-8.58859e-05
0.000358378
0.000129438
-9.72559e-06
0.000331369
0.000153828
-1.5079e-05
0.000361775
-0.000155682
-4.45453e-05
0.000402943
-0.000327556
-3.40736e-05
0.00045747
-0.000356981
2.15222e-05
0.000461346
-0.000135068
7.53237e-05
0.000409143
9.72322e-05
3.4628e-05
0.000333137
0.00019296
3.79652e-05
0.000251943
0.000277839
8.14706e-05
0.000249866
0.000285389
1.21159e-05
0.000308638
0.000200238
-3.78849e-05
0.000302419
0.000218261
3.98242e-05
0.000232196
0.000265688
3.15746e-05
0.000204483
0.000244971
-0.000101653
0.000241937
9.23758e-05
-0.000131282
0.000311972
1.40055e-05
-5.94756e-05
0.000361565
0.000123181
6.59437e-06
0.000115881
2.52183e-05
0.000326949
9.17093e-05
1.42331e-05
0.000283492
9.5374e-05
-2.26136e-05
0.000367744
-0.000124787
-5.51451e-05
0.000472636
-0.000208497
7.19494e-07
0.000465716
6.42744e-05
7.14055e-05
0.000420955
4.6628e-05
5.81326e-05
0.000430698
-0.000109198
2.0936e-05
0.000450212
-6.08902e-05
-3.19388e-06
0.00042678
3.89013e-05
8.95345e-06
0.00036575
0.000168949
6.82359e-05
0.000360442
0.000252665
4.39424e-06
0.000416086
9.61748e-05
-0.000120759
0.000415881
-7.37844e-05
-0.000118795
0.000352484
-4.68256e-05
-1.84341e-05
0.00029608
0.00014793
5.34863e-06
0.000293562
0.000209478
-8.70786e-05
0.00031876
-4.32983e-05
-8.11998e-05
0.000297933
-0.000106937
1.67475e-05
0.00025284
0.00025716
-2.23281e-07
0.000298525
0.000464243
-0.000135089
0.000395072
-5.92728e-05
-0.000214457
0.000434303
-0.0003564
-0.000130938
0.000389014
0.000111028
-1.82333e-05
0.000359393
0.000197855
-2.72735e-05
0.000404738
-0.000149147
-5.11318e-05
0.00044511
-0.000335538
-3.7276e-05
0.00048741
-0.000387644
-4.43529e-07
0.000501601
-0.000214375
6.85458e-05
0.000459075
4.42468e-05
5.78669e-05
0.000379734
0.000227334
3.11799e-05
0.000284781
0.000304098
8.50547e-05
0.000271891
0.000246094
6.94763e-05
0.000338809
0.00020924
-2.56613e-05
0.000354795
0.00026397
2.74749e-05
0.000295826
0.000290464
8.19667e-05
0.000259473
0.000292356
-4.96903e-05
0.000275675
0.000137595
-0.000155669
0.000331264
-1.71473e-05
-0.000105596
0.000401528
8.14021e-05
-2.09757e-05
0.000141281
1.36751e-05
0.00038795
0.000144087
2.1813e-05
0.000328228
0.000144411
-2.30934e-05
0.000401433
-0.00011511
-6.72251e-05
0.000498825
-0.000253866
-1.94579e-05
0.000493361
3.74749e-05
6.0041e-05
0.000448525
8.04371e-05
4.58039e-05
0.00046121
-0.000134753
2.04061e-05
0.000497057
-0.000173244
-5.34349e-06
0.000478466
-2.53635e-05
3.98905e-06
0.000404075
0.000221544
7.35807e-05
0.000381897
0.000344175
2.76428e-06
0.000444388
9.22195e-05
-0.000121861
0.000479786
-0.000123625
-0.000120571
0.00042842
-3.68763e-05
-2.38859e-05
0.000360718
0.000190204
1.27957e-05
0.000351138
0.000199843
-7.37957e-05
0.000362223
-5.39237e-05
-8.31773e-05
0.000320073
-8.96309e-05
2.15862e-05
0.000293946
0.000286698
-1.56709e-05
0.000378809
0.000409336
-8.34574e-05
0.000487144
-7.06803e-05
-0.00018671
0.000499064
-0.00035729
-0.000148378
0.00042386
0.000106282
-3.26294e-05
0.000392413
0.000254945
-6.2052e-05
0.000451344
-0.00012193
-7.68626e-05
0.000494337
-0.000326642
-3.15325e-05
0.000518406
-0.00038401
-3.26756e-06
0.00053346
-0.000276788
5.52524e-05
0.000505882
-2.60374e-05
6.78725e-05
0.000436316
0.000249165
4.02143e-05
0.00033142
0.000342868
7.68845e-05
0.000292909
0.000196533
8.38392e-05
0.000359478
0.000177468
-1.42574e-06
0.00040702
0.000277903
1.82576e-05
0.000369203
0.000282455
0.000103403
0.000336064
0.000277783
2.41573e-05
0.000346844
0.000173321
-0.000149359
0.000376149
-7.75265e-06
-0.000147902
0.000443466
4.3392e-05
-5.59794e-05
0.000136562
1.46776e-05
0.000459938
0.000187136
3.87654e-05
0.000389098
0.000201356
-2.41195e-05
0.000443356
-8.93019e-05
-8.15283e-05
0.000518763
-0.000272355
-3.2795e-05
0.00052174
1.32143e-05
4.65575e-05
0.000504255
0.000117986
1.56717e-05
0.000515222
-0.000122221
4.81342e-06
0.00053509
-0.000239709
-1.78326e-05
0.000525918
-7.8909e-05
-2.38044e-05
0.000467636
0.000240501
6.21222e-05
0.000422636
0.000424859
4.72621e-05
0.000464631
0.000104239
-4.66511e-05
0.000535668
-0.000200268
-6.21125e-05
0.000508608
-3.7684e-05
2.62561e-06
0.000436034
0.000239543
1.06109e-05
0.000434287
0.000149551
-6.90795e-05
0.000436981
-8.82972e-05
-7.76543e-05
0.000377338
-4.25415e-05
-2.32889e-06
0.000350053
0.000304102
-1.49632e-05
0.000419839
0.000299416
6.38679e-07
0.000534456
-0.000137234
-9.3717e-05
0.000550006
-0.000371299
-0.000110105
0.000458236
0.00011107
-3.3294e-05
0.000433588
0.00030889
-8.89693e-05
0.000507716
-7.01083e-05
-0.000115504
0.000552732
-0.000289042
-2.99581e-05
0.000549645
-0.00034626
7.27809e-06
0.00055656
-0.000300944
2.55027e-05
0.000549542
-7.22033e-05
4.32171e-05
0.000489861
0.000267277
5.01358e-05
0.000383611
0.0003767
7.3951e-05
0.000320889
0.000176134
6.29053e-05
0.000372859
0.000143813
-4.91155e-06
0.000449724
0.000262022
-1.3627e-07
0.000443589
0.000246886
9.78531e-05
0.00042177
0.000224121
6.2294e-05
0.000437481
0.000166837
-0.000117578
0.000445446
2.39269e-05
-0.00017397
0.00049822
3.26824e-05
-0.000102947
0.000105725
1.1077e-05
0.000534692
0.000213878
5.10741e-05
0.000460459
0.000269061
-3.18104e-05
0.000495407
-5.56474e-05
-8.87377e-05
0.000543323
-0.000282735
-3.21897e-05
0.000559076
-1.07961e-05
2.68551e-05
0.000577554
0.000145634
-1.29515e-05
0.000585826
-9.26824e-05
-7.33974e-06
0.000580578
-0.000248589
-4.25456e-05
0.000583235
-0.000113021
-7.19667e-05
0.000542663
0.000238877
3.16981e-05
0.000480328
0.000484138
9.19902e-05
0.000505011
0.000145369
1.49691e-05
0.000595778
-0.00027288
-4.4466e-05
0.000599734
-8.61903e-05
2.83469e-05
0.000545967
0.000263566
5.14506e-05
0.000568661
8.20146e-05
-2.7295e-05
0.000591461
-0.000136698
-8.16181e-05
0.000516882
4.94218e-05
-3.83383e-05
0.000437127
0.000317415
3.71329e-05
0.000467447
0.000191901
5.40589e-05
0.000585603
-0.000224901
-3.32478e-05
0.000605698
-0.000386946
-7.04556e-05
0.000504681
0.000111101
-1.6858e-05
0.000490346
0.000322035
-8.60717e-05
0.000576143
-1.51781e-05
-0.000137281
0.000613586
-0.000213015
-2.49363e-05
0.000584276
-0.000284556
3.10629e-05
0.00057389
-0.000285966
-5.87363e-06
0.000577191
-6.64542e-05
-2.21836e-06
0.000543378
0.000276345
5.64293e-05
0.000471239
0.00035578
9.64258e-05
0.000398067
0.000159706
7.99191e-05
0.000408779
0.000140023
1.72837e-05
0.000499501
0.000228114
3.63742e-06
0.000537311
0.0001872
9.07778e-05
0.000523514
0.000153342
8.3899e-05
0.000534189
0.000114662
-6.45654e-05
0.000524984
5.40185e-05
-0.00017081
0.000557825
4.79885e-05
-0.000140838
5.6413e-05
2.64713e-06
0.000605503
0.000197784
6.69358e-05
0.000542745
0.000334051
-3.33582e-05
0.000565771
-1.60428e-05
-9.29696e-05
0.000583572
-0.000284487
-3.77339e-05
0.000600557
-2.01624e-05
-1.99764e-06
0.000643662
0.000155139
-1.56337e-05
0.00065279
-6.73684e-05
-7.51003e-06
0.000637446
-0.000241341
-5.24715e-05
0.000650814
-0.000144503
-0.000107299
0.000608345
0.000246155
-2.53217e-06
0.000538705
0.00052315
0.000120799
0.000550944
0.000204385
5.14372e-05
0.000629289
-0.000287103
-6.34986e-05
0.000714048
-0.000213777
-1.4479e-05
0.000722568
0.00017517
9.88418e-05
0.000671286
7.23563e-05
3.43375e-05
0.000687703
-0.00014228
-9.17827e-05
0.000696107
7.10413e-05
-3.3082e-05
0.000602903
0.000304935
9.49068e-05
0.000570305
0.000143189
8.32693e-05
0.000665896
-0.000255914
-1.43844e-05
0.000672691
-0.000357865
-4.89301e-05
0.000555104
0.000126298
2.01613e-07
0.000551625
0.000283472
-7.75366e-05
0.000650897
-3.55667e-07
-0.000150878
0.000671019
-0.000117966
-2.45453e-05
0.000618813
-0.000204278
4.61869e-05
0.000583623
-0.000252278
-1.72108e-05
0.00058333
-3.28671e-05
-3.5511e-05
0.000601617
0.000260932
4.76439e-05
0.000582864
0.000266592
0.000126028
0.000508564
0.000105596
0.00013536
0.000487243
0.000130818
8.48616e-05
0.000571931
0.000171034
7.02215e-05
0.000616068
0.000131638
0.000125781
0.000579131
0.000110429
0.000104512
0.000584549
1.75539e-05
-2.03241e-05
0.000584566
3.54997e-05
-0.000140666
0.000602357
7.94628e-05
-0.000161233
-5.08839e-06
-1.65269e-05
0.000669674
0.000133113
6.16952e-05
0.000629819
0.000342097
1.49464e-05
0.000645804
1.2721e-05
-6.75177e-05
0.000650247
-0.000249284
-9.18577e-05
0.000664257
1.97547e-05
-4.94656e-05
0.000700764
0.000160531
1.54412e-05
0.000716637
-6.65056e-05
-7.17725e-06
0.000719451
-0.000235529
-5.39258e-05
0.000713174
-0.000159012
-8.48609e-05
0.000632876
0.000251212
2.66245e-05
0.000599774
0.000513122
0.000130228
0.000655552
0.000242406
4.34744e-05
0.000681739
-0.000206138
-9.55814e-05
0.000775186
-0.00034272
-6.65745e-05
0.000877079
-6.32774e-05
0.000115801
0.000803931
4.54697e-05
8.07656e-05
0.000747352
-5.32971e-05
-0.000103923
0.00080426
5.07774e-05
-4.15237e-05
0.000770608
0.00024639
0.000100699
0.00069487
0.000138058
0.000108187
0.000744839
-0.000216319
-1.32719e-06
0.000731189
-0.000263625
-3.10975e-05
0.000610004
0.000158906
2.12427e-05
0.000614848
0.0002154
-6.94194e-05
0.000723142
-1.6806e-05
-0.000162862
0.000751809
-4.41179e-05
-2.89663e-05
0.000687579
-0.000117671
5.7106e-05
0.000624959
-0.000191339
-1.08817e-05
0.000622255
3.72476e-08
-4.86194e-05
0.000673198
0.00023057
9.7585e-06
0.000668689
0.000173603
0.000103259
0.00058876
4.25236e-05
0.000130895
0.000564373
0.000107807
0.000103299
0.00063359
0.000107132
0.000129525
0.000660857
9.92732e-05
0.000170141
0.000611038
9.6098e-05
0.000135852
0.000608351
-0.00010247
2.8141e-05
0.000622848
-3.4794e-05
-0.000113068
0.000639208
8.01776e-05
-0.000135568
-7.68933e-05
-2.8984e-05
0.000749761
3.07756e-05
7.4041e-05
0.00072659
0.000286498
7.68926e-05
0.000726522
2.1485e-05
-1.20607e-05
0.000748786
-0.000203971
-0.000137635
0.000764133
5.93722e-05
-5.94804e-05
0.000742994
0.000199262
5.64421e-05
0.000761693
-7.93189e-05
-8.20508e-06
0.000833449
-0.000272321
-6.0577e-05
0.000807116
-0.000154094
-3.36356e-05
0.000685235
0.000226699
7.18634e-05
0.000687053
0.000449235
0.000101308
0.000789825
0.000267167
-2.34382e-05
0.000812775
-9.41281e-05
-0.000140805
0.000841132
-0.00037127
-9.31607e-05
0.000918057
-0.000275922
0.000122218
0.000873561
-1.12746e-05
0.000100229
0.000812375
6.57556e-05
-0.000113296
0.000883404
5.35904e-05
-8.33591e-05
0.000899946
0.000184841
7.28542e-05
0.000809496
0.000147762
0.000132893
0.000815093
-0.0001528
1.70694e-05
0.000817166
-0.000158842
-3.33977e-05
0.000739346
0.000187157
3.47166e-05
0.000721146
0.000153706
-3.04431e-05
0.000801648
-3.73882e-05
-0.000157757
0.000862558
-2.35235e-05
-3.8654e-05
0.000808845
-5.34267e-05
7.31053e-05
0.000716008
-9.28875e-05
9.16538e-08
0.000700922
4.59016e-05
-5.31921e-05
0.000759088
0.000188091
-3.19768e-05
0.000758694
8.72165e-05
3.32372e-05
0.000683801
-1.84684e-05
6.98342e-05
0.000656634
8.75679e-05
6.54118e-05
0.000682141
9.38982e-05
0.000134395
0.000698844
9.46949e-05
0.000190434
0.000697283
6.46938e-05
0.000176897
0.00067536
-0.000190627
0.000100723
0.000665681
-9.90042e-05
-7.58206e-05
0.000703766
2.0614e-05
-0.000112251
-0.00017804
-9.70066e-06
0.000873475
-0.00012442
0.000108747
0.000833081
0.000240328
9.42379e-05
0.000809547
5.29523e-05
-1.9466e-05
0.000843422
-0.000222454
-0.000110716
0.000854389
1.40907e-05
-1.72656e-05
0.000811718
0.000238521
6.8675e-05
0.000818647
-7.20603e-05
-1.6077e-06
0.00090621
-0.000344669
-3.89521e-05
0.000911923
-0.000197638
3.06584e-05
0.00082123
0.000167421
9.75489e-05
0.000818287
0.000379184
6.27936e-05
0.000897443
0.000285585
-7.27475e-05
0.000950635
-3.17601e-05
-0.000159263
0.000954358
-0.000359567
-8.82534e-05
0.000946881
-0.000369157
0.000117248
0.000908871
-4.61774e-05
9.98508e-05
0.000891847
0.000146111
-0.000123633
0.000967389
8.55776e-05
-0.000141631
0.000993151
0.000167226
3.1956e-05
0.000919456
0.000158099
0.000150777
0.000918755
-0.000116136
3.99036e-05
0.000936143
-8.21755e-05
-4.04448e-05
0.000878284
0.00020219
6.66742e-05
0.00083204
9.83477e-05
4.03877e-05
0.000887743
-7.22507e-05
-0.00013427
0.000957683
-2.8834e-05
-5.83397e-05
0.000910685
-1.21898e-05
9.63168e-05
0.000808859
-3.54864e-06
3.35606e-05
0.000796919
8.07442e-05
-7.0441e-05
0.000854664
0.000142118
-7.28008e-05
0.000837339
5.77501e-05
-1.93452e-06
0.000774969
-5.69322e-05
2.82708e-05
0.000777264
1.8247e-05
1.54604e-05
0.00078537
8.65493e-05
8.66276e-05
0.00080923
9.59157e-05
0.000185003
0.000857274
1.01562e-05
0.000192806
0.000799621
-0.000210017
0.000153846
0.000724668
-9.75906e-05
-1.27305e-05
0.000762346
-4.31072e-05
-0.000133002
-0.000320417
-4.21686e-05
0.00100136
-0.000300748
0.000113082
0.000970949
0.000166214
0.000123319
0.000932911
0.000122796
-4.06471e-05
0.000932432
-0.000224982
-9.3627e-05
0.000921024
-6.61603e-05
-1.38005e-05
0.000912007
0.000226862
3.49001e-05
0.000941385
-4.27182e-05
-3.85901e-05
0.000996327
-0.000382932
-3.89891e-05
0.0010113
-0.000278635
7.36868e-05
0.000965616
9.02935e-05
0.000126829
0.000941453
0.000326348
6.58664e-05
0.000966903
0.000285225
-4.02306e-05
0.00104337
-3.79467e-05
-0.000111994
0.00108156
-0.000381961
-5.68205e-05
0.00102446
-0.000380957
0.000115738
0.000971363
-5.39857e-05
0.00010388
0.0010027
0.000158575
-0.000125176
0.00107381
0.000118073
-0.000191776
0.00107228
0.000197086
1.87001e-06
0.00102329
0.000145032
0.000177163
0.00104759
-0.000157137
7.45807e-05
0.00105641
-7.2561e-05
-7.91237e-06
0.000965864
0.000212937
0.000128028
0.000888169
0.000101198
6.93127e-05
0.000938793
-0.000113145
-0.000151348
0.00102376
-7.1886e-05
-0.00010097
0.000991759
8.11356e-06
0.000103729
0.000891873
6.98737e-05
6.66309e-05
0.000890477
0.000116427
-0.000102283
0.000971831
0.000102263
-0.000117426
0.00095801
5.49371e-05
-5.53172e-06
0.000872474
-1.91755e-05
4.10641e-06
0.000861082
-2.16629e-05
-2.77416e-05
0.000896321
2.85783e-05
4.15082e-05
0.000965915
4.57738e-05
0.000157818
0.0010327
-2.72632e-05
0.00016094
0.000944863
-0.000159916
0.000134909
0.000822432
-3.28533e-05
1.94989e-05
0.000847643
-5.06644e-05
-0.000186101
-0.000405337
-0.000146321
0.00110442
-0.000358048
2.43957e-05
0.00107855
5.37556e-05
0.000179754
0.00104759
0.000141337
5.31067e-05
0.00103299
-0.000137513
-0.000119551
0.00102335
-6.99575e-05
-8.35361e-05
0.00104847
0.000185867
4.89773e-06
0.00110621
-9.52096e-06
-6.45853e-05
0.00113983
-0.000347834
-8.62822e-05
0.00113045
-0.00032221
3.75163e-05
0.00109395
3.36085e-05
0.000115045
0.0010641
0.000306043
8.81573e-05
0.0010625
0.000289926
2.31566e-05
0.00113372
-5.28767e-05
-6.96643e-05
0.00118927
-0.000405051
-4.78585e-05
0.00112031
-0.000339119
0.000100083
0.00106045
-4.52951e-05
8.76636e-05
0.0011092
0.000117159
-0.000116222
0.00117215
0.000130802
-0.0001815
0.0011838
0.000226929
-1.24936e-05
0.00117444
0.000105936
0.000178381
0.00117308
-0.000209098
0.000121805
0.00113037
-7.72522e-05
2.74075e-05
0.00104318
0.000233013
9.45359e-05
0.000982954
0.000152611
2.19746e-05
0.00101509
-0.000103489
-0.00018391
0.00109121
-0.000110068
-0.000142325
0.0010759
2.4882e-05
9.24393e-05
0.000979358
0.000157339
6.46849e-05
0.000974776
0.000167453
-0.000136781
0.00108031
6.77032e-05
-0.000160283
0.00110872
4.05234e-05
-2.12214e-05
0.00101712
6.18235e-05
-1.20839e-05
0.00096002
1.21555e-05
-3.4724e-05
0.000998542
-3.65604e-05
2.7621e-05
0.00110022
-4.54013e-05
0.000110881
0.00117987
-6.44239e-05
0.000125414
0.00109303
-7.53306e-05
0.000111735
0.000956695
6.65127e-05
2.73576e-05
0.00096865
4.52463e-06
-0.00022674
-0.000360459
-0.000255179
0.00121324
-0.000292308
-0.000101891
0.00122727
-5.13892e-05
0.000147371
0.00123246
4.49258e-05
0.00017278
0.00120159
-8.64303e-05
-3.09431e-05
0.00117179
-4.20098e-05
-6.98737e-05
0.00121253
0.00013102
4.57903e-05
0.00129082
-1.42624e-05
-6.05476e-06
0.00132008
-0.000261239
-9.35797e-05
0.00128817
-0.000279693
-1.08224e-05
0.00124103
4.59644e-06
8.75183e-05
0.0012024
0.000283515
0.000112586
0.00119372
0.000314852
6.06203e-05
0.00125442
-4.49398e-05
-6.22905e-05
0.00131554
-0.000427584
-6.64957e-05
0.00126809
-0.000318379
8.55533e-05
0.00119658
-3.66994e-05
9.34816e-05
0.00120639
8.27345e-05
-6.88231e-05
0.00126782
0.000112073
-0.000112431
0.00135267
0.000184278
4.74799e-06
0.00138127
6.21505e-05
0.0001535
0.00129852
-0.000183303
0.000152763
0.00118546
-7.88073e-06
3.71677e-05
0.00112315
0.000281142
1.77199e-05
0.001098
0.00019443
-2.51008e-05
0.00109819
-6.46196e-05
-0.000176884
0.00114772
-0.000141978
-0.000159907
0.00117019
1.75225e-05
5.0941e-05
0.00110822
0.000229986
6.61657e-05
0.00109186
0.000206749
-9.07974e-05
0.00117672
3.6133e-05
-0.000155625
0.00122394
2.54628e-05
-5.72866e-05
0.00117517
0.000105381
3.31597e-06
0.0011343
1.41124e-05
1.17938e-05
0.00116229
-0.000107605
5.58681e-05
0.00123016
-0.000124821
9.74803e-05
0.00129262
-0.000104671
0.000109062
0.00123722
-1.40293e-05
0.000102801
0.00111669
0.000163136
2.91107e-05
0.00110781
7.90387e-05
-0.00020463
-0.000237219
-0.000315745
0.00134505
-0.000166835
-0.000143855
0.00139174
-0.000106451
0.000107421
0.00146063
-0.00010062
0.000201057
0.00145206
-0.000117374
4.93518e-05
0.0013927
-5.32484e-05
-1.35032e-05
0.0014041
5.87693e-05
9.25662e-05
0.00146855
-2.47651e-05
3.66245e-05
0.00148833
-0.000177497
-5.32419e-05
0.00142827
-0.000219617
3.22691e-05
0.00136815
-4.36524e-05
0.000140679
0.00134182
0.00020188
0.000166109
0.00134632
0.000291883
7.04378e-05
0.00140686
-3.66308e-05
-9.44558e-05
0.00144777
-0.000455315
-7.28191e-05
0.00139836
-0.000334782
0.000103655
0.00132314
4.53474e-06
8.39359e-05
0.00130909
0.000102413
-5.89784e-05
0.001394
5.31087e-05
-7.75941e-05
0.00153015
7.40833e-05
7.02138e-06
0.00153591
4.69514e-05
0.00011058
0.0013506
-4.31188e-05
0.000121726
0.00117411
0.000120285
2.73458e-05
0.00114499
0.000256474
7.65498e-07
0.00118324
0.000126103
-3.28541e-05
0.0011853
-3.52572e-05
-0.000190611
0.0012024
-0.000138055
-0.000213116
0.00127042
-7.17688e-05
-1.48771e-05
0.00129564
0.000146595
0.000109874
0.00128071
0.000173246
3.48013e-05
0.00130442
2.70287e-05
-9.07615e-05
0.00134363
3.0598e-06
-5.0198e-05
0.00135272
6.66446e-05
4.99036e-05
0.00135419
-2.89887e-05
5.20284e-05
0.00136289
-0.000151299
6.45739e-05
0.0013855
-0.00013788
7.96071e-05
0.00143061
-0.000112248
7.55256e-05
0.00141108
1.44483e-06
8.1925e-05
0.00132963
0.000196224
5.04294e-05
0.00131086
0.000108137
-0.000113988
-0.000119217
-0.000273153
0.00152034
-5.72793e-05
-0.000152503
0.00154735
-8.01204e-05
1.57981e-05
0.00159718
-0.000144494
0.000133475
0.00159852
-0.00010948
5.29547e-05
0.00156806
-5.10233e-05
-6.61412e-06
0.00158021
-9.86306e-06
7.55141e-05
0.00160316
-1.38404e-05
2.58445e-05
0.00160685
-6.22655e-05
-6.88314e-05
0.00157689
-0.000144262
2.99671e-05
0.00153891
-9.41683e-05
0.000184425
0.00152235
0.000108082
0.000194302
0.00153166
0.000237625
6.62488e-05
0.00158088
-2.38315e-05
-0.000100596
0.00159164
-0.000418963
-9.66587e-05
0.00152322
-0.000303259
7.69329e-05
0.00144066
9.85599e-05
4.5553e-05
0.00142463
0.00019469
-0.000112086
0.0015152
4.34923e-05
-0.000123236
0.00164484
-2.8238e-05
-1.68357e-05
0.00162338
3.08824e-05
0.000102388
0.00139772
0.000117159
0.000102527
0.00121889
0.000234252
-1.55993e-05
0.0012341
0.000199347
-5.29082e-05
0.00131919
4.2189e-05
-5.30068e-05
0.00134785
-1.58042e-05
-0.000175927
0.00134716
-5.81323e-05
-0.000284621
0.00140129
-0.000104661
-0.000131096
0.00147605
-4.41961e-06
8.90859e-05
0.00149363
7.92866e-05
0.00011833
0.0014921
3.65034e-05
-2.65196e-05
0.00151378
-6.57937e-06
-5.26519e-05
0.00154293
3.62607e-06
6.34983e-05
0.00155492
-5.18553e-05
7.82998e-05
0.00154624
-0.000140799
5.16132e-05
0.00153122
-9.85504e-05
4.62238e-05
0.00156492
-7.77247e-05
2.769e-05
0.00161047
-2.91112e-05
5.39982e-05
0.00159345
0.000139237
0.000100743
0.00155295
9.82494e-05
1.38949e-05
-5.0261e-05
-0.000152073
0.00173753
-1.44004e-05
-0.000101576
0.00174744
-1.5608e-05
-5.33511e-05
0.0017622
-9.32712e-05
2.34298e-05
0.00175563
-6.94716e-05
5.27862e-06
0.00174107
-1.36814e-05
-4.49841e-05
0.00175528
-3.09798e-05
3.66227e-05
0.00176091
-1.25608e-05
5.01754e-05
0.00175799
3.47538e-05
-7.24245e-05
0.00176338
-5.1124e-05
-5.36976e-05
0.00175579
-0.000103283
0.000113117
0.00174884
4.59339e-05
0.000168953
0.00176641
0.000187821
6.70899e-05
0.00178924
-4.86779e-07
-6.68387e-05
0.00175848
-0.000319146