/*--------------------------------*- C++ -*----------------------------------*\
  =========                 |
  \\      /  F ield         | OpenFOAM: The Open Source CFD Toolbox
   \\    /   O peration     | Website:  https://openfoam.org
    \\  /    A nd           | Version:  10
     \\/     M anipulation  |
\*---------------------------------------------------------------------------*/
FoamFile
{
    format      ascii;
    class       volScalarField;
    location    "30";
    object      pPrime2Mean;
}
// * * * * * * * * * * * * * * * * * * * * * * * * * * * * * * * * * * * * * //

dimensions      [0 4 -4 0 0 0 0];

internalField   nonuniform List<scalar> 
102400
(
7.31145e-08
8.33077e-08
6.02341e-08
8.88068e-08
5.8942e-08
6.30046e-08
1.23452e-07
8.48646e-08
7.67893e-08
8.51203e-08
8.78148e-08
7.03978e-08
5.79111e-08
5.6694e-08
8.13971e-08
8.03936e-08
1.17691e-07
8.39737e-08
9.9268e-08
8.91687e-08
1.03395e-07
1.21163e-07
1.19349e-07
1.23476e-07
7.88564e-08
8.14619e-08
2.07176e-07
8.05661e-08
7.80337e-08
7.99229e-08
7.7887e-08
7.23711e-08
6.2695e-08
6.87269e-08
6.30206e-08
6.9299e-08
7.73454e-08
7.15188e-08
1.33326e-07
7.14976e-08
7.40645e-08
8.42603e-08
6.09519e-08
9.04576e-08
5.97715e-08
6.36882e-08
1.24345e-07
8.5417e-08
7.85687e-08
8.5967e-08
8.89999e-08
7.10229e-08
5.88251e-08
5.7325e-08
8.28658e-08
8.14037e-08
1.19773e-07
8.49025e-08
1.00043e-07
9.0111e-08
1.04787e-07
1.2203e-07
1.1995e-07
1.25626e-07
8.00369e-08
8.22101e-08
2.11121e-07
8.08755e-08
7.91019e-08
8.06445e-08
7.87235e-08
7.31669e-08
6.34695e-08
6.97864e-08
6.38093e-08
7.03521e-08
7.83208e-08
7.23579e-08
1.34744e-07
7.22648e-08
7.59984e-08
8.69924e-08
6.23556e-08
9.30146e-08
6.07758e-08
6.51579e-08
1.26954e-07
8.65565e-08
8.37798e-08
8.81544e-08
9.00554e-08
7.21297e-08
6.05498e-08
5.89107e-08
8.619e-08
8.26224e-08
1.23231e-07
8.60946e-08
1.01777e-07
9.16747e-08
1.0768e-07
1.25071e-07
1.20236e-07
1.28732e-07
8.08437e-08
8.40454e-08
2.20484e-07
8.11905e-08
8.12134e-08
8.1721e-08
8.00921e-08
7.58551e-08
6.51629e-08
7.22423e-08
6.52839e-08
7.21038e-08
8.04463e-08
7.41607e-08
1.34752e-07
7.39836e-08
7.82043e-08
9.33034e-08
6.41229e-08
9.53997e-08
6.20117e-08
6.67795e-08
1.30095e-07
8.73137e-08
8.96357e-08
9.04806e-08
9.16169e-08
7.33404e-08
6.37681e-08
6.07776e-08
8.96028e-08
8.26531e-08
1.28846e-07
8.66812e-08
1.02732e-07
9.26532e-08
1.09192e-07
1.28266e-07
1.18776e-07
1.32486e-07
8.28943e-08
8.48141e-08
2.40821e-07
8.20656e-08
8.30084e-08
8.25942e-08
8.10357e-08
8.30185e-08
6.67355e-08
7.75566e-08
6.68544e-08
7.20417e-08
8.01586e-08
7.5075e-08
1.22887e-07
7.56397e-08
7.89496e-08
9.83804e-08
6.39075e-08
9.29952e-08
6.22005e-08
6.65522e-08
1.27564e-07
8.75175e-08
9.0279e-08
9.23619e-08
9.10424e-08
6.98727e-08
6.75694e-08
6.26201e-08
9.31355e-08
8.16219e-08
1.21568e-07
8.49721e-08
1.00815e-07
9.20496e-08
1.12687e-07
1.33016e-07
1.11218e-07
1.39947e-07
8.07728e-08
8.44172e-08
2.60234e-07
8.25752e-08
8.61463e-08
8.23758e-08
7.92805e-08
9.11948e-08
6.79434e-08
8.16009e-08
6.9081e-08
7.11657e-08
7.54533e-08
7.52109e-08
1.0579e-07
7.52422e-08
7.40243e-08
9.13324e-08
6.15821e-08
8.71335e-08
5.98382e-08
6.54615e-08
1.20292e-07
8.307e-08
8.06906e-08
8.60302e-08
8.29079e-08
6.39487e-08
6.84939e-08
6.08622e-08
9.01924e-08
7.67178e-08
1.05244e-07
7.96714e-08
9.38422e-08
8.65981e-08
1.1227e-07
1.5162e-07
1.01237e-07
1.43567e-07
7.46539e-08
8.13585e-08
2.41343e-07
7.96603e-08
7.87664e-08
7.75508e-08
7.29739e-08
1.05862e-07
6.57049e-08
8.39752e-08
6.55368e-08
6.68147e-08
7.24415e-08
7.25033e-08
8.66646e-08
7.33663e-08
6.39682e-08
7.41535e-08
5.38854e-08
7.49057e-08
5.33967e-08
5.71649e-08
9.92572e-08
7.29717e-08
7.04819e-08
7.25284e-08
6.99502e-08
5.52281e-08
6.09411e-08
5.35902e-08
7.77391e-08
6.6175e-08
8.11186e-08
6.85407e-08
8.40455e-08
7.64938e-08
1.02624e-07
1.50159e-07
8.98281e-08
1.22019e-07
6.52798e-08
7.255e-08
2.06349e-07
6.92853e-08
6.94205e-08
6.65251e-08
6.11674e-08
1.14912e-07
5.84495e-08
7.8387e-08
5.69309e-08
5.77152e-08
6.36436e-08
6.26645e-08
6.95191e-08
6.79501e-08
5.17102e-08
6.26526e-08
4.35126e-08
5.91114e-08
4.63512e-08
5.01162e-08
8.28666e-08
5.96904e-08
5.53259e-08
5.87147e-08
5.2979e-08
4.41946e-08
4.7502e-08
4.23727e-08
6.06309e-08
5.33424e-08
6.27935e-08
5.38309e-08
6.92816e-08
5.91949e-08
8.79396e-08
1.1427e-07
7.6962e-08
9.09721e-08
5.30625e-08
5.83041e-08
1.54633e-07
5.67901e-08
5.43131e-08
5.41768e-08
5.08169e-08
1.17864e-07
4.87192e-08
6.35332e-08
4.56972e-08
4.55473e-08
5.30906e-08
5.0692e-08
5.49054e-08
6.06095e-08
3.77554e-08
4.64657e-08
3.26078e-08
3.82447e-08
3.61419e-08
3.73015e-08
6.61736e-08
4.49509e-08
4.033e-08
4.6921e-08
4.06608e-08
3.2472e-08
3.38966e-08
3.15236e-08
4.11233e-08
3.95842e-08
4.60628e-08
3.89137e-08
5.08895e-08
4.14855e-08
7.03526e-08
8.31441e-08
6.1236e-08
6.29209e-08
3.96094e-08
4.21539e-08
9.87315e-08
4.32644e-08
4.09749e-08
4.0952e-08
4.22994e-08
9.43678e-08
3.81521e-08
4.28724e-08
3.48445e-08
3.48865e-08
4.11433e-08
3.82774e-08
4.10359e-08
4.53411e-08
2.58924e-08
3.37532e-08
2.39762e-08
2.59559e-08
2.59348e-08
2.75063e-08
4.69451e-08
3.20051e-08
2.69522e-08
3.33437e-08
3.01595e-08
2.25765e-08
2.37143e-08
2.12518e-08
2.65047e-08
2.75228e-08
3.00354e-08
2.67385e-08
3.2825e-08
2.77032e-08
5.34458e-08
6.31337e-08
4.61984e-08
4.44517e-08
2.70553e-08
2.82925e-08
6.27229e-08
3.09948e-08
2.89863e-08
2.92438e-08
3.26734e-08
6.27772e-08
2.82116e-08
2.78359e-08
2.41621e-08
2.35339e-08
2.84981e-08
2.67378e-08
2.78821e-08
2.97441e-08
1.75242e-08
2.1862e-08
1.63794e-08
1.72674e-08
1.76233e-08
1.78679e-08
3.28025e-08
2.19467e-08
1.77968e-08
2.354e-08
2.19632e-08
1.57375e-08
1.62926e-08
1.41765e-08
1.6905e-08
1.91835e-08
1.97909e-08
1.82664e-08
2.11499e-08
1.87513e-08
3.62659e-08
4.56046e-08
3.37991e-08
3.16108e-08
1.81912e-08
1.90203e-08
3.90256e-08
2.16952e-08
1.84252e-08
2.01176e-08
2.42505e-08
4.47564e-08
2.10756e-08
1.71955e-08
1.61318e-08
1.59669e-08
1.85891e-08
1.80903e-08
1.877e-08
1.93439e-08
1.127e-08
1.334e-08
1.10928e-08
1.16662e-08
1.17737e-08
1.14074e-08
2.20473e-08
1.45339e-08
1.15105e-08
1.6648e-08
1.56237e-08
1.05254e-08
1.08848e-08
9.50553e-09
1.08583e-08
1.2989e-08
1.2841e-08
1.20723e-08
1.34928e-08
1.22889e-08
2.36261e-08
3.09366e-08
2.44455e-08
2.12241e-08
1.18716e-08
1.2246e-08
2.42963e-08
1.51404e-08
1.17826e-08
1.40563e-08
1.81999e-08
3.02967e-08
1.60031e-08
1.07092e-08
1.0454e-08
1.0204e-08
1.18228e-08
1.17726e-08
1.22686e-08
1.21885e-08
7.10468e-09
7.98253e-09
7.24836e-09
7.36973e-09
7.54285e-09
7.16409e-09
1.40364e-08
9.14942e-09
7.2392e-09
1.15785e-08
1.06132e-08
6.76277e-09
7.13582e-09
6.27696e-09
7.01091e-09
8.78081e-09
8.65473e-09
7.94211e-09
8.58825e-09
8.12112e-09
1.53853e-08
2.07369e-08
1.73818e-08
1.40252e-08
7.60814e-09
7.87249e-09
1.53202e-08
1.0635e-08
7.50335e-09
9.86661e-09
1.34482e-08
2.10489e-08
1.21683e-08
6.72144e-09
6.64404e-09
6.49332e-09
7.40934e-09
7.48195e-09
7.81858e-09
7.55073e-09
4.50153e-09
4.80964e-09
4.8091e-09
4.8221e-09
4.90573e-09
4.60103e-09
8.68893e-09
5.76659e-09
4.77417e-09
8.08227e-09
7.16816e-09
4.37045e-09
4.71989e-09
4.35178e-09
4.77705e-09
6.08402e-09
6.02809e-09
5.396e-09
5.66181e-09
5.61787e-09
1.02955e-08
1.387e-08
1.22959e-08
9.46644e-09
4.99658e-09
5.20218e-09
1.00104e-08
7.65936e-09
5.0675e-09
7.26231e-09
1.02611e-08
1.51016e-08
9.55414e-09
4.61646e-09
4.27379e-09
4.09051e-09
4.58982e-09
4.75542e-09
4.94184e-09
4.7167e-09
2.93536e-09
3.00087e-09
3.25207e-09
3.1928e-09
3.24113e-09
3.01491e-09
5.29705e-09
3.62197e-09
3.26848e-09
5.64343e-09
4.87273e-09
2.86795e-09
3.20618e-09
3.17213e-09
3.46104e-09
4.40326e-09
4.41554e-09
3.90934e-09
3.97205e-09
4.17504e-09
7.14186e-09
9.40626e-09
8.75643e-09
6.60669e-09
3.53141e-09
3.65754e-09
6.82954e-09
5.69778e-09
3.74109e-09
5.57843e-09
8.01389e-09
1.11641e-08
7.71533e-09
3.5881e-09
2.90266e-09
2.67996e-09
2.93678e-09
3.11279e-09
3.21648e-09
3.0676e-09
1.94939e-09
1.94531e-09
2.25171e-09
2.17271e-09
2.18921e-09
2.01759e-09
3.17831e-09
2.27361e-09
2.30549e-09
3.90907e-09
3.29075e-09
1.88285e-09
2.21839e-09
2.38883e-09
2.60071e-09
3.28703e-09
3.35622e-09
2.97119e-09
2.97214e-09
3.29766e-09
5.12696e-09
6.48034e-09
6.24486e-09
4.7042e-09
2.63115e-09
2.71572e-09
4.82316e-09
4.33997e-09
2.98511e-09
4.42356e-09
6.36692e-09
8.47716e-09
6.32825e-09
3.03345e-09
2.06392e-09
1.78455e-09
1.89662e-09
2.04558e-09
2.105e-09
2.03004e-09
1.29965e-09
1.29865e-09
1.57785e-09
1.49079e-09
1.47333e-09
1.3432e-09
1.85613e-09
1.41628e-09
1.63537e-09
2.64586e-09
2.18133e-09
1.21503e-09
1.53309e-09
1.81181e-09
1.99453e-09
2.49949e-09
2.59541e-09
2.34058e-09
2.34797e-09
2.69243e-09
3.76991e-09
4.52736e-09
4.47809e-09
3.40267e-09
2.04263e-09
2.10403e-09
3.50273e-09
3.36958e-09
2.49936e-09
3.574e-09
5.10113e-09
6.54382e-09
5.18939e-09
2.64169e-09
1.53196e-09
1.20492e-09
1.2289e-09
1.34397e-09
1.37821e-09
1.35357e-09
8.55732e-10
8.68198e-10
1.11159e-09
1.02537e-09
9.82509e-10
8.83351e-10
1.05359e-09
8.8255e-10
1.15091e-09
1.74046e-09
1.41355e-09
7.68369e-10
1.06062e-09
1.38108e-09
1.54366e-09
1.92094e-09
2.03128e-09
1.89e-09
1.92033e-09
2.23459e-09
2.82812e-09
3.21697e-09
3.22803e-09
2.49584e-09
1.63736e-09
1.68799e-09
2.60106e-09
2.65222e-09
2.13875e-09
2.9278e-09
4.11095e-09
5.10057e-09
4.23871e-09
2.30919e-09
1.18916e-09
8.21543e-10
7.88748e-10
8.70763e-10
8.84417e-10
8.98883e-10
5.63979e-10
5.76147e-10
7.95273e-10
7.1358e-10
6.53885e-10
5.81727e-10
5.84529e-10
5.63746e-10
8.05271e-10
1.11323e-09
8.95413e-10
4.8205e-10
7.35394e-10
1.05037e-09
1.19719e-09
1.48887e-09
1.60912e-09
1.55893e-09
1.61419e-09
1.87218e-09
2.1696e-09
2.34019e-09
2.35983e-09
1.87544e-09
1.36033e-09
1.40795e-09
1.99336e-09
2.12273e-09
1.85798e-09
2.42893e-09
3.33432e-09
4.0027e-09
3.44628e-09
2.00633e-09
9.69551e-10
5.7504e-10
4.99568e-10
5.60838e-10
5.58375e-10
5.99757e-10
3.80506e-10
3.73146e-10
5.76657e-10
5.01443e-10
4.35977e-10
3.93323e-10
3.23502e-10
3.7761e-10
5.61356e-10
6.90999e-10
5.5979e-10
3.10778e-10
5.19252e-10
8.09154e-10
9.36564e-10
1.16347e-09
1.29184e-09
1.30256e-09
1.37877e-09
1.57764e-09
1.70297e-09
1.75491e-09
1.76359e-09
1.45085e-09
1.15907e-09
1.20591e-09
1.57683e-09
1.72452e-09
1.62504e-09
2.03981e-09
2.72143e-09
3.16274e-09
2.79179e-09
1.72555e-09
8.31996e-10
4.30766e-10
3.19614e-10
3.67912e-10
3.50716e-10
4.07523e-10
2.69778e-10
2.32086e-10
4.27536e-10
3.6007e-10
2.9627e-10
2.84324e-10
1.86582e-10
2.70474e-10
3.93851e-10
4.20383e-10
3.5464e-10
2.15683e-10
3.76966e-10
6.34465e-10
7.43639e-10
9.15922e-10
1.05043e-09
1.1018e-09
1.1867e-09
1.33506e-09
1.36506e-09
1.36134e-09
1.35819e-09
1.16222e-09
1.01233e-09
1.05424e-09
1.28757e-09
1.42003e-09
1.42499e-09
1.73054e-09
2.23344e-09
2.51849e-09
2.2579e-09
1.47211e-09
7.41135e-10
3.52292e-10
2.13053e-10
2.53284e-10
2.19576e-10
2.86346e-10
2.07304e-10
1.37126e-10
3.25886e-10
2.63103e-10
2.09526e-10
2.24648e-10
1.17919e-10
2.12081e-10
2.82043e-10
2.55323e-10
2.37879e-10
1.68948e-10
2.86788e-10
5.10495e-10
6.06142e-10
7.29973e-10
8.65571e-10
9.39627e-10
1.02204e-09
1.13089e-09
1.11678e-09
1.09276e-09
1.08169e-09
9.62998e-10
8.95965e-10
9.34134e-10
1.08065e-09
1.18748e-09
1.24921e-09
1.47776e-09
1.84008e-09
2.02271e-09
1.82884e-09
1.25083e-09
6.78278e-10
3.16522e-10
1.58598e-10
1.95188e-10
1.41882e-10
2.11958e-10
1.72897e-10
7.26997e-11
2.56643e-10
1.93434e-10
1.54176e-10
1.9297e-10
8.20033e-11
1.80949e-10
2.10981e-10
1.59929e-10
1.77869e-10
1.51209e-10
2.31886e-10
4.19209e-10
5.08565e-10
5.90321e-10
7.20066e-10
8.03452e-10
8.78106e-10
9.59012e-10
9.29222e-10
9.0278e-10
8.90095e-10
8.17871e-10
7.99358e-10
8.32915e-10
9.27892e-10
1.0126e-09
1.09348e-09
1.2659e-09
1.52063e-09
1.63878e-09
1.48808e-09
1.05957e-09
6.27668e-10
3.06302e-10
1.358e-10
1.71482e-10
9.75965e-11
1.64471e-10
1.56147e-10
3.14338e-11
2.09953e-10
1.45315e-10
1.15815e-10
1.77574e-10
6.18475e-11
1.60428e-10
1.6782e-10
1.08344e-10
1.50285e-10
1.48517e-10
2.00377e-10
3.50347e-10
4.39084e-10
4.8641e-10
6.02003e-10
6.85857e-10
7.4965e-10
8.13578e-10
7.81951e-10
7.59993e-10
7.5251e-10
7.0426e-10
7.1557e-10
7.46492e-10
8.0767e-10
8.78386e-10
9.56549e-10
1.08643e-09
1.26028e-09
1.33743e-09
1.22043e-09
8.97994e-10
5.82752e-10
3.10153e-10
1.32215e-10
1.67579e-10
7.63137e-11
1.33366e-10
1.47118e-10
7.89082e-12
1.76821e-10
1.15208e-10
8.57182e-11
1.66309e-10
4.8262e-11
1.43153e-10
1.43882e-10
8.41927e-11
1.37747e-10
1.49962e-10
1.83691e-10
2.96894e-10
3.87348e-10
4.09453e-10
5.04288e-10
5.83669e-10
6.34543e-10
6.89204e-10
6.60353e-10
6.46634e-10
6.48263e-10
6.10357e-10
6.38392e-10
6.69298e-10
7.08222e-10
7.7047e-10
8.37816e-10
9.32383e-10
1.04603e-09
1.0978e-09
1.01118e-09
7.64721e-10
5.38147e-10
3.18116e-10
1.38863e-10
1.71854e-10
7.17211e-11
1.1095e-10
1.42779e-10
4.37271e-16
1.50638e-10
1.00222e-10
6.30392e-11
1.54769e-10
4.14974e-11
1.25889e-10
1.31179e-10
7.77044e-11
1.31751e-10
1.51872e-10
1.77523e-10
2.54334e-10
3.45565e-10
3.52741e-10
4.2231e-10
4.95083e-10
5.32543e-10
5.8215e-10
5.56359e-10
5.52625e-10
5.63078e-10
5.2943e-10
5.66076e-10
5.98853e-10
6.22638e-10
6.77785e-10
7.34485e-10
8.01896e-10
8.69551e-10
9.04849e-10
8.46025e-10
6.55252e-10
4.94106e-10
3.2536e-10
1.51233e-10
1.78615e-10
8.02342e-11
9.67495e-11
1.40092e-10
8.18113e-12
1.27955e-10
9.65821e-11
5.23372e-11
1.42726e-10
4.43572e-11
1.1032e-10
1.24968e-10
8.15499e-11
1.27973e-10
1.52104e-10
1.76979e-10
2.20906e-10
3.08485e-10
3.10649e-10
3.5349e-10
4.19589e-10
4.4415e-10
4.89258e-10
4.66265e-10
4.71707e-10
4.90588e-10
4.59076e-10
4.9996e-10
5.34979e-10
5.47549e-10
5.97413e-10
6.44585e-10
6.93228e-10
7.27425e-10
7.48962e-10
7.15011e-10
5.65988e-10
4.53189e-10
3.30063e-10
1.68549e-10
1.85102e-10
9.86251e-11
9.14593e-11
1.38158e-10
3.36876e-11
1.10698e-10
1.00203e-10
5.71229e-11
1.33754e-10
6.04465e-11
9.99045e-11
1.22531e-10
9.1009e-11
1.243e-10
1.51876e-10
1.76837e-10
1.95831e-10
2.72041e-10
2.77564e-10
2.9716e-10
3.53239e-10
3.70628e-10
4.09252e-10
3.88646e-10
4.01573e-10
4.28315e-10
3.99067e-10
4.42463e-10
4.79815e-10
4.85236e-10
5.30674e-10
5.68451e-10
6.05225e-10
6.18383e-10
6.26503e-10
6.11911e-10
4.93983e-10
4.15571e-10
3.31496e-10
1.91682e-10
1.91857e-10
1.24831e-10
9.77533e-11
1.37808e-10
7.7015e-11
1.04767e-10
1.08379e-10
7.65095e-11
1.29134e-10
8.83806e-11
1.01017e-10
1.24735e-10
1.04379e-10
1.2183e-10
1.51098e-10
1.74957e-10
1.77806e-10
2.34322e-10
2.47055e-10
2.52522e-10
2.91321e-10
3.11202e-10
3.44039e-10
3.24108e-10
3.44428e-10
3.75132e-10
3.48753e-10
3.95391e-10
4.37149e-10
4.38125e-10
4.79481e-10
5.10212e-10
5.39077e-10
5.40662e-10
5.36042e-10
5.32575e-10
4.41212e-10
3.83214e-10
3.29907e-10
2.20002e-10
1.99581e-10
1.57995e-10
1.17035e-10
1.41681e-10
1.33155e-10
1.15586e-10
1.2378e-10
1.09514e-10
1.29034e-10
1.16813e-10
1.13274e-10
1.31633e-10
1.1877e-10
1.24035e-10
1.45989e-10
1.67736e-10
1.63909e-10
1.94099e-10
2.15299e-10
2.19511e-10
2.34582e-10
2.614e-10
2.93707e-10
2.72697e-10
3.02546e-10
3.34859e-10
3.09974e-10
3.56277e-10
4.01834e-10
4.06292e-10
4.45122e-10
4.68085e-10
4.95259e-10
4.94641e-10
4.78742e-10
4.75958e-10
4.07455e-10
3.59916e-10
3.26359e-10
2.5425e-10
2.08761e-10
1.94869e-10
1.52037e-10
1.57404e-10
1.9096e-10
1.44058e-10
1.47731e-10
1.54498e-10
1.42887e-10
1.39928e-10
1.31529e-10
1.41771e-10
1.29454e-10
1.33344e-10
1.37769e-10
1.54774e-10
1.54178e-10
1.56474e-10
1.84213e-10
1.97123e-10
1.89913e-10
2.19692e-10
2.56589e-10
2.35504e-10
2.71741e-10
3.04463e-10
2.85287e-10
3.25893e-10
3.65132e-10
3.78706e-10
4.19243e-10
4.27486e-10
4.58802e-10
4.67197e-10
4.43024e-10
4.39768e-10
3.88036e-10
3.45812e-10
3.19856e-10
2.85223e-10
2.22664e-10
2.23281e-10
1.94047e-10
1.86799e-10
2.36096e-10
1.81867e-10
1.78625e-10
1.9763e-10
1.71663e-10
1.61802e-10
1.54866e-10
1.53219e-10
1.34489e-10
1.45524e-10
1.29174e-10
1.38937e-10
1.4534e-10
1.26598e-10
1.55249e-10
1.71408e-10
1.55781e-10
1.77633e-10
2.16377e-10
2.0576e-10
2.34072e-10
2.65456e-10
2.62029e-10
2.98379e-10
3.19424e-10
3.4568e-10
3.91386e-10
3.77166e-10
4.13687e-10
4.37299e-10
4.05948e-10
4.10766e-10
3.74677e-10
3.34233e-10
3.13566e-10
2.95278e-10
2.37313e-10
2.38262e-10
2.20068e-10
1.12167e-07
9.58901e-08
8.56467e-08
8.72856e-08
8.91712e-08
8.42112e-08
1.35487e-07
1.14757e-07
1.0261e-07
1.11594e-07
1.02865e-07
1.00467e-07
1.0018e-07
9.27602e-08
8.97491e-08
9.10642e-08
1.30346e-07
9.8367e-08
1.17827e-07
1.15096e-07
1.05397e-07
2.42881e-07
1.3556e-07
1.66772e-07
1.02913e-07
1.00132e-07
1.12923e-07
1.02892e-07
9.50719e-08
1.00849e-07
9.45611e-08
1.16197e-07
9.36563e-08
9.18153e-08
9.38984e-08
8.44603e-08
8.82207e-08
8.87706e-08
1.19174e-07
9.53878e-08
1.13811e-07
9.69014e-08
8.68319e-08
8.88577e-08
9.08755e-08
8.52508e-08
1.35832e-07
1.16181e-07
1.03813e-07
1.12917e-07
1.03495e-07
1.01913e-07
1.01151e-07
9.37215e-08
9.08e-08
9.22737e-08
1.32009e-07
9.94315e-08
1.20492e-07
1.15966e-07
1.06079e-07
2.46261e-07
1.36501e-07
1.68245e-07
1.04218e-07
1.01212e-07
1.13563e-07
1.04064e-07
9.59267e-08
1.02621e-07
9.54485e-08
1.17449e-07
9.48664e-08
9.31291e-08
9.52792e-08
8.56865e-08
8.96249e-08
8.95397e-08
1.21541e-07
9.65069e-08
1.16911e-07
9.90624e-08
8.90322e-08
9.20951e-08
9.43276e-08
8.75983e-08
1.36266e-07
1.19082e-07
1.05837e-07
1.15812e-07
1.04374e-07
1.04878e-07
1.03434e-07
9.57321e-08
9.28508e-08
9.44302e-08
1.33206e-07
1.01854e-07
1.24705e-07
1.17314e-07
1.07903e-07
2.48956e-07
1.37689e-07
1.6663e-07
1.06037e-07
1.0344e-07
1.13743e-07
1.06482e-07
9.79308e-08
1.07278e-07
9.74702e-08
1.18049e-07
9.68496e-08
9.50021e-08
9.70508e-08
8.70835e-08
9.15508e-08
9.05672e-08
1.27916e-07
9.84785e-08
1.19447e-07
1.00451e-07
9.10793e-08
9.62714e-08
9.71328e-08
8.86388e-08
1.31185e-07
1.21312e-07
1.07934e-07
1.19412e-07
1.03588e-07
1.08573e-07
1.05268e-07
9.76775e-08
9.36669e-08
9.66353e-08
1.3345e-07
1.03131e-07
1.31797e-07
1.16854e-07
1.08789e-07
2.5092e-07
1.37064e-07
1.5938e-07
1.08383e-07
1.05859e-07
1.11615e-07
1.08877e-07
9.97785e-08
1.10245e-07
9.95259e-08
1.16379e-07
9.8768e-08
9.68079e-08
9.63889e-08
8.69586e-08
9.17466e-08
9.10838e-08
1.35525e-07
1.00324e-07
1.16114e-07
1.00843e-07
9.17719e-08
9.95059e-08
9.91552e-08
9.13263e-08
1.21585e-07
1.21438e-07
1.08497e-07
1.21635e-07
1.01269e-07
1.15246e-07
1.05925e-07
9.94758e-08
9.53888e-08
9.90113e-08
1.29411e-07
1.03716e-07
1.46301e-07
1.12706e-07
1.15215e-07
2.32472e-07
1.35447e-07
1.34339e-07
1.08352e-07
1.03127e-07
1.08961e-07
1.09705e-07
1.00312e-07
1.09587e-07
1.00192e-07
1.09905e-07
9.96228e-08
9.77225e-08
9.34087e-08
8.57054e-08
9.08979e-08
9.10259e-08
1.40598e-07
1.00423e-07
1.06088e-07
9.81047e-08
8.71496e-08
9.3286e-08
9.6173e-08
8.49159e-08
1.09394e-07
1.15714e-07
1.05926e-07
1.1855e-07
9.65477e-08
1.14675e-07
1.01604e-07
9.64461e-08
9.16387e-08
9.59129e-08
1.16963e-07
9.79267e-08
1.53486e-07
1.05943e-07
1.12239e-07
2.17331e-07
1.32083e-07
1.18457e-07
1.03249e-07
9.999e-08
1.02012e-07
1.03772e-07
9.42331e-08
9.95603e-08
9.88981e-08
1.02061e-07
9.48356e-08
9.32884e-08
8.68596e-08
8.606e-08
8.86115e-08
8.70505e-08
1.47837e-07
9.65632e-08
8.9022e-08
8.90663e-08
7.75283e-08
8.16017e-08
8.55624e-08
7.90124e-08
1.00184e-07
1.02447e-07
9.56296e-08
1.09256e-07
8.28645e-08
1.14107e-07
8.85275e-08
8.47872e-08
8.05418e-08
8.69736e-08
1.04904e-07
8.92586e-08
1.4519e-07
9.42749e-08
1.08804e-07
1.91876e-07
1.18449e-07
1.0994e-07
9.12553e-08
8.65079e-08
8.56613e-08
8.87936e-08
8.42246e-08
8.55937e-08
9.57515e-08
8.94096e-08
8.31401e-08
8.30802e-08
7.6041e-08
7.53147e-08
7.72465e-08
7.62798e-08
1.37283e-07
8.53149e-08
7.07087e-08
7.05579e-08
6.30245e-08
6.80707e-08
6.78141e-08
6.03754e-08
8.91422e-08
8.35678e-08
7.85901e-08
9.35479e-08
6.68491e-08
8.88087e-08
7.202e-08
7.02445e-08
6.56987e-08
7.09589e-08
8.81862e-08
7.43822e-08
1.198e-07
7.6896e-08
8.95887e-08
1.4792e-07
9.55197e-08
1.02391e-07
7.40271e-08
7.06766e-08
7.12719e-08
6.98143e-08
6.65501e-08
6.85575e-08
8.28738e-08
7.15522e-08
6.70617e-08
6.64634e-08
6.18577e-08
6.1628e-08
6.3203e-08
6.28327e-08
1.06292e-07
7.00387e-08
5.33688e-08
5.28e-08
4.78162e-08
5.27355e-08
4.9726e-08
4.85258e-08
6.9921e-08
6.36318e-08
5.97575e-08
7.33512e-08
5.06569e-08
6.20697e-08
5.48048e-08
5.47099e-08
4.92781e-08
5.43502e-08
6.38507e-08
5.65276e-08
8.342e-08
5.77787e-08
6.77687e-08
1.12253e-07
7.35949e-08
8.30849e-08
5.59393e-08
5.40465e-08
5.38924e-08
5.27312e-08
5.05344e-08
5.17378e-08
6.44804e-08
5.28491e-08
5.1063e-08
5.07493e-08
4.74634e-08
4.6106e-08
4.77004e-08
4.72242e-08
8.15133e-08
5.24448e-08
3.933e-08
3.72128e-08
3.37235e-08
3.68521e-08
3.48037e-08
3.32873e-08
5.23014e-08
4.5015e-08
4.15951e-08
5.33242e-08
3.78268e-08
4.26952e-08
4.019e-08
3.899e-08
3.57004e-08
3.84112e-08
4.14335e-08
3.9467e-08
5.21252e-08
4.06077e-08
4.84319e-08
7.60888e-08
5.66643e-08
5.85587e-08
3.98749e-08
3.84352e-08
3.95624e-08
3.80028e-08
3.60703e-08
3.65726e-08
4.57952e-08
3.65329e-08
3.65281e-08
3.5485e-08
3.34925e-08
3.22834e-08
3.40817e-08
3.37992e-08
5.44772e-08
3.7374e-08
2.73734e-08
2.52865e-08
2.25578e-08
2.32894e-08
2.33996e-08
2.33049e-08
3.69819e-08
3.07436e-08
2.7307e-08
3.64899e-08
2.73737e-08
2.75936e-08
2.73936e-08
2.57018e-08
2.4674e-08
2.62406e-08
2.70628e-08
2.6297e-08
3.10638e-08
2.78838e-08
3.46776e-08
5.10164e-08
4.20306e-08
3.79825e-08
2.71135e-08
2.67935e-08
2.80142e-08
2.69611e-08
2.4003e-08
2.54067e-08
3.09187e-08
2.46308e-08
2.54123e-08
2.38136e-08
2.27311e-08
2.17523e-08
2.31772e-08
2.32548e-08
3.42237e-08
2.50757e-08
1.82205e-08
1.6537e-08
1.47378e-08
1.5064e-08
1.50472e-08
1.50725e-08
2.42148e-08
2.00444e-08
1.75417e-08
2.37313e-08
1.85158e-08
1.74549e-08
1.83264e-08
1.67709e-08
1.66449e-08
1.76712e-08
1.73885e-08
1.6826e-08
1.84601e-08
1.91886e-08
2.46525e-08
3.47871e-08
2.99261e-08
2.47737e-08
1.77341e-08
1.80384e-08
1.96401e-08
1.8555e-08
1.53381e-08
1.71136e-08
2.05888e-08
1.67557e-08
1.7602e-08
1.56105e-08
1.49601e-08
1.42232e-08
1.5426e-08
1.54942e-08
2.10533e-08
1.63984e-08
1.1819e-08
1.08024e-08
9.4482e-09
8.95496e-09
9.51708e-09
9.82024e-09
1.55228e-08
1.28972e-08
1.12335e-08
1.56472e-08
1.25064e-08
1.10348e-08
1.2057e-08
1.07878e-08
1.10321e-08
1.17711e-08
1.11962e-08
1.07426e-08
1.16041e-08
1.35942e-08
1.78915e-08
2.33514e-08
2.07851e-08
1.61169e-08
1.1476e-08
1.21486e-08
1.41142e-08
1.29932e-08
9.99597e-09
1.14819e-08
1.38724e-08
1.17979e-08
1.24408e-08
1.01907e-08
9.7431e-09
9.24959e-09
1.00795e-08
1.01653e-08
1.27645e-08
1.05474e-08
7.7368e-09
7.20167e-09
6.25188e-09
5.61455e-09
6.05134e-09
6.38182e-09
9.7677e-09
8.13125e-09
7.31423e-09
1.03039e-08
8.24795e-09
6.95193e-09
7.91033e-09
7.10419e-09
7.50871e-09
8.07054e-09
7.59012e-09
7.03861e-09
7.76091e-09
9.81557e-09
1.30155e-08
1.59822e-08
1.44655e-08
1.05602e-08
7.42878e-09
8.31098e-09
1.01589e-08
9.12561e-09
6.58295e-09
7.79188e-09
9.70744e-09
8.73052e-09
9.14284e-09
6.78748e-09
6.38557e-09
6.00943e-09
6.60836e-09
6.68511e-09
7.73479e-09
6.79623e-09
5.0848e-09
4.83775e-09
4.16235e-09
3.46715e-09
3.83163e-09
4.14018e-09
6.0563e-09
5.11522e-09
4.8626e-09
6.85797e-09
5.46196e-09
4.44209e-09
5.18011e-09
4.75564e-09
5.14661e-09
5.64239e-09
5.36751e-09
4.80764e-09
5.52485e-09
7.3196e-09
9.53758e-09
1.10644e-08
1.00591e-08
7.00381e-09
4.87871e-09
5.78576e-09
7.365e-09
6.56808e-09
4.58879e-09
5.51439e-09
7.07205e-09
6.8031e-09
6.93816e-09
4.70496e-09
4.23535e-09
3.99641e-09
4.35227e-09
4.39938e-09
4.72967e-09
4.37892e-09
3.33127e-09
3.26797e-09
2.82177e-09
2.19178e-09
2.43628e-09
2.67239e-09
3.68527e-09
3.18444e-09
3.2449e-09
4.50537e-09
3.53613e-09
2.79471e-09
3.37434e-09
3.22695e-09
3.57189e-09
4.07623e-09
3.99033e-09
3.48519e-09
4.11442e-09
5.55941e-09
7.00682e-09
7.71405e-09
7.03101e-09
4.75561e-09
3.32025e-09
4.12986e-09
5.37006e-09
4.78521e-09
3.29828e-09
3.99247e-09
5.30136e-09
5.45707e-09
5.41824e-09
3.39155e-09
2.7984e-09
2.61644e-09
2.815e-09
2.85213e-09
2.87579e-09
2.80279e-09
2.19987e-09
2.20433e-09
1.92078e-09
1.3946e-09
1.54372e-09
1.71263e-09
2.20127e-09
1.96342e-09
2.14805e-09
2.91457e-09
2.2536e-09
1.75051e-09
2.19985e-09
2.22063e-09
2.52665e-09
2.98751e-09
3.03951e-09
2.65517e-09
3.16137e-09
4.27086e-09
5.18693e-09
5.45321e-09
4.95529e-09
3.29816e-09
2.3498e-09
3.00242e-09
3.94499e-09
3.56082e-09
2.50389e-09
3.01012e-09
4.12463e-09
4.47047e-09
4.32133e-09
2.56785e-09
1.86494e-09
1.70665e-09
1.798e-09
1.83808e-09
1.75605e-09
1.80974e-09
1.45023e-09
1.47462e-09
1.31881e-09
9.0152e-10
9.77173e-10
1.09431e-09
1.30482e-09
1.21374e-09
1.41469e-09
1.83858e-09
1.4153e-09
1.09187e-09
1.43429e-09
1.55331e-09
1.82177e-09
2.23621e-09
2.38717e-09
2.126e-09
2.50323e-09
3.31981e-09
3.86784e-09
3.91041e-09
3.54343e-09
2.36945e-09
1.76725e-09
2.26155e-09
2.94331e-09
2.70872e-09
1.98626e-09
2.35339e-09
3.29003e-09
3.67954e-09
3.48724e-09
2.02517e-09
1.27009e-09
1.10079e-09
1.12209e-09
1.15961e-09
1.05205e-09
1.16696e-09
9.61555e-10
9.76864e-10
9.20358e-10
5.95664e-10
6.25584e-10
7.08199e-10
7.72378e-10
7.61943e-10
9.2039e-10
1.12597e-09
8.76498e-10
6.86282e-10
9.48618e-10
1.1132e-09
1.34729e-09
1.70183e-09
1.90136e-09
1.7521e-09
2.03579e-09
2.60925e-09
2.92723e-09
2.8731e-09
2.58959e-09
1.77821e-09
1.40534e-09
1.76148e-09
2.23589e-09
2.10754e-09
1.64383e-09
1.9216e-09
2.68146e-09
3.04179e-09
2.83452e-09
1.652e-09
9.06266e-10
7.07791e-10
6.89138e-10
7.24125e-10
6.24551e-10
7.60822e-10
6.46767e-10
6.39986e-10
6.60033e-10
4.08611e-10
4.10606e-10
4.74717e-10
4.65501e-10
4.99592e-10
5.96674e-10
6.72769e-10
5.49273e-10
4.49796e-10
6.48487e-10
8.24195e-10
1.0281e-09
1.31974e-09
1.53417e-09
1.47803e-09
1.68143e-09
2.07876e-09
2.2542e-09
2.17194e-09
1.94737e-09
1.39846e-09
1.1785e-09
1.42644e-09
1.75035e-09
1.68503e-09
1.40938e-09
1.62681e-09
2.22228e-09
2.52308e-09
2.32282e-09
1.39052e-09
7.02491e-10
4.72338e-10
4.24621e-10
4.58538e-10
3.68739e-10
5.06884e-10
4.45286e-10
4.10181e-10
4.88268e-10
2.91158e-10
2.81274e-10
3.40722e-10
2.91792e-10
3.49776e-10
3.92103e-10
3.94102e-10
3.5653e-10
3.13988e-10
4.63064e-10
6.34908e-10
8.09177e-10
1.0383e-09
1.24415e-09
1.26047e-09
1.40432e-09
1.67771e-09
1.76764e-09
1.68986e-09
1.51785e-09
1.15007e-09
1.03077e-09
1.19483e-09
1.41128e-09
1.38025e-09
1.23449e-09
1.41235e-09
1.86157e-09
2.09737e-09
1.91369e-09
1.19506e-09
5.95191e-10
3.42466e-10
2.68521e-10
3.03269e-10
2.16605e-10
3.45743e-10
3.19138e-10
2.55476e-10
3.74076e-10
2.17392e-10
2.025e-10
2.65641e-10
1.91728e-10
2.64356e-10
2.68284e-10
2.31812e-10
2.49641e-10
2.40966e-10
3.52419e-10
5.10027e-10
6.56395e-10
8.28676e-10
1.01393e-09
1.08023e-09
1.17947e-09
1.36819e-09
1.41099e-09
1.34747e-09
1.22189e-09
9.75084e-10
9.1774e-10
1.02476e-09
1.16971e-09
1.16066e-09
1.09687e-09
1.24066e-09
1.57005e-09
1.74689e-09
1.58339e-09
1.03935e-09
5.4187e-10
2.8368e-10
1.84442e-10
2.21339e-10
1.30052e-10
2.43771e-10
2.41487e-10
1.51041e-10
2.94663e-10
1.67344e-10
1.48895e-10
2.22066e-10
1.32359e-10
2.12683e-10
1.97685e-10
1.42319e-10
1.9262e-10
2.03627e-10
2.84994e-10
4.24893e-10
5.47607e-10
6.69855e-10
8.29123e-10
9.23901e-10
9.91997e-10
1.12423e-09
1.14327e-09
1.09734e-09
1.01198e-09
8.44389e-10
8.23982e-10
8.93837e-10
9.87925e-10
9.967e-10
9.80716e-10
1.09225e-09
1.32805e-09
1.45718e-09
1.31708e-09
9.08456e-10
5.14818e-10
2.6572e-10
1.43782e-10
1.82228e-10
8.28573e-11
1.78003e-10
1.9435e-10
8.14687e-11
2.37498e-10
1.33343e-10
1.09549e-10
1.94996e-10
9.53506e-11
1.77693e-10
1.59051e-10
9.82537e-11
1.62645e-10
1.84874e-10
2.42303e-10
3.61856e-10
4.67825e-10
5.47386e-10
6.7897e-10
7.85463e-10
8.34045e-10
9.29209e-10
9.36217e-10
9.07143e-10
8.54002e-10
7.395e-10
7.3979e-10
7.8837e-10
8.46845e-10
8.69203e-10
8.79436e-10
9.60088e-10
1.12229e-09
1.21535e-09
1.1014e-09
7.94841e-10
4.95034e-10
2.6852e-10
1.28929e-10
1.67991e-10
6.06083e-11
1.34279e-10
1.65599e-10
3.73689e-11
1.93187e-10
1.10102e-10
7.89989e-11
1.74715e-10
7.12513e-11
1.51183e-10
1.39282e-10
8.12061e-11
1.46241e-10
1.75336e-10
2.15091e-10
3.10945e-10
4.08298e-10
4.52595e-10
5.56225e-10
6.60632e-10
6.98013e-10
7.70284e-10
7.71185e-10
7.56802e-10
7.28834e-10
6.48857e-10
6.61208e-10
6.98612e-10
7.32021e-10
7.63836e-10
7.88553e-10
8.42411e-10
9.46769e-10
1.01336e-09
9.26176e-10
6.94001e-10
4.7562e-10
2.80406e-10
1.29198e-10
1.6673e-10
5.60176e-11
1.04784e-10
1.48378e-10
1.46566e-11
1.56713e-10
9.62035e-11
5.74673e-11
1.56645e-10
5.76678e-11
1.29855e-10
1.2829e-10
7.92655e-11
1.36348e-10
1.69245e-10
1.98529e-10
2.66734e-10
3.61868e-10
3.80954e-10
4.56176e-10
5.50264e-10
5.79425e-10
6.38417e-10
6.34713e-10
6.32568e-10
6.24989e-10
5.65921e-10
5.87384e-10
6.18423e-10
6.35425e-10
6.72344e-10
7.03859e-10
7.39236e-10
7.98957e-10
8.45323e-10
7.83452e-10
6.0551e-10
4.53364e-10
2.93525e-10
1.38291e-10
1.71114e-10
6.50635e-11
8.59104e-11
1.37369e-10
1.30324e-11
1.26335e-10
9.1047e-11
4.83903e-11
1.41318e-10
5.5658e-11
1.13662e-10
1.22272e-10
8.46526e-11
1.29419e-10
1.647e-10
1.90047e-10
2.29492e-10
3.21487e-10
3.288e-10
3.74923e-10
4.56786e-10
4.78033e-10
5.27103e-10
5.19631e-10
5.26958e-10
5.36504e-10
4.90369e-10
5.18584e-10
5.48106e-10
5.53598e-10
5.91167e-10
6.24741e-10
6.49925e-10
6.77474e-10
7.07226e-10
6.67891e-10
5.2963e-10
4.26862e-10
3.04422e-10
1.54595e-10
1.76164e-10
8.49503e-11
7.85559e-11
1.30885e-10
3.35985e-11
1.04634e-10
9.32971e-11
5.48255e-11
1.30016e-10
6.78393e-11
1.0388e-10
1.20516e-10
9.40202e-11
1.24531e-10
1.607e-10
1.86552e-10
2.01008e-10
2.81681e-10
2.88897e-10
3.09961e-10
3.75627e-10
3.94576e-10
4.34327e-10
4.23366e-10
4.38598e-10
4.59538e-10
4.23028e-10
4.57925e-10
4.89838e-10
4.87549e-10
5.23422e-10
5.56493e-10
5.75117e-10
5.81009e-10
5.97172e-10
5.76339e-10
4.6745e-10
3.9765e-10
3.12247e-10
1.78136e-10
1.81707e-10
1.12634e-10
8.42448e-11
1.27446e-10
7.53245e-11
9.7314e-11
1.01111e-10
7.62205e-11
1.23217e-10
9.15224e-11
1.05362e-10
1.23023e-10
1.07511e-10
1.22168e-10
1.56837e-10
1.83481e-10
1.82254e-10
2.4047e-10
2.5409e-10
2.60661e-10
3.03081e-10
3.26972e-10
3.60773e-10
3.46165e-10
3.70281e-10
3.95588e-10
3.65155e-10
4.07052e-10
4.44788e-10
4.39191e-10
4.71278e-10
5.03389e-10
5.17895e-10
5.10927e-10
5.13894e-10
5.04213e-10
4.19113e-10
3.68601e-10
3.14817e-10
2.08656e-10
1.88822e-10
1.46813e-10
1.04364e-10
1.30368e-10
1.30354e-10
1.09497e-10
1.16042e-10
1.11247e-10
1.21523e-10
1.14249e-10
1.16548e-10
1.30109e-10
1.21232e-10
1.25671e-10
1.50569e-10
1.74145e-10
1.69673e-10
1.98825e-10
2.1919e-10
2.25734e-10
2.39871e-10
2.7181e-10
3.05057e-10
2.8542e-10
3.2147e-10
3.49967e-10
3.2028e-10
3.64527e-10
4.07376e-10