/*--------------------------------*- C++ -*----------------------------------*\
  =========                 |
  \\      /  F ield         | OpenFOAM: The Open Source CFD Toolbox
   \\    /   O peration     | Website:  https://openfoam.org
    \\  /    A nd           | Version:  10
     \\/     M anipulation  |
\*---------------------------------------------------------------------------*/
FoamFile
{
    format      ascii;
    class       volVectorField;
    location    "30";
    object      U_0;
}
// * * * * * * * * * * * * * * * * * * * * * * * * * * * * * * * * * * * * * //

dimensions      [0 1 -1 0 0 0 0];

internalField   nonuniform List<vector> 
102400
(
(0.0360048 2.3882e-07 -1.80798e-05)
(0.036137 -5.99039e-07 -1.96338e-05)
(0.0360175 1.50919e-06 -9.31883e-06)
(0.0361254 -1.26538e-07 -2.38666e-05)
(0.0360172 5.4426e-07 -6.0662e-06)
(0.0361375 -9.51836e-08 -2.05583e-05)
(0.0360123 8.26692e-07 -6.58271e-06)
(0.03613 1.37591e-07 -1.70553e-05)
(0.0360192 9.05461e-08 -8.18967e-06)
(0.0361241 1.19571e-06 -1.4158e-05)
(0.036016 -9.32411e-07 -8.54752e-06)
(0.0361227 1.49873e-06 -1.16462e-05)
(0.0360086 -5.76985e-07 -6.41908e-06)
(0.0361233 8.63194e-07 -1.38121e-05)
(0.0359985 5.10703e-07 -5.13689e-06)
(0.0361186 -5.53532e-07 -1.4289e-05)
(0.0359987 1.32593e-06 -4.94447e-06)
(0.0361086 -5.39157e-07 -1.53108e-05)
(0.0359947 1.10577e-06 -3.24194e-06)
(0.0361059 -9.52821e-08 -1.80784e-05)
(0.0359925 3.14076e-07 -6.99195e-06)
(0.0360984 7.2525e-07 -1.31432e-05)
(0.0359962 -5.61242e-07 -1.40559e-05)
(0.0360986 1.62268e-06 -9.97123e-06)
(0.0359826 -3.37274e-07 -1.18216e-05)
(0.0361132 -5.92646e-08 -1.95329e-05)
(0.0359842 1.3041e-06 -5.00498e-06)
(0.036101 -4.20829e-07 -2.31443e-05)
(0.0359984 6.59354e-07 -8.20799e-06)
(0.0361037 6.91697e-07 -2.2033e-05)
(0.0359924 -6.25528e-08 -9.60665e-06)
(0.0361157 3.60396e-07 -2.33771e-05)
(0.0359975 6.19086e-07 -1.17864e-05)
(0.0361147 3.23014e-07 -2.31768e-05)
(0.0360007 4.74147e-07 -1.09271e-05)
(0.0361224 6.40404e-08 -2.82203e-05)
(0.036009 3.06714e-07 -1.01346e-05)
(0.0361167 9.76046e-07 -2.22496e-05)
(0.0360167 -5.54658e-07 -2.04367e-05)
(0.036129 1.18251e-06 -1.4201e-05)
(0.110934 4.55374e-06 -4.3563e-05)
(0.111302 3.41831e-06 -5.29326e-05)
(0.110946 9.62297e-06 -2.93936e-05)
(0.111295 3.75006e-06 -5.86041e-05)
(0.110951 6.55807e-06 -1.88617e-05)
(0.111314 3.9707e-06 -5.4659e-05)
(0.110938 7.52673e-06 -1.62917e-05)
(0.111312 4.36093e-06 -4.77851e-05)
(0.110945 5.19677e-06 -1.70843e-05)
(0.111297 7.97788e-06 -4.12284e-05)
(0.110946 1.25645e-06 -1.68578e-05)
(0.111282 9.45618e-06 -3.55005e-05)
(0.11094 1.88408e-06 -1.56324e-05)
(0.111269 7.89817e-06 -3.77518e-05)
(0.110921 5.05329e-06 -1.35972e-05)
(0.111259 3.12465e-06 -3.96895e-05)
(0.110904 8.30437e-06 -1.38488e-05)
(0.111243 2.3895e-06 -4.20702e-05)
(0.110886 8.2058e-06 -1.21799e-05)
(0.111236 3.48011e-06 -4.85436e-05)
(0.110871 5.78222e-06 -1.65658e-05)
(0.11122 6.28633e-06 -4.31232e-05)
(0.110875 2.85127e-06 -2.90479e-05)
(0.111206 9.83964e-06 -3.5125e-05)
(0.110866 2.65365e-06 -3.12467e-05)
(0.111224 5.10607e-06 -4.80591e-05)
(0.110857 8.49678e-06 -2.01467e-05)
(0.111219 2.93887e-06 -5.83057e-05)
(0.110876 7.21285e-06 -2.32879e-05)
(0.111223 6.44086e-06 -5.94336e-05)
(0.110878 4.43076e-06 -2.69052e-05)
(0.111243 5.92955e-06 -6.35362e-05)
(0.110887 6.67545e-06 -3.08727e-05)
(0.11125 5.65892e-06 -6.37611e-05)
(0.110899 6.14261e-06 -3.18735e-05)
(0.111269 4.85499e-06 -7.26774e-05)
(0.110913 6.00313e-06 -2.80057e-05)
(0.111269 7.65516e-06 -6.64992e-05)
(0.110939 2.88498e-06 -4.29058e-05)
(0.11128 9.04818e-06 -4.97994e-05)
(0.191785 1.45421e-05 -6.18608e-05)
(0.192385 1.47943e-05 -8.62029e-05)
(0.191802 2.43455e-05 -4.56452e-05)
(0.192397 1.38055e-05 -9.09897e-05)
(0.191809 1.94889e-05 -3.10409e-05)
(0.192428 1.40499e-05 -8.60614e-05)
(0.191794 2.12839e-05 -2.50713e-05)
(0.19244 1.43302e-05 -7.62205e-05)
(0.1918 1.73548e-05 -2.44264e-05)
(0.192428 2.07319e-05 -6.71348e-05)
(0.191807 9.39445e-06 -2.23327e-05)
(0.1924 2.43655e-05 -5.90667e-05)
(0.191813 9.5589e-06 -2.12563e-05)
(0.192369 2.23597e-05 -6.02591e-05)
(0.191799 1.44907e-05 -1.89023e-05)
(0.19235 1.36344e-05 -6.24513e-05)
(0.191766 2.11776e-05 -1.9798e-05)
(0.192332 1.11912e-05 -6.56449e-05)
(0.191724 2.2089e-05 -1.83095e-05)
(0.192324 1.23219e-05 -7.36888e-05)
(0.191687 1.80642e-05 -2.33296e-05)
(0.192299 1.75311e-05 -6.88501e-05)
(0.191682 1.27595e-05 -3.84655e-05)
(0.192266 2.46596e-05 -5.84186e-05)
(0.191677 1.11318e-05 -4.31107e-05)
(0.192267 1.74227e-05 -7.24195e-05)
(0.191662 2.16494e-05 -3.09443e-05)
(0.192268 1.26554e-05 -8.56355e-05)
(0.191671 2.0676e-05 -3.3867e-05)
(0.192276 1.81898e-05 -8.87773e-05)
(0.191677 1.54043e-05 -3.90119e-05)
(0.192295 1.8094e-05 -9.55964e-05)
(0.191691 1.92852e-05 -4.43147e-05)
(0.192309 1.74863e-05 -9.70377e-05)
(0.19171 1.83899e-05 -4.70656e-05)
(0.192338 1.60647e-05 -0.000109122)
(0.191726 1.85281e-05 -4.28054e-05)
(0.19235 2.09403e-05 -0.00010403)
(0.191768 1.28712e-05 -6.00021e-05)
(0.19236 2.40754e-05 -8.46595e-05)
(0.277946 3.17123e-05 -7.48329e-05)
(0.278769 3.39693e-05 -0.000116485)
(0.277978 4.66505e-05 -5.78807e-05)
(0.278805 3.14817e-05 -0.000122402)
(0.27799 3.99531e-05 -4.05712e-05)
(0.278859 3.17304e-05 -0.000117441)
(0.277977 4.27605e-05 -3.33272e-05)
(0.278899 3.16107e-05 -0.000103035)
(0.277983 3.7356e-05 -3.20686e-05)
(0.278904 4.07899e-05 -9.21372e-05)
(0.278004 2.47792e-05 -2.71393e-05)
(0.278869 4.68202e-05 -8.04871e-05)
(0.278036 2.44068e-05 -2.51692e-05)
(0.278824 4.44236e-05 -8.0101e-05)
(0.278037 3.07387e-05 -2.1149e-05)
(0.278795 3.15816e-05 -8.10888e-05)
(0.277998 4.09769e-05 -2.17109e-05)
(0.278778 2.72215e-05 -8.42058e-05)
(0.27793 4.32012e-05 -1.99843e-05)
(0.278776 2.80931e-05 -9.25442e-05)
(0.277861 3.7533e-05 -2.53842e-05)
(0.278738 3.57328e-05 -8.71726e-05)
(0.277839 2.99043e-05 -4.39032e-05)
(0.27868 4.67356e-05 -7.42434e-05)
(0.277831 2.65493e-05 -4.87373e-05)
(0.278651 3.70108e-05 -9.02501e-05)
(0.277807 4.18709e-05 -3.35813e-05)
(0.278645 2.96366e-05 -0.000105502)
(0.277796 4.13754e-05 -3.60927e-05)
(0.278649 3.71162e-05 -0.000108262)
(0.277798 3.34962e-05 -4.19683e-05)
(0.27866 3.75011e-05 -0.000117397)
(0.277808 3.92644e-05 -4.88606e-05)
(0.278675 3.65025e-05 -0.000119179)
(0.277828 3.79503e-05 -5.29118e-05)
(0.278712 3.45635e-05 -0.000135649)
(0.277843 3.83569e-05 -4.9613e-05)
(0.278734 4.18205e-05 -0.000132095)
(0.2779 3.01999e-05 -7.15619e-05)
(0.278744 4.68317e-05 -0.00011284)
(0.368377 5.6406e-05 -7.87255e-05)
(0.369377 6.1449e-05 -0.000137765)
(0.368427 7.71038e-05 -6.35007e-05)
(0.369445 5.74569e-05 -0.000149639)
(0.368443 6.85819e-05 -4.35051e-05)
(0.369531 5.77275e-05 -0.000146289)
(0.368432 7.30449e-05 -4.18447e-05)
(0.369618 5.69535e-05 -0.000125532)
(0.368437 6.61893e-05 -3.94924e-05)
(0.369656 6.93869e-05 -0.00011599)
(0.368486 4.84848e-05 -3.25376e-05)
(0.369617 7.7806e-05 -9.86126e-05)
(0.368561 4.78054e-05 -2.94172e-05)
(0.369568 7.51304e-05 -9.63677e-05)
(0.368594 5.50482e-05 -2.23294e-05)
(0.369537 5.81542e-05 -9.48274e-05)
(0.368564 6.89339e-05 -2.09812e-05)
(0.369532 5.14744e-05 -9.60031e-05)
(0.368472 7.26114e-05 -1.84102e-05)
(0.369547 5.19146e-05 -0.000104273)
(0.368374 6.51303e-05 -2.26795e-05)
(0.369501 6.17722e-05 -9.64985e-05)
(0.368332 5.52106e-05 -4.55136e-05)
(0.369411 7.68082e-05 -8.05219e-05)
(0.368321 4.97361e-05 -4.90769e-05)
(0.369336 6.46906e-05 -0.000100596)
(0.368283 6.9721e-05 -2.71086e-05)
(0.369309 5.46883e-05 -0.000118004)
(0.368244 6.99587e-05 -2.91545e-05)
(0.369297 6.37212e-05 -0.00011754)
(0.368225 5.93248e-05 -3.40526e-05)
(0.369293 6.462e-05 -0.000127343)
(0.368217 6.72254e-05 -4.31831e-05)
(0.369299 6.30426e-05 -0.000127386)
(0.368223 6.51551e-05 -4.63829e-05)
(0.369335 6.09064e-05 -0.000149185)
(0.368229 6.55707e-05 -4.32325e-05)
(0.369356 7.07733e-05 -0.000147044)
(0.368298 5.51e-05 -7.18303e-05)
(0.369358 7.7798e-05 -0.000129643)
(0.461538 8.88113e-05 -6.92594e-05)
(0.462622 9.67032e-05 -0.000140689)
(0.461592 0.00011547 -5.49969e-05)
(0.462723 9.17225e-05 -0.000166865)
(0.461601 0.000105608 -3.44391e-05)
(0.462856 9.12695e-05 -0.000159381)
(0.461576 0.000112705 -5.02273e-05)
(0.46301 9.10016e-05 -0.000138551)
(0.461579 0.000103532 -4.08413e-05)
(0.463077 0.000107444 -0.0001346)
(0.461683 8.15429e-05 -3.81541e-05)
(0.463033 0.000117416 -0.000110045)
(0.461814 8.1235e-05 -3.51323e-05)
(0.462995 0.000115241 -0.000107311)
(0.461896 8.8791e-05 -2.48906e-05)
(0.462972 9.42799e-05 -0.000102994)
(0.461894 0.00010643 -2.16932e-05)
(0.463003 8.5448e-05 -9.98287e-05)
(0.461789 0.000111198 -1.57631e-05)
(0.463055 8.53118e-05 -0.000110352)
(0.461679 0.000101877 -1.60643e-05)
(0.463012 9.70925e-05 -9.81187e-05)
(0.461631 8.95417e-05 -4.3759e-05)
(0.462888 0.000115779 -7.73912e-05)
(0.461634 8.1906e-05 -4.42041e-05)
(0.462757 0.000101373 -0.000105722)
(0.461584 0.000105888 -1.13901e-05)
(0.462702 8.86208e-05 -0.000124143)
(0.461508 0.000107335 -1.52857e-05)
(0.462674 9.84286e-05 -0.000117507)
(0.461442 9.36712e-05 -1.78263e-05)
(0.462653 9.96947e-05 -0.000124587)
(0.461398 0.000103752 -2.94136e-05)
(0.462635 9.77449e-05 -0.000122319)
(0.461376 9.97843e-05 -2.66232e-05)
(0.462646 9.57705e-05 -0.000149904)
(0.461364 9.97003e-05 -1.94809e-05)
(0.462645 0.000108212 -0.000147918)
(0.461434 8.71602e-05 -5.37848e-05)
(0.46262 0.000116687 -0.00012932)
(0.555367 0.000129615 -5.05728e-05)
(0.556401 0.000138486 -0.000119477)
(0.55539 0.000161037 -2.37837e-05)
(0.556536 0.000132387 -0.000162237)
(0.555353 0.000151182 -1.71468e-05)
(0.556724 0.000130846 -0.000136723)
(0.555282 0.000158842 -4.62688e-05)
(0.556936 0.000134661 -0.000140355)
(0.555306 0.000147583 -2.54455e-05)
(0.556993 0.000152977 -0.00013565)
(0.555485 0.000124945 -4.02695e-05)
(0.556953 0.000163771 -0.000104511)
(0.555658 0.000124865 -3.97537e-05)
(0.556939 0.000164033 -0.000106741)
(0.555809 0.000132532 -2.79908e-05)
(0.55693 0.000140186 -0.000101315)
(0.555851 0.000153158 -2.6233e-05)
(0.557016 0.000130691 -9.74829e-05)
(0.555758 0.000159125 -9.02763e-06)
(0.557128 0.000130116 -0.000117683)
(0.555658 0.000147642 -3.67681e-06)
(0.557109 0.000143445 -9.54646e-05)
(0.555651 0.000134528 -4.2222e-05)
(0.556949 0.000163765 -6.58159e-05)
(0.555704 0.000125002 -3.44988e-05)
(0.556775 0.000147996 -0.000109876)
(0.55565 0.000151547 1.16731e-05)
(0.556711 0.000131999 -0.000123407)
(0.555517 0.000154936 -8.47391e-07)
(0.556701 0.000141947 -0.000107941)
(0.555379 0.000137096 9.14579e-07)
(0.556663 0.000144016 -0.000111687)
(0.555302 0.000148531 -9.73255e-06)
(0.556594 0.000141932 -0.000109611)
(0.555262 0.000141715 5.08481e-06)
(0.556548 0.000140394 -0.000147434)
(0.555217 0.000139966 2.51178e-05)
(0.556508 0.000154553 -0.000140306)
(0.555262 0.000126942 -2.06913e-05)
(0.556432 0.000161561 -0.000101838)
(0.647317 0.000179567 -3.01706e-05)
(0.648172 0.000186508 -8.16092e-05)
(0.647251 0.000213913 2.11497e-05)
(0.648337 0.000177687 -0.000117273)
(0.647115 0.000202592 1.64745e-06)
(0.648556 0.000178567 -8.51694e-05)
(0.646994 0.000205955 -1.14353e-06)
(0.648746 0.000185451 -0.000127107)
(0.647073 0.000198898 7.67117e-06)
(0.648757 0.000199734 -9.77926e-05)
(0.647277 0.000177617 -3.44124e-05)
(0.648754 0.000213639 -6.57713e-05)
(0.647464 0.000175624 -3.21722e-05)
(0.648742 0.000219183 -8.50189e-05)
(0.647711 0.000182889 -2.1207e-05)
(0.648725 0.000194847 -8.24903e-05)
(0.647821 0.000205902 -2.03057e-05)
(0.648874 0.000186841 -9.74211e-05)
(0.647741 0.000212487 1.85506e-05)
(0.649075 0.000187978 -0.000133198)
(0.64769 0.000201918 1.32268e-05)
(0.649067 0.000197485 -7.95366e-05)
(0.647793 0.000194015 -5.21074e-05)
(0.64889 0.000218746 -4.54249e-05)
(0.647914 0.000179478 -1.92277e-05)
(0.648735 0.000205458 -0.000116912)
(0.647847 0.000207916 3.32645e-05)
(0.64874 0.00018548 -0.000109068)
(0.647632 0.000212222 5.48157e-06)
(0.648793 0.000197945 -9.52544e-05)
(0.647449 0.000188117 2.34071e-05)
(0.648706 0.000199354 -9.7358e-05)
(0.647401 0.000202795 1.42247e-05)
(0.648546 0.000196202 -9.95471e-05)
(0.647358 0.000190174 5.65115e-05)
(0.648459 0.000197311 -0.000163032)
(0.647246 0.00018759 8.30278e-05)
(0.648388 0.000207408 -0.0001162)
(0.647243 0.000179284 -5.53426e-06)
(0.648241 0.000209698 -3.58963e-05)
(0.734468 0.000236712 -5.44295e-06)
(0.73509 0.000243116 -3.89402e-05)
(0.734274 0.000273697 5.3719e-05)
(0.73525 0.000231229 -4.8806e-05)
(0.734037 0.000254698 4.33939e-05)
(0.735409 0.00023699 -4.57033e-05)
(0.733901 0.000256723 8.4093e-05)
(0.735494 0.000235354 -7.52118e-05)
(0.733979 0.000259716 3.81047e-05)
(0.735499 0.000244957 -4.97096e-06)
(0.734106 0.000234051 -1.32346e-05)
(0.735515 0.000266389 8.08255e-06)
(0.734332 0.000226541 1.3388e-05)
(0.735395 0.000276594 -4.07953e-05)
(0.734707 0.000234122 1.91678e-05)
(0.735335 0.000254848 -4.78691e-05)
(0.734853 0.000256122 3.43826e-05)
(0.735584 0.000252728 -0.000104068)
(0.734757 0.000264994 8.18377e-05)
(0.735842 0.000247579 -0.000126328)
(0.734832 0.000270668 6.83787e-06)
(0.735819 0.000248685 -1.54874e-05)
(0.735053 0.000264487 -7.31612e-05)
(0.735719 0.000281018 -2.58363e-05)
(0.735195 0.00023955 9.85915e-06)
(0.735699 0.000273347 -0.000119309)
(0.735096 0.00027122 3.80397e-05)
(0.735845 0.000252969 -8.25189e-05)
(0.734846 0.000272346 2.22079e-05)
(0.735934 0.000267225 -0.000101667)
(0.734756 0.000250328 4.64673e-05)
(0.735734 0.000261873 -8.65568e-05)
(0.734803 0.000266546 4.94653e-05)
(0.735539 0.000263441 -0.000120694)
(0.734694 0.000244261 0.000138383)
(0.735497 0.000262223 -0.000181168)
(0.7345 0.000252502 9.27907e-05)
(0.735401 0.000259637 -3.38939e-05)
(0.734464 0.000247136 -4.51036e-05)
(0.735178 0.000264893 4.85068e-05)
(0.813842 0.000298399 2.73189e-05)
(0.814207 0.000312176 -9.39358e-06)
(0.813575 0.000340225 7.50415e-05)
(0.814301 0.000297021 -2.32784e-05)
(0.813253 0.000306457 0.000113195)
(0.814336 0.00029925 -2.48494e-05)
(0.813064 0.00032288 0.00013978)
(0.814349 0.000285993 3.17531e-05)
(0.813024 0.00032496 4.44153e-05)
(0.814328 0.000293898 0.000109972)
(0.81308 0.000288147 4.77741e-05)
(0.814207 0.000324943 7.95004e-05)
(0.813443 0.000279535 0.000122991)
(0.813879 0.000330669 2.4367e-05)
(0.813854 0.000276975 0.000112727)
(0.813811 0.000318008 -9.17241e-06)
(0.813911 0.000301212 0.000153362)
(0.814159 0.000314196 -6.5002e-05)
(0.813833 0.000323636 0.000133991)
(0.814351 0.000286306 -8.46687e-06)
(0.814 0.000343728 -3.82085e-05)
(0.814397 0.000302871 8.5231e-05)
(0.814221 0.00032739 -4.15987e-05)
(0.814493 0.000348022 -1.0024e-05)
(0.814331 0.000290686 5.88166e-05)
(0.814641 0.000347985 -0.000104495)
(0.814287 0.000333229 4.79186e-05)
(0.814905 0.000331944 -8.01922e-05)
(0.814183 0.000335261 7.54513e-05)
(0.814925 0.000331202 -0.00010318)
(0.814291 0.0003246 6.25623e-05)
(0.814723 0.000332834 -0.000109752)
(0.814355 0.000336929 0.000111994)
(0.814673 0.000333824 -0.000155906)
(0.814132 0.000309689 0.000174367)
(0.814691 0.00032033 -0.000100746)
(0.813942 0.000338414 -1.02229e-05)
(0.814585 0.000319844 8.99256e-05)
(0.813919 0.000317123 -9.48221e-05)
(0.814318 0.000329237 9.1492e-05)
(0.882794 0.000342307 7.61117e-05)
(0.882823 0.000382224 -1.55014e-05)
(0.88252 0.000418363 0.000105368)
(0.882964 0.000381221 -5.55781e-05)
(0.882149 0.000361514 0.000140076)
(0.882851 0.000343758 1.70171e-05)
(0.881806 0.00039081 0.000101188)
(0.882788 0.000356942 0.000126301)
(0.881737 0.000400969 5.27497e-05)
(0.882612 0.000346422 0.000158907)
(0.881785 0.000332841 0.000142238)
(0.882171 0.000378851 0.000104821)
(0.882238 0.000353157 0.000243408)
(0.881797 0.000397556 0.000112518)
(0.882503 0.000311529 0.000252633)
(0.881711 0.000358177 7.65263e-05)
(0.882366 0.000346963 0.000227541)
(0.882053 0.000372035 9.79215e-05)
(0.882324 0.000392235 0.000147115)
(0.882199 0.000315469 0.000207285)
(0.882321 0.000376117 -1.73584e-06)
(0.882294 0.000356638 0.000142433)
(0.882472 0.000384859 6.19813e-05)
(0.882566 0.000422415 3.29711e-05)
(0.882605 0.000321414 0.000177204)
(0.882689 0.000395831 -5.68745e-05)
(0.882685 0.000384375 0.000100613)
(0.88301 0.0004094 -9.72392e-05)
(0.882898 0.000417316 0.000133116)
(0.883097 0.000374566 -6.00194e-05)
(0.883034 0.000381932 0.000121509)
(0.883069 0.000393822 -0.000130201)
(0.883109 0.000425792 9.67701e-05)
(0.883291 0.000408747 -9.99597e-05)
(0.88292 0.00037409 9.56273e-05)
(0.883263 0.000359073 7.78657e-05)
(0.882772 0.000411343 -0.000107024)
(0.883188 0.000401952 0.000137971)
(0.882914 0.000397271 -9.37584e-05)
(0.882978 0.000392145 9.0366e-05)
(0.939272 0.000365974 0.000195297)
(0.938964 0.00038671 1.55956e-05)
(0.938868 0.000461495 0.000117307)
(0.939209 0.000492077 -8.55901e-05)
(0.938791 0.000461127 9.44844e-05)
(0.939168 0.000373448 0.000108381)
(0.938326 0.000396173 5.67579e-05)
(0.938761 0.00039951 9.43157e-05)
(0.938299 0.000512801 2.00612e-05)
(0.938554 0.000436858 0.000134577)
(0.938468 0.000376327 0.00023548)
(0.937827 0.00037292 0.000111681)
(0.938592 0.000407336 0.000230433)
(0.937541 0.000506797 0.000145117)
(0.93882 0.000398734 0.000327748)
(0.937547 0.000386022 0.000304365)
(0.938378 0.000331939 0.000269401)
(0.937665 0.00040766 0.000240114)
(0.938277 0.000480731 0.000140083)
(0.937953 0.000401496 0.000366274)
(0.938175 0.000382991 0.000224417)
(0.93779 0.000343702 0.000223745)
(0.938017 0.000404073 0.000173265)
(0.93802 0.000516726 2.61195e-05)
(0.938356 0.000396221 0.000329984)
(0.938084 0.000407608 0.000116751)
(0.938311 0.000372749 0.000255699)
(0.938188 0.000428065 -6.41651e-05)
(0.938644 0.000527612 0.000115612)
(0.938697 0.000447374 3.35813e-05)
(0.938891 0.000413105 0.000227155)
(0.938741 0.000385478 2.84943e-05)
(0.938881 0.000471226 9.70161e-06)
(0.939158 0.000514979 -5.21551e-05)
(0.939123 0.00047324 -8.17716e-06)
(0.939223 0.000384832 0.000236793)
(0.938941 0.000410557 -4.88618e-05)
(0.938967 0.000447455 0.00011724)
(0.939196 0.000500903 -8.69984e-05)
(0.939132 0.000498022 5.46912e-05)
(0.982117 0.000499704 0.000259026)
(0.981796 0.000374797 0.000276955)
(0.981667 0.000360228 0.000267975)
(0.981673 0.000490534 -0.000108041)
(0.981793 0.000607562 -0.000102325)
(0.982147 0.000500432 0.000190298)
(0.981847 0.000389457 0.000241452)
(0.981499 0.00029771 0.000172987)
(0.98144 0.000526768 -0.000128812)
(0.981177 0.000567582 -9.31918e-05)
(0.981943 0.000523981 0.000245003)
(0.980875 0.000359294 0.000298479)
(0.981615 0.000319668 0.000245379)
(0.98023 0.000531568 1.31036e-05)
(0.98165 0.000543218 7.44907e-05)
(0.980662 0.00053941 0.000432012)
(0.981411 0.00031126 0.000514442)
(0.980465 0.000323324 0.000444876)
(0.980852 0.000472582 8.47016e-05)
(0.980632 0.000541413 0.00020416)
(0.981139 0.00051436 0.000406165)
(0.980641 0.00032426 0.000487249)
(0.980571 0.000301493 0.000431779)
(0.980206 0.000501107 -3.17743e-05)
(0.980761 0.000534099 0.00020704)
(0.980524 0.000520917 0.000270074)
(0.980864 0.00036114 0.000570327)
(0.980259 0.000307094 0.000232531)
(0.980539 0.000524343 3.77145e-05)
(0.980709 0.000572492 -1.52208e-05)
(0.98119 0.000532437 0.000285739)
(0.981095 0.000366566 0.000407303)
(0.981113 0.000366036 0.000183822)
(0.981128 0.00051091 -5.22756e-05)
(0.981552 0.000613969 -0.000212055)
(0.981721 0.000519843 0.00025634)
(0.981773 0.000395494 0.00022499)
(0.981307 0.000354089 0.000232967)
(0.981531 0.000495025 -0.000112764)
(0.981504 0.00064707 -0.000142884)
(1.01145 0.000654347 -0.00018403)
(1.01148 0.000525825 0.000360211)
(1.01158 0.00030826 0.000754506)
(1.01106 0.000308668 0.000314169)
(1.01124 0.000559835 -0.000329567)
(1.0116 0.000636998 -0.000155699)
(1.01209 0.000533194 0.000325271)
(1.01158 0.000231344 0.000672643)
(1.0115 0.000362875 0.000172155)
(1.01078 0.000508378 -0.00039629)
(1.01176 0.000671442 -0.000206532)
(1.01126 0.000501726 0.000348522)
(1.01186 0.000258324 0.000638895)
(1.0104 0.000381237 0.000249544)
(1.01124 0.00049777 -0.000323911)
(1.01075 0.00071477 -7.07481e-05)
(1.01162 0.000456266 0.000526145)
(1.01089 0.000286453 0.000912449)
(1.01083 0.000313516 0.000435162)
(1.01039 0.000492625 -8.85864e-05)
(1.01106 0.000672418 2.76287e-05)
(1.01102 0.000467524 0.000524037)
(1.01091 0.000263131 0.000930707)
(1.01017 0.000323563 0.000346974)
(1.01034 0.000496432 -6.50922e-05)
(1.01028 0.000659838 -8.98634e-05)
(1.01086 0.000514056 0.000604505)
(1.01031 0.000250721 0.00082909)
(1.01006 0.000352276 0.00037713)
(1.0099 0.000529264 -0.000177017)
(1.01046 0.000670754 -8.30788e-05)
(1.01062 0.000507875 0.000536185)
(1.01077 0.000305277 0.000746499)
(1.01034 0.000334075 0.000385114)
(1.01068 0.000555244 -0.000372753)
(1.01099 0.000665392 -0.000174627)
(1.01153 0.000536745 0.000303013)
(1.01111 0.000305458 0.000697545)
(1.01098 0.000319543 0.000249389)
(1.01065 0.000596902 -0.000370585)
(1.02945 0.000588427 -0.000576361)
(1.02963 0.00061846 -0.000201746)
(1.03012 0.000394728 0.000771196)
(1.02955 0.000228988 0.00102048)
(1.02943 0.000390669 0.000103242)
(1.02954 0.000562026 -0.000480248)
(1.03029 0.000615453 -0.000174465)
(1.03023 0.00029185 0.000777314)
(1.03019 0.000280818 0.000888191)
(1.02937 0.000330435 -7.32979e-06)
(1.0298 0.000597729 -0.000601279)
(1.02986 0.000581663 -0.000182702)
(1.03053 0.00031459 0.000698643)
(1.02951 0.000305686 0.000881671)
(1.02969 0.000319617 -1.27834e-05)
(1.02929 0.000664288 -0.000564898)
(1.03012 0.000543046 -0.000133873)
(1.02992 0.000363026 0.000881192)
(1.0298 0.000251522 0.00105997)
(1.02914 0.000328245 0.000250241)
(1.02945 0.00061855 -0.000366455)
(1.0298 0.000550573 -5.58527e-05)
(1.02995 0.000352606 0.000913619)
(1.02939 0.000245832 0.00100132)
(1.02909 0.000340797 0.000278349)
(1.02891 0.00059648 -0.000452398)
(1.02953 0.000609316 -1.46551e-05)
(1.0294 0.000337331 0.000889981)
(1.0291 0.000274596 0.0010172)
(1.02858 0.000374181 0.000203328)
(1.02882 0.000610897 -0.000436718)
(1.02903 0.000600874 -2.49299e-06)
(1.02942 0.000384067 0.000819875)
(1.02896 0.000260605 0.00109162)
(1.02893 0.000377358 0.000128915)
(1.02908 0.000590205 -0.000495245)
(1.02975 0.000611008 -0.00022765)
(1.02976 0.000382448 0.000754711)
(1.0296 0.000241318 0.000910001)
(1.02898 0.000420673 7.51082e-05)
(1.0393 0.00043463 -0.000314882)
(1.03932 0.000533401 -0.000568679)
(1.03983 0.00040115 0.000270327)
(1.03956 0.000233839 0.0010944)
(1.03937 0.000302503 0.000665697)
(1.03928 0.000412939 -0.000235415)
(1.03971 0.000531098 -0.000511953)
(1.03991 0.00028201 0.000333309)
(1.03999 0.000274137 0.00104411)
(1.03953 0.000232747 0.000584756)
(1.03947 0.000445079 -0.00035881)
(1.03958 0.000492478 -0.000534095)
(1.04012 0.000296012 0.000269809)
(1.03969 0.000300751 0.00100653)
(1.03971 0.000210939 0.000541621)
(1.0393 0.000518444 -0.000366896)
(1.03978 0.000454931 -0.000569002)
(1.03983 0.000350992 0.000329995)
(1.03988 0.00025549 0.0010904)
(1.03943 0.000236066 0.000729064)
(1.03937 0.000481713 -0.000184222)
(1.03966 0.000462398 -0.000444873)
(1.03985 0.000355992 0.00038423)
(1.03973 0.000243619 0.00105562)
(1.03941 0.000255109 0.000761651)
(1.03912 0.000453919 -0.000229959)
(1.0395 0.000526389 -0.000432608)
(1.03954 0.000348858 0.00038166)
(1.03949 0.00027377 0.00108538)
(1.03907 0.000288357 0.000699183)
(1.03904 0.000470022 -0.000232087)
(1.03908 0.000524392 -0.000390468)
(1.03942 0.000389161 0.000327625)
(1.03923 0.000270219 0.00115766)
(1.03907 0.000285257 0.000700849)
(1.03905 0.000440138 -0.000202768)
(1.03942 0.00050849 -0.000564278)
(1.03964 0.00037547 0.000308747)
(1.03965 0.000238351 0.000999896)
(1.03917 0.000322784 0.000657042)
(1.04385 0.000298656 3.5837e-05)
(1.04371 0.000385465 -0.00044349)
(1.044 0.000317873 -2.02756e-05)
(1.04392 0.000214716 0.000722666)
(1.04387 0.000259783 0.000714644)
(1.04379 0.000288852 6.80739e-05)
(1.04388 0.000394639 -0.00040375)
(1.04402 0.00019738 3.5336e-05)
(1.04409 0.000249259 0.000721218)
(1.04403 0.000184616 0.000684433)
(1.04385 0.000317395 -1.36083e-05)
(1.04387 0.000352233 -0.000418813)
(1.04412 0.000202103 -2.53719e-06)
(1.04399 0.000275797 0.000691983)
(1.04411 0.000149632 0.000635353)
(1.04382 0.000388322 -2.94828e-05)
(1.044 0.000311425 -0.000465154)
(1.04401 0.0002551 -3.58395e-06)
(1.0441 0.000228691 0.000703688)
(1.04399 0.000183136 0.000729657)
(1.04386 0.000361352 7.45665e-05)
(1.04399 0.000317933 -0.000368713)
(1.044 0.000271602 5.618e-05)
(1.04409 0.000215957 0.000685559)
(1.04397 0.000206446 0.000765122)
(1.04377 0.000328516 6.19223e-05)
(1.04393 0.000378795 -0.000353886)
(1.04389 0.000271016 4.68698e-05)
(1.04397 0.000247931 0.000724644)
(1.04382 0.000239285 0.000725089)
(1.04378 0.000340711 4.92682e-05)
(1.04369 0.000382234 -0.00031679)
(1.04384 0.000303885 5.91622e-06)
(1.04381 0.000252997 0.000772181)
(1.04373 0.000239409 0.000724513)
(1.04373 0.000317914 0.000124696)
(1.04378 0.000351451 -0.000437296)
(1.04392 0.000282903 3.35425e-05)
(1.04398 0.000209026 0.000667787)
(1.0438 0.000271625 0.000719457)
(1.04546 0.000191752 0.000140405)
(1.04529 0.000256283 -0.000203891)
(1.04542 0.000223811 -2.32725e-05)
(1.04539 0.000169296 0.000387856)
(1.04541 0.000213419 0.000462099)
(1.04542 0.000190554 0.000141765)
(1.04536 0.000279978 -0.000189171)
(1.04542 0.000111494 3.71151e-06)
(1.0454 0.00020654 0.000392424)
(1.04552 0.000139519 0.000461001)
(1.0454 0.000217404 0.00010153)
(1.04539 0.000237262 -0.000191453)
(1.04544 0.000108844 -1.72623e-05)
(1.04538 0.000232531 0.000376229)
(1.04556 9.3846e-05 0.000419548)
(1.0454 0.000283767 8.51372e-05)
(1.04545 0.000192334 -0.000221818)
(1.0454 0.000157284 -3.28753e-05)
(1.04544 0.000181457 0.000362978)
(1.04549 0.000129138 0.00045707)
(1.04542 0.000262475 0.000124803)
(1.04547 0.000194443 -0.000176412)
(1.04536 0.000180248 1.65604e-05)
(1.04549 0.000167872 0.000352237)
(1.04548 0.000154861 0.000492907)
(1.04539 0.000227211 0.000126048)
(1.04546 0.000249064 -0.00014972)
(1.04535 0.00018043 -4.99905e-07)
(1.04544 0.000196982 0.000391725)
(1.04543 0.000185367 0.00047223)
(1.04544 0.000232433 0.000120576)
(1.04533 0.000253623 -0.000123908)
(1.04536 0.000203751 -2.97585e-05)
(1.04538 0.000204948 0.000423904)
(1.04537 0.000187307 0.000449409)
(1.04543 0.000223801 0.000196308)
(1.04533 0.000221098 -0.000208357)
(1.04539 0.00018782 1.96166e-05)
(1.04541 0.000154383 0.000361108)
(1.04539 0.000219049 0.000472485)
(1.04586 0.000109477 0.000112456)
(1.0457 0.000160654 -5.86155e-05)
(1.04578 0.000153455 3.28824e-05)
(1.04575 0.000124071 0.00019947)
(1.04579 0.000164477 0.000232346)
(1.04583 0.000109996 0.000104809)
(1.04574 0.000197035 -5.77755e-05)
(1.04578 5.19152e-05 4.11908e-05)
(1.04573 0.000168471 0.00019814)
(1.04586 9.70075e-05 0.000238983)
(1.04578 0.000137258 8.86773e-05)
(1.04578 0.000158207 -5.4177e-05)
(1.04578 4.5463e-05 2.80896e-05)
(1.04571 0.000194413 0.000188669)
(1.04589 4.42391e-05 0.000208506)
(1.04578 0.00019924 7.26162e-05)
(1.0458 0.000109612 -6.98307e-05)
(1.04576 8.96151e-05 1.32235e-05)
(1.04575 0.000142463 0.00017362)
(1.04583 7.66267e-05 0.000220697)
(1.0458 0.000180942 8.34448e-05)
(1.04583 0.000106322 -5.8609e-05)
(1.0457 0.000115382 5.29313e-05)
(1.04582 0.000125855 0.000164743)
(1.04582 0.000104918 0.000255967)
(1.04577 0.000145616 8.35754e-05)
(1.04583 0.000154326 -2.6114e-05)
(1.04572 0.000111945 3.07964e-05)
(1.04579 0.000148612 0.0002024)
(1.0458 0.000132368 0.000243736)
(1.04585 0.000143847 8.92744e-05)
(1.04575 0.000157578 -8.25537e-06)
(1.04576 0.000126265 1.18006e-05)
(1.04577 0.000154841 0.000228457)
(1.04577 0.000132464 0.000211118)
(1.04586 0.000146312 0.000150477)
(1.04574 0.000128296 -7.06111e-05)
(1.04577 0.000122608 6.37283e-05)
(1.04576 0.000102797 0.000185117)
(1.04578 0.000167347 0.000244234)
(1.04591 5.31146e-05 7.25262e-05)
(1.04577 9.67301e-05 -1.59674e-06)
(1.04585 0.00010642 5.10635e-05)
(1.04582 8.39614e-05 0.000102255)
(1.04584 0.000123225 0.000106905)
(1.04589 5.12128e-05 6.61206e-05)
(1.0458 0.000141251 -5.05066e-06)
(1.04585 1.50534e-05 5.31875e-05)
(1.04579 0.000136604 9.7781e-05)
(1.0459 6.36307e-05 0.000112494)
(1.04584 7.98231e-05 6.21711e-05)
(1.04584 0.000109054 -3.39581e-06)
(1.04585 6.61275e-06 4.47081e-05)
(1.04577 0.000162961 9.22944e-05)
(1.04592 8.82373e-06 9.19151e-05)
(1.04584 0.00013651 4.66162e-05)
(1.04584 5.89932e-05 -1.03135e-05)
(1.04584 4.70309e-05 3.24233e-05)
(1.04581 0.000113537 8.02488e-05)
(1.04588 3.57213e-05 9.49243e-05)
(1.04585 0.000122696 5.12904e-05)
(1.04588 5.06841e-05 -1.35872e-05)
(1.04577 7.35428e-05 6.68197e-05)
(1.04587 9.33376e-05 7.08549e-05)
(1.04587 6.50457e-05 0.000128035)
(1.04583 8.79723e-05 4.57075e-05)
(1.04589 9.32764e-05 1.91975e-05)
(1.04579 6.6304e-05 4.20307e-05)
(1.04586 0.000108534 0.000106749)
(1.04585 8.98494e-05 0.000117115)
(1.0459 7.99876e-05 5.86682e-05)
(1.04581 9.46488e-05 3.15714e-05)
(1.04583 7.41458e-05 3.03751e-05)
(1.04585 0.000111091 0.000129224)
(1.04583 8.62933e-05 8.5478e-05)
(1.04592 8.9847e-05 0.000105673)
(1.04581 6.81687e-05 -1.5805e-05)
(1.04584 8.31198e-05 7.65734e-05)
(1.04582 6.11434e-05 9.18527e-05)
(1.04584 0.000124045 0.000119645)
(1.04591 1.95747e-05 4.42259e-05)
(1.04579 5.49196e-05 1.17423e-05)
(1.04586 7.53384e-05 4.09881e-05)
(1.04584 4.99965e-05 5.22033e-05)
(1.04584 9.4527e-05 5.08379e-05)
(1.0459 1.35329e-05 4.19633e-05)
(1.04581 0.000104449 7.42362e-06)
(1.04586 -6.45593e-06 4.29298e-05)
(1.04581 0.000109173 4.79572e-05)
(1.0459 4.1257e-05 5.29684e-05)
(1.04585 4.23132e-05 4.5451e-05)
(1.04584 7.97207e-05 4.14192e-06)
(1.04587 -1.65297e-05 3.90127e-05)
(1.04578 0.000135932 4.42993e-05)
(1.04592 -1.08042e-05 4.02214e-05)
(1.04584 9.23572e-05 3.05099e-05)
(1.04584 3.11731e-05 2.07623e-06)
(1.04586 1.94093e-05 2.94755e-05)
(1.04582 9.19627e-05 3.56369e-05)
(1.04588 9.7755e-06 3.95773e-05)
(1.04585 8.56927e-05 3.72936e-05)
(1.04588 1.73173e-05 -6.61175e-06)
(1.04579 4.6647e-05 6.00591e-05)
(1.04588 6.98091e-05 2.56807e-05)
(1.04587 3.84765e-05 6.98166e-05)
(1.04583 5.21463e-05 2.68351e-05)
(1.04589 5.51896e-05 2.5045e-05)
(1.0458 3.69079e-05 3.4786e-05)
(1.04587 7.58647e-05 5.96186e-05)
(1.04585 6.1683e-05 5.78453e-05)
(1.0459 3.8349e-05 4.23644e-05)
(1.04582 5.54047e-05 3.31861e-05)
(1.04585 4.14276e-05 2.75321e-05)
(1.04586 7.56405e-05 7.83148e-05)
(1.04583 5.52669e-05 3.19363e-05)
(1.04592 5.36278e-05 7.79061e-05)
(1.04581 2.93608e-05 -3.68863e-06)
(1.04586 6.00984e-05 6.58012e-05)
(1.04584 2.88176e-05 4.1693e-05)
(1.04584 9.28329e-05 6.50293e-05)