/*--------------------------------*- C++ -*----------------------------------*\
  =========                 |
  \\      /  F ield         | OpenFOAM: The Open Source CFD Toolbox
   \\    /   O peration     | Website:  https://openfoam.org
    \\  /    A nd           | Version:  10
     \\/     M anipulation  |
\*---------------------------------------------------------------------------*/
FoamFile
{
    format      ascii;
    class       volScalarField;
    location    "40";
    object      pMean;
}
// * * * * * * * * * * * * * * * * * * * * * * * * * * * * * * * * * * * * * //

dimensions      [0 2 -2 0 0 0 0];

internalField   nonuniform List<scalar> 
25600
(
-1.29544e-06
-8.35337e-06
2.15543e-06
5.81424e-06
5.26743e-06
2.26489e-07
-3.69355e-06
1.12135e-06
2.82764e-06
4.77848e-06
-4.93849e-07
-1.24224e-06
1.88332e-06
4.33808e-06
7.85912e-06
3.30672e-06
-9.51422e-06
8.71169e-07
7.42061e-06
7.06114e-06
-3.17505e-07
-7.28394e-06
-3.35198e-07
8.35658e-07
7.65492e-07
9.33063e-07
-9.44626e-06
-2.37665e-06
7.51402e-06
3.75135e-06
1.05766e-06
-1.91855e-06
-1.3977e-06
8.46781e-06
4.00751e-06
-9.58295e-07
-5.03002e-06
4.68659e-06
1.04861e-05
2.91961e-06
-1.18765e-06
-8.34046e-06
2.02136e-06
5.84001e-06
5.26404e-06
1.94379e-07
-3.75466e-06
1.21128e-06
2.68974e-06
4.76476e-06
-5.01566e-07
-1.32024e-06
1.82626e-06
4.46164e-06
7.84135e-06
3.38233e-06
-9.59617e-06
7.83731e-07
7.36972e-06
7.05944e-06
-3.86632e-07
-7.20678e-06
-3.26798e-07
9.32485e-07
6.8871e-07
9.26771e-07
-9.42573e-06
-2.40502e-06
7.4746e-06
3.82019e-06
1.09638e-06
-1.96492e-06
-1.43296e-06
8.48033e-06
4.08e-06
-9.13432e-07
-5.05423e-06
4.53812e-06
1.04766e-05
2.96192e-06
-1.12205e-06
-8.47636e-06
1.87411e-06
5.95137e-06
5.36257e-06
2.2386e-07
-3.76926e-06
1.28171e-06
2.69463e-06
4.90496e-06
-4.70741e-07
-1.48256e-06
1.69143e-06
4.65909e-06
7.95565e-06
3.50757e-06
-9.48738e-06
7.38853e-07
7.48086e-06
7.23073e-06
-5.00252e-07
-7.30654e-06
-2.54658e-07
1.14126e-06
7.43129e-07
8.64907e-07
-9.43559e-06
-2.60197e-06
7.57857e-06
3.99811e-06
1.11233e-06
-1.96035e-06
-1.46787e-06
8.47209e-06
4.16671e-06
-8.96163e-07
-5.16242e-06
4.41029e-06
1.06832e-05
3.17689e-06
-1.02823e-06
-8.55892e-06
1.96275e-06
6.16063e-06
5.43722e-06
2.20422e-07
-3.83029e-06
1.28071e-06
2.88169e-06
5.15499e-06
-6.79157e-07
-1.6277e-06
1.64272e-06
4.66276e-06
7.92871e-06
3.4544e-06
-9.39775e-06
7.61947e-07
7.42064e-06
7.53384e-06
-4.52398e-07
-7.5017e-06
-3.62253e-07
1.4003e-06
9.4173e-07
8.91681e-07
-9.42619e-06
-2.60412e-06
7.50184e-06
4.17438e-06
1.26405e-06
-2.15098e-06
-1.53374e-06
8.69344e-06
4.37632e-06
-8.23786e-07
-5.03347e-06
4.30978e-06
1.04672e-05
3.50235e-06
-7.91811e-07
-8.27305e-06
2.02214e-06
6.09733e-06
5.68566e-06
9.26906e-07
-3.60151e-06
1.4047e-06
3.32897e-06
5.32997e-06
-7.15376e-07
-1.89675e-06
1.62002e-06
5.08953e-06
8.02288e-06
3.42308e-06
-8.51267e-06
8.62164e-07
7.72155e-06
7.68185e-06
-5.01173e-07
-6.9153e-06
-2.65798e-07
1.57286e-06
1.48059e-06
1.06991e-06
-9.28993e-06
-2.70077e-06
7.93901e-06
4.20727e-06
1.52362e-06
-2.26944e-06
-1.45937e-06
8.7128e-06
4.32451e-06
-4.76096e-07
-4.15078e-06
4.17941e-06
9.90495e-06
4.31476e-06
-4.40042e-08
-7.32881e-06
2.2007e-06
6.3019e-06
5.64683e-06
6.85254e-07
-3.41108e-06
1.22973e-06
3.606e-06
5.34968e-06
8.34126e-08
-2.2225e-06
1.67643e-06
5.28386e-06
7.58827e-06
3.3825e-06
-7.27092e-06
1.00969e-06
7.73834e-06
7.6052e-06
-5.14976e-07
-7.2396e-06
-9.58245e-08
1.50681e-06
2.02141e-06
1.14519e-06
-7.96054e-06
-2.33652e-06
6.95835e-06
4.17631e-06
1.76541e-06
-2.62971e-06
-1.56859e-06
8.76326e-06
4.9229e-06
-4.40631e-08
-4.29765e-06
3.94124e-06
9.36138e-06
4.2087e-06
4.55251e-07
-5.77497e-06
2.1476e-06
5.66104e-06
6.4997e-06
1.79054e-06
-2.67364e-06
1.38198e-06
4.0966e-06
4.76971e-06
-2.63245e-07
-1.37291e-06
1.78649e-06
5.49611e-06
7.24385e-06
3.47912e-06
-5.68255e-06
1.01893e-06
6.69818e-06
7.4053e-06
-9.01646e-08
-6.56395e-06
-3.70698e-07
2.34785e-06
2.34808e-06
1.03939e-06
-6.96889e-06
-2.39947e-06
6.71727e-06
4.66609e-06
2.48921e-06
-2.49961e-06
-1.21685e-06
8.38074e-06
5.13916e-06
4.54338e-07
-3.3647e-06
3.06922e-06
8.65045e-06
5.28635e-06
1.09146e-06
-5.60911e-06
1.40504e-06
5.09937e-06
5.7925e-06
1.30153e-06
-2.38468e-06
6.33521e-07
2.8239e-06
4.806e-06
6.58122e-07
-1.07367e-06
1.73027e-06
4.62776e-06
6.21353e-06
3.43054e-06
-3.45497e-06
7.87733e-07
5.46439e-06
6.42724e-06
1.00026e-07
-5.24019e-06
-4.41316e-07
2.44819e-06
2.15916e-06
1.499e-06
-5.46146e-06
-2.75735e-06
5.04546e-06
4.1506e-06
2.22526e-06
-2.48593e-06
-1.69575e-06
7.13582e-06
5.35711e-06
1.35867e-06
-2.71307e-06
2.21428e-06
7.59954e-06
5.35048e-06
1.23586e-06
-3.84854e-06
8.10767e-07
4.62728e-06
5.05015e-06
1.89601e-06
-2.07467e-06
2.71787e-07
2.56243e-06
4.04541e-06
9.18864e-07
-4.35287e-07
1.56552e-06
4.28454e-06
4.70236e-06
2.87347e-06
-2.75594e-06
3.03115e-07
3.88071e-06
4.68603e-06
-4.5333e-08
-4.38156e-06
-1.17823e-06
2.08576e-06
1.43698e-06
1.12533e-06
-3.92567e-06
-2.62084e-06
3.81037e-06
3.73789e-06
1.66745e-06
-1.84399e-06
-1.59151e-06
5.35869e-06
4.25262e-06
8.45476e-07
-1.9768e-06
1.48914e-06
6.33973e-06
4.22386e-06
1.14648e-06
-3.44793e-06
1.54658e-07
3.50238e-06
3.45314e-06
9.7958e-07
-1.92348e-06
-2.75994e-07
1.65175e-06
2.91037e-06
8.44277e-07
-4.69667e-07
9.11009e-07
3.03417e-06
3.34734e-06
2.25582e-06
-2.18479e-06
-3.98857e-07
3.00164e-06
3.6235e-06
-2.1854e-07
-4.16815e-06
-1.75825e-06
1.20822e-06
7.85381e-07
7.59996e-07
-2.96576e-06
-2.94263e-06
2.4441e-06
2.42545e-06
9.32213e-07
-1.37301e-06
-1.82811e-06
3.5958e-06
3.59322e-06
1.04374e-06
-1.40095e-06
5.88882e-07
4.71718e-06
3.17207e-06
8.49453e-07
-2.56234e-06
-6.16388e-07
2.09082e-06
2.35874e-06
9.98031e-07
-1.55917e-06
-6.66451e-07
7.2361e-07
2.16382e-06
7.71342e-07
-1.9042e-07
5.03625e-07
1.93235e-06
2.14175e-06
1.39544e-06
-1.7036e-06
-7.50811e-07
1.46014e-06
2.18873e-06
-2.77024e-07
-3.44322e-06
-2.16679e-06
2.27442e-07
5.15568e-08
-5.0962e-08
-2.23101e-06
-2.79321e-06
8.61061e-07
1.55743e-06
5.03202e-07
-1.29858e-06
-2.15266e-06
1.85351e-06
2.4024e-06
3.38516e-07
-1.05321e-06
-1.65392e-07
3.21143e-06
2.33813e-06
6.81568e-07
-1.71129e-06
-7.85395e-07
1.45085e-06
1.50899e-06
8.01475e-07
-1.07802e-06
-7.47618e-07
3.33798e-07
1.51954e-06
7.89694e-07
-7.17952e-08
6.73887e-08
1.22211e-06
1.33302e-06
1.0067e-06
-1.24634e-06
-9.95456e-07
5.72089e-07
1.31553e-06
-1.73571e-07
-2.58763e-06
-2.22684e-06
-4.17024e-07
-3.7891e-07
-2.29e-07
-1.4646e-06
-2.398e-06
-1.44222e-07
8.08263e-07
1.26384e-08
-9.85697e-07
-1.80928e-06
7.20427e-07
1.82629e-06
4.82203e-07
-5.69324e-07
-5.33806e-07
2.11079e-06
1.65144e-06
5.80005e-07
-9.85306e-07
-8.25964e-07
8.41412e-07
1.00965e-06
7.63189e-07
-5.70854e-07
-5.3034e-07
5.51848e-08
1.11135e-06
7.45915e-07
2.06818e-07
1.50548e-07
7.46936e-07
8.21038e-07
6.11248e-07
-9.14333e-07
-9.85277e-07
3.22748e-08
7.16761e-07
-1.11727e-07
-1.87138e-06
-2.01202e-06
-8.16928e-07
-5.20426e-07
-3.62403e-07
-9.34298e-07
-1.89121e-06
-6.80535e-07
2.86338e-07
-5.19572e-08
-7.20605e-07
-1.41407e-06
4.18477e-08
1.20565e-06
3.5517e-07
-2.14839e-07
-4.9727e-07
1.2964e-06
1.27683e-06
5.48241e-07
-3.9907e-07
-5.52502e-07
6.3552e-07
7.42064e-07
7.15245e-07
-1.03665e-07
-2.65523e-07
3.45907e-09
7.80662e-07
7.34247e-07
4.15392e-07
1.65015e-07
4.63718e-07
4.78903e-07
3.45561e-07
-6.36466e-07
-8.59757e-07
-2.54668e-07
3.16255e-07
-7.38416e-08
-1.26584e-06
-1.62699e-06
-9.30514e-07
-6.02827e-07
-3.47263e-07
-5.5685e-07
-1.40445e-06
-8.57855e-07
-6.58515e-08
-1.42675e-07
-5.73418e-07
-1.0363e-06
-2.82027e-07
7.17537e-07
3.89419e-07
5.85517e-08
-2.87594e-07
7.9657e-07
1.01066e-06
4.75627e-07
-5.61215e-08
-3.09374e-07
4.22017e-07
4.97491e-07
6.08401e-07
1.59039e-07
-5.16782e-08
9.51824e-10
5.31804e-07
6.59952e-07
5.11502e-07
2.79749e-07
3.0586e-07
2.41515e-07
1.11857e-07
-4.89726e-07
-7.47606e-07
-4.13173e-07
2.03098e-08
-8.37364e-08
-8.57766e-07
-1.25631e-06
-9.46823e-07
-6.54231e-07
-3.88434e-07
-3.74271e-07
-1.01277e-06
-8.67508e-07
-3.38309e-07
-2.47263e-07
-4.62059e-07
-7.72152e-07
-4.02165e-07
3.22945e-07
3.10585e-07
1.63908e-07
-9.08495e-08
4.61288e-07
7.4464e-07
3.98925e-07
1.25754e-07
-1.0113e-07
3.27627e-07
3.71619e-07
5.04599e-07
3.01078e-07
1.17112e-07
5.52123e-08
3.81129e-07
5.7008e-07
5.46126e-07
3.30454e-07
2.07041e-07
6.86057e-08
-6.90592e-08
-4.2545e-07
-6.4947e-07
-4.78609e-07
-1.60386e-07
-1.30521e-07
-5.98849e-07
-9.64522e-07
-8.88709e-07
-6.74003e-07
-4.11757e-07
-2.87506e-07
-7.23842e-07
-7.98335e-07
-4.81384e-07
-3.5581e-07
-4.06495e-07
-6.09192e-07
-4.39743e-07
4.58221e-08
1.98974e-07
1.96728e-07
2.70969e-08
2.8898e-07
5.33358e-07
3.18501e-07
1.80759e-07
2.82027e-08
2.6128e-07
2.96261e-07
4.12344e-07
3.4298e-07
2.08328e-07
1.07398e-07
2.84693e-07
4.65384e-07
5.04269e-07
3.46004e-07
1.53918e-07
-3.33292e-08
-1.89681e-07
-4.15638e-07
-5.79179e-07
-4.98406e-07
-2.77514e-07
-1.97655e-07
-4.53141e-07
-7.49341e-07
-7.87191e-07
-6.4463e-07
-4.20883e-07
-2.75707e-07
-5.47299e-07
-6.97795e-07
-5.38016e-07
-4.32159e-07
-4.0525e-07
-5.18161e-07
-4.36528e-07
-1.20919e-07
8.30891e-08
1.59187e-07
7.67093e-08
2.01276e-07
3.82822e-07
2.54277e-07
1.89121e-07
1.01943e-07
2.3146e-07
2.53932e-07
3.42341e-07
3.34008e-07
2.47374e-07
1.45166e-07
2.34998e-07
3.78675e-07
4.39767e-07
3.31005e-07
1.25696e-07
-9.36073e-08
-2.52748e-07
-4.09787e-07
-5.22387e-07
-4.90393e-07
-3.41923e-07
-2.5199e-07
-3.73747e-07
-5.93346e-07
-6.73724e-07
-5.84339e-07
-4.201e-07
-2.84563e-07
-4.47176e-07
-5.94362e-07
-5.42403e-07
-4.67592e-07
-4.1187e-07
-4.64566e-07
-4.17384e-07
-2.21018e-07
-1.76694e-08
9.87542e-08
9.42631e-08
1.58424e-07
2.81741e-07
2.0191e-07
1.73494e-07
1.35871e-07
2.0373e-07
2.23995e-07
2.89116e-07
3.01015e-07
2.47993e-07
1.64123e-07
2.00829e-07
3.10077e-07
3.64581e-07
2.89829e-07
9.48689e-08
-1.22531e-07
-2.76235e-07
-3.99249e-07
-4.81134e-07
-4.73232e-07
-3.73899e-07
-2.93573e-07
-3.35827e-07
-4.87027e-07
-5.64344e-07
-5.17915e-07
-4.09493e-07
-2.93076e-07
-3.89966e-07
-5.14459e-07
-5.20079e-07
-4.75466e-07
-4.10977e-07
-4.36322e-07
-4.04932e-07
-2.7664e-07
-9.44512e-08
3.4905e-08
7.66904e-08
1.22192e-07
2.06838e-07
1.63334e-07
1.54228e-07
1.42647e-07
1.81754e-07
1.9818e-07
2.48302e-07
2.60406e-07
2.28596e-07
1.69478e-07
1.72038e-07
2.51201e-07
2.92591e-07
2.38283e-07
6.58913e-08
-1.32606e-07
-2.73664e-07
-3.75507e-07
-4.43244e-07
-4.46498e-07
-3.83082e-07
-3.19196e-07
-3.17607e-07
-4.11976e-07
-4.70203e-07
-4.54568e-07
-3.82058e-07
-2.89436e-07
-3.57061e-07
-4.51721e-07
-4.88168e-07
-4.67814e-07
-4.08219e-07
-4.17778e-07
-3.89568e-07
-3.04444e-07
-1.4661e-07
-2.02043e-08
4.6276e-08
8.72661e-08
1.48714e-07
1.28809e-07
1.3051e-07
1.31029e-07
1.55409e-07
1.68815e-07
2.07753e-07
2.21668e-07
2.02975e-07
1.60899e-07
1.451e-07
1.99835e-07
2.25576e-07
1.81127e-07
3.26638e-08
-1.38328e-07
-2.62558e-07
-3.46876e-07
-4.04813e-07
-4.15338e-07
-3.79787e-07
-3.33155e-07
-3.09666e-07
-3.63134e-07
-3.98909e-07
-3.97789e-07
-3.47186e-07
-2.8235e-07
-3.36094e-07
-4.01685e-07
-4.49529e-07
-4.48226e-07
-4.0227e-07
-4.04878e-07
-3.75758e-07
-3.15273e-07
-1.84604e-07
-6.81773e-08
8.45627e-09
5.33922e-08
1.02631e-07
9.74662e-08
1.08197e-07
1.14655e-07
1.3137e-07
1.39791e-07
1.70167e-07
1.84336e-07
1.70677e-07
1.42728e-07
1.23395e-07
1.54438e-07
1.6542e-07
1.25965e-07
3.90359e-09
-1.34648e-07
-2.44022e-07
-3.10934e-07
-3.69552e-07
-3.8126e-07
-3.64203e-07
-3.35585e-07
-3.0074e-07
-3.30945e-07
-3.44965e-07
-3.51634e-07
-3.18822e-07
-2.70413e-07
-3.17053e-07
-3.62535e-07
-4.08585e-07
-4.21464e-07
-3.897e-07
-3.91359e-07
-3.64476e-07
-3.19154e-07
-2.13009e-07
-1.0967e-07
-2.83306e-08
2.25467e-08
6.48966e-08
6.73235e-08
8.17781e-08
8.85952e-08
1.05594e-07
1.11834e-07
1.3562e-07
1.48584e-07
1.33157e-07
1.15046e-07
9.98892e-08
1.12777e-07
1.15288e-07
7.92052e-08
-1.3708e-08
-1.22716e-07
-2.25264e-07
-2.79395e-07
-3.37172e-07
-3.49803e-07
-3.44048e-07
-3.30487e-07
-2.94207e-07
-3.10121e-07
-3.0777e-07
-3.15295e-07
-2.99531e-07
-2.61824e-07
-2.98177e-07
-3.28378e-07
-3.67362e-07
-3.89536e-07
-3.73237e-07
-3.7552e-07
-3.52024e-07
-3.168e-07
-2.32967e-07
-1.4358e-07
-6.33161e-08
-6.90838e-09
3.31467e-08
3.84212e-08
5.34446e-08
6.06946e-08
8.04847e-08
8.542e-08
1.02815e-07
1.17042e-07
1.01336e-07
8.7987e-08
7.70931e-08
7.20354e-08
7.46893e-08
3.91028e-08
-3.18275e-08
-1.15537e-07
-2.0769e-07
-2.49113e-07
-3.02493e-07
-3.17026e-07
-3.19614e-07
-3.15806e-07
-2.84606e-07
-2.92307e-07
-2.83376e-07
-2.84751e-07
-2.80274e-07
-2.52064e-07
-2.82711e-07
-3.05016e-07
-3.3416e-07
-3.57627e-07
-3.51368e-07
-3.55523e-07
-3.39225e-07
-3.10052e-07
-2.45223e-07
-1.70437e-07
-9.30468e-08
-3.51325e-08
4.13986e-09
9.10875e-09
2.59558e-08
3.30488e-08
5.54124e-08
5.90798e-08
6.89223e-08
8.71911e-08
7.21702e-08
6.4034e-08
5.88296e-08
3.79983e-08
4.07255e-08
2.50136e-09
-5.24158e-08
-1.16372e-07
-1.93757e-07
-2.24245e-07
-2.7152e-07
-2.85161e-07
-2.93141e-07
-2.98637e-07
-2.76612e-07
-2.78925e-07
-2.66483e-07
-2.59596e-07
-2.63733e-07
-2.44347e-07
-2.6991e-07
-2.87632e-07
-3.06397e-07
-3.27026e-07
-3.25635e-07
-3.30325e-07
-3.23351e-07
-2.96999e-07
-2.49931e-07
-1.90929e-07
-1.18988e-07
-6.49637e-08
-2.46705e-08
-2.30926e-08
-3.92084e-10
8.26609e-09
3.25938e-08
3.65743e-08
3.61398e-08
5.96116e-08
4.37768e-08
4.33755e-08
4.51739e-08
1.49137e-08
1.66615e-08
-2.53984e-08
-6.72994e-08
-1.18228e-07
-1.80915e-07
-2.04403e-07
-2.4695e-07
-2.59201e-07
-2.67772e-07
-2.76358e-07
-2.60208e-07
-2.60193e-07
-2.54606e-07
-2.43693e-07
-2.53177e-07
-2.39803e-07
-2.57464e-07
-2.73788e-07
-2.85031e-07
-3.03225e-07
-3.04436e-07
-3.05276e-07
-3.06262e-07
-2.80891e-07
-2.50438e-07
-2.06642e-07
-1.42024e-07
-9.70278e-08
-5.39954e-08
-5.80596e-08
-2.95628e-08
-2.0329e-08
4.19024e-09
1.21952e-08
6.22541e-09
3.39444e-08
1.41796e-08
1.70681e-08
2.28673e-08
-8.56822e-09
-3.85028e-09
-4.63171e-08
-7.45411e-08
-1.15466e-07
-1.64069e-07
-1.82804e-07
-2.20622e-07
-2.31982e-07
-2.38716e-07
-2.4713e-07
-2.40181e-07
-2.39402e-07
-2.44942e-07
-2.34324e-07
-2.46094e-07
-2.3941e-07
-2.48535e-07
-2.65693e-07
-2.70429e-07
-2.84496e-07
-2.86455e-07
-2.80106e-07
-2.90226e-07
-2.64117e-07
-2.45935e-07
-2.13882e-07
-1.57927e-07
-1.25675e-07
-8.13003e-08
-8.65725e-08
-5.59959e-08
-4.68307e-08
-2.477e-08
-1.22374e-08
-2.14201e-08
9.42072e-09
-1.24902e-08
-7.0831e-09
-1.93012e-09
-2.79504e-08
-2.01862e-08
-5.65082e-08
-7.18719e-08
-1.0838e-07
-1.43201e-07
-1.62491e-07
-1.93443e-07
-2.04624e-07
-2.14352e-07
-2.24759e-07
-2.27861e-07
-2.24969e-07
-2.38128e-07
-2.27128e-07
-2.36225e-07
-2.38611e-07
-2.36749e-07
-2.58548e-07
-2.58751e-07
-2.69527e-07
-2.74851e-07
-2.61747e-07
-2.78232e-07
-2.50292e-07
-2.43032e-07
-2.19007e-07
-1.7107e-07
-1.49804e-07
-1.03543e-07
-1.13874e-07
-8.40485e-08
-7.56014e-08
-5.69538e-08
-4.15964e-08
-4.96451e-08
-1.9208e-08
-3.74736e-08
-2.71836e-08
-2.55552e-08
-4.28481e-08
-3.66039e-08
-6.57418e-08
-6.77066e-08
-1.02045e-07
-1.20408e-07
-1.42184e-07
-1.64148e-07
-1.7769e-07
-1.89947e-07
-1.98828e-07
-2.11782e-07
-2.04866e-07
-2.25394e-07
-2.16891e-07
-2.23023e-07
-2.37986e-07
-2.2688e-07
-2.52474e-07
-2.52296e-07
-2.58708e-07
-2.68496e-07
-2.50492e-07
-2.71265e-07
-2.39627e-07
-2.40463e-07
-2.20718e-07
-1.80617e-07
-1.68051e-07
-1.23791e-07
-1.37404e-07
-1.10554e-07
-9.91572e-08
-8.41653e-08
-6.94081e-08
-7.28093e-08
-4.87832e-08
-6.05831e-08
-4.56208e-08
-4.88312e-08
-5.21628e-08
-5.04609e-08
-7.09132e-08
-6.46594e-08
-9.71004e-08
-1.0074e-07
-1.25324e-07
-1.39149e-07
-1.54089e-07
-1.6915e-07
-1.74181e-07
-1.95832e-07
-1.84136e-07
-2.11177e-07
-2.07683e-07
-2.0963e-07
-2.36319e-07
-2.19381e-07
-2.46026e-07
-2.4825e-07
-2.49574e-07
-2.62883e-07
-2.44683e-07
-2.64751e-07
-2.3484e-07
-2.37469e-07
-2.21272e-07
-1.88621e-07
-1.82525e-07
-1.43036e-07
-1.54755e-07
-1.37653e-07
-1.2135e-07
-1.11042e-07
-1.00827e-07
-9.31956e-08
-8.17449e-08
-8.28741e-08
-6.37251e-08
-7.11802e-08
-5.83729e-08
-6.00326e-08
-6.96366e-08
-6.01133e-08
-8.64087e-08
-8.36183e-08
-1.05406e-07
-1.12984e-07
-1.27874e-07
-1.43424e-07
-1.48547e-07
-1.75811e-07
-1.67454e-07
-1.95456e-07
-2.01313e-07
-1.9742e-07
-2.32033e-07
-2.14627e-07
-2.37723e-07
-2.4574e-07
-2.44037e-07
-2.57725e-07
-2.46641e-07
-2.58135e-07
-2.37964e-07
-2.37289e-07
-2.24584e-07
-2.00791e-07
-1.92173e-07
-1.63887e-07
-1.69791e-07
-1.63532e-07
-1.46009e-07
-1.34798e-07
-1.35462e-07
-1.10692e-07
-1.14908e-07
-1.01905e-07
-8.19988e-08
-8.88856e-08
-6.62234e-08
-6.83646e-08
-6.4774e-08
-5.87047e-08
-6.77615e-08
-6.88015e-08
-8.15071e-08
-8.7165e-08
-1.04477e-07
-1.16349e-07
-1.27631e-07
-1.51419e-07
-1.53839e-07
-1.76446e-07
-1.92489e-07
-1.88407e-07
-2.21123e-07
-2.16333e-07
-2.27768e-07
-2.45571e-07
-2.40858e-07
-2.51448e-07
-2.53159e-07
-2.50871e-07
-2.47627e-07
-2.39662e-07
-2.28612e-07
-2.17391e-07
-1.9786e-07
-1.87277e-07
-4.07248e-06
-7.07875e-06
-2.39994e-06
1.94953e-06
3.83625e-06
-1.94517e-07
-5.10822e-06
3.66359e-07
6.01914e-06
2.46969e-06
-4.2506e-06
-9.58628e-06
-5.83423e-06
-1.23689e-06
-2.23927e-06
-7.58118e-06
-7.5874e-06
-6.10682e-06
5.81751e-06
5.87196e-06
-6.9465e-07
-7.37645e-06
-4.32023e-06
1.6829e-06
5.49315e-06
-1.14289e-06
-6.01415e-06
-2.18923e-06
2.67e-06
1.62827e-06
-3.23725e-06
-5.81027e-06
-5.29932e-06
7.62735e-07
3.41873e-06
-5.00627e-06
-7.33144e-06
-3.37415e-06
3.50404e-06
4.10952e-06
-4.0673e-06
-7.24926e-06
-2.48397e-06
1.77847e-06
3.92395e-06
-2.65169e-07
-5.13933e-06
2.83077e-07
6.09636e-06
2.40366e-06
-4.2545e-06
-9.63317e-06
-5.85747e-06
-1.32751e-06
-2.11815e-06
-7.68089e-06
-7.72163e-06
-6.09984e-06
5.74359e-06
5.62863e-06
-6.93659e-07
-7.47308e-06
-4.34213e-06
1.62711e-06
5.43343e-06
-1.30344e-06
-6.05612e-06
-2.33258e-06
2.70135e-06
1.49109e-06
-3.31414e-06
-5.85039e-06
-5.27501e-06
6.82373e-07
3.45471e-06
-5.06011e-06
-7.31296e-06
-3.49483e-06
3.57974e-06
4.01965e-06
-4.1511e-06
-7.47668e-06
-2.58962e-06
1.71555e-06
3.90206e-06
-3.44247e-07
-5.25579e-06
1.60449e-07
6.07797e-06
2.27726e-06
-4.24551e-06
-9.71495e-06
-5.87934e-06
-1.48866e-06
-2.15766e-06
-7.79357e-06
-7.95641e-06
-6.15615e-06
5.66163e-06
5.45877e-06
-8.22446e-07
-7.49217e-06
-4.47795e-06
1.72845e-06
5.58742e-06
-1.48365e-06
-6.22792e-06
-2.49879e-06
2.63052e-06
1.43101e-06
-3.43621e-06
-6.04287e-06
-5.2843e-06
5.99608e-07
3.49774e-06
-5.19016e-06
-7.32785e-06
-3.63935e-06
3.6321e-06
3.96805e-06
-4.36768e-06
-7.4269e-06
-2.79364e-06
1.78978e-06
4.22911e-06
-2.56743e-07
-5.25949e-06
1.26184e-08
5.81285e-06
1.99478e-06
-4.29122e-06
-9.76773e-06
-6.07351e-06
-1.58221e-06
-2.04318e-06
-7.99363e-06
-8.19246e-06
-6.38297e-06
5.59248e-06
5.32822e-06
-9.05468e-07
-7.8062e-06
-4.59597e-06
1.45233e-06
5.4031e-06
-1.78448e-06
-6.38079e-06
-2.67041e-06
2.54928e-06
1.60048e-06
-3.68848e-06
-6.31167e-06
-5.36221e-06
5.16063e-07
3.26296e-06
-5.47345e-06
-7.49388e-06
-3.88534e-06
3.65806e-06
3.75765e-06
-4.57851e-06
-7.69169e-06
-3.08934e-06
1.64563e-06
3.68513e-06
-5.87953e-07
-5.25129e-06
-3.20304e-07
5.13659e-06
2.12945e-06
-4.26047e-06
-1.03085e-05
-6.38962e-06
-1.97769e-06
-2.18235e-06
-8.2393e-06
-8.36648e-06
-6.1854e-06
5.53329e-06
5.1905e-06
-1.43798e-06
-7.57838e-06
-4.59897e-06
1.83393e-06
5.29796e-06
-1.65336e-06
-6.60327e-06
-2.90055e-06
2.25076e-06
1.69261e-06
-4.02355e-06
-6.80148e-06
-5.39141e-06
3.70338e-07
2.75542e-06
-5.57061e-06
-7.8125e-06
-4.15756e-06
3.41011e-06
3.56773e-06
-4.76481e-06
-7.15485e-06
-3.43271e-06
1.78452e-06
3.66176e-06
3.56691e-07
-5.0558e-06
-7.97763e-07
3.99243e-06
1.61402e-06
-4.19666e-06
-9.17053e-06
-6.50193e-06
-1.97121e-06
-2.32833e-06
-8.22559e-06
-8.9679e-06
-6.53531e-06
4.94621e-06
4.62363e-06
-1.51819e-06
-7.7867e-06
-4.66393e-06
1.58067e-06
4.34068e-06
-2.11328e-06
-6.89072e-06
-3.11752e-06
1.60446e-06
1.65452e-06
-4.42288e-06
-7.01387e-06
-5.53465e-06
7.71281e-08
2.05593e-06
-5.8046e-06
-7.01001e-06
-4.1348e-06
3.52202e-06
2.79783e-06
-4.80977e-06
-6.79381e-06
-3.23227e-06
1.4427e-06
2.86461e-06
-9.54721e-07
-5.38363e-06
-1.36191e-06
2.79433e-06
1.97414e-06
-3.48296e-06
-9.94721e-06
-6.74204e-06
-2.10299e-06
-2.01611e-06
-8.28911e-06
-8.27615e-06
-6.13594e-06
3.98554e-06
3.77556e-06
-2.13095e-06
-7.68163e-06
-4.64452e-06
6.93158e-07
3.49261e-06
-1.68975e-06
-5.81864e-06
-3.22545e-06
2.01683e-06
1.64068e-06
-4.8928e-06
-6.57797e-06
-5.19664e-06
-1.54678e-07
1.24793e-06
-5.20561e-06
-7.05625e-06
-4.38956e-06
3.09765e-06
2.72945e-06
-4.29379e-06
-6.51095e-06
-3.48633e-06
1.16556e-06
2.10321e-06
7.95874e-07
-5.14001e-06
-2.29945e-06
1.65218e-06
1.62277e-06
-3.20739e-06
-7.76261e-06
-6.43603e-06
-2.2673e-06
-2.78306e-06
-7.53122e-06
-7.41469e-06
-6.03826e-06
2.47678e-06
2.84414e-06
-1.84897e-06
-6.96584e-06
-4.2114e-06
-7.21585e-07
2.36115e-06
-1.62947e-06
-6.19283e-06
-3.69156e-06
6.26903e-07
1.26176e-06
-4.65562e-06
-6.4412e-06
-5.2189e-06
-1.07828e-06
6.25033e-07
-4.49871e-06
-6.19251e-06
-3.96027e-06
1.77707e-06
1.60762e-06
-3.30967e-06
-5.81929e-06
-2.81526e-06
1.37664e-07
1.36644e-06
-5.39242e-07
-3.95668e-06
-1.90998e-06
6.63283e-07
1.41291e-06
-2.24668e-06
-6.03511e-06
-5.93635e-06
-2.56758e-06
-1.90296e-06
-6.7074e-06
-6.51321e-06
-5.51854e-06
1.0825e-06
1.84441e-06
-1.54495e-06
-6.07043e-06
-4.03743e-06
-1.03573e-06
1.34852e-06
-1.45792e-06
-4.17968e-06
-3.06061e-06
2.55763e-07
1.11986e-06
-4.18718e-06
-5.4474e-06
-4.82563e-06
-1.1943e-06
-9.89918e-08
-3.63609e-06
-4.92116e-06
-3.89807e-06
1.32058e-06
1.5546e-06
-2.30086e-06
-4.16536e-06
-2.5641e-06
7.47678e-07
9.10924e-07
9.32563e-07
-3.12259e-06
-1.94725e-06
5.51966e-07
1.33727e-06
-7.03275e-07
-4.28252e-06
-5.01332e-06
-2.71373e-06
-2.20143e-06
-5.37112e-06
-5.42777e-06
-4.75875e-06
2.28752e-07
1.44729e-06
-9.81956e-07
-4.67807e-06
-3.31896e-06
-1.33997e-06
8.01974e-07
-6.72274e-07
-3.45795e-06
-2.87824e-06
2.83314e-07
1.2917e-06
-3.16941e-06
-4.47361e-06
-4.1093e-06
-1.58675e-06
-2.12828e-07
-2.74867e-06
-4.16005e-06
-3.20007e-06
8.3317e-07
7.16523e-07
-1.26567e-06
-3.32972e-06
-1.99249e-06
3.15894e-07
8.27862e-07
6.22495e-07
-1.88777e-06
-1.25164e-06
5.72698e-07
1.52083e-06
-1.32982e-07
-2.67831e-06
-3.67872e-06
-2.51986e-06
-1.43774e-06
-3.90574e-06
-4.10725e-06
-3.69373e-06
-1.03675e-07
1.1519e-06
-3.50516e-07
-3.24723e-06
-2.71962e-06
-1.03759e-06
8.93912e-07
-2.79717e-08
-1.87775e-06
-1.64188e-06
2.33799e-08
1.10374e-06
-2.00356e-06
-3.41524e-06
-3.30168e-06
-1.44208e-06
-3.90431e-08
-1.76485e-06
-2.56521e-06
-2.30107e-06
5.43146e-07
1.18313e-06
-6.65738e-07
-1.90205e-06
-1.33321e-06
6.95885e-07
7.22684e-07
1.18186e-06
-6.70268e-07
-6.97646e-07
6.77727e-07
1.36007e-06
6.84455e-07
-1.3672e-06
-2.50055e-06
-2.13331e-06
-1.09742e-06
-2.82606e-06
-3.0152e-06
-2.83172e-06
-2.89762e-07
8.94912e-07
1.70514e-07
-2.11603e-06
-1.9127e-06
-8.2778e-07
5.84152e-07
4.70378e-07
-9.62204e-07
-1.20797e-06
-9.97705e-08
1.15846e-06
-9.96129e-07
-2.27061e-06
-2.16824e-06
-1.1011e-06
9.2935e-08
-1.01984e-06
-1.67851e-06
-1.56802e-06
3.58231e-07
9.54069e-07
-1.78614e-07
-1.18704e-06
-9.26171e-07
4.4094e-07
6.62663e-07
1.01035e-06
2.49178e-09
-2.86753e-07
5.45192e-07
1.17304e-06
8.16893e-07
-6.17838e-07
-1.632e-06
-1.84611e-06
-1.01374e-06
-2.05494e-06
-2.26229e-06
-2.21466e-06
-4.6191e-07
5.82163e-07
2.36249e-07
-1.29769e-06
-1.35116e-06
-6.5174e-07
3.52126e-07
6.0233e-07
-3.74314e-07
-6.62299e-07
-1.69403e-07
7.59449e-07
-4.21058e-07
-1.47761e-06
-1.49822e-06
-9.18369e-07
1.09622e-08
-5.66245e-07
-9.40904e-07
-1.05427e-06
1.93508e-07
8.85465e-07
-8.37613e-08
-6.52246e-07
-6.10476e-07
4.15665e-07
5.60728e-07
9.38524e-07
4.27207e-07
-3.30574e-08
4.20226e-07
8.32435e-07
8.80403e-07
-1.27094e-07
-1.01119e-06
-1.54012e-06
-1.01671e-06
-1.58037e-06
-1.7707e-06
-1.77771e-06
-6.35707e-07
1.77345e-07
1.38083e-07
-7.94715e-07
-1.00972e-06
-6.18722e-07
5.5001e-08
4.56391e-07
-4.58716e-08
-4.24038e-07
-2.97578e-07
3.79455e-07
-1.29444e-07
-9.11754e-07
-1.00896e-06
-7.71867e-07
-1.52424e-07
-3.3135e-07
-5.78848e-07
-6.90029e-07
2.41553e-08
5.97619e-07
3.99762e-08
-3.10807e-07
-3.27528e-07
2.83456e-07
4.40125e-07
7.45095e-07
5.59999e-07
1.3326e-07
3.19499e-07
6.11968e-07
7.69816e-07
1.29985e-07
-6.00091e-07
-1.24403e-06
-1.03109e-06
-1.29882e-06
-1.41733e-06
-1.4486e-06
-7.46043e-07
-1.53183e-07
-4.20081e-08
-5.53014e-07
-7.62946e-07
-5.70946e-07
-1.43873e-07
2.77112e-07
7.81762e-08
-2.6602e-07
-2.99324e-07
1.11516e-07
-5.0442e-08
-5.10807e-07
-6.68766e-07
-6.32444e-07
-2.5994e-07
-2.39779e-07
-3.25203e-07
-4.46798e-07
-5.2444e-08
3.65898e-07
6.98105e-08
-1.22468e-07
-1.39096e-07
2.27269e-07
3.63283e-07
6.01382e-07
5.99404e-07
2.59533e-07
3.02655e-07
4.57639e-07
6.54878e-07
2.62083e-07
-3.20865e-07
-9.47823e-07
-9.63894e-07
-1.09376e-06
-1.15572e-06
-1.19788e-06
-7.7049e-07
-3.50746e-07
-1.98483e-07
-4.41094e-07
-5.88913e-07
-4.97014e-07
-2.60929e-07
9.22662e-08
8.30493e-08
-1.76638e-07
-2.84851e-07
-7.08052e-08
-5.93205e-08
-2.77958e-07
-4.46247e-07
-5.02358e-07
-3.15528e-07
-2.17562e-07
-2.00839e-07
-2.71819e-07
-6.39418e-08
2.22159e-07
8.60492e-08
-2.97911e-09
-2.03086e-09
2.06188e-07
3.05998e-07
4.89265e-07
5.50653e-07
3.22439e-07
2.92135e-07
3.71008e-07
5.30472e-07
2.81991e-07
-1.60076e-07
-7.09046e-07
-8.6244e-07
-9.44613e-07
-9.66966e-07
-1.0015e-06
-7.44168e-07
-4.71533e-07
-3.33335e-07
-4.25112e-07
-4.90359e-07
-4.34892e-07
-3.23865e-07
-5.90608e-08
2.65132e-08
-1.42531e-07
-2.56847e-07
-1.69071e-07
-8.51774e-08
-1.74225e-07
-2.90328e-07
-3.83212e-07
-3.20606e-07
-2.23033e-07
-1.48847e-07
-1.63172e-07
-4.90809e-08
1.28678e-07
9.18203e-08
5.35336e-08
7.16517e-08
1.93339e-07
2.70138e-07
4.01214e-07
4.77705e-07
3.40856e-07
2.90525e-07
3.16572e-07
4.27258e-07
2.67462e-07
-6.71908e-08
-5.12685e-07
-7.29605e-07
-8.16243e-07
-8.28082e-07
-8.53817e-07
-6.8858e-07
-5.20713e-07
-4.16611e-07
-4.2959e-07
-4.41454e-07
-3.90594e-07
-3.42749e-07
-1.64419e-07
-5.26385e-08
-1.6069e-07
-2.44183e-07
-2.18214e-07
-1.27789e-07
-1.38585e-07
-2.02718e-07
-2.8918e-07
-3.04779e-07
-2.27368e-07
-1.32798e-07
-1.04563e-07
-2.98078e-08
8.6338e-08
8.97122e-08
7.72571e-08
1.12015e-07
1.86583e-07
2.42823e-07
3.37052e-07
4.02724e-07
3.26351e-07
2.77152e-07
2.78855e-07
3.47361e-07
2.30446e-07
-2.49105e-08
-3.71445e-07
-5.95123e-07
-6.9951e-07
-7.18756e-07
-7.43017e-07
-6.30268e-07
-5.26683e-07
-4.59447e-07
-4.4638e-07
-4.34303e-07
-3.77796e-07
-3.49185e-07
-2.3063e-07
-1.3067e-07
-1.95985e-07
-2.39735e-07
-2.39251e-07
-1.67583e-07
-1.39407e-07
-1.6923e-07
-2.2794e-07
-2.72369e-07
-2.23331e-07
-1.36096e-07
-8.28025e-08
-1.4143e-08
6.35959e-08
8.61479e-08
8.38483e-08
1.22877e-07
1.73217e-07
2.18331e-07
2.92394e-07
3.36273e-07
2.9263e-07
2.5419e-07
2.49523e-07
2.82566e-07
1.91676e-07
-3.8988e-09
-2.70689e-07
-4.79022e-07
-5.95245e-07
-6.23867e-07
-6.44478e-07
-5.68356e-07
-5.10699e-07
-4.74184e-07
-4.5277e-07
-4.33074e-07
-3.7162e-07
-3.44603e-07
-2.70549e-07
-1.89742e-07
-2.34853e-07
-2.49444e-07
-2.50891e-07
-1.94281e-07
-1.51363e-07
-1.6556e-07
-2.00151e-07
-2.44134e-07
-2.15156e-07
-1.46127e-07
-8.03348e-08
-9.85325e-09
4.93157e-08
7.81643e-08
8.22074e-08
1.20195e-07
1.60515e-07
1.96328e-07
2.52557e-07
2.76438e-07
2.46726e-07
2.21091e-07
2.18092e-07
2.28757e-07
1.56219e-07
3.93939e-09
-1.98865e-07
-3.82734e-07
-4.99757e-07
-5.3682e-07
-5.60981e-07
-5.15026e-07
-4.86339e-07
-4.70139e-07
-4.46796e-07
-4.27641e-07
-3.71948e-07
-3.41305e-07
-2.97043e-07
-2.33652e-07
-2.65151e-07
-2.6194e-07
-2.61612e-07
-2.15832e-07
-1.6885e-07
-1.75527e-07
-1.91361e-07
-2.23462e-07
-2.04262e-07
-1.526e-07
-8.78746e-08
-1.43423e-08
3.71893e-08
6.3911e-08
7.4911e-08
1.07483e-07
1.44999e-07
1.71122e-07
2.08688e-07
2.2202e-07
2.00065e-07
1.87868e-07
1.8708e-07
1.80394e-07
1.25006e-07
6.3832e-09
-1.4593e-07
-3.03037e-07
-4.16754e-07
-4.62338e-07
-4.93896e-07
-4.66838e-07
-4.52658e-07
-4.47018e-07
-4.28365e-07
-4.15164e-07
-3.71865e-07
-3.39556e-07
-3.10858e-07
-2.57102e-07
-2.80855e-07
-2.71244e-07
-2.70417e-07
-2.35488e-07
-1.89094e-07
-1.87263e-07
-1.8922e-07
-2.10421e-07
-1.97289e-07
-1.59753e-07
-9.98783e-08
-2.82809e-08
2.13982e-08
4.41292e-08
6.31385e-08
9.14785e-08
1.26035e-07
1.4586e-07
1.66336e-07
1.79761e-07
1.60127e-07
1.56123e-07
1.56627e-07
1.3884e-07
1.01468e-07
3.40064e-09
-1.13678e-07
-2.44017e-07
-3.49347e-07
-3.97061e-07
-4.36629e-07
-4.23186e-07
-4.17367e-07
-4.16551e-07
-4.00311e-07
-3.93613e-07
-3.6118e-07
-3.30064e-07
-3.14265e-07
-2.69197e-07
-2.88927e-07
-2.79856e-07
-2.78658e-07
-2.52723e-07
-2.09016e-07
-2.0271e-07
-1.96855e-07
-2.04051e-07
-1.91596e-07
-1.64864e-07
-1.15178e-07
-5.18302e-08
7.3957e-11
1.74669e-08
4.40108e-08
6.78691e-08
9.86538e-08
1.15436e-07
1.26681e-07
1.45924e-07
1.25397e-07
1.23779e-07
1.26206e-07
1.01478e-07
7.82511e-08
-3.9429e-09
-9.44636e-08
-1.94513e-07
-2.94322e-07
-3.39509e-07
-3.84091e-07
-3.79679e-07
-3.77621e-07
-3.82319e-07
-3.68403e-07
-3.67929e-07
-3.44778e-07
-3.17305e-07
-3.1094e-07
-2.75161e-07
-2.91218e-07
-2.84542e-07
-2.83265e-07
-2.6723e-07
-2.28436e-07
-2.17202e-07
-2.06939e-07
-2.03574e-07
-1.90076e-07
-1.673e-07
-1.24314e-07
-7.38802e-08
-2.41192e-08
-8.65711e-09
2.06265e-08
3.87942e-08
7.03576e-08
8.6103e-08
9.09718e-08
1.14563e-07
8.92668e-08
8.64334e-08
8.89324e-08
6.32648e-08
5.24828e-08
-1.35973e-08
-8.12837e-08
-1.55585e-07
-2.45943e-07
-2.84906e-07
-3.33751e-07
-3.36143e-07
-3.39009e-07
-3.50384e-07
-3.39183e-07
-3.39727e-07
-3.22676e-07
-3.00043e-07
-2.99101e-07
-2.74114e-07
-2.86665e-07
-2.83281e-07
-2.8083e-07
-2.74852e-07
-2.44625e-07
-2.32607e-07
-2.22323e-07
-2.09412e-07
-1.94512e-07
-1.71276e-07
-1.30195e-07
-9.12515e-08
-4.604e-08
-3.66471e-08
-5.47693e-09
8.04961e-09
3.77761e-08
5.30773e-08
5.21784e-08
8.04739e-08
5.61011e-08
5.49097e-08
5.76273e-08
2.75885e-08
2.73058e-08
-2.53833e-08
-7.25207e-08
-1.27306e-07
-2.02825e-07
-2.3599e-07
-2.87064e-07
-2.97671e-07
-3.05136e-07
-3.17534e-07
-3.07604e-07
-3.0731e-07
-2.9794e-07
-2.81742e-07
-2.86385e-07
-2.71234e-07
-2.7714e-07
-2.7843e-07
-2.74862e-07
-2.76295e-07
-2.56394e-07
-2.43713e-07
-2.38939e-07
-2.17715e-07
-2.02147e-07
-1.76659e-07
-1.35507e-07
-1.06091e-07
-6.58738e-08
-6.3848e-08
-3.14489e-08
-2.04867e-08
6.74185e-09
2.29156e-08
1.8317e-08
4.87672e-08
2.72583e-08
2.88572e-08
3.3271e-08
-7.95234e-10
2.86872e-09
-4.16594e-08
-7.27127e-08
-1.1419e-07
-1.75012e-07
-2.01363e-07
-2.45541e-07
-2.58188e-07
-2.68442e-07
-2.80282e-07
-2.76553e-07
-2.75843e-07
-2.78148e-07
-2.66503e-07