/*--------------------------------*- C++ -*----------------------------------*\
  =========                 |
  \\      /  F ield         | OpenFOAM: The Open Source CFD Toolbox
   \\    /   O peration     | Website:  https://openfoam.org
    \\  /    A nd           | Version:  10
     \\/     M anipulation  |
\*---------------------------------------------------------------------------*/
FoamFile
{
    format      ascii;
    class       volSymmTensorField;
    location    "40";
    object      UPrime2Mean;
}
// * * * * * * * * * * * * * * * * * * * * * * * * * * * * * * * * * * * * * //

dimensions      [0 2 -2 0 0 0 0];

internalField   nonuniform List<symmTensor> 
25600
(
(0.000129265 9.5892e-09 -8.78747e-07 8.81673e-12 -8.29378e-11 2.10732e-07)
(0.000128821 1.483e-08 2.3796e-06 8.5168e-12 4.92913e-10 3.25249e-07)
(0.00012875 -1.01031e-08 2.55904e-06 7.02436e-12 -7.43405e-11 2.84866e-07)
(0.000128956 -5.63289e-09 -3.74319e-07 9.00832e-12 4.06177e-10 2.41297e-07)
(0.000128689 1.07657e-09 -2.79635e-06 8.85042e-12 1.73425e-10 3.50278e-07)
(0.000128858 -4.60882e-09 -1.09317e-06 9.40773e-12 1.11079e-10 2.08496e-07)
(0.000128894 4.50641e-09 2.26577e-06 5.13933e-12 5.81132e-10 2.81753e-07)
(0.000129425 3.44896e-09 2.25294e-06 6.97479e-12 4.71466e-10 2.56799e-07)
(0.000129639 -9.58605e-09 -2.8809e-07 8.07065e-12 4.90973e-10 2.71019e-07)
(0.000129096 -6.30213e-09 -2.93389e-06 6.00096e-12 3.5033e-10 3.85318e-07)
(0.000129613 4.3544e-10 -1.12027e-06 5.66249e-12 2.97502e-10 2.45762e-07)
(0.000129292 5.53778e-10 2.34571e-06 3.10496e-12 2.75015e-10 3.60048e-07)
(0.000128859 -4.10145e-09 2.56996e-06 3.40824e-12 2.20631e-10 2.90746e-07)
(0.000128495 -5.1046e-10 -3.5623e-07 6.96278e-12 4.09709e-10 2.4337e-07)
(0.000129025 -8.83867e-09 -2.96281e-06 1.05819e-11 6.7398e-10 3.76573e-07)
(0.000128918 3.00191e-09 -8.78096e-07 1.51642e-11 2.54907e-10 2.49272e-07)
(0.000128531 9.09725e-09 2.22507e-06 1.34135e-11 2.85175e-10 3.32281e-07)
(0.000129098 -1.44478e-08 2.5867e-06 1.34925e-11 -3.88685e-10 3.08109e-07)
(0.000129387 -6.78991e-09 -9.48075e-07 1.87545e-11 1.30405e-10 3.10668e-07)
(0.000128748 -8.31348e-09 -3.27974e-06 1.06929e-11 2.58291e-10 4.30974e-07)
(0.000129996 -1.55055e-09 -8.93508e-07 1.16704e-11 3.92404e-10 2.57143e-07)
(0.000128214 1.52841e-08 1.95058e-06 1.13112e-11 7.72533e-10 3.14331e-07)
(0.000129394 1.76355e-09 2.50985e-06 6.37726e-12 5.30525e-11 2.74862e-07)
(0.000128489 -1.00141e-09 -1.1181e-06 5.1455e-12 5.51409e-10 2.57047e-07)
(0.000129056 -3.76513e-10 -2.99552e-06 8.81516e-12 6.4076e-10 3.64007e-07)
(0.000127974 -3.52231e-09 -1.41841e-06 9.6248e-12 4.96427e-10 2.51896e-07)
(0.000128733 1.72632e-08 2.1503e-06 1.39568e-11 1.00021e-09 3.40872e-07)
(0.000128533 6.74452e-09 2.34568e-06 1.03087e-11 -2.18479e-11 2.74589e-07)
(0.000128492 -1.75398e-08 -4.28762e-07 8.47885e-12 1.09313e-10 2.37507e-07)
(0.000128638 -2.35857e-09 -2.74277e-06 3.24491e-12 -2.12177e-11 3.47922e-07)
(0.00012825 6.65012e-09 -1.25977e-06 6.8015e-12 3.1862e-10 2.61524e-07)
(0.000129839 -5.89935e-10 2.74828e-06 9.55006e-12 7.62555e-10 4.29265e-07)
(0.000128722 -5.97523e-09 2.88046e-06 7.9863e-12 4.54846e-10 3.48307e-07)
(0.000129163 -1.05902e-08 -2.8536e-07 8.27611e-12 5.24065e-10 2.5313e-07)
(0.000128279 4.08818e-09 -2.41043e-06 6.73946e-12 1.56154e-10 3.17721e-07)
(0.000128653 2.87339e-09 -8.24697e-07 7.39337e-12 3.67752e-10 2.1557e-07)
(0.000128451 -6.75733e-12 2.7672e-06 8.94374e-12 1.08559e-11 3.55512e-07)
(0.000129721 -8.53716e-09 2.66562e-06 8.6289e-12 -6.07273e-10 2.85791e-07)
(0.000129127 -8.988e-09 -5.56492e-07 1.03095e-11 -2.64462e-10 2.77372e-07)
(0.000128262 -4.9821e-09 -2.94919e-06 6.91278e-12 -1.80589e-10 3.7239e-07)
(0.00117421 6.45487e-08 -8.5672e-06 9.8598e-11 -4.4889e-09 1.93331e-06)
(0.00117112 2.16288e-07 2.17893e-05 1.44055e-10 9.01967e-09 2.96512e-06)
(0.00117096 -6.28948e-08 2.37475e-05 5.14848e-11 -4.41543e-09 2.60547e-06)
(0.0011714 -1.33745e-07 -3.57194e-06 1.05808e-10 3.3518e-09 2.19669e-06)
(0.00116957 -2.00867e-07 -2.65327e-05 1.2605e-10 7.61895e-09 3.21441e-06)
(0.00117136 2.72692e-08 -1.01593e-05 9.47681e-11 3.61796e-09 1.92353e-06)
(0.00117046 -4.91369e-08 2.12216e-05 7.21203e-11 3.11948e-09 2.59465e-06)
(0.00117761 1.80052e-08 2.12885e-05 8.16959e-11 4.88931e-09 2.40325e-06)
(0.00117775 -1.57811e-07 -2.68539e-06 2.14111e-10 -2.11313e-10 2.49727e-06)
(0.0011732 -1.92725e-07 -2.8121e-05 1.1034e-10 1.01104e-08 3.55509e-06)
(0.00117715 -4.94399e-08 -1.06442e-05 1.22196e-10 6.26975e-09 2.22246e-06)
(0.00117457 1.57583e-07 2.15758e-05 1.30311e-10 1.34846e-08 3.24056e-06)
(0.00117209 5.57909e-08 2.36737e-05 9.20633e-11 1.077e-08 2.62447e-06)
(0.00116706 -6.68835e-08 -3.99054e-06 1.02751e-10 6.4268e-09 2.22182e-06)
(0.0011722 -3.05865e-07 -2.83019e-05 2.58179e-10 1.05022e-08 3.44602e-06)
(0.00117068 1.84662e-07 -8.45031e-06 3.69704e-10 -8.22308e-09 2.28537e-06)
(0.00116922 1.1299e-08 2.10261e-05 1.63994e-10 -7.87201e-09 3.08052e-06)
(0.00117382 -2.06219e-07 2.41602e-05 1.67728e-10 -1.29449e-08 2.8425e-06)
(0.00117563 -3.67494e-07 -8.8294e-06 3.08501e-10 3.02181e-09 2.84375e-06)
(0.00117018 -2.28056e-07 -3.05496e-05 2.09296e-10 7.12279e-09 3.94302e-06)
(0.00118083 2.02061e-10 -8.46132e-06 2.23088e-10 3.39954e-09 2.35823e-06)
(0.00116358 3.12368e-07 1.76658e-05 3.29587e-10 1.39849e-08 2.83812e-06)
(0.00117642 -9.36115e-08 2.34008e-05 9.45621e-11 -6.58971e-11 2.51997e-06)
(0.00116828 2.40615e-08 -1.08975e-05 9.66971e-11 7.55283e-09 2.37939e-06)
(0.00117358 -2.46993e-07 -2.8037e-05 2.19134e-10 1.49486e-08 3.32371e-06)
(0.00116233 -5.8539e-08 -1.33682e-05 1.51962e-10 2.52634e-09 2.32386e-06)
(0.0011685 1.47536e-07 1.96854e-05 1.6335e-10 9.19658e-09 3.092e-06)
(0.00116924 -4.23155e-09 2.20325e-05 5.50422e-11 -3.06169e-09 2.52196e-06)
(0.00116801 -2.23568e-07 -4.42835e-06 9.79626e-11 -3.0676e-09 2.21095e-06)
(0.00116851 -6.27226e-08 -2.58026e-05 3.82248e-11 -1.23931e-09 3.1754e-06)
(0.00116574 -1.68001e-07 -1.19054e-05 8.14638e-11 5.32627e-09 2.40148e-06)
(0.00118079 9.69338e-08 2.62313e-05 1.65093e-10 1.47118e-08 3.94523e-06)
(0.0011707 1.55115e-07 2.68484e-05 1.46939e-10 1.20444e-08 3.16738e-06)
(0.00117367 -2.15935e-07 -2.8585e-06 1.55531e-10 6.28008e-09 2.30099e-06)
(0.0011653 -4.2947e-09 -2.25731e-05 8.32099e-11 -8.54559e-10 2.89487e-06)
(0.00116906 1.18653e-08 -8.11594e-06 1.18123e-10 7.2302e-10 1.98237e-06)
(0.00116575 -2.94283e-09 2.62073e-05 1.0843e-10 -6.51896e-09 3.24585e-06)
(0.00117849 -2.88153e-07 2.47188e-05 1.92995e-10 -1.71839e-08 2.61907e-06)
(0.00117335 2.0773e-07 -5.36052e-06 1.99033e-10 -1.23557e-08 2.55921e-06)
(0.00116589 -6.13277e-08 -2.74337e-05 6.11036e-11 -2.68498e-09 3.40258e-06)
(0.00333164 2.35928e-07 -2.26969e-05 4.97107e-10 -2.9819e-08 5.80272e-06)
(0.00332559 7.38154e-07 6.43261e-05 7.7693e-10 2.63365e-08 9.07036e-06)
(0.00333268 -3.9587e-07 6.86137e-05 4.45235e-10 -3.2501e-08 7.535e-06)
(0.00333086 -3.9452e-07 -1.46625e-05 4.4757e-10 -2.0248e-09 6.89943e-06)
(0.0033292 -7.30948e-07 -7.79523e-05 6.82279e-10 1.57679e-08 9.52969e-06)
(0.00332912 1.27747e-07 -2.97258e-05 4.56698e-10 7.42337e-09 5.6382e-06)
(0.00332908 -3.28589e-07 6.72141e-05 3.94431e-10 2.75325e-09 8.43855e-06)
(0.00334726 1.09034e-07 6.25845e-05 3.92431e-10 1.1457e-08 7.09178e-06)
(0.00334973 -5.84689e-07 -1.25216e-05 1.42726e-09 -3.3748e-08 8.0184e-06)
(0.00333437 -7.87724e-07 -8.66092e-05 5.65066e-10 3.2299e-08 1.07942e-05)
(0.00334918 -9.39817e-08 -2.5727e-05 7.37926e-10 2.64952e-08 6.65275e-06)
(0.00333878 5.64456e-07 6.75048e-05 6.14373e-10 4.69886e-08 1.02379e-05)
(0.00332806 2.51824e-07 6.79971e-05 5.62505e-10 4.1533e-08 7.47346e-06)
(0.00331998 2.64151e-08 -1.71904e-05 5.08836e-10 4.2304e-09 7.08826e-06)
(0.0033383 -1.0712e-06 -8.72177e-05 1.38451e-09 1.26147e-08 1.04685e-05)
(0.00333377 1.18506e-06 -2.2428e-05 2.55683e-09 -6.10614e-08 6.89623e-06)
(0.00331882 8.40233e-08 5.71044e-05 1.12345e-09 -5.05184e-08 8.94017e-06)
(0.00334191 -9.62674e-07 6.99591e-05 1.05282e-09 -7.47371e-08 8.25445e-06)
(0.00334184 -1.16015e-06 -3.17647e-05 1.55192e-09 -2.69181e-08 9.33696e-06)
(0.00332128 -9.01191e-07 -9.07551e-05 1.2473e-09 8.99302e-09 1.16932e-05)
(0.00335645 -1.65427e-07 -1.93359e-05 1.14327e-09 -3.15835e-09 7.28777e-06)
(0.00331049 1.12577e-06 5.7371e-05 1.63824e-09 3.99149e-08 9.06599e-06)
(0.00335112 -2.42332e-07 6.7838e-05 4.12891e-10 -7.04134e-09 7.26794e-06)
(0.00331338 3.76025e-07 -3.41994e-05 5.94407e-10 1.46735e-08 7.56363e-06)
(0.00333199 -1.07377e-06 -8.37072e-05 1.47207e-09 5.08437e-08 9.93589e-06)
(0.0033039 -4.57854e-07 -3.84439e-05 9.83587e-10 -1.5822e-08 6.82615e-06)
(0.00332127 5.75766e-07 6.60517e-05 1.06978e-09 3.2767e-08 1.01986e-05)
(0.00332619 -2.74029e-07 6.4363e-05 3.9583e-10 -3.24423e-08 7.31737e-06)
(0.0033214 -6.56281e-07 -1.13767e-05 5.52435e-10 -3.14229e-08 6.47688e-06)
(0.00331942 -9.54792e-08 -8.00566e-05 3.40103e-10 -1.82881e-08 9.68511e-06)
(0.00331373 -9.37024e-07 -3.55277e-05 6.35972e-10 1.39987e-08 6.92895e-06)
(0.00335314 6.59961e-07 7.83336e-05 1.24956e-09 6.93553e-08 1.21417e-05)
(0.00332516 7.87386e-07 7.78777e-05 1.0247e-09 4.23138e-08 9.09862e-06)
(0.00333426 -1.03054e-06 -1.327e-05 1.17554e-09 3.01533e-08 7.17376e-06)
(0.00331267 1.30324e-07 -6.69429e-05 5.1829e-10 -1.99441e-08 8.53005e-06)
(0.00332359 -4.58468e-08 -2.36489e-05 5.60896e-10 -6.96591e-09 5.86688e-06)
(0.00331863 -5.10246e-07 8.43534e-05 8.5153e-10 -7.15084e-08 1.09884e-05)
(0.00336642 -1.32445e-06 7.13174e-05 1.38754e-09 -8.6365e-08 7.5379e-06)
(0.00333793 1.85949e-06 -1.72256e-05 3.17345e-09 -1.00984e-07 7.90635e-06)
(0.00331008 -1.36834e-07 -8.27434e-05 4.28206e-10 -2.76817e-08 1.01747e-05)
(0.00619364 5.59274e-07 -4.63374e-05 2.18302e-09 -8.36408e-08 1.2557e-05)
(0.00616924 9.85917e-07 0.000105679 3.21229e-09 4.19129e-08 1.88523e-05)
(0.00616151 -9.43904e-07 0.000129282 2.90466e-09 -9.51072e-08 1.53694e-05)
(0.00616404 -5.72271e-07 -9.98467e-06 1.3937e-09 -2.14174e-08 1.38417e-05)
(0.00613626 -1.82817e-06 -0.000128204 2.27187e-09 2.18022e-08 1.84632e-05)
(0.00615785 -4.42999e-07 -6.86947e-05 1.1614e-09 -1.27724e-08 1.14407e-05)
(0.00615522 -1.74552e-06 0.000101944 1.85922e-09 -5.39665e-08 1.60327e-05)
(0.00621543 4.33076e-07 0.000117562 1.36507e-09 1.12192e-08 1.47018e-05)
(0.00619837 -2.63743e-06 5.18471e-06 3.76562e-09 -5.35674e-08 1.5168e-05)
(0.00617631 -1.79798e-06 -0.000157961 1.90357e-09 6.29248e-08 2.23281e-05)
(0.00620518 -1.25653e-06 -5.96708e-05 1.6338e-09 3.38241e-08 1.32702e-05)
(0.00618693 1.33209e-06 0.000100332 1.81008e-09 1.09969e-07 1.94776e-05)
(0.00618633 1.01956e-06 0.000124423 2.49304e-09 1.04097e-07 1.4797e-05)
(0.00613461 -4.25799e-08 -3.6763e-06 1.67944e-09 9.5665e-09 1.23556e-05)
(0.00615814 -2.7216e-06 -0.000144449 4.40749e-09 -1.01551e-08 1.98359e-05)
(0.00614238 3.4538e-06 -6.69909e-05 1.00203e-08 -2.2956e-07 1.33673e-05)
(0.00614373 -1.19421e-06 9.50432e-05 4.79806e-09 -2.50982e-07 1.8981e-05)
(0.00618489 -2.80677e-06 0.000131434 4.709e-09 -2.36207e-07 1.679e-05)
(0.00618494 -2.96232e-06 -3.15657e-05 5.33487e-09 -8.66129e-08 1.7848e-05)
(0.00616421 -2.04367e-06 -0.000171729 4.52423e-09 -1.86821e-08 2.49084e-05)
(0.00622831 -2.92731e-07 -4.93092e-05 4.33974e-09 -2.46913e-08 1.52645e-05)
(0.00611837 2.01009e-06 7.89152e-05 4.46118e-09 3.10703e-08 1.68143e-05)
(0.00619837 -9.97029e-07 0.000125873 2.19613e-09 -4.51652e-08 1.45803e-05)
(0.00615126 1.80815e-06 -4.94239e-05 2.65032e-09 -1.60828e-08 1.62377e-05)
(0.00619038 -2.92538e-06 -0.000153124 5.56091e-09 1.10046e-07 2.09193e-05)
(0.00610381 -7.68133e-07 -9.00154e-05 3.49343e-09 -7.9471e-08 1.35254e-05)
(0.00615356 5.3601e-07 0.000101765 3.97537e-09 2.50765e-08 2.02245e-05)
(0.00616267 -5.37263e-07 0.000121001 2.70979e-09 -1.09391e-07 1.4964e-05)
(0.0061273 -1.75363e-06 9.2319e-06 2.82546e-09 -7.44161e-08 1.14223e-05)
(0.00615852 3.52238e-07 -0.000144342 2.01435e-09 -7.66606e-08 2.01158e-05)
(0.00612596 -2.61065e-06 -7.81333e-05 2.97852e-09 2.11274e-08 1.38632e-05)
(0.00621218 1.18511e-06 0.000128475 4.05707e-09 1.37604e-07 2.47056e-05)
(0.00617803 1.85975e-06 0.000148243 3.95173e-09 8.26321e-08 1.83623e-05)
(0.00618807 -1.45207e-06 -1.12773e-05 3.14662e-09 2.98042e-08 1.45294e-05)
(0.0061278 1.09294e-06 -0.000118415 3.16976e-09 -1.076e-07 1.73266e-05)
(0.00614862 -2.82239e-07 -5.85251e-05 2.01899e-09 -2.06952e-08 1.19467e-05)
(0.00611918 -2.54017e-06 0.000108153 6.81266e-09 -2.74209e-07 1.702e-05)
(0.00619398 -3.63589e-06 0.000128026 5.76137e-09 -2.36979e-07 1.49469e-05)
(0.00615987 5.36519e-06 -2.06064e-06 1.611e-08 -2.6452e-07 1.46018e-05)
(0.00614636 -4.21895e-07 -0.000155561 2.73051e-09 -5.59991e-08 2.17473e-05)
(0.00946079 6.58102e-07 -9.89972e-05 9.03949e-09 -1.67071e-07 2.01575e-05)
(0.00942919 -1.72668e-06 9.51646e-05 9.50516e-09 -1.50973e-07 2.63015e-05)
(0.00948398 -3.35814e-06 0.000186205 1.05417e-08 -2.17909e-07 2.58712e-05)
(0.00952346 -9.29165e-07 -1.94622e-05 6.35968e-09 3.13383e-08 2.84158e-05)
(0.00947911 -3.46015e-06 -0.000193739 6.99017e-09 6.24365e-08 3.42147e-05)
(0.00945956 3.14619e-07 -0.000122662 4.33232e-09 -3.56558e-08 1.87786e-05)
(0.00948037 -4.48794e-06 0.000130312 8.39067e-09 -1.77982e-07 2.78025e-05)
(0.00953244 1.55675e-06 0.000172746 5.22074e-09 3.46152e-08 2.54829e-05)
(0.00953653 -5.93689e-06 3.54249e-05 1.25262e-08 -4.92453e-08 2.5842e-05)
(0.00950193 -2.22124e-06 -0.000223555 5.17401e-09 6.53289e-08 3.79227e-05)
(0.00953223 -4.21921e-06 -0.000108547 6.64133e-09 5.18591e-08 2.08882e-05)
(0.00946795 2.5569e-06 7.85193e-05 6.01847e-09 2.21667e-07 2.55598e-05)
(0.00948784 2.13193e-06 0.000173652 9.31759e-09 2.13777e-07 2.39634e-05)
(0.00944152 3.84369e-07 7.90004e-07 5.60184e-09 9.06024e-09 2.15238e-05)
(0.00948749 -4.61978e-06 -0.000209157 1.16639e-08 -8.44312e-08 3.43385e-05)
(0.0094341 7.38587e-06 -0.000120315 2.98918e-08 -5.52758e-07 2.26112e-05)
(0.00944229 -4.71818e-06 0.000114408 2.40887e-08 -7.71133e-07 3.30235e-05)
(0.00955694 -5.99144e-06 0.000187334 1.6399e-08 -5.29347e-07 2.78875e-05)
(0.00948453 -4.75404e-06 8.98056e-06 1.40516e-08 -2.06551e-07 2.53253e-05)
(0.00948801 -2.96235e-06 -0.000230357 1.43702e-08 -7.37998e-08 4.07658e-05)
(0.00953245 -8.23947e-07 -0.000116399 1.3799e-08 -7.56001e-08 2.47926e-05)
(0.00942428 5.95402e-06 9.39156e-05 2.04683e-08 3.05388e-07 2.91499e-05)
(0.00949888 -1.1622e-06 0.000171119 6.62778e-09 -6.70546e-08 2.34589e-05)
(0.00937115 6.02248e-06 1.42975e-05 1.3057e-08 -1.40253e-07 1.81052e-05)
(0.00945769 -6.34358e-06 -0.000168436 1.8815e-08 2.14783e-07 2.87343e-05)
(0.00935178 7.9264e-07 -0.000144609 1.06766e-08 -2.20495e-07 2.239e-05)
(0.00942412 -3.01987e-06 9.32169e-05 1.17718e-08 -2.97178e-07 2.8911e-05)
(0.00942913 -2.95136e-06 0.00018055 1.18567e-08 -2.97345e-07 2.59133e-05)
(0.00945958 -6.79906e-07 4.24614e-06 1.11593e-08 -2.51008e-07 2.27567e-05)
(0.00940484 2.01958e-06 -0.000173853 8.50684e-09 -2.14977e-07 3.04336e-05)
(0.00942707 -5.62134e-06 -0.000110485 1.21749e-08 -4.16705e-09 2.36221e-05)
(0.00952887 1.463e-06 0.000140223 1.05756e-08 1.7386e-07 3.73193e-05)
(0.00949251 3.63018e-06 0.00021433 1.41817e-08 1.53874e-07 3.0282e-05)
(0.0095009 -5.53954e-07 5.4083e-06 8.78642e-09 -1.3778e-08 2.36861e-05)
(0.00942021 9.41362e-07 -0.000165388 7.60697e-09 -9.08655e-08 2.96853e-05)
(0.0094298 -1.34444e-06 -0.000111911 7.72319e-09 -5.59803e-09 1.98526e-05)
(0.00938391 -1.90997e-06 0.000117902 9.50157e-09 -2.63617e-07 2.59062e-05)
(0.00955551 -6.93784e-06 0.000180141 1.73083e-08 -4.36258e-07 2.44182e-05)
(0.00948753 9.79445e-06 2.38986e-05 4.26542e-08 -4.36719e-07 2.47867e-05)
(0.00941147 2.12308e-06 -0.000184723 1.07034e-08 -2.91868e-07 3.20179e-05)
(0.0128969 1.39844e-06 -0.000131071 3.34966e-08 -1.53674e-07 3.01633e-05)
(0.0128114 -7.7606e-06 6.40804e-05 5.15768e-08 -5.3604e-07 3.60356e-05)
(0.0129903 -8.95052e-06 0.00019078 3.6418e-08 -4.64386e-07 3.488e-05)
(0.0129352 3.30313e-06 7.15249e-05 2.15498e-08 -6.37875e-08 3.03072e-05)
(0.0127733 -7.42084e-06 -0.000149142 3.20902e-08 3.9421e-07 3.80511e-05)
(0.0129359 -2.71813e-07 -0.00011371 1.6282e-08 -6.44982e-09 2.86956e-05)
(0.0128967 -8.9649e-06 0.000104483 3.36711e-08 -3.53472e-07 3.50477e-05)
(0.0129837 1.01646e-06 0.000191446 1.67557e-08 3.58347e-09 3.67606e-05)
(0.0130221 -9.20141e-06 6.55488e-05 3.40697e-08 -3.05437e-08 3.8336e-05)
(0.0129292 -4.1169e-07 -0.000229118 1.5809e-08 -5.96411e-08 4.78864e-05)
(0.0129598 -1.38664e-06 -0.000133623 1.46177e-08 1.45696e-07 2.72174e-05)
(0.0128506 1.18668e-06 1.03425e-05 1.02376e-08 1.78034e-07 2.86415e-05)
(0.0128853 3.40144e-08 0.0001877 1.65835e-08 2.11776e-07 3.26481e-05)
(0.0129122 2.65465e-06 -1.76822e-05 1.69963e-08 -7.34814e-08 3.34398e-05)
(0.012836 -4.69281e-06 -0.000187611 2.85997e-08 -3.16395e-07 3.93019e-05)
(0.0128098 1.20327e-05 -0.000150159 6.8598e-08 -8.85477e-07 3.25315e-05)
(0.0128596 -6.81412e-06 7.21674e-05 6.26281e-08 -1.117e-06 4.18919e-05)
(0.0128774 -9.95069e-06 0.000194784 4.65131e-08 -8.54478e-07 3.79596e-05)
(0.0128276 -9.97866e-07 6.35403e-05 3.34369e-08 -5.40134e-07 3.13991e-05)
(0.0128834 -4.62061e-07 -0.000171035 3.91924e-08 -3.63923e-07 4.10029e-05)
(0.0127727 -2.28783e-06 -0.000212316 4.5259e-08 -5.6963e-08 3.55309e-05)
(0.0128062 5.98937e-06 7.16598e-05 4.46662e-08 4.51793e-07 4.14377e-05)
(0.0128869 1.97362e-06 0.000187863 2.38336e-08 1.57813e-07 3.28391e-05)
(0.0127521 7.26075e-06 4.71428e-05 2.55625e-08 -4.61308e-08 2.60235e-05)
(0.0128211 -8.41179e-06 -0.000135117 4.31068e-08 1.7223e-07 3.37362e-05)
(0.012701 4.40901e-06 -0.000172062 3.44021e-08 -4.30838e-07 3.13322e-05)
(0.0128369 -7.22812e-06 7.04166e-05 4.66856e-08 -7.00041e-07 3.98861e-05)
(0.0128146 -7.79281e-06 0.000217249 4.18326e-08 -5.72171e-07 3.91128e-05)
(0.0129126 1.42122e-07 7.67725e-06 3.646e-08 -3.98823e-07 3.51184e-05)
(0.0127877 3.9521e-06 -0.000158848 2.5909e-08 -2.68507e-07 3.81963e-05)
(0.0127829 -9.85302e-06 -0.00014433 4.43589e-08 5.99858e-08 3.1629e-05)
(0.0128841 4.09179e-07 6.21722e-05 2.38987e-08 -3.61261e-09 3.82316e-05)
(0.0128489 2.07869e-06 0.000230204 2.79976e-08 4.19792e-08 4.03662e-05)
(0.0129916 2.53235e-06 -5.31713e-06 2.98008e-08 -8.56778e-08 3.74054e-05)
(0.012806 1.09931e-06 -0.000162537 3.15987e-08 1.40303e-07 3.9093e-05)
(0.0128433 -4.03932e-06 -0.000141982 3.59116e-08 1.57426e-07 2.92618e-05)
(0.0127925 -1.56374e-06 0.000116907 2.9285e-08 -1.39566e-07 3.91146e-05)
(0.0129783 -8.16259e-06 0.000188901 3.96462e-08 -4.2634e-07 3.29218e-05)
(0.0128394 1.40607e-05 0.000111508 8.70961e-08 -1.2879e-07 2.88636e-05)
(0.012796 3.09541e-06 -0.000176818 3.4342e-08 -1.93241e-07 4.15563e-05)
(0.0159827 3.08634e-06 -0.000169182 1.01952e-07 4.24799e-07 3.93215e-05)
(0.0160267 -5.72222e-06 3.24284e-05 1.0646e-07 1.43893e-07 4.68973e-05)
(0.0160959 -8.44331e-06 0.000167934 8.37138e-08 -1.04962e-07 4.41107e-05)
(0.0161018 7.68466e-06 6.4731e-05 6.85763e-08 1.15744e-07 4.01412e-05)
(0.0160718 -4.06316e-06 -0.000114576 6.2565e-08 3.8717e-07 4.28666e-05)
(0.0159896 3.04692e-06 -0.000168318 5.1285e-08 1.4951e-07 3.32802e-05)
(0.0160767 -1.05516e-05 6.10933e-05 8.41152e-08 -2.18032e-07 3.94479e-05)
(0.0160794 -1.00187e-06 0.000119861 5.39919e-08 -6.74583e-08 3.73589e-05)
(0.0161545 -3.8597e-06 0.00012503 5.71777e-08 -1.42067e-07 3.71961e-05)
(0.0159389 2.23029e-06 -0.000138452 4.87238e-08 9.23636e-08 4.02797e-05)
(0.0161008 5.37418e-09 -5.90356e-05 4.00827e-08 3.02982e-07 2.73123e-05)
(0.0159496 -1.68476e-07 -5.30026e-05 3.17224e-08 2.51189e-07 2.8083e-05)
(0.0159546 -5.52572e-06 0.000109986 3.80721e-08 -6.89987e-09 3.04945e-05)
(0.0159508 5.15608e-06 6.0159e-06 4.82571e-08 -1.59502e-07 2.94928e-05)
(0.0160203 -2.43637e-06 -0.000110324 7.38089e-08 -4.65431e-07 3.37031e-05)
(0.0158063 1.72639e-05 -0.000172776 1.45597e-07 -1.12575e-06 3.64638e-05)
(0.0159695 -8.73007e-06 9.44068e-06 1.54662e-07 -1.21622e-06 4.71299e-05)
(0.0159949 -1.30816e-05 0.000179413 1.10159e-07 -9.99203e-07 4.71702e-05)
(0.0160405 2.08604e-06 2.45115e-05 8.27924e-08 -5.24316e-07 4.18593e-05)
(0.0159742 4.58785e-06 -0.000103701 9.94054e-08 -4.73124e-07 4.25573e-05)
(0.0159527 6.57483e-06 -0.000160151 1.10663e-07 -2.77341e-07 3.91251e-05)
(0.0158629 -5.04303e-06 9.45685e-06 1.20399e-07 -2.63571e-07 4.23135e-05)
(0.0160778 2.29663e-07 0.000143358 6.31911e-08 1.65756e-07 3.61306e-05)
(0.0159755 3.14059e-06 5.10984e-05 5.51752e-08 1.3038e-07 3.11691e-05)
(0.0159737 -6.12236e-06 -8.47475e-05 7.79654e-08 -9.67553e-08 3.63677e-05)
(0.0158598 5.89281e-06 -0.000147641 8.20967e-08 -5.0584e-07 3.57335e-05)
(0.0159607 -9.90709e-06 5.5304e-05 1.32041e-07 -8.7654e-07 4.90626e-05)
(0.0160301 -1.12748e-05 0.000180067 1.22816e-07 -5.49452e-07 4.27229e-05)
(0.0160541 -1.28284e-06 5.82115e-05 8.40275e-08 -1.13079e-07 3.43499e-05)
(0.0159922 5.74402e-06 -9.29782e-05 6.10346e-08 -6.11315e-08 3.75127e-05)
(0.0159185 -5.38828e-06 -0.000148198 5.723e-08 6.18908e-08 3.58364e-05)
(0.015952 1.07917e-06 9.58503e-06 5.23931e-08 -1.08939e-07 4.14591e-05)
(0.0160359 -1.85468e-06 0.000140528 6.49953e-08 -2.17875e-07 3.63059e-05)
(0.0160444 8.07689e-06 6.49956e-05 9.66288e-08 -3.15666e-08 3.00825e-05)
(0.0159577 7.7322e-06 -7.31085e-05 1.00225e-07 1.86591e-07 3.25152e-05)
(0.0158933 -3.52021e-06 -0.000137023 1.11366e-07 5.10288e-07 3.09065e-05)
(0.0158684 -5.26375e-06 2.6705e-05 1.04831e-07 -4.19842e-08 3.70262e-05)
(0.0160416 -9.16227e-06 0.000152592 9.88424e-08 -2.07077e-07 3.81281e-05)
(0.0160292 1.64752e-05 7.06294e-05 1.50298e-07 2.1746e-08 3.76609e-05)
(0.0160529 3.56901e-06 -0.000139428 1.06887e-07 4.44963e-07 4.63558e-05)
(0.0184566 1.37895e-05 -0.000125167 2.30526e-07 7.57616e-07 3.45698e-05)
(0.0184561 -2.77348e-06 -2.20148e-05 2.4071e-07 9.63235e-07 3.87847e-05)
(0.0185089 -1.26475e-06 7.66137e-05 1.698e-07 8.77324e-07 3.73971e-05)
(0.0185477 3.3752e-06 2.1428e-05 1.40393e-07 5.23434e-07 3.45452e-05)
(0.0185807 1.70568e-06 -8.52445e-05 1.32492e-07 3.64892e-07 3.63727e-05)
(0.0185532 1.00352e-05 -8.07973e-05 1.33499e-07 4.08617e-07 2.72085e-05)
(0.0185404 -4.48491e-06 -1.60663e-05 1.53625e-07 4.71819e-07 2.85621e-05)
(0.0184982 1.29329e-06 4.07874e-05 1.47185e-07 3.6744e-07 3.07267e-05)
(0.0185723 -2.95015e-07 1.42791e-05 1.59528e-07 2.40962e-07 2.99129e-05)
(0.0185838 7.43761e-06 -9.31087e-05 1.52028e-07 4.6938e-07 3.19175e-05)
(0.0185165 -7.61372e-07 -8.88248e-05 1.38487e-07 8.05601e-07 2.64647e-05)
(0.0184714 -3.58311e-07 -2.60258e-05 1.03583e-07 5.46006e-07 2.7391e-05)
(0.0184879 -7.16133e-06 4.34538e-05 1.00951e-07 1.51894e-07 2.59385e-05)
(0.0184526 2.41136e-06 9.99994e-06 1.15539e-07 -3.20841e-08 2.51977e-05)
(0.0185399 2.03223e-06 -9.77709e-05 1.888e-07 -3.3464e-07 3.26985e-05)
(0.0184825 1.90028e-05 -8.37008e-05 2.63978e-07 -2.76703e-07 3.05583e-05)
(0.0185287 -1.05034e-06 2.44145e-06 2.3568e-07 -8.72001e-08 3.83862e-05)
(0.0185241 -6.08848e-06 9.84397e-05 1.83817e-07 9.89834e-08 3.72824e-05)
(0.0184983 3.47177e-06 1.81284e-05 1.6515e-07 1.41564e-07 3.2779e-05)
(0.0185734 9.69903e-06 -5.10607e-05 2.16553e-07 -1.6307e-07 3.52204e-05)
(0.0184341 1.98494e-05 -8.85511e-05 2.86531e-07 -3.35166e-08 3.22089e-05)
(0.0184597 -1.58535e-06 -1.20198e-05 2.80233e-07 1.67568e-07 3.31753e-05)
(0.01841 -2.43091e-07 6.38006e-05 1.59701e-07 4.16798e-07 3.00475e-05)
(0.0184197 3.75429e-06 1.41404e-05 1.2632e-07 1.78992e-07 2.7821e-05)
(0.018448 -1.06176e-06 -6.50223e-05 1.60786e-07 -2.09469e-07 3.18536e-05)
(0.0184228 9.84989e-06 -7.65151e-05 1.98115e-07 -3.64053e-07 2.83929e-05)
(0.0183707 -7.54059e-06 -1.81608e-05 2.99075e-07 -4.58708e-07 2.98261e-05)
(0.0184095 -1.68685e-05 6.16588e-05 3.18089e-07 -2.56413e-07 2.8509e-05)
(0.0184232 -2.29804e-06 5.14075e-06 1.81912e-07 2.0221e-07 2.75535e-05)
(0.018545 3.38953e-06 -7.94259e-05 1.05636e-07 2.36777e-07 3.39255e-05)
(0.0184827 4.43819e-06 -0.000107054 1.03914e-07 -1.36261e-07 3.15479e-05)
(0.0184032 6.52643e-06 -4.07649e-05 1.08838e-07 -2.40277e-07 3.15281e-05)
(0.0184843 -5.0753e-06 4.18361e-05 1.53116e-07 -1.61618e-07 2.86153e-05)
(0.0185235 9.41576e-06 -3.1315e-06 2.10936e-07 1.79055e-08 2.60293e-05)
(0.0185613 1.39566e-05 -7.36003e-05 2.31229e-07 3.12483e-07 2.95721e-05)
(0.0184855 8.17941e-06 -8.83508e-05 2.19219e-07 7.25357e-07 2.82528e-05)
(0.0184484 1.32325e-06 -1.83615e-05 2.00577e-07 6.76752e-07 3.38586e-05)
(0.0184974 -4.50906e-06 9.44609e-05 1.71612e-07 4.43502e-07 3.45749e-05)
(0.0185009 1.13845e-05 -1.34944e-05 1.87063e-07 2.60298e-07 3.14339e-05)
(0.0186363 1.13262e-05 -7.56319e-05 2.12705e-07 3.5373e-07 3.39919e-05)
(0.0201537 2.05149e-05 -4.9128e-05 3.8528e-07 9.03154e-07 1.96117e-05)
(0.0200996 5.55055e-06 -2.52318e-05 3.48333e-07 9.25466e-07 2.20457e-05)
(0.0201349 4.23438e-06 5.78864e-05 2.44541e-07 6.8141e-07 2.24711e-05)
(0.0201057 6.30257e-06 -3.39587e-05 2.46908e-07 5.64888e-07 2.0246e-05)
(0.0202069 3.69702e-06 -5.82905e-05 2.53766e-07 5.13026e-07 1.98659e-05)
(0.0201263 1.4755e-05 -8.12294e-05 2.65115e-07 7.39516e-07 2.03667e-05)
(0.020164 4.03674e-07 -1.04549e-05 2.80743e-07 7.468e-07 2.18623e-05)
(0.0201412 7.31899e-06 3.75342e-05 2.57052e-07 6.33568e-07 2.08159e-05)
(0.0201755 -2.01538e-06 -1.93262e-05 2.76804e-07 6.59397e-07 1.90074e-05)
(0.0201559 7.74033e-06 -6.21379e-05 2.52108e-07 6.77738e-07 1.97205e-05)
(0.0202001 5.54486e-06 -6.90724e-05 2.14827e-07 8.28943e-07 1.8353e-05)
(0.0201341 4.53036e-06 3.57986e-06 1.77336e-07 5.83653e-07 1.83427e-05)
(0.020175 6.09191e-07 3.21988e-05 1.70453e-07 2.8606e-07 1.69032e-05)
(0.0201407 3.9718e-06 7.06118e-06 2.54785e-07 1.73344e-07 1.61222e-05)
(0.0201316 4.98054e-06 -4.03755e-05 3.99612e-07 2.73459e-07 1.79422e-05)
(0.020148 1.75019e-05 -4.35924e-05 4.53849e-07 6.21307e-07 1.82384e-05)
(0.0201522 7.40074e-06 2.84768e-05 3.87181e-07 8.79101e-07 2.10355e-05)
(0.0201569 7.3644e-06 5.45477e-05 3.03297e-07 9.26072e-07 2.02788e-05)
(0.020088 8.20731e-06 2.29186e-05 2.9769e-07 7.2381e-07 1.94225e-05)
(0.0201453 1.3478e-05 -5.1581e-05 3.93791e-07 5.29607e-07 2.16379e-05)
(0.0201259 1.91089e-05 -3.32397e-05 4.83624e-07 8.55775e-07 2.03192e-05)
(0.0201655 1.05239e-05 2.2883e-06 4.48509e-07 9.04145e-07 2.11447e-05)
(0.0200727 6.23211e-06 5.98603e-05 3.14042e-07 7.9231e-07 2.12821e-05)
(0.020115 1.09001e-05 -1.07669e-05 2.66583e-07 5.50278e-07 2.0533e-05)
(0.020078 3.94784e-06 -6.00308e-05 3.29981e-07 2.14956e-07 2.19597e-05)
(0.0201285 1.31274e-05 -6.56651e-05 3.90867e-07 4.81668e-08 2.04578e-05)
(0.0200659 2.50162e-06 -2.53788e-06 4.58084e-07 5.18767e-08 1.96473e-05)
(0.0201241 -7.88527e-06 3.32372e-05 4.39562e-07 3.60146e-07 1.69992e-05)
(0.0200516 -9.15195e-07 -8.29526e-06 2.58086e-07 6.40475e-07 1.61298e-05)
(0.0201274 1.96613e-06 -4.67698e-05 1.88953e-07 4.3926e-07 1.89033e-05)
(0.0200945 5.56779e-06 -6.80462e-05 2.11002e-07 7.01751e-08 1.99023e-05)
(0.0201365 8.08826e-06 7.14081e-06 2.35518e-07 -1.82228e-07 2.19347e-05)
(0.0201083 -6.13555e-06 3.855e-05 3.04655e-07 -1.91672e-07 2.0946e-05)
(0.020126 6.7241e-06 -6.07574e-06 3.15993e-07 1.04017e-07 1.96174e-05)
(0.0201416 1.00878e-05 -8.27069e-05 3.43694e-07 3.53516e-07 2.13664e-05)
(0.0201929 1.42753e-05 -5.72482e-05 3.45729e-07 7.22626e-07 1.93004e-05)
(0.0201558 7.95636e-06 -9.21341e-06 3.05731e-07 7.92424e-07 2.00331e-05)
(0.0201418 2.63713e-06 3.01534e-05 2.53965e-07 6.87014e-07 1.87231e-05)
(0.0201007 1.183e-05 -5.0276e-06 2.78195e-07 6.25707e-07 1.66454e-05)
(0.0201287 1.23359e-05 -6.71013e-05 3.53882e-07 5.95818e-07 1.85203e-05)
(0.0207635 1.81595e-05 -4.19031e-05 3.71748e-07 6.20123e-07 1.00455e-05)
(0.0207367 1.35885e-05 -3.33531e-06 3.27e-07 5.26991e-07 1.04928e-05)
(0.0207915 7.83348e-06 1.69151e-05 2.85974e-07 4.62985e-07 9.3361e-06)
(0.0207345 1.5266e-05 9.57566e-06 3.19562e-07 4.39355e-07 8.68626e-06)
(0.020758 1.13533e-05 -1.77632e-05 3.47435e-07 4.38527e-07 9.05272e-06)
(0.020725 2.08717e-05 -2.63975e-05 3.5075e-07 5.46241e-07 9.01749e-06)
(0.0207693 8.49307e-06 -8.48999e-07 3.35767e-07 5.57926e-07 9.75677e-06)
(0.0207436 1.26998e-05 2.21685e-05 3.40066e-07 5.94385e-07 9.73834e-06)
(0.0207914 6.75102e-06 6.41888e-06 3.39695e-07 5.94731e-07 9.46058e-06)
(0.0207257 1.46301e-05 -2.27564e-05 2.99054e-07 5.476e-07 9.49543e-06)
(0.0207751 9.75636e-06 -2.78575e-05 2.27063e-07 5.46604e-07 8.41355e-06)
(0.0207533 1.20248e-05 2.24761e-06 1.94021e-07 3.93447e-07 8.46744e-06)
(0.0207696 4.74158e-06 1.50195e-05 2.38852e-07 2.32033e-07 8.57388e-06)
(0.02077 1.30429e-05 1.48578e-05 3.62445e-07 2.56123e-07 8.59488e-06)
(0.0207657 1.00577e-05 -2.64612e-05 5.01856e-07 3.69201e-07 8.86016e-06)
(0.0207475 2.04055e-05 -1.51021e-05 5.30803e-07 6.8497e-07 8.25035e-06)
(0.0207801 1.11873e-05 -6.31632e-06 4.30057e-07 8.36774e-07 8.39072e-06)
(0.0207408 1.39833e-05 2.38987e-05 3.49734e-07 7.98827e-07 8.5776e-06)
(0.0207701 1.16546e-05 3.34196e-06 3.65592e-07 6.76805e-07 8.46514e-06)
(0.0207169 1.86656e-05 -1.75331e-05 4.58618e-07 5.69724e-07 8.60946e-06)
(0.020724 1.69322e-05 -2.32682e-05 5.20713e-07 6.42311e-07 8.60941e-06)
(0.020747 1.57655e-05 1.46544e-05 5.13398e-07 6.61637e-07 9.86535e-06)
(0.0207524 8.76078e-06 3.2623e-05 4.24211e-07 6.56458e-07 1.03956e-05)
(0.020762 1.56814e-05 2.40516e-05 3.96398e-07 6.2984e-07 1.09006e-05)
(0.0207381 1.01153e-05 -2.27199e-05 4.80621e-07 4.77726e-07 1.15801e-05)
(0.0207474 1.55774e-05 -2.28931e-05 5.20774e-07 3.90281e-07 9.94597e-06)
(0.0207379 9.42737e-06 -6.3851e-06 4.8498e-07 4.39055e-07 9.07861e-06)
(0.0207462 3.1892e-06 2.04493e-05 4.26894e-07 5.20066e-07 8.19802e-06)
(0.020727 6.42478e-06 -1.74849e-06 3.00603e-07 5.38163e-07 7.95019e-06)
(0.0207177 1.16281e-05 -9.58743e-06 2.80397e-07 4.03079e-07 8.49031e-06)
(0.0206969 9.70258e-06 -3.56536e-05 3.27782e-07 2.95743e-07 8.62517e-06)
(0.0207259 1.20833e-05 8.42468e-06 3.45227e-07 1.59545e-07 9.32483e-06)
(0.0207342 1.27254e-06 1.25533e-05 3.79969e-07 1.88655e-07 9.03511e-06)
(0.0207305 1.09781e-05 1.48952e-05 3.90407e-07 3.03477e-07 8.79489e-06)
(0.0207264 1.24064e-05 -2.62577e-05 4.05266e-07 3.8138e-07 8.58768e-06)
(0.0207265 1.40953e-05 -2.46333e-05 3.84603e-07 5.63807e-07 7.6972e-06)
(0.0207362 1.06514e-05 -1.44974e-05 3.47924e-07 6.64374e-07 7.52277e-06)
(0.0207164 6.51332e-06 4.70645e-06 3.17381e-07 6.74119e-07 7.78593e-06)
(0.0207455 1.429e-05 -2.14628e-06 3.49734e-07 7.25113e-07 8.35824e-06)
(0.020703 1.59031e-05 -4.09807e-05 3.92755e-07 6.32479e-07 1.00009e-05)