/*--------------------------------*- C++ -*----------------------------------*\
  =========                 |
  \\      /  F ield         | OpenFOAM: The Open Source CFD Toolbox
   \\    /   O peration     | Website:  https://openfoam.org
    \\  /    A nd           | Version:  10
     \\/     M anipulation  |
\*---------------------------------------------------------------------------*/
FoamFile
{
    format      ascii;
    class       volScalarField;
    location    "3";
    object      p;
}
// * * * * * * * * * * * * * * * * * * * * * * * * * * * * * * * * * * * * * //

dimensions      [0 2 -2 0 0 0 0];

internalField   nonuniform List<scalar> 
25600
(
0.0092775
0.00591722
0.00160834
0.00229688
0.00843609
0.00626941
-0.00432375
-0.00352997
0.00384158
0.00545354
-0.00309041
0.00247743
0.0128313
0.0123971
0.00569773
6.47321e-06
-0.0166453
-0.0279043
-0.0137715
0.00448646
0.0048342
-0.00151893
0.00062715
0.0056163
-0.00267412
-0.00589326
0.00339618
0.0020437
-0.0021715
0.00336414
-0.00364398
-0.005872
0.00399281
0.00771893
0.0145362
0.0113687
-0.00448442
-0.0147857
-0.0055917
0.00370619
-0.00268899
-0.00547519
-0.00942934
-0.00952351
-0.00330797
-0.00468473
-0.016316
-0.0154952
-0.00716498
-0.00654186
-0.0154411
-0.00910632
0.00350861
0.00435474
-0.00220277
-0.00994914
-0.0271525
-0.0376858
-0.0249315
-0.00732306
-0.00621426
-0.0101246
-0.00682126
-0.0059861
-0.0148459
-0.0179536
-0.00851721
-0.00905191
-0.0132762
-0.00721865
-0.0153586
-0.017422
-0.00777238
-0.00369031
0.00263899
0.000271782
-0.0155891
-0.0263578
-0.017705
-0.00805978
0.00545353
0.00143255
-0.0023176
-0.00286892
0.00402844
0.00228511
-0.00884615
-0.0084709
-0.000845748
0.00111549
-0.00650736
-0.000385841
0.0108981
0.00890219
0.00231022
-0.00413836
-0.0219188
-0.0308242
-0.0193725
0.000149074
-0.000492778
-0.00590963
-0.00124257
0.00112923
-0.00364622
-0.00754582
-0.000370389
-0.00213207
-0.00624642
0.00252932
-0.00583693
-0.0108201
-0.00190655
0.00749973
0.00752851
0.00605741
-0.00966247
-0.0203476
-0.00959445
0.000921819
0.00304485
-0.00350313
-0.00848983
-0.00797178
-0.00125339
-0.00308731
-0.0135645
-0.0138677
-0.00359301
-0.000493128
-0.00683947
-0.00375589
0.00660163
0.00342366
-0.00373593
-0.00857468
-0.0249857
-0.0330076
-0.0218723
-0.00390657
-0.00378003
-0.00933042
-0.007791
-0.00307501
-0.0121295
-0.012234
-0.00278611
-0.00371646
-0.0112906
-0.00546058
-0.0129512
-0.0172221
-0.0104841
0.00154395
0.00630589
0.0022256
-0.013712
-0.0256005
-0.0149104
-0.00368088
0.00485943
0.00105622
-0.00606224
-0.00570986
0.0060959
1.43662e-05
-0.0108022
-0.0105511
-0.000786479
-0.0016474
-0.00707925
0.00195009
0.00800529
0.00527801
-0.000318391
-0.00737078
-0.0240632
-0.0338621
-0.0211875
-0.00180877
0.000449172
-0.00616534
-0.00323216
-0.000231055
-0.00673296
-0.0116137
0.00037994
-0.00180014
-0.00362292
-0.00366271
-0.00752154
-0.00953857
-0.00639722
0.00313394
0.00756223
0.00519335
-0.0107978
-0.0201197
-0.0106943
-0.00426122
0.00275956
-0.000774477
-0.00558932
-0.00738876
0.00168924
0.000393403
-0.0114818
-0.011326
-0.000534151
-0.0045303
-0.00941286
-0.00118138
0.00491381
0.00468866
-0.000735933
-0.00874936
-0.0239679
-0.0347179
-0.0222414
-0.00258175
-0.00100461
-0.00587019
-0.00581827
-0.000815412
-0.00746595
-0.0136606
-0.00158749
-0.00228243
-0.00761923
-0.00458814
-0.0124383
-0.00991869
-0.00908615
0.00151799
0.00782217
0.00306443
-0.011426
-0.0212082
-0.0110464
-0.00442799
0.00162513
0.000503663
-0.00570248
-0.00590959
0.00533636
0.0028799
-0.00883206
-0.00819105
-0.000149268
9.24632e-05
-0.0105211
0.000445144
0.00712086
0.00595893
-0.00116283
-0.00963619
-0.0241315
-0.0328022
-0.0218844
-0.00158001
0.000824549
-0.00622712
-0.00186195
-0.000839045
-0.00552894
-0.00923637
-0.000527007
-0.00115309
-0.00460029
-0.00350657
-0.00980974
-0.0094877
-0.00391215
-0.000223551
0.00892537
0.00314639
-0.0110747
-0.0216728
-0.0140742
-0.0025484
0.00186897
0.000563912
-0.0056444
-0.00528522
0.00632388
0.00320484
-0.0101329
-0.00829604
-0.000225269
0.000618046
-0.0104424
0.00183383
0.00784718
0.00514514
-0.00261508
-0.0103656
-0.0232294
-0.0311121
-0.0227876
-0.00187404
0.00129803
-0.00716571
-0.00177205
-0.00209543
-0.00565251
-0.00930394
-0.00176847
-0.000942482
-0.00590172
-0.00466342
-0.011318
-0.0128573
-0.00607723
-0.0052723
0.00604631
0.00513585
-0.0106864
-0.0195415
-0.0133436
-0.00212907
-0.002242
-0.000719509
-0.00408705
-0.00322178
0.00443169
0.00238453
-0.00724774
-0.00882208
-0.000273104
0.00282861
-0.00728213
0.00207466
0.00572555
0.00371412
0.000648046
-0.00974462
-0.0199973
-0.0285278
-0.0208932
-0.00442151
0.000473227
-0.00358
-0.00233974
-0.00323368
-0.00696594
-0.00877601
-0.00172048
-0.000658627
-0.00576569
-0.00581279
-0.0117466
-0.0104628
-0.00505525
-0.00725723
0.000864055
0.00688459
-0.00971085
-0.0189944
-0.0104295
-0.00451668
-0.0074516
-0.00233823
-0.00487176
-0.00226954
0.00106054
0.00228086
-0.0025382
-0.00595991
0.000447065
0.000370565
-0.0105036
-0.00230695
0.00473567
0.00363451
0.00161403
-0.00935364
-0.0177128
-0.0271862
-0.016114
-0.00171036
-0.00575041
-0.00849359
-0.00280391
-0.00344223
-0.0106816
-0.00943774
-0.00389759
-0.00170715
-0.00382416
-0.00703189
-0.0105893
-0.00837125
-0.00638832
-0.00445708
-0.00154403
-0.000466331
-0.00888302
-0.0190528
-0.010691
-0.00799898
-0.0075611
-0.00492279
-0.00618101
-0.00030536
0.00165961
0.0023323
0.000544537
-0.00149607
0.00244398
-0.00178193
-0.0109681
-0.00366746
0.00684249
0.00602768
0.00192891
-0.00917451
-0.0192379
-0.0269298
-0.0129044
0.00444262
-0.00238431
-0.00880979
-0.00284604
-0.00244233
-0.00917457
-0.00673535
-0.00258299
-0.00166638
-0.00373807
-0.00998155
-0.010484
-0.00812758
-0.00802672
-0.00327184
-0.000334415
0.00471965
-0.00799184
-0.0144945
-0.00871919
-0.00936682
-0.0107861
-0.00695553
-0.00576068
0.000905118
0.00576869
0.00347885
-0.00212231
0.000176207
0.00539768
-0.00185767
-0.00675711
-0.00364702
0.00815575
0.0101748
0.00311383
-0.00934888
-0.0201633
-0.0256102
-0.0114297
0.00423198
-0.00272834
-0.00651626
-0.0021384
-0.00170517
-0.0109317
-0.00697434
-0.00338263
-0.00223581
-0.00356642
-0.0139408
-0.0130277
-0.00728087
-0.00682009
-0.00275549
-0.00293731
-0.00504823
-0.00701537
-0.010979
-0.00628526
-0.00781859
-0.00725892
-0.00553132
-0.00751457
-0.00188025
0.00643135
0.00386828
-0.00429559
0.000449657
0.00822486
-0.00175815
-0.00922197
-0.00449947
0.00967776
0.0116864
0.00279395
-0.00955184
-0.0186576
-0.0210597
-0.00722758
0.0018471
-0.00366809
-0.00299146
-0.00145508
0.000569471
-0.00568667
-0.00525466
-0.00314885
-0.00131939
-0.00173077
-0.0165576
-0.0151731
-0.00972449
-0.00596181
-0.00109733
-0.00213136
-9.61818e-05
-0.00430447
-0.0109298
-0.00447569
-0.00333771
-0.00496093
-0.013449
-0.0093268
0.000276759
0.00529568
-0.000998473
-0.00307309
0.00133073
0.00310405
-0.000282402
-0.00967912
-0.00238524
0.0113005
0.0102621
0.00141026
-0.00963422
-0.015663
-0.0177179
-0.00528629
0.00412892
-0.00380164
-0.00683485
-0.00151845
0.00365224
-0.00374484
-0.00354372
-0.00258343
-0.000784865
-0.00165668
-0.0185009
-0.0177798
-0.00929823
-0.00704869
-0.00211713
-0.00341346
0.00116578
-0.00344812
-0.00860171
-0.00330117
-0.0017646
-0.00267114
-0.0107522
-0.0069914
0.000204365
0.00468827
-0.00264026
-0.0042879
0.000900389
0.00564945
0.00508086
-0.00354559
-0.000956994
0.00940778
0.00966883
0.0028708
-0.00853258
-0.0146161
-0.0186684
-0.0127156
0.00303734
-0.00361091
-0.0101083
-0.00275764
0.000630152
-0.00471699
-0.00426563
0.000336023
0.00241556
-0.00277589
-0.0182355
-0.0187477
-0.00821854
-0.00578979
-0.00673378
-0.00748611
-0.0115596
-0.00512113
-0.00490204
-0.00244928
-0.00145413
-0.00345897
-0.00941495
-0.00695279
-0.00153632
0.00232455
-0.00782756
-0.00460483
0.000264331
0.00485521
0.00724036
-0.0014084
-0.000710127
0.00601737
0.00801228
0.00511724
-0.0050868
-0.0151074
-0.0158486
-0.0126115
0.000420258
-0.00396851
-0.00947449
-0.00383414
0.00117185
-0.00377661
-0.00654039
0.00151132
0.00348522
-0.00248959
-0.0153614
-0.0186688
-0.00749918
-0.00406734
-0.00607458
-0.00582281
-0.00157848
-0.00402879
-0.00855286
-0.00236506
-0.000439629
-0.00561242
-0.0116911
-0.00817314
-0.000715483
0.00321731
-0.00133003
-0.00243079
0.00113056
0.0046256
0.00446644
0.000274199
0.000910758
0.00433526
0.00723951
0.0055182
-0.00179227
-0.0121032
-0.0151854
-0.00811817
-0.00257846
-0.0048883
-0.00664324
-9.16405e-05
0.00185542
-0.00347072
-0.00465617
0.00134822
0.00179893
-0.00167373
-0.0106257
-0.0157984
-0.00478796
-0.00119774
-0.00373517
-0.00593643
-0.000244044
-0.00244471
-0.00464272
-0.00106841
0.0016272
-0.00584742
-0.0125357
-0.0089486
0.0006115
0.0052148
0.00127344
-0.000462152
0.00112618
0.00305545
0.00369583
0.00154234
0.000547548
0.00351886
0.00557889
0.00588248
-0.000954102
-0.00909017
-0.0153342
-0.00848041
-0.00239048
-0.00422408
-0.00435942
0.00183322
0.00179721
-0.00574634
-0.0052188
-5.46853e-05
0.000226873
-0.00223116
-0.00707176
-0.0113889
-0.0045207
-0.000548826
-0.00197041
-0.00645035
-0.00345156
-0.00565068
-0.00451959
-0.00126324
0.00181829
-0.00449671
-0.010554
-0.00680721
0.00229628
0.00524646
0.00130255
-0.0006764
0.00171902
0.00251185
0.00253335
0.00295822
0.0032655
0.0035835
0.00473844
0.00567565
-0.000718174
-0.00859385
-0.0105777
-0.00701362
0.00145238
-0.00105391
-0.00468275
-0.000381467
0.00212095
-0.00233879
-0.00803639
-0.00257042
-0.000369016
-0.00302402
-0.00621563
-0.00943097
-0.00866051
-0.00250239
0.000320896
-0.000820602
-0.00347751
-0.00722148
-0.00589173
-0.00128758
0.00037211
-0.00113834
-0.00382468
-0.00268508
0.00280246
0.0048564
0.00293671
0.000320896
0.00263952
0.00332373
0.00232158
0.00184689
0.00199394
0.00112265
0.00369223
0.00500617
0.000156133
-0.00844849
-0.0102174
-0.00555264
0.00196507
0.00279054
-0.000458459
-0.000424615
0.00138088
-0.000408063
-0.0041209
-0.0024778
-0.00146852
-0.00203992
-0.00280789
-0.00610109
-0.0083284
-0.00259683
-0.000338576
-0.00156818
-0.00217836
-0.00358643
-0.00420489
-0.00398775
-0.00168722
-0.000429695
-0.00169294
0.000950174
0.00298883
0.00349951
0.00324109
0.00131973
0.0019216
0.00260129
0.00113677
-0.00260386
-4.65534e-05
0.000899472
0.000422307
0.00185529
0.000117741
-0.00414646
-0.00624444
-0.00295657
0.000910354
0.000404355
-0.00210067
-0.00124294
0.0013432
-0.000831671
-0.0039863
-0.00295502
-0.0027031
-0.00397913
-0.00319077
-0.0057678
-0.00525321
-0.00174116
-0.00127908
-0.00171443
-0.00192665
-0.0024541
-0.00217504
-0.00164107
-0.000738159
-0.00258666
-0.00290489
0.000654196
0.00330001
0.00165641
0.00201306
0.00159586
-0.000694169
-0.000441193
0.00081261
-0.00202453
-0.0023404
-0.000158003
0.000863451
0.000841169
-0.0035783
-0.00528091
-0.00494885
-0.00140019
-0.000881929
-0.00393033
-0.00587324
-0.00454099
-0.00020869
0.000199618
-0.00163161
-0.00149555
-0.00106399
-0.00209075
-0.00284133
-0.00466686
-0.00382537
-0.00142723
-0.00102899
-0.00101318
-0.00167203
-0.00298056
-0.00109199
0.000590527
4.67427e-05
0.00102294
-0.00173447
0.000970555
0.00481453
0.00524859
0.00283276
0.0021572
0.000440358
-0.000716954
-1.68608e-05
-0.000188112
-0.000630058
0.000562218
0.00204417
0.00199864
-0.00309217
-0.00742628
-0.005489
-0.00106765
0.00113633
-0.00171679
-0.00322658
-0.002563
2.21403e-05
0.000643644
-0.000186791
0.000627784
0.00174011
-0.000841473
-0.00240692
-0.00364495
-0.00496787
-0.00386954
-0.00342024
-0.00281438
-0.00301066
-0.00470009
-0.003635
0.00011362
0.00172165
0.00157565
0.00159788
0.00262303
0.00471819
0.00512249
0.00352717
0.00051729
0.000259824
0.000862468
0.000904742
0.000150066
-0.000169302
0.00102136
0.00264968
0.00280111
-0.000332833
-0.0024887
-0.00261021
-0.000806792
0.000858022
0.000196337
-0.000679033
-0.00114459
0.000785093
0.000987698
0.000104116
0.000519964
0.00122397
-0.000594017
-0.00280947
-0.00457012
-0.00476715
-0.00404868
-0.00407072
-0.00238716
-0.000554749
-0.00314723
-0.00207912
0.000124981
0.00094025
-0.000208677
-0.0017004
0.0011466
0.00418854
0.00421212
0.00303203
0.00173427
0.0012315
0.000857545
0.000973586
-6.907e-05
2.62019e-05
0.00119392
0.00224751
0.00218538
0.000611061
0.000190763
0.000787578
0.00260837
0.00231874
0.00157608
-0.000787678
-0.00294295
-0.00262383
0.000175705
0.000132822
0.000338654
0.00137609
-0.000242947
-0.00325943
-0.00416074
-0.00340612
-0.00197325
-0.000887751
0.000357406
0.00190015
0.000608181
-8.35924e-05
0.00113163
0.0016386
0.000158901
-0.00127767
0.000609674
0.00322055
0.0029221
0.00180165
0.00152075
0.00191685
0.00283864
0.00166455
-0.000358414
0.000173511
0.000799143
0.00150606
0.00188281
0.00160474
0.00108576
0.00122443
0.00186218
0.00170811
0.00140281
0.000700792
-0.000344927
-0.0011107
-0.000575021
-0.00121242
-0.00151457
0.000682677
0.000154416
-0.00275947
-0.00309963
-0.00209306
-0.00179261
-0.00184903
-0.00112319
0.000941867
0.000613115
-0.000316083
0.000711248
0.00152111
7.81558e-05
0.000613452
0.00186687
0.00236639
0.00154243
0.000432334
0.0004517
0.00114468
0.00159502
0.00137365
0.00118471
0.000960793
0.00101189
0.00128989
0.00179984
0.00180073
0.00188152
0.0024274
0.0023329
0.000949023
-0.000155452
-0.0010498
-0.00149314
-0.000599904
0.000832295
0.000982069
0.000920024
0.00277319
0.00205016
-0.00142648
-0.00270181
-0.00262763
-0.00295055
-0.00295935
-0.00156287
0.000526823
0.00102685
-0.00014285
5.52111e-05
0.00137609
0.000566047
0.00109791
0.0018695
0.00210793
0.00173392
0.00118281
0.00141896
0.00168383
0.00167404
0.00148685
0.00132162
0.00140172
0.00106249
0.00119723
0.00190693
0.00207667
0.000946347
0.00145814
0.00123497
0.000546607
0.000537505
0.000355017
-2.38839e-05
-0.000550134
-0.000254126
0.000218747
-0.000610777
-0.000586033
-0.000843268
-0.00282493
-0.00348542
-0.00318693
-0.00326992
-0.00293926
-0.0015026
2.3232e-05
0.000346723
-5.71182e-05
0.000559407
0.00125701
0.000164448
0.000968329
0.00181425
0.00235195
0.00267257
0.00211484
0.0020631
0.00231022
0.0022509
0.00209565
0.0015253
0.000810591
0.000852715
0.000962354
0.00152449
0.0022916
0.00262826
0.00232228
0.00177164
0.000349557
-0.000386862
-0.000293676
-0.000457291
-0.000797342
-0.000689476
0.000319417
0.000270182
0.000770493
0.00120185
-0.00106237
-0.00314192
-0.00285945
-0.0018232
-0.00125067
-0.000542193
0.000640972
0.0011488
0.000496542
0.000739006
0.000770879
0.000571814
0.00139783
0.0017848
0.00144726
0.00122728
0.000807
0.00115639
0.00173692
0.00202342
0.00170924
0.00188407
0.00152241
0.00140369
0.00159932
0.00178568
0.00214045
0.00237389
0.0027943
0.00249049
0.00142214
0.000832205
0.000263272
-0.000552423
-0.00132734
-0.0019556
-8.60479e-05
1.81377e-05
-6.063e-05
0.000665782
-0.000496765
-0.00206139
-0.00275061
-0.00253461
-0.00177752
-0.00157323
-0.00123351
0.000402899
0.00157388
0.00181658
0.00144854
0.00127819
0.00154219
0.00173764
0.00126599
0.00127009
0.000863798
0.000765383
0.00137933
0.000936461
0.000676653
0.00134157
0.00124061
0.000617085
0.001309
0.00169879
0.00202219
0.00244217
0.00244882
0.00202933
0.00104676
0.000163218
-0.000719453
-0.0007408
-0.000681607
-0.000956369
-0.000106706
0.000164618
0.00017807
0.000755847
-3.39321e-05
-0.00154166
-0.00257468
-0.00431346
-0.00359802
-0.00169283
-0.000821637
-9.73445e-05
0.000732837
0.000951488
0.000978247
0.00121293
0.00164859
0.00158499
0.00132258
0.00106126
0.000733018
0.000644224
0.00132394
0.00177895
0.00162275
0.00215386
0.00237251
0.00163171
0.00176731
0.00200439
0.00193575
0.00207497
0.00183866
0.00114537
0.00105617
0.000942757
0.000330819
0.000667709
0.000969156
0.000199955
0.000720881
0.00121381
0.00104145
0.000890672
2.00826e-06
-0.00122485
-0.00124057
-0.000938626
-0.000542078
0.000877789
0.00125727
0.000742422
0.00140421
0.00158336
0.00104513
-0.00766354
-0.0101439
-0.0124111
-0.00201296
0.0096297
0.00825145
0.000711595
-0.00652944
-0.00433883
0.000673899
-0.00528881
-0.00526101
-0.00220721
0.000380554
0.00685788
0.000347706
-0.00836652
-0.0024204
-0.0082439
-0.000746112
0.000304417
-0.0102502
-0.0074253
0.00305961
-0.00127752
-0.00689777
-0.00453822
-0.00095606
0.00141854
0.00396263
-3.36681e-05
-0.00441397
-0.00443417
0.00361267
0.0051753
-0.00449229
-0.0154806
-0.00447733
0.00400252
-0.000806499
-0.020247
-0.0214226
-0.0238561
-0.0140964
-0.0019426
-0.00379435
-0.0108555
-0.0183785
-0.0166489
-0.0114766
-0.0161809
-0.0146173
-0.0114477
-0.0113785
-0.00562189
-0.0119514
-0.0193949
-0.0126508
-0.0198754
-0.013201
-0.0122889
-0.0209047
-0.0194753
-0.00828112
-0.01316
-0.0186319
-0.0168692
-0.0125171
-0.0107885
-0.00817141
-0.0103337
-0.0142905
-0.0172854
-0.0086028
-0.00557664
-0.017495
-0.0282484
-0.0163549
-0.00577376
-0.012653
-0.01314
-0.0161674
-0.0181186
-0.00593962
0.0054312
0.0039399
-0.00408985
-0.010477
-0.00859511
-0.00358095
-0.0104867
-0.0112459
-0.00735817
-0.00504214
0.00200496
-0.00490436
-0.0138689
-0.00547566
-0.0114096
-0.00391894
-0.00371557
-0.0171451
-0.0123725
-0.00316557
-0.00691456
-0.0126783
-0.0101042
-0.00608305
-0.00185176
-4.67084e-06
-0.00562711
-0.00974806
-0.0158032
0.000637728
-0.000291528
-0.00749635
-0.0198416
-0.00848225
-0.00022253
-0.00731906
-0.0173526
-0.0204276
-0.0218795
-0.0120568
0.00347072
-0.00162414
-0.00855736
-0.0168387
-0.00974665
-0.00739379
-0.0131439
-0.0138404
-0.0118841
-0.0100518
-0.00417353
-0.0101265
-0.0196506
-0.0135018
-0.0166558
-0.00951701
-0.00498747
-0.0204272
-0.0185235
-0.00478131
-0.00896657
-0.0167174
-0.0115269
-0.00782854
-0.00619265
-0.00193048
-0.00862525
-0.013583
-0.0158965
-0.00267218
-0.0058006
-0.0142282
-0.0233358
-0.0135113
-0.00352955
-0.0100564
-0.0138567
-0.0183037
-0.0199577
-0.0101696
0.00425805
0.00425032
-0.00686633
-0.0162738
-0.0113713
-0.00179474
-0.0129882
-0.0118662
-0.00811119
-0.0027737
0.00156874
-0.00821099
-0.0215803
-0.0164629
-0.0151872
-0.00996167
-0.00571333
-0.0188303
-0.0156288
-0.00203421
-0.00596654
-0.0130897
-0.0110348
-0.00434355
0.000109228
0.000568337
-0.00636513
-0.0116219
-0.0165827
-0.00547678
-0.00369998
-0.0113684
-0.0187552
-0.00768716
2.28253e-05
-0.00765211
-0.0135768
-0.019097
-0.0208784
-0.00943592
0.000849645
2.36563e-05
-0.00809792
-0.0177591
-0.0137679
-0.00301664
-0.0150933
-0.0146457
-0.0121273
-0.0104971
-0.00194307
-0.00995375
-0.025169
-0.0201841
-0.0175148
-0.010475
-0.00763933
-0.0182608
-0.0134644
-0.0012523
-0.00751875
-0.0136116
-0.0115529
-0.00681806
-0.00418787
-0.00189052
-0.00993385
-0.0137017
-0.0196702
-0.00812992
-0.00597679
-0.00982777
-0.0188247
-0.00724238
0.00212706
-0.00593718
-0.0140202
-0.0169805
-0.020754
-0.00768346
0.000738148
-0.00159318
-0.00856907
-0.0149761
-0.012591
-0.00331136
-0.0167717
-0.0143898
-0.0101498
-0.00831384
-0.00492152
-0.0111656
-0.0282923
-0.0216544
-0.0171419
-0.00854681
-0.00804316
-0.0135011
-0.0101806
0.00024619
-0.00439337
-0.0125827
-0.0111557
-0.0103129
-0.00541412
-0.00145548
-0.0095631
-0.0146994
-0.0182973
-0.0114737
-0.00629474
-0.00885682
-0.016507
-0.00872799
0.00445837
-0.00561262
-0.014107
-0.0186491
-0.0199121
-0.0086336
0.00360018
-0.00130005
-0.0104207
-0.0144201
-0.0110756
-0.0110061
-0.0189766
-0.0156512
-0.00923329
-0.00634691
-0.00611977
-0.014906
-0.0293771
-0.022003
-0.0177652
-0.0109727
-0.00935847
-0.0120855
-0.00816629
0.000698433
-0.00527684
-0.0133161
-0.00882648
-0.00971408
-0.00429426
-0.000565802
-0.00806663
-0.0191131
-0.0125242
-0.0162827
-0.00618303
-0.00847603
-0.017919
-0.011843
-0.00103171
-0.00957331
-0.0125965
-0.0181714
-0.0178205
-0.00669561
0.0063023
-0.000495989
-0.00981412
-0.0132794
-0.00973569
-0.00754614
-0.0171117
-0.0126577
-0.00712376
-0.00657127
-0.00424455
-0.0194511
-0.0305118
-0.0218342
-0.0198634
-0.013036
-0.00936235
-0.0149315
-0.00890514
0.0013637
-0.00494212
-0.0119763
-0.00415514
-0.00434155
-0.00298723
0.000941543
-0.00815887
-0.0213705
-0.0089543
-0.0150448
-0.00770379
-0.00877687
-0.0192154
-0.0146042
-0.00167481
-0.00881605
-0.0141506
-0.0150811
-0.0150878
-0.00487775
0.00498202
-0.000992226
-0.00861521
-0.0112829
-0.0068469
-0.00328476
-0.0142491
-0.0123503
-0.00622324
-0.00670394
-0.00405574
-0.0221946
-0.0304359
-0.0203806
-0.0156562
-0.0120071
-0.00965264
-0.0163932
-0.0122443
-8.47991e-05
-0.00577522
-0.00733753
-0.00233844
-0.00174911
-0.00314543
0.00049032
-0.00914206
-0.0212099
-0.00891539
-0.00878422
-0.0085847
-0.00922823
-0.0180395
-0.0136528
-0.00449736
-0.0116119
-0.0147578
-0.0139925
-0.0103041
-0.0016043
0.00478261
0.00159901
-0.00704305
-0.00840942
-0.00137464
-0.00519247
-0.0149309
-0.0142267
-0.00826395
-0.00410154
-0.00167701
-0.0129643
-0.0256335
-0.0173455
-0.0102094
-0.0110453
-0.00897635
-0.0143198
-0.0130155
-0.00490866
-0.00420694
-0.0050804
-0.00514363
-0.0032994
-0.00148599
-0.00155516
-0.00754376
-0.0195598
-0.00750535
-0.00027821
-0.00779501
-0.00934868
-0.0152115
-0.00946926
-0.00355751
-0.0111024
-0.0178422
-0.0136902
-0.00703552
0.000336743
0.00534996
0.00213429
-0.00537236
-0.00517889
0.00113754
-0.00731352
-0.0162399
-0.0118387
-0.00687683
-0.00878886
0.000832099
-0.00953205
-0.0236302
-0.0224309
-0.00935222
-0.00947374
-0.00791409
-0.0123168
-0.00886215
-0.00268787
-0.00146579
-0.00512326
-0.00553041
-0.00139572
0.000478003
-0.00319287
-0.00810236
-0.0155491
-0.00855405
0.000408341
-0.0058044
-0.00760711
-0.0141454
-0.0098618
-0.00338167
-0.00603527
-0.0184013
-0.0120226
-0.00742623
-0.00143423
0.00472979
0.000371476
-0.00511061
-0.00243335
0.00249371
-0.00566206
-0.0125408
-0.00926319
-0.00365645
-0.00875373
-0.000689853
-0.00971878
-0.0215869
-0.0210428
-0.0078162
-0.00479755
-0.0064027
-0.0090066
-0.00480566
0.00173832
-0.0032727
-0.00745568
-0.00261973
0.0022719
0.00132515
-0.00278972
-0.0104855
-0.00636787
-0.00560898
-0.00276519
-0.00857633
-0.00627358
-0.00936976
-0.00905336
-0.00427745
-0.0049946
-0.01295
-0.0117577
-0.00939568
-0.00177754
0.00310517
-6.17373e-05
-0.00102617
-0.00229945
-0.0019589
-0.00487538
-0.0125764
-0.0100497
-0.00380886
-0.00487937
-0.00555472
-0.0088835
-0.0192593
-0.018617
-0.00860184
-0.00554285
-0.00514747
-0.00616069
-0.00289033
0.00207499
-0.00413909
-0.00831877
-0.00130528
0.00178294
-0.00131875
-0.00319419
-0.00825412
-0.00394899
-0.00229174
-0.00329961
-0.00712098
-0.00762912
-0.00443175
-0.00562629
-0.0018162
-0.00614889
-0.0171732
-0.0156702
-0.00967493
-0.00091738
0.00219049
5.50913e-05
0.00121074
-0.00189521
-0.00169468
-0.0044684
-0.0106166
-0.00850912
-0.00471341
-0.00434045
-0.00611921
-0.0096412
-0.0183882
-0.0203438
-0.0111648
-0.00499066
-0.00843115
-0.00536422
-0.00275686
-0.00385267
-0.000583679
-0.0022611
-0.00045152
0.00033857
0.000555863
-0.00283811
-0.00669342
-0.00487783
0.000501212
-0.00357474
-0.000998523
-0.0046349
-0.00689929
-0.00641846
-0.00209151
-0.0043861
-0.0155632
-0.0161068
-0.00852569
-0.000999431
0.00186163
0.000512336
-0.00466332
-0.00322365
0.000393273
-0.00465649
-0.00961379
-0.0062847
-0.00434283
-0.00459732
-0.00183482
-0.0065857
-0.0155009
-0.0197415
-0.0130962
-0.00505555
-0.00809959
-0.0133494
-0.00270758
0.00103015
-0.00219887
-0.000331453
0.00110502
-0.000818094
-0.00226209
-0.00147977
-0.00618561
-0.0069826
-0.00540967
-0.00898444
-0.00478395
-0.00288672
-0.00534788
-0.0060085
-0.00337089
-0.000628837
-0.0108832
-0.0103525
-0.00564001
0.00107697
0.00565197
0.00253649
-0.0018923
0.0001994
0.00206801
-0.00368991
-0.00827976
-0.00561369
-0.00449858
-0.00428143
-0.000928617
-0.00583713
-0.0147133
-0.0173585
-0.0120336
-0.00530051
-0.00536345
-0.0085117
-0.00222418
0.00133914
-0.00311283
-0.00250351
-0.00072026
-0.00129969
-0.00182697
-0.00094802
-0.00497573
-0.00910463
-0.00607285
-0.00857939
-0.00652779
-0.00111632
-0.000310335
-0.0016223
-0.000374658
0.000549518
-0.0063882
-0.00862773
-0.00654182
0.000596472
0.00608351
0.00478513
0.00149406
0.000994003
0.00296436
0.000770899
-0.00605166
-0.00519866
-0.00293661
-0.0014696
-0.00303131
-0.0105492
-0.0124672
-0.0139007
-0.00932683
-0.00340993
-0.00451867
-0.00551615
-0.00219794
-0.00237917
-0.00344594
-0.00163679
0.00190853
0.000349853
-0.000571227
1.23746e-05
-0.00595139
-0.00750933
-0.00265733
-0.00676467
-0.00718166
-0.00128407
-0.00449882
-0.00446121
-0.00243334
-0.000722748
-0.00368501
-0.0075504
-0.00893594
-0.00337284
0.00311032
0.00260199
0.00158556
-9.73316e-05
-0.000542832
0.00142617
-0.000720368
-0.00172089
-0.00214973
-0.00272449
-0.00193961
-0.00643577
-0.0105546
-0.0104045
-0.00466992
0.00083989
-0.0018519
-0.00578052
-7.92344e-05
0.000916229
-0.00281198
-0.00166364
0.00321285
0.001581
-0.00042723
-7.93064e-05
-0.00429418
-0.00505244
-0.00165707
-0.0052892
-0.00837266
-0.00505384
-0.00296784
-0.00372181
-0.00385857
-0.00154308
-0.00190957
-0.00440854
-0.00268243
-0.000334707
0.00389359
0.00302325
-0.0028755
-0.00303457
-0.0017248
0.00119308
0.00108051
0.000587197
-0.00297258
-0.00387843
-0.00171991
-0.00376947
-0.00790319
-0.00800179
-0.0037181
0.000201432
-0.000710529
-0.00316932
-0.000258124
0.00150025
-0.00235415
-0.00544031
-0.0014003
0.000674966
0.000190328
-0.000504505
-0.00313329
-0.00467898
-0.00265436
-0.00232444
-0.00316164
-0.00338699
-0.00375242
-0.00242643
-0.000244519
-0.000303152
-0.000627815
-0.00464898
-0.000578553
0.0044033
0.00580415
0.00468141
-0.00164883
-0.00456663
-0.00359737
-0.00096999
-0.00203492
0.000454647
0.00129183
-0.000940381
-0.00240003
-0.00339939
-0.00459812
-0.00489891
-0.00383659
-0.0042942
-0.00450947
-0.00405149
-0.00120528
0.000495236
-0.00196141
-0.00380906
-0.00147192
0.000252044
-0.000305122
-0.000961143
-0.00387909
-0.00445299
-0.00187732
-0.000710865
0.000386394
-0.00254745
-0.00442098
-0.00238805
0.00180195
0.00349437
3.2967e-05
-0.00420419
-0.000766198
0.00412463
0.00631956
0.00510086
0.00271928
-0.00377638
-0.00590865
-0.00123569
-0.00130751
-0.000515461
0.000127742
0.000553794
-0.000914976
-0.00841006
-0.00678146
-0.00555853
-0.00367855
-0.00284654
-0.00259348
-0.00435534
-0.00351125
-0.000539306
-0.00153615
-0.002223
0.000556205
0.000507414
-0.00120979
-0.000565706
-0.00241318
-0.00483194
-0.00341778
-0.00595625
-0.00379519
-0.00198978
-0.0050475
-0.00467177
-0.000474891
0.00224089
0.00100463
0.00116382
0.00231217
0.0050602
0.00629899
0.00495921
0.00391922
0.00169966
-0.000678868
0.00035936
0.000451598
-6.50596e-06
0.000606336
0.00101304
0.00171813
0.000348214
-0.00438757
-0.00482809
-0.00226415
0.000777539
0.000693747
-0.00181204
-0.00222272
-0.000618744
-0.00152836
-0.00267945
-0.000138188
-0.000514552
-0.00120137
0.000227071
-0.00142602
-0.00586814
-0.012445
-0.00838908
-0.0043638
-0.000439061
-0.00339628
-0.0059757
-0.00323356
-0.000530682
0.000734439
-0.00093912
0.000299286
0.00377392
0.00485507
0.00311521
-0.000255328
-0.00104759
-0.000653189
-0.000301037
-4.09428e-05
-0.000249484
0.00101684
0.0019133
0.0014402
0.000443443
-0.000745236
-0.00220778
-0.000265086
0.00158575
0.00165272
-0.000327069
-0.00179413
-0.00097298
-0.000661408
-0.00160232
-0.00057252
0.00132169
0.000338357
-0.00219697
-0.00577852
-0.00650033
-0.00582695
-0.00497958
-0.00296159
-0.000181277
0.00302725
-0.000706194
-0.000656993
0.00109646
-0.000936506
-0.00384098
-0.000525062
0.00360615
0.00374688
0.00115873
-0.000610017
-0.00101627
-0.000127228
-0.000454208
-0.000836671
-0.000757114
-0.000289297
0.000604319
0.00112367
0.000646601
0.000657165
0.000946387
0.00174418
0.00152928
-7.43637e-05
-0.00232561
-0.00451633
-0.00434416
-0.00276514
-0.00285685
-0.000387846
0.00230291
0.00104656
-0.00269652
-0.00508286
-0.00614094
-0.00519986
-0.00470021
-0.000823214
0.00128424
0.00376705
0.00108811
0.00148854
0.00198886
0.000362793
-0.00079015
0.000897391
0.0031439
0.00230924
0.00103245
0.000189945
0.00114147
0.0018793
0.000587016
-0.000464063
-6.47791e-05
0.000859222
0.00136162
0.00139729
0.00119053
0.00113651
0.00150302
0.00166164
0.000961773
-9.54655e-05
-0.000847525
-0.00201002
-0.00301433
-0.00244759
-0.00223772
-0.00156517
0.000737395
0.000201919
-0.00268059
-0.00351115
-0.00286935
-0.00392718
-0.00428131
-0.00262052
-0.000145124
0.000597005
-0.000684836
0.000573116
0.00150899
0.00111013
0.000650221
0.00110441
0.00228456
0.00178814
0.000398509
-0.00018948
8.30912e-05
0.00031737
0.000642159
-0.000376712
-0.000203499
0.000336742
0.000952636
0.00155333
0.00195643
0.0021243
0.00210719
0.00180685
0.000892548
-4.63295e-05
-0.00135035
-0.00337612
-0.00393991
-0.00198523
-0.000627468
-0.000232085
0.00125583
0.000745715
-0.00201653
-0.003628
-0.00478102
-0.00503119
-0.00486883
-0.00324726
-0.000433837
0.000212463
-0.000732938
0.000216874
0.00163722
0.000721487
0.00137983
0.00177887
0.00214222
0.00175165
0.000890085
0.000699419
0.000805134
0.000769903
0.00102973
0.00110143
0.00150462
0.000922488
0.000802318
0.00123751
0.00161076
0.0012265
0.00129231
0.000919561
0.000623289
0.000918607
0.000534278
-0.00164586
-0.00355859
-0.00310513
-0.00126729
-0.00161509
-0.00143586
-0.00131378
-0.00317802
-0.00495309
-0.0065465
-0.00563621
-0.00436557
-0.00234188
-0.000490798
0.000250171
0.000373264
0.000883851
0.000623546
0.000115801
0.000965334
0.00133304
0.0015897
0.00184114
0.00182271
0.00176685
0.0019897
0.00154828
0.00135109
0.00126299
0.000626466
0.000411911
0.000286069
0.000976932
0.00161011
0.00161966
0.00116451
0.000934226
0.000134302
4.26375e-06
-0.000308304
-0.000459443
-0.000423547
-0.000196876
0.000359542
7.76275e-05
0.000433081
0.00100692
-0.000650213
-0.00308907
-0.00391447
-0.00259127
-0.00196604
-0.000924838
-7.447e-05
0.000275204
6.83966e-06
-0.000251035
0.000196505
0.000632808
0.00161191
0.00158666
0.000529238
9.94687e-05
0.000187862
0.00103644
0.00156088
0.00103109
0.000879827
0.00144078
0.00135515
0.00115995
0.000845397
0.000909845
0.00121886
0.00164456
0.00277286
0.00208486
0.000908793
0.000505119
-2.8931e-05
-0.000767025
-0.00132518
-0.000886176
-0.000259722
-0.00014047
0.000106438
0.000148616
-0.0010686
-0.00380678
-0.00586949
-0.00553555
-0.00280293
-0.0013026
-0.00106974
0.000106591
0.00091006
0.000963952
0.000745508
0.00116933
0.00169941
0.00169662
0.00122219
0.00138683
0.00103997
0.000608275
0.00071766
0.000312622
0.000240553
0.00118561
0.00125781
0.000882705
0.00138672
0.00170766
0.0019471
0.00221258
0.00218684
0.00171522
0.000745932
8.08772e-05
-0.000593416
-0.000506816
-0.000432457
-0.000656872
-3.11031e-05
0.000272748
0.000278866
0.000274856
-0.000964852
-0.00292898
-0.00433754
-0.00545929
-0.00450228
-0.00179338
-0.000553721
5.6973e-05
0.000593362
0.000948705
0.000893104
0.0011798
0.00140791
0.00124689
0.000609789
0.000617026
0.000563041