/*--------------------------------*- C++ -*----------------------------------*\
  =========                 |
  \\      /  F ield         | OpenFOAM: The Open Source CFD Toolbox
   \\    /   O peration     | Website:  https://openfoam.org
    \\  /    A nd           | Version:  10
     \\/     M anipulation  |
\*---------------------------------------------------------------------------*/
FoamFile
{
    format      ascii;
    class       volSymmTensorField;
    location    "3";
    object      UPrime2Mean;
}
// * * * * * * * * * * * * * * * * * * * * * * * * * * * * * * * * * * * * * //

dimensions      [0 2 -2 0 0 0 0];

internalField   nonuniform List<symmTensor> 
25600
(
(0.000467778 -0.000192193 0.000177107 0.000100714 -8.23867e-05 0.000146539)
(0.000545352 -0.000213636 0.000136854 0.000103474 -5.66386e-05 0.000111797)
(0.000553804 -0.000213935 5.82234e-05 0.000101564 -2.06203e-05 7.86222e-05)
(0.000611968 -0.000214331 0.000126134 9.87533e-05 -5.52902e-05 0.000122906)
(0.000805267 -0.000249295 0.000274281 9.61973e-05 -0.000113291 0.000228701)
(0.00087429 -0.00025669 0.000351179 9.22685e-05 -0.000133839 0.000274497)
(0.00106141 -0.000277756 0.000439203 9.26075e-05 -0.000153267 0.00032245)
(0.00117487 -0.000282244 0.000499518 9.18533e-05 -0.000165626 0.000357254)
(0.00115753 -0.000268418 0.000456286 9.09225e-05 -0.000152438 0.000306362)
(0.000914015 -0.000226754 0.00037299 8.98058e-05 -0.000135681 0.00025131)
(0.00066463 -0.000189858 0.000319178 8.79255e-05 -0.000118709 0.000220082)
(0.000549381 -0.000169046 0.000310695 8.99391e-05 -0.000119975 0.000237941)
(0.000493167 -0.000152019 0.000368375 8.31932e-05 -0.000152592 0.000367036)
(0.000412719 -0.000136779 0.000336793 8.73781e-05 -0.00016001 0.000369397)
(0.000305687 -0.000117289 0.000258087 9.2283e-05 -0.000133894 0.000277465)
(0.000247764 -0.000106129 0.00022601 9.15887e-05 -0.000125615 0.000275041)
(0.000288608 -0.000122198 0.000279642 8.72064e-05 -0.000126543 0.000313356)
(0.000276432 -0.000129616 0.000247961 9.07763e-05 -0.000111017 0.000252954)
(0.000200407 -0.000111432 0.00020884 9.35199e-05 -0.000122697 0.000243192)
(0.000175917 -0.000102457 0.000186532 9.47802e-05 -0.000107831 0.000216433)
(0.000175229 -0.000111907 0.000149742 9.8789e-05 -8.02177e-05 0.000155551)
(8.77459e-05 -7.30164e-05 6.42437e-05 9.23348e-05 -3.65464e-05 0.000154329)
(9.87452e-05 -6.59152e-05 -5.626e-05 9.68782e-05 1.27099e-05 0.000153472)
(0.000144464 -6.40743e-05 -4.03794e-05 8.84907e-05 -3.01962e-05 0.00016118)
(8.33284e-05 -2.91348e-05 1.51649e-06 9.05415e-05 -8.03855e-05 0.000197377)
(4.07293e-05 -2.40493e-05 3.66504e-06 9.31863e-05 -8.87506e-05 0.000235619)
(0.000111141 -6.63852e-05 -5.71255e-06 0.000100032 -7.75111e-05 0.000222475)
(0.000359901 -0.000140091 -3.6387e-05 0.000103704 -6.98928e-05 0.000237628)
(0.00070452 -0.000210022 -2.64222e-05 0.000106649 -6.7676e-05 0.000222427)
(0.000688874 -0.000196081 -4.24438e-05 0.000108276 -4.82414e-05 0.000140309)
(0.000488869 -0.000132568 -7.0699e-05 0.000108452 -1.97851e-05 7.77484e-05)
(0.000433173 -0.000120557 -4.4308e-05 0.000108768 -2.10783e-05 6.30749e-05)
(0.00039028 -0.00013795 1.82862e-05 0.000112275 -4.10392e-05 6.67998e-05)
(0.000236172 -0.000116689 8.64048e-05 0.000111271 -7.11552e-05 8.75116e-05)
(0.000150203 -0.000115025 0.000116181 0.000113947 -0.000107347 0.000146985)
(0.000157055 -0.000120787 6.55153e-05 0.000106474 -6.99367e-05 8.33968e-05)
(0.000184715 -0.000127315 -3.04133e-05 0.000103858 1.53603e-05 2.95762e-05)
(0.000287139 -0.000168932 -6.43678e-05 0.000112087 4.20484e-05 4.04852e-05)
(0.000512847 -0.000232452 -4.2174e-05 0.00011509 2.94305e-05 4.60546e-05)
(0.000508909 -0.000212679 6.5254e-05 0.000102192 -2.21559e-05 7.2395e-05)
(0.00145585 0.000290328 -0.000269486 8.80335e-05 -4.94123e-05 0.00018547)
(0.00169906 0.000321562 -0.000468832 8.48387e-05 -9.26503e-05 0.000235497)
(0.00179582 0.000333482 -0.000630816 8.65691e-05 -0.000124376 0.000308152)
(0.00195776 0.000311438 -0.000372694 8.67338e-05 -4.89467e-05 0.000184305)
(0.00227601 0.000309473 -3.29381e-05 8.5233e-05 3.80173e-05 0.000138656)
(0.00244456 0.00030186 0.000196898 7.74371e-05 7.13045e-05 0.000156391)
(0.00306692 0.000293069 0.000420618 6.57538e-05 9.33971e-05 0.000212678)
(0.00307609 0.000282619 0.000441457 7.32653e-05 9.52381e-05 0.000203748)
(0.00299131 0.000303195 0.000220171 9.45262e-05 5.52603e-05 0.000128864)
(0.00230026 0.000271795 6.77485e-05 0.000105094 6.38209e-06 0.000101867)
(0.00139461 0.000220327 0.000108739 0.000102449 -7.79681e-06 9.3073e-05)
(0.000916929 0.000165205 0.000201166 9.30603e-05 1.27659e-05 0.000130586)
(0.000625967 0.000123862 0.000269868 8.47358e-05 6.47503e-05 0.000213262)
(0.000512384 0.000135082 0.000228563 9.89508e-05 4.12201e-05 0.000187747)
(0.000293403 6.86214e-05 0.000165983 8.86458e-05 -2.2472e-06 0.000267503)
(0.000154288 3.69443e-06 0.000108745 8.22856e-05 2.56352e-05 0.000384585)
(0.000147993 6.18059e-05 9.36503e-05 8.26374e-05 2.23233e-05 0.000454587)
(0.000246172 0.000118127 -1.23057e-05 8.67201e-05 -2.92213e-05 0.000330255)
(0.000189007 8.07426e-05 3.62039e-05 8.92127e-05 2.19107e-06 0.000176489)
(0.000162524 7.33612e-05 6.22914e-05 9.83098e-05 -4.74722e-06 0.000193442)
(0.000303037 0.000152262 -5.08681e-05 0.000103234 -6.31627e-05 0.000233447)
(0.000202408 8.28846e-05 -0.000199985 9.59401e-05 -0.000131314 0.000404727)
(0.000575845 5.62042e-05 -0.000389595 9.57052e-05 -0.000182729 0.000609377)
(0.000750225 6.91907e-06 -0.000286095 8.95249e-05 -0.000104713 0.000375638)
(0.000448163 -8.12923e-05 -0.000140006 0.000100666 -6.89471e-05 0.000320358)
(0.000455291 -0.000110923 -0.000208044 9.15079e-05 -3.87473e-05 0.000354755)
(0.0007439 -0.00010631 -0.000312324 8.59824e-05 -4.97556e-05 0.000369428)
(0.00133913 -4.06614e-05 -0.000546132 9.06923e-05 -6.24551e-05 0.000399457)
(0.00211085 0.000132308 -0.000630384 9.6124e-05 -4.31557e-05 0.000313768)
(0.00220779 0.000185768 -0.000459963 0.000102013 -4.16392e-05 0.000194445)
(0.00157294 7.92557e-05 -0.000338626 0.000108621 -0.000100275 0.000218164)
(0.0011566 -1.6588e-06 -0.000190237 0.000106073 -0.000146912 0.000324842)
(0.000786728 2.79293e-05 -0.000171544 0.000106192 -0.000150047 0.000348724)
(0.000343761 4.52067e-05 -4.35248e-05 0.000105917 -9.63095e-05 0.00021501)
(0.000155547 3.92954e-05 -3.46931e-05 0.000110812 -3.3492e-05 0.000139515)
(0.000171541 6.62413e-05 -0.000145778 0.000128834 -0.000113102 0.000185906)
(0.000521564 0.00020149 -0.000491739 0.000121877 -0.000247643 0.000555527)
(0.000967937 0.00024689 -0.000749146 7.92385e-05 -0.00022358 0.000670589)
(0.00161128 0.000330563 -0.000932207 8.02053e-05 -0.000216189 0.000668647)
(0.00173454 0.000342142 -0.000675393 8.90599e-05 -0.000140068 0.000406184)
(0.00326482 -0.000429497 -0.000842247 6.88009e-05 8.5201e-05 0.000408681)
(0.00318005 -0.000450556 -0.000977544 7.7845e-05 0.000124157 0.000496761)
(0.0035052 -0.000462803 -0.00123367 7.13578e-05 0.000152941 0.000614279)
(0.00317951 -0.000443828 -0.000642357 7.35711e-05 7.61262e-05 0.000279642)
(0.00238883 -0.000362783 1.49164e-05 7.17186e-05 -2.28336e-05 0.000127728)
(0.00229867 -0.000347507 0.000212923 6.7585e-05 -5.00486e-05 0.000120449)
(0.0030788 -0.000440725 0.000286887 7.8462e-05 -5.98077e-05 0.000117102)
(0.00259555 -0.000352538 0.000156276 6.73635e-05 -3.8295e-05 8.81281e-05)
(0.00238392 -0.000248435 -0.000194943 3.98639e-05 2.29934e-05 0.000103386)
(0.00191515 -0.00018409 -0.000460259 2.72144e-05 6.683e-05 0.000275291)
(0.00111938 -0.000150633 -0.000298668 3.29274e-05 6.44251e-05 0.000267187)
(0.000589914 -0.000124526 -4.55599e-05 4.89068e-05 2.05461e-05 0.000168016)
(0.000295317 -8.12245e-05 6.21424e-05 5.53507e-05 -3.7008e-05 0.000224719)
(0.000420436 -0.000117338 -3.46093e-06 4.72195e-05 -1.36911e-06 0.000301035)
(0.000502225 -0.000139477 -0.000267981 5.09291e-05 6.17888e-05 0.000547981)
(0.000262239 2.76018e-05 -0.000174416 6.34552e-05 2.22856e-05 0.000525017)
(0.00022114 -3.48139e-06 -0.000255292 6.20578e-05 -1.24936e-05 0.000583675)
(0.000486225 -0.00013004 -0.000327752 6.01719e-05 5.26338e-05 0.000500245)
(0.000278041 -7.16209e-05 -0.000171984 6.18029e-05 5.7103e-05 0.000287264)
(9.58622e-05 -1.00127e-05 -2.58322e-05 5.32057e-05 4.22227e-05 0.000156347)
(0.000391468 -0.000131703 -0.000219407 4.89772e-05 7.87112e-05 0.00023246)
(0.000669933 -0.000168511 -0.000533129 4.96411e-05 0.000144241 0.00051695)
(0.000600407 -0.000145643 -0.000367885 6.37676e-05 0.000155046 0.000612226)
(0.000423465 -4.65951e-05 -0.00011247 5.54342e-05 8.28693e-05 0.000402405)
(0.000666965 4.98024e-05 -0.000157908 3.94233e-05 6.18171e-05 0.000353182)
(0.00094536 4.02196e-05 -0.00027645 5.19775e-05 5.94336e-05 0.000285089)
(0.00131891 5.61104e-05 -0.000264507 8.03824e-05 7.9792e-05 0.000241672)
(0.00194473 9.40984e-05 -3.50524e-05 9.51013e-05 0.000114625 0.000218644)
(0.00159293 3.4458e-05 -7.57512e-06 9.02633e-05 7.6656e-05 0.000169578)
(0.000905476 -3.16649e-05 -4.96746e-05 7.48469e-05 2.84419e-06 0.000155225)
(0.000567227 -4.07441e-05 1.02454e-05 5.23081e-05 1.01132e-05 0.000162211)
(0.00040372 -1.29144e-05 8.99813e-05 4.76082e-05 6.7905e-05 0.000246585)
(0.000338869 1.97947e-05 0.000211224 5.87193e-05 0.000151482 0.000560604)
(0.000186912 3.67646e-05 0.000161295 5.90408e-05 0.000151518 0.000643166)
(0.000433987 0.000106283 2.07842e-05 5.74974e-05 6.49556e-05 0.000292338)
(0.000717879 8.80094e-05 0.000136899 3.56046e-05 8.40227e-05 0.000337775)
(0.00115405 -0.000163665 -0.000833187 3.52343e-05 0.000166693 0.00101218)
(0.00274699 -0.000433701 -0.00158343 8.01989e-05 0.000285154 0.00117798)
(0.00364364 -0.000537047 -0.00174113 9.1461e-05 0.000282705 0.00106784)
(0.0044208 -0.000510591 -0.00157754 6.50036e-05 0.00017232 0.0007224)
(0.00388482 0.000218885 -0.00100747 2.57053e-05 -9.01971e-05 0.000591428)
(0.00301669 0.00017596 -0.00123014 2.1286e-05 -0.000112532 0.000820734)
(0.00364704 0.000265166 -0.00171881 3.09226e-05 -0.000167651 0.00113786)
(0.00345743 0.000211744 -0.00106782 3.94779e-05 -0.000120493 0.000643255)
(0.00181215 2.94909e-05 -0.000179274 4.21757e-05 -3.91669e-05 0.000185078)
(0.00120511 -6.0245e-05 -4.95946e-05 3.46475e-05 -8.36457e-07 0.000121996)
(0.00184167 2.36423e-06 -0.000130584 3.14159e-05 1.43377e-05 8.95442e-05)
(0.00171753 3.38061e-05 -0.000201664 4.25484e-05 1.73603e-05 7.74039e-05)
(0.00159846 4.53279e-05 -0.000327462 6.72772e-05 -1.84402e-05 0.000132021)
(0.00151032 0.00013818 -0.000543485 9.38039e-05 -0.000147279 0.000388315)
(0.00111899 0.000188505 -0.00053708 9.38209e-05 -0.00021765 0.00061501)
(0.000528842 7.62511e-05 -5.16133e-05 4.85153e-05 -8.99367e-05 0.000279883)
(0.000281357 1.97029e-05 8.18704e-05 2.90386e-05 -2.78764e-05 0.0003006)
(0.000495463 6.72542e-05 -6.77939e-05 3.87511e-05 -6.58842e-05 0.000379807)
(0.00111411 0.000154964 -0.000534716 5.20647e-05 -0.000119632 0.000571467)
(0.000374666 -1.034e-05 -6.86233e-05 3.68904e-05 -3.82324e-05 0.000401177)
(0.000400311 -4.64104e-05 -0.000195073 1.72005e-05 1.2595e-05 0.000392711)
(0.000240835 7.0614e-06 4.92697e-06 1.8388e-05 2.32438e-06 0.000335818)
(0.000299042 -1.33161e-05 2.00337e-05 2.27302e-05 -2.24133e-05 0.000238514)
(0.000610463 -9.21578e-05 3.59096e-05 2.28853e-05 -2.34083e-06 0.00010187)
(0.000160977 -4.81252e-05 2.65188e-05 3.61418e-05 -1.6157e-05 9.08424e-05)
(0.000176494 4.38e-05 -0.000100694 4.41017e-05 -9.82813e-05 0.000301484)
(0.000318581 2.0587e-05 -0.000187792 4.23381e-05 -0.000129192 0.000549711)
(0.000588386 -5.18611e-05 -0.000111014 3.88356e-05 -6.49553e-05 0.000352307)
(0.00136892 -0.000210427 -0.000258367 5.18562e-05 1.73209e-05 0.000253136)
(0.00188415 -0.000276921 -0.000291076 5.15091e-05 3.20273e-05 0.000190006)
(0.00157677 -0.000219384 -0.000156182 4.54724e-05 1.58058e-05 0.000104012)
(0.00172358 -0.000231917 0.000128938 4.40274e-05 -2.42857e-05 0.000154807)
(0.00214747 -0.000262045 0.000164998 4.19877e-05 -3.66029e-05 0.00025351)
(0.0019512 -0.000246316 -0.000154345 4.25181e-05 -1.68955e-05 0.000286275)
(0.00165516 -0.000284636 -8.49797e-05 5.80442e-05 -8.4948e-06 0.000254064)
(0.00109534 -0.000248622 8.03667e-05 7.00912e-05 -3.31303e-05 0.000227069)
(0.000687805 -0.000175745 0.000300339 6.0463e-05 -9.87204e-05 0.000275099)
(0.000575586 -0.000117132 0.000423427 4.64763e-05 -0.000158294 0.000700289)
(0.00150189 -0.000245374 0.000408441 5.85877e-05 -9.69953e-05 0.000402021)
(0.00550984 -0.000583781 0.000335012 7.34401e-05 -5.96024e-05 0.000266062)
(0.00117799 -0.000106558 0.000155743 4.87325e-05 -0.000178301 0.000911991)
(0.0031393 7.09005e-05 -0.00152244 1.41984e-05 -9.4894e-05 0.00135611)
(0.00278021 0.000171234 -0.00127621 2.28419e-05 -0.000113034 0.000962391)
(0.00519495 0.000339741 -0.00142513 3.52691e-05 -0.000102149 0.000625476)
(0.00420407 -0.000323523 -0.000756426 3.17186e-05 6.14325e-05 0.000340548)
(0.00192602 -0.00024927 -0.000803565 5.32749e-05 0.000150797 0.00070521)
(0.00159983 -0.000199372 -0.00115659 4.03204e-05 0.000159926 0.00124881)
(0.00276988 -0.000218098 -0.00120504 2.83517e-05 6.68025e-05 0.000771021)
(0.00240012 -0.000208021 -0.000761799 2.84785e-05 3.72265e-05 0.000466229)
(0.000933387 -0.000174046 -0.000308965 4.3215e-05 6.75085e-05 0.00028273)
(0.000931496 -0.000144431 -0.000239746 4.43795e-05 5.5437e-05 0.000124441)
(0.00100646 -9.03803e-05 -0.000181496 1.73759e-05 2.16369e-05 7.12704e-05)
(0.00109864 -9.5817e-05 -0.000201588 1.59342e-05 1.46565e-05 7.8403e-05)
(0.000950758 -8.16188e-05 -0.000159253 1.42526e-05 1.32669e-05 0.000135233)
(0.000936008 1.99639e-05 -0.0004613 1.41965e-05 -4.04652e-05 0.00056656)
(0.00111791 -4.38966e-05 -0.000403544 1.07826e-05 1.40939e-05 0.000506357)
(0.00063733 -8.59554e-05 -4.85572e-05 4.97854e-05 -2.27191e-05 0.000222885)
(0.000636214 -0.000114941 -0.000122883 4.5588e-05 -3.14787e-05 0.000265017)
(0.00109623 -9.92097e-05 -0.00053998 2.89917e-05 1.39664e-06 0.000484081)
(0.000440033 -8.36576e-05 -0.000180771 3.83421e-05 2.94372e-05 0.000284271)
(0.000620395 9.58226e-05 -0.000160212 6.13195e-05 -4.52084e-05 0.000238644)
(0.000377007 6.22201e-05 -0.000137152 6.34037e-05 -8.76189e-05 0.000416828)
(0.000239116 6.27411e-07 3.95819e-05 6.18571e-05 -4.41074e-05 0.000250691)
(0.000557336 0.000127289 3.64048e-05 5.18823e-05 -3.2412e-05 0.000182329)
(0.000666344 0.000142168 -0.000145564 3.59131e-05 -4.53558e-05 0.000156497)
(0.000232284 4.54575e-05 -6.37603e-05 2.18972e-05 -7.84569e-06 0.00016156)
(0.000381761 -3.59436e-05 -0.000128713 2.41448e-05 6.49709e-05 0.000378588)
(0.00076372 -7.10442e-05 -0.000106086 3.35579e-05 5.0769e-05 0.000272064)
(0.0013403 -4.56751e-05 -0.000202613 2.94623e-05 -4.23688e-06 0.000148583)
(0.00234989 5.80487e-05 -0.000638135 3.51662e-05 -2.95532e-05 0.000263516)
(0.00159478 -3.045e-06 -0.000364637 6.60092e-05 -4.98306e-05 0.000206093)
(0.00137245 -7.42331e-05 -7.11854e-05 7.44526e-05 -3.82303e-05 0.000154582)
(0.00174837 -6.16342e-06 8.21299e-05 6.03719e-05 -2.35626e-05 0.000267839)
(0.00187521 5.8205e-05 1.89185e-05 4.3128e-05 -2.27332e-05 0.000228392)
(0.00269127 0.000101183 -0.000120131 2.1144e-05 -2.15388e-05 0.000143587)
(0.00266075 4.32549e-05 -7.66599e-05 2.14502e-05 -2.72716e-05 0.000272887)
(0.000863693 1.60264e-06 5.29624e-05 2.28324e-05 -2.39091e-05 0.000168148)
(0.000487597 -2.00572e-05 7.51058e-05 2.33881e-05 2.26038e-05 0.000300216)
(0.00084558 -2.08833e-05 0.000293244 1.3069e-05 -6.9499e-06 0.000554446)
(0.00544197 -7.87249e-05 6.49048e-05 2.01797e-05 -1.94778e-05 0.000242241)
(0.0023134 0.000136414 0.000325935 4.73781e-05 2.33276e-05 0.000283525)
(0.000648031 -8.30693e-05 -0.000208001 0.000108058 0.000295826 0.00108287)
(0.00071774 0.000127524 0.000697909 5.43971e-05 0.000263989 0.00154449)
(0.00135911 -0.00011582 -0.000571207 2.71847e-05 8.189e-05 0.000530753)
(0.00167849 -2.48123e-05 -0.000329836 5.80937e-06 -3.34481e-06 0.000270131)
(0.00135667 -3.00379e-05 -0.000335018 5.73905e-06 -1.19073e-05 0.000404168)
(0.000710879 -1.43449e-05 -4.64443e-05 5.89507e-06 4.15604e-06 0.00103318)
(0.000633687 -9.017e-06 -0.00048133 1.78177e-05 -5.30602e-05 0.000828941)
(0.00175248 7.96735e-05 -0.000913653 4.05152e-05 -0.000105736 0.000714987)
(0.00126141 1.99403e-05 -0.000857828 2.54525e-05 -5.71878e-05 0.000770232)
(0.000501906 -3.41526e-05 -0.000346974 1.68198e-05 -2.49597e-05 0.000520557)
(0.00062751 -0.000126389 -2.17034e-05 3.88967e-05 -3.67023e-05 0.000212872)
(0.00106983 -0.000192091 -0.000178334 4.44834e-05 1.19015e-05 0.000130868)
(0.00127117 -0.000159862 -0.000239664 3.01482e-05 1.15908e-05 0.000165498)
(0.000536817 -9.35102e-05 -1.73241e-05 7.69124e-05 -9.26585e-05 0.000255804)
(0.00123257 0.000162753 -0.000647251 7.73736e-05 -0.000182752 0.000637018)
(0.000950304 -3.18738e-05 -0.000204189 2.45716e-05 -4.24206e-05 0.000324486)
(0.000706871 -2.48797e-05 -0.000130595 2.77439e-05 -5.1619e-05 0.000315157)
(0.000788308 5.65864e-05 -0.00046679 5.10247e-05 -0.000112736 0.000546443)
(0.000779372 2.93849e-05 -0.000481702 4.01668e-05 -7.19177e-05 0.00052723)
(0.000644206 -5.43005e-05 -0.000240596 2.13128e-05 -1.00402e-06 0.000434503)
(0.000488368 -2.42916e-05 -0.000309344 1.93271e-05 1.77922e-06 0.000694724)
(0.000256161 -5.10442e-05 6.35961e-05 2.39339e-05 1.22018e-06 0.000403652)
(0.000306099 -2.28992e-05 6.95617e-05 9.09382e-06 -1.05228e-05 0.000218936)
(0.000505776 -3.43619e-05 -2.79839e-05 7.03156e-06 -1.00253e-06 0.000122849)
(0.00031744 -3.9437e-05 -1.40195e-05 1.11536e-05 4.11919e-06 0.000107761)
(0.000335132 -4.24036e-05 8.39478e-06 1.26176e-05 -1.04072e-05 7.99346e-05)
(0.000528049 -0.000112354 2.41854e-05 3.09137e-05 -2.94772e-05 0.000167939)
(0.000886985 -0.000237688 5.81609e-05 8.03939e-05 -4.38455e-05 0.000115038)
(0.00193382 -0.000330512 -0.000476715 7.16424e-05 5.50034e-05 0.000300973)
(0.00179377 -0.000193183 -0.000483432 5.18734e-05 2.3516e-06 0.000369543)
(0.00129977 -0.000184431 -0.00030444 4.63316e-05 2.81757e-06 0.000504568)
(0.00186108 -0.000206381 -6.2531e-05 4.13602e-05 -3.78244e-05 0.000265205)
(0.00231443 -0.000187155 0.000224832 2.66774e-05 -4.23117e-05 0.000149023)
(0.00191467 -0.000210731 2.12299e-06 3.23855e-05 -2.17499e-05 9.76725e-05)
(0.00245066 -0.000258253 -0.000170604 3.74973e-05 -1.29816e-05 0.000192423)
(0.0010711 -0.000118087 -0.000206131 2.33762e-05 2.62888e-06 0.000211203)
(0.000418176 -3.81639e-05 -2.00784e-06 1.49969e-05 -2.44174e-06 0.000155289)
(0.000459789 -6.40134e-05 -9.55118e-06 5.6335e-05 -8.43182e-05 0.000362059)
(0.00305609 -0.000465511 3.08782e-05 8.72258e-05 -3.25941e-05 0.000253474)
(0.00148102 -3.84819e-05 -9.07566e-06 1.05652e-05 -1.06985e-07 0.000149884)
(0.000991979 -0.000101838 -0.000490223 1.73032e-05 6.85662e-05 0.000421597)
(0.00302309 -7.17354e-05 0.00157503 7.78526e-06 -4.09226e-06 0.00132385)
(0.00377585 -9.57853e-05 0.00160408 8.62033e-06 -1.90991e-05 0.000966608)
(0.000390174 -3.34382e-06 6.00159e-06 5.21324e-05 0.000104044 0.000371021)
(0.00079878 -8.25638e-05 -0.000197799 2.93555e-05 1.42975e-05 0.000204525)
(0.000371955 3.4479e-05 -8.95928e-05 3.56001e-05 6.93339e-05 0.000521975)
(0.00023099 -4.92436e-07 -7.60261e-05 4.40696e-05 9.63755e-05 0.000801211)
(0.00055201 -4.7467e-05 -0.000510837 2.50039e-05 1.59782e-05 0.000776423)
(0.00120737 -8.5674e-05 -0.00105309 2.41009e-05 4.33143e-05 0.0011263)
(0.000511197 -7.83874e-05 -0.000544761 2.04975e-05 5.91691e-05 0.000988825)
(0.000273529 -6.74429e-05 1.00034e-05 2.62984e-05 -4.53414e-05 0.00041978)
(0.000270248 -8.41636e-05 -2.3894e-05 3.49276e-05 4.34332e-06 0.000208372)
(0.00097828 -5.66445e-05 -0.000320906 2.07772e-05 -1.15548e-05 0.000408774)
(0.00180507 -8.12266e-05 -0.000166337 2.474e-05 -1.4466e-05 0.000277347)
(0.000470679 -2.8787e-05 -0.000217916 4.13343e-05 -6.51253e-05 0.000414797)
(0.0010583 -9.0724e-05 -0.000367867 4.74993e-05 -3.60514e-05 0.00041651)
(0.000414526 -6.42e-05 -0.000236768 3.81197e-05 -3.26515e-05 0.000424917)
(0.00040813 -8.41659e-06 -0.000347812 4.87033e-05 -0.000103224 0.000677214)
(0.000652679 -6.68948e-06 -0.000625729 4.54788e-05 -7.50139e-05 0.000920967)
(0.00025213 -3.72323e-05 -0.000137 4.04803e-05 9.05806e-06 0.000529629)
(0.000280941 -1.83222e-05 -0.000127343 7.19367e-05 -4.00622e-05 0.000570354)
(0.000497968 -0.000111149 9.68463e-05 6.08073e-05 -1.85739e-05 0.000300181)
(0.000348201 -5.84177e-05 4.8091e-05 4.93795e-05 6.695e-06 0.000196986)
(0.000283866 -5.35659e-07 2.14946e-06 3.20189e-05 1.43633e-05 0.000187942)
(0.000391945 1.16994e-05 4.51457e-05 2.2724e-05 4.06517e-06 0.000100684)
(0.000440827 -1.5188e-06 -5.18949e-05 2.56665e-05 -3.29434e-06 8.99681e-05)
(0.000760656 -5.90667e-05 3.3754e-05 2.99071e-05 2.6813e-05 0.000108758)
(0.000914785 -0.000222361 9.42725e-05 7.48409e-05 -2.24858e-05 0.000141769)
(0.000927794 -0.000213641 -0.000115204 7.87033e-05 8.90077e-06 0.000224205)
(0.00157988 -8.25807e-05 -0.000462175 6.1349e-05 -2.36712e-05 0.000349174)
(0.00192137 -7.86288e-05 -0.000813547 6.1663e-05 -6.27193e-05 0.000642615)
(0.00206668 -0.000119164 -0.000622254 4.46142e-05 -4.13797e-05 0.000416744)
(0.00279254 -2.37127e-05 -1.47744e-05 2.95831e-05 -4.14509e-05 0.000129242)
(0.00212314 -5.0038e-05 0.000120144 3.09048e-05 -6.54406e-05 0.000264913)
(0.00204361 -3.51615e-05 -5.76912e-06 2.60991e-05 -5.56641e-05 0.000235664)
(0.00123822 5.61242e-05 -0.000133933 3.46763e-05 -5.60182e-05 0.000236166)
(0.000431589 -2.19629e-05 3.94092e-05 3.86241e-05 -3.28562e-05 0.000201925)
(0.000323681 -4.08849e-05 4.14101e-05 2.56101e-05 -2.7089e-05 0.000243628)
(0.00173686 -0.000247746 0.000152127 5.46892e-05 -3.15626e-05 0.000231344)
(0.00119335 0.0001263 -4.03585e-05 3.73148e-05 3.68742e-06 0.000129071)
(0.00116801 -0.000283504 -0.000361579 0.000102906 9.31231e-05 0.000167937)
(0.000689984 -2.33784e-05 0.000132775 1.16123e-05 7.19577e-06 0.000325012)
(0.0050154 0.000169038 0.00172622 1.10852e-05 7.30203e-05 0.000790087)
(0.000366334 2.5715e-05 0.000159141 3.5465e-05 5.67549e-05 0.000435745)
(0.000422914 -1.3701e-05 -8.73726e-05 2.20354e-05 -3.166e-05 0.000207961)
(0.000148762 2.78399e-05 -8.40451e-05 2.00132e-05 -4.19469e-05 0.000208096)
(0.000126635 1.0664e-05 -1.67474e-05 2.44213e-05 -2.55161e-05 0.000426402)
(0.000124397 -1.3723e-05 -0.000121757 2.24098e-05 -4.67282e-05 0.000790333)
(0.000482897 2.64736e-05 -0.000717245 2.17909e-05 -9.17033e-05 0.00140294)
(0.000349915 9.84401e-07 -0.000564267 2.51574e-05 -8.79299e-05 0.00143049)
(0.000150659 -6.75065e-05 7.71905e-05 5.74439e-05 -0.000153325 0.000782693)
(0.000153372 -9.85716e-06 2.46883e-05 9.30228e-05 -5.41643e-05 0.000353292)
(0.000226956 -2.50279e-05 7.12181e-05 5.63921e-05 1.71071e-05 0.000355631)
(0.00161553 -0.000192994 1.73204e-05 3.97752e-05 1.85321e-06 0.000352899)
(0.000613414 -0.000100059 1.88252e-05 3.3898e-05 -2.54908e-05 0.000402894)
(0.000406406 -4.45524e-05 -0.000170398 3.89306e-05 -3.53539e-05 0.000440613)
(0.000306404 -8.76911e-05 -8.83608e-05 5.96702e-05 -4.45919e-05 0.000419187)
(0.000553905 -0.000262691 6.51904e-05 0.000166191 -0.000130963 0.000566851)
(0.000414861 -3.17272e-05 -0.000365464 0.000123673 -0.000178901 0.000986243)
(0.000406914 -9.43925e-05 -0.000200175 4.98948e-05 8.52743e-06 0.000572084)
(0.000410977 -0.000140997 -0.000105808 6.68665e-05 4.29118e-05 0.000417419)
(0.000891083 -0.000199291 -1.56809e-05 6.77089e-05 3.53363e-05 0.00031578)
(0.000918638 -0.000146851 -0.000288953 3.56738e-05 4.911e-05 0.000332182)
(0.000651191 -0.00010232 -0.00035443 3.15321e-05 3.83226e-05 0.000475632)
(0.000422091 -7.05153e-05 -5.28182e-06 1.99989e-05 -3.54593e-06 0.00015491)
(0.000541197 -7.55599e-05 -2.7628e-05 1.77961e-05 -5.32642e-06 0.000116482)
(0.000645244 -0.000134206 4.01513e-05 3.38671e-05 -1.27667e-05 7.64911e-05)
(0.000701044 -0.000251883 6.46173e-05 0.000102957 -3.42891e-05 0.000116587)
(0.00032823 -0.000158493 1.69553e-06 0.000140879 8.37062e-05 0.000244825)
(0.000861845 -0.000212401 -0.00029941 7.62505e-05 4.20878e-05 0.000434902)
(0.00273874 -0.0002056 -0.0010399 6.16464e-05 3.58727e-06 0.00065153)
(0.00221186 -0.0002667 -0.00104853 6.24424e-05 5.71117e-05 0.000829741)
(0.00262079 -0.000208417 -0.00060567 4.73764e-05 -1.60927e-05 0.000405125)
(0.0017573 -9.24719e-05 -0.000127814 3.31127e-05 -4.42367e-05 0.000262847)
(0.00129244 -9.06951e-05 5.28196e-05 3.09121e-05 -2.35015e-05 0.000171045)
(0.00106617 2.98667e-05 -0.000111539 4.12409e-05 -3.9539e-05 0.000271108)
(0.000464498 1.2473e-06 -2.38739e-05 3.62623e-05 -2.49341e-05 0.00027157)
(0.000251093 -4.44585e-05 8.78493e-06 5.15643e-05 -4.5227e-05 0.000211502)
(0.00147551 -0.000334104 0.000206624 0.000111079 -7.90725e-05 0.00016794)
(0.00133044 7.43137e-05 8.84074e-05 5.33947e-05 3.37897e-06 7.24723e-05)
(0.00103646 -0.000225383 -9.28674e-05 7.76905e-05 2.53204e-05 8.3135e-05)
(0.000585182 9.66756e-06 2.1712e-05 5.87855e-05 -3.29528e-06 9.33501e-05)
(0.00268759 -0.000290489 0.00079912 3.88571e-05 -9.32381e-05 0.000365863)
(0.000207337 -3.37313e-06 3.56027e-05 7.85529e-05 0.000106957 0.000429014)
(0.000359484 -7.77385e-05 -7.23214e-05 4.39244e-05 -1.15124e-05 0.000223071)
(0.00016036 8.18591e-06 -7.02512e-05 1.60613e-05 -7.79105e-06 0.000161472)
(0.00019587 9.81925e-06 -2.3475e-06 3.23747e-05 1.57933e-05 0.000212394)
(0.000161394 -2.45296e-05 8.17945e-05 3.35608e-05 1.95425e-05 0.000483584)
(0.000132464 -2.85248e-05 -0.000166496 2.58311e-05 -2.6436e-06 0.00106077)
(0.00032998 -2.73441e-05 -0.000578111 2.93808e-05 -6.13989e-06 0.00155757)
(0.000149053 -5.08212e-05 -8.07315e-06 3.46847e-05 -8.12558e-05 0.00112909)
(0.000167272 -7.2588e-05 5.99526e-05 5.60043e-05 -5.43935e-05 0.000421584)
(0.000423632 4.24891e-05 1.3086e-05 5.59804e-05 -8.46062e-06 0.000357518)
(0.00030827 -8.29217e-05 0.00011639 4.55192e-05 -4.9726e-05 0.000524269)
(0.000576139 -7.74535e-05 0.000235862 3.12021e-05 -6.86344e-06 0.000526505)
(0.000383148 -9.69298e-05 -6.429e-05 5.42107e-05 3.69927e-05 0.000339104)
(0.00141393 -0.000144812 -0.000361224 5.97594e-05 3.37296e-05 0.000304324)
(0.00286243 -0.000555473 -0.000173795 0.000143436 3.27104e-05 0.000218466)
(0.000714694 -0.000239891 2.0589e-05 0.000118154 -7.68515e-05 0.000479362)
(0.000496944 -0.000131346 -0.000233535 5.10777e-05 8.04769e-05 0.000494683)
(0.000546689 -0.00022685 -0.000161085 0.000132495 9.50159e-05 0.000326562)
(0.00117736 -0.000360819 -4.7822e-06 0.000146382 3.95789e-05 0.000218734)
(0.00130883 -0.000309486 -0.000319546 0.000100845 9.92792e-05 0.000239518)
(0.000900245 -0.000145405 -0.000414481 4.42395e-05 4.49229e-05 0.000623362)
(0.000490951 -0.000101112 0.000142551 3.50184e-05 -4.79279e-05 0.00023243)
(0.000513668 -0.000109292 0.000132006 4.73399e-05 -6.3324e-05 0.000175204)
(0.000358225 -0.000113781 0.000144675 5.70398e-05 -5.5227e-05 0.000108953)
(0.000696864 -0.000222778 0.000161528 8.02822e-05 -5.61486e-05 0.000104618)
(0.000419344 -0.000216864 2.25444e-05 0.000137122 4.00391e-05 0.000247446)
(0.000615624 -0.000225499 -0.000108272 0.000108727 1.36666e-05 0.000341936)
(0.0023119 -0.000217632 -0.000497009 8.64588e-05 -3.1135e-05 0.000351822)
(0.00237122 -0.000227539 -0.000851504 7.67723e-05 -1.79942e-05 0.000678587)
(0.00209597 -0.00015889 -0.000485714 5.78782e-05 -4.25805e-05 0.000386031)
(0.00110186 -5.32831e-05 6.9591e-05 4.93943e-05 -3.09187e-05 0.000111433)
(0.000542479 -2.32856e-05 5.86712e-05 5.47437e-05 5.45613e-06 0.000101629)
(0.000715293 9.14796e-05 -0.000160437 9.51738e-05 -2.58793e-05 0.000176704)
(0.000441803 0.000126402 -0.000153574 0.000125847 -4.71377e-05 0.000221154)
(0.000179069 -7.41467e-06 -4.49578e-06 4.80257e-05 7.35738e-06 0.000158567)
(0.00119859 -0.000298684 0.000188905 0.000122723 -4.32814e-05 0.000165299)
(0.00190477 0.000290754 0.000257415 0.000111787 5.31901e-05 0.000148636)
(0.000645581 -0.000224301 7.55484e-06 0.000219752 2.78676e-05 0.000120806)
(0.000612025 1.87575e-06 0.000186514 4.83271e-05 2.39546e-05 0.000226167)
(0.000887546 -0.000134448 0.00019968 3.96089e-05 -3.61983e-05 0.00019874)
(0.0001467 -3.56368e-05 -5.33976e-05 3.83478e-05 6.02887e-05 0.000343806)
(0.000263242 -5.08384e-05 -7.75942e-05 2.95194e-05 -4.52941e-06 0.000195267)
(0.00017235 2.77757e-05 -4.16288e-05 1.99336e-05 -1.27591e-05 0.000152211)
(0.000242005 1.948e-05 -4.31385e-05 2.05141e-05 -1.18464e-05 0.000172143)
(0.000313573 -7.33464e-06 8.19692e-05 2.74494e-05 -5.34794e-06 0.000261833)
(0.000186536 -1.20616e-05 3.86565e-05 2.49723e-05 -3.0801e-05 0.000554062)
(0.000375578 1.42253e-05 -0.000543889 1.96235e-05 -5.94542e-05 0.00131608)
(0.000273761 6.76352e-06 -0.000381078 3.81307e-05 -0.000148628 0.00136049)
(0.000204945 -6.56906e-05 2.20567e-06 4.53024e-05 -6.07844e-05 0.000441511)
(0.000210355 -2.51828e-05 -4.30442e-05 4.97094e-05 -6.10246e-06 0.000295568)
(0.000338198 6.76479e-07 -0.000198615 6.35284e-05 -0.000130181 0.000649164)
(0.000435314 -7.55705e-05 -0.000193865 3.74324e-05 -5.39768e-05 0.000845853)
(0.000524502 -0.000136751 -0.000147212 5.74369e-05 3.15601e-05 0.000297035)
(0.00149347 -0.000222348 -0.000293897 7.07658e-05 4.431e-05 0.000240666)
(0.00328906 -0.00061617 -0.000256211 0.000147369 6.13731e-05 0.000258577)
(0.00132896 -0.000365121 0.000121808 0.000127684 -9.47963e-06 0.000347369)
(0.000452312 -8.40703e-05 -5.31771e-06 5.67521e-05 8.82308e-05 0.000545548)
(0.00071617 -0.000292049 -0.000185654 0.000178159 8.90375e-05 0.00054434)
(0.00166599 -0.000466654 -0.000102058 0.000163068 2.44921e-05 0.000442307)
(0.00117683 -0.000277468 -0.000181188 8.70931e-05 5.45333e-05 0.000371063)
(0.000569404 -0.000105217 -4.56951e-05 4.19329e-05 -5.34122e-05 0.00080515)
(0.000493188 -0.000136301 0.000182317 6.55994e-05 -0.000129326 0.000543615)
(0.000451781 -0.000104043 0.00011284 3.93007e-05 -2.97212e-05 0.000175546)
(0.000483528 -9.30153e-05 9.498e-05 3.61672e-05 -4.57581e-06 0.000109431)
(0.000652559 -0.00019542 0.00016298 8.39677e-05 -6.16396e-05 0.000123027)
(0.000527145 -0.000238847 5.61448e-05 0.000163838 4.08833e-05 0.000310028)
(0.000673325 -0.000309013 -2.3514e-05 0.000169618 5.79276e-05 0.000366687)
(0.00181722 -0.000312889 -0.000115876 9.08797e-05 -4.10663e-05 0.000329258)
(0.00221149 -0.000231155 -0.000630841 7.40597e-05 -2.76253e-05 0.000535641)
(0.00130982 -0.000180444 -0.000242538 7.47929e-05 -1.22367e-05 0.000314011)
(0.000655375 -7.20328e-05 0.000151885 6.37225e-05 -1.9613e-05 0.000145833)