/*--------------------------------*- C++ -*----------------------------------*\
  =========                 |
  \\      /  F ield         | OpenFOAM: The Open Source CFD Toolbox
   \\    /   O peration     | Website:  https://openfoam.org
    \\  /    A nd           | Version:  10
     \\/     M anipulation  |
\*---------------------------------------------------------------------------*/
FoamFile
{
    format      ascii;
    class       volScalarField;
    location    "13";
    object      p;
}
// * * * * * * * * * * * * * * * * * * * * * * * * * * * * * * * * * * * * * //

dimensions      [0 2 -2 0 0 0 0];

internalField   nonuniform List<scalar> 
25600
(
0.0128905
0.00125829
-0.0041304
0.00123289
0.0028618
-0.00116809
-0.00181276
-0.0037348
-0.00592234
-0.00071384
0.00141933
0.00112694
0.00151572
0.0017521
-0.00118942
-0.00673122
-0.00369782
0.00610228
0.00259239
2.20758e-05
0.00113891
-0.00126811
-0.00215791
0.00108602
0.00841848
0.00841555
0.00204931
-0.00461301
-0.0071688
-0.00516307
-0.0056073
-0.00626846
0.00253286
0.00856272
-0.00126425
-0.00256752
0.00330037
-0.00513118
-0.00808005
0.00596988
0.0129637
0.0012977
-0.00415964
0.00120945
0.00288794
-0.00115691
-0.00181799
-0.00373653
-0.00594087
-0.000718127
0.00143973
0.00112224
0.00151967
0.00177699
-0.00118113
-0.00676765
-0.00373754
0.00610875
0.0026067
2.04701e-06
0.00114519
-0.00126823
-0.00218434
0.00107752
0.00844706
0.00846519
0.00207928
-0.00460012
-0.00717736
-0.00517922
-0.0056303
-0.00632014
0.00248345
0.00859389
-0.00124788
-0.0026198
0.00332313
-0.00512755
-0.00814627
0.005942
0.0131062
0.00133289
-0.00423391
0.00118578
0.0029526
-0.00114603
-0.00184283
-0.00375063
-0.00597708
-0.00072677
0.00147082
0.00108308
0.0015219
0.00182843
-0.00119469
-0.00686085
-0.00381447
0.00613585
0.00263433
-3.59584e-05
0.00117186
-0.00126853
-0.00222931
0.00106829
0.00851777
0.00854537
0.00211003
-0.0046187
-0.00722629
-0.00522807
-0.00567038
-0.00641273
0.00241106
0.00866647
-0.00123008
-0.00271081
0.00336976
-0.00510909
-0.00829835
0.00590846
0.0132216
0.00135828
-0.00437062
0.00116892
0.00306147
-0.00113244
-0.00190519
-0.00376763
-0.00598428
-0.000752256
0.00149638
0.00101125
0.00152042
0.00192548
-0.00122861
-0.00700167
-0.00391415
0.00618726
0.00264816
-9.84293e-05
0.00121601
-0.00127728
-0.00229204
0.0010581
0.00863567
0.00867341
0.00213835
-0.00470026
-0.00729751
-0.00526463
-0.00572325
-0.00656995
0.00226868
0.00873404
-0.00121147
-0.00283342
0.00342339
-0.00507485
-0.00845492
0.0058832
0.0133553
0.00140256
-0.00456192
0.00115183
0.00321458
-0.00107021
-0.00201647
-0.00379974
-0.00592715
-0.000769472
0.00143795
0.000925757
0.00151616
0.00202916
-0.00125066
-0.00714242
-0.00401399
0.00627647
0.00269366
-0.000185133
0.00123375
-0.00133874
-0.00239647
0.00107159
0.00884041
0.00886962
0.00218277
-0.00486283
-0.00737362
-0.0052359
-0.00562249
-0.00674517
0.00196188
0.00870511
-0.00119483
-0.0029885
0.00350369
-0.005037
-0.00859345
0.00583923
0.0133749
0.00149413
-0.00472578
0.00107335
0.00329597
-0.000978604
-0.00215038
-0.00380694
-0.0058561
-0.000772718
0.00133935
0.000818719
0.00150348
0.00217835
-0.00120348
-0.00724268
-0.00421152
0.00630136
0.00286713
-0.000201805
0.00118423
-0.00149905
-0.00257082
0.00103143
0.00911956
0.00920205
0.00226983
-0.00506993
-0.00749596
-0.00515455
-0.00530999
-0.00660034
0.00154883
0.00851348
-0.00114268
-0.00320735
0.00361831
-0.00493012
-0.00894028
0.00547513
0.0130178
0.00149749
-0.00482246
0.00109324
0.00329382
-0.000977645
-0.0023066
-0.00405959
-0.00575942
-0.000727541
0.00125011
0.00063443
0.00149484
0.00228426
-0.00109471
-0.00721909
-0.00445253
0.0060344
0.00300757
3.02252e-05
0.00119906
-0.00178723
-0.00274443
0.000795743
0.00930564
0.0096858
0.00241598
-0.00525324
-0.00766104
-0.00524488
-0.00514966
-0.0061241
0.00133233
0.00825013
-0.00103393
-0.00352571
0.00369426
-0.00463244
-0.00906935
0.00496024
0.0125294
0.00135949
-0.00493593
0.00120508
0.00327903
-0.00108784
-0.00233662
-0.00415712
-0.0059099
-0.000781819
0.00120284
0.00029451
0.0012049
0.0022461
-0.00102988
-0.00697612
-0.00443323
0.00578902
0.00282782
0.000246237
0.00158629
-0.00188796
-0.00271587
0.000485773
0.00947544
0.0102574
0.00260814
-0.00542218
-0.00790694
-0.00518921
-0.00529647
-0.00574139
0.00134379
0.00801875
-0.00112793
-0.00415072
0.00387753
-0.00452681
-0.0090378
0.00438767
0.0118366
0.00111459
-0.0050639
0.00139139
0.00341995
-0.00128275
-0.002749
-0.00366074
-0.00572586
-0.00115454
0.000925753
-0.000151696
0.000739959
0.00194737
-0.000810381
-0.00650927
-0.0042414
0.00586275
0.00249379
8.76749e-05
0.00205018
-0.00175565
-0.00258424
0.000325728
0.00979619
0.0103588
0.0027102
-0.00562237
-0.00814941
-0.00503855
-0.00509658
-0.00530788
0.00144276
0.00778363
-0.00166479
-0.00540419
0.00399184
-0.00419701
-0.00893582
0.00376213
0.0109421
0.00109072
-0.00492858
0.00141556
0.00354831
-0.00151227
-0.00338371
-0.00301184
-0.00511495
-0.00148506
0.000420701
-0.000458497
0.000629686
0.0016617
-3.45985e-05
-0.00568239
-0.00436827
0.00560349
0.00222561
-0.00020878
0.00232019
-0.00172524
-0.00273111
0.000287687
0.00993278
0.0103284
0.00293496
-0.00593162
-0.00826644
-0.00459392
-0.00461232
-0.00494366
0.00153656
0.00749951
-0.00218673
-0.00629629
0.00403072
-0.00357549
-0.00879381
0.00318624
0.0101281
0.00133061
-0.00408207
0.00132698
0.00352019
-0.00175405
-0.00331386
-0.00252153
-0.00435523
-0.00136833
0.000286642
-0.000499171
0.00099143
0.00156342
0.000501287
-0.00469037
-0.00422647
0.00490897
0.00210852
-0.000390263
0.00279563
-0.00144196
-0.00317309
2.69942e-05
0.00850549
0.010005
0.00316491
-0.00603282
-0.00840559
-0.00462782
-0.00414024
-0.00478374
0.00123784
0.0071191
-0.00231224
-0.00596299
0.00414497
-0.00277341
-0.00849442
0.00274226
0.0088236
0.00153947
-0.00345569
0.00106133
0.00325921
-0.00189389
-0.00305759
-0.00231335
-0.0040455
-0.00131593
0.000271548
-0.000607396
0.00137032
0.00135007
0.000799946
-0.00378025
-0.00379081
0.00437885
0.00225932
-0.000661232
0.00310715
-0.000825423
-0.00335152
-0.000452954
0.00734005
0.00939498
0.00327996
-0.00574349
-0.00855579
-0.00446135
-0.00359209
-0.00442044
0.000759288
0.00644245
-0.00220446
-0.00527172
0.00313748
-0.0020181
-0.00785122
0.00239001
0.00748166
0.00161981
-0.00276257
0.000794473
0.00281148
-0.00177267
-0.00274453
-0.00185933
-0.00400032
-0.00162228
0.000329703
-0.000633596
0.00160934
0.00104266
0.00105527
-0.00289259
-0.00338597
0.00384131
0.00236631
-0.000849962
0.00236225
-0.000449881
-0.00280739
-0.000807694
0.00623229
0.00835712
0.003152
-0.00525309
-0.00833754
-0.00429707
-0.00304949
-0.00382632
0.000425416
0.00530054
-0.00189433
-0.00457324
0.00264325
-0.00130568
-0.00687934
0.00203802
0.00611579
0.00160257
-0.00212207
0.000634757
0.00231518
-0.00149265
-0.00217606
-0.00125058
-0.00356404
-0.00192086
0.000320421
-0.000343675
0.00212625
0.000937852
0.00131636
-0.00210718
-0.00297338
0.00336044
0.00233668
-0.000688739
0.00189214
-0.000288586
-0.00277368
-0.000996086
0.00518001
0.00727429
0.00291244
-0.00443545
-0.00743053
-0.00391218
-0.00272758
-0.00341787
8.08964e-05
0.00437778
-0.00122389
-0.00397667
0.00206508
-0.000677547
-0.00581436
0.00162866
0.00492189
0.00113777
-0.00155653
0.000465957
0.00189769
-0.00125449
-0.00169342
-0.000945503
-0.00306348
-0.00190584
0.000275186
-9.64334e-05
0.00262175
0.000910286
0.00147565
-0.00149924
-0.00252678
0.00290749
0.00214829
-0.000360885
0.00161726
-0.000123672
-0.00225329
-0.00105149
0.00425006
0.00627274
0.00256605
-0.00352655
-0.00640008
-0.00354059
-0.00246516
-0.00305277
-0.000361544
0.0035093
-0.000455729
-0.00344057
0.00145925
-0.000222538
-0.00491176
0.00126686
0.00399786
0.000974226
-0.00107395
0.000328933
0.00156649
-0.00102227
-0.00125605
-0.000822664
-0.00270141
-0.00178891
0.000228329
5.12846e-05
0.00239556
0.000857621
0.00148795
-0.00108471
-0.00210331
0.00262933
0.00190743
-0.000202349
0.00130201
-7.74007e-05
-0.00180374
-0.000990787
0.00338678
0.00532128
0.00210272
-0.0027509
-0.00529669
-0.00332135
-0.00224731
-0.00265621
-0.00077178
0.00267596
1.65806e-05
-0.00296505
0.000993166
1.21543e-05
-0.00414655
0.00103728
0.00325053
0.00077159
-0.000640354
0.000301437
0.00123277
-0.000823378
-0.000950508
-0.000711837
-0.00241856
-0.00163447
0.000186171
-1.09515e-05
0.00217721
0.000822648
0.00148844
-0.000698684
-0.00169378
0.00235597
0.00144776
-0.000150163
0.00102515
-0.000139627
-0.0013345
-0.000866084
0.00247951
0.00437405
0.00163445
-0.00219826
-0.00427397
-0.00315567
-0.00200003
-0.00222992
-0.00121163
0.00195379
0.000405332
-0.00261791
0.000555632
0.000188659
-0.00349306
0.000818553
0.00264342
0.000548539
-0.000267722
0.000375539
0.00091691
-0.000702911
-0.000705498
-0.000569821
-0.00212151
-0.00139003
7.79544e-05
3.21382e-05
0.00136417
0.000735906
0.00144299
-0.000327078
-0.00134978
0.00195886
0.00132649
-0.00011972
0.000905657
-0.000197076
-0.000948296
-0.000686644
0.00160505
0.00353187
0.00126346
-0.00182212
-0.00338463
-0.00295639
-0.00174873
-0.00178861
-0.00150091
0.0013259
0.000714556
-0.00233744
0.000174231
0.000326812
-0.00283663
0.000597637
0.00217409
0.000388915
-1.38001e-05
0.000465262
0.000668657
-0.000606063
-0.000466866
-0.000484412
-0.00180726
-0.00119678
5.01669e-05
4.26053e-05
0.000855812
0.000586131
0.00131976
-2.69871e-05
-0.0010291
0.00166084
0.00124058
-8.86167e-05
0.000848814
-0.000271278
-0.000733036
-0.000395865
0.000947743
0.00276067
0.000991448
-0.00149383
-0.00262178
-0.00271099
-0.00149421
-0.00133142
-0.0017528
0.000767992
0.000990197
-0.00204322
-0.000109392
0.000427593
-0.00227889
0.000466377
0.0018239
0.000228222
5.79882e-05
0.000546145
0.000511818
-0.000565467
-0.000268028
-0.000383984
-0.00149551
-0.000911364
-2.65659e-05
5.02823e-05
0.000580304
0.000367001
0.00113856
0.000193319
-0.000759093
0.00147472
0.00113632
-0.000139825
0.000768317
-0.000300177
-0.000537339
-2.3082e-05
0.000495293
0.0020945
0.000793515
-0.00122367
-0.0020359
-0.0023887
-0.00124193
-0.000893286
-0.00182146
0.00028169
0.00110899
-0.00175688
-0.000344417
0.000507417
-0.00184155
0.000326695
0.00156698
0.00016228
5.77477e-05
0.000603724
0.000470657
-0.000588059
-0.000163504
-0.000273213
-0.00131444
-0.00066858
-0.000125801
1.70905e-05
0.000464374
0.000163679
0.000975068
0.000373656
-0.000545337
0.0012858
0.00100471
-0.000196628
0.00071504
-0.000286987
-0.000391368
0.000234241
0.000192808
0.00154861
0.000635124
-0.000988845
-0.00149358
-0.0020739
-0.00103792
-0.000535288
-0.00188241
-0.000139152
0.00120919
-0.00149075
-0.000539993
0.000562257
-0.00151165
0.000214359
0.00136445
7.52832e-05
4.53968e-05
0.000590576
0.000501586
-0.000511896
-0.000163981
-0.000151054
-0.00104678
-0.000497484
-0.000193651
-3.19279e-05
0.000472581
7.20663e-06
0.000716629
0.000490266
-0.000407542
0.00109837
0.000894871
-0.000223866
0.000655812
-0.000236257
-0.000285393
0.000368003
-2.57878e-05
0.00108814
0.000500679
-0.000780884
-0.00106595
-0.0017976
-0.000907844
-0.000209757
-0.00177161
-0.000491174
0.00124754
-0.0011965
-0.000723362
0.000582589
-0.00125027
0.000103846
0.0011878
3.43423e-05
-6.53881e-05
0.000514626
0.000566527
-0.000419239
-0.000234978
-2.65583e-05
-0.000802099
-0.000389598
-0.000195832
-0.000101665
0.000528817
-6.35132e-05
0.000462424
0.000571869
-0.000252392
0.000876751
0.000807951
-0.000209328
0.000587016
-0.000206027
-0.000222085
0.000458769
-0.000156043
0.000718997
0.000380722
-0.000607001
-0.000738646
-0.0015601
-0.000815735
2.79037e-05
-0.00156088
-0.000779965
0.00117153
-0.000911917
-0.000908497
0.000558534
-0.00100573
-1.66001e-05
0.00103338
9.03801e-06
-0.000128529
0.000379794
0.000587985
-0.000256283
-0.0004256
6.42007e-05
-0.000550097
-0.000282422
-0.000136701
-0.00016596
0.000565534
-3.66503e-05
0.000199295
0.000582784
-0.000117276
0.000663775
0.000742732
-0.00014033
0.000510833
-0.000167069
-0.000193628
0.000568558
-0.000206457
0.000411047
0.00025457
-0.000456737
-0.000475225
-0.00136735
-0.000723395
0.000175809
-0.00128845
-0.000993635
0.000946259
-0.000586566
-0.0010256
0.00046971
-0.000752647
-0.000131959
0.00087691
4.45103e-06
-0.00014534
0.000212966
0.000521187
1.13232e-05
-0.000558618
7.19322e-05
-0.000291415
-0.000241699
-3.53657e-05
-0.000227462
0.000506465
7.7699e-05
1.17555e-05
0.000515204
-7.16234e-06
0.000504767
0.000653158
-8.22231e-05
0.000435509
-0.000126171
-0.000199753
0.000606044
-0.000191038
0.000175251
0.000115298
-0.000321414
-0.000249236
-0.0012338
-0.000626422
0.000257295
-0.00100783
-0.00107852
0.000657181
-0.000249204
-0.0010196
0.00030156
-0.000432596
-0.000199934
0.000713826
-4.59113e-07
-8.20145e-05
6.90281e-05
0.000332714
0.000340923
-0.000629994
-2.51848e-05
-1.48409e-05
-0.000263608
5.8441e-05
-0.000215923
0.000371553
0.000230761
-6.11702e-05
0.000383416
6.69268e-05
0.000424785
0.000540693
-4.01825e-05
0.000370778
-9.44365e-05
-0.000178887
0.000576487
-0.000130649
2.6051e-05
-3.57104e-05
-0.000214117
-4.12036e-05
-0.00114781
-0.00054073
0.000302414
-0.000795769
-0.00102225
0.00033388
-3.11184e-05
-0.000874468
9.3881e-05
-0.000251933
-0.000213738
0.00056205
-0.000125855
4.0641e-05
-3.71123e-06
2.92726e-05
0.000635441
-0.000567317
-0.000156593
0.000229871
-0.00028414
0.000132194
-0.00015957
0.000205165
0.000335294
-2.49983e-05
0.000237579
4.24594e-05
0.000408353
0.000421143
-1.41829e-05
0.000318971
-8.53692e-05
-0.000127612
0.00049018
-7.75918e-05
-1.30184e-05
-0.000181656
-0.000160466
0.000164221
-0.0010767
-0.000491296
0.000340056
-0.000661127
-0.000847673
7.92499e-05
1.74968e-05
-0.000633652
-3.94064e-05
-0.000201982
-0.000170086
0.000472504
-0.000251762
0.00015274
4.993e-05
-0.000337956
0.00076946
-0.000374666
-0.00032135
0.000349174
-0.000285117
0.00017924
-6.39114e-05
5.02597e-05
0.000374693
6.88603e-05
0.000116944
1.97822e-05
0.000424731
0.000300716
1.12967e-05
0.00029075
-0.00010431
-4.8185e-05
0.000371748
-6.62287e-05
4.24307e-05
-0.000284129
-0.000186826
0.000356877
-0.000974295
-0.00051249
0.000382127
-0.00055847
-0.000656934
-5.72364e-05
-6.27288e-05
-0.000437784
-0.000104316
-0.000277222
-0.000134943
0.000417619
-0.000380415
0.000160272
0.000118947
-0.000531625
0.000721664
-0.000147024
-0.000389695
0.000337776
-0.00026045
0.000212641
6.91749e-05
-8.61712e-05
0.000351092
0.000217929
-9.76473e-06
-1.98102e-05
0.000465213
0.00015603
3.10038e-05
0.000299191
-0.000141619
2.74929e-05
0.000261107
-0.000101225
0.00013899
-0.000290712
-0.00030637
0.000499837
-0.000776135
-0.000617968
0.000409568
-0.000415984
-0.000524687
-0.000102965
-0.00010952
-0.000356785
-7.3873e-05
-0.000268273
-0.000157706
0.000247959
-0.000303207
0.000126897
6.7638e-05
-0.000507205
0.000539622
-1.97597e-05
-0.000311104
0.000258402
-0.000212157
0.000181109
0.000217074
-0.000169333
0.000244616
0.000405772
-0.00013317
-5.72202e-05
0.000545756
-7.20737e-06
1.03978e-05
0.00033553
-0.000150121
4.65906e-05
0.000170901
-0.0001372
0.000199407
-0.000191093
-0.000458456
0.000503845
-0.000430425
-0.000759912
0.000348545
-0.000180397
-0.000498911
-0.00014076
-6.30889e-05
-0.000345166
-0.000128861
-0.000137153
-0.000186763
-0.000125748
-0.000138648
0.000181376
-0.000134375
-0.000339409
0.000310776
-2.07754e-05
-0.000193883
0.000182446
-0.000138855
7.19107e-05
0.000333976
-0.000171898
9.74755e-05
0.000562876
-0.000178744
-0.000116204
0.000615662
-3.91591e-05
-9.73505e-05
0.000352409
-6.51158e-05
5.24727e-06
8.15819e-05
-0.00011393
0.000195171
-5.39238e-05
-0.000480138
0.000310781
-3.6933e-05
-0.000790189
0.000144779
0.000120193
-0.000493251
-0.000206888
2.74694e-05
-0.000288052
-0.000265697
-1.43535e-05
-0.000102468
-0.000421219
-1.70569e-05
0.000278396
-0.000385646
-0.000183676
0.000189602
-3.87377e-05
-0.000119391
0.000132841
-4.86392e-05
-5.22391e-05
0.000385456
-0.000125104
3.2278e-05
0.000558401
-0.0001325
-0.000134516
0.000523492
7.44253e-05
-0.00021777
0.000282922
0.000109217
-9.23038e-05
-3.4082e-05
-1.40566e-05
0.000135637
-1.47983e-05
-0.000318107
2.45295e-05
0.000209198
-0.000619777
-0.000144036
0.000393529
-0.000452928
-0.000283108
0.000113711
-0.000213217
-0.000337418
-1.27816e-05
5.38267e-05
0.00180784
-0.0011081
-0.00235546
0.000780442
0.00142471
-0.000155576
0.00253934
0.00635414
0.00461937
-0.000819486
-0.00167261
-0.00417289
-0.00537369
-0.00106639
0.00179059
-0.00146456
-0.000173933
0.0065421
0.00418605
-0.000378182
-0.000582103
-0.00136018
-0.00360102
-0.00206599
0.00353633
0.00557652
0.00235804
-0.000799399
-0.00132583
-0.00486901
-0.00577368
-0.000679287
0.00194107
0.00178711
0.00250806
-0.00192917
-0.00327522
-0.00119374
-0.000673747
0.00166268
0.00180245
-0.00111978
-0.00236178
0.000768051
0.00140209
-0.000196944
0.0025143
0.00638602
0.00466319
-0.000804551
-0.00164338
-0.00416659
-0.00540015
-0.00111762
0.00177161
-0.00146314
-0.000177296
0.00655948
0.00421444
-0.000367013
-0.00058378
-0.00137229
-0.00363231
-0.00208811
0.00353134
0.00557536
0.00235747
-0.000793039
-0.00130925
-0.00486409
-0.00579606
-0.000675754
0.00195523
0.00177856
0.00251828
-0.00190286
-0.00329891
-0.00123209
-0.000681077
0.00166615
0.00179996
-0.00116059
-0.00236219
0.000766136
0.00139002
-0.000245733
0.002478
0.00643843
0.0047017
-0.000807882
-0.00166297
-0.00419642
-0.00544591
-0.00117847
0.00174934
-0.00145266
-0.000177305
0.00659708
0.00423772
-0.000361341
-0.000601197
-0.00140159
-0.00368984
-0.00213468
0.00352666
0.00558674
0.00235905
-0.000796069
-0.00129681
-0.00485755
-0.00581302
-0.000655797
0.00197876
0.0017648
0.00254015
-0.00186017
-0.0033507
-0.00127878
-0.000681114
0.00165216
0.0018331
-0.00123747
-0.0023423
0.000812323
0.00142745
-0.000291039
0.00239366
0.00649289
0.00474851
-0.000825713
-0.00177094
-0.0043045
-0.00548302
-0.00123636
0.0017408
-0.00144234
-0.000175361
0.00665264
0.00424748
-0.000366824
-0.000648327
-0.00144735
-0.0037536
-0.00226763
0.00348408
0.00562267
0.00234162
-0.000854434
-0.00131861
-0.00485032
-0.00582663
-0.000622116
0.00201232
0.00174913
0.00259175
-0.00179322
-0.00342812
-0.00132647
-0.000646246
0.00160361
0.00183316
-0.00134913
-0.00230259
0.000913206
0.00150707
-0.000261026
0.00225012
0.00646387
0.00483632
-0.000797762
-0.00195843
-0.00457142
-0.00554052
-0.00127356
0.00176088
-0.0014218
-0.000166466
0.00673153
0.00426175
-0.000406407
-0.000756809
-0.00151733
-0.00376902
-0.00251423
0.00333799
0.00565611
0.00227987
-0.00101507
-0.00138768
-0.00481303
-0.00586768
-0.000612484
0.00204024
0.00173005
0.00267142
-0.00169055
-0.0035137
-0.0013799
-0.000680584
0.00155221
0.00186872
-0.00142412
-0.00228705
0.000966954
0.00160188
-0.000170069
0.00216469
0.00632578
0.00502784
-0.000556981
-0.002063
-0.00506585
-0.00581023
-0.00130973
0.00184643
-0.00137269
-0.00013683
0.0068877
0.00437223
-0.000436295
-0.000962989
-0.00162545
-0.00370032
-0.00273243
0.00302303
0.00568633
0.00226715
-0.00131378
-0.00151742
-0.00470398
-0.00591755
-0.000705805
0.00199978
0.00173628
0.00279336
-0.00155158
-0.0035337
-0.00142824
-0.000727633
0.00146334
0.00190135
-0.0013589
-0.00208058
0.00108006
0.00159508
-9.14097e-05
0.00213956
0.00610207
0.00480804
-0.000166333
-0.00177898
-0.00554057
-0.00642941
-0.00130757
0.00202161
-0.00127117
-0.000216971
0.0070493
0.00466119
-0.000104983
-0.00116282
-0.0018033
-0.00350939
-0.00279722
0.00251327
0.0056205
0.0023866
-0.00150918
-0.00162621
-0.00452871
-0.00592394
-0.000921398
0.00185379
0.0017343
0.00296382
-0.00145156
-0.00342377
-0.00147844
-0.000790398
0.00129544
0.00192928
-0.00118161
-0.00184963
0.00149461
0.00171638
-8.61463e-05
0.00193136
0.00566406
0.00423862
-0.000218364
-0.00137083
-0.00540229
-0.00702203
-0.00169372
0.00220436
-0.00110271
-0.000734152
0.00689423
0.00488772
0.00068244
-0.000862431
-0.00197411
-0.00310728
-0.00273157
0.00184315
0.00542351
0.00253342
-0.00153386
-0.00163963
-0.00436652
-0.00590898
-0.00119382
0.0016048
0.00181635
0.00309826
-0.00150369
-0.00325843
-0.0014584
-0.000980901
0.00121392
0.00202719
-0.000889339
-0.00172969
0.00168519
0.00193394
-0.000121715
0.00165844
0.005128
0.00357682
-0.000447871
-0.00132884
-0.00520716
-0.00739754
-0.00196057
0.00222617
-0.00110288
-0.00145719
0.00654342
0.00438392
0.00111613
-7.45867e-05
-0.00239698
-0.00250677
-0.00227779
0.00131224
0.00513384
0.00255637
-0.00136712
-0.00163006
-0.00433118
-0.00591802
-0.0015276
0.00129286
0.00181586
0.00304372
-0.00186423
-0.00335644
-0.0014048
-0.0013328
0.00113604
0.00203215
-0.000514988
-0.00140735
0.00170054
0.0020247
-0.00033467
0.0012733
0.00430154
0.00306496
-0.000113916
-0.00122129
-0.00539846
-0.00789431
-0.00206469
0.00219095
-0.00106768
-0.00210888
0.00604749
0.00386782
0.000934679
0.000848179
-0.00299699
-0.00257408
-0.00171173
0.00126916
0.00493358
0.00239951
-0.00137233
-0.0015921
-0.00437871
-0.00613429
-0.00186234
0.00105839
0.00168767
0.00276555
-0.0023671
-0.00351279
-0.00135847
-0.00136647
0.00112095
0.00193918
-0.000131597
-0.00134009
0.00169812
0.00211353
-0.000521887
0.000939834
0.00353776
0.00244153
0.000456387
-0.000486697
-0.00511789
-0.00825247
-0.00206532
0.00189353
-0.00116564
-0.00258051
0.00545825
0.00369569
0.000398993
0.0017118
-0.00289882
-0.00402883
-0.00160345
0.00178323
0.00485183
0.00215341
-0.0017372
-0.00171776
-0.00442454
-0.00650716
-0.0020723
0.00109035
0.00152581
0.00240122
-0.0026133
-0.00358014
-0.00130938
-0.00133317
0.00124011
0.00209246
9.39488e-05
-0.00134636
0.00157546
0.00219152
-0.000675538
0.000714865
0.00309093
0.00186825
0.00103248
0.000358325
-0.00447702
-0.00804167
-0.00178218
0.00178093
-0.00128336
-0.00285821
0.00473961
0.00378407
-7.88979e-05
0.00225674
-0.0020504
-0.00436174
-0.00156221
0.00181729
0.00478413
0.0019723
-0.00225861
-0.00194086
-0.00416898
-0.00648001
-0.00240361
0.00124183
0.00142562
0.00202646
-0.00252879
-0.00297501
-0.00120696
-0.00120801
0.00128017
0.00217687
0.000163737
-0.00139222
0.00131484
0.00222751
-0.000484869
0.000332764
0.00270885
0.00133897
0.0010443
0.00130101
-0.00353762
-0.00770311
-0.00136537
0.00241949
-0.00127725
-0.00298035
0.0038861
0.0038234
-0.000362832
0.002342
-0.00108515
-0.00426975
-0.00148933
0.00184776
0.00459013
0.00181934
-0.00246515
-0.00224613
-0.00355251
-0.0055486
-0.00278301
0.00053605
0.0013378
0.00163059
-0.00238551
-0.00239062
-0.00112892
-0.00116748
0.00124706
0.00210333
0.000204266
-0.00128202
0.00113685
0.00206951
-0.000229403
2.44191e-05
0.00216432
0.00105327
0.000766148
0.00181978
-0.00242114
-0.00665481
-0.00106903
0.00235288
-0.000995153
-0.00287525
0.00328177
0.00384683
-0.000421289
0.0020029
-0.000305117
-0.00366472
-0.00141973
0.00208659
0.00433696
0.00176911
-0.00234953
-0.00250321
-0.00299241
-0.00473742
-0.00287018
0.00035485
0.00128262
0.00119703
-0.00232739
-0.00196556
-0.00102983
-0.00108165
0.00117869
0.00191997
0.00029257
-0.0010591
0.000817222
0.00188854
-0.000120595
-0.000265984
0.00172735
0.000868663
0.000286616
0.00177223
-0.00140259
-0.00566731
-0.000911998
0.00195197
-0.000699431
-0.00241396
0.00291033
0.00372677
-0.000380462
0.00140066
4.33658e-05
-0.00294704
-0.00125197
0.00182091
0.00380102
0.00166463
-0.00211267
-0.00247896
-0.00257322
-0.00415435
-0.00285662
9.99269e-05
0.00119882
0.000881018
-0.00227578
-0.00175247
-0.000923571
-0.00097397
0.00111138
0.00164222
0.000312962
-0.000825141
0.000582793
0.00163747
-3.59709e-05
-0.000328398
0.00127043
0.000407984
-0.000314943
0.00144613
-0.000609476
-0.00524003
-0.00093809
0.00163069
-0.000430259
-0.00195247
0.00257952
0.00339998
-0.000254674
0.000918642
5.6582e-05
-0.00222205
-0.0010567
0.00139189
0.00300748
0.00140624
-0.00192795
-0.00234486
-0.00219395
-0.00358
-0.002686
-0.000131159
0.00109709
0.000828455
-0.00219181
-0.00168681
-0.000813429
-0.000944196
0.00103151
0.00131416
0.00022122
-0.000522278
0.000410082
0.00137029
0.000116524
-0.000206836
0.000732375
0.000241167
0.00035477
0.00111779
-5.09137e-05
-0.00389021
-0.000994526
0.00128551
-0.000199214
-0.00158105
0.00217397
0.00295753
-0.00010155
0.000589521
-6.01094e-05
-0.001581
-0.000820907
0.00101188
0.00268626
0.00113113
-0.00175242
-0.00215078
-0.00191762
-0.00301598
-0.00248007
-0.00046976
0.000941752
0.000778598
-0.00200006
-0.00152078
-0.000681177
-0.000911751
0.000957357
0.00103135
0.000190024
-0.000213807
0.000410803
0.00110848
0.000194078
-0.000165201
0.000346557
0.000261659
0.000242235
0.000860673
0.000270947
-0.00266621
-0.000926259
0.00110259
6.49836e-06
-0.0012398
0.00180446
0.00241321
2.25885e-05
0.000416697
-0.000150498
-0.00101619
-0.000488622
0.000733045
0.0022748
0.00092036
-0.00157119
-0.00194402
-0.00160196
-0.00239304
-0.00213581
-0.000605413
0.000796736
0.000685735
-0.00174623
-0.00111565
-0.000420411
-0.000858178
0.000929138
0.000906275
0.000115314
-6.84358e-06
0.000391378
0.000809592
0.000133315
-8.27802e-05
3.36319e-05
0.00018241
0.000150259
0.000502659
0.000387376
-0.0016085
-0.000758839
0.000996683
0.000161953
-0.00101187
0.00147665
0.00186341
0.000124017
0.000380664
-0.000273197
-0.000586127
-0.000178808
0.000492704
0.00179276
0.000774361
-0.00138501
-0.00175319
-0.00133518
-0.00177298
-0.00168392
-0.000823763
0.000637006
0.000617776
-0.0015385
-0.000872476
-0.000179046
-0.000804094
0.000798295
0.000898837
-1.81976e-07
2.36418e-05
0.000425226
0.000590631
2.30648e-05
9.44422e-06
-0.000153412
1.80024e-05
0.000138997
0.000194627
0.000456163
-0.000810313
-0.000660409
0.000863331
0.000242885
-0.000881416
0.00123812
0.00144069
0.000198955
0.000441872
-0.000357693
-0.000364995
0.000120988
0.000249497
0.00138548
0.000643035
-0.00114178
-0.00150754
-0.00122595
-0.00127974
-0.00127783
-0.00105385
0.000417234
0.000730492
-0.0013561
-0.000730559
6.53616e-06
-0.000776768
0.000741976
0.000917122
-9.70701e-05
-2.68447e-06
0.000481149
0.000484063
-0.000182211
6.61985e-05
-0.000217018
-0.000173094
0.000168479
-3.61903e-05
0.000443782
-0.000213
-0.000597843
0.000722502
0.000336959
-0.000775468
0.00101912
0.00115116
0.000222853
0.000546975
-0.000391115
-0.00029762
0.000366839
0.00017482
0.00102102
0.000538571
-0.000908586
-0.00131856
-0.00123612
-0.000950072
-0.000902044
-0.00117787
0.000156666
0.000813176
-0.00120792
-0.000683425
0.000164777
-0.000739526
0.000642282
0.000940257
-0.000144556
-0.000106375
0.000483915
0.000472804
-0.000302618
5.8364e-05
-0.000164626
-0.000338254
0.00024781
-0.000217344
0.000342499
0.000210015
-0.000523883
0.000555445
0.000445054
-0.000638469
0.000837861
0.000939585
0.000165078
0.000643853
-0.000417443
-0.000284107
0.000551348
2.84392e-05
0.000709289
0.000434106
-0.000707884
-0.00108714
-0.00125565
-0.000719062
-0.000559553
-0.00131199
-0.000130124
0.000894796
-0.00108715
-0.000661345
0.00029533
-0.000688301
0.00049241
0.000940518
-0.000178706
-0.000170409
0.000420488
0.000522324
-0.000340914
-4.51843e-05
-4.16951e-05
-0.00045326
0.000279903
-0.000158974
0.000191583
0.000479116
-0.000407322
0.00036071
0.000558994
-0.000431518
0.000668928
0.000809322
5.63236e-05
0.000675839
-0.000306234
-0.000301842
0.00066462
-5.53836e-05
0.000472549
0.000328368
-0.000532254
-0.000831925
-0.00126444
-0.000576832
-0.000244255
-0.00134951
-0.000403181
0.000931615
-0.000906193
-0.000735887
0.000380394
-0.000620443
0.000307091
0.000909685
-0.000159187
-0.000212054
0.000303631
0.00056766
-0.000255057
-0.000243481
7.74623e-05
-0.000451685
0.000179074
-4.64329e-05
1.54682e-05
0.000595855
-0.000236023
0.000155215
0.000617929
-0.00027137
0.000517699
0.000743186
-3.84907e-05
0.000620212
-0.000160642
-0.000308927
0.000677108
-9.05004e-05
0.0002358
0.000212121
-0.000377754
-0.000572556
-0.00125071
-0.000498414
-4.14121e-08
-0.00125996
-0.000615845
0.000882914
-0.000659725
-0.000861803
0.000386245
-0.000516462
0.000109863
0.000835292
-0.00013302
-0.000211718
0.000149992
0.000543357
-3.49075e-05
-0.000463223
0.000124956
-0.000290724
2.78031e-05
7.53272e-05
-0.00011266
0.000612563
-2.1318e-05
-1.3235e-06
0.000585294
-0.000151162
0.000404567
0.000684069
-8.21777e-05
0.000491214
-5.03501e-05
-0.000290196
0.000644386
-7.98684e-05
6.31896e-05
8.83998e-05
-0.000253491
-0.000325188
-0.00122019
-0.000461032
0.000173709
-0.00108402
-0.000740754
0.000714734
-0.000369795
-0.00089467
0.000296255
-0.000440033
-6.44912e-05
0.000719428
-0.000139305
-0.000143811
1.80377e-05
0.000355666
0.000277777
-0.000594789
6.15219e-05
-4.67065e-05
-0.000123418
0.000176494
-0.000178461
0.000517302
0.000183652
-6.86086e-05
0.000474366
-0.000108564
0.000334012
0.000608468
-6.6593e-05
0.000366778
1.17653e-06
-0.000230296
0.000569586
-4.33412e-05
-4.0239e-05
-4.9541e-05
-0.000166069
-8.91343e-05
-0.00118539
-0.000447036
0.000281507
-0.000896633
-0.000755695
0.000459143
-0.000154712
-0.000807192
0.000133645
-0.000309994
-0.00015759
0.000592076
-0.000205302
-1.53015e-05
-4.55058e-05
5.94808e-05
0.000578852
-0.000593259
-0.000107311
0.000191977
-0.000214816
0.000247791
-0.000153591
0.000348981
0.000319512
-5.0618e-05
0.000333598
-4.7049e-05
0.000314517
0.000509062
-1.23979e-05
0.000271043
-9.788e-06
-0.000144142
0.000457536
-2.08867e-05
-4.92094e-05
-0.000182209
-0.000130736
0.000131045
-0.00110442
-0.000459143
0.000346753
-0.000735312
-0.000681171
0.000221941
-6.63656e-05
-0.000629671
1.50786e-06
-0.000248578
-0.000163707
0.000505695
-0.000340661
0.000113169
3.04895e-06
-0.000302141
0.000734957
-0.000418185
-0.000299214
0.000309061
-0.000248709
0.000289556
-8.05576e-05
0.00014441
0.000388863
3.02346e-05
0.000177595
-1.60326e-05
0.000339395
0.000366264
5.64473e-05
0.000228775
-7.7008e-05
-4.10429e-05
0.000338521
-3.28137e-05
1.52247e-05
-0.000271893
-0.000165276
0.000328574
-0.000977128
-0.000512424
0.000394007
-0.000585356
-0.000594096
6.72181e-05
-8.74982e-05
-0.000467793
-2.29119e-05
-0.000273984
-0.000138027
0.000441419
-0.000422815
0.000163557
9.62766e-05
-0.000527705
0.000714991
-0.00019782
-0.000381711
0.000313319
-0.000242675
0.000277797
4.71371e-05
-4.69171e-05
0.000375646
0.000192016
3.63895e-06
4.6236e-05
0.000424403
0.000155562
0.000100116
0.000256215
-0.000128529
4.19981e-05
0.000227774
-7.51331e-05
0.000113274
-0.000279672
-0.000282636
0.000474817
-0.000764513
-0.000622034
0.000404694
-0.000410847
-0.000543494
-2.08992e-05
-0.000106216
-0.000384933
-1.14983e-05
-0.000272357
-0.00014475
0.000280471
-0.000382772
0.0001716
7.8279e-05
-0.000535565
0.000556044
-6.49821e-05
-0.000320085
0.000251432
-0.000214542
0.000188668
0.000200765
-0.000158467
0.000264511
0.000409625
-0.000151499
-2.00601e-06
0.000561766
-5.39149e-05
6.65397e-05