/*--------------------------------*- C++ -*----------------------------------*\
  =========                 |
  \\      /  F ield         | OpenFOAM: The Open Source CFD Toolbox
   \\    /   O peration     | Website:  https://openfoam.org
    \\  /    A nd           | Version:  10
     \\/     M anipulation  |
\*---------------------------------------------------------------------------*/
FoamFile
{
    format      ascii;
    class       surfaceScalarField;
    location    "95";
    object      phi_0;
}
// * * * * * * * * * * * * * * * * * * * * * * * * * * * * * * * * * * * * * //

dimensions      [0 3 -1 0 0 0 0];

internalField   nonuniform List<scalar> 
74080
(
1.73521e-05
6.27786e-06
9.02254e-06
1.86995e-05
2.62158e-06
9.04337e-06
1.76101e-05
8.16037e-06
5.94696e-06
1.38749e-05
1.43253e-05
1.80325e-06
1.36331e-05
5.63502e-06
1.21674e-06
1.59608e-05
-1.38162e-06
-1.81217e-06
1.67906e-05
-4.04619e-06
-1.0557e-06
1.52086e-05
-3.71256e-06
3.21572e-06
1.24889e-05
-9.14445e-07
5.35179e-06
1.25367e-05
-4.1438e-06
6.55955e-06
1.37435e-05
-6.1319e-06
4.06415e-06
1.3939e-05
-4.73706e-06
-1.16074e-06
1.38819e-05
-4.94623e-07
-2.09279e-06
1.28043e-05
7.62726e-06
8.4967e-07
1.12511e-05
1.15649e-05
-1.31565e-08
1.03396e-05
1.29253e-05
-3.67015e-06
1.16176e-05
1.23138e-05
-3.15657e-06
1.4177e-05
9.5106e-06
-1.32871e-06
1.60563e-05
1.10393e-05
-6.14122e-06
1.72872e-05
9.25724e-06
-9.56438e-06
1.84519e-05
1.44571e-06
-3.85354e-06
1.6583e-05
3.18204e-06
-2.31021e-06
1.30547e-05
1.22113e-05
-1.47697e-05
1.2541e-05
9.49246e-06
-2.03463e-05
1.4477e-05
-1.56681e-06
-1.18324e-05
1.65323e-05
-3.07035e-06
-3.07867e-06
1.66374e-05
2.01875e-06
5.34961e-06
1.43138e-05
1.08972e-05
5.81304e-06
1.26549e-05
1.14455e-05
-2.51321e-06
1.45061e-05
3.98575e-07
-5.12046e-06
1.4838e-05
-1.1076e-06
-4.07579e-06
1.24591e-05
9.31516e-06
-1.03495e-05
1.13926e-05
1.31643e-05
-1.43753e-05
1.22924e-05
1.00084e-05
-1.24766e-05
1.37967e-05
8.55453e-06
-9.47035e-06
1.50678e-05
9.70698e-06
-9.58125e-06
1.57313e-05
1.20077e-05
-1.29354e-05
1.63018e-05
1.06437e-05
-9.5243e-06
1.7849e-05
1.13905e-07
2.62341e-06
-4.4778e-07
9.92385e-06
5.96378e-05
2.25178e-05
2.03632e-05
6.25776e-05
1.27313e-05
1.78647e-05
6.18332e-05
3.37365e-05
1.29872e-05
5.44231e-05
5.36847e-05
7.73583e-06
5.11573e-05
2.56101e-05
4.137e-06
5.24552e-05
-8.3551e-07
-4.59168e-06
5.3162e-05
-1.24544e-05
-4.18719e-06
5.06128e-05
-1.06508e-05
3.76576e-06
4.55554e-05
-2.77955e-06
1.07006e-05
4.41387e-05
-1.07615e-05
1.24798e-05
4.49052e-05
-1.47376e-05
4.21295e-06
4.4114e-05
-1.28951e-05
-4.10609e-06
4.37296e-05
-1.64548e-06
-7.12075e-06
4.26774e-05
2.46038e-05
-3.71756e-06
3.98383e-05
3.62331e-05
-1.8391e-06
3.69101e-05
3.87929e-05
-3.83103e-06
3.88589e-05
3.97317e-05
-4.5475e-06
4.49022e-05
3.69382e-05
-1.06373e-05
5.10351e-05
4.134e-05
-2.64702e-05
5.52037e-05
3.43585e-05
-3.07487e-05
5.74838e-05
1.00019e-05
-1.3711e-05
5.80935e-05
2.05344e-06
-4.0499e-06
5.73572e-05
1.94414e-05
-2.62317e-05
5.39461e-05
2.8601e-05
-4.68473e-05
5.05389e-05
8.51701e-06
-3.16374e-05
4.95672e-05
2.95648e-06
-9.52837e-06
4.73722e-05
1.34731e-05
7.98933e-06
4.44136e-05
2.99651e-05
1.09944e-05
4.58587e-05
2.85663e-05
-6.00847e-06
5.11287e-05
4.15224e-06
-1.55646e-05
5.0697e-05
1.21256e-06
-1.3126e-05
4.54838e-05
2.77518e-05
-2.18124e-05
4.30152e-05
4.13121e-05
-3.04647e-05
4.41154e-05
3.79149e-05
-2.74148e-05
4.64397e-05
3.70399e-05
-2.14848e-05
4.80293e-05
4.03093e-05
-2.34564e-05
5.07445e-05
4.07717e-05
-2.63146e-05
5.75109e-05
2.7632e-05
-1.35428e-05
6.35536e-05
3.81386e-07
9.74773e-06
3.81964e-06
2.2629e-05
0.000111385
4.26234e-05
2.98227e-05
0.000111762
2.5454e-05
2.38736e-05
0.000118497
5.87097e-05
1.49912e-05
0.000115863
0.000109219
1.63791e-05
0.000106093
7.61648e-05
1.48532e-05
9.84959e-05
1.89756e-05
-5.63874e-07
9.56987e-05
-1.92273e-05
-7.5729e-06
9.56809e-05
-2.58664e-05
-1.30642e-06
9.14761e-05
-8.34754e-06
1.13222e-05
8.5113e-05
-1.57711e-05
1.86253e-05
8.06847e-05
-1.98942e-05
5.58635e-06
7.62544e-05
-2.16135e-05
-5.94799e-06
7.47982e-05
-1.07203e-05
-1.11062e-05
7.62764e-05
3.76155e-05
-1.09094e-05
7.52606e-05
6.67071e-05
-7.15192e-06
7.04502e-05
6.57056e-05
-1.63484e-06
7.00532e-05
6.60064e-05
3.32411e-06
7.89954e-05
7.00165e-05
-1.00681e-05
9.13207e-05
8.53643e-05
-4.41598e-05
9.85806e-05
7.60026e-05
-5.67605e-05
9.9829e-05
3.4425e-05
-3.14503e-05
0.000101935
5.47195e-06
-5.38007e-06
0.000109079
7.33111e-06
-1.71374e-05
0.000107218
2.76925e-05
-4.30863e-05
9.48851e-05
2.38218e-05
-4.48494e-05
8.66754e-05
1.99561e-05
-2.0308e-05
8.14175e-05
3.48095e-05
4.09867e-06
7.76759e-05
5.42523e-05
1.38632e-05
8.27564e-05
4.5477e-05
-2.70332e-06
9.25329e-05
1.29897e-05
-2.32047e-05
9.28111e-05
1.19199e-05
-2.47812e-05
8.66776e-05
4.68686e-05
-2.49794e-05
8.33631e-05
7.01707e-05
-3.42964e-05
8.37245e-05
7.40558e-05
-3.56972e-05
8.62695e-05
8.13495e-05
-2.86659e-05
8.78114e-05
9.54672e-05
-3.42653e-05
9.16147e-05
9.4868e-05
-3.95299e-05
0.000103695
5.99899e-05
-1.95214e-05
0.000116515
8.21168e-06
1.07436e-05
1.05529e-05
2.85648e-05
0.0001684
6.12255e-05
3.92997e-05
0.000158495
4.28454e-05
3.1177e-05
0.000160424
8.32509e-05
9.22051e-06
0.000176188
0.00014762
1.13477e-05
0.000179085
0.000128699
3.01135e-05
0.000161605
6.91739e-05
1.70559e-05
0.000144966
-3.81e-06
-2.56049e-06
0.000144737
-4.82017e-05
-6.13748e-06
0.000149456
-3.07053e-05
4.81492e-06
0.000140833
-2.47521e-05
2.42172e-05
0.000125709
-1.8149e-05
1.18867e-05
0.000111984
-2.3657e-05
-5.31052e-06
0.000105619
-2.27571e-05
-1.15085e-05
0.00011018
4.17366e-05
-1.84575e-05
0.000114303
9.79613e-05
-1.79703e-05
0.000109543
9.33132e-05
-4.86346e-06
0.000103944
7.9056e-05
1.38783e-05
0.000110911
9.15036e-05
5.19553e-06
0.00013048
0.000128812
-4.30234e-05
0.000143544
0.000127125
-7.65321e-05
0.000142713
7.47427e-05
-5.1182e-05
0.000144732
2.01179e-05
-5.92827e-06
0.000160081
-8.10788e-06
-1.39886e-06
0.000162845
4.57546e-06
-2.11445e-05
0.000143654
2.06065e-05
-3.35496e-05
0.000127576
3.53133e-05
-2.47499e-05
0.000118744
6.22777e-05
-1.25726e-06
0.000112337
8.21107e-05
1.47845e-05
0.000117723
5.99673e-05
3.34649e-06
0.00013083
2.50335e-05
-2.43565e-05
0.000131697
3.57041e-05
-3.67198e-05
0.000124489
7.06702e-05
-2.89488e-05
0.00012209
8.70788e-05
-2.68399e-05
0.000125114
9.49188e-05
-3.25802e-05
0.000130525
0.000119027
-2.72036e-05
0.000132748
0.000163421
-3.6334e-05
0.000136006
0.000178271
-4.81073e-05
0.000147545
0.000120638
-2.2473e-05
0.000162587
3.53419e-05
1.40795e-05
2.43895e-05
3.4503e-05
0.00022198
7.37548e-05
5.35922e-05
0.000206082
5.90854e-05
4.58029e-05
0.000192973
0.00011926
6.00486e-06
0.000210545
0.000184765
-4.95579e-06
0.000236738
0.000155604
2.69671e-05
0.000236635
0.000107881
3.6915e-05
0.000209924
4.09745e-05
1.18969e-05
0.000195065
-4.9145e-05
-1.61883e-06
0.000208921
-7.1008e-05
-1.56544e-06
0.0002109
-5.52206e-05
2.48152e-05
0.000187212
-1.63415e-05
2.0874e-05
0.000159305
-1.48371e-05
-2.89645e-06
0.000139386
-2.36182e-05
-7.1301e-06
0.000142141
4.69883e-05
-2.29685e-05
0.000157212
0.000121476
-3.76336e-05
0.000158641
0.00012334
-2.18164e-05
0.000145326
8.00384e-05
2.25747e-05
0.000141437
9.24565e-05
2.84559e-05
0.000160964
0.000162895
-2.77623e-05
0.000180894
0.000177933
-7.7521e-05
0.000184131
0.00011923
-6.68772e-05
0.000187463
4.86051e-05
-8.45865e-06
0.000218105
-7.89028e-06
2.19417e-05
0.000236966
-3.3359e-05
1.91154e-05
0.000208182
4.03101e-07
4.34512e-07
0.000175181
4.43712e-05
-1.44114e-05
0.000158783
9.21584e-05
-2.96801e-06
0.000147917
0.000109769
1.62175e-05
0.000151255
6.23453e-05
1.05626e-05
0.000165769
2.42104e-05
-1.75695e-05
0.000165962
6.25138e-05
-3.65151e-05
0.000157374
9.84532e-05
-2.8726e-05
0.000155788
9.47376e-05
-1.93342e-05
0.000161459
9.51386e-05
-2.61736e-05
0.000172422
0.00012627
-1.96666e-05
0.000179598
0.000213553
-3.05443e-05
0.000185952
0.000274426
-5.09953e-05
0.000196084
0.000208907
-1.95872e-05
0.000204879
8.43036e-05
2.4879e-05
4.31755e-05
4.55478e-05
0.000275454
7.43074e-05
6.78005e-05
0.000258065
6.38234e-05
7.84798e-05
0.000227638
0.000156377
2.51102e-05
0.000234091
0.000239078
-1.98494e-05
0.000267148
0.000179282
1.07193e-05
0.000292038
0.000111512
3.93201e-05
0.00028827
6.80631e-05
2.20704e-05
0.000262853
-1.89147e-05
8.36326e-06
0.000266649
-9.81492e-05
6.46601e-06
0.000284346
-0.000110058
2.73151e-05
0.000264997
-3.0542e-05
3.13632e-05
0.000223591
-8.39503e-08
3.20135e-06
0.00018455
-7.09179e-06
1.95734e-08
0.000172246
6.82445e-05
-1.6325e-05
0.000192337
0.000141815
-5.74439e-05
0.000215903
0.000145532
-6.37695e-05
0.00020596
7.46804e-05
9.94559e-06
0.000181276
7.74484e-05
5.32315e-05
0.000186966
0.000189916
-6.48676e-06
0.00020945
0.000224024
-6.16382e-05
0.000227624
0.000155491
-7.33453e-05
0.000238506
8.80489e-05
-2.73704e-05
0.000281445
2.46609e-05
2.87171e-05
0.000337027
-6.74189e-05
5.88546e-05
0.000311125
-3.94832e-05
6.06608e-05
0.000243086
5.75853e-05
1.9155e-05
0.000206318
0.000133343
1.13602e-06
0.000187709
0.000140117
1.76567e-05
0.000186511
4.41837e-05
2.03524e-05
0.00020012
-9.8141e-06
-2.98625e-06
0.000198111
7.48593e-05
-2.48767e-05
0.000186629
0.000126515
-2.55335e-05
0.000186624
9.01323e-05
-1.1917e-05
0.000194619
7.26159e-05
-1.8022e-05
0.00020736
0.000101892
-1.26562e-05
0.000221792
0.000222145
-1.90854e-05
0.000244038
0.000341845
-5.3778e-05
0.000264017
0.000297201
-2.2459e-05
0.000260715
0.000154274
3.47621e-05
6.93529e-05
5.43964e-05
0.00033377
6.67089e-05
6.57937e-05
0.000314052
5.91633e-05
0.000107347
0.000264629
0.000171383
7.97281e-05
0.000258152
0.000287177
-5.73241e-06
0.000287961
0.000214566
-7.82145e-06
0.000321157
9.70339e-05
2.84443e-05
0.000351972
4.56395e-05
1.9555e-05
0.000348955
-2.66056e-06
4.49712e-06
0.000333513
-9.18682e-05
1.28486e-05
0.000347112
-0.000155317
2.98865e-05
0.000346117
-6.67875e-05
3.80911e-05
0.000303514
7.68203e-06
1.3706e-05
0.000245207
2.14699e-05
1.29585e-05
0.000213688
0.000106717
1.1557e-07
0.000220403
0.00017455
-6.33994e-05
0.00025589
0.000157925
-0.000110382
0.000272423
6.17528e-05
-4.31479e-05
0.000239979
5.0922e-05
5.55486e-05
0.000218085
0.000210822
2.28778e-05
0.000234695
0.000263423
-3.33255e-05
0.000269116
0.000181571
-6.16624e-05
0.000285152
0.000120367
-4.52518e-05
0.00030873
7.71597e-05
1.40572e-05
0.00039937
-8.34926e-05
4.23874e-05
0.000428575
-0.0001085
7.90498e-05
0.000341885
6.70089e-05
5.98818e-05
0.000271579
0.000194535
1.71985e-05
0.000244029
0.000179094
2.36966e-05
0.00023591
1.28491e-05
3.17514e-05
0.000241445
-7.45407e-05
1.17866e-05
0.000234228
6.05908e-05
-9.04671e-06
0.00021559
0.000157243
-2.79538e-05
0.000214291
7.5414e-05
-9.26994e-06
0.00022847
1.29092e-05
-2.81947e-06
0.000241328
4.55889e-05
-6.65701e-06
0.000257945
0.000185575
-7.77851e-06
0.00029444
0.00035271
-5.44929e-05
0.000332143
0.000355754
-4.56488e-05
0.000326581
0.000223763
3.00788e-05
0.000101182
5.78524e-05
0.000401714
3.83121e-05
6.16138e-05
0.000392383
3.79727e-05
0.000111428
0.000326482
0.000171889
0.000119784
0.000303336
0.000315827
3.65297e-05
0.00032484
0.00025593
1.47148e-06
0.000356623
8.50099e-05
2.83202e-05
0.000404801
-1.05751e-05
2.22558e-05
0.000436603
-2.86628e-05
-5.17259e-06
0.000418012
-7.3685e-05
1.50788e-06
0.000399809
-0.000149855
1.57679e-05
0.000406644
-9.16385e-05
1.7788e-05
0.000387101
-4.69025e-07
8.58734e-06
0.000319248
5.20692e-05
2.5143e-05
0.000269066
0.000148466
3.25096e-05
0.000265901
0.00020331
-4.1275e-05
0.000292739
0.000170683
-0.000132334
0.00032309
4.89566e-05
-0.000104688
0.000302274
1.86187e-05
1.83472e-05
0.000264412
0.00021594
4.28267e-05
0.000273877
0.000289312
6.92591e-06
0.000321215
0.000193187
-3.34187e-05
0.000340539
0.000135427
-4.93164e-05
0.000327654
0.000115909
-8.17576e-06
0.000406311
-8.75722e-05
-1.35333e-06
0.000495299
-0.000194251
3.91806e-05
0.000442017
4.66555e-05
6.5619e-05
0.00036123
0.000253977
3.1973e-05
0.000336548
0.000219449
3.95537e-05
0.000317741
-5.13381e-06
5.2976e-05
0.000296776
-0.000133336
3.05785e-05
0.000277614
2.59273e-05
8.15683e-06
0.000252159
0.000186993
-3.20017e-05
0.000242256
6.68084e-05
-1.57493e-05
0.000261779
-8.59606e-05
1.76567e-05
0.000280645
-4.99458e-05
7.70098e-06
0.000295448
0.000107389
1.99693e-06
0.000335853
0.000309902
-5.3369e-05
0.000384649
0.000379467
-7.47137e-05
0.000381908
0.00028234
1.35149e-05
0.000130836
6.27654e-05
0.000463307
-2.43597e-05
6.64278e-05
0.000471943
3.13885e-06
0.000107856
0.000383283
0.000187763
0.000131397
0.000334874
0.000337691
6.44168e-05
0.000355633
0.000286628
1.71675e-05
0.000396352
8.05538e-05
4.54202e-05
0.000456556
-6.62297e-05
5.27825e-05
0.000517531
-9.17547e-05
1.58237e-05
0.000522074
-8.15052e-05
4.98553e-06
0.000475731
-9.48751e-05
2.14738e-06
0.000456111
-5.37329e-05
-2.20536e-05
0.000461259
-1.68775e-06
-3.1879e-05
0.00040704
6.66783e-05
1.85533e-05
0.000340862
0.000176579
7.41663e-05
0.000334937
0.000197985
2.04342e-05
0.000357835
0.000163411
-0.000102732
0.000378135
4.65841e-05
-0.000132858
0.000362583
-1.28341e-06
-3.41456e-05
0.000325038
0.000200702
4.08797e-05
0.000332481
0.000288375
4.61711e-05
0.000385926
0.000197125
-1.83062e-07
0.000404006
0.000163711
-4.42526e-05
0.000377388
0.000160208
-2.8016e-05
0.000431966
-8.40759e-05
-2.41788e-05
0.000533488
-0.000257288
1.13855e-06
0.000521342
1.38785e-05
5.02227e-05
0.000466724
0.00028239
3.69759e-05
0.000470028
0.0002299
6.01577e-05
0.000448919
-6.07482e-06
9.41707e-05
0.000382975
-0.000132478
6.06535e-05
0.000327649
7.81382e-06
2.80924e-05
0.000297455
0.000203222
-2.00706e-05
0.000280608
7.49799e-05
-1.91258e-05
0.000292518
-0.000185288
2.73619e-05
0.000317679
-0.000172962
2.79108e-05
0.000335378
9.13297e-06
1.32802e-05
0.000375426
0.000226202
-4.42584e-05
0.000420782
0.00037986
-9.77553e-05
0.00041101
0.000345242
-1.18306e-05
0.000154935
6.34303e-05
0.000495726
-9.46139e-05
7.48044e-05
0.000500298
-1.63182e-05
0.000107062
0.000401465
0.000235853
0.00010815
0.000354622
0.000333554
5.32764e-05
0.000388679
0.000287391
1.0259e-05
0.000428728
0.000104159
4.04774e-05
0.00048913
-8.71037e-05
8.16419e-05
0.000569511
-0.00016206
5.77446e-05
0.00061234
-0.000121778
2.15879e-05
0.000582665
-6.76399e-05
3.9565e-05
0.000534242
5.68489e-06
2.00937e-07
0.00053088
3.50699e-05
-7.42547e-05
0.000497077
9.06929e-05
-2.50289e-05
0.000425568
0.000195345
8.87871e-05
0.000412741
0.000165865
9.96139e-05
0.000446349
0.000120918
-2.68034e-05
0.000460315
5.00625e-05
-0.000113323
0.000432269
1.09321e-05
-6.92283e-05
0.000388816
0.000191767
1.56614e-05
0.000393927
0.000273467
5.65228e-05
0.000450054
0.000182446
3.34464e-05
0.000463638
0.000206623
-3.65163e-05
0.000436848
0.000224376
-4.53372e-05
0.000483845
-8.84557e-05
-3.20814e-05
0.000575665
-0.000297734
-2.01971e-05
0.000578512
1.09084e-05
2.25382e-05
0.000550819
0.00030006
2.4967e-05
0.000593356
0.000190535
6.78377e-05
0.000601765
-4.64913e-05
0.000141262
0.000506907
-9.27862e-05
0.0001126
0.000404319
3.599e-05
5.49391e-05
0.00039409
0.000180855
4.66313e-06
0.000408223
7.94804e-05
-3.1696e-05
0.000385598
-0.000212303
3.27778e-07
0.000375613
-0.000260391
3.2186e-05
0.000387385
-7.57598e-05
2.08776e-05
0.0004189
0.00013614
-3.60391e-05
0.000454126
0.000355985
-0.000104057
0.000442812
0.000408915
-3.58542e-05
0.000183045
5.50565e-05
0.000525977
-0.00010988
4.80482e-05
0.000504838
-1.00115e-05
8.80594e-05
0.000422115
0.000277654
7.64246e-05
0.000399003
0.00030002
1.97613e-05
0.00045438
0.000254027
-8.46562e-06
0.000498566
0.000137149
1.00889e-05
0.000536835
-5.95581e-05
7.4858e-05
0.000612042
-0.000205696
8.18351e-05
0.000681319
-0.000176974
3.37397e-05
0.000674785
-0.000112012
0.000101337
0.000620822
-3.24708e-05
0.000133378
0.000601364
4.85836e-05
-1.87653e-05
0.000577922
0.000133356
-6.73492e-05
0.000520286
0.000202835
6.51802e-05
0.000489967
0.000121136
0.00015144
0.000522723
4.98661e-05
5.99628e-05
0.000558711
3.35793e-05
-5.38026e-05
0.000520939
4.92293e-05
-5.95754e-05
0.000451463
0.00022168
-1.30097e-05
0.00045086
0.000276932
1.82573e-05
0.000505814
0.000178454
1.14383e-05
0.000518332
0.000255983
-4.78831e-05
0.000498939
0.000299612
-6.52561e-05
0.000537763
-8.16188e-05
-4.91053e-05
0.000615688
-0.000335377
-4.52099e-05
0.000633665
1.64807e-05
-1.70156e-05
0.000623179
0.000316574
1.00408e-05
0.000659874
0.000148339
6.52483e-05
0.000687344
-0.000110493
0.000138235
0.000622414
-8.07652e-05
0.000146237
0.000522311
7.10841e-05
9.43792e-05
0.000547937
0.000116983
2.99831e-05
0.000634741
3.26974e-05
-4.58837e-05
0.000600719
-0.000171249
-4.80328e-05
0.000507297
-0.00025161
1.31871e-05
0.00047009
-0.00011855
2.89942e-05
0.000479736
7.31289e-05
-3.75102e-05
0.000501804
0.000318521
-0.000105734
0.000504593
0.000435858
-3.08068e-05
0.000220596
4.33877e-05
0.000578888
-6.23516e-05
-4.21042e-06
0.000536243
2.40728e-05
3.85274e-05
0.000488078
0.000275865
7.29846e-05
0.000486756
0.000255266
3.15193e-05
0.000537987
0.000209087
5.40926e-06
0.000592209
0.000131634
6.5979e-06
0.000626683
-4.20116e-05
6.32495e-05
0.000679908
-0.000216705
9.4961e-05
0.00073813
-0.000218224
5.89421e-05
0.000730866
-0.000170673
0.000118517
0.000680081
-0.000123181
0.000186184
0.000658849
-9.25146e-07
5.15855e-05
0.000641827
0.00015246
-7.38913e-05
0.000610447
0.000176476
3.41675e-05
0.000582756
3.01385e-05
0.000171482
0.00058568
-3.93451e-05
0.000126937
0.000629357
-6.56788e-06
8.20423e-06
0.000612169
7.52788e-05
-2.01832e-05
0.000534224
0.000248534
4.30533e-06
0.00052796
0.000271368
-3.69887e-06
0.000570782
0.000187386
-2.83568e-05
0.000580222
0.000304507
-7.29182e-05
0.000578489
0.000362843
-9.23889e-05
0.000601208
-3.75657e-05
-8.27718e-05
0.000652587
-0.000339596
-7.55353e-05
0.000686846
7.88866e-07
-5.26862e-05
0.000695595
0.000308163
1.76253e-07
0.000714101
0.00012203
6.63978e-05
0.000731527
-0.000146987
0.000109934
0.000694304
-7.51277e-05
0.00012382
0.000614925
0.000108032
0.000110501
0.000635139
7.42888e-05
6.9077e-05
0.000755256
-4.4896e-05
-2.36036e-05
0.000781467
-0.000169693
-6.80912e-05
0.000675522
-0.000218074
-4.56169e-06
0.000571854
-0.00011917
4.30757e-05
0.000530323
4.87727e-05
-3.28546e-05
0.000537925
0.000273851
-9.9906e-05
0.000570419
0.000403208
-2.05957e-05
0.000239911
2.88967e-05
0.000642407
-1.74074e-05
-3.36708e-05
0.000601767
6.14514e-05
-1.05293e-05
0.000595799
0.000218479
9.19079e-05
0.0006155
0.000190703
9.1573e-05
0.000650431
0.000178512
4.94758e-05
0.000691821
0.000114261
1.13676e-05
0.000726626
-4.97279e-05
3.57095e-05
0.000767278
-0.000221385
9.29286e-05
0.000811248
-0.000236784
8.38168e-05
0.000802983
-0.00020225
0.000120022
0.000744926
-0.000195216
0.000185307
0.00070849
-6.75486e-05
7.60066e-05
0.000697155
0.000156182
-7.15288e-05
0.000706159
0.000150353
1.48401e-06
0.00071117
-8.95348e-05
0.000157267
0.000682613
-0.000141822
0.000157572
0.000680776
-2.4752e-05
4.70606e-05
0.000672212
0.000104445
1.24582e-05
0.000629539
0.000239857
2.953e-05
0.000638625
0.000214119
1.33615e-06
0.000664728
0.000180232
-3.53481e-05
0.00066281
0.000349131
-7.32853e-05
0.000672134
0.000405679
-0.000108748
0.000678789
2.67169e-05
-0.000128462
0.000691785
-0.000301338
-0.000105488
0.000725008
-2.62342e-05
-6.70837e-05
0.000765629
0.00025754
-8.75954e-06
0.000787851
0.000112386
4.98046e-05
0.000779905
-0.000132837
8.37874e-05
0.000767625
-8.79111e-05
9.98682e-05
0.000725641
0.000113662
0.000104134
0.000709065
6.5834e-05
8.75887e-05
0.000789031
-0.000101173
8.68927e-06
0.000844402
-0.000203726
-6.7038e-05
0.000772216
-0.000213093
-1.59298e-05
0.000647169
-0.00010901
5.43366e-05
0.000562417
3.81987e-05
-1.38037e-05
0.000549425
0.000228061
-0.000108291
0.000605027
0.000325384
-5.91655e-05
0.0001931
1.65603e-05
0.000721723
-4.42381e-05
3.5134e-06
0.000706871
4.61755e-05
-2.45266e-05
0.000719648
0.000140108
7.33339e-05
0.000735943
0.000118911
0.00010712
0.000761237
0.000151014
7.3814e-05
0.000789754
0.000109285
1.02253e-05
0.000825031
-6.37625e-05
-4.21785e-06
0.000864037
-0.000239825
6.71904e-05
0.000895535
-0.000245931
0.000102187
0.000892623
-0.000217763
0.00013408
0.000821893
-0.000231504
0.000187351
0.000748307
-9.06168e-05
9.43379e-05
0.000751566
0.000169503
-6.08241e-05
0.000822441
0.000136294
-4.43213e-05
0.000869584
-0.000175549
8.88354e-05
0.000832328
-0.000224367
0.000120864
0.000778524
-8.26207e-06
5.62407e-05
0.000736963
0.0001717
5.56445e-05
0.00070375
0.000221061
7.21938e-05
0.000716824
0.0001149
3.74058e-05
0.000740553
0.000136867
-4.97383e-06
0.000744293
0.000356711
-3.15799e-05
0.000756316
0.000417741
-9.39267e-05
0.000759599
7.91369e-05
-0.000165037
0.000744436
-0.000231556
-0.000143179
0.000752876
-4.00504e-05
-6.9885e-05
0.00081888
0.000177129
-1.48162e-05
0.000879445
9.10902e-05
2.91196e-05
0.000864558
-8.54741e-05
5.58223e-05
0.00084237
-8.93021e-05
8.10737e-05
0.000820778
9.12306e-05
9.71749e-05
0.000799235
3.9597e-05
7.32031e-05
0.000857747
-0.000172691
1.0874e-05
0.000912634
-0.000260342
-5.88696e-05
0.000844885
-0.000221719
-2.94927e-05
0.000724431
-0.000111624
4.93804e-05
0.000638142
1.35424e-05
-1.02688e-06
0.000600156
0.000193131
-0.000125163
0.00063713
0.000251275
-0.000116616
9.88233e-05
8.24509e-06
0.000825506
-0.000108787
3.08005e-05
0.00084901
-3.47917e-05
-2.0094e-05
0.000857157
4.54444e-05
3.96184e-05
0.000834546
6.40887e-05
8.61437e-05
0.000843083
0.000116491
6.87365e-05
0.000881206
8.62934e-05
1.94753e-05
0.000931093
-8.77593e-05
-8.04234e-06
0.000972092
-0.000264689
4.92838e-05
0.000971337
-0.000245659
0.00011081
0.000951194
-0.000224815
0.000152404
0.000897126
-0.000254634
0.000191449
0.000824905
-6.10808e-05
0.000109488
0.000839545
0.000221079
-4.64628e-05
0.000945244
0.000127577
-7.89729e-05
0.00101087
-0.000226145
1.77819e-05
0.00098004
-0.000283467
7.1356e-05
0.00091722
6.28254e-06
5.57326e-05
0.000835591
0.000278608
8.33656e-05
0.000757836
0.00025495
8.82426e-05
0.000747266
3.04748e-05
7.01068e-05
0.000782558
6.20399e-05
4.79963e-05
0.000806924
0.000318039
1.69915e-05
0.000822866
0.000394003
-6.80133e-05
0.000836503
0.000107952
-0.000195236
0.000822511
-0.000148915
-0.000196342
0.000815492
-3.05882e-05
-8.85896e-05
0.000870276
0.000110362
-2.67219e-05
0.000938582
7.02281e-05
2.00048e-05
0.000952878
-5.77563e-05
4.84836e-05
0.00094415
-8.93581e-05
5.63636e-05
0.000924929
7.05618e-05
7.85062e-05
0.000914985
-1.41767e-05
5.65688e-05
0.000970114
-0.000257242
4.59228e-06
0.00100923
-0.000312083
-3.80381e-05
0.000937258
-0.000231759
-3.07633e-05
0.000835651
-0.000132806
2.48729e-05
0.000772302
-3.01693e-05
9.14381e-07
0.000727163
0.000165426
-0.000107169
0.000727196
0.000222814
-0.000121501
3.43945e-05
4.19028e-06
0.000952353
-0.000146571
5.59841e-06
0.00100235
-0.000130367
-4.75897e-05
0.00100363
-4.9029e-05
8.33179e-06
0.000940068
3.44831e-05
7.31522e-05
0.000921876
9.61354e-05
6.07092e-05
0.000976006
5.27558e-05
2.43289e-05
0.00103613
-0.000106211
-1.86557e-06
0.00106426
-0.000273949
3.74955e-05
0.00104908
-0.000252127
0.000107671
0.00101405
-0.000233893
0.00016995
0.000961905
-0.000267215
0.0001998
0.000918368
-2.84624e-05
0.000120755
0.000967025
0.000263274
-3.15542e-05
0.00108172
0.000125503
-0.000101414
0.00113079
-0.000238614
-2.88251e-05
0.0010741
-0.000306092
4.49744e-05
0.000996317
3.00356e-05
5.63472e-05
0.000925998
0.000389258
7.01493e-05
0.000859881
0.00031606
4.84836e-05
0.000820531
-8.83712e-06
6.58686e-05
0.000821115
4.0536e-06
9.58526e-05
0.000847348
0.000271769
4.93142e-05
0.000880214
0.000361453
-5.77719e-05
0.000909421
0.000134677
-0.000215413
0.000913528
-6.65133e-05
-0.00024902
0.00091771
-1.15664e-05
-0.000122772
0.000958163
6.85741e-05
-5.37369e-05
0.00100754
6.28689e-05
4.21987e-06
0.00103071
-3.45909e-05
5.77171e-05
0.00104692
-8.7529e-05
4.77669e-05
0.00106744
2.47539e-05
7.08298e-05
0.00108676
-8.98102e-05
6.69333e-05
0.00111867
-0.000308146
1.05651e-05
0.00112563
-0.000313565
-1.6265e-05
0.00106443
-0.000232152
-1.82878e-05
0.000983336
-0.000157945
-4.88949e-06
0.000914013
-5.99241e-05
-1.59851e-05
0.000861376
0.000148564
-7.95145e-05
0.000851717
0.000220732
-8.78045e-05
3.18763e-05
-1.16313e-05
0.00109767
-0.000126436
-8.06629e-05
0.00114344
-0.000175938
-0.00010506
0.00113059
-0.000118531
-2.08258e-05
0.00104747
8.2643e-06
7.028e-05
0.00101501
9.40562e-05
5.59455e-05
0.00107548
4.16677e-05
3.83845e-06
0.00114014
-0.000105295
-2.97815e-05
0.00116241
-0.000266602
8.9326e-06
0.00115766
-0.000274158
9.22607e-05
0.00112565
-0.000252913
0.000188177
0.00104892
-0.000254351
0.000222658
0.00100725
-6.78398e-06
0.000118874
0.00108878
0.000261649
-3.93786e-05
0.00121266
0.000120389
-0.000108379
0.0012423
-0.000228006
-3.67811e-05
0.00114365
-0.000313992
4.64785e-05
0.00102636
5.28836e-05
4.01362e-05
0.000993266
0.000471574
2.08521e-05
0.00100256
0.00038342
-7.3329e-06
0.000972945
1.31926e-05
2.62624e-05
0.000921169
-1.53155e-05
0.000130154
0.000915807
0.000243921
0.00010645
0.000953603
0.000356285
-1.01749e-05
0.000986094
0.000183773
-0.00016592
0.00100018
-6.84182e-07
-0.000247748
0.00101999
3.29098e-06
-0.000152489
0.00105808
4.32376e-05
-7.28624e-05
0.00111106
5.12635e-05
-9.78276e-06
0.0011542
-2.51067e-05
6.38099e-05
0.00117813
-8.54267e-05
6.97599e-05
0.00119986
-9.27829e-06
8.57922e-05
0.0012157
-0.000124127
7.71317e-05
0.0012369
-0.000322114
2.02115e-05
0.00123905
-0.000292641
-3.89674e-06
0.00118351
-0.000205939
-1.74496e-05
0.00109538
-0.000161967
-2.57336e-05
0.00100581
-6.95506e-05
-5.21513e-05
0.000956473
0.000135905
-9.84568e-05
0.000969638
0.000213275
-9.4529e-05
5.8473e-05
-6.72264e-05
0.00125438
-5.5434e-05
-0.000181278
0.00127705
-0.00014774
-0.000169568
0.00122985
-0.000146601
-4.57039e-05
0.00114338
-2.24405e-05
7.1778e-05
0.00112706
9.82046e-05
4.27544e-05
0.00119489
5.29039e-05
-5.2526e-05
0.00125697
-7.80507e-05
-0.000106119
0.00128845
-0.00024252
-4.28674e-05
0.00131552
-0.000310437
7.40681e-05
0.00130147
-0.000290169
0.000186774
0.00119699
-0.000223961
0.000215175
0.00113155
1.74241e-05
7.91151e-05
0.00121793
0.000236075
-6.24816e-05
0.00133364
0.000129416
-7.09323e-05
0.0013315
-0.000180869
2.37037e-05
0.00119081
-0.000310478
8.17945e-05
0.00105487
4.78299e-05
7.68799e-06
0.00106215
0.000494253
-1.77449e-05
0.00113151
0.000433772
3.13241e-05
0.00114067
8.84495e-05
2.50394e-05
0.00110389
-2.24198e-05
0.00011897
0.00108907
0.00016864
0.000188696
0.00110846
0.000318579
0.000133795
0.00111418
0.000206584
-7.57141e-06
0.00111017
3.84281e-05
-0.000173634
0.00113519
8.43329e-06
-0.000170693
0.00117341
2.88482e-05
-8.68201e-05
0.00121911
5.01694e-05
-1.996e-05
0.00127903
-2.50029e-05
6.53444e-05
0.00132256
-0.000112462
0.000117428
0.00132546
-2.68095e-05
0.000117771
0.00130483
-9.98274e-05
7.4903e-05
0.00131432
-0.000311056
2.63115e-05
0.0013349
-0.000292092
1.50455e-05
0.00129384
-0.00016852
-2.24992e-05
0.00119543
-0.000127285
-5.16372e-05
0.00109163
-6.58103e-05
-8.12256e-05
0.00105054
0.000117978
-0.000136714
0.00108939
0.000195303
-0.00014126
8.95163e-05
-0.000146881
0.00141885
3.24784e-05
-0.000290868
0.00145264
-8.18418e-05
-0.000262748
0.00137391
-0.000131743
-0.000105147
0.00126491
-2.83186e-05
4.09116e-05
0.00126251
0.000113134
8.33052e-06
0.00135326
7.60787e-05
-0.000136288
0.00142591
-4.90278e-05
-0.000214285
0.00144798
-0.000199454
-0.000130586
0.00147432
-0.000327068
3.52256e-05
0.00147236
-0.000326682
0.000164353
0.00135715
-0.000189759
0.000179533
0.00126538
5.57962e-05
3.93086e-05
0.00134125
0.000210975
-4.66937e-05
0.0014751
0.000127819
-8.29266e-06
0.00149183
-0.000105616
5.09841e-05
0.00132375
-0.000237351
7.22708e-05
0.00114821
4.10721e-05
1.69237e-05
0.00116217
0.000414474
8.4672e-05
0.00125571
0.000406586
0.000185482
0.00128259
0.000180853
9.56493e-05
0.00126212
2.07849e-05
6.8299e-05
0.0012488
6.36124e-05
0.00016253
0.00126721
0.000182332
0.000195068
0.00127634
0.000144537
0.000103325
0.00125446
4.52494e-05
-9.78725e-05
0.00127081
1.79062e-05
-0.000185175
0.00131501
1.46369e-05
-0.000107578
0.00135344
5.66881e-05
-3.27932e-05
0.00141226
-1.45757e-05
5.03109e-05
0.0014637
-0.000164414
0.00015972
0.00146951
-8.77646e-05
0.000199073
0.00143827
-8.73176e-05
0.000120425
0.00142098
-0.000283855
3.25626e-05
0.00143938
-0.000304817
2.93265e-05
0.00142959
-0.000151018
3.41129e-07
0.00134238
-7.41861e-05
-4.32765e-05
0.00121734
-2.73476e-05
-8.61001e-05
0.00116364
0.00013038
-0.000180445
0.0012127
0.000204776
-0.000234859
0.000136656
-0.000252097
0.00161363
0.000102384
-0.000368849
0.00167438
-1.82705e-06
-0.000359406
0.00158637
-5.51197e-05
-0.000208794
0.00144818
7.40868e-06
-4.70384e-05
0.00141847
0.000124462
-3.47411e-05
0.00149979
7.95191e-05
-0.000169132
0.00159543
-5.60042e-05
-0.000282426
0.00161868
-0.000183295
-0.000215447
0.00160385
-0.000331692
-2.54948e-05
0.00159918
-0.000367862
0.000147277
0.00151726
-0.00020205
0.000191675
0.0014147
9.42305e-05
3.62722e-05
0.00144312
0.00025083
-9.38912e-05
0.00156997
0.000151003
-4.19542e-05
0.00165939
-6.90909e-05
3.54688e-05
0.00156028
-0.000169186
6.05658e-05
0.00135859
5.54098e-05
5.35028e-05
0.00130886
0.000372203
0.000101494
0.00139744
0.000408963
0.000137171
0.00145785
0.000266111
7.04642e-05
0.0014434
0.00010811
1.73145e-05
0.00140663
4.99834e-05
2.64531e-05
0.00143612
6.57809e-05
5.72052e-05
0.00149143
1.75103e-05
8.21793e-05
0.0014702
-1.05744e-05
-1.29143e-05
0.00144743
1.10907e-05
-0.000137067
0.00147342
3.99467e-06
-0.000123055
0.00151637
5.80012e-05
-4.89312e-05
0.00157638
1.27524e-05
1.96362e-05
0.00160944
-0.000186967
0.000122157
0.00161879
-0.0001772
0.000222435
0.00161595
-0.000135639
0.000190214
0.0015702
-0.000255512
5.5464e-05
0.00153638
-0.000288902
-2.0365e-05
0.00156909
-0.000181304
-1.77006e-05
0.00157713
-9.19219e-05
2.85666e-06
0.00146477
-5.82442e-06
-3.05865e-05
0.00135191
0.000175042
-0.000177332
0.00136938
0.000256539
-0.000309372
0.00019936
-0.000336914
0.00182179
0.000163995
-0.000305104
0.00191907
5.92839e-05
-0.000333676
0.00186244
3.67938e-05
-0.000241057
0.00171606
8.0311e-05
-0.000124415
0.00163461
0.000146898
-9.62435e-05
0.00164791
8.11235e-05
-0.000211431
0.00172978
-8.96586e-05
-0.000354899
0.00178785
-0.000222282
-0.000297352
0.00175182
-0.000332221
-7.86241e-05
0.00170973
-0.000385095
0.000133428
0.00167157
-0.000259286
0.000217752
0.00160696
7.70362e-05
7.91086e-05
0.00159519
0.000322321
-0.000122355
0.00164864
0.000251727
-0.000129382
0.00173102
5.16306e-06
-3.36423e-05