/*--------------------------------*- C++ -*----------------------------------*\
  =========                 |
  \\      /  F ield         | OpenFOAM: The Open Source CFD Toolbox
   \\    /   O peration     | Website:  https://openfoam.org
    \\  /    A nd           | Version:  10
     \\/     M anipulation  |
\*---------------------------------------------------------------------------*/
FoamFile
{
    format      ascii;
    class       volVectorField;
    location    "95";
    object      UMean;
}
// * * * * * * * * * * * * * * * * * * * * * * * * * * * * * * * * * * * * * //

dimensions      [0 1 -1 0 0 0 0];

internalField   nonuniform List<vector> 
25600
(
(0.0887443 4.08504e-05 4.8606e-05)
(0.088301 4.13563e-05 0.000381657)
(0.0879845 3.38144e-05 0.000701261)
(0.0878391 1.99865e-05 0.000811183)
(0.0881413 1.23594e-05 0.000815317)
(0.0884027 9.97526e-06 0.00101132)
(0.088736 8.70116e-06 0.00122729)
(0.0891201 6.26195e-06 0.00128076)
(0.0894795 1.48021e-05 0.00116987)
(0.0891412 2.74962e-05 0.00105474)
(0.0886371 3.8364e-05 0.000947411)
(0.0881604 3.45752e-05 0.000812061)
(0.0881205 2.66135e-05 0.000622712)
(0.0879548 1.96943e-05 0.000436821)
(0.0884799 2.2021e-05 0.000267984)
(0.0884565 2.77395e-05 0.000137394)
(0.08884 2.76722e-05 5.03432e-05)
(0.0887269 1.95933e-05 -4.72478e-06)
(0.0892786 8.58162e-06 -0.00023497)
(0.0895774 4.00299e-06 -0.000377259)
(0.0901918 9.36915e-06 -0.000489654)
(0.0902243 1.30426e-05 -0.0005016)
(0.0907726 5.05764e-06 -0.000588858)
(0.0909699 -5.96458e-06 -0.000756202)
(0.0915709 -6.16633e-06 -0.000858193)
(0.0919418 8.30227e-06 -0.000669949)
(0.0923497 2.12383e-05 -0.000378243)
(0.0924496 2.53394e-05 -7.68672e-05)
(0.0928429 2.2463e-05 0.000245094)
(0.0927161 2.76113e-05 0.00055487)
(0.0928082 3.66751e-05 0.000650811)
(0.0920727 4.45799e-05 0.000752186)
(0.0921158 4.17557e-05 0.000627604)
(0.0913147 3.46943e-05 0.000436105)
(0.0912686 3.42743e-05 0.000272423)
(0.0903696 4.08682e-05 0.000294874)
(0.0901403 4.60279e-05 0.000305511)
(0.0893683 4.19359e-05 0.000253794)
(0.0893525 2.88886e-05 3.80152e-05)
(0.0889374 2.76778e-05 -4.14997e-05)
(0.265684 0.000285202 -0.000532037)
(0.26474 0.000293339 -7.17853e-05)
(0.264053 0.000260492 0.000398352)
(0.263461 0.000192855 0.000682147)
(0.263823 0.000137621 0.000798382)
(0.264221 9.8579e-05 0.00123455)
(0.265205 8.44386e-05 0.00162339)
(0.266085 9.7153e-05 0.00170677)
(0.267139 0.000140957 0.00149699)
(0.266275 0.000219712 0.00139769)
(0.265472 0.000275708 0.00136146)
(0.264341 0.000276839 0.00135113)
(0.264248 0.00026617 0.00121701)
(0.263588 0.000226795 0.00103649)
(0.264608 0.000185648 0.000744931)
(0.264486 0.000168538 0.00048478)
(0.265849 0.000153222 0.00018077)
(0.265708 0.000138443 6.06631e-05)
(0.267182 9.71126e-05 -0.000372099)
(0.267867 6.96718e-05 -0.000685216)
(0.269597 7.18353e-05 -0.00119018)
(0.270048 9.6872e-05 -0.00146895)
(0.271845 7.46667e-05 -0.00178218)
(0.272285 5.25522e-05 -0.00192572)
(0.273845 2.1115e-05 -0.00207954)
(0.274722 3.42197e-05 -0.00193317)
(0.276265 6.18928e-05 -0.00166508)
(0.276536 8.72188e-05 -0.00117905)
(0.277722 0.000123426 -0.000527539)
(0.277313 0.000164842 0.000306199)
(0.277846 0.000235729 0.000680724)
(0.275966 0.000266083 0.00102304)
(0.276356 0.000267637 0.00097583)
(0.273999 0.000259861 0.000860331)
(0.273705 0.000251517 0.000598055)
(0.271109 0.000266239 0.000640662)
(0.270624 0.000286591 0.000584443)
(0.268518 0.000305213 0.000428613)
(0.268179 0.000284448 -0.000179998)
(0.266342 0.000274398 -0.000501955)
(0.432924 0.000699862 -0.00116022)
(0.431107 0.000700658 -0.000893041)
(0.430591 0.000654325 -0.000753787)
(0.428785 0.000552879 -0.000595854)
(0.428521 0.000430944 -0.000588843)
(0.427989 0.00030137 -0.000253765)
(0.428903 0.000199824 -7.78214e-05)
(0.429554 0.000184998 -8.7195e-05)
(0.431176 0.000296873 -0.000258478)
(0.430112 0.000473138 7.25949e-06)
(0.430405 0.000607899 0.000508388)
(0.429338 0.000631896 0.00109268)
(0.429594 0.00062734 0.00125845)
(0.428618 0.000572572 0.001285)
(0.429818 0.000480185 0.00105603)
(0.429429 0.000436252 0.00081213)
(0.431131 0.000371747 0.000295942)
(0.430939 0.000352944 -2.20983e-05)
(0.433449 0.000291707 -0.000722781)
(0.434285 0.00026883 -0.00126304)
(0.436819 0.000264456 -0.00205263)
(0.437062 0.000284287 -0.00249958)
(0.440448 0.000240515 -0.00297091)
(0.441193 0.000203961 -0.00297965)
(0.44406 0.000122967 -0.00308517)
(0.444556 0.000111667 -0.00306981)
(0.447574 0.000123124 -0.00299632)
(0.447489 0.000169845 -0.00267275)
(0.449522 0.000250394 -0.00238198)
(0.449066 0.000366604 -0.00156091)
(0.450118 0.000536113 -0.00104864)
(0.44804 0.000621402 -0.00051079)
(0.448738 0.00065313 -0.000412588)
(0.445718 0.000684107 -6.36156e-05)
(0.445163 0.000670209 -0.000175833)
(0.441777 0.000668723 6.63424e-05)
(0.441256 0.000670301 6.20657e-05)
(0.438124 0.000699189 0.000236712)
(0.437865 0.0006797 -0.000406184)
(0.434547 0.000704426 -0.000811986)
(0.568608 0.00111644 -0.00154879)
(0.565307 0.00105688 -0.00153671)
(0.564771 0.000997973 -0.00167635)
(0.561684 0.000939078 -0.00167367)
(0.561208 0.000772966 -0.00203331)
(0.55921 0.000557423 -0.00217604)
(0.559891 0.000383479 -0.0023835)
(0.559457 0.000350927 -0.00245147)
(0.561513 0.000492116 -0.0022927)
(0.560339 0.000730489 -0.00127136)
(0.562434 0.000904333 -9.17303e-05)
(0.562561 0.00101166 0.00095712)
(0.563507 0.00106424 0.00104613)
(0.562083 0.00105783 0.000858781)
(0.56264 0.000955643 0.000544448)
(0.561616 0.00088135 0.000458815)
(0.562738 0.000761242 -7.12581e-05)
(0.562619 0.000685014 -0.000362306)
(0.566025 0.00059515 -0.00127684)
(0.567434 0.000617727 -0.00199073)
(0.569623 0.000661469 -0.00272153)
(0.569392 0.000675473 -0.00281615)
(0.572637 0.000581965 -0.00306274)
(0.573868 0.000543545 -0.00285409)
(0.576773 0.000452869 -0.00282978)
(0.576952 0.000406021 -0.00286389)
(0.580318 0.000389887 -0.00317788)
(0.580511 0.000455106 -0.00330129)
(0.583511 0.000523668 -0.00378192)
(0.583001 0.000700028 -0.00358271)
(0.58468 0.000941275 -0.00336506)
(0.582777 0.00109056 -0.0028409)
(0.584563 0.00115462 -0.00255528)
(0.582263 0.00121436 -0.00166184)
(0.582414 0.00120543 -0.0013996)
(0.579018 0.00120188 -0.000998623)
(0.578347 0.00116609 -0.000901476)
(0.574659 0.00116176 -0.000418096)
(0.574567 0.00111019 -0.000603652)
(0.570511 0.00116318 -0.000966131)
(0.666177 0.00147488 -0.00159157)
(0.661774 0.0013573 -0.00171964)
(0.660835 0.00127739 -0.00159491)
(0.657731 0.00125376 -0.00135038)
(0.658308 0.00103676 -0.00156338)
(0.65631 0.000797194 -0.00177424)
(0.65733 0.000546837 -0.00209487)
(0.65618 0.000502604 -0.00224607)
(0.658512 0.000717336 -0.00200327)
(0.657758 0.00101773 -0.000923928)
(0.66095 0.00116408 0.000170869)
(0.661417 0.00131905 0.00109497)
(0.663532 0.00145073 0.0010481)
(0.661041 0.00154165 0.000449094)
(0.661317 0.00146599 -0.000191589)
(0.658295 0.0013592 -0.000333883)
(0.659063 0.00110733 -0.00052429)
(0.658273 0.000947847 -0.000744242)
(0.661658 0.000860297 -0.00153796)
(0.662561 0.00100076 -0.00227321)
(0.665217 0.00112454 -0.00257401)
(0.663764 0.00118197 -0.00222066)
(0.667045 0.00107332 -0.00227003)
(0.666711 0.00107662 -0.00195432)
(0.669091 0.00106323 -0.0019152)
(0.667782 0.00104389 -0.00193702)
(0.671658 0.00103 -0.0022669)
(0.671539 0.00105772 -0.00264527)
(0.675333 0.00103402 -0.0034549)
(0.674811 0.0011604 -0.00375415)
(0.67775 0.00137988 -0.00392998)
(0.676022 0.00154703 -0.00359096)
(0.67893 0.00159498 -0.00324466)
(0.677527 0.00173947 -0.00203476)
(0.678442 0.00176075 -0.00152056)
(0.675902 0.00182525 -0.000848025)
(0.675253 0.00170264 -0.000662972)
(0.671524 0.00161455 -0.000274375)
(0.671643 0.00149249 -0.00037149)
(0.668031 0.00157649 -0.00085566)
(0.734731 0.00184102 -7.71343e-05)
(0.730336 0.00172321 -0.000101006)
(0.728847 0.00156041 5.01039e-05)
(0.726648 0.00141763 0.000694131)
(0.728139 0.0011166 0.00112702)
(0.72724 0.000853049 0.00154351)
(0.728776 0.000607139 0.0014171)
(0.727372 0.000597294 0.000908292)
(0.729553 0.000828478 0.000261628)
(0.728902 0.00116718 0.000149964)
(0.731822 0.00126859 0.000420106)
(0.731714 0.00143648 0.000866696)
(0.73328 0.00162687 0.000810505)
(0.731176 0.00180219 0.000231188)
(0.731647 0.00175928 -0.000477963)
(0.729411 0.00167512 -0.000387396)
(0.730028 0.00139584 -0.00031195)
(0.727979 0.00124931 -0.000589546)
(0.73 0.00117536 -0.00124161)
(0.729767 0.00136088 -0.00192232)
(0.732941 0.00156941 -0.0019561)
(0.731647 0.00171693 -0.00165913)
(0.733732 0.00163459 -0.00175729)
(0.732519 0.00176855 -0.0017376)
(0.733525 0.00188548 -0.00169875)
(0.731044 0.00189098 -0.0015656)
(0.733682 0.00176605 -0.0015528)
(0.733375 0.00167899 -0.00166428)
(0.736273 0.00154199 -0.00223229)
(0.736358 0.00157168 -0.00236365)
(0.739035 0.00171842 -0.00269331)
(0.738372 0.00183978 -0.00235796)
(0.741543 0.00183121 -0.00212684)
(0.741322 0.0020664 -0.000987386)
(0.74278 0.00214289 -0.000569332)
(0.74166 0.00228048 0.000283077)
(0.741836 0.00216507 0.00062256)
(0.738675 0.00201591 0.000992179)
(0.738515 0.0017807 0.000838742)
(0.736189 0.00188277 0.00063683)
(0.784167 0.00200507 0.00143363)
(0.781466 0.001961 0.00143689)
(0.780674 0.00170277 0.00131698)
(0.778714 0.00138 0.00194686)
(0.779739 0.000932469 0.00285172)
(0.77915 0.000732765 0.00388028)
(0.780712 0.000613865 0.00424582)
(0.779636 0.00072752 0.003815)
(0.780631 0.000982783 0.00238365)
(0.779717 0.00131421 0.00115693)
(0.78083 0.00131396 0.000409687)
(0.77945 0.00143748 0.000364264)
(0.780754 0.00161622 0.00030766)
(0.780382 0.00181945 -4.61566e-05)
(0.782398 0.00180133 -0.000300854)
(0.782076 0.00173222 0.00016917)
(0.783436 0.00162496 0.00058012)
(0.780285 0.0016783 0.00052633)
(0.780471 0.0016767 -0.000270872)
(0.778847 0.00174162 -0.000917901)
(0.781868 0.0019668 -0.000827449)
(0.780591 0.00215277 -0.000277959)
(0.78274 0.0020985 -0.000307693)
(0.780721 0.00230897 -0.000592149)
(0.782118 0.00262698 -0.000918006)
(0.778483 0.00270945 -0.00106282)
(0.780355 0.00251636 -0.00120612)
(0.777922 0.00233251 -0.00111764)
(0.780172 0.00206506 -0.00117372)
(0.779362 0.00200523 -0.0010044)
(0.782529 0.00206254 -0.000979311)
(0.781774 0.00213192 -0.000637663)
(0.784629 0.00212563 -0.000324796)
(0.784425 0.00238271 0.000222602)
(0.786866 0.0024401 0.000450262)
(0.785667 0.00252697 0.000862098)
(0.787279 0.00240109 0.00132895)
(0.785486 0.00224429 0.00152661)
(0.785617 0.00191947 0.0014152)
(0.783898 0.00200213 0.00162489)
(0.820703 0.00185677 0.00154393)
(0.820056 0.00179232 0.00177034)
(0.820457 0.00157494 0.00162763)
(0.819616 0.00129775 0.00198761)
(0.819182 0.000847299 0.00248217)
(0.817981 0.000689007 0.00293185)
(0.819422 0.000639651 0.00300031)
(0.818669 0.000852628 0.00277641)
(0.819358 0.00114368 0.00173343)
(0.818112 0.00147268 0.000422436)
(0.819205 0.00153999 -0.00051273)
(0.817528 0.00163939 -0.00061393)
(0.818976 0.00171731 -0.000724692)
(0.818406 0.00186389 -0.000665915)
(0.820978 0.00182891 -0.000536468)
(0.820595 0.00178652 0.000350744)
(0.822039 0.00182506 0.00110892)
(0.819366 0.00203076 0.00172034)
(0.819642 0.00206709 0.00125942)
(0.817361 0.00208115 0.000666036)
(0.81899 0.00228835 0.000589878)
(0.817479 0.00246346 0.00128623)
(0.819184 0.00242585 0.00164554)
(0.817792 0.00261453 0.0013592)
(0.819637 0.00309538 0.00085373)
(0.816325 0.00339115 0.000397705)
(0.81698 0.00332446 3.57132e-05)
(0.814282 0.00321734 0.000114383)
(0.814771 0.00290513 4.28493e-05)
(0.81336 0.00270948 0.000219621)
(0.815539 0.00259035 9.14659e-05)
(0.815635 0.0025485 0.000255155)
(0.817446 0.00248468 0.000469052)
(0.818216 0.00268128 0.000638978)
(0.819715 0.00277358 0.000527717)
(0.819674 0.00282724 0.000679635)
(0.82137 0.00264792 0.000858466)
(0.820988 0.00247638 0.0011077)
(0.821129 0.00204066 0.00103264)
(0.820099 0.00197343 0.00138128)
(0.85149 0.00180595 0.000260729)
(0.850621 0.00161003 0.000475364)
(0.851435 0.00136375 0.000290441)
(0.850705 0.00119306 0.000473382)
(0.850653 0.000874053 0.000615142)
(0.848647 0.000663953 0.000431224)
(0.849794 0.000568791 8.12879e-05)
(0.848898 0.000840469 2.60592e-05)
(0.850256 0.00115556 -0.00051621)
(0.848987 0.00141627 -0.00138375)
(0.850569 0.0015105 -0.00213617)
(0.849501 0.00161704 -0.00213868)
(0.851017 0.00166519 -0.00182218)
(0.849446 0.00178642 -0.00147929)
(0.850984 0.00182509 -0.00103339)
(0.84941 0.00192402 8.59712e-05)
(0.850696 0.00213618 0.00108548)
(0.848917 0.00242583 0.00209465)
(0.849847 0.00247698 0.00223752)
(0.848097 0.00248356 0.00193314)
(0.849088 0.00271306 0.00157475)
(0.847352 0.00295203 0.00190005)
(0.847659 0.00295483 0.00226059)
(0.846634 0.00315513 0.00226849)
(0.848308 0.00363724 0.00194765)
(0.846997 0.00401607 0.00181327)
(0.847073 0.00394902 0.00175006)
(0.84543 0.00389791 0.00192015)
(0.845156 0.00365066 0.00177499)
(0.843013 0.0034594 0.00155848)
(0.843812 0.00318912 0.00121185)
(0.844223 0.00307833 0.001167)
(0.845787 0.00281944 0.00114407)
(0.846728 0.00282691 0.000975506)
(0.848622 0.00290129 0.000479348)
(0.848764 0.00297133 0.000177941)
(0.850199 0.00277722 -0.000183993)
(0.850727 0.00264134 -0.000172863)
(0.851562 0.00221905 -0.000256583)
(0.850389 0.00205615 2.10377e-05)
(0.875518 0.00152188 -0.00103189)
(0.874468 0.0014036 -0.00119398)
(0.874674 0.0011153 -0.00143382)
(0.873546 0.00104446 -0.00132992)
(0.873944 0.000828458 -0.00114567)
(0.871384 0.000575676 -0.00111964)
(0.871781 0.000399899 -0.00112679)
(0.871051 0.000608493 -0.000958814)
(0.873148 0.000926203 -0.00115952)
(0.872816 0.001205 -0.00203657)
(0.87443 0.00124553 -0.0030417)
(0.87363 0.00129038 -0.00341341)
(0.87487 0.00138817 -0.00313943)
(0.873023 0.00155415 -0.00282955)
(0.874238 0.00170309 -0.00256917)
(0.872668 0.00190443 -0.00159087)
(0.873201 0.00213534 -0.000398067)
(0.871637 0.00241887 0.000784601)
(0.872746 0.00249858 0.00140858)
(0.871258 0.00254507 0.00155231)
(0.872147 0.00274653 0.00131773)
(0.870591 0.00311104 0.00133429)
(0.870599 0.00324359 0.00136212)
(0.869166 0.00342778 0.00148254)
(0.869744 0.00377678 0.00140616)
(0.869408 0.00409855 0.00158813)
(0.87 0.00404613 0.0018354)
(0.869264 0.00395498 0.00212721)
(0.869487 0.00376867 0.00208493)
(0.866935 0.00359641 0.00217884)
(0.866075 0.0032312 0.00243945)
(0.865841 0.00311295 0.00295828)
(0.867891 0.00290598 0.00334305)
(0.868671 0.0028369 0.00325156)
(0.87103 0.0027979 0.00245919)
(0.871742 0.00276763 0.00155124)
(0.873389 0.00244766 0.000595966)
(0.873729 0.00224855 -2.4158e-05)
(0.875215 0.00191301 -0.00059343)
(0.874217 0.00175102 -0.000933504)
(0.891389 0.00108649 -0.00105673)
(0.890955 0.000982465 -0.00137188)
(0.890904 0.000763299 -0.00164422)
(0.889862 0.00078919 -0.00147202)
(0.890096 0.000816282 -0.00110371)
(0.888397 0.000725562 -0.000785147)
(0.888179 0.000509879 -0.000476547)
(0.887352 0.000586346 -0.000212948)
(0.888589 0.000747057 -9.52356e-05)
(0.888802 0.000918762 -0.000753258)
(0.890445 0.000915226 -0.00176986)
(0.890522 0.00102081 -0.00234882)
(0.892018 0.00118023 -0.00226597)
(0.891472 0.00135208 -0.00221322)
(0.892494 0.00144905 -0.00241284)
(0.891752 0.00170188 -0.00212614)
(0.891575 0.00188449 -0.00118503)
(0.889941 0.00209776 1.6753e-06)
(0.89043 0.00221273 0.000865309)
(0.889546 0.00234045 0.00137181)
(0.890129 0.00252661 0.00139637)
(0.889941 0.0029106 0.00123349)
(0.890934 0.0030784 0.00107538)
(0.89033 0.00331941 0.0010629)
(0.889854 0.0036421 0.00107547)
(0.887756 0.00395477 0.00122526)
(0.887144 0.00391386 0.00150757)
(0.886313 0.00388281 0.00170447)
(0.886953 0.00377857 0.00151841)
(0.885888 0.00376455 0.0014978)
(0.885029 0.00338941 0.00152106)
(0.884403 0.00304452 0.00179373)
(0.886088 0.0026947 0.00236366)
(0.886781 0.00257534 0.00271288)
(0.888414 0.00253614 0.00236019)
(0.889061 0.00258252 0.00171495)
(0.890318 0.00231901 0.00103172)
(0.890117 0.00209032 0.000478777)
(0.890959 0.00173183 -0.000103107)
(0.890355 0.00143291 -0.000748445)
(0.904291 0.00125887 -0.00071501)
(0.904232 0.00110866 -0.000674545)
(0.904497 0.000901435 -0.00103417)
(0.90413 0.000962045 -0.00112095)
(0.904498 0.00114458 -0.000893425)
(0.90355 0.00124517 -0.000369368)
(0.903202 0.00110724 0.000168011)
(0.902089 0.00101857 0.000567154)
(0.901574 0.000941017 0.000916442)
(0.900532 0.000841396 0.000786083)
(0.90115 0.000657413 -0.000170795)
(0.901438 0.000627153 -0.00109716)
(0.90311 0.000689101 -0.00156623)
(0.903869 0.000844487 -0.00163227)
(0.904944 0.000906738 -0.00166213)
(0.904986 0.00113286 -0.0017425)
(0.905437 0.00135275 -0.001397)
(0.904616 0.00163481 -0.000468077)
(0.904835 0.00177506 0.000271315)
(0.90468 0.00191816 0.000804845)
(0.905115 0.00203467 0.00109886)
(0.905572 0.00232782 0.00117084)
(0.90693 0.0025116 0.00111085)
(0.907126 0.00284817 0.00113468)
(0.907325 0.00322437 0.00101833)
(0.906057 0.0035805 0.00114964)
(0.904938 0.00353811 0.00133722)
(0.903842 0.0035915 0.00152931)
(0.903606 0.00361304 0.00119784)
(0.902981 0.00378814 0.00081023)
(0.902524 0.00363771 0.000197103)
(0.90166 0.00324307 -0.000247365)
(0.90191 0.00272822 -0.000374534)
(0.901477 0.00245214 -0.000164222)
(0.901486 0.00230642 -0.000159982)
(0.901396 0.00236404 -0.000134046)
(0.902168 0.00226191 -0.000139827)
(0.902318 0.00223503 -3.18338e-05)
(0.903313 0.0020009 -0.000298152)
(0.903465 0.00169847 -0.000681777)
(0.914719 0.00151519 -0.00149995)
(0.915049 0.00145474 -0.00123303)
(0.915834 0.00126457 -0.00145181)
(0.916025 0.00117628 -0.00178012)
(0.916827 0.0012338 -0.001871)
(0.916719 0.00133588 -0.0013579)
(0.916799 0.00124635 -0.000590836)
(0.916292 0.00118679 0.000111605)
(0.915764 0.00108042 0.000828688)
(0.914174 0.000990384 0.0014226)
(0.913327 0.000738062 0.00120169)
(0.912592 0.000558481 0.000402493)
(0.913293 0.000399029 -0.000492243)
(0.914192 0.000518741 -0.00100153)
(0.915493 0.000620814 -0.00121686)
(0.916129 0.000851171 -0.00142092)
(0.917252 0.000983719 -0.00172551)
(0.917448 0.00119482 -0.00157504)
(0.917982 0.00124739 -0.00139589)
(0.917964 0.00141378 -0.00110165)
(0.918009 0.00150149 -0.000855334)
(0.917558 0.00164514 -0.000792949)
(0.917941 0.00175648 -0.000938408)
(0.917963 0.0021347 -0.000932836)
(0.918652 0.00250422 -0.00109065)
(0.918881 0.00281792 -0.000994035)
(0.918997 0.00270848 -0.000715981)
(0.918692 0.00274124 -0.000131055)
(0.918287 0.00282033 0.000124459)
(0.917553 0.00307878 8.67335e-05)
(0.917418 0.00314999 -0.000346351)
(0.91663 0.00308488 -0.000823829)
(0.915972 0.00279754 -0.00122473)
(0.914406 0.00265382 -0.00139413)
(0.913048 0.00248136 -0.00159526)
(0.911761 0.00233159 -0.00158914)
(0.91158 0.00204394 -0.00142771)
(0.911619 0.00198948 -0.00102912)
(0.912979 0.0018888 -0.00103995)
(0.913794 0.00177009 -0.00137974)
(0.924274 0.0011228 -0.00179848)
(0.924345 0.00110819 -0.00164271)
(0.924942 0.00101216 -0.00155018)
(0.925141 0.00098834 -0.00170493)
(0.925701 0.0010446 -0.0020106)
(0.925936 0.00120842 -0.0020414)
(0.926258 0.00123194 -0.00173759)
(0.926401 0.00132394 -0.00127535)
(0.926897 0.00133594 -0.000704278)
(0.9267 0.00136635 9.31982e-05)
(0.926171 0.00121385 0.000583249)
(0.925542 0.00106817 0.000732726)
(0.925683 0.000790851 0.000466245)
(0.926077 0.000708672 0.000125299)
(0.92685 0.000746826 -0.00025596)
(0.927548 0.000949581 -0.000646883)
(0.928619 0.000982934 -0.00143215)
(0.929114 0.0010736 -0.00217162)
(0.929788 0.00104118 -0.00288288)
(0.929924 0.00121032 -0.00318745)
(0.92994 0.00132943 -0.00296646)
(0.929186 0.00140329 -0.00266393)
(0.928692 0.00134704 -0.0026349)
(0.928106 0.00161807 -0.00267485)
(0.928088 0.00192266 -0.0027704)
(0.928016 0.00220236 -0.0027035)
(0.928258 0.00210678 -0.00271384)
(0.928167 0.00217812 -0.00252594)
(0.927957 0.00227359 -0.00219796)
(0.927283 0.00245019 -0.0017711)
(0.927414 0.00250615 -0.00162735)
(0.927352 0.00252768 -0.00157278)
(0.927431 0.00245226 -0.00150602)
(0.926463 0.00256692 -0.00140845)
(0.925414 0.00256872 -0.00157214)
(0.924214 0.00244607 -0.0016079)
(0.923554 0.00204983 -0.00152383)
(0.92277 0.00176648 -0.00127705)
(0.923319 0.00144289 -0.00126515)
(0.923804 0.00130621 -0.00151688)
(0.9357 0.00120512 -0.00143441)
(0.93529 0.00107098 -0.00144965)
(0.9352 0.000799925 -0.00128929)
(0.934981 0.000641426 -0.00136084)
(0.935058 0.000515062 -0.00177487)
(0.935045 0.000569231 -0.00233228)
(0.935165 0.000596929 -0.00262891)
(0.935043 0.000763307 -0.00273025)
(0.935417 0.000885566 -0.00270628)
(0.935771 0.00110326 -0.00233093)
(0.936031 0.00118282 -0.00180108)
(0.936061 0.00118502 -0.00140284)
(0.936747 0.000954099 -0.0011857)
(0.937301 0.000834529 -0.00108516)
(0.937663 0.000829995 -0.00107656)
(0.937834 0.00102199 -0.00119112)
(0.938307 0.00113369 -0.00166102)
(0.938078 0.00123836 -0.00225635)
(0.938204 0.00110615 -0.00285379)
(0.938168 0.00114047 -0.00344175)
(0.938561 0.00117064 -0.00350777)
(0.938404 0.00121631 -0.00326347)
(0.938326 0.00112776 -0.00298873)
(0.938038 0.00131488 -0.00278976)
(0.938098 0.00154635 -0.00260145)
(0.937566 0.00169558 -0.00243472)
(0.937169 0.00156198 -0.00238272)
(0.936532 0.00160108 -0.00254848)
(0.936323 0.00166903 -0.00264613)
(0.935711 0.00180243 -0.00243991)
(0.935835 0.00174635 -0.00215728)
(0.935952 0.00169888 -0.00192153)
(0.936396 0.00165949 -0.00165059)
(0.93596 0.00185122 -0.00141464)
(0.93554 0.00195929 -0.00139461)
(0.935266 0.00200784 -0.00134793)
(0.935267 0.00190599 -0.0011258)
(0.934893 0.00184892 -0.000892698)
(0.935243 0.00154802 -0.000910036)
(0.9355 0.00137378 -0.001151)
(0.944682 0.00123196 -0.000604766)
(0.944497 0.00117824 -0.00077314)
(0.944117 0.000939242 -0.000693629)
(0.943327 0.000760554 -0.000678704)
(0.94303 0.00056959 -0.000880667)
(0.94264 0.000499367 -0.00141623)
(0.942545 0.000457776 -0.0018467)
(0.942115 0.000619543 -0.00220653)
(0.942208 0.000774838 -0.00250378)
(0.94221 0.00102166 -0.00265112)
(0.942564 0.00126359 -0.00246234)
(0.942837 0.00142917 -0.00227152)
(0.943782 0.00130302 -0.00210127)
(0.944792 0.00117698 -0.00195628)
(0.945585 0.00119982 -0.00176054)
(0.945829 0.00140089 -0.00159884)
(0.946201 0.00158563 -0.00158868)
(0.945921 0.00172089 -0.00180497)
(0.945746 0.00161421 -0.00203127)
(0.945409 0.00160123 -0.00245099)
(0.945404 0.00152384 -0.00274314)
(0.945235 0.00142318 -0.00282107)
(0.945256 0.0012439 -0.00263748)
(0.945076 0.00128758 -0.00232439)
(0.945426 0.00147074 -0.00183774)
(0.945491 0.00161874 -0.00147392)
(0.945337 0.00151631 -0.00121455)
(0.94475 0.00147156 -0.00121087)
(0.944649 0.00140878 -0.0013364)
(0.944504 0.00142396 -0.00144288)
(0.944729 0.00127532 -0.00132957)
(0.945013 0.00109588 -0.00122075)
(0.945457 0.000982626 -0.00108073)
(0.945296 0.00107897 -0.000991935)
(0.944723 0.00114304 -0.000944514)
(0.94418 0.00118902 -0.000947808)
(0.944025 0.0011849 -0.000732761)
(0.943766 0.001324 -0.000427502)
(0.944098 0.00126385 -0.000237512)
(0.944255 0.00126781 -0.000396152)
(0.954234 0.000503421 0.000180229)
(0.954053 0.000503669 -3.92964e-05)
(0.953949 0.000398103 -0.00013992)
(0.953255 0.000333796 -0.00020974)
(0.952901 0.000208878 -0.000255197)
(0.952383 0.000146849 -0.000437806)
(0.952125 8.70398e-05 -0.00050857)
(0.951523 0.000182432 -0.000541077)
(0.951177 0.00032185 -0.000570986)
(0.950697 0.00055789 -0.000680937)
(0.950582 0.000844141 -0.000678314)
(0.950513 0.00116434 -0.000667372)
(0.950926 0.00120485 -0.000513433)
(0.951487 0.00105672 -0.000375235)
(0.952182 0.00100309 -0.000182229)
(0.952566 0.00112078 3.95561e-05)
(0.953237 0.00119955 0.000370383)
(0.953514 0.00131395 0.000566797)
(0.953783 0.0012921 0.000615512)
(0.953743 0.00136579 0.000324358)
(0.953666 0.00137853 1.25175e-05)
(0.953406 0.00127703 -0.000337041)
(0.95335 0.00105538 -0.000479002)
(0.952918 0.000958559 -0.000456573)
(0.952813 0.00100273 -0.000164953)
(0.952926 0.00112217 0.000112397)
(0.953302 0.00107429 0.000277164)
(0.953243 0.0009764 0.000212742)
(0.953338 0.000797548 1.30711e-05)
(0.95323 0.000797487 -0.000212714)
(0.953506 0.00070467 -0.000263497)
(0.953751 0.000589559 -0.000280208)
(0.954351 0.000513374 -0.000212685)
(0.954644 0.000617393 -0.000206835)
(0.954869 0.000725689 -0.000252357)
(0.954729 0.000787367 -0.000371141)
(0.954755 0.000663795 -0.000298177)
(0.954342 0.00062981 -6.56257e-05)
(0.954428 0.000521976 0.000222186)
(0.954186 0.000506761 0.000262866)
(0.965256 0.000588208 0.000703391)
(0.965097 0.000642641 0.000664949)
(0.965291 0.000630398 0.000609151)
(0.965076 0.000609076 0.000516519)
(0.965129 0.000494598 0.000448462)
(0.964896 0.000421642 0.000354068)
(0.964853 0.000365809 0.000430938)
(0.964348 0.000372556 0.00060063)
(0.963967 0.000390836 0.000872093)
(0.963311 0.00046528 0.00107986)
(0.962915 0.000549898 0.00118739)
(0.962347 0.00076887 0.00117707)
(0.962085 0.000880379 0.00128)
(0.961691 0.000805958 0.00143993)
(0.961551 0.00069328 0.00160764)
(0.961239 0.000710967 0.00176569)
(0.961697 0.000662985 0.00204306)
(0.962103 0.000616801 0.00233639)
(0.962541 0.00049833 0.00254149)
(0.962544 0.00045885 0.00248736)
(0.962739 0.00052215 0.00246224)
(0.962819 0.000549444 0.00234376)
(0.963194 0.000426536 0.00215471)
(0.963156 0.000330714 0.00202125)
(0.963461 0.000326711 0.00202728)
(0.963551 0.000387813 0.00210367)
(0.964175 0.00034805 0.00217523)
(0.964409 0.000262207 0.00207612)
(0.964721 8.19813e-05 0.00184045)
(0.964476 8.28629e-05 0.00150327)
(0.964439 6.11071e-05 0.0013217)
(0.964097 2.69841e-05 0.00120331)
(0.964173 3.24653e-05 0.00117808)
(0.964179 0.000171031 0.001086)
(0.9644 0.000331598 0.000958161)
(0.964359 0.000511239 0.00077398)
(0.964719 0.000527008 0.000666347)
(0.964815 0.000549144 0.00062589)
(0.965164 0.000498503 0.000722764)
(0.965214 0.000520354 0.000707231)
(0.97523 0.000526719 0.00141121)
(0.975303 0.000517218 0.00133315)
(0.975732 0.000456282 0.00121425)
(0.9759 0.000406078 0.00107402)
(0.976463 0.000291739 0.000920727)
(0.976665 0.00019735 0.000787063)
(0.977014 0.000102088 0.000816249)
(0.976932 3.61303e-05 0.000946866)
(0.97705 -1.72396e-05 0.00115929)
(0.976893 -3.35056e-05 0.00138443)
(0.976853 -0.000127742 0.00156537)
(0.976383 -0.000179426 0.00166638)
(0.976045 -0.000207578 0.0017932)
(0.975283 -0.000304814 0.00183861)
(0.974659 -0.000451956 0.00179575)
(0.973607 -0.000458735 0.00180717)
(0.973164 -0.000487917 0.00193046)
(0.97295 -0.000566166 0.00208458)
(0.973104 -0.000641062 0.00219883)
(0.972913 -0.000656461 0.00224015)
(0.97302 -0.000590926 0.00245351)
(0.973064 -0.000527068 0.00261231)
(0.973487 -0.000564228 0.00254501)
(0.973602 -0.000579065 0.00244761)
(0.974077 -0.000526879 0.00241583)
(0.974242 -0.000427531 0.00247176)
(0.974732 -0.00038393 0.00259442)
(0.97498 -0.000375895 0.00268)
(0.975479 -0.000456001 0.00264513)
(0.975512 -0.000427095 0.00247906)
(0.975666 -0.000389093 0.00233401)
(0.975327 -0.000373633 0.00216751)
(0.975186 -0.000336772 0.00209951)
(0.97477 -0.000200762 0.00203796)
(0.974593 -4.97513e-05 0.00194768)
(0.974069 0.000163923 0.0018647)
(0.974043 0.000281755 0.00180254)
(0.974152 0.000393095 0.00170975)
(0.974665 0.000441792 0.00166268)
(0.974884 0.000487444 0.00151902)
(0.985261 0.000166466 0.00112069)
(0.985139 0.000128222 0.00107136)
(0.985342 3.26879e-05 0.000893145)
(0.985464 -3.88705e-05 0.000640353)
(0.986086 -0.000162645 0.000404797)
(0.98646 -0.000284588 0.000176618)
(0.986997 -0.000386434 0.000100711)
(0.987152 -0.000437626 0.000104052)
(0.987431 -0.000465649 0.000137899)
(0.987494 -0.000467462 0.000187452)
(0.987743 -0.00057712 0.000284447)
(0.987618 -0.000720658 0.000375389)
(0.987699 -0.00083189 0.000578389)
(0.987329 -0.000935431 0.000767988)
(0.987047 -0.001054 0.000811707)
(0.986255 -0.00105157 0.000864673)
(0.985719 -0.00106 0.00100177)
(0.98531 -0.00111626 0.00109499)
(0.985305 -0.00115109 0.001142)
(0.985018 -0.00112392 0.00110851)
(0.984941 -0.0010637 0.00121236)
(0.984609 -0.000971739 0.00135748)
(0.984512 -0.000945494 0.00137475)
(0.984164 -0.000927968 0.00134022)
(0.984109 -0.000899405 0.00137313)
(0.983833 -0.000826309 0.00143273)
(0.983859 -0.000770481 0.00149368)
(0.983701 -0.000664874 0.00152308)
(0.983896 -0.000619169 0.00148143)
(0.983871 -0.000492831 0.00136434)
(0.984166 -0.000381919 0.0013047)
(0.984172 -0.000324343 0.0011932)
(0.984429 -0.000254688 0.00116272)
(0.984395 -0.000109318 0.00121758)
(0.984609 1.12419e-05 0.00129723)
(0.98447 0.000201198 0.0013587)
(0.984506 0.000289255 0.00139371)
(0.984479 0.000285503 0.00133942)
(0.984886 0.000235756 0.00131737)
(0.985022 0.000202664 0.00119501)
(0.995597 0.000251493 -0.000397691)
(0.995355 0.000273989 -0.00020975)
(0.995258 0.000247806 -9.13697e-05)
(0.995136 0.000211539 -9.09452e-05)
(0.995425 0.000122415 -5.16348e-05)
(0.995612 3.56836e-05 -4.09601e-05)
(0.996062 -6.56146e-05 5.12388e-05)
(0.996294 -0.000102191 0.0001709)
(0.996515 -0.000110377 0.000237067)
(0.996558 -7.75242e-05 0.000241977)
(0.996878 -0.000130295 0.00027454)
(0.996982 -0.00024162 0.000336782)
(0.997328 -0.000383899 0.000493253)
(0.997371 -0.000499009 0.0006622)
(0.997565 -0.000639056 0.000717527)
(0.997447 -0.000648389 0.000729519)
(0.997343 -0.000643463 0.000763627)
(0.997246 -0.00071506 0.000702844)
(0.99746 -0.00081431 0.000628369)
(0.997405 -0.000823974 0.000513078)
(0.997476 -0.000783509 0.000478346)
(0.997264 -0.000646324 0.000504362)
(0.997189 -0.000522038 0.00047351)
(0.996818 -0.000391235 0.000378978)
(0.996521 -0.000294389 0.000322493)
(0.995992 -0.000183107 0.000284977)
(0.995759 -0.000128171 0.000226076)
(0.995385 -6.13917e-05 0.000189288)
(0.99519 -5.03145e-05 0.000140365)
(0.994779 2.1099e-05 -2.06286e-06)
(0.994695 0.000106367 -0.000120549)
(0.994487 0.000167433 -0.000262426)
(0.994603 0.000237189 -0.000355329)
(0.994555 0.000340221 -0.000382913)
(0.994761 0.000367193 -0.000375135)
(0.994821 0.00043686 -0.000346374)
(0.995023 0.00049373 -0.000306483)
(0.995055 0.000453387 -0.000371448)
(0.995316 0.000360523 -0.000399074)
(0.995406 0.000293407 -0.000445346)
(1.00546 0.000540192 -0.00176837)
(1.00514 0.000574348 -0.00160865)
(1.00495 0.000594455 -0.00140329)
(1.00464 0.000583724 -0.00129707)
(1.00457 0.000507618 -0.00112624)
(1.00437 0.000435596 -0.000944288)
(1.00449 0.000350161 -0.000732735)
(1.00462 0.000338752 -0.000511982)
(1.00484 0.000382977 -0.000341401)
(1.00485 0.000450084 -0.000295456)
(1.00513 0.000465946 -0.00032027)
(1.00527 0.000432504 -0.000339917)
(1.00565 0.000291096 -0.000282296)
(1.00583 0.000153212 -0.000198012)
(1.0061 8.4921e-07 -0.000156081)
(1.00621 -5.344e-05 -0.000156441)