/*--------------------------------*- C++ -*----------------------------------*\
  =========                 |
  \\      /  F ield         | OpenFOAM: The Open Source CFD Toolbox
   \\    /   O peration     | Website:  https://openfoam.org
    \\  /    A nd           | Version:  10
     \\/     M anipulation  |
\*---------------------------------------------------------------------------*/
FoamFile
{
    format      ascii;
    class       volVectorField;
    location    "40";
    object      U_0;
}
// * * * * * * * * * * * * * * * * * * * * * * * * * * * * * * * * * * * * * //

dimensions      [0 1 -1 0 0 0 0];

internalField   nonuniform List<vector> 
25600
(
(0.017346 -1.9384e-08 -3.75144e-08)
(0.0173458 1.08946e-08 3.17083e-07)
(0.0173457 5.86523e-09 -9.83506e-08)
(0.017346 -1.84733e-08 2.1432e-07)
(0.0173458 2.57862e-08 4.68084e-08)
(0.0173459 -1.88024e-08 -1.04676e-07)
(0.0173462 5.85584e-09 2.0037e-07)
(0.0173457 1.38853e-08 -3.24729e-07)
(0.0173464 -2.52842e-08 7.09475e-08)
(0.0173459 2.88674e-08 -2.72852e-07)
(0.0173462 -1.62832e-08 -2.88963e-07)
(0.0173464 -1.62975e-10 -1.53281e-07)
(0.0173461 1.75013e-08 -5.80024e-07)
(0.0173464 -2.21138e-08 -2.23943e-07)
(0.0173465 1.69836e-08 -5.95865e-07)
(0.0173461 -2.0698e-09 -5.34683e-07)
(0.0173467 -1.12366e-08 -4.36802e-07)
(0.0173462 1.85932e-08 -8.10072e-07)
(0.0173465 -1.55873e-08 -4.32402e-07)
(0.0173465 5.61409e-09 -7.63389e-07)
(0.0173463 5.38074e-09 -6.70559e-07)
(0.0173464 -1.31155e-08 -5.31481e-07)
(0.0173464 1.33602e-08 -8.34891e-07)
(0.0173462 -1.02928e-08 -4.50417e-07)
(0.0173464 3.63177e-09 -7.16834e-07)
(0.0173461 -6.1652e-10 -5.37128e-07)
(0.0173463 -2.47321e-09 -4.6241e-07)
(0.0173461 2.37627e-09 -5.88228e-07)
(0.0173462 -6.67725e-09 -2.93194e-07)
(0.0173459 1.01057e-08 -4.49191e-07)
(0.0173462 -1.51235e-08 -2.69995e-07)
(0.0173458 1.31227e-08 -2.21237e-07)
(0.0173459 -6.90578e-09 -2.20757e-07)
(0.0173459 -5.38335e-09 -9.57203e-08)
(0.0173457 1.58546e-08 -5.60894e-08)
(0.0173459 -2.18049e-08 -8.15205e-08)
(0.0173459 1.82871e-08 1.14343e-07)
(0.0173455 -6.67833e-09 -2.32821e-08)
(0.0173461 -7.85529e-09 1.08525e-07)
(0.0173455 1.92018e-08 1.6786e-07)
(0.0530791 -7.97222e-08 8.81873e-08)
(0.0530783 6.62251e-08 7.46519e-07)
(0.0530785 7.05213e-09 -1.82826e-07)
(0.053079 -5.67284e-08 6.16119e-07)
(0.0530786 1.06571e-07 -2.74008e-08)
(0.0530789 -8.52629e-08 -1.0652e-07)
(0.0530795 4.93238e-08 2.80823e-07)
(0.0530786 3.51748e-08 -8.03007e-07)
(0.0530802 -8.80796e-08 6.8897e-08)
(0.0530789 1.23946e-07 -9.29975e-07)
(0.05308 -8.56927e-08 -7.38632e-07)
(0.05308 2.54761e-08 -7.64352e-07)
(0.0530797 5.40327e-08 -1.55616e-06)
(0.0530804 -8.86956e-08 -8.68874e-07)
(0.0530804 8.18468e-08 -1.82924e-06)
(0.0530799 -2.86715e-08 -1.50524e-06)
(0.0530811 -3.15931e-08 -1.57981e-06)
(0.0530799 7.07553e-08 -2.22114e-06)
(0.0530809 -7.31712e-08 -1.46514e-06)
(0.0530804 3.51009e-08 -2.30165e-06)
(0.0530805 8.07222e-09 -1.87435e-06)
(0.0530805 -4.93646e-08 -1.81118e-06)
(0.0530804 5.46903e-08 -2.27709e-06)
(0.0530801 -4.84559e-08 -1.46626e-06)
(0.0530805 1.87152e-08 -2.1002e-06)
(0.0530797 -5.2478e-09 -1.49296e-06)
(0.0530802 -9.40844e-09 -1.50026e-06)
(0.0530795 6.84424e-09 -1.5563e-06)
(0.0530799 -1.89714e-08 -9.46929e-07)
(0.053079 3.3274e-08 -1.26124e-06)
(0.0530798 -5.59987e-08 -7.19578e-07)
(0.0530786 6.10598e-08 -6.87464e-07)
(0.0530792 -4.02187e-08 -5.46529e-07)
(0.0530788 -1.23534e-09 -2.59587e-07)
(0.0530786 5.41022e-08 -1.64956e-07)
(0.0530787 -8.21382e-08 -1.212e-07)
(0.0530786 8.87192e-08 2.87806e-07)
(0.0530781 -4.28124e-08 -7.31992e-09)
(0.0530791 -7.90727e-09 3.93874e-07)
(0.0530777 7.18169e-08 3.72107e-07)
(0.091099 -1.60741e-07 3.09748e-07)
(0.0910974 1.62359e-07 1.04924e-06)
(0.0910983 1.27874e-10 -1.45522e-07)
(0.0910985 -9.41477e-08 9.4659e-07)
(0.0910983 2.26381e-07 -1.081e-07)
(0.0910988 -1.83761e-07 -1.65844e-08)
(0.0910994 1.33543e-07 2.08014e-07)
(0.0910984 5.34867e-08 -1.12011e-06)
(0.0911006 -1.63337e-07 -6.24501e-08)
(0.0910987 2.66121e-07 -1.54384e-06)
(0.0911007 -1.97081e-07 -1.16058e-06)
(0.0911002 8.55965e-08 -1.49425e-06)
(0.0911004 9.0862e-08 -2.40103e-06)
(0.091101 -1.7765e-07 -1.66573e-06)
(0.0911011 1.82308e-07 -3.00214e-06)
(0.0911006 -8.24501e-08 -2.49339e-06)
(0.0911022 -4.80791e-08 -2.83459e-06)
(0.0911004 1.378e-07 -3.52333e-06)
(0.0911022 -1.62687e-07 -2.65791e-06)
(0.091101 8.63747e-08 -3.795e-06)
(0.0911016 -3.01569e-09 -3.09976e-06)
(0.0911013 -9.78714e-08 -3.20912e-06)
(0.0911014 1.11602e-07 -3.62534e-06)
(0.0911008 -1.12962e-07 -2.63435e-06)
(0.0911013 4.54105e-08 -3.43996e-06)
(0.0911002 -2.06483e-08 -2.49364e-06)
(0.0911009 -1.9378e-08 -2.61676e-06)
(0.0910998 1.08113e-08 -2.46614e-06)
(0.0911004 -3.70828e-08 -1.72018e-06)
(0.091099 6.39432e-08 -2.03422e-06)
(0.0911002 -1.14459e-07 -1.21179e-06)
(0.0910983 1.34838e-07 -1.19253e-06)
(0.0910994 -9.65927e-08 -8.52639e-07)
(0.0910983 1.93318e-08 -4.6911e-07)
(0.0910985 1.01675e-07 -2.8309e-07)
(0.0910983 -1.62345e-07 -1.39642e-07)
(0.0910982 2.00593e-07 4.00008e-07)
(0.0910975 -1.04248e-07 5.20071e-08)
(0.0910988 1.31124e-08 6.62764e-07)
(0.0910969 1.42468e-07 5.32447e-07)
(0.131586 -2.49242e-07 5.44094e-07)
(0.131584 2.9198e-07 1.29057e-06)
(0.131586 -1.08155e-08 -1.79995e-08)
(0.131585 -1.22603e-07 1.22234e-06)
(0.131586 3.74428e-07 -1.08311e-07)
(0.131586 -2.99749e-07 1.16887e-07)
(0.131587 2.51858e-07 1.34946e-07)
(0.131586 6.87973e-08 -1.29147e-06)
(0.131588 -2.39268e-07 -2.2726e-07)
(0.131586 4.39934e-07 -2.01463e-06)
(0.131589 -3.35966e-07 -1.55044e-06)
(0.131588 1.74348e-07 -2.16952e-06)
(0.131589 1.23911e-07 -3.12473e-06)
(0.131589 -2.77847e-07 -2.48426e-06)
(0.13159 3.05612e-07 -4.04247e-06)
(0.131589 -1.5725e-07 -3.48461e-06)
(0.131591 -6.00168e-08 -4.05192e-06)
(0.131589 2.10613e-07 -4.75411e-06)
(0.131591 -2.74963e-07 -3.91212e-06)
(0.131589 1.5183e-07 -5.21236e-06)
(0.131591 -2.82494e-08 -4.37893e-06)
(0.13159 -1.54454e-07 -4.6327e-06)
(0.13159 1.75445e-07 -4.96327e-06)
(0.131589 -1.97577e-07 -3.91825e-06)
(0.13159 7.92e-08 -4.7674e-06)
(0.131589 -4.59618e-08 -3.61001e-06)
(0.131589 -3.23588e-08 -3.79439e-06)
(0.131588 1.32678e-08 -3.43667e-06)
(0.131589 -5.87329e-08 -2.62687e-06)
(0.131587 9.83653e-08 -2.84657e-06)
(0.131588 -1.82658e-07 -1.83385e-06)
(0.131586 2.27011e-07 -1.7728e-06)
(0.131587 -1.68352e-07 -1.24192e-06)
(0.131586 5.65592e-08 -7.79268e-07)
(0.131586 1.54521e-07 -4.65896e-07)
(0.131585 -2.49518e-07 -2.26195e-07)
(0.131586 3.43364e-07 4.30035e-07)
(0.131585 -1.80704e-07 9.4621e-08)
(0.131586 5.6928e-08 8.63213e-07)
(0.131584 2.26041e-07 6.72263e-07)
(0.174633 -3.43594e-07 7.26922e-07)
(0.17463 4.56088e-07 1.50482e-06)
(0.174632 -2.41081e-08 1.50269e-07)
(0.174631 -1.41019e-07 1.48525e-06)
(0.174632 5.52583e-07 1.71691e-10)
(0.174632 -4.31509e-07 2.97907e-07)
(0.174633 4.05312e-07 1.75566e-07)
(0.174632 8.20452e-08 -1.32001e-06)
(0.174635 -3.15146e-07 -2.99471e-07)
(0.174633 6.46522e-07 -2.2815e-06)
(0.174636 -5.00923e-07 -1.83302e-06)
(0.174634 2.92e-07 -2.65297e-06)
(0.174636 1.53702e-07 -3.69136e-06)
(0.174636 -3.88719e-07 -3.17118e-06)
(0.174637 4.51445e-07 -4.89297e-06)
(0.174637 -2.52561e-07 -4.38668e-06)
(0.174639 -6.76935e-08 -5.11542e-06)
(0.174636 2.88658e-07 -5.89316e-06)
(0.174639 -4.10105e-07 -5.10645e-06)
(0.174637 2.30893e-07 -6.53486e-06)
(0.174639 -6.88208e-08 -5.66914e-06)
(0.174637 -2.19085e-07 -6.02141e-06)
(0.174638 2.45163e-07 -6.32788e-06)
(0.174637 -3.03017e-07 -5.2667e-06)
(0.174638 1.20235e-07 -6.1295e-06)
(0.174636 -8.30408e-08 -4.86105e-06)
(0.174637 -4.74185e-08 -5.05281e-06)
(0.174635 1.3606e-08 -4.55588e-06)
(0.174636 -8.50644e-08 -3.68597e-06)
(0.174634 1.37979e-07 -3.79737e-06)
(0.174636 -2.617e-07 -2.6504e-06)
(0.174633 3.38243e-07 -2.50018e-06)
(0.174635 -2.54652e-07 -1.81469e-06)
(0.174632 1.10272e-07 -1.25513e-06)
(0.174633 2.14226e-07 -8.00554e-07)
(0.174632 -3.43067e-07 -4.65496e-07)
(0.174632 5.17886e-07 3.27689e-07)
(0.174631 -2.70253e-07 3.8377e-08)
(0.174632 1.24406e-07 9.50926e-07)
(0.17463 3.24418e-07 7.63546e-07)
(0.220331 -4.46488e-07 7.91692e-07)
(0.220327 6.59596e-07 1.67638e-06)
(0.22033 -4.00629e-08 2.97885e-07)
(0.220329 -1.48249e-07 1.75653e-06)
(0.22033 7.66229e-07 2.0023e-07)
(0.22033 -5.82177e-07 5.46476e-07)
(0.220331 5.99956e-07 3.89046e-07)
(0.22033 9.42726e-08 -1.19422e-06)
(0.220333 -3.92065e-07 -1.7066e-07)
(0.220331 8.93267e-07 -2.30083e-06)
(0.220335 -6.95918e-07 -1.90424e-06)
(0.220333 4.43883e-07 -2.84141e-06)
(0.220335 1.81024e-07 -4.02097e-06)
(0.220335 -5.11901e-07 -3.58188e-06)
(0.220336 6.25321e-07 -5.4792e-06)
(0.220335 -3.70457e-07 -5.0668e-06)
(0.220338 -6.84557e-08 -5.92013e-06)
(0.220336 3.74433e-07 -6.85794e-06)
(0.220339 -5.7073e-07 -6.11463e-06)
(0.220336 3.26814e-07 -7.71288e-06)
(0.220339 -1.26109e-07 -6.87722e-06)
(0.220337 -2.92086e-07 -7.31677e-06)
(0.220338 3.2222e-07 -7.69444e-06)
(0.220337 -4.3209e-07 -6.6207e-06)
(0.220338 1.70252e-07 -7.54408e-06)
(0.220336 -1.34281e-07 -6.22782e-06)
(0.220337 -6.40266e-08 -6.41737e-06)
(0.220335 1.0445e-08 -5.86675e-06)
(0.220336 -1.17334e-07 -4.92333e-06)
(0.220333 1.84183e-07 -4.97098e-06)
(0.220335 -3.55719e-07 -3.71379e-06)
(0.220331 4.72034e-07 -3.46244e-06)
(0.220334 -3.59304e-07 -2.6593e-06)
(0.22033 1.81468e-07 -1.97959e-06)
(0.220332 2.82092e-07 -1.38787e-06)
(0.22033 -4.46817e-07 -9.483e-07)
(0.220331 7.29196e-07 1.04574e-08)
(0.220329 -3.76316e-07 -2.13767e-07)
(0.22033 2.17445e-07 8.62496e-07)
(0.220328 4.40418e-07 7.35896e-07)
(0.268753 -5.62183e-07 6.44035e-07)
(0.268749 9.07604e-07 1.73229e-06)
(0.268752 -6.13713e-08 3.37305e-07)
(0.26875 -1.42575e-07 2.00284e-06)
(0.268752 1.02035e-06 4.29579e-07)
(0.268752 -7.56331e-07 8.52009e-07)
(0.268752 8.43191e-07 7.72315e-07)
(0.268752 1.05209e-07 -9.16332e-07)
(0.268755 -4.69915e-07 2.15307e-07)
(0.268753 1.18886e-06 -2.0475e-06)
(0.268757 -9.2593e-07 -1.67794e-06)
(0.268754 6.38248e-07 -2.66256e-06)
(0.268758 2.08106e-07 -4.019e-06)
(0.268757 -6.47417e-07 -3.59448e-06)
(0.268759 8.35163e-07 -5.70405e-06)
(0.268758 -5.12923e-07 -5.38218e-06)
(0.268761 -5.83173e-08 -6.34986e-06)
(0.268759 4.72124e-07 -7.51854e-06)
(0.268763 -7.58645e-07 -6.79779e-06)
(0.268759 4.45189e-07 -8.64367e-06)
(0.268763 -2.00999e-07 -7.87035e-06)
(0.26876 -3.72582e-07 -8.42286e-06)
(0.268762 4.09268e-07 -8.97197e-06)
(0.26876 -5.87274e-07 -7.89169e-06)
(0.268762 2.31914e-07 -8.9645e-06)
(0.268759 -2.01946e-07 -7.64825e-06)
(0.268761 -8.12279e-08 -7.87396e-06)
(0.268758 1.83016e-09 -7.35515e-06)
(0.26876 -1.56433e-07 -6.34417e-06)
(0.268756 2.37174e-07 -6.40463e-06)
(0.268759 -4.69556e-07 -5.05599e-06)
(0.268754 6.3186e-07 -4.72943e-06)
(0.268758 -4.88753e-07 -3.84203e-06)
(0.268753 2.71601e-07 -3.03905e-06)
(0.268755 3.57219e-07 -2.32384e-06)
(0.268752 -5.66036e-07 -1.77318e-06)
(0.268753 9.82184e-07 -6.26028e-07)
(0.268751 -5.05541e-07 -7.73421e-07)
(0.268753 3.38116e-07 5.02464e-07)
(0.268749 5.75221e-07 4.83917e-07)
(0.319946 -6.96907e-07 1.50981e-07)
(0.319941 1.20422e-06 1.54387e-06)
(0.319945 -9.39361e-08 1.37223e-07)
(0.319942 -1.24959e-07 2.11941e-06)
(0.319945 1.31859e-06 5.67905e-07)
(0.319944 -9.6028e-07 1.13307e-06)
(0.319945 1.14244e-06 1.2492e-06)
(0.319945 1.13652e-07 -5.46169e-07)
(0.319947 -5.47931e-07 8.3443e-07)
(0.319945 1.54247e-06 -1.54351e-06)
(0.31995 -1.19666e-06 -1.13111e-06)
(0.319947 8.84961e-07 -2.09147e-06)
(0.319951 2.36288e-07 -3.62392e-06)
(0.319949 -7.94329e-07 -3.12755e-06)
(0.319952 1.09084e-06 -5.4751e-06)
(0.319951 -6.81145e-07 -5.20899e-06)
(0.319955 -3.18774e-08 -6.28093e-06)
(0.319952 5.86589e-07 -7.7274e-06)
(0.319957 -9.74654e-07 -6.99875e-06)
(0.319953 5.94347e-07 -9.1772e-06)
(0.319957 -2.93121e-07 -8.48078e-06)
(0.319954 -4.57606e-07 -9.18424e-06)
(0.319957 5.10959e-07 -1.00042e-05)
(0.319954 -7.69963e-07 -8.9343e-06)
(0.319957 3.09595e-07 -1.026e-05)
(0.319954 -2.87703e-07 -8.99564e-06)
(0.319956 -9.67749e-08 -9.32977e-06)
(0.319953 -1.4069e-08 -8.93044e-06)
(0.319954 -2.02608e-07 -7.89064e-06)
(0.319951 2.96772e-07 -8.05744e-06)
(0.319954 -6.08445e-07 -6.65703e-06)
(0.319948 8.21185e-07 -6.31369e-06)
(0.319952 -6.51467e-07 -5.38227e-06)
(0.319946 3.82111e-07 -4.4888e-06)
(0.31995 4.36409e-07 -3.67482e-06)
(0.319945 -7.07463e-07 -3.02613e-06)
(0.319947 1.28065e-06 -1.68412e-06)
(0.319944 -6.6745e-07 -1.75703e-06)
(0.319946 4.87591e-07 -2.49282e-07)
(0.319942 7.26526e-07 -1.22231e-07)
(0.373921 -8.59202e-07 -8.37167e-07)
(0.373915 1.55187e-06 9.44453e-07)
(0.37392 -1.46286e-07 -4.78544e-07)
(0.373916 -9.8439e-08 1.93771e-06)
(0.373919 1.66262e-06 4.27637e-07)
(0.373918 -1.20359e-06 1.21758e-06)
(0.373918 1.50429e-06 1.65898e-06)
(0.373919 1.15452e-07 -2.39321e-07)
(0.37392 -6.28026e-07 1.5576e-06)
(0.373919 1.96301e-06 -9.01602e-07)
(0.373923 -1.51523e-06 -3.44979e-07)
(0.37392 1.19421e-06 -1.18906e-06)
(0.373925 2.66559e-07 -2.8634e-06)
(0.373923 -9.52242e-07 -2.17617e-06)
(0.373927 1.40328e-06 -4.75859e-06)
(0.373925 -8.75799e-07 -4.48112e-06)
(0.373929 1.92459e-08 -5.6209e-06)
(0.373926 7.25844e-07 -7.36596e-06)
(0.373932 -1.21872e-06 -6.56231e-06)
(0.373927 7.8559e-07 -9.14974e-06)
(0.373933 -4.0065e-07 -8.5238e-06)
(0.373929 -5.41778e-07 -9.39722e-06)
(0.373933 6.34629e-07 -1.05797e-05)
(0.37393 -9.79814e-07 -9.53808e-06)
(0.373933 4.108e-07 -1.12148e-05)
(0.37393 -3.92475e-07 -1.00564e-05)
(0.373932 -1.05584e-07 -1.05921e-05)
(0.373929 -3.8184e-08 -1.04002e-05)
(0.373931 -2.54749e-07 -9.40172e-06)
(0.373927 3.64096e-07 -9.77847e-06)
(0.37393 -7.7787e-07 -8.39579e-06)
(0.373924 1.04497e-06 -8.12916e-06)
(0.373929 -8.57444e-07 -7.20671e-06)
(0.373921 5.14884e-07 -6.30051e-06)
(0.373927 5.15335e-07 -5.4373e-06)
(0.37392 -8.79683e-07 -4.73257e-06)
(0.373923 1.62775e-06 -3.22122e-06)
(0.373919 -8.74411e-07 -3.24981e-06)
(0.373921 6.6568e-07 -1.50387e-06)
(0.373917 8.89935e-07 -1.2096e-06)
(0.43064 -1.06081e-06 -2.41795e-06)
(0.430633 1.95188e-06 -2.16927e-07)
(0.430639 -2.31115e-07 -1.69549e-06)
(0.430633 -6.70275e-08 1.27262e-06)
(0.430636 2.05178e-06 -2.23712e-07)
(0.430635 -1.50002e-06 8.61465e-07)
(0.430635 1.93342e-06 1.76552e-06)
(0.430636 1.01557e-07 -2.54505e-07)
(0.430637 -7.15386e-07 2.14409e-06)
(0.430636 2.45742e-06 -3.58314e-07)
(0.43064 -1.89155e-06 4.67329e-07)
(0.430636 1.57455e-06 -1.46084e-07)
(0.430643 3.00668e-07 -1.90637e-06)
(0.430639 -1.12226e-06 -8.6497e-07)
(0.430644 1.78373e-06 -3.65035e-06)
(0.430642 -1.09855e-06 -3.24636e-06)
(0.430647 1.02192e-07 -4.37716e-06)
(0.430644 9.00539e-07 -6.41647e-06)
(0.43065 -1.49025e-06 -5.39623e-06)
(0.430645 1.03339e-06 -8.44897e-06)
(0.430652 -5.20605e-07 -7.84992e-06)
(0.430647 -6.17422e-07 -8.86923e-06)
(0.430652 7.90232e-07 -1.04711e-05)
(0.430649 -1.21487e-06 -9.45909e-06)
(0.430652 5.47863e-07 -1.15662e-05)
(0.430649 -5.16563e-07 -1.05335e-05)
(0.430651 -9.80771e-08 -1.13826e-05)
(0.430649 -6.91932e-08 -1.14615e-05)
(0.430651 -3.09651e-07 -1.05957e-05)
(0.430647 4.44074e-07 -1.12908e-05)
(0.43065 -9.83175e-07 -1.00018e-05)
(0.430643 1.31213e-06 -9.95732e-06)
(0.43065 -1.11697e-06 -9.09781e-06)
(0.43064 6.73456e-07 -8.29793e-06)
(0.430647 5.91191e-07 -7.48425e-06)
(0.430639 -1.09257e-06 -6.78651e-06)
(0.430643 2.02741e-06 -5.18448e-06)
(0.430638 -1.14093e-06 -5.23653e-06)
(0.43064 8.71434e-07 -3.29372e-06)
(0.430636 1.05965e-06 -2.84993e-06)
(0.489998 -1.31453e-06 -4.52837e-06)
(0.489991 2.40658e-06 -1.96291e-06)
(0.489997 -3.66148e-07 -3.63099e-06)
(0.48999 -3.66777e-08 2.93972e-08)
(0.489994 2.48351e-06 -1.58324e-06)
(0.489992 -1.86894e-06 -1.72321e-07)
(0.489991 2.43254e-06 1.32043e-06)
(0.489993 5.98178e-08 -9.0202e-07)
(0.489992 -8.18083e-07 2.28825e-06)
(0.489992 3.02703e-06 -2.60201e-07)
(0.489996 -2.34158e-06 9.76425e-07)
(0.489991 2.03065e-06 7.03813e-07)
(0.489999 3.33888e-07 -1.08279e-06)
(0.489994 -1.31009e-06 5.19024e-07)
(0.49 2.2422e-06 -2.43944e-06)
(0.489997 -1.35491e-06 -1.72553e-06)
(0.490003 2.21499e-07 -2.72917e-06)
(0.489999 1.11917e-06 -5.05021e-06)
(0.490006 -1.79293e-06 -3.56624e-06)
(0.49 1.35383e-06 -7.11178e-06)
(0.490009 -6.51426e-07 -6.43247e-06)
(0.490003 -6.75501e-07 -7.5321e-06)
(0.49001 9.89891e-07 -9.52911e-06)
(0.490006 -1.47391e-06 -8.49751e-06)
(0.490009 7.38978e-07 -1.11086e-05)
(0.490007 -6.60614e-07 -1.01053e-05)
(0.490009 -5.83231e-08 -1.141e-05)
(0.490007 -1.01635e-07 -1.17504e-05)
(0.490009 -3.62417e-07 -1.10979e-05)
(0.490005 5.48401e-07 -1.22338e-05)
(0.49001 -1.22922e-06 -1.10436e-05)
(0.490002 1.63812e-06 -1.14429e-05)
(0.490009 -1.43839e-06 -1.068e-05)
(0.489999 8.64799e-07 -1.01041e-05)
(0.490007 6.63651e-07 -9.52141e-06)
(0.489997 -1.35513e-06 -8.88178e-06)
(0.490003 2.48743e-06 -7.33662e-06)
(0.489997 -1.48151e-06 -7.52098e-06)
(0.489999 1.10603e-06 -5.4612e-06)
(0.489994 1.22873e-06 -4.98673e-06)
(0.551805 -1.63272e-06 -6.85983e-06)
(0.551797 2.9244e-06 -4.01635e-06)
(0.551804 -5.70939e-07 -6.23448e-06)
(0.551796 -1.19621e-08 -1.64566e-06)
(0.5518 2.95545e-06 -3.66636e-06)
(0.551798 -2.33402e-06 -1.96898e-06)
(0.551796 3.00462e-06 2.0826e-07)
(0.551799 -2.70114e-08 -2.41878e-06)
(0.551796 -9.4677e-07 1.75897e-06)
(0.551797 3.67038e-06 -9.66367e-07)
(0.5518 -2.88705e-06 8.42782e-07)
(0.551795 2.56223e-06 9.55441e-07)
(0.551804 3.5706e-07 -8.3418e-07)
(0.551796 -1.53119e-06 1.58044e-06)
(0.551805 2.78381e-06 -1.60824e-06)
(0.5518 -1.6574e-06 -3.31032e-07)
(0.551806 3.76611e-07 -1.04973e-06)
(0.551802 1.38793e-06 -3.68312e-06)
(0.55181 -2.13961e-06 -1.37496e-06)
(0.551804 1.76131e-06 -5.43306e-06)
(0.551813 -7.9765e-07 -4.45565e-06)
(0.551806 -7.10474e-07 -5.57115e-06)
(0.551814 1.24657e-06 -7.84304e-06)
(0.55181 -1.76127e-06 -6.59785e-06)
(0.551814 1.00657e-06 -9.87075e-06)
(0.551812 -8.27397e-07 -8.55634e-06)
(0.551815 2.94773e-08 -1.05092e-05)
(0.551812 -1.24726e-07 -1.09953e-05)
(0.551816 -4.09815e-07 -1.0528e-05)
(0.551811 6.97766e-07 -1.23077e-05)
(0.551817 -1.51999e-06 -1.1015e-05)
(0.551808 2.045e-06 -1.2147e-05)
(0.551817 -1.82527e-06 -1.15074e-05)
(0.551805 1.09963e-06 -1.11542e-05)
(0.551816 7.41465e-07 -1.11048e-05)
(0.551804 -1.67344e-06 -1.0504e-05)
(0.551811 3.02351e-06 -9.20724e-06)
(0.551804 -1.90773e-06 -9.70921e-06)
(0.551806 1.37628e-06 -7.53369e-06)
(0.551801 1.39374e-06 -7.36396e-06)
(0.615757 -2.0247e-06 -8.93313e-06)
(0.615748 3.52424e-06 -5.64463e-06)
(0.615755 -8.60924e-07 -9.21994e-06)
(0.615746 9.04143e-09 -3.24851e-06)
(0.61575 3.47076e-06 -6.14182e-06)
(0.615749 -2.91698e-06 -4.30889e-06)
(0.615745 3.65674e-06 -1.34221e-06)
(0.61575 -1.78792e-07 -4.80616e-06)
(0.615744 -1.11276e-06 6.41673e-07)
(0.615747 4.38595e-06 -2.66535e-06)
(0.615749 -3.55124e-06 -7.05298e-08)
(0.615742 3.16339e-06 3.47347e-07)
(0.615753 3.60178e-07 -1.57401e-06)
(0.615743 -1.80869e-06 2.01234e-06)
(0.615753 3.41108e-06 -1.68278e-06)
(0.615747 -2.02734e-06 4.23927e-07)
(0.615754 5.57636e-07 1.94465e-07)
(0.615749 1.70779e-06 -2.91647e-06)
(0.615757 -2.55492e-06 6.85536e-07)
(0.61575 2.26535e-06 -4.00744e-06)
(0.615761 -9.71991e-07 -2.34669e-06)
(0.615753 -7.27239e-07 -3.44338e-06)
(0.615762 1.57024e-06 -5.92297e-06)
(0.615757 -2.09174e-06 -3.91228e-06)
(0.615762 1.36906e-06 -8.28628e-06)
(0.615759 -1.02235e-06 -5.96596e-06)
(0.615764 1.7095e-07 -8.78114e-06)
(0.61576 -1.24304e-07 -9.28663e-06)
(0.615765 -4.55258e-07 -8.63829e-06)
(0.61576 9.14703e-07 -1.14979e-05)
(0.615766 -1.85881e-06 -9.57966e-06)
(0.615757 2.55568e-06 -1.16777e-05)
(0.615768 -2.27511e-06 -1.12887e-05)
(0.615754 1.38908e-06 -1.08494e-05)
(0.615767 8.43141e-07 -1.17693e-05)
(0.615753 -2.05007e-06 -1.1088e-05)
(0.615762 3.65775e-06 -1.01037e-05)
(0.615755 -2.42334e-06 -1.13622e-05)
(0.615757 1.69393e-06 -8.71128e-06)
(0.615752 1.56054e-06 -9.46555e-06)
(0.681399 -2.48565e-06 -1.04395e-05)
(0.68139 4.23005e-06 -5.71547e-06)
(0.681398 -1.24202e-06 -1.21005e-05)
(0.681389 3.94358e-08 -4.00437e-06)
(0.681392 4.03756e-06 -8.26122e-06)
(0.681392 -3.62477e-06 -6.66948e-06)
(0.681385 4.40297e-06 -2.57539e-06)
(0.681394 -4.03851e-07 -7.7635e-06)
(0.681384 -1.31871e-06 -4.23384e-07)
(0.681389 5.17003e-06 -5.17071e-06)
(0.68139 -4.34406e-06 -1.51021e-06)
(0.681382 3.8196e-06 -8.84524e-07)
(0.681395 3.44628e-07 -3.47821e-06)
(0.681381 -2.16938e-06 1.88047e-06)
(0.681394 4.12255e-06 -2.90089e-06)
(0.681385 -2.48624e-06 1.82089e-07)
(0.681393 7.41105e-07 7.05951e-07)
(0.681387 2.07887e-06 -3.30983e-06)
(0.681396 -3.07381e-06 2.19831e-06)
(0.681387 2.86367e-06 -3.54443e-06)
(0.681399 -1.19212e-06 -7.14073e-07)
(0.68139 -7.45083e-07 -1.62798e-06)
(0.6814 1.95768e-06 -4.73456e-06)
(0.681394 -2.48596e-06 -7.5685e-07)
(0.6814 1.82529e-06 -7.16771e-06)
(0.681396 -1.25436e-06 -2.86604e-06)
(0.681403 3.57307e-07 -6.57871e-06)
(0.681398 -9.37299e-08 -7.33806e-06)
(0.681404 -5.09213e-07 -5.4648e-06)
(0.681399 1.21033e-06 -1.02281e-05)
(0.681405 -2.24945e-06 -6.92085e-06)
(0.681396 3.1811e-06 -9.87787e-06)
(0.681409 -2.78019e-06 -1.01828e-05)
(0.681392 1.73609e-06 -8.87198e-06)
(0.68141 9.86311e-07 -1.12311e-05)
(0.681392 -2.47892e-06 -1.04425e-05)
(0.681405 4.40234e-06 -9.22094e-06)
(0.681396 -3.01521e-06 -1.22885e-05)
(0.681399 2.07396e-06 -8.21979e-06)
(0.681395 1.74091e-06 -1.04672e-05)
(0.748088 -2.98783e-06 -1.16867e-05)
(0.74808 5.05606e-06 -3.18162e-06)
(0.748088 -1.71353e-06 -1.43617e-05)
(0.748079 1.11381e-07 -3.3184e-06)
(0.748082 4.65508e-06 -8.98094e-06)
(0.748084 -4.43353e-06 -8.59895e-06)
(0.748074 5.25215e-06 -2.22387e-06)
(0.748087 -6.98355e-07 -1.08845e-05)
(0.748072 -1.5365e-06 -3.18485e-07)
(0.74808 5.99854e-06 -7.77413e-06)
(0.748081 -5.22641e-06 -2.93483e-06)
(0.74807 4.50518e-06 -1.76103e-06)
(0.748087 3.23228e-07 -6.29102e-06)
(0.748068 -2.62335e-06 1.79104e-06)
(0.748084 4.90366e-06 -4.91704e-06)
(0.748073 -3.02543e-06 -9.02885e-07)
(0.748082 8.96439e-07 6.97053e-07)
(0.748075 2.5017e-06 -5.0536e-06)
(0.748084 -3.71646e-06 3.2047e-06)
(0.748074 3.53737e-06 -4.36811e-06)
(0.748087 -1.48021e-06 -1.45323e-07)
(0.748076 -7.72444e-07 -1.45465e-07)
(0.748088 2.37519e-06 -5.36534e-06)
(0.748079 -2.95357e-06 2.60384e-06)
(0.748089 2.35108e-06 -7.30647e-06)
(0.748081 -1.54469e-06 -2.12483e-07)
(0.74809 5.74492e-07 -4.17169e-06)
(0.748084 -5.13964e-08 -6.46268e-06)
(0.748089 -5.87072e-07 -1.34949e-06)
(0.748087 1.57527e-06 -9.24027e-06)
(0.748091 -2.69254e-06 -3.93838e-06)
(0.748083 3.89939e-06 -6.91703e-06)
(0.748098 -3.32553e-06 -8.95701e-06)
(0.748077 2.13317e-06 -5.56637e-06)
(0.748101 1.15767e-06 -9.43234e-06)
(0.748078 -2.92173e-06 -9.29845e-06)
(0.748095 5.22895e-06 -5.98671e-06)
(0.748085 -3.66293e-06 -1.26191e-05)
(0.748088 2.53938e-06 -6.14529e-06)
(0.748085 1.92231e-06 -9.2964e-06)
(0.814939 -3.47916e-06 -1.36962e-05)
(0.814935 6.00134e-06 2.10886e-06)
(0.814941 -2.30503e-06 -1.56197e-05)
(0.814933 2.9551e-07 -1.56672e-06)
(0.814935 5.27187e-06 -7.18096e-06)
(0.81494 -5.28022e-06 -1.04599e-05)
(0.814925 6.20708e-06 1.07005e-06)
(0.814944 -1.08964e-06 -1.39909e-05)
(0.814924 -1.65598e-06 1.83528e-06)
(0.814935 6.77964e-06 -9.34909e-06)
(0.814936 -6.09452e-06 -3.98374e-06)
(0.814922 5.19747e-06 -8.38289e-07)
(0.814944 2.96483e-07 -9.50047e-06)
(0.814919 -3.10475e-06 2.89347e-06)
(0.81494 5.70344e-06 -7.02318e-06)
(0.814925 -3.59383e-06 -2.03407e-06)
(0.814935 1.02021e-06 1.09632e-06)
(0.814928 2.95586e-06 -7.8938e-06)
(0.814937 -4.45769e-06 4.50263e-06)
(0.814926 4.27773e-06 -6.00782e-06)
(0.81494 -1.87621e-06 -9.06179e-07)
(0.814926 -7.69145e-07 1.91803e-06)
(0.814942 2.76028e-06 -8.54457e-06)
(0.814928 -3.48845e-06 6.34347e-06)
(0.814942 2.93468e-06 -8.71946e-06)
(0.814931 -1.94256e-06 7.70004e-07)
(0.81494 8.26376e-07 -9.88205e-07)
(0.814937 -3.90507e-08 -8.17048e-06)
(0.814937 -6.96636e-07 3.32981e-06)
(0.81494 1.94925e-06 -8.96283e-06)
(0.814941 -3.16657e-06 -2.16572e-06)
(0.814932 4.64097e-06 -2.95819e-06)
(0.814952 -3.92305e-06 -8.64874e-06)
(0.814923 2.60649e-06 -2.20005e-06)
(0.814956 1.24289e-06 -6.2169e-06)
(0.814927 -3.29377e-06 -9.27737e-06)
(0.814947 6.07449e-06 -7.58152e-07)
(0.814937 -4.39431e-06 -1.22905e-05)
(0.814938 3.15148e-06 -4.17082e-06)
(0.81494 2.02474e-06 -4.96947e-06)
(0.88076 -3.93672e-06 -1.74638e-05)
(0.88076 7.08774e-06 8.70328e-06)
(0.880765 -3.14573e-06 -1.5197e-05)
(0.880758 7.28617e-07 -8.29959e-07)
(0.880759 5.7337e-06 -1.75947e-06)
(0.880767 -6.09588e-06 -1.37674e-05)
(0.880746 7.31869e-06 7.88703e-06)
(0.880774 -1.73713e-06 -1.72128e-05)
(0.880747 -1.44622e-06 5.7314e-06)
(0.880762 7.32949e-06 -8.78162e-06)
(0.880764 -6.84082e-06 -5.33499e-06)
(0.880744 5.94072e-06 3.59129e-06)
(0.880774 1.58778e-07 -1.3607e-05)
(0.880741 -3.44214e-06 6.77108e-06)
(0.880769 6.43952e-06 -8.63488e-06)
(0.880751 -4.15217e-06 -2.93689e-06)
(0.880761 1.18286e-06 4.0301e-06)
(0.880754 3.39178e-06 -1.21355e-05)
(0.880762 -5.25075e-06 7.52424e-06)
(0.88075 5.13382e-06 -6.97852e-06)
(0.880768 -2.44433e-06 -3.64538e-06)
(0.880747 -6.4767e-07 7.00993e-06)
(0.88077 3.07459e-06 -1.45593e-05)
(0.880749 -4.10902e-06 1.06926e-05)
(0.880767 3.61284e-06 -9.24626e-06)
(0.880756 -2.48893e-06 -1.98492e-06)
(0.88076 1.11395e-06 5.21582e-06)
(0.880765 -9.71553e-08 -1.32003e-05)
(0.880756 -8.05879e-07 7.76872e-06)
(0.880765 2.22704e-06 -7.91502e-06)
(0.880765 -3.62976e-06 -3.65125e-06)
(0.880751 5.3568e-06 2.24977e-06)
(0.880781 -4.67951e-06 -9.2463e-06)
(0.88074 3.27432e-06 -9.7587e-07)
(0.880784 1.04751e-06 -9.04124e-07)
(0.880747 -3.54137e-06 -1.15851e-05)
(0.880769 6.92243e-06 4.56512e-06)
(0.880763 -5.3472e-06 -1.0154e-05)
(0.880757 4.02524e-06 -5.23634e-06)
(0.880767 1.90649e-06 2.97266e-06)
(0.943979 -4.4853e-06 -2.18807e-05)
(0.943981 8.47411e-06 1.3009e-05)
(0.943988 -4.52323e-06 -1.09665e-05)
(0.943979 1.61252e-06 -4.50138e-06)
(0.943979 5.90574e-06 8.2832e-06)
(0.943993 -7.01465e-06 -2.03235e-05)
(0.943964 8.8415e-06 1.75199e-05)
(0.944 -3.02358e-06 -2.0317e-05)
(0.943968 -6.41257e-07 8.72592e-06)
(0.943983 7.52498e-06 -3.6045e-06)
(0.943991 -7.57297e-06 -1.09372e-05)
(0.943961 6.96992e-06 1.43976e-05)
(0.944003 -3.5293e-07 -2.04695e-05)
(0.94396 -3.46901e-06 1.27194e-05)
(0.943994 7.09018e-06 -6.65234e-06)
(0.943973 -4.78465e-06 -7.60735e-06)
(0.943983 1.53981e-06 1.33622e-05)
(0.943978 3.71132e-06 -1.84116e-05)
(0.943986 -6.02838e-06 1.08716e-05)
(0.94397 6.14437e-06 -2.56812e-06)
(0.943996 -3.20967e-06 -1.16877e-05)
(0.943965 -3.45604e-07 1.77457e-05)
(0.943996 3.3078e-06 -2.10141e-05)
(0.943972 -4.74915e-06 1.20015e-05)
(0.943987 4.34683e-06 -2.65815e-06)
(0.943984 -3.12625e-06 -1.147e-05)
(0.943976 1.46303e-06 1.57042e-05)
(0.943993 -2.99549e-07 -1.80123e-05)
(0.943976 -7.77373e-07 8.05908e-06)
(0.943985 2.30693e-06 -1.71747e-06)
(0.943993 -4.06535e-06 -9.30958e-06)
(0.943964 6.14527e-06 7.47803e-06)
(0.944011 -5.7884e-06 -7.42598e-06)
(0.943955 4.29705e-06 -4.58974e-06)
(0.944008 4.73627e-07 7.04981e-06)
(0.94397 -3.7311e-06 -1.45559e-05)
(0.943986 7.90003e-06 6.16143e-06)
(0.943991 -6.75262e-06 -3.2739e-06)
(0.943972 5.27024e-06 -1.1833e-05)
(0.943993 1.49101e-06 1.37518e-05)
(1.00256 -5.42321e-06 -2.12724e-05)
(1.00256 1.03168e-05 9.58058e-06)
(1.00257 -6.50444e-06 7.72054e-07)
(1.00256 2.75468e-06 -1.542e-05)
(1.00255 6.07193e-06 2.31738e-05)
(1.00258 -8.42933e-06 -2.92833e-05)
(1.00254 1.09864e-05 2.53459e-05)
(1.00258 -5.03327e-06 -1.73992e-05)
(1.00255 5.45059e-07 1.94601e-06)
(1.00256 7.63046e-06 1.29478e-05)
(1.00258 -8.62511e-06 -2.56686e-05)
(1.00253 8.42387e-06 2.94644e-05)
(1.00259 -1.25735e-06 -2.37695e-05)
(1.00253 -3.37209e-06 9.72683e-06)
(1.00257 7.89189e-06 7.81829e-06)
(1.00255 -5.78107e-06 -2.10917e-05)
(1.00256 2.27319e-06 2.61173e-05)
(1.00256 3.81644e-06 -1.87703e-05)
(1.00257 -6.83567e-06 4.35012e-06)
(1.00255 7.43534e-06 1.3551e-05)
(1.00258 -4.35852e-06 -2.46537e-05)
(1.00254 3.65752e-07 2.68233e-05)
(1.00257 3.26416e-06 -1.68694e-05)
(1.00255 -5.24592e-06 1.37481e-06)
(1.00256 5.13796e-06 1.45476e-05)
(1.00257 -3.94185e-06 -2.30719e-05)
(1.00255 2.08205e-06 2.1832e-05)
(1.00257 -7.82406e-07 -1.2514e-05)
(1.00256 -5.3781e-07 -6.09443e-07)
(1.00256 2.27698e-06 9.52426e-06)
(1.00258 -4.57163e-06 -1.2807e-05)
(1.00253 7.11196e-06 6.33104e-06)
(1.00259 -7.23075e-06 1.85407e-06)
(1.00253 5.54675e-06 -1.20687e-05)
(1.00258 -2.68599e-07 1.33043e-05)
(1.00256 -4.05795e-06 -1.10494e-05)
(1.00256 9.08498e-06 -1.01953e-06)
(1.00258 -8.51663e-06 1.04864e-05)
(1.00255 6.64593e-06 -2.1818e-05)
(1.00257 1.05839e-06 2.26546e-05)
(1.0539 -6.58163e-06 -8.03718e-06)
(1.0539 1.23227e-05 -5.1792e-06)
(1.05391 -8.75772e-06 2.01634e-05)
(1.05391 3.92955e-06 -2.90192e-05)
(1.05389 6.22411e-06 3.37624e-05)
(1.05392 -1.01326e-05 -2.73125e-05)
(1.05388 1.33602e-05 1.63635e-05)
(1.05392 -7.4147e-06 3.4858e-06)
(1.0539 1.89237e-06 -1.93472e-05)
(1.05389 7.54322e-06 3.44444e-05)
(1.05393 -9.67979e-06 -3.40308e-05)
(1.05387 9.78728e-06 2.78675e-05)
(1.05393 -2.14219e-06 -6.71934e-06)
(1.05388 -3.47436e-06 -9.77674e-06)
(1.05391 8.86547e-06 2.80253e-05)
(1.0539 -6.9946e-06 -2.75858e-05)
(1.0539 3.06617e-06 2.27475e-05)
(1.0539 3.99877e-06 -1.44053e-06)
(1.05391 -7.95343e-06 -1.26397e-05)
(1.05389 9.16895e-06 2.84129e-05)
(1.05392 -6.01853e-06 -2.45468e-05)
(1.05388 1.49067e-06 1.79741e-05)
(1.05391 2.99544e-06 2.76135e-06)
(1.0539 -5.73095e-06 -1.43289e-05)
(1.0539 6.0966e-06 2.59309e-05)
(1.05391 -5.01129e-06 -2.01451e-05)
(1.05389 2.99898e-06 1.34151e-05)
(1.05391 -1.54188e-06 2.20723e-06)
(1.05391 -3.95493e-08 -8.144e-06)
(1.05389 2.00867e-06 1.24744e-05)
(1.05393 -4.91427e-06 -4.59696e-06)
(1.05388 8.00472e-06 -2.13073e-06)
(1.05393 -8.78015e-06 1.15097e-05)
(1.05388 7.01113e-06 -1.15176e-05)
(1.05391 -1.34681e-06 7.84791e-06)
(1.05391 -4.16128e-06 3.79615e-06)
(1.05389 1.00692e-05 -1.39633e-05)
(1.05392 -1.02687e-05 2.3224e-05)
(1.05389 7.96627e-06 -2.42048e-05)
(1.05391 6.35022e-07 2.0039e-05)
(1.09485 -8.01874e-06 1.14325e-05)
(1.09486 1.44068e-05 -1.82354e-05)
(1.09486 -1.10019e-05 2.89028e-05)
(1.09486 4.86183e-06 -2.48596e-05)
(1.09485 6.64241e-06 2.23209e-05)
(1.09487 -1.22448e-05 -5.43119e-06)
(1.09485 1.59909e-05 -5.13845e-06)
(1.09486 -1.01313e-05 2.38538e-05)
(1.09486 3.40156e-06 -2.72279e-05)
(1.09484 7.21453e-06 3.23815e-05)
(1.09488 -1.07138e-05 -1.78768e-05)
(1.09483 1.10724e-05 8.35041e-06)
(1.09488 -3.16825e-06 1.39067e-05)
(1.09484 -3.52048e-06 -1.91032e-05)
(1.09486 9.62562e-06 2.79503e-05)
(1.09485 -8.12999e-06 -1.43371e-05)