/*--------------------------------*- C++ -*----------------------------------*\
  =========                 |
  \\      /  F ield         | OpenFOAM: The Open Source CFD Toolbox
   \\    /   O peration     | Website:  https://openfoam.org
    \\  /    A nd           | Version:  10
     \\/     M anipulation  |
\*---------------------------------------------------------------------------*/
FoamFile
{
    format      ascii;
    class       volScalarField;
    location    "3";
    object      p;
}
// * * * * * * * * * * * * * * * * * * * * * * * * * * * * * * * * * * * * * //

dimensions      [0 2 -2 0 0 0 0];

internalField   nonuniform List<scalar> 
102400
(
1.54462e-05
-6.88929e-05
7.96348e-05
0.000161711
5.75819e-05
6.17343e-05
-3.83346e-05
6.68192e-05
0.000162194
1.50991e-05
4.14991e-06
2.21769e-06
0.000129378
0.000149402
2.48623e-05
7.61672e-06
-9.22777e-05
9.63508e-05
0.000204802
2.83596e-05
-3.47075e-05
-7.94663e-05
6.39999e-05
0.000165648
3.88948e-05
6.20085e-05
-4.945e-05
7.52304e-05
0.000208258
7.2091e-05
5.84904e-05
-6.42598e-05
5.15104e-05
0.000176633
6.29904e-05
7.59867e-05
-5.11172e-05
7.98302e-05
0.00017425
5.93332e-05
1.6301e-05
-6.66026e-05
7.94624e-05
0.000161164
5.83285e-05
6.28067e-05
-3.57214e-05
6.67282e-05
0.000162177
1.64791e-05
4.52356e-06
3.09018e-06
0.000128588
0.00014929
2.60783e-05
8.17919e-06
-8.95033e-05
9.71543e-05
0.000204772
3.02811e-05
-3.40509e-05
-7.73257e-05
6.37751e-05
0.000165785
3.99504e-05
6.19592e-05
-4.68024e-05
7.48342e-05
0.000207586
7.34371e-05
5.90232e-05
-6.10767e-05
5.185e-05
0.000176184
6.43165e-05
7.62007e-05
-4.83021e-05
7.95755e-05
0.000173628
6.06656e-05
1.74418e-05
-6.60703e-05
7.93642e-05
0.000163436
6.13786e-05
6.40613e-05
-3.38865e-05
6.67479e-05
0.000164808
2.00549e-05
4.72777e-06
3.4164e-06
0.000128129
0.000152021
2.92539e-05
9.13542e-06
-8.8217e-05
9.78309e-05
0.000207551
3.42629e-05
-3.36577e-05
-7.71765e-05
6.35857e-05
0.000168334
4.28077e-05
6.23954e-05
-4.57018e-05
7.43833e-05
0.0002098
7.68187e-05
5.98901e-05
-5.91332e-05
5.2107e-05
0.000178313
6.7602e-05
7.68611e-05
-4.6642e-05
7.92679e-05
0.000175642
6.42294e-05
1.88828e-05
-6.64707e-05
8.01045e-05
0.000169522
6.71666e-05
6.55674e-05
-3.2533e-05
6.77515e-05
0.000170793
2.63584e-05
5.22886e-06
3.13709e-06
0.000129078
0.000158491
3.43207e-05
1.05296e-05
-8.87762e-05
9.86778e-05
0.000213889
3.99338e-05
-3.35783e-05
-7.84337e-05
6.42512e-05
0.000173957
4.78043e-05
6.37577e-05
-4.61266e-05
7.46458e-05
0.000215665
8.22513e-05
6.12272e-05
-5.88772e-05
5.28912e-05
0.000183768
7.3022e-05
7.80519e-05
-4.61867e-05
7.95993e-05
0.000181048
7.00619e-05
2.19839e-05
-6.81334e-05
8.10862e-05
0.000177282
7.50518e-05
6.90273e-05
-3.18357e-05
6.92518e-05
0.000177694
3.53044e-05
8.29925e-06
1.76199e-06
0.000130964
0.000166491
4.06404e-05
1.37454e-05
-9.18008e-05
9.88252e-05
0.000220811
4.65019e-05
-3.22645e-05
-8.1521e-05
6.53771e-05
0.000180425
5.48794e-05
6.77874e-05
-4.85292e-05
7.51365e-05
0.000222577
8.89716e-05
6.43071e-05
-6.08044e-05
5.39783e-05
0.000189882
7.99291e-05
8.10773e-05
-4.69117e-05
7.98778e-05
0.000187201
7.73451e-05
2.59353e-05
-7.04932e-05
7.87502e-05
0.000182398
8.18889e-05
7.45878e-05
-3.1714e-05
6.75722e-05
0.000181556
4.47278e-05
1.40207e-05
-5.31954e-07
0.000129834
0.000171757
4.5779e-05
1.81543e-05
-9.73189e-05
9.69918e-05
0.000222594
5.14652e-05
-3.03265e-05
-8.58648e-05
6.33837e-05
0.000183729
6.22522e-05
7.41459e-05
-5.23298e-05
7.23164e-05
0.000225997
9.40865e-05
6.85729e-05
-6.46801e-05
5.18878e-05
0.000192094
8.53652e-05
8.53794e-05
-4.78804e-05
7.60138e-05
0.000189281
8.29578e-05
2.40931e-05
-6.94618e-05
6.28218e-05
0.000180287
8.14279e-05
7.70965e-05
-2.99488e-05
5.13262e-05
0.000180033
4.94026e-05
1.63288e-05
-1.08894e-06
0.000115042
0.000170108
4.47554e-05
1.74542e-05
-0.00010256
7.75592e-05
0.000214114
4.99798e-05
-3.41054e-05
-8.77048e-05
4.86053e-05
0.000179929
6.53809e-05
7.65364e-05
-5.34463e-05
5.65661e-05
0.000221902
9.20018e-05
6.84835e-05
-6.76155e-05
3.75197e-05
0.000186582
8.32155e-05
8.49388e-05
-4.52572e-05
5.73335e-05
0.00018295
8.0797e-05
6.71706e-06
-5.97111e-05
2.1581e-05
0.000165997
6.80998e-05
6.64189e-05
-2.16774e-05
8.87066e-06
0.000170148
4.44196e-05
5.14279e-06
6.6163e-06
7.43399e-05
0.000157198
3.24748e-05
2.29999e-06
-0.000101607
2.75972e-05
0.000191332
3.74123e-05
-5.30762e-05
-8.09184e-05
9.78088e-06
0.000164243
5.97323e-05
6.47048e-05
-4.58769e-05
1.68574e-05
0.000205765
7.80796e-05
5.51618e-05
-6.36468e-05
-1.59494e-06
0.000168661
6.81812e-05
6.95842e-05
-3.3908e-05
1.17928e-05
0.000164064
6.55597e-05
-2.93625e-05
-3.95811e-05
-5.12629e-05
0.000131976
4.21029e-05
3.83842e-05
-4.77291e-06
-5.65312e-05
0.000143753
2.97454e-05
-2.24661e-05
2.59686e-05
3.15946e-06
0.000125792
8.48116e-06
-3.05386e-05
-9.1616e-05
-6.4911e-05
0.000147759
1.3768e-05
-8.86784e-05
-6.42376e-05
-5.7835e-05
0.000128936
4.39826e-05
3.36569e-05
-2.85098e-05
-5.31961e-05
0.000169362
5.44929e-05
2.53281e-05
-4.97295e-05
-7.55976e-05
0.000129732
4.03708e-05
3.19963e-05
-1.37859e-05
-6.7128e-05
0.000125654
3.69244e-05
-6.7063e-05
-1.29688e-05
-0.000112262
7.98934e-05
6.34422e-06
-6.89407e-06
1.8587e-05
-0.000109823
9.95455e-05
5.29151e-06
-5.07689e-05
5.04936e-05
-5.82866e-05
7.6225e-05
-2.19807e-05
-6.70726e-05
-7.30486e-05
-0.00013868
8.38282e-05
-1.87143e-05
-0.000109487
-4.15265e-05
-0.000115486
7.53179e-05
1.73646e-05
-1.37754e-06
-5.43114e-06
-0.000111331
0.000113712
2.44529e-05
-9.84268e-06
-2.74024e-05
-0.000135305
7.13616e-05
2.56408e-06
-9.47e-06
1.05629e-05
-0.000131998
6.95352e-05
-2.22609e-06
-8.32168e-05
1.33748e-05
-0.000132714
3.83847e-05
-3.80649e-05
-3.1559e-05
4.11765e-05
-0.000129952
6.00908e-05
-2.88588e-05
-5.89923e-05
7.08778e-05
-8.38392e-05
3.34832e-05
-5.51882e-05
-8.7664e-05
-4.97904e-05
-0.000165127
2.80486e-05
-5.75008e-05
-0.000117194
-1.79097e-05
-0.000135159
3.15472e-05
-1.90821e-05
-1.87988e-05
1.62526e-05
-0.000129938
6.68623e-05
-1.058e-05
-3.35127e-05
-3.0496e-06
-0.00015091
2.4616e-05
-4.15296e-05
-3.07986e-05
3.32164e-05
-0.000154656
2.573e-05
-4.81063e-05
-5.98102e-05
3.09509e-05
-0.000110749
2.30494e-05
-6.95204e-05
-2.46426e-05
5.28693e-05
-0.000113274
3.85279e-05
-5.25517e-05
-4.09834e-05
7.96135e-05
-6.92145e-05
1.26263e-05
-7.79719e-05
-5.92198e-05
-2.77595e-05
-0.000139055
2.35373e-06
-8.6209e-05
-8.8571e-05
2.12437e-06
-0.000112261
1.44007e-05
-4.31888e-05
-1.17127e-05
2.9769e-05
-0.000105974
4.25379e-05
-3.58798e-05
-2.10509e-05
1.47754e-05
-0.000119605
6.95221e-06
-6.74332e-05
-2.07406e-05
4.77863e-05
-0.000132092
1.06543e-05
-7.88241e-05
-2.51355e-05
3.38739e-05
-7.40472e-05
2.76454e-05
-7.73227e-05
-2.62136e-06
4.93463e-05
-7.59556e-05
3.17232e-05
-5.91735e-05
-1.42458e-05
7.27962e-05
-3.23448e-05
1.08303e-05
-7.55056e-05
-2.29973e-05
-1.41813e-05
-9.15757e-05
4.36352e-06
-8.22793e-05
-4.40845e-05
1.19763e-05
-7.26789e-05
1.82151e-05
-4.95273e-05
8.66887e-06
3.11976e-05
-7.21762e-05
3.6425e-05
-4.34282e-05
2.27871e-06
2.0944e-05
-8.14258e-05
1.15313e-05
-7.43285e-05
3.96335e-06
4.92412e-05
-7.18652e-05
1.71483e-05
-8.49996e-05
1.44574e-06
2.53048e-05
-3.95095e-05
2.91626e-05
-7.29049e-05
1.57669e-05
3.62897e-05
-4.21831e-05
2.55366e-05
-5.68323e-05
6.26482e-06
5.68049e-05
-4.93733e-06
1.09375e-05
-6.84515e-05
2.75985e-06
-1.03581e-05
-5.44242e-05
7.3415e-06
-7.26497e-05
-9.50011e-06
1.07171e-05
-4.01238e-05
2.01032e-05
-4.64854e-05
2.51318e-05
2.33883e-05
-3.97972e-05
3.03411e-05
-4.1413e-05
2.09546e-05
1.70854e-05
-4.49266e-05
1.48573e-05
-7.05159e-05
2.36399e-05
3.95372e-05
-3.84514e-05
2.09465e-05
-7.92366e-05
1.36389e-05
1.56046e-05
-1.44685e-05
2.32984e-05
-6.59277e-05
2.29277e-05
2.42075e-05
-1.76103e-05
1.44964e-05
-5.17017e-05
1.53479e-05
4.11437e-05
1.28597e-05
6.79074e-06
-6.5125e-05
1.34887e-05
-9.77344e-06
-2.79194e-05
5.13395e-06
-7.00289e-05
6.79547e-06
6.47609e-06
-1.8179e-05
1.58015e-05
-4.07609e-05
3.04329e-05
1.47645e-05
-1.64364e-05
2.04029e-05
-3.64655e-05
2.82969e-05
1.15142e-05
-1.87868e-05
1.20188e-05
-6.58548e-05
3.05691e-05
2.8721e-05
-1.43369e-05
1.75555e-05
-7.31397e-05
1.59096e-05
8.27161e-06
8.88811e-07
1.42547e-05
-5.9704e-05
2.16114e-05
1.56093e-05
-2.36042e-06
4.58838e-06
-4.93492e-05
1.64928e-05
2.87682e-05
2.23183e-05
1.04406e-06
-5.8599e-05
1.46681e-05
-9.32078e-06
-1.14741e-05
-2.12759e-07
-6.40759e-05
1.09315e-05
2.93813e-06
-3.96025e-06
8.89153e-06
-3.46186e-05
2.79316e-05
8.43728e-06
-2.00619e-06
9.9845e-06
-3.16844e-05
2.71511e-05
7.3107e-06
-2.678e-06
6.0509e-06
-5.65663e-05
2.84489e-05
2.01696e-05
7.44619e-07
1.08967e-05
-6.04678e-05
1.37118e-05
3.80501e-06
8.99512e-06
6.73405e-06
-5.15327e-05
1.67731e-05
1.02102e-05
6.23354e-06
-2.01519e-06
-4.21166e-05
1.40416e-05
2.00509e-05
2.55347e-05
-3.50741e-06
-5.02879e-05
1.15589e-05
-8.67917e-06
-2.64574e-06
-5.19456e-06
-5.50656e-05
9.50742e-06
7.84658e-07
4.09343e-06
2.83609e-06
-2.89393e-05
2.22352e-05
4.55207e-06
5.73423e-06
2.61443e-06
-2.75685e-05
2.21526e-05
4.63484e-06
5.9445e-06
8.40859e-07
-4.70655e-05
2.25765e-05
1.43449e-05
8.9987e-06
5.07146e-06
-4.86228e-05
1.03285e-05
1.55078e-06
1.24507e-05
1.51679e-06
-4.26753e-05
1.15458e-05
7.07206e-06
1.03928e-05
-5.5867e-06
-3.40327e-05
1.01933e-05
1.4288e-05
2.5e-05
-6.02523e-06
-4.16518e-05
7.36008e-06
-7.12835e-06
1.99555e-06
-8.35075e-06
-4.60739e-05
6.22948e-06
-3.03441e-07
7.97525e-06
-1.32916e-06
-2.37844e-05
1.6044e-05
2.02023e-06
9.25937e-06
-1.73267e-06
-2.37012e-05
1.62573e-05
2.54277e-06
9.81668e-06
-2.68474e-06
-3.80017e-05
1.61439e-05
1.04966e-05
1.28199e-05
1.04039e-06
-3.696e-05
7.23146e-06
6.46234e-07
1.29775e-05
-1.60249e-06
-3.3545e-05
7.32465e-06
5.30226e-06
1.16931e-05
-6.88131e-06
-2.66313e-05
6.38494e-06
1.03113e-05
2.23587e-05
-6.82412e-06
-3.3121e-05
3.72498e-06
-5.38071e-06
4.28147e-06
-9.48251e-06
-3.77673e-05
2.89649e-06
-1.36645e-06
9.17598e-06
-3.61657e-06
-1.91464e-05
1.07654e-05
9.17091e-07
1.01675e-05
-3.78053e-06
-1.98068e-05
1.10505e-05
2.08757e-06
1.08031e-05
-4.57981e-06
-2.97597e-05
1.07621e-05
7.39368e-06
1.3697e-05
-1.1628e-06
-2.46754e-05
4.5394e-06
3.85647e-07
1.17868e-05
-3.14207e-06
-2.51743e-05
3.96012e-06
4.2496e-06
1.12503e-05
-6.70812e-06
-2.01219e-05
3.23556e-06
7.47217e-06
1.87271e-05
-6.37553e-06
-2.47073e-05
1.06507e-06
-3.86306e-06
4.92213e-06
-8.64608e-06
-2.90203e-05
2.39836e-07
-1.36716e-06
8.84812e-06
-4.34777e-06
-1.50541e-05
6.6432e-06
5.7603e-07
9.51491e-06
-4.25559e-06
-1.59468e-05
7.01908e-06
1.87673e-06
1.00924e-05
-5.08782e-06
-2.25653e-05
6.81999e-06
5.61861e-06
1.2832e-05
-1.94147e-06
-1.80741e-05
2.38458e-06
2.02519e-07
9.64661e-06
-3.48117e-06
-1.8157e-05
1.36826e-06
3.49424e-06
9.85144e-06
-5.73621e-06
-1.47458e-05
1.2945e-06
5.39258e-06
1.48273e-05
-5.29331e-06
-1.85084e-05
-9.10171e-07
-2.78585e-06
4.6314e-06
-7.37715e-06
-2.03813e-05
-1.30829e-06
-7.19151e-07
7.69739e-06
-4.08774e-06
-1.15415e-05
3.59428e-06
9.73269e-07
8.07524e-06
-3.83645e-06
-1.23438e-05
3.76775e-06
1.59465e-06
8.44296e-06
-4.67541e-06
-1.65525e-05
4.03632e-06
4.47968e-06
1.10275e-05
-1.81892e-06
-1.29744e-05
8.02302e-07
6.84248e-08
7.48078e-06
-2.81302e-06
-1.26052e-05
-3.67562e-07
2.81988e-06
7.9537e-06
-4.40118e-06
-1.04772e-05
2.07457e-07
3.80233e-06
1.10931e-05
-4.05222e-06
-1.37113e-05
-2.16224e-06
-1.55627e-06
3.88187e-06
-5.79144e-06
-1.4139e-05
-1.68835e-06
-4.9692e-07
6.19243e-06
-3.35133e-06
-8.63729e-06
1.07444e-06
9.74834e-07
6.3774e-06
-3.0584e-06
-9.19398e-06
1.65083e-06
1.16743e-06
5.96949e-06
-3.81785e-06
-1.17449e-05
1.82413e-06
3.57618e-06
8.84302e-06
-1.28825e-06
-9.13623e-06
-1.48474e-07
1.23058e-07
5.44494e-06
-1.8753e-06
-8.3662e-06
-6.47198e-07
2.148e-06
6.13406e-06
-3.0799e-06
-7.20215e-06
-3.7703e-07
2.54966e-06
7.62591e-06
-2.97832e-06
-9.94251e-06
-2.81077e-06
-1.02377e-06
2.96939e-06
-4.28313e-06
-9.67292e-06
-1.80612e-06
-4.0138e-07
4.63215e-06
-2.55823e-06
-6.30166e-06
-3.61918e-07
7.38023e-07
4.60318e-06
-2.28983e-06
-6.67464e-06
-2.69941e-07
6.71582e-07
4.01452e-06
-2.85913e-06
-8.09271e-06
1.98656e-07
2.74547e-06
6.67236e-06
-6.45898e-07
-6.25479e-06
-5.74156e-07
1.13688e-07
3.8079e-06
-1.12002e-06
-5.34725e-06
-1.07785e-06
1.4734e-06
4.43399e-06
-2.03346e-06
-4.80925e-06
-6.35934e-07
1.52116e-06
4.62854e-06
-2.28286e-06
-7.03866e-06
-2.86157e-06
-8.66133e-07
2.01916e-06
-3.06776e-06
-6.56824e-06
-1.79733e-06
-4.50514e-07
3.16878e-06
-1.90794e-06
-4.49505e-06
-9.9615e-07
3.63208e-07
3.00257e-06
-1.71726e-06
-4.77692e-06
-1.31066e-06
2.05921e-07
2.49128e-06
-2.03048e-06
-5.47861e-06
-7.40208e-07
1.9669e-06
4.72139e-06
-1.60244e-07
-4.09572e-06
-6.32366e-07
7.24519e-08
2.52185e-06
-5.56784e-07
-3.2873e-06
-5.14335e-07
9.01727e-07
2.95316e-06
-1.37662e-06
-3.14897e-06
-7.36857e-07
7.04868e-07
2.62012e-06
-1.71813e-06
-4.91375e-06
-2.64672e-06
-8.97334e-07
1.13343e-06
-2.22073e-06
-4.46141e-06
-1.73448e-06
-6.02116e-07
1.8842e-06
-1.49644e-06
-3.19531e-06
-1.29045e-06
-6.87341e-08
1.66094e-06
-1.38433e-06
-3.42759e-06
-1.73832e-06
-1.77243e-07
1.32837e-06
-1.43092e-06
-3.70081e-06
-1.14394e-06
1.25865e-06
3.08915e-06
9.41843e-08
-2.55675e-06
-5.88026e-07
4.15642e-09
1.51566e-06
-3.151e-07
-2.03907e-06
-6.01923e-07
3.76413e-07
1.72126e-06
-1.04885e-06
-2.05488e-06
-8.08568e-07
8.07505e-08
1.22731e-06
-1.40101e-06
-3.44802e-06
-2.31478e-06
-9.94495e-07
3.74173e-07
-1.68505e-06
-3.09752e-06
-1.68688e-06
-8.19261e-07
8.01947e-07
-1.29878e-06
-2.342e-06
-1.43624e-06
-4.90821e-07
5.92211e-07
-1.24157e-06
-2.52756e-06
-1.81003e-06
-4.4528e-07
4.43635e-07
-1.14547e-06
-2.55879e-06
-1.14939e-06
6.3806e-07
1.79196e-06
1.05044e-07
-1.54942e-06
-5.49577e-07
-1.16468e-07
7.1961e-07
-3.19495e-07
-1.34628e-06
-6.65392e-07
-6.09651e-08
7.61623e-07
-8.93242e-07
-1.55987e-06
-8.71382e-07
-3.65344e-07
2.83532e-07
-1.23266e-06
-2.46884e-06
-1.96779e-06
-1.09372e-06
-2.26796e-07
-1.42228e-06
-2.27097e-06
-1.62019e-06
-1.02432e-06
2.16869e-08
-1.22878e-06
-1.83313e-06
-1.48809e-06
-8.45344e-07
-2.19359e-07
-1.21645e-06
-1.97324e-06
-1.70174e-06
-7.09385e-07
-2.27956e-07
-1.04337e-06
-1.88419e-06
-1.13155e-06
1.14598e-07
7.98464e-07
-2.94698e-09
-1.00442e-06
-5.96917e-07
-3.07726e-07
1.28847e-07
-4.20105e-07
-1.04209e-06
-7.39121e-07
-3.98381e-07
6.89294e-08
-8.31978e-07
-1.17664e-06
-8.9122e-07
-6.52712e-07
-3.19818e-07
-1.14591e-06
-1.87524e-06
-1.66956e-06
-1.15685e-06
-6.59018e-07
-1.30101e-06
-1.79329e-06
-1.5275e-06
-1.16902e-06
-5.61244e-07
-1.21987e-06
-1.55261e-06
-1.47263e-06
-1.09059e-06
-7.9471e-07
-1.24855e-06
-1.66616e-06
-1.57525e-06
-9.21983e-07
-7.19619e-07
-1.0446e-06
-1.5258e-06
-1.13808e-06
-3.24184e-07
5.38707e-08
-2.21242e-07
-8.13364e-07
-6.78324e-07
-4.94774e-07
-3.13975e-07
-5.43001e-07
-8.94743e-07
-7.85936e-07
-6.21567e-07
-3.90143e-07
-8.25322e-07
-9.92246e-07
-8.84142e-07
-8.09659e-07
-6.73548e-07
-1.0858e-06
-1.47929e-06
-1.44012e-06
-1.1774e-06
-9.45809e-07
-1.24293e-06
-1.52152e-06
-1.42733e-06
-1.24155e-06
-9.27496e-07
-1.23286e-06
-1.40603e-06
-1.42389e-06
-1.23053e-06
-1.15568e-06
-1.30051e-06
-1.51143e-06
-1.47752e-06
-1.07583e-06
-1.02888e-06
-1.08322e-06
-1.35364e-06
-1.14401e-06
-6.08155e-07
-4.69785e-07
-4.62488e-07
-7.80851e-07
-7.65035e-07
-6.48204e-07
-6.21478e-07
-6.63992e-07
-8.56131e-07
-8.24196e-07
-7.56963e-07
-6.65439e-07
-8.39282e-07
-9.04887e-07
-8.70609e-07
-8.76641e-07
-8.50846e-07
-1.0395e-06
-1.24013e-06
-1.26884e-06
-1.14748e-06
-1.02154e-06
-1.19602e-06
-1.35732e-06
-1.33683e-06
-1.2561e-06
-1.12008e-06
-1.24719e-06
-1.33189e-06
-1.37364e-06
-1.28198e-06
-1.28519e-06
-1.342e-06
-1.44867e-06
-1.42674e-06
-1.17218e-06
-1.1854e-06
-1.12306e-06
-1.27987e-06
-1.14433e-06
-7.81949e-07
-7.60592e-07
-6.62222e-07
-8.36295e-07
-8.60906e-07
-7.81694e-07
-8.14304e-07
-7.71802e-07
-8.74306e-07
-8.71877e-07
-8.39085e-07
-8.13833e-07
-8.61497e-07
-8.73045e-07
-8.70158e-07
-8.89705e-07
-9.07047e-07
-9.91591e-07
-1.10758e-06
-1.14236e-06
-1.10388e-06
-1.07559e-06
-1.16309e-06
-1.26121e-06
-1.26981e-06
-1.24397e-06
-1.20139e-06
-1.25959e-06
-1.30397e-06
-1.35123e-06
-1.32526e-06
-1.35431e-06
-1.38072e-06
-1.44398e-06
-1.42106e-06
-1.25349e-06
-1.27574e-06
-1.16519e-06
-1.26259e-06
-1.16026e-06
-9.10357e-07
-9.36368e-07
-8.10635e-07
-9.03928e-07
-9.45003e-07
-9.04444e-07
-9.5836e-07
-8.88824e-07
-9.4505e-07
-9.46671e-07
-8.98588e-07
-8.88762e-07
-8.87172e-07
-8.80806e-07
-8.80734e-07
-8.75683e-07
-8.92584e-07
-9.39399e-07
-1.0131e-06
-1.05475e-06
-1.05203e-06
-1.06994e-06
-1.13544e-06
-1.20942e-06
-1.23382e-06
-1.22527e-06
-1.22682e-06
-1.27152e-06
-1.31301e-06
-1.36883e-06
-1.37263e-06
-1.41322e-06
-1.43127e-06
-1.47624e-06
-1.45974e-06
-1.35013e-06
-1.35899e-06
-1.22892e-06
-1.29431e-06
-1.20205e-06
-1.02304e-06
-1.06154e-06
-9.38481e-07
-9.97286e-07
-0.000229795
-0.000209596
-2.37107e-06
4.43223e-05
4.32985e-05
-9.65381e-05
-0.00018248
-3.59226e-05
5.11078e-06
1.77384e-05
-0.000107748
-0.000203328
-2.30071e-05
4.05516e-05
-2.16144e-05
-0.000222901
-0.000211847
0.000122541
0.000119141
-5.07754e-05
-0.000258307
-0.000215751
3.04574e-05
3.22442e-05
-3.74949e-06
-0.000146376
-0.000203127
3.78643e-06
4.87273e-05
-4.15034e-06
-0.000154676
-0.000184896
2.16318e-05
5.29193e-05
3.06564e-05
-0.000148062
-0.00020912
2.29432e-05
3.97113e-05
-1.45278e-05
-0.000228792
-0.000210104
-3.56954e-06
3.91763e-05
4.3042e-05
-9.54947e-05
-0.000182279
-3.66589e-05
1.23027e-06
1.67193e-05
-0.000107054
-0.000202996
-2.41651e-05
3.4002e-05
-2.22992e-05
-0.000222247
-0.000212519
0.00011909
0.000114209
-5.11478e-05
-0.000257212
-0.000216385
2.88798e-05
2.76195e-05
-4.31766e-06
-0.000144725
-0.000203471
1.45485e-06
4.34157e-05
-4.9048e-06
-0.000153411
-0.000185503
2.09874e-05
4.78949e-05
2.97576e-05
-0.000146585
-0.000209008
2.11176e-05
3.54197e-05
-1.49763e-05
-0.000229364
-0.000213957
-5.78908e-06
3.51817e-05
4.29398e-05
-9.50093e-05
-0.000185298
-3.85872e-05
-1.8422e-06
1.61609e-05
-0.000106557
-0.000205945
-2.60655e-05
2.88291e-05
-2.32461e-05
-0.000222774
-0.000216611
0.000114637
0.000111042
-5.18417e-05
-0.0002577
-0.000220432
2.65172e-05
2.39673e-05
-5.13901e-06
-0.000143703
-0.000207222
-2.01379e-06
3.93024e-05
-5.90953e-06
-0.000152905
-0.000189485
1.95433e-05
4.39623e-05
2.89455e-05
-0.000145653
-0.000212164
1.81554e-05
3.2274e-05
-1.56175e-05
-0.000233461
-0.000221885
-9.14745e-06
3.13172e-05
4.19899e-05
-9.66147e-05
-0.000192353
-4.199e-05
-5.38976e-06
1.55498e-05
-0.000107645
-0.000212707
-2.84324e-05
2.41125e-05
-2.50316e-05
-0.000225979
-0.000224928
0.000108867
0.000108233
-5.34816e-05
-0.000261652
-0.000228726
2.32205e-05
2.03408e-05
-6.5855e-06
-0.000144969
-0.000215174
-6.6682e-06
3.54303e-05
-7.45094e-06
-0.000154611
-0.000197764
1.71067e-05
4.01407e-05
2.76135e-05
-0.000146738
-0.000219344
1.38422e-05
2.91354e-05
-1.70706e-05
-0.000242943
-0.000232491
-1.52399e-05
2.41941e-05
4.0736e-05
-0.000102011
-0.000202516
-4.90008e-05
-1.32812e-05
1.58088e-05
-0.00011195
-0.000221735
-3.26609e-05
1.63384e-05
-2.62387e-05
-0.000233131
-0.000236412
9.82683e-05
0.000101059
-5.44421e-05
-0.000270439
-0.00023984
1.6711e-05
1.33474e-05
-7.1181e-06
-0.000150295
-0.000226072
-1.44613e-05
2.79967e-05
-8.04243e-06
-0.00015988
-0.000209514
1.19338e-05
3.26218e-05
2.6686e-05
-0.000151265
-0.000229327
6.14597e-06
2.23222e-05
-1.791e-05
-0.000258458
-0.000241791
-2.5966e-05
9.01934e-06
4.23393e-05
-0.000112805
-0.000212507
-6.38609e-05
-3.06168e-05
1.98182e-05
-0.000120998
-0.000228722
-5.08024e-05
4.64469e-07
-2.1849e-05
-0.000244184
-0.000247672
8.00211e-05
8.31137e-05
-4.95486e-05
-0.000283981
-0.000249591
4.65955e-06
-1.25829e-06
-2.1842e-06
-0.000160416
-0.000236179
-2.79959e-05
1.21059e-05
-3.36842e-06
-0.000169166
-0.000221483
1.55593e-06
1.6356e-05
2.95342e-05
-0.000159627
-0.000238564
-7.30525e-06
7.09683e-06
-1.34702e-05
-0.000275184
-0.00024561
-4.44509e-05
-1.84211e-05
5.08956e-05
-0.000127289
-0.000219048
-9.03622e-05
-6.19254e-05
2.97818e-05
-0.000132674
-0.000228678
-7.86707e-05
-2.74562e-05
-5.88891e-06
-0.000253535
-0.00025378
4.66428e-05
5.04229e-05
-3.27716e-05
-0.00029687
-0.000253581
-1.55934e-05
-2.59005e-05
1.27152e-05
-0.000171017
-0.000241517
-4.95953e-05
-1.53695e-05
1.08851e-05
-0.000178467
-0.000229278
-1.94244e-05
-1.26513e-05
3.96315e-05
-0.000167556
-0.000243229
-3.10249e-05
-1.96818e-05
9.46826e-07
-0.000276697
-0.000243938
-7.15214e-05
-6.33901e-05
6.57023e-05
-0.000134699
-0.000222606
-0.000127517
-0.000112144
4.33698e-05
-0.000135063
-0.000220879
-0.000117235
-7.11964e-05
2.18871e-05
-0.000244297
-0.000253473
-5.99193e-06
6.01595e-07
-3.78243e-06
-0.000294123
-0.000251882
-4.40371e-05
-6.33135e-05
3.69492e-05
-0.000167184
-0.000241963
-7.8008e-05
-5.75997e-05
3.42419e-05
-0.000173348
-0.000232081
-5.402e-05
-5.9669e-05
5.55845e-05
-0.000160839
-0.000243149
-6.65633e-05
-6.17302e-05
2.39451e-05
-0.000229512
-0.000242776
-9.69896e-05
-0.000126364
7.82169e-05
-0.000121096
-0.000226699
-0.000156113
-0.000176511
5.13576e-05
-0.00011517
-0.000212403
-0.00015077
-0.000128126
4.87303e-05
-0.000206704
-0.000253486
-5.98554e-05
-6.39084e-05
2.50681e-05
-0.000261058
-0.000251327
-6.94728e-05
-0.000112311
5.42731e-05
-0.000134556
-0.00024344
-9.9719e-05
-0.000112952
5.4101e-05
-0.000143809
-0.000236019
-9.20574e-05
-0.000124992
6.57519e-05
-0.00013035
-0.000244297
-9.92981e-05
-0.00011823
4.30902e-05
-0.000165378
-0.000240409
-0.000105157
-0.000178738
8.05454e-05
-8.08622e-05
-0.000227716
-0.000158975
-0.000223503
5.06293e-05
-7.89389e-05
-0.000204508
-0.000156964
-0.000173619
6.52875e-05
-0.000148511
-0.000251204
-8.66525e-05
-0.000120044
4.29322e-05
-0.000204242
-0.000248303
-7.83012e-05
-0.000150378
6.01376e-05
-8.7991e-05
-0.000244007
-0.00010298
-0.000158287
6.34803e-05
-9.9689e-05
-0.000237795
-0.000110954
-0.000179274
6.59931e-05
-8.62104e-05
-0.000245109
-0.000110079
-0.000163552
5.16771e-05
-0.000101944
-0.000228097
-9.14871e-05
-0.000192057
7.80383e-05
-3.84213e-05
-0.000216857
-0.000134834
-0.00022852
4.84382e-05
-3.8172e-05
-0.000190399
-0.000131559
-0.000184072
7.25519e-05
-9.14131e-05
-0.000236324
-7.84803e-05
-0.000141092
5.18475e-05
-0.000142423
-0.000234611
-6.73681e-05
-0.000156401
6.01529e-05
-4.24613e-05
-0.00023393
-8.72942e-05
-0.000170432
6.65458e-05
-5.56699e-05
-0.00022817
-0.000102601
-0.000193228
6.27452e-05
-4.18917e-05
-0.000234391
-9.59559e-05
-0.000171702
5.4466e-05
-5.38617e-05
-0.000201773
-6.12937e-05
-0.000158408
7.62891e-05
-6.41954e-06
-0.000192
-9.81704e-05
-0.000187052
4.92281e-05
-5.69994e-06
-0.000165683
-8.73154e-05
-0.00015422
7.2865e-05
-5.00563e-05
-0.000206047
-4.68337e-05
-0.000120242
5.6008e-05
-9.02645e-05
-0.000207502
-4.36345e-05
-0.000127229
5.90927e-05
-9.43357e-06
-0.000209588
-6.14027e-05
-0.000142359
6.65766e-05
-2.13875e-05
-0.000202857
-7.10899e-05
-0.000158845
6.16383e-05
-1.03952e-05
-0.000209208
-6.62939e-05
-0.000137245
5.63488e-05
-2.52219e-05
-0.000164525
-3.3675e-05
-0.000102245
7.37102e-05
1.09375e-05
-0.000156625
-6.5886e-05
-0.00012515
4.85487e-05
1.23523e-05
-0.000132685
-4.89902e-05
-0.000105163
6.74685e-05
-2.71233e-05
-0.000165781
-1.93393e-05
-7.95178e-05
5.77083e-05
-5.5891e-05
-0.000170986
-2.33108e-05
-8.35267e-05
5.67885e-05
7.44141e-06
-0.000176895
-4.00551e-05
-9.53375e-05
6.19975e-05
-1.75008e-06
-0.000165495
-4.06119e-05
-0.000102604
6.01975e-05
4.49104e-06
-0.00017452
-3.86208e-05
-8.61458e-05
5.64518e-05
-9.70675e-06
-0.000124798
-1.38999e-05
-5.59151e-05
6.93293e-05
1.81427e-05
-0.000118801
-4.00836e-05
-7.5525e-05
4.41241e-05
1.97328e-05
-9.86063e-05
-2.37424e-05
-6.42829e-05
5.89155e-05
-1.61481e-05
-0.000129187
-2.10356e-06
-4.25186e-05
5.78089e-05
-3.49491e-05
-0.000131265
-1.01237e-05
-4.84032e-05
5.38077e-05
1.40151e-05
-0.000130202
-2.57162e-05
-5.68064e-05
5.52913e-05
7.73272e-06
-0.000123607
-1.85835e-05
-5.73585e-05
5.6413e-05
9.25454e-06
-0.000132814
-1.87871e-05
-4.63932e-05
5.53917e-05
-1.72603e-06
-9.45996e-05
-4.32528e-06
-2.75344e-05
6.37837e-05
1.91866e-05
-8.86112e-05
-2.53037e-05
-4.28703e-05
3.55596e-05
2.04765e-05
-7.255e-05
-1.20843e-05
-3.82337e-05
4.98236e-05
-9.25238e-06
-9.91527e-05
4.56796e-06
-1.88217e-05
5.63548e-05
-2.18574e-05
-0.000100954
-4.2985e-06
-2.68229e-05
5.02415e-05
1.56744e-05
-9.46925e-05
-1.89795e-05
-3.31302e-05
4.83524e-05
1.1507e-05
-9.06701e-05
-7.9163e-06
-3.0583e-05
4.91573e-05
1.00116e-05
-9.95295e-05
-8.53707e-06
-2.29579e-05
5.33109e-05
2.78416e-06
-7.11469e-05
-5.17175e-07
-1.21355e-05
5.54203e-05
1.75184e-05
-6.59533e-05
-1.74148e-05
-2.44409e-05
2.93448e-05
1.89065e-05
-5.37329e-05
-7.68655e-06
-2.29339e-05
4.1138e-05
-4.27196e-06
-7.53344e-05
5.73065e-06
-5.04683e-06
5.28858e-05
-1.28641e-05
-7.73565e-05
-2.2754e-06
-1.45193e-05
4.54533e-05
1.56718e-05
-6.92369e-05
-1.56559e-05
-1.94726e-05
4.11867e-05
1.28808e-05
-6.61131e-05
-3.53609e-06
-1.60331e-05
3.38296e-05
9.82155e-06
-7.40121e-05
-3.94792e-06
-9.72369e-06
4.8043e-05
5.17624e-06
-5.31329e-05
1.50789e-07
-3.99469e-06
4.64119e-05
1.49137e-05
-4.85774e-05
-1.32691e-05
-1.3945e-05
2.44552e-05
1.67135e-05
-3.98502e-05
-6.68967e-06
-1.40125e-05
3.28443e-05
-1.10881e-06
-5.57104e-05
4.27838e-06
2.37294e-06
4.60354e-05
-6.82332e-06
-5.83543e-05
-2.27317e-06
-7.40888e-06
3.94894e-05
1.47135e-05
-5.04916e-05
-1.37719e-05
-1.1791e-05
3.4137e-05
1.27918e-05
-4.72598e-05
-2.36325e-06
-8.14336e-06
2.75547e-05
9.26983e-06
-5.62063e-05
-2.4351e-06
-2.27235e-06
4.22052e-05
5.91394e-06
-3.88565e-05
-5.23691e-07
-2.81026e-08
3.15031e-05
1.18717e-05
-3.53767e-05
-1.08755e-05
-7.99714e-06
2.0344e-05
1.46033e-05
-3.03925e-05
-6.93013e-06
-8.87912e-06
2.53464e-05
4.58344e-07
-4.07736e-05
1.89369e-06
5.59657e-06
3.85699e-05
-3.12496e-06
-4.34889e-05
-3.02049e-06
-3.3867e-06
3.2936e-05
1.30507e-05
-3.64598e-05
-1.24469e-05
-7.27788e-06
2.75334e-05
1.16627e-05
-3.27495e-05
-2.55418e-06
-3.9181e-06
2.22096e-05
8.30629e-06
-4.06463e-05
-2.31914e-06
1.59581e-06
3.51444e-05
5.43029e-06
-2.78577e-05
-1.45008e-06
1.80884e-06
2.37729e-05
9.13579e-06
-2.5871e-05
-9.36075e-06
-4.74699e-06
1.70104e-05
1.26782e-05
-2.36208e-05
-7.44124e-06
-6.01257e-06
1.88688e-05
7.05729e-07
-2.95628e-05
-4.06365e-07
5.87717e-06
3.1616e-05
-1.29824e-06
-3.12313e-05
-3.78398e-06
-1.3356e-06
2.63742e-05
1.072e-05
-2.624e-05
-1.11794e-05
-4.57335e-06
2.15009e-05
9.87435e-06
-2.26859e-05
-3.13388e-06
-1.63172e-06
1.76855e-05
6.92547e-06
-2.81854e-05
-2.69413e-06
3.33885e-06
2.57449e-05
4.57425e-06
-1.95969e-05
-2.18122e-06
2.53933e-06
1.78792e-05
7.13057e-06
-1.8812e-05
-8.21475e-06
-3.53018e-06
1.38519e-05
1.08343e-05
-1.76363e-05
-7.67612e-06
-4.44423e-06
1.3377e-05
2.28172e-07
-2.13346e-05
-2.14258e-06
4.35261e-06
2.40697e-05
-7.71981e-07
-2.24808e-05
-4.30298e-06
-5.3515e-07
2.02593e-05
8.27652e-06
-1.88743e-05
-9.81824e-06
-3.1099e-06
1.61454e-05
8.0297e-06
-1.55182e-05
-3.55858e-06
-6.30193e-07
1.37833e-05
5.51722e-06
-1.93576e-05
-3.03445e-06
3.60853e-06
1.77658e-05
3.90224e-06
-1.33294e-05
-2.51807e-06
2.49067e-06
1.32117e-05
5.60467e-06
-1.40105e-05
-7.1823e-06
-2.68815e-06
1.07836e-05
8.60003e-06
-1.28951e-05
-7.44091e-06
-3.62022e-06
8.95318e-06
-3.9996e-07
-1.54132e-05
-3.21574e-06
2.80318e-06
1.71027e-05
-7.74911e-07
-1.62354e-05
-4.49157e-06
-4.64653e-07
1.48778e-05
6.24705e-06
-1.35256e-05
-8.36052e-06
-2.35291e-06
1.16003e-05
6.4432e-06
-1.03921e-05
-3.52658e-06
-3.30339e-07
1.03892e-05
4.32694e-06
-1.31558e-05
-3.15239e-06
3.14933e-06
1.29793e-05
3.41574e-06
-8.71167e-06
-2.64324e-06
1.75106e-06
9.43337e-06
4.31711e-06
-1.00385e-05
-6.1572e-06
-2.19028e-06
7.89143e-06
6.15843e-06
-9.30073e-06
-6.77449e-06
-3.13396e-06
5.529e-06
-7.5278e-07
-1.10713e-05
-3.69005e-06
1.38316e-06
1.12922e-05
-7.56852e-07
-1.1751e-05
-4.39797e-06
-6.93291e-07
1.04062e-05
4.61103e-06
-9.63158e-06
-6.82049e-06
-1.95237e-06
7.96141e-06
5.22988e-06
-6.8089e-06
-3.26766e-06
-3.60506e-07
7.48865e-06
3.46328e-06
-8.82708e-06
-3.04412e-06
2.38445e-06
9.37782e-06
2.89195e-06
-5.62379e-06
-2.56608e-06
9.11252e-07
6.38843e-06
3.20987e-06
-7.09784e-06
-5.14201e-06
-1.91088e-06
5.31541e-06
4.02414e-06
-6.6022e-06
-5.66981e-06
-2.77121e-06
3.02799e-06
-7.95308e-07
-7.92424e-06
-3.72076e-06
2.26701e-07
6.90116e-06
-8.27931e-07
-8.51627e-06
-4.08415e-06
-9.19633e-07
6.88138e-06
3.17903e-06
-6.76691e-06
-5.43612e-06
-1.63542e-06
5.1629e-06
3.99449e-06
-4.41428e-06
-2.89956e-06
-5.00852e-07
5.11194e-06
2.86811e-06
-5.80455e-06
-2.76007e-06
1.63059e-06
6.60855e-06
2.26515e-06
-3.5763e-06
-2.34658e-06
2.66692e-07
3.9878e-06
1.98389e-06
-4.96212e-06
-4.15012e-06
-1.72188e-06
3.21166e-06
2.32974e-06
-4.62401e-06
-4.51703e-06
-2.43941e-06
1.3026e-06
-8.49106e-07
-5.6911e-06
-3.47212e-06
-5.17571e-07
3.79881e-06
-9.17549e-07
-6.15664e-06
-3.58098e-06
-1.16739e-06
4.20127e-06
1.92755e-06
-4.71236e-06
-4.27984e-06
-1.48005e-06
3.08734e-06
2.79025e-06
-2.88192e-06
-2.5029e-06
-6.56279e-07
3.24461e-06
2.15795e-06
-3.73532e-06
-2.23788e-06
1.01078e-06
4.42603e-06
1.5871e-06
-2.26492e-06
-2.04645e-06
-2.0585e-07
2.19451e-06
1.06789e-06
-3.42118e-06
-3.25691e-06
-1.50502e-06
1.64473e-06
1.10916e-06
-3.20597e-06
-3.49824e-06
-2.07132e-06
1.87353e-07
-9.2979e-07
-4.11041e-06
-2.98756e-06
-1.00176e-06
1.72076e-06
-9.47918e-07
-4.42675e-06
-3.052e-06
-1.30862e-06
2.25188e-06
9.39808e-07
-3.27943e-06
-3.3248e-06
-1.36559e-06
1.5844e-06
1.71513e-06
-1.94627e-06
-2.1128e-06
-7.53099e-07
1.83982e-06
1.42493e-06
-2.35707e-06
-1.78585e-06
4.79752e-07
2.71797e-06
9.44446e-07
-1.45719e-06
-1.70715e-06
-4.36812e-07
9.66258e-07
3.00824e-07
-2.366e-06
-2.47747e-06
-1.28897e-06
5.88115e-07
3.20268e-07
-2.25237e-06
-2.67148e-06
-1.74525e-06
-4.83713e-07
-1.00609e-06
-3.00169e-06
-2.52784e-06
-1.25444e-06
4.0409e-07
-9.79029e-07
-3.1886e-06
-2.52907e-06
-1.33534e-06
9.11554e-07
2.40788e-07
-2.30808e-06
-2.55696e-06
-1.26676e-06
5.51275e-07
8.0812e-07
-1.46226e-06
-1.76607e-06
-8.05317e-07
8.15274e-07
6.43226e-07
-1.4887e-06
-1.4078e-06
9.15435e-08
1.45054e-06
4.24301e-07
-9.86279e-07
-1.38031e-06
-5.10785e-07
2.07003e-07
-1.64722e-07
-1.6658e-06
-1.86626e-06
-1.10925e-06
-9.79771e-08
-1.85564e-07
-1.63431e-06
-2.04017e-06
-1.51207e-06
-8.48535e-07
-1.06038e-06
-2.25176e-06
-2.10199e-06
-1.33231e-06
-3.66033e-07
-9.80904e-07
-2.3344e-06
-2.0544e-06
-1.29772e-06
4.90019e-08
-2.48394e-07
-1.6883e-06
-1.96852e-06
-1.1997e-06
-1.37676e-07