/*--------------------------------*- C++ -*----------------------------------*\
  =========                 |
  \\      /  F ield         | OpenFOAM: The Open Source CFD Toolbox
   \\    /   O peration     | Website:  https://openfoam.org
    \\  /    A nd           | Version:  10
     \\/     M anipulation  |
\*---------------------------------------------------------------------------*/
FoamFile
{
    format      ascii;
    class       volVectorField;
    location    "3";
    object      U_0;
}
// * * * * * * * * * * * * * * * * * * * * * * * * * * * * * * * * * * * * * //

dimensions      [0 1 -1 0 0 0 0];

internalField   nonuniform List<vector> 
102400
(
(0.00627289 -3.79805e-06 -0.00227605)
(0.00769973 1.16701e-05 -0.00202872)
(0.00784227 -8.74641e-07 0.00158151)
(0.00972222 -1.86216e-05 0.00321142)
(0.0095815 -7.22933e-06 0.000708098)
(0.00650097 -1.62214e-06 -0.00245537)
(0.00804926 1.19135e-05 -0.00155977)
(0.00770256 -1.35309e-06 0.00165674)
(0.00959894 -1.88828e-05 0.00345541)
(0.00946745 -2.45378e-06 0.000740581)
(0.00633468 2.03492e-06 -0.00227089)
(0.0079673 8.01436e-06 -0.00158447)
(0.00799302 -7.45993e-06 0.00178335)
(0.00982346 -1.70323e-05 0.00292578)
(0.00940252 -6.02506e-06 0.000703523)
(0.00601415 -4.83754e-06 -0.00246353)
(0.00744882 1.4955e-05 -0.00206036)
(0.00738733 4.14826e-06 0.00139458)
(0.00975858 -1.88797e-05 0.00301014)
(0.00911172 -2.71618e-06 0.000780088)
(0.00591811 1.8187e-06 -0.00234037)
(0.00751512 1.1908e-05 -0.00199754)
(0.00770979 -7.82313e-07 0.00142941)
(0.00941113 -1.64041e-05 0.00294456)
(0.00949642 -4.19891e-06 0.00102993)
(0.00635221 -8.53276e-06 -0.00231623)
(0.00761102 1.09127e-05 -0.00187531)
(0.00770007 -3.2278e-06 0.00149796)
(0.00944438 -2.43556e-05 0.00284937)
(0.009394 -5.78709e-06 0.00095952)
(0.00644615 -3.92552e-06 -0.00230369)
(0.0075862 1.52107e-05 -0.00207736)
(0.00759472 2.51301e-06 0.00177861)
(0.0094684 -1.93371e-05 0.00320954)
(0.00953062 -3.64028e-06 0.00103492)
(0.00661632 -9.52858e-06 -0.00225187)
(0.00758607 1.25781e-05 -0.00175697)
(0.00785969 2.16972e-08 0.00164942)
(0.00966895 -1.94725e-05 0.00325264)
(0.00946584 -6.81061e-06 0.000933634)
(0.0190837 0.000139999 -0.00732937)
(0.0232601 -2.50033e-06 -0.00697402)
(0.0240013 -0.000146342 0.00418242)
(0.0294414 -0.000277598 0.00995877)
(0.0292739 9.19907e-05 0.00266934)
(0.0197782 0.000112252 -0.00769755)
(0.0243392 1.7597e-05 -0.00554665)
(0.0235926 -0.00013789 0.00437147)
(0.029008 -0.000293443 0.0106798)
(0.0288746 0.000126113 0.00273163)
(0.019387 9.98388e-05 -0.00713004)
(0.0241326 -8.38501e-05 -0.00569803)
(0.024413 -0.000187451 0.00473244)
(0.0297121 -0.000258219 0.0091479)
(0.0287176 0.000132026 0.00254382)
(0.0183128 0.000148343 -0.00793653)
(0.022518 3.33725e-05 -0.0070665)
(0.0226297 -0.000136257 0.00394563)
(0.0295031 -0.000281862 0.00950827)
(0.0277717 0.000168612 0.0026586)
(0.0179968 0.000161551 -0.0077497)
(0.0227034 -5.12166e-06 -0.0069145)
(0.0236106 -0.000139872 0.00388581)
(0.0284978 -0.000265076 0.00911771)
(0.0289976 0.000106305 0.0035184)
(0.01941 0.000102326 -0.00734343)
(0.0229698 5.03032e-06 -0.00653428)
(0.0235931 -0.000160404 0.00408935)
(0.0285991 -0.00031594 0.0089446)
(0.0286568 0.000106376 0.00327794)
(0.0196199 0.000112612 -0.00739421)
(0.0228731 6.02162e-05 -0.00708149)
(0.0232712 -0.000106551 0.00492444)
(0.0286793 -0.000297841 0.00997924)
(0.0290981 0.000110277 0.00356558)
(0.0201646 0.000100709 -0.00712169)
(0.0228989 2.8284e-05 -0.00616254)
(0.0240612 -0.000152649 0.00443541)
(0.0292859 -0.000280389 0.010046)
(0.0288883 0.000117968 0.0032011)
(0.0326999 0.000471458 -0.0121985)
(0.038755 -2.68275e-05 -0.0132734)
(0.0407261 -0.000406563 0.00518899)
(0.0493893 -0.000726042 0.0170463)
(0.0500109 0.000320871 0.00607423)
(0.0338107 0.000385085 -0.0127014)
(0.0406931 3.33693e-05 -0.0108505)
(0.0401326 -0.000361638 0.0054721)
(0.0485342 -0.000764176 0.0182329)
(0.049251 0.000392572 0.006104)
(0.0333656 0.000319594 -0.0116469)
(0.0403047 -0.00025732 -0.0111883)
(0.0413971 -0.000507383 0.00616811)
(0.0498189 -0.000664398 0.0158348)
(0.049092 0.000433583 0.00566696)
(0.0314346 0.000486574 -0.0132729)
(0.0374996 8.98183e-05 -0.0135139)
(0.0383905 -0.00035626 0.00517684)
(0.0494208 -0.000726127 0.0165385)
(0.0474435 0.000534008 0.00576512)
(0.0308313 0.000504336 -0.0132029)
(0.0377884 -3.35033e-05 -0.0132338)
(0.0401077 -0.000392121 0.00492942)
(0.0478377 -0.000688241 0.0155937)
(0.0495085 0.000339656 0.00724352)
(0.0334387 0.00035724 -0.0120688)
(0.0382576 1.5426e-05 -0.0125887)
(0.0400941 -0.000433194 0.00527698)
(0.0479667 -0.00080749 0.0154462)
(0.0488992 0.000358422 0.00683482)
(0.0336445 0.000384726 -0.0122548)
(0.0380781 0.000164508 -0.0134583)
(0.0395711 -0.000295526 0.0065547)
(0.0481112 -0.000777036 0.0170999)
(0.0496593 0.000359699 0.00739792)
(0.0345865 0.00036591 -0.0117064)
(0.038179 7.44944e-05 -0.0119433)
(0.0408545 -0.000424058 0.00567229)
(0.0491559 -0.000731638 0.0171354)
(0.0493356 0.000396691 0.00676256)
(0.0473561 0.00108233 -0.0157568)
(0.0534057 -6.80826e-05 -0.0208849)
(0.0573602 -0.00076394 0.00344227)
(0.068729 -0.0013597 0.0239073)
(0.0713953 0.000726308 0.0114764)
(0.0487614 0.000898044 -0.0163992)
(0.0563695 5.68803e-05 -0.017463)
(0.0567641 -0.000625568 0.00383085)
(0.0673466 -0.00142548 0.0254961)
(0.070184 0.000821235 0.0113815)
(0.0484936 0.000734727 -0.0147287)
(0.0556644 -0.000497933 -0.0180201)
(0.0583133 -0.000948753 0.00503857)
(0.0693001 -0.00121799 0.022553)
(0.0701833 0.000945583 0.0106233)
(0.0456468 0.00108783 -0.0173261)
(0.0515951 0.000198511 -0.0214663)
(0.0541151 -0.000619174 0.00380691)
(0.0686902 -0.00133969 0.0235974)
(0.0678317 0.00113346 0.0107066)
(0.0447 0.00110901 -0.0175625)
(0.0519761 -8.12632e-05 -0.0209546)
(0.056617 -0.000751961 0.00342883)
(0.0666945 -0.00128261 0.0218304)
(0.0706523 0.000721026 0.0126907)
(0.0486953 0.00083463 -0.0153682)
(0.05272 5.82584e-05 -0.0200389)
(0.0566489 -0.000792794 0.00391078)
(0.066748 -0.00147621 0.0218197)
(0.0697437 0.000788508 0.0121538)
(0.0487457 0.000889866 -0.015731)
(0.0524625 0.000334903 -0.0212026)
(0.0559424 -0.000542557 0.0053788)
(0.0669938 -0.00144882 0.0239542)
(0.0708308 0.000777379 0.0130205)
(0.0500501 0.000875728 -0.0149462)
(0.0527095 0.000155469 -0.0191)
(0.0576044 -0.000790996 0.0041544)
(0.0684831 -0.0013699 0.0239234)
(0.0704546 0.000869455 0.0121654)
(0.0632144 0.00209444 -0.0167453)
(0.0666311 -8.50297e-05 -0.0289593)
(0.072881 -0.00114274 -0.00174299)
(0.0865541 -0.00216831 0.029409)
(0.0926661 0.00134015 0.0188124)
(0.0647735 0.00176747 -0.0175265)
(0.070743 0.000125498 -0.024639)
(0.0725841 -0.000821155 -0.00117227)
(0.0846554 -0.00226071 0.0312152)
(0.0909184 0.00141752 0.0184738)
(0.0648972 0.00146981 -0.0152275)
(0.0695438 -0.00074773 -0.0253878)
(0.0741846 -0.00142613 0.000689456)
(0.0872443 -0.00189031 0.0283488)
(0.0912951 0.00169775 0.0174117)
(0.0611293 0.00205222 -0.0187811)
(0.0642115 0.000407058 -0.0301573)
(0.0689575 -0.000833726 -0.0010698)
(0.0865031 -0.00210252 0.0295612)
(0.0883243 0.00197602 0.0175044)
(0.0598362 0.00208881 -0.0194909)
(0.064677 -0.000108962 -0.029279)
(0.0722094 -0.00116529 -0.00129361)
(0.0843246 -0.00204399 0.0267253)
(0.0917195 0.00125979 0.019791)
(0.0652743 0.00164107 -0.0160579)
(0.0658202 0.000197707 -0.0280979)
(0.0723949 -0.00114232 -0.000737466)
(0.0841308 -0.00228377 0.0269569)
(0.0904844 0.00141684 0.0191806)
(0.0650372 0.00172885 -0.0165584)
(0.0655032 0.000598909 -0.0294834)
(0.0714672 -0.000772012 0.000556821)
(0.0845714 -0.00229742 0.0292829)
(0.0919207 0.00137798 0.0203143)
(0.0665956 0.00175008 -0.0157039)
(0.0659832 0.000311359 -0.0268521)
(0.073293 -0.00116855 -0.000897078)
(0.0864275 -0.00218893 0.0292068)
(0.0915634 0.00155135 0.0193441)
(0.0800753 0.00365384 -0.0144098)
(0.0786147 2.18086e-06 -0.0355316)
(0.086167 -0.00141638 -0.00971089)
(0.102131 -0.0031972 0.0318705)
(0.112831 0.00215451 0.0271864)
(0.0817018 0.00314307 -0.0152509)
(0.0837964 0.000294667 -0.0306431)
(0.0865498 -0.000803976 -0.00884232)
(0.0999996 -0.00330456 0.0335154)
(0.110524 0.00215425 0.0264601)
(0.082334 0.00269663 -0.0126196)
(0.0820358 -0.000905004 -0.0314426)
(0.0878766 -0.00181555 -0.00635847)
(0.102974 -0.00270993 0.0317308)
(0.111496 0.00269172 0.0252631)
(0.0776587 0.00350867 -0.0167852)
(0.0755613 0.000762625 -0.0376578)
(0.0819851 -0.000876054 -0.00900515)
(0.102398 -0.00306991 0.0326179)
(0.108125 0.00303013 0.0253482)
(0.0760916 0.00359522 -0.0180528)
(0.076082 -4.14996e-05 -0.0362874)
(0.0858183 -0.00153819 -0.00864508)
(0.100184 -0.00302908 0.0286901)
(0.111795 0.00193756 0.0277019)
(0.0828243 0.00291637 -0.0135288)
(0.0777861 0.000502041 -0.0349151)
(0.0863546 -0.00135023 -0.0081364)
(0.0995658 -0.00324026 0.0291868)
(0.110226 0.00223013 0.0270354)
(0.082244 0.00302444 -0.0140196)
(0.0774371 0.000993743 -0.0363495)
(0.0850922 -0.000872182 -0.0073483)
(0.100323 -0.003364 0.0312535)
(0.112073 0.00213921 0.0283108)
(0.0838917 0.00314307 -0.0133452)
(0.0782268 0.000604265 -0.0333758)
(0.0867614 -0.00141891 -0.0089234)
(0.10232 -0.00324556 0.0312068)
(0.111775 0.00241361 0.0273924)
(0.0972325 0.00583272 -0.00924245)
(0.0904747 0.000306955 -0.0377043)
(0.0967042 -0.00147614 -0.0178212)
(0.114953 -0.00456576 0.029787)
(0.130956 0.00304556 0.0348039)
(0.0989217 0.00511406 -0.00997848)
(0.0963192 0.000641392 -0.0329767)
(0.0980396 -0.000476489 -0.0166674)
(0.113222 -0.00462447 0.0308869)
(0.128231 0.00290437 0.0335386)
(0.100041 0.00452401 -0.00762395)
(0.0942745 -0.000794515 -0.033628)
(0.0986843 -0.00201585 -0.0137852)
(0.1162 -0.00380149 0.0311863)
(0.129893 0.0038396 0.0325523)
(0.0944558 0.00553273 -0.0117493)
(0.0868866 0.00131407 -0.0408717)
(0.0927006 -0.000696667 -0.0174918)
(0.116279 -0.00439865 0.030986)
(0.126514 0.00416259 0.032526)
(0.0927302 0.00572307 -0.0135231)
(0.0873353 0.000237993 -0.0390354)
(0.0968199 -0.0017988 -0.0161618)
(0.113871 -0.00436437 0.0264874)
(0.130025 0.00263991 0.0347375)
(0.100437 0.00475237 -0.00835805)
(0.0897132 0.00105802 -0.0377648)
(0.0979573 -0.00132427 -0.0159003)
(0.112786 -0.004417 0.0270591)
(0.128179 0.00311088 0.0339234)
(0.0995793 0.00484679 -0.00869839)
(0.0893985 0.00156812 -0.0388472)
(0.0962632 -0.000773336 -0.015738)
(0.113869 -0.00474133 0.0284892)
(0.130524 0.00292851 0.0351349)
(0.10112 0.00516042 -0.00837462)
(0.090511 0.00113652 -0.0360446)
(0.0974119 -0.00144374 -0.017325)
(0.115641 -0.00466473 0.0284391)
(0.130245 0.00331441 0.0345188)
(0.113725 0.00850401 -0.00299061)
(0.103321 0.000965943 -0.0342171)
(0.10556 -0.00129646 -0.0217701)
(0.124585 -0.0063713 0.0236775)
(0.146524 0.00368977 0.0392696)
(0.115529 0.00757348 -0.00347235)
(0.109181 0.00124294 -0.0303052)
(0.107698 0.000150025 -0.0206271)
(0.123967 -0.00624008 0.0242833)
(0.14373 0.00337883 0.0374329)
(0.116941 0.0068372 -0.0020728)
(0.107479 -0.000221074 -0.0309945)
(0.107292 -0.00200427 -0.017792)
(0.1267 -0.00532544 0.0266367)
(0.145928 0.00488137 0.0370427)
(0.110508 0.00804475 -0.00546562)
(0.0994518 0.00211445 -0.0377002)
(0.101795 -0.000415043 -0.0222359)
(0.127736 -0.00624664 0.024858)
(0.143012 0.0050729 0.0367956)
(0.108726 0.00838302 -0.00747682)
(0.0995885 0.000886128 -0.0359338)
(0.105907 -0.00196765 -0.0198342)
(0.124766 -0.00616638 0.0208378)
(0.14587 0.00307974 0.0387002)
(0.116922 0.00707223 -0.00228703)
(0.102503 0.00194786 -0.035114)
(0.107772 -0.00106792 -0.0201142)
(0.123389 -0.00589003 0.0211226)
(0.143938 0.00375405 0.0374997)
(0.115996 0.00711062 -0.00249587)
(0.102421 0.00237457 -0.0353622)
(0.105748 -0.000534586 -0.0203238)
(0.124532 -0.00651206 0.0220157)
(0.146771 0.00344012 0.038458)
(0.117211 0.0077218 -0.00247456)
(0.10375 0.00203315 -0.0335418)
(0.106203 -0.00127733 -0.0217366)
(0.125756 -0.00653941 0.0216996)
(0.146381 0.00394031 0.0384343)
(0.12868 0.011325 0.0021959)
(0.116945 0.00199609 -0.027921)
(0.115677 -0.00110315 -0.0188922)
(0.13066 -0.00859668 0.0165444)
(0.159033 0.00362677 0.038583)
(0.130637 0.0101988 0.00190452)
(0.122228 0.00209362 -0.0247896)
(0.117867 0.00069576 -0.0179446)
(0.131233 -0.00816796 0.0169137)
(0.156514 0.00320587 0.0364451)
(0.131867 0.00929366 0.00190916)
(0.121263 0.000855994 -0.0260099)
(0.11642 -0.00195831 -0.0159077)
(0.133682 -0.00737315 0.020056)
(0.158936 0.00542665 0.0367615)
(0.125003 0.0107686 -0.000221224)
(0.113139 0.00314657 -0.0306206)
(0.111796 -0.000457166 -0.0198772)
(0.13535 -0.00868241 0.0169425)
(0.156811 0.00535814 0.036453)
(0.123228 0.0112591 -0.00192182)
(0.112785 0.00193652 -0.0295117)
(0.115608 -0.00222932 -0.0172246)
(0.131934 -0.00846522 0.0144787)
(0.158413 0.00286646 0.0378194)
(0.131125 0.0096321 0.00246907)
(0.115679 0.0031326 -0.0291447)
(0.1179 -0.00085686 -0.0180505)
(0.130518 -0.00775346 0.0142169)
(0.156865 0.00375287 0.0360892)
(0.130483 0.00957513 0.00228453)
(0.116164 0.0034093 -0.0285493)
(0.116037 -0.000468222 -0.018056)
(0.131275 -0.00875022 0.0151371)
(0.159879 0.00326849 0.0366494)
(0.131136 0.0105366 0.00223279)
(0.117445 0.00328797 -0.0281176)
(0.116082 -0.00119197 -0.0191341)
(0.131898 -0.00886337 0.0143443)
(0.159417 0.00388122 0.0373881)
(0.140358 0.0136383 0.00419966)
(0.130214 0.00311387 -0.0217602)
(0.12779 -0.0010304 -0.0122739)
(0.133823 -0.0106063 0.0116399)
(0.163454 0.00247247 0.0315194)
(0.142416 0.0123802 0.00382599)
(0.13443 0.00300477 -0.0194189)
(0.129397 0.000915204 -0.0113223)
(0.134863 -0.0098344 0.0117169)
(0.161322 0.00209878 0.0295713)
(0.142638 0.0113182 0.00248553)
(0.13377 0.00214299 -0.0211654)
(0.127401 -0.00191173 -0.0105177)
(0.136619 -0.00936947 0.0142211)
(0.164323 0.00507707 0.0305791)
(0.136502 0.013064 0.00205472)
(0.127105 0.00417986 -0.0231942)
(0.1243 -0.000848359 -0.0127141)
(0.137914 -0.011114 0.0106584)
(0.163153 0.00468466 0.0305274)
(0.135008 0.0137227 0.00124893)
(0.126255 0.00311378 -0.022688)
(0.127056 -0.00254659 -0.0112354)
(0.135345 -0.0105951 0.0101635)
(0.161935 0.00176605 0.03103)
(0.14098 0.0118282 0.0038029)
(0.128288 0.00430316 -0.0228008)
(0.12921 -0.000825215 -0.0120392)
(0.134137 -0.00952292 0.00950268)
(0.161827 0.00276385 0.0291526)
(0.141152 0.011681 0.00369864)
(0.12955 0.00446642 -0.0217496)
(0.128174 -0.000606435 -0.0116508)
(0.134337 -0.0108362 0.010837)
(0.163996 0.00213609 0.02915)
(0.14104 0.0129513 0.00375911)
(0.13038 0.00456417 -0.0224805)
(0.12807 -0.00122582 -0.012531)
(0.134513 -0.0109617 0.00970524)
(0.164061 0.00279218 0.0303889)
(0.146316 0.0144394 0.00194227)
(0.139969 0.00381422 -0.0164631)
(0.138015 -0.000795038 -0.00560533)
(0.135658 -0.0113795 0.00942443)
(0.156944 0.000775064 0.0205915)
(0.148165 0.0132262 0.0013881)
(0.142555 0.00360114 -0.0150668)
(0.139065 0.00114444 -0.00459183)
(0.136489 -0.010371 0.00897139)
(0.155422 0.000583056 0.0192563)
(0.146921 0.0119832 -0.000435402)
(0.141584 0.00304696 -0.0168129)
(0.136798 -0.00161252 -0.00482401)
(0.13711 -0.0102493 0.0104177)
(0.158638 0.00389198 0.0205621)
(0.143076 0.013942 0.000923259)
(0.138452 0.00469072 -0.0166575)
(0.135949 -0.000986484 -0.0050969)
(0.137513 -0.0122291 0.00747629)
(0.157696 0.0032351 0.0204481)
(0.142407 0.0148542 0.00088519)
(0.137299 0.00389883 -0.0164493)
(0.136983 -0.0024852 -0.00532332)
(0.136488 -0.0114352 0.00808534)
(0.15497 0.000364388 0.0209165)
(0.144962 0.0127002 0.00140486)
(0.137986 0.00487656 -0.0170013)
(0.138564 -0.000660605 -0.00567685)
(0.135945 -0.010215 0.00764283)
(0.155827 0.00127701 0.0191445)
(0.145727 0.0125673 0.0013853)
(0.139598 0.0050458 -0.0159433)
(0.138584 -0.000522589 -0.00508538)
(0.135815 -0.0116174 0.00898148)
(0.156686 0.000597203 0.0186763)
(0.145273 0.0139354 0.00153663)
(0.139876 0.00525081 -0.0173091)
(0.138309 -0.00102958 -0.00587663)
(0.135809 -0.0116699 0.00797808)
(0.157073 0.00114245 0.0196693)
(0.145548 0.01273 -0.00225633)
(0.142686 0.00363472 -0.0118724)
(0.142261 -0.000225447 -0.000441902)
(0.13647 -0.0104654 0.00790862)
(0.146169 -0.000722028 0.0100037)
(0.146532 0.0117553 -0.00290877)
(0.143427 0.00351649 -0.011355)
(0.14302 0.00157669 0.000511544)
(0.137044 -0.00945609 0.0070308)
(0.145361 -0.000726106 0.00944576)
(0.14491 0.0105277 -0.00401783)
(0.142561 0.00310093 -0.012662)
(0.140983 -0.000879717 -0.000170476)
(0.136555 -0.00956602 0.00760994)
(0.147843 0.00248296 0.0105514)
(0.143867 0.0124662 -0.00168)
(0.142706 0.00431504 -0.0111349)
(0.141885 -0.000565622 0.000735051)
(0.136469 -0.01149 0.00568966)
(0.146722 0.00164695 0.0100217)
(0.1441 0.0135291 -0.00187897)
(0.141903 0.00383952 -0.0113292)
(0.141479 -0.00179452 -0.000679149)
(0.136541 -0.0105393 0.00658476)
(0.144572 -0.000807962 0.010931)
(0.14362 0.0112887 -0.00223101)
(0.141463 0.00446465 -0.0117574)
(0.142317 -0.000118922 -0.00066007)
(0.136643 -0.00938159 0.0066427)
(0.145539 -2.44192e-05 0.00962316)
(0.144197 0.0112969 -0.00219835)
(0.142552 0.00471977 -0.0110349)
(0.142935 -2.5654e-06 -1.43282e-06)
(0.13652 -0.0106551 0.00755779)
(0.145448 -0.000728932 0.00878611)
(0.144016 0.0124455 -0.00219728)
(0.142629 0.00489855 -0.0125749)
(0.142566 -0.000417864 -0.000656238)
(0.136428 -0.0106298 0.00686718)
(0.145768 -0.000357201 0.00921762)
(0.140982 0.00961638 -0.00422028)
(0.140433 0.0029424 -0.00777339)
(0.141388 0.000490062 0.00241922)
(0.137241 -0.00840546 0.00625162)
(0.137895 -0.00170744 0.00283834)
(0.141084 0.00892077 -0.00504618)
(0.140167 0.00303542 -0.00782422)
(0.141977 0.0019929 0.00317274)
(0.137656 -0.00760753 0.00527966)
(0.137734 -0.00154133 0.00297172)
(0.140239 0.00792645 -0.00521277)
(0.139818 0.00265712 -0.00874637)
(0.140659 3.6508e-05 0.00253027)
(0.136572 -0.00778152 0.0052485)
(0.138994 0.00117696 0.00341433)
(0.140634 0.00959105 -0.00294878)
(0.14089 0.00351174 -0.00674804)
(0.141917 0.000119109 0.00369599)
(0.136452 -0.00950105 0.00425482)
(0.138023 0.000276419 0.00256016)
(0.141108 0.0104451 -0.00365123)
(0.140729 0.00321383 -0.00737851)
(0.141085 -0.000845211 0.00194249)
(0.136838 -0.00851774 0.00507003)
(0.137118 -0.00154408 0.00384888)
(0.139641 0.00851019 -0.00390144)
(0.139829 0.00355511 -0.00730917)
(0.141352 0.000626639 0.00213227)
(0.137288 -0.00750984 0.00541547)
(0.137765 -0.00089208 0.00313595)
(0.139854 0.00866659 -0.00385518)
(0.140314 0.00385231 -0.00700648)
(0.141947 0.000690147 0.00270732)
(0.137326 -0.00857856 0.00594085)
(0.137401 -0.0016217 0.00219727)
(0.139835 0.00947383 -0.00391061)
(0.140445 0.00403071 -0.00826265)
(0.141701 0.000374418 0.00232668)
(0.137159 -0.00848716 0.00548981)
(0.13749 -0.00139731 0.0021546)
(0.137079 0.00670796 -0.00331241)
(0.137933 0.00224861 -0.00455162)
(0.139406 0.000949575 0.00313323)
(0.137828 -0.00617386 0.00458373)
(0.134759 -0.00187525 0.00023103)
(0.136765 0.00617049 -0.00424734)
(0.137384 0.00251405 -0.00487202)
(0.139889 0.00208646 0.00367882)
(0.13813 -0.00568055 0.00371982)
(0.134854 -0.00162305 0.000608118)
(0.136726 0.00543063 -0.00400818)
(0.137399 0.00213061 -0.00556438)
(0.139124 0.000672296 0.00315402)
(0.137146 -0.00574475 0.0034767)
(0.135158 0.000350264 0.000525887)
(0.137271 0.00683374 -0.00231895)
(0.138293 0.0027972 -0.00370212)
(0.140139 0.000566511 0.00416014)
(0.137079 -0.00719475 0.00307562)
(0.134481 -0.000417974 -0.0002246)
(0.137607 0.00737677 -0.00308914)
(0.13847 0.00253404 -0.00443652)
(0.139454 -0.000136557 0.00262268)
(0.1373 -0.00632028 0.00369884)
(0.134512 -0.00163667 0.000989799)
(0.136416 0.00583852 -0.00318931)
(0.137524 0.0027273 -0.00410873)
(0.13944 0.001091 0.00287283)
(0.137748 -0.00550804 0.00403241)
(0.134847 -0.00113266 0.000681413)
(0.136455 0.00605947 -0.00313719)
(0.13777 0.00301515 -0.00404118)
(0.139846 0.00109049 0.00325171)
(0.137911 -0.00634607 0.00430891)
(0.134601 -0.00180239 -9.01444e-05)
(0.13633 0.00662289 -0.00304461)
(0.137885 0.00319891 -0.00485598)
(0.13973 0.000883981 0.00313222)
(0.137701 -0.00622811 0.00399892)
(0.134548 -0.00163538 -0.000267215)
(0.135473 0.00447071 -0.00186065)
(0.1367 0.00167692 -0.00256752)
(0.138159 0.0010672 0.0026754)
(0.137807 -0.00434268 0.00314218)
(0.134562 -0.00164177 -0.00013943)
(0.13512 0.00404122 -0.00266047)
(0.136167 0.00200937 -0.00293425)
(0.138577 0.00193477 0.00306024)
(0.138034 -0.00410667 0.0024341)
(0.134628 -0.00138816 0.000145215)
(0.135403 0.00350253 -0.00244643)
(0.136299 0.00165105 -0.00346467)
(0.138055 0.000941517 0.00263774)
(0.13735 -0.00404539 0.00223275)
(0.134612 2.24233e-06 3.01926e-05)
(0.135719 0.00464316 -0.0012452)
(0.136934 0.00217998 -0.00194322)
(0.138825 0.000757363 0.00344945)
(0.13726 -0.00520715 0.00207576)
(0.1341 -0.000546423 -0.000510587)
(0.135906 0.00495782 -0.00179977)
(0.137151 0.00191959 -0.0025435)
(0.138333 0.000242536 0.00228075)
(0.137331 -0.00450996 0.00257871)
(0.134456 -0.00142926 0.000382151)
(0.135175 0.00379057 -0.00193108)
(0.136362 0.0020568 -0.00222738)
(0.138246 0.00119647 0.00249905)
(0.137701 -0.00388438 0.00280252)
(0.13465 -0.00107678 0.000262532)
(0.135163 0.00402065 -0.00183823)
(0.136534 0.00229548 -0.0022383)
(0.138516 0.00117044 0.00269714)
(0.137878 -0.0044921 0.00291895)
(0.134516 -0.00161492 -0.000356498)
(0.134924 0.00440084 -0.00169228)
(0.136585 0.00248325 -0.0027294)
(0.138455 0.00106505 0.00272003)
(0.137681 -0.00436255 0.00270872)
(0.134432 -0.00146879 -0.000465807)
(0.135226 0.00285896 -0.000986431)
(0.136238 0.00122504 -0.00147225)
(0.137494 0.000997515 0.00191537)
(0.137524 -0.00295158 0.00206054)
(0.135013 -0.00137559 -9.62954e-05)
(0.134937 0.00252455 -0.00156071)
(0.135798 0.00157754 -0.00182081)
(0.137861 0.0016794 0.00216425)
(0.137704 -0.00288579 0.00151186)
(0.135019 -0.00113286 6.03391e-05)
(0.13524 0.00213497 -0.00144349)
(0.13592 0.00125825 -0.00219085)
(0.137442 0.000964452 0.00185604)
(0.137242 -0.00273508 0.0013913)
(0.135007 -0.000157947 6.28376e-05)
(0.13541 0.00301819 -0.000584281)
(0.136403 0.00166976 -0.00102236)
(0.138031 0.000747589 0.00248228)
(0.137122 -0.00363861 0.00135752)
(0.134595 -0.000528803 -0.000331038)
(0.135539 0.00318197 -0.000939592)
(0.136566 0.0014138 -0.00144881)
(0.137676 0.00035823 0.00166362)
(0.137139 -0.00313669 0.0017508)
(0.134934 -0.0011843 0.000285915)
(0.135062 0.00233177 -0.00110252)
(0.135961 0.00154094 -0.00121525)
(0.137594 0.00110094 0.00182258)
(0.13744 -0.00265671 0.00188844)
(0.135073 -0.000961432 0.000251031)
(0.135033 0.00253962 -0.000981713)
(0.136098 0.00172975 -0.00125106)
(0.137776 0.00106998 0.00188103)
(0.137586 -0.00306538 0.00190735)
(0.135008 -0.00137007 -0.000266937)
(0.134793 0.00278135 -0.000901742)
(0.136105 0.00189706 -0.00156218)
(0.137734 0.00102369 0.00195621)
(0.137419 -0.0029443 0.00178558)
(0.134914 -0.00123873 -0.000295361)
(0.135329 0.00173898 -0.000537914)
(0.136029 0.000890712 -0.00084574)
(0.137051 0.000867089 0.00124194)
(0.137205 -0.0019544 0.00130054)
(0.13541 -0.00110632 -4.23441e-05)
(0.135102 0.00148345 -0.000917271)
(0.135682 0.00121999 -0.00114862)
(0.137368 0.00139536 0.00139738)
(0.137349 -0.00198861 0.000880659)
(0.135377 -0.000897726 1.78607e-05)
(0.135352 0.00120982 -0.000869508)
(0.135772 0.000951166 -0.00139845)
(0.137021 0.000903433 0.00118978)
(0.137037 -0.00177607 0.000830735)
(0.135422 -0.000245551 0.000107267)
(0.135462 0.0018615 -0.000255798)
(0.136154 0.00125938 -0.000525176)
(0.137472 0.000673784 0.00165155)
(0.136903 -0.00247285 0.000873896)
(0.135097 -0.000468316 -0.000179568)
(0.135574 0.00193113 -0.000484248)
(0.136264 0.00101914 -0.000813207)
(0.137211 0.000379621 0.00110932)
(0.136902 -0.00213947 0.00116029)
(0.13534 -0.000958687 0.000244972)
(0.135215 0.001329 -0.000633842)
(0.135809 0.00114425 -0.000650466)
(0.137148 0.000946952 0.00121822)
(0.137144 -0.00176667 0.00123925)
(0.135449 -0.00082938 0.000245921)
(0.135182 0.00151037 -0.000517149)
(0.135917 0.00128473 -0.000696439)
(0.137273 0.000917159 0.00118675)
(0.137257 -0.00202694 0.00120548)
(0.135431 -0.00112063 -0.000177394)
(0.134989 0.0016493 -0.000510907)
(0.135903 0.00143135 -0.000900732)
(0.137235 0.000911041 0.00127886)
(0.137116 -0.00192482 0.00113909)
(0.135331 -0.000992308 -0.000153596)
(0.135443 0.000999472 -0.000287071)
(0.1359 0.000638834 -0.00046398)
(0.136707 0.000720472 0.000753237)
(0.136904 -0.00125729 0.000780873)
(0.135654 -0.000869152 -2.09756e-05)
(0.135273 0.000804679 -0.000534458)
(0.135635 0.000928228 -0.000726546)
(0.136972 0.00112868 0.000841006)
(0.137018 -0.00134159 0.00046838)
(0.135602 -0.000694669 -1.42666e-05)
(0.135466 0.000620638 -0.000526107)
(0.135698 0.000712548 -0.000883963)
(0.136689 0.000793652 0.000715073)
(0.136818 -0.00110618 0.000463259)
(0.135691 -0.000269645 0.000118051)
(0.135548 0.00107818 -9.21716e-05)
(0.135994 0.000928927 -0.000245593)
(0.13703 0.000568566 0.00104235)
(0.136683 -0.00164834 0.000549749)
(0.135436 -0.000399639 -8.51594e-05)
(0.135644 0.00108941 -0.000236587)
(0.136066 0.000718243 -0.000431748)
(0.136837 0.00034847 0.000696815)
(0.136673 -0.0014374 0.000745293)
(0.135594 -0.000759377 0.000201137)
(0.135362 0.000675428 -0.000356592)
(0.13573 0.000840331 -0.00032304)
(0.136793 0.000773531 0.000771458)
(0.136862 -0.00114536 0.000789938)
(0.135681 -0.000691106 0.000217539)
(0.135331 0.000825596 -0.000262112)
(0.135814 0.00094363 -0.000371704)
(0.136878 0.000750182 0.000691887)
(0.136948 -0.00130148 0.000727646)
(0.135693 -0.000890963 -0.000118057)
(0.135186 0.000896332 -0.000299743)
(0.135788 0.00106367 -0.000506487)
(0.136839 0.000761602 0.000782026)
(0.136828 -0.00121906 0.000703638)
(0.135592 -0.000777779 -7.05351e-05)
(0.13552 0.000538494 -0.000144293)
(0.13581 0.00045622 -0.000237103)
(0.136427 0.000574726 0.000425651)
(0.136631 -0.000785293 0.000444261)
(0.135775 -0.000662868 -1.51198e-05)
(0.135398 0.000393535 -0.000303254)
(0.135611 0.000691942 -0.000456049)
(0.136641 0.000885949 0.000471794)
(0.136718 -0.000887977 0.000214091)
(0.135717 -0.000523276 -3.66189e-05)
(0.135543 0.000275034 -0.000319196)
(0.135656 0.000529226 -0.000556627)
(0.136418 0.00066752 0.000403556)
(0.136597 -0.000654942 0.000234312)
(0.135826 -0.000261357 0.000109055)
(0.135609 0.000577061 -1.2103e-05)
(0.135879 0.000665476 -9.16669e-05)
(0.136671 0.000457628 0.000629063)
(0.136474 -0.0010785 0.000339946)
(0.135628 -0.000331261 -2.9835e-05)
(0.135687 0.000556609 -9.86746e-05)
(0.135926 0.000493901 -0.000208119)
(0.13653 0.000295882 0.000418987)
(0.136455 -0.000951337 0.000465492)
(0.135725 -0.000590081 0.000157196)
(0.135464 0.000282219 -0.000189352)
(0.135682 0.000604833 -0.000139051)
(0.136501 0.000604375 0.000468749)
(0.136601 -0.000723454 0.000488872)
(0.135794 -0.000559135 0.000178224)
(0.135438 0.00040092 -0.000122074)
(0.135745 0.000680515 -0.000185603)
(0.136558 0.000588541 0.00036909)
(0.136667 -0.000809927 0.000417148)
(0.135821 -0.000692846 -8.01361e-05)
(0.135332 0.000427013 -0.000177153)
(0.135713 0.000775007 -0.000274444)
(0.136517 0.000610136 0.000452444)
(0.136563 -0.000745018 0.000416356)
(0.135724 -0.000597874 -2.55003e-05)
(0.135559 0.000273279 -6.35671e-05)
(0.135739 0.000322094 -0.000107513)
(0.136196 0.000445026 0.000223892)
(0.136382 -0.000473041 0.000237629)
(0.135806 -0.000492059 -1.64683e-05)
(0.135477 0.000165061 -0.000167851)
(0.135596 0.000505669 -0.000286407)
(0.136362 0.000678663 0.000242762)
(0.136447 -0.000573985 7.03643e-05)
(0.135752 -0.00038119 -4.89583e-05)
(0.135583 9.2138e-05 -0.000194419)
(0.135628 0.000388345 -0.000348748)
(0.136194 0.000538705 0.000214152)
(0.136382 -0.000364361 0.000102116)
(0.135865 -0.000228471 9.14707e-05)
(0.135637 0.00027756 2.24651e-05)
(0.13579 0.000462062 -1.40747e-05)
(0.136378 0.000352499 0.000365509)
(0.136277 -0.000696077 0.00020814)
(0.135713 -0.000265972 5.20363e-07)
(0.135697 0.000244016 -2.34095e-05)
(0.13582 0.000326086 -8.3095e-05)
(0.136274 0.000233552 0.000244074)
(0.136252 -0.000622017 0.00028418)
(0.135768 -0.000447674 0.00011793)
(0.135523 6.55463e-05 -9.02561e-05)
(0.135647 0.000426888 -4.19245e-05)
(0.136257 0.000452204 0.000276533)
(0.136361 -0.000445634 0.000294775)
(0.135821 -0.000437178 0.000138024)
(0.135503 0.000157058 -4.91269e-05)
(0.135693 0.000478732 -8.41766e-05)
(0.136296 0.000445359 0.000174648)
(0.136412 -0.000488358 0.000224395)
(0.135854 -0.000525662 -5.57809e-05)
(0.135426 0.000158695 -0.000104933)
(0.13566 0.000547711 -0.000142933)
(0.136252 0.000466433 0.000246854)
(0.136321 -0.000437731 0.000238317)
(0.135764 -0.000447129 -4.79057e-06)
(0.135563 0.000131621 -2.21105e-05)
(0.135675 0.000227033 -3.96745e-05)
(0.136 0.000335027 0.000107215)
(0.136156 -0.000271861 0.000118706)
(0.135779 -0.000351202 -1.8532e-05)
(0.135513 5.36984e-05 -9.15889e-05)
(0.135576 0.00036129 -0.000180257)
(0.136125 0.000504695 0.000110604)
(0.136204 -0.000361039 -2.9967e-06)
(0.135731 -0.000266195 -5.24585e-05)
(0.135589 1.03954e-05 -0.000120997)
(0.135599 0.000282055 -0.000219489)
(0.136004 0.000418874 0.000105743)
(0.136175 -0.000184581 3.22525e-05)
(0.135837 -0.000185002 7.1613e-05)
(0.135635 0.000112415 3.30733e-05)
(0.135714 0.000310484 1.98165e-05)
(0.136134 0.000261521 0.000206255)
(0.136091 -0.00044234 0.000128247)
(0.135722 -0.000207866 1.51429e-05)
(0.135677 7.58192e-05 1.31737e-05)
(0.135733 0.000205747 -1.85806e-05)
(0.136059 0.000171963 0.000142722)
(0.136062 -0.000401901 0.000171592)
(0.135749 -0.000330412 8.60969e-05)
(0.135544 -3.78351e-05 -3.38919e-05)
(0.135612 0.000294552 4.48089e-06)
(0.13605 0.000322794 0.000160691)
(0.136142 -0.000268062 0.000174533)
(0.135789 -0.000330113 0.000102653)
(0.13553 3.1275e-05 -1.44082e-05)
(0.135644 0.000327763 -3.26763e-05)
(0.136077 0.000325335 6.66774e-05)
(0.136182 -0.000285127 0.000111671)
(0.135823 -0.000387826 -3.93155e-05)
(0.135474 2.02737e-05 -6.2435e-05)
(0.135612 0.000373779 -7.19658e-05)
(0.136033 0.00034049 0.000128265)
(0.1361 -0.000244701 0.000131186)
(0.135743 -0.000322833 3.75905e-06)
(0.135538 6.2914e-05 -2.54835e-06)
(0.135606 0.000159527 -7.68567e-06)
(0.135829 0.000245816 4.43739e-05)
(0.13595 -0.000144873 5.41126e-05)
(0.135711 -0.000239364 -1.9727e-05)
(0.135512 7.65259e-06 -5.10989e-05)
(0.135542 0.000252056 -0.00011587)
(0.135919 0.000366816 4.01887e-05)
(0.135986 -0.000216507 -3.42611e-05)
(0.135673 -0.000175377 -5.03584e-05)
(0.135563 -1.57532e-05 -7.73977e-05)
(0.135559 0.000202533 -0.000139398)
(0.135838 0.000314309 4.81414e-05)
(0.13598 -7.98322e-05 -9.5147e-09)
(0.135765 -0.000137423 5.28495e-05)