/*--------------------------------*- C++ -*----------------------------------*\
  =========                 |
  \\      /  F ield         | OpenFOAM: The Open Source CFD Toolbox
   \\    /   O peration     | Website:  https://openfoam.org
    \\  /    A nd           | Version:  10
     \\/     M anipulation  |
\*---------------------------------------------------------------------------*/
FoamFile
{
    format      ascii;
    class       volScalarField;
    location    "5";
    object      p;
}
// * * * * * * * * * * * * * * * * * * * * * * * * * * * * * * * * * * * * * //

dimensions      [0 2 -2 0 0 0 0];

internalField   nonuniform List<scalar> 
102400
(
0.000520499
0.000244255
-0.00163615
-0.00113174
0.000197355
0.00189854
0.00193748
-0.000460526
-6.35519e-05
0.00123667
0.00118848
0.00120904
-0.00170496
-0.00226411
0.000981849
0.00130279
0.00150593
0.000238612
-0.000715332
0.000187785
0.000371951
0.00104901
-0.000759709
-0.00182948
-0.000610027
0.00032411
0.00192361
-9.96906e-06
-0.0013795
0.000452855
0.00174809
0.00327443
0.000252265
-0.00180035
0.000276612
0.00126733
0.0023487
0.000184492
-0.0017455
-0.000947768
0.000406556
0.000405964
-0.00154027
-0.00134471
-0.000173465
0.00173234
0.00210215
-0.000338533
-0.000262646
0.00087604
0.00102869
0.00136605
-0.00157753
-0.00245244
0.000581529
0.00116088
0.00168465
0.000368378
-0.000882868
-0.000169064
0.000236951
0.0012176
-0.000639285
-0.00201759
-0.000995357
0.000191912
0.00211271
7.69979e-05
-0.00159197
7.77939e-05
0.00163522
0.00344248
0.000330442
-0.00198457
-8.88374e-05
0.00112159
0.00249435
0.000280323
-0.00193617
-0.00133433
-0.000408906
0.000236431
-0.00156969
-0.00183153
-0.00118112
0.000873682
0.00185736
-0.000350201
-0.000673318
-7.57801e-05
0.000187949
0.0011416
-0.00155591
-0.0028309
-0.000441661
0.000319566
0.0014662
0.00035756
-0.00125173
-0.00108583
-0.000570393
0.00101308
-0.000633936
-0.00239615
-0.00198085
-0.000639571
0.00192656
7.20021e-05
-0.00201543
-0.000933519
0.000832505
0.00327268
0.000307536
-0.00239566
-0.00105674
0.000296576
0.00225836
0.000253775
-0.0023446
-0.0023573
-0.00170076
-0.00044811
-0.00193325
-0.00256985
-0.00232446
-0.000357398
0.0010726
-0.000776227
-0.00130039
-0.0011326
-0.00107089
0.000403633
-0.00191207
-0.00340524
-0.00153428
-0.000957376
0.000698302
-4.93467e-05
-0.00186826
-0.00208739
-0.00178023
0.000256491
-0.00100724
-0.00298352
-0.00305542
-0.00194168
0.00117541
-0.000289963
-0.00263548
-0.00207139
-0.00046663
0.00259652
-3.10615e-05
-0.00306337
-0.00214409
-0.000941475
0.00151737
-0.000126267
-0.00299091
-0.0035047
-0.00268307
-0.0010891
-0.00239253
-0.00350899
-0.00357738
-0.00124986
0.000428637
-0.00133628
-0.00211854
-0.00220493
-0.00205759
-0.000239692
-0.00238411
-0.00417508
-0.00259538
-0.0019316
3.24361e-05
-0.000566717
-0.00271738
-0.00314274
-0.00264405
-0.000404433
-0.00151631
-0.0037725
-0.00413245
-0.00294189
0.000527217
-0.00075853
-0.00346433
-0.00324561
-0.00147994
0.00199328
-0.000460953
-0.0039704
-0.00327978
-0.00188014
0.000888555
-0.000600523
-0.00385806
-0.0046663
-0.00333695
-0.00131169
-0.00268049
-0.00455678
-0.00511607
-0.00191204
0.000203232
-0.00167652
-0.00304216
-0.00347295
-0.00279739
-0.000510154
-0.00265571
-0.00507056
-0.00383749
-0.00261997
-0.000205496
-0.000869337
-0.00368241
-0.00446412
-0.0032238
-0.000626264
-0.00183555
-0.00470785
-0.00541824
-0.00366011
0.000346366
-0.000999431
-0.00442131
-0.00468311
-0.00221322
0.00181893
-0.000724459
-0.00502695
-0.00465348
-0.00255238
0.000669324
-0.000902714
-0.00488883
-0.0060331
-0.00404281
-0.00131712
-0.00273001
-0.00551639
-0.00691253
-0.00275357
8.10612e-05
-0.00174325
-0.00385512
-0.00501505
-0.00365245
-0.000646744
-0.00268416
-0.00588011
-0.0053618
-0.00340982
-0.000254672
-0.000914201
-0.00455341
-0.00608793
-0.00392695
-0.000698182
-0.0018812
-0.00558307
-0.00700737
-0.00450169
0.000346954
-0.000959597
-0.00529258
-0.00646913
-0.00309665
0.001794
-0.000785256
-0.00605457
-0.00632435
-0.00335476
0.000594949
-0.000988043
-0.00591455
-0.00768722
-0.00508501
-0.0016356
-0.00279464
-0.00626858
-0.00858154
-0.00394707
-0.000515055
-0.00187618
-0.00445988
-0.00650028
-0.00484305
-0.00118374
-0.00278865
-0.00650497
-0.00684051
-0.00460661
-0.000614421
-0.00103746
-0.00523453
-0.00764161
-0.00499042
-0.00116838
-0.00199699
-0.00628136
-0.00855816
-0.00570952
-3.68371e-05
-0.00102578
-0.00595066
-0.00818295
-0.00435754
0.00133758
-0.000983491
-0.00692983
-0.0079265
-0.00452051
0.000111809
-0.0011488
-0.00679121
-0.00929543
-0.00620628
-0.0025069
-0.00313014
-0.00687707
-0.0100031
-0.00520182
-0.00177486
-0.00235333
-0.00499472
-0.00777864
-0.0060473
-0.00234468
-0.0032595
-0.00707354
-0.00812011
-0.00592919
-0.00146845
-0.00154331
-0.00584853
-0.00897065
-0.00613828
-0.00218181
-0.00248233
-0.00691831
-0.00991055
-0.00698034
-0.000980154
-0.00152257
-0.00649273
-0.00961532
-0.005677
0.000303548
-0.00160235
-0.00771168
-0.00930486
-0.00580247
-0.000916864
-0.00167399
-0.00757421
-0.0107169
-0.00721378
-0.00363102
-0.00358019
-0.00722629
-0.0110141
-0.0063784
-0.00344426
-0.00295743
-0.00539914
-0.00869628
-0.00706802
-0.00387893
-0.0038279
-0.00750264
-0.00905278
-0.00706118
-0.00261192
-0.00223716
-0.00631491
-0.00992616
-0.00723697
-0.00345117
-0.00308428
-0.0074266
-0.0108834
-0.00806345
-0.00224849
-0.00223186
-0.00679367
-0.0105824
-0.00685979
-0.00106994
-0.00233355
-0.0082799
-0.0103207
-0.00703993
-0.00216783
-0.00227075
-0.00811445
-0.0117769
-0.00780723
-0.00463656
-0.00395645
-0.00678563
-0.0112373
-0.00718973
-0.00434897
-0.00351415
-0.00518351
-0.00892541
-0.00758643
-0.00466019
-0.00428475
-0.00726893
-0.00934546
-0.0074892
-0.0038594
-0.00300621
-0.0060208
-0.0101564
-0.00800568
-0.00438731
-0.00368292
-0.00718882
-0.011092
-0.00854994
-0.00371954
-0.00302847
-0.00631971
-0.0107396
-0.00755199
-0.00278061
-0.00302698
-0.00796918
-0.0106283
-0.00787262
-0.00366022
-0.00280527
-0.00777175
-0.012046
-0.00778401
-0.005134
-0.00412794
-0.00563229
-0.0103801
-0.00734862
-0.00495624
-0.00386226
-0.00455881
-0.00815904
-0.00738515
-0.00504652
-0.00454909
-0.0065313
-0.00863834
-0.00713372
-0.00449031
-0.00359297
-0.00544771
-0.00939961
-0.00812612
-0.00478
-0.00414428
-0.00671035
-0.0101167
-0.00822713
-0.00446138
-0.00369575
-0.00545959
-0.00956091
-0.00745147
-0.00389768
-0.0035921
-0.00686133
-0.00985636
-0.00795951
-0.00455866
-0.00318863
-0.00643733
-0.0110548
-0.00649279
-0.00494423
-0.00471417
-0.00487848
-0.00726309
-0.00610631
-0.00507216
-0.00450828
-0.00386246
-0.00619969
-0.00588567
-0.00488464
-0.00520682
-0.00578691
-0.00675673
-0.00545158
-0.00445981
-0.00441485
-0.00475977
-0.00738275
-0.0067964
-0.00452972
-0.00497968
-0.00617975
-0.00795413
-0.00658152
-0.00430952
-0.00468362
-0.00471841
-0.00717728
-0.00600201
-0.00401115
-0.00439013
-0.00594716
-0.00789142
-0.00656789
-0.00456145
-0.00389233
-0.00554246
-0.00865641
-0.00423878
-0.00477514
-0.00527853
-0.00338777
-0.0040743
-0.00390476
-0.00524729
-0.00496639
-0.00223012
-0.0029933
-0.00353886
-0.00489741
-0.00578417
-0.00406678
-0.00356963
-0.00285186
-0.00448996
-0.00514241
-0.00304434
-0.00393662
-0.00428201
-0.00441788
-0.0057523
-0.00470205
-0.00450967
-0.00386628
-0.00406619
-0.0054695
-0.00326188
-0.00369319
-0.00346425
-0.0039941
-0.00503281
-0.00424975
-0.00457395
-0.0040513
-0.00440065
-0.0045242
-0.00389248
-0.00503045
-0.00210634
-0.00487732
-0.00546013
-0.0021944
-0.000882207
-0.00201588
-0.00563442
-0.00498399
-0.00103047
9.74022e-05
-0.00161644
-0.00531099
-0.00588381
-0.00271933
-0.000346384
-0.000778552
-0.00489598
-0.00540567
-0.00147358
-0.000425819
-0.00196479
-0.00478212
-0.00600884
-0.00347731
-0.000958463
-0.00151521
-0.00403617
-0.00568159
-0.0021753
-0.00025015
-0.001288
-0.00412589
-0.00524344
-0.0029565
-0.00103129
-0.00181433
-0.00436878
-0.00476755
-0.00255638
-0.00139891
-0.00102192
-0.00518945
-0.00493161
-0.000498638
0.00138618
-0.000928761
-0.00578874
-0.00433101
0.000181255
0.00214281
-0.000537752
-0.00539458
-0.00523668
-0.0013688
0.00186591
0.000299242
-0.00505971
-0.00489652
0.000179477
0.00205968
-0.000636222
-0.0051062
-0.00536714
-0.00189833
0.00159741
-0.000327918
-0.0042688
-0.00502397
-0.000898582
0.00224491
-0.000154007
-0.00436635
-0.00472648
-0.000640966
0.00153811
-0.000548012
-0.00475387
-0.00427038
-0.000870055
0.00123175
-0.000855931
-0.00502754
-0.00394111
0.000405261
0.00184814
-0.00068677
-0.00530879
-0.00331148
0.000954634
0.00245222
-0.000315059
-0.00485301
-0.00416378
-0.000300681
0.00224648
0.000380025
-0.00464081
-0.00393357
9.05523e-05
0.0027423
-0.000395244
-0.0049389
-0.00429886
-0.000742603
0.00237811
-0.000206916
-0.00428876
-0.00381285
0.000299811
0.00308177
-2.63683e-05
-0.0042652
-0.00366254
0.000447111
0.00235311
-0.000370357
-0.00431773
-0.00314281
0.000114217
0.0021952
-0.000747189
-0.00416249
-0.00272996
0.00164054
0.00239194
-0.000456104
-0.00426143
-0.00233427
0.00250423
0.00299559
-0.000134518
-0.00378528
-0.00297903
0.000828443
0.00262643
0.000409168
-0.00357666
-0.00290296
0.00130957
0.00300759
-0.000360494
-0.00410976
-0.00318316
0.000542722
0.0023996
-0.000229341
-0.00390675
-0.00292011
0.00155889
0.0032355
6.42891e-05
-0.0038167
-0.00266933
0.00150343
0.0023444
-0.000354301
-0.00367184
-0.00250002
0.0015404
0.00236234
-0.00117491
-0.00337675
-0.00177256
0.00173915
0.00167981
-0.000838917
-0.00330559
-0.00157203
0.0022522
0.00221071
-0.000556358
-0.0030006
-0.00208879
0.000778734
0.00182308
-0.000136762
-0.00280563
-0.00204624
0.00141751
0.00210522
-0.0008452
-0.00333637
-0.00224626
0.000548668
0.00140844
-0.0008339
-0.00335174
-0.00201322
0.00163121
0.00233722
-0.000476014
-0.00328394
-0.00178815
0.00152854
0.00144894
-0.000887797
-0.00303833
-0.00176057
0.00159096
0.00148719
-0.000815563
-0.00221332
-0.000897426
0.00192999
0.00175283
-0.000460868
-0.00205852
-0.000958966
0.00218904
0.00220378
-0.000302972
-0.00190733
-0.00129528
0.00115249
0.00184786
9.70455e-05
-0.00168501
-0.00125239
0.00158973
0.00202456
-0.000580186
-0.00214216
-0.00138353
0.000921864
0.0014118
-0.000592609
-0.00212971
-0.00111432
0.00188491
0.00239797
-0.000204646
-0.00218056
-0.00094339
0.00179118
0.00141379
-0.000668185
-0.00188686
-0.000895488
0.00175298
0.0015639
-0.000512134
-0.00168325
-0.000807561
0.00127676
0.00126566
-0.000144543
-0.00151392
-0.00109477
0.00138504
0.0016421
-0.000101784
-0.00142432
-0.00125905
0.000576649
0.00135841
0.000280944
-0.00127184
-0.00127253
0.000944184
0.00155238
-0.000346141
-0.00164877
-0.00125366
0.000451806
0.00107288
-0.000334586
-0.00153326
-0.00095258
0.00123789
0.00184994
-3.04344e-06
-0.00152504
-0.000952961
0.00107135
0.000974414
-0.00035917
-0.00131414
-0.000890827
0.00102069
0.0011266
0.00102355
-0.000306983
-0.000687366
0.000461494
0.00139108
0.00137228
-6.5385e-05
-0.00102305
0.000413169
0.00167632
0.00133673
3.1494e-05
-0.00102243
-0.000218278
0.00143073
0.00165366
5.17004e-05
-0.00113879
0.000167106
0.00166132
0.00113286
-0.0002453
-0.00106268
-0.000210415
0.00124856
0.0012594
-5.065e-05
-0.000775359
0.000337546
0.00176811
0.00148377
-9.10271e-05
-0.000915337
0.000223176
0.00120816
0.00117314
5.20515e-05
-0.000832945
0.000217428
0.00136254
0.000713223
-0.000409752
-0.00067921
0.000346616
0.00115052
0.000962953
-0.000187197
-0.000926437
0.000292787
0.00138956
0.000980086
-0.000125798
-0.000879472
-0.000212023
0.0011247
0.00123577
-9.44161e-05
-0.00100971
0.000152671
0.00141712
0.000821667
-0.000428887
-0.000945829
-0.000236863
0.000979437
0.000915618
-0.000207052
-0.000764502
0.000169878
0.00146883
0.00110022
-0.000342372
-0.000933033
0.000143232
0.000994539
0.000792587
-9.39057e-05
-0.000801644
0.000132644
0.00118324
0.00138592
0.000319206
-4.01444e-07
0.000927482
0.00171486
0.00164711
0.000606861
-0.000162426
0.000832615
0.00189065
0.00162159
0.000640579
-4.88245e-05
0.000527933
0.00163141
0.00176762
0.000696928
-9.60661e-05
0.000799464
0.00197783
0.00153959
0.000278793
-0.000172892
0.000436225
0.00154003
0.00157158
0.000518753
-1.94133e-06
0.000738639
0.00179729
0.00171349
0.000462274
-0.000104801
0.00076815
0.00159828
0.00143396
0.00059139
4.15675e-06
0.000770779
0.0017407
0.00174847
0.000299076
-0.000324488
0.000696274
0.001959
0.00198969
0.000615991
-0.000412899
0.000592306
0.00202859
0.00194112
0.000725988
-0.000209369
0.000377054
0.00176843
0.00196761
0.000688309
-0.000310704
0.00057564
0.00225327
0.00193437
0.00023251
-0.000485813
0.000228
0.00177549
0.00189704
0.000509773
-0.000268214
0.000456336
0.00199323
0.0021485
0.000566862
-0.000390046
0.000514438
0.0019305
0.00179031
0.000489607
-0.000276094
0.000597643
0.00198973
0.00164445
-2.11209e-06
-0.00040496
0.000952778
0.00223335
0.00190043
0.000250184
-0.000465114
0.000840053
0.00220243
0.00192179
0.00042313
-0.000352222
0.000683964
0.00197433
0.00179841
0.000416033
-0.000333006
0.000881963
0.00245136
0.00176921
-0.000115443
-0.000577481
0.000614411
0.00207416
0.00180311
0.000202876
-0.000376752
0.000751005
0.00227311
0.00210771
0.000232483
-0.000555342
0.00083441
0.00225107
0.00166828
9.52334e-05
-0.000341827
0.000941226
0.00222139
0.00180231
0.00077302
-5.27029e-05
0.000534524
0.00169787
0.00200715
0.00100843
-4.98575e-05
0.000461204
0.00163893
0.00197317
0.00106168
6.29124e-05
0.000406741
0.00150679
0.00186241
0.0010528
8.1265e-05
0.000465816
0.00181823
0.00197843
0.000753482
-2.83501e-05
0.000298304
0.00148766
0.00183527
0.000940553
2.73416e-05
0.000466875
0.00170249
0.00207147
0.000983204
-1.48234e-05
0.000472353
0.00165629
0.00179292
0.000838652
3.42732e-05
0.000568362
0.00169415
0.00247043
0.000750047
-0.00130122
-0.000651126
0.00180768
0.00275018
0.000869313
-0.00147373
-0.000618037
0.00179996
0.00256825
0.00100188
-0.00107779
-0.000680432
0.00159148
0.00243237
0.000930901
-0.00112698
-0.000789242
0.00186189
0.00282785
0.000844372
-0.00142283
-0.000999024
0.0014947
0.00259554
0.000932612
-0.00119454
-0.000592828
0.00160038
0.00251818
0.00111332
-0.00109421
-0.000786883
0.00165804
0.00256694
0.00076242
-0.00123286
-0.000536324
0.00171322
-0.000482178
-0.00186107
-0.00301412
-0.00223025
-0.000602697
-0.000373245
-0.0018366
-0.00301005
-0.00217843
-0.000698057
-0.000433758
-0.00164221
-0.00286348
-0.00227073
-0.000776244
-0.00057754
-0.00175922
-0.00290573
-0.00233549
-0.000539818
-0.000253339
-0.00185464
-0.0031545
-0.00247899
-0.000805196
-0.000433335
-0.00176155
-0.00291408
-0.00226278
-0.000833166
-0.00037436
-0.00150185
-0.0029
-0.00244352
-0.000754205
-0.000387555
-0.00183856
-0.00293854
-0.00220604
-0.000735879
-0.00421922
-0.0042402
-0.00474363
-0.00497929
-0.00466692
-0.00420779
-0.00415003
-0.00471671
-0.00502562
-0.0046186
-0.00417498
-0.00421194
-0.00464525
-0.00497439
-0.00472407
-0.00427065
-0.00429517
-0.00474041
-0.0050402
-0.00471929
-0.00417662
-0.00421061
-0.00474786
-0.00507867
-0.0048107
-0.0042898
-0.00422041
-0.00474265
-0.00501255
-0.00467673
-0.00424569
-0.00425272
-0.00469961
-0.0049972
-0.00464853
-0.00417781
-0.00431678
-0.00480311
-0.00498728
-0.00467279
4.03366e-05
0.00024235
-0.00140305
-0.00268804
-0.00178572
0.000196379
0.000484931
-0.00149386
-0.00282512
-0.0016991
7.0868e-05
0.000336375
-0.00124152
-0.00266661
-0.00176561
-3.04137e-05
0.000180853
-0.00126221
-0.00271331
-0.00181639
0.000232728
0.000441028
-0.00127968
-0.00278937
-0.00202278
-1.79518e-05
0.000349286
-0.00137973
-0.0026113
-0.00169604
-6.89969e-05
0.000293194
-0.00117224
-0.00262829
-0.00183495
6.52835e-05
0.000258891
-0.001427
-0.00259223
-0.0016959
0.0200803
0.0200276
0.0201957
0.0201515
0.0199614
0.0200385
0.0200847
0.0201158
0.0201321
0.0201215
0.020062
0.0201128
0.0202429
0.0201271
0.0201635
0.0200265
0.0199521
0.0202006
0.02005
0.0200695
0.0201222
0.0200419
0.0201845
0.0200602
0.0199412
0.0200273
0.0201348
0.0201738
0.0201202
0.0200569
0.019954
0.0200745
0.0202091
0.0201124
0.0200854
0.0200812
0.0200604
0.0201558
0.0201024
0.0200615
0.00213701
0.00787786
0.0155636
0.0147688
0.00662618
0.0021776
0.00948369
0.0161514
0.015297
0.0088139
0.00258834
0.00815544
0.0149009
0.0143129
0.00865057
0.00225998
0.00768942
0.0164933
0.0151848
0.00771257
0.00289886
0.00900576
0.0151694
0.0139446
0.00762268
0.00196811
0.00892596
0.0162568
0.0142432
0.0077636
0.00295941
0.0104288
0.0174785
0.0146835
0.00736871
0.00233689
0.00930884
0.0167338
0.0142349
0.00656508
0.00198169
0.00772355
0.0155361
0.0148209
0.00667497
0.0020257
0.00930621
0.0161241
0.0153474
0.00885798
0.00243602
0.00797105
0.0148635
0.01437
0.0087112
0.00212554
0.0074866
0.0164583
0.0152456
0.00774011
0.00273675
0.00883166
0.0151427
0.0139959
0.00765816
0.00180192
0.0087296
0.0162353
0.0143033
0.00781695
0.00278089
0.0102388
0.0174605
0.014748
0.00742026
0.00217933
0.00912886
0.0167163
0.014294
0.00661536
0.000992243
0.00702495
0.0151941
0.0144226
0.00588083
0.000996324
0.00852788
0.0157842
0.0149476
0.00804478
0.00142527
0.00720275
0.0145096
0.0139969
0.00790055
0.00113625
0.00665992
0.0161005
0.0148991
0.00693402
0.00173479
0.00807288
0.0147916
0.0136271
0.00685904
0.000787904
0.00792358
0.0159133
0.0139271
0.00697138
0.0017657
0.00946153
0.0171413
0.0143738
0.00658554
0.00117083
0.00834887
0.0163925
0.013915
0.00575407
-0.000653106
0.00566204
0.0143758
0.0136792
0.00484745
-0.000574575
0.00706369
0.0149263
0.0142232
0.00701739
-0.000172427
0.00576229
0.0136588
0.0133032
0.00691047
-0.000440032
0.00511346
0.0152287
0.0142252
0.0058974
0.0001209
0.00662668
0.0139273
0.0129583
0.00584223
-0.00086643
0.0063996
0.015093
0.0132347
0.00592798
0.000109788
0.00800481
0.0163395
0.0136632
0.00555163
-0.000418872
0.00688165
0.0155733
0.013205
0.00468099
-0.00241114
0.0039234
0.0132134
0.012734
0.00363442
-0.00220983
0.00529633
0.0136739
0.0132741
0.00586708
-0.00183092
0.00402291
0.0124295
0.0123941
0.0058239
-0.00201584
0.00322448
0.0139456
0.0133146
0.0047095
-0.00155856
0.00483691
0.012662
0.0120762
0.00471132
-0.00260916
0.0044616
0.0138477
0.0123204
0.00476593
-0.00167399
0.00613308
0.0151439
0.0127268
0.00437014
-0.00210211
0.00503478
0.0143654
0.0122955
0.00348719
-0.0042984
0.00190369
0.0116843
0.0115206
0.00219356
-0.00402117
0.00334781
0.0120766
0.0120332
0.0045404
-0.0036192
0.00210106
0.0108665
0.0111947
0.0045757
-0.00366599
0.00112855
0.0123017
0.0120827
0.00332044
-0.00337336
0.00284752
0.0110248
0.0109011
0.00344407
-0.00445457
0.002242
0.0122108
0.0111003
0.00344141
-0.00359509
0.00390359
0.0135508
0.0114888
0.00301074
-0.00392942
0.00288733
0.0127616
0.0111042
0.00214466
-0.00592985
-0.000176235
0.00996544
0.0101126
0.000787191
-0.00561891
0.00138997
0.0103739
0.0106191
0.00330815
-0.00515983
0.000192838
0.00919656
0.00978547
0.00341972
-0.00508576
-0.000924347
0.0105488
0.0106488
0.00200184
-0.00495312
0.000888777
0.00926785
0.00955153
0.0023098
-0.00600347
3.71792e-05
0.0104554
0.00965058
0.00222199
-0.00522095
0.0015963
0.0118186
0.0100393
0.00173241
-0.00553087
0.000658144
0.0110009
0.0096079
0.000900561
-0.00693172
-0.00189051
0.00826488
0.0086807
-0.000493213
-0.00656405
-9.26643e-05
0.00876401
0.00911828
0.00219766
-0.00609618
-0.0011983
0.00759142
0.00825947
0.00235858
-0.00601864
-0.00241462
0.00895115
0.00917817
0.000800756
-0.00591679
-0.000534447
0.00761425
0.0081645
0.00132997
-0.00695952
-0.00155182
0.00883504
0.00819126
0.00108735
-0.00627796
-0.000185888
0.0102157
0.00849246
0.000592307
-0.00654234
-0.00117291
0.00929232
0.0081175
-0.000225509
-0.00746797
-0.00267095
0.00716109
0.00740321
-0.00164135
-0.00708097
-0.000508853
0.00781835
0.00779462
0.001184
-0.0066388
-0.00151475
0.00663139
0.00688589
0.00145409
-0.00662993
-0.00299489
0.00810092
0.00793691
3.95443e-06
-0.00648286
-0.000986058
0.00663281
0.00696202
0.000450701
-0.0075612
-0.00214722
0.00789204
0.00694401
-2.25705e-05
-0.00706599
-0.000939152
0.00924352
0.00711007
-0.000454275
-0.00715538
-0.00200828
0.00814054
0.00678709
-0.00132023
-0.00800133
-0.00268307
0.00704428
0.00662542
-0.00249821
-0.00762802
-8.14259e-05
0.00776178
0.00725497
0.00032704
-0.00724357
-0.00102181
0.00659905
0.00624854
0.000567665
-0.00729941
-0.00302185
0.00810363
0.0080652
-0.000916016
-0.00711437
-0.000803209
0.00652793
0.00663132
-0.000235954
-0.00825054
-0.00223392
0.00775746
0.00691959
-0.000858545
-0.00800183
-0.00106247
0.00908858
0.00641576
-0.00128601
-0.00779399
-0.00210783
0.00785041
0.00614842
-0.00223792
-0.00836868
-0.00236689
0.00740114
0.00589002
-0.00275259
-0.00807003
-0.000333418
0.0074348
0.00642773
-9.82105e-05
-0.00764838
-0.00109332
0.00656187
0.00559421
9.3298e-05
-0.00770666
-0.00273176
0.00777332
0.00726899
-0.00131841
-0.00760189
-0.000883394
0.00644642
0.00606856
-0.000417432
-0.00864709
-0.00206672
0.00769318
0.00652203
-0.000971595
-0.00846958
-0.000709005
0.0090815
0.00592587
-0.00159328
-0.00819106
-0.0016631
0.00798635
0.00567915
-0.00254417
-0.00834549
-0.00205916
0.0072516
0.00550578
-0.00301983
-0.00805124
-0.000414319
0.00675441
0.00568797
-0.000684258
-0.007544
-0.00105545
0.00616905
0.0050925
-0.000669491
-0.00757262
-0.00231836
0.00714518
0.00653081
-0.00186002
-0.00766549
-0.000923473
0.00595632
0.00544223
-0.00107597
-0.00848895
-0.00202182
0.007254
0.00615348
-0.001349
-0.00822995
-0.000505038
0.00871184
0.00564364
-0.00199475
-0.00807595
-0.00138374
0.00771395
0.00542276
-0.00287301
-0.00806229
-0.00197632
0.00665573
0.0047366
-0.00327262
-0.00776346
-0.00074182
0.00575881
0.00468156
-0.00124698
-0.00720435
-0.00122039
0.00541231
0.00423095
-0.00139745
-0.00713236
-0.00209861
0.00627041
0.00548972
-0.00237922
-0.0075077
-0.00118204
0.00519275
0.00438742
-0.00176008
-0.00815145
-0.00226581
0.00652824
0.00537501
-0.00167232
-0.00784615
-0.000834529
0.00794684
0.0050231
-0.00241836
-0.00776266
-0.00145006
0.0070836
0.00478157
-0.00313508
-0.00733611
-0.00244921
0.00526873
0.00293971
-0.00365914
-0.00696244
-0.00155839
0.00404468
0.00285094
-0.00178971
-0.00647564
-0.00184653
0.00387995
0.00233825
-0.00215728
-0.00622216
-0.00235043
0.00469276
0.00352902
-0.00291933
-0.00690613
-0.00187856
0.00375473
0.00235675
-0.00248315
-0.007418
-0.00301811
0.00505204
0.00355841
-0.00208503
-0.0070701
-0.00185222
0.00639564
0.00339612
-0.00286953
-0.0070465
-0.00206402
0.00567827
0.00312018
-0.00339589
-0.00627605
-0.00291469
0.00373578
0.00126287
-0.00393029
-0.00587616
-0.00211773
0.00240895
0.00122671
-0.00225256
-0.00546769
-0.0022032
0.00236131
0.000606679
-0.00277022
-0.00505857
-0.002346
0.00309562
0.00169259
-0.00334409
-0.00597289
-0.00226275
0.00234483
0.000528094
-0.00304779
-0.00641206
-0.00352113
0.0035703
0.00180507
-0.00241115
-0.00601948
-0.00277662
0.00467077
0.00167974
-0.00322164
-0.00603778
-0.00257473
0.00411659
0.00142264
-0.00359778
-0.0050496
-0.00259222
0.00266971
0.000586922
-0.00346071
-0.0046366
-0.00197593
0.00140158
0.000562215
-0.00212235
-0.0042705
-0.00203179
0.00135385
-9.16142e-05
-0.00260224
-0.00383292
-0.00193674
0.00200422
0.00078406
-0.00304723
-0.00481894
-0.00195895
0.00136498
-0.000251217
-0.00284959
-0.00518938
-0.00316743
0.00255109
0.00100357
-0.00204032
-0.00477138
-0.00279627
0.00341894
0.000879482
-0.0028959
-0.00485073
-0.00211465
0.00301716
0.000655892
-0.00315319
-0.00346545
-0.0020808
0.00190908
0.000708033
-0.00207182
-0.00305504
-0.00164164
0.000780899
0.000707285
-0.00106037
-0.00270192
-0.0017084
0.000663483
4.40227e-05
-0.00141093
-0.00226895
-0.00149756
0.00121617
0.000634793
-0.00176639
-0.00326328
-0.00152627
0.000667428
-0.000181583
-0.00165647
-0.00349301
-0.00243629
0.00180063
0.000961096
-0.000819068
-0.0031231
-0.00234589
0.0024447
0.000862913
-0.00162734
-0.00322231
-0.0018023
0.00220198
0.000730772
-0.00179239
-0.00190411
-0.00170317
0.00164974
0.00139405
-0.000287379
-0.00154148
-0.00131835
0.00072722
0.00147974
0.000493911
-0.00120092
-0.00143739
0.000484305
0.000797654
0.000297919
-0.000780448
-0.00126225
0.000939107
0.00124953
-2.37067e-05
-0.00169395
-0.00121864
0.00048619
0.000542286
-1.27861e-05
-0.00176178
-0.00163762
0.00149517
0.00150338
0.000707027
-0.00148126
-0.0015927
0.00197884
0.00147182
1.48871e-05
-0.0015827
-0.00124855
0.00183339
0.0014436
-6.18861e-05
-0.000739692
-0.000988835
0.00193525
0.00220669
0.00113107
-0.000421118
-0.000640916
0.00128774
0.00231059
0.00172084
-0.000115984
-0.000752198
0.000952444
0.00172555
0.00163419
0.000247566
-0.000621251
0.00132854
0.00209526
0.00137728
-0.000546854
-0.000596
0.000988894
0.00150079
0.00130107
-0.000543038
-0.000864296
0.00176868
0.00229055
0.0019169
-0.000280146
-0.000753438
0.00214139
0.00228943
0.00130323
-0.000381418
-0.000532857
0.00200204
0.00230676
0.00129573
5.85376e-05
-0.000130323
0.00251019
0.00303717
0.00190678
0.000349441
0.000246168
0.00213279
0.00308913
0.00236468
0.000604795
0.000180661
0.00180263
0.00265649
0.00228953
0.000864556
0.000236468
0.00208008
0.0029876
0.00214371
0.000239374
0.00018038
0.00185131
0.00251321
0.0019922
0.000228671
-0.000139919
0.00237685
0.00314322
0.00257604
0.000502948
8.36233e-05
0.00274266
0.00316466
0.00200862
0.000407128
0.000271695
0.00253443
0.00315968
0.00202564
0.000598066
0.000581571
0.00302178
0.00364695
0.00231606
0.000859915
0.000976753
0.00283883
0.00363401
0.00271192
0.00106426
0.000902606
0.00256581
0.00337357
0.00260223
0.00122684
0.00093986
0.0027813
0.00365186
0.00250062
0.000728363
0.00080611
0.00262833
0.00329299
0.00234303
0.000687352
0.00050916
0.00297276
0.0037933
0.00288962
0.000997954
0.000686438
0.00331264
0.00380065
0.00239082
0.000879212
0.000898792
0.00304962
0.00374588
0.0024144
0.00116919
0.00133861
0.00333879
0.00377863
0.00243317
0.00135919
0.0017454
0.00327002
0.00370274
0.00276758
0.0015202
0.00161855
0.00308111
0.00358318
0.00262351
0.00166187
0.00167234
0.00319768
0.00378615
0.00254918
0.0012301
0.00149122
0.00310766
0.00354053
0.00241825
0.00122181
0.00125878
0.00336873
0.00394158
0.00289191
0.00150581
0.00141459
0.00363925
0.0039439
0.00248168
0.00136421
0.00161223
0.00337121
0.00382831
0.00253785
0.00169175
0.00198147
0.00331291
0.00350353
0.00244544
0.00178331
0.00237001
0.00330864
0.00339418
0.00271853
0.00191258
0.00220749
0.0032305
0.00339692
0.00256882
0.00205243
0.0022439
0.00319215
0.00350212
0.00250274
0.00170349
0.00210463
0.00321436
0.00336975
0.00240924
0.00170921
0.00194141
0.0034139
0.00363982
0.00276017
0.00194449
0.00206886
0.00355445
0.00367318
0.00248431
0.0018075
0.00222618
0.00334062
0.00350395
0.00258074
0.00260511
0.00274616
0.00341926
0.00359879
0.00302088
0.00264468
0.00311852
0.00347027
0.00348612
0.00322284
0.00274747
0.00295184
0.00347282
0.00355817
0.00307861
0.00287239
0.00293813
0.00331301
0.00362183
0.00304849
0.00263924
0.0028632
0.0034228
0.00352421
0.00296622
0.00261834
0.00273321
0.00354332
0.00369111
0.00320896
0.00278049
0.00283925
0.00359611
0.00376792
0.00302015
0.00265408
0.00296324
0.0034462
0.00359171
0.00316911
0.00347828
0.00350994
0.00371348
0.00393943
0.0037878
0.00351212
0.00383146
0.00379978
0.00385311
0.00391434
0.00359698
0.00368227
0.00386476
0.00395752
0.00375213
0.00366864
0.00362902
0.00364771
0.00400065
0.0038054
0.00359045
0.00361378
0.00378256
0.00388254
0.00367624
0.00349396
0.00351848
0.00384816
0.00397774
0.00386924
0.00360461
0.00361076
0.00384517
0.00407226
0.00377189
0.00350398
0.00367093
0.00374417
0.00394993
0.00391552
0.00462952
0.00438957
0.00413284
0.00440242
0.0048421
0.00471313
0.00460061
0.00423646
0.00436196
0.00482493
0.00478792
0.0045191
0.00417618
0.00445317
0.00471459
0.00474684
0.00446659
0.00412202
0.00450479
0.00485092
0.00476549
0.00439928
0.00409019
0.00437338
0.00468978
0.00461947
0.00437025
0.00415709
0.00439735
0.0048378
0.00480623
0.00449816
0.00417628
0.00449011
0.00479951
0.00465604
0.0045127
0.00411854
0.00444338
0.00490359
0.0056394
0.00530196
0.00501112
0.00537522
0.00601366
0.00577163
0.00538162
0.00515907
0.00541372
0.00588267
0.00584408
0.00538066
0.00503732
0.00545756
0.00580317
0.0057558
0.00535543
0.00508068
0.0055097
0.00592671
0.00585082
0.00521859
0.00500565
0.00545263
0.00575857
0.00564158
0.00527125
0.00498434
0.00541562
0.00597647
0.00581119
0.00535348
0.00509512
0.00551505
0.00588831
0.00565975
0.00531456
0.00505406
0.0055309
0.00595217
0.00319127
0.00308626
0.00266595
0.0027988
0.00328512
0.00323222
0.00306594
0.00286008
0.00277814
0.00311573
0.00337276
0.00307977
0.00276384
0.00288411
0.00304098
0.00326051
0.00310867
0.0027935
0.0028183
0.00307192
0.00332729
0.00297267
0.00270095
0.00284831
0.00296101
0.00315559
0.0030883
0.00270718
0.00282765
0.00316361
0.00323934
0.00309127
0.00277843
0.00283171
0.00313339
0.0032345
0.00302143
0.00274565
0.00288563
0.003102
0.000943948
0.000775705
0.000142233
0.000245527
0.000753227
0.000889068
0.000761489
0.000328726
0.000199329
0.000684607
0.00100443
0.000762578
0.000314451
0.000203365
0.000667491
0.00100536
0.000696291
0.000291197
0.000110218
0.000642066
0.00115063
0.000638411
0.000209588
0.000232186
0.000502948
0.000952304
0.000724882
0.000133814
0.000263819
0.000649121
0.00088104
0.000788445
0.000336085
0.000214126
0.000590027
0.000919695
0.000708997
0.000314977
0.000286303
0.000557768
-0.0126781
-0.0126334
-0.0122492
-0.0119508
-0.0123229
-0.0128106
-0.0125893
-0.0120648
-0.0120083
-0.0123202
-0.0126107
-0.0126265
-0.0121822
-0.0119409
-0.0123253
-0.0126701
-0.0126488
-0.012262
-0.0120168
-0.0123753
-0.0127563
-0.0126943
-0.0122002
-0.0119616
-0.0124007
-0.0127899
-0.0126755
-0.0122268
-0.0120609
-0.0123723
-0.0126861
-0.0126826
-0.0122825
-0.0120643
-0.012308
-0.0126523
-0.012652
-0.012227
-0.0120711
-0.0124066
0.00405157
0.00457944
0.00413829
0.00337084
0.00321851
0.00402319
0.00469929
0.00420798
0.00324712
0.00326804
0.00405301
0.00453288
0.00424316
0.0033032
0.00322343
0.00408093
0.004412
0.00416497
0.0033151
0.00309429
0.0041517
0.00461539
0.00416538
0.00335765
0.00307939
0.00395851
0.00457167
0.00407829
0.00332759
0.00330406
0.00392357
0.00446034
0.00426537
0.00338709
0.0032053
0.00398689
0.00448663
0.00415198
0.003352
0.0032134
0.0144756
0.0143842
0.0143531
0.0142934
0.0142385
0.0144166
0.0145094
0.0144051
0.0142069
0.0143361
0.0144684
0.0144429
0.0144449
0.014193
0.0143191
0.0144016
0.0142662
0.0143771
0.0141275
0.0141996
0.0144763
0.0143478
0.0143558
0.0142124
0.0141249
0.0143659
0.0144447
0.014329
0.0142247
0.0142814
0.014352
0.0144028
0.0143746
0.0141939
0.0142733
0.0144408
0.01439