/*--------------------------------*- C++ -*----------------------------------*\
  =========                 |
  \\      /  F ield         | OpenFOAM: The Open Source CFD Toolbox
   \\    /   O peration     | Website:  https://openfoam.org
    \\  /    A nd           | Version:  10
     \\/     M anipulation  |
\*---------------------------------------------------------------------------*/
FoamFile
{
    format      ascii;
    class       volScalarField;
    location    "5";
    object      pPrime2Mean;
}
// * * * * * * * * * * * * * * * * * * * * * * * * * * * * * * * * * * * * * //

dimensions      [0 4 -4 0 0 0 0];

internalField   nonuniform List<scalar> 
102400
(
3.99319e-06
3.00447e-06
5.11168e-05
1.41483e-05
3.1328e-05
9.14956e-05
3.86059e-06
3.47452e-05
1.66536e-05
2.16748e-06
5.98879e-06
3.28014e-06
5.64033e-06
2.69196e-05
9.69941e-06
3.28471e-06
5.52645e-06
2.19114e-05
1.02509e-05
2.06411e-05
9.15216e-06
7.43845e-06
5.14564e-06
2.27757e-06
2.1403e-06
1.99028e-06
5.32099e-06
5.56877e-06
6.07526e-06
2.61634e-05
2.19978e-06
3.99225e-05
2.24067e-06
4.11451e-05
2.86933e-06
1.51156e-05
1.54049e-06
2.11752e-06
1.11721e-05
1.45731e-06
1.60278e-06
7.98908e-06
7.41821e-05
2.4998e-05
1.94258e-05
6.55947e-05
2.52861e-06
5.24993e-05
2.86373e-05
4.37646e-06
1.25836e-05
6.05709e-06
1.17925e-05
4.27542e-05
1.85885e-05
6.62757e-06
1.16097e-05
3.62346e-05
2.03194e-05
1.11678e-05
3.92434e-06
1.43573e-05
1.00562e-05
3.3029e-06
2.74693e-06
2.19852e-06
2.30737e-06
2.19441e-06
1.98458e-06
1.52007e-05
5.69104e-06
5.80674e-05
2.83005e-06
2.57319e-05
3.33795e-06
2.73661e-05
3.4734e-06
7.08626e-06
2.29242e-05
4.66245e-06
5.23707e-06
2.52101e-06
5.04338e-05
1.27727e-05
3.57341e-05
9.11557e-05
4.78527e-06
3.19808e-05
1.38397e-05
2.10148e-06
5.33181e-06
3.16204e-06
5.15561e-06
2.63181e-05
8.74245e-06
2.92005e-06
4.66903e-06
2.07891e-05
9.04181e-06
2.4053e-05
1.15392e-05
5.59792e-06
4.11236e-06
2.40068e-06
2.47357e-06
2.92963e-06
7.49068e-06
6.43172e-06
6.61984e-06
2.7468e-05
2.1205e-06
3.68791e-05
2.52051e-06
4.29074e-05
3.16554e-06
1.28356e-05
1.76725e-06
1.62033e-06
1.05154e-05
1.27568e-06
2.23769e-06
5.08883e-06
7.14415e-05
2.43595e-05
2.62e-05
7.9234e-05
4.03961e-06
3.60859e-05
1.73585e-05
2.50835e-06
9.73801e-06
4.45221e-06
8.39576e-06
3.66309e-05
1.41189e-05
5.11682e-06
8.3409e-06
2.97461e-05
1.53078e-05
1.63724e-05
6.29409e-06
9.93099e-06
7.55225e-06
2.67979e-06
2.30342e-06
1.79886e-06
3.39802e-06
3.24227e-06
2.60885e-06
1.76503e-05
4.77108e-06
4.76872e-05
2.18319e-06
3.44893e-05
2.57586e-06
2.05461e-05
1.64353e-06
3.21656e-06
1.70453e-05
3.28774e-06
2.71883e-06
2.94831e-06
5.79062e-05
2.27724e-05
2.69893e-05
9.87925e-05
1.0141e-05
2.37996e-05
1.2158e-05
2.25008e-06
6.20161e-06
3.72302e-06
5.81463e-06
3.01749e-05
1.07147e-05
3.5664e-06
5.52005e-06
2.21883e-05
1.08818e-05
2.04854e-05
8.8444e-06
6.11834e-06
4.6007e-06
2.38666e-06
1.9032e-06
1.63806e-06
5.2035e-06
6.155e-06
4.47005e-06
2.03907e-05
3.28549e-06
4.15193e-05
2.7423e-06
4.08084e-05
2.80688e-06
1.66033e-05
1.59736e-06
1.78776e-06
1.18618e-05
2.27634e-06
1.61126e-06
4.84597e-06
5.97674e-05
2.50594e-05
1.78319e-05
8.25273e-05
9.5853e-06
1.99345e-05
1.21337e-05
2.39736e-06
6.57835e-06
3.85221e-06
7.18222e-06
3.65638e-05
1.24052e-05
3.96605e-06
7.61883e-06
2.58863e-05
1.16617e-05
1.73777e-05
6.08547e-06
7.53419e-06
5.89116e-06
2.59511e-06
2.4097e-06
1.77797e-06
3.79673e-06
4.70954e-06
3.49599e-06
1.54391e-05
5.67236e-06
4.87869e-05
1.88381e-06
2.78993e-05
2.29609e-06
1.78982e-05
1.89495e-06
3.23492e-06
1.52613e-05
2.99832e-06
2.39568e-06
7.46173e-06
6.57017e-05
2.3594e-05
1.67708e-05
6.85045e-05
1.00423e-05
1.23948e-05
4.99072e-06
2.10908e-06
6.46666e-06
3.29519e-06
4.98542e-06
3.17219e-05
1.13423e-05
4.08928e-06
7.8103e-06
2.56483e-05
9.12154e-06
2.26185e-05
7.69087e-06
6.84307e-06
5.66597e-06
3.24001e-06
2.62875e-06
1.88934e-06
5.52533e-06
5.27579e-06
5.26708e-06
1.74347e-05
6.18907e-06
4.55003e-05
1.82938e-06
2.30967e-05
2.07989e-06
1.55523e-05
1.59722e-06
3.69308e-06
1.43607e-05
1.83817e-06
2.30313e-06
1.14357e-05
7.63841e-05
2.96223e-05
1.27128e-05
5.14136e-05
5.81657e-06
1.10105e-05
3.74717e-06
3.31425e-06
1.05601e-05
3.87892e-06
4.53029e-06
2.73997e-05
1.21522e-05
4.59596e-06
8.30135e-06
3.26202e-05
9.91624e-06
2.44383e-05
8.27518e-06
8.13634e-06
5.97171e-06
3.12864e-06
2.47889e-06
2.00851e-06
6.61981e-06
5.23331e-06
6.79034e-06
2.05968e-05
6.60429e-06
4.7331e-05
2.19121e-06
1.93898e-05
1.74486e-06
1.73996e-05
1.82673e-06
5.92743e-06
1.89212e-05
1.87594e-06
1.61403e-06
1.10835e-05
6.71649e-05
3.02115e-05
1.08564e-05
4.57475e-05
5.10412e-06
1.31211e-05
6.10601e-06
5.17117e-06
1.58714e-05
5.40789e-06
3.96034e-06
2.76686e-05
1.28908e-05
5.65582e-06
7.06323e-06
3.70589e-05
1.53007e-05
2.52323e-05
8.80062e-06
9.27993e-06
5.78501e-06
3.19312e-06
2.62283e-06
2.97438e-06
7.85318e-06
6.53609e-06
7.83788e-06
2.32541e-05
6.22613e-06
4.90833e-05
1.81014e-06
1.91162e-05
2.23426e-06
1.6867e-05
2.66416e-06
5.64713e-06
2.3585e-05
1.44355e-06
1.38111e-06
1.49335e-05
6.9669e-05
2.69848e-05
8.81276e-06
3.8532e-05
6.8037e-06
1.78551e-05
9.73606e-06
8.34804e-06
2.6357e-05
6.50883e-06
3.83272e-06
2.50387e-05
1.46652e-05
7.2413e-06
8.67428e-06
3.03962e-05
2.07847e-05
2.07402e-05
8.15245e-06
1.24554e-05
6.42564e-06
2.90315e-06
2.58052e-06
3.63764e-06
9.30373e-06
6.36512e-06
7.77066e-06
1.97823e-05
5.36639e-06
4.57405e-05
1.50633e-06
1.62713e-05
2.20769e-06
1.67936e-05
3.42604e-06
7.32684e-06
2.70831e-05
1.29311e-06
2.96643e-06
1.88801e-05
7.14536e-05
2.55899e-05
8.35006e-06
3.17873e-05
7.23309e-06
1.91104e-05
1.13469e-05
9.8281e-06
3.52774e-05
4.35357e-06
2.96012e-06
1.95878e-05
1.20001e-05
5.50975e-06
1.13645e-05
2.22176e-05
1.37885e-05
2.35707e-05
1.08907e-05
1.59483e-05
7.67444e-06
2.41458e-06
2.68688e-06
5.2007e-06
1.39181e-05
7.961e-06
9.05926e-06
2.12708e-05
2.63324e-06
3.53518e-05
1.67356e-06
1.41716e-05
1.98327e-06
1.26364e-05
2.2819e-06
1.01713e-05
2.90513e-05
1.65876e-06
5.60336e-06
1.82771e-05
6.18639e-05
2.46141e-05
8.5136e-06
2.69655e-05
4.88678e-06
2.02498e-05
1.01714e-05
9.41566e-06
4.30226e-05
4.33664e-06
2.55727e-06
1.70601e-05
1.06638e-05
4.26044e-06
1.09341e-05
2.15337e-05
9.17003e-06
2.37923e-05
1.16365e-05
2.07018e-05
8.17928e-06
2.01301e-06
3.36555e-06
4.43893e-06
1.13697e-05
7.99685e-06
8.53836e-06
2.27345e-05
1.90689e-06
2.90696e-05
2.17341e-06
1.1988e-05
1.61676e-06
8.05466e-06
1.40723e-06
8.45037e-06
3.2882e-05
1.50632e-06
6.12925e-06
1.69957e-05
5.43434e-05
2.14006e-05
8.32343e-06
2.28842e-05
2.86375e-06
1.85083e-05
4.93518e-06
4.79929e-06
3.80186e-05
6.79123e-06
3.42682e-06
1.23252e-05
1.14108e-05
3.29397e-06
8.83803e-06
2.21735e-05
9.07358e-06
2.25718e-05
1.14224e-05
2.27791e-05
7.32129e-06
1.68153e-06
4.38588e-06
3.28943e-06
8.02141e-06
7.43629e-06
9.43973e-06
2.03179e-05
3.35301e-06
2.54031e-05
3.65985e-06
1.26346e-05
1.56954e-06
3.69614e-06
1.38088e-06
5.63744e-06
3.18916e-05
1.66187e-06
5.60461e-06
1.60039e-05
5.041e-05
1.78103e-05
7.80612e-06
2.06815e-05
2.7192e-06
1.75865e-05
2.65548e-06
2.46168e-06
2.94424e-05
1.13076e-05
2.76541e-06
1.32631e-05
1.34877e-05
2.55106e-06
6.69249e-06
2.74751e-05
1.33303e-05
1.66563e-05
7.23457e-06
2.04316e-05
8.6198e-06
1.21724e-06
5.01071e-06
3.70559e-06
5.25487e-06
5.43991e-06
1.04428e-05
2.1733e-05
5.00397e-06
2.72884e-05
3.40073e-06
7.9441e-06
1.74942e-06
1.92251e-06
1.40567e-06
7.45669e-06
3.09972e-05
1.88389e-06
7.62891e-06
9.88886e-06
4.28127e-05
1.40469e-05
8.73365e-06
2.14726e-05
2.9221e-06
1.80939e-05
2.41982e-06
2.49055e-06
2.94396e-05
1.44293e-05
3.22516e-06
1.43231e-05
1.39035e-05
2.99061e-06
3.96624e-06
2.74099e-05
1.65053e-05
1.10458e-05
3.36973e-06
1.70692e-05
8.1878e-06
9.77171e-07
5.35693e-06
5.31459e-06
4.09495e-06
2.8021e-06
8.32212e-06
2.65549e-05
3.79739e-06
2.65493e-05
2.98084e-06
4.38664e-06
3.10626e-06
1.73417e-06
1.48586e-06
1.10621e-05
3.46835e-05
1.82031e-06
1.11165e-05
3.6832e-06
3.30037e-05
1.08679e-05
9.51303e-06
2.21356e-05
3.64289e-06
2.43253e-05
3.15564e-06
3.42699e-06
3.16382e-05
1.57262e-05
3.2172e-06
1.01291e-05
1.20037e-05
2.77021e-06
1.96286e-06
1.75515e-05
1.61709e-05
8.04659e-06
1.94895e-06
1.89662e-05
9.01834e-06
9.59554e-07
5.00968e-06
5.99009e-06
2.1481e-06
1.4561e-06
2.65091e-06
2.25903e-05
2.86775e-06
2.52988e-05
3.09064e-06
3.72233e-06
4.63595e-06
2.47409e-06
1.52316e-06
8.45973e-06
3.46049e-05
1.43322e-06
9.75803e-06
2.63904e-06
2.74869e-05
7.68363e-06
7.9484e-06
1.62332e-05
4.79141e-06
3.29019e-05
4.45737e-06
3.68119e-06
3.11695e-05
1.73301e-05
3.07303e-06
6.65325e-06
9.19426e-06
2.17707e-06
1.55073e-06
1.58033e-05
1.9159e-05
6.51886e-06
1.87308e-06
2.13162e-05
1.25995e-05
2.34074e-06
2.98228e-06
4.99923e-06
1.60479e-06
5.88918e-06
1.14273e-06
1.88623e-05
2.37833e-06
2.54925e-05
3.45929e-06
4.21651e-06
5.56777e-06
3.29239e-06
1.01475e-06
6.94311e-06
3.07623e-05
8.18337e-07
5.24379e-06
3.19193e-06
2.37651e-05
4.522e-06
7.30722e-06
9.25525e-06
5.26859e-06
3.10377e-05
3.36509e-06
2.5655e-06
2.66223e-05
1.63065e-05
2.62777e-06
3.95057e-06
6.04748e-06
1.91663e-06
1.38016e-06
2.13187e-05
2.23858e-05
4.70354e-06
1.69845e-06
2.06008e-05
1.37292e-05
3.85273e-06
1.37223e-06
2.56614e-06
2.01037e-06
1.058e-05
1.99973e-06
1.73936e-05
1.76151e-06
2.74082e-05
2.48333e-06
3.73312e-06
7.46267e-06
4.34191e-06
1.06261e-06
7.08394e-06
3.1694e-05
7.44503e-07
3.96238e-06
2.1489e-06
1.93717e-05
2.22033e-06
1.08398e-05
9.06956e-06
3.98104e-06
2.90168e-05
3.48406e-06
2.41654e-06
2.01982e-05
1.26081e-05
2.8472e-06
2.92127e-06
3.27249e-06
1.28037e-06
1.36502e-06
1.32432e-05
1.94704e-05
3.03318e-06
2.63471e-06
1.38183e-05
1.01366e-05
3.60348e-06
1.44649e-06
1.75904e-06
1.46114e-06
1.26979e-05
2.66494e-06
1.62666e-05
8.17676e-07
2.70158e-05
1.88947e-06
3.96219e-06
7.65282e-06
5.30579e-06
9.39022e-07
5.545e-06
2.71051e-05
1.54913e-06
2.45117e-06
9.61154e-07
1.35155e-05
1.72505e-06
9.84566e-06
7.11441e-06
2.8699e-06
2.1584e-05
2.35416e-06
3.44253e-06
2.33635e-05
9.78028e-06
1.85588e-06
1.207e-06
1.45525e-06
1.23008e-06
2.55167e-06
3.64206e-06
1.55578e-05
1.22171e-06
4.35018e-06
5.50542e-06
5.74707e-06
3.00267e-06
2.65279e-06
1.21467e-06
9.04116e-07
1.47929e-05
5.19978e-06
1.32933e-05
4.53954e-07
2.86571e-05
8.25185e-07
3.5225e-06
6.58865e-06
3.85988e-06
7.21434e-07
4.36015e-06
1.97355e-05
1.64766e-06
2.2288e-07
1.85653e-06
1.32485e-05
2.30054e-06
5.88165e-06
4.38778e-06
1.32999e-06
1.37109e-05
1.88342e-06
3.40658e-06
2.31853e-05
8.19488e-06
1.99703e-06
9.34108e-07
1.03507e-06
1.5597e-06
1.9162e-06
7.25251e-06
1.69171e-05
8.80938e-07
4.55396e-06
2.49793e-06
4.03373e-06
2.36181e-06
4.22978e-06
7.14825e-07
1.71043e-06
1.04886e-05
7.43138e-06
1.22634e-05
4.97805e-07
2.66633e-05
3.77528e-07
2.31718e-06
7.26472e-06
3.52993e-06
6.30779e-07
2.86463e-06
1.55617e-05
2.68108e-06
8.20341e-08
5.60204e-07
6.52918e-06
1.02074e-06
5.46058e-06
1.6791e-06
1.29631e-06
6.94476e-06
8.45199e-07
1.66182e-06
1.64636e-05
2.94828e-06
5.55627e-07
1.17042e-06
9.62313e-07
2.34881e-06
1.21599e-06
2.0484e-06
1.11835e-05
2.63093e-06
6.51927e-07
4.58083e-06
8.83688e-06
3.37003e-06
8.1738e-06
1.56737e-06
1.8941e-06
5.25305e-06
8.09166e-06
8.67065e-06
8.50859e-07
2.60475e-05
5.01364e-07
3.23129e-06
6.2005e-06
3.67472e-06
5.05113e-07
1.68385e-06
1.09067e-05
2.09173e-06
5.72966e-07
6.14695e-07
5.41884e-06
1.37034e-06
7.07782e-06
1.52271e-06
1.79266e-06
5.02511e-06
5.87963e-07
5.17894e-07
1.22169e-05
2.04202e-06
4.45926e-07
1.23706e-06
2.19706e-06
7.97962e-07
1.65492e-06
4.52954e-06
1.60113e-05
3.70672e-06
4.56446e-06
3.8567e-07
4.38954e-06
1.31613e-06
6.53106e-06
4.86495e-06
1.28313e-06
2.94887e-06
1.14439e-05
4.90974e-06
2.22213e-06
2.16978e-05
9.18954e-07
4.79229e-06
4.23312e-06
4.68285e-06
4.17431e-07
3.66191e-06
9.43209e-06
1.93261e-06
8.38468e-07
3.10952e-07
1.96413e-06
1.21033e-06
7.27577e-06
1.84829e-06
1.89238e-06
3.9884e-06
1.13174e-06
8.92108e-07
1.62615e-05
6.2806e-06
1.13903e-06
8.13817e-07
7.35115e-07
4.79522e-07
3.91142e-07
6.10982e-07
2.39505e-06
3.64852e-06
2.31262e-06
1.65905e-06
2.41774e-06
5.90666e-07
1.58273e-06
4.34359e-06
1.32667e-06
1.36563e-06
1.61235e-05
5.96146e-07
1.67744e-06
2.00316e-05
3.74661e-06
1.90544e-06
4.62791e-06
5.23809e-06
8.26299e-07
6.24141e-06
1.15423e-05
2.35335e-06
2.41555e-06
1.25829e-06
2.83795e-06
1.83348e-06
8.45182e-06
1.69227e-06
3.77511e-06
3.63511e-06
1.36008e-06
4.4525e-07
8.99116e-06
4.09352e-06
5.1157e-07
1.16614e-06
4.86121e-07
5.30458e-07
6.0054e-07
5.03637e-07
5.56508e-07
1.67716e-06
3.24795e-06
5.53739e-06
1.00767e-06
3.68676e-07
4.58217e-07
3.19891e-06
5.36879e-07
6.79331e-07
1.07655e-05
6.55413e-07
2.83563e-06
1.08092e-05
4.27234e-06
1.00282e-06
4.34823e-06
3.9724e-06
4.52036e-07
3.76412e-06
7.90061e-06
2.87749e-06
3.9176e-07
7.13547e-12
5.03364e-07
6.65538e-07
1.31108e-05
7.80392e-06
1.22273e-06
2.35914e-06
1.71882e-06
4.58577e-07
6.99187e-06
5.21857e-06
2.96338e-07
9.29425e-07
5.24459e-07
5.47878e-07
1.12291e-06
6.6663e-07
6.38571e-07
3.61172e-06
1.08145e-06
7.66332e-07
1.35057e-06
2.89769e-06
1.00872e-06
6.36935e-06
8.79362e-07
9.19645e-07
9.21766e-06
4.40297e-06
1.16477e-06
6.49026e-06
3.92065e-06
1.89394e-06
1.34867e-06
1.80325e-06
2.15528e-07
1.37854e-06
3.33707e-06
9.26083e-07
8.99914e-07
5.92241e-08
4.21367e-07
2.47572e-06
5.59387e-06
4.75811e-06
1.45408e-06
8.67546e-07
8.03941e-07
4.63482e-07
4.01607e-06
4.43613e-06
3.05724e-07
5.62638e-07
4.40791e-07
2.15062e-07
4.49283e-07
7.51866e-07
3.91772e-07
1.49348e-06
2.58334e-06
1.61563e-07
5.26261e-07
1.3523e-06
1.80147e-07
4.77418e-06
4.29878e-06
5.67546e-07
3.7971e-06
4.59179e-06
9.02033e-07
3.40034e-06
7.15148e-06
4.9955e-07
7.00174e-06
6.84466e-06
6.52777e-07
1.74149e-06
2.15247e-06
1.08948e-06
1.42025e-06
5.89308e-07
1.15186e-07
1.91899e-06
2.69653e-06
6.38099e-06
2.07064e-07
3.0845e-07
4.05382e-07
3.24266e-07
2.13669e-06
3.79749e-06
2.77477e-07
1.93898e-06
7.17766e-06
3.87839e-06
2.03824e-06
1.52935e-06
2.59894e-07
1.46043e-07
2.14301e-07
1.92477e-07
2.0872e-07
2.28233e-06
1.13562e-06
2.03756e-06
3.1473e-06
5.23743e-07
2.90281e-07
1.85618e-06
1.68626e-06
5.01446e-07
4.44004e-07
1.3753e-06
8.67608e-07
4.04366e-06
3.08223e-06
5.4115e-06
2.63444e-06
2.02724e-06
4.80242e-06
8.01184e-08
6.04051e-08
2.20843e-06
1.31253e-07
1.66234e-06
5.65563e-07
9.81066e-07
3.40738e-07
3.21033e-07
1.68071e-06
3.14553e-06
3.28201e-07
2.6975e-07
2.51123e-06
1.87817e-06
1.60824e-06
2.9279e-06
2.67421e-06
8.21832e-08
8.7918e-08
1.91622e-07
3.73056e-07
2.0346e-07
1.61683e-07
3.70673e-07
3.22397e-06
5.2001e-07
2.03828e-07
2.72915e-06
7.58567e-07
8.21344e-07
3.69742e-06
4.94791e-07
7.91249e-07
5.54742e-07
1.50365e-07
2.68664e-07
1.56921e-07
2.83069e-06
2.56061e-06
9.58081e-08
1.159e-07
5.28814e-07
5.36252e-07
1.74355e-07
1.09054e-06
4.75738e-06
1.37675e-06
3.76575e-07
2.38804e-06
3.45219e-06
2.03822e-07
2.4224e-07
2.92828e-06
2.75504e-06
5.08452e-07
4.53372e-07
3.8086e-06
4.53992e-07
1.1648e-07
1.2135e-06
5.4482e-07
3.6447e-07
9.4739e-07
1.16583e-06
3.85532e-06
1.66903e-06
3.51272e-07
9.85767e-07
8.95925e-07
2.31274e-07
1.00237e-06
7.48524e-07
1.56437e-06
3.27189e-06
4.12265e-06
3.06874e-06
7.47727e-07
3.22221e-06
2.15224e-06
6.88475e-07
1.81868e-06
1.5136e-06
9.09787e-07
2.44006e-07
4.69987e-07
9.87139e-07
5.27611e-07
1.95778e-07
6.50701e-07
8.95576e-07
5.34949e-07
4.12255e-07
1.74713e-07
4.56639e-07
2.22409e-07
2.47983e-07
5.94382e-06
1.74744e-06
3.20672e-07
5.20558e-07
7.15831e-07
6.46634e-07
1.90682e-06
7.86205e-07
2.18984e-06
1.84853e-06
6.23842e-07
8.75122e-07
9.18567e-07
2.50851e-06
7.82016e-07
2.00839e-07
5.66244e-07
4.82008e-07
6.35798e-07
2.29747e-07
1.763e-07
2.56931e-06
1.23162e-06
4.71787e-07
9.95378e-07
1.44236e-06
2.27423e-06
3.25423e-07
4.05733e-07
1.26076e-07
4.93409e-07
6.29842e-07
7.9502e-07
6.59455e-07
5.95002e-07
4.01996e-07
1.89434e-07
1.67811e-06
5.75871e-07
2.00117e-07
3.55258e-06
3.10133e-06
3.72349e-07
1.85799e-06
8.85044e-07
8.13838e-08
4.59078e-07
5.63196e-07
2.26858e-06
2.89658e-06
1.31589e-07
1.39014e-06
2.45381e-06
1.35217e-07
5.72036e-07
9.36142e-07
1.061e-06
2.42764e-06
3.63382e-06
1.76859e-06
5.17411e-07
2.47208e-06
6.81216e-06
1.11533e-05
3.78752e-05
4.60222e-05
3.17822e-05
4.39044e-05
4.12286e-05
9.18692e-05
1.53052e-05
1.10836e-05
6.19596e-05
1.55557e-05
8.83987e-06
4.02803e-06
6.73634e-06
1.16795e-05
1.48526e-05
3.48692e-05
1.55366e-05
1.59403e-05
1.93952e-05
2.32666e-06
8.23245e-06
3.35439e-05
1.20336e-05
4.67168e-06
1.89714e-05
1.77104e-05
4.78342e-06
5.73389e-06
2.4684e-06
1.8197e-05
2.8107e-06
1.46497e-06
1.69585e-05
1.25085e-05
1.3519e-05
6.73943e-06
3.85215e-05
3.9192e-05
2.95434e-06
4.76419e-06
5.72004e-05
6.72128e-05
1.84572e-05
2.84001e-05
6.16155e-05
0.000122348
2.81516e-05
2.19248e-05
8.76651e-05
2.73644e-05
3.9402e-06
2.0118e-06
1.54669e-05
2.30465e-05
2.75469e-05
5.35923e-05
2.73108e-05
8.00212e-06
9.82083e-06
3.62702e-06
3.22846e-06
2.06539e-05
5.91123e-06
9.99864e-06
3.29559e-05
3.07565e-05
1.06229e-05
2.51123e-06
6.43775e-06
3.21844e-05
8.10755e-06
3.87728e-06
3.06558e-05
2.41064e-05
5.63164e-06
2.0874e-06
5.96668e-05
5.85676e-05
7.4059e-06
1.25464e-05
3.76863e-05
4.42279e-05
3.3761e-05
4.7786e-05
3.92349e-05
8.8123e-05
1.39079e-05
1.15165e-05
6.71034e-05
1.57247e-05
1.09534e-05
5.15517e-06
5.85577e-06
1.02466e-05
1.28584e-05
3.26205e-05
1.49249e-05
1.71709e-05
2.17634e-05
2.60122e-06
8.74859e-06
3.66794e-05
1.4313e-05
4.25779e-06
1.83439e-05
1.64876e-05
4.48198e-06
6.88525e-06
2.44234e-06
1.7125e-05
3.46186e-06
1.93224e-06
1.72127e-05
1.11775e-05
1.55926e-05
7.3892e-06
4.05792e-05
3.82659e-05
3.96688e-06
8.89011e-06
5.17251e-05
5.46253e-05
2.42333e-05
3.75248e-05
4.88866e-05
0.000103113
1.88003e-05
1.62833e-05
8.60271e-05
2.48614e-05
7.06017e-06
2.77315e-06
1.07596e-05
1.87466e-05
2.25099e-05
4.51732e-05
2.23853e-05
1.27233e-05
1.73429e-05
2.67756e-06
5.23353e-06
2.64325e-05
8.95119e-06
6.63216e-06
2.77879e-05
2.4792e-05
6.50805e-06
3.73517e-06
4.12677e-06
2.27646e-05
4.90896e-06
3.09866e-06
2.65598e-05
1.84222e-05
9.37073e-06
3.97818e-06
5.43936e-05
5.3481e-05
6.288e-06
1.186e-05
4.46914e-05
4.75389e-05
3.56677e-05
5.45052e-05
3.04037e-05
8.47379e-05
1.34831e-05
1.15615e-05
7.40342e-05
2.2374e-05
8.75364e-06
4.42231e-06
7.62139e-06
1.30854e-05
1.67314e-05
3.82073e-05
1.74852e-05
1.83583e-05
2.48055e-05
3.14828e-06
7.86409e-06
3.02427e-05
9.5718e-06
5.29384e-06
2.41011e-05
2.05816e-05
5.08006e-06
5.6672e-06
3.15844e-06
1.80038e-05
3.10038e-06
2.27369e-06
2.58064e-05
1.39501e-05
1.46836e-05
7.1406e-06
4.91991e-05
5.01509e-05
5.81885e-06
9.85408e-06
4.3211e-05
5.43817e-05
3.83915e-05
5.78051e-05
2.26445e-05
8.46202e-05
1.58954e-05
1.38356e-05
7.39325e-05
2.6297e-05
5.41093e-06
2.36181e-06
1.0808e-05
1.43913e-05
1.86071e-05
4.57347e-05
2.32287e-05
1.57565e-05
2.13828e-05
3.28641e-06
4.91597e-06
2.44676e-05
5.73064e-06
7.89096e-06
2.98735e-05
2.37442e-05
7.04724e-06
4.05926e-06
3.52807e-06
2.1417e-05
3.70552e-06
2.68235e-06
3.41316e-05
1.88654e-05
1.16216e-05
5.29481e-06
5.83705e-05
6.11511e-05
6.76218e-06
1.1433e-05
3.63325e-05
4.64208e-05
4.18087e-05
5.30855e-05
1.72027e-05
6.85271e-05
1.79286e-05
1.43486e-05
6.53695e-05
2.59127e-05
6.06888e-06
2.93521e-06
1.14008e-05
1.20906e-05
1.45131e-05
4.12135e-05
2.3582e-05
1.74492e-05
2.16676e-05
2.60192e-06
3.27856e-06
2.11926e-05
4.59623e-06
9.0454e-06
3.11659e-05
2.11814e-05
6.15268e-06
4.0257e-06
3.80637e-06
2.21684e-05
3.56653e-06
2.26172e-06
3.28146e-05
2.10171e-05
1.13665e-05
6.40501e-06
5.83592e-05
5.94246e-05
4.83675e-06
9.5247e-06
3.82443e-05
5.02177e-05
2.92498e-05
2.703e-05
2.20778e-05
5.61504e-05
1.86984e-05
2.0106e-05
6.85344e-05
2.92068e-05
6.43827e-06
2.92176e-06
1.55947e-05
1.31798e-05
1.4813e-05
4.54956e-05
2.49929e-05
2.01292e-05
2.46128e-05
2.72925e-06
2.34212e-06
1.52625e-05
3.64448e-06
9.98843e-06
3.35449e-05
2.02558e-05
5.03629e-06
3.72638e-06
5.43461e-06
2.57115e-05
4.74211e-06
2.10945e-06
2.81184e-05
2.55599e-05
6.07551e-06
4.07449e-06
6.0835e-05
5.73123e-05
2.88691e-06
7.83617e-06
3.23453e-05
4.83818e-05
2.10927e-05
1.61262e-05
2.08794e-05
4.28342e-05
1.21009e-05
2.36804e-05
6.86096e-05
2.99577e-05
6.70517e-06
2.80374e-06
2.11159e-05
1.61953e-05
1.46546e-05
5.13892e-05
2.8446e-05
2.46909e-05
4.21728e-05
2.45871e-06
2.13516e-06
1.1894e-05
3.22301e-06
9.31604e-06
3.12885e-05
1.82533e-05
4.23325e-06
4.91292e-06
6.51972e-06
2.83456e-05
5.19114e-06
1.84692e-06
1.90668e-05
2.37362e-05
4.96766e-06
2.33897e-06
5.5991e-05
4.98749e-05
2.13353e-06
4.71147e-06
2.52997e-05
4.07559e-05
1.59505e-05
1.08681e-05
1.51473e-05
3.14777e-05
9.19717e-06
2.93568e-05
7.72709e-05
2.81062e-05
5.68742e-06
3.48185e-06
2.10646e-05
1.89606e-05
1.65497e-05
5.70439e-05
4.03215e-05
1.78506e-05
5.06495e-05
2.54711e-06
2.81996e-06
8.46629e-06
2.77639e-06
1.10883e-05
2.98067e-05
1.70712e-05
3.43587e-06
5.00608e-06
8.55632e-06
3.46792e-05
4.53825e-06
1.64344e-06
1.66049e-05
2.23586e-05
5.6997e-06
1.5562e-06
5.20784e-05
4.31308e-05
2.49292e-06
2.60162e-06
2.49049e-05
3.39739e-05
1.52747e-05
8.25157e-06
9.38656e-06
2.04942e-05
7.8736e-06
2.93587e-05
8.63854e-05
2.24949e-05
6.65103e-06
3.80591e-06
1.80921e-05
1.66012e-05
1.70541e-05
4.88886e-05
4.18808e-05
1.21124e-05
4.3115e-05
2.61433e-06
2.99377e-06
6.80749e-06
3.48023e-06
1.09777e-05
2.54788e-05
1.56125e-05
2.75157e-06
5.98298e-06
7.84312e-06
3.5271e-05
3.49583e-06
1.89668e-06
1.90744e-05
2.20421e-05
5.10737e-06
1.66652e-06
5.06423e-05
3.48584e-05
2.73135e-06
1.69019e-06
3.20891e-05
3.00437e-05
1.42204e-05
6.50995e-06
7.74436e-06
1.59322e-05
9.35712e-06
2.81429e-05
9.15712e-05
1.64851e-05
9.22154e-06
3.72232e-06
1.6844e-05
1.19099e-05
1.89679e-05
4.39667e-05
3.61807e-05
8.2329e-06
3.53113e-05
2.89057e-06
2.67695e-06
7.52048e-06
3.4001e-06
8.45999e-06
2.05235e-05
1.63364e-05
1.98931e-06
7.56057e-06
5.47411e-06
2.98343e-05
2.17701e-06
1.55151e-06
2.40605e-05
2.42735e-05
2.89168e-06
2.11556e-06
5.11262e-05
2.78868e-05
2.32571e-06
1.99709e-06
3.24884e-05
2.28806e-05
1.18873e-05
4.5514e-06
6.06368e-06
1.16143e-05
1.07643e-05
2.78035e-05
9.16366e-05
1.10373e-05
1.62525e-05
4.62909e-06
1.40901e-05
9.30398e-06
1.83689e-05
4.54856e-05
3.43386e-05
7.77976e-06
3.94886e-05
2.49096e-06
2.95237e-06
9.51681e-06
3.78371e-06
5.3708e-06
1.73537e-05
1.83446e-05
2.18664e-06
8.49205e-06
5.06574e-06
2.38024e-05
8.37789e-07
1.32491e-06
2.47167e-05
2.48904e-05
2.57675e-06
2.41871e-06
4.80215e-05
2.13448e-05
1.73435e-06
2.09178e-06
2.70261e-05
1.57006e-05
9.46312e-06
3.03388e-06
4.67482e-06
7.42569e-06
8.09718e-06
2.69376e-05
0.000102872
1.37499e-05
2.37691e-05
6.46952e-06
1.1942e-05
1.03188e-05
1.61737e-05
5.32617e-05
3.22966e-05
1.31041e-05
4.3523e-05
2.16403e-06
3.83617e-06
7.85128e-06
5.4934e-06
2.89295e-06
1.498e-05
2.18484e-05
1.78634e-06
9.94938e-06
5.70964e-06
1.96204e-05
1.66386e-06
1.6696e-06
2.28818e-05
2.4349e-05
1.89622e-06
3.09448e-06
4.26651e-05
1.75017e-05
9.52118e-07
2.42882e-06
2.47988e-05
1.30436e-05
7.81888e-06
2.59737e-06
4.01531e-06
4.02631e-06
3.85786e-06
2.06388e-05
0.000102643
1.88124e-05
2.18389e-05
7.24554e-06
1.12695e-05
1.05185e-05
1.01557e-05
5.32259e-05
3.67357e-05
1.24419e-05
3.22358e-05
4.01982e-06
5.86334e-06
5.6226e-06
7.45417e-06
1.84381e-06
9.60573e-06
1.99175e-05
1.09592e-06
1.4748e-05
4.38608e-06
1.68294e-05
2.05965e-06
2.1057e-06
1.79164e-05
2.01224e-05
1.2862e-06
4.01581e-06
3.40107e-05
1.24928e-05
4.8112e-07
2.37357e-06
2.33554e-05
1.02982e-05
6.97641e-06
3.43248e-06
2.83352e-06
2.5448e-06
2.03018e-06
1.36005e-05
8.1217e-05
1.79222e-05
1.3325e-05
4.83864e-06
1.11944e-05
9.16948e-06
5.43934e-06
3.77325e-05
3.49417e-05
7.26126e-06
1.78138e-05
7.20981e-06
9.02447e-06
3.58229e-06
9.61111e-06
2.36e-06
5.27389e-06
1.56107e-05
1.88807e-06
1.17993e-05
4.78156e-06
2.10355e-05
1.01873e-06
1.89293e-06
1.1149e-05
1.35513e-05
1.20671e-06
4.97353e-06
2.87835e-05
7.7043e-06
4.70035e-07
1.55717e-06
2.01016e-05
7.4027e-06
7.48388e-06
5.18376e-06
1.68458e-06
2.10522e-06
1.74072e-06
9.67658e-06
5.61904e-05
1.46435e-05
7.04211e-06
2.94513e-06
1.11802e-05
9.65441e-06
4.64202e-06
2.84447e-05
2.81913e-05
5.39888e-06
1.02577e-05
9.04013e-06
9.99459e-06
2.05171e-06
7.6551e-06
4.34649e-06
2.18299e-06
1.26958e-05
2.86789e-06
7.69543e-06
2.88887e-06
1.82342e-05
1.01972e-06
1.78073e-06
8.23501e-06
1.0852e-05
1.6714e-06
6.15174e-06
2.88999e-05
7.10164e-06
4.17843e-07
1.53034e-06
1.77261e-05
6.25513e-06
6.14987e-06
4.97335e-06
2.00531e-06
2.42573e-06
1.75619e-06
8.82105e-06
4.13153e-05
1.02481e-05
6.45129e-06
3.34808e-06
9.28636e-06
1.01257e-05
6.19555e-06
2.81393e-05
2.68619e-05
3.65249e-06
6.85312e-06
8.57296e-06
7.15184e-06
1.03771e-06
3.73891e-06
5.33114e-06
1.29344e-06
9.44638e-06
2.39785e-06
8.88813e-06
1.07307e-06
1.08901e-05
1.54794e-06
1.58579e-06
9.04839e-06
1.07426e-05
2.12467e-06
5.49253e-06
2.56915e-05
7.66526e-06
4.11261e-07
1.25484e-06
1.39367e-05
4.46597e-06
5.70346e-06
3.62528e-06
2.29894e-06
3.70797e-06
1.70993e-06
7.50596e-06
2.95891e-05
5.65997e-06
4.8155e-06
2.52295e-06
6.82969e-06
9.37795e-06
5.17782e-06
2.02193e-05
2.20455e-05
2.81932e-06
5.78744e-06
7.46039e-06
5.06537e-06
6.3435e-07
2.46294e-06
6.64075e-06
2.67987e-06
5.58457e-06
1.76451e-06
1.14871e-05
5.32933e-07
8.5225e-06
2.37678e-06
1.97743e-06
9.78143e-06
1.06162e-05
2.67075e-06
5.46081e-06
1.93456e-05
6.37213e-06
5.70944e-07
8.64563e-07
1.1116e-05
2.57675e-06
7.62556e-06
3.54897e-06
1.4558e-06
4.16444e-06
1.32339e-06
5.30857e-06
1.88093e-05
1.90712e-06
1.97337e-06
1.09343e-06
4.06013e-06
8.91613e-06
4.52958e-06
1.33356e-05
1.90908e-05
1.44044e-06
1.01758e-05
2.20874e-06
4.2179e-06
6.43451e-07
9.51055e-07
4.47836e-06
2.59785e-06
6.60673e-06
3.13916e-06
1.0542e-05
5.82859e-07
1.27251e-05
1.67541e-06
2.52015e-06
8.38763e-06
9.27017e-06
2.52018e-06
4.59372e-06
1.33399e-05
5.32737e-06
9.20847e-07
6.92364e-07
1.04257e-05
2.91609e-06
6.91783e-06
3.67916e-06
9.74555e-07
5.06684e-06
2.2385e-06
4.98534e-06
1.27598e-05
8.82207e-07
1.45091e-06
1.49074e-06
4.73416e-06
1.22475e-05
7.55863e-06
1.38426e-05
2.36591e-05
1.35217e-06
6.92247e-06
5.92849e-07
1.45346e-06
6.7103e-07
9.56367e-07
1.52224e-06
2.51932e-06
6.2497e-06
4.18846e-06
1.2736e-05
9.92142e-07
1.60297e-05
6.88848e-07
1.29704e-06
8.9952e-06
8.0579e-06
2.19158e-06
4.26572e-06
9.77084e-06
4.35214e-06
1.43853e-06
3.90268e-07
5.93882e-06
9.92717e-07
9.17604e-06
2.91549e-06
8.50093e-07
4.28105e-06
1.86705e-06
3.96939e-06
1.09609e-05
7.66233e-07
1.91811e-06
1.16518e-06
4.70748e-06
1.57979e-05
9.01122e-06
6.68245e-06
1.31538e-05
9.16679e-07
2.12797e-06
2.19586e-06
3.36446e-06
3.32134e-07
2.48952e-06
7.16778e-07
2.50785e-06
3.30382e-06
4.86546e-06
1.15621e-05
3.13183e-06
1.2573e-05
6.48638e-07
1.32357e-06
1.04397e-05
7.4516e-06
9.6289e-07
1.96698e-06
4.9284e-06
2.92368e-06
1.49588e-06
7.06509e-07
6.58598e-06
2.77508e-06
5.08189e-06
5.65035e-07
3.15291e-06
5.63068e-06
2.41064e-06
2.02401e-06
9.47131e-06
5.16889e-07
6.98233e-07
1.12547e-06
1.99027e-06
8.96849e-06
4.98962e-06
4.3711e-06
1.75358e-05
6.4757e-06
4.91903e-07
2.32599e-06
5.27614e-06
4.77584e-07
4.23766e-06
5.686e-06
1.04228e-06
2.71369e-06
7.61298e-06
7.68829e-06
5.57311e-06
9.5168e-06
4.63065e-07
2.86589e-06
7.45145e-06
7.35908e-06
1.25266e-06
3.10943e-06
4.17439e-06
1.68847e-06
3.50479e-06
8.61019e-07
3.33844e-06
1.88894e-06
8.59241e-06
1.80421e-06
1.36122e-06
2.32916e-06
1.93792e-06
9.66601e-07
8.23175e-06
1.28615e-06
5.27196e-07
2.41264e-06
2.0034e-06
6.71256e-06
4.62218e-06
1.36865e-06
4.79646e-06
6.04037e-06
3.99771e-07
5.76472e-07
4.18883e-06
4.92291e-07
1.95451e-06
6.59092e-06
6.96113e-07
2.34316e-06
1.33202e-05
2.13883e-06
4.93824e-06
7.66632e-06
1.07799e-06
1.61131e-06
7.94745e-06
9.84736e-06
2.88315e-06
6.5163e-06
7.64393e-06
3.72512e-06
1.29345e-06
1.00247e-07
1.56246e-06
3.12283e-06
8.09589e-06
1.35719e-06
6.28301e-06
5.01386e-06
2.18249e-06
6.19793e-07
7.28059e-06
2.59846e-06
4.19723e-07
3.40968e-06
1.7013e-06
2.69794e-06
2.79425e-06
5.29453e-07
5.2935e-07
2.27738e-06
4.25959e-07
1.15828e-06
2.20953e-06
2.99743e-07
3.58845e-07
2.99711e-06
6.97859e-07
4.18051e-07
8.03908e-06
7.43808e-07
6.71937e-06
2.43845e-06
3.54589e-07
3.95353e-06
2.89829e-06
4.97065e-06
8.70378e-07
3.72641e-06
5.2168e-06
1.58171e-06
1.67933e-06
3.10914e-07
2.95419e-06
6.63896e-06
4.31046e-06
3.72176e-06
6.90295e-07
3.34436e-07
3.76723e-07
2.86634e-07
4.67841e-06
2.82654e-06
5.877e-07
1.01188e-06
8.92213e-07
5.81032e-07
1.48745e-06
1.02888e-06
4.66331e-07
3.48778e-06
2.48546e-06
2.53496e-07
1.1506e-06
8.72199e-07
7.75825e-07
9.43238e-06
1.22751e-06
5.07483e-07
7.94543e-06
7.44907e-07
4.00892e-06
2.59332e-06
1.25617e-06
1.99017e-06
2.47831e-06
3.42172e-06
2.78003e-07
1.68048e-06
2.72035e-06
1.00788e-06
1.30458e-06
5.25005e-07
1.09998e-07
3.36817e-06
3.27471e-06
3.29949e-06
2.01156e-06
5.27746e-07
4.55291e-07
3.71192e-07
2.60586e-06
2.55543e-06
9.52581e-07
3.5207e-07
3.11914e-07
3.62661e-07
4.06636e-07
1.57701e-06
8.45565e-07
2.07455e-06
5.02026e-06
8.0942e-07
1.16217e-06
1.06473e-06
2.466e-07
9.16939e-06
7.53677e-06
3.02973e-07
4.33584e-06
1.66408e-06
2.24626e-06
2.19168e-06
4.31176e-06
4.01879e-07
7.03496e-06
6.06966e-06
2.34234e-07
6.01248e-07
1.40658e-06
1.3901e-06
4.28741e-06
8.88531e-08
9.40139e-08
2.43441e-06
1.94309e-06
4.10848e-06
1.8621e-06
8.45915e-07
3.9291e-07
4.04142e-07
2.28088e-06
4.29361e-06
3.30492e-07
5.49699e-07
3.97057e-06
1.65479e-06
9.15881e-07
1.75903e-06
6.20494e-07
1.23959e-07
2.36278e-07
2.47157e-07
2.26077e-07
1.39372e-06
1.31186e-06
5.78698e-06
5.94161e-06
2.2265e-07
1.37392e-06
2.06327e-06
1.44579e-06
2.0978e-07
5.3434e-07
8.29284e-07
1.75727e-06
3.72113e-06
8.01191e-07
1.66982e-06
1.56875e-06
3.72457e-06
7.13421e-06
2.83026e-07
3.29446e-08
2.40288e-06
1.34361e-07
6.90658e-07
4.48527e-06
6.21796e-06
1.11103e-06
5.57774e-07
2.65886e-06
5.12791e-06
2.67054e-07
2.84721e-07
2.34959e-06
1.10368e-06
5.28517e-07
1.70126e-06
1.87587e-06
6.81304e-08
8.39801e-08
4.39893e-07
1.26281e-07
2.77221e-07
1.92283e-07
7.89921e-07
2.94241e-06
4.47525e-07
6.69525e-07
4.24527e-06
1.21395e-06
2.16699e-06
4.09334e-06
2.00103e-07
5.88629e-07
4.96735e-07
2.10426e-07
1.70726e-07
1.56837e-07
3.14301e-06
4.51768e-06
2.56511e-07
8.03717e-08
1.23621e-06
1.27062e-06
1.41228e-07
2.46727e-06
7.84862e-06
1.67824e-06
3.16977e-07
2.7196e-06
3.848e-06
2.09773e-07
1.92309e-07
2.45039e-06
3.03475e-06
5.70831e-07
7.3776e-07
5.45291e-06
9.06175e-07
9.02143e-08
1.34651e-06
6.55783e-07