/*--------------------------------*- C++ -*----------------------------------*\
  =========                 |
  \\      /  F ield         | OpenFOAM: The Open Source CFD Toolbox
   \\    /   O peration     | Website:  https://openfoam.org
    \\  /    A nd           | Version:  10
     \\/     M anipulation  |
\*---------------------------------------------------------------------------*/
FoamFile
{
    format      ascii;
    class       volVectorField;
    location    "5";
    object      U;
}
// * * * * * * * * * * * * * * * * * * * * * * * * * * * * * * * * * * * * * //

dimensions      [0 1 -1 0 0 0 0];

internalField   nonuniform List<vector> 
102400
(
(0.321945 -0.0737582 0.126172)
(0.22167 -0.0697598 0.164908)
(0.127432 -0.0890753 0.0745491)
(0.171001 -0.0847217 -0.0213623)
(0.217376 -0.0842052 -0.0779771)
(0.193745 -0.0836963 -0.0309982)
(0.197435 -0.0771811 0.0412196)
(0.159479 -0.0705128 0.081564)
(0.110089 -0.0670806 0.0594767)
(0.101191 -0.0722673 0.0571983)
(0.135649 -0.0799199 0.0108066)
(0.153161 -0.0824492 -0.0472523)
(0.152778 -0.0814487 -0.0268515)
(0.195418 -0.07597 0.00452946)
(0.266337 -0.0722714 0.0906574)
(0.258578 -0.0655822 0.157032)
(0.170778 -0.0625969 0.147639)
(0.117675 -0.0619292 0.117263)
(0.0558477 -0.0693486 0.0853047)
(0.0610496 -0.0762768 -0.00381884)
(0.198073 -0.0807546 -0.051573)
(0.231376 -0.0799271 0.00145239)
(0.239303 -0.0724586 0.0621834)
(0.173548 -0.0669525 0.0823162)
(0.184727 -0.0563446 0.119337)
(0.154941 -0.042873 0.115352)
(0.0972624 -0.0603394 0.0989688)
(0.140793 -0.0785165 -0.00288117)
(0.228468 -0.0867928 -0.0631795)
(0.216331 -0.0757167 -0.00813838)
(0.119281 -0.0767556 0.0570867)
(0.149901 -0.0775074 0.01558)
(0.124212 -0.0785907 0.00148114)
(0.116253 -0.0736453 0.0439733)
(0.166696 -0.0732601 0.0221082)
(0.240469 -0.0805431 -0.0341739)
(0.333191 -0.075909 0.0275933)
(0.34991 -0.0771915 0.0326098)
(0.37394 -0.0843695 -0.0482352)
(0.398078 -0.0811141 -0.000484087)
(0.596583 0.0591429 0.05061)
(0.349995 0.0749052 0.138293)
(0.293022 0.102151 -0.0611905)
(0.380163 0.0880435 -0.182141)
(0.61284 0.0760326 -0.260747)
(0.557028 0.078199 -0.250363)
(0.437709 0.0657091 -0.0945331)
(0.316717 0.0600529 0.0129068)
(0.233877 0.0564045 -0.0375812)
(0.1942 0.0666948 -0.0372256)
(0.280353 0.0798857 -0.0871682)
(0.372419 0.0815972 -0.149292)
(0.366778 0.0733985 -0.14239)
(0.407691 0.0589798 -0.156946)
(0.49877 0.0475215 -0.0209485)
(0.387502 0.0506599 0.133708)
(0.250917 0.0679943 0.0792701)
(0.167961 0.0664033 0.0337293)
(0.104731 0.0763168 -0.0192957)
(0.236568 0.0735275 -0.191644)
(0.434732 0.0596132 -0.243696)
(0.435395 0.0606088 -0.140837)
(0.465252 0.0549294 -0.0407181)
(0.292799 0.0474809 0.0120381)
(0.193779 0.0395081 0.0990997)
(0.10298 0.0373065 0.150568)
(0.14167 0.0668099 0.00593717)
(0.280124 0.0749569 -0.139322)
(0.605731 0.0738913 -0.268441)
(0.556327 0.0619089 -0.167127)
(0.273305 0.0791086 -0.0468738)
(0.313518 0.0759584 -0.0914039)
(0.321123 0.0710619 -0.14433)
(0.24625 0.0697703 -0.0637121)
(0.361444 0.0644945 -0.0793896)
(0.508683 0.0573396 -0.229734)
(0.662438 0.0496565 -0.132517)
(0.746235 0.0552832 0.0152544)
(0.777152 0.0585174 -0.154625)
(0.782147 0.0558064 -0.186945)
(0.7328 -0.0435571 -0.0539191)
(0.425376 -0.02115 0.0640426)
(0.422461 -0.0108434 -0.125329)
(0.448164 -0.0318664 -0.114053)
(0.756169 -0.051909 -0.126996)
(0.824209 -0.0384769 -0.344243)
(0.682096 -0.0433919 -0.218063)
(0.450906 -0.0413851 -0.038702)
(0.354678 -0.0443367 -0.0923839)
(0.316958 -0.0421953 -0.10344)
(0.332218 -0.0324626 -0.0430199)
(0.514988 -0.0361225 -0.0610374)
(0.525746 -0.0467228 -0.111446)
(0.543577 -0.0584456 -0.21356)
(0.626688 -0.0652965 -0.153903)
(0.483244 -0.0413157 0.0383877)
(0.352203 -0.0319469 -0.00584247)
(0.288094 -0.0342701 -0.0232755)
(0.26146 -0.0294189 -0.0886016)
(0.367734 -0.0446803 -0.244964)
(0.571972 -0.0646698 -0.250957)
(0.555577 -0.0639162 -0.135948)
(0.581874 -0.0505063 -0.0898755)
(0.457045 -0.0420448 -0.0648379)
(0.326881 -0.0503783 -0.0215423)
(0.160706 -0.0417751 0.119472)
(0.227238 -0.0333358 -0.0500143)
(0.323462 -0.0488283 -0.0815897)
(0.740016 -0.0801001 -0.172891)
(0.903726 -0.0510421 -0.263401)
(0.440449 -0.0271029 -0.143716)
(0.44552 -0.0310426 -0.072305)
(0.570855 -0.0433004 -0.222108)
(0.475346 -0.039432 -0.185255)
(0.600371 -0.0487981 -0.155912)
(0.711111 -0.0734239 -0.264895)
(0.731541 -0.0633154 -0.228916)
(0.927109 -0.0784728 0.0626887)
(0.917996 -0.0851565 -0.0731088)
(0.902933 -0.0560407 -0.265283)
(0.772987 0.0583363 -0.109008)
(0.5228 0.0644492 0.0259886)
(0.416884 0.0822064 -0.0866587)
(0.520992 0.0480647 -0.0324715)
(0.819163 0.0128581 0.094073)
(0.948095 0.0345066 -0.259234)
(0.737692 0.0486703 -0.276319)
(0.474947 0.0529785 -0.0776211)
(0.338114 0.0333245 -0.0949933)
(0.301781 0.0524201 -0.0893057)
(0.276137 0.0479175 0.113934)
(0.530948 0.0360706 0.152208)
(0.575197 0.0570907 -0.0265892)
(0.540334 0.0397045 -0.200609)
(0.625384 0.0116744 -0.200387)
(0.539274 0.039686 -0.0648354)
(0.42308 0.063699 -0.00898664)
(0.31016 0.0512166 -0.0362709)
(0.284285 0.0660714 -0.0989248)
(0.368477 0.0653405 -0.200954)
(0.604702 0.0236245 -0.178674)
(0.614769 0.0220709 -0.102662)
(0.58185 0.0219941 -0.103512)
(0.503586 0.0316469 -0.115981)
(0.464295 0.0258972 -0.141899)
(0.293657 0.0221071 -0.0636476)
(0.293019 0.0458035 -0.0585304)
(0.277185 0.0389246 0.00544144)
(0.593259 -0.0185493 -0.0600819)
(0.961705 0.00645663 -0.228978)
(0.478161 0.0706309 -0.18893)
(0.614293 0.0324045 0.0485232)
(0.699844 0.0278498 -0.151943)
(0.516918 0.0533908 -0.268364)
(0.782946 0.0200465 -0.13876)
(0.804589 -0.013509 -0.145291)
(0.735062 0.00810746 -0.210277)
(0.94095 -0.00862577 0.0689967)
(0.959749 -0.0260875 -0.0147305)
(0.91446 0.0304418 -0.316937)
(0.822108 -0.00586891 -0.0697235)
(0.562564 0.0349079 0.00851874)
(0.439521 0.0323542 -0.0843718)
(0.526505 -0.00978708 -0.0461212)
(0.656491 -0.0606165 0.220166)
(0.98875 -0.0660723 -0.0681532)
(0.818436 -0.0239358 -0.229234)
(0.535486 -0.000371133 -0.0757299)
(0.488333 -0.0365476 -0.0552707)
(0.350703 -0.0170441 -0.0388035)
(0.294166 0.00597037 0.0974326)
(0.469085 -0.00883701 0.169622)
(0.56003 -0.00557502 0.0236181)
(0.612277 -0.0251909 -0.202904)
(0.62829 -0.0610769 -0.199877)
(0.512052 -0.0228215 -0.0382221)
(0.434401 0.0325578 -0.0127583)
(0.361506 -0.00223163 -0.0359523)
(0.292937 0.0143524 -0.0584951)
(0.422558 0.00885214 -0.177877)
(0.534409 -0.0437675 -0.103576)
(0.624216 -0.0566083 -0.0583488)
(0.631679 -0.0499386 -0.0611778)
(0.589196 -0.0250974 -0.0772092)
(0.463602 -0.0491394 -0.078064)
(0.397448 -0.0180329 -0.126845)
(0.362598 0.0143809 -0.0954541)
(0.26518 -0.0182983 -0.0191738)
(0.496031 -0.0724668 -0.109077)
(0.795879 -0.0797831 -0.141368)
(0.504149 0.0175758 -0.236177)
(0.566024 -0.0440259 0.162481)
(0.745866 -0.0557975 0.00860696)
(0.662758 -0.00973389 -0.264169)
(0.823124 -0.0545823 -0.0476928)
(0.682054 -0.081034 -0.0792487)
(0.731103 -0.0667093 -0.19478)
(1.00683 -0.0774283 -0.00893882)
(0.913678 -0.100359 0.0324414)
(0.949453 -0.0524989 -0.249336)
(0.856387 0.0519806 -0.144851)
(0.635903 0.0472931 -0.0325234)
(0.544993 0.0563774 -0.0347694)
(0.55632 0.0380411 0.0147487)
(0.596918 -0.0202646 0.178118)
(0.831069 -0.0196495 -0.00725176)
(0.777661 0.0323534 -0.179385)
(0.602994 0.0469079 -0.0755361)
(0.597119 0.0383792 -0.051743)
(0.430483 0.0475167 -0.000372275)
(0.343313 0.00641663 0.0850909)
(0.413208 0.0217148 0.112198)
(0.524685 0.0493551 0.0379665)
(0.592042 0.0501145 -0.20596)
(0.612841 0.00560834 -0.243671)
(0.510615 0.0292948 -0.0937871)
(0.443946 0.0416126 -0.0535691)
(0.441028 0.0393014 -0.0199671)
(0.299654 0.0428083 0.0154474)
(0.523398 0.0576482 -0.141534)
(0.459737 0.0417638 -0.0744184)
(0.519889 -0.019765 0.0159914)
(0.669677 -0.0135528 -0.115568)
(0.703332 0.0208108 -0.0387395)
(0.456945 -0.0154196 0.0316356)
(0.447802 0.0130485 -0.170136)
(0.46346 0.0338723 -0.137164)
(0.37209 0.0219119 -0.0242226)
(0.625521 -0.0710898 -0.04593)
(0.749096 -0.0221333 -0.197027)
(0.518413 0.0654148 -0.231999)
(0.451902 0.00827391 0.11877)
(0.614719 -0.0218574 0.152457)
(0.789831 0.0290368 -0.156663)
(0.835426 -0.00679285 -0.0262676)
(0.522898 -0.0141611 -0.088913)
(0.704995 -0.0208426 -0.164845)
(1.10034 -0.0399931 -0.127773)
(0.805499 -0.0497903 -0.0407974)
(0.811003 0.00201927 -0.161869)
(0.881327 0.000407795 -0.206292)
(0.737028 0.0363533 -0.150914)
(0.573932 0.0599658 -0.113313)
(0.587559 0.0198535 -0.0444348)
(0.653527 -0.0485799 0.0945832)
(0.822436 -0.0655576 -0.00845329)
(0.795605 -0.00865429 -0.173957)
(0.670993 0.0296888 -0.103785)
(0.634156 -0.00815427 -0.0590294)
(0.41172 0.033036 -0.00695365)
(0.453203 0.0158743 -0.00248847)
(0.471706 -0.0124025 0.0642339)
(0.476287 0.0384166 0.0159508)
(0.532083 0.00808752 -0.0993493)
(0.71311 -0.0168386 -0.164877)
(0.617288 0.0017194 -0.150803)
(0.463825 0.0573704 -0.0998637)
(0.474536 0.0369493 -0.0410949)
(0.366319 0.0287752 -0.00134816)
(0.506764 0.0322815 -0.158857)
(0.461152 0.0221438 -0.0959129)
(0.591865 -0.0713163 -0.0545372)
(0.75064 -0.0543118 -0.266898)
(0.722771 -0.0315401 -0.076375)
(0.449913 -0.0255819 0.0560435)
(0.465104 -0.0217979 -0.181176)
(0.394819 0.0171769 -0.153461)
(0.488156 -0.0042882 -0.0218778)
(0.61734 -0.108983 0.0812624)
(0.852805 -0.0940728 -0.162766)
(0.534726 0.0503835 -0.18905)
(0.622389 -0.0204295 -0.152972)
(0.744384 -0.0825289 0.073744)
(0.891574 -0.013686 -0.0542531)
(0.93891 -0.0315851 -0.0678404)
(0.61172 -0.0533893 -0.00765826)
(0.666422 -0.0637563 -0.0987016)
(1.06624 -0.0982331 -0.071929)
(0.806178 -0.0745726 -0.0826872)
(0.674954 -0.0193253 -0.0954614)
(0.867091 0.00641787 -0.181727)
(0.701191 0.0171202 -0.143835)
(0.562165 0.0227883 -0.113168)
(0.643546 0.0250169 -0.0916318)
(0.759288 -0.0225057 0.0975636)
(0.826295 -0.0424929 0.0319312)
(0.7696 0.0105138 -0.197507)
(0.742843 0.0345206 -0.135164)
(0.71055 0.0462426 -0.0415243)
(0.462825 0.051425 -0.00206974)
(0.481606 0.0216007 -0.00728386)
(0.505093 0.0153891 0.00971145)
(0.491631 0.0364899 -0.046084)
(0.491482 0.034991 0.0680176)
(0.694507 0.0176359 -0.0897179)
(0.565062 0.0420709 -0.0802477)
(0.479694 0.0503692 -0.127441)
(0.488777 0.0498484 -0.06097)
(0.399812 0.0401768 -0.0441387)
(0.361425 0.0740781 -0.126225)
(0.491828 0.0682695 -0.118586)
(0.720818 -0.0199618 -0.184742)
(0.801161 -0.0726086 -0.259318)
(0.75851 -0.00128541 -0.178638)
(0.523803 -0.0114276 -0.0288577)
(0.342717 0.0290062 -0.105188)
(0.312094 0.0637129 -0.0981584)
(0.474472 0.00871297 0.0089004)
(0.532548 -0.0735242 0.0485572)
(0.767722 -0.0426741 -0.120566)
(0.528285 0.0872589 -0.158755)
(0.703229 0.00366674 -0.191737)
(0.954444 -0.0664336 -0.137338)
(0.986814 -0.029901 -0.0994396)
(0.912902 0.000311361 -0.0884663)
(0.725668 0.00161605 0.00508955)
(0.604542 -0.020132 -0.139529)
(0.90292 -0.0721357 -0.104923)
(0.791251 -0.0452454 -0.0902611)
(0.714439 0.0242995 -0.0977372)
(0.781049 0.0218226 -0.129589)
(0.750427 0.00220612 -0.101341)
(0.628529 0.0227986 -0.0859074)
(0.646849 0.0122131 -0.132907)
(0.793645 -0.0127166 -0.000763277)
(0.83036 -0.0390523 0.101776)
(0.792575 -0.00256008 -0.133475)
(0.820805 0.0321044 -0.167283)
(0.761655 0.0238193 -0.0106125)
(0.52775 0.0687484 -0.0397342)
(0.443086 -0.0110915 -0.035962)
(0.451633 -0.0201262 0.0159714)
(0.529234 0.0432429 -0.0531824)
(0.516034 0.0290995 0.0905532)
(0.56709 0.0165521 -0.0229077)
(0.478439 0.0778972 -0.0564258)
(0.469978 0.0386829 -0.108489)
(0.511245 0.036971 -0.0571417)
(0.482775 0.0341348 -0.00908652)
(0.374906 0.0825615 -0.0137549)
(0.491518 0.0754607 -0.080195)
(0.760756 -0.0225042 -0.187292)
(0.714724 -0.0960976 -0.123337)
(0.73411 -0.051153 -0.181923)
(0.571681 -0.0171948 -0.0919396)
(0.3363 0.0306896 -0.0978444)
(0.377447 0.0147507 -0.0872905)
(0.50251 -0.00949157 -0.0547443)
(0.614206 -0.107715 -0.0312485)
(0.742346 -0.0827738 -0.166113)
(0.524635 0.0586701 -0.131231)
(0.607644 -0.0318771 -0.097147)
(0.887365 -0.0742005 -0.0781506)
(0.815227 -0.022512 -0.116324)
(0.814886 -0.0287207 -0.0662144)
(0.751952 0.0062145 -0.0311331)
(0.654788 -0.0417141 -0.119542)
(0.872149 -0.0793322 -0.148942)
(0.856877 -0.0529541 -0.090274)
(0.697083 0.00766735 -0.110374)
(0.670951 0.0133724 -0.0967096)
(0.803796 0.00999518 -0.100789)
(0.695765 0.0209083 -0.0118292)
(0.565474 0.0156355 -0.0587971)
(0.753509 0.00458984 -0.143255)
(0.919564 -0.0281276 0.0912728)
(0.906447 -0.00207737 0.0117082)
(0.9175 0.0196643 -0.141135)
(0.816827 0.0305099 -0.0171392)
(0.604766 0.0888608 -0.0439362)
(0.459068 0.0233957 -0.0797807)
(0.429234 -0.0332687 0.0113936)
(0.556734 0.0616119 0.00581245)
(0.592907 0.0667163 0.0501162)
(0.55643 0.036728 0.0416548)
(0.485264 0.0806475 -0.0571365)
(0.479268 0.074943 -0.0570016)
(0.506029 0.0278865 -0.0602483)
(0.543737 0.0432713 -0.0231592)
(0.400078 0.0819667 0.0337595)
(0.538743 0.107862 -0.0644553)
(0.806882 0.0123012 -0.120322)
(0.708283 -0.0217625 -0.0930978)
(0.697513 -0.0292929 -0.138034)
(0.532415 -0.0220567 -0.123765)
(0.37556 0.0384337 -0.130408)
(0.402338 0.0355328 -0.0903727)
(0.657916 -0.0219677 -0.130762)
(0.733939 -0.0790447 -0.101308)
(0.65139 -0.0529398 -0.142828)
(0.564765 0.0759793 -0.189842)
(0.71765 -0.00183415 -0.23068)
(0.859087 -0.0307283 -0.103427)
(0.796572 -0.000564881 -0.126643)
(0.849434 -0.0107644 -0.145835)
(0.849456 0.033437 -0.081607)
(0.722763 -0.017728 -0.116564)
(0.90848 -0.105564 -0.1399)
(0.885573 -0.0258963 -0.0712312)
(0.59686 0.0610352 -0.0316071)
(0.689782 0.0126223 -0.102894)
(0.840517 -0.0297681 -0.0763074)
(0.71938 0.010854 0.0412342)
(0.605031 0.0149383 0.00223913)
(0.786797 -0.00106086 -0.171187)
(0.958683 -0.0457645 -0.0135273)
(0.911082 -0.0160468 0.0372274)
(0.985864 0.0517892 -0.149723)
(0.881051 0.0331558 -0.0498825)
(0.583024 0.0799619 -0.0346164)
(0.592014 0.00676341 -0.00385956)
(0.544675 -0.0775646 0.0306309)
(0.601537 0.0303269 0.0546689)
(0.587649 0.0761875 0.0268547)
(0.608347 0.0156925 0.00439738)
(0.501316 0.0739411 -0.0458325)
(0.517701 0.0817481 -0.0329547)
(0.563199 0.0586122 -0.0995058)
(0.605711 0.0488938 -0.0405146)
(0.420924 0.0874409 0.0972882)
(0.599624 0.0901628 -0.0561947)
(0.803198 0.0296881 -0.0416914)
(0.762359 -0.0369174 -0.00865197)
(0.688665 -0.0195521 -0.113291)
(0.627017 -0.0261333 -0.137379)
(0.482543 0.0264609 -0.125555)
(0.57796 0.00364439 -0.134786)
(0.759484 -0.0442545 -0.111102)
(0.79878 -0.0796966 -0.10607)
(0.647287 -0.057588 -0.0987528)
(0.636837 0.0486793 -0.228576)
(0.823033 -0.010792 -0.256982)
(0.91261 -0.07491 -0.102389)
(0.845658 -0.022697 -0.105718)
(0.929611 -0.0125401 -0.194149)
(0.975059 0.00796243 -0.20666)
(0.775743 -0.0273031 -0.181934)
(0.891406 -0.114406 -0.104499)
(0.919561 -0.0548817 -0.090962)
(0.606781 0.056972 -0.0336172)
(0.768962 0.0142192 -0.150426)
(0.852982 -0.0127498 -0.0960946)
(0.737213 0.0252083 -0.00860758)
(0.664517 0.0241425 0.00213809)
(0.806676 -0.00707006 -0.133826)
(0.960339 -0.0318633 -0.0979295)
(0.92629 -0.032214 0.068782)
(0.991885 0.0277662 -0.180098)
(0.959888 0.0754621 -0.162524)
(0.758596 0.10037 -0.0240675)
(0.758075 0.0341307 -0.0120875)
(0.624204 -0.0833595 0.0120503)
(0.513181 0.0289644 0.0446554)
(0.572259 0.0589494 -0.0037641)
(0.630905 0.0504725 -0.0558545)
(0.522024 0.0740695 -0.0782623)
(0.556282 0.106828 -0.060104)
(0.590315 0.0841496 -0.110875)
(0.608105 0.0505396 0.0257676)
(0.471772 0.101586 0.0506045)
(0.614975 0.115363 -0.0529162)
(0.71917 0.055628 0.0297242)
(0.750617 -0.00227944 0.0712367)
(0.663481 0.00698696 -0.0546114)
(0.656823 0.0281255 -0.159634)
(0.667124 0.00777976 -0.0888654)
(0.791139 -0.0246582 -0.100557)
(0.880838 -0.0606969 -0.0984228)
(0.810915 -0.0739598 -0.0328111)
(0.729361 -0.0493249 -0.0558061)
(0.708686 0.0163365 -0.197179)
(0.856538 -0.0340134 -0.123528)
(0.929301 -0.05534 -0.0506412)
(0.81726 -0.00755249 -0.104735)
(0.956662 -0.0159758 -0.161233)
(0.996113 0.00253058 -0.194337)
(0.775598 0.00119314 -0.117893)
(0.830107 -0.0513166 -0.000591537)
(0.901036 -0.00745482 -0.0550592)
(0.702392 0.0702973 -0.0887806)
(0.80714 0.0114337 -0.135124)
(0.876775 -0.0124145 -0.125096)
(0.760315 0.032518 -0.0439325)
(0.732103 0.0639807 0.00817614)
(0.879333 -0.0247383 -0.116493)
(0.913326 -0.0714536 -0.0942056)
(0.880076 -0.0278479 0.071953)
(1.00984 0.0078807 -0.0956506)
(1.04371 0.0544858 -0.213069)
(0.882065 0.0572626 -0.0374744)
(0.845151 0.0302325 0.0132893)
(0.792367 -0.0634558 -0.0540282)
(0.547685 -0.0128722 0.0149171)
(0.615986 0.0601849 -0.00195613)
(0.666695 0.0495856 -0.0405976)
(0.555157 0.0775093 -0.0772804)
(0.568792 0.10866 -0.0693795)
(0.648916 0.0994558 -0.0938521)
(0.641433 0.051935 0.0350389)
(0.564288 0.0618234 0.0313329)
(0.569453 0.0972843 0.0220607)
(0.686142 0.0607656 0.0319754)
(0.804727 -0.0235118 0.0313142)
(0.690624 -0.00572067 -0.0325978)
(0.630826 0.00974594 -0.14013)
(0.704447 6.37384e-05 -0.1313)
(0.861993 -0.0341879 -0.0831311)
(0.921616 -0.0500739 -0.106667)
(0.847591 -0.0436737 -0.069674)
(0.787137 -0.0255559 0.0164993)
(0.823604 -0.0172792 -0.0197806)
(0.871855 -0.0560011 0.0053068)
(0.916952 -0.0671138 -0.0619855)
(0.743976 -0.00749307 -0.139969)
(0.920815 -0.0494558 -0.110237)
(1.06115 -0.0239753 -0.121855)
(0.850613 0.0133757 -0.0681517)
(0.856488 -0.0502584 0.0601791)
(0.954111 -0.0126129 0.002708)
(0.771444 0.0514253 -0.0924521)
(0.865668 -0.00915209 -0.142058)
(0.902616 0.00162934 -0.109416)
(0.807798 0.0645201 -0.0183402)
(0.744548 0.0596454 -0.0139603)
(0.931965 0.00367737 -0.142832)
(0.970153 -0.0382742 -0.099844)
(0.880634 -0.0394738 0.0842697)
(0.942469 -0.0133966 0.0304352)
(1.01125 0.0572204 -0.158622)
(0.941058 0.070809 -0.0790947)
(0.887455 0.045971 0.0261439)
(0.890567 -0.0112529 -0.0841122)
(0.631832 -0.0248442 -0.0949833)
(0.621055 0.0289168 1.403e-05)
(0.682199 0.0705094 -0.0278079)
(0.606827 0.105761 -0.0509926)
(0.643854 0.0912375 -0.0909545)
(0.648009 0.0645252 -0.11568)
(0.645927 0.0752865 -0.0496668)
(0.648292 0.0321802 -0.0397606)
(0.615056 0.0325204 0.0472701)
(0.713667 0.0479771 0.0534356)
(0.856756 0.0160584 0.0227972)
(0.783967 0.0274824 -0.0346888)
(0.685615 0.0387084 -0.0967569)
(0.743392 -0.0100837 -0.138903)
(0.89883 -0.0526087 -0.104683)
(0.954268 -0.0413779 -0.117306)
(0.880476 -0.028646 -0.0885578)
(0.796117 -0.0240311 0.00748667)
(0.811078 -0.00888914 -0.000300227)
(0.786886 -0.0163476 -0.041576)
(0.823162 -0.014477 -0.00371885)
(0.828258 0.0104792 -0.0801029)
(0.911151 -0.0358216 -0.120727)
(1.03443 -0.0268217 -0.0738822)
(0.918072 0.0136748 -0.0897905)
(0.943929 -0.0261861 -0.00480838)
(0.993467 0.0136307 0.0656261)
(0.886811 0.0476369 -0.0699209)
(0.983827 0.00679711 -0.136667)
(0.913325 0.000187645 -0.0615316)
(0.815638 0.0613743 -0.0158628)
(0.799075 0.0571912 -0.00872252)
(0.962322 -0.0259304 -0.0732346)
(1.03642 -0.0610427 -0.15594)
(0.966527 -0.0532186 0.0140063)
(0.901456 0.00172361 0.0773813)
(0.974165 0.0550505 -0.157974)
(1.02533 0.074086 -0.178009)
(1.01 0.0391233 -0.000152261)
(0.997886 0.00658392 0.0111928)
(0.801732 -0.00444868 -0.10427)
(0.665379 -0.00952987 -0.0305208)
(0.659905 0.0611373 -0.00803598)
(0.630996 0.130803 -0.0546578)
(0.706275 0.101921 -0.0712456)
(0.701244 0.072069 -0.0792465)
(0.743983 0.0697741 -0.0885059)
(0.74242 -0.00977292 -0.131458)
(0.665313 -0.00827604 -0.0872777)
(0.717242 0.00398475 -0.021943)
(0.844195 -0.015258 -0.0355632)
(0.803479 0.00610538 -0.0584772)
(0.711689 0.0314231 -0.112327)
(0.779667 -0.00717935 -0.151277)
(0.906548 -0.0521014 -0.120343)
(0.970676 -0.0439209 -0.110852)
(0.916008 -0.0172009 -0.0778059)
(0.812683 -0.0255374 -0.0286763)
(0.776378 0.00719588 -0.0794318)
(0.789451 -0.000837996 -0.12473)
(0.805574 -0.0258083 -0.0434779)
(0.877024 0.0063717 -0.0320682)
(0.873218 -0.00646954 -0.12111)
(0.912578 -0.0237881 -0.0844452)
(0.885871 -0.00736526 -0.0992532)
(0.969042 -0.0462826 -0.0730574)
(0.981869 0.0129631 0.0111199)
(0.992768 0.0595109 -0.0892461)
(1.07509 -0.00913619 -0.130277)
(0.945341 0.00532612 -0.110756)
(0.834212 0.0799972 -0.0728384)
(0.901121 0.0450562 -0.0541226)
(0.990074 -0.0463309 -0.0151036)
(1.04 -0.0741926 -0.0808585)
(0.973759 -0.044709 -0.084213)
(0.862566 0.00641616 -0.0180334)
(0.989773 0.0170892 -0.0742655)
(1.12841 0.0303028 -0.142582)
(1.01737 0.0385669 -0.073401)
(0.969778 0.0418451 0.0516741)
(0.957382 0.00461011 -0.00832371)
(0.845329 -0.0198718 -0.0464299)
(0.735724 0.055232 0.00578505)
(0.684316 0.148932 0.0169115)
(0.751786 0.125199 0.00210934)
(0.785082 0.106573 -0.0393236)
(0.833181 0.0773424 -0.0604594)
(0.859647 0.00488855 -0.0769535)
(0.751376 -0.029556 -0.0978237)
(0.73968 -0.0339146 -0.0367192)
(0.848447 -0.0143072 -0.0409794)
(0.851154 0.0200221 -0.0705864)
(0.801467 0.0282124 -0.0558426)
(0.830695 0.0161208 -0.118594)
(0.944074 -0.0194126 -0.121619)
(1.02555 -0.0373926 -0.0456807)
(0.988011 -0.00462195 -0.0572568)
(0.865552 0.0135951 -0.046304)
(0.774593 0.0170369 -0.057909)
(0.788737 0.00224147 -0.0748618)
(0.834891 -0.00542182 -0.0298407)
(0.850799 0.016886 0.0111959)
(0.870717 -0.00871288 -0.0385726)
(0.867245 -0.030352 -0.113727)
(0.870416 -0.00363766 -0.0940631)
(1.01206 -0.01537 -0.0591374)
(1.01332 0.000532381 -0.0635153)
(1.03813 0.0245541 -0.0899754)
(1.10469 -0.0188448 -0.0397127)
(1.01879 0.0236673 -0.093852)
(0.957832 0.0698394 -0.121954)
(0.996085 0.0372264 -0.0930371)
(0.998816 -0.0285573 -0.0307949)
(1.00981 -0.0629493 -0.0701451)
(0.989878 -0.0533496 -0.105168)
(0.936666 -0.0282628 -0.0238182)
(0.981598 0.0229809 -0.000141719)
(0.9681 0.0605642 -0.0935553)
(0.861695 0.0333908 -0.108599)
(0.920841 0.0148294 -0.00238241)
(0.992397 0.018096 0.0349782)
(0.889558 -0.0116569 0.00615815)
(0.715581 0.0439714 -0.0121612)
(0.656262 0.145735 -0.0289989)
(0.75216 0.148522 -0.0474442)
(0.787799 0.112347 -0.064632)
(0.848557 0.0696164 -0.0272146)
(0.92247 -0.0165073 -0.00393019)
(0.871497 -0.0559293 -0.0477076)
(0.840825 -0.0326243 -0.0329557)
(0.916754 -0.0124752 -0.0296911)
(0.910184 0.020175 -0.0909349)
(0.863394 0.0431587 -0.109997)
(0.905127 0.0280528 -0.136613)
(0.97558 -0.0211109 -0.117817)
(1.02275 -0.0334374 -0.046099)
(0.99204 -0.00231056 -0.0542786)
(0.882836 0.0149133 -0.0849796)
(0.821976 0.0125947 -0.0776647)
(0.842692 -0.00396581 -0.0461799)
(0.863463 0.00507102 -0.0189725)
(0.887043 0.0392967 0.00675796)
(0.954968 0.00748465 0.0219806)
(0.915692 -0.042839 -0.0599113)
(0.847123 -0.0166285 -0.108923)
(0.992133 -0.0279186 -0.0787411)
(1.08983 -0.0108238 -0.0657336)
(1.10219 -0.00265286 -0.0400926)
(1.08937 0.00607781 -0.00489808)
(1.02884 0.0413958 -0.0664443)
(0.998655 0.0601702 -0.117611)
(1.00653 0.0184543 -0.109192)
(1.00915 -0.0312103 -0.0672626)
(1.04565 -0.0518799 -0.05046)
(1.06776 -0.0296274 -0.0472536)
(0.97583 -0.00839977 -0.0316601)
(0.916257 0.0242497 -0.0399396)
(0.934834 0.0556777 -0.0693911)
(0.916584 0.0454518 -0.0917283)
(0.973781 0.00557457 -0.0259797)
(1.09203 -0.00545168 0.0620955)
(1.05459 0.0177198 0.0785928)
(0.78799 0.0668464 0.0163812)
(0.643921 0.103646 -0.0723875)
(0.716103 0.075011 -0.102169)
(0.782999 0.0638704 -0.0650455)
(0.852688 0.0561491 0.0133509)
(0.943877 0.00673677 0.050722)
(0.965469 -0.0518152 0.0274036)
(0.94547 -0.0594663 0.00951521)
(0.98067 -0.0164732 -0.00519472)
(0.974722 0.0378044 -0.0409155)
(0.961404 0.0415623 -0.0626163)
(0.999037 0.0153757 -0.0807276)
(1.00751 -0.0242931 -0.0794562)
(0.99693 -0.0434943 -0.0446516)
(0.987193 -0.0124824 -0.0166776)
(0.94198 0.00510945 -0.0461107)
(0.886256 0.0150911 -0.0746877)
(0.878462 -8.35893e-05 -0.036551)
(0.91556 0.00679054 -0.00667603)
(0.951287 0.0484953 -0.00653934)
(1.01254 0.0317689 0.0144819)
(0.986048 -0.00774774 -0.0151237)
(0.847114 0.000492961 -0.0737003)
(0.894719 -0.0234228 -0.0614269)
(1.06444 -0.0358066 -0.0251061)
(1.11591 -0.0114115 0.00857109)
(1.07918 0.0106034 -0.0247788)
(1.01427 0.01807 -0.0801569)
(0.989669 0.0251609 -0.0827609)
(1.01509 -0.0137561 -0.053838)
(1.01364 -0.054361 -0.0213417)
(1.02748 -0.0522289 -0.0311688)
(1.04862 -0.013425 -0.0560761)
(0.990845 0.00460208 -0.0533084)
(0.919111 0.0134509 -0.0386288)
(0.896126 0.0612529 -0.0496104)
(0.90148 0.069057 -0.0953805)
(1.03862 0.00311518 -0.049686)
(1.1208 -0.0194696 0.0269847)
(0.973428 0.0190663 0.0179828)
(0.768868 0.0982432 0.00111144)
(0.745171 0.111099 0.0192275)
(0.836045 0.0848673 0.011331)
(0.889383 0.0959063 0.00895498)
(0.911154 0.0610939 0.0483047)
(0.931633 -0.0156303 0.0401007)
(0.924545 -0.0678986 0.0164667)
(0.925051 -0.062449 0.0217822)
(0.995479 -0.00572641 0.0339917)
(1.06396 0.03564 0.0510453)
(1.09014 0.016805 0.039754)
(1.06825 -0.00500074 -0.0243864)
(1.01502 -0.0152022 -0.0399394)
(0.973288 -0.0145275 -0.0163061)
(0.992532 0.00581748 0.0167552)
(1.00345 0.0230698 0.0244281)
(0.950814 0.037459 -0.0211889)
(0.921911 0.01618 -0.013057)
(0.938403 0.000853941 0.0183116)
(0.96541 0.0253735 0.0133115)
(1.00615 0.0177062 0.0426094)
(0.995167 -0.00584956 0.0345854)
(0.907546 0.00448862 -0.0431551)
(0.895741 -0.00193373 -0.0614526)
(0.982961 -0.012351 0.00233382)
(1.06784 0.0109018 0.0305795)
(1.11557 0.0503419 -0.00791551)
(1.07158 0.0291584 -0.0259538)
(1.03211 -0.00527768 -0.0214386)
(1.0536 -0.0294549 -0.0147616)
(1.0405 -0.0317819 0.00632536)
(1.01255 -0.0347846 -0.00359714)
(1.04892 -0.0256911 -0.0394915)
(1.04112 0.00206102 -0.032393)
(0.931298 0.0302225 -0.0218593)
(0.831693 0.0573059 -0.0472116)
(0.829855 0.0109319 -0.0698352)
(0.943024 -0.0280637 -0.0329354)
(1.0062 0.0265621 0.00574237)
(0.923512 0.063652 -0.0173858)
(0.849257 0.0594171 0.0107073)
(0.869128 0.0597561 0.0805887)
(0.902896 0.0825805 0.0530579)
(0.915783 0.116289 0.00303173)
(0.949675 0.0957583 0.0194909)
(1.00796 0.0252833 0.0494673)
(1.00623 -0.0497472 0.0692475)
(0.980107 -0.0825389 0.0608252)
(1.01664 -0.0564289 0.0271249)
(1.05871 -0.0138259 0.0400277)
(1.06914 -0.0139976 0.0419599)
(1.05595 -0.00759977 -0.0194647)
(1.04224 0.00890553 -0.047961)
(1.01876 0.00200774 -0.0402938)
(1.00353 -0.0185292 -0.0132487)
(0.998121 -0.0255944 0.0322036)
(0.968583 0.00954361 0.0210998)
(0.937761 0.0166489 -0.0157651)
(0.925409 0.00510853 -0.0228782)
(0.956085 0.0289904 -0.019176)
(0.997417 0.0395252 0.00708811)
(1.01089 0.0396489 0.0166087)
(0.986495 0.0403454 -0.0351883)
(0.977853 0.00266027 -0.053947)
(1.00407 -0.0137152 -0.00718208)
(1.0725 0.0215991 0.0176897)
(1.10536 0.0327059 0.0264595)
(1.12044 0.0429287 -0.00887478)
(1.08843 0.00732161 -0.0340624)
(1.07071 -0.0459071 -0.0376308)
(1.0457 -0.0516102 -0.0190162)
(1.00004 -0.0294099 -4.5606e-05)
(1.00144 -0.0183405 -0.00334721)
(1.02775 0.0205069 -0.0159317)
(1.00813 0.0597579 -0.0388194)
(0.957152 0.0421045 -0.0568519)
(0.905735 -0.00795075 -0.0538058)
(0.896503 -0.0412772 -0.0343308)
(0.953218 -0.00574268 -0.0131936)
(0.994367 0.0458665 -0.0121877)
(0.997496 0.0573901 0.0283259)
(0.982031 0.0574381 0.0883819)
(0.922227 0.0680898 0.045614)
(0.886492 0.101484 -0.0214937)
(0.967092 0.0885974 0.01846)
(1.07779 0.0199008 0.0866687)
(1.10701 -0.0414797 0.123445)
(1.07261 -0.0830386 0.106105)
(1.03351 -0.0648506 0.0346)
(1.04446 -0.0218928 0.0176765)
(1.07402 -0.00765082 0.0236611)
(1.07674 0.00651862 -0.0149525)
(1.0767 0.0130159 -0.0309849)
(1.06002 0.0100597 -0.0157696)
(1.01507 0.00548304 -0.004944)
(0.963479 -0.00630956 -0.00339273)
(0.934291 0.00214024 -0.0359707)
(0.934152 0.000865861 -0.068946)
(0.932451 -0.00424519 -0.0684482)
(0.956717 0.0218102 -0.0461307)
(1.00113 0.03161 -0.0125367)
(1.03925 0.0212466 0.000420945)
(1.05197 0.025323 -0.0202152)
(1.04076 0.00481561 -0.0480141)
(1.0265 -0.0145074 -0.0333294)
(1.0479 0.00335261 0.0140321)
(1.06123 0.0325641 0.0225922)
(1.06329 0.0212845 -0.0333339)
(1.02734 0.00869359 -0.0597281)
(1.01554 -0.0233281 -0.0477227)
(1.00995 -0.0424203 -0.04078)
(0.998716 -0.0352637 -0.0489743)
(0.98963 -0.0287195 -0.0437362)
(1.00436 -6.91394e-05 -0.012221)
(1.03417 0.0594068 -0.0158464)
(1.05496 0.080151 -0.0543888)
(1.05157 0.0181575 -0.0666741)
(0.992725 -0.0602436 -0.0437566)
(0.963865 -0.0604004 -0.0135735)
(1.00554 -0.0197544 -0.00448563)
(1.02515 0.00744089 -0.0106723)
(1.01913 0.0316979 0.0183239)
(0.981293 0.0630141 0.0512896)
(0.962453 0.089216 0.0642821)
(1.02939 0.0710672 0.104287)
(1.0959 0.0248843 0.126766)
(1.12947 -0.0108334 0.118779)
(1.13886 -0.0578585 0.10486)
(1.09803 -0.0782191 0.0540694)
(1.05624 -0.0475952 0.020035)
(1.05331 -0.0264902 0.027452)
(1.06049 -0.0190041 0.0114113)
(1.04373 -0.0177676 -0.00953162)
(1.01287 -0.0160611 -0.0152343)
(0.9894 -0.0063294 -0.0304597)
(0.951086 -0.0132345 -0.0513148)
(0.92344 -0.0178307 -0.0753445)
(0.927594 -0.0177284 -0.0690016)
(0.92833 -0.0126931 -0.0377354)
(0.965312 0.0109224 -0.00469606)
(1.01686 0.0168271 0.0206244)
(1.03742 0.0134385 0.00680327)
(1.02824 0.02255 -0.0347101)
(0.984786 0.0201787 -0.0540551)
(0.960587 0.0212863 -0.0142061)
(0.999957 0.0365935 0.0351495)
(1.03244 0.0150198 0.0214313)
(1.06471 0.0281402 0.00439349)
(1.05971 0.00828223 -0.0112515)
(1.06101 -0.0350825 -0.00889354)
(1.05802 -0.051369 -0.0133953)
(1.04872 -0.0289219 -0.0436068)
(1.03295 -0.00489897 -0.0663246)
(1.00465 0.0164657 -0.0374156)
(0.989391 0.0287893 -0.00661834)
(1.00535 0.0176176 -0.0153407)
(1.05892 0.011 -0.0259472)
(1.10577 0.0106711 -0.0209796)
(1.09906 -0.00951062 -0.0216252)
(1.06641 -0.0325792 -0.0302042)
(1.00954 -0.025667 -0.0475596)
(0.977384 0.00464269 -0.0305881)
(0.990397 0.0370988 0.0528139)
(1.01436 0.0594437 0.108707)
(1.05834 0.0469005 0.0949697)
(1.1054 0.0130696 0.057495)
(1.14668 -0.0258985 0.0405395)
(1.17054 -0.0503824 0.0739251)
(1.14746 -0.0496365 0.0838721)
(1.08295 -0.0455127 0.0413861)
(1.02527 -0.0413382 0.0176507)
(1.0272 -0.0180975 0.00696)
(1.05053 0.00447924 -0.00461832)
(1.03898 0.013376 -0.00451458)
(1.0183 0.0115573 0.000235371)
(0.996491 -0.0125552 0.00235612)
(0.973243 -0.0251661 -0.00548191)
(0.970394 -0.0250443 -0.00140381)
(0.961343 -0.0208392 0.0111376)
(0.978848 0.00417747 0.0114042)
(1.01594 0.0214082 -0.00309649)
(1.00294 0.030777 -0.0264448)
(0.962893 0.0427801 -0.0366482)
(0.937868 0.0276278 -0.0249177)
(0.93361 -0.000456795 -0.00421365)
(0.966897 -0.003217 0.0161009)
(0.978269 -0.00959333 0.0476942)
(0.997579 0.00434753 0.0639999)
(1.04509 0.00170243 0.033983)
(1.08711 -0.0238705 -0.0173668)
(1.0971 -0.0402155 -0.0368207)