/*--------------------------------*- C++ -*----------------------------------*\
  =========                 |
  \\      /  F ield         | OpenFOAM: The Open Source CFD Toolbox
   \\    /   O peration     | Website:  https://openfoam.org
    \\  /    A nd           | Version:  10
     \\/     M anipulation  |
\*---------------------------------------------------------------------------*/
FoamFile
{
    format      ascii;
    class       volTensorField;
    location    "17";
    object      gradientUWrite;
}
// * * * * * * * * * * * * * * * * * * * * * * * * * * * * * * * * * * * * * //

dimensions      [0 0 -1 0 0 0 0];

internalField   nonuniform List<tensor> 
25600
(
(-0.18399 -0.00174854 0.11794 40.556 -1.27457 13.0167 -1.76606 0.0381757 -0.0172692)
(-0.118265 0.0934427 0.126765 25.5394 -0.986397 7.76009 -1.80922 -0.0573004 0.0182583)
(0.300179 0.0819984 0.357726 25.0778 -1.47417 17.1472 -2.79102 0.0629093 0.518703)
(0.0552597 -0.0415323 -0.23162 33.4988 -1.0403 22.0281 -3.00221 0.0991521 -0.0678375)
(-0.238122 -0.0635955 -0.316041 28.2294 -0.0322974 13.0365 -2.2223 -0.026708 -0.864638)
(-0.0503074 0.0136901 0.0642307 16.6887 -1.01181 15.1508 -1.41065 -0.151041 -0.711737)
(0.0209265 -0.037957 -0.390962 18.2167 -0.600595 9.77011 -2.56911 0.0628666 -0.62343)
(-0.00854679 -0.10497 -0.5792 37.2499 -0.399613 -10.4694 0.0676883 -0.147405 -1.23019)
(0.201648 -0.028863 0.0154591 44.4829 -0.463053 -22.2577 0.238885 -0.126062 -1.24877)
(-0.318718 0.148949 0.679764 49.7582 -1.73713 -7.9298 0.666943 -0.014603 -0.0476744)
(-0.328663 0.00117919 0.13403 16.0311 -0.100331 12.1436 -1.26921 0.0485545 -0.473011)
(0.512031 -0.153634 -0.400234 24.3971 -0.404361 -2.31674 0.174816 -0.0884508 -1.58947)
(0.182778 0.0403608 -0.138599 43.7407 -1.48797 -1.99922 0.777962 0.00505906 -0.498379)
(0.217359 0.00120647 -0.254671 39.5609 -1.44927 -7.19986 1.27111 -0.0838956 -0.554907)
(0.676452 -0.0711661 -0.222242 58.9962 -2.11785 -16.0074 1.44705 -0.0694434 -0.411446)
(-0.155272 0.0382557 0.248331 79.668 -2.58844 -20.6517 1.66413 0.0225179 0.548123)
(-0.849593 0.0938952 0.589965 58.3667 -2.26689 -4.2628 0.685943 -0.0532309 1.22888)
(-0.552276 -0.0558993 -0.0863668 26.0337 -0.483242 10.3457 -0.82345 -0.107361 -0.46416)
(0.111033 -0.0257639 -0.382092 28.7712 -0.405675 -9.1331 0.929908 -0.138437 -1.28862)
(0.113663 0.10243 0.281065 35.1614 -2.04143 -8.11512 -0.0719915 0.00647618 0.147724)
(0.146363 -0.0247829 0.205142 27.1634 -0.889617 4.05907 -0.92332 -0.0585557 -0.774914)
(0.0934657 -0.0704793 0.0378937 50.7616 -1.52515 2.42762 1.21623 -0.0472286 -0.760667)
(-0.538796 0.0313268 -0.0728724 40.7747 -1.15608 9.78513 0.987184 -0.106991 -0.194501)
(0.476141 -0.00535623 -0.901165 16.3724 -0.393375 2.59448 1.1027 -0.290041 -1.67314)
(1.44084 -0.0660916 -0.794213 61.7788 -2.92376 -31.875 2.57327 -0.123419 -0.419709)
(0.122931 0.0699094 0.750564 90.2161 -3.50725 -48.2828 0.665677 0.0302757 1.46592)
(-0.734602 0.0636647 0.988875 62.1099 -1.961 -9.44521 -2.28579 0.211093 1.43766)
(-0.292525 -0.0622218 -0.025145 50.2912 -1.24257 5.69033 -0.97694 0.0206911 -0.367976)
(-0.404878 0.0644456 0.0976016 50.1438 -1.82251 -0.152135 -0.00750598 0.0748859 0.148305)
(-0.502287 0.0783316 0.265219 25.5663 -1.3945 12.8945 -1.01014 0.0742923 0.468899)
(-0.0313514 -0.0844358 -0.460842 19.8886 -0.351892 14.0001 -0.586381 -0.0646817 -0.993909)
(0.817476 -0.114017 -0.788818 26.3979 -0.953935 -11.0635 1.16682 -0.105007 -1.63284)
(0.402499 0.0032899 0.0555758 75.1989 -2.45421 -33.8541 1.51119 0.121615 0.181918)
(-0.576263 0.0493363 0.467907 54.4763 -2.31134 -11.2661 0.133787 0.152057 0.761477)
(-0.0464687 -0.0179896 -0.151107 34.1035 -1.36852 -3.11429 -0.15035 0.00109367 -0.368276)
(0.348805 -0.0230338 -0.201891 49.3779 -1.72835 -17.6771 0.347364 0.0376204 -0.554041)
(-0.0996699 0.0421376 0.282061 56.152 -2.11645 -12.7124 0.347797 0.0645456 0.310913)
(-0.326325 0.0572404 0.376292 41.0578 -1.86991 -2.40067 -0.879078 0.0219769 0.433935)
(-0.0265826 9.57985e-05 0.0845966 39.4356 -1.88646 4.11606 -0.677609 0.0493247 0.195182)
(0.143654 -0.0216484 0.171079 39.5959 -1.93412 2.99233 0.291339 -0.00621672 0.0222234)
(-0.531521 0.0514052 0.119199 19.015 3.72452 -11.7677 -3.03793 0.197554 -0.306785)
(-0.678052 -0.113208 0.0762207 22.0209 4.29224 -15.8367 -1.2772 0.352811 -0.960782)
(0.0853757 -0.0930118 0.35146 8.942 0.872821 -17.6929 -3.85996 0.329296 1.30575)
(0.103764 0.120968 0.0401545 8.69087 1.76687 -21.4278 -4.88052 0.140429 0.293993)
(-0.615743 0.0714418 -0.0114328 0.782107 3.78659 -1.04446 -3.66033 0.0312671 -1.24118)
(-0.467437 -0.0447306 -0.241197 -11.0468 5.63548 1.06213 -1.61144 0.357406 -1.38808)
(1.05051 0.0737162 -0.907613 -3.52977 2.36483 -15.0867 -3.79137 -0.00695079 -0.483119)
(1.38079 0.122648 -1.0351 25.5147 4.13988 -18.3928 1.28596 0.0388813 -1.83419)
(0.431265 -0.0380844 0.115591 33.3723 4.01179 -27.8877 1.68693 -0.143357 -1.60215)
(-1.13492 -0.144905 1.04841 32.3908 4.26786 -20.0241 1.76865 -0.185243 -0.298606)
(-0.962616 0.0682885 0.145634 19.2708 2.43054 -19.6531 -1.50587 0.112854 0.306919)
(0.883526 0.0965462 -0.298162 16.056 5.28965 -14.1351 0.647914 -0.0773278 -2.57317)
(0.590673 -0.0989526 -0.102496 17.5471 4.66011 -5.06281 1.66317 -0.0898629 -1.59214)
(0.55742 -0.0342144 -0.451251 34.9505 3.90055 -17.6282 2.86225 -0.0404843 -0.263229)
(1.34996 0.018804 -0.457877 29.4012 2.18676 -11.4313 1.21082 -0.12258 -0.0102012)
(0.13793 -0.0498624 0.340041 39.0587 2.73474 -11.6544 2.82919 -0.137879 0.470287)
(-1.86578 0.00663163 0.969464 41.2918 3.26106 -17.655 1.27648 0.150177 2.18902)
(-0.937726 0.158666 -0.159283 16.9869 4.60838 -12.238 -1.25306 0.310158 -0.587856)
(0.354436 -0.0530151 -0.543568 29.1422 5.60391 -19.2622 2.34551 0.0403414 -1.96462)
(-0.208975 -0.13794 0.379613 27.3195 2.80342 -18.2908 1.16466 0.0369514 0.432051)
(0.65351 0.0542168 0.324797 19.3485 2.68734 -18.4567 -1.51543 0.146196 -0.786848)
(0.607858 0.0636144 0.257283 32.769 4.41743 -13.2442 2.65031 -0.0044298 -1.96947)
(-1.20284 0.0246322 0.0888708 32.4872 5.14467 -11.3194 2.16322 0.0900984 -0.782185)
(0.5729 -0.0864016 -1.18386 27.297 5.72526 -11.0151 2.72952 0.162157 -1.88797)
(2.27057 -0.0898796 -1.78275 21.3174 1.98812 -4.73572 4.40709 -0.278963 -0.885919)
(-0.117938 -0.0266328 0.345478 36.4995 2.63881 -21.9241 0.926363 -0.0565021 1.88371)
(-1.27648 0.0482118 1.73026 22.2502 1.57922 -25.4386 -3.36197 0.0419493 2.653)
(-0.30299 0.0756746 0.512864 22.8031 3.76885 -14.6506 -2.20459 -0.0281922 -0.389822)
(-0.845564 -0.0788223 0.268778 26.1267 3.74763 -13.3743 0.234241 -0.201196 0.0795251)
(-1.02715 -0.00938117 0.447171 18.732 2.55376 -13.3535 -1.55385 0.0403217 1.07711)
(0.0779089 0.115881 -0.743958 9.86814 3.8781 -9.03687 -1.29656 0.0870429 -0.979139)
(1.98861 0.0156523 -1.63084 17.1383 4.77234 -10.1734 2.09299 -0.135484 -2.5421)
(1.02326 -0.0744908 -0.0717091 37.3075 2.20934 -21.2779 1.62129 -0.362051 0.731866)
(-1.51177 0.00241612 1.09028 37.7132 2.63991 -24.4663 0.0848194 -0.169509 1.94898)
(-0.215079 0.0502269 -0.168512 24.312 3.66911 -17.8491 -0.345814 -0.0596201 -0.354949)
(0.767504 -0.0137135 -0.27905 28.6992 3.50765 -22.2111 1.49952 -0.208883 -1.195)
(-0.324766 -0.053742 0.487341 24.9408 3.48133 -15.6261 0.634255 -0.0133347 0.186218)
(-0.513834 -0.0509559 0.464717 27.2092 2.98136 -18.8979 -1.26503 0.157681 0.714717)
(-0.0470882 -0.00345766 0.18852 26.9595 2.53951 -18.7855 -0.958615 0.0165281 0.513491)
(-0.099518 0.0557604 0.276528 21.7478 3.25763 -12.0535 0.476913 0.0114789 0.420982)
(-0.133557 0.0523561 -0.0994659 8.89548 -2.10275 -6.42624 -2.34218 0.194956 -0.0503232)
(-0.640807 -0.0496735 -0.208478 19.5725 -0.528001 -11.2226 0.245815 0.432323 -1.74667)
(-0.443915 -0.0455394 0.037248 13.2787 -1.21997 -11.7275 -1.35188 0.66302 0.178258)
(-0.41823 0.109563 0.697364 16.0062 -2.1054 -20.5477 -2.23491 0.434758 0.262598)
(-1.33394 0.145084 0.945145 6.71516 0.134281 -6.08771 -1.57779 -0.138723 -1.71475)
(-0.256238 -0.0621232 -0.711707 1.7007 -2.92235 -1.87611 -0.708121 0.279249 -0.300829)
(2.01779 -0.135019 -1.45664 19.0865 -3.1352 -13.6067 -1.07575 0.172201 -0.959055)
(1.97189 -0.0331415 -1.2688 15.6757 -3.0054 -9.47529 2.04835 -0.354188 -1.53132)
(0.573592 -0.0205905 -0.0882465 18.1695 -2.52895 -13.8255 2.72319 -0.357086 -0.732213)
(-1.04698 0.0875175 1.11583 9.08018 -1.72171 -8.15625 1.18123 -0.285648 -0.345588)
(-1.20341 0.0531524 0.471087 21.066 -1.29947 -17.1207 -0.826013 0.26722 0.720943)
(0.375887 -0.0506014 0.427513 12.4624 -2.53747 0.219652 1.72616 -0.344831 -1.61756)
(1.22714 -0.025488 -0.342824 12.4282 -1.79506 9.84185 1.18367 -0.205294 -2.853)
(0.864166 -0.137302 -0.600769 27.919 -3.5761 -4.097 2.57995 -0.15252 0.334445)
(0.845046 -0.147117 0.144406 30.7718 -4.68198 -1.526 0.929833 -0.327664 0.698416)
(0.498308 0.108766 -0.118284 14.2594 -5.59778 6.12088 1.10384 -0.365246 1.16624)
(-2.01561 0.210228 0.518502 20.9466 -2.71157 -9.10837 -0.0357487 0.196204 2.93602)
(-1.21151 0.0572009 -0.171376 11.6512 -1.91672 -6.60517 -0.491674 0.260236 0.225976)
(0.680118 -0.126702 -0.713573 19.5948 -2.82749 -4.10718 2.82555 -0.251405 -1.2789)
(-0.416552 -0.0410393 0.317473 15.8026 -1.49956 -8.24895 1.40928 0.0539961 -0.180364)
(0.40863 0.0600136 0.483015 12.4849 -2.05363 -8.72219 0.138265 0.12588 -0.648455)
(0.796615 0.057242 0.425863 10.2123 -2.30326 -6.91544 1.62324 -0.240116 -1.87154)
(-0.786663 0.107108 0.0389757 15.3317 -1.79999 -12.0238 0.658883 -0.0393433 -0.65991)
(-0.175041 -0.17854 -0.494781 35.054 -3.06207 -7.7091 2.82494 -0.109821 -0.40561)
(1.88639 -0.240975 -1.32189 5.75346 -4.71166 11.7078 5.71307 -0.551989 -0.829601)
(0.200592 0.0560788 -0.397942 11.2787 -2.88624 8.93725 2.09742 -0.218716 -1.37146)
(-1.46704 0.13011 1.33248 3.15807 -1.37453 -1.3731 -3.03115 0.422344 0.708356)
(-0.068843 0.0485261 0.613938 10.4451 -1.9687 -3.86497 -1.63946 -0.0692367 -0.736335)
(-0.594622 0.00898624 0.154981 7.82469 -1.26123 -6.93509 -0.0671856 -0.168762 -0.808975)
(-1.38357 0.0945953 0.496134 20.2348 -1.29961 -14.7493 -1.42993 0.232353 1.02149)
(-0.133811 0.0229522 -0.249894 6.95797 -2.63602 -6.84298 -1.90708 0.0768149 0.0685591)
(2.27627 -0.222823 -1.40765 12.312 -3.5041 7.40113 2.30981 -0.344111 -1.6948)
(1.52209 -0.111403 -0.752569 6.99245 -5.08133 6.5109 1.005 -0.303226 0.199852)
(-1.22908 0.137866 0.602597 18.0499 -4.69006 -14.3894 -1.77628 -0.0149354 2.89475)
(-0.547305 0.0250258 -0.0198443 20.2872 -2.59662 -16.6891 -0.725624 -0.0825151 0.556884)
(0.343052 -0.0347504 -0.0665063 10.7476 -1.75989 -8.35897 1.54275 -0.283871 -1.47789)
(-0.162737 0.0214985 0.451816 7.10463 -1.39267 -5.60104 0.207541 0.0829402 -1.16292)
(-0.191641 0.0139685 0.186003 14.6483 -2.85754 -11.3056 -0.559332 0.431229 0.567105)
(-0.338188 0.0163184 0.467294 15.1634 -2.67544 -11.2479 -0.172736 0.277979 0.757316)
(-0.288296 0.0386691 0.563578 12.2301 -3.155 0.608167 0.763935 0.161212 1.04136)
(-0.107461 0.21727 -0.606344 4.30859 2.14417 -0.477616 -1.75515 0.388278 -0.0829944)
(-0.404867 -0.063791 -0.230218 6.02621 4.6732 -3.55451 -0.0942868 0.51264 -0.632617)
(-0.0869971 -0.197411 -0.206234 1.91466 3.19393 -0.184574 -0.650489 0.676133 -1.60692)
(-0.258691 0.207663 0.330732 16.8017 2.91636 -12.5604 -0.358052 0.374828 -1.10216)
(-1.44768 0.0124675 1.07249 17.4724 4.63062 -17.6786 -0.503923 0.225484 -1.03015)
(0.293004 -0.24954 -0.669161 21.7784 1.52238 -17.0257 -0.979558 0.547306 0.191635)
(1.83665 0.0893415 -1.33279 22.1413 2.08707 -9.02426 1.85993 0.000204195 -1.75639)
(1.26375 0.176525 -1.02556 8.35312 2.78461 -0.848395 2.83759 -0.434474 -1.33395)
(0.000365643 0.0412628 0.219304 9.06745 3.68869 -0.316715 3.86034 -0.540123 -1.48319)
(-0.960724 -0.090473 0.833491 -0.930859 3.46932 5.75178 0.883476 -0.51743 -0.906098)
(-0.724869 0.0182667 0.642238 12.0731 1.76663 -6.7169 1.51773 -0.0987083 1.0082)
(0.388597 0.0799512 1.33263 6.16746 3.62723 -0.837849 1.90548 -0.18156 -0.745564)
(1.5035 -0.171914 -0.35117 4.38185 5.16742 1.78573 -0.890313 0.0810178 -3.53657)
(1.6856 -0.206287 -1.15446 12.8249 1.3075 13.9323 2.98564 -0.251112 -0.63179)
(0.537503 -0.0923244 0.127414 26.257 2.32403 -1.91056 0.98987 -0.145682 0.197635)
(-0.518808 0.0587562 -0.0931454 3.62137 0.905107 1.84744 -0.709586 -0.428627 1.93077)
(-2.01557 0.218824 0.21059 1.99703 -0.169738 2.96273 -0.173154 -0.0761612 3.71681)
(-0.995752 0.161488 0.157877 10.7068 2.51631 -7.63971 0.0808656 0.356029 0.681058)
(0.584135 -0.0192928 -0.630414 7.72312 3.52654 4.19017 3.00166 -0.37173 -0.76309)
(-0.637389 -0.0987403 0.0942739 3.80404 3.372 0.631489 1.50128 -0.110624 -1.04841)
(0.324828 0.00286315 0.39322 4.39489 1.66943 0.130589 0.711793 0.348518 -0.428199)
(0.768834 0.080275 0.0318453 4.89977 3.20125 -0.113309 1.61526 -0.0398963 -2.23232)
(0.324917 -0.0315522 0.0437204 7.4451 3.16213 -5.90222 1.13937 -0.00617327 -1.14311)
(0.042581 -0.261133 0.246479 27.2382 1.27172 -11.5392 2.63365 -0.2271 1.61816)
(0.806988 -0.0636631 -0.777195 21.9773 1.29059 5.11083 5.95959 -0.379976 -0.0351272)
(-0.313751 0.17592 -0.406571 0.434249 4.01487 9.72348 0.590769 -0.0693136 -1.50265)
(-1.31009 0.0979881 0.961253 1.75235 3.2463 0.59367 -3.01694 0.449296 -0.61335)
(-0.0315902 0.085547 0.15138 2.65134 2.98241 -0.199685 -1.70811 0.0855324 -0.771756)
(-0.252193 -0.0453328 -0.407462 0.833044 3.49948 2.83022 -0.545926 -0.234956 -1.88951)
(-1.04627 -0.10663 0.448095 13.8222 2.21314 -9.74514 -0.780486 0.182067 0.268012)
(-0.401442 -0.0140955 0.605993 14.631 0.932722 -10.4651 -1.29052 0.0236462 1.23098)
(1.96203 -0.114984 -0.809533 7.22225 1.37426 -1.67936 2.52147 -0.334082 -1.14966)
(1.33588 -0.145722 -1.38024 -0.033724 2.31063 10.0709 1.14832 -0.270867 -0.623628)
(-0.700139 0.145843 -0.326616 2.38701 -0.301153 5.30316 -0.969608 -0.333281 2.6123)
(-0.64318 0.23786 0.197593 11.1257 1.82871 -8.55688 0.392016 -0.516511 0.546687)
(-0.0228608 0.06445 0.400182 3.60713 3.98145 -1.29419 1.08187 -0.597692 -1.73777)
(-0.0945412 -0.130609 0.30474 3.21328 4.61223 -3.19718 -0.994263 0.179962 -2.52585)
(-0.0369371 -0.138487 0.135845 4.38725 2.35307 -2.84916 -0.531616 0.297187 -0.813121)
(-0.17075 -0.0242271 0.913297 4.24204 1.40346 -0.492171 0.703941 0.139019 0.484691)
(-0.476618 0.0936486 0.552435 5.90812 1.31081 2.8039 1.01179 0.202659 0.812778)
(-0.12796 0.269525 -0.49064 7.96242 -0.706507 4.00574 -1.93624 0.471512 -1.04177)
(-0.830758 0.0246882 -0.185941 2.39908 -1.88828 0.960119 -1.22205 0.609625 0.396725)
(0.269202 -0.15244 -0.564244 2.2531 -0.500465 0.962905 -1.27328 0.78245 -1.29922)
(0.646953 0.199592 -0.481665 5.44438 0.445006 -1.42169 1.96631 0.468595 -2.21693)
(-0.976723 0.0614747 0.622112 14.4636 -1.34949 -15.8655 -0.120991 0.204252 0.29011)
(0.0132918 -0.220139 -0.114558 21.3832 -1.28825 -18.0509 -1.21385 0.602882 0.203708)
(1.10295 -0.0697386 -0.344831 8.16416 -0.895943 0.724667 1.11579 -0.151772 -1.06239)
(1.13418 0.0571928 -0.68802 2.34716 -3.19554 3.30222 1.64491 -0.656484 0.830572)
(-0.0142506 0.0208071 0.33966 5.03263 -1.43543 4.05769 4.62155 -0.778526 -1.15694)
(-0.846735 -0.0282521 0.699304 7.69565 0.609825 8.96939 0.475622 -0.761966 -2.56019)
(-0.757986 0.067614 -0.00395249 14.8552 -1.70207 9.25672 1.83715 -0.125732 1.2952)
(-0.159866 0.172671 0.927872 4.95618 -2.43816 -5.3809 2.44926 -0.317601 0.652726)
(1.66215 -0.172049 0.684418 1.0334 -1.70023 -4.61426 -0.522014 0.208957 -1.98408)
(2.30217 -0.327996 -0.802266 7.8372 -1.59294 13.845 3.40356 -0.305631 -1.75155)
(0.236228 -0.18056 -0.693696 5.81215 -2.33213 3.60165 -0.0439849 -0.037565 0.0215119)
(-1.08586 -0.0595296 0.217856 3.00786 -2.96465 2.24275 -0.669502 -0.439744 1.85051)
(-1.52324 0.321335 -0.109988 0.455851 -3.28701 4.97744 -1.50678 0.0897833 3.13503)
(-0.835165 0.303635 -0.119002 12.9929 -1.23875 -8.87103 -0.101236 0.520205 0.620239)
(0.210031 -0.0779788 -0.147107 0.238572 -2.99579 -5.59012 2.71614 -0.560338 0.38349)
(-0.625755 -0.164324 0.0576827 3.02842 -0.162274 1.4543 1.89518 -0.327597 -1.0673)
(0.493153 0.0538626 0.440236 5.76706 -0.922607 0.241151 0.102999 0.398748 -0.772015)
(1.01136 0.158669 0.0460298 8.43952 -1.56864 5.6462 1.07429 -0.154889 -2.14985)
(0.654528 -0.0131134 -0.755506 4.99131 -0.24676 2.33175 2.0178 -0.295201 -3.16566)
(0.81307 -0.300338 0.196417 12.6912 -3.72564 -7.2668 0.11942 -0.540892 2.42247)
(0.131663 -0.0680782 0.101228 23.4445 -2.72078 -4.27022 3.5649 -0.62236 0.856946)
(-1.15345 0.180001 -0.710985 3.97796 -2.43424 7.28679 -2.11202 0.0528173 2.20429)
(-1.32866 0.0615749 0.680015 7.8718 0.854914 -7.49414 -2.79687 0.732618 -0.427175)
(-0.136452 0.0624185 0.815612 1.01458 -2.26288 -3.44309 -2.3741 0.11213 0.0405255)
(0.147423 -0.0390406 -0.452111 9.51826 -1.23225 7.57217 -0.707505 -0.431596 -1.46185)
(-0.458454 -0.0636527 -0.422983 3.7827 -0.00101841 2.93651 -0.950538 0.191488 -0.923803)
(-0.565693 -0.0316386 0.22503 17.9822 -0.427643 -13.5097 -0.264708 0.161929 -0.21951)
(1.28862 -0.137852 -0.0403646 9.79873 -0.738344 -13.2825 1.80098 -0.371897 -1.5585)
(1.2047 -0.224399 -0.204578 9.23749 -2.13222 3.16173 1.06808 -0.313313 -0.561468)
(-0.506477 0.103578 -0.598972 -1.35788 -2.73372 16.8269 -0.0530969 -0.30352 1.54741)
(-0.45293 0.30135 -0.500048 4.04959 -1.14595 0.866721 1.97692 -0.749283 -0.467421)
(-0.170209 0.148763 0.259285 7.72136 -0.0989604 0.822614 1.48837 -0.676314 -2.59187)
(-0.115345 -0.0764509 0.358465 2.12548 0.322053 -3.01984 -2.21313 0.169534 -2.54318)
(-0.13562 -0.193771 0.378994 5.32716 -0.0244474 1.88627 -1.8983 0.254331 -1.23758)
(-0.249242 -0.0520561 0.815539 2.37804 -1.55981 -1.53389 -0.709494 0.145624 0.0816935)
(-0.26484 0.084645 0.565704 7.28096 -1.11068 -4.39844 -0.171871 0.403461 0.367672)
(-0.478585 0.152605 -0.208303 2.19276 3.57509 7.07775 -2.73942 0.574522 -1.03389)
(-0.798704 -0.0568882 -0.467241 0.684026 0.97739 -2.13791 -1.83987 0.44771 1.06743)
(0.110171 -0.02355 -0.352503 4.66292 0.0338263 -3.49547 -0.54893 0.71908 1.43951)
(0.584132 0.14357 -0.874404 1.49098 0.915578 5.33712 2.29412 0.118028 -0.477027)
(-0.276396 -0.124924 -0.15362 7.95696 0.962206 -7.2068 0.923099 0.061316 0.606137)
(-0.160563 -0.217811 0.543542 10.8192 -0.336822 -7.72505 0.503618 0.172912 1.17731)
(0.454892 -0.0405458 0.200665 -1.53706 0.81963 -1.17932 0.546856 -0.253704 -0.200572)
(1.03733 0.147218 -0.804531 -2.45876 -1.76146 -3.95669 1.87077 -0.9496 2.40887)
(0.410668 0.334192 0.640471 -2.82758 1.53054 -1.34627 4.76169 -0.745454 0.231127)
(-0.221282 -0.117076 1.24432 6.10779 5.75906 -0.430277 -0.0742751 -0.469703 -3.98669)
(-0.930964 -0.219657 -0.390092 3.36063 2.74216 14.9537 1.1275 -0.474905 -0.995978)
(-0.613104 0.0708208 0.3128 7.18091 0.90453 2.18498 3.82418 -0.17585 1.02271)
(1.70787 -0.107291 1.01492 4.08261 -0.203747 -0.220791 0.0796762 0.401285 -0.413893)
(1.98924 -0.242421 -0.561653 0.389423 0.772929 -1.54468 2.21288 0.220812 -2.08472)
(0.198471 -0.188356 -0.677364 -5.72803 1.13862 6.49546 -0.362063 0.222633 0.522427)
(-0.871546 -0.00240703 -0.0190774 4.46143 1.37263 5.31538 0.784156 -0.515374 0.44999)
(-1.30154 0.340503 -0.606898 2.89013 1.67967 1.18709 -0.640752 -0.162372 1.09447)
(-1.02842 0.169535 -0.622227 5.78879 1.44245 0.605748 0.609447 0.340244 0.977238)
(-0.140151 0.0688614 0.110532 -2.31339 -0.377807 -7.2215 1.1381 -0.425899 2.49637)
(-0.215952 0.0662928 0.543678 0.974745 2.7405 -1.49372 1.39695 -0.417455 -1.27995)
(0.721625 -0.10974 0.708951 7.14854 2.3736 0.951906 -0.415223 0.637366 -1.83153)
(0.685285 0.124098 0.190233 0.557193 1.84316 3.36833 -1.80699 0.200156 -1.52575)
(0.616957 -0.198278 -0.86344 -2.54308 4.43267 -2.48429 0.993961 -0.230091 -3.94067)
(1.37611 -0.446328 -0.253173 3.24221 -2.5793 6.71057 0.084208 -0.506435 1.16522)
(0.208473 0.0354932 0.247453 7.13679 0.365316 -5.92586 2.49126 -0.00869294 0.609902)
(-1.42017 0.44884 -0.622571 5.19828 0.503119 3.02853 -2.36021 0.8695 1.8554)
(-1.53475 0.114728 0.169178 1.56621 2.73852 -1.19159 -3.69223 0.637166 0.235634)
(0.104752 -0.0716846 1.23664 9.20817 0.260448 -9.06995 -1.20976 0.479963 0.248437)
(-0.0805549 0.126936 0.0846617 5.73631 2.9487 -1.09009 -1.23905 0.207926 -0.76105)
(-0.458055 -0.049423 -1.07632 -0.222351 3.29336 5.58271 -0.231354 0.0953755 -1.82813)
(0.0748496 -0.0687029 -0.595702 9.64815 2.52796 -5.5127 0.986769 -0.0903288 -1.11949)
(1.36091 -0.242996 0.387931 8.08924 1.61217 -7.69123 1.17886 -0.209632 -1.3129)
(0.496174 -0.290383 0.803777 9.87853 0.167065 -5.10541 0.293926 0.244697 -0.146239)
(-1.11607 0.22546 -0.474814 4.69496 0.415151 7.0316 0.0996268 -0.138857 1.48601)
(0.0318179 0.432914 -0.956024 4.98757 1.30099 3.40117 2.76159 -0.903361 0.0751424)
(-0.155207 0.168234 0.11718 2.26902 4.61642 1.95282 -0.253715 -0.31753 -3.43757)
(-0.275475 -0.130329 0.380674 -0.665885 2.55363 -0.375483 -2.05933 0.222453 -1.19338)
(-0.00776351 -0.276809 0.225119 4.9663 1.34122 4.03187 -1.2035 0.220549 -0.126285)
(-0.013551 -0.104476 0.442666 3.82625 1.37653 0.0671821 -0.832942 0.125975 -0.186902)
(-0.0709218 0.159775 0.97456 10.9456 0.0928893 -9.56845 0.256441 0.509809 0.751235)
(-0.955733 0.355588 0.105918 -2.82647 -0.820871 2.22858 -4.49426 1.27028 0.526836)
(-0.626262 -0.264918 -1.04685 5.49561 -0.882137 1.24018 -0.388283 0.326167 1.13703)
(0.352955 -0.170525 0.0431142 9.22791 -3.49548 -2.68699 1.26619 0.931149 2.91831)
(0.930211 0.283256 -0.754457 8.34898 -3.1194 4.61654 2.26431 -0.034781 1.62688)
(-0.262399 -0.0251936 -0.39864 9.04026 -0.716185 5.3112 2.48803 -0.289584 0.604133)
(-0.767619 -0.23236 0.326451 7.34431 -0.60793 0.261411 0.0758448 0.506144 0.970308)
(0.0512868 -0.192447 -0.0825179 -3.94079 -0.198216 -4.01082 3.38743 -0.720898 0.459182)
(1.03535 0.107967 -0.690407 3.79206 -4.89913 2.42106 4.8156 -1.16548 3.04718)
(0.66357 0.621826 0.606096 -7.95879 -2.55736 -1.23528 5.14304 -1.16193 1.76357)
(-0.388946 0.082507 2.01537 -1.0916 2.15975 -7.2967 1.09299 -0.514149 -3.67771)
(-0.650458 -0.311849 0.254559 -5.79658 1.84534 15.431 2.2025 -0.821725 -2.02002)
(-0.0538381 -0.0648475 -0.286559 13.6814 -0.540086 9.92253 4.14563 -0.467143 0.136937)
(1.08652 -0.18959 0.337766 7.40519 0.183868 -0.837241 -0.938912 0.786811 -2.05121)
(1.50855 -0.223681 -0.261596 -4.06033 0.634543 -2.92044 1.06166 0.408875 -1.93918)
(0.582393 -0.129355 -0.118508 -4.91414 -0.560644 5.592 -0.474444 0.18059 0.0891189)
(-0.382639 -0.0197477 -0.2048 2.05461 -0.284615 1.49025 0.447623 -0.195591 0.00160756)
(-1.4338 0.325289 -0.456306 1.57517 0.86889 2.79066 0.500725 0.0483527 0.212443)
(-1.25337 0.144042 -0.775711 1.05673 0.342441 5.97278 0.147397 0.188938 0.164216)
(-0.159737 0.0164835 -0.3494 6.37492 -2.87101 5.47283 1.73941 -1.19224 2.62327)
(0.128864 0.043966 0.69634 1.74469 -2.32951 -0.269296 3.3542 -0.703617 0.853818)
(0.435198 -0.00523084 0.822187 8.51664 -1.08041 3.82439 -0.19959 0.901438 -0.587466)
(0.229053 0.33526 -0.257319 -4.53281 0.0549192 -1.14734 -1.57902 0.447427 -0.597375)
(0.884052 -0.366456 -0.463684 -0.991365 0.664524 -3.90409 0.138062 -0.471691 -2.28418)
(1.57069 -0.627739 -0.0480085 0.507406 -0.116262 5.19831 0.112242 -1.30618 -0.557938)
(0.288457 0.180747 -0.222994 0.362659 -2.00053 -1.83488 1.22018 -0.45636 0.630898)
(-1.59518 0.352668 -0.321749 4.99996 1.00514 -3.80237 -1.15371 0.751487 0.0744592)
(-0.970884 0.0358552 -0.286194 -0.343204 -1.65971 3.36782 -3.19799 0.532153 1.58802)
(0.190068 0.0935005 0.782048 8.41192 -0.814353 -9.47981 -0.889405 0.304343 0.0842373)
(-0.622736 0.199382 0.72627 1.59099 -0.776681 -5.87143 -1.62631 -0.0420109 0.0849598)
(-0.129571 -0.100453 -0.729526 2.94123 1.06706 1.51283 -0.278418 0.470235 -2.05201)
(0.0691291 -0.169294 -0.809029 9.20088 0.298558 4.70188 1.28422 -0.210939 -1.3815)
(1.30076 -0.325852 -0.048944 2.51884 -0.618934 0.641868 1.56316 -0.462229 -0.895409)
(0.990147 -0.318451 0.932548 2.67503 -1.04849 -5.6875 -0.297076 -0.149937 0.407353)
(-0.856774 0.186736 0.10388 11.8698 -2.22833 -1.15142 1.06399 0.0832504 2.00349)
(-0.705384 0.641454 -0.881498 7.26711 -1.4717 6.56886 2.75819 -1.11854 0.751283)
(-0.647074 0.252143 -0.0440618 -6.88892 2.24853 5.50739 -0.36497 -0.496626 -2.12226)
(0.127465 -0.346455 0.531059 2.28784 -1.12066 1.74846 -0.732056 -0.0720061 -0.262208)
(0.229311 -0.284443 0.431601 9.95832 -1.70965 5.81766 -0.167421 0.0255411 0.625131)
(0.229953 -0.151779 -0.290746 6.54994 0.330988 6.07487 -1.53926 0.0212522 -1.28538)
(-0.421581 0.261996 1.1143 9.24378 -1.09522 -7.63101 0.0323585 0.335442 1.14953)
(-0.777548 0.152017 0.580789 -1.81679 -0.290066 -8.58001 -5.58908 0.94112 1.64198)
(0.298983 -0.283466 -0.863934 10.4752 0.626585 3.31718 0.91189 -0.470422 -0.54132)
(0.349806 -0.215782 -0.0797769 17.5152 -1.02915 0.603329 2.24276 0.286899 1.39906)
(0.53217 0.386664 -0.146631 11.5055 -1.51995 1.69271 3.06117 -0.256078 1.24741)
(-0.370719 0.0973942 -0.531933 7.84747 0.406035 5.30186 2.13022 -0.394133 -0.188537)
(-1.3005 -0.168448 -0.29696 9.16921 0.671771 2.21445 1.88987 -0.241391 0.819715)
(0.166695 -0.422257 0.428731 4.07089 0.22452 3.42189 4.9082 -0.738586 0.159943)
(0.6659 -0.0670586 -0.559229 13.2997 -3.04064 8.80808 5.35482 -1.44784 2.39651)
(-0.0663182 0.958319 -0.254903 -5.3273 -1.73974 2.09233 5.5821 -1.11569 1.83235)
(-0.00452982 0.27018 2.70872 -7.87449 2.98117 -2.19836 0.508009 -0.387765 -2.08439)
(0.407368 -0.460151 1.13808 1.36046 0.195742 9.04561 2.99978 -0.435324 -0.987694)
(0.552028 -0.0692857 -1.13194 10.2014 0.610156 11.3666 2.1262 -0.215588 -0.666544)
(0.129033 0.00958115 -0.10524 7.67768 3.07264 -2.29065 -1.40181 0.928136 -2.31432)
(0.897868 -0.313156 0.00299493 -3.22955 2.23802 0.112851 0.515108 0.691437 -1.99175)
(0.725663 -0.27927 -0.325294 -1.62753 -0.187323 1.19784 0.0698181 0.450189 -0.601185)
(-0.320226 0.131547 -0.259607 0.681959 0.096175 -1.29817 -0.0979613 -0.15957 0.273024)
(-1.38061 0.400022 -0.20736 0.127449 0.68924 1.46648 -0.596342 0.294667 0.433345)
(-0.561987 -0.173826 -0.358802 1.50011 1.08013 0.570045 0.405349 0.39519 -0.118848)
(-0.0745622 -0.173035 -0.420818 15.4447 -0.650523 11.0071 3.28512 -1.78406 -0.0785211)
(-0.0523401 0.234141 0.375946 7.26544 -1.80607 2.25312 3.70434 -1.266 2.53665)
(0.169649 0.10035 0.616416 6.76405 -0.337261 -0.694241 0.0129662 0.890162 0.957587)
(-0.148506 0.264376 -0.479835 0.603177 -0.838188 -3.40132 -0.839509 0.643018 -0.0750672)
(1.05643 -0.197294 -0.316492 0.193874 0.240784 -0.672389 0.389721 -0.731935 -1.59582)
(1.48189 -0.674684 -0.0823027 2.99703 2.34169 -1.96985 -0.139963 -0.662845 -3.11348)
(0.616 0.12469 -0.537994 0.0362564 -1.25119 -0.486267 -0.768038 -0.0356997 0.133884)
(-1.46796 0.489979 -0.171444 1.85019 0.330126 -2.04936 -1.50358 0.911231 0.773349)
(-1.27556 -0.0456736 -0.310404 1.9382 0.8202 3.35577 -2.6533 0.649182 1.80803)
(0.275117 -0.00652851 0.42754 0.366118 -1.34063 -3.18446 -3.27695 0.177719 0.765366)
(-0.532334 0.293707 1.03723 0.201062 -1.07903 -2.50076 -2.274 0.383358 1.13359)
(0.212951 0.0551303 -0.133049 5.05349 1.61011 -0.753065 -0.744133 0.248393 -0.571405)
(0.0363539 -0.214585 -0.654928 2.94744 1.64064 4.56767 1.23206 -0.309386 -1.24167)
(0.763336 -0.359302 -0.529316 -0.137017 1.22966 1.38184 0.791586 -0.29341 -1.41534)
(1.31166 -0.436432 0.625037 2.97396 -1.12121 0.868934 -1.03275 0.0365213 -0.391842)
(-0.717267 0.190189 0.600933 6.81903 -0.522945 -5.71973 0.541837 0.102954 1.75029)
(-1.62949 0.826134 -0.347592 -0.751667 1.0188 5.80664 1.33913 -1.2077 1.60567)
(-0.566566 0.192313 -0.312544 -9.73716 2.10735 8.67115 -0.432914 -0.395291 -0.602196)
(1.24246 -0.474817 0.394335 6.31683 0.0426495 3.10221 0.00932398 -0.0451536 -0.378427)
(0.36274 -0.14178 0.604629 8.08323 0.0227369 2.68154 -0.103139 0.213176 0.128059)
(-0.103989 -0.0429172 -0.727889 4.67532 1.91262 5.69256 -1.85576 0.280937 -1.37358)
(-0.903098 0.0430168 0.604838 5.42089 1.44099 0.124325 -0.0532093 0.452109 0.126171)
(-0.459322 0.293086 0.383276 4.50045 -0.413392 -7.9834 -3.65834 1.10143 1.32568)
(1.24806 -0.338258 -0.130827 7.37818 0.450041 -1.928 1.57022 -0.91411 -1.38028)
(0.458096 -0.384389 -0.109871 13.736 -0.335215 1.69474 1.21957 0.38753 -0.276967)
(-0.0135862 0.418932 -0.337206 7.43754 -0.437604 -2.08361 1.83013 0.263643 0.400381)
(-0.489266 0.185535 -0.33223 -0.137693 0.315909 -1.36591 0.937624 -0.403803 -1.21289)
(-1.09857 -0.257218 0.197518 12.4168 1.68206 4.154 4.76004 -0.572751 -1.55362)
(0.45998 -0.547168 0.537198 10.1111 -0.169729 5.68767 6.14357 -0.827741 -0.105898)
(0.116117 -0.0743761 -0.838794 13.0352 -1.15486 2.40549 5.14842 -1.16321 1.18816)
(-1.41771 1.20084 -0.427606 6.05002 -1.21077 4.71067 6.05416 -1.45109 1.83295)
(0.253029 0.260658 2.65347 -4.14393 -0.637384 0.783422 1.3102 -0.618402 0.275456)
(1.08281 -0.538248 1.54632 10.9962 -1.64047 -8.89273 2.07754 0.116252 0.955123)
(0.528294 0.228293 -1.35538 4.03665 -0.543955 5.45897 0.3315 0.669125 -0.0625135)
(-0.184201 -0.0438858 -0.762896 4.75363 1.81121 -1.66285 -1.23115 1.01019 -0.95347)
(0.622897 -0.546404 0.0668658 -0.0993337 0.402169 -3.05765 -0.0637624 0.733708 -1.53494)
(0.966025 -0.332277 -0.241389 0.67234 -0.18574 -1.16185 0.270591 0.597348 -1.45994)
(-0.210328 0.0543056 -0.171988 1.17393 0.163699 -1.73589 -1.29914 -0.209151 -0.20471)
(-1.35588 0.417924 -0.291126 0.426394 -0.362046 -0.894322 0.375573 0.379723 1.03939)
(0.235871 0.0395193 0.153261 1.53038 0.216535 2.41384 1.97887 0.410942 -0.404912)
(0.418312 -0.258209 -0.171023 10.7536 0.416047 9.87409 2.96282 -1.79125 -0.756862)
(-0.736187 0.0568213 -0.462117 16.5539 -2.56439 3.71438 1.95063 -1.2372 3.02934)
(-0.216069 0.0826847 0.267479 7.60383 -1.27572 -3.18527 0.716349 1.26756 1.01262)
(-0.401645 0.401158 -0.232846 4.58792 0.376318 -3.92308 0.0895863 1.06235 -0.401849)
(1.11037 -0.05985 -0.332764 2.15796 0.0230278 -4.36304 1.33232 -0.483173 -1.76632)
(1.56354 -0.774838 -0.0256432 3.57059 0.365121 -2.62829 0.571991 -1.0025 -2.79904)
(0.139026 -0.0183039 -0.199586 3.0012 -0.16322 -0.0916758 0.1722 -0.151766 -0.6004)
(-1.41439 0.549681 0.0541107 -9.09082 0.0304835 3.03635 -2.75476 1.17243 1.56784)
(-1.09141 -0.125976 -0.399258 -0.663617 -0.273517 3.0029 -2.20868 0.823631 1.22624)
(0.0048275 -0.0897255 0.221651 1.58775 -2.32843 1.65253 -3.07051 -0.065901 1.12945)
(-0.154882 0.49016 0.942546 -0.407711 -2.64796 -0.928396 -2.90459 0.0969389 1.81915)
(0.115597 0.16069 -0.0700259 4.19396 -1.27487 -1.22495 -1.28968 0.32923 0.510143)