/*--------------------------------*- C++ -*----------------------------------*\
  =========                 |
  \\      /  F ield         | OpenFOAM: The Open Source CFD Toolbox
   \\    /   O peration     | Website:  https://openfoam.org
    \\  /    A nd           | Version:  10
     \\/     M anipulation  |
\*---------------------------------------------------------------------------*/
FoamFile
{
    format      ascii;
    class       volScalarField;
    location    "17";
    object      pPrime2Mean;
}
// * * * * * * * * * * * * * * * * * * * * * * * * * * * * * * * * * * * * * //

dimensions      [0 4 -4 0 0 0 0];

internalField   nonuniform List<scalar> 
25600
(
9.60692e-06
1.61481e-05
8.40649e-05
4.86793e-05
5.23903e-05
2.75783e-05
1.66532e-05
2.97844e-05
0.000115925
6.33725e-05
1.10024e-05
3.03821e-05
1.63619e-05
3.01281e-05
1.5899e-05
1.98528e-05
1.46994e-05
1.53523e-05
2.08191e-05
6.94742e-05
1.68168e-05
2.04359e-05
1.70609e-05
1.1768e-05
7.21064e-05
4.16865e-05
5.95233e-05
6.63401e-05
1.44818e-05
9.70788e-06
7.28881e-06
1.16317e-05
1.45099e-05
6.49209e-05
5.30909e-05
9.48194e-06
0.000159615
8.2805e-05
8.4605e-05
6.16574e-05
1.58208e-05
3.32428e-05
0.00012817
2.63459e-05
2.79218e-05
5.21888e-05
1.13856e-05
1.86369e-05
0.000167334
0.000102443
1.91125e-05
1.48529e-05
1.05521e-05
5.21499e-05
3.05354e-05
1.37592e-05
1.92289e-05
1.71759e-05
3.75886e-05
0.000104298
2.67795e-05
3.50687e-05
3.30695e-05
1.01442e-05
0.00010956
6.92561e-05
3.47875e-05
4.01099e-05
1.25036e-05
1.15927e-05
9.98084e-06
7.32964e-06
3.39392e-05
0.000108284
2.90993e-05
1.55647e-05
0.000225394
4.78433e-05
5.05468e-05
9.74858e-05
9.28462e-06
1.47384e-05
7.97819e-05
5.01894e-05
5.33621e-05
2.50378e-05
1.84978e-05
3.24571e-05
0.000109878
5.9984e-05
1.08961e-05
3.22096e-05
1.94185e-05
2.65576e-05
1.61387e-05
2.11913e-05
1.45917e-05
1.58843e-05
1.97662e-05
6.52955e-05
1.48919e-05
1.82304e-05
1.52463e-05
1.38375e-05
6.62883e-05
3.72461e-05
6.79912e-05
7.42474e-05
1.56248e-05
9.85438e-06
7.44666e-06
1.46487e-05
1.29964e-05
6.09222e-05
6.02492e-05
9.44448e-06
0.000152311
8.91564e-05
9.77182e-05
5.6741e-05
1.12056e-05
2.3836e-05
0.000108214
3.2682e-05
3.42734e-05
4.36798e-05
1.29852e-05
2.28735e-05
0.00013595
7.69639e-05
1.50052e-05
1.87226e-05
1.34706e-05
4.09517e-05
2.54568e-05
1.55008e-05
1.67189e-05
1.63072e-05
2.94175e-05
9.43535e-05
2.15657e-05
2.78091e-05
2.61584e-05
9.77771e-06
9.61263e-05
5.68929e-05
4.89619e-05
5.52211e-05
1.32206e-05
1.10444e-05
7.87786e-06
9.0948e-06
2.06868e-05
8.67213e-05
3.67234e-05
1.23375e-05
0.000199721
5.74141e-05
7.53171e-05
7.76662e-05
9.90478e-06
1.61438e-05
8.58656e-05
4.6332e-05
4.89579e-05
3.36716e-05
1.51742e-05
2.99834e-05
0.000115748
5.96551e-05
1.12716e-05
2.39558e-05
1.58127e-05
3.0095e-05
1.75971e-05
1.9745e-05
1.76404e-05
1.73065e-05
2.79115e-05
8.0525e-05
1.85494e-05
2.19521e-05
1.90235e-05
1.17455e-05
8.91148e-05
5.21858e-05
6.24902e-05
7.83905e-05
1.7413e-05
1.04754e-05
7.24673e-06
1.10616e-05
1.27997e-05
6.53383e-05
4.0604e-05
1.16365e-05
0.000161528
7.46978e-05
8.97002e-05
6.3945e-05
9.38917e-06
2.04867e-05
9.583e-05
4.09827e-05
4.43297e-05
3.65267e-05
1.14609e-05
2.09093e-05
0.000133113
7.33369e-05
1.33788e-05
1.9442e-05
1.26454e-05
3.39405e-05
1.68625e-05
1.79813e-05
2.03555e-05
1.84395e-05
4.31914e-05
7.49296e-05
2.21753e-05
3.13454e-05
2.50102e-05
1.09151e-05
9.67977e-05
6.30846e-05
4.91526e-05
8.1308e-05
1.768e-05
1.14499e-05
1.46808e-05
7.67872e-06
1.66048e-05
6.78534e-05
3.09039e-05
1.0523e-05
0.000183756
6.3442e-05
7.37778e-05
7.851e-05
9.94358e-06
2.05794e-05
9.42635e-05
4.16235e-05
4.65346e-05
2.6094e-05
1.12736e-05
1.92127e-05
0.000121054
6.40238e-05
1.41292e-05
1.97109e-05
1.26011e-05
3.00532e-05
1.50825e-05
2.11063e-05
2.06302e-05
1.91737e-05
4.67945e-05
5.73993e-05
1.70876e-05
3.54306e-05
2.98577e-05
1.06674e-05
7.36673e-05
5.53485e-05
4.53848e-05
8.89828e-05
2.52506e-05
1.12533e-05
1.63457e-05
9.75764e-06
1.75906e-05
5.40662e-05
3.15216e-05
9.7799e-06
0.000164923
5.87426e-05
6.50425e-05
7.44887e-05
9.80363e-06
2.30297e-05
9.60088e-05
3.25786e-05
3.18512e-05
2.56183e-05
9.45556e-06
1.36156e-05
0.000135589
6.2481e-05
1.74118e-05
1.4612e-05
1.16902e-05
3.0937e-05
1.30856e-05
2.21902e-05
2.04805e-05
1.92975e-05
4.947e-05
6.36038e-05
1.64593e-05
4.28408e-05
4.6066e-05
9.91443e-06
5.96565e-05
5.27425e-05
3.52708e-05
7.30379e-05
2.49909e-05
1.22498e-05
2.11417e-05
8.69396e-06
2.21815e-05
4.9034e-05
2.41694e-05
1.24865e-05
0.000160999
5.5601e-05
5.59653e-05
6.52377e-05
1.27625e-05
2.0992e-05
8.89876e-05
3.2676e-05
2.54309e-05
2.21596e-05
9.32248e-06
1.40266e-05
0.000156891
6.21836e-05
1.85634e-05
1.3218e-05
1.11046e-05
3.40472e-05
1.40544e-05
2.72133e-05
1.86236e-05
1.6945e-05
4.70759e-05
7.14941e-05
1.77712e-05
4.43635e-05
4.57172e-05
1.21962e-05
5.52259e-05
3.08276e-05
3.42875e-05
6.70104e-05
2.33386e-05
1.35927e-05
1.96331e-05
7.73659e-06
2.05955e-05
4.25574e-05
3.44796e-05
1.18072e-05
0.000134004
7.9852e-05
4.74898e-05
5.67901e-05
1.66988e-05
2.06842e-05
9.84278e-05
3.23445e-05
2.02617e-05
2.19497e-05
9.93423e-06
1.70734e-05
0.000191138
6.34878e-05
1.98735e-05
1.15838e-05
1.14982e-05
5.51028e-05
2.15813e-05
2.77746e-05
1.5534e-05
1.74893e-05
4.92846e-05
6.82671e-05
1.61599e-05
4.54978e-05
4.2994e-05
1.23389e-05
6.16554e-05
2.03554e-05
3.52218e-05
6.11086e-05
1.84526e-05
1.5426e-05
1.97208e-05
9.10466e-06
2.03586e-05
3.99689e-05
4.02271e-05
1.02183e-05
0.000106691
0.000111132
3.78487e-05
7.81131e-05
2.05052e-05
1.54257e-05
0.000105878
2.78809e-05
1.62987e-05
2.2154e-05
9.81241e-06
1.74843e-05
0.000220278
6.10354e-05
1.44885e-05
1.3042e-05
1.53299e-05
8.01053e-05
2.92019e-05
2.99626e-05
1.75759e-05
2.68081e-05
4.08366e-05
5.5649e-05
1.4037e-05
4.25923e-05
4.2258e-05
1.14427e-05
6.02281e-05
1.88271e-05
3.55156e-05
5.5085e-05
1.78487e-05
1.55886e-05
2.37801e-05
9.73115e-06
1.91148e-05
3.27061e-05
3.88441e-05
9.75724e-06
0.000124202
7.8215e-05
2.2436e-05
8.93416e-05
1.95196e-05
1.33163e-05
9.89837e-05
2.25801e-05
1.2466e-05
2.55722e-05
9.12442e-06
2.20016e-05
0.00021483
6.2151e-05
1.20306e-05
1.41547e-05
1.91454e-05
9.40096e-05
4.19785e-05
3.07215e-05
2.74413e-05
2.6889e-05
2.75009e-05
5.68226e-05
1.29775e-05
3.22824e-05
4.06411e-05
1.01017e-05
5.75806e-05
2.15401e-05
3.10907e-05
4.76203e-05
1.81818e-05
1.77921e-05
2.7006e-05
1.08249e-05
1.7895e-05
2.8303e-05
3.23425e-05
8.43965e-06
0.00011636
5.20711e-05
1.16516e-05
0.000103721
1.81737e-05
1.24754e-05
7.35354e-05
2.06746e-05
8.51226e-06
3.64308e-05
1.02944e-05
2.59918e-05
0.000208847
5.4163e-05
1.21661e-05
1.24983e-05
1.37452e-05
8.74795e-05
6.56018e-05
1.93712e-05
3.11965e-05
2.45183e-05
1.91558e-05
4.98866e-05
1.43685e-05
2.08767e-05
3.97433e-05
9.30808e-06
5.04243e-05
2.88179e-05
3.07507e-05
5.17878e-05
1.75005e-05
2.19209e-05
2.20056e-05
1.01435e-05
1.5846e-05
2.52166e-05
2.22179e-05
7.72996e-06
8.08164e-05
4.6701e-05
1.10949e-05
9.03997e-05
1.65987e-05
1.48185e-05
5.01565e-05
2.21953e-05
7.62103e-06
4.77064e-05
1.04998e-05
2.41949e-05
0.000219127
5.85024e-05
1.23623e-05
1.21238e-05
1.15213e-05
7.91159e-05
7.79103e-05
1.31231e-05
2.11108e-05
2.55734e-05
1.69325e-05
4.36021e-05
1.96528e-05
1.38709e-05
3.77589e-05
1.17542e-05
4.68096e-05
3.41267e-05
2.83131e-05
5.22559e-05
1.45756e-05
3.06292e-05
1.84729e-05
8.75735e-06
1.38556e-05
1.92125e-05
1.39561e-05
7.72513e-06
5.03392e-05
4.74393e-05
1.18583e-05
5.71066e-05
1.95289e-05
1.69378e-05
3.13563e-05
2.92029e-05
8.91907e-06
5.68083e-05
9.88708e-06
2.08972e-05
0.000188659
6.1552e-05
1.18232e-05
1.13234e-05
1.14791e-05
7.21137e-05
9.23143e-05
1.26298e-05
1.49556e-05
2.28829e-05
1.49257e-05
4.09264e-05
2.15701e-05
1.23981e-05
2.75531e-05
1.43005e-05
4.26917e-05
3.70032e-05
1.87979e-05
4.3953e-05
1.24107e-05
3.96524e-05
2.18667e-05
7.9153e-06
1.13384e-05
1.72505e-05
1.05536e-05
9.52368e-06
3.86351e-05
4.29506e-05
1.42222e-05
2.95536e-05
1.53875e-05
2.0023e-05
1.96992e-05
3.71751e-05
1.07454e-05
7.37938e-05
9.9991e-06
1.398e-05
0.000161975
3.86334e-05
1.70182e-05
9.94498e-06
1.57681e-05
7.50124e-05
8.52488e-05
1.03076e-05
1.25707e-05
1.63832e-05
1.22618e-05
3.64186e-05
1.66844e-05
1.21211e-05
2.08099e-05
1.72891e-05
3.924e-05
3.91561e-05
9.88668e-06
2.5812e-05
1.04686e-05
3.95858e-05
2.56056e-05
8.25462e-06
1.00012e-05
1.90058e-05
8.2843e-06
1.55222e-05
4.42293e-05
2.57718e-05
1.09303e-05
2.5109e-05
1.30036e-05
1.81804e-05
1.26947e-05
6.48752e-05
1.06596e-05
8.06499e-05
1.1262e-05
9.77836e-06
0.00013208
2.94063e-05
2.4985e-05
9.56142e-06
2.13718e-05
6.53445e-05
6.72487e-05
8.13122e-06
1.18195e-05
1.23088e-05
1.19777e-05
3.34241e-05
1.45585e-05
1.1917e-05
1.8012e-05
2.64371e-05
4.8133e-05
3.49942e-05
7.72313e-06
1.57555e-05
1.10422e-05
3.20064e-05
2.24938e-05
9.72743e-06
1.02104e-05
2.03863e-05
1.08605e-05
2.45483e-05
4.10908e-05
1.71086e-05
8.87413e-06
2.51978e-05
1.5548e-05
1.34153e-05
1.36358e-05
9.81552e-05
1.63128e-05
7.75582e-05
1.33635e-05
9.23867e-06
9.8075e-05
3.24988e-05
2.83421e-05
6.55126e-06
1.08724e-05
3.2476e-05
4.495e-05
7.02098e-06
7.20461e-06
8.05961e-06
1.11062e-05
3.71225e-05
9.09579e-06
1.02605e-05
1.11735e-05
1.8369e-05
4.41523e-05
3.25475e-05
6.70876e-06
1.06128e-05
1.14269e-05
3.53623e-05
3.12134e-05
1.0609e-05
1.18703e-05
2.36763e-05
1.1105e-05
2.19513e-05
2.96579e-05
1.07417e-05
7.93923e-06
1.6815e-05
1.90849e-05
1.07493e-05
1.498e-05
0.000139994
3.67748e-05
5.45342e-05
1.64551e-05
9.08407e-06
5.90593e-05
2.70971e-05
3.18704e-05
6.48949e-06
6.62149e-06
1.33667e-05
2.91053e-05
6.44451e-06
5.15281e-06
6.35879e-06
1.00031e-05
3.31466e-05
1.25613e-05
7.75782e-06
8.01029e-06
6.19184e-06
1.95524e-05
2.42485e-05
6.89606e-06
7.64956e-06
1.42306e-05
3.57231e-05
3.8654e-05
1.10802e-05
1.069e-05
1.63228e-05
8.62957e-06
1.57742e-05
1.76489e-05
7.41832e-06
9.7817e-06
1.07651e-05
2.32611e-05
8.90897e-06
2.11885e-05
0.000178342
6.69313e-05
3.38618e-05
2.40522e-05
9.13018e-06
2.67865e-05
1.68191e-05
3.42867e-05
6.75223e-06
1.41239e-05
1.26004e-05
1.90673e-05
5.85304e-06
4.90316e-06
1.0535e-05
7.88676e-06
1.40158e-05
1.2146e-05
9.61527e-06
1.11733e-05
5.03494e-06
5.04186e-06
6.63362e-06
7.21528e-06
7.4012e-06
1.35933e-05
2.26576e-05
2.34611e-05
9.48152e-06
8.84541e-06
1.12938e-05
7.98576e-06
1.63689e-05
1.06513e-05
7.70094e-06
1.17164e-05
8.54604e-06
1.68381e-05
7.16376e-06
1.61723e-05
0.000194965
0.000116008
1.46856e-05
3.33635e-05
6.6807e-06
1.4007e-05
1.56861e-05
2.09917e-05
5.82652e-06
2.10985e-05
1.85717e-05
1.87745e-05
4.98393e-06
4.87822e-06
2.12085e-05
8.53245e-06
5.09614e-06
7.05421e-06
8.47466e-06
1.40168e-05
5.92704e-06
8.176e-06
4.94236e-06
5.04441e-06
6.07112e-06
9.85703e-06
1.71235e-05
1.70438e-05
8.11601e-06
8.16213e-06
1.01768e-05
6.33518e-06
2.49698e-05
2.83616e-05
5.43081e-06
1.62309e-05
1.06656e-05
1.37169e-05
7.40269e-06
8.90544e-06
0.000137377
0.000113484
8.45603e-06
3.64326e-05
6.8433e-06
1.32524e-05
2.32317e-05
7.99716e-06
5.66561e-06
1.54017e-05
8.33136e-06
7.88706e-06
4.02111e-06
5.95504e-06
1.40796e-05
8.52393e-06
1.0312e-05
5.44542e-06
5.89763e-06
9.93157e-06
6.10979e-06
6.69861e-06
4.46689e-06
1.12208e-05
6.94452e-06
1.3009e-05
2.35791e-05
2.05851e-05
6.8366e-06
7.63431e-06
8.95865e-06
4.99178e-06
2.36117e-05
3.92192e-05
5.4251e-06
2.3829e-05
2.07757e-05
9.47271e-06
5.64933e-06
4.29487e-06
9.66656e-05
0.000103764
4.82405e-06
3.01584e-05
6.50733e-06
7.56911e-06
2.16636e-05
4.41429e-06
5.656e-06
7.08062e-06
6.02674e-06
7.5547e-06
3.13549e-06
6.99639e-06
1.18376e-05
1.96204e-05
4.61388e-06
4.6657e-06
4.26054e-06
4.65826e-06
6.30874e-06
3.83634e-06
6.25489e-06
1.37003e-05
5.76949e-06
5.99067e-06
1.4225e-05
1.7574e-05
6.11737e-06
5.8289e-06
4.54598e-06
7.08486e-06
1.50954e-05
2.23425e-05
2.83711e-06
2.80087e-05
3.08438e-05
6.10473e-06
5.20089e-06
2.86206e-06
7.63556e-05
0.000111784
5.31912e-06
1.61856e-05
1.02924e-05
9.08098e-06
1.56307e-05
3.53975e-06
7.54927e-06
4.0079e-06
6.75088e-06
9.50274e-06
4.03181e-06
6.07857e-06
1.42035e-05
3.5298e-05
3.56706e-06
4.9723e-06
3.51534e-06
6.44635e-06
1.39971e-05
5.16646e-06
7.91912e-06
1.87812e-05
4.41135e-06
3.6576e-06
1.24207e-05
2.39193e-05
9.79366e-06
8.81857e-06
6.66759e-06
8.98726e-06
6.57927e-06
1.84324e-05
5.21666e-06
4.98804e-05
5.01906e-05
1.6221e-05
2.34616e-05
2.72185e-06
3.37107e-05
4.22241e-05
3.4579e-06
1.33743e-05
9.11587e-06
8.01103e-06
1.95605e-05
1.42452e-05
2.76174e-06
4.08008e-06
7.59485e-06
1.27186e-05
9.04607e-06
2.96043e-06
1.79243e-05
5.90905e-05
4.07134e-06
4.58559e-06
4.41462e-06
3.76194e-06
5.85627e-06
3.37623e-06
3.68504e-06
1.60371e-05
5.51067e-06
3.46725e-06
8.59861e-06
1.51634e-05
6.939e-06
1.12906e-05
1.58246e-05
4.21398e-06
8.09023e-06
3.34284e-05
6.53415e-06
2.36601e-05
2.45893e-05
5.78998e-06
8.40999e-06
6.14051e-06
7.40005e-06
1.93084e-05
3.59004e-06
7.68597e-06
8.84491e-06
4.17053e-06
3.18851e-06
2.61758e-06
3.62251e-06
1.84429e-06
2.85331e-06
4.53857e-06
5.08208e-06
2.50404e-06
1.24378e-05
4.74929e-05
3.67987e-06
3.14719e-06
3.04677e-06
3.25399e-06
8.01876e-06
6.36153e-06
3.92711e-06
8.2214e-06
3.96612e-06
1.51735e-05
3.2938e-06
1.05937e-05
5.19624e-06
9.0341e-06
2.44699e-05
2.28601e-06
4.71362e-06
3.11374e-05
4.52532e-06
7.67e-06
1.56381e-05
9.5258e-06
1.23254e-05
4.58847e-06
4.26495e-06
1.34445e-05
3.72476e-06
4.20999e-06
1.14959e-05
1.14185e-05
5.28451e-06
6.77771e-06
2.80724e-06
2.22012e-06
1.44372e-06
1.53558e-06
1.2691e-06
8.52925e-06
1.60267e-06
1.96195e-05
3.04575e-06
1.78176e-06
2.25707e-06
3.23274e-06
4.92068e-06
5.25845e-06
3.78543e-06
1.62228e-05
9.9782e-06
3.13149e-06
2.95608e-06
5.17729e-06
3.32039e-06
3.05442e-06
6.47397e-06
1.8934e-06
3.5915e-06
3.12109e-05
3.53508e-06
1.09965e-06
3.33296e-06
7.97322e-06
1.41034e-06
9.30037e-06
1.55736e-06
7.17265e-06
1.7917e-06
1.92216e-06
3.46379e-06
9.61563e-06
2.86959e-06
2.913e-06
3.64343e-06
8.29852e-06
5.51296e-06
6.96652e-06
8.08597e-06
1.0862e-06
6.38903e-06
2.22379e-05
5.27288e-06
6.27387e-06
4.03761e-06
1.9179e-06
5.78393e-06
2.80824e-06
2.46907e-06
2.85569e-06
2.5507e-06
1.78435e-05
1.11811e-05
5.65214e-06
6.01868e-06
5.38396e-06
3.36807e-06
3.61198e-06
1.07512e-06
1.55438e-05
8.57505e-06
9.71843e-07
1.65907e-05
5.28057e-06
1.18833e-06
6.5413e-06
1.10846e-06
4.09212e-06
1.32086e-06
6.95279e-06
1.80079e-06
4.35905e-06
1.96985e-06
2.25416e-06
2.46817e-06
3.22229e-06
1.21524e-06
4.67101e-06
7.38509e-06
2.1489e-06
1.22471e-06
9.56157e-06
3.88337e-06
9.57517e-06
5.65538e-06
2.14408e-06
4.64061e-06
4.72814e-06
1.70776e-06
1.46744e-05
1.14535e-05
2.09268e-06
2.23083e-06
3.68968e-06
1.7627e-06
1.57947e-06
2.64095e-06
7.74287e-06
2.33832e-06
3.7998e-06
9.42373e-06
1.47917e-06
5.11538e-06
3.22609e-06
3.6111e-06
9.75396e-06
7.95814e-06
3.94735e-06
8.72914e-06
4.91205e-06
1.16461e-05
1.81344e-05
1.46989e-06
2.83721e-06
3.26942e-06
1.72932e-06
3.39526e-06
1.04151e-06
5.42389e-06
1.89921e-06
2.92343e-06
1.48479e-06
1.33915e-06
6.04111e-06
8.05839e-06
2.33701e-06
2.65078e-06
6.77405e-06
3.98126e-06
3.21063e-06
8.5786e-06
1.72493e-06
2.13025e-06
2.24227e-06
1.68162e-06
2.69303e-06
1.14343e-06
1.62537e-05
9.71403e-07
8.73252e-07
3.02925e-06
1.60909e-06
1.45515e-06
1.24348e-06
1.61331e-06
1.2239e-06
6.3582e-06
2.63555e-06
2.13874e-06
3.86811e-06
1.64481e-06
9.90159e-06
8.6567e-06
2.71561e-06
1.21943e-06
1.68876e-06
1.71908e-06
1.86034e-06
2.76885e-06
2.22628e-06
1.17316e-06
1.43362e-06
1.46989e-06
1.53184e-06
1.94087e-06
1.69123e-06
1.42751e-06
1.18388e-05
1.69373e-06
2.38335e-06
1.22553e-05
1.5516e-06
1.68745e-06
1.61075e-06
6.47667e-06
3.08555e-06
1.1446e-06
2.00935e-05
6.39172e-06
1.29939e-06
4.80459e-06
1.15464e-06
2.83894e-06
4.5032e-06
4.23208e-06
1.7508e-06
1.11398e-05
3.48135e-06
5.34898e-06
1.20249e-06
1.74486e-06
2.33103e-06
2.48889e-06
2.4675e-06
7.00844e-06
9.88625e-07
3.52299e-06
1.73709e-06
1.17738e-06
4.56895e-06
1.0936e-06
3.10918e-06
8.28726e-06
3.3517e-06
7.19772e-06
5.45124e-06
1.12045e-06
3.8049e-06
1.83399e-06
2.20211e-06
5.37374e-06
3.12675e-06
1.91904e-06
6.56123e-06
1.70128e-05
3.83882e-06
3.04569e-06
1.63676e-05
7.73963e-06
8.36427e-07
2.02404e-06
1.50723e-06
2.52352e-06
2.21632e-05
7.10955e-05
1.36954e-05
0.000356989
6.01185e-05
6.64273e-05
1.43428e-05
1.6971e-05
8.34757e-05
1.92812e-05
0.000113497
0.000241701
1.43407e-05
0.000131523
1.91543e-05
1.53918e-05
9.48831e-06
9.91371e-05
9.4358e-06
4.31475e-05
1.07043e-05
1.06343e-05
3.46813e-05
5.63085e-05
1.59412e-05
2.84021e-05
1.13395e-05
7.38311e-05
0.000173052
6.28931e-05
2.39186e-05
7.64925e-06
1.28484e-05
5.27104e-05
9.1431e-05
2.4733e-05
0.000108507
0.000196294
1.54108e-05
2.79486e-05
4.41425e-05
0.000114263
9.51581e-06
0.000277357
3.08497e-05
0.000109006
3.02104e-05
3.38143e-05
0.000129225
3.64089e-05
7.6169e-05
0.000181598
2.13821e-05
0.000190862
4.09118e-05
1.14041e-05
1.24717e-05
6.04579e-05
1.42691e-05
7.62532e-05
2.32204e-05
2.30068e-05
1.70464e-05
3.12385e-05
3.07475e-05
5.14071e-05
1.91089e-05
0.000115674
0.000237443
0.000102155
4.89846e-05
1.61011e-05
2.66278e-05
8.7191e-05
0.000140311
5.07689e-05
6.78914e-05
0.000142094
1.24659e-05
5.47464e-05
2.33765e-05
7.07184e-05
1.55639e-05
0.000374069
5.84215e-05
6.34662e-05
1.3367e-05
1.80192e-05
8.59047e-05
1.79653e-05
0.000119565
0.000250775
1.45714e-05
0.000128986
1.9374e-05
1.42743e-05
1.05297e-05
0.000105145
1.08685e-05
3.97179e-05
9.92599e-06
1.04509e-05
3.9113e-05
6.40181e-05
1.41167e-05
2.56136e-05
1.10283e-05
7.18486e-05
0.000171638
6.0718e-05
2.38263e-05
7.5053e-06
1.31198e-05
4.80457e-05
8.87748e-05
2.76779e-05
0.000110899
0.000211823
1.50302e-05
3.01939e-05
3.98923e-05
9.20436e-05
1.28611e-05
0.000331855
3.34249e-05
9.23704e-05
2.05042e-05
2.91664e-05
0.000123798
2.88464e-05
8.27071e-05
0.000200566
1.91158e-05
0.000173482
2.97308e-05
1.16962e-05
1.23676e-05
6.89478e-05
1.35286e-05
6.82898e-05
1.48346e-05
1.54949e-05
2.39666e-05
4.35396e-05
2.39088e-05
4.16737e-05
1.49084e-05
9.8212e-05
0.000215776
8.3702e-05
3.99532e-05
1.18239e-05
2.10271e-05
6.81599e-05
0.000118322
4.21826e-05
9.02031e-05
0.000187834
1.21678e-05
4.35882e-05
3.60276e-05
8.06989e-05
1.81659e-05
0.000392384
3.83061e-05
9.64385e-05
1.58708e-05
2.51427e-05
0.000113874
2.42279e-05
9.39578e-05
0.000220696
1.81448e-05
0.000164755
2.27728e-05
1.17942e-05
1.09185e-05
6.839e-05
1.17992e-05
6.15301e-05
1.25431e-05
1.11087e-05
2.94672e-05
4.39315e-05
1.99622e-05
3.75597e-05
1.44994e-05
8.57609e-05
0.000202175
7.86652e-05
3.72404e-05
7.65246e-06
1.9215e-05
6.12086e-05
0.000104988
3.6964e-05
0.000113004
0.000241265
1.54199e-05
2.82715e-05
4.81028e-05
9.70327e-05
1.5616e-05
0.000393789
3.37683e-05
0.000128499
2.19498e-05
3.09368e-05
0.00013492
2.70498e-05
9.45691e-05
0.000199161
1.90117e-05
0.00019004
2.66563e-05
1.08882e-05
1.31526e-05
5.14344e-05
1.31629e-05
6.50749e-05
1.57885e-05
1.10887e-05
2.09354e-05
2.00815e-05
2.89081e-05
4.68727e-05
1.85555e-05
0.000103496
0.000220357
9.55388e-05
5.46521e-05
1.06632e-05
2.07954e-05
8.29918e-05
0.000123579
4.96298e-05
9.3468e-05
0.000229726
1.37979e-05
3.61122e-05
4.70785e-05
9.83689e-05
1.63314e-05
0.000409879
4.3984e-05
0.000131975
2.20925e-05
2.58538e-05
0.000130557
2.68181e-05
0.000112273
0.000206675
1.7925e-05
0.000176399
2.27045e-05
1.06483e-05
1.39809e-05
6.09557e-05
1.3724e-05
5.3435e-05
9.81498e-06
9.22378e-06
1.93225e-05
1.24967e-05
3.64911e-05
3.87284e-05
1.5096e-05
9.61345e-05
0.000199578
8.98837e-05
5.09548e-05
1.15735e-05
1.77236e-05
7.65348e-05
0.000113667
5.14041e-05
0.000101254
0.00021919
1.43237e-05
4.21778e-05
4.37255e-05
0.000105488
1.2301e-05
0.000339755
4.1293e-05
0.000144663
1.95718e-05
2.59016e-05
0.000130133
2.8947e-05
0.000119676
0.000209941
1.67367e-05
0.000174238
1.95045e-05
1.04795e-05
1.52261e-05
5.80423e-05
1.86649e-05
6.29177e-05
9.96996e-06
8.56228e-06
1.3676e-05
9.30865e-06
4.64105e-05
3.84757e-05
1.44518e-05
8.21919e-05
0.000190231
9.3059e-05
5.24132e-05
1.05439e-05
1.96168e-05
8.08325e-05
0.000128987
5.13266e-05
0.000111748
0.000202017
1.21209e-05
4.98716e-05
3.24114e-05
9.13053e-05
1.30784e-05
0.000249502
3.15284e-05
0.000138021
2.04023e-05
2.29271e-05
0.000125326
2.49488e-05
0.000119787
0.000220457
1.221e-05
0.0001617
1.4772e-05
1.22503e-05
1.43857e-05
5.41871e-05
1.94381e-05
7.85942e-05
1.04475e-05
1.3464e-05
1.28125e-05
1.01545e-05
4.77792e-05
3.4395e-05
1.01632e-05
5.40189e-05
0.000179828
7.60589e-05
4.74308e-05
9.88397e-06
1.28961e-05
7.02907e-05
0.000108759
3.6291e-05
0.000185382
0.000259847
1.19706e-05
4.52627e-05
2.49599e-05
7.84874e-05
1.49411e-05
0.000173961
2.01305e-05
0.000136724
3.64188e-05
1.80586e-05
0.000124745
2.15524e-05
9.45745e-05
0.000194533
1.16242e-05
0.000176676
1.63491e-05
1.40672e-05
1.35114e-05
4.87569e-05
1.6681e-05
0.000107503
9.9811e-06
1.33795e-05
1.04568e-05
1.68455e-05
5.61697e-05
2.73472e-05
9.43648e-06
3.4083e-05
0.000168451
6.74055e-05
4.79844e-05
1.3052e-05
1.11609e-05
7.31854e-05
7.94465e-05
3.08177e-05
0.000255613
0.000274786
1.43941e-05
5.59426e-05
1.86561e-05
6.39776e-05
1.50971e-05
0.000148976
1.81663e-05
0.00013874
4.76249e-05
1.77578e-05
0.000104428
1.78731e-05
8.84447e-05
0.000161144
1.20701e-05
0.000173067
1.47958e-05
1.53716e-05
1.38598e-05
4.81725e-05
1.50007e-05
0.000119482
1.0384e-05
1.1387e-05
1.03722e-05
1.94837e-05
6.88123e-05
1.95267e-05
1.03347e-05
1.52543e-05
0.000104416
6.46496e-05
4.18757e-05
1.31774e-05
1.82944e-05
9.22057e-05
7.21258e-05
4.57774e-05
0.000165363
0.00019647
1.66379e-05
5.82355e-05
1.59998e-05
5.04877e-05
1.21183e-05
0.000129376
1.99125e-05
0.000140144
5.11282e-05
2.54201e-05
0.000108091
1.8012e-05
9.69554e-05
0.000138295
1.33308e-05
0.000153308
1.25346e-05
1.81661e-05
1.50956e-05
3.55169e-05
1.41167e-05
0.000118957
9.68217e-06
1.21187e-05
9.74833e-06
1.78275e-05
7.73415e-05
1.90841e-05
1.12218e-05
1.09216e-05
5.73573e-05
6.00776e-05
3.29679e-05
1.1407e-05
2.28982e-05
0.000118665
0.000113009
3.88912e-05
0.000139911
0.000146879
1.89579e-05
5.65455e-05
1.35038e-05
3.88684e-05
9.4817e-06
0.000100815
1.99113e-05
0.000121923
4.96079e-05
2.72938e-05
0.000116409
2.17065e-05
9.08311e-05
0.000103673
1.31071e-05
0.000132873
1.19504e-05
2.03163e-05
1.39456e-05
2.84792e-05
1.03692e-05
0.000104022
9.92183e-06
1.46602e-05
9.20377e-06
1.40562e-05
6.73983e-05
2.18546e-05
1.11311e-05
1.28411e-05
4.37855e-05
3.99801e-05
2.73321e-05
9.41895e-06
1.90148e-05
0.000125626
9.83695e-05
1.39391e-05
0.000120586
0.000108269
2.06781e-05
4.90276e-05
1.0928e-05
3.15396e-05
9.29188e-06
7.85756e-05
1.46536e-05
0.000100581
3.88636e-05
2.96096e-05
0.000112295
1.59893e-05
7.25774e-05
4.77786e-05
1.23221e-05
0.000115137
1.11985e-05
1.54251e-05
1.4253e-05
2.52879e-05
1.0357e-05
7.99947e-05
1.02084e-05
1.46926e-05
8.81451e-06
1.07725e-05
5.07591e-05
2.41887e-05
1.0365e-05
2.28054e-05
4.15382e-05
3.11044e-05
2.72637e-05
9.51153e-06
1.83292e-05
0.000111239
8.0659e-05
9.74909e-06
9.62235e-05
6.69854e-05
3.03199e-05
4.41793e-05
1.19598e-05
3.27256e-05
1.0996e-05
6.92392e-05
1.18724e-05
9.61883e-05
3.64747e-05
2.76724e-05
0.00010029
9.14903e-06
7.3021e-05
2.19496e-05
1.00645e-05
7.88421e-05
1.34055e-05
1.21953e-05
1.4727e-05
2.00676e-05
9.92588e-06
5.40067e-05
9.65901e-06
1.41443e-05
9.02231e-06
8.76792e-06
3.0689e-05
1.90441e-05
9.38639e-06
3.22878e-05
4.29586e-05
3.56691e-05
3.01375e-05
1.15716e-05
1.77654e-05
9.91935e-05
8.80652e-05
1.06928e-05
5.38068e-05
4.57169e-05
3.46083e-05
5.02005e-05
1.10662e-05
3.05189e-05
1.38845e-05
5.0808e-05
1.05605e-05
7.94665e-05
3.46405e-05
1.71978e-05
6.95829e-05
8.24622e-06
6.57678e-05
1.43065e-05
8.9903e-06
4.12807e-05
1.30388e-05
1.20756e-05
1.2788e-05
1.29319e-05
8.54476e-06
4.11479e-05
7.34058e-06
9.19386e-06
9.50224e-06
9.59775e-06
1.625e-05
1.41179e-05
7.71049e-06
3.08486e-05
5.56099e-05
4.12333e-05
3.36884e-05
1.27719e-05
1.63897e-05
9.81026e-05
0.000110399
2.10132e-05
2.00622e-05
3.04838e-05
3.5793e-05
5.14644e-05
1.00451e-05
1.97812e-05
9.87337e-06
6.73431e-05
1.39578e-05
5.72015e-05
2.77638e-05
1.28584e-05
5.86844e-05
8.65457e-06
3.74357e-05
9.28887e-06
7.14025e-06
2.45976e-05
1.64881e-05
7.88669e-06
1.03751e-05
6.95687e-06
6.74386e-06
3.50106e-05
6.06257e-06
6.13472e-06
6.35505e-06
1.04146e-05
8.40752e-06
9.66573e-06
7.19677e-06
2.32499e-05
5.75802e-05
3.93525e-05
2.61104e-05
1.074e-05
1.23011e-05
8.21219e-05
0.000102424
4.06347e-05
9.05698e-06
1.85282e-05
3.50876e-05
3.89128e-05
1.05984e-05
1.13723e-05
1.32256e-05
8.94083e-05
2.01073e-05
4.77445e-05
2.514e-05
1.01129e-05
5.94896e-05
1.68851e-05
1.96909e-05
7.36141e-06
6.93699e-06
2.12341e-05
2.68852e-05
4.12652e-06
9.37253e-06
8.20256e-06
9.16265e-06
3.60121e-05
5.96143e-06
6.46059e-06
6.20556e-06
9.42053e-06
6.91288e-06
6.2305e-06
6.00561e-06
1.77461e-05
5.15447e-05
4.48575e-05
2.07152e-05
9.7397e-06
9.20108e-06
7.27706e-05
7.7715e-05
4.18601e-05
8.42183e-06
1.47961e-05
3.59391e-05
3.32388e-05
9.51254e-06
1.70141e-05
8.81037e-06
6.5977e-05
2.03945e-05
3.16364e-05
2.07771e-05
7.38861e-06
3.42899e-05
2.68846e-05
1.53682e-05
6.14701e-06
8.30705e-06
1.9094e-05
3.69703e-05
5.08732e-06
7.70771e-06
1.4923e-05
1.15804e-05
2.22054e-05
8.63531e-06
1.12264e-05
9.96549e-06
1.05454e-05
1.59493e-05
6.71496e-06
5.59772e-06
9.85964e-06
3.40516e-05
4.79704e-05
3.6673e-05
9.32843e-06
8.85754e-06
4.19829e-05
5.04378e-05
4.50776e-05
1.01384e-05
1.09646e-05
3.6908e-05
3.81915e-05
1.05756e-05
2.51094e-05
9.64288e-06
3.71661e-05
1.60759e-05
2.859e-05
2.34703e-05
8.38127e-06
1.70184e-05
2.77869e-05
1.33389e-05
5.67788e-06
8.43936e-06
8.97353e-06
2.88455e-05
6.61047e-06
5.00133e-06
1.18101e-05
9.39825e-06
1.09462e-05
5.99888e-06
7.74738e-06
2.27372e-05
4.67114e-06
2.82781e-05
1.48606e-05
5.27229e-06
5.48271e-06
2.18852e-05
2.75594e-05
3.17676e-05
8.6479e-06
7.82191e-06
2.7396e-05
2.83703e-05
3.60559e-05
1.11779e-05
6.36325e-06
4.15126e-05
4.52861e-05
1.74414e-05
4.17492e-05
1.53446e-05
3.53139e-05
2.62493e-05
1.46855e-05
1.97103e-05
1.06868e-05
5.96206e-06
2.28147e-05
5.10247e-06
4.9077e-06
1.04208e-05
8.79708e-06
2.75873e-05
7.17095e-06
4.48657e-06
7.62987e-06
7.15162e-06
7.82159e-06
9.38736e-06
7.06992e-06
1.2079e-05
4.42788e-06
1.76603e-05
6.95721e-06
3.54523e-06
4.18177e-06
8.85528e-06
8.55816e-06
1.26967e-05
6.94788e-06
6.52753e-06
1.49823e-05
1.42353e-05
3.42275e-05
1.15725e-05
5.56963e-06
3.80758e-05
5.46538e-05
4.92653e-06
1.08919e-05
7.7696e-06
3.7028e-05
4.01163e-05
5.64702e-06
1.95353e-05
5.38333e-06
7.05807e-06
2.20266e-05
3.84276e-06
3.95152e-06
6.11286e-06
4.02315e-06
1.60733e-05
5.24185e-06
9.3088e-06
4.07032e-06
5.63324e-06
3.83609e-06
8.62309e-06
6.77151e-06
7.38488e-06
5.55824e-06
9.00631e-06
4.05801e-06
1.44452e-05
7.93519e-06
7.11998e-06
8.468e-06
1.08719e-05
5.6733e-06
6.57495e-06
1.75899e-05
1.09229e-05
3.17621e-05
6.90516e-06
1.63631e-05
1.07059e-05
2.82737e-05
6.28857e-06
4.7636e-06
9.31977e-06
1.67971e-05
1.69917e-05
1.07537e-05
3.37225e-05
8.08501e-06
9.14611e-06
2.79228e-05
8.15464e-06
3.92344e-06
5.81784e-06
3.65903e-06
1.73937e-05
9.34593e-06
1.24377e-05
5.96171e-06
4.36845e-06
4.03807e-06
7.22303e-06
4.93576e-06
4.32077e-06
6.83461e-06
4.43668e-06
4.31345e-06
1.69923e-05
8.90634e-06
4.26682e-06
5.84999e-06
1.04008e-05
7.01609e-06
1.00984e-05
1.76123e-05
7.13174e-06
3.86493e-05
3.13859e-05
3.04898e-06
1.12534e-05
1.58965e-05
2.39231e-06
5.28704e-06
6.90299e-06
3.32609e-05
4.67417e-05
3.1613e-06
2.15305e-05
1.68334e-05
1.10045e-05
1.80005e-05
5.90586e-06
2.13981e-06
2.02191e-06
2.61896e-06
3.87426e-06
3.08757e-06
1.77905e-05
3.20381e-06
5.96646e-06
4.76419e-06
4.33753e-06
5.31285e-06
4.37886e-06
6.82609e-06
3.41011e-06
3.48371e-06
1.4675e-05
4.80206e-06
4.47034e-06
3.51457e-06
4.79271e-06
3.55689e-06
5.02974e-06
1.00574e-05
3.04795e-06
1.90473e-05
2.43539e-05
3.30932e-06
3.18059e-05
3.28379e-05
5.62433e-06
2.6837e-06
4.97117e-06
1.33515e-05
1.06655e-05
1.44934e-05
3.3569e-05
2.74907e-05
1.70729e-05
1.97282e-05
1.63633e-05
7.49134e-06
7.01078e-06
2.46029e-06
6.49311e-06
5.78614e-06
1.71399e-05
4.34413e-06
6.62785e-06
5.77964e-06
2.61789e-06
3.89342e-06
3.47325e-06
3.15285e-06
3.73086e-06
3.61159e-06
2.37645e-05
1.03533e-05
3.55258e-06
3.20229e-06
4.47129e-06
3.40091e-06
8.60486e-06
1.94707e-05
2.64798e-06
1.21738e-05
2.4791e-05
3.88755e-06
2.59759e-05
1.9908e-05
6.71422e-06
3.3489e-06
6.55527e-06
1.19014e-05
2.06349e-05
4.58307e-06
1.3295e-05
2.58445e-05
2.04942e-05
1.08124e-05
7.86142e-06
2.99915e-06
2.30856e-06
2.99969e-06
1.89956e-06
1.7631e-06
2.38701e-05
5.12639e-06
1.05479e-05
2.6623e-06
2.49544e-06
5.07887e-06
3.40922e-06
8.05883e-06
4.42167e-06
3.77734e-06
1.01005e-05
3.67528e-06
1.67388e-05
5.17761e-06
8.00143e-06
7.20624e-06
7.00682e-06
1.48861e-05
1.95523e-06
1.47267e-06
1.21237e-05
1.36351e-06
6.05277e-06
9.91802e-06
2.89496e-06
2.8249e-06
8.35382e-06
3.76136e-06
1.17622e-05
3.20456e-06
4.36981e-06
1.55242e-05
1.65022e-05
5.32223e-06
7.09733e-06
7.65232e-06
3.84453e-06
3.71742e-06
2.9237e-06
1.43418e-06
1.71421e-05
5.21274e-06
1.19328e-05
2.42102e-06
2.47412e-06
5.00733e-06
3.51311e-06
1.0582e-05
9.25127e-06
6.13548e-06
2.22987e-05
1.50327e-05
3.17784e-06
3.83385e-06
2.97628e-06
2.89873e-06
2.31669e-06
7.16277e-06
1.68748e-06
1.66799e-06
1.4584e-05
2.18242e-06
2.78979e-06
1.07273e-05
3.55444e-06
1.40606e-06
9.44355e-06
1.42908e-06
3.78876e-06
4.06401e-06
2.09198e-06
6.72523e-06
1.4034e-05
4.89232e-06
3.83002e-06
2.53403e-06
2.14209e-06
1.74106e-06
1.55927e-06
5.14744e-06
2.46316e-06
1.661e-06
7.91759e-06
2.02216e-06
2.78823e-06
4.11593e-06
2.23838e-06
9.56758e-06
8.39875e-06
2.76807e-06
4.7174e-06
3.12006e-06
1.53107e-05
7.60695e-06
2.51038e-06
6.35999e-06
4.56346e-06
1.38824e-05
3.16718e-06
5.23876e-06
6.89855e-06
4.61833e-06
1.80798e-06
1.76083e-05
1.51795e-06
2.20518e-06
1.38598e-06
3.86764e-06
7.66287e-06
1.36563e-06
1.46044e-06
3.34706e-06
6.84915e-06
1.46756e-06
2.45224e-06
7.35857e-06
1.09945e-05
2.2934e-06
1.40958e-06
2.27417e-06
3.11271e-06
1.4442e-06
5.50624e-06
1.73671e-06
4.40189e-06
5.07722e-06
1.8002e-06
3.81438e-06
4.27597e-06
1.90658e-06
1.00692e-05
4.06125e-06
4.92831e-06
4.88353e-06
5.4528e-06
1.6175e-06
1.51782e-06
5.19426e-06
1.02741e-05
1.68156e-06
7.08648e-06
7.15932e-06
3.4238e-06
1.87108e-06
3.57985e-06
2.24361e-06
3.14307e-06
3.65981e-06
3.02353e-06
6.13084e-06
4.78297e-06
1.08543e-05
1.44788e-05
1.27288e-06
2.80763e-06
1.51302e-06
1.20067e-06
1.00472e-06
1.01714e-06
3.61906e-06
1.1523e-06
2.31482e-06
1.24308e-06
1.44622e-06
3.66667e-06
6.43682e-06
1.76418e-06
3.49706e-06
9.58458e-06
1.79066e-06