/*--------------------------------*- C++ -*----------------------------------*\
  =========                 |
  \\      /  F ield         | OpenFOAM: The Open Source CFD Toolbox
   \\    /   O peration     | Website:  https://openfoam.org
    \\  /    A nd           | Version:  10
     \\/     M anipulation  |
\*---------------------------------------------------------------------------*/
FoamFile
{
    format      ascii;
    class       volScalarField;
    location    "4";
    object      nut;
}
// * * * * * * * * * * * * * * * * * * * * * * * * * * * * * * * * * * * * * //

dimensions      [0 2 -1 0 0 0 0];

internalField   nonuniform List<scalar> 
25600
(
3.1783e-08
7.65952e-08
7.13481e-09
2.26336e-09
7.88717e-08
4.3859e-08
5.6093e-09
1.26099e-08
1.41223e-09
4.25106e-08
4.17788e-08
2.29757e-09
9.96056e-09
4.51331e-08
1.02996e-08
1.72586e-08
4.71795e-08
1.03783e-08
9.65281e-09
8.72151e-08
1.96926e-08
9.33996e-09
4.79587e-08
4.17218e-08
1.25791e-08
2.26224e-08
5.17242e-08
1.94217e-08
4.189e-10
5.48219e-08
7.30312e-08
1.54225e-09
2.58209e-09
1.12965e-07
6.81022e-09
2.37788e-09
4.67634e-08
5.60481e-08
1.15417e-08
3.71018e-09
4.68617e-08
2.47336e-08
1.13828e-08
1.91774e-09
4.67686e-08
6.93223e-08
5.10754e-09
6.25902e-09
3.55934e-08
5.79325e-08
5.20875e-09
5.18302e-09
2.93831e-08
1.10256e-08
1.7455e-08
5.99036e-08
1.09364e-08
7.39086e-09
8.60441e-08
4.40302e-09
1.27143e-08
1.23486e-07
7.76963e-09
1.55221e-08
1.4958e-07
1.94187e-08
4.85023e-09
6.21408e-08
4.49051e-09
3.10925e-08
5.85253e-08
2.52455e-09
1.31282e-08
1.13087e-07
2.48414e-09
4.18604e-09
9.02461e-08
2.84034e-08
1.11609e-08
2.60803e-08
4.39624e-08
1.16492e-08
1.8611e-08
2.9889e-08
3.5782e-08
7.06766e-08
2.48889e-09
7.07276e-09
8.36305e-08
5.46251e-08
5.96676e-09
3.85362e-08
3.06203e-08
1.33266e-08
6.35495e-08
8.06513e-08
8.62931e-09
6.88063e-09
1.66995e-07
3.35518e-09
1.72211e-08
2.22773e-07
7.93912e-09
2.0699e-08
2.7083e-07
1.24254e-08
5.85288e-09
9.45609e-08
1.6362e-08
6.1056e-08
8.60706e-09
3.50166e-09
7.8745e-08
7.47734e-08
2.77916e-09
1.09572e-08
1.03297e-07
9.65017e-09
1.17041e-08
7.60278e-08
4.87007e-08
6.08056e-09
2.70711e-08
6.92695e-08
2.37041e-08
6.70786e-08
3.6278e-09
9.81612e-09
1.54617e-07
2.20776e-08
9.23398e-09
7.96615e-08
1.32734e-08
2.97755e-08
1.03472e-07
6.36492e-08
8.46456e-09
5.61188e-08
1.79556e-07
5.97078e-09
1.3352e-07
1.79578e-07
1.11745e-08
1.41732e-07
2.79165e-07
9.43212e-09
3.61506e-08
8.44307e-08
1.97352e-08
1.24222e-07
3.24617e-09
2.52087e-09
1.46088e-07
2.38474e-08
5.83585e-09
5.41681e-08
7.38169e-08
1.83632e-08
1.2386e-08
1.0217e-07
6.46727e-08
2.59057e-09
5.11221e-08
9.09344e-08
1.72654e-08
6.7327e-08
4.4608e-09
2.17656e-08
1.9538e-07
1.92133e-08
2.53209e-08
7.01237e-08
2.25358e-08
8.73628e-08
8.83334e-08
5.29874e-08
6.95529e-09
1.35608e-07
1.20109e-07
7.13812e-09
2.86308e-07
2.44643e-08
1.17942e-08
3.42711e-07
1.567e-07
5.78564e-09
1.2442e-07
3.20446e-08
2.01421e-08
1.76861e-07
7.98652e-09
4.60653e-09
1.56032e-07
1.29018e-08
2.06991e-08
7.15466e-08
3.31206e-08
3.50779e-08
4.87513e-08
9.8609e-08
6.1942e-08
2.2423e-09
1.20922e-07
7.02438e-08
3.03357e-08
6.82335e-08
4.72323e-09
8.46588e-08
1.64274e-07
3.24147e-08
1.03883e-07
1.82476e-08
4.27075e-08
1.34985e-07
6.1816e-08
5.36289e-08
7.26955e-09
2.12358e-07
5.65672e-08
8.02882e-09
3.40628e-07
9.02183e-09
1.17241e-08
4.40171e-07
4.11475e-08
1.35638e-09
1.91628e-07
2.29413e-08
6.23253e-08
1.74473e-07
9.98198e-09
9.39979e-08
9.69143e-08
1.07016e-08
6.85897e-08
5.52904e-08
1.63311e-08
5.47298e-08
6.1883e-08
1.05529e-07
4.19544e-08
4.37665e-09
2.05477e-07
2.97747e-08
7.65615e-08
4.23339e-08
7.70217e-09
1.733e-07
8.4915e-08
6.18352e-08
1.80326e-07
3.33534e-09
8.46557e-08
1.32523e-07
6.75055e-08
5.20282e-08
1.02287e-08
2.6325e-07
3.56242e-08
4.73908e-08
2.55761e-07
9.71142e-09
4.93346e-08
3.9654e-07
2.78704e-08
2.11703e-09
1.85183e-07
2.08987e-08
1.9952e-07
1.07072e-07
1.07238e-08
1.98364e-07
1.40427e-08
1.94559e-08
7.73785e-08
4.18384e-08
2.80659e-08
6.19467e-08
5.96857e-08
1.58444e-07
2.70825e-08
1.95599e-08
2.48987e-07
2.57424e-08
1.76887e-07
1.63825e-08
1.8211e-08
2.20666e-07
5.62592e-08
1.3615e-07
1.8181e-07
3.36894e-09
1.60913e-07
1.29415e-07
1.18926e-07
4.04926e-08
1.59047e-08
2.72924e-07
3.65216e-08
2.0656e-07
1.0659e-07
1.28217e-08
1.04648e-07
2.97511e-07
3.06407e-08
1.31751e-08
1.31727e-07
2.01667e-08
3.60263e-07
5.6e-08
1.64113e-08
2.14487e-07
6.20039e-09
1.0733e-07
3.07809e-08
4.152e-08
6.59649e-08
5.34518e-08
6.99166e-08
2.29892e-07
3.39024e-08
8.20901e-08
2.24057e-07
3.79323e-08
2.60529e-07
2.35098e-08
5.01163e-08
1.91217e-07
7.5467e-08
2.79016e-07
1.37854e-07
9.74065e-09
2.08782e-07
1.48944e-07
2.14487e-07
2.88658e-08
3.18964e-08
2.31825e-07
6.30523e-08
3.02257e-07
7.10673e-08
3.60545e-08
4.89472e-08
3.01295e-07
4.84958e-08
3.92669e-08
7.0014e-08
2.16663e-08
4.95868e-07
5.81419e-08
4.39012e-08
1.55786e-07
1.09735e-08
2.01584e-07
2.11626e-08
6.12977e-08
8.84112e-08
5.8563e-08
1.07021e-07
2.98082e-07
6.7481e-08
1.90233e-07
1.7459e-07
8.47396e-08
2.76937e-07
4.55231e-08
1.22718e-07
1.26118e-07
1.30247e-07
4.0754e-07
1.22884e-07
2.6525e-08
1.64031e-07
2.06186e-07
3.20851e-07
2.86068e-08
6.78562e-08
1.6815e-07
1.66812e-07
3.11499e-07
1.08125e-07
8.47969e-08
6.42343e-09
4.22395e-07
6.15021e-08
9.70663e-08
5.02749e-08
3.65826e-08
5.82216e-07
7.87124e-08
1.46352e-07
1.13987e-07
4.69789e-08
2.38675e-07
3.96325e-08
1.10454e-07
1.19311e-07
8.4732e-08
1.75305e-07
3.44866e-07
1.36807e-07
2.93708e-07
1.58022e-07
2.20584e-07
2.24278e-07
9.82827e-08
2.20059e-07
1.10754e-07
2.37261e-07
4.7432e-07
1.36509e-07
5.2359e-08
1.37763e-07
3.38856e-07
3.94387e-07
3.9665e-08
1.2035e-07
1.58429e-07
3.73776e-07
2.64315e-07
1.92156e-07
1.09786e-07
8.45227e-09
5.79933e-07
6.09809e-08
1.8722e-07
6.55762e-08
1.03852e-07
6.54501e-07
1.16027e-07
2.75505e-07
1.37933e-07
1.55626e-07
2.57542e-07
8.40873e-08
1.72449e-07
1.87969e-07
1.23761e-07
2.63568e-07
3.7324e-07
2.72988e-07
3.91148e-07
1.88769e-07
4.71007e-07
1.95221e-07
1.9791e-07
2.85207e-07
1.62655e-07
4.5303e-07
5.29896e-07
1.97547e-07
7.5887e-08
1.46687e-07
5.61499e-07
4.94217e-07
6.34897e-08
1.59294e-07
2.14768e-07
6.21586e-07
3.09598e-07
3.03641e-07
1.12004e-07
4.30737e-08
7.0668e-07
8.4529e-08
2.94571e-07
1.12535e-07
2.53547e-07
7.48934e-07
2.07826e-07
4.22825e-07
2.00205e-07
3.00727e-07
3.07038e-07
1.83577e-07
2.73092e-07
3.0039e-07
1.81459e-07
3.82796e-07
4.202e-07
4.89109e-07
5.15785e-07
2.71407e-07
7.07453e-07
2.1522e-07
3.95067e-07
3.57157e-07
2.76309e-07
6.22869e-07
5.6527e-07
2.98568e-07
1.26918e-07
2.7097e-07
7.14473e-07
5.62311e-07
1.17893e-07
2.52658e-07
4.10169e-07
7.74439e-07
4.02601e-07
4.78328e-07
1.72342e-07
1.78557e-07
7.36657e-07
1.34095e-07
4.39293e-07
2.06998e-07
5.08534e-07
8.83231e-07
3.31733e-07
6.06509e-07
3.37048e-07
4.94412e-07
4.34376e-07
2.75839e-07
4.22057e-07
4.58731e-07
2.71512e-07
5.70127e-07
4.68014e-07
8.66805e-07
6.84624e-07
4.17165e-07
1.07611e-06
3.20335e-07
6.48378e-07
4.34957e-07
5.09905e-07
9.67377e-07
6.95106e-07
4.56846e-07
1.96331e-07
5.60658e-07
1.02697e-06
6.84574e-07
2.28611e-07
3.89271e-07
7.84391e-07
1.14171e-06
4.97835e-07
6.41392e-07
2.86904e-07
5.40899e-07
8.6796e-07
2.3718e-07
6.02419e-07
3.61201e-07
8.39388e-07
1.19249e-06
5.63241e-07
8.39955e-07
5.29185e-07
7.19222e-07
7.42648e-07
4.19765e-07
6.6077e-07
6.59183e-07
4.3018e-07
9.16686e-07
6.2661e-07
1.49275e-06
9.8787e-07
5.89316e-07
1.34364e-06
5.30838e-07
1.06089e-06
4.86024e-07
8.10019e-07
1.24653e-06
9.81694e-07
7.79031e-07
3.45417e-07
9.77553e-07
1.34734e-06
8.90901e-07
5.08317e-07
6.57235e-07
1.02318e-06
1.34926e-06
8.59735e-07
1.00707e-06
4.47457e-07
8.65323e-07
9.46231e-07
5.07895e-07
9.45105e-07
5.61677e-07
1.11873e-06
1.6407e-06
8.91092e-07
1.20812e-06
7.79979e-07
9.63733e-07
1.15653e-06
7.06092e-07
1.04367e-06
8.86998e-07
7.05963e-07
1.38907e-06
8.98719e-07
2.23092e-06
1.30965e-06
1.02556e-06
2.06045e-06
8.88578e-07
1.61874e-06
5.90243e-07
1.20829e-06
1.63353e-06
1.22196e-06
1.00369e-06
1.19714e-06
1.89445e-06
2.2772e-06
1.54242e-06
1.20384e-06
2.17205e-06
1.81449e-06
1.66875e-06
1.2695e-06
1.48791e-06
1.19873e-06
1.5461e-06
1.28826e-06
1.07223e-06
1.29826e-06
7.76032e-07
1.28386e-06
2.21053e-06
1.72562e-06
1.73687e-06
8.77574e-07
1.212e-06
1.72165e-06
1.348e-06
1.57622e-06
1.15679e-06
1.12947e-06
2.19919e-06
1.47466e-06
2.64428e-06
1.57523e-06
1.40189e-06
2.10784e-06
1.15644e-06
1.97889e-06
1.3667e-06
2.59985e-06
2.39872e-06
2.32261e-06
1.49858e-06
4.19899e-06
3.8231e-06
3.45378e-06
3.19715e-06
2.32176e-06
4.91976e-06
2.96954e-06
1.94175e-06
2.4039e-06
3.37747e-06
3.77986e-06
2.88859e-06
2.39991e-06
2.39854e-06
2.06652e-06
2.07921e-06
2.59985e-06
2.626e-06
2.27449e-06
2.28149e-06
1.21483e-06
1.15303e-06
1.59496e-06
1.42128e-06
2.04753e-06
1.31132e-06
9.64057e-07
2.72611e-06
2.041e-06
2.91737e-06
2.90427e-06
3.94828e-06
2.60226e-06
2.55485e-06
1.59136e-06
3.44219e-06
5.51167e-06
3.81082e-06
3.10981e-06
2.51953e-06
7.19207e-06
7.42291e-06
4.64144e-06
4.32665e-06
2.33551e-06
5.18951e-06
4.51291e-06
2.92679e-06
1.93885e-06
3.7168e-06
5.83951e-06
4.93747e-06
4.16854e-06
3.50564e-06
3.58535e-06
4.0725e-06
3.23918e-06
2.71917e-06
3.7621e-06
3.62979e-06
4.35373e-06
1.34047e-06
3.9331e-06
3.28904e-06
2.19272e-06
1.78358e-06
1.10039e-06
2.37444e-06
1.93949e-06
3.402e-06
3.66786e-06
6.48928e-06
2.16121e-06
3.07407e-06
5.00998e-06
4.87792e-06
8.0003e-06
4.50717e-06
2.08998e-06
3.58978e-06
5.07093e-06
8.7411e-06
9.1135e-06
4.10365e-06
5.41834e-06
3.70179e-06
5.86398e-06
6.09277e-06
7.6908e-06
2.81568e-06
3.47581e-06
3.79748e-06
2.99631e-06
2.41197e-06
3.59432e-06
6.06502e-06
3.0918e-06
6.71049e-06
5.38197e-06
3.22698e-06
6.57153e-06
4.46505e-06
3.85375e-06
7.59849e-06
4.49497e-06
5.78137e-06
3.21723e-06
4.64297e-06
4.66374e-06
6.11252e-06
7.57525e-06
5.33714e-06
4.5505e-06
4.20733e-06
9.84134e-06
6.62831e-06
5.17088e-06
6.44658e-06
3.95674e-06
7.35358e-06
1.05343e-05
4.70217e-06
1.07261e-05
2.7256e-06
6.14259e-06
5.47887e-06
5.15646e-06
6.70331e-06
1.16849e-05
6.84457e-06
4.42241e-06
2.46946e-06
5.47214e-06
5.2849e-06
2.17396e-06
4.93535e-06
8.22646e-06
7.0306e-06
6.99687e-06
4.14982e-06
3.1532e-06
9.89805e-06
9.60801e-06
6.56145e-06
7.96278e-06
3.65962e-06
6.91217e-06
6.82418e-06
7.48532e-06
4.41413e-06
9.85225e-06
7.91854e-06
4.39412e-06
7.14073e-06
7.54706e-06
1.09107e-05
1.36837e-05
9.66878e-06
6.70712e-06
6.72249e-06
2.05191e-05
1.41884e-05
6.71634e-06
3.42295e-06
5.50379e-06
1.14282e-05
5.04503e-06
7.86331e-06
6.09959e-06
5.53086e-06
9.59315e-06
8.22975e-06
1.02256e-05
6.75631e-06
7.98295e-06
1.67977e-06
8.64268e-06
5.91466e-06
7.86509e-06
8.62671e-06
3.55801e-06
8.21077e-06
1.01367e-05
4.47533e-06
1.23863e-05
6.2218e-06
6.55217e-06
6.28932e-06
7.27001e-06
6.30874e-06
7.37685e-06
9.44765e-06
1.08771e-05
1.04817e-05
6.62071e-06
1.5021e-05
1.39154e-05
3.90134e-06
6.54946e-06
7.70677e-06
1.41705e-05
1.16137e-05
6.4144e-06
1.00924e-05
5.44017e-06
9.75835e-06
5.62953e-06
5.65127e-06
2.40639e-06
6.22059e-06
1.1639e-05
1.0903e-05
1.00272e-05
7.45912e-06
1.13771e-05
4.00923e-06
7.36117e-06
9.4342e-06
6.42078e-06
8.92296e-06
4.91043e-06
2.86418e-06
9.14963e-06
5.40295e-06
8.72967e-06
6.96792e-06
6.91152e-06
5.41829e-06
4.41026e-06
6.09295e-06
8.77713e-06
1.174e-05
1.17765e-05
7.95095e-06
5.40558e-06
5.70471e-06
5.01343e-06
6.22275e-06
9.80494e-06
4.80666e-06
7.56638e-06
9.00669e-06
1.69961e-05
8.81294e-06
1.41487e-06
5.43448e-06
8.10006e-06
1.17084e-05
4.34014e-06
7.71008e-06
6.82178e-06
7.98431e-06
7.62174e-06
8.3019e-06
8.51413e-06
1.09995e-05
2.23377e-05
1.34157e-05
6.68882e-06
6.4968e-06
5.06773e-06
1.41913e-05
1.31123e-05
4.63659e-06
2.58929e-06
1.34852e-05
2.09678e-05
4.52635e-06
7.61346e-06
1.10676e-05
1.1494e-05
1.0434e-05
9.93398e-06
4.25148e-06
3.5146e-06
4.97639e-06
1.18475e-05
1.09314e-05
5.17146e-06
3.13682e-06
2.94413e-06
8.44972e-06
1.9672e-05
5.24221e-06
7.80342e-07
3.29093e-06
1.52762e-05
1.5548e-05
6.73717e-06
4.90301e-06
3.54152e-06
7.95385e-06
5.97007e-06
4.15689e-06
4.03606e-06
1.72779e-05
2.07229e-05
4.76915e-06
1.10179e-05
7.23906e-06
2.20449e-05
2.14578e-05
9.35292e-06
5.15162e-06
1.63824e-05
2.29387e-05
1.89553e-05
3.34121e-06
5.31995e-06
1.7507e-05
7.31503e-06
7.36848e-06
6.87856e-06
6.8304e-06
7.3355e-06
1.24623e-05
1.2939e-05
5.88392e-06
5.6699e-06
9.20166e-06
6.72828e-06
1.245e-05
1.44496e-05
5.50532e-06
5.75689e-06
1.10463e-05
1.94639e-05
1.29035e-05
6.69675e-06
3.95258e-06
6.4805e-06
1.03269e-05
5.55125e-06
3.78644e-06
2.75651e-06
1.51974e-05
1.32907e-05
7.53987e-06
3.40862e-06
2.11912e-05
2.46415e-05
1.32695e-05
9.43583e-06
1.58436e-05
2.00837e-05
1.3424e-05
7.35171e-06
5.29357e-06
7.39576e-06
1.65444e-05
3.72832e-06
7.21969e-06
5.3804e-06
6.98658e-06
1.1855e-05
9.42485e-06
6.86056e-06
6.78035e-06
1.02702e-05
1.11914e-05
7.69905e-06
9.70617e-06
8.33747e-06
6.25251e-06
9.25636e-06
1.31634e-05
1.42077e-05
8.78525e-06
5.30515e-06
7.90326e-06
1.14129e-05
1.1206e-05
5.45332e-06
4.46832e-06
5.78528e-06
1.17695e-05
6.45462e-06
5.06679e-06
1.54141e-05
1.70057e-05
1.04835e-05
8.54616e-06
1.38519e-05
1.70799e-05
1.08492e-05
5.97718e-06
5.87509e-06
5.46203e-06
1.56179e-05
1.09854e-05
3.81336e-06
9.86052e-06
7.11592e-06
9.77901e-06
1.31654e-05
5.52792e-06
7.89207e-06
1.12762e-05
1.57193e-05
1.15491e-05
8.65736e-06
7.7998e-06
7.35276e-06
1.20986e-05
1.31019e-05
1.1584e-05
9.70234e-06
9.21945e-06
5.85218e-06
9.47541e-06
1.33188e-05
1.02303e-05
6.73801e-06
1.01362e-05
1.07466e-05
9.61395e-06
5.53679e-06
6.90091e-06
1.8526e-05
9.30104e-06
6.82243e-06
1.18246e-05
1.72228e-05
1.38337e-05
5.78134e-06
7.60712e-06
6.48951e-06
1.26453e-05
2.13293e-05
7.16014e-06
7.63891e-06
1.48499e-05
1.00783e-05
1.57426e-05
1.34398e-05
8.35167e-06
1.37453e-05
1.87744e-05
1.93484e-05
1.3487e-05
9.69999e-06
8.12879e-06
1.28691e-05
1.79861e-05
1.39604e-05
1.13351e-05
1.14075e-05
1.19788e-05
1.0971e-05
1.449e-05
1.49173e-05
9.91638e-06
1.25231e-05
1.7264e-05
1.34287e-05
6.30101e-06
2.45122e-06
1.96332e-05
2.0344e-05
1.02467e-05
9.77487e-06
1.87457e-05
1.8295e-05
1.4366e-05
7.69131e-06
7.35536e-06
1.57516e-05
2.02179e-05
2.0834e-05
9.3467e-06
1.55698e-05
1.90173e-05
1.63462e-05
2.04995e-05
1.44553e-05
1.34382e-05
1.96182e-05
2.32597e-05
1.98456e-05
1.4099e-05
1.13609e-05
1.37128e-05
2.1149e-05
1.94841e-05
1.41542e-05
1.48685e-05
1.58912e-05
1.74156e-05
1.80571e-05
1.80773e-05
1.44374e-05
1.53875e-05
2.00679e-05
2.11491e-05
1.31472e-05
7.83042e-06
1.84974e-05
3.01494e-05
2.03508e-05
1.35459e-05
1.7497e-05
2.22442e-05
1.9657e-05
1.47919e-05
9.24712e-06
1.63069e-05
2.25053e-05
2.16626e-05
1.77332e-05
1.48245e-05
2.0598e-05
2.23439e-05
2.15284e-05
2.09253e-05
1.61124e-05
1.77652e-05
2.29379e-05
2.30537e-05
1.90172e-05
1.58588e-05
1.79913e-05
2.3544e-05
2.65042e-05
1.92515e-05
1.66153e-05
1.8973e-05
1.96906e-05
2.22318e-05
2.00894e-05
1.87117e-05
1.94076e-05
2.20608e-05
2.42071e-05
2.14544e-05
1.70285e-05
2.06796e-05
3.26765e-05
3.08213e-05
1.94718e-05
1.77169e-05
2.16611e-05
2.20724e-05
1.88452e-05
1.50978e-05
1.63728e-05
2.31537e-05
2.29731e-05
2.02525e-05
1.6875e-05
1.90167e-05
2.24356e-05
2.33228e-05
2.18013e-05
1.97082e-05
1.84048e-05
2.06342e-05
2.29365e-05
2.18774e-05
2.03899e-05
2.06011e-05
2.52722e-05
2.85066e-05
2.66911e-05
1.89991e-05
1.86194e-05
2.09289e-05
2.15945e-05
2.34068e-05
1.91693e-05
2.10332e-05
2.41647e-05
2.523e-05
2.52416e-05
2.25026e-05
2.45672e-05
3.07869e-05
3.46066e-05
2.6816e-05
2.0502e-05
2.07164e-05
2.17679e-05
2.04645e-05
1.87193e-05
1.83639e-05
2.20495e-05
2.35531e-05
2.12887e-05
1.94069e-05
1.80786e-05
2.07517e-05
2.2164e-05
2.18058e-05
2.06548e-05
1.92003e-05
1.9466e-05
2.09463e-05
2.07725e-05
2.10731e-05
2.24772e-05
2.46943e-05
2.7734e-05
2.69261e-05
2.46012e-05
1.96841e-05
1.94082e-05
2.0328e-05
2.10277e-05
2.32352e-05
1.9116e-05
2.22496e-05
2.45098e-05
2.53751e-05
2.53456e-05
2.42274e-05
2.88356e-05
3.1955e-05
3.0554e-05
2.38995e-05
2.19872e-05
2.17274e-05
2.01306e-05
1.88656e-05
1.92145e-05
2.06214e-05
2.2597e-05
2.18836e-05
1.99516e-05
1.89431e-05
1.89186e-05
1.32279e-08
8.36522e-08
9.07985e-09
1.73912e-09
4.59734e-08
3.97672e-08
4.85362e-09
6.00472e-09
1.13019e-09
3.07188e-08
2.92908e-08
2.01219e-09
1.72305e-08
3.07833e-08
1.25528e-08
1.32526e-08
4.95387e-08
9.96366e-09
1.08262e-08
7.32218e-08
1.85024e-08
1.0141e-08
9.94305e-08
2.88708e-08
5.99336e-09
4.43727e-08
5.67992e-08
1.67245e-08
2.62142e-09
4.75736e-08
8.15593e-08
1.1039e-09
5.73331e-09
1.20094e-07
3.93899e-09
4.51113e-09
7.81303e-08
2.60342e-08
1.61358e-08
7.43867e-09
1.19762e-08
3.91752e-08
1.7966e-08
1.66062e-09
1.57142e-08
5.93563e-08
3.00212e-09
2.81182e-09
2.73809e-08
2.65845e-08
5.49895e-09
1.39117e-08
3.31852e-08
3.59491e-09
1.1153e-08
4.48678e-08
4.7138e-09
6.0853e-09
7.03693e-08
5.3954e-09
1.72058e-08
1.50912e-07
2.37898e-08
1.06245e-08
1.33482e-07
3.30058e-08
7.40521e-09
8.92713e-08
8.69562e-09
7.50499e-09
9.07058e-08
2.94439e-09
2.12436e-08
1.30957e-07
2.8611e-09
1.01342e-08
1.39965e-07
2.41108e-09
1.5511e-08
3.54718e-08
9.42084e-09
2.66143e-08
2.05951e-08
1.07136e-09
9.95325e-09
5.56753e-08
2.62159e-09
2.66842e-09
5.1085e-08
1.25905e-08
6.19991e-09
5.66341e-08
2.86913e-08
4.32922e-09
3.15404e-08
6.31586e-08
3.3603e-09
1.19379e-08
1.28349e-07
7.20108e-09
2.1237e-08
3.02724e-07
6.62591e-09
8.13677e-09
2.96885e-07
1.22616e-08
6.17608e-09
1.68963e-07
1.26541e-08
1.81284e-08
7.40868e-08
5.96251e-09
1.13837e-07
7.37775e-08
4.45336e-09
9.70469e-08
1.37634e-07
3.9977e-09
2.43507e-08
5.62732e-08
3.2625e-08
1.72452e-08
2.22034e-08
6.57617e-09
7.48091e-09
4.61127e-08
7.53529e-09
5.65046e-09
5.83004e-08
5.12117e-09
8.68707e-09
1.05194e-07
6.80803e-09
6.39295e-09
6.07791e-08
3.89443e-08
4.38289e-09
6.56398e-08
1.04647e-07
1.21159e-08
9.64135e-08
3.30362e-07
8.31873e-09
2.37219e-08
3.33887e-07
1.2354e-08
3.89833e-08
1.76789e-07
9.69223e-09
9.37185e-08
2.97321e-08
8.34078e-09
2.1017e-07
8.75254e-09
6.43844e-09
2.34397e-07
4.7997e-08
1.45872e-08
5.002e-08
3.67698e-08
8.09522e-08
1.0516e-08
2.2601e-08
2.31567e-08
1.48736e-08
4.98708e-08
1.72843e-08
1.99775e-08
6.80442e-08
4.26664e-09
2.05551e-08
1.31582e-07
3.95881e-09
2.10019e-08
6.76796e-08
2.5098e-08
7.43331e-09
1.13145e-07
4.31314e-08
1.65234e-08
2.61605e-07
1.9588e-07
8.87266e-09
2.14477e-07
1.86178e-07
1.26075e-08
2.24468e-07
6.9695e-08
6.59362e-09
1.91962e-07
1.38488e-08
2.74848e-08
2.35264e-07
3.61598e-09
1.65578e-08
2.88687e-07
9.52723e-09
4.4141e-08
4.45756e-08
1.87431e-08
1.40406e-07
1.33343e-08
3.26346e-08
2.59472e-08
2.5931e-08
7.01836e-08
2.29974e-08
4.26896e-08
8.03402e-08
4.907e-09
8.24429e-08
1.12173e-07
6.80272e-09
1.01022e-07
3.88326e-08
4.68689e-08
3.61622e-08
1.17807e-07
2.60754e-08
2.02624e-08
3.81125e-07
2.37903e-08
5.92915e-09
3.43927e-07
2.20147e-08
1.17349e-08
3.62211e-07
1.96082e-08
1.02275e-08
2.1019e-07
1.54114e-08
1.5344e-07
1.60178e-07
2.18921e-09
1.12623e-07
2.18556e-07
1.11301e-08
1.20687e-07
1.33692e-08
1.49853e-08
1.39234e-07
2.29846e-08
7.87388e-08
1.05341e-08
3.49229e-08
9.59917e-08
3.21511e-08
8.22545e-08
7.07348e-08
7.54245e-09
2.01716e-07
4.78157e-08
9.39827e-09
1.47124e-07
1.95278e-08
1.15371e-07
4.88291e-08
1.19902e-07
2.59555e-08
2.7521e-08
3.97882e-07
1.71801e-08
2.51561e-09
3.27133e-07
1.38905e-08
3.32785e-08
3.22782e-07
1.852e-08
1.10147e-07
1.05189e-07
2.11624e-08
2.71902e-07
3.8208e-08
1.15709e-09
2.20429e-07
7.38851e-08
2.15044e-08
1.80128e-07
9.77062e-09
4.27599e-08
8.47188e-08
4.73965e-08
1.15213e-07
5.37216e-09
4.26e-08
9.78325e-08
6.48947e-08
1.44403e-07
4.67863e-08
1.08813e-08
2.98252e-07
1.87715e-08
2.244e-08
1.0747e-07
2.02306e-08
1.90096e-07
4.63182e-08
1.62071e-07
2.9502e-08
4.74767e-08
3.41992e-07
2.03446e-08
7.81896e-09
2.18895e-07
1.93226e-08
1.48882e-07
1.89257e-07
2.59562e-08
2.01154e-07
1.03488e-08
4.36468e-08
3.01239e-07
2.05347e-08
3.67859e-09
2.34673e-07
2.57044e-08
5.98595e-08
1.67312e-07
1.15632e-08
1.23628e-07
5.89859e-08
1.12108e-07
1.07412e-07
9.65303e-09
4.81302e-08
1.10578e-07
1.27877e-07
1.90085e-07
2.80995e-08
1.216e-08
3.39549e-07
2.01688e-08
1.26589e-07
5.27341e-08
4.11531e-08
2.03507e-07
6.09571e-08
2.24653e-07
3.94922e-08
8.65574e-08
2.72564e-07
2.5979e-08
3.64578e-08
1.34219e-07
4.42199e-08
2.10852e-07
1.2863e-07
6.75239e-08
1.8159e-07
3.98647e-09
1.29524e-07
2.68291e-07
2.97529e-08
1.73409e-08
2.0747e-07
3.0697e-08
1.47922e-07
1.09222e-07
1.53709e-08
1.65093e-07
8.01552e-08
2.07648e-07
9.70194e-08
2.68358e-08
4.55353e-08
1.54122e-07
2.06697e-07
2.25023e-07
2.64128e-08
1.00919e-08
3.32349e-07
3.81768e-08
2.31114e-07
3.41807e-08
9.23265e-08
1.40228e-07
1.34361e-07
2.90553e-07
6.54634e-08
1.41851e-07
2.22628e-07
6.08108e-08
5.36992e-08
1.19425e-07
1.01853e-07
2.25843e-07
1.58019e-07
1.73737e-07
1.14661e-07
3.83339e-09
2.3493e-07
2.60178e-07
5.10682e-08
4.61516e-08
2.10482e-07
5.6022e-08
2.27973e-07
7.34025e-08
2.13837e-08
1.68621e-07
1.50759e-07
2.78186e-07
1.08847e-07
6.66343e-08
5.23276e-08
2.62004e-07
2.70643e-07
2.66424e-07
3.61956e-08
1.15681e-08
3.13063e-07
8.20614e-08
3.00643e-07
3.91603e-08
1.67686e-07
1.08379e-07
2.84018e-07
3.27126e-07
1.13674e-07
1.92572e-07
2.73774e-07
1.6957e-07
6.56994e-08
1.47234e-07
1.57413e-07
2.73209e-07
2.3818e-07
2.87943e-07
8.29926e-08
6.78948e-09
3.13597e-07
2.89495e-07
9.53871e-08
7.69618e-08
2.30364e-07
1.01842e-07
3.03023e-07
8.00191e-08
3.19753e-08
1.70111e-07
2.89249e-07
3.37226e-07
1.54812e-07
1.11937e-07
7.1689e-08
4.21869e-07
3.47512e-07
3.74956e-07
6.3009e-08
2.29467e-08
3.18492e-07
1.96924e-07
3.82679e-07
7.46902e-08
2.14478e-07
1.5876e-07
5.19658e-07
3.85711e-07
2.07572e-07
2.18113e-07
4.10492e-07
3.05037e-07
9.23999e-08
2.12105e-07
2.04788e-07
3.72599e-07
3.40438e-07
3.59414e-07
1.09379e-07
2.35637e-08
3.97996e-07
3.76091e-07
1.32756e-07
1.10093e-07
2.67312e-07
1.79774e-07
3.92185e-07
1.04281e-07
4.74949e-08
1.97176e-07
4.63096e-07
3.55479e-07
2.33256e-07
1.99974e-07
1.28858e-07
5.42397e-07
4.23052e-07
5.48155e-07
1.14931e-07
6.2321e-08
3.2153e-07
3.82917e-07
5.4414e-07
1.80923e-07
2.8045e-07
2.84971e-07
7.89728e-07
5.02484e-07
3.47682e-07
2.66416e-07
6.63479e-07
4.55016e-07
1.28555e-07
3.10568e-07
2.76434e-07
5.34454e-07
5.14699e-07
4.33123e-07
1.84228e-07
8.03317e-08
4.83907e-07
5.35048e-07
1.92652e-07
1.51592e-07
2.77479e-07
2.9439e-07
5.23848e-07
1.53334e-07
7.63949e-08
2.40135e-07
7.51245e-07
4.46381e-07
3.45201e-07
3.56069e-07
2.7799e-07
7.34412e-07
5.70137e-07
8.43525e-07
2.71608e-07
2.13578e-07
4.61936e-07
6.5223e-07
7.89961e-07
4.21587e-07
4.99588e-07
5.65359e-07
1.0875e-06
7.50005e-07
5.64447e-07
3.01698e-07
1.02871e-06
7.53076e-07
2.54718e-07
4.84207e-07
4.05955e-07
6.91565e-07
7.82418e-07
7.65118e-07
4.04447e-07
1.88428e-07
6.57309e-07
6.51478e-07
2.53572e-07
2.49787e-07
2.80675e-07
4.90799e-07
7.13603e-07
2.04971e-07
1.45285e-07
3.38311e-07
1.02826e-06
5.47123e-07
5.38129e-07
6.01685e-07
5.50628e-07
8.80179e-07
8.43286e-07
1.07944e-06
5.59526e-07
6.36869e-07
7.58822e-07
1.11394e-06
1.32373e-06
1.01952e-06
1.27181e-06
1.12222e-06
1.42117e-06
1.10188e-06
1.01901e-06
6.76638e-07
1.44869e-06
1.07485e-06
4.76015e-07
8.46677e-07
7.2204e-07
1.03586e-06
1.0238e-06
1.12066e-06
8.37102e-07
4.66021e-07
8.86547e-07
7.46022e-07
5.00143e-07
5.25759e-07
3.26122e-07
7.53497e-07
8.43151e-07
3.34974e-07
3.89412e-07
4.19441e-07
1.7704e-06
8.9151e-07
1.21631e-06
7.3539e-07
1.07324e-06
1.24381e-06
1.36713e-06
1.46442e-06
5.54019e-07
1.15029e-06
9.25851e-07
1.34982e-06
1.48308e-06
1.51396e-06
2.23621e-06
2.01149e-06
1.84361e-06
1.2502e-06
9.97151e-07
1.00419e-06
2.35864e-06
1.88627e-06
8.20055e-07
9.57085e-07
9.32833e-07
1.73642e-06
2.07244e-06
1.77592e-06
9.68261e-07
8.4896e-07
1.58667e-06
1.03433e-06
8.88212e-07
8.83934e-07
5.80879e-07
1.45901e-06
1.16867e-06
6.50761e-07
7.57277e-07
9.54551e-07
2.11976e-06
1.08091e-06
1.56971e-06
1.16248e-06
1.13103e-06
1.60357e-06
1.10571e-06
2.12008e-06
9.15208e-07
9.75809e-07
8.68771e-07
2.81773e-06
2.83464e-06
1.23761e-06
1.37314e-06
1.77415e-06
2.08934e-06
1.14213e-06
2.75039e-07
3.71056e-07
2.23176e-06
2.59881e-06
1.49199e-06
9.32438e-07
6.52795e-07
1.67636e-06
3.04444e-06
2.95683e-06
1.70295e-06
1.14178e-06
2.01948e-06
1.60591e-06
1.37956e-06
1.28021e-06
8.85033e-07
1.69979e-06
1.04499e-06
1.24982e-06
1.32141e-06
1.41592e-06
1.79143e-06
2.59843e-06
2.50399e-06
3.15327e-06
1.86895e-06
1.75751e-06
2.04733e-06
3.70301e-06
3.5617e-06
1.55388e-06
1.68634e-06
5.45502e-06
6.54051e-06
2.5504e-06
2.71318e-06
3.13644e-06
3.65642e-06
2.30964e-06
2.44087e-06
3.40855e-06
3.26982e-06
3.15628e-06
2.4933e-06
2.06781e-06
2.21967e-06
3.22484e-06
2.3372e-06
2.6684e-06
2.85536e-06
1.86256e-06
2.72913e-06
2.11025e-06
1.58427e-06
1.06377e-06
1.06822e-06
2.04307e-06
1.79906e-06
1.38493e-06
2.89337e-06
1.97117e-06
2.30216e-06
4.52162e-06
3.86788e-06
3.50395e-06
2.7472e-06
7.40622e-07
3.04407e-06
4.4819e-06
4.90223e-06
3.97275e-06
3.08873e-06
6.36716e-06
7.81223e-06
5.76068e-06
5.49867e-06
4.31433e-06
4.98303e-06
3.98815e-06
3.28304e-06
3.87417e-06
4.37971e-06
3.94967e-06
3.35851e-06
2.33045e-06
2.40894e-06
4.83155e-06
4.68644e-06
3.42375e-06
1.82157e-06
1.75105e-06
4.24846e-06
3.91765e-06
1.18192e-06
1.13277e-06
7.30923e-07
2.32445e-06
2.49415e-06
1.78906e-06
2.42544e-06
2.04834e-06
4.04969e-06
5.15758e-06
3.2974e-06
1.48983e-06
2.07454e-06
3.48151e-06
5.58081e-06
4.68667e-06
1.76836e-06
2.42797e-06
3.20718e-06
6.27832e-06
5.5877e-06
5.25475e-06
4.9516e-06
3.97422e-06
4.4231e-06
3.90461e-06
3.70348e-06
5.03345e-06
4.03052e-06
3.64632e-06
2.85874e-06
1.35797e-06
1.90484e-06
2.57617e-06
5.90607e-06
5.58177e-06
2.94898e-06
2.44874e-06
3.71879e-06
4.01793e-06
2.01237e-06
2.37408e-06
3.6446e-06
4.20733e-06
3.66766e-06
3.03542e-06
2.09038e-06
1.81027e-06
4.15575e-06
4.42436e-06
3.19602e-06
2.34114e-06
3.34278e-06
4.77225e-06
5.03094e-06
6.11174e-06
3.90111e-06
1.77088e-06
3.2826e-06
6.21582e-06
6.22171e-06
3.0945e-06
3.55473e-06
4.15017e-06
5.46282e-06
3.23882e-06
2.87708e-06
6.07861e-06
5.01459e-06
3.45601e-06
1.78896e-06
2.197e-06
1.9588e-06
3.76732e-06
3.93303e-06
6.3058e-06
2.82999e-06
4.05883e-06
2.38608e-06
4.97282e-06
4.49883e-06
2.50662e-06
4.25287e-06
5.91797e-06
3.16948e-06
3.64973e-06
3.04134e-06
3.81117e-06
3.14889e-06
3.28724e-06
3.41556e-06
3.43467e-06
6.03398e-06
4.56586e-06
4.35336e-06
4.38039e-06
2.66509e-06
2.3831e-06
3.96893e-06
5.61824e-06
4.56179e-06
1.93649e-06
3.10109e-06
5.72143e-06
6.29083e-06
1.95159e-06
1.79775e-06
4.92136e-06
5.13794e-06
3.8688e-06
2.32124e-06
2.39262e-06
1.9487e-06
5.47166e-06
4.31543e-06
4.77261e-06
2.00889e-06
2.20336e-06
5.11848e-06
6.16693e-06
4.22897e-06
3.03987e-06
2.2444e-06
3.76053e-06
4.63722e-06
4.0104e-06
2.66228e-06
3.59472e-06
2.32766e-06
2.52631e-06
1.46803e-06
5.53434e-06
6.96302e-06
3.12555e-06
3.92421e-06
1.51605e-06
1.56183e-06
3.23291e-06
2.9354e-06
4.40546e-06
1.52922e-06
1.65526e-06
3.49784e-06
5.7973e-06
3.47859e-06
1.81964e-06
1.98193e-06
3.50739e-06
4.67118e-06
2.91129e-06
2.88203e-06
2.08582e-06
3.1762e-06
5.19563e-06
4.71377e-06
2.65367e-06
2.7717e-06
4.89282e-06
5.5102e-06
3.72426e-06
3.45973e-06
3.30228e-06
1.11375e-06
3.72639e-06
2.82533e-06
3.88003e-06
2.04679e-06
3.82868e-06
2.33483e-06
7.17726e-06
5.98794e-06
7.13307e-06
5.77787e-06
4.23387e-06
5.02505e-06
2.95518e-06
3.35668e-06
3.67862e-06
2.60181e-06
3.76836e-06
3.05152e-06
2.65523e-06
3.80716e-06
5.24177e-06
4.8416e-06
3.89828e-06
1.81483e-06
5.08783e-06
5.38601e-06
2.98192e-06
3.00854e-06
4.6012e-06
3.7214e-06
4.86395e-06
3.94172e-06
4.81405e-06
5.93889e-06
7.08945e-06
7.71073e-06
7.13267e-06
4.57971e-06
3.8783e-06
1.18508e-06
3.68535e-06
4.66276e-06
4.10213e-06
2.16118e-06
4.14565e-06
7.3371e-06
1.08432e-05
7.51596e-06
7.08391e-06
4.17751e-06
5.29009e-06
6.90474e-06
3.65273e-06
4.49687e-06
2.51352e-06
3.50738e-06
4.01376e-06
5.15402e-06
3.61707e-06
5.16368e-06
5.05798e-06
7.42552e-06
3.53016e-06
3.99234e-06
8.89775e-06
5.14889e-06
3.26316e-06
8.0827e-06
7.11978e-06
4.05421e-06
5.7665e-06
4.81103e-06
8.68705e-06
1.31296e-05
1.23077e-05
1.18743e-05
9.87066e-06
5.81073e-06
4.35224e-06
3.07861e-06
4.95054e-06
6.61111e-06
3.16706e-06
2.11546e-06
2.62536e-06
1.46258e-05
8.52294e-06
4.93771e-06
7.89754e-06
5.23759e-06
4.2792e-06
5.81236e-06
7.34268e-06
6.58712e-06
2.98972e-06
4.51302e-06
8.36935e-06
1.29758e-05
8.52136e-06
9.09519e-06
4.5256e-06
5.69001e-06
3.91876e-06
8.02662e-06
5.65404e-06
7.73e-06
1.04923e-05
1.45643e-05
6.958e-06
5.71524e-06
8.94508e-06
7.98767e-06
1.76844e-05
2.24626e-05
1.68897e-05
1.27342e-05
8.18923e-06
8.3603e-06
3.93458e-06
6.43218e-06
6.83082e-06
5.67133e-06
3.31533e-06
3.63718e-06
6.6675e-06
1.80604e-05
6.04076e-06
1.25518e-05
6.4819e-06
7.33489e-06
6.65279e-06
1.22943e-05
1.94857e-05
5.91278e-06
2.46654e-06
9.57739e-06
2.29633e-05
2.40209e-05
1.43635e-05
1.34553e-05
5.12582e-06
4.25502e-06
9.20576e-06
1.45174e-05
5.91288e-06
7.85072e-06
2.39188e-05
1.19199e-05
7.81975e-06
1.23398e-05
1.3773e-05
1.61929e-05
2.76254e-05
2.21169e-05
1.60709e-05
1.28935e-05
7.09723e-06
1.17909e-05
5.43561e-06
6.65861e-06
9.54851e-06
4.75917e-06
7.6653e-06
8.53134e-06
1.86546e-05
1.405e-05
1.31728e-05
2.11852e-05
6.6883e-06
7.87529e-06
2.01322e-05
2.65901e-05
2.36909e-05
5.86473e-06
1.70632e-05
2.91791e-05
3.42792e-05
2.34348e-05
1.87878e-05
2.04235e-05
9.79826e-06
1.58788e-05
2.0653e-05
1.23211e-05
7.02084e-06
2.86126e-05
2.34923e-05
1.02394e-05
1.83987e-05
2.16112e-05
1.99306e-05
2.68058e-05
2.82992e-05
1.53324e-05
1.63512e-05
1.3109e-05
8.93493e-06
1.27869e-05
9.61286e-06
1.85763e-05
1.1178e-05
7.83537e-06
2.03672e-05
1.98503e-05
3.00801e-05
1.51457e-05
2.45276e-05
1.81965e-05
9.02877e-06
3.04512e-05
3.30046e-05
2.9479e-05
1.8252e-05
1.99942e-05
3.7769e-05
3.78142e-05
2.99962e-05
1.84584e-05
2.54758e-05
2.42913e-05
2.18617e-05
3.08268e-05
2.64153e-05
1.43336e-05
2.84927e-05
4.00607e-05
1.73322e-05
2.12198e-05
2.97297e-05
2.63168e-05
2.44817e-05
2.95668e-05
2.25983e-05
1.36231e-05
1.69917e-05
1.29098e-05
1.57121e-05
1.67302e-05
2.08431e-05
3.4201e-05
1.25879e-05
2.43843e-05
3.14588e-05
2.88414e-05
3.02517e-05
2.27593e-05
3.07405e-05
2.005e-05
3.39563e-05
4.31417e-05
3.21462e-05
2.51087e-05
2.25922e-05
3.75119e-05
4.04746e-05
3.20129e-05
2.24027e-05
1.95364e-05
2.96038e-05
2.65879e-05
3.29451e-05
3.49172e-05
2.92523e-05
2.93962e-05
4.58604e-05
3.46523e-05
1.85608e-05
3.14711e-05
2.95587e-05
2.59241e-05
2.45617e-05
2.66587e-05
1.8624e-05
1.53098e-05