/*--------------------------------*- C++ -*----------------------------------*\
  =========                 |
  \\      /  F ield         | OpenFOAM: The Open Source CFD Toolbox
   \\    /   O peration     | Website:  https://openfoam.org
    \\  /    A nd           | Version:  10
     \\/     M anipulation  |
\*---------------------------------------------------------------------------*/
FoamFile
{
    format      ascii;
    class       surfaceScalarField;
    location    "4";
    object      phi;
}
// * * * * * * * * * * * * * * * * * * * * * * * * * * * * * * * * * * * * * //

dimensions      [0 3 -1 0 0 0 0];

internalField   nonuniform List<scalar> 
74080
(
0.000636047
-1.01367e-08
5.32021e-09
0.000636118
-8.58096e-08
-2.45466e-08
0.000636177
-6.11624e-08
-2.20697e-08
0.000636192
2.90455e-09
-2.31874e-09
0.00063617
5.20783e-08
1.26385e-08
0.000636136
6.29025e-08
2.04821e-08
0.000636104
6.05175e-08
1.82406e-08
0.000636086
3.73454e-08
1.59628e-08
0.000636072
3.74345e-08
1.22463e-08
0.000636065
2.99265e-08
1.18588e-08
0.000636055
3.26206e-08
1.13063e-08
0.000636048
2.7589e-08
1.09401e-08
0.000636048
1.49999e-08
1.13633e-08
0.000636047
1.13708e-08
9.51349e-09
0.000636049
3.01805e-09
8.92564e-09
0.000636049
5.55201e-09
6.12049e-09
0.000636053
-5.01037e-09
7.88084e-09
0.00063606
-1.15302e-08
7.83902e-09
0.000636069
-1.89125e-08
9.13329e-09
0.000636077
-1.89274e-08
7.5952e-09
0.000636081
-1.65704e-08
5.7808e-09
0.000636085
-1.63302e-08
4.42739e-09
0.000636091
-1.98168e-08
6.68628e-10
0.000636096
-1.60656e-08
-9.65201e-11
0.0006361
-1.54107e-08
-2.69762e-09
0.000636099
-6.18869e-09
-1.58344e-09
0.000636098
-7.50205e-09
4.95936e-11
0.000636101
-1.20802e-08
4.89784e-09
0.0006361
-6.62578e-09
1.04075e-08
0.000636098
-5.10833e-09
1.75345e-08
0.000636097
-1.80488e-09
1.94841e-08
0.000636084
9.6625e-09
3.03016e-08
0.000636101
-3.24648e-08
2.08921e-08
0.000636071
1.86476e-08
4.6376e-08
0.000636103
-5.04381e-08
1.25619e-08
0.000636092
-1.84511e-08
3.20499e-08
0.000636046
4.70706e-08
4.38258e-08
0.00063612
-1.0639e-07
-1.69906e-08
0.000636093
-6.30492e-09
3.56314e-08
7.25095e-08
4.15383e-08
0.00058451
3.13342e-09
-7.71363e-09
0.000584461
-1.10021e-08
5.94643e-09
0.000584423
-3.08573e-09
2.78133e-09
0.000584427
1.05628e-08
-2.24823e-09
0.000584445
3.8389e-08
-5.51363e-09
0.000584458
4.54426e-08
2.18103e-09
0.000584456
5.68489e-08
3.94864e-09
0.000584461
2.55132e-08
6.39944e-09
0.000584454
4.03921e-08
5.80691e-09
0.00058445
3.35508e-08
9.11432e-09
0.000584438
4.8262e-08
9.41604e-09
0.000584428
4.05366e-08
1.08551e-08
0.00058443
1.61817e-08
1.19551e-08
0.000584429
1.45266e-08
1.00351e-08
0.000584433
4.47628e-09
9.05201e-09
0.000584429
1.7126e-08
6.24182e-09
0.000584432
-1.4545e-09
1.00776e-08
0.00058444
-1.46685e-08
9.84162e-09
0.00058445
-2.78957e-08
1.29758e-08
0.000584459
-2.2781e-08
1.15645e-08
0.000584462
-1.23251e-08
9.88465e-09
0.000584464
-1.14162e-08
9.29376e-09
0.000584472
-2.14134e-08
3.64517e-09
0.000584477
-1.74862e-08
4.76309e-09
0.000584481
-1.39937e-08
2.75446e-10
0.000584478
3.32972e-09
1.08595e-09
0.000584476
-8.74398e-10
1.20365e-09
0.000584482
-1.74595e-08
6.93963e-09
0.000584481
-5.36777e-09
1.19782e-08
0.000584482
-6.61731e-09
1.87254e-08
0.000584469
1.76483e-08
2.21508e-08
0.000584471
7.96576e-09
2.71012e-08
0.000584458
-1.31364e-08
3.14562e-08
0.000584476
-1.03275e-08
3.52538e-08
0.000584467
-2.7976e-08
2.36285e-08
0.000584451
-9.81915e-09
3.71157e-08
0.000584491
6.57956e-09
1.67855e-08
0.000584453
-4.22978e-08
1.21223e-08
0.000584435
-1.44692e-08
4.53767e-08
1.39537e-08
5.74331e-09
0.000532182
2.094e-08
-5.13124e-09
0.000532153
1.64635e-08
2.04635e-08
0.000532134
1.20694e-08
1.03884e-08
0.000532142
8.96643e-09
-3.6869e-09
0.00053215
4.55053e-08
-1.75209e-08
0.000532153
5.05621e-08
-9.16881e-09
0.000532141
7.27332e-08
-6.65024e-09
0.000532153
1.06291e-08
-8.45176e-10
0.000532149
4.46998e-08
-4.3644e-10
0.000532146
3.68591e-08
7.81269e-09
0.000532128
7.16322e-08
8.72205e-09
0.000532115
5.83887e-08
1.11791e-08
0.000532121
1.14389e-08
1.35769e-08
0.000532123
1.43864e-08
1.01099e-08
0.000532127
5.38385e-09
9.00119e-09
0.000532117
3.70446e-08
5.313e-09
0.000532118
4.75788e-09
1.31238e-08
0.000532128
-2.00045e-08
1.1842e-08
0.000532145
-4.3584e-08
1.81174e-08
0.000532154
-2.49002e-08
1.62615e-08
0.000532153
-1.41667e-09
1.48107e-08
0.000532153
-1.12502e-11
1.53656e-08
0.000532164
-2.56524e-08
6.26474e-09
0.000532172
-2.11075e-08
1.00096e-08
0.000532176
-9.38073e-09
1.62086e-09
0.000532167
2.19153e-08
2.96673e-09
0.000532163
1.05433e-08
1.38507e-09
0.000532175
-2.92306e-08
9.32595e-09
0.000532176
-5.7693e-09
1.48381e-08
0.000532179
-6.05726e-09
2.21791e-08
0.000532157
4.81755e-08
2.77424e-08
0.000532155
1.86223e-08
2.93989e-08
0.000532147
-7.17989e-09
4.3618e-08
0.000532164
-2.55339e-08
3.38945e-08
0.000532164
-2.17741e-08
3.26497e-08
0.000532146
-6.0679e-11
3.91199e-08
0.000532166
9.28479e-09
9.34763e-09
0.000532153
-3.19851e-08
2.78377e-08
0.000532145
-3.01207e-08
4.34976e-08
1.21518e-08
-6.06842e-09
0.00048438
4.53677e-08
-6.42309e-09
0.000484347
4.90861e-08
2.10703e-08
0.000484334
2.27075e-08
5.69325e-09
0.000484348
4.0373e-10
-6.98194e-09
0.000484352
5.92735e-08
-2.62539e-08
0.000484349
6.1828e-08
-1.28892e-08
0.000484328
1.00679e-07
-1.25582e-08
0.000484355
-2.15975e-08
-3.38831e-09
0.000484352
4.60499e-08
-4.04629e-09
0.000484351
4.05735e-08
8.90853e-09
0.00048432
1.07989e-07
1.05613e-08
0.000484301
8.43822e-08
1.27302e-08
0.000484316
-4.1564e-09
1.61403e-08
0.000484325
8.47877e-09
8.93784e-09
0.000484329
6.59735e-09
7.80868e-09
0.000484307
6.99726e-08
2.92172e-09
0.000484304
1.5478e-08
1.69035e-08
0.000484321
-3.06855e-08
1.29768e-08
0.000484348
-7.16348e-08
2.42799e-08
0.000484357
-2.34123e-08
2.14669e-08
0.000484349
2.01586e-08
2.14975e-08
0.000484342
2.23043e-08
2.32482e-08
0.000484361
-3.59673e-08
7.88886e-09
0.000484375
-2.97764e-08
1.64756e-08
0.000484378
1.45527e-09
2.29673e-09
0.000484358
5.45329e-08
4.91962e-09
0.00048435
2.91946e-08
3.58754e-10
0.000484373
-5.39038e-08
1.20541e-08
0.00048438
-9.9966e-09
1.83478e-08
0.000484385
-3.67392e-09
2.82077e-08
0.000484347
1.00744e-07
3.49352e-08
0.000484341
3.67107e-08
3.73331e-08
0.000484336
-4.29998e-09
5.60895e-08
0.000484364
-5.10046e-08
4.0955e-08
0.000484365
-1.40227e-08
3.91395e-08
0.00048434
1.83488e-08
4.00749e-08
0.000484354
2.04906e-08
1.35058e-08
0.00048435
-3.30831e-08
2.9871e-08
0.000484354
-5.72802e-08
4.27775e-08
1.8161e-08
-3.85043e-09
0.000440833
8.00718e-08
-7.70774e-09
0.000440795
8.83308e-08
2.16162e-08
0.000440794
1.98357e-08
-1.16637e-09
0.000440821
-2.052e-08
-1.08479e-08
0.000440818
8.39452e-08
-3.70517e-08
0.000440805
8.36442e-08
-1.38695e-08
0.000440769
1.46522e-07
-1.7302e-08
0.000440818
-8.03892e-08
-4.57186e-09
0.00044082
4.30421e-08
-7.8705e-09
0.000440819
4.69188e-08
1.29554e-08
0.000440771
1.63683e-07
1.40872e-08
0.000440741
1.21703e-07
1.55119e-08
0.000440773
-3.88294e-08
1.97751e-08
0.000440792
-6.74005e-09
5.55811e-09
0.000440794
1.02962e-08
4.83581e-09
0.000440756
1.21729e-07
-1.39546e-09
0.000440745
3.36259e-08
2.2068e-08
0.000440774
-5.17471e-08
1.27857e-08
0.000440819
-1.19415e-07
3.19733e-08
0.000440825
-1.47152e-08
2.72521e-08
0.000440804
5.84286e-08
3.10529e-08
0.000440785
6.10616e-08
3.37403e-08
0.000440819
-5.8663e-08
8.02477e-09
0.000440844
-4.7502e-08
2.50026e-08
0.000440841
2.4307e-08
2.34403e-09
0.000440806
1.07589e-07
7.53516e-09
0.00044079
5.82564e-08
-3.37192e-09
0.000440834
-1.01497e-07
1.55494e-08
0.000440851
-2.2089e-08
2.24771e-08
0.000440856
3.35097e-09
3.70862e-08
0.000440794
1.84593e-07
4.53827e-08
0.000440779
6.59002e-08
4.91054e-08
0.000440786
-1.16657e-08
7.34623e-08
0.000440828
-9.12031e-08
5.05224e-08
0.00044083
-2.04984e-09
4.62888e-08
0.000440795
4.69219e-08
4.06149e-08
0.000440793
4.87431e-08
2.01826e-08
0.000440807
-5.49768e-08
2.91422e-08
0.000440829
-1.01612e-07
4.06735e-08
3.82536e-08
1.11111e-09
0.000401175
1.28245e-07
-1.00625e-08
0.000401123
1.44986e-07
2.17436e-08
0.00040114
7.6848e-10
-1.05261e-08
0.000401183
-5.69119e-08
-1.62154e-08
0.000401173
1.23262e-07
-5.08664e-08
0.000401143
1.17642e-07
-1.05629e-08
0.000401088
2.14826e-07
-2.03844e-08
0.000401174
-1.81261e-07
-3.98414e-09
0.000401185
3.34843e-08
-1.21097e-08
0.00040118
6.12707e-08
2.03971e-08
0.000401105
2.46354e-07
1.98794e-08
0.00040106
1.73762e-07
1.91831e-08
0.000401121
-1.04969e-07
2.50203e-08
0.000401156
-3.44011e-08
-1.30404e-09
0.000401151
2.08954e-08
-1.15249e-09
0.00040109
1.99457e-07
-9.1985e-09
0.000401065
6.29627e-08
2.8996e-08
0.000401115
-9.14794e-08
1.05599e-08
0.000401185
-1.95955e-07
4.09217e-08
0.000401185
7.13084e-09
3.37138e-08
0.000401145
1.19333e-07
4.50979e-08
0.000401107
1.22739e-07
4.75584e-08
0.000401167
-1.04009e-07
5.85351e-09
0.000401208
-7.91363e-08
3.65318e-08
0.000401194
6.86124e-08
2.20308e-09
0.000401137
1.88382e-07
1.13263e-08
0.000401109
9.96328e-08
-9.47626e-09
0.000401186
-1.86657e-07
1.96924e-08
0.000401219
-4.62293e-08
2.71301e-08
0.000401219
2.06909e-08
4.90054e-08
0.000401123
3.11617e-07
5.99149e-08
0.000401097
1.07506e-07
6.5158e-08
0.000401121
-3.70573e-08
9.6706e-08
0.000401189
-1.55761e-07
6.26793e-08
0.000401185
2.14907e-08
5.27151e-08
0.000401134
8.91662e-08
4.10427e-08
0.000401113
9.45221e-08
2.89729e-08
0.000401152
-1.02707e-07
2.42482e-08
0.000401198
-1.69701e-07
3.69552e-08
7.42978e-08
7.03243e-09
0.00036506
1.90504e-07
-1.23665e-08
0.000364986
2.23875e-07
2.27239e-08
0.000365032
-4.80063e-08
-2.16069e-08
0.000365095
-1.12733e-07
-2.32781e-08
0.000365074
1.84836e-07
-6.77267e-08
0.000365023
1.65533e-07
2.60016e-10
0.00036494
3.11433e-07
-2.14663e-08
0.000365079
-3.4193e-07
-2.20884e-09
0.000365103
1.6895e-08
-1.70952e-08
0.00036509
9.402e-08
3.13305e-08
0.000364979
3.63675e-07
2.87681e-08
0.000364913
2.42131e-07
2.35682e-08
0.000365017
-2.20017e-07
3.24462e-08
0.000365073
-7.89817e-08
-9.40902e-09
0.000365057
4.80673e-08
-1.34502e-08
0.000364966
3.07677e-07
-1.78681e-08
0.000364918
1.07555e-07
3.83834e-08
0.000365003
-1.62338e-07
5.79568e-09
0.000365107
-3.10631e-07
5.17318e-08
0.000365094
5.27183e-08
4.06405e-08
0.000365028
2.07596e-07
6.64618e-08
0.000364961
2.13403e-07
6.51102e-08
0.000365063
-1.86061e-07
-3.02619e-10
0.000365126
-1.29556e-07
5.20137e-08
0.000365093
1.49232e-07
2.53254e-09
0.000365005
3.03912e-07
1.7197e-08
0.000364961
1.53685e-07
-1.87462e-08
0.000365087
-3.28983e-07
2.53881e-08
0.000365144
-8.68407e-08
3.25781e-08
0.000365132
5.89229e-08
6.45633e-08
0.000364992
4.92951e-07
8.03087e-08
0.000364948
1.62335e-07
8.60721e-08
0.000365002
-9.51206e-08
1.27373e-07
0.000365103
-2.5069e-07
7.67883e-08
0.000365087
6.61054e-08
5.68412e-08
0.000365016
1.44435e-07
4.26514e-08
0.000364965
1.63263e-07
3.99016e-08
0.000365043
-1.89849e-07
1.42503e-08
0.000365121
-2.66017e-07
2.99098e-08
1.34759e-07
1.58812e-08
0.000332173
2.66549e-07
-1.1772e-08
0.000332069
3.26922e-07
2.51793e-08
0.000332158
-1.45824e-07
-3.28574e-08
0.000332247
-1.87893e-07
-3.19622e-08
0.000332208
2.81743e-07
-8.8147e-08
0.000332128
2.32001e-07
1.56248e-08
0.00033201
4.39009e-07
-1.86465e-08
0.000332221
-5.85078e-07
2.14351e-09
0.000332264
-3.45077e-09
-2.26994e-08
0.000332234
1.63134e-07
4.56364e-08
0.000332077
5.20893e-07
4.14863e-08
0.000331984
3.24111e-07
2.79678e-08
0.00033215
-4.07741e-07
4.43076e-08
0.000332232
-1.41954e-07
-2.14723e-08
0.000332196
1.08012e-07
-3.28567e-08
0.00033207
4.513e-07
-2.49109e-08
0.000331988
1.69461e-07
5.07079e-08
0.000332126
-2.82304e-07
-1.17461e-09
0.000332274
-4.71144e-07
6.424e-08
0.000332237
1.38012e-07
4.8208e-08
0.000332139
3.24543e-07
9.88749e-08
0.000332034
3.35547e-07
8.69714e-08
0.000332196
-3.26898e-07
-7.40302e-09
0.000332288
-2.02317e-07
7.27848e-08
0.000332223
2.88454e-07
4.25727e-09
0.000332096
4.59234e-07
2.64484e-08
0.000332032
2.1614e-07
-3.29334e-08
0.000332226
-5.5296e-07
3.31524e-08
0.000332315
-1.45755e-07
3.96206e-08
0.00033228
1.35042e-07
8.4547e-08
0.000332085
7.3728e-07
1.09432e-07
0.000332016
2.2666e-07
1.12261e-07
0.000332118
-2.06829e-07
1.67012e-07
0.000332259
-3.78825e-07
9.3564e-08
0.000332223
1.45947e-07
5.63656e-08
0.000332126
2.07418e-07
4.88508e-08
0.000332036
2.55095e-07
5.33682e-08
0.00033217
-3.38241e-07
-1.38646e-09
0.000332284
-3.92119e-07
1.89409e-08
2.32009e-07
2.9118e-08
0.000302228
3.46612e-07
-7.37681e-10
0.000302086
4.44384e-07
3.10593e-08
0.000302234
-3.19828e-07
-4.19181e-08
0.000302352
-2.74747e-07
-4.23261e-08
0.000302288
4.33853e-07
-1.11599e-07
0.000302172
3.15261e-07
4.50228e-08
0.000302014
5.93802e-07
-1.19548e-08
0.000302316
-9.40543e-07
1.13225e-08
0.000302383
-2.51173e-08
-2.84029e-08
0.000302323
2.9695e-07
6.28183e-08
0.000302112
7.18315e-07
5.98069e-08
0.000301988
4.07878e-07
3.18205e-08
0.000302237
-6.99657e-07
6.444e-08
0.00030235
-2.20723e-07
-3.59459e-08
0.000302282
2.25767e-07
-6.13212e-08
0.000302115
6.26017e-07
-2.47854e-08
0.000301989
2.43231e-07
6.69189e-08
0.0003022
-4.79325e-07
-5.38546e-09
0.000302399
-6.81167e-07
7.94303e-08
0.000302328
2.86778e-07
5.66997e-08
0.00030219
4.64386e-07
1.47796e-07
0.000302037
4.84205e-07
1.13115e-07
0.000302283
-5.51972e-07
-1.74647e-08
0.000302409
-2.9705e-07
1.00579e-07
0.000302296
5.19373e-07
7.95368e-09
0.000302122
6.54194e-07
4.12895e-08
0.000302036
2.72512e-07
-5.17431e-08
0.000302319
-8.93298e-07
4.49125e-08
0.000302447
-2.20875e-07
4.98847e-08
0.000302374
2.75732e-07
1.09381e-07
0.000302115
1.04692e-06
1.51497e-07
0.000302014
2.88975e-07
1.44136e-07
0.000302184
-3.99363e-07
2.17546e-07
0.000302372
-5.35855e-07
1.13588e-07
0.000302304
2.81498e-07
4.91935e-08
0.000302178
2.64554e-07
6.46291e-08
0.00030204
3.62381e-07
7.11454e-08
0.000302246
-5.81325e-07
-1.50554e-08
0.000302403
-5.43091e-07
3.3475e-09
3.84551e-07
5.00231e-08
0.000274962
4.16824e-07
1.96889e-08
0.000274776
5.56611e-07
4.23051e-08
0.000275004
-6.07486e-07
-4.52902e-08
0.000275149
-3.56728e-07
-5.23064e-08
0.000275052
6.7016e-07
-1.37694e-07
0.000274891
4.02414e-07
9.6656e-08
0.000274691
7.59167e-07
-5.91542e-11
0.000275107
-1.44096e-06
2.38172e-08
0.0002752
-3.33062e-08
-3.21446e-08
0.000275093
5.40031e-07
8.04492e-08
0.000274821
9.47171e-07
8.66243e-08
0.000274664
4.67597e-07
3.43078e-08
0.00027502
-1.13708e-06
9.81368e-08
0.000275166
-3.05113e-07
-5.1643e-08
0.00027505
4.39429e-07
-1.01582e-07
0.000274839
8.16028e-07
-6.68501e-09
0.00027466
3.11309e-07
8.55813e-08
0.000274968
-7.92484e-07
-6.43328e-09
0.000275221
-9.35847e-07
9.94838e-08
0.000275101
5.33419e-07
6.75017e-08
0.00027492
6.08629e-07
2.21158e-07
0.000274711
6.38472e-07
1.44418e-07
0.000275065
-9.03714e-07
-2.92165e-08
0.000275227
-4.07559e-07
1.39499e-07
0.000275047
8.88933e-07
1.45003e-08
0.00027482
8.80008e-07
6.52022e-08
0.000274712
2.89887e-07
-7.5052e-08
0.000275108
-1.39321e-06
6.37738e-08
0.00027528
-3.0251e-07
6.77029e-08
0.000275148
5.21445e-07
1.40668e-07
0.00027482
1.4137e-06
2.14161e-07
0.000274684
3.19421e-07
1.83048e-07
0.000274944
-7.08594e-07
2.81264e-07
0.000275179
-7.05267e-07
1.39911e-07
0.000275065
5.04466e-07
3.31392e-08
0.00027491
2.95678e-07
1.00053e-07
0.000274716
4.58878e-07
9.68231e-08
0.000275018
-9.5699e-07
-2.99786e-08
0.000275215
-7.08011e-07
-8.53177e-09
6.21908e-07
8.0808e-08
0.000250133
4.45259e-07
6.37783e-08
0.000249906
6.09951e-07
6.30377e-08
0.000250232
-1.05684e-06
-3.79977e-08
0.0002504
-4.0489e-07
-5.95351e-08
0.000250258
1.05468e-06
-1.66367e-07
0.000250046
4.64898e-07
1.81194e-07
0.000249807
8.94115e-07
2.01211e-08
0.000250356
-2.1258e-06
4.06508e-08
0.000250477
1.57792e-10
-3.00757e-08
0.000250299
9.61328e-07
9.58396e-08
0.000249962
1.18552e-06
1.25177e-07
0.000249778
4.47628e-07
3.28758e-08
0.000250263
-1.77099e-06
1.52776e-07
0.00025044
-3.72815e-07
-6.35982e-08
0.000250258
8.17245e-07
-1.55933e-07
0.000250001
1.00259e-06
2.83866e-08
0.000249766
3.29743e-07
1.07114e-07
0.000250195
-1.2788e-06
7.12554e-10
0.000250501
-1.21857e-06
1.28901e-07
0.000250316
9.30081e-07
8.12525e-08
0.000250088
7.22228e-07
3.28325e-07
0.000249821
7.59851e-07
1.74966e-07
0.00025031
-1.43036e-06
-3.98604e-08
0.000250505
-5.15532e-07
1.93865e-07
0.000250235
1.4667e-06
2.33639e-08
0.000249949
1.11306e-06
1.04656e-07
0.000249826
2.06564e-07
-9.94317e-08
0.000250357
-2.10347e-06
9.32784e-08
0.000250574
-3.65303e-07
9.72153e-08
0.000250361
9.32262e-07
1.78359e-07
0.000249959
1.81425e-06
3.05814e-07
0.00024979
2.57576e-07
2.30579e-07
0.000250163
-1.17776e-06
3.61629e-07
0.000250442
-8.54779e-07
1.77137e-07
0.000250264
8.62996e-07
7.15422e-09
0.00025008
2.60585e-07
1.65829e-07
0.000249831
4.95755e-07
1.29567e-07
0.000250248
-1.50992e-06
-4.302e-08
0.00025048
-8.57659e-07
-1.33632e-08
9.89616e-07
1.25519e-07
0.000227523
3.8014e-07
1.4713e-07
0.000227264
5.01791e-07
9.91232e-08
0.000227705
-1.73002e-06
-1.48332e-08
0.000227887
-3.6254e-07
-5.85024e-08
0.000227683
1.66974e-06
-1.98669e-07
0.000227416
4.51872e-07
3.13592e-07
0.000227148
9.24592e-07
4.91302e-08
0.00022785
-3.0441e-06
6.54103e-08
0.000227995
1.2124e-07
-1.73957e-08
0.000227719
1.66081e-06
1.03984e-07
0.000227315
1.39834e-06
1.83025e-07
0.000227119
2.59239e-07
2.38454e-08
0.000227753
-2.6799e-06
2.36542e-07
0.000227956
-3.80393e-07
-6.66242e-08
0.000227682
1.45541e-06
-2.26981e-07
0.000227378
1.14463e-06
1.00132e-07
0.000227096
2.14619e-07
1.31801e-07
0.000227668
-2.01811e-06
3.23325e-08
0.000228019
-1.49022e-06
1.7385e-07
0.000227749
1.5501e-06
1.00704e-07
0.000227473
7.43798e-07
4.82538e-07
0.000227156
7.72873e-07
2.04622e-07
0.000227804
-2.19595e-06
-4.38308e-08
0.000228026
-5.86998e-07
2.70374e-07
0.000227636
2.3514e-06
3.33561e-08
0.000227289
1.30439e-06
1.68006e-07
0.000227168
-8.1601e-08
-1.22385e-07
0.000227853
-3.08869e-06
1.37411e-07
0.000228111
-3.66549e-07
1.47709e-07
0.000227786
1.59989e-06
2.22638e-07
0.000227312
2.20524e-06
4.40863e-07
0.000227123
2.25061e-08
2.83488e-07
0.000227627
-1.86163e-06
4.62587e-07
0.000227941
-9.28373e-07
2.2976e-07
0.000227679
1.4436e-06
-4.4881e-08
0.000227467
9.60037e-08
2.79035e-07
0.000227176
3.76897e-07
1.76274e-07
0.000227725
-2.29467e-06
-4.91089e-08
0.000227982
-9.38385e-07
-6.93079e-09
1.55889e-06
1.87034e-07
0.000206926
1.42713e-07
2.88431e-07
0.000206661
8.0821e-08
1.52889e-07
0.000207229
-2.72453e-06
4.919e-08
0.000207413
-1.43808e-07
-4.23345e-08
0.000207122
2.64287e-06
-2.36828e-07
0.0002068
2.80145e-07
5.12941e-07
0.000206526
7.30454e-07
8.7623e-08
0.000207395
-4.25956e-06
1.03645e-07
0.000207556
3.94772e-07
1.9947e-08
0.000207147
2.77765e-06
1.00509e-07
0.000206676
1.54647e-06
2.71337e-07
0.000206497
-2.39847e-07
5.68281e-09
0.000207295
-3.95592e-06
3.6123e-07
0.000207515
-2.60608e-07
-5.19739e-08
0.00020712
2.4912e-06
-3.19409e-07
0.000206766
1.17926e-06
2.28128e-07
0.000206458
-1.70046e-07
1.60785e-07
0.000207197
-3.11232e-06
9.38661e-08
0.000207576
-1.68326e-06
2.4045e-07
0.000207197
2.50132e-06
1.26782e-07
0.000206874
5.82087e-07
6.9656e-07
0.000206525
5.54985e-07
2.3391e-07
0.000207355
-3.28167e-06
-3.40061e-08
0.000207591
-5.65589e-07
3.75709e-07
0.000207045
3.68458e-06
4.0678e-08
0.000206637
1.40342e-06
2.6996e-07
0.000206547
-7.33816e-07
-1.37635e-07
0.000207402
-4.42398e-06
2.02684e-07
0.00020769
-2.37317e-07
2.26106e-07
0.000207221
2.64961e-06
2.72894e-07
0.000206678
2.51871e-06
6.32435e-07
0.000206493
-5.31582e-07
3.36863e-07
0.000207143
-2.82772e-06
5.89584e-07
0.000207476
-8.38565e-07
3.06118e-07
0.000207102
2.35937e-06
-1.15696e-07
0.00020687
-2.92624e-07
4.59924e-07
0.000206559
-4.67757e-08
2.44145e-07
0.000207253
-3.37704e-06
-4.14352e-08
0.000207519
-8.75277e-07
3.20657e-08
2.43217e-06
2.69032e-07
0.000188156
-3.76352e-07
5.06369e-07
0.000187927
-8.73036e-07
2.28961e-07
0.000188627
-4.15851e-06
1.60784e-07
0.000188795
3.80789e-07
-6.66588e-09
0.000188383
4.15166e-06
-2.81058e-07
0.000188012
-1.60214e-07
8.01502e-07
0.00018777
1.38741e-07
1.31531e-07
0.000188815
-5.85295e-06
1.61684e-07
0.000188975
9.11745e-07
9.33764e-08
0.000188395
4.49704e-06
8.155e-08
0.000187857
1.55838e-06
4.02208e-07
0.000187737
-1.24939e-06
-2.65483e-08
0.000188717
-5.71725e-06
5.36766e-07
0.000188935
8.97076e-08
-1.29382e-08
0.000188379
4.11477e-06
-4.35936e-07
0.000187975
1.0185e-06
4.31602e-07
0.000187683
-1.02908e-06
1.93195e-07
0.000188608
-4.69322e-06
1.93428e-07
0.000188987
-1.68828e-06
3.35293e-07
0.000188468
3.92612e-06
1.65464e-07
0.000188105
1.02869e-07
9.90607e-07
0.000187756
-7.61039e-08
2.62501e-07
0.000188788
-4.79479e-06
5.28783e-10
0.000189018
-3.6485e-07
5.18088e-07
0.000188276
5.64999e-06
4.2672e-08
0.000187805
1.31756e-06
4.26165e-07
0.000187792
-1.97427e-06
-1.41686e-07
0.000188827
-6.20183e-06
2.9157e-07
0.000189126
1.24177e-07
3.42741e-07
0.000188474
4.25413e-06
3.27663e-07
0.000187868
2.66102e-06
8.99507e-07
0.00018773
-1.61245e-06
3.93308e-07
0.000188534
-4.15899e-06
7.43724e-07
0.000188864
-4.58171e-07
4.11462e-07
0.000188343
3.76249e-06
-2.02534e-07
0.0001881
-1.0361e-06
7.32353e-07
0.000187813
-9.9249e-07
3.39389e-07
0.000188655
-4.83233e-06
-1.5712e-08
0.000188908
-5.47446e-07
1.06718e-07
3.7526e-06
3.71998e-07
0.000171037
-1.30843e-06
8.20614e-07
0.000170908
-2.66962e-06
3.35953e-07
0.000171744
-6.17481e-06
3.22811e-07
0.000171866
1.38216e-06
6.56696e-08
0.000171293
6.4337e-06
-3.35054e-07
0.000170879
-9.94826e-07
1.19863e-06
0.000170724
-1.09138e-06
1.82181e-07
0.000171951
-7.92705e-06
2.43824e-07
0.000172086
1.80691e-06
2.0092e-07
0.000171292
7.04938e-06
4.74068e-08
0.000170685
1.35506e-06
5.85736e-07
0.000170687
-3.0379e-06
-8.10589e-08
0.000171858
-8.10115e-06
7.62325e-07
0.000172049
8.06205e-07
6.6633e-08
0.000171287
6.57378e-06
-5.81328e-07
0.00017083
5.59812e-07
7.24761e-07
0.000170615
-2.6398e-06
2.30998e-07
0.000171737
-6.91877e-06
3.42753e-07
0.000172086
-1.3543e-06
4.59299e-07
0.000171393
6.01221e-06
2.15282e-07
0.000170994
-8.67889e-07
1.38115e-06
0.000170699
-1.37238e-06
2.92777e-07
0.000171933
-6.88382e-06
1.02612e-07
0.00017214
1.31798e-07
6.99226e-07
0.000171157
8.48441e-06
3.48629e-08
0.000170623
9.21459e-07
6.56557e-07
0.000170749
-4.09496e-06
-1.31548e-07
0.000171965
-8.52981e-06
4.09514e-07
0.000172249
8.73824e-07
4.93091e-07
0.000171373
6.6324e-06
3.85901e-07
0.000170712
2.51285e-06
1.25895e-06
0.000170683
-3.49257e-06
4.48414e-07
0.00017164
-5.95292e-06
9.28345e-07
0.000171937
3.91527e-07
5.51595e-07
0.000171228
5.85355e-06
-3.04805e-07
0.000170986
-2.29366e-06
1.11679e-06
0.000170784
-2.75244e-06
4.70881e-07
0.000171772
-6.76935e-06
5.74261e-08
0.000171981
2.15911e-07
2.27931e-07
5.71273e-06
4.97738e-07
0.00015542
-2.79916e-06
1.24385e-06
0.000155476
-5.70066e-06
4.75062e-07
0.000156431
-8.93258e-06
5.30589e-07
0.000156467
3.12427e-06
1.36289e-07
0.000155701
9.78948e-06
-3.90449e-07
0.000155251
-2.37459e-06
1.72611e-06
0.000155257
-3.26669e-06
2.34869e-07
0.000156643
-1.05803e-05
3.43701e-07
0.000156734
3.25511e-06
3.31904e-07
0.000155685
1.07193e-05
3.77957e-09
0.000155013
8.42718e-07
8.37301e-07
0.000155216
-5.93659e-06
-1.71062e-07
0.000156565
-1.12476e-05
1.02206e-06
0.000156703
2.08525e-06
1.64536e-07
0.000155691
1.01687e-05
-7.38921e-07
0.000155181
-3.11534e-07
1.12621e-06
0.000155129
-5.36141e-06
2.6967e-07
0.000156419
-9.94031e-06
5.28362e-07
0.000156716
-4.6663e-07
6.00313e-07
0.000155817
8.9935e-06
2.90206e-07
0.000155388
-2.47802e-06
1.89419e-06
0.000155218
-3.67099e-06
3.33088e-07
0.000156626
-9.68303e-06
2.48871e-07
0.000156803
1.0911e-06
9.04277e-07
0.000155537
1.24745e-05
2.2012e-08
0.000154941
6.99632e-08
9.77693e-07
0.000155286
-7.4678e-06
-1.13506e-07
0.000156675
-1.15331e-05
5.35357e-07
0.000156902
2.23724e-06
6.6555e-07
0.000155763
1.00706e-05
4.45026e-07
0.000155059
1.93749e-06
1.73489e-06
0.000155218
-6.52719e-06
4.99988e-07
0.000156312
-8.3411e-06
1.12355e-06
0.000156537
1.94733e-06
7.06767e-07
0.000155605
8.8778e-06
-4.08673e-07
0.00015538
-4.24966e-06
1.63901e-06
0.000155346
-5.69387e-06
6.41532e-07
0.000156443
-9.28698e-06
1.6627e-07
0.000156582
1.63258e-06
3.74883e-07
8.55272e-06
6.4877e-07
0.000141235
-5.00958e-06
1.8252e-06
0.000141577
-1.04544e-05
6.67659e-07
0.000142586
-1.25741e-05
7.20276e-07
0.000142456
5.97682e-06
1.54628e-07
0.000141504
1.45518e-05
-3.79915e-07
0.000141071
-4.4837e-06
2.45383e-06
0.00014133
-6.78726e-06
3.24327e-07
0.000142793
-1.38863e-05
4.182e-07
0.000142776
5.5376e-06
4.19658e-07
0.000141471
1.58033e-05
1.00412e-10
0.000140792
-1.21597e-07
1.22406e-06
0.000141298
-1.03998e-05
-2.72798e-07
0.000142738
-1.52341e-05
1.23237e-06
0.00014275
4.26927e-06
1.97252e-07
0.000141487
1.51922e-05
-8.2796e-07
0.000140977
-1.75807e-06
1.71483e-06
0.000141188
-9.64681e-06
3.47183e-07
0.000142565
-1.38935e-05
6.98995e-07
0.00014274
1.3215e-06
6.78642e-07
0.000141634
1.31531e-05
4.31123e-07
0.000141195
-4.94645e-06
2.58058e-06
0.000141245
-7.41032e-06
4.1119e-07
0.000142768
-1.33252e-05
3.95077e-07
0.000142863
2.79632e-06
1.05668e-06
0.000141295
1.79496e-05
5.88366e-08
0.000140671
-1.45502e-06
1.45475e-06
0.000141365
-1.2589e-05
-9.51242e-08
0.000142855
-1.53092e-05
6.01183e-07
0.000142948
4.51959e-06
8.08509e-07
0.000141527
1.49026e-05
5.39375e-07
0.000140812
8.02102e-07
2.37467e-06
0.000141268
-1.11828e-05
5.63832e-07
0.000142429
-1.14652e-05
1.28045e-06
0.000142509
4.56314e-06
8.04249e-07
0.000141378
1.30774e-05
-4.47306e-07
0.000141238
-7.16627e-06
2.38014e-06
0.000141462
-1.02628e-05
8.89731e-07
0.000142577
-1.24576e-05
2.68968e-07
0.000142567
4.02343e-06
5.26703e-07
1.25625e-05
8.68192e-07
0.000128664
-8.2299e-06
2.84232e-06
0.000129414
-1.74856e-05
1.04063e-06
0.000130275
-1.71117e-05
6.36183e-07
0.000129691
1.04908e-05
-1.62973e-07
0.00012875
2.08147e-05
-9.6571e-08
0.000128606
-7.74613e-06
3.76745e-06
0.000129202
-1.21907e-05
6.65847e-07
0.000130488
-1.77787e-05
2.95346e-07
0.000130073
9.14213e-06
2.42983e-07
0.000128684
2.23695e-05
2.29083e-07
0.000128293
-1.99956e-06
2.1737e-06
0.000129224
-1.70004e-05
-1.49519e-07
0.000130463
-1.9947e-05
1.17086e-06
0.000130052
7.96218e-06
-9.6344e-08
0.000128734
2.17068e-05
-6.51751e-07
0.000128486
-4.21262e-06
2.95369e-06
0.000129037
-1.59762e-05
6.69257e-07
0.000130253
-1.87385e-05
6.23554e-07
0.000130044
4.57017e-06
4.93706e-07
0.000128854
1.86858e-05
7.92981e-07
0.000128558
-8.602e-06
3.72863e-06
0.000128939
-1.3135e-05
6.89548e-07
0.000130409
-1.78694e-05
3.44411e-07
0.000130191
5.71719e-06
9.43213e-07
0.000128414
2.50736e-05
3.44823e-07
0.000128015
-4.12855e-06
2.43623e-06
0.000129212
-2.00261e-05
-7.38172e-09
0.000130576
-1.98403e-05
3.36255e-07
0.000130294
8.17215e-06
6.51636e-07
0.000128654
2.13668e-05
7.88079e-07
0.000128073
-1.1476e-06
3.48089e-06
0.000128986
-1.80723e-05
7.85678e-07
0.000130018
-1.53648e-05
1.17151e-06
0.000129701
8.77875e-06
5.98143e-07
0.000128624
1.8446e-05
-1.63705e-07
0.000128836
-1.13843e-05
3.75201e-06
0.00012939
-1.69294e-05
1.40751e-06
0.000130258
-1.62207e-05
1.69689e-07
0.000129831
7.8984e-06
4.43052e-07
1.79231e-05
1.30293e-06
0.000118266
-1.28695e-05
5.32376e-06
0.000119387
-2.67219e-05
1.94726e-06
0.000119643
-2.22001e-05
-3.85398e-07
0.000118052
1.68995e-05
-1.6366e-06
0.000117846
2.71978e-05
1.08273e-06
0.000118538
-1.31119e-05
6.8527e-06
0.000119419
-1.97499e-05
1.83815e-06
0.000119923
-2.19178e-05
-4.24982e-07
0.000118487
1.45589e-05
-9.79381e-07
0.00011775
2.93176e-05
1.05701e-06
0.00011828
-5.85351e-06
5.0696e-06
0.000119546
-2.57732e-05
9.89034e-07
0.000119853
-2.48136e-05
2.56085e-07
0.000118485
1.36398e-05
-1.54807e-06
0.000117888
2.84358e-05
4.04736e-07
0.000118352
-8.55547e-06
6.26364e-06
0.000119074
-2.41079e-05
1.75552e-06
0.000119591
-2.39652e-05
-2.94287e-07
0.000118523
9.7194e-06
-6.91618e-07
0.000117827
2.48587e-05
1.70575e-06
0.000118002
-1.38013e-05
6.31335e-06
0.000118697
-2.09056e-05
1.56255e-06
0.000119705
-2.31062e-05
-4.01384e-07
0.000118659
1.03095e-05
-1.57398e-07
0.000117245
3.28734e-05
1.33163e-06
0.000117554
-8.67851e-06
5.08187e-06
0.000119217
-2.97425e-05
6.46101e-07
0.000119978
-2.49364e-05
-7.40282e-07
0.000118872
1.33558e-05
-5.58273e-07
0.00011749
2.86182e-05
1.50914e-06
0.000117381
-4.54422e-06
6.00398e-06
0.000118755
-2.73037e-05
1.57505e-06
0.000119165
-1.97729e-05
1.47379e-07
0.000118025
1.47886e-05
-7.15192e-07
0.000117796
2.38812e-05
1.05278e-06
0.000118797
-1.7472e-05
7.00845e-06
0.000119576
-2.55807e-05
2.7419e-06
0.00011965
-2.02934e-05
-5.52036e-07
0.000118305
1.35483e-05
-6.00556e-07
2.37413e-05
2.37885e-06
0.000110173
-1.92471e-05
1.07963e-05
0.000111014
-3.58806e-05
3.42454e-06
0.000109895
-2.66084e-05
-3.50066e-06
0.000107451
2.35904e-05
-5.31472e-06
0.0001092
3.01958e-05
3.82198e-06
0.000110826
-2.11874e-05
1.31226e-05
0.00011157
-2.81376e-05
4.11061e-06
0.00011038
-2.5234e-05
-2.73914e-06
0.000107868
2.07951e-05
-4.44813e-06
0.000109201
3.33783e-05
3.02197e-06
0.000110891
-1.27033e-05
1.16782e-05
0.000111679
-3.44946e-05
3.67052e-06
0.000109962
-2.85562e-05
-2.58894e-06
0.000107967
1.99429e-05
-5.35399e-06
0.000109487
3.17538e-05
3.36559e-06
0.000110498
-1.53188e-05
1.31988e-05
0.000110575
-3.16581e-05
3.72224e-06
0.000109712
-2.82605e-05
-3.21528e-06
0.000108007
1.55865e-05
-4.08576e-06
0.000109019
2.89285e-05
3.6633e-06
0.000109699
-2.05734e-05
1.17907e-05
0.000110238
-2.89384e-05
3.2277e-06
0.000110013
-2.79404e-05
-2.85271e-06
0.000108145
1.57967e-05
-3.60903e-06
0.000108451
3.79963e-05
3.58554e-06
0.000109474
-1.55709e-05
1.09602e-05
0.00011083
-3.92324e-05
2.09946e-06
0.00011026
-2.94232e-05
-3.72408e-06
0.000108512
1.86163e-05
-4.06169e-06
0.000108655
3.35246e-05
3.20737e-06
0.000109149
-1.01375e-05
1.13995e-05
0.000110277
-3.6794e-05
3.18879e-06
0.000109158
-2.37516e-05
-2.8235e-06
0.000107547
2.07676e-05
-4.38012e-06
0.000109382
2.63658e-05
4.1101e-06
0.000110877
-2.53336e-05
1.35446e-05
0.000111328
-3.41856e-05
5.02986e-06
0.000109976
-2.38379e-05
-3.05468e-06
0.0001079
1.96873e-05
-3.80258e-06
2.70576e-05
4.62897e-06
0.000102717
-2.60695e-05
1.87329e-05
0.000101636
-4.0437e-05
4.5094e-06
9.84696e-05
-2.76359e-05
-9.89403e-06
9.73349e-05
2.73999e-05
-1.11802e-05
0.000101895
2.67939e-05
7.9839e-06
0.000103197
-3.01881e-05
2.14801e-05
0.000102754
-3.37879e-05
6.11183e-06
9.93102e-05
-2.56206e-05
-8.05985e-06
9.76291e-05
2.49116e-05
-1.03449e-05
0.000102207
3.10938e-05
6.19825e-06
0.000103845
-2.13766e-05
2.0897e-05
0.000102288
-3.88964e-05
6.5304e-06
9.80029e-05