/*--------------------------------*- C++ -*----------------------------------*\
  =========                 |
  \\      /  F ield         | OpenFOAM: The Open Source CFD Toolbox
   \\    /   O peration     | Website:  https://openfoam.org
    \\  /    A nd           | Version:  10
     \\/     M anipulation  |
\*---------------------------------------------------------------------------*/
FoamFile
{
    format      ascii;
    class       surfaceScalarField;
    location    "45";
    object      phi_0;
}
// * * * * * * * * * * * * * * * * * * * * * * * * * * * * * * * * * * * * * //

dimensions      [0 3 -1 0 0 0 0];

internalField   nonuniform List<scalar> 
74080
(
4.17796e-06
-3.69452e-11
-1.88993e-10
4.17788e-06
8.11584e-11
-1.77668e-10
4.17796e-06
-7.55366e-11
-2.63581e-10
4.17794e-06
1.51556e-11
-1.4634e-10
4.17786e-06
7.13631e-11
-2.84378e-10
4.17799e-06
-1.37242e-10
-1.79436e-10
4.17786e-06
1.24386e-10
-2.1259e-10
4.17789e-06
-3.94825e-11
-2.57752e-10
4.17798e-06
-1.00146e-10
-1.3288e-10
4.17777e-06
2.10229e-10
-2.63152e-10
4.178e-06
-2.52321e-10
-1.41105e-10
4.17782e-06
1.819e-10
-1.74177e-10
4.17784e-06
-3.58748e-11
-1.88347e-10
4.17798e-06
-1.43141e-10
-8.23215e-11
4.1777e-06
2.78478e-10
-1.85791e-10
4.17799e-06
-3.1393e-10
-6.05565e-11
4.17777e-06
2.3577e-10
-1.07033e-10
4.17781e-06
-6.11466e-11
-9.38135e-11
4.17794e-06
-1.23629e-10
-7.09457e-12
4.17768e-06
2.71411e-10
-1.20179e-10
4.17796e-06
-2.94702e-10
3.97628e-11
4.17775e-06
2.32594e-10
-7.66666e-11
4.17782e-06
-7.47315e-11
-2.48133e-12
4.17789e-06
-5.50459e-11
1.00469e-11
4.17773e-06
1.7037e-10
-5.34599e-11
4.17792e-06
-1.78224e-10
3.96293e-11
4.17777e-06
1.68664e-10
-4.97369e-11
4.17787e-06
-8.57752e-11
8.40908e-12
4.17786e-06
3.54942e-11
-3.64681e-11
4.17782e-06
4.9826e-11
-2.41755e-11
4.17791e-06
-7.25289e-11
-5.37977e-11
4.17782e-06
1.09798e-10
-4.69228e-11
4.17791e-06
-7.99583e-11
-7.99756e-11
4.17787e-06
6.38337e-11
-8.82282e-11
4.17788e-06
1.15967e-12
-9.27431e-11
4.17793e-06
-3.20047e-11
-1.44022e-10
4.17786e-06
7.48327e-11
-1.02659e-10
4.17795e-06
-6.84706e-11
-1.92761e-10
4.1779e-06
5.90261e-11
-1.28733e-10
-1.18121e-11
-2.07801e-10
1.40638e-05
-7.19401e-11
-6.04953e-10
1.40637e-05
2.09542e-10
-6.57318e-10
1.40638e-05
-2.27964e-10
-7.97797e-10
1.40638e-05
7.99945e-11
-5.63775e-10
1.40637e-05
1.49904e-10
-8.95596e-10
1.40639e-05
-3.68596e-10
-5.88053e-10
1.40636e-05
3.67267e-10
-7.56955e-10
1.40637e-05
-1.78008e-10
-7.54389e-10
1.40638e-05
-2.11188e-10
-5.22265e-10
1.40635e-05
5.37605e-10
-8.01698e-10
1.40639e-05
-7.16423e-10
-4.61375e-10
1.40635e-05
5.72059e-10
-6.0373e-10
1.40636e-05
-2.02411e-10
-5.33464e-10
1.40637e-05
-2.99699e-10
-3.37452e-10
1.40633e-05
7.25091e-10
-5.3643e-10
1.40638e-05
-8.85752e-10
-2.06797e-10
1.40633e-05
7.4482e-10
-3.60042e-10
1.40635e-05
-2.80135e-10
-2.33101e-10
1.40636e-05
-2.26766e-10
-9.64083e-11
1.40632e-05
7.10106e-10
-2.96812e-10
1.40637e-05
-8.22408e-10
8.17073e-11
1.40632e-05
7.35088e-10
-2.31308e-10
1.40635e-05
-2.91798e-10
3.52649e-11
1.40635e-05
-5.20308e-11
-3.12418e-11
1.40633e-05
4.45067e-10
-1.01583e-10
1.40636e-05
-4.76635e-10
7.52708e-11
1.40633e-05
5.17879e-10
-1.40459e-10
1.40635e-05
-2.70151e-10
1.80511e-11
1.40635e-05
1.66671e-10
-1.35838e-10
1.40635e-05
1.14117e-10
-8.35755e-11
1.40636e-05
-1.6336e-10
-1.90122e-10
1.40635e-05
3.15784e-10
-1.71584e-10
1.40637e-05
-2.23553e-10
-2.80421e-10
1.40636e-05
2.15866e-10
-2.9574e-10
1.40636e-05
-1.84623e-11
-3.47211e-10
1.40637e-05
-5.38912e-11
-4.5625e-10
1.40636e-05
1.99125e-10
-3.97909e-10
1.40638e-05
-1.84319e-10
-6.11744e-10
1.40637e-05
1.81976e-10
-4.66818e-10
-6.09928e-11
-6.97243e-10
2.65535e-05
-9.97954e-11
-1.11548e-09
2.65533e-05
3.53248e-10
-1.26479e-09
2.65535e-05
-4.24069e-10
-1.40648e-09
2.65534e-05
1.75752e-10
-1.13181e-09
2.65533e-05
2.13257e-10
-1.58967e-09
2.65536e-05
-6.45738e-10
-1.12028e-09
2.65532e-05
6.69586e-10
-1.4292e-09
2.65534e-05
-3.90113e-10
-1.32272e-09
2.65534e-05
-3.09652e-10
-1.06209e-09
2.6553e-05
9.03831e-10
-1.40378e-09
2.65535e-05
-1.29073e-09
-8.92197e-10
2.6553e-05
1.08455e-09
-1.12744e-09
2.65531e-05
-4.67505e-10
-9.31095e-10
2.65533e-05
-4.26893e-10
-7.00698e-10
2.65527e-05
1.23656e-09
-9.15826e-10
2.65533e-05
-1.5804e-09
-4.28734e-10
2.65527e-05
1.42029e-09
-6.57639e-10
2.65529e-05
-6.06358e-10
-3.92425e-10
2.6553e-05
-2.69208e-10
-2.51321e-10
2.65525e-05
1.2202e-09
-4.55868e-10
2.65532e-05
-1.4501e-09
6.99807e-11
2.65526e-05
1.4087e-09
-3.81313e-10
2.65529e-05
-5.95011e-10
7.07183e-11
2.65529e-05
2.92675e-11
-1.05938e-10
2.65526e-05
7.7131e-10
-1.18819e-10
2.6553e-05
-8.10347e-10
7.21135e-11
2.65527e-05
9.82717e-10
-2.15536e-10
2.6553e-05
-4.97814e-10
8.28599e-12
2.65529e-05
3.80652e-10
-2.48963e-10
2.65529e-05
1.88694e-10
-1.57498e-10
2.65531e-05
-2.36746e-10
-3.55106e-10
2.65529e-05
5.81272e-10
-3.25344e-10
2.65532e-05
-3.87171e-10
-5.22418e-10
2.65531e-05
4.30649e-10
-5.46047e-10
2.65532e-05
-4.66946e-11
-6.66226e-10
2.65533e-05
-5.4957e-11
-8.1916e-10
2.65532e-05
3.49452e-10
-7.83966e-10
2.65534e-05
-3.16868e-10
-1.09188e-09
2.65533e-05
3.39925e-10
-9.0998e-10
-1.33061e-10
-1.27362e-09
4.21946e-05
-1.22012e-10
-1.72742e-09
4.21944e-05
5.12e-10
-1.97698e-09
4.21947e-05
-6.64994e-10
-2.11457e-09
4.21945e-05
3.00505e-10
-1.83755e-09
4.21944e-05
2.59518e-10
-2.38344e-09
4.21947e-05
-9.69986e-10
-1.79998e-09
4.21943e-05
1.02785e-09
-2.22397e-09
4.21945e-05
-6.76064e-10
-2.01572e-09
4.21945e-05
-3.99055e-10
-1.75271e-09
4.2194e-05
1.30958e-09
-2.11042e-09
4.21946e-05
-1.97905e-09
-1.47075e-09
4.21939e-05
1.72194e-09
-1.76006e-09
4.21941e-05
-8.33496e-10
-1.4426e-09
4.21942e-05
-5.2381e-10
-1.18368e-09
4.21935e-05
1.81584e-09
-1.37485e-09
4.21943e-05
-2.40007e-09
-7.60115e-10
4.21934e-05
2.26981e-09
-1.02155e-09
4.21938e-05
-1.04161e-09
-6.26245e-10
4.21938e-05
-2.43646e-10
-4.7418e-10
4.21932e-05
1.80563e-09
-6.47188e-10
4.2194e-05
-2.17551e-09
-6.60477e-12
4.21932e-05
2.26524e-09
-5.41551e-10
4.21936e-05
-9.86271e-10
7.00111e-11
4.21936e-05
2.02389e-10
-1.98542e-10
4.21933e-05
1.15246e-09
-1.35119e-10
4.21938e-05
-1.1747e-09
4.25909e-11
4.21934e-05
1.57579e-09
-2.75484e-10
4.21938e-05
-7.68817e-10
-1.98215e-11
4.21937e-05
6.89142e-10
-3.57008e-10
4.21937e-05
2.77192e-10
-2.40728e-10
4.21939e-05
-2.87146e-10
-5.29074e-10
4.21938e-05
9.14395e-10
-4.92302e-10
4.21941e-05
-5.69821e-10
-7.85545e-10
4.2194e-05
7.16116e-10
-8.22926e-10
4.21942e-05
-8.25741e-11
-1.02391e-09
4.21943e-05
-3.16771e-11
-1.22264e-09
4.21942e-05
5.29783e-10
-1.23301e-09
4.21945e-05
-4.68849e-10
-1.62613e-09
4.21943e-05
5.37817e-10
-1.44132e-09
-2.28785e-10
-1.92277e-09
6.16058e-05
-1.36564e-10
-2.41901e-09
6.16056e-05
6.89924e-10
-2.76617e-09
6.16059e-05
-9.53678e-10
-2.92627e-09
6.16057e-05
4.56808e-10
-2.65536e-09
6.16057e-05
2.9019e-10
-3.29323e-09
6.1606e-05
-1.347e-09
-2.6271e-09
6.16055e-05
1.44688e-09
-3.14913e-09
6.16057e-05
-1.03983e-09
-2.87118e-09
6.16057e-05
-4.84156e-10
-2.5976e-09
6.16052e-05
1.76326e-09
-2.97332e-09
6.16058e-05
-2.79701e-09
-2.22471e-09
6.1605e-05
2.49639e-09
-2.54136e-09
6.16053e-05
-1.30899e-09
-2.12605e-09
6.16053e-05
-5.93534e-10
-1.81602e-09
6.16045e-05
2.47431e-09
-1.98128e-09
6.16054e-05
-3.36292e-09
-1.23901e-09
6.16043e-05
3.31186e-09
-1.50407e-09
6.16047e-05
-1.59661e-09
-9.90402e-10
6.16047e-05
-1.46993e-10
-7.93915e-10
6.1604e-05
2.47761e-09
-9.33676e-10
6.16049e-05
-3.01137e-09
-1.66515e-10
6.16039e-05
3.32524e-09
-7.55583e-10
6.16045e-05
-1.47469e-09
4.99371e-12
6.16044e-05
4.7887e-10
-3.17359e-10
6.1604e-05
1.5949e-09
-1.82657e-10
6.16046e-05
-1.57237e-09
-3.33653e-12
6.16041e-05
2.31513e-09
-3.32711e-10
6.16046e-05
-1.08854e-09
-5.51599e-11
6.16044e-05
1.10712e-09
-4.46719e-10
6.16045e-05
3.82739e-10
-3.18629e-10
6.16048e-05
-3.09653e-10
-6.85237e-10
6.16046e-05
1.3276e-09
-6.47222e-10
6.16051e-05
-7.72972e-10
-1.03662e-09
6.16049e-05
1.08557e-09
-1.09461e-09
6.16052e-05
-1.25433e-10
-1.38147e-09
6.16053e-05
2.27263e-11
-1.63614e-09
6.16052e-05
7.46938e-10
-1.70186e-09
6.16056e-05
-6.42005e-10
-2.18936e-09
6.16054e-05
7.85743e-10
-2.02145e-09
-3.48758e-10
-2.62143e-09
8.55137e-05
-1.35486e-10
-3.13774e-09
8.55136e-05
8.95362e-10
-3.5897e-09
8.55139e-05
-1.29239e-09
-3.8146e-09
8.55137e-05
6.53678e-10
-3.5446e-09
8.55137e-05
3.09358e-10
-4.3159e-09
8.55141e-05
-1.783e-09
-3.57817e-09
8.55135e-05
1.94002e-09
-4.21081e-09
8.55138e-05
-1.4895e-09
-3.90308e-09
8.55138e-05
-5.66438e-10
-3.60246e-09
8.55131e-05
2.27789e-09
-4.03736e-09
8.55139e-05
-3.7691e-09
-3.17692e-09
8.55128e-05
3.43026e-09
-3.52403e-09
8.55132e-05
-1.91207e-09
-3.03431e-09
8.55131e-05
-6.38241e-10
-2.64682e-09
8.55122e-05
3.22629e-09
-2.8109e-09
8.55132e-05
-4.5009e-09
-1.91796e-09
8.55119e-05
4.57553e-09
-2.18123e-09
8.55125e-05
-2.29611e-09
-1.55077e-09
8.55123e-05
2.44353e-11
-1.27077e-09
8.55115e-05
3.24764e-09
-1.39122e-09
8.55125e-05
-3.98367e-09
-4.52778e-10
8.55113e-05
4.6171e-09
-1.09258e-09
8.5512e-05
-2.08178e-09
-1.62613e-10
8.55118e-05
8.71195e-10
-5.01351e-10
8.55114e-05
2.10286e-09
-3.0025e-10
8.55121e-05
-2.0126e-09
-7.54448e-11
8.55114e-05
3.22245e-09
-4.11712e-10
8.55121e-05
-1.46978e-09
-9.03406e-11
8.55119e-05
1.65346e-09
-5.163e-10
8.5512e-05
5.05104e-10
-3.72219e-10
8.55123e-05
-2.98652e-10
-7.98638e-10
8.55121e-05
1.83566e-09
-7.57542e-10
8.55127e-05
-9.9987e-10
-1.23417e-09
8.55125e-05
1.5577e-09
-1.31609e-09
8.55128e-05
-1.7536e-10
-1.68637e-09
8.5513e-05
1.19784e-10
-2.00904e-09
8.5513e-05
1.01022e-09
-2.12991e-09
8.55134e-05
-8.3502e-10
-2.7323e-09
8.55133e-05
1.09884e-09
-2.58816e-09
-4.91971e-10
-3.32572e-09
0.000114762
-1.04114e-10
-3.79808e-09
0.000114762
1.14173e-09
-4.37429e-09
0.000114762
-1.68026e-09
-4.71277e-09
0.000114762
9.07669e-10
-4.4367e-09
0.000114762
3.24673e-10
-5.40935e-09
0.000114762
-2.28161e-09
-4.59744e-09
0.000114762
2.52943e-09
-5.38828e-09
0.000114762
-2.03499e-09
-5.09066e-09
0.000114762
-6.41555e-10
-4.75653e-09
0.000114761
2.87027e-09
-5.32024e-09
0.000114762
-4.92433e-09
-4.33663e-09
0.000114761
4.55518e-09
-4.7512e-09
0.000114761
-2.66917e-09
-4.20844e-09
0.000114761
-6.56371e-10
-3.73034e-09
0.00011476
4.08598e-09
-3.9373e-09
0.000114761
-5.85599e-09
-2.86195e-09
0.00011476
6.09793e-09
-3.14054e-09
0.00011476
-3.17896e-09
-2.3886e-09
0.00011476
2.7613e-10
-1.99136e-09
0.000114759
4.1232e-09
-2.11341e-09
0.00011476
-5.12934e-09
-9.39966e-10
0.000114759
6.17331e-09
-1.6479e-09
0.00011476
-2.8436e-09
-4.98958e-10
0.000114759
1.39271e-09
-8.24294e-10
0.000114759
2.67434e-09
-5.48494e-10
0.00011476
-2.51124e-09
-2.17923e-10
0.000114759
4.3196e-09
-5.58822e-10
0.00011476
-1.93414e-09
-1.41899e-10
0.000114759
2.34905e-09
-5.85517e-10
0.000114759
6.38259e-10
-3.94577e-10
0.00011476
-2.4869e-10
-8.58917e-10
0.00011476
2.45319e-09
-7.94606e-10
0.00011476
-1.25578e-09
-1.34029e-09
0.00011476
2.15504e-09
-1.43713e-09
0.000114761
-2.33753e-10
-1.87849e-09
0.000114761
2.75548e-10
-2.27639e-09
0.000114761
1.33107e-09
-2.43995e-09
0.000114761
-1.04274e-09
-3.18141e-09
0.000114761
1.49687e-09
-3.05478e-09
-6.54263e-10
-3.9626e-09
0.000150324
-2.29604e-11
-4.28453e-09
0.000150323
1.44935e-09
-5.00619e-09
0.000150324
-2.11255e-09
-5.50964e-09
0.000150324
1.24324e-09
-5.21976e-09
0.000150324
3.50166e-10
-6.47907e-09
0.000150324
-2.84247e-09
-5.5793e-09
0.000150324
3.24773e-09
-6.60764e-09
0.000150324
-2.68485e-09
-6.36164e-09
0.000150324
-6.96964e-10
-6.00203e-09
0.000150323
3.56274e-09
-6.78969e-09
0.000150324
-6.29211e-09
-5.6727e-09
0.000150323
5.91239e-09
-6.22687e-09
0.000150324
-3.61051e-09
-5.65793e-09
0.000150323
-6.42361e-10
-5.09454e-09
0.000150322
5.06949e-09
-5.41342e-09
0.000150323
-7.47672e-09
-4.12862e-09
0.000150321
7.92206e-09
-4.46077e-09
0.000150322
-4.29364e-09
-3.59117e-09
0.000150322
6.1382e-10
-3.05328e-09
0.000150321
5.10649e-09
-3.20986e-09
0.000150322
-6.49405e-09
-1.72874e-09
0.00015032
8.02663e-09
-2.54387e-09
0.000150321
-3.80909e-09
-1.10788e-09
0.000150321
2.055e-09
-1.39777e-09
0.00015032
3.29895e-09
-1.0283e-09
0.000150321
-3.09224e-09
-5.20301e-10
0.00015032
5.62529e-09
-8.61708e-10
0.000150321
-2.51405e-09
-2.71843e-10
0.00015032
3.21295e-09
-7.1478e-10
0.000150321
7.68354e-10
-4.17167e-10
0.000150321
-1.58121e-10
-8.90868e-10
0.000150321
3.19191e-09
-7.57853e-10
0.000150322
-1.55063e-09
-1.34369e-09
0.000150321
2.90111e-09
-1.42286e-09
0.000150322
-3.05375e-10
-1.90855e-09
0.000150322
5.07946e-10
-2.37677e-09
0.000150322
1.72223e-09
-2.55042e-09
0.000150323
-1.25837e-09
-3.45098e-09
0.000150323
2.00346e-09
-3.31541e-09
-8.28099e-10
-4.43218e-09
0.000193315
1.2741e-10
-4.47182e-09
0.000193315
1.8465e-09
-5.34086e-09
0.000193315
-2.58361e-09
-6.05571e-09
0.000193315
1.692e-09
-5.73422e-09
0.000193315
4.07864e-10
-7.37783e-09
0.000193316
-3.46283e-09
-6.35128e-09
0.000193315
4.141e-09
-7.72414e-09
0.000193316
-3.44459e-09
-7.5726e-09
0.000193316
-7.10364e-10
-7.19931e-09
0.000193315
4.38686e-09
-8.33931e-09
0.000193316
-7.89865e-09
-7.07197e-09
0.000193315
7.55531e-09
-7.87967e-09
0.000193315
-4.76424e-09
-7.32458e-09
0.000193315
-5.84921e-10
-6.69621e-09
0.000193314
6.20045e-09
-7.23521e-09
0.000193315
-9.41434e-09
-5.72719e-09
0.000193313
1.00976e-08
-6.17626e-09
0.000193314
-5.6904e-09
-5.21652e-09
0.000193313
1.04186e-09
-4.5325e-09
0.000193312
6.20101e-09
-4.78647e-09
0.000193313
-8.13095e-09
-2.91866e-09
0.000193311
1.02104e-08
-3.91754e-09
0.000193312
-5.03784e-09
-2.12009e-09
0.000193312
2.86514e-09
-2.36443e-09
0.000193311
3.95966e-09
-1.8877e-09
0.000193312
-3.79216e-09
-1.11905e-09
0.000193311
7.15465e-09
-1.46773e-09
0.000193312
-3.25505e-09
-6.03685e-10
0.000193311
4.25762e-09
-1.02812e-09
0.000193311
8.72977e-10
-5.40465e-10
0.000193312
-3.55252e-11
-9.82851e-10
0.000193311
4.05864e-09
-7.0866e-10
0.000193312
-1.90519e-09
-1.29508e-09
0.000193312
3.81721e-09
-1.29112e-09
0.000193313
-4.0308e-10
-1.77149e-09
0.000193313
8.31403e-10
-2.28895e-09
0.000193313
2.19619e-09
-2.40621e-09
0.000193314
-1.48031e-09
-3.47556e-09
0.000193314
2.64458e-09
-3.26893e-09
-1.0051e-09
-4.6279e-09
0.000245001
3.55707e-10
-4.27306e-09
0.000245001
2.36807e-09
-5.25142e-09
0.000245002
-3.09437e-09
-6.1951e-09
0.000245002
2.28864e-09
-5.79642e-09
0.000245002
5.26488e-10
-7.9374e-09
0.000245003
-4.14284e-09
-6.67929e-09
0.000245002
5.26974e-09
-8.52814e-09
0.000245003
-4.31992e-09
-8.50669e-09
0.000245003
-6.47346e-10
-8.10504e-09
0.000245002
5.38307e-09
-9.77718e-09
0.000245004
-9.76468e-09
-8.29944e-09
0.000245002
9.55268e-09
-9.52603e-09
0.000245003
-6.15205e-09
-9.04141e-09
0.000245003
-4.64121e-10
-8.36594e-09
0.000245001
7.51615e-09
-9.28766e-09
0.000245003
-1.17161e-08
-7.55805e-09
0.000245
1.26837e-08
-8.22356e-09
0.000245001
-7.41193e-09
-7.22732e-09
0.000245001
1.56577e-09
-6.42285e-09
0.000244999
7.41744e-09
-6.89287e-09
0.000245001
-1.00977e-08
-4.54815e-09
0.000244998
1.27638e-08
-5.87637e-09
0.000244999
-6.59403e-09
-3.64868e-09
0.000244999
3.82497e-09
-3.86042e-09
0.000244998
4.64374e-09
-3.30222e-09
0.000244999
-4.66289e-09
-2.17155e-09
0.000244997
8.92356e-09
-2.57941e-09
0.000244998
-4.216e-09
-1.31968e-09
0.000244997
5.48537e-09
-1.7189e-09
0.000244998
9.22866e-10
-9.52704e-10
0.000244998
9.34739e-11
-1.31337e-09
0.000244998
5.05532e-09
-7.99064e-10
0.000244999
-2.35969e-09
-1.34555e-09
0.000244998
4.91953e-09
-1.16197e-09
0.000244999
-5.54614e-10
-1.55004e-09
0.000244999
1.24778e-09
-2.0869e-09
0.000244999
2.76322e-09
-2.02958e-09
0.000245
-1.72383e-09
-3.2661e-09
0.000245
3.44445e-09
-2.87543e-09
-1.18127e-09
-4.48095e-09
0.000306804
6.44532e-10
-3.70863e-09
0.000306804
3.05023e-09
-4.73053e-09
0.000306806
-3.66415e-09
-5.84279e-09
0.000306805
3.06127e-09
-5.26002e-09
0.000306806
7.3445e-10
-8.05519e-09
0.000306807
-4.89701e-09
-6.32304e-09
0.000306806
6.7069e-09
-8.79734e-09
0.000306807
-5.32906e-09
-8.92729e-09
0.000306807
-4.5948e-10
-8.38489e-09
0.000306806
6.59347e-09
-1.08621e-08
0.000306808
-1.19065e-08
-8.9987e-09
0.000306806
1.19889e-08
-1.08551e-08
0.000306807
-7.7915e-09
-1.05184e-08
0.000306807
-2.43186e-10
-9.77411e-09
0.000306805
9.06459e-09
-1.12984e-08
0.000306808
-1.44154e-08
-9.34571e-09
0.000306804
1.57512e-08
-1.03857e-08
0.000306806
-9.48436e-09
-9.41206e-09
0.000306805
2.19873e-09
-8.54519e-09
0.000306803
8.78497e-09
-9.44786e-09
0.000306805
-1.24476e-08
-6.50047e-09
0.000306802
1.57399e-08
-8.40916e-09
0.000306804
-8.53404e-09
-5.70542e-09
0.000306802
4.9338e-09
-5.92195e-09
0.000306801
5.351e-09
-5.402e-09
0.000306803
-5.77029e-09
-3.77843e-09
0.0003068
1.09542e-08
-4.38777e-09
0.000306802
-5.46162e-09
-2.61906e-09
0.000306801
6.88766e-09
-3.00326e-09
0.000306801
8.8781e-10
-1.89903e-09
0.000306801
1.82363e-10
-2.14982e-09
0.0003068
6.1837e-09
-1.26583e-09
0.000306802
-2.98025e-09
-1.754e-09
0.000306801
6.2188e-09
-1.29738e-09
0.000306802
-8.05366e-10
-1.44534e-09
0.000306802
1.73545e-09
-1.99475e-09
0.000306802
3.4314e-09
-1.58068e-09
0.000306803
-2.03414e-09
-2.96869e-09
0.000306803
4.41725e-09
-2.24808e-09
-1.36165e-09
-4.03172e-09
0.000380294
9.35118e-10
-2.9437e-09
0.000380294
3.92248e-09
-4.01763e-09
0.000380296
-4.34181e-09
-5.11682e-09
0.000380295
4.01726e-09
-4.0988e-09
0.000380296
1.04854e-09
-7.83703e-09
0.000380297
-5.77099e-09
-5.16481e-09
0.000380296
8.53179e-09
-8.39706e-09
0.000380298
-6.52746e-09
-8.7294e-09
0.000380298
-8.44703e-11
-7.69143e-09
0.000380297
8.03883e-09
-1.14093e-08
0.000380299
-1.43391e-08
-8.79545e-09
0.000380297
1.49572e-08
-1.14735e-08
0.000380299
-9.71351e-09
-1.14053e-08
0.000380298
1.38587e-10
-1.04595e-08
0.000380296
1.08857e-08
-1.28623e-08
0.000380299
-1.75216e-08
-1.06129e-08
0.000380296
1.93757e-08
-1.22701e-08
0.000380297
-1.19128e-08
-1.13554e-08
0.000380297
2.96705e-09
-1.04581e-08
0.000380295
1.03501e-08
-1.21637e-08
0.000380297
-1.52149e-08
-8.41073e-09
0.000380293
1.92008e-08
-1.12573e-08
0.000380295
-1.08847e-08
-8.09975e-09
0.000380294
6.18801e-09
-8.33858e-09
0.000380292
6.11488e-09
-8.14465e-09
0.000380294
-7.17929e-09
-5.86998e-09
0.000380291
1.32811e-08
-6.91079e-09
0.000380292
-7.04269e-09
-4.61063e-09
0.000380291
8.44838e-09
-5.00658e-09
0.000380291
7.5265e-10
-3.54317e-09
0.000380291
1.67024e-10
-3.77584e-09
0.00038029
7.45806e-09
-2.35866e-09
0.000380292
-3.85572e-09
-2.79649e-09
0.000380291
7.722e-09
-2.08084e-09
0.000380292
-1.20887e-09
-1.74744e-09
0.000380292
2.23823e-09
-2.37381e-09
0.000380292
4.21389e-09
-1.40319e-09
0.000380293
-2.49085e-09
-2.86173e-09
0.000380292
5.55454e-09
-1.73116e-09
-1.55884e-09
-3.52712e-09
0.000467171
1.1219e-09
-2.21595e-09
0.000467171
5.00514e-09
-3.6208e-09
0.000467173
-5.20893e-09
-4.48437e-09
0.000467172
5.13348e-09
-2.45403e-09
0.000467173
1.46633e-09
-7.71405e-09
0.000467175
-6.862e-09
-3.39661e-09
0.000467173
1.08307e-08
-7.37646e-09
0.000467175
-8.04276e-09
-8.16971e-09
0.000467176
5.54949e-10
-5.83276e-09
0.000467175
9.68966e-09
-1.14358e-08
0.000467178
-1.7099e-08
-7.54662e-09
0.000467175
1.85537e-08
-1.10456e-08
0.000467177
-1.19994e-08
-1.14752e-08
0.000467177
7.70859e-10
-9.97855e-09
0.000467175
1.29788e-08
-1.35997e-08
0.000467178
-2.10144e-08
-1.08015e-08
0.000467174
2.36123e-08
-1.33636e-08
0.000467176
-1.46877e-08
-1.25495e-08
0.000467176
3.90827e-09
-1.14865e-08
0.000467174
1.2163e-08
-1.45259e-08
0.000467176
-1.83885e-08
-9.6959e-09
0.000467172
2.31932e-08
-1.38201e-08
0.000467174
-1.36165e-08
-1.0379e-08
0.000467173
7.58152e-09
-1.05703e-08
0.000467171
7.00226e-09
-1.11125e-08
0.000467173
-8.92191e-09
-8.1353e-09
0.00046717
1.59405e-08
-9.77176e-09
0.000467171
-8.96168e-09
-7.10265e-09
0.00046717
1.01486e-08
-7.65238e-09
0.000467169
5.4413e-10
-5.70095e-09
0.00046717
-2.36512e-11
-6.28623e-09
0.000467168
8.92092e-09
-4.21182e-09
0.00046717
-5.07249e-09
-4.52132e-09
0.000467168
9.43165e-09
-3.862e-09
0.000467169
-1.79364e-09
-2.71995e-09
0.000467169
2.66361e-09
-3.51655e-09
0.000467169
5.13998e-09
-2.01044e-09
0.00046717
-3.18857e-09
-3.23135e-09
0.000467169
6.8152e-09
-1.79783e-09
-1.77834e-09
-3.52362e-09
0.000569227
1.06421e-09
-1.65727e-09
0.000569226
6.32568e-09
-4.02704e-09
0.000569228
-6.36861e-09
-4.76469e-09
0.000569227
6.35728e-09
-5.73338e-10
0.000569228
1.98524e-09
-8.33943e-09
0.00056923
-8.34395e-09
-1.6507e-09
0.000569228
1.37188e-08
-5.96198e-09
0.000569231
-1.0102e-08
-7.96019e-09
0.000569231
1.55414e-09
-3.04199e-09
0.00056923
1.14547e-08
-1.11793e-08
0.000569233
-2.0266e-08
-5.66394e-09
0.00056923
2.28707e-08
-9.51553e-09
0.000569233
-1.48127e-08
-1.08442e-08
0.000569233
1.76357e-09
-8.22289e-09
0.000569231
1.52489e-08
-1.33576e-08
0.000569235
-2.48432e-08
-9.63752e-09
0.000569231
2.84299e-08
-1.32383e-08
0.000569233
-1.77775e-08
-1.26048e-08
0.000569232
5.05983e-09
-1.10896e-08
0.00056923
1.41875e-08
-1.58282e-08
0.000569233
-2.18751e-08
-9.8096e-09
0.000569229
2.76753e-08
-1.53096e-08
0.000569231
-1.66379e-08
-1.17713e-08
0.00056923
9.10151e-09
-1.20275e-08
0.000569228
8.07256e-09
-1.33077e-08
0.00056923
-1.09663e-08
-1.00586e-08
0.000569227
1.89396e-08
-1.22468e-08
0.000569228
-1.11476e-08
-9.23494e-09
0.000569227
1.19443e-08
-1.06865e-08
0.000569226
3.59313e-10
-7.64472e-09
0.000569227
-4.52409e-10
-9.20901e-09
0.000569225
1.06386e-08
-6.74698e-09
0.000569226
-6.66182e-09
-6.44144e-09
0.000569224
1.13311e-08
-6.57333e-09
0.000569225
-2.51592e-09
-4.50324e-09
0.000569225
2.90306e-09
-5.1632e-09
0.000569224
6.26022e-09
-3.88234e-09
0.000569226
-4.18989e-09
-4.24537e-09
0.000569225
8.12727e-09
-2.52942e-09
-1.98693e-09
-4.87817e-09
0.000688269
5.91578e-10
-1.13186e-09
0.000688267
7.95491e-09
-5.10552e-09
0.000688269
-7.88454e-09
-6.75869e-09
0.000688269
7.60135e-09
1.41832e-09
0.000688269
2.67806e-09
-1.016e-08
0.000688271
-1.04563e-08
-7.31029e-10
0.000688269
1.73748e-08
-4.51599e-09
0.000688272
-1.30107e-08
-8.7514e-09
0.000688271
3.0249e-09
-2.39185e-10
0.000688271
1.31983e-08
-1.08679e-08
0.000688274
-2.39469e-08
-4.03177e-09
0.000688271
2.79671e-08
-7.47442e-09
0.000688275
-1.83849e-08
-9.77343e-09
0.000688274
3.2618e-09
-5.89605e-09
0.000688273
1.741e-08
-1.22997e-08
0.000688276
-2.88088e-08
-7.35719e-09
0.000688273
3.36163e-08
-1.22323e-08
0.000688276
-2.11721e-08
-1.11061e-08
0.000688275
6.50777e-09
-9.62938e-09
0.000688273
1.61777e-08
-1.55213e-08
0.000688276
-2.54203e-08
-8.32463e-09
0.000688272
3.2432e-08
-1.57468e-08
0.000688274
-1.97994e-08
-1.08958e-08
0.000688274
1.0703e-08
-1.28359e-08
0.000688271
9.32212e-09
-1.3507e-08
0.000688274
-1.32075e-08
-1.06618e-08
0.000688271
2.21666e-08
-1.418e-08
0.000688272
-1.33947e-08
-9.18941e-09
0.000688271
1.36985e-08
-1.37455e-08
0.000688269
3.55262e-10
-8.53267e-09
0.00068827
-1.13889e-09
-1.10916e-08
0.000688268
1.26241e-08
-9.67814e-09
0.00068827
-8.52522e-09
-7.63403e-09
0.000688267
1.33453e-08
-9.08561e-09
0.000688268
-3.246e-09
-7.23695e-09
0.000688269
2.87208e-09
-6.12926e-09
0.000688266
7.63096e-09
-6.76256e-09
0.000688268
-5.46717e-09
-6.18205e-09
0.000688267
9.37925e-09
-2.78524e-09
-2.05238e-09
-8.37559e-09
0.000826005
-4.57501e-10
-2.13352e-10
0.000826003
9.93569e-09
-5.57097e-09
0.000826005
-9.65707e-09
-1.07798e-08
0.000826004
8.66653e-09
4.18693e-09
0.000826004
3.76251e-09
-1.32978e-08
0.000826007
-1.34819e-08
-3.38931e-10
0.000826003
2.20322e-08
-3.82471e-09
0.000826008
-1.70457e-08
-1.00143e-08
0.000826005
5.11987e-09
1.54131e-09
0.000826006
1.47317e-08
-1.10529e-08
0.000826009
-2.81469e-08
-2.38318e-09
0.000826005
3.38398e-08
-6.92111e-09
0.00082601
-2.30154e-08
-7.80156e-09
0.000826008
5.62216e-09
-4.13151e-09
0.000826008
1.88305e-08
-1.17431e-08
0.000826011
-3.24612e-08
-3.20872e-09
0.000826008
3.87896e-08
-1.27967e-08
0.000826011
-2.49695e-08
-7.20601e-09
0.000826009
8.51127e-09
-7.99968e-09
0.000826009
1.7576e-08
-1.50257e-08
0.000826011
-2.85597e-08
-3.36913e-09
0.000826008
3.69772e-08
-1.78694e-08
0.00082601
-2.28841e-08
-5.79841e-09
0.00082601
1.22832e-08
-1.3441e-08
0.000826008
1.05865e-08
-1.26151e-08
0.00082601
-1.53344e-08
-7.24193e-09
0.000826008
2.51677e-08
-1.73907e-08
0.000826008
-1.5283e-08
-5.09329e-09
0.000826008
1.5131e-08
-1.57406e-08
0.000826006
6.08218e-10
-8.86265e-09
0.000826008
-1.94553e-09
-9.6854e-09
0.000826005
1.46685e-08
-1.23097e-08
0.000826007
-1.0395e-08
-7.94216e-09
0.000826005
1.53016e-08
-8.73954e-09
0.000826004
-3.82761e-09
-1.1136e-08
0.000826006
2.55948e-09
-5.20614e-09
0.000826003
9.21348e-09
-8.40234e-09
0.000826005
-6.80673e-09
-1.01453e-08
0.000826004
1.03266e-08
1.25979e-10
-1.68845e-09
-1.4085e-08
0.000983856
-1.99326e-09
6.50629e-10
0.000983853
1.20115e-08
-1.99043e-09
0.000983855
-1.13128e-08
-1.81162e-08
0.000983855
9.25241e-09
1.10302e-08
0.000983853
5.48523e-09
-1.90289e-08
0.000983858
-1.75826e-08
2.28859e-09
0.000983852
2.78932e-08
-4.36441e-09
0.000983858
-2.24681e-08
-1.15677e-08
0.000983854
8.17224e-09
5.05171e-09
0.000983855
1.57001e-08
-1.53366e-08
0.000983858
-3.26993e-08
3.41254e-09
0.000983853
4.0596e-08
-1.02816e-08
0.00098386
-2.92851e-08
-5.61055e-09
0.000983855
9.69248e-09
1.95645e-10
0.000983858
1.84767e-08
-1.73097e-08
0.000983858
-3.51029e-08
7.15854e-09
0.000983856
4.36022e-08
-1.80626e-08
0.00098386
-2.94833e-08
-2.77536e-09
0.000983857
1.168e-08
-2.17747e-09
0.000983859
1.73742e-08
-2.18093e-08
0.000983859
-3.04145e-08
1.04503e-08
0.000983859
4.04554e-08
-2.5548e-08
0.000983859
-2.55764e-08
1.7014e-09
0.000983859
1.3883e-08
-9.55472e-09
0.000983858
1.11566e-08
-1.75711e-08
0.000983858
-1.64907e-08
4.9503e-09
0.000983859
2.69583e-08
-2.39393e-08
0.000983857
-1.62682e-08
1.14417e-09
0.000983859
1.60482e-08
-1.30012e-08
0.000983856
7.72897e-10
-1.1562e-08
0.000983858
-2.38736e-09
-3.99492e-09
0.000983856
1.61972e-08
-1.22509e-08
0.000983857
-1.18944e-08
-9.97153e-09
0.000983857
1.69938e-08
-2.4019e-09
0.000983855
-4.30634e-09
-1.5321e-08
0.000983857
2.22822e-09
-4.18733e-09
0.000983854
1.05828e-08
-3.44774e-09
0.000983855
-7.7187e-09
-1.90038e-08
0.000983856
1.05709e-08
9.5503e-09
-6.80801e-10
-2.08213e-08
0.00116268
-3.51874e-09
-5.80224e-09
0.00116268
1.36525e-08
1.49789e-08
0.00116268
-1.24966e-08
-3.50279e-08
0.00116268
9.14612e-09
2.79503e-08
0.00116267
7.95871e-09
-2.78801e-08
0.00116268
-2.28853e-08
5.83919e-09
0.00116267
3.51969e-08
1.74137e-09
0.00116268
-2.96504e-08
-2.20463e-08
0.00116268
1.26133e-08
2.14303e-08
0.00116268
1.58067e-08
-2.93434e-08
0.00116268
-3.76642e-08
1.44942e-08
0.00116267
4.8779e-08
-9.62705e-09
0.00116268
-3.81843e-08
-1.46141e-08
0.00116267
1.66636e-08
2.03472e-08
0.00116268
1.52715e-08
-3.65333e-08
0.00116268
-3.6132e-08
2.37129e-08
0.00116268
4.80496e-08
-1.86248e-08
0.00116268
-3.54469e-08
-1.28231e-08
0.00116267
1.72535e-08
2.29723e-08
0.00116268
1.4018e-08
-4.56455e-08
0.00116268
-2.96163e-08
3.27651e-08
0.00116268
4.19692e-08
-2.98024e-08
0.00116268
-2.79574e-08
-3.8796e-09
0.00116268
1.6389e-08
1.23626e-08
0.00116268
9.47076e-09
-3.69681e-08
0.00116268
-1.52436e-08
2.44378e-08
0.00116268
2.65212e-08
-2.69287e-08
0.00116268
-1.62752e-08
-8.01483e-10
0.00116268
1.69597e-08
2.35527e-10
0.00116268
-1.67962e-10
-1.75616e-08
0.00116268
-1.63028e-09
3.7959e-10
0.00116268
1.65767e-08
-3.05334e-09
0.00116268
-1.30074e-08
-1.82689e-08
0.00116268
1.8703e-08
8.46526e-09
0.00116268
-5.4089e-09
-1.30737e-08
0.00116268
2.60579e-09
-1.24353e-08
0.00116268
1.10212e-08
1.66434e-08
0.00116268
-7.87493e-09
-3.63798e-08
0.00116268
1.00972e-08
2.47216e-08
5.74586e-10
-2.2219e-08
0.00136236
-4.58229e-09
-3.83917e-08
0.00136236
1.44306e-08
5.56077e-08
0.00136236
-1.2966e-08
-6.1299e-08
0.00136236
8.08721e-09
4.46129e-08
0.00136236
1.12639e-08
-2.08313e-08
0.00136237
-2.94741e-08
-1.18657e-08
0.00136236
4.38226e-08
3.55433e-08
0.00136237
-3.85168e-08
-5.27987e-08
0.00136236
1.81722e-08
5.00818e-08
0.00136236
1.54446e-08
-3.67862e-08
0.00136237
-4.35883e-08
6.42594e-09
0.00136236
5.90914e-08
2.22624e-08
0.00136237
-5.05237e-08
-5.10234e-08
0.00136236
2.7231e-08
5.77239e-08
0.00136237
8.78308e-09
-5.07781e-08
0.00136236
-3.56656e-08
1.71338e-08
0.00136236
5.28961e-08
1.78826e-08
0.00136237
-4.42296e-08
-5.72545e-08
0.00136236
2.68634e-08
6.95864e-08
0.00136237
5.98572e-09
-6.73335e-08
0.00136236
-2.53647e-08
3.2789e-08
0.00136236
4.16597e-08
1.34074e-09
0.00136236
-3.12508e-08
-4.20217e-08
0.00136236
2.15365e-08
5.37755e-08
0.00136237
3.87525e-09
-5.54869e-08
0.00136236
-1.07713e-08
2.7994e-08
0.00136237
2.38766e-08
-7.07228e-09
0.00136236
-1.61595e-08
-1.86602e-08
0.00136236
1.88926e-08
1.7212e-08
0.00136237
-3.0676e-09
-1.27096e-08
0.00136236
5.36862e-10
-1.0669e-08
0.00136237
1.61224e-08
1.88409e-08
0.00136236
-1.45017e-08
-2.50225e-08
0.00136236
2.12496e-08
5.36049e-09
0.00136236
-7.90151e-09
1.45364e-08
0.00136236
4.0236e-09
-4.33768e-08
0.00136237
1.04993e-08
5.20793e-08
0.00136236
-7.71666e-09
-5.09393e-08
0.00136236
9.47501e-09
2.49331e-08
1.41401e-09
4.01286e-09
0.00158128
-4.47688e-09
-8.53681e-08
0.00158129
1.38761e-08
8.67944e-08
0.00158129
-1.25815e-08
-5.36995e-08
0.00158129
6.27425e-09
1.70166e-08
0.00158129
1.47789e-08
3.36468e-08
0.00158129
-3.63838e-08
-6.2706e-08
0.00158128
5.25157e-08
8.35565e-08
0.00158129
-4.77715e-08
-6.89334e-08
0.00158128
2.37187e-08
4.34677e-08
0.00158129
1.52279e-08
6.46951e-09
0.00158129
-5.07544e-08
-4.58299e-08
0.00158128
7.12246e-08
8.04333e-08
0.0015813
-6.56751e-08
-7.91618e-08
0.00158128
4.02667e-08
5.78315e-08
0.00158129
3.08313e-10
-5.77918e-09
0.00158129
-3.52684e-08
-4.43619e-08
0.00158128
5.95014e-08
8.86754e-08
0.0015813
-5.68823e-08
-9.71929e-08
0.00158127
4.07789e-08
7.86961e-08
0.00158129
-6.43485e-09
-2.87917e-08
0.00158128
-1.87558e-08
-2.26802e-08
0.00158128
4.10893e-08
6.66788e-08
0.00158129
-3.70753e-08
-7.89354e-08
0.00158127
3.03799e-08
6.71924e-08
0.0015813
-6.21493e-09
-3.16602e-08
0.00158128
-3.30854e-09
-1.27595e-09
0.00158129
1.97917e-08
2.52925e-08
0.00158129
-1.6767e-08
-2.33097e-08
0.00158128
2.21599e-08
9.01434e-09
0.00158129
-7.75377e-09
1.56293e-08
0.00158128
3.56876e-09
-2.5257e-08
0.00158129
1.53221e-08
2.21911e-08
0.00158128
-1.67857e-08
5.77734e-09
0.00158128
2.46755e-08
-3.56485e-08
0.00158129
-1.16042e-08
6.68232e-08
0.00158128
6.12824e-09
-7.10999e-08
0.00158129
9.45261e-09
5.89229e-08
0.00158129
-7.8764e-09
-1.70108e-08
0.00158129
9.44041e-09
-2.44029e-08
1.01122e-09
6.95244e-08
0.0018156
-3.66066e-09
-7.29108e-08
0.0018156
1.30104e-08
4.95554e-08