/*--------------------------------*- C++ -*----------------------------------*\
  =========                 |
  \\      /  F ield         | OpenFOAM: The Open Source CFD Toolbox
   \\    /   O peration     | Website:  https://openfoam.org
    \\  /    A nd           | Version:  10
     \\/     M anipulation  |
\*---------------------------------------------------------------------------*/
FoamFile
{
    format      ascii;
    class       volScalarField;
    location    "30";
    object      pMean;
}
// * * * * * * * * * * * * * * * * * * * * * * * * * * * * * * * * * * * * * //

dimensions      [0 2 -2 0 0 0 0];

internalField   nonuniform List<scalar> 
102400
(
-0.00158599
-0.00136234
-0.00206046
-0.00167373
-0.00128937
-0.00187835
-0.00201925
-0.00247176
-0.00212691
-0.00287864
-0.00225563
-0.0010212
-0.000859977
-0.000971817
-0.00123788
0.000368114
-0.0002923
-0.000839839
-0.000744542
-0.00126934
-0.0018163
-0.00192377
-0.00135377
-0.00132613
-0.000777486
-0.000770413
-0.00120172
-0.00230156
-0.00381689
-0.0036457
-0.00306105
-0.0022699
-0.0022117
-0.00210201
-0.00193178
-0.00242378
-0.00256603
-0.00254598
-0.00246444
-0.00153015
-0.00138188
-0.00116699
-0.00184147
-0.00144662
-0.00106477
-0.00169112
-0.00182534
-0.00226245
-0.00190289
-0.00263655
-0.00203627
-0.000848477
-0.00069217
-0.000813511
-0.00104055
0.000596993
-4.43063e-05
-0.000583177
-0.000488198
-0.00103097
-0.00159033
-0.00170996
-0.00116738
-0.00110658
-0.000568237
-0.000537774
-0.000965204
-0.00207269
-0.00356223
-0.00340411
-0.00284839
-0.00205811
-0.00200427
-0.00188583
-0.00171001
-0.00220127
-0.00234202
-0.00232437
-0.00224777
-0.00131103
-0.0013605
-0.00117032
-0.00178113
-0.00138037
-0.00100487
-0.00164461
-0.00179461
-0.00219747
-0.00185342
-0.00256793
-0.00198306
-0.000847872
-0.000720806
-0.00085894
-0.00110516
0.00060635
6.88877e-05
-0.000422249
-0.000337436
-0.000952151
-0.00151234
-0.00162634
-0.00115773
-0.00105581
-0.000512103
-0.000478543
-0.000834438
-0.00194962
-0.00341872
-0.00328095
-0.00279107
-0.00199528
-0.00198111
-0.00186496
-0.00165906
-0.00212419
-0.0022876
-0.00227381
-0.00220119
-0.00129626
-0.00162529
-0.00141074
-0.00198491
-0.00158634
-0.00119798
-0.0018114
-0.00195897
-0.00234888
-0.00209612
-0.00278412
-0.00223178
-0.00108338
-0.00102631
-0.00115809
-0.00146409
0.000354239
-6.47034e-05
-0.00050721
-0.00042326
-0.00113647
-0.00166183
-0.0017777
-0.00139952
-0.00124031
-0.00064699
-0.000619202
-0.000931429
-0.00203729
-0.00346427
-0.00341026
-0.00294871
-0.00214289
-0.00222536
-0.0021623
-0.00190258
-0.00231661
-0.00250567
-0.00246198
-0.00244041
-0.00159837
-0.00196648
-0.00170636
-0.00228088
-0.00186872
-0.00144312
-0.00200859
-0.00208406
-0.00252252
-0.00241905
-0.00309488
-0.00253894
-0.0013033
-0.00140775
-0.00147999
-0.00184324
2.10007e-05
-0.000310953
-0.000655339
-0.000604403
-0.00144508
-0.00188937
-0.0019616
-0.00159885
-0.00140267
-0.000786455
-0.00072214
-0.00105178
-0.00214661
-0.00353286
-0.00357486
-0.00312401
-0.00233977
-0.00251317
-0.00256365
-0.00219657
-0.00251824
-0.00270308
-0.00262228
-0.00268727
-0.00192988
-0.00229316
-0.00203086
-0.00256158
-0.00214729
-0.00173992
-0.00226312
-0.00218901
-0.00272011
-0.00276051
-0.00344767
-0.00285657
-0.00154736
-0.00187559
-0.00179669
-0.00213752
-0.000381948
-0.000637445
-0.00084167
-0.000888775
-0.00188742
-0.00221335
-0.0021727
-0.00170801
-0.00149523
-0.000889537
-0.000784416
-0.0011931
-0.00226992
-0.00365171
-0.00368835
-0.00323977
-0.00254776
-0.00277571
-0.00299103
-0.00247473
-0.00262722
-0.0027987
-0.00271814
-0.00286837
-0.00216884
-0.00259976
-0.00236782
-0.00282362
-0.00243763
-0.00207879
-0.00261186
-0.00236638
-0.00297693
-0.00312015
-0.00386954
-0.0032813
-0.00201726
-0.00242225
-0.00216575
-0.00234401
-0.000786881
-0.000963551
-0.00116947
-0.00132348
-0.0023794
-0.00259684
-0.00235918
-0.00177486
-0.00151336
-0.000932508
-0.000869858
-0.00142756
-0.00246373
-0.0038366
-0.00381023
-0.00332411
-0.00273425
-0.00306111
-0.00338932
-0.0027243
-0.00276453
-0.00291013
-0.00283607
-0.00305943
-0.00238044
-0.00288714
-0.00266793
-0.00311735
-0.00279152
-0.00238808
-0.00285227
-0.00260286
-0.00327474
-0.00359698
-0.00440446
-0.00384142
-0.00279737
-0.00297032
-0.00257275
-0.00258352
-0.00124882
-0.00132813
-0.00168522
-0.00189103
-0.00289075
-0.00292934
-0.00253577
-0.00185101
-0.00146455
-0.00100215
-0.00111531
-0.00177483
-0.00277745
-0.00415006
-0.00406402
-0.0034848
-0.0030203
-0.0034339
-0.00374471
-0.00295077
-0.00291196
-0.00306461
-0.0030325
-0.00327342
-0.0026271
-0.00324694
-0.00309775
-0.00336644
-0.00316564
-0.00265255
-0.00300794
-0.00284521
-0.00353917
-0.00411712
-0.00494136
-0.00449919
-0.00376421
-0.00354525
-0.0028936
-0.00289043
-0.00179581
-0.0018097
-0.0021991
-0.00243378
-0.00332863
-0.0031748
-0.00269145
-0.00203499
-0.00152022
-0.00125714
-0.00148039
-0.0022289
-0.00331105
-0.00451979
-0.0043584
-0.00382218
-0.00340686
-0.0039125
-0.00400858
-0.00304571
-0.00292643
-0.00325693
-0.00325631
-0.00342392
-0.0029194
-0.00362384
-0.00344057
-0.00349815
-0.00342695
-0.00290478
-0.00320017
-0.00309861
-0.00372931
-0.00451742
-0.00540792
-0.00519638
-0.00458667
-0.00402279
-0.00315297
-0.00319184
-0.0024414
-0.00242601
-0.00268516
-0.00297917
-0.00373279
-0.00350953
-0.00289763
-0.00233969
-0.00177138
-0.00162602
-0.00184762
-0.00271794
-0.00394335
-0.00491328
-0.00477466
-0.00429756
-0.00382162
-0.00434935
-0.00420355
-0.00298063
-0.00289344
-0.0034214
-0.00340164
-0.00343002
-0.00316586
-0.00393037
-0.00350801
-0.00359442
-0.00364639
-0.00314594
-0.00330927
-0.00335525
-0.00384528
-0.00482416
-0.00586659
-0.00581875
-0.00521578
-0.00460235
-0.00359613
-0.00339525
-0.00307088
-0.00306329
-0.00317488
-0.00333224
-0.00396454
-0.00384089
-0.00319441
-0.00259556
-0.00215942
-0.00184868
-0.00193297
-0.00292328
-0.00420639
-0.00535726
-0.00532122
-0.0046794
-0.00404788
-0.00452497
-0.0042918
-0.00293291
-0.00279785
-0.00343926
-0.00335503
-0.00324829
-0.00329107
-0.00399726
-0.00339397
-0.00368321
-0.00380619
-0.00330897
-0.00336032
-0.00351116
-0.00396985
-0.00500444
-0.00615641
-0.00617213
-0.00565378
-0.00520007
-0.00411499
-0.00365582
-0.00363338
-0.00355452
-0.0036064
-0.00377179
-0.00412028
-0.00398781
-0.0032624
-0.00265477
-0.00244634
-0.00191865
-0.0017091
-0.0026991
-0.00405544
-0.00541696
-0.00547291
-0.00473789
-0.00392816
-0.00431364
-0.00414941
-0.0029226
-0.00256676
-0.00317821
-0.00302585
-0.00301457
-0.00331131
-0.00400464
-0.00347815
-0.00364978
-0.00369324
-0.00339967
-0.00346529
-0.00358492
-0.00383946
-0.00473676
-0.00600584
-0.00601894
-0.00555455
-0.00511597
-0.0042393
-0.00376316
-0.00360655
-0.00349485
-0.00356178
-0.00382676
-0.00415731
-0.00411087
-0.00321309
-0.00255246
-0.00246224
-0.00193106
-0.00165178
-0.00280701
-0.00419394
-0.00516329
-0.00508384
-0.00427759
-0.00378435
-0.00398013
-0.00381286
-0.00290761
-0.00255852
-0.00306458
-0.00277455
-0.0029952
-0.00337087
-0.00389727
-0.00327658
-0.00317788
-0.00319729
-0.00307223
-0.00329953
-0.00315707
-0.00311245
-0.0038517
-0.00500744
-0.00505552
-0.00474681
-0.00468292
-0.00412698
-0.00363101
-0.00322175
-0.00315071
-0.00317712
-0.00343915
-0.00395388
-0.00379794
-0.00280564
-0.00219597
-0.00198881
-0.00170951
-0.0014585
-0.00284903
-0.0043814
-0.00495113
-0.0048291
-0.00406284
-0.0034276
-0.00355084
-0.00339784
-0.00285989
-0.00260604
-0.00317717
-0.00305222
-0.00323793
-0.00355597
-0.00326094
-0.00277671
-0.00287299
-0.00266916
-0.00260536
-0.00308499
-0.00276593
-0.00255081
-0.0030716
-0.00387074
-0.00397854
-0.00373926
-0.00379415
-0.00362608
-0.00334678
-0.00309114
-0.00304795
-0.00310486
-0.00353331
-0.00429009
-0.0039294
-0.00283224
-0.00197028
-0.00190016
-0.00201631
-0.00203474
-0.00309467
-0.00375388
-0.00400156
-0.00420997
-0.0038243
-0.00310569
-0.00312096
-0.00336591
-0.00321357
-0.00316559
-0.00351151
-0.00343496
-0.00341231
-0.00332306
-0.00243335
-0.00233223
-0.00243061
-0.00221992
-0.00247596
-0.00280462
-0.0022335
-0.00201897
-0.00234979
-0.00290373
-0.00302253
-0.00278935
-0.00274809
-0.00270987
-0.00258655
-0.00248268
-0.00235036
-0.00219685
-0.002795
-0.00388185
-0.00371879
-0.00292995
-0.00185019
-0.0015441
-0.00189596
-0.00250155
-0.00321904
-0.00331778
-0.0031483
-0.00343211
-0.00332399
-0.00302988
-0.002999
-0.00328018
-0.0035644
-0.00353767
-0.00351323
-0.00337676
-0.00297037
-0.00260973
-0.0014633
-0.00104709
-0.00113821
-0.00135682
-0.00135069
-0.00121741
-0.00101575
-0.00123042
-0.00147791
-0.00149681
-0.00169598
-0.00173344
-0.001908
-0.00234345
-0.002667
-0.00247305
-0.00225942
-0.00204358
-0.00244665
-0.00340352
-0.00339341
-0.00284657
-0.00169336
-0.00113721
-0.00153298
-0.00225546
-0.00272085
-0.00248056
-0.00244848
-0.00259059
-0.00241648
-0.00248639
-0.00248432
-0.00246406
-0.00278627
-0.0026239
-0.00237603
-0.00228244
-0.00208689
-0.00189824
-0.00134099
-0.000770864
-0.000804144
-0.00092971
-0.000800102
-0.000556335
-0.000541143
-0.00080868
-0.000757225
-0.000666367
-0.00114878
-0.00140694
-0.00154354
-0.00219187
-0.00259047
-0.0022679
-0.00203451
-0.00193898
-0.00270594
-0.00349147
-0.00336093
-0.00294834
-0.00207722
-0.00168924
-0.00207176
-0.00231937
-0.00226393
-0.00230923
-0.00267023
-0.00238385
-0.00204625
-0.00205219
-0.00172957
-0.00150988
-0.00185234
-0.00178209
-0.00195911
-0.00211316
-0.00189974
-0.00190223
-0.000615299
-0.000424877
-0.000362033
-0.000622854
-0.000481356
-5.59916e-05
-0.000164385
-0.000549876
-0.000385391
-0.000286145
-0.000989522
-0.00175957
-0.00224214
-0.00272424
-0.00261253
-0.00193551
-0.00129946
-0.000968845
-0.00155535
-0.00234021
-0.00242531
-0.00177154
-0.000517563
-0.000526797
-0.00122563
-0.00139922
-0.00143684
-0.00176593
-0.0018899
-0.00165527
-0.00159811
-0.00140081
-0.000846922
-0.00090256
-0.00119748
-0.00105231
-0.00124327
-0.00126126
-0.00122754
-0.00100669
-0.000417509
3.12468e-05
-0.000238355
-0.000492857
-0.000179808
0.000117858
-0.000174764
-0.000643072
-0.000567664
-0.000660302
-0.00113405
-0.00187696
-0.00253396
-0.0030192
-0.00281754
-0.00235185
-0.00216661
-0.0020258
-0.00222618
-0.00273893
-0.00255693
-0.0018491
-0.00114506
-0.000960985
-0.000912368
-0.00118019
-0.00176087
-0.00214286
-0.00179908
-0.00163911
-0.00138425
-0.00115572
-0.000917965
-0.00102413
-0.00121656
-0.00134131
-0.00158984
-0.00169329
-0.00159622
-0.001098
-0.000208554
4.45947e-05
-0.000377454
-0.00108667
-0.00125602
-0.000973005
-0.000923531
-0.00113195
-0.0014068
-0.00188637
-0.00186165
-0.00161628
-0.00138837
-0.00140967
-0.0010698
-0.00110521
-0.0014232
-0.00151952
-0.00217002
-0.002603
-0.00213335
-0.0015047
-0.00116898
-0.00103053
-0.000902506
-0.00118055
-0.0013421
-0.00165742
-0.00191091
-0.00188514
-0.00145928
-0.000897895
-0.000431696
-0.00050081
-0.000786371
-0.000752342
-0.000557809
-0.00104611
-0.00125896
-0.000837526
-0.0010389
-0.000909439
-0.00110372
-0.00133397
-0.00127587
-0.00107004
-0.000779974
-0.00101481
-0.000883619
-0.00111842
-0.0014976
-0.00160166
-0.00152707
-0.00166204
-0.00155018
-0.00140045
-0.00114754
-0.000880849
-0.00140363
-0.00171775
-0.00188067
-0.00173502
-0.00154227
-0.00150829
-0.00174278
-0.00168749
-0.00156335
-0.00165902
-0.00188386
-0.00208051
-0.00188152
-0.00131144
-0.000842894
-0.000562564
-0.000189975
-0.000272463
-0.000663825
-0.00162208
-0.0020341
-0.00160323
-0.000643183
-0.000510513
-0.000522649
-0.000586326
-0.000522827
-0.000607816
-0.000448093
-0.000561913
-0.000690674
-0.000576486
-0.000398823
-0.000832641
-0.00136522
-0.00120232
-0.000800443
-0.000857125
-0.000737416
-0.000560868
-0.00111656
-0.00142106
-0.00141453
-0.00134743
-0.000792478
-0.000265761
-0.000377057
-0.000864316
-0.00138937
-0.00150145
-0.00152867
-0.0014593
-0.00128482
-0.000832672
-8.53371e-05
0.000465933
0.000438513
0.000131206
-0.000484518
-0.00116414
-0.00135854
-0.00103658
4.37488e-05
-0.000186034
-0.00093552
-0.00159051
-0.00161113
-0.00146164
-0.0017648
-0.00178856
-0.00140575
-0.0013828
-0.00196686
-0.00217253
-0.00207952
-0.00174764
-0.00114881
-0.000997045
-0.00106125
-0.00130812
-0.00156228
-0.00192388
-0.00196802
-0.00155809
-0.00122853
-0.000874982
-0.000813423
-0.0010367
-0.00131968
-0.00149289
-0.00122021
-0.000887791
-0.000809636
-0.00082566
-0.000677462
-0.000510462
-0.000820605
-0.00088616
-0.0011297
-0.00125151
-0.000877106
-0.000183002
0.00159582
0.00071145
0.000163346
6.90314e-05
-1.84421e-05
-0.000398061
-0.000936211
-0.000599446
0.00021467
-7.10373e-05
-0.000682845
-0.000236142
0.000265477
0.000235099
0.00038899
0.000345901
0.000112687
-7.72502e-05
-0.000244329
-0.000197212
-8.69793e-05
0.00012584
2.88998e-05
5.96716e-05
0.00048962
0.000177809
-0.000308728
-0.000209065
0.000984954
0.00142324
0.000639688
0.000328678
0.00064171
0.000605841
0.00049668
0.000562405
0.000385787
0.000548737
0.00102263
0.00172222
0.000520953
3.03534e-07
0.000218358
0.000470034
-0.000483673
-0.00127162
-0.000444902
0.000539542
0.000543552
0.000160517
-0.000652373
-0.00124935
-0.000925133
-0.000502609
-0.000297746
-0.000548747
-0.000309458
-0.000134736
-0.000231312
1.90529e-05
0.000337456
0.000728488
0.000940571
0.00104994
0.00118423
0.000983506
0.000380464
5.9698e-05
0.00024315
0.000236997
-0.000108573
-0.000251681
0.000527236
0.00119033
0.00112232
0.000280872
0.000130709
0.000277415
0.000441606
0.000795828
-0.000259501
0.000428753
0.000646674
0.000297543
-0.000357081
-0.000704321
-0.000374187
0.00013768
-3.16681e-05
-0.000647219
-0.00115077
-0.00122894
-0.00120454
-0.000969869
-0.000773833
-0.0010612
-0.00128646
-0.00160356
-0.00211823
-0.00234755
-0.00259881
-0.00261562
-0.00155772
-0.000817627
-0.000927266
-0.00106359
-0.000864848
-0.000301303
-0.000269067
-0.00032212
-0.00050368
-0.000225072
0.000548057
0.000759771
-0.000454281
-0.00165452
-0.00144929
-0.00139329
-0.00101986
-0.000709039
-4.74475e-05
-0.000741105
-0.00194814
-0.00290504
-0.00256726
-0.00172838
-0.00124207
-0.000695615
-0.000388416
-0.000807616
-0.00114591
-0.000988728
-0.000685575
-0.000546882
-0.000591452
-7.24514e-05
-4.43362e-05
-0.000341992
-0.00070475
-0.000798527
-0.000741062
-0.000821662
-0.000635076
-0.00130301
-0.00234299
-0.00198042
-0.00114659
-0.000765867
-0.000768289
-0.000488257
-0.000243728
0.000300092
0.000680564
0.000326481
0.000176865
0.000539595
0.000630745
0.000450657
0.00033313
0.00037415
-0.000455959
-0.000739304
-0.00151668
-0.0017722
-0.00143424
-0.00136867
-0.00178619
-0.00219341
-0.00277245
-0.0030583
-0.0024032
-0.00191165
-0.00215812
-0.00175336
-0.00127221
-0.00168622
-0.00236692
-0.0023077
-0.00202954
-0.00210492
-0.00260862
-0.00247041
-0.00234586
-0.00267474
-0.00249639
-0.00212347
-0.00216071
-0.00283732
-0.00306735
-0.00262815
-0.00199351
-0.00124198
-0.000942969
-0.00184664
-0.00239378
-0.00212264
-0.00184548
-0.00155175
-0.000912214
-0.000669424
-0.00239261
-0.00240778
-0.00211458
-0.00154899
-0.000897267
-0.000150454
-0.000217658
-0.00107307
-0.00189045
-0.0024515
-0.00259914
-0.00236845
-0.00169747
-0.00116329
-0.00182451
-0.00285495
-0.00303154
-0.00301029
-0.00261977
-0.00226211
-0.00190577
-0.00131822
-0.000974562
-0.00109723
-0.00146656
-0.00185682
-0.00201036
-0.00213752
-0.00230026
-0.00285072
-0.00337382
-0.00334409
-0.00248252
-0.00242177
-0.00209671
-0.00194283
-0.00241897
-0.00312143
-0.00307759
-0.00259817
-5.35637e-05
0.000150884
0.000181923
0.000722503
0.00137203
0.000655659
0.000234294
0.000250165
0.00019166
0.000186798
0.000933517
0.000995298
0.000974486
0.00119259
0.00147182
0.0015301
0.00174057
0.000883136
0.000187249
0.000854716
0.00174482
0.00141749
0.000705634
0.000703844
0.00149714
0.00154949
0.00158126
0.00122847
0.00194874
0.00262255
0.00182346
0.00134169
0.000942329
0.000790135
0.0016332
0.00099738
-0.000579143
-0.000650791
-0.000529687
-0.000715764
0.00431154
0.0035879
0.0036317
0.00507663
0.00621119
0.00575217
0.00467018
0.00497333
0.00699252
0.00776587
0.00669671
0.00641172
0.00663232
0.00634249
0.00649372
0.00692401
0.00579033
0.00412708
0.00443532
0.00594956
0.0060726
0.00553179
0.00520679
0.00466698
0.00530544
0.00673826
0.00727797
0.00817028
0.00872846
0.00955684
0.0097828
0.00865556
0.00704002
0.00564479
0.00470679
0.00361979
0.00407037
0.00535336
0.0055824
0.0048627
0.00766306
0.00816225
0.00872605
0.00856266
0.00902555
0.00845379
0.00814455
0.00830298
0.00904389
0.00908766
0.00849531
0.00832563
0.00766765
0.0071979
0.00744971
0.00867425
0.00909719
0.00909328
0.00947452
0.00955501
0.00873771
0.00845183
0.00901911
0.00889398
0.00848442
0.008966
0.00890697
0.00892436
0.00898238
0.0079899
0.00759514
0.00749033
0.00787595
0.00743791
0.00744204
0.00764693
0.0073688
0.00750178
0.00665968
0.00711006
0.00760571
0.00810011
0.00867594
0.00851377
0.00897424
0.00840165
0.00809598
0.00826943
0.00899159
0.00903644
0.00844949
0.00827288
0.00759923
0.00712904
0.00739027
0.00859193
0.00902443
0.00903236
0.00942328
0.00949334
0.00867316
0.00840487
0.00896218
0.00882742
0.00841769
0.00891984
0.00886436
0.00887857
0.00893818
0.00795168
0.00756124
0.00744683
0.00782766
0.0073756
0.00739166
0.00759887
0.00731881
0.00745973
0.00660185
0.00703963
0.00738434
0.00787032
0.00848088
0.00831033
0.00876381
0.00817966
0.00787423
0.0080977
0.00881357
0.00884108
0.00820291
0.00801969
0.00732528
0.00686391
0.0071608
0.00834677
0.00880236
0.00884323
0.00926122
0.00926784
0.00842436
0.00818457
0.00872012
0.00862186
0.00822772
0.00872818
0.00868098
0.00867984
0.00876004
0.00776719
0.00735955
0.00723547
0.00760204
0.00714114
0.00718204
0.00739802
0.00711238
0.00726569
0.00638771
0.00678725
0.00684039
0.00732828
0.00796882
0.00776759
0.00824459
0.00765722
0.00735589
0.00765066
0.00833797
0.00829847
0.00757913
0.00741992
0.00676945
0.0063156
0.00662327
0.00778981
0.00826843
0.00831073
0.00877999
0.0087466
0.00786819
0.00764183
0.00817528
0.00812703
0.00776092
0.00824903
0.0082154
0.00817828
0.00823592
0.00719301
0.00679563
0.00670688
0.00702212
0.00653811
0.00663419
0.00687968
0.00660211
0.00674604
0.00584683
0.00620076
0.00618497
0.00667885
0.00734634
0.00713549
0.0076564
0.00706627
0.00676916
0.0071262
0.00775235
0.00759747
0.00681624
0.00668089
0.00610413
0.00565695
0.00598205
0.00711692
0.00760834
0.00763527
0.0081994
0.00814901
0.00720628
0.0069832
0.00755054
0.00756457
0.00723151
0.00772342
0.0077027
0.00758927
0.00755258
0.00646288
0.00613605
0.00608779
0.00630913
0.00578828
0.00597436
0.00627351
0.00599189
0.00609329
0.00520221
0.00551839
0.00536975
0.00589787
0.00661208
0.00640763
0.00695635
0.0063625
0.00607386
0.00645718
0.00698541
0.00671997
0.00589559
0.00576779
0.00520362
0.00483588
0.00523687
0.00630616
0.00682605
0.00683546
0.00750205
0.00744462
0.00642827
0.00621153
0.00683056
0.00691616
0.00661794
0.00709552
0.00708615
0.00688439
0.00672524
0.00562838
0.00537965
0.00536273
0.00546843
0.00489941
0.00518454
0.00556757
0.00526485
0.00533778
0.00447977
0.0047227
0.00449386
0.00505678
0.00577716
0.00560627
0.00616558
0.0055804
0.00530259
0.0056722
0.0061494
0.00577799
0.0049266
0.00477528
0.0041519
0.00395946
0.00446474
0.00541984
0.00600671
0.00598673
0.00672923
0.00665923
0.00560093
0.00538323
0.00606099
0.00625441
0.00600617
0.00639527
0.00635196
0.00606881
0.00580873
0.00476681
0.00456605
0.00457875
0.00455167
0.00397475
0.00428505
0.00474234
0.00447663
0.00457837
0.00375511
0.00385363
0.0036361
0.00420714
0.00489356
0.00479908
0.00535386
0.00477405
0.00448963
0.00486303
0.00532193
0.00482233
0.00396337
0.00371368
0.00313434
0.00319773
0.00369595
0.00447263
0.00516076
0.00517831
0.00596001
0.00579735
0.00470096
0.00448899
0.00529655
0.00557327
0.00532599
0.00563912
0.00547126
0.00512471
0.00475009
0.00381575
0.00360558
0.00364065
0.00361706
0.00311268
0.00340106
0.00383515
0.00364899
0.0038156
0.00303187
0.00296767
0.00289233
0.00341689
0.00412769
0.00409322
0.00454519
0.00398746
0.00368743
0.00410433
0.00454097
0.00393867
0.00312921
0.00275544
0.00237117
0.00266925
0.00305006
0.00363973
0.00441481
0.00455086
0.00525104
0.00495108
0.00382236
0.00359575
0.00457823
0.00493451
0.00464127
0.00484446
0.00456792
0.00410056
0.00369313
0.00297569
0.00269427
0.00266627
0.00271373
0.00237095
0.0026538
0.00302352
0.00290823
0.00310884
0.00235825
0.00222189
0.00214711
0.00273121
0.00353293
0.00334631
0.00370764
0.00328571
0.00304384
0.0033997
0.00379679
0.00313463
0.00240125
0.00208853
0.00198146
0.00231798
0.0025413
0.00309425
0.00381918
0.00399392
0.00448554
0.00413016
0.00295294
0.00277417
0.00385296
0.00439657
0.00412295
0.00403532
0.00354453
0.00308886
0.00275397
0.002183
0.00193957
0.00190247
0.00202037
0.00182857
0.0020974
0.00242416
0.00224675
0.00238228
0.00174698
0.00149868
0.00152548
0.00225975
0.00300994
0.00260456
0.00300973
0.00287982
0.00267135
0.00283481
0.00299526
0.00232052
0.00175591
0.0017037
0.0018627
0.00218805
0.00228235
0.00285735
0.00336651
0.00344887
0.00379263
0.0034332
0.00227125
0.00214113
0.00321505
0.00391546
0.00371376
0.00338651
0.00267986
0.00233749
0.00210182
0.0015449
0.0013796
0.00143795
0.00176289
0.00161422
0.00182814
0.0020746
0.00176058
0.00176247
0.00124753
0.000886832
0.000968404
0.00164787
0.00233915
0.00200656
0.00250593
0.00257493
0.00245164
0.0024193
0.00233062
0.0017111
0.00140783
0.00152549
0.00178962
0.00207082
0.00205472
0.00260994
0.00312182
0.00309821
0.00323464
0.00268641
0.00165076
0.00157645
0.00247299
0.00332104
0.00321725
0.0028502
0.00216032
0.00167031
0.00150486
0.00126192
0.0011844
0.00140045
0.00185399
0.00163336
0.00171075
0.0018107
0.00138706
0.00125647
0.000759645
0.000452668
0.00073884
0.00117438
0.00166833
0.00143788
0.00198762
0.00213475
0.0020593
0.00196756
0.00178659
0.00122051
0.00130421
0.00160303
0.00172967
0.00178289
0.00184541
0.00244683
0.00286046
0.00287282
0.00266191
0.00207708
0.00115151
0.000894917
0.00145529
0.00247079
0.00269635
0.00270743
0.00201213
0.00129993
0.00101043
0.000965573
0.00130532
0.00157096
0.00183079
0.00168496
0.0016036
0.0015056
0.000940575
0.000763909
0.000379426
0.000223279
0.000698277
0.000835979
0.00105175
0.000942539
0.00180183
0.00221077
0.00207103
0.0015918
0.00125583
0.00103961
0.0013803
0.0016494
0.00170935
0.00167814
0.00191291
0.00246063
0.00229453
0.00205814
0.00180442
0.00133275
0.000696413
0.000508651
0.00101539
0.00207532
0.00241958
0.00266716
0.00196957
0.00125071
0.000824123
0.000478731
0.000726099
0.00122347
0.00145966
0.00154876
0.00148579
0.00118064
0.00045667
0.000201431
-4.06433e-05
0.000218967
0.00100942
0.000843291
0.00105372
0.00126474
0.00211626
0.00243961
0.0021264
0.00151617
0.00123551
0.00139652
0.00156346
0.00138074
0.00149435
0.00170777
0.00198743
0.00219061
0.00162408
0.00119031
0.00110735
0.000830497
0.000236782
0.000324348
0.000981622
0.00190935
0.00186249
0.00165274
0.00102778
0.00089177
0.000940031
0.000657954
0.00041181
0.000924352
0.00136315
0.00146093
0.0014479
0.00114946
0.000378292
0.000141445
0.000188558
0.000740245
0.00113769
0.000814449
0.00129731
0.00159356
0.00206521
0.00208868
0.00207072
0.0018392
0.00129664
0.0011364
0.00128103
0.00113388
0.00143884
0.00186911
0.00200066
0.00193616
0.0015058
0.00115549
0.0010988
0.00088359
0.000314323
0.000470484
0.000897921
0.0015756
0.00153903
0.00124721
0.000973161
0.00102305
0.00124681
0.000797199
0.000406208
0.000733565
0.00123978
0.00150538
0.00158682
0.00138107
0.000855943
0.000774858
0.000871183
0.00113294
0.000821236
0.000628802
0.00111222
0.00150327
0.00215942
0.0020768
0.00188951
0.00169349
0.00119523
0.000889248
0.00106762
0.00121704
0.00136279
0.00145296
0.00171662
0.00194766
0.0018487
0.00129559
0.000939896
0.000766144
0.000598511
0.000825175
0.00115706
0.00134861
0.00121727
0.00111441
0.00110069
0.00113615
0.000999484
0.000509248
0.000243607
0.000732421
0.0013601
0.00173243
0.00194016
0.00186861
0.00155251
0.00119432
0.000851992
0.00083584
0.000914117
0.000612902
0.00107646
0.0015136
0.00230019
0.00260035
0.00249473
0.0021212
0.0016949
0.00129373
0.0010095
0.00084786
0.000865373
0.000891594
0.00130784
0.00176313
0.00176777
0.00136957
0.00101335
0.00107871
0.00128609
0.00163567
0.00184964
0.00190319
0.00148263
0.00137943
0.00134134
0.000908771
0.000304344
0.000146323
0.000524454
0.00108378
0.00159429
0.00173975
0.00172176
0.00174924
0.00138689
0.000943149
0.00100013
0.00119837
0.000831139
0.000585496
0.000989212
0.00131983
0.00186147
0.00239059
0.00255061
0.00204354
0.00152316
0.00132652
0.00122497
0.00104062
0.000922899
0.000782116
0.000863444
0.0011482
0.00128845
0.00133946
0.0010898
0.000950719
0.0011463
0.0014935
0.00176055
0.00192125
0.0018415
0.00173488
0.00158635
0.000890183
-4.62404e-05
-0.00017198
0.000216306
0.000623268
0.00117304
0.00172208
0.00158723
0.00131958
0.00113443
0.00104509
0.00132602
0.00136847
0.00133978
0.0014524
0.00136375
0.0012917
0.00182894
0.00242062
0.00246359
0.00183937
0.00174191
0.00204836
0.00178561
0.00121379
0.000892299
0.000857581
0.000986383
0.00098039
0.000710047
0.000750124
0.000580752
0.000194024
0.000173657
0.000614368
0.00116278
0.00178267
0.00218483
0.00218623
0.00190248
0.00137351
0.000670082
0.000338673
0.000599101
0.00080326
0.000873401
0.00131338
0.00127422
0.000878586
0.000810886
0.00104727
0.00125064
0.00124085
0.00250929
0.00233345
0.00161538
0.0012036
0.00197473
0.00257692
0.00201932
0.00129563
0.00149973
0.00207161
0.00174087
0.00105695
0.000954799
0.0010543
0.00092609
0.000717668
0.000717211
0.00111183
0.0011605
0.000401088
-0.000116085
0.000228374
0.000867656
0.00149813
0.00230483
0.00250187
0.00200529
0.00140391
0.0010612
0.000978305
0.00122863
0.00163136
0.00186247
0.00193355
0.00171695
0.00145748
0.001559
0.00165396
0.00168071
0.00199625
0.00167887
0.00137889
0.000949894
0.000976945
0.00154356
0.00185558
0.00157656
0.00147749
0.00173079
0.00194652
0.00152367
0.000952864
0.000740491
0.000401931
0.000328691
0.000644346
0.00112106
0.00135247
0.00101663
9.43228e-05
-0.000461479
-0.000116319
0.000334784
0.000605498
0.000991188
0.000922093
0.000744302
0.000538616
0.000512652
0.000415243
0.000319266
0.000391958
0.000753531
0.00108621
0.00126869
0.00131322
0.0010749
0.00068201
0.000712932
0.00132591
0.00151953
0.00149592
0.00141902
0.00131923
0.00120286
0.00116985
0.00140053
0.00158058
0.00165824
0.00174917
0.00173061
0.0013998
0.000905332
0.000603878
0.000801512
0.000985781
0.000832111
0.000641679
0.000495379
0.000346024
9.27225e-05
-0.000249282
-0.000241542
0.000202302
0.000538296
0.000533654
0.000438761
0.000326389
0.000310422
0.000322642
0.000133069
0.000201786
0.000909332
0.00141525
0.00167486
0.00174614
0.00128358
0.000917165
0.00100875
0.00141619
0.00195158
0.00190504
0.00194919
0.00172867
0.00159912
0.00146691
0.00143071
0.00127414
0.0012387
0.00107199
0.000728695
0.000611728
0.000568465
0.000281926
0.0003466
0.0006678
0.000698979
0.00043028
0.000117403
5.72999e-05
-0.000228018
-0.000489427
-0.00027964
6.57858e-05
0.000261569
0.00012042
-0.000138875
-0.000217982
-0.000345294
-0.000446506
-0.000514595
-0.000147837
0.000261213
0.000563076
0.0010779
0.0015181
0.00160067
0.00157847
0.00156732
0.00186485
0.00208574
0.00164362
0.00123666
0.00145301
0.00187056
0.00139994
0.000803261
0.00090326
0.00134152
0.001377
0.000737276
0.000165559
-0.000240115
-0.000268425
0.000359218
0.000706818
0.000410422
0.000244348
0.000213952
0.000255584
7.30849e-05
0.000474228
0.00148555
0.00182352
0.001737
0.00139142
0.000828569
0.000658889
0.000875308
0.000408621
7.264e-05
0.000910804
0.00209381
0.00275956
0.0028046
0.00235317
0.00184598
0.00157994
0.00167431
0.00210184
0.00109676
0.00066717
0.000175769
-0.000249079
-0.000709318
-0.00118941
-0.00144161
-0.00115708
-0.000531195
-3.30566e-05
-0.0001397
-0.00035006
-0.000348383
0.00011302
0.000851066
0.00119229
0.00111348
0.000991061
0.00101511
0.000968526
0.000823289
0.00114658
0.00169353
0.00160697
0.00194173
0.00191962
0.00117552
0.00057112
0.000483378
0.000406903
0.000373292
0.000747357
0.00137023
0.00169917
0.00172631
0.00136998
0.00101207
0.000810961
0.000911876
0.00121376
0.00165744
0.00163465
0.000961565
0.000334753
8.88255e-05
-0.000420744
-0.000151309
0.000784118
0.000879091
0.00021989
-5.23127e-05
0.000411963
0.000268811
4.08707e-05
0.000483915
0.000790602
0.000757278
0.000477322
6.16573e-05
-0.000403858
-0.000273208
0.000355239
0.00052272
0.000276453
0.000278053
-0.000125664
-0.000252079
-0.000171653
-6.04247e-06
-0.000134723
-0.000283883
-0.0004084
-0.00037121
0.000185291
0.000913248
0.00121427
0.000843201
0.000672084
0.00118819
0.00158579
7.80839e-05
-0.000377699
-0.00143451
-0.00187597
-0.00100328
-0.000480607
-0.000618385
-0.000193302
-0.000131339
-0.00119422
-0.00147365
-0.000902474
-0.00154113
-0.00210137
-0.00202454
-0.00187564
-0.00130113
-0.000516354
-0.000712504
-0.00116756
-0.00099154
-0.000611119
-0.000577857
-0.00109343
-0.00225206
-0.0026675
-0.00209511
-0.00162474
-0.00171083
-0.0019984
-0.00115256
-0.00010679
-1.63827e-05
0.000302795
0.000512297
-0.000509391
-0.00171703
-0.00141797
-0.000277444
0.00027025
-0.00130692
-0.0011165
-0.00160374
-0.00165097
-0.000568488
-0.000328175
-0.000164432
0.000552545
-0.000112663
-0.000855174
-0.000274748
0.00023862
0.000334047
0.000921661
0.000544504
-0.000506616
-0.000702501
-0.000532638
-0.000132141
-0.000144705
-0.000425614
-0.000197698
-2.31237e-05
0.000238845
0.00025713
0.00018215
0.000107393
-0.000752245
-0.00156936
-0.00145618
-0.000451788
0.000201192
5.31029e-05
-0.000707557
-0.00149959
-0.00181348
-0.00158426
-0.000737945
-0.000539022
-0.000955956
-0.00350359
-0.00391836
-0.00421333
-0.00420487
-0.00428732
-0.00394209
-0.00214776
-0.00081723
-0.00119839
-0.00126747
-0.000972323
-0.00140357
-0.00181191
-0.00190232
-0.00262107
-0.00322136
-0.00346103
-0.00360057
-0.0030343
-0.0024146
-0.00157212
-0.000557706
-0.000319131
-0.000681611
-0.00121544
-0.00162934
-0.00182927
-0.00193616
-0.0018299
-0.0017777
-0.00282932
-0.00342215
-0.0032818
-0.00391862
-0.00334243
-0.00217362
-0.00252411
-0.00378269
-0.00390102
-0.00351856
0.00148966
0.000796422
-0.00111466
-0.00178737
-3.68542e-05
0.000791813
0.000971256
0.000218865
-0.00129829
-0.000792652
-0.000190806
-0.000921844
0.000200335
0.00136319
0.000822875
0.000502197
0.000411621
-0.000119246
-0.00150536
-0.00128064
0.000257665
0.00110104
0.000885518
0.00188201
0.000668336
-4.69628e-06
0.000435819
-0.000407219
-0.00141186
-0.00111187
-0.000123193
0.00125015
0.00113264
0.000487008
0.00252601