/*--------------------------------*- C++ -*----------------------------------*\
  =========                 |
  \\      /  F ield         | OpenFOAM: The Open Source CFD Toolbox
   \\    /   O peration     | Website:  https://openfoam.org
    \\  /    A nd           | Version:  10
     \\/     M anipulation  |
\*---------------------------------------------------------------------------*/
FoamFile
{
    format      ascii;
    class       volVectorField;
    location    "30";
    object      U_0;
}
// * * * * * * * * * * * * * * * * * * * * * * * * * * * * * * * * * * * * * //

dimensions      [0 1 -1 0 0 0 0];

internalField   nonuniform List<vector> 
102400
(
(0.700667 0.00208598 0.433306)
(0.636239 0.00131793 0.400406)
(0.573759 0.00528877 0.275495)
(0.716344 0.00309815 0.292908)
(0.672517 0.00131035 0.343921)
(0.65117 0.00108674 0.358662)
(0.689204 0.0010468 0.348426)
(0.667413 0.00324756 0.376234)
(0.622558 0.00458933 0.393125)
(0.594791 0.00148931 0.366287)
(0.635181 0.000163117 0.368164)
(0.640094 0.0023209 0.385974)
(0.638493 0.00113701 0.375663)
(0.667328 0.00125647 0.348514)
(0.6692 0.00231875 0.381671)
(0.639855 0.00133968 0.388161)
(0.645312 0.00146635 0.386537)
(0.634165 0.0016076 0.397389)
(0.650019 0.00238276 0.413426)
(0.637299 0.00324845 0.367764)
(0.593201 0.00245096 0.42143)
(0.617949 0.00117214 0.406914)
(0.642599 0.00123647 0.382423)
(0.649559 0.00285361 0.425941)
(0.624141 0.00292531 0.429575)
(0.583348 0.00149633 0.371826)
(0.652095 0.000432752 0.375125)
(0.664605 0.00172353 0.404165)
(0.642365 0.0017973 0.378519)
(0.653354 0.00227814 0.343189)
(0.644775 0.00255992 0.379966)
(0.650552 0.00243612 0.410931)
(0.623896 0.00259784 0.393403)
(0.615759 0.00250254 0.398751)
(0.606615 0.0026293 0.396932)
(0.641333 0.00207253 0.377293)
(0.681231 0.00217737 0.373544)
(0.665949 0.0022567 0.394446)
(0.617296 0.00198473 0.395089)
(0.621647 0.00334044 0.35305)
(0.755973 6.62228e-05 0.410244)
(0.633783 0.0129052 0.316653)
(0.442653 -0.0202653 0.14154)
(0.905302 -0.0193878 0.146814)
(0.735402 -0.00251649 0.22319)
(0.641127 -0.00236521 0.265784)
(0.74282 0.000235387 0.25919)
(0.625135 0.0145043 0.324248)
(0.615002 0.0134254 0.318308)
(0.514229 -0.00163883 0.289984)
(0.601307 -0.000501836 0.282774)
(0.612964 0.00379331 0.318626)
(0.572662 -0.00158272 0.314576)
(0.675342 -0.00138444 0.247155)
(0.693843 0.00706174 0.313211)
(0.62329 0.00301995 0.329574)
(0.631887 0.00565263 0.330229)
(0.587618 0.00558444 0.346854)
(0.62383 0.005833 0.372356)
(0.644753 0.00859133 0.291442)
(0.484677 0.00431885 0.37745)
(0.52518 -0.00207077 0.350796)
(0.593705 0.000805022 0.327928)
(0.610906 0.00753533 0.40099)
(0.572423 0.00742316 0.388328)
(0.496177 -0.00722621 0.311811)
(0.631431 -0.00811342 0.31121)
(0.656356 0.00313215 0.376809)
(0.610175 0.00331038 0.296103)
(0.656195 0.00522021 0.21239)
(0.633836 0.00755345 0.310182)
(0.663663 0.00695522 0.352977)
(0.569342 0.00610159 0.340451)
(0.562854 0.00863173 0.347845)
(0.562114 -0.000580292 0.338049)
(0.616705 -0.00215926 0.282534)
(0.708092 0.00426724 0.292249)
(0.67118 0.00699212 0.353631)
(0.593324 0.00602607 0.311366)
(0.648511 -0.00964213 0.268106)
(0.679538 -0.00878457 0.348889)
(0.682247 0.0169797 0.266524)
(0.295137 -0.0308017 0.0763908)
(0.960744 -0.0393938 0.067975)
(0.793333 -0.00678453 0.154061)
(0.647794 -0.00835176 0.21681)
(0.78138 -0.00251807 0.227295)
(0.504683 0.0245072 0.287047)
(0.666071 0.015178 0.266398)
(0.485066 -0.020005 0.310084)
(0.551131 -0.0065471 0.234011)
(0.566579 -0.00458737 0.290241)
(0.537973 -0.0228252 0.32715)
(0.691273 -0.0167806 0.212974)
(0.692587 0.00779603 0.265604)
(0.594589 -0.000266677 0.285209)
(0.600308 0.00855155 0.275217)
(0.540022 0.00732198 0.299855)
(0.578472 0.00390055 0.300511)
(0.696007 0.0097361 0.238531)
(0.31357 -0.00142626 0.367119)
(0.467405 -0.0205771 0.373157)
(0.518634 -0.00322937 0.304343)
(0.524373 0.00555341 0.371205)
(0.527569 0.00446047 0.330769)
(0.473443 -0.0277422 0.267018)
(0.61315 -0.0252362 0.265837)
(0.640644 0.00206549 0.355982)
(0.548778 -0.00400094 0.246779)
(0.674821 -0.000833519 0.136167)
(0.601591 0.00628399 0.235416)
(0.680013 0.00604066 0.277976)
(0.543358 0.000459699 0.318166)
(0.557968 0.00995644 0.326317)
(0.588357 -0.0137852 0.295877)
(0.609469 -0.0203945 0.249585)
(0.675197 -0.00160158 0.271313)
(0.596827 0.00979218 0.292488)
(0.651129 -0.000518937 0.208701)
(0.775296 -0.0380595 0.247429)
(0.481776 -0.0200242 0.27067)
(0.656941 0.0270382 0.263974)
(0.316887 -0.0132491 0.116035)
(0.974779 -0.0442165 0.0595963)
(0.83061 -0.00293409 0.152966)
(0.652271 -0.00523221 0.185414)
(0.803809 0.00498005 0.20375)
(0.397028 0.0357243 0.264134)
(0.691183 0.020122 0.229061)
(0.51852 -0.0422006 0.323282)
(0.525462 -0.0125514 0.217147)
(0.529045 -0.0127987 0.261588)
(0.57612 -0.0554908 0.316187)
(0.743757 -0.0392694 0.210928)
(0.681994 0.0122177 0.233668)
(0.554938 -0.00128097 0.244576)
(0.557057 0.0125118 0.240377)
(0.506465 0.0125821 0.269357)
(0.545661 0.00253342 0.223774)
(0.695656 0.0157271 0.198979)
(0.228069 -0.00549141 0.364767)
(0.524439 -0.060892 0.415088)
(0.4304 -0.00826347 0.297197)
(0.420615 0.00316358 0.342043)
(0.566714 0.00780199 0.240318)
(0.56007 -0.0368148 0.180848)
(0.677753 -0.0350079 0.202301)
(0.633978 0.0104196 0.317047)
(0.4319 -0.0154299 0.220734)
(0.719166 -0.0134624 0.113911)
(0.588233 0.00688089 0.174021)
(0.646226 0.0030498 0.221645)
(0.556521 -0.000824175 0.31489)
(0.572021 0.0176432 0.314379)
(0.680123 -0.0125193 0.229687)
(0.608494 -0.0322777 0.253132)
(0.566444 -0.00162961 0.277784)
(0.482097 0.0167627 0.196486)
(0.711279 -0.0128824 0.0754031)
(0.890155 -0.0499436 0.213316)
(0.40164 -0.0316693 0.25434)
(0.622278 0.0304637 0.275657)
(0.440372 -0.0181869 0.0503462)
(1.00364 -0.0605082 0.000243304)
(0.874404 0.000500691 0.168182)
(0.678392 -0.0104544 0.170573)
(0.824713 0.00739916 0.183654)
(0.347895 0.046372 0.234541)
(0.68446 0.0195787 0.19311)
(0.615933 -0.0639667 0.286982)
(0.576388 -0.0242193 0.215103)
(0.563198 -0.0152492 0.231242)
(0.576617 -0.0683044 0.247461)
(0.77558 -0.0595143 0.198756)
(0.656068 0.0153213 0.210487)
(0.548228 -0.00389267 0.209095)
(0.522997 0.0110332 0.225857)
(0.483896 0.0153736 0.26004)
(0.531303 -0.000659997 0.177325)
(0.627235 0.0180637 0.166575)
(0.388037 -0.0105556 0.349101)
(0.603821 -0.0852755 0.345039)
(0.381188 -0.0259259 0.300196)
(0.318766 -0.00741039 0.298139)
(0.693347 0.0106783 0.139982)
(0.689607 -0.0292168 0.108169)
(0.78069 -0.0293871 0.137926)
(0.636664 0.0226272 0.277399)
(0.424781 -0.0276813 0.210107)
(0.775908 -0.0328667 0.109294)
(0.616682 0.00365724 0.140677)
(0.580872 -0.00220493 0.195372)
(0.61069 -0.000185583 0.322763)
(0.596823 0.0260059 0.302932)
(0.764386 -0.00634206 0.170273)
(0.571948 -0.0355467 0.265459)
(0.490132 -0.00087229 0.253225)
(0.439374 0.0183414 0.100317)
(0.649715 -0.0221538 -0.00340275)
(0.960347 -0.0580516 0.153491)
(0.523743 -0.0393369 0.238124)
(0.616813 0.0330125 0.274618)
(0.518246 -0.00832914 0.0941686)
(0.955661 -0.0545409 -0.00678011)
(0.874966 0.00718958 0.192055)
(0.763982 -0.0178131 0.183623)
(0.83592 0.00837194 0.16879)
(0.304237 0.0546958 0.2096)
(0.674265 0.0157504 0.164265)
(0.697861 -0.0794673 0.240553)
(0.644156 -0.0329945 0.194162)
(0.658592 -0.00814919 0.206531)
(0.578589 -0.0587292 0.206363)
(0.745022 -0.0600505 0.188868)
(0.545447 0.0225537 0.187572)
(0.580326 -0.00405838 0.192689)
(0.492307 0.0087504 0.214302)
(0.445983 0.0185037 0.257344)
(0.544342 0.00094873 0.165659)
(0.50355 0.00791184 0.129632)
(0.536354 -0.0243359 0.326533)
(0.666364 -0.0747681 0.273485)
(0.434555 -0.0488397 0.327686)
(0.277026 -0.0241652 0.261324)
(0.802613 0.0055954 0.0851107)
(0.722457 -0.0143611 0.095349)
(0.801775 -0.0197279 0.102539)
(0.65707 0.0346281 0.251684)
(0.569561 -0.0249284 0.20239)
(0.835217 -0.0522904 0.116868)
(0.653447 0.00263139 0.136305)
(0.548619 -0.00339804 0.170176)
(0.622179 -0.00375817 0.301834)
(0.626985 0.0364151 0.297712)
(0.824199 0.00475647 0.141776)
(0.542823 -0.0389969 0.255213)
(0.549236 -0.00615564 0.215045)
(0.448968 0.0267261 0.0985714)
(0.547081 -0.0170535 0.01561)
(1.00737 -0.0569452 0.12431)
(0.670317 -0.0387363 0.189546)
(0.652691 0.0371497 0.261241)
(0.64583 -0.00528456 0.139401)
(0.916763 -0.0447988 -0.0262857)
(0.863918 0.00425456 0.196005)
(0.783707 -0.0195831 0.201563)
(0.86313 0.0125958 0.153836)
(0.331953 0.0542498 0.194097)
(0.693679 0.0101183 0.120268)
(0.771351 -0.0863526 0.200087)
(0.705292 -0.0409388 0.172273)
(0.744169 -0.00031415 0.180691)
(0.628705 -0.0477541 0.180629)
(0.709711 -0.049333 0.170351)
(0.399589 0.0268268 0.159563)
(0.655401 -0.00783151 0.202985)
(0.481861 0.00866066 0.199779)
(0.399581 0.0166609 0.251034)
(0.603037 0.0127871 0.188277)
(0.439675 -0.00237237 0.0983608)
(0.638094 -0.0471074 0.268883)
(0.645172 -0.0762233 0.271383)
(0.599145 -0.070551 0.328963)
(0.368816 -0.0416927 0.261327)
(0.826116 -0.00187574 0.102033)
(0.741656 0.00501356 0.101649)
(0.78852 -0.0122037 0.0894502)
(0.671744 0.0346333 0.232388)
(0.679743 -0.0208689 0.211413)
(0.838921 -0.0695198 0.108309)
(0.646801 0.0065577 0.133693)
(0.523806 -0.00293831 0.16425)
(0.491952 -0.0240702 0.279277)
(0.627667 0.0355349 0.289673)
(0.881045 0.0200951 0.142951)
(0.571504 -0.0357545 0.20643)
(0.602543 -0.0185862 0.194838)
(0.548533 0.0429011 0.155091)
(0.574232 0.00168742 0.0321424)
(0.95949 -0.0482544 0.122103)
(0.763895 -0.0349963 0.146838)
(0.674553 0.0268859 0.241193)
(0.775162 0.000958293 0.124217)
(0.856519 -0.0294929 -0.0512687)
(0.970356 -0.00567637 0.160127)
(0.788771 -0.0136702 0.209903)
(0.910348 0.0187511 0.143907)
(0.531842 0.0522768 0.161121)
(0.749396 0.00579303 0.0667708)
(0.857777 -0.0810295 0.155614)
(0.763638 -0.0485272 0.143024)
(0.79302 0.00802661 0.164328)
(0.673393 -0.0326228 0.160429)
(0.710859 -0.0353448 0.125504)
(0.344882 0.0261456 0.136104)
(0.761585 -0.00983496 0.223133)
(0.523161 0.0130411 0.200089)
(0.391588 0.00284818 0.240598)
(0.652243 0.0254187 0.213369)
(0.482027 0.00198515 0.100342)
(0.713448 -0.0543823 0.206635)
(0.644286 -0.0793058 0.245636)
(0.724326 -0.0832668 0.297379)
(0.504692 -0.0497428 0.264101)
(0.783996 -0.0102994 0.149786)
(0.830668 0.0195842 0.114019)
(0.822542 -0.00145541 0.0842417)
(0.629699 0.0335293 0.21621)
(0.690546 -0.0199508 0.252283)
(0.840522 -0.0783302 0.0905776)
(0.689389 0.0144733 0.0881796)
(0.516556 0.0112613 0.181488)
(0.322693 -0.0531484 0.287739)
(0.565921 0.00849986 0.30818)
(0.845166 0.021988 0.177389)
(0.665725 -0.0236279 0.150661)
(0.632957 -0.0344032 0.179268)
(0.619457 0.0467957 0.193071)
(0.645821 0.0219499 0.0480733)
(0.916474 -0.0278359 0.118362)
(0.893201 -0.0189229 0.0859532)
(0.753039 0.0156751 0.199346)
(0.803068 0.00113813 0.105633)
(0.869631 -0.0115328 -0.0403982)
(1.06006 -0.012025 0.13388)
(0.784669 -0.00735748 0.191276)
(0.871142 0.0160248 0.129237)
(0.733849 0.0470289 0.115602)
(0.777745 0.0109328 0.024462)
(0.883569 -0.0749239 0.115693)
(0.812943 -0.052782 0.108051)
(0.804332 0.0186156 0.158743)
(0.698464 -0.0146058 0.153103)
(0.800628 -0.0205465 0.0755644)
(0.43623 0.00686291 0.112221)
(0.865711 -0.019633 0.212157)
(0.582345 0.0253338 0.21489)
(0.469127 -0.0113908 0.240253)
(0.575767 0.0306901 0.217949)
(0.599851 0.00477602 0.101341)
(0.66255 -0.0573651 0.151138)
(0.70093 -0.0797868 0.207186)
(0.717474 -0.0899911 0.273365)
(0.606085 -0.0469207 0.245698)
(0.7063 -0.0192421 0.185105)
(0.881646 0.0228386 0.127084)
(0.842461 0.01011 0.0705748)
(0.640471 0.0206745 0.201839)
(0.785657 -0.032397 0.260536)
(0.86748 -0.0700312 0.0786114)
(0.727647 0.0302337 0.0721594)
(0.492363 0.0478288 0.193387)
(0.307375 -0.0740422 0.251649)
(0.565575 -0.0539647 0.301309)
(0.79864 0.0109347 0.193912)
(0.758636 -0.0139881 0.10001)
(0.658987 -0.0405528 0.14876)
(0.646443 0.0474617 0.183153)
(0.674186 0.0472789 0.0441238)
(0.877133 -0.0133314 0.0873436)
(0.974668 -0.0169509 -0.00496741)
(0.827848 0.00649933 0.143757)
(0.813528 0.0057106 0.104307)
(0.933298 0.0029846 -0.0370323)
(1.00802 -0.00159318 0.111477)
(0.769653 0.0166675 0.156835)
(0.793652 0.0157773 0.104935)
(0.744526 0.0362425 0.100782)
(0.768249 0.016502 0.0104902)
(0.859307 -0.0648913 0.0886363)
(0.870469 -0.0537385 0.0696965)
(0.804432 0.0264004 0.14131)
(0.742535 0.0030629 0.140552)
(0.903207 -0.0118217 0.0331133)
(0.653839 -0.0133882 0.0713672)
(0.892922 -0.0250923 0.186136)
(0.605057 0.0383487 0.216979)
(0.561381 -0.00383077 0.238644)
(0.487438 0.0316006 0.223182)
(0.717859 0.0136594 0.0889926)
(0.608805 -0.0656891 0.102267)
(0.751388 -0.0865039 0.185639)
(0.68676 -0.0968951 0.252907)
(0.634297 -0.0425966 0.21885)
(0.665499 -0.0297708 0.189932)
(0.855915 0.0165483 0.136781)
(0.905731 0.0320041 0.0503578)
(0.744801 -0.00376463 0.159687)
(0.848284 -0.0616421 0.198225)
(0.897582 -0.0654033 0.0411862)
(0.671952 0.0423207 0.101313)
(0.448698 0.0818158 0.191256)
(0.366506 -0.0836954 0.21196)
(0.633456 -0.123276 0.256671)
(0.813978 -0.0108559 0.197394)
(0.841429 -0.00399045 0.0719787)
(0.725498 -0.0431026 0.0915186)
(0.646256 0.0451676 0.168748)
(0.734709 0.0648013 0.0430484)
(0.887549 0.00787691 0.0268705)
(0.969926 -0.0116319 -0.0607115)
(0.847316 -0.0194691 0.122019)
(0.775102 -0.00737864 0.125955)
(0.96463 0.0269477 -0.0591716)
(0.98619 0.0107337 0.0785383)
(0.797817 0.0223166 0.133421)
(0.79139 0.00845043 0.099764)
(0.667004 0.0326783 0.120054)
(0.819605 0.026298 -0.00791768)
(0.853637 -0.0469524 0.063326)
(0.946095 -0.0460121 0.0305208)
(0.804633 0.0304879 0.10916)
(0.844978 0.0118786 0.135623)
(0.901412 -0.00411283 0.0122787)
(0.826652 -0.0296612 0.012995)
(0.863715 -0.0266707 0.16656)
(0.654953 0.0633712 0.210878)
(0.586992 0.0121502 0.228063)
(0.536253 0.0309841 0.258287)
(0.824143 0.0316517 0.101931)
(0.69848 -0.0585067 0.074054)
(0.756374 -0.0858425 0.172844)
(0.696237 -0.0908626 0.252216)
(0.646955 -0.0423959 0.169481)
(0.685366 -0.0373453 0.165398)
(0.803903 -0.00130184 0.164258)
(0.951089 0.0385033 0.0382288)
(0.872277 -0.0159511 0.128662)
(0.887775 -0.0716136 0.129174)
(0.816709 -0.0571649 0.0276748)
(0.628807 0.0793846 0.130536)
(0.476446 0.112824 0.181507)
(0.403831 -0.100381 0.193807)
(0.635524 -0.166971 0.223721)
(0.778925 -0.0425571 0.19993)
(0.849468 -0.00435869 0.0705353)
(0.770305 -0.0365426 0.0413775)
(0.600758 0.0372478 0.162903)
(0.762302 0.0830777 0.054465)
(0.906782 0.0369364 -0.0189062)
(0.923671 0.00688062 -0.106165)
(0.932295 -0.02922 0.0901385)
(0.713002 -0.0194622 0.160345)
(0.986841 0.0435437 -0.0782279)
(1.05245 0.0258892 0.0168274)
(0.847764 0.0390142 0.0821963)
(0.847315 0.0146371 0.0905011)
(0.591471 0.0342773 0.128197)
(0.899613 0.0335701 -0.0339788)
(0.916143 -0.0282008 0.0332297)
(0.983231 -0.0357322 0.013719)
(0.8208 0.0264967 0.0732943)
(0.939492 0.0179966 0.138495)
(0.890046 -0.00208746 0.0035522)
(0.949899 -0.0339642 -0.0619352)
(0.866977 -0.0289789 0.122639)
(0.702768 0.0755904 0.193748)
(0.586115 0.0233452 0.190788)
(0.567358 0.0162697 0.26958)
(0.876395 0.0457944 0.118444)
(0.819602 -0.0334113 0.0597206)
(0.764164 -0.0673208 0.132519)
(0.754321 -0.0777083 0.261948)
(0.713725 -0.0390633 0.129599)
(0.708336 -0.0535721 0.131297)
(0.750274 -0.00798095 0.183872)
(0.950412 0.0494663 0.0107211)
(0.916677 -0.0362833 0.114426)
(0.91888 -0.048847 0.0931387)
(0.613392 -0.0382058 0.0460672)
(0.47108 0.0929286 0.180273)
(0.553803 0.12597 0.176382)
(0.532348 -0.108128 0.164046)
(0.643651 -0.199226 0.187611)
(0.736338 -0.0551392 0.19106)
(0.820343 -0.00121988 0.0737592)
(0.819275 -0.0276102 0.0289047)
(0.591037 0.0321027 0.139302)
(0.774938 0.0899609 0.0473162)
(0.936284 0.0667876 -0.0950622)
(0.896496 0.0256045 -0.113065)
(1.00436 -0.0507012 0.0572984)
(0.758385 -0.037401 0.142232)
(0.945744 0.0621234 -0.0885183)
(1.08306 0.0388685 -0.0105271)
(0.95742 0.0461902 0.0114398)
(0.955602 0.0262261 0.0631018)
(0.597989 0.0288283 0.140169)
(0.870921 0.0250117 0.0031622)
(0.984622 -0.0125764 0.0336766)
(0.953745 -0.034825 0.0290576)
(0.832575 0.0359005 0.0202503)
(0.959839 0.0249534 0.142243)
(0.915272 0.00345651 0.0449564)
(0.979753 -0.0271969 -0.121055)
(0.932192 -0.0593449 0.0495096)
(0.766441 0.101383 0.155655)
(0.709249 0.0570126 0.140579)
(0.597489 0.0149898 0.225979)
(0.890805 0.0629553 0.123932)
(0.866906 -0.0173542 0.0587669)
(0.805118 -0.0474731 0.0774156)
(0.786808 -0.0514088 0.24611)
(0.769513 -0.0312769 0.119091)
(0.771764 -0.0504922 0.0921287)
(0.689692 -0.0316455 0.191043)
(0.977287 0.061197 -0.039259)
(0.878557 -0.0253592 0.0808368)
(0.958531 -0.0553184 0.0993551)
(0.704681 -0.00280827 0.017701)
(0.36671 0.0995188 0.156752)
(0.667478 0.107837 0.148587)
(0.736292 -0.0937672 0.159744)
(0.704729 -0.207737 0.122213)
(0.784642 -0.0742056 0.170564)
(0.906049 -0.00505417 0.0799744)
(0.954803 -0.0309058 0.0157707)
(0.712095 0.0184751 0.105237)
(0.825206 0.0990472 0.00809143)
(0.97847 0.0895858 -0.130788)
(1.00197 0.0494411 -0.126616)
(1.0866 -0.0403098 0.000232046)
(0.861267 -0.0306329 0.100249)
(0.936966 0.070163 -0.14061)
(1.01296 0.0504609 -0.0234894)
(1.00087 0.0548375 -0.0304675)
(1.03092 0.0567548 0.0125604)
(0.663447 0.0381401 0.108824)
(0.827444 0.0229743 0.0293562)
(1.01287 0.0128408 0.0555261)
(0.912183 -0.0316736 0.0488582)
(0.847597 0.0261479 -0.00573552)
(0.936221 0.0306982 0.126354)
(0.919111 0.00242783 0.0885143)
(0.957542 -0.0121482 -0.10143)
(0.939358 -0.0987861 -0.0049073)
(0.841883 0.0750129 0.114576)
(0.750738 0.08509 0.107493)
(0.631901 -0.00124333 0.177135)
(0.88862 0.067547 0.130302)
(0.874238 0.0221485 0.0643844)
(0.884078 -0.0156613 0.046115)
(0.773169 -0.023271 0.202425)
(0.802995 -0.0145172 0.104735)
(0.858803 -0.0477981 0.0558882)
(0.711713 -0.0231677 0.172705)
(0.978095 0.0659157 -0.0448949)
(0.826534 -0.0324478 0.0735561)
(0.994924 -0.0709199 0.13158)
(1.03744 0.0193151 -0.037382)
(0.518797 0.0843485 0.0311677)
(0.890304 0.0984769 0.0584036)
(0.994066 -0.0567912 0.134751)
(0.775662 -0.182363 0.0722521)
(0.915059 -0.0689451 0.0991854)
(1.02847 -0.00464412 0.0737555)
(0.982573 -0.0252988 -0.00984069)
(0.695677 0.0234531 0.123857)
(0.761266 0.10345 0.0417993)
(0.964339 0.109308 -0.0638102)
(1.09562 0.0593026 -0.142849)
(1.06835 -0.0366135 -0.0112014)
(1.01908 -0.0482635 0.0809436)
(1.11575 0.082372 -0.207692)
(1.08195 0.0872262 -0.0249086)
(1.01126 0.0232713 -0.0255792)
(1.03839 0.0517679 0.0181643)
(0.717342 0.0628985 0.115007)
(0.745593 0.026728 0.0778356)
(0.979522 0.0287184 0.123986)
(0.9199 -0.00918425 0.0750064)
(0.827934 0.0262076 0.0282804)
(0.845065 0.0337299 0.139896)
(0.907932 0.0040809 0.10379)
(1.00012 0.0112633 -0.0623868)
(0.883453 -0.117847 -0.00742871)
(0.827075 0.0518601 0.0857172)
(0.804401 0.110144 0.0809414)
(0.693703 0.000469059 0.12704)
(0.842013 0.0658914 0.135544)
(0.802909 0.00475755 0.0838499)
(0.893196 -0.0211917 0.0374352)
(0.766093 0.000758543 0.152593)
(0.757575 -0.00883835 0.083898)
(0.959663 -0.0518933 0.0150622)
(0.848533 -0.0303201 0.10382)
(0.92191 0.0736997 -0.017034)
(0.924229 0.00599647 0.0797998)
(1.01342 -0.0959365 0.13739)
(1.10523 0.0203977 -0.0539107)
(0.63134 0.0833972 -0.0170775)
(0.932669 0.0749568 0.00645046)
(1.09767 -0.0118594 0.0755705)
(0.838183 -0.127323 0.0797958)
(0.840313 -0.0745225 0.0923622)
(0.953528 -0.0160258 0.0984597)
(0.972236 -0.0201432 0.00285158)
(0.68883 0.0619937 0.144086)
(0.718442 0.112634 0.0339397)
(0.930296 0.117055 -0.0300607)
(1.01918 0.0101244 -0.0327242)
(0.917763 -0.00779823 0.0980298)
(0.909887 -0.0310312 0.129632)
(0.957924 0.0563989 -0.194543)
(0.989864 0.100036 -0.040364)
(1.07966 0.0606318 -0.0747801)
(0.996693 0.0892106 -0.0110928)
(0.757081 0.0588446 0.111053)
(0.716363 0.0123333 0.0781733)
(0.977334 0.0376982 0.12317)
(0.943763 -0.000100204 0.0655454)
(0.729737 0.000611111 0.0579081)
(0.825069 0.0175439 0.0908421)
(0.949478 -0.0202057 0.067358)
(1.01034 0.039298 -0.0507352)
(0.904175 -0.0787182 -0.00317604)
(0.727305 -0.0125916 0.0848855)
(0.796376 0.134509 0.050984)
(0.745994 0.0362964 0.100738)
(0.874979 0.0612239 0.081211)
(0.773126 0.0265179 0.0841612)
(0.842557 0.0166538 0.0797252)
(0.830719 0.0302937 0.128758)
(0.647654 -0.000246384 0.0582142)
(1.06548 -0.0441669 -0.040297)
(0.916607 -0.0167115 0.070417)
(0.846564 0.0924755 0.00777501)
(1.07364 -0.0211527 0.0595073)
(1.00816 -0.0792649 0.145111)
(0.869698 0.0570974 -0.023751)
(0.610386 0.0646547 -0.0674951)
(0.961032 0.0858429 -0.0801772)
(1.03511 0.016276 0.0334272)
(0.927717 -0.0897279 0.0968364)
(0.780234 -0.0433596 0.0960703)
(0.787881 -0.0256349 0.0478072)
(0.820165 0.00407959 0.0139945)
(0.575348 0.0709749 0.117504)
(0.563902 0.0586259 -0.0299049)
(0.753601 0.0599101 0.0405354)
(0.854805 0.0540481 0.134298)
(0.836197 0.0214376 0.0942552)
(0.850437 -0.0185495 0.168855)
(0.961102 0.0594905 -0.0653958)
(1.09564 0.121624 -0.0450425)
(1.08928 0.0223594 -0.059945)
(1.14028 0.0610268 -0.0618044)
(0.991102 0.136084 0.0624321)
(0.806669 0.0513067 0.0614223)
(1.0362 0.058127 0.0762804)
(1.11868 0.0798317 0.0421303)
(0.867575 0.0119733 0.0630366)
(0.863156 -0.0204547 0.0691215)
(0.985264 0.0100733 0.0635602)
(0.949941 0.0851709 0.00864511)
(0.905356 -0.0400996 0.0192458)
(0.649554 -0.0547741 0.0702695)
(0.766946 0.101504 0.082839)
(0.780014 0.0233807 0.134233)
(0.892327 0.0712682 0.071753)
(0.748744 -0.0036934 0.108633)
(0.737587 -0.0125104 0.107717)
(0.731708 0.0613293 0.1553)
(0.582059 -0.0327712 0.0892352)
(1.03693 -0.0664125 -0.0673809)
(0.814714 -0.00520196 0.0784891)
(0.828215 0.102282 0.0219972)
(1.14481 0.0400957 -0.0086076)
(0.978508 -0.0640784 0.158827)
(0.867558 0.0506908 0.0265682)
(0.760093 0.0839077 -0.0991383)
(0.996269 0.0852798 -0.123392)
(1.13221 0.079867 0.00359809)
(1.08595 -0.027128 0.115636)
(0.804635 0.00800978 0.0722976)
(0.769048 -0.0196121 -0.00220654)
(0.803518 -0.0216437 0.00805305)
(0.628019 0.109502 0.0557623)
(0.507411 0.100815 -0.00787805)
(0.672139 0.0721776 0.200349)
(0.808712 -0.00824901 0.148395)
(0.931636 0.0431852 0.0373805)
(0.730088 0.00819495 0.159603)
(0.870055 -0.00170391 -0.0295957)
(1.14498 0.0740531 -0.0612533)
(1.2019 0.0391099 -0.0417225)
(1.06329 0.111124 0.0164407)
(0.863837 0.137918 0.0612117)
(0.851438 0.0153589 -0.000507384)
(0.863554 0.0381123 0.050412)
(1.07904 0.0816563 0.0559896)
(0.868195 0.0387082 0.0571028)
(0.748508 -0.0427879 0.100882)
(0.756705 -0.0539396 0.154915)
(0.889734 0.119035 0.0495825)
(1.19846 0.0770337 -0.0539036)
(0.915402 -0.0763435 0.0309636)
(0.882879 0.103947 0.0761102)
(0.891164 0.100927 0.102385)
(0.880511 0.0169107 0.0823905)
(0.844758 0.0323442 0.0596787)
(0.870223 0.0792566 0.0332276)
(0.743555 0.00670405 0.116877)
(0.593284 -0.0761181 0.112632)
(0.972509 0.0143683 -0.0430452)
(0.841141 0.0371567 0.0453388)
(0.857558 0.0353298 -0.0205839)
(1.09486 -0.0118081 -0.0303358)
(1.08614 -0.0548329 0.13284)
(1.01141 0.0451025 0.0444678)
(0.874625 0.0156884 -0.0163512)
(0.910794 0.0603484 -0.0143671)
(1.01636 0.103532 -0.0512101)
(1.18225 -0.0139055 0.0807257)
(1.03508 0.00648761 0.129181)
(1.11415 0.0102559 -0.0188863)
(0.869572 0.0248708 -0.00323018)
(0.490679 0.0842222 0.0287779)
(0.608661 0.0619523 -0.0384138)
(0.649912 -0.00023262 0.220088)
(0.807031 0.0640012 0.211488)
(0.814537 0.0485263 0.0238412)
(0.906985 0.079322 0.0926585)
(0.903175 0.0473852 0.076811)
(1.10867 0.0848232 -0.0316343)
(1.3256 0.0831564 -0.0333572)
(1.01772 0.108304 0.0575427)
(1.10085 0.206513 0.0553969)
(1.28698 0.0926125 0.00348677)
(0.928884 0.0387087 0.0299027)
(0.994402 0.126479 0.0710981)
(1.03104 0.129722 0.0149094)
(0.871381 0.0645782 -0.00199928)
(0.816274 0.036263 0.146813)
(0.859401 0.0973725 0.119664)
(1.08118 -0.00509694 -0.0313064)
(0.975771 -0.0290346 0.0434569)
(0.93992 0.13518 0.112775)
(0.871522 0.0635838 0.141328)
(1.06397 0.0570433 0.0789467)
(0.84937 0.041208 0.1056)
(0.990512 0.0758795 0.0427568)
(1.10813 0.117783 -0.0383409)
(0.635362 -0.0801213 0.105714)
(0.858525 -0.0471218 0.0627987)
(0.885558 0.0921405 0.0352867)
(0.913824 0.0920437 0.0192184)
(1.13124 0.0450892 0.046232)
(1.16484 -0.0605403 0.09608)
(1.10074 0.0422275 0.0162764)
(0.891128 0.129029 0.0485015)
(0.957354 0.0868808 0.0928866)
(1.01103 0.108907 -0.0120453)
(1.07658 -0.00686155 0.0354967)
(0.906249 0.00472382 0.126971)
(0.910885 0.0763712 0.0562185)
(0.999282 0.0692329 -0.0315915)
(0.677345 0.132195 0.00551753)
(0.635226 0.100289 0.0718996)
(0.868528 0.0720417 0.196651)
(0.996603 0.0206655 0.23135)
(0.902423 0.0495657 0.0341715)
(0.743188 0.0588964 0.125851)
(0.707438 0.0247154 0.149343)
(0.914072 0.0645183 0.0146788)
(1.08866 0.118855 0.00589921)
(1.16087 0.153267 0.0209686)
(1.16708 0.0911613 0.104303)
(1.20781 0.0321063 0.101076)
(1.10931 0.123059 0.0326672)
(1.21225 0.145782 0.0357346)
(1.15104 0.0967477 -0.0273869)
(0.896907 0.0241416 -0.00915584)
(0.768583 -0.047896 0.150105)
(0.89498 0.121389 0.180534)
(1.18944 0.110065 0.0539031)
(0.761519 -0.0404987 0.0950818)
(0.944088 0.212246 0.103593)
(0.934611 0.126895 0.0289301)
(0.832735 -0.0362535 0.0634564)
(0.809555 -0.00396932 0.193619)
(1.10049 0.067705 0.0733121)
(1.12441 0.0923576 -0.0536118)
(0.914627 0.0142768 0.0731532)
(0.72593 0.0276667 0.0915818)
(0.621852 0.0314328 0.0855188)
(0.714683 0.00542885 0.0719251)
(1.04264 -0.0158975 0.0286312)
(1.31879 0.0219962 0.0508532)
(0.888517 0.155898 0.0672278)
(0.810454 0.0424945 0.0659208)
(0.922254 -0.00554277 0.0845236)
(1.08409 0.138334 0.0262347)
(1.19534 0.0439004 0.0482129)
(1.03595 -0.0254124 0.128577)
(1.02561 -0.0466399 0.13496)
(1.11533 0.08379 0.0466791)
(0.92401 0.117401 -0.00522092)
(0.504207 -0.00982369 0.120691)
(0.816932 -0.0158827 0.271647)
(0.98983 0.0101273 0.116049)
(0.898303 0.104846 0.14276)
(0.843421 0.165149 0.171251)
(0.848473 0.0969757 0.108098)
(0.765873 0.130093 0.0577187)
(0.83253 0.083565 0.0891248)
(0.998883 0.071993 0.0369645)
(1.11584 0.189601 0.116347)
(1.1321 0.0990357 0.0962323)
(0.989126 -0.019705 0.0634783)
(1.08415 0.0701461 0.0624382)
(1.13262 0.206315 -0.042002)
(1.079 0.214112 -0.0473354)
(0.915242 0.0760189 0.0383091)
(0.865086 -0.0567677 0.0700096)
(1.10224 0.0109603 0.0122014)
(0.712679 0.0939743 0.071479)
(0.755978 0.0720134 0.111609)
(1.01506 0.0209122 -0.0284247)
(1.09575 0.00964107 -0.0989878)
(0.968828 -0.0380765 0.0720527)
(1.01021 0.0177513 0.107158)
(1.22224 0.141394 0.0495178)
(0.892497 0.0597157 0.0195794)
(0.812283 0.0331617 -0.00811203)
(1.05699 0.0815462 0.0440426)
(0.913692 0.0569548 0.070446)
(1.04153 -0.02037 0.0120309)
(1.07385 -0.0186274 0.0555607)
(0.785003 0.189903 0.0687848)
(1.10432 0.135525 0.0124708)
(0.975825 -0.0551968 0.0328056)
(1.0273 0.109557 0.0200535)
(1.26157 0.0390917 0.00962244)
(1.27634 -0.0449913 0.0879656)
(0.942905 0.0877378 0.145437)
(0.835322 0.116418 0.0926751)
(1.07057 0.227127 0.00191412)
(0.748768 0.129368 -0.00518841)
(0.761839 -0.0546517 0.0709934)
(0.936021 -0.00853801 0.0729386)
(0.864469 0.137739 -0.0109598)
(0.899022 0.112743 -0.0552444)
(1.07198 0.0507063 0.0175714)
(1.06025 0.133282 0.0308662)
(1.09275 0.109362 0.0140911)
(1.06637 0.121322 0.0182934)
(1.05828 0.102501 0.0586176)
(1.33018 0.0755631 0.0411376)
(1.14036 0.136024 0.0487496)
(0.989155 0.187218 0.0877459)
(0.98253 0.12275 0.0520081)
(1.09094 0.0834347 -0.0149267)
(1.11992 0.0918106 -0.023828)
(0.818876 0.0886401 0.0347593)
(0.908311 0.220254 0.0875868)
(1.14987 0.256944 0.07406)
(1.1734 0.16328 0.0379986)
(1.02833 0.0827211 0.0108179)
(1.05713 0.0213371 -0.031008)
(0.811467 0.0227554 0.0598607)
(0.778889 -0.052307 0.0830989)
(0.905996 0.0650465 0.0627336)
(1.09038 0.24085 0.0342499)
(1.14314 0.0502303 -0.0657721)
(1.06461 -0.0861771 -0.00821788)
(0.897867 0.0513999 0.0919306)
(0.952597 0.0781809 -0.0300863)
(1.06096 0.136286 0.00559864)
(0.983393 0.205606 -0.0330838)
(1.06821 0.0668151 -0.0666134)
(1.08035 -0.0188349 0.0168104)
(0.835664 0.0739682 -0.0138617)
(1.28574 0.0297112 -0.0761717)
(1.19373 0.0133981 0.0710639)
(0.699334 0.0867489 0.152832)
(0.881571 0.130292 0.010264)
(1.13595 0.112589 -0.0301939)
(1.01463 0.0962048 -0.0482593)
(0.772202 0.0416456 -0.00530793)
(0.613313 0.00240109 0.175095)
(0.723923 0.181703 0.0477098)
(1.08354 0.132575 0.0363093)
(1.01149 0.0429657 0.0839709)
(1.15493 0.131809 0.0189119)
(1.01568 0.0901652 0.0122473)
(1.02517 0.100053 0.0365178)
(1.21758 0.194284 -0.0562325)
(1.06691 0.123701 -0.0235911)
(1.02926 0.0810294 0.108271)
(1.05592 0.124041 0.0322634)
(1.08289 0.168058 -0.0319547)
(1.28805 0.169286 -0.0501296)
(0.835322 0.056477 -0.0150337)
(0.686071 -0.0779888 0.0753996)
(0.745734 0.00827651 0.0660708)
(0.93081 0.0656381 0.0362317)
(0.99359 0.0430479 0.117178)
(1.02943 0.0505206 0.0402394)
(1.15802 0.0365266 0.017664)
(1.1166 0.13583 0.0708134)
(1.20216 0.100957 0.00935519)
(0.915567 -0.00983409 0.0681189)
(0.959278 -0.0773587 0.120866)
(1.18244 -0.00355586 -0.0544165)
(1.39888 0.137601 -0.034951)
(0.856345 0.0706367 0.0800627)
(0.655989 -0.0479066 0.0354787)
(0.996833 -0.0739671 -0.0420953)
(1.15343 0.108006 -0.120261)
(1.20599 0.21897 -0.0841664)
(1.30632 0.00289857 0.0677922)
(1.06327 -0.0372064 0.0287926)
(1.05873 -0.0190638 -0.0165444)
(1.2297 0.0723246 0.0844443)
(1.04616 0.137609 0.114934)
(0.900742 0.0356136 0.0655217)
(1.06594 0.175347 0.00271426)
(1.05209 0.184764 -0.0383626)
(0.873427 -0.0290507 0.0941166)
(0.761359 0.0633388 -0.00755997)
(1.01136 -0.0562409 0.0603207)
(1.06773 -0.0181805 0.173361)
(0.983844 0.114618 0.0705517)
(0.983348 0.188067 -0.0413411)
(0.926814 0.0839114 0.0766198)
(0.909858 0.125976 0.0749693)
(1.00193 0.156901 0.0136015)
(1.25033 0.0781874 -0.030929)
(1.24702 0.179511 0.00295006)
(0.90447 0.255262 -0.00826969)
(1.15837 -0.0646431 -0.0441265)
(1.02575 0.0217199 0.0357424)
(0.990873 0.371588 -0.0463309)
(1.18323 0.21228 -0.0980198)
(0.934068 0.170814 -0.0486564)
(1.25397 0.236349 -0.0670644)
(1.16196 0.113988 0.0550341)
(1.18579 0.105629 0.0664433)
(0.996607 0.0758332 0.0211477)
(0.974977 -0.0126477 0.0338794)
(1.13674 -0.0116586 0.0613917)
(1.05254 0.0627221 0.0861411)
(1.12679 0.0405816 0.109144)
(1.13898 -0.0989592 0.0944515)
(1.17083 -0.0405818 -0.0115499)
(1.36529 0.273623 -0.108699)
(1.20232 0.0748527 0.0356859)
(0.727879 -0.0713332 0.132963)
(0.853453 0.146106 -0.0996008)
(1.26065 0.10263 -0.154716)
(1.31426 -0.0134945 0.0427201)
(1.22527 0.109071 0.024363)
(1.18734 0.0363875 -0.0664321)