/*--------------------------------*- C++ -*----------------------------------*\
  =========                 |
  \\      /  F ield         | OpenFOAM: The Open Source CFD Toolbox
   \\    /   O peration     | Website:  https://openfoam.org
    \\  /    A nd           | Version:  10
     \\/     M anipulation  |
\*---------------------------------------------------------------------------*/
FoamFile
{
    format      ascii;
    class       surfaceScalarField;
    location    "10";
    object      phi;
}
// * * * * * * * * * * * * * * * * * * * * * * * * * * * * * * * * * * * * * //

dimensions      [0 3 -1 0 0 0 0];

internalField   nonuniform List<scalar> 
74080
(
9.19412e-06
1.05953e-06
-3.66962e-06
1.08284e-05
2.37383e-06
1.36449e-07
1.28948e-05
4.3446e-06
2.42801e-07
1.2336e-05
2.01423e-06
1.39059e-06
1.34351e-05
-3.21553e-06
1.68365e-06
1.39233e-05
5.54152e-07
-1.43741e-06
1.21854e-05
5.0284e-06
-2.08336e-06
1.1497e-05
1.08327e-06
1.29537e-06
1.19957e-05
-1.23271e-06
1.72983e-06
1.20636e-05
1.08966e-06
-4.13967e-08
1.39977e-05
7.49397e-07
-1.65812e-06
1.45523e-05
6.7445e-06
-3.56791e-06
1.49722e-05
1.93565e-06
-2.03111e-06
1.49674e-05
-4.84671e-06
-2.46447e-06
1.19171e-05
2.29979e-06
-4.14889e-06
1.19542e-05
-3.69427e-07
-1.09288e-06
1.26279e-05
-2.10157e-06
8.0753e-07
1.07462e-05
7.48196e-07
2.13829e-06
1.17753e-05
-1.57949e-06
1.61152e-06
1.26299e-05
1.42876e-06
-1.61672e-06
1.23595e-05
1.90416e-06
-2.05817e-06
1.17579e-05
6.04194e-07
-3.16692e-06
1.10583e-05
2.99015e-06
-3.35015e-06
1.13162e-05
2.19675e-06
-1.74499e-06
1.02016e-05
1.15666e-06
-2.29956e-06
1.0429e-05
-2.35277e-06
-5.18674e-08
1.09182e-05
1.25175e-06
7.65922e-07
9.47905e-06
5.77636e-06
-3.74725e-06
9.67721e-06
1.89286e-06
-5.88773e-06
9.89544e-06
1.89174e-06
-2.8958e-06
1.35032e-05
-6.81393e-06
3.17647e-06
1.57411e-05
-2.77243e-06
1.91663e-07
1.33214e-05
1.23384e-05
-2.60684e-06
1.19464e-05
6.10956e-06
-2.56303e-06
1.08674e-05
-2.3403e-06
-2.06844e-07
1.06985e-05
-1.73617e-06
2.01419e-06
1.19552e-05
-2.11219e-06
-1.64924e-06
9.92177e-06
4.64285e-06
-4.03464e-06
9.02278e-06
3.55555e-06
-9.41393e-07
-1.09475e-06
-3.74721e-06
3.16697e-05
9.36978e-06
-7.76146e-06
3.57935e-05
7.85449e-06
1.88741e-06
4.12729e-05
1.41042e-05
-7.44749e-07
4.26867e-05
4.22174e-06
2.5253e-06
4.50492e-05
-9.71827e-06
3.93308e-06
4.42876e-05
6.1862e-06
-5.50361e-06
4.08597e-05
1.91763e-05
-7.88692e-06
4.01839e-05
5.70076e-06
1.44005e-06
3.9896e-05
-1.84109e-06
4.91714e-06
3.96457e-05
3.12001e-06
1.32543e-06
4.35974e-05
3.53951e-06
-3.65008e-06
4.87892e-05
1.8481e-05
-9.98155e-06
5.40564e-05
1.17566e-06
-6.75455e-06
5.17388e-05
-1.16581e-05
-8.07292e-06
4.2242e-05
1.08478e-05
-1.10885e-05
4.11333e-05
1.46049e-06
-3.87279e-06
4.12727e-05
-4.10792e-06
1.78837e-06
3.70201e-05
2.31649e-07
6.42699e-06
3.80784e-05
-2.58066e-06
4.17051e-06
4.03342e-05
8.22481e-06
-4.32188e-06
4.15009e-05
7.26153e-06
-6.328e-06
4.03525e-05
2.55436e-06
-6.84624e-06
3.91792e-05
8.09099e-06
-6.13445e-06
3.87456e-05
7.15813e-06
-5.9335e-06
3.49352e-05
4.07927e-06
-6.85402e-06
3.42988e-05
-4.67689e-06
-6.3332e-07
3.48524e-05
6.15006e-06
1.19494e-07
3.3062e-05
1.61616e-05
-9.33524e-06
3.38001e-05
4.81958e-06
-1.14424e-05
3.57406e-05
2.3713e-06
-1.80293e-06
4.24567e-05
-1.79877e-05
6.814e-06
4.58329e-05
-1.02016e-06
-1.18331e-06
4.68963e-05
3.74497e-05
-1.06587e-05
4.68156e-05
1.72677e-05
-1.34102e-05
3.98836e-05
-4.13827e-06
-3.39653e-06
3.6564e-05
-5.4423e-06
5.55477e-06
3.65657e-05
-4.22822e-06
-3.50756e-06
3.17191e-05
1.26556e-05
-6.15497e-06
3.13504e-05
8.0324e-06
-1.26473e-06
3.2713e-06
-1.09278e-05
5.90935e-05
2.55849e-05
-1.29088e-05
6.39469e-05
1.51392e-05
5.25889e-06
7.39338e-05
2.67282e-05
-6.55046e-07
7.92555e-05
7.634e-06
1.30597e-06
8.23224e-05
-1.74543e-05
7.24963e-06
8.09887e-05
1.35042e-05
-6.4726e-06
7.74352e-05
4.10456e-05
-1.56466e-05
7.64105e-05
1.99727e-05
-4.87214e-06
7.40249e-05
3.69591e-06
5.07201e-06
7.22209e-05
5.39169e-06
4.8211e-06
7.69254e-05
3.92453e-06
-9.31449e-07
8.84581e-05
2.88129e-05
-1.33049e-05
0.000102924
-2.64422e-06
-1.11027e-05
0.000101194
-1.83353e-05
-1.28867e-05
8.49798e-05
2.55249e-05
-1.88398e-05
8.00589e-05
8.17683e-06
-1.04089e-05
7.84746e-05
-2.15937e-06
-6.84521e-07
7.01809e-05
-5.90768e-07
9.28766e-06
6.85143e-05
-5.48197e-06
9.82174e-06
7.33104e-05
1.72421e-05
-2.18605e-06
7.80143e-05
1.66519e-05
-8.66139e-06
7.68893e-05
8.46844e-06
-9.20654e-06
7.57484e-05
1.38731e-05
-5.93481e-06
7.5153e-05
1.36133e-05
-8.14898e-06
6.77827e-05
9.71255e-06
-1.15787e-05
6.41976e-05
-6.44208e-06
-2.19085e-06
6.48319e-05
1.27088e-05
1.9765e-07
6.36917e-05
3.00115e-05
-1.33684e-05
6.42426e-05
1.14974e-05
-1.73188e-05
6.61138e-05
1.26728e-06
2.89563e-08
7.32519e-05
-3.4205e-05
1.30999e-05
7.75623e-05
8.1694e-07
1.73335e-06
8.95027e-05
6.6897e-05
-1.72272e-05
9.84892e-05
3.42799e-05
-2.97654e-05
8.33505e-05
4.99084e-06
-1.56483e-05
7.00516e-05
-5.96958e-06
6.70505e-06
6.57048e-05
-6.33327e-06
-1.51187e-06
5.73582e-05
2.14402e-05
-5.63585e-06
5.73368e-05
7.02773e-06
2.45258e-06
9.16708e-06
-1.42825e-05
9.17505e-05
4.83407e-05
-1.89261e-05
9.46888e-05
2.43424e-05
9.65931e-06
0.000108935
3.76701e-05
5.04296e-06
0.000119665
1.23994e-05
1.15213e-07
0.000123439
-2.58636e-05
1.16805e-05
0.000123452
1.60471e-05
-9.69814e-07
0.000122081
6.45954e-05
-2.14842e-05
0.000120819
4.59836e-05
-1.66661e-05
0.00011556
2.26495e-05
-2.50786e-07
0.000110648
1.34958e-05
6.50343e-06
0.000114478
-1.23028e-06
6.83377e-06
0.000130908
3.03082e-05
-9.08366e-06
0.000154957
-1.37736e-05
-1.00541e-05
0.00016025
-2.77324e-05
-1.34241e-05
0.000143708
4.09931e-05
-2.60366e-05
0.000134052
1.72038e-05
-1.97229e-05
0.000129021
7.61999e-06
-9.81569e-06
0.000113401
2.63603e-06
6.95803e-06
0.000104166
-1.28548e-05
1.50082e-05
0.000111338
2.12837e-05
6.37084e-06
0.000121659
2.96611e-05
-4.58539e-06
0.00012179
2.29203e-05
-9.82655e-06
0.000120905
2.25965e-05
-3.21499e-07
0.000121638
1.84623e-05
-2.84171e-06
0.000111156
1.73121e-05
-1.37168e-05
0.000102334
-8.08259e-06
-4.26024e-06
0.000102612
1.77961e-05
1.91612e-06
0.000103875
4.38422e-05
-1.51363e-05
0.000104614
2.51932e-05
-2.72023e-05
0.0001034
2.21738e-06
-2.9643e-06
0.000106501
-5.84312e-05
2.22414e-05
0.000107637
-7.37781e-06
1.62584e-05
0.000131093
8.76675e-05
-7.12918e-06
0.000160966
4.63286e-05
-3.70555e-05
0.000146071
2.74559e-05
-3.52438e-05
0.000116797
8.63797e-06
-2.18976e-06
0.000101693
-4.81307e-06
2.0237e-06
8.6597e-05
3.25628e-05
-3.64871e-06
8.49236e-05
-6.00135e-06
1.05855e-05
2.77789e-06
-9.23059e-06
0.000130813
6.5734e-05
-1.91978e-05
0.000130011
3.80882e-05
1.18625e-05
0.000144657
4.16135e-05
1.93298e-05
0.000161044
1.61207e-05
5.26319e-06
0.000165616
-3.37644e-05
1.7086e-05
0.000168076
5.7987e-06
1.40326e-05
0.000172149
7.87495e-05
-2.07827e-05
0.000172201
7.77392e-05
-2.81238e-05
0.000165014
5.3683e-05
-7.31589e-06
0.000156203
3.46562e-05
5.73674e-06
0.000157137
-4.75792e-06
1.45719e-05
0.000178867
1.89367e-05
-1.00259e-06
0.000207098
-3.88353e-05
-1.7195e-06
0.000218896
-4.63687e-05
-3.87809e-06
0.000214891
4.57787e-05
-2.61164e-05
0.000207091
1.70874e-05
-2.41139e-05
0.000201381
1.8966e-05
-2.06603e-05
0.000176518
1.36122e-05
-1.52918e-06
0.000149381
-2.35911e-05
1.41357e-05
0.000154426
1.32907e-05
1.4688e-05
0.000172374
3.83245e-05
8.12848e-06
0.000177495
4.56557e-05
-6.53737e-06
0.000177074
4.25402e-05
7.06782e-06
0.000178378
2.59359e-05
1.34556e-05
0.000165835
2.3901e-05
-6.49121e-06
0.000149959
-1.07437e-05
-2.97024e-06
0.000149766
1.80379e-05
6.29806e-06
0.000157774
4.71442e-05
-1.08213e-05
0.000164786
3.71132e-05
-3.82965e-05
0.000161137
5.79509e-06
-1.56178e-05
0.000150439
-9.18401e-05
2.71707e-05
0.000136294
-2.13252e-05
3.02106e-05
0.000156894
9.76183e-05
2.08444e-05
0.000209485
3.62266e-05
-5.28285e-06
0.000218519
3.6503e-05
-3.70782e-05
0.000182704
3.41621e-05
-1.43941e-05
0.000151026
9.23624e-06
-4.55047e-07
0.000125035
5.37112e-05
-4.36057e-06
0.000115026
-2.83068e-05
1.7705e-05
-3.13172e-05
6.15666e-06
0.000176894
6.28972e-05
-9.20948e-06
0.000175762
6.00586e-05
9.19966e-06
0.00018513
3.95806e-05
3.41643e-05
0.000203826
1.33162e-05
2.12391e-05
0.000208566
-3.8449e-05
2.62821e-05
0.000211431
-1.84276e-05
3.5303e-05
0.000221907
7.59701e-05
-1.13541e-05
0.000225768
0.000112847
-3.84282e-05
0.000219789
8.77868e-05
-1.11267e-05
0.000210675
5.92749e-05
9.62184e-06
0.000204279
2.11369e-06
2.57262e-05
0.000232289
4.19545e-06
8.63669e-06
0.000262636
-7.60319e-05
8.98163e-06
0.000270889
-7.8486e-05
1.35323e-05
0.000286679
2.86256e-05
-1.58955e-05
0.000291186
-5.05227e-06
-1.38864e-05
0.000297255
1.58783e-05
-2.2257e-05
0.000276671
2.37739e-05
-1.22147e-05
0.000218376
-2.6977e-05
1.08975e-05
0.000201775
2.22845e-06
1.69091e-05
0.000224216
3.09138e-05
2.10502e-05
0.000241934
6.03649e-05
-9.65716e-07
0.000249519
6.81397e-05
1.16759e-05
0.000252301
3.88326e-05
3.83337e-05
0.000236702
2.81952e-05
1.55787e-05
0.000207018
-1.60605e-05
9.30595e-06
0.000203232
1.4011e-05
1.5581e-05
0.000224204
3.05815e-05
4.38978e-06
0.000252317
2.22639e-05
-4.24328e-05
0.000262643
-4.95654e-06
-3.46238e-05
0.000227014
-0.000126096
2.28082e-05
0.000175352
-3.07961e-05
3.49405e-05
0.000170626
0.00011055
4.8028e-05
0.000223131
1.09905e-05
4.92866e-05
0.000271268
4.02019e-06
-2.44378e-06
0.00026009
3.56996e-05
-7.31131e-06
0.000220386
2.72093e-05
-1.70019e-06
0.000190172
8.5526e-05
-1.06082e-05
0.000163265
-4.19208e-05
1.68007e-05
-9.11414e-05
2.59387e-05
0.0002312
4.57252e-05
3.79028e-06
0.000235626
8.94548e-05
9.80837e-07
0.000237835
4.28329e-05
3.06664e-05
0.000257523
-6.65553e-07
3.25505e-05
0.00026004
-3.85913e-05
3.66373e-05
0.000254506
-4.18173e-05
5.66845e-05
0.000267633
5.50534e-05
7.00906e-06
0.00027819
0.000146368
-4.60229e-05
0.00027638
0.000131143
-2.01517e-05
0.000277984
7.34676e-05
1.11388e-05
0.000264293
1.34742e-05
3.42821e-05
0.000289337
9.40923e-07
2.13486e-05
0.000317362
-0.000103981
2.30635e-05
0.000310906
-0.000104771
3.39112e-05
0.000346716
-1.25846e-05
-5.89381e-06
0.00036558
-5.33417e-05
-7.26362e-07
0.000389172
-9.14837e-06
-7.37591e-06
0.000407785
1.17897e-05
-1.55391e-05
0.000331156
-2.34728e-05
1.06991e-05
0.000266834
6.31402e-06
1.98058e-05
0.000270384
2.15497e-05
2.56542e-05
0.000292601
5.39084e-05
-3.17658e-06
0.000315211
7.08742e-05
-2.21996e-06
0.000335198
4.44708e-05
4.70146e-05
0.000334564
2.60917e-05
4.04839e-05
0.000287145
-2.03394e-05
2.73501e-05
0.000261098
1.72063e-05
2.59838e-05
0.000283928
1.22299e-05
2.40653e-05
0.000338861
-2.84912e-05
-2.71451e-05
0.000401419
-5.32801e-05
-5.61314e-05
0.000354788
-0.000147373
3.53704e-06
0.000245869
-2.45083e-05
3.47963e-05
0.000210874
0.000120884
6.79025e-05
0.00023536
2.02332e-07
7.67482e-05
0.000297594
-4.64632e-05
2.56419e-05
0.000333587
-1.04726e-05
1.55281e-05
0.00030477
2.0967e-05
1.03959e-05
0.000290777
0.00010649
-1.1548e-05
0.000255794
-3.6986e-05
1.45199e-05
-0.00013884
3.46538e-05
0.000296466
3.9756e-05
1.00887e-05
0.000314698
0.000107606
-2.07943e-05
0.000308882
4.9932e-05
1.51912e-06
0.00032917
-2.49145e-05
1.40458e-05
0.00033381
-4.59094e-05
2.8827e-05
0.000305379
-4.33543e-05
7.09795e-05
0.000307918
2.41735e-05
3.35295e-05
0.000330845
0.000139712
-4.49192e-05
0.000332039
0.000176121
-3.80023e-05
0.000348137
8.06798e-05
2.26848e-07
0.000342209
1.57497e-05
2.64751e-05
0.00036713
6.90926e-06
1.6234e-05
0.00039083
-0.00010766
1.93818e-05
0.000352524
-9.03372e-05
5.36452e-05
0.00038968
-4.4031e-05
5.43602e-06
0.000416534
-0.000108478
-6.88567e-06
0.000440965
-4.80384e-05
6.53191e-06
0.000511365
-3.39808e-05
-1.26274e-05
0.000463716
-2.46609e-05
5.92507e-06
0.00036609
2.53597e-05
2.45167e-05
0.000333891
3.02978e-05
2.47814e-05
0.000342856
4.58402e-05
-7.93902e-06
0.000355378
5.21114e-05
-3.6977e-05
0.00037423
4.73785e-05
7.88851e-06
0.000414972
1.22565e-05
2.43732e-05
0.000392285
-3.64085e-05
3.32745e-05
0.000349968
2.50251e-05
2.35512e-05
0.000346276
1.91482e-05
2.43203e-05
0.000379313
-7.51623e-05
7.49837e-06
0.000498893
-0.000141175
-6.24159e-05
0.000500604
-0.000165836
-2.73969e-05
0.000349964
-5.92216e-06
3.0393e-05
0.000297408
0.000107367
6.95691e-05
0.000301872
2.46522e-06
6.73275e-05
0.000332539
-5.32663e-05
9.05817e-06
0.000402279
-6.91188e-05
9.49677e-06
0.00039745
-1.79141e-05
1.29195e-05
0.000407185
9.76957e-05
-1.27409e-05
0.000390979
-3.61332e-05
1.44629e-05
-0.000137723
4.0333e-05
0.00036842
6.44856e-05
1.2392e-05
0.000422537
9.80365e-05
-4.59157e-05
0.000421586
3.90621e-05
-3.12978e-05
0.000426401
-4.79337e-05
-1.44537e-05
0.000437796
-6.28472e-05
-4.89072e-06
0.000384454
-2.13338e-05
6.48593e-05
0.000344932
1.49678e-05
6.19223e-05
0.000368713
7.05621e-05
-3.23963e-05
0.00038255
0.000166685
-5.96386e-05
0.00041029
7.10049e-05
-2.27944e-05
0.000405048
1.06433e-05
1.68948e-05
0.000431882
1.82895e-05
4.89508e-06
0.000488937
-0.000118732
-1.02841e-05
0.000443403
-6.34547e-05
5.05154e-05
0.000445599
-2.42352e-05
2.80025e-05
0.000458563
-0.000119089
-1.61519e-05
0.000468688
-7.37672e-05
4.71346e-06
0.000561191
-0.000102681
-1.27922e-05
0.000565639
-4.76529e-05
-8.32674e-06
0.000480176
4.16867e-05
2.03357e-05
0.000413305
5.32663e-05
2.33081e-05
0.00040912
6.2813e-05
-7.2867e-06
0.000420088
2.26494e-05
-4.40894e-05
0.00040365
4.31773e-05
-2.11591e-05
0.000454264
4.78346e-06
-2.96681e-05
0.000474144
-5.73977e-05
5.44717e-06
0.000441293
2.86809e-05
2.38376e-05
0.000435704
3.41076e-05
5.2094e-06
0.000416162
-8.69744e-05
2.65768e-05
0.000519486
-0.000236418
-4.07887e-05
0.000606216
-0.000216289
-4.49578e-05
0.000468073
1.68288e-05
1.54242e-05
0.000395414
8.60097e-05
5.38687e-05
0.000413377
-2.94466e-05
6.98717e-05
0.000398508
-2.5421e-05
5.81594e-06
0.000455075
-8.5233e-05
-4.51282e-06
0.000481882
-7.36779e-05
1.08537e-05
0.000515658
5.55109e-05
-3.35887e-05
0.000535161
-6.14952e-05
-1.20119e-05
-0.000104775
4.76242e-05
0.000425402
0.000100614
3.1473e-05
0.000497468
0.000104185
-4.99407e-05
0.000526707
2.25618e-05
-4.90189e-05
0.000518081
-7.6953e-05
5.01693e-06
0.000544634
-8.66128e-05
-1.64313e-05
0.000502593
1.69976e-05
2.28868e-05
0.000412998
5.47115e-05
7.84669e-05
0.00040346
1.13384e-05
1.19715e-05
0.000426082
0.000109972
-5.33378e-05
0.000477409
3.14925e-05
-3.79873e-05
0.000473344
-1.53227e-06
7.96127e-06
0.000462713
6.10185e-05
1.05234e-05
0.00054515
-0.000123567
-1.32748e-05
0.000548857
-9.28262e-05
2.86298e-05
0.000535169
-1.81824e-05
4.81167e-05
0.000525461
-7.97261e-05
-6.61691e-06
0.000509769
-4.49714e-05
-6.02202e-06
0.000592516
-0.000142434
-8.80323e-06
0.000631832
-8.52256e-05
-1.6314e-05
0.00058097
4.64126e-05
7.60095e-06
0.00049467
7.80654e-05
1.8138e-05
0.000465238
9.79694e-05
-3.71051e-06
0.000498176
1.99191e-06
-4.03865e-05
0.000463647
3.2043e-05
-1.12779e-05
0.000503471
-5.64921e-06
-3.2574e-05
0.000556002
-9.16147e-05
-3.29394e-05
0.000504586
5.1131e-05
2.41088e-05
0.000501078
6.54369e-05
1.01968e-05
0.000497467
-9.07415e-05
2.56e-05
0.00054282
-0.000272183
-1.81584e-05
0.000663693
-0.000268623
-3.85965e-05
0.000607895
1.4175e-05
3.00391e-06
0.000517134
9.19585e-05
2.85144e-05
0.000528294
-5.7615e-05
7.09558e-05
0.000497373
-1.46306e-06
2.06944e-05
0.000505401
-4.52372e-05
-6.14912e-06
0.000526281
-9.84585e-05
3.369e-05
0.000579276
-1.66103e-05
-2.61748e-05
0.000649287
-0.000117235
-5.32459e-05
-8.96708e-05
3.36447e-05
0.000490407
0.000119878
4.52362e-05
0.000547114
0.00011386
-1.50571e-05
0.000611137
1.84852e-05
-7.06464e-05
0.000594262
-7.77837e-05
3.73174e-06
0.000609187
-0.000109716
2.61334e-05
0.000616552
7.39926e-06
3.28823e-06
0.000547612
0.000101145
4.23799e-05
0.000500367
1.15817e-05
4.50607e-05
0.000490781
7.04882e-05
-1.21199e-05
0.000545612
-2.26564e-05
-2.62902e-05
0.000565536
-4.36411e-05
-7.94349e-06
0.000533021
0.000106836
2.68095e-06
0.000595994
-7.56667e-05
1.33442e-06
0.00062752
-0.000117318
2.39325e-05
0.00062477
-6.34712e-05
6.48387e-05
0.000619157
-6.62162e-05
9.92572e-06
0.000588681
9.04497e-06
-2.44785e-05
0.000645223
-0.000129813
-4.09144e-06
0.000695273
-9.72841e-05
-1.3829e-05
0.000665809
5.95788e-05
-2.80074e-06
0.00057791
0.000108816
1.25633e-05
0.000530336
0.000123171
3.34528e-06
0.000576493
-1.62599e-05
-4.29442e-05
0.000549289
1.67244e-05
-1.00901e-05
0.000565626
-9.75357e-06
4.47112e-06
0.000636634
-0.000132762
-4.19866e-05
0.000595048
4.72513e-05
9.6634e-06
0.00057216
0.000104898
2.90542e-05
0.000599843
-7.02119e-05
1.83585e-05
0.000618889
-0.000241822
-2.20369e-05
0.000706819
-0.000271959
-4.49634e-05
0.000726871
-1.09111e-05
-8.48475e-06
0.000647852
9.9181e-05
1.24949e-05
0.000620491
-3.7058e-05
6.45958e-05
0.000593846
1.438e-05
3.49228e-05
0.000587061
4.90666e-07
-1.45809e-05
0.000574284
-7.20012e-05
3.59536e-05
0.000598981
-6.12731e-05
1.27982e-05
0.000705252
-0.000182787
-4.98412e-05
-9.90344e-05
-1.36451e-06
0.000594347
0.000123208
3.72002e-05
0.000616603
0.000105516
2.04511e-05
0.00070024
-1.09445e-06
-6.97548e-05
0.000713075
-6.5292e-05
-6.36766e-05
0.000708948
-9.76027e-05
1.50541e-05
0.000714126
-1.32999e-05
2.28999e-05
0.000689202
0.000102906
1.28349e-05
0.000662192
3.93213e-06
2.42889e-05
0.000632879
4.76223e-05
8.96009e-06
0.000648486
-4.58941e-05
-3.81482e-06
0.000658544
-8.13002e-05
-4.12599e-06
0.000635794
0.000106587
-9.33568e-06
0.000686986
-3.61134e-05
-1.97545e-05
0.000720369
-0.000103784
2.92946e-06
0.000718279
-0.000101901
7.52785e-05
0.000713631
-7.37777e-05
4.20174e-05
0.000688252
3.47151e-05
-3.67513e-05
0.000722546
-0.000118974
-2.35403e-05
0.000764236
-9.73584e-05
-1.18061e-05
0.000753967
7.5153e-05
-1.33448e-05
0.000681182
0.000146219
3.98887e-06
0.000623183
0.000136829
1.02655e-05
0.000669246
-4.20382e-05
-4.33774e-05
0.000670021
-3.65985e-06
-2.17698e-05
0.00066333
-1.14349e-05
1.09972e-05
0.000711497
-0.00015363
-3.3164e-05
0.000699784
1.00108e-05
4.42038e-06
0.000677147
9.83474e-05
3.1362e-05
0.000695729
-4.34448e-05
1.62954e-05
0.000712265
-0.000197307
-2.68059e-05
0.000775981
-0.000261115
-5.72735e-05
0.000812973
-4.23483e-05
-3.62268e-05
0.000743621
9.86485e-05
-1.301e-05
0.000683333
-1.05559e-05
6.80018e-05
0.000655672
1.9163e-05
6.32358e-05
0.000667173
1.72145e-05
-6.76214e-06
0.000665749
-4.70603e-05
2.72201e-05
0.000658671
-5.85231e-05
2.65966e-05
0.000742101
-0.00020585
-2.51067e-05
-0.000113132
-1.18151e-05
0.000730637
0.000103393
2.18603e-05
0.000729682
9.30755e-05
2.36092e-05
0.000778835
-8.41369e-06
-3.49998e-05
0.000809381
-6.05046e-05
-8.21716e-05
0.000814003
-8.40279e-05
-2.69781e-05
0.000802316
-1.09252e-05
2.38958e-05
0.000790076
0.000102554
7.7944e-06
0.00079837
-2.22273e-05
-3.34318e-06
0.000791907
8.3208e-06
-3.39352e-06
0.000782266
-4.51608e-05
-5.97978e-06
0.00077036
-8.73759e-05
-1.52942e-06
0.000750234
8.35231e-05
-3.80766e-06
0.000786071
-2.7094e-05
-2.32811e-05
0.000817414
-8.78047e-05
-1.96824e-05
0.000813543
-0.000126907
5.70128e-05
0.000802255
-8.33555e-05
6.2318e-05
0.000783033
4.56363e-05
-2.62333e-05
0.000798473
-0.000109906
-4.15862e-05
0.000820744
-9.41631e-05
-1.33975e-05
0.000825541
6.92706e-05
-1.6251e-05
0.000801147
0.000152243
-2.60065e-06
0.000762681
0.000137509
8.09914e-06
0.000780017
-5.67866e-05
-4.54848e-05
0.000786373
-1.62662e-05
-2.97048e-05
0.000776824
-9.30773e-06
-1.39404e-06
0.000799461
-0.000157465
-3.73957e-05
0.000804255
-2.62791e-05
1.00938e-06
0.000791918
7.14468e-05
2.77791e-05
0.000790742
-3.12924e-05
1.68099e-05
0.000800783
-0.000167189
-2.08675e-05
0.000849446
-0.000243618
-5.18231e-05
0.000874886
-5.17381e-05
-5.39934e-05
0.000816267
0.000100869
-4.3463e-05
0.000752636
-9.43434e-06
6.67366e-05
0.000724136
7.38299e-07
9.01735e-05
0.000740471
1.49472e-05
1.0048e-05
0.000761079
-3.6578e-05
2.72195e-05
0.00076169
-4.92771e-05
1.98575e-05
0.000803326
-0.000188468
-1.02151e-05
-0.000107608
-2.6083e-06
0.000848522
6.56143e-05
1.65743e-05
0.000849784
6.89667e-05
2.30594e-05
0.000870272
-3.39399e-06
-1.24627e-05
0.000895
-5.20826e-05
-6.21232e-05
0.000901398
-6.04757e-05
-4.01454e-05
0.00088368
7.78509e-06
1.17631e-05
0.000874187
0.000106225
5.47657e-06
0.000892981
-3.49212e-05
-1.39939e-05
0.000904204
-1.79795e-05
-1.87593e-05
0.000890791
-3.63202e-05
-1.15422e-05
0.00087756
-7.99223e-05
-2.01937e-06
0.000873027
5.02301e-05
-6.1408e-06
0.000897018
-3.05467e-05
-1.71054e-05
0.000910776
-6.53155e-05
-1.8306e-05
0.000893825
-0.000127543
3.44056e-05
0.000879027
-9.62154e-05
5.63825e-05
0.000869487
3.62977e-05
-1.20932e-05
0.000871301
-9.71219e-05
-3.86504e-05
0.000884398
-8.75411e-05
-1.04967e-05
0.000897339
5.30891e-05
-7.22859e-06
0.000899716
0.000131575
6.52898e-06
0.000890373
0.000120569
8.29552e-06
0.00089072
-6.06986e-05
-4.11389e-05
0.000886312
-2.47917e-05
-3.0781e-05
0.000878331
-1.01842e-05
-9.12698e-06
0.00088419
-0.000141981
-4.19639e-05
0.000889642
-4.13262e-05
-2.39253e-06
0.00089039
4.06419e-05
2.45617e-05
0.000890897
-3.35188e-05
1.35888e-05
0.00089653
-0.000147266
-1.65721e-05
0.000923897
-0.000216297
-3.69969e-05
0.000932442
-3.35962e-05
-5.02128e-05
0.000889795
0.000113568
-6.58544e-05
0.000840638
-1.00164e-05
3.79589e-05
0.00081444
-2.26797e-05
8.62519e-05
0.000823311
7.4948e-06
2.10769e-05
0.000846001
-2.37236e-05
2.15896e-05
0.00086248
-4.4454e-05
3.4686e-06
0.0008815
-0.000159768
-4.86839e-06
-9.16499e-05
1.05472e-05
0.000957814
3.68899e-05
1.62081e-05
0.000963937
3.74703e-05
2.82939e-05
0.000976571
-6.91156e-06
-5.63347e-07
0.000990978
-4.13458e-05
-4.74651e-05
0.000989288
-2.72766e-05
-4.00096e-05
0.000974936
2.90395e-05
1.92125e-06
0.000975505
9.30451e-05
9.01032e-06
0.000989605
-3.95393e-05
-9.09875e-06
0.000996019
-2.18467e-05
-2.16358e-05
0.000982685
-2.53553e-05
-1.41116e-05
0.000969417
-6.75867e-05
-2.53683e-06
0.000970179
3.0144e-05
-1.32592e-05
0.000993538
-3.86732e-05
-1.66908e-05
0.00100063
-5.07379e-05
-1.04568e-05
0.000972599
-0.000107285
2.00004e-05
0.000953654
-0.000101426
4.24301e-05
0.000955202
1.27263e-05
2.27061e-07
0.000960172
-9.46021e-05
-2.4863e-05
0.000970682
-8.5432e-05
-5.60236e-06
0.000978588
3.73707e-05
3.48018e-06
0.000979348
0.000103922
2.19591e-05
0.000978539
9.34784e-05
1.67392e-05
0.0009762
-5.78296e-05
-3.6003e-05
0.000969066
-3.10769e-05
-2.76215e-05
0.000965008
-2.68476e-05
-1.27755e-06
0.000967914
-0.000119627
-3.59417e-05
0.0009718
-3.61563e-05
1.76269e-06
0.000979428
9.88183e-06
3.28242e-05
0.000986008
-4.34738e-05
1.30749e-05
0.000988039
-0.000132203
-1.67748e-05
0.000995286
-0.000187311
-2.40192e-05
0.000990878
-1.31435e-05
-2.95747e-05
0.000965122
0.000120342
-6.54109e-05
0.00093854
-2.36464e-06
2.20372e-06
0.000921853
-3.63288e-05
5.8289e-05
0.000928889
-8.5775e-06
2.49646e-05
0.000948625
-1.10316e-05
1.21914e-05
0.00096506
-2.68931e-05
-1.80676e-05
0.000974681
-0.000126603
-1.5591e-05
-7.15521e-05
1.00941e-05
0.00107353
1.61907e-05
1.43665e-05
0.00108079
2.37202e-06
2.79765e-05
0.0010879
-1.83159e-05
8.59889e-07
0.00109158
-2.79754e-05
-4.39807e-05
0.00108847
-8.57514e-07
-3.61321e-05
0.00108298
3.55598e-05
-7.78127e-09
0.00108621
6.94464e-05
1.35356e-05
0.00108786
-3.90441e-05
-5.19617e-07
0.00108742
-1.61814e-05
-1.61033e-05
0.00108006
-2.33757e-05
-1.09791e-05
0.00107016
-6.32609e-05
-2.00424e-06
0.00106893
2.16486e-05
-1.40301e-05
0.00108632
-4.69839e-05
-1.39405e-05
0.00109217
-4.65704e-05
-5.71896e-06
0.00106958
-8.55694e-05
1.11437e-05
0.00105489
-0.000101288
3.32367e-05
0.00105978
-5.57524e-06
7.32102e-06
0.00106548
-8.95694e-05
-1.98339e-05
0.00106955
-7.49526e-05
-1.02819e-05
0.00106844
2.71314e-05
4.46802e-06
0.00106755
6.89533e-05
2.94671e-05
0.00106862
6.11921e-05
2.59225e-05
0.00107115
-5.35461e-05
-2.77823e-05
0.00107347
-3.60377e-05
-2.34657e-05
0.00107062
-4.25834e-05
6.64991e-06
0.0010663
-9.12078e-05
-1.99035e-05
0.00106876
-2.79978e-05
1.31224e-05
0.00108249
-2.33155e-05
4.07442e-05
0.00109067
-5.24884e-05
1.08323e-05
0.0010827
-0.000110104
-2.44706e-05
0.00107368
-0.000153032
-1.99073e-05
0.00106572
-3.07832e-06
-1.08753e-05
0.00105678
0.000102793
-4.00195e-05
0.0010494
-1.37553e-06
-5.85788e-06
0.00104076
-4.11855e-05
3.19697e-05
0.00104879
-3.42153e-05
1.90929e-05
0.00106763
-1.43042e-05
1.34005e-05
0.00107292
-2.70407e-06
-1.62696e-05
0.001074
-9.1827e-05
-1.68036e-05
-5.63604e-05
7.55789e-06
0.00118598
-2.08246e-06
5.91589e-06
0.00119379
-3.13161e-05
8.99559e-06
0.00119215
-2.4154e-05
-1.36281e-05
0.00118811
-1.44002e-05
-4.43756e-05
0.0011897
9.49827e-06
-2.71474e-05
0.00119229
3.31786e-05
-4.61789e-06
0.00119492
5.0186e-05
5.10133e-06
0.00119112
-3.32858e-05
3.77122e-06
0.00119019
-1.18277e-05
-3.60826e-06
0.00118295
-2.65094e-05
1.45966e-08
0.00117701
-6.2048e-05
-4.04907e-06
0.00118039
1.29647e-05
-1.2315e-05
0.00119014
-4.95952e-05
-1.24167e-05
0.00119076
-3.80246e-05
-4.70036e-06
0.00117512
-6.41039e-05
6.82355e-06
0.00116955
-9.15665e-05
1.33688e-05
0.00117598
-6.68028e-06
-6.53042e-06
0.0011774
-6.98708e-05
-2.39025e-05
0.00117577
-5.28141e-05
-1.08368e-05
0.00117251
2.25017e-05
3.75709e-06
0.00117845
3.6029e-05
2.001e-05
0.00118438
3.67491e-05
1.97516e-05
0.00118507
-4.07114e-05
-1.72284e-05
0.00119013
-3.12418e-05
-1.54925e-05
0.001186
-3.9974e-05
4.43259e-06
0.00117585
-6.13009e-05
-5.32184e-06
0.00117944
-2.33023e-05
1.97358e-05
0.00119456
-3.82385e-05
2.53541e-05
0.00119829
-4.18576e-05
-5.94303e-06
0.0011846
-8.03777e-05
-3.12196e-05
0.00116982
-0.00011802
-1.73353e-05
0.00116867
-4.41073e-07
-1.73969e-06
0.00117563
6.90924e-05
-1.82787e-05
0.00117615
-6.70674e-06
4.15611e-06
0.00116932
-3.98907e-05
2.32247e-05
0.00117434
-5.82919e-05
9.813e-06
0.00118925
-2.72994e-05
1.00531e-05
0.00119034
1.11773e-05
-8.68243e-06
0.0011843
-6.06507e-05
-1.19916e-05
-4.01489e-05
6.36226e-06
0.00129995
-5.5557e-06
-1.25316e-05
0.00130202
-3.86427e-05
-2.02202e-05
0.00129629
-1.83143e-05
-2.27905e-05
0.00129125
-2.73457e-06
-3.61787e-05
0.00129584
1.45945e-05
-1.87517e-05
0.00130216
3.69966e-05
-1.39268e-05
0.00130745
4.29018e-05
-6.20763e-06
0.00130655
-2.39769e-05
8.01837e-06
0.00130716
-7.18425e-06
9.15244e-06
0.00129676
-2.38227e-05
2.67859e-06
0.00129223
-5.32447e-05
-1.37834e-05
0.00129785
9.66151e-06
-1.58297e-05
0.0013039
-3.8179e-05
-2.01455e-05
0.00130546
-2.18128e-05
-6.82806e-06
0.00129354
-4.21872e-05
5.4812e-06
0.00128892
-6.82855e-05
-7.9413e-06
0.0012945
5.47138e-06
-1.96579e-05
0.00129606
-4.34627e-05
-2.22945e-05
0.00129505
-3.19665e-05
8.42146e-07
0.00129262
2.3075e-05
5.86144e-06
0.00129973
2.23236e-05
4.80344e-07
0.00130559
2.89232e-05
8.79601e-06
0.00130542
-1.99047e-05
-4.97315e-06
0.00130932
-1.26232e-05
-1.02012e-05
0.00130427
-2.40239e-05
-1.40267e-06
0.00129614
-4.28783e-05
5.39294e-06
0.00129923
-1.5104e-05
9.11264e-06
0.00130938
-2.5471e-05
-5.30849e-06
0.00131106
-2.04039e-05
-1.58474e-05
0.00129857
-5.65795e-05
-2.33006e-05
0.00128651
-8.9434e-05
-1.03652e-05
0.00129217
2.03486e-06
-1.13523e-07
0.00130448
4.21846e-05
-1.47665e-05
0.00130605
-9.1273e-06
6.50129e-06
0.0012961
-3.13264e-05
1.54986e-05
0.00129276
-6.23275e-05
-7.28413e-06
0.00130163
-2.68372e-05
-4.86835e-06
0.00130438
2.07397e-05
-8.77264e-06
0.00130208
-3.75137e-05
-1.19593e-05
-2.36545e-05
-1.09373e-07
0.00142787
4.37911e-07
-1.96257e-05
0.00142662
-3.33131e-05
-2.55778e-05
0.00142159
-1.2458e-05
-1.70359e-05
0.00141648
3.2157e-06
-2.29176e-05
0.00142147
1.47028e-05
-8.82253e-06
0.00142849
4.10582e-05
-1.21892e-05
0.00143428
4.33226e-05
-7.94619e-06
0.00143489
-1.46551e-05
1.1871e-05
0.00143654
-4.95191e-06
1.40172e-05
0.00142717
-1.88555e-05
2.2867e-06
0.00142234
-4.23999e-05
-1.52036e-05
0.00142599
1.16084e-05
-1.7223e-05
0.00143047
-2.20839e-05
-1.88943e-05
0.00143431
-6.8735e-06
-2.48619e-06
0.00142587
-2.72827e-05
9.54832e-06
0.00142101
-4.90927e-05
-6.29181e-06
0.00142426
1.56527e-05
-1.44116e-05
0.0014262
-2.18517e-05
-1.44913e-05
0.00142728
-1.77242e-05
9.13467e-06
0.00142602
2.39073e-05
9.21027e-06
0.00143063
1.86657e-05
-3.35345e-06
0.00143412
2.73965e-05
7.72004e-06
0.00143399
-4.39418e-06
4.49973e-06
0.00143829
2.75605e-06
-3.81169e-06
0.00143506
-9.77045e-06
-1.41187e-07
0.001428
-3.34632e-05
9.89657e-06
0.00142708
-6.99142e-06
3.82577e-06
0.00143393
-1.02787e-05
-1.15145e-05
0.00143841
-6.06856e-06
-1.08502e-05
0.00142937
-4.08891e-05
-1.29544e-05
0.0014198
-6.95909e-05
-2.41763e-06
0.00142396
4.89025e-06
2.56583e-06
0.00143316
2.84651e-05
-1.69985e-05
0.0014365
-8.37575e-06
2.66963e-06
0.0014269
-1.95188e-05
8.63406e-06
0.00141929
-5.26519e-05
-1.65264e-05
0.00142431
-1.95354e-05
-9.73052e-06
0.00142876
2.72707e-05
-8.75209e-06
0.00143117
-2.14542e-05
-1.27223e-05
-1.19269e-05
-2.45562e-06
0.00157238
3.80112e-06
-1.46084e-05
0.00156983
-2.94577e-05
-1.6756e-05
0.00156606
-8.87705e-06
-9.80081e-06
0.00156121
6.21862e-06
-1.44029e-05
0.00156546
1.14289e-05
-1.46423e-06
0.0015721
3.74878e-05
-2.34348e-06
0.00157736
4.03583e-05
-1.61808e-06
0.00157729
-7.12118e-06
1.18016e-05
0.00157945
-3.3144e-06
1.13531e-05
0.00157291
-1.4098e-05
1.20533e-06
0.00156756
-3.49077e-05
-8.49557e-06
0.0015694
1.12452e-05
-1.17811e-05
0.00157359
-1.36715e-05
-9.58656e-06
0.00157755
2.16788e-07
4.56202e-06
0.00157066
-1.81699e-05
1.09066e-05
0.00156634
-3.92926e-05
1.84915e-06
0.00156792
1.84389e-05
-5.35517e-06
0.00156939
-8.38633e-06
-7.30751e-06
0.00157134
-7.7591e-06
8.32316e-06
0.00157137
2.39515e-05
8.18483e-06
0.00157456
1.53588e-05
5.06794e-07
0.00157597
2.39834e-05
1.06387e-05
0.00157553
3.87438e-06
7.39728e-06
0.00158058
9.15267e-06
9.91911e-07
0.00157879
-1.78765e-06
3.15786e-06
0.00157288
-2.7426e-05
8.33453e-06
0.0015704
-5.12155e-06
6.7446e-06
0.00157456
-5.8891e-06
-2.16161e-06
0.00157972
8.48163e-07
-4.60203e-06
0.00157351
-2.91622e-05
-7.61877e-06
0.00156574
-5.57857e-05
1.08632e-06
0.00156715
5.06116e-06
7.08231e-06
0.00157304
1.89756e-05
-1.30562e-05
0.00157782
-8.24484e-06
9.95063e-07
0.00157121
-9.42995e-06
6.38744e-06
0.00156371
-4.18152e-05
-1.34538e-05
0.00156666
-1.51344e-05
-4.22091e-06
0.00157076
2.89382e-05
-4.67714e-06
0.00157422
-1.16184e-05
-1.00651e-05
-4.95874e-06
-1.71568e-06
0.00173103
4.47335e-06
-9.79153e-06
0.00172733
-2.62937e-05
-1.07801e-05
0.00172486
-6.48947e-06
-6.14721e-06
0.0017211
7.39958e-06
-9.85389e-06
0.00172431
7.73165e-06
1.67443e-06
0.0017301
3.00342e-05
2.5281e-06
0.0017349
3.38529e-05
1.18482e-06
0.00173423
-1.3365e-06
9.63683e-06
0.00173633
-1.67514e-06
8.05812e-06
0.00173205
-1.04185e-05
3.18862e-07