/*--------------------------------*- C++ -*----------------------------------*\
  =========                 |
  \\      /  F ield         | OpenFOAM: The Open Source CFD Toolbox
   \\    /   O peration     | Website:  https://openfoam.org
    \\  /    A nd           | Version:  10
     \\/     M anipulation  |
\*---------------------------------------------------------------------------*/
FoamFile
{
    format      ascii;
    class       volScalarField;
    location    "3";
    object      pPrime2Mean;
}
// * * * * * * * * * * * * * * * * * * * * * * * * * * * * * * * * * * * * * //

dimensions      [0 4 -4 0 0 0 0];

internalField   nonuniform List<scalar> 
25600
(
1.11942e-07
1.10303e-07
1.08689e-07
1.04953e-07
9.85445e-08
8.95371e-08
7.83326e-08
6.69455e-08
5.65764e-08
4.68302e-08
3.77304e-08
3.0334e-08
2.58217e-08
2.39075e-08
2.24068e-08
2.11931e-08
2.05805e-08
2.09634e-08
2.33289e-08
2.79966e-08
3.32391e-08
3.95754e-08
5.06301e-08
6.46373e-08
7.76576e-08
8.96628e-08
1.00813e-07
1.08643e-07
1.12408e-07
1.152e-07
1.17407e-07
1.16476e-07
1.14712e-07
1.16786e-07
1.20118e-07
1.20342e-07
1.19353e-07
1.20011e-07
1.23325e-07
1.18436e-07
1.26358e-07
1.24222e-07
1.23782e-07
1.20544e-07
1.1405e-07
1.03464e-07
8.84437e-08
7.28397e-08
5.98859e-08
4.77345e-08
3.55958e-08
2.63199e-08
2.15058e-08
2.00687e-08
1.99419e-08
1.85821e-08
1.57996e-08
1.65528e-08
2.17671e-08
2.56148e-08
2.84756e-08
3.73736e-08
5.25603e-08
6.79445e-08
8.34628e-08
9.90302e-08
1.10338e-07
1.15634e-07
1.16909e-07
1.16873e-07
1.15593e-07
1.10818e-07
1.08025e-07
1.12372e-07
1.18012e-07
1.19653e-07
1.21562e-07
1.24915e-07
1.29416e-07
1.29751e-07
1.40115e-07
1.38736e-07
1.40446e-07
1.39322e-07
1.34446e-07
1.20699e-07
9.98531e-08
7.99058e-08
6.42746e-08
4.8873e-08
3.32362e-08
2.17756e-08
1.71667e-08
1.79577e-08
2.06717e-08
1.79144e-08
1.16237e-08
1.4433e-08
2.28911e-08
2.39534e-08
2.37453e-08
3.5538e-08
5.54492e-08
7.24317e-08
9.32357e-08
1.13148e-07
1.23447e-07
1.25507e-07
1.23742e-07
1.20561e-07
1.13805e-07
1.02572e-07
1.00081e-07
1.08879e-07
1.16915e-07
1.19858e-07
1.24222e-07
1.31738e-07
1.40429e-07
1.43382e-07
1.54073e-07
1.53187e-07
1.58077e-07
1.62844e-07
1.61392e-07
1.41613e-07
1.12855e-07
8.87069e-08
7.01581e-08
5.06045e-08
3.08919e-08
1.68382e-08
1.31962e-08
1.97747e-08
2.69077e-08
1.94952e-08
8.62872e-09
1.64405e-08
2.82302e-08
2.29807e-08
1.99948e-08
3.50355e-08
5.87834e-08
7.97922e-08
1.0954e-07
1.33482e-07
1.40872e-07
1.39652e-07
1.34487e-07
1.26573e-07
1.10563e-07
9.08635e-08
9.12495e-08
1.06889e-07
1.16828e-07
1.2119e-07
1.27799e-07
1.4118e-07
1.56103e-07
1.60096e-07
1.68037e-07
1.66781e-07
1.76873e-07
1.94666e-07
1.97593e-07
1.67222e-07
1.28454e-07
9.99413e-08
7.8234e-08
5.41471e-08
2.98998e-08
1.22793e-08
1.14258e-08
2.96328e-08
4.18056e-08
2.39303e-08
8.85147e-09
2.4901e-08
3.89076e-08
2.36739e-08
1.83866e-08
3.68463e-08
6.14701e-08
9.32053e-08
1.35328e-07
1.61366e-07
1.64613e-07
1.60538e-07
1.50884e-07
1.3516e-07
1.04427e-07
7.57026e-08
8.31188e-08
1.07538e-07
1.18836e-07
1.24478e-07
1.34121e-07
1.55494e-07
1.79207e-07
1.81027e-07
1.82292e-07
1.79455e-07
2.00083e-07
2.41451e-07
2.4766e-07
2.00181e-07
1.48795e-07
1.14885e-07
9.02107e-08
6.21895e-08
3.29987e-08
9.91844e-09
1.65927e-08
5.44368e-08
7.00561e-08
3.32226e-08
1.55931e-08
4.28576e-08
5.5469e-08
2.89649e-08
2.05455e-08
4.20833e-08
6.63231e-08
1.17687e-07
1.74773e-07
1.98713e-07
1.99329e-07
1.92523e-07
1.76063e-07
1.47645e-07
9.51235e-08
5.89477e-08
7.91331e-08
1.12614e-07
1.26298e-07
1.32562e-07
1.47054e-07
1.79835e-07
2.1462e-07
2.08217e-07
1.98745e-07
1.94255e-07
2.37252e-07
3.14349e-07
3.20308e-07
2.46619e-07
1.77925e-07
1.36618e-07
1.10382e-07
8.05822e-08
4.56594e-08
1.46457e-08
3.79245e-08
1.05351e-07
1.19321e-07
5.41904e-08
3.40785e-08
7.38877e-08
8.0804e-08
4.44737e-08
3.14001e-08
5.12895e-08
8.13626e-08
1.60492e-07
2.32857e-07
2.51107e-07
2.52693e-07
2.42647e-07
2.14999e-07
1.66147e-07
8.58002e-08
4.55591e-08
8.54094e-08
1.26702e-07
1.45218e-07
1.53419e-07
1.73918e-07
2.24138e-07
2.70341e-07
2.46046e-07
2.23779e-07
2.2106e-07
3.0729e-07
4.31652e-07
4.29357e-07
3.17235e-07
2.23748e-07
1.72065e-07
1.47882e-07
1.21399e-07
7.89626e-08
3.83215e-08
9.19075e-08
2.01407e-07
2.02461e-07
9.97509e-08
7.3519e-08
1.25724e-07
1.23121e-07
8.05454e-08
6.12219e-08
7.16888e-08
1.20178e-07
2.33284e-07
3.16379e-07
3.29359e-07
3.37079e-07
3.22219e-07
2.75385e-07
1.96487e-07
8.45952e-08
4.51873e-08
1.10848e-07
1.60314e-07
1.87454e-07
2.03874e-07
2.28736e-07
3.05079e-07
3.58413e-07
3.02025e-07
2.7308e-07
2.82355e-07
4.41568e-07
6.23695e-07
5.99345e-07
4.31128e-07
3.01701e-07
2.35069e-07
2.17747e-07
2.06449e-07
1.5338e-07
1.03592e-07
2.0634e-07
3.72407e-07
3.46016e-07
1.92675e-07
1.52059e-07
2.122e-07
1.99265e-07
1.57089e-07
1.27876e-07
1.23027e-07
2.03592e-07
3.54028e-07
4.39166e-07
4.49975e-07
4.74105e-07
4.50781e-07
3.71411e-07
2.51855e-07
1.06904e-07
7.43087e-08
1.68649e-07
2.32454e-07
2.75664e-07
3.10492e-07
3.37621e-07
4.50234e-07
4.99364e-07
3.90211e-07
3.78829e-07
4.23376e-07
6.87873e-07
9.38128e-07
8.70599e-07
6.22427e-07
4.39303e-07
3.51355e-07
3.46109e-07
3.72237e-07
3.02827e-07
2.50954e-07
4.29646e-07
6.62721e-07
5.96444e-07
3.70903e-07
3.03866e-07
3.61484e-07
3.43479e-07
3.10408e-07
2.63177e-07
2.43867e-07
3.6455e-07
5.50384e-07
6.27628e-07
6.39158e-07
6.97136e-07
6.59297e-07
5.27046e-07
3.56652e-07
1.78419e-07
1.58176e-07
2.78745e-07
3.76238e-07
4.50375e-07
5.10883e-07
5.45702e-07
7.00476e-07
7.27454e-07
5.37295e-07
5.9729e-07
7.159e-07
1.11489e-06
1.44438e-06
1.29972e-06
9.45555e-07
6.84589e-07
5.6358e-07
5.79521e-07
6.73738e-07
5.82399e-07
5.45664e-07
8.39148e-07
1.14186e-06
1.02871e-06
6.96999e-07
5.85359e-07
6.23466e-07
6.1555e-07
5.97292e-07
5.21804e-07
4.92416e-07
6.52464e-07
8.70275e-07
9.21608e-07
9.38357e-07
1.06289e-06
9.95121e-07
7.79088e-07
5.51919e-07
3.37324e-07
3.32798e-07
4.77701e-07
6.40572e-07
7.75746e-07
8.56398e-07
9.26091e-07
1.11745e-06
1.09561e-06
7.88993e-07
1.01825e-06
1.26693e-06
1.8298e-06
2.24114e-06
1.97965e-06
1.48244e-06
1.11099e-06
9.36106e-07
9.95231e-07
1.18667e-06
1.07405e-06
1.0941e-06
1.54664e-06
1.92781e-06
1.75849e-06
1.26842e-06
1.08766e-06
1.08128e-06
1.11424e-06
1.10337e-06
9.90261e-07
9.49615e-07
1.14175e-06
1.39185e-06
1.37804e-06
1.41339e-06
1.65523e-06
1.5299e-06
1.18861e-06
8.95919e-07
6.37419e-07
6.48349e-07
8.22088e-07
1.09713e-06
1.33331e-06
1.4242e-06
1.58247e-06
1.78578e-06
1.68245e-06
1.22425e-06
1.77199e-06
2.21333e-06
2.97753e-06
3.47612e-06
3.03535e-06
2.35881e-06
1.82639e-06
1.56799e-06
1.71723e-06
2.01598e-06
1.89743e-06
2.04773e-06
2.69916e-06
3.18918e-06
2.94022e-06
2.22618e-06
1.94158e-06
1.86207e-06
1.97884e-06
1.95182e-06
1.79014e-06
1.73359e-06
1.9288e-06
2.22681e-06
2.07808e-06
2.16728e-06
2.58885e-06
2.36767e-06
1.84809e-06
1.47078e-06
1.15812e-06
1.1827e-06
1.39715e-06
1.85413e-06
2.22927e-06
2.3354e-06
2.6587e-06
2.83157e-06
2.60087e-06
1.96385e-06
3.0433e-06
3.7412e-06
4.74128e-06
5.34073e-06
4.62801e-06
3.73713e-06
2.97855e-06
2.59628e-06
2.91019e-06
3.29189e-06
3.2214e-06
3.61446e-06
4.51604e-06
5.17867e-06
4.78759e-06
3.77418e-06
3.34634e-06
3.16181e-06
3.40319e-06
3.28808e-06
3.07572e-06
3.00407e-06
3.13931e-06
3.52095e-06
3.13818e-06
3.34232e-06
4.01602e-06
3.6488e-06
2.87807e-06
2.39092e-06
2.00635e-06
2.03165e-06
2.31328e-06
3.04794e-06
3.60315e-06
3.75928e-06
4.35348e-06
4.43837e-06
4.01371e-06
3.18564e-06
5.0836e-06
6.09138e-06
7.39833e-06
8.11265e-06
6.97954e-06
5.84674e-06
4.76431e-06
4.22998e-06
4.80774e-06
5.21201e-06
5.27662e-06
6.0651e-06
7.32642e-06
8.23631e-06
7.5698e-06
6.19173e-06
5.55681e-06
5.25617e-06
5.61251e-06
5.28806e-06
5.04254e-06
4.93119e-06
4.96566e-06
5.43768e-06
4.71269e-06
5.13156e-06
6.1539e-06
5.5893e-06
4.45552e-06
3.81621e-06
3.34045e-06
3.33833e-06
3.70919e-06
4.84941e-06
5.62216e-06
5.92636e-06
6.92328e-06
6.83154e-06
6.14519e-06
5.11985e-06
8.23128e-06
9.58993e-06
1.12993e-05
1.21539e-05
1.03937e-05
8.99035e-06
7.44859e-06
6.75985e-06
7.67217e-06
8.04737e-06
8.40017e-06
9.79671e-06
1.16272e-05
1.28322e-05
1.16879e-05
9.89044e-06
8.94273e-06
8.5337e-06
8.8887e-06
8.18081e-06
7.93197e-06
7.74268e-06
7.64677e-06
8.17695e-06
7.00652e-06
7.78404e-06
9.28802e-06
8.43546e-06
6.82582e-06
5.94813e-06
5.34389e-06
5.28042e-06
5.76749e-06
7.47117e-06
8.51559e-06
9.14151e-06
1.06736e-05
1.03507e-05
9.3421e-06
8.0721e-06
1.29179e-05
1.4661e-05
1.69265e-05
1.78921e-05
1.52045e-05
1.35341e-05
1.13888e-05
1.05208e-05
1.18291e-05
1.21323e-05
1.29835e-05
1.53072e-05
1.80582e-05
1.95642e-05
1.76147e-05
1.53791e-05
1.39495e-05
1.3448e-05
1.35115e-05
1.22002e-05
1.19827e-05
1.17e-05
1.14442e-05
1.19458e-05
1.0246e-05
1.15491e-05
1.3803e-05
1.26238e-05
1.02351e-05
9.04837e-06
8.27127e-06
8.06123e-06
8.71514e-06
1.11764e-05
1.25468e-05
1.37307e-05
1.5947e-05
1.531e-05
1.40038e-05
1.24426e-05
1.98086e-05
2.19099e-05
2.488e-05
2.58379e-05
2.18673e-05
1.99369e-05
1.69216e-05
1.57015e-05
1.74905e-05
1.78305e-05
1.96272e-05
2.33814e-05
2.72538e-05
2.90958e-05
2.59643e-05
2.32963e-05
2.1248e-05
2.03501e-05
1.97385e-05
1.76326e-05
1.7502e-05
1.72289e-05
1.66608e-05
1.69825e-05
1.47661e-05
1.68318e-05
2.01588e-05
1.85265e-05
1.4984e-05
1.34103e-05
1.24199e-05
1.19031e-05
1.27257e-05
1.61494e-05
1.79963e-05
2.00187e-05
2.30563e-05
2.20645e-05
2.05186e-05
1.87035e-05
2.89207e-05
3.12519e-05
3.50158e-05
3.57257e-05
3.04803e-05
2.83093e-05
2.41027e-05
2.21929e-05
2.42074e-05
2.51217e-05
2.8537e-05
3.45251e-05
3.94065e-05
4.15928e-05
3.6974e-05
3.40201e-05
3.12044e-05
2.91991e-05
2.73762e-05
2.43348e-05
2.44573e-05
2.41856e-05
2.30728e-05
2.32619e-05
2.07285e-05
2.35504e-05
2.82848e-05
2.60459e-05
2.1214e-05
1.91959e-05
1.80639e-05
1.6968e-05
1.79687e-05
2.26762e-05
2.51591e-05
2.82442e-05
3.22073e-05
3.07774e-05
2.89238e-05
2.69216e-05
3.95355e-05
4.14899e-05
4.57285e-05
4.62942e-05
4.0084e-05
3.78335e-05
3.24165e-05
2.94425e-05
3.13605e-05
3.34403e-05
3.93425e-05
4.83801e-05
5.40382e-05
5.68344e-05
4.99277e-05
4.67701e-05
4.27371e-05
3.88426e-05
3.53171e-05
3.11522e-05
3.21413e-05
3.15121e-05
2.97369e-05
2.97564e-05
2.79928e-05
3.17264e-05
3.74037e-05
3.42336e-05
2.78396e-05
2.57727e-05
2.47955e-05
2.26663e-05
2.38989e-05
3.03985e-05
3.39138e-05
3.82794e-05
4.32501e-05
4.07643e-05
3.80969e-05
3.60444e-05
4.82876e-05
5.03088e-05
5.4941e-05
5.60832e-05
4.91006e-05
4.66155e-05
4.04829e-05
3.63143e-05
3.82767e-05
4.161e-05
5.02031e-05
6.27618e-05
6.8516e-05
7.22142e-05
6.15334e-05
5.81824e-05
5.25286e-05
4.68755e-05
4.16605e-05
3.6581e-05
3.943e-05
3.83794e-05
3.58808e-05
3.4646e-05
3.33434e-05
3.81585e-05
4.64014e-05
4.28033e-05
3.36731e-05
3.20087e-05
3.13072e-05
2.85447e-05
3.07274e-05
3.81112e-05
4.24851e-05
4.85691e-05
5.54525e-05
5.10173e-05
4.68366e-05
4.33676e-05
5.53331e-05
5.77697e-05
6.25123e-05
6.40765e-05
5.72372e-05
5.46077e-05
4.71406e-05
4.14555e-05
4.4027e-05
4.86906e-05
5.98972e-05
7.55067e-05
7.98694e-05
8.37287e-05
7.0496e-05
6.8175e-05
6.0044e-05
5.31137e-05
4.68525e-05
4.15593e-05
4.57805e-05
4.29458e-05
3.81001e-05
3.6924e-05
3.82704e-05
4.41655e-05
5.64852e-05
4.94036e-05
3.77729e-05
3.78473e-05
3.73609e-05
3.40732e-05
3.60386e-05
4.35474e-05
4.99371e-05
5.95782e-05
6.87007e-05
6.22144e-05
5.50351e-05
4.87823e-05
6.02855e-05
6.37191e-05
6.85732e-05
7.09745e-05
6.51606e-05
6.30632e-05
5.25596e-05
4.5848e-05
4.8875e-05
5.35478e-05
6.64737e-05
8.56683e-05
8.6389e-05
9.00828e-05
7.78142e-05
7.74709e-05
6.51352e-05
5.71029e-05
5.09461e-05
4.64193e-05
5.03178e-05
4.59734e-05
3.94899e-05
4.01008e-05
4.32366e-05
4.8051e-05
6.61416e-05
5.6251e-05
4.34605e-05
4.49579e-05
4.38307e-05
3.83157e-05
3.84846e-05
4.5833e-05
5.31301e-05
6.5842e-05
7.62583e-05
6.9397e-05
5.95829e-05
5.16994e-05
6.41586e-05
6.77904e-05
7.22115e-05
7.58275e-05
7.06137e-05
6.90272e-05
5.62072e-05
4.95825e-05
5.23616e-05
5.64465e-05
6.94971e-05
9.24932e-05
8.89121e-05
9.34823e-05
8.31917e-05
8.31288e-05
6.73157e-05
5.94641e-05
5.3711e-05
5.04786e-05
5.40147e-05
5.02874e-05
4.09184e-05
4.11261e-05
4.42038e-05
4.77153e-05
7.18759e-05
5.98383e-05
4.57022e-05
5.04282e-05
4.8616e-05
3.96276e-05
3.93223e-05
4.67391e-05
5.27948e-05
6.5958e-05
7.73915e-05
7.26168e-05
6.18594e-05
5.44128e-05
6.5494e-05
6.91627e-05
7.39402e-05
7.84813e-05
7.37307e-05
7.24492e-05
5.89557e-05
5.44144e-05
5.6776e-05
6.04272e-05
7.17925e-05
0.000100203
9.08573e-05
9.50365e-05
8.48529e-05
8.37829e-05
6.72279e-05
6.00806e-05
5.7054e-05
5.32093e-05
5.66634e-05
5.61143e-05
4.287e-05
4.23963e-05
4.40069e-05
4.69788e-05
7.59135e-05
6.47982e-05
4.71284e-05
5.73633e-05
5.33274e-05
4.03559e-05
4.06249e-05
4.83512e-05
5.26213e-05
6.573e-05
7.83893e-05
7.4719e-05
6.41462e-05
5.60184e-05
6.63508e-05
6.98462e-05
7.52742e-05
8.06998e-05
7.55215e-05
7.32904e-05
6.16654e-05
5.80479e-05
6.04187e-05
6.25947e-05
7.31273e-05
0.000103923
9.14541e-05
9.52769e-05
8.43257e-05
8.23638e-05
6.6737e-05
6.14449e-05
6.01211e-05
5.52094e-05
5.90878e-05
6.36251e-05
4.51017e-05
4.34634e-05
4.53264e-05
4.67946e-05
7.84173e-05
7.05488e-05
4.81527e-05
6.50665e-05
5.60128e-05
4.03807e-05
4.11626e-05
5.01499e-05
5.28056e-05
6.63398e-05
7.90231e-05
7.38901e-05
6.64304e-05
5.75291e-05
6.58924e-05
6.99708e-05
7.57844e-05
8.24655e-05
7.63986e-05
7.4968e-05
6.42066e-05
6.1019e-05
6.32992e-05
6.32144e-05
7.38302e-05
0.00010137
8.88961e-05
9.50286e-05
8.36994e-05
8.12162e-05
6.63449e-05
6.291e-05
6.21647e-05
5.68908e-05
6.01064e-05
6.79429e-05
4.61942e-05
4.39177e-05
4.53285e-05
4.75628e-05
7.87028e-05
7.29877e-05
4.8792e-05
6.94319e-05
5.69645e-05
4.09191e-05
4.18008e-05
5.19979e-05
5.2905e-05
6.83739e-05
8.05416e-05
7.2362e-05
6.67758e-05
5.76298e-05
6.50142e-05
6.92704e-05
7.51314e-05
8.30762e-05
7.67004e-05
7.69369e-05
6.57418e-05
6.27071e-05
6.52528e-05
6.39258e-05
7.49195e-05
9.76541e-05
8.71556e-05
9.39508e-05
8.20848e-05
7.90729e-05
6.62371e-05
6.43311e-05
6.39141e-05
5.77042e-05
6.27565e-05
6.94939e-05
4.69084e-05
4.38536e-05
4.41765e-05
4.66989e-05
7.65677e-05
7.40341e-05
4.76528e-05
6.96741e-05
5.4652e-05
4.07265e-05
4.2252e-05
5.43046e-05
5.28933e-05
7.0536e-05
8.28092e-05
6.93708e-05
6.50441e-05
5.70183e-05
6.40644e-05
6.8262e-05
7.41721e-05
8.32502e-05
7.645e-05
7.68037e-05
6.62627e-05
6.34748e-05
6.58703e-05
6.39327e-05
7.3902e-05
9.24032e-05
8.59461e-05
9.28787e-05
8.11449e-05
7.85341e-05
6.62756e-05
6.54745e-05
6.46608e-05
5.88352e-05
6.25682e-05
7.02406e-05
4.67614e-05
4.3462e-05
4.26968e-05
4.53254e-05
7.45281e-05
7.69492e-05
4.70093e-05
6.86146e-05
5.33033e-05
4.04057e-05
4.21963e-05
5.56778e-05
5.25792e-05
7.09127e-05
8.23801e-05
6.77718e-05
6.35869e-05
5.62773e-05
6.33216e-05
6.73774e-05
7.30679e-05
8.27666e-05
7.61418e-05
7.64748e-05
6.5792e-05
6.31077e-05
6.54871e-05
6.39653e-05
7.30382e-05
9.00884e-05
8.47654e-05
9.1542e-05
8.02391e-05
7.72422e-05
6.59794e-05
6.48084e-05
6.47599e-05
5.87005e-05
6.25914e-05
6.93521e-05
4.6662e-05
4.31375e-05
4.19383e-05
4.41967e-05
7.23126e-05
7.6855e-05
4.66369e-05
6.61366e-05
5.32266e-05
4.01273e-05
4.1991e-05
5.56792e-05
5.23116e-05
7.09798e-05
8.12572e-05
6.63732e-05
6.27757e-05
5.56799e-05
6.26795e-05
6.66861e-05
7.23555e-05
8.21057e-05
7.54398e-05
7.58162e-05
6.52711e-05
6.23907e-05
6.47349e-05
6.33731e-05
7.21218e-05
8.89835e-05
8.38601e-05
9.07028e-05
7.97375e-05
7.65523e-05
6.55285e-05
6.39624e-05
6.40209e-05
5.80454e-05
6.13595e-05
6.79813e-05
4.61918e-05
4.26605e-05
4.12456e-05
4.36342e-05
7.08775e-05
7.53089e-05
4.59849e-05
6.45404e-05
5.27971e-05
3.96134e-05
4.14838e-05
5.48406e-05
5.18895e-05
7.0254e-05
8.07699e-05
6.52992e-05
6.18222e-05
5.50217e-05
6.2181e-05
6.62652e-05
7.19361e-05
8.16491e-05
7.51749e-05
7.54127e-05
6.4931e-05
6.20474e-05
6.42185e-05
6.29418e-05
7.15524e-05
8.83907e-05
8.339e-05
9.0253e-05
7.93236e-05
7.60488e-05
6.5148e-05
6.35378e-05
6.3692e-05
5.76235e-05
6.09212e-05
6.74808e-05
4.59666e-05
4.23539e-05
4.08624e-05
4.32106e-05
7.02859e-05
7.44692e-05
4.56681e-05
6.37544e-05
5.24957e-05
3.93691e-05
4.11873e-05
5.4369e-05
5.16108e-05
6.98686e-05
8.05314e-05
6.50246e-05
6.12954e-05
5.47178e-05
1.09733e-07
1.09099e-07
1.08756e-07
1.04856e-07
9.74129e-08
8.89019e-08
7.9677e-08
6.92901e-08
5.79111e-08
4.68938e-08
3.78611e-08
3.19276e-08
2.82251e-08
2.43999e-08
2.1247e-08
2.07442e-08
2.1939e-08
2.25594e-08
2.41375e-08
2.82287e-08
3.33847e-08
4.06729e-08
5.25182e-08
6.5312e-08
7.61392e-08
8.84561e-08
1.01537e-07
1.10244e-07
1.12639e-07
1.14299e-07
1.17312e-07
1.17991e-07
1.1687e-07
1.17712e-07
1.19357e-07
1.19285e-07
1.18676e-07
1.19715e-07
1.20857e-07
1.15719e-07
1.21893e-07
1.22831e-07
1.2384e-07
1.19842e-07
1.11729e-07
1.03186e-07
9.17852e-08
7.67641e-08
6.17372e-08
4.7744e-08
3.63698e-08
3.01323e-08
2.54906e-08
1.98597e-08
1.73858e-08
1.83784e-08
1.82011e-08
1.87136e-08
2.24111e-08
2.53832e-08
2.8401e-08
4.01995e-08
5.63958e-08
6.79865e-08
8.00699e-08
9.72116e-08
1.11965e-07
1.17227e-07
1.15348e-07
1.14559e-07
1.15554e-07
1.12713e-07
1.10005e-07
1.12261e-07
1.15428e-07
1.17415e-07
1.20773e-07
1.24531e-07
1.25788e-07
1.24209e-07
1.33198e-07
1.38092e-07
1.40901e-07
1.36395e-07
1.28578e-07
1.21128e-07
1.0709e-07
8.6546e-08
6.62803e-08
4.761e-08
3.47671e-08
3.00255e-08
2.35376e-08
1.5293e-08
1.51366e-08
1.83889e-08
1.58906e-08
1.78616e-08
2.32151e-08
2.20014e-08
2.40534e-08
4.25865e-08
6.20829e-08
7.0124e-08
8.615e-08
1.10987e-07
1.27433e-07
1.2728e-07
1.19254e-07
1.15814e-07
1.13985e-07
1.06158e-07
1.0282e-07
1.06984e-07
1.11228e-07
1.16563e-07
1.25237e-07
1.31629e-07
1.32884e-07
1.32462e-07
1.4454e-07
1.55008e-07
1.59322e-07
1.54067e-07
1.48862e-07
1.43857e-07
1.26622e-07
9.92169e-08
7.09961e-08
4.59801e-08
3.47132e-08
3.29977e-08
2.21477e-08
1.15381e-08
1.62892e-08
2.16082e-08
1.67987e-08
2.30653e-08
2.78839e-08
1.6937e-08
2.3177e-08
5.05954e-08
6.85047e-08
7.18715e-08
9.59696e-08
1.31932e-07
1.49317e-07
1.41253e-07
1.24775e-07
1.18121e-07
1.11726e-07
9.80233e-08
9.53915e-08
1.01792e-07
1.05981e-07
1.1774e-07
1.33352e-07
1.40818e-07
1.4071e-07
1.40164e-07
1.56729e-07
1.73422e-07
1.7816e-07
1.73286e-07
1.73576e-07
1.72573e-07
1.52652e-07
1.15727e-07
7.52014e-08
4.38708e-08
3.91245e-08
4.06754e-08
2.15085e-08
1.10178e-08
2.31229e-08
2.79553e-08
2.59225e-08
3.80931e-08
3.60972e-08
1.18272e-08
2.93444e-08
6.68494e-08
7.39209e-08
7.51306e-08
1.1184e-07
1.6229e-07
1.8101e-07
1.6159e-07
1.32638e-07
1.21405e-07
1.07857e-07
8.93206e-08
8.93842e-08
9.65914e-08
1.00694e-07
1.2247e-07
1.46604e-07
1.5275e-07
1.49289e-07
1.47318e-07
1.70927e-07
1.93288e-07
1.97289e-07
1.95222e-07
2.03925e-07
2.10075e-07
1.89274e-07
1.37434e-07
7.97286e-08
4.48605e-08
5.26934e-08
5.56402e-08
2.35022e-08
1.75148e-08
3.82492e-08
3.86855e-08
5.00608e-08
6.74275e-08
4.52841e-08
1.19526e-08
4.6483e-08
9.27419e-08
8.01369e-08
8.20433e-08
1.36707e-07
2.05735e-07
2.2874e-07
1.91706e-07
1.43824e-07
1.25845e-07
1.02413e-07
8.31278e-08
8.85881e-08
9.12272e-08
9.74512e-08
1.33127e-07
1.67562e-07
1.69818e-07
1.59394e-07
1.54817e-07
1.88242e-07
2.15442e-07
2.19776e-07
2.2315e-07
2.42608e-07
2.63062e-07
2.42417e-07
1.67629e-07
8.87082e-08
5.6322e-08
8.3144e-08
8.24997e-08
3.36702e-08
3.49231e-08
6.31611e-08
6.06541e-08
9.61206e-08
1.15208e-07
5.55258e-08
2.47201e-08
8.13958e-08
1.28471e-07
9.40175e-08
9.58398e-08
1.74565e-07
2.7141e-07
3.01812e-07
2.37676e-07
1.60516e-07
1.32097e-07
9.81595e-08
8.64966e-08
9.97011e-08
8.84121e-08
1.00171e-07
1.5454e-07
2.01575e-07
1.96483e-07
1.73877e-07
1.6524e-07
2.12112e-07
2.43902e-07
2.52666e-07
2.63277e-07
2.97855e-07
3.44637e-07
3.2075e-07
2.16033e-07
1.12872e-07
9.23211e-08
1.42904e-07
1.29119e-07
6.252e-08
6.75343e-08
9.98948e-08
1.06347e-07
1.74512e-07
1.83981e-07
7.61404e-08
5.72578e-08
1.45904e-07
1.81151e-07
1.2811e-07
1.24884e-07
2.345e-07
3.7563e-07
4.1562e-07
3.10334e-07
1.88811e-07
1.4442e-07
1.03854e-07
1.11708e-07
1.3254e-07
9.74575e-08
1.16315e-07
1.95402e-07
2.58806e-07
2.40451e-07
1.99233e-07
1.83069e-07
2.53777e-07
2.93082e-07
3.09824e-07
3.28628e-07
3.87184e-07
4.75163e-07
4.40934e-07
3.0287e-07
1.74634e-07
1.78547e-07
2.51246e-07
2.10302e-07
1.26309e-07
1.22119e-07
1.58181e-07
1.91413e-07
3.01887e-07
2.80698e-07
1.24145e-07
1.25733e-07
2.59064e-07
2.6975e-07
2.01884e-07
1.86895e-07
3.38716e-07
5.43276e-07
5.97975e-07
4.30302e-07
2.41298e-07
1.74805e-07
1.39762e-07
1.81353e-07
2.0493e-07
1.37524e-07
1.6151e-07
2.71419e-07
3.58336e-07
3.1792e-07
2.49267e-07
2.16497e-07
3.33758e-07
3.9372e-07
4.15077e-07
4.44496e-07
5.41225e-07
6.82312e-07
6.39422e-07
4.62927e-07
3.14015e-07
3.57565e-07
4.39341e-07
3.56205e-07
2.46017e-07
2.12585e-07
2.59696e-07
3.40071e-07
5.06287e-07
4.32852e-07
2.26736e-07
2.63695e-07
4.51272e-07
4.34362e-07
3.45522e-07
3.15191e-07
5.25927e-07
8.11706e-07
8.95925e-07
6.34322e-07
3.43546e-07
2.48336e-07
2.41642e-07
3.34022e-07
3.54101e-07
2.40928e-07
2.67806e-07
4.13347e-07
5.31632e-07
4.59784e-07
3.46998e-07
2.83249e-07
4.93658e-07
5.96612e-07
6.05826e-07
6.56087e-07
8.07715e-07
1.01014e-06
9.77719e-07
7.56011e-07
5.99244e-07
6.93367e-07
7.56551e-07
6.16167e-07
4.42838e-07
3.71091e-07
4.4268e-07
5.93183e-07
8.28008e-07
6.88983e-07
4.31936e-07
5.29729e-07
7.74272e-07
7.44538e-07
6.11047e-07
5.68049e-07
8.58408e-07
1.24367e-06
1.39023e-06
9.8236e-07
5.44156e-07
4.15885e-07
4.70025e-07
6.33983e-07
6.45916e-07
4.68453e-07
4.85649e-07
6.73575e-07
8.31164e-07
7.18083e-07
5.30386e-07
4.21352e-07
8.10524e-07
9.76571e-07
9.45703e-07
1.03838e-06
1.25883e-06
1.53672e-06
1.54881e-06
1.27614e-06
1.14025e-06
1.27834e-06
1.28364e-06
1.06521e-06
7.53404e-07
6.54419e-07
7.64848e-07
1.02154e-06
1.34145e-06
1.12712e-06
8.20894e-07
1.01424e-06
1.31191e-06
1.30242e-06
1.07643e-06
1.044e-06
1.42595e-06
1.95193e-06
2.20772e-06
1.57605e-06
9.21867e-07
7.60914e-07
9.22913e-07
1.18441e-06
1.18331e-06
9.26004e-07
8.96307e-07
1.12934e-06
1.34343e-06
1.17373e-06
8.63944e-07
7.00938e-07
1.41161e-06
1.63917e-06
1.52822e-06
1.70316e-06
1.99785e-06
2.37991e-06
2.48603e-06
2.16693e-06
2.10016e-06
2.24092e-06
2.14289e-06
1.80229e-06
1.24359e-06
1.14927e-06
1.31904e-06
1.72577e-06
2.1718e-06
1.85394e-06
1.52771e-06
1.84507e-06
2.20685e-06
2.25362e-06
1.85799e-06
1.89781e-06
2.35803e-06
3.12278e-06
3.54198e-06
2.56922e-06
1.60895e-06
1.41476e-06
1.75133e-06
2.1429e-06
2.11648e-06
1.76482e-06
1.62793e-06
1.89433e-06
2.20173e-06
1.94519e-06
1.46395e-06
1.24006e-06
2.49805e-06
2.7311e-06
2.50073e-06
2.81062e-06
3.17626e-06
3.72322e-06
3.97547e-06
3.63778e-06
3.72004e-06
3.76893e-06
3.51441e-06
2.95396e-06
2.01504e-06
1.97236e-06
2.22909e-06
2.83909e-06
3.46974e-06
3.01955e-06
2.72524e-06
3.20585e-06
3.66679e-06
3.80121e-06
3.12438e-06
3.33563e-06
3.87837e-06
5.04118e-06
5.66917e-06
4.18793e-06
2.81704e-06
2.57731e-06
3.18176e-06
3.74696e-06
3.68046e-06
3.2059e-06
2.86065e-06
3.13559e-06
3.58613e-06
3.20197e-06
2.51163e-06
2.21243e-06
4.34389e-06
4.45273e-06
4.06378e-06
4.59238e-06
5.00914e-06
5.79148e-06
6.26903e-06
5.9636e-06
6.28596e-06
6.10228e-06
5.62382e-06
4.67688e-06
3.20315e-06
3.28503e-06
3.65621e-06
4.56119e-06
5.44765e-06
4.81428e-06
4.64085e-06
5.33653e-06
5.96469e-06
6.20965e-06
5.11619e-06
5.62965e-06
6.27798e-06
8.06477e-06
8.95859e-06
6.74352e-06
4.83397e-06
4.52817e-06
5.50566e-06
6.30293e-06
6.16939e-06
5.51992e-06
4.83795e-06
5.0867e-06
5.73068e-06
5.17111e-06
4.28649e-06
3.88458e-06
7.30619e-06
7.05314e-06
6.48783e-06
7.32985e-06
7.77376e-06
8.86405e-06
9.68925e-06
9.53274e-06
1.01433e-05
9.5507e-06
8.69481e-06
7.12665e-06
4.93559e-06
5.24743e-06
5.76865e-06
7.09334e-06
8.32553e-06
7.46457e-06
7.60367e-06
8.57565e-06
9.44584e-06
9.80045e-06
8.16644e-06
9.14988e-06
1.00384e-05
1.26821e-05
1.39173e-05
1.06758e-05
8.07213e-06
7.65012e-06
9.08857e-06
1.01638e-05
9.94376e-06
9.04985e-06
7.85649e-06
8.04426e-06
8.93402e-06
8.18166e-06
7.18258e-06
6.6272e-06
1.17808e-05
1.08316e-05
1.01529e-05
1.13977e-05
1.18114e-05
1.32479e-05
1.45191e-05
1.47762e-05
1.56744e-05
1.44745e-05
1.29195e-05
1.04419e-05
7.3709e-06
8.04578e-06
8.75908e-06
1.06674e-05
1.22893e-05
1.11805e-05
1.19126e-05
1.32756e-05
1.44268e-05
1.48548e-05
1.26438e-05
1.43367e-05
1.56512e-05
1.94036e-05
2.11066e-05
1.65502e-05
1.30985e-05
1.2462e-05
1.44259e-05
1.5793e-05
1.53257e-05
1.41458e-05
1.22019e-05
1.22653e-05
1.349e-05
1.25733e-05
1.16239e-05
1.08754e-05
1.81633e-05
1.61119e-05
1.53966e-05
1.71109e-05
1.74406e-05
1.92087e-05
2.09936e-05
2.2062e-05
2.31223e-05
2.10348e-05
1.83496e-05
1.47407e-05
1.06368e-05
1.18337e-05
1.27939e-05
1.55189e-05
1.75418e-05
1.63629e-05
1.80756e-05
1.99539e-05
2.12965e-05
2.17283e-05
1.90673e-05
2.17751e-05
2.38027e-05
2.87963e-05
3.10967e-05
2.49145e-05
2.04366e-05
1.94187e-05
2.19489e-05
2.35194e-05
2.26377e-05
2.12128e-05
1.82258e-05
1.80975e-05
1.97527e-05
1.8874e-05
1.8156e-05
1.72733e-05
2.68067e-05
2.32592e-05
2.25677e-05
2.48702e-05
2.49353e-05
2.67837e-05
2.92122e-05
3.14019e-05
3.26116e-05
2.93752e-05
2.49053e-05
2.00715e-05
1.48762e-05
1.65583e-05
1.78877e-05
2.15382e-05
2.38785e-05
2.30676e-05
2.61924e-05
2.88278e-05
3.00245e-05
3.07576e-05
2.7976e-05
3.22047e-05
3.53066e-05
4.14834e-05
4.46842e-05
3.65958e-05
3.09411e-05
2.90787e-05
3.2007e-05
3.35266e-05
3.2037e-05
3.06498e-05
2.61638e-05
2.56683e-05
2.7916e-05
2.73001e-05
2.73015e-05
2.64069e-05
3.75915e-05
3.21101e-05
3.14019e-05
3.46149e-05
3.40935e-05
3.55009e-05
3.85621e-05
4.16588e-05
4.37324e-05
3.92968e-05
3.24091e-05
2.64701e-05
2.01209e-05
2.1943e-05
2.40761e-05
2.86154e-05
3.11477e-05
3.13667e-05
3.63096e-05
3.98409e-05
4.09185e-05
4.26576e-05
4.00488e-05
4.62731e-05
5.01992e-05
5.75169e-05
6.22164e-05
5.23096e-05
4.5389e-05
4.15463e-05
4.46555e-05
4.59928e-05
4.44206e-05
4.27643e-05
3.58499e-05
3.4694e-05
3.76671e-05
3.81162e-05
3.93625e-05
3.84793e-05
4.95439e-05
4.15901e-05
4.06066e-05
4.49593e-05
4.34602e-05
4.39976e-05
4.7604e-05
5.17601e-05
5.577e-05
4.96742e-05
4.02368e-05
3.32095e-05
2.57383e-05
2.69987e-05
3.08457e-05
3.59713e-05
3.89042e-05
4.10571e-05
4.83996e-05
5.30455e-05
5.50516e-05
5.83218e-05
5.5913e-05
6.46543e-05
6.87912e-05
7.79316e-05
8.4896e-05
7.28825e-05
6.35796e-05
5.70307e-05
6.08233e-05
6.23521e-05
6.11581e-05
5.73207e-05
4.62867e-05
4.4136e-05
4.85707e-05
5.115e-05
5.39013e-05
5.27336e-05
6.10602e-05
5.04876e-05
4.83485e-05
5.444e-05
5.1094e-05
5.15584e-05
5.58277e-05
6.17302e-05
6.79656e-05
5.99079e-05
4.84251e-05
3.97572e-05
3.10305e-05
3.11716e-05
3.67374e-05
4.29613e-05
4.68085e-05
5.12734e-05
6.08893e-05
6.69433e-05
7.13054e-05
7.68475e-05
7.60972e-05
8.81997e-05
9.15845e-05
0.000102246
0.000111486
9.85218e-05
8.54778e-05
7.5674e-05
8.04561e-05
8.31657e-05
8.15042e-05
7.31193e-05
5.71692e-05
5.4066e-05
6.04803e-05
6.51222e-05
6.88438e-05
6.70419e-05
7.16372e-05
5.842e-05
5.43883e-05
6.32442e-05
5.70509e-05
5.94097e-05
6.52704e-05
7.345e-05
8.10483e-05
7.01897e-05
5.60824e-05
4.59492e-05
3.65534e-05
3.46171e-05
4.11152e-05
4.87513e-05
5.44414e-05
6.04977e-05
7.18451e-05
7.80358e-05
8.5594e-05
9.45466e-05
9.70751e-05
0.000113541
0.000117528
0.000130676
0.000140811
0.000125672
0.000108476
9.68059e-05
0.000102726
0.000106789
0.000104463
9.10157e-05
6.9881e-05
6.578e-05
7.49713e-05
7.99326e-05
8.40291e-05
8.04419e-05
8.04575e-05
6.621e-05
5.97023e-05
7.22151e-05
6.19351e-05
6.66779e-05
7.47921e-05
8.51477e-05
9.38473e-05
7.95171e-05
6.28086e-05
5.18337e-05
4.11345e-05
3.77719e-05
4.40508e-05
5.35006e-05
6.15507e-05
6.88325e-05
8.16008e-05
8.5871e-05
9.63451e-05
0.000107528
0.000113253
0.000135673
0.000140156
0.000156259
0.000163758
0.000147587
0.000127358
0.000114756
0.000121754
0.000126666
0.000125976
0.000110464
8.44141e-05
7.86121e-05
8.9436e-05
9.35956e-05
9.75753e-05
9.19755e-05
8.64641e-05
7.20182e-05
6.3511e-05
7.93981e-05
6.61396e-05
7.11732e-05
8.08643e-05
9.11894e-05
0.00010154
8.51534e-05
6.73811e-05
5.67388e-05
4.43933e-05
4.0197e-05
4.57447e-05
5.66673e-05
6.7117e-05
7.42976e-05
8.8969e-05
8.97692e-05
0.000102101
0.000116948
0.000120651
0.000150475
0.000153495
0.000174301
0.000178545
0.0001611
0.000136908
0.000124832
0.000132761
0.000138583
0.000139448
0.000123951
9.38541e-05
8.81553e-05
9.94742e-05
0.000102357
0.00010573
9.96567e-05
9.05091e-05
7.5971e-05
6.45397e-05
8.12673e-05
6.73189e-05
7.19296e-05
8.27593e-05
9.24854e-05
0.00010321
8.66955e-05
7.01377e-05
5.8658e-05
4.75679e-05
4.18582e-05
4.64812e-05
5.81962e-05
6.93621e-05
7.61347e-05
9.3187e-05
9.11368e-05
0.000104452
0.000119989
0.000120793
0.000154233
0.000157084
0.000183374
0.000185971
0.000167352
0.0001403
0.000129594
0.000137673
0.000144213
0.000146098
0.000132196
9.83682e-05
9.39297e-05
0.000102972
0.000104296
0.000108774
0.000104594
9.24434e-05
7.6679e-05
6.46711e-05
8.02858e-05
6.79599e-05
7.2642e-05
8.23002e-05
9.16371e-05
0.000102155
8.57032e-05
7.05282e-05
5.75574e-05
4.47265e-05
4.18265e-05
4.60014e-05
5.80093e-05
6.85695e-05
7.53582e-05
9.42957e-05
9.21148e-05
0.000105825
0.00011973
0.000117155
0.000148388
0.000155622
0.000183838
0.000187862
0.000169704
0.000140562
0.000132944
0.00014112
0.000148221
0.000149454
0.000137275
0.000100844
0.000100024
0.000104132
0.000103269
0.000108393
0.000106176
9.29099e-05
7.65842e-05
6.40806e-05
7.95005e-05
6.64441e-05
7.22203e-05
8.17251e-05
9.08549e-05
0.00010118
8.55079e-05
7.1469e-05
5.73212e-05
4.44777e-05
4.12209e-05
4.62915e-05
5.83801e-05
6.72805e-05
7.55199e-05
9.41223e-05
9.27552e-05
0.000106619
0.00011952
0.000115639
0.000144793
0.00015559
0.000182633
0.000191284
0.000171183
0.000139763
0.000135636
0.000143257
0.000150499
0.000150513
0.000137679
0.000100885
0.000103667
0.000105893
0.000101755
0.000106848
0.000106057
9.26727e-05
7.6955e-05
6.38453e-05
7.95539e-05
6.56583e-05
7.25429e-05
8.08477e-05
9.03561e-05
9.95139e-05
8.47359e-05
7.07385e-05
5.65632e-05
4.3776e-05
4.08656e-05
4.56907e-05
5.7678e-05
6.61292e-05
7.54547e-05
9.22092e-05
9.21199e-05
0.00010554
0.000119754
0.000115068
0.000143478
0.000155469
0.000181229
0.000191777
0.000171735
0.000138686
0.000136501
0.000143831
0.000150811
0.000150026
0.000136189
9.97453e-05
0.000105834
0.000107839
0.000101015
0.000105859
0.000104954
9.12988e-05
7.63521e-05
6.33197e-05
7.88565e-05
6.48204e-05
7.14126e-05
7.97628e-05
8.90684e-05
9.82652e-05
8.39071e-05
7.0007e-05
5.61382e-05
4.28163e-05
4.01615e-05
4.46589e-05
5.63556e-05
6.47357e-05
7.44708e-05
9.06423e-05
9.08817e-05
0.000103561
0.00011891
0.000113982
0.000141613
0.000154187
0.000179059