/*--------------------------------*- C++ -*----------------------------------*\
  =========                 |
  \\      /  F ield         | OpenFOAM: The Open Source CFD Toolbox
   \\    /   O peration     | Website:  https://openfoam.org
    \\  /    A nd           | Version:  10
     \\/     M anipulation  |
\*---------------------------------------------------------------------------*/
FoamFile
{
    format      ascii;
    class       volVectorField;
    location    "3";
    object      UMean;
}
// * * * * * * * * * * * * * * * * * * * * * * * * * * * * * * * * * * * * * //

dimensions      [0 1 -1 0 0 0 0];

internalField   nonuniform List<vector> 
25600
(
(0.13187 -3.06444e-07 2.04752e-06)
(0.131883 1.03629e-05 1.58565e-06)
(0.131873 1.81504e-05 2.78373e-06)
(0.131864 1.50125e-05 2.60781e-06)
(0.131864 1.15875e-05 2.49035e-06)
(0.131856 8.68965e-06 2.33942e-06)
(0.131856 7.20007e-06 2.21992e-06)
(0.131853 6.06216e-06 2.30369e-06)
(0.131852 5.16573e-06 2.2873e-06)
(0.131851 3.38673e-06 2.2976e-06)
(0.13185 2.25318e-06 2.1476e-06)
(0.13185 3.61946e-08 2.06648e-06)
(0.13185 -1.12956e-06 1.89955e-06)
(0.131851 -2.61533e-06 1.80896e-06)
(0.131853 -3.48201e-06 1.74262e-06)
(0.131854 -4.02178e-06 1.65791e-06)
(0.131855 -4.59929e-06 1.57693e-06)
(0.131857 -4.33136e-06 1.3248e-06)
(0.131858 -4.43131e-06 1.07844e-06)
(0.13186 -3.69195e-06 6.16413e-07)
(0.131861 -3.24061e-06 2.33034e-07)
(0.131862 -2.151e-06 -1.91265e-07)
(0.131863 -1.12552e-06 -4.08721e-07)
(0.131863 5.1827e-08 -4.70403e-07)
(0.131864 9.88118e-07 -3.35891e-07)
(0.131863 1.89425e-06 9.27498e-08)
(0.131863 2.05923e-06 6.36085e-07)
(0.131862 2.69577e-06 1.37592e-06)
(0.131861 2.1124e-06 2.0459e-06)
(0.131859 1.59414e-06 2.71963e-06)
(0.13186 4.0213e-07 3.23657e-06)
(0.131857 -5.42172e-07 3.64762e-06)
(0.131861 -2.39281e-06 3.78602e-06)
(0.131858 2.01693e-07 4.00177e-06)
(0.131858 -7.58112e-06 3.45897e-06)
(0.131864 7.53496e-06 4.26845e-06)
(0.131846 -1.56058e-05 2.11634e-06)
(0.131882 7.59502e-06 3.87867e-06)
(0.131833 -1.86415e-07 1.49954e-06)
(0.131888 -4.24013e-05 -1.01843e-06)
(0.133383 3.20542e-06 2.36633e-06)
(0.133396 4.09093e-06 -1.63116e-07)
(0.133398 7.22062e-06 6.89413e-07)
(0.133398 7.3267e-06 1.00477e-06)
(0.133403 8.27739e-06 1.3718e-06)
(0.133397 8.05157e-06 1.67618e-06)
(0.133398 8.19377e-06 1.73345e-06)
(0.133395 7.61855e-06 2.12203e-06)
(0.133393 7.22653e-06 2.25575e-06)
(0.133392 4.68151e-06 2.40291e-06)
(0.13339 3.66947e-06 2.30117e-06)
(0.13339 -9.17219e-08 2.29232e-06)
(0.133391 -1.04859e-06 2.08723e-06)
(0.133392 -3.43136e-06 2.08404e-06)
(0.133394 -4.33916e-06 2.08907e-06)
(0.133395 -5.00988e-06 2.13727e-06)
(0.133397 -6.17578e-06 2.16216e-06)
(0.133399 -5.21022e-06 1.97049e-06)
(0.1334 -5.61137e-06 1.81895e-06)
(0.133402 -4.11023e-06 1.28193e-06)
(0.133403 -3.82168e-06 9.22562e-07)
(0.133405 -2.54635e-06 3.88428e-07)
(0.133405 -1.20035e-06 9.75346e-08)
(0.133406 1.36285e-07 -4.8838e-08)
(0.133406 1.58623e-06 -1.1216e-07)
(0.133406 2.68436e-06 3.60832e-07)
(0.133405 2.82341e-06 7.67267e-07)
(0.133404 3.97276e-06 1.57755e-06)
(0.133402 3.16426e-06 2.18559e-06)
(0.1334 2.29558e-06 2.92732e-06)
(0.133401 9.73514e-07 3.48343e-06)
(0.133398 -1.49126e-06 3.9724e-06)
(0.133402 -1.68123e-06 4.23675e-06)
(0.133398 -2.66222e-06 4.22179e-06)
(0.133403 -2.76925e-06 4.44194e-06)
(0.133399 -5.30579e-07 3.64621e-06)
(0.133403 -3.55821e-06 3.68188e-06)
(0.133399 1.30139e-06 3.09574e-06)
(0.133404 -2.6952e-07 6.46273e-07)
(0.13341 -4.21092e-06 2.94581e-06)
(0.133595 3.16717e-06 2.06066e-06)
(0.133606 5.2794e-06 -8.21644e-07)
(0.133607 7.57657e-06 -4.41497e-08)
(0.133605 8.7785e-06 4.75816e-07)
(0.13361 1.02737e-05 7.86155e-07)
(0.133603 9.8304e-06 1.38158e-06)
(0.133604 1.02926e-05 1.37875e-06)
(0.133601 9.56517e-06 2.19917e-06)
(0.133598 9.9201e-06 2.44092e-06)
(0.133597 5.80943e-06 2.76758e-06)
(0.133595 5.39123e-06 2.62907e-06)
(0.133595 -9.84602e-07 2.72054e-06)
(0.133596 -9.63612e-07 2.3868e-06)
(0.133597 -4.47659e-06 2.51873e-06)
(0.1336 -5.10502e-06 2.64246e-06)
(0.1336 -5.89734e-06 2.86652e-06)
(0.133603 -8.01578e-06 3.06803e-06)
(0.133606 -5.68873e-06 2.89357e-06)
(0.133607 -6.62784e-06 2.89625e-06)
(0.133609 -3.71123e-06 2.05927e-06)
(0.13361 -4.05897e-06 1.74401e-06)
(0.133612 -2.41867e-06 9.33011e-07)
(0.133613 -7.57678e-07 4.97564e-07)
(0.133614 9.49086e-07 2.51149e-07)
(0.133614 2.93354e-06 -1.20993e-07)
(0.133613 4.06349e-06 5.92872e-07)
(0.133612 3.82697e-06 8.88011e-07)
(0.13361 6.13263e-06 2.04616e-06)
(0.133608 4.90692e-06 2.59149e-06)
(0.133606 3.74197e-06 3.57911e-06)
(0.133605 1.76919e-06 4.21428e-06)
(0.133603 -2.64359e-06 4.92565e-06)
(0.133608 -1.89812e-06 5.16331e-06)
(0.133604 -3.83949e-06 5.18329e-06)
(0.13361 -2.48829e-06 5.54014e-06)
(0.133605 -9.14712e-07 4.26443e-06)
(0.13361 -2.87581e-06 4.60356e-06)
(0.133607 7.26297e-07 3.31433e-06)
(0.133607 1.4268e-06 9.12599e-07)
(0.133616 -2.74582e-06 3.19565e-06)
(0.133771 4.75597e-06 1.86534e-06)
(0.133783 5.9057e-06 -1.44838e-06)
(0.133784 5.95943e-06 -8.82421e-07)
(0.133783 8.79881e-06 6.68718e-08)
(0.133787 1.12983e-05 1.37814e-07)
(0.13378 1.06989e-05 1.20184e-06)
(0.13378 1.2105e-05 9.47497e-07)
(0.133777 1.1344e-05 2.52192e-06)
(0.133772 1.35852e-05 2.81946e-06)
(0.133771 6.64052e-06 3.42921e-06)
(0.133768 7.65715e-06 3.09067e-06)
(0.133768 -3.25296e-06 3.32361e-06)
(0.133771 -8.3265e-07 2.70321e-06)
(0.133771 -5.91263e-06 3.098e-06)
(0.133775 -5.79542e-06 3.38039e-06)
(0.133775 -6.8323e-06 3.85015e-06)
(0.13378 -1.05749e-05 4.31581e-06)
(0.133782 -5.70622e-06 4.1267e-06)
(0.133784 -7.5027e-06 4.41299e-06)
(0.133786 -1.99958e-06 3.05081e-06)
(0.133786 -4.00584e-06 2.82632e-06)
(0.13379 -1.63997e-06 1.50832e-06)
(0.133791 1.77737e-07 9.05145e-07)
(0.133792 2.81094e-06 4.17328e-07)
(0.133791 5.23765e-06 -4.38676e-07)
(0.133789 5.92855e-06 7.94944e-07)
(0.133789 4.83935e-06 9.47045e-07)
(0.133787 9.26695e-06 2.80301e-06)
(0.133783 7.68427e-06 3.24177e-06)
(0.13378 5.96171e-06 4.65983e-06)
(0.133778 3.02837e-06 5.4668e-06)
(0.133778 -5.10831e-06 6.52218e-06)
(0.133783 -1.68973e-06 6.71454e-06)
(0.13378 -6.21483e-06 6.75219e-06)
(0.133787 -4.52942e-07 7.25959e-06)
(0.133781 -2.63562e-06 5.34737e-06)
(0.133787 -6.01977e-07 5.85777e-06)
(0.133784 9.31118e-07 3.81559e-06)
(0.133784 3.3145e-06 1.27165e-06)
(0.133793 4.48075e-06 3.27211e-06)
(0.133937 4.84001e-06 1.67002e-06)
(0.133949 6.85047e-06 -2.00487e-06)
(0.133951 4.87487e-06 -1.7787e-06)
(0.133951 1.05235e-05 -1.51748e-07)
(0.133953 1.35577e-05 -5.66476e-07)
(0.133945 1.17662e-05 1.23047e-06)
(0.133946 1.41198e-05 3.92366e-07)
(0.133943 1.32237e-05 3.21656e-06)
(0.133936 1.90569e-05 3.43286e-06)
(0.133934 7.00076e-06 4.44198e-06)
(0.133929 1.07908e-05 3.61244e-06)
(0.13393 -7.69878e-06 4.1098e-06)
(0.133936 -5.23711e-07 2.91486e-06)
(0.133935 -7.71366e-06 3.77002e-06)
(0.13394 -6.29853e-06 4.28964e-06)
(0.133938 -7.87647e-06 5.07865e-06)
(0.133945 -1.43276e-05 5.99695e-06)
(0.133949 -5.028e-06 5.72071e-06)
(0.133951 -7.98965e-06 6.59128e-06)
(0.133953 1.83105e-06 4.26378e-06)
(0.133952 -3.6805e-06 4.3468e-06)
(0.133957 -1.29901e-07 2.12367e-06)
(0.133958 1.76997e-06 1.40248e-06)
(0.133959 6.26761e-06 4.96207e-07)
(0.133958 8.78247e-06 -1.23059e-06)
(0.133954 8.04219e-06 9.42007e-07)
(0.133956 5.58847e-06 8.98679e-07)
(0.133954 1.36418e-05 4.00082e-06)
(0.133947 1.20045e-05 4.10869e-06)
(0.133944 9.30808e-06 6.36048e-06)
(0.133939 4.57197e-06 7.35843e-06)
(0.133941 -9.48851e-06 8.96708e-06)
(0.133948 -1.42777e-06 8.94945e-06)
(0.133946 -9.04032e-06 9.02789e-06)
(0.133954 2.10184e-06 9.6596e-06)
(0.133946 -3.92963e-06 6.88612e-06)
(0.133954 3.78755e-07 7.62748e-06)
(0.133951 1.06887e-06 4.53884e-06)
(0.133951 6.46355e-06 2.16661e-06)
(0.133958 7.58746e-06 2.96968e-06)
(0.134092 5.62658e-06 1.46481e-06)
(0.134104 7.67743e-06 -2.36705e-06)
(0.134107 2.55216e-06 -2.94748e-06)
(0.13411 1.30657e-05 -1.8036e-07)
(0.134109 1.60056e-05 -1.41539e-06)
(0.134101 1.2246e-05 1.53594e-06)
(0.134102 1.57179e-05 -3.3137e-07)
(0.134101 1.51242e-05 4.52308e-06)
(0.134089 2.72803e-05 4.35846e-06)
(0.134086 6.49718e-06 5.87612e-06)
(0.134079 1.51305e-05 4.11073e-06)
(0.134081 -1.53741e-05 5.10657e-06)
(0.134092 4.58121e-08 3.00367e-06)
(0.134088 -9.82191e-06 4.50399e-06)
(0.134096 -6.6339e-06 5.36387e-06)
(0.134091 -9.27394e-06 6.55209e-06)
(0.134102 -1.99629e-05 8.19908e-06)
(0.134107 -3.35692e-06 7.85921e-06)
(0.134109 -7.78994e-06 9.64305e-06)
(0.13411 8.69883e-06 5.82664e-06)
(0.134106 -3.27995e-06 6.38043e-06)
(0.134114 2.23122e-06 2.94499e-06)
(0.134116 4.15682e-06 2.129e-06)
(0.134117 1.2358e-05 4.43073e-07)
(0.134114 1.38391e-05 -2.84968e-06)
(0.134108 1.00122e-05 9.61401e-07)
(0.134114 5.59442e-06 7.28729e-07)
(0.134112 1.96704e-05 5.85746e-06)
(0.134101 1.8873e-05 5.21345e-06)
(0.134096 1.39064e-05 8.82833e-06)
(0.134087 6.50756e-06 1.00082e-05)
(0.134094 -1.70759e-05 1.26009e-05)
(0.134104 -6.3693e-07 1.21218e-05)
(0.134103 -1.2918e-05 1.21018e-05)
(0.134111 6.64011e-06 1.29938e-05)
(0.1341 -6.35776e-06 8.82658e-06)
(0.134111 1.56526e-06 1.01142e-05)
(0.134108 1.22797e-06 5.69436e-06)
(0.134109 1.15218e-05 3.65222e-06)
(0.134113 1.25684e-05 2.67024e-06)
(0.134235 5.89032e-06 1.30405e-06)
(0.134249 7.65832e-06 -2.3298e-06)
(0.134256 -1.14397e-06 -4.20992e-06)
(0.134261 1.75368e-05 2.73809e-07)
(0.134254 1.86367e-05 -2.33953e-06)
(0.134247 1.19454e-05 2.26145e-06)
(0.134249 1.64837e-05 -1.13304e-06)
(0.134252 1.7312e-05 6.93035e-06)
(0.134233 3.94926e-05 5.66642e-06)
(0.134228 4.51225e-06 7.77538e-06)
(0.134218 2.09459e-05 4.23301e-06)
(0.134223 -2.74938e-05 6.3843e-06)
(0.134241 9.87113e-07 2.68239e-06)
(0.134233 -1.21529e-05 5.10606e-06)
(0.134243 -7.05981e-06 6.51625e-06)
(0.134232 -1.13624e-05 8.16259e-06)
(0.13425 -2.83052e-05 1.11753e-05)
(0.134257 -3.17149e-07 1.07894e-05)
(0.134259 -6.09093e-06 1.38655e-05)
(0.134257 1.9619e-05 7.67003e-06)
(0.134249 -3.28239e-06 9.23976e-06)
(0.134263 5.61219e-06 3.98621e-06)
(0.134266 7.64352e-06 3.44983e-06)
(0.134267 2.25831e-05 1.61646e-07)
(0.134259 2.05101e-05 -5.81121e-06)
(0.134251 1.12794e-05 6.54944e-07)
(0.134264 4.18676e-06 6.8311e-07)
(0.134264 2.79125e-05 8.86e-06)
(0.134246 2.95765e-05 6.57405e-06)
(0.134238 1.9885e-05 1.22879e-05)
(0.134222 8.32698e-06 1.36316e-05)
(0.134238 -2.94195e-05 1.78251e-05)
(0.134252 9.60754e-07 1.65176e-05)
(0.134251 -1.76955e-05 1.60865e-05)
(0.134259 1.33007e-05 1.74854e-05)
(0.134244 -1.02935e-05 1.10757e-05)
(0.13426 2.51696e-06 1.36385e-05)
(0.134257 9.98728e-07 7.58755e-06)
(0.134259 1.99372e-05 6.18533e-06)
(0.134257 1.79751e-05 2.20129e-06)
(0.134369 6.36243e-06 9.26387e-07)
(0.134385 6.76178e-06 -9.46018e-07)
(0.134397 -6.3598e-06 -5.16655e-06)
(0.134405 2.46379e-05 1.63614e-06)
(0.13439 2.06252e-05 -3.16228e-06)
(0.134384 1.02817e-05 3.62023e-06)
(0.134389 1.5656e-05 -1.62086e-06)
(0.134397 2.02286e-05 1.12225e-05)
(0.134366 5.71541e-05 7.40323e-06)
(0.13436 -1.9282e-07 1.00545e-05)
(0.134346 2.85627e-05 3.76476e-06)
(0.134355 -4.53949e-05 8.35728e-06)
(0.134384 2.98749e-06 2.3685e-06)
(0.134368 -1.43045e-05 5.12308e-06)
(0.13438 -8.53471e-06 7.56763e-06)
(0.134363 -1.46848e-05 9.61542e-06)
(0.134391 -4.01255e-05 1.53667e-05)
(0.134402 4.35873e-06 1.51868e-05)
(0.134403 -1.8143e-06 1.95119e-05)
(0.134395 3.51878e-05 9.85284e-06)
(0.134382 -4.40737e-06 1.28439e-05)
(0.134404 1.02119e-05 5.84294e-06)
(0.134409 1.29759e-05 5.96734e-06)
(0.134408 3.89818e-05 -5.7137e-07)
(0.134392 2.84949e-05 -1.10276e-05)
(0.134384 1.06003e-05 -2.05699e-07)
(0.134407 6.16914e-07 1.36808e-06)
(0.13441 3.91313e-05 1.37727e-05)
(0.134381 4.5816e-05 8.15379e-06)
(0.134369 2.69437e-05 1.68978e-05)
(0.134344 9.37995e-06 1.82712e-05)
(0.134374 -4.80268e-05 2.54218e-05)
(0.134394 4.00382e-06 2.28182e-05)
(0.134392 -2.35863e-05 2.08412e-05)
(0.134398 2.19707e-05 2.33943e-05)
(0.134377 -1.66336e-05 1.36426e-05)
(0.134401 3.31973e-06 1.87566e-05)
(0.1344 5.99933e-07 1.10044e-05)
(0.134402 3.32681e-05 9.96653e-06)
(0.13439 2.38902e-05 1.56918e-06)
(0.134493 6.69605e-06 3.36818e-08)
(0.134511 4.35695e-06 3.22606e-06)
(0.134532 -1.25444e-05 -4.78813e-06)
(0.134541 3.59238e-05 4.17616e-06)
(0.134515 2.03062e-05 -3.70965e-06)
(0.134512 6.68202e-06 5.81125e-06)
(0.134521 1.28348e-05 -8.02663e-07)
(0.134539 2.49178e-05 1.87843e-05)
(0.134489 8.18213e-05 9.42164e-06)
(0.134481 -9.61934e-06 1.2165e-05)
(0.134463 3.78729e-05 2.22044e-06)
(0.134477 -7.00068e-05 1.16684e-05)
(0.134523 7.03452e-06 3.04959e-06)
(0.134494 -1.52715e-05 3.95576e-06)
(0.134509 -1.2808e-05 8.0481e-06)
(0.134484 -1.98137e-05 1.05124e-05)
(0.134526 -5.61315e-05 2.16271e-05)
(0.134542 1.13541e-05 2.23299e-05)
(0.13454 6.37003e-06 2.64486e-05)
(0.134522 5.50495e-05 1.18994e-05)
(0.134504 -7.73054e-06 1.71136e-05)
(0.134538 1.66e-05 9.33633e-06)
(0.134547 2.14209e-05 1.09979e-05)
(0.134542 6.41274e-05 -2.24033e-06)
(0.134513 3.65263e-05 -1.98073e-05)
(0.134505 6.14744e-06 -2.1379e-06)
(0.134546 -5.42594e-06 4.10174e-06)
(0.134553 5.4582e-05 2.19831e-05)
(0.134507 6.99852e-05 9.80832e-06)
(0.134488 3.35825e-05 2.2717e-05)
(0.134453 8.83995e-06 2.38555e-05)
(0.134502 -7.42659e-05 3.66039e-05)
(0.13453 9.46077e-06 3.22573e-05)
(0.134526 -3.03206e-05 2.59833e-05)
(0.134529 3.12738e-05 3.07314e-05)
(0.1345 -2.61907e-05 1.61526e-05)
(0.134535 3.90904e-06 2.62907e-05)
(0.134537 6.20552e-07 1.75124e-05)
(0.134538 5.34774e-05 1.54608e-05)
(0.134512 2.87594e-05 5.83318e-07)
(0.134608 6.98107e-06 -1.89887e-06)
(0.134628 6.03755e-07 1.27655e-05)
(0.134663 -1.7909e-05 -7.81045e-07)
(0.134671 5.3022e-05 8.15985e-06)
(0.134629 1.40716e-05 -3.56581e-06)
(0.134632 3.57802e-07 9.0547e-06)
(0.134648 8.25839e-06 3.21459e-06)
(0.134679 3.32533e-05 3.21664e-05)
(0.134602 0.000114706 1.09983e-05)
(0.134591 -2.77607e-05 1.30054e-05)
(0.13457 4.77579e-05 -1.3333e-06)
(0.134592 -0.000101578 1.80373e-05)
(0.134659 1.44936e-05 6.68621e-06)
(0.134611 -1.41001e-05 3.60892e-07)
(0.13463 -2.30658e-05 7.41484e-06)
(0.134595 -2.76205e-05 9.90329e-06)
(0.134656 -7.60612e-05 3.16859e-05)
(0.134679 2.1591e-05 3.49552e-05)
(0.134672 2.05534e-05 3.41971e-05)
(0.134638 7.71508e-05 1.3049e-05)
(0.134615 -1.44879e-05 2.14016e-05)
(0.134667 2.60514e-05 1.62917e-05)
(0.134681 3.49233e-05 2.07404e-05)
(0.134666 0.000100957 -5.79328e-06)
(0.134619 4.16572e-05 -3.42629e-05)
(0.134617 -4.36407e-06 -5.99317e-06)
(0.13468 -1.33083e-05 1.13279e-05)
(0.134694 7.641e-05 3.61802e-05)
(0.134623 0.000104642 1.11264e-05)
(0.134593 3.76298e-05 2.93293e-05)
(0.134547 5.4907e-06 2.99858e-05)
(0.134625 -0.000108683 5.33451e-05)
(0.134663 1.9013e-05 4.72406e-05)
(0.134652 -3.84655e-05 3.10622e-05)
(0.13465 3.82703e-05 3.91283e-05)
(0.134613 -3.96129e-05 1.86852e-05)
(0.134664 5.04767e-06 3.8291e-05)
(0.13467 2.41177e-06 3.03133e-05)
(0.134666 8.27341e-05 2.29013e-05)
(0.134622 2.94844e-05 -1.0696e-06)
(0.134716 6.81539e-06 -5.92527e-06)
(0.134737 -3.30588e-06 3.22558e-05)
(0.13479 -1.92072e-05 1.08061e-05)
(0.134791 7.74204e-05 1.31862e-05)
(0.13473 -4.06664e-06 -3.08234e-06)
(0.134746 -9.47066e-06 1.31254e-05)
(0.134771 3.20996e-06 1.36488e-05)
(0.134818 4.81404e-05 5.55897e-05)
(0.134701 0.000157125 1.06258e-05)
(0.13469 -6.10477e-05 1.01894e-05)
(0.134669 5.72353e-05 -8.3503e-06)
(0.1347 -0.000138606 3.07365e-05)
(0.134794 2.78584e-05 1.73727e-05)
(0.134716 -9.83779e-06 -7.90836e-06)
(0.13474 -4.60499e-05 4.53399e-06)
(0.134698 -3.97267e-05 6.28123e-06)
(0.134781 -9.84422e-05 4.83361e-05)
(0.134815 3.65557e-05 5.75983e-05)
(0.134797 4.23797e-05 4.12114e-05)
(0.134743 9.53851e-05 1.15601e-05)
(0.134718 -2.63621e-05 2.46724e-05)
(0.134794 4.04071e-05 3.0509e-05)
(0.134812 5.67599e-05 3.94519e-05)
(0.134781 0.000152501 -1.29586e-05)
(0.134707 3.73728e-05 -5.7399e-05)
(0.13472 -2.4221e-05 -1.29697e-05)
(0.134814 -2.15672e-05 2.73792e-05)
(0.134836 0.000107896 6.05447e-05)
(0.134728 0.000152286 1.09308e-05)
(0.134684 3.31398e-05 3.55381e-05)
(0.134629 -2.41582e-06 3.54215e-05)
(0.134743 -0.000150153 7.89177e-05)
(0.134793 3.54556e-05 7.24223e-05)
(0.134769 -4.9105e-05 3.46148e-05)
(0.134763 3.51936e-05 4.75059e-05)
(0.13472 -5.84946e-05 2.04177e-05)
(0.134788 8.21051e-06 5.82423e-05)
(0.134801 9.216e-06 5.48833e-05)
(0.134785 0.000122738 3.23978e-05)
(0.134719 1.99215e-05 -4.56092e-06)
(0.134819 5.6165e-06 -1.40113e-05)
(0.13484 -4.33023e-06 6.80215e-05)
(0.134915 -1.03371e-05 3.69318e-05)
(0.134899 0.000110456 1.76388e-05)
(0.134819 -4.5002e-05 -2.96631e-06)
(0.134856 -2.31239e-05 1.74651e-05)
(0.134891 1.25307e-06 3.51011e-05)
(0.134957 7.40737e-05 9.59133e-05)
(0.134784 0.000210088 4.55379e-06)
(0.134776 -0.000120045 -3.35474e-07)
(0.134763 6.39781e-05 -2.20645e-05)
(0.134803 -0.000177216 5.53815e-05)
(0.134929 5.15736e-05 4.17466e-05)
(0.134807 -2.3047e-06 -2.49973e-05)
(0.134841 -9.27667e-05 -2.70052e-06)
(0.134797 -5.82139e-05 -3.53918e-06)
(0.134904 -0.000119808 7.71921e-05)
(0.134951 5.9257e-05 9.85648e-05)
(0.134913 7.42844e-05 4.43396e-05)
(0.134834 0.000100418 4.14087e-06)
(0.134816 -4.45248e-05 2.5183e-05)
(0.134919 6.41635e-05 5.75773e-05)
(0.134943 9.09618e-05 7.33101e-05)
(0.134881 0.000222379 -2.69715e-05)
(0.134776 1.27516e-05 -9.40006e-05)
(0.134817 -5.74024e-05 -2.49569e-05)
(0.134951 -2.5499e-05 5.96266e-05)
(0.13498 0.000153976 0.000102615)
(0.134818 0.000215774 7.29008e-06)
(0.134758 1.11193e-05 3.84267e-05)
(0.134702 -1.64852e-05 3.8041e-05)
(0.13486 -0.000195132 0.000118131)
(0.134921 6.32176e-05 0.000115607)
(0.134873 -6.22341e-05 3.46177e-05)
(0.134867 1.20103e-05 5.34895e-05)
(0.134822 -8.50625e-05 2.09382e-05)
(0.13491 1.60499e-05 9.21879e-05)
(0.13493 2.56125e-05 0.00010029)
(0.134893 0.000175216 4.28213e-05)
(0.134802 -1.03048e-05 -1.21936e-05)
(0.134924 2.52369e-06 -2.90098e-05)
(0.13494 4.24639e-06 0.000130643)
(0.135038 1.80515e-05 8.83951e-05)
(0.13499 0.000153998 1.78716e-05)
(0.134894 -0.000125497 -5.21873e-06)
(0.134969 -4.08947e-05 2.02378e-05)
(0.135011 1.00665e-05 7.56114e-05)
(0.135095 0.000116696 0.000163431)
(0.134846 0.000274322 -1.38277e-05)
(0.134849 -0.000220757 -2.52255e-05)
(0.134857 6.44906e-05 -4.67649e-05)
(0.134904 -0.000210475 0.000100265)
(0.135062 9.14268e-05 9.11166e-05)
(0.134879 9.13338e-06 -5.83895e-05)
(0.134931 -0.000182189 -1.78868e-05)
(0.134897 -8.40765e-05 -2.45608e-05)
(0.135028 -0.000133006 0.00012541)
(0.135086 9.36945e-05 0.000170416)
(0.135017 0.000115737 3.79737e-05)
(0.134909 7.21562e-05 -1.42127e-05)
(0.134913 -7.15368e-05 1.93803e-05)
(0.135046 0.000103013 0.000107854)
(0.135073 0.0001441 0.00013241)
(0.134964 0.000312831 -5.25591e-05)
(0.134823 -5.06045e-05 -0.000150037)
(0.134915 -0.000108761 -4.46152e-05)
(0.135093 -1.80322e-05 0.000118985)
(0.135125 0.000222417 0.000173294)
(0.13489 0.000296827 -4.04865e-06)
(0.134814 -4.30588e-05 3.36089e-05)
(0.134768 -3.87466e-05 3.46215e-05)
(0.134977 -0.000235455 0.000179497)
(0.135045 0.000108809 0.000188594)
(0.13496 -7.91676e-05 2.67409e-05)
(0.134961 -4.80761e-05 5.42916e-05)
(0.134925 -0.000121492 1.9035e-05)
(0.135033 3.46705e-05 0.000149661)
(0.135057 5.98838e-05 0.000180604)
(0.134983 0.000240603 5.18077e-05)
(0.134872 -7.67387e-05 -2.82447e-05)
(0.135036 -4.24788e-06 -5.62968e-05)
(0.13504 3.28227e-05 0.000233477)
(0.135157 7.91406e-05 0.00018097)
(0.135054 0.000208257 6.96973e-06)
(0.134955 -0.00027053 -1.27546e-05)
(0.135091 -6.47213e-05 1.80424e-05)
(0.135134 4.10039e-05 0.000146214)
(0.135232 0.000184185 0.000273634)
(0.134879 0.000350809 -5.50835e-05)
(0.134908 -0.000386353 -7.44827e-05)
(0.13496 5.53916e-05 -9.01424e-05)
(0.135006 -0.000226393 0.000178064)
(0.135191 0.000157481 0.000180109)
(0.134924 2.2616e-05 -0.000118382)
(0.135009 -0.000338175 -4.73888e-05)
(0.135007 -0.000123629 -6.48145e-05)
(0.135152 -0.000128126 0.000205081)
(0.135219 0.000148609 0.000291291)
(0.135101 0.000169372 1.30395e-05)
(0.13497 -1.44887e-05 -5.18832e-05)
(0.135019 -0.000110028 2.1884e-06)
(0.135178 0.000168248 0.000194314)
(0.135201 0.000224089 0.000230132)
(0.135019 0.000426143 -9.86802e-05)
(0.134844 -0.000178143 -0.000236272)
(0.135022 -0.000183836 -7.65198e-05)
(0.135245 1.54309e-05 0.000220055)
(0.13527 0.000321629 0.000288098)
(0.134935 0.00039967 -2.92318e-05)
(0.134851 -0.000148645 1.2198e-05)
(0.134838 -7.18075e-05 1.88145e-05)
(0.135098 -0.000258852 0.000272096)
(0.135162 0.000181354 0.000310659)
(0.135021 -0.000102797 3.69078e-06)
(0.135046 -0.000172361 4.36159e-05)
(0.135038 -0.000173237 1.21301e-05)
(0.13516 7.32217e-05 0.000243571)
(0.135182 0.000122672 0.000314593)
(0.135049 0.000317706 5.43025e-05)
(0.134927 -0.000203827 -5.96502e-05)
(0.135168 -1.64729e-05 -0.000103446)
(0.135144 9.94535e-05 0.000394219)
(0.13527 0.000190218 0.000335047)
(0.13508 0.000274117 -2.55448e-05)
(0.135001 -0.000513259 -3.15278e-05)
(0.135235 -9.23268e-05 6.31435e-06)
(0.13526 0.000112853 0.000261178)
(0.135364 0.000286272 0.000444729)
(0.134876 0.000439564 -0.000135319)
(0.134951 -0.000648652 -0.000162774)
(0.135083 3.21931e-05 -0.00016344)
(0.135112 -0.000206966 0.000303764)
(0.135315 0.000261388 0.000329618)
(0.134932 3.83415e-05 -0.000223937)
(0.135075 -0.000598826 -9.94094e-05)
(0.135138 -0.000179002 -0.00013499)
(0.135283 -9.0662e-05 0.000329669)
(0.135347 0.000229747 0.000484241)
(0.135155 0.000229561 -4.35315e-05)
(0.135012 -0.000199072 -0.00011882)
(0.135144 -0.000164645 -3.47176e-05)
(0.135319 0.000271813 0.000335532)
(0.135326 0.000342519 0.000385169)
(0.135039 0.00056344 -0.000176422)
(0.134836 -0.000405809 -0.000364504)
(0.13515 -0.00028782 -0.000127879)
(0.135412 9.05062e-05 0.000382575)
(0.135413 0.000468999 0.000466419)
(0.134946 0.000523582 -7.87198e-05)
(0.134866 -0.000335422 -3.44446e-05)
(0.134919 -0.000120735 -1.84181e-05)
(0.135226 -0.000246239 0.000413781)
(0.13527 0.000293273 0.00050218)
(0.135046 -0.000136652 -4.47992e-05)
(0.135121 -0.000396272 1.47471e-05)
(0.13517 -0.000244698 -1.74493e-06)
(0.135296 0.000148233 0.00039275)
(0.135301 0.000228141 0.000528343)
(0.13508 0.000404524 4.21025e-05)
(0.134967 -0.000422361 -0.000115839)
(0.135333 -3.57616e-05 -0.000183276)
(0.135255 0.000225547 0.000631059)
(0.135372 0.000376239 0.000572231)
(0.135054 0.000349708 -9.72952e-05)
(0.135033 -0.000896138 -6.83792e-05)
(0.135413 -0.000125651 -2.56927e-05)
(0.135392 0.000247969 0.000438171)
(0.135486 0.00043478 0.000700834)
(0.134823 0.000541625 -0.00027609)
(0.134979 -0.00104587 -0.000310774)
(0.135239 -8.5635e-06 -0.000285039)
(0.135226 -0.000129563 0.000495782)
(0.135427 0.000421153 0.000560347)
(0.134889 4.87025e-05 -0.000395568)
(0.135128 -0.00100186 -0.000189589)
(0.135305 -0.000259474 -0.000252208)
(0.13542 4.44362e-06 0.000519025)
(0.135466 0.000355799 0.000778555)
(0.135166 0.000301597 -0.000149543)
(0.135037 -0.000523372 -0.000232759)
(0.135304 -0.000234114 -0.000102258)
(0.13547 0.000436075 0.000550779)
(0.135446 0.00051098 0.000616015)
(0.135009 0.000725852 -0.000304715)
(0.134798 -0.00077811 -0.000554872)
(0.135313 -0.000425125 -0.000211057)
(0.135597 0.000235699 0.000626056)
(0.135548 0.000677433 0.000731255)
(0.134909 0.000675365 -0.000167162)
(0.134857 -0.000637122 -0.000126031)
(0.135027 -0.000186344 -9.02279e-05)
(0.135365 -0.000173495 0.000613147)
(0.135361 0.000459482 0.000796347)
(0.135022 -0.000185927 -0.000141351)
(0.135185 -0.000766023 -5.02187e-05)
(0.135337 -0.000342096 -3.2998e-05)
(0.135445 0.000278538 0.00061574)
(0.135409 0.000393521 0.000848106)
(0.135063 0.000497646 8.67914e-07)
(0.134994 -0.000773403 -0.000212963)
(0.135554 -6.3047e-05 -0.000319533)
(0.135383 0.000443131 0.000960104)
(0.135462 0.000661216 0.0009144)
(0.134956 0.000435847 -0.000229377)
(0.135062 -0.00146535 -0.000139283)
(0.135651 -0.000151823 -9.37089e-05)
(0.135533 0.000478608 0.000689914)
(0.135596 0.00064387 0.00106362)
(0.134707 0.000654551 -0.000504695)
(0.135003 -0.00162404 -0.000550926)
(0.135453 -7.02401e-05 -0.000486301)
(0.135355 3.58991e-05 0.000764754)
(0.135522 0.000652352 0.000895346)
(0.134779 5.70195e-05 -0.000666228)
(0.135182 -0.00160543 -0.000335736)
(0.135533 -0.000359153 -0.000445969)
(0.135572 0.000176885 0.0007832)
(0.135573 0.000529139 0.00120038)
(0.135118 0.000367885 -0.000327678)
(0.135052 -0.00105271 -0.000412263)
(0.135521 -0.000322374 -0.000225944)
(0.135636 0.000678944 0.00086098)
(0.135557 0.000748886 0.000947355)
(0.134913 0.000909414 -0.000498407)
(0.134736 -0.00135117 -0.000831041)
(0.135539 -0.000597523 -0.000352517)
(0.135807 0.000474 0.000970333)
(0.135671 0.000974011 0.00109965)
(0.134812 0.00084488 -0.000312179)
(0.134829 -0.00109923 -0.00028036)
(0.135181 -0.000273014 -0.000221414)
(0.135518 -1.01163e-05 0.000894877)
(0.13543 0.000700353 0.00121039)
(0.134931 -0.000257061 -0.000297685)
(0.135249 -0.00133291 -0.000161484)
(0.135565 -0.000466352 -9.08866e-05)
(0.135614 0.000492915 0.000936021)
(0.135505 0.000640161 0.00130718)
(0.134982 0.000593328 -8.628e-05)
(0.135018 -0.00130084 -0.000372287)
(0.135904 -9.37168e-05 -0.000568892)
(0.135555 0.000782317 0.00137694)
(0.135552 0.00109006 0.0013738)
(0.134769 0.000515123 -0.000429469)
(0.135186 -0.0022815 -0.000271736)
(0.136033 -0.000173915 -0.000252246)
(0.135706 0.000836292 0.00101815)
(0.135703 0.000933925 0.0015527)
(0.134511 0.000767663 -0.00083438)
(0.135122 -0.00243084 -0.00092989)
(0.135808 -0.000149709 -0.000832796)
(0.135531 0.00032678 0.0011062)
(0.135609 0.000987525 0.00134745)
(0.134596 3.26413e-05 -0.00104021)
(0.135341 -0.00245087 -0.000575519)
(0.13591 -0.000489192 -0.000774363)
(0.135766 0.000473879 0.00113053)
(0.135678 0.000802353 0.00177848)
(0.135 0.00044047 -0.000587359)
(0.135129 -0.0018334 -0.000702818)
(0.13586 -0.000423146 -0.000452832)
(0.135842 0.00103225 0.00126548)
(0.135676 0.00106996 0.00138706)
(0.134731 0.00110678 -0.000763702)
(0.134733 -0.00217858 -0.00125147)
(0.13591 -0.000806002 -0.000627206)
(0.136079 0.000851922 0.00140114)
(0.135792 0.00137334 0.00158832)
(0.134646 0.00104259 -0.000524651)
(0.134846 -0.00176787 -0.000544459)
(0.135444 -0.000374063 -0.000466834)
(0.135715 0.000276649 0.00123876)
(0.135485 0.00103957 0.001784)
(0.134765 -0.000363374 -0.000537986)
(0.13541 -0.00215794 -0.000366236)
(0.135939 -0.000621773 -0.00023193)
(0.135834 0.000818437 0.00135063)
(0.135602 0.0009962 0.00192178)
(0.134821 0.00067919 -0.000226536)
(0.135121 -0.00206039 -0.000637354)
(0.136628 -0.00013808 -0.00109326)
(0.135927 0.00128976 0.00182404)
(0.135737 0.00170695 0.00196917)
(0.134537 0.00056102 -0.00060141)
(0.135868 -0.00339363 -0.000529578)
(0.136861 -0.000166214 -0.000632667)
(0.13606 0.00136761 0.00135746)
(0.135891 0.00133549 0.00218168)
(0.134274 0.000837822 -0.00120835)
(0.13581 -0.00353259 -0.00147217)
(0.136588 -0.000250822 -0.00145451)
(0.135919 0.000793062 0.00146107)
(0.135753 0.00146942 0.00194769)
(0.13446 -4.17183e-05 -0.00141752)
(0.136072 -0.00363662 -0.000901088)
(0.136713 -0.000628265 -0.00137098)
(0.136167 0.000918298 0.00150563)
(0.135874 0.00116873 0.00252529)
(0.134862 0.000444441 -0.000844525)
(0.135596 -0.00295404 -0.00116095)
(0.136539 -0.000541347 -0.000933347)
(0.136225 0.00152314 0.00172257)
(0.135893 0.00153338 0.00196705)
(0.134486 0.00126434 -0.00100761)
(0.135189 -0.00333109 -0.00190134)
(0.13671 -0.00105838 -0.00123429)
(0.136579 0.00139813 0.0018433)
(0.135997 0.00195034 0.00218791)
(0.134493 0.00120866 -0.000730869)
(0.135234 -0.00269725 -0.000962458)
(0.136024 -0.000502534 -0.000962353)
(0.136106 0.000736734 0.00161647)
(0.135607 0.00152829 0.00252327)
(0.134618 -0.000537589 -0.000714674)
(0.136117 -0.00331012 -0.000656006)
(0.136752 -0.000802217 -0.000579855)
(0.136263 0.00129658 0.00181334)
(0.135796 0.00151388 0.0027224)
(0.134627 0.000727894 -0.000337811)
(0.135697 -0.00309658 -0.00107866)
(0.138161 -0.00013313 -0.00219333)
(0.13694 0.00200883 0.00217422)
(0.136249 0.00254844 0.00282475)
(0.134863 0.000411397 -0.000297764)
(0.13828 -0.00497072 -0.000887665)
(0.138674 -0.000106018 -0.0014985)
(0.136946 0.0021323 0.00151558)
(0.136346 0.00189811 0.00307122)
(0.134559 0.000734207 -0.00127269)
(0.138299 -0.00505827 -0.00190815)
(0.138299 -0.000330514 -0.00247761)
(0.136951 0.00152606 0.00176397)
(0.136185 0.00210487 0.00285681)
(0.13525 -0.000354571 -0.00109851)
(0.138455 -0.00521415 -0.00107668)
(0.138389 -0.000734838 -0.00235337)
(0.137086 0.00160605 0.00183129)
(0.136368 0.00180325 0.00350367)
(0.135166 0.000367023 -0.000704003)
(0.137362 -0.00449262 -0.00174813)
(0.138006 -0.000657967 -0.00184647)
(0.137207 0.00219426 0.00206019)
(0.136432 0.00214585 0.0028138)
(0.134615 0.00129907 -0.000933687)
(0.137222 -0.00494729 -0.00275655)
(0.138429 -0.00131616 -0.00246689)
(0.137731 0.00217728 0.00211233)
(0.136526 0.00266975 0.00297683)
(0.134945 0.0013104 -0.000550643)
(0.136945 -0.00398898 -0.00150294)
(0.137341 -0.000626467 -0.00194521)
(0.137133 0.00139621 0.00190442)
(0.136047 0.00219648 0.00362878)
(0.135257 -0.000895028 -0.000275664)
(0.138441 -0.00489818 -0.000927427)
(0.138497 -0.000972899 -0.00143966)
(0.137312 0.001976 0.0021628)
(0.136329 0.00223848 0.00377859)
(0.134922 0.000651786 -2.062e-05)
(0.137783 -0.00453975 -0.00171725)
(0.140618 -5.83637e-05 -0.00418961)
(0.138984 0.00293645 0.00221649)
(0.137462 0.00348324 0.00446164)
(0.138051 -0.000172683 0.0014881)
(0.143504 -0.00696944 -0.00128669)
(0.141551 0.000119327 -0.00328955)
(0.138832 0.00310353 0.00142021)
(0.137663 0.00255382 0.00483919)
(0.137708 0.000145656 0.000100775)
(0.143802 -0.00694729 -0.00172007)
(0.14094 -0.000332571 -0.00405636)
(0.139153 0.0025207 0.0020703)
(0.137525 0.00278791 0.00488302)
(0.139465 -0.00114006 0.0013578)
(0.143273 -0.00721569 -0.000872218)
(0.140873 -0.000598388 -0.0040033)
(0.138813 0.00249049 0.00196581)
(0.137514 0.00248482 0.00502056)
(0.137712 -4.58727e-05 0.000765688)
(0.141514 -0.00644748 -0.00231502)
(0.14062 -0.000696439 -0.00342105)
(0.13928 0.0030284 0.0020331)
(0.137668 0.0029107 0.0045255)
(0.137304 0.00085643 8.97743e-05)
(0.142078 -0.00702009 -0.00341576)
(0.141028 -0.00150561 -0.00454503)
(0.140087 0.00316124 0.00228129)
(0.137753 0.00352913 0.00446354)
(0.138105 0.000994311 0.00105295)
(0.141032 -0.00562637 -0.00201906)
(0.139583 -0.000734395 -0.00368187)
(0.139429 0.00225374 0.002164)
(0.137371 0.00298616 0.00562754)
(0.138893 -0.00162579 0.00203305)
(0.143264 -0.0068407 -0.00106633)