/*--------------------------------*- C++ -*----------------------------------*\
  =========                 |
  \\      /  F ield         | OpenFOAM: The Open Source CFD Toolbox
   \\    /   O peration     | Website:  https://openfoam.org
    \\  /    A nd           | Version:  10
     \\/     M anipulation  |
\*---------------------------------------------------------------------------*/
FoamFile
{
    format      ascii;
    class       volTensorField;
    location    "5";
    object      gradientUWrite;
}
// * * * * * * * * * * * * * * * * * * * * * * * * * * * * * * * * * * * * * //

dimensions      [0 0 -1 0 0 0 0];

internalField   nonuniform List<tensor> 
25600
(
(0.17689 -0.0139897 -0.0167307 78.4242 -1.30248 77.95 0.918164 0.0770041 2.60219)
(0.0020743 0.00922105 -0.0742927 76.4119 -0.666065 75.9704 0.720536 0.0618077 2.13045)
(-0.194784 0.0179921 -0.0409848 76.1624 -0.16455 73.3683 1.12263 0.0516368 1.71191)
(-0.133719 0.00332166 0.0722013 71.3491 -0.673368 75.3184 1.56909 0.0510826 2.08352)
(0.133792 -0.0152412 0.0593882 73.9293 -1.28169 78.4508 1.56415 0.0709071 2.497)
(0.174259 -0.0141923 -0.0336622 78.011 -1.34748 78.0702 0.924914 0.0784699 2.58791)
(0.0314907 0.00509971 -0.069253 76.2818 -0.724356 75.3209 0.688081 0.0611026 2.16568)
(-0.174498 0.0189543 -0.0324474 75.9335 -0.17515 73.2063 1.04885 0.0540069 1.72433)
(-0.154904 0.00612605 0.0568195 72.7001 -0.650762 74.882 1.59451 0.048666 2.02045)
(0.0938475 -0.015634 0.072769 73.8683 -1.29301 78.043 1.60223 0.0636435 2.53942)
(0.175734 -0.0144799 -0.0143707 75.6202 -1.34767 78.5345 0.944454 0.0790195 2.62078)
(0.0410907 0.00567378 -0.0734326 75.7094 -0.720262 75.5718 0.752494 0.0616506 2.1317)
(-0.170555 0.0187815 -0.033717 75.6381 -0.165457 73.168 1.10346 0.0544395 1.72442)
(-0.147866 0.00585035 0.0588674 73.2194 -0.579432 74.8592 1.60901 0.0521008 1.97577)
(0.12951 -0.0166001 0.0686761 74.2211 -1.37038 78.2938 1.64479 0.0645093 2.55229)
(0.187693 -0.0146963 -0.0297716 77.8458 -1.33196 78.4461 0.939367 0.0809599 2.60648)
(0.00841894 0.00609969 -0.0843804 75.9851 -0.676196 74.9603 0.685677 0.0615754 2.10791)
(-0.180097 0.0178639 -0.0201189 75.35 -0.200573 72.9423 1.10881 0.0492828 1.7454)
(-0.152481 0.00569474 0.0701056 71.6656 -0.593238 75.1911 1.56186 0.0514682 2.01206)
(0.113405 -0.0148121 0.059949 72.876 -1.27641 78.1757 1.53216 0.0695088 2.50204)
(0.186112 -0.0143279 -0.0277618 76.6475 -1.27546 78.259 0.923412 0.0772857 2.55963)
(0.0288374 0.00609749 -0.0724163 75.9826 -0.68534 75.1332 0.748346 0.0617155 2.11297)
(-0.204133 0.0192304 -0.0197904 75.4232 -0.178799 73.2594 1.11551 0.0515661 1.74613)
(-0.168311 0.00553271 0.0673981 70.2141 -0.619343 75.3693 1.6047 0.0479703 2.02611)
(0.148395 -0.0171213 0.0576728 72.5035 -1.3295 78.4692 1.61039 0.0674263 2.53751)
(0.216848 -0.0150282 -0.0415557 77.1769 -1.3199 78.0679 0.90157 0.0806988 2.59108)
(0.0062836 0.007458 -0.0744227 76.642 -0.668773 74.502 0.660303 0.0587716 2.10346)
(-0.203656 0.019854 -0.0107254 74.3955 -0.228802 73.3312 1.08052 0.0493531 1.78238)
(-0.124062 0.0051234 0.0623892 71.681 -0.662069 75.5013 1.66917 0.0478299 2.01126)
(0.137487 -0.0178917 0.04934 74.82 -1.33043 78.2379 1.66026 0.0680196 2.54649)
(0.181185 -0.0140577 -0.0392271 77.438 -1.29458 77.6228 0.916766 0.0794659 2.58439)
(-0.00289403 0.00855129 -0.0639922 76.3993 -0.696284 74.5271 0.709787 0.0561273 2.12262)
(-0.169465 0.0187403 -0.0130134 74.6941 -0.252695 73.7191 1.19815 0.0492809 1.78747)
(-0.123974 0.00472994 0.0541732 73.4055 -0.571764 75.0569 1.66784 0.0530702 1.97196)
(0.0991916 -0.0163529 0.0583979 74.8306 -1.28593 77.6254 1.65284 0.0681081 2.51866)
(0.174265 -0.0143139 -0.0250062 77.5533 -1.31895 77.8488 0.986325 0.078378 2.59843)
(0.0210076 0.00640092 -0.0692316 76.5308 -0.757799 75.0162 0.740905 0.0589417 2.18113)
(-0.17927 0.0186358 -0.0115582 75.2836 -0.258843 73.5469 1.13158 0.0504686 1.79193)
(-0.127626 0.00542391 0.0694343 71.1802 -0.601636 75.6267 1.61339 0.0524644 1.99484)
(0.144478 -0.0177178 0.0542812 75.0478 -1.31582 78.3746 1.64318 0.0703329 2.54358)
(-0.123356 0.0493131 -0.107122 -13.0965 -4.98642 -0.942204 4.40542 0.0452333 5.82858)
(-0.120377 0.04927 -0.157495 -19.4255 -3.79485 -1.12128 4.22821 -0.0440131 5.03794)
(-0.0500759 -0.0201724 0.0110378 -20.7111 -3.66482 -2.26578 5.46122 -0.0697435 4.75201)
(0.0304982 -0.0619813 0.185941 -18.1219 -4.79529 -2.49241 6.07787 0.0256463 5.54058)
(0.200656 -0.0184314 0.0783485 -15.0228 -5.64589 -1.67473 5.78098 0.104232 5.93483)
(-0.0688584 0.0447107 -0.126386 -12.5042 -5.16832 -0.838118 4.61244 0.0441276 5.83518)
(-0.143108 0.0555996 -0.177773 -19.3499 -3.85736 -0.704966 4.17449 -0.0524339 5.06657)
(0.00494112 -0.0170071 0.0127742 -21.9905 -3.58443 -2.03504 5.26778 -0.0744303 4.71064)
(0.0625653 -0.0651036 0.190028 -17.7573 -4.74491 -2.85367 6.33083 0.0131952 5.47544)
(0.0492314 -0.0191894 0.110657 -13.8517 -5.56173 -2.06101 5.84325 0.104583 6.0139)
(-0.0971776 0.0458317 -0.113216 -14.8504 -5.11211 -0.559993 4.52222 0.0506023 5.87755)
(-0.0442629 0.055484 -0.199415 -20.6138 -3.9088 -0.685609 4.35605 -0.0511764 5.00412)
(0.0576025 -0.0133066 -0.000114044 -22.1471 -3.572 -2.39577 5.33929 -0.0674138 4.66031)
(0.0886694 -0.069346 0.202867 -16.6465 -4.63775 -3.12042 6.32092 0.0128843 5.37693)
(0.099089 -0.0210306 0.11173 -13.3278 -5.68698 -2.11922 5.96958 0.109374 6.03853)
(-0.114364 0.05241 -0.141297 -14.1376 -5.04832 -0.392215 4.4885 0.0614616 5.84068)
(-0.139568 0.0523618 -0.194543 -20.1474 -3.81999 -0.815716 4.33289 -0.0631113 4.996)
(-0.0274208 -0.0153188 0.0341817 -22.2497 -3.61445 -2.36229 5.3488 -0.0763122 4.74759)
(0.0385529 -0.0624353 0.196131 -18.2194 -4.57978 -2.58 6.06322 0.0248988 5.39309)
(0.135371 -0.0193264 0.094238 -14.9668 -5.49594 -1.71742 5.68371 0.100238 5.88488)
(-0.042517 0.0466213 -0.128316 -14.6396 -5.04373 -0.336446 4.58181 0.0389112 5.78043)
(-0.095647 0.0505508 -0.181383 -19.9806 -3.79319 -0.81163 4.41325 -0.0558193 4.97771)
(-0.0766363 -0.0177075 0.0340952 -21.7721 -3.58498 -2.40427 5.48471 -0.0732712 4.77829)
(0.0326987 -0.0661654 0.197876 -18.1981 -4.60802 -2.8603 6.1965 0.0248184 5.41718)
(0.200304 -0.017744 0.0774558 -15.4429 -5.61663 -1.53295 5.7968 0.111453 5.93086)
(-0.0224488 0.0510282 -0.161424 -14.3547 -5.04224 -0.419019 4.49462 0.0520525 5.77616)
(-0.152134 0.0487643 -0.165443 -19.5138 -3.74648 -1.30072 4.26543 -0.0698419 4.96451)
(-0.0350038 -0.0214892 0.0639762 -21.4025 -3.63322 -2.46878 5.34554 -0.078165 4.80447)
(0.158631 -0.0631532 0.187559 -18.4892 -4.79575 -2.61705 6.49701 0.0221604 5.44662)
(0.149346 -0.0133438 0.0564895 -14.1684 -5.65657 -1.63725 6.03312 0.112871 5.97695)
(-0.116846 0.0485729 -0.150596 -14.031 -4.93877 -0.517161 4.55597 0.042607 5.76763)
(-0.140078 0.0449922 -0.133424 -19.3088 -3.80769 -1.40954 4.35996 -0.0741586 5.00799)
(0.0300998 -0.0141128 0.0419749 -21.8323 -3.75169 -2.14992 5.5621 -0.0677888 4.82956)
(0.143499 -0.0591494 0.144361 -18.4197 -4.69366 -2.46684 6.42978 0.0241536 5.35208)
(0.107454 -0.0210238 0.0815336 -13.5606 -5.56974 -2.1524 6.03103 0.101846 5.93411)
(-0.10292 0.0433195 -0.108719 -12.6642 -5.04757 -1.04576 4.66184 0.0445434 5.81826)
(-0.141612 0.048309 -0.148456 -18.3541 -3.92478 -1.28913 4.33077 -0.0563653 5.10684)
(-0.0821686 -0.0123457 0.0445847 -21.1482 -3.66567 -2.16321 5.44318 -0.0670138 4.83523)
(0.128077 -0.0611524 0.175686 -19.6623 -4.6916 -2.23293 6.24505 0.0271825 5.39216)
(0.219296 -0.0171028 0.0615979 -14.344 -5.67723 -1.70185 5.91808 0.111743 5.94726)
(-0.0849283 0.0877897 0.0256512 13.7492 -4.83388 -4.97639 7.45473 0.17975 5.53648)
(-0.423002 0.0811184 -0.141989 16.2131 -4.23567 -4.07614 6.42525 -0.0312388 5.23824)
(-0.134386 -0.035649 -0.124934 10.4106 -3.689 -4.06677 6.85454 -0.0455895 4.5692)
(0.176551 -0.103926 0.0947738 9.0936 -3.63616 -4.8339 6.47101 0.170596 4.53156)
(0.449745 -0.0363462 0.152502 8.5198 -4.21497 -4.72883 7.31704 0.315547 4.86618)
(-0.0499473 0.0826373 0.0313048 13.7516 -4.67256 -5.26515 7.87701 0.185075 5.38075)
(-0.495869 0.0910163 -0.127144 17.1345 -4.3486 -3.57897 6.75557 -0.0374229 5.36187)
(-0.100974 -0.0284242 -0.160374 10.0352 -3.84905 -3.24571 6.65544 -0.0719733 4.64533)
(0.290782 -0.100312 0.0420083 8.11058 -3.60771 -4.63671 6.74091 0.14584 4.36505)
(0.265259 -0.0363673 0.200711 10.0206 -4.0002 -5.2844 7.24305 0.330284 4.80255)
(-0.185341 0.0744209 0.0745051 13.9914 -4.62578 -5.23422 7.49077 0.192952 5.5121)
(-0.36944 0.0891451 -0.166268 15.4986 -4.33755 -3.24419 6.7375 -0.0362474 5.2502)
(0.0344832 -0.0198749 -0.176913 8.68949 -3.81918 -3.20979 6.64457 -0.0644651 4.50455)
(0.334998 -0.108099 0.0603516 8.47512 -3.55247 -4.87303 6.85467 0.136078 4.3045)
(0.276642 -0.0397371 0.221058 10.0022 -4.008 -5.55926 7.41823 0.34099 4.78411)
(-0.173773 0.0858188 0.0562432 13.1393 -4.68989 -4.82976 7.60022 0.206487 5.54879)
(-0.442681 0.0838239 -0.186511 16.3661 -4.36916 -3.16946 6.96017 -0.054412 5.31434)
(-0.084632 -0.0224543 -0.126875 9.80197 -3.86247 -3.66016 6.64826 -0.0626771 4.61886)
(0.246689 -0.0955509 0.0945407 8.86303 -3.56426 -4.594 6.47648 0.157871 4.40163)
(0.316803 -0.0410063 0.185372 9.71223 -3.9498 -4.50877 7.21634 0.303523 4.7275)
(-0.0789767 0.0773703 0.0343141 13.1445 -4.70418 -4.85435 7.79885 0.168422 5.46182)
(-0.368349 0.0854315 -0.18028 15.717 -4.35151 -3.16407 6.87585 -0.045849 5.23105)
(-0.114513 -0.0238733 -0.142838 10.3033 -3.75346 -3.71519 6.78934 -0.0569326 4.59138)
(0.175091 -0.10398 0.104393 9.93521 -3.37808 -4.76844 6.43593 0.159368 4.28865)
(0.363942 -0.0419973 0.195903 8.77168 -3.98913 -4.53336 7.26189 0.327534 4.72766)
(0.00697538 0.0857737 -0.0162322 12.6086 -4.8264 -4.2732 7.77094 0.183653 5.47788)
(-0.382649 0.0842511 -0.183043 16.6903 -4.36732 -3.47964 6.84786 -0.07134 5.22489)
(-0.161679 -0.0362743 -0.0937947 11.931 -3.71026 -4.13811 6.61935 -0.0766118 4.60183)
(0.263144 -0.104255 0.0976298 8.3082 -3.47813 -4.94404 6.94886 0.163115 4.35752)
(0.392348 -0.0265603 0.169226 7.90035 -4.05998 -4.73994 7.49968 0.352251 4.73676)
(-0.084237 0.0858648 -0.0150133 13.6057 -4.77571 -4.25696 7.73819 0.176885 5.46867)
(-0.437225 0.0730841 -0.150822 16.7062 -4.21681 -3.77762 6.76929 -0.0781083 5.17721)
(-0.138358 -0.0288577 -0.0792351 10.7467 -3.66809 -4.19798 6.70677 -0.049344 4.58724)
(0.324347 -0.0932975 0.0450124 6.32511 -3.5648 -4.2964 6.87703 0.16821 4.33761)
(0.428917 -0.036212 0.1377 8.37355 -4.03495 -4.54273 7.36777 0.319594 4.6691)
(-0.073324 0.0743973 0.0329444 14.2115 -4.65234 -5.10148 7.69544 0.185598 5.40221)
(-0.44999 0.081576 -0.125487 16.5458 -4.27082 -4.02932 6.67233 -0.0482638 5.2549)
(-0.26411 -0.0223066 -0.0713769 10.767 -3.66255 -4.2517 6.78457 -0.043282 4.65611)
(0.237585 -0.103447 0.0853067 7.93431 -3.45926 -4.43103 6.59136 0.176293 4.33629)
(0.514084 -0.0347113 0.127679 7.34425 -4.12903 -4.32352 7.35145 0.338498 4.69733)
(0.433089 0.038729 -0.10477 12.8317 -2.52893 -3.55274 8.37568 0.337649 3.41519)
(-0.301034 0.118413 -0.10158 20.4142 -2.62789 -5.45877 7.49942 0.0884777 4.03426)
(-0.491418 0.0192491 -0.0232377 18.5674 -1.87167 -4.32431 5.83082 0.00640657 3.49685)
(-0.103556 -0.0910153 0.153231 12.5567 -1.67711 -2.63503 4.29148 0.212678 3.11)
(0.470015 -0.0821149 0.0436898 9.47759 -1.84284 -1.69491 5.59226 0.368056 2.86107)
(0.473481 0.0324759 -0.0695114 12.6811 -2.24637 -3.79262 8.56166 0.33681 3.1222)
(-0.342616 0.104084 -0.0552576 22.2171 -2.56228 -5.64076 8.12583 0.112546 4.02768)
(-0.554551 0.0309399 -0.0367356 18.6775 -2.02652 -3.97058 5.84805 -0.0119751 3.71691)
(0.0388214 -0.0711325 0.0760353 11.2442 -1.71185 -2.04165 4.6334 0.175035 2.97288)
(0.399153 -0.0817881 0.0639049 9.90434 -1.68474 -1.68995 5.69085 0.394153 2.7482)
(0.257715 0.0216612 -0.00309635 14.398 -2.28019 -4.08056 8.18621 0.356013 3.3703)
(-0.346698 0.103075 -0.0748364 21.5006 -2.51226 -5.16228 7.86934 0.104512 3.99023)
(-0.383796 0.0369479 -0.0853376 17.5779 -2.02121 -3.44242 5.83835 -0.0106667 3.55614)
(0.146969 -0.0773999 0.0686899 10.8291 -1.70438 -2.21342 4.66886 0.157594 2.87645)
(0.375993 -0.0910166 0.103532 10.5581 -1.57827 -2.03899 5.81287 0.40426 2.67353)
(0.293612 0.0262532 -0.0100738 13.5619 -2.34677 -4.15383 8.44514 0.382959 3.40223)
(-0.320094 0.101488 -0.121457 21.9095 -2.65646 -5.04127 8.04604 0.0716052 4.06904)
(-0.495703 0.0362446 -0.0397089 18.7924 -2.03697 -3.80272 5.94079 -0.002357 3.64378)
(0.0120718 -0.0646411 0.152679 11.2787 -1.79319 -2.48524 4.46341 0.200645 3.07997)
(0.387709 -0.0891728 0.068678 10.4376 -1.67996 -1.45496 5.69563 0.360843 2.7852)
(0.340481 0.0181684 -0.0596261 13.7036 -2.22973 -3.95973 8.54371 0.327808 3.26878)
(-0.247871 0.107124 -0.109527 20.8808 -2.66148 -5.13696 7.95219 0.0926451 4.00639)
(-0.438114 0.0444052 -0.0495689 18.4158 -2.0158 -3.68962 5.89324 0.00143034 3.59345)
(-0.0782986 -0.0772725 0.155535 12.4742 -1.59133 -2.39321 4.4688 0.197824 2.98528)
(0.352831 -0.106816 0.0968987 10.7143 -1.57012 -1.75175 5.66574 0.388063 2.73596)
(0.474869 0.0236617 -0.109373 12.7654 -2.45855 -3.48476 8.58683 0.344018 3.35669)
(-0.171887 0.115728 -0.155149 21.4714 -2.77566 -4.87488 8.05091 0.0481643 4.01072)
(-0.551878 0.0361635 -0.0127616 19.1844 -1.96917 -4.26205 5.92366 -0.0337307 3.62427)
(-0.106458 -0.0811364 0.15853 12.7239 -1.5542 -2.84366 4.67772 0.192784 2.94295)
(0.459715 -0.0939964 0.088623 9.98407 -1.59997 -1.73814 5.69458 0.427146 2.66687)
(0.436203 0.0349361 -0.103359 13.8899 -2.50535 -3.45697 8.62795 0.350332 3.38785)
(-0.290982 0.112157 -0.127959 21.4892 -2.59158 -4.84836 7.94502 0.0336099 3.93576)
(-0.608881 0.0285522 0.0213211 19.5939 -1.76785 -4.32064 5.84822 0.00711949 3.54655)
(-0.0245076 -0.0789111 0.132516 11.0837 -1.60506 -2.33066 4.61016 0.216669 2.93737)
(0.573529 -0.0882106 0.0250567 9.36295 -1.7273 -1.07401 5.63582 0.379491 2.64513)
(0.410403 0.0253112 -0.0904498 13.4978 -2.31886 -3.49086 8.38965 0.33618 3.25425)
(-0.32838 0.107513 -0.0970684 20.4998 -2.53028 -5.07276 7.8064 0.072325 3.97144)
(-0.608007 0.03992 0.030802 18.2695 -1.86579 -4.45199 5.84663 0.0187239 3.6206)
(-0.0991048 -0.086393 0.180185 12.6046 -1.51079 -2.65408 4.38665 0.231888 2.94553)
(0.557175 -0.102183 0.0205374 9.36421 -1.65678 -1.20173 5.76394 0.407756 2.63002)
(0.631158 0.0252108 -0.257137 11.3848 -1.22629 -1.59257 8.01566 0.3475 2.07933)
(-0.0366102 0.123064 -0.199647 16.6641 -1.37651 -3.88214 9.15818 0.257675 2.68906)
(-0.644719 0.0249328 0.0611244 18.8338 -1.04999 -3.69165 6.96424 0.228808 2.75247)
(-0.42711 -0.103213 0.271651 13.5818 -1.25799 -2.55872 4.53266 0.404095 2.80066)
(0.456362 -0.0713285 0.0829393 7.81682 -1.69766 -1.69789 4.87254 0.438158 2.59723)
(0.78301 0.0376578 -0.232819 11.5366 -1.2335 -1.83319 7.64267 0.328365 1.87877)
(-0.0944886 0.104988 -0.146698 17.6588 -1.00232 -4.37226 9.64483 0.290652 2.42914)
(-0.818153 0.0247382 0.0773722 18.8404 -0.992294 -3.61758 7.01665 0.213216 2.90387)
(-0.293689 -0.0794789 0.197091 12.5874 -1.32544 -2.16858 4.74263 0.355748 2.69018)
(0.471039 -0.0713209 0.0727034 7.59023 -1.50479 -1.59896 5.07593 0.471975 2.41697)
(0.576203 0.0221904 -0.159035 12.4248 -1.23866 -2.02973 7.62005 0.37347 2.12576)
(-0.15074 0.105749 -0.131065 17.8927 -1.09144 -4.22427 9.34194 0.286586 2.53538)
(-0.665271 0.0305842 0.0188517 19.1009 -1.00492 -3.20075 7.12256 0.215723 2.78752)
(-0.134015 -0.0803877 0.157045 12.0332 -1.38654 -1.98161 4.65817 0.326082 2.58207)
(0.456613 -0.0792502 0.0979668 8.21327 -1.41871 -1.87026 5.09004 0.464736 2.31267)
(0.56832 0.0168496 -0.14576 12.6484 -1.16593 -2.37176 7.93889 0.411985 2.07947)
(-0.0914617 0.103586 -0.168617 17.6517 -1.21092 -4.03865 9.47993 0.238655 2.59014)
(-0.782283 0.0316669 0.0420326 19.3539 -0.987604 -3.24048 7.13345 0.211618 2.85538)
(-0.310445 -0.0738323 0.251878 12.2435 -1.41025 -2.39429 4.66891 0.390728 2.79778)
(0.478224 -0.066526 0.094576 7.54692 -1.63436 -1.7396 4.95308 0.428967 2.51571)
(0.6048 0.015082 -0.212161 12.6852 -1.03493 -1.88105 7.81405 0.334318 1.92605)
(-0.0529379 0.0981284 -0.168584 17.282 -1.14724 -4.1619 9.39797 0.27303 2.50694)
(-0.666346 0.043666 0.0385041 18.5491 -1.10391 -3.17186 7.03041 0.220559 2.83723)
(-0.334761 -0.0756795 0.233945 12.8757 -1.32354 -2.41209 4.67606 0.383033 2.73219)
(0.385292 -0.0957804 0.129948 8.54229 -1.3869 -2.0962 4.98693 0.465386 2.42311)
(0.707722 0.0082093 -0.223951 12.1323 -1.18368 -1.91871 7.85526 0.357989 2.00075)
(0.0423451 0.115112 -0.239848 16.9054 -1.30358 -3.64495 9.54282 0.199715 2.54949)
(-0.730542 0.0413641 0.0392554 18.4219 -1.04054 -3.45721 7.28493 0.171826 2.83005)
(-0.339249 -0.0809099 0.266931 13.8179 -1.30451 -2.79122 4.82895 0.390009 2.70183)
(0.466639 -0.0859141 0.134666 8.68129 -1.46261 -2.04246 4.90959 0.499033 2.39736)
(0.663239 0.022048 -0.222314 12.1717 -1.20543 -1.96083 7.9654 0.35896 2.03758)
(-0.0554701 0.120427 -0.213126 17.3947 -1.26806 -3.61731 9.5238 0.189771 2.55938)
(-0.814408 0.0339572 0.0856702 19.4544 -0.878721 -3.6227 7.18362 0.235966 2.7873)
(-0.351737 -0.0919178 0.261877 13.6215 -1.21738 -2.51862 4.7425 0.431753 2.67647)
(0.582217 -0.080616 0.0683387 7.75521 -1.55687 -1.54842 4.98451 0.459009 2.34042)
(0.652227 0.0235049 -0.232598 11.7291 -1.20667 -1.67383 7.79101 0.333401 2.01994)
(-0.130555 0.110467 -0.19512 17.0553 -1.185 -3.65853 9.39541 0.23374 2.58462)
(-0.778375 0.0423176 0.0864847 18.3751 -0.979886 -3.49911 6.95143 0.242265 2.84113)
(-0.347595 -0.0906282 0.301687 13.0917 -1.2322 -2.70858 4.55323 0.436405 2.70217)
(0.525555 -0.0987175 0.0759424 8.61736 -1.44188 -1.84962 5.14537 0.489397 2.32817)
(1.02838 0.0450783 -0.244902 7.81106 -0.769889 -3.29091 6.62123 0.402089 1.00847)
(0.241931 0.131425 -0.252229 14.6301 -0.226761 -4.1332 8.71147 0.351522 1.1936)
(-0.711705 0.0277403 0.0694903 18.6153 0.0655754 -4.65346 8.24041 0.520467 1.68197)
(-0.913344 -0.139304 0.293794 17.7091 -0.0740072 -3.7692 5.97101 0.735647 2.02275)
(0.315048 -0.0813216 0.0952247 9.13849 -1.22333 -3.08026 5.02593 0.668979 1.93779)
(1.19486 0.0851103 -0.257612 7.23787 -1.02017 -3.35705 6.09741 0.357445 0.974589)
(0.190873 0.122431 -0.182514 13.8321 0.125663 -4.62252 8.74664 0.360226 0.837034)
(-0.915852 0.00686041 0.120305 18.943 0.280659 -4.74578 8.42658 0.519125 1.72513)
(-0.787896 -0.109474 0.218235 17.0901 -0.132739 -3.43933 6.12906 0.672634 1.90683)
(0.379536 -0.0762007 0.0736387 8.56936 -1.03895 -3.12005 5.1403 0.691499 1.71119)
(1.0134 0.0532052 -0.188184 7.73386 -0.913442 -3.38201 6.28654 0.422066 1.14341)
(0.144034 0.120675 -0.158728 14.5945 -0.0140154 -4.70391 8.58428 0.380394 1.00177)
(-0.803556 0.0150266 0.0756745 19.5346 0.267357 -4.58046 8.56061 0.534287 1.63878)
(-0.657193 -0.108732 0.161559 17.072 -0.20108 -3.17246 6.0888 0.645121 1.85632)
(0.41496 -0.0753298 0.0742649 8.3715 -1.02454 -3.22622 5.13338 0.65914 1.62416)
(0.98762 0.043077 -0.162259 8.50486 -0.819549 -3.61394 6.45684 0.456075 1.11326)
(0.169618 0.11491 -0.183146 14.2932 -0.0715519 -4.59061 8.82745 0.342417 1.03471)
(-0.880449 0.0214652 0.0778129 19.2993 0.277255 -4.49534 8.33454 0.504392 1.67119)
(-0.858213 -0.11316 0.257487 17.3559 -0.105998 -3.41032 6.09602 0.709991 1.99454)
(0.412416 -0.0627475 0.105321 7.86584 -1.2516 -3.19908 5.08228 0.653285 1.85963)
(1.05821 0.0557124 -0.229536 8.25165 -0.795878 -3.32429 6.22296 0.38043 0.965485)
(0.18088 0.102751 -0.202293 14.5096 0.0707309 -4.62099 8.63848 0.364092 0.906231)
(-0.752117 0.0310025 0.0753808 18.6589 0.161788 -4.55983 8.39124 0.511462 1.6826)
(-0.81758 -0.0990637 0.229919 17.7718 -0.150839 -3.41412 6.01279 0.694288 1.95956)
(0.292764 -0.0972286 0.131308 8.84958 -0.99374 -3.40025 5.1522 0.694994 1.76895)
(1.09087 0.031576 -0.216303 8.43933 -0.831227 -3.52675 6.29898 0.413916 1.01251)
(0.287466 0.126731 -0.264284 13.4373 -0.0945999 -4.29625 8.86598 0.270501 0.950299)
(-0.770022 0.0355719 0.0472966 18.877 0.234474 -4.46279 8.71425 0.44932 1.62214)
(-0.827755 -0.113422 0.255835 18.2226 -0.107568 -3.66005 6.22046 0.706158 1.92325)
(0.333189 -0.0872307 0.147495 8.73455 -1.11743 -3.52513 5.21391 0.737361 1.81244)
(1.07956 0.051096 -0.211847 7.62672 -0.863927 -3.51759 6.3132 0.402918 1.005)
(0.242161 0.136304 -0.246477 13.9289 -0.0906412 -4.30453 8.83504 0.259346 0.977145)
(-0.876751 0.0318858 0.0988711 18.9941 0.321276 -4.61668 8.52059 0.528332 1.63633)
(-0.886082 -0.129448 0.278139 18.0396 -0.0338739 -3.63774 6.04834 0.776265 1.94399)
(0.428002 -0.0881514 0.085305 8.23772 -1.10768 -3.23959 5.23397 0.701783 1.69377)
(1.09713 0.0539175 -0.237534 7.56239 -0.887519 -3.32631 6.23673 0.380947 1.00507)
(0.159862 0.124553 -0.226789 14.2019 -0.0742731 -4.24419 8.73026 0.318619 1.0534)
(-0.893952 0.0360721 0.0978489 18.7345 0.213088 -4.44676 8.28924 0.538102 1.72873)
(-0.820143 -0.121285 0.294124 17.1503 -0.133048 -3.62845 5.89062 0.764339 1.97419)
(0.429854 -0.102078 0.100305 8.9118 -1.03596 -3.49608 5.25873 0.727808 1.66283)
(1.07226 0.091265 -0.311933 5.86364 -0.636717 -3.99265 6.41855 0.627989 0.390497)
(0.844003 0.192477 -0.308958 9.77628 0.00971289 -5.12718 7.17828 0.403318 0.0630954)
(-0.379126 0.0374963 0.090895 15.7734 0.710738 -5.55836 7.45244 0.713273 0.607397)
(-1.17534 -0.207981 0.401718 18.381 0.976628 -4.73725 6.55744 1.14815 1.33851)
(-0.409974 -0.149887 0.116365 14.9419 -0.128315 -3.18467 6.57568 1.11174 1.57391)
(1.13648 0.146342 -0.360019 5.14806 -0.903164 -3.69067 6.20009 0.589655 0.49691)
(0.86119 0.212622 -0.259886 8.45004 0.157395 -5.42982 6.97731 0.392831 -0.206989)
(-0.534438 0.00479836 0.172566 16.1451 1.02491 -5.89526 7.40072 0.707395 0.494832)
(-1.11653 -0.187437 0.331674 18.0845 0.994188 -4.44679 6.82556 1.09348 1.19459)
(-0.306517 -0.136478 0.0774292 14.0007 -0.0596255 -3.16563 6.61871 1.13133 1.34858)
(1.0391 0.10527 -0.289297 5.74637 -0.796258 -3.87958 6.41361 0.662555 0.578316)
(0.812034 0.203543 -0.22907 9.16603 0.114794 -5.56543 6.93163 0.430124 -0.109561)
(-0.443127 0.0164107 0.14194 16.5098 1.01028 -5.91893 7.60832 0.732255 0.438054)
(-1.02034 -0.186182 0.270464 18.3066 0.952949 -4.27001 6.85063 1.07303 1.17822)
(-0.25958 -0.131646 0.0632156 13.5647 -0.0813262 -3.21361 6.64788 1.09081 1.28026)
(1.02432 0.0943584 -0.258834 6.2776 -0.766854 -3.99379 6.43255 0.686441 0.605919)
(0.790068 0.194678 -0.241276 9.17984 0.0818867 -5.4368 6.96499 0.393635 -0.0515393)
(-0.514946 0.0297906 0.137698 15.7327 1.00688 -5.70025 7.33527 0.69289 0.459901)
(-1.21704 -0.198452 0.360311 18.3624 1.08285 -4.3433 6.77081 1.11798 1.27117)
(-0.280719 -0.124912 0.100735 13.6652 -0.207439 -3.18143 6.57078 1.09862 1.4806)
(1.11809 0.122206 -0.329983 5.51664 -0.745723 -3.89955 6.13254 0.620222 0.441021)
(0.798765 0.17819 -0.269103 9.35615 0.233396 -5.55611 6.81421 0.411907 -0.215151)
(-0.383469 0.0263018 0.136295 15.57 0.922144 -5.853 7.42934 0.701905 0.44456)
(-1.11129 -0.170503 0.33185 18.2891 0.958033 -4.39053 6.69256 1.10337 1.24667)
(-0.390168 -0.152845 0.120342 14.7221 -0.0412183 -3.37201 6.59461 1.12865 1.4396)
(1.05517 0.0814761 -0.300055 6.36152 -0.709686 -4.06644 6.28825 0.663944 0.500511)
(0.89548 0.203558 -0.31611 8.2881 0.075529 -5.28375 6.90051 0.29932 -0.181443)
(-0.324226 0.0408529 0.0919459 15.575 0.926741 -5.68131 7.6914 0.628766 0.352529)
(-1.14322 -0.191332 0.346883 19.0829 1.0138 -4.54185 6.97632 1.109 1.2151)
(-0.410964 -0.14938 0.145362 14.8551 -0.111362 -3.49284 6.74441 1.18619 1.50842)
(1.05837 0.10548 -0.288896 5.73539 -0.780463 -3.97824 6.25359 0.670052 0.508149)
(0.870586 0.218496 -0.302208 8.33436 0.0672327 -5.25319 6.89616 0.284694 -0.173434)
(-0.462537 0.0389375 0.140416 15.7831 0.986011 -5.71672 7.62408 0.713444 0.435042)
(-1.20275 -0.208318 0.376042 19.0282 1.04674 -4.57838 6.6979 1.19975 1.26432)
(-0.283325 -0.15164 0.0928289 14.191 -0.0914832 -3.34841 6.65881 1.15821 1.35679)
(1.10923 0.107357 -0.316575 5.57138 -0.765411 -3.88071 6.1342 0.630285 0.465951)
(0.7798 0.201602 -0.286165 8.99311 0.108011 -5.26146 7.01656 0.371265 -0.0903097)
(-0.518908 0.038 0.137123 15.9668 0.904966 -5.62053 7.50039 0.741768 0.564509)
(-1.12628 -0.192588 0.38238 18.6731 0.923183 -4.54122 6.55046 1.18103 1.33529)
(-0.250154 -0.151929 0.101888 14.12 -0.081619 -3.43984 6.59599 1.15582 1.3269)
(0.622237 0.0489074 -0.394264 8.46156 0.0660463 -4.06457 6.38716 1.10325 -0.060541)
(1.0983 0.249949 -0.391372 5.88084 -0.0373851 -5.54489 6.38612 0.655091 -0.594133)
(0.0509021 0.116196 0.103415 11.2343 0.730398 -6.12734 6.43652 0.889749 -0.172161)
(-0.964059 -0.210043 0.502549 14.8566 1.42615 -5.95175 5.37689 1.42665 0.533873)
(-0.83639 -0.248331 0.18991 15.5132 0.948819 -4.46912 6.56532 1.59579 0.946022)
(0.600252 0.105413 -0.45503 8.36882 -0.0426421 -3.74621 6.27809 1.09254 0.0805498)
(1.14098 0.291744 -0.378683 4.8303 0.0202377 -5.50388 6.08801 0.646149 -0.770799)
(-0.0628819 0.084463 0.206001 11.1176 1.00398 -6.45664 6.25724 0.85724 -0.35261)
(-0.953374 -0.201989 0.45936 15.0143 1.51208 -5.84307 5.58511 1.35673 0.361921)
(-0.693039 -0.235775 0.125723 14.8306 0.975686 -4.25862 6.61713 1.58891 0.746975)
(0.563661 0.0641315 -0.400035 8.97216 0.00153865 -4.01579 6.47758 1.1695 0.1046)
(1.07277 0.279478 -0.340317 5.28436 0.0591238 -5.71177 6.05853 0.696949 -0.763351)
(0.00583237 0.0924106 0.188864 11.5704 1.01177 -6.59917 6.48548 0.892832 -0.412843)
(-0.893276 -0.201952 0.400888 15.0797 1.46877 -5.72719 5.67155 1.35114 0.378081)
(-0.630175 -0.228766 0.100917 14.3981 0.932307 -4.28993 6.55957 1.55318 0.676456)
(0.578385 0.0530452 -0.358228 9.05996 -0.0868574 -4.13917 6.4892 1.20385 0.19497)
(0.982098 0.270989 -0.335168 5.6853 0.0508318 -5.54885 6.00329 0.676898 -0.644919)
(-0.0676833 0.113214 0.172965 10.4838 1.0399 -6.32099 6.12061 0.847177 -0.41623)
(-1.01356 -0.216946 0.480176 14.8033 1.55874 -5.74998 5.58995 1.38097 0.432128)
(-0.706405 -0.22566 0.146822 14.7888 0.903101 -4.24915 6.54446 1.5799 0.855068)
(0.653668 0.0898372 -0.43913 8.10537 0.00454685 -3.98798 6.2451 1.12417 0.0264722)
(1.04895 0.249472 -0.37629 5.44751 0.138524 -5.67115 5.9366 0.680572 -0.800392)
(0.0372462 0.0984955 0.177096 10.7975 0.971343 -6.51831 6.21737 0.851425 -0.434009)
(-0.866632 -0.181023 0.449197 14.3054 1.44002 -5.81385 5.56623 1.36155 0.37279)
(-0.742151 -0.245918 0.16238 15.3115 0.944707 -4.48264 6.46666 1.58502 0.83797)
(0.499343 0.0373846 -0.384748 9.22107 0.063317 -4.17468 6.5015 1.19821 0.123863)
(1.07884 0.270405 -0.408464 4.90764 0.059052 -5.31823 5.90182 0.570709 -0.774572)
(0.183829 0.121826 0.111451 10.2502 0.901881 -6.29803 6.35844 0.747897 -0.512765)
(-0.862788 -0.201647 0.449147 14.9923 1.42514 -5.88608 5.75993 1.35002 0.394351)
(-0.826934 -0.246971 0.199838 15.8487 0.973069 -4.56826 6.55489 1.66083 0.921094)
(0.478555 0.0621766 -0.366961 8.85609 0.0482396 -3.94971 6.44625 1.20385 0.137473)
(1.10865 0.291469 -0.401699 4.57242 0.00440194 -5.27071 5.891 0.534003 -0.75982)
(0.0709275 0.121777 0.157132 11.0224 0.937575 -6.36865 6.44743 0.861859 -0.421606)
(-1.00167 -0.221221 0.487398 15.8729 1.51423 -5.97095 5.58656 1.48738 0.467585)
(-0.745519 -0.249412 0.149081 15.4475 0.99111 -4.43312 6.544 1.64499 0.7814)
(0.615157 0.0670255 -0.406571 8.04996 -0.0145857 -3.96566 6.24993 1.13166 0.0737312)
(1.05937 0.271345 -0.381772 5.15011 0.0543632 -5.47923 6.00225 0.617419 -0.742536)
(-0.0361337 0.111276 0.160538 11.3354 0.928412 -6.33828 6.52932 0.913966 -0.319377)
(-0.960348 -0.205406 0.486995 15.7081 1.41334 -5.93192 5.54318 1.47621 0.551656)
(-0.686921 -0.241371 0.150885 14.8867 0.948181 -4.50288 6.51785 1.6454 0.765871)
(0.200998 -0.00477118 -0.409714 8.6265 0.869461 -3.872 6.61286 1.68889 -0.373564)
(1.10067 0.254321 -0.510585 4.39782 0.196543 -4.92343 5.09121 0.99233 -0.813492)
(0.491073 0.178527 0.0482493 5.91579 0.473701 -5.86584 5.11655 1.17662 -0.456322)
(-0.761129 -0.185553 0.560343 9.55837 1.51493 -6.18203 4.5468 1.74687 0.0441445)
(-1.02741 -0.289478 0.333404 11.7282 1.57661 -5.48454 5.92977 2.09472 0.305465)
(0.103223 0.0559602 -0.455795 8.79479 0.855246 -3.66012 6.60963 1.70727 -0.269767)
(1.11287 0.311194 -0.523768 3.73808 0.257474 -4.7047 4.85723 1.00352 -0.910888)
(0.454532 0.148612 0.134714 5.78346 0.682398 -6.14476 4.92632 1.11967 -0.613353)
(-0.755085 -0.188861 0.542533 10.0764 1.58934 -6.30562 4.65479 1.65777 -0.0905726)
(-0.882597 -0.280231 0.258508 11.2999 1.58505 -5.24519 6.05904 2.0568 0.167253)
(0.115415 0.0161319 -0.426067 8.9269 0.858234 -3.83013 6.72341 1.77663 -0.27676)
(1.05031 0.298731 -0.480779 4.0254 0.316231 -4.93005 4.83485 1.05891 -0.944535)
(0.508556 0.152228 0.13568 6.24535 0.683599 -6.3539 5.04207 1.14593 -0.646106)
(-0.745348 -0.192689 0.492365 10.3443 1.56755 -6.26513 4.67885 1.66022 -0.0425947)
(-0.834969 -0.280203 0.22101 10.8739 1.57888 -5.20295 5.8547 2.0237 0.0930515)
(0.182461 0.00880794 -0.376977 8.64006 0.657176 -3.97379 6.6692 1.82453 -0.153477)
(0.915725 0.301684 -0.453866 4.62014 0.320733 -4.81441 4.85434 1.0647 -0.825416)
(0.367994 0.174863 0.113709 5.62884 0.851128 -6.0673 4.71218 1.11636 -0.715034)
(-0.799387 -0.210521 0.559115 9.73654 1.64305 -6.22963 4.69153 1.6844 -0.0681059)
(-0.919598 -0.272961 0.275393 11.2226 1.5693 -5.23134 5.93364 2.06953 0.214627)
(0.214145 0.0476546 -0.463744 8.52302 0.834066 -3.8292 6.63066 1.72161 -0.324133)
(1.04765 0.269425 -0.515821 4.22039 0.356181 -4.86948 4.78498 1.04316 -0.930115)
(0.475668 0.151497 0.117697 5.83236 0.745268 -6.26191 4.76184 1.10761 -0.702015)
(-0.676507 -0.172161 0.527226 9.50514 1.53553 -6.28582 4.67127 1.66141 -0.109439)
(-0.872254 -0.283604 0.282908 11.095 1.54563 -5.45618 5.84482 2.04726 0.207564)
(0.0522609 -0.00422175 -0.3766 9.24522 0.885585 -4.15631 6.71794 1.83016 -0.225962)
(0.981845 0.28219 -0.522906 4.26853 0.376925 -4.51008 4.87228 0.970755 -0.914791)
(0.650987 0.171742 0.0322229 5.29185 0.613495 -5.97227 4.88312 0.988125 -0.744493)
(-0.601663 -0.183058 0.512644 9.55578 1.3817 -6.19989 4.73783 1.63001 -0.0113371)
(-0.993671 -0.279707 0.336921 11.3201 1.57926 -5.47498 5.79592 2.13047 0.306146)
(-0.0309025 0.0112573 -0.352557 9.11443 0.901662 -3.85822 6.837 1.84328 -0.183428)
(1.06718 0.30168 -0.538362 3.71361 0.300223 -4.41427 4.84636 0.898772 -0.92474)
(0.633835 0.184264 0.067502 5.82531 0.560416 -6.0974 5.01876 1.09282 -0.669899)
(-0.77265 -0.201581 0.561829 10.4901 1.50225 -6.34608 4.7513 1.79917 0.0538536)
(-1.03302 -0.297405 0.291223 11.7188 1.62394 -5.34393 5.94787 2.13549 0.256245)