/*--------------------------------*- C++ -*----------------------------------*\
  =========                 |
  \\      /  F ield         | OpenFOAM: The Open Source CFD Toolbox
   \\    /   O peration     | Website:  https://openfoam.org
    \\  /    A nd           | Version:  10
     \\/     M anipulation  |
\*---------------------------------------------------------------------------*/
FoamFile
{
    format      ascii;
    class       volVectorField;
    location    "5";
    object      U;
}
// * * * * * * * * * * * * * * * * * * * * * * * * * * * * * * * * * * * * * //

dimensions      [0 1 -1 0 0 0 0];

internalField   nonuniform List<vector> 
25600
(
(0.48465 0.002457 0.38482)
(0.494598 0.00215802 0.380308)
(0.486948 0.00411467 0.369662)
(0.4558 0.00581489 0.371816)
(0.457726 0.00497741 0.384116)
(0.481548 0.00284015 0.384433)
(0.494049 0.00200685 0.377327)
(0.489474 0.00369034 0.370037)
(0.459492 0.00581465 0.370651)
(0.45651 0.00511289 0.38143)
(0.476944 0.00277831 0.385627)
(0.492514 0.00207345 0.378705)
(0.487037 0.00373599 0.37069)
(0.459063 0.00584893 0.371688)
(0.455155 0.00512701 0.382411)
(0.483505 0.00262334 0.385992)
(0.494122 0.00202153 0.376659)
(0.487013 0.00368372 0.368578)
(0.458467 0.00562522 0.372268)
(0.454666 0.00499805 0.382835)
(0.479838 0.00275903 0.384873)
(0.492786 0.00200693 0.377239)
(0.487429 0.00380225 0.369852)
(0.452623 0.00587143 0.372997)
(0.451457 0.00511396 0.38361)
(0.480719 0.00254456 0.385319)
(0.496298 0.00195338 0.37526)
(0.484156 0.00388176 0.369541)
(0.455591 0.00595959 0.37275)
(0.456817 0.00508443 0.382556)
(0.482001 0.00246873 0.383488)
(0.494605 0.00212312 0.374452)
(0.483181 0.00402524 0.369757)
(0.460708 0.00589205 0.37183)
(0.456474 0.00514411 0.381092)
(0.479568 0.0027298 0.384039)
(0.492486 0.00214951 0.375895)
(0.485517 0.00384266 0.369439)
(0.456793 0.00588781 0.373463)
(0.457695 0.00511953 0.383906)
(0.284809 -0.0163842 0.39204)
(0.253432 -0.00959485 0.375509)
(0.258365 -0.00622271 0.359522)
(0.24103 -0.013048 0.376445)
(0.262958 -0.0186187 0.396776)
(0.283801 -0.0172573 0.393928)
(0.252538 -0.00997799 0.372089)
(0.252853 -0.0058992 0.35731)
(0.250845 -0.0128486 0.373375)
(0.265372 -0.0188544 0.395045)
(0.263425 -0.017189 0.396953)
(0.246945 -0.0100457 0.373441)
(0.252044 -0.00589143 0.356388)
(0.256696 -0.0121096 0.371977)
(0.269684 -0.0196471 0.396504)
(0.279323 -0.0168969 0.396155)
(0.248899 -0.00950232 0.369304)
(0.24922 -0.00616382 0.355853)
(0.241585 -0.0120748 0.374788)
(0.256491 -0.0185545 0.395375)
(0.270506 -0.0163975 0.395399)
(0.249763 -0.00956249 0.370332)
(0.249883 -0.00607284 0.357755)
(0.23291 -0.0125688 0.375677)
(0.254966 -0.0192072 0.397747)
(0.274788 -0.0166572 0.393439)
(0.253665 -0.00933255 0.365815)
(0.243379 -0.00661102 0.358344)
(0.243444 -0.0131393 0.377391)
(0.273217 -0.0192257 0.396687)
(0.27649 -0.0162835 0.390846)
(0.253072 -0.00979241 0.366531)
(0.246481 -0.00706428 0.362268)
(0.255524 -0.012129 0.374352)
(0.274337 -0.0187844 0.391695)
(0.280946 -0.0168022 0.391996)
(0.256854 -0.0104674 0.370163)
(0.250792 -0.00693352 0.360847)
(0.237046 -0.0124414 0.378278)
(0.274231 -0.019083 0.396829)
(0.354159 -0.0534715 0.374157)
(0.297893 -0.0405242 0.368495)
(0.269821 -0.0365836 0.344804)
(0.266513 -0.0467842 0.342367)
(0.300876 -0.0573635 0.363961)
(0.356668 -0.0549204 0.374577)
(0.298657 -0.0413325 0.370538)
(0.258381 -0.0362179 0.34829)
(0.272307 -0.0462854 0.337632)
(0.314042 -0.0561954 0.356427)
(0.328339 -0.0542956 0.378448)
(0.281944 -0.0418489 0.372231)
(0.2527 -0.0360881 0.345178)
(0.2836 -0.0450304 0.335829)
(0.318104 -0.0575148 0.356435)
(0.341612 -0.0538769 0.38116)
(0.289009 -0.0408804 0.369007)
(0.253057 -0.0366024 0.342919)
(0.267425 -0.0447233 0.34225)
(0.299395 -0.0555407 0.362298)
(0.331647 -0.0536396 0.380769)
(0.288827 -0.0406283 0.369571)
(0.258703 -0.0361228 0.343731)
(0.262459 -0.0446071 0.339612)
(0.290152 -0.0567171 0.36485)
(0.334896 -0.0539156 0.380944)
(0.298013 -0.0401481 0.362235)
(0.260946 -0.0365072 0.342319)
(0.260796 -0.0466406 0.341947)
(0.308055 -0.0572566 0.362608)
(0.340562 -0.0528108 0.378155)
(0.298794 -0.040571 0.359848)
(0.254609 -0.0376927 0.345784)
(0.264713 -0.0456301 0.343334)
(0.314265 -0.0561908 0.35596)
(0.353597 -0.0536657 0.37205)
(0.307498 -0.0418648 0.362288)
(0.264659 -0.0369257 0.345381)
(0.249245 -0.0455508 0.347187)
(0.305947 -0.0574546 0.363785)
(0.444614 -0.0738259 0.332335)
(0.455948 -0.0604846 0.324357)
(0.394683 -0.049835 0.308765)
(0.357408 -0.0553578 0.31795)
(0.365194 -0.0676108 0.341288)
(0.442912 -0.0724937 0.330463)
(0.46732 -0.0620797 0.326555)
(0.385474 -0.0514831 0.316392)
(0.353347 -0.0549926 0.318175)
(0.384401 -0.0653266 0.333392)
(0.429316 -0.0718474 0.333142)
(0.442759 -0.0619203 0.332006)
(0.36705 -0.0511794 0.316595)
(0.362526 -0.0536041 0.314014)
(0.389486 -0.0660667 0.331281)
(0.433756 -0.072447 0.336877)
(0.454637 -0.0618525 0.329223)
(0.378979 -0.0519567 0.310486)
(0.353144 -0.0538122 0.319355)
(0.372952 -0.0644151 0.342788)
(0.425098 -0.0719848 0.336219)
(0.446834 -0.0617747 0.330186)
(0.384507 -0.0506074 0.311925)
(0.358348 -0.0519234 0.318558)
(0.361567 -0.0653533 0.344329)
(0.421359 -0.0738537 0.34161)
(0.461897 -0.0618517 0.322727)
(0.398176 -0.0506127 0.307125)
(0.35112 -0.0535417 0.317461)
(0.3681 -0.0662054 0.340794)
(0.436006 -0.0729935 0.33942)
(0.461889 -0.0603774 0.319995)
(0.388706 -0.0503869 0.309918)
(0.338089 -0.0535975 0.322258)
(0.373326 -0.0656449 0.339432)
(0.446931 -0.0718498 0.330872)
(0.463081 -0.0616161 0.320116)
(0.391481 -0.0503129 0.307742)
(0.340501 -0.0525918 0.324301)
(0.361624 -0.0669143 0.346842)
(0.516332 -0.086109 0.331569)
(0.562454 -0.0754966 0.297769)
(0.522251 -0.0614915 0.286656)
(0.439971 -0.0689607 0.306126)
(0.426985 -0.081764 0.341943)
(0.517988 -0.0841036 0.328678)
(0.587266 -0.0749741 0.29676)
(0.513293 -0.062877 0.294528)
(0.427982 -0.0690698 0.309397)
(0.443099 -0.078601 0.335303)
(0.51242 -0.0839101 0.328352)
(0.563248 -0.074907 0.304318)
(0.493595 -0.062734 0.298753)
(0.432817 -0.067777 0.305912)
(0.456887 -0.0784155 0.330778)
(0.515259 -0.0842293 0.329321)
(0.574804 -0.0759141 0.302965)
(0.50976 -0.0634124 0.292173)
(0.422595 -0.0686491 0.308094)
(0.436108 -0.0780071 0.34329)
(0.507891 -0.0823077 0.332276)
(0.561404 -0.075635 0.302176)
(0.509073 -0.0628786 0.294484)
(0.432912 -0.0659616 0.306844)
(0.432755 -0.0774184 0.341621)
(0.498516 -0.0855214 0.33805)
(0.576907 -0.0768561 0.299298)
(0.519924 -0.0626643 0.285792)
(0.436855 -0.0674485 0.302739)
(0.442367 -0.0783213 0.33957)
(0.518263 -0.0851199 0.3355)
(0.578672 -0.0749722 0.297478)
(0.520858 -0.0611301 0.288085)
(0.420797 -0.0668913 0.310552)
(0.43845 -0.0790933 0.342104)
(0.525378 -0.083689 0.330048)
(0.574163 -0.0753061 0.296894)
(0.512688 -0.0617178 0.286064)
(0.423129 -0.0656905 0.310187)
(0.432185 -0.0792402 0.347973)
(0.60656 -0.0912804 0.309026)
(0.694574 -0.0800046 0.269883)
(0.671284 -0.0647785 0.253923)
(0.564922 -0.0725059 0.278237)
(0.481761 -0.0921211 0.313192)
(0.606864 -0.090611 0.303743)
(0.718681 -0.0758902 0.264411)
(0.663271 -0.0652347 0.262236)
(0.547184 -0.0731701 0.284169)
(0.496254 -0.0870314 0.307141)
(0.604405 -0.0898138 0.303929)
(0.699273 -0.0771881 0.271454)
(0.649472 -0.0651633 0.268327)
(0.548248 -0.0727527 0.283268)
(0.509095 -0.0865741 0.301512)
(0.61383 -0.089203 0.30236)
(0.706937 -0.0788531 0.271117)
(0.664675 -0.0656725 0.262017)
(0.542577 -0.073081 0.282435)
(0.482749 -0.0882688 0.31404)
(0.605905 -0.0870415 0.309106)
(0.695157 -0.0775764 0.270698)
(0.657834 -0.0660781 0.264289)
(0.556019 -0.0701945 0.281685)
(0.48663 -0.0853871 0.310661)
(0.595544 -0.0907832 0.313133)
(0.702919 -0.080084 0.270788)
(0.668848 -0.0651801 0.256367)
(0.562039 -0.0714432 0.275036)
(0.495398 -0.0874182 0.307293)
(0.608591 -0.0902459 0.310211)
(0.710461 -0.0781939 0.268493)
(0.674158 -0.0626358 0.256514)
(0.547645 -0.0701337 0.283112)
(0.487215 -0.0881224 0.313102)
(0.613032 -0.0892856 0.306236)
(0.707469 -0.0782356 0.268322)
(0.662355 -0.064071 0.256176)
(0.539806 -0.0695438 0.282761)
(0.488973 -0.0877424 0.315965)
(0.634964 -0.0991693 0.278368)
(0.787706 -0.079223 0.232721)
(0.818084 -0.0601002 0.211784)
(0.731476 -0.0687303 0.243908)
(0.586315 -0.100318 0.292067)
(0.626527 -0.101614 0.275243)
(0.798042 -0.073362 0.223829)
(0.81471 -0.0576181 0.217457)
(0.71056 -0.0696955 0.252453)
(0.5917 -0.0943744 0.28506)
(0.627937 -0.0995235 0.274541)
(0.786965 -0.0754767 0.229816)
(0.804818 -0.0577637 0.223945)
(0.715903 -0.0694615 0.253372)
(0.60112 -0.0940197 0.279256)
(0.643737 -0.0983101 0.271831)
(0.794171 -0.0774306 0.230031)
(0.816602 -0.0583532 0.21903)
(0.710239 -0.068565 0.251931)
(0.573292 -0.0972542 0.29173)
(0.631565 -0.0963041 0.279126)
(0.784787 -0.0745858 0.228949)
(0.805777 -0.0595367 0.220123)
(0.726074 -0.0669536 0.250708)
(0.585987 -0.092553 0.28707)
(0.627357 -0.099735 0.281262)
(0.782339 -0.0785663 0.230911)
(0.819206 -0.058303 0.213654)
(0.737402 -0.0675832 0.242961)
(0.594341 -0.0953671 0.282603)
(0.633464 -0.100037 0.278857)
(0.791105 -0.0766617 0.229019)
(0.821836 -0.055423 0.213597)
(0.718739 -0.0659079 0.250692)
(0.582505 -0.0959702 0.289501)
(0.639487 -0.0988945 0.276572)
(0.791824 -0.0766974 0.229619)
(0.810838 -0.057748 0.214258)
(0.706714 -0.0664692 0.250627)
(0.58584 -0.0950642 0.291524)
(0.718267 -0.102203 0.239443)
(0.857003 -0.0809454 0.180271)
(0.941719 -0.0528397 0.15577)
(0.88885 -0.0541561 0.192211)
(0.760564 -0.0918467 0.254583)
(0.70732 -0.106227 0.239979)
(0.857736 -0.0746572 0.170044)
(0.939263 -0.0476241 0.157676)
(0.867013 -0.0542478 0.202905)
(0.757535 -0.0856542 0.249664)
(0.714935 -0.103603 0.236762)
(0.850602 -0.076573 0.174492)
(0.932365 -0.0477771 0.162885)
(0.871935 -0.0545618 0.205059)
(0.762585 -0.0855991 0.243453)
(0.732799 -0.102538 0.233033)
(0.860032 -0.0789498 0.176381)
(0.932991 -0.0484795 0.160679)
(0.86663 -0.0524994 0.203111)
(0.739501 -0.0894052 0.256292)
(0.710194 -0.1002 0.241588)
(0.85034 -0.0748187 0.173971)
(0.92418 -0.0501267 0.160137)
(0.877115 -0.051994 0.201573)
(0.761192 -0.0837674 0.249594)
(0.716939 -0.103017 0.242303)
(0.840255 -0.0800873 0.178705)
(0.933307 -0.0493603 0.155687)
(0.897137 -0.052216 0.192541)
(0.774383 -0.0868518 0.243791)
(0.719708 -0.103768 0.240986)
(0.847288 -0.078432 0.177001)
(0.943261 -0.0457652 0.155215)
(0.883597 -0.0503266 0.199735)
(0.754198 -0.0872578 0.252105)
(0.719275 -0.102546 0.238687)
(0.856264 -0.0776124 0.176453)
(0.935762 -0.0485095 0.156542)
(0.870288 -0.0519826 0.200075)
(0.75285 -0.0869413 0.253508)
(0.809594 -0.0964253 0.200519)
(0.897618 -0.0802509 0.12758)
(1.02466 -0.0474119 0.0937808)
(1.01327 -0.0414312 0.127032)
(0.889231 -0.080518 0.20188)
(0.801461 -0.1009 0.203323)
(0.888224 -0.0734739 0.120277)
(1.01759 -0.039636 0.0932124)
(0.996394 -0.0404868 0.136926)
(0.881415 -0.073994 0.199359)
(0.813572 -0.0980551 0.197805)
(0.885628 -0.0748058 0.122046)
(1.01709 -0.0395143 0.0965203)
(1.00379 -0.0410398 0.139953)
(0.88304 -0.0743669 0.193248)
(0.829766 -0.0986956 0.192336)
(0.902216 -0.0771605 0.125203)
(1.00845 -0.039597 0.0971449)
(0.991073 -0.0383766 0.138325)
(0.863083 -0.0782008 0.206278)
(0.799329 -0.0949701 0.202929)
(0.886482 -0.0724749 0.122088)
(1.00413 -0.0419276 0.0943404)
(0.997103 -0.0391498 0.135832)
(0.883545 -0.0728858 0.197279)
(0.817883 -0.0971508 0.200676)
(0.875677 -0.0778032 0.130765)
(1.00562 -0.0421054 0.0925639)
(1.02036 -0.0402818 0.127086)
(0.903706 -0.0750814 0.190926)
(0.817812 -0.0976225 0.202754)
(0.876386 -0.0770302 0.13009)
(1.02263 -0.0387328 0.0910903)
(1.02041 -0.0367439 0.132927)
(0.88624 -0.0752188 0.200267)
(0.806631 -0.0977895 0.20048)
(0.887172 -0.0762265 0.126252)
(1.01819 -0.0410622 0.0920756)
(1.00609 -0.0391951 0.133649)
(0.877924 -0.0753306 0.20097)
(0.910267 -0.081948 0.155092)
(0.956298 -0.0758121 0.0780759)
(1.06004 -0.0440919 0.0323421)
(1.08228 -0.0229065 0.0609329)
(1.01013 -0.0569662 0.134398)
(0.903494 -0.0863326 0.159697)
(0.944097 -0.0686574 0.0727894)
(1.05415 -0.034515 0.028653)
(1.07187 -0.0211959 0.0682867)
(0.998913 -0.0505862 0.134403)
(0.912489 -0.0837463 0.153603)
(0.942372 -0.0693184 0.0726005)
(1.05673 -0.0345858 0.0290642)
(1.08362 -0.021994 0.0710281)
(0.995554 -0.0503509 0.129326)
(0.923121 -0.0869407 0.146632)
(0.964466 -0.071855 0.0765686)
(1.04604 -0.0316284 0.0330641)
(1.06466 -0.0181248 0.0700543)
(0.979152 -0.0545361 0.141467)
(0.899743 -0.0808911 0.158432)
(0.946365 -0.0668759 0.0733855)
(1.04085 -0.0354489 0.0284519)
(1.071 -0.0199525 0.0673451)
(0.996791 -0.0495003 0.130434)
(0.921338 -0.0826491 0.151309)
(0.939042 -0.0712662 0.085203)
(1.03875 -0.0373215 0.0305334)
(1.09085 -0.0237704 0.0605523)
(1.01409 -0.052159 0.124128)
(0.922221 -0.0830312 0.156082)
(0.933451 -0.0711554 0.0859831)
(1.0585 -0.0351413 0.0274009)
(1.09677 -0.0193968 0.0644197)
(1.00461 -0.051355 0.134807)
(0.907704 -0.0835692 0.156356)
(0.943391 -0.0715962 0.0791864)
(1.05449 -0.0362386 0.0273279)
(1.08535 -0.0213061 0.0644931)
(1.00215 -0.051819 0.13343)
(1.01194 -0.0601826 0.10149)
(0.996207 -0.064031 0.0459457)
(1.08183 -0.0364347 -0.0142203)
(1.13609 -0.00547515 -0.00686666)
(1.11908 -0.0300973 0.0524877)
(1.00199 -0.0656655 0.106192)
(0.989683 -0.0579779 0.0456904)
(1.07948 -0.0260668 -0.0193257)
(1.12977 -0.00430421 -0.000980327)
(1.11145 -0.0244765 0.0557998)
(1.00833 -0.062587 0.10014)
(0.992056 -0.0584989 0.0440154)
(1.07576 -0.0263348 -0.0214305)
(1.14198 -0.00454665 0.000232817)
(1.10544 -0.0234237 0.053027)
(1.00754 -0.0682001 0.0947392)
(1.00763 -0.0628318 0.0457809)
(1.07802 -0.0211563 -0.0160391)
(1.12724 0.00141193 -9.42701e-05)
(1.08593 -0.0274501 0.0613711)
(0.994511 -0.0610636 0.104318)
(0.9983 -0.056403 0.0450104)
(1.06481 -0.0256463 -0.0199591)
(1.12775 -0.00225346 -0.00260921)
(1.10204 -0.0227153 0.051299)
(1.01792 -0.0618109 0.0931243)
(0.994074 -0.0601222 0.0573221)
(1.0595 -0.0285331 -0.0137086)
(1.13827 -0.00914566 -0.00640332)
(1.11535 -0.0260051 0.0442524)
(1.02265 -0.0625808 0.0985897)
(0.98548 -0.0602243 0.0589003)
(1.07533 -0.0274916 -0.0198601)
(1.14762 -0.00373583 -0.00487845)
(1.11192 -0.0251113 0.0558055)
(1.00648 -0.0635414 0.102279)
(0.990037 -0.0619578 0.051146)
(1.07353 -0.0281749 -0.0205555)
(1.13867 -0.00479346 -0.0069363)
(1.11598 -0.0251127 0.051237)
(1.094 -0.0408962 0.0507843)
(1.04699 -0.05487 0.0340289)
(1.09021 -0.0342842 -0.0278135)
(1.15931 0.00617581 -0.0497908)
(1.17779 -0.00813031 -0.0148157)
(1.08389 -0.0462778 0.0533849)
(1.0413 -0.0501618 0.035094)
(1.09265 -0.0225389 -0.033939)
(1.16265 0.00608728 -0.0448004)
(1.17865 -0.00436312 -0.00968212)
(1.08644 -0.0424962 0.0490942)
(1.04737 -0.0504842 0.0335216)
(1.08427 -0.0224092 -0.036038)
(1.16974 0.00609489 -0.0463927)
(1.17266 -0.00239095 -0.0106596)
(1.0828 -0.0490008 0.0474034)
(1.05212 -0.0557749 0.0318819)
(1.09436 -0.0165999 -0.0317254)
(1.16477 0.0142767 -0.0438885)
(1.15849 -0.0048082 -0.00535173)
(1.07652 -0.0425451 0.0512428)
(1.05188 -0.0487653 0.0338444)
(1.08099 -0.0205578 -0.032198)
(1.16212 0.00934058 -0.0458105)
(1.16684 -0.00183939 -0.0132329)
(1.09335 -0.0418274 0.0399711)
(1.05225 -0.0524739 0.0437614)
(1.07643 -0.0246125 -0.0227422)
(1.1614 0.00104275 -0.0463874)
(1.17131 -0.00547511 -0.0205761)
(1.0976 -0.0438402 0.0436151)
(1.0437 -0.0531148 0.0472809)
(1.08385 -0.0241604 -0.0301933)
(1.16715 0.00683105 -0.0490178)
(1.17376 -0.00337788 -0.0107781)
(1.08481 -0.044562 0.0499315)
(1.04875 -0.0554633 0.0387743)
(1.08935 -0.0244058 -0.0316868)
(1.15919 0.0063704 -0.0511006)
(1.17308 -0.00559117 -0.0176906)
(1.18367 -0.0182932 0.00155047)
(1.08364 -0.0406484 0.0287144)
(1.09472 -0.0281471 -0.0223438)
(1.18614 0.0186725 -0.0815395)
(1.26629 0.0149552 -0.0743565)
(1.178 -0.02147 0.0026222)
(1.07994 -0.03836 0.0288295)
(1.09367 -0.0187719 -0.027782)
(1.19021 0.0156726 -0.0775515)
(1.27244 0.0167042 -0.0712151)
(1.17725 -0.0178018 0.000448063)
(1.08278 -0.0380395 0.0273084)
(1.08399 -0.0172913 -0.0272056)
(1.19803 0.0173632 -0.0816462)
(1.27072 0.0203845 -0.0732296)
(1.1751 -0.0239239 0.00226251)
(1.08256 -0.0442488 0.0268593)
(1.09353 -0.0125304 -0.0271541)
(1.19689 0.0269812 -0.0797111)
(1.25938 0.0194739 -0.0697613)
(1.1738 -0.0197322 -0.00112932)
(1.08369 -0.0376966 0.0281455)
(1.08191 -0.0150296 -0.0239078)
(1.19521 0.0209385 -0.0789211)
(1.26494 0.0200489 -0.0728932)
(1.1844 -0.0182628 -0.00784112)
(1.08806 -0.0402375 0.0337771)
(1.0813 -0.0190253 -0.0134806)
(1.18432 0.0123977 -0.0748406)
(1.26339 0.0169414 -0.079268)
(1.19008 -0.0190539 -0.00757095)
(1.08388 -0.0412412 0.0370524)
(1.08617 -0.0190885 -0.0229099)
(1.1908 0.0181498 -0.0807146)
(1.26765 0.0189566 -0.0715057)
(1.17756 -0.0209929 0.000136422)
(1.08325 -0.0450345 0.029365)
(1.09217 -0.0195172 -0.0243264)
(1.18542 0.0198279 -0.0815804)
(1.26456 0.0165773 -0.0788338)
(1.24468 0.00610223 -0.0264201)
(1.14031 -0.0142268 0.0219874)
(1.10937 -0.022363 -0.00970274)
(1.20297 0.0141794 -0.0858277)
(1.29462 0.0181411 -0.0926405)
(1.23425 0.00415292 -0.0229271)
(1.1364 -0.0125803 0.0198962)
(1.1168 -0.0135329 -0.0179234)
(1.20476 0.00918427 -0.0821219)
(1.30136 0.018091 -0.092769)
(1.23411 0.00754544 -0.0240075)
(1.13013 -0.012001 0.0205862)
(1.1037 -0.0123558 -0.0152629)
(1.21517 0.010663 -0.0865868)
(1.30594 0.0212048 -0.0948483)
(1.23222 0.00211557 -0.0213959)
(1.12648 -0.0184046 0.0230778)
(1.10678 -0.00980977 -0.0155414)
(1.2182 0.0209651 -0.0891029)
(1.29826 0.0225184 -0.0952997)
(1.23951 0.00508097 -0.0301653)
(1.13711 -0.0115771 0.0202981)
(1.10092 -0.00985607 -0.0114083)
(1.21525 0.0145329 -0.0845784)
(1.30483 0.0217832 -0.0964942)
(1.2467 0.00639185 -0.0326074)
(1.13908 -0.0138359 0.0242808)
(1.10662 -0.0136415 -0.00213846)
(1.19725 0.00725625 -0.0764923)
(1.29527 0.0185785 -0.0983095)
(1.24721 0.00545923 -0.0324077)
(1.13629 -0.0152865 0.0281207)
(1.10599 -0.0142258 -0.0127106)
(1.20858 0.0131358 -0.0880138)
(1.30682 0.0215673 -0.0963202)
(1.2417 0.00360534 -0.0257903)
(1.13403 -0.0194604 0.0217722)
(1.1085 -0.0155967 -0.0128341)
(1.20419 0.0153083 -0.0870624)
(1.29743 0.0188667 -0.0996702)
(1.27161 0.0260568 -0.0222913)
(1.16995 0.00148438 0.0189131)
(1.12131 -0.0202872 -0.00105773)
(1.2094 0.0061083 -0.0708166)
(1.3122 0.0272771 -0.0772148)
(1.25916 0.0254143 -0.0162749)
(1.15836 -0.00100994 0.0180586)
(1.12883 -0.0136513 -0.0106179)
(1.20781 0.00134373 -0.0672237)
(1.31101 0.025683 -0.0778067)
(1.26143 0.0292542 -0.0185991)
(1.15258 0.00167738 0.0178162)
(1.11663 -0.0135163 -0.00922507)
(1.21922 0.00156346 -0.0717427)
(1.32337 0.0295898 -0.0802455)
(1.25896 0.0243186 -0.0154361)
(1.14631 -0.00380174 0.0227418)
(1.11643 -0.0115894 -0.00740559)
(1.2223 0.0107559 -0.0766579)
(1.31714 0.0311302 -0.0823191)
(1.26813 0.0256777 -0.0245904)
(1.16384 0.00325732 0.0175753)
(1.1187 -0.00874651 -0.00554129)
(1.22313 0.00465643 -0.0709279)
(1.32436 0.0282522 -0.0838956)
(1.2767 0.0271428 -0.0248244)
(1.16133 0.00170633 0.0228173)
(1.12513 -0.0121812 0.00194777)
(1.2031 -0.000406956 -0.0625256)
(1.30832 0.0248354 -0.0823338)
(1.2747 0.0266289 -0.0244029)
(1.15922 7.06824e-05 0.0260677)
(1.11874 -0.0141537 -0.00719576)
(1.2137 0.00416849 -0.0763856)
(1.32812 0.0287451 -0.0853545)
(1.27483 0.024912 -0.0218211)
(1.15739 -0.00455809 0.0204695)
(1.11959 -0.0154356 -0.00469356)
(1.21118 0.00759696 -0.075041)
(1.31859 0.0266123 -0.0857115)
(1.28204 0.0491002 -0.00783889)
(1.22495 0.0322003 0.0114685)
(1.14737 -0.0118568 -0.00100629)
(1.17791 -0.00568885 -0.0443283)
(1.26688 0.0251903 -0.0422299)
(1.27481 0.0504259 -0.00301985)
(1.21591 0.0288051 0.0111129)
(1.15251 -0.00709414 -0.00869676)
(1.17236 -0.0087986 -0.0404832)
(1.25898 0.0232076 -0.0418323)
(1.2756 0.0532757 -0.00513598)
(1.21347 0.0327223 0.010013)
(1.14773 -0.00728123 -0.00916812)
(1.18227 -0.0115938 -0.0439654)
(1.27371 0.0260199 -0.0432934)
(1.27486 0.0505701 -0.00203906)
(1.20281 0.0272739 0.0148123)
(1.14073 -0.00733928 -0.00615252)
(1.18588 -0.00269396 -0.0488366)
(1.27069 0.0283619 -0.045546)
(1.28052 0.049543 -0.00732241)
(1.2182 0.0332407 0.0112226)
(1.15052 -0.00286569 -0.00777379)
(1.19161 -0.00911965 -0.0450017)
(1.27625 0.0240442 -0.0475944)
(1.28524 0.0504186 -0.00604117)
(1.21452 0.0326842 0.016586)
(1.15553 -0.00527661 -0.00162742)
(1.17265 -0.0115792 -0.0396396)
(1.25777 0.020554 -0.0454634)
(1.2799 0.0491264 -0.00670802)
(1.21433 0.0315908 0.0179922)
(1.14861 -0.00693485 -0.00817131)
(1.18285 -0.00844012 -0.0508566)
(1.28081 0.0244256 -0.0496674)
(1.28982 0.0500023 -0.00654014)
(1.21414 0.0280426 0.0143874)
(1.14602 -0.00882166 -0.00346293)
(1.17925 -0.0047147 -0.0492813)
(1.27485 0.0234992 -0.0499131)
(1.24758 0.0601496 0.0141298)
(1.24482 0.0511449 0.0125043)
(1.18038 0.00516105 0.00118274)
(1.16491 -0.00230897 -0.0155531)
(1.21353 0.0280334 -0.00311518)
(1.24537 0.0617137 0.0159059)
(1.23476 0.0456972 0.0119755)
(1.1815 0.00808604 -0.0035899)
(1.16041 -0.00332947 -0.0122878)
(1.20247 0.0255251 -0.00215293)
(1.24359 0.0632237 0.0146075)
(1.23267 0.0501701 0.00986852)
(1.1838 0.00845496 -0.00508843)
(1.17047 -0.00704924 -0.0137471)
(1.21786 0.0287279 -0.00105839)
(1.24352 0.0627668 0.0181452)
(1.22672 0.0473794 0.0128904)
(1.17516 0.00746576 -0.00297856)
(1.17006 -0.000609669 -0.0167023)
(1.21419 0.0305082 -0.00265784)
(1.24512 0.0606076 0.0170564)
(1.23788 0.052198 0.0129329)
(1.18905 0.0125906 -0.00527143)
(1.18223 -0.00596512 -0.0146635)
(1.22006 0.0265986 -0.00433722)
(1.24909 0.062526 0.019087)
(1.23421 0.0515087 0.017141)
(1.19116 0.0107525 -0.000297385)
(1.16558 -0.00613099 -0.0132036)
(1.20174 0.0231286 -0.00414197)
(1.24391 0.0606138 0.0166106)
(1.23165 0.0494694 0.0173377)
(1.17994 0.0072823 -0.00411525)
(1.17107 -0.00576316 -0.0199235)
(1.22264 0.0259899 -0.00611772)
(1.25398 0.061617 0.0169265)
(1.23418 0.0480154 0.0152514)
(1.18036 0.00683492 0.000338935)
(1.16594 -0.00179501 -0.0183843)
(1.2215 0.0261071 -0.00736912)
(1.21756 0.0708672 0.0254451)
(1.23375 0.0676979 0.0184155)
(1.16882 0.0223053 0.00911932)
(1.1334 0.00555572 0.00456444)
(1.16635 0.0331088 0.0180703)
(1.22028 0.0735287 0.0253637)
(1.22877 0.0636728 0.0167754)
(1.1661 0.0234096 0.00712885)
(1.12825 0.00558649 0.00719713)
(1.15382 0.0303457 0.0185071)
(1.21768 0.0737635 0.0247568)
(1.22609 0.0679664 0.0144331)
(1.1711 0.0233261 0.00580278)
(1.13417 -0.000159492 0.00801279)
(1.16813 0.0331546 0.0213259)
(1.21756 0.074841 0.0275289)
(1.2208 0.0656952 0.0159309)
(1.16673 0.0225844 0.00625648)
(1.1357 0.00625914 0.0057716)
(1.16355 0.0361259 0.0206405)
(1.21441 0.0719052 0.0295917)
(1.22644 0.0675042 0.0180584)
(1.17977 0.0268975 0.00495881)
(1.1487 0.00124899 0.00735971)
(1.17095 0.0326771 0.0189721)
(1.21698 0.0733098 0.0309527)
(1.22602 0.068199 0.0201171)
(1.17867 0.0256441 0.0086153)
(1.13698 0.00337827 0.00601992)
(1.15368 0.0290771 0.0177464)
(1.21199 0.0710185 0.0278341)
(1.22586 0.0670895 0.0195885)
(1.16934 0.0225901 0.00587926)
(1.13536 0.00101493 0.00310301)
(1.17043 0.0309744 0.0188639)
(1.22459 0.0735214 0.0293526)
(1.2235 0.0660071 0.0196479)
(1.16865 0.022265 0.00876286)
(1.13343 0.0053523 0.00359964)
(1.17133 0.0310994 0.0168786)
(1.17545 0.0676717 0.0209569)
(1.23683 0.0803426 0.017359)
(1.1871 0.04566 0.0120615)
(1.11067 0.0147879 0.0125213)
(1.10336 0.0276613 0.0215902)
(1.17535 0.0699045 0.0221994)
(1.23727 0.0780185 0.0159918)
(1.18682 0.047099 0.0113602)
(1.1074 0.0166951 0.0139613)
(1.09265 0.0255796 0.0212836)
(1.17072 0.068676 0.0217947)
(1.23244 0.0813545 0.0141628)
(1.19436 0.0477792 0.0106999)
(1.11153 0.0108485 0.0160663)
(1.10416 0.0278247 0.0241243)
(1.17426 0.0716349 0.0224334)
(1.23083 0.0802563 0.0140992)
(1.18737 0.0457989 0.0111841)
(1.11177 0.0162999 0.0141486)
(1.10234 0.0318818 0.0228083)
(1.17074 0.0689238 0.0252046)
(1.23404 0.0802382 0.0163493)
(1.1977 0.0484403 0.0113623)
(1.12146 0.0116688 0.0166858)
(1.11035 0.0292695 0.021256)
(1.17513 0.0707176 0.0247738)
(1.2354 0.0812039 0.0157587)
(1.19584 0.0473742 0.0130123)
(1.11562 0.0150098 0.0139729)
(1.09495 0.0261402 0.0204869)
(1.16488 0.0670444 0.0227163)
(1.23294 0.0797803 0.0163729)
(1.18962 0.0454788 0.0116888)
(1.11139 0.0118091 0.0123892)
(1.10401 0.0257118 0.0231423)
(1.17919 0.0700106 0.0248512)
(1.23268 0.0812918 0.0166581)
(1.18874 0.0453198 0.012388)
(1.10855 0.0144431 0.0125027)
(1.10786 0.0268092 0.0206171)
(1.14883 0.0732132 0.0103191)
(1.21462 0.0893039 0.0142842)
(1.21362 0.0815356 0.0109337)
(1.16079 0.063662 0.00672304)
(1.11678 0.056908 0.00878677)
(1.14528 0.0759376 0.0122809)
(1.21362 0.0869032 0.0143866)
(1.21222 0.0825147 0.0112426)
(1.16051 0.0669072 0.00671884)
(1.10844 0.0553052 0.00844548)
(1.14027 0.0748479 0.0124747)
(1.20701 0.0892989 0.0128182)
(1.21788 0.0819313 0.0113634)
(1.16459 0.0601937 0.00932789)
(1.1175 0.0562288 0.00980115)
(1.14581 0.0776283 0.0120425)
(1.20894 0.0897603 0.0123756)
(1.21109 0.0815303 0.0117274)
(1.15874 0.0646682 0.00790474)
(1.11535 0.0606874 0.00805872)
(1.14392 0.0744105 0.0133656)
(1.21228 0.0867473 0.0134117)
(1.22082 0.0824167 0.012393)
(1.16742 0.0600788 0.0109959)
(1.12413 0.0584602 0.00727562)
(1.14845 0.0760033 0.0120978)
(1.21513 0.0894581 0.0113339)
(1.21908 0.0817935 0.0128363)
(1.16585 0.0648906 0.00841598)
(1.11124 0.0573559 0.00751914)
(1.1373 0.0734448 0.0109687)
(1.21269 0.0876808 0.0131379)
(1.21197 0.0801103 0.0134817)
(1.15886 0.0607438 0.0074237)
(1.11605 0.0547147 0.00917544)
(1.14874 0.0751418 0.0126872)
(1.2117 0.0899927 0.0130237)
(1.21515 0.0810209 0.0119871)
(1.15679 0.063382 0.00673402)
(1.11947 0.055379 0.00774118)
(1.16711 0.0639567 -0.00325524)
(1.20888 0.0794402 0.00788952)
(1.21579 0.0807767 0.00574238)
(1.18475 0.0684464 -0.00306174)
(1.15563 0.0575861 -0.00733959)
(1.16204 0.066001 -0.0015794)
(1.20778 0.0780251 0.00871584)
(1.21345 0.081722 0.00624292)
(1.18518 0.0713403 -0.00360574)
(1.1521 0.0576118 -0.00775091)
(1.15703 0.064865 -0.00116159)
(1.20038 0.0786465 0.00747588)
(1.21737 0.0806226 0.00726302)
(1.18691 0.065194 -0.000641027)
(1.15872 0.0574254 -0.00774018)
(1.16252 0.0673596 -0.00157472)
(1.20276 0.0801192 0.00755694)
(1.2114 0.0812102 0.00737239)
(1.18232 0.0694999 -0.0029412)
(1.15513 0.0612927 -0.00945347)
(1.16534 0.0652291 -0.00159318)
(1.20852 0.0767215 0.00746583)
(1.22081 0.081226 0.00802562)
(1.18923 0.0650181 0.000450166)
(1.16472 0.059396 -0.00959189)
(1.16878 0.0662564 -0.00303496)
(1.20959 0.0790548 0.00576041)
(1.21794 0.0801839 0.00877744)
(1.18811 0.0695037 -0.00126656)
(1.15213 0.059537 -0.00857201)
(1.15337 0.0631914 -0.00343253)
(1.20685 0.0771138 0.00769131)
(1.21299 0.0801012 0.00945109)
(1.18088 0.0662276 -0.00218227)
(1.15454 0.0556087 -0.00782124)
(1.16596 0.0652299 -0.00214845)
(1.20606 0.0802407 0.00686719)
(1.21496 0.0801894 0.00768449)
(1.1808 0.0684579 -0.00317868)
(1.15716 0.0562331 -0.00839159)
(1.2089 0.100265 -0.00640267)
(1.24034 0.110957 0.00272767)
(1.25612 0.130535 -5.42374e-05)
(1.23761 0.134108 -0.00897175)
(1.21005 0.115383 -0.0121317)
(1.20473 0.103091 -0.00546547)
(1.23878 0.109297 0.00411769)
(1.25426 0.130904 0.000252311)
(1.23749 0.136684 -0.00947836)
(1.2102 0.115987 -0.0123069)
(1.20338 0.103621 -0.00533298)
(1.23037 0.10892 0.0031315)
(1.25674 0.128582 0.00157841)
(1.23961 0.130501 -0.00730583)
(1.21338 0.114132 -0.012543)
(1.20765 0.105139 -0.00499719)
(1.23387 0.11315 0.00274089)
(1.25009 0.131285 0.00112483)
(1.23303 0.13372 -0.0091713)
(1.20606 0.117127 -0.0139273)
(1.21142 0.101346 -0.00584118)
(1.24199 0.10697 0.00274673)
(1.26231 0.129969 0.00148844)
(1.23911 0.129646 -0.00637396)
(1.21496 0.115256 -0.0130731)
(1.21312 0.103572 -0.00648748)
(1.24061 0.111193 0.00172068)
(1.25686 0.129558 0.00243156)
(1.23946 0.135285 -0.00748722)
(1.20855 0.119242 -0.0127152)
(1.19683 0.101909 -0.00697481)
(1.23443 0.107104 0.00340322)
(1.25334 0.130119 0.00276758)
(1.23191 0.132313 -0.00823045)
(1.20586 0.111807 -0.0126308)
(1.20644 0.100684 -0.00577111)
(1.23802 0.111966 0.0022959)
(1.25428 0.13106 0.00166783)
(1.23265 0.133986 -0.0090864)
(1.20846 0.112226 -0.0121485)
(1.24838 0.0726542 -0.0116606)
(1.26167 0.0786233 -0.00606964)
(1.27869 0.09998 -0.00906535)
(1.27932 0.10855 -0.0150257)
(1.26539 0.092978 -0.0171311)
(1.24708 0.0751042 -0.0113903)
(1.2615 0.0781521 -0.00487874)
(1.27872 0.100565 -0.00870542)
(1.27944 0.109786 -0.0152199)
(1.26683 0.0939184 -0.0170557)
(1.25036 0.0768106 -0.011397)
(1.25499 0.0766881 -0.00572411)
(1.27809 0.0973327 -0.00735802)
(1.28107 0.104976 -0.0139804)
(1.26823 0.0918069 -0.0176702)
(1.25152 0.0774235 -0.0108576)
(1.26047 0.0812496 -0.00668576)
(1.27625 0.1011 -0.00866719)
(1.27858 0.108221 -0.015394)
(1.25789 0.0926625 -0.0179311)
(1.25227 0.0730758 -0.0112051)
(1.26361 0.0751961 -0.00593658)
(1.28725 0.100677 -0.00805601)
(1.28317 0.106069 -0.0139125)
(1.2666 0.0918702 -0.0174224)
(1.25305 0.0749011 -0.0116892)
(1.2623 0.0792165 -0.00638879)
(1.27962 0.0993403 -0.00756832)
(1.28062 0.109219 -0.0145631)
(1.26544 0.097164 -0.0175508)
(1.24171 0.07485 -0.0125834)
(1.25451 0.07463 -0.00567848)
(1.27746 0.100119 -0.00762685)
(1.27558 0.107781 -0.014683)
(1.26058 0.0898593 -0.0175994)
(1.24565 0.0725139 -0.0114687)
(1.25941 0.0795265 -0.00659696)
(1.27751 0.100913 -0.00790098)
(1.2769 0.108914 -0.0153808)
(1.26161 0.0900018 -0.0167426)
(1.30187 0.159105 -0.00720981)
(1.30672 0.152035 -0.00500836)
(1.31434 0.168567 -0.00744105)
(1.3148 0.184673 -0.0090326)
(1.31266 0.18089 -0.00921738)
(1.30303 0.162359 -0.00668636)
(1.3069 0.151121 -0.00389031)
(1.316 0.168448 -0.00718815)
(1.31491 0.185512 -0.00899017)
(1.31323 0.180262 -0.00909048)
(1.30842 0.165193 -0.00688036)
(1.3037 0.152554 -0.00465465)
(1.31386 0.165089 -0.00622522)
(1.31604 0.18044 -0.00839569)
(1.31393 0.17818 -0.00948568)
(1.30692 0.163527 -0.00657118)
(1.30792 0.155929 -0.00585344)
(1.31358 0.169273 -0.00706182)
(1.31725 0.185152 -0.00930739)
(1.30511 0.180946 -0.0095497)
(1.30485 0.158481 -0.00632091)
(1.30696 0.147671 -0.00499049)
(1.3214 0.166388 -0.00660709)
(1.32128 0.183734 -0.00889379)
(1.31319 0.180322 -0.00934429)
(1.30712 0.162432 -0.0073544)
(1.30744 0.153895 -0.00552495)
(1.31569 0.167934 -0.00662559)
(1.31628 0.185046 -0.00906516)
(1.31394 0.185231 -0.00961151)
(1.30149 0.165816 -0.00795375)
(1.29933 0.149117 -0.00500627)