/*--------------------------------*- C++ -*----------------------------------*\
  =========                 |
  \\      /  F ield         | OpenFOAM: The Open Source CFD Toolbox
   \\    /   O peration     | Website:  https://openfoam.org
    \\  /    A nd           | Version:  10
     \\/     M anipulation  |
\*---------------------------------------------------------------------------*/
FoamFile
{
    format      ascii;
    class       volSymmTensorField;
    location    "5";
    object      UPrime2Mean;
}
// * * * * * * * * * * * * * * * * * * * * * * * * * * * * * * * * * * * * * //

dimensions      [0 2 -2 0 0 0 0];

internalField   nonuniform List<symmTensor> 
25600
(
(0.0105321 -6.29808e-05 -0.00502034 1.16205e-06 1.72332e-05 0.00357797)
(0.010612 -7.59115e-05 -0.00473204 1.05573e-06 2.08577e-05 0.00319743)
(0.0105732 -8.43387e-05 -0.00472198 1.02446e-06 2.50287e-05 0.0032374)
(0.0105105 -8.45821e-05 -0.0048949 1.12106e-06 2.62233e-05 0.00343387)
(0.0104405 -6.58991e-05 -0.00511638 1.00987e-06 2.08055e-05 0.00368594)
(0.0106063 -6.41876e-05 -0.00499716 1.15032e-06 1.77904e-05 0.00350687)
(0.0104969 -7.09159e-05 -0.00474525 1.01207e-06 2.04894e-05 0.00327039)
(0.0105551 -8.478e-05 -0.00471111 9.9252e-07 2.62785e-05 0.00325189)
(0.010452 -8.3932e-05 -0.00497227 1.15079e-06 2.55511e-05 0.00353609)
(0.0105186 -7.18313e-05 -0.00511104 1.16579e-06 2.25629e-05 0.00365227)
(0.0104306 -6.81913e-05 -0.00499145 1.24956e-06 1.93243e-05 0.00354149)
(0.0105322 -7.74672e-05 -0.00471124 1.08879e-06 2.2131e-05 0.00323033)
(0.0106356 -8.47289e-05 -0.00469854 9.94667e-07 2.54284e-05 0.00322334)
(0.0104391 -8.41973e-05 -0.00488574 1.14279e-06 2.57147e-05 0.00344578)
(0.0104521 -6.94589e-05 -0.00514422 1.10319e-06 2.28242e-05 0.00370806)
(0.0104014 -6.79995e-05 -0.00500421 1.19595e-06 2.06922e-05 0.00352937)
(0.0105164 -6.96429e-05 -0.0047603 9.47858e-07 1.92215e-05 0.00327784)
(0.0104894 -8.64121e-05 -0.00466859 1.01849e-06 2.74891e-05 0.00322261)
(0.010612 -8.38058e-05 -0.00495694 1.12126e-06 2.56222e-05 0.00352528)
(0.0105778 -7.12776e-05 -0.00515273 1.13224e-06 2.30958e-05 0.00371718)
(0.0106071 -6.05319e-05 -0.00504154 1.15011e-06 1.55191e-05 0.00353856)
(0.0105483 -7.32649e-05 -0.00475807 1.02531e-06 2.1561e-05 0.00326417)
(0.0105641 -8.4041e-05 -0.00472373 1.04339e-06 2.50774e-05 0.00325091)
(0.0106414 -8.68086e-05 -0.00494939 1.21391e-06 2.63284e-05 0.0034897)
(0.0106623 -6.64437e-05 -0.00513439 1.10459e-06 1.90952e-05 0.0036894)
(0.0104904 -6.12645e-05 -0.00495806 1.15114e-06 1.74541e-05 0.00351985)
(0.0104763 -6.9931e-05 -0.00473657 1.00965e-06 1.92051e-05 0.00328208)
(0.0105689 -8.26765e-05 -0.00467793 9.99659e-07 2.40877e-05 0.00322274)
(0.0104676 -8.541e-05 -0.004945 1.24598e-06 2.59841e-05 0.00353478)
(0.0104743 -6.94933e-05 -0.00507936 1.22116e-06 2.1231e-05 0.00369141)
(0.0102946 -6.16622e-05 -0.00492236 1.26398e-06 1.64312e-05 0.00353336)
(0.0105427 -7.76551e-05 -0.00473001 1.106e-06 2.23803e-05 0.0032545)
(0.0105223 -8.68693e-05 -0.00471269 1.13302e-06 2.56047e-05 0.00326473)
(0.0105416 -8.80044e-05 -0.00490523 1.28353e-06 2.69329e-05 0.00348073)
(0.0105825 -7.20223e-05 -0.00512824 1.18786e-06 2.25397e-05 0.00371418)
(0.0105704 -6.40395e-05 -0.00497891 1.18915e-06 1.73808e-05 0.00349788)
(0.0106043 -7.40398e-05 -0.00477346 1.03174e-06 2.11082e-05 0.00329269)
(0.0105388 -8.52558e-05 -0.0046927 1.05808e-06 2.56106e-05 0.00322494)
(0.0105582 -8.56195e-05 -0.00496648 1.23387e-06 2.55911e-05 0.00353423)
(0.0105704 -6.73636e-05 -0.00513366 1.09899e-06 2.13053e-05 0.00369353)
(0.0509478 0.00123432 -0.0204423 6.38573e-05 -0.000470758 0.0101329)
(0.0491209 0.00122618 -0.019162 6.72467e-05 -0.000465834 0.00900773)
(0.0491126 0.00126789 -0.0195399 6.74241e-05 -0.000480188 0.00904109)
(0.0502353 0.00128658 -0.0204599 6.62581e-05 -0.000486512 0.00963468)
(0.0511507 0.0012447 -0.0212624 6.1335e-05 -0.000475026 0.0105886)
(0.0511729 0.00124805 -0.0204657 6.5225e-05 -0.00047414 0.010079)
(0.0490714 0.00120281 -0.0191906 6.68506e-05 -0.000462487 0.00915102)
(0.0489275 0.00125088 -0.0192656 6.98036e-05 -0.000473819 0.00897956)
(0.049634 0.00126988 -0.0207457 6.69487e-05 -0.000495132 0.0100292)
(0.0514566 0.0012903 -0.021403 6.46885e-05 -0.000500356 0.0106038)
(0.0499868 0.0012435 -0.0205524 6.75981e-05 -0.000492558 0.0103236)
(0.0487407 0.00122085 -0.0191723 6.70945e-05 -0.000471965 0.00919171)
(0.048697 0.00126475 -0.0193057 6.97001e-05 -0.000481076 0.00900328)
(0.0493911 0.00126396 -0.0203527 6.7392e-05 -0.000486714 0.0097428)
(0.051033 0.00126546 -0.0214027 6.48319e-05 -0.000484558 0.0107218)
(0.0496471 0.00118919 -0.0203013 6.64653e-05 -0.000465139 0.0101693)
(0.0492178 0.00120393 -0.0193245 6.58136e-05 -0.000460632 0.00916838)
(0.0485479 0.00122952 -0.0192539 6.7259e-05 -0.000473924 0.00894863)
(0.0511103 0.00125312 -0.0208321 6.35956e-05 -0.000469431 0.00991134)
(0.0511643 0.00125803 -0.0213814 6.39636e-05 -0.000479319 0.0106657)
(0.0511965 0.00121247 -0.0205204 6.60116e-05 -0.000469797 0.0100744)
(0.0491081 0.00122335 -0.019395 6.97685e-05 -0.000475382 0.00934577)
(0.0491234 0.00126183 -0.019502 7.04766e-05 -0.000485372 0.00908046)
(0.0507566 0.00129708 -0.0208839 6.75848e-05 -0.000491755 0.0100435)
(0.0515331 0.00131025 -0.0214088 6.65506e-05 -0.000495168 0.0106989)
(0.0505058 0.00121427 -0.0200843 6.76944e-05 -0.000461438 0.00993091)
(0.0487507 0.00120779 -0.019279 6.71421e-05 -0.000469261 0.00935719)
(0.0489792 0.00126553 -0.0192689 7.02464e-05 -0.000481944 0.00893419)
(0.0495255 0.00126439 -0.0206803 6.58935e-05 -0.000483164 0.0100834)
(0.0507859 0.00126154 -0.0211324 6.61512e-05 -0.000483294 0.010551)
(0.0497704 0.00117214 -0.0201096 6.53936e-05 -0.000452828 0.0101437)
(0.0489046 0.00118797 -0.0191857 6.62082e-05 -0.000451076 0.00907967)
(0.0488737 0.0012265 -0.0194111 6.83214e-05 -0.000473568 0.00900838)
(0.0497911 0.00126938 -0.0204595 6.5156e-05 -0.000480124 0.00976567)
(0.0512038 0.00126865 -0.0211319 6.53912e-05 -0.000485508 0.0104174)
(0.0505364 0.00123489 -0.0201757 6.42435e-05 -0.000468631 0.00994036)
(0.049328 0.00124658 -0.0193331 6.7968e-05 -0.000477444 0.00913405)
(0.0491062 0.00126288 -0.0191605 6.86723e-05 -0.000475401 0.00874083)
(0.0502928 0.00128198 -0.0207509 6.63989e-05 -0.000484191 0.00995299)
(0.0512384 0.00125549 -0.0209997 6.37683e-05 -0.00047249 0.0103094)
(0.0698206 0.00456588 -0.0289659 0.000507034 -0.00201182 0.0141415)
(0.0707865 0.00425722 -0.0278144 0.000485894 -0.00188871 0.0128323)
(0.073889 0.00429257 -0.0285593 0.00048776 -0.0018905 0.0127603)
(0.0745999 0.00463411 -0.029868 0.000526139 -0.00201043 0.0137222)
(0.0715298 0.00479497 -0.0304069 0.000539952 -0.00212194 0.0148319)
(0.0693489 0.00458636 -0.0289264 0.000524421 -0.00203554 0.0142499)
(0.0705373 0.00417162 -0.0279423 0.000482957 -0.00188781 0.0130546)
(0.0737653 0.00420553 -0.0282118 0.00047743 -0.00183203 0.0126157)
(0.0739658 0.00458577 -0.0301162 0.000526033 -0.00202927 0.0141123)
(0.0711491 0.00485848 -0.0303242 0.000550935 -0.00214748 0.0148931)
(0.0690826 0.00457518 -0.0292087 0.000533544 -0.00207998 0.014506)
(0.0704058 0.0042448 -0.0276808 0.000488525 -0.00190413 0.0128707)
(0.0736115 0.00420237 -0.0282488 0.000482727 -0.00185072 0.0126985)
(0.0733707 0.00452587 -0.0295246 0.000518532 -0.00198447 0.0137045)
(0.0712067 0.00482018 -0.030578 0.000549407 -0.00213086 0.0151905)
(0.0685979 0.00445224 -0.0289004 0.000521989 -0.00201584 0.0142331)
(0.0710207 0.0042294 -0.0281959 0.000481791 -0.00190015 0.0132315)
(0.0732945 0.00417612 -0.0283704 0.000481944 -0.0018662 0.0128944)
(0.0755803 0.0045953 -0.0304281 0.000511672 -0.00199853 0.0141408)
(0.0712243 0.00473559 -0.0305769 0.000535283 -0.00210259 0.0151684)
(0.070987 0.00447911 -0.0294386 0.000506511 -0.00200941 0.0142508)
(0.0710723 0.00420965 -0.0282036 0.000487732 -0.00190653 0.0132102)
(0.0748449 0.00426114 -0.0287403 0.00048908 -0.00188303 0.0127994)
(0.0747487 0.00469932 -0.0303447 0.000533552 -0.00204123 0.0142007)
(0.0711612 0.00484976 -0.0304077 0.000552863 -0.00213088 0.0149389)
(0.0697941 0.00445706 -0.0290585 0.000515219 -0.00199275 0.014379)
(0.0703336 0.00416564 -0.0278106 0.000477403 -0.00187379 0.0130198)
(0.0745263 0.0042472 -0.0285755 0.000487545 -0.00186739 0.0126966)
(0.0729381 0.00458699 -0.0296541 0.000524845 -0.00201456 0.0138924)
(0.071299 0.00473177 -0.030293 0.000544353 -0.00207738 0.0147789)
(0.0694968 0.00440208 -0.028938 0.000510188 -0.00196852 0.0143987)
(0.0710754 0.00415982 -0.0280199 0.000479613 -0.00185005 0.013072)
(0.0747376 0.00423671 -0.0285596 0.000490719 -0.00187318 0.0127336)
(0.0732887 0.00462841 -0.0297857 0.000516433 -0.0019994 0.0139076)
(0.0720898 0.00476694 -0.0301373 0.000542418 -0.00208899 0.0144887)
(0.0691041 0.00456084 -0.0287349 0.000513391 -0.00201987 0.0141483)
(0.0707629 0.00424629 -0.0277193 0.00048677 -0.00190029 0.0127886)
(0.0742784 0.00429675 -0.0282304 0.000483592 -0.00185777 0.012432)
(0.0745461 0.00468355 -0.0300084 0.000523291 -0.00201435 0.0138195)
(0.0715168 0.00481831 -0.0300627 0.000536263 -0.0020751 0.0145097)
(0.0679924 0.00624534 -0.0286459 0.000927417 -0.00295462 0.014429)
(0.0723516 0.00585036 -0.0286761 0.000851187 -0.00273085 0.013506)
(0.0753141 0.00602556 -0.0294737 0.000834643 -0.0026679 0.0133171)
(0.0723123 0.00656275 -0.0298633 0.000913442 -0.00284182 0.0139884)
(0.0675656 0.00668334 -0.0293029 0.000973886 -0.00301933 0.0146731)
(0.0672011 0.00628891 -0.0285908 0.000960102 -0.00298854 0.0143776)
(0.0717693 0.00576173 -0.0287117 0.000853152 -0.00273639 0.0135838)
(0.0748834 0.00594312 -0.0294771 0.000824699 -0.00263672 0.0133393)
(0.0713446 0.00644805 -0.0296851 0.000906324 -0.0028165 0.0139826)
(0.0667039 0.00665495 -0.029159 0.000977204 -0.00303551 0.0148229)
(0.0677855 0.00625518 -0.0287616 0.000950749 -0.00298282 0.0145607)
(0.0710706 0.0058383 -0.0283909 0.000853525 -0.00272981 0.0134406)
(0.0760457 0.00591901 -0.0293291 0.000825182 -0.00259639 0.0131542)
(0.0702491 0.0063791 -0.029251 0.000896526 -0.00278506 0.0138025)
(0.0675868 0.00664267 -0.0291304 0.000978413 -0.00298142 0.0145667)
(0.0667086 0.00615466 -0.0285444 0.00095377 -0.00297776 0.0145125)
(0.0721114 0.00585389 -0.0286356 0.00085153 -0.00271863 0.013478)
(0.0744034 0.00590319 -0.0293879 0.000828628 -0.00263579 0.013548)
(0.0719424 0.00642927 -0.0297045 0.000884854 -0.00276597 0.0139767)
(0.0674676 0.0065534 -0.0297887 0.000955008 -0.00301952 0.0155299)
(0.0690758 0.00619317 -0.0291136 0.000925058 -0.0029597 0.0144526)
(0.0723079 0.0058392 -0.0293063 0.000858331 -0.00280144 0.0140858)
(0.0753376 0.00594823 -0.0297369 0.000833857 -0.00266022 0.0134357)
(0.0710848 0.0065636 -0.0303107 0.000926433 -0.00288449 0.0146716)
(0.0673299 0.00664792 -0.0296345 0.000985424 -0.00304186 0.0152328)
(0.0681155 0.00617324 -0.0292933 0.000942286 -0.00298194 0.015149)
(0.0707095 0.00571782 -0.0284342 0.000839619 -0.00270711 0.0136083)
(0.0752677 0.00594778 -0.0298821 0.000835142 -0.00267176 0.0135446)
(0.0700061 0.00644143 -0.0292941 0.000909589 -0.00283372 0.0138932)
(0.0681144 0.00659863 -0.0295414 0.000972708 -0.00299963 0.014888)
(0.0677084 0.00611155 -0.0287247 0.000929519 -0.00293903 0.014773)
(0.0729125 0.00570036 -0.0288949 0.000833499 -0.00267065 0.0137218)
(0.0760627 0.00598938 -0.0295791 0.000837974 -0.00265798 0.0133083)
(0.0713674 0.0065346 -0.0297936 0.000896305 -0.00283538 0.0141231)
(0.0686002 0.00666618 -0.0293859 0.000969753 -0.00301799 0.0146356)
(0.0673898 0.00626761 -0.028527 0.000941536 -0.0029799 0.0143136)
(0.072338 0.0058151 -0.0286277 0.000855777 -0.00275581 0.0133824)
(0.0742958 0.00601468 -0.0293783 0.000828629 -0.0026696 0.0133232)
(0.0716152 0.00658277 -0.0295661 0.000907358 -0.00285036 0.0138352)
(0.0674742 0.00673822 -0.0292851 0.000972601 -0.00302589 0.0148927)
(0.0599126 0.00755013 -0.0269444 0.00145833 -0.00383258 0.0144971)
(0.0617217 0.00720376 -0.0269263 0.00134443 -0.0036176 0.0140793)
(0.0629357 0.00736626 -0.0271647 0.00129297 -0.00351838 0.0136216)
(0.0605531 0.00778338 -0.0279623 0.00141609 -0.00379498 0.014763)
(0.058883 0.00781965 -0.0280564 0.00149282 -0.00396872 0.0155958)
(0.0589223 0.0075638 -0.027463 0.00150667 -0.00394462 0.0152793)
(0.0624941 0.00715574 -0.0270593 0.00134322 -0.00359388 0.0141327)
(0.0626579 0.00736982 -0.0274157 0.00131046 -0.00356919 0.0139556)
(0.0602469 0.00764905 -0.0274725 0.00138797 -0.00371374 0.014361)
(0.0579446 0.0078168 -0.0279083 0.00150748 -0.00403502 0.0156999)
(0.0595442 0.00752137 -0.0272573 0.00148072 -0.0038708 0.0149045)
(0.0607448 0.00721732 -0.026957 0.00135539 -0.00364141 0.0142279)
(0.063466 0.00728956 -0.0270634 0.00129859 -0.003465 0.0135162)
(0.0588907 0.00760234 -0.0272957 0.00139284 -0.00371498 0.0144061)
(0.0584688 0.00772446 -0.0275799 0.00149668 -0.00390873 0.0152804)
(0.0587462 0.00749671 -0.0273597 0.00150635 -0.00394144 0.0152951)
(0.0610841 0.00718058 -0.0266006 0.00134585 -0.00358872 0.0139228)
(0.0624045 0.00730261 -0.0271553 0.00130754 -0.0035461 0.0139498)
(0.0600824 0.00756647 -0.0273085 0.001359 -0.0036596 0.0143698)
(0.0584623 0.00769783 -0.0278599 0.00147118 -0.00395597 0.0158964)
(0.0595367 0.00739996 -0.0273998 0.00143086 -0.00382623 0.0151504)
(0.0618254 0.007262 -0.0271741 0.00136043 -0.00368281 0.014288)
(0.0624789 0.007298 -0.027488 0.00129918 -0.0035414 0.0138853)
(0.0592258 0.00776071 -0.0275654 0.00143228 -0.00381178 0.0145696)
(0.0579038 0.00776296 -0.0274013 0.00151302 -0.00396298 0.0152645)
(0.0584504 0.00744157 -0.02693 0.00148969 -0.00388527 0.014996)
(0.0599993 0.00705074 -0.0265026 0.00133226 -0.00358389 0.0140307)
(0.0615571 0.00721859 -0.0270707 0.00130787 -0.00354234 0.0137606)
(0.0590871 0.00762878 -0.0274126 0.00139728 -0.00377483 0.0145978)
(0.0583287 0.00769907 -0.0276338 0.00150339 -0.00397771 0.0155123)
(0.058629 0.00736852 -0.0269076 0.00145537 -0.00384384 0.0150861)
(0.0622058 0.00705931 -0.0269497 0.00131408 -0.00355393 0.0142498)
(0.0627054 0.00736275 -0.0271257 0.00130454 -0.00355516 0.0137943)
(0.0602372 0.00774447 -0.0277437 0.00138951 -0.00378131 0.0146493)
(0.0585834 0.00780528 -0.0275817 0.00149404 -0.00397572 0.0152293)
(0.0585948 0.00751236 -0.0271245 0.00147078 -0.00390231 0.0149075)
(0.0620898 0.00722384 -0.0267793 0.00134865 -0.00363532 0.0138095)
(0.0622158 0.00743179 -0.0271436 0.0013071 -0.0035759 0.0136425)
(0.0609812 0.00783342 -0.0275499 0.00140202 -0.00376833 0.0141572)
(0.0584578 0.00791958 -0.0275584 0.00151099 -0.00399711 0.0151821)
(0.0465771 0.0077437 -0.022539 0.00193698 -0.00429096 0.013218)
(0.0477179 0.0074649 -0.0221506 0.00180484 -0.00404481 0.012444)
(0.0493341 0.00763648 -0.022708 0.00171944 -0.00394785 0.0123718)
(0.0494755 0.00817814 -0.0233981 0.00189153 -0.0042178 0.0128629)
(0.0473707 0.00807935 -0.0231586 0.00197058 -0.00433575 0.0136056)
(0.0465191 0.0077359 -0.0226524 0.00197516 -0.0043127 0.0132452)
(0.0485833 0.00736992 -0.0221925 0.00177196 -0.00397605 0.012475)
(0.0498798 0.0077361 -0.0230181 0.00174455 -0.00402583 0.0126445)
(0.0494332 0.00803409 -0.0232532 0.00183353 -0.00412944 0.0129139)
(0.0473793 0.00815943 -0.0238463 0.00198442 -0.00448099 0.0142978)
(0.0464515 0.00770321 -0.0226249 0.00194523 -0.00428485 0.0132846)
(0.0473669 0.00746946 -0.0226908 0.00179668 -0.00410481 0.0131301)
(0.0496422 0.00763756 -0.0226979 0.00173126 -0.00392408 0.0123124)
(0.0489222 0.0080877 -0.0236186 0.00185502 -0.00419342 0.0133492)
(0.047094 0.00803936 -0.02336 0.00197589 -0.00437851 0.0139861)
(0.0462679 0.0077369 -0.0227378 0.00199105 -0.00439203 0.0137681)
(0.0469211 0.0074019 -0.0221685 0.00180082 -0.00410065 0.0128775)
(0.0495178 0.00767984 -0.022798 0.0017524 -0.0040236 0.0125103)
(0.0482088 0.00795271 -0.0231475 0.00182454 -0.00418373 0.0131816)
(0.0477008 0.00808387 -0.0233364 0.00195411 -0.00439112 0.0138473)
(0.045617 0.00757244 -0.0226076 0.00188824 -0.00428176 0.0139787)
(0.0473211 0.00748136 -0.0224237 0.00180844 -0.00412705 0.0130258)
(0.0486367 0.0076444 -0.0228202 0.00173815 -0.00401051 0.012559)
(0.0479566 0.00814791 -0.0232407 0.00191165 -0.00429464 0.0131253)
(0.0465135 0.00807143 -0.0229586 0.00200217 -0.00442022 0.013655)
(0.0451854 0.00762568 -0.0221974 0.0019762 -0.0043624 0.0135255)
(0.0462577 0.00731775 -0.0218835 0.00178664 -0.00405137 0.0127348)
(0.0482558 0.00755408 -0.0225045 0.00175653 -0.00400722 0.0124532)
(0.0478149 0.00799568 -0.0230019 0.00187031 -0.0042209 0.013121)
(0.0469215 0.00799593 -0.0232621 0.00199483 -0.00444726 0.0140489)
(0.0453242 0.00756333 -0.0220821 0.00191975 -0.00425512 0.0134087)
(0.0475671 0.00731936 -0.0225202 0.00175787 -0.0040444 0.0131867)
(0.0483254 0.0076687 -0.0224827 0.00173464 -0.00400105 0.0125035)
(0.0488391 0.00811425 -0.0238979 0.00185332 -0.00428913 0.0137938)
(0.0468375 0.00811803 -0.0233708 0.00197135 -0.00443351 0.0140529)
(0.0455426 0.00768896 -0.0228151 0.00193613 -0.00437372 0.013954)
(0.0476493 0.00749048 -0.0221677 0.00179193 -0.00408894 0.012629)
(0.0492914 0.0078041 -0.0229394 0.0017574 -0.00407241 0.0126528)
(0.0492325 0.00820713 -0.023178 0.00187746 -0.00423463 0.0127876)
(0.0471385 0.00821452 -0.0231602 0.0020151 -0.00444477 0.0136902)
(0.0344915 0.00731795 -0.0173419 0.00240714 -0.00433769 0.0110839)
(0.0354476 0.00711431 -0.0172804 0.00228254 -0.00414741 0.0105614)
(0.0372953 0.00739679 -0.0175153 0.00220689 -0.0040185 0.0100577)
(0.0373699 0.0078698 -0.0185849 0.00241557 -0.00440309 0.0110872)
(0.0372275 0.00788519 -0.0183863 0.00248323 -0.00443155 0.0111951)
(0.0346177 0.00732604 -0.0177482 0.00244494 -0.00441579 0.011372)
(0.0365627 0.00709129 -0.0171181 0.00222651 -0.00403205 0.0101516)
(0.0375614 0.00748173 -0.0180411 0.0022327 -0.00416697 0.0106798)
(0.0382316 0.0078144 -0.018195 0.00233704 -0.00426175 0.0105254)
(0.0359704 0.00781433 -0.0183536 0.00248343 -0.00456962 0.0116457)
(0.0348212 0.00731768 -0.0173211 0.00241322 -0.00431745 0.0105086)
(0.0348983 0.00711439 -0.017264 0.00225762 -0.00414373 0.01043)
(0.0373397 0.00743911 -0.017868 0.0022227 -0.00407511 0.0101232)
(0.0370477 0.00781239 -0.0183481 0.0023634 -0.00432701 0.0108195)
(0.036285 0.00777769 -0.0184465 0.00247624 -0.00450211 0.0113755)
(0.0342948 0.00730463 -0.0173622 0.00247565 -0.00445436 0.011186)
(0.0349895 0.0070649 -0.0172441 0.00227615 -0.00420917 0.0107323)
(0.0371871 0.00743411 -0.0177104 0.0022538 -0.00416067 0.0103413)
(0.0373476 0.0077862 -0.0184483 0.00234441 -0.00438442 0.0112373)
(0.0367219 0.00782879 -0.0184628 0.00245906 -0.00455357 0.0117272)
(0.0341527 0.00725479 -0.0174007 0.00236628 -0.00435281 0.0112831)
(0.0349611 0.0071174 -0.0173014 0.00227062 -0.00418927 0.0107136)
(0.0362455 0.00740108 -0.017616 0.00224148 -0.00414534 0.0103054)
(0.0367992 0.00789087 -0.0183959 0.00243574 -0.00446636 0.0110257)
(0.0355272 0.00776223 -0.0179497 0.00251214 -0.00454978 0.0113137)
(0.0340975 0.00726806 -0.0173204 0.00246305 -0.00444891 0.0112275)
(0.0343628 0.00698921 -0.0167471 0.00224584 -0.0040992 0.0103156)
(0.0366113 0.00733011 -0.0176034 0.00225797 -0.00412965 0.0102492)
(0.0366364 0.00772249 -0.0180255 0.00237651 -0.00433683 0.010726)
(0.0363144 0.00772142 -0.0181873 0.00250471 -0.00453382 0.0113757)
(0.0344506 0.00725149 -0.0171767 0.00238423 -0.00432279 0.0110041)
(0.0352159 0.00701301 -0.0170897 0.0022221 -0.00410858 0.0105163)
(0.0366524 0.00746089 -0.0176751 0.00220946 -0.00411703 0.0103034)
(0.037115 0.00788057 -0.0185618 0.00236741 -0.00441346 0.0110418)
(0.0359384 0.0078692 -0.0182596 0.00246956 -0.00452557 0.0112366)
(0.0341665 0.007354 -0.0174644 0.00241032 -0.00441838 0.0111039)
(0.0349745 0.00713458 -0.0170639 0.00224421 -0.00415878 0.0103638)
(0.0371329 0.0075898 -0.0179145 0.00226345 -0.00420499 0.0103735)
(0.0370931 0.00791031 -0.0182756 0.00239675 -0.00439733 0.0108596)
(0.0365201 0.00793398 -0.018568 0.00253526 -0.00458617 0.0116315)
(0.025568 0.00647266 -0.012277 0.00271698 -0.00380283 0.0079791)
(0.025766 0.00614644 -0.0121809 0.00257012 -0.00362799 0.00767474)
(0.0265397 0.00626697 -0.0122088 0.00251045 -0.00358276 0.00743212)
(0.0262884 0.00653177 -0.0127515 0.00269965 -0.00382242 0.00793367)
(0.0265568 0.00674511 -0.0129483 0.00279117 -0.00391499 0.00821555)
(0.025869 0.00645659 -0.0125125 0.00272135 -0.00377176 0.00780204)
(0.0267443 0.00617338 -0.0123215 0.00250172 -0.003574 0.00748714)
(0.0272408 0.00634476 -0.0124895 0.00250912 -0.00363498 0.00749056)
(0.0269267 0.00652894 -0.0128149 0.00261896 -0.00380431 0.00786852)
(0.0261374 0.00673596 -0.0128235 0.00277299 -0.00394877 0.00810218)
(0.0256191 0.00646367 -0.0124541 0.0027015 -0.00380352 0.00782122)
(0.0256227 0.00624115 -0.0120726 0.00253816 -0.00359823 0.00730232)
(0.0269969 0.00640087 -0.0126204 0.00251673 -0.00363568 0.0074394)
(0.0266682 0.00662739 -0.0126677 0.00264863 -0.00377696 0.00762546)
(0.0261666 0.00671883 -0.0129457 0.00277151 -0.00394729 0.00825773)
(0.0257403 0.00646455 -0.0123659 0.0027661 -0.00384698 0.00780478)
(0.0257246 0.00615121 -0.0121441 0.00256666 -0.00366947 0.00756441)
(0.0272069 0.00637043 -0.0125709 0.00254669 -0.00368779 0.00749568)
(0.0265276 0.00654738 -0.0127751 0.00263309 -0.00385202 0.00801912)
(0.0270524 0.00682499 -0.0131102 0.00275181 -0.00398123 0.00830177)
(0.025261 0.00638848 -0.0121801 0.00265372 -0.00378221 0.0079199)
(0.0260106 0.00623338 -0.0122421 0.00255636 -0.00365288 0.00755026)
(0.025719 0.00624778 -0.0121041 0.00254583 -0.00366615 0.00741005)
(0.0260036 0.0065715 -0.0126191 0.00272331 -0.00390224 0.00786427)
(0.0253356 0.00664482 -0.0124916 0.00281555 -0.003984 0.00806863)
(0.0254168 0.00638029 -0.0122701 0.00274751 -0.00384496 0.00777994)
(0.0250535 0.00607301 -0.0118486 0.00252786 -0.0036047 0.00737066)
(0.0260945 0.00614155 -0.0122643 0.00253764 -0.00363246 0.00741472)
(0.0256076 0.00640417 -0.0124444 0.00266414 -0.00382287 0.00778951)
(0.0259316 0.00654059 -0.0127457 0.00279036 -0.00394495 0.00817591)
(0.0252541 0.00632247 -0.0122305 0.0026598 -0.0037884 0.00789874)
(0.0256536 0.00606637 -0.01201 0.00249385 -0.00360446 0.0075128)
(0.0259456 0.0062842 -0.0123647 0.00247168 -0.00364103 0.00748842)
(0.0262988 0.00662351 -0.0128363 0.00265037 -0.00386473 0.00787268)
(0.0256646 0.00674231 -0.0128956 0.00274885 -0.00397604 0.00817278)
(0.0254966 0.00651893 -0.0124012 0.00270422 -0.00384833 0.00783766)
(0.0254018 0.00621295 -0.0121024 0.00252804 -0.00367279 0.00760683)
(0.026713 0.00649709 -0.0125773 0.00256772 -0.00373151 0.00743082)
(0.0261695 0.0066692 -0.0127711 0.00270332 -0.00389597 0.00797332)
(0.0265141 0.0068596 -0.0131559 0.00284469 -0.00402281 0.00822925)
(0.0181851 0.00528032 -0.00776067 0.00287168 -0.002854 0.00469958)
(0.0176283 0.00481702 -0.00753557 0.00271365 -0.00271614 0.00464459)
(0.0180727 0.00483613 -0.00758224 0.00265172 -0.00271646 0.00445734)
(0.0180096 0.00511319 -0.00792912 0.00281531 -0.00284907 0.0048374)
(0.0187855 0.00547313 -0.00836613 0.00291553 -0.00296092 0.00505172)
(0.0184438 0.00528765 -0.0079314 0.00283798 -0.00278816 0.00483684)
(0.0184806 0.00489717 -0.00776519 0.00263089 -0.00268597 0.00467621)
(0.0184677 0.00486818 -0.0076125 0.00261659 -0.00268962 0.00448282)
(0.0184869 0.00515991 -0.00798101 0.00273012 -0.0028413 0.00482398)
(0.018107 0.00537296 -0.00794583 0.00286087 -0.00290916 0.00485667)
(0.0179514 0.00527867 -0.00780162 0.00282019 -0.00282158 0.00470415)
(0.0175497 0.00494669 -0.00743756 0.00265621 -0.00267037 0.00437331)
(0.0182534 0.00498644 -0.00771576 0.00263998 -0.00272166 0.00446388)
(0.018502 0.00532757 -0.00796952 0.00276607 -0.00283809 0.00464599)
(0.0182587 0.00544498 -0.0080262 0.00288908 -0.00292272 0.00481691)
(0.0181244 0.00529037 -0.00779293 0.00289765 -0.00286367 0.00466371)
(0.0173286 0.00481621 -0.00736323 0.00268626 -0.0027024 0.00438345)
(0.0184975 0.00500196 -0.00783856 0.00267958 -0.00279615 0.00455702)
(0.0181566 0.00519931 -0.00788187 0.00274758 -0.00285843 0.00473759)
(0.0192015 0.00560314 -0.0083935 0.00288002 -0.00300637 0.00509902)
(0.0179086 0.0052023 -0.00758591 0.00278807 -0.0027828 0.00464512)
(0.0178676 0.00492342 -0.00751317 0.00270332 -0.00271649 0.00452504)
(0.0173404 0.00478922 -0.00726598 0.0026812 -0.00271733 0.00436416)
(0.0179525 0.00518249 -0.00780825 0.00284049 -0.00289365 0.00476799)
(0.0178295 0.00535585 -0.00788451 0.00293012 -0.00295728 0.00490672)
(0.0182853 0.00522152 -0.00783695 0.00287145 -0.00284408 0.00473212)
(0.0173064 0.00480616 -0.00735879 0.00265897 -0.00268262 0.00442742)
(0.0181639 0.00478555 -0.00761945 0.00267614 -0.00270258 0.00443879)
(0.0177102 0.00505083 -0.00775363 0.00278149 -0.00285603 0.00472258)
(0.0186157 0.00528603 -0.00807666 0.00290663 -0.00292791 0.00489761)
(0.0177421 0.00511112 -0.00768727 0.00278081 -0.00282765 0.00478304)
(0.017918 0.00480875 -0.00748246 0.00261676 -0.00267248 0.00444175)
(0.0174373 0.00483147 -0.00749132 0.00258225 -0.00270731 0.00445955)
(0.0180524 0.00522755 -0.00794641 0.00276027 -0.00288818 0.00477449)
(0.0178511 0.00541353 -0.00802513 0.00285356 -0.00296418 0.00502489)
(0.0178592 0.00532577 -0.00786963 0.00283716 -0.00289661 0.00477857)
(0.0172253 0.00489111 -0.00736518 0.00265415 -0.00271532 0.00446757)
(0.0177899 0.00501673 -0.00779617 0.00268671 -0.00282296 0.00457633)
(0.01795 0.00528299 -0.00789438 0.00282564 -0.00290837 0.0047061)
(0.0184401 0.00551342 -0.0083285 0.00296125 -0.00303213 0.00505744)
(0.0120051 0.00378771 -0.00433318 0.00272494 -0.00160128 0.00253262)
(0.0116977 0.00348486 -0.00413214 0.002589 -0.00147292 0.00234052)
(0.0121356 0.00352429 -0.00427338 0.00252458 -0.00154352 0.00235476)
(0.0121188 0.00372153 -0.00431998 0.00264082 -0.0015933 0.00242848)
(0.012501 0.00395601 -0.00463562 0.00273548 -0.00170078 0.00269418)
(0.0124331 0.00387071 -0.00443376 0.00267884 -0.00154589 0.00254666)
(0.0125029 0.00359933 -0.00437147 0.00250405 -0.00148594 0.0024777)
(0.012709 0.00359972 -0.00427475 0.00247309 -0.00150853 0.0023606)
(0.0124884 0.00376723 -0.00432882 0.00254195 -0.00158382 0.00243382)
(0.0121013 0.00386146 -0.00425928 0.00265967 -0.0016187 0.00248718)
(0.0118103 0.00381951 -0.00416859 0.00263013 -0.00154058 0.00236459)
(0.01171 0.00364135 -0.00402931 0.00251009 -0.00145335 0.00224766)
(0.0122136 0.00368804 -0.00424391 0.00248006 -0.00152587 0.00232949)
(0.0124777 0.00397722 -0.0043629 0.00258824 -0.0016057 0.00239596)
(0.0120814 0.00394006 -0.00438103 0.00269589 -0.00163991 0.0025328)
(0.0119287 0.00387003 -0.00423876 0.00272821 -0.00159885 0.00236342)
(0.0114551 0.00354025 -0.00404165 0.00253597 -0.00149377 0.002308)
(0.0122982 0.00372975 -0.00432159 0.00251416 -0.00159516 0.00239144)
(0.0122334 0.00385305 -0.00439691 0.00255717 -0.00161843 0.00254041)
(0.012766 0.00408033 -0.00460266 0.00268637 -0.00169738 0.00267598)
(0.0119947 0.00378231 -0.00419704 0.00263541 -0.00153349 0.00244137)
(0.011885 0.0035763 -0.00405444 0.00257289 -0.00146801 0.00229527)
(0.0116582 0.00349822 -0.00401548 0.00253228 -0.00150663 0.00228535)
(0.0120219 0.00375847 -0.00419272 0.00264814 -0.00159066 0.00240253)
(0.0118601 0.00383728 -0.00433597 0.00272297 -0.00163821 0.00260029)
(0.0122359 0.00378013 -0.00431965 0.0026925 -0.00154359 0.00244398)
(0.0116878 0.00351216 -0.00413882 0.00251991 -0.00146402 0.00234352)
(0.0125668 0.00354118 -0.00430459 0.00252812 -0.0014959 0.00233926)
(0.0121328 0.00369507 -0.00434209 0.00259899 -0.00159762 0.00250655)
(0.012788 0.00384099 -0.00452109 0.00272283 -0.00163467 0.00257165)
(0.0119436 0.00370757 -0.00426238 0.00262084 -0.00156328 0.00247295)
(0.0121987 0.00353058 -0.00418398 0.00249473 -0.00146869 0.00226044)
(0.0118491 0.00354743 -0.00414231 0.00244042 -0.00152484 0.00232249)
(0.0122708 0.00383831 -0.0043968 0.00259492 -0.00165137 0.00246718)
(0.0119363 0.00392368 -0.00433114 0.00267892 -0.00167499 0.0025689)
(0.011746 0.00387384 -0.00428237 0.0026896 -0.0016158 0.0024103)
(0.0113511 0.00355843 -0.00396224 0.00252579 -0.00147721 0.00225118)
(0.0116758 0.00366402 -0.00423054 0.00253286 -0.00157119 0.00234004)
(0.0118908 0.00381999 -0.00430342 0.00264444 -0.00163391 0.00246328)
(0.0120803 0.0039432 -0.00451181 0.00276661 -0.00168876 0.00268199)
(0.00837531 0.00260576 -0.00235797 0.00243611 -0.000494136 0.00153368)
(0.00816929 0.00238163 -0.00217903 0.0023172 -0.000371436 0.00142288)
(0.00847023 0.00235969 -0.00226319 0.00226084 -0.000443405 0.00137591)
(0.00831392 0.00246814 -0.00221073 0.00232613 -0.000465335 0.00138969)
(0.00839199 0.00262847 -0.00240362 0.00241635 -0.000570644 0.00159732)
(0.00860843 0.0026837 -0.00241781 0.00237837 -0.000488664 0.00165387)
(0.00878821 0.00250339 -0.00241392 0.00224128 -0.000439789 0.00161818)
(0.00905706 0.00246183 -0.00233629 0.00219439 -0.000440995 0.00147641)
(0.00869375 0.00251431 -0.00223772 0.00222628 -0.000489727 0.00140305)
(0.00831277 0.00257695 -0.00214215 0.00232227 -0.000490956 0.00139947)
(0.00816119 0.00262608 -0.0021391 0.00231269 -0.000470913 0.00142055)
(0.0082261 0.00254081 -0.00209175 0.00223191 -0.000394551 0.00136857)
(0.00852962 0.00253649 -0.0022451 0.00219201 -0.000452662 0.00140709)
(0.00855634 0.00269489 -0.002218 0.00226749 -0.00049933 0.00137761)
(0.00813901 0.00265302 -0.00223332 0.00235892 -0.000508701 0.00146497)
(0.00807534 0.00267884 -0.00216952 0.00240397 -0.000503164 0.0014212)
(0.00786839 0.00246785 -0.00211352 0.00224427 -0.000438639 0.00140508)
(0.00835442 0.00256545 -0.00222694 0.00220615 -0.000500563 0.00142627)
(0.00837409 0.0026191 -0.00227714 0.00223581 -0.000504253 0.00148789)
(0.00851657 0.00272064 -0.00232682 0.00234651 -0.00052165 0.00156213)
(0.00835612 0.00258182 -0.00227164 0.00233931 -0.000448321 0.00152742)
(0.00828764 0.00243802 -0.00210739 0.00230129 -0.000374922 0.00141573)
(0.00817511 0.00234877 -0.00214002 0.00224213 -0.000423228 0.00140062)
(0.00837892 0.00252599 -0.00214587 0.00232612 -0.000469097 0.00138613)
(0.00811394 0.00254164 -0.00228305 0.0023718 -0.000492433 0.00151565)
(0.0085666 0.00260698 -0.00232908 0.00239853 -0.000467168 0.00150056)
(0.00820628 0.00238966 -0.00226 0.00225002 -0.000407471 0.00146336)
(0.00899315 0.00244309 -0.00239416 0.0022581 -0.000439344 0.00147452)
(0.00854443 0.0024756 -0.00233351 0.00227787 -0.00048493 0.00150323)
(0.00896724 0.00260758 -0.00245805 0.00238036 -0.000499938 0.00154269)
(0.00840495 0.00256264 -0.00230429 0.00232756 -0.000472281 0.00149478)