/*--------------------------------*- C++ -*----------------------------------*\
  =========                 |
  \\      /  F ield         | OpenFOAM: The Open Source CFD Toolbox
   \\    /   O peration     | Website:  https://openfoam.org
    \\  /    A nd           | Version:  10
     \\/     M anipulation  |
\*---------------------------------------------------------------------------*/
FoamFile
{
    format      ascii;
    class       volScalarField;
    location    "15";
    object      p;
}
// * * * * * * * * * * * * * * * * * * * * * * * * * * * * * * * * * * * * * //

dimensions      [0 2 -2 0 0 0 0];

internalField   nonuniform List<scalar> 
25600
(
-5.20201e-06
-2.65337e-06
-5.40897e-06
-4.39548e-06
-3.37688e-06
-4.55275e-06
-4.34774e-06
-2.75988e-06
-4.03242e-06
-4.0247e-06
-9.3676e-07
-5.17449e-06
-1.35462e-06
-8.57697e-07
-5.35544e-06
1.86569e-06
-3.15342e-06
-2.46892e-06
2.01264e-06
-4.04745e-06
3.36288e-07
1.25233e-07
-2.848e-06
1.02956e-06
-1.19201e-06
-1.69724e-06
4.28824e-07
-1.51564e-06
-1.73386e-06
-2.25724e-07
-1.91174e-06
-2.4282e-06
-1.239e-06
-2.49516e-06
-3.63579e-06
-2.27947e-06
-3.03434e-06
-5.34232e-06
-2.21114e-06
-4.62546e-06
-5.19581e-06
-2.64922e-06
-5.39709e-06
-4.39713e-06
-3.37227e-06
-4.54808e-06
-4.34946e-06
-2.75913e-06
-4.03157e-06
-4.02875e-06
-9.40298e-07
-5.17128e-06
-1.36791e-06
-8.56594e-07
-5.35897e-06
1.85429e-06
-3.14447e-06
-2.47971e-06
2.01158e-06
-4.0401e-06
3.26776e-07
1.34156e-07
-2.84568e-06
1.02772e-06
-1.1814e-06
-1.69564e-06
4.34811e-07
-1.50578e-06
-1.72856e-06
-2.19224e-07
-1.8986e-06
-2.42131e-06
-1.22855e-06
-2.4829e-06
-3.62501e-06
-2.27075e-06
-3.01948e-06
-5.33235e-06
-2.20574e-06
-4.61138e-06
-5.19662e-06
-2.64007e-06
-5.38573e-06
-4.40475e-06
-3.36321e-06
-4.54448e-06
-4.35542e-06
-2.75569e-06
-4.0312e-06
-4.04104e-06
-9.35983e-07
-5.17344e-06
-1.38501e-06
-8.4268e-07
-5.37549e-06
1.84991e-06
-3.13177e-06
-2.50135e-06
2.02274e-06
-4.03653e-06
3.14848e-07
1.53439e-07
-2.84999e-06
1.02906e-06
-1.16514e-06
-1.69807e-06
4.45313e-07
-1.49272e-06
-1.72663e-06
-2.08342e-07
-1.88225e-06
-2.41706e-06
-1.21533e-06
-2.4678e-06
-3.6167e-06
-2.26116e-06
-2.99941e-06
-5.32877e-06
-2.19733e-06
-4.59353e-06
-5.2079e-06
-2.62514e-06
-5.37556e-06
-4.42358e-06
-3.34804e-06
-4.54308e-06
-4.36815e-06
-2.74839e-06
-4.03197e-06
-4.05837e-06
-9.22537e-07
-5.18097e-06
-1.40681e-06
-8.15225e-07
-5.4069e-06
1.85297e-06
-3.11276e-06
-2.53805e-06
2.04836e-06
-4.03697e-06
2.97253e-07
1.86494e-07
-2.86403e-06
1.03266e-06
-1.1416e-06
-1.70779e-06
4.61597e-07
-1.47675e-06
-1.73083e-06
-1.92497e-07
-1.86358e-06
-2.41781e-06
-1.19948e-06
-2.45121e-06
-3.61318e-06
-2.25148e-06
-2.97493e-06
-5.33438e-06
-2.18818e-06
-4.57158e-06
-5.23169e-06
-2.60237e-06
-5.36685e-06
-4.45112e-06
-3.3247e-06
-4.54437e-06
-4.38476e-06
-2.73572e-06
-4.0343e-06
-4.08256e-06
-8.98212e-07
-5.19437e-06
-1.43385e-06
-7.7159e-07
-5.4559e-06
1.865e-06
-3.08612e-06
-2.5936e-06
2.09164e-06
-4.04301e-06
2.72361e-07
2.36391e-07
-2.89087e-06
1.03982e-06
-1.10946e-06
-1.72733e-06
4.85312e-07
-1.45821e-06
-1.74255e-06
-1.70741e-07
-1.84281e-06
-2.42467e-06
-1.1806e-06
-2.43341e-06
-3.61552e-06
-2.24142e-06
-2.94546e-06
-5.35114e-06
-2.17726e-06
-4.54479e-06
-5.26995e-06
-2.56939e-06
-5.36041e-06
-4.48998e-06
-3.29098e-06
-4.54884e-06
-4.40686e-06
-2.71589e-06
-4.03877e-06
-4.11351e-06
-8.6057e-07
-5.21477e-06
-1.46582e-06
-7.09121e-07
-5.5255e-06
1.88891e-06
-3.05156e-06
-2.67142e-06
2.15703e-06
-4.05748e-06
2.39671e-07
3.05587e-07
-2.93417e-06
1.05025e-06
-1.06815e-06
-1.75933e-06
5.18091e-07
-1.43808e-06
-1.76305e-06
-1.4236e-07
-1.82065e-06
-2.43855e-06
-1.15867e-06
-2.41494e-06
-3.62489e-06
-2.23071e-06
-2.91241e-06
-5.38121e-06
-2.1635e-06
-4.51293e-06
-5.32449e-06
-2.52403e-06
-5.35712e-06
-4.54143e-06
-3.24455e-06
-4.55698e-06
-4.43452e-06
-2.6868e-06
-4.04629e-06
-4.15057e-06
-8.06991e-07
-5.24333e-06
-1.50201e-06
-6.25615e-07
-5.61809e-06
1.92791e-06
-3.00902e-06
-2.77463e-06
2.24719e-06
-4.0833e-06
1.98968e-07
3.96051e-07
-2.99792e-06
1.06366e-06
-1.01754e-06
-1.8067e-06
5.61141e-07
-1.41792e-06
-1.79363e-06
-1.07063e-07
-1.79836e-06
-2.46017e-06
-1.13428e-06
-2.39656e-06
-3.64242e-06
-2.21932e-06
-2.87541e-06
-5.42056e-06
-2.14816e-06
-4.47599e-06
-5.39667e-06
-2.46474e-06
-5.35758e-06
-4.60683e-06
-3.18306e-06
-4.56901e-06
-4.46789e-06
-2.64598e-06
-4.05837e-06
-4.19258e-06
-7.34861e-07
-5.28115e-06
-1.54138e-06
-5.19924e-07
-5.73491e-06
1.98495e-06
-2.95855e-06
-2.90589e-06
2.36561e-06
-4.12281e-06
1.50299e-07
5.09128e-07
-3.08602e-06
1.08216e-06
-9.58382e-07
-1.87262e-06
6.15184e-07
-1.4e-06
-1.83572e-06
-6.49304e-08
-1.77776e-06
-2.48983e-06
-1.10853e-06
-2.37905e-06
-3.66897e-06
-2.20737e-06
-2.83496e-06
-5.47583e-06
-2.12882e-06
-4.43446e-06
-5.48628e-06
-2.3913e-06
-5.36201e-06
-4.68743e-06
-3.10469e-06
-4.58457e-06
-4.50742e-06
-2.59074e-06
-4.07714e-06
-4.23797e-06
-6.41873e-07
-5.32922e-06
-1.58245e-06
-3.93115e-07
-5.87531e-06
2.06213e-06
-2.9007e-06
-3.06657e-06
2.51376e-06
-4.17712e-06
9.44693e-08
6.44994e-07
-3.20162e-06
1.10595e-06
-8.91279e-07
-1.9602e-06
6.81193e-07
-1.387e-06
-1.89105e-06
-1.64839e-08
-1.76147e-06
-2.52738e-06
-1.08321e-06
-2.36309e-06
-3.70467e-06
-2.19489e-06
-2.79181e-06
-5.54661e-06
-2.1053e-06
-4.38848e-06
-5.58905e-06
-2.30479e-06
-5.37037e-06
-4.78387e-06
-3.00897e-06
-4.60213e-06
-4.55389e-06
-2.51915e-06
-4.10494e-06
-4.28497e-06
-5.26864e-07
-5.3882e-06
-1.623e-06
-2.50196e-07
-6.0357e-06
2.15987e-06
-2.83719e-06
-3.25547e-06
2.68947e-06
-4.24525e-06
3.3515e-08
8.01852e-07
-3.34634e-06
1.13503e-06
-8.1689e-07
-2.07141e-06
7.59531e-07
-1.38077e-06
-1.96141e-06
3.71214e-08
-1.75295e-06
-2.5725e-06
-1.06144e-06
-2.34911e-06
-3.74852e-06
-2.18201e-06
-2.74731e-06
-5.62985e-06
-2.07754e-06
-4.339e-06
-5.69559e-06
-2.20969e-06
-5.38143e-06
-4.89383e-06
-2.89853e-06
-4.61829e-06
-4.60716e-06
-2.4322e-06
-4.14347e-06
-4.3314e-06
-3.91298e-07
-5.45771e-06
-1.66007e-06
-1.02007e-07
-6.21065e-06
2.27536e-06
-2.77191e-06
-3.46684e-06
2.88401e-06
-4.32346e-06
-2.92965e-08
9.74721e-07
-3.51912e-06
1.16886e-06
-7.35552e-07
-2.20721e-06
8.47545e-07
-1.38326e-06
-2.04812e-06
9.37972e-08
-1.75509e-06
-2.62436e-06
-1.04971e-06
-2.33728e-06
-3.79802e-06
-2.16928e-06
-2.70383e-06
-5.7188e-06
-2.04475e-06
-4.28878e-06
-5.78939e-06
-2.11016e-06
-5.39596e-06
-4.95854e-06
-2.78976e-06
-4.62876e-06
-4.66269e-06
-2.33657e-06
-4.19301e-06
-4.37331e-06
-2.41862e-07
-5.53511e-06
-1.69001e-06
3.35486e-08
-6.38081e-06
2.40098e-06
-2.71231e-06
-3.68902e-06
3.07806e-06
-4.40515e-06
-8.98092e-08
1.15356e-06
-3.7159e-06
1.20561e-06
-6.47384e-07
-2.36635e-06
9.40466e-07
-1.39333e-06
-2.15061e-06
1.48634e-07
-1.76744e-06
-2.67714e-06
-1.05777e-06
-2.32758e-06
-3.84968e-06
-2.1586e-06
-2.66516e-06
-5.80312e-06
-2.00395e-06
-4.24427e-06
-5.84956e-06
-2.00643e-06
-5.4205e-06
-4.99842e-06
-2.68358e-06
-4.63512e-06
-4.7103e-06
-2.23553e-06
-4.2527e-06
-4.40127e-06
-9.41624e-08
-5.61508e-06
-1.70953e-06
1.32718e-07
-6.5299e-06
2.52338e-06
-2.66947e-06
-3.90525e-06
3.24342e-06
-4.48201e-06
-1.43884e-07
1.32227e-06
-3.93147e-06
1.24171e-06
-5.54324e-07
-2.54378e-06
1.02899e-06
-1.40702e-06
-2.26193e-06
1.90806e-07
-1.78774e-06
-2.72643e-06
-1.04778e-06
-2.31575e-06
-3.89676e-06
-2.15502e-06
-2.63266e-06
-5.87279e-06
-1.94874e-06
-4.21456e-06
-5.8592e-06
-1.89231e-06
-5.46577e-06
-4.98234e-06
-2.5754e-06
-4.64935e-06
-4.73253e-06
-2.15504e-06
-4.32575e-06
-4.39561e-06
2.78591e-08
-5.6884e-06
-1.72151e-06
1.72142e-07
-6.6351e-06
2.61948e-06
-2.65221e-06
-4.10081e-06
3.3531e-06
-4.54534e-06
-1.91893e-07
1.46251e-06
-4.16279e-06
1.27474e-06
-4.65319e-07
-2.73191e-06
1.10021e-06
-1.42608e-06
-2.36244e-06
1.99273e-07
-1.80771e-06
-2.7577e-06
-1.08357e-06
-2.28794e-06
-3.93052e-06
-2.17098e-06
-2.60729e-06
-5.91975e-06
-1.87346e-06
-4.20212e-06
-5.80735e-06
-1.75703e-06
-5.53191e-06
-4.89289e-06
-2.46453e-06
-4.68749e-06
-4.6277e-06
-2.10905e-06
-4.40755e-06
-4.32594e-06
9.02024e-08
-5.73517e-06
-1.74767e-06
1.4163e-07
-6.66368e-06
2.65372e-06
-2.64874e-06
-4.28456e-06
3.38281e-06
-4.58227e-06
-2.46742e-07
1.56315e-06
-4.41869e-06
1.31056e-06
-3.96802e-07
-2.93087e-06
1.14983e-06
-1.4711e-06
-2.42036e-06
1.47431e-07
-1.82376e-06
-2.74853e-06
-1.19123e-06
-2.22729e-06
-3.92515e-06
-2.23024e-06
-2.5901e-06
-5.92523e-06
-1.78296e-06
-4.19167e-06
-5.68265e-06
-1.61962e-06
-5.57855e-06
-4.73545e-06
-2.31727e-06
-4.75393e-06
-4.40274e-06
-2.10126e-06
-4.48954e-06
-4.16022e-06
3.82182e-08
-5.60405e-06
-1.84231e-06
4.69819e-08
-6.56277e-06
2.56323e-06
-2.60169e-06
-4.51869e-06
3.31999e-06
-4.34506e-06
-3.38101e-07
1.64198e-06
-4.73728e-06
1.3703e-06
-3.52295e-07
-3.16897e-06
1.19633e-06
-1.57603e-06
-2.40761e-06
9.32144e-09
-1.83568e-06
-2.67029e-06
-1.40818e-06
-2.11918e-06
-3.84577e-06
-2.35588e-06
-2.58245e-06
-5.82183e-06
-1.71516e-06
-4.14172e-06
-5.44841e-06
-1.52709e-06
-5.5969e-06
-4.51692e-06
-2.18581e-06
-4.83978e-06
-4.01444e-06
-2.16771e-06
-4.55758e-06
-3.85414e-06
-1.81325e-07
-5.24679e-06
-2.08923e-06
-9.89372e-08
-6.24751e-06
2.21214e-06
-2.38983e-06
-4.90265e-06
3.13491e-06
-4.36647e-06
-5.41977e-07
1.76582e-06
-5.14202e-06
1.44195e-06
-3.03331e-07
-3.49083e-06
1.27003e-06
-1.74617e-06
-2.31204e-06
-2.38555e-07
-1.84972e-06
-2.50576e-06
-1.77044e-06
-1.96114e-06
-3.66612e-06
-2.54142e-06
-2.42005e-06
-5.58892e-06
-1.72232e-06
-4.0186e-06
-5.09315e-06
-1.50056e-06
-5.55378e-06
-4.21419e-06
-2.17234e-06
-4.95716e-06
-3.5153e-06
-2.31875e-06
-4.62686e-06
-3.33797e-06
-6.61509e-07
-4.57688e-06
-2.49294e-06
-3.38735e-07
-5.60456e-06
1.46484e-06
-1.89599e-06
-5.15916e-06
2.80652e-06
-4.11462e-06
-9.15645e-07
1.95663e-06
-5.6498e-06
1.48423e-06
-2.34377e-07
-3.91799e-06
1.36803e-06
-1.9751e-06
-2.13527e-06
-5.71856e-07
-1.88161e-06
-2.24928e-06
-2.26627e-06
-1.76562e-06
-3.38229e-06
-2.80655e-06
-2.29609e-06
-5.18347e-06
-1.81609e-06
-4.04896e-06
-4.65903e-06
-1.53083e-06
-5.47246e-06
-3.85566e-06
-1.96763e-06
-5.16845e-06
-2.87137e-06
-2.5011e-06
-4.71832e-06
-2.62501e-06
-1.39102e-06
-3.63923e-06
-3.02338e-06
-6.5648e-07
-4.68926e-06
3.85031e-07
-1.13089e-06
-5.52695e-06
2.35701e-06
-3.63577e-06
-1.47313e-06
2.2402e-06
-6.23471e-06
1.50443e-06
-1.19872e-07
-4.42543e-06
1.49645e-06
-2.26568e-06
-1.92104e-06
-9.67016e-07
-1.91934e-06
-1.94868e-06
-2.72895e-06
-1.56944e-06
-3.03451e-06
-3.14281e-06
-2.21901e-06
-4.63587e-06
-2.00484e-06
-3.96965e-06
-4.23044e-06
-1.61905e-06
-5.34098e-06
-3.52808e-06
-1.75781e-06
-5.39481e-06
-2.18121e-06
-2.69557e-06
-4.86486e-06
-1.81397e-06
-2.23646e-06
-2.56069e-06
-3.63246e-06
-9.6065e-07
-3.66291e-06
-8.40934e-07
-2.24609e-07
-5.98909e-06
1.87529e-06
-3.05679e-06
-2.19589e-06
2.58668e-06
-6.8163e-06
1.48819e-06
7.57593e-08
-4.98816e-06
1.65479e-06
-2.57247e-06
-1.74164e-06
-1.38433e-06
-1.93321e-06
-1.68915e-06
-3.15383e-06
-1.39364e-06
-2.66864e-06
-3.49157e-06
-2.2211e-06
-3.99139e-06
-2.27774e-06
-3.81174e-06
-3.83179e-06
-1.76006e-06
-5.15676e-06
-3.25257e-06
-1.57878e-06
-5.59063e-06
-1.55286e-06
-2.86193e-06
-5.044e-06
-1.02078e-06
-3.11992e-06
-1.59664e-06
-4.18459e-06
-1.28319e-06
-2.64805e-06
-2.0692e-06
7.42156e-07
-6.49677e-06
1.44729e-06
-2.48027e-06
-2.86195e-06
2.92219e-06
-7.3322e-06
1.41659e-06
3.21408e-07
-5.51931e-06
1.75758e-06
-2.81272e-06
-1.67992e-06
-1.69351e-06
-1.95018e-06
-1.50275e-06
-3.48904e-06
-1.33144e-06
-2.32512e-06
-3.76373e-06
-2.31768e-06
-3.28386e-06
-2.63127e-06
-3.5589e-06
-3.45957e-06
-1.98685e-06
-4.95819e-06
-3.04678e-06
-1.45172e-06
-5.69869e-06
-9.62386e-07
-3.09448e-06
-5.095e-06
-3.59288e-07
-3.79761e-06
-8.20176e-07
-4.59033e-06
-1.62104e-06
-1.74183e-06
-3.20367e-06
1.64997e-06
-6.93434e-06
9.74501e-07
-1.8914e-06
-3.55418e-06
3.21918e-06
-7.73194e-06
1.25931e-06
5.30995e-07
-5.89892e-06
1.73298e-06
-2.90737e-06
-1.76434e-06
-1.87907e-06
-1.96852e-06
-1.44148e-06
-3.67149e-06
-1.37435e-06
-2.00322e-06
-3.9218e-06
-2.5454e-06
-2.50697e-06
-3.06635e-06
-3.25816e-06
-3.04755e-06
-2.3752e-06
-4.4598e-06
-2.99867e-06
-1.36839e-06
-5.75066e-06
-3.89625e-07
-3.50861e-06
-4.9714e-06
1.31521e-07
-4.27293e-06
-1.67998e-07
-4.99255e-06
-1.76729e-06
-1.0953e-06
-4.09967e-06
2.3237e-06
-7.15376e-06
3.99743e-07
-1.32895e-06
-4.08923e-06
3.35459e-06
-7.86995e-06
9.23113e-07
6.76263e-07
-6.05948e-06
1.53621e-06
-2.8132e-06
-2.02181e-06
-1.93081e-06
-1.9634e-06
-1.56364e-06
-3.63156e-06
-1.52215e-06
-1.69158e-06
-3.91122e-06
-2.88393e-06
-1.74253e-06
-3.52374e-06
-3.01472e-06
-2.48489e-06
-2.95078e-06
-3.64112e-06
-3.05132e-06
-1.4368e-06
-5.52189e-06
-9.31582e-08
-3.75354e-06
-4.83211e-06
4.64612e-07
-4.98632e-06
3.63777e-07
-5.38276e-06
-1.63743e-06
-7.71435e-07
-4.77721e-06
2.69249e-06
-7.11168e-06
-2.29223e-07
-9.24405e-07
-4.35284e-06
3.07991e-06
-7.52497e-06
3.88548e-07
6.85176e-07
-5.8851e-06
1.04457e-06
-2.54832e-06
-2.47132e-06
-1.8272e-06
-1.89778e-06
-1.98505e-06
-3.25105e-06
-1.89778e-06
-1.36955e-06
-3.7855e-06
-3.27415e-06
-1.0409e-06
-3.86514e-06
-2.90175e-06
-2.07928e-06
-3.41146e-06
-3.11512e-06
-2.80746e-06
-2.0951e-06
-4.6553e-06
-1.25589e-07
-4.11809e-06
-4.44686e-06
4.98126e-07
-5.20668e-06
6.11325e-07
-5.53984e-06
-1.51675e-06
-7.59223e-07
-5.03517e-06
2.70934e-06
-6.77898e-06
-9.10502e-07
-7.209e-07
-4.23203e-06
2.27687e-06
-6.69182e-06
-4.44115e-07
5.24714e-07
-5.30356e-06
2.8483e-07
-2.17893e-06
-2.98864e-06
-1.67927e-06
-1.61702e-06
-2.72669e-06
-2.44832e-06
-2.73114e-06
-1.06527e-06
-3.51341e-06
-3.73387e-06
-5.9958e-07
-4.05781e-06
-2.74446e-06
-2.03143e-06
-3.70902e-06
-2.62611e-06
-2.4825e-06
-2.97837e-06
-3.557e-06
-1.71088e-07
-4.76512e-06
-3.51449e-06
5.63922e-08
-4.90033e-06
4.88034e-07
-5.50756e-06
-1.34881e-06
-1.04502e-06
-4.95651e-06
2.29093e-06
-5.99459e-06
-1.65828e-06
-7.77183e-07
-3.59188e-06
8.18974e-07
-5.04491e-06
-1.59658e-06
1.65713e-07
-4.26812e-06
-7.32442e-07
-1.73387e-06
-3.5022e-06
-1.49599e-06
-1.27462e-06
-3.62224e-06
-1.52628e-06
-3.54553e-06
-1.12576e-06
-2.7611e-06
-4.37193e-06
2.21554e-08
-4.66745e-06
-2.36926e-06
-1.96184e-06
-3.97078e-06
-2.06608e-06
-2.29863e-06
-3.97513e-06
-2.31386e-06
-3.01394e-07
-5.54463e-06
-2.23208e-06
-7.47728e-07
-4.3578e-06
1.10955e-07
-5.16339e-06
-1.33941e-06
-1.3222e-06
-4.61086e-06
1.37994e-06
-4.84951e-06
-2.52456e-06
-1.01994e-06
-2.58533e-06
-1.16796e-06
-2.95481e-06
-2.7794e-06
-6.82343e-07
-2.63253e-06
-1.94387e-06
-1.30783e-06
-3.96361e-06
-1.20309e-06
-1.16375e-06
-4.36114e-06
-4.51931e-07
-3.98893e-06
-1.64771e-06
-1.61348e-06
-5.04794e-06
1.64257e-07
-4.53423e-06
-2.10143e-06
-2.09291e-06
-3.92613e-06
-1.66842e-06
-2.18825e-06
-4.88507e-06
-1.12184e-06
-4.56704e-07
-6.35204e-06
-8.38523e-07
-1.75964e-06
-3.59924e-06
-5.4948e-07
-4.55767e-06
-1.44124e-06
-1.60668e-06
-4.0027e-06
-1.03981e-08
-3.11381e-06
-3.60113e-06
-1.16644e-06
-1.53485e-06
-3.29095e-06
-8.12495e-07
-3.52992e-06
-2.09038e-06
-7.59352e-07
-3.17147e-06
-1.18406e-06
-4.01634e-06
-1.13878e-06
-1.20625e-06
-4.77282e-06
2.54664e-07
-4.03472e-06
-2.51572e-06
-5.46402e-07
-5.19439e-06
-4.7439e-07
-3.76377e-06
-2.13752e-06
-2.61276e-06
-3.30182e-06
-1.433e-06
-2.48364e-06
-4.97767e-06
-4.98158e-07
-8.02077e-07
-6.52273e-06
-8.57266e-08
-2.46878e-06
-3.07742e-06
-1.02467e-06
-3.88567e-06
-1.89046e-06
-1.48956e-06
-3.45308e-06
-1.70732e-06
-3.54941e-07
-4.61412e-06
-1.30653e-06
-6.57346e-07
-5.18076e-06
8.21972e-07
-3.75575e-06
-3.53583e-06
8.79762e-07
-3.76027e-06
-1.57533e-06
-3.27553e-06
-1.468e-06
-1.39562e-06
-4.63656e-06
1.75091e-07
-3.50334e-06
-3.62648e-06
2.64847e-07
-4.5997e-06
-2.03144e-06
-2.33723e-06
-2.25777e-06
-3.68068e-06
-2.14291e-06
-1.38273e-06
-3.19684e-06
-4.10932e-06
-3.34525e-07
-1.9133e-06
-5.11877e-06
-5.31751e-07
-2.79314e-06
-2.51087e-06
-1.66243e-06
-3.14017e-06
-2.67128e-06
-9.47089e-07
-3.15631e-06
-3.3398e-06
9.17927e-07
-4.87903e-06
-1.71197e-06
-4.26124e-07
-5.76116e-06
1.04474e-06
-3.42086e-06
-4.7182e-06
1.38843e-06
-3.74426e-06
-2.42942e-06
-1.95726e-06
-2.21957e-06
-1.7591e-06
-3.88827e-06
-7.01781e-07
-2.46334e-06
-4.56292e-06
4.01853e-07
-3.18782e-06
-4.37486e-06
-6.348e-07
-2.29415e-06
-5.30939e-06
-6.20788e-07
-1.84974e-06
-4.32486e-06
-2.18005e-06
-8.92293e-07
-3.6774e-06
-2.40156e-06
-1.91403e-06
-3.37212e-06
-1.50392e-06
-2.65401e-06
-2.55804e-06
-3.38989e-06
-4.49869e-07
-3.03471e-06
-4.14407e-06
6.76709e-07
-3.8861e-06
-2.33335e-06
-1.2386e-06
-4.30155e-06
-5.17167e-07
-2.61017e-06
-4.45531e-06
7.4011e-07
-3.58642e-06
-2.90604e-06
-7.07204e-07
-3.35503e-06
-1.92326e-06
-3.04605e-06
-1.64331e-06
-1.61739e-06
-4.81468e-06
-1.26384e-07
-1.58818e-06
-6.15017e-06
3.55493e-07
-1.68102e-06
-6.26639e-06
5.59354e-07
-2.50596e-06
-5.16156e-06
4.02159e-07
-2.52829e-06
-4.80265e-06
2.6336e-07
-3.22231e-06
-4.04318e-06
-5.82673e-07
-3.00698e-06
-2.79251e-06
-3.00217e-06
-1.04038e-06
-2.55515e-06
-3.74353e-06
-1.68367e-06
-1.17965e-06
-3.28089e-06
-2.99534e-06
-1.02681e-06
-2.92809e-06
-2.37582e-06
-2.70498e-06
-9.41644e-07
-3.97771e-06
-2.07742e-06
-2.64623e-07
-4.37826e-06
-1.4438e-06
-3.09606e-06
-2.11192e-06
-1.38439e-06
-4.45017e-06
-7.8057e-07
-1.21665e-06
-6.12171e-06
1.41023e-07
-1.02934e-06
-5.45776e-06
-2.68938e-06
-5.20232e-06
-4.40018e-06
-2.93174e-06
-4.31788e-06
-3.88814e-06
-2.00866e-06
-3.7847e-06
-3.06789e-06
-5.14319e-07
-4.5781e-06
-4.4654e-07
-5.94095e-07
-4.69478e-06
2.50276e-06
-2.93978e-06
-1.73401e-06
2.27925e-06
-3.83186e-06
8.22786e-07
2.61516e-07
-2.62547e-06
1.40355e-06
-1.266e-06
-1.49795e-06
5.52714e-07
-1.57063e-06
-1.65077e-06
-3.70687e-07
-2.08196e-06
-2.55403e-06
-1.38101e-06
-2.97378e-06
-3.68273e-06
-2.88808e-06
-3.19328e-06
-5.62862e-06
-2.60683e-06
-4.7698e-06
-5.46694e-06
-2.69972e-06
-5.20601e-06
-4.41433e-06
-2.94261e-06
-4.32576e-06
-3.90579e-06
-2.01948e-06
-3.79656e-06
-3.08455e-06
-5.28954e-07
-4.58696e-06
-4.70726e-07
-6.01141e-07
-4.71014e-06
2.48042e-06
-2.94241e-06
-1.75676e-06
2.26756e-06
-3.8365e-06
8.00782e-07
2.5852e-07
-2.63626e-06
1.3904e-06
-1.26556e-06
-1.50876e-06
5.47148e-07
-1.57144e-06
-1.65541e-06
-3.73475e-07
-2.07821e-06
-2.55723e-06
-1.38045e-06
-2.97007e-06
-3.6841e-06
-2.88864e-06
-3.19379e-06
-5.62882e-06
-2.61527e-06
-4.76849e-06
-5.48553e-06
-2.70731e-06
-5.21051e-06
-4.43579e-06
-2.95068e-06
-4.33639e-06
-3.93017e-06
-2.02673e-06
-3.81154e-06
-3.10804e-06
-5.37229e-07
-4.60354e-06
-4.98263e-07
-5.98806e-07
-4.74074e-06
2.46457e-06
-2.94472e-06
-1.79062e-06
2.26762e-06
-3.84784e-06
7.74875e-07
2.64039e-07
-2.65494e-06
1.38039e-06
-1.26471e-06
-1.52621e-06
5.45449e-07
-1.57019e-06
-1.66441e-06
-3.73363e-07
-2.07424e-06
-2.56489e-06
-1.37659e-06
-2.96687e-06
-3.68828e-06
-2.89029e-06
-3.19127e-06
-5.63554e-06
-2.62355e-06
-4.7648e-06
-5.51466e-06
-2.70899e-06
-5.21337e-06
-4.46484e-06
-2.95156e-06
-4.34896e-06
-3.96022e-06
-2.02685e-06
-3.82847e-06
-3.13684e-06
-5.35977e-07
-4.62593e-06
-5.27609e-07
-5.82815e-07
-4.78615e-06
2.45765e-06
-2.94036e-06
-1.83738e-06
2.28441e-06
-3.86386e-06
7.44176e-07
2.83281e-07
-2.68309e-06
1.37486e-06
-1.25445e-06
-1.55236e-06
5.49821e-07
-1.56626e-06
-1.67894e-06
-3.68695e-07
-2.06912e-06
-2.57831e-06
-1.36813e-06
-2.96286e-06
-3.69608e-06
-2.89229e-06
-3.18439e-06
-5.64812e-06
-2.63055e-06
-4.75577e-06
-5.55614e-06
-2.70238e-06
-5.214e-06
-4.50217e-06
-2.94265e-06
-4.36387e-06
-3.9963e-06
-2.01768e-06
-3.84784e-06
-3.171e-06
-5.23366e-07
-4.65509e-06
-5.58529e-07
-5.50622e-07
-4.84893e-06
2.46149e-06
-2.92861e-06
-1.90006e-06
2.32193e-06
-3.88643e-06
7.07501e-07
3.19318e-07
-2.72374e-06
1.37474e-06
-1.23645e-06
-1.59006e-06
5.61678e-07
-1.56027e-06
-1.70042e-06
-3.58874e-07
-2.06363e-06
-2.59892e-06
-1.35445e-06
-2.95876e-06
-3.70858e-06
-2.89441e-06
-3.17305e-06
-5.66713e-06
-2.63544e-06
-4.73999e-06
-5.6117e-06
-2.68469e-06
-5.21212e-06
-4.5479e-06
-2.92112e-06
-4.38149e-06
-4.03846e-06
-1.99667e-06
-3.87035e-06
-3.21022e-06
-4.96999e-07
-4.69236e-06
-5.89924e-07
-4.99866e-07
-4.93169e-06
2.47918e-06
-2.9092e-06
-1.98106e-06
2.3847e-06
-3.91814e-06
6.65032e-07
3.74648e-07
-2.78024e-06
1.38142e-06
-1.21036e-06
-1.64188e-06
5.8249e-07
-1.5533e-06
-1.72995e-06
-3.43611e-07
-2.05903e-06
-2.62801e-06
-1.3352e-06
-2.95527e-06
-3.72687e-06
-2.89676e-06
-3.15905e-06
-5.69328e-06
-2.63706e-06
-4.71643e-06
-5.68276e-06
-2.6532e-06
-5.2072e-06
-4.60173e-06
-2.88364e-06
-4.40187e-06
-4.08631e-06
-1.96063e-06
-3.89665e-06
-3.25343e-06
-4.54101e-07
-4.73901e-06
-6.20045e-07
-4.28485e-07
-5.03626e-06
2.51402e-06
-2.88193e-06
-2.08212e-06
2.47723e-06
-3.96143e-06
6.17181e-07
4.51144e-07
-2.8556e-06
1.39716e-06
-1.17584e-06
-1.7101e-06
6.1377e-07
-1.54656e-06
-1.7682e-06
-3.22786e-07
-2.05679e-06
-2.66649e-06
-1.31029e-06
-2.95304e-06
-3.75198e-06
-2.89967e-06
-3.13967e-06
-5.73323e-06
-2.63432e-06
-4.68408e-06
-5.77016e-06
-2.60578e-06
-5.19853e-06
-4.66315e-06
-2.82681e-06
-4.42483e-06
-4.13934e-06
-1.90587e-06
-3.92768e-06
-3.29883e-06
-3.91779e-07
-4.79624e-06
-6.46679e-07
-3.354e-07
-5.1632e-06
2.56891e-06
-2.84697e-06
-2.20427e-06
2.60322e-06
-4.0182e-06
5.64774e-07
5.50866e-07
-2.95262e-06
1.42411e-06
-1.13241e-06
-1.79674e-06
6.57058e-07
-1.5412e-06
-1.81527e-06
-2.96227e-07
-2.05863e-06
-2.71463e-06
-1.27972e-06
-2.95251e-06
-3.78462e-06
-2.90343e-06
-3.11565e-06
-5.78186e-06
-2.62671e-06
-4.64208e-06
-5.87345e-06
-2.54149e-06
-5.18539e-06
-4.73127e-06
-2.74809e-06
-4.44993e-06
-4.19727e-06
-1.82851e-06
-3.96481e-06
-3.3441e-06
-3.07325e-07
-4.86512e-06
-6.6713e-07
-2.21507e-07
-5.31106e-06
2.64572e-06
-2.80542e-06
-2.34725e-06
2.76428e-06
-4.08953e-06
5.09129e-07
6.74218e-07
-3.07352e-06
1.46438e-06
-1.08006e-06
-1.90362e-06
7.13282e-07
-1.53817e-06
-1.87047e-06
-2.63286e-07
-2.06628e-06
-2.77165e-06
-1.24319e-06
-2.95362e-06
-3.82468e-06
-2.90808e-06
-3.0882e-06
-5.83874e-06
-2.61393e-06
-4.59033e-06
-5.99035e-06
-2.4621e-06
-5.16702e-06
-4.80374e-06
-2.64748e-06
-4.47621e-06
-4.2604e-06
-1.7257e-06
-4.00965e-06
-3.38674e-06
-1.99019e-07
-4.94618e-06
-6.78363e-07
-9.09354e-08
-5.47528e-06
2.7445e-06
-2.75991e-06
-2.50836e-06
2.95787e-06
-4.17453e-06
4.52052e-07
8.19368e-07
-3.21885e-06
1.51947e-06
-1.01845e-06
-2.03241e-06
7.83298e-07
-1.53758e-06
-1.93261e-06
-2.22748e-07
-2.08073e-06
-2.83512e-06
-1.19969e-06
-2.95529e-06
-3.87059e-06
-2.91283e-06
-3.05846e-06
-5.90161e-06
-2.59532e-06
-4.53085e-06
-6.11312e-06
-2.38399e-06
-5.14474e-06
-4.87412e-06
-2.52991e-06
-4.50183e-06
-4.32884e-06
-1.59831e-06
-4.06342e-06
-3.42448e-06
-6.8059e-08
-5.0384e-06
-6.77739e-07
4.75592e-08
-5.64658e-06
2.86195e-06
-2.71505e-06
-2.68111e-06
3.17453e-06
-4.26971e-06
3.95151e-07
9.80974e-07
-3.38723e-06
1.58853e-06
-9.47009e-07
-2.18376e-06
8.66443e-07
-1.53847e-06
-2.00047e-06
-1.74271e-07
-2.10113e-06
-2.90063e-06
-1.14686e-06
-2.95435e-06
-3.91845e-06
-2.91553e-06
-3.02669e-06
-5.96513e-06
-2.56906e-06
-4.46817e-06
-6.22662e-06
-2.3024e-06
-5.12348e-06
-4.97848e-06
-2.40587e-06
-4.5261e-06
-4.3985e-06
-1.45474e-06
-4.12658e-06
-3.4545e-06
7.8395e-08
-5.13783e-06
-6.64884e-07
1.79362e-07
-5.80913e-06
2.98955e-06
-2.67796e-06
-2.85401e-06
3.39527e-06
-4.36762e-06
3.39103e-07
1.14809e-06
-3.57377e-06
1.6662e-06
-8.6523e-07
-2.35552e-06
9.54729e-07
-1.53704e-06
-2.07203e-06
-1.2185e-07
-2.12495e-06
-2.96475e-06
-1.08379e-06
-2.94337e-06
-3.96164e-06
-2.91273e-06
-2.99036e-06
-6.02022e-06
-2.52945e-06
-4.40918e-06
-6.30782e-06
-2.2176e-06
-5.11264e-06
-5.05089e-06
-2.29094e-06
-4.55266e-06
-4.45395e-06
-1.31468e-06
-4.19953e-06
-3.47129e-06
2.2332e-07
-5.23434e-06
-6.45318e-07
2.83487e-07
-5.94007e-06
3.11164e-06
-2.65785e-06
-3.01158e-06
3.59077e-06
-4.45589e-06
2.84466e-07
1.30152e-06
-3.76983e-06
1.74242e-06
-7.76966e-07
-2.53986e-06
1.0333e-06
-1.52788e-06
-2.14092e-06
-7.73122e-08
-2.145e-06
-3.02344e-06
-1.06622e-06
-2.90999e-06
-3.99297e-06
-2.90324e-06
-2.9437e-06
-6.05408e-06
-2.46592e-06
-4.36103e-06
-6.33542e-06
-2.11857e-06
-5.12304e-06
-5.06843e-06
-2.18722e-06
-4.59158e-06
-4.4654e-06
-1.2075e-06
-4.28536e-06
-3.46202e-06
3.33715e-07
-5.30588e-06
-6.36504e-07
3.34934e-07
-6.0116e-06
3.20178e-06
-2.66018e-06
-3.14101e-06
3.72566e-06
-4.51995e-06
2.3418e-07
1.41694e-06
-3.96986e-06
1.80931e-06
-6.94918e-07
-2.72379e-06
1.08215e-06
-1.51583e-06
-2.19162e-06
-6.63201e-08
-2.15027e-06
-3.06043e-06
-1.07781e-06
-2.839e-06
-3.99971e-06
-2.89532e-06
-2.86499e-06
-6.05221e-06
-2.36781e-06
-4.3273e-06
-6.3027e-06
-1.98797e-06
-5.15649e-06
-5.01726e-06
-2.07146e-06
-4.6732e-06
-4.42862e-06
-1.14818e-06
-4.39072e-06
-3.40038e-06
3.74329e-07
-5.3114e-06
-6.73971e-07
3.06527e-07
-5.9947e-06
3.21358e-06
-2.67209e-06
-3.24483e-06
3.7671e-06
-4.54532e-06
1.82907e-07
1.48316e-06
-4.18499e-06
1.86722e-06
-6.38385e-07
-2.90079e-06
1.09304e-06
-1.52324e-06
-2.20273e-06
-1.23205e-07
-2.13833e-06
-3.05556e-06
-1.13927e-06
-2.72106e-06
-3.96448e-06
-2.90923e-06
-2.72502e-06
-6.00147e-06
-2.24439e-06
-4.29951e-06
-6.21206e-06
-1.82338e-06
-5.196e-06
-4.90394e-06
-1.91076e-06
-4.81676e-06
-4.26773e-06
-1.13227e-06
-4.51822e-06
-3.25265e-06
2.96216e-07
-5.27727e-06
-8.18787e-07
2.02324e-07
-5.85628e-06
3.06142e-06
-2.642e-06
-3.35448e-06
3.68931e-06
-4.51399e-06
8.21049e-08
1.52385e-06
-4.45058e-06
1.92026e-06
-6.10547e-07
-3.09327e-06
1.07362e-06
-1.5826e-06
-2.16013e-06
-2.83553e-07
-2.11545e-06
-2.98803e-06
-1.29076e-06
-2.54149e-06
-3.87373e-06
-2.98771e-06
-2.50634e-06
-5.89887e-06
-2.14277e-06
-4.25101e-06
-6.0372e-06
-1.68715e-06
-5.17856e-06
-4.72743e-06
-1.71045e-06
-5.00907e-06
-3.95525e-06
-1.18958e-06
-4.65718e-06
-2.97774e-06
2.24689e-08
-4.99847e-06
-1.14915e-06
4.13703e-08
-5.52282e-06
2.6045e-06
-2.43759e-06
-3.49941e-06
3.46538e-06
-4.37054e-06
-1.84813e-07
1.5999e-06
-4.82648e-06
1.94253e-06
-5.65198e-07
-3.35233e-06
1.04607e-06
-1.7299e-06
-2.05544e-06
-5.84632e-07
-2.08146e-06
-2.83686e-06
-1.554e-06
-2.3249e-06
-3.71445e-06
-3.16685e-06
-2.39371e-06
-5.68629e-06
-2.1261e-06
-4.19297e-06
-5.75645e-06
-1.61782e-06
-5.16409e-06
-4.48608e-06
-1.52607e-06
-5.27834e-06
-3.4521e-06
-1.34188e-06
-4.80825e-06
-2.52308e-06
-5.03303e-07
-4.41011e-06
-1.67569e-06
-2.06038e-07
-4.88108e-06
1.73814e-06
-1.94117e-06
-3.96539e-06
3.05811e-06
-4.0339e-06
-7.0008e-07
1.74857e-06
-5.28497e-06
1.88835e-06
-4.79038e-07
-3.71201e-06
1.02836e-06
-1.95231e-06
-1.90772e-06
-8.95456e-07
-2.06903e-06
-2.61388e-06
-1.91031e-06
-2.06465e-06
-3.50737e-06
-3.41076e-06
-2.2822e-06
-5.36199e-06
-2.19801e-06
-3.92413e-06
-5.40687e-06
-1.60282e-06
-5.12853e-06
-4.23358e-06
-1.30096e-06
-5.5743e-06
-2.79186e-06
-1.60584e-06
-4.98907e-06
-1.89417e-06
-1.26158e-06
-3.58597e-06
-2.34863e-06
-5.19871e-07
-3.96009e-06
5.33995e-07
-1.20962e-06
-4.48281e-06
2.50494e-06
-3.50207e-06
-1.37324e-06
1.98865e-06
-5.80229e-06
1.78317e-06
-3.68352e-07
-4.14644e-06
1.03963e-06
-2.21042e-06
-1.74369e-06
-1.29995e-06
-2.05519e-06
-2.37503e-06
-2.39848e-06
-1.78772e-06
-3.25666e-06
-3.69628e-06
-2.18335e-06
-4.90185e-06
-2.37395e-06
-3.67502e-06
-5.05132e-06
-1.61874e-06
-5.04841e-06
-4.01101e-06
-1.04684e-06
-5.90984e-06
-2.09694e-06
-1.88486e-06
-5.22443e-06
-1.15799e-06
-2.13202e-06
-2.34564e-06
-3.09525e-06
-8.40278e-07
-2.90943e-06
-8.25988e-07
-3.49755e-07
-5.08243e-06
1.95999e-06
-2.89155e-06
-2.1287e-06
2.28184e-06
-6.31464e-06
1.65969e-06
-1.9918e-07
-4.62256e-06
1.07807e-06
-2.46004e-06
-1.60673e-06
-1.71456e-06
-1.98404e-06
-2.18507e-06
-2.89995e-06
-1.54472e-06
-2.98429e-06
-3.98973e-06
-2.12808e-06
-4.38109e-06
-2.65128e-06
-3.37236e-06
-4.72761e-06
-1.65852e-06
-4.88797e-06
-3.81916e-06
-8.01978e-07
-6.17015e-06
-1.44459e-06
-2.15751e-06
-5.47511e-06
-4.17955e-07
-2.94691e-06
-1.49154e-06
-3.74214e-06
-1.21352e-06
-1.85921e-06
-2.16307e-06
5.75982e-07
-5.64704e-06
1.47921e-06
-2.28013e-06
-2.90058e-06
2.53388e-06
-6.77349e-06
1.5047e-06
4.15925e-09
-5.04728e-06
1.10986e-06
-2.64206e-06
-1.5762e-06
-2.01251e-06
-1.93017e-06
-2.04711e-06
-3.28834e-06
-1.37569e-06
-2.70387e-06
-4.20174e-06
-2.15229e-06
-3.7618e-06
-3.03068e-06
-2.98171e-06
-4.39282e-06
-1.81393e-06
-4.60429e-06
-3.73067e-06
-5.6319e-07
-6.41905e-06
-7.82054e-07
-2.48777e-06
-5.59004e-06
1.98598e-07
-3.58374e-06
-8.12773e-07
-4.24011e-06
-1.60511e-06
-9.35234e-07
-3.30823e-06
1.42596e-06
-6.10389e-06
9.26806e-07
-1.66582e-06
-3.50968e-06
2.77089e-06
-7.12653e-06
1.29915e-06
1.40519e-07
-5.33608e-06
1.04059e-06
-2.66853e-06
-1.72243e-06
-2.13654e-06
-1.91333e-06
-1.97649e-06
-3.50817e-06
-1.32461e-06
-2.41412e-06
-4.29351e-06
-2.2886e-06
-2.99853e-06
-3.48617e-06
-2.56052e-06
-3.93939e-06
-2.19118e-06
-4.11167e-06
-3.82287e-06
-3.7018e-07
-6.61123e-06
-4.30235e-08
-2.85696e-06
-5.53864e-06
6.6599e-07
-4.01821e-06
-2.5397e-07
-4.71132e-06
-1.77172e-06
-3.45084e-07
-4.15522e-06
2.00301e-06
-6.3273e-06
2.86114e-07
-1.1042e-06
-3.97949e-06
2.86949e-06
-7.27517e-06
9.89311e-07
1.79465e-07
-5.41266e-06
8.00278e-07
-2.5144e-06
-2.08744e-06
-2.07116e-06
-1.90288e-06
-2.08985e-06
-3.40735e-06
-1.4323e-06
-2.0528e-06
-4.30981e-06
-2.47071e-06
-2.29954e-06
-3.90072e-06
-2.26209e-06
-3.35028e-06
-2.78806e-06
-3.40642e-06
-3.81776e-06
-4.54192e-07
-6.35032e-06
2.60481e-07
-3.18568e-06
-5.4887e-06
9.90094e-07
-4.97491e-06
3.15068e-07
-5.11274e-06
-1.75033e-06
-1.67052e-07
-4.6193e-06
2.20316e-06
-6.29576e-06
-3.95238e-07
-6.82121e-07
-4.21088e-06
2.60206e-06
-7.00782e-06
5.11498e-07
9.3118e-08
-5.20626e-06
3.58413e-07
-2.29032e-06
-2.56355e-06
-1.91284e-06
-1.73942e-06
-2.56131e-06
-2.7278e-06
-1.96268e-06
-1.53156e-06
-4.35276e-06
-2.6716e-06
-1.72333e-06
-4.24662e-06
-2.15321e-06
-2.91024e-06
-3.1987e-06
-2.9893e-06
-3.44415e-06
-1.16574e-06
-5.44283e-06
2.02794e-07
-3.55705e-06
-5.25024e-06
1.03439e-06
-5.11669e-06
5.12583e-07
-5.30339e-06
-1.6278e-06
-3.56383e-07
-4.63014e-06
2.0012e-06
-5.98102e-06
-1.06331e-06
-5.18639e-07
-4.01376e-06
1.79257e-06
-6.1447e-06
-3.23691e-07
-1.66881e-08
-4.79111e-06
-1.38818e-07
-2.04661e-06
-3.04336e-06
-1.73861e-06
-1.39935e-06
-3.36276e-06
-1.77747e-06
-2.85217e-06
-1.03946e-06
-4.17902e-06
-3.06677e-06
-1.08624e-06
-4.62187e-06
-1.93273e-06
-2.73858e-06
-3.42226e-06
-2.72399e-06
-2.88522e-06
-2.25701e-06
-4.21121e-06
5.22107e-08
-4.143e-06
-4.41493e-06
6.09442e-07
-4.96462e-06
2.94631e-07
-5.17741e-06
-1.51496e-06
-9.46388e-07
-4.27059e-06
1.47065e-06
-5.38507e-06
-1.63755e-06
-7.73141e-07
-3.21927e-06
2.60724e-07