/*--------------------------------*- C++ -*----------------------------------*\
  =========                 |
  \\      /  F ield         | OpenFOAM: The Open Source CFD Toolbox
   \\    /   O peration     | Website:  https://openfoam.org
    \\  /    A nd           | Version:  10
     \\/     M anipulation  |
\*---------------------------------------------------------------------------*/
FoamFile
{
    format      ascii;
    class       surfaceScalarField;
    location    "15";
    object      phi_0;
}
// * * * * * * * * * * * * * * * * * * * * * * * * * * * * * * * * * * * * * //

dimensions      [0 3 -1 0 0 0 0];

internalField   nonuniform List<scalar> 
74080
(
1.63131e-05
-3.70892e-06
3.47884e-06
1.3017e-05
-1.58118e-06
3.98804e-06
1.12777e-05
-3.66918e-06
7.76298e-06
1.10737e-05
-6.47199e-06
6.86713e-06
1.14406e-05
-3.73082e-06
2.54796e-06
1.04463e-05
4.52801e-06
-2.16398e-06
9.71455e-06
2.56852e-06
-2.90221e-06
1.15686e-05
-4.54469e-07
1.70889e-09
1.13796e-05
5.02938e-06
2.45569e-06
1.0189e-05
3.21849e-06
-7.63395e-07
1.28835e-05
-5.30584e-06
-5.69565e-06
1.30386e-05
3.64775e-06
-1.21814e-05
1.2018e-05
7.89224e-06
-1.02721e-05
1.41467e-05
1.1369e-06
-3.16034e-06
1.45714e-05
2.52036e-06
-4.29497e-07
1.38063e-05
2.07412e-06
-2.52353e-07
1.51183e-05
-1.63918e-06
-2.32907e-07
1.43507e-05
1.35829e-06
2.23104e-06
1.57541e-05
-2.73688e-06
4.62359e-06
1.89548e-05
-5.3692e-06
1.59204e-06
1.8932e-05
-1.82381e-06
-1.62308e-06
1.91443e-05
1.69328e-07
-4.15517e-06
2.13968e-05
3.90495e-07
-2.96067e-06
2.06534e-05
-1.12958e-08
4.75845e-06
1.79463e-05
-6.88143e-06
1.01977e-05
1.74602e-05
-6.99235e-06
7.59041e-06
1.95611e-05
-6.70374e-06
5.47141e-06
1.90316e-05
-6.28398e-06
2.4337e-06
1.4424e-05
-3.61847e-06
3.76971e-07
1.32908e-05
-1.64071e-06
3.63749e-06
1.37319e-05
4.12014e-06
2.49884e-06
1.49295e-05
-3.3795e-06
-3.72084e-06
1.63873e-05
-8.77368e-06
-3.81699e-06
1.5782e-05
-9.46797e-07
-5.07379e-07
1.67146e-05
5.63234e-06
-1.72556e-06
2.10133e-05
2.94762e-06
-1.97721e-06
2.44997e-05
-2.15658e-06
-3.60832e-06
2.18852e-05
-9.97225e-07
-4.14185e-06
1.8454e-05
-6.65494e-06
5.75182e-06
-9.97339e-06
9.23505e-06
5.47951e-05
-5.64261e-06
8.03795e-06
4.70826e-05
-1.62129e-06
9.87087e-06
4.15157e-05
-8.28909e-06
1.69398e-05
3.71287e-05
-1.67328e-05
1.43731e-05
3.48922e-05
-6.52374e-06
5.09115e-06
3.28471e-05
1.73515e-05
-7.18959e-06
3.21405e-05
1.02586e-05
-7.93532e-06
3.68358e-05
4.87397e-07
2.41742e-06
3.77104e-05
1.34889e-05
5.94279e-06
3.78417e-05
3.89245e-06
-2.48349e-06
4.36455e-05
-1.75315e-05
-1.43486e-05
4.23305e-05
1.42675e-05
-3.07984e-05
4.13719e-05
2.73299e-05
-2.64896e-05
4.70239e-05
6.48386e-06
-8.78802e-06
4.81564e-05
8.84094e-06
-2.18848e-06
4.73247e-05
4.74082e-06
2.48419e-08
4.97977e-05
-4.68306e-06
1.12621e-06
4.94732e-05
4.33187e-06
2.72341e-06
5.38636e-05
-8.20563e-06
9.0609e-06
5.98995e-05
-1.2981e-05
4.70736e-06
5.93114e-05
-1.77331e-06
-7.11505e-06
6.02176e-05
2.51313e-06
-1.593e-05
6.84573e-05
-1.64391e-06
-1.00702e-05
7.18148e-05
-1.0756e-05
1.33897e-05
6.53591e-05
-2.34788e-05
2.33095e-05
6.17433e-05
-1.93482e-05
1.69713e-05
6.44412e-05
-1.98229e-05
1.46622e-05
6.33514e-05
-1.85105e-05
7.47909e-06
5.19304e-05
-1.08584e-05
3.76628e-06
4.40749e-05
9.54418e-07
6.94924e-06
4.54882e-05
1.4244e-05
2.22182e-06
5.11176e-05
-1.15201e-05
-9.76453e-06
5.22874e-05
-2.24217e-05
-1.03548e-05
4.80005e-05
2.11437e-06
-3.95497e-06
5.11127e-05
1.89544e-05
-6.17453e-06
6.86038e-05
5.79595e-07
-4.07129e-06
8.4738e-05
-1.806e-05
-6.95974e-06
8.13795e-05
-9.45369e-06
-7.69282e-06
7.03479e-05
-1.83176e-05
1.15945e-05
-2.27682e-05
1.87676e-05
0.000107535
1.13367e-06
9.44143e-06
9.59554e-05
4.17787e-06
1.13605e-05
8.52733e-05
-6.26267e-06
2.21506e-05
7.10411e-05
-2.06826e-05
1.93269e-05
6.20884e-05
-6.37206e-06
9.42367e-06
5.98939e-05
3.44547e-05
-9.10746e-06
5.82324e-05
2.40925e-05
-1.35148e-05
6.51102e-05
4.94716e-06
3.94228e-06
6.96256e-05
2.43227e-05
9.92239e-06
7.15071e-05
1.47455e-06
9.74079e-07
8.1652e-05
-4.30873e-05
-1.08247e-05
8.05287e-05
2.02292e-05
-4.02634e-05
7.68124e-05
5.90014e-05
-4.46764e-05
8.42233e-05
2.34664e-05
-2.03839e-05
8.96525e-05
2.03127e-05
-9.5154e-06
9.02739e-05
1.02783e-05
-5.18497e-06
9.29918e-05
-8.76414e-06
3.3431e-06
9.30774e-05
7.47518e-06
1.44078e-06
9.73627e-05
-1.2783e-05
8.06831e-06
0.000103892
-1.84393e-05
1.11793e-05
0.000103382
5.17147e-06
-9.82602e-06
0.00010221
1.27287e-05
-3.14276e-05
0.000116103
1.77877e-07
-3.11073e-05
0.000132264
-3.55757e-05
1.07926e-05
0.000128352
-5.28051e-05
3.11215e-05
0.000118912
-3.28683e-05
2.26934e-05
0.00011578
-3.06594e-05
2.19644e-05
0.000116299
-3.19183e-05
1.37173e-05
0.000103414
-2.23083e-05
9.21861e-06
8.4337e-05
1.03451e-05
8.97025e-06
8.11718e-05
3.42989e-05
1.60273e-06
9.04036e-05
-1.92319e-05
-1.01102e-05
9.34606e-05
-4.07595e-05
-1.23877e-05
8.59614e-05
5.47296e-06
-7.40954e-06
8.68253e-05
3.98688e-05
-1.33618e-05
0.000114766
-1.94173e-06
-1.22451e-05
0.000153731
-5.2009e-05
-1.42217e-05
0.000164975
-3.61605e-05
-1.49554e-05
0.000148735
-3.48146e-05
1.08656e-05
-2.86906e-05
2.35656e-05
0.000177629
2.19759e-05
9.69078e-06
0.000160824
1.88442e-05
6.39337e-06
0.000146674
5.96638e-06
2.31247e-05
0.000117943
-7.61157e-06
2.20438e-05
9.48589e-05
3.29587e-06
1.40197e-05
9.17317e-05
5.29389e-05
-6.74378e-06
8.77916e-05
4.23039e-05
-1.8628e-05
9.47456e-05
1.35789e-05
4.27822e-06
0.000105466
3.87636e-05
1.44732e-05
0.000106571
5.526e-06
3.75729e-06
0.000121286
-8.09368e-05
3.00303e-06
0.000128017
2.66799e-07
-3.08847e-05
0.000120196
8.94784e-05
-5.73777e-05
0.000123275
5.46636e-05
-3.48956e-05
0.000135839
4.06091e-05
-2.20763e-05
0.000141972
2.51553e-05
-2.5159e-05
0.000145482
-8.71823e-06
-1.49606e-06
0.000147773
6.89769e-06
4.41227e-06
0.0001486
-1.60478e-05
1.4444e-06
0.00014969
-2.0602e-05
1.85758e-05
0.000149808
1.93952e-05
-2.30388e-06
0.000143529
3.54814e-05
-4.12354e-05
0.000151204
2.22479e-05
-6.30893e-05
0.00017943
-5.77919e-05
-1.42362e-05
0.00019294
-9.8365e-05
2.23188e-05
0.00018837
-5.78743e-05
1.97388e-05
0.000173186
-3.29408e-05
2.37575e-05
0.000168706
-3.47289e-05
1.32299e-05
0.000163047
-3.71921e-05
1.50933e-05
0.00013789
2.08117e-05
1.38852e-05
0.000122841
6.55377e-05
2.63554e-06
0.00012772
-1.81395e-05
-4.25917e-06
0.000133987
-6.31417e-05
-3.92643e-06
0.000130381
-3.31864e-06
-8.65549e-07
0.000129674
5.79936e-05
-1.50573e-05
0.000152005
1.27342e-05
-2.57479e-05
0.00020528
-8.57571e-05
-3.39705e-05
0.000252815
-9.48554e-05
-3.80508e-05
0.00025369
-7.58061e-05
-2.60744e-06
-3.02937e-05
2.59109e-05
0.000268081
5.15188e-05
1.41096e-05
0.000238344
3.87779e-05
-2.44047e-06
0.000225704
1.98913e-05
1.68718e-05
0.000184491
2.31091e-05
2.20675e-05
0.000138094
3.26002e-05
1.74666e-05
0.000129366
7.55805e-05
-3.11987e-06
0.000122385
6.11653e-05
-2.3845e-05
0.000125012
2.28001e-05
3.86475e-06
0.000146537
4.86041e-05
2.37735e-05
0.000146774
2.84778e-05
-5.21448e-06
0.000156719
-0.000104687
6.23338e-06
0.000177522
-4.90687e-05
-6.99952e-06
0.000174437
9.19099e-05
-5.61031e-05
0.000165742
8.86494e-05
-4.49551e-05
0.000180727
6.82085e-05
-2.7364e-05
0.000194875
5.08438e-05
-5.08903e-05
0.000199806
1.20715e-05
-3.11084e-05
0.000211374
3.39854e-06
8.67449e-06
0.000214082
-2.657e-05
1.05076e-06
0.000201736
-1.92939e-05
1.84777e-05
0.000198425
3.46026e-05
1.63109e-05
0.00019213
6.10153e-05
-3.1736e-05
0.000183776
6.68583e-05
-8.05363e-05
0.000203874
-4.34112e-05
-5.26671e-05
0.000232919
-0.000132496
-1.75086e-05
0.00025305
-9.93427e-05
-9.02068e-06
0.00023914
-4.01445e-05
1.69968e-05
0.00021748
-8.98293e-06
-2.00267e-06
0.000216234
-4.29105e-05
1.17162e-05
0.000201045
2.42229e-05
2.14911e-05
0.000179075
9.60103e-05
6.39021e-06
0.000169189
-3.67489e-06
-1.06864e-06
0.000166811
-7.04251e-05
8.69419e-06
0.000169825
-2.70382e-05
2.05152e-05
0.0001825
4.6477e-05
2.69835e-06
0.00019864
3.47368e-05
-2.15585e-05
0.000232118
-8.18092e-05
-3.87888e-05
0.000298232
-0.000161917
-6.5449e-05
0.000350348
-0.00017404
-3.28993e-05
-6.17269e-05
2.03078e-05
0.000374768
5.6757e-05
2.39242e-05
0.000323242
5.27585e-05
7.99278e-07
0.000314971
1.30943e-05
4.89779e-06
0.000275277
4.94479e-05
1.68369e-05
0.000200786
8.28415e-05
2.33841e-05
0.000177757
0.000103416
5.73595e-06
0.00016782
7.32018e-05
-2.96633e-05
0.000158084
2.99375e-05
-5.14249e-06
0.000191437
3.63647e-05
4.30707e-05
0.000206734
4.44155e-05
-4.64537e-06
0.000199939
-8.73305e-05
-1.43839e-05
0.000219915
-8.72852e-05
8.26842e-06
0.000235737
6.35232e-05
-4.35252e-05
0.000216798
0.000105411
-5.23543e-05
0.00022242
9.26279e-05
-2.17535e-05
0.000239793
7.77002e-05
-5.07686e-05
0.000239736
5.78185e-05
-6.45991e-05
0.000261993
7.38684e-06
5.11384e-06
0.000284703
-5.7217e-05
2.27569e-05
0.000266386
-2.20799e-05
1.754e-05
0.000250491
4.82728e-05
3.15522e-05
0.000245761
7.10715e-05
4.89676e-07
0.000234615
0.000103314
-6.62544e-05
0.000245533
-3.60733e-06
-6.72915e-05
0.000262024
-0.00011722
-5.48024e-05
0.000293743
-0.000123087
-6.55604e-05
0.000303611
-6.86337e-05
-6.9267e-06
0.000270826
2.84929e-05
-1.69924e-05
0.000259456
-2.09647e-05
-1.00525e-05
0.000262461
2.01618e-05
3.05051e-05
0.000254474
0.000104383
1.55614e-05
0.000233188
1.24065e-05
-7.81403e-06
0.000208073
-4.15778e-05
2.46939e-06
0.000198064
-2.41246e-05
3.31032e-05
0.000220944
1.36291e-05
2.02902e-05
0.00025277
2.71718e-05
-3.75928e-06
0.000276263
-5.62352e-05
-9.97323e-06
0.00030886
-0.000177025
-5.03398e-05
0.000383257
-0.000287352
-5.70208e-05
-0.00016696
3.50201e-06
0.000473025
-7.95702e-07
3.07823e-05
0.000395045
6.81548e-05
2.59901e-05
0.000381836
-2.44758e-05
1.00068e-05
0.000376259
1.95255e-05
6.91976e-06
0.000291915
0.000122288
2.9458e-05
0.000243296
0.000131603
2.94973e-05
0.000229974
6.47146e-05
-2.0635e-05
0.000202213
3.42302e-05
-2.94778e-05
0.000226448
1.37154e-05
5.26598e-05
0.00026842
1.47777e-05
3.13144e-05
0.000258556
-6.87957e-05
-1.84867e-05
0.000256058
-8.85293e-05
1.21464e-05
0.00029163
2.84267e-05
-1.99649e-05
0.000277573
0.000106514
-5.60241e-05
0.000263519
0.000118457
-2.54736e-05
0.000278966
9.16617e-05
-2.15602e-05
0.000272601
0.000110912
-6.57397e-05
0.00029168
3.62467e-05
-8.96492e-06
0.000337209
-0.000106337
5.34255e-05
0.000333508
-4.62993e-05
3.40175e-05
0.000315405
5.37964e-05
3.60054e-05
0.00030772
5.82301e-05
3.90666e-05
0.000295101
0.000108906
-2.55841e-05
0.000317056
1.00634e-05
-5.28635e-05
0.000321515
-7.44286e-05
-4.47989e-05
0.000331591
-9.35686e-05
-0.000104349
0.000355909
-9.65618e-05
-4.62574e-05
0.000333235
4.9102e-05
-2.78428e-05
0.000305144
2.76063e-05
-4.17013e-05
0.000313965
2.40529e-05
2.75876e-05
0.000343014
7.67701e-05
3.14695e-05
0.000327074
7.36771e-06
-1.64932e-05
0.000279631
1.11326e-06
-1.7892e-05
0.000243464
2.07381e-05
3.3284e-05
0.000250928
8.96719e-07
2.69487e-05
0.000282404
3.30953e-06
2.22399e-06
0.000323244
-5.13458e-05
1.12196e-05
0.000349382
-0.000164554
-1.07107e-05
0.000385856
-0.000341524
-4.85487e-05
-0.000303622
-1.01887e-05
0.00054524
-0.000109768
3.19377e-05
0.000457365
8.38093e-05
4.33385e-05
0.000411965
-3.55025e-05
2.49033e-05
0.000441848
-7.32932e-05
2.17486e-06
0.000392073
9.63055e-05
2.49931e-05
0.000329319
0.000142783
5.23714e-05
0.000310063
4.75961e-05
-8.6233e-07
0.000273887
3.08743e-05
-4.74351e-05
0.000260063
1.81011e-06
4.44774e-05
0.00029519
-2.43282e-05
6.75939e-05
0.000304047
-7.99272e-05
2.886e-07
0.000287136
-8.39768e-05
2.13516e-05
0.000331245
1.52073e-06
1.30969e-05
0.00034165
8.98882e-05
-4.12107e-05
0.000318997
0.000150358
-4.83642e-05
0.00033348
9.40328e-05
-1.37947e-05
0.00033457
0.000128984
-3.8999e-05
0.000346059
8.5541e-05
-3.40468e-05
0.000389478
-0.000123995
3.60788e-05
0.000387563
-6.94902e-05
5.05522e-05
0.000381231
4.87209e-05
3.22581e-05
0.000401216
9.08512e-06
5.36671e-05
0.000392123
7.87065e-05
2.57367e-05
0.000410405
-1.46305e-05
-2.24771e-05
0.00041376
-5.92366e-05
-4.81708e-06
0.000398481
-3.61126e-05
-8.27638e-05
0.000407576
-7.99028e-05
-9.21403e-05
0.000399712
5.25842e-05
-3.77803e-05
0.000367959
7.04988e-05
-6.01901e-05
0.00035375
6.54446e-05
-3.22741e-06
0.000414971
3.77191e-05
3.60097e-05
0.000439167
-4.05069e-05
-1.68872e-05
0.000382179
2.60691e-05
-4.64515e-05
0.000317642
8.15703e-05
2.2359e-05
0.000304334
2.07277e-05
3.88956e-05
0.000328094
-9.75598e-06
2.02501e-05
0.000354423
-3.85341e-05
3.10145e-05
0.000404501
-0.000165879
2.0589e-05
0.000425167
-0.000359552
-2.75771e-05
-0.000390868
-1.92367e-05
0.000584243
-0.000203882
2.20655e-05
0.000532404
6.70876e-05
2.55451e-05
0.000464643
2.40802e-05
5.91524e-06
0.000481068
-0.000122585
-7.47572e-06
0.000474291
1.6005e-05
6.36299e-06
0.000435191
0.00010276
6.14835e-05
0.000420016
3.60655e-05
2.10389e-05
0.000394989
2.92361e-05
-5.44858e-05
0.00035045
-1.14538e-05
2.86055e-05
0.000334667
-2.24002e-05
6.99399e-05
0.000336119
-7.33587e-05
1.03012e-05
0.000316014
-8.73447e-05
3.12066e-05
0.000360302
-2.60243e-05
3.47939e-05
0.000393709
6.4108e-05
-1.21192e-05
0.000377354
0.000176959
-5.34178e-05
0.000395085
0.000111721
-5.68299e-05
0.000413207
0.000107348
-4.00493e-05
0.000426908
0.000102398
-4.67423e-05
0.000461098
-0.000100249
-2.57673e-05
0.000455296
-6.45618e-05
3.40361e-05
0.000421055
8.11933e-05
3.4499e-05
0.000462054
-4.35873e-05
2.93251e-05
0.000512684
-1.92268e-05
5.80492e-05
0.000543918
-8.5838e-05
1.78971e-05
0.000535358
-8.96119e-05
3.32214e-05
0.000495683
-1.67867e-05
1.79498e-05
0.000479018
-5.21924e-05
-6.73756e-05
0.000457035
7.49021e-05
-4.42508e-05
0.000438424
8.4707e-05
-5.80313e-05
0.000407335
0.000114029
-3.80349e-05
0.000450305
3.44454e-05
3.19684e-05
0.000515638
-0.000123372
8.41545e-06
0.000502116
-1.23997e-05
-5.06817e-05
0.000430084
0.000126696
-1.02641e-05
0.000384019
7.33858e-05
3.48116e-05
0.000412419
-1.69471e-05
3.84658e-05
0.000421403
-8.94667e-06
5.06551e-05
0.000455312
-0.000134454
3.78668e-05
0.000490448
-0.000369304
-1.06739e-05
-0.000412127
-2.41337e-05
0.000619597
-0.000235028
1.49741e-05
0.000603107
2.93446e-05
1.00494e-05
0.000548551
9.74622e-05
-8.10051e-06
0.000538428
-7.40435e-05
-1.96411e-05
0.000531356
-2.96062e-05
-2.32979e-05
0.000520852
3.1609e-05
3.96197e-05
0.000527983
1.1231e-06
4.62814e-05
0.000541535
1.9859e-05
-3.66987e-05
0.000521145
-4.02484e-05
7.7789e-06
0.000467464
-7.20616e-06
5.43082e-05
0.000425883
-1.69745e-05
1.18748e-05
0.000374064
-5.15354e-05
3.94503e-05
0.000387607
-4.7345e-05
3.74387e-05
0.000428134
2.48378e-05
1.41259e-05
0.000425898
0.000193959
-2.12611e-05
0.000447471
0.000153298
-7.08165e-05
0.000475529
9.37206e-05
-6.49585e-05
0.000483613
7.56661e-05
-4.55335e-05
0.000504376
-8.66341e-05
-6.2002e-05
0.000538423
-8.43966e-05
-1.03347e-05
0.000506255
0.000120017
3.90864e-05
0.000502844
-1.28402e-05
6.65532e-06
0.000571486
-0.000114587
4.88191e-05
0.000628793
-0.000199508
5.76782e-05
0.000625842
-0.000155177
4.33887e-05
0.000583621
-2.63131e-05
5.93573e-05
0.000562895
-5.1148e-05
-1.32608e-05
0.000513451
0.00011161
-3.26766e-05
0.000487201
0.000117029
-6.07389e-05
0.000480172
0.000120142
-5.94478e-05
0.00050583
3.82152e-05
3.05507e-05
0.000544242
-0.000153077
2.99864e-05
0.000575644
-7.58063e-05
-3.47147e-05
0.000567722
8.93929e-05
-2.59039e-05
0.000503319
0.000130283
2.10689e-05
0.000499583
2.58732e-05
3.50047e-05
0.000508502
1.60465e-05
3.80494e-05
0.000516887
-6.299e-05
2.71027e-05
0.000551617
-0.000328756
-1.55415e-05
-0.000378456
-2.3038e-05
0.000678957
-0.000194502
8.51391e-06
0.000674872
-8.28486e-06
2.36782e-05
0.000629157
9.5641e-05
5.20581e-05
0.000614
-2.59758e-05
3.72374e-05
0.00060211
-2.00064e-05
-2.98656e-05
0.000590236
6.41941e-06
-1.63846e-05
0.000601323
-3.79253e-05
5.12536e-05
0.000641225
-1.42872e-05
3.14874e-06
0.000667393
-8.39122e-05
9.50146e-06
0.000634106
-3.51131e-05
5.7041e-05
0.000577957
2.79736e-05
1.00295e-05
0.000481941
2.98268e-05
4.11041e-05
0.000439447
-2.80089e-05
4.95906e-05
0.000463128
-2.31845e-05
3.3997e-05
0.00047006
0.000190892
1.05447e-05
0.000507013
0.000178109
-5.50538e-05
0.000541358
7.71748e-05
-7.0096e-05
0.000536577
4.72865e-05
-3.94246e-05
0.000534191
-7.89455e-05
-6.30061e-05
0.000587204
-0.000128599
-4.60345e-05
0.00061072
8.26495e-05
2.872e-05
0.000600265
5.82976e-05
-3.26083e-06
0.000634776
-0.000127821
1.0291e-05
0.000667203
-0.000269376
4.73784e-05
0.00065112
-0.000180672
2.70988e-05
0.000617902
-1.87463e-05
3.84011e-05
0.000613398
-6.39047e-05
7.77739e-06
0.00056932
0.000124632
-1.22339e-05
0.000543093
0.000170158
-7.3376e-05
0.000561778
0.000115919
-8.96249e-05
0.000598154
1.30167e-05
3.4407e-05
0.000604704
-0.0001303
6.41768e-05
0.000621563
-5.28854e-05
-1.6847e-05
0.0006755
1.43641e-05
-2.48291e-05
0.000651574
0.00011
6.40468e-06
0.000612371
8.67464e-05
2.71514e-05
0.00059769
5.80714e-05
2.84861e-05
0.000592696
-2.9268e-06
1.88828e-05
0.000622105
-0.000267548
-2.11359e-05
-0.000312824
-3.11339e-05
0.000754525
-0.000154901
-5.73372e-07
0.000757906
-2.94563e-05
2.39751e-05
0.000709149
5.91189e-05
5.72747e-05
0.000688073
-2.70113e-05
8.53817e-05
0.000683272
-2.17756e-05
8.46528e-06
0.00066875
1.43349e-05
-4.55452e-05
0.000677463
-4.02364e-05
1.55602e-05
0.00071771
-3.86146e-05
1.65937e-06
0.000753933
-0.000114278
4.18041e-06
0.000745712
-8.6323e-05
7.29074e-05
0.000714969
2.80769e-05
1.68532e-05
0.000625508
0.000104477
1.45013e-05
0.000546649
2.15842e-05
5.5674e-05
0.000531087
-4.52475e-05
5.39077e-05
0.000534539
0.000166515
2.55545e-05
0.000583538
0.000158674
-2.95422e-05
0.000620357
3.00119e-05
-5.78198e-05
0.000620405
4.29417e-07
-3.19133e-05
0.000615129
-8.43711e-05
-3.92507e-05
0.000647439
-0.000139982
-6.83542e-05
0.000678835
2.11258e-05
1.01052e-05
0.000678639
0.000100778
5.70139e-06
0.000703236
-8.6191e-05
-3.20634e-05
0.000728944
-0.000300115
4.12899e-06
0.000708838
-0.000168396
1.77297e-05
0.000672296
1.0461e-05
1.21007e-05
0.000671521
-6.75763e-05
1.15502e-06
0.000639096
0.000125943
3.16924e-05
0.00061624
0.000207304
-4.22303e-05
0.000638457
0.000121004
-0.000118092
0.000678439
-1.83124e-05
8.25431e-06
0.0006955
-0.000125664
8.42602e-05
0.000696392
-1.15688e-06
4.88599e-06
0.000741128
-1.56834e-06
-1.3587e-05
0.000753461
4.73652e-05
3.69014e-06
0.000725213
7.13884e-05
8.70636e-06
0.000703573
8.14968e-05
2.09812e-05
0.000694791
4.4947e-05
2.15233e-05
0.000710679
-0.000227102
-1.44193e-05
-0.000284191
-4.87365e-05
0.000820528
-0.00012728
-1.24742e-05
0.000828606
-3.84455e-05
2.38806e-05
0.00079852
2.71546e-05
3.0064e-05
0.000778636
-3.2461e-05
6.0942e-05
0.000774641
-3.93015e-05
3.98473e-05
0.000757727
1.73821e-05
-3.4319e-05
0.00076313
-1.95919e-05
-1.4711e-05
0.000802402
-3.91256e-05
-1.28916e-05
0.000837676
-0.000114621
-2.41001e-05
0.00082943
-0.000129684
5.88131e-05
0.000808121
1.13671e-05
4.3729e-05
0.000761076
0.000147477
4.15666e-06
0.000701466
5.17927e-05
3.2938e-05
0.000661516
-3.93193e-05
5.01389e-05
0.000653293
0.000132139
4.51757e-05
0.000701701
0.000108482
1.7353e-05
0.000734577
-2.04278e-05
-3.10552e-05
0.000731524
-4.28599e-05
-2.3941e-05
0.000719558
-9.366e-05
-1.13853e-05
0.000726969
-0.000119386
-7.89285e-05
0.000749413
-1.26315e-05
-3.23585e-05
0.000755328
0.000100144
3.00869e-05
0.000765448
-1.58613e-05
-2.98022e-05
0.000788001
-0.000278462
-2.4137e-05
0.000787102
-0.000197543
5.719e-05
0.000754011
-4.68567e-06
2.73379e-05
0.00074375
-6.15895e-05
-3.0266e-05
0.000718177
0.000106757
5.06972e-05
0.00069937
0.00019686
2.96531e-05
0.000724187
0.000114993
-8.85719e-05
0.000754812
-4.2993e-05
-2.30739e-05
0.000774187
-0.00013969
6.09207e-05
0.000780453
5.01846e-06
1.42678e-05
0.000798838
6.25359e-06
2.08374e-06
0.000809008
8.56551e-06
4.17108e-06
0.000805775
9.90528e-06
-3.38673e-06
0.000800113
4.42442e-05
1.22761e-05
0.000793083
6.38435e-05
1.47934e-05
0.000802441
-0.000191373
-1.79337e-06
-0.000268722
-4.25794e-05
0.000887321
-9.57567e-05
-2.52904e-05
0.000886155
-2.79597e-05
1.26402e-05
0.000885536
-2.35216e-06
1.58755e-05
0.000882543
-4.10778e-05
3.5252e-05
0.000879061
-5.2802e-05
4.12637e-05
0.000863578
8.21021e-06
-1.69632e-05
0.000857726
2.83318e-06
-2.29558e-05
0.000882905
-2.27776e-05
-9.94686e-06
0.000930219
-0.000103291
-2.05681e-05
0.000940414
-0.000173174
3.58674e-05
0.000912678
-2.20478e-05
5.79764e-05
0.000873164
0.000166288
3.23885e-05
0.00083093
7.94572e-05
2.22911e-05
0.000797736
-3.24096e-05
2.74034e-05
0.000790342
7.65201e-05
6.13633e-05
0.000826329
5.13717e-05
6.13893e-05
0.000848542
-5.34474e-05
1.64282e-07
0.000838303
-6.26623e-05
-1.34575e-05
0.000823606
-9.12988e-05
-4.26099e-06
0.000817352
-9.29658e-05
-6.49396e-05
0.000826807
-3.72652e-06
-5.27647e-05
0.000843645
9.23658e-05
2.23966e-05
0.000857005
3.71266e-05
-3.09025e-06
0.0008663
-0.000195978
-2.9474e-05
0.000871402
-0.000209509
6.94769e-05
0.000849073
-4.95622e-05
5.82645e-05
0.000829949
-5.29937e-05
-3.40905e-05
0.000808566
8.28948e-05
2.52783e-05
0.000796021
0.000152157
6.0148e-05
0.000821678
0.000107318
-4.61731e-05
0.000847689
-4.35645e-05
-4.22813e-05
0.000863017
-0.00014731
3.20588e-05
0.000872705
-2.20647e-06
6.41019e-06
0.000875832
1.10692e-05
8.03398e-06
0.000872726
-1.06655e-05
1.21843e-05
0.000882521
-3.75707e-05
-1.06852e-05
0.000898221
-1.73289e-05
5.61431e-06
0.000895021
4.93134e-05
1.20039e-05
0.000891798
-0.000148163
-8.57145e-10
-0.000239254
-3.29618e-05
0.000975109
-7.07177e-05
-2.70888e-05
0.000977454
-2.11807e-05
-7.00681e-07
0.000987835
-3.28506e-05
1.00195e-05
0.000990665
-5.51461e-05
2.62197e-05
0.000982775
-5.59311e-05
3.31816e-05
0.000968153
-2.12641e-06
-1.41707e-05
0.000964062
9.27283e-06
-2.75731e-05
0.000980558
-1.03356e-05
-1.16785e-05
0.00101521
-7.32454e-05
-5.40481e-06
0.00103069
-0.000180506
2.58247e-05
0.00101677
-6.13443e-05
4.1488e-05
0.000978907
0.000166138
4.27872e-05
0.000934007
0.000114322
2.53005e-05
0.000907335
-1.21262e-05
9.13611e-06
0.000900748
2.79577e-05
5.02701e-05
0.000922855
-6.14892e-06
7.0762e-05
0.000941455
-6.6486e-05
1.35632e-05
0.00093406
-6.78076e-05
-7.77581e-06
0.000922584
-8.77052e-05
-8.43074e-06
0.000913991
-6.61386e-05
-5.02914e-05
0.000913055
2.52427e-05
-3.97242e-05
0.000932171
0.000104303
9.15715e-06
0.000957026
6.10437e-05
-3.59054e-06
0.000967316
-0.000127949
-2.37711e-05
0.000971007
-0.000189285
6.34052e-05
0.00095172
-7.83175e-05
7.12967e-05
0.000927535
-4.15722e-05
-1.24541e-05
0.000912365
6.89182e-05
3.81254e-06
0.000909875
9.50964e-05
4.28415e-05
0.000929565
9.8599e-05
-2.42031e-05
0.00094718
-1.61439e-05
-4.36124e-05
0.000960725
-0.000144226
1.40742e-05
0.000969997
-1.22081e-05
-1.03271e-06
0.00097029
1.3507e-05
1.84672e-06
0.000962793
-1.53425e-05
1.073e-05
0.000971269
-4.39326e-05
-1.60995e-05
0.000992981
-5.26636e-05
-3.36658e-06
0.000995034
1.78641e-05
8.61261e-06
0.000981118
-0.000109807
-6.81456e-07
-0.000195741
-2.08506e-05
0.00107685
-5.5158e-05
-2.33062e-05
0.00109004
-3.34947e-05
-1.52825e-06
0.00109664
-5.90176e-05
6.92469e-06
0.00109088
-5.92205e-05
1.63021e-05
0.00107886
-5.20531e-05
2.55734e-05
0.00106598
-1.61775e-05
-9.87924e-06
0.00106871
6.25703e-07
-2.67754e-05
0.001088
-9.97274e-06
-1.63582e-05
0.00110929
-4.43921e-05
1.26723e-06
0.00110668
-0.000147139
2.32091e-05
0.00109057
-6.93577e-05
2.64494e-05
0.0010633
0.000151648
4.05523e-05
0.00103091
0.000129875
2.27744e-05
0.00101495
8.79288e-06
-6.70925e-06
0.00101391
6.00107e-06
2.6038e-05
0.00103245
-4.13744e-05
5.26945e-05
0.00104865
-6.72188e-05
1.06291e-05
0.001043
-6.18553e-05
-6.29445e-06
0.00103197
-7.57653e-05
-9.09368e-06
0.00102181
-3.25368e-05
-3.98844e-05
0.00101787
5.15422e-05
-2.46467e-05
0.00103664
0.000117641
4.29174e-06
0.00106347
7.55503e-05
-9.77415e-06
0.00107404
-9.04296e-05
-2.67763e-05
0.00107521
-0.000160733
4.14482e-05
0.00105852
-8.34424e-05
6.26169e-05
0.00103997
-3.47458e-05
4.18787e-06
0.00102947
6.04394e-05
4.3883e-06
0.00102809
4.40423e-05
2.94088e-05
0.00104634
7.55709e-05
-1.52835e-05
0.00106172
1.20759e-05
-3.6582e-05
0.00106632
-0.000129346
8.70104e-06
0.00106834
-2.41291e-05
1.95512e-06
0.00107434
6.35804e-06
1.98889e-06
0.00107495
-2.51382e-05
8.14827e-06
0.00107964
-4.11553e-05
-1.90373e-05
0.00109034
-5.50146e-05
-1.03704e-05
0.00108903
-7.36484e-06
8.12388e-06
0.00107501
-9.17491e-05
-1.9958e-06
-0.000151875
-1.91761e-05
0.00118882
-3.77016e-05
-1.93367e-05
0.00120167
-4.4018e-05
2.81484e-06
0.0012006
-7.68607e-05
8.30913e-06
0.00119021
-5.28526e-05
6.60176e-06
0.00118134
-4.09874e-05
1.5093e-05
0.00117173
-2.88211e-05
-3.44884e-06
0.00117615
-1.54982e-05
-1.48022e-05
0.00119682
-1.27548e-05
-1.74248e-05
0.00121257
-2.02433e-05
-3.82587e-06
0.00119764
-0.000100942
1.93851e-05
0.00117333
-5.16081e-05
1.82369e-05
0.00115265
0.000138257
3.79974e-05
0.00113594
0.000125137
2.41146e-05
0.00113352
2.21525e-05
-1.74795e-05
0.00114012
1.97065e-06
1.69053e-06
0.00115891
-5.13313e-05
3.24371e-05
0.00117198
-5.41274e-05
3.13037e-06
0.0011655
-5.22767e-05
-1.39061e-05
0.00115466
-5.70932e-05
-4.64459e-06
0.00114577
4.95546e-06
-2.29122e-05
0.00114409
6.87734e-05
-1.10601e-05
0.00116114
0.00012021
6.05382e-06
0.00118461
8.43625e-05
-1.26934e-05
0.00119056
-6.30842e-05
-3.28703e-05
0.00118457
-0.000126454
1.37501e-05
0.00116977
-7.22138e-05
4.09299e-05
0.00116265
-3.2653e-05
6.58926e-06
0.00116067
4.6718e-05
1.02412e-05
0.001157
9.32551e-06
2.4912e-05
0.00117123
4.9184e-05
-6.39528e-06
0.00118479
2.11647e-05
-2.63204e-05
0.00118146
-0.000111964
5.91664e-06
0.00117857
-3.10008e-05
5.71713e-06
0.00118816
-3.85855e-06
3.8306e-06
0.00119154
-3.84989e-05
8.37059e-06
0.00119178
-4.63049e-05
-1.37782e-05
0.00119398
-4.96569e-05
-1.05497e-05
0.00119306
-2.23806e-05
1.03987e-05
0.0011852
-8.54723e-05
1.83525e-06
-0.000117775
-1.94073e-05
0.00130936
-1.91366e-05
-1.85081e-05
0.00131908
-4.21079e-05
1.33744e-06
0.00131547
-8.50972e-05
7.9619e-06
0.00130688
-4.33075e-05
2.70888e-06
0.0013023
-2.49008e-05
3.51798e-06
0.00129518
-3.09088e-05
-7.26916e-06
0.00129642
-2.88446e-05
-4.52532e-06
0.00131357
-1.78801e-05
-8.37389e-06
0.00132703
1.08737e-06
-9.27254e-06
0.00130901
-5.56446e-05
1.04413e-05
0.00128395
-2.76499e-05
1.10457e-05
0.00127137
0.000125433
3.37214e-05
0.00126512
0.000108542
2.77171e-05
0.00126887
2.30585e-05
-1.41241e-05
0.00127725
4.15527e-06
-1.18252e-05
0.00129216
-4.83307e-05
1.5287e-05
0.00130326
-3.49545e-05
-5.3126e-06
0.00129817
-3.94074e-05
-2.22865e-05
0.00128817
-4.23593e-05
-2.56975e-06
0.00128246
2.94012e-05
-6.03199e-06
0.00128575
7.43897e-05
-4.9078e-08
0.0012997
0.000110723
1.54702e-05
0.00131639
8.47701e-05
-4.75749e-06
0.00131742
-3.77852e-05
-3.03659e-05
0.00130798
-9.02864e-05
-3.36947e-06
0.00129503
-5.21682e-05
2.07116e-05
0.00129344
-3.11793e-05
5.83669e-06
0.00129795
2.74618e-05
1.54464e-05
0.00129404
-1.09473e-05
2.18007e-05
0.00130287
2.92938e-05
-3.61211e-06
0.00131278
2.05053e-05
-1.87004e-05
0.00130592
-9.52969e-05
3.63419e-06
0.0013023
-3.02774e-05
4.5791e-06
0.00131206
-9.48458e-06
3.31958e-06
0.00131429
-4.74014e-05
8.0698e-06
0.00131263
-5.12772e-05
-9.55389e-06
0.00131267
-4.48763e-05
-1.10591e-05
0.00131392
-3.00032e-05
9.76544e-06
0.00130809
-8.0915e-05
8.33705e-06
-9.22017e-05
-1.59637e-05
0.00144354
-5.17992e-06
-1.78629e-05
0.00144857
-3.168e-05
-2.21191e-06
0.00144271
-8.17265e-05
1.94949e-06
0.00143781
-3.53014e-05
2.70351e-06
0.00143696
-9.5396e-06
-1.91566e-06
0.00143309
-2.60026e-05
-1.45658e-05
0.0014308
-3.62701e-05
-5.20281e-06
0.00143983
-2.02767e-05
-1.51062e-06
0.00145018
1.669e-05
-4.58764e-06
0.00143629
-2.18991e-05
6.48029e-06
0.00141832
-1.08286e-05
3.87547e-06
0.00141647
0.000107604
2.36903e-05
0.00141859
8.4448e-05
2.19681e-05
0.00142344
1.14603e-05
-5.70703e-06
0.00142718
3.97727e-06
-8.24096e-06
0.0014334
-3.9257e-05
5.04138e-06
0.00144097
-1.97792e-05
-6.78797e-06
0.00143693
-3.1936e-05
-1.67867e-05
0.00142744
-3.65617e-05
4.81002e-06
0.00142418
3.25809e-05
6.78877e-06
0.00142993
6.18722e-05
8.20624e-06
0.00144201
8.7363e-05
2.14459e-05
0.00145535
7.17561e-05
4.56363e-06
0.00145321
-2.06375e-05
-2.15453e-05
0.00144306
-6.13082e-05
-5.21643e-06
0.00143445
-3.49722e-05
1.22982e-05
0.00143443
-2.90415e-05
3.17029e-06
0.00143917
1.10707e-05
1.35457e-05
0.00143494
-2.10187e-05
1.62936e-05
0.00144079
1.62015e-05
-6.50583e-06
0.00144682
1.65198e-05
-1.71187e-05
0.00143852
-7.9163e-05
-5.51159e-08
0.0014364
-2.5041e-05
1.53414e-06
0.00144535
-9.6573e-06
1.81368e-06
0.00144511
-4.38575e-05
4.92819e-06
0.00144314
-4.73187e-05
-9.75188e-06
0.00144385
-3.79113e-05
-1.32229e-05
0.00144557
-3.1409e-05
6.7338e-06
0.00143947
-7.13702e-05
7.37857e-06
-7.08947e-05
-1.65785e-05
0.00159097
4.8183e-07
-1.246e-05
0.00159283
-2.09411e-05
-2.71592e-06
0.00158454
-6.9009e-05
-3.90059e-06
0.00158221
-2.98203e-05
3.99512e-06
0.00158472
-2.01106e-06
1.15214e-06
0.00158305
-1.94849e-05
-1.56488e-05
0.00157777
-3.57798e-05
-9.31176e-06
0.00158017
-1.8205e-05
-2.95688e-07
0.00158773
2.28064e-05
1.6078e-06
0.0015802
-3.231e-06
7.7704e-06
0.0015718
-3.79824e-06
-1.1076e-06
0.00157774
8.45742e-05
1.28008e-05
0.00158259
6.12565e-05
1.35261e-05
0.00158486
7.70599e-07
-3.76493e-06
0.00158367
3.83828e-06
-3.72751e-06
0.00158439
-2.76798e-05
-5.42781e-07
0.00158815
-1.00541e-05
-2.79797e-06
0.00158303
-2.76413e-05
-7.90699e-06
0.00157439
-3.51844e-05
9.35744e-06
0.001573
2.41342e-05
1.17119e-05
0.0015787
4.20449e-05
6.42049e-06
0.00158896
6.19731e-05
1.75325e-05
0.00160123
5.44124e-05
4.68737e-06
0.00159893
-9.44268e-06
-1.79629e-05
0.00159001
-4.00302e-05
-4.84136e-06
0.00158479
-2.45383e-05
8.90212e-06
0.00158458
-2.65433e-05
-1.28451e-06
0.00158761
3.54505e-06
6.11434e-06
0.00158317
-2.35579e-05
9.85821e-06
0.00158728
7.21585e-06
-7.94507e-06
0.00159046
1.3706e-05
-1.59108e-05
0.00158303
-6.21648e-05
-5.18924e-06
0.00158292
-1.92479e-05
-1.53302e-06
0.00159082
-8.11346e-06
5.99288e-08
0.00158904
-3.34153e-05
1.70296e-06
0.00158755
-3.84001e-05
-1.02413e-05
0.00158964
-3.1046e-05
-1.4881e-05
0.00159039
-2.83319e-05
2.3511e-06
0.00158405
-5.67765e-05
2.45547e-06
-5.13259e-05
-1.70344e-05
0.00175031
5.81182e-07
-5.70851e-06
0.00175142
-1.33666e-05
-7.18698e-07
0.00174311
-5.31191e-05
-6.11361e-06
0.00174134
-2.53226e-05
4.47399e-06
0.00174531
-1.46993e-06
5.46514e-06
0.00174404
-1.3883e-05
-1.14498e-05
0.00173752
-2.99375e-05
-9.99753e-06
0.00173773
-1.4246e-05
-3.10446e-07
0.00174357
2.23754e-05
4.33716e-06
0.00174025
4.80771e-06
7.83288e-06
0.00173753
-2.77552e-06
-3.61975e-06