/*--------------------------------*- C++ -*----------------------------------*\
  =========                 |
  \\      /  F ield         | OpenFOAM: The Open Source CFD Toolbox
   \\    /   O peration     | Website:  https://openfoam.org
    \\  /    A nd           | Version:  10
     \\/     M anipulation  |
\*---------------------------------------------------------------------------*/
FoamFile
{
    format      ascii;
    class       volScalarField;
    location    "15";
    object      pPrime2Mean;
}
// * * * * * * * * * * * * * * * * * * * * * * * * * * * * * * * * * * * * * //

dimensions      [0 4 -4 0 0 0 0];

internalField   nonuniform List<scalar> 
25600
(
3.56555e-05
3.50973e-05
3.51634e-05
3.73304e-05
3.13123e-05
3.13979e-05
3.22809e-05
3.36157e-05
3.01798e-05
2.97883e-05
3.36497e-05
3.24945e-05
2.75855e-05
2.4287e-05
2.08743e-05
2.15294e-05
2.27734e-05
2.54892e-05
3.04687e-05
3.41215e-05
3.22948e-05
2.74208e-05
2.62311e-05
2.40644e-05
2.6587e-05
3.1247e-05
3.48678e-05
3.6069e-05
3.42245e-05
3.22528e-05
3.04999e-05
2.90387e-05
2.7901e-05
2.87928e-05
2.73944e-05
2.52646e-05
2.62637e-05
3.04576e-05
3.36927e-05
3.56749e-05
3.58137e-05
3.52696e-05
3.5302e-05
3.7462e-05
3.14845e-05
3.15887e-05
3.25118e-05
3.38349e-05
3.03408e-05
2.99342e-05
3.38471e-05
3.26611e-05
2.77294e-05
2.4407e-05
2.09921e-05
2.16655e-05
2.28989e-05
2.56319e-05
3.06539e-05
3.43131e-05
3.25231e-05
2.75688e-05
2.63606e-05
2.42109e-05
2.67276e-05
3.14622e-05
3.50889e-05
3.62965e-05
3.45043e-05
3.25044e-05
3.06698e-05
2.92203e-05
2.80637e-05
2.9017e-05
2.76208e-05
2.54767e-05
2.64836e-05
3.06693e-05
3.38717e-05
3.58634e-05
3.61742e-05
3.55596e-05
3.56283e-05
3.77186e-05
3.19063e-05
3.20496e-05
3.30683e-05
3.43698e-05
3.07212e-05
3.0256e-05
3.42805e-05
3.30322e-05
2.80415e-05
2.46603e-05
2.12836e-05
2.20078e-05
2.32542e-05
2.60287e-05
3.10963e-05
3.47283e-05
3.29951e-05
2.79082e-05
2.65344e-05
2.45602e-05
2.69961e-05
3.2043e-05
3.5662e-05
3.6957e-05
3.51644e-05
3.31614e-05
3.12374e-05
2.97462e-05
2.8566e-05
2.95115e-05
2.80897e-05
2.59128e-05
2.69055e-05
3.11325e-05
3.42592e-05
3.62372e-05
3.67699e-05
3.60431e-05
3.62457e-05
3.82183e-05
3.25183e-05
3.2713e-05
3.38439e-05
3.50319e-05
3.12979e-05
3.07319e-05
3.49339e-05
3.35703e-05
2.85244e-05
2.5088e-05
2.17045e-05
2.25311e-05
2.37406e-05
2.65684e-05
3.17178e-05
3.53098e-05
3.36671e-05
2.8432e-05
2.67367e-05
2.50359e-05
2.73378e-05
3.2906e-05
3.65864e-05
3.79119e-05
3.6135e-05
3.4135e-05
3.20365e-05
3.07194e-05
2.92433e-05
3.01366e-05
2.87187e-05
2.65475e-05
2.74163e-05
3.17946e-05
3.4853e-05
3.68381e-05
3.75417e-05
3.66191e-05
3.71863e-05
3.87315e-05
3.30406e-05
3.32644e-05
3.44028e-05
3.55077e-05
3.18252e-05
3.12248e-05
3.55507e-05
3.40261e-05
2.89437e-05
2.53927e-05
2.19759e-05
2.30013e-05
2.42047e-05
2.70476e-05
3.23295e-05
3.58826e-05
3.42357e-05
2.87838e-05
2.67367e-05
2.53944e-05
2.76178e-05
3.40034e-05
3.77347e-05
3.92621e-05
3.75178e-05
3.54351e-05
3.30923e-05
3.18149e-05
3.00524e-05
3.06258e-05
2.91888e-05
2.69981e-05
2.77822e-05
3.2353e-05
3.54443e-05
3.75278e-05
3.7845e-05
3.6699e-05
3.74578e-05
3.80702e-05
3.276e-05
3.31444e-05
3.43446e-05
3.5644e-05
3.22636e-05
3.16267e-05
3.6068e-05
3.44331e-05
2.93004e-05
2.5735e-05
2.22947e-05
2.35148e-05
2.47193e-05
2.7424e-05
3.27416e-05
3.63924e-05
3.46776e-05
2.91639e-05
2.63387e-05
2.53442e-05
2.78416e-05
3.52023e-05
3.88332e-05
4.02947e-05
3.84968e-05
3.62955e-05
3.37562e-05
3.28231e-05
3.06996e-05
3.0992e-05
2.95342e-05
2.73272e-05
2.77593e-05
3.22016e-05
3.53935e-05
3.75288e-05
3.813e-05
3.67146e-05
3.69958e-05
3.6648e-05
3.1528e-05
3.24325e-05
3.36179e-05
3.49172e-05
3.22283e-05
3.14017e-05
3.59238e-05
3.40396e-05
2.86213e-05
2.52647e-05
2.2027e-05
2.33809e-05
2.49878e-05
2.76089e-05
3.2713e-05
3.65472e-05
3.43898e-05
2.88668e-05
2.5532e-05
2.46108e-05
2.78558e-05
3.57415e-05
3.95101e-05
4.06706e-05
3.86629e-05
3.656e-05
3.39841e-05
3.33638e-05
3.12553e-05
3.10628e-05
2.94896e-05
2.72318e-05
2.70875e-05
3.13033e-05
3.45669e-05
3.68252e-05
3.75135e-05
3.59184e-05
3.56347e-05
3.52343e-05
3.01915e-05
3.13798e-05
3.23564e-05
3.35048e-05
3.14012e-05
3.00536e-05
3.42807e-05
3.27449e-05
2.74326e-05
2.43046e-05
2.17344e-05
2.29782e-05
2.49535e-05
2.74211e-05
3.21384e-05
3.62278e-05
3.37553e-05
2.80092e-05
2.40528e-05
2.35887e-05
2.72707e-05
3.5383e-05
3.93511e-05
4.05088e-05
3.82303e-05
3.63396e-05
3.38566e-05
3.34383e-05
3.13986e-05
3.09683e-05
2.94059e-05
2.72175e-05
2.70813e-05
3.09573e-05
3.32309e-05
3.50964e-05
3.5572e-05
3.42502e-05
3.37059e-05
3.32865e-05
2.86885e-05
2.99718e-05
3.07935e-05
3.16855e-05
3.00127e-05
2.81894e-05
3.16525e-05
3.08978e-05
2.58418e-05
2.31082e-05
2.09069e-05
2.23967e-05
2.461e-05
2.67965e-05
3.12666e-05
3.4981e-05
3.26653e-05
2.65921e-05
2.24254e-05
2.25025e-05
2.63825e-05
3.43547e-05
3.90651e-05
4.02399e-05
3.77263e-05
3.58005e-05
3.31356e-05
3.27073e-05
3.08757e-05
2.9798e-05
2.80754e-05
2.62044e-05
2.65142e-05
2.96709e-05
3.0911e-05
3.25594e-05
3.29005e-05
3.21325e-05
3.13025e-05
3.09197e-05
2.71163e-05
2.82011e-05
2.87168e-05
2.93602e-05
2.79174e-05
2.619e-05
2.90586e-05
2.88972e-05
2.4378e-05
2.20092e-05
2.00851e-05
2.1487e-05
2.40791e-05
2.61406e-05
3.03044e-05
3.32403e-05
3.09092e-05
2.47013e-05
2.09858e-05
2.16403e-05
2.56042e-05
3.29929e-05
3.82763e-05
3.94964e-05
3.66265e-05
3.45089e-05
3.19559e-05
3.10637e-05
2.91945e-05
2.77325e-05
2.60306e-05
2.44445e-05
2.50252e-05
2.76768e-05
2.88165e-05
3.01749e-05
2.94089e-05
2.87403e-05
2.80262e-05
2.76114e-05
2.43898e-05
2.47596e-05
2.53231e-05
2.6228e-05
2.50111e-05
2.36713e-05
2.59577e-05
2.59996e-05
2.21853e-05
2.0092e-05
1.81596e-05
1.94254e-05
2.18976e-05
2.3815e-05
2.75477e-05
2.97044e-05
2.70598e-05
2.18946e-05
1.95111e-05
2.08104e-05
2.46948e-05
3.12562e-05
3.61e-05
3.68077e-05
3.37015e-05
3.15241e-05
2.9307e-05
2.78172e-05
2.60912e-05
2.4223e-05
2.26981e-05
2.13685e-05
2.22725e-05
2.51191e-05
2.68456e-05
2.77631e-05
2.46403e-05
2.39749e-05
2.32741e-05
2.26938e-05
2.01031e-05
2.02458e-05
2.08912e-05
2.20946e-05
2.13034e-05
2.05454e-05
2.22711e-05
2.21734e-05
1.90051e-05
1.7205e-05
1.54687e-05
1.6407e-05
1.85282e-05
2.02342e-05
2.33829e-05
2.48931e-05
2.20644e-05
1.82871e-05
1.70251e-05
1.8715e-05
2.24536e-05
2.82483e-05
3.24939e-05
3.2803e-05
3.00641e-05
2.78272e-05
2.59105e-05
2.39396e-05
2.25539e-05
2.09803e-05
1.94674e-05
1.79278e-05
1.87605e-05
2.15059e-05
2.34436e-05
2.39407e-05
1.90311e-05
1.85417e-05
1.79913e-05
1.74643e-05
1.57183e-05
1.59404e-05
1.65513e-05
1.77074e-05
1.72687e-05
1.67958e-05
1.80601e-05
1.76592e-05
1.51116e-05
1.3932e-05
1.24009e-05
1.28879e-05
1.4635e-05
1.61531e-05
1.86751e-05
1.97988e-05
1.71813e-05
1.43997e-05
1.37529e-05
1.52942e-05
1.85669e-05
2.29795e-05
2.63282e-05
2.63584e-05
2.44821e-05
2.2913e-05
2.13943e-05
1.9103e-05
1.77835e-05
1.68953e-05
1.59017e-05
1.43185e-05
1.48651e-05
1.70443e-05
1.85765e-05
1.88531e-05
1.3935e-05
1.37298e-05
1.35613e-05
1.33722e-05
1.23756e-05
1.24034e-05
1.27844e-05
1.37246e-05
1.34011e-05
1.28386e-05
1.38557e-05
1.34909e-05
1.15852e-05
1.08557e-05
9.42382e-06
9.35762e-06
1.07114e-05
1.18205e-05
1.38563e-05
1.48695e-05
1.29814e-05
1.10971e-05
1.07391e-05
1.17354e-05
1.36169e-05
1.65326e-05
1.91455e-05
1.92132e-05
1.81156e-05
1.73298e-05
1.65942e-05
1.44352e-05
1.32675e-05
1.28315e-05
1.23168e-05
1.0789e-05
1.10479e-05
1.27694e-05
1.38469e-05
1.40974e-05
9.98836e-06
9.82046e-06
9.94926e-06
9.90438e-06
9.30071e-06
9.1745e-06
9.27343e-06
1.00017e-05
9.7681e-06
9.21083e-06
1.00912e-05
9.93769e-06
8.53963e-06
8.09733e-06
6.88458e-06
6.52013e-06
7.51402e-06
8.3073e-06
9.95077e-06
1.07594e-05
9.45147e-06
8.24655e-06
7.98466e-06
8.59412e-06
9.37835e-06
1.10772e-05
1.30364e-05
1.32102e-05
1.25824e-05
1.21618e-05
1.18551e-05
1.02734e-05
9.37266e-06
9.14076e-06
9.13398e-06
7.8739e-06
7.89249e-06
9.25582e-06
1.0045e-05
1.03578e-05
6.95059e-06
6.73894e-06
7.05777e-06
7.02504e-06
6.62725e-06
6.54371e-06
6.44957e-06
6.8716e-06
6.73921e-06
6.32813e-06
7.13181e-06
7.0758e-06
6.05811e-06
5.80323e-06
4.84556e-06
4.48537e-06
5.18871e-06
5.72344e-06
6.94918e-06
7.56896e-06
6.6682e-06
5.88214e-06
5.73582e-06
6.14868e-06
6.31849e-06
7.03616e-06
8.43601e-06
8.69672e-06
8.33386e-06
8.13372e-06
8.03891e-06
7.09113e-06
6.38258e-06
6.25606e-06
6.51352e-06
5.60389e-06
5.47492e-06
6.51607e-06
7.09953e-06
7.34308e-06
4.70401e-06
4.47075e-06
4.83638e-06
4.80049e-06
4.5231e-06
4.52635e-06
4.31978e-06
4.55197e-06
4.49686e-06
4.24681e-06
4.97606e-06
4.92816e-06
4.16191e-06
4.03557e-06
3.32226e-06
3.0336e-06
3.52423e-06
3.85073e-06
4.7348e-06
5.14206e-06
4.48344e-06
3.9953e-06
3.96933e-06
4.28427e-06
4.19799e-06
4.38551e-06
5.36889e-06
5.62874e-06
5.39788e-06
5.29748e-06
5.21161e-06
4.72812e-06
4.2501e-06
4.13845e-06
4.44314e-06
3.84129e-06
3.69331e-06
4.45393e-06
4.87735e-06
5.05235e-06
3.11977e-06
2.88508e-06
3.21421e-06
3.17842e-06
2.98444e-06
3.03299e-06
2.81033e-06
2.97423e-06
2.94625e-06
2.82053e-06
3.41958e-06
3.35569e-06
2.77689e-06
2.77555e-06
2.25282e-06
2.01489e-06
2.38534e-06
2.56476e-06
3.18945e-06
3.45944e-06
2.96712e-06
2.66522e-06
2.68096e-06
2.93473e-06
2.78127e-06
2.69622e-06
3.3783e-06
3.60848e-06
3.4245e-06
3.385e-06
3.27945e-06
3.06767e-06
2.78261e-06
2.67147e-06
2.92846e-06
2.5482e-06
2.40879e-06
2.96217e-06
3.24176e-06
3.37579e-06
2.05279e-06
1.83802e-06
2.10722e-06
2.06427e-06
1.93724e-06
2.01194e-06
1.79313e-06
1.90335e-06
1.894e-06
1.83789e-06
2.31741e-06
2.23996e-06
1.79656e-06
1.89173e-06
1.51211e-06
1.33104e-06
1.61959e-06
1.70677e-06
2.14544e-06
2.30585e-06
1.91571e-06
1.73466e-06
1.76592e-06
1.97304e-06
1.83928e-06
1.63435e-06
2.12237e-06
2.32774e-06
2.17874e-06
2.16896e-06
2.04494e-06
1.95118e-06
1.79723e-06
1.70909e-06
1.93084e-06
1.6842e-06
1.56648e-06
1.96574e-06
2.13875e-06
2.22323e-06
1.31909e-06
1.15243e-06
1.35957e-06
1.2969e-06
1.20769e-06
1.30574e-06
1.12537e-06
1.20861e-06
1.22278e-06
1.19537e-06
1.57061e-06
1.49562e-06
1.13693e-06
1.28824e-06
1.0191e-06
8.72208e-07
1.11496e-06
1.14142e-06
1.45105e-06
1.53377e-06
1.20474e-06
1.10155e-06
1.14747e-06
1.30985e-06
1.22574e-06
9.80922e-07
1.31015e-06
1.49647e-06
1.38197e-06
1.39751e-06
1.27188e-06
1.21792e-06
1.14565e-06
1.08483e-06
1.26752e-06
1.11258e-06
1.0162e-06
1.29219e-06
1.38148e-06
1.42898e-06
8.47783e-07
7.23941e-07
8.88602e-07
8.08115e-07
7.35892e-07
8.51078e-07
7.13815e-07
7.79192e-07
8.11154e-07
7.85732e-07
1.06367e-06
1.00628e-06
7.14536e-07
8.89369e-07
7.03311e-07
5.78794e-07
7.95128e-07
7.76496e-07
9.96405e-07
1.04274e-06
7.46305e-07
6.84997e-07
7.40549e-07
8.56988e-07
8.30088e-07
5.97306e-07
8.03688e-07
9.66542e-07
8.84252e-07
9.17861e-07
7.99846e-07
7.52325e-07
7.3233e-07
6.8951e-07
8.33467e-07
7.38176e-07
6.68619e-07
8.61706e-07
9.0211e-07
9.24183e-07
5.55791e-07
4.58464e-07
5.94363e-07
5.06813e-07
4.29934e-07
5.56212e-07
4.58113e-07
5.13233e-07
5.60128e-07
5.30854e-07
7.26547e-07
6.895e-07
4.56159e-07
6.29558e-07
5.03053e-07
3.91595e-07
5.90477e-07
5.37088e-07
6.88315e-07
7.33594e-07
4.62001e-07
4.23037e-07
4.91953e-07
5.53569e-07
5.64288e-07
3.75764e-07
4.89565e-07
6.28881e-07
5.77891e-07
6.27414e-07
5.22083e-07
4.6889e-07
4.78426e-07
4.46254e-07
5.55002e-07
5.00004e-07
4.47934e-07
5.80266e-07
5.91599e-07
6.05128e-07
3.848e-07
2.94631e-07
4.13931e-07
3.37616e-07
2.49273e-07
3.78005e-07
3.09243e-07
3.5269e-07
4.06923e-07
3.765e-07
5.10397e-07
4.83057e-07
3.05106e-07
4.6578e-07
3.81193e-07
2.78497e-07
4.6213e-07
3.90346e-07
4.76555e-07
5.39188e-07
2.96198e-07
2.62327e-07
3.43486e-07
3.61402e-07
3.87966e-07
2.6048e-07
3.04259e-07
4.16816e-07
3.95003e-07
4.51886e-07
3.68955e-07
3.04762e-07
3.30465e-07
3.04295e-07
3.80377e-07
3.51741e-07
3.13346e-07
4.02311e-07
3.9595e-07
4.1092e-07
2.85667e-07
1.94739e-07
3.00358e-07
2.49369e-07
1.5266e-07
2.72108e-07
2.22984e-07
2.52408e-07
3.04546e-07
2.781e-07
3.76734e-07
3.4799e-07
2.18403e-07
3.62748e-07
3.0317e-07
2.10804e-07
3.7577e-07
3.00366e-07
3.31515e-07
4.14187e-07
2.0695e-07
1.70439e-07
2.59263e-07
2.45808e-07
2.68043e-07
2.01606e-07
1.98821e-07
2.81789e-07
2.85091e-07
3.42827e-07
2.86924e-07
2.13111e-07
2.49271e-07
2.26883e-07
2.7192e-07
2.60994e-07
2.33105e-07
2.90159e-07
2.736e-07
2.93165e-07
2.28205e-07
1.35706e-07
2.22775e-07
2.06833e-07
1.10666e-07
2.09388e-07
1.7115e-07
1.87314e-07
2.29827e-07
2.04558e-07
2.96818e-07
2.60873e-07
1.67542e-07
2.98542e-07
2.48477e-07
1.68328e-07
3.1385e-07
2.45253e-07
2.38255e-07
3.30621e-07
1.62257e-07
1.18847e-07
2.09158e-07
1.84292e-07
1.91728e-07
1.73563e-07
1.47099e-07
1.98792e-07
2.1833e-07
2.75314e-07
2.48632e-07
1.68261e-07
2.06901e-07
1.89123e-07
2.06238e-07
2.06103e-07
1.84928e-07
2.20356e-07
1.9723e-07
2.16748e-07
1.88821e-07
1.03518e-07
1.67557e-07
1.84032e-07
9.97056e-08
1.697e-07
1.38155e-07
1.45338e-07
1.72786e-07
1.42193e-07
2.47299e-07
2.06487e-07
1.36878e-07
2.59239e-07
2.05768e-07
1.39022e-07
2.64161e-07
2.06201e-07
1.80112e-07
2.71309e-07
1.43204e-07
9.37152e-08
1.78093e-07
1.54367e-07
1.4954e-07
1.60489e-07
1.26451e-07
1.5135e-07
1.74134e-07
2.29899e-07
2.30638e-07
1.52051e-07
1.86655e-07
1.7635e-07
1.6777e-07
1.75617e-07
1.56111e-07
1.75605e-07
1.51606e-07
1.63488e-07
1.54665e-07
9.10601e-08
1.28224e-07
1.63323e-07
1.02669e-07
1.399e-07
1.14886e-07
1.21134e-07
1.32352e-07
9.59844e-08
2.1373e-07
1.72595e-07
1.19467e-07
2.32432e-07
1.71116e-07
1.17704e-07
2.20945e-07
1.74424e-07
1.43529e-07
2.25925e-07
1.39007e-07
8.62105e-08
1.5476e-07
1.39258e-07
1.31539e-07
1.52518e-07
1.20973e-07
1.28399e-07
1.44089e-07
1.94814e-07
2.19626e-07
1.50612e-07
1.77162e-07
1.76171e-07
1.43164e-07
1.62001e-07
1.40903e-07
1.44621e-07
1.2778e-07
1.26165e-07
1.23265e-07
8.95128e-08
1.00953e-07
1.37017e-07
1.07117e-07
1.14351e-07
9.73244e-08
1.13918e-07
1.09862e-07
7.59544e-08
1.92531e-07
1.51432e-07
1.13291e-07
2.11756e-07
1.44312e-07
1.06451e-07
1.84216e-07
1.50676e-07
1.23021e-07
1.87939e-07
1.42249e-07
8.9238e-08
1.34206e-07
1.28847e-07
1.24174e-07
1.4471e-07
1.19351e-07
1.198e-07
1.25567e-07
1.66354e-07
2.07421e-07
1.51677e-07
1.71126e-07
1.78569e-07
1.25642e-07
1.55113e-07
1.3651e-07
1.21195e-07
1.18728e-07
1.04826e-07
9.94524e-08
9.26499e-08
8.4378e-08
1.06331e-07
1.07277e-07
9.57002e-08
8.64554e-08
1.22009e-07
1.03064e-07
8.10998e-08
1.82126e-07
1.36503e-07
1.14601e-07
1.94581e-07
1.26365e-07
1.08069e-07
1.57689e-07
1.38219e-07
1.17437e-07
1.5557e-07
1.4747e-07
9.5878e-08
1.15993e-07
1.19754e-07
1.18595e-07
1.36644e-07
1.17024e-07
1.17472e-07
1.1497e-07
1.434e-07
1.90515e-07
1.46336e-07
1.6018e-07
1.73995e-07
1.10502e-07
1.4319e-07
1.38213e-07
1.03319e-07
1.1425e-07
9.78092e-08
8.70965e-08
9.74961e-08
8.13198e-08
8.3972e-08
1.08746e-07
9.0169e-08
8.45344e-08
1.35175e-07
1.03818e-07
9.42633e-08
1.73954e-07
1.22693e-07
1.1527e-07
1.7602e-07
1.16327e-07
1.16286e-07
1.42143e-07
1.37765e-07
1.23941e-07
1.32635e-07
1.54032e-07
1.06306e-07
1.04721e-07
1.17821e-07
1.14505e-07
1.30467e-07
1.16683e-07
1.15726e-07
1.10637e-07
1.24842e-07
1.67133e-07
1.34981e-07
1.38015e-07
1.5766e-07
9.67108e-08
1.19401e-07
1.34297e-07
8.93096e-08
1.05045e-07
9.76552e-08
8.23682e-08
9.92177e-08
8.61955e-08
7.82066e-08
1.10036e-07
9.14802e-08
8.72068e-08
1.36256e-07
9.78752e-08
9.85025e-08
1.54118e-07
1.07344e-07
1.09907e-07
1.50038e-07
1.10242e-07
1.12944e-07
1.29095e-07
1.39431e-07
1.29198e-07
1.23178e-07
1.59372e-07
1.20069e-07
1.03455e-07
1.22669e-07
1.10454e-07
1.23446e-07
1.20344e-07
1.1259e-07
1.13966e-07
1.10987e-07
1.40987e-07
1.28282e-07
1.13885e-07
1.38909e-07
9.50911e-08
9.76174e-08
1.24121e-07
8.39151e-08
9.33869e-08
9.41781e-08
8.37057e-08
1.0001e-07
9.15356e-08
8.33048e-08
1.08816e-07
8.70399e-08
8.79045e-08
1.20939e-07
8.57132e-08
9.35701e-08
1.22572e-07
9.65871e-08
9.69699e-08
1.18899e-07
1.06334e-07
8.81656e-08
1.08288e-07
1.31857e-07
1.08353e-07
1.10415e-07
1.49039e-07
1.18568e-07
9.93575e-08
1.18641e-07
9.91078e-08
1.10557e-07
1.2341e-07
1.09358e-07
1.217e-07
1.0738e-07
1.22404e-07
1.34759e-07
1.06166e-07
1.3026e-07
1.15447e-07
1.02937e-07
1.22801e-07
9.57528e-08
9.59619e-08
9.31023e-08
2.90728e-05
2.81479e-05
2.83417e-05
3.65118e-05
2.72992e-05
2.83335e-05
2.88707e-05
2.9941e-05
3.06439e-05
2.94928e-05
2.64793e-05
2.56317e-05
2.46858e-05
2.37662e-05
2.07003e-05
2.27498e-05
2.38635e-05
2.47099e-05
2.70607e-05
3.11269e-05
3.26078e-05
3.1137e-05
2.83929e-05
2.69723e-05
2.45997e-05
2.3771e-05
2.47232e-05
2.54665e-05
2.57725e-05
2.47435e-05
2.65513e-05
2.74739e-05
2.96075e-05
3.26643e-05
3.2189e-05
3.02555e-05
2.47838e-05
2.21774e-05
2.38365e-05
2.50138e-05
2.92895e-05
2.83841e-05
2.8475e-05
3.68095e-05
2.74995e-05
2.85052e-05
2.90544e-05
3.01497e-05
3.08174e-05
2.96325e-05
2.66371e-05
2.57919e-05
2.48371e-05
2.39124e-05
2.08018e-05
2.28656e-05
2.40078e-05
2.48749e-05
2.72194e-05
3.12774e-05
3.28227e-05
3.13175e-05
2.85199e-05
2.71152e-05
2.46455e-05
2.38734e-05
2.47979e-05
2.55562e-05
2.58685e-05
2.48258e-05
2.66903e-05
2.75888e-05
2.97118e-05
3.28021e-05
3.22903e-05
3.03874e-05
2.48794e-05
2.22515e-05
2.39929e-05
2.51589e-05
2.97862e-05
2.89302e-05
2.87798e-05
3.73469e-05
2.78851e-05
2.88519e-05
2.94282e-05
3.0546e-05
3.12298e-05
2.99429e-05
2.69625e-05
2.61428e-05
2.51076e-05
2.41814e-05
2.1029e-05
2.31117e-05
2.43557e-05
2.52804e-05
2.76452e-05
3.16973e-05
3.32424e-05
3.17198e-05
2.89183e-05
2.75851e-05
2.48273e-05
2.42331e-05
2.50491e-05
2.58253e-05
2.61804e-05
2.50692e-05
2.71125e-05
2.787e-05
2.99567e-05
3.3179e-05
3.2614e-05
3.07317e-05
2.51448e-05
2.24499e-05
2.42766e-05
2.55392e-05
3.04647e-05
2.94132e-05
2.90519e-05
3.76557e-05
2.8284e-05
2.9243e-05
2.97479e-05
3.09158e-05
3.16361e-05
3.03452e-05
2.73458e-05
2.65002e-05
2.53695e-05
2.44355e-05
2.12489e-05
2.34018e-05
2.47925e-05
2.57909e-05
2.82461e-05
3.21594e-05
3.37723e-05
3.22849e-05
2.94648e-05
2.81666e-05
2.49802e-05
2.45176e-05
2.52711e-05
2.61086e-05
2.65711e-05
2.53849e-05
2.76811e-05
2.829e-05
3.02604e-05
3.35808e-05
3.29667e-05
3.11611e-05
2.55426e-05
2.2693e-05
2.45806e-05
2.59885e-05
3.06773e-05
2.9329e-05
2.89815e-05
3.73281e-05
2.84311e-05
2.9344e-05
2.97376e-05
3.09282e-05
3.18088e-05
3.04109e-05
2.74979e-05
2.6611e-05
2.52934e-05
2.44035e-05
2.12874e-05
2.33887e-05
2.50551e-05
2.61519e-05
2.88405e-05
3.23622e-05
3.43351e-05
3.27082e-05
2.97342e-05
2.85145e-05
2.49965e-05
2.4691e-05
2.52143e-05
2.60264e-05
2.67926e-05
2.56167e-05
2.80117e-05
2.85777e-05
3.02441e-05
3.36031e-05
3.30862e-05
3.12473e-05
2.55177e-05
2.25154e-05
2.4586e-05
2.5924e-05
3.06666e-05
2.87614e-05
2.84683e-05
3.61562e-05
2.84305e-05
2.8991e-05
2.9284e-05
3.08001e-05
3.17552e-05
3.01899e-05
2.70886e-05
2.61891e-05
2.47724e-05
2.40675e-05
2.08321e-05
2.30011e-05
2.48818e-05
2.61286e-05
2.89966e-05
3.2074e-05
3.47432e-05
3.27101e-05
2.98139e-05
2.87321e-05
2.49425e-05
2.48305e-05
2.52762e-05
2.63616e-05
2.69502e-05
2.54952e-05
2.81796e-05
2.87446e-05
3.00664e-05
3.32755e-05
3.28444e-05
3.0942e-05
2.54628e-05
2.26104e-05
2.45346e-05
2.56916e-05
3.00109e-05
2.76876e-05
2.79444e-05
3.52927e-05
2.88409e-05
2.87585e-05
2.90865e-05
3.08072e-05
3.17486e-05
2.97399e-05
2.60367e-05
2.5067e-05
2.39354e-05
2.31863e-05
1.99119e-05
2.21095e-05
2.46241e-05
2.61012e-05
2.87665e-05
3.13399e-05
3.39377e-05
3.14485e-05
2.90965e-05
2.82753e-05
2.49096e-05
2.52059e-05
2.55124e-05
2.6406e-05
2.70267e-05
2.51492e-05
2.76948e-05
2.81657e-05
2.94782e-05
3.2593e-05
3.24333e-05
3.02779e-05
2.52427e-05
2.25888e-05
2.41279e-05
2.53061e-05
2.88441e-05
2.66238e-05
2.72155e-05
3.37472e-05
2.84329e-05
2.84588e-05
2.87878e-05
3.03903e-05
3.09581e-05
2.86162e-05
2.45056e-05
2.36958e-05
2.29562e-05
2.19208e-05
1.89394e-05
2.12259e-05
2.43923e-05
2.56782e-05
2.79131e-05
2.98329e-05
3.17372e-05
2.92746e-05
2.79119e-05
2.72469e-05
2.50836e-05
2.53286e-05
2.55711e-05
2.63538e-05
2.67137e-05
2.43767e-05
2.6536e-05
2.65544e-05
2.80518e-05
3.09457e-05
3.09907e-05
2.87713e-05
2.41521e-05
2.18068e-05
2.30072e-05
2.47367e-05
2.68703e-05
2.48945e-05
2.59497e-05
3.17483e-05
2.70648e-05
2.71132e-05
2.73125e-05
2.85751e-05
2.88226e-05
2.65089e-05
2.26963e-05
2.22756e-05
2.1602e-05
2.01376e-05
1.75144e-05
1.97274e-05
2.31593e-05
2.43717e-05
2.63162e-05
2.811e-05
2.92022e-05
2.70033e-05
2.63284e-05
2.57323e-05
2.45549e-05
2.43495e-05
2.45634e-05
2.49607e-05
2.50518e-05
2.2244e-05
2.38428e-05
2.41624e-05
2.57421e-05
2.80778e-05
2.84053e-05
2.62694e-05
2.19413e-05
1.99388e-05
2.09171e-05
2.32334e-05
2.41711e-05
2.20602e-05
2.32089e-05
2.76564e-05
2.39603e-05
2.4021e-05
2.40828e-05
2.48974e-05
2.52367e-05
2.3364e-05
2.0455e-05
2.06384e-05
1.99662e-05
1.81034e-05
1.56481e-05
1.7569e-05
2.08641e-05
2.2286e-05
2.42784e-05
2.64149e-05
2.66152e-05
2.44344e-05
2.38894e-05
2.35048e-05
2.2871e-05
2.22263e-05
2.255e-05
2.24841e-05
2.22145e-05
1.92856e-05
2.0055e-05
2.10469e-05
2.27038e-05
2.46026e-05
2.51909e-05
2.3063e-05
1.91208e-05
1.73007e-05
1.82358e-05
2.09748e-05
2.11665e-05
1.88165e-05
1.97912e-05
2.28506e-05
2.00935e-05
2.01166e-05
2.01964e-05
2.07217e-05
2.11006e-05
1.97409e-05
1.73523e-05
1.80386e-05
1.78203e-05
1.59157e-05
1.3551e-05
1.50763e-05
1.79588e-05
1.95135e-05
2.16678e-05
2.41217e-05
2.39444e-05
2.15974e-05
2.07541e-05
2.06201e-05
2.01492e-05
1.94149e-05
1.99113e-05
1.96707e-05
1.90825e-05
1.62417e-05
1.62122e-05
1.74087e-05
1.9087e-05
2.08181e-05
2.16392e-05
1.96326e-05
1.61085e-05
1.45173e-05
1.55863e-05
1.86529e-05
1.77372e-05
1.57465e-05
1.63306e-05
1.84567e-05
1.66563e-05
1.65899e-05
1.66156e-05
1.69477e-05
1.71612e-05
1.62775e-05
1.44074e-05
1.50689e-05
1.5248e-05
1.36049e-05
1.14676e-05
1.25319e-05
1.48768e-05
1.58415e-05
1.76421e-05
2.03077e-05
2.03025e-05
1.83359e-05
1.72452e-05
1.73318e-05
1.68878e-05
1.62387e-05
1.72762e-05
1.69835e-05
1.60193e-05
1.3484e-05
1.3133e-05
1.39844e-05
1.53626e-05
1.67544e-05
1.76556e-05
1.64968e-05
1.3557e-05
1.20748e-05
1.29317e-05
1.58733e-05
1.41286e-05
1.26279e-05
1.28442e-05
1.45708e-05
1.36495e-05
1.33459e-05
1.3341e-05
1.33325e-05
1.33175e-05
1.29258e-05
1.1837e-05
1.22828e-05
1.25768e-05
1.1246e-05
9.2212e-06
9.96601e-06
1.19929e-05
1.21899e-05
1.35058e-05
1.59937e-05
1.62178e-05
1.49031e-05
1.38809e-05
1.378e-05
1.32047e-05
1.27685e-05
1.40061e-05
1.35819e-05
1.23392e-05
1.04527e-05
1.05692e-05
1.11435e-05
1.20761e-05
1.2974e-05
1.37522e-05
1.33825e-05
1.12515e-05
9.87e-06
1.03521e-05
1.28118e-05
1.05883e-05
9.43028e-06
9.59716e-06
1.09951e-05
1.06987e-05
1.02248e-05
1.01492e-05
9.96742e-06
9.79831e-06
9.61905e-06
9.2682e-06
9.60052e-06
1.0032e-05
9.13247e-06
7.09934e-06
7.43391e-06
9.01422e-06
8.95079e-06
9.92419e-06
1.20855e-05
1.22847e-05
1.13833e-05
1.04848e-05
1.02076e-05
9.63228e-06
9.55185e-06
1.0782e-05
1.05099e-05
9.20541e-06
7.86558e-06
8.26543e-06
8.68998e-06
9.06153e-06
9.45778e-06
1.0278e-05
1.02933e-05
8.95236e-06
7.75569e-06
7.9072e-06
9.72814e-06
7.81975e-06
6.9124e-06
7.00911e-06
7.95147e-06
7.93543e-06
7.53464e-06
7.45012e-06
7.30327e-06
7.03934e-06
6.92318e-06
6.95449e-06
7.25615e-06
7.70479e-06
7.27065e-06
5.47945e-06
5.46106e-06
6.58201e-06
6.37009e-06
7.04833e-06
8.90284e-06
9.15127e-06
8.54597e-06
7.75189e-06
7.37916e-06
6.94837e-06
7.05879e-06
8.26936e-06
8.18982e-06
6.82772e-06
5.82249e-06
6.29504e-06
6.64885e-06
6.65623e-06
6.82071e-06
7.59628e-06
7.676e-06
6.84891e-06
5.80671e-06
5.78162e-06
7.17641e-06
5.75336e-06
5.0154e-06
5.00357e-06
5.57402e-06
5.68201e-06
5.40884e-06
5.32801e-06
5.28909e-06
4.99512e-06
4.93773e-06
5.21038e-06
5.41998e-06
5.6971e-06
5.52419e-06
4.06992e-06
3.98638e-06
4.8523e-06
4.54631e-06
4.93671e-06
6.38088e-06
6.66905e-06
6.2679e-06
5.61144e-06
5.19252e-06
4.8863e-06
5.01104e-06
6.21446e-06
6.2413e-06
5.00513e-06
4.25461e-06
4.66568e-06
5.00876e-06
4.83202e-06
4.88033e-06
5.56613e-06
5.6826e-06
5.21975e-06
4.36425e-06
4.15443e-06
5.26902e-06
4.10896e-06
3.49292e-06
3.49153e-06
3.73009e-06
3.82926e-06
3.71746e-06
3.6594e-06
3.71456e-06
3.43261e-06
3.41335e-06
3.80474e-06
3.94281e-06
4.09472e-06
4.06124e-06
2.91243e-06
2.80405e-06
3.52531e-06
3.21991e-06
3.36938e-06
4.35249e-06
4.59999e-06
4.36066e-06
3.93094e-06
3.59696e-06
3.37541e-06
3.41632e-06
4.46649e-06
4.55027e-06
3.55663e-06
3.00309e-06
3.30302e-06
3.58927e-06
3.39011e-06
3.414e-06
4.00461e-06
4.10119e-06
3.85451e-06
3.22626e-06
2.94925e-06
3.80502e-06
2.79916e-06
2.33416e-06
2.43378e-06
2.51115e-06
2.55348e-06
2.56034e-06
2.49201e-06
2.58197e-06
2.32587e-06
2.31611e-06
2.74814e-06
2.80043e-06
2.89564e-06
3.01145e-06
2.10101e-06
1.93608e-06
2.48054e-06
2.20203e-06
2.2363e-06
2.88509e-06
3.04354e-06
2.93665e-06
2.6936e-06
2.48314e-06
2.31632e-06
2.2596e-06
3.08024e-06
3.17335e-06
2.43497e-06
2.05235e-06
2.20956e-06
2.39461e-06
2.25161e-06
2.28535e-06
2.75671e-06
2.75359e-06
2.59644e-06
2.20826e-06
1.99365e-06
2.6329e-06
1.86444e-06
1.51418e-06
1.65773e-06
1.6559e-06
1.6428e-06
1.73363e-06
1.69498e-06
1.76905e-06
1.55309e-06
1.5514e-06
1.97536e-06
1.97682e-06
1.99184e-06
2.18784e-06
1.50198e-06
1.29729e-06
1.69347e-06
1.44842e-06
1.47874e-06
1.91478e-06
1.97408e-06
1.92286e-06
1.8099e-06
1.69011e-06
1.57084e-06
1.45586e-06
2.05062e-06
2.14467e-06
1.63259e-06
1.37925e-06
1.4535e-06
1.56227e-06
1.43988e-06
1.47391e-06
1.84439e-06
1.7748e-06
1.65661e-06
1.46967e-06
1.33011e-06
1.78958e-06
1.24936e-06
9.79815e-07
1.11814e-06
1.08405e-06
1.03024e-06
1.14937e-06
1.13462e-06
1.194e-06
1.02574e-06
1.03424e-06
1.43567e-06
1.41322e-06
1.34321e-06
1.57039e-06
1.07918e-06
8.67247e-07
1.15368e-06
9.35801e-07
9.75636e-07
1.28056e-06
1.26892e-06
1.23497e-06
1.19612e-06
1.11424e-06
1.04839e-06
9.15209e-07
1.30369e-06
1.42066e-06
1.0843e-06
9.39874e-07
9.77895e-07
1.0375e-06
9.25133e-07
9.38672e-07
1.23217e-06
1.16651e-06
1.07323e-06
1.01438e-06
8.99716e-07
1.21667e-06
8.44354e-07
6.38501e-07
7.58294e-07
7.12124e-07
6.37667e-07
7.646e-07
7.57751e-07
8.08024e-07
6.8613e-07
6.89093e-07
1.04853e-06
1.02562e-06
9.0404e-07
1.11983e-06
7.83597e-07
5.96955e-07
8.19833e-07
6.13953e-07
6.43887e-07
8.74868e-07
8.1551e-07
7.92528e-07
7.96807e-07
7.32452e-07
7.13577e-07
5.914e-07
8.10387e-07
9.36105e-07
7.2477e-07
6.52758e-07
6.72102e-07
7.0431e-07
6.04328e-07
5.93265e-07
8.25073e-07
7.8136e-07
7.10273e-07
7.27393e-07
6.2189e-07
8.33392e-07
5.88436e-07
4.27315e-07
5.25815e-07
4.73905e-07
3.81258e-07
5.12483e-07
5.06807e-07
5.50802e-07
4.7573e-07
4.71384e-07
7.76647e-07
7.55895e-07
6.08933e-07
7.9922e-07
5.79266e-07
4.20895e-07
6.08159e-07
4.22595e-07
4.32086e-07
6.22544e-07
5.24102e-07
5.12025e-07
5.36893e-07
4.78648e-07
4.88045e-07
4.01067e-07
4.96729e-07
6.13301e-07
5.0067e-07
4.74643e-07
4.78167e-07
4.86379e-07
4.10652e-07
3.83412e-07
5.58617e-07
5.33509e-07
4.77107e-07
5.3034e-07
4.38488e-07
5.83309e-07
4.28604e-07
2.93828e-07
3.76594e-07
3.31433e-07
2.31584e-07
3.56167e-07
3.47695e-07
3.8193e-07
3.4537e-07
3.37035e-07
5.83009e-07
5.63569e-07
4.16729e-07
5.79604e-07
4.39311e-07
3.06747e-07
4.7493e-07
3.14933e-07
2.99593e-07
4.61343e-07
3.44217e-07
3.38411e-07
3.80231e-07
3.17838e-07
3.40249e-07
2.97769e-07
3.12622e-07
4.01459e-07
3.58958e-07
3.63837e-07
3.58792e-07
3.47118e-07
3.00947e-07
2.62656e-07
3.87587e-07
3.76438e-07
3.33349e-07
3.9674e-07
3.19883e-07
4.1841e-07
3.28139e-07
2.07965e-07
2.82053e-07
2.515e-07
1.49712e-07
2.62608e-07
2.49419e-07
2.68893e-07
2.60898e-07
2.51175e-07
4.49458e-07
4.25927e-07
2.94439e-07
4.35259e-07
3.40081e-07
2.33716e-07
3.8744e-07
2.56483e-07
2.20667e-07
3.57302e-07
2.39802e-07
2.30675e-07
2.88339e-07
2.20338e-07
2.38014e-07
2.38843e-07
2.13321e-07
2.68758e-07
2.71345e-07
2.94726e-07
2.8901e-07
2.58441e-07
2.40585e-07
1.98186e-07
2.80169e-07
2.77976e-07
2.42829e-07
3.03021e-07
2.37964e-07
3.03257e-07
2.62477e-07
1.52368e-07
2.14814e-07
2.07989e-07
1.12221e-07
2.08899e-07
1.89216e-07
1.94758e-07
2.03376e-07
1.87059e-07
3.53348e-07
3.26079e-07
2.16622e-07
3.40657e-07
2.67519e-07
1.83333e-07
3.25577e-07
2.21271e-07
1.73705e-07
2.88231e-07
1.80396e-07
1.62229e-07
2.32398e-07
1.67801e-07
1.71331e-07
2.0409e-07
1.63644e-07
1.88019e-07
2.13549e-07
2.48756e-07
2.49746e-07
2.03709e-07
2.06049e-07
1.66944e-07
2.14053e-07
2.16589e-07
1.85082e-07
2.36576e-07
1.81575e-07
2.20098e-07
2.14271e-07
1.20332e-07
1.65409e-07
1.83181e-07
1.00673e-07
1.74504e-07
1.50998e-07
1.4754e-07
1.59666e-07
1.33518e-07
2.83233e-07
2.55123e-07
1.68472e-07
2.80801e-07
2.14181e-07
1.46275e-07
2.76623e-07
1.95214e-07
1.44255e-07
2.41119e-07
1.50761e-07
1.22525e-07
1.94496e-07
1.43382e-07
1.32536e-07
1.81473e-07
1.43633e-07
1.43666e-07
1.73289e-07
2.15888e-07
2.2775e-07
1.74201e-07
1.87116e-07
1.5596e-07
1.71265e-07
1.82015e-07
1.49728e-07
1.87049e-07
1.44583e-07
1.60383e-07
1.71659e-07
1.05498e-07
1.29088e-07
1.62007e-07
1.02339e-07
1.47445e-07
1.24016e-07
1.21633e-07
1.28507e-07
9.37247e-08
2.32354e-07
2.04237e-07
1.39799e-07
2.42346e-07
1.73205e-07
1.19241e-07
2.31279e-07
1.71581e-07
1.25395e-07
2.07831e-07
1.41008e-07
1.02633e-07
1.6444e-07
1.31899e-07
1.16117e-07
1.64468e-07
1.36046e-07
1.23014e-07
1.44543e-07
1.89812e-07
2.13668e-07
1.61825e-07
1.76923e-07
1.56329e-07
1.41608e-07
1.64909e-07
1.32878e-07
1.49072e-07
1.22293e-07
1.18461e-07
1.33144e-07
1.01021e-07
1.03938e-07
1.36464e-07
1.07657e-07
1.22922e-07
1.03189e-07
1.14565e-07
1.1113e-07
7.60384e-08
1.9914e-07
1.69657e-07
1.24554e-07
2.13915e-07
1.44131e-07
1.05932e-07
1.91732e-07
1.51242e-07
1.14935e-07
1.80105e-07
1.42363e-07
9.70169e-08
1.39644e-07
1.24589e-07
1.11855e-07
1.49095e-07
1.31116e-07
1.17197e-07
1.25507e-07
1.65799e-07
2.02332e-07
1.57263e-07
1.70458e-07
1.62694e-07
1.2066e-07
1.55621e-07
1.31561e-07
1.20159e-07
1.13425e-07
9.56879e-08
1.03101e-07
1.02102e-07
8.86205e-08
1.06695e-07
1.11103e-07
1.03825e-07
8.90597e-08
1.21977e-07
1.0489e-07
7.88123e-08
1.8026e-07
1.45057e-07
1.19121e-07
1.91214e-07
1.25503e-07
1.0865e-07
1.62389e-07
1.39067e-07
1.14097e-07
1.53922e-07
1.46999e-07
9.9075e-08
1.18566e-07
1.18264e-07
1.1067e-07
1.37253e-07
1.25402e-07
1.17344e-07
1.1505e-07
1.43168e-07
1.87464e-07
1.50285e-07
1.59886e-07
1.66584e-07
1.06039e-07
1.43751e-07
1.38083e-07
1.00774e-07
1.11419e-07
9.09612e-08
8.72335e-08
1.06296e-07
8.57226e-08
8.43718e-08
1.14514e-07
9.71822e-08
8.38602e-08
1.34222e-07
1.04218e-07
8.87237e-08
1.67275e-07
1.24596e-07
1.15578e-07
1.69589e-07
1.15263e-07
1.18033e-07
1.45503e-07
1.39186e-07
1.23624e-07
1.3444e-07
1.53852e-07
1.07667e-07
1.0661e-07
1.18471e-07
1.10926e-07
1.30765e-07
1.22244e-07
1.17107e-07