/*--------------------------------*- C++ -*----------------------------------*\
  =========                 |
  \\      /  F ield         | OpenFOAM: The Open Source CFD Toolbox
   \\    /   O peration     | Website:  https://openfoam.org
    \\  /    A nd           | Version:  10
     \\/     M anipulation  |
\*---------------------------------------------------------------------------*/
FoamFile
{
    format      ascii;
    class       volVectorField;
    location    "15";
    object      U;
}
// * * * * * * * * * * * * * * * * * * * * * * * * * * * * * * * * * * * * * //

dimensions      [0 1 -1 0 0 0 0];

internalField   nonuniform List<vector> 
25600
(
(0.00460695 5.441e-06 -0.000134336)
(0.00449668 1.1794e-06 -0.000119631)
(0.004344 -2.71505e-06 -0.000286798)
(0.00436598 5.43816e-07 -0.000225068)
(0.00449619 3.90763e-06 -8.20546e-05)
(0.00454432 5.78179e-06 -4.76381e-05)
(0.00456573 8.92743e-07 -3.93319e-06)
(0.00434618 -2.3191e-06 -0.000186055)
(0.00443223 1.09453e-06 -0.000212109)
(0.00448796 4.30047e-06 -6.27347e-05)
(0.00465035 5.67693e-06 -0.000149745)
(0.00459128 7.77055e-07 -9.76779e-05)
(0.0044126 -2.51672e-06 -0.000227613)
(0.00440258 5.52712e-07 -0.000194693)
(0.00445697 3.15647e-06 -1.95502e-05)
(0.00450248 5.6519e-06 -6.91119e-05)
(0.00452561 1.70164e-06 -0.000112979)
(0.00431836 -2.3051e-06 -0.000244563)
(0.00445389 1.42566e-06 -0.000273925)
(0.00448396 3.39039e-06 -8.2121e-05)
(0.00453187 4.95506e-06 -5.28331e-05)
(0.00451874 2.9995e-07 -1.31236e-05)
(0.00427984 -2.34066e-06 -0.000130682)
(0.00435577 1.68041e-06 -9.16566e-05)
(0.00443491 5.13484e-06 1.00535e-05)
(0.00454958 6.52477e-06 -7.75172e-05)
(0.00450944 1.38938e-06 -8.07944e-05)
(0.0043447 -2.49625e-06 -0.000198732)
(0.00436929 1.7583e-06 -0.000138518)
(0.00448687 4.87909e-06 -6.71158e-05)
(0.00449763 6.02413e-06 -0.000108251)
(0.00449803 1.17856e-06 -7.39146e-05)
(0.00429935 -2.70138e-06 -0.000159451)
(0.00436659 1.75956e-06 -0.000166754)
(0.00445717 5.14096e-06 -2.96756e-05)
(0.00454587 7.03964e-06 -0.000144232)
(0.00453393 1.84055e-06 -0.000159521)
(0.00435333 -2.4879e-06 -0.000261413)
(0.00444286 1.2695e-07 -0.000262911)
(0.00446945 3.77563e-06 -8.10421e-05)
(0.0141075 5.96355e-05 -0.000460434)
(0.0138383 1.45083e-05 -0.000359466)
(0.0133359 -1.16207e-05 -0.000766108)
(0.0133286 2.08708e-05 -0.000553276)
(0.0137192 4.90997e-05 -0.000248006)
(0.0139121 5.89437e-05 -0.000193425)
(0.0140403 8.32274e-06 -2.33837e-05)
(0.0133322 -1.05437e-05 -0.000497108)
(0.013537 2.22807e-05 -0.000537216)
(0.013709 5.01745e-05 -0.000204224)
(0.0142474 5.71733e-05 -0.000495977)
(0.0141255 8.36382e-06 -0.000282095)
(0.0135419 -1.20412e-05 -0.000603591)
(0.0134514 1.73833e-05 -0.000468647)
(0.0136156 4.27916e-05 -5.47783e-05)
(0.013785 6.18939e-05 -0.000276002)
(0.0139183 1.98579e-05 -0.000350067)
(0.0132395 -5.68039e-06 -0.000648487)
(0.0135945 2.62962e-05 -0.00070423)
(0.0137035 4.3055e-05 -0.000232397)
(0.0138866 5.04216e-05 -0.000201751)
(0.0139031 7.00444e-06 -4.72545e-05)
(0.0131192 -5.9192e-06 -0.00031463)
(0.0132864 3.03561e-05 -0.000173565)
(0.013541 5.92719e-05 -7.11532e-06)
(0.0139393 6.42258e-05 -0.000307087)
(0.0138739 1.47593e-05 -0.000238822)
(0.013326 -9.79017e-06 -0.000487696)
(0.0133285 3.05956e-05 -0.000326733)
(0.0137001 5.94775e-05 -0.000249658)
(0.0137872 6.3426e-05 -0.000375643)
(0.0138536 1.09715e-05 -0.000201365)
(0.0131916 -1.22847e-05 -0.000391021)
(0.0133121 2.93115e-05 -0.000410172)
(0.0135928 6.08352e-05 -0.000113973)
(0.0139226 6.979e-05 -0.000497056)
(0.0139645 1.71285e-05 -0.000465889)
(0.0133745 -1.39521e-05 -0.000691017)
(0.0135731 1.46134e-05 -0.000672277)
(0.0136399 5.05445e-05 -0.000254869)
(0.0242028 0.000164784 -0.000859428)
(0.0238779 3.88466e-05 -0.000615324)
(0.0229479 -1.98755e-05 -0.00115124)
(0.0227984 7.28674e-05 -0.000780625)
(0.0234538 0.000142808 -0.000427091)
(0.0238528 0.000162956 -0.000425479)
(0.0241986 2.15809e-05 -6.7737e-05)
(0.0229271 -1.84781e-05 -0.000722613)
(0.0231642 7.26554e-05 -0.000768253)
(0.0234488 0.000143249 -0.000351919)
(0.0244382 0.000156578 -0.000905057)
(0.0243607 2.16672e-05 -0.000481608)
(0.0233036 -2.30962e-05 -0.000897941)
(0.023039 5.91079e-05 -0.000648078)
(0.023308 0.000124887 -8.51265e-05)
(0.0236381 0.000172086 -0.00054959)
(0.0239898 5.51724e-05 -0.000608083)
(0.0227479 -1.4828e-06 -0.000953934)
(0.0232434 8.48588e-05 -0.00102972)
(0.023466 0.000124553 -0.000389849)
(0.0238285 0.000138668 -0.000423647)
(0.0239793 1.98572e-05 -0.000109598)
(0.0225569 -3.41845e-06 -0.000417652)
(0.0227152 9.5968e-05 -0.000154876)
(0.0231554 0.00016858 -3.77978e-05)
(0.0239146 0.000174481 -0.000617956)
(0.0239224 4.00035e-05 -0.000416674)
(0.0229172 -1.48408e-05 -0.000668006)
(0.0227847 9.63754e-05 -0.000422499)
(0.0234388 0.000168597 -0.000466763)
(0.0236727 0.000174105 -0.000719784)
(0.0239054 2.95208e-05 -0.000338267)
(0.0226909 -2.07906e-05 -0.000526226)
(0.0227491 9.22096e-05 -0.000565025)
(0.0232298 0.000172304 -0.00020633)
(0.0238834 0.000187689 -0.00091384)
(0.0240976 4.43371e-05 -0.000782698)
(0.023021 -2.88582e-05 -0.00102377)
(0.0232339 5.2633e-05 -0.000979216)
(0.0233228 0.000147036 -0.00044253)
(0.0348478 0.000322833 -0.0013304)
(0.0346359 8.3365e-05 -0.00092375)
(0.0331846 -1.8308e-05 -0.00144835)
(0.0327245 0.000159326 -0.000897415)
(0.0336342 0.00028372 -0.000583397)
(0.0343115 0.000320309 -0.000770457)
(0.0350441 4.98569e-05 -0.000180971)
(0.0331298 -1.81055e-05 -0.000850339)
(0.0332629 0.000152533 -0.000880615)
(0.0336389 0.0002795 -0.000452689)
(0.0351649 0.000306298 -0.00137611)
(0.0353065 5.01139e-05 -0.000742958)
(0.0337056 -2.68897e-05 -0.00111687)
(0.0331301 0.000127554 -0.000731859)
(0.0334853 0.00024688 -7.01221e-05)
(0.034012 0.000336647 -0.000871148)
(0.0347473 0.000116951 -0.000917164)
(0.0328334 2.11766e-05 -0.0011583)
(0.0333348 0.000180368 -0.00122733)
(0.0337178 0.000247939 -0.000530348)
(0.0343079 0.000272251 -0.000737071)
(0.0347605 4.83788e-05 -0.000247362)
(0.032605 1.2667e-05 -0.000458037)
(0.0325952 0.000198339 -1.70798e-05)
(0.0332108 0.000329856 -1.50484e-05)
(0.0344247 0.000337108 -0.00100284)
(0.034663 8.63725e-05 -0.000666881)
(0.0331236 -9.08509e-06 -0.000755144)
(0.0326855 0.000198512 -0.00038835)
(0.0336446 0.000327917 -0.000657708)
(0.0341143 0.000339689 -0.0011588)
(0.0346645 6.60813e-05 -0.000543458)
(0.032804 -2.05628e-05 -0.000569721)
(0.0326276 0.000188819 -0.00060459)
(0.0333049 0.000333445 -0.000248733)
(0.0343793 0.000359975 -0.001376)
(0.0349428 9.21948e-05 -0.00115195)
(0.0332904 -3.8381e-05 -0.00126294)
(0.0333772 0.000114941 -0.00116283)
(0.0334561 0.000289835 -0.000598867)
(0.0459372 0.000529467 -0.00183924)
(0.0460835 0.000162417 -0.00134698)
(0.0440383 5.94419e-06 -0.00170694)
(0.0430421 0.000277959 -0.00088766)
(0.0441585 0.000462045 -0.000623263)
(0.0451787 0.000530194 -0.001221)
(0.0465285 0.000108981 -0.000440912)
(0.0439213 2.59958e-06 -0.000917333)
(0.0437632 0.000257556 -0.000844848)
(0.0441754 0.00044645 -0.000402027)
(0.0463088 0.000502787 -0.00187271)
(0.0469167 0.000109595 -0.00113458)
(0.0447352 -1.09415e-05 -0.00130806)
(0.0436708 0.000221253 -0.00071828)
(0.0440676 0.000397391 7.46836e-05)
(0.0448052 0.000551427 -0.00118827)
(0.0461526 0.000218889 -0.00133124)
(0.0434749 7.60888e-05 -0.00130818)
(0.0437757 0.000314104 -0.0012635)
(0.0443647 0.000407313 -0.000572715)
(0.0452188 0.000452814 -0.00112825)
(0.046209 0.000106492 -0.000532864)
(0.0432665 5.25984e-05 -0.000503841)
(0.0428694 0.000332721 0.000255336)
(0.0436054 0.000531182 0.000181172)
(0.0453632 0.000549447 -0.00141584)
(0.0460545 0.000169131 -0.00106988)
(0.0439393 1.98063e-05 -0.000816841)
(0.0429645 0.00033056 -0.000175974)
(0.0442207 0.000523142 -0.000702857)
(0.0450185 0.000557737 -0.00167864)
(0.0460941 0.000135668 -0.000907027)
(0.0435291 -9.33756e-07 -0.000573418)
(0.0428853 0.000311969 -0.000496376)
(0.0437206 0.00052704 -0.000134174)
(0.0453028 0.000579331 -0.00182941)
(0.0464576 0.000174375 -0.0016376)
(0.0441627 -2.89308e-05 -0.00145672)
(0.0439352 0.000198911 -0.00119454)
(0.0439423 0.000464742 -0.000624239)
(0.057299 0.000770368 -0.00227302)
(0.0581287 0.000291459 -0.00194141)
(0.0554995 7.04264e-05 -0.00203729)
(0.0536924 0.0004264 -0.000766387)
(0.0549012 0.00066041 -0.000392856)
(0.0562879 0.000785434 -0.00168455)
(0.0585419 0.000217699 -0.00093191)
(0.0552746 6.24914e-05 -0.00103526)
(0.0545932 0.000383979 -0.000666024)
(0.054934 0.000622667 -4.67332e-05)
(0.0576863 0.000732798 -0.002276)
(0.0590756 0.00021795 -0.00171384)
(0.0563638 4.32709e-05 -0.00157622)
(0.0546028 0.000339725 -0.000637699)
(0.0549582 0.000556211 0.000468264)
(0.0558621 0.000802913 -0.00137681)
(0.0581136 0.000374832 -0.00189501)
(0.0546572 0.000181084 -0.00152158)
(0.0544638 0.000487178 -0.0011312)
(0.0552801 0.000591737 -0.000373519)
(0.0563979 0.000676953 -0.00150532)
(0.0582217 0.000210082 -0.00103264)
(0.0545417 0.000132725 -0.000688594)
(0.0534921 0.000494768 0.000629063)
(0.0542189 0.000751275 0.000716273)
(0.0565649 0.000799887 -0.00172227)
(0.0579957 0.000304933 -0.00169539)
(0.055356 8.93061e-05 -0.000997536)
(0.0535617 0.000485859 0.000225827)
(0.0550398 0.000730116 -0.000418878)
(0.0562343 0.00081489 -0.00217836)
(0.0580996 0.000255121 -0.00151815)
(0.0548654 5.76232e-05 -0.000660962)
(0.0534685 0.000454999 -0.000242034)
(0.0543582 0.000724926 0.000289309)
(0.0564815 0.000824013 -0.002139)
(0.0585373 0.000303748 -0.00228897)
(0.0556102 2.0275e-05 -0.00171857)
(0.0548366 0.000303058 -0.00107698)
(0.0546604 0.000648577 -0.000365513)
(0.068676 0.00101025 -0.00238854)
(0.0705777 0.00047344 -0.00268027)
(0.0675395 0.000194708 -0.00259664)
(0.0646343 0.000612602 -0.000646823)
(0.0657234 0.000853935 0.000278922)
(0.0674051 0.00105965 -0.00192321)
(0.0708816 0.000384975 -0.00166487)
(0.0671399 0.000185507 -0.0013858)
(0.0656867 0.000541608 -0.000452911)
(0.0657843 0.000779367 0.000765835)
(0.0690352 0.000962333 -0.0023349)
(0.0715642 0.000381233 -0.00245046)
(0.0685281 0.000157613 -0.00206835)
(0.0658636 0.000494745 -0.000607438)
(0.0660552 0.000698527 0.00121203)
(0.0669609 0.00105532 -0.00120297)
(0.0704512 0.000584786 -0.00256473)
(0.0663661 0.000354793 -0.00197824)
(0.0653017 0.00070806 -0.000921056)
(0.0663089 0.000785394 0.000234353)
(0.0676123 0.00092517 -0.00164516)
(0.0705969 0.000368446 -0.00173176)
(0.0664058 0.000273569 -0.00119302)
(0.0644369 0.000688278 0.000949321)
(0.0649297 0.00096134 0.00174124)
(0.0677935 0.00105203 -0.00164684)
(0.0702926 0.000496875 -0.002513)
(0.0673449 0.00022156 -0.00150842)
(0.0644399 0.000668202 0.000706459)
(0.0659506 0.000914961 0.00039916)
(0.0675367 0.00107269 -0.00240713)
(0.0704941 0.000427917 -0.00238253)
(0.0667957 0.000178962 -0.00102204)
(0.0643459 0.000623819 5.28348e-05)
(0.0650939 0.000891778 0.00116976)
(0.0676608 0.00104807 -0.00204108)
(0.0709791 0.000475784 -0.00305774)
(0.067583 0.000133365 -0.00221444)
(0.0660166 0.000436032 -0.000911828)
(0.0654765 0.000810747 0.000339086)
(0.0797259 0.00118415 -0.00180836)
(0.0830889 0.000676673 -0.00334083)
(0.0800632 0.000386291 -0.00349671)
(0.0758478 0.00086159 -0.000801133)
(0.07651 0.00102233 0.00144716)
(0.0782321 0.00129478 -0.00153894)
(0.0832184 0.000588113 -0.00244685)
(0.079404 0.000386472 -0.0021331)
(0.0769843 0.000762066 -0.000480875)
(0.0766309 0.000899197 0.00205152)
(0.080021 0.00112754 -0.00166856)
(0.0840244 0.000570822 -0.00311466)
(0.081087 0.000343018 -0.00288568)
(0.0773762 0.000716298 -0.000873325)
(0.0772809 0.000810609 0.0022671)
(0.0778218 0.00125075 -0.000339999)
(0.0828552 0.000813685 -0.00309701)
(0.0785543 0.000601871 -0.00282422)
(0.0762187 0.000999651 -0.000897332)
(0.0772936 0.0009761 0.0013166)
(0.0785634 0.00115405 -0.00118482)
(0.0829991 0.000566355 -0.00242077)
(0.078758 0.000480849 -0.00214743)
(0.0756889 0.000931648 0.000884876)
(0.0756616 0.00113908 0.00324116)
(0.0787455 0.00124223 -0.000781281)
(0.0826225 0.000710894 -0.00326227)
(0.0798073 0.000428034 -0.00252509)
(0.0755906 0.000901178 0.000948675)
(0.0768175 0.00104904 0.00183936)
(0.0786214 0.00125863 -0.00194847)
(0.0829593 0.000619343 -0.0032938)
(0.0792361 0.000373878 -0.0018253)
(0.07551 0.000845723 0.000114303)
(0.0758491 0.0010069 0.00251752)
(0.0785074 0.00117611 -0.00114914)
(0.0834388 0.000643669 -0.00367967)
(0.079964 0.00031897 -0.00306695)
(0.0774211 0.000628651 -0.000960624)
(0.0762842 0.0009293 0.00153093)
(0.0900818 0.00121283 -0.000164579)
(0.0951353 0.000814374 -0.00342888)
(0.0928158 0.000609737 -0.00461417)
(0.0872941 0.00120479 -0.00161146)
(0.0872341 0.00117594 0.00282998)
(0.088454 0.00141763 -0.000113549)
(0.0950709 0.000750051 -0.00277846)
(0.0918185 0.000640744 -0.0032205)
(0.0883957 0.00108608 -0.00114551)
(0.0874665 0.00100484 0.00347773)
(0.0903033 0.0011548 7.40284e-05)
(0.0959366 0.000702126 -0.00320647)
(0.0937482 0.000570567 -0.0039059)
(0.0890085 0.00103866 -0.00174851)
(0.0886062 0.000913185 0.00328552)
(0.0881767 0.00131978 0.00146755)
(0.0948432 0.000973237 -0.0029858)
(0.091059 0.000883605 -0.00396322)
(0.087173 0.00138558 -0.00147423)
(0.0881267 0.00117354 0.0026213)
(0.0889332 0.00130517 0.000240796)
(0.0949381 0.000744695 -0.00261779)
(0.0913438 0.00072965 -0.00343381)
(0.0871901 0.001249 -5.3389e-07)
(0.0864341 0.0012923 0.00481297)
(0.0891139 0.00129055 0.00123557)
(0.094504 0.000854197 -0.00336978)
(0.092491 0.00067638 -0.00396305)
(0.0869987 0.00121773 0.000459012)
(0.0875989 0.00114091 0.00362994)
(0.0891466 0.00128172 -0.000360597)
(0.0950106 0.000733804 -0.00373485)
(0.0919472 0.000609882 -0.00301928)
(0.086936 0.00115544 -0.000457702)
(0.0866538 0.00109484 0.0039967)
(0.0886847 0.00112728 0.000880161)
(0.0953907 0.000698835 -0.00360438)
(0.092487 0.000534594 -0.00415574)
(0.0889692 0.000922307 -0.00159896)
(0.0870704 0.00102199 0.00292191)
(0.0995553 0.00106137 0.00251467)
(0.106034 0.000752105 -0.00230241)
(0.105262 0.000762291 -0.00541001)
(0.098812 0.00161898 -0.00328547)
(0.0979644 0.00136418 0.00366689)
(0.0979116 0.00138583 0.00238713)
(0.105829 0.000741555 -0.00195471)
(0.103911 0.000854298 -0.00415209)
(0.0997119 0.00150958 -0.00268045)
(0.0983435 0.00116797 0.0042573)
(0.0997427 0.00101788 0.00280824)
(0.106658 0.000643048 -0.00208997)
(0.105983 0.000743518 -0.00461335)
(0.100494 0.0014465 -0.00335609)
(0.0999938 0.00106571 0.00356072)
(0.0979584 0.00122984 0.0040298)
(0.105784 0.00093135 -0.00161467)
(0.103471 0.0010938 -0.00484836)
(0.0980902 0.0018387 -0.00294147)
(0.0987721 0.00141059 0.00342554)
(0.098538 0.00133785 0.0026186)
(0.105805 0.000797567 -0.001687)
(0.103665 0.000948555 -0.00450181)
(0.0987335 0.00163004 -0.00193194)
(0.0973209 0.00146752 0.00556666)
(0.0987899 0.00115853 0.00426984)
(0.105322 0.000783645 -0.00209643)
(0.104889 0.000861702 -0.00524572)
(0.0985197 0.00161403 -0.00113194)
(0.0983742 0.00125458 0.0049552)
(0.098913 0.00109792 0.00241389)
(0.106007 0.000623211 -0.00297847)
(0.104431 0.000781316 -0.00412119)
(0.098462 0.00154622 -0.00191865)
(0.0976234 0.00123348 0.00481493)
(0.0981034 0.000887819 0.00392287)
(0.106156 0.000491284 -0.00214758)
(0.10463 0.000655575 -0.00492377)
(0.100454 0.00130215 -0.00304162)
(0.097915 0.00115754 0.00377215)
(0.10843 0.000812125 0.00534444)
(0.115195 0.000398582 0.000322073)
(0.116525 0.000689398 -0.0050296)
(0.109974 0.00198657 -0.00540977)
(0.108662 0.00161555 0.00301465)
(0.106867 0.00125112 0.00510213)
(0.114954 0.000459063 0.000409644)
(0.114942 0.000869225 -0.00404747)
(0.110505 0.00192467 -0.00470282)
(0.109129 0.00144449 0.00348701)
(0.108653 0.000802627 0.00556421)
(0.115661 0.000307179 0.000476928)
(0.116998 0.000710039 -0.0041985)
(0.111353 0.00182948 -0.00525003)
(0.111167 0.00130893 0.00237346)
(0.10746 0.0010498 0.00635396)
(0.115129 0.000597381 0.00120765)
(0.115025 0.00107663 -0.00458074)
(0.108741 0.0022414 -0.00496802)
(0.109144 0.00168751 0.00278952)
(0.107551 0.00127062 0.00509661)
(0.115073 0.000629444 0.000655643)
(0.11494 0.00101632 -0.0044647)
(0.109879 0.00198614 -0.00444826)
(0.10818 0.00169979 0.0045074)
(0.108072 0.000916046 0.00721284)
(0.11455 0.00040174 0.000863617)
(0.11618 0.000816929 -0.00537049)
(0.109736 0.00198965 -0.00353491)
(0.109132 0.00145195 0.00471405)
(0.108152 0.00079213 0.00550804)
(0.115349 0.000185009 -0.000598999)
(0.115875 0.000720147 -0.00426954)
(0.109661 0.00190956 -0.00393754)
(0.108667 0.00148896 0.00405525)
(0.107189 0.000582225 0.0069153)
(0.115182 -5.73507e-05 0.000925908)
(0.115573 0.000497449 -0.00448298)
(0.111403 0.00164415 -0.00490818)
(0.108763 0.00139173 0.00318608)
(0.117266 0.000622745 0.00673011)
(0.122646 -0.000149582 0.0036358)
(0.125629 0.00030097 -0.0029474)
(0.120028 0.00212484 -0.00682953)
(0.11882 0.00183989 0.000646079)
(0.115841 0.00113086 0.00639041)
(0.122442 -2.21611e-05 0.00356473)
(0.124092 0.000573364 -0.00229715)
(0.120136 0.00212882 -0.00606524)
(0.119213 0.00175539 0.00103677)
(0.117531 0.000662584 0.0067223)
(0.122995 -0.000205813 0.00361238)
(0.125957 0.000374772 -0.00220391)
(0.120912 0.00200314 -0.00633945)
(0.121389 0.00155869 -0.000232273)
(0.116999 0.000908578 0.00694825)
(0.122876 5.41296e-05 0.0045455)
(0.12474 0.000742424 -0.00259329)
(0.118609 0.0024216 -0.00640249)
(0.118861 0.00190406 0.000439596)
(0.116379 0.00115964 0.00612003)
(0.122706 0.000251319 0.00360997)
(0.124289 0.000839314 -0.00275075)
(0.119947 0.00216653 -0.0062935)
(0.118384 0.00192662 0.00150681)
(0.117359 0.000696086 0.00825024)
(0.122228 -0.000196 0.00453156)
(0.125411 0.000430588 -0.00360705)
(0.119917 0.00215677 -0.00556495)
(0.119369 0.00168309 0.00246567)
(0.117361 0.000539074 0.00719409)
(0.122972 -0.00046733 0.0027177)
(0.125321 0.000316865 -0.00283397)
(0.119818 0.00204786 -0.00545103)
(0.119129 0.00178669 0.00155454)
(0.116509 0.000410682 0.00810976)
(0.122606 -0.000758452 0.00460404)
(0.124457 -3.19146e-05 -0.00232073)
(0.121054 0.0017383 -0.00610098)
(0.119049 0.00164915 0.000961593)
(0.125928 0.000560856 0.00568622)
(0.129063 -0.000580184 0.00578539)
(0.132171 -0.000219253 0.00012337)
(0.128155 0.00190882 -0.0063807)
(0.127469 0.00186131 -0.00222801)
(0.124718 0.00105852 0.00521518)
(0.128892 -0.000424202 0.00561501)
(0.130974 0.000108142 0.000440754)
(0.12799 0.00196621 -0.00560136)
(0.127675 0.00187846 -0.00180921)
(0.126136 0.000652703 0.00542831)
(0.129259 -0.0005937 0.00546256)
(0.1325 -9.91759e-05 0.00058037)
(0.128562 0.00183257 -0.00561432)
(0.129657 0.0016313 -0.00294636)
(0.126101 0.00085753 0.00515522)
(0.129538 -0.00042018 0.00648407)
(0.131979 0.000251913 0.000401088)
(0.126956 0.00226136 -0.0060181)
(0.127207 0.00191888 -0.00243892)
(0.124956 0.00102029 0.00477535)
(0.129193 -0.000161587 0.0053705)
(0.131267 0.000506657 -3.83452e-05)
(0.128182 0.00204485 -0.00620054)
(0.127011 0.00198657 -0.001992)
(0.126247 0.000574504 0.00642612)
(0.128941 -0.000692051 0.00674368)
(0.1321 -0.000137575 -0.000579206)
(0.128229 0.00196184 -0.00583908)
(0.128086 0.00175797 -0.000679322)
(0.126335 0.000439277 0.00625413)
(0.129469 -0.000976446 0.00509582)
(0.132216 -0.000256193 -0.000343953)
(0.128155 0.00181505 -0.00533478)
(0.127953 0.00190006 -0.00145608)
(0.125671 0.000448142 0.00656849)
(0.129155 -0.0011986 0.00679107)
(0.13103 -0.000681522 0.000728106)
(0.128687 0.00144925 -0.00553401)
(0.127745 0.00171569 -0.00175163)
(0.133159 0.000484876 0.00316646)
(0.134605 -0.000683397 0.00548655)
(0.136474 -0.000478306 0.00235131)
(0.134058 0.00148993 -0.00420778)
(0.13377 0.00155443 -0.00372589)
(0.132307 0.000908005 0.00257783)
(0.134468 -0.00054882 0.00522237)
(0.135738 -0.000172978 0.00233726)
(0.133878 0.00155534 -0.00350311)
(0.133881 0.00163425 -0.00322219)
(0.133264 0.000614512 0.0028392)
(0.134575 -0.000663751 0.00493441)
(0.136771 -0.000354983 0.00236302)
(0.134196 0.00144675 -0.00341311)
(0.135302 0.00137734 -0.00404154)
(0.133411 0.000767345 0.00224901)
(0.135119 -0.000615816 0.00582599)
(0.136688 -4.52845e-05 0.00251744)
(0.133299 0.00188101 -0.00390949)
(0.133479 0.00163276 -0.00394211)
(0.132305 0.000790645 0.00213309)
(0.134658 -0.000429948 0.00479575)
(0.13599 0.00025697 0.00186826)
(0.134189 0.00170161 -0.00427858)
(0.133402 0.00173299 -0.00388913)
(0.133414 0.00044383 0.00309248)
(0.134658 -0.000856067 0.006095)
(0.136478 -0.000475531 0.00174632)
(0.134242 0.00151125 -0.00422712)
(0.134421 0.0015079 -0.00270673)
(0.133728 0.000372364 0.0035477)
(0.135005 -0.00109722 0.005084)
(0.13665 -0.0005924 0.00153978)
(0.134238 0.00134083 -0.00365749)
(0.134334 0.00164638 -0.00313735)
(0.133197 0.000500803 0.00349775)
(0.134831 -0.00117259 0.00619507)
(0.135636 -0.00098659 0.00272767)
(0.134182 0.000959024 -0.00342813)
(0.134011 0.0014283 -0.00319133)
(0.137651 0.000268795 0.00115549)
(0.138335 -0.000597196 0.00356104)
(0.138744 -0.000403304 0.00259577)
(0.137789 0.00115687 -0.00186523)
(0.137556 0.00108281 -0.00317409)
(0.137264 0.000588474 0.000557605)
(0.13828 -0.000494972 0.00324442)
(0.138412 -0.000169115 0.00231331)
(0.137729 0.00117228 -0.00136983)
(0.137742 0.0011771 -0.00270945)
(0.137754 0.000409472 0.000953986)
(0.138166 -0.00055034 0.0030601)
(0.138861 -0.000322839 0.00225555)
(0.137835 0.00110769 -0.0013413)
(0.138435 0.00094479 -0.00315743)
(0.137797 0.000513842 0.000280576)
(0.138684 -0.000618109 0.0036152)
(0.138925 -5.24832e-05 0.00258173)
(0.137421 0.00153326 -0.00165207)
(0.137425 0.00118488 -0.00337043)
(0.137194 0.000446637 0.000233678)
(0.1383 -0.00055624 0.00284509)
(0.138528 0.000164013 0.00192393)
(0.137892 0.00135659 -0.00210209)
(0.137429 0.00129001 -0.00347793)
(0.137762 0.000191956 0.000671294)
(0.138349 -0.000805022 0.00370855)
(0.138759 -0.00045973 0.00208317)
(0.137919 0.00109979 -0.00216568)
(0.138147 0.00106404 -0.00269425)
(0.138182 0.000193629 0.00122912)
(0.138661 -0.000961593 0.00335843)
(0.138834 -0.000554825 0.00173481)
(0.137915 0.000933169 -0.00175765)
(0.138071 0.00116783 -0.00283571)
(0.13782 0.0003809 0.00110779)
(0.138575 -0.000902763 0.00390646)
(0.138313 -0.000848393 0.00264562)
(0.137709 0.000612125 -0.00131826)
(0.137725 0.000960031 -0.00275885)
(0.139404 6.19202e-05 0.000396399)
(0.13972 -0.000483965 0.0017735)
(0.139338 -0.000249687 0.00167876)
(0.139363 0.000916088 -0.000546593)
(0.139267 0.000733008 -0.00174786)
(0.139384 0.000284825 -8.67337e-05)
(0.139751 -0.000409393 0.00148904)
(0.139272 -9.14229e-05 0.00128475)
(0.139379 0.000864644 -0.000271763)
(0.139488 0.000795552 -0.00147864)
(0.139552 0.000178683 0.000345624)
(0.139591 -0.000416081 0.00150802)
(0.139312 -0.000224576 0.00126517)
(0.139366 0.000837647 -0.000330247)
(0.139677 0.000617927 -0.00165288)
(0.13948 0.000257476 -0.000226967)
(0.139877 -0.00055304 0.00174258)
(0.139319 8.56441e-06 0.00150874)
(0.139229 0.00121757 -0.000426216)
(0.139294 0.000829702 -0.00190825)
(0.139353 0.000172321 -0.000274949)
(0.139673 -0.00057823 0.00122548)
(0.139234 0.000111232 0.00101781)
(0.139385 0.00104204 -0.000821003)
(0.139332 0.000912777 -0.00204878)
(0.139493 -2.41981e-05 -6.69271e-05)
(0.139661 -0.000689358 0.0016854)
(0.13935 -0.000346316 0.00127025)
(0.139389 0.000796641 -0.000895812)
(0.139654 0.000701062 -0.00164409)
(0.13979 1.96646e-05 0.000263661)
(0.139946 -0.000764842 0.00168051)
(0.139334 -0.000402008 0.000964015)
(0.139325 0.000664198 -0.000649824)
(0.139569 0.000764313 -0.00163787)
(0.139612 0.000199355 0.000203705)
(0.139944 -0.000646174 0.0019051)
(0.139228 -0.000584265 0.00152029)
(0.139251 0.000433788 -0.000246923)
(0.139346 0.000604474 -0.0015506)
(0.139709 -2.99425e-05 0.00025038)
(0.139771 -0.000392543 0.000781812)
(0.139254 -0.000148361 0.000874898)
(0.139556 0.000690006 -8.82352e-05)
(0.139724 0.000517303 -0.000726761)
(0.139842 0.000129922 -8.96505e-05)
(0.13983 -0.000339277 0.000581961)
(0.13931 -5.93462e-05 0.000512418)
(0.139586 0.000595591 5.62537e-05)
(0.139859 0.000541724 -0.000627334)
(0.139835 3.69443e-05 0.000279188)
(0.139718 -0.000319676 0.000714051)
(0.13922 -0.000171277 0.000547188)
(0.139537 0.000605785 -2.41472e-05)
(0.139879 0.000411906 -0.000672682)
(0.139777 0.000125586 -0.00015036)
(0.139834 -0.000467585 0.000777035)
(0.139152 1.69085e-05 0.000649494)
(0.139528 0.00090071 -2.25271e-05)
(0.139799 0.000582168 -0.000849622)
(0.139845 6.28189e-05 -0.000195566)
(0.139766 -0.000523509 0.000424099)
(0.139179 5.48681e-05 0.00034026)
(0.139558 0.000747589 -0.000297921)
(0.139833 0.000643701 -0.000967124)
(0.139844 -0.000107116 -5.33613e-05)
(0.139733 -0.000563724 0.000668021)
(0.139268 -0.000262806 0.000585871)
(0.139547 0.000554525 -0.000371535)
(0.139892 0.000470993 -0.000790271)
(0.139972 -5.47414e-05 5.63622e-05)
(0.139928 -0.000593404 0.00075167)
(0.139229 -0.000300783 0.000345598)
(0.139467 0.000467029 -0.000212239)
(0.139828 0.000504956 -0.000737221)
(0.139892 9.17908e-05 5.86407e-05)
(0.139985 -0.000478426 0.000842404)
(0.1393 -0.000404477 0.000670837)
(0.139484 0.000300482 6.76196e-05)
(0.139728 0.000387681 -0.000688151)
(0.139634 -4.59269e-05 0.00020182)
(0.139585 -0.000328396 0.000344705)
(0.139151 -8.87554e-05 0.00047795)
(0.139409 0.000492122 2.20021e-05)
(0.139714 0.000357355 -0.000281441)
(0.139795 7.06132e-05 -3.74515e-05)
(0.139641 -0.000294033 0.000224886)
(0.139242 -4.93468e-05 0.000200928)
(0.139439 0.000385319 0.000113426)
(0.139768 0.000357318 -0.000253683)
(0.139716 -3.32185e-05 0.000251171)
(0.139561 -0.000263839 0.000370553)
(0.139149 -0.000144151 0.000250828)
(0.139387 0.000430654 5.12188e-05)
(0.139768 0.000258039 -0.000259763)
(0.139697 7.09317e-05 -6.10224e-05)
(0.139625 -0.000390615 0.000376278)
(0.139067 3.04671e-06 0.000270974)
(0.139416 0.00063421 7.23959e-05)
(0.139777 0.000387282 -0.000373591)
(0.139796 3.57753e-05 -0.000105599)
(0.139621 -0.000445532 0.000120166)
(0.139094 2.08018e-05 7.95906e-05)
(0.139423 0.000509561 -0.000108961)
(0.139802 0.000432072 -0.000461961)
(0.139786 -0.000111723 1.35059e-05)
(0.139591 -0.00045167 0.000267949)
(0.13917 -0.000194158 0.000284028)
(0.139408 0.000369683 -0.000175998)
(0.139767 0.000310199 -0.000376006)
(0.139824 -6.40403e-05 2.34063e-05)
(0.139704 -0.000467586 0.000351005)
(0.139133 -0.000230594 9.54772e-05)
(0.139348 0.000327963 -6.36612e-05)
(0.139738 0.000327269 -0.000327112)
(0.139778 5.23199e-05 5.14352e-05)
(0.139779 -0.000382697 0.00039238)
(0.139239 -0.000290216 0.000308212)
(0.139376 0.000198442 0.000125608)
(0.139692 0.000233752 -0.000306554)
(0.139517 -3.61817e-05 0.000155459)
(0.139467 -0.000275158 0.00015602)
(0.13913 -5.10198e-05 0.000298666)
(0.139314 0.000346431 3.07896e-05)
(0.139612 0.000229581 -0.00012639)
(0.139669 5.00539e-05 -2.31477e-05)
(0.139514 -0.000257813 9.06402e-05)
(0.139218 -3.96347e-05 0.000101466)
(0.139342 0.000239613 9.94408e-05)
(0.139632 0.000218666 -0.000118896)
(0.139573 -6.61983e-05 0.000195194)
(0.139447 -0.000222788 0.000208521)
(0.139136 -0.000123676 0.000146032)
(0.139291 0.000312664 6.25485e-05)
(0.13964 0.000139084 -0.000115707)
(0.139567 4.75988e-05 -2.7407e-05)
(0.1395 -0.000320977 0.00020589)
(0.139075 -9.71943e-06 0.000130795)
(0.139326 0.000441802 7.84908e-05)
(0.139657 0.000234779 -0.000194867)
(0.139655 3.30609e-05 -7.05399e-05)
(0.139519 -0.000367665 1.61348e-05)
(0.139087 5.97922e-06 6.91148e-06)
(0.139334 0.000342598 -4.50187e-05)
(0.139675 0.000267175 -0.000264035)
(0.13965 -9.23328e-05 2.62188e-05)
(0.139491 -0.000354512 0.000111351)
(0.139149 -0.000136661 0.000165359)
(0.139322 0.000245159 -9.83025e-05)
(0.139626 0.000190109 -0.000203402)
(0.139663 -5.08465e-05 8.05524e-06)
(0.139561 -0.000368154 0.000180228)
(0.139115 -0.000178307 1.9407e-05)
(0.139279 0.000237231 -1.84853e-05)
(0.139623 0.000195989 -0.00017202)
(0.139629 4.23323e-05 4.12904e-05)
(0.139632 -0.000313714 0.000201673)
(0.13921 -0.000210974 0.000174671)
(0.1393 0.000133464 0.000118913)
(0.139595 0.000117184 -0.000164645)
(0.139404 -1.95552e-05 0.000117139)
(0.139388 -0.000223707 6.50183e-05)
(0.139131 -3.10484e-05 0.000196831)
(0.139261 0.000249553 1.71298e-05)
(0.139505 0.000133415 -7.06648e-05)
(0.13954 4.23511e-05 -2.09524e-05)
(0.139425 -0.000220609 3.20709e-05)
(0.139203 -3.27208e-05 5.93369e-05)
(0.139287 0.000146842 7.04274e-05)
(0.139515 0.000119961 -6.90493e-05)
(0.139449 -7.71166e-05 0.000138215)
(0.139368 -0.000182838 0.000118119)
(0.139131 -0.000108956 9.58044e-05)
(0.139234 0.000235646 5.38708e-05)
(0.13953 5.47784e-05 -6.17954e-05)
(0.13944 3.55997e-05 -1.52303e-05)
(0.139415 -0.000253716 0.000119521)
(0.139094 -2.23607e-05 6.62154e-05)
(0.139269 0.000314241 6.10508e-05)
(0.139538 0.000123186 -0.00012028)
(0.139513 3.62878e-05 -5.45399e-05)
(0.13944 -0.000294949 -1.87095e-05)
(0.139096 -5.07317e-06 -1.71352e-05)
(0.139279 0.000234529 -2.44404e-05)
(0.13955 0.000148077 -0.00017716)
(0.139508 -6.52419e-05 1.93238e-05)
(0.139411 -0.000272104 3.91771e-05)
(0.139147 -9.49774e-05 0.000100543)
(0.139271 0.000168057 -6.36117e-05)
(0.13951 0.000104682 -0.000125274)
(0.13952 -3.22259e-05 -4.77939e-06)
(0.139465 -0.000283698 9.48679e-05)
(0.139114 -0.000138839 -6.98117e-06)
(0.13924 0.000182718 -7.90873e-06)
(0.139521 0.000102357 -0.000106359)
(0.139492 4.27983e-05 2.89036e-05)
(0.139524 -0.00025353 0.000107095)
(0.139192 -0.00015653 0.000111139)
(0.139252 9.94097e-05 9.70453e-05)
(0.139501 3.43856e-05 -0.000104822)
(0.139297 -5.85438e-06 8.91677e-05)
(0.13931 -0.000170644 1.85318e-05)
(0.139121 -2.79602e-05 0.0001282)
(0.139205 0.000189103 5.35317e-06)
(0.139401 6.69008e-05 -4.53669e-05)
(0.139416 3.75224e-05 -1.87273e-05)
(0.13934 -0.000178495 3.98392e-06)
(0.139177 -3.1894e-05 3.23768e-05)
(0.13923 9.20132e-05 4.50317e-05)
(0.139406 5.47175e-05 -4.62915e-05)
(0.139335 -7.64861e-05 9.28676e-05)
(0.139291 -0.000141203 6.45247e-05)
(0.139114 -0.000101058 6.24233e-05)
(0.139177 0.000184309 4.20372e-05)
(0.139426 1.098e-06 -3.58144e-05)
(0.139323 2.74252e-05 -8.92283e-06)
(0.13933 -0.000187635 7.04663e-05)
(0.139095 -3.54726e-05 2.82201e-05)
(0.13921 0.000232864 4.19298e-05)
(0.139425 4.81036e-05 -7.98427e-05)
(0.139382 3.7984e-05 -4.32474e-05)
(0.139357 -0.000226098 -2.77173e-05)
(0.139091 -1.85176e-05 -2.85966e-05)
(0.13922 0.000168598 -1.64299e-05)
(0.139433 6.72371e-05 -0.000126933)
(0.139375 -4.0269e-05 1.05107e-05)
(0.13933 -0.000201299 3.49964e-06)
(0.139131 -7.07343e-05 5.59325e-05)
(0.139217 0.000124065 -4.40729e-05)