/*--------------------------------*- C++ -*----------------------------------*\
  =========                 |
  \\      /  F ield         | OpenFOAM: The Open Source CFD Toolbox
   \\    /   O peration     | Website:  https://openfoam.org
    \\  /    A nd           | Version:  10
     \\/     M anipulation  |
\*---------------------------------------------------------------------------*/
FoamFile
{
    format      ascii;
    class       volSymmTensorField;
    location    "7.5";
    object      UPrime2Mean;
}
// * * * * * * * * * * * * * * * * * * * * * * * * * * * * * * * * * * * * * //

dimensions      [0 2 -2 0 0 0 0];

internalField   nonuniform List<symmTensor> 
25600
(
(0.0149701 6.39386e-07 -0.000103363 4.42822e-09 4.47322e-08 1.65507e-05)
(0.0149753 2.786e-06 0.00021966 5.1616e-09 8.60105e-08 1.71698e-05)
(0.0148637 1.23687e-06 0.000195864 4.7592e-09 9.39316e-08 1.55422e-05)
(0.0148222 -3.09608e-06 7.75088e-05 4.94936e-09 6.30275e-08 1.55621e-05)
(0.0148871 -8.92549e-07 -0.000153991 5.67881e-09 4.69283e-08 1.69654e-05)
(0.0150497 1.64411e-06 -3.09512e-05 5.28587e-09 6.06614e-08 1.44917e-05)
(0.0148551 2.8009e-06 0.00014161 5.19146e-09 7.84645e-08 1.46765e-05)
(0.0148844 -6.24319e-07 0.000212312 3.98726e-09 8.14489e-08 1.53821e-05)
(0.0149026 -1.35036e-06 -8.21464e-06 4.22478e-09 9.21012e-08 1.4343e-05)
(0.0148989 -2.42855e-06 -0.000101626 4.94225e-09 9.18612e-08 1.52866e-05)
(0.0149071 1.67967e-07 -6.19342e-05 4.39987e-09 5.28321e-08 1.54342e-05)
(0.0148784 2.32104e-06 0.000181226 4.77995e-09 5.11937e-08 1.70394e-05)
(0.0148433 6.94209e-07 0.000211376 3.96221e-09 4.5715e-08 1.74725e-05)
(0.0147699 -1.91028e-06 6.88971e-05 3.67598e-09 2.12769e-08 1.63742e-05)
(0.0149275 -3.42348e-06 -0.000139484 5.28197e-09 8.90439e-08 1.71827e-05)
(0.0150149 -8.46393e-07 -2.15187e-05 5.71519e-09 9.12844e-08 1.5757e-05)
(0.015031 6.37699e-06 0.000169386 1.03158e-08 1.75532e-07 1.7889e-05)
(0.0148879 -3.34823e-08 0.000232376 5.74738e-09 1.1712e-07 1.9686e-05)
(0.0148867 -3.18326e-06 1.19035e-05 5.60199e-09 1.10988e-07 1.80881e-05)
(0.0149921 -5.17555e-06 -0.000147988 7.09432e-09 1.53069e-07 1.82812e-05)
(0.0150319 1.64854e-06 -3.46947e-05 6.33891e-09 7.59607e-08 1.54957e-05)
(0.0149146 1.47347e-06 0.000177159 5.85574e-09 4.62975e-08 1.679e-05)
(0.0147475 9.14344e-07 0.000207107 5.04095e-09 7.6242e-08 1.70195e-05)
(0.014914 -3.49131e-06 3.75789e-05 5.52772e-09 5.33159e-08 1.67569e-05)
(0.014797 2.11383e-06 -0.000162947 6.73697e-09 1.50592e-08 1.85199e-05)
(0.0149912 -1.44958e-07 -3.32522e-05 5.31007e-09 9.03902e-08 1.5978e-05)
(0.0147926 4.76038e-06 0.000138356 7.67364e-09 1.076e-07 1.60875e-05)
(0.0147883 2.17167e-06 0.000220392 5.5821e-09 1.12194e-07 1.6203e-05)
(0.0147887 -4.04412e-06 -2.22415e-05 5.3478e-09 8.4668e-08 1.46232e-05)
(0.0149053 -2.42066e-06 -0.000140538 5.29669e-09 8.68278e-08 1.69204e-05)
(0.014829 5.07582e-07 -5.9483e-05 5.48247e-09 1.11178e-07 1.62438e-05)
(0.0149749 2.10048e-06 0.000187943 5.51911e-09 1.13108e-07 1.62039e-05)
(0.0147641 5.3608e-07 0.000197383 5.38834e-09 1.02698e-07 1.51094e-05)
(0.0148266 -4.31058e-06 4.99967e-05 5.09028e-09 6.6144e-08 1.4677e-05)
(0.0148889 -4.12151e-06 -0.000155397 5.88518e-09 1.06712e-07 1.63057e-05)
(0.0150038 1.62917e-06 -1.59449e-08 5.00122e-09 6.58322e-08 1.42368e-05)
(0.0148355 2.54328e-06 0.000130859 5.37241e-09 7.69535e-08 1.53322e-05)
(0.0147947 -1.07363e-06 0.000236429 4.30487e-09 7.35572e-08 1.76937e-05)
(0.0148698 -3.1148e-06 -1.47519e-05 4.46356e-09 8.03147e-08 1.61846e-05)
(0.0150662 -3.84551e-06 -0.000148909 5.22312e-09 1.03736e-07 1.83301e-05)
(0.0374519 -3.08323e-05 -9.10148e-05 1.35863e-07 -8.74864e-07 0.000111543)
(0.0375188 -1.23807e-05 0.000509379 1.33171e-07 -8.70217e-07 0.000113367)
(0.0374593 -1.13413e-05 0.000570734 1.28492e-07 -7.97503e-07 0.00010812)
(0.0372531 -1.47058e-05 0.000605486 1.19978e-07 -5.1558e-07 0.000111281)
(0.0371437 -3.19829e-05 -6.65861e-05 1.36253e-07 -1.79675e-07 0.000122449)
(0.0376486 -3.12862e-05 6.59639e-05 1.38421e-07 -4.06058e-07 0.000103414)
(0.0374627 -6.65924e-06 0.00032235 1.38268e-07 -4.05279e-07 0.000105047)
(0.0373405 -1.91802e-05 0.000707682 1.13276e-07 -4.8682e-07 0.000105131)
(0.0373879 -1.61961e-05 0.000370803 1.19315e-07 -4.6571e-07 9.94726e-05)
(0.0372161 -2.67125e-05 0.000122629 1.13489e-07 -5.83642e-07 0.000107461)
(0.0373883 -3.11445e-05 -7.30415e-05 1.23226e-07 -8.44853e-07 0.000105113)
(0.0371628 -1.44688e-05 0.000395639 1.14475e-07 -8.57366e-07 0.000115414)
(0.0373731 -1.36149e-05 0.000616599 1.20454e-07 -6.41391e-07 0.000121014)
(0.0368523 -1.81165e-05 0.000531146 1.24155e-07 -3.28502e-07 0.000118314)
(0.0373495 -4.54133e-05 2.0259e-07 1.65266e-07 -1.47746e-07 0.000126017)
(0.0372619 -4.03263e-05 2.03462e-05 1.57996e-07 -8.1092e-07 0.000120076)
(0.0380417 -2.86967e-05 0.000509752 1.63571e-07 -1.09267e-06 0.000147042)
(0.0376 -1.40466e-05 0.000795212 1.58671e-07 -7.37702e-07 0.000144873)
(0.0374863 -3.54988e-05 0.000518125 1.69368e-07 -5.31191e-07 0.000127644)
(0.0376683 -4.79136e-05 3.50654e-05 1.98083e-07 -3.60113e-07 0.000117523)
(0.0373666 -3.86589e-05 6.96422e-05 2.03078e-07 -8.11036e-07 9.9997e-05)
(0.0378827 -1.42482e-05 0.000300889 2.06041e-07 -1.16071e-06 0.000105576)
(0.0366858 -1.33015e-05 0.000633362 1.52576e-07 -9.75681e-07 0.000115693)
(0.0377242 -2.50515e-05 0.000401552 1.30916e-07 -5.27964e-07 0.000124188)
(0.036641 -3.09077e-05 -0.00012363 1.37172e-07 2.88271e-07 0.000131707)
(0.0376757 -4.28449e-05 8.06542e-05 1.75545e-07 2.96329e-08 0.000113327)
(0.036794 -9.45728e-06 0.000157859 1.8648e-07 -3.75694e-07 0.000107434)
(0.0372036 -1.0814e-05 0.000709517 1.67384e-07 -7.55877e-07 0.000108402)
(0.0365895 -2.56884e-05 0.000197001 1.31636e-07 -5.31742e-07 0.00010843)
(0.0373362 -3.90097e-05 3.65483e-05 1.30018e-07 -4.27451e-07 0.000118433)
(0.0365246 -3.02165e-05 -0.000143203 1.2804e-07 -4.98085e-08 0.000117431)
(0.0376047 -2.88759e-05 0.000513784 1.36295e-07 -5.4729e-08 0.000128644)
(0.0369483 -7.92352e-06 0.000680241 1.4165e-07 -6.94452e-08 0.000109836)
(0.0369798 -3.0946e-05 0.000563787 1.34397e-07 -5.28636e-07 0.000101758)
(0.0368271 -3.53305e-05 0.000104592 1.41716e-07 -6.80621e-07 0.000108007)
(0.0371135 -3.60314e-05 0.000170914 1.38277e-07 -9.35461e-07 0.000108221)
(0.0373074 -7.03718e-06 0.000440073 1.4096e-07 -5.55472e-07 0.000125929)
(0.0370307 -1.1251e-05 0.00092374 1.11083e-07 -4.71675e-07 0.000133975)
(0.0372954 -3.21681e-05 0.00036781 1.21691e-07 -3.81321e-07 0.000121512)
(0.0374167 -3.53798e-05 0.00017244 1.24502e-07 -6.68632e-07 0.000123016)
(0.0418977 -9.34899e-05 0.000221825 5.04734e-07 -3.38058e-06 0.000282695)
(0.0419071 -6.43238e-05 0.000737634 5.0194e-07 -2.70282e-06 0.000294899)
(0.0421975 -6.42592e-05 0.000870251 5.14777e-07 -2.6467e-06 0.00028671)
(0.0418308 -6.44673e-05 0.00074776 4.73126e-07 -2.32434e-06 0.000275781)
(0.0420321 -7.8045e-05 0.000218127 4.97106e-07 -1.36074e-06 0.000282494)
(0.0416112 -8.88882e-05 0.000238558 4.38458e-07 -1.70641e-06 0.000252394)
(0.0422121 -5.84736e-05 0.000613877 4.73578e-07 -2.02358e-06 0.000273799)
(0.0417074 -7.68431e-05 0.00100987 3.85398e-07 -3.34697e-06 0.000277726)
(0.042368 -6.41814e-05 0.000633777 4.38723e-07 -3.00764e-06 0.000271568)
(0.0416793 -7.84292e-05 0.000324596 3.80844e-07 -2.50495e-06 0.000295531)
(0.0421535 -8.68068e-05 0.000173892 4.64442e-07 -3.14393e-06 0.000277162)
(0.0418832 -6.51499e-05 0.000786878 4.01966e-07 -2.50925e-06 0.000313313)
(0.0421813 -7.54116e-05 0.000944519 4.58001e-07 -2.51733e-06 0.000316406)
(0.041645 -6.63188e-05 0.000845305 4.38003e-07 -1.81198e-06 0.000307196)
(0.0420014 -9.92782e-05 0.00021136 5.49554e-07 -1.88139e-06 0.000324171)
(0.0419064 -0.00010411 0.00035057 5.47465e-07 -3.0251e-06 0.000282283)
(0.0423551 -8.86672e-05 0.000667116 6.44036e-07 -4.05531e-06 0.000323822)
(0.0422295 -7.81373e-05 0.000990708 6.2437e-07 -4.35797e-06 0.00034985)
(0.0423155 -9.7954e-05 0.000730298 6.4724e-07 -4.35958e-06 0.000333391)
(0.0424742 -0.000103787 0.000164436 7.49563e-07 -3.85213e-06 0.000311999)
(0.0417219 -0.000108548 0.000309296 7.42187e-07 -3.68857e-06 0.000266419)
(0.0428159 -8.89885e-05 0.000588226 7.69705e-07 -3.74351e-06 0.000295505)
(0.0415495 -6.74348e-05 0.000965132 5.67412e-07 -3.66977e-06 0.000307742)
(0.0428196 -9.61501e-05 0.000608405 5.496e-07 -3.21559e-06 0.000310116)
(0.0412725 -7.65977e-05 0.000221255 4.65626e-07 -2.15266e-06 0.000335705)
(0.04235 -0.000117346 0.000148305 6.23694e-07 -1.23023e-06 0.000308659)
(0.0409198 -6.72008e-05 0.000600275 5.96236e-07 -1.87086e-06 0.000302244)
(0.0423513 -7.84647e-05 0.000944437 5.95749e-07 -4.05259e-06 0.000273093)
(0.0406344 -7.44702e-05 0.000605666 4.52412e-07 -3.61144e-06 0.000266575)
(0.0418808 -9.77818e-05 0.000306899 4.57462e-07 -2.38759e-06 0.000305089)
(0.040556 -8.35038e-05 9.31283e-05 4.07106e-07 -4.92414e-07 0.00029817)
(0.0415671 -9.77595e-05 0.000652448 4.68877e-07 4.9957e-07 0.000319004)
(0.0411393 -4.90469e-05 0.000951284 4.75206e-07 6.30973e-07 0.000290237)
(0.0411735 -8.92646e-05 0.000694257 4.83874e-07 -1.23333e-06 0.000264149)
(0.0411648 -8.27059e-05 0.000428831 5.06278e-07 -2.42745e-06 0.000277326)
(0.0409782 -0.000102592 0.000324133 4.94709e-07 -3.44886e-06 0.000282378)
(0.0415504 -7.21402e-05 0.000884316 5.17667e-07 -4.02988e-06 0.000349469)
(0.0416834 -7.81782e-05 0.00123047 4.3485e-07 -5.02693e-06 0.000341535)
(0.0420744 -8.86699e-05 0.000758174 4.72375e-07 -4.43959e-06 0.000311717)
(0.0417776 -8.03493e-05 0.000415913 4.45123e-07 -3.9527e-06 0.000313893)
(0.0334171 -0.000144153 0.000315478 1.84831e-06 2.57965e-06 0.000584289)
(0.0331881 -0.000112526 0.000714879 1.60243e-06 4.07698e-06 0.00062252)
(0.0336124 -0.000123083 0.000882658 1.63896e-06 3.99449e-06 0.000590528)
(0.0331788 -0.000111211 0.00067174 1.40068e-06 3.13665e-06 0.000545453)
(0.0336006 -0.000129414 0.000307996 1.41161e-06 3.65206e-06 0.000536319)
(0.033209 -0.000122729 0.000243875 1.17535e-06 3.35793e-06 0.000494592)
(0.0336715 -0.000124638 0.000636407 1.31504e-06 1.75227e-06 0.000527621)
(0.0335619 -0.000117054 0.000889603 1.24865e-06 -1.64624e-07 0.000540976)
(0.0340727 -0.000129058 0.000741783 1.47732e-06 5.29109e-07 0.000547599)
(0.0335306 -0.000122033 0.000314167 1.3964e-06 3.04054e-06 0.00059109)
(0.0338527 -0.000147637 0.000249063 1.55163e-06 3.77031e-06 0.000546366)
(0.0336212 -0.000121787 0.000750423 1.22815e-06 4.489e-06 0.000588842)
(0.0339557 -0.000143211 0.000947459 1.34525e-06 4.70913e-06 0.000568815)
(0.0337757 -0.000117818 0.000840149 1.08958e-06 4.10938e-06 0.000540057)
(0.0335843 -0.000167016 0.000489643 1.50976e-06 2.53136e-06 0.000548036)
(0.033789 -0.000149986 0.000372388 1.53171e-06 3.49897e-07 0.000514252)
(0.0335628 -0.000156048 0.000837675 1.95267e-06 -1.45305e-06 0.000590243)
(0.0340227 -0.00014384 0.000980837 1.99572e-06 -2.29895e-06 0.000638967)
(0.03374 -0.000168295 0.000897659 2.29679e-06 -9.72408e-07 0.000649398)
(0.0341643 -0.000166786 0.000123485 2.48698e-06 2.59708e-06 0.000663414)
(0.033589 -0.000169664 0.000357349 2.37663e-06 2.30802e-06 0.000544407)
(0.034198 -0.000150464 0.000471873 2.1128e-06 1.93167e-06 0.000553446)
(0.0332257 -0.000139 0.000905546 1.63461e-06 2.54342e-07 0.000592601)
(0.0342312 -0.000153044 0.000489543 1.64659e-06 1.57788e-06 0.000616518)
(0.0331568 -0.000125746 0.000199664 1.31887e-06 2.46699e-06 0.000676918)
(0.0337505 -0.000160044 7.85703e-05 1.59322e-06 4.67966e-06 0.000603654)
(0.0323648 -0.000122406 0.000647589 1.4957e-06 4.27049e-06 0.000575002)
(0.0334928 -0.000121418 0.000781447 1.71521e-06 3.28259e-06 0.000515542)
(0.032201 -0.000118502 0.00073298 1.58963e-06 3.15108e-06 0.000524462)
(0.0328814 -0.00014369 0.000333252 1.84725e-06 6.80418e-06 0.000601814)
(0.0322671 -0.000119938 0.000202923 1.6316e-06 1.01573e-05 0.0005949)
(0.0324833 -0.000149184 0.000695476 1.73484e-06 1.05788e-05 0.000657633)
(0.0327671 -9.49033e-05 0.00100019 1.39884e-06 9.9153e-06 0.000625004)
(0.032595 -0.0001375 0.000717284 1.43578e-06 5.10756e-06 0.000583338)
(0.0328673 -0.000120439 0.000463981 1.51027e-06 6.65024e-07 0.000580087)
(0.0324228 -0.000131418 0.000388223 1.65131e-06 -2.30953e-06 0.000533042)
(0.0329291 -0.00012858 0.000802392 1.97106e-06 -5.70838e-06 0.000565947)
(0.032559 -0.000144599 0.000924961 2.045e-06 -6.58512e-06 0.000575249)
(0.0331581 -0.000136196 0.000843733 1.9934e-06 -3.07406e-06 0.000582515)
(0.0328545 -0.000122253 0.000279135 1.73596e-06 1.18248e-06 0.000641543)
(0.021104 -0.000135082 0.000440333 6.19251e-06 1.4854e-05 0.000907507)
(0.0207004 -0.000106979 0.000578864 5.50956e-06 1.59821e-05 0.000934285)
(0.0210621 -0.000138412 0.000861091 5.41441e-06 1.55342e-05 0.000955348)
(0.0210467 -0.000109617 0.000503925 4.52127e-06 1.66967e-05 0.000924365)
(0.0213624 -0.000140463 0.000239826 4.51804e-06 1.80997e-05 0.000947875)
(0.0212784 -0.000105774 0.000190114 3.87884e-06 1.69517e-05 0.000871623)
(0.0214763 -0.000136149 0.000674418 4.48268e-06 1.34598e-05 0.000933855)
(0.0217175 -0.000106273 0.000816104 4.39102e-06 1.20983e-05 0.000947239)
(0.021711 -0.000142366 0.00074169 5.25877e-06 1.2853e-05 0.000945523)
(0.0219424 -0.000112431 0.000220558 5.01584e-06 1.85772e-05 0.000980303)
(0.0216634 -0.000151617 0.000251122 5.61898e-06 2.22973e-05 0.000877777)
(0.0220214 -0.000118368 0.000490139 4.68258e-06 2.37787e-05 0.000886246)
(0.0215478 -0.000143807 0.000726789 4.7687e-06 2.338e-05 0.000875466)
(0.0221825 -0.000113196 0.000625139 3.73909e-06 2.06632e-05 0.000858082)
(0.0214995 -0.000165795 0.000323864 4.65878e-06 1.72724e-05 0.00091735)
(0.0222062 -0.00013562 0.000312167 4.79206e-06 1.13186e-05 0.00085976)
(0.0213521 -0.000169677 0.000758491 6.73933e-06 6.28779e-06 0.000937932)
(0.022403 -0.000156648 0.000924703 7.08572e-06 6.17826e-06 0.000963145)
(0.0216172 -0.000185518 0.000804723 8.22036e-06 1.0065e-05 0.00098124)
(0.0221082 -0.000162482 0.0002663 7.66007e-06 1.78963e-05 0.00104343)
(0.0215009 -0.000179728 0.000302129 7.52307e-06 2.03733e-05 0.000919054)
(0.0218096 -0.000130638 0.000599404 6.14287e-06 2.07328e-05 0.000916151)
(0.0214394 -0.000145206 0.000800352 5.36718e-06 1.62339e-05 0.000884151)
(0.0214918 -0.000124537 0.000691772 5.07441e-06 1.85825e-05 0.000878502)
(0.0211409 -0.000121212 0.000457547 4.70643e-06 1.989e-05 0.000925801)
(0.0209951 -0.000130436 0.000339564 4.95289e-06 1.71339e-05 0.000879267)
(0.0206495 -0.000116175 0.000590416 5.08742e-06 1.46551e-05 0.000889608)
(0.0205514 -0.000127207 0.00076837 5.90087e-06 1.37952e-05 0.000881553)
(0.0205814 -0.000108581 0.000617863 5.92477e-06 1.66507e-05 0.000877877)
(0.0202546 -0.000120901 0.000342896 6.74228e-06 2.15289e-05 0.000952048)
(0.0203948 -0.00010409 0.000371647 6.20855e-06 2.62211e-05 0.000955478)
(0.0201531 -0.000130982 0.000668585 6.37447e-06 2.54007e-05 0.00105575)
(0.0206272 -9.49548e-05 0.000939095 5.12337e-06 2.40739e-05 0.00102845)
(0.0202221 -0.000120154 0.000668123 4.92368e-06 1.87082e-05 0.000969378)
(0.0206602 -0.000108866 0.000456703 4.65934e-06 1.39359e-05 0.000955912)
(0.0201979 -0.000121397 0.000375618 5.04193e-06 9.13595e-06 0.000872224)
(0.0206792 -0.00011717 0.000768592 5.45408e-06 3.68744e-06 0.000913992)
(0.0204632 -0.000130792 0.00091465 5.86053e-06 5.17105e-07 0.000945384)
(0.0211587 -0.000136554 0.000807454 6.14829e-06 5.31158e-06 0.000951503)
(0.0206419 -0.000105053 0.000384626 5.76694e-06 1.18499e-05 0.000972312)
(0.0111848 -9.12204e-05 0.000421495 1.53941e-05 2.12704e-05 0.0011582)
(0.0110949 -6.70804e-05 0.000580497 1.46846e-05 1.81611e-05 0.00117425)
(0.0112704 -0.000114839 0.000732529 1.44533e-05 1.65796e-05 0.00115364)
(0.0115697 -7.37364e-05 0.000634534 1.18784e-05 2.00013e-05 0.00113144)
(0.0111792 -0.000103461 0.000449065 1.19887e-05 2.52202e-05 0.00116122)
(0.0117497 -6.93483e-05 0.000411115 1.11499e-05 2.37044e-05 0.00113065)
(0.0114876 -9.96339e-05 0.000688002 1.26926e-05 1.92453e-05 0.00121704)
(0.0120783 -7.98578e-05 0.000760769 1.29249e-05 1.87568e-05 0.00126438)
(0.0117203 -0.000114406 0.000658413 1.44341e-05 2.08821e-05 0.00125143)
(0.0122377 -8.83781e-05 0.000203235 1.35916e-05 2.9672e-05 0.00123519)
(0.0116349 -0.000104004 0.000262367 1.37104e-05 3.23497e-05 0.00109408)
(0.0122903 -8.24922e-05 0.00031791 1.19332e-05 3.49209e-05 0.00109293)
(0.0115469 -0.000104337 0.00053294 1.20378e-05 3.23184e-05 0.00109337)
(0.012524 -8.211e-05 0.00039688 1.03613e-05 2.9972e-05 0.00108982)
(0.0116872 -0.000110909 0.000264352 1.1827e-05 2.70192e-05 0.00113069)
(0.0123625 -8.84588e-05 0.000354572 1.25246e-05 1.85549e-05 0.00111083)
(0.0117102 -0.000116299 0.000559283 1.64495e-05 1.25477e-05 0.00117101)
(0.01225 -0.000117579 0.000698 1.82253e-05 1.10229e-05 0.00115289)
(0.0115089 -0.000124231 0.000521636 2.02777e-05 1.79186e-05 0.00113865)
(0.0119978 -0.000103383 0.000366729 1.88485e-05 2.30094e-05 0.00120418)
(0.0114865 -0.000110718 0.000270822 1.76294e-05 3.06413e-05 0.00118423)
(0.0116445 -8.14584e-05 0.000537487 1.47768e-05 3.05832e-05 0.00119083)
(0.0117021 -8.81347e-05 0.000693574 1.3682e-05 2.79673e-05 0.00113562)
(0.011451 -7.80839e-05 0.000607063 1.32818e-05 2.79235e-05 0.00110751)
(0.0115639 -7.97639e-05 0.000463617 1.33414e-05 2.98761e-05 0.00114329)
(0.0110714 -7.54147e-05 0.000419387 1.38563e-05 2.59493e-05 0.00112366)
(0.0112946 -7.0267e-05 0.000566352 1.43105e-05 2.21644e-05 0.00117833)
(0.0108651 -8.15421e-05 0.000725909 1.56918e-05 1.77592e-05 0.00119948)
(0.0112009 -6.64337e-05 0.000535079 1.54958e-05 2.31351e-05 0.00118205)
(0.0107415 -6.46599e-05 0.000338307 1.64087e-05 3.02497e-05 0.00120833)
(0.0108628 -6.13093e-05 0.000398671 1.58891e-05 3.58188e-05 0.00119603)
(0.0106441 -7.64187e-05 0.000464499 1.61824e-05 3.41281e-05 0.00125123)
(0.010796 -5.98506e-05 0.000724915 1.39235e-05 2.97372e-05 0.00127018)
(0.010785 -7.18534e-05 0.000414878 1.3258e-05 2.69782e-05 0.00122823)
(0.0108837 -6.34941e-05 0.000368564 1.21452e-05 2.28247e-05 0.00121644)
(0.0106934 -7.67105e-05 0.000307239 1.276e-05 1.74033e-05 0.00114298)
(0.0109536 -7.76468e-05 0.000674206 1.31105e-05 7.64309e-06 0.00118664)
(0.0110176 -8.6814e-05 0.000722666 1.41049e-05 7.70628e-06 0.00115758)
(0.0111676 -9.45403e-05 0.000734148 1.47014e-05 1.40646e-05 0.00117636)
(0.0109468 -6.56557e-05 0.00041648 1.43871e-05 2.07147e-05 0.00122596)
(0.00506795 -4.23622e-05 0.000220115 3.05941e-05 2.01571e-05 0.00125664)
(0.00530858 -2.67335e-05 0.000402985 2.90029e-05 1.46078e-05 0.0012874)
(0.0052212 -6.18449e-05 0.000545388 2.80334e-05 9.59702e-06 0.00126405)
(0.00548116 -3.42569e-05 0.000406144 2.471e-05 1.22248e-05 0.00123571)
(0.00527141 -5.4343e-05 0.000319873 2.48373e-05 1.43881e-05 0.0012771)
(0.00552091 -2.53328e-05 0.000260293 2.50444e-05 1.38314e-05 0.00125258)
(0.00538467 -4.72934e-05 0.000532926 2.80092e-05 8.23697e-06 0.00130254)
(0.00580182 -4.32301e-05 0.000517425 2.93359e-05 1.10272e-05 0.0012835)
(0.00551082 -6.55264e-05 0.0005215 3.03872e-05 1.31506e-05 0.00124243)
(0.00567924 -4.89027e-05 0.000232579 2.82718e-05 2.32823e-05 0.00119994)
(0.00529811 -5.66114e-05 0.00024796 2.71205e-05 2.34097e-05 0.00107876)
(0.00571052 -3.88839e-05 0.000223697 2.41182e-05 2.43375e-05 0.00105219)
(0.00528252 -5.64121e-05 0.000275774 2.42156e-05 2.23286e-05 0.00103467)
(0.00575496 -4.01734e-05 0.000235538 2.23772e-05 2.21759e-05 0.00103548)
(0.00543344 -5.46418e-05 0.000154362 2.46924e-05 2.21604e-05 0.00109259)
(0.0056502 -3.87173e-05 0.000227305 2.66503e-05 1.24958e-05 0.00113159)
(0.00549201 -5.62658e-05 0.000334801 3.18245e-05 5.0066e-06 0.00122005)
(0.00567031 -6.34097e-05 0.000473295 3.48469e-05 3.21285e-07 0.00123128)
(0.00552474 -5.87471e-05 0.000287129 3.70876e-05 7.85425e-06 0.00122155)
(0.00548031 -5.18487e-05 0.000220483 3.59864e-05 9.60324e-06 0.00125772)
(0.00543475 -3.73081e-05 0.000204457 3.2928e-05 1.51577e-05 0.00123687)
(0.00533065 -3.70357e-05 0.00034481 2.98118e-05 1.59547e-05 0.00122961)
(0.00567157 -4.24231e-05 0.000475132 2.84708e-05 1.68063e-05 0.00118334)
(0.00545107 -4.82484e-05 0.000410391 2.90338e-05 1.59546e-05 0.00116168)
(0.00554214 -4.42577e-05 0.000314 3.01343e-05 1.84459e-05 0.00120058)
(0.00518081 -3.56259e-05 0.000311069 3.11597e-05 1.78859e-05 0.001187)
(0.00538102 -3.29289e-05 0.000448641 3.1182e-05 1.58245e-05 0.00124418)
(0.00525208 -3.85792e-05 0.000542906 3.13951e-05 1.5242e-05 0.0012047)
(0.00538126 -3.42764e-05 0.000370903 3.04123e-05 2.00788e-05 0.0011856)
(0.00507406 -2.79356e-05 0.000247001 3.09926e-05 2.28723e-05 0.00123305)
(0.00509536 -2.27698e-05 0.00019393 3.02076e-05 2.63585e-05 0.00123525)
(0.00492095 -2.49539e-05 0.000316566 3.09802e-05 2.18999e-05 0.00124005)
(0.00510196 -2.17519e-05 0.000397848 2.84968e-05 2.13025e-05 0.00118248)
(0.00502247 -2.4387e-05 0.000325743 2.7229e-05 1.92965e-05 0.00113682)
(0.00496005 -2.06062e-05 0.000245537 2.51167e-05 1.67622e-05 0.00114698)
(0.00491913 -3.04398e-05 0.000236352 2.56285e-05 1.17824e-05 0.00112067)
(0.00489153 -4.13909e-05 0.000354168 2.66837e-05 2.64995e-06 0.00115212)
(0.00514407 -4.24495e-05 0.000438875 2.8599e-05 1.99922e-06 0.00116038)
(0.00507952 -4.36675e-05 0.000339711 2.96428e-05 1.0537e-05 0.00118785)
(0.005241 -2.53459e-05 0.000184588 2.9875e-05 2.07215e-05 0.00127407)
(0.00195746 2.83412e-06 0.000100878 4.82873e-05 -3.98623e-06 0.00103681)
(0.00212866 3.76822e-06 0.00020793 4.62316e-05 -8.14872e-06 0.00104464)
(0.00201697 -1.25576e-05 0.000282177 4.34462e-05 -1.14126e-05 0.00103269)
(0.00228219 -9.9717e-06 0.000268375 4.10067e-05 -1.55673e-05 0.00102653)
(0.00206673 -1.70799e-05 0.000178146 4.15285e-05 -1.34577e-05 0.00106255)
(0.00229894 -1.03033e-06 0.000197975 4.33858e-05 -1.50851e-05 0.00102847)
(0.00204874 -8.45997e-06 0.000244581 4.76163e-05 -1.35514e-05 0.00104237)
(0.00234321 -7.40427e-06 0.000292467 4.97673e-05 -1.26799e-05 0.00103299)
(0.00208411 -1.68715e-05 0.000226607 5.01882e-05 -7.38348e-06 0.00100859)
(0.00233249 -1.02092e-05 0.000129224 4.65893e-05 -2.20301e-06 0.000994754)
(0.00195016 -9.49159e-06 9.58567e-05 4.36484e-05 1.70273e-06 0.000941975)
(0.00221224 -9.01157e-07 0.000159254 3.97275e-05 -9.95403e-07 0.000909654)
(0.00201638 -7.38408e-06 0.000181896 3.92657e-05 -1.67092e-06 0.000888793)
(0.00229179 -6.07156e-06 0.000190374 3.85967e-05 -2.4888e-06 0.000893413)
(0.00213476 -1.04157e-05 0.000115717 4.17237e-05 -2.15767e-06 0.000960669)
(0.00224514 -6.55047e-06 0.000153688 4.43629e-05 -7.90303e-06 0.000959618)
(0.00217856 -1.03429e-05 0.000223173 4.87096e-05 -1.30403e-05 0.00099761)
(0.00227709 -1.52311e-05 0.000276744 5.15742e-05 -1.81809e-05 0.000989664)
(0.00221108 -9.56008e-06 0.000212917 5.41049e-05 -1.70365e-05 0.00098801)
(0.00225122 -1.03095e-05 0.000169608 5.39089e-05 -1.83493e-05 0.00102686)
(0.00214393 4.84531e-06 0.000153639 5.10031e-05 -1.27156e-05 0.00102951)
(0.00215282 -4.84147e-06 0.000224486 4.82363e-05 -1.01421e-05 0.00102266)
(0.00221981 -6.79198e-06 0.000253917 4.72788e-05 -8.65873e-06 0.00100214)
(0.00219672 -1.6028e-05 0.000264777 4.91758e-05 -1.21342e-05 0.000989744)
(0.00219307 -8.1743e-06 0.000176004 5.14117e-05 -1.07302e-05 0.000999365)
(0.00207379 -5.02873e-06 0.000194275 5.32166e-05 -1.0419e-05 0.000953923)
(0.00206027 2.83212e-08 0.000207422 5.23166e-05 -6.73537e-06 0.000944187)
(0.00204278 -1.24388e-05 0.000261589 5.15497e-05 -4.51457e-06 0.00093101)
(0.00206034 -1.02054e-05 0.000174659 4.81651e-05 -1.6452e-06 0.000957929)
(0.00202239 -1.00811e-05 7.61123e-05 4.80571e-05 -2.26123e-06 0.00101037)
(0.00194238 7.17535e-07 4.22092e-05 4.71303e-05 -3.78489e-06 0.00101414)
(0.00188503 7.80467e-06 0.000110828 4.79277e-05 -6.72482e-06 0.000993957)
(0.0019464 5.04883e-06 0.000172247 4.58604e-05 -4.97729e-06 0.000959747)
(0.00205869 4.24545e-06 0.000173001 4.44131e-05 -5.96122e-06 0.000941147)
(0.00197887 1.53586e-06 0.000104948 4.17257e-05 -7.34408e-06 0.000974016)
(0.00200234 -3.46789e-06 0.000127766 4.17054e-05 -1.11803e-05 0.000965095)
(0.00186526 -1.0674e-05 0.000148243 4.23097e-05 -1.6016e-05 0.000992691)
(0.00206289 -7.04147e-06 0.000215862 4.43383e-05 -1.73287e-05 0.000973791)
(0.00198155 -7.16197e-06 0.000117571 4.67616e-05 -1.01803e-05 0.000974343)
(0.00222605 5.2507e-06 8.51051e-05 4.84648e-05 -6.0742e-06 0.00100424)
(0.000651467 9.71568e-06 0.000135124 5.87924e-05 -3.54913e-05 0.000627775)
(0.000695769 1.27322e-05 0.000143015 5.66861e-05 -3.95584e-05 0.000635683)
(0.000643699 3.51062e-06 0.000177007 5.42918e-05 -4.22302e-05 0.000625528)
(0.000769365 7.81435e-06 0.000164804 5.26485e-05 -4.10496e-05 0.000634051)
(0.000713383 4.57035e-06 0.000156432 5.41502e-05 -4.10884e-05 0.000655045)
(0.000785694 1.67884e-05 0.000155678 5.67427e-05 -3.93775e-05 0.000681539)
(0.00066643 1.41368e-05 0.000175478 6.11241e-05 -3.84887e-05 0.000695999)
(0.000789268 1.54949e-05 0.000206686 6.2306e-05 -3.82849e-05 0.000679754)
(0.000697975 9.07771e-06 0.000189919 6.11106e-05 -3.51151e-05 0.000669503)
(0.000801423 1.12826e-05 0.000168096 5.6042e-05 -3.36124e-05 0.000665623)
(0.000657304 1.51443e-05 0.000143549 5.14248e-05 -3.13773e-05 0.000645608)
(0.000748964 1.85256e-05 0.000163495 4.80286e-05 -3.19111e-05 0.000630065)
(0.000678189 1.58342e-05 0.000188517 4.82138e-05 -3.1344e-05 0.000605539)
(0.000784946 1.21138e-05 0.000188573 4.9147e-05 -3.04319e-05 0.000600269)
(0.000723829 1.0387e-05 0.000184544 5.28759e-05 -3.08092e-05 0.000611533)
(0.000740335 1.21361e-05 0.000162196 5.54426e-05 -3.15685e-05 0.000614589)
(0.00069808 1.55316e-05 0.0001818 5.86753e-05 -3.47382e-05 0.000620977)
(0.00074483 1.44693e-05 0.000194578 6.05382e-05 -3.86031e-05 0.000615835)
(0.000740209 1.68921e-05 0.000201059 6.23568e-05 -3.86522e-05 0.00062129)
(0.000766673 1.20439e-05 0.000186509 6.24214e-05 -3.81616e-05 0.000654898)
(0.000724564 1.58086e-05 0.000175306 6.07854e-05 -3.40563e-05 0.000661179)
(0.000707209 1.07841e-05 0.000183562 5.92343e-05 -3.28384e-05 0.000674248)
(0.000715345 1.04733e-05 0.000200061 5.96005e-05 -3.39441e-05 0.00067492)
(0.000752159 6.21166e-06 0.000200771 6.23271e-05 -3.62961e-05 0.000671634)
(0.00073198 1.37741e-05 0.000171037 6.54028e-05 -3.78117e-05 0.000674199)
(0.000718467 1.68224e-05 0.000159409 6.72706e-05 -3.62079e-05 0.000650374)
(0.000662868 2.11783e-05 0.000163308 6.55149e-05 -3.31664e-05 0.000635748)
(0.000697548 1.13463e-05 0.000187438 6.3521e-05 -2.7977e-05 0.000614241)
(0.000674265 7.8802e-06 0.000176078 5.97903e-05 -2.54785e-05 0.000624531)
(0.000698344 5.61122e-06 0.000156034 5.97457e-05 -2.68702e-05 0.000647529)
(0.000635023 1.13472e-05 0.00013706 5.89387e-05 -2.88759e-05 0.000662157)
(0.000643956 1.68968e-05 0.000151416 5.94226e-05 -3.31035e-05 0.000667567)
(0.000632107 9.87014e-06 0.00017738 5.7833e-05 -3.56164e-05 0.000657159)
(0.000700855 7.92985e-06 0.000180829 5.59192e-05 -3.68399e-05 0.000652794)
(0.000660391 1.82235e-06 0.000150688 5.32836e-05 -3.98698e-05 0.000671014)
(0.000680243 5.2981e-06 0.00012936 5.29252e-05 -4.01395e-05 0.000654085)
(0.000607388 4.0757e-06 0.000125032 5.3387e-05 -4.05041e-05 0.000648242)
(0.000673079 9.96416e-06 0.000132115 5.52737e-05 -3.68921e-05 0.000625753)
(0.000650405 7.96978e-06 0.000137196 5.76466e-05 -3.30903e-05 0.000612531)
(0.000734221 1.31794e-05 0.000127239 5.93472e-05 -3.26072e-05 0.000629328)
(0.0001875 1.06118e-05 0.000118578 5.46702e-05 -4.35299e-05 0.00033401)
(0.00019935 1.11987e-05 0.000120368 5.29941e-05 -4.57622e-05 0.000326451)
(0.00018278 5.41526e-06 0.00012196 5.21478e-05 -4.52297e-05 0.000320165)
(0.000215029 7.65767e-06 0.000130074 5.18773e-05 -4.42916e-05 0.000322877)
(0.000196208 7.54667e-06 0.00013061 5.45253e-05 -4.36706e-05 0.000334642)
(0.000219553 1.4304e-05 0.000130006 5.74587e-05 -4.29807e-05 0.000340444)
(0.000189318 1.54639e-05 0.000126715 6.09561e-05 -4.26242e-05 0.000345218)
(0.0002231 1.62659e-05 0.000136677 6.11282e-05 -4.29898e-05 0.000346421)
(0.000208036 1.40504e-05 0.000140201 5.87086e-05 -4.09284e-05 0.000346071)
(0.000243424 1.47944e-05 0.000147231 5.36834e-05 -4.04936e-05 0.000349839)
(0.000210701 1.6301e-05 0.000135647 4.97516e-05 -3.87116e-05 0.000343793)
(0.000227517 1.77477e-05 0.00013193 4.74326e-05 -3.94352e-05 0.000340705)
(0.000208512 1.61672e-05 0.000132677 4.81697e-05 -3.8626e-05 0.000338842)
(0.000225106 1.43606e-05 0.000137127 4.8842e-05 -3.89958e-05 0.000329896)
(0.000223886 1.30267e-05 0.000137148 5.15625e-05 -3.86948e-05 0.000330165)
(0.00021716 1.57494e-05 0.000127586 5.30355e-05 -3.94369e-05 0.000320564)
(0.000214082 1.94079e-05 0.000116557 5.48739e-05 -4.01643e-05 0.000319288)
(0.000217559 1.92646e-05 0.000123426 5.57312e-05 -4.32187e-05 0.000318796)
(0.000230509 1.99555e-05 0.000132107 5.66498e-05 -4.17873e-05 0.000322762)
(0.000232841 1.69911e-05 0.000148079 5.68514e-05 -4.08215e-05 0.000332652)
(0.000230379 1.66464e-05 0.000144816 5.64345e-05 -3.86266e-05 0.000340919)
(0.000209489 1.56382e-05 0.000145844 5.6229e-05 -3.86477e-05 0.000347043)
(0.000219367 1.37762e-05 0.000150337 5.76181e-05 -3.94961e-05 0.000355261)
(0.000225057 1.32421e-05 0.000153959 5.9671e-05 -4.03464e-05 0.000356727)
(0.000220469 1.59443e-05 0.000143172 6.15881e-05 -4.17966e-05 0.000362595)
(0.000214534 1.9399e-05 0.000132522 6.27024e-05 -4.05259e-05 0.000349581)
(0.000192039 2.12726e-05 0.000118788 6.13124e-05 -3.84806e-05 0.000342027)
(0.000196177 1.98786e-05 0.000125702 6.02161e-05 -3.62794e-05 0.000340972)
(0.000197376 1.56031e-05 0.000137573 5.82273e-05 -3.47506e-05 0.000343509)
(0.000208873 1.5924e-05 0.000149483 5.85583e-05 -3.56368e-05 0.000349888)
(0.000197899 1.48291e-05 0.000147516 5.82766e-05 -3.70694e-05 0.00035117)
(0.000194867 1.70132e-05 0.00014257 5.83447e-05 -3.93263e-05 0.000345597)
(0.000185447 1.01835e-05 0.000143523 5.69585e-05 -4.15031e-05 0.000341972)
(0.000201977 9.31772e-06 0.000146001 5.52197e-05 -4.07217e-05 0.000335866)
(0.000186133 6.11909e-06 0.000138668 5.34037e-05 -4.0064e-05 0.000335257)
(0.000190436 1.11596e-05 0.000127749 5.28312e-05 -3.73248e-05 0.000329405)
(0.000165588 1.30547e-05 0.000112509 5.33236e-05 -3.57477e-05 0.000327554)
(0.000184155 1.73803e-05 0.000114401 5.42204e-05 -3.57706e-05 0.000331903)
(0.000181316 1.48717e-05 0.000116607 5.5025e-05 -3.64652e-05 0.000332314)
(0.000208682 1.56263e-05 0.000123043 5.52545e-05 -4.0367e-05 0.000341147)
(7.10085e-05 9.61522e-06 6.37531e-05 4.45009e-05 -3.22266e-05 0.000146903)