# y+ ()       
# Time        	patch         	min           	max           	average       
8             	bottomWall	1.247242e+00	3.453794e+00	2.067688e+00
8             	topWall	1.260400e+00	3.599953e+00	2.085604e+00
