# y+ ()       
# Time        	patch         	min           	max           	average       
10            	bottomWall	2.588914e+00	5.113414e+00	3.592484e+00
10            	topWall	2.621693e+00	4.998287e+00	3.618181e+00
