# y+ ()       
# Time        	patch         	min           	max           	average       
66            	bottomWall	2.593693e+00	4.898608e+00	3.511446e+00
66            	topWall	2.683901e+00	4.892250e+00	3.592615e+00
