/*--------------------------------*- C++ -*----------------------------------*\
  =========                 |
  \\      /  F ield         | OpenFOAM: The Open Source CFD Toolbox
   \\    /   O peration     | Website:  https://openfoam.org
    \\  /    A nd           | Version:  10
     \\/     M anipulation  |
\*---------------------------------------------------------------------------*/
FoamFile
{
    format      ascii;
    class       volScalarField;
    location    "2";
    object      nut;
}
// * * * * * * * * * * * * * * * * * * * * * * * * * * * * * * * * * * * * * //

dimensions      [0 2 -1 0 0 0 0];

internalField   nonuniform List<scalar> 
25600
(
3.79649e-05
3.66636e-05
3.23418e-05
3.00312e-05
3.16694e-05
3.64714e-05
4.12958e-05
3.38202e-05
3.19948e-05
3.32552e-05
3.86009e-05
4.14733e-05
3.434e-05
2.88657e-05
2.93628e-05
3.3464e-05
3.73976e-05
3.34914e-05
2.99853e-05
3.43764e-05
3.68281e-05
4.29759e-05
3.88891e-05
3.33372e-05
3.26494e-05
3.68557e-05
4.06525e-05
3.39213e-05
3.00287e-05
3.2461e-05
3.97106e-05
4.13342e-05
3.7276e-05
3.19786e-05
3.59017e-05
3.97307e-05
4.37992e-05
3.56832e-05
3.24041e-05
3.40779e-05
3.44753e-05
3.53924e-05
3.48123e-05
3.14457e-05
2.94528e-05
3.07851e-05
3.834e-05
3.6464e-05
3.37479e-05
3.23189e-05
3.35519e-05
3.84647e-05
3.7205e-05
3.21344e-05
2.88858e-05
2.97518e-05
3.37272e-05
3.45094e-05
3.02166e-05
3.30554e-05
3.21494e-05
3.80084e-05
4.07417e-05
3.70728e-05
3.22675e-05
3.19851e-05
3.75688e-05
3.66264e-05
3.1658e-05
2.89684e-05
3.40401e-05
3.83826e-05
3.93464e-05
3.43665e-05
3.51237e-05
3.49082e-05
4.1442e-05
3.90532e-05
3.42184e-05
3.25793e-05
2.63149e-05
2.86987e-05
3.37609e-05
3.2823e-05
2.61782e-05
2.0645e-05
2.71512e-05
3.5127e-05
3.42263e-05
2.93035e-05
2.39416e-05
2.80194e-05
3.54637e-05
3.59588e-05
2.82566e-05
2.30013e-05
2.4506e-05
3.33503e-05
3.15545e-05
2.92637e-05
2.4678e-05
2.49524e-05
3.45291e-05
3.97541e-05
3.14888e-05
2.36352e-05
2.70373e-05
3.57265e-05
3.45041e-05
2.4585e-05
2.27497e-05
2.67081e-05
3.63138e-05
3.60483e-05
3.311e-05
2.53892e-05
3.07273e-05
3.83404e-05
3.66748e-05
2.85668e-05
1.73713e-05
1.68501e-05
2.39373e-05
3.16447e-05
2.47763e-05
1.47727e-05
1.14919e-05
2.27262e-05
3.11095e-05
2.73472e-05
1.70619e-05
1.31963e-05
2.19477e-05
3.40731e-05
3.08606e-05
1.96341e-05
1.32589e-05
2.35687e-05
3.20991e-05
2.7021e-05
1.98958e-05
1.26907e-05
1.62659e-05
3.33731e-05
3.21375e-05
1.88e-05
1.3521e-05
2.35419e-05
3.49769e-05
2.41259e-05
1.51286e-05
1.13744e-05
2.15225e-05
3.22709e-05
3.15246e-05
1.90607e-05
1.40257e-05
2.46534e-05
3.61511e-05
2.58285e-05
1.22719e-05
9.59693e-06
9.94871e-06
2.25517e-05
2.43827e-05
1.34448e-05
9.57086e-06
7.18221e-06
1.98404e-05
2.51659e-05
1.47042e-05
9.46358e-06
5.75902e-06
1.97758e-05
3.02107e-05
2.12765e-05
9.45792e-06
9.96918e-06
2.38422e-05
2.55581e-05
1.75793e-05
1.16885e-05
4.64856e-06
1.65225e-05
2.84234e-05
1.74295e-05
1.01371e-05
7.8431e-06
2.52152e-05
2.45934e-05
1.29461e-05
8.93768e-06
5.7267e-06
1.95595e-05
2.53622e-05
1.65723e-05
9.47939e-06
5.40444e-06
2.43458e-05
2.47532e-05
1.20161e-05
8.45198e-06
4.7665e-06
1.07175e-05
2.00812e-05
1.55117e-05
7.47082e-06
4.12934e-06
7.61947e-06
1.86223e-05
1.45436e-05
8.94777e-06
4.35759e-06
4.52971e-06
2.11033e-05
2.23889e-05
9.0219e-06
4.29392e-06
1.2122e-05
1.84994e-05
1.63917e-05
1.09203e-05
5.23448e-06
5.08367e-06
1.83672e-05
1.60249e-05
8.28706e-06
4.25271e-06
1.15699e-05
1.9299e-05
1.45845e-05
6.9026e-06
3.30295e-06
8.82648e-06
1.45176e-05
1.52813e-05
8.12824e-06
6.07049e-06
7.69651e-06
2.02324e-05
1.30204e-05
6.54108e-06
3.92983e-06
4.67335e-06
1.41592e-05
1.58202e-05
8.00069e-06
2.54427e-06
3.89668e-06
1.24878e-05
1.38305e-05
6.6894e-06
2.6459e-06
2.84888e-06
1.24692e-05
1.80899e-05
9.66805e-06
3.03518e-06
7.17102e-06
1.19178e-05
1.36896e-05
9.67033e-06
3.88344e-06
3.63081e-06
9.84158e-06
1.24324e-05
6.94299e-06
3.34154e-06
3.74822e-06
1.22559e-05
1.42368e-05
8.78417e-06
2.74889e-06
6.20443e-06
9.10551e-06
1.34099e-05
7.93272e-06
4.21961e-06
1.19535e-06
1.29162e-05
1.37852e-05
7.96144e-06
3.24094e-06
3.06313e-06
1.09969e-05
1.70185e-05
1.22221e-05
3.00125e-06
4.51841e-06
1.11895e-05
1.47965e-05
7.17034e-06
3.03214e-06
4.27358e-06
7.92188e-06
1.23612e-05
8.98176e-06
2.81862e-06
6.05573e-06
9.91799e-06
1.28758e-05
9.53423e-06
3.90002e-06
3.49706e-06
6.60338e-06
1.1856e-05
8.34874e-06
3.85807e-06
2.01857e-06
8.7326e-06
1.16758e-05
1.09367e-05
3.45204e-06
4.8992e-06
7.82562e-06
1.03453e-05
1.0004e-05
3.28784e-06
1.79206e-06
9.70758e-06
1.55818e-05
9.16936e-06
4.65323e-06
3.58265e-06
9.77479e-06
1.84062e-05
1.39713e-05
6.78664e-06
5.08276e-06
7.77944e-06
1.55237e-05
9.40631e-06
5.61046e-06
5.50493e-06
2.74652e-06
9.12862e-06
8.56124e-06
4.46202e-06
4.46587e-06
7.64107e-06
1.05375e-05
9.36303e-06
4.3559e-06
3.84144e-06
6.35313e-06
1.54678e-05
9.62711e-06
3.68288e-06
2.32444e-06
8.35289e-06
1.21788e-05
1.22688e-05
5.76935e-06
3.10439e-06
7.38678e-06
8.57068e-06
1.03806e-05
4.69404e-06
3.7276e-06
1.05084e-05
1.18678e-05
9.00596e-06
7.41046e-06
6.62851e-06
6.55048e-06
1.26922e-05
1.13107e-05
8.15609e-06
6.33811e-06
4.21122e-06
1.05321e-05
1.05861e-05
7.34122e-06
5.146e-06
4.71793e-06
7.75205e-06
8.85406e-06
7.67427e-06
5.0296e-06
3.32141e-06
7.26407e-06
8.30532e-06
7.93013e-06
9.29813e-06
3.74562e-06
1.5175e-05
1.2088e-05
7.52221e-06
6.33568e-06
6.76344e-06
1.445e-05
1.41204e-05
6.9361e-06
7.10041e-06
5.20341e-06
9.57828e-06
1.05092e-05
8.50016e-06
6.82526e-06
7.28776e-06
7.44989e-06
7.49069e-06
7.39056e-06
8.03261e-06
8.60268e-06
6.53088e-06
6.71037e-06
4.99503e-06
6.85026e-06
8.96067e-06
6.00245e-06
8.693e-06
6.61245e-06
5.34909e-06
9.14883e-06
7.85726e-06
8.60042e-06
6.69358e-06
7.06463e-06
7.94319e-06
7.98454e-06
7.23494e-06
8.06194e-06
7.07079e-06
8.8387e-06
7.82031e-06
1.11269e-05
7.26661e-06
7.57245e-06
5.44299e-06
9.30279e-06
1.09492e-05
6.26078e-06
7.38835e-06
5.88606e-06
7.39656e-06
8.60235e-06
8.56533e-06
6.02947e-06
8.14801e-06
9.55848e-06
4.19991e-06
4.58812e-06
5.61712e-06
1.2506e-05
1.19465e-05
6.54338e-06
3.07854e-06
4.8014e-06
1.14858e-05
9.64345e-06
4.67533e-06
4.60639e-06
5.48893e-06
1.1302e-05
1.05666e-05
5.34217e-06
3.93959e-06
7.99858e-06
1.19529e-05
7.28687e-06
3.92255e-06
5.0446e-06
2.99932e-06
1.39561e-05
1.33921e-05
5.83177e-06
3.50318e-06
4.85465e-06
9.9416e-06
8.72708e-06
7.31522e-06
4.04017e-06
5.39559e-06
1.14742e-05
7.94681e-06
5.27407e-06
5.39352e-06
4.90685e-06
1.34273e-05
8.32804e-06
3.04018e-06
2.93916e-06
3.33338e-06
1.05656e-05
1.09781e-05
5.99326e-06
3.41057e-06
2.94744e-06
1.0034e-05
1.06485e-05
4.56312e-06
4.12725e-06
4.10267e-06
8.30889e-06
1.00549e-05
3.58692e-06
2.80627e-06
6.54213e-06
1.05547e-05
6.53662e-06
3.6367e-06
3.73117e-06
1.86571e-06
1.17538e-05
1.30195e-05
4.44013e-06
2.81207e-06
2.98641e-06
1.1971e-05
1.364e-05
8.77337e-06
3.73998e-06
3.33938e-06
1.19426e-05
1.13564e-05
5.84989e-06
3.35817e-06
3.78984e-06
1.19915e-05
5.57973e-06
2.38103e-06
2.6115e-06
1.8415e-06
5.10346e-06
6.94633e-06
3.78559e-06
2.84619e-06
1.9912e-06
4.6762e-06
7.64195e-06
3.601e-06
3.20499e-06
2.28722e-06
3.49933e-06
6.47286e-06
2.81321e-06
2.69331e-06
3.01575e-06
6.04169e-06
4.92278e-06
2.97741e-06
3.0913e-06
1.75037e-06
5.20007e-06
8.22066e-06
3.01542e-06
2.92557e-06
1.65114e-06
8.27045e-06
1.03987e-05
6.27403e-06
3.07508e-06
1.55971e-06
6.75427e-06
8.05592e-06
4.08589e-06
3.10246e-06
2.28048e-06
5.93811e-06
3.73189e-06
1.88042e-06
2.06578e-06
1.44968e-06
1.48344e-06
3.75213e-06
2.40933e-06
2.0534e-06
1.57619e-06
1.5944e-06
4.65368e-06
2.29146e-06
2.1007e-06
1.47426e-06
1.63111e-06
3.7716e-06
2.16525e-06
2.11188e-06
1.25691e-06
2.75223e-06
3.28781e-06
2.28085e-06
2.11527e-06
1.59323e-06
1.51091e-06
4.38173e-06
2.17636e-06
2.24946e-06
1.33998e-06
2.91464e-06
4.74859e-06
3.51902e-06
2.08988e-06
1.16475e-06
2.12452e-06
3.90771e-06
2.49258e-06
2.43416e-06
1.67757e-06
2.3484e-06
2.84615e-06
1.51737e-06
1.50097e-06
1.10551e-06
1.2532e-06
2.73853e-06
1.80899e-06
1.3686e-06
1.19006e-06
1.48821e-06
3.50509e-06
1.89713e-06
1.30527e-06
1.08894e-06
1.31502e-06
2.77831e-06
1.74627e-06
1.44087e-06
9.43529e-07
1.79896e-06
2.37283e-06
1.8986e-06
1.42067e-06
1.19951e-06
1.538e-06
3.06448e-06
1.96183e-06
1.60134e-06
1.11123e-06
1.607e-06
2.31767e-06
2.28921e-06
1.44746e-06
9.18872e-07
1.57325e-06
2.71555e-06
1.67068e-06
1.65917e-06
1.25223e-06
1.82127e-06
2.17035e-06
1.1733e-06
1.1688e-06
8.20052e-07
1.1742e-06
2.25222e-06
1.47185e-06
9.92241e-07
9.27987e-07
1.2918e-06
2.71381e-06
1.65059e-06
9.08969e-07
8.68881e-07
1.06324e-06
2.00015e-06
1.47635e-06
9.75427e-07
7.05576e-07
1.27957e-06
1.67402e-06
1.55746e-06
1.00473e-06
8.6573e-07
1.386e-06
2.39441e-06
1.6076e-06
1.0988e-06
8.61333e-07
1.54045e-06
1.87864e-06
1.71222e-06
1.04542e-06
7.03257e-07
1.39578e-06
2.19216e-06
1.21702e-06
1.24006e-06
9.16727e-07
1.46931e-06
1.69692e-06
9.04403e-07
9.00899e-07
6.02143e-07
9.09925e-07
1.8809e-06
1.21338e-06
7.36758e-07
7.17951e-07
1.00808e-06
2.06421e-06
1.42152e-06
6.63313e-07
6.75527e-07
8.54685e-07
1.46991e-06
1.29672e-06
6.49831e-07
5.13979e-07
9.20339e-07
1.18341e-06
1.24696e-06
7.30788e-07
6.30082e-07
1.13602e-06
1.82316e-06
1.29277e-06
8.31008e-07
6.54139e-07
1.26366e-06
1.49769e-06
1.3158e-06
8.51155e-07
5.3611e-07
1.06705e-06
1.78701e-06
9.37923e-07
9.09914e-07
6.73992e-07
1.08182e-06
1.34488e-06
6.81372e-07
6.95253e-07
4.45285e-07
6.67462e-07
1.5511e-06
9.78633e-07
5.59683e-07
5.59885e-07
7.73702e-07
1.52387e-06
1.26381e-06
4.98952e-07
5.11676e-07
7.20085e-07
1.05372e-06
1.1003e-06
4.38591e-07
3.6723e-07
6.76811e-07
8.36494e-07
9.70184e-07
5.58569e-07
4.62182e-07
8.8006e-07
1.4636e-06
1.01314e-06
6.07533e-07
4.84456e-07
1.01306e-06
1.20554e-06
9.66859e-07
6.85302e-07
4.02876e-07
7.96021e-07
1.46195e-06
7.293e-07
6.8162e-07
5.00112e-07
7.64904e-07
1.06604e-06
5.05939e-07
5.30824e-07
3.34163e-07
4.57424e-07
1.26502e-06
8.03865e-07
4.19259e-07
4.30377e-07
5.92069e-07
1.09992e-06
1.11252e-06
3.80737e-07
3.72135e-07
6.13127e-07
7.62535e-07
9.03609e-07
3.07024e-07
2.53243e-07
5.0896e-07
5.89662e-07
7.61731e-07
4.41632e-07
3.34264e-07
6.4419e-07
1.21371e-06
7.58455e-07
4.59749e-07
3.61852e-07
7.84558e-07
9.90154e-07
6.91624e-07
5.58366e-07
3.04805e-07
5.67679e-07
1.18637e-06
6.07773e-07
4.92958e-07
3.71599e-07
5.54402e-07
8.06224e-07
3.79435e-07
4.00901e-07
2.4869e-07
2.91434e-07
1.00823e-06
6.73454e-07
3.09614e-07
3.25587e-07
4.59185e-07
7.37952e-07
9.53296e-07
3.05083e-07
2.57474e-07
5.07491e-07
6.05736e-07
6.74969e-07
2.20373e-07
1.72046e-07
3.82272e-07
4.23024e-07
5.82645e-07
3.64555e-07
2.38693e-07
4.46679e-07
1.02068e-06
5.79102e-07
3.30089e-07
2.60842e-07
5.65971e-07
8.40291e-07
4.91613e-07
4.14758e-07
2.30185e-07
3.73041e-07
9.51298e-07
5.18403e-07
3.43438e-07
2.75213e-07
3.88154e-07
5.90471e-07
2.86614e-07
2.83537e-07
1.89817e-07
1.75378e-07
7.46454e-07
5.78281e-07
2.21357e-07
2.31622e-07
3.59518e-07
4.66402e-07
7.71425e-07
2.49455e-07
1.72936e-07
3.81621e-07
5.30073e-07
4.80841e-07
1.57644e-07
1.13294e-07
2.99715e-07
2.94116e-07
4.28419e-07
3.18665e-07
1.68258e-07
2.88952e-07
8.36934e-07
4.66777e-07
2.25888e-07
1.84065e-07
3.98662e-07
6.78263e-07
3.45771e-07
2.83093e-07
1.76184e-07
2.33276e-07
7.09411e-07
4.55315e-07
2.2741e-07
1.99689e-07
2.68012e-07
4.17038e-07
2.03782e-07
1.88455e-07
1.52079e-07
1.01947e-07
4.94916e-07
5.0128e-07
1.52559e-07
1.52592e-07
2.90308e-07
2.79158e-07
5.54021e-07
2.20097e-07
1.15004e-07
2.49095e-07
4.89463e-07
3.44783e-07
1.06655e-07
7.39808e-08
2.61036e-07
2.06378e-07
2.85168e-07
2.99777e-07
1.17191e-07
1.7297e-07
6.55325e-07
3.97733e-07
1.52344e-07
1.25166e-07
2.72405e-07
5.20524e-07
2.49756e-07
1.83372e-07
1.34781e-07
1.44654e-07
4.74717e-07
3.91026e-07
1.44716e-07
1.40103e-07
1.90621e-07
2.85112e-07
1.38641e-07
1.17194e-07
1.29773e-07
5.95721e-08
2.80615e-07
4.25409e-07
1.04992e-07
9.39197e-08
2.32186e-07
1.70964e-07
3.4493e-07
2.0708e-07
7.50677e-08
1.32587e-07
4.27897e-07
2.69122e-07
6.85254e-08
4.72109e-08
2.36153e-07
1.58627e-07
1.59943e-07
2.74009e-07
7.87839e-08
9.65199e-08
4.73423e-07
3.42219e-07
9.93513e-08
7.71097e-08
1.82352e-07
3.87634e-07
1.91663e-07
1.13374e-07
9.88122e-08
9.46731e-08
2.79099e-07
3.04877e-07
9.27912e-08
9.22824e-08
1.3414e-07
1.94669e-07
9.89533e-08
7.10351e-08
1.12649e-07
3.79781e-08
1.2287e-07
3.31329e-07
7.52448e-08
5.50306e-08
1.78491e-07
1.20559e-07
1.77235e-07
1.82739e-07
4.7069e-08
5.94678e-08
3.33296e-07
2.49378e-07
4.41564e-08
3.08854e-08
1.99978e-07
1.39315e-07
7.194e-08
1.99714e-07
5.3935e-08
5.32197e-08
3.01529e-07
2.91364e-07
6.52628e-08
4.39787e-08
1.2238e-07
2.7263e-07
1.46042e-07
7.07973e-08
6.74498e-08
6.9968e-08
1.49422e-07
2.10071e-07
6.13328e-08
5.62763e-08
9.05799e-08
1.39129e-07
7.76327e-08
4.03036e-08
8.63279e-08
3.15522e-08
3.95147e-08
2.26783e-07
5.94599e-08
3.11853e-08
1.19637e-07
1.0433e-07
7.3609e-08
1.34754e-07
2.8199e-08
2.5784e-08
2.14018e-07
2.40711e-07
3.17671e-08
2.15626e-08
1.51612e-07
1.34557e-07
3.03426e-08
1.19105e-07
4.10544e-08
2.92901e-08
1.63822e-07
2.34535e-07
4.49945e-08
2.35754e-08
7.71345e-08
1.8615e-07
1.05453e-07
4.56529e-08
4.09535e-08
6.15661e-08
8.81472e-08
1.31105e-07
4.53503e-08
3.2601e-08
5.7067e-08
9.64873e-08
6.2327e-08
2.24981e-08
5.31332e-08
3.98348e-08
1.16382e-08
1.30174e-07
5.36716e-08
1.70272e-08
6.41239e-08
9.69409e-08
2.78327e-08
7.79061e-08
1.64039e-08
1.13234e-08
1.03247e-07
2.1136e-07
2.81494e-08
1.57085e-08
9.80888e-08
1.30425e-07
1.61464e-08
5.2506e-08
3.94327e-08
1.65503e-08
7.95967e-08
1.71051e-07
3.37492e-08
1.26363e-08
4.28203e-08
1.31667e-07
7.40868e-08
2.95022e-08
2.30129e-08
5.54342e-08
6.68364e-08
7.34454e-08
3.59989e-08
1.83956e-08
3.21901e-08
5.95001e-08
4.96847e-08
1.27613e-08
2.6117e-08
4.8213e-08
5.21362e-09
6.05716e-08
4.93825e-08
9.06191e-09
2.52317e-08
8.08962e-08
1.41233e-08
3.02499e-08
1.14073e-08
4.65062e-09
3.05779e-08
1.58477e-07
3.34854e-08
1.09685e-08
4.67924e-08
1.16469e-07
1.1071e-08
1.64306e-08
3.87309e-08
9.84342e-09
3.31034e-08
1.09528e-07
2.9204e-08
7.46011e-09
1.94095e-08
9.30799e-08
5.38158e-08
1.87858e-08
1.29562e-08
4.09075e-08
5.63395e-08
3.76055e-08
2.44776e-08
1.07215e-08
1.67577e-08
3.14834e-08
3.94183e-08
7.25326e-09
1.04818e-08
3.96784e-08
5.94191e-09
1.97067e-08
3.87106e-08
4.66263e-09
8.24906e-09
5.62225e-08
1.08787e-08
7.10844e-09
1.32296e-08
1.34198e-09
5.35115e-09
9.63017e-08
4.38429e-08
7.91258e-09
1.47366e-08
8.70632e-08
1.24523e-08
6.20633e-09
2.81101e-08
6.63307e-09
1.26621e-08
6.08263e-08
2.69094e-08
4.82876e-09
7.26856e-09
6.15644e-08
4.01686e-08
1.14821e-08
7.93504e-09
2.41211e-08
4.40585e-08
2.02868e-08
1.18959e-08
7.03461e-09
8.85118e-09
1.40104e-08
2.91177e-08
4.48314e-09
4.82743e-09
2.34983e-08
1.04959e-08
4.94434e-09
2.33836e-08
2.01919e-09
2.96358e-09
2.98794e-08
1.17082e-08
2.06846e-09
9.28092e-09
4.36596e-10
1.28825e-09
4.49165e-08
4.5252e-08
6.1165e-09
6.22196e-09
5.41322e-08
1.87516e-08
3.07401e-09
1.50116e-08
5.61145e-09
5.1246e-09
3.22083e-08
2.36179e-08
3.29665e-09
2.21419e-09
3.2707e-08
2.89206e-08
6.66717e-09
5.12423e-09
1.2844e-08
2.95963e-08
1.38573e-08
5.75877e-09
5.16939e-09
4.97883e-09
5.27156e-09
1.65202e-08
6.74559e-09
1.25523e-09
9.91028e-09
1.07218e-08
1.13938e-09
1.1522e-08
1.65232e-09
1.0008e-09
1.16944e-08
8.69794e-09
2.99926e-09
3.48093e-09
5.39493e-10
7.81391e-10
1.87924e-08
3.81413e-08
4.97517e-09
2.12864e-10
2.88517e-08
2.2694e-08
4.08581e-09
5.88493e-09
5.74435e-09
1.69994e-09
1.73134e-08
1.84049e-08
3.5453e-09
1.74386e-10
1.27243e-08
2.02854e-08
4.97173e-09
3.3481e-09
6.72715e-09
1.5201e-08
1.08787e-08
5.40522e-09
4.63602e-09
2.14645e-09
1.19542e-08
9.98345e-09
1.63153e-08
9.98669e-09
5.82519e-09
1.50414e-08
6.4382e-09
1.45215e-08
1.09094e-08
1.22842e-09
1.27091e-08
1.39106e-08
1.01884e-09
4.93937e-09
8.04742e-09
3.41932e-09
7.16085e-09
2.22293e-08
5.42611e-09
4.75943e-09
1.15635e-08
1.90562e-08
5.99217e-09
8.68059e-09
1.33038e-08
3.66637e-09
7.4523e-09
1.94279e-08
1.40339e-08
3.3066e-11
1.22572e-08
1.65502e-08
9.36916e-09
4.7757e-09
3.47768e-09
6.41045e-09
1.55944e-08
7.64027e-09
9.55259e-09
5.99869e-09
2.6396e-05
2.73912e-05
2.55499e-05
2.5757e-05
2.37034e-05
2.81599e-05
3.19946e-05
2.71117e-05
2.56074e-05
2.5463e-05
2.8399e-05
2.82267e-05
2.80023e-05
2.79041e-05
2.74416e-05
3.13933e-05
3.01951e-05
2.90538e-05
2.72834e-05
2.57602e-05
2.50827e-05
2.69963e-05
2.50941e-05
2.54413e-05
2.59747e-05
2.92882e-05
2.92431e-05
2.88108e-05
2.56075e-05
2.63615e-05
2.8584e-05
2.96701e-05
2.87314e-05
2.56235e-05
2.3935e-05
2.57942e-05
2.4412e-05
2.51358e-05
2.55032e-05
2.5216e-05
2.44464e-05
3.07613e-05
2.89331e-05
2.50034e-05
1.98078e-05
2.41517e-05
3.45208e-05
3.25893e-05
2.47161e-05
2.11982e-05
2.61965e-05
3.08559e-05
3.11553e-05
2.77938e-05
2.42571e-05
2.89421e-05
3.24556e-05
3.29714e-05
2.70677e-05
2.22741e-05
2.31289e-05
2.9574e-05
2.95154e-05
2.46875e-05
2.18931e-05
2.68622e-05
3.13862e-05
3.23587e-05
2.42225e-05
2.25212e-05
2.61753e-05
3.21468e-05
3.32959e-05
2.44122e-05
2.0309e-05
2.55082e-05
2.78468e-05
2.71658e-05
2.39559e-05
2.1297e-05
1.81193e-05
2.94831e-05
3.18054e-05
2.49612e-05
1.50666e-05
1.50811e-05
2.92854e-05
3.72274e-05
2.63511e-05
1.54006e-05
1.88688e-05
2.83492e-05
3.37934e-05
2.86671e-05
1.97289e-05
2.12217e-05
2.91086e-05
3.52891e-05
2.81876e-05
1.80211e-05
1.70756e-05
2.66276e-05
3.40919e-05
2.64965e-05
1.58543e-05
1.95394e-05
2.78353e-05
3.4904e-05
2.42985e-05
1.738e-05
1.87529e-05
2.81291e-05
3.61642e-05
2.53695e-05
1.4722e-05
2.017e-05
2.79684e-05
2.96646e-05
2.26409e-05
1.49134e-05
9.83163e-06
2.1283e-05
2.92757e-05
2.5214e-05
1.22254e-05
1.00335e-05
1.60781e-05
3.28098e-05
2.97615e-05
1.25166e-05
1.08431e-05
1.89815e-05
3.06747e-05
2.95915e-05
1.73876e-05
1.09171e-05
1.81924e-05
3.12088e-05
2.9824e-05
1.53017e-05
9.45557e-06
1.69704e-05
3.24035e-05
3.10486e-05
1.21179e-05
1.00007e-05
1.75849e-05
3.19366e-05
2.55963e-05
1.39706e-05
1.13766e-05
1.71714e-05
3.07699e-05
2.63829e-05
9.17384e-06
1.13318e-05
2.1589e-05
2.93446e-05
2.41802e-05
8.79842e-06
5.76819e-06
1.24647e-05
1.86475e-05
2.18741e-05
1.24071e-05
8.47824e-06
8.49618e-06
1.76175e-05
2.56821e-05
1.40991e-05
8.24187e-06
1.00564e-05
1.97759e-05
2.49822e-05
1.65393e-05
7.47123e-06
6.91438e-06
1.94419e-05
2.67504e-05
1.43054e-05
5.51008e-06
8.43049e-06
2.08217e-05
2.82305e-05
1.36904e-05
5.59594e-06
6.84764e-06
2.18765e-05
2.35245e-05
1.34645e-05
8.39616e-06
8.64687e-06
1.66289e-05
1.91414e-05
5.15342e-06
5.46904e-06
1.31814e-05
2.03903e-05
2.47833e-05
8.63522e-06
4.9492e-06
6.03406e-06
9.1536e-06
1.59605e-05
1.52352e-05
1.25087e-05
5.31106e-06
6.62034e-06
1.63273e-05
1.34198e-05
1.26142e-05
5.88456e-06
9.33691e-06
1.56377e-05
1.33645e-05
7.22878e-06
7.80127e-06
9.14942e-06
1.76362e-05
1.02769e-05
6.50144e-06
5.0419e-06
8.81757e-06
1.54957e-05
1.4054e-05
7.35993e-06
5.95371e-06
1.15747e-05
1.85528e-05
1.33364e-05
1.03341e-05
5.04466e-06
7.56881e-06
1.03386e-05
4.06502e-06
3.71215e-06
6.89501e-06
1.04303e-05
2.05419e-05
1.52157e-05
1.17721e-05
7.23128e-06
5.83582e-06
1.24361e-05
1.78853e-05
1.15874e-05
7.33216e-06
6.10456e-06
1.32884e-05
1.13303e-05
9.25158e-06
7.62147e-06
6.88003e-06
9.03063e-06
1.0665e-05
4.76928e-06
7.44486e-06
5.93611e-06
1.10345e-05
6.94023e-06
5.98748e-06
7.25577e-06
7.11077e-06
9.54558e-06
1.18878e-05
5.91767e-06
8.22079e-06
7.27677e-06
1.5115e-05
1.2676e-05
9.18829e-06
5.24701e-06
6.68679e-06
1.13876e-05
5.97489e-06
9.77719e-06
6.72713e-06
5.85527e-06
1.54918e-05
1.84654e-05
1.21406e-05
5.67017e-06
6.06932e-06
1.07451e-05
1.74135e-05
9.79784e-06
4.42638e-06
6.40058e-06
1.385e-05
1.30198e-05
3.96727e-06
4.53404e-06
6.19791e-06
7.34501e-06
1.03488e-05
5.28112e-06
3.42976e-06
4.34871e-06
1.01406e-05
8.74169e-06
5.05871e-06
4.98634e-06
7.23625e-06
1.00719e-05
1.16523e-05
6.58768e-06
4.8643e-06
7.05609e-06
1.21383e-05
1.14507e-05
6.00173e-06
4.63904e-06
5.29664e-06
1.3518e-05
1.21511e-05
9.39607e-06
7.6866e-06
4.98398e-06
1.38534e-05
1.71427e-05
1.01838e-05
2.15378e-06
5.36934e-06
9.3913e-06
1.33161e-05
1.00917e-05
3.44594e-06
6.06158e-06
1.15972e-05
1.38122e-05
4.4106e-06
3.05645e-06
4.29828e-06
7.69573e-06
9.67528e-06
5.85879e-06
2.74691e-06
5.71469e-06
1.04413e-05
1.1774e-05
7.02693e-06
3.18895e-06
5.9494e-06
1.16196e-05
1.24881e-05
8.42107e-06
4.54064e-06
7.08908e-06
9.09701e-06
9.32168e-06
5.12546e-06
3.53972e-06
4.99451e-06
1.3128e-05
1.44352e-05
8.20573e-06
4.58378e-06
5.50139e-06
1.19551e-05
1.53939e-05
7.40699e-06
4.46621e-06
3.98095e-06
8.78625e-06
8.46556e-06
8.41208e-06
6.43085e-06
5.06154e-06
8.96482e-06
1.05254e-05
5.45865e-06
4.17572e-06
4.00285e-06
7.63235e-06
8.40274e-06
4.33174e-06
4.00219e-06
5.1466e-06
9.86151e-06
1.01377e-05
7.75017e-06
5.4487e-06
4.96268e-06
8.65151e-06
1.06974e-05
7.85414e-06
6.4041e-06
6.36234e-06
7.68606e-06
7.6187e-06
6.34286e-06
4.26152e-06
5.10794e-06
9.53712e-06
1.15208e-05
7.6955e-06
6.18499e-06
5.08929e-06
8.81803e-06
1.06474e-05
3.97884e-06
5.55003e-06
2.9787e-06
7.94906e-06
7.76689e-06
5.51474e-06
6.4848e-06
3.10032e-06
9.3118e-06
7.40742e-06
4.36781e-06
4.43447e-06
3.75094e-06
6.74985e-06
6.35311e-06
3.33431e-06
3.9224e-06
2.72326e-06
9.77053e-06
6.88303e-06
5.73416e-06
6.93295e-06
2.57096e-06
5.8769e-06
8.24024e-06
5.72506e-06
5.72691e-06
3.3891e-06
8.40116e-06
7.37879e-06
6.55796e-06
5.86772e-06
3.95693e-06
6.22367e-06
7.41418e-06
5.98198e-06
6.23515e-06
4.98648e-06
8.91854e-06
8.35923e-06
2.01038e-06
4.06086e-06
4.22337e-06
5.58391e-06
6.20877e-06
2.98043e-06
4.72706e-06
4.34559e-06
7.84689e-06
4.17639e-06
3.23054e-06
4.15143e-06
4.6275e-06
5.77528e-06
4.01251e-06
3.96082e-06
2.99472e-06
3.50124e-06
8.23305e-06
4.26818e-06
4.00659e-06
5.85635e-06
4.69544e-06
4.65804e-06
5.09243e-06
3.40075e-06
3.67944e-06
2.76755e-06
7.09806e-06
6.33072e-06
5.19485e-06
5.45202e-06
4.53736e-06
4.63907e-06
4.58321e-06
4.2167e-06
4.39279e-06
4.72506e-06
7.53408e-06
6.37834e-06
2.74315e-06
2.9025e-06
4.51184e-06
3.25054e-06
3.00591e-06
2.27858e-06
3.26341e-06
5.2461e-06
4.49155e-06
2.66842e-06
3.2803e-06
4.06013e-06
5.19414e-06
4.28978e-06
5.16788e-06
4.66334e-06
2.65841e-06
4.35698e-06
4.73636e-06
4.21401e-06
3.61576e-06
3.94462e-06
5.56391e-06
3.60107e-06
2.7661e-06
3.49598e-06
2.36082e-06
4.50052e-06
3.77012e-06
2.85625e-06
3.97684e-06
4.30352e-06
5.00677e-06
3.49484e-06
3.61969e-06
3.16255e-06
3.38984e-06
4.46246e-06
4.76379e-06
3.40696e-06
2.68566e-06
1.95418e-06
3.49254e-06
2.65269e-06
3.0987e-06
2.32524e-06
1.92133e-06
4.59674e-06
3.51537e-06
4.93886e-06
2.62903e-06
3.49373e-06
4.70172e-06
3.70313e-06
5.33503e-06
3.67294e-06
2.27478e-06
4.13246e-06
4.50474e-06
5.14056e-06
2.83143e-06
2.08317e-06
4.41903e-06
3.57071e-06
4.31731e-06
3.71343e-06
2.23975e-06
4.99378e-06
2.7482e-06
3.62252e-06
3.10399e-06
2.91961e-06
4.54727e-06
3.85006e-06
3.95567e-06
2.37388e-06
2.30277e-06
3.56695e-06
3.49082e-06
4.66555e-06
1.62693e-06
1.10017e-06
2.47721e-06
2.4563e-06
2.68719e-06
1.53007e-06
1.04498e-06
3.2718e-06
3.45978e-06
4.06061e-06
1.69989e-06
2.00465e-06
3.30165e-06
2.88084e-06
3.40383e-06
2.27148e-06
1.50501e-06
3.08433e-06
3.72212e-06
3.45657e-06
1.60167e-06
1.10024e-06
3.00557e-06
3.1001e-06
3.40639e-06
2.67172e-06
1.68687e-06
3.71745e-06
3.48621e-06
3.5717e-06
1.89248e-06
1.36659e-06
3.26128e-06
3.42117e-06
2.79747e-06
1.38948e-06
1.36241e-06
2.5537e-06
3.03884e-06
3.82001e-06
9.71043e-07
8.51173e-07
1.75386e-06
1.83984e-06
1.67658e-06
1.03904e-06
8.21105e-07
2.18976e-06
2.59539e-06
2.47992e-06
9.88119e-07
1.06996e-06
2.08312e-06
1.98096e-06
1.92569e-06
1.44478e-06
8.98798e-07
2.0815e-06
2.62704e-06
1.9581e-06
9.70467e-07
8.66196e-07
2.08958e-06
2.47013e-06
2.02651e-06
1.74168e-06
1.17038e-06
2.57089e-06
2.54633e-06
2.02337e-06
1.00428e-06
7.21258e-07
2.29895e-06
2.68276e-06
1.7214e-06
9.76003e-07
9.73833e-07
1.73696e-06
2.29151e-06
2.3792e-06
6.94914e-07
7.07601e-07
1.32892e-06
1.46813e-06
1.20754e-06
7.79854e-07
6.87849e-07
1.5858e-06
2.0668e-06
1.67634e-06
6.57602e-07
7.39729e-07
1.43326e-06
1.6357e-06
1.30181e-06
9.376e-07
5.96083e-07
1.47995e-06
2.10598e-06
1.29514e-06
7.02307e-07
8.07125e-07
1.55491e-06
2.03363e-06
1.40694e-06
1.17353e-06
9.02816e-07
1.85625e-06
1.90142e-06
1.40343e-06
7.4549e-07
5.32913e-07
1.74327e-06
2.2895e-06
1.25274e-06
7.56122e-07
8.32937e-07
1.30069e-06
1.72491e-06
1.59814e-06
4.74939e-07
5.69187e-07
1.04651e-06
1.15099e-06
8.85346e-07
5.9095e-07
5.74389e-07
1.14471e-06
1.74863e-06
1.2858e-06
4.57052e-07
5.78668e-07
1.03686e-06
1.32343e-06
9.68474e-07
6.80873e-07
4.45892e-07
1.05413e-06
1.77437e-06
9.15029e-07
5.41872e-07
7.20655e-07
1.15904e-06
1.62615e-06
1.06346e-06
7.60687e-07
7.33055e-07
1.40349e-06
1.56702e-06
1.11195e-06
5.79458e-07
4.36881e-07
1.34579e-06
1.91479e-06
1.00436e-06
6.26516e-07
7.35223e-07
9.82322e-07
1.27976e-06
1.17496e-06
3.52119e-07
4.47352e-07
8.47922e-07
8.87708e-07
6.66327e-07
4.67009e-07
4.50843e-07
8.11896e-07
1.44472e-06
9.99457e-07
3.25661e-07
4.57251e-07
7.48242e-07
1.05555e-06
8.10171e-07
4.98795e-07
3.20475e-07
7.25696e-07
1.60183e-06
6.71746e-07
3.90675e-07
6.28939e-07
8.98667e-07
1.24914e-06
8.60447e-07
5.33782e-07
5.86314e-07
1.07253e-06
1.22151e-06
8.88822e-07
4.63118e-07
3.46209e-07
1.01024e-06
1.58051e-06
8.1591e-07
4.9328e-07
6.11411e-07
7.64601e-07
9.39158e-07
8.6867e-07
2.55163e-07
3.25958e-07
6.87993e-07
7.33883e-07
4.92224e-07
3.40879e-07
3.44394e-07
5.7386e-07
1.17163e-06
7.8003e-07
2.31431e-07
3.44605e-07
5.61045e-07
8.25552e-07
6.36248e-07
3.6067e-07
2.2721e-07
4.70964e-07
1.43818e-06
5.1299e-07
2.83237e-07
5.4476e-07
7.12258e-07
9.35545e-07
7.43827e-07
3.6277e-07
4.30151e-07
8.43571e-07
9.54798e-07
6.91078e-07
3.42339e-07
2.65512e-07
7.62683e-07
1.30883e-06
6.45402e-07
3.69609e-07
4.84942e-07
6.17037e-07
6.81704e-07
6.64849e-07
1.83762e-07
2.37022e-07
5.52578e-07
6.09524e-07
3.31494e-07
2.50099e-07
2.68075e-07
3.95012e-07
9.08641e-07
5.86095e-07
1.64735e-07
2.61966e-07
4.33769e-07
5.53291e-07
4.89592e-07
2.77901e-07
1.54941e-07
2.70248e-07
1.24176e-06
4.3293e-07
1.96605e-07
4.29131e-07
5.89348e-07
6.54335e-07
6.17317e-07
2.44157e-07
3.02203e-07
7.00946e-07
7.27946e-07
4.94285e-07
2.51006e-07
1.98481e-07
5.34661e-07
1.06257e-06
5.14525e-07
2.63605e-07
3.59629e-07
5.0789e-07
4.88181e-07
4.88075e-07
1.3682e-07
1.65222e-07
4.21341e-07
5.23987e-07
2.20132e-07
1.73921e-07
2.03058e-07
2.60664e-07
6.65471e-07
4.43745e-07
1.16445e-07
1.88267e-07
3.56408e-07
3.41275e-07
3.62263e-07
2.1932e-07
1.02052e-07
1.33201e-07
1.00797e-06
4.09121e-07
1.35403e-07
3.11299e-07
5.13669e-07
4.38631e-07
4.94686e-07
1.69664e-07
1.99786e-07
5.67789e-07
5.5788e-07
3.46438e-07
1.81067e-07
1.43162e-07
3.49028e-07
8.36859e-07
4.31813e-07
1.8137e-07
2.46565e-07
4.50239e-07
3.55852e-07
3.38658e-07
9.81845e-08
1.12274e-07
3.11705e-07
4.58919e-07
1.43858e-07
1.12185e-07
1.52309e-07
1.7198e-07
4.49148e-07
3.43842e-07
7.90354e-08
1.25452e-07
3.21521e-07
1.91751e-07
2.38751e-07
1.86999e-07
6.70533e-08
5.13095e-08
7.42023e-07
4.23562e-07
9.41711e-08
1.97023e-07
4.54291e-07
3.0054e-07
3.60831e-07
1.20732e-07
1.28151e-07
4.19169e-07
4.38188e-07
2.46071e-07
1.28963e-07
9.88929e-08
2.1315e-07
6.12231e-07
3.77261e-07
1.1872e-07
1.55855e-07
4.05537e-07
2.6336e-07
2.16315e-07
6.70995e-08
7.46957e-08
2.08518e-07
3.87054e-07
9.86349e-08
6.80409e-08
1.1203e-07
1.17829e-07
2.78847e-07
2.74128e-07
5.22023e-08
7.65447e-08
3.07631e-07
1.10779e-07
1.28338e-07
1.63615e-07
4.97559e-08
1.58266e-08
4.65288e-07
4.31209e-07
6.4579e-08
1.09607e-07
3.94789e-07
2.17256e-07
2.25106e-07
8.74398e-08
7.94889e-08
2.78923e-07
3.44332e-07
1.76133e-07
8.843e-08
6.174e-08
1.16907e-07
4.13151e-07
3.33301e-07
7.63993e-08
9.10209e-08
3.43357e-07
2.07901e-07
1.26118e-07
4.32434e-08
4.70434e-08
1.25073e-07
3.08319e-07
7.57508e-08
3.95223e-08
7.66524e-08
8.97985e-08
1.57936e-07
2.06726e-07
3.29762e-08
4.24523e-08
2.8295e-07
8.46205e-08
5.52827e-08
1.30316e-07
5.46087e-08
4.58028e-09
2.17776e-07
4.01659e-07
4.42558e-08
5.89957e-08
3.14973e-07
1.74505e-07
1.1495e-07
6.1467e-08
4.85028e-08
1.67848e-07
2.56092e-07
1.22099e-07
5.63688e-08
3.53305e-08
6.17941e-08
2.60716e-07
2.71333e-07
4.70195e-08
4.85051e-08
2.61806e-07
1.84124e-07
7.34313e-08
2.54515e-08
2.83295e-08
7.09558e-08
2.24937e-07
6.44909e-08
2.38019e-08
4.54582e-08
8.11404e-08
8.23952e-08
1.37831e-07
2.04498e-08
2.24064e-08
2.2602e-07
9.30856e-08
2.54553e-08
7.37995e-08
8.72042e-08
2.74125e-09
4.44152e-08
3.31892e-07
3.18273e-08
3.29865e-08
2.15461e-07
1.58175e-07
4.80229e-08
3.48483e-08
2.956e-08
9.27254e-08
1.77288e-07
8.41776e-08
3.35912e-08
1.97869e-08
3.32695e-08
1.53264e-07
1.99763e-07
2.73056e-08
2.5079e-08
1.70704e-07
1.75969e-07
4.63493e-08
1.41094e-08
1.60211e-08
3.9172e-08
1.4873e-07
6.07391e-08
1.47186e-08
2.23182e-08
7.37302e-08
5.1222e-08
8.25398e-08
1.31069e-08
1.18635e-08
1.53589e-07
1.13169e-07
1.45559e-08
2.41069e-08
1.0624e-07
4.57925e-09
5.19608e-09
2.2478e-07
2.7313e-08
1.90579e-08
1.17089e-07
1.46723e-07
1.93541e-08
1.33517e-08
1.78985e-08
5.05308e-08
1.12636e-07
5.88558e-08
1.80601e-08
1.07834e-08
1.97487e-08
8.04883e-08
1.38579e-07
1.49987e-08
1.28853e-08
8.41434e-08
1.53702e-07
3.21308e-08
7.95832e-09
8.91726e-09
2.13632e-08
8.97483e-08
5.61115e-08
8.89055e-09
1.05909e-08
5.53603e-08
4.45459e-08
4.86313e-08
9.24925e-09
6.4389e-09
8.23651e-08
1.15288e-07
9.82671e-09
8.30385e-09
8.76986e-08
1.14259e-08
4.01054e-09
1.14936e-07
3.62156e-08
1.08622e-08
4.58406e-08
1.18348e-07
1.11763e-08
4.85133e-09
9.6621e-09
3.09346e-08
6.43737e-08
3.96037e-08
9.10712e-09
5.75267e-09
1.20059e-08
3.74237e-08
8.96061e-08
8.45696e-09
6.85384e-09
2.70613e-08
1.13209e-07
2.60187e-08
5.02838e-09
5.22852e-09
1.13693e-08
5.09975e-08
4.62967e-08
5.40379e-09
5.35852e-09
3.05607e-08
3.93858e-08
3.21662e-08
7.85897e-09
3.55873e-09
3.21153e-08
9.57719e-08
8.66125e-09
4.58766e-09
4.85267e-08
2.95618e-08
3.6243e-09
3.65111e-08
4.6901e-08
5.9558e-09
1.43017e-08
7.89589e-08
1.44066e-08
2.24387e-09
3.88182e-09
2.16687e-08
3.58755e-08
2.40788e-08
4.78178e-09
3.13005e-09
8.2892e-09
1.81481e-08
5.07836e-08
8.83192e-09
3.78596e-09
6.60696e-09
7.1065e-08
2.69587e-08
3.88441e-09
3.39009e-09
5.49633e-09
2.69425e-08
3.46789e-08
3.66455e-09
2.71182e-09
1.21326e-08
2.84413e-08
2.38396e-08
8.72621e-09
1.98336e-09
8.30708e-09
6.4456e-08
1.30643e-08
3.0477e-09
1.47726e-08
3.45135e-08
2.78198e-09
5.14333e-09
3.76511e-08
3.17346e-09
5.34671e-09
4.29321e-08
2.04661e-08
1.21332e-09