/*--------------------------------*- C++ -*----------------------------------*\
  =========                 |
  \\      /  F ield         | OpenFOAM: The Open Source CFD Toolbox
   \\    /   O peration     | Website:  https://openfoam.org
    \\  /    A nd           | Version:  10
     \\/     M anipulation  |
\*---------------------------------------------------------------------------*/
FoamFile
{
    format      ascii;
    class       volScalarField;
    location    "2";
    object      pPrime2Mean;
}
// * * * * * * * * * * * * * * * * * * * * * * * * * * * * * * * * * * * * * //

dimensions      [0 4 -4 0 0 0 0];

internalField   nonuniform List<scalar> 
25600
(
9.38261e-07
5.23379e-06
1.33502e-06
4.09216e-06
2.8319e-06
1.45554e-06
3.07578e-06
6.58299e-06
3.54677e-06
7.58829e-07
2.83105e-06
2.9574e-06
8.34221e-07
4.71937e-06
2.39736e-06
3.65528e-06
1.97961e-06
1.06901e-06
1.32911e-06
1.54579e-06
3.6283e-06
3.8306e-06
1.58513e-06
6.7267e-06
2.79397e-06
4.93286e-07
1.38106e-06
1.82376e-06
5.33307e-06
2.33425e-06
2.54017e-06
4.45636e-06
4.24545e-07
6.17818e-06
2.77131e-06
5.25826e-07
2.96574e-06
1.11308e-06
8.71212e-07
3.91941e-06
9.25668e-07
5.17054e-06
1.31652e-06
4.03779e-06
2.88646e-06
1.43096e-06
3.07874e-06
6.53186e-06
3.55307e-06
7.72777e-07
2.93109e-06
2.91853e-06
8.48931e-07
4.73673e-06
2.45815e-06
3.68945e-06
2.02468e-06
1.07062e-06
1.31848e-06
1.53169e-06
3.71094e-06
3.86394e-06
1.5599e-06
6.75416e-06
2.78071e-06
5.23475e-07
1.37154e-06
1.85966e-06
5.32072e-06
2.39264e-06
2.5481e-06
4.35916e-06
4.18789e-07
6.14523e-06
2.79957e-06
5.46636e-07
2.95052e-06
1.13495e-06
8.71046e-07
4.05213e-06
9.16872e-07
5.11362e-06
1.3138e-06
3.92344e-06
2.921e-06
1.4253e-06
3.08888e-06
6.40574e-06
3.53328e-06
7.7928e-07
3.12904e-06
2.83448e-06
8.72761e-07
4.81321e-06
2.54994e-06
3.75924e-06
2.0673e-06
1.06683e-06
1.31767e-06
1.47297e-06
3.83518e-06
3.91174e-06
1.50836e-06
6.88702e-06
2.73377e-06
5.81616e-07
1.29694e-06
1.90727e-06
5.1994e-06
2.43354e-06
2.58123e-06
4.20534e-06
4.12504e-07
6.07587e-06
2.80538e-06
5.89525e-07
2.8664e-06
1.16631e-06
8.55692e-07
4.09989e-06
9.42159e-07
5.01661e-06
1.28811e-06
3.96221e-06
2.88933e-06
1.393e-06
3.01591e-06
6.04883e-06
3.44209e-06
7.74898e-07
3.3787e-06
2.58527e-06
8.96793e-07
4.83805e-06
2.58443e-06
3.83375e-06
2.15954e-06
1.04712e-06
1.36845e-06
1.39357e-06
3.82083e-06
4.16728e-06
1.42026e-06
7.0152e-06
2.5981e-06
6.37617e-07
1.07446e-06
1.86246e-06
4.7108e-06
2.22298e-06
2.64874e-06
3.88979e-06
4.00096e-07
5.68555e-06
2.70612e-06
6.13479e-07
2.47412e-06
1.11513e-06
7.81555e-07
3.94549e-06
9.34541e-07
4.68921e-06
1.24192e-06
3.91709e-06
2.69907e-06
1.22992e-06
2.87244e-06
5.60699e-06
3.11489e-06
7.2655e-07
3.47622e-06
2.1488e-06
9.12743e-07
4.73196e-06
2.46929e-06
3.77131e-06
2.20222e-06
1.00911e-06
1.32853e-06
1.19512e-06
3.75208e-06
4.54361e-06
1.3259e-06
6.98508e-06
2.30671e-06
6.67651e-07
8.56054e-07
1.69324e-06
4.26508e-06
1.84936e-06
2.65959e-06
3.78214e-06
3.97661e-07
5.06516e-06
2.53527e-06
5.73672e-07
2.01256e-06
1.04497e-06
7.80639e-07
3.86089e-06
9.26327e-07
4.07222e-06
1.16254e-06
3.52668e-06
2.52578e-06
1.13175e-06
2.71254e-06
5.38e-06
2.67183e-06
6.84568e-07
3.26594e-06
1.83972e-06
8.93796e-07
4.22198e-06
2.2439e-06
3.83365e-06
2.43439e-06
1.03678e-06
1.32599e-06
9.80942e-07
3.42457e-06
5.27063e-06
1.13636e-06
6.81332e-06
2.03141e-06
7.43302e-07
7.27185e-07
1.52879e-06
3.74809e-06
1.66005e-06
2.48931e-06
3.25013e-06
3.79799e-07
4.22158e-06
2.18816e-06
5.76328e-07
1.8861e-06
9.10718e-07
6.83019e-07
3.84402e-06
1.07448e-06
3.83019e-06
1.02138e-06
3.06423e-06
2.23855e-06
9.74275e-07
2.34649e-06
4.7144e-06
2.25659e-06
6.31453e-07
2.78489e-06
1.29257e-06
7.83487e-07
2.9994e-06
1.75237e-06
3.47465e-06
2.62637e-06
1.16392e-06
1.34109e-06
8.98833e-07
3.01575e-06
5.28434e-06
9.64821e-07
5.97034e-06
1.54404e-06
6.7109e-07
7.34551e-07
1.33761e-06
3.08269e-06
1.48287e-06
2.30516e-06
2.68239e-06
3.39248e-07
3.33885e-06
1.51111e-06
6.29916e-07
1.16677e-06
6.61375e-07
5.75088e-07
3.5164e-06
1.21487e-06
3.46349e-06
8.96935e-07
2.93071e-06
1.92992e-06
7.8952e-07
2.0298e-06
4.17916e-06
2.0959e-06
5.18604e-07
2.1864e-06
1.24402e-06
5.98459e-07
2.423e-06
1.29236e-06
3.27262e-06
2.45107e-06
1.32607e-06
1.23119e-06
1.05512e-06
2.65554e-06
4.56934e-06
6.25442e-07
4.70438e-06
1.0699e-06
5.30068e-07
6.43318e-07
1.12494e-06
2.43923e-06
1.19223e-06
1.88434e-06
2.1023e-06
3.15854e-07
2.30296e-06
1.30021e-06
5.70573e-07
9.16451e-07
5.09556e-07
5.82564e-07
2.63157e-06
1.30343e-06
2.91753e-06
7.35357e-07
2.51373e-06
1.69259e-06
6.36843e-07
1.88591e-06
3.58955e-06
1.77561e-06
4.20707e-07
1.49876e-06
8.83873e-07
4.1215e-07
1.64526e-06
6.69409e-07
2.49635e-06
1.73307e-06
1.11191e-06
1.03992e-06
9.77989e-07
2.37686e-06
3.60105e-06
3.98448e-07
3.2732e-06
7.29064e-07
3.47231e-07
3.24219e-07
8.76663e-07
1.87278e-06
8.74487e-07
1.5818e-06
1.66982e-06
2.75786e-07
1.78763e-06
9.77874e-07
4.55263e-07
6.04318e-07
3.30677e-07
4.67815e-07
1.8189e-06
1.20628e-06
2.14335e-06
5.75085e-07
2.07754e-06
1.3752e-06
5.18832e-07
1.64789e-06
2.82554e-06
1.62333e-06
3.07963e-07
1.11506e-06
7.51947e-07
2.79573e-07
1.20905e-06
3.97712e-07
1.79418e-06
1.21959e-06
8.51916e-07
9.35447e-07
7.82235e-07
2.13987e-06
2.64689e-06
2.95586e-07
2.26262e-06
5.70309e-07
1.83456e-07
1.72009e-07
6.80747e-07
1.45529e-06
6.30074e-07
1.33406e-06
1.4208e-06
2.26501e-07
1.44754e-06
7.65814e-07
3.07193e-07
3.73281e-07
2.08769e-07
3.60418e-07
1.27892e-06
1.06438e-06
1.43023e-06
4.59378e-07
1.46855e-06
1.03027e-06
4.29485e-07
1.37126e-06
2.32339e-06
1.42509e-06
2.1328e-07
7.95631e-07
5.82346e-07
1.83913e-07
7.84265e-07
2.28462e-07
1.22115e-06
8.06045e-07
5.8508e-07
7.0609e-07
6.005e-07
1.70192e-06
1.77391e-06
2.28622e-07
1.47288e-06
3.95376e-07
1.12647e-07
1.1978e-07
5.21997e-07
1.04993e-06
4.29625e-07
1.14991e-06
1.2236e-06
1.8668e-07
1.0668e-06
6.05795e-07
2.29011e-07
2.39419e-07
1.30993e-07
2.98443e-07
8.52729e-07
8.39495e-07
9.52941e-07
3.70921e-07
9.35275e-07
7.25176e-07
3.90007e-07
1.16704e-06
1.92348e-06
1.1761e-06
1.44651e-07
5.56508e-07
4.53194e-07
1.22208e-07
4.79457e-07
1.30372e-07
8.25303e-07
5.02174e-07
3.95484e-07
5.48672e-07
4.51292e-07
1.2654e-06
1.20643e-06
1.77418e-07
9.25255e-07
2.84428e-07
7.15854e-08
7.45621e-08
3.73627e-07
6.92513e-07
2.6931e-07
9.79652e-07
1.0489e-06
1.52186e-07
7.42512e-07
4.90549e-07
1.68474e-07
1.51699e-07
8.61509e-08
2.21595e-07
5.54486e-07
6.44681e-07
6.54696e-07
3.02171e-07
5.84586e-07
5.00296e-07
3.65084e-07
9.91176e-07
1.55679e-06
9.40138e-07
1.0694e-07
3.88435e-07
3.40463e-07
8.12362e-08
2.7222e-07
7.86616e-08
5.45554e-07
3.13874e-07
2.69685e-07
4.29212e-07
3.46002e-07
8.99864e-07
8.05509e-07
1.33911e-07
5.51382e-07
1.92491e-07
4.80592e-08
4.42013e-08
2.66421e-07
4.61866e-07
1.64375e-07
8.20194e-07
8.69693e-07
1.26158e-07
4.89601e-07
3.93262e-07
1.2573e-07
1.02537e-07
6.09076e-08
1.60702e-07
3.66931e-07
4.93095e-07
4.59983e-07
2.48007e-07
3.66578e-07
3.47994e-07
3.45842e-07
8.37802e-07
1.24695e-06
7.33313e-07
9.13286e-08
2.71921e-07
2.50356e-07
5.5336e-08
1.44474e-07
4.98309e-08
3.57812e-07
1.97624e-07
1.85907e-07
3.38399e-07
2.70744e-07
6.20169e-07
5.32886e-07
1.00281e-07
3.14652e-07
1.2382e-07
3.43868e-08
2.46934e-08
1.89892e-07
2.9533e-07
1.032e-07
6.67612e-07
7.03177e-07
1.05047e-07
3.09835e-07
3.08538e-07
9.42492e-08
7.3719e-08
4.68401e-08
1.21348e-07
2.55774e-07
3.71755e-07
3.34747e-07
2.04001e-07
2.34703e-07
2.45112e-07
3.22919e-07
6.9969e-07
9.84807e-07
5.68947e-07
8.54135e-08
1.91487e-07
1.81146e-07
3.99913e-08
7.25249e-08
3.39706e-08
2.33159e-07
1.24152e-07
1.29151e-07
2.64338e-07
2.0877e-07
4.16699e-07
3.45995e-07
7.46064e-08
1.73107e-07
7.37639e-08
2.57515e-08
1.34343e-08
1.32053e-07
1.80055e-07
6.75641e-08
5.25896e-07
5.52312e-07
8.81002e-08
1.88917e-07
2.3345e-07
7.30519e-08
5.5585e-08
3.80686e-08
9.55771e-08
1.85034e-07
2.77239e-07
2.50234e-07
1.6795e-07
1.55267e-07
1.74556e-07
2.93647e-07
5.79112e-07
7.6756e-07
4.41925e-07
8.27145e-08
1.35627e-07
1.30033e-07
3.14009e-08
3.57471e-08
2.53701e-08
1.51286e-07
7.80246e-08
9.04634e-08
2.01632e-07
1.55771e-07
2.72155e-07
2.20859e-07
5.50948e-08
9.23826e-08
4.08587e-08
1.93188e-08
7.23954e-09
8.8373e-08
1.04214e-07
4.66867e-08
4.01348e-07
4.23477e-07
7.42402e-08
1.09584e-07
1.68671e-07
5.84986e-08
4.34983e-08
3.20379e-08
7.72165e-08
1.38005e-07
2.05463e-07
1.90321e-07
1.37298e-07
1.06582e-07
1.25442e-07
2.5835e-07
4.73369e-07
5.90675e-07
3.4353e-07
7.9777e-08
9.70513e-08
9.32456e-08
2.66341e-08
1.92044e-08
2.06783e-08
9.80213e-08
4.94417e-08
6.40244e-08
1.48938e-07
1.11524e-07
1.717e-07
1.39949e-07
4.03792e-08
4.84013e-08
2.11354e-08
1.4213e-08
4.42524e-09
5.64588e-08
5.66103e-08
3.43955e-08
2.97499e-07
3.18263e-07
6.28308e-08
6.02135e-08
1.156e-07
4.6643e-08
3.47863e-08
2.72897e-08
6.26239e-08
1.05296e-07
1.51881e-07
1.45649e-07
1.10537e-07
7.54224e-08
9.10227e-08
2.193e-07
3.80633e-07
4.49771e-07
2.67195e-07
7.54472e-08
7.08225e-08
6.71105e-08
2.37184e-08
1.30825e-08
1.80144e-08
6.37401e-08
3.18093e-08
4.46961e-08
1.05843e-07
7.57545e-08
1.04238e-07
8.81771e-08
2.94164e-08
2.54932e-08
1.04308e-08
1.03445e-08
3.22136e-09
3.41923e-08
2.83836e-08
2.69821e-08
2.15081e-07
2.35235e-07
5.33936e-08
3.13992e-08
7.47197e-08
3.63861e-08
2.7933e-08
2.33389e-08
5.02413e-08
8.16817e-08
1.12327e-07
1.11208e-07
8.71779e-08
5.44143e-08
6.68805e-08
1.79644e-07
3.00272e-07
3.39161e-07
2.07803e-07
6.98129e-08
5.33923e-08
4.89183e-08
2.17188e-08
1.17327e-08
1.62732e-08
4.20273e-08
2.0939e-08
3.03779e-08
7.13099e-08
4.87616e-08
6.08242e-08
5.52891e-08
2.13958e-08
1.40234e-08
5.11635e-09
7.57911e-09
2.70294e-09
1.96311e-08
1.28689e-08
2.24254e-08
1.52611e-07
1.71514e-07
4.54176e-08
1.59146e-08
4.53215e-08
2.74586e-08
2.2406e-08
1.99852e-08
3.96372e-08
6.41449e-08
8.34635e-08
8.41303e-08
6.71709e-08
3.96487e-08
4.9871e-08
1.42342e-07
2.32326e-07
2.53478e-07
1.61387e-07
6.31861e-08
4.19857e-08
3.6651e-08
1.99316e-08
1.20534e-08
1.50287e-08
2.84899e-08
1.42397e-08
1.99667e-08
4.52785e-08
2.92239e-08
3.42838e-08
3.47381e-08
1.56744e-08
8.44101e-09
2.74239e-09
5.70291e-09
2.40587e-09
1.06391e-08
5.32265e-09
1.94962e-08
1.07188e-07
1.23775e-07
3.85293e-08
8.64312e-09
2.58927e-08
2.00968e-08
1.80978e-08
1.71432e-08
3.08604e-08
5.08953e-08
6.22078e-08
6.28304e-08
5.05512e-08
2.91065e-08
3.77806e-08
1.09581e-07
1.76006e-07
1.87746e-07
1.24959e-07
5.60227e-08
3.45263e-08
2.84276e-08
1.82193e-08
1.26075e-08
1.39621e-08
2.01491e-08
1.01139e-08
1.25333e-08
2.67364e-08
1.60697e-08
1.897e-08
2.2146e-08
1.1733e-08
5.78061e-09
1.83951e-09
4.49527e-09
2.27116e-09
5.66551e-09
2.49607e-09
1.74497e-08
7.52703e-08
8.88043e-08
3.26315e-08
6.12615e-09
1.43497e-08
1.44193e-08
1.47042e-08
1.4758e-08
2.39324e-08
4.06929e-08
4.65953e-08
4.6228e-08
3.72653e-08
2.16342e-08
2.90278e-08
8.21793e-08
1.30495e-07
1.37781e-07
9.62693e-08
4.87308e-08
2.94685e-08
2.30572e-08
1.67048e-08
1.28845e-08
1.30025e-08
1.50525e-08
7.61144e-09
7.54469e-09
1.44707e-08
7.97677e-09
1.06983e-08
1.46542e-08
9.15801e-09
4.58283e-09
1.69121e-09
3.77142e-09
2.2975e-09
3.37355e-09
2.23011e-09
1.58645e-08
5.34325e-08
6.36571e-08
2.76565e-08
6.0967e-09
8.46574e-09
1.0488e-08
1.22627e-08
1.28246e-08
1.87161e-08
3.27512e-08
3.51195e-08
3.35607e-08
2.71077e-08
1.64479e-08
2.25726e-08
6.02364e-08
9.46971e-08
1.00074e-07
7.3632e-08
4.16147e-08
2.57577e-08
1.95845e-08
1.54157e-08
1.28208e-08
1.21564e-08
1.19693e-08
6.18106e-09
4.53356e-09
7.15293e-09
3.72454e-09
6.64927e-09
1.04133e-08
7.61318e-09
4.16922e-09
1.94112e-09
3.41004e-09
2.49223e-09
2.73386e-09
3.13189e-09
1.45439e-08
3.8699e-08
4.5939e-08
2.35442e-08
7.1365e-09
6.23694e-09
8.18187e-09
1.06684e-08
1.13191e-08
1.49267e-08
2.65455e-08
2.66854e-08
2.41535e-08
1.97042e-08
1.29285e-08
1.77288e-08
4.33821e-08
6.73173e-08
7.18297e-08
5.57761e-08
3.48914e-08
2.27358e-08
1.72966e-08
1.43669e-08
1.2527e-08
1.14275e-08
1.01491e-08
5.50622e-09
3.08838e-09
3.49102e-09
2.06656e-09
5.03954e-09
8.21431e-09
6.82133e-09
4.22374e-09
2.43966e-09
3.3447e-09
2.84364e-09
2.99715e-09
4.38051e-09
1.33708e-08
2.87889e-08
3.36686e-08
2.01964e-08
8.40113e-09
6.05798e-09
7.17628e-09
9.75326e-09
1.01881e-08
1.22221e-08
2.17104e-08
2.05511e-08
1.74286e-08
1.45652e-08
1.05722e-08
1.40374e-08
3.0841e-08
4.69394e-08
5.08598e-08
4.17411e-08
2.87094e-08
2.00682e-08
1.56814e-08
1.35239e-08
1.21431e-08
1.08705e-08
9.1565e-09
5.39504e-09
2.81598e-09
2.29603e-09
2.0476e-09
4.78525e-09
7.26788e-09
6.55749e-09
4.57343e-09
3.09702e-09
3.52496e-09
3.31476e-09
3.64828e-09
5.49734e-09
1.22571e-08
2.20679e-08
2.52832e-08
1.74819e-08
9.4392e-09
6.78162e-09
7.02543e-09
9.29118e-09
9.3537e-09
1.0287e-08
1.79793e-08
1.61884e-08
1.28144e-08
1.11645e-08
8.99228e-09
1.11991e-08
2.17441e-08
3.2183e-08
3.54807e-08
3.08027e-08
2.31898e-08
1.75461e-08
1.43921e-08
1.28367e-08
1.17641e-08
1.04988e-08
8.7309e-09
5.7123e-09
3.36836e-09
2.62456e-09
2.95448e-09
5.24452e-09
7.06382e-09
6.64202e-09
5.0931e-09
3.8336e-09
3.88848e-09
3.84308e-09
4.36333e-09
6.28293e-09
1.11872e-08
1.74158e-08
1.95532e-08
1.52504e-08
1.0035e-08
7.66749e-09
7.27444e-09
9.0822e-09
8.72494e-09
8.87543e-09
1.51601e-08
1.32063e-08
9.79672e-09
9.02201e-09
7.92601e-09
9.03132e-09
1.53174e-08
2.17769e-08
2.43939e-08
2.24044e-08
1.84141e-08
1.51724e-08
1.32417e-08
1.22443e-08
1.14442e-08
1.03182e-08
8.70376e-09
6.34164e-09
4.42577e-09
3.76698e-09
4.29337e-09
6.04268e-09
7.27659e-09
6.93408e-09
5.67926e-09
4.57016e-09
4.35622e-09
4.36393e-09
4.9565e-09
6.68015e-09
1.01357e-08
1.40908e-08
1.55641e-08
1.33475e-08
1.01445e-08
8.3008e-09
7.57401e-09
8.93663e-09
8.21367e-09
7.81933e-09
1.30957e-08
1.12806e-08
7.93578e-09
7.75569e-09
7.226e-09
7.4325e-09
1.09188e-08
1.46642e-08
1.66008e-08
1.61177e-08
1.44473e-08
1.3005e-08
1.21553e-08
1.17063e-08
1.11989e-08
1.02953e-08
8.95074e-09
7.17183e-09
5.73039e-09
5.24745e-09
5.75366e-09
6.967e-09
7.70328e-09
7.33002e-09
6.25697e-09
5.24621e-09
4.84487e-09
4.81443e-09
5.34792e-09
6.73065e-09
9.09372e-09
1.16102e-08
1.26729e-08
1.16562e-08
9.80397e-09
8.5139e-09
7.68971e-09
8.72236e-09
7.75286e-09
7.00348e-09
1.16315e-08
1.01754e-08
6.88548e-09
7.10445e-09
6.83991e-09
6.36262e-09
8.07274e-09
1.00302e-08
1.13534e-08
1.16196e-08
1.13448e-08
1.11502e-08
1.1164e-08
1.12178e-08
1.10198e-08
1.03906e-08
9.36987e-09
8.09491e-09
7.08603e-09
6.76962e-09
7.1557e-09
7.89744e-09
8.22224e-09
7.75931e-09
6.78029e-09
5.82203e-09
5.28827e-09
5.15839e-09
5.53285e-09
6.52256e-09
8.07593e-09
9.67311e-09
1.04651e-08
1.01076e-08
9.12227e-09
8.31215e-09
7.55091e-09
8.37408e-09
7.30457e-09
6.34483e-09
1.06264e-08
9.85595e-09
6.40203e-09
6.92967e-09
6.7803e-09
5.83799e-09
6.47712e-09
7.30582e-09
8.12742e-09
8.69048e-09
9.17457e-09
9.75961e-09
1.03775e-08
1.08312e-08
1.09192e-08
1.05629e-08
9.86422e-09
9.01165e-09
8.36114e-09
8.17446e-09
8.41783e-09
8.77953e-09
8.77191e-09
8.19051e-09
7.2345e-09
6.2883e-09
5.65417e-09
5.39616e-09
5.56342e-09
6.17305e-09
7.13124e-09
8.12691e-09
8.71801e-09
8.6981e-09
8.24689e-09
7.81557e-09
7.19523e-09
7.89139e-09
6.87939e-09
5.76019e-09
9.96679e-09
9.84662e-09
6.31642e-09
7.2053e-09
7.13686e-09
5.91815e-09
5.97958e-09
6.15087e-09
6.60944e-09
7.2309e-09
8.05376e-09
9.03474e-09
9.98225e-09
1.06701e-08
1.09457e-08
1.07972e-08
1.03619e-08
9.83872e-09
9.4699e-09
9.39304e-09
9.5256e-09
9.61012e-09
9.34217e-09
8.62858e-09
7.6406e-09
6.67356e-09
5.95967e-09
5.57692e-09
5.54227e-09
5.83027e-09
6.35476e-09
6.94194e-09
7.36567e-09
7.49458e-09
7.35715e-09
7.2015e-09
6.7504e-09
7.37276e-09
6.63544e-09
5.72296e-09
9.67407e-09
1.85181e-08
7.20408e-09
8.38906e-09
8.04472e-09
6.69428e-09
6.54498e-09
6.43332e-09
6.7061e-09
7.30582e-09
8.21692e-09
9.29331e-09
1.02816e-08
1.09565e-08
1.12144e-08
1.11106e-08
1.08116e-08
1.05119e-08
1.03696e-08
1.04125e-08
1.05123e-08
1.0436e-08
9.97867e-09
9.12833e-09
8.0662e-09
7.05365e-09
6.28115e-09
5.80887e-09
5.62701e-09
5.68053e-09
5.90472e-09
6.20799e-09
6.47709e-09
6.63312e-09
6.65305e-09
6.67318e-09
6.38772e-09
6.75197e-09
6.83041e-09
1.18414e-08
9.3104e-09
1.84637e-06
2.51755e-06
1.85666e-06
7.55345e-06
7.12181e-06
2.87779e-06
4.41665e-06
3.47658e-06
2.57273e-06
6.41383e-07
1.37637e-06
2.70659e-06
6.18041e-07
1.98722e-06
4.04817e-06
1.37951e-06
4.02311e-07
8.14122e-07
1.3616e-06
2.33727e-06
1.72295e-06
2.3771e-06
1.6486e-06
8.89532e-06
2.2241e-07
1.15215e-06
9.54826e-07
1.37903e-06
1.44972e-06
1.28038e-06
1.57864e-06
2.70835e-06
6.65654e-07
1.61761e-06
1.50709e-07
4.6905e-06
5.49254e-07
1.91738e-06
2.59991e-06
2.07896e-06
1.8848e-06
2.52583e-06
1.87139e-06
7.52722e-06
7.19402e-06
2.89426e-06
4.57358e-06
3.5051e-06
2.5326e-06
6.4525e-07
1.39703e-06
2.72554e-06
6.16479e-07
1.94937e-06
4.07775e-06
1.36266e-06
4.22569e-07
8.23816e-07
1.33461e-06
2.32957e-06
1.71798e-06
2.30179e-06
1.65634e-06
8.77457e-06
2.1202e-07
1.18734e-06
9.2004e-07
1.42852e-06
1.42386e-06
1.28139e-06
1.61199e-06
2.66939e-06
6.52411e-07
1.55486e-06
1.42842e-07
4.76115e-06
5.49315e-07
1.94764e-06
2.6021e-06
2.08486e-06
1.9596e-06
2.52004e-06
1.90985e-06
7.54196e-06
7.19804e-06
2.83866e-06
4.89963e-06
3.57899e-06
2.42021e-06
6.43899e-07
1.47684e-06
2.75754e-06
6.34164e-07
1.86906e-06
4.13822e-06
1.33995e-06
4.79719e-07
8.52436e-07
1.36834e-06
2.27652e-06
1.66996e-06
2.11822e-06
1.65622e-06
8.31835e-06
1.91294e-07
1.29338e-06
8.18606e-07
1.56007e-06
1.35381e-06
1.23188e-06
1.6988e-06
2.51775e-06
6.14449e-07
1.39714e-06
1.36055e-07
4.87526e-06
5.43724e-07
2.02518e-06
2.64845e-06
2.05923e-06
2.08895e-06
2.4133e-06
1.87811e-06
7.45109e-06
6.98689e-06
2.60597e-06
5.01357e-06
3.59531e-06
2.23624e-06
6.41546e-07
1.61645e-06
2.74708e-06
6.71287e-07
1.78204e-06
4.19491e-06
1.35454e-06
5.14171e-07
9.20018e-07
1.39645e-06
2.05124e-06
1.5219e-06
1.9931e-06
1.52848e-06
7.51858e-06
1.70789e-07
1.32037e-06
6.81312e-07
1.667e-06
1.24159e-06
1.09344e-06
1.84139e-06
2.28107e-06
5.4219e-07
1.19011e-06
1.53079e-07
4.87765e-06
5.16648e-07
2.0841e-06
2.55008e-06
1.98115e-06
2.2312e-06
2.19263e-06
1.71239e-06
7.1495e-06
6.67472e-06
2.38623e-06
5.09335e-06
3.64288e-06
1.93442e-06
6.85747e-07
1.79159e-06
2.63311e-06
6.98169e-07
1.66376e-06
4.2627e-06
1.42683e-06
5.22688e-07
1.06394e-06
1.53675e-06
1.61479e-06
1.71397e-06
1.80609e-06
1.32956e-06
6.92809e-06
1.63979e-07
1.30229e-06
5.68418e-07
1.674e-06
1.07965e-06
9.08841e-07
1.87884e-06
2.10921e-06
5.259e-07
8.0402e-07
2.03093e-07
4.66779e-06
5.20699e-07
2.02256e-06
2.65547e-06
1.93399e-06
2.24006e-06
1.96343e-06
1.46272e-06
6.34079e-06
6.36088e-06
2.17731e-06
4.76687e-06
3.79477e-06
1.76713e-06
5.60929e-07
1.77951e-06
2.50191e-06
6.63047e-07
1.37729e-06
3.93696e-06
1.43316e-06
2.87923e-07
1.26691e-06
1.62445e-06
9.72738e-07
2.14571e-06
1.64056e-06
1.19364e-06
6.24513e-06
1.79972e-07
1.21115e-06
4.30407e-07
1.87704e-06
9.30059e-07
6.66918e-07
2.06491e-06
2.16217e-06
5.26975e-07
6.80218e-07
2.28851e-07
4.2787e-06
4.37557e-07
1.97994e-06
2.65849e-06
1.80889e-06
2.17199e-06
1.44297e-06
1.22763e-06
5.73658e-06
6.1666e-06
1.8031e-06
4.33591e-06
3.76234e-06
1.45968e-06
4.12901e-07
1.58616e-06
2.09711e-06
5.48843e-07
1.23079e-06
3.33534e-06
1.45569e-06
1.4977e-07
1.39995e-06
1.87606e-06
7.2713e-07
2.15507e-06
1.14913e-06
1.0313e-06
5.23336e-06
1.83291e-07
1.11916e-06
3.61096e-07
1.78613e-06
8.76864e-07
4.75403e-07
2.18293e-06
2.19426e-06
4.86491e-07
6.40365e-07
2.92892e-07
3.2153e-06
3.91161e-07
1.51361e-06
2.44311e-06
1.58051e-06
1.53937e-06
1.38194e-06
9.9649e-07
4.65378e-06
5.29405e-06
1.30651e-06
3.51556e-06
3.47352e-06
1.33796e-06
3.46039e-07
1.24022e-06
1.47972e-06
4.22968e-07
9.63112e-07
2.70946e-06
1.37481e-06
1.36197e-07
1.1286e-06
1.95428e-06
7.26525e-07
1.64031e-06
9.23468e-07
8.0993e-07
3.67719e-06
3.44876e-07
7.46826e-07
4.17258e-07
1.70097e-06
9.30332e-07
3.76919e-07
2.35401e-06
2.25012e-06
4.29357e-07
6.23915e-07
3.59379e-07
2.05644e-06
3.15407e-07
8.61473e-07
1.85291e-06
1.31132e-06
1.10772e-06
1.35798e-06
8.33842e-07
3.84164e-06
4.02963e-06
8.9367e-07
2.76894e-06
2.78388e-06
1.43226e-06
3.10112e-07
9.30162e-07
1.01319e-06
3.05721e-07
6.30957e-07
1.77228e-06
1.10345e-06
9.68064e-08
8.59865e-07
1.39808e-06
5.9299e-07
1.0648e-06
1.00995e-06
6.44449e-07
2.49085e-06
3.39007e-07
3.88565e-07
3.71575e-07
1.24112e-06
8.42298e-07
3.91154e-07
2.01056e-06
1.99681e-06
3.56974e-07
6.15899e-07
3.66392e-07
1.36621e-06
2.74561e-07
6.11883e-07
1.08031e-06
9.71661e-07
7.91809e-07
1.05769e-06
6.9842e-07
2.65968e-06
2.79796e-06
6.83895e-07
2.03802e-06
2.3157e-06
1.37224e-06
2.51213e-07
6.95163e-07
7.02875e-07
2.07075e-07
4.54642e-07
1.07453e-06
9.34464e-07
1.01702e-07
5.38272e-07
9.52212e-07
6.11945e-07
7.32542e-07
8.33736e-07
5.41221e-07
1.79585e-06
2.55321e-07
1.84236e-07
3.23383e-07
7.49367e-07
7.21079e-07
4.04e-07
1.538e-06
1.81699e-06
2.72466e-07
5.54716e-07
3.82761e-07
1.00656e-06
2.00645e-07
4.43043e-07
6.83242e-07
7.14825e-07
5.9569e-07
7.443e-07
5.70012e-07
1.77978e-06
1.78413e-06
5.87223e-07
1.60636e-06
1.91937e-06
1.20209e-06
1.77151e-07
4.89557e-07
5.47705e-07
1.27097e-07
3.03741e-07
6.29949e-07
7.20196e-07
9.14612e-08
3.67017e-07
6.16783e-07
4.91339e-07
6.19986e-07
6.3647e-07
4.26639e-07
1.12656e-06
1.83668e-07
1.02063e-07
2.19491e-07
4.53052e-07
5.25063e-07
3.62088e-07
1.17585e-06
1.53675e-06
1.98506e-07
5.20481e-07
3.67063e-07
6.44653e-07
1.34598e-07
3.04894e-07
4.88352e-07
5.31213e-07
4.48671e-07
5.20733e-07
4.59411e-07
1.1451e-06
1.121e-06
4.87427e-07
1.30252e-06
1.65553e-06
1.01178e-06
1.28125e-07
3.60073e-07
4.21244e-07
7.18281e-08
1.83884e-07
3.70547e-07
5.70373e-07
9.15267e-08
2.5867e-07
4.47391e-07
3.72091e-07
5.37828e-07
4.39347e-07
3.09282e-07
7.19899e-07
1.33055e-07
6.86061e-08
1.41007e-07
2.90314e-07
3.56153e-07
2.86189e-07
9.21772e-07
1.23813e-06
1.54223e-07
3.99513e-07
3.36152e-07
3.79428e-07
9.68208e-08
1.94279e-07
3.45931e-07
3.76031e-07
3.47024e-07
3.81818e-07
3.68172e-07
7.37746e-07
7.19306e-07
4.22169e-07
1.0622e-06
1.40881e-06
8.4209e-07
1.02794e-07
2.75003e-07
3.12449e-07
4.19333e-08
1.01368e-07
2.18348e-07
4.36926e-07
8.37823e-08
1.8748e-07
3.43106e-07
2.89235e-07
4.32387e-07
2.91824e-07
2.15863e-07
4.50749e-07
8.67563e-08
5.61489e-08
8.97697e-08
1.88985e-07
2.31986e-07
2.1269e-07
7.44746e-07
9.85775e-07
1.27478e-07
2.85602e-07
2.99281e-07
2.31265e-07
7.07841e-08
1.27327e-07
2.51363e-07
2.65886e-07
2.77767e-07
2.94576e-07
2.95005e-07
4.75005e-07
4.70423e-07
3.77659e-07
8.67124e-07
1.16142e-06
6.89939e-07
9.35533e-08
2.10276e-07
2.28125e-07
2.78015e-08
5.15295e-08
1.32357e-07
3.26079e-07
7.32229e-08
1.41901e-07
2.67476e-07
2.20644e-07
3.26744e-07
1.94324e-07
1.49504e-07
2.73943e-07
5.34701e-08
5.02826e-08
5.6134e-08
1.24759e-07
1.46579e-07
1.5237e-07
6.02142e-07
7.64268e-07
1.09485e-07
1.92907e-07
2.47537e-07
1.49167e-07
5.62554e-08
8.83478e-08
1.84198e-07
1.90525e-07
2.24371e-07
2.34753e-07
2.37641e-07
3.08803e-07
3.12821e-07
3.3978e-07
7.11132e-07
9.38026e-07
5.54848e-07
9.10012e-08
1.57582e-07
1.64716e-07
2.2182e-08
2.56911e-08
8.62688e-08
2.37711e-07
6.23602e-08
1.10458e-07
2.09597e-07
1.65862e-07
2.33067e-07
1.30949e-07
1.03178e-07
1.61598e-07
3.16209e-08
4.25071e-08
3.49276e-08
8.31148e-08
8.93355e-08
1.08483e-07
4.79592e-07
5.81402e-07
9.58759e-08
1.20281e-07
1.92038e-07
1.01106e-07
4.74134e-08
6.46378e-08
1.37215e-07
1.41049e-07
1.81221e-07
1.90356e-07
1.92151e-07
2.04773e-07
2.11714e-07
3.00985e-07
5.79136e-07
7.44637e-07
4.40575e-07
8.88772e-08
1.16592e-07
1.18114e-07
2.07179e-08
1.47983e-08
6.13807e-08
1.70219e-07
5.14161e-08
8.67318e-08
1.62808e-07
1.21577e-07
1.57272e-07
8.95119e-08
7.1282e-08
9.32378e-08
1.80827e-08
3.38483e-08
2.19058e-08
5.51451e-08
5.23467e-08
7.77447e-08
3.7273e-07
4.361e-07
8.40259e-08
6.96863e-08
1.40366e-07
7.17678e-08
4.06536e-08
4.96208e-08
1.02799e-07
1.07194e-07
1.45274e-07
1.5498e-07
1.54989e-07
1.39391e-07
1.45569e-07
2.59347e-07
4.66389e-07
5.80279e-07
3.47099e-07
8.52621e-08
8.63473e-08
8.46533e-08
2.08138e-08
1.20697e-08
4.71198e-08
1.19517e-07
4.11825e-08
6.69703e-08
1.23036e-07
8.56409e-08
1.00679e-07
6.16921e-08
4.94992e-08
5.32018e-08
1.02583e-08
2.53766e-08
1.41449e-08
3.59983e-08
2.94186e-08
5.70926e-08
2.82127e-07
3.23739e-07
7.3317e-08
3.82313e-08
9.59389e-08
5.20381e-08
3.46368e-08
3.92649e-08
7.68937e-08
8.30747e-08
1.15169e-07
1.25255e-07
1.23706e-07
9.7233e-08
1.0158e-07
2.16145e-07
3.70468e-07
4.4481e-07
2.72171e-07
8.00657e-08
6.50078e-08
6.10277e-08
2.1056e-08
1.28145e-08
3.78079e-08
8.27e-08
3.21798e-08
5.02291e-08
8.92897e-08
5.7284e-08
6.13469e-08
4.29989e-08
3.47504e-08
3.05479e-08
5.87168e-09
1.81565e-08
9.59342e-09
2.29126e-08
1.60375e-08
4.3511e-08
2.08592e-07
2.38597e-07
6.35e-08
2.05905e-08
6.1407e-08
3.83808e-08
2.90577e-08
3.167e-08
5.72339e-08
6.54191e-08
9.03041e-08
9.96875e-08
9.70104e-08
6.89902e-08
7.19624e-08
1.74157e-07
2.89565e-07
3.35923e-07
2.12125e-07
7.36209e-08
5.05209e-08
4.46903e-08
2.07165e-08
1.43459e-08
3.09828e-08
5.69947e-08
2.46519e-08
3.63125e-08
6.13973e-08
3.59019e-08
3.57634e-08
3.04662e-08
2.48743e-08
1.8154e-08
3.53754e-09
1.26925e-08
6.91658e-09
1.43121e-08
8.90802e-09
3.45794e-08
1.51586e-07
1.74898e-07
5.45104e-08
1.19916e-08
3.71189e-08
2.83094e-08
2.40435e-08
2.58187e-08
4.24709e-08
5.22884e-08
7.02477e-08
7.78526e-08
7.43984e-08
4.93183e-08
5.18231e-08
1.35922e-07
2.22001e-07
2.50396e-07
1.64559e-07
6.63602e-08
4.08839e-08
3.36777e-08
1.97166e-08
1.54243e-08
2.57821e-08
3.95137e-08
1.86123e-08
2.50154e-08
3.95903e-08
2.06533e-08
2.02407e-08
2.20368e-08
1.83474e-08
1.1555e-08
2.39811e-09
8.9152e-09
5.33132e-09
8.99611e-09
5.70661e-09
2.86265e-08
1.09175e-07
1.27706e-07
4.64691e-08
8.70894e-09
2.16518e-08
2.06672e-08
1.97824e-08
2.12241e-08
3.16131e-08
4.23478e-08
5.47763e-08
5.96603e-08
5.57317e-08
3.54072e-08
3.79895e-08
1.03253e-07
1.66897e-07
1.84488e-07
1.26962e-07
5.86177e-08
3.43965e-08
2.64156e-08
1.83194e-08
1.57028e-08
2.16032e-08
2.78553e-08
1.39465e-08
1.6275e-08
2.35545e-08
1.06263e-08
1.15427e-08
1.64813e-08
1.41086e-08
8.121e-09
1.97536e-09
6.47881e-09
4.40686e-09
6.03457e-09
4.82857e-09
2.44264e-08
7.86012e-08
9.30618e-08
3.94282e-08
8.27283e-09
1.29294e-08
1.51431e-08
1.63657e-08
1.76305e-08
2.38256e-08
3.46933e-08
4.23845e-08
4.47585e-08
4.08821e-08
2.56439e-08
2.84052e-08
7.65181e-08
1.23009e-07
1.34551e-07
9.73105e-08
5.07428e-08
2.97786e-08
2.17188e-08
1.68113e-08
1.52971e-08
1.82266e-08
2.01926e-08
1.04981e-08
9.99815e-09
1.26943e-08
4.75633e-09
7.16337e-09
1.28972e-08
1.14261e-08
6.43121e-09
2.01468e-09
5.00563e-09
3.91438e-09
4.66999e-09
5.16618e-09
2.12907e-08
5.72104e-08
6.78917e-08
3.33454e-08
9.12057e-09
8.83923e-09
1.15114e-08
1.38348e-08
1.48746e-08
1.83865e-08
2.87037e-08
3.28693e-08
3.30291e-08
2.95734e-08
1.89352e-08
2.16441e-08
5.56148e-08
8.88626e-08
9.71455e-08
7.39825e-08
4.30285e-08
2.61753e-08
1.87038e-08
1.54203e-08
1.44739e-08
1.55328e-08
1.52293e-08
8.11299e-09
5.9394e-09
6.12889e-09
1.9609e-09
5.35099e-09
1.0678e-08
9.8e-09
5.73524e-09
2.34693e-09
4.20472e-09
3.73094e-09
4.29851e-09
5.98789e-09
1.87895e-08
4.23079e-08
4.98545e-08
2.82369e-08
1.03214e-08
7.58097e-09
9.45308e-09
1.2112e-08
1.28169e-08
1.46558e-08
2.39454e-08
2.56296e-08
2.41153e-08
2.13535e-08
1.44397e-08
1.68115e-08
3.98654e-08
6.29854e-08
6.93807e-08
5.56918e-08
3.57816e-08
2.30826e-08
1.67118e-08
1.42672e-08
1.35238e-08
1.34665e-08
1.20782e-08
6.64673e-09
3.76374e-09
2.8767e-09
1.25505e-09
4.97791e-09
9.41111e-09
8.88493e-09
5.61822e-09
2.91001e-09
3.88577e-09
3.78215e-09
4.4698e-09
6.83982e-09
1.66805e-08
3.1978e-08
3.71006e-08
2.40138e-08
1.13608e-08
7.78973e-09
8.5536e-09
1.10285e-08
1.13186e-08
1.20989e-08
2.01375e-08
2.02047e-08
1.76241e-08
1.56566e-08
1.14867e-08
1.32868e-08
2.83466e-08
4.38957e-08
4.89558e-08
4.14302e-08
2.91769e-08
2.02607e-08
1.52787e-08
1.33608e-08
1.26657e-08
1.19919e-08
1.01908e-08
5.96038e-09
3.05096e-09
1.93636e-09
1.83851e-09
5.36055e-09
8.79233e-09
8.44356e-09
5.84091e-09
3.60522e-09
3.91869e-09
4.00091e-09
4.86942e-09
7.47e-09
1.4824e-08
2.47429e-08
2.81613e-08
2.05417e-08
1.19937e-08
8.53411e-09
8.37278e-09
1.03965e-08
1.02397e-08
1.03074e-08
1.71009e-08
1.62459e-08
1.30904e-08
1.18874e-08
9.56331e-09
1.06674e-08
2.00797e-08
3.01529e-08
3.4097e-08
3.04151e-08
2.33546e-08
1.76021e-08
1.41004e-08
1.26506e-08
1.19676e-08
1.10359e-08
9.20103e-09
5.91028e-09
3.37979e-09
2.45852e-09
3.10949e-09
6.10308e-09
8.60469e-09
8.31071e-09
6.23159e-09
4.34364e-09
4.19422e-09
4.33142e-09
5.29201e-09
7.77967e-09
1.31401e-08
1.95701e-08
2.18815e-08
1.76611e-08
1.21423e-08
9.25439e-09
8.4878e-09
1.00168e-08
9.4435e-09
9.00276e-09
1.47267e-08
1.34721e-08
1.00766e-08
9.50844e-09
8.3132e-09
8.71499e-09
1.4304e-08
2.05069e-08
2.34561e-08
2.20382e-08
1.84e-08
1.51334e-08
1.30205e-08
1.20687e-08
1.14747e-08
1.05149e-08
8.85322e-09
6.34374e-09
4.36042e-09
3.75037e-09
4.65363e-09
6.98293e-09
8.68878e-09
8.36824e-09
6.68262e-09
5.06031e-09
4.60851e-09
4.70112e-09
5.61524e-09
7.76286e-09
1.15829e-08
1.57606e-08
1.73868e-08
1.52129e-08
1.18154e-08
9.63194e-09
8.60198e-09
9.7122e-09
8.81241e-09
8.01165e-09
1.29278e-08
1.16321e-08
8.18731e-09
8.09451e-09
7.52271e-09
7.29713e-09
1.03679e-08
1.39359e-08
1.60169e-08
1.5828e-08
1.4357e-08
1.29182e-08
1.19922e-08
1.15652e-08
1.11569e-08
1.03276e-08
8.9502e-09
7.10228e-09
5.67576e-09
5.3458e-09
6.21412e-09
7.87972e-09
8.93308e-09
8.53473e-09
7.12422e-09
5.70171e-09
5.064e-09
5.04428e-09
5.78987e-09
7.47944e-09
1.01302e-08
1.28554e-08
1.40525e-08
1.3068e-08
1.10946e-08
9.58229e-09
8.53049e-09
9.35797e-09
8.25965e-09
7.22699e-09
1.16077e-08
1.05343e-08
7.10433e-09
7.35223e-09
7.09467e-09
6.36347e-09
7.8346e-09
9.67043e-09
1.10351e-08
1.14286e-08
1.12498e-08
1.10679e-08
1.10542e-08
1.1125e-08
1.09741e-08
1.03699e-08
9.32493e-09
8.03177e-09
7.08582e-09
6.95272e-09
7.65213e-09
8.73275e-09
9.26573e-09
8.76079e-09
7.51929e-09
6.2365e-09
5.48638e-09
5.3191e-09
5.81552e-09
7.01558e-09
8.78702e-09
1.05623e-08
1.14722e-08
1.11494e-08
1.00953e-08
9.14436e-09
8.2184e-09
8.89074e-09
7.73312e-09
6.58037e-09
1.06732e-08
1.00819e-08
6.60162e-09
7.12043e-09
7.01631e-09
5.92853e-09
6.43799e-09
7.1844e-09
7.99803e-09
8.59799e-09
9.11563e-09
9.70782e-09
1.03228e-08
1.07923e-08
1.09053e-08
1.05567e-08
9.84349e-09
8.99711e-09
8.42608e-09
8.41511e-09
8.91494e-09
9.52517e-09
9.65225e-09
9.02339e-09
7.86391e-09
6.66356e-09
5.83962e-09