/*--------------------------------*- C++ -*----------------------------------*\
  =========                 |
  \\      /  F ield         | OpenFOAM: The Open Source CFD Toolbox
   \\    /   O peration     | Website:  https://openfoam.org
    \\  /    A nd           | Version:  10
     \\/     M anipulation  |
\*---------------------------------------------------------------------------*/
FoamFile
{
    format      ascii;
    class       volVectorField;
    location    "2";
    object      UMean;
}
// * * * * * * * * * * * * * * * * * * * * * * * * * * * * * * * * * * * * * //

dimensions      [0 1 -1 0 0 0 0];

internalField   nonuniform List<vector> 
25600
(
(0.0154664 5.89514e-05 -0.000482484)
(0.0166666 9.27365e-06 0.00543029)
(0.0168735 -2.79618e-05 0.00370057)
(0.0163636 -4.56946e-05 -0.00259794)
(0.0146012 1.79737e-07 -0.00472878)
(0.015179 6.14476e-05 -0.000705599)
(0.0163658 1.98392e-05 0.0051246)
(0.0168759 -1.88564e-05 0.00386613)
(0.0169642 -4.17955e-05 -0.0029386)
(0.0140552 5.18334e-06 -0.00601864)
(0.0163698 5.45667e-05 -0.000308256)
(0.0162207 1.44193e-05 0.0053716)
(0.0170845 -2.76216e-05 0.00346861)
(0.0161778 -4.56486e-05 -0.00262016)
(0.0143866 2.24992e-06 -0.00540647)
(0.0154625 5.71894e-05 -0.00075046)
(0.0166683 1.21044e-05 0.00537263)
(0.017021 -2.47318e-05 0.00349687)
(0.0168845 -5.69243e-05 -0.00257342)
(0.0142594 1.2411e-06 -0.0052062)
(0.0155041 5.9906e-05 -0.000500879)
(0.0158991 1.73904e-05 0.00577028)
(0.0172216 -2.98295e-05 0.00348567)
(0.0162421 -5.69376e-05 -0.00219663)
(0.0145501 3.17861e-06 -0.0051457)
(0.0150586 6.98152e-05 -0.000585313)
(0.0165396 8.32587e-06 0.00505695)
(0.0165793 -2.95032e-05 0.00381259)
(0.0161593 -4.52681e-05 -0.00300935)
(0.0142479 5.33663e-06 -0.00566091)
(0.0152273 6.65471e-05 -0.000692678)
(0.0165965 1.75839e-05 0.00517636)
(0.0165548 -2.14016e-05 0.00346571)
(0.0163303 -4.5392e-05 -0.00227645)
(0.0140315 6.62812e-06 -0.00575873)
(0.0161224 5.57121e-05 -0.000306301)
(0.0165094 7.33907e-06 0.00511871)
(0.0165109 -2.0902e-05 0.00371485)
(0.0164074 -4.23499e-05 -0.00317589)
(0.0137675 6.99451e-06 -0.0052015)
(0.0470527 0.000160201 -0.00308651)
(0.0516131 2.49167e-05 0.0153258)
(0.0521115 -0.000182656 0.0123412)
(0.0502441 -0.000197663 -0.00644531)
(0.0441237 -3.00384e-05 -0.0148667)
(0.0461174 0.000279822 -0.00375867)
(0.0506232 8.36919e-05 0.0144769)
(0.0520339 -0.000173421 0.0129062)
(0.0520712 -0.000182206 -0.00745201)
(0.0424562 7.58329e-07 -0.0188273)
(0.0498871 0.000141169 -0.00253238)
(0.0501815 0.000109967 0.0151702)
(0.052683 -0.000157926 0.011502)
(0.0495853 -0.000121248 -0.00653567)
(0.043469 -6.05488e-05 -0.0169052)
(0.0470808 0.00018089 -0.00391038)
(0.0514915 -2.47472e-05 0.0151558)
(0.0524898 -0.000171754 0.0117648)
(0.0518322 -0.000277394 -0.00645631)
(0.043034 5.9786e-06 -0.016339)
(0.0471709 0.000202866 -0.00318749)
(0.04923 8.26599e-05 0.0162694)
(0.0531621 -0.000192707 0.0116121)
(0.0499027 -0.000230612 -0.00528289)
(0.0437982 4.13659e-05 -0.0161984)
(0.0458584 0.000311009 -0.00349361)
(0.0511876 -2.41263e-05 0.0143519)
(0.0512781 -0.000191854 0.012805)
(0.0495604 -0.000162538 -0.00786929)
(0.042858 -5.39402e-06 -0.01776)
(0.0462629 0.000240369 -0.00383438)
(0.0513962 4.0953e-05 0.0146945)
(0.0512232 -0.000132216 0.0115228)
(0.0501682 -0.000200086 -0.0054736)
(0.0423404 -3.48774e-05 -0.0179486)
(0.0490843 0.000160328 -0.00254499)
(0.0510931 8.24151e-05 0.0143843)
(0.0509426 -0.000140684 0.0125105)
(0.0503324 -0.000149109 -0.00833534)
(0.0415985 5.8338e-06 -0.0163834)
(0.0777344 0.000155301 -0.00801414)
(0.0873175 -0.000102803 0.0241992)
(0.0877367 -0.000388272 0.0226391)
(0.0841283 -0.000215449 -0.00835497)
(0.0725028 3.04192e-05 -0.0259311)
(0.076201 0.00053641 -0.00911058)
(0.0853573 6.40272e-05 0.0226309)
(0.087404 -0.000406005 0.0236912)
(0.0873621 -0.000204848 -0.0102212)
(0.0696847 0.000107157 -0.0329129)
(0.0829379 6.7999e-05 -0.00696725)
(0.0846465 0.000187279 0.023614)
(0.0886589 -0.000325655 0.0209331)
(0.0829607 -1.49494e-05 -0.00870557)
(0.0713668 -8.2835e-05 -0.0295172)
(0.0779732 0.000240014 -0.0093329)
(0.0869087 -0.000262018 0.0237678)
(0.0883384 -0.000381457 0.0216677)
(0.0869001 -0.000457571 -0.00867583)
(0.070682 0.000161189 -0.028583)
(0.0782234 0.000300958 -0.00811531)
(0.0829424 7.83867e-05 0.0252928)
(0.0896324 -0.000438062 0.0212878)
(0.0834916 -0.000287457 -0.00674615)
(0.0718978 0.000291799 -0.0283963)
(0.0757187 0.000566803 -0.00882996)
(0.0866553 -0.000236412 0.0227183)
(0.0858812 -0.000397141 0.0236777)
(0.0830135 -0.000109309 -0.0114312)
(0.0701475 0.000104962 -0.0310142)
(0.076488 0.000336582 -0.00943842)
(0.0868191 -4.97956e-05 0.0230913)
(0.0860561 -0.000270736 0.0210401)
(0.0840269 -0.00027128 -0.00688788)
(0.0692806 2.34921e-05 -0.0310891)
(0.0814716 0.000144518 -0.00695634)
(0.0861312 0.000115942 0.0222193)
(0.0854168 -0.000292225 0.0231432)
(0.0844357 -0.000123242 -0.0121136)
(0.0681785 0.000134758 -0.0286775)
(0.104142 -0.00019132 -0.0152869)
(0.120165 -0.00048249 0.029844)
(0.120071 -0.000494502 0.0337471)
(0.114819 0.000143457 -0.00732846)
(0.0963726 0.000250932 -0.0367388)
(0.101737 0.000668848 -0.0171002)
(0.117723 -0.00018336 0.0282887)
(0.119393 -0.000639137 0.03534)
(0.119656 0.000124457 -0.00998777)
(0.0922594 0.000368282 -0.0464213)
(0.111592 -0.000422886 -0.0141795)
(0.116101 0.000180137 0.0283905)
(0.121211 -0.000417921 0.0307491)
(0.112833 0.000677592 -0.00787317)
(0.0945044 5.33075e-06 -0.0418455)
(0.104461 5.2836e-06 -0.017358)
(0.11908 -0.000719767 0.0290638)
(0.120629 -0.000563581 0.0321917)
(0.118348 -0.000378025 -0.00774318)
(0.0933775 0.000498061 -0.0400246)
(0.103973 0.00010211 -0.0161395)
(0.114154 -2.73005e-05 0.0313723)
(0.122253 -0.000670319 0.0318482)
(0.114202 0.00020209 -0.00638058)
(0.0947821 0.000855314 -0.0397395)
(0.101321 0.000525132 -0.0165947)
(0.118393 -0.000740546 0.0272083)
(0.118511 -0.000548126 0.035411)
(0.11355 0.000461104 -0.012038)
(0.0925727 0.000511918 -0.0435511)
(0.10131 6.90236e-05 -0.0179882)
(0.119185 -0.000486121 0.0282767)
(0.118492 -0.000347121 0.0310715)
(0.114953 2.92538e-05 -0.00578043)
(0.0923008 0.00024352 -0.043827)
(0.109161 -0.00028563 -0.0144416)
(0.118682 1.84109e-05 0.0274252)
(0.117184 -0.000336307 0.0346884)
(0.114932 0.000397554 -0.0122192)
(0.0903279 0.000488571 -0.0407238)
(0.123776 -0.00116045 -0.0241797)
(0.148521 -0.00132555 0.031992)
(0.146919 -0.0003712 0.0440809)
(0.141094 0.00108158 -0.00396076)
(0.11394 0.000802074 -0.0456956)
(0.12104 0.000323957 -0.0262766)
(0.145162 -0.000580803 0.0298024)
(0.146424 -0.000677864 0.0454578)
(0.146391 0.00119931 -0.00522897)
(0.109349 0.00100781 -0.0564031)
(0.131748 -0.00164727 -0.0240507)
(0.141414 -9.93848e-05 0.0278012)
(0.147931 -0.000315552 0.0390281)
(0.137314 0.00229667 -0.00374774)
(0.111752 0.000358968 -0.0521086)
(0.123619 -0.00071369 -0.0271825)
(0.14768 -0.00162321 0.0320779)
(0.147693 -0.000519815 0.0416212)
(0.143381 0.000445105 -0.00302074)
(0.110422 0.00131565 -0.049423)
(0.123201 -0.0005545 -0.0251196)
(0.140496 -0.000322161 0.0324142)
(0.149951 -0.000717571 0.0412234)
(0.138905 0.0015104 -0.00255312)
(0.112059 0.00209353 -0.0482561)
(0.118626 5.98694e-05 -0.027254)
(0.145492 -0.00159652 0.0288331)
(0.144892 -0.000473921 0.0462408)
(0.138529 0.00176155 -0.00803683)
(0.109354 0.00132021 -0.0535032)
(0.121475 -0.000584132 -0.0263786)
(0.145707 -0.00124746 0.0289127)
(0.146385 -0.000256673 0.0395816)
(0.13977 0.0010426 0.000307383)
(0.11009 0.000692879 -0.0524372)
(0.128645 -0.00114991 -0.0243512)
(0.144988 -0.000417908 0.027661)
(0.143439 -0.000126791 0.045222)
(0.140585 0.00158052 -0.00934412)
(0.107241 0.00122652 -0.0496505)
(0.132906 -0.00274273 -0.0322096)
(0.167177 -0.00272688 0.0306562)
(0.167644 0.000107928 0.0502893)
(0.160305 0.00259941 0.00301701)
(0.122569 0.00198606 -0.0484515)
(0.133731 -0.000865817 -0.0316603)
(0.164213 -0.00160315 0.0256128)
(0.166852 -0.000770057 0.0513322)
(0.168187 0.00318514 -5.29777e-05)
(0.121538 0.00231448 -0.0586884)
(0.14383 -0.00389184 -0.0300656)
(0.159199 -0.000745459 0.0238477)
(0.16636 2.15825e-05 0.0440794)
(0.156704 0.00479109 0.000771888)
(0.120115 0.00107757 -0.0557522)
(0.13681 -0.00202535 -0.0317661)
(0.162644 -0.00297852 0.0262995)
(0.16551 -0.000192472 0.0456529)
(0.159522 0.00234353 0.00409816)
(0.120029 0.00244346 -0.0525073)
(0.135474 -0.00177438 -0.0299852)
(0.161221 -0.00116908 0.0290606)
(0.168176 -0.00066018 0.0475708)
(0.158164 0.00405652 -0.000479585)
(0.122901 0.00403551 -0.0506528)
(0.128118 -0.0014434 -0.0355468)
(0.164151 -0.00288798 0.0278671)
(0.164696 8.0329e-05 0.0536538)
(0.156725 0.00374517 -0.00205057)
(0.122051 0.00232727 -0.0557903)
(0.129724 -0.00202955 -0.0351963)
(0.164676 -0.00298445 0.0281045)
(0.167016 2.77898e-05 0.045831)
(0.160532 0.00275871 0.0056226)
(0.123428 0.00143046 -0.0533541)
(0.139237 -0.00296277 -0.031957)
(0.164057 -0.000692356 0.0260931)
(0.162215 0.000351668 0.0524293)
(0.159666 0.00339137 -0.00522168)
(0.120279 0.00220366 -0.0516035)
(0.141556 -0.00489081 -0.0291506)
(0.170066 -0.00464044 0.020944)
(0.174161 0.000340363 0.0478958)
(0.170647 0.00496861 0.00428305)
(0.133148 0.00365944 -0.0474844)
(0.139728 -0.00260241 -0.0331075)
(0.171855 -0.00370004 0.0212417)
(0.1749 -0.00112621 0.0487902)
(0.17942 0.00514523 0.00706829)
(0.133451 0.00409212 -0.0497014)
(0.143499 -0.00636719 -0.030831)
(0.164847 -0.00219442 0.0207882)
(0.176574 9.21806e-05 0.0434454)
(0.17124 0.00778701 0.00702562)
(0.127374 0.00266574 -0.0483817)
(0.143313 -0.00417519 -0.0281737)
(0.167587 -0.00417453 0.0198789)
(0.171483 9.52911e-05 0.0453122)
(0.169806 0.00501464 0.00452686)
(0.13154 0.00369122 -0.0500465)
(0.137731 -0.00379829 -0.0313592)
(0.171478 -0.00308398 0.0238555)
(0.176049 -0.000955532 0.0472789)
(0.170287 0.00732603 0.00393592)
(0.133191 0.00664548 -0.0479604)
(0.133828 -0.00402117 -0.034704)
(0.169272 -0.00450263 0.0233588)
(0.172203 0.000484751 0.0531383)
(0.170222 0.0060711 0.00278563)
(0.129789 0.00400088 -0.0486728)
(0.134639 -0.00437494 -0.0319329)
(0.163928 -0.00553335 0.0204736)
(0.173076 -0.00014948 0.0453058)
(0.174185 0.00461928 0.00697682)
(0.13425 0.00337714 -0.0454614)
(0.136666 -0.00573252 -0.0334005)
(0.173383 -0.00177879 0.0240431)
(0.172444 0.000552819 0.0519333)
(0.171577 0.0059743 0.000906092)
(0.131104 0.00335953 -0.0481751)
(0.144257 -0.00657667 -0.0228082)
(0.163452 -0.00621726 0.0169733)
(0.16913 -0.000404628 0.039628)
(0.173724 0.00719662 0.00400889)
(0.140879 0.00548129 -0.0388328)
(0.143413 -0.00398279 -0.0272392)
(0.164817 -0.0052829 0.0169867)
(0.171001 -0.0014987 0.0387275)
(0.17995 0.00618133 0.0102427)
(0.144623 0.0056671 -0.0388683)
(0.145569 -0.00741172 -0.0249293)
(0.16256 -0.0037138 0.0183507)
(0.171467 -0.000243528 0.0360609)
(0.17494 0.00974984 0.0116226)
(0.140439 0.00443493 -0.0405654)
(0.147672 -0.00589233 -0.0230428)
(0.163946 -0.00479624 0.0156045)
(0.168528 -0.000262134 0.0403892)
(0.175006 0.00724359 0.00186117)
(0.14148 0.00569944 -0.0411886)
(0.138693 -0.00582049 -0.0267051)
(0.166569 -0.00536585 0.0179769)
(0.16888 -0.00173495 0.0405404)
(0.175271 0.00967831 0.0028509)
(0.140627 0.00925697 -0.0387338)
(0.13805 -0.00558094 -0.0265191)
(0.163485 -0.00555173 0.0197563)
(0.166739 0.000162505 0.0431488)
(0.172675 0.00774258 0.00667879)
(0.136016 0.00626438 -0.0368187)
(0.137024 -0.00576727 -0.0247334)
(0.157682 -0.00694474 0.0188492)
(0.168898 -0.00102249 0.0388837)
(0.177143 0.00609046 0.00850554)
(0.140497 0.00588603 -0.0347486)
(0.141577 -0.00735134 -0.0235174)
(0.167779 -0.00414216 0.0196565)
(0.170253 -0.000355624 0.0422024)
(0.176677 0.00805224 0.00480355)
(0.140062 0.00489817 -0.0387372)
(0.146608 -0.00663522 -0.0159025)
(0.154451 -0.006713 0.0141215)
(0.158988 -0.00140032 0.028856)
(0.166209 0.00790381 0.00315024)
(0.146146 0.0066125 -0.0276188)
(0.145631 -0.00449346 -0.0197808)
(0.155582 -0.00599445 0.0159729)
(0.163844 -0.00225436 0.0286912)
(0.17203 0.00600538 0.0061951)
(0.151717 0.00667602 -0.0275923)
(0.146072 -0.00724893 -0.0192694)
(0.157412 -0.00457983 0.0173809)
(0.163726 -0.000813338 0.0283774)
(0.171443 0.0102186 0.00827184)
(0.14861 0.00605215 -0.0279086)
(0.145138 -0.00657878 -0.0194027)
(0.157779 -0.00474156 0.016172)
(0.161429 -0.000975116 0.0316817)
(0.168954 0.00822909 0.00286373)
(0.146565 0.00730627 -0.029859)
(0.142728 -0.00672314 -0.0175522)
(0.156558 -0.00614596 0.0142675)
(0.157388 -0.00259303 0.0307531)
(0.169426 0.0103126 0.00101465)
(0.145736 0.010796 -0.0283728)
(0.14265 -0.00608146 -0.0179216)
(0.153975 -0.00575154 0.0159982)
(0.160289 -0.000586704 0.0309933)
(0.168422 0.00837394 0.00469922)
(0.143767 0.00817416 -0.0280273)
(0.14253 -0.00589883 -0.0176707)
(0.15138 -0.00740934 0.0166764)
(0.160592 -0.00192433 0.0299397)
(0.170242 0.00662597 0.00540048)
(0.148018 0.0074786 -0.0266566)
(0.144461 -0.00793527 -0.018118)
(0.157919 -0.0052875 0.0174335)
(0.162704 -0.00155797 0.0297582)
(0.171192 0.00837976 0.00675905)
(0.146394 0.00628265 -0.0273938)
(0.145705 -0.00589351 -0.0108127)
(0.147534 -0.00630531 0.0124392)
(0.149438 -0.00217901 0.0188312)
(0.155528 0.00756184 0.00117124)
(0.147841 0.0064716 -0.0176038)
(0.145505 -0.00425605 -0.0125495)
(0.147313 -0.00604541 0.0134217)
(0.153481 -0.00291962 0.0178927)
(0.157672 0.0052164 0.00353907)
(0.151591 0.0067885 -0.0172016)
(0.14567 -0.0064418 -0.0115528)
(0.148963 -0.0048352 0.0128251)
(0.152216 -0.00142219 0.0186906)
(0.159634 0.00928204 0.00470231)
(0.150352 0.00715064 -0.0165901)
(0.143659 -0.00640647 -0.0125389)
(0.150058 -0.00448793 0.0140214)
(0.151179 -0.00147097 0.0212595)
(0.158951 0.00793807 0.00182744)
(0.148255 0.00773847 -0.0201049)
(0.145215 -0.00625855 -0.00974367)
(0.147107 -0.00550416 0.0105434)
(0.146877 -0.00305662 0.0193175)
(0.156963 0.00939876 0.000141372)
(0.14782 0.0109051 -0.0195435)
(0.145472 -0.00560232 -0.0103894)
(0.14597 -0.00551726 0.011445)
(0.150801 -0.00174079 0.0189564)
(0.158429 0.00797717 0.00116966)
(0.146823 0.00878712 -0.018715)
(0.144271 -0.00533891 -0.0108784)
(0.144998 -0.00658558 0.0125916)
(0.150391 -0.00252262 0.0192296)
(0.157289 0.00626307 0.00281798)
(0.149618 0.00826012 -0.0177447)
(0.144562 -0.00720078 -0.0125936)
(0.148725 -0.00548151 0.0142908)
(0.15259 -0.00251586 0.018581)
(0.160177 0.00761583 0.00390395)
(0.14854 0.00672992 -0.0171352)
(0.142911 -0.00486007 -0.00631059)
(0.141501 -0.00504702 0.00898275)
(0.141085 -0.00218298 0.00984727)
(0.145083 0.00585795 -0.00072126)
(0.14422 0.00546437 -0.00956473)
(0.143332 -0.0036022 -0.00523606)
(0.140903 -0.00501228 0.00942391)
(0.143491 -0.00290931 0.00890821)
(0.144912 0.00404625 8.50177e-06)
(0.146125 0.00586147 -0.00972372)
(0.14279 -0.00528062 -0.00492368)
(0.142064 -0.00408466 0.00895426)
(0.142431 -0.00166038 0.0103243)
(0.147638 0.00741851 0.000281822)
(0.146965 0.00673617 -0.00883197)
(0.141406 -0.00531651 -0.00638291)
(0.142393 -0.00349951 0.0102524)
(0.142453 -0.00163538 0.0109591)
(0.146939 0.00627279 0.000435151)
(0.145908 0.00703169 -0.0107484)
(0.142069 -0.00534844 -0.00509532)
(0.141211 -0.00409599 0.00823603)
(0.138973 -0.00296277 0.0105859)
(0.145667 0.00770651 -0.00232955)
(0.145931 0.00944619 -0.0115427)
(0.143162 -0.00454955 -0.00540938)
(0.141228 -0.00482365 0.00881393)
(0.141454 -0.00228457 0.00941096)
(0.146017 0.00619943 -0.000824227)
(0.145568 0.00799842 -0.0111221)
(0.142534 -0.00432458 -0.00559054)
(0.140398 -0.00518546 0.00911079)
(0.141934 -0.00266362 0.0106019)
(0.145866 0.00523698 -0.000631425)
(0.146278 0.00775978 -0.0101746)
(0.142661 -0.00569801 -0.00656756)
(0.141887 -0.00454882 0.0100036)
(0.142489 -0.00290527 0.00932781)
(0.147428 0.00609907 0.000536543)
(0.146432 0.00611125 -0.00977928)
(0.138933 -0.00355599 -0.00297728)
(0.137471 -0.0037959 0.00637926)
(0.136424 -0.00196095 0.00404601)
(0.138087 0.00413384 -0.00203223)
(0.139626 0.00408221 -0.00397606)
(0.139026 -0.00291662 -0.00130269)
(0.137323 -0.00357953 0.00650283)
(0.137321 -0.00251061 0.00398666)
(0.137716 0.00278821 -0.00295807)
(0.140404 0.00460569 -0.00508341)
(0.139075 -0.00403571 -0.00141984)
(0.137685 -0.00318485 0.00600114)
(0.136565 -0.00174842 0.00464411)
(0.139032 0.00561438 -0.00242784)
(0.142017 0.0056068 -0.00431486)
(0.138555 -0.00403975 -0.00271405)
(0.137453 -0.00225724 0.00692004)
(0.137129 -0.00143501 0.00398218)
(0.138485 0.00466406 -0.00123484)
(0.141475 0.00558705 -0.00492509)
(0.138893 -0.00406089 -0.00188917)
(0.137674 -0.0027756 0.00627043)
(0.135382 -0.00244143 0.00485229)
(0.137787 0.0056407 -0.002946)
(0.141644 0.00738165 -0.00553573)
(0.140131 -0.00337412 -0.00169848)
(0.137586 -0.0037122 0.0061934)
(0.136571 -0.00201632 0.00345913)
(0.137897 0.00422127 -0.00225708)
(0.14119 0.00633534 -0.0059714)
(0.139798 -0.00327214 -0.00156812)
(0.137203 -0.00372484 0.00631002)
(0.136797 -0.00230451 0.00471547)
(0.13761 0.00381241 -0.00219539)
(0.141546 0.00628664 -0.00516616)
(0.139618 -0.00433119 -0.00275715)
(0.137733 -0.00329504 0.00651389)
(0.136891 -0.00260706 0.00336952)
(0.138493 0.00431862 -0.00172127)
(0.141302 0.00478242 -0.00439225)
(0.136872 -0.00249819 -0.00108837)
(0.135781 -0.00262512 0.00452884)
(0.13492 -0.00153057 0.00148089)
(0.135136 0.00272211 -0.00213442)
(0.136896 0.00285366 -0.00144107)
(0.136591 -0.00207583 9.54355e-05)
(0.135802 -0.00242289 0.00456124)
(0.135334 -0.00193871 0.00182262)
(0.134885 0.00166294 -0.00323547)
(0.137064 0.00335301 -0.00243815)
(0.136736 -0.00287494 -9.99807e-05)
(0.135741 -0.00214223 0.00402061)
(0.134534 -0.00134363 0.00183968)
(0.135151 0.00382754 -0.0028974)
(0.13826 0.00416238 -0.00194719)
(0.136673 -0.00287479 -0.000943181)
(0.135601 -0.00133655 0.00489508)
(0.13525 -0.00110171 0.00116681)
(0.135133 0.00309427 -0.00180594)
(0.137838 0.00404704 -0.00189982)
(0.136773 -0.00289087 -0.000262417)
(0.135769 -0.00178433 0.00449721)
(0.134472 -0.00186142 0.00208542)
(0.134631 0.00395591 -0.00260258)
(0.138224 0.00538348 -0.00208896)
(0.137695 -0.00230847 -3.09079e-05)
(0.135809 -0.00264237 0.00434914)
(0.134812 -0.00161812 0.000951079)
(0.134673 0.0027733 -0.00233531)
(0.137651 0.00469976 -0.00291792)
(0.137432 -0.00232484 0.000172209)
(0.135706 -0.00250937 0.0044665)
(0.134908 -0.00179852 0.00215621)
(0.134483 0.00259749 -0.00257412)
(0.137969 0.0047233 -0.00231606)
(0.137399 -0.00305544 -0.000923314)
(0.135853 -0.00223979 0.00430029)
(0.134984 -0.00207551 0.000936507)
(0.135016 0.00286234 -0.00240437)
(0.137625 0.00347399 -0.00187071)
(0.13589 -0.0016546 -0.000453679)
(0.13522 -0.0017551 0.00311626)
(0.134709 -0.00117876 0.000660355)
(0.134552 0.0017471 -0.00160894)
(0.135675 0.0019186 -0.000541783)
(0.135638 -0.00134143 0.000406629)
(0.135289 -0.00154772 0.00320326)
(0.135026 -0.00140565 0.00105134)
(0.13443 0.000922647 -0.00248254)
(0.135692 0.0023173 -0.00124599)
(0.135834 -0.00191962 0.000268711)
(0.135159 -0.00141918 0.00274231)
(0.134274 -0.00108784 0.000862861)
(0.134274 0.00269425 -0.00226164)
(0.13646 0.00297674 -0.000883)
(0.135764 -0.00192215 -0.00030567)
(0.135079 -0.000704954 0.00342116)
(0.134882 -0.000837837 0.000374451)
(0.134464 0.00208945 -0.00143472)
(0.136209 0.00281481 -0.000786943)
(0.135789 -0.00193117 0.000151338)
(0.135224 -0.00108715 0.00315813)
(0.134424 -0.00139946 0.00110469)
(0.134071 0.00274034 -0.00187294)
(0.136468 0.00377073 -0.00069036)
(0.136492 -0.00148585 0.000453255)
(0.135276 -0.00183888 0.00307176)
(0.134529 -0.00117979 0.000303908)
(0.134112 0.00177418 -0.00175336)
(0.136039 0.00335251 -0.00146758)
(0.136257 -0.00157669 0.00059155)
(0.135195 -0.00161049 0.00316783)
(0.134614 -0.00134439 0.00127803)
(0.133945 0.00173445 -0.00201854)
(0.13629 0.00339906 -0.00106112)
(0.136295 -0.00205685 -0.000266605)
(0.135267 -0.00145528 0.00290883)
(0.134653 -0.00158231 0.000281887)
(0.134351 0.00186719 -0.00193649)
(0.136051 0.00237048 -0.000896137)
(0.135443 -0.00107402 -0.00025224)
(0.135088 -0.00112326 0.00210202)
(0.134772 -0.000858092 0.000372641)
(0.134569 0.00105953 -0.00100037)
(0.135198 0.00121476 -0.000255268)
(0.13524 -0.000809847 0.000390147)
(0.135126 -0.000948432 0.00218456)
(0.135023 -0.000979578 0.000707712)
(0.134512 0.000450533 -0.0016946)
(0.1352 0.0015354 -0.000718412)
(0.135427 -0.00122785 0.00024985)
(0.135045 -0.000885021 0.00186652)
(0.134406 -0.000787958 0.000524771)
(0.134275 0.00183964 -0.00149489)
(0.13574 0.00202966 -0.000432514)
(0.13534 -0.00124458 -0.000115026)
(0.134982 -0.000316184 0.00236977)
(0.134886 -0.000587071 0.000166587)
(0.13449 0.00134043 -0.000898425)
(0.135575 0.00185047 -0.000412062)
(0.13534 -0.00124559 0.000191178)
(0.135092 -0.000622332 0.00211468)
(0.134542 -0.00102168 0.00069772)
(0.134209 0.00188054 -0.00121616)
(0.135736 0.00253894 -0.000258323)
(0.135888 -0.000905009 0.000451484)
(0.13512 -0.00125212 0.00212836)
(0.134602 -0.000824487 0.000169869)
(0.134224 0.00109183 -0.00110358)
(0.135432 0.0023215 -0.000825026)
(0.135715 -0.00103128 0.000578524)
(0.13505 -0.00100769 0.00219892)
(0.134679 -0.00100067 0.000882489)
(0.134084 0.00114267 -0.00134759)
(0.135626 0.00238215 -0.000543863)
(0.135763 -0.00133908 -7.99289e-05)
(0.135129 -0.000916666 0.00197812)
(0.134711 -0.00115977 0.00013688)
(0.134412 0.00119106 -0.00129018)
(0.135472 0.00155399 -0.000499312)
(0.135167 -0.000662026 -0.000174553)
(0.135017 -0.000687066 0.00137032)
(0.134843 -0.000624365 0.000224488)
(0.13465 0.000586872 -0.000548267)
(0.134965 0.000718976 -0.000128978)
(0.135007 -0.000449781 0.000302369)
(0.13503 -0.000530234 0.00144184)
(0.135031 -0.000657907 0.000497155)
(0.134627 0.000156541 -0.00109104)
(0.134972 0.000969203 -0.000425753)
(0.135171 -0.000741796 0.000166813)
(0.134993 -0.000527249 0.00123186)
(0.134532 -0.000587926 0.000356318)
(0.134406 0.00123456 -0.000916601)
(0.135373 0.0013446 -0.000204517)
(0.135087 -0.000757727 -5.05883e-05)
(0.134948 -6.29302e-05 0.0016058)
(0.134916 -0.000419208 9.27571e-05)
(0.134599 0.000849791 -0.000486378)
(0.135258 0.00117018 -0.000247803)
(0.135077 -0.000758097 0.000152854)
(0.135028 -0.000306963 0.0013542)
(0.134642 -0.000733112 0.00045969)
(0.134403 0.0012627 -0.00074243)
(0.135377 0.0016354 -0.000111684)
(0.13551 -0.000507461 0.000340956)
(0.135037 -0.000834216 0.00142854)
(0.134689 -0.000551955 0.000131998)
(0.134392 0.000620018 -0.000615575)
(0.135146 0.00155334 -0.000471595)
(0.135382 -0.000657901 0.000478496)
(0.134975 -0.000580778 0.00148084)
(0.134754 -0.00072172 0.000640221)
(0.134276 0.000731822 -0.000829502)
(0.135301 0.00161399 -0.000300841)
(0.135426 -0.00083625 -2.96827e-05)
(0.135058 -0.000538838 0.00130826)
(0.134782 -0.000830821 8.83999e-05)
(0.134536 0.000717967 -0.000782136)
(0.135192 0.000960084 -0.000301318)
(0.134962 -0.000395282 -0.000126832)
(0.134938 -0.000394315 0.000857487)
(0.134857 -0.000440943 0.000125555)
(0.134686 0.000275633 -0.00025753)
(0.13481 0.000385923 -5.75194e-05)
(0.134839 -0.000221728 0.000224307)
(0.134932 -0.000259797 0.000913163)
(0.134993 -0.000423855 0.000342304)
(0.134686 -1.61938e-05 -0.000676744)
(0.134823 0.000577779 -0.000242332)
(0.134978 -0.000425701 9.64527e-05)
(0.134926 -0.000287271 0.000782901)
(0.134597 -0.000417433 0.000239694)
(0.134493 0.000802607 -0.000527678)
(0.13512 0.000852444 -7.59951e-05)
(0.134902 -0.000433162 -1.73981e-05)
(0.134898 7.66913e-05 0.00106106)
(0.134901 -0.00028398 5.3421e-05)
(0.134657 0.000506855 -0.000221593)
(0.135044 0.000688522 -0.000152599)
(0.134888 -0.000439314 0.000108979)
(0.134951 -0.000109267 0.00082003)
(0.134686 -0.000513599 0.000293738)
(0.134527 0.000830153 -0.000432217)
(0.135137 0.00100171 -4.25534e-05)
(0.135227 -0.000252722 0.000238776)
(0.13495 -0.000542085 0.000930167)
(0.134725 -0.000354202 0.000111958)
(0.134501 0.000311895 -0.000295917)
(0.134957 0.00100945 -0.000250318)
(0.135132 -0.000405404 0.000376374)
(0.134893 -0.000300115 0.000966442)
(0.134778 -0.000510585 0.000457431)
(0.134407 0.000449095 -0.000478385)
(0.135082 0.00106334 -0.000150813)
(0.13517 -0.000498275 -8.03407e-06)
(0.134974 -0.000288362 0.00083679)
(0.134801 -0.000584698 6.24243e-05)
(0.134609 0.000402372 -0.00044232)
(0.135001 0.000555976 -0.000171743)
(0.134802 -0.000226221 -9.17574e-05)
(0.134844 -0.000210586 0.000514679)
(0.134823 -0.000307217 6.21693e-05)
(0.134679 8.69e-05 -8.83052e-05)
(0.134693 0.000178249 -1.4881e-05)
(0.134709 -8.95313e-05 0.000162072)
(0.134828 -9.60429e-05 0.000557326)
(0.134918 -0.000259067 0.000230113)
(0.134691 -0.000100364 -0.00040303)
(0.134711 0.000321823 -0.000125082)
(0.134823 -0.000228343 4.78903e-05)
(0.134839 -0.000140643 0.000480835)
(0.134609 -0.000294729 0.000157855)
(0.134529 0.00050726 -0.000282068)
(0.134924 0.000523198 -2.9802e-06)
(0.134757 -0.000223813 1.49644e-06)
(0.134825 0.000145673 0.000684486)
(0.134846 -0.000191047 2.97728e-05)
(0.134665 0.000291898 -6.68099e-05)
(0.134878 0.000379162 -9.11134e-05)
(0.134742 -0.000236079 7.35646e-05)
(0.134857 4.88415e-06 0.000465787)
(0.13468 -0.000350475 0.000177175)
(0.134582 0.000537227 -0.000241817)
(0.134951 0.000577944 -4.63819e-06)
(0.135005 -9.93174e-05 0.000158676)
(0.134853 -0.000345141 0.000587448)
(0.134714 -0.000215933 9.43316e-05)
(0.134547 0.000120181 -0.000104713)
(0.134812 0.000638829 -0.000107917)
(0.134936 -0.000245023 0.000291259)
(0.1348 -0.000124058 0.000614069)
(0.134756 -0.000348864 0.000322637)
(0.134475 0.000265065 -0.000253442)
(0.134911 0.000680914 -6.05969e-05)
(0.134966 -0.000282079 3.11054e-06)
(0.134876 -0.000131339 0.000519086)
(0.134774 -0.000401819 4.4869e-05)
(0.134627 0.000202604 -0.000228483)
(0.13485 0.000293451 -9.03814e-05)
(0.134671 -0.000127881 -6.51957e-05)
(0.134742 -0.000102948 0.000296641)
(0.134752 -0.000209999 2.38519e-05)
(0.134636 -1.69103e-05 1.15613e-06)
(0.134597 5.78182e-05 8.5224e-06)
(0.134603 -2.0666e-05 0.0001163)
(0.13472 -8.27487e-06 0.00032748)
(0.134817 -0.000149375 0.000150223)
(0.134656 -0.000130271 -0.000230604)
(0.134617 0.000162858 -5.48299e-05)
(0.134694 -0.00011481 1.79501e-05)
(0.13474 -5.74138e-05 0.000286594)
(0.134581 -0.000203016 0.000101569)
(0.134523 0.000313054 -0.000134571)
(0.134764 0.000308522 3.30429e-05)
(0.134639 -9.84077e-05 1.33007e-05)
(0.134737 0.00016235 0.00043429)
(0.134762 -0.000123334 1.69914e-05)
(0.134631 0.000159282 1.37119e-05)
(0.134741 0.00018654 -5.31931e-05)
(0.134626 -0.000116956 4.7148e-05)
(0.134753 5.93929e-05 0.000242886)
(0.134638 -0.000232284 9.90388e-05)
(0.134582 0.000344751 -0.000131785)
(0.134798 0.000311036 1.27868e-05)
(0.134826 -1.52532e-05 0.000101777)
(0.134748 -0.00021658 0.000362637)
(0.134666 -0.000123286 8.03312e-05)
(0.134546 1.45119e-05 -1.55243e-07)
(0.134692 0.000396796 -2.32368e-05)
(0.134776 -0.000145687 0.000221579)
(0.1347 -2.47804e-05 0.000382776)
(0.1347 -0.00023071 0.000224573)
(0.134492 0.000148866 -0.000118536)
(0.134769 0.00042547 -6.48254e-06)
(0.134798 -0.000151546 1.04889e-05)
(0.134769 -4.1956e-05 0.000314522)
(0.134712 -0.000272284 3.36908e-05)
(0.134604 8.42505e-05 -0.000102517)
(0.134724 0.000134817 -3.89302e-05)
(0.134557 -7.27433e-05 -4.43636e-05)
(0.134633 -4.60322e-05 0.000165441)
(0.134658 -0.000141786 4.58709e-06)
(0.134568 -6.51585e-05 4.09555e-05)
(0.13451 -4.41314e-06 2.03816e-05)
(0.134509 9.39254e-06 8.27546e-05)
(0.13461 3.0663e-05 0.000187209)
(0.134699 -7.97551e-05 9.65945e-05)
(0.13459 -0.000126311 -0.000125276)
(0.13453 7.07382e-05 -1.53439e-05)
(0.13458 -5.37837e-05 1.97935e-06)
(0.134632 -1.59333e-05 0.000167593)
(0.134524 -0.000137876 6.50038e-05)
(0.134484 0.000189229 -5.20401e-05)
(0.134627 0.000175605 4.69166e-05)
(0.134535 -2.87104e-05 1.93421e-05)
(0.134636 0.000152208 0.000272746)
(0.13466 -7.82188e-05 1.07438e-05)
(0.134568 8.36851e-05 4.811e-05)
(0.13462 7.88016e-05 -3.01183e-05)
(0.134525 -5.04525e-05 2.85594e-05)
(0.134641 7.82148e-05 0.000111762)
(0.134569 -0.000148534 4.98961e-05)
(0.134541 0.000221859 -7.23828e-05)
(0.134664 0.000152979 1.8184e-05)
(0.134676 2.4987e-05 6.29167e-05)
(0.134639 -0.000135143 0.000219951)
(0.134592 -6.13801e-05 6.77356e-05)
(0.134509 -3.56793e-05 4.86034e-05)
(0.134585 0.00024396 2.30343e-05)
(0.13464 -8.85911e-05 0.000167347)
(0.134596 2.39125e-05 0.000237406)
(0.134619 -0.000145751 0.000155973)
(0.13447 8.03082e-05 -4.19132e-05)
(0.134643 0.00026034 2.12679e-05)
(0.134655 -7.74407e-05 1.43943e-05)
(0.134656 2.82993e-06 0.000188482)
(0.134626 -0.000181607 2.67356e-05)
(0.134549 2.01654e-05 -3.3589e-05)
(0.13461 4.56906e-05 -9.41239e-06)
(0.134451 -4.39843e-05 -2.8548e-05)
(0.134521 -1.95069e-05 8.98464e-05)
(0.134547 -9.50952e-05 -3.21323e-06)
(0.134481 -7.93915e-05 5.18991e-05)
(0.134425 -3.14565e-05 2.43158e-05)
(0.134419 1.68132e-05 5.87726e-05)
(0.134497 4.07434e-05 0.000105411)
(0.134572 -3.88145e-05 6.17378e-05)
(0.134503 -0.000107108 -6.40243e-05)
(0.134441 2.09844e-05 4.52134e-06)
(0.134472 -2.47086e-05 -4.61539e-06)
(0.134518 8.48597e-07 9.74573e-05)
(0.134445 -9.2085e-05 4.20322e-05)
(0.13442 0.000112967 -9.57897e-06)
(0.134503 9.62091e-05 4.74553e-05)
(0.134437 5.90465e-06 2.18031e-05)
(0.134526 0.000127716 0.000170863)
(0.134544 -4.74858e-05 8.67206e-06)
(0.134483 4.32788e-05 5.51507e-05)
(0.134506 2.30353e-05 -1.70535e-05)
(0.13443 -1.6808e-05 1.58537e-05)
(0.134525 7.64374e-05 4.00837e-05)
(0.134481 -9.08205e-05 2.05895e-05)
(0.134471 0.000144775 -4.23022e-05)
(0.13454 6.65957e-05 1.66183e-05)
(0.134542 3.94392e-05 3.77245e-05)
(0.134525 -8.43927e-05 0.000132672)
(0.134499 -2.39018e-05 5.65456e-05)
(0.134444 -5.11382e-05 6.4165e-05)
(0.134482 0.000150186 4.35948e-05)
(0.134517 -5.5743e-05 0.000125123)
(0.134489 4.14351e-05 0.000148746)
(0.134521 -8.74551e-05 0.000109043)
(0.134418 4.13414e-05 -2.35191e-06)
(0.134524 0.000156433 3.32256e-05)
(0.134525 -3.75697e-05 1.66575e-05)
(0.134539 2.08451e-05 0.000113186)
(0.134523 -0.000120295 2.20522e-05)
(0.134471 -1.05671e-05 1.92818e-07)
(0.134501 7.20835e-07 6.62604e-06)
(0.134344 -2.94054e-05 -1.65058e-05)
(0.134404 -9.35886e-06 4.87585e-05)
(0.134426 -6.4267e-05 -4.12426e-06)
(0.13438 -7.3553e-05 4.88296e-05)
(0.134334 -3.8871e-05 2.44302e-05)
(0.134325 1.34043e-05 4.24866e-05)
(0.134382 3.59159e-05 5.99394e-05)
(0.13444 -1.61681e-05 3.97537e-05)
(0.134399 -8.28614e-05 -2.95346e-05)
(0.134347 -3.26393e-06 1.25331e-05)
(0.134363 -1.23273e-05 -5.69036e-06)
(0.1344 4.654e-06 5.74512e-05)