/*--------------------------------*- C++ -*----------------------------------*\
  =========                 |
  \\      /  F ield         | OpenFOAM: The Open Source CFD Toolbox
   \\    /   O peration     | Website:  https://openfoam.org
    \\  /    A nd           | Version:  10
     \\/     M anipulation  |
\*---------------------------------------------------------------------------*/
FoamFile
{
    format      ascii;
    class       volSymmTensorField;
    location    "2";
    object      UPrime2Mean;
}
// * * * * * * * * * * * * * * * * * * * * * * * * * * * * * * * * * * * * * //

dimensions      [0 2 -2 0 0 0 0];

internalField   nonuniform List<symmTensor> 
25600
(
(3.93284e-05 1.2828e-07 1.76823e-05 1.08172e-09 7.89044e-08 9.25275e-06)
(2.49237e-05 -3.07355e-08 9.00562e-06 2.41454e-10 4.9972e-09 6.32868e-06)
(2.31392e-05 -1.01623e-07 -6.40426e-06 1.39731e-09 4.01479e-08 2.51728e-06)
(2.07119e-05 -2.03542e-09 -1.09682e-05 1.23151e-09 5.91777e-08 9.68998e-06)
(3.54787e-05 1.56216e-07 -2.30285e-06 1.3087e-09 -2.28937e-08 1.02945e-06)
(3.38155e-05 7.59156e-08 1.42526e-05 9.07892e-10 5.11966e-08 7.06481e-06)
(2.5535e-05 -7.42856e-09 8.97115e-06 1.61003e-10 4.41302e-09 5.88218e-06)
(2.6036e-05 -1.08612e-07 -6.75724e-06 9.07679e-10 3.71401e-08 2.47162e-06)
(2.19314e-05 -4.50996e-08 -1.2982e-05 1.01585e-09 9.12891e-08 1.35916e-05)
(3.94686e-05 1.77851e-07 -1.16811e-06 1.07419e-09 -1.68269e-08 1.5006e-06)
(3.97059e-05 1.56196e-07 1.89837e-05 1.24299e-09 8.92209e-08 1.03783e-05)
(2.71492e-05 -8.47587e-08 1.00529e-05 5.116e-10 -1.65798e-08 5.70584e-06)
(2.53792e-05 -1.22548e-07 -5.4568e-06 9.94185e-10 3.03248e-08 1.489e-06)
(2.18096e-05 -6.04183e-08 -1.10921e-05 1.24603e-09 8.09255e-08 9.51826e-06)
(3.86417e-05 1.80872e-07 -2.622e-06 1.09762e-09 -2.01429e-08 1.3785e-06)
(3.61338e-05 1.03901e-07 1.60289e-05 1.02083e-09 6.0695e-08 8.27211e-06)
(2.64382e-05 -4.31697e-08 1.03816e-05 3.30096e-10 -1.56287e-08 6.33037e-06)
(2.60401e-05 -1.18807e-07 -5.88255e-06 1.0813e-09 3.03266e-08 1.82056e-06)
(2.23101e-05 -5.25063e-08 -1.24551e-05 1.38545e-09 8.72727e-08 1.06193e-05)
(3.65347e-05 1.52769e-07 -2.89526e-06 1.08452e-09 -2.68832e-08 1.39394e-06)
(3.56424e-05 1.44627e-07 1.60268e-05 9.10639e-10 7.87338e-08 8.44345e-06)
(2.61119e-05 -6.46403e-08 8.71727e-06 5.38608e-10 -1.01486e-08 5.13769e-06)
(2.60237e-05 -1.24579e-07 -6.18172e-06 8.69175e-10 3.43232e-08 1.80562e-06)
(1.81449e-05 -6.13904e-08 -7.88368e-06 1.11237e-09 7.2323e-08 6.20764e-06)
(3.87046e-05 1.79053e-07 -4.46948e-06 1.1327e-09 -3.42811e-08 1.49728e-06)
(3.75739e-05 1.06538e-07 1.55813e-05 1.07877e-09 6.31291e-08 7.53668e-06)
(2.77598e-05 -5.07646e-08 1.02659e-05 2.51355e-10 -7.13123e-09 6.26452e-06)
(2.14037e-05 -1.34215e-07 -6.44876e-06 1.44391e-09 5.14813e-08 2.92156e-06)
(2.22614e-05 -3.3774e-08 -1.15801e-05 9.60979e-10 7.54548e-08 1.17645e-05)
(3.97368e-05 1.88647e-07 -3.20812e-06 1.22959e-09 -2.81242e-08 1.66316e-06)
(3.71323e-05 9.23476e-08 1.69129e-05 8.98882e-10 5.77203e-08 8.91229e-06)
(2.70783e-05 -1.7299e-08 1.06287e-05 2.70093e-10 -5.1412e-09 6.48283e-06)
(2.11674e-05 -1.08234e-07 -4.91618e-06 9.08734e-10 3.15498e-08 1.72175e-06)
(1.96657e-05 -4.2408e-08 -1.02261e-05 9.89475e-10 7.73478e-08 9.45183e-06)
(3.8434e-05 2.00401e-07 -2.71045e-06 1.26839e-09 -2.46691e-08 1.68197e-06)
(4.18539e-05 1.48677e-07 1.90548e-05 1.16976e-09 8.54458e-08 9.95924e-06)
(2.4679e-05 -7.0411e-08 9.34067e-06 4.34156e-10 -8.61466e-09 5.8596e-06)
(2.42968e-05 -1.30835e-07 -7.1597e-06 1.18976e-09 4.72498e-08 2.87282e-06)
(2.41736e-05 -5.22022e-08 -1.26802e-05 8.51583e-10 7.89408e-08 1.13485e-05)
(3.41199e-05 1.47672e-07 -9.99655e-07 9.50793e-10 -1.6207e-08 1.41167e-06)
(0.000391968 2.10873e-06 0.000166857 2.24973e-08 1.12074e-06 7.58496e-05)
(0.000243637 2.25287e-06 9.6257e-05 2.22472e-08 8.53379e-07 6.07105e-05)
(0.000222817 -9.8007e-07 -5.09045e-05 7.33339e-09 2.89533e-07 1.45479e-05)
(0.00019162 -1.0704e-06 -0.000110454 3.3305e-08 1.41421e-06 9.01242e-05)
(0.000336065 1.11433e-06 -3.44445e-05 6.54159e-09 -8.78345e-08 1.19918e-05)
(0.00033744 1.90833e-06 0.000133445 2.74138e-08 9.79777e-07 5.63427e-05)
(0.00025156 8.44242e-07 9.89608e-05 4.43748e-09 4.06172e-07 5.80411e-05)
(0.000253833 -6.63604e-07 -5.25649e-05 6.06648e-09 2.03675e-07 1.42959e-05)
(0.000202512 -1.57829e-06 -0.000129689 4.10814e-08 2.07487e-06 0.000124808)
(0.000370705 5.85016e-07 -2.76371e-05 4.67076e-09 -2.18644e-08 1.54163e-05)
(0.000399247 2.73414e-06 0.000180085 4.04249e-08 1.5141e-06 8.57845e-05)
(0.000267387 7.19311e-07 0.000111563 8.05127e-09 5.60152e-07 5.9368e-05)
(0.000246207 -4.27574e-07 -4.25e-05 5.41601e-09 1.12044e-07 8.67644e-06)
(0.000201182 -9.67297e-07 -0.000110425 5.21e-08 1.62475e-06 8.7589e-05)
(0.000363848 1.08755e-06 -3.62582e-05 8.5042e-09 6.28963e-08 1.4662e-05)
(0.000362893 1.66932e-06 0.000151032 3.88336e-08 9.88531e-07 6.6495e-05)
(0.000258766 -4.02533e-07 0.000114033 3.41285e-09 -7.81317e-08 6.47172e-05)
(0.000252471 -8.78488e-07 -4.49112e-05 7.15598e-09 1.559e-07 9.90978e-06)
(0.000205315 -1.29339e-06 -0.000124202 4.85778e-08 1.7695e-06 0.000100149)
(0.000343394 1.39917e-06 -3.87495e-05 8.57749e-09 -1.07389e-07 1.54041e-05)
(0.000356408 2.07038e-06 0.000149668 3.36924e-08 1.16772e-06 6.73543e-05)
(0.000258221 6.56094e-08 9.6382e-05 4.43376e-09 2.54107e-07 5.10568e-05)
(0.000252677 7.92606e-08 -4.97262e-05 6.02932e-09 3.60453e-08 1.12567e-05)
(0.00016526 -1.55252e-06 -7.95118e-05 3.54123e-08 1.3742e-06 5.93047e-05)
(0.000364947 -3.31334e-07 -5.33e-05 3.84208e-09 -1.51859e-08 1.73942e-05)
(0.000376166 2.50398e-06 0.000145932 2.40047e-08 1.13237e-06 6.04167e-05)
(0.000271347 5.74499e-07 0.000111964 3.64727e-09 2.93583e-07 6.26342e-05)
(0.000207708 -1.06911e-06 -5.15967e-05 1.58522e-08 3.67592e-07 1.62125e-05)
(0.000203116 -1.06274e-06 -0.000115037 4.42126e-08 1.84362e-06 0.000109533)
(0.000375855 1.05207e-06 -4.15241e-05 1.5398e-08 -1.54289e-07 1.77873e-05)
(0.000371457 1.9339e-06 0.000156921 2.26807e-08 1.00052e-06 7.00218e-05)
(0.000265861 1.16486e-06 0.000114426 7.50347e-09 6.49922e-07 6.48506e-05)
(0.000203936 -3.86136e-07 -3.8654e-05 3.15089e-09 1.29277e-07 9.7883e-06)
(0.000180695 -1.52007e-06 -0.000102179 4.81691e-08 1.84231e-06 8.68295e-05)
(0.000362798 8.29125e-07 -3.97509e-05 6.24011e-09 -2.95566e-08 1.85786e-05)
(0.000418631 3.21053e-06 0.000180877 4.05458e-08 1.63436e-06 8.28139e-05)
(0.000244964 1.12718e-06 0.000103107 9.55468e-09 6.31227e-07 5.90412e-05)
(0.000236797 -1.07987e-06 -5.72193e-05 1.61758e-08 3.47054e-07 1.62261e-05)
(0.000220901 -1.31607e-06 -0.000125639 3.95948e-08 1.74503e-06 0.000105948)
(0.000320662 6.09484e-07 -1.83558e-05 5.72646e-09 1.11357e-08 1.3153e-05)
(0.00110872 4.71541e-06 0.000476232 5.05384e-08 2.37202e-06 0.000209584)
(0.000695501 9.36332e-06 0.00036666 1.2832e-07 4.90081e-06 0.000223127)
(0.000630299 -1.86556e-06 -9.73513e-05 1.37626e-08 5.34141e-07 2.49178e-05)
(0.000447758 -1.35001e-06 -0.000316902 1.18674e-07 3.44283e-06 0.000281588)
(0.000872567 1.06257e-06 -0.000158583 1.14145e-08 1.77745e-07 5.41916e-05)
(0.000955645 6.14652e-06 0.00037831 9.01403e-08 2.73907e-06 0.000152831)
(0.00067614 2.04205e-06 0.000348856 1.26788e-08 1.48122e-06 0.000210529)
(0.00070744 -1.2053e-06 -9.3936e-05 1.27471e-08 4.03956e-07 2.40607e-05)
(0.000498028 -4.34465e-06 -0.000405159 1.4435e-07 6.32245e-06 0.000409445)
(0.000977056 -7.49401e-07 -0.000174787 1.50799e-08 5.66213e-07 6.8788e-05)
(0.00118222 7.59347e-06 0.000537225 1.33117e-07 3.82092e-06 0.000247739)
(0.000725145 4.94213e-06 0.000384643 6.30239e-08 3.29169e-06 0.000221225)
(0.000686063 4.73198e-07 -8.00613e-05 1.4343e-08 9.85625e-08 1.47408e-05)
(0.000482815 -4.87134e-06 -0.000331053 1.87995e-07 6.04245e-06 0.000283421)
(0.000966182 3.6756e-07 -0.000178945 3.84902e-08 9.30958e-07 6.28022e-05)
(0.00105975 4.57143e-06 0.000441819 1.36405e-07 2.21295e-06 0.000186946)
(0.000715364 -3.02476e-06 0.000397985 2.65936e-08 -1.25138e-06 0.000240929)
(0.00071231 -1.76707e-06 -7.81292e-05 1.21053e-08 1.79063e-07 1.55162e-05)
(0.000514233 -3.44616e-06 -0.000384789 2.0248e-07 5.38872e-06 0.000333163)
(0.000912363 4.42381e-06 -0.000187022 3.8662e-08 -2.35698e-07 6.80478e-05)
(0.00106873 6.27293e-06 0.000449735 9.09751e-08 2.99057e-06 0.000192443)
(0.000676195 -2.95829e-07 0.000323112 4.21947e-08 8.82394e-07 0.00018117)
(0.000731462 2.34486e-06 -0.000105819 2.23535e-08 -1.90596e-07 2.08784e-05)
(0.000385558 -4.98489e-06 -0.000246187 1.17423e-07 4.54775e-06 0.000200439)
(0.000975792 -4.41937e-06 -0.000227018 2.82631e-08 1.13066e-06 7.81024e-05)
(0.00107301 6.94102e-06 0.000417385 6.15753e-08 2.92625e-06 0.000165906)
(0.000796262 1.3579e-06 0.00042731 1.12095e-08 1.01109e-06 0.000248259)
(0.000521046 -2.09663e-06 -8.60671e-05 5.30427e-08 6.22268e-07 2.48008e-05)
(0.000508141 -3.34193e-06 -0.000388435 1.60083e-07 5.79198e-06 0.000379313)
(0.000992146 4.21813e-07 -0.000191976 6.18026e-08 2.20279e-07 7.39749e-05)
(0.00108694 3.58687e-06 0.00044694 6.05139e-08 1.75996e-06 0.000187578)
(0.000747781 7.83774e-06 0.00040729 8.7338e-08 4.2495e-06 0.000240503)
(0.000529287 9.74395e-07 -6.25874e-05 9.21655e-09 7.58035e-08 1.58768e-05)
(0.0004262 -6.42525e-06 -0.000308706 1.95289e-07 6.89529e-06 0.000279919)
(0.000910705 1.77246e-06 -0.000185063 2.57513e-08 5.12714e-07 7.96389e-05)
(0.00124429 9.79886e-06 0.000548699 1.41135e-07 4.60649e-06 0.000245568)
(0.000652445 5.03162e-06 0.000343816 6.28922e-08 3.20495e-06 0.000208354)
(0.000628332 -3.58857e-06 -0.000107589 5.43753e-08 9.3217e-07 2.68303e-05)
(0.000569432 -5.24523e-06 -0.00041928 1.53377e-07 6.25823e-06 0.000369296)
(0.000826751 -1.66734e-07 -0.000118527 2.19518e-08 5.78349e-07 5.1427e-05)
(0.00187042 3.49003e-06 0.000875596 4.06625e-08 1.68644e-06 0.000420068)
(0.00102826 2.16183e-05 0.000722238 4.82083e-07 1.46346e-05 0.000527551)
(0.000904531 3.16831e-06 -8.11588e-05 3.0109e-08 3.32498e-07 4.08015e-05)
(0.00045854 -1.86604e-06 -0.000487289 1.91986e-07 5.21264e-06 0.000580389)
(0.00120567 -9.50081e-06 -0.000345075 1.24527e-07 4.10694e-06 0.000163047)
(0.00151664 1.44324e-05 0.000636852 1.52661e-07 6.07705e-06 0.000274514)
(0.00103032 2.86346e-06 0.000739928 3.98346e-08 2.61879e-06 0.000547649)
(0.00102934 1.45446e-06 -5.38034e-05 3.25784e-08 8.0208e-07 3.81202e-05)
(0.0005573 -9.25055e-06 -0.000671967 2.51861e-07 1.33375e-05 0.000891073)
(0.00133432 -1.34159e-05 -0.000390759 2.07686e-07 5.52079e-06 0.000215355)
(0.00196769 1.30643e-05 0.000941846 1.55756e-07 6.05275e-06 0.000466004)
(0.00100663 1.86153e-05 0.000680923 3.66197e-07 1.30276e-05 0.000472173)
(0.00094532 6.10785e-06 -7.36654e-05 7.03399e-08 -1.62255e-07 2.78369e-05)
(0.000477864 -6.61434e-06 -0.000491645 2.90912e-07 1.02622e-05 0.00057622)
(0.00136517 -1.18217e-05 -0.000393207 2.67889e-07 6.77629e-06 0.000187227)
(0.00176033 8.17206e-06 0.000769787 1.92661e-07 2.7149e-06 0.000350163)
(0.00100365 -3.84821e-07 0.000728436 1.717e-08 -7.10186e-08 0.000539423)
(0.000983323 -3.79112e-07 -5.29587e-05 4.75083e-09 1.6541e-07 2.86677e-05)
(0.000541238 -1.12857e-05 -0.000583918 4.25191e-07 1.48526e-05 0.000673327)
(0.00119984 -3.28045e-06 -0.000350882 8.32859e-08 3.29942e-06 0.000184456)
(0.00165503 7.96131e-06 0.000724495 1.05616e-07 3.51488e-06 0.000324495)
(0.000990929 7.36918e-06 0.00065258 1.17894e-07 5.77757e-06 0.000447587)
(0.000973123 8.29817e-06 -9.47968e-05 1.00642e-07 -5.70605e-07 3.12282e-05)
(0.000429429 -4.00256e-06 -0.000442404 1.20043e-07 5.43966e-06 0.000500974)
(0.00123874 -1.86319e-05 -0.000398337 3.19058e-07 6.71983e-06 0.000195629)
(0.00181882 3.32923e-06 0.00077727 5.35359e-08 1.46852e-06 0.000344426)
(0.00107723 1.99832e-06 0.000733681 2.58535e-08 1.81921e-06 0.000515133)
(0.000870796 -1.18409e-06 -7.97774e-05 8.24793e-08 9.53086e-07 4.05178e-05)
(0.000604937 -3.71361e-06 -0.000672447 2.61229e-07 8.78707e-06 0.000852796)
(0.00135377 -4.71294e-08 -0.000384962 1.38292e-07 2.57414e-06 0.000203807)
(0.00167014 -1.06087e-06 0.000714826 1.05146e-07 -8.14287e-07 0.000315589)
(0.00108826 1.62296e-05 0.000764441 2.58087e-07 1.12592e-05 0.00054535)
(0.000812764 7.68768e-06 -3.73698e-05 8.78626e-08 1.5262e-07 2.78342e-05)
(0.000457151 -1.23912e-05 -0.00051331 4.43684e-07 1.56839e-05 0.000628354)
(0.00130906 -4.43799e-06 -0.00044101 1.41849e-07 4.94433e-06 0.000245188)
(0.00206339 1.28902e-05 0.00094206 1.95755e-07 5.56031e-06 0.000446678)
(0.000973642 1.23286e-05 0.000697512 2.19849e-07 9.77101e-06 0.000516342)
(0.000961887 -3.40336e-06 -0.00010929 9.05447e-08 1.43329e-06 4.35074e-05)
(0.000606935 -5.86776e-06 -0.000626163 2.46812e-07 9.49846e-06 0.000722823)
(0.00110717 -7.15313e-06 -0.000291217 1.48427e-07 4.31337e-06 0.000157165)
(0.00239366 -1.49577e-05 0.00116943 1.65087e-07 -6.14385e-06 0.000630515)
(0.00128645 3.32835e-05 0.00114189 9.65568e-07 2.94288e-05 0.00101889)
(0.00100854 1.83983e-05 3.53049e-05 3.65182e-07 2.00983e-06 7.65354e-05)
(0.000323224 -6.29421e-06 -0.000556886 2.69279e-07 1.20174e-05 0.0010156)
(0.00119562 -3.39398e-05 -0.000491399 1.16274e-06 1.93138e-05 0.000356484)
(0.00193665 1.10907e-05 0.000850689 1.31091e-07 6.44632e-06 0.000414694)
(0.00118916 1.74008e-05 0.00110542 2.93215e-07 1.62477e-05 0.00103136)
(0.00122669 1.84557e-05 5.84649e-05 2.88802e-07 1.53032e-06 9.05115e-05)
(0.000322611 -6.48093e-06 -0.000624112 4.09517e-07 1.29897e-05 0.00127652)
(0.00132957 -3.44924e-05 -0.000517385 1.181e-06 2.08955e-05 0.00045554)
(0.00228637 3.49868e-06 0.00106163 1.18939e-07 3.56377e-06 0.000553067)
(0.000992994 3.49403e-05 0.000824872 1.28404e-06 2.92369e-05 0.000689095)
(0.000974496 2.00953e-05 -1.36723e-05 4.32075e-07 3.79667e-07 6.93392e-05)
(0.000242484 -4.97633e-06 -0.000437153 2.94759e-07 1.09047e-05 0.000872893)
(0.00151356 -4.095e-05 -0.000586863 1.83972e-06 2.73449e-05 0.000408314)
(0.00214382 8.0853e-06 0.000917698 1.22829e-07 3.44469e-06 0.000444014)
(0.00132815 1.42295e-06 0.00123047 2.47232e-08 1.66358e-06 0.00114689)
(0.00108179 1.28784e-05 3.68801e-05 1.54829e-07 3.36558e-07 5.86218e-05)
(0.000293315 -1.32073e-05 -0.000516641 7.79251e-07 2.45418e-05 0.000952372)
(0.00121922 -1.79392e-05 -0.000482794 6.69354e-07 1.58717e-05 0.000385155)
(0.00216965 -3.20977e-07 0.000988088 1.07953e-07 1.1625e-06 0.000493379)
(0.00111592 2.78738e-05 0.0009292 7.0723e-07 2.31918e-05 0.00077915)
(0.00109128 2.64884e-05 -2.71212e-05 6.57648e-07 -1.0836e-06 7.06751e-05)
(0.00021141 -3.0141e-06 -0.000386216 4.21299e-07 4.09628e-06 0.00076482)
(0.00120304 -3.62588e-05 -0.000476906 1.25964e-06 1.94455e-05 0.000353792)
(0.00211004 -5.49963e-06 0.000889435 2.26811e-07 7.33781e-07 0.000428227)
(0.00128363 7.09996e-06 0.00111954 7.22429e-08 6.00437e-06 0.000982086)
(0.000964241 9.56553e-06 2.64688e-05 2.62583e-07 3.63551e-06 8.82496e-05)
(0.000383773 -6.85964e-06 -0.000654417 3.54528e-07 1.45095e-05 0.00125415)
(0.00136915 -1.29903e-05 -0.000562971 6.57453e-07 1.50575e-05 0.000423799)
(0.00242389 -3.66003e-06 0.00112764 8.13663e-08 -7.50178e-08 0.000597142)
(0.00121286 3.25941e-05 0.00103626 1.16005e-06 2.83838e-05 0.000887992)
(0.00100038 2.51782e-05 2.64168e-05 6.67155e-07 1.9117e-06 7.44689e-05)
(0.000191011 -9.24925e-06 -0.000372626 8.16422e-07 1.89238e-05 0.000776502)
(0.00132278 -3.08695e-05 -0.000577773 1.25353e-06 2.42032e-05 0.000473428)
(0.00249267 2.02679e-05 0.00111317 3.56658e-07 1.2068e-05 0.000564793)
(0.000987349 1.97497e-05 0.000904599 5.82365e-07 1.84107e-05 0.00083293)
(0.001057 8.00017e-06 -2.93409e-05 2.5309e-07 3.63945e-06 9.60054e-05)
(0.000437252 -9.21061e-06 -0.000686451 3.83978e-07 1.58028e-05 0.00116376)
(0.00105801 -2.30728e-05 -0.000396569 9.47376e-07 1.72885e-05 0.000326484)
(0.00203174 -3.00134e-05 0.000975278 1.56346e-06 -3.17434e-06 0.000586181)
(0.00118994 3.96381e-05 0.00135637 1.89311e-06 4.94844e-05 0.00158217)
(0.00104202 5.14713e-05 0.000149365 2.64805e-06 6.47597e-06 0.000154891)
(0.000100484 -8.40957e-06 -0.000307671 2.93734e-06 2.82755e-05 0.00113695)
(0.000667758 -5.05904e-05 -0.00031923 5.06967e-06 4.46731e-05 0.000495469)
(0.00215243 -1.52711e-05 0.0011154 7.40805e-07 1.35186e-06 0.0007159)
(0.00107668 2.02125e-05 0.00116963 7.45154e-07 2.48185e-05 0.00129979)
(0.00128592 4.132e-05 0.000201504 1.40773e-06 7.65578e-06 0.00017689)
(0.000175125 3.39514e-06 -0.000517934 1.50572e-06 -6.50027e-06 0.00180279)
(0.000968864 -4.77497e-05 -0.000448614 4.15707e-06 5.02567e-05 0.000650431)
(0.00237367 -2.43532e-05 0.0012026 1.53997e-06 1.70283e-06 0.000767614)
(0.000874153 5.1091e-05 0.000866507 3.72536e-06 5.39846e-05 0.000875709)
(0.000833889 4.34453e-05 0.000113041 2.3321e-06 4.11283e-06 0.000129957)
(7.31107e-05 -2.62214e-06 -0.000252888 2.09506e-06 1.51904e-05 0.00128406)
(0.00105438 -7.56049e-05 -0.00046502 9.40751e-06 7.12288e-05 0.000576152)
(0.00233808 1.09361e-05 0.00112438 1.21614e-06 1.68967e-05 0.000669379)
(0.00088918 3.77536e-06 0.000992622 6.37346e-08 5.21691e-06 0.00113439)
(0.000887414 3.53759e-05 9.28906e-05 1.61674e-06 -1.26301e-06 0.000153122)
(4.22195e-05 -2.07622e-06 -0.00016386 2.45618e-06 2.16283e-05 0.00102427)
(0.000770222 -4.96348e-05 -0.00034164 5.2314e-06 4.93372e-05 0.0005271)
(0.00256846 -1.00137e-05 0.00135125 1.39788e-06 8.50925e-06 0.000854905)
(0.00122325 4.95095e-05 0.00115793 2.35682e-06 4.85863e-05 0.00111239)
(0.000920448 4.83282e-05 0.000151191 2.89027e-06 2.41239e-06 0.000130771)
(7.54606e-05 1.75192e-06 -0.000264709 2.92799e-06 -1.37369e-05 0.00133823)
(0.000801273 -6.35491e-05 -0.000339383 5.93492e-06 4.30623e-05 0.000450778)
(0.00202258 -4.12318e-05 0.000875505 2.45978e-06 -3.61728e-06 0.000508135)
(0.00125217 1.64649e-05 0.00137816 3.92374e-07 1.94101e-05 0.00154622)
(0.000970214 4.42098e-05 0.000170397 2.09584e-06 1.01295e-05 0.000178248)
(0.000125845 -9.4341e-06 -0.000385881 2.72715e-06 3.07889e-05 0.00159025)
(0.0012471 -6.1297e-05 -0.000537075 5.37912e-06 5.31976e-05 0.000546606)
(0.0020882 -1.37721e-05 0.000895257 1.69104e-06 7.18697e-06 0.00049699)
(0.00125994 3.52088e-05 0.00133021 1.47825e-06 4.15762e-05 0.00144964)
(0.00102818 5.6855e-05 0.000155851 3.2689e-06 6.89532e-06 0.000126106)
(6.95974e-05 -3.15372e-06 -0.000234389 2.82108e-06 2.20756e-05 0.00106665)
(0.000996933 -7.47881e-05 -0.000498824 8.18439e-06 6.7028e-05 0.000596572)
(0.00254441 1.50755e-05 0.00115285 2.61675e-06 2.63271e-05 0.000678373)
(0.000913361 5.29264e-05 0.00106545 3.35571e-06 6.45729e-05 0.00127422)
(0.000918275 3.76148e-05 0.00013938 1.81978e-06 1.17132e-05 0.000182502)
(0.000200553 -1.50405e-05 -0.00053221 3.13705e-06 3.77214e-05 0.00167222)
(0.000831599 -5.59499e-05 -0.000326943 5.95324e-06 4.75938e-05 0.000433904)
(0.00175076 -4.46092e-05 0.000979222 7.29442e-06 2.02996e-06 0.000668681)
(0.000669136 3.35565e-05 0.000843619 4.96618e-06 5.56939e-05 0.00112017)
(0.000643262 6.68742e-05 0.000199129 8.86484e-06 7.82931e-06 0.000203)
(4.54741e-05 -2.9187e-06 1.82324e-05 8.13575e-06 3.0518e-05 0.00156402)
(0.000563158 -7.09093e-05 -0.000271282 1.55961e-05 8.80734e-05 0.000590578)
(0.00171952 -3.27531e-05 0.000938715 4.18695e-06 4.25271e-06 0.000652285)
(0.000770206 9.28969e-06 0.00102004 1.01524e-06 1.95915e-05 0.00142273)
(0.000897561 5.96285e-05 0.000243955 4.66257e-06 1.27576e-05 0.000219005)
(3.91378e-05 5.96425e-06 -3.68182e-05 6.47314e-06 -1.62995e-05 0.00164771)
(0.000546118 -5.81809e-05 -0.00021376 1.29385e-05 7.61603e-05 0.000529047)
(0.00143858 -3.8645e-05 0.000815937 6.76821e-06 6.4797e-06 0.000605544)
(0.000542661 5.00121e-05 0.000714994 6.83651e-06 7.70759e-05 0.001002)
(0.000637666 6.05955e-05 0.000140459 6.78155e-06 9.55165e-06 0.000166864)
(3.33984e-05 2.47034e-07 -7.88564e-07 7.45381e-06 5.89469e-06 0.00130162)
(0.000427848 -7.42065e-05 -0.000125098 2.55081e-05 9.53857e-05 0.000477484)
(0.00183679 -1.04666e-05 0.00107701 5.93734e-06 2.38737e-05 0.000788363)
(0.000533183 1.95781e-05 0.000714877 2.03075e-06 3.55834e-05 0.0010263)
(0.000522967 4.65964e-05 0.00016721 6.1874e-06 -3.89197e-07 0.000198388)
(4.89347e-05 -2.75387e-06 0.000101164 8.32963e-06 1.79803e-05 0.00150944)
(0.000580421 -9.33971e-05 -0.000250905 2.39942e-05 0.000101809 0.000551834)
(0.00189524 -2.50433e-05 0.00102315 7.10143e-06 1.57097e-05 0.000681403)
(0.00104237 5.48897e-05 0.001129 4.32666e-06 6.69265e-05 0.00128196)
(0.000659211 5.79733e-05 0.000231206 8.01647e-06 6.54156e-06 0.000173313)
(2.95137e-05 -2.41673e-06 5.89156e-05 1.05477e-05 -5.71213e-05 0.00140253)
(0.000547826 -8.83698e-05 -0.000246026 1.83335e-05 7.55953e-05 0.000462464)
(0.00157452 -8.70657e-05 0.000792254 1.02663e-05 -1.80601e-05 0.000522486)
(0.000851958 3.0417e-05 0.0011249 3.25092e-06 4.92115e-05 0.00153014)
(0.00064916 6.99467e-05 0.000229559 8.93211e-06 1.65831e-05 0.000236927)
(5.7405e-05 -9.26913e-06 -0.000121373 1.02701e-05 4.42471e-05 0.00178237)
(0.000626071 -8.59354e-05 -0.000237056 1.97555e-05 8.2607e-05 0.000431512)
(0.00151337 -4.40289e-05 0.000814923 6.93593e-06 8.79634e-07 0.000549217)
(0.000607492 2.05237e-05 0.000775447 2.43874e-06 3.50331e-05 0.00103703)
(0.000652781 6.74875e-05 0.000196307 8.71709e-06 8.60618e-06 0.000183074)
(3.83586e-05 1.93142e-07 -2.93124e-05 9.12111e-06 3.31762e-05 0.00149452)
(0.000516243 -7.69932e-05 -0.000215675 2.01654e-05 8.69923e-05 0.000461761)
(0.00136915 -2.92296e-05 0.000652966 8.39597e-06 1.48984e-05 0.000420035)
(0.000757011 7.85626e-05 0.00105272 1.12785e-05 0.000123979 0.00153814)
(0.000651725 6.47226e-05 0.000224837 7.16911e-06 1.95272e-05 0.000229867)
(4.12829e-05 -3.65285e-06 -0.000117142 7.90722e-06 2.36601e-05 0.00169064)
(0.000514052 -8.5497e-05 -0.000222835 2.27852e-05 9.12583e-05 0.000461673)
(0.000789092 -5.59888e-05 0.000576906 1.48323e-05 -1.40725e-05 0.000488448)
(0.000300073 2.79843e-05 0.000444118 9.3697e-06 5.67554e-05 0.000694628)
(0.000275028 5.07182e-05 0.000130555 1.69315e-05 3.77877e-06 0.000148271)
(8.25769e-05 -1.21358e-05 0.000221914 1.64897e-05 1.52311e-05 0.00139714)
(0.000249165 -5.97781e-05 -9.07037e-05 3.16444e-05 0.000100263 0.00041151)
(0.000878644 -3.62568e-05 0.000602925 9.59476e-06 2.65314e-06 0.000508121)
(0.000320693 1.15664e-05 0.00050314 4.19353e-06 3.06178e-05 0.000834076)
(0.000409282 6.13635e-05 0.000141582 1.39792e-05 1.75286e-06 0.000171333)
(9.63626e-05 4.49898e-06 0.000296608 1.71748e-05 -1.11933e-05 0.00116775)
(0.000240842 -5.97291e-05 -9.44164e-05 3.11823e-05 9.54037e-05 0.000378003)
(0.000754852 -2.36176e-05 0.000558955 1.26717e-05 1.42846e-05 0.000499468)
(0.00028725 4.46066e-05 0.000444163 1.17093e-05 8.06476e-05 0.000717438)
(0.000297072 5.41971e-05 0.000128944 1.5251e-05 4.33247e-06 0.000147229)
(0.000117207 8.60244e-06 0.000315539 2.00804e-05 1.23859e-05 0.000980003)
(0.00030622 -8.68848e-05 -0.0001186 5.2649e-05 0.000128336 0.000392766)
(0.00110028 -2.05258e-05 0.0007501 1.40409e-05 1.96872e-05 0.000595636)
(0.000274436 2.87689e-05 0.000413222 9.33098e-06 6.30533e-05 0.000686325)
(0.000236743 4.08522e-05 0.000125156 1.31966e-05 3.90265e-06 0.000158705)
(8.64176e-05 -2.07117e-05 0.00016296 1.86585e-05 2.52281e-05 0.00168242)
(0.00027564 -8.43177e-05 -8.95162e-05 4.53923e-05 0.000107205 0.000371135)
(0.000825649 -5.1206e-05 0.000513033 1.42e-05 -5.06277e-06 0.000384779)
(0.000445749 3.51316e-05 0.00058718 6.38602e-06 5.75675e-05 0.000821475)
(0.000295483 4.25607e-05 0.000161409 1.72619e-05 3.33405e-06 0.000137522)
(7.00422e-05 -2.30479e-05 0.000225668 2.28266e-05 -6.55827e-05 0.00143248)
(0.00020334 -7.54818e-05 -6.7288e-05 3.80703e-05 7.81787e-05 0.000313767)
(0.000748833 -8.13958e-05 0.000525443 1.89185e-05 -2.88909e-05 0.000447976)
(0.000407579 3.7695e-05 0.000621141 1.0242e-05 6.77287e-05 0.000963502)
(0.00029025 5.70113e-05 0.000167932 2.11761e-05 4.00759e-06 0.000200812)
(7.48745e-05 3.78462e-06 0.000274947 2.35421e-05 3.33985e-05 0.00129327)
(0.000163964 -5.94276e-05 -1.60227e-05 3.84677e-05 7.31006e-05 0.000277711)
(0.000627388 -4.986e-05 0.00047675 1.37123e-05 -1.05568e-05 0.000439476)
(0.000282079 2.6435e-05 0.000446036 7.44094e-06 5.10817e-05 0.000723309)
(0.000327117 6.2564e-05 0.000105136 1.69295e-05 1.56314e-06 0.000156372)
(5.80917e-05 3.34513e-06 0.000221606 1.80902e-05 1.27936e-05 0.00118836)
(9.72632e-05 -3.9446e-05 -7.09598e-06 3.57646e-05 7.98912e-05 0.000307864)
(0.00081105 -3.75349e-05 0.000613737 1.48757e-05 2.36692e-06 0.000536957)
(0.000363707 4.80556e-05 0.000551545 1.27359e-05 8.9731e-05 0.000884299)
(0.000309716 5.77773e-05 0.000151773 1.56605e-05 1.06284e-05 0.000182104)
(5.09772e-05 -3.49409e-06 0.000187239 1.63828e-05 7.36727e-06 0.00135612)
(0.00019112 -7.00304e-05 -6.2954e-05 4.59212e-05 0.000101137 0.000335658)
(0.000225317 -3.16461e-05 0.000260925 1.91291e-05 -1.64494e-05 0.000330759)
(8.38631e-05 1.34973e-05 0.000153275 1.11266e-05 3.3757e-05 0.000291696)
(8.8073e-05 2.13477e-05 6.46086e-05 2.40908e-05 -1.3419e-05 0.000102235)
(9.24873e-05 -8.43935e-06 0.000248109 2.52759e-05 1.15302e-06 0.000730072)
(6.68595e-05 -3.99524e-05 -8.64098e-06 4.95872e-05 7.42358e-05 0.000188962)
(0.000245556 -2.5851e-05 0.000255869 1.29571e-05 -4.09956e-06 0.000317802)
(0.000101312 9.64194e-06 0.000197537 5.82066e-06 2.5238e-05 0.00039472)
(0.000138089 4.09229e-05 3.8267e-05 2.15046e-05 -9.86726e-06 8.60336e-05)
(8.62486e-05 -3.5317e-06 0.000236455 2.5882e-05 -5.86989e-06 0.000737233)
(6.0568e-05 -3.86522e-05 -1.9824e-05 5.15436e-05 8.19115e-05 0.000194199)
(0.000183146 -1.22566e-05 0.000204653 1.6815e-05 9.46667e-06 0.000262638)
(0.000121226 3.50088e-05 0.000222501 1.5476e-05 6.93812e-05 0.000414741)
(0.000115091 3.8787e-05 5.41855e-05 2.4441e-05 -2.05559e-06 7.80581e-05)
(0.000126922 -1.57484e-06 0.000292566 3.0259e-05 1.85124e-05 0.000745133)
(7.90145e-05 -5.58859e-05 -1.91918e-05 7.80436e-05 9.77394e-05 0.000193983)
(0.000248763 -2.38975e-05 0.000233856 2.04149e-05 3.17035e-06 0.000256962)
(0.000110282 2.96192e-05 0.000210983 1.67105e-05 7.04361e-05 0.000427522)
(8.16579e-05 2.67533e-05 5.19691e-05 1.99252e-05 -4.63648e-06 0.000107759)
(7.0394e-05 -1.05292e-05 0.000230414 2.51257e-05 -2.0098e-06 0.000861933)
(5.29252e-05 -4.34315e-05 1.72844e-06 6.51e-05 7.03064e-05 0.000176192)
(0.000242507 -3.88032e-05 0.000249355 1.86549e-05 -1.83501e-05 0.000294013)
(0.000102251 1.39876e-05 0.000180205 8.23391e-06 3.57852e-05 0.000342261)
(9.23598e-05 1.9182e-05 6.63482e-05 2.42231e-05 -1.19716e-05 9.15859e-05)
(7.3585e-05 -2.71609e-05 0.000231665 3.08695e-05 -5.94049e-05 0.000874735)
(4.69006e-05 -4.62554e-05 -3.91863e-06 6.342e-05 5.45089e-05 0.000163402)
(0.000212233 -5.26879e-05 0.000233371 2.3716e-05 -3.64411e-05 0.000301864)
(0.000103564 1.92789e-05 0.000199898 1.4879e-05 4.64398e-05 0.000394261)
(9.89097e-05 3.83888e-05 4.73398e-05 3.26439e-05 -1.65275e-05 0.000120842)
(9.09666e-05 -2.26939e-06 0.000260437 3.02292e-05 7.25488e-06 0.000789448)
(5.88721e-05 -4.21814e-05 -1.52915e-06 5.53204e-05 6.23738e-05 0.000154704)
(0.000200542 -3.04126e-05 0.000230866 1.77866e-05 -1.38299e-05 0.000300989)
(9.50938e-05 1.90578e-05 0.000186544 9.17494e-06 3.90661e-05 0.000366839)
(0.000119067 4.30858e-05 2.87659e-05 2.41898e-05 -1.17784e-05 9.34249e-05)
(6.45721e-05 -3.11679e-06 0.000209222 2.43497e-05 -9.33971e-06 0.000749895)
(3.70607e-05 -2.91144e-05 8.4104e-06 5.92283e-05 7.20671e-05 0.00017478)
(0.000242866 -3.41373e-05 0.000265533 2.08102e-05 -1.78995e-05 0.000314528)
(0.000114362 2.37257e-05 0.000207493 1.47045e-05 5.57034e-05 0.000396249)
(0.000112446 3.92388e-05 5.01497e-05 2.55497e-05 -9.69741e-06 0.000113878)
(9.93624e-05 3.06177e-06 0.000250029 2.5688e-05 -7.55674e-06 0.000656971)
(3.57258e-05 -2.91967e-05 8.64457e-06 6.21176e-05 7.36052e-05 0.000173464)
(1.82135e-05 -1.05661e-05 5.17407e-05 1.86393e-05 -1.81366e-05 0.000160484)
(9.08636e-06 4.85066e-06 3.15958e-05 1.03279e-05 1.8623e-05 0.000111852)
(1.43767e-05 4.05885e-06 1.54718e-05 2.49419e-05 -2.39536e-05 5.72102e-05)
(4.85353e-05 -6.01345e-06 0.000113884 2.47839e-05 -9.94255e-06 0.000270695)
(7.45701e-06 -1.50314e-05 2.45605e-06 5.96483e-05 3.45385e-05 5.64667e-05)
(2.23426e-05 -1.10522e-05 5.06839e-05 1.24782e-05 -9.41506e-06 0.000150594)
(1.27845e-05 3.68986e-06 3.96596e-05 4.80355e-06 1.04418e-05 0.000123777)
(2.47279e-05 1.37564e-05 3.83228e-06 2.23144e-05 -2.30873e-05 4.99587e-05)
(6.42012e-05 -2.0318e-06 0.000121429 2.43279e-05 -2.12045e-05 0.000244596)
(2.67982e-06 9.53642e-07 9.60425e-06 5.73671e-05 3.62086e-05 5.94852e-05)
(1.29479e-05 -4.93004e-06 4.03455e-05 1.56708e-05 -1.98639e-06 0.00013965)
(1.42066e-05 8.35421e-06 3.99621e-05 1.39794e-05 2.9517e-05 0.000119994)
(2.5668e-05 1.15278e-05 1.94388e-05 2.72462e-05 -1.74436e-05 4.97644e-05)
(8.50466e-05 -4.65595e-07 0.000161576 2.94151e-05 -4.75463e-06 0.000309923)
(3.38981e-06 1.6703e-06 1.08812e-05 8.26584e-05 4.48101e-05 6.59615e-05)
(1.93924e-05 -9.06445e-06 4.9354e-05 1.97808e-05 -9.14842e-06 0.000138821)
(1.95544e-05 1.25164e-05 5.43953e-05 1.57899e-05 3.79671e-05 0.000154105)
(1.81171e-05 6.25137e-06 2.06588e-05 2.28221e-05 -1.93878e-05 6.29135e-05)
(4.34417e-05 -4.38191e-06 0.000120375 2.46153e-05 -1.31463e-05 0.000337606)
(2.90702e-06 -4.09381e-06 7.03731e-06 7.33047e-05 3.1033e-05 5.87376e-05)
(3.29644e-05 -1.37038e-05 7.28009e-05 1.80229e-05 -1.72854e-05 0.000177454)
(9.06511e-06 -2.66001e-06 2.13241e-05 8.86103e-06 1.18652e-05 9.66511e-05)
(1.38191e-05 3.50979e-06 1.37288e-05 2.53012e-05 -2.87353e-05 6.4143e-05)
(5.21428e-05 -1.53784e-05 0.000124642 2.93498e-05 -4.67018e-05 0.000307925)
(4.54436e-06 -1.33583e-05 1.92405e-06 7.43057e-05 2.38745e-05 5.67318e-05)
(2.79389e-05 -1.97659e-05 6.39125e-05 2.19916e-05 -3.26776e-05 0.000172912)
(7.87491e-06 5.58153e-07 2.67118e-05 1.30888e-05 1.52634e-05 0.000106724)
(1.86572e-05 1.50454e-05 3.89259e-06 3.22011e-05 -2.80734e-05 6.37799e-05)
(4.69029e-05 -6.62211e-06 0.000124612 2.7409e-05 -1.57911e-05 0.000335016)
(3.87839e-06 -1.10257e-05 1.42752e-06 6.46701e-05 2.6806e-05 5.96623e-05)
(1.6717e-05 -1.18742e-05 4.69834e-05 1.70188e-05 -1.69008e-05 0.000169598)
(8.50239e-06 6.10277e-06 3.18781e-05 1.04862e-05 2.00003e-05 0.000121331)
(2.1788e-05 1.59746e-05 2.2333e-06 2.52079e-05 -2.46127e-05 5.81228e-05)
(4.87241e-05 -3.23605e-06 0.000113559 2.42195e-05 -2.54682e-05 0.00028097)
(3.04124e-06 -1.03807e-06 1.0498e-05 6.57919e-05 3.36344e-05 6.19423e-05)