/*--------------------------------*- C++ -*----------------------------------*\
  =========                 |
  \\      /  F ield         | OpenFOAM: The Open Source CFD Toolbox
   \\    /   O peration     | Website:  https://openfoam.org
    \\  /    A nd           | Version:  10
     \\/     M anipulation  |
\*---------------------------------------------------------------------------*/
FoamFile
{
    format      ascii;
    class       volScalarField;
    location    "2";
    object      nut;
}
// * * * * * * * * * * * * * * * * * * * * * * * * * * * * * * * * * * * * * //

dimensions      [0 2 -1 0 0 0 0];

internalField   nonuniform List<scalar> 
25600
(
8.78646e-09
5.97309e-09
1.033e-08
6.95739e-09
1.10329e-09
7.55403e-09
1.43364e-08
4.91739e-09
1.81294e-09
8.55741e-10
3.72177e-09
6.80467e-09
3.28859e-09
2.48427e-09
2.4548e-09
4.6747e-09
1.30875e-08
1.01013e-08
2.30826e-09
1.05957e-08
7.99395e-09
1.37992e-08
3.87078e-09
5.02715e-09
5.05589e-10
2.38034e-09
7.11937e-09
1.38289e-08
5.40831e-09
3.06339e-10
5.98008e-09
1.68973e-08
4.81427e-09
2.41239e-10
2.18424e-09
1.07421e-08
1.24948e-08
5.54393e-09
1.4562e-09
4.43338e-09
1.50113e-08
8.41256e-09
1.53824e-08
7.16438e-09
3.46567e-09
1.04492e-08
2.37373e-08
3.44826e-09
3.17856e-09
4.03278e-09
6.15046e-09
1.01623e-08
7.39157e-09
1.7793e-09
3.50322e-09
1.56827e-08
1.79659e-08
2.36889e-09
1.79742e-09
7.90932e-09
9.01886e-09
4.39484e-09
7.21955e-09
3.10161e-09
5.21531e-10
1.0984e-09
1.66477e-08
1.45062e-08
4.2883e-09
2.63191e-09
1.03291e-08
2.27256e-08
2.0853e-09
9.03349e-10
5.44019e-09
1.54686e-08
1.55327e-08
8.04777e-09
6.12004e-10
4.14364e-09
1.99172e-08
1.35123e-08
2.67716e-08
7.47787e-09
5.48272e-09
2.83447e-08
3.38871e-08
4.95592e-09
4.18183e-09
5.2011e-09
1.2314e-08
2.37468e-08
1.64365e-08
3.1998e-09
5.97988e-09
4.21034e-08
2.55901e-08
2.72426e-09
2.93789e-09
1.57258e-08
9.11248e-09
3.24796e-09
1.73224e-08
4.86224e-09
1.17085e-09
6.91317e-09
3.11402e-08
1.70703e-08
5.25259e-09
4.83412e-09
2.86636e-08
3.13432e-08
2.25776e-09
2.17236e-09
1.06608e-08
2.17142e-08
2.65801e-08
6.75098e-09
6.85274e-10
1.04503e-08
2.42606e-08
2.77431e-08
3.76512e-08
9.30715e-09
9.4918e-09
6.17311e-08
3.55294e-08
7.69873e-09
5.65256e-09
5.9132e-09
2.074e-08
4.88456e-08
2.65147e-08
5.61628e-09
1.35105e-08
8.26478e-08
2.47534e-08
4.59801e-09
7.6669e-09
2.06728e-08
7.31022e-09
9.70912e-09
3.66918e-08
5.58945e-09
2.86344e-09
2.90447e-08
5.09712e-08
1.94566e-08
7.18978e-09
7.93668e-09
5.74525e-08
3.62632e-08
3.25166e-09
3.89769e-09
1.69805e-08
3.40757e-08
4.43758e-08
4.63541e-09
2.68359e-09
2.49745e-08
2.8419e-08
5.73152e-08
4.9565e-08
1.39058e-08
1.96899e-08
1.01177e-07
3.08237e-08
1.37657e-08
8.30538e-09
7.84824e-09
3.6643e-08
8.75288e-08
3.35829e-08
9.92235e-09
3.41558e-08
1.29022e-07
2.18728e-08
8.76983e-09
2.01978e-08
1.81434e-08
7.14713e-09
3.63911e-08
6.27816e-08
8.84059e-09
7.56567e-09
7.08789e-08
7.13723e-08
2.41244e-08
1.05093e-08
1.54803e-08
9.33911e-08
3.88574e-08
5.82977e-09
7.03604e-09
2.28454e-08
5.16117e-08
6.92653e-08
6.20423e-09
7.4526e-09
4.68979e-08
3.34069e-08
1.12263e-07
6.1262e-08
2.17467e-08
4.50575e-08
1.32484e-07
2.87615e-08
2.90899e-08
1.25857e-08
1.21278e-08
6.78464e-08
1.37693e-07
3.72752e-08
1.75938e-08
8.27826e-08
1.67509e-07
2.4456e-08
1.98872e-08
3.4325e-08
1.61301e-08
1.56782e-08
9.24971e-08
9.16152e-08
1.56836e-08
2.00737e-08
1.24584e-07
9.4555e-08
3.72174e-08
1.61562e-08
3.33924e-08
1.29586e-07
4.37099e-08
1.17741e-08
1.35968e-08
3.01997e-08
8.14417e-08
1.02172e-07
1.17175e-08
1.81006e-08
6.52243e-08
5.42175e-08
1.99502e-07
7.15148e-08
3.4625e-08
9.16852e-08
1.4935e-07
4.0114e-08
6.18713e-08
1.98191e-08
2.08507e-08
1.24997e-07
1.94234e-07
4.47147e-08
3.08051e-08
1.58023e-07
1.92668e-07
3.71224e-08
5.23578e-08
4.56963e-08
2.05284e-08
4.59919e-08
1.8259e-07
1.11501e-07
2.77377e-08
5.02261e-08
1.80956e-07
1.28792e-07
5.88765e-08
2.55051e-08
6.44052e-08
1.61115e-07
5.74949e-08
2.43518e-08
2.6088e-08
4.14079e-08
1.39179e-07
1.39797e-07
2.30448e-08
3.96789e-08
7.03132e-08
1.13744e-07
3.14287e-07
8.45508e-08
5.54084e-08
1.50748e-07
1.55364e-07
8.34486e-08
1.03965e-07
3.20407e-08
3.7883e-08
2.1088e-07
2.69573e-07
5.80754e-08
5.26923e-08
2.43316e-07
2.03918e-07
6.78767e-08
1.10561e-07
5.82912e-08
3.33958e-08
1.13903e-07
3.06125e-07
1.24828e-07
4.71613e-08
1.09144e-07
2.3503e-07
1.80425e-07
8.71534e-08
4.16242e-08
1.06572e-07
1.87767e-07
8.41988e-08
4.19643e-08
4.22172e-08
5.92084e-08
2.35939e-07
1.76661e-07
4.32047e-08
7.67171e-08
7.0798e-08
2.35407e-07
4.29317e-07
1.0786e-07
8.71723e-08
2.10781e-07
1.72102e-07
1.777e-07
1.41415e-07
5.13523e-08
7.02455e-08
3.12851e-07
3.7671e-07
7.88713e-08
8.76896e-08
3.31846e-07
2.20202e-07
1.29815e-07
1.73132e-07
8.02921e-08
5.96123e-08
2.20969e-07
4.50116e-07
1.46368e-07
7.83665e-08
2.0006e-07
3.04963e-07
2.60538e-07
1.19536e-07
6.59618e-08
1.56811e-07
2.21437e-07
1.23593e-07
6.70544e-08
6.00058e-08
8.75261e-08
3.66609e-07
2.07549e-07
7.55731e-08
1.24175e-07
8.30798e-08
4.41317e-07
5.2575e-07
1.46353e-07
1.31986e-07
2.70343e-07
2.29364e-07
3.2408e-07
1.67283e-07
8.04867e-08
1.24925e-07
4.34631e-07
5.14456e-07
1.13606e-07
1.39286e-07
4.18353e-07
2.65227e-07
2.34148e-07
2.32831e-07
1.14204e-07
1.04659e-07
3.70798e-07
5.9579e-07
1.77717e-07
1.27215e-07
3.08301e-07
4.05834e-07
3.8445e-07
1.57325e-07
9.97635e-08
2.04637e-07
2.88204e-07
1.66935e-07
9.72593e-08
8.51991e-08
1.32136e-07
5.22323e-07
2.25271e-07
1.30527e-07
1.67869e-07
1.11962e-07
6.98634e-07
6.09457e-07
2.06735e-07
1.8983e-07
3.52108e-07
3.42196e-07
5.08168e-07
1.98039e-07
1.23334e-07
2.01503e-07
5.84976e-07
6.87144e-07
1.66545e-07
2.12094e-07
5.06984e-07
3.53345e-07
3.74189e-07
2.90598e-07
1.64682e-07
1.73538e-07
5.62136e-07
7.26295e-07
2.26738e-07
1.99884e-07
4.12071e-07
5.35024e-07
5.33865e-07
2.09248e-07
1.45894e-07
2.56374e-07
3.98443e-07
2.22863e-07
1.45973e-07
1.14764e-07
2.00816e-07
6.89406e-07
2.51012e-07
2.1794e-07
2.05618e-07
1.63704e-07
9.80686e-07
6.91041e-07
2.93336e-07
2.63002e-07
4.63918e-07
5.21805e-07
6.83274e-07
2.54535e-07
1.90445e-07
2.88309e-07
7.82909e-07
8.91433e-07
2.46026e-07
3.08371e-07
6.02114e-07
4.97149e-07
5.27944e-07
3.6019e-07
2.34232e-07
2.65724e-07
7.84707e-07
8.23988e-07
2.98389e-07
3.0171e-07
5.13666e-07
7.11456e-07
6.85716e-07
2.74927e-07
2.08435e-07
3.24151e-07
5.47852e-07
3.10626e-07
2.24129e-07
1.51693e-07
2.95854e-07
8.80366e-07
3.05418e-07
3.48116e-07
2.45265e-07
2.48561e-07
1.28121e-06
7.97556e-07
3.99077e-07
3.51941e-07
5.94934e-07
7.76309e-07
8.57554e-07
3.38721e-07
2.83393e-07
3.97308e-07
1.05507e-06
1.11257e-06
3.60398e-07
4.33784e-07
7.05528e-07
7.18657e-07
6.8897e-07
4.93379e-07
3.30528e-07
3.91273e-07
1.03867e-06
8.62541e-07
3.93493e-07
4.30336e-07
6.23028e-07
9.49701e-07
8.45504e-07
3.62825e-07
2.8819e-07
4.26426e-07
7.48504e-07
4.46677e-07
3.11634e-07
2.01292e-07
4.383e-07
1.08896e-06
3.86675e-07
5.09737e-07
3.08303e-07
3.78969e-07
1.54718e-06
9.49042e-07
5.3797e-07
4.62124e-07
7.5011e-07
1.12251e-06
1.03498e-06
4.85557e-07
4.09312e-07
5.27845e-07
1.40077e-06
1.38395e-06
5.19581e-07
5.88304e-07
8.49674e-07
1.07027e-06
8.49019e-07
6.85444e-07
4.59286e-07
5.62036e-07
1.33678e-06
9.10714e-07
5.02232e-07
5.77326e-07
7.64197e-07
1.23209e-06
1.00543e-06
4.8494e-07
3.82488e-07
5.62528e-07
9.9358e-07
6.48675e-07
4.23033e-07
2.67044e-07
6.29526e-07
1.29161e-06
5.09708e-07
6.92777e-07
3.9975e-07
5.66516e-07
1.78115e-06
1.14383e-06
7.19518e-07
6.07231e-07
9.73442e-07
1.59694e-06
1.21908e-06
7.00232e-07
5.74754e-07
7.3208e-07
1.90888e-06
1.62853e-06
7.64456e-07
7.79154e-07
1.04642e-06
1.52885e-06
1.08113e-06
9.80631e-07
6.24414e-07
7.9374e-07
1.66108e-06
1.03261e-06
6.64408e-07
7.47433e-07
9.87768e-07
1.58783e-06
1.17867e-06
6.21026e-07
5.03711e-07
7.57088e-07
1.30971e-06
8.98614e-07
5.57961e-07
3.56881e-07
8.52475e-07
1.50103e-06
6.97636e-07
9.23662e-07
5.34381e-07
8.1729e-07
2.19394e-06
1.35946e-06
9.71836e-07
7.84267e-07
1.29529e-06
2.21158e-06
1.43191e-06
1.05311e-06
7.68755e-07
9.55579e-07
2.53642e-06
1.94238e-06
1.11129e-06
1.02558e-06
1.31758e-06
2.19003e-06
1.27808e-06
1.39802e-06
8.49733e-07
1.08036e-06
2.06888e-06
1.20565e-06
8.9866e-07
9.61773e-07
1.20544e-06
1.95217e-06
1.41253e-06
8.22746e-07
6.64963e-07
9.80942e-07
1.64064e-06
1.1727e-06
7.48822e-07
4.80547e-07
1.13638e-06
1.83664e-06
9.18836e-07
1.1807e-06
7.19914e-07
1.11831e-06
2.72771e-06
1.64851e-06
1.37129e-06
1.01865e-06
1.63628e-06
3.04674e-06
1.65894e-06
1.55378e-06
1.04768e-06
1.14802e-06
3.20676e-06
2.20896e-06
1.65226e-06
1.34846e-06
1.50702e-06
3.06902e-06
1.58479e-06
1.98322e-06
1.10032e-06
1.31106e-06
2.47255e-06
1.57127e-06
1.34541e-06
1.28062e-06
1.19313e-06
2.27438e-06
1.74212e-06
1.18173e-06
8.92673e-07
1.12448e-06
2.21769e-06
1.56386e-06
1.05005e-06
6.51911e-07
1.41781e-06
2.3827e-06
1.18444e-06
1.55639e-06
9.57548e-07
1.25079e-06
3.60228e-06
2.001e-06
2.00607e-06
1.39355e-06
1.98764e-06
4.18657e-06
2.0412e-06
2.28141e-06
1.37703e-06
1.3098e-06
4.40217e-06
2.42481e-06
2.40902e-06
1.6689e-06
2.38641e-06
4.47485e-06
1.87243e-06
2.79217e-06
1.55677e-06
3.96991e-06
4.31856e-06
2.48793e-06
2.06821e-06
1.60798e-06
2.51192e-06
4.92484e-06
3.09261e-06
1.6121e-06
1.03903e-06
3.42664e-06
4.58482e-06
2.81549e-06
1.77922e-06
9.86929e-07
1.74367e-06
3.18829e-06
1.5949e-06
2.25806e-06
1.32295e-06
1.15481e-06
6.50112e-06
2.61384e-06
2.80384e-06
2.37584e-06
4.26069e-06
6.3882e-06
2.85687e-06
3.12547e-06
1.67279e-06
3.86799e-06
7.11056e-06
2.94309e-06
3.34271e-06
2.36687e-06
6.80044e-06
7.44679e-06
2.25822e-06
3.37664e-06
3.5044e-06
1.05417e-05
9.04983e-06
4.99644e-06
2.83602e-06
1.67264e-06
8.42023e-06
1.13819e-05
6.30393e-06
2.27859e-06
1.44312e-06
9.87343e-06
1.05153e-05
6.00775e-06
3.04738e-06
1.63809e-06
4.04686e-06
4.97955e-06
2.3402e-06
3.15446e-06
1.81646e-06
3.70925e-06
1.01315e-05
3.46862e-06
3.30284e-06
4.94122e-06
8.66139e-06
8.76894e-06
3.94769e-06
3.69716e-06
2.64767e-06
7.53326e-06
8.79618e-06
3.91597e-06
4.09223e-06
4.63692e-06
1.0587e-05
9.46156e-06
3.34772e-06
4.38124e-06
4.89175e-06
1.37751e-05
1.29821e-05
7.51621e-06
2.70955e-06
2.8255e-06
1.27875e-05
1.62781e-05
9.63317e-06
2.73885e-06
3.13046e-06
1.39275e-05
1.49193e-05
9.96351e-06
4.94649e-06
3.6694e-06
1.0336e-05
8.27673e-06
3.73476e-06
3.7897e-06
3.18536e-06
8.91117e-06
1.05675e-05
4.2805e-06
3.11541e-06
7.19894e-06
1.07263e-05
8.29624e-06
4.69452e-06
3.2119e-06
4.76886e-06
8.82987e-06
7.54259e-06
7.56583e-06
5.17099e-06
6.87102e-06
9.38371e-06
6.6537e-06
7.73507e-06
6.65744e-06
6.57196e-06
8.45384e-06
9.08253e-06
6.53262e-06
3.20114e-06
6.0402e-06
1.10965e-05
1.25676e-05
8.7214e-06
3.31538e-06
5.23883e-06
1.02997e-05
9.58199e-06
8.4679e-06
4.15545e-06
5.65508e-06
1.62287e-05
1.22251e-05
4.6251e-06
3.96482e-06
5.79774e-06
1.2114e-05
7.54746e-06
8.62056e-06
4.95921e-06
7.20737e-06
9.82262e-06
6.8137e-06
8.26085e-06
4.93654e-06
6.63678e-06
8.39275e-06
6.53831e-06
1.11956e-05
6.39638e-06
7.72493e-06
6.05965e-06
7.22056e-06
1.28837e-05
8.69179e-06
8.15278e-06
1.10106e-05
9.647e-06
9.71864e-06
6.8725e-06
9.71192e-06
9.99753e-06
1.02379e-05
1.20993e-05
5.72342e-06
7.31293e-06
7.91191e-06
1.33933e-05
8.89626e-06
6.29185e-06
6.0292e-06
1.28757e-05
1.04518e-05
7.32012e-06
5.91035e-06
9.21569e-06
1.03562e-05
8.85605e-06
9.71428e-06
6.58031e-06
4.66833e-06
7.54231e-06
7.13217e-06
1.03386e-05
7.60101e-06
6.95957e-06
5.59857e-06
8.18875e-06
9.67814e-06
8.38023e-06
6.13452e-06
3.91657e-06
9.57399e-06
1.1275e-05
1.17768e-05
4.50075e-06
1.27988e-05
1.54071e-05
1.3229e-05
7.44289e-06
7.45662e-06
9.78194e-06
2.20929e-05
1.70325e-05
7.32259e-06
5.26023e-06
9.8598e-06
1.95707e-05
1.5335e-05
9.35956e-06
7.57239e-06
4.5803e-06
9.95022e-06
9.18317e-06
8.42578e-06
9.00941e-06
4.23243e-06
9.56434e-06
7.8399e-06
5.23222e-06
4.52739e-06
2.68345e-06
9.71468e-06
1.01508e-05
6.65942e-06
5.44026e-06
1.67428e-06
9.47056e-06
8.79468e-06
6.64184e-06
4.04215e-06
3.18328e-06
1.1101e-05
8.00285e-06
8.89234e-06
1.61892e-06
1.03503e-05
1.57343e-05
1.11567e-05
5.50724e-06
1.82641e-06
1.10195e-05
2.34047e-05
1.19895e-05
5.69002e-06
2.99053e-06
1.14618e-05
1.54217e-05
1.33608e-05
7.22165e-06
4.70943e-06
1.37206e-05
1.77935e-05
1.05432e-05
6.36623e-06
3.82759e-06
6.03839e-06
9.46679e-06
7.3418e-06
4.95808e-06
6.48636e-06
5.83097e-06
1.27982e-05
9.67958e-06
3.83009e-06
5.79194e-06
5.38331e-06
1.16902e-05
8.62857e-06
3.04233e-06
4.06273e-06
4.71886e-06
1.34173e-05
8.74262e-06
4.40934e-06
1.85856e-06
1.05091e-05
1.48149e-05
8.36694e-06
4.35298e-06
4.22087e-06
1.33181e-05
1.63889e-05
6.72275e-06
5.74952e-06
3.78287e-06
1.32122e-05
1.19931e-05
8.37717e-06
4.4337e-06
4.53099e-06
1.35942e-05
1.55353e-05
9.34501e-06
4.87026e-06
6.30015e-06
7.77071e-06
1.39956e-05
7.99898e-06
3.88434e-06
5.01449e-06
1.06806e-05
1.64184e-05
9.10362e-06
2.17164e-06
4.19394e-06
9.04675e-06
1.52863e-05
9.03576e-06
2.87088e-06
4.44786e-06
8.14404e-06
1.40332e-05
7.70355e-06
3.28708e-06
7.3368e-06
1.1989e-05
1.28786e-05
5.4484e-06
2.93679e-06
8.67283e-06
1.42899e-05
9.18458e-06
3.33778e-06
3.72417e-06
5.54908e-06
1.41837e-05
1.02541e-05
5.98015e-06
3.02843e-06
5.06305e-06
1.38206e-05
1.34885e-05
7.69348e-06
4.10054e-06
5.857e-06
1.07507e-05
1.9688e-05
8.97122e-06
5.62115e-06
5.48958e-06
1.86813e-05
1.94311e-05
9.64343e-06
3.80351e-06
5.12742e-06
1.88321e-05
1.94996e-05
7.92556e-06
4.39537e-06
6.71415e-06
1.80776e-05
1.36712e-05
8.36156e-06
6.37645e-06
1.50012e-05
1.53569e-05
1.00526e-05
6.86062e-06
4.46976e-06
1.32932e-05
1.54088e-05
7.71024e-06
4.33844e-06
4.06186e-06
1.1317e-05
1.5576e-05
9.11497e-06
5.22595e-06
3.4224e-06
9.91354e-06
2.06264e-05
1.45985e-05
8.91424e-06
5.62209e-06
7.19782e-06
1.92824e-05
1.99013e-05
1.01461e-05
5.36646e-06
1.68812e-05
2.9712e-05
1.94011e-05
1.09198e-05
5.84145e-06
1.81698e-05
3.08508e-05
2.00804e-05
9.38807e-06
4.1022e-06
1.9829e-05
3.06931e-05
1.37729e-05
8.72631e-06
1.59065e-05
2.54349e-05
1.78635e-05
1.05794e-05
8.98421e-06
1.03968e-05
2.22967e-05
1.82137e-05
1.0429e-05
7.7479e-06
1.02127e-05
2.24202e-05
1.81936e-05
1.02226e-05
6.81774e-06
8.06123e-06
2.29786e-05
2.64402e-05
1.41579e-05
1.09791e-05
5.37981e-06
1.92856e-05
2.81271e-05
1.98353e-05
1.13119e-05
1.82209e-05
3.34105e-05
3.44938e-05
2.03859e-05
1.42551e-05
2.08766e-05
3.3282e-05
3.4044e-05
1.924e-05
1.12291e-05
1.90843e-05
3.6286e-05
3.38869e-05
1.73642e-05
1.92746e-05
2.97692e-05
3.08456e-05
1.97257e-05
1.44365e-05
1.45248e-05
2.39307e-05
3.06254e-05
2.18902e-05
1.45207e-05
1.54214e-05
2.36214e-05
3.13634e-05
2.08303e-05
1.4634e-05
1.46254e-05
2.19032e-05
3.32965e-05
2.58668e-05
1.68068e-05
1.31227e-05
1.93741e-05
3.30543e-05
3.01629e-05
2.43365e-05
2.56026e-05
3.49887e-05
3.83485e-05
3.44398e-05
2.53084e-05
2.67656e-05
3.42762e-05
3.68077e-05
3.18992e-05
2.27187e-05
2.62712e-05
3.66507e-05
3.92549e-05
3.22187e-05
2.59264e-05
3.39512e-05
3.66969e-05
3.05327e-05
2.37141e-05
2.27632e-05
2.86842e-05
3.52603e-05
3.37099e-05
2.58562e-05
2.28798e-05
2.81764e-05
3.42612e-05
3.43107e-05
2.49476e-05
2.33078e-05
2.70343e-05
3.30604e-05
3.40128e-05
2.60564e-05
2.37515e-05
2.53512e-05
3.41871e-05
3.61898e-05
2.94556e-05
3.39883e-05
3.90884e-05
3.95579e-05
3.56908e-05
3.53484e-05
3.27557e-05
3.63818e-05
3.68891e-05
3.43159e-05
3.15682e-05
3.16992e-05
4.08247e-05
4.03024e-05
3.47265e-05
3.39425e-05
3.60128e-05
4.05282e-05
3.49937e-05
3.05087e-05
2.89477e-05
3.31758e-05
3.84625e-05
3.74299e-05
3.36437e-05
3.015e-05
3.15734e-05
3.64991e-05
3.7254e-05
3.45128e-05
2.99529e-05
3.24692e-05
3.57298e-05
3.5487e-05
3.17033e-05
2.94158e-05
3.33304e-05
3.59199e-05
3.78266e-05
3.37501e-05
3.09771e-05
3.98247e-05
4.40059e-05
3.82355e-05
3.24221e-05
3.48122e-05
3.70648e-05
3.99902e-05
3.49973e-05
3.16116e-05
3.1603e-05
3.77942e-05
4.57079e-05
3.77765e-05
3.12238e-05
3.47415e-05
4.04677e-05
4.08057e-05
3.16685e-05
3.06869e-05
3.20486e-05
3.82824e-05
4.08302e-05
3.4703e-05
3.23076e-05
3.29391e-05
3.56977e-05
3.84803e-05
3.60015e-05
3.38747e-05
3.30639e-05
3.68376e-05
3.77522e-05
3.40835e-05
2.99158e-05
3.14509e-05
3.8475e-05
3.91884e-05
3.63624e-05
3.08324e-05
3.23059e-05
9.06537e-09
1.63335e-09
4.86166e-10
2.50768e-09
9.33279e-09
2.16047e-09
2.07933e-10
1.06167e-09
4.30107e-09
1.18471e-08
9.47724e-09
1.87097e-09
1.15752e-09
1.5078e-08
1.31834e-08
2.45517e-09
2.25676e-09
3.46453e-09
1.05878e-09
8.4874e-09
7.45789e-09
4.38113e-10
9.08619e-10
1.32201e-08
1.35796e-08
2.64571e-09
7.75022e-10
3.4181e-09
9.00378e-09
3.06566e-09
2.40111e-09
1.39672e-09
4.44677e-10
3.78742e-09
1.07036e-08
1.01052e-08
1.40186e-09
1.14234e-09
4.09548e-09
1.46931e-08
8.00722e-09
1.53128e-09
3.55747e-10
7.5136e-09
1.04761e-08
1.81007e-09
6.26188e-10
7.87983e-10
2.90764e-09
1.74737e-08
4.54499e-09
2.44951e-09
7.3521e-09
1.71016e-08
4.98908e-09
3.2203e-09
5.49338e-09
2.03313e-09
4.88926e-09
2.69604e-08
4.15569e-09
1.17e-09
3.42256e-09
2.72228e-08
1.0548e-08
2.43972e-09
1.33593e-09
1.03333e-08
9.86602e-09
2.73878e-09
3.77978e-09
4.74516e-09
9.66692e-10
5.68335e-09
1.78592e-08
5.39266e-09
3.51681e-10
1.13834e-09
7.92713e-09
1.87619e-08
7.46192e-09
1.87233e-09
4.50119e-10
2.5724e-08
1.66592e-08
2.55552e-09
1.40405e-09
1.46765e-09
1.1734e-08
3.11967e-08
4.28484e-09
4.57361e-09
2.40776e-08
2.00902e-08
2.04014e-09
9.87147e-09
8.67382e-09
2.84517e-09
1.77413e-08
5.33264e-08
2.8482e-09
2.454e-09
1.73389e-08
4.57374e-08
9.38715e-09
3.54492e-09
2.9808e-09
2.3041e-08
9.52546e-09
3.83909e-09
1.11178e-08
3.55866e-09
1.97255e-09
1.63079e-08
2.92872e-08
1.34861e-09
1.08248e-09
3.14187e-09
1.58214e-08
2.66667e-08
5.66236e-09
2.33467e-09
6.33044e-09
4.50785e-08
2.61499e-08
4.72871e-09
3.31981e-09
4.06427e-09
3.93217e-08
4.5545e-08
6.92903e-09
9.98974e-09
4.96996e-08
1.70724e-08
2.80871e-09
3.033e-08
7.13264e-09
4.72269e-09
5.77454e-08
7.88522e-08
4.08136e-09
5.05283e-09
4.72489e-08
6.45489e-08
1.14452e-08
6.0042e-09
8.52664e-09
3.75489e-08
1.04298e-08
6.52871e-09
2.52261e-08
3.98272e-09
3.83639e-09
4.05253e-08
4.35025e-08
2.82159e-09
2.753e-09
8.92036e-09
3.02803e-08
4.13768e-08
5.82174e-09
2.89178e-09
2.82483e-08
6.00759e-08
4.67289e-08
8.52168e-09
7.37396e-09
1.25914e-08
8.1636e-08
5.72395e-08
1.27677e-08
2.4824e-08
7.91398e-08
1.18479e-08
6.51479e-09
6.55362e-08
5.56191e-09
7.85797e-09
1.35938e-07
8.78838e-08
7.37458e-09
1.12865e-08
8.93178e-08
8.14565e-08
1.91473e-08
1.12902e-08
2.132e-08
5.33421e-08
1.35747e-08
1.49162e-08
4.44566e-08
6.41066e-09
9.12537e-09
8.45445e-08
5.78115e-08
7.11154e-09
6.36988e-09
1.86615e-08
5.76915e-08
6.31664e-08
9.86945e-09
4.63487e-09
4.3109e-08
8.33703e-08
8.44815e-08
1.51327e-08
1.52301e-08
3.53575e-08
1.35912e-07
7.16851e-08
2.33916e-08
5.9335e-08
1.02711e-07
1.0033e-08
4.43585e-08
1.00321e-07
7.4632e-09
1.47448e-08
2.46289e-07
6.8017e-08
1.33172e-08
2.67932e-08
1.35635e-07
9.81436e-08
3.68846e-08
2.30164e-08
3.77002e-08
6.91163e-08
2.06052e-08
4.54075e-08
6.16612e-08
1.20669e-08
2.53224e-08
1.50251e-07
7.16959e-08
1.55558e-08
1.41933e-08
3.18533e-08
1.07552e-07
8.46423e-08
1.90469e-08
1.13577e-08
4.96018e-08
1.36547e-07
1.39933e-07
2.69631e-08
2.97232e-08
7.76464e-08
2.00364e-07
9.55963e-08
4.01091e-08
1.16001e-07
1.11677e-07
1.18903e-08
1.57692e-07
1.06264e-07
1.33292e-08
4.25421e-08
3.59826e-07
4.84026e-08
2.37509e-08
5.84521e-08
1.7786e-07
1.27834e-07
7.60249e-08
4.41634e-08
5.90461e-08
8.94301e-08
3.70378e-08
1.11136e-07
7.13753e-08
2.30487e-08
6.92474e-08
2.32375e-07
8.91952e-08
3.14732e-08
2.73731e-08
5.31371e-08
1.85447e-07
1.02778e-07
3.76001e-08
2.75277e-08
5.81735e-08
2.44384e-07
2.02202e-07
4.62873e-08
5.71344e-08
1.33481e-07
2.7678e-07
1.38034e-07
6.53047e-08
1.8423e-07
1.03472e-07
2.24209e-08
3.24125e-07
7.02939e-08
2.31763e-08
1.51954e-07
4.37535e-07
5.23124e-08
4.24121e-08
1.05722e-07
2.17965e-07
1.8078e-07
1.53939e-07
7.62587e-08
9.25296e-08
1.24304e-07
7.09455e-08
2.08972e-07
8.47492e-08
4.30952e-08
1.65822e-07
3.27668e-07
1.19637e-07
5.98252e-08
4.67605e-08
9.40161e-08
2.91915e-07
1.23119e-07
7.03052e-08
5.16194e-08
8.78955e-08
4.15522e-07
2.59366e-07
7.5708e-08
1.0241e-07
2.00316e-07
3.90816e-07
2.00317e-07
1.0477e-07
2.55866e-07
8.8324e-08
6.74678e-08
5.20325e-07
5.70711e-08
3.79518e-08
3.40946e-07
4.65593e-07
7.65227e-08
7.52187e-08
1.62159e-07
2.69137e-07
2.80798e-07
2.53065e-07
1.17126e-07
1.45427e-07
1.77054e-07
1.4031e-07
3.28285e-07
1.12549e-07
7.89522e-08
3.1616e-07
4.36874e-07
1.7483e-07
1.05051e-07
7.30114e-08
1.72745e-07
4.21872e-07
1.55168e-07
1.21208e-07
8.36579e-08
1.54615e-07
6.5416e-07
3.08859e-07
1.19075e-07
1.68842e-07
2.70533e-07
5.74794e-07
2.8099e-07
1.60026e-07
3.25506e-07
8.84985e-08
2.15995e-07
6.98611e-07
7.14523e-08
6.02786e-08
5.4772e-07
4.65849e-07
1.2824e-07
1.2761e-07
2.26423e-07
3.3788e-07
4.50026e-07
3.68435e-07
1.62192e-07
2.22548e-07
2.46666e-07
2.65909e-07
4.52763e-07
1.54339e-07
1.41667e-07
4.97217e-07
5.5233e-07
2.69968e-07
1.68908e-07
1.10718e-07
2.93567e-07
5.74391e-07
2.11952e-07
1.93217e-07
1.27304e-07
2.70171e-07
9.23497e-07
3.64674e-07
1.81673e-07
2.5013e-07
3.62329e-07
8.19858e-07
3.91478e-07
2.36939e-07
3.7586e-07
1.11621e-07
4.82729e-07
8.25431e-07
1.0207e-07
9.97374e-08
7.08543e-07
4.74265e-07
2.17787e-07
1.99514e-07
3.05111e-07
4.35598e-07
6.76339e-07
5.06101e-07
2.28104e-07
3.32879e-07
3.40893e-07
4.50821e-07
5.66686e-07
2.15241e-07
2.41789e-07
6.82264e-07
6.94742e-07
4.25942e-07
2.4681e-07
1.63381e-07
4.63254e-07
7.49357e-07
3.16573e-07
2.8318e-07
1.84681e-07
4.48242e-07
1.2029e-06
4.41748e-07
2.72238e-07
3.37216e-07
5.06954e-07
1.13247e-06
5.18268e-07
3.39837e-07
4.1203e-07
1.66495e-07
8.32752e-07
8.86842e-07
1.4579e-07
1.71717e-07
8.33935e-07
5.37987e-07
3.4782e-07
2.85596e-07
4.01203e-07
5.7318e-07
9.61516e-07
6.26274e-07
3.25173e-07
4.66264e-07
4.52432e-07
7.09634e-07
6.60384e-07
3.04311e-07
3.82451e-07
8.54401e-07
9.06625e-07
6.39719e-07
3.40185e-07
2.33623e-07
6.78424e-07
9.48518e-07
4.75792e-07
4.00571e-07
2.63157e-07
6.87943e-07
1.50098e-06
5.59472e-07
3.89204e-07
4.29348e-07
7.15846e-07
1.49362e-06
6.66533e-07
4.6276e-07
4.46912e-07
2.72563e-07
1.24802e-06
9.48358e-07
1.98031e-07
2.81915e-07
9.69694e-07
6.69326e-07
5.16362e-07
3.95682e-07
5.26577e-07
7.61055e-07
1.28528e-06
7.21409e-07
4.58242e-07
6.11279e-07
5.9466e-07
1.01877e-06
7.75485e-07
4.33765e-07
5.5013e-07
1.05442e-06
1.18656e-06
8.84976e-07
4.34787e-07
3.27833e-07
9.37915e-07
1.17212e-06
6.7737e-07
5.44619e-07
3.67281e-07
1.00225e-06
1.76503e-06
7.34689e-07
5.38594e-07
5.37218e-07
1.02117e-06
1.87646e-06
8.18405e-07
6.14785e-07
4.93574e-07
4.64439e-07
1.67434e-06
1.05337e-06
2.8309e-07
4.03073e-07
1.15895e-06
8.92381e-07
7.32574e-07
5.15287e-07
6.57007e-07
1.01099e-06
1.61722e-06
8.42863e-07
6.17409e-07
7.67666e-07
8.32784e-07
1.32895e-06
8.85068e-07
6.10781e-07
7.60658e-07
1.34437e-06
1.53243e-06
1.1532e-06
5.44578e-07
4.42669e-07
1.23311e-06
1.43496e-06
9.24652e-07
7.27825e-07
5.02025e-07
1.39742e-06
2.0516e-06
9.58729e-07
7.38441e-07
6.53283e-07
1.41962e-06
2.30118e-06
1.00265e-06
7.65685e-07
5.34326e-07
7.72821e-07
2.1876e-06
1.25123e-06
4.21051e-07
5.37883e-07
1.48379e-06
1.18482e-06
1.00335e-06
6.76206e-07
7.84008e-07
1.31584e-06
1.90574e-06
1.00732e-06
8.10933e-07
9.07922e-07
1.15702e-06
1.68864e-06
9.91616e-07
7.7396e-07
9.80249e-07
1.70614e-06
1.94735e-06
1.44298e-06
6.86357e-07
5.88626e-07
1.57699e-06
1.73317e-06
1.20802e-06
9.70835e-07
6.80925e-07
1.85502e-06
2.39408e-06
1.31697e-06
9.85651e-07
8.19899e-07
1.94201e-06
2.72485e-06
1.28781e-06
9.46761e-07
6.0183e-07
1.24695e-06
2.68403e-06
1.75761e-06
6.6626e-07
6.50542e-07
1.9625e-06
1.56322e-06
1.38862e-06
8.45217e-07
9.17867e-07
1.7149e-06
2.17306e-06
1.14739e-06
1.01499e-06
1.10037e-06
1.5335e-06
2.00259e-06
1.21063e-06
9.78028e-07
1.19312e-06
2.0494e-06
2.49068e-06
1.80166e-06
7.7539e-07
7.38826e-07
2.043e-06
2.18233e-06
1.53652e-06
1.2972e-06
8.95877e-07
2.45273e-06
2.94793e-06
1.93019e-06
1.29442e-06
9.96617e-07
2.58176e-06
3.45681e-06
1.93654e-06
1.21932e-06
7.50255e-07
1.99788e-06
3.17238e-06
2.52544e-06
1.13099e-06
8.62268e-07
2.70784e-06
2.00928e-06
2.0778e-06
1.08127e-06
1.06607e-06
2.16304e-06
2.55881e-06
1.43751e-06
1.08136e-06
1.37482e-06
2.05497e-06
2.43534e-06
1.52188e-06
1.06464e-06
1.43334e-06
2.41045e-06
3.42388e-06
2.61868e-06
8.60127e-07
8.6667e-07
2.5489e-06
2.90608e-06
2.13006e-06
1.95338e-06
1.21351e-06
3.26377e-06
3.95605e-06
3.45303e-06
1.96164e-06
1.25858e-06
3.56502e-06
4.47031e-06
3.60325e-06
1.96134e-06
1.37581e-06
3.16944e-06
4.17826e-06
4.15468e-06
1.85424e-06
1.299e-06
3.92904e-06
2.58884e-06
3.22745e-06
1.49814e-06
1.39116e-06
2.84788e-06
3.06359e-06
2.36169e-06
1.54807e-06
1.92506e-06
2.57181e-06
2.78538e-06
2.33085e-06
1.3848e-06
1.59786e-06
2.67944e-06
4.28034e-06
4.39991e-06
1.62617e-06
1.02952e-06
3.32379e-06
4.13153e-06
3.60616e-06
3.09598e-06
1.69322e-06
4.20827e-06
4.34964e-06
5.61091e-06
3.35002e-06
1.91023e-06
5.02e-06
4.1341e-06
4.99279e-06
2.96253e-06
2.75816e-06
4.63113e-06
5.05497e-06
6.08669e-06
2.83632e-06
2.15833e-06
5.04535e-06
3.00422e-06
3.65458e-06
2.29902e-06
2.10106e-06
3.6902e-06
2.31964e-06
2.60829e-06
2.89329e-06
3.09288e-06
3.11066e-06
1.31903e-06
2.0115e-06
2.22373e-06
1.63832e-06
3.47212e-06
3.25399e-06
5.15803e-06
3.00961e-06
1.45459e-06
4.397e-06
4.83504e-06
5.4467e-06
3.87843e-06
2.213e-06
4.38376e-06
3.32177e-06
6.0532e-06
4.33667e-06
3.44682e-06
5.67447e-06
2.55163e-06
3.65232e-06
3.19945e-06
3.92296e-06
5.17543e-06
4.93378e-06
6.42777e-06
3.28529e-06
3.67373e-06
5.41639e-06
6.06213e-06
4.4473e-06
2.74419e-06
3.26893e-06
4.17629e-06
2.44857e-06
2.79302e-06
4.26091e-06
4.05689e-06
3.09702e-06
1.80501e-06
3.62414e-06
3.5e-06
2.31483e-06
4.2016e-06
2.4864e-06
2.31986e-06
2.74756e-06
2.04791e-06
5.03472e-06
3.26864e-06
4.90929e-06
3.6036e-06
2.85669e-06
3.56788e-06
5.62814e-06
4.34086e-06
3.67028e-06
5.39803e-06
4.66231e-06
5.31908e-06
2.56299e-06
2.73003e-06
4.21645e-06
4.11608e-06
5.59629e-06
6.06912e-06
4.13326e-06
6.69401e-06
4.30078e-06
9.18832e-06
7.03685e-06
4.59869e-06
4.99101e-06
3.05524e-06
3.9391e-06
5.42298e-06
6.50618e-06
4.68622e-06
2.59609e-06
3.13133e-06
6.46535e-06
6.00245e-06
3.69966e-06
4.04947e-06
4.26034e-06
5.54237e-06
1.32741e-06
2.73674e-06
3.86034e-06
3.4195e-06
3.43485e-06
4.20299e-06
4.19322e-06
2.91845e-06
8.22273e-06
5.56319e-06
3.16271e-06
6.9843e-06
3.31002e-06
7.85786e-06
5.1058e-06
2.96691e-06
3.64617e-06
2.8733e-06
8.38668e-06
7.41072e-06
5.85131e-06
8.48171e-06
4.65015e-06
9.34424e-06
8.73986e-06
7.50866e-06
5.44547e-06
2.49638e-06
7.27549e-06
6.46243e-06
9.02009e-06
4.38547e-06
1.59756e-06
9.35698e-06
6.92332e-06
7.13392e-06
5.35335e-06
3.51482e-06
4.17213e-06
8.22888e-06
3.54309e-06
4.06132e-06
1.66674e-06
5.50852e-06
5.92027e-06
5.12439e-06
4.95986e-06
4.62759e-06
9.50624e-06
7.54238e-06
4.48033e-06
7.2378e-06
5.27446e-06
9.55622e-06
7.16807e-06
2.91744e-06
3.10077e-06
3.48504e-06
1.06443e-05
8.75872e-06
6.74972e-06
5.98455e-06
8.82478e-06
8.17436e-06
1.20831e-05
8.63578e-06
3.45865e-06
4.89115e-06
1.03713e-05
1.2536e-05
1.08798e-05
3.06482e-06
2.48749e-06
1.43552e-05
1.05738e-05
9.10903e-06
6.31696e-06
4.60898e-06
6.78732e-06
7.89527e-06
6.29202e-06
4.79015e-06
3.86384e-06
8.03388e-06
9.06942e-06
5.40603e-06
3.35219e-06
5.57977e-06
1.02095e-05
1.08589e-05
6.18285e-06
5.49176e-06
6.9512e-06
1.03377e-05
9.13338e-06
2.47347e-06
2.88267e-06
5.19672e-06
1.12043e-05
9.9642e-06
6.20786e-06
4.72882e-06
7.86733e-06
1.22317e-05
1.45294e-05
7.6872e-06
3.55448e-06
5.45117e-06
1.27465e-05
1.66053e-05
1.00823e-05
3.56042e-06
4.61145e-06
1.30159e-05
1.34481e-05
1.18201e-05
6.44201e-06
4.5271e-06
1.03446e-05
1.11178e-05
9.23455e-06
3.33807e-06
5.33388e-06
9.89119e-06
1.00746e-05
6.17131e-06
3.76647e-06
6.23898e-06
1.04583e-05
1.31575e-05
6.49738e-06
5.054e-06
7.96047e-06
1.01152e-05
8.59774e-06
4.85609e-06
4.08263e-06
5.23317e-06
1.11031e-05
1.08501e-05
5.53813e-06
7.00919e-06
7.17338e-06
1.58189e-05
1.44027e-05
7.2193e-06
6.15697e-06
6.48124e-06
1.42866e-05
1.57785e-05
7.5796e-06
4.36432e-06
6.46891e-06
8.87326e-06
1.42771e-05
1.15488e-05
7.22367e-06
3.72961e-06
9.94584e-06
1.05904e-05
9.8594e-06
4.15809e-06
6.8757e-06
9.83887e-06
8.75179e-06
9.01912e-06
8.40381e-06
9.16119e-06
1.16056e-05
1.20058e-05
7.19221e-06
6.40314e-06
9.27042e-06
1.0035e-05
8.08714e-06
9.78832e-06
5.79801e-06
4.88049e-06
1.20684e-05
1.01037e-05
5.72083e-06
4.09838e-06
8.19605e-06
1.53108e-05
1.13374e-05
7.74826e-06
8.0535e-06
8.9055e-06
1.28159e-05
9.1043e-06
7.57305e-06
8.08931e-06
8.87175e-06
7.80187e-06
1.0984e-05
9.41082e-06
7.99023e-06
6.90636e-06
8.62172e-06
1.17741e-05
1.19518e-05
7.48337e-06
8.67889e-06
1.11417e-05
8.94957e-06
9.11387e-06
6.60737e-06
1.34423e-05
1.7801e-05
1.11822e-05
7.01432e-06
3.80654e-06
7.53415e-06
1.62277e-05
1.29746e-05
1.06224e-05
5.49268e-06
1.07483e-05
1.87427e-05
1.07462e-05
4.35997e-06
7.11086e-06
1.27053e-05
1.717e-05
8.72165e-06
6.41131e-06
7.49895e-06
1.02831e-05
1.1236e-05
3.55658e-06
6.85224e-06
1.07308e-05
1.33536e-05
1.02512e-05
7.22403e-06
7.07918e-06
8.22719e-06
1.09987e-05
1.69505e-05
1.57132e-05
9.71649e-06
7.00404e-06
1.11301e-05
2.22189e-05
1.1982e-05
3.40342e-06
8.30981e-06
2.36799e-05
2.72085e-05
1.17158e-05
5.24514e-06
6.72883e-06
1.4507e-05
2.88277e-05
1.65838e-05
7.34981e-06
1.10078e-05
2.09967e-05
2.89543e-05
1.35392e-05
6.30578e-06
1.31838e-05
2.21143e-05
2.18924e-05
7.76216e-06
6.17068e-06
1.11193e-05
1.98287e-05
1.61476e-05
4.22195e-06
3.7481e-06
1.1343e-05
2.57396e-05
1.68698e-05
5.83749e-06
2.13646e-06
8.97532e-06
2.01911e-05
2.7523e-05
1.47433e-05
2.51015e-06
6.63622e-06
2.28774e-05
3.03325e-05
1.24637e-05
8.14909e-06
1.85632e-05
3.31656e-05
2.94092e-05
1.29649e-05
9.86828e-06
1.29442e-05
2.90717e-05
3.44807e-05
1.54252e-05
1.31227e-05
1.97991e-05
2.99549e-05
3.14535e-05
1.51273e-05
1.22626e-05
2.17368e-05
2.994e-05
2.32973e-05
9.2205e-06
1.09072e-05
2.14776e-05
3.20218e-05
2.09718e-05
7.33968e-06
7.77463e-06
2.48254e-05
3.36389e-05
1.88128e-05
7.06279e-06
3.59871e-06
1.03639e-05
3.58236e-05
2.99037e-05
1.24819e-05
7.35498e-06
1.64674e-05
3.39207e-05
2.95946e-05
1.14007e-05
1.96653e-05
2.83662e-05
3.45052e-05
2.60986e-05
1.63356e-05
1.71726e-05
2.39179e-05
3.79223e-05
3.16958e-05
1.77306e-05
2.24717e-05
2.70799e-05
3.19868e-05
2.85134e-05
1.82124e-05
1.95314e-05
2.80424e-05
2.95743e-05
2.25427e-05
1.42568e-05
1.97531e-05
3.03936e-05
3.36542e-05
2.09526e-05
1.29549e-05
1.97084e-05