/*--------------------------------*- C++ -*----------------------------------*\
  =========                 |
  \\      /  F ield         | OpenFOAM: The Open Source CFD Toolbox
   \\    /   O peration     | Website:  https://openfoam.org
    \\  /    A nd           | Version:  10
     \\/     M anipulation  |
\*---------------------------------------------------------------------------*/
FoamFile
{
    format      ascii;
    class       surfaceScalarField;
    location    "2";
    object      phi;
}
// * * * * * * * * * * * * * * * * * * * * * * * * * * * * * * * * * * * * * //

dimensions      [0 3 -1 0 0 0 0];

internalField   nonuniform List<scalar> 
74080
(
0.000630024
-7.80633e-08
-6.4934e-09
0.000630022
2.82481e-08
1.11942e-08
0.000629983
7.32975e-08
2.97415e-08
0.000629947
6.52702e-08
3.11033e-08
0.00062992
5.13356e-08
2.60631e-08
0.000629903
4.08173e-08
2.1518e-08
0.000629893
3.8461e-08
1.76906e-08
0.000629884
3.76923e-08
1.77964e-08
0.000629877
3.76748e-08
1.71685e-08
0.000629873
2.6881e-08
1.79225e-08
0.000629867
2.48268e-08
1.65346e-08
0.000629868
8.26611e-09
1.60735e-08
0.000629868
3.59317e-09
1.45336e-08
0.000629873
-7.8122e-09
1.40332e-08
0.000629879
-1.44669e-08
1.42765e-08
0.000629884
-1.68169e-08
1.41498e-08
0.000629893
-2.3693e-08
1.44659e-08
0.000629899
-2.04011e-08
1.23526e-08
0.000629907
-2.39425e-08
1.11065e-08
0.000629912
-1.93473e-08
6.54926e-09
0.000629916
-1.94036e-08
3.14553e-09
0.000629921
-1.59586e-08
-1.66357e-09
0.000629924
-1.06308e-08
-4.34118e-09
0.000629928
-6.1248e-09
-5.36891e-09
0.00062993
-1.02219e-09
-4.92826e-09
0.000629929
4.43062e-09
-8.18605e-10
0.000629928
4.4634e-09
3.75267e-09
0.000629924
1.27282e-08
1.09279e-08
0.00062992
1.04729e-08
1.72368e-08
0.000629916
8.28629e-09
2.42919e-08
0.000629911
4.17214e-09
2.92401e-08
0.000629911
-7.11263e-09
3.3986e-08
0.00062991
-1.14603e-08
3.45305e-08
0.000629905
-8.9774e-09
3.85151e-08
0.000629919
-3.43637e-08
2.82026e-08
0.000629888
2.49682e-08
4.81771e-08
0.000629933
-6.83569e-08
6.42389e-09
0.000629901
1.53212e-08
4.53726e-08
0.000629858
7.64589e-08
4.20863e-08
-1.41455e-07
-4.45845e-08
0.000579144
-7.39231e-09
2.86692e-08
0.000579161
2.16893e-08
-9.72886e-10
0.000579196
3.7582e-08
1.46672e-10
0.000579211
4.0661e-08
1.02059e-08
0.000579208
4.36472e-08
1.33491e-08
0.000579201
4.09139e-08
1.46383e-08
0.000579192
4.49557e-08
1.18795e-08
0.000579183
4.76039e-08
1.4526e-08
0.000579172
5.25584e-08
1.47574e-08
0.000579168
3.42874e-08
1.71474e-08
0.00057916
3.70092e-08
1.62778e-08
0.000579163
8.33917e-09
1.65305e-08
0.000579162
8.8195e-09
1.3875e-08
0.000579167
-8.8148e-09
1.37507e-08
0.000579174
-1.79355e-08
1.49389e-08
0.000579179
-1.92569e-08
1.65441e-08
0.00057919
-3.22844e-08
1.78263e-08
0.000579194
-2.20659e-08
1.59436e-08
0.000579203
-2.89356e-08
1.58341e-08
0.000579207
-1.84584e-08
1.04009e-08
0.000579212
-2.06009e-08
7.81564e-09
0.000579218
-1.6978e-08
2.01529e-09
0.000579221
-8.97417e-09
-8.36907e-10
0.000579225
-4.57789e-09
-2.23678e-09
0.000579226
1.73008e-09
-3.775e-09
0.000579225
7.37284e-09
1.26478e-09
0.000579225
4.98406e-09
4.41218e-09
0.000579217
2.11988e-08
1.17786e-08
0.000579212
1.83026e-08
1.66396e-08
0.000579206
1.4655e-08
2.39727e-08
0.0005792
1.08019e-08
2.87598e-08
0.000579202
-1.16578e-08
3.42101e-08
0.000579199
-8.40238e-09
3.47401e-08
0.000579206
-2.04147e-08
3.67068e-08
0.000579197
-2.02581e-08
3.4842e-08
0.000579218
-5.62625e-09
3.4512e-08
0.000579192
-2.78549e-08
2.56787e-08
0.000579194
-3.50542e-10
3.98035e-08
0.000579267
1.5929e-08
4.50689e-10
-3.456e-08
-6.32953e-09
0.000527315
3.96631e-09
4.07409e-08
0.000527324
2.71524e-08
-7.36568e-09
0.000527343
3.41036e-08
-1.56117e-08
0.000527349
4.05273e-08
-3.16174e-09
0.000527346
4.63909e-08
1.5613e-09
0.000527342
4.10222e-08
8.55454e-09
0.000527335
5.0335e-08
6.03942e-09
0.000527325
5.77673e-08
1.30352e-08
0.000527309
7.32612e-08
1.32366e-08
0.000527307
3.91344e-08
1.85215e-08
0.000527294
5.16292e-08
1.68069e-08
0.0005273
2.62461e-09
1.81327e-08
0.000527298
1.65409e-08
1.28687e-08
0.000527304
-8.86479e-09
1.34479e-08
0.000527313
-2.15259e-08
1.58872e-08
0.000527317
-2.21722e-08
2.04105e-08
0.000527331
-4.53992e-08
2.36305e-08
0.000527334
-2.07747e-08
2.0425e-08
0.000527344
-3.27576e-08
2.24746e-08
0.000527347
-1.17343e-08
1.42805e-08
0.000527353
-2.04939e-08
1.30034e-08
0.00052736
-1.59021e-08
4.448e-09
0.000527363
-3.45114e-09
9.82792e-10
0.000527366
2.21814e-09
-6.79583e-10
0.000527367
8.11717e-09
-5.24416e-09
0.000527365
1.1282e-08
2.75383e-09
0.000527368
3.23239e-09
4.60314e-09
0.000527357
3.484e-08
1.4325e-08
0.000527349
3.24507e-08
1.70868e-08
0.000527342
2.50332e-08
2.68071e-08
0.000527332
2.05531e-08
3.22172e-08
0.000527339
-2.09821e-08
3.91187e-08
0.000527335
-3.94034e-09
3.82963e-08
0.000527346
-2.97006e-08
3.66035e-08
0.000527338
-1.45827e-08
4.24652e-08
0.000527352
-1.45417e-08
2.95354e-08
0.000527343
-2.02361e-08
3.76262e-08
0.000527337
-2.11656e-09
3.60808e-08
0.000527377
1.62542e-08
-1.18487e-08
-5.27455e-09
1.4997e-08
0.000479981
1.20014e-08
3.70713e-08
0.000479987
3.57024e-08
-1.19303e-08
0.000480006
3.25114e-08
-2.44033e-08
0.00048001
4.4777e-08
-9.00791e-09
0.000480006
5.09557e-08
-5.63526e-09
0.000480005
3.7039e-08
6.10469e-09
0.000480001
5.47315e-08
2.7892e-10
0.000479987
6.99064e-08
1.37076e-08
0.000479964
1.06265e-07
1.20269e-08
0.000479963
4.03983e-08
2.15645e-08
0.000479946
7.00097e-08
1.72731e-08
0.00047996
-1.23914e-08
2.02558e-08
0.000479954
2.84663e-08
1.08614e-08
0.000479959
-6.58084e-09
1.27576e-08
0.00047997
-2.53803e-08
1.69703e-08
0.000479975
-2.63111e-08
2.51904e-08
0.000479994
-6.64696e-08
3.13719e-08
0.000479995
-1.46562e-08
2.58354e-08
0.000480006
-3.3483e-08
3.13141e-08
0.000480005
4.70528e-09
1.84881e-08
0.000480013
-2.02732e-08
1.98267e-08
0.000480023
-1.36835e-08
6.35272e-09
0.000480025
7.55542e-09
2.15279e-09
0.000480025
1.75727e-08
-2.55063e-10
0.000480025
1.95489e-08
-9.77154e-09
0.000480025
1.42517e-08
3.54571e-09
0.000480034
-3.77349e-09
3.84009e-09
0.000480017
5.56785e-08
1.79825e-08
0.000480004
5.75265e-08
1.82094e-08
0.000479994
4.14009e-08
3.17959e-08
0.000479982
3.37485e-08
3.82655e-08
0.000479996
-3.98807e-08
4.80721e-08
0.00047999
5.57426e-09
4.25117e-08
0.000480006
-4.09546e-08
4.00551e-08
0.000479997
-4.3182e-09
4.77539e-08
0.000480012
-2.70064e-08
3.35619e-08
0.000480006
-1.63653e-08
4.33289e-08
0.00048
2.16747e-10
3.46024e-08
0.000480037
2.45974e-08
-1.02362e-08
2.39902e-08
1.39585e-08
0.000436863
1.14795e-08
3.20179e-08
0.000436869
4.54174e-08
-1.59869e-08
0.000436887
3.47999e-08
-3.37281e-08
0.000436883
5.8805e-08
-1.33586e-08
0.000436879
5.72899e-08
-1.28129e-08
0.000436885
2.58316e-08
5.74403e-09
0.000436885
5.30081e-08
-4.32641e-09
0.000436868
8.62827e-08
1.56366e-08
0.000436831
1.58732e-07
1.16766e-08
0.000436835
3.58465e-08
2.61706e-08
0.000436813
9.26655e-08
1.69197e-08
0.000436839
-4.20236e-08
2.29711e-08
0.000436827
4.69478e-08
7.21976e-09
0.000436829
4.44081e-10
1.12205e-08
0.000436842
-3.06048e-08
1.85499e-08
0.000436847
-3.3372e-08
3.0843e-08
0.000436877
-1.00416e-07
4.13386e-08
0.000436875
-4.25837e-10
3.16731e-08
0.000436884
-2.76357e-08
4.33701e-08
0.000436878
3.5443e-08
2.30786e-08
0.000436888
-2.1752e-08
2.87953e-08
0.000436903
-1.19838e-08
7.18726e-09
0.000436904
2.6926e-08
3.28657e-09
0.000436897
4.81793e-08
-7.64347e-10
0.000436896
3.74596e-08
-1.81392e-08
0.0004369
1.33165e-08
3.29607e-09
0.000436919
-1.9592e-08
1.04273e-09
0.000436895
8.75388e-08
2.28439e-08
0.000436873
1.01048e-07
1.9293e-08
0.00043686
6.58139e-08
3.90935e-08
0.000436845
4.99155e-08
4.64627e-08
0.000436871
-7.44326e-08
6.08819e-08
0.000436863
2.27024e-08
4.76188e-08
0.000436881
-5.25689e-08
4.46208e-08
0.00043687
1.08418e-08
5.43456e-08
0.000436888
-4.41729e-08
3.89491e-08
0.000436888
-2.03604e-08
4.964e-08
0.000436883
5.48764e-09
3.27077e-08
0.000436907
4.97357e-08
-3.59831e-09
4.91523e-08
1.06572e-08
0.000397588
6.61103e-09
2.46568e-08
0.000397596
5.43994e-08
-2.02891e-08
0.000397614
4.02902e-08
-4.56341e-08
0.0003976
8.56727e-08
-1.63045e-08
0.000397597
6.25614e-08
-1.91686e-08
0.000397612
2.31609e-09
8.18267e-09
0.000397622
4.07151e-08
-9.78097e-09
0.000397598
1.11268e-07
1.95604e-08
0.000397539
2.40753e-07
1.17456e-08
0.000397551
2.09155e-08
3.24807e-08
0.000397525
1.18811e-07
1.502e-08
0.00039757
-9.2346e-08
2.5783e-08
0.000397548
7.49068e-08
1.55603e-09
0.000397542
1.48354e-08
8.65455e-09
0.000397558
-4.05953e-08
2.12725e-08
0.000397566
-4.673e-08
3.80098e-08
0.000397611
-1.53544e-07
5.34622e-08
0.000397604
2.50281e-08
3.8914e-08
0.000397608
-9.64643e-09
5.95181e-08
0.000397593
8.55061e-08
2.89134e-08
0.000397608
-2.87443e-08
4e-08
0.000397633
-1.29588e-08
6.71573e-09
0.000397631
5.9431e-08
5.32164e-09
0.000397611
1.0421e-07
-2.28647e-09
0.000397609
6.28169e-08
-3.12959e-08
0.000397621
4.29631e-09
8.98281e-10
0.000397657
-5.04547e-08
-2.20263e-09
0.000397624
1.36629e-07
2.8554e-08
0.000397585
1.73637e-07
2.04882e-08
0.000397568
9.86493e-08
4.99076e-08
0.000397552
6.65153e-08
5.68768e-08
0.000397598
-1.34648e-07
7.85149e-08
0.000397583
5.2169e-08
5.33368e-08
0.000397601
-6.36798e-08
4.98203e-08
0.000397586
3.25494e-08
6.27868e-08
0.00039761
-7.3529e-08
4.52727e-08
0.000397619
-3.25362e-08
5.57829e-08
0.000397614
1.44259e-08
3.08871e-08
0.000397624
9.41782e-08
4.23997e-09
7.66843e-08
5.59762e-09
0.000361818
-4.75115e-09
1.40257e-08
0.000361834
6.1356e-08
-2.45435e-08
0.000361849
5.44868e-08
-6.06949e-08
0.000361818
1.32656e-07
-1.71181e-08
0.000361818
6.06131e-08
-2.29885e-08
0.000361846
-3.93962e-08
1.37127e-08
0.000361875
1.09655e-08
-1.63217e-08
0.000361839
1.51839e-07
2.64046e-08
0.000361748
3.64853e-07
1.19121e-08
0.000361771
-1.43259e-08
4.15377e-08
0.000361743
1.45508e-07
1.09563e-08
0.000361816
-1.70279e-07
2.88861e-08
0.00036178
1.21492e-07
-1.06671e-08
0.000361759
3.92753e-08
4.1674e-09
0.000361778
-6.27173e-08
2.61717e-08
0.000361791
-7.17771e-08
4.6607e-08
0.00036186
-2.33402e-07
6.81779e-08
0.000361846
6.74564e-08
4.76233e-08
0.000361836
2.89617e-08
8.086e-08
0.00036181
1.56733e-07
3.67706e-08
0.000361835
-4.74896e-08
5.44965e-08
0.000361878
-1.9469e-08
3.80765e-09
0.000361869
1.13273e-07
9.54566e-09
0.000361825
2.00465e-07
-5.06474e-09
0.000361823
9.32763e-08
-5.00003e-08
0.000361849
-2.04008e-08
-3.19115e-09
0.000361913
-1.04302e-07
-5.82247e-09
0.000361866
2.09848e-07
3.82035e-08
0.000361799
2.89597e-07
2.1498e-08
0.000361776
1.36914e-07
6.59339e-08
0.000361764
7.78751e-08
6.9625e-08
0.000361839
-2.30911e-07
1.00881e-07
0.000361814
1.00886e-07
5.91186e-08
0.000361825
-7.09642e-08
5.47659e-08
0.000361805
5.68896e-08
7.48742e-08
0.00036184
-1.20834e-07
5.18056e-08
0.000361864
-5.69065e-08
6.09627e-08
0.000361856
3.00713e-08
2.9047e-08
0.000361844
1.70501e-07
1.31003e-08
1.00862e-07
7.17638e-11
0.000329245
-2.32808e-08
-2.92944e-09
0.000329276
6.34439e-08
-2.76547e-08
0.000329284
8.72233e-08
-7.89498e-08
0.000329226
2.11421e-07
-1.61778e-08
0.000329234
3.76134e-08
-2.06408e-08
0.00032928
-1.07923e-07
2.27929e-08
0.000329338
-4.19871e-08
-2.40938e-08
0.000329281
2.21274e-07
3.6363e-08
0.000329146
5.46451e-07
1.15999e-08
0.000329185
-8.80851e-08
5.49202e-08
0.00032916
1.69927e-07
2.28858e-09
0.000329268
-2.80308e-07
3.19221e-08
0.000329212
2.01047e-07
-2.74912e-08
0.000329167
8.482e-08
-7.30763e-09
0.000329194
-1.13e-07
3.57505e-08
0.000329216
-1.1616e-07
5.62267e-08
0.000329317
-3.46878e-07
8.51739e-08
0.000329292
1.35024e-07
5.93315e-08
0.000329257
1.00886e-07
1.07399e-07
0.00032922
2.45098e-07
4.90948e-08
0.00032926
-8.71434e-08
7.06468e-08
0.00032933
-3.37496e-08
-1.30516e-09
0.000329309
2.0168e-07
1.77619e-08
0.000329226
3.57267e-07
-1.00603e-08
0.000329229
1.19397e-07
-7.4362e-08
0.000329275
-7.64625e-08
-1.05463e-08
0.000329378
-1.88704e-07
-9.62123e-09
0.000329312
3.19144e-07
5.2899e-08
0.000329201
4.68e-07
2.22142e-08
0.000329174
1.70614e-07
8.89738e-08
0.000329173
7.50817e-08
8.43e-08
0.000329287
-3.7397e-07
1.29505e-07
0.000329247
1.79959e-07
6.54824e-08
0.000329241
-7.03312e-08
5.83095e-08
0.000329219
7.19893e-08
9.3195e-08
0.000329268
-1.93545e-07
5.80351e-08
0.000329314
-9.64252e-08
6.30832e-08
0.000329301
5.95604e-08
2.91225e-08
0.000329255
2.94055e-07
2.39507e-08
1.12794e-07
-7.18912e-09
0.000299586
-5.7067e-08
-2.24027e-08
0.000299641
5.87937e-08
-2.86269e-08
0.000299635
1.56876e-07
-9.94305e-08
0.000299539
3.39911e-07
-1.35096e-08
0.00029956
-3.36736e-08
-4.98381e-09
0.000299629
-2.13192e-07
3.40514e-08
0.000299731
-1.18481e-07
-3.32317e-08
0.000299641
3.41901e-07
4.99813e-08
0.000299445
8.03498e-07
9.85666e-09
0.000299512
-2.36151e-07
7.48774e-08
0.000299494
1.74161e-07
-7.30176e-09
0.000299648
-4.2417e-07
3.5029e-08
0.00029956
3.35177e-07
-4.88141e-08
0.000299481
1.69381e-07
-3.16802e-08
0.000299522
-2.19226e-07
5.40625e-08
0.000299557
-1.90207e-07
6.61432e-08
0.0002997
-4.97399e-07
1.03859e-07
0.00029966
2.40339e-07
7.6622e-08
0.000299583
2.25937e-07
1.37617e-07
0.000299539
3.31528e-07
6.93749e-08
0.000299601
-1.60288e-07
8.66133e-08
0.000299709
-5.72009e-08
-6.22125e-09
0.000299668
3.45261e-07
3.32156e-08
0.000299527
6.01934e-07
-1.93907e-08
0.000299542
1.18105e-07
-1.0186e-07
0.000299619
-1.8207e-07
-2.35115e-08
0.000299773
-3.07758e-07
-1.20836e-08
0.000299679
4.84133e-07
7.53369e-08
0.000299506
7.32532e-07
2.23421e-08
0.00029948
1.78609e-07
1.22342e-07
0.000299497
4.54168e-08
9.9665e-08
0.000299662
-5.69441e-07
1.6425e-07
0.000299598
3.08177e-07
7.32428e-08
0.000299564
-5.47368e-08
5.86727e-08
0.000299546
5.0945e-08
1.22892e-07
0.000299612
-3.00052e-07
6.32332e-08
0.000299689
-1.52862e-07
6.20939e-08
0.000299666
1.18449e-07
3.36133e-08
0.000299569
4.85825e-07
3.69532e-08
8.61233e-08
-8.84813e-09
0.000272586
-1.14067e-07
-5.23043e-08
0.000272673
5.26618e-08
-2.63465e-08
0.000272642
2.92108e-07
-1.19676e-07
0.000272492
5.4067e-07
-1.07259e-08
0.000272542
-1.98024e-07
2.36835e-08
0.000272641
-3.67539e-07
4.58884e-08
0.000272796
-2.147e-07
-4.43971e-08
0.000272658
5.47727e-07
6.95126e-08
0.000272384
1.15858e-06
3.06551e-09
0.000272496
-5.09268e-07
1.0614e-07
0.00027249
1.38614e-07
-2.04647e-08
0.000272697
-5.94152e-07
3.95961e-08
0.000272564
5.60461e-07
-7.21507e-08
0.000272437
3.11156e-07
-7.03432e-08
0.000272508
-4.30181e-07
8.87506e-08
0.000272558
-3.05902e-07
7.394e-08
0.000272753
-6.81286e-07
1.24058e-07
0.000272694
4.04825e-07
1.0446e-07
0.000272552
4.30623e-07
1.69004e-07
0.000272511
3.70985e-07
1.0442e-07
0.000272602
-2.82835e-07
9.85121e-08
0.00027276
-8.32898e-08
-1.14647e-08
0.000272689
5.75246e-07
6.02601e-08
0.000272464
9.71e-07
-3.75822e-08
0.000272506
4.01117e-08
-1.27451e-07
0.000272624
-3.6401e-07
-4.48013e-08
0.000272842
-4.57529e-07
-1.14531e-08
0.000272708
7.35973e-07
1.09995e-07
0.00027245
1.11288e-06
2.03536e-08
0.000272435
1.13581e-07
1.71975e-07
0.000272482
-2.63038e-08
1.13038e-07
0.000272705
-8.13465e-07
2.05045e-07
0.000272608
5.13913e-07
8.58368e-08
0.00027253
-2.23381e-08
5.45575e-08
0.000272529
-6.07276e-08
1.72138e-07
0.000272616
-4.48301e-07
6.68581e-08
0.000272734
-2.23097e-07
5.80824e-08
0.000272692
2.33504e-07
4.8713e-08
0.000272525
7.71809e-07
5.07184e-08
-3.1933e-08
3.2324e-09
0.000248012
-2.08796e-07
-9.66482e-08
0.000248139
6.48739e-08
-1.93335e-08
0.000248068
5.50786e-07
-1.33685e-07
0.000247845
8.47651e-07
-1.63319e-08
0.000247948
-5.41254e-07
8.20805e-08
0.000248081
-5.91287e-07
5.42559e-08
0.000248298
-3.12853e-07
-5.83542e-08
0.000248094
8.89837e-07
9.8953e-08
0.00024772
1.64527e-06
-2.09608e-08
0.000247902
-1.00377e-06
1.57524e-07
0.00024792
3.34297e-08
-3.99232e-08
0.000248183
-7.6816e-07
4.87083e-08
0.000247987
9.33469e-07
-9.24196e-08
0.000247794
5.36557e-07
-1.33469e-07
0.000247919
-8.37855e-07
1.51315e-07
0.000247987
-4.96403e-07
7.51963e-08
0.000248241
-8.83809e-07
1.43068e-07
0.000248155
6.6162e-07
1.50369e-07
0.00024792
7.4984e-07
1.95114e-07
0.000247904
2.75387e-07
1.64361e-07
0.000248032
-4.70408e-07
9.8874e-08
0.000248248
-9.21005e-08
-1.49267e-08
0.000248134
9.36282e-07
1.06556e-07
0.000247796
1.51088e-06
-7.20371e-08
0.000247888
-1.99113e-07
-1.42276e-07
0.00024806
-6.59479e-07
-7.79053e-08
0.000248349
-6.17658e-07
-5.01053e-09
0.000248163
1.1214e-06
1.62301e-07
0.000247794
1.64143e-06
1.39661e-08
0.000247808
-1.02818e-07
2.43953e-07
0.000247896
-1.59454e-07
1.18813e-07
0.000248181
-1.08508e-06
2.51852e-07
0.000248039
8.43793e-07
1.0823e-07
0.000247901
4.46274e-08
4.36005e-08
0.000247937
-3.58409e-07
2.5337e-07
0.000248046
-6.66485e-07
6.69669e-08
0.000248212
-2.90712e-07
4.94135e-08
0.000248143
4.4704e-07
8.3509e-08
0.00024788
1.18528e-06
6.31829e-08
-3.20713e-07
2.82999e-08
0.000225654
-3.6644e-07
-1.6153e-07
0.000225824
1.36882e-07
-6.14955e-09
0.000225697
1.0147e-06
-1.32213e-07
0.000225376
1.31005e-06
-4.3996e-08
0.000225567
-1.20807e-06
1.9446e-07
0.000225739
-9.06878e-07
5.27673e-08
0.000226023
-3.63943e-07
-7.76777e-08
0.000225731
1.44111e-06
1.44394e-07
0.000225233
2.31345e-06
-8.13531e-08
0.000225522
-1.87302e-06
2.40861e-07
0.000225573
-1.86043e-07
-7.0188e-08
0.00022589
-9.00859e-07
6.46995e-08
0.00022561
1.53335e-06
-1.01022e-07
0.000225329
8.83553e-07
-2.34449e-07
0.000225544
-1.59703e-06
2.63858e-07
0.000225634
-8.01203e-07
6.33312e-08
0.000225948
-1.06572e-06
1.59245e-07
0.000225825
1.06494e-06
2.27821e-07
0.000225464
1.22661e-06
2.08548e-07
0.000225511
-9.84538e-08
2.67321e-07
0.000225679
-7.42478e-07
7.8753e-08
0.000225958
-4.56568e-08
-1.48664e-08
0.000225786
1.49321e-06
1.80509e-07
0.000225297
2.28303e-06
-1.35568e-07
0.00022548
-7.54891e-07
-1.27662e-07
0.000225717
-1.11767e-06
-1.27437e-07
0.000226079
-7.48731e-07
1.70216e-08
0.000225823
1.71189e-06
2.44603e-07
0.000225312
2.36575e-06
-8.26998e-09
0.000225391
-5.96085e-07
3.52227e-07
0.00022553
-3.7197e-07
1.09205e-07
0.000225874
-1.33701e-06
3.02616e-07
0.000225672
1.36579e-06
1.50358e-07
0.000225453
1.6052e-07
2.31897e-08
0.000225563
-9.78054e-07
3.89085e-07
0.000225694
-9.83313e-07
6.11037e-08
0.000225909
-3.17581e-07
3.56661e-08
0.000225798
8.23818e-07
1.50532e-07
0.000225414
1.765e-06
6.94044e-08
-9.22889e-07
8.96034e-08
0.000205326
-6.29427e-07
-2.53616e-07
0.000205532
3.31797e-07
2.73918e-08
0.000205325
1.79213e-06
-9.94277e-08
0.000204882
1.99044e-06
-1.08622e-07
0.000205209
-2.4275e-06
3.91142e-07
0.000205427
-1.3367e-06
2.61204e-08
0.000205771
-2.83785e-07
-1.03671e-07
0.000205369
2.29989e-06
2.15773e-07
0.000204716
3.21522e-06
-1.89539e-07
0.000205167
-3.34728e-06
3.72393e-07
0.000205262
-5.83235e-07
-1.15036e-07
0.000205623
-9.17021e-07
9.28049e-08
0.000205231
2.47112e-06
-8.31573e-08
0.00020484
1.40139e-06
-3.92831e-07
0.000205192
-2.9508e-06
4.58909e-07
0.00020531
-1.26901e-06
2.30426e-08
0.000205677
-1.15362e-06
1.68059e-07
0.000205508
1.68852e-06
3.51769e-07
0.000204979
1.91762e-06
1.95534e-07
0.000205144
-9.58409e-07
4.37434e-07
0.000205353
-1.14265e-06
1.4244e-08
0.000205694
1.22801e-07
-6.97061e-09
0.000205445
2.33268e-06
2.96835e-07
0.000204764
3.3661e-06
-2.4492e-07
0.000205093
-1.861e-06
-5.87815e-08
0.000205407
-1.80287e-06
-1.98733e-07
0.000205833
-7.79625e-07
6.37783e-08
0.000205488
2.60259e-06
3.69279e-07
0.000204804
3.35535e-06
-7.26033e-08
0.000204996
-1.55344e-06
5.18669e-07
0.000205196
-6.95817e-07
7.05301e-08
0.000205585
-1.48936e-06
3.57829e-07
0.000205305
2.17108e-06
2.27219e-07
0.000204982
3.52684e-07
-2.82629e-08
0.000205216
-2.15823e-06
6.11568e-07
0.000205371
-1.43757e-06
4.31251e-08
0.000205626
-2.35668e-07
1.65148e-08
0.000205459
1.45365e-06
2.67698e-07
0.000204922
2.55758e-06
6.21651e-08
-2.05329e-06
2.07712e-07
0.000186859
-1.05634e-06
-3.83601e-07
0.000187083
7.56742e-07
7.9735e-08
0.000186772
3.02297e-06
-1.26692e-08
0.000186174
2.96922e-06
-2.28495e-07
0.000186709
-4.5129e-06
6.92294e-07
0.000186972
-1.92456e-06
-2.16155e-08
0.000187362
5.8428e-08
-1.39072e-07
0.000186824
3.59286e-06
3.27954e-07
0.000185981
4.42778e-06
-3.69711e-07
0.000186668
-5.74191e-06
5.7427e-07
0.000186819
-1.24156e-06
-1.83665e-07
0.000187201
-6.98659e-07
1.35507e-07
0.000186666
3.88436e-06
-1.69016e-08
0.000186135
2.16188e-06
-6.31477e-07
0.000186697
-5.23863e-06
7.62415e-07
0.000186846
-1.98581e-06
-3.33044e-08
0.000187244
-1.02585e-06
1.64527e-07
0.000187013
2.63597e-06
5.46359e-07
0.000186279
2.87525e-06
1.46637e-07
0.000186636
-2.65677e-06
7.21111e-07
0.000186886
-1.74288e-06
-5.97307e-08
0.000187274
5.0488e-07
2.38077e-08
0.000186929
3.56781e-06
4.68569e-07
0.000186008
4.85755e-06
-4.25672e-07
0.000186563
-3.84637e-06
8.48995e-08
0.000186959
-2.79375e-06
-2.98026e-07
0.000187433
-5.93815e-07
1.31306e-07
0.000186974
3.92455e-06
5.52668e-07
0.000186083
4.6813e-06
-1.82755e-07
0.000186457
-3.26902e-06
7.66245e-07
0.000186721
-1.18577e-06
-1.47129e-08
0.000187132
-1.41123e-06
4.07075e-07
0.000186751
3.38103e-06
3.59747e-07
0.000186303
6.836e-07
-1.52662e-07
0.000186727
-4.23671e-06
9.42072e-07
0.000186908
-2.08445e-06
6.00811e-09
0.000187182
5.75614e-08
3.70292e-10
0.000186939
2.45507e-06
4.54133e-07
0.00018622
3.61138e-06
3.38659e-08
-4.03543e-06
4.20591e-07
0.000170102
-1.72449e-06
-5.61545e-07
0.000170311
1.57502e-06
1.43155e-07
0.000169868
4.91707e-06
1.14554e-07
0.000169079
4.34439e-06
-4.25718e-07
0.000169916
-7.87406e-06
1.12913e-06
0.000170221
-2.73944e-06
-8.66155e-08
0.000170627
8.43803e-07
-1.83697e-07
0.000169928
5.47022e-06
5.00632e-07
0.000168858
6.08048e-06
-6.4876e-07
0.000169873
-9.46072e-06
8.67768e-07
0.00017009
-2.2637e-06
-2.8617e-07
0.000170459
-8.10528e-08
1.92633e-07
0.000169749
5.9711e-06
9.35293e-08
0.000169041
3.25682e-06
-9.79975e-07
0.000169905
-8.87673e-06
1.20012e-06
0.000170091
-3.06716e-06
-1.13342e-07
0.000170485
-5.12533e-07
1.4197e-07
0.000170175
4.03992e-06
8.29121e-07
0.000169193
4.1562e-06
5.03545e-08
0.000169836
-5.63853e-06
1.1347e-06
0.000170123
-2.61042e-06
-1.78253e-07
0.000170532
1.24026e-06
8.11196e-08
0.000170069
5.33306e-06
7.16066e-07
0.000168859
6.8614e-06
-6.96676e-07
0.000169741
-7.15108e-06
3.53564e-07
0.00017022
-4.1848e-06
-4.32075e-07
0.000170708
-1.94179e-08
2.21315e-07
0.000170111
5.83568e-06
8.13082e-07
0.00016898
6.4325e-06
-3.62831e-07
0.000169623
-6.12234e-06
1.11089e-06
0.000169952
-1.93296e-06
-1.08996e-07
0.000170345
-9.21624e-07
4.54882e-07
0.000169844
5.14522e-06
5.66886e-07
0.000169237
1.20798e-06
-3.37233e-07
0.000169946
-7.635e-06
1.4137e-06
0.000170153
-3.01175e-06
-3.35607e-08
0.000170408
7.13144e-07
-8.46304e-09
0.000170071
3.97841e-06
7.3398e-07
0.000169137
5.00852e-06
-5.46599e-08
-7.2788e-06
7.50964e-07
0.000154917
-2.72859e-06
-8.00564e-07
0.000155063
3.00723e-06
2.12084e-07
0.00015446
7.70877e-06
3.15873e-07
0.000153446
6.21854e-06
-7.19091e-07
0.000154695
-1.30042e-05
1.73464e-06
0.000155037
-3.83886e-06
-2.04442e-07
0.00015541
2.31719e-06
-2.43545e-07
0.00015453
8.10522e-06
7.52822e-07
0.000153193
8.29844e-06
-1.04707e-06
0.000154648
-1.49912e-05
1.27441e-06
0.000154935
-3.7718e-06
-4.36386e-07
0.000155246
1.14907e-06
2.62777e-07
0.000154325
8.95074e-06
2.76119e-07
0.000153401
4.80091e-06
-1.45804e-06
0.000154683
-1.43842e-05
1.80131e-06
0.000154907
-4.62685e-06
-2.48046e-07
0.000155242
6.19625e-07
9.49184e-08
0.000154831
6.05361e-06
1.23605e-06
0.000153572
5.87442e-06
-1.76038e-07
0.000154613
-1.04336e-05
1.70427e-06
0.000154928
-3.8233e-06
-3.51645e-07
0.000155316
2.51356e-06
1.64299e-07
0.000154713
7.79404e-06
1.04939e-06
0.000153166
9.50614e-06
-1.08267e-06
0.000154499
-1.23075e-05
7.65155e-07
0.000155052
-6.08124e-06
-6.11154e-07
0.000155509
1.15475e-06
3.34344e-07
0.000154744
8.53418e-06
1.16902e-06
0.000153341
8.70287e-06
-6.21756e-07
0.00015436
-1.05867e-05
1.57081e-06
0.000154752
-3.01675e-06
-2.63429e-07
0.000155073
2.19085e-07
4.80289e-07
0.00015443
7.63131e-06
8.79649e-07
0.000153631
2.00421e-06
-6.08139e-07
0.000154737
-1.28664e-05
2.04925e-06
0.000154968
-4.32363e-06
-9.51306e-08
0.00015515
1.94223e-06
-1.82437e-08
0.000154699
6.19684e-06
1.12516e-06
0.00015352
6.85923e-06
-2.44482e-07
-1.22596e-05
1.21352e-06
0.000141183
-4.1791e-06
-1.11731e-06
0.000141203
5.32864e-06
2.74151e-07
0.000140407
1.16789e-05
6.112e-07
0.000139147
8.68465e-06
-1.10536e-06
0.000140933
-2.04581e-05
2.52175e-06
0.000141296
-5.30311e-06
-3.80887e-07
0.000141574
4.76864e-06
-3.20958e-07
0.000140495
1.16842e-05
1.10908e-06
0.000138864
1.11963e-05
-1.56574e-06
0.000140883
-2.28735e-05
1.79559e-06
0.000141235
-5.90258e-06
-6.57728e-07
0.000141417
3.28877e-06
3.2104e-07
0.000140257
1.30843e-05
5.50598e-07
0.000139094
6.87789e-06
-2.05715e-06
0.000140915
-2.23244e-05
2.5803e-06
0.000141177
-6.80918e-06
-4.51971e-07
0.000141377
2.68084e-06
-1.06755e-08
0.000140847
8.87116e-06
1.76224e-06
0.000139287
8.1169e-06
-5.10769e-07
0.000140858
-1.76306e-05
2.45592e-06
0.000141175
-5.46461e-06
-6.01038e-07
0.000141486
4.5617e-06
2.65739e-07
0.000140721
1.11403e-05
1.4892e-06
0.000138808
1.29213e-05
-1.56135e-06
0.000140725
-1.99064e-05
1.34167e-06
0.000141337
-8.61115e-06
-8.50152e-07
0.000141689
3.23435e-06
4.52918e-07
0.000140734
1.22346e-05
1.62772e-06
0.000139039
1.15812e-05
-9.64568e-07
0.000140562
-1.71844e-05
2.16977e-06
0.000140997
-4.51797e-06
-4.99801e-07
0.000141169
2.30714e-06
4.89329e-07
0.000140371
1.10419e-05
1.3056e-06
0.000139358
3.14242e-06
-9.64777e-07
0.000140988
-2.0513e-05
2.88255e-06
0.000141232
-6.12205e-06
-1.87675e-07
0.000141268
4.00683e-06
-2.4069e-08
0.000140686
9.31996e-06
1.64878e-06
0.000139243
9.23581e-06
-4.95191e-07
-1.95239e-05
1.82654e-06
0.00012882
-6.23285e-06
-1.57442e-06
0.000128619
8.9003e-06
2.69127e-07
0.000127597
1.7208e-05
1.01299e-06
0.000126143
1.17236e-05
-1.41544e-06
0.000128582
-3.07953e-05
3.48911e-06
0.000128914
-7.2022e-06
-6.8748e-07
0.000128997
8.5614e-06
-4.57103e-07
0.00012771
1.64535e-05
1.58013e-06
0.00012583
1.47349e-05
-2.05641e-06
0.000128514
-3.36297e-05
2.4138e-06
0.000128906
-8.82233e-06
-1.01754e-06
0.000128855
6.74916e-06
3.04362e-07
0.000127443
1.86773e-05
9.50313e-07
0.000126087
9.44234e-06
-2.61188e-06
0.000128566
-3.32774e-05
3.52753e-06
0.000128827
-9.73683e-06
-8.10435e-07
0.000128772
6.00211e-06
-1.40574e-07
0.000128103
1.27551e-05
2.45514e-06
0.000126282
1.08156e-05
-7.69913e-07
0.000128479
-2.78304e-05
3.37695e-06
0.000128779
-7.66774e-06
-9.65617e-07
0.000128934
7.67169e-06
3.47303e-07
0.000127976
1.56441e-05
2.03309e-06
0.000125733
1.70754e-05
-2.0001e-06
0.00012831
-3.04984e-05
2.03819e-06
0.000129
-1.19723e-05
-1.22917e-06
0.000129143
6.576e-06
5.17109e-07
0.000127967
1.72555e-05
2.19741e-06
0.00012601
1.50739e-05
-1.25642e-06
0.000128139
-2.64501e-05
2.89832e-06
0.000128606
-6.59266e-06
-8.73906e-07
0.000128521
5.73106e-06
3.93286e-07
0.000127564
1.56348e-05
1.88343e-06
0.000126382
4.57819e-06
-1.2589e-06
0.000128662
-3.11588e-05
3.87933e-06
0.000128864
-8.52171e-06
-3.82708e-07
0.000128651
7.22514e-06
-7.02706e-08
0.000127918
1.36392e-05
2.3144e-06
0.000126252
1.2132e-05
-7.01943e-07
-2.95883e-05
2.56535e-06
0.000117876
-9.01878e-06
-2.47273e-06
0.000117264
1.42166e-05
-1.18704e-07
0.000115995
2.48567e-05
1.6147e-06
0.00011468
1.47521e-05
-8.29412e-07
0.000117851
-4.45377e-05
4.60644e-06
0.000117961
-9.57361e-06
-1.36759e-06
0.000117621
1.41657e-05
-8.57264e-07
0.00011613
2.28169e-05
2.20317e-06
0.000114342
1.818e-05
-1.79863e-06
0.000117739
-4.76696e-05
3.12609e-06
0.000118004
-1.26309e-05
-1.81647e-06
0.000117486
1.22094e-05
-1.12242e-07
0.000115889
2.61598e-05
1.59278e-06
0.00011468
1.17488e-05
-2.24833e-06
0.000117831
-4.76581e-05
4.6397e-06
0.00011791
-1.33809e-05
-1.67389e-06
0.000117408
1.10347e-05
-5.84117e-07
0.000116564
1.82815e-05
3.2898e-06
0.000114712
1.36747e-05
-3.46392e-07
0.000117557
-4.14634e-05
4.38423e-06
0.000117767
-1.06027e-05
-1.70899e-06
0.000117603
1.22655e-05
1.41963e-07
0.000116411
2.17799e-05
2.73487e-06
0.000114127
2.13682e-05
-1.6695e-06
0.000117434
-4.45538e-05
2.73365e-06
0.000118126
-1.63424e-05
-2.09754e-06
0.000117833
1.16901e-05
2.37316e-07
0.000116416
2.40766e-05
2.88431e-06
0.000114423
1.8796e-05
-8.81753e-07
0.000117157
-3.87604e-05
3.74485e-06
0.000117606
-9.42089e-06
-1.66808e-06
0.000117096
1.10038e-05
-7.66641e-08
0.00011601
2.19099e-05
2.68064e-06
0.000114971
5.71807e-06
-7.52428e-07
0.000117959
-4.52664e-05
5.01122e-06
0.000117937
-1.15746e-05
-9.45853e-07
0.000117278
1.1952e-05
-3.35417e-07
0.000116352
1.9708e-05
3.17198e-06
0.00011473
1.51509e-05
-2.08235e-07
-4.28645e-05
3.36556e-06
0.000108584
-1.22808e-05
-4.83647e-06
0.00010722
2.12597e-05
-1.61702e-06
0.00010593
3.47175e-05
2.774e-06
0.000105647
1.63421e-05
2.33522e-06
0.000109373
-6.17322e-05
6.04292e-06
0.000108701
-1.2129e-05
-3.35703e-06
0.00010749
2.19185e-05
-2.33272e-06
0.000106087
3.10257e-05
3.15809e-06
0.000105334
1.98855e-05
1.1042e-06
0.000109188
-6.4723e-05
4.31971e-06
0.000108745
-1.69293e-05
-3.92644e-06
0.000107375
1.99886e-05
-1.63594e-06
0.000106166
3.53399e-05
2.91488e-06
0.00010588
1.21883e-05
1.36373e-06
0.000109186
-6.49769e-05
6.11583e-06
0.000108622
-1.70581e-05
-4.14099e-06
0.000107361
1.80723e-05
-2.13468e-06
0.000106468
2.60192e-05
4.43667e-06
0.000105192
1.6128e-05
1.96171e-06
0.000108509
-5.83249e-05
5.41087e-06
0.000108374
-1.42983e-05
-3.64999e-06
0.000107588
1.84827e-05
-1.10079e-06
0.000106257
3.00198e-05
3.82093e-06
0.000104688
2.44517e-05
1.13607e-06
0.000108629
-6.19277e-05
3.48295e-06
0.000108976
-2.14908e-05
-4.57391e-06
0.00010786
1.85835e-05
-1.19157e-06
0.000106412
3.29312e-05
3.85213e-06
0.00010501
2.17001e-05
1.70611e-06
0.000108013
-5.38831e-05
4.81832e-06
0.000108187
-1.30079e-05
-3.75152e-06
0.000107028
1.80187e-05
-1.50809e-06
0.000106147
3.01928e-05
4.05891e-06
0.000106006
5.7713e-06
2.29842e-06
0.000109416
-6.25778e-05
6.32764e-06
0.00010873
-1.5159e-05
-2.87625e-06
0.000107271
1.83348e-05
-1.62591e-06
0.000106271
2.79178e-05
4.3661e-06
0.000105397
1.75201e-05
2.31335e-06
-5.91736e-05
4.20929e-06
0.0001007
-1.5042e-05
-1.04585e-05
9.84915e-05
2.88995e-05
-5.9927e-06
9.85355e-05
4.41504e-05
5.21801e-06
0.0001002
1.48173e-05
1.04083e-05
0.000102981
-7.98345e-05
8.12668e-06
0.000100898
-1.42181e-05
-8.3379e-06
9.86454e-05
3.06847e-05
-6.31012e-06
9.88629e-05
3.92458e-05
5.0362e-06
0.000100209
1.83651e-05
8.82159e-06
0.000102841
-8.16363e-05
6.67127e-06
0.00010083
-2.04942e-05
-8.88207e-06
9.85699e-05
2.88843e-05
-6.18263e-06
9.96201e-05
4.3366e-05