/*--------------------------------*- C++ -*----------------------------------*\
  =========                 |
  \\      /  F ield         | OpenFOAM: The Open Source CFD Toolbox
   \\    /   O peration     | Website:  https://openfoam.org
    \\  /    A nd           | Version:  10
     \\/     M anipulation  |
\*---------------------------------------------------------------------------*/
FoamFile
{
    format      ascii;
    class       volScalarField;
    location    "6";
    object      pPrime2Mean;
}
// * * * * * * * * * * * * * * * * * * * * * * * * * * * * * * * * * * * * * //

dimensions      [0 4 -4 0 0 0 0];

internalField   nonuniform List<scalar> 
25600
(
5.28332e-05
5.06815e-05
4.52535e-05
4.9435e-05
3.47727e-05
3.45213e-05
4.04517e-05
4.79068e-05
4.41363e-05
4.40444e-05
4.39985e-05
4.03631e-05
3.47923e-05
3.36755e-05
3.43786e-05
4.05961e-05
4.29618e-05
4.68363e-05
4.87958e-05
4.8229e-05
4.78845e-05
4.19939e-05
4.2997e-05
4.08303e-05
4.31103e-05
4.09927e-05
3.76576e-05
3.9486e-05
4.06215e-05
3.59472e-05
3.5149e-05
3.11389e-05
3.00513e-05
3.72118e-05
3.87343e-05
3.9587e-05
4.03359e-05
4.1025e-05
4.49854e-05
4.907e-05
5.30471e-05
5.09483e-05
4.54107e-05
4.95362e-05
3.49277e-05
3.46852e-05
4.07282e-05
4.82238e-05
4.43675e-05
4.42581e-05
4.42963e-05
4.05558e-05
3.49702e-05
3.38382e-05
3.4579e-05
4.0877e-05
4.32176e-05
4.7093e-05
4.90742e-05
4.84616e-05
4.82731e-05
4.22567e-05
4.32268e-05
4.10748e-05
4.3326e-05
4.13301e-05
3.7905e-05
3.96844e-05
4.09631e-05
3.6223e-05
3.52866e-05
3.13137e-05
3.01575e-05
3.7515e-05
3.90845e-05
3.99119e-05
4.06947e-05
4.13374e-05
4.5192e-05
4.9305e-05
5.34556e-05
5.11696e-05
4.55793e-05
4.9473e-05
3.52256e-05
3.50205e-05
4.13343e-05
4.88676e-05
4.47738e-05
4.46054e-05
4.48281e-05
4.08996e-05
3.52619e-05
3.41015e-05
3.50589e-05
4.15754e-05
4.39261e-05
4.77997e-05
4.96878e-05
4.88661e-05
4.89316e-05
4.2752e-05
4.34156e-05
4.16729e-05
4.36259e-05
4.22151e-05
3.85466e-05
4.04457e-05
4.17455e-05
3.69412e-05
3.58807e-05
3.1805e-05
3.05783e-05
3.80246e-05
3.96745e-05
4.0502e-05
4.12909e-05
4.1952e-05
4.55574e-05
4.96246e-05
5.41157e-05
5.14669e-05
4.59561e-05
4.94887e-05
3.55063e-05
3.53414e-05
4.19492e-05
4.93234e-05
4.52753e-05
4.50466e-05
4.56352e-05
4.13412e-05
3.56849e-05
3.46162e-05
3.57339e-05
4.26106e-05
4.48378e-05
4.87353e-05
5.04947e-05
4.92938e-05
4.97573e-05
4.34932e-05
4.35449e-05
4.2425e-05
4.38372e-05
4.33841e-05
3.95282e-05
4.12759e-05
4.26688e-05
3.77274e-05
3.6324e-05
3.269e-05
3.09012e-05
3.83989e-05
4.02708e-05
4.12769e-05
4.18059e-05
4.28336e-05
4.61491e-05
5.01747e-05
5.51548e-05
5.1655e-05
4.65965e-05
4.92762e-05
3.5577e-05
3.55202e-05
4.2141e-05
4.92988e-05
4.55511e-05
4.52996e-05
4.59628e-05
4.1371e-05
3.59064e-05
3.48719e-05
3.60794e-05
4.34457e-05
4.55665e-05
4.95265e-05
5.12356e-05
4.94246e-05
5.00983e-05
4.37635e-05
4.31755e-05
4.28601e-05
4.36559e-05
4.46154e-05
4.04522e-05
4.23828e-05
4.39596e-05
3.87175e-05
3.69898e-05
3.35408e-05
3.13024e-05
3.82459e-05
4.03918e-05
4.16001e-05
4.20084e-05
4.37179e-05
4.69395e-05
5.10395e-05
5.53295e-05
5.02744e-05
4.61729e-05
4.75347e-05
3.52484e-05
3.52173e-05
4.13602e-05
4.85568e-05
4.57973e-05
4.54289e-05
4.58769e-05
4.15348e-05
3.65609e-05
3.57148e-05
3.68561e-05
4.44414e-05
4.63997e-05
5.01485e-05
5.15093e-05
4.95087e-05
5.01048e-05
4.39777e-05
4.18085e-05
4.24873e-05
4.33502e-05
4.58826e-05
4.10558e-05
4.28445e-05
4.46723e-05
3.92869e-05
3.72894e-05
3.47371e-05
3.1667e-05
3.81299e-05
4.0653e-05
4.22931e-05
4.2048e-05
4.38566e-05
4.73612e-05
5.14409e-05
5.61092e-05
4.94881e-05
4.59844e-05
4.61308e-05
3.41271e-05
3.44294e-05
3.97212e-05
4.67554e-05
4.59518e-05
4.50985e-05
4.48876e-05
4.08333e-05
3.60141e-05
3.54328e-05
3.65938e-05
4.4125e-05
4.69376e-05
5.05134e-05
5.09572e-05
4.92882e-05
4.87698e-05
4.28373e-05
4.00604e-05
4.12817e-05
4.34193e-05
4.68041e-05
4.24641e-05
4.32643e-05
4.48305e-05
3.98961e-05
3.77387e-05
3.55359e-05
3.19915e-05
3.72836e-05
4.02302e-05
4.24508e-05
4.1124e-05
4.27049e-05
4.71641e-05
5.19925e-05
5.64875e-05
4.92507e-05
4.49717e-05
4.46539e-05
3.28315e-05
3.34172e-05
3.79418e-05
4.4499e-05
4.5097e-05
4.39203e-05
4.35189e-05
4.02909e-05
3.56022e-05
3.4716e-05
3.65559e-05
4.33371e-05
4.69409e-05
5.00369e-05
4.95059e-05
4.88965e-05
4.73619e-05
4.10591e-05
3.75668e-05
4.01129e-05
4.33893e-05
4.76502e-05
4.40751e-05
4.38403e-05
4.45585e-05
3.96909e-05
3.78436e-05
3.55541e-05
3.13936e-05
3.60353e-05
3.97999e-05
4.23854e-05
4.0509e-05
4.14172e-05
4.6306e-05
5.18298e-05
5.57014e-05
4.86315e-05
4.2897e-05
4.23175e-05
3.15033e-05
3.22406e-05
3.64937e-05
4.21676e-05
4.35601e-05
4.22818e-05
4.19562e-05
3.97429e-05
3.45616e-05
3.36306e-05
3.53433e-05
4.19925e-05
4.61705e-05
4.88986e-05
4.79056e-05
4.69857e-05
4.57314e-05
3.95616e-05
3.57329e-05
3.89046e-05
4.28309e-05
4.69605e-05
4.49486e-05
4.38248e-05
4.41965e-05
3.91684e-05
3.76673e-05
3.48694e-05
3.0432e-05
3.39332e-05
3.83652e-05
4.16769e-05
4.04199e-05
4.03852e-05
4.50376e-05
5.05632e-05
5.27129e-05
4.70216e-05
4.08146e-05
3.97767e-05
3.00616e-05
3.06082e-05
3.49527e-05
3.99228e-05
4.17044e-05
4.05577e-05
4.05448e-05
3.92721e-05
3.37459e-05
3.22907e-05
3.41454e-05
3.98297e-05
4.50484e-05
4.80627e-05
4.62298e-05
4.36088e-05
4.2937e-05
3.77151e-05
3.46587e-05
3.77084e-05
4.18952e-05
4.51293e-05
4.5271e-05
4.40062e-05
4.44044e-05
3.90383e-05
3.77085e-05
3.43449e-05
3.03288e-05
3.33132e-05
3.78693e-05
4.12397e-05
4.08896e-05
4.02369e-05
4.40257e-05
4.8093e-05
4.59885e-05
4.20121e-05
3.73992e-05
3.59665e-05
2.7974e-05
2.75554e-05
3.19042e-05
3.71871e-05
3.91496e-05
3.78729e-05
3.7211e-05
3.65872e-05
3.1344e-05
2.91724e-05
3.05496e-05
3.50607e-05
4.02814e-05
4.41849e-05
4.23534e-05
3.87115e-05
3.78877e-05
3.44286e-05
3.35634e-05
3.62666e-05
4.02467e-05
4.28525e-05
4.37993e-05
4.24714e-05
4.26603e-05
3.68188e-05
3.51029e-05
3.1982e-05
2.88297e-05
3.09142e-05
3.48108e-05
3.74584e-05
3.80038e-05
3.74833e-05
4.08519e-05
4.32396e-05
3.69712e-05
3.43733e-05
3.12326e-05
2.97961e-05
2.3762e-05
2.27622e-05
2.64358e-05
3.16163e-05
3.36217e-05
3.27142e-05
3.16127e-05
3.13754e-05
2.72309e-05
2.46998e-05
2.5402e-05
2.86489e-05
3.2818e-05
3.67166e-05
3.55614e-05
3.21398e-05
3.10426e-05
2.8891e-05
2.97857e-05
3.2345e-05
3.6608e-05
3.8418e-05
3.96022e-05
3.84531e-05
3.84533e-05
3.21647e-05
3.01917e-05
2.75548e-05
2.52316e-05
2.72084e-05
3.0197e-05
3.14885e-05
3.21264e-05
3.20602e-05
3.51184e-05
3.63655e-05
2.81626e-05
2.62751e-05
2.39495e-05
2.28858e-05
1.85608e-05
1.78214e-05
2.06943e-05
2.50151e-05
2.68095e-05
2.59464e-05
2.47416e-05
2.47174e-05
2.18522e-05
2.02239e-05
2.03218e-05
2.25214e-05
2.54424e-05
2.84736e-05
2.78761e-05
2.53509e-05
2.414e-05
2.24444e-05
2.35037e-05
2.60018e-05
3.08501e-05
3.09056e-05
3.16555e-05
3.09383e-05
3.0786e-05
2.56389e-05
2.36539e-05
2.19217e-05
2.00962e-05
2.19401e-05
2.43143e-05
2.46259e-05
2.52123e-05
2.51218e-05
2.74176e-05
2.83966e-05
2.04705e-05
1.93811e-05
1.76897e-05
1.69839e-05
1.42329e-05
1.3716e-05
1.59171e-05
1.92822e-05
2.06117e-05
1.96031e-05
1.85978e-05
1.86683e-05
1.67939e-05
1.59537e-05
1.56458e-05
1.67394e-05
1.8563e-05
2.04801e-05
2.05153e-05
1.91071e-05
1.81939e-05
1.69422e-05
1.75768e-05
1.95843e-05
2.3087e-05
2.2296e-05
2.27761e-05
2.27074e-05
2.29816e-05
1.96284e-05
1.79009e-05
1.68192e-05
1.54562e-05
1.67985e-05
1.84135e-05
1.80245e-05
1.81887e-05
1.80799e-05
1.9684e-05
2.06686e-05
1.43224e-05
1.35964e-05
1.25677e-05
1.20616e-05
1.03574e-05
9.985e-06
1.14992e-05
1.38692e-05
1.47952e-05
1.39124e-05
1.33358e-05
1.33201e-05
1.22316e-05
1.17813e-05
1.13455e-05
1.15992e-05
1.26926e-05
1.39482e-05
1.43133e-05
1.36397e-05
1.31792e-05
1.22697e-05
1.25249e-05
1.39052e-05
1.5804e-05
1.51793e-05
1.54934e-05
1.56668e-05
1.62538e-05
1.42489e-05
1.28482e-05
1.21388e-05
1.12618e-05
1.21008e-05
1.31268e-05
1.24367e-05
1.23487e-05
1.25553e-05
1.36594e-05
1.44905e-05
9.5395e-06
8.99233e-06
8.50385e-06
8.1852e-06
7.15655e-06
6.85819e-06
7.81409e-06
9.45034e-06
1.01968e-05
9.53737e-06
9.19342e-06
9.12994e-06
8.54798e-06
8.25833e-06
7.85469e-06
7.77167e-06
8.36199e-06
9.27958e-06
9.67057e-06
9.373e-06
9.13289e-06
8.43651e-06
8.42922e-06
9.36969e-06
1.03308e-05
9.92526e-06
1.01877e-05
1.03911e-05
1.09651e-05
9.80058e-06
8.75543e-06
8.29934e-06
7.6746e-06
8.20688e-06
8.87068e-06
8.22287e-06
8.01583e-06
8.40352e-06
9.1425e-06
9.71524e-06
6.17566e-06
5.77189e-06
5.58438e-06
5.41891e-06
4.80345e-06
4.57373e-06
5.12275e-06
6.24515e-06
6.79916e-06
6.36029e-06
6.11972e-06
6.03951e-06
5.73874e-06
5.55549e-06
5.28012e-06
5.0526e-06
5.28825e-06
5.91392e-06
6.23791e-06
6.12633e-06
6.02218e-06
5.58586e-06
5.4639e-06
6.08122e-06
6.59432e-06
6.32617e-06
6.53434e-06
6.70757e-06
7.21865e-06
6.56152e-06
5.82075e-06
5.54639e-06
5.13147e-06
5.46501e-06
5.88227e-06
5.33105e-06
5.10088e-06
5.49045e-06
6.02695e-06
6.37435e-06
3.84785e-06
3.56357e-06
3.5406e-06
3.47614e-06
3.13733e-06
2.96928e-06
3.2625e-06
4.0103e-06
4.39353e-06
4.14956e-06
3.93702e-06
3.84445e-06
3.66522e-06
3.58705e-06
3.47106e-06
3.22082e-06
3.26586e-06
3.68055e-06
3.92772e-06
3.90029e-06
3.85308e-06
3.62253e-06
3.48169e-06
3.86313e-06
4.16868e-06
3.96818e-06
4.09271e-06
4.2332e-06
4.60924e-06
4.23827e-06
3.74982e-06
3.60975e-06
3.35787e-06
3.55698e-06
3.81685e-06
3.38087e-06
3.12949e-06
3.47069e-06
3.84174e-06
4.04676e-06
2.33857e-06
2.13742e-06
2.19109e-06
2.1896e-06
2.00423e-06
1.88162e-06
2.01883e-06
2.49485e-06
2.74594e-06
2.62057e-06
2.45884e-06
2.35736e-06
2.24021e-06
2.23096e-06
2.22494e-06
2.02345e-06
1.95453e-06
2.21929e-06
2.40512e-06
2.39356e-06
2.36625e-06
2.27595e-06
2.15294e-06
2.37845e-06
2.56123e-06
2.43464e-06
2.50197e-06
2.6207e-06
2.8897e-06
2.68661e-06
2.36581e-06
2.31316e-06
2.17168e-06
2.28497e-06
2.45971e-06
2.10102e-06
1.87152e-06
2.14216e-06
2.40264e-06
2.51427e-06
1.38806e-06
1.23497e-06
1.32802e-06
1.34427e-06
1.24626e-06
1.16172e-06
1.20974e-06
1.50226e-06
1.66222e-06
1.60031e-06
1.48418e-06
1.39053e-06
1.30842e-06
1.32763e-06
1.3732e-06
1.24987e-06
1.13381e-06
1.28954e-06
1.43397e-06
1.41097e-06
1.38158e-06
1.38796e-06
1.30385e-06
1.42342e-06
1.53342e-06
1.44548e-06
1.46576e-06
1.57108e-06
1.75707e-06
1.6502e-06
1.44416e-06
1.44643e-06
1.38563e-06
1.44548e-06
1.56939e-06
1.28126e-06
1.07684e-06
1.29089e-06
1.46362e-06
1.52397e-06
8.19932e-07
6.91934e-07
7.94954e-07
8.14642e-07
7.53109e-07
7.06523e-07
7.05826e-07
8.7664e-07
9.7765e-07
9.42074e-07
8.67551e-07
7.93731e-07
7.31717e-07
7.61288e-07
8.16398e-07
7.64672e-07
6.44056e-07
7.25225e-07
8.44905e-07
8.08498e-07
7.6546e-07
8.18922e-07
7.71932e-07
8.23062e-07
8.85086e-07
8.31421e-07
8.32116e-07
9.14247e-07
1.04674e-06
9.88616e-07
8.54771e-07
8.89356e-07
8.78018e-07
9.06565e-07
1.00224e-06
7.77427e-07
5.99947e-07
7.69734e-07
8.76629e-07
9.10764e-07
4.96615e-07
3.8415e-07
4.76198e-07
4.98072e-07
4.43245e-07
4.27659e-07
4.09973e-07
5.01382e-07
5.64329e-07
5.35647e-07
4.92634e-07
4.40976e-07
3.97026e-07
4.25967e-07
4.62393e-07
4.59153e-07
3.65218e-07
3.92625e-07
4.94392e-07
4.56806e-07
3.9671e-07
4.65557e-07
4.57324e-07
4.66093e-07
4.94808e-07
4.64875e-07
4.53857e-07
5.17309e-07
6.1933e-07
5.88284e-07
4.92871e-07
5.46273e-07
5.62066e-07
5.69065e-07
6.43455e-07
4.80113e-07
3.2777e-07
4.6143e-07
5.2307e-07
5.41271e-07
3.18827e-07
2.20429e-07
2.90543e-07
3.17986e-07
2.57872e-07
2.60265e-07
2.4661e-07
2.84664e-07
3.26974e-07
3.00833e-07
2.76295e-07
2.41376e-07
2.14105e-07
2.39528e-07
2.5481e-07
2.71256e-07
2.13983e-07
2.09751e-07
2.93039e-07
2.66573e-07
1.93462e-07
2.55628e-07
2.77926e-07
2.64422e-07
2.71509e-07
2.57681e-07
2.44111e-07
2.88448e-07
3.70635e-07
3.54912e-07
2.81327e-07
3.40997e-07
3.71703e-07
3.64822e-07
4.21897e-07
3.14e-07
1.83816e-07
2.85931e-07
3.17237e-07
3.24667e-07
2.22679e-07
1.40331e-07
1.83563e-07
2.20741e-07
1.55701e-07
1.59307e-07
1.61124e-07
1.66046e-07
1.95223e-07
1.74739e-07
1.57877e-07
1.34798e-07
1.20667e-07
1.42141e-07
1.42517e-07
1.59871e-07
1.32754e-07
1.1515e-07
1.80066e-07
1.71931e-07
9.20776e-08
1.38026e-07
1.77341e-07
1.57243e-07
1.52813e-07
1.49504e-07
1.35424e-07
1.65247e-07
2.33546e-07
2.2733e-07
1.66222e-07
2.20214e-07
2.61076e-07
2.4489e-07
2.87191e-07
2.23156e-07
1.14417e-07
1.87548e-07
2.03153e-07
1.99863e-07
1.69494e-07
1.06221e-07
1.21818e-07
1.67488e-07
1.04641e-07
9.88365e-08
1.17638e-07
1.05122e-07
1.23353e-07
1.13855e-07
9.75927e-08
8.00622e-08
7.60712e-08
9.37268e-08
8.65194e-08
1.00268e-07
9.0929e-08
6.83597e-08
1.17904e-07
1.28532e-07
4.88318e-08
7.57551e-08
1.22577e-07
1.03961e-07
9.41836e-08
9.84019e-08
8.41439e-08
1.0162e-07
1.59863e-07
1.60731e-07
1.09952e-07
1.50997e-07
1.9697e-07
1.74809e-07
2.05729e-07
1.72605e-07
8.52795e-08
1.34384e-07
1.42895e-07
1.28444e-07
1.36328e-07
9.49196e-08
8.54185e-08
1.353e-07
8.37985e-08
6.35782e-08
9.17721e-08
7.62375e-08
8.25424e-08
8.58028e-08
7.11345e-08
5.35285e-08
5.57033e-08
7.06646e-08
5.95263e-08
7.04684e-08
7.22358e-08
4.60915e-08
8.16757e-08
1.07498e-07
3.58029e-08
4.43459e-08
9.40104e-08
7.86997e-08
6.63987e-08
7.82053e-08
6.49837e-08
7.06935e-08
1.21166e-07
1.28084e-07
8.6108e-08
1.1267e-07
1.572e-07
1.35695e-07
1.57053e-07
1.43503e-07
7.50546e-08
1.06103e-07
1.12959e-07
8.7718e-08
1.09915e-07
9.34823e-08
6.46913e-08
1.11414e-07
7.93676e-08
4.56067e-08
7.41281e-08
6.45333e-08
5.83562e-08
7.06083e-08
6.27115e-08
4.24771e-08
4.55939e-08
6.0473e-08
4.66587e-08
5.39077e-08
6.56918e-08
3.73271e-08
5.75089e-08
9.39016e-08
3.73888e-08
2.97133e-08
7.91182e-08
6.75968e-08
5.2223e-08
7.20923e-08
6.33803e-08
5.69704e-08
9.91307e-08
1.13347e-07
7.80114e-08
9.25724e-08
1.31534e-07
1.15061e-07
1.2675e-07
1.26567e-07
7.28287e-08
9.05872e-08
9.88878e-08
6.64182e-08
8.70136e-08
9.29841e-08
5.51026e-08
8.97793e-08
8.0726e-08
4.01857e-08
6.06434e-08
6.12403e-08
4.48776e-08
5.81725e-08
6.08682e-08
3.98239e-08
3.97499e-08
5.64027e-08
4.18791e-08
4.25219e-08
6.27425e-08
3.76064e-08
4.14471e-08
8.06918e-08
4.5267e-08
2.45689e-08
6.92984e-08
6.51372e-08
4.4044e-08
6.84263e-08
7.00194e-08
5.32735e-08
8.37793e-08
1.06261e-07
7.75562e-08
8.18055e-08
1.14519e-07
1.03653e-07
1.06434e-07
1.15401e-07
7.46504e-08
8.16449e-08
9.34905e-08
5.85478e-08
6.98347e-08
9.00419e-08
5.47402e-08
7.04276e-08
8.01844e-08
4.33522e-08
5.04607e-08
6.02871e-08
4.03951e-08
4.65859e-08
5.85513e-08
4.15084e-08
3.49525e-08
5.3544e-08
4.32066e-08
3.48474e-08
5.87165e-08
4.37706e-08
3.39666e-08
6.76182e-08
5.49006e-08
2.57114e-08
6.05234e-08
6.88306e-08
4.24252e-08
6.23979e-08
7.80345e-08
5.73324e-08
7.16058e-08
9.95976e-08
8.06848e-08
7.5157e-08
1.01258e-07
9.6093e-08
9.14074e-08
1.04219e-07
7.77919e-08
7.54156e-08
9.04248e-08
5.98229e-08
6.08475e-08
8.46785e-08
6.11421e-08
5.77146e-08
7.54393e-08
5.09373e-08
4.4352e-08
5.77707e-08
4.25635e-08
3.76907e-08
5.30775e-08
4.38925e-08
3.06874e-08
4.93493e-08
4.72984e-08
3.22736e-08
5.32946e-08
5.29009e-08
3.42007e-08
5.83481e-08
6.35998e-08
3.21067e-08
5.4393e-08
7.38837e-08
4.86769e-08
5.6786e-08
8.24537e-08
6.72769e-08
6.48697e-08
9.10735e-08
8.48127e-08
7.20081e-08
8.85365e-08
8.99305e-08
8.06182e-08
9.03423e-08
7.7942e-08
6.97631e-08
8.48737e-08
6.51223e-08
5.63268e-08
7.79403e-08
6.89335e-08
5.47193e-08
6.92656e-08
5.97783e-08
4.4501e-08
5.36468e-08
4.6446e-08
3.4396e-08
4.60182e-08
4.28354e-08
2.76057e-08
4.23065e-08
4.77372e-08
3.19614e-08
4.65532e-08
5.70833e-08
3.68951e-08
5.1381e-08
6.43972e-08
3.90364e-08
4.89539e-08
7.27534e-08
5.71698e-08
5.36507e-08
7.93554e-08
7.60827e-08
6.37786e-08
8.10044e-08
8.7474e-08
7.34119e-08
7.82316e-08
8.51807e-08
7.64832e-08
7.83664e-08
7.40654e-08
6.61332e-08
7.81382e-08
6.7718e-08
5.45868e-08
7.20142e-08
7.21826e-08
5.74645e-08
6.49253e-08
6.58227e-08
4.98242e-08
5.06764e-08
4.7877e-08
3.6074e-08
3.96657e-08
3.68644e-08
2.52081e-08
3.31068e-08
4.01522e-08
2.84965e-08
3.59642e-08
4.74122e-08
3.25168e-08
4.00009e-08
5.1351e-08
3.73803e-08
4.03661e-08
6.10959e-08
5.67706e-08
5.10233e-08
6.97216e-08
7.60428e-08
6.47642e-08
7.24514e-08
8.58535e-08
7.70806e-08
7.29192e-08
8.2276e-08
8.06562e-08
7.42182e-08
7.13999e-08
7.02997e-08
7.87177e-08
6.73515e-08
4.84465e-05
4.81212e-05
4.36057e-05
5.92078e-05
3.46274e-05
3.8485e-05
4.37057e-05
4.76604e-05
5.06224e-05
5.11672e-05
4.79792e-05
4.21881e-05
3.91856e-05
3.97131e-05
3.78261e-05
3.93699e-05
3.58201e-05
3.55989e-05
3.68641e-05
4.33965e-05
4.9142e-05
4.61791e-05
4.05551e-05
4.05445e-05
3.97304e-05
4.17291e-05
4.02835e-05
4.13132e-05
4.37698e-05
4.1387e-05
4.3697e-05
4.30342e-05
4.89983e-05
5.92507e-05
5.91876e-05
5.60067e-05
4.55609e-05
4.02859e-05
4.08871e-05
3.84895e-05
4.88205e-05
4.85863e-05
4.37836e-05
5.97304e-05
3.48875e-05
3.86951e-05
4.3972e-05
4.80069e-05
5.08935e-05
5.13768e-05
4.82693e-05
4.24497e-05
3.94018e-05
3.99127e-05
3.79589e-05
3.95549e-05
3.60055e-05
3.57872e-05
3.70212e-05
4.35202e-05
4.9429e-05
4.6385e-05
4.06495e-05
4.07353e-05
3.97241e-05
4.19181e-05
4.04174e-05
4.14593e-05
4.38767e-05
4.1454e-05
4.39157e-05
4.32094e-05
4.91613e-05
5.9512e-05
5.93657e-05
5.62495e-05
4.57283e-05
4.04067e-05
4.11638e-05
3.8702e-05
4.96994e-05
4.97393e-05
4.43545e-05
6.07586e-05
3.54202e-05
3.91769e-05
4.45433e-05
4.86786e-05
5.16085e-05
5.18723e-05
4.88875e-05
4.30733e-05
3.97896e-05
4.02942e-05
3.83086e-05
3.9921e-05
3.64387e-05
3.62462e-05
3.74685e-05
4.38853e-05
4.9856e-05
4.67825e-05
4.1028e-05
4.14597e-05
3.9899e-05
4.26384e-05
4.08801e-05
4.19438e-05
4.44029e-05
4.18212e-05
4.47121e-05
4.36828e-05
4.95321e-05
6.02063e-05
5.99422e-05
5.68611e-05
4.61729e-05
4.07173e-05
4.16056e-05
3.92794e-05
5.08951e-05
5.07482e-05
4.49445e-05
6.13304e-05
3.59416e-05
3.96909e-05
4.48843e-05
4.9204e-05
5.22556e-05
5.25625e-05
4.95951e-05
4.3597e-05
4.0018e-05
4.04508e-05
3.85059e-05
4.02315e-05
3.68067e-05
3.66934e-05
3.79953e-05
4.39311e-05
5.02398e-05
4.7207e-05
4.13951e-05
4.22897e-05
3.99533e-05
4.31916e-05
4.12709e-05
4.24559e-05
4.50658e-05
4.23378e-05
4.57519e-05
4.43051e-05
4.97995e-05
6.07971e-05
6.0454e-05
5.75087e-05
4.67431e-05
4.10348e-05
4.20501e-05
3.98868e-05
5.10819e-05
5.05868e-05
4.48802e-05
6.05268e-05
3.60356e-05
3.97602e-05
4.4553e-05
4.90312e-05
5.25018e-05
5.25174e-05
4.97919e-05
4.36939e-05
3.94921e-05
3.98073e-05
3.80589e-05
3.96507e-05
3.65548e-05
3.66876e-05
3.83083e-05
4.30963e-05
5.04252e-05
4.68582e-05
4.08284e-05
4.27196e-05
3.98087e-05
4.36203e-05
4.11566e-05
4.20816e-05
4.52812e-05
4.27307e-05
4.62855e-05
4.45883e-05
4.9416e-05
6.07273e-05
6.05644e-05
5.73957e-05
4.63445e-05
4.02534e-05
4.17826e-05
3.92906e-05
5.10885e-05
4.97479e-05
4.40759e-05
5.77107e-05
3.5854e-05
3.89555e-05
4.33138e-05
4.85875e-05
5.21417e-05
5.147e-05
4.86546e-05
4.29767e-05
3.84205e-05
3.8715e-05
3.64134e-05
3.81874e-05
3.51918e-05
3.59061e-05
3.79955e-05
4.13515e-05
5.04068e-05
4.56159e-05
4.03189e-05
4.34162e-05
3.97246e-05
4.39348e-05
4.12938e-05
4.29651e-05
4.55848e-05
4.27638e-05
4.6932e-05
4.51734e-05
4.93466e-05
6.03527e-05
6.01633e-05
5.65288e-05
4.58044e-05
3.9954e-05
4.1331e-05
3.85573e-05
5.01176e-05
4.80924e-05
4.37177e-05
5.56028e-05
3.63616e-05
3.8051e-05
4.22888e-05
4.82762e-05
5.171e-05
4.95726e-05
4.62006e-05
4.09337e-05
3.70004e-05
3.70562e-05
3.40349e-05
3.56714e-05
3.37697e-05
3.54179e-05
3.77444e-05
4.01797e-05
4.91489e-05
4.33509e-05
3.96387e-05
4.31366e-05
3.96502e-05
4.43203e-05
4.16531e-05
4.31498e-05
4.58603e-05
4.25554e-05
4.68082e-05
4.49912e-05
4.90934e-05
5.9507e-05
5.95784e-05
5.5044e-05
4.49699e-05
3.93608e-05
4.01681e-05
3.79311e-05
4.83819e-05
4.65697e-05
4.2959e-05
5.16764e-05
3.45963e-05
3.67848e-05
4.09704e-05
4.73133e-05
5.04574e-05
4.74124e-05
4.31254e-05
3.83856e-05
3.53649e-05
3.52385e-05
3.24011e-05
3.3707e-05
3.28135e-05
3.41465e-05
3.66543e-05
3.88622e-05
4.6378e-05
4.13655e-05
3.9766e-05
4.19712e-05
3.9907e-05
4.36183e-05
4.14489e-05
4.34978e-05
4.57925e-05
4.19783e-05
4.59475e-05
4.3167e-05
4.71074e-05
5.66882e-05
5.70656e-05
5.24004e-05
4.30501e-05
3.79911e-05
3.81985e-05
3.75518e-05
4.43474e-05
4.254e-05
4.0047e-05
4.6892e-05
3.14949e-05
3.39368e-05
3.81527e-05
4.41973e-05
4.73778e-05
4.45073e-05
3.94251e-05
3.5457e-05
3.28093e-05
3.23054e-05
3.00231e-05
3.09522e-05
3.04965e-05
3.14304e-05
3.40797e-05
3.66652e-05
4.26624e-05
3.90708e-05
3.88516e-05
3.95814e-05
3.88332e-05
4.09563e-05
3.92508e-05
4.07599e-05
4.30485e-05
3.89581e-05
4.16883e-05
3.9016e-05
4.25487e-05
5.06198e-05
5.16748e-05
4.78639e-05
3.92189e-05
3.51409e-05
3.4909e-05
3.52132e-05
3.79095e-05
3.55963e-05
3.4094e-05
3.87646e-05
2.67738e-05
2.92988e-05
3.33313e-05
3.85307e-05
4.14565e-05
3.95821e-05
3.46479e-05
3.13923e-05
2.90193e-05
2.83508e-05
2.65283e-05
2.68398e-05
2.65574e-05
2.71162e-05
2.9916e-05
3.32737e-05
3.77187e-05
3.53064e-05
3.54773e-05
3.56913e-05
3.56031e-05
3.62846e-05
3.50912e-05
3.55785e-05
3.75637e-05
3.3874e-05
3.50323e-05
3.29685e-05
3.59874e-05
4.26136e-05
4.39379e-05
4.10868e-05
3.36166e-05
3.05074e-05
3.01201e-05
3.06921e-05
3.07323e-05
2.84596e-05
2.77524e-05
3.05505e-05
2.20595e-05
2.45552e-05
2.82957e-05
3.21478e-05
3.44071e-05
3.32934e-05
2.89609e-05
2.61495e-05
2.40115e-05
2.36614e-05
2.24563e-05
2.23809e-05
2.2226e-05
2.29342e-05
2.59841e-05
2.95363e-05
3.31043e-05
3.07379e-05
3.02703e-05
3.02327e-05
3.05944e-05
3.07061e-05
2.94737e-05
2.92611e-05
3.08977e-05
2.78397e-05
2.8074e-05
2.65584e-05
2.88689e-05
3.41349e-05
3.5579e-05
3.35765e-05
2.75156e-05
2.52551e-05
2.48724e-05
2.51839e-05
2.38893e-05
2.24098e-05
2.18931e-05
2.35751e-05
1.78681e-05
2.03741e-05
2.36068e-05
2.59923e-05
2.74623e-05
2.7059e-05
2.38063e-05
2.12128e-05
1.91043e-05
1.89759e-05
1.85177e-05
1.85437e-05
1.87984e-05
1.9445e-05
2.21066e-05
2.52522e-05
2.80063e-05
2.57804e-05
2.44422e-05
2.42982e-05
2.50955e-05
2.52496e-05
2.42905e-05
2.37549e-05
2.52345e-05
2.28769e-05
2.25311e-05
2.09959e-05
2.2397e-05
2.64675e-05
2.78986e-05
2.70083e-05
2.21558e-05
2.02221e-05
1.98885e-05
1.9929e-05
1.79295e-05
1.71172e-05
1.64844e-05
1.7573e-05
1.39113e-05
1.59868e-05
1.86504e-05
1.9839e-05
2.07151e-05
2.07911e-05
1.89287e-05
1.67508e-05
1.46978e-05
1.45159e-05
1.41713e-05
1.43039e-05
1.5004e-05
1.55493e-05
1.76539e-05
2.02234e-05
2.22869e-05
2.05324e-05
1.88007e-05
1.86466e-05
1.96843e-05
2.013e-05
1.92612e-05
1.82349e-05
1.91798e-05
1.76286e-05
1.73685e-05
1.60343e-05
1.68107e-05
1.98405e-05
2.09253e-05
2.09423e-05
1.73201e-05
1.55491e-05
1.53956e-05
1.53805e-05
1.28625e-05
1.23612e-05
1.17824e-05
1.24511e-05
1.0086e-05
1.15475e-05
1.35818e-05
1.41633e-05
1.4682e-05
1.48758e-05
1.41645e-05
1.2497e-05
1.07258e-05
1.05223e-05
1.02025e-05
1.0354e-05
1.09316e-05
1.13668e-05
1.28898e-05
1.49071e-05
1.65001e-05
1.51089e-05
1.3366e-05
1.32783e-05
1.42872e-05
1.51835e-05
1.45386e-05
1.33301e-05
1.36705e-05
1.2717e-05
1.2626e-05
1.1639e-05
1.19145e-05
1.38463e-05
1.48495e-05
1.52693e-05
1.28917e-05
1.12759e-05
1.12773e-05
1.13566e-05
9.07467e-06
8.87863e-06
8.41565e-06
8.68593e-06
7.15247e-06
8.13524e-06
9.64792e-06
9.8324e-06
1.00491e-05
1.02606e-05
1.01579e-05
9.0056e-06
7.58415e-06
7.41804e-06
7.21625e-06
7.35861e-06
7.70314e-06
7.96648e-06
8.98239e-06
1.05069e-05
1.1785e-05
1.08036e-05
9.2307e-06
9.10246e-06
9.92208e-06
1.09505e-05
1.06555e-05
9.53599e-06
9.45478e-06
8.82778e-06
8.87933e-06
8.22443e-06
8.28331e-06
9.41518e-06
1.02263e-05
1.07558e-05
9.34896e-06
7.92216e-06
7.91854e-06
8.12089e-06
6.35212e-06
6.33958e-06
5.96991e-06
5.95564e-06
5.07683e-06
5.77833e-06
6.84372e-06
6.83353e-06
6.79853e-06
6.9656e-06
7.09831e-06
6.33505e-06
5.21366e-06
5.1069e-06
5.00596e-06
5.13938e-06
5.32051e-06
5.40791e-06
6.01615e-06
7.15387e-06
8.18375e-06
7.53717e-06
6.2065e-06
6.01059e-06
6.68e-06
7.55698e-06
7.64546e-06
6.69294e-06
6.40502e-06
5.97664e-06
6.06194e-06
5.69882e-06
5.67938e-06
6.30417e-06
6.93748e-06
7.39693e-06
6.65497e-06
5.44973e-06
5.39616e-06
5.69463e-06
4.31451e-06
4.36415e-06
4.15151e-06
3.96292e-06
3.46002e-06
3.93547e-06
4.69638e-06
4.61615e-06
4.44326e-06
4.63592e-06
4.86728e-06
4.35581e-06
3.46145e-06
3.38089e-06
3.38564e-06
3.49808e-06
3.59782e-06
3.56592e-06
3.89723e-06
4.7007e-06
5.53131e-06
5.11421e-06
4.05967e-06
3.82625e-06
4.34254e-06
5.01827e-06
5.30136e-06
4.5491e-06
4.20194e-06
3.91001e-06
4.01115e-06
3.84912e-06
3.78466e-06
4.12967e-06
4.62985e-06
4.99231e-06
4.61818e-06
3.66855e-06
3.54191e-06
3.83577e-06
2.84975e-06
2.91717e-06
2.83095e-06
2.592e-06
2.30852e-06
2.6429e-06
3.15504e-06
3.04075e-06
2.81622e-06
3.02125e-06
3.2904e-06
2.93825e-06
2.23374e-06
2.15012e-06
2.23253e-06
2.33745e-06
2.3621e-06
2.26062e-06
2.42157e-06
2.97351e-06
3.64535e-06
3.37821e-06
2.55791e-06
2.32321e-06
2.72216e-06
3.22522e-06
3.53796e-06
3.02112e-06
2.67351e-06
2.49417e-06
2.58938e-06
2.52014e-06
2.43122e-06
2.60017e-06
2.99972e-06
3.27258e-06
3.1068e-06
2.40941e-06
2.23746e-06
2.4919e-06
1.8523e-06
1.89463e-06
1.87409e-06
1.65084e-06
1.47734e-06
1.70492e-06
2.0479e-06
1.92904e-06
1.71316e-06
1.91668e-06
2.17051e-06
1.93777e-06
1.39978e-06
1.30476e-06
1.42302e-06
1.53765e-06
1.51187e-06
1.37895e-06
1.44949e-06
1.8145e-06
2.34965e-06
2.1948e-06
1.56134e-06
1.33587e-06
1.64334e-06
2.01078e-06
2.26975e-06
1.93509e-06
1.63804e-06
1.54378e-06
1.63435e-06
1.6171e-06
1.51805e-06
1.60071e-06
1.90665e-06
2.10861e-06
2.0296e-06
1.54256e-06
1.35936e-06
1.58096e-06
1.19092e-06
1.20147e-06
1.20815e-06
1.03652e-06
9.2285e-07
1.08255e-06
1.3002e-06
1.18958e-06
1.00609e-06
1.18252e-06
1.40851e-06
1.24893e-06
8.5065e-07
7.54915e-07
8.79666e-07
1.007e-06
9.55159e-07
8.13364e-07
8.405e-07
1.06539e-06
1.47856e-06
1.40949e-06
9.29039e-07
7.19878e-07
9.4352e-07
1.21732e-06
1.39785e-06
1.205e-06
9.75522e-07
9.32739e-07
1.01643e-06
1.02455e-06
9.23591e-07
9.68031e-07
1.19314e-06
1.34303e-06
1.29297e-06
9.66452e-07
7.90126e-07
9.82411e-07
7.75615e-07
7.57725e-07
7.61643e-07
6.42854e-07
5.62082e-07
6.8473e-07
8.16455e-07
7.16986e-07
5.71652e-07
7.08003e-07
9.06836e-07
7.92563e-07
5.05724e-07
4.15124e-07
5.27135e-07
6.62994e-07
6.06425e-07
4.6417e-07
4.72975e-07
6.01117e-07
9.05791e-07
9.04228e-07
5.48298e-07
3.62581e-07
5.13837e-07
7.27762e-07
8.38511e-07
7.30744e-07
5.7244e-07
5.54248e-07
6.28178e-07
6.56464e-07
5.58542e-07
5.83845e-07
7.48661e-07
8.56659e-07
8.14127e-07
6.03364e-07
4.41686e-07
6.06263e-07
5.20287e-07
4.80425e-07
4.72074e-07
4.01495e-07
3.34046e-07
4.36053e-07
5.153e-07
4.28246e-07
3.21139e-07
4.14303e-07
5.8332e-07
4.99356e-07
2.97939e-07
2.18706e-07
3.0739e-07
4.42368e-07
3.98698e-07
2.63035e-07
2.67719e-07
3.31627e-07
5.39092e-07
5.84491e-07
3.29525e-07
1.72318e-07
2.6484e-07
4.34826e-07
4.97314e-07
4.35218e-07
3.39289e-07
3.3166e-07
3.95052e-07
4.34789e-07
3.4948e-07
3.57463e-07
4.77537e-07
5.55095e-07
5.17194e-07
3.83554e-07
2.42458e-07
3.74844e-07
3.67173e-07
3.14291e-07
2.93181e-07
2.59942e-07
1.98226e-07
2.81332e-07
3.358e-07
2.58106e-07
1.84908e-07
2.42354e-07
3.77347e-07
3.16982e-07
1.77414e-07
1.15504e-07
1.74175e-07
2.99227e-07
2.72806e-07
1.5346e-07
1.61979e-07
1.84667e-07
3.11461e-07
3.78855e-07
2.11678e-07
8.18456e-08
1.32806e-07
2.65002e-07
3.02357e-07
2.59603e-07
2.11445e-07
2.09006e-07
2.55331e-07
3.02455e-07
2.3887e-07
2.28752e-07
3.20202e-07
3.73666e-07
3.39925e-07
2.57211e-07
1.39589e-07
2.34186e-07
2.75595e-07
2.19253e-07
1.86533e-07
1.80077e-07
1.21509e-07
1.82955e-07
2.29472e-07
1.62603e-07
1.1408e-07
1.47066e-07
2.46328e-07
2.05877e-07
1.111e-07
6.89595e-08
9.66193e-08
2.05654e-07
1.95666e-07
9.6458e-08
1.10779e-07
1.11765e-07
1.7668e-07
2.45974e-07
1.5196e-07
4.60557e-08
7.02789e-08
1.70112e-07
1.94338e-07
1.59562e-07
1.45201e-07
1.45509e-07
1.73489e-07
2.22736e-07
1.84017e-07
1.57917e-07
2.2918e-07
2.63839e-07
2.34998e-07
1.87912e-07
9.31571e-08
1.49883e-07
2.16931e-07
1.68829e-07
1.24302e-07
1.36422e-07
8.28075e-08
1.19447e-07
1.65879e-07
1.11588e-07
7.85179e-08
9.85009e-08
1.66245e-07
1.39327e-07
7.65912e-08
5.21915e-08
5.51707e-08
1.4373e-07
1.5081e-07
6.63341e-08
8.6575e-08
8.25761e-08
9.84726e-08
1.60211e-07
1.21895e-07
3.68485e-08
4.52979e-08
1.20129e-07
1.3602e-07
1.05334e-07
1.1224e-07
1.15842e-07
1.27525e-07
1.72875e-07
1.56171e-07
1.21233e-07
1.76683e-07
1.95484e-07
1.70238e-07
1.5196e-07
7.7531e-08
1.00009e-07
1.74391e-07
1.43376e-07
8.89195e-08
1.11644e-07
6.74176e-08
7.85508e-08
1.23846e-07
8.44696e-08
5.96004e-08
7.458e-08
1.19252e-07
9.94435e-08
5.87373e-08
4.86296e-08
3.64174e-08
1.0041e-07
1.23353e-07
4.98512e-08
7.08301e-08
7.60327e-08
5.69324e-08
1.05662e-07
1.03824e-07
3.94375e-08
3.68363e-08
9.55392e-08
1.056e-07
7.78463e-08
9.64714e-08
1.04259e-07
1.01902e-07
1.40113e-07
1.38855e-07
1.03545e-07
1.44316e-07
1.55454e-07
1.28778e-07
1.31913e-07
7.72078e-08
7.18261e-08
1.38543e-07
1.29251e-07
7.03636e-08
9.44667e-08
6.6025e-08
5.40658e-08
9.30697e-08
6.93779e-08
4.84652e-08
6.23026e-08
9.1939e-08
7.58535e-08
4.91204e-08
5.00768e-08
3.08108e-08
6.95955e-08
1.04476e-07
4.25209e-08
5.58452e-08
7.76338e-08
4.0666e-08
6.88446e-08
9.1381e-08
4.60868e-08
3.34414e-08
8.37274e-08
9.26252e-08
6.45647e-08
8.67438e-08
1.012e-07
8.89466e-08
1.17782e-07
1.26975e-07
9.54618e-08
1.22259e-07
1.33585e-07
1.02543e-07
1.16251e-07
8.36005e-08
5.61642e-08
1.06449e-07
1.18257e-07
6.2359e-08
7.90474e-08
7.00568e-08
4.29677e-08
6.97574e-08
6.21215e-08
4.10718e-08
5.17201e-08
7.54587e-08
6.25617e-08
4.37499e-08
5.16004e-08
3.26646e-08
4.82292e-08
8.75415e-08
4.20519e-08
4.11863e-08
7.68402e-08
4.05065e-08
4.3908e-08
8.12652e-08
5.42192e-08
3.20622e-08
7.47602e-08
8.97332e-08
6.08672e-08
7.75951e-08
1.00379e-07
8.43883e-08
1.00954e-07
1.18114e-07
9.14813e-08
1.05832e-07
1.21331e-07
8.84584e-08
1.01035e-07
9.10588e-08
5.026e-08
8.02438e-08
1.07067e-07
6.16721e-08
6.47252e-08
7.22468e-08
4.24795e-08
5.41442e-08
5.86244e-08
3.83183e-08
4.20077e-08
6.32482e-08
5.56107e-08
3.86023e-08
5.1373e-08
3.89568e-08
3.57034e-08
7.13869e-08
4.6904e-08
3.16269e-08
6.86022e-08
4.89087e-08
3.16477e-08
7.01331e-08
6.42093e-08
3.50008e-08
6.54189e-08
9.04118e-08
6.47271e-08
6.96971e-08
9.81301e-08
8.51195e-08
8.76749e-08
1.0856e-07
8.95512e-08
9.23433e-08
1.10233e-07
8.27021e-08
8.71157e-08
9.43921e-08
5.35235e-08
6.40942e-08
9.51082e-08
6.57394e-08
5.50999e-08
7.03508e-08
4.84888e-08
4.57753e-08
5.58301e-08
4.03011e-08
3.5425e-08
5.3112e-08
5.05924e-08
3.31553e-08
4.84926e-08
4.5677e-08
3.137e-08
5.82262e-08
5.52606e-08
3.12708e-08
5.92126e-08
6.01961e-08
3.1963e-08
5.96368e-08
7.35261e-08
4.44469e-08
5.79618e-08
9.03334e-08
7.41854e-08