/*--------------------------------*- C++ -*----------------------------------*\
  =========                 |
  \\      /  F ield         | OpenFOAM: The Open Source CFD Toolbox
   \\    /   O peration     | Website:  https://openfoam.org
    \\  /    A nd           | Version:  10
     \\/     M anipulation  |
\*---------------------------------------------------------------------------*/
FoamFile
{
    format      ascii;
    class       volVectorField;
    location    "6";
    object      UMean;
}
// * * * * * * * * * * * * * * * * * * * * * * * * * * * * * * * * * * * * * //

dimensions      [0 1 -1 0 0 0 0];

internalField   nonuniform List<vector> 
25600
(
(0.11998 9.3219e-06 0.00112831)
(0.118548 -1.02208e-05 0.0021086)
(0.117848 4.7341e-06 0.00176667)
(0.118295 4.1158e-06 0.00145351)
(0.119182 1.71935e-05 0.000445083)
(0.117702 4.01685e-05 0.000845396)
(0.117124 7.0475e-05 0.00176203)
(0.116455 5.48398e-05 0.00284192)
(0.116939 1.42974e-05 0.00216841)
(0.117759 -4.12748e-06 0.0014717)
(0.11785 1.1558e-05 0.00121941)
(0.117656 1.84871e-05 0.0019043)
(0.116973 1.13832e-05 0.00200798)
(0.117275 -1.40331e-05 0.000724141)
(0.117549 -1.16145e-05 -0.000412371)
(0.116273 2.87337e-05 0.000154789)
(0.115898 5.1305e-05 0.00150924)
(0.114344 3.80498e-05 0.00222699)
(0.115403 -5.35031e-06 0.00117028)
(0.115401 -1.49581e-05 0.000198581)
(0.116717 3.43373e-05 8.06624e-05)
(0.116164 5.0598e-05 0.000962659)
(0.118361 -1.7111e-06 0.00112308)
(0.118186 -1.21521e-05 0.000402291)
(0.119874 -1.05564e-05 -0.000371956)
(0.120602 3.22839e-05 -0.00031502)
(0.119496 6.81018e-05 0.000640459)
(0.119145 5.67174e-05 0.000770336)
(0.118344 1.45803e-05 0.000276196)
(0.118679 2.01525e-05 -0.000172878)
(0.119803 4.10526e-06 0.000261247)
(0.118525 2.57832e-05 0.00128217)
(0.120383 3.22142e-05 0.00129086)
(0.1183 -1.06872e-05 0.00130816)
(0.120669 7.48366e-06 0.00102314)
(0.118165 1.48114e-05 0.00159394)
(0.119984 1.2269e-05 0.00181558)
(0.118089 9.60932e-06 0.00232621)
(0.120555 -1.57709e-05 0.0010053)
(0.118906 -1.84084e-05 0.00100716)
(0.348621 5.1725e-06 0.00127818)
(0.344036 0.000167845 0.00411913)
(0.34093 0.000149366 0.00411891)
(0.34278 -3.24388e-05 0.00435185)
(0.345527 0.000171981 0.00165994)
(0.34173 0.000326334 0.00250284)
(0.340333 0.000574648 0.00392983)
(0.338216 0.000529741 0.00673682)
(0.339973 0.000272909 0.00577735)
(0.3419 0.000138012 0.00439652)
(0.342314 0.000229857 0.00346157)
(0.341668 0.000352497 0.00524241)
(0.339621 0.000368676 0.00542219)
(0.34049 0.000166717 0.00260552)
(0.340167 0.000216651 -0.000188914)
(0.336905 0.000394563 0.000656141)
(0.336468 0.000516552 0.00319196)
(0.331481 0.000522252 0.00534963)
(0.333933 0.000280231 0.00337201)
(0.333283 0.000277454 0.00143542)
(0.336947 0.000400064 0.000275946)
(0.33672 0.000474907 0.00204685)
(0.342951 0.000304165 0.00211035)
(0.341784 0.000258839 0.00113512)
(0.346599 2.85623e-05 -0.000680729)
(0.349453 0.000348014 -0.00127981)
(0.346374 0.000572927 0.00057287)
(0.346461 0.000561777 0.0013122)
(0.343634 0.000424282 0.000955282)
(0.344768 0.000298447 -9.1981e-06)
(0.348291 0.000353126 0.000122943)
(0.343028 0.000370409 0.00219218)
(0.34926 0.00038271 0.00204487)
(0.342924 9.51386e-05 0.00244598)
(0.350442 8.04564e-05 0.0014906)
(0.343346 0.000121613 0.00258317)
(0.349146 0.000138301 0.00318644)
(0.343 0.000207347 0.00504218)
(0.349663 8.62646e-05 0.00241287)
(0.343859 -0.000125841 0.00183032)
(0.55439 0.000174926 -0.00130347)
(0.549219 0.000531281 0.00301894)
(0.548049 0.000668875 0.00326819)
(0.54529 0.000266353 0.00514826)
(0.549544 0.000642214 0.00173915)
(0.543735 0.000851792 0.00261138)
(0.542209 0.00127283 0.0032885)
(0.540002 0.00126551 0.00708087)
(0.543321 0.000918639 0.00628229)
(0.545076 0.000738123 0.00486371)
(0.54763 0.000983372 0.00352575)
(0.544866 0.00126923 0.00623587)
(0.543802 0.00140318 0.00647704)
(0.544126 0.00108878 0.00350171)
(0.542633 0.00118758 -0.00105017)
(0.538474 0.00153928 -0.000474402)
(0.537386 0.00160509 0.00192136)
(0.531094 0.00171181 0.00542703)
(0.533419 0.00130972 0.00349112)
(0.529529 0.00120895 0.00169188)
(0.537531 0.00137944 0.000401004)
(0.534013 0.00139756 0.00225668)
(0.546113 0.00108316 0.00177027)
(0.543737 0.00123452 0.000537024)
(0.550753 0.000617225 -0.00194862)
(0.552417 0.00106636 -0.00325326)
(0.554996 0.00139302 -0.00105347)
(0.550723 0.00165226 -0.000180904)
(0.549992 0.0013638 -0.00144784)
(0.549475 0.00104561 -0.00195877)
(0.554507 0.00108364 -0.0022164)
(0.547571 0.00106931 0.00101429)
(0.557022 0.00121791 -8.35308e-06)
(0.548207 0.000685907 0.000512442)
(0.556351 0.000580346 -0.00113117)
(0.549068 0.00048246 0.000412334)
(0.558037 0.00054576 0.000778761)
(0.545956 0.000661912 0.00406061)
(0.559278 0.000524384 0.00109571)
(0.548562 0.000140313 0.00115299)
(0.722504 0.0012532 -0.00610592)
(0.712982 0.0016575 -0.00238057)
(0.717403 0.00188363 -0.00180837)
(0.706357 0.00144227 0.000547857)
(0.71481 0.00177619 -0.00273973)
(0.704184 0.00199402 -0.00247387)
(0.704831 0.00247135 -0.00264446)
(0.700254 0.00227533 0.00162251)
(0.707978 0.00197559 0.000573798)
(0.707574 0.00210431 -0.000712547)
(0.713629 0.00264171 -0.00228111)
(0.709261 0.00328258 0.00235188)
(0.709345 0.00352714 0.00385615)
(0.710166 0.00337513 0.00172551)
(0.707661 0.00354901 -0.00533334)
(0.705196 0.00394522 -0.00559646)
(0.701459 0.00408884 -0.00392153)
(0.696776 0.00405496 0.00163157)
(0.6963 0.00341257 0.000219211)
(0.691231 0.00336944 -0.000187886)
(0.691799 0.00333681 -0.00153902)
(0.693289 0.00343097 0.0013589)
(0.70002 0.00268366 0.00120929)
(0.706064 0.00308959 -0.00117372)
(0.706206 0.00220826 -0.00475705)
(0.712644 0.0025837 -0.00610691)
(0.712957 0.00285768 -0.00528021)
(0.712734 0.0032054 -0.00448638)
(0.717102 0.0028927 -0.00778294)
(0.711984 0.00261735 -0.00801039)
(0.718412 0.0028655 -0.00879974)
(0.707075 0.00253777 -0.0037126)
(0.722971 0.00268759 -0.00495062)
(0.714418 0.00191671 -0.00501287)
(0.725372 0.00198599 -0.00815768)
(0.717438 0.00166972 -0.00754115)
(0.727932 0.00171044 -0.00646452)
(0.714152 0.00178739 -0.00246607)
(0.728659 0.0016965 -0.00405732)
(0.713047 0.0014138 -0.00281838)
(0.836911 0.00379291 -0.0126265)
(0.827028 0.00413545 -0.0100178)
(0.834731 0.00470275 -0.00893195)
(0.819263 0.00425815 -0.00841526)
(0.828586 0.00419027 -0.0110575)
(0.816992 0.00450028 -0.0118598)
(0.816003 0.00483169 -0.0125026)
(0.810106 0.0047126 -0.00946526)
(0.817113 0.00424044 -0.0101916)
(0.818066 0.00469826 -0.0111915)
(0.828163 0.00565861 -0.0131723)
(0.821424 0.00658829 -0.00761179)
(0.827873 0.00688268 -0.00266372)
(0.823892 0.00700896 -0.00243899)
(0.828046 0.00737088 -0.00962894)
(0.822541 0.00799134 -0.0128134)
(0.821428 0.00797195 -0.0110202)
(0.819806 0.00786932 -0.00451363)
(0.814765 0.00692036 -0.0042056)
(0.807973 0.00689235 -0.00313613)
(0.804002 0.00674419 -0.00395732)
(0.80001 0.00681272 -0.000507885)
(0.808782 0.00583834 0.000845915)
(0.809278 0.00645805 -0.00174551)
(0.812223 0.00541657 -0.00526536)
(0.808775 0.00551697 -0.00834696)
(0.816721 0.00563611 -0.00860564)
(0.811009 0.00573939 -0.00885077)
(0.82648 0.00555712 -0.0135749)
(0.810429 0.00531376 -0.0147064)
(0.830208 0.00576366 -0.0162006)
(0.812577 0.00558525 -0.0100704)
(0.833733 0.00559319 -0.011351)
(0.824448 0.00484157 -0.0109533)
(0.838076 0.0047202 -0.0159315)
(0.834517 0.00464703 -0.0165107)
(0.842601 0.00459926 -0.0170187)
(0.829622 0.00469765 -0.0132558)
(0.842796 0.0044978 -0.0138125)
(0.828587 0.00434925 -0.0108486)
(0.906297 0.00811645 -0.0177018)
(0.899428 0.00812846 -0.0142121)
(0.90613 0.00881162 -0.0127823)
(0.899268 0.00875598 -0.0136594)
(0.895588 0.00804113 -0.0153884)
(0.894212 0.00835285 -0.0158911)
(0.888439 0.00823744 -0.0167149)
(0.884801 0.00816712 -0.0153155)
(0.889214 0.00742375 -0.016215)
(0.892079 0.00804644 -0.0172671)
(0.896657 0.00907996 -0.0185066)
(0.901299 0.0104053 -0.0144357)
(0.898506 0.0108442 -0.00795501)
(0.904418 0.0112242 -0.00438554)
(0.8975 0.0115375 -0.00928993)
(0.902179 0.0124587 -0.0124347)
(0.893942 0.0123208 -0.0128366)
(0.893979 0.0121692 -0.00872304)
(0.886398 0.0112048 -0.00654019)
(0.876035 0.0107854 -0.00498355)
(0.869091 0.0103544 -0.00360515)
(0.868399 0.0105446 -0.0011037)
(0.867437 0.00943592 0.00246086)
(0.871297 0.0104491 -0.000448546)
(0.870095 0.00958963 -0.00260253)
(0.865915 0.00949339 -0.00535589)
(0.872472 0.00924256 -0.00705992)
(0.871207 0.00932122 -0.00669186)
(0.882969 0.00939999 -0.0127195)
(0.874507 0.00896755 -0.0138946)
(0.885041 0.00938795 -0.0179133)
(0.87533 0.00902273 -0.0106421)
(0.892868 0.00903091 -0.0107405)
(0.89172 0.00874306 -0.0101358)
(0.903195 0.00837215 -0.0159692)
(0.9076 0.00841731 -0.0166669)
(0.913594 0.00854363 -0.0195448)
(0.905567 0.00879379 -0.0175543)
(0.911525 0.00830903 -0.0201761)
(0.906091 0.00852314 -0.0165943)
(0.945916 0.0118138 -0.0104487)
(0.945326 0.012013 -0.00865305)
(0.942496 0.0119228 -0.00735312)
(0.947501 0.0127651 -0.0101444)
(0.935534 0.0115994 -0.0119927)
(0.942314 0.0117927 -0.0115613)
(0.930743 0.0111259 -0.0116195)
(0.936978 0.0108751 -0.0104096)
(0.925541 0.00978761 -0.0115676)
(0.934809 0.0105967 -0.0109674)
(0.927291 0.0114612 -0.0122938)
(0.93663 0.01292 -0.00884683)
(0.931081 0.0135041 -0.00403226)
(0.946662 0.0143904 0.000875407)
(0.934459 0.0155294 -0.000825243)
(0.940556 0.0161031 -0.00106403)
(0.938114 0.0162679 -0.0041643)
(0.938581 0.0158485 -0.0039069)
(0.935054 0.0153325 -0.00445439)
(0.925895 0.0145531 -0.00382061)
(0.918132 0.0136732 -0.0021778)
(0.910862 0.0135802 -3.5725e-05)
(0.915648 0.0124301 0.00435101)
(0.904574 0.0134062 0.00441421)
(0.917786 0.0128579 0.00449019)
(0.903273 0.0123529 0.00344818)
(0.924726 0.0123332 0.00273924)
(0.905501 0.0125959 0.00349954)
(0.92815 0.0129125 -0.000514634)
(0.908634 0.0121705 -0.0035433)
(0.927653 0.0128387 -0.00628472)
(0.908141 0.0121692 -0.00354748)
(0.922385 0.0122502 -0.000654355)
(0.915464 0.0122314 -0.00171628)
(0.932924 0.012097 -0.0044047)
(0.928078 0.0122448 -0.00649263)
(0.940419 0.0122104 -0.00654909)
(0.938717 0.0124769 -0.00723874)
(0.943259 0.011787 -0.0103026)
(0.943608 0.0121979 -0.0101062)
(0.962121 0.0131415 0.00637362)
(0.975859 0.0137107 0.00864058)
(0.961465 0.0130494 0.00904905)
(0.977989 0.0143901 0.00607919)
(0.960779 0.0132863 0.00240803)
(0.972268 0.0134575 0.00327076)
(0.958749 0.0122196 0.00242052)
(0.967085 0.0124328 0.00302436)
(0.951093 0.0115218 0.00222374)
(0.955754 0.0117509 0.00401588)
(0.950251 0.012316 0.00251761)
(0.955088 0.013071 0.00656464)
(0.950659 0.0133026 0.00873697)
(0.956602 0.0141766 0.0139957)
(0.953323 0.0158807 0.0119238)
(0.957624 0.016028 0.0159483)
(0.960138 0.0168492 0.0133671)
(0.960058 0.016241 0.0117218)
(0.968214 0.0160679 0.00884554)
(0.964699 0.0157828 0.00566707)
(0.956621 0.0156102 0.00678299)
(0.9439 0.0149465 0.00568389)
(0.949394 0.0144248 0.00955682)
(0.934291 0.0154128 0.00984547)
(0.951564 0.0151552 0.0126196)
(0.933289 0.0140095 0.0136682)
(0.956846 0.0141501 0.0142633)
(0.936146 0.0150804 0.0155231)
(0.953961 0.0150761 0.0131791)
(0.938754 0.0146439 0.0120852)
(0.948353 0.0149982 0.00975144)
(0.938639 0.0148018 0.0103183)
(0.938992 0.0144088 0.0125826)
(0.942507 0.0143861 0.0120198)
(0.940374 0.013999 0.0108733)
(0.950623 0.0140561 0.0108221)
(0.952138 0.0134249 0.0118198)
(0.961002 0.0140549 0.0113687)
(0.957236 0.0130768 0.00771083)
(0.970165 0.0139233 0.00757465)
(0.985138 0.0130821 0.0233029)
(0.999193 0.013431 0.0259083)
(0.987016 0.0125877 0.0263033)
(1.00045 0.0134957 0.0245232)
(0.993102 0.0125421 0.0210381)
(1.00234 0.0122756 0.020013)
(0.995356 0.0111694 0.0187965)
(0.997281 0.0116985 0.0179299)
(0.989091 0.011673 0.0168076)
(0.986306 0.0113801 0.0184357)
(0.984217 0.0117887 0.0184839)
(0.978807 0.0117289 0.0215488)
(0.981403 0.011859 0.0253212)
(0.977634 0.012275 0.0268803)
(0.980855 0.0140537 0.0263594)
(0.972673 0.0136036 0.0301549)
(0.977279 0.0144693 0.0329351)
(0.976703 0.0134398 0.0311997)
(0.990649 0.0133418 0.0294474)
(0.990039 0.0140225 0.0232963)
(0.992628 0.015043 0.0232335)
(0.975557 0.0146247 0.0201484)
(0.980145 0.0141731 0.0212868)
(0.968265 0.015182 0.0194629)
(0.981297 0.0150274 0.0205985)
(0.97054 0.0135349 0.0221971)
(0.982547 0.0129387 0.0228346)
(0.974785 0.0141089 0.0238455)
(0.988197 0.0135735 0.0224468)
(0.980487 0.013805 0.0229039)
(0.979182 0.0141937 0.0235373)
(0.976259 0.0146636 0.0235175)
(0.968404 0.0139681 0.0243764)
(0.978409 0.0144101 0.0237007)
(0.967924 0.014213 0.0231481)
(0.983587 0.014242 0.0253405)
(0.973505 0.0132943 0.0271184)
(0.988709 0.0140889 0.0279698)
(0.979645 0.0127846 0.0248598)
(0.994331 0.0134945 0.0250375)
(1.01491 0.00850101 0.0301526)
(1.01957 0.00888861 0.0309046)
(1.01397 0.00837939 0.0311453)
(1.01927 0.0090379 0.0289436)
(1.02517 0.00794685 0.0274073)
(1.03135 0.00728064 0.0261468)
(1.03371 0.00660238 0.0265971)
(1.02631 0.00715905 0.0260598)
(1.02546 0.00777457 0.0259556)
(1.01638 0.00760433 0.0262676)
(1.02087 0.00842683 0.0264234)
(1.01131 0.00831378 0.0262182)
(1.01765 0.00859444 0.0295862)
(1.01229 0.00858204 0.0288883)
(1.0157 0.0105193 0.0270816)
(1.0057 0.00975651 0.0273424)
(1.00916 0.00948953 0.0314133)
(1.00105 0.00773728 0.0301475)
(1.01108 0.00739894 0.0294197)
(1.0085 0.00812221 0.0254532)
(1.01614 0.00966558 0.0257253)
(1.00173 0.0102257 0.0248852)
(1.00406 0.00963746 0.0248196)
(0.995416 0.0110682 0.0221701)
(1.00725 0.010527 0.0198412)
(1.00577 0.00936575 0.0215907)
(1.00852 0.00871874 0.0216156)
(1.00571 0.00930212 0.0246514)
(1.01595 0.00799998 0.0250618)
(1.01619 0.00837422 0.0260405)
(1.01036 0.00892789 0.0272268)
(1.01112 0.00996189 0.029231)
(0.998576 0.00931534 0.0287568)
(1.01059 0.00945519 0.0296126)
(0.998978 0.00914927 0.0272991)
(1.0144 0.00907002 0.0303757)
(1.00668 0.00796169 0.0322438)
(1.01618 0.00832358 0.0351565)
(1.0117 0.00725791 0.0336819)
(1.02213 0.00760037 0.0330212)
(1.04907 0.0016573 0.0291282)
(1.0514 0.00210751 0.0293915)
(1.04515 0.00217445 0.03018)
(1.04501 0.00258412 0.0279259)
(1.05073 0.00145222 0.0266625)
(1.05602 0.00101053 0.0271225)
(1.06213 0.00127366 0.0287999)
(1.05263 0.0027645 0.0308914)
(1.05306 0.00372154 0.0316644)
(1.04482 0.00366976 0.0302135)
(1.0459 0.00410283 0.0295822)
(1.04244 0.00426644 0.0250889)
(1.04657 0.00428249 0.0250629)
(1.04621 0.00423847 0.0234021)
(1.04372 0.00561242 0.019999)
(1.04017 0.00502203 0.0165215)
(1.03971 0.00461112 0.0197351)
(1.03504 0.0030532 0.0211315)
(1.03372 0.00199238 0.0237778)
(1.03163 0.00228355 0.0236922)
(1.03192 0.00370268 0.0242264)
(1.02481 0.00444721 0.0247402)
(1.02305 0.00353357 0.0258307)
(1.01249 0.00452961 0.0234638)
(1.02531 0.00330037 0.0223158)
(1.02695 0.00268563 0.0239352)
(1.02639 0.00289927 0.0257003)
(1.02665 0.0037078 0.0313098)
(1.03252 0.00241658 0.0334673)
(1.03932 0.00347993 0.0313192)
(1.0344 0.00419624 0.0295082)
(1.04126 0.00526077 0.0294833)
(1.03207 0.00457934 0.0288593)
(1.04715 0.00407312 0.0295834)
(1.03702 0.00388884 0.0277748)
(1.04668 0.00292858 0.0268304)
(1.04472 0.00164491 0.0269683)
(1.05002 0.00185952 0.0296143)
(1.04679 0.000995827 0.0304955)
(1.05433 0.000534847 0.0307875)
(1.05831 -0.00225558 0.0264052)
(1.06277 -0.0021843 0.0258481)
(1.06202 -0.00192354 0.0287063)
(1.06394 -0.00209647 0.0295087)
(1.06657 -0.00272612 0.0291122)
(1.06883 -0.00315671 0.0285792)
(1.0725 -0.00235191 0.0286676)
(1.06494 -0.00100297 0.0294837)
(1.06638 -0.000693397 0.028775)
(1.06287 -0.00116615 0.0266083)
(1.06219 -0.0015967 0.0260655)
(1.05902 -0.00153648 0.0216782)
(1.05865 -0.00174006 0.0194292)
(1.05693 -0.00165806 0.0188792)
(1.05231 -0.000501904 0.0179876)
(1.05147 -0.000700375 0.0150608)
(1.05205 -0.000849587 0.016609)
(1.05428 -0.00163757 0.0191494)
(1.05293 -0.00250722 0.0231547)
(1.05418 -0.00213933 0.0237938)
(1.05252 -0.000438917 0.0237401)
(1.04942 0.000312483 0.0243173)
(1.05047 -0.000187761 0.0248363)
(1.03928 0.000171139 0.0262392)
(1.05188 -0.00211002 0.0257134)
(1.05628 -0.00190244 0.0262664)
(1.05771 -0.0020334 0.0270981)
(1.0577 -0.00211034 0.0298465)
(1.06296 -0.00429166 0.029022)
(1.0659 -0.00317115 0.0264718)
(1.06135 -0.00272943 0.0250318)
(1.06373 -0.00167072 0.0232316)
(1.05919 -0.0023278 0.0233195)
(1.06814 -0.00257909 0.0228419)
(1.06061 -0.0019269 0.0242267)
(1.06247 -0.00229516 0.0237952)
(1.05944 -0.00312142 0.0231541)
(1.0621 -0.0027917 0.0233674)
(1.05951 -0.0033077 0.0248954)
(1.06417 -0.00369811 0.0259994)
(1.05699 -0.00659118 0.0152163)
(1.05864 -0.00649234 0.0138524)
(1.05972 -0.00679067 0.0157742)
(1.06358 -0.00725707 0.0166201)
(1.06449 -0.00754953 0.017234)
(1.06533 -0.0077608 0.0164389)
(1.06533 -0.00674061 0.0158767)
(1.06098 -0.00554775 0.015739)
(1.06242 -0.00595289 0.0140109)
(1.06328 -0.00642123 0.0121184)
(1.06484 -0.0070343 0.0118635)
(1.0634 -0.00620174 0.010204)
(1.06257 -0.00614769 0.00892796)
(1.06057 -0.00558387 0.00898706)
(1.05791 -0.00502792 0.00991846)
(1.0592 -0.00515669 0.00938225)
(1.0605 -0.00566942 0.00998435)
(1.06453 -0.00604527 0.0105217)
(1.06336 -0.00676821 0.0122142)
(1.06501 -0.00663093 0.0116407)
(1.06338 -0.00490534 0.0109646)
(1.06331 -0.0045052 0.011449)
(1.06358 -0.00425198 0.0107273)
(1.05969 -0.00422563 0.0127758)
(1.06741 -0.0070851 0.0107873)
(1.07121 -0.00649352 0.0106849)
(1.07306 -0.00608086 0.0106881)
(1.07374 -0.00613455 0.0115233)
(1.07522 -0.00836382 0.0106885)
(1.07536 -0.0075845 0.00938478)
(1.0735 -0.00711863 0.00968829)
(1.07343 -0.00590691 0.00942504)
(1.07266 -0.00688358 0.0106208)
(1.075 -0.00713453 0.0102426)
(1.07126 -0.00660196 0.0109741)
(1.07006 -0.00683209 0.0120968)
(1.06749 -0.00738784 0.0127781)
(1.06629 -0.00703621 0.0127518)
(1.06265 -0.00771476 0.0133021)
(1.06158 -0.00772607 0.0133433)
(1.05182 -0.00705613 0.000423621)
(1.05194 -0.00676498 -0.000557089)
(1.05187 -0.00691904 -8.38954e-05)
(1.05276 -0.00718728 -0.000476996)
(1.05125 -0.0073746 -0.000448147)
(1.0507 -0.00739233 -0.000787358)
(1.0488 -0.00629513 -0.000546614)
(1.04779 -0.00532888 0.000395853)
(1.04891 -0.0062226 -0.000143752)
(1.05043 -0.00687709 -0.000900448)
(1.05165 -0.00788815 -0.00103667)
(1.05194 -0.00725366 -0.00156411)
(1.05229 -0.00738548 -0.00194369)
(1.05157 -0.00695325 -0.00124787)
(1.05126 -0.00700417 -0.000638706)
(1.05357 -0.00727399 -0.00100854)
(1.05554 -0.00766194 -0.00100422)
(1.05749 -0.00770272 -0.00152747)
(1.05573 -0.00776747 -0.00105743)
(1.05517 -0.00734523 -0.00144916)
(1.0536 -0.00577538 -0.00193299)
(1.05436 -0.00538974 -0.00210152)
(1.05248 -0.00500451 -0.00211451)
(1.05319 -0.00524782 -0.00111722)
(1.05504 -0.00787807 -0.00249559)
(1.05664 -0.00722543 -0.00349705)
(1.05669 -0.0063749 -0.00402194)
(1.05856 -0.00605107 -0.00358644)
(1.05784 -0.0076433 -0.00296237)
(1.0574 -0.00701335 -0.0031116)
(1.05793 -0.00670393 -0.00260731)
(1.0594 -0.00598405 -0.00251568)
(1.06087 -0.00688011 -0.00145337)
(1.06103 -0.00721398 -0.000707521)
(1.06047 -0.00661776 -0.000468449)
(1.06008 -0.00698172 -0.000191437)
(1.05935 -0.00730806 -0.000188674)
(1.05866 -0.00709602 0.000313507)
(1.05617 -0.00742308 0.000154048)
(1.05372 -0.00740788 -3.21668e-05)
(1.03625 -0.00571168 -0.00557738)
(1.03671 -0.00537282 -0.00640659)
(1.03645 -0.00529852 -0.00635801)
(1.0358 -0.00555821 -0.00648634)
(1.03395 -0.00570481 -0.00622678)
(1.03301 -0.00566946 -0.00645247)
(1.03195 -0.00478676 -0.00636366)
(1.03229 -0.00433232 -0.00572288)
(1.0327 -0.00537915 -0.00582549)
(1.03332 -0.00599758 -0.00600213)
(1.03344 -0.00696234 -0.00585257)
(1.0341 -0.00629587 -0.00668418)
(1.03444 -0.00607268 -0.0070001)
(1.03443 -0.00571749 -0.00618926)
(1.03454 -0.00602137 -0.00568445)
(1.03576 -0.00627668 -0.00647538)
(1.03699 -0.00641562 -0.00692326)
(1.03775 -0.00632752 -0.00738417)
(1.03645 -0.00622623 -0.00664043)
(1.03535 -0.00595988 -0.00639414)
(1.03453 -0.00484945 -0.00661739)
(1.03551 -0.00453711 -0.00684265)
(1.03493 -0.00428848 -0.00644316)
(1.03589 -0.00465356 -0.0056375)
(1.03506 -0.00689835 -0.00576274)
(1.03495 -0.00643984 -0.00684039)
(1.03486 -0.00563873 -0.00732313)
(1.0365 -0.00528856 -0.00741912)
(1.03557 -0.0063909 -0.00668173)
(1.03495 -0.00592347 -0.00674147)
(1.03565 -0.00588783 -0.00703993)
(1.03693 -0.00523325 -0.00756216)
(1.03826 -0.00567267 -0.00708917)
(1.03816 -0.00582939 -0.00646391)
(1.03794 -0.00557935 -0.00637173)
(1.03802 -0.00590059 -0.0063576)
(1.03809 -0.00604876 -0.00641603)
(1.03848 -0.00582479 -0.00588974)
(1.03757 -0.00590476 -0.00571485)
(1.03652 -0.00594054 -0.00538541)
(1.024 -0.00393066 -0.00569139)
(1.02448 -0.00369978 -0.00656935)
(1.02453 -0.00360823 -0.00659242)
(1.02433 -0.00375876 -0.00671955)
(1.02319 -0.00395241 -0.00636066)
(1.02261 -0.00394621 -0.00654845)
(1.02258 -0.00333045 -0.00677182)
(1.02334 -0.00294345 -0.00669804)
(1.02335 -0.00375372 -0.00664859)
(1.02339 -0.00402517 -0.00668735)
(1.02327 -0.00474381 -0.00635941)
(1.02344 -0.00424375 -0.00715028)
(1.02366 -0.00409508 -0.0073578)
(1.02365 -0.00388568 -0.00665815)
(1.02373 -0.00428223 -0.00603242)
(1.02395 -0.00466026 -0.00665085)
(1.02422 -0.00483324 -0.00702266)
(1.02443 -0.00483523 -0.00732746)
(1.02384 -0.00474363 -0.00642508)
(1.02324 -0.00462984 -0.00600424)
(1.02309 -0.00392395 -0.00612403)
(1.02402 -0.00377492 -0.0064703)
(1.02423 -0.00350251 -0.00626712)
(1.02487 -0.00373167 -0.00567156)
(1.02428 -0.00534862 -0.00557957)
(1.02348 -0.00511482 -0.00633526)
(1.02334 -0.00445458 -0.00654092)
(1.0241 -0.00412907 -0.00682358)
(1.02371 -0.00478159 -0.00618221)
(1.02326 -0.00449378 -0.00629714)
(1.02361 -0.00447133 -0.0067507)
(1.02415 -0.00394256 -0.00739806)
(1.02494 -0.00412638 -0.00715244)
(1.02473 -0.00438132 -0.00668622)
(1.02453 -0.00419695 -0.00663943)
(1.02442 -0.00445088 -0.00653866)
(1.02432 -0.00446116 -0.00652787)
(1.02471 -0.00424665 -0.00617971)
(1.02446 -0.00419941 -0.00591429)
(1.02397 -0.00413255 -0.00554453)
(1.01853 -0.00268674 -0.00323283)
(1.01873 -0.00254457 -0.00389729)
(1.01888 -0.00241445 -0.00390753)
(1.01904 -0.00247237 -0.00405715)
(1.01861 -0.00263538 -0.00373901)
(1.01825 -0.00257473 -0.00381258)
(1.01841 -0.0021209 -0.00407035)
(1.01898 -0.00179001 -0.00411765)
(1.01893 -0.00235068 -0.00396602)
(1.01879 -0.00251034 -0.00392732)
(1.01863 -0.00313659 -0.00355542)
(1.01848 -0.00291859 -0.00410849)
(1.01853 -0.00289753 -0.00423639)
(1.01847 -0.00276819 -0.00368365)
(1.0186 -0.00302413 -0.00317112)
(1.01866 -0.00331578 -0.00356277)
(1.01861 -0.00330901 -0.00379225)
(1.0186 -0.00326896 -0.00398731)
(1.01835 -0.00316448 -0.00330033)
(1.01806 -0.00306326 -0.00297433)
(1.01808 -0.00252 -0.00313962)
(1.01866 -0.0023779 -0.00345001)
(1.01891 -0.00223509 -0.00344183)
(1.01931 -0.00237116 -0.0030384)
(1.019 -0.00360747 -0.00289593)
(1.01825 -0.00341413 -0.00333057)
(1.01822 -0.00293372 -0.00345534)
(1.0187 -0.00263212 -0.00373106)
(1.01853 -0.00311426 -0.00330887)
(1.01831 -0.00293343 -0.00350005)
(1.01841 -0.00297231 -0.00390867)
(1.01859 -0.00266134 -0.0044351)
(1.01903 -0.0027232 -0.00424687)
(1.01884 -0.00309995 -0.00390249)
(1.01871 -0.00296557 -0.0038977)
(1.01863 -0.00319338 -0.00377332)
(1.01849 -0.00309279 -0.00380281)
(1.01876 -0.00298729 -0.00358214)
(1.01871 -0.00298359 -0.00345591)
(1.01848 -0.00287167 -0.00317429)
(1.01717 -0.00158111 -0.00129337)
(1.01719 -0.00147655 -0.00173495)
(1.01729 -0.00138531 -0.00173349)
(1.01752 -0.00140993 -0.00186233)
(1.0174 -0.00157875 -0.00167695)
(1.01711 -0.00150082 -0.00167575)
(1.01717 -0.00121774 -0.00184892)
(1.0175 -0.000935874 -0.00185006)
(1.01755 -0.0013005 -0.00177294)
(1.01749 -0.0014208 -0.00174545)
(1.01748 -0.00188051 -0.00142948)
(1.01728 -0.00176844 -0.00171338)
(1.01728 -0.00175014 -0.00172761)
(1.01729 -0.00162677 -0.0013644)
(1.01742 -0.00167198 -0.000998153)
(1.01752 -0.00193516 -0.00127876)
(1.01739 -0.00191151 -0.00134391)
(1.01735 -0.00194175 -0.0014875)
(1.01723 -0.00185102 -0.00105743)
(1.01707 -0.0017856 -0.000869087)
(1.01702 -0.00140261 -0.0010076)
(1.01736 -0.00132165 -0.0011484)
(1.01759 -0.00130086 -0.00122023)
(1.01784 -0.00130756 -0.000987319)
(1.01789 -0.00219365 -0.00095239)
(1.0173 -0.00212846 -0.00122826)
(1.01724 -0.00187269 -0.00127028)
(1.01753 -0.00165217 -0.0014757)
(1.01744 -0.00198318 -0.00122942)
(1.01734 -0.00189134 -0.00143282)
(1.01727 -0.00193451 -0.00167015)
(1.01725 -0.00175738 -0.00200701)
(1.01749 -0.001754 -0.00184369)
(1.01743 -0.0020674 -0.00166466)
(1.01736 -0.00192652 -0.00172099)
(1.01733 -0.00207717 -0.00160517)
(1.01717 -0.00193513 -0.00165227)
(1.01735 -0.00187963 -0.00150592)
(1.01735 -0.00188445 -0.00149384)
(1.01718 -0.00172794 -0.00131201)
(1.01723 -0.000892548 -0.000267442)
(1.0172 -0.000777209 -0.000569074)
(1.01728 -0.000730719 -0.000552065)
(1.0175 -0.000733979 -0.000678305)
(1.01745 -0.000931232 -0.000588885)
(1.01721 -0.000834586 -0.000560325)
(1.01723 -0.000641126 -0.000663633)
(1.01742 -0.000416989 -0.000616023)
(1.01749 -0.000680534 -0.000607221)
(1.01748 -0.000732001 -0.000618923)
(1.01753 -0.00106744 -0.000386698)
(1.01736 -0.000998236 -0.000529308)
(1.01734 -0.000990966 -0.00047496)
(1.01738 -0.000940047 -0.000238194)
(1.01745 -0.000910893 3.29148e-05)
(1.01757 -0.00115488 -0.000158917)
(1.01745 -0.0011279 -0.000131811)
(1.01742 -0.00116919 -0.000220969)
(1.01733 -0.00111176 6.29201e-05)
(1.01721 -0.00105549 0.000186233)
(1.01715 -0.000776977 5.99345e-05)
(1.01739 -0.000637391 4.94926e-05)
(1.0176 -0.00071328 -5.21835e-05)
(1.01773 -0.000651236 8.26978e-05)
(1.01787 -0.00135947 3.897e-05)
(1.01743 -0.00128712 -0.000160649)
(1.01738 -0.00114525 -0.000158569)
(1.01759 -0.000992284 -0.000295577)
(1.01749 -0.00120039 -0.000134884)
(1.01744 -0.00115843 -0.000308146)
(1.01733 -0.00116121 -0.000434716)
(1.01728 -0.00107706 -0.000645139)
(1.01743 -0.00101065 -0.00051831)
(1.01743 -0.00127407 -0.000426318)
(1.01739 -0.00115611 -0.000503757)
(1.01737 -0.00126793 -0.000391754)
(1.01723 -0.0011503 -0.000472434)
(1.01737 -0.00107985 -0.000366695)
(1.01741 -0.00113981 -0.000404679)
(1.01726 -0.000990455 -0.0003143)
(1.01745 -0.000493881 9.56308e-05)
(1.01742 -0.000372527 -0.000106402)
(1.01748 -0.000336904 -9.39514e-05)
(1.01767 -0.000337641 -0.000202845)
(1.01765 -0.000516171 -0.000162392)
(1.01745 -0.000411386 -0.000125991)
(1.01748 -0.00028738 -0.000206713)
(1.01761 -0.000122109 -0.00015455)
(1.01765 -0.000295414 -0.000166943)
(1.01763 -0.000318575 -0.000190628)
(1.01769 -0.000564165 -2.70014e-05)
(1.01756 -0.000549866 -0.000110047)
(1.01753 -0.000526235 -3.7099e-05)
(1.01759 -0.000545235 0.00012092)
(1.01761 -0.000456483 0.000334048)
(1.01772 -0.000670392 0.000217794)
(1.01763 -0.000639929 0.00028864)
(1.01761 -0.000695045 0.000233935)
(1.01754 -0.000638801 0.000417538)
(1.01745 -0.000569639 0.000520736)
(1.0174 -0.000379863 0.000391129)
(1.01757 -0.000237438 0.000459409)
(1.01777 -0.000376434 0.000360881)
(1.01783 -0.000281004 0.00043445)
(1.01798 -0.000814555 0.00038534)
(1.01764 -0.000757724 0.000222494)
(1.0176 -0.000681126 0.000238609)
(1.01778 -0.000614578 0.00011909)
(1.01767 -0.00073285 0.000226631)
(1.01765 -0.000738923 8.98991e-05)
(1.01754 -0.000712863 2.2305e-05)
(1.0175 -0.000672679 -0.000114592)
(1.0176 -0.000583357 -2.66982e-05)
(1.01761 -0.000798139 2.49062e-05)
(1.01759 -0.000714225 -4.68355e-05)
(1.01756 -0.000778647 5.88276e-05)
(1.01745 -0.000691625 -2.47274e-05)
(1.01756 -0.00059743 5.68386e-05)
(1.0176 -0.00070029 9.68772e-06)
(1.01749 -0.000551982 4.3363e-05)
(1.01761 -0.000252464 0.000178943)
(1.01758 -0.000145626 3.55998e-05)
(1.01763 -0.000105064 5.96867e-05)
(1.01779 -0.000102056 -3.26706e-05)
(1.01779 -0.000251808 -1.94108e-05)
(1.01763 -0.00016129 8.72468e-06)
(1.01766 -9.25866e-05 -6.8486e-05)
(1.01775 2.03381e-05 -1.76251e-05)
(1.01776 -9.34255e-05 -3.48967e-05)
(1.01773 -0.000104759 -5.98154e-05)
(1.01779 -0.000263071 5.30242e-05)
(1.0177 -0.000286384 7.08554e-07)
(1.01766 -0.000237103 7.33381e-05)
(1.01773 -0.000308171 0.000182024)
(1.01772 -0.000202363 0.000340789)
(1.01781 -0.00038555 0.00027685)
(1.01775 -0.000359158 0.000360396)
(1.01774 -0.000406117 0.000336151)
(1.01768 -0.000375648 0.000451364)
(1.0176 -0.000300208 0.00054963)
(1.01757 -0.000204868 0.00042177)
(1.0177 -3.47571e-05 0.00051697)
(1.01789 -0.000202696 0.000438052)
(1.0179 -9.75711e-05 0.00047786)
(1.01803 -0.000500303 0.000442553)
(1.01778 -0.000464761 0.000295898)
(1.01774 -0.000381835 0.000324863)
(1.0179 -0.000391625 0.000226424)
(1.01779 -0.000433399 0.000303202)
(1.01778 -0.000491855 0.00020245)
(1.01769 -0.000429427 0.000162605)
(1.01766 -0.000427749 6.95652e-05)
(1.01773 -0.000325117 0.000122438)
(1.01772 -0.000478528 0.000162326)
(1.01773 -0.000440362 9.50238e-05)
(1.01769 -0.000450741 0.000194909)
(1.0176 -0.000414801 0.000112243)
(1.01768 -0.000296475 0.000179269)
(1.01774 -0.000412466 0.000138398)
(1.01764 -0.000283547 0.000134428)
(1.0177 -0.000109266 0.000170678)
(1.01769 -3.74632e-05 6.4132e-05)
(1.01772 1.23392e-05 9.9495e-05)
(1.01785 8.27897e-06 1.68982e-05)
(1.01786 -0.000112151 1.71606e-05)
(1.01774 -3.85558e-05 4.25341e-05)
(1.01777 -3.21888e-06 -3.3463e-05)
(1.01784 6.41902e-05 1.72015e-05)
(1.01783 1.21561e-06 -5.61538e-06)
(1.01779 -6.35703e-06 -2.05327e-05)
(1.01784 -8.7046e-05 5.2266e-05)
(1.01779 -0.000147845 1.74863e-05)
(1.01774 -7.3834e-05 7.75013e-05)
(1.01781 -0.000170026 0.000153785)
(1.01778 -6.56778e-05 0.000264565)
(1.01786 -0.000208675 0.000237191)
(1.01782 -0.0002008 0.000313776)
(1.01781 -0.000226178 0.000317972)
(1.01777 -0.000237958 0.000381575)
(1.0177 -0.000131845 0.000478353)
(1.01769 -0.000105827 0.00035283)
(1.01778 8.12268e-05 0.000451281)
(1.01796 -9.34607e-05 0.00039507)
(1.01794 9.84596e-06 0.000409963)
(1.01805 -0.000278619 0.000399307)
(1.01787 -0.00028619 0.000270153)
(1.01783 -0.000181797 0.000307401)
(1.01797 -0.000262462 0.000229113)
(1.01785 -0.000247496 0.000273838)
(1.01786 -0.000342072 0.000206931)
(1.01778 -0.000258083 0.000183794)
(1.01776 -0.000279009 0.00012274)
(1.0178 -0.000184077 0.000148698)
(1.01778 -0.000275112 0.000182444)
(1.01781 -0.000280987 0.000120235)
(1.01777 -0.000250395 0.000213009)
(1.0177 -0.000250051 0.000134848)
(1.01776 -0.000127383 0.000191781)
(1.01781 -0.000236746 0.000156821)
(1.01774 -0.00014462 0.000133592)
(1.01777 -2.86127e-05 0.000140744)
(1.01776 8.96558e-06 4.57825e-05)
(1.01778 6.39944e-05 9.64406e-05)
(1.01788 5.65654e-05 2.42011e-05)