/*--------------------------------*- C++ -*----------------------------------*\
  =========                 |
  \\      /  F ield         | OpenFOAM: The Open Source CFD Toolbox
   \\    /   O peration     | Website:  https://openfoam.org
    \\  /    A nd           | Version:  10
     \\/     M anipulation  |
\*---------------------------------------------------------------------------*/
FoamFile
{
    format      ascii;
    class       volScalarField;
    location    "10";
    object      pMean;
}
// * * * * * * * * * * * * * * * * * * * * * * * * * * * * * * * * * * * * * //

dimensions      [0 2 -2 0 0 0 0];

internalField   nonuniform List<scalar> 
25600
(
-8.91328e-06
-4.347e-06
-1.17075e-05
4.57633e-06
2.29194e-06
2.19749e-05
-2.70325e-06
-8.61178e-06
-1.63878e-05
2.9449e-06
-3.7662e-07
9.44695e-06
1.42876e-06
1.04701e-05
7.46678e-06
7.58887e-06
1.1568e-06
3.58572e-08
-2.79766e-06
6.06857e-06
6.03563e-06
6.81457e-06
7.74392e-06
2.49103e-05
3.48215e-05
2.12507e-05
1.25306e-05
1.54297e-05
2.36363e-05
2.6253e-05
3.23334e-05
3.69697e-06
9.67444e-06
2.53935e-06
1.30231e-05
-4.41553e-06
-1.68029e-06
-2.41588e-06
2.13754e-07
9.08686e-06
-8.34075e-06
-3.41053e-06
-1.04661e-05
5.60961e-06
3.47754e-06
2.26425e-05
-2.12966e-06
-7.53976e-06
-1.52757e-05
4.06691e-06
3.82795e-07
9.90573e-06
1.93519e-06
1.18311e-05
8.62964e-06
8.33792e-06
1.67122e-06
9.11805e-07
-1.92138e-06
6.87323e-06
6.02079e-06
7.05132e-06
8.29289e-06
2.59115e-05
3.56531e-05
2.14248e-05
1.30419e-05
1.6009e-05
2.46266e-05
2.71296e-05
3.32668e-05
3.67388e-06
9.57706e-06
3.74149e-06
1.36044e-05
-3.59428e-06
-1.0246e-06
-1.08866e-06
1.49278e-06
1.06741e-05
-7.11276e-06
-3.91973e-06
-9.8642e-06
8.72983e-06
5.75047e-06
2.41596e-05
-2.74252e-06
-7.04661e-06
-1.30087e-05
6.75904e-06
1.70188e-06
1.12263e-05
3.70122e-06
1.25568e-05
9.69324e-06
9.9705e-06
2.97582e-06
2.06249e-06
-1.47898e-07
8.95036e-06
8.11276e-06
7.34877e-06
9.31859e-06
2.84489e-05
3.82225e-05
2.17719e-05
1.2502e-05
1.72734e-05
2.60139e-05
2.97288e-05
3.31194e-05
5.00998e-06
1.08933e-05
5.2194e-06
1.57585e-05
-2.6376e-06
-1.43844e-06
-2.80498e-07
2.52965e-06
1.20828e-05
-7.0423e-06
-4.56205e-06
-7.16589e-06
1.04576e-05
7.05647e-06
2.54045e-05
-2.79241e-06
-7.25463e-06
-1.26907e-05
7.06725e-06
2.41278e-06
1.0734e-05
3.58798e-06
1.55416e-05
1.1686e-05
1.15371e-05
4.43508e-06
3.83123e-06
6.61664e-07
8.5698e-06
6.85004e-06
8.2558e-06
8.95177e-06
3.16756e-05
4.07454e-05
2.17416e-05
1.24453e-05
1.67191e-05
2.73834e-05
3.15892e-05
3.46438e-05
2.64823e-06
9.01281e-06
7.04096e-06
1.59194e-05
-2.05428e-06
-3.2608e-06
2.52169e-07
4.7954e-06
1.41833e-05
-1.28576e-05
-1.3578e-05
-1.55556e-05
6.04343e-06
4.61848e-06
1.87973e-05
-8.78877e-06
-1.22358e-05
-1.74463e-05
3.07181e-06
-4.35736e-06
2.36974e-06
-1.97195e-06
8.81508e-06
7.36278e-06
8.62586e-06
-1.51313e-06
-1.30357e-06
-2.18498e-06
7.35368e-06
4.91298e-06
2.56256e-06
4.94868e-06
2.52789e-05
3.73249e-05
1.76578e-05
6.37415e-06
1.1322e-05
1.83899e-05
2.49619e-05
2.68361e-05
-2.02075e-06
2.37229e-06
1.30949e-06
9.70203e-06
-6.14428e-06
-1.14517e-05
-6.83951e-06
-4.70179e-06
7.77692e-06
-2.78586e-05
-2.84077e-05
-2.71649e-05
-8.05728e-06
-1.02988e-05
3.96723e-06
-2.88634e-05
-3.08469e-05
-3.32786e-05
-1.29663e-05
-1.90226e-05
-1.33115e-05
-1.73941e-05
-3.88402e-06
-5.44628e-06
-5.94805e-06
-1.52526e-05
-1.5629e-05
-1.7222e-05
-1.05562e-05
-1.06278e-05
-1.23412e-05
-1.09187e-05
1.37732e-05
1.87036e-05
-2.7225e-06
-1.25028e-05
-7.08581e-06
-5.26028e-07
5.04985e-06
9.34529e-06
-2.50478e-05
-1.78717e-05
-1.55786e-05
-7.98639e-06
-2.46848e-05
-2.53449e-05
-2.32682e-05
-2.09506e-05
-1.12821e-05
-5.20387e-05
-4.93792e-05
-5.14486e-05
-2.47716e-05
-2.94605e-05
-1.78804e-05
-4.79941e-05
-5.11494e-05
-5.79494e-05
-3.80436e-05
-4.21842e-05
-3.90902e-05
-3.96539e-05
-2.61124e-05
-2.3554e-05
-2.77307e-05
-3.32288e-05
-3.77416e-05
-3.6842e-05
-2.71811e-05
-2.80599e-05
-3.20265e-05
-2.89915e-05
-1.26762e-05
-5.49954e-06
-2.90699e-05
-3.80303e-05
-3.46381e-05
-2.91405e-05
-2.12739e-05
-1.98599e-05
-4.25547e-05
-4.19927e-05
-4.00525e-05
-2.98886e-05
-4.65948e-05
-5.60375e-05
-4.74207e-05
-4.38577e-05
-3.60223e-05
-6.90107e-05
-6.49711e-05
-6.49972e-05
-4.69594e-05
-5.17309e-05
-3.92482e-05
-6.55338e-05
-7.10598e-05
-7.9766e-05
-6.18323e-05
-5.95985e-05
-5.52407e-05
-5.57832e-05
-4.71459e-05
-4.47482e-05
-4.65427e-05
-5.11279e-05
-5.658e-05
-5.7756e-05
-4.52212e-05
-4.74021e-05
-4.58853e-05
-4.77685e-05
-3.52462e-05
-3.2669e-05
-5.32513e-05
-6.32727e-05
-5.91123e-05
-5.52302e-05
-4.67928e-05
-4.0177e-05
-6.4331e-05
-6.48063e-05
-6.05884e-05
-5.44608e-05
-6.4946e-05
-7.44079e-05
-6.68722e-05
-6.8124e-05
-5.61307e-05
-7.52899e-05
-7.10012e-05
-7.3237e-05
-5.42398e-05
-6.30063e-05
-5.04317e-05
-7.04133e-05
-7.64826e-05
-8.36062e-05
-7.10552e-05
-6.59957e-05
-6.39213e-05
-6.32755e-05
-5.47831e-05
-4.97779e-05
-5.56096e-05
-5.89066e-05
-6.21708e-05
-6.24981e-05
-5.45414e-05
-5.10972e-05
-4.90658e-05
-5.19838e-05
-4.64286e-05
-4.53619e-05
-6.26379e-05
-7.36138e-05
-7.13175e-05
-6.51378e-05
-6.09597e-05
-5.49975e-05
-6.88058e-05
-7.24714e-05
-6.91962e-05
-6.48963e-05
-7.25265e-05
-8.31659e-05
-7.57989e-05
-7.64063e-05
-6.55297e-05
-6.4394e-05
-5.8422e-05
-5.92785e-05
-4.94044e-05
-5.52696e-05
-4.34847e-05
-5.55363e-05
-6.15339e-05
-6.89966e-05
-6.25099e-05
-5.52178e-05
-5.01375e-05
-4.90517e-05
-4.59412e-05
-4.39849e-05
-4.70807e-05
-4.99471e-05
-4.93527e-05
-5.63232e-05
-4.58135e-05
-4.42469e-05
-3.88932e-05
-4.26242e-05
-3.95978e-05
-3.91154e-05
-5.11166e-05
-6.27202e-05
-6.13021e-05
-5.64379e-05
-5.381e-05
-4.66387e-05
-5.63249e-05
-6.18216e-05
-5.85883e-05
-5.6493e-05
-5.89528e-05
-7.00604e-05
-6.46064e-05
-6.58908e-05
-5.69767e-05
-4.82594e-05
-4.38054e-05
-4.58369e-05
-3.70902e-05
-4.07221e-05
-3.25098e-05
-3.80369e-05
-4.31021e-05
-5.02604e-05
-4.73792e-05
-4.05355e-05
-3.70838e-05
-3.60039e-05
-3.3088e-05
-3.1114e-05
-3.32576e-05
-3.46302e-05
-3.41307e-05
-3.83301e-05
-3.35612e-05
-3.14665e-05
-2.6888e-05
-2.86358e-05
-2.72036e-05
-2.63144e-05
-3.48702e-05
-4.57245e-05
-4.46239e-05
-4.06111e-05
-3.85543e-05
-3.31003e-05
-3.77048e-05
-4.26702e-05
-4.19415e-05
-4.19903e-05
-4.28491e-05
-5.20165e-05
-4.77609e-05
-4.93239e-05
-4.27059e-05
-3.58662e-05
-3.23564e-05
-3.24572e-05
-2.64055e-05
-2.97364e-05
-2.43491e-05
-2.59887e-05
-2.93697e-05
-3.5242e-05
-3.49396e-05
-3.00508e-05
-2.52696e-05
-2.38422e-05
-2.29923e-05
-2.23535e-05
-2.28667e-05
-2.52105e-05
-2.29191e-05
-2.77855e-05
-2.49719e-05
-2.36829e-05
-1.9049e-05
-1.87694e-05
-1.76368e-05
-1.74734e-05
-2.31793e-05
-3.16789e-05
-3.17425e-05
-2.84123e-05
-2.69505e-05
-2.32863e-05
-2.51063e-05
-2.92502e-05
-2.8641e-05
-3.01044e-05
-2.94466e-05
-3.66974e-05
-3.36499e-05
-3.57522e-05
-3.09837e-05
-2.56413e-05
-2.29321e-05
-2.24455e-05
-1.82448e-05
-2.08997e-05
-1.76747e-05
-1.70518e-05
-1.875e-05
-2.35055e-05
-2.47003e-05
-2.11451e-05
-1.65865e-05
-1.55852e-05
-1.51801e-05
-1.46006e-05
-1.50388e-05
-1.6494e-05
-1.41994e-05
-1.76398e-05
-1.67896e-05
-1.63395e-05
-1.23451e-05
-1.06918e-05
-9.82827e-06
-1.03422e-05
-1.39597e-05
-2.03306e-05
-2.13757e-05
-1.94173e-05
-1.8136e-05
-1.63353e-05
-1.59057e-05
-1.86243e-05
-1.82072e-05
-2.02331e-05
-1.91468e-05
-2.50177e-05
-2.33324e-05
-2.48336e-05
-2.15552e-05
-1.70636e-05
-1.50345e-05
-1.40926e-05
-1.12497e-05
-1.29831e-05
-1.12758e-05
-1.02758e-05
-1.05749e-05
-1.40287e-05
-1.56144e-05
-1.36839e-05
-9.82419e-06
-8.38387e-06
-7.97804e-06
-7.9096e-06
-8.03328e-06
-9.10772e-06
-7.23604e-06
-9.51021e-06
-9.56381e-06
-9.92705e-06
-6.80078e-06
-5.12554e-06
-3.71653e-06
-4.61324e-06
-6.78368e-06
-1.15318e-05
-1.32224e-05
-1.25855e-05
-1.14263e-05
-1.03582e-05
-9.00087e-06
-1.02932e-05
-9.87245e-06
-1.22024e-05
-1.14916e-05
-1.56361e-05
-1.4673e-05
-1.58441e-05
-1.37794e-05
-1.08447e-05
-9.49905e-06
-8.35187e-06
-6.38816e-06
-7.636e-06
-6.86315e-06
-6.07985e-06
-5.43261e-06
-7.46652e-06
-9.07321e-06
-8.13434e-06
-5.32447e-06
-3.63994e-06
-3.27858e-06
-3.1244e-06
-3.38352e-06
-4.15124e-06
-2.75856e-06
-4.35368e-06
-4.49396e-06
-5.36727e-06
-3.01986e-06
-1.69929e-06
2.40966e-07
-6.16223e-07
-2.15967e-06
-5.89573e-06
-7.53933e-06
-7.80469e-06
-6.64716e-06
-5.85632e-06
-4.46445e-06
-4.91145e-06
-4.43191e-06
-6.53814e-06
-6.24188e-06
-9.18012e-06
-8.69e-06
-9.73152e-06
-8.4521e-06
-7.21871e-06
-6.43461e-06
-5.23944e-06
-3.87347e-06
-4.67787e-06
-4.39713e-06
-3.89894e-06
-2.76992e-06
-3.77565e-06
-5.08603e-06
-4.73634e-06
-2.98383e-06
-1.58167e-06
-1.0057e-06
-5.68118e-07
-1.05275e-06
-1.52099e-06
-5.53251e-07
-1.67997e-06
-1.6268e-06
-2.66034e-06
-1.08651e-06
-2.63587e-07
1.91865e-06
1.24888e-06
-4.65641e-08
-2.94775e-06
-4.34986e-06
-4.94485e-06
-4.04138e-06
-3.45866e-06
-2.3061e-06
-2.12993e-06
-1.62253e-06
-3.29573e-06
-3.29722e-06
-5.51164e-06
-5.22381e-06
-6.09471e-06
-5.20487e-06
-5.23401e-06
-4.69477e-06
-3.68094e-06
-2.75128e-06
-3.30678e-06
-3.1736e-06
-2.81686e-06
-1.77757e-06
-2.02415e-06
-2.9531e-06
-2.83287e-06
-1.95475e-06
-8.97629e-07
-2.46611e-07
5.3023e-07
-1.1684e-08
-3.19065e-07
4.15484e-07
-5.56822e-07
-2.91354e-07
-1.36207e-06
-3.70582e-07
3.95521e-08
2.03245e-06
1.62289e-06
7.40275e-07
-1.35911e-06
-2.57628e-06
-3.33589e-06
-2.83602e-06
-2.38647e-06
-1.49685e-06
-9.93755e-07
-2.82457e-07
-1.52662e-06
-1.72575e-06
-3.4604e-06
-3.35228e-06
-4.08942e-06
-3.51253e-06
-4.0315e-06
-3.70299e-06
-2.78144e-06
-2.20308e-06
-2.61946e-06
-2.60959e-06
-2.27526e-06
-1.45789e-06
-1.28247e-06
-1.94874e-06
-1.75691e-06
-1.43555e-06
-7.35669e-07
-1.46016e-07
8.42782e-07
3.42393e-07
2.56475e-07
7.97291e-07
-1.74869e-07
2.32115e-07
-7.11258e-07
-7.14567e-08
-5.68199e-08
1.63957e-06
1.44724e-06
1.00744e-06
-4.58226e-07
-1.5338e-06
-2.32533e-06
-2.22822e-06
-1.79382e-06
-1.15641e-06
-5.47679e-07
3.01849e-07
-6.0523e-07
-8.19809e-07
-2.28298e-06
-2.30219e-06
-3.02695e-06
-2.63315e-06
-3.17665e-06
-3.04256e-06
-2.19243e-06
-1.93533e-06
-2.21774e-06
-2.31242e-06
-1.93474e-06
-1.47918e-06
-1.07678e-06
-1.56664e-06
-1.16264e-06
-1.05302e-06
-7.26386e-07
-2.89036e-07
7.26835e-07
3.88581e-07
4.80251e-07
9.4316e-07
-8.43439e-08
3.7772e-07
-3.95066e-07
2.8476e-08
-2.08565e-07
1.23531e-06
1.18981e-06
1.05269e-06
5.16476e-08
-8.9736e-07
-1.61911e-06
-1.74851e-06
-1.4405e-06
-9.86492e-07
-4.15261e-07
4.05726e-07
-2.18742e-07
-2.66218e-07
-1.4817e-06
-1.67305e-06
-2.33478e-06
-2.1241e-06
-2.54996e-06
-2.55641e-06
-1.72514e-06
-1.78966e-06
-1.97174e-06
-2.18613e-06
-1.7749e-06
-1.53825e-06
-1.03463e-06
-1.38731e-06
-8.96752e-07
-7.95692e-07
-7.99884e-07
-4.68881e-07
4.49817e-07
2.71587e-07
4.70232e-07
9.28167e-07
-1.10002e-07
3.58054e-07
-2.6051e-07
6.51039e-08
-3.0452e-07
9.34106e-07
9.28621e-07
9.75728e-07
2.93879e-07
-5.17737e-07
-1.09767e-06
-1.30694e-06
-1.14168e-06
-8.6112e-07
-4.06109e-07
3.04122e-07
-3.1725e-08
4.1788e-08
-8.76394e-07
-1.22943e-06
-1.835e-06
-1.85898e-06
-2.06773e-06
-2.2181e-06
-1.36154e-06
-1.64754e-06
-1.82824e-06
-2.02685e-06
-1.66579e-06
-1.47587e-06
-1.04642e-06
-1.27623e-06
-8.50495e-07
-6.32692e-07
-9.14136e-07
-5.87986e-07
1.50206e-07
6.9098e-08
4.15329e-07
8.49579e-07
-1.58484e-07
2.8536e-07
-1.92011e-07
4.61616e-08
-3.52927e-07
7.71115e-07
7.38728e-07
8.55276e-07
4.42956e-07
-2.49315e-07
-6.54855e-07
-9.24489e-07
-8.72943e-07
-7.86881e-07
-4.03705e-07
1.14484e-07
2.07901e-08
1.21115e-07
-4.71806e-07
-9.21886e-07
-1.42266e-06
-1.66611e-06
-1.72421e-06
-1.96026e-06
-1.14682e-06
-1.51139e-06
-1.75259e-06
-1.79292e-06
-1.59392e-06
-1.33266e-06
-1.0652e-06
-1.21313e-06
-9.16045e-07
-5.59589e-07
-1.03109e-06
-6.84922e-07
-1.04034e-07
-2.00201e-07
2.85186e-07
6.91667e-07
-2.16183e-07
2.04498e-07
-1.57684e-07
1.2366e-08
-3.77281e-07
6.21614e-07
5.90724e-07
6.85787e-07
5.53319e-07
-5.94245e-08
-2.88608e-07
-6.32961e-07
-6.37221e-07
-7.06705e-07
-3.06623e-07
-6.037e-08
-4.18733e-08
3.52321e-08
-2.45361e-07
-6.9781e-07
-1.03742e-06
-1.43214e-06
-1.48177e-06
-1.70547e-06
-1.06665e-06
-1.37624e-06
-1.70539e-06
-1.53573e-06
-1.53208e-06
-1.18615e-06
-1.03837e-06
-1.19063e-06
-9.70656e-07
-5.34966e-07
-1.08235e-06
-7.7824e-07
-3.27838e-07
-4.2697e-07
1.75737e-07
5.00906e-07
-2.38585e-07
1.7901e-07
-1.66795e-07
-9.99623e-09
-3.87387e-07
4.5653e-07
4.99594e-07
5.18404e-07
6.14778e-07
3.28818e-08
1.101e-08
-4.25698e-07
-4.26734e-07
-5.95722e-07
-1.99655e-07
-1.65614e-07
-1.50403e-07
-9.14205e-08
-1.49464e-07
-5.3678e-07
-7.73175e-07
-1.18445e-06
-1.33467e-06
-1.43962e-06
-1.04346e-06
-1.2706e-06
-1.64102e-06
-1.32221e-06
-1.42681e-06
-1.04825e-06
-9.27865e-07
-1.18507e-06
-9.70574e-07
-5.60913e-07
-1.10174e-06
-8.34821e-07
-5.063e-07
-5.78097e-07
6.60795e-08
2.90737e-07
-2.79805e-07
1.54394e-07
-1.86123e-07
-7.45082e-08
-3.58896e-07
2.56054e-07
3.93436e-07
3.06214e-07
6.25117e-07
4.15904e-08
2.45329e-07
-2.73115e-07
-3.21085e-07
-4.32536e-07
-8.97819e-08
-1.61728e-07
-2.42404e-07
-2.2245e-07
-1.67179e-07
-4.47682e-07
-6.4981e-07
-9.66399e-07
-1.18029e-06
-1.15119e-06
-9.94752e-07
-1.20902e-06
-1.55928e-06
-1.16479e-06
-1.29594e-06
-9.4511e-07
-8.17569e-07
-1.1685e-06
-9.17472e-07
-5.99282e-07
-1.09916e-06
-8.57683e-07
-6.64423e-07
-6.61119e-07
-2.4284e-09
5.73961e-08
-2.96093e-07
8.60183e-08
-1.81803e-07
-1.46489e-07
-2.93976e-07
9.21081e-08
2.79771e-07
1.67514e-07
5.4651e-07
-1.03735e-08
3.8115e-07
-1.21466e-07
-2.85812e-07
-2.39154e-07
-4.49557e-08
-1.47315e-07
-3.27503e-07
-3.42905e-07
-2.54643e-07
-4.1915e-07
-6.21952e-07
-8.05345e-07
-1.02468e-06
-8.69432e-07
-9.34307e-07
-1.17923e-06
-1.46153e-06
-1.05724e-06
-1.18519e-06
-8.73311e-07
-7.38556e-07
-1.10787e-06
-8.09164e-07
-6.36891e-07
-1.04167e-06
-8.69202e-07
-7.3713e-07
-6.87681e-07
-3.5728e-08
-1.74152e-07
-3.07899e-07
2.48396e-08
-1.90106e-07
-1.67681e-07
-3.05864e-07
-2.4905e-08
8.45992e-08
8.40417e-08
4.3359e-07
-1.00726e-07
3.97759e-07
-7.14798e-08
-2.56477e-07
-9.65097e-08
-5.83452e-08
-1.32187e-07
-3.87911e-07
-4.10028e-07
-3.15779e-07
-4.27276e-07
-6.64695e-07
-7.41539e-07
-8.47942e-07
-6.5659e-07
-8.72484e-07
-1.11502e-06
-1.31394e-06
-9.71996e-07
-1.10795e-06
-8.26148e-07
-6.82563e-07
-1.05173e-06
-6.42743e-07
-7.08461e-07
-9.13656e-07
-8.736e-07
-7.81273e-07
-6.56113e-07
-1.17066e-07
-3.24901e-07
-3.86243e-07
4.61644e-10
-2.34577e-07
-1.19999e-07
-3.44035e-07
-7.74322e-08
-6.40633e-08
-1.39721e-08
3.83852e-07
-2.05016e-07
3.79788e-07
-1.58799e-07
-2.37219e-07
1.7745e-08
-1.44305e-07
-8.68003e-08
-4.84979e-07
-4.12279e-07
-3.37476e-07
-4.80894e-07
-6.99342e-07
-7.29639e-07
-6.77346e-07
-5.32611e-07
-8.43402e-07
-1.04989e-06
-1.11991e-06
-8.93155e-07
-1.06798e-06
-8.11543e-07
-6.68074e-07
-9.95225e-07
-4.59813e-07
-7.81033e-07
-8.21893e-07
-8.34194e-07
-8.35877e-07
-5.2665e-07
-2.43509e-07
-3.46877e-07
-4.37351e-07
-1.22426e-09
-2.59491e-07
-1.09338e-07
-3.07667e-07
-1.50786e-07
-1.45831e-07
-1.77444e-07
3.33008e-07
-2.77715e-07
3.11913e-07
-2.85289e-07
-2.78713e-07
1.1421e-07
-3.25372e-07
-4.08312e-10
-6.11785e-07
-3.77738e-07
-2.88078e-07
-6.1206e-07
-6.97615e-07
-7.80747e-07
-4.88558e-07
-4.54192e-07
-8.53961e-07
-9.47945e-07
-9.1146e-07
-7.58924e-07
-1.04824e-06
-8.29333e-07
-7.08058e-07
-9.29142e-07
-3.35905e-07
-7.41911e-07
-7.74312e-07
-7.33046e-07
-8.5431e-07
-4.2086e-07
-3.61539e-07
-3.52295e-07
-4.35876e-07
-4.29327e-08
-2.21701e-07
-1.78272e-07
-2.2226e-07
-2.2856e-07
-1.80666e-07
-3.15746e-07
2.06857e-07
-2.8151e-07
2.03264e-07
-3.45337e-07
-3.49155e-07
1.53976e-07
-5.45122e-07
4.19868e-08
-6.97153e-07
-3.38168e-07
-1.88982e-07
-8.03182e-07
-6.36445e-07
-8.75572e-07
-4.03251e-07
-4.29142e-07
-9.2655e-07
-8.60451e-07
-8.01386e-07
-6.21131e-07
-9.8906e-07
-8.04171e-07
-8.04184e-07
-8.52084e-07
-3.63741e-07
-6.59961e-07
-6.8137e-07
-7.16867e-07
-7.37383e-07
-4.13532e-07
-4.10995e-07
-3.4484e-07
-4.31825e-07
-6.67741e-08
-1.52007e-07
-2.23341e-07
-1.26873e-07
-2.8279e-07
-1.83559e-07
-3.28711e-07
5.54928e-09
-2.39865e-07
2.30844e-08
-3.46196e-07
-3.54197e-07
9.08876e-08
-6.47114e-07
-3.26989e-08
-6.75937e-07
-3.01516e-07
-1.32417e-07
-9.69213e-07
-5.97522e-07
-9.94082e-07
-3.83071e-07
-4.49033e-07
-8.649e-07
-8.27359e-07
-7.46101e-07
-6.05309e-07
-9.43655e-07
-7.36775e-07
-9.48956e-07
-7.60518e-07
-5.06283e-07
-6.12082e-07
-4.69824e-07
-7.24701e-07
-5.56768e-07
-4.68733e-07
-4.39094e-07
-3.08391e-07
-4.73014e-07
-5.05575e-08
-6.72641e-08
-2.31055e-07
-5.33632e-08
-3.61682e-07
-1.9561e-07
-2.26868e-07
-2.38054e-07
-1.69511e-07
-2.37307e-07
-3.49478e-07
-2.49129e-07
-1.36977e-07
-5.81052e-07
-2.72137e-07
-6.4795e-07
-2.63886e-07
-1.9235e-07
-8.54547e-07
-5.44962e-07
-9.29909e-07
-6.22621e-07
-4.10193e-07
-3.33427e-07
-6.40086e-07
-5.10559e-07
-6.31549e-07
-8.90681e-07
-6.40701e-07
-1.11849e-06
-6.62457e-07
-6.57413e-07
-5.83525e-07
-2.76195e-07
-6.38389e-07
-4.29067e-07
-5.11072e-07
-4.00588e-07
-2.95619e-07
-4.95963e-07
-5.71594e-08
5.49213e-08
-1.7666e-07
-6.05296e-09
-4.30392e-07
-2.57828e-07
-6.5663e-08
-4.28409e-07
-7.96767e-08
-4.82988e-07
-3.38543e-07
-4.3016e-08
-4.37486e-07
-3.25919e-07
-5.62943e-07
-6.7741e-07
-2.98906e-07
-6.19754e-07
-7.9756e-07
-8.05101e-07
-1.06592e-06
-2.17419e-05
-3.59361e-05
-2.61968e-05
-1.68266e-05
-2.46173e-05
-2.9818e-05
-3.68716e-05
-2.23828e-05
-1.02926e-05
-2.62099e-06
-1.7583e-05
-2.58794e-05
-2.34509e-05
-3.5811e-08
-8.2101e-07
-1.01805e-05
-2.56481e-05
-1.85905e-05
-1.34855e-05
-3.8541e-06
-1.35301e-05
-1.13864e-05
-2.28302e-05
1.60092e-06
-7.04444e-06
-1.7475e-05
-4.97274e-05
-3.83403e-05
-2.79452e-05
-2.21947e-05
-3.33249e-05
-4.86132e-05
-4.53011e-05
-2.82851e-05
-2.94692e-05
-2.44709e-05
-4.35135e-05
-3.58259e-05
-2.11103e-05
-2.94821e-05
-2.30093e-05
-3.79321e-05
-2.73852e-05
-1.78571e-05
-2.61181e-05
-3.13026e-05
-3.83268e-05
-2.31298e-05
-1.14388e-05
-3.84772e-06
-1.91567e-05
-2.75229e-05
-2.45294e-05
-5.47935e-07
-1.96581e-06
-1.14284e-05
-2.79574e-05
-1.98044e-05
-1.4052e-05
-4.72502e-06
-1.52135e-05
-1.25254e-05
-2.36411e-05
1.35149e-06
-7.85092e-06
-1.88244e-05
-5.13106e-05
-3.95041e-05
-2.84565e-05
-2.29611e-05
-3.48726e-05
-5.00864e-05
-4.63521e-05
-2.92348e-05
-3.08923e-05
-2.614e-05
-4.51124e-05
-3.70172e-05
-2.13306e-05
-3.05179e-05
-2.59872e-05
-3.95322e-05
-2.93185e-05
-1.90028e-05
-2.84817e-05
-3.43233e-05
-4.20898e-05
-2.61375e-05
-1.21891e-05
-5.23311e-06
-2.22293e-05
-3.11182e-05
-2.71872e-05
-1.1843e-06
-3.62276e-06
-1.44374e-05
-2.94685e-05
-2.09678e-05
-1.63902e-05
-6.78736e-06
-1.73728e-05
-1.69726e-05
-2.72591e-05
-2.63011e-07
-9.61064e-06
-2.2908e-05
-5.4263e-05
-4.10136e-05
-3.03931e-05
-2.42864e-05
-3.77826e-05
-5.28816e-05
-4.89397e-05
-3.01558e-05
-3.16509e-05
-2.85551e-05
-4.82927e-05
-3.86707e-05
-2.39993e-05
-3.24514e-05
-3.04323e-05
-4.3433e-05
-3.28895e-05
-2.14368e-05
-3.14903e-05
-3.68666e-05
-4.68466e-05
-2.95097e-05
-1.66017e-05
-1.05531e-05
-2.6421e-05
-3.55713e-05
-3.12966e-05
-2.81561e-06
-7.38838e-06
-1.76261e-05
-3.72959e-05
-2.55547e-05
-1.86645e-05
-9.74909e-06
-2.28952e-05
-2.05571e-05
-3.01176e-05
-3.83237e-06
-1.37469e-05
-2.72436e-05
-6.10705e-05
-4.48843e-05
-3.41859e-05
-2.63993e-05
-4.30987e-05
-5.60692e-05
-5.06408e-05
-3.41052e-05
-3.61542e-05
-3.27986e-05
-5.48428e-05
-4.39458e-05
-2.49953e-05
-3.52968e-05
-3.17829e-05
-4.79306e-05
-3.76974e-05
-2.53641e-05
-3.71995e-05
-4.38508e-05
-5.19603e-05
-3.48938e-05
-1.89901e-05
-1.1797e-05
-3.37982e-05
-4.00258e-05
-3.6458e-05
-5.40168e-06
-1.38387e-05
-2.36655e-05
-3.81224e-05
-2.77177e-05
-2.37055e-05
-1.57429e-05
-2.81039e-05
-2.86318e-05
-3.91497e-05
-9.9305e-06
-1.81285e-05
-3.43323e-05
-6.37309e-05
-4.97241e-05
-3.77418e-05
-2.99359e-05
-4.61613e-05
-6.22066e-05
-5.67303e-05
-3.4841e-05
-3.70683e-05
-3.60633e-05
-5.45391e-05
-4.67115e-05
-3.01727e-05
-3.92588e-05
-4.03157e-05
-4.81961e-05
-4.06279e-05
-2.64764e-05
-3.76432e-05
-4.36918e-05
-5.58325e-05
-3.80935e-05
-2.82545e-05
-1.87604e-05
-3.71241e-05
-4.48001e-05
-4.17254e-05
-9.19561e-06
-2.0009e-05
-2.91844e-05
-4.82613e-05
-3.29933e-05
-2.68724e-05
-1.793e-05
-2.9144e-05
-3.15263e-05
-4.28479e-05
-1.58303e-05
-2.32661e-05
-4.0099e-05
-7.39845e-05
-5.34309e-05
-4.16388e-05
-3.12896e-05
-5.24921e-05
-6.11689e-05
-5.49615e-05
-3.65857e-05
-4.00062e-05
-3.61122e-05
-6.09914e-05
-4.94429e-05
-3.24933e-05
-4.10339e-05
-3.51665e-05
-5.20587e-05
-4.38684e-05
-3.04045e-05
-4.63797e-05
-5.11772e-05
-5.61638e-05
-3.97913e-05
-3.02142e-05
-1.87752e-05
-4.00337e-05
-4.47943e-05
-4.44225e-05
-1.37557e-05
-2.29354e-05
-3.09976e-05
-5.27173e-05
-3.35992e-05
-2.78161e-05
-2.11208e-05
-3.10423e-05
-3.39255e-05
-4.91896e-05
-2.34358e-05
-2.97891e-05
-4.53411e-05
-7.09492e-05
-5.61618e-05
-4.38028e-05
-3.37906e-05
-4.8399e-05
-6.18896e-05
-5.39541e-05
-3.55214e-05
-3.47205e-05
-4.02348e-05
-5.09675e-05
-4.59382e-05
-3.27595e-05
-4.13325e-05
-4.42221e-05
-4.94267e-05
-4.69207e-05
-3.35796e-05
-4.80854e-05
-5.17882e-05
-6.28254e-05
-4.72492e-05
-3.62277e-05
-2.80412e-05
-4.31158e-05
-4.2623e-05
-4.5523e-05
-1.94053e-05
-3.1376e-05
-3.50354e-05
-5.33603e-05
-3.4945e-05
-3.30017e-05
-2.0382e-05
-3.17098e-05
-3.41842e-05
-4.97623e-05
-3.22417e-05
-3.71576e-05
-4.70725e-05
-6.91599e-05
-5.75091e-05
-4.62751e-05
-3.40182e-05
-5.1544e-05
-5.52021e-05
-5.04866e-05
-3.3227e-05
-3.655e-05
-3.27767e-05
-5.22186e-05
-4.72618e-05
-3.42974e-05
-3.97153e-05
-4.27941e-05
-5.15115e-05
-5.09176e-05
-4.17137e-05
-5.5001e-05
-5.82806e-05
-6.13713e-05
-4.85824e-05
-4.56326e-05
-3.6553e-05
-4.6165e-05
-4.38778e-05
-4.8881e-05
-2.95899e-05
-3.59338e-05
-4.23001e-05
-5.51471e-05
-4.0259e-05
-3.27052e-05
-2.65209e-05
-3.65222e-05
-3.91295e-05
-5.34473e-05
-4.29458e-05
-4.40579e-05
-5.04602e-05
-7.27113e-05
-6.29192e-05
-5.20644e-05
-4.31784e-05
-5.25396e-05
-5.82487e-05
-5.33158e-05
-4.04101e-05
-4.20179e-05
-4.21255e-05
-4.94701e-05
-4.81363e-05
-3.49656e-05
-4.21798e-05
-4.58446e-05
-4.83102e-05
-5.05369e-05
-4.25876e-05
-5.54974e-05
-5.86015e-05
-6.30706e-05
-5.28001e-05
-4.74604e-05
-3.85407e-05
-4.61605e-05
-4.2766e-05
-4.82516e-05
-3.33695e-05
-3.90098e-05
-4.14685e-05
-5.19748e-05
-3.9936e-05
-3.75137e-05
-3.14017e-05
-3.95626e-05
-4.26298e-05
-5.58483e-05
-4.56691e-05
-4.6198e-05
-4.77431e-05
-6.47409e-05
-5.96753e-05
-5.38085e-05
-4.46999e-05
-5.0276e-05
-5.65128e-05
-5.41509e-05
-4.27694e-05
-4.40558e-05
-4.15848e-05
-4.7091e-05
-4.74861e-05
-3.83837e-05
-4.25518e-05
-3.84387e-05
-3.90958e-05
-4.13844e-05
-3.83756e-05
-4.87662e-05
-5.13949e-05
-5.29855e-05
-4.31511e-05
-4.01235e-05
-3.42682e-05
-3.79319e-05
-3.38637e-05
-3.86428e-05
-2.93118e-05
-3.22862e-05
-3.36519e-05
-4.06471e-05
-3.32916e-05
-3.01267e-05
-2.84065e-05
-3.5452e-05
-3.63729e-05
-4.55593e-05
-4.01924e-05
-4.03945e-05
-4.11231e-05
-5.21171e-05
-4.99589e-05
-4.50194e-05
-3.84272e-05
-4.10045e-05
-4.61388e-05
-4.56325e-05
-3.82788e-05
-3.79077e-05
-3.62206e-05
-3.83515e-05
-4.02005e-05
-3.36973e-05
-3.69144e-05
-2.93019e-05
-2.73991e-05
-2.97746e-05
-2.81772e-05
-3.75304e-05
-3.89976e-05
-3.95108e-05
-3.1005e-05
-3.03364e-05
-2.48719e-05
-2.77616e-05
-2.32779e-05
-2.66449e-05
-2.07212e-05
-2.23482e-05
-2.21554e-05
-2.70854e-05
-2.13701e-05
-2.19109e-05
-2.16492e-05
-2.67968e-05
-2.64074e-05
-3.30562e-05
-2.9511e-05
-3.01102e-05
-2.91274e-05
-3.61958e-05
-3.55877e-05
-3.25887e-05
-2.84733e-05
-2.87744e-05
-3.28438e-05
-3.31461e-05
-2.72618e-05
-2.6718e-05
-2.57732e-05
-2.68194e-05
-2.84227e-05
-2.48635e-05
-2.62627e-05
-2.07019e-05
-1.79705e-05
-1.92812e-05
-1.87764e-05
-2.68764e-05
-2.75575e-05
-2.73806e-05
-1.95262e-05
-1.94789e-05
-1.6379e-05
-1.87613e-05
-1.48044e-05
-1.64686e-05
-1.27411e-05
-1.34411e-05
-1.32925e-05
-1.5768e-05
-1.26124e-05
-1.37445e-05
-1.44473e-05
-1.85105e-05
-1.71354e-05
-2.08157e-05
-1.93964e-05
-2.04867e-05
-2.00756e-05
-2.38111e-05
-2.36787e-05
-2.17439e-05
-1.91842e-05
-1.88353e-05
-2.05322e-05
-2.12901e-05
-1.75343e-05
-1.71622e-05
-1.64923e-05
-1.68366e-05
-1.76855e-05
-1.65389e-05
-1.79082e-05
-1.42592e-05
-1.14613e-05
-1.1708e-05
-1.16967e-05
-1.85401e-05
-1.86264e-05
-1.8273e-05
-1.16024e-05
-1.20118e-05
-1.06497e-05
-1.27031e-05
-9.15596e-06
-9.3506e-06
-6.99448e-06
-7.59235e-06
-7.57294e-06
-8.81038e-06
-6.52962e-06
-8.18575e-06
-9.35895e-06
-1.2507e-05
-1.08136e-05
-1.2812e-05
-1.20054e-05
-1.33987e-05
-1.32391e-05
-1.51641e-05
-1.50147e-05
-1.38182e-05
-1.23443e-05
-1.17009e-05
-1.19137e-05
-1.26755e-05
-9.96274e-06
-1.03269e-05
-9.40673e-06
-9.93244e-06
-9.78137e-06
-1.04939e-05
-1.12846e-05
-1.02003e-05
-7.71612e-06
-7.0822e-06
-7.14732e-06
-1.2597e-05
-1.27059e-05
-1.23765e-05
-7.17985e-06
-7.45067e-06
-7.08831e-06
-8.61638e-06
-5.80202e-06
-5.02059e-06
-3.56122e-06
-3.94366e-06
-4.34294e-06
-4.67404e-06
-2.99414e-06
-4.87432e-06
-6.1617e-06
-8.58918e-06
-7.18215e-06
-7.77828e-06
-7.09216e-06
-8.56284e-06
-8.84888e-06
-9.91919e-06
-9.71989e-06
-9.14723e-06
-8.16962e-06
-7.45324e-06
-6.66784e-06
-7.03281e-06
-5.08498e-06
-5.9463e-06
-5.04125e-06
-5.66469e-06
-4.97494e-06
-6.46261e-06
-7.44896e-06
-7.62592e-06
-5.69521e-06
-4.50795e-06
-4.43567e-06
-8.70377e-06
-9.04016e-06
-8.81792e-06
-4.9609e-06
-4.88756e-06
-4.93129e-06
-6.10959e-06
-3.94767e-06
-2.9062e-06
-2.02715e-06
-2.12733e-06
-2.83291e-06
-2.67617e-06
-1.389e-06
-3.21074e-06
-4.38289e-06
-6.47767e-06
-5.23273e-06
-5.2575e-06
-4.3066e-06
-5.5858e-06
-6.06031e-06
-6.82107e-06
-6.63851e-06
-6.34433e-06
-5.5283e-06
-4.97578e-06
-3.75589e-06
-3.82975e-06
-2.29354e-06
-3.56116e-06
-2.81272e-06
-3.36931e-06
-2.52293e-06
-4.1371e-06
-5.22923e-06
-5.85903e-06
-4.59527e-06
-3.25295e-06
-3.12425e-06
-6.30501e-06
-6.71046e-06
-6.56269e-06
-3.86224e-06
-3.56538e-06
-3.79685e-06
-4.55682e-06
-3.02003e-06
-2.00949e-06
-1.46631e-06
-1.33813e-06
-2.07336e-06
-1.77063e-06
-6.62224e-07
-2.2973e-06
-3.38318e-06
-5.09422e-06
-4.13355e-06
-3.87589e-06
-2.69866e-06
-3.78019e-06
-4.24926e-06
-4.87682e-06
-4.76679e-06
-4.55193e-06
-3.93871e-06
-3.57919e-06
-2.26067e-06
-2.09898e-06
-8.14195e-07
-2.16524e-06
-1.67395e-06
-2.09461e-06
-1.50557e-06
-2.82644e-06
-3.93106e-06
-4.57863e-06
-3.84435e-06
-2.60123e-06
-2.46107e-06
-4.70143e-06
-5.03211e-06
-5.02925e-06
-3.19317e-06
-2.73497e-06
-3.09639e-06
-3.57809e-06
-2.44117e-06
-1.57857e-06
-1.25893e-06
-9.40948e-07
-1.59821e-06
-1.30793e-06
-4.69593e-07
-1.89536e-06
-2.70774e-06
-4.12782e-06
-3.38575e-06
-3.03944e-06
-1.8193e-06
-2.59943e-06
-3.03814e-06
-3.49955e-06
-3.47546e-06
-3.27726e-06
-2.84036e-06
-2.71289e-06
-1.47223e-06
-1.16652e-06
-9.03143e-08
-1.25026e-06
-9.33921e-07
-1.35575e-06
-1.06082e-06
-2.00191e-06
-3.02774e-06
-3.61324e-06
-3.27999e-06
-2.23737e-06
-2.2078e-06
-3.69963e-06
-3.89132e-06
-3.9124e-06
-2.73118e-06
-2.20795e-06
-2.648e-06
-2.89458e-06
-2.04527e-06
-1.38373e-06
-1.22953e-06
-7.00692e-07
-1.28987e-06
-1.03573e-06
-4.1115e-07
-1.60248e-06
-2.19976e-06
-3.34382e-06
-2.75967e-06
-2.49119e-06
-1.36614e-06
-1.85457e-06
-2.16322e-06
-2.5042e-06
-2.4885e-06
-2.28698e-06
-1.97977e-06
-2.07751e-06
-1.05415e-06
-6.55948e-07
3.04311e-07
-6.86229e-07
-5.06164e-07
-8.80863e-07
-8.55553e-07
-1.5467e-06
-2.39352e-06
-2.88903e-06
-2.8666e-06
-1.96121e-06
-2.08829e-06
-3.02074e-06
-3.05285e-06
-3.04618e-06
-2.35247e-06
-1.78834e-06
-2.34986e-06
-2.43496e-06
-1.74771e-06
-1.24848e-06
-1.22955e-06
-6.02907e-07
-1.13731e-06
-8.36157e-07
-3.69374e-07
-1.40245e-06
-1.75878e-06
-2.7187e-06
-2.23828e-06
-2.09957e-06
-1.09252e-06
-1.40422e-06
-1.53842e-06
-1.80103e-06
-1.77331e-06
-1.59517e-06
-1.32157e-06
-1.61556e-06
-7.68577e-07
-4.03888e-07
4.02287e-07
-3.56439e-07
-2.89371e-07
-6.05617e-07
-7.45833e-07
-1.23814e-06
-1.96482e-06
-2.35614e-06
-2.54101e-06
-1.72385e-06
-2.02419e-06
-2.55756e-06
-2.47106e-06
-2.38646e-06
-2.00943e-06
-1.47925e-06
-2.15566e-06
-2.14198e-06
-1.5267e-06
-1.16722e-06
-1.22521e-06
-5.9752e-07
-9.63829e-07
-6.64708e-07
-2.95851e-07
-1.27931e-06
-1.36777e-06
-2.23001e-06
-1.779e-06
-1.81274e-06
-9.47992e-07
-1.13756e-06
-1.06355e-06
-1.27038e-06
-1.18873e-06
-1.09641e-06
-8.61917e-07
-1.25687e-06
-5.96924e-07
-2.77581e-07
3.68936e-07
-1.30947e-07
-1.88041e-07
-3.56164e-07
-6.84908e-07
-1.06737e-06
-1.75843e-06
-1.98049e-06
-2.28519e-06
-1.52255e-06
-1.93227e-06
-2.24355e-06
-2.07985e-06
-1.95291e-06
-1.74652e-06
-1.28281e-06
-1.97145e-06
-1.92729e-06
-1.32236e-06
-1.12842e-06
-1.14763e-06
-6.37373e-07
-8.20505e-07
-5.93461e-07
-1.80784e-07
-1.17615e-06
-1.01234e-06
-1.82443e-06
-1.36794e-06
-1.58981e-06
-8.54885e-07
-9.81423e-07
-7.92623e-07
-9.00281e-07
-7.82621e-07
-6.81774e-07
-5.8303e-07
-9.66516e-07
-4.8272e-07
-2.07633e-07
1.56722e-07
-7.98155e-08
-2.37357e-07
-1.46073e-07
-6.39149e-07
-9.03481e-07
-1.63277e-06
-1.72e-06
-2.00913e-06
-1.38048e-06
-1.7838e-06
-2.0765e-06
-1.7886e-06
-1.69178e-06
-1.49899e-06
-1.15146e-06
-1.77813e-06
-1.74114e-06
-1.12717e-06
-1.12769e-06
-1.05278e-06
-7.21954e-07
-7.24577e-07
-5.81202e-07
-8.93611e-08
-1.06242e-06
-7.16265e-07
-1.45082e-06
-1.0318e-06
-1.33035e-06
-7.52614e-07
-8.26744e-07
-6.86486e-07
-6.2103e-07
-5.72566e-07
-3.52901e-07
-4.67952e-07
-7.18077e-07
-4.46528e-07
-1.39183e-07
-9.99969e-08
-1.61135e-07
-3.95384e-07
-4.75803e-09
-5.31578e-07
-7.42158e-07
-1.49151e-06
-1.56159e-06
-1.71154e-06
-1.28144e-06
-1.60429e-06
-1.99681e-06
-1.57513e-06
-1.57563e-06
-1.29839e-06
-1.05667e-06
-1.58287e-06
-1.53632e-06
-9.70972e-07
-1.15825e-06
-9.47077e-07
-8.03261e-07
-6.4834e-07
-5.38759e-07
-3.90009e-08
-9.07666e-07
-5.59998e-07
-1.13195e-06
-8.41694e-07
-1.05429e-06
-6.47938e-07
-6.36906e-07
-6.54513e-07
-4.08554e-07
-5.22366e-07
-1.3648e-07
-4.46192e-07
-5.46445e-07
-4.21217e-07
-1.01722e-07
-2.80738e-07
-2.87408e-07
-5.83386e-07
1.52394e-08
-4.27233e-07
-6.34725e-07
-1.30009e-06
-1.42141e-06
-1.40563e-06
-1.26491e-06
-1.46557e-06
-1.9001e-06
-1.39802e-06
-1.48974e-06
-1.16385e-06
-9.56216e-07
-1.45642e-06
-1.33299e-06
-8.63817e-07
-1.15962e-06
-8.38205e-07
-8.42253e-07
-6.26928e-07
-5.02028e-07
-1.31446e-07
-7.26688e-07
-4.79334e-07
-8.34214e-07
-7.53984e-07
-7.86749e-07
-5.21114e-07
-4.19154e-07
-6.07012e-07
-2.73526e-07
-5.17562e-07
-2.40339e-08
-4.2845e-07
-4.76968e-07
-3.64587e-07
-1.13989e-07
-3.44855e-07
-4.19964e-07
-7.26837e-07
-8.76779e-08
-3.85967e-07
-6.07396e-07
-1.02503e-06
-1.28528e-06
-1.11135e-06
-1.22413e-06
-1.403e-06
-1.73533e-06
-1.25614e-06
-1.376e-06
-1.07668e-06
-8.59397e-07
-1.36906e-06
-1.12418e-06
-8.20757e-07
-1.14514e-06
-7.77518e-07
-8.43291e-07