/*--------------------------------*- C++ -*----------------------------------*\
  =========                 |
  \\      /  F ield         | OpenFOAM: The Open Source CFD Toolbox
   \\    /   O peration     | Website:  https://openfoam.org
    \\  /    A nd           | Version:  10
     \\/     M anipulation  |
\*---------------------------------------------------------------------------*/
FoamFile
{
    format      ascii;
    class       volVectorField;
    location    "10";
    object      U;
}
// * * * * * * * * * * * * * * * * * * * * * * * * * * * * * * * * * * * * * //

dimensions      [0 1 -1 0 0 0 0];

internalField   nonuniform List<vector> 
25600
(
(0.0574363 -2.01696e-05 -0.00745379)
(0.0590734 -0.000476537 0.0019965)
(0.0611666 -6.42698e-05 0.00325576)
(0.0564667 0.000493121 -0.00429154)
(0.0520783 0.000439213 -0.0106576)
(0.0504518 -0.00011875 -0.00506501)
(0.0527559 -0.000135709 0.00648419)
(0.0525892 -0.000172907 0.00775882)
(0.0560408 -0.00019953 0.00397677)
(0.053565 0.000327666 0.00682838)
(0.0519173 0.00109416 0.0109897)
(0.0502257 0.000889719 -0.00442642)
(0.0516823 2.48069e-05 -0.0217037)
(0.0545221 -0.000833795 -0.0136858)
(0.0645895 -0.000762099 -0.0015176)
(0.0696815 0.000178333 0.010341)
(0.069803 0.000855164 0.0178678)
(0.0716938 0.000920648 0.0190066)
(0.0797403 0.000442662 0.0137997)
(0.0771758 -0.000422837 0.00208828)
(0.0714961 -0.000726994 -0.00439446)
(0.0737945 -0.000524206 -0.00752924)
(0.0744717 -0.000198941 -0.00313845)
(0.0715832 3.56591e-05 0.002625)
(0.0714374 1.43043e-05 -0.000224469)
(0.0698295 -5.72717e-05 -0.000660845)
(0.0703205 0.000112551 0.00296072)
(0.0659631 0.000184918 0.000600261)
(0.0641507 -0.000117256 -0.00709677)
(0.0634356 2.03727e-05 -0.00807035)
(0.0582086 0.000427866 -0.00397108)
(0.0542354 0.000155627 -0.00198252)
(0.0510178 4.16516e-05 -0.00969363)
(0.0509761 2.90982e-05 -0.0116536)
(0.0510288 -7.69753e-05 -0.00718436)
(0.0515052 5.81107e-05 -0.00740281)
(0.0545213 9.66836e-05 -0.0042487)
(0.0557392 7.75451e-05 0.00226274)
(0.0570063 0.000320398 0.00347262)
(0.0547072 0.000427619 -0.00549046)
(0.186112 3.26728e-05 -0.0151697)
(0.181213 -0.002007 0.00139646)
(0.173551 7.50636e-05 0.00219176)
(0.165196 0.00244868 -0.00915344)
(0.16619 0.00234949 -0.0177287)
(0.165368 0.000705053 -0.00666346)
(0.169203 -0.000794079 0.0129008)
(0.158097 -0.00162467 0.0152829)
(0.158151 -0.000109201 0.0129951)
(0.150986 0.00336512 0.0205501)
(0.159123 0.00589022 0.0176307)
(0.181451 0.00282845 -0.0195238)
(0.201116 -0.00219111 -0.0457241)
(0.180751 -0.00454886 -0.0213006)
(0.178368 -0.0017956 0.00414066)
(0.18454 0.00264036 0.0254404)
(0.195846 0.00445604 0.033774)
(0.228288 0.00296902 0.0304948)
(0.287028 -8.0922e-05 0.0244728)
(0.287512 -0.00336307 0.00269381)
(0.237155 -0.0039929 -0.0117043)
(0.213287 -0.00252441 -0.0121115)
(0.207343 -0.0010713 -0.00297166)
(0.206792 7.27664e-05 0.00271325)
(0.21788 -0.00019293 -0.00335402)
(0.213862 8.55011e-05 -0.00353699)
(0.216904 0.00210779 -0.00190958)
(0.209945 0.00249579 -0.00827613)
(0.20007 0.000577329 -0.0161096)
(0.193587 0.00103036 -0.0141757)
(0.187414 0.00218459 -0.00917653)
(0.185313 0.00111083 -0.0129206)
(0.168057 0.000865564 -0.0266677)
(0.156176 0.000558304 -0.0217655)
(0.148993 -8.48141e-05 -0.00965115)
(0.147448 0.000896801 -0.00723026)
(0.160655 0.00114913 -0.00311416)
(0.166595 0.00126504 0.00541533)
(0.172888 0.00199316 0.00381253)
(0.172871 0.00225372 -0.0146658)
(0.323461 0.000798367 -0.0218647)
(0.313566 -0.00300581 -0.00324654)
(0.283943 0.000510201 -0.000863805)
(0.265373 0.00407217 -0.0109233)
(0.274072 0.00388682 -0.0205264)
(0.288136 0.00352615 -0.00889864)
(0.307019 0.00146738 0.0147384)
(0.273792 -0.00352903 0.0185182)
(0.249902 -0.00228096 0.0152358)
(0.244712 0.00613256 0.0308152)
(0.269867 0.0121345 0.0318563)
(0.355934 0.00600301 -0.0137784)
(0.441982 -0.00537197 -0.0583381)
(0.359052 -0.0102715 -0.0308847)
(0.286711 -0.00372233 0.00632556)
(0.284347 0.0061195 0.0341514)
(0.299351 0.00975584 0.0445107)
(0.360433 0.00295984 0.0268444)
(0.511489 -0.00353676 0.0145346)
(0.595484 -0.00607422 0.00209293)
(0.48653 -0.00711054 -0.0198074)
(0.366574 -0.0045403 -0.0177429)
(0.324272 -0.00271569 0.000250359)
(0.319554 -0.00129497 0.00785235)
(0.348789 -0.00154314 -0.00192631)
(0.345084 -0.000925632 -0.00315394)
(0.360388 0.00383663 -0.00451177)
(0.373521 0.00699524 -0.0191926)
(0.355606 0.00380436 -0.0270036)
(0.332596 0.00329672 -0.019696)
(0.329729 0.00456821 -0.0104322)
(0.344124 0.00285052 -0.0178554)
(0.316107 0.0035287 -0.0403107)
(0.275527 0.00267664 -0.0330633)
(0.245616 0.00038585 -0.0130764)
(0.232819 0.00206754 -0.00258737)
(0.254297 0.00247812 0.00473057)
(0.268465 0.00316894 0.0128932)
(0.28791 0.0043363 0.0101444)
(0.293847 0.00447032 -0.0167445)
(0.452611 0.00102268 -0.0182744)
(0.450654 -0.00269696 -0.00306381)
(0.404042 0.0026296 -0.00540883)
(0.366713 0.00580673 -0.014563)
(0.361549 0.00138854 -0.0213278)
(0.376621 0.00129422 -0.00921823)
(0.444777 0.00701732 0.0155744)
(0.417731 0.00104826 0.0199146)
(0.339505 -0.00689925 0.0111073)
(0.313415 0.00287908 0.0304116)
(0.343537 0.0156733 0.0595746)
(0.457425 0.00815688 0.0243261)
(0.738565 -0.00825225 -0.0487891)
(0.676567 -0.0167208 -0.0437282)
(0.433327 -0.0104621 0.00760325)
(0.376265 0.0071291 0.0418592)
(0.383459 0.0172889 0.0514531)
(0.409481 0.00420683 0.0129872)
(0.530331 -0.0144118 -0.0216943)
(0.807169 -0.0141137 -0.0130721)
(0.835549 -0.00677801 -0.0252006)
(0.601879 -0.00276474 -0.028481)
(0.460851 -0.0032308 -6.39584e-05)
(0.416376 -0.0040837 0.0184623)
(0.445848 -0.00471748 0.00793005)
(0.439441 -0.00475164 0.00516318)
(0.464169 0.00155538 0.00541227)
(0.518934 0.0104811 -0.0224854)
(0.522942 0.0097163 -0.0427203)
(0.475069 0.0075176 -0.0309215)
(0.456778 0.00657743 -0.00738203)
(0.491888 0.00307465 -0.00800018)
(0.488022 0.00743847 -0.04737)
(0.430497 0.00814784 -0.0519253)
(0.357352 0.00176889 -0.0278046)
(0.310561 0.00283048 -0.00495321)
(0.333594 0.0033704 0.0145037)
(0.346951 0.00488092 0.0271394)
(0.383645 0.00693248 0.0283533)
(0.400243 0.00598692 -0.0043391)
(0.555278 -0.00110846 0.00056096)
(0.572167 -0.00277574 0.0154371)
(0.526658 0.00629218 -0.00155391)
(0.494605 0.0101479 -0.0217468)
(0.496564 -0.00264912 -0.0234775)
(0.450217 -0.0106469 -0.00349057)
(0.524875 0.00579627 0.0166977)
(0.560621 0.0117357 0.018742)
(0.47573 -0.0043003 0.00499872)
(0.370568 -0.00550514 0.0226477)
(0.392032 0.0125728 0.0767977)
(0.440122 0.00404309 0.0720795)
(0.797404 -0.0146164 -0.0196274)
(0.990165 -0.0183666 -0.0725689)
(0.684799 -0.0167451 -0.010941)
(0.469541 -0.000504445 0.0510203)
(0.4568 0.0223559 0.0521882)
(0.486208 0.0148435 -0.00397011)
(0.500443 -0.0226494 -0.0511188)
(0.688544 -0.0380564 -0.038712)
(0.995859 -0.017895 -0.0190355)
(0.89029 0.0022369 -0.0316286)
(0.669061 0.000879233 -0.00814632)
(0.547447 -0.00514929 0.0250745)
(0.544444 -0.00707745 0.0211292)
(0.521736 -0.00927334 0.018201)
(0.521544 -0.00586178 0.0253628)
(0.59652 0.00941456 -0.00659638)
(0.658648 0.0147196 -0.0491494)
(0.621927 0.0138381 -0.0488845)
(0.579067 0.00993434 -0.0112887)
(0.600873 0.000230329 0.0152195)
(0.620101 0.00801962 -0.0330302)
(0.605754 0.0159905 -0.0686225)
(0.528633 0.00649852 -0.0560601)
(0.402994 0.00300878 -0.0235272)
(0.409848 0.00239102 0.0132493)
(0.41071 0.00509114 0.0362343)
(0.456315 0.00950585 0.0500782)
(0.477978 0.00652547 0.0200396)
(0.645531 -0.00478548 0.00176039)
(0.678336 -0.00414729 0.0364696)
(0.627446 0.00865935 0.0267468)
(0.639443 0.0145126 -0.0162303)
(0.722225 -0.0017492 -0.0324053)
(0.609878 -0.0237002 0.00198488)
(0.577552 -0.00641169 0.0240921)
(0.657582 0.0172916 0.0152964)
(0.638368 0.00798823 -0.00870417)
(0.472437 -0.00687436 0.0112252)
(0.433833 0.00470269 0.0811117)
(0.447694 -0.00245032 0.0952929)
(0.702561 -0.0273457 0.0193297)
(1.00668 -0.0213108 -0.0806965)
(0.892801 -0.0111992 -0.0673576)
(0.594197 -0.00785389 0.0299212)
(0.498156 0.0201071 0.0439903)
(0.579942 0.025421 0.0035068)
(0.633944 -0.0142239 -0.0257775)
(0.624062 -0.052088 -0.0432441)
(0.895602 -0.0423734 -0.00664706)
(1.02281 -0.00300571 -0.00910763)
(0.891344 0.00490742 -0.0050642)
(0.720161 -0.00414708 0.0241308)
(0.675981 -0.00699322 0.0268431)
(0.632406 -0.0108837 0.028413)
(0.588683 -0.0128319 0.0433435)
(0.630282 0.00502787 0.0148121)
(0.722579 0.0170516 -0.0391367)
(0.702772 0.0194828 -0.051701)
(0.658552 0.0137944 -0.0144771)
(0.67602 -0.00338111 0.0391961)
(0.686188 0.00292078 0.00611318)
(0.728133 0.0191996 -0.0553694)
(0.762882 0.0141462 -0.0790113)
(0.582824 0.00461844 -0.0574169)
(0.521018 -0.00086046 -0.0064494)
(0.481695 0.00167623 0.0262642)
(0.527856 0.0105524 0.0537542)
(0.552911 0.00723684 0.0290385)
(0.739367 -0.0059888 -0.0418052)
(0.786934 -0.00309805 0.00646789)
(0.712362 0.0112566 0.0526177)
(0.738497 0.0120529 0.0257438)
(0.945675 0.000384779 -0.0313416)
(0.873313 -0.0233533 -0.00262828)
(0.677513 -0.0187656 0.0417859)
(0.71544 0.0132639 0.0151338)
(0.767584 0.0194342 -0.0284875)
(0.63233 0.00572291 -0.0113424)
(0.518918 0.00257004 0.0696109)
(0.485504 -0.0104936 0.0779607)
(0.661199 -0.0398386 0.0281397)
(0.917074 -0.0264994 -0.0402849)
(0.935035 0.000145502 -0.0819868)
(0.699921 -0.00260026 -0.00994923)
(0.546379 0.0106085 0.0335948)
(0.650619 0.0244335 0.0357274)
(0.76117 -0.00105579 0.0323487)
(0.729317 -0.0417362 -0.0179879)
(0.812683 -0.0572588 -0.0102168)
(0.995766 -0.0199199 0.00716295)
(1.02774 0.000967064 0.00870379)
(0.877926 -0.0042016 0.0246151)
(0.809234 -0.00702004 0.0210128)
(0.759731 -0.0107884 0.025773)
(0.686236 -0.0176139 0.0527409)
(0.671963 0.0012914 0.0287679)
(0.754226 0.0195525 -0.026125)
(0.717485 0.0257258 -0.0363427)
(0.675696 0.0172972 0.0010325)
(0.700256 -0.0101088 0.0618368)
(0.701024 -0.00601338 0.0385579)
(0.733042 0.0121811 -0.016706)
(0.94923 0.0160952 -0.0524866)
(0.875251 0.0103322 -0.0771122)
(0.730621 -0.00134729 -0.0415993)
(0.604721 -0.00438841 0.00410652)
(0.605473 0.00796219 0.0411904)
(0.644015 0.00825339 0.0143241)
(0.83771 -0.00639285 -0.0730248)
(0.858906 0.00277372 -0.0624963)
(0.784149 0.0172041 0.0254353)
(0.76618 0.00635256 0.0553537)
(1.01366 -0.00433964 -0.0213956)
(1.09245 -0.0150969 -0.0243727)
(0.844885 -0.019669 0.0595941)
(0.768924 0.00372436 0.0264948)
(0.848169 0.0229609 -0.0446166)
(0.780849 0.0231793 -0.0422265)
(0.673446 0.0121268 0.0338848)
(0.592535 -0.0163504 0.0521785)
(0.704436 -0.0502617 0.0127476)
(0.891631 -0.0311534 -0.0130558)
(0.93904 0.010031 -0.0759893)
(0.78734 0.00872954 -0.043042)
(0.633734 0.00126256 0.0260146)
(0.704795 0.0129 0.0545782)
(0.784138 0.00184892 0.062128)
(0.791469 -0.0292397 0.0107972)
(0.817503 -0.0536971 -0.011658)
(0.927185 -0.0342056 0.00513885)
(1.06135 -0.00991704 0.0079314)
(0.98303 -0.0049105 0.0187102)
(0.911903 -0.00618144 0.00679777)
(0.857165 -0.0109548 0.00633555)
(0.775029 -0.0222182 0.0494218)
(0.716638 -0.00164255 0.0353756)
(0.78985 0.0253914 -0.0192187)
(0.73148 0.0344892 -0.0192603)
(0.749239 0.019245 0.00205719)
(0.77781 -0.0169922 0.0627082)
(0.745091 -0.0168196 0.0577741)
(0.71187 -0.00392006 -0.00298179)
(0.948667 0.000451151 -0.00775001)
(1.09695 0.00788418 -0.0435979)
(0.99811 0.00374213 -0.0631156)
(0.811797 -0.00595266 -0.0280807)
(0.715302 0.000873365 0.0329835)
(0.743234 0.0057152 0.0244431)
(0.932371 -0.014218 -0.0372996)
(0.920744 0.0038456 -0.0933795)
(0.850484 0.0223336 -0.0142392)
(0.778677 0.00274218 0.0506001)
(0.948039 -0.0155358 -0.0160126)
(1.15991 -0.0116497 -0.0542066)
(1.00577 -0.010571 0.0505181)
(0.827229 -0.00135091 0.0476949)
(0.875912 0.0173034 -0.0364995)
(0.867 0.0348741 -0.0724095)
(0.858842 0.0269897 -0.0215731)
(0.794871 -0.0124733 0.0264081)
(0.798499 -0.0538827 0.000207986)
(0.890641 -0.0343195 -0.00096397)
(0.934099 0.0161548 -0.0651425)
(0.879669 0.0193609 -0.0686048)
(0.749492 -0.00393642 0.0061858)
(0.754544 0.00244922 0.046314)
(0.795919 0.00406251 0.0608804)
(0.813161 -0.0216321 0.0197144)
(0.851754 -0.0434573 -0.0105902)
(0.905985 -0.0345905 0.00698292)
(1.05028 -0.0170007 0.0129081)
(1.03137 -0.00223449 0.0186402)
(0.987907 -9.96021e-06 -0.00341649)
(0.941524 -0.00945861 -0.0208514)
(0.846884 -0.0261841 0.0298183)
(0.736323 -0.00463757 0.0405848)
(0.802452 0.0334952 -0.0138565)
(0.75111 0.0453059 -0.0254371)
(0.842394 0.0217698 -0.0436246)
(0.939512 -0.0150151 0.00551329)
(0.873428 -0.0161677 0.0550808)
(0.790235 -0.0134441 -0.00315625)
(0.879026 -0.0192139 0.00431987)
(1.12336 -0.0101624 -0.00120709)
(1.15099 0.00170883 -0.0460191)
(0.982787 -0.0013232 -0.051934)
(0.813339 -0.00242077 0.0190749)
(0.799926 -0.00049479 0.0655261)
(0.957716 -0.0238516 0.016)
(0.930696 0.000552622 -0.0840273)
(0.915697 0.0244524 -0.0298031)
(0.839413 0.000850335 0.0384325)
(0.872007 -0.0306742 -0.00390933)
(1.12469 -0.0194023 -0.0650043)
(1.12019 -0.00292929 0.0257323)
(0.912768 0.00238317 0.0555489)
(0.880413 0.0119201 -0.0127947)
(0.853379 0.0341387 -0.0714173)
(0.946561 0.030969 -0.0502754)
(0.965647 -0.00458043 0.00828145)
(0.906224 -0.0470321 -0.00916216)
(0.911075 -0.0335439 0.0051513)
(0.927241 0.0185449 -0.0389534)
(0.958916 0.0279748 -0.0745548)
(0.865752 -0.00116455 -0.0185673)
(0.804722 -0.00453598 0.0284707)
(0.812617 0.0041184 0.0581177)
(0.84167 -0.0168595 0.0321023)
(0.886862 -0.0359887 -0.0249471)
(0.916162 -0.0273115 -0.0193663)
(1.03051 -0.0172927 0.0162524)
(1.04138 -0.00116693 0.0386244)
(1.05465 0.00812737 0.00576002)
(1.06253 -0.00158622 -0.0346218)
(0.953567 -0.0239539 0.00659973)
(0.752561 -0.00664294 0.0357344)
(0.784552 0.0393245 -0.0245285)
(0.744764 0.051159 -0.0398583)
(0.798123 0.00992869 -0.0511441)
(0.960006 -0.0305418 -0.0276749)
(0.952113 -0.0164664 0.0366297)
(0.896093 -0.0078106 0.00455325)
(0.893786 -0.0253767 0.00693745)
(1.08348 -0.0282376 0.0167197)
(1.16552 -0.00619738 -0.021373)
(1.05032 0.00496812 -0.0551717)
(0.89153 0.000745254 -0.00303497)
(0.837614 -0.00807489 0.0913291)
(0.999895 -0.0324867 0.0465019)
(0.91658 -0.00505797 -0.0609303)
(0.946756 0.0239079 -0.0444676)
(0.956141 0.00607633 0.0205675)
(0.889598 -0.0387706 0.0170522)
(1.04203 -0.0389327 -0.0573413)
(1.1858 -0.00412705 -0.00727641)
(1.02488 0.0112321 0.0490601)
(0.910038 0.012591 0.00991708)
(0.818063 0.0257998 -0.0419521)
(0.928063 0.0220023 -0.0295675)
(1.0333 -0.00223504 0.0193181)
(0.98097 -0.0383458 -0.00934571)
(0.945605 -0.0307727 0.000168053)
(0.930535 0.0203105 -0.009371)
(1.01194 0.0329184 -0.0560027)
(0.972044 0.0038932 -0.0249182)
(0.863192 -0.00602962 0.0198233)
(0.826944 0.00397922 0.0506834)
(0.867871 -0.0178992 0.0489569)
(0.923362 -0.0349358 -0.00602668)
(0.930767 -0.0208816 -0.0479793)
(1.04079 -0.0142606 -0.0225593)
(1.03034 -0.000680224 0.0363203)
(1.02532 0.00975357 0.0328451)
(1.1131 0.00105163 -0.0156498)
(1.07818 -0.0162804 -0.00741829)
(0.800137 -0.00136271 0.0251088)
(0.733942 0.0451145 -0.0236652)
(0.743318 0.0582507 -0.0257959)
(0.781456 0.00549292 -0.0124461)
(0.932859 -0.0461226 -0.0168726)
(0.964545 -0.0256303 0.0312692)
(0.954878 -0.00404127 0.0189664)
(0.962686 -0.0231107 0.0126193)
(1.06693 -0.0384496 0.0157091)
(1.12126 -0.0135866 -0.00771865)
(1.04509 0.0103374 -0.0437104)
(0.966745 0.00524236 -0.0337727)
(0.934617 -0.0161642 0.0688805)
(1.07697 -0.035833 0.0394405)
(0.955639 -0.00809282 -0.029019)
(0.92403 0.016771 -0.0445316)
(1.01393 0.0078706 -0.00555697)
(1.00982 -0.0312447 0.0218476)
(0.992287 -0.0514784 -0.0296335)
(1.12436 -0.0180358 -0.0283971)
(1.10669 0.0166051 0.0313759)
(1.01362 0.0223802 0.0250612)
(0.870191 0.0205479 -0.00914484)
(0.91888 0.00631757 -0.00118835)
(1.04635 -0.00491053 0.0347178)
(1.02887 -0.0286822 0.00192683)
(0.977109 -0.0269654 -0.0112554)
(0.955638 0.0190805 0.0021454)
(1.06305 0.0326529 -0.035545)
(1.06787 0.00869519 -0.0310276)
(0.946091 -0.0033439 0.0120799)
(0.874061 0.0060097 0.0514844)
(0.901275 -0.0161309 0.0502933)
(0.953498 -0.0336902 0.0105829)
(0.950546 -0.0187992 -0.0316079)
(1.03971 -0.0123746 -0.0381925)
(1.04155 0.00205677 0.0136749)
(1.02265 0.00833447 0.0460146)
(1.06686 -0.0023949 0.0159667)
(1.07747 -0.00854749 -0.0118654)
(0.847759 0.00994431 0.0183844)
(0.724156 0.0489797 -0.00515542)
(0.797795 0.0623556 -0.0331775)
(0.87384 0.00973811 -0.0223645)
(0.954984 -0.0449973 -0.0256077)
(0.977326 -0.0288299 0.014846)
(1.00489 -0.00375016 0.0207569)
(1.03729 -0.0198412 0.0159845)
(1.06179 -0.0377522 0.0124272)
(1.06753 -0.0128227 -0.00613911)
(1.02571 0.0138719 -0.0195953)
(1.00936 0.00596581 -0.0403921)
(1.02749 -0.0211915 0.0184653)
(1.08482 -0.0368402 0.0222264)
(1.01046 -0.00594023 -0.0122872)
(0.944951 0.0113161 -0.0330131)
(1.0119 0.00259454 -0.0198176)
(1.06651 -0.0247549 0.00648492)
(1.01906 -0.0480442 -0.0107776)
(1.04101 -0.0285491 -0.027613)
(1.0737 0.01141 0.0104327)
(1.06652 0.0286818 0.0194273)
(0.971136 0.0217615 0.00101348)
(0.964597 -0.00335983 -0.00294087)
(1.04114 -0.00721099 0.0267948)
(1.05002 -0.0191763 0.0100985)
(0.999619 -0.022499 -0.0167861)
(0.976892 0.0112586 0.00188322)
(1.08907 0.0230648 -0.023153)
(1.1239 0.0107998 -0.0378918)
(1.02447 0.00338916 -0.00204862)
(0.942333 0.0103765 0.0408052)
(0.948841 -0.0135306 0.0378488)
(0.984866 -0.0315211 0.0121337)
(0.992009 -0.0187698 -0.0100285)
(1.04746 -0.0117886 -0.0288357)
(1.05797 0.00385347 0.00228452)
(1.04455 0.00877412 0.0371054)
(1.02776 -0.00233134 0.0302081)
(1.00653 -0.00196047 -0.00617693)
(0.888784 0.0215551 0.00404796)
(0.826817 0.0455218 -0.0046756)
(0.897199 0.0455986 -0.0422844)
(0.96654 -0.00203737 -0.0378232)
(0.983016 -0.0480857 -0.0261791)
(0.981579 -0.0326065 0.00847725)
(1.03009 -0.00855104 0.0113693)
(1.07172 -0.0185308 0.0131232)
(1.05715 -0.032272 0.0190124)
(1.02984 -0.00892681 -0.00592263)
(1.02596 0.0139124 -0.016226)
(1.02869 0.00150812 -0.0320119)
(1.04119 -0.0284095 0.00130602)
(1.05729 -0.0355343 0.0126152)
(1.02549 -0.00662803 -0.00844786)
(0.977887 0.00707615 -0.0256255)
(1.01271 0.00017901 -0.0237958)
(1.06414 -0.0200895 -0.00360362)
(1.04243 -0.0424946 -0.00458893)
(1.01295 -0.0317981 -0.0180809)
(1.0241 0.0042504 0.000294139)
(1.0522 0.0255866 0.00577196)
(1.02028 0.0200229 -0.00706482)
(1.00457 -0.00680646 -0.0131482)
(1.02631 -0.00581405 0.0132102)
(1.04572 -0.0111644 0.00506318)
(1.02351 -0.0183785 -0.0188782)
(1.00015 0.00129141 -0.000606853)
(1.07427 0.0074491 -0.0215116)
(1.10576 0.00767777 -0.0394261)
(1.05501 0.00980613 -0.00962408)
(1.00997 0.0158377 0.0233196)
(1.0082 -0.0115926 0.0196321)
(1.01631 -0.0301402 0.00368661)
(1.02694 -0.0177726 -0.00858658)
(1.06269 -0.0103245 -0.0200486)
(1.07049 0.00646885 0.0022616)
(1.05075 0.0132438 0.020227)
(1.00302 0.00408903 0.0217159)
(0.954886 0.00268712 0.00669256)
(0.905897 0.0236846 0.0109615)
(0.912708 0.0369114 -0.00693177)
(0.965534 0.032232 -0.0439729)
(1.01102 -0.00610733 -0.0359126)
(1.01083 -0.0445579 -0.0150427)
(0.997723 -0.0307561 0.0129439)
(1.03751 -0.00902041 0.00490548)
(1.07253 -0.0121664 0.00620859)
(1.05476 -0.020476 0.0222929)
(1.02296 -0.00445397 -0.00132184)
(1.02982 0.0100194 -0.0215547)
(1.04184 -0.00203273 -0.0362284)
(1.04419 -0.0296921 -0.00784404)
(1.04155 -0.0311816 0.00854015)
(1.02281 -0.00773143 -0.00513445)
(0.996737 0.00393123 -0.0166704)
(1.01962 -0.00153059 -0.0208416)
(1.05337 -0.0168583 -0.00745167)
(1.04673 -0.0353392 -0.00225542)
(1.0146 -0.0286776 -0.00675626)
(1.00169 -0.000259476 0.00340712)
(1.02984 0.0199686 0.000461019)
(1.03552 0.0178847 -0.015615)
(1.02717 -0.00670397 -0.020493)
(1.01795 -0.00537641 0.00577065)
(1.03022 -0.00863365 0.00197401)
(1.03401 -0.0163576 -0.0188482)
(1.02002 -0.00474907 -0.00830138)
(1.0466 -0.00269938 -0.0231175)
(1.05403 0.0044834 -0.0291234)
(1.04492 0.0112115 -0.00975921)
(1.05092 0.0148203 0.00219834)
(1.04939 -0.0108162 0.00422343)
(1.03217 -0.0279026 0.00341284)
(1.03752 -0.0184854 -0.00686627)
(1.0603 -0.0106377 -0.0164189)
(1.0603 0.0102463 -0.000192155)
(1.03701 0.0205711 0.00967713)
(0.998285 0.0112326 0.0125911)
(0.956099 0.00433784 0.0171492)
(0.936218 0.0208286 0.0261959)
(0.961312 0.0298893 0.00392543)
(0.996033 0.0250963 -0.0303046)
(1.02862 -0.00610554 -0.0272077)
(1.02882 -0.0407523 -0.00821773)
(1.01374 -0.0295685 0.0127139)
(1.03605 -0.00963914 -0.000990061)
(1.0594 -0.00776792 -0.00640032)
(1.05142 -0.0107222 0.0103996)
(1.02992 0.00103488 -0.00403268)
(1.02906 0.00841443 -0.022181)
(1.04089 -0.00463869 -0.0338944)
(1.04598 -0.0269996 -0.0108792)
(1.03339 -0.0246486 0.00419144)
(1.01825 -0.00720404 -0.00121335)
(1.00322 0.0010944 -0.00659173)
(1.02309 -0.00283642 -0.0162058)
(1.04919 -0.0139063 -0.0100012)
(1.04562 -0.0286571 -0.00095198)
(1.01543 -0.0241031 0.0020404)
(0.993711 -0.00126855 0.00816473)
(1.0168 0.0146166 -0.00129666)
(1.04164 0.0131903 -0.0199393)
(1.03989 -0.00740611 -0.0232173)
(1.01701 -0.00607014 0.000608344)
(1.01964 -0.00924786 0.00263239)
(1.03657 -0.0167311 -0.0142291)
(1.03491 -0.0073913 -0.0120655)
(1.03634 -0.00592645 -0.0185608)
(1.02469 0.00171685 -0.0135578)
(1.03015 0.00706307 -0.00608237)
(1.05939 0.00789173 -0.0143923)
(1.05831 -0.0118139 -0.00756757)
(1.03161 -0.0258058 0.00625821)
(1.02988 -0.0199391 -0.000137029)
(1.0421 -0.010184 -0.0122885)
(1.04016 0.0139764 -0.00720792)
(1.02826 0.025349 -0.00113111)
(1.0152 0.0154848 0.00137677)
(0.991125 0.00454337 0.0144302)
(0.979134 0.016026 0.0258024)
(1.00091 0.0208904 0.00753453)
(1.0229 0.0181148 -0.0189901)
(1.0438 -0.0034386 -0.017911)
(1.03821 -0.0325388 -0.0011198)
(1.0194 -0.0250332 0.0129161)
(1.03137 -0.00875118 -0.00300401)
(1.04706 -0.00190218 -0.0162777)
(1.04403 -0.000657493 -0.00523348)
(1.02988 0.00575672 -0.00997838)
(1.02333 0.00629183 -0.0184061)
(1.03617 -0.00788991 -0.0239182)
(1.04452 -0.0238881 -0.00939168)
(1.02721 -0.01801 0.00255889)
(1.01925 -0.00569348 0.00203494)
(1.01026 -0.000740401 -0.000432935)
(1.02494 -0.00450366 -0.0117794)
(1.04498 -0.0125484 -0.00892631)
(1.04044 -0.0228764 0.0012063)
(1.01489 -0.0189297 0.00594256)
(0.999201 -0.0013807 0.00771898)
(1.02022 0.00793674 -0.00285102)
(1.04263 0.00528294 -0.017195)
(1.03789 -0.00978026 -0.0171481)
(1.01609 -0.00812668 0.00214871)
(1.01759 -0.00979529 0.00719244)
(1.03699 -0.0161691 -0.00546921)
(1.04056 -0.0083696 -0.00800314)
(1.03528 -0.00639048 -0.0126937)
(1.01904 5.75104e-05 -0.00559778)
(1.02552 0.00425468 -0.00312363)
(1.0534 0.00262606 -0.0154819)
(1.05027 -0.0113444 -0.00513348)
(1.02773 -0.0220189 0.0108085)
(1.02057 -0.0202339 0.00590977)
(1.02385 -0.0103875 -0.0102784)
(1.02542 0.0125204 -0.0151731)
(1.0278 0.0236125 -0.0109061)
(1.02977 0.0135925 -0.0054556)
(1.01642 0.00254977 0.00926946)
(1.00882 0.0126152 0.0178161)
(1.02512 0.0148462 0.00672475)
(1.03769 0.0119071 -0.011123)
(1.04772 -0.00253567 -0.0111124)
(1.04019 -0.0251136 -0.000114092)
(1.02166 -0.020974 0.00862298)
(1.02872 -0.00882855 -0.00356679)
(1.03775 -0.000851933 -0.0177455)
(1.03763 0.00227563 -0.0101617)
(1.03092 0.00423988 -0.0088924)
(1.02258 0.00152789 -0.00996851)
(1.03367 -0.00940372 -0.0116754)
(1.03835 -0.0192855 -0.00465066)
(1.02361 -0.0127678 0.00241839)
(1.02174 -0.00558731 0.00345679)
(1.01698 -0.00304316 0.00205657)
(1.026 -0.00526007 -0.00717796)
(1.03726 -0.00991212 -0.00513546)
(1.03381 -0.0170511 0.0014724)
(1.01975 -0.0155284 0.00350548)
(1.0113 -0.00212015 0.00503216)
(1.02583 0.00416779 -0.000630525)
(1.03823 0.000670482 -0.00837721)
(1.03226 -0.0108836 -0.00877023)
(1.01762 -0.00928914 0.00511218)
(1.02001 -0.00727685 0.0111801)
(1.03509 -0.0115478 0.00127076)
(1.037 -0.0068582 -0.00302056)
(1.03186 -0.00588194 -0.00968917)
(1.01866 -0.000642449 -0.00343453)
(1.02389 0.00450422 0.000163958)
(1.04425 0.000943403 -0.00756412)
(1.0407 -0.00946689 0.000309528)
(1.02765 -0.0175952 0.00885174)
(1.01983 -0.018046 0.00597131)
(1.017 -0.00956017 -0.00806583)
(1.01994 0.0079094 -0.0137938)
(1.02672 0.0181625 -0.00892796)
(1.03259 0.0101717 -0.00211523)
(1.02579 0.00142096 0.00897922)
(1.02129 0.0108639 0.0136841)
(1.03373 0.0118154 0.00737517)
(1.03945 0.00802715 -0.00484239)
(1.04225 -0.0017418 -0.00530415)
(1.03755 -0.0182695 -0.0016667)
(1.02283 -0.0158176 0.00353915)
(1.02558 -0.00721215 -0.00180284)
(1.02737 -0.00126885 -0.0110912)
(1.02869 0.00169932 -0.0044672)
(1.0289 0.00127135 -0.00281627)
(1.02243 -0.00102879 -0.0014241)
(1.03055 -0.0070823 -0.00285767)
(1.03155 -0.0136333 -0.000957103)
(1.02415 -0.00960212 0.00245497)
(1.0242 -0.00528297 0.0023477)
(1.02016 -0.0031311 0.00167029)
(1.02557 -0.00354644 -0.00407792)
(1.03253 -0.00671604 -0.00240492)
(1.0308 -0.0119403 0.000235677)
(1.02387 -0.0117908 0.000412924)
(1.0174 -0.00154423 0.00341967)
(1.02667 0.00269466 0.0017901)
(1.0345 -0.0012954 -0.00306322)
(1.02956 -0.0103428 -0.00490233)
(1.01932 -0.00858011 0.00482011)
(1.02035 -0.00287755 0.0105992)
(1.03171 -0.00594798 0.00296291)
(1.03246 -0.00425958 -0.00087419)
(1.02863 -0.00445299 -0.0081921)
(1.01895 -0.000556652 -0.00286541)
(1.02312 0.00570558 0.00145764)
(1.03824 6.16321e-05 -0.00266903)
(1.03449 -0.00873289 0.00226581)
(1.02694 -0.0139788 0.00463734)
(1.02075 -0.0135404 0.00376514)
(1.01667 -0.00651344 -0.00506183)
(1.0194 0.00486581 -0.00721561)
(1.0245 0.0134242 -0.00180949)
(1.03026 0.00845096 0.00242301)
(1.02806 0.00242804 0.00840043)
(1.02487 0.0104243 0.0111293)
(1.03439 0.0105029 0.00741474)
(1.03633 0.00561852 -0.00140542)
(1.03614 -0.000745243 -0.00222968)
(1.03472 -0.0125257 -0.00289654)
(1.02332 -0.0116657 0.000728771)
(1.02387 -0.00623511 0.00140052)
(1.02278 -0.00142285 -0.00272003)
(1.02498 0.00144539 0.00230591)
(1.02819 -0.00045496 0.00152734)
(1.02299 -0.00144352 0.00240221)
(1.02952 -0.00375679 0.000713774)
(1.02968 -0.00908221 0.000997349)
(1.02577 -0.00733393 0.00209996)
(1.02592 -0.00438572 0.000590145)
(1.02161 -0.00276606 0.000704712)
(1.02554 -0.00176933 -0.00223228)
(1.03095 -0.00381723 -0.000902944)
(1.02989 -0.00788966 1.55226e-05)
(1.02609 -0.00884098 -0.000591377)
(1.02034 -0.00171841 0.00216747)
(1.02706 0.00181556 0.00197334)
(1.03286 -0.00142045 -0.00111413)
(1.02865 -0.00865978 -0.00301624)
(1.02106 -0.00742546 0.00304805)
(1.02061 0.000128428 0.00749784)
(1.02972 -0.00237006 0.00216098)
(1.03047 -0.00237772 -0.000218389)
(1.02774 -0.00320321 -0.00622096)
(1.02054 -0.00114848 -0.00222531)
(1.02329 0.00566938 0.00117867)
(1.03515 -7.97503e-05 -0.00125411)
(1.03184 -0.00689605 0.00209223)
(1.02708 -0.0101309 0.00179541)
(1.02239 -0.00948662 0.00268678)
(1.01854 -0.00399581 -0.00209689)
(1.02077 0.0031057 -0.00236833)
(1.02367 0.00963364 0.00202688)
(1.02858 0.00716395 0.00368006)
(1.02874 0.00305864 0.00701767)
(1.02598 0.00930849 0.00860046)
(1.03339 0.00865013 0.00657032)
(1.03422 0.0033683 0.000108404)
(1.0327 -0.000149615 -0.000943858)
(1.03231 -0.00893726 -0.00200179)
(1.0236 -0.00859333 0.000704375)
(1.02467 -0.00531078 0.00285719)
(1.02366 -0.00111937 0.000739105)
(1.02588 0.0018023 0.00375994)
(1.02965 -0.000610051 0.00205602)
(1.0245 -0.000780212 0.00284172)
(1.02958 -0.00176487 0.00149081)
(1.02998 -0.00635542 0.00173583)
(1.0266 -0.00572079 0.00168591)
(1.02688 -0.00368313 7.31411e-05)
(1.02253 -0.00247627 0.00056326)
(1.02593 -0.000509481 -0.00160336)
(1.03028 -0.00194392 -0.000509947)
(1.02941 -0.00540597 0.000394246)
(1.02746 -0.00648666 -0.000457601)
(1.02226 -0.00145189 0.00128496)
(1.0273 0.00109834 0.00139402)
(1.0317 -0.00164763 -0.000268579)
(1.02824 -0.0069277 -0.0017171)
(1.02293 -0.00608406 0.0017662)
(1.02153 0.00174934 0.00476976)
(1.0289 -0.000528786 0.00118153)
(1.0299 -0.00159838 7.83275e-05)
(1.02793 -0.00231798 -0.00454416)
(1.02237 -0.00135602 -0.00163711)
(1.02381 0.00520706 0.00036674)
(1.03326 0.000177536 -0.00149711)
(1.03032 -0.00527502 0.00140168)
(1.02703 -0.00743059 0.000442018)
(1.02378 -0.00709149 0.00226724)
(1.02054 -0.00244919 -0.000660998)
(1.02254 0.00234887 -0.000767738)
(1.02414 0.00708707 0.00239985)
(1.02785 0.00632629 0.00312502)
(1.02907 0.00296093 0.00580039)
(1.02662 0.00732016 0.00642929)
(1.03233 0.00655313 0.00507692)
(1.03304 0.00169738 0.000797182)
(1.03123 -5.21915e-05 0.000323083)
(1.03131 -0.00661293 -0.000767665)
(1.02411 -0.00579527 0.000367358)
(1.0257 -0.00410763 0.0023022)
(1.02529 -0.00108041 0.00154809)
(1.02678 0.00133902 0.0037544)
(1.03014 -0.00139031 0.00185332)
(1.0252 -0.00100536 0.00233402)
(1.02947 -0.00110097 0.00127138)
(1.02991 -0.00449275 0.00157559)
(1.02691 -0.00461905 0.00127101)
(1.02762 -0.00329237 -0.000285158)
(1.02335 -0.00218831 0.000334373)
(1.02637 -2.67576e-05 -0.00120916)
(1.0298 -0.000855839 -0.000339961)
(1.0288 -0.00372589 0.000490208)
(1.02807 -0.00490692 -0.00041414)
(1.02358 -0.00149545 0.000792433)
(1.02768 0.000552655 0.000952492)
(1.03087 -0.00131514 1.39163e-06)
(1.02772 -0.00503813 -0.00100456)
(1.02444 -0.00495112 0.000877373)
(1.02264 0.00217094 0.00286032)
(1.02855 0.000324011 0.000462034)
(1.02975 -0.00109516 4.31732e-05)
(1.02801 -0.0015541 -0.00341573)
(1.02373 -0.00167091 -0.00124948)
(1.02445 0.00424678 -0.000221921)
(1.03186 0.000377995 -0.00158356)
(1.02935 -0.00379068 0.00102813)
(1.02702 -0.00488144 -0.000377941)
(1.02478 -0.00497573 0.00162943)
(1.02218 -0.00127686 -0.000209491)
(1.02404 0.00216966 -0.000354013)
(1.02487 0.00526317 0.00216469)
(1.02739 0.00547837 0.00231722)
(1.02928 0.002615 0.00459629)
(1.02729 0.00544904 0.0047504)
(1.03156 0.00499291 0.00387808)
(1.03225 0.00053642 0.000972385)
(1.03031 -0.000163194 0.000589123)
(1.0307 -0.00511 -7.05028e-05)
(1.02462 -0.00384323 0.000533565)
(1.02647 -0.00298595 0.00189291)
(1.02642 -0.00119395 0.00133758)
(1.02709 0.000775412 0.00284932)
(1.03017 -0.00192225 0.00141302)
(1.02556 -0.000946748 0.00186869)
(1.02906 -0.000993726 0.000910582)
(1.02939 -0.00351458 0.0011771)
(1.02704 -0.00336804 0.000908438)
(1.02806 -0.00282745 -0.000447019)
(1.02403 -0.0017526 0.000328993)
(1.02678 0.000163792 -0.000881502)
(1.02928 -0.000412071 -0.000364261)
(1.02818 -0.00261976 0.000474638)
(1.02853 -0.00356015 -0.000337176)
(1.02459 -0.00118291 0.000514085)
(1.0278 0.000180118 0.000576281)
(1.03006 -0.00124367 -1.91709e-05)
(1.02721 -0.00371888 -0.000505476)
(1.02581 -0.00397071 0.000501542)
(1.02374 0.00204654 0.00169649)
(1.02806 0.000589773 4.49371e-05)
(1.02952 -0.00093038 2.23462e-05)
(1.02807 -0.00105338 -0.00263291)
(1.02488 -0.00162729 -0.00098322)