/*--------------------------------*- C++ -*----------------------------------*\
  =========                 |
  \\      /  F ield         | OpenFOAM: The Open Source CFD Toolbox
   \\    /   O peration     | Website:  https://openfoam.org
    \\  /    A nd           | Version:  10
     \\/     M anipulation  |
\*---------------------------------------------------------------------------*/
FoamFile
{
    format      ascii;
    class       volVectorField;
    location    "10";
    object      U;
}
// * * * * * * * * * * * * * * * * * * * * * * * * * * * * * * * * * * * * * //

dimensions      [0 1 -1 0 0 0 0];

internalField   nonuniform List<vector> 
25600
(
(0.0570856 -1.20129e-05 -0.00071772)
(0.0559338 3.23682e-06 -0.000611163)
(0.0568686 1.52241e-05 -0.000690296)
(0.0557147 1.67393e-05 -0.000586791)
(0.0567086 2.86564e-06 -0.000696151)
(0.0557873 -7.45987e-06 -0.000635551)
(0.0567134 -9.65401e-07 -0.000672505)
(0.0557238 1.79899e-05 -0.000564193)
(0.0565783 1.46796e-05 -0.000639733)
(0.0558447 5.1359e-06 -0.000589983)
(0.0568769 -7.15903e-06 -0.000595596)
(0.0562341 1.05436e-06 -0.000552771)
(0.0570652 1.41929e-05 -0.000604622)
(0.0563622 1.69839e-05 -0.000592617)
(0.0572971 4.36862e-06 -0.000703716)
(0.0567122 -7.46296e-06 -0.000730725)
(0.0575145 2.85324e-06 -0.000774004)
(0.0566784 1.29279e-05 -0.000683317)
(0.0574001 2.03591e-05 -0.000811936)
(0.0565082 6.65683e-06 -0.000760335)
(0.0573544 -6.43438e-06 -0.000870219)
(0.056366 -1.03962e-07 -0.000772905)
(0.0570834 1.32118e-05 -0.000783677)
(0.0559598 1.38479e-05 -0.000695811)
(0.0568914 3.3167e-06 -0.000703421)
(0.0557837 -4.53446e-06 -0.000576309)
(0.0568334 7.84285e-07 -0.00058542)
(0.0555453 1.60556e-05 -0.000429591)
(0.0566709 1.21406e-05 -0.000501013)
(0.0554635 3.52094e-06 -0.000389021)
(0.0569062 -7.11906e-06 -0.000370172)
(0.0556609 1.32385e-06 -0.000319565)
(0.0569661 1.68924e-05 -0.000287639)
(0.0556738 1.39781e-05 -0.00034962)
(0.0570742 1.7989e-06 -0.000458784)
(0.0558938 -9.53627e-06 -0.000439561)
(0.057181 -1.0006e-06 -0.000495726)
(0.0559082 1.1546e-05 -0.000449781)
(0.0569934 1.58492e-05 -0.000550009)
(0.0558677 -3.44627e-07 -0.000555078)
(0.174529 4.30444e-05 -0.00206452)
(0.17102 0.000107832 -0.00180756)
(0.174056 0.000146021 -0.00204451)
(0.170825 0.000147805 -0.00179866)
(0.173778 8.77431e-05 -0.00205303)
(0.170782 6.49026e-05 -0.00184167)
(0.173309 8.4512e-05 -0.00192961)
(0.170514 0.000158702 -0.00167008)
(0.173211 0.000127073 -0.00184385)
(0.170914 9.71891e-05 -0.00167094)
(0.173745 5.20427e-05 -0.00172597)
(0.171578 9.90012e-05 -0.00160911)
(0.174301 0.000130169 -0.00178118)
(0.172318 0.000142463 -0.00173166)
(0.175329 9.17082e-05 -0.00200622)
(0.173192 6.415e-05 -0.00203188)
(0.175795 0.000104664 -0.00218408)
(0.173287 0.000141507 -0.00203357)
(0.175936 0.000161716 -0.00236959)
(0.173196 0.000104036 -0.00222662)
(0.175758 6.15869e-05 -0.00248062)
(0.172515 9.44243e-05 -0.00219864)
(0.175018 0.00013547 -0.00227552)
(0.171611 0.000140424 -0.00202921)
(0.174567 9.44966e-05 -0.00201745)
(0.170825 7.64456e-05 -0.00170621)
(0.173993 9.28713e-05 -0.00169569)
(0.17001 0.000141104 -0.00130492)
(0.173713 0.000116229 -0.0014254)
(0.169796 7.95785e-05 -0.00105098)
(0.174045 5.01272e-05 -0.00111168)
(0.169966 8.17168e-05 -0.000907413)
(0.174205 0.000133324 -0.000989653)
(0.17045 0.000106826 -0.00104194)
(0.174689 6.37941e-05 -0.00134175)
(0.17095 2.89733e-05 -0.00126032)
(0.174729 6.93682e-05 -0.00152621)
(0.17102 0.000117906 -0.00144263)
(0.174565 0.000130073 -0.00177752)
(0.171188 7.04986e-05 -0.00173639)
(0.297034 0.000195254 -0.00314706)
(0.29145 0.000328069 -0.00281307)
(0.29643 0.000388883 -0.00316236)
(0.291589 0.00040047 -0.00286577)
(0.296243 0.000276175 -0.00322036)
(0.291483 0.000260243 -0.00296605)
(0.295173 0.000283477 -0.00304316)
(0.290679 0.000425148 -0.00268051)
(0.294988 0.000352786 -0.00288949)
(0.290968 0.000302519 -0.00262311)
(0.295328 0.000210509 -0.00268218)
(0.291359 0.00031365 -0.00247142)
(0.296061 0.000345657 -0.0027072)
(0.29241 0.000371145 -0.00256905)
(0.297977 0.000272632 -0.00295132)
(0.293911 0.000242 -0.00297014)
(0.298997 0.000315793 -0.00323976)
(0.29452 0.000384042 -0.00303959)
(0.299928 0.000419586 -0.00355823)
(0.295187 0.000308362 -0.0034163)
(0.299984 0.000228081 -0.0038218)
(0.294204 0.000301219 -0.00346721)
(0.299076 0.000366539 -0.0036136)
(0.293083 0.000390908 -0.00332384)
(0.298589 0.000301475 -0.00331753)
(0.291746 0.000278156 -0.00287669)
(0.297318 0.000306577 -0.00286878)
(0.290105 0.000383279 -0.00221702)
(0.296636 0.000338638 -0.00239285)
(0.289426 0.000258708 -0.00168046)
(0.296553 0.000212604 -0.00182633)
(0.289235 0.000260481 -0.00134141)
(0.29645 0.000343624 -0.0015367)
(0.290242 0.000290571 -0.00142845)
(0.297223 0.000207859 -0.00194203)
(0.291095 0.000157557 -0.00175409)
(0.297205 0.000225331 -0.0022458)
(0.29125 0.000315522 -0.00214218)
(0.297235 0.00033374 -0.00271099)
(0.291814 0.000233529 -0.00267757)
(0.419752 0.000414818 -0.00362376)
(0.412978 0.000664479 -0.00333099)
(0.418929 0.000712879 -0.00368409)
(0.413352 0.000716949 -0.00345436)
(0.41912 0.000507024 -0.00384643)
(0.413719 0.00055747 -0.00376577)
(0.418218 0.00061556 -0.00382351)
(0.412134 0.00081207 -0.00338255)
(0.417657 0.000667432 -0.00359424)
(0.411892 0.000589942 -0.00329316)
(0.417655 0.000466288 -0.00331268)
(0.411421 0.000661294 -0.00297876)
(0.418045 0.000670863 -0.00322585)
(0.411595 0.000659653 -0.00293776)
(0.420143 0.000497196 -0.00330292)
(0.413624 0.000502827 -0.00331703)
(0.421895 0.000625211 -0.00363614)
(0.414956 0.000712645 -0.0033748)
(0.423661 0.000729453 -0.00397367)
(0.417115 0.000584191 -0.0039345)
(0.424957 0.000478955 -0.00451883)
(0.416566 0.000617172 -0.00422344)
(0.424321 0.000661112 -0.00442172)
(0.415538 0.000694899 -0.00422581)
(0.424422 0.000581449 -0.00436347)
(0.41458 0.000585833 -0.00385367)
(0.423067 0.000667578 -0.00403981)
(0.412216 0.000733922 -0.00305838)
(0.421526 0.000660801 -0.00342194)
(0.410837 0.000519093 -0.00226039)
(0.420593 0.000491262 -0.00250502)
(0.410116 0.000573793 -0.00162485)
(0.419252 0.000633704 -0.00179537)
(0.410915 0.000548021 -0.00139374)
(0.419814 0.000398451 -0.00199596)
(0.412088 0.0003913 -0.00166926)
(0.420033 0.00048761 -0.00224281)
(0.412194 0.000589329 -0.00215821)
(0.419897 0.000562323 -0.00287236)
(0.413201 0.000434386 -0.00302968)
(0.536842 0.000547294 -0.0030983)
(0.53098 0.00109028 -0.00305622)
(0.536738 0.00117653 -0.00330732)
(0.53091 0.00106875 -0.00321207)
(0.536342 0.00062262 -0.00348543)
(0.531103 0.000750598 -0.00368198)
(0.537383 0.00103275 -0.00392242)
(0.53029 0.00136018 -0.0034518)
(0.536733 0.00105806 -0.00364224)
(0.528675 0.000833445 -0.00337192)
(0.536288 0.000690979 -0.00339263)
(0.527648 0.0011113 -0.00296332)
(0.537028 0.00119746 -0.00321971)
(0.526111 0.0010374 -0.00284783)
(0.536908 0.000642423 -0.00294982)
(0.52726 0.000724365 -0.00298841)
(0.539024 0.000997834 -0.00319978)
(0.529689 0.00117092 -0.00292315)
(0.540813 0.00104606 -0.00339491)
(0.53226 0.000782263 -0.00340006)
(0.543881 0.000686864 -0.00417914)
(0.533696 0.00103365 -0.0040155)
(0.544706 0.00106018 -0.00427589)
(0.53259 0.000958067 -0.00406149)
(0.54487 0.00076116 -0.00457073)
(0.533016 0.000820859 -0.0039734)
(0.54553 0.00115258 -0.00476786)
(0.532268 0.00122671 -0.00346714)
(0.543329 0.00103876 -0.0042439)
(0.529895 0.000734836 -0.0026442)
(0.541134 0.000756311 -0.00297133)
(0.529766 0.00107555 -0.00189502)
(0.53896 0.00106357 -0.00184684)
(0.529027 0.000864043 -0.00113895)
(0.537566 0.000502609 -0.00148996)
(0.529022 0.000607558 -0.00101523)
(0.538578 0.000882585 -0.00134311)
(0.530118 0.0010515 -0.00135175)
(0.537592 0.000809762 -0.00189865)
(0.530317 0.000532519 -0.00241319)
(0.643791 0.000234535 -0.00135754)
(0.639985 0.00125312 -0.00160634)
(0.646902 0.00183208 -0.00183199)
(0.641892 0.00169625 -0.0019599)
(0.645607 0.000696777 -0.00209104)
(0.63758 0.000477045 -0.00220987)
(0.646223 0.00112403 -0.00271085)
(0.640043 0.0020154 -0.00239922)
(0.649273 0.00169501 -0.00261949)
(0.637444 0.00102075 -0.00241919)
(0.646343 0.000552346 -0.00245526)
(0.634705 0.00131533 -0.00204147)
(0.649608 0.00189525 -0.002219)
(0.635576 0.00178484 -0.00225502)
(0.646511 0.000749834 -0.00187428)
(0.63209 0.000619207 -0.00198852)
(0.645956 0.00116402 -0.00185416)
(0.636174 0.00178556 -0.00156034)
(0.649216 0.00158488 -0.00198806)
(0.637064 0.000864188 -0.00171061)
(0.65063 0.000515603 -0.00269091)
(0.639816 0.00126916 -0.00248376)
(0.655618 0.00168298 -0.00305382)
(0.64097 0.00137325 -0.00249245)
(0.653676 0.000786683 -0.00342425)
(0.639775 0.000583159 -0.00244532)
(0.655538 0.00139489 -0.00406786)
(0.645327 0.00187826 -0.00272664)
(0.657035 0.00159682 -0.00410107)
(0.642799 0.000852506 -0.00246875)
(0.651262 0.00057213 -0.00253957)
(0.642809 0.00148021 -0.0017585)
(0.65283 0.00174253 -0.00154726)
(0.643569 0.00147969 -0.000926381)
(0.649084 0.000483539 -0.00074465)
(0.637829 0.000366198 -0.000169938)
(0.647509 0.00105018 0.000367672)
(0.642336 0.00178675 0.000151267)
(0.648741 0.00139 7.3063e-05)
(0.641104 0.000565545 -0.000726383)
(0.744526 -0.000386787 0.000963896)
(0.735997 0.000408418 0.000970891)
(0.745033 0.00207378 0.00102916)
(0.744343 0.0027316 0.000739589)
(0.75132 0.00132835 0.000133328)
(0.736511 -8.31302e-05 0.000116166)
(0.741946 0.000218789 -0.000120809)
(0.73526 0.00210896 0.000350509)
(0.752562 0.00263492 4.58852e-05)
(0.739657 0.0015913 -0.000189642)
(0.748189 -6.97049e-06 -0.0001768)
(0.728879 0.000570627 -5.98053e-05)
(0.748146 0.00200279 0.000676582)
(0.738148 0.00296237 -0.000252362)
(0.751636 0.00134175 0.000146318)
(0.731403 0.000116749 -0.000233011)
(0.741296 0.000498113 0.000101811)
(0.731347 0.00200945 0.00125091)
(0.74922 0.00256939 0.000340728)
(0.736158 0.00132463 0.00103867)
(0.746659 -0.000124426 -0.000368426)
(0.73219 0.000504267 0.000327397)
(0.751994 0.00200643 -0.000502753)
(0.742111 0.00222532 0.000329748)
(0.75297 0.00121884 -0.00108519)
(0.736837 -0.000111287 0.000355477)
(0.745792 0.000578553 -0.00136509)
(0.743578 0.00209273 -6.39624e-05)
(0.757839 0.00245063 -0.00184469)
(0.749501 0.00134308 -0.00124194)
(0.749674 -0.000175867 -0.000819719)
(0.740531 0.000847915 -0.0003188)
(0.752944 0.0020599 0.000251002)
(0.751027 0.00259318 -1.94687e-05)
(0.757726 0.000999673 0.000375263)
(0.741769 -0.00031186 0.000321456)
(0.743307 0.000156597 0.00221962)
(0.74275 0.0020577 0.00247926)
(0.752388 0.00250081 0.00281757)
(0.748815 0.00116085 0.00171863)
(0.847787 -6.39565e-05 0.00334889)
(0.825825 -0.000901229 0.00290186)
(0.827683 0.000974736 0.00390208)
(0.829341 0.0031639 0.00499457)
(0.849851 0.00256422 0.00414335)
(0.837148 0.000286696 0.00297909)
(0.833609 -0.00101722 0.00209766)
(0.814715 0.000948861 0.00340995)
(0.838516 0.00287434 0.0045688)
(0.834602 0.0027391 0.00371612)
(0.84875 3.6336e-05 0.0034902)
(0.818786 -0.000693351 0.00189655)
(0.828619 0.000636313 0.00399645)
(0.823708 0.0033968 0.00422431)
(0.848599 0.00261401 0.00414695)
(0.831814 0.000202074 0.00327605)
(0.831559 -0.000724525 0.00163118)
(0.813909 0.000954289 0.00455786)
(0.834035 0.0030564 0.00417733)
(0.831781 0.00251178 0.00531488)
(0.841516 -7.78879e-05 0.0029136)
(0.819477 -0.000955756 0.00301668)
(0.82933 0.000988284 0.00279302)
(0.830785 0.00261101 0.00435751)
(0.844518 0.00230914 0.00290632)
(0.836504 -7.78689e-05 0.00359457)
(0.827054 -0.000847002 0.00181721)
(0.822967 0.000973178 0.00331961)
(0.837896 0.00273882 0.00277534)
(0.846098 0.00245062 0.00201374)
(0.845997 -0.000302208 0.00206016)
(0.827495 -0.000636291 0.00152609)
(0.831766 0.000825533 0.00328645)
(0.837242 0.00303526 0.00283011)
(0.856437 0.00231271 0.00330126)
(0.847107 -0.000160944 0.0015837)
(0.833803 -0.00129471 0.00276571)
(0.825642 0.00076781 0.00445072)
(0.838653 0.00291935 0.00636454)
(0.848077 0.00243524 0.00561905)
(0.936506 0.000812987 0.00729374)
(0.91557 -0.0011747 0.00508447)
(0.903535 -0.000518909 0.0036646)
(0.894486 0.00215737 0.00526423)
(0.920592 0.00282255 0.00678986)
(0.924234 0.0011006 0.00729831)
(0.925344 -0.00131065 0.00490828)
(0.891687 -0.000372811 0.00335492)
(0.903786 0.00170085 0.0055071)
(0.906433 0.00302402 0.00623671)
(0.935111 0.000517366 0.00817175)
(0.911566 -0.00117154 0.00527509)
(0.903636 -0.00105176 0.00386811)
(0.889809 0.00216593 0.00543088)
(0.919642 0.00299168 0.00667117)
(0.921321 0.000747766 0.00896811)
(0.919997 -0.00130676 0.00468205)
(0.89369 -0.00063719 0.00496789)
(0.899293 0.00202532 0.0050238)
(0.907529 0.00287671 0.00813951)
(0.926228 0.000570354 0.00794552)
(0.910548 -0.00163217 0.00609936)
(0.898975 -0.000695384 0.00409609)
(0.900337 0.00158824 0.00500879)
(0.914004 0.00264903 0.00575011)
(0.926606 0.00050285 0.00755113)
(0.91301 -0.00146703 0.00578878)
(0.897331 -0.000715374 0.00455207)
(0.898226 0.00161656 0.0045946)
(0.915687 0.00277392 0.00442419)
(0.931044 0.000352131 0.00611636)
(0.914341 -0.00130253 0.00426792)
(0.902603 -0.00101321 0.00451255)
(0.898375 0.00177733 0.00344478)
(0.923409 0.00262847 0.00493813)
(0.935641 0.000689102 0.00502054)
(0.924997 -0.00168845 0.00421104)
(0.901495 -0.000927838 0.00368828)
(0.903449 0.00173856 0.00563014)
(0.917393 0.00262495 0.00832519)
(0.985276 0.00106281 0.0049618)
(0.980939 -0.000751375 0.00803678)
(0.968366 -0.00113897 0.00598263)
(0.950437 0.0009485 0.00230597)
(0.964916 0.00211165 0.000434622)
(0.97468 0.00131366 0.00435825)
(0.988499 -0.00106936 0.0080889)
(0.96134 -0.000832747 0.00562646)
(0.958483 0.000478813 0.0026823)
(0.955146 0.00232234 0.000183368)
(0.983839 0.000551694 0.00478979)
(0.980434 -0.00104651 0.0089787)
(0.970233 -0.00165037 0.00618015)
(0.94754 0.000740599 0.00303125)
(0.963829 0.0022298 -0.000225448)
(0.976934 0.000841566 0.00591617)
(0.983666 -0.00124537 0.00833936)
(0.964312 -0.00141691 0.00721643)
(0.954665 0.000695861 0.00258638)
(0.958657 0.00214546 0.00157188)
(0.977978 0.000664192 0.00578908)
(0.979974 -0.00150539 0.00890069)
(0.962987 -0.00161275 0.00725326)
(0.956767 0.000248424 0.00267197)
(0.96043 0.00198573 0.000336549)
(0.980757 0.000660864 0.00410055)
(0.979686 -0.00132308 0.00879797)
(0.965569 -0.00160341 0.00759917)
(0.952375 0.000212053 0.00361413)
(0.960159 0.00193928 -0.000499409)
(0.981806 0.000588678 0.00344438)
(0.98024 -0.00105503 0.00670117)
(0.967482 -0.00178488 0.00741308)
(0.950898 0.000333896 0.00259482)
(0.962962 0.00177495 -0.000877194)
(0.982987 0.000920408 0.00197907)
(0.989617 -0.00130536 0.00621473)
(0.968303 -0.00155999 0.00594544)
(0.958369 0.000526649 0.00189699)
(0.960722 0.00187986 0.00196098)
(1.0059 0.000960701 -0.00348497)
(1.01111 -0.000172115 0.00498992)
(1.00701 -0.000665822 0.00955088)
(0.992389 0.000722064 0.00468761)
(0.99488 0.00147424 -0.00432679)
(0.999342 0.00124342 -0.00464691)
(1.01444 -0.000654195 0.00479027)
(1.00361 -0.000306373 0.00905496)
(0.997877 0.000287615 0.00478105)
(0.989827 0.00173311 -0.0045563)
(1.00494 0.000423336 -0.00458344)
(1.01161 -0.000711936 0.00554752)
(1.00979 -0.0010795 0.00968491)
(0.991732 0.000499111 0.0055029)
(0.993154 0.00154702 -0.00514279)
(1.00269 0.000697039 -0.00415775)
(1.01244 -0.000876421 0.00475995)
(1.00608 -0.00098332 0.0099103)
(0.995527 0.000424165 0.00492404)
(0.992422 0.00155928 -0.00420791)
(1.00263 0.000390579 -0.00324952)
(1.01186 -0.00110247 0.00503658)
(1.00391 -0.00124144 0.0102701)
(0.996846 -6.30216e-05 0.00482056)
(0.992478 0.00137666 -0.00396737)
(1.00502 0.000445247 -0.00493255)
(1.01075 -0.000935895 0.00462334)
(1.00733 -0.00116818 0.0101348)
(0.994493 -3.74039e-05 0.00624236)
(0.991673 0.00119373 -0.00411977)
(1.00486 0.000296742 -0.0044502)
(1.01116 -0.00067314 0.00316343)
(1.00785 -0.00126815 0.00977776)
(0.992753 0.000148877 0.00589472)
(0.99155 0.00109851 -0.00447767)
(1.00315 0.000566824 -0.00587538)
(1.01617 -0.000892487 0.00265169)
(1.00808 -0.00108589 0.00919662)
(0.998345 0.00035082 0.00393847)
(0.991724 0.00137559 -0.00354203)
(1.01615 0.000447044 -0.00653624)
(1.0211 -0.000344313 0.000417952)
(1.02292 -0.000144248 0.00895258)
(1.01664 0.00144503 0.00760996)
(1.01441 0.00148755 -0.00219026)
(1.01318 0.000770281 -0.00749465)
(1.02176 -0.000918974 0.00021043)
(1.02135 0.000206007 0.00835803)
(1.01935 0.00105735 0.00752945)
(1.01237 0.00176681 -0.00264784)
(1.01567 6.83916e-06 -0.0075714)
(1.0213 -0.00100407 0.000635785)
(1.02483 -0.000467091 0.00900145)
(1.01691 0.00134688 0.0081707)
(1.01316 0.00159262 -0.00286073)
(1.0148 0.000220199 -0.00752376)
(1.02147 -0.00113374 -1.54985e-05)
(1.02249 -0.000422043 0.00860815)
(1.01834 0.00120127 0.00769897)
(1.01316 0.00173006 -0.00290226)
(1.01489 -0.000178919 -0.00667967)
(1.02141 -0.00139807 0.000169472)
(1.02139 -0.000720469 0.00908815)
(1.01871 0.000622804 0.00735166)
(1.01329 0.00149541 -0.0021559)
(1.01645 -5.34986e-05 -0.00775575)
(1.0205 -0.00123657 -0.000374472)
(1.02369 -0.000614307 0.00848808)
(1.01805 0.000799546 0.00841463)
(1.01303 0.00125861 -0.00208563)
(1.01627 -0.000229126 -0.00688721)
(1.02115 -0.000967541 -0.00101334)
(1.02385 -0.000684563 0.0082153)
(1.01738 0.00101816 0.00848377)
(1.01226 0.00126368 -0.00204694)
(1.0144 -9.03903e-05 -0.00785255)
(1.02314 -0.0012603 -0.0013171)
(1.02382 -0.000601029 0.00847346)
(1.01997 0.00112361 0.00704968)
(1.01266 0.00150637 -0.00216675)
(1.023 0.000132659 -0.00464647)
(1.02415 -0.00087762 -0.000870356)
(1.02695 -0.000358582 0.00626493)
(1.02713 0.00184653 0.00668836)
(1.02557 0.00182927 0.000156642)
(1.02222 0.000497753 -0.00518375)
(1.02383 -0.00144961 -0.00087645)
(1.02637 -3.50448e-05 0.00570543)
(1.02802 0.00153041 0.00652425)
(1.02492 0.0020654 -0.000429791)
(1.02291 -0.000152882 -0.00537537)
(1.02402 -0.00151464 -0.000817326)
(1.02765 -0.000579451 0.00622795)
(1.02728 0.00188796 0.00686482)
(1.02514 0.00197381 -0.000468933)
(1.02232 2.51233e-05 -0.00539384)
(1.02408 -0.00165258 -0.00112424)
(1.0264 -0.00055615 0.00571862)
(1.02775 0.00169104 0.00666458)
(1.02481 0.0022304 -0.000811434)
(1.02243 -0.000392687 -0.00501231)
(1.02367 -0.0019315 -0.00101385)
(1.02619 -0.000842761 0.00621698)
(1.0275 0.00104566 0.00637448)
(1.02506 0.00190856 -0.000164064)
(1.02343 -0.000203856 -0.00559073)
(1.02329 -0.00177838 -0.00145608)
(1.02729 -0.00074107 0.00547061)
(1.02747 0.00135308 0.00689269)
(1.02529 0.00166556 -0.000152857)
(1.02347 -0.000392372 -0.00494672)
(1.0241 -0.00148499 -0.00178354)
(1.02731 -0.000794702 0.00532879)
(1.02763 0.00155728 0.00703594)
(1.02487 0.00178205 8.11764e-05)
(1.02248 -0.00039051 -0.00541578)
(1.02467 -0.00186114 -0.00183535)
(1.02735 -0.000770822 0.00584807)
(1.02842 0.00166149 0.00646332)
(1.02476 0.00193394 -0.000104563)
(1.02645 1.00877e-05 -0.00277139)
(1.02521 -0.00104823 -0.000407209)
(1.0267 -0.000612265 0.0039418)
(1.02911 0.00162775 0.00370383)
(1.02932 0.00173257 -7.40661e-05)
(1.0266 0.000362398 -0.003081)
(1.02479 -0.00156269 -0.000246836)
(1.02656 -0.000351842 0.00342294)
(1.02927 0.00136929 0.00356867)
(1.02921 0.0019082 -0.000627136)
(1.02662 -0.000163704 -0.00327183)
(1.02497 -0.00161308 -0.00047061)
(1.02664 -0.000780604 0.00381038)
(1.02909 0.0017048 0.00360089)
(1.02932 0.00186919 -0.000708899)
(1.02619 -1.15348e-05 -0.00330371)
(1.02505 -0.00176437 -0.000551838)
(1.02612 -0.000791008 0.00342791)
(1.0292 0.00151504 0.00365367)
(1.02899 0.00218384 -0.000928444)
(1.02626 -0.00036566 -0.0032018)
(1.02449 -0.00200312 -0.000391063)
(1.0263 -0.00101992 0.0038061)
(1.02887 0.000911051 0.00355585)
(1.02903 0.00182615 -0.000478134)
(1.02683 -0.00017413 -0.00350864)
(1.02446 -0.00186431 -0.000714128)
(1.02672 -0.000903768 0.00317521)
(1.029 0.001264 0.00366131)
(1.02941 0.00160499 -0.000603427)
(1.02688 -0.000384104 -0.00319745)
(1.02509 -0.00158681 -0.00101499)
(1.02672 -0.000949209 0.00311006)
(1.02928 0.00142855 0.00372527)
(1.02936 0.00176385 -0.000408699)
(1.02653 -0.000432534 -0.00333175)
(1.02509 -0.00195167 -0.000888257)
(1.02665 -0.000960436 0.00361969)
(1.0294 0.00157668 0.00369764)
(1.02907 0.00189271 -0.000396393)
(1.02687 -6.26055e-05 -0.0017559)
(1.02547 -0.000778775 0.000112643)
(1.02592 -0.000523981 0.00239793)
(1.0278 0.00116108 0.00124249)
(1.02867 0.00123484 -0.000909672)
(1.02718 0.000237083 -0.0020026)
(1.02522 -0.00119805 0.000364188)
(1.02586 -0.000322237 0.00190838)
(1.02783 0.000959414 0.00119681)
(1.02873 0.00134536 -0.0013785)
(1.02713 -0.000176902 -0.00211589)
(1.0253 -0.00125384 -5.64201e-06)
(1.02559 -0.000666542 0.00221405)
(1.0278 0.00122474 0.00102342)
(1.02874 0.00130452 -0.00150099)
(1.02685 -4.50092e-05 -0.0021473)
(1.0254 -0.00137915 -5.60853e-06)
(1.0254 -0.000677155 0.00197748)
(1.02774 0.00107021 0.00122399)
(1.02861 0.00164517 -0.00157621)
(1.02701 -0.000316577 -0.00213005)
(1.02499 -0.00157549 0.000234289)
(1.02566 -0.000846733 0.00220728)
(1.02759 0.000588942 0.00127872)
(1.02845 0.00132585 -0.00125624)
(1.02724 -0.00015436 -0.00230787)
(1.02503 -0.0014538 -2.57585e-05)
(1.02578 -0.000744061 0.0017198)
(1.02774 0.000905769 0.00113426)
(1.0288 0.00113413 -0.0014624)
(1.02719 -0.000372603 -0.00220464)
(1.02534 -0.00123903 -0.000312822)
(1.02583 -0.000783118 0.00169485)
(1.02785 0.00101191 0.0011319)
(1.02885 0.00127506 -0.00136737)
(1.02708 -0.00042516 -0.00214639)
(1.02518 -0.00150791 -0.00010168)
(1.02563 -0.000779685 0.00216917)
(1.02781 0.00120734 0.00131618)
(1.02869 0.00138765 -0.00125117)
(1.0263 -0.000156638 -0.00105961)
(1.02547 -0.000452923 0.000255315)
(1.0256 -0.00024632 0.00145166)
(1.02652 0.000825973 0.000214136)
(1.02728 0.000736841 -0.000943685)
(1.02655 7.43157e-05 -0.00126585)
(1.02538 -0.000783342 0.000524547)
(1.02551 -0.000100815 0.00101773)
(1.02657 0.00067584 0.00024235)
(1.02736 0.000799334 -0.00134109)
(1.02656 -0.000251905 -0.00131116)
(1.02542 -0.000841162 0.000128981)
(1.02526 -0.000386442 0.00126779)
(1.02657 0.000876145 -9.84461e-06)
(1.02731 0.000737049 -0.00144275)
(1.02637 -0.000120318 -0.00134164)
(1.02553 -0.000938495 0.000139241)
(1.02516 -0.000376771 0.00113126)
(1.02647 0.000764863 0.000212271)
(1.02728 0.0010557 -0.00144997)
(1.02661 -0.000333914 -0.00134612)
(1.02529 -0.00108497 0.000400126)
(1.02539 -0.000493171 0.00127073)
(1.02647 0.000398962 0.000336099)
(1.02707 0.000817228 -0.00122168)
(1.02667 -0.000208449 -0.00145356)
(1.0253 -0.000978752 0.000177056)
(1.02542 -0.000413098 0.000895626)
(1.02656 0.000655614 0.000110901)
(1.02735 0.000656987 -0.00140748)
(1.02656 -0.000400414 -0.00144704)
(1.02537 -0.000837242 -3.54858e-05)
(1.02549 -0.000454479 0.000871478)
(1.02653 0.000700505 0.000104955)
(1.02739 0.000751317 -0.00138338)
(1.02651 -0.000446931 -0.00130522)
(1.02522 -0.000992788 0.000148153)
(1.02527 -0.000421799 0.00128541)
(1.02649 0.000920523 0.00028692)
(1.02736 0.000842576 -0.00125347)
(1.02595 -0.000225311 -0.000566696)
(1.02549 -0.000225725 0.00021693)
(1.0256 -1.8033e-05 0.00091902)
(1.02602 0.000616119 1.9372e-05)
(1.02659 0.000386521 -0.000543596)
(1.02613 -6.27846e-05 -0.000729667)
(1.02547 -0.000485347 0.000464329)
(1.0255 8.41788e-05 0.00056077)
(1.0261 0.000515126 9.82877e-05)
(1.02666 0.000419356 -0.000889221)
(1.02618 -0.000326732 -0.000730008)
(1.02551 -0.000534369 9.39676e-05)
(1.02531 -0.000152247 0.000759425)
(1.02611 0.000669285 -0.00015727)
(1.02659 0.00033988 -0.000951429)
(1.02602 -0.00018884 -0.000759017)
(1.02561 -0.000616221 9.26448e-05)
(1.02523 -0.000107025 0.000684487)
(1.02602 0.000582498 1.56627e-05)
(1.02658 0.000619201 -0.000926977)
(1.02628 -0.000343752 -0.000781076)
(1.02545 -0.000714686 0.000334916)
(1.02541 -0.000192028 0.000778413)
(1.02607 0.00030503 0.000161144)
(1.02638 0.000461681 -0.000768195)
(1.02629 -0.000262575 -0.000830832)
(1.02543 -0.00062298 0.000150997)
(1.02543 -0.000137349 0.000499544)
(1.02611 0.000510862 -5.22842e-05)
(1.02661 0.000335475 -0.000895253)
(1.02619 -0.000419726 -0.000869839)
(1.02543 -0.00054243 3.35868e-05)
(1.02551 -0.00018496 0.000459053)
(1.02603 0.000512145 -3.73565e-05)
(1.02662 0.000384027 -0.000916989)
(1.02613 -0.000470723 -0.000720796)
(1.02529 -0.000618402 0.00013873)
(1.02531 -0.000132881 0.000794051)
(1.026 0.000725613 7.53875e-05)
(1.02665 0.000451485 -0.000794339)
(1.02585 -0.000248364 -0.000273095)
(1.02555 -0.000106738 0.000142099)
(1.02568 9.19432e-05 0.000592216)
(1.02594 0.000472071 1.32577e-05)
(1.02638 0.000180066 -0.000206112)
(1.026 -0.000140751 -0.000398407)
(1.02554 -0.000312719 0.000364076)
(1.02559 0.000169623 0.00030038)
(1.02602 0.000405199 0.000122844)
(1.02643 0.000196775 -0.00051161)
(1.02605 -0.000355561 -0.000368472)
(1.02558 -0.000338524 3.24681e-05)
(1.02544 -3.71418e-05 0.000460649)
(1.02604 0.000530639 -0.000110505)
(1.02636 0.000104967 -0.000541951)
(1.0259 -0.000215251 -0.000394721)
(1.02568 -0.000410936 1.45412e-05)
(1.02536 4.07528e-05 0.000429671)
(1.02596 0.000448968 -3.47542e-07)
(1.02635 0.000352794 -0.000499341)
(1.02613 -0.000330248 -0.000428118)
(1.02554 -0.000482893 0.000232149)
(1.02551 -1.57954e-05 0.000492223)
(1.02602 0.000242242 0.00015417)
(1.02618 0.000255095 -0.000392216)
(1.02615 -0.000286533 -0.000437114)
(1.02551 -0.000399176 8.70727e-05)
(1.02553 1.37885e-05 0.000292388)
(1.02604 0.000407788 -2.70686e-05)
(1.02637 0.000151585 -0.000462557)
(1.02606 -0.000403959 -0.000497971)
(1.0255 -0.000360765 4.41265e-05)
(1.02561 -3.38158e-05 0.000237643)
(1.02596 0.000377792 8.6232e-06)
(1.02637 0.000167694 -0.000513186)
(1.026 -0.000461152 -0.000370214)
(1.02538 -0.000384639 7.98538e-05)
(1.02544 1.35081e-05 0.000495768)
(1.02593 0.000579183 5.65648e-05)
(1.02642 0.000218687 -0.00040213)
(1.02584 -0.000242271 -0.000126098)
(1.02562 -3.84443e-05 7.77904e-05)
(1.02576 0.000130613 0.000384505)
(1.02593 0.000366227 5.55278e-06)
(1.0263 5.82548e-05 -2.99328e-05)
(1.02596 -0.000165531 -0.000229127)
(1.02561 -0.00020711 0.000277323)
(1.02569 0.000196499 0.000137467)
(1.02601 0.000316291 0.000137983)
(1.02634 7.25571e-05 -0.000301338)
(1.02601 -0.000345773 -0.000176451)
(1.02565 -0.000212383 -1.23618e-05)
(1.02555 8.62195e-06 0.0002744)
(1.02604 0.00042606 -7.0363e-05)
(1.02627 -2.81042e-05 -0.000310453)
(1.02587 -0.000206718 -0.000194647)
(1.02574 -0.00027685 -4.66347e-05)
(1.02547 0.000103523 0.00027799)
(1.02598 0.000348024 -1.62717e-05)
(1.02625 0.00018273 -0.000252754)
(1.02606 -0.000292606 -0.000237173)
(1.02561 -0.000332067 0.00015094)
(1.0256 7.81621e-05 0.000311422)
(1.02604 0.000189096 0.000138371)
(1.02611 0.000136298 -0.000186968)
(1.02609 -0.000282798 -0.000217368)
(1.02558 -0.000250933 3.66576e-05)
(1.02564 8.2862e-05 0.00017402)
(1.02604 0.000323217 -8.64428e-06)
(1.02627 4.86364e-05 -0.000216133)
(1.02602 -0.000362911 -0.000289874)
(1.02557 -0.000247565 4.29001e-05)
(1.02571 4.13488e-05 0.00011563)
(1.02596 0.000269802 3.67922e-05)
(1.02627 5.02652e-05 -0.000281729)
(1.02596 -0.000425285 -0.000188943)
(1.02547 -0.000235762 3.45228e-05)
(1.02557 7.80023e-05 0.000309636)
(1.02594 0.000461359 4.18342e-05)
(1.02632 8.31322e-05 -0.000185339)
(1.02584 -0.000211734 -5.53733e-05)
(1.02569 5.48331e-06 3.40621e-05)
(1.02582 0.000121655 0.000247425)
(1.02593 0.000286704 -1.44283e-05)
(1.02624 -1.2465e-05 4.80134e-05)
(1.02594 -0.000149092 -0.000145727)
(1.02567 -0.000146571 0.000215391)
(1.02576 0.000184234 3.52583e-05)
(1.02599 0.000240973 0.000128202)
(1.02626 1.24383e-05 -0.00019729)
(1.02599 -0.000306799 -7.42506e-05)
(1.02571 -0.000128974 -3.60454e-05)
(1.02564 1.36348e-05 0.000152833)
(1.02604 0.000331627 -5.18821e-05)
(1.02619 -9.08296e-05 -0.000192904)
(1.02586 -0.00017701 -8.19773e-05)
(1.0258 -0.000187762 -8.70817e-05)
(1.02556 0.000114102 0.0001855)
(1.02599 0.000264395 -4.3726e-05)
(1.02618 7.88634e-05 -0.000123214)
(1.02602 -0.000234374 -0.000133705)
(1.02567 -0.000233164 9.4532e-05)
(1.02567 0.000116524 0.000190863)
(1.02605 0.000133534 0.00010878)
(1.02606 7.7234e-05 -8.53136e-05)
(1.02606 -0.000252659 -9.67526e-05)
(1.02564 -0.000151843 5.1933e-06)
(1.02572 9.51864e-05 0.000101062)
(1.02604 0.000249458 -9.38355e-06)
(1.02619 -5.21371e-06 -9.00377e-05)
(1.026 -0.000305512 -0.000172013)
(1.02564 -0.000173724 4.12583e-05)
(1.02578 6.69182e-05 4.35736e-05)
(1.02597 0.000180995 3.65844e-05)
(1.02619 -4.6844e-06 -0.000156952)
(1.02595 -0.000369303 -9.71271e-05)
(1.02556 -0.000136961 1.26151e-05)
(1.02566 8.79642e-05 0.000186868)
(1.02594 0.000355708 1.70438e-05)
(1.02623 1.70265e-05 -7.92978e-05)
(1.02585 -0.000178536 -2.15662e-05)
(1.02574 3.6498e-05 6.35467e-06)
(1.02586 8.89485e-05 0.000160834)
(1.02591 0.000232149 -2.97889e-05)
(1.02618 -5.09185e-05 7.42082e-05)
(1.02594 -0.000115053 -0.000105539)
(1.02573 -0.000107861 0.000169618)
(1.02582 0.00015788 -2.63651e-05)
(1.02597 0.000184423 0.000114375)
(1.02619 -1.63325e-05 -0.000140634)
(1.02599 -0.000251527 -2.48476e-05)
(1.02577 -8.22177e-05 -4.35603e-05)
(1.02571 8.36316e-06 7.42763e-05)
(1.02602 0.000252564 -3.5197e-05)
(1.02613 -0.000110369 -0.000133801)
(1.02586 -0.000142072 -1.74805e-05)
(1.02585 -0.000127524 -0.000111834)
(1.02563 9.44714e-05 0.000133402)
(1.02599 0.000201505 -6.48267e-05)
(1.02612 2.10921e-05 -5.37495e-05)
(1.02599 -0.000175245 -7.81781e-05)
(1.02573 -0.00017074 5.51346e-05)
(1.02573 0.00012703 0.000116444)
(1.02604 8.61444e-05 7.80758e-05)
(1.02601 5.33377e-05 -3.70406e-05)
(1.02604 -0.000216359 -3.36989e-05)
(1.0257 -8.57011e-05 -1.3164e-05)
(1.02578 8.26461e-05 5.93942e-05)
(1.02603 0.000191958 -1.17503e-05)
(1.02612 -3.11182e-05 -2.72183e-05)
(1.02599 -0.000243926 -0.000105496)
(1.0257 -0.000120859 3.47686e-05)
(1.02583 6.47539e-05 7.6225e-06)
(1.02596 0.000116852 2.85084e-05)
(1.02612 -2.77181e-05 -8.57613e-05)
(1.02594 -0.000305075 -5.59371e-05)
(1.02563 -7.7549e-05 3.58324e-06)
(1.02573 7.91692e-05 0.000106892)
(1.02593 0.000265767 -8.70098e-08)
(1.02616 -5.6003e-06 -2.86287e-05)
(1.02587 -0.000150456 -5.81002e-06)
(1.02579 6.05247e-05 -7.22373e-06)
(1.02589 5.12774e-05 0.000108069)
(1.02589 0.00019123 -4.01322e-05)
(1.02613 -5.89557e-05 7.86693e-05)
(1.02594 -7.85728e-05 -8.4652e-05)
(1.02577 -7.81259e-05 0.000136205)
(1.02587 0.000119929 -5.48525e-05)
(1.02594 0.000143442 9.82553e-05)
(1.02612 -3.06278e-05 -0.000106567)
(1.02598 -0.000187666 -4.18031e-06)
(1.02581 -5.93525e-05 -3.60302e-05)
(1.02576 2.99813e-06 2.36613e-05)
(1.02601 0.000184665 -1.81908e-05)
(1.02607 -0.000110621 -0.000107751)
(1.02586 -0.000106296 2.35435e-05)