/*--------------------------------*- C++ -*----------------------------------*\
  =========                 |
  \\      /  F ield         | OpenFOAM: The Open Source CFD Toolbox
   \\    /   O peration     | Website:  https://openfoam.org
    \\  /    A nd           | Version:  10
     \\/     M anipulation  |
\*---------------------------------------------------------------------------*/
FoamFile
{
    format      ascii;
    class       volScalarField;
    location    "75";
    object      pMean;
}
// * * * * * * * * * * * * * * * * * * * * * * * * * * * * * * * * * * * * * //

dimensions      [0 2 -2 0 0 0 0];

internalField   nonuniform List<scalar> 
25600
(
0.000240603
0.000195018
0.000216782
0.000310205
0.000402489
0.000476654
0.000503603
0.000490271
0.000444261
0.000384819
0.000368499
0.000450441
0.000561878
0.000620435
0.000623033
0.000635448
0.000675041
0.000732845
0.000748612
0.000729156
0.000721516
0.000697533
0.000702713
0.00072589
0.000695953
0.000635223
0.00060743
0.000628359
0.000643621
0.000594321
0.000524984
0.000468283
0.000441703
0.000427496
0.000440528
0.00043739
0.000397872
0.00036756
0.000373104
0.000339699
0.000238792
0.000193278
0.000215306
0.000309119
0.000400801
0.000474157
0.000501253
0.000488689
0.000442652
0.000382826
0.000366294
0.000448441
0.000560395
0.000618394
0.000619359
0.000630816
0.000670718
0.000729487
0.000745406
0.000725388
0.000717245
0.00069391
0.000700234
0.000724275
0.000693547
0.000631858
0.000604069
0.000625876
0.000642188
0.00059241
0.000523106
0.000466056
0.000439558
0.000425962
0.000438954
0.00043557
0.000396019
0.000366758
0.000372948
0.000338919
0.000218713
0.000171658
0.000195017
0.000289317
0.000378909
0.000447387
0.000470334
0.000457341
0.000414048
0.000355554
0.000340277
0.000423831
0.000538973
0.00059873
0.00059761
0.000607788
0.000648421
0.000710402
0.00072761
0.000705975
0.000696129
0.000672982
0.000680491
0.000705161
0.000673406
0.000609858
0.000581221
0.000602587
0.000618687
0.000568936
0.000500325
0.000446988
0.000421971
0.000409187
0.00042143
0.000417002
0.000376905
0.00034859
0.000355419
0.000321338
0.000163486
0.000114531
0.000138335
0.000232941
0.00031836
0.000378708
0.000394264
0.000377359
0.000334868
0.000281177
0.000270219
0.000358391
0.000479186
0.000546316
0.000546054
0.000555577
0.000596006
0.000658991
0.000677089
0.000653802
0.000640395
0.000617282
0.000625204
0.000652075
0.000620334
0.000554477
0.000523765
0.000541233
0.000557322
0.000505884
0.000439751
0.000392987
0.000371015
0.000358861
0.000371626
0.000367757
0.000327186
0.000300217
0.00030592
0.000269496
7.29583e-05
2.07789e-05
4.06522e-05
0.000133279
0.00021653
0.000267837
0.00027616
0.000257331
0.000214514
0.000167413
0.000166112
0.000257373
0.000382525
0.000457676
0.00046267
0.000471762
0.000504284
0.000565281
0.000582157
0.000556111
0.000544053
0.000522621
0.000532972
0.000559279
0.000528349
0.000463287
0.00043583
0.000453579
0.000463298
0.000405557
0.000341105
0.000299807
0.00027871
0.00026656
0.000280396
0.000278479
0.000236913
0.000210289
0.000214495
0.000179324
-4.69971e-05
-0.000103738
-9.29213e-05
-3.6324e-06
7.91395e-05
0.000126216
0.000133218
0.000114834
7.17656e-05
3.46393e-05
4.53996e-05
0.000138453
0.000254807
0.000327644
0.00033558
0.000351249
0.000380075
0.000429318
0.000441122
0.000415865
0.000409176
0.00039647
0.000409807
0.000435931
0.000404816
0.00034163
0.000320075
0.000341626
0.000346193
0.000279569
0.000207799
0.000161796
0.00013768
0.000125653
0.000142607
0.000146591
0.000111905
8.73419e-05
9.10202e-05
5.51551e-05
-0.000204389
-0.000253616
-0.000244052
-0.00016429
-8.86837e-05
-4.33979e-05
-2.76387e-05
-3.75735e-05
-8.60667e-05
-0.000114027
-9.41116e-05
-1.1756e-05
8.93765e-05
0.000147492
0.000153545
0.000179556
0.000212399
0.000257194
0.000268526
0.000244954
0.000240441
0.000238172
0.000252664
0.000272577
0.000246977
0.000190411
0.000179337
0.000203713
0.000207982
0.000131366
4.59024e-05
-3.04374e-06
-3.16848e-05
-4.29822e-05
-1.92183e-05
-7.0323e-06
-3.30352e-05
-5.72794e-05
-6.05168e-05
-0.000106824
-0.000389044
-0.000427648
-0.000416198
-0.000348568
-0.000283975
-0.000243103
-0.000215106
-0.000214532
-0.000264513
-0.000289796
-0.000265527
-0.000184133
-7.66933e-05
-2.19298e-05
-2.41647e-05
-5.75614e-06
1.65496e-05
5.46933e-05
7.11254e-05
5.62877e-05
5.9817e-05
6.82799e-05
7.50361e-05
7.84527e-05
5.66917e-05
1.6582e-05
1.87123e-05
5.04126e-05
5.5237e-05
-2.81975e-05
-0.000129018
-0.000184729
-0.000204727
-0.000204423
-0.0001785
-0.00015978
-0.000176067
-0.000209787
-0.000236563
-0.000296383
-0.000573721
-0.000599782
-0.000587962
-0.000534375
-0.000483411
-0.000446139
-0.000414648
-0.000406153
-0.000444366
-0.000462701
-0.000438048
-0.000352316
-0.000231559
-0.000165779
-0.000172115
-0.000179611
-0.000179134
-0.000146501
-0.000122456
-0.000130347
-0.000110302
-8.6161e-05
-8.82636e-05
-0.000114356
-0.000141682
-0.000163444
-0.000158893
-0.000130876
-0.000118652
-0.000195546
-0.000303216
-0.000362734
-0.000375241
-0.000367561
-0.00033927
-0.000309814
-0.000315241
-0.000354149
-0.000406982
-0.000486446
-0.000744068
-0.00075539
-0.00073592
-0.000693682
-0.000650913
-0.000616896
-0.000591763
-0.000579951
-0.000607463
-0.000629912
-0.000614459
-0.000524546
-0.000400473
-0.000339337
-0.000354377
-0.000367327
-0.000373934
-0.000348225
-0.00032714
-0.00033813
-0.000312304
-0.000268761
-0.00026335
-0.000301633
-0.000336226
-0.00034714
-0.000349568
-0.000333538
-0.000313846
-0.000362757
-0.000461158
-0.000526319
-0.000537607
-0.000524036
-0.000489918
-0.00044251
-0.000432987
-0.000478455
-0.000563456
-0.000662585
-0.000915531
-0.000915223
-0.000880189
-0.000830901
-0.000786079
-0.000752911
-0.000737096
-0.000730215
-0.000757919
-0.000794096
-0.000797745
-0.000716971
-0.000591693
-0.000532472
-0.000550713
-0.000566422
-0.000570958
-0.000556399
-0.000546707
-0.000567477
-0.000555627
-0.000508331
-0.000484812
-0.000509133
-0.00053204
-0.00053125
-0.00053581
-0.000523481
-0.000497837
-0.000521861
-0.000612121
-0.000688687
-0.000700306
-0.000672851
-0.000622382
-0.000552661
-0.000529419
-0.000584787
-0.000703124
-0.000830423
-0.00103211
-0.00104493
-0.00100793
-0.000943899
-0.000873646
-0.000828724
-0.000829831
-0.000844264
-0.000875423
-0.000918192
-0.000944714
-0.000888864
-0.000777517
-0.000720294
-0.000739342
-0.000746551
-0.000732741
-0.000716819
-0.000717903
-0.000745457
-0.000751743
-0.000718039
-0.000688198
-0.000699221
-0.000715321
-0.000701199
-0.000689224
-0.000663518
-0.000626858
-0.000634587
-0.000710698
-0.00080244
-0.000840373
-0.000820618
-0.000763737
-0.000669646
-0.000622222
-0.00066954
-0.00079576
-0.000934953
-0.00104192
-0.00107418
-0.00105493
-0.000990555
-0.000900369
-0.000839654
-0.000854007
-0.000907848
-0.000956692
-0.000998603
-0.00103266
-0.00101252
-0.000937159
-0.000886641
-0.000902254
-0.000899249
-0.000856427
-0.00081548
-0.000815381
-0.000844203
-0.000854032
-0.000828598
-0.000802052
-0.000802946
-0.000824983
-0.000819773
-0.000805483
-0.000768947
-0.00071854
-0.000711475
-0.000766751
-0.000853681
-0.000911613
-0.000915275
-0.000874662
-0.000776408
-0.000705949
-0.000727209
-0.000825007
-0.000944549
-0.000993128
-0.00103859
-0.00105339
-0.00101931
-0.000940118
-0.000867042
-0.000873748
-0.000943841
-0.0010052
-0.00103598
-0.0010546
-0.00104967
-0.00101316
-0.000975947
-0.000983513
-0.000975462
-0.000920787
-0.000864945
-0.000862767
-0.000891213
-0.000892978
-0.000863817
-0.000836145
-0.000829044
-0.000852618
-0.000866286
-0.000870395
-0.000849014
-0.000802108
-0.00079482
-0.000837178
-0.000900298
-0.000939516
-0.000933082
-0.000898659
-0.00081647
-0.000742582
-0.000745898
-0.000822534
-0.000913484
-0.000934957
-0.000990599
-0.00104153
-0.00105368
-0.00101031
-0.00094847
-0.000937009
-0.000980591
-0.00102312
-0.00103555
-0.00103051
-0.00101918
-0.00100476
-0.000984277
-0.000979513
-0.000960169
-0.000907063
-0.000856423
-0.000854847
-0.000885557
-0.00089799
-0.000877525
-0.00084998
-0.000827478
-0.000826791
-0.000834818
-0.000850644
-0.000854822
-0.000824935
-0.000828624
-0.000875575
-0.000919328
-0.000930663
-0.000892627
-0.00084134
-0.000775308
-0.000717193
-0.000720406
-0.000788904
-0.00086962
-0.000869273
-0.000924195
-0.000987076
-0.00102615
-0.00101649
-0.000978638
-0.000957973
-0.000971316
-0.00099395
-0.00100125
-0.00099002
-0.000973799
-0.000975263
-0.000968205
-0.000946099
-0.000910464
-0.00085
-0.000790493
-0.000784137
-0.000812111
-0.000830584
-0.000828722
-0.000812371
-0.000784427
-0.000769765
-0.000774647
-0.000783878
-0.00078876
-0.000768604
-0.000780198
-0.000840489
-0.000887996
-0.000895759
-0.000844049
-0.000775471
-0.000725002
-0.000691013
-0.00068467
-0.00073284
-0.000806144
-0.000850352
-0.000901488
-0.000950317
-0.000978163
-0.000969367
-0.000933569
-0.000897244
-0.000890386
-0.000904854
-0.000918623
-0.000905036
-0.000877146
-0.000878741
-0.000883246
-0.000867579
-0.000838636
-0.00078289
-0.000709942
-0.000678299
-0.000691473
-0.000714411
-0.000726405
-0.000724272
-0.000702505
-0.000689518
-0.000704921
-0.000714342
-0.000703587
-0.000672574
-0.000671902
-0.000723975
-0.000778389
-0.000806312
-0.000777426
-0.000717404
-0.000687326
-0.000690582
-0.00070806
-0.00074763
-0.000798186
-0.000801722
-0.000842858
-0.000870912
-0.000879637
-0.000862645
-0.00083365
-0.000801827
-0.000790155
-0.000800434
-0.000812959
-0.00079234
-0.000744715
-0.000721934
-0.000720346
-0.000716163
-0.000708733
-0.000682664
-0.000623308
-0.000577353
-0.00057307
-0.000598214
-0.000629549
-0.000649424
-0.000646703
-0.000633441
-0.000638117
-0.000640795
-0.000618313
-0.000578592
-0.000551891
-0.000564472
-0.000602802
-0.000642181
-0.000634967
-0.000586916
-0.000567923
-0.000608009
-0.000661891
-0.000712194
-0.000757159
-0.000662545
-0.000699399
-0.000713746
-0.000703491
-0.000686409
-0.000661436
-0.000630503
-0.000617045
-0.000635214
-0.000660865
-0.000658096
-0.000624403
-0.000598202
-0.000590725
-0.000585866
-0.000578165
-0.00056202
-0.000521974
-0.000483728
-0.000477967
-0.000496717
-0.000529834
-0.000558114
-0.000564626
-0.000557095
-0.000552658
-0.000543299
-0.00052482
-0.000500682
-0.000475331
-0.000465527
-0.000473049
-0.000494797
-0.000493186
-0.000457769
-0.000439946
-0.000477888
-0.000538231
-0.000591716
-0.000628787
-0.000508082
-0.000539418
-0.000563245
-0.000566147
-0.000557844
-0.000539739
-0.000509564
-0.000486334
-0.000495458
-0.00052417
-0.000547518
-0.000554625
-0.000552992
-0.00055056
-0.0005433
-0.000525833
-0.000495742
-0.000454604
-0.00041603
-0.00039776
-0.000390613
-0.000391931
-0.000402817
-0.000407478
-0.000409712
-0.000413852
-0.000412855
-0.000407677
-0.000401764
-0.00040035
-0.000403065
-0.000408697
-0.000419642
-0.000415468
-0.000386757
-0.000365151
-0.000382361
-0.000428063
-0.00047019
-0.000490786
-0.000395279
-0.000410675
-0.000431329
-0.000445433
-0.000451408
-0.000453921
-0.000444365
-0.000418852
-0.000406332
-0.000420586
-0.00044888
-0.000478611
-0.000492064
-0.000489923
-0.000480702
-0.00045202
-0.000411004
-0.000365072
-0.000327352
-0.000305619
-0.000288911
-0.00027514
-0.000266639
-0.000260818
-0.000265588
-0.000281526
-0.000291469
-0.000287458
-0.000282964
-0.000285029
-0.000292694
-0.000306862
-0.000324707
-0.000331913
-0.000318766
-0.000299824
-0.000305267
-0.000340072
-0.000373451
-0.000388974
-0.000300882
-0.000313054
-0.000328425
-0.000338943
-0.000341471
-0.000345651
-0.000350435
-0.000342107
-0.000335137
-0.000346887
-0.00037298
-0.000406375
-0.000422214
-0.000413844
-0.00040101
-0.00037691
-0.000338118
-0.000295064
-0.000262329
-0.0002451
-0.000230875
-0.000212446
-0.000195573
-0.000185404
-0.000193203
-0.000213819
-0.00022579
-0.000221994
-0.000210833
-0.000203912
-0.000206347
-0.00021677
-0.000231938
-0.000243216
-0.000243151
-0.000235058
-0.000232644
-0.000249694
-0.00027421
-0.000290623
-0.000179768
-0.000196818
-0.00021105
-0.000224253
-0.000233394
-0.000241415
-0.00025119
-0.000250219
-0.000245761
-0.000254948
-0.000274834
-0.000298748
-0.000306501
-0.000291202
-0.000279292
-0.000270394
-0.00024828
-0.000219463
-0.000197953
-0.000187428
-0.000179054
-0.000167986
-0.000157201
-0.000149557
-0.000151538
-0.000161975
-0.000169297
-0.000167308
-0.000159961
-0.000155246
-0.000154417
-0.000155331
-0.000157669
-0.000159726
-0.00015913
-0.00015495
-0.000147819
-0.000146122
-0.0001523
-0.000163367
-0.000149951
-0.000157428
-0.000162084
-0.000170835
-0.000179806
-0.000186535
-0.000193504
-0.000194639
-0.000192695
-0.000194882
-0.000197337
-0.000205373
-0.000210735
-0.000200539
-0.000194441
-0.000196474
-0.000189449
-0.00017356
-0.000159926
-0.000152168
-0.000145287
-0.000135946
-0.000126394
-0.000120192
-0.000124028
-0.000135847
-0.000147469
-0.000150681
-0.000145862
-0.000143092
-0.000144296
-0.000146515
-0.000147602
-0.000144798
-0.000140329
-0.000137658
-0.000137276
-0.000138073
-0.000138578
-0.000141413
-9.61243e-05
-0.000103115
-0.000105997
-0.00011168
-0.000117165
-0.000118603
-0.000120398
-0.000117486
-0.000112257
-0.00010973
-0.000104568
-0.0001042
-0.000109515
-0.000105785
-0.000100415
-0.000101411
-9.94726e-05
-9.33964e-05
-8.65581e-05
-8.07216e-05
-7.2418e-05
-6.34441e-05
-5.57613e-05
-4.95585e-05
-4.88578e-05
-5.45219e-05
-6.52342e-05
-7.05483e-05
-6.80099e-05
-6.6269e-05
-6.56191e-05
-6.59633e-05
-6.85952e-05
-6.76775e-05
-6.66369e-05
-6.76516e-05
-7.18562e-05
-7.87562e-05
-8.39275e-05
-8.84078e-05
-1.14532e-05
-1.62999e-05
-1.74135e-05
-2.05498e-05
-2.18282e-05
-2.16745e-05
-2.25703e-05
-1.93214e-05
-1.20655e-05
-8.28644e-06
-3.11242e-06
7.50287e-08
-5.75462e-06
-8.98677e-06
-6.80191e-06
-7.27581e-06
-8.35698e-06
-5.70878e-06
-3.69529e-08
2.50037e-06
7.13399e-06
1.3469e-05
1.60145e-05
1.82892e-05
1.91368e-05
1.86801e-05
1.23422e-05
6.10478e-06
5.41265e-06
3.87446e-06
5.05151e-06
8.90023e-06
1.13958e-05
1.51964e-05
1.54023e-05
1.26335e-05
7.74472e-06
6.51017e-07
-3.38461e-06
-5.54767e-06
6.23438e-05
5.91914e-05
6.04643e-05
5.90459e-05
5.72338e-05
5.60463e-05
5.15277e-05
5.10213e-05
5.56e-05
5.64175e-05
5.90386e-05
6.40307e-05
6.32832e-05
6.09094e-05
6.24833e-05
6.44234e-05
6.49969e-05
6.72092e-05
7.17994e-05
7.18198e-05
7.18715e-05
7.80657e-05
8.42393e-05
8.86893e-05
8.87841e-05
8.79334e-05
8.48525e-05
7.85434e-05
7.50892e-05
7.07479e-05
7.00409e-05
7.3605e-05
7.49839e-05
7.70669e-05
7.75552e-05
7.58381e-05
7.39688e-05
6.84014e-05
6.41744e-05
6.46292e-05
0.000136072
0.000132968
0.000134322
0.00013532
0.000134914
0.000136941
0.000135648
0.000135089
0.000139905
0.000141322
0.000141995
0.000147639
0.00015149
0.00015222
0.000154403
0.000157962
0.000158592
0.00015773
0.000159933
0.000159866
0.000157196
0.000158713
0.0001628
0.000164741
0.000162501
0.000161224
0.000160478
0.000155823
0.000150459
0.000145768
0.000143881
0.000145341
0.000144885
0.000145675
0.000147331
0.000147332
0.000146916
0.000143
0.000137541
0.000137214
0.000210152
0.000208947
0.000210577
0.000212073
0.000211448
0.000213705
0.000214685
0.000213917
0.000216591
0.000219253
0.000220702
0.000225902
0.000230653
0.000232117
0.000232932
0.0002345
0.000234957
0.000233918
0.000234995
0.000235205
0.000232522
0.000232395
0.000235231
0.000237959
0.000236296
0.000233487
0.000232434
0.000228385
0.000223864
0.000219374
0.000215403
0.000215227
0.000215114
0.000215433
0.000215837
0.000215041
0.000214768
0.000212543
0.000208694
0.00020879
0.00027543
0.000275882
0.000276402
0.000277707
0.000278382
0.000278679
0.000279726
0.000280401
0.000280372
0.000280716
0.000281345
0.00028477
0.000288162
0.000289567
0.000290959
0.000292435
0.000293591
0.000293041
0.000293804
0.000295119
0.000294302
0.000295781
0.000297233
0.00029874
0.000298875
0.000296634
0.000297286
0.000295081
0.000290613
0.000287947
0.000283274
0.000281372
0.000281503
0.000281005
0.000280013
0.00027795
0.000277533
0.00027642
0.00027367
0.000273569
0.000311275
0.000312393
0.000313177
0.000313729
0.000314736
0.000313623
0.000312649
0.000313946
0.000314588
0.00031388
0.000314041
0.000316476
0.000318051
0.000317791
0.000318081
0.000318443
0.000319451
0.00032006
0.000321329
0.000322778
0.000321932
0.000323399
0.000325158
0.000326705
0.000328543
0.000325846
0.000325574
0.000325605
0.000320289
0.00031757
0.000313985
0.000311459
0.000313282
0.000313268
0.000313255
0.000312989
0.000312486
0.000312423
0.000311077
0.000310663
0.000328691
0.000329666
0.00033095
0.00033208
0.000332773
0.00033116
0.000330046
0.000330755
0.000331262
0.000330595
0.000329439
0.000330329
0.000331406
0.000330653
0.000330336
0.000330615
0.000331139
0.000331212
0.000331403
0.000331968
0.000331673
0.000333624
0.000335567
0.000336356
0.000338654
0.000336968
0.000335845
0.000337165
0.000332773
0.000329129
0.00032647
0.000324254
0.000327819
0.000328427
0.000326905
0.000327927
0.000327227
0.000327118
0.000327792
0.000328218
0.000236205
0.000152417
0.000117443
0.000134534
0.000189465
0.000225168
0.000226474
0.000206242
0.00017677
0.000115227
5.29209e-05
8.11251e-05
0.00019834
0.000304275
0.000300709
0.000272936
0.000270305
0.000336137
0.000408335
0.000425225
0.000374126
0.000310572
0.000304307
0.000370277
0.0003869
0.000316509
0.000276982
0.000259942
0.000224535
0.00019011
0.00018934
0.000261863
0.000399544
0.000496472
0.000528507
0.000498851
0.000458424
0.000453659
0.000434073
0.000347248
0.000230347
0.000146354
0.000112514
0.000130173
0.00018489
0.000220578
0.000222247
0.000201974
0.000172286
0.000109666
4.7309e-05
7.62538e-05
0.0001944
0.000300906
0.000296934
0.000268988
0.000266717
0.000333088
0.000404795
0.000420813
0.000368986
0.00030478
0.000299212
0.00036576
0.000381845
0.000311042
0.000272067
0.000255712
0.000221174
0.000186676
0.000185539
0.000258385
0.00039653
0.000493203
0.000524454
0.000494609
0.00045435
0.000450443
0.000430609
0.000343083
0.000204042
0.000118139
8.55033e-05
0.000105446
0.000159911
0.000194811
0.000195032
0.000174579
0.000145357
8.41929e-05
2.13882e-05
4.99484e-05
0.000168756
0.00027691
0.000271595
0.000242584
0.000242395
0.000308776
0.000379819
0.000395725
0.000343297
0.0002782
0.000272478
0.000340571
0.000356369
0.000284245
0.000245182
0.000229914
0.000196506
0.00016319
0.000162756
0.000236511
0.000374063
0.000469899
0.00049888
0.000466932
0.00042678
0.000423926
0.000404178
0.000317563
0.000136709
4.95835e-05
2.00998e-05
4.56717e-05
0.000101433
0.000133789
0.00013172
0.000110289
8.08971e-05
2.2193e-05
-3.72055e-05
-9.84192e-06
0.000107727
0.000216811
0.000209734
0.000178546
0.000181014
0.000249362
0.000317716
0.000332777
0.000281687
0.000214164
0.000209563
0.000278427
0.000291712
0.000218324
0.000180044
0.000165621
0.000132917
0.000102372
0.000103901
0.00017805
0.000311427
0.000402684
0.000427137
0.000393451
0.000352049
0.000353773
0.000338056
0.000252453
2.6582e-05
-6.00323e-05
-8.33089e-05
-4.85714e-05
7.94594e-06
3.99338e-05
3.55136e-05
1.03346e-05
-2.38408e-05
-7.75251e-05
-0.00013412
-0.000104107
1.10278e-05
0.000116807
0.000104434
7.40701e-05
8.40341e-05
0.000153454
0.000217805
0.000229274
0.000177239
0.000104925
9.50334e-05
0.000163054
0.000176575
0.000108606
7.49614e-05
5.82374e-05
2.96633e-05
6.62351e-06
1.20134e-05
8.23804e-05
0.000205845
0.000289533
0.000308789
0.000278995
0.000243178
0.000248269
0.00023005
0.000142249
-0.000119759
-0.000202989
-0.000221272
-0.000178153
-0.000114675
-7.86961e-05
-7.71713e-05
-0.000107909
-0.000158937
-0.000217485
-0.000262516
-0.000225737
-0.000116086
-1.85639e-05
-3.9449e-05
-6.96647e-05
-5.2348e-05
2.17024e-05
8.49566e-05
9.22606e-05
3.94044e-05
-3.82318e-05
-5.39668e-05
1.00938e-05
2.36352e-05
-3.72114e-05
-6.44401e-05
-7.33906e-05
-9.83128e-05
-0.000111886
-0.000105536
-4.49082e-05
6.61104e-05
0.000141858
0.000162528
0.000142184
0.000112197
0.000125046
0.00010244
4.47528e-06
-0.000284163
-0.000378855
-0.000395079
-0.000346878
-0.000272826
-0.000214896
-0.000195201
-0.00023056
-0.000305999
-0.000372165
-0.000406874
-0.000362862
-0.000261312
-0.000180116
-0.000205805
-0.000231337
-0.000210772
-0.000133369
-6.58614e-05
-5.20297e-05
-9.95544e-05
-0.000171626
-0.000193294
-0.000144915
-0.000136566
-0.000201089
-0.00022721
-0.000223695
-0.000233051
-0.000240767
-0.000242045
-0.000194105
-9.43861e-05
-2.05874e-05
8.40153e-06
-4.80591e-06
-3.30959e-05
-2.4038e-05
-4.77175e-05
-0.000150231
-0.000453994
-0.00055907
-0.000580318
-0.000526824
-0.000437582
-0.000363514
-0.000322297
-0.000361214
-0.000458744
-0.000529407
-0.000550509
-0.000499915
-0.000403165
-0.000333295
-0.000361254
-0.000389532
-0.000373092
-0.000296019
-0.000219923
-0.000195106
-0.000234561
-0.000296661
-0.000323294
-0.000291444
-0.000288327
-0.000351894
-0.0003863
-0.000372376
-0.000367534
-0.000375687
-0.000390012
-0.000360427
-0.000273186
-0.000193611
-0.000154912
-0.000152974
-0.000179632
-0.000177196
-0.000200493
-0.000305201
-0.000578281
-0.000703659
-0.000734162
-0.000681712
-0.000589844
-0.000502617
-0.000446344
-0.000480213
-0.000583722
-0.000657494
-0.000673243
-0.000618265
-0.000515215
-0.000445
-0.000471276
-0.00051157
-0.000513334
-0.000443945
-0.000365175
-0.000340946
-0.000377915
-0.000431695
-0.000458476
-0.000433111
-0.000416451
-0.000463654
-0.000508996
-0.000503306
-0.000494433
-0.000501798
-0.000526505
-0.000520757
-0.000458952
-0.000385948
-0.000330229
-0.000303274
-0.000316534
-0.000315
-0.000334427
-0.000429935
-0.000662618
-0.000795113
-0.000836538
-0.00078884
-0.000696942
-0.000609727
-0.000550638
-0.000579013
-0.000677632
-0.000753167
-0.00077552
-0.000714038
-0.000596806
-0.000518795
-0.000543693
-0.000596092
-0.000620787
-0.000576949
-0.0005066
-0.00047621
-0.000506376
-0.000559296
-0.000586013
-0.00056244
-0.000533168
-0.00055414
-0.000600786
-0.00060879
-0.000598636
-0.000598944
-0.000625495
-0.000646442
-0.000621319
-0.000565626
-0.000496501
-0.000435085
-0.000418655
-0.000415223
-0.000437376
-0.0005228
-0.00071306
-0.00084743
-0.000896111
-0.000855384
-0.000775528
-0.000701717
-0.000660861
-0.000686496
-0.00076544
-0.000838122
-0.000865434
-0.000794654
-0.000658199
-0.000565486
-0.00058162
-0.00064476
-0.000695252
-0.000677819
-0.000622579
-0.000592411
-0.000609029
-0.000654341
-0.000675604
-0.000654473
-0.000625524
-0.000633892
-0.000674971
-0.000685309
-0.000670792
-0.000667255
-0.000699408
-0.000738944
-0.000743381
-0.000701178
-0.00062037
-0.000527053
-0.000476513
-0.000466133
-0.000500248
-0.00058645
-0.000725024
-0.000853618
-0.000905905
-0.000874139
-0.00080985
-0.000755165
-0.000730896
-0.00075659
-0.000817567
-0.000882795
-0.000921314
-0.000859873
-0.000720183
-0.00061166
-0.000606045
-0.000660166
-0.000721326
-0.000725876
-0.000688443
-0.000663624
-0.000677798
-0.000711898
-0.000718789
-0.00070044
-0.00068304
-0.000682099
-0.000707008
-0.000708402
-0.000692749
-0.000702628
-0.000746527
-0.000802043
-0.00082489
-0.000790335
-0.000706666
-0.000596082
-0.000513363
-0.000479564
-0.000511474
-0.000603614
-0.000713126
-0.000828372
-0.000867847
-0.000830774
-0.000774898
-0.000732257
-0.000714084
-0.000742983
-0.000795338
-0.000847724
-0.00089093
-0.000863477
-0.000761224
-0.000662217
-0.000635561
-0.000662866
-0.00071335
-0.000730607
-0.000707906
-0.00068185
-0.000680734
-0.000707723
-0.000719002
-0.000704274
-0.000691646
-0.000682492
-0.000686978
-0.000676148
-0.000661334
-0.000685358
-0.000744485
-0.000809623
-0.00084794
-0.000835974
-0.00077719
-0.000672823
-0.000570884
-0.000507937
-0.000517251
-0.00060054
-0.000691022
-0.000786018
-0.00081796
-0.000776279
-0.000716042
-0.000666787
-0.000639207
-0.000664657
-0.000706337
-0.000738988
-0.000781567
-0.000788635
-0.000734158
-0.000664443
-0.000643294
-0.000651661
-0.000676328
-0.000701217
-0.000699807
-0.000674187
-0.000644719
-0.000649454
-0.000673665
-0.000674287
-0.000655185
-0.000630895
-0.00061925
-0.000605702
-0.000598027
-0.000629598
-0.000702169
-0.000779345
-0.000827941
-0.000833677
-0.000811999
-0.000743446
-0.000646037
-0.000570577
-0.000554446
-0.00060537
-0.00065298
-0.000725373
-0.000756083
-0.000724668
-0.000666767
-0.00061478
-0.000580685
-0.000589549
-0.000609833
-0.00061548
-0.000643604
-0.000668612
-0.00064719
-0.000605041
-0.000590528
-0.000592415
-0.000605029
-0.000632378
-0.000654042
-0.000648753
-0.00061117
-0.00059872
-0.000620475
-0.000631632
-0.000617256
-0.000584866
-0.00055627
-0.000544994
-0.000550585
-0.000585235
-0.000647278
-0.00071024
-0.000749557
-0.000762723
-0.000762888
-0.000727618
-0.000656655
-0.000595871
-0.000573681
-0.000598117
-0.000581549
-0.000626302
-0.000652174
-0.000638433
-0.000600935
-0.000565256
-0.000542288
-0.00055119
-0.000564937
-0.000553142
-0.000552927
-0.000567142
-0.000561254
-0.000530484
-0.000510884
-0.000509598
-0.000516774
-0.000539824
-0.000572096
-0.000589533
-0.000574593
-0.000559036
-0.000568585
-0.000581447
-0.000579684
-0.000552317
-0.000511061
-0.000492684
-0.000507819
-0.000552805
-0.000606794
-0.000641256
-0.000652881
-0.000649581
-0.00064487
-0.000628153
-0.000583123
-0.000537584
-0.000521601
-0.000542591
-0.000521738
-0.000544771
-0.000557309
-0.000548297
-0.000520478
-0.000498567
-0.000491542
-0.000508717
-0.000532349
-0.000524609
-0.000509703
-0.000505002
-0.000492538
-0.000464356
-0.000443128
-0.00043486
-0.000424516
-0.000426598
-0.000460892
-0.000505168
-0.000516789
-0.000506122
-0.000505353
-0.000510568
-0.000509371
-0.000491349
-0.000457971
-0.000438942
-0.000453594
-0.000500714
-0.000552194
-0.000577832
-0.000581614
-0.000570077
-0.00055508
-0.000543918
-0.000518308
-0.000487625
-0.000476367
-0.000494908
-0.000507327
-0.000520772
-0.000524182
-0.000508221
-0.000471575
-0.000444419
-0.000439695
-0.000451689
-0.000468336
-0.000454171
-0.000430478
-0.000418969
-0.000412379
-0.000398836
-0.000383332
-0.000374921
-0.000366348
-0.000358844
-0.000384771
-0.000437769
-0.000463718
-0.000454974
-0.000443935
-0.000440856
-0.000433618
-0.000418878
-0.000397856
-0.00038439
-0.000392323
-0.000432658
-0.000483073
-0.000512783
-0.000532055
-0.000539336
-0.000522437
-0.000504609
-0.000490439
-0.000475985
-0.000473551
-0.000487713
-0.000445647
-0.000460477
-0.000461762
-0.000446527
-0.000415446
-0.000393816
-0.000388898
-0.000397554
-0.000411769
-0.000398915
-0.000375145
-0.000365724
-0.000367937
-0.000373531
-0.000370711
-0.000360196
-0.000351538
-0.00034425
-0.000355628
-0.000394537
-0.000415716
-0.000404353
-0.000391638
-0.000387323
-0.000383905
-0.000380001
-0.000370927
-0.000363266
-0.000363875
-0.000384102
-0.000416279
-0.00043785
-0.000456857
-0.000471239
-0.000460021
-0.000436138
-0.000420585
-0.000409509
-0.000408441
-0.000423489
-0.00036117
-0.000373925
-0.000376663
-0.00037216
-0.00035777
-0.000345623
-0.000342095
-0.000344654
-0.000362484
-0.000372395
-0.000374112
-0.000384959
-0.000397989
-0.000406389
-0.000401464
-0.000381371
-0.000362506
-0.000343733
-0.000330813
-0.000340163
-0.000348335
-0.000338267
-0.000327681
-0.000325764
-0.000328383
-0.000332877
-0.000334287
-0.000331045
-0.000331128
-0.000348083
-0.000372305
-0.000384297
-0.00038827
-0.000390838
-0.000379844
-0.000353695
-0.000336448
-0.000329366
-0.00033236
-0.000344278
-0.000351766
-0.000365774
-0.000368155
-0.000367019
-0.000358534
-0.00034791
-0.000340739
-0.000329483
-0.000336008
-0.000354169
-0.000370339
-0.000386787
-0.000395565
-0.000398816
-0.000394235
-0.000371238
-0.000343524
-0.000318235
-0.000296001
-0.000286207
-0.000276763
-0.000260015
-0.000245531
-0.000233714
-0.000231212
-0.000239039
-0.000244373
-0.000235661
-0.000219006
-0.000223314
-0.00024357
-0.000256251
-0.000260017
-0.00026024
-0.000258476
-0.000253142
-0.000255232
-0.000270775
-0.000295088
-0.000324581
-0.000332695
-0.000350138
-0.000355585
-0.000359079
-0.000354776
-0.000341694
-0.000327439
-0.000309169
-0.000305185
-0.000315602
-0.000328098
-0.000343671
-0.000351716
-0.000350719
-0.000347434
-0.00032906
-0.000300176
-0.000274182
-0.000252599
-0.000236538
-0.000217384
-0.00019358
-0.000173824
-0.000157905
-0.000155952
-0.000167237
-0.000177392
-0.000173337
-0.000156837
-0.0001525
-0.000164985
-0.000177046
-0.000183635
-0.000188254
-0.000194604
-0.00020339
-0.000218519
-0.000241613
-0.000270041
-0.000302404
-0.000248282
-0.000262969
-0.000267407
-0.000270029
-0.000271121
-0.00027077
-0.000273971
-0.000272446
-0.000271302
-0.000275864
-0.000282601
-0.000294598
-0.000298287
-0.000291094
-0.000287539
-0.000278611
-0.000257933
-0.000233478
-0.000212039
-0.000197514
-0.000183446
-0.000163349
-0.000144435
-0.000128775
-0.000124674
-0.000133612
-0.000145143
-0.000151097
-0.000148992
-0.000148344
-0.000157527
-0.000164195
-0.000165121
-0.000165348
-0.000165958
-0.000171672
-0.000182998
-0.00019572
-0.000208197
-0.000225979
-0.000188433
-0.000194534
-0.000198285
-0.000202251
-0.000204693
-0.00020745
-0.000210885
-0.000207739
-0.00020752
-0.000212082
-0.00021524
-0.000227609
-0.00023903
-0.000238505
-0.000240855
-0.000240795
-0.000228382
-0.000210175
-0.000193944
-0.000182753
-0.00017104
-0.000154547
-0.000139075
-0.000124772
-0.000118644
-0.000124217
-0.000137425
-0.000146783
-0.000146851
-0.000143987
-0.000147705
-0.000154774
-0.000158595
-0.000160373
-0.000158518
-0.000157695
-0.00016278
-0.000170524
-0.000175236
-0.000180129
-0.000128095
-0.000132354
-0.000134863
-0.000141671
-0.00014702
-0.0001519
-0.000158803
-0.000158468
-0.000156622
-0.000157177
-0.000151346
-0.00015222
-0.000159797
-0.000158502
-0.000155412
-0.000153527
-0.000145186
-0.000130995
-0.0001172
-0.000104461
-8.86089e-05
-7.31622e-05
-6.19809e-05
-5.20008e-05
-4.50866e-05
-4.73205e-05
-5.8205e-05
-6.54225e-05
-6.35625e-05
-6.02874e-05
-6.06585e-05
-6.44728e-05
-6.89863e-05
-7.25623e-05
-7.58906e-05
-7.99838e-05
-8.89468e-05
-0.000101786
-0.000112317
-0.000120052
-4.26083e-05
-4.51977e-05
-4.42657e-05
-4.77655e-05
-5.04316e-05
-5.33948e-05
-5.91066e-05
-5.73804e-05
-5.29836e-05
-5.27446e-05
-4.86944e-05
-4.82729e-05
-5.70326e-05
-6.14443e-05
-5.95537e-05
-5.89802e-05
-5.6798e-05
-4.68044e-05
-3.45701e-05
-2.81321e-05
-2.0052e-05
-7.70238e-06
1.83031e-06
5.74389e-06
7.70051e-06
7.8106e-06
1.48157e-06
-4.68581e-06
-3.52238e-06
-2.63506e-06
-1.60572e-06
-3.86471e-07
-9.9556e-07
-2.03428e-06
-5.63152e-06
-9.729e-06
-1.57007e-05
-2.49248e-05
-3.21838e-05
-3.66882e-05
2.41926e-05
2.22949e-05
2.67752e-05
2.79751e-05
2.82334e-05
2.79324e-05
2.31302e-05
2.43005e-05
2.94516e-05
3.0111e-05
3.36564e-05
3.81057e-05
3.53111e-05
3.29662e-05
3.54923e-05
3.74213e-05