/*--------------------------------*- C++ -*----------------------------------*\
  =========                 |
  \\      /  F ield         | OpenFOAM: The Open Source CFD Toolbox
   \\    /   O peration     | Website:  https://openfoam.org
    \\  /    A nd           | Version:  10
     \\/     M anipulation  |
\*---------------------------------------------------------------------------*/
FoamFile
{
    format      ascii;
    class       volScalarField;
    location    "6";
    object      p;
}
// * * * * * * * * * * * * * * * * * * * * * * * * * * * * * * * * * * * * * //

dimensions      [0 2 -2 0 0 0 0];

internalField   nonuniform List<scalar> 
25600
(
0.00297876
-0.00298745
-0.00365275
-0.00039634
0.00221875
0.00542016
0.00680173
0.000883755
-0.00287638
-0.00104111
0.000566824
-0.000905144
-0.0012572
5.7683e-05
-0.00335004
-0.00887702
-0.00526101
0.00437705
0.0100643
0.00648144
-0.000852409
-0.00664078
-0.00389874
-5.26475e-05
0.000986263
0.00186038
0.00574389
0.00588718
0.00203205
0.000632962
0.000758601
0.00396892
0.00739971
0.00521993
0.00269491
0.00430817
0.00658825
0.00694399
0.00735601
0.00659545
0.00298155
-0.00300934
-0.00367191
-0.000385199
0.00221612
0.00539489
0.00679361
0.000908662
-0.00287768
-0.00106143
0.000561178
-0.000904367
-0.00124955
0.000102801
-0.00334472
-0.008936
-0.0052997
0.00439033
0.0101
0.00651201
-0.000844205
-0.0066532
-0.00388964
-4.09854e-05
0.000971876
0.00184206
0.00574779
0.00589599
0.00198442
0.000580185
0.000713693
0.00394646
0.00739993
0.00522643
0.00271181
0.00433131
0.00660366
0.00695437
0.00737911
0.00663014
0.00294741
-0.0030669
-0.00368225
-0.00034746
0.00221742
0.00533804
0.00676768
0.000935852
-0.00289791
-0.00109158
0.000541685
-0.000931778
-0.00124587
0.000168129
-0.00341643
-0.009104
-0.0054257
0.0043791
0.0101468
0.00660538
-0.000790974
-0.0066517
-0.00393742
-9.43378e-05
0.000909304
0.00182031
0.00576625
0.00593126
0.00198394
0.000533028
0.000600546
0.00380269
0.00733068
0.00522702
0.00275588
0.0043959
0.00662224
0.00695814
0.00740833
0.00664762
0.00285865
-0.0031199
-0.00372833
-0.000298901
0.00222321
0.00527495
0.00665807
0.00100174
-0.00292488
-0.00114688
0.000569397
-0.00095315
-0.00121706
0.000272938
-0.0036179
-0.00940744
-0.00545745
0.00439363
0.0101335
0.00660112
-0.000751554
-0.0066222
-0.00380074
-5.40686e-05
0.000786065
0.00182226
0.00583599
0.00597145
0.00201267
0.000576987
0.000508715
0.00354451
0.00704323
0.00503013
0.00271868
0.00449579
0.00667023
0.00696101
0.00737401
0.00658926
0.00270421
-0.00316051
-0.00365344
-0.000239695
0.00224498
0.00514723
0.00641869
0.00129343
-0.00295776
-0.00130103
0.000584433
-0.000839817
-0.00107425
0.000431818
-0.00393074
-0.0098432
-0.00538443
0.00450014
0.0101988
0.00656373
-0.000893619
-0.00668269
-0.00350458
0.000204172
0.000664118
0.00181814
0.00605271
0.00608844
0.00192525
0.000630679
0.000478549
0.00325152
0.00661058
0.00452512
0.00253414
0.00457507
0.00672718
0.00701957
0.00737384
0.00647287
0.00260565
-0.00315106
-0.00373731
-0.000344707
0.00231786
0.00523722
0.00604712
0.00129173
-0.00301151
-0.00158909
0.000617411
-0.000612763
-0.00074086
0.000675871
-0.00436874
-0.010352
-0.00507164
0.0047338
0.0103906
0.00657184
-0.00113371
-0.00682546
-0.0032612
0.000608116
0.000667184
0.00178534
0.00617654
0.00643785
0.0018973
0.000653507
0.000530206
0.00297158
0.00614186
0.00393646
0.00185163
0.00434728
0.00675938
0.00710532
0.00746152
0.00643331
0.00262041
-0.00314717
-0.00391731
-0.000684569
0.0022087
0.00532763
0.00593901
0.00152891
-0.00284485
-0.00196175
0.000656385
-0.000126843
-0.000193766
0.00111396
-0.00500604
-0.0107763
-0.0053023
0.00461858
0.0103251
0.00651829
-0.00144053
-0.00694574
-0.00301795
0.00110611
0.000771555
0.00180104
0.00613303
0.00665353
0.0019921
0.000736379
0.000792214
0.00285698
0.00563891
0.00334799
0.000868583
0.00385421
0.00665044
0.0071427
0.00754437
0.00647218
0.00266909
-0.00302075
-0.00418677
-0.00123351
0.001945
0.00522647
0.0058306
0.001575
-0.00238011
-0.00219971
0.000674267
0.000420655
0.000336599
0.00175333
-0.00609234
-0.0118562
-0.00714588
0.00323182
0.00940845
0.00618567
-0.00189906
-0.00689441
-0.00274269
0.00163604
0.000913702
0.00185566
0.00602534
0.0066841
0.00208422
0.000808826
0.00126186
0.00298421
0.00513071
0.00268196
-0.000235076
0.00309657
0.00639845
0.0071116
0.00739941
0.00643858
0.00267581
-0.00281375
-0.00440791
-0.00192481
0.00158583
0.00497905
0.00586567
0.00136019
-0.00218506
-0.00229288
0.000505423
0.000560427
0.000717265
0.002032
-0.00788552
-0.0136786
-0.00854497
0.00166924
0.00775202
0.00551142
-0.00258295
-0.0065511
-0.00253382
0.00210649
0.0010653
0.00190087
0.00589414
0.00642617
0.00210994
0.000831202
0.00147775
0.00314477
0.00467196
0.00199385
-0.00135287
0.00213586
0.00588527
0.00692334
0.00716092
0.00632536
0.00269416
-0.00251736
-0.00448198
-0.00253504
0.00121242
0.00454268
0.00597984
0.00128241
-0.00200641
-0.002367
0.000349396
0.000447015
0.000727019
0.00229774
-0.00828847
-0.0131509
-0.00894219
0.000946257
0.00645895
0.00442258
-0.00326991
-0.00642152
-0.00195808
0.00253786
0.00127416
0.00187278
0.00565087
0.00601219
0.00210011
0.000720282
0.00150914
0.00321267
0.0043383
0.00156107
-0.00209977
0.00109227
0.00513532
0.00644865
0.00673655
0.00619232
0.00270708
-0.00209641
-0.00430705
-0.00290522
0.000817627
0.00405196
0.00617034
0.00131496
-0.00153653
-0.00230345
0.000238417
0.000457976
0.000639181
0.00269245
-0.00672187
-0.0127466
-0.0085139
0.000235499
0.00287877
0.00164088
-0.00414662
-0.00740195
-0.00220144
0.00258155
0.00171334
0.00159092
0.00501176
0.0053855
0.00213093
0.0005784
0.00130083
0.00328841
0.00433116
0.0013861
-0.00233551
0.000255541
0.00434759
0.00571012
0.00594264
0.00595874
0.0026397
-0.00171257
-0.00392312
-0.00313182
0.000342066
0.00344886
0.00598453
0.00138307
-0.000912035
-0.00218512
0.000203455
0.00053123
0.000738428
0.00321614
-0.00432167
-0.0116242
-0.00719047
-0.000402587
0.000963586
-0.0015921
-0.00541326
-0.00858097
-0.00328502
0.0020839
0.00241601
0.00121001
0.00387586
0.00443827
0.00187173
0.000471672
0.000845215
0.00319107
0.00454997
0.00146338
-0.00229875
-0.000347951
0.00366673
0.00494544
0.00498739
0.00546256
0.00249321
-0.00145254
-0.00389652
-0.00335201
-0.000151366
0.00285586
0.00542612
0.0013579
-0.000545067
-0.00244967
0.000177781
6.87544e-05
0.000825797
0.0038593
-0.00186867
-0.00960231
-0.00538716
-0.000248714
-4.37902e-05
-0.00363459
-0.0057052
-0.00855511
-0.00435909
0.00120155
0.00294505
0.00116162
0.00223644
0.00310351
0.00150114
0.000142595
0.000171078
0.0029777
0.00500999
0.00185714
-0.00205892
-0.000760832
0.00314987
0.00440388
0.00434455
0.00479819
0.00228503
-0.00128831
-0.0037308
-0.00363226
-0.000683979
0.00256251
0.00517141
0.00134606
-0.000457987
-0.00282108
-2.66134e-05
0.000100992
0.00080817
0.00431892
0.00043836
-0.00691964
-0.00353627
0.000384857
0.00121867
-0.00429288
-0.00542557
-0.00718759
-0.00490304
0.000243626
0.0029076
0.0012737
0.000692768
0.00148693
0.000928765
-0.00031692
-0.00061697
0.00265378
0.00521365
0.00248377
-0.00156661
-0.000926942
0.00263477
0.0040943
0.00409068
0.00412767
0.00210652
-0.00113665
-0.00349583
-0.00397396
-0.00125862
0.00258806
0.00556009
0.00154591
-0.000509919
-0.00279738
-0.000427524
-2.36374e-06
0.000845819
0.00449309
0.00229936
-0.00446914
-0.00218212
0.00110834
0.00126989
-0.0040386
-0.0048727
-0.00524546
-0.00485455
-0.000566441
0.00221739
0.00118933
-0.000583297
-0.000199926
0.000168309
-0.00103153
-0.00145479
0.00230905
0.00519869
0.00304017
-0.000870961
-0.000804833
0.00215249
0.00405474
0.00415782
0.00368311
0.0020807
-0.000951401
-0.00321854
-0.00431424
-0.00182392
0.00259718
0.00483971
0.00192473
-0.00012814
-0.00217545
-0.00066532
7.68239e-08
0.000517479
0.00427167
0.003457
-0.00249379
-0.00160976
0.00123356
0.00129068
-0.00313198
-0.004105
-0.00370709
-0.004817
-0.00141222
0.000945424
0.000938583
-0.000749391
-0.000897415
-0.000389965
-0.00230092
-0.00234509
0.00207483
0.00535065
0.00369102
-0.000145141
-0.000614713
0.0017376
0.00405893
0.00451651
0.00365895
0.00233685
-0.000697525
-0.00309584
-0.0049847
-0.00260099
0.00236343
0.00482451
0.00260178
0.000517316
-0.00123709
-0.000728452
-0.000588952
-0.000157678
0.00360638
0.00377639
-0.00109855
-0.00160583
0.000956377
0.00104617
-0.00205796
-0.00317857
-0.00256576
-0.00468484
-0.00212852
-0.000227136
0.000469096
-0.000415674
-1.98466e-05
0.000156328
-0.00346638
-0.00297803
0.0019319
0.00578732
0.004777
0.000759211
-0.000540437
0.00127942
0.00402615
0.00503472
0.00404094
0.00246804
-0.000501903
-0.00305548
-0.00592629
-0.00375238
0.00169558
0.00511566
0.0033862
0.00135481
-0.000222194
-0.000918995
-0.00135053
-0.00091148
0.00219622
0.00273851
-0.00111082
-0.00193499
0.000406124
0.000501337
-0.00120661
-0.0027314
-0.00149047
-0.00378046
-0.00255286
-0.00152488
-0.000398787
9.12057e-05
0.00116511
0.00130214
-0.00289051
-0.00312521
0.00145907
0.00566894
0.00506589
0.0018692
-0.000224682
0.000679844
0.00379851
0.00531225
0.00438322
0.00262794
-0.000367582
-0.00324725
-0.0071608
-0.00550276
0.000370373
0.00552922
0.00411173
0.00185796
0.000196838
-0.000959396
-0.00156694
-0.000963202
0.00155018
0.00150154
-0.00162881
-0.00221374
-0.000159485
-2.86608e-05
-0.00174314
-0.003347
-0.00118915
-0.00293961
-0.00285519
-0.0026758
-0.00142724
0.000749995
0.00323011
0.00255551
-0.00227853
-0.00331878
0.000747498
0.00503636
0.00480238
0.00264813
0.000511256
0.00034192
0.0032525
0.0051067
0.00445495
0.00284282
-0.000285892
-0.00348721
-0.00790478
-0.0075443
-0.0014954
0.00387982
0.00410981
0.00213844
3.39045e-05
-0.00132799
-0.00195305
-0.00121802
0.0016202
0.00172153
-0.00115169
-0.00138583
0.000108927
-0.000282745
-0.00226227
-0.00398819
-0.00249597
-0.00266824
-0.00237216
-0.00211794
-0.00183995
0.00089057
0.00395784
0.00343359
-0.00162968
-0.00339455
0.000159331
0.0043882
0.00444065
0.00315408
0.00137943
0.000319372
0.00253898
0.00456975
0.00447817
0.00306819
5.35902e-05
-0.00310326
-0.00784997
-0.00985926
-0.00384376
0.00285473
0.00416424
0.0022113
3.89133e-05
-0.00132469
-0.00170485
-0.00131797
0.00124222
0.00192115
-0.000302172
-0.000213023
0.000848467
0.000200146
-0.00211485
-0.00410831
-0.00325306
-0.00274342
-0.00150509
-2.01651e-05
-0.000141571
0.0012764
0.00361561
0.00394165
-0.000499641
-0.0033085
-0.000988234
0.00291436
0.00399269
0.00346197
0.00219417
0.000615789
0.00204209
0.00416814
0.00447297
0.00351745
0.000546992
-0.00259438
-0.00729575
-0.0108015
-0.00604034
0.00069607
0.00334499
0.00226462
-9.48676e-05
-0.00113387
-0.00137556
-0.00154403
0.000563189
0.00197017
0.000777785
0.000718892
0.00114604
0.000540089
-0.00141487
-0.00375792
-0.00378238
-0.0030224
-0.00223895
-2.13759e-05
0.00105398
0.00148876
0.00294071
0.00429695
0.0011862
-0.0023681
-0.00205017
0.000853708
0.00248939
0.00307106
0.0028007
0.00114175
0.00185099
0.00381738
0.0044084
0.00403755
0.00101945
-0.0024197
-0.00643756
-0.00924528
-0.00720796
-0.00187398
0.00146134
0.00167565
0.00021404
-0.000736841
-0.00122175
-0.00216564
-0.000548777
0.0016605
0.00154989
0.00137106
0.00130927
0.00042225
-0.00137628
-0.00281498
-0.00367054
-0.00283103
-0.00262533
-0.00165023
0.000688559
0.00128185
0.00223545
0.00386401
0.00284008
-0.000587481
-0.00176538
-0.00021883
0.00147456
0.00292238
0.0031601
0.00189294
0.00189092
0.00323386
0.00434075
0.00324368
0.00114585
-0.00153172
-0.00469157
-0.00717895
-0.00713336
-0.00274054
0.000199786
0.000812189
0.000235396
-0.000445688
-0.00136759
-0.00291421
-0.001652
0.00138576
0.00142071
0.00107299
0.00109918
0.000189229
-0.00169539
-0.00218509
-0.00286768
-0.00256185
-0.00231172
-0.00131704
0.000872036
0.00183638
0.00195987
0.00340762
0.00379063
0.00106139
-0.00115486
-0.00062112
0.00100866
0.00239996
0.00313629
0.00266581
0.00254188
0.00277988
0.00328741
0.00155933
0.00145775
-0.000255491
-0.00216819
-0.00417107
-0.00428892
-0.00225322
-0.000247179
0.00110249
0.000810199
-6.29157e-05
-0.00170364
-0.00354459
-0.0029937
0.000562516
0.00175507
0.00141644
0.00113342
-0.000243308
-0.00146587
-0.00125354
-0.00180942
-0.00240161
-0.00214573
-0.0015597
0.000330034
0.00204863
0.00212695
0.00299113
0.00414555
0.00270592
0.000405112
0.000103531
0.000833276
0.00209127
0.00400489
0.00298099
0.00269957
0.00262296
0.0023407
2.57945e-05
8.40717e-06
-6.85069e-05
-0.000648764
-0.0016684
-0.0012662
0.000247029
0.00101462
0.00188072
0.00133377
0.000172307
-0.000847672
-0.00285387
-0.00364486
-0.00119722
0.000910832
0.000936321
0.00111361
0.000163456
-0.00134646
-0.000950261
-0.00169681
-0.00283497
-0.00241342
-0.00152013
7.58018e-05
0.00200997
0.0023076
0.00282564
0.003791
0.00276082
0.000895402
0.000823484
0.0022963
0.00203202
0.00313971
0.00248807
0.00202618
0.00181217
0.000579695
-0.000668802
-0.000210911
0.000182823
0.000522791
-0.000264261
8.14183e-05
-0.000310004
0.000564972
0.00145653
0.000951326
-0.000162604
-0.00020244
-0.00140897
-0.00305446
-0.00144711
0.000746015
0.000765199
0.000789427
0.000479124
-0.0011183
-0.000800364
-0.000892472
-0.00253709
-0.0022139
-0.00136677
-0.000320907
0.00164122
0.00231104
0.00264012
0.00357145
0.00287824
0.000988123
0.000515813
-0.000117044
0.00134406
0.00234934
0.00150962
3.95824e-06
-0.000798132
-0.00146004
0.00131454
0.000447638
0.000329777
0.0016089
0.00145418
0.00208751
0.00403382
0.00264914
0.00245857
0.00148931
0.000429129
0.000608515
0.000308675
-0.00160424
-0.00155224
-0.000216334
-0.000411882
-0.00182727
-0.00189262
-0.00317653
-0.00245004
-0.00146086
-0.00223864
-0.00197293
-0.00122605
-0.000406337
0.00133425
0.00212309
0.00238868
0.00339012
0.00318494
0.0019145
0.00118487
0.000598909
0.000874014
0.0012131
0.00026505
-0.000706852
1.05612e-05
0.00111332
0.000956774
0.000103227
-0.000328967
0.000498113
0.00120219
0.00164281
0.00209754
0.00159763
0.00144479
0.000980161
0.000424408
0.000619985
0.000466845
-0.0007621
-0.000941169
0.000194685
-0.00012772
-0.00149218
-0.00171727
-0.00244212
-0.00265025
-0.00156311
-0.00174083
-0.00183246
-0.00114487
-0.000435929
0.000949255
0.00163573
0.00168024
0.00245318
0.00249535
0.0019557
0.0016801
0.00124434
0.0013472
0.00159486
0.000947618
0.000204102
7.06996e-05
0.00059113
0.000992334
0.000516873
0.000178032
0.000917849
0.00155844
0.00147541
0.00190168
0.00184431
0.00200155
0.00152811
0.000465469
-5.45201e-05
-0.000333614
-0.000649786
-0.00048897
0.000720293
0.00109719
-0.000148901
-0.00162761
-0.00334702
-0.00437862
-0.00288952
-0.00178214
-0.00158786
-0.000934886
-0.000290799
0.000797911
0.00156543
0.00172688
0.00256074
0.00269731
0.00241833
0.002523
0.00188192
0.00141511
0.00120521
0.00099498
0.00129605
0.00109476
0.000765382
0.000318763
0.000237223
-0.000407684
0.000310526
0.00114673
0.00119802
0.00160696
0.00190133
0.00203209
0.00215548
0.00149746
0.000322145
-0.000925727
-0.000993047
-4.60479e-05
0.000647009
0.00078784
-0.000243554
-0.00149045
-0.00189234
-0.00241851
-0.00204829
-0.00135213
-0.00200203
-0.00187858
-0.000763988
0.000151736
0.00132312
0.00132769
0.00136275
0.00155664
0.00136414
0.00189883
0.00200491
0.00168004
0.0014397
0.00142634
0.00165634
0.00135759
0.00055398
0.000410702
0.000784999
0.0010287
0.000908079
0.00127443
0.00125886
0.00142884
0.00168044
0.00137708
0.00138809
0.00116112
0.000651651
-0.000136266
-0.000167007
0.000758533
0.00105623
0.00122005
0.000802479
-0.000468002
-0.000397604
-0.000446693
-0.0010138
-0.000442562
-0.000578783
-0.000762615
7.71428e-06
0.000491318
0.00169196
0.00204077
0.00154446
0.00167959
0.00157156
0.0015489
0.00181211
0.00127912
0.000795642
0.00110764
0.00142242
0.00113664
0.000737337
0.00838915
0.001629
-0.00493396
-0.000763688
0.00385944
0.00061468
-0.000441965
0.00185738
0.00462158
0.00897551
0.0067988
-0.00107822
7.00149e-05
0.00708317
0.00128555
-0.00420585
-0.00202576
0.00315229
0.00463301
0.0013003
-0.00324617
-0.00481949
0.00164864
0.00450634
-0.000232386
-0.00119552
0.00416039
0.00732007
0.00342695
-0.00103078
0.00111303
0.00658967
0.0097907
0.00512064
-0.000692564
0.000346989
0.00506707
0.00456612
0.00367001
0.00697273
0.00841604
0.00165506
-0.00495102
-0.000789299
0.00382655
0.000502972
-0.000587373
0.00192306
0.00462155
0.00899073
0.00683405
-0.00111516
1.10425e-05
0.00707723
0.00127579
-0.00430753
-0.00208753
0.00315878
0.00463639
0.00127801
-0.00330209
-0.00486971
0.00171713
0.00454502
-0.000246432
-0.00125133
0.0041142
0.00731999
0.00345551
-0.00103127
0.00110034
0.00659197
0.00980266
0.00513753
-0.000702066
0.000324357
0.00506763
0.00456492
0.00366405
0.00697516
0.00844945
0.00166256
-0.00500839
-0.000800695
0.00383228
0.000410044
-0.00103817
0.00161813
0.00459034
0.00914247
0.00691899
-0.00114671
-4.03457e-05
0.00716731
0.00131788
-0.0043889
-0.00221732
0.0030482
0.00461842
0.00129248
-0.00331477
-0.00492359
0.00145217
0.00448594
-0.000208661
-0.00127601
0.00405846
0.00730057
0.00351152
-0.00103578
0.00105023
0.00659239
0.00984601
0.00519044
-0.000719805
0.000250389
0.00504505
0.00455888
0.00366109
0.00697346
0.00845453
0.00164247
-0.00510818
-0.000792418
0.00393078
0.000275619
-0.00147315
0.000908566
0.00398571
0.00898918
0.00696655
-0.00119413
-9.60526e-05
0.00755485
0.00151067
-0.00454791
-0.00237556
0.00283952
0.00440358
0.00122565
-0.0034373
-0.00497317
0.00132286
0.00397875
-0.000392222
-0.0011548
0.0040886
0.0072891
0.00356206
-0.00103785
0.000987449
0.0065473
0.00980588
0.00514582
-0.000773233
0.000112121
0.00495638
0.0045244
0.00366571
0.00697388
0.00837707
0.00159682
-0.00521192
-0.000863866
0.00414058
0.000334683
-0.00155743
0.000201468
0.00311245
0.00853377
0.00687601
-0.00126506
-0.000180521
0.00824246
0.00224083
-0.00489051
-0.00262031
0.00252577
0.00451756
0.001164
-0.00364305
-0.00520456
0.00125294
0.0037768
-0.000633829
-0.00104073
0.00419221
0.00723989
0.00355477
-0.00102957
0.000906573
0.00650917
0.00970015
0.00490036
-0.000997705
-6.37338e-05
0.00483698
0.00447432
0.00364998
0.00692947
0.00810222
0.00147131
-0.00524751
-0.000896132
0.00438109
0.000682049
-0.00129163
0.000104409
0.00213741
0.00774627
0.00670799
-0.00128003
-0.000285308
0.00908483
0.00371729
-0.00520946
-0.00298859
0.00206417
0.0044175
0.00106094
-0.00382404
-0.00576143
0.00091253
0.00378786
-0.000760067
-0.00111773
0.00421175
0.00723532
0.00343289
-0.00105905
0.000790602
0.00650322
0.00961859
0.0046072
-0.00134532
0.000117394
0.00480811
0.00444871
0.00364707
0.00685493
0.00787552
0.00134799
-0.00536967
-0.000956471
0.00450665
0.00108481
-0.000946053
0.000245972
0.00154757
0.0068468
0.00638422
-0.00116802
-0.00026664
0.00995047
0.00557393
-0.005321
-0.00356135
0.00135389
0.00411368
0.000866447
-0.00377812
-0.00650586
-2.73998e-05
0.00355942
-0.00066827
-0.00123553
0.00399214
0.0068738
0.00310918
-0.00113796
0.000725014
0.0062737
0.00939001
0.00442172
-0.00154874
0.000121767
0.00483407
0.00446886
0.00372939
0.00673205
0.00763033
0.00141871
-0.00542716
-0.00130477
0.00435541
0.00157693
-0.000800253
0.000205522
0.00131885
0.00597096
0.00586549
-0.00105368
-0.000182634
0.0105371
0.00727327
-0.00540162
-0.00468165
0.000184103
0.00335009
0.000642683
-0.00337603
-0.00652927
-0.00134151
0.00282092
-0.00056254
-0.0010371
0.00377855
0.00632393
0.00259733
-0.00135871
0.000842324
0.00604784
0.00894313
0.00415451
-0.00164346
6.07399e-05
0.00477304
0.00461312
0.00393521
0.00660087
0.0071819
0.00135516
-0.00547949
-0.00181834
0.00404178
0.0018663
-0.000558534
0.000127673
0.0012034
0.00545945
0.00516993
-0.0012152
-0.000342202
0.0103782
0.00820437
-0.00570517
-0.00587441
-0.00114573
0.0021342
0.000359637
-0.00290956
-0.00547202
-0.00190427
0.00175734
-0.000711812
-0.000408927
0.00382012
0.00578018
0.0020335
-0.00180047
0.000938572
0.00608958
0.00851359
0.0036773
-0.00189007
-0.000146916
0.00462624
0.00477533
0.00418925
0.00654583
0.00681152
0.00121125
-0.00552235
-0.00231759
0.00370559
0.00205488
-0.00034451
0.000137167
0.0011038
0.00547891
0.00471033
-0.0016545
-0.000946408
0.00943081
0.00815371
-0.00580184
-0.00660133
-0.00215456
0.00104554
8.06672e-05
-0.00242184
-0.0042337
-0.00181198
0.00119999
-0.000971761
3.02975e-06
0.00388525
0.00533862
0.00145961
-0.00222473
0.000926389
0.00628071
0.00829687
0.00318342
-0.00230667
-0.000471371
0.00432041
0.00489393
0.0044525
0.00647998
0.00629215
0.00101516
-0.00551504
-0.00261029
0.00335729
0.00221778
-9.75255e-05
6.8911e-05
0.00106883
0.0057397
0.00475375
-0.00203869
-0.00159364
0.00795256
0.0074519
-0.00537553
-0.00674176
-0.00284306
-0.000369614
-0.000353849
-0.00189813
-0.00340987
-0.00165162
0.0010598
-0.000906601
9.5747e-05
0.00373238
0.00494153
0.000818963
-0.00260402
0.00103312
0.00657138
0.00809946
0.00292225
-0.00248335
-0.000735584
0.00381891
0.00481003
0.00466348
0.00636817
0.00571067
0.00077309
-0.00541715
-0.002782
0.00296316
0.00238905
0.000231684
0.000141295
0.00108697
0.00589324
0.00508892
-0.00187919
-0.00175112
0.00682845
0.00695853
-0.00459511
-0.00641669
-0.00303531
-0.00126627
-0.000876074
-0.00156915
-0.00267613
-0.00162167
0.00109936
-0.000396835
0.000306706
0.00350148
0.00451781
0.00012644
-0.00327352
0.000820127
0.00681165
0.00799144
0.00288729
-0.00238553
-0.00084658
0.00320389
0.0044673
0.00471758
0.00608617
0.00503609
0.000521206
-0.00520019
-0.00298147
0.00242868
0.002428
0.00068356
0.000333796
0.0012123
0.00588693
0.0052116
-0.00124686
-0.00125939
0.00667078
0.00699149
-0.00356599
-0.00606796
-0.00297274
-0.00127482
-0.00123531
-0.00152609
-0.00312008
-0.00182825
0.00116181
0.000181098
0.000675829
0.00336787
0.00406359
-0.000539765
-0.00400072
0.000266502
0.00658267
0.0077404
0.00280916
-0.00228749
-0.000956623
0.00257369
0.00398756
0.00459092
0.00565981
0.00432427
0.000251976
-0.00487996
-0.00316086
0.00171076
0.00236598
0.00125589
0.000728769
0.0013832
0.00554574
0.00492978
-0.000580498
-0.000625527
0.00680422
0.00693913
-0.0027504
-0.00554102
-0.00249144
-0.000792129
-0.00146378
-0.00178725
-0.00262309
-0.00203193
0.00113199
0.000736666
0.00102584
0.00344364
0.00380884
-0.00100842
-0.00463592
-0.000516036
0.0059658
0.00734923
0.00261842
-0.00246764
-0.000908917
0.00208438
0.00357213
0.00436035
0.0051112
0.00353057
-4.86151e-05
-0.0044603
-0.0031598
0.000903268
0.00220929
0.00163242
0.00128606
0.00153222
0.00495686
0.00418142
-0.000383737
-0.000291861
0.00671013
0.00668827
-0.00189391
-0.0047247
-0.0018384
-0.000225323
-0.00170481
-0.00207109
-0.00206144
-0.00215786
0.00126699
0.00119353
0.00133808
0.00329808
0.00347106
-0.00119163
-0.00488554
-0.00117668
0.00529981
0.00693646
0.00233806
-0.00200824
-0.000513331
0.00186746
0.00335507
0.00420789
0.00456064
0.0027942
-0.000364422
-0.00316167
-0.00301178
0.000212618
0.00206225
0.0025291
0.00185793
0.00173674
0.00417583
0.00326904
-0.000776004
-0.00079392
0.00612963
0.00641589
-0.000655867
-0.00354741
-0.00134442
1.61077e-06
-0.00207841
-0.00231475
-0.0015652
-0.00216953
0.00082396
0.00139276
0.00134793
0.00268985
0.00299068
-0.00111622
-0.00452692
-0.00154625
0.00482139
0.00660837
0.00200688
-0.00151366
1.49466e-05
0.00172915
0.00326229
0.00432556
0.00424791
0.00245993
-0.000581818
-0.00310487
-0.00307226
-0.000515811
0.00191377
0.00324216
0.00244812
0.00183949
0.00339412
0.00225221
-0.00163759
-0.00223047
0.00428121
0.00637973
0.000863175
-0.00210376
-0.000851965
-0.000607155
-0.00288765
-0.0027807
-0.00126952
-0.00250372
-0.000149029
0.00119652
0.00117505
0.00238957
0.00295579
-0.000526714
-0.00350487
-0.00162192
0.00443668
0.00629283
0.00181678
-0.000777221
0.000585223
0.00143189
0.00310566
0.0045659
0.00423939
0.00246608
-0.000598809
-0.00326272
-0.00336775
-0.00160067
0.00129534
0.00349283
0.00313891
0.00207893
0.0023767
0.000519513
-0.00279264
-0.0036919
0.00144968
0.00425412
0.000515989
-0.00104359
-0.000317987
-0.000793634
-0.00374323
-0.00364002
-0.00127334
-0.00310127
-0.00188685
-0.000160041
0.000221282
0.00213851
0.00334365
0.000323559
-0.00321786
-0.00157398
0.004019
0.00592893
0.00250633
0.00016189
0.00108396
0.00120082
0.00280148
0.00451826
0.0042465
0.00251627
-0.000481745
-0.00375311
-0.00370708
-0.00307053
-4.23641e-05
0.00281057
0.00298437
0.00210295
0.00169109
-0.000519426
-0.00364229
-0.00419755
-0.000409655
0.00143687
-0.000798912
-0.000503151
0.00027158
-0.000733052
-0.00469436
-0.00491527
-0.00199287
-0.0041172
-0.00425985
-0.00159431
-0.000547998
0.0024098
0.00394143
0.000924983
-0.0029179
-0.00131511
0.00345555
0.00536666
0.00298321
0.00135761
0.00167259
0.00126965
0.00255363
0.00418811
0.00405176
0.00245455
-0.00064242
-0.0036239
-0.00432624
-0.00370097
-0.00091456
0.00182531
0.00200836
0.00205008
0.0012718
-0.00108505
-0.00428487
-0.00452886
-0.000932131
0.000233318
-0.00214532
-0.000677367
0.0008564
-0.000484696
-0.00414725
-0.00534136
-0.00265941
-0.00470657
-0.00568816
-0.00289117
-0.000456257
0.00297591
0.00456773
0.00202457
-0.00187279
-0.000926723
0.00279124
0.00414335
0.00305036
0.0023173
0.00221161
0.00147187
0.0024265
0.00396861
0.00378917
0.00251758
-0.000472276
-0.00353436
-0.00514197
-0.00450817
-0.00187731
0.00148522
0.00377547
0.00245597
0.000865858
-0.00175568
-0.0041269
-0.00412251
-0.0010428
-1.39032e-05
-0.00212194
-0.000748665
0.00121155
3.11554e-05
-0.00353303
-0.00498737
-0.00289267
-0.00401992
-0.00538214
-0.00379586
-0.000786616
0.00244089
0.00470255
0.00324033
-0.000269449
-0.000572282
0.0016633
0.00289631
0.0026699
0.00301223
0.00239457
0.00148316
0.00213419
0.00353916
0.00361726
0.00248832
2.59956e-05
-0.00275341
-0.00500914
-0.00473446
-0.00285088
0.000359773
0.00204493
0.00218505
0.000591131
-0.00161884
-0.00343703
-0.00372244
-0.00144745
0.000158792
-0.00094374
-0.000561942
0.000877606
0.00058649
-0.00208647
-0.00390469
-0.00297351
-0.00270641
-0.0035925
-0.00364112
-0.00187286
0.000951596
0.00317443
0.00355547
0.0013142
7.4214e-05
0.000670868
0.00143713
0.00157476
0.00175917
0.00239738
0.00155838
0.00180862
0.00298177
0.0031378
0.00233245
0.000117221
-0.00232751
-0.0043884
-0.00426029
-0.0027009
-7.18644e-05
0.00145899
0.00170135
0.000911083
-0.000512355
-0.00156881
-0.00299614
-0.00209202
-4.77751e-05
0.000276187
0.000417025
0.000566536
0.000184119
-0.000709463
-0.00173716
-0.00116147
-0.00161124
-0.00182055
-0.00159234
-0.000794518
0.000495519
0.00132366
0.00246325
0.00191621
0.00059504
0.000380137
0.000620472
0.00139457
0.00246416
0.00282035
0.00172016
0.00140088
0.002162
0.00263054
0.00193754
0.000117412
-0.00198244
-0.00324503
-0.00284419
-0.0016401
0.000419648
0.00153894
0.00159703
0.000673767
-0.000525489
-0.00106089
-0.00237195
-0.00231734
-1.23125e-05
0.00111552
0.00160101
0.00134409
0.000110447
-0.000783721
-0.000778123
-0.00129313
-0.00210471
-0.00244837
-0.00189775
-0.000592205
0.000955461
0.00148088
0.00235409
0.00236246
0.000626201
-0.000207966
0.000343473
0.00119848
0.00224322
0.00290988
0.00239826
0.00160655
0.00177106
0.00198213
0.00146485
0.000626441
-0.000806801
-0.00172959
-0.00178589
-0.00152707
-4.51465e-05
0.000766167
0.00150527
0.000823067
-0.000450768
-0.000278266
-0.00140078
-0.00163963
0.000559725
0.00193512
0.00207314
0.00118878
-0.000530971
-0.00167057
-0.00105115
-0.000960868
-0.00190161
-0.00180907
-0.00152772
-0.000486862
0.00122155
0.00172338
0.0023029
0.00312548
0.00208323
0.000556871
0.000430757
0.00115525
0.00200981
0.00272821
0.00123718
0.00110086
0.00151554
0.00165997
0.000181968
0.000157561
-0.000432493
-0.000806518
-0.000751573
-0.000332659
0.00108315
0.00129554
0.00185548
0.00123137
0.000221987
-0.000158238
-0.00161007
-0.0026463
-0.000895666
0.00106672
0.00141834
0.00124959
-0.000457704
-0.002392
-0.00168903
-0.00232887
-0.00327418
-0.0024902
-0.0015188
-0.000417967
0.00154809
0.00205516
0.00197789
0.00261337
0.00257612
0.00160904
0.00136215
0.00146255
0.00163259
0.00245741
0.00160689
0.000761408
0.000626402
0.000331193
8.62749e-05
0.000100709
-6.53243e-05
-0.000130932
5.57008e-05
0.000913403
0.00209061
0.00145168
0.00165627
0.000876089
6.10059e-05
0.000207001
-0.000450446
-0.00202788
-0.00166455
0.000380509
0.000301614
0.000342399
-0.00062746
-0.00259628
-0.00210398
-0.00180531
-0.00284865
-0.0017431
-0.000711441
-5.08847e-05
0.00150827
0.0021246
0.00214624
0.0027603
0.00284811
0.00217025
0.00144003
0.00110132
0.00144735
0.0022441
0.00146901
-5.83993e-05
-0.000600107
-0.000119081
0.00121613
0.000504004
0.000119288
0.00110161
0.00133946
0.00231964
0.00528421
0.0032515
0.00257144
0.00114639
0.000121327
0.000807238
0.000982504
-0.000635084
-0.00164929
-0.0012749
-0.00273606
-0.00216121
-0.0022852
-0.00404029
-0.00307251
-0.00224842
-0.0027924
-0.00191727
-0.000792213
1.39155e-05
0.00159609
0.00226146
0.00220535
0.00282072
0.00288409
0.00221589
0.00157288
0.000907834
0.0010318
0.00146702
0.000515796
-0.000629857
-0.000458342
0.000935448
0.00142165
0.000439031
-0.000845831
0.00025609
0.000953071
0.00181195
0.00264946
0.00270537
0.00218393
0.000928133
0.000268808
0.000689732
0.000778947
-0.000418642
-0.00127942
-0.000891922
-0.00130714
-0.00178951
-0.00185856
-0.0021807
-0.00331945
-0.00249134
-0.00241783
-0.00189961
-0.00088958
-0.000228298
0.00103663
0.00170254
0.00178571
0.00223836
0.00215083
0.00180315
0.00164157
0.00145636
0.00182189
0.0018772
0.00115578
0.000377092
0.00027212
0.000974688
0.00127894
0.000756632
0.000698703
0.000916899
0.00147542
0.00153205
0.00192472
0.00160816
0.00183852
0.00112389
0.000311764
0.000165586
-0.000136753
-0.000455859
-0.000503292
-0.000113075
8.62019e-05
-0.000834454
-0.00168832
-0.00305251
-0.00433157
-0.00318256
-0.00216188
-0.00165695
-0.00096255
-0.000242413
0.000841956
0.00120637
0.00180587
0.00265621
0.00265558
0.00230881
0.00238608
0.00187497
0.00150332
0.00132095
0.00122829
0.00152199
0.00128377
0.000996712
0.00027355
0.000274205
-0.000146205
0.000634317
0.00143705
0.00134504
0.00156259
0.00214189
0.00222601
0.00193584
0.00142026
0.000609069
-0.000573191
-0.000695501
-0.000370464
0.000314963
0.000244508
-0.000705849
-0.00190244
-0.00221268
-0.00235203
-0.00210635
-0.0015569
-0.0019543
-0.00170444
-0.000503618
0.000379324
0.0013122
0.0013718
0.00145981
0.00147842
0.00143729
0.00208867
0.0021917
0.00179624
0.00145421
0.00141795
0.00173552
0.00138861
0.000480331
0.000636853
0.00102714
0.00111221
0.00103206
0.00143256
0.00131071
0.00132583
0.00150617
0.000878448
0.00108731
0.000965495
0.000744272
4.86624e-05
1.48491e-05
0.000926606
0.00105198
0.00105495
0.00057067
-0.000818165
-0.000760366
-0.000573369
-0.00100374
-0.00042638