/*--------------------------------*- C++ -*----------------------------------*\
  =========                 |
  \\      /  F ield         | OpenFOAM: The Open Source CFD Toolbox
   \\    /   O peration     | Website:  https://openfoam.org
    \\  /    A nd           | Version:  10
     \\/     M anipulation  |
\*---------------------------------------------------------------------------*/
FoamFile
{
    format      ascii;
    class       volVectorField;
    location    "20";
    object      U;
}
// * * * * * * * * * * * * * * * * * * * * * * * * * * * * * * * * * * * * * //

dimensions      [0 1 -1 0 0 0 0];

internalField   nonuniform List<vector> 
102400
(
(0.0210516 -1.53797e-08 -5.0619e-07)
(0.0210524 -2.5937e-09 2.0741e-07)
(0.0210525 5.54668e-08 3.54618e-07)
(0.0210536 -4.22509e-08 -1.98798e-07)
(0.0210547 4.44183e-08 7.83936e-07)
(0.0210544 5.57401e-09 2.47408e-09)
(0.0210563 -8.63166e-09 4.4531e-07)
(0.0210561 2.53199e-08 6.39017e-07)
(0.0210567 6.03616e-09 7.9962e-08)
(0.0210577 -1.29336e-08 8.83435e-07)
(0.0210578 2.12623e-08 1.50405e-07)
(0.0210577 5.64608e-09 6.62734e-07)
(0.0210589 -3.23951e-08 5.48817e-07)
(0.0210579 4.75466e-08 5.87308e-08)
(0.0210584 -4.46737e-08 8.43927e-07)
(0.0210585 1.27826e-08 -3.14579e-07)
(0.0210576 4.42819e-09 4.21107e-07)
(0.021058 -3.2042e-08 -2.79122e-07)
(0.0210571 2.00154e-08 -4.5932e-07)
(0.0210568 -3.37287e-08 -3.61407e-07)
(0.0210561 1.07024e-08 -1.19275e-06)
(0.0210557 -2.44556e-08 -8.92602e-07)
(0.0210549 -3.57568e-10 -1.49747e-06)
(0.0210541 -3.04311e-09 -1.74837e-06)
(0.0210538 -3.3795e-08 -1.56301e-06)
(0.0210526 2.90412e-08 -2.29939e-06)
(0.0210523 -4.61545e-08 -1.94848e-06)
(0.0210517 1.49233e-08 -2.04083e-06)
(0.0210507 -4.67788e-09 -2.5562e-06)
(0.0210507 -2.53705e-08 -1.54777e-06)
(0.0210501 2.10251e-08 -2.38925e-06)
(0.0210495 -1.74869e-08 -1.79901e-06)
(0.0210498 5.28065e-09 -1.23993e-06)
(0.0210493 -5.11642e-09 -2.18019e-06)
(0.0210493 1.81174e-08 -3.40627e-07)
(0.0210495 -1.62131e-08 -1.69713e-06)
(0.02105 1.6054e-08 -4.14156e-07)
(0.0210493 2.28366e-08 -4.42225e-07)
(0.0210512 -3.35689e-08 -8.2671e-07)
(0.0210503 5.70354e-08 3.98605e-07)
(0.0643948 -1.01997e-07 -1.20939e-06)
(0.0643957 5.40288e-08 8.49933e-07)
(0.0643976 1.97662e-07 6.69055e-07)
(0.0644002 -1.97327e-07 -1.18729e-08)
(0.0644031 2.2201e-07 2.02475e-06)
(0.0644033 -5.24846e-08 1.21498e-07)
(0.0644082 -3.2759e-08 1.66032e-06)
(0.0644079 9.06854e-08 1.51966e-06)
(0.0644105 -4.5807e-08 7.79562e-07)
(0.0644127 -6.53354e-08 2.35999e-06)
(0.064413 6.02816e-08 6.88659e-07)
(0.0644139 -5.37855e-08 2.14569e-06)
(0.0644162 -1.48057e-07 1.36379e-06)
(0.0644142 1.59848e-07 7.46278e-07)
(0.0644158 -2.617e-07 2.08045e-06)
(0.0644153 5.54569e-08 -5.90857e-07)
(0.0644136 -4.93875e-08 1.2244e-06)
(0.0644141 -1.61708e-07 -1.02913e-06)
(0.0644117 5.76026e-08 -1.03745e-06)
(0.064411 -1.73594e-07 -1.50952e-06)
(0.0644086 2.67462e-08 -3.28999e-06)
(0.0644074 -1.25053e-07 -2.85552e-06)
(0.0644048 -7.65302e-09 -4.61169e-06)
(0.0644029 -4.36524e-08 -5.00866e-06)
(0.0644012 -1.18609e-07 -5.03044e-06)
(0.064398 1.16868e-07 -6.68178e-06)
(0.0643971 -2.00883e-07 -5.79167e-06)
(0.0643945 1.15741e-07 -6.42367e-06)
(0.0643926 -4.14413e-08 -7.08016e-06)
(0.0643916 -6.21247e-08 -5.03085e-06)
(0.0643899 1.2261e-07 -6.9384e-06)
(0.0643883 -6.84996e-08 -4.9702e-06)
(0.0643888 6.47032e-08 -4.27726e-06)
(0.0643871 2.1345e-08 -5.60663e-06)
(0.0643875 8.61209e-08 -1.55809e-06)
(0.0643877 -3.82703e-08 -4.69053e-06)
(0.0643888 1.22329e-07 -9.16559e-07)
(0.0643879 7.2e-08 -1.83104e-06)
(0.0643924 -8.45251e-08 -1.62503e-06)
(0.0643902 2.5629e-07 6.7843e-07)
(0.110454 -2.11005e-07 -1.67513e-06)
(0.110455 2.1632e-07 1.31812e-06)
(0.110459 4.02261e-07 8.01272e-07)
(0.110463 -3.93999e-07 4.14085e-07)
(0.110468 5.2504e-07 2.94322e-06)
(0.110469 -1.72918e-07 4.01806e-07)
(0.110476 -2.90642e-08 2.89716e-06)
(0.110477 1.62184e-07 2.22789e-06)
(0.110481 -1.47309e-07 1.79479e-06)
(0.110485 -1.5188e-07 3.59679e-06)
(0.110486 8.01694e-08 1.5214e-06)
(0.110488 -1.95564e-07 3.62552e-06)
(0.110491 -3.45641e-07 2.20311e-06)
(0.110488 2.6774e-07 1.81768e-06)
(0.110491 -6.56355e-07 3.14759e-06)
(0.11049 9.37695e-08 -4.04135e-07)
(0.110488 -2.2556e-07 2.04981e-06)
(0.110488 -3.96913e-07 -1.56281e-06)
(0.110485 5.19521e-08 -1.278e-06)
(0.110483 -4.50824e-07 -2.66948e-06)
(0.110479 8.13339e-09 -4.94611e-06)
(0.110477 -3.3976e-07 -4.80376e-06)
(0.110473 -5.69113e-08 -7.49925e-06)
(0.11047 -1.58364e-07 -8.05456e-06)
(0.110466 -2.64622e-07 -8.55021e-06)
(0.110461 2.13634e-07 -1.08015e-05)
(0.11046 -4.55176e-07 -9.67152e-06)
(0.110455 2.7975e-07 -1.08847e-05)
(0.110452 -1.31871e-07 -1.13582e-05)
(0.110449 -8.00403e-08 -8.89231e-06)
(0.110447 2.74913e-07 -1.13297e-05)
(0.110444 -1.30108e-07 -8.23645e-06)
(0.110445 1.97205e-07 -7.68137e-06)
(0.110441 8.60501e-08 -8.71484e-06)
(0.110442 2.23401e-07 -3.39579e-06)
(0.110442 -2.3908e-08 -7.44194e-06)
(0.110444 3.31096e-07 -1.65793e-06)
(0.110443 1.71114e-07 -3.52265e-06)
(0.110449 -8.92719e-08 -2.13981e-06)
(0.110446 5.88435e-07 4.23565e-07)
(0.159423 -3.14684e-07 -2.17191e-06)
(0.159422 4.83535e-07 1.34963e-06)
(0.15943 6.5328e-07 7.66262e-07)
(0.159434 -5.98997e-07 7.26877e-07)
(0.159441 9.19377e-07 3.54845e-06)
(0.159444 -3.47386e-07 6.91623e-07)
(0.159453 -4.52973e-09 3.93895e-06)
(0.159454 2.13901e-07 2.82599e-06)
(0.159461 -3.04085e-07 2.86236e-06)
(0.159466 -2.87017e-07 4.62723e-06)
(0.159468 5.14237e-08 2.54317e-06)
(0.159472 -4.39278e-07 5.01376e-06)
(0.159475 -6.34358e-07 3.19498e-06)
(0.159474 3.20802e-07 3.11862e-06)
(0.159477 -1.22505e-06 4.29799e-06)
(0.159475 8.85172e-08 2.71526e-07)
(0.159474 -5.47747e-07 3.07143e-06)
(0.159473 -7.47187e-07 -1.5532e-06)
(0.159469 -3.73182e-08 -1.05029e-06)
(0.159467 -8.6752e-07 -3.37255e-06)
(0.159462 -7.8262e-08 -5.9346e-06)
(0.159459 -6.73569e-07 -6.32891e-06)
(0.159452 -1.62961e-07 -9.75856e-06)
(0.159449 -3.56465e-07 -1.06484e-05)
(0.159443 -4.66409e-07 -1.16789e-05)
(0.159436 2.94721e-07 -1.44613e-05)
(0.159433 -7.86117e-07 -1.33672e-05)
(0.159426 4.90542e-07 -1.5148e-05)
(0.159423 -2.64645e-07 -1.54648e-05)
(0.159418 -6.34244e-08 -1.29368e-05)
(0.159415 4.68371e-07 -1.56243e-05)
(0.15941 -1.758e-07 -1.17959e-05)
(0.15941 4.05973e-07 -1.13365e-05)
(0.159406 2.05499e-07 -1.19522e-05)
(0.159407 4.37478e-07 -5.84299e-06)
(0.159406 5.0025e-08 -1.02372e-05)
(0.159408 6.46437e-07 -2.97272e-06)
(0.159407 3.29902e-07 -5.50474e-06)
(0.159415 -1.991e-08 -2.887e-06)
(0.159411 1.036e-06 -3.59911e-07)
(0.211365 -4.03497e-07 -3.07471e-06)
(0.211362 8.6122e-07 7.61924e-07)
(0.211374 9.57909e-07 3.95816e-07)
(0.211378 -8.01524e-07 6.05805e-07)
(0.211388 1.40168e-06 3.79684e-06)
(0.211392 -5.68874e-07 7.20766e-07)
(0.211404 3.96327e-08 4.62261e-06)
(0.211407 2.41394e-07 3.22984e-06)
(0.211415 -5.18525e-07 3.72323e-06)
(0.211422 -4.80622e-07 5.4283e-06)
(0.211425 -3.84043e-08 3.54026e-06)
(0.211431 -7.96566e-07 6.25721e-06)
(0.211434 -1.02702e-06 4.29729e-06)
(0.211435 2.94823e-07 4.51756e-06)
(0.211439 -1.978e-06 5.69288e-06)
(0.211437 1.52911e-08 1.38724e-06)
(0.211437 -1.03592e-06 4.48525e-06)
(0.211435 -1.23072e-06 -7.95114e-07)
(0.211431 -2.32553e-07 -1.56544e-07)
(0.211429 -1.44277e-06 -3.19879e-06)
(0.211422 -2.49574e-07 -6.00044e-06)
(0.211419 -1.14593e-06 -6.9444e-06)
(0.21141 -3.41183e-07 -1.09868e-05)
(0.211406 -6.54448e-07 -1.23966e-05)
(0.211397 -7.37601e-07 -1.39283e-05)
(0.21139 3.47262e-07 -1.73531e-05)
(0.211385 -1.20058e-06 -1.64823e-05)
(0.211375 7.36772e-07 -1.89112e-05)
(0.211371 -4.42416e-07 -1.92753e-05)
(0.211363 -1.35432e-08 -1.68818e-05)
(0.21136 6.9716e-07 -1.98441e-05)
(0.211352 -1.99142e-07 -1.56415e-05)
(0.211352 6.91072e-07 -1.51996e-05)
(0.211346 3.8208e-07 -1.5608e-05)
(0.211347 7.36555e-07 -8.88015e-06)
(0.211345 1.87233e-07 -1.34249e-05)
(0.211348 1.07381e-06 -5.04391e-06)
(0.211345 5.60786e-07 -7.94375e-06)
(0.211355 1.28095e-07 -4.29355e-06)
(0.21135 1.60976e-06 -1.73186e-06)
(0.266333 -4.7839e-07 -4.76064e-06)
(0.266329 1.3665e-06 -6.18328e-07)
(0.266344 1.33183e-06 -6.01178e-07)
(0.266347 -9.97001e-07 -2.46295e-07)
(0.26636 1.99237e-06 3.54978e-06)
(0.266366 -8.26304e-07 1.72421e-07)
(0.266379 1.11455e-07 4.76632e-06)
(0.266384 2.59201e-07 3.23777e-06)
(0.266395 -7.85982e-07 4.12037e-06)
(0.266404 -7.27594e-07 5.87349e-06)
(0.266408 -1.8548e-07 4.22266e-06)
(0.266418 -1.26913e-06 7.25764e-06)
(0.26642 -1.52702e-06 5.3079e-06)
(0.266425 1.8168e-07 5.84196e-06)
(0.266428 -2.92512e-06 7.31971e-06)
(0.266428 -1.3913e-07 2.80619e-06)
(0.266429 -1.70527e-06 6.37084e-06)
(0.266427 -1.86754e-06 7.5798e-07)
(0.266424 -5.4996e-07 1.55663e-06)
(0.26642 -2.20249e-06 -1.86693e-06)
(0.266413 -5.24933e-07 -4.90904e-06)
(0.266409 -1.78512e-06 -6.21105e-06)
(0.266399 -6.12349e-07 -1.07879e-05)
(0.266394 -1.07872e-06 -1.28222e-05)
(0.266383 -1.10415e-06 -1.4787e-05)
(0.266374 3.53844e-07 -1.90386e-05)
(0.266368 -1.72828e-06 -1.84789e-05)
(0.266355 1.00377e-06 -2.17604e-05)
(0.266351 -6.87029e-07 -2.2447e-05)
(0.266338 5.18589e-08 -2.03167e-05)
(0.266336 9.48578e-07 -2.38354e-05)
(0.266324 -2.14703e-07 -1.95636e-05)
(0.266324 1.04506e-06 -1.91712e-05)
(0.266315 6.0602e-07 -1.97413e-05)
(0.266316 1.11977e-06 -1.24534e-05)
(0.266311 3.8156e-07 -1.72688e-05)
(0.266315 1.61628e-06 -7.94256e-06)
(0.266311 8.69305e-07 -1.10724e-05)
(0.266322 3.50212e-07 -6.6646e-06)
(0.266315 2.33116e-06 -3.84747e-06)
(0.324333 -5.50042e-07 -7.52209e-06)
(0.324326 2.01907e-06 -2.97099e-06)
(0.324346 1.79262e-06 -2.53818e-06)
(0.324347 -1.17878e-06 -2.12674e-06)
(0.324363 2.72537e-06 2.5864e-06)
(0.324369 -1.10261e-06 -1.26074e-06)
(0.324384 2.35069e-07 4.11839e-06)
(0.324393 2.99345e-07 2.57974e-06)
(0.324404 -1.08829e-06 3.77745e-06)
(0.324417 -1.00143e-06 5.73234e-06)
(0.324421 -3.68392e-07 4.23548e-06)
(0.324437 -1.84196e-06 7.8134e-06)
(0.324438 -2.11573e-06 5.89204e-06)
(0.324447 -1.21787e-08 6.80122e-06)
(0.324451 -4.06032e-06 8.93748e-06)
(0.324452 -3.70989e-07 4.25805e-06)
(0.324455 -2.5596e-06 8.56435e-06)
(0.324453 -2.6672e-06 2.93071e-06)
(0.324451 -9.97498e-07 4.04768e-06)
(0.324447 -3.16781e-06 6.5829e-07)
(0.324441 -9.19541e-07 -2.55809e-06)
(0.324437 -2.6213e-06 -3.89044e-06)
(0.324425 -9.99309e-07 -8.85054e-06)
(0.32442 -1.66187e-06 -1.14877e-05)
(0.324407 -1.59933e-06 -1.37699e-05)
(0.324397 2.8656e-07 -1.90038e-05)
(0.324389 -2.41492e-06 -1.87228e-05)
(0.324373 1.26782e-06 -2.31132e-05)
(0.324369 -1.0418e-06 -2.44294e-05)
(0.324351 9.93468e-08 -2.26312e-05)
(0.32435 1.19423e-06 -2.71599e-05)
(0.324333 -2.60622e-07 -2.31016e-05)
(0.324333 1.44686e-06 -2.29389e-05)
(0.32432 8.48415e-07 -2.4102e-05)
(0.324321 1.56839e-06 -1.63475e-05)
(0.324313 6.12188e-07 -2.18038e-05)
(0.324317 2.26473e-06 -1.15916e-05)
(0.32431 1.24737e-06 -1.50259e-05)
(0.324322 6.32578e-07 -1.0139e-05)
(0.324313 3.21762e-06 -6.88863e-06)
(0.385312 -6.43631e-07 -1.14675e-05)
(0.385302 2.82671e-06 -6.40246e-06)
(0.385325 2.35266e-06 -5.61906e-06)
(0.385323 -1.3434e-06 -5.29537e-06)
(0.385342 3.63915e-06 6.54276e-07)
(0.385349 -1.37872e-06 -3.80452e-06)
(0.385364 4.45404e-07 2.37202e-06)
(0.385377 4.01471e-07 9.69605e-07)
(0.385388 -1.39164e-06 2.41074e-06)
(0.385406 -1.25342e-06 4.71693e-06)
(0.385409 -5.43648e-07 3.18181e-06)
(0.385432 -2.48045e-06 7.61702e-06)
(0.38543 -2.74068e-06 5.62781e-06)
(0.385447 -2.59199e-07 6.97009e-06)
(0.38545 -5.35118e-06 1.00588e-05)
(0.385454 -6.47947e-07 5.30192e-06)
(0.385461 -3.58381e-06 1.05948e-05)
(0.385458 -3.6138e-06 5.24472e-06)
(0.385461 -1.56659e-06 6.95071e-06)
(0.385456 -4.34416e-06 4.02603e-06)
(0.385451 -1.43522e-06 8.69787e-07)
(0.385447 -3.67203e-06 -1.26155e-07)
(0.385434 -1.5184e-06 -5.13637e-06)
(0.385431 -2.43472e-06 -8.18343e-06)
(0.385415 -2.25681e-06 -1.0562e-05)
(0.385405 1.12518e-07 -1.68244e-05)
(0.385396 -3.31687e-06 -1.6621e-05)
(0.385376 1.49785e-06 -2.22713e-05)
(0.385373 -1.56996e-06 -2.45477e-05)
(0.385349 8.28349e-08 -2.30192e-05)
(0.385349 1.38797e-06 -2.90664e-05)
(0.385327 -4.00994e-07 -2.5492e-05)
(0.385328 1.8563e-06 -2.58676e-05)
(0.385309 1.05727e-06 -2.80586e-05)
(0.385311 2.03736e-06 -2.00143e-05)
(0.385297 8.3776e-07 -2.66979e-05)
(0.385302 2.98615e-06 -1.56391e-05)
(0.385291 1.66566e-06 -1.96684e-05)
(0.385303 9.44859e-07 -1.45736e-05)
(0.385291 4.26983e-06 -1.09044e-05)
(0.449138 -8.05555e-07 -1.63761e-05)
(0.449124 3.76978e-06 -1.07604e-05)
(0.449149 3.00721e-06 -9.78483e-06)
(0.449143 -1.50509e-06 -9.79077e-06)
(0.449164 4.76074e-06 -2.44829e-06)
(0.449172 -1.64296e-06 -7.48973e-06)
(0.449185 7.86826e-07 -7.01748e-07)
(0.449204 6.10034e-07 -1.84464e-06)
(0.449211 -1.64945e-06 -1.82291e-07)
(0.449237 -1.42048e-06 2.57631e-06)
(0.449236 -6.44507e-07 6.91349e-07)
(0.449269 -3.13594e-06 6.34381e-06)
(0.449263 -3.30901e-06 4.06388e-06)
(0.449288 -5.07648e-07 5.9032e-06)
(0.449291 -6.73317e-06 1.00059e-05)
(0.449298 -8.9587e-07 5.3412e-06)
(0.44931 -4.73837e-06 1.17577e-05)
(0.449306 -4.64836e-06 6.86466e-06)
(0.449315 -2.2228e-06 9.55946e-06)
(0.449309 -5.69968e-06 7.37189e-06)
(0.449307 -2.0471e-06 4.76537e-06)
(0.449305 -4.93091e-06 4.41376e-06)
(0.449292 -2.16602e-06 -1.56718e-07)
(0.44929 -3.41168e-06 -3.16842e-06)
(0.449274 -3.09601e-06 -5.27922e-06)
(0.449263 -1.91937e-07 -1.244e-05)
(0.449254 -4.48876e-06 -1.19126e-05)
(0.449231 1.66455e-06 -1.86537e-05)
(0.449231 -2.34295e-06 -2.22045e-05)
(0.449199 -5.61811e-08 -2.066e-05)
(0.449202 1.47277e-06 -2.86307e-05)
(0.449173 -7.20298e-07 -2.57021e-05)
(0.449175 2.2098e-06 -2.70176e-05)
(0.44915 1.16149e-06 -3.05983e-05)
(0.449152 2.44945e-06 -2.24478e-05)
(0.449132 9.92771e-07 -3.11597e-05)
(0.449137 3.7172e-06 -1.9269e-05)
(0.449121 2.06511e-06 -2.44579e-05)
(0.449133 1.22846e-06 -1.93558e-05)
(0.449117 5.45698e-06 -1.55759e-05)
(0.515571 -1.1078e-06 -2.15556e-05)
(0.515554 4.77955e-06 -1.5332e-05)
(0.515578 3.71778e-06 -1.4599e-05)
(0.515568 -1.71499e-06 -1.50765e-05)
(0.515589 6.07848e-06 -6.69378e-06)
(0.515597 -1.90739e-06 -1.20481e-05)
(0.515605 1.28301e-06 -4.93022e-06)
(0.515631 9.54586e-07 -6.01241e-06)
(0.515631 -1.81366e-06 -3.95049e-06)
(0.515668 -1.44873e-06 -7.18322e-07)
(0.515658 -5.83233e-07 -3.48222e-06)
(0.515704 -3.7609e-06 3.90028e-06)
(0.515691 -3.69642e-06 7.79535e-07)
(0.515726 -6.87311e-07 3.37994e-06)
(0.515731 -8.11692e-06 8.14578e-06)
(0.515738 -9.93096e-07 3.68676e-06)
(0.515759 -5.96081e-06 1.1429e-05)
(0.515752 -5.65551e-06 6.64093e-06)
(0.51577 -2.89775e-06 1.10254e-05)
(0.515763 -7.1521e-06 9.36803e-06)
(0.515766 -2.69106e-06 8.01326e-06)
(0.515766 -6.34271e-06 8.5975e-06)
(0.515754 -2.89913e-06 4.79028e-06)
(0.515756 -4.56907e-06 2.6217e-06)
(0.515739 -4.10143e-06 1.23565e-06)
(0.51573 -6.23369e-07 -6.47995e-06)
(0.515722 -5.95885e-06 -5.06867e-06)
(0.515695 1.75591e-06 -1.2258e-05)
(0.5157 -3.41259e-06 -1.72344e-05)
(0.51566 -3.71618e-07 -1.5119e-05)
(0.515668 1.39349e-06 -2.51872e-05)
(0.51563 -1.29902e-06 -2.26747e-05)
(0.515635 2.4215e-06 -2.53914e-05)
(0.515602 1.08776e-06 -3.05506e-05)
(0.515606 2.70046e-06 -2.22311e-05)
(0.51558 9.88716e-07 -3.40518e-05)
(0.515584 4.36845e-06 -2.10445e-05)
(0.515563 2.35219e-06 -2.8427e-05)
(0.515572 1.39482e-06 -2.32732e-05)
(0.515553 6.70322e-06 -1.99473e-05)
(0.584233 -1.63036e-06 -2.59396e-05)
(0.584211 5.72468e-06 -1.84671e-05)
(0.584235 4.40714e-06 -1.92686e-05)
(0.584219 -2.06205e-06 -1.97452e-05)
(0.584237 7.51397e-06 -1.13668e-05)
(0.584247 -2.22274e-06 -1.70023e-05)
(0.584244 1.90701e-06 -9.21505e-06)
(0.584281 1.38509e-06 -1.13971e-05)
(0.584267 -1.85587e-06 -8.46224e-06)
(0.584317 -1.3303e-06 -4.55978e-06)
(0.584295 -2.81703e-07 -9.45171e-06)
(0.584355 -4.33253e-06 8.71369e-07)
(0.584334 -3.78343e-06 -4.46998e-06)
(0.584375 -7.22524e-07 -4.20084e-07)
(0.584385 -9.41588e-06 4.47421e-06)
(0.58439 -7.86706e-07 -4.09207e-07)
(0.584423 -7.18139e-06 9.6548e-06)
(0.584411 -6.47223e-06 3.36467e-06)
(0.58444 -3.49029e-06 1.0715e-05)
(0.584432 -8.56877e-06 8.75091e-06)
(0.584442 -3.26218e-06 9.0112e-06)
(0.584445 -7.78386e-06 1.12744e-05)
(0.584435 -3.62315e-06 7.70087e-06)
(0.584441 -5.82564e-06 7.5718e-06)
(0.584426 -5.19398e-06 7.32876e-06)
(0.584418 -1.12556e-06 -4.95094e-07)
(0.584415 -7.68719e-06 2.46175e-06)
(0.584384 1.79513e-06 -4.22131e-06)
(0.584396 -4.77063e-06 -1.03919e-05)
(0.584347 -8.81275e-07 -6.81237e-06)
(0.584365 1.11787e-06 -1.90874e-05)
(0.584316 -2.16128e-06 -1.58888e-05)
(0.584328 2.40096e-06 -2.04433e-05)
(0.584286 7.8983e-07 -2.72435e-05)
(0.584293 2.69128e-06 -1.78307e-05)
(0.584259 7.25711e-07 -3.44721e-05)
(0.584263 4.84815e-06 -1.90198e-05)
(0.584237 2.40849e-06 -3.035e-05)
(0.584241 1.34042e-06 -2.47633e-05)
(0.584221 7.87826e-06 -2.22124e-05)
(0.654561 -2.42868e-06 -2.88179e-05)
(0.654535 6.42757e-06 -1.75034e-05)
(0.654558 4.95787e-06 -2.26727e-05)
(0.654534 -2.6387e-06 -2.20488e-05)
(0.654545 8.90113e-06 -1.41734e-05)
(0.654561 -2.69144e-06 -2.20938e-05)
(0.654539 2.5931e-06 -1.1256e-05)
(0.654591 1.75863e-06 -1.69779e-05)
(0.654555 -1.79399e-06 -1.32304e-05)
(0.654622 -1.14393e-06 -6.92292e-06)
(0.654582 2.58602e-07 -1.73185e-05)
(0.654654 -4.87148e-06 -1.16008e-06)
(0.654628 -3.51644e-06 -1.11302e-05)
(0.654669 -5.66412e-07 -5.27006e-06)
(0.654689 -1.05939e-05 6.20339e-07)
(0.654683 -1.22249e-07 -7.75949e-06)
(0.654733 -8.34495e-06 7.71109e-06)
(0.654713 -6.93104e-06 -3.48101e-06)
(0.654755 -3.89824e-06 8.32093e-06)
(0.654746 -9.77782e-06 5.57242e-06)
(0.654762 -3.64297e-06 5.89885e-06)
(0.65477 -9.07779e-06 1.2024e-05)
(0.654763 -4.19676e-06 6.6477e-06)
(0.654775 -7.04237e-06 9.74244e-06)
(0.654763 -6.217e-06 1.11074e-05)
(0.654758 -1.59252e-06 3.12954e-06)
(0.654761 -9.52441e-06 8.55442e-06)
(0.654726 1.857e-06 3.07515e-06)
(0.654751 -6.32106e-06 -3.84467e-06)
(0.654691 -1.50576e-06 2.8781e-06)
(0.654723 6.45752e-07 -1.24205e-05)
(0.654663 -3.21947e-06 -6.20948e-06)
(0.654684 2.09652e-06 -1.25572e-05)
(0.654633 2.81736e-07 -2.17293e-05)
(0.654644 2.39395e-06 -8.05508e-06)
(0.654605 1.2735e-07 -3.2839e-05)
(0.654606 5.10954e-06 -1.15825e-05)
(0.654581 2.12443e-06 -2.89954e-05)
(0.654575 9.98367e-07 -2.3023e-05)
(0.654557 8.80726e-06 -1.96924e-05)
(0.725755 -3.47315e-06 -3.09386e-05)
(0.725723 6.7484e-06 -1.02755e-05)
(0.725746 5.20363e-06 -2.26726e-05)
(0.725715 -3.47727e-06 -2.21748e-05)
(0.725715 1.00188e-05 -1.06435e-05)
(0.725742 -3.46575e-06 -2.74431e-05)
(0.725691 3.28529e-06 -8.89989e-06)
(0.725765 1.84372e-06 -1.94438e-05)
(0.725699 -1.71899e-06 -1.89246e-05)
(0.725783 -1.0067e-06 -3.79521e-06)
(0.725724 9.00447e-07 -2.67699e-05)
(0.725801 -5.44793e-06 -6.0478e-07)
(0.725775 -2.94038e-06 -1.62072e-05)
(0.725805 -2.55227e-07 -1.20141e-05)
(0.725841 -1.16757e-05 6.25587e-07)
(0.725818 1.05184e-06 -1.87559e-05)
(0.725886 -9.44994e-06 7.59072e-06)
(0.725854 -6.91508e-06 -1.20441e-05)
(0.725909 -4.09178e-06 3.20641e-06)
(0.725898 -1.06094e-05 2.64113e-06)
(0.72592 -3.78314e-06 -2.58565e-06)
(0.725933 -1.00369e-05 1.15272e-05)
(0.725929 -4.47603e-06 1.48536e-06)
(0.725949 -8.0698e-06 7.45395e-06)
(0.72594 -6.945e-06 1.19199e-05)
(0.725939 -1.92353e-06 2.00589e-06)
(0.725952 -1.12214e-05 1.1233e-05)
(0.725911 2.08247e-06 7.3218e-06)
(0.725956 -7.9155e-06 -1.24265e-06)
(0.72588 -1.99372e-06 1.22011e-05)
(0.725934 -1.72159e-08 -8.60814e-06)
(0.72586 -4.24082e-06 3.18029e-06)
(0.725894 1.5861e-06 -2.61749e-06)
(0.725839 -3.7384e-07 -1.81822e-05)
(0.72585 1.90333e-06 7.41618e-06)
(0.725814 -8.06686e-07 -3.1496e-05)
(0.725807 5.21553e-06 3.93118e-07)
(0.725791 1.43914e-06 -2.29471e-05)
(0.72577 4.32681e-07 -2.0211e-05)
(0.72576 9.30993e-06 -9.24917e-06)
(0.796705 -4.61056e-06 -3.34418e-05)
(0.796666 6.76027e-06 1.22985e-07)
(0.796691 4.97252e-06 -1.44699e-05)
(0.796658 -4.4616e-06 -2.48059e-05)
(0.796638 1.07355e-05 3.22537e-06)
(0.796687 -4.73651e-06 -3.1476e-05)
(0.796596 3.99345e-06 -4.53954e-06)
(0.796698 1.40614e-06 -1.19548e-05)
(0.7966 -1.85339e-06 -2.82124e-05)
(0.796694 -9.4608e-07 8.43656e-06)
(0.796626 1.37656e-06 -3.45604e-05)
(0.79669 -6.18839e-06 6.5719e-07)
(0.796676 -2.15016e-06 -1.2618e-05)
(0.796681 -4.41737e-08 -2.30425e-05)
(0.796737 -1.26833e-05 9.21512e-06)
(0.796691 2.60606e-06 -3.10472e-05)
(0.796776 -1.06106e-05 9.17532e-06)
(0.796732 -6.38315e-06 -1.60637e-05)
(0.796795 -4.21384e-06 -6.26512e-06)
(0.796783 -1.09385e-05 4.9791e-06)
(0.796808 -3.76054e-06 -1.49244e-05)
(0.796826 -1.0532e-05 1.0483e-05)
(0.796823 -4.39746e-06 -4.09917e-06)
(0.796849 -8.88654e-06 -7.29551e-08)
(0.796845 -7.12967e-06 1.15964e-05)
(0.796846 -2.11245e-06 -4.01561e-06)
(0.796874 -1.25448e-05 9.12425e-06)
(0.796821 2.66668e-06 9.11295e-06)
(0.796894 -9.48619e-06 -6.30379e-06)
(0.796799 -1.97856e-06 1.97222e-05)
(0.796878 -7.67391e-07 -9.35099e-06)
(0.796796 -4.95222e-06 6.16697e-06)
(0.796838 1.10822e-06 1.00026e-05)
(0.796788 -1.0194e-06 -2.34418e-05)
(0.796795 1.4616e-06 2.67824e-05)
(0.796772 -1.93978e-06 -3.23476e-05)
(0.796751 5.39657e-06 1.02551e-05)
(0.796753 3.62718e-07 -9.45294e-06)
(0.796714 -5.69499e-08 -2.30992e-05)
(0.796716 9.27419e-06 1.05625e-05)
(0.865911 -5.68513e-06 -3.17297e-05)
(0.865866 6.88585e-06 7.55014e-07)
(0.865891 4.18874e-06 7.63835e-06)
(0.865869 -5.38495e-06 -3.50118e-05)
(0.865817 1.12252e-05 2.19041e-05)
(0.865903 -6.58197e-06 -2.63769e-05)
(0.865767 4.69943e-06 -8.76027e-06)
(0.865894 6.56231e-07 1.1657e-05)
(0.865777 -2.57038e-06 -4.1471e-05)
(0.86586 -8.01056e-07 2.47452e-05)
(0.865804 1.49242e-06 -3.09534e-05)
(0.865836 -7.41485e-06 -5.48495e-06)
(0.865844 -1.00273e-06 7.2915e-06)
(0.865817 -3.69877e-07 -3.843e-05)
(0.865889 -1.36163e-05 2.49381e-05)
(0.865821 4.3559e-06 -3.58777e-05)
(0.865916 -1.20554e-05 7.0166e-06)
(0.865859 -5.33612e-06 -6.574e-06)
(0.865926 -4.60392e-06 -2.02981e-05)
(0.865911 -1.06797e-05 1.47215e-05)
(0.865935 -3.8508e-06 -2.40393e-05)
(0.865957 -1.05579e-05 7.57794e-06)
(0.865953 -3.99444e-06 -3.00853e-06)
(0.865984 -9.67488e-06 -1.11654e-05)
(0.865985 -6.6209e-06 1.2661e-05)
(0.865982 -2.26153e-06 -9.75707e-06)
(0.866032 -1.34352e-05 1.26869e-06)
(0.865958 3.76337e-06 1.31491e-05)
(0.866066 -1.10679e-05 -1.85404e-05)
(0.865951 -1.28798e-06 2.31183e-05)
(0.866051 -1.41846e-06 -9.28254e-06)
(0.865971 -5.24279e-06 -5.00494e-06)
(0.866011 9.00642e-07 2.84108e-05)
(0.865981 -1.46537e-06 -4.06473e-05)
(0.865973 1.3649e-06 4.26186e-05)
(0.865976 -3.07569e-06 -3.02304e-05)
(0.865935 6.08778e-06 4.6445e-06)
(0.865964 -1.09492e-06 1.53473e-05)
(0.865907 4.15999e-08 -3.81719e-05)
(0.86592 8.81994e-06 3.30642e-05)
(0.931384 -6.60586e-06 -1.30963e-05)
(0.93134 7.55455e-06 -2.06598e-05)
(0.931355 3.20756e-06 3.733e-05)
(0.931364 -6.03531e-06 -4.3715e-05)
(0.93127 1.17312e-05 2.39516e-05)
(0.931397 -8.39528e-06 -1.40335e-06)
(0.931232 5.06897e-06 -2.98791e-05)
(0.931362 2.81843e-07 4.22504e-05)
(0.931259 -3.9658e-06 -4.69806e-05)
(0.931304 -6.44133e-07 2.5984e-05)
(0.931281 1.80993e-06 -5.31564e-06)
(0.931272 -9.67037e-06 -2.54076e-05)
(0.931301 9.5071e-07 3.82947e-05)
(0.931248 -1.51782e-06 -4.8001e-05)
(0.931327 -1.44374e-05 3.35322e-05)
(0.931243 6.22677e-06 -2.12903e-05)
(0.931338 -1.40587e-05 -5.2901e-06)
(0.931273 -3.63013e-06 1.73837e-05)
(0.931336 -5.72491e-06 -3.16273e-05)
(0.931317 -9.65512e-06 2.47477e-05)
(0.931338 -4.43331e-06 -1.9571e-05)
(0.931359 -1.03191e-05 8.8359e-07)
(0.931353 -3.25796e-06 8.58257e-06)
(0.931382 -1.08358e-05 -1.8957e-05)
(0.931393 -5.43115e-06 1.37876e-05)
(0.931373 -2.55355e-06 -5.84401e-06)
(0.931453 -1.40617e-05 -1.10329e-05)
(0.931352 5.25091e-06 2.25376e-05)
(0.931489 -1.2656e-05 -2.74185e-05)
(0.931366 -1.50824e-07 1.63938e-05)
(0.931467 -1.96009e-06 4.20296e-06)
(0.93141 -5.13485e-06 -3.18809e-05)
(0.931429 9.13631e-07 5.09935e-05)
(0.931434 -1.66098e-06 -5.67004e-05)
(0.931402 1.78682e-06 3.90739e-05)
(0.931439 -4.30373e-06 -1.07453e-05)
(0.931375 7.71077e-06 -2.53208e-05)
(0.93143 -2.88803e-06 4.72532e-05)
(0.931367 9.57708e-07 -5.57907e-05)
(0.931383 8.41033e-06 3.77257e-05)
(0.99054 -7.11818e-06 2.12706e-05)
(0.990516 8.7114e-06 -4.69291e-05)
(0.990505 2.26941e-06 4.65394e-05)
(0.990555 -5.65726e-06 -2.78506e-05)
(0.990434 1.17265e-05 -4.20201e-06)
(0.990575 -8.93281e-06 3.39278e-05)
(0.990426 4.92931e-06 -5.03552e-05)
(0.990521 4.93686e-07 4.99305e-05)
(0.990465 -4.99739e-06 -2.66479e-05)
(0.990464 -1.16128e-06 -3.90538e-07)
(0.990474 3.31334e-06 3.21914e-05)
(0.990439 -1.32036e-05 -4.60831e-05)
(0.990476 3.92003e-06 5.4358e-05)
(0.990413 -3.2914e-06 -3.55508e-05)
(0.990486 -1.51464e-05 2.03833e-05)
(0.990399 8.41671e-06 9.51187e-06)
(0.990485 -1.68173e-05 -2.18201e-05)
(0.990415 -8.70767e-07 3.86232e-05)
(0.990472 -7.97603e-06 -2.79567e-05)
(0.990447 -7.63802e-06 2.42184e-05)
(0.990463 -5.46247e-06 -8.91065e-07)
(0.990478 -1.01788e-05 -6.32116e-06)
(0.990474 -1.96492e-06 2.29764e-05)
(0.990488 -1.26969e-05 -1.40327e-05)
(0.990517 -3.62649e-06 1.09622e-05)
(0.99047 -3.31871e-06 1.00451e-05)
(0.990574 -1.44503e-05 -1.91482e-05)
(0.99046 6.62158e-06 2.89669e-05)
(0.990595 -1.42862e-05 -1.55949e-05)
(0.990494 1.18864e-06 -4.18538e-06)
(0.990566 -2.84299e-06 3.32306e-05)
(0.99055 -4.64087e-06 -5.53765e-05)
(0.990534 8.12787e-07 5.96682e-05)
(0.99058 -1.93364e-06 -4.34101e-05)
(0.99052 2.72364e-06 6.55363e-06)
(0.990586 -5.93286e-06 2.82212e-05)
(0.990513 9.99443e-06 -5.92944e-05)
(0.990577 -4.88136e-06 6.18522e-05)
(0.990522 2.41096e-06 -4.68743e-05)
(0.990537 8.15794e-06 9.88592e-06)
(1.04014 -7.98877e-06 3.92967e-05)
(1.04015 1.08224e-05 -4.16554e-05)
(1.04012 1.14652e-07 2.22271e-05)
(1.04018 -3.69443e-06 6.86199e-06)
(1.04008 1.08291e-05 -3.09634e-05)
(1.04018 -8.61742e-06 4.56888e-05)
(1.04009 5.28835e-06 -4.10763e-05)
(1.04014 2.39093e-07 2.35596e-05)
(1.04013 -4.46184e-06 8.94799e-06)
(1.0401 -2.79696e-06 -2.82413e-05)
(1.04012 6.34359e-06 4.91152e-05)
(1.04009 -1.72796e-05 -4.38847e-05)
(1.04012 7.46536e-06 3.8399e-05)
(1.04007 -4.96952e-06 -6.58362e-06)
(1.04012 -1.59307e-05 -2.04763e-06)
(1.04005 1.1327e-05 3.15673e-05)
(1.04012 -2.04203e-05 -2.70562e-05)
(1.04005 3.15213e-06 3.87619e-05)
(1.0401 -1.11479e-05 -1.12334e-05)
(1.04007 -4.91595e-06 1.51746e-05)
(1.04008 -6.18429e-06 1.66976e-05)
(1.04008 -1.06383e-05 -7.95655e-06)
(1.04009 3.60889e-07 2.6944e-05)
(1.04008 -1.53774e-05 1.16777e-06)
(1.04012 -1.05927e-06 7.54597e-06)
(1.04006 -4.55726e-06 2.32597e-05)
(1.04016 -1.45251e-05 -1.13069e-05)
(1.04007 7.82795e-06 2.036e-05)
(1.04016 -1.62513e-05 1.39787e-05)
(1.0401 2.96897e-06 -2.08653e-05)
(1.04013 -4.50958e-06 5.1212e-05)
(1.04016 -3.71634e-06 -4.56828e-05)
(1.04011 3.2489e-07 3.85308e-05)
(1.04018 -2.6109e-06 -5.86971e-07)
(1.04011 3.90884e-06 -2.63162e-05)
(1.04018 -8.26469e-06 5.39893e-05)
(1.04012 1.25432e-05 -5.74693e-05)
(1.04017 -7.49527e-06 4.16098e-05)
(1.04013 3.98121e-06 -9.4559e-06)
(1.04015 7.74054e-06 -2.00772e-05)
(1.07631 -9.81175e-06 3.20405e-05)
(1.07632 1.2991e-05 -1.4947e-05)
(1.07631 -2.81598e-06 9.52662e-07)
(1.07633 -1.70782e-06 2.19854e-05)
(1.07629 9.35179e-06 -2.62707e-05)
(1.07634 -8.53782e-06 3.30724e-05)
(1.0763 5.92782e-06 -1.48512e-05)
(1.07632 -1.0978e-06 -2.53441e-07)
(1.07632 -2.85257e-06 2.45275e-05)
(1.0763 -5.3271e-06 -2.89761e-05)
(1.07632 9.75058e-06 4.08454e-05)
(1.0763 -2.07587e-05 -2.34535e-05)
(1.07632 1.03186e-05 1.47248e-05)
(1.07629 -5.87605e-06 1.0852e-05)
(1.07633 -1.68856e-05 -1.11252e-05)
(1.07627 1.45129e-05 3.3839e-05)
(1.07632 -2.40337e-05 -1.86236e-05)
(1.07627 7.39791e-06 2.5538e-05)
(1.07631 -1.39189e-05 7.78431e-07)
(1.07627 -2.83645e-06 7.43301e-06)
(1.07629 -5.58548e-06 2.28429e-05)
(1.07628 -1.19432e-05 -4.47443e-06)
(1.07629 3.42918e-06 2.11561e-05)
(1.07627 -1.79244e-05 8.15302e-06)
(1.0763 1.27251e-06 8.82482e-06)
(1.07627 -5.17258e-06 2.28371e-05)
(1.07631 -1.46748e-05 3.92347e-06)
(1.07627 9.24344e-06 8.69537e-06)
(1.07631 -1.82831e-05 2.64835e-05)
(1.0763 5.09993e-06 -1.444e-05)
(1.07629 -6.59183e-06 4.23841e-05)
(1.07633 -2.56247e-06 -1.51419e-05)
(1.07628 -6.6038e-08 1.37218e-05)
(1.07634 -4.06853e-06 2.43353e-05)
(1.07629 5.61894e-06 -2.61652e-05)
(1.07633 -1.1119e-05 4.89247e-05)
(1.0763 1.45926e-05 -2.82132e-05)
(1.07634 -9.64077e-06 1.78093e-05)
(1.0763 4.255e-06 1.26981e-05)
(1.07634 7.76183e-06 -1.84638e-05)
(1.0952 -1.07945e-05 2.20444e-05)
(1.09519 1.38624e-05 -1.77736e-06)
(1.09522 -5.49508e-06 -9.4189e-07)
(1.09519 2.99345e-07 2.02805e-05)
(1.09519 6.77765e-06 -1.6274e-05)
(1.09522 -7.85786e-06 2.27737e-05)
(1.09518 5.90469e-06 -2.4613e-06)
(1.0952 -2.8583e-06 -2.45002e-06)
(1.09521 -9.18807e-07 2.26115e-05)
(1.09519 -8.00651e-06 -2.06009e-05)
(1.09521 1.19643e-05 3.0108e-05)
(1.0952 -2.2724e-05 -9.77659e-06)
(1.0952 1.13767e-05 7.33651e-06)
(1.0952 -6.13322e-06 1.37419e-05)
(1.09521 -1.75405e-05 -1.03719e-05)
(1.09518 1.62243e-05 2.69407e-05)
(1.09521 -2.59236e-05 -9.77831e-06)
(1.09518 9.89454e-06 1.75433e-05)
(1.09521 -1.52553e-05 4.46223e-06)
(1.09518 -2.06722e-06 2.68243e-06)
(1.0952 -4.30099e-06 2.03477e-05)
(1.09519 -1.31796e-05 -2.36003e-06)
(1.09519 5.64154e-06 1.67679e-05)
(1.09519 -1.89036e-05 6.63099e-06)
(1.09519 2.3117e-06 7.0304e-06)
(1.09519 -4.97785e-06 1.68617e-05)
(1.09519 -1.44861e-05 7.0867e-06)
(1.09518 1.00526e-05 6.61353e-06)
(1.0952 -1.91257e-05 1.99902e-05)
(1.09519 6.74527e-06 -6.5793e-06)
(1.09518 -7.97637e-06 2.79013e-05)
(1.09521 -1.79271e-06 -2.08123e-06)
(1.09518 3.72735e-07 7.47867e-06)
(1.0952 -5.82661e-06 2.20677e-05)
(1.0952 7.23866e-06 -1.69162e-05)
(1.0952 -1.27528e-05 3.52657e-05)
(1.09519 1.4874e-05 -1.21953e-05)
(1.09522 -1.00279e-05 1.17076e-05)
(1.09518 3.58819e-06 1.31988e-05)
(1.09522 7.51094e-06 -9.98819e-06)
(1.10029 -1.06241e-05 1.5234e-05)
(1.10027 1.41551e-05 -3.80903e-07)
(1.10031 -7.60684e-06 -2.11585e-06)
(1.10027 2.89905e-06 1.78394e-05)
(1.10028 3.77246e-06 -1.40888e-05)
(1.1003 -5.9973e-06 1.81504e-05)
(1.10027 5.3611e-06 -2.12274e-06)
(1.10029 -3.93349e-06 -1.44453e-06)
(1.10029 1.15649e-06 1.931e-05)
(1.10028 -9.49637e-06 -1.74638e-05)
(1.10029 1.2709e-05 2.43804e-05)
(1.10029 -2.18845e-05 -7.50222e-06)
(1.10028 1.06346e-05 5.66027e-06)
(1.10029 -5.16091e-06 1.26052e-05)
(1.10028 -1.70662e-05 -9.02954e-06)
(1.10028 1.61138e-05 2.07304e-05)
(1.10029 -2.52813e-05 -7.54405e-06)
(1.10028 1.05535e-05 1.33831e-05)
(1.10029 -1.48434e-05 4.62041e-06)
(1.10028 -2.0662e-06 1.35734e-07)
(1.10029 -2.70366e-06 1.61452e-05)