/*--------------------------------*- C++ -*----------------------------------*\
  =========                 |
  \\      /  F ield         | OpenFOAM: The Open Source CFD Toolbox
   \\    /   O peration     | Website:  https://openfoam.org
    \\  /    A nd           | Version:  10
     \\/     M anipulation  |
\*---------------------------------------------------------------------------*/
FoamFile
{
    format      ascii;
    class       surfaceScalarField;
    location    "12";
    object      phi;
}
// * * * * * * * * * * * * * * * * * * * * * * * * * * * * * * * * * * * * * //

dimensions      [0 3 -1 0 0 0 0];

internalField   nonuniform List<scalar> 
74080
(
2.03002e-05
3.35956e-05
2.962e-05
3.31946e-05
5.03477e-05
-3.58043e-05
6.43498e-05
-2.05666e-05
-1.30569e-05
6.97423e-05
-2.03404e-05
1.74766e-05
6.10987e-05
1.69721e-05
3.72145e-05
3.99631e-05
2.6704e-05
5.01473e-05
3.00694e-05
7.3821e-06
2.10046e-05
3.97222e-05
-8.67798e-06
8.80839e-06
4.32323e-05
1.21834e-05
3.36741e-05
3.49142e-05
3.51491e-05
3.75569e-05
2.73597e-05
4.29209e-05
3.84377e-05
2.62487e-05
3.38789e-05
2.96045e-05
3.38143e-05
2.81558e-05
2.38743e-05
4.41783e-05
5.36296e-06
2.45799e-05
5.0809e-05
-1.99689e-05
4.48305e-05
4.98039e-05
-4.62117e-06
5.84211e-05
4.18627e-05
1.69298e-05
5.43835e-05
3.07717e-05
1.78605e-05
3.16303e-05
2.17733e-05
1.17532e-05
3.44698e-05
1.92765e-05
1.83344e-05
4.42219e-05
1.53273e-05
2.25098e-05
1.85708e-05
4.8715e-06
5.36782e-05
-7.44632e-07
1.67739e-05
3.20135e-05
-1.99418e-06
3.60653e-05
-9.3968e-06
-2.46871e-06
3.50539e-05
3.86346e-06
9.53585e-06
2.91995e-05
1.47416e-05
2.87268e-05
3.47942e-05
1.13844e-05
3.52938e-05
6.25645e-05
-1.29234e-05
7.51598e-06
9.17741e-05
-3.52781e-05
-3.26911e-06
8.94415e-05
-3.74782e-05
2.05247e-05
6.58619e-05
-2.9658e-05
5.35425e-05
4.40665e-05
1.95e-05
4.68315e-05
3.90444e-05
4.11888e-05
3.12202e-05
5.34089e-05
-3.64564e-06
3.79599e-06
5.12176e-05
-1.03861e-05
1.11639e-05
3.63701e-05
2.10289e-05
3.4154e-05
4.4187e-05
1.13363e-05
3.20553e-05
4.48123e-05
-6.90886e-06
3.21841e-05
3.24107e-05
-6.70515e-07
3.81697e-05
6.26006e-07
3.32072e-05
3.98206e-05
5.0588e-05
-2.48025e-05
7.91323e-05
0.00011394
-0.000138849
0.00013255
-4.20433e-05
-0.000122005
0.000144641
-4.685e-05
-5.4137e-05
0.000117282
5.25478e-05
-6.93012e-06
7.24478e-05
0.000101181
2.03565e-05
5.6072e-05
1.20159e-05
-2.33771e-05
6.25018e-05
-2.99208e-05
-6.49249e-05
6.32996e-05
4.62265e-06
-1.62715e-05
5.4879e-05
8.67e-05
5.65999e-06
5.11731e-05
0.000116742
-1.64713e-05
5.59727e-05
9.80717e-05
-3.46172e-05
7.20492e-05
8.55697e-05
-4.44054e-05
8.74614e-05
2.46222e-05
-4.61802e-05
9.55791e-05
-4.97087e-05
-7.13209e-06
8.87925e-05
-3.2447e-05
3.66654e-05
7.46524e-05
5.94787e-05
1.56561e-05
6.05013e-05
6.27128e-05
-2.85649e-05
4.4068e-05
4.16338e-05
-2.09705e-05
2.34388e-05
6.98117e-05
5.43979e-06
2.05662e-05
4.22173e-05
-1.2672e-05
2.82759e-05
0.000108078
-7.42923e-05
5.54637e-05
7.66833e-05
-7.96811e-05
8.84421e-05
-5.52604e-05
-6.80229e-05
8.48733e-05
3.88452e-06
-6.52347e-05
6.55318e-05
3.43568e-05
-2.06388e-05
6.81284e-05
8.52556e-06
1.89656e-05
0.000115729
-4.49569e-05
-3.19677e-05
0.000188067
-0.00011316
-7.55198e-05
0.000197487
-0.000117461
-4.92066e-05
0.000128905
-7.63541e-05
1.87966e-05
7.48519e-05
3.62905e-05
2.92627e-05
9.11299e-05
8.2165e-05
-5.11601e-06
0.000136679
-6.01256e-05
-5.09983e-05
0.000130415
-5.01854e-05
-5.33842e-05
9.07236e-05
4.717e-05
-1.2472e-05
9.37963e-05
3.79925e-05
-1.07378e-05
9.16466e-05
-8.70539e-06
-2.2029e-05
5.84575e-05
8.05703e-06
-5.2972e-06
6.14693e-07
-1.3571e-05
7.26867e-05
7.82355e-05
-8.56679e-05
9.98617e-05
0.000164416
-0.000133674
0.000165786
-0.000108071
-0.000109303
0.000188241
-8.11347e-05
-8.34519e-05
0.00016485
0.000102467
-6.99779e-05
0.00012689
0.000183182
-3.25598e-05
0.00011623
5.06284e-06
-4.46555e-05
0.000108646
-4.4384e-06
-0.000125113
8.33174e-05
2.51565e-05
-7.70047e-05
7.10661e-05
0.000138605
-2.02826e-05
7.91432e-05
0.000189088
-4.55404e-05
0.000105246
0.000149184
-6.68799e-05
0.000140079
0.000139843
-0.000104171
0.000154392
6.99976e-05
-0.000125703
0.000144195
-5.56853e-05
-8.81536e-05
0.000120583
-5.42897e-05
-4.67398e-06
0.00010386
9.49887e-05
-2.15056e-06
0.000105075
0.000111579
-6.90828e-05
8.98207e-05
8.88606e-05
-7.79588e-05
5.14478e-05
0.000160387
-3.99724e-05
3.67625e-05
7.71767e-05
-2.77773e-05
4.72467e-05
0.00015412
-9.57612e-05
8.69893e-05
0.000100357
-0.000121483
0.000136502
-0.00013335
-7.33646e-05
0.000148112
-5.6972e-05
-7.52698e-05
0.000135844
4.39964e-05
-9.02693e-05
0.000129369
-1.49463e-05
-1.55994e-05
0.000143182
-7.08171e-05
-7.86069e-06
0.000183651
-0.000129184
-5.21574e-05
0.000208625
-0.000173079
-5.10996e-05
0.000153096
-0.000122651
-2.15748e-05
9.67262e-05
4.82183e-05
2.87827e-05
0.000137776
9.43807e-05
-2.07121e-05
0.000199283
-0.000127905
-6.24641e-05
0.000183795
-0.000117558
-6.18162e-05
0.000138447
4.65863e-05
-4.07903e-05
0.000143806
5.30093e-05
-4.90072e-05
0.000147769
2.6042e-06
-7.46493e-05
0.000113254
4.22292e-05
-5.8221e-05
2.57306e-05
-8.009e-05
0.000102102
0.00011462
-0.00011963
0.000119498
0.000189623
-0.000127925
0.000185876
-0.000160393
-0.000103952
0.000208294
-0.000125682
-8.69315e-05
0.000185891
0.00016385
-0.000103713
0.000164651
0.000238944
-8.19735e-05
0.000155889
-3.21582e-05
-4.16349e-05
0.0001374
8.53658e-05
-0.000146117
0.000104817
9.18829e-05
-0.000119085
8.59388e-05
0.000161155
-1.01065e-05
9.24806e-05
0.000232153
-7.89951e-06
0.000123451
0.000178871
-3.40929e-05
0.000167244
0.000185697
-0.000124592
0.000191319
8.77744e-05
-0.000142911
0.000188087
-6.11543e-05
-0.000134473
0.000158852
-6.75479e-05
-6.63186e-05
0.000135638
9.59552e-05
4.48457e-06
0.000124787
0.00016479
-6.00223e-05
0.000113157
0.000133338
-0.000103514
8.73884e-05
0.00021877
-6.37803e-05
2.73166e-05
0.00017979
-4.91051e-05
3.44074e-05
0.000151212
-6.1421e-05
0.00011535
7.68348e-05
-0.000132382
0.000162314
-0.000180478
-0.000106203
0.000176819
-0.000129914
-6.87749e-05
0.000170827
5.88838e-05
-0.000157185
0.000155968
-4.04476e-06
-8.84208e-05
0.000159629
-7.95116e-05
-2.18397e-05
0.000199866
-0.000127355
-2.01099e-05
0.000237278
-0.000188485
-5.82428e-05
0.000191471
-0.000168619
-6.1424e-05
0.00014237
2.79438e-05
1.98668e-05
0.000171697
6.20676e-05
1.28106e-05
0.000218982
-0.000131705
-8.59826e-05
0.000221576
-0.000192554
-6.96804e-05
0.000183611
5.71002e-06
-3.54219e-05
0.000165839
0.00010101
-5.61672e-05
0.000174303
3.65277e-05
-9.97571e-05
0.000155947
9.81749e-05
-0.000123665
8.21157e-05
-0.000134377
0.000127737
0.000181678
-0.000140631
0.000156197
0.000157512
-0.000122723
0.000207748
-0.000192212
-0.000144531
0.000229737
-0.000190222
-0.000107871
0.000218592
0.000214318
-0.000101446
0.000191205
0.000341247
-0.000137051
0.000170356
-4.11189e-05
-3.03115e-05
0.00015722
0.000143735
-8.80582e-05
0.000129341
0.000195585
-0.000161374
0.000105135
0.000201655
-4.64877e-05
0.000108633
0.000279547
-1.36468e-05
0.0001516
0.000178479
-2.31866e-06
0.000192855
0.000207038
-0.000119207
0.000198833
0.000108855
-0.000128915
0.00018724
-3.4999e-05
-9.13228e-05
0.000179347
-9.52412e-05
-3.6569e-05
0.000169611
8.12511e-05
-8.22534e-06
0.000160479
0.000184426
-6.17359e-05
0.00015095
0.000176157
-7.8731e-05
0.000139754
0.000246832
-9.32568e-05
7.02735e-05
0.000311905
-8.75008e-05
6.68797e-05
0.000157604
-6.4644e-05
0.000167804
3.83891e-05
-0.000164785
0.000197131
-0.000181034
-0.000203819
0.000198635
-0.000115027
-0.000152853
0.00020258
4.42513e-05
-0.00016004
0.000198037
1.09926e-05
-0.000112546
0.000189616
-4.32487e-05
-6.93853e-05
0.000218495
-0.000114172
-2.96175e-05
0.000276968
-0.000189522
-8.26809e-05
0.000242937
-0.000175387
-8.11455e-05
0.000185996
4.60289e-05
-2.65335e-05
0.000208743
2.25579e-05
3.26952e-06
0.000255045
-0.000142697
-9.09788e-05
0.000262982
-0.000221463
-7.29295e-05
0.000229485
-6.60186e-05
-3.6922e-05
0.000204838
0.000123143
-4.42847e-05
0.000227898
4.85047e-05
-9.09177e-05
0.000211162
0.00013399
-0.000131638
0.000158827
-0.000169881
0.000157269
0.000219869
-0.000139974
0.000194992
0.000101301
-0.000121266
0.000243492
-0.00027423
-0.000138175
0.000243873
-0.00025696
-0.000108366
0.000246988
0.000242912
-7.47836e-05
0.000221882
0.000429295
-0.000157692
0.000180536
2.65304e-06
-1.23657e-05
0.000177693
0.000129463
-5.70265e-05
0.000149549
0.000265815
-0.000171063
0.000116702
0.000293146
-0.000109879
0.00013892
0.000303577
-3.4256e-05
0.000197444
0.000132736
1.0211e-05
0.000187043
0.000238096
-0.000105298
0.000152288
0.000229881
-0.000150175
0.000166943
1.09428e-07
-7.94916e-05
0.000195487
-0.000110361
4.01572e-06
0.000203388
4.73336e-05
-2.88638e-05
0.000196819
0.000130863
-3.1523e-05
0.000171744
0.000185993
-2.21462e-05
0.000176331
0.000259595
-8.82289e-05
0.000155178
0.00033623
-7.10206e-05
0.000136951
0.000183431
-0.000107366
0.000189867
1.25522e-05
-0.000173147
0.000187459
-0.000160023
-0.000170403
0.000186701
-4.41085e-05
-0.000208437
0.000223192
4.16893e-06
-0.000151904
0.000236569
-2.52322e-05
-9.04463e-05
0.00021583
4.18038e-05
-9.53248e-05
0.000227288
-4.12286e-05
-6.60973e-05
0.000279658
-0.000166927
-7.51327e-05
0.000257866
-0.000150565
-5.46769e-05
0.000215907
6.81593e-05
-5.54781e-05
0.000251503
9.97344e-06
-6.05541e-05
0.000274076
-0.000120239
-5.17224e-05
0.000254286
-0.000111655
-0.000116949
0.000233194
-0.000139842
-2.58485e-05
0.000228391
9.17938e-05
-5.42567e-05
0.000239277
8.11875e-05
-9.68381e-05
0.00023226
0.000103809
-8.51996e-05
0.000212143
-0.000188341
0.000221109
0.000179026
-0.000137054
0.000242485
7.3748e-05
-0.00013858
0.000271811
-0.000373407
-0.000128228
0.000276538
-0.000365384
-0.000110692
0.000287842
0.000244339
-9.04646e-05
0.0002631
0.000512542
-0.000148593
0.00019998
0.000108105
-6.45196e-05
0.0001866
4.94215e-05
7.19898e-07
0.000168619
0.000248358
-0.00014647
0.000141477
0.00035443
-0.00012091
0.000188596
0.000307838
-4.36378e-05
0.000245237
9.38288e-05
-3.0489e-05
0.00021258
0.00030142
-0.000104207
0.000196898
0.00032839
-0.000181006
0.000220358
9.15066e-06
-0.000156309
0.000242407
-0.000120203
-7.02155e-05
0.000246904
-3.20196e-05
-2.70319e-05
0.000220647
4.13429e-05
-7.91443e-06
0.00019541
0.000181112
-5.95963e-05
0.000225714
0.000283407
-0.000105448
0.000226774
0.000328325
-8.41566e-05
0.000189075
0.000159238
-6.06185e-05
0.000205787
-3.44396e-05
-0.000144307
0.000189663
-8.87377e-05
-0.000140128
0.000196069
-1.34441e-05
-0.000130575
0.000240017
-2.97909e-05
-0.000152708
0.000249604
-8.68287e-05
-9.63991e-05
0.000232961
0.000106595
-0.000110341
0.000279045
1.47306e-05
-9.03917e-05
0.000330815
-0.000169107
-4.08367e-05
0.000310866
-0.0001549
-2.22666e-05
0.000271314
3.6117e-05
-4.71051e-06
0.000311576
-4.92273e-06
-4.07007e-05
0.000307242
-8.7804e-05
-2.4306e-05
0.000281746
5.4911e-05
-0.00015338
0.000272799
-0.000146162
-4.68292e-05
0.000229911
0.000110425
-8.75377e-05
0.000211634
0.000111864
-7.60941e-05
0.000221853
3.91297e-05
-6.22076e-05
0.000227055
-0.000173776
0.000264943
7.96212e-05
-0.000140922
0.000301958
5.23318e-05
-0.000177497
0.000308412
-0.000469355
-0.000111332
0.000301446
-0.000493994
-9.82013e-05
0.000316529
0.000236864
-0.000133252
0.000341885
0.000515992
-0.000117532
0.00026479
0.000197324
-8.15329e-05
0.000194351
-4.00309e-05
4.7403e-05
0.000165181
0.00019988
-7.91347e-05
0.000173695
0.00035786
-0.000127337
0.000236481
0.000268522
-3.15878e-05
0.000238624
0.000111148
6.26502e-06
0.000215597
0.000384571
-0.000105078
0.000255414
0.000295482
-0.000170334
0.000274311
-2.22291e-05
-0.000208923
0.000262543
-0.00014055
-0.000137852
0.000256866
-8.37739e-05
-1.91731e-05
0.000242103
-2.5543e-05
-5.50252e-05
0.000233305
0.000107323
-4.79631e-05
0.000259709
0.000261466
-7.40226e-05
0.000244958
0.000392866
-0.000137086
0.000215522
0.000124068
-2.59538e-05
0.000241993
-0.000167254
-0.000101746
0.000236281
-6.56565e-05
-0.000173054
0.000215193
0.000100888
-3.11603e-05
0.00024084
2.59825e-05
-0.000108822
0.000241067
-7.77682e-06
-0.000162503
0.000223886
0.000202757
-0.000129882
0.000252461
7.81134e-05
-2.66586e-05
0.000334446
-0.000190339
1.13793e-05
0.000351792
-0.000136254
-4.81305e-05
0.000330556
3.49345e-05
-1.4273e-05
0.000379325
-7.22221e-05
3.66807e-05
0.000364818
-8.5999e-05
-1.43586e-05
0.000335286
0.000212029
-0.000124639
0.000320592
-8.20282e-05
-0.000103356
0.000235652
0.000138834
-5.46285e-05
0.000200417
0.000152699
-5.16035e-05
0.000209327
-3.56112e-05
2.10601e-06
0.000229711
-0.000114002
0.000323276
-4.98368e-05
-0.000122365
0.00038379
-3.38826e-05
-0.000180689
0.000337146
-0.000472073
-0.000192584
0.000310058
-0.000553723
-0.00011253
0.000352855
0.000181779
-0.000186371
0.000388821
0.000436721
-8.60035e-05
0.000311702
0.000230212
-7.58113e-05
0.000233581
-6.76239e-05
-6.7145e-05
0.00019825
0.000149511
-5.89653e-05
0.00022155
0.000365687
-0.000155951
0.000272072
0.000217109
-4.78026e-05
0.000217748
0.000230835
1.8476e-05
0.000237102
0.000438151
-7.53596e-05
0.00034376
0.000133649
-0.000138094
0.000344501
-7.7697e-05
-0.000204637
0.000299879
-8.9916e-05
-0.000124579
0.00030202
-4.21634e-05
-4.93959e-05
0.000289284
-3.97108e-05
-0.000129138
0.000282998
3.6913e-05
-5.55153e-05
0.000258136
0.000266845
-6.95441e-05
0.000231263
0.000492874
-0.000144834
0.000260688
6.93129e-05
-6.10576e-05
0.000296563
-0.000384307
-4.38728e-05
0.000278339
-0.000183741
-0.000107898
0.000259228
0.000137715
-9.90295e-05
0.000270871
0.000101786
-3.21154e-05
0.000267073
8.07617e-05
-0.000139548
0.000248966
0.00028825
-0.000147696
0.000270835
0.000154767
-1.68879e-05
0.000333912
-0.000168463
-2.9789e-05
0.000356342
-9.84306e-05
-3.93453e-05
0.000376144
8.63129e-05
-5.46039e-05
0.000421224
-5.31452e-05
1.9694e-05
0.00039221
-4.85922e-05
-3.47788e-05
0.000380282
0.000239496
-0.000126622
0.000380982
-8.84626e-05
-0.000111176
0.000299033
0.000144107
-3.84057e-05
0.00026736
0.000226149
-0.000157867
0.000229981
8.07402e-06
-7.26778e-05
0.000208355
-5.26072e-05
0.000421494
-0.000144118
-0.000145265
0.000481238
-0.000183638
-8.19645e-05
0.00039861
-0.000426951
-0.000233663
0.000338625
-0.000508742
-0.000175066
0.000400401
0.000116501
-0.000221475
0.000420634
0.000418593
-0.000101217
0.000362215
0.00029195
-0.000122238
0.000276918
-6.42538e-05
-8.4903e-05
0.000216201
8.81995e-05
-5.22426e-05
0.000254862
0.000297621
-0.000114695
0.000311723
0.000143039
-6.85196e-05
0.000245091
0.000356383
1.74249e-05
0.000281601
0.000411039
4.27145e-05
0.000370123
4.09264e-05
-5.55115e-05
0.000370553
-0.000159175
-9.09669e-05
0.000349439
-6.86876e-06
-7.82088e-05
0.000353308
-1.18028e-07
-5.16577e-05
0.000342495
-7.50789e-05
-0.000149285
0.000318146
5.64715e-05
-0.000122292
0.000252995
0.00033371
-9.99257e-05
0.000266518
0.000518378
-8.81348e-05
0.000391347
-5.55403e-05
-3.25487e-05
0.00042395
-0.000575969
4.53911e-05
0.000347986
-0.000340555
9.07552e-06
0.000319639
7.21657e-06
-9.64359e-05
0.000326007
7.95326e-05
-6.18073e-05
0.000301099
9.03642e-05
-0.000110603
0.000298656
0.000291076
-0.0001184
0.000346254
0.000201958
-1.24617e-05
0.000378017
-0.000119245
-1.39098e-05
0.00035888
-3.99278e-05
-4.09649e-06
0.000395045
0.000109002
-7.22671e-07
0.00046171
2.19449e-05
-2.0809e-05
0.000437713
2.21873e-05
-4.3324e-05
0.0004557
0.000166772
-9.86768e-05
0.000445067
-0.000137588
-7.79026e-05
0.000341024
0.000185856
-6.79905e-05
0.000330787
0.000289429
-0.000212133
0.000336375
5.72971e-05
-0.000254181
0.000162552
-0.000109281
0.000516766
-8.57688e-05
-0.000229209
0.000560174
-0.000338698
-5.31632e-05
0.000492307
-0.000407516
-0.000209531
0.000433252
-0.000470045
-0.00016434
0.000443121
6.54808e-05
-0.000192454
0.00044657
0.000509693
-0.000177844
0.000410266
0.000318809
-8.7266e-05
0.000330742
-0.000165482
-4.01467e-05
0.000264415
-9.32985e-07
-1.52822e-05
0.000314778
0.000163781
-2.5829e-05
0.000358151
7.18918e-05
-6.40988e-05
0.00031679
0.000324739
8.35891e-05
0.000351071
0.000332642
0.000109561
0.000378072
2.34045e-05
-1.42483e-05
0.00037887
-0.00019443
-3.51451e-05
0.000393148
2.01099e-05
-3.55782e-05
0.000408087
-4.41041e-06
-1.72297e-05
0.000416288
-7.39536e-05
-0.00016354
0.000369775
0.000195627
-0.000170662
0.000331066
0.000404759
-0.000117719
0.000419981
0.000385552
-8.5723e-05
0.00057869
-0.000229979
-5.23534e-05
0.000612234
-0.00061899
-1.9759e-05
0.000479862
-0.000400507
2.72412e-05
0.000390794
-0.000101281
-0.000102455
0.000378481
5.48554e-05
-7.78891e-05
0.000324846
0.000116265
-9.57122e-05
0.000336198
0.000284353
-0.000120638
0.000388621
0.000249881
-1.33504e-05
0.000408977
4.22732e-05
-4.40035e-05
0.000393924
4.95044e-05
-1.93772e-05
0.00043664
0.000138144
4.58344e-05
0.000545412
7.2413e-05
1.4185e-06
0.000523988
0.000103917
-9.68254e-06
0.000489784
0.000155034
-7.11296e-05
0.000475282
-9.5446e-05
-9.14351e-05
0.000389476
0.000248844
-0.000103742
0.000359329
0.000281445
-0.000112277
0.000411804
6.34767e-05
-0.000195085
0.000157227
-0.000187931
0.000567063
1.97372e-05
-0.00011388
0.000609517
-0.000412936
-4.63126e-05
0.000566712
-0.000385379
-0.000149134
0.000481701
-0.000374119
-0.000168105
0.000479527
-5.68577e-05
-0.000165044
0.000501234
0.000466302
-0.000158507
0.000502445
0.000310047
-5.64489e-05
0.000418626
-0.000200501
-6.41893e-05
0.000360942
-6.82547e-05
-2.9241e-05
0.000392265
5.79721e-05
-6.96556e-06
0.000363816
7.00062e-05
-1.92955e-05
0.000361572
0.000242832
8.33476e-05
0.000449778
0.000110604
0.000144838
0.000513107
-0.000154218
-2.03956e-06
0.000492191
-0.000278905
-6.48414e-05
0.000460188
-7.75562e-05
-1.9424e-05
0.000478415
-3.43972e-05
-1.93357e-05
0.000466594
-7.23431e-05
-0.000132204
0.00040176
0.000318237
-0.000107639
0.000418405
0.000492118
-0.000125895
0.000559373
0.000252327
-0.00016953
0.000700457
-0.00039379
-0.000118779
0.000774637
-0.000699954
-0.000122331
0.000646526
-0.000374778
-4.25698e-05
0.000453554
-4.94615e-05
-0.000156115
0.000384688
0.000175501
-9.19938e-05
0.00035597
0.000138983
-7.05968e-05
0.00040081
0.000216405
-0.000117764
0.000468503
0.000240182
-2.05935e-05
0.000500855
0.00027332
-0.000103966
0.000517884
0.000142381
-0.000103471
0.000518903
0.000187378
1.0068e-05
0.000594789
0.000203729
-9.1035e-05
0.00059463
0.000211168
-1.94343e-05
0.000506048
0.000284414
-0.000102926
0.000447135
9.7055e-05
-0.00013758
0.000405714
0.000222488
2.40322e-06
0.000428077
0.000138909
-6.5348e-05
0.000502781
5.37023e-05
-0.000126685
0.000137499
-0.00013044
0.000507202
0.000207698
-2.92898e-05
0.000601201
-0.000332802
-5.93019e-05
0.000605289
-0.000408079
-8.74849e-05
0.000512449
-0.000321669
-0.000144402
0.000503884
-0.000137494
-0.000111864
0.000527855
0.00032797
-9.72652e-05
0.000624317
0.000312573
-4.40611e-05
0.00059516
-0.000142646
-4.07781e-05
0.000527167
-8.81588e-05
-6.26124e-05
0.000501687
1.7173e-05
-7.25791e-05
0.000456113
0.000145889
-5.62053e-05
0.000519053
0.000183236
1.56266e-05
0.000642509
-0.000153568
0.000193757
0.000718843
-0.00033313
1.65226e-05
0.000666088
-0.000405265
-9.71219e-05
0.000561396
-0.000193452
-3.39591e-06
0.000553012
-4.73973e-05
-5.71255e-05
0.000499139
2.21644e-05
-0.000207447
0.000428722
0.000398658
-0.000116245
0.000478415
0.000454747
-6.07325e-05
0.00056396
0.000221612
-0.000210868
0.000658707
-0.000357694
-0.000232103
0.000789117
-0.000807036
-0.000192298
0.000720429
-0.00033973
-0.000110582
0.000517891
2.58984e-05
-0.000140923
0.000454493
0.00023372
-0.000104935
0.000446795
0.000145072
-4.76632e-05
0.000453148
0.00016063
-0.000103377
0.000488077
0.000184428
-3.41466e-05
0.000567672
0.000352334
-8.47118e-05
0.000580138
0.000193497
-0.000157472
0.000536365
0.000269899
2.49137e-05
0.000588838
0.000348088
-3.07109e-05
0.000620418
0.000336938
-4.59564e-05
0.000525422
0.000358999
-6.10124e-05
0.000491602
0.000320944
-0.000133488
0.000527664
0.000159246
4.2466e-05
0.0005572
-4.77288e-05
1.05877e-06
0.000608292
3.78532e-05
-0.000153547
0.000218121
-9.22318e-05
0.000533745
0.000333471
-4.61757e-05
0.000672402
-0.000189378
-3.82245e-05
0.000692044
-0.000410269
-1.58793e-05
0.000606254
-0.000307125
-0.000151767
0.000592302
-0.000240455
-0.000115449
0.000610506
0.000116975
-3.68073e-05
0.000728334
0.000153596
1.92974e-05
0.000754061
-0.000166317
9.84574e-06
0.000684602
-0.000116314
-6.88436e-05
0.000608212
-1.61698e-05
-6.25293e-05
0.000545316
0.00020485
-6.42559e-05
0.000624531
0.000108125
2.468e-06
0.000738262
-0.000310805
0.000329957
0.000897146
-0.000397394
0.000112488
0.000873035
-0.000504152
-8.00251e-05
0.000675632
-0.000190472
4.05932e-05
0.000605592
-4.64727e-05
-4.54191e-05
0.000548795
0.000105396
-0.000233543
0.000538353
0.000520102
-0.000236273
0.000611818
0.000350645
-6.48492e-05
0.000671981
0.000138596
-0.000164651
0.000701856
-0.000247918
-0.000245829
0.000750653
-0.000726182
-0.000141549
0.000749812
-0.000327698
-9.66377e-05
0.000597448
8.82698e-05
-0.000127691
0.000552297
0.000209865
-8.48306e-05
0.000583966
0.000116181
3.31251e-05
0.000580765
0.000106433
-3.43995e-05
0.000537694
0.000195854
-4.29706e-05
0.000590746
0.000309397
1.31991e-05
0.000677052
0.000142298
-8.37167e-05
0.000643315
0.000379384
-4.71015e-05
0.000626573
0.000500712
0.000102202
0.000677264
0.00047976
6.2153e-05
0.000639187
0.000274637
-3.4819e-05
0.000654027
0.000256269
-4.53662e-05
0.00066385
0.00016713
-5.65093e-05
0.000573573
-2.46228e-05
-2.32047e-05
0.000550228
-4.17338e-05
-0.000101804
0.000215807
-7.13512e-05
0.000601574
0.00022207
1.06013e-05
0.000709312
-0.000117324
-4.57086e-05
0.000789732
-0.000394032
-2.48518e-05
0.000755144
-0.000278206
-0.000175961
0.00069991
-0.000230663
-0.000247642
0.000705553
-2.26993e-05
-8.64614e-05
0.000828504
-2.57415e-05
-5.78117e-05
0.000876143
-0.0001973
-7.13975e-05
0.000805218
-0.000119963
-7.75431e-05
0.000731039
-0.00011373
-7.67485e-05
0.00066178
0.000192044
3.76009e-06
0.000724433
7.86443e-05
-4.14174e-05
0.000820428
-0.000332471
0.00016254
0.00102461
-0.000423448
0.000144883
0.00105193
-0.000586625
-0.000104269
0.000898407
-0.000184027
7.06839e-06
0.000748518
-4.03333e-05
8.7567e-05
0.000602077
3.40193e-05
-2.27603e-05
0.000631675
0.000489243
-0.000155316
0.000710484
0.000316663
-8.53946e-05
0.00076087
5.97681e-05
-0.000104414
0.000825957
-0.000238492
-0.000128957
0.000863258
-0.000538672
-0.000145722
0.000889313
-0.000340263
-2.55869e-05
0.000782138
0.000117923
-0.000151453
0.000725174
0.000174138
-0.000201674
0.000722788
8.85248e-05
1.34619e-06
0.000690581
0.000107557
-6.22345e-05
0.000619272
0.000213307
-6.12828e-05
0.000648559
0.00018757
2.99256e-05
0.000726651
0.000117701
-0.000133002
0.000703077
0.000567173
-0.000165924
0.000680097
0.000662559
0.000191511
0.000677596
0.000532306
0.000320727
0.000698692
0.00015541
7.41607e-05
0.000835175
7.24398e-05
-0.000155379
0.000897755
0.000267304
-0.000169877
0.000694715
0.000155049
-1.22474e-05
0.000532002
-1.77657e-05
3.30769e-05
0.00012464
-1.34055e-05
0.00076743
0.00017161
-6.62661e-06
0.000828938
-0.000103365
-2.41207e-05
0.000914596
-0.000338526
-0.000101768
0.000916416
-0.000240845
-0.000117337
0.000835261
-0.000120507
-0.000204607
0.000806274
-3.62171e-06
-0.000232126
0.000925165
-0.000123243
-0.000178798
0.000985279
-0.000287908
-0.000111273
0.000922527
-8.12222e-05
-7.78225e-05
0.000847124
-0.000159933
-5.52629e-05
0.000768321
0.00016207
-2.38688e-05
0.000861804
8.75117e-05
-0.000174716
0.0010095
-0.000326942
-8.48799e-05
0.00116678
-0.00035055
-7.3334e-05
0.00114104
-0.000506158
-0.000233664
0.00099626
-0.000184077
-8.15854e-05
0.000881615
-1.47353e-05
0.000144079
0.000737176
2.22721e-05
8.23849e-06
0.000693149
0.000355371
-6.95646e-05
0.000716664
0.000340948
-0.000106979
0.000877962
7.52845e-05
-0.000148549
0.000977117
-0.000243869
1.51677e-05
0.000902591
-0.000332776
-0.000184847
0.000966117
-0.000276913
-0.000196397
0.000997509
4.50899e-05
-0.000147184
0.000936993
0.000126038
-0.000199176
0.000885201
-8.57891e-05
-0.000107455
0.000810881
0.000106056
-4.16967e-05
0.000713261
0.000257371
3.42997e-05
0.000750845
-9.69347e-06
-5.75438e-05
0.000855607
5.62851e-05
-0.000287268
0.000874197
0.000768697
-0.000246055
0.000844075
0.000924462
0.000166312
0.000788607
0.000576096
0.000489482
0.000815065
8.50371e-05
0.000341117
0.000911412
3.23261e-05
-0.000139245
0.000926621
0.000316006
-0.000147618
0.000856155
0.000163278
1.82684e-05
0.00080526
4.14539e-05
6.68741e-05
0.000137343
-9.80527e-06
0.000896698
0.000181397
-7.33704e-05
0.000925106
-6.1273e-05
-5.32501e-05
0.00105556
-0.000327216
-6.44774e-05
0.00112235
-0.000358503
-8.2994e-05
0.00105414
-0.000167058
-0.000152491
0.000958084
0.000103252
-0.000263958
0.00104622
-0.00019205
-0.000158952
0.00114321
-0.000457137
-5.85069e-05
0.00115469
-5.99365e-05
-6.14435e-05
0.00110798
-1.43998e-06
-7.25566e-05
0.000983837
0.000223591
-7.62925e-05
0.000991445
6.50162e-05
-0.000125992
0.00107935
-0.000387894
-4.60917e-06
0.00123432
-0.00034498
0.000109642
0.00124515
-0.000416857
-7.69526e-05
0.00109726
-0.000194099
-5.7598e-05
0.000983336
-1.4395e-05
0.000142699
0.000847723
5.43762e-05
-4.34296e-05
0.000796356
0.000296806
-0.000122666
0.000857381
0.000322965
-0.000147628
0.00100091
0.00011159
-0.000259231
0.0010621
-0.000125447
-9.81612e-05
0.000972932
-0.000234594
-0.000110496
0.00100877
-0.000195801
-0.000392175
0.00116561
-3.80251e-05
-0.000228573
0.00118025
-6.23639e-05
-0.000114531
0.00108329
-0.000257839
-0.000182264
0.000984466
4.14244e-05
-4.6814e-05
0.000892701
0.000211239
0.000106342
0.000857642
-6.92882e-05
-0.000127475
0.000881018
0.000180121
-0.0005078
0.000909457
0.000954683
-0.000368982
0.00101708
0.000927239
0.000216972
0.00106906
0.000424954
0.000549832
0.000960867
8.91427e-05
0.000322865
0.00085032
0.000298166
3.59305e-05
0.000845826
0.000483587
7.2927e-05
0.000903889
0.000228403
7.51925e-05
0.000918586
8.05805e-05
-3.88903e-05
0.000128189
-5.4297e-05
0.00110395
0.000119594
2.07065e-05
0.00112847
-2.91658e-05
6.32163e-05
0.00122523
-0.000352646
8.34598e-05
0.00133541
-0.000487552
3.42291e-05
0.00132045
-0.000226891
-9.47879e-05
0.00122125
0.000182341
-0.000234102
0.00126909
-0.000157762
-0.000213282
0.00130489
-0.000517352
-0.000134811
0.00124731
-0.000192984
-7.40381e-05
0.00123109
4.19079e-05
-0.000104146
0.00122193
0.000255984
-9.79787e-05
0.00124754
1.05782e-05
-0.000188884
0.00124928
-0.000455142
-0.000165956
0.00134548
-0.00035359
6.76499e-05
0.00145772
-0.000410735
4.29304e-05
0.00140702
-0.000342672
-3.11656e-05
0.00129879
-0.000119461
0.00010265
0.00113376
7.34054e-05
8.73151e-06
0.00103762
0.000277333
-5.80344e-05
0.00106624
0.000260555
-0.000146829
0.00110327
8.02356e-05
-0.000261227
0.00113804
-2.16724e-06
-0.000175502
0.00107067
-0.000173907
-1.08237e-05
0.00100582
-0.000156423
-0.000277478
0.00114378
-4.77427e-05
-0.000314574
0.00127476
-0.000279489
-0.000108726
0.00124399
-0.000443841
-0.000118687
0.00118328
-9.82528e-05
-0.000130441
0.00103775
0.000110458
-2.45325e-05
0.000868492
7.59515e-05
-0.000182463
0.000826443
0.000391876
-0.000456728
0.000960948
0.000859129
-0.000159004
0.00119709
0.000571896
0.000323164
0.00118482
0.000207075
0.000512204
0.000932817
0.000195077
0.000325466
0.000798797
0.000529775
0.000191377
0.000858185
0.000682459
0.000197954
0.00104514
0.000349429
6.71006e-05
0.00114196
0.000125625
-0.000129364
6.5862e-05
-4.10185e-05
0.00129407
1.61381e-05
-0.000121725
0.00139746
-9.82185e-05
-5.38849e-05
0.00146394
-0.000459018
2.06144e-05
0.0014425
-0.000526761
5.30439e-06
0.00139965
-0.000186582
-6.39394e-05
0.00138088
0.00017951
-0.000208744
0.00144164
-4.74764e-05
-0.000314636
0.001498
-0.000409317
-0.000273773
0.00146022
-0.000291172
-0.000155319
0.00142587
-4.04908e-05
-5.17288e-05
0.00137886
0.000264225
7.40921e-06
0.00137327
0.000152948
-0.000143511
0.00138941
-0.000331365
-0.000226498
0.00146801
-0.000385669
-7.4854e-05
0.00166934
-0.000417315
-5.13836e-05
0.00176666
-0.00039435
-8.52879e-05
0.00162328
-0.000151843
0.000188485
0.00141859
7.5474e-05
0.000306212
0.00130639
0.000193529
0.000162599
0.00124841
0.000186525
-9.95834e-05
0.00124034
0.000132217
-0.000248284
0.00129505
0.000121554
-9.38641e-05
0.00121064
-2.18849e-05
0.000100465
0.00111045
-0.000114344
-4.31039e-05
0.0012178
-3.2375e-05
-0.000358813
0.00137687
-0.000274195
-0.000316524
0.00138302
-0.000527098
-0.000146777
0.001335
-0.000262938
-0.000191115
0.00118453
7.87897e-05
-0.000164912
0.000948224
0.000213854
-0.000173448
0.000855863
0.000440688
-0.000393253
0.000983255
0.000720013
-0.000270199
0.00123782
0.000317048
1.63731e-06
0.00127493
-3.28091e-05
0.000407181
0.0010476
0.000255183
0.000449356
0.00091366
0.000667785
0.000253575
0.00105721
0.000775058
0.000180713
0.00128233
0.000339878
5.68825e-05
0.00134148
5.23033e-05
-8.02278e-05
-2.71945e-05
-0.000111968
0.00142198
-3.83219e-05
-4.8551e-05
0.00146845
-0.000137041
-2.7713e-05
0.00151264
-0.000487033
-1.11507e-05
0.00141637
-0.000547233
-2.19938e-05
0.00133855
-0.000178619
-4.89718e-05
0.00144494
0.000126466
-0.000220458
0.00163777
-0.000131378
-0.000303759
0.00172769
-0.000499901
-0.000213769
0.00170723
-0.00037676
-0.000108292
0.00168512
-8.86855e-05
-0.000100805
0.00158899
0.000333556
-6.14934e-05
0.00153876
0.000326874
-0.000158366
0.00161406
-0.00018031
-0.000282405
0.00173297
-0.000339538
-6.97683e-05
0.00190296
-0.000442082
-1.25493e-05
0.00199042
-0.000416679
-0.000101778
0.00179747
-6.22504e-05
0.000227369
0.00157746
0.000134004
0.00046624
0.00144406
5.91103e-05
0.000284316
0.00131264
0.000110399
-7.48417e-05
0.00129365
0.000185752
-0.000232268
0.00141414
0.000173252
-5.4192e-05
0.0014091
3.60773e-05
0.000166814
0.00131522
-9.7946e-05
0.000129992
0.00140605
-4.8061e-05
-0.000196714
0.00150059
-0.000177873
-0.000366746
0.00143367
-0.000414067
-0.000215693
0.00137159
-0.000358143
-0.000163703
0.00127808
-5.99565e-05
-0.000156176
0.00107962
0.00020831
-0.000158066
0.0010126
0.000450102
-0.0003455
0.00115925
0.000702039
-0.000475318
0.00139611
0.000273054
-0.000319893
0.001391
-6.07132e-06
0.000239978
0.00114316
0.000407763
0.000427213
0.00104471
0.000764283
0.000218868
0.00116436
0.000801972
0.000180342
0.00137089
0.00035278
0.000145078
0.00152474
-2.23772e-05
1.72025e-05
-0.0001115
-5.62445e-06
0.00169959
-1.40981e-06
-2.11103e-05
0.00162911
-1.70978e-05
-6.64289e-05
0.00166443
-0.000378616
-9.20458e-05
0.00165283
-0.000538324
-0.000100581
0.00155182
-0.000197673
-4.06964e-05