/*--------------------------------*- C++ -*----------------------------------*\
  =========                 |
  \\      /  F ield         | OpenFOAM: The Open Source CFD Toolbox
   \\    /   O peration     | Website:  https://openfoam.org
    \\  /    A nd           | Version:  10
     \\/     M anipulation  |
\*---------------------------------------------------------------------------*/
FoamFile
{
    format      ascii;
    class       volScalarField;
    location    "12";
    object      pPrime2Mean;
}
// * * * * * * * * * * * * * * * * * * * * * * * * * * * * * * * * * * * * * //

dimensions      [0 4 -4 0 0 0 0];

internalField   nonuniform List<scalar> 
25600
(
6.46678e-06
1.08225e-05
6.07667e-05
3.99377e-05
4.39104e-05
1.91068e-05
1.22156e-05
1.87847e-05
9.68574e-05
5.03074e-05
6.23167e-06
2.25022e-05
1.22302e-05
2.05595e-05
1.16194e-05
1.62279e-05
1.30244e-05
1.15004e-05
1.5961e-05
5.86941e-05
1.17369e-05
1.39748e-05
1.1641e-05
9.12114e-06
5.6442e-05
3.18295e-05
4.57917e-05
4.95055e-05
1.06857e-05
7.51064e-06
5.67448e-06
7.71983e-06
1.15628e-05
5.29296e-05
3.86986e-05
7.1888e-06
0.000126153
5.87722e-05
5.80201e-05
4.9616e-05
1.15353e-05
2.44253e-05
9.5805e-05
2.09941e-05
2.32178e-05
3.70564e-05
8.17797e-06
1.18548e-05
0.000138048
8.10237e-05
1.23966e-05
1.00805e-05
7.74409e-06
3.77339e-05
2.28968e-05
1.18497e-05
1.71084e-05
1.36245e-05
3.06504e-05
8.77103e-05
2.12912e-05
2.64295e-05
2.40719e-05
7.79385e-06
8.63987e-05
5.33819e-05
2.64998e-05
3.00224e-05
9.51264e-06
8.96543e-06
8.19005e-06
5.0647e-06
2.77566e-05
8.82921e-05
2.04511e-05
1.27514e-05
0.000178621
3.12786e-05
3.34894e-05
7.95659e-05
6.19414e-06
9.57388e-06
5.80616e-05
4.00368e-05
4.4428e-05
1.79882e-05
1.32466e-05
1.99945e-05
9.2638e-05
4.76465e-05
6.74097e-06
2.4141e-05
1.46795e-05
1.75457e-05
1.17916e-05
1.75236e-05
1.27038e-05
1.1813e-05
1.49627e-05
5.5219e-05
9.70623e-06
1.18176e-05
1.01246e-05
1.08697e-05
5.13008e-05
2.8247e-05
5.18411e-05
5.51672e-05
1.16998e-05
7.67581e-06
5.95634e-06
1.01494e-05
1.0231e-05
4.96692e-05
4.38106e-05
6.77423e-06
0.000121309
6.36706e-05
6.83466e-05
4.54254e-05
7.7596e-06
1.67245e-05
7.95762e-05
2.6165e-05
2.83101e-05
3.17701e-05
9.34015e-06
1.47115e-05
0.000111526
6.05076e-05
9.55149e-06
1.38645e-05
1.0217e-05
2.81553e-05
1.85711e-05
1.33063e-05
1.46235e-05
1.28717e-05
2.30498e-05
7.97385e-05
1.65933e-05
2.02801e-05
1.90542e-05
7.52238e-06
7.42736e-05
4.30394e-05
3.68621e-05
4.07551e-05
9.39154e-06
8.45923e-06
6.09532e-06
5.62588e-06
1.74753e-05
6.98653e-05
2.68225e-05
9.43185e-06
0.000158797
3.98897e-05
5.09358e-05
6.40396e-05
6.95804e-06
1.07628e-05
6.23727e-05
3.76213e-05
3.99241e-05
2.45974e-05
1.10664e-05
1.95011e-05
9.55974e-05
4.72435e-05
6.88686e-06
1.77074e-05
1.184e-05
2.13714e-05
1.34779e-05
1.71172e-05
1.51733e-05
1.35626e-05
2.24432e-05
6.85572e-05
1.3705e-05
1.5344e-05
1.27074e-05
9.04629e-06
6.99797e-05
4.03318e-05
4.77709e-05
5.81437e-05
1.29259e-05
7.82309e-06
5.83887e-06
6.99444e-06
9.9548e-06
5.28698e-05
2.92066e-05
8.39524e-06
0.000129233
5.24047e-05
6.07854e-05
5.31287e-05
6.70493e-06
1.34022e-05
6.76357e-05
3.39199e-05
3.69888e-05
2.55744e-05
8.19136e-06
1.38847e-05
0.000107895
5.77447e-05
8.36495e-06
1.44486e-05
9.57592e-06
2.5122e-05
1.30637e-05
1.5837e-05
1.73262e-05
1.47941e-05
3.55439e-05
6.33355e-05
1.71185e-05
2.31847e-05
1.6986e-05
8.2813e-06
7.61995e-05
4.78486e-05
3.78521e-05
6.01872e-05
1.30849e-05
8.37983e-06
1.16284e-05
4.95256e-06
1.29392e-05
5.45012e-05
2.24206e-05
7.60046e-06
0.000145137
4.54081e-05
5.17817e-05
6.34041e-05
6.7847e-06
1.25462e-05
6.56283e-05
3.40704e-05
3.86759e-05
1.80058e-05
7.79673e-06
1.23578e-05
9.85593e-05
5.03805e-05
8.2968e-06
1.52249e-05
9.81014e-06
2.24091e-05
1.23424e-05
1.83599e-05
1.72919e-05
1.52457e-05
3.83103e-05
4.83603e-05
1.15234e-05
2.67861e-05
2.16723e-05
8.06691e-06
5.69356e-05
4.13682e-05
3.51122e-05
6.73122e-05
1.85793e-05
7.80346e-06
1.28372e-05
6.27467e-06
1.4307e-05
4.40491e-05
2.26517e-05
6.6317e-06
0.000130778
4.08924e-05
4.58079e-05
5.99769e-05
7.13614e-06
1.47923e-05
6.83044e-05
2.58975e-05
2.64727e-05
1.7403e-05
6.4874e-06
8.8295e-06
0.0001078
4.79013e-05
1.11984e-05
1.06249e-05
8.75556e-06
2.21589e-05
1.01743e-05
1.86327e-05
1.71159e-05
1.50151e-05
4.06734e-05
5.36192e-05
1.10077e-05
3.35941e-05
3.35204e-05
6.97191e-06
4.48371e-05
3.85152e-05
2.67089e-05
5.53615e-05
1.76811e-05
8.38615e-06
1.59971e-05
5.58805e-06
1.79062e-05
3.98487e-05
1.72691e-05
9.68474e-06
0.000128162
3.82137e-05
3.90631e-05
5.25596e-05
9.53544e-06
1.32351e-05
6.30615e-05
2.62024e-05
2.18043e-05
1.43702e-05
6.53123e-06
1.00148e-05
0.00012375
4.7536e-05
1.23838e-05
9.49288e-06
8.10963e-06
2.35651e-05
1.01311e-05
2.2397e-05
1.52971e-05
1.24041e-05
3.75099e-05
6.0029e-05
1.24174e-05
3.42922e-05
3.27833e-05
8.34247e-06
4.10162e-05
2.06405e-05
2.56944e-05
5.0358e-05
1.61207e-05
9.02501e-06
1.49278e-05
5.36069e-06
1.67815e-05
3.41329e-05
2.52119e-05
9.32245e-06
0.000106444
5.61917e-05
3.25971e-05
4.56235e-05
1.22258e-05
1.33447e-05
6.99651e-05
2.58344e-05
1.76782e-05
1.42003e-05
6.44104e-06
1.26341e-05
0.000150209
4.87368e-05
1.30628e-05
7.74695e-06
7.88594e-06
3.92859e-05
1.47389e-05
2.20762e-05
1.20276e-05
1.18698e-05
3.85976e-05
5.67177e-05
1.13609e-05
3.48942e-05
3.17875e-05
8.19122e-06
4.63284e-05
1.31198e-05
2.60743e-05
4.54533e-05
1.20155e-05
1.01257e-05
1.48972e-05
7.21798e-06
1.70966e-05
3.24897e-05
2.96719e-05
7.65062e-06
8.33669e-05
8.02983e-05
2.49415e-05
6.28169e-05
1.44409e-05
9.36645e-06
7.45766e-05
2.17277e-05
1.37374e-05
1.45412e-05
6.17051e-06
1.26025e-05
0.000172135
4.61746e-05
8.88429e-06
8.4563e-06
1.03107e-05
5.68854e-05
1.95782e-05
2.42084e-05
1.30154e-05
1.79253e-05
3.16103e-05
4.49975e-05
8.64541e-06
3.20317e-05
3.11751e-05
7.14142e-06
4.51533e-05
1.1675e-05
2.58187e-05
4.02365e-05
1.2146e-05
1.0721e-05
1.76453e-05
7.98749e-06
1.59763e-05
2.68252e-05
2.80433e-05
7.10944e-06
9.44446e-05
5.61354e-05
1.3611e-05
7.24669e-05
1.29075e-05
8.14455e-06
7.01639e-05
1.71601e-05
9.91561e-06
1.71534e-05
5.38491e-06
1.57617e-05
0.000165748
4.61596e-05
7.08893e-06
8.95908e-06
1.30027e-05
6.564e-05
2.65395e-05
2.49632e-05
2.0383e-05
1.79069e-05
2.07582e-05
4.59639e-05
7.11085e-06
2.31459e-05
2.91036e-05
6.02129e-06
4.35672e-05
1.3716e-05
2.26206e-05
3.45535e-05
1.24842e-05
1.34366e-05
2.12073e-05
9.05812e-06
1.48748e-05
2.32458e-05
2.26088e-05
5.85221e-06
8.72968e-05
3.60934e-05
6.40797e-06
8.20983e-05
1.14325e-05
8.20125e-06
5.21731e-05
1.56256e-05
6.09034e-06
2.4468e-05
5.49471e-06
1.75218e-05
0.000158225
3.89762e-05
6.97014e-06
7.79974e-06
9.43763e-06
6.28371e-05
4.25232e-05
1.51795e-05
2.28953e-05
1.58672e-05
1.26622e-05
3.93078e-05
7.04496e-06
1.43823e-05
2.79925e-05
5.25404e-06
3.87605e-05
2.09898e-05
2.29402e-05
3.81075e-05
1.1851e-05
1.73811e-05
1.78698e-05
8.3587e-06
1.29767e-05
2.05199e-05
1.60362e-05
5.34746e-06
6.06049e-05
3.22656e-05
6.02368e-06
6.95818e-05
1.05127e-05
9.09937e-06
3.36266e-05
1.67025e-05
4.69681e-06
3.27789e-05
4.94933e-06
1.52545e-05
0.000165064
4.28261e-05
7.75045e-06
7.6622e-06
7.65317e-06
5.79292e-05
5.46367e-05
9.02344e-06
1.49033e-05
1.60762e-05
1.05831e-05
3.33186e-05
9.41748e-06
7.9689e-06
2.66906e-05
6.58616e-06
3.62436e-05
2.60636e-05
2.03488e-05
3.84885e-05
1.02777e-05
2.38527e-05
1.48676e-05
6.87744e-06
1.05354e-05
1.50417e-05
1.03084e-05
5.35054e-06
3.61181e-05
3.38226e-05
6.49573e-06
4.13797e-05
1.22988e-05
9.13637e-06
1.84559e-05
2.24495e-05
5.19237e-06
3.99634e-05
4.78029e-06
1.27566e-05
0.000142025
4.57964e-05
8.55981e-06
7.47212e-06
7.35802e-06
5.22285e-05
6.56256e-05
8.26451e-06
1.03545e-05
1.42865e-05
9.49865e-06
3.1847e-05
1.05797e-05
6.01724e-06
1.92214e-05
8.40616e-06
3.23892e-05
2.7644e-05
1.33325e-05
3.25253e-05
8.59589e-06
3.11003e-05
1.77995e-05
6.21431e-06
7.91839e-06
1.28525e-05
7.42344e-06
5.99191e-06
2.70072e-05
3.1243e-05
8.81358e-06
1.81763e-05
7.78392e-06
1.05001e-05
9.60828e-06
2.84186e-05
5.44179e-06
5.18944e-05
4.77355e-06
7.32645e-06
0.000122503
2.83264e-05
1.21903e-05
6.91744e-06
1.07379e-05
5.54689e-05
6.15651e-05
6.61949e-06
8.35198e-06
9.82124e-06
7.28391e-06
2.84885e-05
8.53043e-06
6.0118e-06
1.42659e-05
1.0798e-05
2.87732e-05
2.92049e-05
7.10958e-06
1.96219e-05
7.88802e-06
3.21902e-05
2.11763e-05
6.66532e-06
6.57525e-06
1.29996e-05
5.49578e-06
9.60802e-06
3.03165e-05
1.79929e-05
5.50771e-06
1.36885e-05
5.04321e-06
7.46365e-06
3.37958e-06
5.13093e-05
5.29134e-06
5.43538e-05
4.68916e-06
4.20976e-06
9.54431e-05
2.0701e-05
1.89185e-05
6.54865e-06
1.48171e-05
4.83573e-05
5.01741e-05
5.85379e-06
8.00027e-06
7.45336e-06
7.26737e-06
2.52069e-05
6.3898e-06
6.05075e-06
1.21206e-05
1.7823e-05
3.53018e-05
2.62292e-05
4.88723e-06
1.17576e-05
8.64476e-06
2.57216e-05
1.86778e-05
7.50619e-06
5.98568e-06
1.25997e-05
6.35321e-06
1.48656e-05
2.62964e-05
1.192e-05
4.01196e-06
1.35306e-05
7.52413e-06
3.56808e-06
4.52883e-06
7.90947e-05
1.11251e-05
5.01424e-05
5.69042e-06
5.16016e-06
6.69549e-05
2.10144e-05
2.27772e-05
4.24429e-06
6.60505e-06
2.31435e-05
3.27343e-05
5.0309e-06
5.03962e-06
5.28428e-06
7.94434e-06
2.92145e-05
4.26023e-06
5.57532e-06
6.45808e-06
1.12021e-05
3.12773e-05
2.35582e-05
4.05478e-06
7.96598e-06
8.57223e-06
2.67424e-05
2.4376e-05
7.38334e-06
6.28521e-06
1.42375e-05
6.72079e-06
1.3294e-05
1.82392e-05
6.24694e-06
2.96616e-06
7.14728e-06
1.21609e-05
2.7101e-06
7.80114e-06
0.000112368
2.90985e-05
3.59192e-05
8.64596e-06
5.59154e-06
3.8999e-05
1.68282e-05
2.61254e-05
4.62876e-06
3.95236e-06
8.81065e-06
2.03309e-05
4.20412e-06
3.59429e-06
4.17501e-06
6.63782e-06
2.50169e-05
8.19518e-06
4.01672e-06
4.20393e-06
2.8254e-06
1.2567e-05
1.69061e-05
3.83987e-06
4.79703e-06
9.98763e-06
2.53152e-05
2.72165e-05
7.02101e-06
5.65652e-06
8.81764e-06
5.14205e-06
9.48767e-06
1.02789e-05
2.85245e-06
2.96437e-06
3.57723e-06
1.69863e-05
3.2788e-06
1.39277e-05
0.000141962
5.36627e-05
2.11928e-05
1.30832e-05
5.51757e-06
1.51769e-05
9.3612e-06
2.78285e-05
4.43726e-06
8.76556e-06
7.86753e-06
1.24637e-05
3.52035e-06
3.32797e-06
7.89035e-06
5.02841e-06
9.41677e-06
8.15298e-06
6.04393e-06
6.93328e-06
2.40304e-06
2.36371e-06
3.33734e-06
4.56955e-06
5.3604e-06
9.05181e-06
1.43267e-05
1.37498e-05
4.94627e-06
4.33487e-06
4.81996e-06
4.13557e-06
8.5849e-06
4.68866e-06
3.64685e-06
3.67093e-06
2.79692e-06
1.16608e-05
2.24969e-06
1.04178e-05
0.000155707
9.33658e-05
8.87198e-06
2.11592e-05
3.41135e-06
6.80542e-06
8.03925e-06
1.62042e-05
3.09023e-06
1.34248e-05
1.16447e-05
1.17209e-05
2.47314e-06
2.60439e-06
1.52986e-05
5.08684e-06
2.10103e-06
3.78167e-06
5.07138e-06
9.447e-06
3.15232e-06
5.50726e-06
2.82512e-06
3.1559e-06
4.71267e-06
7.44129e-06
1.23676e-05
1.15384e-05
4.83268e-06
4.36839e-06
4.69409e-06
3.61766e-06
1.54989e-05
1.80587e-05
2.12467e-06
8.0787e-06
4.93499e-06
9.95926e-06
3.85626e-06
4.62702e-06
0.000109128
8.95269e-05
4.36193e-06
2.39647e-05
2.53524e-06
6.68232e-06
1.36707e-05
4.99373e-06
2.75512e-06
8.77669e-06
4.34432e-06
4.00149e-06
1.96563e-06
3.5991e-06
9.58456e-06
5.24012e-06
6.49688e-06
2.92269e-06
3.16007e-06
6.07603e-06
3.08236e-06
4.21869e-06
2.44884e-06
7.27563e-06
4.61191e-06
9.74623e-06
1.78322e-05
1.48689e-05
4.05091e-06
4.09348e-06
4.604e-06
3.25916e-06
1.61035e-05
2.78693e-05
2.60801e-06
1.48362e-05
1.29342e-05
6.4194e-06
2.80006e-06
1.11082e-06
7.6487e-05
8.21514e-05
2.02232e-06
1.97929e-05
2.56423e-06
3.40172e-06
1.38142e-05
1.78988e-06
3.16835e-06
3.792e-06
3.46949e-06
4.57509e-06
1.3059e-06
3.99e-06
8.0104e-06
1.43828e-05
1.95995e-06
2.01045e-06
1.63509e-06
2.1046e-06
3.22827e-06
1.38721e-06
3.35624e-06
9.09175e-06
3.20725e-06
3.56809e-06
9.82022e-06
1.20761e-05
3.12965e-06
2.73693e-06
1.98399e-06
5.36371e-06
9.34728e-06
1.52291e-05
1.40668e-06
1.86085e-05
2.04647e-05
4.32934e-06
3.47686e-06
9.79877e-07
5.97082e-05
8.73286e-05
3.7077e-06
1.13816e-05
6.46709e-06
5.4131e-06
1.04345e-05
1.63608e-06
4.93952e-06
2.04675e-06
4.54223e-06
6.85929e-06
2.51901e-06
3.58048e-06
1.06333e-05
2.76587e-05
1.40547e-06
2.31897e-06
1.6005e-06
4.16161e-06
9.89548e-06
2.96181e-06
5.26097e-06
1.36251e-05
2.45876e-06
1.89231e-06
8.54697e-06
1.72266e-05
6.06978e-06
5.06291e-06
3.41195e-06
6.983e-06
3.4424e-06
1.22605e-05
3.00849e-06
3.53511e-05
3.52846e-05
1.23847e-05
1.78533e-05
1.00857e-06
2.56093e-05
3.26345e-05
1.83441e-06
8.96634e-06
5.38203e-06
4.46047e-06
1.32796e-05
9.56513e-06
1.12953e-06
2.18843e-06
5.17315e-06
9.48141e-06
6.69057e-06
1.44033e-06
1.3834e-05
4.6676e-05
2.35312e-06
2.02633e-06
1.85675e-06
1.35959e-06
3.11821e-06
1.37772e-06
1.80242e-06
1.1143e-05
3.16256e-06
1.66396e-06
5.8264e-06
1.09667e-05
4.21747e-06
7.16401e-06
1.02938e-05
2.59719e-06
4.79158e-06
2.39409e-05
4.32076e-06
1.70621e-05
1.75521e-05
4.05426e-06
6.09908e-06
3.91109e-06
5.083e-06
1.46206e-05
2.01974e-06
5.08717e-06
5.7727e-06
2.10697e-06
1.31034e-06
1.00151e-06
1.84317e-06
5.76804e-07
1.48419e-06
2.9699e-06
3.4015e-06
9.76102e-07
9.13736e-06
3.7058e-05
1.916e-06
9.52361e-07
8.75376e-07
8.5649e-07
4.77679e-06
3.5511e-06
1.55171e-06
4.74345e-06
1.41912e-06
9.9409e-06
1.03629e-06
6.7851e-06
2.57146e-06
5.49457e-06
1.71962e-05
8.47323e-07
2.68687e-06
2.25224e-05
2.80908e-06
5.19313e-06
1.11409e-05
6.86541e-06
9.01032e-06
2.74995e-06
2.67479e-06
1.00179e-05
2.16544e-06
2.5148e-06
7.99565e-06
7.89804e-06
3.17877e-06
4.48075e-06
1.52507e-06
1.09446e-06
5.3311e-07
6.80778e-07
5.88655e-07
6.04246e-06
7.05316e-07
1.49412e-05
1.7586e-06
6.09992e-07
8.27432e-07
1.15764e-06
2.45624e-06
2.8152e-06
1.6496e-06
1.10275e-05
6.18573e-06
1.01752e-06
8.75677e-07
2.45338e-06
1.0434e-06
1.24284e-06
3.84548e-06
8.12577e-07
1.92399e-06
2.26198e-05
2.14885e-06
5.12118e-07
2.1169e-06
6.04898e-06
6.10433e-07
7.01626e-06
6.97504e-07
4.85685e-06
1.0831e-06
1.04881e-06
2.29743e-06
7.10214e-06
1.69372e-06
1.73986e-06
2.38446e-06
6.1383e-06
3.99085e-06
5.1703e-06
6.16838e-06
4.13895e-07
4.70361e-06
1.72839e-05
3.67412e-06
4.42055e-06
2.65255e-06
6.24749e-07
3.68175e-06
1.37075e-06
1.00883e-06
1.42174e-06
1.10094e-06
1.25982e-05
7.65148e-06
3.43777e-06
3.67014e-06
3.55619e-06
2.22872e-06
2.49578e-06
6.26881e-07
1.16705e-05
6.53125e-06
6.2864e-07
1.29324e-05
4.03909e-06
5.3675e-07
4.90953e-06
5.90075e-07
2.70316e-06
7.49835e-07
4.80544e-06
8.4381e-07
3.0257e-06
1.0369e-06
1.28947e-06
1.53942e-06
2.23394e-06
6.61854e-07
3.4237e-06
5.63466e-06
1.14158e-06
5.09363e-07
7.29045e-06
2.64025e-06
7.11732e-06
4.00528e-06
8.34649e-07
2.95633e-06
2.97247e-06
4.79794e-07
1.09198e-05
8.40819e-06
7.26272e-07
8.72818e-07
2.07316e-06
6.3535e-07
6.37226e-07
1.74348e-06
5.82154e-06
1.72685e-06
2.74046e-06
7.16782e-06
8.62839e-07
3.91454e-06
2.45975e-06
2.65218e-06
7.61931e-06
6.27415e-06
3.01637e-06
6.90168e-06
3.87255e-06
9.13477e-06
1.41787e-05
9.07974e-07
1.70387e-06
1.97794e-06
9.02204e-07
2.16437e-06
4.20966e-07
4.11761e-06
1.0159e-06
1.61526e-06
7.26182e-07
4.63673e-07
4.31552e-06
5.92673e-06
9.97194e-07
1.49907e-06
4.75128e-06
2.0735e-06
1.86753e-06
6.25511e-06
5.84001e-07
9.50285e-07
1.02196e-06
7.05117e-07
1.53987e-06
6.06832e-07
1.25142e-05
6.11678e-07
4.75041e-07
2.2506e-06
9.55766e-07
1.01862e-06
8.56851e-07
1.06752e-06
7.09238e-07
5.10577e-06
1.99117e-06
1.26124e-06
2.46011e-06
8.75792e-07
7.85452e-06
6.87226e-06
2.02036e-06
6.40845e-07
7.97282e-07
8.68049e-07
8.65858e-07
2.05138e-06
1.66339e-06
5.17255e-07
7.86155e-07
5.45874e-07
5.19611e-07
1.11968e-06
6.17476e-07
6.03518e-07
9.17866e-06
7.39695e-07
1.39237e-06
9.51632e-06
6.44446e-07
5.78833e-07
7.50216e-07
4.97613e-06
2.25292e-06
6.38014e-07
1.59022e-05
5.08996e-06
9.02001e-07
3.80261e-06
5.77177e-07
1.74667e-06
3.37232e-06
3.13602e-06
9.74425e-07
8.63019e-06
2.57838e-06
3.71477e-06
6.50584e-07
1.02714e-06
1.67682e-06
1.78663e-06
1.72581e-06
5.3366e-06
4.42884e-07
2.61821e-06
1.06477e-06
5.37794e-07
3.42724e-06
4.35212e-07
2.18949e-06
6.38013e-06
2.311e-06
5.39313e-06
4.02675e-06
4.18367e-07
2.62866e-06
1.04029e-06
1.12563e-06
3.96437e-06
2.16577e-06
9.21689e-07
4.85426e-06
1.31684e-05
2.80376e-06
2.11605e-06
1.2645e-05
5.91378e-06
3.83247e-07
1.35312e-06
9.19727e-07
1.57381e-06
1.55151e-05
4.82576e-05
9.21776e-06
0.00027911
4.68398e-05
4.94985e-05
9.7216e-06
1.15843e-05
6.70674e-05
1.68169e-05
8.03393e-05
0.000178728
1.04579e-05
0.000103412
1.44032e-05
1.12424e-05
6.16063e-06
7.17552e-05
4.70384e-06
3.37642e-05
6.92254e-06
7.00148e-06
2.4583e-05
4.31672e-05
1.29319e-05
2.2628e-05
8.9854e-06
5.90644e-05
0.000135923
4.89002e-05
1.9621e-05
6.77376e-06
1.07838e-05
4.14616e-05
7.10461e-05
1.92133e-05
7.84422e-05
0.000145646
1.07923e-05
2.33696e-05
3.20434e-05
8.0977e-05
5.32722e-06
0.000216109
2.40766e-05
8.17994e-05
2.16659e-05
2.46064e-05
0.000102865
3.13322e-05
5.3754e-05
0.000135132
1.64189e-05
0.000148674
3.04996e-05
8.32368e-06
8.72869e-06
4.28682e-05
9.97617e-06
5.99252e-05
1.751e-05
1.71338e-05
1.16709e-05
2.43063e-05
2.45365e-05
4.0642e-05
1.51722e-05
9.25354e-05
0.000186435
7.94342e-05
3.94621e-05
1.3719e-05
2.24588e-05
6.9341e-05
0.000110798
4.06929e-05
4.77259e-05
0.000105063
9.8807e-06
4.45112e-05
1.58943e-05
4.79652e-05
1.13178e-05
0.000294474
4.59558e-05
4.73018e-05
8.997e-06
1.24914e-05
6.90326e-05
1.58926e-05
8.45934e-05
0.000182512
1.03682e-05
0.000101982
1.46054e-05
1.03706e-05
6.84043e-06
7.46598e-05
5.01083e-06
3.13235e-05
6.54058e-06
7.29817e-06
2.72019e-05
4.83747e-05
1.17192e-05
2.115e-05
8.96717e-06
5.86219e-05
0.000136016
4.80951e-05
1.9774e-05
6.69215e-06
1.12095e-05
3.89368e-05
6.92928e-05
2.16209e-05
7.92856e-05
0.000157323
1.0263e-05
2.50821e-05
2.87942e-05
6.44939e-05
8.42376e-06
0.000259666
2.60492e-05
6.8813e-05
1.46884e-05
2.09347e-05
9.84328e-05
2.43194e-05
5.90705e-05
0.000149127
1.46785e-05
0.000137478
2.34243e-05
8.8046e-06
9.12599e-06
4.97256e-05
8.78802e-06
5.29962e-05
1.03197e-05
1.07673e-05
1.6742e-05
3.31444e-05
1.92741e-05
3.36499e-05
1.21631e-05
7.90183e-05
0.000168958
6.56824e-05
3.15936e-05
9.51826e-06
1.72605e-05
5.46053e-05
9.21671e-05
3.27717e-05
6.48329e-05
0.000141485
8.8926e-06
3.53051e-05
2.59528e-05
5.46076e-05
1.31152e-05
0.000307806
2.97278e-05
7.23109e-05
1.0341e-05
1.76771e-05
9.1877e-05
2.02276e-05
6.6817e-05
0.000163143
1.36174e-05
0.000130302
1.85067e-05
8.92419e-06
7.60353e-06
4.96747e-05
7.28932e-06
4.95445e-05
8.27162e-06
7.20726e-06
2.03318e-05
3.32174e-05
1.63391e-05
3.10155e-05
1.16332e-05
6.90946e-05
0.000161542
6.33423e-05
3.0575e-05
6.48333e-06
1.59714e-05
4.92318e-05
7.94611e-05
2.81197e-05
8.12953e-05
0.000180871
1.06403e-05
2.33398e-05
3.41423e-05
6.72257e-05
1.11738e-05
0.000310049
2.6877e-05
9.63182e-05
1.54604e-05
2.23333e-05
0.000107301
2.27734e-05
6.81689e-05
0.000146909
1.45993e-05
0.000150209
2.18097e-05
8.26996e-06
9.39451e-06
3.60229e-05
8.35411e-06
5.19477e-05
1.17201e-05
7.52183e-06
1.39709e-05
1.53813e-05
2.32904e-05
3.86908e-05
1.50817e-05
8.19308e-05
0.000176054
7.57027e-05
4.46542e-05
8.97585e-06
1.7017e-05
6.64404e-05
9.56438e-05
3.83293e-05
6.78791e-05
0.000171821
9.90239e-06
2.92086e-05
3.33502e-05
6.87723e-05
1.10008e-05
0.000322931
3.52244e-05
9.82583e-05
1.54672e-05
1.9059e-05
0.000105253
2.26189e-05
8.15349e-05
0.000151415
1.34638e-05
0.00014032
1.89353e-05
7.69851e-06
1.02494e-05
4.26871e-05
8.47231e-06
4.33379e-05
6.21425e-06
6.29686e-06
1.31081e-05
9.28219e-06
2.94046e-05
3.20421e-05
1.23433e-05
7.70458e-05
0.000159899
7.14069e-05
4.16173e-05
9.9647e-06
1.42249e-05
6.06543e-05
8.80882e-05
3.98053e-05
7.24905e-05
0.000160897
1.00058e-05
3.45054e-05
3.20587e-05
7.40392e-05
6.80477e-06
0.000266595
3.29033e-05
0.000107607
1.32033e-05
1.88861e-05
0.000105736
2.39297e-05
8.74478e-05
0.000155353
1.17987e-05
0.00013562
1.61113e-05
7.60041e-06
1.11794e-05
4.09835e-05
1.34076e-05
5.08107e-05
5.57928e-06
5.31028e-06
9.10188e-06
6.80563e-06
3.59849e-05
3.12688e-05
1.17875e-05
6.43027e-05
0.000147927
7.15663e-05
3.99337e-05
8.78265e-06
1.56565e-05
6.40769e-05
9.82154e-05
3.86036e-05
8.10928e-05
0.000147175
8.59491e-06
3.96712e-05
2.37393e-05
6.34133e-05
6.0753e-06
0.000197613
2.51188e-05
0.000103021
1.38578e-05
1.58451e-05
9.97681e-05
1.99829e-05
8.84307e-05
0.000163746
8.37276e-06
0.000123456
1.22757e-05
9.04994e-06
1.05311e-05
3.8626e-05
1.43783e-05
6.36382e-05
5.95539e-06
8.85499e-06
8.41987e-06
7.85009e-06
3.83213e-05
2.88869e-05
8.2748e-06
4.26558e-05
0.000139256
5.75703e-05
3.56975e-05
7.70546e-06
1.00732e-05
5.51066e-05
8.21716e-05
2.63687e-05
0.000136356
0.000193345
8.46983e-06
3.6059e-05
1.76138e-05
5.43257e-05
6.83448e-06
0.000138524
1.612e-05
0.000103546
2.61429e-05
1.16178e-05
9.74305e-05
1.67244e-05
6.96014e-05
0.000143547
8.15208e-06
0.000134121
1.24852e-05
1.03579e-05
1.04105e-05
3.43944e-05
1.19574e-05
8.80276e-05
6.71803e-06
9.1704e-06
6.76866e-06
1.336e-05
4.52653e-05
2.24838e-05
7.30241e-06
2.62438e-05
0.000130008
5.12784e-05
3.67475e-05
9.44016e-06
8.62766e-06
5.5218e-05
5.87307e-05
2.22643e-05
0.000190896
0.000205921
1.05918e-05
4.36685e-05
1.20242e-05
4.43018e-05
7.85623e-06
0.000117424
1.4205e-05
0.000105889
3.41971e-05
1.08322e-05
8.22322e-05
1.39149e-05
6.56996e-05
0.000117913
8.44491e-06
0.000129655
1.08301e-05
1.11791e-05
1.03351e-05
3.24308e-05
1.00182e-05
9.76602e-05
7.18126e-06
7.82555e-06
6.93794e-06
1.54024e-05
5.49573e-05
1.54183e-05
7.94088e-06
1.21423e-05
8.06086e-05
5.00858e-05
3.20476e-05
8.99948e-06
1.28487e-05
6.82244e-05
5.26373e-05
3.44137e-05
0.00012454
0.00014682
1.19618e-05
4.38963e-05
9.89644e-06
3.51869e-05
5.91346e-06
0.000101845
1.52826e-05
0.000106673
3.65105e-05
1.66866e-05
8.44851e-05
1.39909e-05
7.41856e-05
0.000101543
9.40832e-06
0.000111034
8.65549e-06
1.32157e-05
1.02913e-05
2.27386e-05
9.11667e-06
9.6351e-05
5.93419e-06
8.16506e-06
6.68389e-06
1.34277e-05
6.03309e-05
1.45443e-05
8.31511e-06
8.48067e-06
4.37455e-05
4.54823e-05
2.47034e-05
7.75291e-06
1.60837e-05
8.87345e-05
8.35149e-05
2.85286e-05
0.000107668
0.00011242
1.35364e-05
4.13309e-05
7.29619e-06
2.56329e-05
3.90261e-06
8.01787e-05
1.55662e-05
9.16784e-05
3.47347e-05
1.75344e-05
8.84685e-05
1.6427e-05
7.01116e-05
7.67234e-05
9.20231e-06
9.74467e-05
8.37831e-06
1.48418e-05
8.99684e-06
1.83357e-05
5.25652e-06
8.45897e-05
5.74017e-06
1.00303e-05
6.14457e-06
9.65081e-06
5.24162e-05
1.72583e-05
8.55075e-06
1.0006e-05
3.32791e-05
2.895e-05
1.87101e-05
6.28761e-06
1.39245e-05
9.61194e-05
7.21952e-05
8.91718e-06
9.28339e-05
8.41646e-05
1.37425e-05
3.34238e-05
4.91447e-06
1.93607e-05
3.71759e-06
6.21988e-05
1.06128e-05
7.5074e-05
2.64171e-05
1.98349e-05
8.5866e-05
1.23561e-05
5.69469e-05
3.48242e-05
8.40681e-06
8.6788e-05
8.13577e-06
1.22004e-05
9.09746e-06
1.60974e-05
3.80826e-06
6.268e-05
5.5544e-06
9.67711e-06
5.36607e-06
6.53257e-06
3.91078e-05
1.95559e-05
8.80816e-06
1.88045e-05
3.19692e-05
2.26017e-05
1.89573e-05
6.29564e-06
1.28268e-05
8.37538e-05
5.81962e-05
5.62752e-06
7.48198e-05
5.23033e-05
1.89135e-05
2.79471e-05
4.81337e-06
1.94272e-05
4.33535e-06
5.45138e-05
7.82787e-06
7.08736e-05
2.38155e-05
1.8088e-05
7.67533e-05
7.11763e-06
5.70411e-05
1.53256e-05
6.5295e-06
6.0055e-05
1.02206e-05
9.03702e-06
1.03479e-05
1.3047e-05
4.29164e-06
4.06089e-05
5.0154e-06
9.14249e-06
4.951e-06
4.46859e-06
2.3345e-05
1.50223e-05
7.93593e-06
2.52576e-05
3.20306e-05
2.6313e-05
2.24715e-05
8.51575e-06
1.26028e-05
7.36242e-05
6.32171e-05
6.3959e-06
4.28937e-05
3.67609e-05
2.01982e-05
3.08083e-05
4.28484e-06
1.79152e-05
5.94119e-06
3.97401e-05
6.53716e-06
5.80716e-05
2.23121e-05
9.52148e-06
5.08475e-05
6.41328e-06
5.15497e-05
1.01124e-05
5.89296e-06
3.15251e-05
1.0378e-05
9.17299e-06
8.83327e-06
7.54504e-06
3.92376e-06
3.10014e-05
4.0822e-06
5.78665e-06
5.05057e-06
4.5851e-06
1.12385e-05
1.06662e-05
5.90067e-06
2.32529e-05
4.08708e-05
2.92271e-05
2.42606e-05
9.57199e-06
1.16261e-05
7.2455e-05
7.96069e-05
1.36085e-05
1.54954e-05
2.39716e-05
1.95716e-05
3.11068e-05
3.96933e-06
9.61528e-06
2.98042e-06
5.31808e-05
9.40642e-06
4.0747e-05
1.69168e-05
6.1915e-06
4.05559e-05
6.00536e-06
3.00246e-05
5.83257e-06
4.39712e-06
1.86599e-05
1.30239e-05
5.79929e-06
6.76992e-06
3.20382e-06
3.0128e-06
2.65689e-05
3.13211e-06
3.18817e-06
2.94601e-06
5.66753e-06
4.71e-06
7.32808e-06
5.47994e-06
1.76897e-05
4.24112e-05
2.77567e-05
1.82772e-05
8.24432e-06
8.79192e-06
5.94044e-05
7.1855e-05
2.63664e-05
5.97469e-06
1.34826e-05
1.94455e-05
2.27315e-05
4.70982e-06
4.46355e-06
6.32221e-06
7.03169e-05
1.41155e-05
3.16098e-05
1.40778e-05
4.34251e-06
3.93366e-05
1.06568e-05
1.62813e-05
4.47865e-06
4.29675e-06
1.55791e-05
2.01365e-05
3.09956e-06
6.26578e-06
4.8683e-06
5.41866e-06
2.67884e-05
3.3263e-06
3.21875e-06
2.83628e-06
5.91001e-06
3.94182e-06
3.96532e-06
4.16126e-06
1.21353e-05
3.60613e-05
3.11474e-05
1.38479e-05
7.43017e-06
6.35631e-06
5.03152e-05
5.11521e-05
2.50152e-05
4.31312e-06
1.05126e-05
1.87619e-05
1.76143e-05
3.0249e-06
8.76184e-06
2.48488e-06
5.12489e-05
1.53405e-05
1.97745e-05
1.10672e-05
3.73629e-06
2.11565e-05
1.68229e-05
1.32459e-05
3.46652e-06
4.75785e-06
1.2812e-05
2.65037e-05
3.1786e-06
4.727e-06
1.012e-05
7.25616e-06
1.59731e-05
5.40136e-06
6.68554e-06
4.6771e-06
6.81364e-06
1.1642e-05
4.1369e-06
3.36238e-06
5.31075e-06
2.20393e-05
3.15452e-05
2.31913e-05
6.2262e-06
6.27922e-06
2.68711e-05
3.2163e-05
2.80233e-05
4.65754e-06
6.46726e-06
1.82979e-05
2.03519e-05
4.53849e-06
1.5328e-05
3.40863e-06
2.91922e-05
1.18942e-05
1.83243e-05
1.35326e-05
5.5255e-06
9.71631e-06
1.79429e-05
1.11845e-05
3.28331e-06
4.8328e-06
5.73272e-06
2.06519e-05
4.13705e-06
2.801e-06
8.23201e-06
6.30867e-06
7.64052e-06
3.47175e-06
4.89103e-06
1.59308e-05
1.98628e-06
2.06521e-05
1.10214e-05
3.87582e-06
3.34841e-06
1.48629e-05
1.77573e-05
1.99964e-05
4.64224e-06
4.59431e-06
1.65811e-05
1.71688e-05
2.30762e-05
6.0825e-06
2.39478e-06
2.3993e-05
2.8032e-05
9.94703e-06
2.76249e-05
7.4521e-06
2.75354e-05
2.07146e-05
9.35002e-06
1.21533e-05
7.40827e-06
2.08344e-06
1.41725e-05
3.15958e-06
2.10163e-06
5.97845e-06
5.48364e-06
1.94788e-05
4.13651e-06
2.05148e-06
4.13165e-06
4.01988e-06
4.67399e-06
5.98196e-06
4.25803e-06
8.53278e-06
2.55733e-06
1.2435e-05
4.78774e-06
2.58117e-06
2.88113e-06
6.14363e-06
5.74116e-06
8.10468e-06
3.6003e-06
3.42634e-06
8.85503e-06
8.19415e-06
2.26003e-05
6.83094e-06
3.10153e-06
2.33805e-05
3.64192e-05
1.46255e-06
5.20894e-06
2.85142e-06
2.89432e-05
3.21267e-05
2.97476e-06
1.16837e-05
2.16932e-06
2.75465e-06
1.37939e-05
1.8124e-06
1.71357e-06
2.95635e-06
2.14835e-06
1.08245e-05
2.99462e-06
6.23279e-06
1.75832e-06
3.05292e-06
1.79286e-06
5.58684e-06
3.98056e-06
4.23203e-06
2.81032e-06
5.68111e-06
1.85029e-06
9.87583e-06
5.41831e-06
4.89327e-06
6.08312e-06
7.77252e-06
3.32808e-06
3.90464e-06
1.22212e-05
7.06406e-06
2.19836e-05
3.94804e-06
1.30145e-05
5.47325e-06
1.80184e-05
3.49179e-06
1.35071e-06
4.15164e-06
1.23474e-05
1.28211e-05
6.48953e-06
2.31525e-05
4.29609e-06
5.20436e-06
1.94251e-05
4.98681e-06
2.00406e-06
3.30849e-06
2.01616e-06
1.24131e-05
6.35167e-06
8.23408e-06
3.02887e-06
2.10755e-06
1.8467e-06
4.76198e-06
2.61053e-06
2.04953e-06
3.96885e-06
2.0348e-06
2.03889e-06
1.17233e-05
5.95773e-06
2.33971e-06
3.5504e-06
7.22269e-06
4.49528e-06
6.67935e-06
1.24084e-05
4.43812e-06
2.75117e-05
2.23554e-05
1.79883e-06
6.34712e-06
9.03301e-06
8.22241e-07
2.78003e-06
3.94166e-06
2.51765e-05
3.57331e-05
1.68826e-06
1.55934e-05
1.17557e-05
7.21869e-06
1.25568e-05
3.70824e-06
1.05099e-06
8.12766e-07
1.50396e-06
2.61191e-06
1.90609e-06
1.26606e-05
1.37694e-06
3.81546e-06
2.30015e-06
2.47059e-06
3.09384e-06
2.21963e-06
4.30495e-06
1.63515e-06
1.85761e-06
1.05243e-05
3.05359e-06
2.80334e-06
1.97715e-06
2.91888e-06
1.8927e-06
2.88929e-06
6.63326e-06
1.61233e-06
1.28798e-05
1.70804e-05
1.79869e-06
2.19709e-05
2.24789e-05
4.23989e-06
1.59497e-06
2.8167e-06
9.7919e-06
7.95734e-06
1.05197e-05
2.49373e-05
1.99871e-05
1.19488e-05
1.40116e-05
1.15922e-05
4.90093e-06
4.47732e-06
1.10409e-06
4.41542e-06
3.91076e-06
1.22104e-05
2.31791e-06
4.58154e-06
3.10195e-06
1.01039e-06
2.03103e-06
1.26745e-06
1.18456e-06
1.59309e-06
1.58951e-06
1.71991e-05
6.94707e-06
1.64607e-06
1.52786e-06
2.61531e-06
1.76745e-06
5.54418e-06
1.35666e-05
1.31605e-06
7.47289e-06
1.67365e-05
2.01935e-06
1.77576e-05
1.33892e-05
5.06731e-06
2.20317e-06
3.84183e-06
8.71637e-06
1.57998e-05
2.47088e-06
8.89472e-06
1.82218e-05
1.41327e-05
6.71362e-06
4.55767e-06
1.03932e-06
5.98816e-07
1.29391e-06
6.28635e-07
6.26198e-07
1.72752e-05
2.81383e-06
7.63089e-06
1.04552e-06
1.13549e-06
3.16839e-06
1.36026e-06
5.06077e-06
2.13139e-06
1.40213e-06
6.25058e-06
1.40027e-06
1.15113e-05
2.9168e-06
5.12304e-06
4.51065e-06
4.28514e-06
1.0166e-05
1.2417e-06
5.58263e-07
7.79068e-06
6.54603e-07
3.72662e-06
6.44253e-06
1.78413e-06
1.67658e-06
5.24524e-06
2.44567e-06
9.05288e-06
1.73801e-06
2.51914e-06
1.07985e-05
1.154e-05
3.06005e-06
4.50833e-06
5.02304e-06
2.1263e-06
2.15275e-06
1.66164e-06
5.87683e-07
1.24687e-05
3.06025e-06
8.58498e-06
8.91398e-07
1.01865e-06
3.03647e-06
1.30151e-06
6.81546e-06
5.89418e-06
3.39572e-06
1.58801e-05
1.02761e-05
1.10269e-06
1.71632e-06
1.1517e-06
1.19835e-06
1.04241e-06
4.53631e-06
9.02511e-07
8.01714e-07
9.74942e-06
1.03021e-06
1.55407e-06
7.28545e-06
2.60622e-06
8.46808e-07
7.01875e-06
8.19845e-07
2.65843e-06
2.93026e-06
1.26783e-06
4.74231e-06
1.03476e-05
3.18349e-06
2.31859e-06
1.36129e-06
1.12026e-06
8.39176e-07
7.167e-07
3.6066e-06
1.23711e-06
4.97246e-07
5.61021e-06
7.07725e-07
1.35216e-06
2.55696e-06
8.28245e-07
6.55396e-06
5.71625e-06
1.23023e-06
2.73719e-06
1.35748e-06
1.03856e-05
4.73684e-06
1.14862e-06
4.22106e-06
2.89652e-06
1.01415e-05
2.13778e-06
4.04855e-06
4.87803e-06
3.32041e-06
1.33184e-06
1.34887e-05
9.98637e-07
1.32478e-06
7.90777e-07
2.70367e-06
5.60429e-06
8.98105e-07
8.21823e-07
2.16392e-06
4.88409e-06
6.34411e-07
1.46186e-06
5.36842e-06
8.25356e-06
1.4727e-06
6.93567e-07
1.43248e-06
1.93892e-06
5.7552e-07
3.85659e-06
7.94674e-07
2.81314e-06
3.37256e-06
6.63749e-07
2.15382e-06
2.49194e-06
5.89135e-07
6.92552e-06
2.37523e-06
2.97503e-06
3.03931e-06
3.65586e-06
6.89068e-07
7.26949e-07
3.6366e-06
7.61287e-06
1.26242e-06
5.17503e-06
5.29319e-06
2.39283e-06
1.28468e-06
2.70205e-06
1.48896e-06
2.24583e-06
2.74815e-06
2.20889e-06
4.72083e-06
3.64274e-06
8.31581e-06
1.10845e-05
6.56703e-07
1.74436e-06
7.67154e-07
6.60728e-07
5.16156e-07
4.53654e-07
2.68282e-06
5.9404e-07
1.24928e-06
4.78256e-07
5.15872e-07
2.45254e-06
4.71563e-06
6.70462e-07
2.27984e-06
7.16942e-06