/*--------------------------------*- C++ -*----------------------------------*\
  =========                 |
  \\      /  F ield         | OpenFOAM: The Open Source CFD Toolbox
   \\    /   O peration     | Website:  https://openfoam.org
    \\  /    A nd           | Version:  10
     \\/     M anipulation  |
\*---------------------------------------------------------------------------*/
FoamFile
{
    format      ascii;
    class       volVectorField;
    location    "12";
    object      UMean;
}
// * * * * * * * * * * * * * * * * * * * * * * * * * * * * * * * * * * * * * //

dimensions      [0 1 -1 0 0 0 0];

internalField   nonuniform List<vector> 
25600
(
(0.06925 -0.0185687 -0.00250729)
(0.0614449 -0.0177799 0.00820153)
(0.0639886 -0.017335 0.0314285)
(0.067528 -0.0182185 0.0212397)
(0.0660852 -0.0185551 0.00208918)
(0.0647029 -0.0184248 -0.00246215)
(0.0693479 -0.0182958 -0.00779955)
(0.0659101 -0.0184607 -0.0119746)
(0.0686614 -0.0189523 -0.00371597)
(0.0799815 -0.0186776 0.00955458)
(0.0836569 -0.0185437 0.0211512)
(0.0766503 -0.0180811 0.0194969)
(0.071353 -0.0183572 -0.00312009)
(0.0783012 -0.0188086 -0.0135606)
(0.0992343 -0.0187574 -0.00273278)
(0.101589 -0.0186515 -0.00117248)
(0.087675 -0.0189973 -0.00520481)
(0.0821956 -0.0188666 -0.00114853)
(0.0896601 -0.0189864 -0.00842658)
(0.0910153 -0.0190748 -0.00462139)
(0.0804497 -0.0189867 0.00309125)
(0.0935901 -0.0182983 0.021136)
(0.117279 -0.0180885 0.0368582)
(0.127519 -0.0183565 0.0226756)
(0.150458 -0.019605 -0.00430585)
(0.165659 -0.0196222 -0.016109)
(0.156077 -0.0189376 -0.0108152)
(0.134994 -0.0182676 -0.010652)
(0.119496 -0.0185725 -0.0185872)
(0.128185 -0.0192788 -0.00976884)
(0.14996 -0.0191428 0.0103903)
(0.153143 -0.0189722 0.0168951)
(0.137226 -0.0189919 0.0116727)
(0.126381 -0.0189352 0.00349035)
(0.105842 -0.0183704 -0.0143246)
(0.0839327 -0.0196397 -0.00267447)
(0.0817022 -0.0191622 0.0365864)
(0.0682865 -0.0155441 0.0524389)
(0.0448465 -0.0151143 0.0451029)
(0.0612682 -0.0182312 0.0207792)
(0.170719 0.0130275 -0.0159971)
(0.154365 0.014019 0.0109562)
(0.152755 0.0125309 0.0395962)
(0.16275 0.01251 0.0118222)
(0.183683 0.0118733 -0.0191316)
(0.179188 0.0118033 -0.0288851)
(0.180166 0.0137907 -0.039004)
(0.187525 0.0127595 -0.0418617)
(0.190168 0.0082216 -0.0158736)
(0.197038 0.00670288 0.0114231)
(0.198185 0.00805987 0.0184385)
(0.190471 0.0122144 0.000826845)
(0.193746 0.0138982 -0.0356895)
(0.196025 0.0106853 -0.0346459)
(0.241858 0.013041 -0.0172617)
(0.279499 0.0158755 -0.0407826)
(0.24798 0.0140157 -0.0462245)
(0.219919 0.012775 -0.0267027)
(0.249369 0.0131242 -0.0466088)
(0.2532 0.0109077 -0.045407)
(0.202526 0.0102099 -0.0206954)
(0.21744 0.00942596 0.0154555)
(0.28168 0.00987065 0.0356546)
(0.320439 0.00963789 0.0095105)
(0.378623 0.00694986 -0.0314136)
(0.420654 0.0085016 -0.0518962)
(0.427054 0.0120188 -0.040378)
(0.40644 0.0116882 -0.0315523)
(0.351204 0.0110309 -0.0515762)
(0.330988 0.011378 -0.0534097)
(0.378693 0.00983367 -0.0193407)
(0.425731 0.00977554 0.0115932)
(0.403208 0.011158 0.0121287)
(0.362574 0.0126422 -0.00931419)
(0.328871 0.0133047 -0.0398623)
(0.279931 0.00778858 -0.00830461)
(0.213783 0.00646978 0.0532647)
(0.167106 0.0153606 0.0698289)
(0.133286 0.0147522 0.056254)
(0.160273 0.0112785 0.0138622)
(0.274932 0.00137332 -0.00792662)
(0.262573 0.00327323 0.0246182)
(0.240742 0.00127265 0.0548244)
(0.254268 4.88712e-05 0.0191526)
(0.320404 -0.0018605 -0.0221924)
(0.323074 -0.00357966 -0.0364118)
(0.288784 -0.00153229 -0.0454894)
(0.305862 -0.0023695 -0.0506463)
(0.312267 -0.00946818 -0.0188342)
(0.296026 -0.0121242 0.0262069)
(0.290744 -0.00856407 0.0329069)
(0.290824 -4.64585e-05 -0.00213655)
(0.310306 0.00323417 -0.0527395)
(0.291255 -0.0034481 -0.0409064)
(0.30014 -0.00319575 0.00681665)
(0.439926 0.00523182 -0.042132)
(0.448763 0.00476253 -0.0845073)
(0.370536 0.000809895 -0.0490977)
(0.414285 0.000830226 -0.0589365)
(0.445458 -0.00202414 -0.0779153)
(0.352268 -0.00500921 -0.0518986)
(0.316183 -0.00619926 0.000515856)
(0.373804 -0.00502634 0.0220249)
(0.445679 -0.00451314 -0.0210987)
(0.536043 -0.0110299 -0.0646199)
(0.57883 -0.0102659 -0.0778531)
(0.590144 -0.00332671 -0.0630839)
(0.632193 1.78163e-05 -0.0336294)
(0.624811 -0.0027039 -0.0400301)
(0.565071 -0.0047059 -0.0660171)
(0.553203 -0.00917306 -0.0611514)
(0.595592 -0.0101893 -0.0248503)
(0.618174 -0.00532349 0.0135719)
(0.600195 -0.00200807 0.00941396)
(0.627452 -0.000741965 -0.0504934)
(0.611793 -0.0109782 -0.0217227)
(0.395926 -0.0128458 0.062116)
(0.276695 0.00418667 0.0789958)
(0.243166 0.00490271 0.0641832)
(0.24925 -0.00263548 0.0229491)
(0.370332 0.0129511 0.00609067)
(0.401712 0.0172703 0.0475143)
(0.355472 0.0124243 0.0765241)
(0.326678 0.00846411 0.0440428)
(0.427166 0.00683904 0.00222154)
(0.501569 0.00850173 -0.0285795)
(0.441128 0.00592976 -0.0389464)
(0.43051 0.00234388 -0.0432212)
(0.438261 -0.00481733 -0.0279354)
(0.383824 -0.00895568 0.0310965)
(0.342504 -0.00787485 0.0647592)
(0.356231 0.0075919 0.0176128)
(0.404744 0.0180361 -0.0618223)
(0.383957 0.0100229 -0.0534838)
(0.336941 0.00359061 0.0274)
(0.461654 0.0117625 -0.00428893)
(0.600657 0.018992 -0.099281)
(0.520581 0.0148675 -0.085772)
(0.525903 0.0128488 -0.0583861)
(0.619957 0.0155493 -0.0786494)
(0.536532 0.00979604 -0.0830748)
(0.435813 0.00466523 -0.0228375)
(0.438369 0.00497651 0.0103923)
(0.511544 0.00507868 -0.0463589)
(0.637094 -0.00196329 -0.108137)
(0.703369 -0.00165323 -0.11579)
(0.661617 0.00638249 -0.0968539)
(0.67778 0.0115718 -0.0538498)
(0.748515 0.00885845 -0.0214066)
(0.768402 0.00504039 -0.0359475)
(0.771142 -0.00137233 -0.0611468)
(0.743843 -0.00594501 -0.0632934)
(0.712207 -0.000252017 -0.0294522)
(0.694702 0.00474288 0.0186466)
(0.801105 0.00334873 -0.0411517)
(1.00108 -0.00317075 -0.0689744)
(0.703358 0.000969073 0.0451356)
(0.428136 0.0180675 0.0983205)
(0.434791 0.00676242 0.0767263)
(0.347083 0.000831498 0.0250839)
(0.470584 0.00145316 0.00486821)
(0.591978 0.0143825 0.0655733)
(0.583189 0.0106267 0.104444)
(0.466263 -0.00109639 0.0690073)
(0.465364 -0.00815774 0.0465904)
(0.585563 -0.000758756 0.0246346)
(0.630842 0.000389367 -0.0110547)
(0.627254 -0.00768223 -0.0307682)
(0.625262 -0.0121815 -0.0477377)
(0.549345 -0.01584 -0.00917386)
(0.43274 -0.0246886 0.0668227)
(0.380038 -0.00938383 0.0494277)
(0.457784 0.0140011 -0.0488934)
(0.460603 0.00910271 -0.0636854)
(0.390492 -0.00325508 0.0277997)
(0.454682 0.00177019 0.030508)
(0.64637 0.0115168 -0.0740822)
(0.629757 0.013958 -0.11175)
(0.583842 0.0123624 -0.0687155)
(0.669884 0.014862 -0.0560702)
(0.674208 0.0141399 -0.0830331)
(0.581062 0.00497333 -0.0549387)
(0.541218 0.0024076 -0.00604281)
(0.589066 -0.00317288 -0.0234618)
(0.706178 -0.0155504 -0.093028)
(0.80175 -0.00939281 -0.13634)
(0.738118 0.00134415 -0.128573)
(0.702697 0.00432129 -0.0926925)
(0.769955 0.00162832 -0.0235722)
(0.830378 -0.0045812 -0.00620674)
(0.900511 -0.0108551 -0.0353795)
(0.930056 -0.0127871 -0.0575234)
(0.812018 -0.00942914 -0.0745673)
(0.742528 -0.00391099 -0.0204077)
(0.816743 -0.0155878 -0.00248793)
(1.09652 -0.0234608 -0.0769918)
(0.954956 -0.000205358 -0.0353358)
(0.731821 0.0203331 0.0810038)
(0.891364 0.00220474 0.128392)
(0.643863 -0.0141172 0.0484222)
(0.671276 0.00716617 0.014423)
(0.681497 0.0120427 0.0431762)
(0.799982 0.0181474 0.117641)
(0.711595 0.00695501 0.090167)
(0.572647 -0.0112108 0.0695989)
(0.573232 -0.005224 0.0829405)
(0.668945 -0.00269831 0.0576216)
(0.749387 -0.0144857 0.00697169)
(0.785827 -0.0148755 -0.0480556)
(0.765914 -0.00336573 -0.0662622)
(0.647492 -0.0186893 0.0140071)
(0.444682 -0.0156662 0.056022)
(0.466381 0.0131821 -0.0253359)
(0.502731 0.013008 -0.0454723)
(0.452767 -0.00359414 0.0279977)
(0.468155 1.58489e-05 0.0588043)
(0.645312 0.0117764 -0.0361158)
(0.666578 0.0216907 -0.106359)
(0.603141 0.0188132 -0.0742542)
(0.664337 0.0232794 -0.0383206)
(0.700165 0.0232256 -0.0456098)
(0.681407 0.0157821 -0.0597275)
(0.661028 0.0132052 -0.0372203)
(0.682716 -0.000138003 -0.00643766)
(0.730678 -0.0242158 -0.035203)
(0.82742 -0.016606 -0.106074)
(0.818473 0.00643275 -0.128461)
(0.758623 0.00606477 -0.132946)
(0.810285 -0.000538715 -0.0670802)
(0.888432 -0.00524477 -0.0121261)
(0.906228 -0.0139591 -0.0224372)
(0.982901 -0.0145425 -0.0347626)
(0.907287 -0.0033076 -0.079364)
(0.780735 0.00144478 -0.0549527)
(0.822022 -0.0227112 0.00620395)
(1.08159 -0.0372154 -0.0383635)
(0.989693 0.00312207 -0.0519869)
(0.702658 0.0226324 0.0265105)
(1.09596 -0.000614935 0.130119)
(1.13227 -0.00142598 0.112268)
(0.85655 0.0209108 0.0340138)
(0.723521 0.00665577 -0.0047741)
(0.835408 0.00685026 0.067723)
(0.835242 0.00808495 0.0900284)
(0.718391 -0.0097878 0.0893016)
(0.622643 -0.0106336 0.117347)
(0.687048 -0.0101615 0.10989)
(0.754498 -0.0299958 0.055505)
(0.748936 -0.033752 -0.0165757)
(0.816154 -0.0093432 -0.0691388)
(0.864988 -0.00908135 -0.0346054)
(0.610704 -0.0142743 0.0272943)
(0.480271 0.00792386 -0.00211964)
(0.562077 0.00459755 -0.0101347)
(0.55933 -0.0218416 0.0395161)
(0.520449 -0.0150121 0.0746018)
(0.640391 0.00548312 -0.00553591)
(0.674277 0.0215208 -0.086018)
(0.596608 0.0199994 -0.0711813)
(0.618579 0.0273822 -0.016405)
(0.668219 0.0236304 -0.000845802)
(0.720368 0.0135167 -0.0312859)
(0.724875 0.0176118 -0.0502682)
(0.753024 0.00154751 -0.00918104)
(0.766656 -0.0367433 -0.00347742)
(0.772649 -0.0334598 -0.0677018)
(0.860831 -0.00598681 -0.103072)
(0.868819 -0.00144467 -0.136654)
(0.875532 -0.0134111 -0.117171)
(0.950268 -0.0131565 -0.0465198)
(0.930594 -0.0192905 -0.0224776)
(0.952467 -0.0211429 -0.0270065)
(0.936276 -0.00312052 -0.0752403)
(0.843049 0.0035542 -0.0690481)
(0.855784 -0.0294346 0.00120878)
(1.03852 -0.0505626 -0.0186165)
(0.98942 0.000223337 -0.0459981)
(0.716873 0.0169899 -0.0017512)
(0.93102 -0.0278378 0.0387434)
(1.22049 -0.0108542 0.092854)
(0.900627 0.0318996 0.0396047)
(0.766313 0.0138575 -0.031923)
(0.835924 -0.000220342 -0.00695122)
(0.852249 0.00972494 0.0495876)
(0.807626 0.00125032 0.0904452)
(0.713635 -0.00614121 0.138836)
(0.719426 -0.0070003 0.142686)
(0.79075 -0.0243976 0.093903)
(0.733882 -0.035966 0.00782456)
(0.706299 -0.0211843 -0.0312473)
(0.895827 -0.00831352 -0.0174531)
(0.790308 0.00348088 0.0069086)
(0.601518 0.0152948 0.000556941)
(0.721423 -0.000254232 -0.0211699)
(0.762258 -0.0375388 0.0212908)
(0.631488 -0.0288401 0.0711855)
(0.658464 0.00334795 0.022551)
(0.670358 0.0314687 -0.0612293)
(0.593332 0.0314568 -0.0620025)
(0.566907 0.0370698 0.0149979)
(0.608979 0.0290079 0.0581058)
(0.72236 0.0125098 0.00401585)
(0.735093 0.0223683 -0.0407846)
(0.75899 0.00783225 -0.00136057)
(0.8194 -0.0346202 0.00171128)
(0.750407 -0.0457668 -0.0565408)
(0.836199 -0.0195167 -0.0772956)
(0.963997 -0.00727877 -0.108988)
(0.950323 -0.01912 -0.128153)
(0.981289 -0.0169848 -0.0674305)
(0.946631 -0.0161108 -0.0212644)
(0.922943 -0.0153425 -0.0194799)
(0.954941 0.00342517 -0.0667349)
(0.904261 0.0113205 -0.0747513)
(0.876846 -0.0294501 -0.00225776)
(1.03179 -0.0528747 -0.00101059)
(1.01116 0.0130355 -0.0261644)
(0.731307 0.0291072 -0.0257899)
(0.786025 -0.0345597 -0.0521264)
(1.10821 -0.0244203 0.0349482)
(0.882099 0.0336933 0.0360008)
(0.789574 0.0177591 -0.0359785)
(0.854902 -0.00904414 -0.0407272)
(0.874494 0.00593652 0.0205103)
(0.865585 0.00638004 0.0604379)
(0.809166 -0.00373337 0.119905)
(0.751045 -0.00669992 0.157742)
(0.815294 -0.0180075 0.124085)
(0.817312 -0.0298166 0.0193166)
(0.693864 -0.0285895 -0.0144145)
(0.802424 -0.0221559 0.0421068)
(0.821849 0.00449629 0.0499789)
(0.741561 0.0216497 -0.00350121)
(0.902158 -6.22316e-05 -0.0656212)
(0.998247 -0.0405117 -0.0408499)
(0.815406 -0.0402536 0.039824)
(0.721423 0.00256844 0.0316395)
(0.677833 0.0395853 -0.041955)
(0.585213 0.041785 -0.0522454)
(0.548012 0.0415228 0.0355054)
(0.5949 0.0212904 0.110027)
(0.70956 0.0017356 0.045319)
(0.739114 0.0186196 -0.0224598)
(0.750435 0.00670374 0.0107499)
(0.819321 -0.0338198 0.00710038)
(0.791128 -0.0559478 -0.0597761)
(0.822029 -0.0399561 -0.0655929)
(0.981212 -0.0186565 -0.0749533)
(0.991719 -0.0221968 -0.113522)
(0.979065 -0.0238821 -0.0749681)
(0.94273 -0.0167068 -0.0181749)
(0.89933 -0.0153794 -0.00988118)
(0.955823 0.00204293 -0.0529499)
(0.955422 0.0222415 -0.0747968)
(0.874316 -0.0338792 -0.00649363)
(1.02878 -0.0695185 0.00922624)
(1.07251 0.0208689 0.00195357)
(0.791848 0.0481599 -0.0258591)
(0.782658 -0.0367871 -0.0913651)
(0.990957 -0.0356327 -0.01347)
(0.882622 0.031757 0.0271246)
(0.835625 0.0253848 -0.0224864)
(0.866494 -0.0088632 -0.0448844)
(0.871048 0.00198416 0.0085309)
(0.896236 0.00764196 0.0394906)
(0.881913 -0.000887226 0.0831163)
(0.794968 -0.00364808 0.146831)
(0.812438 -0.0130011 0.146427)
(0.871645 -0.016557 0.035355)
(0.812841 -0.0204989 -0.0280938)
(0.779771 -0.0281339 0.0648793)
(0.766177 -5.7058e-05 0.108368)
(0.789059 0.0152532 0.0428274)
(0.954972 -0.00514808 -0.0346348)
(1.07157 -0.042444 -0.0415854)
(0.955695 -0.0409021 0.00955428)
(0.811519 0.00942672 0.0106068)
(0.683427 0.0538961 -0.0370262)
(0.577216 0.0576212 -0.0348192)
(0.599761 0.043554 0.0334562)
(0.691788 0.00698221 0.123611)
(0.751585 -0.0167699 0.0914453)
(0.761742 0.0107727 0.0112437)
(0.770488 0.0074765 0.0314619)
(0.803294 -0.0290895 0.0313784)
(0.809868 -0.0550497 -0.0488522)
(0.84315 -0.0563221 -0.0600132)
(0.972473 -0.0284471 -0.0437785)
(1.00787 -0.0222376 -0.0900395)
(0.966964 -0.0254913 -0.077053)
(0.923982 -0.0110092 -0.0135334)
(0.892731 -0.0101801 0.00632093)
(0.937046 0.00205353 -0.0282545)
(0.975215 0.0328505 -0.0840291)
(0.919518 -0.0193298 -0.0238849)
(0.992794 -0.0738009 0.0271269)
(1.04038 0.0210578 -0.0119334)
(0.861996 0.0610806 -0.0372529)
(0.877023 -0.0278362 -0.0927237)
(0.951629 -0.0385647 -0.0455361)
(0.913826 0.0232603 0.00155947)
(0.891344 0.0236676 -0.0193061)
(0.883421 -3.72386e-06 -0.0330991)
(0.860368 0.00517712 0.00559486)
(0.903256 0.0022598 0.0321188)
(0.924164 -0.00331417 0.0581307)
(0.850586 0.000467456 0.120252)
(0.838784 -0.00786896 0.155808)
(0.86319 -0.0152355 0.0580653)
(0.891447 -0.0067266 -0.0419858)
(0.856291 -0.0222599 0.0390605)
(0.747554 -0.0120418 0.128405)
(0.778082 -0.000845127 0.0881233)
(0.953727 -0.0178133 0.0152088)
(1.0356 -0.0519829 -0.00172589)
(0.951186 -0.0464958 0.00630954)
(0.831351 0.0178358 -0.00486279)
(0.650881 0.0705526 -0.0125421)
(0.570255 0.0653914 -0.00497777)
(0.672777 0.0405466 -0.00595601)
(0.835372 -0.00748643 0.0618724)
(0.867229 -0.0326976 0.0897069)
(0.828015 -0.000368958 0.0360243)
(0.817108 0.00717301 0.0498892)
(0.814497 -0.0209421 0.0605654)
(0.818691 -0.0534131 -0.0226383)
(0.863051 -0.0652906 -0.0519463)
(0.969576 -0.0400646 -0.0199327)
(1.00406 -0.0231868 -0.0656355)
(0.95682 -0.022013 -0.072499)
(0.906026 -0.00751531 -0.00667531)
(0.882409 -0.00476773 0.0196862)
(0.926729 0.00358874 0.00207553)
(0.975178 0.03482 -0.073608)
(0.938413 -0.00955982 -0.071484)
(0.977241 -0.0697189 0.0438731)
(1.02485 0.00328388 0.00397734)
(0.959633 0.0370143 -0.039694)
(0.989271 -0.0339689 -0.0611844)
(0.981752 -0.0358228 -0.059006)
(0.973365 0.0244779 -0.0159441)
(0.954605 0.0226172 -0.0287815)
(0.905067 0.0132049 -0.0366303)
(0.872078 0.0198702 -0.00623703)
(0.933329 0.00440625 0.0158754)
(0.95751 -0.00668324 0.0395913)
(0.892131 0.00565734 0.0900999)
(0.888007 0.00403336 0.14502)
(0.877777 -0.0127824 0.0731615)
(0.908758 -0.00732766 -0.0488786)
(0.945283 -0.00746992 -0.00526078)
(0.804824 -0.0113122 0.112743)
(0.75253 -0.0157304 0.098714)
(0.94196 -0.027612 0.0219487)
(1.01953 -0.0513286 0.0067921)
(0.882743 -0.0443438 0.00076899)
(0.74864 0.0300297 -0.00799977)
(0.592682 0.0871528 0.0148522)
(0.583358 0.0681716 9.9479e-06)
(0.710409 0.0342294 -0.0420441)
(0.882135 -0.0156172 -6.73178e-05)
(0.936524 -0.0378937 0.0531225)
(0.888402 -0.00466918 0.0401739)
(0.863291 0.00899854 0.0591604)
(0.838257 -0.011852 0.0778324)
(0.827196 -0.0440849 0.00871427)
(0.87148 -0.0704648 -0.0426892)
(0.97244 -0.0504066 -0.0100773)
(0.98989 -0.0188453 -0.0392034)
(0.933123 -0.0123138 -0.0638811)
(0.90317 -0.00184031 -0.00883354)
(0.870728 0.00323604 0.025004)
(0.904265 0.0095468 0.0182345)
(0.991145 0.0390213 -0.0538428)
(0.984204 0.00623833 -0.0971669)
(0.959682 -0.0639863 0.0191558)
(1.02243 -0.0226039 0.0399258)
(1.06764 0.00684832 0.0031227)
(1.07058 -0.0404435 -0.0104547)
(1.02333 -0.0255659 -0.0456113)
(1.02291 0.0243119 -0.0297575)
(1.01843 0.021221 -0.0338114)
(0.926073 0.0246787 -0.0353136)
(0.877629 0.0326212 -0.00876169)
(0.944157 0.00508415 0.00372468)
(0.97619 -0.0107357 0.0294323)
(0.90404 0.00685575 0.0704236)
(0.898832 0.00996332 0.114427)
(0.917394 -0.00834482 0.0738224)
(0.927039 -0.0213668 -0.0446595)
(0.963493 -0.011701 -0.0377544)
(0.855633 -0.00184313 0.0819079)
(0.774456 -0.0226429 0.0917408)
(0.944937 -0.0418799 0.0112252)
(1.02746 -0.051483 0.00334977)
(0.810982 -0.0332413 0.00148169)
(0.624301 0.0369569 -0.0186714)
(0.559182 0.0820022 0.0053244)
(0.61999 0.0598322 -0.00866247)
(0.741969 0.025003 -0.0496027)
(0.906509 -0.0219355 -0.0255226)
(0.978675 -0.0456555 0.0201186)
(0.937288 -0.0105334 0.0346192)
(0.90619 0.010924 0.0646025)
(0.860649 -0.00349691 0.0874285)
(0.836816 -0.0335302 0.0359226)
(0.87559 -0.0708072 -0.0275466)
(0.962469 -0.0591578 -0.0111804)
(0.967588 -0.0113827 -0.0149613)
(0.902193 0.00208063 -0.0459808)
(0.891861 0.00239619 -0.0143988)
(0.875619 0.0130147 0.0214734)
(0.885332 0.0161666 0.00688859)
(0.985845 0.0342855 -0.0589792)
(1.03405 0.0187906 -0.0994126)
(0.990089 -0.0531759 -0.00239193)
(1.00231 -0.0446053 0.045062)
(1.08874 -0.0163029 0.00363387)
(1.08087 -0.0414515 -0.0102068)
(1.02467 -0.0182845 -0.0367383)
(1.03211 0.0195415 -0.0434396)
(1.03223 0.0229414 -0.0420261)
(0.929088 0.0372453 -0.0308214)
(0.887184 0.042271 -0.00304872)
(0.961261 0.00845821 0.00337424)
(0.990203 -0.0103802 0.0270629)
(0.904404 0.00976689 0.0626739)
(0.860539 0.0181199 0.0854241)
(0.933301 -0.0040921 0.0602123)
(0.992633 -0.0285988 -0.0207009)
(0.963612 -0.0186014 -0.0390428)
(0.886047 0.00126787 0.0458753)
(0.85566 -0.0268349 0.0763289)
(0.964826 -0.0525964 0.00721478)
(1.02871 -0.0466071 -0.00765304)
(0.812366 -0.0192171 0.0139998)
(0.605042 0.0374404 -0.0109519)
(0.608653 0.0695997 0.00654169)
(0.693194 0.0518961 0.0221642)
(0.789867 0.0220277 -0.0113139)
(0.936195 -0.0245019 -0.0239067)
(1.01053 -0.0524741 -0.00558459)
(0.979803 -0.0164365 0.022477)
(0.948707 0.0134775 0.0634313)
(0.883819 0.00472513 0.0927999)
(0.841735 -0.0242523 0.0584721)
(0.875095 -0.0680268 -0.00482432)
(0.940671 -0.0633565 -0.00921966)
(0.936823 -0.00140852 0.00247628)
(0.881199 0.021007 -0.0232152)
(0.880164 0.00604308 -0.0119438)
(0.877835 0.0183316 0.0227321)
(0.876883 0.0224526 -0.00661026)
(0.965675 0.0262637 -0.0795183)
(1.03732 0.0211099 -0.102394)
(1.02938 -0.0402818 -0.00824157)
(1.02034 -0.0577448 0.0337005)
(1.06915 -0.0387863 -0.0266828)
(1.06056 -0.0440177 -0.0352752)
(1.01505 -0.0154287 -0.0388373)
(0.979439 0.0197221 -0.0453606)
(0.993754 0.0283565 -0.057903)
(0.950898 0.0437508 -0.0316894)
(0.920976 0.043535 0.00924281)
(0.969673 0.0118329 0.0143869)
(0.989057 -0.0025629 0.0271589)
(0.889671 0.0191885 0.0526901)
(0.80872 0.0244999 0.0554305)
(0.899513 -0.0133156 0.0228571)
(1.0451 -0.0442908 -0.024746)
(1.03155 -0.0192178 -0.0294109)
(0.965967 0.00510158 0.00739941)
(0.978561 -0.0325724 0.0266819)
(1.02683 -0.0584163 -0.00518082)
(1.03581 -0.0346068 -0.0236159)
(0.859644 -0.00281913 0.00928282)
(0.68834 0.0269324 0.00238179)
(0.70263 0.043239 0.0163853)
(0.768776 0.0385934 0.0509774)
(0.839937 0.0222689 0.0305091)
(0.973011 -0.0242057 -0.00987762)
(1.04045 -0.0556779 -0.0278575)
(1.01586 -0.0222147 0.0026489)
(0.98808 0.0152618 0.0585199)
(0.911509 0.0129414 0.0934796)
(0.849028 -0.0172036 0.0748632)
(0.867629 -0.0649311 0.017646)
(0.916728 -0.0642318 -0.00570272)
(0.909314 0.0073398 0.011243)
(0.874491 0.0397862 -0.00273016)
(0.884026 0.0143412 -0.00467895)
(0.876144 0.0232147 0.0238571)
(0.867581 0.029306 -0.0178979)
(0.937004 0.0198192 -0.0938979)
(1.00515 0.0140467 -0.0995862)
(1.02634 -0.0384146 -0.0163112)
(1.05067 -0.0652431 0.0265154)
(1.04827 -0.0536137 -0.0359106)
(1.01077 -0.045012 -0.0512324)
(0.980686 -0.0122452 -0.0327623)
(0.936234 0.0250427 -0.0394738)
(0.982355 0.0303915 -0.0593515)
(0.980617 0.0405459 -0.0304608)
(0.944516 0.0402834 0.0235118)
(0.959148 0.0174905 0.0359201)
(0.975254 0.00778467 0.0363555)
(0.899616 0.0339854 0.0389558)
(0.825544 0.035181 0.0252288)
(0.868406 -0.0187796 -0.0121349)
(0.963418 -0.0703869 -0.0546288)
(1.01499 -0.0449585 -0.0369715)
(1.06505 -0.00345285 -0.00102858)
(1.12019 -0.0283553 -0.00828341)
(1.09876 -0.0510158 -0.0292012)
(1.04477 -0.0184675 -0.0329336)
(0.932579 0.0157378 -0.00266935)
(0.842169 0.022714 -0.00808739)
(0.829686 0.0198577 -0.0116659)
(0.835616 0.0242231 0.0347289)
(0.884473 0.0190177 0.0549328)
(1.00631 -0.0250596 0.0178771)
(1.0718 -0.057579 -0.0351676)
(1.06444 -0.027337 -0.0192946)
(1.04259 0.0151577 0.0485848)
(0.950866 0.0193056 0.0896713)
(0.859662 -0.012641 0.0825037)
(0.859268 -0.0596872 0.0334716)
(0.89628 -0.0575323 -0.00219572)
(0.882737 0.0187343 0.0171894)
(0.867222 0.0560367 0.0185995)
(0.882812 0.0233532 0.00361677)
(0.868815 0.0270948 0.017983)
(0.863229 0.0347812 -0.0205867)
(0.916713 0.0186647 -0.086819)
(0.979047 0.0119383 -0.0819659)
(1.01014 -0.0368945 -0.0245503)
(1.0562 -0.0703909 0.0168049)
(1.04003 -0.0588268 -0.0190108)
(0.954561 -0.0413539 -0.0551391)
(0.91876 -0.00655696 -0.0366534)
(0.924656 0.0149934 -0.0499924)
(0.986777 0.01764 -0.0494764)
(0.988294 0.0357747 -0.0229204)
(0.95543 0.0406304 0.0188435)
(0.949269 0.025118 0.0393657)
(0.943329 0.0213281 0.0510348)
(0.903438 0.040661 0.0394885)
(0.86822 0.0404388 -0.00189332)
(0.896014 -0.00893369 -0.0417526)
(0.929315 -0.0657158 -0.0709161)
(0.943677 -0.067784 -0.049321)
(1.0331 -0.0363252 0.00652869)
(1.13504 -0.041539 0.0066961)
(1.12389 -0.0461322 -0.0248853)
(1.04862 -0.00602155 -0.0323259)
(0.966775 0.0247656 -0.00843909)
(0.953671 0.0124392 -0.0127464)
(0.95767 -0.00160062 -0.0357365)
(0.921141 0.0100622 0.00158676)
(0.942278 0.0135471 0.0578005)
(1.04023 -0.025696 0.0433105)
(1.09063 -0.0602335 -0.022356)
(1.1025 -0.0352897 -0.0283061)
(1.09846 0.0143782 0.037229)
(0.991546 0.0308515 0.0850351)
(0.870793 -0.00383084 0.0808184)
(0.848294 -0.0574983 0.0372606)
(0.88304 -0.0543307 -0.00759066)
(0.874258 0.0258375 0.00454733)
(0.878824 0.0674626 0.0288802)
(0.892527 0.0355331 0.0215213)
(0.862707 0.0342301 0.0149641)
(0.862003 0.0411469 -0.0209246)
(0.909105 0.0238602 -0.0715877)
(0.974994 0.0158741 -0.0617146)
(1.00027 -0.0311016 -0.0259615)
(1.02639 -0.0734256 0.00614566)
(1.03102 -0.0598794 -0.00352937)
(0.943213 -0.0318746 -0.0537801)
(0.885578 -0.0011993 -0.0611727)
(0.925254 0.000997933 -0.0667656)
(0.95613 0.00401791 -0.0454594)
(0.962861 0.0316978 -0.0172624)
(0.950402 0.045806 0.0069522)
(0.924602 0.0390558 0.0210408)
(0.90113 0.035857 0.0471044)
(0.908145 0.0436612 0.0514053)
(0.909423 0.0419798 0.00120345)
(0.922382 0.00555694 -0.0552628)
(0.951623 -0.0446408 -0.0774982)
(0.950705 -0.0657485 -0.0557603)
(1.00314 -0.0567394 -0.00458739)
(1.09264 -0.0510793 0.00918641)
(1.09604 -0.0448162 -0.015627)
(1.04954 -0.00710569 -0.0354209)
(1.02179 0.0222137 -0.0225051)
(1.04517 0.00657058 -0.0137906)
(1.02739 -0.0162435 -0.0336637)
(0.950869 -0.00970395 -0.020564)
(0.962242 -0.00221033 0.0362316)
(1.06729 -0.0282645 0.0405849)
(1.12096 -0.0579236 -0.0121062)
(1.10665 -0.0432124 -0.0178035)
(1.0643 0.0101062 0.0476974)
(0.959917 0.0429645 0.0949907)
(0.873178 0.00906458 0.0857444)
(0.858699 -0.0529094 0.0374685)
(0.884509 -0.0525544 -0.0181031)
(0.883897 0.0265678 -0.0206227)
(0.896057 0.0732853 0.0281919)
(0.901931 0.0470506 0.0507671)
(0.863002 0.0412762 0.0344612)
(0.868702 0.0468461 -0.00553627)
(0.909351 0.0328302 -0.0495494)
(0.96384 0.0272219 -0.0525922)
(0.998781 -0.0213009 -0.0283825)
(1.01202 -0.0773812 0.00368134)
(1.0162 -0.0645325 0.0055612)
(0.952482 -0.024151 -0.0500322)
(0.90519 0.00103056 -0.0810709)
(0.9484 -0.000400346 -0.0809202)
(0.94132 0.0020145 -0.0571482)
(0.931401 0.0303154 -0.0319766)
(0.924718 0.0460573 -0.0144883)
(0.912582 0.0442762 0.00353981)
(0.893115 0.0402615 0.0408804)
(0.908096 0.0406314 0.0593064)
(0.93097 0.0391718 0.0217056)
(0.941734 0.0142943 -0.0381988)
(0.968583 -0.0234948 -0.0724111)
(0.99673 -0.0508952 -0.0611411)
(1.0273 -0.0605414 -0.0222957)
(1.06393 -0.0554546 0.00190209)
(1.0693 -0.0467481 -0.00332436)
(1.04585 -0.0216388 -0.0292504)
(1.03086 0.00294459 -0.03598)
(1.08389 -0.00439642 -0.00787011)
(1.08157 -0.022362 0.000152959)
(0.976358 -0.0270439 -0.0164617)
(0.964565 -0.0260521 0.00264346)
(1.07825 -0.0400407 0.0181148)
(1.13954 -0.0521643 -0.00762272)
(1.07161 -0.0330725 -0.00987292)
(0.960523 0.0190562 0.0389696)
(0.874039 0.0548121 0.0886359)
(0.858299 0.0196038 0.0945027)
(0.886771 -0.0484648 0.0478269)
(0.916007 -0.0522156 -0.0139937)
(0.900627 0.0219054 -0.0307958)
(0.897119 0.0685432 0.0194162)
(0.905731 0.0522338 0.0637498)
(0.871088 0.0481327 0.055469)
(0.877586 0.0552039 0.0277)
(0.919999 0.0486457 -0.00710942)
(0.96648 0.0406927 -0.0383946)
(1.00765 -0.0137607 -0.0369682)
(1.00858 -0.0816255 -4.98106e-05)
(1.00781 -0.0709793 0.0135257)
(0.985581 -0.0203992 -0.0370707)
(0.955916 0.00498447 -0.0847562)
(0.998219 0.0046299 -0.079631)
(0.966697 0.00301576 -0.0684601)
(0.927377 0.0240331 -0.0530468)
(0.910358 0.0385918 -0.0380965)
(0.911567 0.0395266 -0.00944144)
(0.908305 0.0337841 0.0380118)
(0.923384 0.0307779 0.0659075)
(0.950371 0.0348807 0.0493356)
(0.962384 0.0267379 0.00551923)
(0.980631 -0.000499128 -0.0455866)
(1.04043 -0.0337495 -0.0594194)
(1.09566 -0.0500653 -0.0292371)
(1.07897 -0.0470209 -0.00432045)
(1.04076 -0.0442566 -0.00475174)
(1.03431 -0.0336317 -0.0122165)
(1.01121 -0.0151117 -0.0184077)
(1.02951 -0.0114898 -0.00111921)
(1.07231 -0.0269739 0.0220664)
(1.04147 -0.0517488 0.00637141)
(1.00831 -0.0606999 -0.014097)
(1.05919 -0.053791 -0.0102478)
(1.11594 -0.0395427 -0.0120309)
(1.06045 -0.0148814 -0.00846125)
(0.932859 0.0258706 0.014342)
(0.855229 0.0549976 0.0583045)
(0.869079 0.0214755 0.0917265)
(0.913485 -0.0486487 0.0668817)
(0.953188 -0.0636173 0.00916769)
(0.940586 0.00831605 -0.0239562)
(0.92407 0.0642318 -0.00706468)
(0.936812 0.0598572 0.0293282)
(0.909583 0.0569186 0.0424401)
(0.900713 0.0637905 0.0362288)
(0.930776 0.0636364 0.0131867)
(0.980334 0.0542923 -0.0240906)
(1.03027 0.00318125 -0.0333337)
(1.01859 -0.0666903 -0.00412423)
(0.99178 -0.079063 0.0132142)
(1.0044 -0.0355587 -0.0172928)
(1.01296 0.0015704 -0.0642576)
(1.02139 0.00959816 -0.0526182)
(1.00228 0.015097 -0.0658841)
(0.944248 0.0257623 -0.0722879)
(0.912893 0.0295935 -0.0631545)
(0.933142 0.0249519 -0.0299129)
(0.963264 0.0120578 0.0206376)
(0.979783 0.00449533 0.0557655)
(0.987024 0.0156809 0.0622237)
(0.987763 0.0249393 0.050248)
(1.00989 0.0122954 0.0125593)
(1.07379 -0.0268617 -0.0207974)
(1.12735 -0.048498 -0.0165806)
(1.10143 -0.0337992 -0.000708833)
(1.03351 -0.0287593 -0.00296238)
(1.00755 -0.0286454 -0.00544283)
(0.981302 -0.0175095 -0.00103735)
(0.97678 -0.0175702 0.00763072)
(1.03587 -0.0381939 0.0238011)
(1.08307 -0.0743772 0.0132209)
(1.07793 -0.090514 -0.014003)
(1.06081 -0.0661099 -0.0276968)
(1.05903 -0.0194521 -0.0295053)
(1.06296 0.0137497 -0.0113398)
(1.01994 0.0250394 0.0171682)
(0.961284 0.0304151 0.0537673)
(0.963343 0.00637774 0.0876238)
(0.981276 -0.0441472 0.0781018)
(0.991607 -0.0644551 0.0268011)
(0.971962 -0.0111909 -0.0172189)
(0.948424 0.0460177 -0.0209724)
(0.965129 0.0554734 0.00633258)
(0.950615 0.0602471 0.0312987)
(0.930354 0.064904 0.0348466)
(0.933818 0.0595882 0.0129958)
(0.963349 0.0493581 -0.0203137)
(1.02678 0.0150149 -0.026114)
(1.05697 -0.0358435 6.03195e-05)
(1.02175 -0.0627523 0.0152166)
(0.995002 -0.0492156 -0.00513645)
(1.0083 -0.0126256 -0.0346293)
(0.988029 -0.0220934 -0.0199709)
(0.976298 -0.00418313 -0.0458692)
(0.946602 0.0232569 -0.0709368)
(0.925915 0.0285021 -0.0840482)
(0.950472 0.0109063 -0.0725176)
(0.997196 -0.0116288 -0.0262362)
(1.02539 -0.0182772 0.0271651)
(1.02186 -0.00252378 0.060443)
(1.01272 0.00914185 0.0687707)
(1.04276 0.000552729 0.037756)
(1.09611 -0.0311373 -0.00288337)
(1.11405 -0.0489701 -0.0097113)
(1.08463 -0.0283899 0.00200063)
(1.03312 -0.0170053 -0.00713512)
(0.996688 -0.0192238 -0.0215133)
(0.968183 -0.0131575 -0.0138592)
(0.965287 -0.0227141 -0.00365063)
(1.00895 -0.0543603 0.00948392)
(1.06757 -0.0920336 0.00853216)
(1.08315 -0.102779 -0.0168805)
(1.06129 -0.0675931 -0.0333175)
(1.03791 -0.0142523 -0.0289999)
(1.04522 0.0190653 0.00266292)
(1.0552 0.0275944 0.0426698)
(1.02167 0.0176607 0.0655468)
(1.00903 -0.0107181 0.0675872)
(1.02017 -0.041825 0.0503116)
(1.01859 -0.0477454 0.0152786)
(0.986997 -0.00796735 -0.0198218)
(0.951365 0.0317902 -0.028922)
(0.961373 0.0379491 -0.00924029)
(0.964369 0.0477442 0.0191001)
(0.952257 0.0544331 0.0250609)
(0.936208 0.0473476 0.00223112)
(0.933267 0.0371178 -0.0246045)
(0.98014 0.0151626 -0.0267765)
(1.05117 -0.00965197 0.00213058)
(1.07455 -0.0217645 0.0285292)
(1.03862 -0.0328281 0.0213131)
(1.00522 -0.0331782 -0.000851461)
(0.983071 -0.0195695 -0.015406)
(0.9257 -0.0124384 -0.0540663)
(0.908378 0.00147633 -0.0824671)
(0.930923 -0.000901347 -0.10203)
(0.976787 -0.0191253 -0.10746)
(1.01346 -0.0353457 -0.0701531)
(1.03071 -0.0356877 0.00410153)
(1.0338 -0.0215841 0.0625842)
(1.04512 -0.0127611 0.0778608)
(1.08237 -0.0128251 0.0496369)
(1.10857 -0.0245043 0.00796843)
(1.08629 -0.0350596 -0.0109148)
(1.05438 -0.0259252 -0.00563897)
(1.04522 -0.0162243 -0.00687598)
(1.03191 -0.0140374 -0.0204146)
(0.99976 -0.00671549 -0.0198103)
(0.990345 -0.00927548 -0.021368)
(1.00843 -0.0372404 -0.0290086)
(1.05032 -0.0752495 -0.0278834)
(1.06987 -0.0872642 -0.0307835)
(1.04581 -0.0570121 -0.0298945)
(1.02673 -0.00860308 -0.0185886)
(1.02857 0.015761 0.00377298)
(1.04657 0.0133259 0.0379385)
(1.04078 0.00509675 0.0643065)
(1.0239 -0.0132713 0.0586006)
(1.02033 -0.03182 0.0292808)
(1.02219 -0.032699 -0.000426906)
(1.01758 -0.00179752 -0.0164291)
(1.00575 0.029068 -0.0167148)
(1.00071 0.0292636 -0.0113698)
(0.985339 0.0295953 -0.00281823)
(0.967013 0.0351977 -0.00218088)
(0.94837 0.0382143 -0.0106697)