/*--------------------------------*- C++ -*----------------------------------*\
  =========                 |
  \\      /  F ield         | OpenFOAM: The Open Source CFD Toolbox
   \\    /   O peration     | Website:  https://openfoam.org
    \\  /    A nd           | Version:  10
     \\/     M anipulation  |
\*---------------------------------------------------------------------------*/
FoamFile
{
    format      ascii;
    class       surfaceScalarField;
    location    "8";
    object      phi;
}
// * * * * * * * * * * * * * * * * * * * * * * * * * * * * * * * * * * * * * //

dimensions      [0 3 -1 0 0 0 0];

internalField   nonuniform List<scalar> 
74080
(
0.000643997
2.21435e-08
-1.32665e-09
0.000643983
2.75021e-08
6.0666e-09
0.000643981
1.87433e-08
5.24268e-10
0.000643983
2.22235e-08
-2.64568e-09
0.000643981
3.34478e-08
3.30078e-09
0.000643986
2.69943e-08
5.21768e-09
0.000643998
3.27625e-08
6.56489e-09
0.000644014
3.43208e-08
1.38557e-09
0.000644017
5.14751e-08
1.99644e-09
0.000644012
6.41829e-08
4.10656e-09
0.000644005
6.26886e-08
6.19236e-09
0.000643998
6.4082e-08
9.67336e-09
0.000643996
5.63307e-08
5.62636e-09
0.000643988
6.16323e-08
3.08985e-09
0.000643978
6.26413e-08
-1.72817e-09
0.000643972
4.96968e-08
-3.74829e-09
0.000643976
3.53567e-08
-5.49824e-09
0.000643985
1.52031e-08
-6.04438e-09
0.000643988
1.06206e-08
-4.50844e-09
0.000643988
4.27816e-10
-4.59283e-09
0.000643993
-1.52481e-08
-2.77315e-09
0.000644004
-3.23196e-08
-3.27708e-09
0.000644014
-3.53128e-08
-1.05555e-09
0.000644018
-3.33743e-08
6.81319e-10
0.000644018
-3.79261e-08
2.55393e-09
0.000644016
-3.4659e-08
2.65198e-09
0.000644026
-5.61554e-08
7.99722e-09
0.00064403
-4.27112e-08
6.66291e-09
0.000644036
-3.94665e-08
6.69634e-09
0.000644026
-2.8657e-08
1.10086e-08
0.000644033
-2.55664e-08
3.6666e-09
0.000644031
-2.44921e-08
1.24304e-08
0.000644035
-1.70042e-08
4.45551e-10
0.000644044
-5.32481e-09
-4.35519e-09
0.000644018
1.71093e-08
1.04276e-08
0.000644022
9.88404e-09
-1.4236e-08
0.00064403
9.11709e-09
-1.03656e-08
0.000644016
2.39491e-08
1.79876e-09
0.000644007
1.99332e-08
-9.89185e-09
3.12663e-08
-1.52289e-08
0.000591036
3.73482e-08
3.14659e-09
0.000591015
3.88677e-08
1.46901e-08
0.000591023
1.91492e-08
-4.78428e-09
0.000591037
3.12122e-08
-1.59242e-08
0.000591036
4.57101e-08
-3.79663e-09
0.000591032
2.48292e-08
1.1187e-08
0.000591031
2.57534e-08
1.83906e-08
0.000591039
2.2628e-08
9.6261e-09
0.000591037
5.84365e-08
7.39566e-09
0.000591032
7.51499e-08
6.43402e-09
0.000591029
6.78173e-08
9.80013e-09
0.000591028
6.51408e-08
1.63629e-08
0.000591033
5.07096e-08
1.04861e-08
0.000591026
6.95835e-08
1.04699e-08
0.000591015
7.45785e-08
2.97234e-09
0.000591006
5.68371e-08
-4.52898e-10
0.00059101
2.97114e-08
-5.40862e-09
0.000591022
2.17693e-09
-7.99542e-09
0.000591023
9.48298e-09
-6.8823e-09
0.000591023
1.1612e-10
-9.32108e-09
0.000591027
-2.30089e-08
-6.95784e-09
0.000591043
-4.98694e-08
-1.04486e-08
0.000591054
-4.76466e-08
-5.56407e-09
0.000591058
-3.64452e-08
-5.07571e-09
0.000591057
-3.79165e-08
-5.78797e-10
0.000591054
-2.92645e-08
-3.38279e-09
0.000591068
-7.50702e-08
8.89202e-09
0.000591076
-4.7206e-08
1.4476e-09
0.000591078
-4.12584e-08
8.00519e-09
0.000591073
-2.39015e-08
9.34834e-09
0.000591075
-1.90133e-08
3.55029e-09
0.000591071
-3.16873e-08
2.06323e-08
0.000591089
-1.81896e-08
-8.00613e-09
0.000591086
9.48084e-09
1.15107e-09
0.000591058
3.69645e-08
1.95851e-08
0.000591068
2.62843e-08
-2.13436e-08
0.000591072
1.78079e-08
-6.60976e-09
0.000591052
3.48727e-08
1.21991e-08
0.000591052
3.90867e-08
-1.29623e-08
6.36446e-08
-2.55614e-08
0.000538174
5.52582e-08
3.92466e-09
0.000538154
5.24603e-08
1.2597e-08
0.000538172
1.31191e-08
-6.90289e-09
0.000538183
4.49127e-08
-1.58416e-08
0.000538178
6.52425e-08
-3.94613e-09
0.000538174
2.38397e-08
1.07624e-08
0.000538178
1.65741e-08
1.92236e-08
0.000538193
6.47259e-09
8.4111e-09
0.000538186
7.38276e-08
1.07995e-08
0.000538177
9.28102e-08
1.01695e-08
0.000538169
7.651e-08
1.70547e-08
0.00053817
6.4684e-08
2.72363e-08
0.000538182
4.08584e-08
1.61184e-08
0.000538171
8.46218e-08
1.89505e-08
0.000538153
9.49733e-08
6.17334e-09
0.000538139
7.14282e-08
1.70072e-09
0.000538146
2.21455e-08
-7.61267e-09
0.000538164
-1.52793e-08
-1.09241e-08
0.00053816
1.47541e-08
-8.59513e-09
0.000538157
2.64205e-09
-1.29596e-08
0.00053816
-3.22065e-08
-1.01626e-08
0.000538182
-7.59713e-08
-1.76294e-08
0.000538197
-6.29779e-08
-8.88524e-09
0.0005382
-3.79024e-08
-9.22966e-09
0.000538194
-3.40088e-08
-3.53858e-09
0.000538185
-1.85752e-08
-7.24988e-09
0.000538211
-1.08284e-07
1.05433e-08
0.00053822
-5.21104e-08
-1.20086e-10
0.000538223
-4.43186e-08
7.73231e-09
0.000538214
-1.72399e-08
1.07568e-08
0.000538212
-8.8728e-09
9.80048e-09
0.000538217
-4.75572e-08
2.1248e-08
0.000538241
-2.29367e-08
-6.59519e-09
0.000538232
3.33271e-08
4.53497e-09
0.000538201
6.4636e-08
2.31675e-08
0.000538208
4.49384e-08
-1.74253e-08
0.000538215
2.49652e-08
-3.52694e-09
0.0005382
4.77282e-08
1.07624e-08
0.000538198
6.27436e-08
-1.02286e-08
1.07051e-07
-2.50494e-08
0.000489771
7.49876e-08
7.61352e-09
0.000489757
6.63628e-08
1.11656e-08
0.000489787
-1.03534e-09
-1.00068e-08
0.00048979
7.00262e-08
-1.59041e-08
0.000489779
9.40781e-08
-2.33149e-09
0.000489775
2.27761e-08
1.18175e-08
0.000489791
-1.13204e-09
2.13342e-08
0.000489816
-1.97228e-08
6.19906e-09
0.000489801
1.00806e-07
1.4548e-08
0.000489784
1.18194e-07
1.28249e-08
0.000489769
9.1778e-08
2.39716e-08
0.000489776
5.98417e-08
3.86654e-08
0.000489798
2.45684e-08
1.98528e-08
0.00048978
1.09885e-07
2.85132e-08
0.000489753
1.26175e-07
8.0628e-09
0.00048973
9.67097e-08
3.53439e-09
0.000489746
7.62225e-09
-1.28651e-08
0.000489774
-3.92439e-08
-1.54196e-08
0.000489762
2.92585e-08
-1.02777e-08
0.000489753
7.819e-09
-1.54394e-08
0.000489756
-4.30922e-08
-1.33603e-08
0.00048979
-1.1445e-07
-2.70611e-08
0.00048981
-8.25733e-08
-1.11214e-08
0.000489811
-3.73322e-08
-1.33884e-08
0.000489796
-2.20273e-08
-5.63245e-09
0.000489778
1.13578e-09
-1.20828e-08
0.000489823
-1.62776e-07
1.48087e-08
0.000489832
-5.46078e-08
-3.97414e-09
0.000489837
-5.05449e-08
8.52799e-09
0.00048982
-4.38668e-09
1.40396e-08
0.000489811
6.45559e-09
2.00742e-08
0.000489831
-7.84501e-08
2.21716e-08
0.000489861
-2.9553e-08
-6.0306e-09
0.000489845
6.79499e-08
1.16041e-08
0.000489805
1.03871e-07
2.97736e-08
0.000489808
6.91415e-08
-1.37112e-08
0.000489825
2.54894e-08
1.98615e-09
0.000489816
6.24042e-08
8.95332e-09
0.000489809
9.69446e-08
-7.04374e-09
1.64459e-07
-2.32926e-08
0.000445679
1.00486e-07
1.42742e-08
0.000445675
7.8623e-08
8.73275e-09
0.000445721
-2.84902e-08
-1.40164e-08
0.000445713
1.1049e-07
-1.39961e-08
0.000445692
1.35321e-07
9.7314e-10
0.000445686
2.52407e-08
1.27223e-08
0.000445721
-3.1977e-08
2.24866e-08
0.000445759
-5.90878e-08
1.28605e-09
0.000445732
1.43735e-07
1.80654e-08
0.000445707
1.53605e-07
1.23318e-08
0.000445679
1.17275e-07
3.16977e-08
0.0004457
4.44278e-08
5.12422e-08
0.000445734
-1.27104e-09
2.21558e-08
0.000445708
1.47909e-07
4.07773e-08
0.000445668
1.71694e-07
8.81316e-09
0.000445631
1.37785e-07
5.52475e-09
0.000445665
-2.05358e-08
-2.24346e-08
0.000445703
-7.08749e-08
-2.11423e-08
0.00044568
5.65306e-08
-1.12353e-08
0.000445665
1.61028e-08
-1.68176e-08
0.000445665
-5.37357e-08
-1.67996e-08
0.000445716
-1.69987e-07
-3.96938e-08
0.000445743
-1.07695e-07
-1.20248e-08
0.000445741
-3.42713e-08
-1.77039e-08
0.000445711
4.18447e-09
-7.18183e-09
0.000445682
3.39664e-08
-1.85523e-08
0.000445753
-2.47213e-07
2.1759e-08
0.000445762
-5.2365e-08
-1.09231e-08
0.00044577
-6.18803e-08
9.57182e-09
0.00044574
1.80855e-08
1.98928e-08
0.00044572
2.95444e-08
3.55376e-08
0.000445765
-1.33038e-07
2.11889e-08
0.000445801
-3.83593e-08
-4.8015e-09
0.000445774
1.18504e-07
2.19947e-08
0.000445724
1.54749e-07
3.98582e-08
0.00044572
1.0084e-07
-8.68952e-09
0.000445753
1.50282e-08
1.0625e-08
0.000445751
7.99081e-08
5.81382e-09
0.000445737
1.43448e-07
-6.90807e-10
2.37643e-07
-1.98146e-08
0.000405521
1.35702e-07
2.60015e-08
0.000405535
8.44806e-08
5.90159e-09
0.000405603
-7.32268e-08
-1.97722e-08
0.000405579
1.7145e-07
-1.00671e-08
0.000405545
1.92383e-07
7.33796e-09
0.000405531
3.56557e-08
1.46499e-08
0.000405595
-8.30969e-08
2.34593e-08
0.000405649
-1.12848e-07
-7.5742e-09
0.000405607
2.06267e-07
2.16916e-08
0.00040557
2.0301e-07
6.86415e-09
0.000405524
1.59177e-07
4.01925e-08
0.000405568
1.14811e-08
6.31241e-08
0.000405619
-3.96411e-08
2.28847e-08
0.000405582
2.00567e-07
5.65775e-08
0.000405525
2.36843e-07
7.91953e-09
0.000405467
2.01484e-07
8.05431e-09
0.000405529
-7.05313e-08
-3.82609e-08
0.000405579
-1.09633e-07
-2.80982e-08
0.000405541
9.90317e-08
-1.07255e-08
0.000405519
2.87446e-08
-1.58528e-08
0.00040551
-6.08683e-08
-2.08416e-08
0.000405589
-2.47247e-07
-5.66532e-08
0.000405624
-1.40797e-07
-1.13057e-08
0.000405619
-2.83322e-08
-2.22296e-08
0.000405564
5.40942e-08
-8.55728e-09
0.000405522
8.37125e-08
-2.72998e-08
0.000405628
-3.70522e-07
3.16631e-08
0.000405636
-4.11449e-08
-2.35482e-08
0.000405649
-8.34149e-08
1.12703e-08
0.000405599
5.64465e-08
2.88339e-08
0.000405564
6.25444e-08
5.68888e-08
0.000405646
-2.23065e-07
1.81823e-08
0.000405688
-4.7139e-08
-3.51581e-09
0.000405647
1.87461e-07
3.70504e-08
0.000405583
2.19677e-07
5.33396e-08
0.000405568
1.45213e-07
-2.81554e-09
0.000405626
-1.42775e-08
2.28897e-08
0.000405633
1.02171e-07
2.73933e-09
0.000405608
2.05989e-07
7.1033e-09
3.28605e-07
-1.52425e-08
0.000368948
1.85628e-07
4.47553e-08
0.00036899
7.68796e-08
2.61782e-09
0.000369083
-1.39871e-07
-2.79769e-08
0.000369039
2.55043e-07
-1.52923e-09
0.000368988
2.69721e-07
1.83159e-08
0.000368959
6.03901e-08
1.7272e-08
0.000369065
-1.64425e-07
2.4911e-08
0.000369137
-1.82269e-07
-1.99925e-08
0.000369079
2.89306e-07
2.51543e-08
0.000369024
2.7317e-07
-4.33544e-09
0.000368952
2.2358e-07
5.0495e-08
0.000369032
-4.85871e-08
7.46937e-08
0.000369103
-9.28234e-08
2.16404e-08
0.000369054
2.67808e-07
7.68119e-08
0.000368972
3.29191e-07
5.34301e-09
0.000368888
2.94755e-07
1.11741e-08
0.00036899
-1.49799e-07
-6.33809e-08
0.000369051
-1.53828e-07
-3.66026e-08
0.000368998
1.56682e-07
-8.29998e-09
0.000368964
4.88424e-08
-1.09733e-08
0.000368943
-6.00821e-08
-2.61085e-08
0.000369057
-3.53606e-07
-7.63491e-08
0.000369106
-1.85805e-07
-8.91053e-09
0.000369096
-1.9883e-08
-2.6394e-08
0.000369006
1.38808e-07
-9.14502e-09
0.000368948
1.54021e-07
-3.94939e-08
0.000369097
-5.40811e-07
4.47004e-08
0.000369107
-1.74075e-08
-4.45267e-08
0.000369128
-1.21514e-07
1.37615e-08
0.000369046
1.19104e-07
4.24388e-08
0.000368995
1.04954e-07
8.52973e-08
0.000369126
-3.61618e-07
1.24402e-08
0.000369172
-5.38644e-08
-1.42701e-09
0.000369115
2.74468e-07
5.74911e-08
0.000369033
3.01246e-07
7.04476e-08
0.000369002
2.06094e-07
6.75285e-09
0.000369096
-7.15503e-08
3.9862e-08
0.000369112
1.31813e-07
7.86183e-11
0.000369073
2.84257e-07
1.90892e-08
4.3833e-07
-8.25519e-09
0.00033564
2.5364e-07
7.31241e-08
0.000335722
4.82416e-08
4.36466e-10
0.000335844
-2.29664e-07
-3.93504e-08
0.000335778
3.63028e-07
1.07276e-08
0.000335701
3.72983e-07
3.6967e-08
0.000335651
1.05854e-07
2.08733e-08
0.000335813
-2.88573e-07
2.8907e-08
0.000335904
-2.69326e-07
-3.46628e-08
0.00033583
3.90152e-07
2.87792e-08
0.00033575
3.73616e-07
-1.87512e-08
0.000335645
3.14636e-07
6.24121e-08
0.000335774
-1.49091e-07
8.74455e-08
0.000335866
-1.64286e-07
1.91422e-08
0.000335808
3.46891e-07
1.02222e-07
0.000335692
4.59759e-07
1.46418e-09
0.000335575
4.22702e-07
1.47593e-08
0.00033573
-2.68721e-07
-9.63089e-08
0.000335801
-2.01027e-07
-4.6841e-08
0.000335735
2.25061e-07
-2.86495e-09
0.000335681
8.31859e-08
-4.81995e-10
0.000335643
-4.73232e-08
-3.2878e-08
0.000335802
-4.97937e-07
-9.72946e-08
0.000335869
-2.47849e-07
-5.42768e-09
0.000335854
-1.00908e-08
-2.85751e-08
0.000335717
2.69851e-07
-7.73914e-09
0.000335643
2.4678e-07
-5.5656e-08
0.000335841
-7.65559e-07
6.26366e-08
0.000335856
2.11524e-08
-7.6205e-08
0.000335889
-1.84615e-07
1.83433e-08
0.00033576
2.15863e-07
6.33296e-08
0.000335695
1.51328e-07
1.22e-07
0.000335884
-5.63943e-07
7.12036e-09
0.000335934
-5.62605e-08
6.09301e-10
0.000335863
3.74362e-07
8.47603e-08
0.000335753
4.03346e-07
9.24391e-08
0.000335702
2.85727e-07
2.10954e-08
0.000335845
-1.68506e-07
6.33082e-08
0.000335868
1.73054e-07
-2.59485e-09
0.000335817
3.74294e-07
3.68014e-08
5.6703e-07
2.96712e-09
0.000305307
3.3854e-07
1.15075e-07
0.000305441
-1.36095e-08
3.55165e-09
0.000305593
-3.44522e-07
-5.50062e-08
0.000305506
4.90534e-07
3.3127e-08
0.000305394
5.0792e-07
6.67535e-08
0.000305317
1.75868e-07
2.58646e-08
0.000305547
-4.7011e-07
3.86716e-08
0.00030566
-3.76189e-07
-5.04747e-08
0.000305575
5.01138e-07
3.29417e-08
0.000305453
5.121e-07
-3.682e-08
0.000305313
4.30949e-07
7.83109e-08
0.000305502
-3.06163e-07
1.03171e-07
0.000305621
-2.58977e-07
1.61355e-08
0.000305555
4.32798e-07
1.34367e-07
0.000305391
6.40284e-07
-2.93746e-10
0.00030524
5.87912e-07
1.81469e-08
0.000305454
-4.36143e-07
-1.37411e-07
0.000305537
-2.49661e-07
-5.91516e-08
0.000305465
2.99095e-07
4.93269e-09
0.000305377
1.34909e-07
2.76639e-08
0.00030532
-2.18872e-08
-4.11687e-08
0.000305533
-6.90822e-07
-1.15995e-07
0.000305624
-3.31132e-07
-1.8207e-09
0.000305604
-1.61368e-09
-2.5234e-08
0.000305404
4.59326e-07
-2.56369e-09
0.000305316
3.61422e-07
-7.71018e-08
0.000305564
-1.05085e-06
8.72597e-08
0.000305594
7.47142e-08
-1.20651e-07
0.00030564
-2.82938e-07
2.664e-08
0.000305448
3.55388e-07
9.46848e-08
0.000305375
1.89268e-07
1.68961e-07
0.000305629
-8.45705e-07
6.45368e-09
0.000305684
-5.55505e-08
3.23354e-09
0.000305601
4.76593e-07
1.20979e-07
0.000305452
5.31234e-07
1.2037e-07
0.00030538
3.81107e-07
4.12398e-08
0.000305582
-3.22188e-07
1.0073e-07
0.000305611
2.27149e-07
-7.90089e-10
0.000305548
4.64254e-07
6.35806e-08
7.08017e-07
2.68067e-08
0.000277686
4.29934e-07
1.76259e-07
0.000277881
-1.21761e-07
1.56185e-08
0.000278067
-4.84858e-07
-7.55726e-08
0.00027796
6.23946e-07
7.44144e-08
0.000277799
6.78569e-07
1.13864e-07
0.000277693
2.68954e-07
3.26e-08
0.000278
-7.24322e-07
5.92444e-08
0.000278139
-5.06154e-07
-6.56264e-08
0.000278047
6.09782e-07
3.89128e-08
0.000277866
7.02828e-07
-5.50918e-08
0.000277691
5.63063e-07
9.9703e-08
0.000277948
-5.39222e-07
1.27003e-07
0.000278101
-3.8288e-07
1.36202e-08
0.00027803
5.17462e-07
1.75788e-07
0.000277801
8.81696e-07
4.37495e-09
0.000277617
7.87225e-07
2.07495e-08
0.000277897
-6.61489e-07
-1.82753e-07
0.000277997
-3.01085e-07
-7.3963e-08
0.000277923
3.67135e-07
1.88762e-08
0.000277783
2.08423e-07
7.41303e-08
0.00027771
1.11731e-08
-5.02762e-08
0.000277982
-9.45828e-07
-1.26901e-07
0.000278106
-4.40485e-07
-7.16294e-10
0.00027808
-1.40856e-10
-1.0205e-08
0.000277801
7.09628e-07
1.56929e-08
0.000277704
4.93012e-07
-1.04031e-07
0.000278001
-1.40238e-06
1.22215e-07
0.000278059
1.423e-07
-1.78976e-07
0.000278116
-4.26671e-07
4.25358e-08
0.000277843
5.40814e-07
1.41351e-07
0.000277772
1.96502e-07
2.2886e-07
0.000278091
-1.22179e-06
1.67501e-08
0.000278158
-5.76749e-08
7.33979e-09
0.000278067
5.65048e-07
1.71022e-07
0.00027786
6.88453e-07
1.56713e-07
0.000277771
4.80435e-07
7.11158e-08
0.000278038
-5.50643e-07
1.58907e-07
0.000278076
2.96638e-07
5.39535e-09
0.000278002
5.35498e-07
1.04326e-07
8.52349e-07
6.66629e-08
0.000252538
5.0432e-07
2.63751e-07
0.000252798
-2.90292e-07
4.53251e-08
0.000253023
-6.49873e-07
-1.00278e-07
0.000252899
7.52372e-07
1.40447e-07
0.000252672
8.82579e-07
1.85938e-07
0.000252538
3.73995e-07
4.29122e-08
0.000252928
-1.06863e-06
9.83811e-08
0.0002531
-6.6326e-07
-7.64664e-08
0.000253007
7.0058e-07
5.13728e-08
0.000252743
9.54894e-07
-6.77884e-08
0.00025254
6.89231e-07
1.29892e-07
0.000252869
-8.72389e-07
1.66795e-07
0.000253066
-5.44172e-07
1.30763e-08
0.00025299
5.96779e-07
2.28123e-07
0.000252681
1.1868e-06
2.41083e-08
0.000252468
1.0108e-06
2.27061e-08
0.000252813
-9.56037e-07
-2.25073e-07
0.00025294
-3.59432e-07
-9.20919e-08
0.000252867
4.12657e-07
4.62606e-08
0.000252655
2.99577e-07
1.46821e-07
0.000252573
3.5672e-08
-5.75856e-08
0.000252906
-1.2805e-06
-1.21191e-07
0.000253072
-5.8155e-07
-2.00133e-09
0.000253038
-1.03154e-08
2.12126e-08
0.000252667
1.0133e-06
5.28916e-08
0.000252567
6.29902e-07
-1.36752e-07
0.000252905
-1.82817e-06
1.73014e-07
0.00025301
2.22126e-07
-2.51081e-07
0.000253069
-6.25702e-07
7.17219e-08
0.000252702
7.61811e-07
2.10485e-07
0.000252647
1.39493e-07
3.05883e-07
0.000253026
-1.71e-06
4.80912e-08
0.000253116
-7.32252e-08
1.50089e-08
0.000253016
6.27156e-07
2.36053e-07
0.000252735
8.72616e-07
2.04566e-07
0.000252637
5.6021e-07
1.13998e-07
0.000252969
-8.74996e-07
2.48861e-07
0.000253021
3.81815e-07
2.04661e-08
0.000252937
5.69828e-07
1.61158e-07
9.81039e-07
1.32384e-07
0.000229647
5.18986e-07
3.86778e-07
0.000229969
-5.35415e-07
1.03667e-07
0.000230241
-8.37044e-07
-1.26915e-07
0.000230099
8.64336e-07
2.4051e-07
0.000229791
1.10481e-06
2.93635e-07
0.000229634
4.67061e-07
5.81297e-08
0.000230106
-1.52288e-06
1.66741e-07
0.000230324
-8.53366e-07
-7.81054e-08
0.00023023
7.59568e-07
7.33684e-08
0.000229863
1.26675e-06
-6.51522e-08
0.000229641
7.71609e-07
1.73975e-07
0.000230042
-1.33978e-06
2.35321e-07
0.000230297
-7.48806e-07
1.57589e-08
0.000230213
6.72562e-07
2.96896e-07
0.000229807
1.54815e-06
6.62175e-08
0.000229573
1.23762e-06
2.4658e-08
0.000229977
-1.33817e-06
-2.51649e-07
0.000230147
-4.32078e-07
-1.1248e-07
0.000230075
4.26797e-07
8.8188e-08
0.000229771
3.94912e-07
2.55857e-07
0.000229692
2.44845e-08
-6.04373e-08
0.000230082
-1.72109e-06
-8.68426e-08
0.000230302
-7.55416e-07
-5.76073e-09
0.000230255
-4.21185e-08
8.49581e-08
0.000229781
1.34482e-06
1.18425e-07
0.000229684
7.49799e-07
-1.73296e-07
0.000230056
-2.34323e-06
2.48138e-07
0.000230229
3.14637e-07
-3.33057e-07
0.000230272
-8.89835e-07
1.24939e-07
0.000229806
9.88223e-07
3.10872e-07
0.000229782
-2.9652e-08
4.05301e-07
0.000230209
-2.33495e-06
1.15483e-07
0.000230342
-1.17225e-07
3.00843e-08
0.000230225
6.56765e-07
3.21612e-07
0.000229852
1.06625e-06
2.69602e-07
0.000229759
5.79576e-07
1.77195e-07
0.000230151
-1.32126e-06
3.8483e-07
0.000230226
4.80537e-07
5.12906e-08
0.00023013
5.44139e-07
2.42582e-07
1.05806e-06
2.3799e-07
0.000208814
4.12843e-07
5.53949e-07
0.000209193
-8.81029e-07
2.04955e-07
0.000209518
-1.0399e-06
-1.51392e-07
0.000209353
9.48758e-07
3.88263e-07
0.000208954
1.31057e-06
4.49885e-07
0.000208783
5.01211e-07
8.09191e-08
0.000209333
-2.11162e-06
2.75376e-07
0.000209609
-1.08091e-06
-6.37973e-08
0.000209507
7.76586e-07
1.13141e-07
0.000209023
1.61836e-06
-3.83569e-08
0.000208795
7.49947e-07
2.39033e-07
0.000209265
-1.99067e-06
3.47525e-07
0.000209592
-9.96803e-07
2.21385e-08
0.000209491
7.53878e-07
3.89853e-07
0.000208977
1.93956e-06
1.42682e-07
0.000208731
1.42904e-06
2.99775e-08
0.000209187
-1.83937e-06
-2.46876e-07
0.00020942
-5.1969e-07
-1.34071e-07
0.000209335
4.04175e-07
1.53638e-07
0.000208927
4.59694e-07
4.1134e-07
0.000208867
-6.61377e-08
-5.32921e-08
0.000209308
-2.3114e-06
-5.93293e-09
0.000209592
-9.5395e-07
-1.39185e-08
0.000209524
-1.04843e-07
1.92272e-07
0.000208942
1.65551e-06
2.24791e-07
0.000208856
8.14214e-07
-2.10159e-07
0.000209253
-2.97501e-06
3.57016e-07
0.000209518
4.24049e-07
-4.19557e-07
0.000209515
-1.21913e-06
2.13033e-07
0.000208952
1.16189e-06
4.53393e-07
0.000208974
-3.70998e-07
5.33376e-07
0.000209439
-3.1346e-06
2.35091e-07
0.000209637
-2.06306e-07
5.80593e-08
0.000209483
6.51119e-07
4.35855e-07
0.000209012
1.22951e-06
3.58847e-07
0.000208939
4.79515e-07
2.67425e-07
0.00020938
-1.92399e-06
5.84066e-07
0.00020949
5.93613e-07
1.0348e-07
0.000209373
4.37786e-07
3.5716e-07
1.02398e-06
3.98639e-07
0.000189861
1.00015e-07
7.75798e-07
0.000190284
-1.36263e-06
3.6295e-07
0.000190672
-1.23796e-06
-1.67395e-07
0.00019047
1.0055e-06
5.97945e-07
0.000189977
1.44258e-06
6.69579e-07
0.000189804
4.17116e-07
1.14747e-07
0.000190421
-2.86306e-06
4.32886e-07
0.000190775
-1.32451e-06
-2.95667e-08
0.000190643
7.51776e-07
1.82703e-07
0.000190036
1.95219e-06
3.64567e-08
0.00018982
5.24653e-07
3.34257e-07
0.000190353
-2.89409e-06
5.16568e-07
0.000190767
-1.27371e-06
2.99473e-08
0.000190631
8.63801e-07
5.16465e-07
0.000190007
2.31067e-06
2.67911e-07
0.00018976
1.53323e-06
4.34858e-08
0.000190261
-2.50865e-06
-1.94966e-07
0.000190575
-6.11596e-07
-1.53792e-07
0.000190452
3.54336e-07
2.53114e-07
0.000189943
4.24457e-07
6.24951e-07
0.000189919
-2.96482e-07
-3.06697e-08
0.0001904
-3.08837e-06
1.07591e-07
0.000190758
-1.15781e-06
-2.64145e-08
0.000190655
-1.99446e-07
3.53277e-07
0.000189965
1.87152e-06
3.89947e-07
0.0001899
7.70266e-07
-2.39425e-07
0.000190317
-3.77107e-06
5.07428e-07
0.000190695
5.69079e-07
-5.02244e-07
0.000190604
-1.59823e-06
3.46787e-07
0.000189962
1.19053e-06
6.53581e-07
0.000190035
-9.63548e-07
6.95702e-07
0.000190535
-4.16896e-06
4.2087e-07
0.000190823
-3.53812e-07
1.04486e-07
0.000190593
6.2215e-07
5.91594e-07
0.000190031
1.28228e-06
4.84007e-07
0.000189994
1.76846e-07
3.95977e-07
0.000190472
-2.72989e-06
8.59909e-07
0.000190633
7.27115e-07
1.8225e-07
0.000190474
2.40423e-07
5.16278e-07
7.84587e-07
6.32186e-07
0.000172645
-5.64282e-07
1.05827e-06
0.00017309
-2.02e-06
5.68722e-07
0.000173532
-1.36991e-06
-1.82521e-07
0.000173279
1.05418e-06
8.86643e-07
0.000172708
1.41521e-06
9.79339e-07
0.000172552
1.28143e-07
1.71458e-07
0.000173221
-3.81223e-06
6.30719e-07
0.000173656
-1.53234e-06
9.02782e-09
0.000173462
7.02675e-07
2.98865e-07
0.000172747
2.16152e-06
2.03858e-07
0.00017257
-3.94251e-08
4.80217e-07
0.000173154
-4.14284e-06
7.39405e-07
0.000173653
-1.53317e-06
2.47564e-08
0.000173459
1.05176e-06
6.87936e-07
0.000172738
2.57927e-06
4.68977e-07
0.000172507
1.45459e-06
8.45917e-08
0.000173047
-3.41712e-06
-9.14867e-08
0.000173448
-6.70337e-07
-1.84275e-07
0.000173253
2.99346e-07
4.05736e-07
0.000172667
1.89429e-07
9.18896e-07
0.000172703
-7.79302e-07
2.6041e-08
0.000173203
-4.11169e-06
2.62463e-07
0.000173632
-1.31699e-06
-6.38912e-08
0.000173478
-3.10254e-07
5.85707e-07
0.000172693
1.89327e-06
6.4226e-07
0.000172664
4.95701e-07
-2.37857e-07
0.000173095
-4.79979e-06
6.91837e-07
0.000173568
8.33608e-07
-5.78376e-07
0.000173372
-2.02057e-06
5.47717e-07
0.000172681
9.50668e-07
9.38572e-07
0.000172813
-1.92968e-06
9.02861e-07
0.000173348
-5.5135e-06
6.59152e-07
0.000173721
-5.37181e-07
1.60975e-07
0.000173386
5.77521e-07
7.99364e-07
0.000172757
1.0918e-06
6.68273e-07
0.000172776
-4.67713e-07
5.77332e-07
0.000173277
-3.79763e-06
1.2085e-06
0.00017349
9.17857e-07
2.76157e-07
0.000173261
-4.47959e-08
7.37252e-07
2.15478e-07
9.65984e-07
0.000157125
-1.77671e-06
1.42599e-06
0.000157521
-2.86171e-06
7.4909e-07
0.000157938
-1.30511e-06
-2.62117e-07
0.000157652
1.11692e-06
1.27844e-06
0.000157084
1.08595e-06
1.47114e-06
0.000156994
-5.68599e-07
3.3214e-07
0.000157666
-4.9839e-06
8.13953e-07
0.000158113
-1.53934e-06
-4.03593e-08
0.000157832
6.56791e-07
4.95685e-07
0.00015708
2.07648e-06
5.54976e-07
0.000156996
-1.19127e-06
7.47697e-07
0.000157583
-5.80798e-06
9.57852e-07
0.000158096
-1.62865e-06
-7.22123e-08
0.000157843
1.36766e-06
9.33322e-07
0.000157084
2.58964e-06
8.35088e-07
0.000156916
9.80671e-07
2.33692e-07
0.000157458
-4.62666e-06
2.15816e-08
0.000157862
-5.63548e-07
-2.90112e-07
0.000157616
2.3113e-07
6.47325e-07
0.000157041
-4.14865e-07
1.38238e-06
0.000157172
-1.70336e-06
1.98261e-07
0.00015763
-5.41941e-06
4.03461e-07
0.000158063
-1.30112e-06
-1.98594e-07
0.000157868
-4.20182e-07
9.05229e-07
0.000157039
1.58634e-06
1.07793e-06
0.000157111
-2.57685e-07
-1.17444e-07
0.00015751
-6.12858e-06
8.52297e-07
0.000157972
1.36731e-06
-6.94859e-07
0.000157712
-2.51717e-06
8.69726e-07
0.000157038
2.71968e-07
1.40381e-06
0.000157265
-3.45625e-06
1.19589e-06
0.000157806
-7.22777e-06
8.56184e-07
0.000158164
-6.65936e-07
1.49569e-07
0.000157739
4.88649e-07
1.07933e-06
0.000157121
4.77416e-07
9.98165e-07
0.000157245
-1.67381e-06
8.54892e-07
0.000157712
-5.16897e-06
1.55229e-06
0.000157892
1.28288e-06
3.14687e-07
0.000157611
-4.37117e-07
1.05811e-06
-8.70157e-07
1.49248e-06
0.000143444
-3.76284e-06
2.06026e-06
0.000143543
-3.73835e-06
7.08534e-07
0.000143735
-7.97657e-07
-6.60551e-07
0.000143592
1.00199e-06
1.84217e-06
0.000143246
1.6963e-07
2.49107e-06
0.000143306
-1.94391e-06
9.07146e-07
0.00014378
-6.33902e-06
8.67056e-07
0.000144028
-1.1384e-06
-4.40823e-07
0.000143753
4.37746e-07
8.6853e-07
0.000143165
1.34509e-06
1.44284e-06
0.000143259
-3.26515e-06
1.40105e-06
0.00014364
-7.8164e-06
1.01522e-06
0.000143937
-1.34241e-06
-4.92064e-07
0.000143762
1.62061e-06
1.31948e-06
0.000143156
1.98875e-06
1.69041e-06
0.000143126
-2.10921e-07
7.78508e-07
0.000143486
-6.06989e-06
1.52605e-08
0.000143671
-4.86332e-08
-7.15901e-07
0.000143562
-1.11136e-07
1.08036e-06
0.000143207
-1.68752e-06
2.37302e-06
0.000143462
-3.27287e-06
7.46821e-07
0.000143668
-6.90159e-06
3.96623e-07
0.000143903
-9.38915e-07
-6.60576e-07
0.000143809
-7.49148e-07
1.36247e-06
0.00014312
6.34437e-07
2.02166e-06
0.000143415
-1.86541e-06
4.52219e-07
0.000143576
-7.6976e-06
8.42214e-07
0.000143798
2.33115e-06
-1.07589e-06
0.000143674
-3.37066e-06
1.45207e-06
0.000143164
-1.07597e-06
2.40148e-06
0.000143523
-5.76448e-06
1.79875e-06
0.000143891
-9.28408e-06
7.78312e-07
0.000144039
-6.35275e-07
-2.39573e-07
0.000143658
1.0226e-07
1.47782e-06
0.000143232
-8.42384e-07
1.79629e-06
0.000143543
-3.76227e-06
1.44303e-06
0.000143763
-6.8023e-06
1.69681e-06
0.000143684
1.97117e-06
5.0465e-08
0.00014353
-1.20675e-06
1.57469e-06
-2.78303e-06
2.55296e-06
0.000131455
-6.2009e-06
3.39977e-06
0.000130842
-4.24392e-06
8.72405e-08
0.000130736
-6.69829e-08
-1.95246e-06
0.00013117
-1.93328e-07
2.77478e-06
0.000131325
-1.69307e-06
4.8283e-06
0.000131458
-3.8757e-06
2.52013e-06
0.000131284
-7.54993e-06
5.51452e-07
0.00013123
-6.61702e-07
-1.74389e-06
0.00013137
-8.99987e-07
1.63203e-06
0.000131207
-5.84704e-07
3.64496e-06
0.000131357
-6.18549e-06
2.97611e-06
0.000131057
-9.82281e-06
5.62736e-07
0.000130962
-8.72631e-07
-1.75339e-06
0.000131288
8.06968e-07
1.99661e-06
0.000131151
2.09637e-07
3.79216e-06
0.000131158
-2.04706e-06
2.25395e-06
0.0001309
-7.34098e-06
-4.55455e-07
0.000130763
6.05472e-07
-2.03563e-06
0.000131241
-1.69826e-06
1.93107e-06
0.000131315
-3.91269e-06
4.72489e-06
0.000131526
-5.27453e-06
2.14503e-06
0.000131061
-8.18193e-06
-5.53089e-08
0.000130955
-4.9945e-07
-1.96501e-06
0.00013133
-2.24846e-06
2.08697e-06
0.000131119
-1.44915e-06
4.20952e-06
0.000131621
-4.35308e-06
2.05139e-06
0.000131065
-9.22354e-06
3.74353e-07
0.000130949
3.2009e-06
-2.26117e-06
0.000131415
-5.5187e-06
2.56434e-06
0.00013121
-3.22221e-06
4.73726e-06
0.000131433
-8.55495e-06
3.22003e-06
0.000131199
-1.15053e-05
4.10089e-08
0.000131129
-9.55886e-07
-1.6933e-06
0.000131242
-1.57235e-06
2.14049e-06
0.000131207
-3.18709e-06
3.837e-06
0.000131544
-6.62852e-06
2.83299e-06
0.000131109
-8.45276e-06
1.26766e-06
0.000130746
2.65075e-06
-1.19331e-06
0.00013108
-3.22996e-06
2.47135e-06
-5.72962e-06
4.97322e-06
0.000119578
-7.58121e-06
5.35106e-06
0.000118233
-4.02635e-06
-2.16736e-06
0.000118488
-5.15263e-07
-4.74196e-06
0.000119832
-3.84086e-06
4.44505e-06
0.000120399
-4.28736e-06
9.06328e-06
0.000119998
-5.08856e-06
5.21362e-06
0.000118831
-8.21248e-06
-1.02233e-06
0.000119168
-1.71655e-06
-4.5702e-06
0.000120261
-4.8747e-06
3.12583e-06
0.000120389
-3.56768e-06
7.83447e-06
0.000119842
-8.46607e-06
5.47049e-06
0.00011855
-1.11699e-05
-1.43796e-06
0.000118658
-1.57748e-06
-4.49744e-06
0.000119931
-2.61387e-06
3.28189e-06
0.000120324
-2.7765e-06
7.84103e-06
0.000119788
-3.1899e-06
4.73728e-06
0.000118582
-7.83435e-06
-2.19148e-06
0.000118804
-7.67456e-08
-4.83227e-06
0.000120185
-5.87327e-06
3.59209e-06
0.000120417
-6.74709e-06
9.04522e-06
0.000119962
-6.38452e-06
4.24843e-06
0.000118625
-8.75674e-06
-1.83439e-06
0.000118684
-1.29373e-06
-4.67749e-06
0.000119777
-6.15958e-06
3.41066e-06
0.000120226
-4.64099e-06
8.25226e-06
0.000120344
-6.29408e-06
4.7664e-06
0.000118759
-1.00944e-05
-1.43199e-06
0.000118995
2.2241e-06
-4.7522e-06
0.000120392
-1.00863e-05
4.51824e-06
0.000120313
-5.79305e-06
9.03772e-06
0.00011943
-1.03213e-05
5.45246e-06
0.000118239
-1.33676e-05
-2.36941e-06
0.000118738
-3.13884e-06
-4.82096e-06
0.000119942
-5.9648e-06
3.39746e-06
0.000120148
-6.13332e-06
7.84851e-06
0.000119626
-8.77672e-06
5.11915e-06
0.000118412
-9.75894e-06
-7.34876e-07
0.000118654
1.60835e-06
-4.02756e-06
0.000119675
-7.60944e-06
4.0368e-06
-9.00731e-06
9.38284e-06
0.000105783
-6.83557e-06
6.00798e-06
0.00010479
-3.87643e-06
-7.07787e-06
0.00010625
-3.32187e-06
-8.53767e-06
0.000107754
-9.28559e-06
7.23498e-06
0.00010807
-6.38212e-06
1.42822e-05
0.000106635
-4.62692e-06
6.97532e-06
0.000105211
-8.64741e-06
-5.24805e-06
0.00010685
-5.36864e-06
-8.40811e-06
0.000108342
-1.07809e-05
5.7904e-06
0.000108087
-6.24238e-06
1.32328e-05
0.000106369
-8.84026e-06
6.83256e-06
0.00010495
-1.19792e-05
-6.30478e-06
0.000106205
-4.5097e-06
-8.28754e-06
0.000107818
-8.04238e-06
5.72304e-06
0.000108201
-5.58395e-06
1.31976e-05
0.000106785
-2.51303e-06
6.54536e-06
0.000105422
-7.86468e-06
-6.3279e-06
0.000106931
-3.30314e-06
-8.5904e-06
0.000108344
-1.1815e-05
6.55024e-06
0.000107983
-8.8386e-06
1.43036e-05
0.000106611
-5.8479e-06
5.13346e-06
0.000105227
-9.12911e-06
-6.01349e-06
0.000106176
-4.25678e-06
-8.27797e-06
0.000107209
-1.15274e-05
5.92585e-06
0.000107926
-7.6375e-06
1.34718e-05
0.000107064
-6.39257e-06
6.7783e-06
0.000105371
-1.04912e-05
-5.77241e-06
0.000106953
-1.60049e-06
-8.0284e-06
0.000108469
-1.58321e-05
7.55065e-06
0.000108048
-7.70691e-06
1.43895e-05
0.000105646
-1.02407e-05
6.45345e-06
0.000104169
-1.50553e-05
-7.36942e-06
0.000105928
-7.67971e-06
-8.83073e-06
0.00010771
-1.21642e-05
5.87366e-06
0.000107567
-8.33887e-06
1.3169e-05
0.000105601
-9.00433e-06
6.42481e-06
0.000104654
-1.09679e-05
-5.68343e-06
0.000106486
-2.20162e-06
-7.97592e-06
0.000107341
-1.3244e-05
6.68263e-06
-1.09832e-05
1.47631e-05
9.1328e-05
-5.86504e-06
3.16186e-06
9.19209e-05
-5.02575e-06
-1.40901e-05
9.37217e-05
-6.39037e-06
-1.11147e-05
9.37158e-05
-1.30979e-05
1.12546e-05
9.36027e-05
-7.13856e-06
1.7981e-05
9.21797e-05
-4.15575e-06
5.06062e-06
9.18731e-05
-9.88428e-06
-1.19068e-05
9.38655e-05
-9.06021e-06
-1.09064e-05
9.39857e-05
-1.49032e-05
9.93076e-06
9.33602e-05