/*--------------------------------*- C++ -*----------------------------------*\
  =========                 |
  \\      /  F ield         | OpenFOAM: The Open Source CFD Toolbox
   \\    /   O peration     | Website:  https://openfoam.org
    \\  /    A nd           | Version:  10
     \\/     M anipulation  |
\*---------------------------------------------------------------------------*/
FoamFile
{
    format      ascii;
    class       volScalarField;
    location    "8";
    object      pMean;
}
// * * * * * * * * * * * * * * * * * * * * * * * * * * * * * * * * * * * * * //

dimensions      [0 2 -2 0 0 0 0];

internalField   nonuniform List<scalar> 
25600
(
3.93444e-07
-9.76092e-07
1.38741e-07
6.01363e-08
-2.26314e-07
9.65328e-09
-7.47034e-08
1.10825e-08
7.59277e-08
1.44337e-07
2.12734e-07
2.5677e-07
2.86699e-07
2.95164e-07
2.76884e-07
2.40936e-07
1.74198e-07
9.45944e-08
1.08487e-08
-8.04692e-08
-1.64365e-07
-2.55207e-07
-3.2749e-07
-3.97715e-07
-4.65789e-07
-5.46956e-07
-6.2421e-07
-6.9823e-07
-7.48792e-07
-7.7697e-07
-7.88251e-07
-7.83968e-07
-7.26596e-07
-7.25884e-07
-5.54673e-07
-6.59624e-07
-2.95359e-07
-3.18301e-07
-1.22448e-06
4.11939e-07
2.3744e-07
-1.0953e-06
5.23411e-09
-5.72504e-08
-3.58629e-07
-1.11202e-07
-1.75116e-07
-6.79205e-08
3.77998e-08
1.33338e-07
2.51331e-07
3.28505e-07
3.9752e-07
4.32532e-07
4.26282e-07
4.02513e-07
3.2084e-07
2.26631e-07
1.19196e-07
7.39025e-09
-9.23986e-08
-2.08211e-07
-2.9308e-07
-3.7581e-07
-4.74612e-07
-5.84647e-07
-6.92621e-07
-7.99795e-07
-8.62788e-07
-9.09889e-07
-9.27581e-07
-9.21723e-07
-8.59702e-07
-8.55581e-07
-6.68979e-07
-7.73892e-07
-3.82355e-07
-3.83282e-07
-1.20399e-06
3.14647e-07
1.55183e-07
-1.19059e-06
-9.60099e-08
-1.68589e-07
-4.89059e-07
-2.34706e-07
-2.84824e-07
-1.67694e-07
-7.41492e-09
1.13951e-07
2.99958e-07
4.05786e-07
5.20744e-07
5.8287e-07
5.87516e-07
5.81232e-07
4.6904e-07
3.5616e-07
2.16324e-07
8.41057e-08
-2.43054e-08
-1.67204e-07
-2.54726e-07
-3.47701e-07
-4.84707e-07
-6.27692e-07
-7.78114e-07
-9.34684e-07
-1.01148e-06
-1.08706e-06
-1.11285e-06
-1.09617e-06
-1.02936e-06
-1.0113e-06
-7.92765e-07
-9.03718e-07
-4.65609e-07
-4.54116e-07
-1.24854e-06
2.33625e-07
1.07435e-07
-1.26038e-06
-1.84899e-07
-2.82738e-07
-6.30118e-07
-3.76644e-07
-4.21606e-07
-3.02113e-07
-6.16083e-08
7.4164e-08
3.54707e-07
4.80939e-07
6.56985e-07
7.46871e-07
7.64435e-07
7.87974e-07
6.24247e-07
4.87478e-07
3.03885e-07
1.51822e-07
4.51313e-08
-1.27255e-07
-2.00567e-07
-2.98597e-07
-4.87884e-07
-6.67869e-07
-8.79587e-07
-1.10475e-06
-1.19656e-06
-1.31904e-06
-1.34763e-06
-1.30981e-06
-1.23588e-06
-1.19177e-06
-9.25219e-07
-1.06285e-06
-5.42416e-07
-5.26421e-07
-1.26939e-06
1.76411e-07
9.24214e-08
-1.30533e-06
-2.65759e-07
-4.05829e-07
-7.94707e-07
-5.41943e-07
-5.83741e-07
-4.73737e-07
-1.18561e-07
5.65126e-09
4.16913e-07
5.47444e-07
8.12263e-07
9.26401e-07
9.57155e-07
1.03195e-06
7.87805e-07
6.20697e-07
3.75755e-07
2.118e-07
1.20159e-07
-8.3571e-08
-1.18585e-07
-2.18999e-07
-4.78871e-07
-6.97356e-07
-9.98605e-07
-1.31878e-06
-1.42794e-06
-1.62014e-06
-1.64935e-06
-1.56834e-06
-1.49249e-06
-1.39686e-06
-1.06756e-06
-1.27109e-06
-6.08861e-07
-6.05406e-07
-1.26982e-06
1.38675e-07
1.09728e-07
-1.32225e-06
-3.47005e-07
-5.45636e-07
-9.97077e-07
-7.31462e-07
-7.66552e-07
-6.83474e-07
-1.82536e-07
-1.17484e-07
4.86396e-07
6.04691e-07
9.9088e-07
1.12056e-06
1.1702e-06
1.32371e-06
9.62698e-07
7.58698e-07
4.22295e-07
2.52329e-07
2.08435e-07
-1.82495e-08
1.27922e-08
-1.00766e-07
-4.53906e-07
-7.04088e-07
-1.1315e-06
-1.58177e-06
-1.71784e-06
-2.01469e-06
-2.02299e-06
-1.86273e-06
-1.80601e-06
-1.62387e-06
-1.22179e-06
-1.55089e-06
-6.44483e-07
-6.90313e-07
-1.22764e-06
1.18839e-07
1.69592e-07
-1.30409e-06
-4.4017e-07
-7.13426e-07
-1.25515e-06
-9.38989e-07
-9.63049e-07
-9.41994e-07
-2.57636e-07
-3.29256e-07
5.64374e-07
6.45231e-07
1.19603e-06
1.32344e-06
1.407e-06
1.68305e-06
1.14066e-06
8.95526e-07
4.26577e-07
2.68857e-07
3.24905e-07
7.62405e-08
2.08445e-07
6.47368e-08
-4.03254e-07
-6.66535e-07
-1.27621e-06
-1.8997e-06
-2.08269e-06
-2.5306e-06
-2.48096e-06
-2.18606e-06
-2.18145e-06
-1.86791e-06
-1.39671e-06
-1.92836e-06
-6.34083e-07
-7.86046e-07
-1.1344e-06
1.12465e-07
2.88809e-07
-1.24728e-06
-5.61753e-07
-9.24154e-07
-1.59058e-06
-1.14859e-06
-1.15907e-06
-1.25868e-06
-3.61312e-07
-6.70211e-07
6.67381e-07
6.58889e-07
1.43166e-06
1.52637e-06
1.66371e-06
2.13277e-06
1.31319e-06
1.01724e-06
3.72688e-07
2.50349e-07
4.92262e-07
2.14966e-07
4.81053e-07
2.81024e-07
-3.07002e-07
-5.50108e-07
-1.43171e-06
-2.27683e-06
-2.54147e-06
-3.19484e-06
-3.02027e-06
-2.5366e-06
-2.62511e-06
-2.12754e-06
-1.60235e-06
-2.41583e-06
-5.43668e-07
-8.98785e-07
-9.89819e-07
1.08558e-07
4.88984e-07
-1.15276e-06
-7.39187e-07
-1.19962e-06
-2.01705e-06
-1.3339e-06
-1.33365e-06
-1.63951e-06
-5.14927e-07
-1.18545e-06
8.15903e-07
6.44691e-07
1.70595e-06
1.70967e-06
1.9382e-06
2.70227e-06
1.47695e-06
1.10463e-06
2.29464e-07
1.89684e-07
7.38266e-07
4.07447e-07
8.44863e-07
5.54164e-07
-1.39002e-07
-3.07334e-07
-1.59363e-06
-2.71849e-06
-3.12741e-06
-4.0255e-06
-3.62425e-06
-2.90217e-06
-3.14132e-06
-2.4153e-06
-1.85482e-06
-3.00214e-06
-3.4251e-07
-1.03768e-06
-7.94343e-07
9.80686e-08
7.99715e-07
-1.02712e-06
-9.99348e-07
-1.56726e-06
-2.53673e-06
-1.45715e-06
-1.48422e-06
-2.0884e-06
-7.40683e-07
-1.91471e-06
1.03863e-06
5.8957e-07
2.02287e-06
1.85745e-06
2.24152e-06
3.43317e-06
1.62059e-06
1.13575e-06
-4.86088e-08
7.14933e-08
1.10946e-06
6.53307e-07
1.30408e-06
8.87248e-07
1.41733e-07
1.2056e-07
-1.75653e-06
-3.21787e-06
-3.86647e-06
-5.03156e-06
-4.26673e-06
-3.27555e-06
-3.7208e-06
-2.74539e-06
-2.15511e-06
-3.67838e-06
6.3969e-09
-1.20454e-06
-5.54183e-07
8.10787e-08
1.2448e-06
-8.98734e-07
-1.36565e-06
-2.05234e-06
-3.13692e-06
-1.46705e-06
-1.59984e-06
-2.61111e-06
-1.048e-06
-2.87009e-06
1.34452e-06
4.77262e-07
2.38507e-06
1.96017e-06
2.60358e-06
4.36e-06
1.72791e-06
1.1002e-06
-5.05265e-07
-1.04445e-07
1.64871e-06
9.36449e-07
1.86571e-06
1.28695e-06
6.03314e-07
8.08192e-07
-1.9201e-06
-3.76109e-06
-4.79466e-06
-6.19047e-06
-4.91621e-06
-3.66047e-06
-4.3513e-06
-3.13754e-06
-2.48073e-06
-4.41521e-06
5.28107e-07
-1.39377e-06
-2.70838e-07
7.56947e-08
1.83718e-06
-8.02424e-07
-1.85961e-06
-2.68691e-06
-3.77144e-06
-1.31301e-06
-1.68054e-06
-3.19625e-06
-1.47099e-06
-4.03807e-06
1.74537e-06
2.75638e-07
2.81712e-06
2.03006e-06
3.07835e-06
5.50378e-06
1.78357e-06
9.93329e-07
-1.15785e-06
-3.28027e-07
2.35798e-06
1.21018e-06
2.5406e-06
1.77374e-06
1.33782e-06
1.81812e-06
-2.06621e-06
-4.30991e-06
-5.91938e-06
-7.44456e-06
-5.55271e-06
-4.04979e-06
-5.0085e-06
-3.62078e-06
-2.77869e-06
-5.21488e-06
1.24271e-06
-1.59055e-06
6.18586e-08
1.24669e-07
2.53562e-06
-7.92936e-07
-2.47891e-06
-3.47272e-06
-4.36059e-06
-9.74142e-07
-1.71672e-06
-3.82937e-06
-2.04876e-06
-5.40719e-06
2.22108e-06
-3.59324e-08
3.33273e-06
2.10004e-06
3.76838e-06
6.85084e-06
1.76607e-06
7.78779e-07
-2.0413e-06
-5.47858e-07
3.23474e-06
1.41968e-06
3.34218e-06
2.36623e-06
2.47883e-06
3.20706e-06
-2.17832e-06
-4.81109e-06
-7.23327e-06
-8.66788e-06
-6.15954e-06
-4.45103e-06
-5.69635e-06
-4.24104e-06
-2.98609e-06
-6.07332e-06
2.15951e-06
-1.79399e-06
4.4233e-07
3.00386e-07
3.26816e-06
-9.32254e-07
-3.24511e-06
-4.40584e-06
-4.77223e-06
-4.63932e-07
-1.71504e-06
-4.47124e-06
-2.8063e-06
-6.92753e-06
2.6853e-06
-5.01593e-07
3.9549e-06
2.24189e-06
4.8173e-06
8.37005e-06
1.63868e-06
4.13427e-07
-3.17758e-06
-6.88685e-07
4.16995e-06
1.48773e-06
4.3165e-06
3.13214e-06
4.17876e-06
4.9927e-06
-2.22757e-06
-5.20511e-06
-8.72167e-06
-9.68189e-06
-6.7774e-06
-4.87431e-06
-6.39297e-06
-5.02528e-06
-2.96992e-06
-7.0553e-06
3.28279e-06
-2.02014e-06
8.60506e-07
7.09497e-07
3.79177e-06
-1.33834e-06
-4.17067e-06
-5.43235e-06
-4.85634e-06
1.49594e-07
-1.67716e-06
-5.15001e-06
-3.75594e-06
-8.53288e-06
2.98163e-06
-1.19722e-06
4.65262e-06
2.53958e-06
6.37391e-06
9.93193e-06
1.37088e-06
-2.13032e-07
-4.58031e-06
-6.73816e-07
4.97455e-06
1.25401e-06
5.48871e-06
4.12385e-06
6.63081e-06
7.11909e-06
-2.21056e-06
-5.4165e-06
-1.03493e-05
-1.02848e-05
-7.56984e-06
-5.36525e-06
-7.17324e-06
-6.05869e-06
-2.60571e-06
-8.3036e-06
4.57052e-06
-2.35539e-06
1.28696e-06
1.44552e-06
3.83199e-06
-2.11128e-06
-5.40672e-06
-6.61519e-06
-4.49e-06
6.4157e-07
-1.65949e-06
-6.01095e-06
-5.0506e-06
-1.0124e-05
2.79583e-06
-2.23719e-06
5.33392e-06
3.01625e-06
8.56423e-06
1.13615e-05
8.99213e-07
-1.30325e-06
-6.37341e-06
-4.29483e-07
5.30898e-06
5.70367e-07
6.79279e-06
5.36675e-06
9.97299e-06
9.45464e-06
-2.12251e-06
-5.45774e-06
-1.21153e-05
-1.0281e-05
-8.73527e-06
-5.9544e-06
-8.24085e-06
-7.46348e-06
-1.71744e-06
-1.00894e-05
5.93425e-06
-3.04653e-06
1.59409e-06
2.55643e-06
2.65767e-06
-3.44449e-06
-7.09555e-06
-8.01839e-06
-3.66183e-06
6.50319e-07
-1.79947e-06
-7.2888e-06
-6.97108e-06
-1.18578e-05
1.63779e-06
-3.84958e-06
5.79802e-06
3.53955e-06
1.13401e-05
1.22139e-05
4.41848e-08
-3.18231e-06
-8.85929e-06
-1.29037e-07
4.66755e-06
-8.73498e-07
8.09253e-06
6.60496e-06
1.42471e-05
1.15692e-05
-2.09749e-06
-5.43108e-06
-1.41879e-05
-9.63565e-06
-1.07749e-05
-6.8893e-06
-9.95697e-06
-9.60996e-06
-4.61498e-07
-1.28729e-05
7.1546e-06
-4.4838e-06
1.32864e-06
3.76533e-06
-4.35205e-07
-6.08528e-06
-9.98178e-06
-1.004e-05
-2.75926e-06
-4.96151e-07
-2.59047e-06
-9.76831e-06
-1.00755e-05
-1.41633e-05
-1.28619e-06
-6.54503e-06
5.3666e-06
3.79949e-06
1.4334e-05
1.17507e-05
-1.73973e-06
-6.50716e-06
-1.25408e-05
-3.4265e-07
2.22662e-06
-3.55985e-06
8.82188e-06
7.39409e-06
1.90913e-05
1.30294e-05
-2.56605e-06
-5.83432e-06
-1.69842e-05
-8.63053e-06
-1.42824e-05
-8.59116e-06
-1.31148e-05
-1.29677e-05
6.22097e-07
-1.74751e-05
7.71149e-06
-7.54229e-06
-1.82118e-07
4.39273e-06
-7.23103e-06
-9.93041e-06
-1.44011e-05
-1.36174e-05
-2.82197e-06
-3.85533e-06
-4.44734e-06
-1.42095e-05
-1.55743e-05
-1.80837e-05
-7.13873e-06
-1.07898e-05
3.44367e-06
2.53785e-06
1.63885e-05
8.75908e-06
-5.02212e-06
-1.18892e-05
-1.85578e-05
-2.33681e-06
-3.51927e-06
-8.00443e-06
8.55201e-06
6.47298e-06
2.33724e-05
1.22732e-05
-3.84715e-06
-6.90404e-06
-2.14236e-05
-8.37561e-06
-2.05868e-05
-1.1401e-05
-1.84287e-05
-1.9024e-05
3.03382e-07
-2.51343e-05
6.98174e-06
-1.30927e-05
-4.63454e-06
2.68699e-06
-1.79352e-05
-1.64313e-05
-2.11803e-05
-1.9353e-05
-4.99271e-06
-9.77926e-06
-7.08483e-06
-2.05729e-05
-2.34443e-05
-2.47216e-05
-1.63917e-05
-1.61828e-05
-2.31731e-07
-5.81307e-07
1.56692e-05
2.38815e-06
-9.47771e-06
-1.90565e-05
-2.67616e-05
-7.1475e-06
-1.31358e-05
-1.47732e-05
6.98141e-06
3.42749e-06
2.58678e-05
9.13463e-06
-5.71644e-06
-7.93559e-06
-2.68003e-05
-9.85094e-06
-3.05368e-05
-1.49248e-05
-2.5298e-05
-2.73893e-05
-2.93396e-06
-3.64781e-05
5.0972e-06
-2.15567e-05
-1.19828e-05
-2.71076e-06
-3.09105e-05
-2.26067e-05
-2.89814e-05
-2.48893e-05
-5.78572e-06
-1.73667e-05
-9.57441e-06
-2.74377e-05
-3.01708e-05
-2.99637e-05
-2.81199e-05
-2.29233e-05
-4.85536e-06
-3.44684e-06
1.55894e-05
-6.75859e-06
-1.47942e-05
-2.62113e-05
-3.32126e-05
-1.01423e-05
-2.6169e-05
-2.44854e-05
3.95013e-06
7.81597e-07
3.04557e-05
3.61501e-06
-8.20367e-06
-8.24711e-06
-2.92533e-05
-8.72505e-06
-4.32599e-05
-1.92276e-05
-3.22448e-05
-3.42418e-05
-4.58844e-06
-5.06529e-05
2.3129e-06
-3.13548e-05
-1.81855e-05
-6.7247e-06
-4.46365e-05
-3.37013e-05
-3.32977e-05
-1.86318e-05
1.0941e-06
-2.57156e-05
-1.36425e-05
-2.91497e-05
-2.42793e-05
-2.75634e-05
-4.1053e-05
-3.10971e-05
-7.25335e-06
4.42522e-06
2.25652e-05
-1.75722e-05
-2.16825e-05
-2.83846e-05
-2.54307e-05
-3.62268e-06
-4.24158e-05
-3.89807e-05
1.95326e-06
8.59092e-06
4.42408e-05
-1.03416e-06
-1.21817e-05
-5.11306e-06
-1.83692e-05
1.37349e-06
-5.70583e-05
-2.66271e-05
-3.57734e-05
-2.73161e-05
1.1025e-06
-6.69702e-05
-3.53262e-06
-3.7224e-05
-8.49395e-06
-8.63639e-07
-6.06612e-05
-4.12159e-05
-2.34914e-05
1.18332e-05
1.64341e-05
-3.75095e-05
-1.86035e-05
-1.65775e-05
6.46644e-06
-1.81309e-05
-5.93647e-05
-4.15179e-05
2.72335e-06
3.7217e-05
3.87381e-05
-3.17179e-05
-2.92356e-05
-1.52954e-05
6.93103e-06
1.03321e-05
-6.35429e-05
-5.63433e-05
1.11745e-05
3.84011e-05
6.75287e-05
-9.45386e-06
-1.80187e-05
9.67294e-06
1.34743e-05
1.87329e-05
-7.20215e-05
-3.58082e-05
-2.67341e-05
3.67449e-06
1.80957e-05
-8.74377e-05
-1.16324e-05
-2.59468e-05
2.92856e-05
1.55836e-05
-7.93482e-05
-4.67121e-05
4.46534e-06
5.49104e-05
3.11794e-05
-4.9966e-05
-2.1443e-05
1.40173e-05
5.3068e-05
-8.2064e-06
-7.82459e-05
-4.65376e-05
3.08484e-05
8.13533e-05
5.55118e-05
-4.44251e-05
-2.86142e-05
1.49333e-05
5.65204e-05
2.51124e-05
-8.82243e-05
-7.04874e-05
3.61171e-05
8.86368e-05
9.3659e-05
-1.82811e-05
-2.50359e-05
3.74937e-05
5.96951e-05
3.76419e-05
-8.71747e-05
-4.34673e-05
-2.77565e-06
5.21231e-05
3.49412e-05
-0.000107843
-1.69282e-05
3.97589e-06
8.78653e-05
3.32171e-05
-9.5124e-05
-4.42504e-05
4.29575e-05
0.000102572
4.25734e-05
-6.58616e-05
-1.94042e-05
5.32872e-05
0.000101125
-9.82627e-08
-9.67209e-05
-4.60729e-05
6.82408e-05
0.000134691
6.97389e-05
-5.72342e-05
-2.87187e-05
5.30741e-05
0.000105817
3.72215e-05
-0.000109411
-7.55506e-05
7.15832e-05
0.000138935
0.000114804
-3.10903e-05
-2.40825e-05
7.2214e-05
0.000105824
5.05031e-05
-0.000103944
-4.65217e-05
3.07581e-05
9.70581e-05
5.0899e-05
-0.000127169
-1.43401e-05
4.25637e-05
0.000143556
5.71493e-05
-0.000103542
-4.03518e-05
7.59687e-05
0.000141332
4.72971e-05
-7.87253e-05
-2.00671e-05
8.55194e-05
0.000139107
3.75921e-06
-0.000111289
-4.17835e-05
0.000100257
0.000175971
7.65166e-05
-6.60971e-05
-2.16171e-05
8.41813e-05
0.000145209
4.46239e-05
-0.000125177
-7.53116e-05
0.000102926
0.000178412
0.000131304
-4.22386e-05
-3.13809e-05
9.90444e-05
0.000144839
5.7444e-05
-0.000115001
-3.98324e-05
6.19633e-05
0.000136602
5.62049e-05
-0.000141089
-1.16795e-05
7.37875e-05
0.000183407
6.74346e-05
-0.000108401
-3.29102e-05
9.5568e-05
0.000167454
4.72309e-05
-8.71839e-05
-2.33352e-05
0.000103413
0.000161019
2.65765e-06
-0.000115287
-4.23774e-05
0.000120983
0.000198907
7.888e-05
-7.44204e-05
-3.07038e-05
0.00010266
0.00017004
4.67199e-05
-0.000134758
-7.10174e-05
0.0001241
0.000193786
0.000133172
-5.24122e-05
-3.43528e-05
0.000113476
0.000163945
5.83436e-05
-0.000123061
-4.56019e-05
8.09426e-05
0.000160407
5.58361e-05
-0.000148408
-1.36903e-05
9.19243e-05
0.000209983
7.22191e-05
-0.000114636
-3.98447e-05
9.94362e-05
0.00017667
4.61464e-05
-9.53094e-05
-2.95458e-05
0.000107793
0.000165582
1.5585e-06
-0.000122462
-4.3501e-05
0.000124438
0.00021157
7.59989e-05
-7.95241e-05
-3.09251e-05
0.000106909
0.000175505
4.69102e-05
-0.000142695
-7.35308e-05
0.00013073
0.000204268
0.000131718
-5.61473e-05
-4.03644e-05
0.000115607
0.000171957
5.35815e-05
-0.000129644
-4.35706e-05
8.60179e-05
0.000165834
5.20978e-05
-0.00015483
-2.13793e-05
9.49058e-05
0.000215892
7.10518e-05
-0.000118086
-4.02864e-05
9.69842e-05
0.000175543
4.35595e-05
-0.000101265
-3.66015e-05
0.000103678
0.000164128
-1.6806e-06
-0.000130177
-4.50895e-05
0.000122663
0.000208034
7.47996e-05
-8.30383e-05
-3.74228e-05
0.000102969
0.000173057
4.45014e-05
-0.000147972
-7.74615e-05
0.000128112
0.000200256
0.000129668
-5.90596e-05
-4.35619e-05
0.000109819
0.000169016
5.00646e-05
-0.000134615
-4.6688e-05
8.24997e-05
0.000162274
5.20052e-05
-0.000158582
-2.53628e-05
9.05098e-05
0.000213691
6.90024e-05
-0.000118767
-4.1757e-05
9.35934e-05
0.000171519
4.04046e-05
-0.000104229
-3.92512e-05
0.000100105
0.000159497
-5.53391e-06
-0.000131621
-4.59272e-05
0.000120479
0.000204927
7.11618e-05
-8.53469e-05
-3.81219e-05
9.88325e-05
0.000168633
3.96858e-05
-0.000148436
-7.86907e-05
0.000124961
0.000196854
0.000126991
-6.00474e-05
-4.49128e-05
0.000105314
0.000164394
4.56056e-05
-0.000137165
-4.82254e-05
7.86748e-05
0.000158255
4.6928e-05
-0.000160665
-2.62849e-05
8.63888e-05
0.000209566
6.56954e-05
-0.000119293
-4.04063e-05
9.27396e-05
0.000167251
3.58748e-05
-0.000105301
-3.77334e-05
9.88417e-05
0.00015645
-9.46282e-06
-0.000131743
-4.40188e-05
0.000119632
0.000202061
6.79702e-05
-8.61519e-05
-3.79824e-05
9.7479e-05
0.000164317
3.6345e-05
-0.00014921
-7.64038e-05
0.000124423
0.000193219
0.000123096
-6.09056e-05
-4.54214e-05
0.000103586
0.00015987
4.17212e-05
-0.000138289
-4.74988e-05
7.70512e-05
0.000156016
4.44672e-05
-0.000160678
-2.59755e-05
8.46908e-05
0.000206246
6.19092e-05
-0.00012118
-3.97432e-05
9.36653e-05
0.000165943
3.32099e-05
-0.000107333
-3.61521e-05
9.91711e-05
0.000155462
-1.24792e-05
-0.00013348
-4.33694e-05
0.000120634
0.000202077
6.63439e-05
-8.86481e-05
-3.83412e-05
9.76368e-05
0.000163453
3.39084e-05
-0.000151547
-7.5048e-05
0.000125365
0.000192612
0.000121154
-6.35242e-05
-4.60568e-05
0.000104122
0.000158389
3.99561e-05
-0.000140736
-4.80305e-05
7.70239e-05
0.000155986
4.29186e-05
-0.000162465
-2.60535e-05
8.45882e-05
0.000206038
5.99424e-05
4.51351e-07
-9.09098e-07
1.86196e-07
1.10482e-07
-1.95704e-07
4.369e-08
-3.06784e-08
6.06685e-08
1.17778e-07
1.78041e-07
2.45239e-07
2.96907e-07
3.3136e-07
3.37873e-07
3.14948e-07
2.77159e-07
2.14657e-07
1.37259e-07
5.20303e-08
-3.8245e-08
-1.13917e-07
-1.94819e-07
-2.64201e-07
-3.42243e-07
-4.1659e-07
-4.88241e-07
-5.44345e-07
-6.03027e-07
-6.57704e-07
-6.98386e-07
-7.17167e-07
-7.16035e-07
-6.61977e-07
-6.70336e-07
-5.09832e-07
-6.14491e-07
-2.43276e-07
-2.54293e-07
-1.15509e-06
4.5384e-07
3.29686e-07
-1.03221e-06
4.84677e-08
-8.55374e-10
-3.17149e-07
-6.59362e-08
-1.2074e-07
-3.94651e-09
1.00979e-07
1.97942e-07
3.20707e-07
4.07745e-07
4.75637e-07
5.01635e-07
4.88398e-07
4.58195e-07
3.81155e-07
2.89626e-07
1.78662e-07
6.64058e-08
-2.07296e-08
-1.20285e-07
-2.01999e-07
-2.98244e-07
-4.02394e-07
-4.98128e-07
-5.80753e-07
-6.73338e-07
-7.53627e-07
-8.18799e-07
-8.44741e-07
-8.41165e-07
-7.87808e-07
-7.91351e-07
-6.15259e-07
-7.19803e-07
-3.33769e-07
-3.16961e-07
-1.17535e-06
3.40958e-07
2.4762e-07
-1.12947e-06
-5.28382e-08
-1.07049e-07
-4.45176e-07
-1.8366e-07
-2.12339e-07
-6.95389e-08
9.46431e-08
2.20108e-07
4.11875e-07
5.36194e-07
6.4297e-07
6.87988e-07
6.77548e-07
6.55876e-07
5.53263e-07
4.42621e-07
2.99752e-07
1.65703e-07
6.96225e-08
-4.97564e-08
-1.32535e-07
-2.44131e-07
-3.82049e-07
-5.03206e-07
-6.18392e-07
-7.5883e-07
-8.69475e-07
-9.71065e-07
-1.00616e-06
-9.90196e-07
-9.36329e-07
-9.25471e-07
-7.19105e-07
-8.31125e-07
-4.05268e-07
-3.73526e-07
-1.20513e-06
2.68855e-07
1.95766e-07
-1.20776e-06
-1.41754e-07
-2.22321e-07
-5.92232e-07
-3.18045e-07
-3.14638e-07
-1.5529e-07
8.59897e-08
2.29669e-07
5.19925e-07
6.77996e-07
8.32561e-07
8.97881e-07
8.84572e-07
8.78044e-07
7.28903e-07
5.99795e-07
4.17691e-07
2.63657e-07
1.63845e-07
1.8716e-08
-4.59149e-08
-1.70837e-07
-3.50038e-07
-4.94534e-07
-6.56312e-07
-8.67548e-07
-1.0115e-06
-1.16714e-06
-1.20788e-06
-1.16725e-06
-1.12165e-06
-1.08416e-06
-8.29224e-07
-9.62971e-07
-4.60594e-07
-4.23058e-07
-1.21794e-06
2.15854e-07
1.54907e-07
-1.28023e-06
-2.24907e-07
-3.45355e-07
-7.60093e-07
-4.70359e-07
-4.31941e-07
-2.72779e-07
7.70169e-08
2.2032e-07
6.57368e-07
8.29588e-07
1.04182e-06
1.13229e-06
1.11076e-06
1.13314e-06
8.96641e-07
7.59447e-07
5.31177e-07
3.61913e-07
2.62777e-07
7.57368e-08
6.45097e-08
-6.87156e-08
-2.99248e-07
-4.65208e-07
-7.03335e-07
-1.01382e-06
-1.18843e-06
-1.42008e-06
-1.46673e-06
-1.38325e-06
-1.36147e-06
-1.26684e-06
-9.43173e-07
-1.13213e-06
-5.02112e-07
-4.72545e-07
-1.21512e-06
1.68326e-07
1.16286e-07
-1.3576e-06
-3.09098e-07
-4.70679e-07
-9.51699e-07
-6.51703e-07
-5.81924e-07
-4.39947e-07
7.55574e-08
1.83855e-07
8.29656e-07
9.65718e-07
1.26651e-06
1.39689e-06
1.35749e-06
1.42852e-06
1.03674e-06
9.18149e-07
6.42343e-07
4.64047e-07
3.65721e-07
1.09962e-07
2.0681e-07
7.30072e-08
-2.1656e-07
-4.03924e-07
-7.72507e-07
-1.21294e-06
-1.40584e-06
-1.74691e-06
-1.79824e-06
-1.6471e-06
-1.66971e-06
-1.46696e-06
-1.06348e-06
-1.35954e-06
-5.3054e-07
-5.32185e-07
-1.19181e-06
1.19124e-07
6.53285e-08
-1.45805e-06
-4.0503e-07
-5.88797e-07
-1.16628e-06
-8.69689e-07
-7.7903e-07
-6.67923e-07
1.00416e-07
1.1963e-07
1.04535e-06
1.05208e-06
1.50131e-06
1.69033e-06
1.61887e-06
1.7744e-06
1.1242e-06
1.077e-06
7.48975e-07
5.69872e-07
4.59969e-07
1.03277e-07
3.95778e-07
2.72497e-07
-8.1033e-08
-3.02712e-07
-8.86084e-07
-1.47791e-06
-1.66571e-06
-2.1519e-06
-2.22201e-06
-1.97916e-06
-2.05435e-06
-1.66893e-06
-1.19275e-06
-1.66708e-06
-5.47153e-07
-6.1441e-07
-1.1486e-06
5.76408e-08
-2.24958e-08
-1.60381e-06
-5.17278e-07
-6.78521e-07
-1.39973e-06
-1.1412e-06
-1.04635e-06
-9.61448e-07
1.73135e-07
1.0902e-08
1.28604e-06
1.04232e-06
1.74532e-06
2.01776e-06
1.89805e-06
2.17062e-06
1.12701e-06
1.25365e-06
8.48974e-07
6.72262e-07
5.30259e-07
2.39744e-08
6.43261e-07
5.50444e-07
1.26696e-07
-1.70389e-07
-1.07626e-06
-1.81992e-06
-1.96534e-06
-2.65149e-06
-2.76389e-06
-2.40048e-06
-2.52305e-06
-1.84325e-06
-1.34714e-06
-2.09219e-06
-5.5554e-07
-7.32381e-07
-1.08231e-06
-2.9212e-08
-1.98617e-07
-1.83357e-06
-6.46555e-07
-6.95849e-07
-1.64751e-06
-1.49085e-06
-1.40675e-06
-1.3219e-06
3.30968e-07
-1.58867e-07
1.52448e-06
8.64588e-07
2.00237e-06
2.38291e-06
2.20193e-06
2.59856e-06
9.89956e-07
1.4678e-06
9.34405e-07
7.66522e-07
5.44269e-07
-1.57606e-07
9.66194e-07
9.37863e-07
4.31263e-07
-3.99428e-08
-1.37788e-06
-2.23312e-06
-2.29202e-06
-3.24643e-06
-3.47159e-06
-2.93807e-06
-3.06189e-06
-1.93879e-06
-1.52883e-06
-2.69785e-06
-5.78207e-07
-8.83609e-07
-9.77619e-07
-1.68322e-07
-5.41919e-07
-2.19577e-06
-7.87382e-07
-5.92106e-07
-1.90986e-06
-1.96288e-06
-1.89123e-06
-1.73296e-06
6.1657e-07
-4.26179e-07
1.70495e-06
4.39737e-07
2.27827e-06
2.797e-06
2.52294e-06
3.0206e-06
6.56078e-07
1.73464e-06
1.00309e-06
8.43931e-07
4.45248e-07
-5.03701e-07
1.36794e-06
1.4779e-06
8.5154e-07
1.23322e-08
-1.84393e-06
-2.70835e-06
-2.61094e-06
-3.95205e-06
-4.42692e-06
-3.64273e-06
-3.64503e-06
-1.90076e-06
-1.77024e-06
-3.551e-06
-6.45099e-07
-1.07687e-06
-8.27171e-07
-4.1409e-07
-1.16349e-06
-2.76481e-06
-9.18836e-07
-2.89938e-07
-2.19276e-06
-2.61363e-06
-2.54413e-06
-2.18331e-06
1.08237e-06
-8.42647e-07
1.76404e-06
-3.53428e-07
2.58178e-06
3.27134e-06
2.85715e-06
3.36905e-06
5.80202e-08
2.07379e-06
1.05662e-06
8.85732e-07
1.57727e-07
-1.07058e-06
1.85468e-06
2.23682e-06
1.4006e-06
-1.14781e-07
-2.52701e-06
-3.23186e-06
-2.86948e-06
-4.77667e-06
-5.73849e-06
-4.54754e-06
-4.23296e-06
-1.67043e-06
-2.09391e-06
-4.746e-06
-8.25292e-07
-1.31396e-06
-6.16099e-07
-8.30786e-07
-2.23426e-06
-3.64558e-06
-1.01218e-06
3.12922e-07
-2.50489e-06
-3.55134e-06
-3.42817e-06
-2.62975e-06
1.78928e-06
-1.50176e-06
1.58961e-06
-1.64429e-06
2.91156e-06
3.83787e-06
3.19852e-06
3.54422e-06
-9.00813e-07
2.49371e-06
1.09638e-06
8.39822e-07
-4.76833e-07
-1.97663e-06
2.43738e-06
3.30648e-06
2.03715e-06
-5.83602e-07
-3.50988e-06
-3.81172e-06
-2.98968e-06
-5.75467e-06
-7.56913e-06
-5.72054e-06
-4.76813e-06
-1.18034e-06
-2.53489e-06
-6.40026e-06
-1.24015e-06
-1.59237e-06
-3.25294e-07
-1.53041e-06
-3.96007e-06
-4.99104e-06
-1.03634e-06
1.33665e-06
-2.8906e-06
-4.88963e-06
-4.63205e-06
-3.05704e-06
2.83419e-06
-2.48203e-06
9.95089e-07
-3.62502e-06
3.26922e-06
4.53163e-06
3.53837e-06
3.38526e-06
-2.31495e-06
3.01352e-06
1.16434e-06
6.49453e-07
-1.59788e-06
-3.34018e-06
3.11074e-06
4.80742e-06
2.70235e-06
-1.57269e-06
-4.87946e-06
-4.44232e-06
-2.85516e-06
-6.94619e-06
-1.01117e-05
-7.23031e-06
-5.17716e-06
-3.34955e-07
-3.15343e-06
-8.6811e-06
-2.0661e-06
-1.91537e-06
7.78669e-08
-2.63203e-06
-6.60163e-06
-7.01072e-06
-9.47468e-07
2.92025e-06
-3.40089e-06
-6.7823e-06
-6.29487e-06
-3.43598e-06
4.30783e-06
-3.94174e-06
-2.10549e-07
-6.53744e-06
3.64922e-06
5.4104e-06
3.79463e-06
2.68669e-06
-4.36818e-06
3.6385e-06
1.2913e-06
1.68186e-07
-3.49274e-06
-5.37152e-06
3.86286e-06
6.86184e-06
3.23443e-06
-3.36817e-06
-6.82696e-06
-5.16719e-06
-2.32225e-06
-8.50522e-06
-1.35981e-05
-9.17509e-06
-5.46439e-06
9.4329e-07
-4.01501e-06
-1.18347e-05
-3.55314e-06
-2.28452e-06
5.94084e-07
-4.33925e-06
-1.04813e-05
-9.99439e-06
-7.5782e-07
5.16448e-06
-4.13765e-06
-9.43282e-06
-8.66782e-06
-3.78173e-06
6.22916e-06
-6.07998e-06
-2.31809e-06
-1.07035e-05
3.99371e-06
6.57068e-06
3.9173e-06
1.17715e-06
-7.25249e-06
4.28969e-06
1.62226e-06
-7.01474e-07
-6.36233e-06
-8.31754e-06
4.63589e-06
9.62356e-06
3.4822e-06
-6.23215e-06
-9.56109e-06
-6.04861e-06
-1.25052e-06
-1.06211e-05
-1.8358e-05
-1.16671e-05
-5.61108e-06
2.73611e-06
-5.27932e-06
-1.6169e-05
-6.05556e-06
-2.74666e-06
1.19378e-06
-6.93865e-06
-1.5962e-05
-1.42974e-05
-5.15835e-07
8.08447e-06
-5.21467e-06
-1.31397e-05
-1.20697e-05
-4.13427e-06
8.50725e-06
-9.22556e-06
-5.60737e-06
-1.65536e-05
4.17895e-06
8.01385e-06
3.62331e-06
-1.52652e-06
-1.12846e-05
4.88054e-06
1.97049e-06
-2.40354e-06
-1.06772e-05
-1.25339e-05
5.28155e-06
1.31441e-05
3.05433e-06
-1.06093e-05
-1.35308e-05
-7.31374e-06
3.99251e-07
-1.36822e-05
-2.47103e-05
-1.49774e-05
-5.80827e-06
5.01394e-06
-7.19226e-06
-2.21554e-05
-1.00166e-05
-3.42235e-06
1.68736e-06
-1.08179e-05
-2.35013e-05
-2.0541e-05
-5.0714e-07
1.15141e-05
-7.00741e-06
-1.82442e-05
-1.72021e-05
-4.75615e-06
1.08241e-05
-1.39275e-05
-1.05529e-05
-2.46423e-05
3.81599e-06
9.75017e-06
2.76009e-06
-5.87351e-06
-1.69086e-05
4.98244e-06
2.51214e-06
-5.15267e-06
-1.68331e-05
-1.86131e-05
5.52512e-06
1.72162e-05
1.68792e-06
-1.68137e-05
-1.93462e-05
-9.37999e-06
2.42686e-06
-1.81893e-05
-3.31489e-05
-1.94676e-05
-6.23549e-06
7.62201e-06
-1.02694e-05
-3.03308e-05
-1.61231e-05
-4.66464e-06
1.72073e-06
-1.66119e-05
-3.36435e-05
-2.96365e-05
-1.30466e-06
1.48356e-05
-1.01457e-05
-2.54903e-05
-2.46551e-05
-6.14777e-06
1.25258e-05
-2.08789e-05
-1.77514e-05
-3.59368e-05
2.52537e-06
1.10189e-05
4.14893e-07
-1.24167e-05
-2.5056e-05
4.18518e-06
1.9612e-06
-1.01429e-05
-2.55475e-05
-2.75221e-05
4.67411e-06
2.13122e-05
-1.82123e-06
-2.55505e-05
-2.82443e-05
-1.29742e-05
4.17788e-06
-2.50746e-05
-4.39661e-05
-2.63561e-05
-7.63441e-06
1.00008e-05
-1.52419e-05
-4.14045e-05
-2.52307e-05
-7.1494e-06
4.76443e-07
-2.50972e-05
-4.75101e-05
-4.31138e-05
-4.19492e-06
1.65413e-05
-1.58343e-05
-3.58979e-05
-3.64218e-05
-9.35946e-06
1.22724e-05
-3.10781e-05
-2.8292e-05
-5.17873e-05
-8.18776e-07
1.14271e-05
-4.0834e-06
-2.2117e-05
-3.71469e-05
1.11826e-06
2.98339e-07
-1.81679e-05
-3.77907e-05
-4.08281e-05
1.62323e-06
2.40284e-05
-7.92413e-06
-3.78517e-05
-4.20433e-05
-1.93597e-05
4.2259e-06
-3.54612e-05
-5.81514e-05
-3.62282e-05
-1.07832e-05
1.09106e-05
-2.32709e-05
-5.64091e-05
-3.88624e-05
-1.20169e-05
-3.48835e-06
-3.76362e-05
-6.63772e-05
-6.26905e-05
-1.12899e-05
1.40735e-05
-2.52704e-05
-5.09044e-05
-5.2435e-05
-1.57087e-05
8.13606e-06
-4.53759e-05
-4.35061e-05
-7.34504e-05
-7.24317e-06
7.84991e-06
-1.23665e-05
-3.6324e-05
-5.47448e-05
-5.48953e-06
-6.9409e-06
-3.11751e-05
-5.4874e-05
-5.99732e-05
-5.47072e-06
2.32751e-05
-1.95573e-05
-5.52055e-05
-6.22869e-05
-2.95602e-05
7.66481e-07
-5.05783e-05
-7.66908e-05
-5.14881e-05
-1.6841e-05
8.78531e-06
-3.54919e-05
-7.64395e-05
-5.77207e-05
-2.08144e-05
-1.22396e-05
-5.5263e-05
-9.03755e-05
-8.89382e-05
-2.30371e-05
7.1278e-06
-3.89729e-05
-7.06451e-05
-7.32966e-05
-2.52844e-05
7.29238e-08
-6.28048e-05
-6.28607e-05
-0.00010058
-1.73829e-05
2.26761e-06
-2.46897e-05
-5.63885e-05
-7.86382e-05
-1.62525e-05
-1.57838e-05
-4.81478e-05
-7.73919e-05
-8.52207e-05
-1.656e-05
1.79626e-05
-3.34665e-05
-7.82783e-05
-8.87514e-05
-4.27527e-05
-5.82845e-06
-6.9241e-05
-9.95977e-05
-7.00452e-05
-2.56165e-05
3.77006e-06
-5.1584e-05
-0.0001013
-8.1293e-05
-3.33989e-05
-2.57475e-05
-7.74086e-05
-0.000119395
-0.000120673
-3.6916e-05
2.47905e-06
-5.24487e-05
-9.40657e-05
-9.4177e-05
-3.44669e-05
-5.28713e-06
-7.96619e-05
-8.59915e-05
-0.000131942
-2.95609e-05
-5.17994e-06
-3.87052e-05
-8.18531e-05
-0.000107757
-2.8475e-05
-2.69977e-05
-6.6037e-05
-0.000105153
-0.000115199
-2.95293e-05
1.38281e-05
-5.09822e-05
-0.000104844
-0.00011777
-5.45807e-05
-7.83953e-06
-8.62345e-05
-0.000125893
-9.4491e-05
-3.51064e-05
2.71689e-06
-6.5793e-05
-0.000127393
-0.000106789
-4.55329e-05
-3.56542e-05
-9.94488e-05
-0.000151642
-0.000153524
-4.26584e-05
1.02677e-05
-6.1839e-05
-0.000119313
-0.000120042
-3.54716e-05
5.8652e-06
-9.23748e-05
-0.000111683
-0.000165518
-3.66389e-05
2.98771e-06
-4.99963e-05
-0.000110796
-0.000139125
-3.34866e-05
-1.83e-05
-8.08302e-05
-0.000137497
-0.00014736
-3.66412e-05
2.0296e-05
-5.8138e-05
-0.000132091
-0.000144106
-5.59197e-05
2.95187e-06
-9.72956e-05
-0.000152717
-0.000118764
-3.653e-05
1.25988e-05
-7.39799e-05
-0.000154454
-0.00013309
-4.73785e-05
-3.24606e-05
-0.00011763
-0.000186158
-0.000176103
-3.33802e-05
2.94145e-05
-6.89027e-05
-0.00014829
-0.000138848
-1.98558e-05
3.64985e-05
-0.0001013
-0.000141727
-0.000192734
-3.06764e-05
1.67376e-05
-5.67884e-05
-0.000142334
-0.000163858
-2.32847e-05
-1.82763e-06
-8.93272e-05
-0.000171609
-0.000174234
-3.02511e-05
4.29393e-05
-6.50394e-05
-0.000157137
-0.000161466
-4.31208e-05
3.17694e-05
-0.000103908
-0.000184538
-0.000138911
-2.43023e-05
4.50082e-05
-7.33852e-05
-0.000181099
-0.000151139
-3.42196e-05
-1.32122e-05
-0.00013113
-0.000214117
-0.000186982
-8.66885e-06
6.30569e-05
-7.21485e-05
-0.000172632
-0.000148821
1.17453e-05
7.59932e-05
-0.000107203
-0.000169777
-0.00021029
-1.07332e-05
5.0882e-05
-5.95764e-05
-0.000166821
-0.000176821
-1.24397e-08
3.18098e-05
-9.79398e-05
-0.000201489
-0.000188089
-9.45164e-06
7.90281e-05
-5.97142e-05
-0.000181671
-0.000168291
-1.51555e-05
7.1387e-05
-0.000106081
-0.000208317
-0.000147961
2.20636e-06
7.846e-05
-6.79108e-05
-0.000205581
-0.00016207
-6.96528e-06
1.37404e-05
-0.000138133
-0.000230563
-0.000183806
2.14067e-05
8.52234e-05
-7.20141e-05
-0.000191364
-0.000148996
4.58421e-05
0.000111992
-0.000104582
-0.000189847
-0.000210796
1.49158e-05
6.88089e-05
-5.72066e-05
-0.000184735
-0.000174842
2.78035e-05
5.76305e-05
-9.64984e-05
-0.000222251
-0.000186568
1.94424e-05
0.000108431
-5.72667e-05
-0.000190772
-0.000162265
1.36e-05
0.000101
-0.000105247
-0.000230204
-0.000144355
3.4773e-05
0.000120388
-5.98012e-05
-0.000218483
-0.000159525
2.15888e-05
4.24522e-05
-0.000138799
-0.000237557
-0.000176612
4.40946e-05
0.000108975
-6.91588e-05
-0.000200763
-0.000143258
6.87622e-05
0.000135823
-0.000103292
-0.000199718
-0.000211275
3.36132e-05
9.12352e-05
-5.34093e-05
-0.000190777
-0.00017019
4.58198e-05
7.68368e-05
-9.49338e-05
-0.000230818
-0.000185329
3.4938e-05