/*--------------------------------*- C++ -*----------------------------------*\
  =========                 |
  \\      /  F ield         | OpenFOAM: The Open Source CFD Toolbox
   \\    /   O peration     | Website:  https://openfoam.org
    \\  /    A nd           | Version:  10
     \\/     M anipulation  |
\*---------------------------------------------------------------------------*/
FoamFile
{
    format      ascii;
    class       volVectorField;
    location    "8";
    object      UMean;
}
// * * * * * * * * * * * * * * * * * * * * * * * * * * * * * * * * * * * * * //

dimensions      [0 1 -1 0 0 0 0];

internalField   nonuniform List<vector> 
25600
(
(0.133215 4.13782e-06 -6.382e-07)
(0.133218 5.01749e-06 -1.06019e-06)
(0.133219 6.00117e-06 -7.33235e-07)
(0.133218 7.63397e-06 -7.93086e-07)
(0.13322 8.51329e-06 -7.77841e-07)
(0.133218 9.85792e-06 -9.06916e-07)
(0.133219 1.05017e-05 -9.75201e-07)
(0.133218 1.11519e-05 -1.12788e-06)
(0.133217 1.12649e-05 -1.09702e-06)
(0.133216 1.09182e-05 -1.2443e-06)
(0.133215 1.0179e-05 -1.26948e-06)
(0.133214 8.96932e-06 -1.41717e-06)
(0.133214 7.43159e-06 -1.4421e-06)
(0.133214 5.58604e-06 -1.44371e-06)
(0.133214 3.38489e-06 -1.36269e-06)
(0.133215 1.14368e-06 -1.20373e-06)
(0.133216 -1.05952e-06 -1.03352e-06)
(0.133217 -2.99703e-06 -7.59762e-07)
(0.133218 -4.54663e-06 -5.08638e-07)
(0.133219 -5.92371e-06 -1.78039e-07)
(0.13322 -6.78221e-06 1.11564e-07)
(0.133221 -7.44519e-06 4.29721e-07)
(0.133222 -7.50465e-06 7.0757e-07)
(0.133222 -7.81265e-06 8.75828e-07)
(0.133223 -7.57181e-06 9.67889e-07)
(0.133223 -7.20728e-06 9.19809e-07)
(0.133225 -6.60891e-06 8.3618e-07)
(0.133224 -5.38275e-06 5.24885e-07)
(0.133225 -4.68016e-06 3.14053e-07)
(0.133224 -3.35267e-06 -3.2976e-08)
(0.133224 -2.62409e-06 -3.84245e-07)
(0.133225 -1.30189e-06 -6.84903e-07)
(0.133221 -7.8569e-07 -1.14977e-06)
(0.133225 4.27791e-07 -1.20631e-06)
(0.133217 6.4152e-07 -1.49106e-06)
(0.133223 1.20043e-06 -1.54378e-06)
(0.133215 1.83048e-06 -1.31899e-06)
(0.133221 2.20794e-06 -1.26701e-06)
(0.133213 2.48091e-06 -1.30981e-06)
(0.133221 3.59717e-06 -1.04033e-06)
(0.134657 4.52729e-06 -1.48622e-07)
(0.134659 5.28863e-06 -8.9166e-07)
(0.134661 5.84687e-06 -4.43913e-07)
(0.13466 7.67195e-06 -4.16294e-07)
(0.134661 8.05487e-06 -2.36538e-07)
(0.13466 9.80767e-06 -3.77085e-07)
(0.13466 1.04521e-05 -4.74713e-07)
(0.13466 1.17125e-05 -7.20086e-07)
(0.134659 1.19673e-05 -6.93436e-07)
(0.134658 1.14351e-05 -9.33876e-07)
(0.134657 1.06275e-05 -9.48762e-07)
(0.134657 9.08007e-06 -1.22534e-06)
(0.134656 7.57277e-06 -1.3655e-06)
(0.134656 5.43928e-06 -1.49167e-06)
(0.134656 2.89248e-06 -1.62196e-06)
(0.134657 2.57345e-07 -1.57242e-06)
(0.134658 -2.21826e-06 -1.59472e-06)
(0.13466 -3.97449e-06 -1.35435e-06)
(0.134661 -5.51552e-06 -1.24139e-06)
(0.134662 -6.85399e-06 -8.66294e-07)
(0.134664 -7.70743e-06 -6.21263e-07)
(0.134665 -8.16759e-06 -2.34998e-07)
(0.134666 -7.85343e-06 1.14837e-07)
(0.134666 -8.18621e-06 3.23381e-07)
(0.134667 -7.89871e-06 5.78628e-07)
(0.134667 -7.50961e-06 5.79897e-07)
(0.13467 -6.91139e-06 7.39797e-07)
(0.134668 -4.81217e-06 3.3109e-07)
(0.13467 -4.24247e-06 4.86494e-07)
(0.134668 -1.99202e-06 -3.28924e-08)
(0.13467 -1.51417e-06 -1.47485e-08)
(0.134667 8.70716e-07 -5.99211e-07)
(0.134667 1.33797e-06 -8.99117e-07)
(0.134666 3.28183e-06 -9.28818e-07)
(0.134663 3.08181e-06 -1.31362e-06)
(0.134665 3.70945e-06 -1.45017e-06)
(0.134661 3.96551e-06 -9.60973e-07)
(0.134662 4.37238e-06 -1.13337e-06)
(0.134659 4.05856e-06 -1.2177e-06)
(0.134662 4.22248e-06 -1.81324e-07)
(0.134873 4.83732e-06 3.12216e-07)
(0.134876 5.89679e-06 -6.04729e-07)
(0.134878 5.55996e-06 3.36659e-09)
(0.134876 8.24398e-06 -8.0593e-08)
(0.134878 7.62745e-06 1.79392e-07)
(0.134877 1.01589e-05 -7.14023e-08)
(0.134877 1.04125e-05 -7.44082e-08)
(0.134876 1.27329e-05 -4.3835e-07)
(0.134875 1.29476e-05 -2.66376e-07)
(0.134873 1.22549e-05 -6.80923e-07)
(0.134872 1.14531e-05 -6.41754e-07)
(0.134872 9.54713e-06 -1.19793e-06)
(0.134871 8.32631e-06 -1.41773e-06)
(0.13487 5.80308e-06 -1.69945e-06)
(0.13487 2.82375e-06 -2.03144e-06)
(0.134871 -4.16884e-07 -2.05816e-06)
(0.134872 -3.34504e-06 -2.27322e-06)
(0.134874 -4.80817e-06 -1.94847e-06)
(0.134876 -6.42369e-06 -2.00134e-06)
(0.134877 -7.79785e-06 -1.44846e-06)
(0.134879 -8.64401e-06 -1.29971e-06)
(0.134881 -8.90928e-06 -6.92957e-07)
(0.134882 -8.06395e-06 -2.5753e-07)
(0.134882 -8.76428e-06 2.61811e-08)
(0.134884 -8.40407e-06 4.6743e-07)
(0.134883 -8.23763e-06 5.2294e-07)
(0.134887 -7.62303e-06 9.18379e-07)
(0.134885 -4.27214e-06 3.68107e-07)
(0.134887 -3.95868e-06 8.61353e-07)
(0.134885 -5.2501e-07 2.57357e-07)
(0.134887 -1.24543e-07 4.9326e-07)
(0.134885 3.30107e-06 -4.12421e-07)
(0.134885 4.15164e-06 -5.11554e-07)
(0.134883 6.87835e-06 -7.18362e-07)
(0.134879 5.81217e-06 -1.01181e-06)
(0.134881 6.83655e-06 -1.3186e-06)
(0.134877 6.61525e-06 -5.8615e-07)
(0.134878 6.95038e-06 -9.34124e-07)
(0.134875 6.22256e-06 -8.52761e-07)
(0.134877 6.00728e-06 7.44812e-08)
(0.135041 5.07042e-06 1.03353e-06)
(0.135044 6.50568e-06 -1.86713e-07)
(0.135047 5.16217e-06 6.08826e-07)
(0.135045 9.26628e-06 2.9524e-07)
(0.135047 6.95565e-06 6.32197e-07)
(0.135046 1.10686e-05 1.18809e-07)
(0.135046 1.05379e-05 2.42545e-07)
(0.135046 1.48952e-05 -3.4188e-07)
(0.135042 1.46798e-05 1.35383e-07)
(0.135041 1.38487e-05 -5.98169e-07)
(0.135039 1.30311e-05 -4.1559e-07)
(0.135038 1.0585e-05 -1.41381e-06)
(0.135037 1.00325e-05 -1.63708e-06)
(0.135036 6.77076e-06 -2.11613e-06)
(0.135035 3.28561e-06 -2.64123e-06)
(0.135036 -9.38384e-07 -2.71097e-06)
(0.135039 -4.57649e-06 -3.15199e-06)
(0.135041 -5.47129e-06 -2.58806e-06)
(0.135042 -7.32674e-06 -2.90039e-06)
(0.135044 -8.79441e-06 -1.97715e-06)
(0.135047 -9.64631e-06 -2.04828e-06)
(0.135049 -9.6977e-06 -9.54732e-07)
(0.13505 -8.01372e-06 -4.52443e-07)
(0.135049 -9.55139e-06 -4.75721e-08)
(0.135052 -9.0554e-06 6.27784e-07)
(0.135051 -9.55348e-06 7.11444e-07)
(0.135056 -8.95613e-06 1.40111e-06)
(0.135055 -3.63865e-06 5.64372e-07)
(0.135057 -4.17665e-06 1.60916e-06)
(0.135054 1.40715e-06 7.62542e-07)
(0.135057 9.96414e-07 1.3975e-06)
(0.135054 6.5607e-06 -1.59609e-07)
(0.135054 7.36717e-06 2.44542e-07)
(0.135051 1.16258e-05 -3.47616e-07)
(0.135047 8.83655e-06 -4.64836e-07)
(0.135049 1.07431e-05 -1.06106e-06)
(0.135045 9.74653e-06 4.25633e-08)
(0.135046 1.0392e-05 -6.19884e-07)
(0.135043 8.70457e-06 -2.10592e-07)
(0.135044 7.59143e-06 5.74768e-07)
(0.135198 5.21932e-06 2.12755e-06)
(0.135201 7.13294e-06 3.7383e-07)
(0.135205 4.62889e-06 1.47328e-06)
(0.135203 1.09481e-05 7.31749e-07)
(0.135205 5.96926e-06 1.14932e-06)
(0.135204 1.27046e-05 1.84234e-07)
(0.135205 1.04293e-05 5.10987e-07)
(0.135204 1.81569e-05 -4.72309e-07)
(0.135199 1.67571e-05 5.78248e-07)
(0.135197 1.6072e-05 -7.58103e-07)
(0.135195 1.52282e-05 -2.29293e-07)
(0.135194 1.20156e-05 -1.97573e-06)
(0.135193 1.2801e-05 -1.98795e-06)
(0.13519 8.30748e-06 -2.73305e-06)
(0.13519 4.35595e-06 -3.42734e-06)
(0.13519 -1.4071e-06 -3.50847e-06)
(0.135194 -6.0093e-06 -4.20738e-06)
(0.135198 -5.79012e-06 -3.18624e-06)
(0.135199 -8.23304e-06 -3.95567e-06)
(0.135201 -9.61568e-06 -2.41987e-06)
(0.135204 -1.05442e-05 -2.97885e-06)
(0.135207 -1.03626e-05 -9.05942e-07)
(0.135207 -7.54907e-06 -4.57696e-07)
(0.135206 -1.05314e-05 1.65236e-07)
(0.135209 -9.75252e-06 1.0445e-06)
(0.135208 -1.16593e-05 1.17205e-06)
(0.135216 -1.10501e-05 2.22794e-06)
(0.135214 -2.90201e-06 9.32371e-07)
(0.135216 -5.00413e-06 2.87534e-06)
(0.135214 3.95033e-06 1.55727e-06)
(0.135216 1.98353e-06 2.8609e-06)
(0.135214 1.0755e-05 2.07043e-07)
(0.135213 1.12848e-05 1.62e-06)
(0.135209 1.79e-05 2.29071e-07)
(0.135204 1.20933e-05 4.94063e-07)
(0.135207 1.58879e-05 -6.51238e-07)
(0.135202 1.35109e-05 1.15474e-06)
(0.135202 1.48848e-05 -1.0165e-07)
(0.135198 1.16875e-05 8.81896e-07)
(0.1352 9.52114e-06 1.28803e-06)
(0.135344 5.10783e-06 3.87273e-06)
(0.135349 7.54431e-06 1.23445e-06)
(0.135354 3.83019e-06 2.77799e-06)
(0.135351 1.3291e-05 1.34702e-06)
(0.135353 4.41772e-06 1.76717e-06)
(0.135354 1.51333e-05 9.01813e-08)
(0.135355 9.65187e-06 7.40087e-07)
(0.135355 2.28023e-05 -8.95723e-07)
(0.135346 1.89908e-05 1.02106e-06)
(0.135345 1.91773e-05 -1.31642e-06)
(0.135341 1.81656e-05 -1.34479e-07)
(0.135342 1.38446e-05 -3.00753e-06)
(0.13534 1.70085e-05 -2.4079e-06)
(0.135335 1.04771e-05 -3.49802e-06)
(0.135334 6.3987e-06 -4.4162e-06)
(0.135335 -1.97931e-06 -4.52175e-06)
(0.135341 -7.70812e-06 -5.41125e-06)
(0.135345 -5.54164e-06 -3.64934e-06)
(0.135345 -9.13535e-06 -5.12952e-06)
(0.135348 -9.96934e-06 -2.67688e-06)
(0.135352 -1.12674e-05 -4.18443e-06)
(0.135356 -1.08653e-05 -3.53252e-07)
(0.135355 -6.47398e-06 -3.01229e-07)
(0.135353 -1.17163e-05 8.48643e-07)
(0.135356 -1.03808e-05 1.77092e-06)
(0.135356 -1.495e-05 2.04531e-06)
(0.135367 -1.42086e-05 3.49177e-06)
(0.135364 -2.15446e-06 1.50649e-06)
(0.135367 -6.83978e-06 4.89706e-06)
(0.135364 7.36835e-06 2.72225e-06)
(0.135366 2.55061e-06 5.20379e-06)
(0.135366 1.61687e-05 7.64257e-07)
(0.135364 1.5888e-05 3.91114e-06)
(0.135357 2.59524e-05 1.03337e-06)
(0.135351 1.54524e-05 2.10725e-06)
(0.135355 2.25703e-05 1.15368e-08)
(0.13535 1.78685e-05 3.07943e-06)
(0.13535 2.08297e-05 7.68065e-07)
(0.135344 1.50489e-05 2.76534e-06)
(0.135346 1.17258e-05 2.46031e-06)
(0.135482 4.4921e-06 6.6337e-06)
(0.135487 7.46737e-06 2.67786e-06)
(0.135495 2.71982e-06 4.7327e-06)
(0.13549 1.64117e-05 2.31381e-06)
(0.135493 2.30219e-06 2.47383e-06)
(0.135495 1.85404e-05 -1.87097e-07)
(0.135497 7.68257e-06 8.98412e-07)
(0.135497 2.91426e-05 -1.74217e-06)
(0.135484 2.10039e-05 1.39473e-06)
(0.135484 2.35562e-05 -2.49933e-06)
(0.135479 2.17151e-05 -2.1849e-07)
(0.135481 1.59973e-05 -4.72104e-06)
(0.135479 2.30034e-05 -2.81508e-06)
(0.135471 1.3274e-05 -4.45271e-06)
(0.13547 9.86028e-06 -5.45934e-06)
(0.135469 -2.77232e-06 -5.74817e-06)
(0.13548 -9.7768e-06 -6.68182e-06)
(0.135484 -4.33808e-06 -3.82491e-06)
(0.135484 -9.95961e-06 -6.40337e-06)
(0.135487 -9.37468e-06 -2.58305e-06)
(0.135491 -1.17791e-05 -5.66855e-06)
(0.135498 -1.11671e-05 1.09314e-06)
(0.135494 -4.54223e-06 7.53163e-08)
(0.135491 -1.30082e-05 2.32014e-06)
(0.135494 -1.0772e-05 2.86714e-06)
(0.135493 -2.00568e-05 3.54196e-06)
(0.135511 -1.88904e-05 5.35511e-06)
(0.135505 -1.65194e-06 2.44883e-06)
(0.135509 -1.02587e-05 7.98274e-06)
(0.135506 1.185e-05 4.38417e-06)
(0.135508 2.14775e-06 8.65624e-06)
(0.135509 2.29724e-05 1.62806e-06)
(0.135507 2.11942e-05 7.46223e-06)
(0.135496 3.59853e-05 2.08783e-06)
(0.135489 1.88172e-05 4.6999e-06)
(0.135496 3.1067e-05 1.1283e-06)
(0.135488 2.25891e-05 6.27378e-06)
(0.135488 2.8355e-05 2.16392e-06)
(0.13548 1.85039e-05 5.81685e-06)
(0.135482 1.43593e-05 4.31329e-06)
(0.13561 2.81989e-06 1.09825e-05)
(0.135618 6.44879e-06 5.24097e-06)
(0.135629 1.12498e-06 7.71856e-06)
(0.135621 2.03522e-05 4.03614e-06)
(0.135624 -4.16227e-07 3.36645e-06)
(0.135627 2.2882e-05 -6.04045e-07)
(0.135631 3.8698e-06 1.00281e-06)
(0.135633 3.72819e-05 -3.11295e-06)
(0.135614 2.22527e-05 1.57141e-06)
(0.135616 2.97135e-05 -4.52738e-06)
(0.135608 2.55486e-05 -5.36016e-07)
(0.135613 1.84095e-05 -7.17987e-06)
(0.135609 3.09053e-05 -3.13852e-06)
(0.135599 1.66858e-05 -5.41303e-06)
(0.135596 1.5192e-05 -6.4363e-06)
(0.135594 -4.07704e-06 -6.98919e-06)
(0.135611 -1.23976e-05 -7.80324e-06)
(0.135615 -2.10996e-06 -3.39304e-06)
(0.135614 -1.06981e-05 -7.46239e-06)
(0.135617 -7.35053e-06 -1.70674e-06)
(0.135622 -1.21702e-05 -7.39539e-06)
(0.135631 -1.12889e-05 4.13732e-06)
(0.135625 -1.55466e-06 9.08288e-07)
(0.135621 -1.43861e-05 5.26353e-06)
(0.135623 -1.08064e-05 4.41034e-06)
(0.135622 -2.78864e-05 6.21212e-06)
(0.135647 -2.57638e-05 8.15828e-06)
(0.135639 -2.00799e-06 4.216e-06)
(0.135644 -1.59299e-05 1.25832e-05)
(0.135641 1.75065e-05 6.94249e-06)
(0.135643 -9.14737e-08 1.36278e-05)
(0.135646 3.10976e-05 2.99838e-06)
(0.135642 2.68114e-05 1.28063e-05)
(0.135626 4.79597e-05 3.56434e-06)
(0.135619 2.21181e-05 8.72802e-06)
(0.135628 4.13627e-05 3.1229e-06)
(0.135619 2.71536e-05 1.14007e-05)
(0.135617 3.74418e-05 4.37917e-06)
(0.135607 2.14736e-05 1.05823e-05)
(0.135608 1.74346e-05 7.27166e-06)
(0.13573 -8.06582e-07 1.77865e-05)
(0.135741 3.88954e-06 9.84317e-06)
(0.135756 -1.31232e-06 1.22705e-05)
(0.135744 2.50045e-05 7.32875e-06)
(0.135748 -3.64004e-06 4.3845e-06)
(0.135751 2.77167e-05 -7.83021e-07)
(0.135758 -2.48368e-06 1.13363e-06)
(0.135761 4.73099e-05 -4.87349e-06)
(0.135735 2.20569e-05 1.43212e-06)
(0.135741 3.81636e-05 -7.49935e-06)
(0.135728 2.90932e-05 -1.10276e-06)
(0.135738 2.11382e-05 -1.03036e-05)
(0.135732 4.08571e-05 -3.18618e-06)
(0.135718 2.08466e-05 -6.14983e-06)
(0.135714 2.28562e-05 -7.0839e-06)
(0.13571 -6.43507e-06 -8.10578e-06)
(0.135736 -1.59348e-05 -8.25138e-06)
(0.135739 1.12777e-06 -1.85632e-06)
(0.135736 -1.15688e-05 -7.67829e-06)
(0.13574 -3.08536e-06 5.05825e-07)
(0.135744 -1.27591e-05 -9.00748e-06)
(0.135757 -1.11812e-05 9.67919e-06)
(0.135748 2.70853e-06 2.72268e-06)
(0.135741 -1.56955e-05 1.06576e-05)
(0.135742 -1.03632e-05 6.53398e-06)
(0.135741 -3.945e-05 1.08771e-05)
(0.135778 -3.56646e-05 1.25804e-05)
(0.135765 -4.07279e-06 7.50926e-06)
(0.135773 -2.48727e-05 1.94201e-05)
(0.135768 2.42519e-05 1.07598e-05)
(0.135769 -5.5384e-06 2.06874e-05)
(0.135777 4.04449e-05 5.36598e-06)
(0.135769 3.17862e-05 2.05443e-05)
(0.135748 6.16211e-05 5.85619e-06)
(0.13574 2.49542e-05 1.46061e-05)
(0.135752 5.30419e-05 6.60644e-06)
(0.135741 3.09937e-05 1.94709e-05)
(0.135739 4.78343e-05 8.00639e-06)
(0.135725 2.31759e-05 1.77293e-05)
(0.135727 2.08978e-05 1.19605e-05)
(0.135841 -8.02272e-06 2.84248e-05)
(0.135856 -8.95766e-07 1.79659e-05)
(0.135877 -5.18416e-06 1.93461e-05)
(0.135859 2.99526e-05 1.3623e-05)
(0.135865 -7.3758e-06 5.57357e-06)
(0.135867 3.20674e-05 -1.01431e-07)
(0.135879 -1.21949e-05 1.72639e-06)
(0.135883 5.88005e-05 -6.54132e-06)
(0.135849 1.96606e-05 1.0284e-06)
(0.135859 4.86674e-05 -1.15201e-05)
(0.135839 3.11773e-05 -1.66713e-06)
(0.135858 2.40775e-05 -1.38058e-05)
(0.135848 5.27239e-05 -2.56637e-06)
(0.13583 2.58276e-05 -5.9141e-06)
(0.135823 3.2919e-05 -7.26619e-06)
(0.135817 -1.08926e-05 -8.50541e-06)
(0.135854 -2.08973e-05 -7.4099e-06)
(0.135857 5.00959e-06 1.64958e-06)
(0.135851 -1.32062e-05 -6.04177e-06)
(0.135856 3.88056e-06 4.78289e-06)
(0.135858 -1.44863e-05 -9.82426e-06)
(0.135877 -1.0945e-05 1.91891e-05)
(0.135863 8.27649e-06 6.57464e-06)
(0.135854 -1.6921e-05 2.0157e-05)
(0.135852 -9.50932e-06 9.37022e-06)
(0.13585 -5.63803e-05 1.90385e-05)
(0.135902 -4.97609e-05 1.98373e-05)
(0.135883 -9.14531e-06 1.38486e-05)
(0.135896 -3.85773e-05 2.96483e-05)
(0.135888 3.15351e-05 1.65472e-05)
(0.135889 -1.64724e-05 3.08198e-05)
(0.135901 5.08036e-05 9.86984e-06)
(0.13589 3.46392e-05 3.17317e-05)
(0.135862 7.65741e-05 9.83827e-06)
(0.135854 2.63699e-05 2.30113e-05)
(0.135869 6.48368e-05 1.29395e-05)
(0.135855 3.3114e-05 3.17155e-05)
(0.135852 5.86314e-05 1.42031e-05)
(0.135834 2.22449e-05 2.83515e-05)
(0.135837 2.42083e-05 1.94316e-05)
(0.135943 -2.12484e-05 4.49292e-05)
(0.135966 -8.61023e-06 3.19327e-05)
(0.135993 -1.16182e-05 3.08281e-05)
(0.135967 3.4605e-05 2.53058e-05)
(0.135974 -1.19987e-05 7.02909e-06)
(0.135974 3.42141e-05 3.00408e-06)
(0.135994 -2.62501e-05 3.65173e-06)
(0.135999 7.04396e-05 -6.52405e-06)
(0.135956 1.38891e-05 5.51692e-07)
(0.135971 6.07296e-05 -1.62431e-05)
(0.135943 2.96533e-05 -1.86539e-06)
(0.135972 2.73101e-05 -1.69265e-05)
(0.135958 6.56844e-05 -2.31236e-08)
(0.135935 3.1412e-05 -3.53961e-06)
(0.135924 4.43849e-05 -6.61755e-06)
(0.135914 -1.89959e-05 -7.2614e-06)
(0.135968 -2.82198e-05 -4.02592e-06)
(0.135967 8.59324e-06 8.54074e-06)
(0.135961 -1.67235e-05 -1.10505e-06)
(0.135965 1.29187e-05 1.1967e-05)
(0.135964 -1.89638e-05 -8.48935e-06)
(0.135992 -1.0511e-05 3.45233e-05)
(0.13597 1.51577e-05 1.42886e-05)
(0.135959 -1.81846e-05 3.58385e-05)
(0.135951 -8.73642e-06 1.31403e-05)
(0.135949 -8.05999e-05 3.27411e-05)
(0.136021 -6.92771e-05 3.17645e-05)
(0.135994 -1.9263e-05 2.5473e-05)
(0.136013 -5.89995e-05 4.51191e-05)
(0.136001 3.76702e-05 2.52801e-05)
(0.136002 -3.60222e-05 4.57381e-05)
(0.136022 6.1473e-05 1.81924e-05)
(0.136005 3.26514e-05 4.8072e-05)
(0.135969 9.20633e-05 1.71096e-05)
(0.13596 2.42077e-05 3.47988e-05)
(0.135979 7.46633e-05 2.41524e-05)
(0.135963 3.23291e-05 5.01377e-05)
(0.135958 6.83583e-05 2.4868e-05)
(0.135935 1.6853e-05 4.40081e-05)
(0.135939 2.6009e-05 3.09782e-05)
(0.136036 -4.37631e-05 6.99874e-05)
(0.13607 -1.98419e-05 5.54749e-05)
(0.136103 -2.25414e-05 4.96133e-05)
(0.136069 3.78493e-05 4.56175e-05)
(0.136075 -1.94308e-05 8.78647e-06)
(0.136072 3.14981e-05 1.09702e-05)
(0.136103 -4.60065e-05 8.78493e-06)
(0.136109 7.98944e-05 -2.60094e-06)
(0.136057 2.67132e-06 6.17311e-07)
(0.136076 7.30315e-05 -2.11041e-05)
(0.136038 2.17215e-05 -5.63074e-07)
(0.136083 3.08863e-05 -1.83064e-05)
(0.136061 7.82264e-05 6.32498e-06)
(0.136033 3.7353e-05 2.92534e-06)
(0.136016 5.45648e-05 -5.17159e-06)
(0.136001 -3.31879e-05 -2.90364e-06)
(0.136077 -3.97795e-05 3.51121e-06)
(0.136072 1.02864e-05 2.12509e-05)
(0.136065 -2.35433e-05 9.06547e-06)
(0.136066 2.26904e-05 2.29053e-05)
(0.136061 -2.89528e-05 -2.77124e-06)
(0.136101 -9.86287e-06 5.88398e-05)
(0.136071 2.26224e-05 2.89655e-05)
(0.136056 -1.98656e-05 6.05687e-05)
(0.13604 -9.52484e-06 1.8192e-05)
(0.136038 -0.000114934 5.55369e-05)
(0.136135 -9.58712e-05 5.13869e-05)
(0.136098 -3.73841e-05 4.6417e-05)
(0.136127 -8.91028e-05 6.83901e-05)
(0.136107 3.90614e-05 3.84946e-05)
(0.136108 -6.90382e-05 6.79428e-05)
(0.136137 7.04937e-05 3.36366e-05)
(0.136113 2.19817e-05 7.20357e-05)
(0.136069 0.000106555 3.03406e-05)
(0.136058 1.52475e-05 5.1012e-05)
(0.136082 7.9413e-05 4.34259e-05)
(0.136063 2.68935e-05 7.72364e-05)
(0.136056 7.44583e-05 4.35501e-05)
(0.136028 4.71239e-06 6.67611e-05)
(0.136033 2.35652e-05 4.86782e-05)
(0.136122 -8.03074e-05 0.000107085)
(0.136169 -3.57018e-05 9.33116e-05)
(0.136209 -4.07128e-05 8.00028e-05)
(0.136164 3.82977e-05 7.86886e-05)
(0.136168 -3.34841e-05 1.07386e-05)
(0.136161 2.01506e-05 2.71574e-05)
(0.136207 -7.30433e-05 1.92751e-05)
(0.136213 8.36021e-05 9.02061e-06)
(0.136151 -1.68072e-05 1.90823e-06)
(0.136175 8.1712e-05 -2.60093e-05)
(0.136126 3.71854e-06 3.14129e-06)
(0.136189 3.44175e-05 -1.5345e-05)
(0.136158 8.84458e-05 1.92197e-05)
(0.136124 4.24273e-05 1.63898e-05)
(0.136098 5.89964e-05 -3.13704e-06)
(0.13608 -5.77893e-05 6.65976e-06)
(0.136181 -5.82454e-05 1.7541e-05)
(0.136171 7.08216e-06 4.2911e-05)
(0.136163 -3.55119e-05 2.66374e-05)
(0.13616 2.97349e-05 3.81367e-05)
(0.136151 -4.8032e-05 9.78515e-06)
(0.136205 -8.92385e-06 9.49713e-05)
(0.136165 2.97132e-05 5.44296e-05)
(0.136145 -2.36148e-05 9.70887e-05)
(0.136117 -1.47555e-05 2.4286e-05)
(0.136117 -0.000163338 9.09982e-05)
(0.136243 -0.000131706 8.21837e-05)
(0.136194 -6.74688e-05 8.1486e-05)
(0.136235 -0.000132982 0.000102305)
(0.136204 3.04751e-05 5.73402e-05)
(0.136209 -0.000122377 0.000100632)
(0.136248 7.58214e-05 5.97109e-05)
(0.136215 -3.07176e-06 0.000107326)
(0.136163 0.000117753 5.18583e-05)
(0.136147 -6.9627e-06 7.2701e-05)
(0.136179 7.41764e-05 7.43902e-05)
(0.136157 1.37529e-05 0.000116379)
(0.136147 7.27623e-05 7.45267e-05)
(0.136114 -1.74335e-05 9.89999e-05)
(0.136118 1.20943e-05 7.44273e-05)
(0.1362 -0.000136139 0.000159355)
(0.136262 -5.63493e-05 0.000150712)
(0.136308 -6.87955e-05 0.000126933)
(0.136252 3.37898e-05 0.000128591)
(0.136251 -6.02639e-05 1.12476e-05)
(0.136241 -4.79994e-06 5.47509e-05)
(0.136304 -0.000110526 3.67943e-05)
(0.13631 7.68285e-05 3.28608e-05)
(0.136239 -4.92274e-05 3.86423e-06)
(0.136266 7.98646e-05 -3.17518e-05)
(0.136206 -3.04263e-05 9.69153e-06)
(0.136292 3.72125e-05 -5.82188e-06)
(0.136247 9.36384e-05 4.26344e-05)
(0.136207 4.49655e-05 3.88047e-05)
(0.136169 5.02331e-05 -1.62848e-06)
(0.136149 -9.73427e-05 2.29979e-05)
(0.136281 -8.74725e-05 4.02039e-05)
(0.136263 -4.2388e-06 7.73015e-05)
(0.136255 -5.65241e-05 5.27941e-05)
(0.136244 2.80592e-05 5.71062e-05)
(0.136232 -8.19162e-05 3.1642e-05)
(0.136306 -7.05024e-06 0.000146533)
(0.13625 3.50613e-05 9.56098e-05)
(0.136224 -3.16777e-05 0.000148132)
(0.13618 -2.9279e-05 3.06431e-05)
(0.136184 -0.000231567 0.000143349)
(0.136346 -0.000179111 0.000128504)
(0.13628 -0.000114861 0.000137295)
(0.136338 -0.00019611 0.000149428)
(0.13629 2.94209e-06 8.27362e-05)
(0.136304 -0.000204357 0.000147247)
(0.136355 7.49439e-05 0.000101041)
(0.13631 -4.88423e-05 0.000158285)
(0.136251 0.000123528 8.54038e-05)
(0.136227 -5.08694e-05 9.9757e-05)
(0.136269 5.3034e-05 0.000122004)
(0.136245 -1.00377e-05 0.000171237)
(0.136228 5.83938e-05 0.000123991)
(0.136191 -5.30487e-05 0.000142371)
(0.136194 -1.60329e-05 0.000110111)
(0.136273 -0.000218394 0.000226006)
(0.136351 -8.355e-05 0.00023011)
(0.136399 -0.000111307 0.0001938)
(0.136332 2.26837e-05 0.000196431)
(0.136325 -0.000108363 4.88719e-06)
(0.136313 -4.83434e-05 9.30662e-05)
(0.136396 -0.000160747 5.97748e-05)
(0.136398 5.40658e-05 7.18156e-05)
(0.13632 -9.75778e-05 2.74136e-06)
(0.136348 5.83653e-05 -4.2709e-05)
(0.136281 -8.70516e-05 1.58912e-05)
(0.136391 3.89654e-05 1.02092e-05)
(0.136327 9.07379e-05 7.87541e-05)
(0.13628 4.28345e-05 7.07091e-05)
(0.136228 1.86966e-05 -7.12901e-06)
(0.136209 -0.000158293 4.51463e-05)
(0.136376 -0.000132508 6.98663e-05)
(0.136347 -2.87281e-05 0.000127085)
(0.136342 -9.02368e-05 8.43312e-05)
(0.136321 8.33202e-06 7.43959e-05)
(0.136308 -0.000136729 6.01126e-05)
(0.136403 -4.59634e-06 0.00021166)
(0.136325 3.68135e-05 0.000154707)
(0.136294 -4.66659e-05 0.0002118)
(0.136229 -5.99849e-05 3.16777e-05)
(0.136241 -0.000326238 0.000211278)
(0.136442 -0.000240925 0.000190593)
(0.136354 -0.00018558 0.000217687)
(0.136435 -0.000286247 0.00020698)
(0.136366 -5.571e-05 0.00010981)
(0.136396 -0.000326009 0.000206574)
(0.136458 6.24257e-05 0.000158189)
(0.136397 -0.000124609 0.000226571)
(0.136332 0.000121476 0.00012976)
(0.136297 -0.000130185 0.000127608)
(0.136356 8.56589e-06 0.000186303)
(0.136326 -5.06711e-05 0.000241937)
(0.136299 2.61963e-05 0.000195706)
(0.136262 -0.000107145 0.000194081)
(0.136261 -7.1322e-05 0.000153096)
(0.136363 -0.000330028 0.000290666)
(0.136444 -0.000114652 0.000322096)
(0.136486 -0.000171004 0.000274991)
(0.136424 2.37075e-06 0.000275018)
(0.136407 -0.000189958 -2.38214e-05)
(0.136398 -0.00011715 0.000130508)
(0.136493 -0.000227058 7.36789e-05)
(0.136479 7.97968e-06 0.000121273)
(0.136408 -0.000169189 -1.55378e-05)
(0.136435 5.24644e-06 -7.32352e-05)
(0.136368 -0.000174006 6.94324e-06)
(0.136496 4.06464e-05 2.03628e-05)
(0.136399 7.54022e-05 0.000123917)
(0.136357 3.30957e-05 0.000102573)
(0.136288 -4.90992e-05 -3.26481e-05)
(0.136277 -0.000247759 6.08653e-05)
(0.136477 -0.00019769 9.53517e-05)
(0.136425 -7.08764e-05 0.000187232)
(0.136439 -0.000141977 0.000110166)
(0.136407 -3.92418e-05 7.80152e-05)
(0.136396 -0.000220527 8.49723e-05)
(0.136508 1.3285e-06 0.000279236)
(0.136389 3.0504e-05 0.000229215)
(0.136369 -6.98737e-05 0.000279255)
(0.136277 -0.00011636 1.62306e-05)
(0.136304 -0.000454712 0.000285307)
(0.136543 -0.00031691 0.000258071)
(0.136412 -0.000286406 0.000323321)
(0.136549 -0.000411232 0.000260323)
(0.136443 -0.000160075 0.000123083)
(0.136507 -0.000499219 0.000261982)
(0.136568 3.49124e-05 0.000218947)
(0.136482 -0.000237508 0.000307875)
(0.136425 0.000108044 0.000176781)
(0.136372 -0.000256746 0.000141207)
(0.136459 -6.66702e-05 0.000255541)
(0.136411 -0.000109548 0.00031547)
(0.136363 -3.17897e-05 0.000285616)
(0.136345 -0.000181854 0.000239739)
(0.136337 -0.000167594 0.000189256)
(0.13656 -0.000478426 0.000311202)
(0.136585 -0.000144501 0.000389188)
(0.136628 -0.000243198 0.000352499)
(0.136635 -2.89744e-05 0.000354786)
(0.136594 -0.000316999 -8.59888e-05)
(0.13658 -0.000212403 0.000140123)
(0.136647 -0.000308927 3.94978e-05)
(0.136594 -6.21988e-05 0.000164226)
(0.136601 -0.000272302 -6.70089e-05)
(0.136604 -9.62555e-05 -0.000139719)
(0.13655 -0.000295878 -4.79693e-05)
(0.136648 4.34832e-05 -1.55636e-05)
(0.136504 4.86993e-05 0.000159387)
(0.13653 8.2152e-06 0.000119388)
(0.136429 -0.00017076 -9.31697e-05)
(0.136425 -0.000372761 4.44675e-05)
(0.136631 -0.000282404 8.0083e-05)
(0.136536 -0.000130903 0.000245169)
(0.136651 -0.000222836 0.000118375)
(0.136586 -0.000128524 5.79516e-05)
(0.136572 -0.000337466 7.63176e-05)
(0.136673 1.38273e-05 0.000312247)
(0.136482 1.5584e-05 0.000302328)
(0.136551 -0.000107692 0.000336324)
(0.136401 -0.000208952 -2.30324e-05)
(0.136458 -0.000627606 0.000334377)
(0.136698 -0.000405991 0.000290696)
(0.136489 -0.000423245 0.000431558)
(0.136797 -0.000583064 0.000282798)
(0.13659 -0.000327901 9.53502e-05)
(0.13673 -0.000737599 0.000263055)
(0.136727 -1.33709e-05 0.000232255)
(0.136611 -0.000393613 0.000373268)
(0.136632 7.4607e-05 0.000203027)
(0.136532 -0.000449943 0.00011515)
(0.136664 -0.000177286 0.000286327)
(0.136545 -0.000190942 0.000343163)
(0.136467 -0.000116713 0.000364657)
(0.136553 -0.000288775 0.000253274)
(0.136506 -0.000317764 0.000196373)
(0.137053 -0.00064768 0.000249276)
(0.136914 -0.00017456 0.000381787)
(0.137077 -0.000356507 0.000444667)
(0.13724 -9.16304e-05 0.000510657)
(0.137076 -0.000503562 -0.000128695)
(0.137042 -0.000336429 0.000114002)
(0.136985 -0.000412757 -9.92031e-05)
(0.136954 -0.000183087 0.000212045)
(0.137176 -0.000426564 -9.06209e-05)
(0.137032 -0.00026278 -0.000201851)
(0.137022 -0.000456942 -0.000177449)
(0.136962 4.68851e-05 -0.000167781)
(0.136854 -1.57171e-05 0.000192052)
(0.137053 -4.84812e-05 0.000169888)
(0.136836 -0.000359288 -0.000123324)
(0.136839 -0.000534933 -1.79535e-05)
(0.136978 -0.000386428 -8.91342e-06)
(0.136895 -0.00023007 0.000317995)
(0.137255 -0.00035093 0.000184696)
(0.13702 -0.000270177 7.34905e-05)
(0.137022 -0.000486933 1.57284e-05)
(0.13704 3.72694e-05 0.000268949)
(0.136813 -3.49857e-05 0.000388976)
(0.137114 -0.000171231 0.000441467)
(0.136784 -0.000352858 -2.48412e-05)
(0.136909 -0.000841287 0.000332683)
(0.137025 -0.000504163 0.000220302)
(0.136815 -0.000624614 0.000530334)
(0.137455 -0.000820954 0.000318329)
(0.136958 -0.00057372 4.79602e-05)
(0.137252 -0.00105038 0.00015251)
(0.13702 -8.5664e-05 0.00011456)
(0.137003 -0.000622369 0.000410639)
(0.137197 8.84603e-06 0.000251673)
(0.136944 -0.000721831 7.38495e-05)
(0.137152 -0.000327648 0.000215709)
(0.136842 -0.00029493 0.000236927)
(0.136837 -0.000254616 0.00041079)
(0.137125 -0.000436963 0.00028597)
(0.136912 -0.000533542 0.000206614)
(0.137961 -0.000866732 0.000151498)
(0.137624 -0.000240808 0.000359629)
(0.138208 -0.000540405 0.00077111)
(0.138272 -0.000206638 0.000966342)
(0.137881 -0.000753694 -1.87259e-05)
(0.137889 -0.000509192 9.71394e-05)
(0.137663 -0.000593459 -0.000313854)
(0.137985 -0.00041397 0.000469801)
(0.138266 -0.000671947 0.000130632)
(0.137766 -0.000518166 -0.000138366)
(0.137936 -0.000676616 -0.000358212)
(0.137573 -1.22312e-05 -0.000422291)
(0.137862 -0.000177753 0.000434996)
(0.138007 -0.000181228 0.000472958)
(0.13761 -0.000627426 6.27033e-05)
(0.137686 -0.000742671 -7.76096e-05)
(0.137714 -0.000554632 -0.000106552)
(0.137924 -0.000426624 0.000595927)
(0.138333 -0.000564911 0.000523852)
(0.137696 -0.000476056 0.000221575)
(0.137935 -0.000698032 -8.17679e-05)
(0.137774 2.23403e-05 0.000202184)
(0.137783 -0.000172032 0.00065098)
(0.13816 -0.000299461 0.000829749)
(0.137482 -0.000561702 0.000124473)
(0.137847 -0.00112585 0.000281759)
(0.137662 -0.000668345 3.79586e-05)
(0.137905 -0.000961502 0.000764728)
(0.138512 -0.00116105 0.00058607)
(0.137571 -0.000923954 6.05093e-05)
(0.138114 -0.00146096 -6.48042e-05)
(0.137517 -0.000240185 -0.000164787)
(0.138036 -0.000983453 0.000564929)
(0.138136 -0.000134991 0.000506951)
(0.137634 -0.00109184 0.000105962)
(0.13798 -0.000536726 -2.44578e-06)
(0.137403 -0.000477713 -1.51104e-05)
(0.137854 -0.000485665 0.000588827)
(0.138 -0.000657463 0.000559333)
(0.137535 -0.000819227 0.000337378)
(0.138905 -0.00118246 3.59205e-05)
(0.138572 -0.0004771 0.000511165)
(0.139623 -0.000866405 0.00165626)
(0.138599 -0.000366775 0.00175358)
(0.138514 -0.00111357 0.000189079)
(0.138737 -0.00081786 4.97525e-05)
(0.138584 -0.000929848 -0.000434195)
(0.139448 -0.000804307 0.0013242)
(0.138814 -0.000969949 0.000664562)
(0.138353 -0.000917683 7.38198e-05)
(0.138929 -0.00102372 -0.000603495)
(0.138306 -0.000214686 -0.000496433)
(0.139304 -0.000478787 0.00128669)
(0.138357 -0.000349095 0.00119016)
(0.138379 -0.00100834 0.000548361)
(0.138641 -0.00105909 -0.000165694)
(0.138736 -0.000856116 1.12863e-05)
(0.139372 -0.000763026 0.00136408)
(0.138823 -0.000815048 0.00124682)
(0.138137 -0.000801486 0.000416851)
(0.139077 -0.00105368 -0.000210852)
(0.138631 -0.000122496 0.00031817)
(0.139188 -0.000445595 0.00143221)
(0.138619 -0.000458417 0.00165106)
(0.13803 -0.000892441 0.000352711)
(0.138947 -0.00154553 0.000158199)
(0.138477 -0.000984245 -9.18226e-05)
(0.139637 -0.00145142 0.00150046)
(0.138665 -0.00150315 0.00115166)
(0.138039 -0.00141951 7.70415e-05)
(0.138793 -0.00202537 -0.000408581)
(0.138131 -0.000555514 -0.000395394)
(0.139382 -0.00150163 0.00124476)
(0.138271 -0.000299752 0.00102851)
(0.138068 -0.00158434 0.000161488)
(0.138638 -0.000865431 -0.000455265)
(0.138069 -0.000792395 -0.000169744)
(0.139164 -0.000826791 0.00124601)
(0.137991 -0.000856451 0.00117003)
(0.137974 -0.0012136 0.000561515)
(0.139184 -0.0016719 -0.000400726)
(0.138898 -0.000820853 0.000941392)
(0.139259 -0.00107187 0.00304737)
(0.13671 -0.000540815 0.0023843)
(0.138597 -0.00166217 -5.41707e-06)
(0.138898 -0.00134896 -0.000391602)
(0.139048 -0.00137124 -0.000161667)
(0.139195 -0.00114432 0.00294718)
(0.137218 -0.00125335 0.00124804)
(0.138452 -0.00153493 6.3396e-05)
(0.139189 -0.00152355 -0.0011546)
(0.138337 -0.000569035 -1.65734e-06)
(0.139235 -0.000696643 0.00280527)
(0.136533 -0.000474647 0.00207368)
(0.138666 -0.00156656 0.000795506)
(0.138891 -0.00154399 -0.000700411)
(0.139218 -0.00127671 0.000532885)
(0.139118 -0.00102831 0.00268753)
(0.137246 -0.00103775 0.00206434)
(0.138086 -0.0013591 0.000117363)
(0.139731 -0.00162534 -0.000576556)
(0.138623 -0.000382844 0.000797533)
(0.139205 -0.000670023 0.00289984)
(0.136718 -0.000539205 0.00249693)
(0.138044 -0.00140729 6.60145e-05)