# y+ ()       
# Time        	patch         	min           	max           	average       
98            	bottomWall	1.570443e+00	5.419373e+00	3.152607e+00
98            	topWall	1.592973e+00	5.964315e+00	3.100906e+00
