/*--------------------------------*- C++ -*----------------------------------*\
  =========                 |
  \\      /  F ield         | OpenFOAM: The Open Source CFD Toolbox
   \\    /   O peration     | Website:  https://openfoam.org
    \\  /    A nd           | Version:  10
     \\/     M anipulation  |
\*---------------------------------------------------------------------------*/
FoamFile
{
    format      ascii;
    class       volScalarField;
    location    "7";
    object      nut;
}
// * * * * * * * * * * * * * * * * * * * * * * * * * * * * * * * * * * * * * //

dimensions      [0 2 -1 0 0 0 0];

internalField   nonuniform List<scalar> 
25600
(
1.44853e-05
1.44993e-05
1.58125e-05
1.62872e-05
1.66195e-05
1.82635e-05
1.96831e-05
1.89929e-05
1.46151e-05
1.67824e-05
1.68487e-05
1.49625e-05
1.52397e-05
1.66882e-05
1.67956e-05
1.4738e-05
1.56751e-05
1.79695e-05
1.69605e-05
1.67381e-05
1.61863e-05
1.643e-05
1.47672e-05
1.45184e-05
1.48434e-05
1.50213e-05
1.6544e-05
1.70589e-05
1.99225e-05
2.26347e-05
2.02939e-05
1.79011e-05
1.67361e-05
1.71702e-05
1.67712e-05
1.73696e-05
1.65822e-05
1.70433e-05
1.83223e-05
1.59528e-05
1.64086e-05
1.54107e-05
1.56194e-05
1.56695e-05
1.48702e-05
1.64383e-05
2.05733e-05
2.19415e-05
1.54901e-05
1.6725e-05
1.76536e-05
1.58821e-05
1.59173e-05
1.63492e-05
1.74058e-05
1.5275e-05
1.38735e-05
1.79781e-05
1.93632e-05
1.99164e-05
1.78469e-05
1.56007e-05
1.38493e-05
1.42686e-05
1.51559e-05
1.47243e-05
1.55438e-05
1.63159e-05
1.91756e-05
2.31153e-05
2.22834e-05
2.15429e-05
1.8717e-05
1.69459e-05
1.67994e-05
1.78359e-05
1.71295e-05
1.67555e-05
1.81543e-05
1.70672e-05
1.84199e-05
1.62571e-05
1.54427e-05
1.43355e-05
1.25062e-05
1.25415e-05
1.69337e-05
2.3236e-05
1.72375e-05
1.60476e-05
1.84808e-05
1.65777e-05
1.52377e-05
1.50231e-05
1.73399e-05
1.58797e-05
1.18742e-05
1.5933e-05
2.0607e-05
2.33719e-05
2.08569e-05
1.60056e-05
1.29901e-05
1.24263e-05
1.36794e-05
1.33735e-05
1.34674e-05
1.50929e-05
1.66136e-05
2.10335e-05
2.32061e-05
2.51053e-05
2.14447e-05
1.74396e-05
1.69415e-05
1.78881e-05
1.7098e-05
1.5233e-05
1.6711e-05
1.83015e-05
1.91259e-05
1.70414e-05
1.58996e-05
1.43865e-05
1.20949e-05
9.34914e-06
8.99641e-06
1.79278e-05
1.75218e-05
1.47545e-05
1.81765e-05
1.76982e-05
1.48572e-05
1.29175e-05
1.53118e-05
1.63057e-05
1.178e-05
1.13374e-05
1.66296e-05
2.40818e-05
2.49918e-05
1.85595e-05
1.30489e-05
1.05331e-05
1.09787e-05
1.1623e-05
1.03845e-05
1.27367e-05
1.36355e-05
1.55967e-05
1.95586e-05
2.54688e-05
2.42933e-05
1.90128e-05
1.75233e-05
1.81538e-05
1.74565e-05
1.40642e-05
1.29475e-05
1.64483e-05
1.58138e-05
1.55793e-05
1.48795e-05
1.56642e-05
1.42898e-05
9.85593e-06
5.30657e-06
8.02857e-06
1.33402e-05
1.20382e-05
1.47632e-05
1.83482e-05
1.63921e-05
1.20799e-05
1.14947e-05
1.35651e-05
1.44074e-05
8.89857e-06
8.02893e-06
1.56009e-05
2.40495e-05
2.18913e-05
1.50374e-05
1.0552e-05
8.61681e-06
1.00524e-05
7.88755e-06
8.75304e-06
1.01949e-05
8.82998e-06
1.12756e-05
1.86962e-05
2.30914e-05
1.9553e-05
1.79622e-05
1.89751e-05
1.8503e-05
1.50496e-05
9.70156e-06
1.05924e-05
9.92923e-06
1.29989e-05
1.08708e-05
1.44706e-05
1.56063e-05
1.25721e-05
6.87447e-06
5.23618e-06
7.99136e-06
9.87102e-06
9.2863e-06
1.48623e-05
1.89665e-05
1.4187e-05
9.24881e-06
8.11215e-06
1.42678e-05
1.21948e-05
4.97163e-06
7.79641e-06
1.13416e-05
1.92002e-05
1.75472e-05
1.39526e-05
9.43192e-06
8.85256e-06
7.75817e-06
5.44006e-06
6.46683e-06
4.96832e-06
4.82747e-06
8.54047e-06
1.591e-05
1.6383e-05
1.47888e-05
1.71897e-05
1.83953e-05
1.69721e-05
1.05933e-05
5.72114e-06
6.23624e-06
1.53892e-05
1.03543e-05
1.15986e-05
1.4529e-05
1.25039e-05
1.18987e-05
8.64749e-06
7.16586e-06
1.13269e-05
8.33724e-06
5.8976e-06
1.79521e-05
1.71038e-05
9.63351e-06
8.31815e-06
1.05395e-05
1.35796e-05
8.00257e-06
7.73383e-06
8.90067e-06
8.26629e-06
1.52865e-05
1.85767e-05
1.72799e-05
1.1818e-05
9.39037e-06
5.3205e-06
6.00037e-06
7.15887e-06
4.73246e-06
6.99575e-06
1.09526e-05
1.28e-05
9.21038e-06
1.05488e-05
1.43116e-05
1.57421e-05
1.50463e-05
5.09638e-06
3.84418e-06
1.91389e-05
1.61924e-05
1.29051e-05
1.55625e-05
1.05149e-05
1.2975e-05
1.37783e-05
9.53791e-06
1.40549e-05
1.00136e-05
3.42423e-06
1.1493e-05
1.73374e-05
8.53342e-06
1.5184e-05
1.08203e-05
1.06019e-05
1.07726e-05
9.82795e-06
4.58117e-06
2.87171e-06
7.53624e-06
1.50912e-05
2.36447e-05
2.10878e-05
1.28229e-05
8.92298e-06
1.01998e-05
1.43836e-05
5.50738e-06
8.43294e-06
1.31454e-05
1.25436e-05
9.23218e-06
7.90464e-06
1.04702e-05
9.36733e-06
1.71617e-05
8.31706e-06
6.72017e-06
1.14197e-05
1.64578e-05
1.16103e-05
1.9437e-05
1.10807e-05
1.26643e-05
1.39705e-05
1.18849e-05
1.26869e-05
1.06045e-05
6.66344e-06
5.01404e-06
1.73038e-05
8.68219e-06
1.94673e-05
1.43067e-05
1.03061e-05
1.1287e-05
1.47441e-05
1.44197e-05
1.17954e-06
3.22405e-06
6.31812e-06
1.37322e-05
2.22859e-05
1.70924e-05
1.01294e-05
1.13236e-05
1.92158e-05
9.90167e-06
1.18093e-05
1.5577e-05
1.28904e-05
1.112e-05
9.4626e-06
1.09687e-05
4.94638e-06
1.47373e-05
1.39086e-05
7.36877e-06
8.61815e-06
8.32134e-06
4.42826e-06
1.43222e-05
1.2489e-05
1.07156e-05
1.13072e-05
1.25207e-05
8.29845e-06
5.48501e-06
3.31312e-06
1.15346e-05
8.4031e-06
1.07497e-05
1.37533e-05
1.37271e-05
9.5799e-06
1.33566e-05
9.73924e-06
1.11616e-05
5.59191e-06
2.46287e-06
4.85521e-06
5.35975e-06
6.89326e-06
1.36471e-05
9.65681e-06
6.43679e-06
1.26234e-05
1.16354e-05
5.65733e-06
9.49627e-06
8.70037e-06
6.05027e-06
5.91631e-06
1.08282e-05
2.67127e-06
8.97855e-06
1.75158e-05
8.66263e-06
6.01379e-06
5.23735e-06
4.4873e-06
4.66719e-06
9.01508e-06
7.74935e-06
4.22341e-06
6.73359e-06
5.57044e-06
5.72498e-06
5.08513e-06
5.91943e-06
3.09998e-06
1.00709e-05
3.51726e-06
4.13452e-06
7.77397e-06
1.01045e-05
9.0314e-06
7.49407e-06
7.73072e-06
3.98005e-06
3.90338e-06
4.76634e-06
4.39384e-06
5.27747e-06
8.56686e-06
6.10404e-06
5.07929e-06
9.0063e-06
2.87274e-06
3.87706e-06
4.8374e-06
4.15829e-06
3.46567e-06
3.3253e-06
3.6137e-06
3.03995e-06
1.33759e-05
1.65339e-05
6.24838e-06
3.85318e-06
9.41554e-06
3.18646e-06
3.7406e-06
3.77803e-06
3.1447e-06
1.79897e-06
3.1649e-06
7.48566e-06
1.31567e-05
1.04296e-05
3.48294e-06
7.0302e-06
3.44494e-06
3.12501e-06
4.17949e-06
5.93109e-06
7.38176e-06
6.65234e-06
7.10145e-06
7.84146e-06
6.89488e-06
5.36755e-06
5.8728e-06
6.55337e-06
7.88868e-06
6.94276e-06
5.27576e-06
5.94929e-06
4.62697e-06
3.31471e-06
4.71667e-06
3.85235e-06
3.76201e-06
2.15815e-06
6.77985e-06
2.49858e-06
6.06562e-06
1.41681e-05
7.31033e-06
8.37311e-07
4.70724e-06
5.38144e-06
3.53296e-06
1.99526e-06
2.34888e-06
2.92789e-06
3.8352e-06
4.80443e-06
1.38753e-05
1.10067e-05
2.15541e-06
1.24096e-06
2.61109e-06
4.30141e-06
3.34525e-06
2.70043e-06
4.67718e-06
3.2914e-06
2.91027e-06
7.15505e-06
1.01802e-05
8.18944e-06
5.34642e-06
5.00358e-06
6.37697e-06
7.54031e-06
4.1828e-06
3.21161e-06
4.81656e-06
4.34757e-06
4.40633e-06
3.6344e-06
5.08541e-06
1.65393e-06
7.95583e-06
3.54933e-06
2.97515e-06
6.7883e-06
2.69349e-06
1.70011e-06
2.43922e-06
6.21415e-06
3.23899e-06
2.70185e-06
2.532e-06
3.83198e-06
4.69079e-06
4.4168e-06
8.34353e-06
5.24315e-06
1.36317e-06
8.76153e-07
2.24444e-06
2.65205e-06
3.13673e-06
2.02616e-06
1.22403e-06
2.65791e-06
1.81078e-06
4.73024e-06
6.35458e-06
4.63435e-06
1.56129e-06
1.78253e-06
2.24602e-06
3.82736e-06
2.88351e-06
1.38797e-06
7.9527e-07
3.74584e-06
3.41123e-06
3.1699e-06
2.35435e-06
1.88726e-06
3.7961e-06
2.77899e-06
2.31674e-06
1.7527e-06
2.99346e-06
2.61768e-06
2.13887e-06
2.9149e-06
1.30006e-06
1.769e-06
2.79899e-06
2.80158e-06
4.4064e-06
5.14713e-06
3.22171e-06
2.16644e-06
1.07959e-06
7.42343e-07
1.56733e-06
1.35134e-06
1.91272e-06
1.01831e-06
1.08009e-06
2.21803e-06
1.35516e-06
2.13227e-06
2.16562e-06
1.27892e-06
1.54155e-06
2.3431e-06
2.087e-06
1.76108e-06
2.20095e-06
1.29572e-06
1.75928e-06
2.48257e-06
1.96371e-06
3.16723e-06
7.37141e-07
2.15786e-06
2.25882e-06
2.64232e-06
2.27099e-06
2.15335e-06
3.21806e-06
2.17994e-06
1.73275e-06
2.33785e-06
1.3907e-06
1.30187e-06
2.50263e-06
1.56451e-06
2.28938e-06
2.8406e-06
1.79866e-06
2.51158e-06
1.02562e-06
5.07432e-07
1.79678e-06
1.37851e-06
2.08493e-06
7.38575e-07
1.48947e-06
2.24615e-06
5.19508e-07
1.59422e-06
1.79838e-06
1.38612e-06
1.85907e-06
1.56032e-06
1.07886e-06
9.52552e-07
2.12556e-06
8.4176e-07
1.97331e-06
1.40922e-06
2.28193e-06
3.07975e-06
8.71104e-07
1.12961e-06
1.69428e-06
2.22179e-06
1.9873e-06
1.9898e-06
2.21192e-06
1.07866e-06
1.64914e-06
2.05117e-06
8.84491e-07
9.20803e-07
1.30469e-06
6.70139e-07
1.62521e-06
1.30069e-06
1.90479e-06
2.16064e-06
1.16821e-06
9.99611e-07
1.75323e-06
9.34636e-07
1.28269e-06
1.32865e-06
1.8723e-06
1.9309e-06
4.11335e-07
9.03241e-07
2.08155e-06
2.16523e-06
1.59746e-06
1.11842e-06
4.99567e-07
1.5452e-06
1.9201e-06
4.53774e-07
1.94819e-06
1.41901e-06
1.02584e-06
1.73841e-06
1.36311e-06
1.37288e-06
1.42385e-06
1.73345e-06
9.28982e-07
1.10863e-06
1.3322e-06
4.35893e-07
1.06384e-06
1.29901e-06
5.46865e-07
6.03948e-07
7.57672e-07
6.33238e-07
1.60177e-06
8.17515e-07
9.41425e-07
1.38072e-06
8.68662e-07
7.75389e-07
1.46632e-06
9.01654e-07
8.35216e-07
7.35021e-07
1.43875e-06
1.64853e-06
4.94947e-07
1.85373e-07
1.57663e-06
1.69742e-06
9.41641e-07
9.67184e-07
4.45226e-07
1.3128e-06
1.51057e-06
3.62391e-07
1.04179e-06
1.21884e-06
7.4111e-07
1.18523e-06
1.015e-06
8.17754e-07
9.01117e-07
1.36783e-06
4.94692e-07
4.80179e-07
7.14728e-07
1.53238e-07
6.4791e-07
1.04111e-06
3.80138e-07
3.7781e-07
4.05903e-07
3.86834e-07
1.16816e-06
4.13093e-07
4.59064e-07
7.92032e-07
3.27082e-07
2.8124e-07
1.0601e-06
6.37682e-07
6.09439e-07
3.97464e-07
7.9953e-07
1.35588e-06
4.52956e-07
1.03487e-07
9.63677e-07
1.06576e-06
4.27433e-07
5.79498e-07
2.49128e-07
6.253e-07
1.17689e-06
3.52245e-07
5.32392e-07
8.13927e-07
2.81325e-07
8.17022e-07
5.45728e-07
3.902e-07
4.71854e-07
7.43873e-07
4.84992e-07
1.50408e-07
5.05415e-07
7.30476e-08
4.34448e-07
9.61517e-07
2.36769e-07
2.95747e-07
1.83745e-07
2.08491e-07
9.00133e-07
2.78934e-07
2.82601e-07
5.92253e-07
1.5602e-07
3.87415e-08
8.80451e-07
4.18058e-07
3.79999e-07
5.17704e-07
3.70872e-07
1.05539e-06
3.31326e-07
1.27784e-07
6.88541e-07
6.69986e-07
1.43853e-07
3.41207e-07
2.48904e-07
2.80881e-07
9.8859e-07
3.18874e-07
2.10946e-07
5.53315e-07
7.7982e-08
5.79008e-07
2.78601e-07
1.95901e-07
3.01759e-07
2.88191e-07
5.11715e-07
6.07105e-08
4.04655e-07
4.57179e-08
2.25651e-07
9.52209e-07
1.63839e-07
2.23633e-07
1.66309e-07
1.07301e-07
7.07905e-07
1.8957e-07
1.84746e-07
5.32949e-07
1.1797e-07
1.41753e-08
6.64553e-07
2.81734e-07
1.75645e-07
4.6568e-07
1.71224e-07
7.56933e-07
2.45455e-07
1.30649e-07
5.75472e-07
4.17597e-07
8.24808e-08
1.72968e-07
2.42584e-07
1.76554e-07
6.9449e-07
3.0388e-07
1.35495e-07
5.23897e-07
6.43758e-08
4.15504e-07
1.69768e-07
1.76306e-07
2.45359e-07
9.56928e-08
5.4492e-07
4.11662e-08
2.31576e-07
2.26848e-08
1.24926e-07
9.59172e-07
1.26243e-07
1.50635e-07
1.84593e-07
5.48664e-08
5.77591e-07
1.42958e-07
1.30562e-07
5.00827e-07
7.65157e-08
2.61616e-08
5.01554e-07
2.56622e-07
8.46629e-08
3.83241e-07
8.45486e-08
5.54468e-07
2.02794e-07
1.17664e-07
5.3732e-07
2.58194e-07
7.71011e-08
9.32009e-08
2.0188e-07
1.28515e-07
4.22268e-07
3.02284e-07
1.09409e-07
4.49569e-07
5.85031e-08
2.86323e-07
1.08416e-07
1.67956e-07
2.76977e-07
3.13485e-08
5.76991e-07
3.18181e-08
1.14114e-07
2.88428e-08
6.3216e-08
8.40147e-07
1.05041e-07
9.14511e-08
2.32069e-07
3.17903e-08
4.427e-07
1.11595e-07
9.30728e-08
4.53279e-07
4.45698e-08
2.91992e-08
3.90494e-07
2.17883e-07
4.33877e-08
2.21878e-07
3.87746e-08
4.13361e-07
1.53535e-07
8.67082e-08
5.30914e-07
1.54746e-07
4.24849e-08
6.72579e-08
1.28495e-07
1.05992e-07
2.0509e-07
2.85259e-07
8.70005e-08
3.43727e-07
5.30042e-08
1.91625e-07
1.07582e-07
1.29994e-07
3.22844e-07
1.67926e-08
4.96064e-07
3.90891e-08
5.13967e-08
7.63919e-08
3.57757e-08
7.10932e-07
9.87321e-08
5.98735e-08
2.43231e-07
1.94536e-08
3.27146e-07
8.67027e-08
6.1925e-08
4.42423e-07
2.66684e-08
1.68461e-08
3.35523e-07
1.42624e-07
3.76042e-08
1.36026e-07
1.42944e-08
3.52839e-07
1.33696e-07
6.30939e-08
5.10372e-07
1.43521e-07
2.04438e-08
5.6517e-08
8.06047e-08
1.18249e-07
8.6227e-08
2.32523e-07
7.08341e-08
2.685e-07
5.27722e-08
1.16549e-07
1.59053e-07
8.43113e-08
3.7177e-07
1.0156e-08
3.558e-07
7.98297e-08
2.68816e-08
1.3533e-07
2.39903e-08
5.33878e-07
9.69305e-08
4.29646e-08
1.95265e-07
1.47514e-08
2.56345e-07
6.56554e-08
3.89526e-08
3.52264e-07
2.39001e-08
3.42924e-09
3.25768e-07
9.84311e-08
2.06893e-08
1.54556e-07
7.13181e-09
2.91431e-07
2.29472e-07
4.00473e-08
4.14122e-07
1.96407e-07
7.20155e-09
3.33979e-08
3.70335e-08
1.87523e-07
3.90819e-08
1.56812e-07
6.39043e-08
1.82024e-07
6.88957e-08
3.72564e-08
2.40429e-07
6.29701e-08
3.36228e-07
7.15476e-09
1.90009e-07
1.67323e-07
1.83925e-08
1.63476e-07
1.81326e-08
3.6238e-07
9.24397e-08
3.7329e-08
1.47708e-07
1.16884e-08
2.23451e-07
4.26047e-08
3.19773e-08
2.06141e-07
3.85498e-08
4.05482e-09
1.7846e-07
1.32061e-07
4.04451e-09
2.31882e-07
5.23933e-09
8.23836e-08
4.60964e-07
2.47359e-08
2.38424e-07
2.81795e-07
2.29967e-09
3.04979e-08
7.8826e-09
3.21739e-07
2.57853e-08
4.74566e-08
1.2545e-07
9.53658e-08
1.14069e-07
2.24266e-08
2.19836e-07
5.54357e-08
2.40845e-07
1.06066e-08
9.18102e-08
2.66519e-07
1.27115e-08
1.58263e-07
1.68921e-08
2.02503e-07
8.88166e-08
3.46435e-08
1.40361e-07
7.19827e-09
2.30104e-07
2.01104e-08
3.73236e-08
1.07858e-07
3.00549e-08
6.07076e-08
2.8606e-08
1.9644e-07
6.25367e-09
1.22152e-07
2.55831e-08
1.46673e-08
5.65937e-07
1.47864e-08
4.65844e-08
3.85643e-07
8.98948e-10
7.98726e-08
5.1296e-09
3.45604e-07
9.49047e-08
9.26392e-09
2.57121e-07
6.19215e-08
8.301e-08
4.54635e-08
7.94055e-08
5.70929e-08
2.09836e-07
1.72927e-08
5.40563e-08
4.08978e-07
9.49398e-09
1.19946e-07
3.21764e-08
3.47637e-08
1.13673e-07
2.88791e-08
1.49559e-07
4.1646e-09
2.53032e-07
9.66916e-09
2.94873e-08
1.61181e-07
7.59466e-09
3.51021e-07
1.32932e-08
5.28196e-08
2.07514e-07
5.85942e-09
2.34995e-07
1.28433e-08
3.15648e-07
9.57e-08
2.60547e-08
3.62654e-07
5.66165e-09
7.41572e-08
5.53468e-09
1.47739e-07
3.90795e-07
5.92955e-09
2.35489e-07
1.18426e-07
1.63516e-08
1.50896e-07
1.91379e-08
3.22842e-08
3.03777e-07
1.53977e-08
1.83182e-08
5.84505e-07
6.53383e-09
3.65918e-08
2.12685e-07
7.58094e-09
1.54282e-07
2.5613e-08
1.24385e-07
2.49181e-09
2.15322e-07
1.83072e-08
1.16925e-08
3.59106e-07
4.07755e-09
3.5821e-07
2.9235e-08
4.10932e-09
5.28697e-07
5.4026e-09
1.74822e-07
1.15743e-08
5.15735e-09
4.88109e-07
1.92201e-08
7.14396e-08
2.39105e-07
1.35158e-08
1.10787e-08
4.5763e-08
4.24719e-07
5.83758e-09
6.60017e-08
2.39327e-07
7.35268e-09
2.05729e-07
1.01213e-08
9.97199e-09
4.21378e-07
9.4087e-09
4.60163e-09
6.70836e-07
3.17115e-09
3.35622e-09
4.25845e-07
6.9192e-09
1.47758e-07
2.42244e-08
6.89373e-08
4.46369e-09
7.50909e-08
1.95229e-07
8.57145e-09
4.0127e-07
1.03453e-09
2.81486e-08
3.5651e-07
6.3034e-09
5.05565e-07
2.71831e-09
4.4929e-09
3.62531e-07
7.5208e-09
4.56764e-07
9.2796e-09
6.09342e-09
4.91487e-07
6.02458e-09
1.11051e-08
1.05728e-07
1.75689e-07
1.56161e-08
4.84308e-08
1.61201e-07
9.8761e-09
1.71706e-07
1.55577e-08
1.05558e-08
4.33438e-07
5.17632e-09
8.50181e-09
5.29553e-07
5.97266e-09
2.15943e-08
4.01457e-07
6.5434e-09
9.35357e-08
9.16132e-09
5.67506e-08
2.60281e-08
1.24236e-08
3.86799e-07
4.00451e-09
1.79643e-07
1.67054e-07
9.77894e-09
4.3095e-07
5.25424e-09
1.2031e-07
1.92528e-07
6.97994e-09
3.99121e-07
4.69674e-09
1.05911e-07
2.61175e-07
7.89954e-09
3.78726e-07
4.96479e-08
7.88195e-09
2.31417e-07
1.87971e-08
2.0757e-08
1.37654e-07
1.07995e-08
1.3711e-08
1.5289e-07
2.43074e-08
1.45488e-08
3.38314e-07
1.70861e-08
1.96176e-08
1.31156e-07
8.18884e-08
7.50175e-08
4.88938e-08
3.49585e-08
1.03122e-07
1.14012e-09
1.15111e-07
6.01972e-08
6.51043e-09
3.69426e-07
1.92021e-09
2.31519e-08
4.05913e-07
4.20382e-09
2.39915e-07
1.17237e-07
8.53038e-09
2.95478e-07
8.92099e-09
8.32808e-08
7.75797e-08
2.21546e-08
2.3833e-07
8.29014e-09
6.61556e-08
1.30931e-07
1.29532e-08
1.33852e-07
1.78266e-08
1.8028e-08
1.79261e-07
9.62575e-09
1.01537e-08
1.22207e-07
5.71789e-08
1.89385e-08
1.57879e-07
7.34753e-08
4.34793e-08
2.85024e-05
2.74979e-05
2.51809e-05
2.61746e-05
2.65738e-05
3.28918e-05
3.32038e-05
3.48692e-05
3.02334e-05
2.89746e-05
3.1268e-05
2.83011e-05
3.05288e-05
2.71663e-05
2.53273e-05
2.54791e-05
2.21179e-05
2.72931e-05
2.76655e-05
2.82922e-05
2.76745e-05
2.90829e-05
2.50565e-05
2.74002e-05
3.04707e-05
2.95449e-05
3.05479e-05
2.81415e-05
2.70128e-05
3.07713e-05
2.66023e-05
2.58166e-05
2.303e-05
2.21655e-05
2.35608e-05
2.46568e-05
2.58002e-05
2.8106e-05
3.16022e-05
3.00885e-05
3.08397e-05
2.91331e-05
2.71259e-05
2.70698e-05
2.25195e-05
2.95154e-05
3.2592e-05
3.49594e-05
3.22022e-05
2.76986e-05
3.25058e-05
3.06761e-05
3.01335e-05
2.8706e-05
2.71662e-05
2.6832e-05
2.11434e-05
2.61276e-05
2.9641e-05
3.09754e-05
2.97421e-05
2.98254e-05
2.41627e-05
2.38422e-05
2.85876e-05
2.8902e-05
2.969e-05
2.91587e-05
2.74383e-05
3.25073e-05
3.06123e-05
2.80773e-05
2.45439e-05
2.26837e-05
2.37689e-05
2.36548e-05
2.46663e-05
2.67127e-05
3.04232e-05
3.19087e-05
3.19602e-05
2.96939e-05
2.86222e-05
2.86902e-05
1.72948e-05
2.16371e-05
2.71171e-05
2.86004e-05
3.18179e-05
2.39456e-05
3.02539e-05
3.31273e-05
2.73037e-05
2.80235e-05
2.77069e-05
2.76042e-05
2.10312e-05
2.334e-05
2.83708e-05
3.12895e-05
3.05848e-05
3.07866e-05
2.50426e-05
1.80459e-05
2.1025e-05
2.42341e-05
2.45001e-05
2.816e-05
2.55918e-05
2.98058e-05
3.3929e-05
3.05663e-05
2.6081e-05
2.33219e-05
2.35201e-05
2.25659e-05
2.26043e-05
2.29947e-05
2.47742e-05
3.03049e-05
2.78604e-05
2.60198e-05
2.60091e-05
3.13955e-05
1.72316e-05
1.22806e-05
1.95601e-05
1.65802e-05
2.44799e-05
1.66772e-05
1.91674e-05
3.18011e-05
2.4356e-05
2.31099e-05
2.48103e-05
2.5651e-05
2.07852e-05
1.98319e-05
2.30435e-05
2.60735e-05
2.75883e-05
2.91132e-05
2.75167e-05
1.66068e-05
1.197e-05
1.7161e-05
1.59204e-05
2.11175e-05
2.0515e-05
1.89054e-05
2.94394e-05
3.11773e-05
2.64337e-05
2.36971e-05
2.29295e-05
2.1318e-05
2.05981e-05
2.07022e-05
1.70849e-05
2.21291e-05
1.78342e-05
1.71888e-05
1.47392e-05
2.73601e-05
2.37035e-05
7.99894e-06
1.2531e-05
9.05949e-06
1.4104e-05
9.95818e-06
4.40137e-06
1.95746e-05
2.09495e-05
1.60859e-05
1.83814e-05
1.86273e-05
1.69183e-05
1.52858e-05
1.61321e-05
1.55526e-05
1.80936e-05
2.17208e-05
2.68041e-05
2.07766e-05
9.39103e-06
1.16305e-05
1.11471e-05
1.21601e-05
1.4436e-05
7.14519e-06
1.33847e-05
2.331e-05
2.21785e-05
2.19808e-05
2.14467e-05
1.88424e-05
1.65836e-05
1.87373e-05
1.39339e-05
1.23243e-05
8.68741e-06
9.00174e-06
4.66868e-06
1.17634e-05
2.47029e-05
8.80992e-06
7.37078e-06
7.90946e-06
9.5326e-06
8.14546e-06
1.1576e-05
5.94484e-06
1.30165e-05
9.9408e-06
1.21941e-05
1.08678e-05
9.16015e-06
8.46721e-06
1.06119e-05
6.62638e-06
4.90621e-06
7.2683e-06
1.79471e-05
2.22298e-05
1.31652e-05
9.21625e-06
1.03755e-05
7.96235e-06
1.1028e-05
4.60293e-06
4.96329e-06
8.88912e-06
1.1728e-05
1.48643e-05
1.70951e-05
1.55285e-05
1.08891e-05
1.25208e-05
1.25987e-05
7.70021e-06
4.72212e-06
5.44845e-06
3.41728e-06
5.90417e-06
1.48457e-05
1.23822e-05
6.77482e-06
5.62201e-06
8.92823e-06
9.61166e-06
7.1109e-06
9.74667e-06
4.74046e-06
5.74295e-06
6.90192e-06
8.09584e-06
6.09911e-06
6.05834e-06
7.11917e-06
5.12299e-06
1.74778e-06
4.87961e-06
5.20894e-06
1.50351e-05
1.51128e-05
9.66181e-06
9.14937e-06
6.82884e-06
7.96248e-06
8.25483e-06
3.91206e-06
1.86231e-06
3.93135e-06
6.149e-06
9.02636e-06
1.06137e-05
5.97398e-06
6.00575e-06
7.83862e-06
6.98289e-06
4.46563e-06
4.02719e-06
6.08445e-06
4.36751e-06
7.21698e-06
1.22221e-05
4.70879e-06
4.80199e-06
6.10776e-06
1.0296e-05
9.81143e-06
5.83372e-06
2.42256e-06
2.86478e-06
3.55203e-06
6.82779e-06
9.12984e-06
4.3179e-06
7.40173e-06
5.63614e-06
5.06011e-06
3.87564e-06
4.51059e-06
5.83669e-06
1.11203e-05
1.11982e-05
8.4655e-06
6.14475e-06
5.21142e-06
9.85505e-06
5.48163e-06
2.71851e-06
3.06913e-06
2.40059e-06
4.16602e-06
5.95193e-06
4.92626e-06
2.93596e-06
4.42437e-06
6.44885e-06
5.59242e-06
2.64078e-06
6.37562e-06
3.01459e-06
6.18269e-06
1.07183e-05
5.57961e-06
3.80231e-06
3.61424e-06
8.82071e-06
1.09945e-05
5.86801e-06
2.42289e-06
1.93769e-06
4.30493e-06
4.03369e-06
1.17147e-05
8.27382e-06
4.40048e-06
4.1229e-06
6.50976e-06
5.14652e-06
3.29026e-06
3.16994e-06
3.65497e-06
7.54883e-06
8.53235e-06
5.23343e-06
3.30554e-06
5.14391e-06
5.57923e-06
3.58463e-06
4.98181e-06
1.78733e-06
3.7451e-06
4.22976e-06
6.13223e-06
3.199e-06
4.07371e-06
5.72759e-06
8.66602e-06
2.8877e-06
3.20582e-06
2.52249e-06
4.01027e-06
9.01587e-06
9.90072e-06
2.62451e-06
4.07013e-06
5.35201e-06
7.49099e-06
7.72468e-06
4.21318e-06
3.40126e-06
3.12505e-06
2.28794e-06
8.50384e-06
1.20511e-05
4.89048e-06
4.42978e-06
3.18716e-06
5.6099e-06
4.84255e-06
4.31129e-06
2.61014e-06
1.92142e-06
4.7463e-06
5.10912e-06
2.82517e-06
1.80184e-06
3.31254e-06
2.67201e-06
4.92188e-06
2.25024e-06
2.82161e-06
2.42081e-06
4.81864e-06
7.19256e-06
1.91259e-06
4.82783e-06
8.93595e-06
3.37415e-06
2.37988e-06
2.37184e-06
3.27286e-06
4.30718e-06
1.01369e-05
5.44287e-06
3.12742e-06
1.47645e-06
5.80334e-06
7.41347e-06
4.86145e-06
1.88878e-06
3.14727e-06
3.39879e-06
2.85677e-06
7.72271e-06
8.78032e-06
2.93353e-06
4.65988e-06
4.34519e-06
4.75874e-06
4.13325e-06
2.66616e-06
3.80786e-06
2.08352e-06
3.9162e-06
2.5039e-06
2.19509e-06
3.15045e-06
3.65909e-06
3.51724e-06
3.0174e-06
2.0429e-06
1.29174e-06
2.85705e-06
6.63887e-06
2.99273e-06
4.49522e-06
5.72081e-06
2.05482e-06
1.35424e-06
2.09859e-06
3.95812e-06
1.65706e-06
6.39898e-06
6.59064e-06
2.10595e-06
1.27675e-06
3.3873e-06
6.31923e-06
5.39648e-06
1.39528e-06
3.03133e-06
4.56078e-06
1.35676e-06
2.84028e-06
6.32285e-06
3.1884e-06
3.52415e-06
3.31729e-06
4.38883e-06
4.08831e-06
1.87598e-06
1.474e-06
1.87963e-06
2.51565e-06
1.68095e-06
1.3995e-06
2.62252e-06
3.43282e-06
2.02089e-06
3.19039e-06
3.27216e-06
2.0384e-06
2.06216e-06
4.47342e-06
3.5353e-06
3.01829e-06
3.18278e-06
2.3844e-06
8.93767e-07
3.27495e-06
3.47014e-06
1.90591e-06
3.09818e-06
5.87621e-06
5.11606e-06
2.19231e-06
8.74408e-07
4.21915e-06
4.76357e-06
8.17564e-07
1.81504e-06
3.29745e-06
6.71816e-07
2.6339e-06
2.81322e-06
2.53164e-06
2.4788e-06
2.1215e-06
4.25044e-06
3.13792e-06
7.77711e-07
1.68786e-06
2.19058e-06
2.99905e-06
4.06082e-06
2.11148e-06
2.11567e-06
2.57922e-06
2.55991e-06
1.72011e-06
3.52777e-06
2.05433e-06
1.3566e-06
2.57172e-06
5.21333e-06
1.3063e-06
3.18579e-06
2.32805e-06
1.09616e-06
2.25697e-06
3.01071e-06
3.45083e-06
3.32279e-06
4.27426e-06
3.22873e-06
1.8647e-06
1.26559e-06
2.21013e-06
3.73045e-06
1.66044e-06
1.23314e-06
2.15225e-06
5.15626e-07
2.57037e-06
2.81967e-06
1.44967e-06
2.04233e-06
2.01979e-06
3.19514e-06
2.66847e-06
3.37104e-06
1.55686e-06
3.55301e-06
1.43782e-06
5.4525e-06
1.95319e-06
2.98129e-06
2.98091e-06
3.48239e-06
1.06811e-06
3.97524e-06
7.97891e-07
3.71638e-07
6.37578e-07
6.63823e-06
1.10188e-06
3.26517e-06
2.07689e-06
6.07618e-07
2.40943e-06
3.19381e-06
3.69773e-06
4.09257e-06
2.21095e-06
1.43885e-06
2.75417e-06
8.11689e-07
3.36349e-06
1.60079e-06
1.30191e-06
6.42146e-07
2.35711e-06
1.27134e-06
1.15481e-06
2.94167e-06
1.40941e-06
2.19862e-06
2.67203e-06
2.05192e-06
1.41569e-06
3.78788e-06
1.34377e-06
4.08848e-06
2.28332e-06
1.66284e-06
2.00113e-06
1.63025e-06
2.24262e-06
2.30565e-06
1.63633e-06
3.46454e-06
1.42622e-06
1.56056e-06
1.79375e-06
3.24005e-06
2.64492e-06
1.80785e-06
2.83881e-06
3.05081e-06
3.5132e-06
1.51317e-06
2.05421e-06
3.9927e-06
4.78733e-06
8.38917e-07
1.32569e-06
3.3338e-06
3.52591e-06
3.92462e-06
1.43571e-06
1.26476e-06
2.85797e-06
3.11008e-06
4.97219e-06
3.0991e-06
1.01339e-06
1.99033e-06
2.2544e-06
2.95103e-06
2.8271e-06
1.72478e-06
2.60238e-06
2.31566e-06
4.3056e-06
3.94716e-06
2.07142e-06
9.5794e-07
2.73861e-06
3.60337e-06
2.94269e-06
2.31949e-06
1.82749e-06
2.62959e-06
2.90068e-06
4.28604e-06
2.11969e-06
1.34412e-06
1.98461e-06
3.56841e-06
2.05397e-06
2.37468e-06
5.77213e-07
2.95068e-06
5.31861e-06
2.36984e-06
3.07225e-06
3.29454e-06
1.39791e-06
2.97418e-06
1.72531e-06
2.01736e-06
1.98291e-06
1.92507e-06
3.82443e-06
2.3203e-06
8.62886e-07
2.4187e-06
1.09362e-06
1.97166e-06
3.31467e-06
3.67011e-06
2.24303e-06
1.99138e-06
2.1156e-06
3.66696e-06
1.37463e-06
1.50143e-06
1.51166e-06
1.90156e-06
1.80618e-06
3.2159e-06
8.25059e-07
1.48411e-06
2.20329e-06
5.05556e-06
7.94718e-07
1.06218e-06
1.20348e-06
1.56256e-06
1.26241e-06
1.07461e-06
3.80474e-07
1.55509e-06
2.04499e-06
1.87383e-06
2.33539e-06
1.00954e-06
8.79237e-07
1.71219e-06
9.38858e-07
9.39897e-07
1.41327e-06
8.09792e-07
1.0633e-06
1.23482e-06
8.86213e-07
1.62144e-06
1.5804e-06
2.25645e-07
1.42264e-06
2.40046e-06
1.34758e-06
2.27064e-06
1.15588e-06
1.8209e-06
1.10633e-06
1.07748e-06
1.52676e-06
1.84578e-06
9.32615e-07
1.09141e-06
7.9759e-07
5.97419e-07
8.21974e-07
2.23042e-06
4.97348e-07
6.08909e-07
1.21929e-06
5.88491e-07
7.39632e-07
4.0446e-07
1.82829e-07
1.72243e-06
1.61576e-06
6.90681e-07
1.17673e-06
3.18273e-07
6.95319e-07
1.75494e-06
6.21828e-07
4.30391e-07
1.08396e-06
7.6361e-07
1.0849e-06
1.02877e-06
5.2046e-07
9.85865e-07
1.09465e-06
3.55446e-07
8.14834e-07
1.14143e-06
4.65203e-07
1.5167e-06
1.20217e-06
8.6547e-07
8.75418e-07
6.80971e-07
1.3785e-06
1.63585e-06
4.76973e-07
7.55488e-07
7.2027e-07
3.44325e-07
5.79062e-07
1.10579e-06
8.4168e-07
4.01643e-07
7.90813e-07
3.35328e-07
3.82634e-07
4.29787e-07
4.48426e-08
1.16568e-06
1.40636e-06
4.25194e-07
7.35191e-07
1.56463e-07
3.23719e-07
1.13712e-06
3.24557e-07
1.41675e-07
7.83537e-07
3.72285e-07
5.47124e-07
8.88404e-07
2.09936e-07
6.89066e-07
7.22745e-07
1.57949e-07
5.32347e-07
7.11093e-07
1.3526e-07
8.03689e-07
5.92873e-07
3.52661e-07
5.98153e-07
4.42931e-07
7.70086e-07
1.16232e-06
3.14016e-07
4.82254e-07
4.34829e-07
1.57514e-07
4.23099e-07
6.878e-07
5.02247e-07
2.71832e-07
4.92494e-07
1.64551e-07
2.53736e-07
4.44992e-07
1.63069e-08
7.58994e-07
9.60267e-07
2.77556e-07
5.69761e-07
8.06128e-08
1.32105e-07
7.65001e-07
1.6712e-07
5.5265e-08
6.1146e-07
1.84846e-07
2.0905e-07
6.38631e-07
1.74892e-07
5.28301e-07
5.85253e-07
7.41881e-08
3.51403e-07
4.21523e-07
7.1644e-08
4.75568e-07
4.4584e-07
2.43227e-07
3.99932e-07
2.99998e-07
4.19987e-07
8.57616e-07
2.21473e-07
2.48715e-07
2.99735e-07
1.08049e-07
2.98049e-07
3.33227e-07
4.00402e-07
1.95379e-07
3.20595e-07
1.07264e-07
1.32337e-07
5.34943e-07
8.82501e-09
4.15966e-07
7.36164e-07
2.11697e-07
4.77917e-07
5.02303e-08
5.91483e-08
6.35051e-07
1.06893e-07
5.13025e-08
4.55795e-07
1.25991e-07
1.17075e-07
4.14512e-07
1.29874e-07
3.71142e-07
4.1613e-07
6.19766e-08
2.32064e-07
2.57768e-07
8.3305e-08
3.45955e-07
3.27429e-07
2.10147e-07
2.66871e-07
2.00082e-07
2.71666e-07
6.21827e-07
1.81793e-07
1.4425e-07
2.09982e-07
1.00228e-07
2.87533e-07
1.60898e-07
3.4825e-07
1.4677e-07
1.81653e-07
7.88439e-08
7.87453e-08
5.6256e-07
8.48378e-09
2.05294e-07
6.19114e-07
1.5728e-07
3.54972e-07
3.85798e-08
2.06991e-08
5.70172e-07
8.05571e-08
4.96761e-08
4.10148e-07
8.40894e-08
6.67016e-08
2.15769e-07
9.11214e-08
3.26413e-07
2.70258e-07
5.72344e-08
2.57319e-07
1.67872e-07
5.34587e-08
2.60721e-07
2.66171e-07
1.95365e-07
1.71943e-07
1.17316e-07
1.92017e-07
4.3043e-07
1.51182e-07
7.73747e-08
1.49591e-07
8.70724e-08
2.83485e-07
6.29975e-08
2.92073e-07
1.30533e-07
9.97705e-08
9.87849e-08
4.65339e-08
5.3273e-07
1.05738e-08
7.29136e-08
4.85335e-07
1.1569e-07
2.72333e-07
3.613e-08
8.39865e-09
4.87319e-07
7.81448e-08
3.19748e-08
3.76507e-07
5.03653e-08
4.4214e-08
1.62346e-07
3.98551e-08
3.28597e-07
1.90223e-07
4.07159e-08
3.02625e-07
1.17937e-07
2.70398e-08
2.03082e-07
2.21701e-07
1.60499e-07
1.10686e-07
5.36158e-08
1.53158e-07
3.06921e-07
1.0944e-07
4.74264e-08
1.03707e-07
6.54492e-08
3.1257e-07
3.08327e-08
2.04679e-07
1.37337e-07
4.04331e-08
1.54147e-07
3.48094e-08
4.64287e-07
1.14134e-08
3.88135e-08
3.83892e-07
8.43706e-08
2.20848e-07
2.90498e-08
5.85396e-09
3.56126e-07
1.18376e-07
1.93213e-08
3.07231e-07
7.61965e-08
1.6469e-08
2.00058e-07
1.57939e-08
2.95248e-07
2.59149e-07
2.10794e-08
3.27182e-07
1.32534e-07
1.5855e-08
1.11798e-07
1.53594e-07
1.8959e-07
7.72804e-08
1.76182e-08
1.28033e-07
2.3001e-07
8.78745e-08
2.91073e-08
1.0518e-07
4.55471e-08
3.09854e-07
2.03316e-08
1.22306e-07
1.91386e-07
1.39323e-08
2.23927e-07
2.72928e-08
3.50693e-07
1.27667e-08
3.332e-08
3.0942e-07
4.70779e-08
2.13406e-07
1.70398e-08
4.15679e-08
2.08771e-07
1.53256e-07
1.78976e-08
8.77977e-08
2.24253e-07
5.92809e-09
2.32553e-07
1.07522e-08
1.0109e-07
4.71356e-07
1.00398e-08
2.62786e-07
1.81825e-07
8.48343e-09
9.24815e-08
5.15972e-08
3.07859e-07
5.79298e-08
7.01293e-09
1.48286e-07
1.48095e-07
8.88105e-08
2.33652e-08
1.06731e-07
2.92083e-08
2.87851e-07
2.07615e-08
5.97966e-08
3.11385e-07
8.82106e-09
2.46411e-07
2.68303e-08
2.12259e-07
2.53887e-08
3.07656e-08
2.74441e-07
1.66863e-08
2.45659e-07
8.40125e-09
1.30915e-07
1.35462e-07
5.24053e-08
2.07508e-07
1.86701e-08
2.99258e-07
6.73017e-09
5.19584e-08
7.07505e-08
2.49209e-08
5.82767e-07
9.3083e-09
5.79317e-08
3.0176e-07
4.07738e-09
1.72881e-07
1.28586e-08
3.3621e-07
1.15531e-07
6.63773e-09
2.29457e-07
1.10138e-07
6.2153e-08
3.8192e-08
5.28566e-08
1.54083e-08
2.96346e-07
2.06723e-08
2.34528e-08
4.72067e-07
7.86521e-09
1.95221e-07
6.09774e-08
3.28986e-08
7.87025e-08
2.76376e-08
2.40299e-07
5.686e-09
2.74673e-07
4.74195e-09
9.16088e-08
2.33607e-07
3.32448e-09
5.35682e-07
1.0956e-08
7.36308e-08
2.67012e-07
2.72009e-09
3.11368e-07
1.95824e-08
3.14417e-07
1.28107e-07
1.99813e-08
3.20306e-07
1.39352e-08
1.86237e-07
1.24549e-08
1.64773e-07
3.88273e-07
6.45361e-09
2.01933e-07
1.84637e-07
2.23549e-08
1.24127e-07
1.86531e-08
7.58648e-09
3.68575e-07
1.69919e-08
6.05348e-09
6.34295e-07
5.49342e-09
5.49591e-08
2.85746e-07
8.43907e-09
1.53163e-07
2.49747e-08
1.64435e-07
4.14705e-09
2.22984e-07
9.32395e-09
7.90023e-09
4.48436e-07
2.11021e-09
4.87527e-07
1.4881e-08
3.24813e-09
6.34055e-07
4.42536e-09
2.01814e-07
3.93145e-08
7.29789e-09
4.98682e-07
1.63252e-08
5.71829e-08
2.20645e-07
5.19531e-08
2.20355e-08
5.79958e-08
4.56109e-07
5.97418e-09
5.03992e-08
2.96202e-07
1.04332e-08
1.48287e-07
2.2495e-08
7.40344e-09
4.15566e-07
1.20561e-08
4.46455e-09
6.72914e-07
2.3204e-09
4.03455e-09
4.95025e-07
7.14301e-09
1.61208e-07
2.22579e-08
7.35757e-08
1.12153e-08
7.50951e-08
1.73677e-07
7.05244e-09
5.01017e-07
1.2374e-09
3.11152e-08
4.11611e-07
6.9208e-09
5.78338e-07
6.31867e-10
3.95787e-09
4.38804e-07
7.0218e-09
4.39604e-07
3.14252e-08
6.23617e-09
4.36792e-07
2.45157e-08
1.56796e-08
1.17809e-07