/*--------------------------------*- C++ -*----------------------------------*\
  =========                 |
  \\      /  F ield         | OpenFOAM: The Open Source CFD Toolbox
   \\    /   O peration     | Website:  https://openfoam.org
    \\  /    A nd           | Version:  10
     \\/     M anipulation  |
\*---------------------------------------------------------------------------*/
FoamFile
{
    format      ascii;
    class       volScalarField;
    location    "7";
    object      pPrime2Mean;
}
// * * * * * * * * * * * * * * * * * * * * * * * * * * * * * * * * * * * * * //

dimensions      [0 4 -4 0 0 0 0];

internalField   nonuniform List<scalar> 
25600
(
2.94359e-07
9.11705e-07
6.06822e-07
2.23996e-07
2.15442e-07
4.29489e-07
5.75148e-07
2.5626e-07
4.98029e-07
2.66424e-07
4.51856e-07
7.98706e-07
1.06209e-07
7.48888e-07
6.83416e-07
9.87916e-07
1.4794e-07
2.50978e-07
6.45426e-07
2.30175e-07
7.30667e-07
6.227e-07
7.71417e-07
7.77301e-07
1.26154e-06
2.54306e-07
7.28155e-07
1.9096e-06
4.93631e-07
4.25056e-07
8.15433e-07
1.83915e-07
1.23557e-06
3.27866e-07
4.38798e-07
6.98059e-07
9.58075e-08
8.18737e-07
8.8872e-07
3.4897e-07
2.90617e-07
9.04497e-07
5.98846e-07
2.2533e-07
2.20108e-07
4.40714e-07
5.87724e-07
2.49592e-07
4.85858e-07
2.56674e-07
4.56261e-07
7.90506e-07
1.043e-07
7.25917e-07
6.78889e-07
9.96567e-07
1.43751e-07
2.49385e-07
6.45699e-07
2.35533e-07
7.36947e-07
6.18266e-07
7.41591e-07
7.67847e-07
1.27057e-06
2.50165e-07
7.23527e-07
1.94833e-06
4.93422e-07
4.28653e-07
7.99995e-07
1.77443e-07
1.21261e-06
3.44813e-07
4.51356e-07
6.87407e-07
9.50422e-08
8.18957e-07
8.71616e-07
3.60198e-07
2.93787e-07
8.83654e-07
5.84863e-07
2.36542e-07
2.2612e-07
4.62746e-07
6.09982e-07
2.39135e-07
4.5662e-07
2.38495e-07
4.79191e-07
7.58756e-07
1.01751e-07
6.71193e-07
6.66334e-07
1.02311e-06
1.3478e-07
2.48043e-07
6.46196e-07
2.4439e-07
7.63117e-07
6.09745e-07
6.82537e-07
7.49656e-07
1.25005e-06
2.51545e-07
7.21969e-07
1.97755e-06
5.06638e-07
4.28905e-07
7.81824e-07
1.69606e-07
1.15876e-06
3.72379e-07
4.85791e-07
6.56083e-07
9.1886e-08
8.05254e-07
8.37748e-07
3.76968e-07
2.99116e-07
8.09172e-07
5.67476e-07
2.56449e-07
2.20278e-07
4.70501e-07
6.31748e-07
2.34718e-07
4.18369e-07
2.22663e-07
5.41684e-07
6.77379e-07
1.04204e-07
5.79543e-07
6.38606e-07
1.09469e-06
1.27533e-07
2.49957e-07
6.40419e-07
2.53167e-07
7.82862e-07
5.82561e-07
6.01059e-07
7.25138e-07
1.15219e-06
2.52478e-07
7.59981e-07
1.85798e-06
5.46912e-07
4.3022e-07
7.52022e-07
1.88077e-07
1.03491e-06
4.19093e-07
5.30348e-07
5.65393e-07
8.10272e-08
7.48582e-07
7.19206e-07
3.8875e-07
3.02563e-07
6.21179e-07
5.0456e-07
2.69956e-07
1.91915e-07
4.47519e-07
5.87615e-07
2.32184e-07
3.91128e-07
2.23282e-07
6.14736e-07
6.07351e-07
1.19008e-07
5.33511e-07
5.8448e-07
1.13431e-06
1.05281e-07
2.65966e-07
5.93699e-07
2.49365e-07
7.98775e-07
5.66116e-07
4.55554e-07
6.64665e-07
9.24846e-07
2.50088e-07
8.21021e-07
1.6379e-06
6.47314e-07
4.23235e-07
7.18124e-07
2.30006e-07
8.59582e-07
4.30145e-07
5.77597e-07
4.74735e-07
5.79438e-08
6.82779e-07
5.50176e-07
3.47103e-07
2.79548e-07
4.48133e-07
5.0694e-07
2.83964e-07
1.47786e-07
4.41884e-07
5.16315e-07
2.0987e-07
3.72096e-07
2.16133e-07
6.37185e-07
5.65869e-07
1.44768e-07
4.7278e-07
5.19976e-07
1.19537e-06
8.97824e-08
2.78464e-07
5.56094e-07
2.25267e-07
8.07243e-07
6.05341e-07
3.58945e-07
5.94274e-07
6.77434e-07
2.37541e-07
7.6247e-07
1.48834e-06
6.94848e-07
3.76603e-07
6.21329e-07
3.3163e-07
6.57091e-07
4.34857e-07
5.26046e-07
4.22595e-07
6.02907e-08
6.34322e-07
3.95095e-07
3.3012e-07
2.5767e-07
3.10034e-07
4.82799e-07
2.48627e-07
8.20997e-08
3.66731e-07
4.36379e-07
1.77847e-07
3.4845e-07
1.98147e-07
5.99932e-07
5.53492e-07
1.49632e-07
4.38554e-07
4.55917e-07
1.19422e-06
7.35901e-08
2.56121e-07
4.45519e-07
2.1059e-07
7.51799e-07
5.88765e-07
3.07237e-07
4.94585e-07
5.06532e-07
2.27849e-07
6.9839e-07
1.39378e-06
7.13945e-07
3.08452e-07
4.67043e-07
4.27386e-07
5.64761e-07
4.01251e-07
4.07899e-07
3.34142e-07
5.92308e-08
4.70625e-07
3.08794e-07
2.30514e-07
2.24261e-07
2.20506e-07
4.05933e-07
1.86679e-07
5.8235e-08
2.83861e-07
3.87482e-07
1.53318e-07
3.22803e-07
2.11175e-07
4.86935e-07
4.10454e-07
1.1573e-07
3.80387e-07
4.54045e-07
1.05723e-06
9.14327e-08
2.13314e-07
3.68044e-07
2.07964e-07
6.6026e-07
4.49417e-07
2.83385e-07
5.10558e-07
3.88948e-07
1.8742e-07
6.03757e-07
1.16782e-06
5.82361e-07
2.81748e-07
2.92532e-07
4.89603e-07
4.25635e-07
3.06614e-07
2.6812e-07
2.28562e-07
7.16145e-08
3.31375e-07
2.6421e-07
1.46735e-07
1.58432e-07
1.70367e-07
2.92783e-07
1.35442e-07
5.54145e-08
2.08412e-07
3.87453e-07
1.28087e-07
2.90247e-07
1.96594e-07
3.316e-07
2.85214e-07
7.46324e-08
2.92091e-07
3.969e-07
8.50816e-07
6.49049e-08
1.53652e-07
2.95887e-07
2.0177e-07
5.53252e-07
3.64403e-07
2.86062e-07
4.7316e-07
2.98628e-07
1.46397e-07
4.46322e-07
1.01835e-06
5.27635e-07
2.33698e-07
1.91267e-07
4.15619e-07
3.37938e-07
1.88843e-07
1.90522e-07
1.34625e-07
9.4772e-08
2.36763e-07
2.26815e-07
1.18727e-07
9.81677e-08
1.6233e-07
2.62479e-07
1.12519e-07
3.71823e-08
1.41695e-07
2.89117e-07
1.0512e-07
2.57184e-07
1.5508e-07
2.14156e-07
2.08875e-07
4.97264e-08
2.27125e-07
3.07639e-07
5.24599e-07
3.15017e-08
9.72546e-08
2.2746e-07
1.71583e-07
4.50553e-07
3.29144e-07
2.67131e-07
4.02848e-07
1.99124e-07
1.23831e-07
3.88148e-07
8.30579e-07
4.41557e-07
1.9299e-07
1.12594e-07
3.02129e-07
2.68652e-07
1.22378e-07
1.30699e-07
7.46914e-08
9.44378e-08
1.50424e-07
1.80268e-07
1.05025e-07
5.61952e-08
1.26813e-07
1.79578e-07
9.05708e-08
2.78778e-08
8.3415e-08
1.98978e-07
8.61478e-08
2.1393e-07
1.29006e-07
1.30431e-07
1.38991e-07
3.22755e-08
1.71062e-07
2.29653e-07
3.21038e-07
1.64252e-08
7.20248e-08
1.83508e-07
1.32665e-07
3.19915e-07
2.84587e-07
2.48332e-07
3.34154e-07
1.29935e-07
1.08986e-07
3.39113e-07
6.69987e-07
3.52953e-07
1.48881e-07
6.14674e-08
2.49235e-07
2.00046e-07
7.70906e-08
8.9477e-08
5.20623e-08
8.88843e-08
1.0656e-07
1.3811e-07
8.96224e-08
3.30397e-08
9.31243e-08
1.23216e-07
6.30776e-08
2.01781e-08
4.65597e-08
1.24144e-07
6.92653e-08
1.7468e-07
1.0745e-07
7.59203e-08
8.56035e-08
2.10781e-08
1.27112e-07
1.67441e-07
1.82571e-07
1.08257e-08
5.65629e-08
1.3881e-07
9.77925e-08
2.2421e-07
2.26384e-07
2.25009e-07
2.69748e-07
8.4947e-08
9.8452e-08
3.01729e-07
5.29398e-07
2.91125e-07
1.18894e-07
5.03024e-08
1.9614e-07
1.52273e-07
4.80257e-08
5.52191e-08
4.43842e-08
8.2445e-08
7.2438e-08
1.01284e-07
8.00788e-08
2.17919e-08
6.43643e-08
7.99076e-08
4.28046e-08
1.51452e-08
2.64938e-08
7.55134e-08
5.352e-08
1.41411e-07
9.01763e-08
4.20289e-08
4.87505e-08
1.46352e-08
8.98639e-08
1.19567e-07
1.04158e-07
1.17214e-08
4.69478e-08
1.01755e-07
7.64355e-08
1.63041e-07
1.78883e-07
1.95265e-07
2.16202e-07
6.01849e-08
9.07302e-08
2.68371e-07
4.16908e-07
2.39281e-07
9.90591e-08
5.44218e-08
1.61407e-07
1.18081e-07
3.13568e-08
3.60729e-08
4.33726e-08
7.57985e-08
4.73908e-08
6.84055e-08
6.8491e-08
1.57416e-08
4.22188e-08
5.10389e-08
2.9062e-08
1.25358e-08
1.49057e-08
4.46013e-08
4.19287e-08
1.11189e-07
7.48538e-08
2.22973e-08
2.55646e-08
1.04576e-08
6.17394e-08
8.44708e-08
6.12183e-08
1.45572e-08
4.02663e-08
7.47891e-08
6.32844e-08
1.23948e-07
1.41745e-07
1.62779e-07
1.65582e-07
4.59547e-08
8.16821e-08
2.35968e-07
3.30684e-07
1.99397e-07
8.58172e-08
6.30107e-08
1.3486e-07
9.58509e-08
2.39175e-08
2.57669e-08
4.30722e-08
6.39965e-08
3.04317e-08
4.35592e-08
5.54114e-08
1.19438e-08
2.65677e-08
3.22324e-08
1.9964e-08
1.07332e-08
8.93503e-09
2.70167e-08
3.39571e-08
8.66988e-08
6.20906e-08
1.27271e-08
1.27575e-08
8.14075e-09
4.20161e-08
5.93658e-08
3.85526e-08
1.67404e-08
3.50885e-08
5.58564e-08
5.40034e-08
9.76805e-08
1.13403e-07
1.31788e-07
1.22974e-07
3.65095e-08
7.22011e-08
2.02944e-07
2.64171e-07
1.68046e-07
7.76973e-08
6.91315e-08
1.13764e-07
7.99963e-08
2.18616e-08
2.07958e-08
4.14578e-08
5.19591e-08
1.99097e-08
2.66868e-08
4.25398e-08
9.17781e-09
1.62878e-08
2.02607e-08
1.39791e-08
9.22923e-09
6.08294e-09
1.72541e-08
2.84406e-08
6.80674e-08
5.20664e-08
9.52947e-09
6.79173e-09
6.82683e-09
2.8779e-08
4.15201e-08
2.66013e-08
1.76392e-08
3.10585e-08
4.31347e-08
4.67705e-08
7.88649e-08
9.16522e-08
1.03829e-07
9.03411e-08
2.95514e-08
6.24026e-08
1.69784e-07
2.12112e-07
1.42376e-07
7.2373e-08
7.10661e-08
9.68334e-08
6.83894e-08
2.24696e-08
1.89181e-08
3.80975e-08
4.08154e-08
1.32943e-08
1.59779e-08
3.11305e-08
7.14287e-09
9.81742e-09
1.27517e-08
9.87267e-09
7.78159e-09
4.79536e-09
1.20288e-08
2.43529e-08
5.39902e-08
4.43739e-08
9.81884e-09
4.87835e-09
6.0723e-09
2.0061e-08
2.91044e-08
2.01123e-08
1.75118e-08
2.75744e-08
3.47674e-08
4.06785e-08
6.43702e-08
7.46769e-08
8.0455e-08
6.61792e-08
2.40897e-08
5.26783e-08
1.38351e-07
1.70002e-07
1.20708e-07
6.81458e-08
6.93449e-08
8.30881e-08
5.9826e-08
2.39565e-08
1.87044e-08
3.34738e-08
3.1251e-08
9.05099e-09
9.44977e-09
2.18644e-08
5.65026e-09
5.85997e-09
8.02117e-09
6.97644e-09
6.40846e-09
4.34167e-09
9.26682e-09
2.10218e-08
4.32822e-08
3.81972e-08
1.14571e-08
5.02553e-09
5.634e-09
1.44335e-08
2.0663e-08
1.63201e-08
1.66991e-08
2.42836e-08
2.90896e-08
3.53268e-08
5.29559e-08
6.11108e-08
6.2315e-08
4.86309e-08
1.97687e-08
4.35131e-08
1.10075e-07
1.35311e-07
1.02237e-07
6.39538e-08
6.53052e-08
7.17767e-08
5.32308e-08
2.54699e-08
1.89731e-08
2.8472e-08
2.35294e-08
6.32713e-09
5.55226e-09
1.48667e-08
4.41103e-09
3.50443e-09
5.06195e-09
4.89413e-09
5.19233e-09
4.1826e-09
7.74062e-09
1.81431e-08
3.50013e-08
3.29156e-08
1.30911e-08
5.93717e-09
5.4123e-09
1.07698e-08
1.50966e-08
1.3815e-08
1.54272e-08
2.12595e-08
2.48284e-08
3.05146e-08
4.37026e-08
4.99888e-08
4.83181e-08
3.60137e-08
1.63874e-08
3.53742e-08
8.57119e-08
1.06644e-07
8.56471e-08
5.92322e-08
5.99175e-08
6.2307e-08
4.7842e-08
2.64338e-08
1.91565e-08
2.3744e-08
1.76079e-08
4.56781e-09
3.23013e-09
9.7922e-09
3.3609e-09
2.07754e-09
3.2295e-09
3.43277e-09
4.12872e-09
4.0382e-09
6.77851e-09
1.55682e-08
2.84452e-08
2.81877e-08
1.402e-08
6.87923e-09
5.34022e-09
8.43487e-09
1.14747e-08
1.19621e-08
1.38973e-08
1.83202e-08
2.12849e-08
2.61787e-08
3.6022e-08
4.07056e-08
3.75444e-08
2.69971e-08
1.37939e-08
2.8449e-08
6.56068e-08
8.31129e-08
7.10491e-08
5.38269e-08
5.38643e-08
5.41941e-08
4.31318e-08
2.66391e-08
1.89699e-08
1.96032e-08
1.3233e-08
3.43549e-09
1.84205e-09
6.29623e-09
2.47547e-09
1.21907e-09
2.08233e-09
2.39752e-09
3.21797e-09
3.79283e-09
6.04475e-09
1.32751e-08
2.3115e-08
2.38436e-08
1.40508e-08
7.50695e-09
5.3326e-09
6.95387e-09
9.13164e-09
1.04526e-08
1.23544e-08
1.56772e-08
1.82511e-08
2.23021e-08
2.95643e-08
3.29124e-08
2.92806e-08
2.05944e-08
1.18151e-08
2.2749e-08
4.95318e-08
6.40091e-08
5.82658e-08
4.78486e-08
4.75948e-08
4.70533e-08
3.87203e-08
2.59323e-08
1.82936e-08
1.61705e-08
1.01084e-08
2.71789e-09
1.02046e-09
3.97011e-09
1.75936e-09
6.94425e-10
1.35262e-09
1.68139e-09
2.45723e-09
3.42442e-09
5.38595e-09
1.1182e-08
1.86768e-08
1.98437e-08
1.32861e-08
7.71439e-09
5.3247e-09
6.0229e-09
7.60378e-09
9.16847e-09
1.09002e-08
1.33524e-08
1.55521e-08
1.8862e-08
2.41323e-08
2.64004e-08
2.29384e-08
1.60427e-08
1.02841e-08
1.81655e-08
3.70008e-08
4.87308e-08
4.71675e-08
4.15551e-08
4.13715e-08
4.06024e-08
3.43951e-08
2.44521e-08
1.71581e-08
1.34078e-08
7.93097e-09
2.27726e-09
5.62315e-10
2.49858e-09
1.22014e-09
3.62886e-10
8.81968e-10
1.17603e-09
1.84005e-09
2.96557e-09
4.77202e-09
9.31641e-09
1.49382e-08
1.62085e-08
1.19657e-08
7.53682e-09
5.269e-09
5.42911e-09
6.57928e-09
8.06191e-09
9.54266e-09
1.13721e-08
1.32095e-08
1.58516e-08
1.95944e-08
2.10285e-08
1.80656e-08
1.27937e-08
9.04677e-09
1.45306e-08
2.74466e-08
3.6716e-08
3.76378e-08
3.52427e-08
3.53467e-08
3.46609e-08
3.0075e-08
2.23494e-08
1.56692e-08
1.12028e-08
6.43185e-09
2.02208e-09
3.49519e-10
1.62429e-09
8.59718e-10
1.53923e-10
5.80567e-10
8.48333e-10
1.36119e-09
2.47658e-09
4.10743e-09
7.63216e-09
1.17845e-08
1.29761e-08
1.03484e-08
7.05891e-09
5.13293e-09
5.02927e-09
5.85776e-09
7.11114e-09
8.32702e-09
9.70268e-09
1.12045e-08
1.32603e-08
1.58493e-08
1.66792e-08
1.43195e-08
1.04303e-08
7.99569e-09
1.16663e-08
2.03127e-08
2.74173e-08
2.95699e-08
2.91785e-08
2.96204e-08
2.91386e-08
2.57766e-08
1.98109e-08
1.39541e-08
9.43119e-09
5.40045e-09
1.88819e-09
3.03255e-10
1.16312e-09
6.87127e-10
3.71943e-11
3.95503e-10
6.3778e-10
1.0068e-09
2.01654e-09
3.45387e-09
6.14867e-09
9.14208e-09
1.01757e-08
8.65314e-09
6.38523e-09
4.91195e-09
4.72156e-09
5.31335e-09
6.30089e-09
7.26899e-09
8.31537e-09
9.51694e-09
1.10715e-08
1.2808e-08
1.32285e-08
1.14428e-08
8.66388e-09
7.06281e-09
9.40758e-09
1.50489e-08
2.03128e-08
2.28457e-08
2.3568e-08
2.42782e-08
2.40172e-08
2.15793e-08
1.70336e-08
1.21299e-08
7.98037e-09
4.6735e-09
1.82858e-09
3.64886e-10
9.84828e-10
6.8604e-10
6.0322e-15
2.9309e-10
5.15741e-10
7.6033e-10
1.61855e-09
2.83377e-09
4.83978e-09
6.95518e-09
7.81643e-09
7.03399e-09
5.61259e-09
4.60624e-09
4.44221e-09
4.87061e-09
5.6178e-09
6.37349e-09
7.17878e-09
8.12027e-09
9.26079e-09
1.03851e-08
1.05465e-08
9.23925e-09
7.29845e-09
6.21192e-09
7.61448e-09
1.11842e-08
1.49377e-08
1.73371e-08
1.85499e-08
1.94021e-08
1.93276e-08
1.7593e-08
1.4204e-08
1.02913e-08
6.75326e-09
4.13168e-09
1.80763e-09
4.87299e-10
9.90913e-10
7.05116e-10
3.82169e-11
2.90145e-10
4.63952e-10
6.04758e-10
1.29491e-09
2.26097e-09
3.70993e-09
5.18028e-09
5.88703e-09
5.59048e-09
4.82114e-09
4.23713e-09
4.15951e-09
4.48709e-09
5.04625e-09
5.63298e-09
6.25906e-09
6.98272e-09
7.79473e-09
8.49271e-09
8.50019e-09
7.55552e-09
6.20839e-09
5.42811e-09
6.1786e-09
8.34273e-09
1.09034e-08
1.29051e-08
1.42022e-08
1.50667e-08
1.5124e-08
1.39283e-08
1.14799e-08
8.51351e-09
5.68148e-09
3.69151e-09
1.79935e-09
6.39125e-10
1.09736e-09
8.23655e-10
1.5005e-10
3.7056e-10
4.88984e-10
5.28844e-10
1.04811e-09
1.76192e-09
2.77221e-09
3.78202e-09
4.36317e-09
4.37475e-09
4.07216e-09
3.83226e-09
3.86491e-09
4.14293e-09
4.57146e-09
5.0322e-09
5.52378e-09
6.07129e-09
6.63274e-09
7.04235e-09
6.96221e-09
6.27088e-09
5.3183e-09
4.71126e-09
5.02055e-09
6.24443e-09
7.89348e-09
9.40581e-09
1.05526e-08
1.13279e-08
1.14612e-08
1.06767e-08
8.98246e-09
6.85788e-09
4.72404e-09
3.29978e-09
1.78404e-09
7.94156e-10
1.26986e-09
1.05403e-09
3.33155e-10
5.21627e-10
5.97117e-10
5.33146e-10
8.88601e-10
1.3702e-09
2.04561e-09
2.73416e-09
3.21544e-09
3.40691e-09
3.4174e-09
3.43167e-09
3.5685e-09
3.83127e-09
4.1785e-09
4.55117e-09
4.94292e-09
5.35369e-09
5.73116e-09
5.95028e-09
5.81994e-09
5.29228e-09
4.58561e-09
4.06979e-09
4.08667e-09
4.68922e-09
5.66408e-09
6.70018e-09
7.58865e-09
8.21756e-09
8.37938e-09
7.90244e-09
6.79819e-09
5.37464e-09
3.86651e-09
2.93048e-09
1.75014e-09
9.39003e-10
1.48934e-09
1.3636e-09
5.93934e-10
7.58756e-10
7.9744e-10
6.32814e-10
8.41634e-10
1.12697e-09
1.55631e-09
2.02434e-09
2.42438e-09
2.70664e-09
2.90068e-09
3.07722e-09
3.29053e-09
3.55206e-09
3.85198e-09
4.16702e-09
4.48837e-09
4.79953e-09
5.0479e-09
5.14357e-09
4.98195e-09
4.55148e-09
3.98856e-09
3.51672e-09
3.34501e-09
3.54308e-09
4.03606e-09
4.66453e-09
5.273e-09
5.73267e-09
5.89006e-09
5.63451e-09
4.97395e-09
4.10342e-09
3.11422e-09
2.57837e-09
1.69213e-09
1.06272e-09
1.73922e-09
1.77485e-09
9.63014e-10
1.1115e-09
1.11404e-09
8.56428e-10
9.45325e-10
1.07975e-09
1.3383e-09
1.6579e-09
1.98922e-09
2.29628e-09
2.56837e-09
2.81634e-09
3.05818e-09
3.30853e-09
3.57611e-09
3.8558e-09
4.13405e-09
4.38128e-09
4.54579e-09
4.56334e-09
4.37968e-09
4.00205e-09
3.51935e-09
3.06877e-09
2.78173e-09
2.7252e-09
2.88887e-09
3.19992e-09
3.55772e-09
3.85678e-09
3.98871e-09
3.88227e-09
3.53883e-09
3.07727e-09
2.4896e-09
2.25862e-09
1.61127e-09
1.15181e-09
2.01767e-09
2.39699e-09
1.51007e-09
1.63255e-09
1.58463e-09
1.24311e-09
1.24476e-09
1.27875e-09
1.43438e-09
1.6651e-09
1.94157e-09
2.22634e-09
2.48699e-09
2.71068e-09
2.90741e-09
3.10656e-09
3.33429e-09
3.5926e-09
3.85588e-09
4.07561e-09
4.19472e-09
4.16557e-09
3.96548e-09
3.61559e-09
3.18033e-09
2.74795e-09
2.40325e-09
2.20078e-09
2.15575e-09
2.24139e-09
2.40106e-09
2.56384e-09
2.65873e-09
2.64044e-09
2.50487e-09
2.32378e-09
2.02903e-09
2.01031e-09
1.52563e-09
1.17703e-09
2.34732e-09
4.61732e-07
1.23602e-06
5.37104e-07
6.48517e-07
1.22505e-07
3.44086e-07
4.87466e-07
2.91049e-07
1.05543e-06
9.93274e-07
3.48251e-07
8.52838e-07
1.61966e-07
6.63539e-07
6.93407e-07
1.38068e-06
2.94339e-07
1.87078e-07
7.50215e-07
3.41421e-07
8.53249e-07
1.62612e-06
9.41817e-07
1.81646e-06
1.18455e-06
3.75321e-07
1.98427e-07
1.88642e-06
5.30084e-07
5.78617e-07
6.29483e-07
1.55257e-07
7.02602e-07
1.04225e-07
4.66592e-08
9.4394e-07
2.19603e-07
4.37011e-07
6.14663e-07
1.39325e-07
4.6916e-07
1.22218e-06
5.37486e-07
6.52665e-07
1.28032e-07
3.4454e-07
4.92175e-07
2.9629e-07
1.0732e-06
1.01732e-06
3.5362e-07
8.44126e-07
1.60411e-07
6.32796e-07
6.92017e-07
1.39885e-06
2.86608e-07
1.85748e-07
7.62624e-07
3.37495e-07
8.61074e-07
1.60989e-06
9.49002e-07
1.77094e-06
1.2057e-06
3.76194e-07
1.87197e-07
1.89735e-06
5.42662e-07
6.0053e-07
6.24626e-07
1.51809e-07
6.96462e-07
1.06407e-07
4.66938e-08
9.45992e-07
2.13082e-07
4.23434e-07
6.2641e-07
1.40623e-07
4.88588e-07
1.16477e-06
5.32468e-07
6.64716e-07
1.36523e-07
3.44037e-07
5.21129e-07
3.11437e-07
1.09653e-06
1.08162e-06
3.61173e-07
8.06425e-07
1.63558e-07
5.52316e-07
6.84071e-07
1.40276e-06
2.81325e-07
1.90041e-07
7.57633e-07
3.28045e-07
8.94012e-07
1.57803e-06
9.54211e-07
1.69481e-06
1.21491e-06
3.81467e-07
1.60839e-07
1.92624e-06
5.74839e-07
6.29444e-07
6.04714e-07
1.46582e-07
6.76756e-07
1.15339e-07
4.98826e-08
8.9202e-07
1.99692e-07
3.91895e-07
6.35857e-07
1.47599e-07
4.98996e-07
1.04681e-06
4.89923e-07
7.33593e-07
1.41603e-07
3.16875e-07
5.77523e-07
3.29341e-07
1.06962e-06
1.18208e-06
3.40824e-07
7.16245e-07
1.66787e-07
4.44089e-07
6.08457e-07
1.36843e-06
2.84268e-07
1.99006e-07
7.43664e-07
3.09823e-07
9.41126e-07
1.53444e-06
9.10068e-07
1.63139e-06
1.10626e-06
3.80643e-07
1.24845e-07
1.94321e-06
6.78644e-07
6.11936e-07
5.57813e-07
1.39469e-07
6.30301e-07
1.39373e-07
6.10347e-08
7.34118e-07
1.93529e-07
3.43521e-07
6.11996e-07
1.71291e-07
4.83073e-07
9.52043e-07
4.38528e-07
8.4012e-07
1.17252e-07
2.8882e-07
6.50073e-07
3.47237e-07
9.69603e-07
1.25056e-06
3.28683e-07
6.56935e-07
1.76061e-07
3.26073e-07
5.64088e-07
1.43907e-06
2.65799e-07
2.03641e-07
7.8547e-07
2.65842e-07
9.82031e-07
1.39446e-06
8.76711e-07
1.42902e-06
9.43137e-07
3.39647e-07
1.11247e-07
1.86439e-06
7.86794e-07
5.45515e-07
4.89357e-07
1.39096e-07
5.97764e-07
1.68276e-07
8.99111e-08
5.20977e-07
2.33177e-07
2.85654e-07
5.82099e-07
2.07337e-07
4.21343e-07
8.65398e-07
3.85783e-07
8.07375e-07
1.37334e-07
2.62455e-07
6.96601e-07
3.568e-07
7.47216e-07
1.12419e-06
3.48805e-07
6.81347e-07
1.73482e-07
2.96909e-07
5.08242e-07
1.4559e-06
2.04223e-07
1.98284e-07
7.99811e-07
2.38389e-07
8.6266e-07
1.27706e-06
8.68264e-07
1.16339e-06
7.47795e-07
2.58495e-07
1.07063e-07
1.7445e-06
8.65803e-07
4.32013e-07
3.82194e-07
1.32961e-07
5.12669e-07
2.045e-07
1.26709e-07
3.44127e-07
2.80191e-07
2.18693e-07
5.95635e-07
2.21996e-07
3.14452e-07
7.13558e-07
3.45714e-07
5.60516e-07
1.16362e-07
2.92216e-07
5.75144e-07
3.27918e-07
5.37287e-07
9.39812e-07
2.79944e-07
6.56322e-07
1.50637e-07
2.40851e-07
4.89391e-07
1.53767e-06
1.9573e-07
2.10505e-07
7.38306e-07
2.32716e-07
7.71054e-07
1.13838e-06
7.27225e-07
9.91565e-07
5.20511e-07
1.85208e-07
1.12389e-07
1.58586e-06
8.15947e-07
3.27839e-07
2.90005e-07
1.29279e-07
4.62915e-07
1.91887e-07
1.74821e-07
2.30391e-07
2.77805e-07
1.69621e-07
5.69317e-07
2.13639e-07
1.88792e-07
5.83944e-07
2.93429e-07
4.49992e-07
6.60152e-08
2.23032e-07
4.459e-07
2.80633e-07
4.07784e-07
7.03113e-07
1.85086e-07
5.94161e-07
1.17261e-07
2.27443e-07
4.38292e-07
1.5489e-06
1.84851e-07
2.19434e-07
6.26902e-07
2.01735e-07
6.30246e-07
9.21019e-07
5.11888e-07
8.82124e-07
3.24523e-07
1.39175e-07
1.74286e-07
1.34971e-06
6.27956e-07
2.65909e-07
2.11574e-07
1.16383e-07
3.74422e-07
1.51467e-07
1.82953e-07
1.57962e-07
2.83186e-07
1.44611e-07
4.47021e-07
1.86742e-07
1.29084e-07
4.44713e-07
2.49677e-07
3.1823e-07
2.91993e-08
1.79488e-07
2.86201e-07
1.96155e-07
3.10458e-07
4.5398e-07
1.25997e-07
4.86723e-07
9.04603e-08
2.61649e-07
3.51534e-07
1.16089e-06
1.32187e-07
1.83403e-07
4.54903e-07
1.68544e-07
4.97178e-07
7.45728e-07
4.21945e-07
7.15926e-07
2.4392e-07
1.05062e-07
2.67746e-07
1.07175e-06
4.49736e-07
2.11033e-07
1.44445e-07
1.10992e-07
2.9571e-07
8.27633e-08
1.54628e-07
1.14592e-07
2.50051e-07
1.18709e-07
3.74168e-07
1.45862e-07
1.01944e-07
3.53206e-07
1.84461e-07
1.96309e-07
2.31678e-08
1.24268e-07
2.12516e-07
1.24791e-07
2.37983e-07
2.95546e-07
9.30879e-08
3.50842e-07
6.71191e-08
2.45311e-07
3.02197e-07
6.92998e-07
7.62114e-08
1.29788e-07
2.89688e-07
1.35567e-07
3.65813e-07
5.54616e-07
4.04546e-07
5.3545e-07
2.00864e-07
8.17407e-08
3.01091e-07
8.2991e-07
3.42851e-07
1.50291e-07
8.75136e-08
1.08461e-07
2.32841e-07
5.26027e-08
1.14444e-07
8.26221e-08
1.93201e-07
9.46794e-08
2.60316e-07
1.24522e-07
8.53325e-08
2.39714e-07
1.26179e-07
1.2186e-07
2.30536e-08
8.80678e-08
1.37237e-07
7.82962e-08
1.84226e-07
1.95691e-07
6.45657e-08
2.17511e-07
4.38128e-08
1.98088e-07
2.59063e-07
4.48417e-07
4.81247e-08
8.65346e-08
1.73593e-07
1.1878e-07
2.84481e-07
4.06559e-07
3.59552e-07
4.15401e-07
1.44589e-07
7.50591e-08
2.76044e-07
6.53822e-07
2.83076e-07
1.22293e-07
5.22638e-08
9.98836e-08
1.67829e-07
4.11242e-08
7.286e-08
5.06051e-08
1.47549e-07
7.10748e-08
1.74752e-07
1.02518e-07
6.55175e-08
1.59348e-07
8.74427e-08
7.58263e-08
2.31788e-08
5.5147e-08
8.01958e-08
4.74441e-08
1.391e-07
1.25667e-07
3.95556e-08
1.27479e-07
2.53794e-08
1.51279e-07
2.16092e-07
2.88965e-07
3.4275e-08
5.48832e-08
1.04169e-07
1.04039e-07
2.26777e-07
3.03671e-07
2.8894e-07
3.24382e-07
9.8047e-08
7.62033e-08
2.65565e-07
5.1755e-07
2.44877e-07
9.58923e-08
3.62109e-08
9.11086e-08
1.25017e-07
3.11474e-08
4.59493e-08
3.49728e-08
1.07183e-07
4.90821e-08
1.12627e-07
8.66171e-08
4.84169e-08
1.04334e-07
5.81198e-08
4.69799e-08
2.21658e-08
3.64179e-08
4.73718e-08
2.98019e-08
1.03446e-07
8.48558e-08
2.46316e-08
7.04207e-08
1.53017e-08
1.1238e-07
1.68988e-07
1.82119e-07
3.04812e-08
3.74635e-08
6.21494e-08
8.881e-08
1.84331e-07
2.2447e-07
2.27453e-07
2.46027e-07
7.14819e-08
7.90403e-08
2.53195e-07
4.12875e-07
2.12399e-07
7.69675e-08
3.22804e-08
8.33117e-08
9.30989e-08
2.30102e-08
2.79226e-08
3.0573e-08
8.02913e-08
3.32245e-08
7.03519e-08
7.12142e-08
3.55482e-08
6.63521e-08
3.8039e-08
3.02458e-08
2.05664e-08
2.42146e-08
2.89052e-08
2.16714e-08
7.80592e-08
6.01326e-08
1.39383e-08
3.64098e-08
9.8046e-09
8.05646e-08
1.29183e-07
1.17049e-07
2.93709e-08
2.99373e-08
4.11866e-08
7.31942e-08
1.47425e-07
1.71303e-07
1.79558e-07
1.8139e-07
5.45545e-08
7.80852e-08
2.29379e-07
3.31277e-07
1.85107e-07
6.64792e-08
3.56935e-08
7.68946e-08
7.37076e-08
1.89528e-08
1.81641e-08
2.86117e-08
6.06941e-08
2.28042e-08
4.28517e-08
5.72775e-08
2.56921e-08
4.13331e-08
2.48013e-08
1.99028e-08
1.82112e-08
1.68137e-08
1.85818e-08
1.82987e-08
6.03942e-08
4.55412e-08
7.83218e-09
1.76971e-08
7.16554e-09
5.69376e-08
9.57247e-08
7.719e-08
2.88265e-08
2.77142e-08
3.14744e-08
5.92716e-08
1.16411e-07
1.32686e-07
1.40638e-07
1.32148e-07
4.29516e-08
7.26429e-08
1.99604e-07
2.66541e-07
1.59875e-07
6.11196e-08
4.11118e-08
7.07485e-08
6.1664e-08
1.78367e-08
1.37931e-08
2.68294e-08
4.50815e-08
1.57139e-08
2.59004e-08
4.49713e-08
1.83681e-08
2.5141e-08
1.60517e-08
1.34899e-08
1.53402e-08
1.22706e-08
1.30496e-08
1.70597e-08
4.80126e-08
3.68362e-08
5.29201e-09
8.2753e-09
5.96982e-09
4.0058e-08
6.92411e-08
5.29607e-08
2.77656e-08
2.66767e-08
2.69998e-08
4.80502e-08
9.10579e-08
1.03876e-07
1.09012e-07
9.56653e-08
3.41856e-08
6.43162e-08
1.68417e-07
2.13728e-07
1.36903e-07
5.82866e-08
4.57033e-08
6.51758e-08
5.38102e-08
1.85109e-08
1.25251e-08
2.47698e-08
3.34451e-08
1.09109e-08
1.57127e-08
3.38891e-08
1.30154e-08
1.49544e-08
1.01928e-08
9.41868e-09
1.24698e-08
9.51673e-09
1.01988e-08
1.65239e-08
3.92785e-08
3.12813e-08
5.2047e-09
4.29852e-09
5.48381e-09
2.84166e-08
4.91866e-08
3.82164e-08
2.58759e-08
2.53669e-08
2.45984e-08
3.9384e-08
7.12366e-08
8.18966e-08
8.37773e-08
6.92197e-08
2.73806e-08
5.51546e-08
1.38216e-07
1.7052e-07
1.1621e-07
5.63552e-08
4.82979e-08
5.99842e-08
4.83555e-08
2.00235e-08
1.2851e-08
2.23131e-08
2.4836e-08
7.71447e-09
9.62578e-09
2.45291e-08
9.18905e-09
8.72417e-09
6.46093e-09
6.68537e-09
9.91023e-09
7.88615e-09
8.74579e-09
1.59803e-08
3.29143e-08
2.74558e-08
6.43052e-09
3.28875e-09
5.31943e-09
2.0548e-08
3.47431e-08
2.89087e-08
2.34734e-08
2.35333e-08
2.26881e-08
3.27454e-08
5.58306e-08
6.48064e-08
6.40755e-08
5.02944e-08
2.21104e-08
4.59232e-08
1.1062e-07
1.35094e-07
9.81117e-08
5.42615e-08
4.88231e-08
5.50404e-08
4.43258e-08
2.15687e-08
1.37752e-08
1.96595e-08
1.85242e-08
5.56226e-09
5.97333e-09
1.71095e-08
6.44179e-09
5.01306e-09
4.13912e-09
4.78833e-09
7.7351e-09
6.84196e-09
7.94484e-09
1.51709e-08
2.80192e-08
2.44852e-08
8.05064e-09
3.69084e-09
5.30332e-09
1.52586e-08
2.47226e-08
2.25886e-08
2.05391e-08
2.12395e-08
2.07774e-08
2.75829e-08
4.39689e-08
5.13089e-08
4.90139e-08
3.68825e-08
1.81163e-08
3.75157e-08
8.66e-08
1.06051e-07
8.19679e-08
5.14133e-08
4.73976e-08
5.02461e-08
4.09515e-08
2.27347e-08
1.46731e-08
1.70782e-08
1.39547e-08
4.11676e-09
3.69501e-09
1.14577e-08
4.47577e-09
2.85009e-09
2.68719e-09
3.46279e-09
5.95747e-09
6.04166e-09
7.38091e-09
1.40717e-08
2.39565e-08
2.18491e-08
9.42522e-09
4.57761e-09
5.34575e-09
1.1714e-08
1.79533e-08
1.80391e-08
1.76744e-08
1.88009e-08
1.87824e-08
2.34383e-08
3.48745e-08
4.05314e-08
3.74414e-08
2.73976e-08
1.50819e-08
3.02504e-08
6.64899e-08
8.23716e-08
6.78799e-08
4.76348e-08
4.45811e-08
4.55146e-08
3.77942e-08
2.33176e-08
1.52199e-08
1.47292e-08
1.06703e-08
3.15217e-09
2.23994e-09
7.39984e-09
3.06255e-09
1.60601e-09
1.77197e-09
2.51672e-09
4.534e-09
5.31796e-09
6.84618e-09
1.27468e-08
2.03799e-08
1.92848e-08
1.01993e-08
5.43836e-09
5.39144e-09
9.33283e-09
1.34518e-08
1.46212e-08
1.50511e-08
1.62316e-08
1.66331e-08
1.99877e-08
2.78577e-08
3.19603e-08
2.87346e-08
2.07132e-08
1.27661e-08
2.42023e-08
5.02807e-08
6.32791e-08
5.56064e-08
4.30277e-08
4.08109e-08
4.07877e-08
3.45731e-08
2.30506e-08
1.52548e-08
1.269e-08
8.33106e-09
2.52096e-09
1.31245e-09
4.62704e-09
2.05536e-09
8.84795e-10
1.18536e-09
1.83678e-09
3.4074e-09
4.59571e-09
6.26026e-09
1.12389e-08
1.71244e-08
1.67156e-08
1.02984e-08
6.02931e-09
5.40056e-09
7.72606e-09
1.04672e-08
1.19848e-08
1.27577e-08
1.38353e-08
1.45144e-08
1.70332e-08
2.23733e-08
2.51437e-08
2.21927e-08
1.59981e-08
1.0997e-08
1.92964e-08
3.75904e-08
4.80897e-08
4.5005e-08
3.7858e-08
3.64452e-08
3.6048e-08
3.1164e-08
2.20373e-08
1.47672e-08
1.096e-08
6.70514e-09
2.12399e-09
7.49462e-10
2.8373e-09
1.36081e-09
4.58633e-10
8.01768e-10
1.34477e-09
2.52987e-09
3.86972e-09
5.58787e-09
9.65383e-09
1.41472e-08
1.41728e-08
9.81326e-09
6.28353e-09
5.34486e-09
6.62757e-09
8.46237e-09
9.93177e-09
1.07924e-08
1.17427e-08
1.25369e-08
1.44681e-08
1.80333e-08
1.97588e-08
1.72829e-08
1.26684e-08
9.56848e-09
1.53791e-08
2.78977e-08
3.61861e-08
3.59341e-08
3.24455e-08
3.17727e-08
3.13216e-08
2.75549e-08
2.03819e-08
1.38336e-08
9.49946e-09
5.5768e-09
1.89052e-09
4.49634e-10
1.76148e-09
9.20954e-10
2.0498e-10
5.49784e-10
9.97525e-10
1.86201e-09
3.17356e-09
4.82222e-09
8.08643e-09
1.14552e-08
1.17322e-08
8.90635e-09
6.19241e-09
5.20229e-09
5.84711e-09
7.08326e-09
8.32881e-09
9.14902e-09
9.96118e-09
1.07596e-08
1.22416e-08
1.45748e-08
1.55501e-08
1.35939e-08
1.0268e-08
8.35967e-09
1.22766e-08
2.06316e-08
2.69926e-08
2.82641e-08
2.70895e-08
2.70248e-08
2.66722e-08
2.38148e-08
1.82422e-08
1.25694e-08
8.24726e-09
4.79279e-09
1.76824e-09
3.39444e-10
1.1745e-09
6.98225e-10
6.50851e-11
3.90863e-10
7.57868e-10
1.36765e-09
2.54526e-09
4.05055e-09
6.59094e-09
9.06899e-09
9.47475e-09
7.75977e-09
5.83522e-09
4.97187e-09
5.26355e-09
6.09701e-09
7.07642e-09
7.79635e-09
8.48122e-09
9.21191e-09
1.0331e-08
1.18194e-08
1.22978e-08
1.08183e-08
8.48955e-09
7.29792e-09
9.82522e-09
1.52587e-08
1.99805e-08
2.18693e-08
2.2029e-08
2.23942e-08
2.21897e-08
2.00614e-08
1.58043e-08
1.10959e-08
7.15214e-09
4.2324e-09
1.71664e-09
3.58343e-10
9.34418e-10
6.46642e-10
1.32117e-11
3.03742e-10
6.03061e-10
1.01411e-09
2.00722e-09
3.29465e-09
5.21388e-09
7.00661e-09
7.46416e-09
6.5298e-09
5.29467e-09
4.65652e-09
4.78843e-09
5.35845e-09
6.09817e-09
6.70146e-09
7.27373e-09
7.89976e-09
8.7225e-09
9.64063e-09
9.81459e-09
8.72612e-09
7.12435e-09
6.34551e-09
7.8827e-09
1.13107e-08
1.46848e-08
1.6624e-08
1.74335e-08
1.80411e-08
1.79773e-08
1.64306e-08
1.32545e-08
9.52199e-09
6.16668e-09
3.80341e-09
1.70306e-09
4.54811e-10
9.0805e-10
6.86333e-10
3.93084e-11
2.87583e-10
5.20377e-10
7.74401e-10
1.56538e-09
2.59209e-09
3.99615e-09
5.27654e-09
5.7408e-09
5.33871e-09
4.65751e-09
4.27698e-09
4.36994e-09
4.77887e-09
5.33269e-09
5.82728e-09
6.30164e-09
6.81251e-09
7.39827e-09
7.9386e-09
7.9393e-09
7.14431e-09
6.04099e-09
5.48525e-09
6.33633e-09
8.40994e-09
1.07152e-08
1.23966e-08
1.34073e-08
1.40935e-08
1.41356e-08
1.30507e-08
1.07561e-08
7.94072e-09
5.25812e-09
3.44023e-09
1.70228e-09
5.90602e-10
1.00434e-09
8.19145e-10
1.39527e-10
3.48439e-10
5.16054e-10
6.31474e-10
1.22158e-09
1.98113e-09
2.97197e-09
3.87862e-09
4.32485e-09
4.26757e-09
4.00118e-09
3.86214e-09
3.98427e-09
4.30668e-09
4.73189e-09
5.13708e-09
5.52836e-09
5.93078e-09
6.33345e-09
6.62837e-09
6.53549e-09
5.94358e-09
5.1606e-09
4.71415e-09
5.10022e-09
6.27311e-09
7.75687e-09
9.05243e-09
9.99839e-09
1.06433e-08
1.07482e-08
1.00255e-08
8.43887e-09
6.43044e-09
4.41137e-09
3.10248e-09
1.69545e-09
7.38129e-10
1.17509e-09
1.04722e-09
3.12352e-10
4.86993e-10
5.98634e-10
5.83819e-10
9.86235e-10
1.50037e-09
2.17152e-09
2.81024e-09
3.22261e-09
3.37381e-09
3.39311e-09
3.44974e-09
3.62767e-09
3.91257e-09
4.25747e-09
4.59594e-09
4.91999e-09
5.23055e-09
5.49729e-09
5.63522e-09
5.49205e-09
5.02935e-09
4.4385e-09
4.03669e-09
4.11412e-09
4.69317e-09
5.56704e-09
6.46136e-09
7.21189e-09
7.7442e-09
7.87581e-09
7.4296e-09
6.39405e-09
5.0553e-09
3.63127e-09
2.77278e-09
1.67103e-09
8.80654e-10
1.39554e-09
1.35695e-09
5.65729e-10
7.14346e-10
7.79542e-10
6.45229e-10
8.83738e-10
1.19145e-09
1.62431e-09
2.07257e-09
2.44123e-09
2.70143e-09
2.89267e-09
3.08155e-09
3.30958e-09
3.58029e-09
3.87791e-09
4.17083e-09
4.44529e-09
4.68622e-09
4.85721e-09
4.89584e-09
4.72325e-09
4.3352e-09
3.85145e-09