/*--------------------------------*- C++ -*----------------------------------*\
  =========                 |
  \\      /  F ield         | OpenFOAM: The Open Source CFD Toolbox
   \\    /   O peration     | Website:  https://openfoam.org
    \\  /    A nd           | Version:  10
     \\/     M anipulation  |
\*---------------------------------------------------------------------------*/
FoamFile
{
    format      ascii;
    class       volVectorField;
    location    "7";
    object      UMean;
}
// * * * * * * * * * * * * * * * * * * * * * * * * * * * * * * * * * * * * * //

dimensions      [0 1 -1 0 0 0 0];

internalField   nonuniform List<vector> 
25600
(
(0.112066 2.70183e-05 -0.000659468)
(0.110277 6.54761e-05 -0.000703485)
(0.111524 3.62846e-05 -0.00137964)
(0.109769 1.4655e-05 -0.00173824)
(0.112026 3.67549e-05 -0.00142286)
(0.111077 5.16947e-05 -0.00122192)
(0.111634 4.01514e-05 5.60182e-05)
(0.109163 2.34541e-05 0.000703783)
(0.110274 -3.4152e-07 0.000518849)
(0.109134 -4.8749e-06 -0.000508608)
(0.110535 1.27575e-05 -0.000356406)
(0.109173 3.07556e-05 0.000530498)
(0.111281 1.3887e-05 0.000658293)
(0.110391 1.17492e-05 -0.00034384)
(0.112047 3.6544e-05 -0.000983419)
(0.111267 9.07619e-05 -0.000326732)
(0.112695 8.12138e-05 -0.000338128)
(0.111788 1.9064e-05 -0.000508694)
(0.114002 -2.14579e-05 -3.94065e-05)
(0.113445 -2.75138e-05 -0.000112942)
(0.114135 4.94751e-06 0.000656559)
(0.113414 4.94296e-05 0.00085572)
(0.111376 6.27264e-05 0.000934452)
(0.112536 1.01188e-05 0.000452433)
(0.11222 -4.33769e-06 0.00011141)
(0.113378 1.48485e-05 0.000429954)
(0.113856 3.67095e-05 0.00128338)
(0.113202 3.37345e-05 0.00141158)
(0.112359 1.06074e-06 -3.93505e-05)
(0.112227 -6.41899e-08 -0.000901574)
(0.110717 3.69236e-05 -0.000214505)
(0.1102 3.00182e-05 0.000234772)
(0.110818 -1.16659e-05 0.00112591)
(0.109695 -8.38672e-06 0.00043491)
(0.110598 1.69464e-05 -0.000155326)
(0.10896 4.18487e-05 -0.000771257)
(0.109372 8.65456e-06 -0.000569997)
(0.1084 -2.22117e-05 -0.000571553)
(0.110542 -3.37686e-05 -0.000531536)
(0.110481 -1.58813e-05 -0.000533596)
(0.325437 0.000247283 -0.00167508)
(0.320758 0.000500241 -0.00176558)
(0.325868 0.000420831 -0.00214177)
(0.319825 0.000279439 -0.00290035)
(0.326877 0.000195974 -0.00280875)
(0.324926 0.00040939 -0.00340636)
(0.326452 0.000499498 -0.0010237)
(0.318534 0.00053681 0.000515962)
(0.32114 0.000377516 0.00104345)
(0.317839 0.00022015 -0.000977084)
(0.321501 0.000239564 -0.00114701)
(0.317722 0.000324503 0.000239496)
(0.323967 0.000299893 0.00111462)
(0.32119 0.000275233 -3.76231e-05)
(0.326158 0.000249685 -0.0016705)
(0.323934 0.000525287 -0.00137367)
(0.329863 0.000502038 -0.00134998)
(0.326737 0.000309348 -0.00159071)
(0.332832 4.07756e-05 0.000372348)
(0.329898 -6.29876e-05 1.48962e-05)
(0.331314 9.96256e-05 0.000813554)
(0.329766 0.000474336 0.000662469)
(0.32458 0.000480899 0.00117591)
(0.329383 0.000268222 -5.55833e-05)
(0.327201 5.90756e-05 -0.00028053)
(0.330056 5.67369e-05 -0.000216938)
(0.33188 0.0002559 0.000793755)
(0.330446 0.000248286 0.00210398)
(0.32833 8.76029e-05 0.000331323)
(0.3274 7.40435e-05 -0.0016037)
(0.323004 0.000150757 -7.63975e-06)
(0.321933 0.000192933 0.000919326)
(0.322766 0.00010965 0.00374187)
(0.31867 0.000111331 0.00224389)
(0.32132 0.000129511 0.000790265)
(0.317202 0.000293148 -0.00111494)
(0.319484 0.000294382 -0.000443477)
(0.315625 0.000152185 -0.000982558)
(0.321839 -2.0625e-07 -0.000944644)
(0.320143 6.9607e-05 -0.000867702)
(0.520222 0.000718261 -0.00261035)
(0.514 0.00121594 -0.00330098)
(0.523526 0.00115636 -0.00251223)
(0.513832 0.00093556 -0.00340347)
(0.52456 0.000587515 -0.00315185)
(0.520921 0.00102013 -0.00513252)
(0.526655 0.00133379 -0.00290743)
(0.513556 0.00169769 -0.00191915)
(0.517409 0.00137623 -0.000496233)
(0.510757 0.00100944 -0.00246461)
(0.517015 0.000853032 -0.00241619)
(0.511735 0.000929684 -0.00122771)
(0.520428 0.000937279 -0.000634595)
(0.51561 0.00105972 -0.0014004)
(0.522255 0.000817069 -0.0028023)
(0.51942 0.00121655 -0.00306063)
(0.529069 0.00124781 -0.00325867)
(0.524587 0.000922795 -0.00409008)
(0.535375 0.000557015 -0.00126492)
(0.526481 0.000407004 -0.001394)
(0.528409 0.000407406 -0.000398493)
(0.528479 0.0011379 -0.00119216)
(0.523255 0.00113112 -0.000476433)
(0.529567 0.000842621 -0.00286425)
(0.525819 0.000610847 -0.00231015)
(0.526681 0.000266708 -0.00257253)
(0.532685 0.000474696 -0.00202196)
(0.533065 0.000668984 -0.000808902)
(0.526352 0.00045129 -0.000549455)
(0.52685 0.000458989 -0.0029028)
(0.518842 0.000455291 -0.000507745)
(0.516513 0.000487707 0.000334856)
(0.517341 0.000527925 0.0049869)
(0.510968 0.000578193 0.00287874)
(0.515166 0.000535841 0.00159537)
(0.508077 0.000775199 -0.00140271)
(0.513683 0.000809105 0.00028736)
(0.509703 0.000708514 -0.00155588)
(0.517328 0.000506318 -0.0018498)
(0.511768 0.000671276 -0.00181383)
(0.6768 0.00183352 -0.00373439)
(0.671346 0.00216284 -0.00478562)
(0.68445 0.00212587 -0.00244951)
(0.673894 0.0021389 -0.00311182)
(0.6858 0.00157854 -0.00254165)
(0.68345 0.00206205 -0.0053863)
(0.691844 0.00247713 -0.00407217)
(0.679653 0.00321437 -0.00489719)
(0.684337 0.00300548 -0.00300871)
(0.673232 0.00268009 -0.00565561)
(0.681686 0.00228779 -0.00530214)
(0.671705 0.00203242 -0.00399253)
(0.684376 0.00183438 -0.00415223)
(0.677953 0.00224669 -0.00526946)
(0.684853 0.00196392 -0.00527299)
(0.676223 0.00238684 -0.00650512)
(0.691123 0.00237854 -0.00545828)
(0.687084 0.00199902 -0.00742481)
(0.699938 0.00177442 -0.00528801)
(0.686508 0.00184877 -0.00651141)
(0.687578 0.00149946 -0.00393947)
(0.685633 0.00228959 -0.00506179)
(0.683409 0.00219282 -0.00343572)
(0.68938 0.00184054 -0.00735345)
(0.68897 0.00177901 -0.00710304)
(0.687444 0.00129778 -0.00786735)
(0.691072 0.00119692 -0.00761212)
(0.69665 0.00154034 -0.00795473)
(0.688686 0.00141773 -0.00478499)
(0.689431 0.00147907 -0.00713099)
(0.682217 0.00155483 -0.00390653)
(0.675835 0.00137482 -0.00285633)
(0.678642 0.001554 0.00324956)
(0.671224 0.00167675 0.00123912)
(0.676456 0.00175699 0.000671501)
(0.668491 0.00202972 -0.00251514)
(0.675003 0.00197862 -0.000192551)
(0.667563 0.00207446 -0.00312676)
(0.675019 0.00200959 -0.00337771)
(0.667488 0.00237727 -0.00440805)
(0.790133 0.00463669 -0.00311865)
(0.777588 0.0041843 -0.00435069)
(0.79327 0.00381898 -0.000500164)
(0.784701 0.00402456 -0.00154834)
(0.801488 0.00326864 -0.000560753)
(0.797044 0.0039085 -0.0036065)
(0.811784 0.00413244 -0.00229013)
(0.803768 0.00506436 -0.00490367)
(0.809064 0.00515813 -0.00323984)
(0.800658 0.00520082 -0.00747555)
(0.806557 0.00466956 -0.00762938)
(0.796633 0.00423813 -0.00627352)
(0.800911 0.00357574 -0.00665585)
(0.798172 0.00415833 -0.00869277)
(0.80163 0.0039941 -0.00819394)
(0.79357 0.00454386 -0.00984252)
(0.801415 0.00434989 -0.00720278)
(0.803475 0.00398913 -0.0089049)
(0.812375 0.00413428 -0.00906794)
(0.802896 0.00485016 -0.0122476)
(0.799091 0.00405729 -0.00892568)
(0.794099 0.00469708 -0.0082696)
(0.795469 0.00440245 -0.0062865)
(0.794931 0.00409968 -0.00939427)
(0.79923 0.00408225 -0.0107894)
(0.794022 0.00376801 -0.0124239)
(0.800853 0.003352 -0.012644)
(0.801695 0.00345686 -0.0147257)
(0.803764 0.0034304 -0.0109566)
(0.799008 0.0036251 -0.0131029)
(0.799037 0.00383284 -0.00949792)
(0.789482 0.00357963 -0.008662)
(0.793278 0.00384881 -0.00242679)
(0.783563 0.00390026 -0.00302173)
(0.793091 0.00406389 -0.00148769)
(0.785188 0.00445875 -0.0040165)
(0.791966 0.00457972 -0.000870658)
(0.784127 0.00476316 -0.00295373)
(0.794408 0.00467529 -0.00342256)
(0.783075 0.00557676 -0.00549557)
(0.862538 0.00822644 -0.00124842)
(0.847344 0.00742006 -0.00195207)
(0.858071 0.0063727 0.0012052)
(0.85559 0.00663615 0.000658875)
(0.862097 0.00571555 0.00306311)
(0.863869 0.00619201 0.00101961)
(0.877157 0.00601012 0.0035415)
(0.880442 0.00694176 0.000668217)
(0.884888 0.00723788 0.0021198)
(0.885362 0.00786698 -0.0022694)
(0.886074 0.0077904 -0.0044508)
(0.882997 0.00737886 -0.0036046)
(0.8759 0.0065089 -0.00383013)
(0.877777 0.00703485 -0.0073804)
(0.875453 0.00720755 -0.00669004)
(0.869054 0.00753552 -0.00774628)
(0.871706 0.00721072 -0.00466308)
(0.871576 0.00689544 -0.00454017)
(0.870749 0.00736992 -0.00592718)
(0.87413 0.00853668 -0.0106231)
(0.865153 0.00796517 -0.00900339)
(0.858429 0.007758 -0.00724734)
(0.862047 0.00743803 -0.00471483)
(0.858896 0.00696545 -0.00605965)
(0.867697 0.00717595 -0.00815084)
(0.859966 0.00700372 -0.0101756)
(0.869096 0.00641293 -0.00961113)
(0.866558 0.00634758 -0.0131623)
(0.872917 0.00617227 -0.0110361)
(0.867467 0.00649034 -0.0138304)
(0.869696 0.00682036 -0.0107277)
(0.860793 0.00655021 -0.0113158)
(0.86387 0.00719855 -0.00651324)
(0.855542 0.00692325 -0.00680374)
(0.865104 0.00702865 -0.00279938)
(0.856644 0.00737707 -0.00358164)
(0.864524 0.00747111 0.000764763)
(0.858663 0.007709 0.000130729)
(0.864748 0.00779837 0.000333071)
(0.855253 0.0089822 -0.00317813)
(0.907662 0.0108802 0.00409514)
(0.898622 0.00990338 0.00258153)
(0.906411 0.00863028 0.0047252)
(0.901756 0.00870484 0.00223676)
(0.910978 0.00785408 0.00648703)
(0.904576 0.00790212 0.0052511)
(0.916762 0.00746837 0.00994704)
(0.919174 0.00799602 0.00911408)
(0.925037 0.00864589 0.0111735)
(0.922254 0.00954004 0.00953777)
(0.929687 0.0100271 0.00618105)
(0.92618 0.00989985 0.00668068)
(0.920108 0.00895953 0.00687175)
(0.914771 0.00936414 0.00400379)
(0.919078 0.0100766 0.00398761)
(0.909335 0.00989237 0.00334405)
(0.915261 0.00954326 0.00605418)
(0.907499 0.00930231 0.00793863)
(0.909704 0.00990667 0.00781193)
(0.907524 0.0108689 0.00352105)
(0.91008 0.0112618 0.00289747)
(0.897493 0.0103945 0.00369896)
(0.904156 0.0097125 0.0056298)
(0.900667 0.00890799 0.00578763)
(0.90909 0.00927535 0.00430939)
(0.904992 0.00940718 0.00207833)
(0.91414 0.00876064 0.00433756)
(0.912331 0.0086573 0.0015744)
(0.920339 0.00867008 0.00128583)
(0.911346 0.00891595 -0.001447)
(0.919028 0.00955427 -0.00115228)
(0.906309 0.00901047 -0.00141074)
(0.916393 0.00993794 -0.000504968)
(0.901778 0.00987508 -0.000897904)
(0.909194 0.00985763 0.00278303)
(0.900732 0.0098639 0.00303405)
(0.905026 0.00966437 0.00602264)
(0.901281 0.00984383 0.00669777)
(0.904892 0.0103323 0.00746779)
(0.902582 0.0114137 0.00359596)
(0.937935 0.0120496 0.0146974)
(0.939696 0.0109281 0.0131657)
(0.940143 0.0102284 0.0132731)
(0.943921 0.0100453 0.0103141)
(0.942422 0.00919487 0.0125698)
(0.945369 0.00878309 0.0133106)
(0.945774 0.00811888 0.0149134)
(0.951434 0.00853941 0.0166961)
(0.947799 0.00925421 0.0184638)
(0.954503 0.00967469 0.0204956)
(0.950089 0.0105889 0.0167528)
(0.955006 0.0108358 0.0178446)
(0.947267 0.0099241 0.0188674)
(0.94422 0.00969387 0.019807)
(0.944997 0.0105929 0.0219644)
(0.944574 0.0101349 0.0235719)
(0.945853 0.0099863 0.0255711)
(0.942932 0.00977296 0.025528)
(0.939165 0.0101473 0.0258196)
(0.940524 0.0106077 0.0234252)
(0.94094 0.0115051 0.0211384)
(0.937152 0.0107853 0.0210561)
(0.936055 0.00994333 0.0212871)
(0.931994 0.00900577 0.0209884)
(0.936709 0.00927854 0.0200122)
(0.934437 0.0095081 0.0182381)
(0.942273 0.00910943 0.0195732)
(0.937992 0.00875769 0.0181711)
(0.945836 0.00927113 0.0176929)
(0.940431 0.00926422 0.0152014)
(0.947825 0.010329 0.0147023)
(0.939739 0.00963441 0.0141115)
(0.945969 0.0101738 0.013387)
(0.936998 0.0105792 0.0116503)
(0.93949 0.0105231 0.0142678)
(0.936927 0.0103688 0.0148272)
(0.9367 0.0102436 0.0156091)
(0.936047 0.0104999 0.0155014)
(0.932332 0.0110233 0.0162098)
(0.936433 0.0120033 0.014675)
(0.970869 0.00998508 0.0249102)
(0.975262 0.00924587 0.024535)
(0.973743 0.00896898 0.0253607)
(0.978449 0.00885582 0.0232725)
(0.976898 0.00840847 0.0234948)
(0.976153 0.00787139 0.0226457)
(0.97585 0.00709496 0.020854)
(0.981436 0.00773318 0.0212683)
(0.978941 0.00830356 0.0232259)
(0.983411 0.00804163 0.0259857)
(0.978135 0.00902284 0.0238955)
(0.981907 0.00898703 0.0250042)
(0.981059 0.00840823 0.0266366)
(0.975093 0.00784356 0.0283597)
(0.978268 0.00833191 0.0335596)
(0.978599 0.00771129 0.0361147)
(0.98058 0.00776219 0.0380329)
(0.979012 0.00786151 0.0351929)
(0.979427 0.00817932 0.0353596)
(0.980709 0.00808181 0.0342812)
(0.983827 0.00859777 0.0335232)
(0.982471 0.00843011 0.0328571)
(0.981237 0.0078557 0.0329241)
(0.978965 0.00682732 0.0315674)
(0.981045 0.00691343 0.0314934)
(0.975741 0.00707677 0.0304246)
(0.978786 0.0069358 0.0317001)
(0.976873 0.00675858 0.0298481)
(0.980056 0.00724194 0.0294741)
(0.97619 0.00710495 0.0277657)
(0.977269 0.00801014 0.0276237)
(0.976352 0.00753917 0.0267881)
(0.975381 0.0081763 0.026261)
(0.971932 0.00883705 0.0226068)
(0.971488 0.00869248 0.0234724)
(0.973543 0.00855773 0.0232545)
(0.970851 0.00836722 0.0234631)
(0.968377 0.00884715 0.021615)
(0.964599 0.00915761 0.0219145)
(0.96308 0.00993963 0.0224593)
(1.00012 0.00551661 0.0234752)
(1.00869 0.00478433 0.0267038)
(1.00618 0.00496304 0.0279405)
(1.01059 0.00476698 0.0289223)
(1.00743 0.00485484 0.0281039)
(1.00359 0.00459547 0.0272843)
(1.00342 0.00366697 0.0247053)
(1.00468 0.00410324 0.0234434)
(1.00915 0.00476532 0.0248104)
(1.00992 0.0044055 0.0272893)
(1.00957 0.00520862 0.0257797)
(1.01084 0.00442617 0.0259509)
(1.01936 0.00425124 0.0284253)
(1.01065 0.00445876 0.0297352)
(1.01682 0.0049038 0.0311225)
(1.01421 0.00443997 0.031779)
(1.01513 0.00452178 0.0319185)
(1.0103 0.00450032 0.0293915)
(1.01612 0.00477366 0.0280894)
(1.01622 0.00493164 0.0284877)
(1.01917 0.00513593 0.0289822)
(1.01589 0.00523945 0.0300251)
(1.01989 0.004521 0.0300694)
(1.0183 0.00365226 0.030066)
(1.02214 0.00358332 0.0301236)
(1.01651 0.00366377 0.0304913)
(1.01694 0.00321102 0.0329762)
(1.01478 0.00298078 0.0328085)
(1.0167 0.00328916 0.0310664)
(1.01388 0.00336621 0.0303237)
(1.01277 0.00363269 0.0296295)
(1.01357 0.00314228 0.0294754)
(1.00878 0.00393595 0.0282326)
(1.00978 0.0052591 0.0250475)
(1.0061 0.00511492 0.0220487)
(1.01048 0.00486457 0.0221993)
(1.004 0.00484532 0.0210395)
(1.0021 0.00535017 0.0213863)
(0.999204 0.00568601 0.018677)
(0.994416 0.00618146 0.020234)
(1.02949 0.00031391 0.0192407)
(1.03513 -0.000526151 0.0212671)
(1.03144 -1.8908e-05 0.0216038)
(1.03591 -0.000279918 0.0211014)
(1.03576 0.000389616 0.0206607)
(1.02994 0.000456567 0.0218342)
(1.02748 -0.000233701 0.0214792)
(1.02327 -1.35078e-05 0.0213622)
(1.02979 0.000459213 0.0220221)
(1.02902 0.000538799 0.0247949)
(1.03076 0.0013481 0.0234943)
(1.03141 0.000264229 0.0223689)
(1.04307 -0.000135838 0.0244265)
(1.03808 3.58474e-05 0.0251935)
(1.04266 -6.30145e-05 0.0240993)
(1.0396 -0.000426121 0.0226926)
(1.0387 -0.000449672 0.02295)
(1.03532 -0.000819439 0.0220558)
(1.03595 -0.00117824 0.0201485)
(1.03879 -0.00042624 0.0201481)
(1.03971 0.00047095 0.0207692)
(1.03591 0.00070404 0.0226133)
(1.04065 0.000197791 0.0225143)
(1.04127 -4.74714e-05 0.0230564)
(1.04524 6.54819e-05 0.023942)
(1.04351 0.000370236 0.025653)
(1.04288 -0.00011249 0.028205)
(1.04464 -0.000749741 0.0298067)
(1.04637 -0.0006192 0.0280033)
(1.04766 -0.000670401 0.027386)
(1.04432 -0.000606905 0.0254253)
(1.04741 -0.000929259 0.0250881)
(1.03974 -0.000219409 0.0237609)
(1.0413 0.000741811 0.0215447)
(1.03785 0.000598818 0.017731)
(1.04193 9.4459e-05 0.0178719)
(1.03705 0.000507379 0.0164018)
(1.03565 0.000891534 0.0178938)
(1.03522 0.00141241 0.0157658)
(1.02797 0.0014584 0.016542)
(1.04759 -0.00345804 0.0151516)
(1.05101 -0.00397026 0.015662)
(1.04778 -0.00370866 0.0153534)
(1.04981 -0.00440311 0.0139359)
(1.0491 -0.00346278 0.0137134)
(1.04687 -0.0030264 0.0155449)
(1.04493 -0.00308923 0.0164653)
(1.04071 -0.00305172 0.0172949)
(1.04442 -0.00323218 0.0172576)
(1.04501 -0.00323732 0.0197282)
(1.04533 -0.00255182 0.0195079)
(1.04707 -0.00372201 0.0188156)
(1.05444 -0.00402159 0.018299)
(1.05382 -0.00388639 0.0171667)
(1.05525 -0.00441139 0.01571)
(1.05349 -0.00446783 0.0151783)
(1.05234 -0.00455842 0.0160475)
(1.05198 -0.00507938 0.0158222)
(1.04991 -0.00548096 0.0142409)
(1.05199 -0.00491308 0.0140259)
(1.05202 -0.00378591 0.0138835)
(1.05013 -0.00346534 0.015369)
(1.05237 -0.00387318 0.0153749)
(1.05432 -0.00410028 0.0155351)
(1.05724 -0.00396792 0.0161554)
(1.05808 -0.00343069 0.0176817)
(1.05768 -0.0036655 0.019162)
(1.05869 -0.00467542 0.0199781)
(1.06108 -0.00490282 0.0191661)
(1.06284 -0.00474985 0.0187953)
(1.05831 -0.00495548 0.0173512)
(1.06163 -0.00528195 0.0169637)
(1.05568 -0.00445801 0.0170138)
(1.055 -0.00382752 0.016501)
(1.05211 -0.00383804 0.0148643)
(1.05399 -0.00404965 0.014534)
(1.04953 -0.00340438 0.0133329)
(1.04805 -0.0031146 0.0141485)
(1.04964 -0.0022967 0.013794)
(1.04636 -0.00222481 0.0138364)
(1.0525 -0.00746042 0.00858285)
(1.05323 -0.00779568 0.00873769)
(1.05175 -0.00730209 0.00881067)
(1.05192 -0.00780663 0.00776291)
(1.05031 -0.00680482 0.00773898)
(1.05047 -0.0068812 0.00888007)
(1.05024 -0.00662144 0.00991707)
(1.04869 -0.00661775 0.010098)
(1.05108 -0.00712274 0.00920148)
(1.05254 -0.00711745 0.0103449)
(1.05281 -0.00662254 0.0101909)
(1.05446 -0.00804895 0.00937661)
(1.05698 -0.00788263 0.00815481)
(1.05637 -0.00708513 0.0072528)
(1.05682 -0.00736748 0.00660485)
(1.05586 -0.00726026 0.00660216)
(1.05623 -0.00743619 0.00718902)
(1.05726 -0.00770832 0.00676928)
(1.05659 -0.00778016 0.00598487)
(1.05808 -0.00746106 0.00625295)
(1.0577 -0.00650832 0.00594586)
(1.05707 -0.00618333 0.00686057)
(1.0576 -0.00684149 0.00707811)
(1.05836 -0.0072095 0.00692952)
(1.05959 -0.00717252 0.00681341)
(1.06033 -0.00651774 0.00760879)
(1.05989 -0.00619016 0.00843932)
(1.05928 -0.00720151 0.00886447)
(1.0604 -0.0077725 0.00866527)
(1.06082 -0.00737652 0.00873688)
(1.05837 -0.00778335 0.00858988)
(1.05897 -0.00820856 0.00844045)
(1.05576 -0.00747119 0.00938654)
(1.05561 -0.00721914 0.00984882)
(1.05444 -0.00728917 0.00969614)
(1.05453 -0.00747956 0.00930412)
(1.05141 -0.00691852 0.00852973)
(1.05005 -0.00713824 0.00878936)
(1.05135 -0.00630991 0.00873782)
(1.05071 -0.00631996 0.00786287)
(1.04941 -0.00887493 -0.000105879)
(1.04737 -0.00901991 -0.000204957)
(1.0461 -0.00849193 -0.00013012)
(1.04519 -0.00869681 -0.0006825)
(1.04506 -0.00788417 -0.000656974)
(1.04617 -0.0084001 0.00010048)
(1.04666 -0.00844776 0.000769553)
(1.0463 -0.00830611 0.00035037)
(1.04773 -0.00857243 -0.000483721)
(1.0484 -0.0082157 0.000282913)
(1.04883 -0.00780062 0.000102292)
(1.04973 -0.00895589 -0.000681243)
(1.04883 -0.00859154 -0.0010254)
(1.04827 -0.00759958 -0.00105219)
(1.04878 -0.00802494 -0.00125881)
(1.04908 -0.00809805 -0.00125793)
(1.04993 -0.00847036 -0.000825862)
(1.05035 -0.00882025 -0.000913524)
(1.05053 -0.00926147 -0.00149067)
(1.05129 -0.00912015 -0.00171675)
(1.05086 -0.00825709 -0.0022557)
(1.05088 -0.00819451 -0.00188268)
(1.05078 -0.00889466 -0.00202387)
(1.05075 -0.00896682 -0.00234117)
(1.05073 -0.00882452 -0.00273218)
(1.05096 -0.00827561 -0.00221563)
(1.05081 -0.00753721 -0.00152177)
(1.0508 -0.00828923 -0.00128811)
(1.05152 -0.00868095 -0.00148049)
(1.05196 -0.00799156 -0.000987354)
(1.05217 -0.00832917 -0.00054229)
(1.05226 -0.00851504 -0.000698545)
(1.0514 -0.00776863 -2.29603e-05)
(1.0519 -0.00792548 0.000304953)
(1.05183 -0.00822845 0.000643158)
(1.0512 -0.00853326 0.000875873)
(1.04955 -0.00812341 0.000735527)
(1.04905 -0.00844646 0.00107709)
(1.0493 -0.00780469 0.00109458)
(1.04906 -0.00783661 -6.36757e-05)
(1.03623 -0.00737844 -0.00565371)
(1.03389 -0.00731359 -0.00561764)
(1.03311 -0.00686766 -0.0056381)
(1.03245 -0.00694328 -0.00583161)
(1.03293 -0.0063137 -0.00600722)
(1.03405 -0.00686021 -0.00557841)
(1.03402 -0.00709111 -0.00536719)
(1.03409 -0.00698497 -0.00590435)
(1.03455 -0.0072482 -0.00688645)
(1.03459 -0.00700805 -0.00649935)
(1.03452 -0.00673912 -0.00629496)
(1.03447 -0.00768023 -0.0067368)
(1.03289 -0.00747413 -0.00658619)
(1.03312 -0.0067485 -0.0065653)
(1.03375 -0.00713397 -0.00668569)
(1.03405 -0.00707009 -0.00682055)
(1.03459 -0.00722904 -0.00647031)
(1.03449 -0.00762878 -0.00625989)
(1.03481 -0.00804995 -0.0065564)
(1.03486 -0.00795244 -0.00680982)
(1.03475 -0.00716142 -0.00712507)
(1.03526 -0.00727276 -0.00681356)
(1.03477 -0.00785835 -0.00696867)
(1.03419 -0.00782792 -0.00726911)
(1.03402 -0.00763674 -0.00744456)
(1.03397 -0.00729403 -0.00695874)
(1.03422 -0.00672186 -0.00649904)
(1.03452 -0.00741775 -0.00633288)
(1.03474 -0.00768224 -0.0065062)
(1.03557 -0.00697664 -0.00601048)
(1.03681 -0.00723692 -0.00570979)
(1.0365 -0.00744924 -0.00592802)
(1.03663 -0.00680956 -0.00565304)
(1.03743 -0.00705988 -0.00550001)
(1.03787 -0.00728627 -0.00533462)
(1.03723 -0.0076246 -0.00497732)
(1.03666 -0.00716704 -0.00485873)
(1.03664 -0.00732295 -0.00480586)
(1.03671 -0.00668129 -0.00469687)
(1.03691 -0.00665705 -0.00533816)
(1.02507 -0.00525285 -0.00683249)
(1.02382 -0.00511471 -0.00653399)
(1.02364 -0.00495697 -0.00666084)
(1.0235 -0.0050901 -0.00676463)
(1.0239 -0.00470249 -0.00708627)
(1.02457 -0.00525499 -0.00696436)
(1.02402 -0.00549802 -0.00687629)
(1.0241 -0.00541355 -0.00723132)
(1.02432 -0.00562123 -0.00796596)
(1.0241 -0.00546997 -0.00772309)
(1.02411 -0.00512938 -0.00731088)
(1.02368 -0.00576183 -0.00753443)
(1.02271 -0.00565974 -0.00716478)
(1.02322 -0.00507325 -0.00732612)
(1.02342 -0.00528452 -0.00736631)
(1.02338 -0.00505235 -0.00744512)
(1.02361 -0.00517494 -0.00713004)
(1.02362 -0.0054211 -0.00669526)
(1.02383 -0.0057561 -0.00690586)
(1.02364 -0.00568817 -0.00693742)
(1.02352 -0.00508853 -0.0071665)
(1.02407 -0.00524633 -0.00686881)
(1.02372 -0.00577829 -0.00677133)
(1.02325 -0.00572412 -0.00682631)
(1.02322 -0.0055705 -0.00675401)
(1.02306 -0.005413 -0.00623765)
(1.02328 -0.00506959 -0.00610435)
(1.02353 -0.00549572 -0.00590404)
(1.02344 -0.00573222 -0.00598471)
(1.02389 -0.00516072 -0.00566277)
(1.02494 -0.00542987 -0.00586003)
(1.02462 -0.00565515 -0.00617206)
(1.02483 -0.00520345 -0.00624133)
(1.02551 -0.00532794 -0.006251)
(1.02572 -0.00536709 -0.00650455)
(1.02548 -0.0056005 -0.0063543)
(1.02535 -0.00519698 -0.00623485)
(1.02523 -0.00537294 -0.00651318)
(1.02539 -0.00479324 -0.0064309)
(1.02576 -0.00480405 -0.00674248)
(1.01993 -0.00287521 -0.00527257)
(1.01945 -0.00274972 -0.00491461)
(1.01942 -0.00281646 -0.00498787)
(1.01932 -0.00285639 -0.00502996)
(1.01949 -0.00262051 -0.00534699)
(1.01986 -0.00303601 -0.00527101)
(1.0192 -0.00322802 -0.00514585)
(1.01919 -0.00306538 -0.00525586)
(1.0193 -0.00315063 -0.00560161)
(1.0189 -0.00298263 -0.00536232)
(1.01907 -0.00268709 -0.00499886)
(1.01879 -0.00312684 -0.00511939)
(1.01827 -0.00315874 -0.00473461)
(1.01864 -0.00273172 -0.00500289)
(1.01869 -0.00294086 -0.00508573)
(1.01859 -0.00276062 -0.00515349)
(1.01879 -0.00292942 -0.00490444)
(1.01894 -0.00311454 -0.00441236)
(1.01905 -0.00338512 -0.00465061)
(1.01889 -0.00341856 -0.00457259)
(1.01874 -0.00292944 -0.00487102)
(1.01922 -0.00312922 -0.00465294)
(1.01918 -0.0035768 -0.00444603)
(1.01887 -0.003438 -0.00441008)
(1.01904 -0.00328564 -0.00430677)
(1.01901 -0.00324443 -0.00392307)
(1.01903 -0.00303159 -0.00396086)
(1.01927 -0.00334857 -0.00373026)
(1.01915 -0.00349582 -0.00375221)
(1.01927 -0.00305337 -0.00358479)
(1.01972 -0.00323839 -0.00399937)
(1.01945 -0.00336187 -0.00428468)
(1.01951 -0.00295696 -0.00449354)
(1.01998 -0.00300707 -0.00453574)
(1.01998 -0.00295542 -0.00488212)
(1.01991 -0.00313902 -0.00486002)
(1.02 -0.00288292 -0.004742)
(1.01977 -0.00301892 -0.00505109)
(1.01997 -0.00260977 -0.00499337)
(1.02027 -0.00254508 -0.00528347)
(1.01853 -0.00152091 -0.003152)
(1.01832 -0.00137211 -0.00293028)
(1.01836 -0.0014499 -0.00294752)
(1.01825 -0.00143779 -0.00296073)
(1.0183 -0.00125422 -0.00322987)
(1.01861 -0.00158759 -0.0031349)
(1.01815 -0.00174211 -0.00301136)
(1.01808 -0.00152791 -0.00296852)
(1.0182 -0.00159384 -0.00308471)
(1.01791 -0.00149207 -0.00286594)
(1.01815 -0.00130766 -0.0026165)
(1.0181 -0.00156572 -0.00271904)
(1.01777 -0.00164247 -0.00245592)
(1.01801 -0.00131225 -0.00266567)
(1.01809 -0.00151982 -0.00273061)
(1.01798 -0.00135852 -0.00278841)
(1.0182 -0.00149295 -0.00265764)
(1.01829 -0.00160227 -0.0022686)
(1.01831 -0.00175988 -0.00248838)
(1.01821 -0.00185112 -0.00234892)
(1.01807 -0.00147306 -0.00262738)
(1.01844 -0.00164509 -0.00248305)
(1.01844 -0.0019913 -0.00229301)
(1.01816 -0.00182771 -0.00225939)
(1.01836 -0.00170639 -0.00221206)
(1.01841 -0.00177182 -0.00193838)
(1.01836 -0.00162653 -0.00200859)
(1.0185 -0.00184496 -0.00182334)
(1.01837 -0.00194599 -0.00184253)
(1.01833 -0.00159773 -0.00174895)
(1.01859 -0.0016679 -0.00209596)
(1.01838 -0.00176274 -0.00229478)
(1.01829 -0.00140231 -0.00249743)
(1.01862 -0.00146 -0.00249248)
(1.01858 -0.00140733 -0.00274628)
(1.0186 -0.00157708 -0.00276988)
(1.01868 -0.00147837 -0.00268806)
(1.01847 -0.00160686 -0.0029444)
(1.01853 -0.00134748 -0.00290773)
(1.01866 -0.0012735 -0.00315723)
(1.01865 -0.000770163 -0.00162586)
(1.0185 -0.000569486 -0.00152186)
(1.01858 -0.000658068 -0.00153045)
(1.01846 -0.000628266 -0.00152456)
(1.0185 -0.000476693 -0.00172154)
(1.01881 -0.000723518 -0.00163411)
(1.01849 -0.000841088 -0.00157496)
(1.0184 -0.000631493 -0.00148351)
(1.0185 -0.00068739 -0.00151281)
(1.0183 -0.000592712 -0.00131322)
(1.01855 -0.000491524 -0.00115195)
(1.01856 -0.000619114 -0.00125035)
(1.0183 -0.000657305 -0.00107773)
(1.01848 -0.000398223 -0.00123304)
(1.01856 -0.000596011 -0.00125739)
(1.01846 -0.0004793 -0.0013153)
(1.01866 -0.000572511 -0.00128092)
(1.01869 -0.000671903 -0.00100599)
(1.01867 -0.000751202 -0.00119335)
(1.01861 -0.000891184 -0.00103399)
(1.0185 -0.000621771 -0.00124587)
(1.01879 -0.000753279 -0.00117248)
(1.01876 -0.00101893 -0.0010179)
(1.01849 -0.000886946 -0.000998397)
(1.01864 -0.000779808 -0.000976082)
(1.01869 -0.000891843 -0.000797362)
(1.01862 -0.000800479 -0.000829415)
(1.0187 -0.000911404 -0.000704092)
(1.01859 -0.00100945 -0.000708011)
(1.01852 -0.000729477 -0.000644487)
(1.01874 -0.000775061 -0.000874653)
(1.01858 -0.000854101 -0.000998968)
(1.01846 -0.000543034 -0.00115539)
(1.01872 -0.000600716 -0.00112135)
(1.01868 -0.00057769 -0.00126825)
(1.01875 -0.000699565 -0.00131429)
(1.01878 -0.000710125 -0.00125864)
(1.01863 -0.000800212 -0.00147731)
(1.01862 -0.000647077 -0.00142286)
(1.01866 -0.000558233 -0.00160239)
(1.01894 -0.000506181 -0.000842272)
(1.01881 -0.000296044 -0.00079915)
(1.01889 -0.000385188 -0.000808615)
(1.01879 -0.000340485 -0.000782286)
(1.01881 -0.00020108 -0.000926429)
(1.01909 -0.000401092 -0.000832219)
(1.01884 -0.000506736 -0.000823688)
(1.01875 -0.000335914 -0.000724072)
(1.01883 -0.000393203 -0.000728959)
(1.01867 -0.000282134 -0.000575241)
(1.0189 -0.000252109 -0.00046917)
(1.0189 -0.000329793 -0.000549814)
(1.01868 -0.000357611 -0.000433076)
(1.01883 -0.000141297 -0.000554514)
(1.01891 -0.000328177 -0.000557725)
(1.01882 -0.000241219 -0.000605631)
(1.01899 -0.000313471 -0.000610252)
(1.019 -0.000421441 -0.000413039)
(1.01897 -0.00043556 -0.000570936)
(1.01894 -0.000564066 -0.000427175)
(1.01885 -0.000371386 -0.000573868)
(1.01908 -0.000460361 -0.000540267)
(1.01905 -0.000662959 -0.000422667)
(1.01881 -0.00056906 -0.00042617)
(1.01892 -0.000471147 -0.000428728)
(1.01897 -0.000553525 -0.000322577)
(1.0189 -0.000502477 -0.000318001)
(1.01894 -0.00051908 -0.000229701)
(1.01887 -0.000612576 -0.000226482)
(1.01881 -0.00037951 -0.000186543)
(1.01899 -0.000409426 -0.000329187)
(1.01888 -0.000507431 -0.000400962)
(1.01877 -0.000243516 -0.000520591)
(1.01899 -0.000297106 -0.000485248)
(1.01895 -0.000287191 -0.000573944)
(1.01903 -0.000364721 -0.000614503)
(1.01904 -0.00043034 -0.000571598)
(1.01893 -0.000475894 -0.000755102)
(1.01893 -0.00041012 -0.00070218)
(1.01891 -0.000294021 -0.000811217)
(1.01912 -0.000369638 -0.000459385)
(1.01902 -0.000179585 -0.000442414)
(1.01907 -0.000246494 -0.000452484)
(1.019 -0.0002067 -0.00042678)
(1.01899 -7.69238e-05 -0.000527608)
(1.01924 -0.000251608 -0.000436266)
(1.01904 -0.000342861 -0.000455866)
(1.01896 -0.000200854 -0.000372383)
(1.01903 -0.000259766 -0.000374724)
(1.01889 -0.000138429 -0.000273579)
(1.01908 -0.000135177 -0.000187479)
(1.01908 -0.000192465 -0.000255595)
(1.01889 -0.000205936 -0.000161018)
(1.01902 -3.68494e-05 -0.000264016)
(1.01907 -0.000175768 -0.000259028)
(1.01901 -0.000130061 -0.000302094)
(1.01914 -0.000159459 -0.000318335)
(1.01916 -0.000282528 -0.000172061)
(1.01912 -0.000251404 -0.00030315)
(1.01912 -0.000369677 -0.00020281)
(1.01904 -0.000232597 -0.000293531)
(1.01921 -0.000294627 -0.000289509)
(1.0192 -0.000452765 -0.000188058)
(1.019 -0.00039577 -0.000207332)
(1.01909 -0.000322048 -0.000208468)
(1.01913 -0.000360701 -0.000151192)
(1.01907 -0.00034626 -0.00012491)
(1.01909 -0.000308352 -7.13488e-05)
(1.01905 -0.000388121 -5.46542e-05)
(1.01901 -0.000222841 -4.05138e-05)
(1.01914 -0.000220132 -0.000123854)
(1.01908 -0.000336587 -0.000167619)
(1.01897 -0.000116325 -0.000247567)
(1.01917 -0.000162431 -0.000222467)
(1.01912 -0.000159511 -0.000269536)
(1.0192 -0.000198852 -0.000309337)
(1.0192 -0.000281337 -0.000266653)
(1.01911 -0.000295021 -0.000419978)
(1.01913 -0.000303828 -0.000368049)
(1.01908 -0.000166556 -0.000443204)
(1.01921 -0.00030504 -0.00026606)
(1.01914 -0.000160054 -0.000256)
(1.01916 -0.000191372 -0.000269363)
(1.01913 -0.000182478 -0.000237674)
(1.01908 -5.28961e-05 -0.000312456)
(1.0193 -0.000200309 -0.000229942)
(1.01915 -0.000279402 -0.000257893)
(1.01907 -0.000154964 -0.000194671)
(1.01914 -0.000218027 -0.000189337)
(1.01901 -0.00010385 -0.000132821)
(1.01917 -0.000101167 -5.70652e-05)
(1.01917 -0.000158513 -0.000114094)
(1.01901 -0.000155529 -3.36486e-05)
(1.01912 -3.90634e-05 -0.000117522)
(1.01915 -0.000123885 -0.000113415)
(1.0191 -0.000121837 -0.000144317)
(1.0192 -0.000113756 -0.000168206)
(1.01923 -0.000246733 -5.71005e-05)
(1.0192 -0.000196467 -0.000163767)
(1.01921 -0.000293223 -9.67366e-05)
(1.01914 -0.000199338 -0.000149222)
(1.01927 -0.000244951 -0.000162784)
(1.01928 -0.000366087 -7.66422e-05)
(1.01911 -0.000323537 -0.000106332)
(1.01918 -0.000280639 -0.000103043)
(1.01921 -0.000280627 -8.30122e-05)
(1.01917 -0.000276589 -5.44086e-05)
(1.01918 -0.000228788 -2.13127e-05)
(1.01915 -0.000273553 -2.07638e-06)
(1.01913 -0.000181165 1.61796e-07)
(1.01922 -0.000136076 -5.34705e-05)
(1.01919 -0.000263197 -7.53513e-05)
(1.01909 -8.63231e-05 -0.000132299)
(1.01926 -0.000119029 -0.000108424)
(1.01922 -0.000130026 -0.000136657)