/*--------------------------------*- C++ -*----------------------------------*\
  =========                 |
  \\      /  F ield         | OpenFOAM: The Open Source CFD Toolbox
   \\    /   O peration     | Website:  https://openfoam.org
    \\  /    A nd           | Version:  10
     \\/     M anipulation  |
\*---------------------------------------------------------------------------*/
FoamFile
{
    format      ascii;
    class       volScalarField;
    location    "2.5";
    object      p;
}
// * * * * * * * * * * * * * * * * * * * * * * * * * * * * * * * * * * * * * //

dimensions      [0 2 -2 0 0 0 0];

internalField   nonuniform List<scalar> 
102400
(
-2.8826e-05
5.36278e-05
1.10006e-05
2.55912e-05
-1.03571e-05
-3.26954e-05
8.67924e-05
8.2444e-05
-3.22702e-06
-1.62809e-05
-2.08277e-05
4.87445e-06
5.97283e-05
3.45115e-05
-3.837e-05
-9.10964e-05
3.17323e-05
5.13209e-05
-6.16565e-05
-1.61048e-05
-1.54155e-05
3.41605e-05
3.88769e-05
-4.12981e-05
-1.7191e-05
2.57454e-05
3.09393e-05
2.10395e-05
-9.03456e-06
-9.44429e-05
-2.52063e-05
8.53752e-05
6.78067e-05
1.14833e-05
-1.80873e-05
-2.78696e-05
1.12179e-05
9.84317e-06
-3.40918e-05
-0.000104531
-3.04542e-05
5.36475e-05
1.17792e-05
2.54735e-05
-1.11831e-05
-3.50436e-05
8.63451e-05
8.42255e-05
-2.12252e-06
-1.60456e-05
-2.22239e-05
3.72758e-06
6.16927e-05
3.64458e-05
-3.77758e-05
-9.11447e-05
3.12599e-05
5.36955e-05
-6.0879e-05
-1.76958e-05
-1.60149e-05
3.39611e-05
4.07095e-05
-4.04021e-05
-1.92385e-05
2.34906e-05
3.14635e-05
2.24282e-05
-7.87787e-06
-9.46551e-05
-2.83804e-05
8.48984e-05
6.93865e-05
1.30369e-05
-1.73461e-05
-2.82234e-05
1.24169e-05
1.24897e-05
-3.27191e-05
-0.000104868
-3.24867e-05
5.35567e-05
1.25843e-05
2.57999e-05
-1.1493e-05
-3.74576e-05
8.57427e-05
8.64111e-05
-5.36071e-07
-1.55338e-05
-2.41066e-05
2.30197e-06
6.38233e-05
3.88763e-05
-3.67481e-05
-9.18811e-05
3.0236e-05
5.62649e-05
-5.98451e-05
-1.90336e-05
-1.70813e-05
3.35464e-05
4.28568e-05
-3.90631e-05
-2.08161e-05
2.13398e-05
3.16737e-05
2.39449e-05
-6.10573e-06
-9.48338e-05
-3.17006e-05
8.43577e-05
7.11284e-05
1.51905e-05
-1.61352e-05
-2.89965e-05
1.29481e-05
1.49948e-05
-3.09864e-05
-0.00010533
-3.49824e-05
5.31069e-05
1.3291e-05
2.68377e-05
-1.09712e-05
-4.00548e-05
8.45234e-05
8.88117e-05
1.61485e-06
-1.45663e-05
-2.62459e-05
-1.26297e-07
6.59305e-05
4.18382e-05
-3.52197e-05
-9.34196e-05
2.83407e-05
5.9036e-05
-5.70305e-05
-1.99776e-05
-1.86349e-05
3.26365e-05
4.49381e-05
-3.69707e-05
-2.13708e-05
1.91561e-05
3.11227e-05
2.54669e-05
-3.49257e-06
-9.45069e-05
-3.53301e-05
8.32256e-05
7.29577e-05
1.79625e-05
-1.43469e-05
-3.02971e-05
1.23882e-05
1.7131e-05
-2.86697e-05
-0.000105436
-3.74924e-05
5.20777e-05
1.37244e-05
2.84687e-05
-9.22128e-06
-4.23504e-05
8.248e-05
9.08769e-05
4.11284e-06
-1.27494e-05
-2.82297e-05
-3.28886e-06
6.75673e-05
4.50209e-05
-3.30922e-05
-9.53503e-05
2.54415e-05
6.14679e-05
-5.35271e-05
-2.01257e-05
-2.03533e-05
3.1154e-05
4.63836e-05
-3.41951e-05
-2.00437e-05
1.74228e-05
2.93346e-05
2.64831e-05
-2.23306e-07
-9.31829e-05
-3.87071e-05
8.13941e-05
7.46136e-05
2.09444e-05
-1.17356e-05
-3.17451e-05
1.04936e-05
1.83499e-05
-2.58224e-05
-0.00010451
-3.9379e-05
5.07866e-05
1.34403e-05
3.01085e-05
-6.1167e-06
-4.39899e-05
7.98549e-05
9.17837e-05
6.16823e-06
-1.01303e-05
-2.91601e-05
-6.63699e-06
6.77084e-05
4.74989e-05
-3.05146e-05
-9.70018e-05
2.19993e-05
6.27609e-05
-4.99313e-05
-1.88342e-05
-2.1619e-05
2.94553e-05
4.64611e-05
-3.1358e-05
-1.63005e-05
1.73441e-05
2.63372e-05
2.63439e-05
2.98467e-06
-9.07035e-05
-4.08373e-05
7.91098e-05
7.51529e-05
2.31537e-05
-8.39056e-06
-3.25743e-05
7.40786e-06
1.80303e-05
-2.32365e-05
-0.000102307
-3.91667e-05
4.96951e-05
1.21899e-05
3.06867e-05
-2.12486e-06
-4.36117e-05
7.40257e-05
9.11718e-05
6.52433e-06
-7.49933e-06
-2.86234e-05
-9.06785e-06
6.64072e-05
4.7958e-05
-2.82149e-05
-9.7826e-05
1.91498e-05
6.26546e-05
-4.75278e-05
-1.6438e-05
-2.13448e-05
2.74049e-05
4.49763e-05
-2.99898e-05
-1.00276e-05
2.03349e-05
2.303e-05
2.46974e-05
4.71002e-06
-8.78747e-05
-4.08903e-05
7.70991e-05
7.44371e-05
2.3248e-05
-5.18195e-06
-3.19965e-05
3.94634e-06
1.68581e-05
-2.22208e-05
-9.91111e-05
-3.69842e-05
4.82556e-05
1.05925e-05
2.93867e-05
1.24144e-06
-4.11963e-05
7.08167e-05
8.96613e-05
4.67393e-06
-6.31649e-06
-2.45126e-05
-9.47217e-06
6.45334e-05
4.63412e-05
-2.76745e-05
-9.80739e-05
1.82302e-05
6.12902e-05
-4.73551e-05
-1.40319e-05
-1.94797e-05
2.84185e-05
4.27923e-05
-3.14153e-05
-2.98364e-06
2.60405e-05
2.09036e-05
2.24086e-05
4.18754e-06
-8.62146e-05
-3.89753e-05
7.64078e-05
7.31059e-05
2.05582e-05
-3.97635e-06
-3.0064e-05
1.47492e-06
1.45625e-05
-2.3704e-05
-9.64251e-05
-3.42553e-05
4.89514e-05
9.39404e-06
2.6503e-05
2.28897e-06
-3.81592e-05
7.01199e-05
8.86212e-05
4.03391e-07
-7.83928e-06
-2.38975e-05
-7.71171e-06
6.29774e-05
4.21334e-05
-3.05448e-05
-9.93438e-05
1.97764e-05
6.01593e-05
-5.01862e-05
-1.43279e-05
-1.68256e-05
2.74524e-05
4.15818e-05
-3.52344e-05
2.20773e-06
3.39093e-05
2.15958e-05
2.14621e-05
2.59665e-06
-8.75545e-05
-3.69431e-05
7.67831e-05
7.05838e-05
1.59359e-05
-6.61734e-06
-2.84485e-05
9.11486e-07
1.30231e-05
-2.5954e-05
-9.68671e-05
-3.36485e-05
5.05028e-05
1.06564e-05
2.36947e-05
-3.99973e-06
-3.68584e-05
7.01248e-05
8.85748e-05
-4.30017e-06
-1.35779e-05
-2.63785e-05
-5.76709e-06
6.28127e-05
3.69746e-05
-3.48189e-05
-0.000103299
2.20736e-05
6.09266e-05
-5.3433e-05
-1.87773e-05
-1.63769e-05
2.80828e-05
4.26231e-05
-3.84868e-05
-9.31038e-06
4.15287e-05
2.30816e-05
2.2868e-05
3.47659e-06
-9.1103e-05
-3.75598e-05
7.59712e-05
7.05373e-05
1.20274e-05
-1.34804e-05
-2.98788e-05
1.56069e-06
1.57292e-05
-2.73513e-05
-0.000100247
-3.49131e-05
4.89542e-05
9.93622e-06
2.16775e-05
-6.88448e-06
-3.67605e-05
6.67332e-05
8.67203e-05
-8.26797e-06
-1.54689e-05
-2.92465e-05
-7.16548e-06
6.09347e-05
3.04312e-05
-3.43262e-05
-0.00010315
2.09311e-05
6.00091e-05
-5.49021e-05
-2.08238e-05
-1.64881e-05
2.61567e-05
4.38839e-05
-3.75966e-05
-1.7108e-05
4.60211e-05
2.11244e-05
2.4589e-05
8.92389e-06
-8.96857e-05
-4.42178e-05
6.9756e-05
6.74333e-05
1.0067e-05
-1.69291e-05
-3.28525e-05
-2.8324e-08
1.76009e-05
-2.61889e-05
-9.96739e-05
-3.68324e-05
4.30298e-05
5.89691e-06
1.74284e-05
-5.05917e-06
-3.82867e-05
5.9309e-05
7.86364e-05
-1.25881e-05
-1.16941e-05
-2.42173e-05
-9.62258e-06
5.21885e-05
3.64984e-05
-2.79119e-05
-9.15095e-05
1.65441e-05
5.23037e-05
-4.8282e-05
-1.83376e-05
-1.86046e-05
2.17273e-05
3.79508e-05
-3.36671e-05
-1.65668e-05
2.63277e-05
1.5697e-05
2.0912e-05
1.45961e-05
-7.94893e-05
-4.25818e-05
5.77075e-05
5.59433e-05
9.50983e-06
-1.40177e-05
-2.89423e-05
-2.37537e-06
1.58269e-05
-2.30098e-05
-9.0953e-05
-3.07293e-05
3.40413e-05
-3.03826e-07
1.05206e-05
-1.40693e-06
-3.19332e-05
5.01144e-05
6.4169e-05
-9.05478e-06
-5.60269e-06
-1.20949e-05
-1.1943e-05
3.71218e-05
3.43704e-05
-2.0146e-05
-7.10407e-05
1.31315e-05
3.81945e-05
-4.08914e-05
-1.29258e-05
-1.59566e-05
1.67936e-05
2.44366e-05
-3.01013e-05
-9.83811e-06
1.655e-05
9.1728e-06
9.85307e-06
1.47523e-05
-6.59988e-05
-3.24436e-05
4.45252e-05
3.87916e-05
5.61949e-06
-8.58426e-06
-1.72837e-05
-2.36503e-06
1.05749e-05
-2.02206e-05
-7.59632e-05
-2.12736e-05
3.0181e-05
-2.39041e-06
4.04655e-06
1.21976e-06
-2.29364e-05
4.50033e-05
5.16343e-05
-1.11188e-05
-1.69831e-06
2.25126e-07
-7.44185e-06
2.59755e-05
2.71369e-05
-1.36644e-05
-5.1683e-05
1.65537e-05
2.64958e-05
-3.76078e-05
-7.39311e-06
-1.15792e-05
1.74983e-05
1.5497e-05
-2.85554e-05
-3.32967e-06
1.2155e-05
8.46569e-06
8.86899e-07
1.07888e-05
-5.42592e-05
-2.15013e-05
4.02245e-05
2.43289e-05
3.41082e-08
-6.67669e-06
-4.33258e-06
4.68279e-07
8.39561e-06
-1.974e-05
-6.09249e-05
-1.38662e-05
2.46537e-05
-2.67236e-06
-5.75123e-07
2.43768e-06
-1.62301e-05
4.00354e-05
4.21411e-05
-1.51587e-05
1.66257e-06
8.19509e-06
-4.65742e-06
1.81135e-05
1.83923e-05
-9.36242e-06
-3.82468e-05
1.87642e-05
1.85842e-05
-3.52531e-05
-3.81874e-06
-8.59142e-06
1.798e-05
8.93577e-06
-2.69913e-05
2.52203e-06
6.85604e-06
8.92476e-06
-5.05484e-06
6.96971e-06
-4.05414e-05
-2.09179e-05
3.45846e-05
1.49575e-05
-4.17461e-06
-5.2903e-06
6.37744e-06
9.88659e-07
8.51498e-06
-1.84159e-05
-5.03794e-05
-9.00784e-06
2.08048e-05
-2.84261e-06
-4.25272e-06
3.34469e-06
-1.25744e-05
3.50951e-05
3.45849e-05
-1.52756e-05
3.53834e-06
1.31458e-05
-2.47757e-06
1.19246e-05
1.17583e-05
-6.04213e-06
-2.76361e-05
2.08637e-05
1.23886e-05
-3.34526e-05
-1.57494e-06
-7.08788e-06
1.7752e-05
3.87569e-06
-2.54608e-05
7.93e-06
7.12901e-07
1.00914e-05
-8.65839e-06
2.39212e-06
-2.82304e-05
-1.75671e-05
3.01115e-05
7.65776e-06
-7.74652e-06
-4.56043e-06
9.06895e-06
1.45129e-06
7.81445e-06
-1.58917e-05
-4.23879e-05
-6.65315e-06
1.77484e-05
-3.24683e-06
-7.01419e-06
4.45182e-06
-9.63952e-06
3.01282e-05
2.86142e-05
-1.65749e-05
4.69834e-06
1.58303e-05
-7.52389e-07
7.40879e-06
7.41939e-06
-2.7707e-06
-1.87422e-05
1.92739e-05
7.65552e-06
-3.05188e-05
-5.45e-07
-6.66289e-06
1.77286e-05
5.5969e-07
-2.52669e-05
1.34503e-05
-7.49285e-06
9.51305e-06
-9.35406e-06
-3.29316e-06
-1.60719e-05
-1.66927e-05
2.49021e-05
3.25442e-06
-1.13883e-05
-3.38981e-06
1.07609e-05
2.27854e-06
6.79806e-06
-1.35319e-05
-3.52495e-05
-5.8239e-06
1.56303e-05
-2.86733e-06
-9.30452e-06
4.92126e-06
-5.40907e-06
2.58702e-05
2.38964e-05
-1.75662e-05
6.03131e-06
1.71312e-05
-1.74693e-07
4.70483e-06
3.66823e-06
-4.87046e-07
-1.04014e-05
1.60417e-05
4.32808e-06
-2.71999e-05
-5.1365e-07
-6.74239e-06
1.7257e-05
-5.10553e-07
-2.763e-05
1.8721e-05
-1.02963e-05
6.03757e-06
-7.17156e-06
-9.85247e-06
-5.74926e-06
-1.59876e-05
1.94401e-05
2.31602e-06
-1.58808e-05
-2.53655e-06
1.29542e-05
3.53608e-06
5.28245e-06
-1.23983e-05
-2.82622e-05
-5.90806e-06
1.32634e-05
-1.28342e-06
-1.11876e-05
4.49158e-06
-2.48375e-06
2.20177e-05
2.00005e-05
-1.66127e-05
7.69727e-06
1.70144e-05
-2.13688e-06
4.1597e-06
1.37947e-06
2.82139e-07
-2.87189e-06
7.09232e-06
7.49322e-07
-2.34377e-05
-9.7135e-08
-7.71441e-06
1.68751e-05
1.7956e-06
-3.27674e-05
2.16584e-05
-8.31869e-06
-9.16308e-07
-3.41852e-06
-1.66878e-05
1.31433e-06
-1.40288e-05
1.2808e-05
3.98167e-06
-1.95582e-05
-2.46711e-06
1.38549e-05
4.58565e-06
4.10402e-06
-1.2575e-05
-2.17831e-05
-5.63313e-06
9.58188e-06
1.16603e-06
-1.15496e-05
2.72527e-06
-6.62354e-07
1.86267e-05
1.70598e-05
-1.56039e-05
8.82374e-06
1.66298e-05
-5.85801e-06
5.88826e-06
5.31638e-07
-2.7733e-06
4.08385e-06
4.18426e-06
-3.61887e-06
-1.76095e-05
1.129e-06
-9.23829e-06
1.55878e-05
7.0701e-06
-3.73501e-05
2.10779e-05
-3.65691e-06
-8.92939e-06
5.9767e-07
-1.9828e-05
4.74543e-06
-1.0247e-05
5.55752e-06
7.30699e-06
-2.11417e-05
-4.54489e-06
1.43353e-05
5.73033e-06
3.62033e-06
-1.44528e-05
-1.60938e-05
-4.38412e-06
5.59812e-06
3.58874e-06
-9.97968e-06
-6.82747e-08
-8.92515e-08
1.50291e-05
1.49473e-05
-1.58653e-05
8.96492e-06
1.70624e-05
-1.04238e-05
7.92057e-06
2.48772e-06
-9.26556e-06
9.3355e-06
4.85103e-06
-8.71214e-06
-1.0491e-05
3.74808e-06
-1.0645e-05
1.18192e-05
1.30558e-05
-3.879e-05
1.52285e-05
5.13961e-06
-1.68244e-05
2.74808e-06
-1.96686e-05
4.80315e-06
-4.82798e-06
-2.24027e-06
9.82679e-06
-1.83886e-05
-7.795e-06
1.15995e-05
6.66418e-06
3.85586e-06
-1.64225e-05
-1.1956e-05
-1.8646e-06
1.51483e-06
4.85159e-06
-6.31972e-06
-3.14714e-06
-1.14831e-06
1.37918e-05
1.42329e-05
-1.82122e-05
8.53912e-06
1.96016e-05
-1.55684e-05
7.79035e-06
8.29771e-06
-1.55769e-05
1.03208e-05
1.24224e-05
-1.28548e-05
-6.99307e-06
7.33818e-06
-1.09838e-05
5.74833e-06
1.82629e-05
-3.45174e-05
5.37785e-06
1.20786e-05
-1.83239e-05
2.15974e-06
-1.72013e-05
2.7451e-06
1.36187e-06
-1.01562e-05
9.92101e-06
-1.19174e-05
-1.13211e-05
6.75259e-06
7.63894e-06
4.84062e-06
-1.8639e-05
-9.76327e-06
1.05098e-06
-1.59736e-06
4.24116e-06
-1.3872e-06
-5.07122e-06
-4.13726e-06
1.27327e-05
1.54256e-05
-1.99864e-05
6.70596e-06
2.44186e-05
-1.82781e-05
3.74286e-06
1.7184e-05
-1.84969e-05
6.17242e-06
1.89603e-05
-1.34164e-05
-8.28981e-06
1.06498e-05
-8.73747e-06
-1.30902e-06
2.09518e-05
-2.56438e-05
-5.49866e-06
1.49285e-05
-1.52992e-05
-5.88815e-07
-1.38646e-05
-2.34787e-07
7.10648e-06
-1.33643e-05
6.59812e-06
-2.01386e-06
-1.30415e-05
7.90849e-07
8.20855e-06
6.83264e-06
-1.53048e-05
-9.4872e-06
3.32075e-06
-2.93917e-06
1.68098e-06
2.98012e-06
-4.88458e-06
-9.92215e-06
1.02183e-05
1.83169e-05
-1.97753e-05
7.27187e-07
2.92423e-05
-1.64467e-05
-4.07836e-06
2.48966e-05
-1.60215e-05
-4.02996e-06
2.31832e-05
-9.47045e-06
-1.2396e-05
1.17404e-05
-4.59448e-06
-7.64362e-06
1.98837e-05
-1.31871e-05
-1.34808e-05
1.3587e-05
-8.90232e-06
-3.12586e-06
-1.08444e-05
-3.51501e-06
1.07233e-05
-1.27068e-05
8.10817e-07
4.68557e-06
-1.15991e-05
-5.1275e-06
7.44816e-06
9.17529e-06
-1.24335e-05
-1.0803e-05
3.74747e-06
-3.1847e-06
-1.5058e-06
4.93578e-06
-2.7722e-06
-1.29246e-05
5.75307e-06
2.10364e-05
-1.62997e-05
-7.22748e-06
3.07816e-05
-9.86156e-06
-1.33861e-05
2.67081e-05
-7.969e-06
-1.28673e-05
2.25004e-05
-1.55812e-06
-1.58026e-05
9.49373e-06
8.49998e-07
-1.10327e-05
1.48137e-05
-3.02556e-06
-1.67519e-05
7.96576e-06
-2.43808e-06
-3.69589e-06
-8.75961e-06
-6.39859e-06
1.16743e-05
-8.65129e-06
-5.56797e-06
7.79378e-06
-6.65814e-06
-9.51497e-06
4.37065e-06
1.07743e-05
-8.55707e-06
-1.23793e-05
2.13632e-06
-8.50071e-09
-3.60483e-06
4.23029e-06
-4.9118e-07
-1.2459e-05
3.84233e-09
2.13008e-05
-9.06838e-06
-1.38579e-05
2.7628e-05
2.30065e-07
-1.92881e-05
2.22119e-05
3.47622e-06
-1.75326e-05
1.62192e-05
7.00291e-06
-1.55012e-05
3.54293e-06
4.7468e-06
-1.04506e-05
7.60534e-06
4.01987e-06
-1.4784e-05
1.25854e-06
1.48427e-06
-2.55144e-06
-6.6495e-06
-8.22635e-06
1.01357e-05
-2.89558e-06
-1.07573e-05
6.38375e-06
-1.12087e-07
-1.10343e-05
-3.67523e-07
1.07597e-05
-3.54857e-06
-1.28918e-05
-1.4472e-06
1.77599e-06
-4.05391e-06
1.72346e-06
3.79533e-06
-9.26081e-06
-5.08132e-06
1.80793e-05
-9.44516e-07
-1.68639e-05
1.96143e-05
9.06559e-06
-1.98816e-05
1.24512e-05
1.13347e-05
-1.62075e-05
6.37337e-06
1.1741e-05
-1.12224e-05
-2.57077e-06
6.2648e-06
-6.79327e-06
1.4337e-06
6.5517e-06
-9.40162e-06
-3.51425e-06
2.34657e-06
-5.71648e-07
-4.50829e-06
-8.83941e-06
6.58586e-06
2.10733e-06
-1.12886e-05
1.78119e-06
4.57519e-06
-9.21496e-06
-5.05353e-06
8.57347e-06
9.06268e-07
-1.1761e-05
-4.1345e-06
2.05902e-06
-3.03055e-06
-7.55819e-07
4.44886e-06
-4.98433e-06
-7.73116e-06
1.27644e-05
5.14933e-06
-1.54802e-05
8.64825e-06
1.36145e-05
-1.49846e-05
1.78414e-06
1.39929e-05
-1.01894e-05
-1.92187e-06
1.17393e-05
-4.31401e-06
-5.77742e-06
5.02864e-06
-2.07228e-06
-1.77259e-06
5.35938e-06
-4.1997e-06
-5.31652e-06
4.34528e-07
6.54782e-07
-2.41207e-06
-8.19499e-06
1.8251e-06
4.55597e-06
-8.868e-06
-2.89574e-06
5.34708e-06
-5.09056e-06
-7.66537e-06
4.702e-06
3.58075e-06
-8.99197e-06
-5.45968e-06
9.247e-07
-1.54275e-06
-2.25945e-06
2.84753e-06
-1.52228e-06
-7.68134e-06
4.99e-06
7.656e-06
-1.05937e-05
9.63816e-07
1.32958e-05
-7.34447e-06
-4.13848e-06
1.15926e-05
-2.75402e-06
-5.41943e-06
7.93984e-06
6.42692e-07
-5.72471e-06
1.93515e-06
3.99578e-07
-2.31018e-06
2.81624e-06
-9.57957e-07
-4.6543e-06
-1.22692e-06
6.37928e-07
-7.82128e-07
-6.23462e-06
-1.27681e-06
4.49589e-06
-4.95666e-06
-5.31832e-06
3.76617e-06
-1.24539e-06
-7.7894e-06
1.12314e-07
4.07939e-06
-5.41257e-06
-5.38565e-06
-6.4718e-07
-6.86017e-07
-2.54555e-06
1.0155e-06
1.7404e-07
-5.7638e-06
8.67228e-07
6.9858e-06
-4.94908e-06
-2.9418e-06
9.56844e-06
-8.67338e-07
-5.60662e-06
6.63189e-06
1.75449e-06
-5.10502e-06
3.36047e-06
3.08524e-06
-3.54114e-06
-5.78785e-07
1.22102e-06
-1.19834e-06
8.87059e-07
2.11026e-07
-2.77543e-06
-1.81354e-06
-1.24888e-07
7.55257e-08
-3.72778e-06
-2.88322e-06
2.64949e-06
-1.78833e-06
-5.56179e-06
8.2126e-07
7.01209e-07
-5.87262e-06
-2.4819e-06
2.89087e-06
-2.55218e-06
-4.35927e-06
-1.70898e-06
-7.05929e-07
-2.14128e-06
-3.54008e-07
5.18221e-07
-3.29717e-06
-1.17038e-06
4.4879e-06
-1.10444e-06
-3.47593e-06
5.068e-06
2.13607e-06
-4.18401e-06
2.36076e-06
3.13899e-06
-2.95762e-06
4.37715e-07
3.18193e-06
-1.32371e-06
-1.63876e-06
9.37123e-07
1.03709e-07
3.66534e-08
4.88758e-08
-1.34251e-06
-1.33484e-06
-7.0784e-07
4.82448e-08
-1.6288e-06
-3.09266e-06
4.54876e-07
-2.24162e-07
-4.23868e-06
-1.20651e-06
6.22372e-07
-3.97501e-06
-3.46709e-06
1.06188e-06
-1.28011e-06
-3.2663e-06
-2.0393e-06
-1.36308e-06
-1.8058e-06
-1.01848e-06
-1.87197e-07
-1.6926e-06
-1.41087e-06
1.86051e-06
3.09803e-07
-2.26416e-06
2.06177e-06
2.58247e-06
-2.17912e-06
1.52333e-07
2.56884e-06
-1.17678e-06
-5.26969e-07
2.3132e-06
-2.64386e-07
-1.66115e-06
6.60472e-07
1.06113e-06
-8.0604e-08
-4.72985e-07
-1.0906e-07
-3.50486e-07
-1.33934e-06
-1.33407e-07
-3.10984e-07
-2.81491e-06
-9.80088e-07
1.23566e-07
-2.967e-06
-1.96491e-06
-3.14772e-07
-3.17938e-06
-2.91393e-06
-2.69447e-07
-1.68769e-06
-9.49223e-05
1.20118e-05
7.88124e-05
2.99819e-05
-3.92848e-05
-4.42207e-05
3.8259e-05
5.54754e-05
4.28271e-05
-2.55115e-05
-4.6011e-05
-1.32227e-05
7.22951e-05
9.20082e-05
-7.89302e-05
-7.56396e-05
3.20461e-05
9.21909e-05
5.69665e-05
-3.6479e-05
-6.51166e-05
-9.94989e-06
7.83833e-05
-8.72777e-06
-6.26393e-05
-6.4785e-05
-6.13969e-05
3.21173e-06
-2.25985e-06
-5.70957e-05
-3.10688e-05
0.000103304
0.000144257
4.34696e-05
-5.05507e-05
-4.01134e-05
3.5491e-05
0.000104976
1.45854e-05
-9.4802e-05
-9.61468e-05
1.08472e-05
7.96659e-05
3.03291e-05
-4.0735e-05
-4.57912e-05
3.79703e-05
5.62059e-05
4.2874e-05
-2.54546e-05
-4.82863e-05
-1.45723e-05
7.25895e-05
9.2823e-05
-7.9013e-05
-7.81587e-05
3.14657e-05
9.22696e-05
5.81167e-05
-3.63298e-05
-6.57775e-05
-1.0475e-05
7.91514e-05
-7.52292e-06
-6.32269e-05
-6.55027e-05
-6.11683e-05
3.22796e-06
-2.43037e-06
-5.89984e-05
-3.49183e-05
0.000101239
0.000144692
4.38675e-05
-5.09185e-05
-4.25977e-05
3.56133e-05
0.000105576
1.5914e-05
-9.47932e-05
-9.81577e-05
8.39683e-06
8.06764e-05
3.14404e-05
-4.18161e-05
-4.82351e-05
3.71809e-05
5.6863e-05
4.35316e-05
-2.50969e-05
-5.07127e-05
-1.66005e-05
7.25585e-05
9.46738e-05
-7.89795e-05
-8.11907e-05
3.02503e-05
9.23194e-05
5.97933e-05
-3.5792e-05
-6.69954e-05
-1.21157e-05
8.0127e-05
-5.58828e-06
-6.38755e-05
-6.70783e-05
-6.22589e-05
3.07081e-06
-2.13037e-06
-6.05691e-05
-3.93877e-05
9.85195e-05
0.000145304
4.51969e-05
-5.11552e-05
-4.50282e-05
3.48649e-05
0.000106742
1.82241e-05
-9.42369e-05
-0.000100827
4.62357e-06
8.14408e-05
3.37451e-05
-4.18145e-05
-5.1501e-05
3.55242e-05
5.71925e-05
4.51077e-05
-2.38951e-05
-5.33034e-05
-1.92914e-05
7.17624e-05
9.7698e-05
-7.86002e-05
-8.4862e-05
2.81659e-05
9.20122e-05
6.15754e-05
-3.44914e-05
-6.87128e-05
-1.5218e-05
8.09526e-05
-2.5949e-06
-6.38337e-05
-6.9619e-05
-6.44949e-05
2.60824e-06
-8.9659e-07
-6.09133e-05
-4.42052e-05
9.49516e-05
0.000145747
4.7692e-05
-5.09095e-05
-4.79809e-05
3.28402e-05
0.00010835
2.16208e-05
-9.20122e-05
-0.000103663
-6.55023e-07
8.14285e-05
3.71981e-05
-4.08345e-05
-5.5257e-05
3.2636e-05
5.67798e-05
4.75778e-05
-2.20554e-05
-5.5455e-05
-2.30532e-05
6.91395e-05
0.000101689
-7.73945e-05
-8.87771e-05
2.51413e-05
9.08676e-05
6.41931e-05
-3.17295e-05
-7.06204e-05
-2.00134e-05
8.10498e-05
1.30779e-06
-6.28099e-05
-7.30045e-05
-6.80445e-05
1.61103e-06
1.30303e-06
-5.9966e-05
-4.87553e-05
9.01527e-05
0.000144425
5.11816e-05
-4.97966e-05
-5.11997e-05
2.92807e-05
0.000110214
2.59182e-05
-8.95247e-05
-0.000105444
-7.09744e-06
7.9991e-05
4.11557e-05
-3.84243e-05
-5.81288e-05
2.84526e-05
5.48572e-05
5.05813e-05
-1.95562e-05
-5.65975e-05
-2.76263e-05
6.58222e-05
0.000106078
-7.52022e-05
-9.19535e-05
2.14304e-05
8.83277e-05
6.69997e-05
-2.8316e-05
-7.20666e-05
-2.63586e-05
7.86703e-05
5.46761e-06
-6.03644e-05
-7.66121e-05
-7.28155e-05
-5.39484e-07
4.05576e-06
-5.73062e-05
-5.19054e-05
8.42695e-05
0.000142599
5.50355e-05
-4.77222e-05
-5.37608e-05
2.42892e-05
0.000111963
3.05295e-05
-8.63504e-05
-0.000104796
-1.33783e-05
7.36167e-05
4.4341e-05
-3.48906e-05
-5.90717e-05
2.3595e-05
5.17537e-05
5.34566e-05
-1.69061e-05
-5.52523e-05
-3.19016e-05
6.1592e-05
0.000109861
-7.23972e-05
-9.10331e-05
1.78817e-05
8.51438e-05
6.93077e-05
-2.47907e-05
-7.17594e-05
-3.34069e-05
7.5496e-05
8.87396e-06
-5.83718e-05
-7.96444e-05
-7.79388e-05
-3.18739e-06
6.55349e-06
-5.34462e-05
-5.23119e-05
7.85285e-05
0.000139685
5.82109e-05
-4.52666e-05
-5.22326e-05
1.87621e-05
0.000106231
3.46305e-05
-8.28273e-05
-0.000102541
-1.4705e-05
7.02403e-05
4.50992e-05
-3.17707e-05
-5.80691e-05
2.00701e-05
4.80909e-05
5.47985e-05
-1.52069e-05
-5.2164e-05
-3.37879e-05
5.70237e-05
0.000110429
-7.05357e-05
-8.88248e-05
1.60979e-05
8.21206e-05
7.03985e-05
-2.21023e-05
-7.0351e-05
-3.91899e-05
7.19955e-05
1.04385e-05
-5.81077e-05
-8.03602e-05
-8.12951e-05
-5.64468e-06
7.93333e-06
-4.99809e-05
-4.73569e-05
7.53079e-05
0.000136048
5.88212e-05
-4.36171e-05
-4.93813e-05
1.46322e-05
0.000101106
3.73e-05
-7.99495e-05
-0.000100075
-1.1688e-05
6.89341e-05
4.245e-05
-3.15558e-05
-5.58845e-05
2.02308e-05
4.55249e-05
5.50473e-05
-1.59285e-05
-4.8631e-05
-3.21311e-05
5.44056e-05
0.000108791
-7.04738e-05
-8.64606e-05
1.71867e-05
8.08478e-05
6.65351e-05
-2.19055e-05
-6.89809e-05
-3.62688e-05
7.04269e-05
9.0086e-06
-6.20193e-05
-8.11506e-05
-8.02459e-05
-5.67071e-06
8.48618e-06
-4.89945e-05
-4.16981e-05
7.59587e-05
0.000133895
5.13601e-05
-4.4898e-05
-4.67749e-05
1.34024e-05
9.85307e-05
3.70932e-05
-7.66465e-05
-0.000100536
-5.98325e-06
7.02599e-05
3.63024e-05
-2.95246e-05
-5.61116e-05
2.32966e-05
4.67596e-05
5.64387e-05
-1.55476e-05
-4.73432e-05
-2.84963e-05
5.55368e-05
0.00010735
-7.00742e-05
-8.62946e-05
1.93699e-05
8.23268e-05
6.37109e-05
-2.17502e-05
-7.06569e-05
-3.07925e-05
7.29895e-05
8.69028e-06
-5.65136e-05
-8.68164e-05
-7.5742e-05
-8.62804e-07
1.10361e-05
-5.00394e-05
-4.00148e-05
7.83547e-05
0.000133881
5.13789e-05
-4.62345e-05
-4.77152e-05
1.40915e-05
9.81136e-05
3.7089e-05
-7.69437e-05
-0.000104245
-3.96628e-06
7.27988e-05
3.81132e-05
-2.8492e-05
-6.15754e-05
2.43677e-05
4.97579e-05
6.21616e-05
-1.43951e-05
-4.79361e-05
-2.80628e-05
5.55636e-05
0.000109992
-6.76484e-05
-8.71783e-05
1.72116e-05
8.30373e-05
6.59199e-05
-2.13083e-05
-7.60799e-05
-2.77605e-05
7.60386e-05
1.42858e-05
-5.08774e-05
-0.000101097
-7.16736e-05
4.81658e-06
1.85098e-05
-4.89579e-05
-4.31701e-05
7.51106e-05
0.000131266
5.63613e-05
-4.47085e-05
-5.22035e-05
1.13427e-05
9.72489e-05
4.09054e-05
-7.41181e-05
-0.000109052
-6.80666e-06
6.75518e-05
4.09858e-05
-2.25537e-05
-6.02579e-05
2.05177e-05
4.91289e-05
6.94574e-05
-9.60172e-06
-4.44457e-05
-3.06104e-05
5.10753e-05
0.000110737
-5.87112e-05
-8.21201e-05
1.14133e-05
7.68235e-05
6.67494e-05
-1.75504e-05
-7.14016e-05
-2.71779e-05
7.31139e-05
2.30032e-05
-4.25048e-05
-8.92284e-05
-6.91576e-05
6.2225e-06
2.54139e-05
-4.08439e-05
-4.451e-05
6.39223e-05
0.000120521
6.09544e-05
-3.57085e-05
-5.21706e-05
4.83943e-06
8.97436e-05
5.05475e-05
-6.52536e-05
-9.11095e-05
-8.54563e-06
5.27799e-05
3.69218e-05
-1.05752e-05
-5.23293e-05
1.39211e-05
4.224e-05
5.844e-05
-3.03411e-06
-3.24438e-05
-3.14647e-05
4.02346e-05
0.00010226
-4.59823e-05
-6.60939e-05
7.22253e-06
6.23285e-05
5.81817e-05
-9.52681e-06
-5.80553e-05
-2.47615e-05
6.08434e-05
2.29436e-05
-2.76283e-05
-7.47508e-05
-6.47682e-05
2.94233e-06
2.39663e-05
-2.91061e-05
-3.81136e-05
4.99157e-05
9.91162e-05
5.43823e-05
-2.24868e-05
-4.14936e-05
-2.77594e-07
7.44909e-05
4.84049e-05
-5.11874e-05
-7.16717e-05
-4.87074e-06
3.88182e-05
2.65533e-05
-4.08855e-06
-4.21065e-05
1.12086e-05
3.44239e-05
4.42363e-05
-8.79206e-07
-1.94323e-05
-2.91067e-05
2.94433e-05
8.95872e-05
-3.74923e-05
-4.8572e-05
4.83296e-06
4.79726e-05
4.33004e-05
-6.11719e-06
-4.28711e-05
-1.84167e-05
4.70755e-05
9.8034e-06
-1.7839e-05
-6.02319e-05
-5.66172e-05
1.34769e-08
1.68755e-05
-2.28114e-05
-3.15356e-05
3.84393e-05
7.70475e-05
4.30341e-05
-1.69299e-05
-3.06216e-05
-7.81089e-07
5.84937e-05
3.01321e-05
-4.1395e-05
-5.53275e-05
-1.0033e-06
2.67665e-05
1.79563e-05
1.01739e-06
-3.31452e-05
1.02875e-05
2.70116e-05
3.35051e-05
1.66338e-06
-8.54253e-06
-2.60716e-05
1.94195e-05
8.24088e-05
-2.95991e-05
-3.30743e-05
1.73662e-06
3.47269e-05
4.44542e-05
-2.72576e-06
-2.93694e-05
-1.19985e-05
3.3815e-05
5.09357e-06
-8.55534e-06
-4.84886e-05
-4.80777e-05
-3.18276e-06
1.03215e-05
-1.58787e-05
-2.80366e-05
2.99496e-05
5.57412e-05
3.77123e-05
-1.1333e-05
-2.14124e-05
9.34815e-07
4.28671e-05
1.69259e-05
-3.22099e-05
-4.18547e-05
1.43282e-06
1.87918e-05
1.13534e-05
5.06043e-06
-3.04008e-05
9.03039e-06
2.1801e-05
2.43111e-05
4.24605e-06
-1.20764e-06
-2.42435e-05
1.27265e-05
7.12148e-05
-2.28052e-05
-2.03671e-05
-3.23084e-06
2.44847e-05
3.18757e-05
-1.24155e-06
-1.84788e-05
-6.4693e-06
2.34089e-05
6.71159e-06
-6.29768e-07
-4.25633e-05
-4.1853e-05
-4.69102e-06
7.60091e-06
-9.10717e-06
-2.33336e-05
2.31702e-05
3.94491e-05
2.63975e-05
-6.7556e-06
-1.60247e-05
3.23538e-06
3.09189e-05
7.18258e-06
-2.39459e-05
-3.42346e-05
2.42323e-06
1.30791e-05
5.59118e-06
8.63245e-06
-2.66694e-05
7.16223e-06
1.88681e-05
1.58461e-05
6.3191e-06
2.6279e-06
-2.37929e-05
8.58716e-06
5.85305e-05
-1.82711e-05
-9.39437e-06
-7.31641e-06
1.54849e-05
2.65002e-05
-1.0932e-06
-1.00533e-05
-1.73268e-06
1.49474e-05
1.13655e-06
5.05365e-06
-3.5614e-05
-3.70368e-05
-4.74975e-06
2.93948e-06
-3.1287e-06
-1.93029e-05
1.7173e-05
2.7544e-05
1.62685e-05
-3.18601e-06
-1.20854e-05
4.92804e-06
2.17397e-05
2.38785e-07
-1.664e-05
-2.54312e-05
2.6211e-06
9.79437e-06
4.87864e-07
1.10303e-05
-2.35711e-05
4.43987e-06
1.7531e-05
8.10155e-06
7.85295e-06
4.92555e-06
-2.36727e-05
6.89591e-06
4.66091e-05
-1.613e-05
9.4264e-07
-8.5511e-06
6.98172e-06
2.51676e-05
-2.6254e-06
-5.11104e-06
2.6138e-06
7.6665e-06
-3.98994e-06
9.44781e-06
-2.87406e-05
-3.34981e-05
-3.88401e-06
-2.37246e-06
1.36738e-06
-1.6019e-05
1.15543e-05
2.01989e-05
8.43123e-06
-6.63512e-07
-9.55555e-06
6.27907e-06
1.5763e-05
-5.52498e-06
-1.08485e-05
-1.71957e-05
1.74058e-06
8.49892e-06
-3.90036e-06
1.18804e-05
-1.90074e-05
1.00241e-06
1.74153e-05
1.87472e-06
8.39269e-06
8.83578e-06
-2.25144e-05
7.05879e-06
3.49705e-05
-1.65809e-05
9.50788e-06
-6.94838e-06
-1.63241e-06
2.64308e-05
-3.96148e-06
-3.99325e-06
6.43845e-06
2.93826e-06
-8.14415e-06
1.17487e-05
-2.30688e-05
-3.06655e-05
-3.05975e-06
-6.70273e-06
4.24989e-06
-1.24547e-05
5.66147e-06
1.68805e-05
2.49591e-06
3.25408e-07
-6.81664e-06
6.85164e-06
1.16948e-05
-9.49864e-06
-6.28315e-06
-1.0391e-05
-2.37919e-07
9.29434e-06
-6.98064e-06
1.01251e-05
-1.28287e-05
-1.00404e-06
1.72186e-05
-3.23814e-06
8.28213e-06
1.29521e-05
-2.07762e-05
7.49446e-06
2.90067e-05
-1.89099e-05
1.5206e-05
-1.71258e-06
-1.03058e-05
2.67652e-05
-3.38581e-06
-6.26541e-06
9.85506e-06
4.95692e-07
-1.32224e-05
1.2194e-05
-1.58656e-05
-3.00043e-05
-2.12557e-06
-9.38497e-06
5.87804e-06
-7.78555e-06
-1.28287e-06
1.45909e-05
-1.09573e-06
-1.35944e-07
-4.48151e-06
6.45221e-06
9.9809e-06
-1.37632e-05
-3.85638e-06
-4.37081e-06
-2.77907e-06
1.05686e-05
-8.08329e-06
6.0132e-06
-7.23784e-06
-1.88327e-06
1.61168e-05
-6.83289e-06
7.34774e-06
1.70299e-05
-2.01117e-05
7.14736e-06
2.79218e-05
-2.13516e-05
1.66351e-05
6.66677e-06
-1.77551e-05
2.24204e-05
-2.98768e-07
-1.02055e-05
1.14576e-05
1.90414e-06
-1.68728e-05
1.01674e-05
-8.31793e-06
-2.90376e-05
-1.56213e-06
-1.07664e-05
5.70172e-06
-3.03958e-06
-8.23362e-06
1.26241e-05
-2.15097e-06
-2.37658e-06
-2.82944e-06
5.79572e-06
9.61287e-06
-1.42298e-05
-3.38693e-06
3.05753e-07
-5.43433e-06
1.09379e-05
-6.31752e-06
3.61203e-07
-3.8926e-06
-9.94681e-07
1.46676e-05
-9.61739e-06
5.64406e-06
2.1881e-05
-2.0449e-05
4.70138e-06
3.08109e-05
-2.38503e-05
1.274e-05
1.84439e-05
-2.20867e-05
1.49718e-05
5.35063e-06
-1.37829e-05
1.01162e-05
5.93713e-06
-1.92611e-05
5.5772e-06
-1.16685e-06
-2.62802e-05
-1.96254e-06
-1.10907e-05
4.07575e-06
2.02933e-06
-1.38889e-05
9.16438e-06
-5.83489e-07
-4.93979e-06
-2.45058e-06
4.92395e-06
1.01878e-05
-1.29111e-05
-4.54451e-06
3.55232e-06
-7.15037e-06
9.59013e-06
-2.05447e-06
-4.61432e-06
-3.35981e-06
1.34976e-06
1.36159e-05
-1.17013e-05
3.82277e-06
2.62445e-05
-1.95905e-05
-9.19156e-07
3.47255e-05
-2.30818e-05
3.76789e-06
2.69963e-05
-2.12913e-05
4.457e-06
1.10313e-05
-1.43749e-05
5.22998e-06
1.02372e-05
-1.81247e-05
-6.32589e-07
5.13533e-06
-2.08345e-05
-2.89584e-06
-1.0535e-05
9.64965e-07
7.79147e-06
-1.64293e-05
3.03924e-06
3.34291e-06
-7.12364e-06
-3.75153e-06
4.0178e-06
1.13135e-05
-1.13268e-05
-6.95999e-06
5.31624e-06
-7.09397e-06
6.04881e-06
3.07659e-06
-6.82389e-06
-5.12605e-06
3.45554e-06
1.38418e-05
-1.23369e-05
-1.0082e-06
2.93191e-05
-1.5546e-05
-9.15376e-06
3.5291e-05
-1.72569e-05
-9.21025e-06
3.07628e-05
-1.43673e-05
-7.07306e-06
1.34986e-05
-1.07072e-05
-1.28505e-06
1.24878e-05
-1.342e-05
-7.05836e-06
7.25949e-06
-1.43644e-05
-3.50274e-06
-9.32966e-06
-2.75762e-06
1.10479e-05
-1.4791e-05
-3.53911e-06
6.97515e-06
-6.13029e-06
-5.91066e-06
2.45174e-06
1.22209e-05
-8.43189e-06
-9.60044e-06
4.98969e-06
-4.86893e-06
1.49623e-06
6.50668e-06
-5.20699e-06
-6.61448e-06
3.51561e-06
1.53911e-05
-1.07524e-05
-7.29325e-06
2.94553e-05
-8.02896e-06
-1.73414e-05
3.20998e-05
-6.3468e-06
-1.85257e-05
2.76996e-05
-3.29775e-06
-1.45885e-05
1.15978e-05
-4.02388e-06
-6.52572e-06
1.12799e-05
-6.36668e-06
-1.06239e-05
5.55434e-06
-8.23661e-06
-3.46714e-06
-7.6311e-06
-6.46661e-06
1.20405e-05
-1.00543e-05
-9.92144e-06
8.25599e-06
-2.4261e-06
-8.74868e-06
-1.28535e-07
1.22341e-05
-4.95288e-06
-1.16922e-05
2.75361e-06
-2.49352e-06
-2.20027e-06
7.1605e-06
-6.53478e-07
-8.50313e-06
1.02282e-06
1.61942e-05
-6.45832e-06
-1.26411e-05
2.56002e-05
1.44844e-06
-2.19965e-05
2.41934e-05
5.94147e-06
-2.20865e-05
1.88005e-05
7.61749e-06
-1.62329e-05
5.67513e-06
2.26149e-06
-8.50095e-06
6.96793e-06
-6.73415e-07
-1.08027e-05
1.75683e-06
-4.00259e-06
-2.63264e-06
-5.38969e-06
-9.04356e-06
1.02593e-05
-3.52262e-06
-1.36215e-05
6.07678e-06
2.43732e-06
-9.30818e-06
-3.43004e-06
1.07902e-05
-1.13147e-06
-1.24563e-05
-2.0325e-07
1.35345e-07
-4.00312e-06
4.95428e-06
1.75967e-06
-8.25782e-06
-2.87596e-06
1.45814e-05
-7.3602e-07
-1.51345e-05
1.78651e-05
9.6489e-06
-2.11125e-05
1.27828e-05
1.37473e-05
-1.91512e-05
6.99581e-06
1.31814e-05
-1.21278e-05
-1.13601e-06
5.16102e-06
-5.61772e-06
2.2058e-06
2.42308e-06
-8.03717e-06
-1.68097e-06
-2.05333e-06
-1.6004e-06
-3.45595e-06
-9.85722e-06
6.27193e-06
2.20343e-06
-1.37894e-05
8.74275e-07
5.57628e-06
-7.21176e-06
-6.58019e-06
7.70947e-06
1.87263e-06
-1.12704e-05
-2.84306e-06
1.34214e-06
-3.72861e-06
1.74397e-06
3.59022e-06