/*--------------------------------*- C++ -*----------------------------------*\
  =========                 |
  \\      /  F ield         | OpenFOAM: The Open Source CFD Toolbox
   \\    /   O peration     | Website:  https://openfoam.org
    \\  /    A nd           | Version:  10
     \\/     M anipulation  |
\*---------------------------------------------------------------------------*/
FoamFile
{
    format      ascii;
    class       surfaceScalarField;
    location    "2.5";
    object      phi_0;
}
// * * * * * * * * * * * * * * * * * * * * * * * * * * * * * * * * * * * * * //

dimensions      [0 3 -1 0 0 0 0];

internalField   nonuniform List<scalar> 
300480
(
9.82302e-06
-4.2569e-09
1.65911e-08
9.8298e-06
-1.25936e-08
-2.66463e-08
9.85286e-06
-1.06951e-08
-2.6169e-08
9.86399e-06
-2.24465e-08
-6.39819e-09
9.8461e-06
-2.63493e-09
-2.36115e-08
9.79007e-06
1.02163e-09
3.31113e-08
9.78468e-06
-1.63361e-08
2.92861e-08
9.81953e-06
-3.77905e-09
-8.72983e-09
9.83317e-06
1.25392e-08
-1.50818e-08
9.82773e-06
2.1874e-08
1.33138e-08
9.78928e-06
1.62975e-08
-1.4312e-10
9.75767e-06
-5.17424e-09
-6.94878e-09
9.79019e-06
-7.13558e-10
-6.94689e-09
9.82373e-06
1.75353e-08
-2.24151e-08
9.81508e-06
3.30583e-08
-1.62212e-09
9.79442e-06
4.36365e-08
-4.03317e-08
9.79609e-06
-1.28166e-08
-1.71702e-08
9.84441e-06
1.18695e-09
-4.54803e-08
9.86041e-06
7.49426e-09
1.02401e-09
9.83411e-06
-5.85681e-09
2.86306e-08
9.81292e-06
1.10546e-08
2.32816e-08
9.81158e-06
-1.03924e-08
1.52397e-08
9.8551e-06
-9.16766e-09
4.69469e-09
9.88288e-06
-4.8522e-09
3.89446e-08
9.84974e-06
-1.39927e-08
7.20755e-08
9.79624e-06
-6.51985e-09
7.25683e-08
9.79564e-06
7.18995e-10
1.16297e-08
9.8255e-06
-4.06834e-09
-4.3344e-08
9.8467e-06
2.24116e-09
-4.26054e-08
9.82948e-06
2.54474e-08
-4.08718e-08
9.77058e-06
-6.0931e-09
-7.29127e-09
9.75609e-06
-1.06128e-08
-4.4301e-08
9.77785e-06
2.12228e-09
-1.01379e-08
9.79903e-06
9.61185e-09
-2.88594e-08
9.79638e-06
3.13566e-08
-9.66637e-09
9.76677e-06
3.58736e-08
-5.99564e-08
9.7771e-06
2.52922e-08
-4.03174e-08
9.82876e-06
2.09456e-08
-5.27575e-08
9.86064e-06
6.86681e-09
-3.85949e-08
2.04094e-08
3.3478e-09
3.30096e-05
-3.2007e-08
4.22096e-08
3.3015e-05
-1.87809e-08
-9.08034e-08
3.30947e-05
-3.52651e-08
-6.81645e-08
3.3132e-05
-7.91144e-08
-3.31079e-08
3.30831e-05
-2.73795e-08
-9.07603e-08
3.29066e-05
-1.42889e-08
1.12817e-07
3.28659e-05
-1.88078e-08
9.41689e-08
3.29713e-05
2.41664e-08
-4.12333e-08
3.30276e-05
4.60861e-08
-5.04996e-08
3.30187e-05
6.55952e-08
3.44496e-08
3.28957e-05
4.1533e-08
7.27731e-10
3.27828e-05
6.96156e-09
-1.73366e-08
3.28761e-05
4.63579e-08
-2.43646e-08
3.29881e-05
7.6794e-08
-7.09475e-08
3.29713e-05
1.05356e-07
-1.71039e-08
3.29164e-05
1.30436e-07
-1.19122e-07
3.29035e-05
-2.62101e-08
-4.91177e-08
3.30518e-05
3.80578e-08
-1.40172e-07
3.31276e-05
-6.69101e-10
1.43647e-08
3.30424e-05
-3.5345e-08
8.3552e-08
3.29721e-05
3.68966e-08
7.0818e-08
3.29552e-05
-1.71362e-08
4.89625e-08
3.309e-05
1.04435e-09
1.71768e-08
3.32005e-05
-3.61582e-08
1.25294e-07
3.31023e-05
-8.21927e-08
2.22498e-07
3.29167e-05
-1.95185e-08
2.22995e-07
3.29013e-05
4.18134e-08
2.14181e-08
3.29953e-05
9.85499e-09
-1.50774e-07
3.30693e-05
1.31949e-08
-1.45719e-07
3.30364e-05
4.91097e-08
-1.29496e-07
3.28416e-05
-4.63891e-08
-2.14616e-08
3.27701e-05
5.02981e-09
-1.32828e-07
3.28336e-05
4.54527e-08
-2.07069e-08
3.291e-05
5.37606e-08
-1.00904e-07
3.29113e-05
1.08275e-07
-4.40837e-08
3.28152e-05
1.22447e-07
-1.91561e-07
3.2836e-05
1.20827e-07
-1.17474e-07
3.3002e-05
9.2497e-08
-1.54625e-07
3.31154e-05
1.83474e-08
-1.28438e-07
3.25492e-08
1.37903e-08
6.21094e-05
-1.08714e-07
8.13772e-08
6.20853e-05
-5.98038e-11
-1.44316e-07
6.22279e-05
-4.98266e-08
-1.14835e-07
6.23079e-05
-1.49422e-07
-9.0271e-08
6.22504e-05
-9.04226e-08
-2.11201e-07
6.19342e-05
-7.24302e-08
1.95908e-07
6.18091e-05
1.90311e-08
2.04862e-07
6.19802e-05
1.28622e-07
-7.85845e-08
6.21044e-05
1.18922e-07
-1.24716e-07
6.21165e-05
1.2155e-07
3.02346e-08
6.19058e-05
4.9019e-08
1.59813e-08
6.16673e-05
4.8285e-08
-6.96913e-09
6.18015e-05
1.90165e-07
-4.45204e-08
6.20184e-05
2.04834e-07
-1.49758e-07
6.20192e-05
2.00365e-07
-5.76699e-08
6.1935e-05
2.27418e-07
-1.95712e-07
6.18731e-05
-2.46322e-08
-6.2124e-08
6.21236e-05
1.56453e-07
-2.60094e-07
6.23062e-05
-3.02405e-08
3.89447e-09
6.21691e-05
-1.05754e-07
1.23409e-07
6.20353e-05
5.96503e-08
1.33849e-07
6.1971e-05
-3.35273e-09
1.10307e-07
6.21957e-05
7.45988e-08
2.36239e-08
6.2437e-05
-7.99317e-08
1.84037e-07
6.22982e-05
-2.31534e-07
3.69883e-07
6.19425e-05
-5.73744e-08
4.2023e-07
6.18726e-05
1.43997e-07
8.08519e-08
6.20294e-05
7.8735e-08
-2.72006e-07
6.21813e-05
5.30447e-08
-2.9559e-07
6.21716e-05
4.30872e-08
-2.61824e-07
6.18176e-05
-1.46404e-07
-3.1611e-08
6.16353e-05
7.12676e-08
-2.14427e-07
6.1725e-05
1.77379e-07
-3.20877e-08
6.18763e-05
1.65425e-07
-2.11836e-07
6.19101e-05
2.19879e-07
-1.03443e-07
6.17373e-05
2.32951e-07
-3.2979e-07
6.17378e-05
3.0192e-07
-1.88724e-07
6.20272e-05
2.51473e-07
-2.66214e-07
6.22618e-05
4.88216e-08
-2.76288e-07
1.52234e-08
-8.79849e-09
9.81882e-05
-2.71305e-07
1.32941e-07
9.80837e-05
4.28919e-08
-1.50453e-07
9.82775e-05
-1.3375e-08
-1.56535e-07
9.84257e-05
-1.87181e-07
-1.85328e-07
9.84121e-05
-1.85872e-07
-4.39856e-07
9.79509e-05
-2.11788e-07
2.30727e-07
9.76606e-05
8.89504e-08
4.04561e-07
9.78632e-05
3.60526e-07
-7.83652e-08
9.80858e-05
2.78835e-07
-2.67526e-07
9.8171e-05
2.05729e-07
-5.115e-08
9.78931e-05
1.60616e-08
3.37393e-08
9.7464e-05
9.62995e-08
5.95208e-08
9.75811e-05
4.68247e-07
-4.04499e-08
9.79319e-05
4.57188e-07
-2.77604e-07
9.80024e-05
3.23891e-07
-1.54893e-07
9.79096e-05
3.03761e-07
-2.82422e-07
9.77429e-05
-1.65181e-08
-2.1862e-08
9.80691e-05
4.12053e-07
-3.9765e-07
9.8426e-05
-2.98869e-08
-9.5004e-08
9.82756e-05
-2.24616e-07
1.04064e-07
9.80667e-05
4.71115e-08
2.02533e-07
9.78995e-05
2.57066e-08
2.33647e-07
9.81812e-05
2.61442e-07
3.37545e-08
9.86163e-05
-7.27537e-08
1.66329e-07
9.85096e-05
-4.64157e-07
4.56266e-07
9.79528e-05
-1.65262e-07
6.74575e-07
9.77529e-05
2.99505e-07
2.73467e-07
9.79462e-05
2.53841e-07
-3.57897e-07
9.82068e-05
1.71117e-07
-5.11086e-07
9.82969e-05
1.55936e-08
-4.95368e-07
9.77813e-05
-3.40994e-07
-5.16896e-08
9.74042e-05
1.76717e-07
-2.66895e-07
9.74694e-05
4.40785e-07
-2.57377e-08
9.77125e-05
4.03518e-07
-3.77881e-07
9.78373e-05
3.77181e-07
-2.18971e-07
9.75922e-05
3.29843e-07
-4.73431e-07
9.75119e-05
5.58107e-07
-2.38061e-07
9.79082e-05
5.50457e-07
-3.62292e-07
9.83177e-05
1.50179e-07
-5.20813e-07
-3.4946e-08
-1.2391e-07
0.000142305
-5.53664e-07
1.30684e-07
0.000142048
7.38068e-08
-7.19698e-08
0.000142248
1.08507e-07
-1.36929e-07
0.000142483
-1.13429e-07
-2.84858e-07
0.000142603
-2.56386e-07
-8.45e-07
0.000142037
-4.64681e-07
8.75301e-08
0.000141473
1.31189e-07
7.10748e-07
0.00014162
7.48885e-07
6.73939e-08
0.000141961
6.06973e-07
-4.68403e-07
0.0001422
3.63526e-07
-2.77476e-07
0.000141924
-5.07895e-08
-2.24151e-08
0.000141235
8.98444e-08
2.04795e-07
0.000141219
8.74556e-07
7.06487e-08
0.000141712
9.17758e-07
-4.4026e-07
0.000141934
5.30909e-07
-3.65548e-07
0.000141892
3.42764e-07
-4.45763e-07
0.000141551
-5.15953e-08
1.0742e-07
0.000141871
8.4616e-07
-4.84929e-07
0.000142478
1.10453e-07
-3.1758e-07
0.000142399
-3.51058e-07
-6.51683e-08
0.000142128
-3.19528e-08
2.07639e-07
0.000141783
2.52218e-08
4.50871e-07
0.000142031
5.966e-07
1.09603e-07
0.000142715
1.05869e-07
4.96889e-08
0.000142779
-7.14108e-07
3.68694e-07
0.000142031
-3.98854e-07
9.17768e-07
0.000141591
4.5651e-07
6.79749e-07
0.000141747
5.5495e-07
-2.83924e-07
0.000142131
4.48716e-07
-7.61049e-07
0.000142443
3.42705e-08
-9.15628e-07
0.000141817
-6.56936e-07
-1.52129e-07
0.000141139
2.56988e-07
-2.71756e-07
0.000141075
8.51587e-07
5.77722e-08
0.0001414
8.52573e-07
-5.80767e-07
0.000141708
6.45308e-07
-4.54658e-07
0.000141436
3.81952e-07
-6.64652e-07
0.000141189
8.30659e-07
-2.52778e-07
0.000141624
1.02747e-06
-3.5988e-07
0.000142257
4.19858e-07
-8.56468e-07
-6.97472e-08
-4.39607e-07
0.000195509
-9.29106e-07
-1.30284e-07
0.000195031
1.34275e-08
6.20348e-08
0.000195142
2.94882e-07
6.02161e-08
0.000195445
1.62083e-07
-2.51097e-07
0.000195815
-1.66369e-07
-1.44207e-06
0.00019527
-8.1131e-07
-4.68015e-07
0.000194331
4.32664e-08
1.0207e-06
0.000194261
1.27035e-06
5.08609e-07
0.000194691
1.19566e-06
-5.92039e-07
0.000195178
7.09223e-07
-7.32891e-07
0.00019505
-1.10537e-07
-3.01102e-07
0.000194071
-5.67822e-08
3.74324e-07
0.000193738
1.35458e-06
3.893e-07
0.000194322
1.66829e-06
-5.21987e-07
0.000194787
9.44415e-07
-7.30812e-07
0.000194925
3.82046e-07
-8.52638e-07
0.000194362
-2.20154e-07
2.89854e-07
0.000194509
1.43267e-06
-3.68652e-07
0.000195409
5.3034e-07
-5.86726e-07
0.000195538
-4.00473e-07
-4.38445e-07
0.000195278
-1.58625e-07
-5.14869e-08
0.00019469
-8.84748e-08
7.19424e-07
0.000194735
1.04451e-06
3.91816e-07
0.000195658
6.00773e-07
-7.31476e-08
0.000196097
-7.79669e-07
-4.42819e-08
0.000195262
-7.67493e-07
9.28488e-07
0.000194465
5.04969e-07
1.29523e-06
0.000194444
9.41058e-07
1.76918e-07
0.000194904
9.65493e-07
-8.72315e-07
0.000195589
2.46156e-07
-1.58268e-06
0.000195004
-1.0674e-06
-5.03974e-07
0.000193941
2.00063e-07
-2.81107e-07
0.000193571
1.36751e-06
3.14114e-07
0.000193898
1.58915e-06
-6.96311e-07
0.000194496
1.16616e-06
-8.7436e-07
0.000194325
4.13494e-07
-1.03368e-06
0.000193829
1.00501e-06
-2.862e-07
0.00019416
1.64223e-06
-1.08072e-07
0.000195012
9.83185e-07
-1.14382e-06
5.89366e-08
-1.06886e-06
0.000258695
-1.31765e-06
-8.95156e-07
0.00025799
-2.15518e-07
7.49048e-09
0.000257871
4.81566e-07
4.59405e-07
0.000258135
6.76309e-07
2.13654e-07
0.000258846
2.86202e-07
-2.02998e-06
0.000258571
-1.12395e-06
-1.69579e-06
0.000257244
-2.96219e-07
9.56576e-07
0.000256724
1.78205e-06
1.34748e-06
0.000257111
2.07201e-06
-2.82738e-07
0.000257902
1.40566e-06
-1.3164e-06
0.000258154
-1.43415e-09
-1.08362e-06
0.000256975
-3.88974e-07
2.97766e-07
0.000256102
1.72567e-06
1.03067e-06
0.000256604
2.70211e-06
-2.21884e-07
0.000257364
1.74053e-06
-1.13147e-06
0.000257894
5.6852e-07
-1.75124e-06
0.000257156
-6.007e-07
2.66411e-07
0.000256884
2.0002e-06
1.33958e-07
0.000258012
1.32767e-06
-6.26091e-07
0.00025851
-1.67417e-07
-9.99341e-07
0.000258427
-2.83491e-07
-7.85969e-07
0.00025761
-3.95198e-07
7.71707e-07
0.000257213
1.44739e-06
1.00831e-06
0.000258217
1.47439e-06
1.20873e-07
0.000259242
-4.42738e-07
-6.5762e-07
0.000258579
-1.13494e-06
3.21251e-07
0.000257378
3.33512e-07
1.82631e-06
0.000256976
1.31636e-06
1.15095e-06
0.000257347
1.75368e-06
-4.28725e-07
0.000258519
8.50881e-07
-2.35782e-06
0.000258258
-1.42342e-06
-1.36362e-06
0.000256826
-9.19445e-08
-5.46383e-07
0.000255932
1.82391e-06
8.26646e-07
0.000256053
2.59374e-06
-4.05269e-07
0.000257
2.13366e-06
-1.4018e-06
0.000257163
5.75938e-07
-1.79238e-06
0.000256416
9.71031e-07
-5.84199e-07
0.000256425
2.26526e-06
4.49829e-07
0.000257374
1.90247e-06
-1.00895e-06
5.82655e-07
-1.93174e-06
0.000332378
-1.42139e-06
-2.39738e-06
0.000331594
-6.02287e-07
-7.83846e-07
0.000331117
4.91517e-07
8.58418e-07
0.000331119
1.29267e-06
1.48348e-06
0.000332131
1.25713e-06
-1.96007e-06
0.000332472
-1.10439e-06
-3.61101e-06
0.000330944
-8.70688e-07
-2.17177e-07
0.000329749
2.04642e-06
2.27136e-06
0.000329823
3.08385e-06
9.5379e-07
0.000330838
2.55598e-06
-1.48301e-06
0.000331732
5.39174e-07
-2.48256e-06
0.000330647
-7.99854e-07
-6.12899e-07
0.000329077
1.76186e-06
1.75283e-06
0.000329182
3.81994e-06
8.68262e-07
0.000330145
3.02253e-06
-1.04313e-06
0.000331314
1.17415e-06
-3.22596e-06
0.000330642
-1.14407e-06
-5.66339e-07
0.0003297
2.35082e-06
8.07792e-07
0.000330806
2.36479e-06
7.99655e-08
0.000331765
5.582e-07
-1.29422e-06
0.000332114
-1.52316e-07
-2.20779e-06
0.000331255
-8.82673e-07
-3.64959e-09
0.000330202
1.55955e-06
1.75572e-06
0.000330913
2.56601e-06
1.12583e-06
0.000332595
5.45697e-07
-1.03652e-06
0.000332518
-1.17535e-06
-1.16309e-06
0.000331057
-1.13711e-09
1.53396e-06
0.000330086
1.47467e-06
2.44375e-06
0.000330041
2.65142e-06
1.13907e-06
0.000331653
1.94259e-06
-2.61262e-06
0.000332097
-1.44186e-06
-2.81064e-06
0.000330529
-5.56871e-07
-1.62536e-06
0.000328949
2.00235e-06
1.33267e-06
0.000328502
3.63717e-06
7.48105e-07
0.000329683
3.65893e-06
-1.55705e-06
0.00033049
1.17518e-06
-3.02325e-06
0.000329676
7.62416e-07
-1.67984e-06
0.000329148
2.6539e-06
1.05384e-06
0.00032989
3.01836e-06
8.1288e-08
1.68295e-06
-2.45656e-06
0.000416386
-8.92941e-07
-4.04719e-06
0.000415887
-9.29136e-07
-2.90136e-06
0.000415078
2.05583e-07
3.71986e-07
0.00041453
1.65336e-06
3.48631e-06
0.000415542
2.6408e-06
-1.69605e-07
0.000416791
-4.18174e-07
-5.34132e-06
0.000415527
-1.44831e-06
-3.05197e-06
0.000413619
1.89101e-06
2.17593e-06
0.000413023
3.8779e-06
3.15151e-06
0.000413938
3.9988e-06
-1.66061e-07
0.000415605
1.71813e-06
-3.86194e-06
0.000415128
-9.93634e-07
-2.93231e-06
0.000412956
1.36346e-06
1.63494e-06
0.00041229
4.63474e-06
2.74004e-06
0.000413111
4.66403e-06
4.84955e-07
0.000415041
2.44402e-06
-4.59755e-06
0.000414909
-1.59122e-06
-2.84475e-06
0.000413231
2.27178e-06
8.72516e-07
0.000413886
3.35589e-06
1.57987e-06
0.00041518
1.77871e-06
-3.50597e-07
0.000416193
5.4136e-07
-3.74726e-06
0.000415704
-1.32402e-06
-2.24179e-06
0.00041401
1.25855e-06
1.67875e-06
0.000413893
3.40808e-06
3.1105e-06
0.000415953
2.11016e-06
-5.04525e-08
0.000416878
-5.21129e-07
-2.97652e-06
0.000415586
-2.75226e-07
-4.7621e-07
0.000414053
1.29898e-06
2.93714e-06
0.00041318
3.30883e-06
3.92409e-06
0.00041487
3.40788e-06
-1.14457e-06
0.000416322
-8.47835e-07
-4.16169e-06
0.000415115
-9.32705e-07
-3.98778e-06
0.000412943
1.78528e-06
8.99768e-07
0.000411519
4.28397e-06
2.84129e-06
0.000412513
5.5072e-06
-3.41542e-07
0.000414178
2.51189e-06
-4.141e-06
0.000413727
6.67751e-07
-4.05849e-06
0.000412632
2.56732e-06
7.53646e-07
0.000412728
3.93012e-06
2.19645e-06
3.31265e-06
-1.45381e-06
0.000509519
3.05466e-07
-3.98449e-06
0.000509782
-8.1197e-07
-5.89311e-06
0.000508967
-2.89423e-07
-2.17409e-06
0.000507741
1.35939e-06
4.87446e-06
0.000508183
3.8524e-06
3.92164e-06
0.000510269
9.18212e-07
-4.80154e-06
0.000509896
-1.54512e-06
-6.89005e-06
0.00050764
1.35358e-06
-3.97388e-07
0.000506169
4.02477e-06
4.98898e-06
0.00050644
5.16844e-06
3.3841e-06
0.000508612
3.39828e-06
-3.3786e-06
0.000509272
-6.00211e-07
-6.18945e-06
0.00050702
6.64468e-07
-5.73945e-07
0.000505421
4.71125e-06
4.20801e-06
0.00050554
6.02884e-06
4.13994e-06
0.000507956
4.22207e-06
-3.98237e-06
0.000508902
-1.5507e-06
-6.14676e-06
0.000506844
1.77303e-06
-9.86875e-07
0.00050665
3.73423e-06
2.98886e-06
0.000507835
3.03183e-06
2.59951e-06
0.000509471
1.83966e-06
-3.6549e-06
0.000509859
-1.30023e-06
-5.5679e-06
0.000507982
6.2331e-07
-5.96423e-07
0.000506663
3.50083e-06
4.84136e-06
0.000508369
3.56964e-06
3.2828e-06
0.00051036
8.76969e-07
-3.24823e-06
0.000509854
-9.4433e-08
-3.87918e-06
0.000508167
9.25059e-07
9.30409e-07
0.000506251
3.40632e-06
6.45215e-06
0.000507319
4.68195e-06
2.89012e-06
0.000509682
2.90367e-07
-3.54689e-06
0.00050944
-8.32322e-07
-7.03004e-06
0.000507214
1.26856e-06
-1.65812e-06
0.000504671
4.12594e-06
4.68196e-06
0.000504771
6.94618e-06
3.02467e-06
0.000507108
4.45722e-06
-3.4586e-06
0.000507561
1.10835e-06
-7.10116e-06
0.000506263
2.04481e-06
-1.71432e-06
0.000505398
4.06614e-06
4.09759e-06
4.95804e-06
1.92455e-06
0.000609237
1.49194e-06
-3.33975e-07
0.000610451
-1.73047e-07
-7.03791e-06
0.000610184
-6.44258e-07
-6.39694e-06
0.000608629
3.74106e-07
3.32833e-06
0.000608002
4.03288e-06
8.41886e-06
0.000610245
2.18438e-06
-2.8519e-07
0.000611094
-1.0133e-06
-8.58059e-06
0.000609258
9.25767e-07
-5.16168e-06
0.000607215
3.42676e-06
3.91399e-06
0.000606425
5.31255e-06
7.56183e-06
0.000608325
4.75943e-06
6.31503e-07
0.000610171
3.30423e-07
-7.65379e-06
0.000608658
1.81581e-07
-4.732e-06
0.000606545
3.92254e-06
3.02856e-06
0.00060557
6.29352e-06
8.16316e-06
0.000607668
5.6545e-06
3.68695e-07
0.00060979
-9.4501e-07
-7.74008e-06
0.00060813
1.37403e-06
-4.85392e-06
0.000607134
3.1987e-06
2.09003e-06
0.000607646
3.35642e-06
6.34649e-06
0.000609381
3.12118e-06
-1.85722e-07
0.0006108
-7.45354e-07
-7.23391e-06
0.000609566
1.99969e-07
-5.07143e-06
0.000607352
2.78354e-06
3.7729e-06
0.00060786
3.94749e-06
7.48466e-06
0.000610268
2.32479e-06
5.43249e-08
0.000610901
6.43706e-07
-5.96326e-06
0.000609813
5.74769e-07
-3.54716e-06
0.000607266
2.98943e-06
5.77328e-06
0.000607066
5.07154e-06
7.70999e-06
0.000609571
1.35974e-06
7.21173e-07
0.000610516
-2.14242e-07
-7.93405e-06
0.00060911
1.01514e-06
-6.23615e-06
0.000606
3.22653e-06
3.8376e-06
0.000604671
7.07199e-06
7.15022e-06
0.000606886
6.03105e-06
6.45256e-07
0.000608422
2.08067e-06
-8.05367e-06
0.000607623
1.66705e-06
-6.1312e-06
0.000606038
3.28537e-06
3.15393e-06
5.50011e-06
6.39182e-06
0.000711368
1.57233e-06
4.66102e-06
0.000712922
3.17706e-07
-3.4844e-06
0.000713419
-6.17612e-07
-8.02198e-06
0.000712332
-7.35499e-07
-9.71939e-07
0.000710943
2.97205e-06
8.70123e-06
0.000712359
2.2422e-06
5.4526e-06
0.000713847
-5.094e-07
-4.95375e-06
0.000713088
9.26386e-07
-7.71962e-06
0.000711357
2.40536e-06
-1.63047e-07
0.000709887
4.24199e-06
7.91106e-06
0.000710689
4.72208e-06
5.95758e-06
0.000712807
9.88048e-07
-4.32933e-06
0.000712467
1.90163e-07
-6.91849e-06
0.000710824
2.63164e-06
-6.97275e-07
0.00070924
5.20908e-06
8.17848e-06
0.000710175
5.58537e-06
5.97183e-06
0.000712556
-4.54347e-07
-4.51797e-06
0.000711913
1.34563e-06
-6.80877e-06
0.000710821
2.00891e-06
-1.22652e-06
0.000710583
2.31331e-06
6.76388e-06
0.00071165
3.2433e-06
4.60557e-06
0.000713397
-2.77029e-07
-4.23055e-06
0.000713298
1.62243e-07
-7.46965e-06
0.000711347
1.75509e-06
-4.17853e-07
0.000710627
2.93668e-06
7.95552e-06
0.000712302
2.50169e-06
4.95292e-06
0.000713513
1.24393e-06
-3.4023e-06
0.000713496
4.52526e-07
-6.4281e-06
0.000711438
2.24257e-06
1.37332e-06
0.000710227
4.37777e-06
8.52046e-06
0.00071177
1.42338e-06
6.07293e-06
0.000713163
3.22539e-07
-3.92315e-06
0.000713066
1.14689e-06
-8.31066e-06
0.000710636
2.19969e-06
4.42523e-08
0.000708404
5.67407e-06
7.85919e-06
0.000709535
5.91452e-06
5.89704e-06
0.000711449
2.67248e-06
-4.16574e-06
0.00071152
1.64051e-06
-7.96213e-06
0.000710132
2.00321e-06
-7.36253e-07
4.54891e-06
7.27842e-06
0.000807809
5.94931e-07
4.36777e-06
0.000808587
1.88217e-07
8.41139e-07
0.000808985
-3.83089e-07
-3.8389e-06
0.000808642
-1.12051e-06
-2.25642e-06
0.000807789
1.42747e-06
4.31361e-06
0.000808261
1.1229e-06
5.19968e-06
0.000809026
-5.05965e-07
-1.32011e-07
0.000808993
1.08363e-06
-4.12652e-06
0.00080829
1.6931e-06
-1.54072e-06
0.000807461
2.56555e-06
3.7555e-06
0.000807513
3.23169e-06
5.6571e-06
0.00080854
9.20925e-07
1.62675e-07
0.000808626
4.82337e-07
-3.58007e-06
0.000807997
1.76538e-06
-1.79371e-06
0.000807171
3.39878e-06
3.87183e-06
0.000807334
3.9307e-06
5.80756e-06
0.000808498
-3.96614e-07
-1.01955e-07
0.000808417
1.47319e-06
-3.29522e-06
0.00080793
1.21247e-06
-2.10135e-06
0.000807657
7.57972e-07
3.19619e-06
0.00080795
2.10892e-06
4.41856e-06
0.000808847
-2.67752e-07
-9.04782e-08
0.000809064
3.46816e-07
-3.99313e-06
0.000808292
1.06796e-06
-2.03737e-06
0.000807694
1.34806e-06
3.75766e-06
0.000808267
1.49623e-06
4.64016e-06
0.00080884
1.23047e-06
4.50211e-07
0.000809103
3.31e-07
-3.281e-06
0.000808332
1.61868e-06
-7.46491e-07
0.000807597
2.94686e-06
4.39362e-06
0.000808068
6.08815e-07
5.4957e-06
0.000808652
2.80011e-07
9.1156e-07
0.000809014
1.28351e-06
-4.18108e-06
0.000808008
1.64777e-06
-1.40348e-06
0.000806746
3.5028e-06
4.12447e-06
0.000807
4.11442e-06
5.7368e-06
0.000808084
2.05713e-06
6.07173e-07
0.000808306
1.72709e-06
-3.8428e-06
0.000807735
1.13969e-06
-1.80574e-06
2.8181e-06
3.79908e-06
0.000895139
-9.03806e-08
1.24699e-06
0.000895308
1.79022e-08
1.12995e-06
0.000895347
-1.45279e-07
-4.16724e-07
0.000895314
-1.02678e-06
-7.02715e-07
0.000895079
5.11668e-07
1.26202e-06
0.00089518
2.85901e-07
1.75023e-06
0.000895235
-4.80959e-07
5.41964e-07
0.000895341
1.04239e-06
-6.92425e-07
0.000895267
1.20496e-06
-1.36712e-07
0.000895101
1.34075e-06
9.43879e-07
0.000895054
1.92107e-06
2.18617e-06
0.000895268
6.99497e-07
7.52381e-07
0.000895293
6.32848e-07
-4.34105e-07
0.000895193
1.26617e-06
-2.54222e-07
0.000895077
2.02735e-06
1.06607e-06
0.000895074
2.45048e-06
2.42559e-06
0.000895302
-3.29401e-07
5.04882e-07
0.000895317
1.37885e-06
-7.30755e-08
0.000895254
7.90481e-07
-4.82963e-07
0.000895137
-5.37752e-08
8.04851e-07
0.000895103
1.19575e-06
1.49619e-06
0.00089534
-2.73017e-07
3.77306e-07
0.000895382
5.37816e-07
-6.7068e-07
0.000895295
6.47736e-07
-6.45659e-07
0.000895099
3.72302e-07
8.8203e-07
0.000895224
7.04952e-07
1.42588e-06
0.00089528
1.03816e-06
7.91435e-07
0.000895372
2.36336e-07
-1.51571e-07
0.000895305
1.15734e-06
2.83441e-07
0.000895127
1.74165e-06
1.49359e-06
0.000895243
1.51619e-08
1.98259e-06
0.000895174
2.7921e-07
1.27534e-06
0.000895443
1.12069e-06
-4.37715e-07
0.000895199
1.32987e-06
-9.38881e-08
0.000894984
1.82698e-06
1.30932e-06
0.000894982
2.59963e-06
2.36133e-06
0.000895282
1.39408e-06
1.12647e-06
0.000895379
1.60985e-06
-3.79069e-07
0.000895246
6.83087e-07
-1.42896e-07
1.51897e-06
1.31377e-06
0.000984955
-3.08464e-07
7.40423e-08
0.000985054
-5.47421e-09
6.74168e-07
0.000985085
1.9963e-08
2.14219e-07
0.000985096
-8.73607e-07
-1.14841e-07
0.000984935
9.59077e-08
5.21896e-07
0.00098495
-8.34399e-08
4.28889e-07
0.000984912
-3.51552e-07
2.08e-07
0.000985052
8.98241e-07
6.67181e-08
0.000985079
8.71276e-07
2.69551e-07
0.000984975
6.21326e-07
2.75025e-07
0.000984904
1.16363e-06
8.05566e-07
0.000984998
6.1078e-07
3.56562e-07
0.000985074
6.49894e-07
2.15354e-07
0.000985064
9.30575e-07
2.31815e-07
0.000985019
1.21872e-06
3.92059e-07
0.000984941
1.53284e-06
1.08539e-06
0.000985032
-1.76266e-07
1.55975e-07
0.000985117
1.25811e-06
4.91597e-07
0.000985129
5.19299e-07
5.9297e-08
0.000984997
-3.89282e-07
2.19426e-07
0.000984897
7.36557e-07
3.68809e-07
0.000985048
-1.4419e-07
-3.74619e-09
0.000985095
5.79755e-07
3.67682e-08
0.000985135
3.61893e-07
-1.19567e-07
0.000984909
-4.13704e-08
1.93712e-07
0.00098498
2.89687e-07
2.38834e-07
0.000985004
9.20661e-07
4.05875e-07
0.000985075
2.31884e-07
3.98722e-07
0.000985172
8.18308e-07
6.78517e-07
0.000984948
1.03567e-06
7.7638e-07
0.000985046
-3.01489e-07
6.9759e-07
0.000984887
3.90581e-07
8.12587e-07
0.000985158
8.69959e-07
2.95109e-07
0.000985091
1.0519e-06
3.68709e-07
0.000984971
7.71109e-07
5.87311e-07
0.000984907
1.66974e-06
1.0038e-06
0.000985012
1.03107e-06
6.9262e-07
0.000985203
1.38385e-06
2.40297e-07
0.000985101
4.29685e-07
4.06346e-07
7.7554e-07
6.38495e-07
0.00108334
-4.04565e-07
-1.07445e-07
0.00108342
-4.39256e-09
5.13408e-07
0.00108349
1.27228e-07
2.10313e-07
0.00108351
-7.32529e-07
-3.54339e-08
0.00108334
-1.15572e-07
3.82187e-07
0.00108332
-2.68326e-07
1.32049e-07
0.0010833
-2.41773e-07
8.85982e-08
0.00108345
7.57756e-07
1.18093e-07
0.00108349
6.07279e-07
2.59561e-07
0.00108336
1.71968e-07
1.38803e-07
0.00108329
6.51887e-07
4.75726e-07
0.00108337
5.41564e-07
2.00513e-07
0.00108348
6.24845e-07
2.31003e-07
0.00108349
6.77482e-07
2.3217e-07
0.00108341
7.10373e-07
2.4201e-07
0.00108331
8.93613e-07
7.29376e-07
0.0010834
-5.27362e-08
-1.74227e-09
0.00108351
1.13616e-06
4.58303e-07
0.00108354
3.24268e-07
7.71305e-08
0.00108339
-5.2487e-07
9.24654e-08
0.00108328
4.47458e-07
1.53287e-07
0.00108343
-4.32814e-08
-1.27092e-07
0.00108348
5.969e-07
6.72209e-08
0.00108357
1.38662e-07
-7.70855e-08
0.00108329
-1.96569e-07
4.89069e-08
0.00108335
2.35693e-08
-4.47304e-09
0.00108342
8.13645e-07
2.39167e-07
0.00108343
2.52178e-07
3.80852e-07
0.00108363
5.15878e-07
5.94633e-07
0.00108331
6.46656e-07
5.72231e-07
0.00108342
-5.24889e-07
4.09743e-07
0.0010833
4.84278e-07
6.0984e-07
0.00108353
6.47408e-07
3.05886e-07
0.00108354
8.08579e-07
3.7732e-07
0.00108335
1.366e-07
4.1762e-07
0.00108331
1.00578e-06
6.62598e-07
0.00108335
7.84399e-07
5.53284e-07
0.00108361
1.12989e-06
2.08912e-07
0.00108349
3.12363e-07
4.24158e-07
2.77363e-07
5.01769e-07
0.00119159
-4.43674e-07
-1.47038e-07
0.00119166
-3.88816e-09
4.46946e-07
0.00119175
1.85591e-07
1.47111e-07
0.00119176
-6.18518e-07
-4.8466e-08
0.00119161
-2.28946e-07
3.4347e-07
0.00119156
-3.43253e-07
2.59163e-08
0.00119156
-1.70606e-07
5.10212e-08
0.0011917
6.27843e-07
8.81281e-08
0.00119175
4.05311e-07
1.67755e-07
0.00119161
-8.60371e-08
8.70962e-08
0.00119154
3.07913e-07
3.29269e-07
0.0011916
4.73134e-07
1.27358e-07
0.00119172
5.73656e-07
1.84937e-07
0.00119176
4.5799e-07
1.56448e-07
0.00119166
3.74651e-07
1.71401e-07
0.00119154
4.8728e-07
5.65886e-07
0.00119165
-5.44215e-09
-5.07794e-08
0.00119176
1.0095e-06
3.79717e-07
0.00119178
2.01316e-07
2.8683e-08
0.00119164
-5.54186e-07
2.7282e-08
0.00119152
2.55566e-07
1.00438e-07
0.00119168
3.54335e-08
-1.90666e-07
0.00119171
5.83364e-07
3.38866e-08
0.00119184
-3.74443e-08
-1.43287e-07
0.00119155
-1.74586e-07
-1.57825e-08
0.00119155
-1.49615e-07
-1.78176e-08
0.00119171
6.61837e-07
1.51429e-07
0.00119164
3.19568e-07
3.08266e-07
0.0011919
2.28856e-07
4.53024e-07
0.00119156
4.54926e-07
4.51938e-07
0.00119163
-6.57747e-07
3.00224e-07
0.0011916
5.2241e-07
4.74304e-07
0.00119173
5.05985e-07
2.41162e-07
0.00119184
5.55402e-07
3.09259e-07
0.0011916
-1.96641e-07
3.41432e-07
0.00119156
5.18735e-07
4.94095e-07
0.00119157
6.11145e-07
4.85801e-07
0.00119185
8.65644e-07
1.38032e-07
0.00119175
2.32264e-07
3.71954e-07
-1.86712e-08
4.31074e-07
0.00131067
-4.50658e-07
-1.70461e-07
0.00131073
-7.03149e-09
3.93676e-07
0.00131082
2.1683e-07
9.93527e-08
0.00131084
-5.41258e-07
-7.25004e-08
0.0013107
-2.71141e-07
3.13672e-07
0.00131063
-3.55458e-07
-3.90407e-08
0.00131065
-1.41879e-07
3.06102e-08
0.00131078
5.09455e-07
6.97474e-08
0.00131083
2.49093e-07
8.95172e-08
0.00131068
-2.14646e-07
6.95171e-08
0.00131062
9.05109e-08
2.21138e-07
0.00131068
3.94978e-07
7.66075e-08
0.00131079
5.18532e-07
1.53961e-07
0.00131085
2.81023e-07
8.30451e-08
0.00131075
1.72606e-07
1.23711e-07
0.0013106
2.5804e-07
4.39482e-07
0.00131071
-2.32005e-09
-1.05423e-07
0.00131084
8.77415e-07
3.03828e-07
0.00131085
1.27841e-07
-3.70552e-09
0.00131072
-5.24889e-07
-2.68326e-08
0.0013106
1.42543e-07
9.19698e-08
0.00131077
7.11904e-08
-2.46482e-07
0.00131075
5.77353e-07
1.83336e-08
0.00131092
-1.80415e-07
-1.52572e-07
0.00131068
-1.12896e-07
-5.98772e-08
0.00131058
-1.97615e-07
-1.2943e-08
0.00131084
4.6832e-07
5.35297e-08
0.00131069
4.19478e-07
2.48924e-07
0.00131098
-2.04811e-08
3.23899e-07
0.00131068
3.58657e-07
3.43828e-07
0.00131066
-6.86462e-07
2.2815e-07
0.00131074
4.75351e-07
3.59553e-07
0.00131077
4.43162e-07
2.03016e-07
0.00131093
3.05202e-07
2.43219e-07
0.00131068
-3.24857e-07
2.75797e-07
0.00131065
1.82103e-07
3.72083e-07
0.00131065
4.76369e-07
4.44267e-07
0.0013109
6.30375e-07
7.81112e-08
0.00131085
1.7229e-07
2.97949e-07
-1.68018e-07
3.96502e-07
0.00144166
-4.26224e-07
-1.92961e-07
0.00144173
-2.83397e-08
3.53764e-07
0.0014418
2.36788e-07
6.75159e-08
0.00144182
-4.77172e-07
-1.07058e-07
0.00144172
-2.86173e-07
3.034e-07
0.00144162
-3.244e-07
-8.20389e-08
0.00144165
-1.39186e-07
2.31157e-08
0.00144177
4.0655e-07
6.77133e-08
0.00144182
1.27342e-07
9.01953e-09
0.00144168
-2.51038e-07
6.89252e-08
0.00144162
-2.81802e-08
1.43052e-07
0.00144168
3.11511e-07
2.27787e-08
0.00144176
4.81801e-07
1.42644e-07
0.00144183
1.43127e-07
2.35666e-08
0.00144176
2.07941e-08
8.025e-08
0.00144159
1.72935e-07
3.59604e-07
0.00144169
-3.05543e-08
-1.45655e-07
0.00144184
7.20242e-07
2.48995e-07
0.00144182
1.29612e-07
-3.77013e-08
0.00144171
-4.69188e-07
-7.50841e-08
0.0014416
7.32984e-08
1.02588e-07
0.00144178
6.86984e-08
-2.81653e-07
0.00144172
5.82522e-07
4.62355e-09
0.00144187
-2.80097e-07
-1.58282e-07
0.00144174
-5.11531e-08
-1.1997e-07
0.00144152
-1.29598e-07
2.81692e-08
0.00144185
2.37734e-07
-1.00247e-08
0.00144168
5.19608e-07
1.9441e-07
0.00144192
-1.86009e-07
2.32234e-07
0.00144173
2.89792e-07
2.45776e-07
0.0014416
-6.07994e-07
1.87005e-07
0.00144178
3.47095e-07
2.59628e-07
0.00144174
4.51242e-07
1.6653e-07
0.00144191
9.5392e-08
1.91318e-07
0.0014417
-3.45807e-07
2.25976e-07
0.00144164
-1.60732e-08
2.70547e-07
0.00144165
3.60962e-07
3.93626e-07
0.00144186
4.5355e-07
4.0045e-08
0.00144185
1.01021e-07
2.33354e-07
-2.11812e-07
3.71488e-07
0.00158575
-3.74879e-07
-2.04707e-07
0.00158583
-6.82063e-08
3.12134e-07
0.00158589
2.4911e-07
6.01677e-08
0.00158589
-4.12282e-07
-1.44138e-07
0.00158583
-2.88122e-07
3.0167e-07
0.00158572
-2.67974e-07
-1.20529e-07
0.00158575
-1.39204e-07
-3.35159e-09
0.00158585
3.18989e-07
8.95308e-08
0.00158591
4.55018e-08
-8.58913e-08
0.00158578
-2.33653e-07
7.71513e-08
0.00158571
-6.30696e-08
9.58067e-08
0.00158579
1.96416e-07
-2.68882e-08
0.00158585
4.45463e-07
1.49545e-07
0.00158589
8.26459e-08
-3.29793e-08
0.00158588
-1.03012e-07
3.35476e-08
0.0015857
1.72855e-07
3.06791e-07
0.00158575
-4.1308e-08
-1.84118e-07
0.00158593
5.39204e-07
1.90568e-07
0.00158591
1.51789e-07
-2.61021e-08
0.00158581
-3.98793e-07
-1.23711e-07
0.00158569
3.84295e-08
1.26302e-07
0.00158589
3.25254e-08
-3.015e-07
0.00158581
5.86403e-07
-2.11835e-08
0.0015859
-3.16638e-07
-1.02987e-07
0.00158591
-5.92071e-08
-1.72431e-07
0.00158559
1.4607e-08
6.10003e-08
0.00158594
9.51832e-09
-3.58378e-08
0.0015858
5.70239e-07
1.37542e-07
0.00158595
-2.54992e-07
1.80349e-07
0.00158589
2.014e-07
1.55927e-07
0.00158565
-4.43401e-07
1.60655e-07
0.0015859
1.67413e-07
1.771e-07
0.00158584
4.76594e-07
1.43214e-07
0.00158596
-3.79147e-08
1.6093e-07
0.00158582
-3.37869e-07
1.73818e-07
0.00158573
-1.03325e-07
1.91423e-07
0.00158576
2.53884e-07
3.58944e-07
0.00158591
3.30664e-07
2.536e-08
0.00158594
3.53763e-08
1.56496e-07
-1.98557e-07
3.56191e-07
0.00174425
-2.93438e-07
-2.05699e-07
0.00174434
-1.1784e-07
2.62713e-07
0.00174439
2.47476e-07
6.91529e-08
0.00174437
-3.27087e-07
-1.91741e-07
0.00174435
-2.89437e-07
3.0005e-07
0.00174425
-2.11208e-07
-1.3392e-07
0.00174426
-1.2885e-07
-3.21848e-08
0.00174434
2.46963e-07
1.32733e-07
0.0017444
-1.14306e-08
-1.58512e-07
0.0017443
-1.96108e-07
6.94871e-08
0.00174421
-3.76787e-08
8.78464e-08
0.0017443
6.58806e-08
-7.60451e-08
0.00174437
3.92246e-07
1.58941e-07
0.00174435
1.05806e-07
-5.99762e-08
0.00174438
-2.14656e-07
-2.61261e-08
0.00174425
1.82664e-07
2.88125e-07
0.00174424
5.19257e-10
-1.96829e-07
0.00174442
3.39207e-07