/*--------------------------------*- C++ -*----------------------------------*\
  =========                 |
  \\      /  F ield         | OpenFOAM: The Open Source CFD Toolbox
   \\    /   O peration     | Website:  https://openfoam.org
    \\  /    A nd           | Version:  10
     \\/     M anipulation  |
\*---------------------------------------------------------------------------*/
FoamFile
{
    format      ascii;
    class       volVectorField;
    location    "2.5";
    object      U;
}
// * * * * * * * * * * * * * * * * * * * * * * * * * * * * * * * * * * * * * //

dimensions      [0 1 -1 0 0 0 0];

internalField   nonuniform List<vector> 
102400
(
(0.0395483 -7.18188e-07 -2.1528e-05)
(0.0393856 -9.74e-07 -7.174e-05)
(0.0395609 1.03617e-06 -1.22809e-05)
(0.0395956 -8.96978e-07 -1.1089e-05)
(0.0396371 -6.74214e-07 -8.36212e-05)
(0.0394725 -1.21784e-06 -9.57923e-06)
(0.0392267 -2.04713e-06 3.47805e-05)
(0.0393697 1.56705e-07 4.67787e-05)
(0.0394892 1.3527e-06 -1.54808e-06)
(0.0395075 6.37168e-07 3.20747e-05)
(0.0394534 -5.65306e-07 -6.64708e-05)
(0.0392128 -1.91091e-06 -6.5793e-05)
(0.0391912 -1.55859e-07 3.55125e-05)
(0.0394382 1.87732e-06 3.22759e-05)
(0.0394621 9.66249e-07 3.23089e-05)
(0.0393875 2.33384e-06 -0.00010151)
(0.0393339 -7.86077e-07 -5.85774e-05)
(0.0393531 8.37946e-07 -3.29955e-05)
(0.039688 2.12266e-06 3.77977e-05)
(0.0395464 -1.32275e-06 2.60454e-05)
(0.0394609 -2.32567e-07 6.9548e-06)
(0.0393927 -8.63047e-07 1.49192e-05)
(0.0394245 5.2633e-07 5.05731e-05)
(0.0397101 1.54252e-06 0.000130582)
(0.0396895 -1.6904e-06 8.67426e-05)
(0.0394669 -2.58796e-06 7.52842e-05)
(0.0392532 -9.58662e-07 2.86948e-05)
(0.0394373 5.12907e-07 -3.53298e-05)
(0.0394837 5.24157e-07 -6.17885e-05)
(0.039598 1.45807e-06 -0.000127308)
(0.0394028 -1.45435e-06 -0.000152335)
(0.0391304 -2.12406e-06 -0.000173811)
(0.039238 9.4303e-08 -2.45176e-06)
(0.0392973 9.09634e-07 -2.78607e-05)
(0.039417 9.15135e-07 1.95775e-06)
(0.0392906 4.73496e-07 -0.000146682)
(0.0391912 1.20265e-06 -2.97773e-05)
(0.039341 3.16518e-06 -9.38567e-06)
(0.0395933 1.59559e-06 4.55299e-06)
(0.0395985 1.31694e-06 3.08313e-05)
(0.120839 -1.38539e-06 -0.000126315)
(0.120291 -3.6707e-06 -0.000208748)
(0.120791 -4.40338e-06 2.32861e-05)
(0.120906 -9.55014e-06 -2.30814e-05)
(0.121046 -1.77832e-06 -0.000288556)
(0.120613 7.86372e-07 -4.98748e-05)
(0.119833 -4.6629e-06 0.000134084)
(0.120184 -1.18725e-06 0.000158036)
(0.120556 4.45077e-06 9.41508e-06)
(0.120648 8.04844e-06 5.58799e-05)
(0.120523 6.68105e-06 -0.000234256)
(0.119797 -4.01304e-07 -0.000170692)
(0.119666 4.9126e-07 0.000154799)
(0.120385 6.93481e-06 0.000123232)
(0.12049 1.21429e-05 3.75099e-05)
(0.120318 1.75612e-05 -0.000343727)
(0.120159 -3.36198e-06 -0.00015935)
(0.120122 4.72436e-07 -4.67607e-05)
(0.121168 1.66304e-06 0.000149972)
(0.120803 -2.28221e-06 4.55596e-05)
(0.12054 4.84188e-06 -2.26808e-05)
(0.120321 -3.00572e-06 5.29094e-05)
(0.12035 -3.01641e-06 0.00020545)
(0.12123 -3.14788e-06 0.000400633)
(0.121244 -6.6814e-06 0.000214702)
(0.120588 -1.95382e-06 0.000176026)
(0.119882 1.87394e-06 7.95984e-05)
(0.120404 -1.28973e-06 -8.79901e-05)
(0.120534 1.72986e-07 -0.000179732)
(0.120935 8.31849e-06 -0.00041233)
(0.120423 -1.984e-06 -0.000485973)
(0.119536 -2.52421e-06 -0.000470268)
(0.119793 1.29698e-06 7.11056e-05)
(0.119966 3.86145e-06 -6.0404e-05)
(0.120362 1.21675e-05 -3.3965e-05)
(0.120021 1.48614e-05 -0.000469704)
(0.11969 1.2158e-05 -6.73041e-05)
(0.120091 8.74371e-06 2.39799e-05)
(0.12086 2.14475e-06 2.17647e-05)
(0.120936 6.80001e-06 5.36974e-05)
(0.206743 -1.04254e-05 -0.000260627)
(0.205714 -3.20237e-06 -0.00034476)
(0.206464 -9.13905e-06 9.08263e-05)
(0.206681 -2.30729e-05 -9.53641e-06)
(0.206976 -1.08461e-05 -0.000541148)
(0.206402 -5.87216e-06 -0.000155853)
(0.204992 -2.06141e-06 0.000252826)
(0.205393 1.01313e-05 0.000300286)
(0.206041 1.38298e-05 2.3958e-05)
(0.206275 1.82312e-05 4.948e-05)
(0.206178 1.14706e-05 -0.00041174)
(0.204966 5.08243e-06 -0.000277392)
(0.20455 1.77326e-05 0.000286857)
(0.205704 2.39486e-05 0.000233793)
(0.205988 2.86896e-05 1.71197e-05)
(0.205796 3.767e-05 -0.000604578)
(0.205532 -4.34282e-06 -0.000261615)
(0.205253 1.43021e-05 -4.98656e-05)
(0.207074 -2.74366e-06 0.000264952)
(0.206626 -1.19345e-05 4.0122e-05)
(0.206187 1.05202e-05 -9.16469e-05)
(0.205786 -2.69464e-06 8.80606e-05)
(0.205666 3.61626e-06 0.000373103)
(0.207152 -1.12821e-05 0.000663597)
(0.207373 -2.80543e-05 0.00031276)
(0.206367 -6.94627e-06 0.000250915)
(0.205025 1.572e-05 0.000168114)
(0.205789 5.7734e-06 -9.92513e-05)
(0.205996 3.8184e-06 -0.000279359)
(0.206781 1.13918e-05 -0.000711704)
(0.206117 -1.4914e-05 -0.000842363)
(0.204495 4.60335e-06 -0.000768908)
(0.204761 1.68871e-05 0.000173188)
(0.205015 1.75564e-05 -7.98286e-05)
(0.205764 3.06031e-05 -8.35726e-05)
(0.205314 3.56518e-05 -0.000813188)
(0.204675 3.97166e-05 -0.000125413)
(0.205197 3.06807e-05 9.62524e-05)
(0.206514 5.64876e-06 2.82331e-05)
(0.206778 7.76904e-06 3.9524e-05)
(0.2972 -3.29777e-05 -0.000406033)
(0.295586 2.53899e-06 -0.000494589)
(0.296431 -8.01878e-06 0.000165061)
(0.296755 -3.55575e-05 6.62141e-05)
(0.297283 -2.76014e-05 -0.000830997)
(0.296811 -2.48403e-05 -0.00039513)
(0.294679 8.19841e-06 0.000355548)
(0.294849 4.15807e-05 0.000495947)
(0.295761 3.55135e-05 4.83057e-05)
(0.296233 3.18485e-05 1.91012e-05)
(0.296348 1.04403e-05 -0.000584643)
(0.294708 1.45406e-05 -0.000414362)
(0.293725 5.78412e-05 0.000397516)
(0.295195 6.01617e-05 0.000366295)
(0.295806 5.02635e-05 1.06366e-05)
(0.29573 5.72595e-05 -0.000872086)
(0.295403 -2.72775e-06 -0.000386338)
(0.294579 4.96997e-05 -7.37452e-05)
(0.297187 -7.10701e-06 0.000356732)
(0.296907 -3.09019e-05 1.99971e-05)
(0.296335 1.24603e-05 -0.000210311)
(0.295733 1.51953e-06 9.62866e-05)
(0.295218 2.80921e-05 0.000516537)
(0.297243 -1.63913e-05 0.000907112)
(0.297937 -6.70762e-05 0.000387803)
(0.296799 -2.14557e-05 0.000295098)
(0.29464 4.14552e-05 0.000323474)
(0.29545 2.89526e-05 -2.82847e-05)
(0.295688 1.77202e-05 -0.000327285)
(0.296972 8.47612e-06 -0.000999081)
(0.296467 -4.33824e-05 -0.00121601)
(0.293991 2.11142e-05 -0.00112481)
(0.294027 5.40864e-05 0.000257588)
(0.294261 5.03133e-05 -8.22011e-05)
(0.295455 5.67991e-05 -0.000120451)
(0.295109 5.77005e-05 -0.00116428)
(0.294084 8.41952e-05 -0.000258729)
(0.294483 7.5779e-05 0.000201274)
(0.296339 1.76239e-05 2.54232e-05)
(0.29696 1.36543e-06 -1.1264e-05)
(0.391637 -7.64399e-05 -0.000574233)
(0.389406 9.95141e-06 -0.000684072)
(0.390095 6.64686e-06 0.000225388)
(0.390476 -3.42946e-05 0.000264495)
(0.39129 -4.61689e-05 -0.00110833)
(0.391294 -6.36343e-05 -0.00085214)
(0.388454 1.9435e-05 0.000356435)
(0.387992 0.000101716 0.000776256)
(0.38906 8.24049e-05 0.000125962)
(0.389852 5.4803e-05 -3.36326e-05)
(0.390438 9.43783e-07 -0.000765605)
(0.388569 1.9288e-05 -0.000610806)
(0.386677 0.000124993 0.000465755)
(0.388196 0.000129518 0.000534468)
(0.389281 8.23707e-05 5.5803e-05)
(0.38952 7.06891e-05 -0.00115326)
(0.389286 -3.94862e-06 -0.000560404)
(0.387523 0.000117023 -0.0001246)
(0.390783 5.0638e-06 0.000417678)
(0.391005 -5.6869e-05 -5.26171e-06)
(0.390428 4.20135e-06 -0.000409967)
(0.389674 4.91494e-06 3.92865e-05)
(0.388439 7.92945e-05 0.000618679)
(0.390776 -6.81299e-07 0.00113776)
(0.392229 -0.000117404 0.00044151)
(0.391374 -5.65584e-05 0.000259101)
(0.388275 7.31389e-05 0.000536744)
(0.38882 7.5695e-05 0.000186925)
(0.388957 5.50956e-05 -0.000253923)
(0.390802 6.6476e-06 -0.00123982)
(0.390933 -9.42388e-05 -0.00160846)
(0.387596 3.91877e-05 -0.00159406)
(0.387072 0.000119961 0.000287415)
(0.387068 0.000116699 -4.8438e-05)
(0.388745 9.76565e-05 -0.000126306)
(0.388845 7.32972e-05 -0.00151379)
(0.38744 0.000138327 -0.00053283)
(0.387358 0.000153096 0.000337018)
(0.389629 5.31215e-05 5.24484e-05)
(0.390777 -8.23441e-06 -9.98348e-05)
(0.489106 -0.000143406 -0.000812586)
(0.486413 7.04507e-06 -0.000969855)
(0.486638 3.77564e-05 0.000240634)
(0.486925 -1.6246e-06 0.000667356)
(0.487962 -4.74695e-05 -0.00124072)
(0.488913 -0.000125188 -0.00158945)
(0.485624 1.58509e-05 8.11785e-05)
(0.484078 0.000191823 0.00114206)
(0.485024 0.000172945 0.000365173)
(0.486129 0.000103812 -7.75721e-05)
(0.487472 -1.30658e-05 -0.00100101)
(0.485802 4.36151e-06 -0.000918268)
(0.482717 0.000213217 0.000479265)
(0.483814 0.000249637 0.000776317)
(0.48542 0.000143099 0.000205795)
(0.486204 7.91832e-05 -0.00147319)
(0.486424 -2.31308e-05 -0.000842093)
(0.483334 0.000218195 -0.000184434)
(0.486845 6.01654e-05 0.000483065)
(0.487903 -7.70792e-05 -5.50869e-06)
(0.487562 -1.7169e-05 -0.000740664)
(0.486852 -5.64028e-06 -0.000160875)
(0.484592 0.000157723 0.000675443)
(0.486762 6.51831e-05 0.00140412)
(0.489129 -0.000152642 0.000501686)
(0.489193 -0.000120456 4.64286e-05)
(0.485239 9.34987e-05 0.000705985)
(0.485135 0.00014468 0.00059862)
(0.484906 0.000133489 7.1925e-05)
(0.487199 2.80707e-05 -0.00135824)
(0.488569 -0.000168339 -0.00202068)
(0.484616 4.02507e-05 -0.00223974)
(0.483198 0.000212144 0.000225921)
(0.482576 0.000234115 7.24019e-05)
(0.484611 0.000174155 -7.70178e-05)
(0.485593 8.04731e-05 -0.00185533)
(0.484025 0.000184126 -0.00103423)
(0.483053 0.000263001 0.000479209)
(0.485422 0.000135878 0.000208299)
(0.487156 -1.09361e-06 -0.00019393)
(0.588062 -0.000223128 -0.00115665)
(0.585376 -2.27044e-05 -0.00147057)
(0.584886 7.6107e-05 0.000114262)
(0.584819 7.77202e-05 0.00134275)
(0.585785 3.47902e-06 -0.0009612)
(0.588113 -0.000195266 -0.00253954)
(0.585008 -2.86372e-05 -0.000741082)
(0.582059 0.000294553 0.00145566)
(0.582403 0.000320415 0.000929589)
(0.583615 0.000208313 3.27805e-05)
(0.585898 -1.10796e-05 -0.00132874)
(0.585118 -4.6276e-05 -0.00145077)
(0.580835 0.000297095 0.000381447)
(0.580852 0.000429007 0.00115622)
(0.582787 0.00026413 0.000585928)
(0.584269 0.00010109 -0.00182901)
(0.585559 -7.94611e-05 -0.00136389)
(0.580978 0.000333974 -0.000268436)
(0.584008 0.000184473 0.000647607)
(0.58606 -6.10099e-05 0.000134643)
(0.586275 -4.58196e-05 -0.00122164)
(0.586028 -5.00244e-05 -0.000658775)
(0.582636 0.000243099 0.000631106)
(0.583916 0.000205513 0.0018041)
(0.586982 -0.00012825 0.000699896)
(0.588709 -0.000200384 -0.000420101)
(0.584379 7.82375e-05 0.000577658)
(0.583308 0.000220982 0.00114036)
(0.582321 0.000265336 0.000833686)
(0.584624 0.000109909 -0.00116502)
(0.587796 -0.000247691 -0.00240505)
(0.583854 1.22836e-06 -0.0031438)
(0.581383 0.000308405 -1.53557e-05)
(0.57964 0.000409807 0.000371849)
(0.581588 0.000322437 0.000113665)
(0.583838 9.65787e-05 -0.00215338)
(0.582662 0.000196961 -0.00187997)
(0.580512 0.000388913 0.000506151)
(0.582441 0.000286545 0.000639448)
(0.584536 6.26311e-05 -0.000143435)
(0.686211 -0.000274866 -0.00147062)
(0.684351 -9.0323e-05 -0.00232908)
(0.683154 9.49462e-05 -0.00040881)
(0.682465 0.000194724 0.00221193)
(0.68276 0.000148445 0.000116817)
(0.686574 -0.000227749 -0.00331622)
(0.684651 -0.000129062 -0.00234155)
(0.680404 0.000368583 0.00129161)
(0.679574 0.000513032 0.00188679)
(0.68041 0.000398187 0.000640041)
(0.68349 5.33992e-05 -0.00162374)
(0.684432 -0.000127451 -0.00236408)
(0.679478 0.000332861 -3.75901e-05)
(0.677768 0.000647384 0.00167789)
(0.679501 0.000477265 0.00144502)
(0.68154 0.000181202 -0.00204324)
(0.684672 -0.000177417 -0.00230641)
(0.678969 0.000423791 -0.000560265)
(0.68057 0.000375331 0.000988438)
(0.68337 3.61531e-05 0.000681797)
(0.684386 -4.93881e-05 -0.00169067)
(0.685214 -0.000135614 -0.00164678)
(0.681044 0.00029145 0.000246332)
(0.680674 0.000409822 0.00238588)
(0.683633 7.90781e-06 0.0013502)
(0.687544 -0.000248052 -0.0010065)
(0.683788 1.89282e-05 -0.000196485)
(0.681752 0.000270755 0.00144188)
(0.679631 0.000436383 0.00211408)
(0.681089 0.00028622 -0.000297235)
(0.686266 -0.000285404 -0.00253316)
(0.683323 -8.3721e-05 -0.00435429)
(0.680071 0.000367687 -0.000671034)
(0.676786 0.000618251 0.000901659)
(0.677799 0.000577627 0.000665991)
(0.681354 0.000170814 -0.00223391)
(0.681442 0.000166471 -0.00315251)
(0.678227 0.000489897 8.67969e-05)
(0.67909 0.000497085 0.00139775)
(0.680884 0.000229824 0.00039724)
(0.780463 -0.000226548 -0.00122661)
(0.780374 -0.000171976 -0.003456)
(0.778924 6.04269e-05 -0.00171616)
(0.777594 0.000295594 0.00280379)
(0.77644 0.000398034 0.00223732)
(0.781168 -0.000150822 -0.00307606)
(0.781472 -0.000257097 -0.00450093)
(0.776723 0.000367784 -2.2275e-05)
(0.774383 0.000696859 0.00284914)
(0.774162 0.000669446 0.00214192)
(0.777346 0.000236401 -0.00136729)
(0.780589 -0.000192619 -0.00361284)
(0.776142 0.00028456 -0.00116991)
(0.772489 0.000841884 0.002037)
(0.773247 0.00078104 0.00301833)
(0.775174 0.00038013 -0.001566)
(0.780688 -0.00028245 -0.00363308)
(0.774986 0.000440128 -0.0014783)
(0.774422 0.000588723 0.00130138)
(0.777205 0.000243072 0.00194312)
(0.778912 3.46312e-05 -0.00160194)
(0.781379 -0.000235307 -0.00307905)
(0.777388 0.000260448 -0.000938391)
(0.775068 0.0006092 0.00285451)
(0.776565 0.000284767 0.00281472)
(0.782424 -0.00018512 -0.00111824)
(0.780444 -5.41136e-05 -0.00170079)
(0.778005 0.000259053 0.000785758)
(0.774734 0.000590274 0.00351606)
(0.774235 0.000556819 0.00161755)
(0.780835 -0.000217879 -0.00183166)
(0.77992 -0.00017935 -0.00563725)
(0.776757 0.000351148 -0.00211845)
(0.771997 0.000786849 0.0014177)
(0.771009 0.000929445 0.00185726)
(0.775179 0.000373742 -0.00163083)
(0.77741 0.000127888 -0.00463681)
(0.773871 0.000510224 -0.00128139)
(0.773334 0.000707317 0.00210653)
(0.773788 0.00052106 0.00181949)
(0.867093 -2.78943e-05 0.000372997)
(0.869257 -0.000194503 -0.00408259)
(0.868397 -2.92486e-05 -0.00386596)
(0.866939 0.000299606 0.00218766)
(0.863887 0.000675101 0.00485091)
(0.868127 7.745e-05 -0.000876249)
(0.87106 -0.000329341 -0.00602724)
(0.86721 0.000281526 -0.00275298)
(0.863717 0.000788806 0.0027349)
(0.861964 0.000943444 0.00433266)
(0.864039 0.000549234 0.000266501)
(0.86929 -0.000165053 -0.00447577)
(0.86684 0.00016097 -0.00317962)
(0.861926 0.000926659 0.00144843)
(0.861159 0.0010931 0.00495922)
(0.861808 0.000713108 0.000385939)
(0.869344 -0.000317765 -0.00458541)
(0.865305 0.000367535 -0.00327112)
(0.862689 0.000730923 0.000854514)
(0.864441 0.000513243 0.00372129)
(0.866161 0.000252785 -0.000149837)
(0.870267 -0.000275859 -0.00417256)
(0.867768 0.000150197 -0.00314813)
(0.864228 0.000695926 0.0023351)
(0.863006 0.000616163 0.00488021)
(0.869403 4.442e-05 0.000184567)
(0.869977 -6.77509e-05 -0.00314526)
(0.868195 0.000193523 -0.00133072)
(0.86451 0.000656951 0.00387165)
(0.861307 0.000846058 0.0042955)
(0.867756 -1.69978e-05 0.000434309)
(0.869266 -0.000208948 -0.00607419)
(0.867446 0.000264876 -0.00442703)
(0.862175 0.000825675 0.00115672)
(0.858557 0.00127258 0.00353169)
(0.861808 0.000730736 0.000291617)
(0.866386 0.000168184 -0.00541861)
(0.863762 0.000438145 -0.00371581)
(0.862258 0.000811942 0.00175528)
(0.860484 0.000874531 0.00390202)
(0.942003 0.000256732 0.00325631)
(0.945688 -9.86273e-05 -0.00285194)
(0.946106 -0.000119087 -0.00566702)
(0.945444 0.000164623 -0.000164134)
(0.941143 0.000836053 0.00611336)
(0.943263 0.000384384 0.00295779)
(0.947809 -0.000269138 -0.00504291)
(0.946141 0.000174688 -0.00554892)
(0.942683 0.000740221 0.000627452)
(0.939777 0.00109374 0.00561911)
(0.939672 0.00089223 0.00330034)
(0.945338 -4.50098e-06 -0.00354397)
(0.945727 3.60012e-05 -0.00505593)
(0.941122 0.000850642 -0.000653911)
(0.939206 0.00127979 0.0057286)
(0.937637 0.0010798 0.00367812)
(0.9454 -0.000233301 -0.00367724)
(0.944267 0.00026991 -0.00500083)
(0.940904 0.000712711 -0.000987761)
(0.941112 0.000700706 0.00464653)
(0.941869 0.000555435 0.00264599)
(0.946557 -0.000199904 -0.0034285)
(0.946364 3.85831e-05 -0.00532318)
(0.943337 0.000624244 9.00221e-05)
(0.939473 0.000817184 0.00599426)
(0.944214 0.000379085 0.00300778)
(0.946813 4.90517e-05 -0.00283652)
(0.946593 0.000126046 -0.003927)
(0.943896 0.000623035 0.0020435)
(0.938606 0.00103343 0.00601742)
(0.942914 0.00023497 0.00400139)
(0.945894 -0.000116981 -0.00423906)
(0.946249 0.000188346 -0.00639432)
(0.942178 0.000711619 -0.000535037)
(0.936705 0.00144499 0.00445452)
(0.93738 0.00112954 0.00335816)
(0.943137 0.000341924 -0.00406394)
(0.942398 0.000345864 -0.00589619)
(0.941143 0.000741262 -0.000427215)
(0.9374 0.00112379 0.00505085)
(1.00067 0.000436719 0.00491652)
(1.00386 7.72269e-05 0.000279942)
(1.0052 -0.000144445 -0.0047638)
(1.0058 -9.91903e-05 -0.00254241)
(1.00213 0.000740272 0.00427929)
(1.00187 0.000570292 0.00536823)
(1.00564 -0.000107535 -0.00132533)
(1.00611 0.000141637 -0.00544167)
(1.00405 0.000552478 -0.00200676)
(1.0014 0.000999813 0.00405123)
(0.999517 0.00108485 0.00532089)
(1.0033 0.000230666 -0.000523665)
(1.00552 -4.54598e-06 -0.00449668)
(1.00276 0.000607905 -0.00279966)
(1.00109 0.00120245 0.00371186)
(0.998056 0.00129678 0.00569046)
(1.00336 -7.05126e-05 -0.000596085)
(1.00454 0.000229185 -0.00435837)
(1.00225 0.000508592 -0.00289939)
(1.00152 0.000621293 0.00314386)
(1.0011 0.000762437 0.00443662)
(1.0045 -4.44435e-05 -0.000511163)
(1.00587 -5.09237e-06 -0.00493639)
(1.00485 0.000423828 -0.00246893)
(1.0005 0.000749938 0.00427169)
(1.00234 0.000601594 0.00491677)
(1.00494 0.00024271 -0.000186899)
(1.00595 8.73299e-05 -0.00420853)
(1.00527 0.000494767 -0.000800051)
(1.00029 0.00102507 0.00471046)
(1.0017 0.000399023 0.0060988)
(1.00401 5.00801e-05 -0.000199616)
(1.00583 0.000184088 -0.00550554)
(1.00424 0.000484922 -0.00240755)
(0.999348 0.00131888 0.0031397)
(0.997439 0.00134575 0.00521989)
(1.00208 0.000577006 -0.000572185)
(1.0028 0.000321424 -0.00517725)
(1.00278 0.000496373 -0.00283153)
(0.999 0.00109014 0.00344513)
(1.03483 0.000256368 0.00268825)
(1.03594 9.32366e-05 0.00171364)
(1.03682 -8.28704e-05 -0.00141993)
(1.03738 -0.000260489 -0.00174984)
(1.03582 0.000390914 0.00131548)
(1.03535 0.000373994 0.00323855)
(1.03666 -7.16796e-05 0.000960682)
(1.03729 0.000191453 -0.00207875)
(1.03685 0.000372039 -0.0015447)
(1.03568 0.000654871 0.00111725)
(1.03445 0.000854578 0.00340118)
(1.03573 0.000265192 0.00119407)
(1.03699 6.29134e-05 -0.00141729)
(1.03613 0.000371805 -0.00192653)
(1.03552 0.000826829 0.000796635)
(1.03395 0.00104243 0.00349858)
(1.03579 -3.17092e-05 0.00116595)
(1.03664 0.000277891 -0.00122924)
(1.03607 0.000301683 -0.00189245)
(1.03545 0.000267111 0.000838749)
(1.03509 0.000574542 0.00256982)
(1.03625 -8.63087e-06 0.00116135)
(1.03712 3.60664e-05 -0.00166354)
(1.03727 0.000244549 -0.0019371)
(1.0352 0.000412142 0.00127547)
(1.03552 0.000431666 0.00291404)
(1.03649 0.000292589 0.00141065)
(1.0371 7.34534e-05 -0.00139388)
(1.03726 0.000348909 -0.000962356)
(1.03526 0.000746601 0.00183402)
(1.03541 0.000243602 0.00377291)
(1.03598 8.5818e-05 0.00196676)
(1.03708 0.00024957 -0.00174319)
(1.03702 0.000332123 -0.00155223)
(1.0349 0.000888105 0.000945777)
(1.03338 0.00106187 0.00327646)
(1.03542 0.00054867 0.00129025)
(1.036 0.000361044 -0.00168002)
(1.03632 0.000268413 -0.00198223)
(1.03467 0.000735823 0.000845747)
(1.04355 2.11168e-05 0.000375051)
(1.04351 1.27649e-05 0.000964949)
(1.04383 -3.82324e-05 0.0001599)
(1.04391 -0.000228339 -0.000253934)
(1.04355 0.000132346 0.00017081)
(1.04358 0.000107016 0.000715299)
(1.04356 -0.00011388 0.00057813)
(1.04365 0.000199372 -0.000129622)
(1.04392 0.000270866 -9.42201e-05)
(1.04363 0.000335304 -5.05797e-05)
(1.04334 0.000470327 0.000984463)
(1.04361 0.000160256 0.000623949)
(1.04374 0.000119011 0.000205359)
(1.04367 0.000277159 -0.00035135)
(1.04358 0.000476486 -0.000180072)
(1.04342 0.000596284 0.000945832)
(1.04357 -6.94086e-05 0.000613369)
(1.04369 0.000279135 0.000369714)
(1.04391 0.000190452 -0.000303065)
(1.04356 2.10344e-05 8.36172e-05)
(1.04349 0.000290528 0.000481113)
(1.0436 -5.8969e-05 0.000632001)
(1.04377 8.80054e-05 0.0001374)
(1.04399 0.000154758 -0.000405529)
(1.04352 0.000112885 4.60727e-05)
(1.04353 0.000185187 0.000565446)
(1.04368 0.000228551 0.000824155)
(1.04379 5.08498e-05 0.000288496)
(1.04381 0.000247709 0.000173789)
(1.04367 0.000427611 0.000527413)
(1.04363 4.51158e-05 0.00109736)
(1.04348 3.73249e-05 0.00130688)
(1.04376 0.000237493 0.000239683)
(1.04395 0.000288283 -9.7145e-05)
(1.0435 0.000461454 9.54703e-05)
(1.04318 0.000613194 0.000877604)
(1.04356 0.000330247 0.000684008)
(1.04375 0.000345568 6.35519e-05)
(1.04387 0.000162122 -0.000307796)
(1.04364 0.000385649 -2.29851e-05)
(1.0441 -4.05172e-05 -0.000130091)
(1.04395 -1.3964e-06 0.000542395)
(1.04419 3.80137e-06 0.000291814)
(1.04425 -0.000185726 7.86584e-05)
(1.04405 3.0672e-05 3.4158e-05)
(1.0441 1.22629e-05 8.23537e-05)
(1.04392 -8.71354e-05 0.000242687)
(1.04394 0.000184507 0.000156577)
(1.0443 0.000200577 0.000215455)
(1.04413 0.000170669 -0.000159355)
(1.04393 0.000284931 0.000309658)
(1.04406 0.000134755 0.000224595)
(1.04408 0.000128873 0.000363074)
(1.04415 0.000201641 1.71633e-05)
(1.04415 0.000285792 -0.000229252)
(1.0441 0.000386972 0.000276005)
(1.04398 -3.66006e-05 0.000229923)
(1.04407 0.000254577 0.000500503)
(1.04439 0.000144371 4.29955e-05)
(1.04411 -5.94712e-05 1.9355e-05)
(1.04402 0.000178497 -2.45716e-05)
(1.04399 -3.35196e-05 0.000270312)
(1.04409 0.000109086 0.000300495)
(1.04434 0.000101401 -2.38516e-05)
(1.04407 1.7386e-05 -9.55515e-05)
(1.04398 7.85056e-05 -8.72858e-06)
(1.04404 0.000197736 0.000432578)
(1.04413 4.84093e-05 0.000462011)
(1.04418 0.000180021 0.000428306)
(1.04422 0.000259931 0.000270573)
(1.04411 -2.21621e-05 0.000361384)
(1.0439 6.43647e-05 0.00077157)
(1.04408 0.00018951 0.000428934)
(1.04431 0.000230059 0.000213797)
(1.04415 0.000217216 1.41544e-05)
(1.04395 0.000400914 0.000200196)
(1.044 0.000237889 0.00030985)
(1.04415 0.000302698 0.000238289)
(1.0443 0.000104625 0.000100814)
(1.04424 0.00021139 -7.34297e-05)
(1.04408 -7.2819e-05 -0.000155225)
(1.04394 -2.84071e-06 0.000384841)
(1.04415 2.44609e-05 0.000216876)
(1.04424 -0.000155568 8.62345e-05)
(1.04407 -1.42888e-05 4.65797e-05)
(1.04408 -4.36537e-05 -1.04611e-05)
(1.04392 -6.62731e-05 0.000131019)
(1.04395 0.000154825 0.00012756)
(1.04428 0.00014682 0.000196733)
(1.04413 6.10417e-05 -0.000125209)
(1.04392 0.000162396 0.000179838)
(1.04403 0.000119319 9.84456e-05)
(1.04407 0.000129861 0.00027781)
(1.04415 0.000160638 3.24752e-05)
(1.04415 0.000173942 -0.000167898)
(1.04407 0.000225579 0.000143369)
(1.04395 -2.09673e-05 9.0267e-05)
(1.04406 0.000234217 0.000385035)
(1.04435 9.24265e-05 5.2609e-05)
(1.04411 -0.000101852 2.79092e-05)
(1.04401 0.000105998 -5.84349e-05)
(1.04397 -1.7696e-05 0.000139643)
(1.04407 0.000116365 0.000227316)
(1.04432 5.2306e-05 1.67289e-05)
(1.04406 -4.07931e-05 -8.36506e-05)
(1.04398 1.58125e-05 -7.63502e-05)
(1.04401 0.000178137 0.000274306)
(1.04411 4.97478e-05 0.00035282)
(1.04419 0.000123494 0.000351386)
(1.04419 0.000156878 0.000204183)
(1.04408 -8.95286e-05 0.000200506)
(1.0439 7.99512e-05 0.000531518)
(1.04408 0.000145989 0.000331591)
(1.04429 0.000194184 0.000202044)
(1.04416 6.55469e-05 3.82015e-05)
(1.04395 0.000241744 9.10319e-05)
(1.04397 0.000177456 0.000220649)
(1.04412 0.000257675 0.000164837)
(1.04427 7.95113e-05 0.000129246)
(1.04422 8.94105e-05 -1.07247e-05)
(1.04407 -8.57265e-05 -0.000131965)
(1.04395 -6.64536e-06 0.000299636)
(1.04413 4.10135e-05 0.00013612)
(1.04423 -0.000126438 5.03961e-05)
(1.04407 -4.44834e-05 6.59166e-05)
(1.04408 -6.66725e-05 -2.72294e-05)
(1.04394 -4.51476e-05 8.32555e-05)
(1.04396 0.000133397 7.62255e-05)
(1.04426 0.000104892 0.000131502)
(1.04413 -3.46049e-07 -8.99426e-05)
(1.04392 8.38952e-05 0.000128943)
(1.04403 0.000101895 3.82984e-05)
(1.04407 0.000119181 0.000184735)
(1.04415 0.000107245 -3.21377e-06)
(1.04416 9.3969e-05 -0.000123596)
(1.04406 0.000128323 0.00011334)
(1.04395 -5.64641e-06 2.22516e-05)
(1.04407 0.000215813 0.000281294)
(1.04431 6.65002e-05 1.88783e-05)
(1.0441 -0.000114029 3.28305e-05)
(1.04402 6.08413e-05 -4.28401e-05)
(1.04397 7.28485e-07 6.83287e-05)
(1.04407 0.000115449 0.000137892)
(1.04431 1.72693e-05 -1.528e-05)
(1.04406 -3.68494e-05 -5.22587e-05)
(1.044 -2.88121e-05 -6.64787e-05)
(1.04402 0.000147109 0.000188681)
(1.0441 6.17715e-05 0.000246391)
(1.04419 6.93639e-05 0.000255036)
(1.04417 0.000109743 0.000167214)
(1.04407 -0.000125217 0.00013465)
(1.04393 0.000101076 0.00037866)
(1.04408 0.000112423 0.000226799)
(1.04428 0.000138104 0.000148113)
(1.04416 -2.11256e-05 6.84796e-05)
(1.04397 0.000133013 5.3744e-05)
(1.04396 0.000135334 0.00017853)
(1.0441 0.000197831 9.5769e-05)
(1.04425 5.99743e-05 0.000104594)
(1.0442 2.2236e-05 3.45267e-05)
(1.04407 -9.35159e-05 -0.00011533)
(1.04397 -5.00262e-06 0.000230111)
(1.04412 4.59604e-05 8.27902e-05)
(1.04422 -0.000111192 2.24093e-05)
(1.04408 -5.29259e-05 7.90006e-05)
(1.04408 -7.43948e-05 -4.28678e-05)
(1.04396 -3.88253e-05 4.9463e-05)
(1.04398 0.000107638 4.11656e-05)
(1.04425 7.01858e-05 8.08874e-05)
(1.04412 -3.49712e-05 -5.89583e-05)
(1.04394 2.41751e-05 8.81689e-05)
(1.04404 8.46317e-05 5.31613e-06)
(1.04407 0.000109469 0.000123661)
(1.04414 7.59962e-05 -2.4895e-05)
(1.04416 5.48478e-05 -8.54387e-05)
(1.04405 6.33207e-05 8.72388e-05)
(1.04397 -3.62399e-06 -3.26182e-05)
(1.04407 0.00018962 0.000199061)
(1.04427 4.05404e-05 -5.54572e-07)
(1.04411 -0.000110486 2.00477e-05)
(1.04403 3.06493e-05 -1.78172e-05)
(1.04398 8.48323e-06 1.37781e-05)
(1.04407 0.000118998 8.53491e-05)
(1.04428 -1.81235e-05 -1.473e-05)
(1.04405 -3.43954e-05 -4.13101e-05)
(1.04402 -4.73079e-05 -5.65606e-05)
(1.04403 0.000110858 0.000118498)
(1.04409 7.87542e-05 0.000165237)
(1.0442 1.71909e-05 0.000172851)
(1.04415 8.21885e-05 0.000129757)
(1.04407 -0.000141378 8.80716e-05)
(1.04395 9.38419e-05 0.000260718)
(1.04408 9.20064e-05 0.000159302)
(1.04426 9.39617e-05 0.000106434)
(1.04416 -5.73993e-05 7.74184e-05)
(1.04399 5.05264e-05 3.23856e-05)
(1.04398 0.000101021 0.000153118)
(1.04409 0.000149786 4.7441e-05)
(1.04423 5.02863e-05 7.55988e-05)
(1.04418 -2.33319e-05 7.09941e-05)
(1.04407 -9.12803e-05 -0.000103795)
(1.04399 -8.95452e-06 0.00017936)
(1.04411 5.05876e-05 4.93839e-05)
(1.0442 -9.59928e-05 -6.14377e-06)
(1.04408 -5.90872e-05 8.70163e-05)
(1.04408 -7.20788e-05 -5.29288e-05)
(1.04399 -3.32498e-05 3.13371e-05)
(1.04399 8.94389e-05 2.59868e-05)
(1.04423 4.30571e-05 3.38685e-05)
(1.04411 -4.87868e-05 -3.3863e-05)
(1.04395 -5.30061e-06 5.97099e-05)
(1.04405 6.88603e-05 -1.54813e-05)
(1.04407 0.000104104 8.4977e-05)
(1.04413 4.25963e-05 -4.12537e-05)
(1.04415 1.55026e-05 -6.78515e-05)
(1.04404 3.60748e-05 7.89052e-05)
(1.04399 -8.5365e-06 -6.02684e-05)
(1.04408 0.000160897 0.000142363)
(1.04423 3.74913e-05 -9.48584e-06)
(1.0441 -0.000101198 3.81013e-06)
(1.04405 1.23541e-05 1.10055e-06)
(1.04399 1.30409e-05 -1.95716e-05)
(1.04406 0.000119002 4.64124e-05)
(1.04427 -4.46582e-05 -2.42139e-05)
(1.04405 -1.13079e-05 -3.79867e-05)
(1.04403 -4.17828e-05 -3.99656e-05)
(1.04405 6.13665e-05 7.32249e-05)
(1.04408 0.000101078 0.000110628)
(1.0442 -2.42277e-05 0.000117233)
(1.04413 6.97622e-05 0.000100317)
(1.04407 -0.000134696 6.03089e-05)
(1.04398 7.73954e-05 0.000174818)
(1.04408 9.14715e-05 0.000112137)
(1.04424 4.34095e-05 7.15844e-05)
(1.04415 -6.88575e-05 8.23156e-05)
(1.04401 2.63434e-06 1.68493e-05)
(1.04399 7.84395e-05 0.000124311)
(1.04409 0.000107048 2.26907e-05)
(1.04421 3.42369e-05 4.89014e-05)
(1.04417 -3.64087e-05 9.12366e-05)
(1.04408 -8.41095e-05 -9.18534e-05)
(1.04401 -1.45161e-05 0.000135478)
(1.0441 5.31135e-05 3.51588e-05)
(1.04419 -8.64696e-05 -2.81711e-05)
(1.04409 -5.8972e-05 9.35771e-05)
(1.04409 -5.95096e-05 -5.82296e-05)
(1.04401 -3.3722e-05 1.36952e-05)
(1.044 6.88917e-05 2.37151e-05)
(1.04421 2.04933e-05 -3.7475e-07)
(1.04411 -4.80823e-05 -1.29879e-05)
(1.04397 -1.8464e-05 3.99271e-05)
(1.04407 4.69676e-05 -2.96422e-05)
(1.04406 9.563e-05 6.42641e-05)
(1.04412 2.29861e-05 -4.41164e-05)
(1.04416 -7.80385e-06 -5.51575e-05)
(1.04404 3.36558e-05 7.33123e-05)
(1.044 -1.33384e-05 -7.70219e-05)
(1.04408 0.000124426 9.52267e-05)
(1.0442 3.58321e-05 -5.11515e-06)
(1.0441 -8.71429e-05 -1.6353e-05)
(1.04406 4.93498e-06 1.69577e-05)
(1.04401 6.02686e-06 -3.96576e-05)
(1.04405 0.00012235 1.88201e-05)
(1.04425 -5.869e-05 -9.48472e-06)
(1.04405 -1.08117e-05 -3.89131e-05)
(1.04404 -1.66584e-05 -2.90967e-05)
(1.04407 1.54014e-05 4.13203e-05)
(1.04407 0.000117498 6.99889e-05)
(1.04419 -4.59624e-05 7.83557e-05)
(1.04412 4.93947e-05 7.19961e-05)
(1.04407 -0.000106191 4.11284e-05)
(1.04402 4.03379e-05 0.000110083)
(1.04407 9.55515e-05 8.32515e-05)
(1.04422 9.46426e-06 5.12528e-05)
(1.04414 -6.6972e-05 7.48876e-05)
(1.04403 -2.24683e-05 7.0988e-06)
(1.04401 5.46387e-05 0.000104182)
(1.04408 7.7428e-05 1.32594e-05)
(1.04419 1.97845e-05 2.37522e-05)
(1.04415 -3.9074e-05 0.000101866)
(1.04408 -6.76713e-05 -7.69096e-05)
(1.04403 -2.47889e-05 9.78987e-05)
(1.04409 5.3528e-05 3.26625e-05)
(1.04417 -6.85397e-05 -4.77916e-05)
(1.04409 -5.98575e-05 9.30544e-05)
(1.04409 -4.84491e-05 -5.48612e-05)
(1.04403 -3.13271e-05 -3.41389e-06)
(1.04401 5.3529e-05 3.20452e-05)
(1.04419 7.46335e-06 -2.49599e-05)
(1.0441 -4.07631e-05 -2.57157e-06)
(1.04398 -1.61598e-05 3.30479e-05)
(1.04409 1.988e-05 -3.98219e-05)
(1.04406 8.8443e-05 5.2067e-05)
(1.0441 2.09808e-05 -3.86812e-05)
(1.04416 -3.58624e-05 -5.43407e-05)
(1.04404 3.58745e-05 7.09902e-05)
(1.04401 -1.01105e-05 -7.4888e-05)
(1.04409 8.23699e-05 5.8339e-05)
(1.04417 4.07344e-05 4.34379e-06)
(1.04409 -6.85762e-05 -3.25057e-05)
(1.04407 1.41989e-07 2.56377e-05)
(1.04403 -3.30761e-06 -4.32171e-05)
(1.04404 0.000121204 -2.81014e-06)
(1.04423 -5.9999e-05 2.55232e-06)
(1.04406 -1.8608e-05 -4.10101e-05)
(1.04404 2.12075e-05 -2.03167e-05)
(1.04409 -2.35421e-05 2.72207e-05)
(1.04406 0.000115532 4.08292e-05)
(1.04418 -4.62497e-05 5.38138e-05)
(1.04411 2.9838e-05 5.15567e-05)
(1.04407 -6.74849e-05 3.0862e-05)
(1.04405 5.79156e-06 6.72387e-05)
(1.04407 9.99771e-05 6.12645e-05)
(1.04419 -7.95771e-06 3.6403e-05)
(1.04414 -6.76925e-05 6.55674e-05)
(1.04404 -2.91012e-05 2.51795e-06)
(1.04402 3.60885e-05 8.13478e-05)
(1.04408 5.84503e-05 1.26808e-05)
(1.04418 4.96043e-06 4.45154e-06)
(1.04414 -3.39209e-05 0.000101568)
(1.04408 -4.87563e-05 -5.96103e-05)
(1.04405 -3.25996e-05 6.40356e-05)
(1.04408 4.93313e-05 3.78495e-05)
(1.04415 -4.97046e-05 -6.05577e-05)
(1.04409 -5.93285e-05 8.57118e-05)
(1.0441 -3.80544e-05 -4.20106e-05)