/*--------------------------------*- C++ -*----------------------------------*\
  =========                 |
  \\      /  F ield         | OpenFOAM: The Open Source CFD Toolbox
   \\    /   O peration     | Website:  https://openfoam.org
    \\  /    A nd           | Version:  10
     \\/     M anipulation  |
\*---------------------------------------------------------------------------*/
FoamFile
{
    format      ascii;
    class       volScalarField;
    location    "3";
    object      p;
}
// * * * * * * * * * * * * * * * * * * * * * * * * * * * * * * * * * * * * * //

dimensions      [0 2 -2 0 0 0 0];

internalField   nonuniform List<scalar> 
25600
(
0.00216765
0.00143575
0.000282296
2.61052e-05
0.000504456
0.00115926
0.00132399
0.00161411
0.00183338
0.00139598
0.00166211
0.00212726
0.00186983
0.00225052
0.00279873
0.00236191
0.00182905
0.000718252
-0.000107253
0.000323229
-3.33739e-05
-0.000544639
0.000425371
0.000780278
7.62229e-05
0.000521417
0.00123191
0.00116982
0.000699658
0.000276086
4.6518e-05
0.00118338
0.000414922
0.000231996
0.000925593
0.00103859
0.000380859
0.00122468
0.00187665
0.00167187
0.00122099
0.00100947
0.000365407
0.000221483
0.000310524
0.000707656
0.000823895
0.00137122
0.00166271
0.00144574
0.00150295
0.00189813
0.00230714
0.00262984
0.00335342
0.00287094
0.00200545
0.000262845
-0.000680358
-0.000483032
-0.000873806
-0.00104591
9.72661e-05
0.00060868
0.000602951
0.00120494
0.00108951
0.00011803
-0.000719031
-0.000713924
-1.99022e-05
-4.75023e-06
-0.000323226
-0.000600494
-0.000669699
-0.000592681
-0.000535838
0.000890798
0.00175976
0.00106326
0.00186909
0.00148184
0.00101172
0.000838554
0.00104518
0.00167127
0.00196145
0.00212226
0.00124726
-0.000152499
-0.000371971
0.000508648
0.00156256
0.00252642
0.00346884
0.00297949
0.00199268
0.000684768
-0.000907731
-0.00169277
-0.00229177
-0.0011581
0.000258795
0.0006146
0.000328599
0.000707383
0.00107387
0.0014509
0.00141969
0.00116226
0.00131607
0.000681315
0.000352732
0.000763716
0.000588462
0.000493059
0.00130678
0.001867
0.00214605
0.00183669
0.00239711
0.00177815
0.00144297
0.000902636
0.000985551
0.00140329
0.00167318
0.00206531
0.00126667
0.000161996
0.000167702
0.000148984
0.00106615
0.00283485
0.00286254
0.00259422
0.00135612
-0.000741068
-0.00286017
-0.00361031
-0.003362
-0.00276187
-0.00185742
-0.00119497
-0.000705782
2.22776e-05
0.000592526
0.00119356
0.00169525
0.00205808
0.00178773
0.000327302
-0.000762856
-0.000922878
-0.00188272
-0.00229164
-0.000849027
0.000313458
0.00107526
0.00207792
0.00218447
0.00130738
0.000662753
0.000244154
0.000666036
0.00129449
0.00186766
0.00238486
0.000516211
-0.000401825
0.000318121
0.000328477
7.86764e-05
-0.000249474
0.000415299
0.00106214
0.00101306
0.000580499
-0.0013142
-0.00199443
-0.00241439
-0.00258888
-0.00252771
-0.00107912
-0.000454412
0.000223667
0.00109768
0.00170016
0.00241304
0.00308394
0.00216168
-0.000183384
-0.00154354
-0.00216676
-0.00324299
-0.00300025
-0.00053886
0.000561143
0.00112519
0.002913
0.0017747
0.00130016
0.000333117
0.000274105
0.000447691
0.000538483
0.000521416
0.00104516
-0.000647794
-0.000936221
-0.000722408
-0.000136434
0.00109769
0.00244664
0.00239345
0.0031614
0.00182419
0.00157966
6.15131e-05
-0.00128208
-0.00301802
-0.00304025
-0.00079226
0.00083225
0.000346778
-0.000676412
-0.000399066
0.00173109
0.00390206
0.0030916
0.00107264
-0.000709584
-0.00129044
-0.00158672
-0.00295838
-0.00256987
-0.00067328
-2.11504e-05
0.000903804
0.00226805
0.00269813
0.00117119
-0.000874899
-0.00280204
-0.0020632
-0.00104671
-0.00128799
-0.00211346
-0.00287931
-0.00255133
-0.00182115
0.000467848
0.00355161
0.003617
0.00318192
0.00276884
0.00252051
0.00146768
0.000306282
-0.00131923
-0.00348014
-0.0028568
-0.00154111
-0.00185758
-0.00231384
-0.00104385
0.00164872
0.00294921
0.00246217
0.000976042
-0.00106992
-0.00302053
-0.00398127
-0.00421972
-0.00335122
-0.00198501
0.000319411
0.000422788
0.000731652
0.00232154
0.00145724
-0.000818327
-0.0028704
-0.00487519
-0.00340168
-0.000798124
-0.000874646
-0.00130122
-0.00217509
-0.00358982
-0.00210517
0.00049868
0.00121105
0.00139423
0.00130049
-0.000359659
0.00163092
0.00176592
0.000520989
-0.00133093
-0.00204625
-0.000148392
-0.00017142
-0.00241281
-0.0020215
-0.00169307
-0.00168375
-0.000699453
0.000627399
0.00147369
0.000169266
-0.00237967
-0.00515741
-0.00631704
-0.00560186
-0.00293982
-2.48767e-05
-0.000451127
0.000598959
0.00372121
0.00160784
-0.000619509
-0.00207557
-0.00203369
-0.00183195
-0.00282959
-0.00230926
6.7377e-05
-0.000600231
-0.00596793
-0.00652067
-0.00278818
0.000576736
0.00212557
0.00168753
0.00217449
0.0010947
0.00146071
0.000496226
-0.00263024
-0.00305111
-8.58542e-05
0.000616704
-0.000328252
-0.0022251
-0.00265592
0.00100526
0.00135578
0.000333736
0.000503263
-0.000540518
-0.00196008
-0.0030422
-0.00431202
-0.0046357
-0.00199231
-0.000229182
-0.00177472
-0.000301796
0.00244422
0.000313932
-0.000924093
-0.00148278
-8.15577e-05
-0.000478463
-0.00543486
-0.00879193
-0.00482677
-0.00339445
-0.00798086
-0.0102376
-0.00517468
0.000244926
0.00272171
0.00153271
0.000345575
-0.000329414
-0.000595096
-0.000111629
-0.00200116
-0.00307326
-0.00150574
-0.00160315
0.000466499
-0.00154606
-0.005369
-0.00392508
-0.00142357
-0.000686835
0.00015684
-0.000352898
-0.00190502
-0.00167916
-0.00410497
-0.00334595
-0.00119706
-0.00164003
-0.00476783
-0.00217085
0.000842368
-0.000322733
-0.000906671
-0.000962538
-0.00269199
-0.00679495
-0.00838801
-0.00494411
-0.00147066
-0.00412626
-0.00821126
-0.0108313
-0.00635609
-0.00104402
0.00245509
0.00151253
-0.000576751
-0.00182916
-0.00196131
-0.00133176
-0.00219478
-0.00143331
-0.00141524
-0.00244003
0.000942206
-0.000547129
-0.0029393
-0.00114162
0.000395912
0.000374948
0.0012617
0.00032028
-0.00312701
-0.00238203
-0.00417082
-0.00430568
-0.00426513
-0.00554997
-0.00477293
0.000854412
0.00191473
0.000600214
-0.000312888
-0.00196967
-0.000620593
-0.00116901
-0.00508804
-0.00254746
0.00125038
1.87614e-05
-0.00459353
-0.0035967
-0.00458461
-0.000502799
0.00130024
-0.000305163
-0.000780771
-0.000876035
-0.00157733
-0.000108012
-0.00195945
-0.00157368
-0.00189523
-0.0012149
0.00278182
0.00122168
-0.00284628
-0.000218002
0.00149457
0.00202647
0.00254074
0.000348133
-0.00216141
-0.0020363
-0.00292733
-0.00351008
-0.00645519
-0.0108384
-0.00671252
-0.00063718
0.000414865
2.7991e-05
-0.000876812
-0.00280857
-0.00114498
-0.00367121
-0.0050121
-0.00301119
-0.00274924
-0.00613087
-0.00482238
-0.00312
-0.00393123
-0.00221733
-0.00172402
-0.000935741
-0.00131832
-0.0023258
-0.00104819
-0.00011062
-0.00345139
-0.00206345
-0.0020332
0.000296129
0.00042509
-0.00161758
-0.00365329
0.00067736
0.00170224
0.00212943
0.00249618
4.03447e-05
-0.00296618
-0.00286236
-0.00236995
-0.00288149
-0.00828229
-0.0105984
-0.00655417
-0.00425431
-0.0021801
0.00076988
-0.000692174
-0.00446678
0.00115041
-0.00322999
-0.0079076
-0.00660704
-0.00473608
-0.00489048
-0.00408129
-0.00362899
-0.00461463
-0.00225054
-0.00116635
0.000920775
-0.00273218
-0.0026462
0.00161842
0.000957423
0.00073641
-7.67279e-05
-0.00131571
5.042e-05
0.00068951
-0.0027892
-0.00646951
-0.0020781
-0.000914468
0.0010787
0.000832302
-0.00209768
-0.00554364
-0.004821
-0.00531692
-0.00517876
-0.00937068
-0.007936
-0.00586458
-0.00322145
-0.000380288
0.00145755
-0.00327071
-0.00503196
0.000481578
-0.00488711
-0.00959985
-0.00446888
-0.00231357
-0.00617618
-0.00469297
-0.00510144
-0.00713253
-0.00231588
0.00166207
4.64541e-05
-0.00266763
0.000736159
0.00078601
-0.000277604
5.25201e-06
-0.003306
-0.00345819
-0.00319072
0.00162364
-0.00149226
-0.0081289
-0.00065715
0.00471445
0.00182066
-0.00326025
-0.00934973
-0.0104474
-0.00605358
-0.00602271
-0.00570174
-0.00783245
-0.0039221
-0.00104139
-0.000859209
-0.00112514
-0.00266865
-0.00755315
-0.00794003
-0.0044706
-0.00585784
-0.00979631
-0.00300339
-0.00109013
-0.0100936
-0.00721779
-0.0060388
-0.00696737
3.36948e-05
0.0039882
-0.000314169
0.00105385
0.000520205
0.00128793
-8.73202e-05
-0.00560489
-0.00903585
-0.00332577
-0.00447105
-0.000684861
-0.00300008
-0.00886554
-0.00297022
0.00209049
0.00265215
0.00212396
-0.00205303
-0.00775403
-0.00658933
-0.00749768
-0.00695766
-0.00255539
0.0005372
0.000316642
0.000723067
-0.00123692
-0.0020725
-0.0116124
-0.0103394
-0.00461422
-0.00510808
-0.00906248
-0.00364484
-0.000693978
-0.00887464
-0.00607529
-0.0067187
-0.00708672
0.00198601
0.00568493
0.00217012
-0.0047527
-0.00503066
-0.000495664
0.000765592
-0.00336363
-0.0107925
-0.0139402
-0.0051622
0.00132035
-0.000439407
-0.0102446
-0.00669902
0.00122753
0.00680032
0.004629
-0.000506174
-0.00262403
-0.00862938
-0.017296
-0.0157467
-0.00837842
-0.00205273
-0.00155101
-0.00102015
-0.00181273
0.00353177
-0.00756465
-0.00472381
-0.000159747
-0.00520335
-0.0128242
-0.00590532
-0.000834255
-0.00532905
-0.00521128
-0.0100463
-0.017046
-0.00825272
0.005045
0.00289082
-0.00727189
-0.00975659
-0.00578224
0.00076597
0.00220019
-0.0079344
-0.0167633
-0.00852436
0.00476852
0.000678347
-0.0122677
-0.00901134
0.00160094
0.00599879
0.000929642
-0.00880348
-0.00972145
-0.0120948
-0.0220405
-0.0187757
-0.0121819
-0.00383218
-0.000462466
0.00127572
0.00738676
0.00362679
-0.00197549
-0.0033934
0.000581859
-0.00580732
-0.0145456
-0.00881185
-0.00552798
-0.00860346
-0.00885747
-0.0129784
-0.0164858
-0.00760588
0.00375894
0.0019547
-0.00566603
-0.00516893
-0.00245311
-0.00110525
-0.00510434
-0.00482334
-0.0168126
-0.0100115
0.00073191
-0.00719223
-0.0130428
-0.00897669
-0.000942306
0.000407001
-0.00217623
-0.0060932
-0.00575783
-0.0144291
-0.0237483
-0.0104738
-0.00684645
0.00364092
0.000339907
-0.00474765
0.00214402
0.0026734
-0.00355472
-0.0014333
0.00459723
-0.00527337
-0.0137836
-0.00925877
-0.00605118
-0.0117365
-0.011494
-0.0117803
-0.0123777
-0.00309611
0.00129276
0.00213301
-0.00177196
-0.00359872
-0.00214004
-0.00109375
7.84806e-05
-0.00460642
-0.017686
-0.0100388
-0.00383237
-0.00973551
-0.0142819
-0.0104544
0.00162845
0.00171849
-0.00134427
-0.00184007
0.000868812
-0.0179968
-0.0231494
-0.0100114
-0.00452987
0.00117193
-0.0016728
-0.00269851
0.00118842
-0.000443631
-0.0069496
-0.000553198
0.00350723
-0.00578089
-0.0122148
-0.00259446
-0.00396409
-0.0129813
-0.0108459
-0.00828299
-0.0122777
-0.00848599
0.000846308
0.00370609
-0.00205599
-0.00438804
-0.0055535
-0.00316353
0.00295404
-0.00731762
-0.0190685
-0.0135269
-0.00442697
-0.0104848
-0.0144041
-0.0092183
-0.00233639
0.000959906
-5.20826e-05
0.000369747
-0.00498039
-0.0180071
-0.0196044
-0.0141937
-0.00599653
0.00635182
-0.00317943
-0.00585648
0.00216976
-0.00371454
-0.00708124
-0.000634112
0.00167828
-0.00545615
-0.0135004
-0.0075182
-0.00719278
-0.0143288
-0.00669205
-0.00558433
-0.0109998
-0.00887438
0.00462818
0.00283328
-0.00753949
-0.00571627
-0.00740991
-0.00479768
-0.000452397
-0.0109243
-0.0205675
-0.0195131
-0.0101265
-0.0120413
-0.0125998
-0.00404151
-0.00371641
0.00177922
0.000153903
-0.000495543
-0.00695621
-0.0192191
-0.0190214
-0.0139435
-0.00285702
0.0076307
-0.000476716
-0.00841574
-0.00421081
-0.00339481
-0.00751878
-0.00333664
0.000810114
-0.00624905
-0.0170652
-0.0115489
-0.00866747
-0.0146535
-0.00516136
-0.00734001
-0.010162
-0.00561636
0.00635686
-0.00015913
-0.0094823
-0.00759583
-0.00654003
-0.00674932
-0.00265098
-0.00958105
-0.0213318
-0.0228209
-0.00585783
-0.0105153
-0.0133249
-0.0133984
-0.00127128
0.00221363
-0.000616771
-0.00493472
-0.00275327
-0.0215442
-0.0185795
-0.0152043
-0.00367741
0.00290517
0.00282786
-0.00665399
-0.00529866
-0.00536163
-0.0100986
-0.00530856
0.00197867
-0.00838357
-0.0142204
-0.00901275
-0.005813
-0.0101232
-0.00544111
-0.0101759
-0.0132076
-0.00307869
0.00325992
-0.000383667
-0.00681294
-0.00343173
-0.00344976
-0.00817125
-0.00276313
-0.0041459
-0.0225764
-0.023494
-0.00212908
-0.0106211
-0.0146359
-0.00978552
-0.00171034
0.0020508
-0.00115472
-0.0026689
-0.00466746
-0.0150698
-0.0159746
-0.0138481
-0.00168615
0.0019764
0.00187675
-0.00203292
-0.00193346
-0.00922363
-0.0109706
-0.00484276
0.00292244
-0.00897055
-0.0180313
-0.00929828
-0.0044422
-0.00880473
-0.00517791
-0.00695566
-0.0130816
-0.0046697
-0.000720073
-0.00486636
-0.00793183
0.000146493
-0.00130709
-0.00978639
-0.0024618
-0.00681161
-0.0251517
-0.0199563
-0.00508769
-0.0133671
-0.0161546
-0.011362
-0.00515016
-0.000161858
-0.000729574
-0.000280518
-0.0103534
-0.011715
-0.0188
-0.0144834
-0.00155709
0.00215466
-0.00430708
-0.0113905
-0.00815528
-0.00747996
-0.00742926
-0.00414826
0.00236221
-0.00776693
-0.0206341
-0.0124276
-0.00311188
-0.00861667
-0.00249226
-0.00231165
-0.0099545
-0.00303196
0.00355746
-0.00313722
-0.00358518
0.000798608
-0.00228568
-0.00350279
-0.000347571
-0.00827572
-0.0246261
-0.00983505
-0.00138946
-0.0122592
-0.0155077
-0.0116352
0.000675078
0.00155961
0.00377932
0.00390922
-0.00232666
-0.0122173
-0.0190632
-0.014137
-0.00451616
0.00271746
-0.00329565
-0.00735072
-0.0101245
-0.00900619
-0.00701219
-0.00430581
0.000981078
-0.00946791
-0.0233441
-0.0131033
-0.00192338
-0.00865504
-0.00285757
-0.00924713
-0.014373
-0.00544528
-0.002461
-0.0041728
-0.0027442
-0.00171528
-0.00624938
-0.0125569
-0.00046117
-0.0161325
-0.0220406
-0.00591326
-0.00158526
-0.0139324
-0.0225746
-0.0128506
-0.000657254
0.00171695
-0.00066991
0.00325758
-0.00619935
-0.0203957
-0.0173615
-0.0128779
-0.00664603
0.000552697
-0.00403853
-0.0118477
-0.0108733
-0.0077368
-0.00749515
-0.00317522
0.00140878
-0.00390408
-0.016944
-0.00698315
-0.000511107
-0.00403049
0.000226813
-0.00487969
-0.00929204
0.00247953
0.00327348
-0.00293151
-0.00422092
-0.00138864
-0.00512994
-0.00697104
0.000465854
-0.0140533
-0.0212662
-0.00694508
0.00146571
-0.0114765
-0.01911
-0.0142546
-0.00432067
0.00233802
0.00440461
0.00234434
-0.00711817
-0.0179004
-0.0150522
-0.0114935
-0.00186201
0.00342076
-0.00170799
-0.00709944
-0.00909837
-0.0102394
-0.0103296
-0.00657243
-0.00111034
-0.0101298
-0.0242386
-0.00886793
-0.00584782
-0.00824193
-0.00350121
-0.00900657
-0.0143602
-0.00572691
-0.00383214
-0.00815052
-0.010838
-0.00406973
-0.010987
-0.0130419
-0.0020548
-0.0250953
-0.0241487
-0.00743769
-0.00423735
-0.0143521
-0.0232257
-0.0165379
-0.00755969
-0.00179904
-0.00309586
-0.00375048
-0.0132782
-0.0207896
-0.0168036
-0.0159126
-0.00636713
-0.0021042
-0.00582253
-0.0129476
-0.0136078
-0.00585564
-0.00751366
-0.0041516
0.00368876
-0.00275141
-0.0162249
-0.00850133
-0.00117461
-0.000423136
0.00355043
-0.00280283
-0.00771343
0.000929418
0.00376914
-0.0018797
-0.00562213
-1.13803e-05
-0.00335984
-0.00478705
0.00191084
-0.0163166
-0.0160114
0.000701898
0.00373604
-0.00716162
-0.0169439
-0.0123066
-0.00193535
0.00514972
0.00434963
0.00381304
-0.00541627
-0.0157343
-0.0155733
-0.00806644
0.00141307
0.00604365
0.00177763
-0.00529407
-0.00751142
-0.0126624
-0.0124766
-0.00811414
-0.00178722
-0.0109859
-0.0240265
-0.0154877
-0.0100477
-0.00987888
-0.00594806
-0.0119918
-0.0161148
-0.00699796
-0.00472331
-0.0103662
-0.013096
-0.00588006
-0.0123522
-0.012978
-0.00502848
-0.0272022
-0.0260182
-0.00718564
-0.00465484
-0.0163579
-0.025582
-0.0198395
-0.0105795
-0.0035399
-0.00392944
-0.00567331
-0.0142302
-0.0244313
-0.0239826
-0.017736
-0.00901024
-0.00446593
-0.00775078
-0.0145163
-0.0156326
0.000148728
-0.000173402
0.00355492
0.00988282
0.000976304
-0.0111935
-0.00214099
0.00278264
0.00248376
0.00690993
0.00123229
-0.00291313
0.00589256
0.00838169
0.00296924
4.09309e-05
0.00646838
0.000825192
-9.96412e-05
0.00769034
-0.0130336
-0.0127007
0.00539924
0.00921739
-0.00281961
-0.0120748
-0.00637161
0.00282324
0.00918577
0.0092632
0.00826837
-0.0012099
-0.0106367
-0.0102272
-0.00370206
0.00532923
0.0100644
0.00615156
-0.000940202
-0.00251954
0.00174555
0.00107446
0.000318119
0.000282216
0.00056703
0.00104539
0.00108497
0.0013486
0.00172844
0.00130548
0.00136708
0.00155105
0.00131657
0.0020864
0.00288379
0.00228734
0.00191613
0.000875686
-1.92733e-05
0.000229519
3.64535e-05
-0.000555721
0.000224967
0.000610274
0.00012906
0.0005365
0.000915144
0.000635341
-0.00038656
-2.78362e-05
-0.00011105
-0.000357583
0.000127603
-0.000295939
0.000208042
0.000115901
-0.000501819
0.000451095
0.00144663
0.00134095
0.000923467
0.00113042
0.000811059
0.000764977
0.00046995
0.000488287
0.000300494
0.000609328
0.00160678
0.00159072
0.00162579
0.00186056
0.00181266
0.00226268
0.00283258
0.00216704
0.000738963
-0.000196928
-0.000953543
-0.000670799
-0.00105337
-0.00134212
-0.000222127
0.000509516
0.000574171
0.000894985
0.000542149
-0.00023749
-0.000791293
-0.00023034
0.000586801
0.000739461
-0.000123517
-0.000629736
-0.00079709
-0.000376217
-0.000278987
0.000625314
0.00124881
0.000713644
0.00150617
0.00163674
0.0013204
0.000967717
0.00102717
0.00137833
0.00119118
0.00119976
0.00064908
-0.000204827
0.000205101
0.000805977
0.00110529
0.00203966
0.00259842
0.0023191
0.00177374
0.000378095
-0.00157514
-0.0016746
-0.00195563
-0.00167507
-0.0003641
0.000282067
0.000422798
0.000723567
0.000931657
0.000565848
0.0001386
5.79897e-05
0.000341856
0.000212052
4.38867e-05
0.000310818
0.000582351
0.000107118
0.000155429
0.000309881
0.000655752
0.00105477
0.00209159
0.00192279
0.00155518
0.00083615
0.000986678
0.00108408
0.000810859
0.000624145
6.65437e-06
-0.000150732
0.000837892
0.00187876
0.00261505
0.00282101
0.00193316
0.00126053
0.00119424
-0.000714002
-0.00357474
-0.00367992
-0.00336934
-0.00312988
-0.00222266
-0.00104735
-0.000187114
0.000163918
-1.44339e-05
-0.0010615
-0.000727527
0.000617502
0.00132639
0.000414849
-0.000633052
-0.000846496
-0.00232206
-0.00285464
-0.00217176
-0.00112439
3.64742e-05
0.00152383
0.0014103
0.00113099
0.000453668
-0.00032289
0.000244073
0.00117067
0.00107048
0.00100497
-0.0007858
-0.00130758
8.80562e-05
0.000267514
0.000118577
0.000679283
0.00106856
0.000980217
0.00127345
0.00012293
-0.00131192
-0.00301188
-0.00530885
-0.00563782
-0.00375607
-0.00141797
-0.00067171
-0.000366355
-0.000484742
-0.000332174
0.00135709
0.00240557
0.00132394
-0.000814337
-0.0020493
-0.00221668
-0.0044843
-0.00436997
-0.00176679
-0.000241783
0.000453031
0.00167343
0.00160862
0.000854007
-0.000468077
-0.00122071
-0.000344054
0.000152736
-0.00067393
-0.000867663
-0.00261136
-0.00272663
-0.00096566
5.81204e-05
0.00181361
0.00276665
0.00217
0.00144566
0.00103934
0.000708397
-0.00037654
-0.00277384
-0.00549944
-0.00444058
-0.000648218
0.000748994
-0.000211481
-0.00298501
-0.00154994
0.00106229
0.00288435
0.001805
-0.000613272
-0.00216452
-0.00207834
-0.00230034
-0.00373096
-0.00368302
-0.000727143
-0.000161069
0.000426468
0.00160414
0.00250085
0.000216277
-0.00194272
-0.00249886
-0.00201376
-0.00133158
-0.000543872
-0.000713915
-0.00361075
-0.00453553
-0.0021027
-6.0971e-05
0.0012923
0.00162468
0.0015383
0.00112421
0.000453213
0.000731674
0.000276514
-0.00163279
-0.00360778
-0.00231988
-2.78473e-05
0.000280231
-0.00129256
-0.00186106
0.00107265
0.000766511
0.000734011
0.00238159
0.0011595
-0.00124832
-0.00236939
-0.00444173
-0.00732285
-0.00403121
-0.000731394
0.00033755
0.00149209
0.00302806
0.00101423
0.000221813
-0.00140668
-0.00251863
-0.00230657
-0.00114461
-0.00175048
-0.00185723
-0.00262194
-0.00387975
-0.00340268
-0.00220416
-0.000902951
0.000618133
0.000848496
0.00128515
0.00494303
0.0024166
-0.00083159
-0.00420324
-0.00514775
-0.00199345
0.000347303
0.000902957
-0.000580732
-0.00515885
-0.00779238
-0.00333459
-2.69243e-05
0.00235211
0.000350031
-0.000757313
-0.00273046
-0.00595279
-0.00703157
-0.00320254
0.000149095
-0.000213709
0.00111417
0.00191872
0.00233294
0.00190716
0.000318715
-0.000580631
-0.0024122
-0.00352668
-0.00375462
-0.00104531
-0.00230558
-0.00609407
-0.00681221
-0.00326732
0.00107212
0.00327973
0.00194307
0.00126455
-0.000717926
-0.00329269
-0.00252093
-0.00405756
-0.00501382
-0.0013606
0.000157501
-0.000533727
-0.00525101
-0.0066526
-0.00353839
-0.002518
-0.00257222
-0.00188622
-0.00255377
-0.00296421
-0.00343131
-0.00534013
-0.00511962
-0.00216483
0.000100827
0.000314862
0.00177652
0.00267801
0.00169904
0.000947174
0.000154538
-0.000149211
-0.00189068
-0.00681179
-0.00713554
-0.00262281
-0.00330482
-0.00803301
-0.00935945
-0.00392978
0.00128732
0.00347031
0.00159291
-0.000507815
-0.00419931
-0.002511
-0.00031592
-0.00426249
-0.00582512
-0.00086764
0.00175125
0.00154273
-0.0048483
-0.0081954
-0.00485053
-0.0031394
-0.00132588
-0.000648101
-0.00219451
-0.0031641
-0.00535608
-0.00648022
-0.00503859
-0.00208279
-0.000370737
-0.000335994
0.00162193
0.00293586
-0.00108173
-0.000737102
-0.000334834
-0.000758321
-0.00210084
-0.00545477
-0.00588506
-0.00256116
-0.00355414
-0.00751448
-0.00940377
-0.0052808
3.63796e-05
0.00221016
0.000732027
-0.00108961
-0.000575584
0.000467015
0.000524363
-0.00379421
-0.00299001
-0.00106459
-0.000345947
0.00126301
-0.00105612
-0.00507178
-0.00247933
0.000603349
0.00115518
-0.000105136
-0.00278915
-0.00424253
-0.00514123
-0.00738764
-0.00802332
-0.00401033
-0.00133033
-0.00227975
-0.00111256
-0.000177266
0.000857183
-0.000312233
-0.000820665
-0.000717464
-0.00213407
-0.00569306
-0.00466897
-0.00377811
-0.00481727
-0.00557916
-0.00321371
-0.00314069
0.000764522
0.000753683
-0.000935527
-0.00113059
-0.00177454
-0.00205822
0.000206183
-0.00288985
-0.00541627
-0.00263696
0.00118064
0.00109644
-0.00592547
-0.0105251
-0.00559238
0.000121508
-0.000517055
-0.00155823
-0.00072134
-0.00164524
-0.00412374
-0.0039719
-0.00788746
-0.00644455
-0.00645505
-0.00462771
6.77802e-05
0.00233057
0.000933715
-0.00312977
-0.000820362
-0.00037938
-0.00290257
-0.00870918
-0.00902978
-0.00407232
-0.00338088
-0.00583524
-0.00890196
-0.0046205
0.000354897
0.00121887
-0.00250079
-0.00203375
-0.00181722
-0.00442779
-0.00381766
-0.00468512
-0.00664746
-0.00300799
0.000149166
-0.00109706
-0.0091459
-0.0151767
-0.00735303
-0.000119523
-0.000669622
-0.00255306
-0.00264153
-0.0045986
-0.00395719
-0.00548551
-0.00810965
-0.00698592
-0.00735552
-0.00294649
-0.000841877
0.000394872
-0.00101661
-1.96447e-05
-0.00167773
0.001157
-0.00387499
-0.0103815
-0.00750316
-0.000882986
-0.00186501
-0.00576859
-0.00904278
-0.00737751
-0.00490407
-0.0014479
-0.00656437
-0.00345881
-0.00275976
-0.00206018
-0.00405307
-0.00962802
-0.0111986
-0.0045631
-0.0053074
-0.00432894
-0.00939752
-0.0121733
-0.00488951
0.000787384
-0.00520729
-0.00413055
-0.00367068
-0.0049449
-0.00719619
-0.0083959
-0.00775233
-0.0133681
-0.0116532
-0.00710096
-0.00431326
-0.00188833
-0.0023194
-0.00992253
-0.0054242
0.000630855
-0.00600649
-0.0113647
-0.00348702
0.00131104
-0.0036939
-0.00557532
-0.00489388
-0.00849118
-0.00345208
-0.00130158
-0.00599522
-0.00316233
-0.00286299
0.00293932
-0.000230659
-0.0106501
-0.0163871
-0.00673463
0.00113059
-0.00301223
-0.00946174
-0.0147815
-0.00677284
0.00292414
0.00201981
-0.0038735
-0.00471553
-0.00480842
-0.00815408
-0.0087292
-0.00695209
-0.0153277
-0.0135393
-0.005916
-0.00137822
-0.000159699
-0.00194258
-0.00437102
-0.00412731
0.00160564
-0.00688067
-0.012901
-0.00804373
-0.000842869
-0.00406283
-0.00601556
-0.00803899
-0.0102143
-0.00341177
0.000438446
-0.00279479
-0.00457128
-0.00311235
0.00108622
-0.00380264
-0.00821329
-0.0117297
-0.00622012
-0.000343078
0.000119446
-0.00628889
-0.0135261
-0.00599701
0.00116151
-0.000457495
0.000941097
-0.00453565
-0.006688
-0.00819737
-0.00817034
-0.00670423
-0.00330639
-0.00808018
-0.00492794
-0.000321637
-0.000492109
-0.00769639
-0.00916864
-0.00714017
-0.00460244
-0.0109338
-0.0141866
-0.00801253
-0.00244298
-0.00267912
-0.00582232
-0.0117807
-0.0162862
-0.00835938
-0.000893402
-0.00230129
-0.00800761
-0.0051272
-0.00450336
-0.00319582
-0.00832927
-0.013572
-0.00726066
-0.000903666
-0.00038359
-0.00799408
-0.0199931
-0.00818897
9.6611e-05
-0.00499557
-0.00213652
-0.00595393
-0.00840867
-0.0126968
-0.010105
-0.0079193
-0.00714073
-0.00458807
-0.00502841
-0.00988128
-0.0119089
-0.00891702
-0.0123899
-0.0103706
-0.00269275
-0.00385562
-0.012148
-0.00260101
-0.00611476
-0.00701083
-0.00459921
-0.0104163
-0.0130392
-0.00367803
-0.00102313
-0.00419342
-0.00792238
-0.00323324
-0.00721703
-5.16109e-06
-0.00566343
-0.0172167
-0.010787
-0.00116998
-0.000200085
-0.00986549
-0.0212522
-0.0116085
0.00137826
0.0014989
-0.00267208
-0.00630004
-0.0134874
-0.0130406
-0.00559734
-0.00676787
-0.00667634
-0.00215042
0.00118069
-0.00819569
-0.0134719
-0.00542184
-0.0117572
-0.00692961
0.00105576
-0.00346214
-0.01221
-0.00722298
-0.00597827
-0.00730142
-0.00878914
-0.0140159
-0.0124813
-0.00214568
0.000640591
-0.0071115
-0.00844561
-0.00486405
-0.00538865
0.000372146
-0.0100651
-0.0188062
-0.0104639
-0.0018811
-0.00261141
-0.0125244
-0.0253684
-0.0144607
0.00113083
0.000787187
-0.00164559
-0.00649559
-0.0192939
-0.0145395
-0.0107236
-0.0138803
-0.00802434
-0.000385941
0.000489582
-0.00365931
-0.00809763
-0.00669519
-0.0120213
-0.00464641
0.00174761
-0.0032593
-0.0102073
-0.00827552
-0.00205008
-0.0039888
-0.0106959
-0.0194755
-0.0133871
-0.00892399
0.000704113
-0.00690514
-0.00837665
-0.00796318
-0.00380982
-0.000973992
-0.0112852
-0.0191719
-0.011668
-0.00610593
-0.00767231
-0.0180788
-0.0297467
-0.0100727
0.000390545
0.000949412
0.000276293
-0.00632835
-0.0136198
-0.00858799
-0.0141231
-0.0155721
-0.00774434
0.00167843
-0.000579165
-0.00543978
-0.00557428
-0.00803693
-0.011018
-0.0082896
-0.00481953
-0.00437706
-0.00991981
-0.00489876
-0.00169078
-0.00370144
-0.00640704
-0.0168123
-0.0155767
-0.00926535
-0.000108139
-0.00629986
-0.00879907
-0.00475877
-0.00250084
-0.00463589
-0.00587017
-0.0228542
-0.0114163
-0.00550257
-0.00867472
-0.0251911
-0.0345546
-0.0128564
0.00595418
0.00359827
-0.000839442
-0.0111149
-0.0165414
-0.0117852
-0.0119256
-0.00834467
-0.00513118
-0.000662967
-0.00108884
-0.00536639
-0.00341378
-0.00433478
-0.00683632
-0.00823807
-0.000899408
-0.00437224
-0.0144357
-0.00748317
-0.00423683
-0.00523295
-0.00994268
-0.0204122
-0.0207041
-0.00822473
0.000493804
-0.00231679
-0.00495905
-0.00276166
-0.00481252
-0.00387079
-0.0098856
-0.0280278
-0.00924426
0.000344522
-0.00893568
-0.0318537
-0.0405431
-0.0192974
0.00619604
0.00854155
0.00170972
-0.0120214
-0.0216519
-0.0179553
-0.00533301
-0.00928423
-0.00700772
-0.00152851
-0.000759155
-0.00357074
-0.00544238
-0.000522585
-0.00711242
-0.00896705
0.00138636
-0.00625396
-0.0149596
-0.0114512
-0.00681491
-0.00463362
-0.00860007
-0.0218275
-0.0228815
-0.00896165
0.000695409
-0.003302
-0.00250139
-0.00358339
-0.00638138
-0.00417601
-0.0152398
-0.0283151
-0.00640365
0.00740331
-0.00801923
-0.0336649
-0.0462472
-0.0222355
0.00543267
0.0069193
0.00351849
-0.004856
-0.0217202
-0.0189443
-0.00879156
-0.00953018
-0.010033
-0.0046379
-0.00232942
-0.00978061
-0.0126717
-0.00185348
-0.00702208
-0.00556368
0.00097144
-0.00825353
-0.01291
-0.0122465
-0.00712233
-0.00433494
-0.0061543
-0.0202439
-0.0201931
-0.00543243
-0.00175369
-0.00779204
-0.0135363
-0.00426422
-0.00485149
-0.00664211
-0.0214361
-0.0254885
-0.0017717
0.0138237
-0.0030186
-0.0351899
-0.0498325
-0.0195939
0.00766021
0.00393985
0.00489695
-0.00501473
-0.0204155
-0.0149083
-0.011066
-0.00988741
-0.010133
-0.00611496
-0.00555508
-0.0113399
-0.0142586
-0.00674331
-0.00911487
-0.00643754
-0.000639028
-0.00657035
-0.0153927
-0.0176141
-0.0095701
-0.00418342
-0.00538736
-0.0210642
-0.016963
-0.00198365
-0.00476574
-0.0141269
-0.016273
-0.0071371
-0.00748262
-0.00663875
-0.0245166
-0.022376
0.00542146
0.015297
0.00211892
-0.0359567
-0.0504116
-0.0155367
0.00215376
0.001774
0.00398693
-0.0118462
-0.0229008
-0.015986
-0.0107479
-0.00931025
-0.00883103
-0.00695165
-0.00874665
-0.0109975
-0.0114632
-0.00489527
-0.010002
-0.00932345
-0.00161445
-0.00411349
-0.0148444
-0.0177997
-0.010342
-0.00429992
-0.00116968
-0.017134
-0.0171603
-0.000559237
0.00404319
-0.0116182
-0.0134124
-0.00695301
-0.00579839
-0.00687476
-0.0230195
-0.0182275
0.017896
0.0161688
0.00263472
-0.0360578
-0.0454258
-0.0142116
0.00282938
0.0014028
0.00298921
-0.0106389
-0.0176417
-0.0147535
-0.0102805
-0.00698526
-0.00271813
-0.00446306
-0.00836225
-0.0091915
-0.0104395
-0.00751963
-0.0118992
-0.0123805
-0.000131126
-0.00336206
-0.0141946
-0.0178495
-0.0102032
-0.00730631
-0.0112507
-0.0215393
-0.021455
-0.00386422
0.00330849
-0.0135698
-0.0159407
-0.00838215
-0.00560449
-0.0070719
-0.0250696
-0.0165716
0.0124418
0.0203052
8.32692e-05
-0.0342463
-0.0485482
-0.0150536
0.000412772
-0.0047538
-0.00450554
-0.0102494
-0.0199698
-0.0162502
-0.0166268
-0.0122869
-0.00770091
-0.00893104
-0.00996563
-0.0101223
-0.0118532
-0.00366419
-0.0109185
-0.0146685
0.000822871
-0.000479026
-0.0118255
-0.0163315
-0.00948859
-0.00644187
-0.00592176
-0.0191863
-0.0179182
-0.00450129
0.00043849
-0.00955688
-0.0152711
-0.0109489
-0.00770305
-0.00581405
-0.0253612
-0.0167212
0.0146488
0.0264129
-0.00117036
-0.0304613
-0.0458975
-0.0145329
0.00606949
-0.00079284
0.0010485
-0.00998157
-0.0180474
-0.0166602
-0.0150034
-0.0101541
-0.00674916
-0.00394868
-0.00664216
-0.0101629
-0.00982508
-0.00802445
-0.0141145
-0.0170621
-0.00443865
-0.00207627
-0.0178359
-0.0199175
-0.0125713
-0.0086055
-0.0117202
-0.023163
-0.0222832
-0.00731249
-0.00343191
-0.0135126
-0.0184125
-0.0132779
-0.0101079
-0.0109947
-0.0266899
-0.0176085
0.0123057
0.0192428
-0.00345351
-0.0315778
-0.0459908
-0.0164862
0.000740562
-0.00507313
-0.00431415
-0.0134008
-0.023218
-0.0196811
-0.0176212
-0.0120478
-0.0077725
-0.0108293
-0.011532
-0.0137108
-0.0137429
-0.000989245
-0.0100509
-0.0141872
-0.00362323
-0.000192808
-0.0113155
-0.0132157
-0.00777153
-0.00442023
-0.00437264
-0.0168872
-0.016268
-0.00340584
0.000797757
-0.00617218
-0.0122545
-0.0085088
-0.00589666
-0.00826098
-0.0275375
-0.0141152
0.020481
0.0261274
0.00417148
-0.0275599
-0.0397841
-0.0106386
0.00574453
0.000831771
0.00315378
-0.00675751
-0.0164025
-0.01431
-0.0115449
-0.00780227
-0.00455643
-0.00336051
-0.00461609
-0.00800209
-0.0079467
-0.0109214
-0.0179261
-0.0190651
-0.00708818
-0.00483012
-0.0194653
-0.0217822
-0.0152482
-0.011572
-0.0148266
-0.0264758
-0.0252516
-0.0107793
-0.00710199
-0.0164217
-0.0214482
-0.0166649
-0.0137479
-0.0146447
-0.0328718
-0.0187888
0.0118923
0.0174364
-0.00572409
-0.0377741
-0.0481289
-0.0191711
-0.00211574
-0.00739175
-0.00621058
-0.0157881
-0.0252746
-0.0228952
-0.0205218
-0.0152498
-0.0133202
-0.0128024
-0.0125863
-0.0154611
-0.0158841
0.00232215
-0.00445336
-0.00632751
0.00504906
0.00719727