/*--------------------------------*- C++ -*----------------------------------*\
  =========                 |
  \\      /  F ield         | OpenFOAM: The Open Source CFD Toolbox
   \\    /   O peration     | Website:  https://openfoam.org
    \\  /    A nd           | Version:  10
     \\/     M anipulation  |
\*---------------------------------------------------------------------------*/
FoamFile
{
    format      ascii;
    class       volVectorField;
    location    "0";
    object      U;
}
// * * * * * * * * * * * * * * * * * * * * * * * * * * * * * * * * * * * * * //

dimensions      [0 1 -1 0 0 0 0];

internalField   nonuniform List<vector> 
25600
(
(1.06111 0 0.00704318)
(1.09338 0 0.0174087)
(1.05152 0 1.02081e-17)
(1.0483 0 -0.00900519)
(1.07266 0 -0.00837499)
(1.0623 0 0.0071809)
(1.05166 0 0.00963478)
(1.07497 0 3.15078e-17)
(1.06909 0 -0.0128866)
(1.04396 0 -0.00506585)
(1.06048 0 0.00697153)
(1.06615 0 0.0123295)
(1.05271 0 -1.2029e-17)
(1.05341 0 -0.00995315)
(1.07056 0 -0.00813204)
(1.07448 0 0.00858503)
(1.06356 0 0.011853)
(1.06223 0 1.04598e-17)
(1.06447 0 -0.0120204)
(1.06986 0 -0.00804831)
(1.07322 0 0.00843427)
(1.06055 0 0.0112871)
(1.07868 0 7.18207e-17)
(1.05894 0 -0.0109929)
(1.06531 0 -0.00752943)
(1.05943 0 0.00684538)
(1.06692 0 0.0124827)
(1.08505 0 8.17296e-17)
(1.06559 0 -0.0122298)
(1.04816 0 -0.0055478)
(1.07875 0 0.00907469)
(1.06832 0 0.0127441)
(1.05768 0 -2.21692e-17)
(1.06482 0 -0.0120858)
(1.0805 0 -0.00927517)
(1.07728 0 0.00890476)
(1.04774 0 0.00889957)
(1.07595 0 -2.55397e-17)
(1.06965 0 -0.0129886)
(1.08379 0 -0.00965492)
(1.16037 0 0.0184832)
(1.20076 0 0.0374353)
(1.1904 0 4.57138e-18)
(1.15645 0 -0.0291666)
(1.25781 0 -0.0297081)
(1.22946 0 0.026446)
(1.16086 0 0.0299883)
(1.20321 0 8.5405e-17)
(1.18242 0 -0.0340151)
(1.1785 0 -0.0205703)
(1.12719 0 0.0146607)
(1.16989 0 0.0316731)
(1.15134 0 7.08749e-17)
(1.19614 0 -0.0365708)
(1.21658 0 -0.0249594)
(1.22946 0 0.0264439)
(1.26033 0 0.0485463)
(1.15547 0 2.61358e-17)
(1.19327 0 -0.0360356)
(1.15939 0 -0.0183701)
(1.15568 0 0.0179426)
(1.12026 0 0.022418)
(1.19152 0 -2.25388e-16)
(1.23401 0 -0.0436296)
(1.18067 0 -0.0208171)
(1.19306 0 0.0222496)
(1.12124 0 0.0226024)
(1.20279 0 -8.76839e-17)
(1.25123 0 -0.0468469)
(1.13797 0 -0.0159029)
(1.23457 0 0.0270357)
(1.2646 0 0.0493354)
(1.13412 0 1.35256e-16)
(1.15435 0 -0.02878)
(1.17465 0 -0.0201308)
(1.2212 0 0.0254916)
(1.21308 0 0.0397273)
(1.17374 0 -5.8441e-17)
(1.22771 0 -0.0424557)
(1.14406 0 -0.0166004)
(1.28462 0 0.0327988)
(1.29057 0 0.0541845)
(1.27139 0 5.37726e-17)
(1.27538 0 -0.0513464)
(1.32977 0 -0.0380031)
(1.29295 0 0.0337634)
(1.32081 0 0.0598258)
(1.29568 0 2.12989e-17)
(1.33593 0 -0.0626387)
(1.31416 0 -0.0362055)
(1.33628 0 0.0387515)
(1.33782 0 0.062987)
(1.18529 0 -4.22923e-17)
(1.34174 0 -0.0637162)
(1.38255 0 -0.0440896)
(1.38297 0 0.0441339)
(1.25186 0 0.0469573)
(1.29624 0 -1.56541e-16)
(1.38094 0 -0.071031)
(1.23639 0 -0.0272398)
(1.37744 0 0.0434937)
(1.2954 0 0.0550796)
(1.39137 0 8.45713e-17)
(1.34622 0 -0.0645523)
(1.29869 0 -0.034425)
(1.28784 0 0.0331694)
(1.3528 0 0.0657841)
(1.28511 0 -1.23286e-16)
(1.29092 0 -0.0542443)
(1.33138 0 -0.0381895)
(1.27951 0 0.0322084)
(1.37086 0 0.0691549)
(1.18921 0 -7.27394e-17)
(1.27755 0 -0.051756)
(1.24115 0 -0.0277875)
(1.31976 0 0.036849)
(1.46116 0 0.0859947)
(1.44387 0 4.69068e-16)
(1.32536 0 -0.0606677)
(1.2653 0 -0.0305741)
(1.53487 0 0.0616384)
(1.42938 0 0.080062)
(1.27195 0 6.52983e-18)
(1.31416 0 -0.0585826)
(1.30863 0 -0.0355683)
(1.3696 0 0.0425921)
(1.34475 0 0.0642832)
(1.50547 0 3.64115e-17)
(1.3626 0 -0.0676102)
(1.44471 0 -0.0512465)
(1.44905 0 0.051748)
(1.41111 0 0.0766594)
(1.40369 0 4.70275e-16)
(1.31346 0 -0.0584504)
(1.37709 0 -0.0434571)
(1.36554 0 0.0421215)
(1.40061 0 0.0746976)
(1.36771 0 6.17972e-17)
(1.46858 0 -0.087378)
(1.46781 0 -0.053911)
(1.54754 0 0.0630982)
(1.28287 0 0.0527488)
(1.48965 0 1.05808e-16)
(1.53788 0 -0.100301)
(1.54551 0 -0.062867)
(1.31059 0 0.0357965)
(1.45178 0 0.0842474)
(1.39046 0 -1.6886e-16)
(1.24031 0 -0.0448147)
(1.51954 0 -0.0598694)
(1.35987 0 0.0414742)
(1.51415 0 0.0958735)
(1.41349 0 4.17109e-16)
(1.36869 0 -0.0687439)
(1.31892 0 -0.0367504)
(1.38213 0 0.0440358)
(1.34937 0 0.0651516)
(1.31283 0 -1.05238e-16)
(1.35056 0 -0.0653732)
(1.50785 0 -0.0585274)
(1.45045 0 0.0519067)
(1.39466 0 0.0735847)
(1.45836 0 1.10053e-17)
(1.58422 0 -0.108935)
(1.53361 0 -0.061494)
(1.41643 0 0.0479864)
(1.46403 0 0.0865236)
(1.51072 0 3.67886e-17)
(1.45738 0 -0.0852798)
(1.56847 0 -0.0655105)
(1.44688 0 0.0515026)
(1.36176 0 0.0674569)
(1.43456 0 -9.91813e-17)
(1.44723 0 -0.0833954)
(1.54684 0 -0.063015)
(1.47026 0 0.0541927)
(1.49973 0 0.0931774)
(1.62132 0 1.04432e-16)
(1.45794 0 -0.0853888)
(1.62517 0 -0.0720443)
(1.55615 0 0.0640893)
(1.39515 0 0.0736855)
(1.42035 0 9.08405e-17)
(1.33229 0 -0.0619653)
(1.48083 0 -0.0554101)
(1.32816 0 0.037818)
(1.4445 0 0.0828812)
(1.38059 0 -6.94714e-16)
(1.43736 0 -0.0815519)
(1.40089 0 -0.0462031)
(1.53298 0 0.0614244)
(1.54061 0 0.100802)
(1.46858 0 -8.3285e-16)
(1.43274 0 -0.0806969)
(1.44772 0 -0.0515989)
(1.39172 0 0.0451456)
(1.38864 0 0.0724646)
(1.58359 0 -1.96324e-16)
(1.45269 0 -0.0844096)
(1.41342 0 -0.047645)
(1.52703 0 0.0607397)
(1.40362 0 0.0752557)
(1.616 0 1.47902e-17)
(1.3325 0 -0.0620022)
(1.34482 0 -0.0397361)
(1.65261 0 0.0752083)
(1.40908 0 0.0762735)
(1.61943 0 2.60364e-16)
(1.5425 0 -0.101159)
(1.5334 0 -0.0614727)
(1.40999 0 0.0472482)
(1.32865 0 0.0612818)
(1.47012 0 -1.07292e-16)
(1.5684 0 -0.105986)
(1.34433 0 -0.0396803)
(1.50946 0 0.0587114)
(1.45913 0 0.0856096)
(1.27909 0 4.69065e-17)
(1.35966 0 -0.0670654)
(1.49448 0 -0.056983)
(1.26201 0 0.0301944)
(1.51856 0 0.0966878)
(1.34237 0 -4.0293e-16)
(1.38689 0 -0.0721418)
(1.40642 0 -0.0468334)
(1.3626 0 0.0417905)
(1.48314 0 0.090086)
(1.37086 0 3.56262e-16)
(1.5404 0 -0.100764)
(1.3458 0 -0.0398508)
(1.43603 0 0.0502457)
(1.43071 0 0.0803179)
(1.42889 0 -7.6236e-16)
(1.5922 0 -0.110431)
(1.37485 0 -0.0431994)
(1.49693 0 0.0572652)
(1.49595 0 0.0924794)
(1.46893 0 4.95538e-16)
(1.31108 0 -0.0580028)
(1.50421 0 -0.0581074)
(1.41902 0 0.0482897)
(1.47509 0 0.0885904)
(1.41258 0 9.90579e-18)
(1.43134 0 -0.0804268)
(1.41034 0 -0.0472916)
(1.37324 0 0.0430088)
(1.43736 0 0.0815585)
(1.39753 0 2.8634e-17)
(1.3024 0 -0.0563895)
(1.34629 0 -0.0399066)
(1.47719 0 0.0549881)
(1.16618 0 0.0309812)
(1.28931 0 1.35503e-16)
(1.39088 0 -0.072889)
(1.3087 0 -0.0355756)
(1.27153 0 0.0312939)
(1.4781 0 0.0891527)
(1.31353 0 -3.84123e-16)
(1.48069 0 -0.089628)
(1.30982 0 -0.0357014)
(1.36603 0 0.0421813)
(1.41524 0 0.0774315)
(1.53522 0 -6.29914e-16)
(1.36456 0 -0.0679761)
(1.35497 0 -0.0409086)
(1.41615 0 0.0479605)
(1.54565 0 0.101742)
(1.44996 0 4.32254e-16)
(1.37506 0 -0.0699334)
(1.34153 0 -0.0393592)
(1.30933 0 0.035648)
(1.4214 0 0.0785743)
(1.4179 0 4.21512e-16)
(1.28028 0 -0.0522566)
(1.32242 0 -0.0371543)
(1.28616 0 0.0329798)
(1.38857 0 0.0724483)
(1.40621 0 -1.36638e-16)
(1.43757 0 -0.0815883)
(1.48461 0 -0.0558505)
(1.16604 0 0.0191343)
(1.36918 0 0.0688429)
(1.29841 0 3.315e-17)
(1.33642 0 -0.0627273)
(1.31171 0 -0.0359194)
(1.34272 0 0.0394973)
(1.19341 0 0.0360678)
(1.25991 0 1.87238e-17)
(1.32963 0 -0.0614628)
(1.31899 0 -0.0367573)
(1.18382 0 0.021182)
(1.24577 0 0.0458318)
(1.19733 0 9.24199e-17)
(1.30142 0 -0.0562105)
(1.32746 0 -0.0377368)
(1.38199 0 0.0440235)
(1.33971 0 0.0633385)
(1.21406 0 3.59835e-17)
(1.30464 0 -0.0567989)
(1.2723 0 -0.0313779)
(1.20916 0 0.0241013)
(1.2947 0 0.0549489)
(1.11508 0 1.05005e-16)
(1.27664 0 -0.0515774)
(1.26824 0 -0.030911)
(1.25781 0 0.0297089)
(1.24815 0 0.046271)
(1.23135 0 2.22269e-16)
(1.31612 0 -0.0589426)
(1.36442 0 -0.0419956)
(1.16625 0 0.0191581)
(1.26684 0 0.04975)
(1.35441 0 3.57487e-16)
(1.29211 0 -0.054472)
(1.2877 0 -0.0331579)
(1.2212 0 0.0254906)
(1.32235 0 0.0601115)
(1.26348 0 2.78446e-16)
(1.3955 0 -0.0737431)
(1.29526 0 -0.0340264)
(1.12908 0 0.0148736)
(1.17353 0 0.0323606)
(1.21903 0 -3.28823e-17)
(1.25501 0 -0.0475561)
(1.16541 0 -0.0190584)
(1.07567 0 0.00871969)
(1.21469 0 0.0400358)
(1.23303 0 1.67845e-17)
(1.20902 0 -0.0389784)
(1.17248 0 -0.0198805)
(1.15218 0 0.017539)
(1.18081 0 0.033721)
(1.20482 0 9.59212e-17)
(1.13734 0 -0.0256081)
(1.12502 0 -0.0144069)
(1.19852 0 0.0228739)
(1.23107 0 0.0430799)
(1.15344 0 2.57847e-17)
(1.16268 0 -0.0303287)
(1.20209 0 -0.0232922)
(1.1806 0 0.0208136)
(1.18144 0 0.0338373)
(1.13552 0 1.23693e-16)
(1.23884 0 -0.0445368)
(1.17633 0 -0.0203192)
(1.15309 0 0.0176455)
(1.19425 0 0.0362212)
(1.2317 0 -1.00195e-16)
(1.14938 0 -0.0278503)
(1.18522 0 -0.021347)
(1.14028 0 0.016168)
(1.24311 0 0.0453348)
(1.1771 0 -6.80838e-17)
(1.23716 0 -0.0442211)
(1.21623 0 -0.02492)
(1.19166 0 0.0220882)
(1.17829 0 0.0332491)
(1.13314 0 -4.4778e-17)
(1.15568 0 -0.0290228)
(1.15589 0 -0.0179687)
(1.13265 0 0.015286)
(1.13356 0 0.0249057)
(1.09555 0 2.2943e-18)
(1.05278 0 -0.00983687)
(1.08687 0 -0.010015)
(1.1029 0 0.0118595)
(1.1015 0 0.0189268)
(1.11851 0 8.53629e-18)
(1.09408 0 -0.0175393)
(1.09261 0 -0.0106706)
(1.12222 0 0.0140844)
(1.07861 0 0.0146584)
(1.10052 0 4.70722e-17)
(1.0994 0 -0.0185336)
(1.09212 0 -0.0106146)
(1.09219 0 0.0106269)
(1.06069 0 0.011312)
(1.06783 0 5.86726e-17)
(1.0938 0 -0.0174941)
(1.0441 0 -0.00508584)
(1.13048 0 0.0150347)
(1.11851 0 0.0221037)
(1.13062 0 1.192e-16)
(1.10731 0 -0.0200118)
(1.12971 0 -0.0149463)
(1.11074 0 0.0127628)
(1.08449 0 0.0157603)
(1.09527 0 -1.73971e-16)
(1.06923 0 -0.0129103)
(1.0637 0 -0.0073371)
(1.09282 0 0.0107006)
(1.11473 0 0.0213929)
(1.09065 0 -3.48454e-17)
(1.07728 0 -0.0144096)
(1.0973 0 -0.0112129)
(1.05796 0 0.00667677)
(1.04823 0 0.00899613)
(1.08148 0 8.61354e-17)
(1.1036 0 -0.0193168)
(1.12621 0 -0.0145479)
(1.04067 0 0.00468513)
(1.03164 0 0.00590406)
(1.04935 0 1.18536e-18)
(1.04046 0 -0.00754142)
(1.03724 0 -0.00429061)
(1.03416 0 0.00393907)
(1.03654 0 0.00681886)
(1.04522 0 1.8993e-17)
(1.04039 0 -0.00752592)
(1.03731 0 -0.00430155)
(1.0364 0 0.00419604)
(1.04053 0 0.0075509)
(1.03066 0 -6.99665e-18)
(1.03696 0 -0.00688834)
(1.04375 0 -0.00504432)
(1.03717 0 0.00428069)
(1.04809 0 0.00896538)
(1.02324 0 -1.22855e-17)
(1.04018 0 -0.00749136)
(1.03066 0 -0.00353292)
(1.04669 0 0.00537955)
(1.04424 0 0.00825253)
(1.0588 0 1.27076e-17)
(1.03934 0 -0.00734196)
(1.04858 0 -0.00559511)
(1.04039 0 0.0046586)
(1.04816 0 0.00898195)
(1.0378 0 -1.63347e-17)
(1.04235 0 -0.0079014)
(1.04655 0 -0.0053648)
(1.01995 0 0.00229534)
(1.03192 0 0.00594967)
(1.04032 0 4.06848e-17)
(1.04592 0 -0.00855906)
(1.04221 0 -0.00486177)
(1.04263 0 0.00491619)
(1.0413 0 0.00770218)
(1.03696 0 3.90723e-17)
(1.04711 0 -0.00877965)
(1.03486 0 -0.00402121)
(1.01337 0 0.00153826)
(1.01379 0 0.0025694)
(1.01036 0 2.49106e-19)
(1.01127 0 -0.00210131)
(1.01456 0 -0.00168162)
(1.01169 0 0.00134585)
(1.01022 0 0.0019077)
(1.01071 0 7.72813e-19)
(1.01204 0 -0.00224847)
(1.01386 0 -0.00159467)
(1.01225 0 0.00141203)
(1.01218 0 0.00227057)
(1.01302 0 6.08877e-18)
(1.01267 0 -0.00236202)
(1.01204 0 -0.00138542)
(1.01547 0 0.00178242)
(1.01113 0 0.00207498)
(1.01029 0 1.72804e-18)
(1.01351 0 -0.00252027)
(1.00735 0 -0.000848272)
(1.01337 0 0.0015394)
(1.01232 0 0.00229794)
(1.0126 0 2.71734e-18)
(1.01225 0 -0.00228007)
(1.00861 0 -0.000991471)
(1.01036 0 0.00119593)
(1.01309 0 0.00243826)
(1.01225 0 -5.30205e-18)
(1.0119 0 -0.00222292)
(1.00966 0 -0.00110961)
(1.01057 0 0.00121996)
(1.00952 0 0.00178146)
(1.00868 0 -1.54679e-17)
(1.01407 0 -0.00262393)
(1.01015 0 -0.0011691)
(1.00973 0 0.00112377)
(1.0126 0 0.00234319)
(1.00903 0 9.51315e-18)
(1.01183 0 -0.00221002)
(1.01127 0 -0.00130061)
(1.00273 0 0.000315178)
(1.00238 0 0.000440377)
(1.00203 0 4.80723e-20)
(1.00238 0 -0.000441199)
(1.00231 0 -0.000265166)
(1.0014 0 0.00015766)
(1.00308 0 0.000574401)
(1.00224 0 -6.15274e-19)
(1.00182 0 -0.000341903)
(1.00245 0 -0.000282572)
(1.00224 0 0.000255334)
(1.00203 0 0.000378739)
(1.00259 0 1.22526e-18)
(1.00266 0 -0.000493072)
(1.00238 0 -0.000274333)
(1.00294 0 0.000340368)
(1.0021 0 0.000390481)
(1.0028 0 4.69643e-19)
(1.00175 0 -0.000330668)
(1.00182 0 -0.000212972)
(1.00161 0 0.000185749)
(1.00301 0 0.000564486)
(1.00133 0 2.89726e-19)
(1.00357 0 -0.000666854)
(1.00308 0 -0.000358299)
(1.00245 0 0.000279017)
(1.00203 0 0.000382496)
(1.00154 0 -6.62053e-19)
(1.00266 0 -0.000494273)
(1.00238 0 -0.000274035)
(1.00266 0 0.000306618)
(1.00189 0 0.000349813)
(1.00245 0 -9.38565e-19)
(1.00259 0 -0.000477288)
(1.00231 0 -0.00026339)
(1.00259 0 0.000294567)
(1.00266 0 0.000489741)
(1.00217 0 -7.21173e-19)
(1.00196 0 -0.000365741)
(1.0028 0 -0.000322952)
(1.00028 0 3.22285e-05)
(1.00035 0 6.41952e-05)
(1.00021 0 2.63855e-20)
(1.00035 0 -6.87408e-05)
(1.00042 0 -4.69474e-05)
(1.00028 0 3.03077e-05)
(1.00035 0 6.95337e-05)
(1.00021 0 1.59921e-20)
(1.00035 0 -6.41681e-05)
(1.00028 0 -3.25211e-05)
(1.00035 0 3.66139e-05)
(1.00028 0 4.76061e-05)
(1.00042 0 -9.33308e-20)
(1.00028 0 -5.81821e-05)
(1.00028 0 -3.25971e-05)
(1.00028 0 3.58976e-05)
(1.00035 0 6.78277e-05)
(1.00035 0 5.37593e-20)
(1.00028 0 -4.81012e-05)
(1.00014 0 -1.79421e-05)
(1.00035 0 4.43079e-05)
(1.00028 0 4.93916e-05)
(1.00028 0 2.24118e-19)
(1.00021 0 -4.45491e-05)
(1.00035 0 -4.30486e-05)
(1.00035 0 4.22365e-05)
(1.00028 0 4.92636e-05)
(1.00035 0 -6.10874e-19)
(1.00028 0 -5.41482e-05)
(1.00028 0 -3.3385e-05)
(1.00028 0 2.92128e-05)
(1.00028 0 5.65207e-05)
(1.00028 0 -5.36768e-19)
(1.00028 0 -5.86778e-05)
(1.00028 0 -3.30152e-05)
(1.00028 0 3.42755e-05)
(1.00035 0 6.22731e-05)
(1.00028 0 -8.96406e-19)
(1.00028 0 -5.24232e-05)
(1.00021 0 -2.47823e-05)
(1 0 1.78346e-06)
(1 0 3.84263e-06)
(1 0 -2.93749e-21)
(1 0 -3.87531e-06)
(1 0 -2.68992e-06)
(1 0 2.08193e-06)
(1 0 3.95992e-06)
(1 0 1.61565e-21)
(1 0 -4.11663e-06)
(1 0 -2.26539e-06)
(1 0 2.47456e-06)
(1 0 4.00238e-06)
(1 0 -4.40159e-21)
(1 0 -4.46591e-06)
(1 0 -2.41558e-06)
(1 0 2.74485e-06)
(1 0 3.50005e-06)
(1 0 3.67908e-21)
(1 0 -4.09333e-06)
(1 0 -2.62079e-06)
(1 0 2.65715e-06)
(1 0 3.7565e-06)
(1 0 1.55694e-20)
(1 0 -4.19347e-06)
(1 0 -2.35409e-06)
(1 0 2.72382e-06)
(1 0 3.90396e-06)
(1 0 -7.82946e-21)
(1 0 -3.57467e-06)
(1 0 -1.87364e-06)
(1 0 2.57952e-06)
(1 0 4.31329e-06)
(1 0 -7.0282e-21)
(1 0 -4.61735e-06)
(1 0 -1.60397e-06)
(1 0 1.53152e-06)
(1 0 4.25059e-06)
(1 0 -7.69034e-21)
(1 0 -3.1075e-06)
(1 0 -1.66015e-06)
(1 0 9.18108e-08)
(1 0 9.46738e-08)
(1 0 1.05877e-22)
(1 0 -1.22668e-07)
(1 0 -6.81148e-08)
(1 0 1.14081e-07)
(1 0 2.25885e-07)
(1 0 5.56134e-23)
(1 0 -1.28667e-07)
(1 0 -7.1071e-08)
(1 0 1.10722e-07)
(1 0 1.45172e-07)
(1 0 9.21459e-22)
(1 0 -1.55152e-07)
(1 0 -8.13623e-08)
(1 0 4.72836e-08)
(1 0 1.47053e-07)
(1 0 1.55147e-22)
(1 0 -1.1756e-07)
(1 0 -1.0236e-07)
(1 0 7.05283e-08)
(1 0 1.50902e-07)
(1 0 1.39863e-22)
(1 0 -9.45336e-08)
(1 0 -1.1478e-07)
(1 0 9.40864e-08)
(1 0 9.66761e-08)
(1 0 -1.94994e-22)
(1 0 -9.13943e-08)
(1 0 -5.48571e-08)
(1 0 5.22691e-08)
(1 0 1.68054e-07)
(1 0 -3.80762e-22)
(1 0 -1.95745e-07)
(1 0 -9.87533e-08)
(1 0 6.44377e-08)
(1 0 1.43576e-07)
(1 0 -1.52886e-22)
(1 0 -1.11859e-07)
(1 0 -1.22778e-07)
(1 0 1.61366e-09)
(1 0 1.72933e-09)
(1 0 2.99564e-25)
(1 0 -2.34367e-09)
(1 0 -1.12854e-09)
(1 0 1.31767e-09)
(1 0 2.07586e-09)
(1 0 -2.61976e-24)
(1 0 -2.87714e-09)
(1 0 -1.31708e-09)
(1 0 1.32829e-09)
(1 0 1.60101e-09)
(1 0 -7.64958e-24)
(1 0 -2.62586e-09)
(1 0 -1.68468e-09)
(1 0 1.41608e-09)
(1 0 2.17921e-09)
(1 0 1.963e-24)
(1 0 -2.03009e-09)
(1 0 -1.12079e-09)
(1 0 1.02558e-09)
(1 0 1.72336e-09)
(1 0 2.57026e-24)
(1 0 -1.83062e-09)
(1 0 -8.71848e-10)
(1 0 1.26493e-09)
(1 0 2.36412e-09)
(1 0 -4.34672e-24)
(1 0 -2.38643e-09)
(1 0 -1.34964e-09)
(1 0 1.05272e-09)
(1 0 2.20758e-09)
(1 0 -2.27345e-23)
(1 0 -2.36814e-09)
(1 0 -1.52995e-09)
(1 0 1.95125e-09)
(1 0 2.57071e-09)
(1 0 1.04872e-23)
(1 0 -1.7843e-09)
(1 0 -1.31237e-09)
(1 0 9.44231e-12)
(1 0 1.11826e-11)
(1 0 1.28428e-26)
(1 0 -1.18439e-11)
(1 0 -6.78785e-12)
(1 0 6.33195e-12)
(1 0 9.89567e-12)
(1 0 -1.28173e-26)
(1 0 -9.3032e-12)
(1 0 -9.0994e-12)
(1 0 9.24972e-12)
(1 0 7.28579e-12)
(1 0 -1.40177e-26)
(1 0 -1.17774e-11)
(1 0 -6.43892e-12)
(1 0 1.01462e-11)
(1 0 9.92883e-12)
(1 0 8.99918e-27)
(1 0 -1.09694e-11)
(1 0 -6.35579e-12)
(1 0 9.32719e-12)
(1 0 1.56574e-11)
(1 0 9.66496e-27)
(1 0 -1.39886e-11)
(1 0 -6.81621e-12)
(1 0 8.37178e-12)
(1 0 1.12861e-11)
(1 0 1.61614e-25)
(1 0 -1.265e-11)
(1 0 -8.38462e-12)
(1 0 7.30976e-12)
(1 0 1.14595e-11)
(1 0 -2.04202e-26)
(1 0 -1.07009e-11)
(1 0 -7.56831e-12)
(1 0 5.79151e-12)
(1 0 1.59851e-11)
(1 0 -2.0114e-26)
(1 0 -1.21352e-11)
(1 0 -9.06196e-12)
(1 0 7.5055e-15)
(1 0 2.06128e-14)
(1 0 2.44597e-30)
(1 0 -2.36056e-14)
(1 0 -1.51634e-14)
(1 0 1.10652e-14)
(1 0 1.37379e-14)
(1 0 -3.46062e-29)
(1 0 -1.97602e-14)
(1 0 -8.40195e-15)
(1 0 8.65263e-15)
(1 0 1.58496e-14)
(1 0 -3.54084e-29)
(1 0 -1.86334e-14)
(1 0 -8.7401e-15)
(1 0 9.93451e-15)
(1 0 1.52391e-14)
(1 0 -3.67726e-29)
(1 0 -1.94447e-14)
(1 0 -9.32306e-15)
(1 0 8.11421e-15)
(1 0 2.03884e-14)
(1 0 1.99832e-29)
(1 0 -1.56339e-14)
(1 0 -9.63134e-15)
(1 0 1.12498e-14)
(1 0 1.06628e-14)
(1 0 -3.38226e-29)
(1 0 -2.08556e-14)
(1 0 -1.06441e-14)
(1 0 7.40061e-15)
(1 0 2.24429e-14)
(1 0 -3.67783e-29)
(1 0 -1.17014e-14)
(1 0 -9.15246e-15)
(1 0 1.01283e-14)
(1 0 1.35209e-14)
(1 0 -2.32379e-29)
(1 0 -1.33023e-14)
(1 0 -8.86552e-15)
(1 0 4.64453e-18)
(1 0 5.71079e-18)
(1 0 6.52519e-34)
(1 0 -6.92585e-18)
(1 0 -3.20432e-18)
(1 0 3.5166e-18)
(1 0 6.26671e-18)
(1 0 2.22158e-33)
(1 0 -6.06675e-18)
(1 0 -2.79335e-18)
(1 0 4.25908e-18)
(1 0 5.0398e-18)
(1 0 1.8294e-32)
(1 0 -5.67596e-18)
(1 0 -4.58811e-18)
(1 0 3.29887e-18)
(1 0 5.28184e-18)
(1 0 2.69192e-32)
(1 0 -6.21547e-18)
(1 0 -2.60154e-18)
(1 0 3.95876e-18)
(1 0 5.07484e-18)
(1 0 6.46414e-33)
(1 0 -7.3407e-18)
(1 0 -2.72581e-18)
(1 0 3.63969e-18)
(1 0 4.94986e-18)
(1 0 -1.13549e-32)
(1 0 -7.66919e-18)
(1 0 -3.86749e-18)
(1 0 2.86096e-18)
(1 0 5.51499e-18)
(1 0 3.20911e-32)
(1 0 -4.62787e-18)
(1 0 -2.38389e-18)
(1 0 3.18729e-18)
(1 0 5.90019e-18)
(1 0 -1.10393e-32)
(1 0 -6.39548e-18)
(1 0 -3.46776e-18)
(1 0 1.66914e-22)
(1 0 3.35569e-22)
(1 0 3.56938e-38)
(1 0 -2.7988e-22)
(1 0 -1.64926e-22)
(1 0 1.97504e-22)
(1 0 2.64895e-22)
(1 0 9.48385e-38)
(1 0 -2.62791e-22)
(1 0 -1.20416e-22)
(1 0 1.50625e-22)
(1 0 2.72188e-22)
(1 0 -3.5945e-37)
(1 0 -3.0337e-22)
(1 0 -1.86302e-22)
(1 0 1.93693e-22)
(1 0 2.01207e-22)
(1 0 -1.1215e-36)
(1 0 -2.87496e-22)
(1 0 -2.27087e-22)
(1 0 1.99159e-22)
(1 0 2.84081e-22)
(1 0 3.25609e-37)
(1 0 -4.14982e-22)
(1 0 -1.41368e-22)
(1 0 1.58168e-22)
(1 0 2.70814e-22)
(1 0 -5.087e-37)
(1 0 -2.4969e-22)
(1 0 -1.82882e-22)
(1 0 1.72762e-22)
(1 0 2.32144e-22)
(1 0 -3.1222e-36)
(1 0 -3.69467e-22)
(1 0 -1.07207e-22)
(1 0 2.37323e-22)
(1 0 1.82987e-22)
(1 0 -5.10503e-37)
(1 0 -1.88295e-22)
(1 0 -1.84662e-22)
(1 0 7.87989e-28)
(1 0 1.28703e-27)
(1 0 2.07625e-43)
(1 0 -1.38617e-27)
(1 0 -1.05808e-27)
(1 0 6.21225e-28)
(1 0 1.58636e-27)
(1 0 5.15729e-43)
(1 0 -1.33805e-27)
(1 0 -1.14107e-27)
(1 0 8.61885e-28)
(1 0 1.13096e-27)
(1 0 3.31857e-42)
(1 0 -1.48945e-27)
(1 0 -9.78382e-28)
(1 0 6.83614e-28)
(1 0 1.56166e-27)
(1 0 1.57297e-42)
(1 0 -1.75139e-27)
(1 0 -9.91819e-28)
(1 0 9.58661e-28)
(1 0 1.23152e-27)
(1 0 8.09773e-43)
(1 0 -1.48131e-27)
(1 0 -5.77731e-28)
(1 0 9.22562e-28)
(1 0 1.46573e-27)
(1 0 -1.2586e-41)
(1 0 -1.38766e-27)
(1 0 -9.88077e-28)
(1 0 8.13971e-28)
(1 0 1.48542e-27)
(1 0 -9.44918e-42)
(1 0 -1.79394e-27)
(1 0 -8.13908e-28)
(1 0 9.25288e-28)
(1 0 9.97417e-28)
(1 0 -2.42746e-42)
(1 0 -9.49757e-28)
(1 0 -8.18322e-28)
(1 0 1.09374e-34)
(1 0 5.12898e-34)
(1 0 3.50791e-49)
(1 0 -3.80265e-34)
(1 0 -2.76528e-34)
(1 0 1.35111e-34)
(1 0 4.2323e-34)
(1 0 1.75054e-49)
(1 0 -4.56407e-34)
(1 0 -2.26528e-34)
(1 0 2.48686e-34)
(1 0 3.82167e-34)
(1 0 9.38069e-49)
(1 0 -4.79046e-34)
(1 0 -2.41562e-34)
(1 0 2.6158e-34)
(1 0 2.81736e-34)
(1 0 2.98446e-49)
(1 0 -4.8404e-34)
(1 0 -3.05573e-34)
(1 0 2.67466e-34)
(1 0 4.72699e-34)
(1 0 -2.03373e-48)
(1 0 -5.03491e-34)
(1 0 -2.48229e-34)
(1 0 2.56209e-34)
(1 0 4.53141e-34)
(1 0 5.43195e-48)
(1 0 -3.56432e-34)
(1 0 -2.3137e-34)
(1 0 2.07708e-34)
(1 0 4.12249e-34)
(1 0 -2.72404e-48)
(1 0 -5.16229e-34)
(1 0 -2.87793e-34)
(1 0 2.67633e-34)
(1 0 3.47879e-34)
(1 0 2.71691e-48)
(1 0 -4.65324e-34)
(1 0 -2.44946e-34)
(1 0 3.22019e-42)
(1 0 3.74002e-42)
(1 0 -1.8005e-57)
(1 0 -4.34107e-42)
(1 0 -2.16479e-42)
(1 0 2.90579e-42)
(1 0 3.82319e-42)
(1 0 1.28351e-57)
(1 0 -4.62364e-42)
(1 0 -3.55283e-42)
(1 0 2.95342e-42)
(1 0 3.3433e-42)
(1 0 -1.13701e-56)
(1 0 -2.67169e-42)
(1 0 -2.83314e-42)
(1 0 2.9453e-42)
(1 0 3.67905e-42)
(1 0 3.35542e-57)
(1 0 -4.33952e-42)
(1 0 -1.95001e-42)
(1 0 2.14817e-42)
(1 0 4.39287e-42)
(1 0 3.81709e-57)
(1 0 -2.4111e-42)
(1 0 -3.41319e-42)
(1 0 3.36505e-42)
(1 0 3.25052e-42)
(1 0 -1.07614e-56)
(1 0 -2.94482e-42)
(1 0 -3.31905e-42)
(1 0 2.69123e-42)
(1 0 2.75218e-42)
(1 0 -6.33493e-57)
(1 0 -4.59378e-42)
(1 0 -1.57934e-42)
(1 0 1.83293e-42)
(1 0 3.10934e-42)
(1 0 2.5888e-56)
(1 0 -4.21375e-42)
(1 0 -3.50498e-42)
(1 0 4.6835e-52)
(1 0 8.03925e-52)
(1 0 6.29471e-67)
(1 0 -7.07767e-52)
(1 0 -5.02437e-52)
(1 0 4.09423e-52)
(1 0 5.87842e-52)
(1 0 2.38841e-67)
(1 0 -6.43851e-52)
(1 0 -3.85561e-52)
(1 0 3.863e-52)
(1 0 5.82933e-52)
(1 0 1.88857e-66)
(1 0 -6.14522e-52)
(1 0 -2.79351e-52)
(1 0 4.82955e-52)
(1 0 7.9258e-52)
(1 0 6.26713e-67)
(1 0 -7.01581e-52)
(1 0 -3.81001e-52)
(1 0 4.30724e-52)
(1 0 7.75834e-52)
(1 0 5.08787e-67)
(1 0 -6.44519e-52)
(1 0 -4.54631e-52)
(1 0 3.75729e-52)
(1 0 8.03022e-52)
(1 0 2.0553e-66)
(1 0 -6.72473e-52)
(1 0 -4.56247e-52)
(1 0 6.13303e-52)
(1 0 8.18038e-52)
(1 0 4.91763e-66)
(1 0 -5.81806e-52)
(1 0 -2.96544e-52)
(1 0 4.63749e-52)
(1 0 5.85117e-52)
(1 0 1.02459e-65)
(1 0 -7.4513e-52)
(1 0 -5.2941e-52)
(1 0 3.76073e-64)
(1 0 6.66302e-64)
(1 0 1.01279e-79)
(1 0 -7.04389e-64)
(1 0 -4.28729e-64)
(1 0 4.29439e-64)
(1 0 7.57842e-64)
(1 0 1.96584e-79)
(1 0 -7.23117e-64)
(1 0 -5.50463e-64)
(1 0 4.78711e-64)
(1 0 8.17787e-64)
(1 0 -6.48616e-79)
(1 0 -6.70679e-64)
(1 0 -3.73331e-64)
(1 0 3.7385e-64)
(1 0 1.00366e-63)
(1 0 3.23525e-78)
(1 0 -6.43082e-64)
(1 0 -4.02684e-64)
(1 0 3.1416e-64)
(1 0 4.56155e-64)
(1 0 8.58906e-79)
(1 0 -7.40309e-64)
(1 0 -2.86774e-64)
(1 0 4.25761e-64)
(1 0 5.49215e-64)
(1 0 4.17531e-78)
(1 0 -9.29983e-64)
(1 0 -2.90589e-64)
(1 0 5.28973e-64)
(1 0 8.09509e-64)
(1 0 -6.56348e-78)
(1 0 -3.75711e-64)
(1 0 -3.70212e-64)
(1 0 2.85812e-64)
(1 0 6.02886e-64)
(1 0 4.2988e-78)
(1 0 -8.24503e-64)
(1 0 -4.90119e-64)
(1 0 8.54883e-79)
(1 0 1.32415e-78)
(1 0 2.10327e-94)
(1 0 -1.07307e-78)
(1 0 -8.57866e-79)
(1 0 1.18093e-78)
(1 0 1.47266e-78)
(1 0 3.42742e-93)
(1 0 -1.24732e-78)
(1 0 -6.45158e-79)
(1 0 8.19971e-79)
(1 0 1.33317e-78)
(1 0 -1.85159e-93)
(1 0 -1.9404e-78)
(1 0 -7.14719e-79)
(1 0 1.22642e-78)
(1 0 1.43008e-78)
(1 0 1.23554e-92)
(1 0 -1.31088e-78)
(1 0 -8.30133e-79)
(1 0 8.88538e-79)
(1 0 1.35392e-78)
(1 0 -8.9151e-93)
(1 0 -1.77789e-78)
(1 0 -9.608e-79)
(1 0 6.65702e-79)
(1 0 1.96195e-78)
(1 0 5.62121e-93)
(1 0 -1.14385e-78)
(1 0 -9.77467e-79)
(1 0 7.15175e-79)
(1 0 1.50928e-78)
(1 0 -1.43893e-92)
(1 0 -1.25437e-78)
(1 0 -7.18009e-79)
(1 0 8.12074e-79)
(1 0 1.34171e-78)
(1 0 -3.35048e-93)
(1 0 -1.49075e-78)
(1 0 -1.05434e-78)
(1 0 1.17379e-96)
(1 0 1.51441e-96)
(1 0 2.34177e-111)
(1 0 -1.90623e-96)
(1 0 -1.1553e-96)
(1 0 1.1729e-96)
(1 0 1.05778e-96)
(1 0 6.59731e-112)
(1 0 -1.82921e-96)
(1 0 -1.05521e-96)
(1 0 1.37297e-96)
(1 0 1.13264e-96)
(1 0 -1.96583e-111)
(1 0 -1.69264e-96)
(1 0 -1.05453e-96)
(1 0 7.40525e-97)
(1 0 1.79512e-96)
(1 0 8.2839e-111)
(1 0 -1.97915e-96)
(1 0 -1.11786e-96)
(1 0 1.30457e-96)
(1 0 1.79063e-96)
(1 0 1.77099e-111)
(1 0 -2.18461e-96)
(1 0 -1.40965e-96)
(1 0 1.42809e-96)
(1 0 1.90707e-96)
(1 0 -5.37828e-111)
(1 0 -1.94386e-96)
(1 0 -1.44822e-96)
(1 0 1.03876e-96)
(1 0 2.43101e-96)
(1 0 -1.18809e-110)
(1 0 -2.31026e-96)
(1 0 -1.33459e-96)
(1 0 1.06212e-96)
(1 0 1.43013e-96)
(1 0 1.65042e-110)
(1 0 -1.59255e-96)
(1 0 -1.03862e-96)
(1 0 1.71143e-118)
(1 0 2.96917e-118)
(1 0 2.03873e-133)
(1 0 -4.06767e-118)
(1 0 -1.9606e-118)
(1 0 2.26302e-118)
(1 0 3.24916e-118)
(1 0 1.40399e-133)
(1 0 -2.82783e-118)
(1 0 -1.55402e-118)
(1 0 1.69745e-118)
(1 0 2.51469e-118)
(1 0 -3.97588e-133)
(1 0 -2.38199e-118)
(1 0 -1.96856e-118)
(1 0 9.83232e-119)
(1 0 2.62528e-118)
(1 0 2.78524e-133)
(1 0 -2.67912e-118)
(1 0 -1.75096e-118)
(1 0 1.81555e-118)
(1 0 3.47676e-118)
(1 0 2.1935e-133)
(1 0 -2.85568e-118)
(1 0 -1.57664e-118)
(1 0 1.62879e-118)
(1 0 2.20683e-118)
(1 0 -5.64104e-133)
(1 0 -3.36018e-118)
(1 0 -2.13675e-118)
(1 0 1.85487e-118)
(1 0 2.65707e-118)
(1 0 -6.99018e-133)
(1 0 -3.25143e-118)
(1 0 -1.92779e-118)
(1 0 1.58941e-118)
(1 0 2.97659e-118)
(1 0 1.73284e-132)
(1 0 -3.12856e-118)
(1 0 -1.56808e-118)
(1 0 3.65868e-145)
(1 0 5.42552e-145)
(1 0 3.58124e-160)
(1 0 -6.41098e-145)
(1 0 -3.98856e-145)
(1 0 4.11395e-145)
(1 0 7.53638e-145)
(1 0 2.71494e-160)
(1 0 -7.81824e-145)
(1 0 -3.67129e-145)
(1 0 3.61571e-145)
(1 0 6.96741e-145)
(1 0 1.7525e-159)
(1 0 -6.615e-145)
(1 0 -4.59703e-145)
(1 0 3.51229e-145)
(1 0 5.2952e-145)
(1 0 4.56439e-159)
(1 0 -6.42431e-145)
(1 0 -3.88154e-145)
(1 0 2.99584e-145)
(1 0 7.65115e-145)
(1 0 4.82797e-159)
(1 0 -4.22112e-145)
(1 0 -3.61838e-145)
(1 0 5.55051e-145)
(1 0 5.67176e-145)
(1 0 2.69357e-159)
(1 0 -5.8117e-145)
(1 0 -3.1697e-145)
(1 0 3.94013e-145)
(1 0 4.45843e-145)
(1 0 4.35177e-159)
(1 0 -6.59042e-145)
(1 0 -4.1237e-145)
(1 0 3.86177e-145)
(1 0 6.99967e-145)
(1 0 4.06056e-159)
(1 0 -7.19623e-145)
(1 0 -3.69101e-145)
(1 0 1.85795e-177)
(1 0 2.20723e-177)
(1 0 3.84612e-193)
(1 0 -2.0175e-177)
(1 0 -1.88432e-177)
(1 0 2.05643e-177)
(1 0 2.78005e-177)
(1 0 1.18052e-192)
(1 0 -3.19508e-177)
(1 0 -1.52786e-177)
(1 0 1.5807e-177)
(1 0 3.02908e-177)
(1 0 1.66442e-191)
(1 0 -2.31021e-177)
(1 0 -1.82152e-177)
(1 0 1.49436e-177)
(1 0 3.13519e-177)
(1 0 3.22923e-192)
(1 0 -2.96537e-177)
(1 0 -1.54028e-177)
(1 0 1.89595e-177)
(1 0 3.59614e-177)
(1 0 3.54204e-192)
(1 0 -3.99009e-177)
(1 0 -1.90306e-177)
(1 0 1.55462e-177)
(1 0 3.02301e-177)
(1 0 -2.08769e-191)
(1 0 -2.78271e-177)
(1 0 -1.96367e-177)
(1 0 2.24313e-177)
(1 0 2.23928e-177)
(1 0 -4.97154e-192)
(1 0 -3.14997e-177)
(1 0 -1.6196e-177)
(1 0 1.40828e-177)
(1 0 2.35031e-177)
(1 0 -4.47407e-192)
(1 0 -3.37866e-177)
(1 0 -1.57648e-177)
(1 0 5.98557e-217)
(1 0 1.03197e-216)
(1 0 1.02106e-232)
(1 0 -1.28077e-216)
(1 0 -6.95567e-217)
(1 0 7.24546e-217)
(1 0 1.39346e-216)
(1 0 4.32198e-232)
(1 0 -1.28966e-216)
(1 0 -5.96198e-217)
(1 0 6.46755e-217)
(1 0 1.48721e-216)
(1 0 -2.99188e-231)
(1 0 -1.4374e-216)
(1 0 -6.551e-217)
(1 0 5.5203e-217)
(1 0 8.82179e-217)
(1 0 9.605e-232)
(1 0 -9.28314e-217)
(1 0 -7.19307e-217)
(1 0 5.79062e-217)
(1 0 1.12712e-216)
(1 0 5.61892e-231)
(1 0 -6.72105e-217)
(1 0 -5.82847e-217)
(1 0 7.42169e-217)
(1 0 1.42116e-216)
(1 0 -3.1498e-231)
(1 0 -1.11006e-216)
(1 0 -8.58334e-217)
(1 0 7.17604e-217)
(1 0 1.22832e-216)
(1 0 -9.22182e-231)
(1 0 -1.26591e-216)
(1 0 -7.19612e-217)
(1 0 4.0768e-217)
(1 0 1.35538e-216)
(1 0 -1.37072e-231)
(1 0 -1.16026e-216)
(1 0 -6.12518e-217)
(0.935558 0 0.00742646)
(0.932772 0 0.0125357)
(0.930252 0 1.67472e-18)
(0.919094 0 -0.015086)
(0.911779 0 -0.0101663)
(0.949509 0 0.00581872)
(0.911961 0 0.0164161)
(0.953282 0 1.96354e-17)
(0.935649 0 -0.0119995)
(0.933633 0 -0.00764827)
(0.935061 0 0.00748359)
(0.936433 0 0.0118525)
(0.934893 0 -1.48582e-17)
(0.949656 0 -0.00938735)
(0.934487 0 -0.00754967)
(0.954444 0 0.00524974)
(0.932401 0 0.012605)
(0.913914 0 1.44689e-17)
(0.956152 0 -0.00817659)
(0.942103 0 -0.00667212)
(0.934487 0 0.00754958)
(0.929538 0 0.013139)
(0.933598 0 6.06037e-17)
(0.918933 0 -0.0151159)
(0.929118 0 -0.0081689)
(0.931988 0 0.00783813)
(0.936888 0 0.0117681)
(0.939422 0 1.42582e-16)
(0.93462 0 -0.0121915)
(0.915972 0 -0.00968343)
(0.933927 0 0.00761396)
(0.940472 0 0.0110998)
(0.966484 0 -5.95784e-17)
(0.946947 0 -0.00989275)
(0.934025 0 -0.00760343)
(0.939527 0 0.00696916)
(0.943643 0 0.0105092)
(0.946037 0 -9.33262e-17)
(0.921082 0 -0.0147156)
(0.945554 0 -0.00627414)
(0.808102 0 0.0221146)
(0.786878 0 0.0397398)
(0.77173 0 5.4808e-18)
(0.776147 0 -0.04174)
(0.822844 0 -0.0204154)
(0.773886 0 0.0260575)
(0.766599 0 0.0435211)
(0.815893 0 -5.0858e-17)
(0.74065 0 -0.0483601)
(0.816691 0 -0.021125)
(0.806401 0 0.022311)
(0.802509 0 0.0368256)
(0.755112 0 1.14687e-16)
(0.805267 0 -0.0363107)
(0.841485 0 -0.0182674)
(0.864249 0 0.0156438)
(0.753397 0 0.0459827)
(0.80932 0 3.20485e-17)
(0.804119 0 -0.0365245)
(0.775811 0 -0.0258361)
(0.82605 0 0.0200459)
(0.828066 0 0.03206)
(0.784701 0 -5.53337e-16)
(0.81289 0 -0.0348892)
(0.90389 0 -0.0110757)
(0.768482 0 0.0266802)
(0.820919 0 0.0333925)
(0.795894 0 -8.82612e-17)
(0.818385 0 -0.0338647)
(0.821458 0 -0.0205757)
(0.800773 0 0.0229596)
(0.816621 0 0.0341932)
(0.752375 0 -9.51894e-17)
(0.760803 0 -0.0446016)
(0.804413 0 -0.0225394)
(0.818966 0 0.0208627)
(0.865817 0 0.0250201)
(0.778219 0 -7.46039e-17)
(0.78699 0 -0.0397189)
(0.822193 0 -0.0204911)
(0.658211 0 0.0393886)
(0.712048 0 0.0536931)
(0.674556 0 7.81406e-18)
(0.697845 0 -0.0563415)
(0.604815 0 -0.0455417)
(0.681353 0 0.0367214)
(0.695045 0 0.0568626)
(0.686617 0 2.25732e-17)
(0.781061 0 -0.0408249)
(0.749505 0 -0.0288672)
(0.735386 0 0.0304946)
(0.64237 0 0.0666849)
(0.717599 0 1.32257e-16)
(0.591991 0 -0.0760793)
(0.644554 0 -0.0409624)
(0.800024 0 0.0230457)
(0.602757 0 0.0740715)
(0.7368 0 4.42366e-17)
(0.698517 0 -0.0562157)
(0.645513 0 -0.0408517)
(0.669047 0 0.0381398)
(0.628762 0 0.069223)
(0.661011 0 -3.98988e-16)
(0.745151 0 -0.0475208)
(0.715359 0 -0.0328025)
(0.625318 0 0.0431792)
(0.644204 0 0.0663439)
(0.692126 0 -1.33134e-16)
(0.633494 0 -0.0683398)
(0.74478 0 -0.029412)
(0.707218 0 0.0337403)
(0.677846 0 0.0600703)
(0.684643 0 -1.21226e-16)
(0.692315 0 -0.0573726)
(0.749295 0 -0.0288916)
(0.64272 0 0.0411736)
(0.56733 0 0.0806781)
(0.704516 0 -5.11033e-16)
(0.608847 0 -0.0729362)
(0.778373 0 -0.0255405)
(0.473663 0 0.0606556)
(0.513899 0 0.0906405)
(0.509188 0 5.45184e-17)
(0.633298 0 -0.0683773)
(0.603611 0 -0.0456807)
(0.583234 0 0.0480288)
(0.606642 0 0.0733479)