/*--------------------------------*- C++ -*----------------------------------*\
  =========                 |
  \\      /  F ield         | OpenFOAM: The Open Source CFD Toolbox
   \\    /   O peration     | Website:  https://openfoam.org
    \\  /    A nd           | Version:  10
     \\/     M anipulation  |
\*---------------------------------------------------------------------------*/
FoamFile
{
    format      ascii;
    class       surfaceScalarField;
    location    "0.01";
    object      phi;
}
// * * * * * * * * * * * * * * * * * * * * * * * * * * * * * * * * * * * * * //

dimensions      [0 3 -1 0 0 0 0];

internalField   nonuniform List<scalar> 
300480
(
0.000243728
1.26919e-06
4.07421e-06
0.000243457
3.66464e-07
8.78507e-06
0.000243431
-2.72337e-08
2.52796e-06
0.00024378
5.00757e-07
-3.95269e-06
0.000243796
1.57919e-06
-3.40806e-06
0.000243305
1.48755e-06
4.72957e-06
0.000243046
3.42289e-07
8.56186e-06
0.000244051
-9.81642e-07
2.4743e-06
0.000243753
1.74299e-06
-4.38871e-06
0.000243204
1.4463e-06
-2.11805e-06
0.000243217
7.61801e-07
5.13644e-06
0.000243298
7.46996e-07
8.84483e-06
0.000243431
4.23481e-07
2.2114e-06
0.000244122
-7.48306e-07
-2.23411e-06
0.00024411
-4.4814e-07
-1.56549e-06
0.000243697
8.16866e-07
5.16014e-06
0.000243077
1.35516e-06
6.68566e-06
0.000243912
-7.19823e-07
2.07866e-06
0.000243883
-6.46734e-07
-3.54403e-06
0.000243803
-3.7121e-07
-1.23248e-06
0.000243401
1.2753e-06
5.57821e-06
0.000243426
2.24532e-08
8.99271e-06
0.000244133
-4.92562e-07
2.66432e-06
0.000243956
1.38686e-06
-4.34535e-06
0.000243484
1.76015e-06
-2.9674e-06
0.000243491
6.94929e-07
5.0487e-06
0.000243337
2.49435e-06
6.98499e-06
0.000243967
-4.23487e-07
2.39694e-06
0.000244065
-1.23406e-06
-3.44168e-06
0.000243658
7.11449e-07
-2.33701e-06
0.000243519
9.48407e-07
5.08468e-06
0.00024311
-1.78901e-07
7.2225e-06
0.000243417
-1.34063e-06
2.59108e-06
0.000244071
-1.48268e-06
-2.62079e-06
0.00024399
1.23226e-06
-3.31444e-06
0.000243236
1.92722e-06
4.91137e-06
0.000242935
1.03079e-06
6.39414e-06
0.000243945
-7.4615e-07
2.42992e-06
0.000244682
-1.04531e-06
-4.04302e-06
7.36435e-07
-2.74097e-06
0.000279009
1.67429e-06
7.86763e-06
0.000279461
1.69242e-06
1.96299e-05
0.000278797
2.73212e-07
7.11602e-07
0.000279381
8.85589e-07
-1.9839e-05
0.000281247
-8.86471e-07
-1.68753e-05
0.000280201
3.13114e-06
1.13884e-05
0.000278902
1.79709e-06
1.9211e-05
0.000279445
-1.73178e-06
1.23396e-06
0.000279097
6.42487e-06
-2.32384e-05
0.000278128
1.24203e-06
-1.35409e-05
0.000277924
2.17741e-06
7.66695e-06
0.00027833
1.56041e-06
1.88394e-05
0.000278277
6.33241e-07
1.078e-06
0.000279552
-2.2772e-06
-2.00827e-05
0.000280637
-2.87682e-06
-1.3332e-05
0.000281859
2.26116e-07
8.45275e-06
0.000280012
1.28613e-06
2.33615e-05
0.000279083
3.40526e-07
6.06115e-07
0.000279076
-2.12316e-06
-2.1153e-05
0.000278693
3.18505e-07
-1.27068e-05
0.00027761
2.9309e-06
8.24533e-06
0.000277927
1.6938e-06
1.55835e-05
0.000280275
-2.10765e-06
6.59601e-07
0.000280235
9.65617e-07
-2.11576e-05
0.000279428
-7.28392e-07
-1.21536e-05
0.000278625
1.085e-06
1.07215e-05
0.000277656
5.35885e-06
1.37251e-05
0.000280202
-3.05061e-06
7.03221e-07
0.000280088
-2.16019e-06
-2.18389e-05
0.00027935
-9.32733e-07
-1.24517e-05
0.000281786
-5.93644e-07
1.01936e-05
0.000280014
1.74186e-06
2.13351e-05
0.000277635
-1.93245e-07
1.44554e-06
0.000278247
-3.74894e-06
-1.94699e-05
0.000279489
2.08776e-06
-1.49443e-05
0.000280539
1.35741e-06
9.67638e-06
0.000279446
2.57474e-06
1.67935e-05
0.000279669
-1.29702e-06
6.95582e-07
0.000280098
-9.92798e-07
-2.16946e-05
2.8648e-06
-1.26486e-05
0.000313825
1.65744e-06
1.84304e-05
0.000313126
6.90855e-06
3.26456e-05
0.000312701
-1.06909e-07
3.89551e-06
0.000313017
7.78064e-08
-3.12755e-05
0.000313873
-3.44341e-07
-2.74733e-05
0.000314486
1.66051e-06
1.84718e-05
0.000314043
2.62137e-06
3.51953e-05
0.000313612
-2.31538e-06
4.18865e-06
0.000313468
7.23463e-06
-3.08455e-05
0.000314646
-2.02935e-06
-2.09896e-05
0.000315874
4.83296e-06
1.77829e-05
0.00031272
2.30209e-06
4.01122e-05
0.000311227
2.26837e-06
4.05473e-06
0.000314958
-7.81683e-07
-4.05577e-05
0.000317395
-1.35166e-06
-2.73887e-05
0.000315716
4.43316e-06
1.71231e-05
0.000312526
5.22873e-06
3.59237e-05
0.000314535
-2.16559e-06
3.91959e-06
0.000313496
1.25239e-06
-3.88213e-05
0.000314452
-2.04482e-06
-2.20027e-05
0.000315466
2.35479e-06
2.12935e-05
0.000315533
8.5523e-07
3.97212e-05
0.000315964
-2.27791e-06
3.15305e-06
0.000313857
-7.55302e-08
-3.25547e-05
0.000313092
1.47303e-06
-2.40111e-05
0.00031518
-4.12671e-06
1.95456e-05
0.000314552
1.00893e-05
3.88137e-05
0.000312554
-1.57046e-06
3.77663e-06
0.000313565
-3.46351e-06
-3.46644e-05
0.000313472
-2.07218e-06
-2.30169e-05
0.000315488
-3.02426e-06
1.65767e-05
0.000313688
8.43483e-06
3.88867e-05
0.000310423
1.93194e-06
4.41989e-06
0.000311505
-1.00452e-05
-3.14411e-05
0.000312658
3.85126e-06
-1.97233e-05
0.000316956
-1.84859e-06
1.98862e-05
0.000319759
-4.95368e-06
4.96893e-05
0.000317517
1.55323e-07
4.10841e-06
0.000313945
9.67354e-06
-3.81586e-05
-5.24421e-07
-1.96073e-05
0.000354418
1.15896e-06
3.44056e-05
0.000348009
6.8098e-06
5.67511e-05
0.000345049
2.14264e-06
6.37316e-06
0.000344849
-2.68212e-06
-4.06101e-05
0.000346586
-2.65211e-06
-3.03037e-05
0.000347651
-1.69642e-06
2.65153e-05
0.000350472
-2.17598e-06
4.60423e-05
0.000350484
-2.57871e-06
4.91817e-06
0.000348263
-2.23929e-06
-4.12448e-05
0.000351307
-4.33591e-06
-4.20372e-05
0.00035166
-2.58604e-06
3.04224e-05
0.000351228
8.25285e-06
5.04802e-05
0.000347656
7.92162e-06
3.81027e-06
0.000346573
-7.22119e-06
-3.54369e-05
0.000348475
-5.39586e-06
-3.49673e-05
0.000348971
4.8292e-06
2.43077e-05
0.000348109
-7.63061e-06
5.92658e-05
0.000349495
-5.00724e-06
5.345e-06
0.000351182
-5.19099e-06
-4.78125e-05
0.000355369
-4.32317e-06
-4.10475e-05
0.000351682
7.45127e-06
2.79745e-05
0.000348812
1.20007e-06
4.67083e-05
0.0003542
-7.5543e-06
4.7328e-06
0.000355115
3.75767e-06
-6.26826e-05
0.000350593
-4.49369e-06
-3.60817e-05
0.00034976
-2.31856e-06
2.3122e-05
0.000350653
9.57497e-06
5.28417e-05
0.000345998
1.83033e-06
4.96902e-06
0.000348402
-7.74069e-06
-3.72788e-05
0.000350961
-2.65083e-06
-4.08962e-05
0.000351654
-6.78843e-06
2.45674e-05
0.000353131
8.66277e-06
5.93637e-05
0.000349675
4.78745e-06
5.00987e-06
0.000347587
-5.68304e-06
-4.48889e-05
0.000347449
7.9207e-06
-3.14975e-05
0.000348069
-3.86868e-06
2.86891e-05
0.000346237
-1.3589e-05
5.78792e-05
0.000346397
-7.03922e-07
5.82101e-06
0.00035052
1.36188e-05
-5.34679e-05
-3.94696e-06
-4.05478e-05
0.000385436
-6.16713e-06
3.95987e-05
0.000384947
-5.82833e-06
6.47719e-05
0.000389975
-3.63272e-06
7.0879e-06
0.000391926
-4.49093e-06
-6.93902e-05
0.000389009
-3.01593e-06
-4.33584e-05
0.000387471
2.16146e-06
2.74436e-05
0.000389075
-3.12676e-06
6.07327e-05
0.000388752
-7.7802e-07
4.68881e-06
0.000389731
-7.09923e-06
-5.37435e-05
0.000391005
-1.06412e-06
-5.56214e-05
0.000386227
-4.55813e-07
4.12202e-05
0.000385214
1.19279e-05
5.5048e-05
0.00038641
6.59564e-06
6.11558e-06
0.000389727
-5.2744e-06
-5.68442e-05
0.000391366
-2.15484e-06
-5.15695e-05
0.000389553
7.4987e-06
3.15916e-05
0.00039273
-1.30808e-05
6.49097e-05
0.000392227
-5.31993e-06
5.44602e-06
0.000391293
-1.19582e-06
-6.39433e-05
0.000394995
-5.28725e-06
-5.7523e-05
0.000390477
7.64009e-06
4.12686e-05
0.000386619
2.01846e-05
5.05219e-05
0.000383813
-5.07612e-06
6.20787e-06
0.000384251
5.14017e-06
-4.91074e-05
0.000384953
-8.97689e-06
-4.37705e-05
0.000384437
4.65493e-06
2.84386e-05
0.000383933
-7.68087e-06
8.28078e-05
0.000385422
-1.93955e-06
8.46855e-06
0.000386282
3.95204e-06
-6.8032e-05
0.000388097
-4.3795e-06
-3.77185e-05
0.000392476
-1.04459e-05
3.64034e-05
0.000390835
1.61059e-05
6.12032e-05
0.000387368
8.81101e-06
4.81471e-06
0.000386199
-8.04324e-06
-5.74638e-05
0.000385266
-2.7542e-06
-3.54515e-05
0.000385201
-3.37461e-06
2.86937e-05
0.000389549
-3.95967e-07
4.96092e-05
0.000390872
-2.26949e-06
5.7673e-06
0.000387158
1.67216e-05
-5.34181e-05
-8.3206e-07
-4.34003e-05
0.000427496
-4.52962e-06
3.69495e-05
0.000429492
-1.1847e-05
6.74679e-05
0.000428573
-2.56397e-06
4.92579e-06
0.000418888
-8.23299e-07
-4.96433e-05
0.000427854
-1.57029e-05
-3.49181e-05
0.000431056
-7.5021e-07
4.78388e-05
0.000429356
-9.54292e-06
7.10823e-05
0.000433364
-3.62771e-06
5.42506e-06
0.000431325
-7.12587e-06
-6.93692e-05
0.000429059
6.5276e-06
-5.0142e-05
0.000422454
8.60245e-06
3.91506e-05
0.000422519
1.90478e-06
7.77221e-05
0.000429393
-8.15888e-07
8.04077e-06
0.000426841
-2.98587e-06
-7.31186e-05
0.000425525
1.08223e-06
-4.59941e-05
0.00042847
8.81036e-06
4.02771e-05
0.000422013
-2.0591e-05
8.00756e-05
0.000418804
-2.72077e-06
6.77016e-06
0.000424507
4.09395e-06
-5.86544e-05
0.000422115
-4.33839e-06
-4.66867e-05
0.000421651
1.46126e-06
3.44226e-05
0.000424593
5.43376e-06
7.66033e-05
0.000420537
-2.81978e-06
7.50053e-06
0.000421407
-8.96468e-06
-5.18425e-05
0.000422551
-4.42918e-06
-5.08978e-05
0.000425362
6.54422e-06
2.57084e-05
0.000424109
-1.04584e-05
7.77635e-05
0.000425535
-2.91907e-06
7.554e-06
0.000425128
-1.51036e-06
-6.63194e-05
0.000422828
-6.55919e-06
-3.92862e-05
0.000425586
-1.18931e-05
3.33467e-05
0.000424169
1.19978e-05
7.69571e-05
0.000429344
2.4225e-06
7.59294e-06
0.00042858
-1.13103e-06
-7.49559e-05
0.000424891
-4.96456e-06
-4.59577e-05
0.000428591
-7.83831e-06
3.42873e-05
0.00042859
-2.74539e-06
6.87693e-05
0.000422708
3.16205e-06
6.29325e-06
0.000422418
1.16822e-05
-5.15469e-05
-1.31415e-05
-4.8555e-05
0.000469845
5.6988e-08
3.25333e-05
0.000469482
1.4336e-06
6.20901e-05
0.000466977
1.32087e-06
5.30109e-06
0.000466733
-6.81941e-06
-5.34679e-05
0.000466424
-4.76243e-06
-5.1351e-05
0.000467101
4.208e-06
3.17454e-05
0.00046755
-2.80074e-06
7.04598e-05
0.000463045
1.27801e-06
6.19173e-06
0.000459532
-5.58568e-07
-5.30307e-05
0.000465358
-3.9774e-06
-4.03972e-05
0.000461151
-6.71713e-07
4.32094e-05
0.0004547
3.27099e-07
5.08238e-05
0.000461069
-5.67985e-06
5.46709e-06
0.000462882
2.11828e-06
-6.69285e-05
0.000458903
5.19788e-06
-3.83004e-05
0.000463791
3.6439e-06
2.89267e-05
0.000465204
-2.30164e-05
7.69196e-05
0.000464834
-1.94437e-06
7.67988e-06
0.00046495
-4.28146e-07
-7.96305e-05
0.000462109
5.32465e-06
-4.54972e-05
0.000463787
1.43872e-06
3.21235e-05
0.000469207
-1.42406e-05
7.3585e-05
0.000469093
-2.04818e-06
5.16097e-06
0.000462657
-1.04793e-05
-5.54535e-05
0.000464111
-1.82919e-06
-4.27183e-05
0.000470523
-3.43743e-06
3.76737e-05
0.000471377
-1.61865e-05
7.47177e-05
0.000467233
6.22652e-07
5.92852e-06
0.000464055
3.96309e-06
-5.78355e-05
0.00046217
-2.88846e-06
-4.16265e-05
0.00046418
4.57911e-06
2.14485e-05
0.000466483
8.16752e-06
6.76197e-05
0.000463032
4.60192e-06
6.61992e-06
0.000459715
5.16775e-06
-5.63709e-05
0.000459143
-9.76785e-06
-3.88068e-05
0.000461775
-8.4092e-06
2.55368e-05
0.000465442
7.96037e-07
6.21266e-05
0.000466332
4.05875e-06
5.58682e-06
0.000469491
4.31947e-06
-5.63138e-05
-8.41833e-06
-5.50099e-05
0.000501988
-3.06122e-06
2.30617e-05
0.000506728
-4.95231e-06
6.18749e-05
0.000506069
2.77874e-06
5.97959e-06
0.000506201
-1.64379e-05
-5.1057e-05
0.000507249
-3.57976e-06
-3.96575e-05
0.000503206
-5.62799e-07
3.46873e-05
0.00049959
-2.14326e-06
5.18135e-05
0.000503315
-2.21852e-06
5.55922e-06
0.000505834
-7.64866e-06
-4.87065e-05
0.000502284
-1.16077e-06
-4.1005e-05
0.000499283
-3.15336e-06
2.40062e-05
0.00049972
-2.3825e-06
5.31585e-05
0.000500501
-4.80069e-06
5.02642e-06
0.000505448
-1.36715e-06
-5.27026e-05
0.000509503
7.97895e-06
-4.40026e-05
0.0005112
1.09866e-06
3.09915e-05
0.000505696
7.31054e-07
4.73311e-05
0.000502655
8.69139e-07
4.71778e-06
0.000503777
-2.78379e-06
-5.7806e-05
0.00050178
8.01282e-06
-3.58071e-05
0.000502408
6.76898e-08
2.83642e-05
0.000499011
-9.17583e-06
5.42672e-05
0.000497763
4.18411e-07
5.03196e-06
0.000502501
-1.08801e-05
-5.40756e-05
0.000502656
-7.00107e-07
-3.63509e-05
0.000502262
-6.39405e-06
2.70897e-05
0.000499915
-1.88797e-05
4.55095e-05
0.000502402
-3.04966e-06
4.79064e-06
0.000507946
6.93891e-08
-5.55185e-05
0.000503669
-2.45001e-06
-4.13119e-05
0.000499302
9.16573e-06
2.15109e-05
0.000504326
-6.03483e-06
5.77374e-05
0.000506561
6.51364e-07
5.20851e-06
0.000505558
1.10608e-05
-5.65418e-05
0.000502847
-2.45585e-06
-4.3565e-05
0.00050374
7.98012e-07
2.06145e-05
0.000504238
1.95988e-07
6.40981e-05
0.000506808
2.7148e-06
5.91304e-06
0.000509198
1.54683e-06
-6.37016e-05
4.2828e-06
-3.86337e-05
0.000544428
-1.36971e-06
1.7122e-05
0.000546817
-2.52616e-06
3.37756e-05
0.000551318
-1.49692e-06
4.04362e-06
0.000549777
-5.88921e-06
-4.46087e-05
0.000542751
2.69833e-06
-2.36021e-05
0.000543525
-1.49184e-07
1.28318e-05
0.000549117
-6.85158e-06
3.95681e-05
0.000549763
-2.58057e-06
3.96412e-06
0.000547452
-5.81257e-06
-3.59571e-05
0.000545544
2.9298e-06
-2.88598e-05
0.000545496
-1.11323e-06
1.39658e-05
0.000547882
-9.97512e-07
3.51975e-05
0.000546103
-2.85633e-06
3.20516e-06
0.000542872
2.73088e-06
-3.03652e-05
0.000545063
5.53378e-06
-2.29486e-05
0.000549208
-1.73513e-06
1.98482e-05
0.00054815
5.35043e-06
3.12033e-05
0.000544799
3.65066e-06
2.7796e-06
0.000545264
-7.99808e-06
-3.30848e-05
0.0005475
2.95021e-06
-2.66305e-05
0.000547076
-2.09341e-06
2.04575e-05
0.000544731
-2.30916e-06
3.36409e-05
0.000546732
-1.58061e-06
4.33468e-06
0.000548364
-6.08635e-06
-4.47394e-05
0.00054554
-3.06293e-06
-2.28793e-05
0.000546447
-3.51297e-06
1.54535e-05
0.000548414
-1.10034e-05
3.52786e-05
0.000547199
-1.85363e-06
3.54613e-06
0.000546106
8.32889e-07
-3.44004e-05
0.000545177
1.28713e-06
-2.79055e-05
0.000547221
1.76258e-06
2.03844e-05
0.000548019
-1.12693e-05
4.39403e-05
0.000548028
-9.17013e-09
3.81274e-06
0.000550399
6.17342e-06
-4.07085e-05
0.000548554
-1.49962e-06
-2.53105e-05
0.000547321
-7.88501e-07
2.1284e-05
0.000544487
-2.17046e-06
4.31793e-05
0.000543735
3.08954e-06
4.21055e-06
0.000544371
3.38625e-06
-3.32883e-05
5.24229e-06
-2.52117e-05
0.000597514
-1.28934e-06
1.24981e-05
0.000595671
-4.41748e-06
2.68455e-05
0.000593106
6.39226e-07
2.27032e-06
0.000591854
6.7098e-07
-1.81473e-05
0.000593881
1.09492e-06
-1.38176e-05
0.0005949
-2.20506e-06
1.29673e-05
0.000595363
-4.83983e-06
1.94977e-05
0.000595111
-2.12681e-06
1.90346e-06
0.000593479
-2.51697e-06
-1.89131e-05
0.000595035
1.34912e-06
-1.48755e-05
0.000594915
4.3744e-08
1.10371e-05
0.000593832
-1.85625e-06
2.49906e-05
0.000594324
-3.08857e-06
2.14272e-06
0.000594222
4.12702e-06
-2.11963e-05
0.000594213
4.20304e-06
-1.44003e-05
0.000592517
2.42437e-07
1.20053e-05
0.000591341
2.4225e-06
1.8504e-05
0.000593131
1.13923e-06
1.54877e-06
0.000591794
-2.41553e-06
-2.14305e-05
0.000593384
2.81065e-06
-1.19276e-05
0.000596198
-5.29746e-06
1.51658e-05
0.000596352
-4.33785e-06
2.7108e-05
0.000596337
-2.23096e-06
2.59146e-06
0.000595836
-3.67498e-06
-2.16769e-05
0.000596661
-1.31188e-06
-1.89585e-05
0.000595191
6.15141e-07
1.01165e-05
0.000593615
-7.74473e-06
2.12747e-05
0.000593042
-1.62561e-06
1.99895e-06
0.000592036
4.80037e-06
-1.87874e-05
0.000592406
-1.52402e-07
-1.21095e-05
0.000595368
-5.72247e-07
1.06386e-05
0.00059478
-5.01066e-06
1.88076e-05
0.000592997
1.67794e-06
1.68591e-06
0.000593721
5.62361e-06
-1.75943e-05
0.000592961
2.5275e-07
-1.35594e-05
0.000590962
3.084e-07
7.38622e-06
0.00059108
-2.90562e-06
1.86316e-05
0.000593305
5.2912e-07
2.13406e-06
0.00059509
1.22899e-06
-2.12969e-05
2.82183e-06
-1.68388e-05
0.000648367
-9.88808e-07
4.64713e-06
0.000648279
-3.94099e-06
9.30598e-06
0.000648943
9.40687e-09
9.11748e-07
0.0006482
-5.92456e-09
-8.34615e-06
0.000648279
1.00685e-06
-6.301e-06
0.000648403
-2.25849e-06
4.77226e-06
0.000648424
-3.96774e-06
7.15487e-06
0.000648521
-1.97359e-06
7.15034e-07
0.000647969
-2.70248e-06
-7.50624e-06
0.000648257
9.86636e-07
-5.66062e-06
0.000648667
5.36156e-07
4.30562e-06
0.000648465
-1.83283e-07
8.91196e-06
0.000647671
-1.6477e-06
9.13765e-07
0.00064841
1.49834e-06
-8.53765e-06
0.000648727
2.46632e-06
-6.33552e-06
0.00064873
-5.25696e-07
4.55892e-06
0.000648272
2.19999e-06
9.37523e-06
0.000647818
1.2521e-06
5.86877e-07
0.000647796
-1.9116e-06
-9.18469e-06
0.000648654
1.52227e-06
-5.49855e-06
0.000649009
-4.08797e-06
4.79565e-06
0.000649422
-4.60008e-06
1.13026e-05
0.000649311
-2.05876e-06
1.08405e-06
0.000648471
-3.60418e-06
-7.66257e-06
0.000648982
-4.22753e-07
-7.84034e-06
0.000649287
-4.33575e-08
5.88818e-06
0.000648711
-4.96933e-06
1.02204e-05
0.000648198
-9.6512e-07
1.0366e-06
0.000649208
3.52428e-06
-1.00869e-05
0.000648205
4.62783e-07
-6.81604e-06
0.000647489
-2.99894e-07
4.43978e-06
0.000647644
-4.86319e-06
7.7597e-06
0.000648364
4.48279e-07
6.84436e-07
0.000648855
3.89789e-06
-9.47431e-06
0.000648611
-5.55823e-07
-6.05824e-06
0.000648886
-1.91597e-07
5.3875e-06
0.000648417
-1.21284e-06
7.72118e-06
0.0006486
3.59487e-07
7.22517e-07
0.000648523
2.15589e-07
-9.24204e-06
1.82459e-06
-5.58231e-06
0.000710885
-4.65904e-07
1.11434e-06
0.000710421
-2.6026e-06
2.70469e-06
0.000710472
4.81748e-09
2.46842e-07
0.000710475
-3.9635e-07
-3.0053e-06
0.000710818
5.62664e-07
-2.24584e-06
0.00071078
-8.8903e-07
1.37486e-06
0.000710234
-3.2882e-06
3.08285e-06
0.000710273
-1.87893e-06
3.02284e-07
0.000710334
-1.62304e-06
-3.13026e-06
0.000710692
1.09885e-06
-2.2046e-06
0.000710756
1.28838e-06
1.56613e-06
0.000710796
2.1553e-07
3.7979e-06
0.000710509
-1.10254e-06
4.61584e-07
0.000710604
1.32161e-06
-3.08178e-06
0.000710872
1.70242e-06
-2.28917e-06
0.000710632
-1.9491e-07
1.44086e-06
0.000710419
1.5137e-06
2.79251e-06
0.000710549
8.13807e-07
2.40413e-08
0.000710285
-9.58172e-07
-3.64034e-06
0.000710701
1.32662e-06
-1.36259e-06
0.000710743
-2.67511e-06
1.71493e-06
0.00071054
-3.4682e-06
3.80504e-06
0.000710535
-1.87726e-06
4.90858e-07
0.000710106
-2.63584e-06
-2.83555e-06
0.000710331
2.01459e-07
-2.00225e-06
0.000710752
-2.34464e-07
1.53449e-06
0.000710484
-3.23429e-06
2.36171e-06
0.000710279
-7.36893e-07
2.34154e-07
0.000710589
2.3028e-06
-2.46533e-06
0.000710489
4.00516e-07
-1.91511e-06
0.000710578
-5.83616e-07
1.49696e-06
0.000710043
-3.0283e-06
9.39306e-07
0.000710159
-2.33938e-08
-4.87503e-08
0.000710661
2.95102e-06
-3.79624e-06
0.000710353
3.97571e-07
-2.20873e-06
0.000710542
7.50345e-08
1.39617e-06
0.000710336
-6.07187e-07
2.61791e-06
0.000710339
3.9051e-07
1.27503e-07
0.000710473
5.00651e-07
-3.8031e-06
1.32922e-06
-1.93626e-06
0.000780632
-2.40693e-07
-2.64755e-08
0.000780364
-1.81729e-06
-3.11301e-08
0.000780539
-1.02912e-07
-5.3616e-08
0.000780393
-4.50939e-07
-5.50937e-07
0.000780552
4.98798e-07
-6.11433e-07
0.000780745
-5.27063e-07
1.57892e-07
0.000780409
-2.73355e-06
5.53004e-07
0.000780273
-1.61257e-06
2.64736e-08
0.000780222
-9.15694e-07
-5.57119e-07
0.000780506
1.16386e-06
-4.52479e-07
0.000780622
1.25057e-06
6.58469e-07
0.000780676
3.19376e-07
1.2952e-06
0.000780447
-7.52614e-07
2.56096e-07
0.00078054
9.25128e-07
-6.01499e-07
0.000780636
1.00017e-06
-3.37016e-07
0.000780463
-2.3668e-07
3.89488e-07
0.000780485
7.69684e-07
3.74442e-07
0.000780503
5.50565e-07
-1.63262e-07
0.000780396
-2.54193e-07
-1.0656e-06
0.000780678
1.04824e-06
-5.46739e-08
0.000780596
-1.73065e-06
3.55434e-07
0.000780436
-2.65616e-06
9.47708e-07
0.000780434
-1.72739e-06
2.43542e-07
0.000780348
-1.93806e-06
-8.7671e-07
0.000780604
3.29856e-07
-6.59149e-07
0.000780719
-2.15199e-08
3.6908e-07
0.00078035
-2.07395e-06
1.6528e-07
0.000780247
-6.50857e-07
1.78871e-08
0.000780647
1.49264e-06
-6.72602e-07
0.000780628
1.21552e-07
-6.41124e-07
0.000780647
-5.55921e-07
1.55014e-07
0.00078031
-2.17511e-06
-6.38687e-07
0.00078025
-2.52534e-07
-3.02427e-07
0.000780514
2.05515e-06
-5.10424e-07
0.000780482
4.59883e-07
-3.18948e-07
0.00078058
1.44501e-07
4.48997e-07
0.000780401
-5.03839e-07
3.84954e-07
0.000780429
3.4574e-07
-1.2592e-07
0.000780506
5.89124e-07
-1.23041e-06
8.30836e-07
-4.06705e-07
0.00085836
-1.34152e-07
-3.39634e-07
0.000858198
-1.20144e-06
-5.52638e-07
0.000858334
-1.38779e-07
-1.5456e-07
0.000858198
-4.85334e-07
-3.01954e-08
0.000858379
3.52509e-07
-2.01736e-07
0.000858526
-2.97314e-07
-9.04699e-08
0.000858183
-2.10999e-06
-5.37274e-08
0.000858084
-1.35674e-06
-6.43992e-08
0.000858064
-5.14478e-07
5.93183e-08
0.000858296
1.0797e-06
5.35299e-08
0.000858431
1.1571e-06
3.40173e-07
0.00085848
4.52553e-07
6.55531e-07
0.000858252
-4.79572e-07
2.18176e-07
0.000858312
5.63136e-07
-1.0733e-08
0.000858374
5.63975e-07
-8.44021e-09
0.000858258
-2.30916e-07
-5.81279e-08
0.000858261
3.36362e-07
-2.30081e-07
0.000858277
3.52254e-07
-1.71e-07
0.000858259
5.13297e-08
-2.93657e-07
0.000858467
7.03814e-07
3.91132e-07
0.000858375
-1.1608e-06
2.45709e-07
0.000858263
-1.96112e-06
2.01881e-07
0.000858209
-1.49378e-06
1.39051e-07
0.000858069
-1.38299e-06
-1.14904e-07
0.000858331
2.8968e-07
-1.53866e-07
0.000858464
5.08439e-08
9.38344e-08
0.000858228
-1.37571e-06
-2.03081e-07
0.000858123
-5.65819e-07
-3.99121e-08
0.000858412
1.01593e-06
-5.02119e-08
0.000858388
-2.33028e-08
-2.52593e-07
0.000858404
-5.4846e-07
-2.27946e-07
0.000858159
-1.59126e-06
-8.78065e-07
0.000858053
-3.73736e-07
-3.48054e-07
0.000858243
1.28969e-06
4.69067e-08
0.000858252
4.52102e-07
-2.20617e-08
0.000858327
1.95418e-07
6.4228e-08
0.000858196
-3.66914e-07
-2.85539e-07
0.000858248
2.73535e-07
-2.18785e-07
0.000858298
5.11941e-07
-4.19408e-07
5.06473e-07
1.45238e-08
0.000944109
-6.97868e-08
-3.47973e-07
0.000944008
-7.51524e-07
-5.60237e-07
0.000944113
-1.26804e-07
-1.9179e-07
0.00094399
-4.20498e-07
-1.80962e-08
0.000944139
2.42078e-07
-1.24142e-07
0.000944266
-1.7375e-07
-1.14638e-07
0.00094398
-1.59643e-06
-1.56014e-07
0.000943875
-1.08858e-06
-9.48962e-08
0.000943876
-2.52577e-07
1.28543e-07
0.000944078
9.69281e-07
1.42376e-07
0.000944198
1.02405e-06
2.8686e-07
0.000944243
4.88155e-07
5.02414e-07
0.000944059
-2.99834e-07
2.11171e-07
0.000944097
2.98928e-07
5.7783e-08
0.000944139
2.73336e-07
1.94626e-08
0.000944053
-2.32856e-07
-1.01822e-07
0.000944031
6.82069e-08
-2.58171e-07
0.000944047
1.98728e-07
-1.27817e-07
0.000944072
1.62934e-07
-5.14244e-08
0.00094421
4.36317e-07
4.21356e-07
0.000944136
-7.96071e-07
2.55021e-07
0.000944056
-1.43184e-06
1.27883e-07
0.000943993
-1.23424e-06
1.0685e-07
0.000943891
-9.87821e-07
-3.79629e-08
0.000944099
2.37133e-07
-6.4082e-08
0.000944209
6.61939e-08
5.50849e-08
0.000944029
-9.30404e-07
-1.60462e-07
0.000943937
-4.8298e-07
-4.5439e-08
0.000944172
6.36976e-07
3.66624e-09
0.000944163
-1.00555e-07
-2.10578e-07
0.000944162
-5.27946e-07
-3.01521e-07
0.000943973
-1.19391e-06
-7.75058e-07
0.000943868
-4.41522e-07
-3.36016e-07
0.000943994
7.40684e-07
3.98828e-08
0.000944024
3.8478e-07
-8.3928e-09
0.000944089
2.0551e-07
-3.00956e-08
0.000943986
-2.49337e-07
-3.55053e-07
0.000944035
2.11854e-07
-2.42805e-07
0.000944086
3.96261e-07
-2.60274e-07
2.84559e-07
-7.01144e-10
0.00103848
-3.20619e-08
-3.17523e-07
0.00103843
-4.32241e-07
-4.90069e-07
0.0010385
-8.62781e-08
-2.07376e-07
0.00103841
-3.18265e-07
-6.05817e-08
0.00103853
1.63157e-07
-1.11752e-07
0.00103863
-1.13414e-07
-1.1004e-07
0.00103839
-1.17497e-06
-1.55715e-07
0.00103829
-8.30338e-07
-1.05408e-07
0.00103831
-7.70643e-08
9.35963e-08
0.00103848
8.39229e-07
1.57284e-07
0.00103859
8.77366e-07
2.70148e-07
0.00103863
4.59495e-07
4.30859e-07
0.00103848
-1.8497e-07
2.02404e-07
0.0010385
1.20824e-07
5.40859e-08
0.00103852
9.05089e-08
5.28389e-09
0.00103846
-2.33106e-07
-9.0318e-08
0.00103843
-8.45294e-08
-1.95984e-07
0.00103844
8.64222e-08
-8.00719e-08
0.00103848
1.60877e-07
5.93656e-08
0.00103857
2.31648e-07
3.96449e-07
0.00103852
-5.69164e-07
2.7417e-07
0.00103846
-1.03047e-06
1.32918e-07
0.0010384
-9.77365e-07
9.28572e-08
0.00103832
-7.04414e-07
-2.22193e-08
0.00103849
1.74249e-07
-3.90508e-08
0.00103858
5.47407e-08
5.28476e-08
0.00103844
-6.41448e-07
-9.0174e-08
0.00103837
-4.06047e-07
-4.11366e-08
0.00103855
3.58811e-07
-1.78054e-08
0.00103855
-1.41365e-07
-2.05717e-07
0.00103854
-4.90684e-07
-3.12191e-07
0.00103839
-9.23691e-07
-6.20938e-07
0.00103829
-4.67273e-07
-3.09479e-07
0.00103837
3.65357e-07
-2.46086e-08
0.00103841
2.97655e-07
-4.77543e-08
0.00103847
1.9167e-07
-7.37798e-08
0.0010384
-1.49019e-07
-3.28959e-07
0.00103844
1.65845e-07
-2.46207e-07
0.00103848
2.88961e-07
-2.08764e-07
1.50032e-07
-5.53719e-08
0.00114231
-5.79801e-09
-2.88571e-07
0.00114228
-2.15886e-07
-4.19412e-07
0.00114234
-3.59693e-08
-2.1034e-07
0.00114227
-2.09725e-07
-8.90369e-08
0.00114236
1.10925e-07
-1.05696e-07
0.00114243
-8.28835e-08
-1.05551e-07
0.00114224
-8.37299e-07
-1.4633e-07
0.00114215
-5.99005e-07
-1.07127e-07
0.00114217
3.44638e-08
6.04583e-08
0.00114232
7.0642e-07
1.52345e-07
0.00114242
7.29293e-07
2.516e-07
0.00114245
3.9856e-07
3.68813e-07
0.00114234
-1.13752e-07
1.89448e-07
0.00114234
8.62097e-09
4.94651e-08
0.00114235
-1.97139e-08
-3.99303e-10
0.00114231
-2.2735e-07
-6.88581e-08
0.00114227
-1.60478e-07
-1.33653e-07
0.00114228
5.30242e-09
-3.6456e-08
0.00114232
1.07533e-07
1.14753e-07
0.00114238
8.47011e-08
3.54518e-07
0.00114234
-4.26129e-07
2.73277e-07
0.0011423
-7.35826e-07
1.42035e-07
0.00114224
-7.46909e-07
8.72868e-08
0.00114219
-5.02718e-07
-8.63139e-09
0.00114233
1.11578e-07
-1.94324e-08
0.0011424
2.95466e-08
5.13091e-08
0.00114229
-4.53972e-07
-4.17168e-08
0.00114223
-3.38419e-07
-3.49686e-08
0.00114237
1.65244e-07
-3.88357e-08
0.00114238
-1.60976e-07
-1.96252e-07
0.00114237
-4.43977e-07
-2.97957e-07
0.00114225
-7.34791e-07
-4.90854e-07
0.00114216
-4.62004e-07
-2.77188e-07
0.0011422
1.21847e-07
-7.19824e-08
0.00114224
2.09009e-07
-7.8103e-08
0.00114229
1.66531e-07
-1.02788e-07
0.00114224
-6.83739e-08
-2.94225e-07
0.00114228
1.34105e-07
-2.38645e-07
0.00114231
2.04681e-07
-1.82844e-07
7.74342e-08
-9.63827e-08
0.00125651
1.5722e-08
-2.61561e-07
0.00125651
-7.66146e-08
-3.56226e-07
0.00125655
1.14506e-08
-2.04035e-07
0.0012565
-1.13303e-07
-1.03115e-07
0.00125657
7.99537e-08
-1.00429e-07
0.00125662
-6.27019e-08
-1.01731e-07
0.00125647
-5.73465e-07
-1.34835e-07
0.00125639
-4.04105e-07
-1.0286e-07
0.00125642
1.00033e-07
3.56151e-08
0.00125655
5.80944e-07
1.38483e-07
0.00125663
5.8972e-07
2.28509e-07
0.00125666
3.26058e-07
3.11964e-07
0.00125657
-7.14326e-08
1.74016e-07
0.00125656
-5.55678e-08
4.98814e-08
0.00125657
-8.14425e-08
2.6459e-09
0.00125653
-2.15081e-07
-4.4731e-08
0.0012565
-1.89092e-07
-7.99078e-08
0.00125651
-5.13417e-08
-1.91219e-10
0.00125655
4.05738e-08
1.38831e-07
0.00125658
-1.45926e-08
3.09061e-07
0.00125655
-3.32779e-07
2.58017e-07
0.00125652
-5.25969e-07
1.47072e-07
0.00125647
-5.55285e-07
8.68381e-08
0.00125644
-3.60601e-07
7.5655e-09
0.00125654
5.60976e-08
-1.5244e-09
0.0012566
4.27587e-10
4.86125e-08
0.00125652
-3.31555e-07
-1.28445e-08
0.00125648
-2.81261e-07
-2.91924e-08
0.00125658
3.81118e-08
-5.26453e-08
0.0012566
-1.68482e-07
-1.80679e-07
0.00125658
-3.94033e-07
-2.70249e-07
0.00125648
-5.96844e-07
-3.86729e-07
0.0012564
-4.35652e-07
-2.4273e-07
0.00125641
-2.61686e-08
-9.87767e-08
0.00125645
1.3019e-07
-9.65714e-08
0.0012565
1.37526e-07
-1.20097e-07
0.00125647
-9.01084e-09
-2.58904e-07
0.0012565
1.13752e-07
-2.23702e-07
0.00125653
1.46457e-07
-1.67482e-07
4.56995e-08
-1.22491e-07
0.00138215
3.49533e-08
-2.35676e-07
0.00138215
8.26058e-09
-3.00941e-07
0.00138219
4.94815e-08
-1.91444e-07
0.00138216
-3.72772e-08
-1.07867e-07
0.0013822
6.457e-08
-9.54278e-08
0.00138223
-4.34084e-08
-9.75295e-08
0.00138212
-3.72489e-07
-1.22185e-07
0.00138206
-2.48879e-07
-9.4831e-08
0.00138209
1.33565e-07
1.81226e-08
0.00138219
4.68509e-07
1.20291e-07
0.00138226
4.65081e-07
2.02137e-07
0.00138228
2.55086e-07
2.60917e-07
0.00138222
-4.70733e-08
1.57618e-07
0.0013822
-8.64136e-08
5.33002e-08
0.0013822
-1.11246e-07
1.06866e-08
0.00138218
-1.97459e-07
-2.11473e-08
0.00138215
-1.90653e-07
-3.64412e-08
0.00138216
-8.86249e-08
2.76476e-08
0.00138219
-2.0009e-08
1.43964e-07
0.0013822
-7.67687e-08
2.64787e-07
0.00138218
-2.68782e-07
2.35059e-07
0.00138216
-3.80061e-07
1.47532e-07
0.00138212
-4.05497e-07
8.89503e-08
0.0013821
-2.6175e-07
2.42505e-08
0.00138218
1.13395e-08
1.43199e-08
0.00138222
-2.61982e-08
4.5582e-08
0.00138217
-2.50108e-07
2.907e-09
0.00138214
-2.33924e-07
-2.45668e-08
0.00138221
-3.97085e-08
-5.97173e-08
0.00138223
-1.68562e-07
-1.61851e-07
0.00138221
-3.448e-07
-2.36157e-07
0.00138213
-4.90856e-07
-3.0411e-07
0.00138206
-3.96112e-07
-2.08563e-07
0.00138205
-1.07922e-07
-1.10104e-07
0.00138209
6.65373e-08
-1.05109e-07
0.00138213
1.08905e-07
-1.26952e-07
0.00138212
3.0414e-08
-2.2448e-07
0.00138214
1.01426e-07
-2.04031e-07
0.00138216
1.112e-07
-1.56807e-07
3.87683e-08
-1.36454e-07
0.00152035
5.20574e-08
-2.10369e-07
0.00152036
5.69124e-08
-2.53178e-07
0.00152039
7.61306e-08
-1.75173e-07
0.00152037
1.70574e-08
-1.07046e-07
0.0015204
5.97068e-08
-9.05074e-08
0.00152042
-2.22841e-08
-9.23253e-08
0.00152033
-2.23596e-07
-1.08966e-07
0.00152028
-1.31735e-07
-8.47256e-08
0.00152032
1.45834e-07
6.47838e-09
0.0015204
3.71705e-07
1.00792e-07
0.00152046
3.58787e-07
1.74217e-07
0.00152047
1.92761e-07
2.15981e-07
0.00152043
-3.31918e-08
1.41002e-07
0.00152041
-9.55026e-08
5.74e-08
0.0015204
-1.20432e-07
2.05681e-08
0.00152039
-1.76525e-07
-3.21419e-10
0.00152037
-1.78377e-07
-3.45095e-09
0.00152037
-1.10345e-07
4.70955e-08
0.00152039
-6.55666e-08
1.38488e-07
0.00152039
-1.11567e-07
2.24465e-07
0.00152037
-2.22541e-07
2.09348e-07
0.00152036
-2.80316e-07
1.43981e-07
0.00152034
-2.94359e-07
9.15905e-08
0.00152033
-1.93861e-07
3.93777e-08
0.00152038
-2.15571e-08
2.73658e-08
0.00152042
-4.6861e-08
4.27053e-08
0.00152038
-1.94419e-07
1.04455e-08
0.00152036
-1.94944e-07
-2.13879e-08
0.00152041
-8.2757e-08
-6.15763e-08
0.00152043
-1.63707e-07
-1.41846e-07
0.00152041
-2.98476e-07
-2.00777e-07
0.00152034
-4.05549e-07
-2.39177e-07
0.00152028
-3.49574e-07
-1.76683e-07
0.00152026
-1.45627e-07
-1.10914e-07
0.00152029
1.9456e-08
-1.06021e-07
0.00152032
8.27894e-08
-1.25491e-07
0.00152032
5.29554e-08
-1.92112e-07
0.00152035
9.40471e-08
-1.82074e-07
0.00152036
9.29372e-08
-1.47314e-07
4.48638e-08
-1.40801e-07
0.00167237
6.63065e-08
-1.85706e-07
0.00167239
8.26366e-08
-2.12244e-07
0.00167241
9.21622e-08
-1.57188e-07
0.0016724
5.23257e-08
-1.02972e-07
0.00167242
6.0968e-08
-8.5521e-08
0.00167242
-1.16239e-10
-8.6131e-08
0.00167236
-1.16624e-07
-9.57491e-08
0.00167233
-4.83072e-08
-7.38177e-08
0.00167236
1.44577e-07
-7.34975e-10
0.00167243
2.90993e-07
8.19377e-08
0.00167247