/*--------------------------------*- C++ -*----------------------------------*\
  =========                 |
  \\      /  F ield         | OpenFOAM: The Open Source CFD Toolbox
   \\    /   O peration     | Website:  https://openfoam.org
    \\  /    A nd           | Version:  10
     \\/     M anipulation  |
\*---------------------------------------------------------------------------*/
FoamFile
{
    format      ascii;
    class       volSymmTensorField;
    location    "6";
    object      UPrime2Mean;
}
// * * * * * * * * * * * * * * * * * * * * * * * * * * * * * * * * * * * * * //

dimensions      [0 2 -2 0 0 0 0];

internalField   nonuniform List<symmTensor> 
25600
(
(2.98757e-05 2.03003e-07 5.98499e-06 1.66189e-09 2.40746e-08 4.51933e-06)
(3.09003e-05 2.49397e-08 1.64559e-05 1.38761e-10 1.10783e-08 1.0745e-05)
(3.19047e-05 -1.17927e-07 6.72217e-06 5.47666e-10 -1.34268e-08 4.78952e-06)
(2.58599e-05 -1.07723e-07 -9.36191e-06 9.14511e-10 5.81443e-08 7.97478e-06)
(2.00079e-05 8.76502e-08 -9.52069e-06 5.28326e-10 -3.07057e-08 1.00953e-05)
(2.80919e-05 1.61744e-07 6.057e-06 1.38036e-09 2.302e-08 4.07593e-06)
(2.83816e-05 1.68384e-08 1.50852e-05 1.09929e-10 9.08932e-09 1.00524e-05)
(3.38895e-05 -9.31625e-08 6.23774e-06 4.17685e-10 -6.13039e-09 4.56513e-06)
(2.84465e-05 -9.54627e-08 -1.03651e-05 7.31029e-10 4.89803e-08 8.59406e-06)
(2.07953e-05 7.25499e-08 -1.01776e-05 3.92933e-10 -3.37319e-08 1.15702e-05)
(2.86182e-05 1.95945e-07 5.46745e-06 1.63179e-09 3.05604e-08 3.98788e-06)
(3.04982e-05 -7.69343e-09 1.65877e-05 1.17848e-10 -2.03469e-09 1.07864e-05)
(3.02803e-05 -1.13422e-07 6.18854e-06 6.12258e-10 -1.65092e-08 3.84794e-06)
(2.53853e-05 -1.03923e-07 -9.81532e-06 9.81639e-10 5.6592e-08 7.39045e-06)
(2.062e-05 7.66568e-08 -1.00634e-05 4.57438e-10 -2.50825e-08 1.08308e-05)
(2.91365e-05 1.97011e-07 6.90701e-06 1.87314e-09 2.59298e-08 4.89369e-06)
(3.21701e-05 1.08668e-08 1.66799e-05 1.65836e-10 6.63288e-09 1.05657e-05)
(3.4311e-05 -1.57544e-07 7.22258e-06 9.10367e-10 -1.8743e-08 4.7338e-06)
(2.89259e-05 -1.34885e-07 -1.1563e-05 1.41426e-09 7.60061e-08 9.79091e-06)
(2.00838e-05 8.64008e-08 -9.57595e-06 5.70229e-10 -4.14118e-08 1.16572e-05)
(3.15674e-05 2.14194e-07 7.23308e-06 1.8311e-09 3.21916e-08 5.35315e-06)
(2.87617e-05 2.21783e-08 1.55174e-05 1.64933e-10 1.50754e-08 1.05634e-05)
(3.40529e-05 -1.0156e-07 6.86423e-06 5.33982e-10 -1.17091e-08 4.71672e-06)
(2.70284e-05 -9.60889e-08 -1.10858e-05 6.10201e-10 4.92688e-08 8.96113e-06)
(2.18941e-05 6.0767e-08 -1.0965e-05 3.03633e-10 -2.29546e-08 1.05516e-05)
(2.53329e-05 1.61656e-07 4.9398e-06 1.39296e-09 1.37788e-08 4.24582e-06)
(3.15759e-05 3.98848e-08 1.71682e-05 2.01342e-10 1.80482e-08 1.13114e-05)
(3.23231e-05 -1.2208e-07 6.39173e-06 6.86609e-10 -1.86647e-08 4.51919e-06)
(2.42997e-05 -8.53665e-08 -9.13394e-06 5.39976e-10 3.60168e-08 7.33294e-06)
(2.10483e-05 6.43612e-08 -9.87762e-06 3.50906e-10 -2.64779e-08 1.00045e-05)
(2.64932e-05 1.69817e-07 5.149e-06 1.3027e-09 1.5626e-08 4.46555e-06)
(3.4166e-05 1.07168e-08 1.997e-05 1.71374e-10 1.08388e-08 1.40373e-05)
(3.20284e-05 -1.20605e-07 7.60474e-06 5.62893e-10 -1.3972e-08 5.90048e-06)
(2.66459e-05 -1.1023e-07 -9.36187e-06 8.31177e-10 5.1954e-08 7.58027e-06)
(1.93862e-05 7.60112e-08 -9.13651e-06 4.86672e-10 -1.93271e-08 9.23531e-06)
(2.61772e-05 1.84185e-07 5.56966e-06 1.56731e-09 3.22052e-08 4.40597e-06)
(3.14377e-05 5.7101e-09 1.73289e-05 1.92582e-10 8.24664e-09 1.15251e-05)
(3.45591e-05 -1.37841e-07 7.28582e-06 7.20426e-10 -2.21206e-08 4.78046e-06)
(2.66902e-05 -9.85402e-08 -1.07528e-05 6.90899e-10 4.52224e-08 9.19417e-06)
(1.94774e-05 8.01082e-08 -9.31439e-06 5.45491e-10 -3.90982e-08 1.09735e-05)
(0.000285805 2.1054e-06 4.65474e-05 2.99667e-08 9.88587e-08 4.14106e-05)
(0.000304542 3.56459e-07 0.000157543 8.27145e-09 1.89786e-07 9.75956e-05)
(0.00030938 -1.53406e-06 7.92929e-05 1.94729e-08 -7.97862e-07 5.05559e-05)
(0.000242732 -1.16676e-06 -7.85913e-05 3.15088e-08 4.07006e-07 6.74925e-05)
(0.000182843 7.64763e-07 -9.30893e-05 1.97246e-08 -5.47117e-07 9.8968e-05)
(0.000268722 2.16014e-06 4.68714e-05 2.77383e-08 1.66492e-07 3.6739e-05)
(0.000278303 3.12827e-08 0.000144151 2.39817e-09 -2.07577e-08 9.04866e-05)
(0.000328081 -1.55459e-06 7.51102e-05 1.74452e-08 -6.94097e-07 4.82051e-05)
(0.000266888 -8.23202e-07 -8.75396e-05 2.7046e-08 2.55219e-07 7.27634e-05)
(0.000189967 7.73416e-07 -9.9117e-05 2.30247e-08 -6.32349e-07 0.00011261)
(0.00027449 2.36449e-06 4.10287e-05 3.52517e-08 3.84515e-07 3.64642e-05)
(0.000299812 2.83168e-07 0.000157396 8.1675e-09 2.51973e-07 9.65965e-05)
(0.000293671 -1.2697e-06 7.3239e-05 1.57321e-08 -6.37791e-07 4.2154e-05)
(0.000238447 -1.15642e-06 -8.44704e-05 2.48807e-08 4.45702e-07 6.35049e-05)
(0.000188003 6.75046e-07 -9.74037e-05 2.02349e-08 -5.72496e-07 0.000107069)
(0.000277509 2.51348e-06 5.55795e-05 4.01557e-08 6.33034e-08 4.46468e-05)
(0.000318105 -7.75619e-07 0.000160671 8.62797e-09 -4.56235e-07 9.64759e-05)
(0.000332699 -2.73626e-06 8.57479e-05 3.73751e-08 -1.16029e-06 5.21435e-05)
(0.000269479 -1.81414e-06 -0.000100078 4.18353e-08 7.17501e-07 8.48781e-05)
(0.000182679 8.52668e-07 -9.23002e-05 2.63334e-08 -6.55835e-07 0.00011517)
(0.000303268 2.5035e-06 6.04941e-05 3.5998e-08 3.12363e-07 4.9631e-05)
(0.000283244 3.55392e-07 0.000149858 9.4485e-09 2.99681e-07 9.70602e-05)
(0.000329236 -2.09662e-06 8.01897e-05 2.42125e-08 -7.81753e-07 5.03621e-05)
(0.000254315 -9.77377e-07 -9.59041e-05 2.40073e-08 2.70461e-07 7.65023e-05)
(0.000201006 3.89682e-07 -0.000105176 1.73416e-08 -2.50447e-07 0.000102558)
(0.000241688 1.87729e-06 3.66517e-05 2.57965e-08 -1.74105e-08 3.94895e-05)
(0.000310332 7.37464e-08 0.000163923 1.1264e-08 -5.49158e-08 0.000102281)
(0.000313291 -1.88251e-06 7.56575e-05 2.50132e-08 -9.08319e-07 4.79854e-05)
(0.000228216 -7.46609e-07 -7.7704e-05 2.6771e-08 8.6649e-08 6.2144e-05)
(0.000193338 7.35672e-07 -9.59286e-05 1.90983e-08 -5.18717e-07 9.87206e-05)
(0.000253461 1.35921e-06 3.80406e-05 1.7561e-08 -1.337e-07 4.13356e-05)
(0.000334403 4.76838e-07 0.000190939 6.12298e-09 1.80448e-07 0.000127218)
(0.00031043 -1.37596e-06 8.65393e-05 1.79992e-08 -8.86823e-07 6.11339e-05)
(0.000250183 -1.4572e-06 -8.01478e-05 3.20001e-08 3.64561e-07 6.58579e-05)
(0.000177059 1.03925e-06 -8.79268e-05 2.18555e-08 -5.5248e-07 9.01138e-05)
(0.000250614 2.00068e-06 4.33041e-05 2.80046e-08 1.33055e-07 3.9975e-05)
(0.000307176 -3.70843e-07 0.000166307 4.9315e-09 -2.65899e-07 0.000104902)
(0.000333825 -2.23876e-06 8.48164e-05 2.72916e-08 -1.02297e-06 5.13371e-05)
(0.000249864 -5.8533e-08 -9.11865e-05 2.19342e-08 -2.58972e-07 7.78636e-05)
(0.000178733 8.97328e-07 -9.05387e-05 2.29803e-08 -7.17124e-07 0.000107161)
(0.000783233 4.13242e-06 0.000109376 1.1424e-07 -5.02082e-07 0.000128037)
(0.000856763 -4.63263e-07 0.000455469 8.05165e-08 1.50701e-08 0.00028239)
(0.000863768 -5.67496e-06 0.000275757 1.36007e-07 -3.72454e-06 0.000166682)
(0.000655682 -1.52812e-06 -0.000198687 1.67975e-07 -4.48101e-08 0.000194612)
(0.00045956 3.33113e-06 -0.00027428 1.59068e-07 -2.81923e-06 0.000305638)
(0.000727308 5.42338e-06 0.000102001 1.06353e-07 -2.13456e-07 0.000110754)
(0.000786978 -1.6319e-06 0.00042589 3.08246e-08 -9.48352e-07 0.000266123)
(0.000916201 -5.7389e-06 0.00026522 1.17308e-07 -3.37868e-06 0.000159152)
(0.000728995 -6.5667e-07 -0.000221864 1.53757e-07 -6.18606e-07 0.000208983)
(0.000482218 2.99574e-06 -0.000299645 1.82581e-07 -3.03558e-06 0.000350245)
(0.000765401 6.1565e-06 9.54854e-05 1.38178e-07 1.04016e-06 0.000114364)
(0.000851306 -4.38144e-07 0.000458967 7.44173e-08 5.28454e-07 0.000281342)
(0.000812239 -4.17186e-06 0.000254495 1.04262e-07 -2.80112e-06 0.000142168)
(0.000642904 -9.11292e-07 -0.000218375 1.18035e-07 -9.274e-08 0.00018576)
(0.000480012 3.18782e-06 -0.000291897 1.72517e-07 -3.31716e-06 0.000335989)
(0.000764052 7.7891e-06 0.000135685 1.72843e-07 -7.36382e-07 0.000137584)
(0.000888617 -5.38732e-06 0.000458639 1.06607e-07 -3.0804e-06 0.000276425)
(0.000936375 -1.08523e-05 0.000297598 2.41265e-07 -5.7291e-06 0.000176517)
(0.000728167 -3.25353e-06 -0.000262878 2.01262e-07 4.30501e-07 0.00024973)
(0.000451909 2.80059e-06 -0.000276079 2.13712e-07 -3.1975e-06 0.000359525)
(0.000846166 5.24864e-06 0.000156935 1.3474e-07 1.7596e-07 0.000154648)
(0.000808101 -1.27222e-07 0.00044777 7.99909e-08 5.8563e-07 0.000288795)
(0.00092876 -7.37512e-06 0.000276948 1.50394e-07 -3.74408e-06 0.000166221)
(0.000678022 -7.98527e-07 -0.000244834 1.33823e-07 -7.20983e-07 0.000219181)
(0.000512653 1.72372e-06 -0.000309211 1.44845e-07 -1.36622e-06 0.000314622)
(0.000649069 3.41924e-06 7.37025e-05 9.34003e-08 -1.05325e-06 0.000122142)
(0.000890139 -2.23295e-06 0.000489339 1.12911e-07 -1.34114e-06 0.000303372)
(0.00087449 -6.70244e-06 0.00026359 1.6831e-07 -4.22994e-06 0.00015868)
(0.000599041 3.76793e-07 -0.000186552 1.65202e-07 -1.39415e-06 0.000172286)
(0.000498064 2.76717e-06 -0.000289999 1.56457e-07 -2.6679e-06 0.000308605)
(0.000681824 1.76036e-06 7.53201e-05 6.78849e-08 -1.34644e-06 0.000127046)
(0.000939652 1.07305e-06 0.000554631 5.87731e-08 2.42465e-07 0.00036936)
(0.000863354 -4.48022e-06 0.000295475 1.29883e-07 -4.09151e-06 0.000197556)
(0.000673376 -3.72645e-06 -0.00020558 1.79228e-07 2.16304e-07 0.000193329)
(0.000444931 4.1159e-06 -0.000257906 1.66289e-07 -2.87263e-06 0.00027667)
(0.000677886 4.13021e-06 9.56216e-05 1.01997e-07 -5.36308e-07 0.000121103)
(0.000877704 -4.96912e-06 0.000497492 5.87988e-08 -2.899e-06 0.000315682)
(0.000957718 -8.33695e-06 0.000291054 1.84912e-07 -4.90583e-06 0.000170181)
(0.000670662 5.33268e-06 -0.000226576 2.04783e-07 -4.08716e-06 0.000219072)
(0.00045056 3.27254e-06 -0.000271516 1.94544e-07 -3.48679e-06 0.000331423)
(0.00132008 -1.5454e-06 0.000151166 3.64585e-07 -1.57626e-06 0.000287235)
(0.00148921 -6.70962e-06 0.000817726 4.33515e-07 -1.27023e-06 0.000541863)
(0.00147409 -9.6118e-06 0.000613789 4.96151e-07 -9.0865e-06 0.000379845)
(0.00106785 4.32005e-06 -0.000250663 6.29049e-07 -3.32774e-06 0.000380655)
(0.000599078 7.29944e-06 -0.000456296 6.9732e-07 -7.21986e-06 0.000620148)
(0.00116247 1.77213e-06 0.000110685 2.54307e-07 -1.91051e-06 0.000239639)
(0.00130977 -9.88945e-06 0.000737481 2.00777e-07 -4.74723e-06 0.000495018)
(0.00160664 -1.14091e-05 0.00059218 4.15091e-07 -8.74285e-06 0.000362188)
(0.00118709 2.62932e-06 -0.000261062 5.24969e-07 -3.09501e-06 0.000380462)
(0.000658653 6.55508e-06 -0.000526094 7.68977e-07 -7.62421e-06 0.000730866)
(0.00124726 2.016e-06 9.57137e-05 3.5711e-07 2.19685e-06 0.000245797)
(0.00143657 -5.0638e-06 0.000784576 3.73135e-07 7.16301e-07 0.00051263)
(0.0014343 -5.69651e-06 0.000558377 3.93851e-07 -6.34716e-06 0.000326899)
(0.00102344 4.83031e-06 -0.000269034 4.5651e-07 -2.77362e-06 0.000335012)
(0.00061194 6.7869e-06 -0.000470593 7.81202e-07 -9.26777e-06 0.0006796)
(0.0011573 1.05548e-05 0.000147383 3.8769e-07 -3.24977e-06 0.000284857)
(0.00154336 -2.2162e-05 0.000841234 5.49406e-07 -1.13781e-05 0.000545483)
(0.00162925 -2.42352e-05 0.00066101 7.94352e-07 -1.53688e-05 0.000408877)
(0.00115874 -1.40824e-07 -0.000335171 6.59808e-07 -2.61698e-06 0.000459704)
(0.00063726 5.01863e-06 -0.000501217 9.35828e-07 -8.1119e-06 0.000763112)
(0.00140216 1.90218e-06 0.000215818 3.9136e-07 7.48707e-08 0.000328953)
(0.00135794 -5.03777e-06 0.000782996 3.81663e-07 -3.50642e-08 0.00053924)
(0.00156082 -1.52318e-05 0.000606552 5.23444e-07 -9.44444e-06 0.000375318)
(0.00108674 6.46913e-06 -0.000328269 5.45075e-07 -5.79327e-06 0.000420372)
(0.000752327 3.3693e-06 -0.000552133 6.53346e-07 -3.28749e-06 0.000649154)
(0.000980513 7.97544e-07 4.95101e-05 2.57282e-07 -2.66297e-06 0.000264489)
(0.00152577 -1.28768e-05 0.000864401 5.70265e-07 -5.83314e-06 0.000569442)
(0.00149951 -1.08738e-05 0.000583889 5.97674e-07 -1.04856e-05 0.000362291)
(0.0009152 7.72802e-06 -0.000209509 7.26133e-07 -6.10281e-06 0.000312746)
(0.000698176 6.41862e-06 -0.000510723 6.94723e-07 -7.36441e-06 0.000641693)
(0.00107348 -4.76114e-06 6.97968e-05 2.48043e-07 -3.5227e-06 0.000282513)
(0.00160576 -2.8819e-06 0.000995155 2.66321e-07 -1.49867e-06 0.000704964)
(0.00153348 -7.24397e-06 0.000653589 5.05167e-07 -1.00236e-05 0.000440508)
(0.00110684 2.56598e-07 -0.000275492 6.16522e-07 -3.51466e-06 0.000383895)
(0.000610994 1.03791e-05 -0.000448016 7.2964e-07 -8.40125e-06 0.0005709)
(0.00105949 -3.17123e-07 0.000102976 2.7768e-07 -2.33779e-06 0.000261383)
(0.00140405 -2.02355e-05 0.000806701 4.12727e-07 -1.11726e-05 0.000541037)
(0.00156369 -1.7113e-05 0.000624906 6.4866e-07 -1.2725e-05 0.000384668)
(0.00104968 2.23629e-05 -0.00025917 1.16823e-06 -1.45862e-05 0.000391077)
(0.000631979 5.15268e-06 -0.000490096 8.82573e-07 -8.00096e-06 0.000697747)
(0.00154223 -2.79203e-05 8.20614e-05 1.65688e-06 1.90644e-07 0.000498226)
(0.00190143 -2.81992e-05 0.00102946 1.54013e-06 -6.6206e-06 0.000763398)
(0.00207154 -1.09034e-05 0.00103815 1.35946e-06 -1.45155e-05 0.00068332)
(0.00146795 2.36074e-05 -0.000193492 2.27936e-06 -9.22646e-06 0.000670219)
(0.000664871 1.0749e-05 -0.000608328 2.35495e-06 -1.04619e-05 0.00103101)
(0.00144991 -1.10571e-05 5.84769e-05 8.73161e-07 -7.44261e-07 0.000427461)
(0.00177386 -2.85661e-05 0.0010062 8.8819e-07 -1.19229e-05 0.000757011)
(0.00215761 -1.36166e-05 0.00100617 1.11267e-06 -1.523e-05 0.000649551)
(0.00158985 1.7759e-05 -0.000156599 1.74664e-06 -8.23957e-06 0.000613339)
(0.000699883 1.1562e-05 -0.000666253 2.43175e-06 -1.26884e-05 0.00117709)
(0.00154643 -2.31458e-05 1.71608e-05 1.48775e-06 7.80197e-06 0.000421682)
(0.00182336 -1.51225e-05 0.000929355 1.41768e-06 3.25089e-06 0.000661621)
(0.00190882 -1.61889e-06 0.000923598 1.18111e-06 -8.54876e-06 0.000586475)
(0.00134893 2.5167e-05 -0.000229154 1.85581e-06 -9.01899e-06 0.000577169)
(0.000610004 1.08769e-05 -0.000575772 2.67671e-06 -1.75481e-05 0.00110661)
(0.00140366 3.0184e-07 0.000118191 8.12098e-07 -5.18839e-06 0.000511467)
(0.00207949 -5.60778e-05 0.00117754 2.0413e-06 -2.80926e-05 0.000868141)
(0.00229757 -3.68392e-05 0.0011142 1.85227e-06 -2.85998e-05 0.000742968)
(0.00141313 1.99956e-05 -0.000181337 2.28807e-06 -1.19786e-05 0.000657223)
(0.000667853 5.08903e-06 -0.000613487 3.15034e-06 -1.24591e-05 0.00119704)
(0.00162551 -1.9622e-05 0.000125016 1.55942e-06 4.21847e-06 0.000536993)
(0.00185029 -1.02326e-05 0.00109667 1.53346e-06 4.34265e-06 0.000841862)
(0.00202148 -1.76017e-05 0.000987598 1.32653e-06 -1.52609e-05 0.000658618)
(0.00129797 2.79061e-05 -0.00011078 2.1022e-06 -1.57851e-05 0.000511085)
(0.000673621 3.76219e-06 -0.000585627 2.33307e-06 -3.51309e-06 0.000944965)
(0.00108728 -1.11546e-05 -3.58633e-06 9.29529e-07 -7.30749e-07 0.000482943)
(0.00201889 -4.39923e-05 0.00112467 1.94361e-06 -1.92246e-05 0.000803955)
(0.00196002 -1.16319e-05 0.000987099 1.66633e-06 -1.74132e-05 0.000657527)
(0.00122001 3.26303e-05 -0.000177386 2.79742e-06 -1.84398e-05 0.000574338)
(0.000627051 1.04329e-05 -0.00057106 2.33856e-06 -1.2727e-05 0.000978475)
(0.00132084 -2.66462e-05 6.18954e-05 1.20585e-06 -4.06811e-06 0.000534113)
(0.00209254 -1.53566e-05 0.00131061 9.38475e-07 -5.82596e-06 0.00101603)
(0.00208187 -5.70514e-06 0.00108969 1.52439e-06 -1.64308e-05 0.000770404)
(0.00144941 1.82754e-05 -0.000196893 2.09753e-06 -1.28373e-05 0.000628263)
(0.000636241 1.34599e-05 -0.000557271 2.35439e-06 -1.2611e-05 0.000921744)
(0.00123187 -1.75776e-05 4.24361e-05 1.1049e-06 -1.68563e-06 0.000461209)
(0.00175712 -3.47843e-05 0.00105733 1.22464e-06 -1.75598e-05 0.000808719)
(0.00217232 -2.50836e-05 0.0010427 1.70236e-06 -2.29104e-05 0.000686366)
(0.00141744 5.29053e-05 -0.000146876 4.19091e-06 -2.77596e-05 0.000596691)
(0.000578502 1.02836e-05 -0.00054324 3.01372e-06 -1.4455e-05 0.00105838)
(0.00140806 -7.13731e-05 1.26006e-05 7.3117e-06 1.55182e-05 0.000732812)
(0.00195911 -7.10244e-05 0.00107391 4.95592e-06 -1.84787e-05 0.000980778)
(0.0024496 -9.09085e-06 0.00138112 3.24419e-06 -1.77106e-05 0.000989348)
(0.00168358 6.3832e-05 0.00018493 7.20361e-06 -1.87027e-05 0.000792447)
(0.000455468 1.27784e-05 -0.000444799 7.43411e-06 -3.19083e-06 0.00122213)
(0.00155493 -4.55951e-05 7.6939e-05 3.82476e-06 7.65421e-06 0.00067321)
(0.00191656 -6.17112e-05 0.00102759 3.10069e-06 -2.18246e-05 0.000898655)
(0.00242547 -1.50749e-05 0.00132857 2.69293e-06 -2.11691e-05 0.000923066)
(0.00183099 4.77819e-05 0.000120028 5.42869e-06 -1.48581e-05 0.000867477)
(0.000612498 2.02356e-05 -0.00057857 6.57062e-06 -1.3892e-05 0.00139064)
(0.00145865 -5.80147e-05 -5.0287e-05 6.594e-06 2.83366e-05 0.000590887)
(0.00183907 -4.36962e-05 0.000811249 3.89244e-06 2.63024e-06 0.000679691)
(0.00204427 3.47811e-06 0.00118269 2.89158e-06 -7.47141e-06 0.000832218)
(0.00153029 6.37212e-05 -5.33214e-05 6.63855e-06 -1.9716e-05 0.000878725)
(0.000408713 1.84236e-05 -0.000394419 7.67851e-06 -2.54619e-05 0.00127459)
(0.00125852 -3.08454e-05 8.4534e-05 3.14149e-06 1.96481e-06 0.000760058)
(0.00225212 -9.72295e-05 0.0012704 5.55637e-06 -4.4432e-05 0.00108827)
(0.00237389 -3.93148e-05 0.00144841 3.79798e-06 -4.00666e-05 0.00108218)
(0.0014644 6.22472e-05 0.000161371 8.24899e-06 -3.00122e-05 0.000866672)
(0.000532556 6.92913e-06 -0.000446566 9.01052e-06 -1.7337e-05 0.00128077)
(0.00114476 -6.16634e-05 -5.13722e-05 7.25572e-06 2.29039e-05 0.000717012)
(0.00202736 -3.70343e-05 0.00120025 4.55339e-06 3.68145e-06 0.00106586)
(0.00218716 -8.79529e-06 0.00128422 3.25393e-06 -1.70405e-05 0.000926995)
(0.0014785 5.40112e-05 0.00018924 6.14008e-06 -1.92519e-05 0.000683731)
(0.000473804 1.39893e-05 -0.000407212 6.60258e-06 -6.75485e-06 0.00108389)
(0.000939965 -3.37623e-05 -2.39738e-05 3.99223e-06 1.11251e-05 0.000700078)
(0.0020867 -8.93771e-05 0.00120672 5.91405e-06 -3.81293e-05 0.00104164)
(0.00214486 -1.25991e-05 0.00131596 3.9964e-06 -2.31725e-05 0.00096577)
(0.00144103 6.86698e-05 4.27009e-06 8.42734e-06 -3.13159e-05 0.000839616)
(0.000490399 1.62284e-05 -0.000455092 6.72528e-06 -1.39983e-05 0.00114144)
(0.00109484 -5.8646e-05 -4.93876e-08 5.13446e-06 4.9898e-06 0.000760292)
(0.00206746 -4.19426e-05 0.00122175 2.84807e-06 -1.47466e-05 0.00106871)
(0.00227325 -7.15975e-06 0.00140245 3.75814e-06 -2.29109e-05 0.00105631)
(0.0016901 5.33299e-05 1.09374e-05 6.82769e-06 -2.6694e-05 0.000924193)
(0.000466309 1.76614e-05 -0.000417916 7.23803e-06 -1.19812e-05 0.00112497)
(0.00108504 -5.02273e-05 6.9364e-06 5.09199e-06 8.20807e-06 0.00068009)
(0.00185252 -5.69723e-05 0.00114186 3.72701e-06 -2.20729e-05 0.00103958)
(0.00235489 -2.52806e-05 0.00135606 4.04919e-06 -3.1083e-05 0.000980093)
(0.00156645 8.98909e-05 0.000221108 1.13632e-05 -3.23806e-05 0.000736921)
(0.000479057 1.45697e-05 -0.000453461 8.90288e-06 -1.37848e-05 0.00126792)
(0.00083535 -8.84408e-05 -6.8608e-05 1.99625e-05 4.62111e-05 0.000786895)
(0.00153787 -9.75407e-05 0.0009139 1.31995e-05 -1.50507e-05 0.00109139)
(0.00207154 -1.14994e-05 0.00140223 7.2413e-06 -2.29145e-05 0.00113491)
(0.00179365 0.000100557 0.000520392 1.70003e-05 -2.13949e-05 0.00101772)
(0.000416086 2.98648e-05 -0.000286975 1.74075e-05 -6.8065e-07 0.0012432)
(0.000962525 -7.5485e-05 -6.89375e-05 1.2783e-05 2.84236e-05 0.000690108)
(0.00147767 -9.26438e-05 0.000765961 8.72563e-06 -2.55235e-05 0.000886758)
(0.00198843 -2.54987e-05 0.00124933 6.15664e-06 -3.18349e-05 0.000960905)
(0.00177636 8.03388e-05 0.000532379 1.36492e-05 -2.70005e-05 0.000938882)
(0.000406818 3.26667e-05 -0.000277547 1.55139e-05 -8.74262e-06 0.00122525)
(0.00102767 -8.6079e-05 -2.34625e-05 1.9223e-05 5.13102e-05 0.00065746)
(0.00125226 -6.8783e-05 0.00051526 9.58277e-06 6.69239e-06 0.000646977)
(0.00162448 -3.18262e-06 0.00109007 6.08087e-06 -1.07964e-05 0.000878583)
(0.00142409 9.71188e-05 0.000330739 1.67998e-05 -2.6632e-05 0.000944118)
(0.000330017 2.95733e-05 -0.000192211 1.83233e-05 -2.87369e-05 0.00117558)
(0.000744596 -5.87764e-05 -2.79998e-06 1.12843e-05 2.26223e-05 0.000806638)
(0.00174672 -0.000129701 0.00103921 1.28688e-05 -5.50776e-05 0.00115248)
(0.00204492 -3.92415e-05 0.0014755 8.02657e-06 -4.7803e-05 0.00124422)
(0.00145472 9.41732e-05 0.000461316 2.14619e-05 -4.01875e-05 0.00111806)
(0.000331258 1.85583e-05 -0.000189199 2.08653e-05 -1.9891e-05 0.00116189)
(0.000768882 -8.13783e-05 1.27198e-05 2.00053e-05 4.53259e-05 0.000769829)
(0.00152873 -9.68224e-05 0.000908599 1.20381e-05 -2.04955e-05 0.00101095)
(0.00196462 -1.45197e-05 0.00126433 7.22594e-06 -2.38678e-05 0.000995843)
(0.00152541 7.54106e-05 0.000495729 1.39379e-05 -1.70489e-05 0.000853403)
(0.000381088 3.06637e-05 -0.000192581 1.52733e-05 -9.51017e-06 0.0010655)
(0.000737199 -5.91989e-05 -8.14525e-06 1.2249e-05 2.67945e-05 0.000759252)
(0.00152932 -0.000120873 0.000952216 1.41318e-05 -5.07096e-05 0.00107997)
(0.00189881 -2.45765e-05 0.0012819 8.59812e-06 -3.58501e-05 0.00104181)
(0.00141454 9.40647e-05 0.000355599 1.80664e-05 -3.30897e-05 0.00090221)
(0.000426622 2.9492e-05 -0.000283956 1.55222e-05 -1.16683e-05 0.00108792)
(0.000675275 -6.3514e-05 -4.64419e-05 1.19844e-05 2.64762e-05 0.000798533)
(0.00146924 -7.23209e-05 0.000868255 7.52908e-06 -2.35471e-05 0.00100059)
(0.0020389 -2.15182e-05 0.00132414 8.2148e-06 -3.68133e-05 0.00105453)
(0.00159813 8.81048e-05 0.000464251 1.75731e-05 -3.96722e-05 0.000914418)
(0.000378895 3.32053e-05 -0.000185766 1.77825e-05 -1.56577e-05 0.0010499)
(0.000608428 -6.7116e-05 -3.00126e-05 1.551e-05 2.7277e-05 0.000714303)
(0.00137503 -8.67543e-05 0.000816569 1.02483e-05 -2.6353e-05 0.000950572)
(0.00193084 -3.17598e-05 0.00131542 9.05704e-06 -3.95284e-05 0.00106891)
(0.00165303 0.000121455 0.00049015 2.41026e-05 -3.38503e-05 0.000992898)
(0.00042461 2.4359e-05 -0.000299638 2.17385e-05 -5.76713e-06 0.00123419)
(0.000339682 -7.42622e-05 -8.84869e-05 3.49189e-05 5.96341e-05 0.000653052)
(0.00082496 -9.77162e-05 0.000507621 2.43444e-05 -1.13553e-05 0.000814331)
(0.00129041 -2.71005e-05 0.000982384 1.44799e-05 -3.73123e-05 0.000923934)
(0.00156198 9.71543e-05 0.000722906 2.96059e-05 -2.49022e-05 0.00101542)
(0.000354707 5.6762e-05 -5.98812e-05 3.1771e-05 -1.71902e-06 0.00102447)
(0.000525702 -7.45714e-05 -7.48293e-05 2.53752e-05 4.18067e-05 0.000596514)
(0.000739404 -8.70831e-05 0.000351036 1.62945e-05 -1.58455e-05 0.000625636)
(0.00119535 -4.35235e-05 0.000839827 1.28597e-05 -4.66532e-05 0.000749586)
(0.00149767 7.76827e-05 0.000658519 2.61396e-05 -4.25446e-05 0.000914195)
(0.000361339 4.81666e-05 -7.46208e-05 2.90492e-05 -5.37185e-06 0.000974415)
(0.000432578 -8.04586e-05 -0.000107788 3.51997e-05 6.55545e-05 0.000566327)
(0.000684113 -6.56774e-05 0.000320093 1.70778e-05 1.17685e-05 0.000601986)
(0.00101729 -1.79879e-05 0.000758284 1.13974e-05 -2.15865e-05 0.000714615)
(0.00121984 0.000100945 0.000547183 3.01424e-05 -2.58705e-05 0.000841802)
(0.000267305 4.41504e-05 -3.85654e-06 3.4716e-05 -2.13074e-05 0.00100363)
(0.000516879 -7.12329e-05 2.4094e-05 2.4376e-05 3.46588e-05 0.000704692)
(0.0010154 -0.000116921 0.000637817 2.1192e-05 -4.13023e-05 0.000928006)
(0.00133125 -4.45344e-05 0.0010601 1.60635e-05 -5.46971e-05 0.0010103)
(0.00127105 9.60587e-05 0.000686234 3.99587e-05 -4.09465e-05 0.00102254)
(0.000262647 3.30675e-05 5.37366e-06 3.86446e-05 -1.39208e-05 0.000938282)
(0.000392131 -7.8243e-05 -2.96829e-06 3.59798e-05 5.33386e-05 0.000629619)
(0.00089736 -0.000109621 0.000552275 2.38808e-05 -2.49185e-05 0.000771753)
(0.00115647 -3.62919e-05 0.000880731 1.43306e-05 -3.77393e-05 0.000805106)
(0.00127432 7.26453e-05 0.000659622 2.51039e-05 -2.5205e-05 0.000861558)
(0.000322468 4.72154e-05 3.2315e-05 2.86092e-05 -5.5961e-06 0.000927616)
(0.000397389 -6.38453e-05 -1.95255e-05 2.44152e-05 3.31834e-05 0.000661198)
(0.000749573 -0.000113654 0.000467382 2.3437e-05 -4.94401e-05 0.000751464)
(0.00112577 -4.93132e-05 0.000837132 1.6161e-05 -5.52737e-05 0.000789239)
(0.00115791 8.83311e-05 0.00054796 3.0006e-05 -3.7238e-05 0.000838612)
(0.000380026 4.59638e-05 -8.96068e-05 2.82844e-05 -2.76903e-06 0.000923395)
(0.000337932 -4.95339e-05 -6.39473e-05 1.98351e-05 3.96825e-05 0.000664534)
(0.000788577 -8.47587e-05 0.000456693 1.50542e-05 -2.87801e-05 0.000731254)
(0.00131856 -4.59104e-05 0.000905558 1.63334e-05 -5.44114e-05 0.000794921)
(0.00139186 9.1817e-05 0.000630232 3.3616e-05 -5.05858e-05 0.000865849)
(0.000344684 5.21253e-05 4.03478e-06 3.40264e-05 -1.50062e-05 0.000926434)
(0.000326882 -5.99171e-05 -2.76802e-05 2.82828e-05 3.71634e-05 0.000611179)
(0.000815872 -9.25232e-05 0.000462153 2.06744e-05 -1.90341e-05 0.000726757)
(0.00118104 -4.65692e-05 0.000907445 1.76189e-05 -4.91865e-05 0.000846794)
(0.00143135 0.000113265 0.000640362 3.96538e-05 -3.74989e-05 0.000991885)
(0.000336513 5.18297e-05 -5.02626e-05 3.91512e-05 -8.11881e-06 0.000972334)
(0.000140772 -4.83328e-05 -4.45937e-05 4.70147e-05 4.74968e-05 0.000467958)
(0.000308062 -7.53485e-05 0.000184903 3.24487e-05 -1.12424e-05 0.000492994)
(0.00060989 -4.19581e-05 0.000501846 2.27891e-05 -4.85878e-05 0.000563015)
(0.00103817 5.76995e-05 0.000560048 4.14218e-05 -4.57443e-05 0.000713847)
(0.000311611 7.3616e-05 0.000116138 4.78672e-05 -4.25089e-06 0.000704018)
(0.000170462 -4.35397e-05 -8.71662e-05 3.71212e-05 4.37189e-05 0.000427221)
(0.000270559 -6.18927e-05 0.00012527 2.24494e-05 -1.16779e-05 0.000427624)
(0.000567823 -5.20864e-05 0.000423647 2.06507e-05 -5.35583e-05 0.000463764)
(0.000961753 3.88527e-05 0.000499465 3.71459e-05 -5.53225e-05 0.000607602)
(0.000290274 6.12663e-05 0.000100978 4.20731e-05 -1.12742e-05 0.000669287)
(0.000182966 -4.9847e-05 -7.7103e-05 4.59775e-05 5.80954e-05 0.000444566)
(0.000267899 -5.06747e-05 0.000126001 2.3021e-05 6.43558e-06 0.000442349)
(0.000506086 -2.6441e-05 0.000392418 1.8272e-05 -3.05424e-05 0.000450745)
(0.000851806 7.42643e-05 0.000482406 4.21283e-05 -2.98204e-05 0.000561898)
(0.000215191 5.60917e-05 0.000157221 5.26641e-05 -1.34917e-05 0.000666451)
(0.000198644 -5.4253e-05 -2.67058e-07 3.79482e-05 3.26686e-05 0.000497262)
(0.000413724 -8.19381e-05 0.000266472 2.80955e-05 -2.44588e-05 0.000580763)
(0.000664391 -4.87626e-05 0.000551381 2.63516e-05 -5.58935e-05 0.000599537)
(0.000923766 6.63105e-05 0.00059841 5.70167e-05 -4.09358e-05 0.000686411)
(0.000220776 4.51256e-05 0.000156415 5.91006e-05 -1.82805e-06 0.000678132)
(0.000174979 -6.26976e-05 4.25572e-06 5.19619e-05 4.28081e-05 0.000451335)
(0.000382929 -8.40661e-05 0.000252325 3.34367e-05 -1.89074e-05 0.00049643)
(0.000567044 -4.80143e-05 0.000474212 2.37626e-05 -4.52834e-05 0.000511806)
(0.000858228 4.42409e-05 0.000506351 3.77549e-05 -3.97753e-05 0.000628711)
(0.000288711 5.39681e-05 0.000174277 4.35936e-05 -1.78668e-06 0.000705908)
(0.000165608 -4.19995e-05 -1.91571e-05 3.45513e-05 3.03691e-05 0.000499686)
(0.000298173 -8.03278e-05 0.000195022 2.94789e-05 -3.89227e-05 0.000498852)
(0.000551733 -5.53546e-05 0.000414611 2.45381e-05 -5.89704e-05 0.000467667)
(0.000744999 5.14043e-05 0.000455623 3.93894e-05 -4.1261e-05 0.000545169)
(0.000289091 5.96529e-05 0.000121994 4.16108e-05 8.90522e-07 0.000638463)
(0.000138201 -3.14845e-05 -3.07226e-05 2.85314e-05 3.44206e-05 0.000470929)
(0.000339884 -7.33206e-05 0.000209997 2.32629e-05 -3.15055e-05 0.000494846)
(0.000592614 -5.91296e-05 0.000457762 2.63351e-05 -6.10794e-05 0.000485568)
(0.000935193 5.78009e-05 0.000498539 4.89587e-05 -5.89496e-05 0.00059851)
(0.000312228 6.25863e-05 0.000145352 5.21986e-05 -1.44767e-05 0.000690481)
(0.000164782 -4.20887e-05 -7.67304e-06 3.95533e-05 2.98006e-05 0.000448977)
(0.000318613 -7.42571e-05 0.000165311 3.0555e-05 -1.45311e-05 0.000453649)
(0.000524622 -5.15826e-05 0.000439326 2.79107e-05 -5.26938e-05 0.000497397)
(0.000931645 6.77734e-05 0.000531767 5.31177e-05 -4.77782e-05 0.000622107)
(0.000271041 7.09077e-05 0.000149278 5.84904e-05 -6.82486e-06 0.000682153)
(6.27238e-05 -1.6035e-05 -2.0596e-06 5.18933e-05 2.55686e-05 0.000294135)
(7.93177e-05 -3.8736e-05 4.45037e-05 3.50483e-05 -8.80642e-06 0.000285303)
(0.00017742 -3.78348e-05 0.00016151 2.97845e-05 -4.54168e-05 0.000260515)
(0.000466844 1.77001e-05 0.000289999 4.99106e-05 -5.39354e-05 0.00031906)
(0.000232505 6.98522e-05 0.000158906 5.87096e-05 -1.54252e-05 0.000391061)
(7.82396e-05 -8.52347e-06 -2.54478e-05 4.16284e-05 2.36727e-05 0.000269304)
(5.79929e-05 -2.77073e-05 7.06007e-06 2.48311e-05 -9.36166e-06 0.000241675)
(0.000149369 -3.88468e-05 0.000126013 2.6886e-05 -4.54006e-05 0.000220607)
(0.000424021 6.45305e-06 0.000240708 4.39863e-05 -5.70896e-05 0.000282927)
(0.000205856 5.35071e-05 0.000136153 4.98183e-05 -2.0016e-05 0.00037482)
(7.97328e-05 -1.485e-05 -2.08144e-05 4.82828e-05 3.05223e-05 0.000290449)
(6.60327e-05 -2.47783e-05 8.789e-06 2.54582e-05 1.20981e-07 0.000262084)
(0.000134925 -2.35402e-05 0.000126588 2.41896e-05 -3.03941e-05 0.000226352)
(0.000418971 3.75176e-05 0.000253459 4.91532e-05 -3.43414e-05 0.000286271)
(0.000178793 5.41316e-05 0.000165071 6.47863e-05 -9.4022e-06 0.000379927)
(6.10018e-05 -2.10975e-05 8.49586e-06 4.45493e-05 2.02018e-05 0.000299845)
(9.1263e-05 -4.52507e-05 4.87572e-05 3.18964e-05 -1.54108e-05 0.000292049)
(0.00018982 -4.2669e-05 0.000177157 3.41838e-05 -4.7219e-05 0.000265275)
(0.00049194 3.05375e-05 0.000308697 6.59393e-05 -4.29451e-05 0.000330551)
(0.000190974 5.21041e-05 0.000194795 7.42551e-05 -1.57253e-06 0.000393832)
(5.14524e-05 -2.65283e-05 1.71808e-05 6.01801e-05 2.24936e-05 0.000283386)
(9.67707e-05 -4.74825e-05 7.56263e-05 3.8483e-05 -1.63754e-05 0.000286028)
(0.000197676 -4.19384e-05 0.00017143 3.17124e-05 -4.22041e-05 0.00024735)
(0.000408955 1.59391e-05 0.000262361 4.68862e-05 -4.2451e-05 0.000301414)
(0.000220101 4.79033e-05 0.000175405 5.39379e-05 -7.42767e-06 0.000422571)
(6.63784e-05 -1.3624e-05 1.32395e-05 3.90923e-05 1.47022e-05 0.00032108)
(7.34234e-05 -4.04375e-05 4.52041e-05 3.09877e-05 -2.63266e-05 0.000279232)
(0.000149815 -4.22443e-05 0.000128288 3.07709e-05 -4.71951e-05 0.000220748)
(0.000340131 1.7755e-05 0.000225448 4.52358e-05 -4.24701e-05 0.00025896)
(0.000211874 5.53068e-05 0.000167144 4.98308e-05 -6.63315e-06 0.000358884)
(5.36296e-05 -6.82202e-06 9.61322e-06 3.4331e-05 1.5657e-05 0.000283407)
(7.62149e-05 -3.75852e-05 4.39696e-05 2.73266e-05 -2.43937e-05 0.000268955)
(0.000154635 -4.42657e-05 0.000140896 3.46705e-05 -5.18065e-05 0.000228304)
(0.000417929 1.76521e-05 0.000250692 5.69374e-05 -5.5349e-05 0.000275729)