/*--------------------------------*- C++ -*----------------------------------*\
  =========                 |
  \\      /  F ield         | OpenFOAM: The Open Source CFD Toolbox
   \\    /   O peration     | Website:  https://openfoam.org
    \\  /    A nd           | Version:  10
     \\/     M anipulation  |
\*---------------------------------------------------------------------------*/
FoamFile
{
    format      ascii;
    class       volScalarField;
    location    "4";
    object      nut;
}
// * * * * * * * * * * * * * * * * * * * * * * * * * * * * * * * * * * * * * //

dimensions      [0 2 -1 0 0 0 0];

internalField   nonuniform List<scalar> 
25600
(
2.0578e-05
2.33193e-05
2.48462e-05
2.35625e-05
2.34438e-05
2.2949e-05
2.37812e-05
2.2521e-05
2.38288e-05
2.15934e-05
2.02041e-05
2.01901e-05
2.16219e-05
2.22549e-05
2.34306e-05
2.79962e-05
2.49326e-05
2.45841e-05
2.36835e-05
2.12148e-05
2.79098e-05
2.68017e-05
3.10054e-05
2.56787e-05
2.16307e-05
2.0536e-05
2.10295e-05
2.29729e-05
2.07062e-05
2.10142e-05
2.12533e-05
2.32003e-05
2.51108e-05
1.96566e-05
2.31559e-05
2.21542e-05
2.41088e-05
2.04427e-05
2.06831e-05
2.19713e-05
1.91727e-05
2.26968e-05
2.56008e-05
2.37711e-05
2.39196e-05
2.1942e-05
2.29873e-05
2.37869e-05
2.55211e-05
2.18099e-05
1.91983e-05
1.96501e-05
2.18148e-05
2.19125e-05
2.17855e-05
2.70259e-05
2.61067e-05
2.62547e-05
2.43061e-05
1.90359e-05
2.48448e-05
2.35233e-05
3.12727e-05
2.97628e-05
2.17771e-05
1.99409e-05
2.12977e-05
2.41717e-05
2.05782e-05
1.86267e-05
1.98955e-05
2.3093e-05
2.68054e-05
1.98134e-05
2.12806e-05
2.12235e-05
2.4281e-05
2.21545e-05
2.0676e-05
2.18086e-05
1.6957e-05
1.94817e-05
2.33018e-05
2.31832e-05
2.38595e-05
1.99142e-05
1.96909e-05
2.2446e-05
2.55245e-05
2.21439e-05
1.78276e-05
1.70504e-05
2.10506e-05
2.23174e-05
1.95849e-05
2.2003e-05
2.45891e-05
2.55409e-05
2.4042e-05
1.71538e-05
1.86843e-05
1.71392e-05
2.4283e-05
3.02906e-05
2.22014e-05
1.88266e-05
1.82159e-05
2.2962e-05
2.09516e-05
1.69517e-05
1.61411e-05
1.80965e-05
2.57237e-05
2.08764e-05
1.80519e-05
1.80222e-05
2.24271e-05
2.30897e-05
1.99526e-05
2.13095e-05
1.50193e-05
1.38723e-05
1.7387e-05
2.01054e-05
2.215e-05
1.73416e-05
1.52801e-05
1.66095e-05
2.3417e-05
2.26913e-05
1.79982e-05
1.37136e-05
1.59346e-05
2.19206e-05
2.08503e-05
1.58411e-05
1.71775e-05
2.09833e-05
2.13434e-05
1.6695e-05
1.32747e-05
1.25792e-05
1.31443e-05
2.19536e-05
2.00266e-05
1.78027e-05
1.38508e-05
1.80127e-05
1.94759e-05
1.65337e-05
1.3151e-05
1.07666e-05
1.92773e-05
2.22132e-05
1.63447e-05
1.25464e-05
1.69312e-05
2.26034e-05
2.03052e-05
2.00921e-05
1.41125e-05
9.50799e-06
1.11418e-05
1.5547e-05
1.69873e-05
1.55978e-05
1.12591e-05
9.72772e-06
1.6514e-05
2.0407e-05
1.84716e-05
1.36746e-05
9.34e-06
1.4723e-05
2.19791e-05
1.29637e-05
8.6053e-06
1.40506e-05
1.68873e-05
1.51985e-05
1.19515e-05
9.59433e-06
7.26152e-06
1.44914e-05
1.53044e-05
1.55821e-05
1.05636e-05
1.21337e-05
1.52455e-05
1.42895e-05
1.31954e-05
8.199e-06
1.04823e-05
1.89135e-05
1.7787e-05
9.74078e-06
8.59791e-06
1.62699e-05
1.95805e-05
1.88984e-05
1.35899e-05
9.04723e-06
7.79792e-06
1.278e-05
1.21128e-05
1.39498e-05
1.00773e-05
6.0261e-06
9.74898e-06
1.39502e-05
1.43686e-05
1.3318e-05
7.55069e-06
6.20204e-06
1.54136e-05
1.38433e-05
5.45508e-06
8.9572e-06
1.36638e-05
1.28019e-05
1.23947e-05
6.43152e-06
5.86474e-06
1.0904e-05
1.22174e-05
1.22154e-05
8.38329e-06
7.50435e-06
1.17512e-05
1.02079e-05
1.13667e-05
8.39485e-06
6.63946e-06
1.15324e-05
1.48999e-05
1.05118e-05
5.37691e-06
6.52691e-06
1.21189e-05
1.54739e-05
1.02485e-05
1.02711e-05
9.45183e-06
9.86761e-06
1.24837e-05
1.13205e-05
1.21079e-05
6.16066e-06
7.56406e-06
9.46422e-06
9.206e-06
9.03652e-06
7.70561e-06
2.49253e-06
6.53326e-06
8.99112e-06
4.35186e-06
5.35872e-06
1.05962e-05
9.81423e-06
1.28623e-05
7.34564e-06
5.10716e-06
6.18415e-06
8.08434e-06
8.20265e-06
7.61085e-06
4.51547e-06
9.78169e-06
6.96018e-06
9.18434e-06
9.40733e-06
5.78386e-06
7.38389e-06
9.67288e-06
9.51751e-06
4.26053e-06
3.05214e-06
5.5722e-06
9.50471e-06
3.97727e-06
5.76838e-06
1.03577e-05
9.62136e-06
1.28062e-05
1.09483e-05
1.04286e-05
1.05049e-05
6.79994e-06
8.03738e-06
6.57633e-06
8.01351e-06
7.97905e-06
1.75361e-06
5.13577e-06
6.06722e-06
1.9977e-06
5.43009e-06
6.74974e-06
6.85933e-06
1.29283e-05
9.81876e-06
2.37918e-06
5.03666e-06
3.57571e-06
5.31885e-06
8.21977e-06
4.20228e-06
1.04469e-05
5.27191e-06
7.1707e-06
1.27463e-05
6.45084e-06
4.76265e-06
7.20329e-06
6.25508e-06
5.47246e-06
5.04534e-06
4.88976e-06
6.72123e-06
3.65181e-06
2.61096e-06
6.37401e-06
7.3797e-06
1.16278e-05
1.34452e-05
6.9451e-06
6.94013e-06
8.67535e-06
5.7228e-06
4.79796e-06
1.08634e-05
9.30984e-06
2.28245e-06
3.12078e-06
7.44397e-06
5.59055e-06
9.04036e-06
8.05124e-06
7.11965e-06
1.30937e-05
1.11674e-05
3.48511e-06
3.92139e-06
3.88993e-06
5.55447e-06
1.05053e-05
6.62956e-06
1.17275e-05
8.8558e-06
7.07092e-06
1.44546e-05
1.06721e-05
3.25411e-06
6.36631e-06
4.33391e-06
6.93561e-06
8.315e-06
7.58293e-06
7.40437e-06
4.30085e-06
9.96834e-06
1.0902e-05
1.52962e-06
5.03819e-06
1.35839e-05
1.13499e-05
6.99095e-06
7.90618e-06
4.50092e-06
6.16867e-06
1.31546e-05
9.96022e-06
2.17022e-06
3.00721e-06
1.22436e-05
1.67528e-05
1.48116e-05
1.07088e-05
4.16198e-06
1.18293e-05
1.32851e-05
9.40743e-06
6.35876e-06
2.59476e-06
9.26831e-06
1.37162e-05
1.28404e-05
6.91315e-06
9.24701e-06
1.26333e-05
1.56445e-05
1.43507e-05
5.17013e-06
6.31732e-06
9.58253e-06
1.21565e-05
1.26549e-05
1.15739e-05
1.12115e-05
1.25295e-05
1.475e-05
1.23432e-05
3.73686e-06
6.38815e-06
3.51137e-06
9.85774e-06
1.61552e-05
7.73178e-06
3.20057e-06
6.3629e-06
1.1563e-05
1.39386e-05
1.33603e-05
7.83032e-06
7.51572e-06
1.58737e-05
1.38949e-05
6.9495e-06
3.98109e-06
4.0582e-06
9.38996e-06
1.61434e-05
7.54233e-06
3.87984e-06
8.53209e-06
1.20315e-05
1.86534e-05
4.16559e-06
2.66843e-06
8.59262e-06
1.30778e-05
1.18124e-05
5.68776e-06
3.64191e-06
1.15009e-05
1.36705e-05
1.25473e-05
1.04305e-05
8.08861e-06
1.20485e-05
9.53607e-06
4.6445e-06
4.69905e-06
5.9115e-06
8.09774e-06
2.70512e-06
1.28484e-05
7.46427e-06
4.47647e-06
6.32297e-06
4.81802e-06
1.19416e-05
1.72423e-05
1.16414e-05
7.13463e-06
4.74376e-06
5.99074e-06
6.725e-06
4.49959e-06
9.6098e-06
1.82478e-06
1.23648e-05
9.92049e-06
1.01795e-05
5.83333e-06
4.53391e-06
1.10813e-05
5.94221e-06
5.5304e-06
5.19711e-06
4.77577e-06
6.18403e-06
6.39258e-06
5.41383e-06
8.38852e-06
8.02445e-06
6.62966e-06
5.86148e-06
6.24765e-06
8.20967e-06
2.86391e-06
4.43643e-06
3.67691e-06
4.45727e-06
4.03518e-06
4.93064e-06
3.69727e-06
3.47418e-06
4.9511e-06
5.51185e-06
2.57917e-06
3.15741e-06
6.29472e-06
6.02708e-06
3.14938e-06
3.31907e-06
4.9253e-06
5.31424e-06
4.49025e-06
4.80245e-06
3.10317e-06
2.75313e-06
7.07258e-06
9.99085e-06
3.69665e-06
3.29247e-06
4.31448e-06
6.48958e-06
5.46081e-06
4.763e-06
5.3264e-06
5.29139e-06
5.9609e-06
6.16398e-06
5.863e-06
2.28033e-06
3.21238e-06
4.37231e-06
5.69912e-06
4.32377e-06
5.30023e-06
7.24075e-06
3.97781e-06
3.84946e-06
3.22518e-06
4.54651e-06
6.05241e-06
4.72259e-06
3.18751e-06
3.07304e-06
5.39609e-06
5.78074e-06
4.29714e-06
3.5375e-06
3.04497e-06
4.53833e-06
8.193e-06
4.37907e-06
3.22853e-06
2.43057e-06
3.35068e-06
5.45382e-06
4.46115e-06
5.19852e-06
2.17433e-06
4.80292e-06
7.75142e-06
5.13074e-06
7.07466e-06
2.57337e-06
6.68514e-06
5.91444e-06
4.16923e-06
3.75553e-06
2.774e-06
5.09528e-06
6.29284e-06
4.08075e-06
4.14764e-06
3.28068e-06
5.50957e-06
5.92114e-06
3.50811e-06
3.55374e-06
2.57723e-06
4.97721e-06
7.15746e-06
4.40131e-06
2.7734e-06
3.08113e-06
5.46474e-06
6.57599e-06
4.57715e-06
3.41172e-06
2.89786e-06
4.2258e-06
6.05636e-06
4.25104e-06
2.98828e-06
2.05262e-06
4.45979e-06
7.21857e-06
4.83979e-06
2.52711e-06
2.10652e-06
4.96473e-06
6.75948e-06
3.72644e-06
3.91267e-06
1.47449e-06
6.20224e-06
4.9393e-06
2.63062e-06
2.91809e-06
2.56204e-06
5.62772e-06
6.91635e-06
4.31162e-06
4.68674e-06
2.27614e-06
2.95231e-06
3.1462e-06
2.7566e-06
3.14456e-06
2.6755e-06
3.0669e-06
4.15397e-06
2.49741e-06
1.99144e-06
1.90428e-06
2.7241e-06
3.63919e-06
2.82016e-06
1.93239e-06
2.44629e-06
2.07207e-06
2.57428e-06
3.17075e-06
2.38673e-06
1.63647e-06
3.37157e-06
4.57775e-06
3.27498e-06
2.06876e-06
2.23209e-06
2.5391e-06
3.16972e-06
2.8997e-06
2.00679e-06
1.67857e-06
2.88224e-06
2.24712e-06
2.64051e-06
2.84671e-06
1.90616e-06
2.49651e-06
3.17776e-06
3.05955e-06
4.04218e-06
1.34599e-06
1.25141e-06
1.65013e-06
1.71891e-06
1.87928e-06
1.91297e-06
8.83516e-07
1.71055e-06
1.67331e-06
1.09628e-06
9.93208e-07
8.83124e-07
1.57031e-06
1.9586e-06
1.13647e-06
1.74215e-06
5.47271e-07
8.88536e-07
2.4051e-06
1.18786e-06
1.20212e-06
1.10504e-06
1.91738e-06
1.79882e-06
1.20596e-06
1.43301e-06
8.05094e-07
1.32529e-06
1.75341e-06
1.33481e-06
1.35588e-06
9.64235e-07
1.02892e-06
1.37057e-06
1.93747e-06
1.30739e-06
6.86662e-07
1.08216e-06
1.74486e-06
2.4125e-06
7.4028e-07
4.78614e-07
1.00103e-06
1.13819e-06
1.12335e-06
1.20937e-06
3.08292e-07
7.3942e-07
1.13562e-06
6.63924e-07
5.54122e-07
4.75408e-07
9.54407e-07
1.32575e-06
6.6463e-07
1.15522e-06
4.52894e-07
3.94361e-07
1.89564e-06
6.9655e-07
9.5007e-07
3.49102e-07
7.31314e-07
1.22636e-06
5.102e-07
8.12239e-07
4.01185e-07
8.23367e-07
1.34303e-06
7.04708e-07
9.00947e-07
6.29027e-07
6.32228e-07
8.48511e-07
1.2338e-06
8.71843e-07
4.5667e-07
6.46065e-07
1.15032e-06
1.29415e-06
3.51973e-07
3.19763e-07
7.43459e-07
6.51561e-07
6.33667e-07
7.31172e-07
2.0583e-07
3.20081e-07
7.42864e-07
4.00611e-07
3.22024e-07
3.50768e-07
6.2617e-07
8.9133e-07
4.53848e-07
7.11335e-07
3.8055e-07
2.41201e-07
1.55336e-06
5.49656e-07
6.58909e-07
4.22796e-07
3.41461e-07
1.10925e-06
2.01567e-07
4.52466e-07
2.22688e-07
4.86577e-07
1.04257e-06
2.55011e-07
5.24256e-07
5.22825e-07
3.37867e-07
5.3328e-07
6.61578e-07
5.04346e-07
3.05586e-07
3.71581e-07
8.32882e-07
7.94143e-07
1.6245e-07
2.39853e-07
5.27769e-07
3.2499e-07
4.27037e-07
5.56791e-07
1.60406e-07
1.63792e-07
4.76313e-07
3.0021e-07
2.32297e-07
2.41232e-07
4.21151e-07
6.12734e-07
3.13836e-07
4.71669e-07
2.88293e-07
1.19259e-07
1.11533e-06
3.98673e-07
4.4784e-07
4.14806e-07
1.74024e-07
9.57001e-07
9.91576e-08
2.61917e-07
1.18394e-07
2.14405e-07
9.58982e-07
9.47207e-08
2.97297e-07
4.20374e-07
1.2145e-07
4.38712e-07
4.14474e-07
2.9491e-07
2.0241e-07
1.67948e-07
6.37874e-07
6.257e-07
7.99147e-08
1.61787e-07
4.54215e-07
1.95772e-07
3.07113e-07
4.36484e-07
1.06297e-07
1.05571e-07
3.34376e-07
2.14986e-07
1.76942e-07
1.52312e-07
2.97665e-07
4.47886e-07
2.08209e-07
2.98805e-07
2.15534e-07
6.56757e-08
9.07649e-07
2.86841e-07
2.91187e-07
4.34549e-07
8.09325e-08
8.1138e-07
6.29601e-08
1.82222e-07
6.898e-08
5.39283e-08
9.61849e-07
3.35624e-08
1.46984e-07
3.76606e-07
4.35176e-08
4.5897e-07
2.65345e-07
1.45713e-07
1.63637e-07
7.58951e-08
5.08284e-07
5.13402e-07
4.24046e-08
1.11075e-07
3.73748e-07
1.13406e-07
2.26322e-07
3.59186e-07
6.75191e-08
9.87069e-08
2.44211e-07
1.09303e-07
1.82057e-07
9.52178e-08
2.22894e-07
3.46104e-07
1.23314e-07
1.93782e-07
1.81912e-07
4.64898e-08
7.28055e-07
1.90208e-07
1.64536e-07
5.00768e-07
3.64687e-08
7.05979e-07
4.18818e-08
9.40003e-08
5.62973e-08
1.01076e-08
9.67772e-07
1.35243e-08
6.34077e-08
4.55392e-07
1.59541e-08
4.45227e-07
1.96737e-07
5.84521e-08
1.84545e-07
3.53978e-08
4.02529e-07
4.4811e-07
2.5735e-08
8.18368e-08
3.08821e-07
8.36311e-08
1.70329e-07
3.00307e-07
4.19897e-08
7.2069e-08
2.13824e-07
4.84644e-08
2.21527e-07
5.74557e-08
1.49699e-07
3.32216e-07
7.36489e-08
1.05796e-07
1.78172e-07
3.14646e-08
5.9556e-07
1.41223e-07
7.21891e-08
5.86643e-07
1.83837e-08
5.54649e-07
4.6199e-08
2.60382e-08
1.66124e-07
7.85568e-09
9.30582e-07
7.17048e-09
2.81353e-08
6.30224e-07
9.70525e-09
3.95871e-07
2.23151e-07
2.01064e-08
2.46102e-07
1.74604e-08
3.16712e-07
4.07461e-07
1.53143e-08
6.88846e-08
2.80698e-07
5.59774e-08
1.32849e-07
2.48999e-07
2.50261e-08
7.3121e-08
2.42664e-07
2.03187e-08
2.44197e-07
3.83441e-08
7.91464e-08
3.83464e-07
3.98723e-08
3.48675e-08
2.40362e-07
2.26206e-08
4.53048e-07
1.33619e-07
2.86036e-08
6.31891e-07
1.17096e-08
3.2611e-07
1.67191e-07
9.61067e-09
3.00251e-07
1.00085e-08
7.82059e-07
1.20535e-08
1.57107e-08
8.0797e-07
9.94865e-09
2.30861e-07
3.56503e-07
9.85723e-09
3.0709e-07
1.04085e-08
1.63171e-07
4.02823e-07
1.00998e-08
4.57766e-08
2.95309e-07
3.13865e-08
1.05961e-07
2.27183e-07
1.21955e-08
5.60562e-08
2.70367e-07
1.08558e-08
2.35288e-07
3.5807e-08
3.2656e-08
4.35601e-07
2.53456e-08
8.43104e-09
3.32935e-07
1.67971e-08
2.73952e-07
2.17868e-07
1.37197e-08
5.70036e-07
9.55084e-09
5.65295e-08
3.52656e-07
6.8709e-09
3.20186e-07
1.09343e-08
5.15416e-07
1.12057e-07
1.26551e-08
8.81411e-07
9.71943e-09
2.79393e-08
5.87931e-07
7.7069e-09
2.68287e-07
1.21717e-08
5.19643e-08
4.27307e-07
8.72439e-09
1.88616e-08
3.46572e-07
1.68628e-08
7.28287e-08
2.40457e-07
4.45918e-09
4.28653e-08
2.98474e-07
4.92504e-09
1.76415e-07
7.80565e-08
1.63724e-08
4.37327e-07
3.79485e-08
7.01901e-09
3.6922e-07
1.59942e-08
8.64879e-08
3.52661e-07
8.18382e-09
3.8754e-07
1.76505e-08
7.12017e-09
4.43718e-07
5.89992e-09
1.96266e-07
1.22311e-08
2.6693e-07
3.10755e-07
1.26868e-08
7.78343e-07
9.47289e-09
1.62715e-08
7.31815e-07
6.12276e-09
6.22326e-08
1.53712e-07
2.69946e-08
3.80095e-07
1.45075e-08
7.71503e-09
3.70944e-07
1.14923e-08
3.21657e-08
2.82759e-07
2.92935e-09
2.96904e-08
3.12931e-07
9.74091e-10
7.97867e-08
2.03722e-07
1.12823e-08
3.00179e-07
2.3181e-07
7.84331e-09
2.69692e-07
4.12525e-08
2.94877e-08
3.92877e-07
4.77167e-09
1.27171e-07
1.48828e-07
5.58602e-09
3.85467e-07
4.73358e-09
2.9758e-08
1.88205e-08
1.07145e-07
4.26621e-07
1.29579e-08
4.8458e-07
2.60887e-07
1.67946e-08
6.38375e-07
2.50126e-09
4.9829e-09
3.02491e-07
1.80037e-08
2.40295e-07
4.32944e-08
4.10712e-09
3.13222e-07
1.30967e-08
1.17712e-08
2.97449e-07
6.43182e-09
1.66654e-08
3.09677e-07
3.57188e-10
1.11878e-08
3.16757e-07
8.49095e-09
7.27811e-08
4.13894e-07
6.13869e-09
4.83852e-08
1.99355e-07
1.85764e-08
2.7733e-07
2.79084e-09
7.28232e-09
2.32001e-07
4.33711e-09
2.09604e-07
9.43221e-09
3.25781e-09
2.48379e-08
4.15387e-08
4.37201e-07
1.21652e-08
1.16089e-07
5.43226e-07
1.50641e-08
3.2131e-07
1.91246e-07
7.64554e-09
2.66502e-07
1.37292e-08
6.76667e-08
4.7999e-08
3.16148e-09
1.96442e-07
3.53994e-08
5.88064e-09
2.47291e-07
2.4638e-08
9.68923e-09
2.43243e-07
5.52305e-09
5.85989e-09
3.18905e-07
7.22797e-09
1.48823e-08
4.32584e-07
2.73624e-09
8.73015e-09
2.65887e-07
1.16729e-08
7.80397e-08
3.26567e-08
3.30156e-09
1.84211e-07
3.42524e-09
3.61532e-08
9.92692e-08
4.45472e-09
1.70517e-08
1.87358e-08
3.64474e-07
1.15125e-08
1.28421e-08
5.96995e-07
1.00427e-08
1.33119e-08
4.04976e-07
7.15037e-09
6.96152e-08
1.03043e-07
1.58787e-08
1.32906e-08
4.58097e-09
9.14279e-08
8.44042e-08
4.36563e-09
1.31648e-07
1.11843e-07
6.37845e-09
1.19058e-07
7.22384e-08
5.0893e-09
2.1862e-07
3.25034e-08
1.19295e-08
2.94443e-07
5.52354e-08
9.02348e-09
1.7386e-07
2.49282e-08
1.38006e-08
7.0904e-08
1.45643e-09
8.7924e-08
5.96757e-09
1.18875e-09
9.86114e-08
1.23081e-08
9.24558e-09
8.79813e-09
2.5419e-07
1.9588e-08
1.04643e-08
4.49684e-07
6.36745e-09
7.57063e-09
3.85205e-07
3.30815e-09
2.54443e-09
1.82722e-07
7.12905e-09
3.63762e-09
1.15482e-08
1.87392e-08
9.32155e-08
4.30134e-09
3.15451e-08
1.47718e-07
4.18831e-09
2.23072e-08
1.40792e-07
3.88513e-09
7.232e-08
1.52374e-07
8.35711e-09
8.24829e-08
2.05622e-07
6.49335e-09
1.83436e-08
1.01449e-07
8.79464e-09
3.26391e-08
4.63654e-10
3.62074e-08
2.93509e-08
7.15204e-10
5.49462e-08
5.1195e-08
6.61714e-09
4.44727e-09
1.51147e-07
5.50546e-08
8.42793e-09
2.23701e-07
6.6073e-08
8.28535e-09
2.09317e-07
1.47122e-08
5.24036e-09
1.2671e-07
8.6653e-09
4.18458e-08
2.11231e-08
1.88722e-09
7.69303e-08
7.94155e-09
7.89934e-09
1.13518e-07
3.27108e-09
8.16061e-09
1.48572e-07
2.59245e-09
6.93605e-09
1.8763e-07
3.82859e-09
7.65049e-09
2.03688e-07
3.22996e-09
6.89304e-09
7.24495e-08
3.64212e-08
1.51908e-08
1.49948e-09
3.45298e-08
5.30479e-08
1.75817e-09
3.2216e-08
7.09836e-08
7.3239e-09
4.14495e-09
7.23745e-08
5.57908e-08
8.784e-09
3.5016e-08
1.01533e-07
1.27557e-08
1.10133e-08
5.21588e-08
1.35808e-08
1.40976e-08
1.44775e-08
3.34962e-05
2.86282e-05
2.34259e-05
2.23617e-05
1.82816e-05
2.72713e-05
2.90796e-05
3.35567e-05
2.90907e-05
3.17436e-05
3.12797e-05
3.19794e-05
3.15713e-05
2.30167e-05
2.24768e-05
2.06704e-05
2.52541e-05
2.70502e-05
2.22825e-05
2.06603e-05
1.86862e-05
2.37691e-05
1.757e-05
2.25394e-05
2.79002e-05
2.85607e-05
4.11732e-05
3.2311e-05
2.88926e-05
2.3828e-05
2.20959e-05
2.83072e-05
2.25307e-05
2.79472e-05
2.27499e-05
3.2504e-05
2.5133e-05
2.53952e-05
2.63162e-05
2.27544e-05
3.30571e-05
3.73828e-05
2.57225e-05
2.10669e-05
1.45191e-05
2.23114e-05
2.58601e-05
3.34161e-05
3.19834e-05
3.50949e-05
3.32427e-05
3.08363e-05
3.6019e-05
2.91365e-05
2.50464e-05
1.88951e-05
2.15709e-05
3.03987e-05
2.746e-05
2.24214e-05
1.91466e-05
2.53565e-05
1.70478e-05
1.89215e-05
2.84028e-05
2.38151e-05
3.803e-05
3.67016e-05
3.27117e-05
2.64986e-05
1.90927e-05
2.90315e-05
2.42642e-05
3.05257e-05
2.46217e-05
3.52231e-05
2.89062e-05
2.58106e-05
2.94651e-05
2.00478e-05
2.23955e-05
4.09165e-05
3.03657e-05
2.2176e-05
1.20836e-05
1.35683e-05
1.69278e-05
2.50657e-05
3.06825e-05
3.70759e-05
3.44563e-05
2.39801e-05
3.51106e-05
3.73053e-05
3.15771e-05
1.87395e-05
1.39416e-05
2.71839e-05
3.13101e-05
2.53636e-05
1.95689e-05
2.7269e-05
1.93908e-05
1.49059e-05
2.60849e-05
1.98775e-05
2.53415e-05
3.39255e-05
3.41052e-05
3.342e-05
1.70067e-05
2.6428e-05
2.40434e-05
3.20899e-05
2.71854e-05
3.41279e-05
3.43104e-05
2.72112e-05
3.40401e-05
1.94914e-05
8.85132e-06
2.90152e-05
3.10618e-05
2.37663e-05
1.2936e-05
8.00357e-06
1.07864e-05
1.28747e-05
1.87683e-05
2.94143e-05
3.38783e-05
1.636e-05
1.9621e-05
3.3987e-05
3.91458e-05
2.43258e-05
8.83299e-06
1.57563e-05
2.56254e-05
2.61542e-05
2.04979e-05
2.62339e-05
2.48142e-05
1.91859e-05
2.01085e-05
2.35232e-05
1.32432e-05
2.16385e-05
2.28888e-05
3.68526e-05
2.24739e-05
2.27895e-05
2.09405e-05
2.68747e-05
3.03971e-05
2.48253e-05
3.42242e-05
2.7332e-05
3.57482e-05
2.81114e-05
9.84047e-06
1.24431e-05
2.26409e-05
2.16575e-05
1.63737e-05
8.77967e-06
1.20332e-05
1.03827e-05
9.52601e-06
1.06011e-05
2.29403e-05
1.7748e-05
9.08201e-06
1.43973e-05
3.2237e-05
3.15609e-05
1.27266e-05
1.24201e-05
1.58862e-05
1.82944e-05
2.06073e-05
1.83689e-05
2.66077e-05
2.89652e-05
1.69971e-05
2.46556e-05
1.11004e-05
1.31619e-05
6.2569e-06
2.40071e-05
2.83105e-05
2.04487e-05
2.08592e-05
1.35619e-05
2.66554e-05
1.38388e-05
2.27657e-05
2.17159e-05
2.55016e-05
3.37236e-05
1.76115e-05
5.45618e-06
1.31455e-05
1.57617e-05
2.08129e-05
1.46015e-05
1.36531e-05
1.15218e-05
1.00963e-05
3.85701e-06
5.09208e-06
1.72853e-05
7.3228e-06
7.44506e-06
1.09817e-05
2.70842e-05
2.15371e-05
1.4176e-05
1.47764e-05
8.89777e-06
1.7483e-05
9.78151e-06
1.82099e-05
2.61439e-05
1.66888e-05
1.72013e-05
8.96124e-06
9.80489e-06
3.55947e-06
5.72155e-06
2.08316e-05
1.23709e-05
2.02862e-05
5.82435e-06
1.23342e-05
6.8779e-06
8.0335e-06
1.31707e-05
1.07065e-05
2.1127e-05
1.08502e-05
7.81405e-06
7.21453e-06
9.72671e-06
2.03245e-05
1.91615e-05
1.43452e-05
9.92158e-06
7.99847e-06
3.29855e-06
3.18746e-06
7.86746e-06
1.02442e-05
4.94451e-06
7.8533e-06
1.15385e-05
2.02316e-05
1.21878e-05
1.44535e-05
8.11693e-06
1.08815e-05
7.34082e-06
8.69555e-06
1.17883e-05
9.65073e-06
8.32367e-06
6.04692e-06
5.45444e-06
6.54432e-06
4.00185e-06
8.29096e-06
5.41558e-06
1.05799e-05
4.87465e-06
3.53736e-06
4.55334e-06
4.76541e-06
6.52682e-06
6.42798e-06
7.6405e-06
5.48086e-06
7.36523e-06
3.23431e-06
5.93934e-06
1.39696e-05
1.48638e-05
1.17888e-05
8.41681e-06
5.57936e-06
2.72834e-06
4.04701e-06
5.1618e-06
6.34021e-06
7.31728e-06
4.89091e-06
2.68052e-06
1.055e-05
4.72201e-06
6.8019e-06
8.49434e-06
5.4363e-06
6.64287e-06
4.91865e-06
3.57779e-06
2.74746e-06
3.90767e-06
5.9128e-06
3.50508e-06
6.37338e-06
3.2186e-06
3.99469e-06
2.93761e-06
5.03315e-06
4.16312e-06
2.5493e-06
4.82483e-06
4.33419e-06
3.16306e-06
2.62518e-06
4.30449e-06
3.85818e-06
3.78926e-06
2.7101e-06
4.05472e-06
7.94732e-06
7.11661e-06
5.67067e-06
5.85917e-06
4.78725e-06
2.22292e-06
3.05989e-06
4.92227e-06
4.80647e-06
4.86605e-06
2.23849e-06
2.12763e-06
5.05085e-06
4.26497e-06
1.7917e-06
5.92674e-06
4.24267e-06
5.23416e-06
4.78765e-06
1.63728e-06
1.6828e-06
3.132e-06
5.75117e-06
4.14383e-06
4.57102e-06
3.40911e-06
4.58352e-06
4.98586e-06
2.54159e-06
2.79283e-06
1.91675e-06
3.6922e-06
3.37142e-06
2.49815e-06
2.82197e-06
1.92002e-06
3.66609e-06
3.94293e-06
2.56048e-06
3.47199e-06
4.06571e-06
3.6817e-06
3.56814e-06
4.38075e-06
3.26077e-06
2.29595e-06
3.06756e-06
3.59936e-06
4.04546e-06
3.6855e-06
3.3e-06
2.22937e-06
5.28276e-06
5.52757e-06
3.23726e-06
4.97668e-06
4.03863e-06
4.6691e-06
5.18986e-06
3.16635e-06
3.5271e-06
3.48653e-06
4.89045e-06
5.06631e-06
3.8622e-06
2.98767e-06
5.2515e-06
6.44828e-06
3.4527e-06
2.97187e-06
3.67243e-06
4.45635e-06
3.44609e-06
2.30746e-06
3.47713e-06
1.61091e-06
3.25994e-06
5.42376e-06
5.21188e-06
3.48187e-06
1.70623e-06
2.97049e-06
3.75675e-06
5.19525e-06
2.75879e-06
2.27614e-06
3.42634e-06
2.56444e-06
3.93041e-06
5.46082e-06
4.95393e-06
3.8493e-06
6.69981e-06
5.87273e-06
5.34002e-06
5.77077e-06
2.5947e-06
3.75619e-06
4.74693e-06
3.86879e-06
4.49817e-06
4.55684e-06
5.45973e-06
5.03249e-06
4.2662e-06
2.64736e-06
4.68549e-06
7.40639e-06
4.72031e-06
3.64469e-06
3.58422e-06
5.62264e-06
5.10627e-06
2.97011e-06
3.40329e-06
2.12961e-06
3.35796e-06
4.98808e-06
5.35429e-06
2.08011e-06
2.47796e-06
3.29245e-06
3.45012e-06
5.97978e-06
2.00047e-06
3.11687e-06
4.72959e-06
2.87616e-06
3.8816e-06
3.49027e-06
3.63015e-06
2.79047e-06
3.08639e-06
4.6552e-06
4.18537e-06
4.50879e-06
1.53087e-06
2.18009e-06
3.9015e-06
3.31384e-06
4.05204e-06
4.36038e-06
4.69675e-06
3.46196e-06
2.91097e-06
2.98316e-06
2.90753e-06
4.49055e-06
3.18441e-06
4.03034e-06
2.93239e-06
3.19591e-06
4.93762e-06
4.89111e-06
3.98004e-06
2.99316e-06
3.60199e-06
5.44115e-06
5.42213e-06
2.38453e-06
3.6631e-06
3.43996e-06
4.66868e-06
4.73035e-06
3.18609e-06
3.40309e-06
4.05129e-06
3.23047e-06
4.37384e-06
3.32012e-06
3.75796e-06
4.39644e-06
4.22205e-06
4.62719e-06
3.34772e-06
4.29958e-06
3.33853e-06
2.78492e-06
4.44993e-06
3.62448e-06
4.04097e-06
4.05899e-06
4.61104e-06
4.90734e-06
3.46554e-06
4.07069e-06
4.01723e-06
4.28641e-06
2.07839e-06
2.62317e-06
2.35213e-06
3.28793e-06
5.72432e-06
5.75911e-06
3.52819e-06
3.314e-06
4.12636e-06
4.10589e-06
3.86966e-06
3.57756e-06
3.90121e-06
1.69648e-06
3.76001e-06
5.89856e-06
5.48402e-06
3.15614e-06
1.99473e-06
2.54814e-06
5.12913e-06
6.37347e-06
5.18197e-06
3.93913e-06
3.75267e-06
4.38683e-06
7.11769e-06
6.65927e-06
2.77848e-06
3.79221e-06
5.50609e-06
5.994e-06
2.66217e-06
2.79931e-06
3.31372e-06
6.03013e-06
5.1788e-06
2.2638e-06
3.28966e-06
4.23702e-06
4.58626e-06
4.09048e-06
3.49473e-06
4.34199e-06
4.61482e-06
4.67778e-06
3.66304e-06
3.39354e-06
1.15964e-06
2.55019e-06
2.5239e-06
2.95432e-06
2.8962e-06
1.44832e-06
2.99957e-06
5.08371e-06
3.40626e-06
1.10091e-06
2.5744e-06
1.86875e-06
3.82226e-06
4.57182e-06
2.03807e-06
2.87549e-06
2.00786e-06
2.86012e-06
6.17711e-06
3.88552e-06
1.47592e-06
2.44502e-06
3.94147e-06
4.28786e-06
1.18881e-06
2.68399e-06
1.45879e-06
3.91323e-06
2.61593e-06
1.61446e-06
3.10967e-06
2.49508e-06
3.6166e-06
3.44424e-06
2.38714e-06
2.33819e-06
2.90842e-06
3.13326e-06
2.92994e-06
1.73387e-06
2.04146e-06
2.15447e-06
2.20138e-06
1.54846e-06
2.06857e-06
1.94e-06
2.0561e-06
2.66758e-06
1.11436e-06
1.06227e-06
2.27814e-06
1.52238e-06
1.90432e-06
1.35521e-06
1.6213e-06
3.07254e-06
1.74574e-06
1.66048e-06
1.7696e-06
1.53269e-06
2.11358e-06
1.71954e-06
1.67597e-06
1.30306e-06
1.55992e-06
1.95402e-06
4.72267e-07
1.35241e-06
1.80786e-06
2.29953e-06
2.45389e-06
1.33363e-06
1.4579e-06
1.08403e-06
1.52403e-06
2.32054e-06
2.77294e-06
1.86329e-06
1.15763e-06
2.38585e-06
1.81917e-06
1.06659e-06
1.48964e-06
1.37548e-06
1.78093e-06
1.48738e-06
1.21515e-06
1.34579e-06
1.01103e-06
9.81047e-07
1.28039e-06
1.25358e-06
1.09948e-06
1.2059e-06
1.72314e-06
1.95944e-06
1.21684e-06
1.08362e-06
2.06546e-06
2.1409e-06
1.57266e-06
1.27234e-06
1.04068e-06
1.51537e-06
1.11262e-06
1.2902e-06
5.28702e-07
9.88836e-07
1.92699e-06
1.44412e-06
1.50011e-06
1.08129e-06
8.1398e-07
1.08514e-06
1.6715e-06
2.10096e-06
1.62148e-06
1.1439e-06
1.43389e-06
2.52462e-06
6.88759e-07
1.05453e-06
1.07926e-06
9.55605e-07
1.14267e-06
8.78918e-07
7.1351e-07
7.81954e-07
6.25109e-07
3.93586e-07
7.84276e-07
8.47361e-07
7.04812e-07
8.51912e-07
8.61761e-07
1.1683e-06
9.2296e-07
6.03577e-07
1.72457e-06
1.20384e-06
7.47391e-07
6.96243e-07
7.11915e-07
1.2753e-06
3.85996e-07
9.01042e-07
2.42738e-07
6.57918e-07
1.32741e-06
7.13674e-07
1.10877e-06
7.71081e-07
4.8035e-07
7.49769e-07
1.11854e-06
1.19474e-06
7.52283e-07
7.76687e-07
1.10055e-06
1.5316e-06
3.68986e-07
1.02493e-06
9.31583e-07
4.73635e-07
6.24768e-07
5.21704e-07
4.28191e-07
5.29596e-07
3.34935e-07
1.06528e-07
5.03447e-07
5.85292e-07
4.21559e-07
4.38268e-07
2.77654e-07
8.1688e-07
6.84012e-07
2.81637e-07
9.84912e-07
3.86943e-07
5.38073e-07
4.98433e-07
3.43206e-07
7.70649e-07
3.80586e-08
7.04607e-07
9.49938e-08
2.80598e-07
8.4419e-07
2.79277e-07
8.2171e-07
5.79572e-07
2.26172e-07
3.2021e-07
5.74014e-07
6.94196e-07
5.03135e-07
4.91234e-07
5.51385e-07
7.88321e-07
3.37511e-07
8.5215e-07
8.26347e-07
2.23089e-07
3.61617e-07
4.14707e-07
3.51179e-07
4.12803e-07
2.03702e-07
4.51237e-08
3.06116e-07
4.40039e-07
2.65198e-07
2.56224e-07
9.66347e-08
5.61543e-07
5.52963e-07
1.38055e-07
6.76019e-07
1.76874e-07
4.36031e-07
3.82138e-07
1.08359e-07
5.90498e-07
1.39679e-08
6.5394e-07
9.44093e-08
8.95557e-08
6.91354e-07
1.0425e-07
6.43596e-07
5.01351e-07
8.68251e-08
1.40237e-07
2.38164e-07
4.47021e-07
3.56348e-07
3.23671e-07
2.79086e-07
4.85915e-07
2.97249e-07
6.73151e-07
7.36063e-07
1.14444e-07
2.21104e-07
4.09264e-07
2.69967e-07
3.62527e-07
1.36477e-07
3.56629e-08
1.83918e-07
3.21396e-07
1.58219e-07
1.59754e-07
5.264e-08
3.92077e-07
5.26236e-07
5.94566e-08
5.4405e-07
1.05939e-07
3.20386e-07
4.46162e-07
2.92204e-08
6.08404e-07
2.01453e-08
5.64612e-07
2.24316e-07
2.75212e-08
7.1533e-07
5.07596e-08
4.82575e-07
5.19825e-07
2.99959e-08
1.10009e-07
7.09652e-08
3.39838e-07
2.72339e-07
2.33117e-07
1.62363e-07
3.1914e-07
2.49719e-07
4.94181e-07
6.27745e-07
7.3669e-08
1.1649e-07
3.8692e-07
1.79336e-07
3.34005e-07
1.034e-07
3.24877e-08
1.18691e-07
1.87265e-07
1.14075e-07
1.22218e-07
3.1544e-08
2.45448e-07
4.94335e-07
2.74177e-08
5.11482e-07
7.34993e-08
1.30785e-07
6.05287e-07
1.42974e-08
6.13234e-07
2.10094e-08
3.56709e-07
4.25614e-07
1.46773e-08
7.82732e-07
3.67666e-08
3.06028e-07
6.17828e-07
9.90392e-09
1.47387e-07
1.72816e-08
2.61642e-07
2.24229e-07
1.31694e-07
1.2323e-07
1.90434e-07
1.87401e-07
3.74987e-07
4.9605e-07
6.00219e-08
5.20653e-08
3.52652e-07
1.12322e-07
3.03757e-07
8.48641e-08
2.43881e-08
1.06581e-07
9.35474e-08
8.52727e-08
1.14738e-07
1.66628e-08
1.44861e-07
4.85361e-07
1.35968e-08
4.58562e-07
6.101e-08
3.39471e-08
7.79465e-07
1.25183e-08
4.96611e-07
2.5376e-08
1.08603e-07
6.16612e-07
1.19624e-08
7.52658e-07
3.49899e-08
1.30375e-07
7.84192e-07
4.54178e-09
1.75364e-07
4.60598e-08
1.55228e-07
2.34304e-07
5.08385e-08
1.21331e-07
1.07221e-07
1.13049e-07
2.89038e-07
3.68891e-07
5.27707e-08
3.47347e-08
3.03203e-07
6.84363e-08
2.65113e-07
6.99723e-08
1.41435e-08
1.61913e-07
2.13118e-08
5.25679e-08
1.57948e-07
7.44162e-09
6.87498e-08
4.83428e-07
8.01491e-09
3.65323e-07
9.16241e-08
2.18469e-08
8.37442e-07
1.10697e-08
2.62542e-07
1.04582e-07
3.76841e-08
7.13591e-07
9.67103e-09
5.93191e-07
5.10939e-08
4.96964e-08
9.37977e-07
4.2564e-09
1.13102e-07
1.67732e-07
3.43598e-08
2.79983e-07
2.03088e-08
1.29904e-07
9.63055e-08
5.00253e-08
2.12002e-07
2.90815e-07
3.52277e-08
4.25296e-08
2.70247e-07
3.58288e-08
2.29967e-07
7.31063e-08
6.47501e-09
2.26986e-07
4.62852e-09
2.84599e-08
2.34883e-07
3.03765e-09
2.65905e-08
5.09455e-07
5.75146e-09
1.91485e-07
2.58922e-07
1.82343e-08
7.60135e-07
8.63515e-09
2.44805e-08
3.57975e-07
2.85501e-08
6.39799e-07
6.82016e-09
3.62334e-07
1.29873e-07
2.86834e-08
9.69933e-07
3.70031e-09
2.36692e-08
4.04128e-07
7.24351e-09
2.557e-07
1.83666e-08
7.00085e-08
1.60346e-07
2.15791e-08
1.22415e-07
2.84682e-07
1.64171e-08
4.26634e-08
2.98835e-07
1.72958e-08
1.66503e-07
1.25775e-07
2.99994e-09
2.63482e-07
1.58037e-08
1.54383e-08
2.86026e-07
1.94272e-09
1.81676e-08
5.04767e-07
4.16127e-09
1.83236e-08
4.33806e-07
1.48121e-08
5.10714e-07
1.78818e-08
2.97393e-09
4.79154e-07
2.4923e-08
4.13051e-07
6.73568e-09
1.3243e-07
3.06208e-07
2.37252e-08
8.23065e-07
1.02268e-09
7.65315e-09
5.74881e-07
6.45276e-09
1.18032e-07
6.11999e-08
9.60541e-09
2.17306e-07
1.36518e-08
4.11892e-08
3.06938e-07
8.76123e-09
1.53667e-08
3.71874e-07
9.70734e-09
5.6821e-08
2.30185e-07
2.07391e-09
2.06565e-07
1.6017e-07
1.10542e-08
2.28271e-07
1.12224e-07
1.6115e-08
3.92829e-07
1.77258e-08
8.44175e-09
4.5089e-07
9.66356e-09
1.86935e-07
1.97119e-07
2.54013e-09
4.04735e-07
2.28712e-08
1.65007e-07
2.72667e-08
2.54186e-08
4.17995e-07
2.10429e-08
5.19573e-07
2.05355e-07
9.9461e-09
5.40207e-07
9.68498e-09
6.80021e-09
1.83661e-07
2.68101e-09
1.72579e-07
1.4823e-08
1.4462e-08
2.99732e-07
9.46393e-09
6.40558e-09
4.01765e-07
8.05378e-09
1.35495e-08
2.96036e-07
2.32871e-09
6.25028e-08
3.00814e-07
7.60995e-09
5.66356e-08
3.14092e-07
1.30982e-08
1.55824e-07
2.26816e-07
8.15516e-09
2.95444e-07
7.64664e-09
2.36963e-08
2.73401e-07
2.46421e-09
2.19738e-07
5.17321e-08
4.05248e-08
7.2442e-08
9.3552e-09
4.09578e-07
1.86142e-08
1.63029e-07
4.84516e-07
1.12647e-08
2.88765e-07
2.28378e-07
6.46756e-09
1.84911e-07
7.00853e-09
6.09292e-08
1.24145e-08
8.30317e-09
2.32926e-07
2.07122e-08
5.48926e-09
3.29965e-07
3.11055e-08
8.12582e-09
2.66132e-07
3.84423e-09
1.10498e-08
3.35502e-07
4.44935e-09
1.38695e-08
3.80126e-07
7.66135e-09
1.64981e-08
3.24176e-07
4.91142e-09
5.46148e-08
9.57922e-08
1.06684e-08
2.04933e-07
3.60851e-09
5.08806e-08
1.36156e-07
2.28244e-08
6.31367e-08
5.97207e-09
3.28202e-07
1.87073e-08
1.8859e-08
5.47875e-07
9.36566e-09
9.40561e-09
4.03132e-07
5.29432e-09
4.6963e-08
1.1068e-07
8.05835e-09
3.19622e-09
7.56957e-09
1.29755e-07
6.57808e-08
5.60322e-09
1.69694e-07
1.44776e-07
5.89981e-09
1.43155e-07
5.19254e-08
8.53158e-09
2.55027e-07
1.52118e-08
1.19894e-08
2.71509e-07
3.53928e-08
1.19153e-08
2.25174e-07
6.40127e-09
7.53046e-09
1.21689e-07
5.90008e-09
9.86208e-08
8.37887e-09
9.67183e-10
1.44274e-07
2.66701e-08
3.39143e-08