/*--------------------------------*- C++ -*----------------------------------*\
  =========                 |
  \\      /  F ield         | OpenFOAM: The Open Source CFD Toolbox
   \\    /   O peration     | Website:  https://openfoam.org
    \\  /    A nd           | Version:  10
     \\/     M anipulation  |
\*---------------------------------------------------------------------------*/
FoamFile
{
    format      ascii;
    class       volScalarField;
    location    "4";
    object      p;
}
// * * * * * * * * * * * * * * * * * * * * * * * * * * * * * * * * * * * * * //

dimensions      [0 2 -2 0 0 0 0];

internalField   nonuniform List<scalar> 
25600
(
-0.000861878
-0.00675064
6.30994e-05
0.00157567
-0.00150853
0.00142905
-0.000571733
-0.00521576
0.00180791
0.008868
0.0035143
-0.000852947
-0.000789392
-0.00324126
-0.00332149
-0.000334953
-0.00274375
-0.00335262
0.00576454
0.00144534
0.000625644
0.00145956
-0.00418425
0.00341179
0.00708968
-0.000274203
-0.00395242
0.000895968
0.00711391
0.00146449
-0.00894081
-0.00565951
0.00243517
0.0035135
0.00198818
-1.96644e-05
-0.00385679
-0.0016465
0.00185324
0.00609414
-0.000818978
-0.00676395
1.74097e-05
0.00157324
-0.00151662
0.00146361
-0.00051988
-0.00523103
0.00176311
0.00890218
0.00358897
-0.000851811
-0.000781686
-0.00324169
-0.00332574
-0.000330634
-0.00275314
-0.00340433
0.00576801
0.00146554
0.000607652
0.00146435
-0.0042406
0.00337313
0.0071459
-0.000251688
-0.00395981
0.000862101
0.00713003
0.00152266
-0.00894489
-0.00570866
0.00240685
0.00353756
0.00199995
1.7536e-05
-0.00386931
-0.00164797
0.00186066
0.00611787
-0.000811092
-0.0069077
-3.66534e-05
0.00162422
-0.00152918
0.00147052
-0.000496697
-0.00535734
0.00169147
0.00898748
0.00371069
-0.00092397
-0.000874116
-0.00331635
-0.00334702
-0.000308358
-0.00278141
-0.00346317
0.00578265
0.00146689
0.000581813
0.00146882
-0.00437043
0.00330747
0.00715665
-0.000238292
-0.00407891
0.000756239
0.0071685
0.00157852
-0.00898604
-0.00578499
0.00236018
0.00358086
0.00203329
1.77556e-05
-0.00393557
-0.00164327
0.00186157
0.0061902
-0.000754557
-0.00720076
-0.000114527
0.00170614
-0.0015265
0.00148732
-0.000514427
-0.00569998
0.0015009
0.00915272
0.00391043
-0.00104438
-0.00109008
-0.00354712
-0.00341735
-0.000232302
-0.00281922
-0.00349454
0.00581832
0.00139785
0.000544983
0.00150056
-0.00439157
0.00322262
0.00717076
-0.000209164
-0.00433802
0.000522506
0.00721303
0.00162633
-0.00907468
-0.00590369
0.00229262
0.00360943
0.00209676
-2.93326e-05
-0.00411057
-0.00166195
0.00179445
0.00633872
-0.000480708
-0.00730599
-0.000459066
0.00176869
-0.00150792
0.00157696
-0.000540497
-0.006158
0.00103427
0.00902437
0.0040628
-0.00102737
-0.00120855
-0.0039261
-0.00367902
-7.55762e-05
-0.00284871
-0.00347805
0.00596638
0.00129841
0.000481136
0.00143689
-0.00426816
0.00316608
0.00717909
-3.30843e-05
-0.00457335
0.000140697
0.00723635
0.00167014
-0.00923181
-0.00607328
0.00220459
0.00354064
0.00212997
-7.26172e-05
-0.0043966
-0.00179877
0.00151869
0.0063517
-0.000335776
-0.00690691
-0.000723071
0.00172849
-0.00144251
0.00175178
-0.000563161
-0.00646221
0.000458861
0.0085722
0.00393849
-0.00108758
-0.000989305
-0.00405763
-0.0041206
-7.81189e-05
-0.00285682
-0.00368199
0.00611555
0.00121527
0.000438529
0.00125539
-0.00420292
0.00306205
0.00708737
0.00016591
-0.00441256
-0.000243297
0.00722712
0.00173942
-0.00948475
-0.00631022
0.00212985
0.00338473
0.0018421
-0.000275671
-0.0046853
-0.00199715
0.00113354
0.00604823
-0.000727084
-0.00661998
-0.000641957
0.00168192
-0.00140062
0.00194301
-0.0006207
-0.00662274
-2.1611e-05
0.00812011
0.00375436
-0.00116251
-0.000604942
-0.00363184
-0.00431182
-0.000264971
-0.00296277
-0.00418635
0.00594141
0.00112631
0.000543758
0.00111446
-0.00406449
0.00258228
0.00670921
0.000185543
-0.00401801
-0.000382392
0.00724217
0.00184264
-0.00971493
-0.00649255
0.00215995
0.00327677
0.00156793
-0.00068339
-0.0052467
-0.00224846
0.001072
0.00585678
-0.00128637
-0.00658821
-0.000554826
0.00186978
-0.0013689
0.00207274
-0.000730272
-0.00674003
-0.000294999
0.0077741
0.00358951
-0.00100481
-0.000243076
-0.00295758
-0.0039916
-0.00029231
-0.00294377
-0.00460879
0.00564149
0.00100145
0.000832471
0.0012484
-0.00399537
0.00232836
0.00608766
8.24412e-05
-0.0035832
-0.000347951
0.00731706
0.00198655
-0.00986839
-0.0065411
0.00228824
0.00336768
0.00140742
-0.000952455
-0.00595607
-0.00244971
0.00132623
0.00601763
-0.00168501
-0.00702549
-0.00039156
0.00198745
-0.00145231
0.00209123
-0.000897397
-0.00704785
-0.000218024
0.00748674
0.00325183
-0.000650421
0.000138069
-0.00225213
-0.00320157
6.80185e-06
-0.00312543
-0.00501476
0.00569328
0.000932351
0.00114913
0.00149848
-0.00359301
0.0024037
0.00552684
-0.000130997
-0.00327641
-0.000259164
0.0075185
0.00215619
-0.00983935
-0.00646152
0.00238197
0.00373013
0.00152865
-0.000954976
-0.00655014
-0.00268498
0.00169444
0.00641979
-0.00156845
-0.00791345
-0.00065868
0.00183784
-0.00188134
0.00204931
-0.00117976
-0.00745481
-8.72497e-05
0.00736266
0.00279726
-0.000346344
0.000430779
-0.00179032
-0.00228159
0.000689448
-0.00317952
-0.00569899
0.00606245
0.000921039
0.00155926
0.00154893
-0.00315135
0.00296666
0.00517678
-0.000445193
-0.00328939
-0.000464357
0.0075273
0.0022997
-0.00961035
-0.00662165
0.00220049
0.0042054
0.00163206
-0.000675574
-0.00671391
-0.00287717
0.00201247
0.00724555
-0.000992007
-0.00809526
-0.000741059
0.00185865
-0.00238445
0.00127493
-0.00172394
-0.00772143
-0.000461567
0.00699141
0.00249481
-0.000171458
0.000557946
-0.0014756
-0.00214003
0.000953559
-0.00279722
-0.00600554
0.00528013
0.00109511
0.00112203
0.00110996
-0.00308388
0.00320597
0.00494647
-0.000470502
-0.00304118
-0.000685888
0.00695717
0.002344
-0.00893166
-0.00631098
0.00178946
0.00416193
0.0017993
-0.0002468
-0.0061793
-0.00299866
0.00218855
0.00784195
-0.000159103
-0.00676994
-0.000103209
0.00194355
-0.00252793
0.000673805
-0.00202005
-0.00737854
-0.00073665
0.00640182
0.00241525
-0.000125064
0.000373302
-0.00124007
-0.0028301
0.000473257
-0.00230687
-0.00547909
0.00390453
0.00128185
0.000794759
0.000463201
-0.00295677
0.00262801
0.0047084
-0.000213127
-0.00172496
-0.000695067
0.00620789
0.0024666
-0.00748417
-0.00549742
0.000981765
0.00361801
0.00165307
0.000311466
-0.00524001
-0.00271065
0.00203344
0.00696689
0.000297719
-0.00530259
0.000360573
0.00192637
-0.00240429
0.00022312
-0.00147963
-0.00507392
-0.000134509
0.00543714
0.00248453
-0.000481418
9.70253e-06
-0.00057555
-0.00272359
-0.000324631
-0.00233961
-0.0047632
0.00285948
0.00125065
0.000227916
0.000214229
-0.00235489
0.00209104
0.00412746
-0.000321581
-0.00154119
-0.00071012
0.005548
0.00230113
-0.00615251
-0.00487356
0.000245915
0.00261072
0.00106688
0.000427566
-0.00454857
-0.00240305
0.00171695
0.00507339
3.20701e-05
-0.00428188
0.00039526
0.0019025
-0.00202211
-0.000354979
-0.00122196
-0.00403587
0.000780391
0.00473802
0.00188336
-0.00107001
-0.000366963
-8.26701e-06
-0.00166409
-0.000632599
-0.00235686
-0.00394553
0.00216542
0.00138891
-6.9431e-05
0.000251623
-0.00154084
0.00187218
0.00347865
-0.00020728
-0.00147895
-0.000812174
0.00501734
0.00163611
-0.00529322
-0.00440247
-6.87528e-05
0.00177764
0.000274141
-9.06657e-05
-0.00417677
-0.00224234
0.00173248
0.00348253
2.0486e-05
-0.00340589
0.000450324
0.00185912
-0.00149552
-0.000562534
-0.00108943
-0.00313791
0.00117015
0.00436767
0.00143062
-0.00115706
-0.000397445
0.000204528
-0.000833059
-0.000384076
-0.00193608
-0.00340898
0.00164218
0.00157688
-6.80868e-05
0.000172373
-0.00104786
0.00162422
0.0031051
-4.78232e-05
-0.00120551
-0.00061813
0.00432441
0.00138222
-0.00420117
-0.00365976
-1.44921e-05
0.00128617
0.000102096
-0.000117907
-0.003526
-0.00162183
0.00168278
0.00290166
0.00030481
-0.00255165
0.000997244
0.00169998
-0.000746533
-0.000108396
-0.000676503
-0.00220169
0.0011915
0.0039281
0.00121362
-0.00102879
-5.51415e-05
0.00031463
-0.00046845
-7.76172e-05
-0.001518
-0.00251646
0.00105067
0.00182113
0.000136888
0.000177805
-0.000730942
0.00115145
0.00255595
0.000241927
-0.000602572
-0.000236321
0.00353233
0.00141156
-0.00296403
-0.00280461
0.000112934
0.0010507
0.000376877
9.73494e-05
-0.00261776
-0.00113559
0.00147585
0.00295704
0.000550974
-0.00179467
0.00139604
0.00153041
-0.000514781
0.000309478
-0.000335367
-0.00155138
0.00115613
0.0034614
0.00102847
-0.000654549
0.00026619
0.000485875
-0.000220229
6.35875e-05
-0.00108848
-0.00177221
0.000673214
0.00168706
0.000266485
0.00036289
-0.000423971
0.000763462
0.00205928
0.000388173
-9.16833e-05
7.93867e-05
0.00279006
0.00146755
-0.0020185
-0.00183446
0.000290031
0.000746093
0.000561255
0.000333397
-0.00172781
-0.000738154
0.00122973
0.0027935
0.000637849
-0.00127989
0.00145958
0.00143396
-0.000334064
0.000450993
-0.000117673
-0.00114387
0.00113694
0.00295371
0.000881644
-0.000167298
0.000466101
0.00061785
-5.8644e-05
3.82007e-05
-0.000691294
-0.0012231
0.000458891
0.001222
0.000286197
0.000565771
-0.000191429
0.000555873
0.00165356
0.000408326
0.000225893
0.000221909
0.00230063
0.00154421
-0.00142111
-0.00114155
0.00037414
0.000573034
0.00066079
0.000491644
-0.000966937
-0.0005047
0.000900195
0.00249853
0.000615047
-0.000966577
0.00130831
0.00136445
-0.000301496
0.000430666
3.11579e-05
-0.00089431
0.00107636
0.00243337
0.000779289
0.000172455
0.000550771
0.000663778
0.000113481
-1.82122e-05
-0.000395314
-0.000817928
0.000356164
0.00100603
0.000252062
0.000684019
-7.42596e-05
0.000428619
0.00135927
0.000352885
0.000403685
0.000279431
0.00199092
0.00132339
-0.00112287
-0.0006326
0.000427964
8.98711e-05
0.000636999
0.000509245
-0.000538585
-0.000423769
0.000684811
0.0021527
0.000582324
-0.000699794
0.00111161
0.00126783
-0.000255577
0.00040188
0.00014884
-0.000664882
0.000992314
0.00193315
0.000725503
0.00035006
0.00057191
0.000693058
0.000268047
-5.89399e-05
-0.00014376
-0.00049229
0.000275804
0.000824743
0.000168881
0.000725907
1.81567e-05
0.000333713
0.00112579
0.000289579
0.000554324
0.000251902
0.00171238
0.00134107
-0.000926672
-0.000241631
0.000457081
4.80624e-05
0.000576518
0.000502879
-0.000132882
-0.000245451
0.000502044
0.00178235
0.000571729
-0.000479856
0.00105785
0.00117266
-0.000185165
0.000388025
0.000221577
-0.000447728
0.000892412
0.00150591
0.000686355
0.000407292
0.000533862
0.000682024
0.000386023
-6.97559e-05
2.23952e-05
-0.000254462
0.000240245
0.000713519
7.56237e-05
0.000710213
0.000134166
0.000249173
0.000937711
0.000236159
0.000656467
0.000210823
0.00142995
0.00133408
-0.000793345
2.18256e-05
0.000493985
3.64865e-05
0.000554101
0.00046137
0.000157288
-1.64735e-05
0.000357505
0.00144845
0.000573743
-0.000292911
0.000952522
0.00107061
-0.000189206
0.000381919
0.000284664
-0.000218299
0.000832259
0.00116083
0.000622503
0.000497428
0.000481337
0.000647513
0.000416179
-6.98664e-05
0.000134567
-7.31509e-05
0.000204901
0.000652255
1.07249e-07
0.000643948
0.000258252
0.000207697
0.000793931
0.000192957
0.000717927
0.0001965
0.00115609
0.00131549
-0.000675875
0.000209787
0.000568571
2.19105e-06
0.000565705
0.000417041
0.000323286
0.000180016
0.000255692
0.00117044
0.000578368
-0.000158812
0.000844333
0.000967862
-0.00011986
0.000366121
0.000322011
-6.58374e-05
0.00080682
0.000916413
0.000554551
0.000605998
0.000416647
0.000593401
0.000450992
-6.12565e-05
0.000217847
6.73563e-05
0.000166523
0.000637953
-5.13113e-05
0.000533214
0.000389423
0.000134929
0.000685479
0.000181928
0.000716779
0.000252871
0.000882911
0.00128464
-0.000548207
0.000329033
0.000682168
-6.40143e-05
0.000590514
0.000405412
0.000325708
0.000307644
0.000204432
0.000961792
0.00056828
-7.79137e-05
0.000749332
0.000869781
-1.29312e-05
0.000380942
0.000378254
3.0714e-05
0.000791681
0.000771357
0.000480106
0.000675352
0.000359985
0.000507192
0.000545571
-5.74492e-05
0.000247828
0.000198259
0.000128862
0.000660268
-3.19055e-05
0.000398124
0.000518904
0.00011378
0.000593457
0.00023146
0.00065454
0.000334527
0.000627695
0.00123742
-0.000396193
0.000332731
0.000841284
-0.000119537
0.000580034
0.000451022
0.000232349
0.000406706
0.000196794
0.000802806
0.000570422
-4.16314e-05
0.000674315
0.000791639
7.14897e-05
0.000428198
0.000438261
8.80013e-05
0.000751367
0.000696161
0.000397297
0.000718105
0.000334803
0.000404474
0.000659004
-1.26235e-05
0.000228939
0.000326145
9.43151e-05
0.000650413
6.78204e-05
0.000238341
0.00061151
0.000120073
0.00052096
0.000329202
0.000564679
0.000425528
0.000440756
0.00116619
-0.000206023
0.00022677
0.000993199
-0.000117669
0.000502331
0.000555995
0.000140452
0.000468716
0.000222075
0.000672228
0.000587419
6.50792e-07
0.000606312
0.000751335
0.000115137
0.000455316
0.000501716
0.000119963
0.00067192
0.000624666
0.000312817
0.000731724
0.000356228
0.000278524
0.000726949
9.93213e-05
9.7613e-05
0.000434207
0.000100677
0.000574017
0.000221473
0.000134581
0.000635969
0.000179754
0.000414459
0.000437337
0.000490241
0.000451891
0.000324375
0.00106165
-2.50818e-07
7.19459e-05
0.00108732
-1.34795e-05
0.000285191
0.000683346
9.63285e-05
0.000451491
0.000311097
0.000562324
0.000557714
0.000107707
0.000537538
0.000742128
0.000142316
0.00043723
0.000575289
0.000144685
0.000551316
0.000598605
0.000242269
0.000692301
0.000442065
0.000146742
0.000734373
0.000284506
3.6852e-05
0.000480176
0.000180768
0.000445666
0.000370962
0.000118802
0.000561346
0.000265585
0.000305812
0.000501406
0.000464323
0.000439615
0.000258824
0.000923358
0.00023919
-7.10516e-05
0.00104944
0.000203075
9.41025e-05
0.000749591
0.000158091
0.000354943
0.00042883
0.000482049
0.000508584
0.000206549
0.000470238
0.000736168
0.000190614
0.000377691
0.000631682
0.00019148
0.00045598
0.000602653
0.000211303
0.000611001
0.000564815
8.88506e-05
0.000661417
0.000516473
2.63644e-05
0.00042816
0.000317076
0.000344004
0.000439691
0.000177508
0.000465849
0.000356704
0.000242571
0.000489366
0.000480196
0.000425976
0.00022423
0.000762666
0.000450394
-0.000126143
0.000874307
0.00047859
-2.17504e-05
0.000702828
0.000324868
0.000237739
0.000476171
0.000465531
0.000460029
0.000268861
0.000411996
0.000671928
0.000258249
0.000297263
0.000636033
0.000303442
0.000362695
0.000597398
0.000246978
0.000487192
0.000654652
0.00013338
0.000437812
0.000637467
0.000112497
0.000297708
0.000433813
0.00032089
0.000406025
0.000271237
0.000397949
0.000413198
0.000244066
0.00043237
0.000495882
0.000434284
0.000218831
0.000577832
0.000582303
-6.22649e-05
0.000624563
0.000664654
-6.0572e-06
0.00054862
0.000526825
0.000199245
0.000448254
0.000509043
0.000440069
0.00031482
0.000375449
0.000586271
0.000339116
0.000260481
0.000594089
0.000410739
0.000305706
0.000558565
0.00034286
0.000376079
0.000664479
0.000268418
0.000271286
0.000637288
0.000299057
0.000216558
0.000445152
0.000362832
0.000376957
0.000334189
0.000370852
0.000429544
0.000287247
0.000360239
0.000484531
0.000461839
0.000242467
0.000446228
0.00061968
0.000101155
0.0004011
0.000708753
0.000133206
0.000379355
0.000599695
0.00024446
0.00037832
0.000530899
0.000431435
0.000373571
0.000370872
0.00049389
0.000406084
0.000284935
0.000512232
0.000469915
0.000294539
0.000499602
0.000420913
0.000308364
0.000596717
0.000418756
0.00020608
0.000533473
0.000470097
0.000229562
0.00036789
0.000415713
0.000393273
0.000354809
0.000352339
0.000432214
0.000337417
0.000321225
0.000473311
0.000477358
0.000282746
0.000373718
0.000577629
0.000272053
0.000304965
0.000621965
0.000309378
0.000314505
0.000553657
0.000344065
0.000354312
0.000489273
0.000414692
0.000455732
0.000372624
0.000399258
0.000442717
0.000346748
0.000450516
0.000469548
0.00031738
0.000463494
0.000464194
0.000294699
0.000504497
0.000494995
0.000233419
0.000415329
0.000517593
0.000311202
0.000309396
0.000425342
0.00044932
0.000355554
0.000333966
0.000448347
0.000366098
0.000307043
0.000457152
0.000452394
0.000315067
0.000365962
0.000487883
0.000369904
0.000308664
0.000471208
0.000426242
0.00034641
0.000424189
0.000425542
0.00040406
0.000388106
-0.00444162
0.00435401
0.0176734
0.010623
-0.00396319
-0.00661327
-0.0053305
-0.00266853
-0.00163215
-0.00218453
0.00441323
0.00745074
0.00135393
-0.0013985
0.001654
0.00428741
-0.00189071
-0.00712094
-0.00135304
0.00226755
0.000456132
0.00565088
5.94527e-05
-0.00850369
-0.00432476
0.00180236
0.0021953
0.00403966
0.0071245
0.00416016
-0.00177488
-0.00292762
-0.000766094
-0.00193273
-0.00229358
0.00285136
0.00668157
-0.000510485
0.000284545
0.000653671
-0.0045241
0.00427153
0.0177061
0.0107107
-0.00395922
-0.00663424
-0.00535603
-0.00270005
-0.00164368
-0.00227802
0.00433986
0.0074567
0.00134654
-0.00142516
0.00164576
0.00432633
-0.00187748
-0.0072247
-0.00138259
0.0023036
0.00043964
0.00564035
9.38785e-05
-0.00851542
-0.00433525
0.00176847
0.0021506
0.00403315
0.00712691
0.0041774
-0.00176112
-0.00294835
-0.000757923
-0.00194544
-0.00231757
0.00279696
0.00669006
-0.00051404
0.000272098
0.000655181
-0.00464063
0.00408678
0.0177697
0.0107716
-0.00400705
-0.00667781
-0.00544038
-0.00275964
-0.00157628
-0.00236213
0.00420848
0.00743951
0.00132707
-0.00147852
0.00162623
0.00436415
-0.00185285
-0.00730646
-0.00141347
0.00237357
0.000386414
0.00563864
0.00011914
-0.0085612
-0.00426964
0.00170707
0.00198312
0.00402236
0.00712871
0.00419511
-0.00174325
-0.0029694
-0.000731238
-0.00195483
-0.00236503
0.00267689
0.00668898
-0.000512385
0.000292364
0.000669923
-0.00467278
0.0036936
0.0176891
0.0108381
-0.00410862
-0.00677611
-0.00555976
-0.00303481
-0.00149938
-0.00230248
0.0041893
0.00742076
0.00113514
-0.0016408
0.00157677
0.00437312
-0.0018018
-0.00734466
-0.00140565
0.00243124
0.000318254
0.00562919
0.000127034
-0.00863011
-0.00416486
0.0017485
0.00159711
0.0037148
0.00704058
0.00418181
-0.00171061
-0.00300507
-0.000678325
-0.00191539
-0.00225977
0.0024862
0.00650797
-0.000525514
0.000346251
0.000740641
-0.00441286
0.00328151
0.0172851
0.0107653
-0.00413572
-0.00684678
-0.00558326
-0.00344255
-0.00171551
-0.00236779
0.00426844
0.0075743
0.000926091
-0.0020977
0.001211
0.00432047
-0.0017171
-0.00734358
-0.00141083
0.00241331
0.000271613
0.00548905
0.000156204
-0.00859751
-0.004019
0.00188464
0.00125633
0.00313862
0.00663165
0.00393461
-0.00161708
-0.00300559
-0.000681042
-0.00195362
-0.00190143
0.00245358
0.00613644
-0.000719352
0.000263248
0.00103041
-0.00391261
0.00290467
0.0166814
0.0103635
-0.0041063
-0.00672377
-0.00536551
-0.00355558
-0.00203225
-0.00280498
0.00414734
0.00780647
0.000908697
-0.00244971
0.000397487
0.00389655
-0.00163132
-0.0073443
-0.00149934
0.00229153
0.000250353
0.005192
0.000216358
-0.00835643
-0.00389358
0.00205076
0.00114063
0.00264893
0.00604132
0.00342521
-0.0015245
-0.00296261
-0.000609611
-0.00207958
-0.0017671
0.00249647
0.00592937
-0.00094858
-0.000193565
0.000541458
-0.00347651
0.00255965
0.0158658
0.00954378
-0.00407648
-0.00643999
-0.00487482
-0.00319671
-0.00191888
-0.0033252
0.00373926
0.00794541
0.00092949
-0.00245288
-0.000400561
0.00307759
-0.00143797
-0.0071263
-0.00170253
0.00218308
0.000187793
0.00486761
0.000381131
-0.00792777
-0.00406423
0.00214183
0.00128113
0.00228054
0.00558427
0.00304437
-0.00143919
-0.00287253
-0.000525016
-0.00212319
-0.00185525
0.00237682
0.00590985
-0.000912743
-0.00088419
-0.000110917
-0.00334796
0.0019179
0.0148893
0.00839704
-0.00395166
-0.00592965
-0.00450627
-0.00263138
-0.00140013
-0.00346971
0.00301391
0.00808398
0.0009516
-0.00224852
-0.000945529
0.00232243
-0.00101437
-0.0063071
-0.00198364
0.00209845
0.000190293
0.00452529
0.000670793
-0.00722971
-0.00447827
0.00196056
0.00146864
0.00193091
0.00536398
0.00291536
-0.00117886
-0.00258935
-0.000404744
-0.00204691
-0.00201428
0.00195187
0.00584808
-0.00067973
-0.00140171
-0.000586332
-0.00389945
0.000793493
0.0132647
0.00730502
-0.00366742
-0.00497263
-0.00428198
-0.00244171
-0.000955343
-0.00299585
0.00217745
0.00796563
0.000947198
-0.0019683
-0.00112736
0.00175671
-0.000603971
-0.00499919
-0.00230438
0.00192696
0.000306048
0.00415844
0.000805698
-0.00613578
-0.00467349
0.0015447
0.00163905
0.00162304
0.00514263
0.00276094
-0.00141958
-0.00206429
-0.000141803
-0.00174413
-0.00187303
0.00124585
0.00553497
-0.000394602
-0.00156168
-0.000591785
-0.00418766
-4.70673e-05
0.0118766
0.00655754
-0.00333436
-0.00334848
-0.00388419
-0.00249037
-0.000745785
-0.00235106
0.00151492
0.00754529
0.000928544
-0.00172814
-0.00105281
0.00157522
-0.000245256
-0.00379625
-0.00218763
0.00171056
0.000556022
0.00383309
0.000763947
-0.00504337
-0.00443983
0.00131636
0.00190105
0.00136402
0.00485083
0.00266658
-0.00163749
-0.00154577
0.00019772
-0.00129195
-0.0012656
0.000886563
0.00506495
-5.70837e-05
-0.00142988
-0.000265054
-0.00362584
-0.000232061
0.0106304
0.00580514
-0.00288355
-0.00251142
-0.00312836
-0.00220636
-0.000466265
-0.00170892
0.00115794
0.00689361
0.000969931
-0.00131359
-0.000941628
0.00113296
9.30683e-05
-0.00288919
-0.00177739
0.00153718
0.000703279
0.00344112
0.000898006
-0.00398555
-0.00399872
0.00136468
0.00233689
0.00126616
0.00451307
0.00245561
-0.00184672
-0.00117978
0.000560196
-0.00093973
-0.00075515
0.000914467
0.00469632
0.000567723
-0.000984592
-0.000249847
-0.00269863
-6.90222e-05
0.0093257
0.00465551
-0.00256575
-0.00188916
-0.00230266
-0.00162282
-2.91487e-05
-0.00125577
0.00100996
0.00616022
0.00130321
-0.000792185
-0.0010023
0.000498386
0.00038585
-0.0023147
-0.00152088
0.000889506
0.000576996
0.00300087
0.00111856
-0.00278122
-0.0032411
0.00117167
0.00267712
0.00109408
0.00397389
0.00215351
-0.00199918
-0.000980351
0.000595696
-0.000671575
-0.000492987
0.00087265
0.00419225
0.00115581
-0.000542515
-0.000243988
-0.00198086
0.000225492
0.00805874
0.00345201
-0.00236548
-0.00150387
-0.00136362
-0.000984982
0.000364794
-0.00133417
0.000531394
0.00516472
0.00175283
-0.000304427
-0.0010729
0.000189499
0.000718968
-0.0018937
-0.00186561
5.2164e-05
0.000543834
0.00275495
0.001181
-0.00199733
-0.00255429
0.00103737
0.00294818
0.000715706
0.00316623
0.00189798
-0.00213713
-0.000543498
0.000447881
-0.000598573
-0.000542109
0.000491813
0.00349492
0.00143328
-0.000352277
-0.000385466
-0.00169576
0.000287263
0.00620514
0.00254593
-0.0020684
-0.0012667
-0.000852066
-0.000744679
0.000399938
-0.00150932
0.000358655
0.00392704
0.00197226
-0.000593005
-0.00118373
0.000314311
0.00110303
-0.00159761
-0.00209864
-0.000532182
0.000779759
0.00258551
0.00106982
-0.00196935
-0.00264233
0.000883823
0.00298828
0.000425398
0.0023138
0.00163747
-0.00194276
0.000122711
0.000457601
-0.000665575
-0.000469159
0.000259669
0.00283702
0.00138708
-0.000679963
-0.000577239
-0.00128886
0.000123318
0.00484406
0.00212138
-0.00165783
-0.00087404
-0.000369919
-0.000585716
0.000388192
-0.00163392
0.000336021
0.00317065
0.00193977
-0.00055006
-0.00121208
0.000494936
0.00123322
-0.00137315
-0.00195533
-0.000741999
0.000849882
0.00227852
0.000783375
-0.00165526
-0.00284658
0.000877067
0.00319008
0.000398536
0.00178185
0.00123435
-0.00147256
0.000887868
0.000550295
-0.000839376
-0.000241067
0.000513352
0.00243451
0.00120214
-0.000706569
-0.000260945
-0.00076797
6.91869e-05
0.00399965
0.00193973
-0.00137365
-0.000497744
8.66949e-05
-0.000417161
0.000362488
-0.00124226
0.000363882
0.00271049
0.00168826
-0.000402472
-0.00116363
0.000519212
0.00140792
-0.000958444
-0.00142353
-0.000728234
0.000630101
0.00205448
0.000594209
-0.00125041
-0.00273073
0.000778132
0.00354393
0.00052183
0.00151627
0.000983179
-0.000972242
0.00145891
0.000643986
-0.000914025
-3.18377e-05
0.000898646
0.00224112
0.00109839
-0.00050072
7.56403e-06
-0.000323759
0.00011033
0.00331294
0.00174646
-0.00125599
-0.00023602
0.000448809
-0.000279212
0.000373663
-0.000776137
0.000357338
0.00239515
0.00145633
-0.000205282
-0.000995232
0.000434497
0.00144432
-0.000576662
-0.000959873
-0.000685112
0.000538123
0.00185882
0.00049467
-0.000816752
-0.00216893
0.000635378
0.00345285
0.000568817
0.0013458
0.000740363
-0.000687387
0.00171976
0.00069391
-0.000904995
5.12502e-05
0.00108326
0.00216934
0.000990206
-0.000345046
0.00010807
1.34043e-05
0.00012083
0.00272511
0.00152099
-0.00104283
-3.87985e-05
0.00063785
-0.000174684
0.000400719
-0.000678359
0.000340978
0.002291
0.00125624
-3.63128e-05
-0.000776716
0.000320318
0.00137385
-0.000281756
-0.000610153
-0.000567525
0.000387453
0.00165175
0.000386838
-0.000441252
-0.00166177
0.000487782
0.00307423
0.000533714
0.00118653
0.000539972
-0.00051493
0.00166087
0.000648659
-0.000833704
5.73575e-05
0.00109377
0.00191081
0.000864953
-0.000233928
0.000290924
0.00022944
0.00015684
0.00228471
0.00131168
-0.000886777
9.41732e-05
0.000703236
-5.43056e-05
0.000447078
-0.000468112
0.000345311
0.00197653
0.00104637
0.000109861
-0.000538472
0.000235992
0.00127465
-8.21595e-05
-0.000341812
-0.000397144
0.000256775
0.00150093
0.000308773
-0.00016834
-0.00114167
0.000359381
0.00276921
0.00047633
0.00105078
0.000591767
-0.000423638
0.00151727
0.000607823
-0.000703057
6.98427e-05
0.0010223
0.00165504
0.000784508
-0.000105826
0.000415389
0.000387686
0.000171303
0.0018776
0.0011427
-0.000744803
0.000212408
0.000696984
9.14945e-05
0.000500191
-0.000229556
0.000358156
0.00158297
0.000863085
0.000215022
-0.00030683
0.000165913
0.00113654
1.74823e-06
-0.000165219
-0.000190981
0.000140473
0.00135921
0.000253425
-1.66496e-05
-0.000656058
0.000263089
0.00235735
0.000399901
0.000927592
0.000665174
-0.000394376
0.0013262
0.000595656
-0.000525885
0.000195507
0.000929782
0.00132234
0.000660123
1.447e-05
0.000519078
0.000481453
0.000178017
0.00155788
0.00102702
-0.000591873
0.000308445
0.000674684
0.000214798
0.000538755
-1.93356e-05
0.000410528
0.00127064
0.000714754
0.000301186
-0.000100463
0.000119992
0.00100241
6.02255e-05
-4.8301e-05
2.8685e-05
4.10492e-05
0.00122022
0.000231828
3.44192e-05
-0.000220566
0.000195816
0.00199726
0.000347276
0.000803739
0.000774599
-0.000403473
0.00110225
0.000616256
-0.000374268
0.000327856
0.000841428
0.00105746
0.000541049
0.000134144
0.000596372
0.000524375
0.000190672
0.00126458
0.000942619
-0.00038327
0.000387277
0.000640075
0.000245848
0.000563049
0.000155335
0.000442777
0.00103892
0.000583971
0.000367239
8.20833e-05
9.73514e-05
0.000858561
9.37647e-05
1.4597e-05
0.00026674
-2.39371e-05
0.00106222
0.000273105
-1.62274e-05
0.00013904
0.000161078
0.00166872
0.000332872
0.000662759
0.000910839
-0.000402602
0.000920973
0.000669024
-0.000271573
0.000418077
0.000772023
0.000883822
0.000458896
0.000211331
0.000645569
0.00052952
0.000218399
0.00102551
0.000859317
-0.000182412
0.000445564
0.000604135
0.000247403
0.000560863
0.000269377
0.000455985
0.000874605
0.000469636
0.000397441
0.000239737
9.2188e-05
0.000732486
0.000148931
2.43235e-05
0.000509208
-3.83981e-05
0.000870369
0.000373338
-0.000169001
0.000375511
0.000174114
0.00135757
0.000370851
0.000515931
0.00103082
-0.000385323
0.00074502
0.000756994
-0.000215396
0.000478059
0.000724292
0.000779
0.000439879
0.000249386
0.000665286
0.000528251
0.000248767
0.000858904
0.000762374
-2.12488e-05
0.000495506
0.000570319
0.000237952
0.000570399
0.000339827
0.000453883
0.000810173
0.000374447
0.000381449
0.000385456
9.70737e-05
0.000617524
0.000239931
-2.24956e-06
0.000634314
2.04476e-05
0.000644131
0.000502229
-0.000177773
0.000474486
0.000249074
0.00106216
0.000433112
0.000350676
0.0010913
-0.000300289
0.000563927
0.000869965
-0.000189833
0.000493412
0.000716174
0.000691699
0.000446252
0.000267048
0.000657719
0.000537764
0.000264046
0.000744579
0.000666926
6.45084e-05
0.000536225
0.000561891
0.000217763
0.000573677
0.000362985
0.000424885
0.000795126
0.000319871
0.000326624
0.000514083
0.000119214
0.000501597
0.000358477
-2.89044e-05
0.000649802
0.000147614
0.000419467
0.000609586
-0.000130114
0.000456245
0.000371966
0.000805829
0.000489401
0.000255682
0.00107873
-0.000160456
0.000360621
0.000975472
-0.000150734
0.000430519
0.000760624
0.000594277
0.00045846
0.000284431
0.000616339
0.00055149
0.000267321
0.000657127
0.000611093
9.29553e-05
0.000545446
0.000588917
0.000194019
0.000572575
0.00042154
0.000378094
0.000813859
0.000330909
0.000228023
0.000632113
0.000183741
0.000351492
0.000480727
-5.35032e-06
0.000563698
0.000321758
0.000260298
0.000641079
-7.56199e-06
0.000367386
0.000496694
0.000625928
0.000504443
0.000211532
0.00100026
4.38478e-05
0.000134118
0.00103521
-2.73075e-05
0.000283438
0.000818812
0.000485581
0.000432629
0.00033732
0.000555996
0.00053937
0.000252994
0.000569573
0.000601199
9.68656e-05
0.000511495
0.000650854
0.000193185
0.000546195
0.000483238
0.000304258
0.000807253
0.000424039
0.000110988
0.000653511
0.000316398
0.000209664
0.00053682
0.000101962
0.000406235
0.000469416
0.000206128
0.000592596
0.000156417
0.000271204
0.000564062
0.000545911
0.000485105
0.000209868
0.000875034
0.000268749
-9.32761e-06
0.000998944
0.000190503
0.000107541
0.000834124
0.00047373
0.000356593
0.000415468
0.000513497
0.000499189
0.000253005
0.000490985
0.000641305
0.00014485
0.000435932
0.000705644
0.000227045
0.000468404
0.000546032
0.000259437
0.000727376
0.000559005
4.92884e-05
0.000569514
0.000519354
0.000128528
0.000489918
0.000271681
0.000286783
0.000506132
0.000255963
0.000477897
0.000290615
0.000233615
0.000550898
0.000532729
0.000460927
0.000229297
0.000722049
0.000465326
-4.3019e-05
0.000851939
0.00045952
-2.50087e-09
0.000753911
0.000542961
0.000247236
0.00044864
0.000510419
0.000458999
0.000276177
0.000436747
0.000648148
0.000229086
0.00030765
0.000698014
0.000322324
0.000347776
0.000566727
0.00026969
0.000568804
0.000657933
9.30514e-05
0.000389462
0.00063629
0.000162097
0.000346641
0.000424226
0.000262558
0.000442118
0.000344232
0.000407395
0.000369628
0.000254499
0.000474076
0.000537538
0.000452119
0.000252232
0.000568259
0.000585332
2.10138e-05
0.000619256
0.000637343
1.52614e-05
0.000585284
0.00066159
0.000216881
0.000424453
0.000542349
0.000442547
0.000318199
0.000403496
0.000594787
0.000327816
0.000259258
0.00062648
0.000426379
0.000302262
0.000546201
0.000347973
0.000417682
0.000674947
0.000244128
0.00025706
0.000640386
0.000304544
0.000251996
0.000456227
0.00032682
0.000379433
0.000382092
0.000383288
0.000397631
0.000291339
0.000408396
0.000533388
0.00046067
0.000279457
0.000450665
0.000613651
0.000145388
0.000413007
0.000685378
0.00014467
0.000402884
0.000665606
0.00026942
0.000367329
0.000545374
0.000431943
0.000384837
0.000378276
0.00049349
0.000403298
0.000276708
0.000517949
0.000486755
0.000301331