/*--------------------------------*- C++ -*----------------------------------*\
  =========                 |
  \\      /  F ield         | OpenFOAM: The Open Source CFD Toolbox
   \\    /   O peration     | Website:  https://openfoam.org
    \\  /    A nd           | Version:  10
     \\/     M anipulation  |
\*---------------------------------------------------------------------------*/
FoamFile
{
    format      ascii;
    class       surfaceScalarField;
    location    "4";
    object      phi;
}
// * * * * * * * * * * * * * * * * * * * * * * * * * * * * * * * * * * * * * //

dimensions      [0 3 -1 0 0 0 0];

internalField   nonuniform List<scalar> 
74080
(
1.87619e-05
7.62526e-06
-6.4686e-06
1.88969e-05
1.00384e-05
-1.39489e-05
2.03042e-05
6.35363e-07
-6.23085e-06
1.96469e-05
-2.80576e-07
-1.08416e-07
1.86394e-05
-1.81208e-06
5.85921e-06
1.9889e-05
2.69683e-07
-3.19809e-07
1.92983e-05
6.13966e-06
-5.69868e-06
1.78313e-05
8.78272e-06
-5.80202e-06
1.8167e-05
-2.33229e-06
3.34261e-06
1.82098e-05
-5.88179e-06
3.11743e-06
1.7081e-05
4.85644e-06
-6.26943e-06
1.7621e-05
9.86416e-06
-9.19136e-06
1.8736e-05
8.7266e-06
-9.59549e-06
1.91606e-05
6.44067e-06
-6.62251e-06
2.10659e-05
2.42986e-06
-4.43389e-06
2.20896e-05
-9.94367e-07
2.09179e-06
1.97296e-05
2.97129e-06
5.32746e-06
1.85609e-05
-3.54097e-06
2.28105e-06
1.96388e-05
-6.87917e-06
-6.63071e-07
2.07958e-05
3.44657e-06
-3.45288e-06
2.32784e-05
-8.43533e-07
-1.28429e-06
2.46447e-05
2.03826e-07
-4.42222e-06
2.14372e-05
1.97213e-06
5.78845e-06
1.89646e-05
-7.31217e-06
1.33674e-05
1.8262e-05
7.87569e-07
-7.871e-07
1.71588e-05
5.81858e-06
-5.93973e-06
1.7328e-05
8.8882e-06
-1.08507e-05
1.74855e-05
3.40275e-06
-7.05008e-06
1.86377e-05
-7.11189e-07
-3.15782e-06
1.8749e-05
5.94033e-06
-3.24125e-06
1.76368e-05
7.95395e-06
6.75127e-07
1.89358e-05
1.38698e-06
-1.62271e-06
1.86433e-05
-5.12399e-06
1.2408e-06
1.80647e-05
-5.53269e-07
-2.38687e-07
1.92236e-05
3.54181e-07
-1.84638e-06
1.95263e-05
5.6496e-06
-9.72784e-06
1.79554e-05
5.03064e-06
-5.91614e-06
1.6529e-05
2.22827e-07
1.32301e-06
1.73777e-05
1.17208e-06
-6.74142e-07
4.55927e-07
1.90096e-06
6.03624e-05
2.71241e-05
-1.81027e-05
6.57941e-05
2.82862e-05
-3.73128e-05
6.8281e-05
-5.79066e-07
-1.45792e-05
6.4496e-05
7.69484e-07
8.40083e-08
6.23687e-05
-5.48141e-06
1.69326e-05
6.43677e-05
3.54231e-06
-8.52321e-07
6.43333e-05
2.24467e-05
-1.9253e-05
6.3617e-05
3.02148e-05
-2.00842e-05
6.23902e-05
-2.55255e-07
2.78696e-06
5.78565e-05
-9.75737e-06
6.66895e-06
5.53227e-05
1.66147e-05
-1.34103e-05
5.79033e-05
3.07778e-05
-2.40222e-05
6.0603e-05
3.11032e-05
-2.94354e-05
6.24414e-05
2.22607e-05
-2.07383e-05
7.02295e-05
7.25334e-06
-1.13628e-05
7.40119e-05
-4.12508e-06
6.64479e-06
6.84276e-05
6.0407e-06
1.63177e-05
6.51611e-05
-1.07145e-05
4.9748e-06
6.22706e-05
-1.3876e-05
-3.80931e-06
6.60723e-05
1.12931e-05
-8.683e-06
7.47933e-05
-2.50853e-06
-2.54507e-06
8.11726e-05
-6.67631e-07
-1.24475e-05
7.75099e-05
-2.27023e-06
1.32649e-05
6.54408e-05
-1.8233e-05
3.19535e-05
5.84006e-05
9.74349e-06
-1.23389e-06
5.77357e-05
1.70725e-05
-1.35201e-05
6.06484e-05
2.7734e-05
-2.90288e-05
5.93748e-05
1.35974e-05
-2.12675e-05
5.76479e-05
3.79242e-06
-1.03422e-05
5.80715e-05
2.16076e-05
-8.96859e-06
6.06401e-05
2.03091e-05
3.51318e-06
6.69754e-05
1.22199e-06
-4.68428e-06
6.24086e-05
-1.29124e-05
1.65477e-06
5.81804e-05
3.02933e-06
-1.06694e-06
6.20888e-05
3.1241e-06
-5.27203e-06
6.44833e-05
1.93483e-05
-2.60843e-05
6.20975e-05
1.60152e-05
-1.81821e-05
5.69171e-05
5.24628e-06
1.49661e-06
5.76099e-05
8.8856e-06
-1.42659e-06
4.8033e-06
8.7106e-06
0.00010773
4.94003e-05
-8.08938e-06
0.000121875
5.23226e-05
-5.72206e-05
0.000126781
5.706e-07
-3.25575e-05
0.000120171
4.54289e-06
-1.0223e-05
0.00011384
-9.38792e-06
2.64602e-05
0.000113884
4.80622e-06
1.36905e-05
0.000117685
3.92483e-05
-2.43637e-05
0.000120958
6.36536e-05
-4.19053e-05
0.000117404
2.06058e-05
-1.34804e-05
0.000105047
-1.59123e-06
7.1796e-06
9.95209e-05
2.81523e-05
-7.92461e-06
0.000105629
5.09678e-05
-2.6137e-05
0.000111137
6.14323e-05
-4.7021e-05
0.000111463
5.11014e-05
-4.46488e-05
0.000124342
1.97797e-05
-2.9891e-05
0.000135806
-8.18955e-06
1.17002e-06
0.000130354
7.40662e-06
2.73573e-05
0.000123563
-1.78355e-05
1.5361e-05
0.000111588
-1.66909e-05
-3.23297e-06
0.000113377
2.43841e-05
-1.52102e-05
0.000126526
2.5544e-06
-4.55081e-06
0.000142194
3.11749e-06
-2.47029e-05
0.000148453
-1.42703e-05
3.97767e-06
0.000126803
-3.26407e-05
4.65786e-05
0.000106685
2.37136e-05
9.89434e-06
0.000105335
3.0208e-05
-1.17988e-05
0.000113128
5.05434e-05
-3.93495e-05
0.000111088
3.12285e-05
-3.81e-05
0.000102688
1.40454e-05
-2.13981e-05
0.000101355
4.55389e-05
-2.09743e-05
0.000108659
3.764e-05
4.45256e-06
0.000124327
3.34047e-06
-7.62262e-06
0.000117369
-2.02868e-05
-2.57229e-06
0.00010463
1.14428e-05
-2.52639e-06
0.000109566
9.50984e-06
-3.65851e-06
0.00011736
3.72716e-05
-3.52834e-05
0.00011731
3.45621e-05
-3.95711e-05
0.000107086
1.94025e-05
-8.64204e-06
0.000105542
2.83729e-05
-7.33835e-06
1.30444e-05
2.13514e-05
0.000156322
6.62776e-05
3.11949e-05
0.000180453
6.84406e-05
-4.64907e-05
0.000191645
4.65378e-06
-4.80211e-05
0.000185703
5.54105e-06
-2.96036e-05
0.000172713
-7.85962e-06
1.69408e-05
0.000164418
5.54268e-06
3.81597e-05
0.000172319
4.60815e-05
-6.98408e-06
0.000185339
8.50231e-05
-4.86841e-05
0.000183987
5.6316e-05
-4.30498e-05
0.000162329
3.68802e-05
-1.0742e-05
0.000147652
4.97084e-05
-4.57364e-07
0.000156989
5.80033e-05
-4.66863e-06
0.000172232
7.74865e-05
-3.99024e-05
0.000171044
8.50793e-05
-6.65114e-05
0.000178222
4.94476e-05
-6.07365e-05
0.000196697
-2.88515e-06
-2.59545e-05
0.000198687
9.23288e-06
2.28473e-05
0.000190788
-2.08943e-05
2.4856e-05
0.00016929
-1.05946e-05
7.48567e-06
0.000161711
4.1169e-05
-1.95507e-05
0.000173326
2.00508e-05
-1.16869e-05
0.000193566
2.48048e-05
-3.38945e-05
0.000215761
-1.94251e-05
-2.53724e-05
0.000197003
-4.3335e-05
3.6394e-05
0.000164064
3.81594e-05
2.66105e-05
0.000155733
4.42655e-05
2.1811e-06
0.000167264
7.02552e-05
-3.2194e-05
0.000171042
5.21903e-05
-4.88472e-05
0.000156187
2.66023e-05
-2.97332e-05
0.000147349
7.47125e-05
-3.72858e-05
0.000153311
6.59178e-05
-7.29671e-06
0.000181225
1.32336e-05
-1.25678e-05
0.000182148
-2.48789e-05
-1.39322e-05
0.000159161
2.30438e-05
-9.97184e-06
0.000157673
2.80224e-05
-4.10535e-06
0.000172491
5.60127e-05
-2.58172e-05
0.000181808
5.25414e-05
-5.47226e-05
0.000167811
4.11061e-05
-2.95602e-05
0.000162354
6.41518e-05
-2.79215e-05
3.80316e-05
1.8011e-05
0.000205854
9.76222e-05
4.72031e-05
0.000230895
6.95576e-05
3.02075e-06
0.000254407
2.05736e-06
-3.50462e-05
0.000253005
-4.48931e-06
-3.49112e-05
0.000235452
-2.56773e-06
-1.33034e-05
0.000216417
1.49481e-05
4.12643e-05
0.00021972
5.54759e-05
1.82088e-05
0.000245564
7.38086e-05
-2.0578e-05
0.000257056
6.22398e-05
-5.12261e-05
0.000232412
8.69749e-05
-3.61229e-05
0.00020535
9.51671e-05
-7.95731e-06
0.000204979
7.1935e-05
1.30678e-05
0.000230995
6.75567e-05
-1.19695e-06
0.000245622
8.89709e-05
-5.27231e-05
0.000240235
8.36303e-05
-7.86623e-05
0.000245928
2.72568e-05
-6.00255e-05
0.000257177
2.40241e-05
-8.7852e-06
0.000257732
-1.15288e-05
3.999e-06
0.000233167
1.25782e-05
1.33989e-05
0.000214268
6.13977e-05
-1.10843e-05
0.000220038
4.17003e-05
-2.45587e-05
0.000238544
6.4262e-05
-3.07177e-05
0.00026698
-4.88418e-06
-5.33676e-05
0.000258224
-2.48616e-05
-1.26004e-05
0.000226137
5.90691e-05
2.42341e-05
0.000209863
6.05961e-05
1.56721e-05
0.000217035
8.23791e-05
-2.30188e-06
0.000228834
7.3248e-05
-4.26607e-05
0.000216062
3.9615e-05
-2.74429e-05
0.000199064
9.74422e-05
-3.96595e-05
0.00019353
0.00010161
-3.26277e-05
0.000226869
3.14281e-05
-2.26162e-05
0.000247059
-1.95366e-05
-3.28519e-05
0.000224912
2.96612e-05
-2.25907e-05
0.000206876
6.48111e-05
-2.01363e-05
0.000219328
9.37651e-05
-1.02692e-05
0.000246164
5.5799e-05
-3.96568e-05
0.000238751
4.67209e-05
-3.44146e-05
0.000227587
9.85085e-05
-4.7827e-05
8.89004e-05
-1.87318e-05
0.00026048
0.000159676
1.35818e-05
0.000277216
7.98485e-05
2.33525e-05
0.000309876
-1.24094e-05
-9.71187e-07
0.000316238
-2.57338e-05
-1.40143e-05
0.000297119
-8.63432e-06
-2.92633e-05
0.000271395
2.87556e-05
2.32626e-05
0.000261367
8.10851e-05
2.68388e-05
0.000292015
5.55083e-05
9.81416e-06
0.00032187
1.99579e-05
-2.31701e-05
0.000304157
9.78564e-05
-3.98188e-05
0.000274336
0.000131376
-1.24627e-05
0.000258699
9.77783e-05
1.73968e-05
0.00027658
6.55169e-05
2.84288e-05
0.000312873
5.73987e-05
-9.00076e-06
0.000315044
8.11121e-05
-5.5661e-05
0.000296078
6.96228e-05
-7.20868e-05
0.000301863
6.3701e-05
-3.92636e-05
0.000317543
-3.78301e-06
-2.6657e-05
0.000297821
4.93016e-05
-5.09796e-06
0.000273618
8.56737e-05
2.04556e-06
0.000269188
5.13344e-05
-2.89864e-05
0.00028251
0.000100142
-1.58933e-05
0.000320142
7.39731e-06
-4.97753e-05
0.000319019
1.73647e-06
-4.92562e-05
0.000288934
0.000103202
-4.3564e-06
0.00026839
8.8023e-05
1.53877e-05
0.000267198
8.54759e-05
2.72974e-05
0.000282107
8.32726e-05
-1.61907e-05
0.000273769
5.89004e-05
-1.48405e-05
0.000256741
0.000112155
-2.51818e-05
0.000243192
0.000130079
-4.23745e-05
0.000268899
3.75672e-05
-2.32105e-05
0.000301319
-4.29097e-06
-4.19896e-05
0.000292822
3.54259e-05
-3.06342e-05
0.000266555
8.53215e-05
-3.58352e-05
0.000260409
0.000155163
-1.10586e-05
0.000291045
7.18493e-05
-1.23807e-05
0.000302078
2.03606e-05
-9.39453e-06
0.000296279
8.93124e-05
-2.78779e-05
0.000131296
-4.37967e-05
0.000324028
0.000223377
-1.48337e-05
0.000337298
0.000100154
8.39445e-06
0.000369934
-2.6869e-05
1.2184e-05
0.000381759
-5.00338e-05
1.2168e-05
0.000362983
-2.46999e-05
-2.5086e-05
0.000334354
3.27791e-05
6.93157e-06
0.000310633
0.000110582
2.75656e-05
0.000330307
5.11316e-05
2.90965e-05
0.000373297
-4.5177e-05
1.39952e-05
0.00036947
6.08347e-05
-2.77384e-05
0.000341962
0.000141268
-1.51718e-05
0.000318846
0.000109336
2.46944e-05
0.000319545
7.4761e-05
4.57227e-05
0.000358511
3.45169e-05
2.07002e-05
0.000381263
3.95731e-05
-1.07104e-05
0.000358322
8.24018e-05
-5.63292e-05
0.000352929
0.000112496
-4.44992e-05
0.000377789
-1.08587e-05
-2.45149e-05
0.000365681
5.84653e-05
-1.11713e-05
0.00034324
0.000104912
8.3463e-06
0.000329261
4.11542e-05
-2.02542e-05
0.000323212
0.000116764
-3.69688e-06
0.0003655
1.07957e-05
-1.88536e-05
0.000377772
3.81624e-06
-3.41227e-05
0.000349574
0.000144371
-1.11415e-05
0.000326608
0.00011972
9.03603e-06
0.000318147
8.269e-05
3.7774e-05
0.000335914
7.4935e-05
6.29662e-06
0.000330427
7.01955e-05
5.4692e-06
0.000314072
0.000124276
-2.59456e-06
0.000300169
0.000150673
-3.12245e-05
0.000316912
1.9878e-05
-8.17263e-06
0.000350851
-8.7724e-06
-2.22082e-05
0.000351224
5.58378e-05
-2.37051e-05
0.000326221
9.01478e-05
-3.62949e-05
0.000306813
0.000199881
-1.36464e-05
0.000326263
0.000108064
3.91432e-06
0.000343154
-9.48731e-06
1.1566e-05
0.00035315
3.70794e-05
4.54238e-06
0.000125706
-3.16266e-05
0.000391343
0.000267246
-2.03432e-05
0.000416423
0.000122602
-2.13056e-05
0.000450306
-5.46086e-05
1.80712e-06
0.000460228
-7.21933e-05
2.38365e-05
0.000439748
-4.13527e-05
-3.57521e-06
0.000410221
2.91442e-05
6.58555e-08
0.000381932
0.000136955
1.24237e-05
0.000386141
6.23656e-05
2.38041e-05
0.000426546
-0.000108918
4.53175e-05
0.000430748
8.81525e-06
-1.25342e-05
0.000402972
0.00014464
-2.728e-05
0.000378955
0.000100735
2.60775e-05
0.000367171
7.13109e-05
6.11923e-05
0.00038868
3.91805e-05
3.48162e-05
0.000415548
7.04509e-06
1.5912e-05
0.00040311
5.95406e-05
-3.24299e-05
0.000398596
0.00013943
-2.75858e-05
0.000431501
-3.25926e-05
1.41112e-06
0.000430156
2.75272e-05
-5.69343e-06
0.000417925
0.000107984
1.96311e-05
0.000405265
1.87182e-05
2.57103e-06
0.000376603
0.000119084
-4.88268e-06
0.000405338
4.5272e-06
9.35047e-06
0.000425408
-1.29064e-05
4.17092e-07
0.000405056
0.000170924
-3.07212e-06
0.000386743
0.000145492
7.01722e-06
0.000372252
6.89717e-05
3.83658e-05
0.000392641
4.85179e-05
1.62611e-05
0.000390058
6.31026e-05
1.76469e-05
0.000371002
0.000133727
1.1808e-05
0.000366447
0.000153657
5.72592e-07
0.000376526
-1.01512e-05
1.99691e-05
0.000402354
-3.8512e-05
5.56791e-06
0.000408146
7.07977e-05
-2.72842e-07
0.000386956
9.89442e-05
-2.24708e-05
0.0003649
0.000218106
-1.97463e-05
0.000375588
0.000140425
7.38282e-06
0.00038205
-2.36723e-05
2.14546e-05
0.000396009
-2.82188e-05
2.68628e-05
7.94703e-05
-9.27002e-06
0.000422419
0.000286324
-1.08145e-05
0.000473556
0.000137982
-4.71788e-05
0.000531982
-9.47171e-05
-3.08255e-05
0.000553879
-0.000111802
5.64134e-06
0.000532191
-6.77892e-05
1.43709e-05
0.000489703
1.65553e-05
2.64607e-05
0.000455817
0.000154663
1.33611e-05
0.000462587
6.94902e-05
-1.07763e-06
0.000495412
-0.000156849
4.51391e-05
0.000492094
-1.53686e-05
4.46612e-06
0.000475495
0.000148131
-3.77392e-05
0.000459656
8.24215e-05
1.78085e-05
0.000426913
6.16685e-05
6.29293e-05
0.000425218
6.16313e-05
3.5559e-05
0.000444782
1.19753e-05
2.53369e-05
0.000435867
4.73047e-05
-1.4646e-05
0.000445068
0.000129251
-1.02227e-05
0.00048635
-8.30796e-05
4.16147e-05
0.000492138
-1.36635e-05
7.95534e-06
0.000497321
0.000105928
2.09378e-05
0.000494414
9.82662e-07
2.93852e-05
0.000444734
0.000128766
1.43038e-07
0.000452599
6.71578e-06
1.92605e-05
0.000466746
-3.04284e-05
3.7234e-05
0.000451024
0.000196521
1.28482e-05
0.000454438
0.000168652
6.71226e-06
0.000442577
4.70089e-05
3.85701e-05
0.000467667
3.25796e-06
2.25536e-05
0.000464237
4.2297e-05
2.49677e-05
0.000428279
0.000151803
1.82716e-05
0.000444063
0.000146537
1.23253e-05
0.00046069
-4.69349e-05
4.11111e-05
0.000464419
-8.00306e-05
3.34167e-05
0.000464505
6.88278e-05
2.72655e-05
0.000442977
0.000117016
3.19639e-06
0.000424727
0.000220033
-2.36783e-05
0.0004457
0.000137611
-4.02219e-07
0.000446415
-2.56842e-05
1.92203e-05
0.000443052
-6.97842e-05
3.4572e-05
2.53534e-05
2.3624e-05
0.000460627
0.000283146
2.08974e-05
0.000536138
0.000119377
-1.25668e-05
0.000597586
-0.000125143
-1.64194e-05
0.000633021
-0.000158195
-7.92926e-06
0.000643949
-0.000122016
4.53727e-06
0.000590232
2.88631e-06
4.69051e-05
0.000521538
0.000183685
4.37546e-05
0.000525891
5.99574e-05
1.7564e-06
0.000565822
-0.000201373
2.18746e-05
0.000557684
-1.55393e-05
1.73152e-05
0.000561925
0.000146756
-2.82476e-05
0.000558253
6.47392e-05
1.26688e-05
0.000490789
6.66424e-05
5.82473e-05
0.000478702
4.62765e-05
3.26783e-05
0.000528564
-3.11346e-05
3.38955e-05
0.000536071
3.30242e-05
1.988e-05
0.000546848
0.000105729
1.4661e-05
0.000578951
-0.000138293
6.75472e-05
0.000575949
-6.94651e-05
3.76505e-05
0.000600362
5.70891e-05
1.18536e-05
0.000607475
-1.32555e-05
3.35805e-05
0.000531634
0.000168146
1.51252e-05
0.000520164
2.33797e-05
1.33988e-05
0.00051916
-3.54202e-05
3.37526e-05
0.000508408
0.000195378
2.52095e-05
0.000544177
0.000156764
2.26663e-05
0.000533049
3.16345e-05
4.53857e-05
0.000555612
-5.55451e-05
2.98525e-05
0.000567614
-1.41093e-05
2.31579e-05
0.000525899
0.000153714
3.13507e-05
0.000546436
0.000131743
3.00891e-05
0.000573273
-8.37791e-05
5.17876e-05
0.000546247
-0.000110583
4.53613e-05
0.000525697
6.09307e-05
3.41052e-05
0.000508798
0.000122516
3.51773e-05
0.000502311
0.000202258
2.98677e-06
0.000537809
0.000103072
2.62132e-06
0.000538598
-2.16689e-05
1.87373e-05
0.00052884
-8.85643e-05
3.2485e-05
1.19877e-06
4.5932e-05
0.000594137
0.000236987
4.55989e-05
0.000687949
4.93059e-05
3.73696e-05
0.000708183
-0.000123366
2.54583e-05
0.00068705
-0.000150701
8.13899e-06
0.00072056
-0.000183435
-1.64683e-05
0.000717065
-3.39401e-05
3.20589e-05
0.000649956
0.000211886
7.48423e-05
0.000620451
5.62145e-05
4.29061e-05
0.000634188
-0.000241822
1.67707e-05
0.000636567
-4.18127e-05
1.16269e-05
0.000679225
0.000100225
-1.34089e-05
0.000684986
5.00449e-05
1.8509e-05
0.000582164
0.000112061
6.08101e-05
0.000526288
3.29591e-05
4.03651e-05
0.000593249
-0.000144739
1.26236e-05
0.000682772
-9.01393e-05
3.49307e-05
0.000721548
4.96008e-05
6.24163e-05
0.000704908
-0.00014427
7.48538e-05
0.00065143
-0.000101499
4.68093e-05
0.000684494
-5.55689e-05
6.42371e-06
0.000732018
-7.92473e-05
1.61647e-05
0.000668192
0.000207416
2.32219e-05
0.000623505
4.88467e-05
3.20395e-05
0.000580343
-3.60637e-05
2.27707e-05
0.000593793
0.000130372
1.11107e-05
0.000684973
5.97488e-05
4.25694e-05
0.000689974
5.80548e-06
7.06876e-05
0.000659035
-8.16186e-05
6.60848e-05
0.000637257
-5.73501e-05
1.56381e-05
0.000648166
9.34579e-05
1.04787e-05
0.000707994
6.4964e-05
4.34443e-05
0.000721951
-0.000108721
8.3884e-05
0.000651295
-0.00010253
6.94371e-05
0.000604028
3.69082e-05
3.44237e-05
0.000608411
7.67064e-05
4.60023e-05
0.000634436
0.000144657
4.03032e-05
0.000682228
5.63614e-05
3.54489e-05
0.00066998
-1.08645e-05
4.02129e-05
0.000640272
-0.000101737
3.4018e-05
-2.65773e-05
3.86206e-05
0.000744987
0.000122234
6.89857e-05
0.000839618
-3.89751e-05
6.7171e-05
0.000835082
-0.000103225
3.52364e-05
0.000754288
-9.47879e-05
6.16748e-06
0.000736251
-0.000188525
-4.09589e-05
0.000772525
-7.61385e-05
-4.97111e-06
0.000799823
0.000159663
8.57947e-05
0.000780498
2.88728e-05
9.13894e-05
0.000723427
-0.000237321
3.0039e-05
0.00071108
-9.31368e-05
8.30883e-06
0.000789735
-4.03821e-06
-2.01638e-06
0.000832183
3.58682e-06
3.5034e-05
0.000764678
0.000126127
8.45415e-05
0.000683846
4.24213e-05
4.87211e-05
0.000683828
-0.000206165
-2.12072e-05
0.000782743
-0.000223093
-7.02209e-06
0.000862765
-1.92382e-05
6.77912e-05
0.000808758
-9.97546e-05
7.40521e-05
0.0007034
-8.45794e-05
1.93283e-05
0.000714747
-0.0001384
-1.92885e-05
0.000789891
-0.000151208
-1.16305e-05
0.00080959
0.000187567
2.33017e-05
0.000769131
5.04095e-05
5.66733e-05
0.000676787
-4.28767e-05
4.17999e-05
0.000679311
4.05043e-05
6.25827e-06
0.000789993
-5.6402e-05
2.59829e-05
0.000848488
-4.72782e-05
6.95936e-05
0.000792517
-7.41701e-05
9.07059e-05
0.000685032
-3.09209e-05
2.29319e-05
0.000695572
3.08007e-05
-1.84336e-05
0.000815535
-4.18152e-05
1.51959e-05
0.000850773
-0.000134133
7.58837e-05
0.000753762
-6.23596e-05
8.02085e-05
0.000678815
1.49014e-05
3.77309e-05
0.000702745
-2.73384e-05
4.36333e-05
0.000776528
3.15844e-05
5.01876e-05
0.000827591
1.06584e-05
5.14554e-05
0.000792089
1.84795e-05
5.46913e-05
0.000725628
-0.000100422
2.89802e-05
-9.17838e-05
2.38931e-05
0.000869126
-3.10163e-05
6.4886e-05
0.000939046
-0.000102411
7.20795e-05
0.000915806
-5.79195e-05
3.21997e-05
0.000825774
-2.70156e-05
-1.05675e-05
0.00077986
-0.000159541
-6.56483e-05
0.000823856
-0.00012277
-1.65151e-05
0.000905468
4.94409e-05
0.000102466
0.000900885
-7.43289e-06
0.000106437
0.000819408
-0.000191121
2.03443e-05
0.000808729
-0.000131564
-9.04994e-06
0.000885247
-9.4723e-05
-7.15955e-06
0.000941676
-4.42095e-05
3.79956e-05
0.000917377
0.000112872
8.56163e-05
0.000849197
6.27221e-05
4.09405e-05
0.00080723
-0.000197189
-2.97764e-05
0.00086138
-0.000273523
-3.59757e-05
0.000939926
-5.32213e-05
4.45564e-05
0.000891827
-4.48219e-05
6.29029e-05
0.000793765
-5.63018e-05
-6.883e-07
0.000773472
-0.000163678
-3.68646e-05
0.000839832
-0.000188456
-2.992e-05
0.000921268
0.000118972
3.36389e-05
0.000903214
4.13906e-05
6.06496e-05
0.000809013
-4.3115e-05
3.8767e-05
0.000790602
-2.81282e-05
5.1301e-06
0.000874939
-0.000129202
-1.52671e-06
0.000943498
-8.1458e-05
4.04888e-05
0.000881837
-3.12568e-05
6.91262e-05
0.000751163
2.53056e-05
7.58987e-06
0.000748927
-2.60188e-05
-3.41635e-05
0.000876326
-0.000138599
-8.21353e-06
0.000925069
-0.000138776
4.46068e-05
0.000834759
-2.07685e-05
6.20969e-05
0.000756389
-1.01363e-05
2.28154e-05
0.000784666
-0.000136614
1.72144e-05
0.000882241
-8.68645e-05
2.53571e-05
0.00093483
-2.6114e-05
3.82373e-05
0.000885155
4.66243e-05
5.25633e-05
0.000790137
-7.79226e-05
9.34842e-06
-0.000168418
-8.91719e-06
0.000956284
-0.000132863
2.36917e-05
0.000997646
-0.000118845
3.43572e-05
0.000971266
-7.39683e-06
-3.16611e-07
0.000903283
2.59631e-05
-3.57679e-05
0.000869525
-0.00013589
-6.89283e-05
0.000920278
-0.000174746
-1.64648e-05
0.000996764
-4.46459e-05
6.6847e-05
0.00097819
-1.13886e-05
5.10284e-05
0.00090761
-0.000119624
-5.90423e-06
0.000904302
-0.000120724
-1.61046e-05
0.000955805
-0.000122882
-1.36213e-05
0.00100226
-6.18198e-05
1.36872e-05
0.000992678
0.000112421
3.60229e-05
0.000934163
0.000102932
7.14264e-06
0.000888956
-0.000138962
-2.17678e-05
0.00092709
-0.000262608
-3.3291e-05
0.000984968
-6.30497e-05
1.50691e-05
0.000948892
8.46015e-06
2.39655e-05
0.000886749
-2.01702e-05
-2.48289e-05
0.000863396
-0.000144759
-4.28331e-05
0.000923297
-0.000195404
-2.56563e-05
0.00100752
6.09005e-05
2.65017e-05
0.00098947
5.47859e-05
3.14213e-05
0.000918368
-1.58258e-05
2.22153e-06
0.000900173
-4.60035e-05
-4.73766e-06
0.00095313
-0.000142189
-1.15906e-05
0.000996173
-8.49144e-05
1.31796e-05
0.000946941
1.28167e-05
2.40618e-05
0.000859501
5.5056e-05
-1.32363e-05
0.000862273
-7.1345e-05
-3.57974e-05
0.000949795
-0.000188074
-2.67842e-05
0.000980961
-0.000120285
1.2249e-05
0.000920182
1.14415e-05
1.35479e-05
0.000865284
-2.66829e-05
-1.44836e-05
0.000881022
-0.000193322
-1.82359e-05
0.000956092
-0.000151077
-1.38911e-05
0.00100063
-4.37057e-05
8.31827e-06
0.000964518
6.21457e-05
2.10764e-05
0.000881087
-4.48172e-05
-1.39566e-05
-0.000207319
-3.23812e-05
0.00100845
-0.000149472
-6.83547e-06
0.00102771
-0.000106757
3.14226e-06
0.00101603
1.91264e-05
-2.91337e-05
0.000985291
5.02537e-05
-4.35318e-05
0.00096721
-0.000103055
-5.02313e-05
0.000996151
-0.00017376
-1.99129e-05
0.00103975
-7.70587e-05
7.62197e-06
0.00102455
-5.15777e-06
-9.52228e-06
0.000981227
-6.16999e-05
-1.83332e-05
0.000977477
-8.58505e-05
-9.63659e-06
0.00100395
-0.000109423
-1.94464e-05
0.00103232
-5.9576e-05
-1.55208e-05
0.0010326
0.000106583
-4.22765e-06
0.00100033
0.000122715
-9.84574e-06
0.000968541
-7.55075e-05
-5.61009e-06
0.000988832
-0.000216481
-2.59261e-05
0.0010214
-6.59075e-05
-1.9927e-05
0.000999296
3.90336e-05
-1.04751e-05
0.000968564
1.8749e-05
-3.61179e-05
0.000953982
-0.000105315
-3.21201e-05
0.000997671
-0.000178419
-1.81527e-05
0.00105512
2.66653e-05
-3.43205e-06
0.00103799
7.07522e-05
-4.54381e-06
0.000997908
1.94384e-05
-1.45658e-05
0.000987634
-2.62122e-05
-4.29345e-06
0.00100932
-0.000114859
-7.72726e-06
0.00102202
-7.12691e-05
-3.7461e-06
0.000997574
2.55696e-05
-9.28168e-06
0.000968089
5.32955e-05
-2.42762e-05
0.000973282
-7.52045e-05
-2.52991e-05
0.00100625
-0.000179599
-3.046e-05
0.00101361
-0.000101182
-1.09286e-05
0.000988937
2.09607e-05
-2.43053e-05
0.000968708
-2.547e-05
-3.64325e-05
0.000971253
-0.000177663
-3.05278e-05
0.00100661
-0.000154695
-3.65978e-05
0.00102979
-4.88399e-05
-2.33205e-05
0.00101671
6.47017e-05
-1.98322e-05
0.00097409
-8.19481e-06
-2.5042e-05
-0.000175047
-3.13201e-05
0.00107325
-0.000116443
-1.84382e-05
0.00108057
-7.99918e-05
-1.0841e-05
0.00108095
2.56996e-05
-3.35897e-05
0.00107426
5.69979e-05
-3.51346e-05
0.00106479
-6.17286e-05
-2.99472e-05
0.00106844
-0.000127298
-1.78417e-05
0.00108412
-6.40548e-05
-1.79488e-05
0.00108261
-2.01206e-06
-2.9589e-05
0.00106815
-3.38047e-05
-1.72077e-05
0.00106403
-5.49119e-05
-3.07868e-06
0.00106827
-8.08441e-05
-1.79535e-05
0.00107802
-4.45118e-05
-2.5916e-05
0.00108655
9.04342e-05
-1.60101e-05
0.00108275
0.000109737
-1.07598e-05
0.00106677
-3.42283e-05
5.16902e-06
0.00106505
-0.000158119
-1.62632e-05
0.00107566
-5.51454e-05
-3.23689e-05
0.00107304
4.29801e-05
-2.13012e-05
0.00106858
3.54951e-05
-3.05394e-05
0.00105463
-6.91905e-05
-1.63872e-05
0.00106836
-0.000143899
-1.32098e-05
0.00109623
1.54909e-05
-2.60409e-05
0.00109012
6.84724e-05
-1.72055e-05
0.00107836
3.9726e-05
-1.25366e-05
0.0010726
5.07307e-07
2.23309e-07
0.00107623
-7.51091e-05
-4.84631e-06
0.00107423
-5.24446e-05
-1.0973e-05
0.00106667
1.85352e-05
-1.50707e-05
0.0010665
4.55203e-05
-1.86258e-05
0.00106764
-4.51283e-05
-1.33031e-05
0.00107029
-0.000136473
-2.56137e-05
0.0010701
-8.29088e-05
-1.57099e-05
0.00106832
1.99347e-05
-2.88668e-05
0.00106643
-9.78381e-06
-3.11558e-05
0.00106152
-0.000127901
-2.46185e-05
0.00106828
-0.000126258
-3.908e-05
0.00107597
-4.39679e-05
-3.0427e-05
0.00107949
5.62175e-05
-2.75164e-05
0.00106964
1.60649e-05
-1.78677e-05
-0.000121808
-2.17621e-05
0.00116404
-7.45762e-05
-1.38115e-05
0.00116505
-5.17954e-05
-2.94617e-06
0.00117043
2.3174e-05
-2.17127e-05
0.00117444
5.21717e-05
-2.33234e-05
0.00117067
-3.47395e-05
-1.71876e-05
0.00116514
-8.16632e-05
-1.02046e-05
0.00116747
-3.86182e-05
-1.44604e-05
0.00117073
8.9188e-07
-2.42211e-05
0.00116945
-2.31563e-05
-1.25035e-05
0.00116563
-3.47673e-05
-1.60321e-07
0.00115966
-5.34072e-05
-1.19281e-05
0.00116048
-2.66592e-05
-1.94779e-05
0.00117211
7.16466e-05
-1.02919e-05
0.00118031
8.37061e-05
-6.34201e-06
0.0011728
-1.43041e-05
7.11799e-06
0.00116254
-0.000108655
-1.10398e-05
0.00116254
-3.7144e-05
-2.84421e-05
0.0011687
3.66832e-05
-1.8388e-05
0.00117718
3.10114e-05
-2.29142e-05
0.0011638
-4.45851e-05
-8.53391e-06
0.00115865
-0.000106933
-7.00545e-06
0.00116931
1.59423e-05
-2.49966e-05
0.00117068
5.444e-05
-1.45247e-05
0.00117343
3.98294e-05
-8.04233e-06
0.00117065
1.697e-05
4.45679e-06
0.00117038
-4.2076e-05
-1.38751e-06
0.00116525
-3.46693e-05
-7.63153e-06
0.00116213
7.39479e-06
-8.01546e-06
0.00116933
3.65273e-05
-1.00537e-05
0.00117126
-1.5293e-05
-6.04537e-06
0.00116609
-8.80044e-05
-1.88981e-05
0.00116304
-6.06338e-05
-8.45375e-06
0.00116772
1.40948e-05
-1.82921e-05
0.00117266
6.17791e-07
-1.87097e-05
0.00116648
-8.21971e-05
-1.32524e-05
0.00116133
-8.97284e-05
-2.9231e-05
0.00116158
-3.32673e-05
-1.92831e-05
0.00117082
4.30662e-05
-1.76562e-05
0.00117495
2.08076e-05
-9.63618e-06
-8.04742e-05
-1.29557e-05
0.00127583
-4.47431e-05
-5.91685e-06
0.00127614
-3.08777e-05
6.14307e-06
0.00128284
1.79904e-05
-8.82602e-06
0.00128905
4.33156e-05
-1.35126e-05
0.00128663
-2.1111e-05
-9.4111e-06
0.00127933
-5.3103e-05
-3.75911e-06
0.00127864
-2.11693e-05
-4.96829e-06
0.00128287
1.73731e-06
-1.34916e-05
0.00128461
-1.82212e-05
-7.78519e-06
0.00128112
-2.30229e-05
1.10286e-06
0.00127329
-3.44397e-05
-6.2052e-06
0.00127252
-1.39831e-05
-1.04838e-05
0.00128389
5.5009e-05
-2.35992e-06
0.00129372
5.94042e-05
-2.42554e-06
0.00128855
-4.67514e-06
5.99827e-06
0.00127753
-7.28427e-05
-8.12932e-06
0.00127624
-2.23512e-05
-2.07832e-05
0.001284
2.957e-05
-1.25523e-05
0.00129463
2.06691e-05
-1.83016e-05
0.00128213
-2.92015e-05
-7.05816e-06
0.00127165
-7.76795e-05
-3.25444e-06
0.00127694
1.72494e-05
-1.68688e-05
0.00127945
3.90823e-05
-8.26063e-06
0.00128596
3.0786e-05
-4.95171e-06
0.00128435
2.22786e-05
6.03353e-06
0.00128453
-2.1297e-05
1.46329e-06
0.00128056
-1.99193e-05
-3.77668e-06
0.00127805
-6.99195e-07
-2.32723e-06
0.0012845
2.63788e-05
-4.34381e-06
0.00128601
1.45198e-06
-1.60099e-06
0.00128153
-5.21042e-05
-1.27861e-05
0.00127909
-4.04167e-05
-2.2569e-06
0.00128368
8.27311e-06
-9.45792e-06
0.00128863
2.43545e-06
-9.88873e-06
0.00128268
-5.23679e-05
-4.47857e-06
0.00127625
-5.94237e-05
-1.92171e-05
0.00127535
-2.34142e-05
-7.00001e-06
0.00128474
3.07666e-05
-6.78136e-06
0.0012918
1.66293e-05
-3.78624e-06
-5.50073e-05
-5.71291e-06
0.00140385
-2.6716e-05
-9.33636e-07
0.00140515
-1.70382e-05
9.8981e-06
0.00141127
1.2702e-05
-1.62772e-06
0.001417
3.39315e-05
-6.96064e-06
0.00141481
-1.53022e-05
-4.17681e-06
0.00140789
-3.7071e-05
-7.91079e-07
0.00140748
-1.20401e-05
7.36999e-07
0.0014112
1.16017e-06
-6.16925e-06
0.00141243
-1.52222e-05
-4.3538e-06
0.00140946
-1.63675e-05
1.57035e-06
0.00140246
-2.2249e-05
-2.90713e-06
0.0014023
-5.94808e-06
-4.73882e-06
0.0014124
4.18369e-05
1.57871e-06
0.00142041
4.08832e-05
-4.63027e-07
0.00141588
-7.12162e-07
5.48226e-06
0.00140659
-4.85561e-05
-5.56427e-06
0.00140656
-1.20999e-05
-1.56942e-05
0.00141331
2.36885e-05
-8.88692e-06
0.0014222
1.08191e-05
-1.46453e-05
0.00141084
-2.10308e-05
-6.14354e-06
0.00140106
-5.71245e-05
-1.68471e-06
0.00140602
1.61341e-05
-1.07336e-05
0.00140712
2.64391e-05
-3.73792e-06
0.00141321
2.06916e-05
-2.93375e-06
0.00141156
2.17207e-05
6.45799e-06
0.00141258
-1.03238e-05
3.23555e-06
0.00141016
-9.42334e-06
-8.93989e-07
0.00140784
-5.5969e-06
5.2626e-07
0.00141234
1.70994e-05
-1.30856e-06
0.00141252
8.51542e-06
1.29156e-06
0.00141032
-3.00454e-05
-8.30887e-06
0.0014092
-2.44975e-05
2.33465e-07
0.00141253
4.13553e-06
-4.93446e-06
0.00141604
4.78085e-07
-5.54009e-06
0.00141065
-3.411e-05
-1.66318e-07
0.00140555
-3.84576e-05
-1.20481e-05
0.00140563
-1.45402e-05
5.54738e-07
0.00141313
2.06343e-05
-2.13775e-07
0.00141936
1.07199e-05
-1.03313e-06
-3.95907e-05
-1.35038e-06
0.00154587
-1.60851e-05
6.83193e-07
0.00154806
-8.5492e-06
9.90523e-06
0.00155321
7.68883e-06
1.18582e-06
0.0015577
2.62166e-05
-3.80646e-06
0.00155545
-1.21135e-05
-1.25849e-06
0.0015495
-2.73579e-05
-6.69766e-08
0.00154994
-6.90305e-06
1.73374e-06
0.00155312
-3.30502e-07
-2.33156e-06
0.00155314
-1.26225e-05
-2.35282e-06
0.00155075
-1.24754e-05
1.78952e-06
0.00154516
-1.4567e-05
-1.13891e-06
0.00154548
-1.63668e-06
-1.87701e-06
0.00155426
3.12106e-05
2.92369e-06
0.00156028
2.7374e-05
6.28331e-07
0.00155604
6.02537e-07
4.82078e-06
0.00154858
-3.21621e-05
-3.70892e-06
0.00154999
-5.88862e-06
-1.2595e-05
0.00155529
1.86848e-05
-7.05139e-06
0.00156218
3.32446e-06
-1.15074e-05
0.00155209
-1.5855e-05
-5.22739e-06
0.00154391
-4.29629e-05
-1.32749e-06
0.00154943
1.34927e-05
-7.64314e-06
0.00154873
1.72874e-05
-1.43454e-06
0.00155402
1.17719e-05
-1.3292e-06
0.00155218
1.87855e-05
6.47941e-06
0.00155373
-5.80858e-06
4.07614e-06
0.00155248
-1.82254e-06
-1.2308e-07
0.00154996
-7.8083e-06
1.84092e-06
0.00155329
9.47774e-06
5.53817e-07
0.00155218
1.05302e-05
3.53749e-06
0.00155192
-1.79859e-05
-5.33853e-06
0.00155192
-1.27616e-05
4.94017e-07
0.00155391
1.86061e-06
-2.87754e-06
0.00155648
-2.02353e-06
-3.48968e-06
0.00155136
-2.26753e-05
2.69024e-06
0.00154781
-2.51768e-05
-8.0068e-06
0.00154903
-7.53578e-06
2.33148e-06
0.00155434
1.37127e-05
1.65616e-06
0.00155936
5.97247e-06
-1.8538e-07
-2.94772e-05
1.91184e-06
0.00170226
-9.63563e-06
7.86461e-07
0.00170465
-3.11316e-06
8.38972e-06
0.00170884
4.08277e-06
1.81786e-06
0.00171237
2.007e-05
-2.39768e-06
0.00171028
-9.91029e-06
5.77753e-07
0.00170537
-2.06463e-05
-5.39152e-07
0.00170608
-3.43403e-06
1.40341e-06
0.00170899
-1.88427e-06
-3.51474e-07
0.00170796
-9.90713e-06
-1.48611e-06
0.00170608
-9.82266e-06
1.44459e-06
0.00170201
-9.57696e-06
-5.46398e-07
0.00170225
6.83459e-07
-6.50302e-07