/*--------------------------------*- C++ -*----------------------------------*\
  =========                 |
  \\      /  F ield         | OpenFOAM: The Open Source CFD Toolbox
   \\    /   O peration     | Website:  https://openfoam.org
    \\  /    A nd           | Version:  10
     \\/     M anipulation  |
\*---------------------------------------------------------------------------*/
FoamFile
{
    format      ascii;
    class       volSymmTensorField;
    location    "47.5";
    object      UPrime2Mean;
}
// * * * * * * * * * * * * * * * * * * * * * * * * * * * * * * * * * * * * * //

dimensions      [0 2 -2 0 0 0 0];

internalField   nonuniform List<symmTensor> 
25600
(
(0.00392992 2.60028e-07 -5.672e-06 1.08237e-09 1.09476e-08 2.34506e-06)
(0.00390173 -1.72649e-07 2.38029e-05 1.24462e-09 2.40707e-09 2.62641e-06)
(0.00388217 -4.49507e-07 3.92906e-05 1.08666e-09 -5.43324e-10 2.79405e-06)
(0.0038777 7.88836e-08 2.99423e-06 9.29796e-10 2.19635e-09 2.39068e-06)
(0.00390356 -1.62282e-07 -2.71581e-05 8.1732e-10 8.58186e-09 2.49523e-06)
(0.00390342 -2.33593e-07 -1.3061e-05 8.97339e-10 1.18815e-08 2.29037e-06)
(0.00389447 2.47996e-07 2.06648e-05 9.78002e-10 1.29205e-08 2.43467e-06)
(0.00388269 -1.41339e-07 3.39126e-05 1.01872e-09 1.07322e-08 2.56694e-06)
(0.00388169 3.85333e-08 5.47395e-06 8.48245e-10 9.58742e-09 2.3685e-06)
(0.0038901 -2.10859e-07 -2.33337e-05 9.07455e-10 9.1545e-09 2.5924e-06)
(0.00389972 -3.45236e-08 -1.07869e-05 7.6413e-10 6.60264e-09 2.53703e-06)
(0.00390643 -8.57628e-08 3.31098e-05 7.00369e-10 7.73966e-09 3.10499e-06)
(0.00389467 3.25768e-07 4.27553e-05 6.57251e-10 1.84264e-08 3.19156e-06)
(0.00388964 -5.47616e-07 1.236e-05 9.0899e-10 1.20204e-08 2.78653e-06)
(0.00392528 -3.5452e-07 -2.5404e-05 8.6133e-10 1.09594e-08 2.88102e-06)
(0.00390398 4.53732e-08 -1.22312e-05 7.28905e-10 8.93475e-09 2.71667e-06)
(0.00390432 1.08425e-07 1.96877e-05 6.90605e-10 1.21192e-08 2.69718e-06)
(0.00388341 -1.26464e-07 4.48748e-05 7.15565e-10 1.35341e-08 2.9429e-06)
(0.00391704 -3.36158e-07 -1.74282e-06 7.52876e-10 1.30828e-08 2.64306e-06)
(0.00391717 -3.44803e-07 -2.13183e-05 8.79897e-10 1.52861e-08 2.91636e-06)
(0.00393375 1.43928e-07 -1.80195e-05 9.24542e-10 9.27299e-09 2.72078e-06)
(0.00391036 4.8585e-07 2.95699e-05 9.61049e-10 2.09973e-08 2.65524e-06)
(0.00392351 9.83018e-08 4.07044e-05 9.67578e-10 1.95836e-08 2.72568e-06)
(0.00390595 -3.99269e-07 9.98115e-06 1.00085e-09 1.54914e-08 2.74282e-06)
(0.00393167 -9.10928e-07 -2.30447e-05 1.35638e-09 1.43623e-08 3.03072e-06)
(0.00396883 7.33531e-08 -9.51265e-06 1.09611e-09 8.82518e-09 2.63715e-06)
(0.00392662 -1.88987e-07 3.23446e-05 1.14048e-09 5.65275e-09 2.54376e-06)
(0.00392751 -3.13924e-07 3.39236e-05 1.02074e-09 9.10843e-09 2.40693e-06)
(0.00391051 -3.20051e-07 1.41652e-05 1.00389e-09 5.0562e-09 2.41823e-06)
(0.0039073 -2.07928e-07 -1.54862e-05 1.04111e-09 6.49079e-09 2.59596e-06)
(0.00394218 -9.75746e-07 -1.05384e-05 1.02255e-09 1.47792e-08 2.52517e-06)
(0.0039277 3.48297e-07 4.03983e-05 9.0519e-10 2.16365e-08 2.9154e-06)
(0.00393955 5.99937e-07 4.35149e-05 1.01355e-09 2.69253e-08 2.90496e-06)
(0.00389262 -5.10019e-09 1.08288e-05 9.65123e-10 1.66915e-08 2.62294e-06)
(0.00393776 -2.95953e-07 -2.01533e-05 1.00551e-09 1.02723e-08 2.89117e-06)
(0.00391015 5.23574e-07 -1.27032e-05 1.1219e-09 2.78126e-09 2.76763e-06)
(0.00393678 -5.50857e-07 2.96549e-05 1.18289e-09 -4.53442e-09 2.91411e-06)
(0.00387805 -3.24243e-07 3.89512e-05 9.67333e-10 5.4524e-09 2.83465e-06)
(0.00391839 -8.18229e-07 6.91404e-06 1.15315e-09 1.43023e-08 2.59842e-06)
(0.00390715 -6.20077e-07 -2.66807e-05 1.18028e-09 1.94051e-08 2.62393e-06)
(0.0157595 -4.09873e-06 2.91478e-06 2.37271e-08 -9.23014e-08 1.64535e-05)
(0.0156413 1.55222e-06 1.79128e-05 2.54658e-08 -6.24499e-08 1.7404e-05)
(0.0155904 2.97551e-06 9.86179e-05 2.58673e-08 -9.05832e-09 1.85133e-05)
(0.0155083 -6.23883e-07 2.67877e-05 2.17474e-08 1.19006e-10 1.7517e-05)
(0.0156398 -2.23331e-06 -6.92208e-05 2.30773e-08 -3.08174e-08 1.78659e-05)
(0.0155726 -4.5504e-06 -4.69206e-05 2.48168e-08 -3.34981e-08 1.61349e-05)
(0.0156921 -4.88115e-07 2.28934e-05 2.75674e-08 -6.45952e-08 1.81927e-05)
(0.015535 2.43529e-06 0.000102141 2.56748e-08 -8.13343e-08 1.84458e-05)
(0.0156064 8.17577e-07 3.89131e-05 2.38869e-08 -9.10541e-08 1.77232e-05)
(0.0155286 -2.16488e-06 -3.3956e-05 2.44587e-08 -7.33936e-08 1.90034e-05)
(0.0156174 -2.88826e-06 -5.4014e-05 2.3542e-08 -1.11567e-07 1.83795e-05)
(0.0156192 -1.84763e-06 6.15563e-05 2.38729e-08 -1.55508e-07 2.21304e-05)
(0.0156424 -1.90989e-06 0.000113079 2.2465e-08 -1.7892e-07 2.19898e-05)
(0.0156006 -1.59065e-06 7.1697e-05 2.16929e-08 -2.23273e-07 2.04887e-05)
(0.0157101 -1.11244e-06 -4.37936e-05 2.16722e-08 -2.48507e-07 2.04479e-05)
(0.0156206 -1.66657e-06 -1.73406e-05 2.02363e-08 -1.97926e-07 1.93753e-05)
(0.0157303 -3.09446e-06 1.93159e-05 2.08438e-08 -1.6791e-07 2.0555e-05)
(0.0156032 -1.99747e-06 0.000141514 2.18513e-08 -1.62731e-07 2.05915e-05)
(0.0157387 -3.97829e-06 2.51669e-05 2.34576e-08 -1.6717e-07 1.90493e-05)
(0.015678 -4.17996e-06 2.19137e-06 2.40208e-08 -1.76217e-07 1.98655e-05)
(0.0158045 -6.23081e-06 -7.86007e-05 2.39217e-08 -1.14761e-07 1.8484e-05)
(0.0157295 -3.26157e-06 7.7576e-05 2.32867e-08 -1.16991e-07 1.87454e-05)
(0.0158454 -1.98538e-06 8.45204e-05 2.5339e-08 -1.01649e-07 1.67939e-05)
(0.0157223 -2.28797e-06 9.8631e-05 2.8082e-08 -1.20707e-07 1.7018e-05)
(0.015787 -9.07959e-06 -6.32631e-06 3.49638e-08 -9.57463e-08 1.87084e-05)
(0.0159062 -7.43066e-06 -6.28949e-06 3.54652e-08 -1.54878e-07 1.66988e-05)
(0.0158951 -1.72345e-06 5.75427e-05 3.23427e-08 -1.62213e-07 1.63015e-05)
(0.0158442 -2.90178e-06 0.000104244 2.65865e-08 -1.92087e-07 1.6009e-05)
(0.0158366 -9.95745e-07 8.2673e-05 2.57071e-08 -1.50426e-07 1.63496e-05)
(0.015725 -5.39889e-06 -2.44923e-06 2.56064e-08 -6.82084e-08 1.80014e-05)
(0.0159444 -5.78728e-06 -3.92526e-05 2.83084e-08 -1.16077e-07 1.65298e-05)
(0.0157571 -2.75765e-06 6.12376e-05 2.76812e-08 -1.45511e-07 1.73766e-05)
(0.0159414 -3.0424e-06 9.42291e-05 2.73209e-08 -1.8972e-07 1.83054e-05)
(0.015615 3.95909e-07 7.72308e-05 2.33147e-08 -1.23573e-07 1.82867e-05)
(0.0159095 -4.76898e-06 -2.9169e-05 2.51213e-08 -8.62777e-08 2.08756e-05)
(0.0156252 -1.68921e-06 -3.9321e-05 2.35374e-08 -1.04435e-07 1.94795e-05)
(0.0159526 -2.61051e-06 6.16839e-05 2.51289e-08 -1.34882e-07 2.15924e-05)
(0.015585 3.14725e-06 0.000104211 2.30406e-08 -7.29296e-08 1.95678e-05)
(0.0157995 -2.13572e-06 7.98255e-05 2.13393e-08 -1.0968e-07 1.78562e-05)
(0.015559 9.16706e-07 -3.96745e-05 2.0846e-08 -8.45395e-08 1.76352e-05)
(0.0263115 -6.06329e-06 -0.00014355 1.02864e-07 -3.38361e-07 4.60838e-05)
(0.0259525 9.85816e-06 -2.40438e-05 1.00121e-07 -3.5157e-07 4.82722e-05)
(0.0262236 4.13315e-06 2.82414e-05 9.66907e-08 -5.15594e-07 4.53601e-05)
(0.0258723 6.0981e-06 -7.41723e-06 8.60335e-08 -4.71205e-07 3.94037e-05)
(0.026174 3.89319e-07 -0.000139645 9.90458e-08 -5.2294e-07 4.03158e-05)
(0.0258835 1.28259e-06 -0.000100981 9.78897e-08 -5.71659e-07 3.85883e-05)
(0.026132 -1.34278e-07 -5.001e-05 1.09785e-07 -6.76587e-07 4.53962e-05)
(0.0258454 8.90653e-06 7.08393e-05 1.03725e-07 -7.3189e-07 4.89785e-05)
(0.0261192 3.55752e-06 -2.55203e-05 1.01312e-07 -7.34221e-07 4.99335e-05)
(0.0258798 5.9076e-06 -0.00012506 9.75658e-08 -6.70874e-07 5.34804e-05)
(0.0261246 -7.79047e-07 -0.000158571 9.6527e-08 -5.76039e-07 4.77751e-05)
(0.0259864 2.18004e-06 2.44001e-05 9.35962e-08 -6.30649e-07 5.22188e-05)
(0.0261164 1.99711e-06 3.632e-05 8.88149e-08 -5.92422e-07 5.15698e-05)
(0.0259903 1.88842e-06 4.31481e-05 8.73033e-08 -6.95964e-07 4.87378e-05)
(0.0261271 3.82402e-08 -0.000152208 8.60092e-08 -7.00007e-07 5.05419e-05)
(0.0260108 4.07562e-07 -7.3113e-05 8.70888e-08 -6.52128e-07 4.66475e-05)
(0.026189 -4.63428e-06 -5.34208e-05 9.22054e-08 -7.22511e-07 5.20364e-05)
(0.0259993 -3.19685e-06 0.000116884 9.93208e-08 -8.36709e-07 5.31416e-05)
(0.0262889 -6.14e-06 -4.57161e-05 1.12085e-07 -8.92135e-07 5.17196e-05)
(0.0260617 -4.83167e-06 -9.44737e-05 1.2266e-07 -1.09941e-06 5.29707e-05)
(0.0264187 -4.82306e-06 -0.000167865 1.16469e-07 -9.80705e-07 4.4217e-05)
(0.0260907 -6.14537e-06 2.64619e-05 1.1172e-07 -9.43235e-07 4.06468e-05)
(0.0264795 -2.80105e-06 -2.62286e-06 1.15424e-07 -7.41722e-07 3.86601e-05)
(0.0261944 -3.35354e-06 7.25428e-05 1.27028e-07 -7.55187e-07 3.90147e-05)
(0.026515 -1.35052e-05 -0.000118798 1.36906e-07 -5.56214e-07 4.51539e-05)
(0.0262786 -1.08648e-05 -7.84734e-05 1.29355e-07 -8.32678e-07 4.36424e-05)
(0.0266811 -5.96225e-06 -1.04432e-05 1.19032e-07 -8.46891e-07 5.02714e-05)
(0.0263043 -3.65068e-06 0.000126488 1.09809e-07 -8.75705e-07 4.91571e-05)
(0.0265835 -2.57034e-06 -3.48314e-05 1.05277e-07 -8.53056e-07 4.6432e-05)
(0.026335 -5.05916e-06 -9.05239e-05 9.54679e-08 -5.04292e-07 4.84722e-05)
(0.0266525 -9.21609e-06 -0.000178959 1.02283e-07 -4.51272e-07 4.5241e-05)
(0.0263273 -2.46795e-06 1.45112e-05 9.76397e-08 -4.11996e-07 4.83042e-05)
(0.0266469 -1.47293e-07 1.1617e-05 1.02023e-07 -5.01431e-07 5.00298e-05)
(0.0261461 3.36516e-06 3.87751e-05 8.40584e-08 -4.85086e-07 4.92695e-05)
(0.0265787 -3.18104e-06 -0.000151496 9.25312e-08 -4.89952e-07 5.23034e-05)
(0.0260903 2.40606e-06 -7.88588e-05 8.31975e-08 -4.55854e-07 4.66966e-05)
(0.0266416 -2.40532e-06 -4.68806e-05 9.9139e-08 -4.92825e-07 5.0444e-05)
(0.02597 1.2993e-05 7.22572e-05 8.84111e-08 -3.89285e-07 5.15041e-05)
(0.0264832 -2.55137e-06 -5.59721e-05 9.00885e-08 -4.70289e-07 4.93668e-05)
(0.0259901 9.11868e-06 -0.000135804 8.54597e-08 -3.76526e-07 4.82417e-05)
(0.0318199 1.66304e-05 -0.000339073 3.6722e-07 3.43372e-07 9.72295e-05)
(0.0312708 4.156e-05 -0.000200468 3.38381e-07 1.74909e-07 9.54055e-05)
(0.0316791 2.52475e-05 -0.000151095 3.26395e-07 -4.54776e-08 8.90608e-05)
(0.0311829 4.18718e-05 -0.000170282 3.029e-07 9.77236e-08 7.95668e-05)
(0.0316362 2.15905e-05 -0.000316055 3.32848e-07 1.09096e-07 8.62088e-05)
(0.0312135 3.52199e-05 -0.000278277 3.31738e-07 -3.24771e-07 8.77158e-05)
(0.0315847 2.32659e-05 -0.00019182 3.65573e-07 -5.78842e-07 0.000105584)
(0.031161 3.70313e-05 -3.66754e-05 3.52803e-07 -8.13958e-07 0.00011212)
(0.0315699 2.3455e-05 -0.000187887 3.53279e-07 -5.11368e-07 0.000113516)
(0.0312189 3.35586e-05 -0.000296069 3.59843e-07 1.30932e-07 0.000113606)
(0.0315709 1.87787e-05 -0.00034025 3.76165e-07 3.32259e-07 9.79152e-05)
(0.0312664 3.28835e-05 -0.000133152 3.43381e-07 2.11632e-07 9.69081e-05)
(0.031483 2.61272e-05 -0.000154469 3.22501e-07 1.48306e-07 9.59591e-05)
(0.0312719 3.27204e-05 -0.000123888 3.12611e-07 3.05091e-08 9.30337e-05)
(0.0314741 2.45399e-05 -0.000362122 3.1283e-07 3.85729e-08 0.000100543)
(0.0313179 2.69029e-05 -0.000253252 3.24467e-07 1.32591e-07 9.3169e-05)
(0.0315043 1.83435e-05 -0.000257869 3.28139e-07 1.20565e-07 0.000101455)
(0.0312525 2.38294e-05 -4.28527e-05 3.42635e-07 -5.65269e-08 0.000104463)
(0.031561 1.42136e-05 -0.000240174 3.58982e-07 -2.76927e-07 0.000102585)
(0.0312806 1.61702e-05 -0.00024469 3.59168e-07 -5.03886e-07 9.93037e-05)
(0.0316002 1.13965e-05 -0.000363702 3.50749e-07 -6.1626e-07 8.83257e-05)
(0.0313041 1.51383e-05 -0.000109806 3.6269e-07 -9.39454e-07 8.49988e-05)
(0.0316605 1.39407e-05 -0.000148783 3.60885e-07 -8.4718e-07 8.44856e-05)
(0.0314388 1.90527e-05 -7.94999e-05 3.85047e-07 -5.80057e-07 8.36191e-05)
(0.0317915 9.83113e-06 -0.000344959 3.76783e-07 -1.39614e-07 9.26403e-05)
(0.0315407 1.06916e-05 -0.000203729 3.89017e-07 -4.37339e-07 8.77146e-05)
(0.031912 1.28918e-05 -0.000253061 3.73517e-07 -7.10453e-07 9.79104e-05)
(0.0315102 1.45996e-05 -2.54059e-05 3.89321e-07 -1.00325e-06 0.000103743)
(0.0320082 1.62364e-05 -0.000279169 3.71718e-07 -9.40425e-07 0.000102292)
(0.0316607 2.19972e-05 -0.000281221 3.60172e-07 -6.26072e-07 0.000101797)
(0.0320331 1.55415e-05 -0.000420237 3.56186e-07 -1.4623e-07 9.75015e-05)
(0.031573 2.35414e-05 -0.00017316 3.58744e-07 4.17693e-08 0.000100445)
(0.0320254 2.30772e-05 -0.000180826 3.42025e-07 2.69518e-07 0.000105699)
(0.0315081 2.90054e-05 -0.000165596 3.17735e-07 3.33653e-07 0.000105913)
(0.0320337 1.95745e-05 -0.000409728 3.04049e-07 3.93882e-07 0.000114251)
(0.0315066 2.98399e-05 -0.000323419 2.99168e-07 3.99809e-07 9.97018e-05)
(0.0320464 1.8414e-05 -0.000243181 3.16607e-07 2.14765e-07 0.000106189)
(0.0313991 3.95256e-05 -0.000121488 3.06347e-07 -4.61064e-08 0.00010339)
(0.0319491 2.03618e-05 -0.000221482 3.29991e-07 4.30113e-08 0.000101564)
(0.0313455 4.19831e-05 -0.000335495 3.32336e-07 2.21671e-07 0.000104971)
(0.0318048 6.88353e-05 -0.000413775 1.25129e-06 2.5531e-06 0.000159458)
(0.0314345 9.39144e-05 -0.000265982 1.19702e-06 2.19462e-06 0.000157164)
(0.0316927 7.15987e-05 -0.000198337 1.15067e-06 1.84303e-06 0.000151163)
(0.0313512 9.38167e-05 -0.000253892 1.06593e-06 2.33328e-06 0.000140191)
(0.0317443 6.94303e-05 -0.000388439 1.09543e-06 2.63477e-06 0.000151579)
(0.0313716 8.84555e-05 -0.000357533 1.10139e-06 2.17973e-06 0.000152707)
(0.03169 7.27144e-05 -0.000232082 1.16878e-06 1.73581e-06 0.000175103)
(0.0313495 9.483e-05 -0.000117714 1.14395e-06 1.28645e-06 0.000176947)
(0.0316683 7.21882e-05 -0.000216462 1.17858e-06 1.20419e-06 0.000175215)
(0.0313581 8.928e-05 -0.000349291 1.21661e-06 2.27141e-06 0.000173522)
(0.0317074 6.72718e-05 -0.000408978 1.25326e-06 2.53741e-06 0.000153033)
(0.031278 8.74878e-05 -0.000243925 1.16466e-06 2.47692e-06 0.000145856)
(0.0316228 7.29429e-05 -0.000259334 1.11374e-06 2.25906e-06 0.000144206)
(0.0312111 8.77581e-05 -0.000235632 1.0709e-06 2.40525e-06 0.000142102)
(0.0316481 7.30889e-05 -0.000428157 1.06361e-06 2.22716e-06 0.000157311)
(0.0312963 8.17783e-05 -0.000403806 1.10335e-06 2.32014e-06 0.000153542)
(0.0316727 6.73951e-05 -0.000270296 1.13364e-06 2.24548e-06 0.000174515)
(0.0313188 7.57475e-05 -0.000117938 1.16491e-06 2.46938e-06 0.000169365)
(0.0316522 6.16606e-05 -0.000273833 1.1616e-06 1.71935e-06 0.000164672)
(0.0312747 6.84817e-05 -0.000316628 1.11407e-06 1.25413e-06 0.000161585)
(0.0316917 6.09211e-05 -0.000422206 1.05139e-06 9.11568e-07 0.000143502)
(0.031204 6.6751e-05 -0.000194807 1.10261e-06 6.03124e-07 0.000134986)
(0.0317364 6.73021e-05 -0.00023619 1.09663e-06 6.61724e-07 0.000130075)
(0.0313087 6.84226e-05 -0.000151151 1.22137e-06 1.12749e-06 0.000129061)
(0.0318132 6.27441e-05 -0.000386654 1.18557e-06 1.59453e-06 0.000144653)
(0.0313961 6.78279e-05 -0.000307873 1.2684e-06 1.68737e-06 0.000145849)
(0.0318209 6.65096e-05 -0.000312253 1.19764e-06 1.45638e-06 0.00016208)
(0.0313723 6.83185e-05 -0.000125983 1.25663e-06 9.09705e-07 0.000168184)
(0.0318616 6.5956e-05 -0.000315994 1.17153e-06 7.94621e-07 0.000171256)
(0.0314679 7.96163e-05 -0.000356865 1.21631e-06 8.09828e-07 0.000179368)
(0.0320122 6.94044e-05 -0.000460339 1.16894e-06 1.63995e-06 0.00016506)
(0.0315238 8.48264e-05 -0.000227596 1.2582e-06 2.20263e-06 0.000160238)
(0.0319502 7.26419e-05 -0.000296266 1.17314e-06 2.8672e-06 0.000160283)
(0.031498 8.8185e-05 -0.000198506 1.19031e-06 3.27598e-06 0.000160576)
(0.0318945 6.71663e-05 -0.000468972 1.07844e-06 3.79515e-06 0.000170374)
(0.0315621 8.91169e-05 -0.000386996 1.07964e-06 3.22262e-06 0.000155355)
(0.0318996 6.55783e-05 -0.000362224 1.05127e-06 2.7229e-06 0.000161805)
(0.0314565 9.19312e-05 -0.000212684 1.11458e-06 2.31279e-06 0.000162992)
(0.0318764 6.82067e-05 -0.000315432 1.15936e-06 2.39409e-06 0.000164452)
(0.0314733 9.77514e-05 -0.000401942 1.22759e-06 2.43827e-06 0.000169218)
(0.0282052 0.000120663 -0.000276701 3.07852e-06 6.21266e-06 0.0002004)
(0.0280375 0.000138333 -8.06196e-05 3.04718e-06 5.80481e-06 0.000205388)
(0.0282407 0.000119926 -5.37269e-05 2.90332e-06 5.72921e-06 0.000191251)
(0.0280394 0.000137421 -5.79319e-05 2.74142e-06 5.84941e-06 0.00017886)
(0.0282086 0.00011401 -0.000192169 2.71205e-06 5.83931e-06 0.000185409)
(0.0280254 0.000135933 -0.000153049 2.73412e-06 5.22536e-06 0.000188203)
(0.0282275 0.000115286 -0.000105431 2.85856e-06 3.84774e-06 0.000210333)
(0.0279748 0.000137374 6.08645e-06 2.8433e-06 2.7979e-06 0.000220753)
(0.0283311 0.000113521 -0.000113551 2.98142e-06 2.28519e-06 0.000220961)
(0.0280334 0.000140205 -0.000238975 3.04609e-06 3.53428e-06 0.000218752)
(0.0283426 0.000114131 -0.000244372 3.09109e-06 4.62376e-06 0.000192605)
(0.02798 0.000137309 -0.000132156 2.91937e-06 5.43311e-06 0.000185739)
(0.0281872 0.00011924 -0.000123786 2.75193e-06 5.53163e-06 0.000185728)
(0.0278661 0.000137605 -0.000129219 2.61947e-06 5.91945e-06 0.000184086)
(0.0281865 0.000117751 -0.000303313 2.58162e-06 5.72649e-06 0.000197077)
(0.0279002 0.000131777 -0.000273709 2.72571e-06 5.38678e-06 0.000181861)
(0.0281418 0.00011572 -0.000180121 2.86246e-06 5.66723e-06 0.000183019)
(0.0278071 0.000122214 -0.000107508 2.93444e-06 6.43162e-06 0.000184213)
(0.0281154 0.000112001 -0.000119772 2.80421e-06 5.36792e-06 0.000187798)
(0.027697 0.000116425 -0.000202062 2.67936e-06 4.55291e-06 0.000190945)
(0.0281412 0.000110858 -0.000221692 2.47533e-06 3.08354e-06 0.000175574)
(0.0278034 0.000118122 -0.000102508 2.62605e-06 2.52736e-06 0.000174497)
(0.0281342 0.000114901 -8.81568e-05 2.67193e-06 2.28458e-06 0.000173855)
(0.0278765 0.000118862 -0.000116867 3.07796e-06 3.00842e-06 0.000171661)
(0.0282114 0.000115086 -0.000253203 3.11206e-06 3.73544e-06 0.00018525)
(0.0279132 0.000122308 -0.000211358 3.3927e-06 4.30135e-06 0.00019281)
(0.0281778 0.000118654 -0.000173021 3.17387e-06 4.43943e-06 0.000212)
(0.0279594 0.00012099 -1.98488e-05 3.20097e-06 4.54272e-06 0.000214672)
(0.0281474 0.000120436 -0.000181422 2.91038e-06 4.41187e-06 0.000213106)
(0.0280679 0.000126749 -0.000200322 3.0756e-06 4.19194e-06 0.000223907)
(0.028237 0.000124808 -0.000326352 2.94721e-06 4.08037e-06 0.000214398)
(0.0280365 0.000133218 -6.08709e-05 3.23665e-06 4.65726e-06 0.000217084)
(0.0283132 0.000120911 -0.000106208 3.09057e-06 5.95184e-06 0.000202501)
(0.0280568 0.000136112 -5.15985e-05 3.23501e-06 6.93722e-06 0.000199206)
(0.0282686 0.000114438 -0.000292712 2.9395e-06 8.29551e-06 0.000209369)
(0.0281287 0.000134044 -0.000200904 2.94492e-06 7.92397e-06 0.000198277)
(0.0283108 0.000117761 -0.000203503 2.71796e-06 7.77222e-06 0.000208291)
(0.0280229 0.000143603 -4.16287e-05 2.87547e-06 7.49508e-06 0.000211904)
(0.0282717 0.000116938 -0.000192683 2.88027e-06 7.06732e-06 0.000206846)
(0.0280854 0.000140997 -0.000210357 3.08225e-06 6.62872e-06 0.000206395)
(0.0230052 0.000129496 4.19921e-05 5.91152e-06 8.14505e-06 0.000193034)
(0.0228827 0.000146444 0.000107595 5.83522e-06 8.2731e-06 0.000188183)
(0.0229306 0.000126568 0.000139166 5.6245e-06 8.09974e-06 0.000185444)
(0.0228682 0.000146773 0.000117862 5.37159e-06 8.41998e-06 0.000183482)
(0.0230011 0.000123469 6.37457e-06 5.32976e-06 7.89621e-06 0.000198588)
(0.0229126 0.000147157 3.7034e-05 5.39698e-06 6.79235e-06 0.000201103)
(0.0230276 0.000122628 0.000103105 5.64294e-06 4.52057e-06 0.000219267)
(0.0229103 0.000137971 0.000193521 5.72333e-06 2.99355e-06 0.000220258)
(0.0230383 0.000116233 0.000103308 5.9734e-06 3.04431e-06 0.000212124)
(0.0229286 0.000142862 5.00133e-05 5.95533e-06 4.45361e-06 0.000206434)
(0.0230324 0.000122428 1.47091e-05 5.9671e-06 5.68346e-06 0.000193446)
(0.0228787 0.000142023 0.000121911 5.57002e-06 6.44574e-06 0.000192936)
(0.0229884 0.00012476 0.000141518 5.25629e-06 6.26797e-06 0.000188791)
(0.0229116 0.000139948 0.0001264 4.99717e-06 7.02356e-06 0.000181879)
(0.0229854 0.000129078 2.12402e-05 5.01676e-06 7.08776e-06 0.000178455)
(0.0228612 0.000137804 4.60362e-05 5.32184e-06 7.6415e-06 0.000172227)
(0.0230256 0.00013077 7.54813e-05 5.5875e-06 8.34208e-06 0.000178198)
(0.0227645 0.000132859 0.000139244 5.72912e-06 9.47558e-06 0.000186074)
(0.0229501 0.00013138 9.69334e-05 5.37404e-06 9.31066e-06 0.000190028)
(0.0227518 0.000126863 2.98677e-05 5.12012e-06 8.43511e-06 0.000202123)
(0.0229679 0.000125095 4.99297e-06 4.70693e-06 5.70134e-06 0.000191943)
(0.0227713 0.000129244 0.000114316 5.04989e-06 3.79623e-06 0.000194528)
(0.0230055 0.000124207 0.000123394 5.42657e-06 2.87415e-06 0.000184859)
(0.0227667 0.000129842 0.000113473 6.37848e-06 3.84936e-06 0.000182341)
(0.0230407 0.000132418 3.38749e-06 6.68403e-06 4.89674e-06 0.000196825)
(0.0228216 0.000133331 2.49693e-05 7.18613e-06 6.42847e-06 0.000201227)
(0.023025 0.000133497 7.88381e-05 6.76743e-06 6.70161e-06 0.000214885)
(0.0228162 0.000132479 0.000177346 6.64394e-06 6.9864e-06 0.000219471)
(0.0230173 0.0001352 9.05758e-05 6.05611e-06 7.00146e-06 0.000215598)
(0.0228662 0.000134747 2.04769e-05 6.20948e-06 6.81555e-06 0.000215359)
(0.0230425 0.00013872 2.66839e-05 5.93157e-06 5.9492e-06 0.000200813)
(0.0228063 0.000137204 8.23493e-05 6.43175e-06 6.36832e-06 0.000195249)
(0.0229788 0.000132279 0.000147953 6.17835e-06 6.87906e-06 0.000188963)
(0.0227777 0.000138167 8.9753e-05 6.4612e-06 8.37734e-06 0.000185509)
(0.0230459 0.000129814 2.85885e-05 5.83661e-06 9.45752e-06 0.000196539)
(0.0227761 0.00013883 8.94223e-06 5.90805e-06 1.07046e-05 0.000206622)
(0.022985 0.000131071 0.000100527 5.4594e-06 1.04079e-05 0.000221064)
(0.0228263 0.000148003 0.000176551 5.65982e-06 9.8125e-06 0.000218146)
(0.0229913 0.000130826 0.000116439 5.64858e-06 9.15509e-06 0.000210884)
(0.0228754 0.000148081 3.94611e-05 5.97078e-06 9.14435e-06 0.000209168)
(0.0173964 9.68832e-05 0.00026194 9.06308e-06 5.70057e-06 0.000162583)
(0.0174305 0.000113851 0.000293814 8.7664e-06 6.10872e-06 0.000163557)
(0.0173602 9.53868e-05 0.00031601 8.56505e-06 5.35323e-06 0.000162387)
(0.0174162 0.000112759 0.00029317 8.41184e-06 5.42721e-06 0.000161815)
(0.0174127 9.61476e-05 0.000220877 8.6448e-06 4.52781e-06 0.000167278)
(0.0174522 0.000115486 0.000242908 8.7832e-06 4.0909e-06 0.000166493)
(0.0174251 9.62767e-05 0.000258124 9.03818e-06 3.09929e-06 0.000169987)
(0.0174225 0.000109028 0.000310241 8.95791e-06 2.36301e-06 0.000172604)
(0.0174098 9.23314e-05 0.000270725 9.19224e-06 1.93099e-06 0.000172388)
(0.0174104 0.000107771 0.000255594 9.1279e-06 2.18735e-06 0.00017297)
(0.0174496 9.88712e-05 0.000220767 9.1136e-06 2.77531e-06 0.000163305)
(0.0174261 0.000107559 0.000318941 8.66251e-06 3.4341e-06 0.000159274)
(0.0174375 9.90109e-05 0.000282465 8.3209e-06 4.15206e-06 0.000155566)
(0.0174002 0.000103947 0.000336397 8.05164e-06 5.16335e-06 0.000155744)
(0.0174419 9.89644e-05 0.000209522 8.15919e-06 6.12701e-06 0.0001604)
(0.017463 0.000102969 0.000265025 8.4456e-06 6.7607e-06 0.000153078)
(0.0175014 0.000103595 0.000250185 8.62953e-06 7.40968e-06 0.000159474)
(0.0173943 0.000104874 0.000319506 8.66174e-06 7.53653e-06 0.0001667)
(0.0174774 0.000101986 0.000262635 8.19087e-06 7.498e-06 0.000167572)
(0.0174473 9.98906e-05 0.000222638 7.82693e-06 6.31344e-06 0.000169301)
(0.0174604 9.98063e-05 0.000224056 7.40274e-06 4.13785e-06 0.000166754)
(0.0173971 9.92514e-05 0.000251119 8.04796e-06 2.3687e-06 0.000169366)
(0.017445 9.79381e-05 0.000296183 8.85388e-06 1.11299e-06 0.000165386)
(0.0173687 0.000101099 0.000256167 1.03289e-05 1.29682e-06 0.000162488)
(0.0174805 0.000104745 0.00022389 1.10635e-05 1.92965e-06 0.000168596)
(0.0173609 0.000107418 0.000231828 1.15674e-05 3.44488e-06 0.000172137)
(0.0174883 0.000104565 0.000271901 1.09237e-05 4.07029e-06 0.000177927)
(0.0173513 0.000109517 0.000312572 1.06162e-05 4.88063e-06 0.000174018)
(0.0174167 0.000104734 0.000282784 9.84868e-06 4.57306e-06 0.000166545)
(0.0173597 0.000108865 0.000262535 9.82143e-06 4.64611e-06 0.00016249)
(0.0173782 0.000109897 0.000258555 9.41821e-06 4.11921e-06 0.000159447)
(0.0173466 0.000112366 0.000292064 9.76227e-06 4.35463e-06 0.000159882)
(0.0173621 0.000107637 0.000328098 9.42365e-06 4.10639e-06 0.000157312)
(0.0173791 0.000112123 0.000307391 9.61767e-06 4.91896e-06 0.000155624)
(0.0173697 0.000104874 0.000272349 8.94876e-06 5.38159e-06 0.000159646)
(0.017367 0.000115463 0.00028562 8.99356e-06 6.38708e-06 0.000164023)
(0.0174083 0.000102303 0.000308464 8.61651e-06 6.00566e-06 0.000173255)
(0.017366 0.000115295 0.000346349 8.94744e-06 5.83792e-06 0.000177504)
(0.0174032 9.9314e-05 0.000310082 9.02419e-06 5.30238e-06 0.000174333)
(0.0174179 0.000115286 0.000259837 9.25896e-06 6.14075e-06 0.000172044)
(0.0123264 5.49425e-05 0.000307654 1.06016e-05 -1.39575e-08 0.00010949)
(0.0123875 6.59161e-05 0.000317935 1.01552e-05 2.09758e-07 0.00010805)
(0.0123005 5.37641e-05 0.000320338 1.00166e-05 -7.70556e-08 0.000106138)
(0.0123651 6.48264e-05 0.000313968 1.00196e-05 -1.92126e-07 0.000105934)
(0.0123132 5.44534e-05 0.000281577 1.04635e-05 -7.86795e-07 0.000108997)
(0.0123743 6.64508e-05 0.000289122 1.0641e-05 -1.383e-06 0.000110611)
(0.0123214 5.64884e-05 0.000296539 1.08402e-05 -1.75281e-06 0.000114687)
(0.0123651 6.26177e-05 0.000324773 1.06354e-05 -2.21279e-06 0.000116595)
(0.012334 5.38257e-05 0.000298557 1.07286e-05 -2.54836e-06 0.000116853)
(0.0123742 5.92544e-05 0.00028501 1.05783e-05 -2.85183e-06 0.000118267)
(0.0123524 5.7152e-05 0.000277129 1.05805e-05 -2.85751e-06 0.000116182)
(0.0123721 6.00464e-05 0.000306107 1.03079e-05 -2.21906e-06 0.00011418)
(0.0123654 5.71181e-05 0.000322554 1.01411e-05 -1.07934e-06 0.000109832)
(0.0123714 5.81952e-05 0.000302525 1.00307e-05 2.52136e-07 0.000107602)
(0.0123781 5.71237e-05 0.000284294 1.01575e-05 1.38516e-06 0.000111243)
(0.0123812 5.91512e-05 0.000272584 1.03721e-05 1.7882e-06 0.000113671)
(0.0123697 6.10985e-05 0.000304402 1.04239e-05 1.73845e-06 0.000116637)
(0.0123834 6.17251e-05 0.000316185 1.03764e-05 1.38172e-06 0.000114918)
(0.0123672 5.73729e-05 0.000317402 9.8889e-06 1.30534e-06 0.000111612)
(0.0123949 5.85986e-05 0.000285554 9.5084e-06 7.48173e-07 0.000110508)
(0.0123548 5.54893e-05 0.000298877 9.14269e-06 -5.82759e-07 0.000108942)
(0.0123857 5.77434e-05 0.000293895 9.88837e-06 -1.88632e-06 0.000110261)
(0.0123255 5.51529e-05 0.00031859 1.08696e-05 -3.38698e-06 0.000110666)
(0.0123666 5.99945e-05 0.00029314 1.2449e-05 -3.59387e-06 0.000110217)
(0.0123328 6.14701e-05 0.000280348 1.33537e-05 -3.5689e-06 0.000112582)
(0.0123606 6.58547e-05 0.000278958 1.38164e-05 -2.47897e-06 0.000113487)
(0.0123226 6.17084e-05 0.000296195 1.32858e-05 -1.95078e-06 0.000115513)
(0.0123558 6.75953e-05 0.00031013 1.28919e-05 -1.1305e-06 0.000114424)
(0.0123178 6.25144e-05 0.000302422 1.20141e-05 -1.42506e-06 0.000112406)
(0.0123682 6.74054e-05 0.000278939 1.17995e-05 -1.27799e-06 0.000112158)
(0.0123185 6.66149e-05 0.000286599 1.14392e-05 -2.05484e-06 0.000110137)
(0.012372 7.06331e-05 0.000301447 1.16579e-05 -1.75128e-06 0.000111195)
(0.0123112 6.25102e-05 0.000328291 1.15162e-05 -2.28446e-06 0.00011088)
(0.0123859 6.89568e-05 0.000309376 1.1629e-05 -1.51381e-06 0.000112215)
(0.0123235 6.0392e-05 0.000295367 1.1152e-05 -1.21971e-06 0.00011535)
(0.0123978 7.06003e-05 0.000290117 1.11194e-05 -1.70881e-08 0.000115871)
(0.0123328 5.85666e-05 0.000320852 1.08416e-05 -1.39342e-07 0.000116788)
(0.012396 6.99804e-05 0.0003279 1.10287e-05 1.19361e-07 0.00011685)
(0.0123306 5.59702e-05 0.000331043 1.10354e-05 -2.24157e-07 0.000115138)
(0.0123884 6.69898e-05 0.000305198 1.09623e-05 2.22513e-07 0.00011469)
(0.00794835 2.21985e-05 0.000201755 9.72233e-06 -3.68597e-06 6.18785e-05)
(0.00802311 2.89923e-05 0.000201298 9.30614e-06 -3.54401e-06 6.05511e-05)
(0.00794543 2.09661e-05 0.00021123 9.23412e-06 -3.48103e-06 5.99442e-05)
(0.00801359 2.78816e-05 0.000199044 9.23669e-06 -3.66344e-06 5.97095e-05)
(0.0079471 2.20994e-05 0.000198288 9.55674e-06 -3.96573e-06 6.18037e-05)
(0.008017 2.79338e-05 0.000189488 9.63135e-06 -4.50882e-06 6.23281e-05)
(0.00794423 2.36376e-05 0.000205845 9.69342e-06 -4.5398e-06 6.32698e-05)
(0.00801445 2.52848e-05 0.000204116 9.49841e-06 -4.90362e-06 6.28384e-05)
(0.00794677 2.10737e-05 0.000208167 9.51362e-06 -5.18171e-06 6.29262e-05)
(0.00800951 2.25442e-05 0.000192981 9.37344e-06 -5.46253e-06 6.22164e-05)
(0.00795411 2.15458e-05 0.000195561 9.35289e-06 -5.49136e-06 6.05767e-05)
(0.00800721 2.28474e-05 0.00019329 9.23593e-06 -5.06897e-06 5.82444e-05)
(0.00795034 2.1617e-05 0.000202743 9.15088e-06 -4.36699e-06 5.68539e-05)
(0.00800154 2.28977e-05 0.000193032 9.13128e-06 -3.60579e-06 5.64454e-05)
(0.00794975 2.30907e-05 0.000193081 9.28053e-06 -3.09029e-06 5.89221e-05)
(0.00800651 2.53593e-05 0.000186634 9.48078e-06 -2.90112e-06 6.03844e-05)
(0.00795087 2.48489e-05 0.000201354 9.58028e-06 -3.04965e-06 6.25936e-05)
(0.00801214 2.59658e-05 0.00020423 9.55903e-06 -3.32944e-06 6.25222e-05)
(0.00794951 2.24516e-05 0.00020487 9.11474e-06 -3.54232e-06 6.18503e-05)
(0.00801902 2.41648e-05 0.000192477 8.81475e-06 -3.66314e-06 6.04434e-05)
(0.00795054 2.17564e-05 0.000195667 8.57936e-06 -4.3684e-06 5.84624e-05)
(0.00802034 2.51012e-05 0.00019811 9.15534e-06 -4.73665e-06 5.76383e-05)
(0.00793563 2.30656e-05 0.00019829 9.90739e-06 -5.37914e-06 5.80826e-05)
(0.00801595 2.68847e-05 0.000198874 1.10572e-05 -5.32865e-06 5.82819e-05)
(0.00793075 2.6438e-05 0.000187031 1.17707e-05 -5.39785e-06 6.02825e-05)
(0.00802041 3.02098e-05 0.000188276 1.21999e-05 -4.85258e-06 5.99385e-05)
(0.00793128 2.69526e-05 0.000190725 1.20141e-05 -4.89881e-06 6.11854e-05)
(0.00801159 3.13314e-05 0.000195894 1.17201e-05 -4.68557e-06 6.11611e-05)
(0.00793386 2.72571e-05 0.000192771 1.1025e-05 -4.98193e-06 6.10823e-05)
(0.00801719 3.21557e-05 0.000183978 1.07473e-05 -4.77815e-06 6.04684e-05)
(0.00793298 2.85433e-05 0.000187393 1.04947e-05 -5.1822e-06 5.97349e-05)
(0.00801577 3.34417e-05 0.000190045 1.06516e-05 -4.96573e-06 5.92266e-05)
(0.00793107 2.66072e-05 0.000199222 1.06436e-05 -5.28791e-06 5.928e-05)
(0.00801556 3.22923e-05 0.000192067 1.07074e-05 -4.91362e-06 6.01363e-05)
(0.00793366 2.60408e-05 0.000190897 1.04753e-05 -4.7212e-06 6.2411e-05)
(0.00802525 3.36269e-05 0.000184518 1.04491e-05 -4.16094e-06 6.31331e-05)
(0.00794198 2.52499e-05 0.000200646 1.03294e-05 -4.10291e-06 6.40709e-05)
(0.00802875 3.24958e-05 0.000202876 1.03932e-05 -4.13982e-06 6.38893e-05)
(0.00794987 2.34462e-05 0.000207083 1.03352e-05 -4.08126e-06 6.38129e-05)
(0.00802689 3.02664e-05 0.000196104 1.00916e-05 -3.91289e-06 6.31804e-05)
(0.00443546 6.03009e-06 8.78322e-05 7.78878e-06 -3.91672e-06 3.06759e-05)
(0.00451248 9.54236e-06 8.37775e-05 7.49337e-06 -3.74084e-06 2.99844e-05)
(0.00443299 5.87933e-06 9.00136e-05 7.37213e-06 -3.66951e-06 3.03005e-05)