/*--------------------------------*- C++ -*----------------------------------*\
  =========                 |
  \\      /  F ield         | OpenFOAM: The Open Source CFD Toolbox
   \\    /   O peration     | Website:  https://openfoam.org
    \\  /    A nd           | Version:  10
     \\/     M anipulation  |
\*---------------------------------------------------------------------------*/
FoamFile
{
    format      ascii;
    class       volTensorField;
    location    "0";
    object      strainTensor;
}
// * * * * * * * * * * * * * * * * * * * * * * * * * * * * * * * * * * * * * //

dimensions      [0 0 -1 0 0 0 0];

internalField   uniform (0 0 0 0 0 0 0 0 0);

boundaryField
{
    bottomWall
    {
        type            fixedValue;
        value           uniform (0 0 0 0 0 0 0 0 0);
    }
    topWall
    {
        type            fixedValue;
        value           nonuniform List<tensor> 0();
    }
    sides1_half0
    {
        type            cyclic;
    }
    sides1_half1
    {
        type            cyclic;
    }
    sides2_half0
    {
        type            cyclic;
    }
    sides2_half1
    {
        type            cyclic;
    }
    inout1_half0
    {
        type            cyclic;
    }
    inout1_half1
    {
        type            cyclic;
    }
    inout2_half0
    {
        type            cyclic;
    }
    inout2_half1
    {
        type            cyclic;
    }
    procBoundary2to0
    {
        type            processor;
        value           uniform (0 0 0 0 0 0 0 0 0);
    }
    procBoundary2to0throughsides1_half1
    {
        type            processorCyclic;
        value           uniform (0 0 0 0 0 0 0 0 0);
    }
    procBoundary2to3
    {
        type            processor;
        value           uniform (0 0 0 0 0 0 0 0 0);
    }
}


// ************************************************************************* //
