/*--------------------------------*- C++ -*----------------------------------*\
  =========                 |
  \\      /  F ield         | OpenFOAM: The Open Source CFD Toolbox
   \\    /   O peration     | Website:  https://openfoam.org
    \\  /    A nd           | Version:  10
     \\/     M anipulation  |
\*---------------------------------------------------------------------------*/
FoamFile
{
    format      ascii;
    class       volScalarField;
    location    "25";
    object      nut;
}
// * * * * * * * * * * * * * * * * * * * * * * * * * * * * * * * * * * * * * //

dimensions      [0 2 -1 0 0 0 0];

internalField   nonuniform List<scalar> 
102400
(
5.51569e-17
1.20043e-15
6.27638e-17
7.5081e-16
8.78153e-16
2.43453e-16
6.45223e-16
2.40666e-16
1.46976e-15
1.01539e-16
1.47776e-15
2.11722e-16
2.55503e-16
1.55158e-15
1.1387e-16
1.28151e-15
3.50441e-17
8.94087e-16
2.27988e-16
5.68325e-16
4.6771e-16
2.94329e-17
1.04239e-15
3.84591e-18
1.57812e-15
5.65786e-17
4.78185e-17
6.4863e-16
2.83133e-17
8.54072e-16
1.26794e-17
8.0393e-16
9.28631e-18
2.45456e-16
1.42027e-15
1.05159e-20
1.36551e-15
1.67155e-17
4.50299e-16
8.13427e-16
4.95426e-15
1.35486e-14
4.55248e-15
1.39115e-14
1.20722e-14
8.3285e-15
1.1481e-14
7.99348e-15
1.79978e-14
5.57866e-15
1.88909e-14
5.86434e-15
9.58487e-15
1.50148e-14
6.02332e-15
1.32404e-14
3.30596e-15
1.22936e-14
4.97155e-15
9.90155e-15
5.97928e-15
2.7939e-15
1.01845e-14
1.53047e-15
1.41835e-14
1.87959e-15
3.58978e-15
6.00485e-15
2.68065e-15
8.77817e-15
1.56288e-15
9.18451e-15
1.26834e-15
7.13348e-15
1.00306e-14
1.22229e-15
1.36458e-14
1.82527e-15
1.09078e-14
8.9979e-15
3.18586e-14
5.93418e-14
2.99432e-14
6.8729e-14
5.70889e-14
4.85668e-14
5.7022e-14
4.86224e-14
8.1486e-14
3.80982e-14
8.73539e-14
3.70263e-14
5.82416e-14
6.76959e-14
4.20608e-14
5.98655e-14
2.67409e-14
6.02367e-14
3.01614e-14
5.27061e-14
3.06363e-14
2.17658e-14
4.52303e-14
1.45595e-14
5.82935e-14
1.34778e-14
2.38061e-14
2.7431e-14
1.9378e-14
3.86695e-14
1.25804e-14
4.04919e-14
1.01771e-14
3.96062e-14
3.81854e-14
1.30462e-14
5.55099e-14
1.42064e-14
5.45042e-14
4.09517e-14
9.83528e-14
1.63699e-13
9.59323e-14
1.99892e-13
1.63143e-13
1.56324e-13
1.69708e-13
1.61425e-13
2.38262e-13
1.37463e-13
2.56214e-13
1.37861e-13
1.99374e-13
2.07576e-13
1.64549e-13
1.87578e-13
1.15008e-13
1.98714e-13
1.10755e-13
1.85992e-13
1.04343e-13
9.14639e-14
1.42757e-13
6.68288e-14
1.61954e-13
5.92815e-14
8.30135e-14
8.70362e-14
7.28e-14
1.13671e-13
4.99411e-14
1.16549e-13
3.95669e-14
1.2254e-13
1.01443e-13
5.24573e-14
1.45421e-13
5.19678e-14
1.49483e-13
1.191e-13
2.20407e-13
3.58183e-13
2.13787e-13
4.53078e-13
3.49915e-13
3.68412e-13
3.87614e-13
3.88828e-13
5.43611e-13
3.61541e-13
5.97004e-13
3.66892e-13
5.39429e-13
5.03238e-13
4.88907e-13
5.01988e-13
3.44264e-13
5.93478e-13
3.03759e-13
5.71212e-13
2.99741e-13
3.03654e-13
3.90134e-13
2.47902e-13
3.94405e-13
2.03754e-13
2.55152e-13
2.3135e-13
2.23098e-13
2.96123e-13
1.49206e-13
2.97241e-13
1.12845e-13
3.19404e-13
2.24381e-13
1.52677e-13
3.15646e-13
1.37888e-13
3.22145e-13
2.74642e-13
4.37398e-13
7.00873e-13
4.15216e-13
8.8119e-13
6.58066e-13
7.13783e-13
7.43417e-13
7.73761e-13
1.02874e-12
7.51161e-13
1.2041e-12
7.6525e-13
1.20438e-12
1.02067e-12
1.10421e-12
1.22726e-12
7.39686e-13
1.58934e-12
7.16955e-13
1.46354e-12
7.92594e-13
9.03496e-13
9.16217e-13
8.10916e-13
9.83947e-13
5.72216e-13
7.92477e-13
6.10525e-13
6.24955e-13
7.9247e-13
4.12987e-13
7.8328e-13
2.93758e-13
8.42726e-13
4.83443e-13
4.11628e-13
6.69798e-13
3.45953e-13
6.29504e-13
6.10412e-13
1.02613e-12
1.42965e-12
8.33556e-13
1.67818e-12
1.22248e-12
1.35877e-12
1.32763e-12
1.4145e-12
1.79523e-12
1.30947e-12
2.19703e-12
1.42489e-12
2.20928e-12
1.99434e-12
1.72964e-12
2.71156e-12
1.31653e-12
3.17725e-12
1.55132e-12
3.10192e-12
1.62041e-12
2.3607e-12
1.97138e-12
1.88423e-12
2.57875e-12
1.36723e-12
2.11134e-12
1.69983e-12
1.53542e-12
2.18852e-12
1.0466e-12
2.33664e-12
7.45757e-13
2.25477e-12
1.22649e-12
1.10623e-12
1.54602e-12
1.01422e-12
1.27196e-12
1.37918e-12
2.58278e-12
3.80749e-12
2.0575e-12
3.77075e-12
2.50243e-12
2.8306e-12
2.68478e-12
2.84984e-12
3.53183e-12
2.40117e-12
3.38018e-12
3.11596e-12
3.37516e-12
4.37169e-12
2.5541e-12
4.15568e-12
2.65141e-12
5.6553e-12
2.59101e-12
5.9988e-12
2.61573e-12
4.01715e-12
4.72694e-12
3.35457e-12
5.09259e-12
3.04422e-12
3.88681e-12
4.60237e-12
2.9696e-12
5.54382e-12
1.98731e-12
6.00439e-12
2.21671e-12
5.30265e-12
3.23174e-12
2.97899e-12
3.58938e-12
3.10616e-12
3.58009e-12
3.11627e-12
5.33673e-12
9.12017e-12
5.82187e-12
1.11062e-11
7.31265e-12
6.32705e-12
5.47142e-12
6.94264e-12
8.51101e-12
7.86905e-12
4.44337e-12
6.43709e-12
6.3481e-12
9.39681e-12
7.34892e-12
6.10885e-12
3.7288e-12
1.2357e-11
5.17772e-12
1.0466e-11
5.57857e-12
4.45485e-12
8.54016e-12
8.69354e-12
7.58337e-12
6.4365e-12
4.22604e-12
9.82692e-12
5.62639e-12
1.20141e-11
3.57925e-12
8.11935e-12
5.29646e-12
1.18896e-11
7.89472e-12
6.20893e-12
6.82327e-12
6.73282e-12
1.08695e-11
9.4291e-12
1.50115e-11
1.52176e-11
8.87805e-12
2.44822e-11
2.91207e-11
2.36732e-11
9.91133e-12
1.25469e-11
1.55983e-11
3.38427e-11
1.64052e-11
1.13594e-11
1.01497e-11
1.72694e-11
2.69188e-11
2.65608e-11
6.55653e-12
1.53718e-11
1.35989e-11
2.69706e-11
1.84952e-11
9.73088e-12
6.1637e-12
2.15423e-11
1.81994e-11
1.85339e-11
5.78928e-12
1.04893e-11
1.03516e-11
2.80498e-11
1.19051e-11
9.60197e-12
6.32328e-12
1.79446e-11
2.35797e-11
1.4912e-11
9.12819e-12
8.95249e-12
1.60994e-11
3.17682e-11
6.41847e-11
5.46557e-11
2.12212e-11
1.87747e-11
4.08849e-11
1.15877e-10
4.88376e-11
3.14219e-11
1.20055e-11
4.7801e-11
1.06926e-10
5.47367e-11
2.25688e-11
1.50638e-11
3.69407e-11
1.46834e-10
4.52439e-11
2.96667e-11
1.18592e-11
5.87246e-11
8.64972e-11
7.69639e-11
1.31388e-11
1.80517e-11
3.73005e-11
7.76704e-11
3.52401e-11
2.09051e-11
1.01275e-11
3.77176e-11
6.79635e-11
4.53282e-11
2.11273e-11
1.46755e-11
3.56784e-11
6.04476e-11
3.2919e-11
3.03088e-11
9.4419e-12
3.75574e-11
4.80039e-11
2.29484e-10
1.19732e-10
1.27328e-10
2.7977e-11
9.68342e-11
2.61547e-10
1.93187e-10
1.13958e-10
4.70177e-11
1.13087e-10
2.7729e-10
1.62261e-10
1.19573e-10
3.13491e-11
1.36914e-10
2.44524e-10
2.5594e-10
1.10368e-10
3.14058e-11
1.21054e-10
4.56958e-10
1.5638e-10
1.21145e-10
1.44378e-11
9.06047e-11
2.74609e-10
1.60797e-10
1.16886e-10
2.01788e-11
8.26543e-11
2.88788e-10
1.43766e-10
1.37014e-10
1.58788e-11
6.98176e-11
2.09066e-10
1.55882e-10
1.39554e-10
4.37586e-11
3.86673e-11
1.82094e-10
3.83275e-10
7.35226e-10
6.45375e-10
4.0968e-11
2.23171e-10
6.11176e-10
7.2192e-10
7.47226e-10
2.32338e-11
2.21261e-10
5.19791e-10
9.05056e-10
7.7874e-10
3.22899e-11
1.77626e-10
7.57741e-10
8.04632e-10
5.60357e-10
2.04395e-11
3.83849e-10
8.90855e-10
9.26333e-10
4.40303e-10
2.14495e-11
3.1841e-10
7.42793e-10
7.91223e-10
5.21273e-10
2.0737e-11
2.66394e-10
6.53038e-10
9.53446e-10
4.92699e-10
4.0078e-11
2.75931e-10
5.93238e-10
7.15428e-10
7.53267e-10
1.58662e-09
2.95729e-11
9.06857e-10
2.16571e-09
3.78612e-09
1.31266e-09
2.99128e-11
1.03104e-09
1.97379e-09
4.32744e-09
1.20829e-09
4.02399e-11
8.87227e-10
2.47834e-09
4.37692e-09
1.42547e-09
3.38896e-11
9.77906e-10
2.23044e-09
3.86554e-09
1.25448e-09
1.82263e-11
1.24304e-09
2.70463e-09
3.71842e-09
1.15125e-09
1.31543e-11
1.2092e-09
2.53557e-09
3.95362e-09
1.37783e-09
2.08216e-11
1.35107e-09
3.06163e-09
3.84254e-09
1.61824e-09
1.61206e-11
1.2632e-09
2.20627e-09
4.42051e-09
1.1509e-08
8.07436e-10
2.62788e-09
1.01147e-08
1.11992e-08
9.78178e-09
8.93871e-10
2.70245e-09
8.80127e-09
1.2684e-08
8.87377e-09
1.07799e-09
2.16324e-09
9.77311e-09
1.18994e-08
1.01207e-08
1.34236e-09
2.18641e-09
9.45759e-09
1.08326e-08
8.74359e-09
9.51045e-10
1.56153e-09
9.75174e-09
1.03414e-08
9.12677e-09
8.48967e-10
2.05628e-09
1.03951e-08
1.20552e-08
1.08094e-08
8.05143e-10
3.05108e-09
1.30837e-08
1.14473e-08
1.22467e-08
6.80784e-10
2.61668e-09
1.05028e-08
1.37004e-08
3.61634e-08
1.3222e-08
6.41589e-09
4.25725e-08
3.96452e-08
3.05648e-08
1.49726e-08
6.03516e-09
4.00677e-08
4.33256e-08
2.63583e-08
1.49349e-08
6.16899e-09
3.96446e-08
3.93959e-08
2.82458e-08
1.71098e-08
5.30034e-09
3.9194e-08
3.53333e-08
2.35226e-08
1.37362e-08
3.37794e-09
3.84561e-08
3.1005e-08
2.60798e-08
1.38017e-08
3.78448e-09
4.36702e-08
3.89683e-08
3.23658e-08
1.38094e-08
6.47506e-09
5.18105e-08
3.85169e-08
3.53751e-08
1.27328e-08
3.84875e-09
4.7656e-08
4.70051e-08
9.13698e-08
7.05777e-08
4.40334e-08
1.23225e-07
1.21987e-07
8.0437e-08
8.55954e-08
3.93711e-08
1.22557e-07
1.31596e-07
6.72325e-08
8.31623e-08
4.75229e-08
1.14398e-07
1.18057e-07
7.16067e-08
8.69417e-08
3.87643e-08
1.19245e-07
1.08369e-07
5.96301e-08
7.05021e-08
3.40466e-08
1.15914e-07
9.21777e-08
6.99139e-08
6.99969e-08
2.91939e-08
1.31891e-07
1.14759e-07
8.31269e-08
7.19886e-08
4.62344e-08
1.47199e-07
1.11682e-07
8.70961e-08
6.36011e-08
3.00574e-08
1.37206e-07
1.38176e-07
6.41848e-09
3.79987e-09
3.24682e-09
2.25997e-09
1.09433e-08
6.51639e-09
5.75293e-09
3.17051e-09
1.5475e-09
1.62342e-08
5.23487e-09
5.64722e-09
3.12691e-09
2.25892e-09
1.54548e-08
9.83264e-09
7.04469e-09
4.06605e-09
3.42657e-09
1.75132e-08
8.73093e-09
1.38911e-08
5.04542e-09
6.5815e-09
1.30701e-08
1.19552e-08
8.75471e-09
4.66985e-09
4.96588e-09
1.44579e-08
8.39449e-09
6.88211e-09
4.94641e-09
4.53632e-09
1.30584e-08
1.29962e-08
4.94513e-09
3.59328e-09
2.83833e-09
1.33277e-08
9.1812e-11
1.34452e-11
4.70461e-12
4.42539e-12
1.48371e-10
8.87225e-11
2.36979e-11
5.21318e-12
3.25669e-12
2.29915e-10
6.64487e-11
1.33578e-11
8.84739e-12
3.97418e-12
2.10062e-10
1.36832e-10
2.08754e-11
1.06705e-11
6.68365e-12
2.44702e-10
1.08548e-10
5.14577e-11
1.31863e-11
2.02135e-11
1.44385e-10
1.45443e-10
2.47418e-11
1.1085e-11
2.00129e-11
1.73665e-10
1.47342e-10
2.84886e-11
6.84176e-12
1.86448e-11
1.4515e-10
1.9949e-10
1.85091e-11
4.22684e-12
9.12174e-12
1.9543e-10
1.88429e-12
5.68562e-13
1.1604e-13
1.23141e-13
3.13772e-12
1.60667e-12
1.24868e-12
9.37371e-14
1.55127e-13
5.94959e-12
9.33127e-13
6.14794e-13
2.93807e-13
1.87405e-13
5.4807e-12
2.9316e-12
7.7456e-13
5.11099e-13
2.09034e-13
7.96966e-12
2.76868e-12
1.79747e-12
5.92239e-13
7.37827e-13
2.69143e-12
4.05933e-12
8.47528e-13
4.55329e-13
9.63946e-13
2.97339e-12
4.54623e-12
1.51053e-12
1.2633e-13
1.19507e-12
2.53973e-12
5.04311e-12
8.5378e-13
1.0882e-13
3.04749e-13
3.67263e-12
5.00664e-14
1.88551e-14
7.19335e-15
6.83488e-15
8.5809e-14
2.96341e-14
5.65926e-14
3.90815e-15
1.05593e-14
3.00092e-13
9.19015e-15
1.75581e-14
1.43572e-14
1.42492e-14
3.1374e-13
6.33346e-14
1.56213e-14
2.66178e-14
1.11167e-14
5.5562e-13
7.42462e-14
6.33852e-14
3.07638e-14
6.45138e-14
5.95265e-14
1.17664e-13
3.06576e-14
4.34063e-14
1.71169e-13
4.99303e-14
1.68648e-13
6.7899e-14
1.12609e-14
2.06061e-13
5.99659e-14
1.68315e-13
3.41893e-14
1.03598e-14
3.6275e-14
7.95035e-14
1.89817e-15
7.05634e-16
5.74383e-16
5.63559e-16
3.04229e-15
6.46465e-16
3.60512e-15
5.30209e-16
8.01231e-16
2.4037e-14
4.16604e-17
8.08245e-16
2.39655e-15
1.41476e-15
3.28726e-14
8.88273e-16
1.58503e-16
1.48392e-15
7.5553e-16
7.09337e-14
1.77214e-15
2.14528e-15
1.33943e-15
4.71596e-15
2.40815e-15
4.34841e-15
2.18179e-15
4.06921e-15
3.60327e-14
7.94993e-16
6.71793e-15
2.87802e-15
1.42549e-15
4.55878e-14
3.6714e-15
6.91386e-15
1.35612e-15
1.21836e-15
7.97342e-15
2.12644e-15
1.10977e-16
9.33045e-17
8.26564e-17
1.31939e-16
1.33716e-16
3.66678e-17
4.61108e-16
1.59512e-16
1.20147e-16
2.43873e-15
2.99736e-17
1.33224e-16
1.26244e-15
1.87054e-16
4.28119e-15
2.29102e-18
6.54916e-18
3.74391e-16
8.53434e-17
1.41809e-14
4.27419e-17
7.37296e-17
3.52776e-17
2.86178e-16
5.42148e-16
3.25379e-16
6.52586e-16
2.90378e-16
7.23106e-15
7.12227e-17
3.3104e-16
1.45355e-16
2.65876e-16
1.27338e-14
7.66404e-16
2.54597e-16
8.24484e-17
1.85522e-16
3.08796e-15
8.10187e-17
3.71569e-18
5.68871e-17
2.80273e-17
1.01292e-16
1.35995e-17
6.61358e-18
1.15609e-16
6.83721e-17
6.02505e-17
3.14094e-16
1.14202e-17
2.54133e-17
8.5036e-16
5.85152e-17
5.30687e-16
2.67773e-18
1.68441e-18
3.92136e-16
1.33919e-17
3.24373e-15
3.17457e-18
2.30251e-18
4.31839e-19
1.90558e-17
2.30376e-16
4.10528e-17
4.08047e-16
7.76065e-17
1.47347e-15
2.72252e-17
2.5373e-17
1.90282e-17
1.47666e-16
3.91563e-15
1.79125e-16
2.01189e-18
2.03968e-17
7.0466e-17
1.51641e-15
6.67403e-18
2.02321e-19
3.74588e-17
1.33805e-17
1.11426e-16
6.25316e-18
1.54445e-18
5.69016e-17
3.8481e-17
4.31789e-17
3.9863e-17
2.25998e-18
1.37163e-17
5.11478e-16
4.12377e-17
5.16613e-17
3.88132e-18
7.76789e-18
3.9862e-16
2.75944e-17
5.24724e-16
2.58463e-19
1.81657e-19
3.05283e-20
2.05388e-18
9.6928e-17
2.68457e-17
3.19995e-16
1.05226e-16
2.39897e-16
5.52882e-18
6.56416e-18
1.84962e-17
1.12467e-16
9.30588e-16
2.38224e-17
1.06538e-20
4.05458e-17
1.32338e-16
5.99127e-16
5.55262e-19
7.91238e-19
1.65596e-17
2.09816e-17
1.15177e-16
3.91761e-18
7.93433e-19
3.06502e-17
1.91917e-17
1.98999e-17
3.56229e-18
5.95845e-18
2.4457e-17
2.19691e-16
2.70333e-17
6.91045e-18
4.90704e-18
3.76119e-17
2.78883e-16
2.24026e-17
4.20531e-17
4.66875e-22
1.83455e-18
1.06945e-18
8.64009e-19
3.49939e-17
3.05788e-17
1.66931e-16
4.75219e-17
1.78337e-17
1.38201e-19
7.45541e-18
1.96248e-17
4.37431e-17
1.0023e-16
9.31539e-19
1.38396e-18
1.61949e-16
2.00854e-16
1.58543e-16
3.04871e-20
3.16874e-18
3.41575e-17
8.52894e-17
1.64497e-16
5.80405e-18
1.62104e-18
1.14078e-17
6.07329e-18
7.4631e-18
1.10995e-18
1.21133e-17
2.84139e-17
5.94235e-17
8.85361e-18
7.85521e-19
9.35238e-18
4.15332e-17
8.80899e-17
3.06194e-18
1.27462e-18
4.5218e-19
1.65612e-17
4.36211e-18
8.98012e-19
1.02754e-17
1.91421e-17
5.18035e-17
7.85508e-18
7.70872e-19
6.85731e-19
1.08722e-17
6.65203e-18
3.06344e-18
1.29287e-18
4.44118e-19
4.40031e-17
2.76667e-16
9.98913e-17
9.06307e-18
9.29897e-20
5.63795e-17
1.87618e-16
2.01414e-16
2.13481e-16
2.54252e-17
1.7843e-18
5.07311e-18
9.83908e-19
3.63157e-18
5.73664e-18
1.92648e-17
1.41046e-17
8.35082e-18
1.56412e-18
1.56174e-19
4.1682e-18
5.11892e-18
2.08406e-18
1.13005e-18
2.00334e-17
2.09283e-17
4.8027e-17
6.56173e-18
5.99871e-19
1.96628e-18
4.41387e-18
6.03882e-18
1.87608e-19
8.64632e-19
5.78512e-18
1.51715e-17
4.50152e-18
4.49442e-19
1.04937e-20
1.06801e-17
8.80759e-17
1.01304e-16
2.83008e-18
4.05164e-20
2.54667e-18
1.83708e-16
2.04646e-16
1.04135e-16
7.514e-17
1.28529e-17
7.00274e-18
2.09565e-17
2.70147e-18
3.92832e-18
1.42744e-17
2.4208e-17
3.05305e-18
1.35654e-18
6.81673e-19
1.73525e-19
1.19664e-19
6.49549e-21
3.56167e-18
2.20495e-17
3.67641e-17
8.00066e-17
4.18931e-17
1.453e-18
1.47661e-19
7.37615e-19
4.07402e-19
7.50825e-19
3.58347e-18
1.56585e-17
1.53085e-17
1.09731e-17
1.33804e-17
2.67768e-18
1.46161e-19
1.91689e-17
2.25201e-17
1.50311e-18
2.22372e-20
4.66819e-18
1.23457e-16
5.93344e-17
2.19195e-17
5.89318e-18
3.2629e-18
2.95358e-17
6.72791e-17
3.53065e-17
8.22975e-19
1.50893e-18
1.05096e-17
1.6226e-17
9.98312e-19
4.03651e-19
1.5684e-18
9.51349e-19
5.69596e-19
3.38433e-19
1.37485e-17
4.80586e-17
2.51402e-17
2.87625e-17
1.93608e-18
4.58245e-19
1.65934e-18
1.75542e-18
9.6575e-18
4.94518e-17
5.20132e-17
1.32064e-17
1.88444e-18
3.94407e-18
2.42045e-17
6.157e-18
1.67334e-18
5.74948e-18
8.44961e-19
5.02158e-19
1.95587e-17
1.22853e-16
1.90349e-16
3.57202e-18
4.30735e-18
3.26779e-17
6.65639e-17
7.5668e-17
2.2231e-17
1.08999e-18
9.96476e-19
5.92976e-19
9.03434e-19
1.19614e-18
2.11783e-19
7.34069e-19
5.79301e-19
2.54401e-18
1.81114e-19
8.11047e-19
9.50355e-18
8.97138e-18
1.1482e-18
3.45045e-19
5.955e-20
1.25552e-17
3.08598e-17
1.09858e-17
2.61929e-17
9.40314e-17
9.53145e-17
4.95718e-17
5.00411e-19
3.18392e-19
2.90303e-17
2.26866e-17
2.25252e-18
5.14375e-19
2.27561e-19
3.87892e-18
6.27959e-17
7.31176e-17
2.11241e-17
5.05263e-20
2.4239e-18
1.7429e-17
2.37128e-17
1.26096e-17
6.38359e-19
1.71061e-21
5.54495e-19
1.64661e-18
5.80639e-18
6.70594e-18
3.32689e-18
3.36821e-19
1.93428e-18
1.60294e-18
3.71799e-19
1.6208e-18
9.2114e-19
3.15339e-20
1.98895e-20
4.20882e-19
4.4424e-18
8.03232e-17
5.7996e-17
6.6845e-18
1.48756e-18
4.08868e-18
3.83319e-17
2.12748e-16
3.86879e-17
5.79096e-18
2.39295e-17
9.31722e-17
5.03722e-17
2.82121e-18
1.32496e-19
8.14702e-18
2.35216e-17
4.28488e-18
1.15097e-19
1.39338e-15
2.68709e-17
7.98763e-16
3.72675e-16
2.04014e-16
9.32464e-16
8.85196e-17
6.93166e-16
4.73885e-17
2.21181e-15
2.96875e-17
7.14277e-16
8.23428e-16
8.18417e-17
2.47774e-15
1.11686e-16
1.20438e-15
3.74105e-16
7.94555e-16
1.09911e-15
4.03335e-16
1.42259e-15
2.81735e-17
4.33749e-15
5.09662e-17
1.47205e-15
8.53148e-16
4.9184e-17
2.09908e-15
2.93485e-16
1.60756e-15
5.28171e-17
7.48811e-16
1.39469e-15
6.54799e-18
4.59378e-15
6.75374e-19
1.14263e-15
3.64781e-16
3.72568e-16
1.20435e-14
4.40326e-15
1.0463e-14
8.4517e-15
5.83429e-15
1.27245e-14
3.65616e-15
1.23538e-14
3.19998e-15
2.44527e-14
2.28548e-15
1.66639e-14
9.51254e-15
8.2952e-15
2.27031e-14
7.08711e-15
1.88844e-14
1.07513e-14
1.70051e-14
1.83084e-14
1.1944e-14
2.1838e-14
5.40975e-15
4.39501e-14
4.51003e-15
2.72966e-14
1.12392e-14
8.45048e-15
2.26459e-14
1.03082e-14
1.99814e-14
4.80646e-15
1.5396e-14
1.67538e-14
3.79082e-15
3.70293e-14
1.26966e-15
2.13841e-14
5.79117e-15
1.27835e-14
4.9738e-14
3.51573e-14
4.7523e-14
4.78712e-14
3.21197e-14
6.10924e-14
2.24204e-14
6.01737e-14
2.07143e-14
1.01503e-13
1.48524e-14
8.1625e-14
4.00835e-14
5.18842e-14
8.45443e-14
4.35069e-14
8.19661e-14
5.71779e-14
8.2293e-14
8.68e-14
6.48307e-14
1.0074e-13
4.0974e-14
1.77607e-13
3.30952e-14
1.33671e-13
5.47346e-14
6.12352e-14
9.93896e-14
6.41088e-14
8.92237e-14
3.65289e-14
7.91961e-14
7.82361e-14
3.11198e-14
1.44079e-13
1.32842e-14
1.05399e-13
3.03981e-14
7.50152e-14
1.461e-13
1.36716e-13
1.43976e-13
1.61546e-13
1.05932e-13
1.8914e-13
7.72281e-14
1.79179e-13
6.90462e-14
2.78323e-13
5.0097e-14
2.25309e-13
1.09968e-13
1.51735e-13
2.09843e-13
1.27448e-13
2.13076e-13
1.6452e-13
2.19508e-13
2.38693e-13
1.9553e-13
2.71359e-13
1.41892e-13
4.7136e-13
1.16517e-13
3.89902e-13
1.75591e-13
2.08782e-13
2.88661e-13
2.23874e-13
2.62459e-13
1.39542e-13
2.51159e-13
2.47356e-13
1.14765e-13
4.09643e-13
5.66345e-14
3.24686e-13
1.0088e-13
2.53589e-13
3.71302e-13
3.7752e-13
3.86475e-13
4.24453e-13
2.94445e-13
4.78545e-13
2.1631e-13
4.44792e-13
1.81252e-13
6.51494e-13
1.3564e-13
5.00058e-13
2.6172e-13
3.24312e-13
4.54006e-13
2.68027e-13
4.35276e-13
3.41808e-13
4.69458e-13
4.56396e-13
4.46752e-13
5.49197e-13
3.12278e-13
1.02282e-12
2.75596e-13
8.70225e-13
4.27179e-13
5.23982e-13
6.54149e-13
5.7467e-13
6.50375e-13
3.66894e-13
6.35866e-13
6.62525e-13
3.05533e-13
1.02651e-12
1.62291e-13
8.45564e-13
2.53314e-13
6.87902e-13
9.28954e-13
8.46036e-13
9.56148e-13
1.00095e-12
7.39919e-13
1.09247e-12
5.53596e-13
1.02751e-12
4.51777e-13
1.39546e-12
3.80748e-13
1.00098e-12
6.3172e-13
6.56183e-13
9.34841e-13
5.40587e-13
8.97351e-13
5.7091e-13
9.43695e-13
7.65846e-13
7.97792e-13
1.04001e-12
5.26738e-13
1.85665e-12
5.14628e-13
1.61794e-12
8.21789e-13
1.08062e-12
1.25088e-12
1.14373e-12
1.37675e-12
8.2415e-13
1.27236e-12
1.58274e-12
6.71456e-13
2.3663e-12
3.77248e-13
2.04587e-12
5.89331e-13
1.49935e-12
2.11843e-12
1.69282e-12
2.12393e-12
2.17873e-12
1.74053e-12
2.23488e-12
1.34986e-12
2.17201e-12
1.14908e-12
2.73377e-12
1.03988e-12
2.08176e-12
1.52176e-12
1.35252e-12
2.1249e-12
9.88632e-13
2.05715e-12
1.21085e-12
1.78995e-12
1.42706e-12
1.28375e-12
1.91779e-12
9.28249e-13
3.28654e-12
8.2053e-13
2.64166e-12
1.31272e-12
1.98831e-12
2.18574e-12
1.91846e-12
2.30655e-12
1.56285e-12
2.15398e-12
3.35521e-12
1.17668e-12
4.84068e-12
7.59294e-13
4.06737e-12
1.56326e-12
2.76887e-12
4.1192e-12
2.70166e-12
4.19714e-12
4.37824e-12
4.14847e-12
3.77677e-12
2.6971e-12
4.17501e-12
2.87059e-12
5.40086e-12
2.35266e-12
3.5082e-12
4.00638e-12
3.1451e-12
5.03159e-12
2.04832e-12
3.34796e-12
3.01861e-12
4.54735e-12
3.29893e-12
2.21524e-12
3.48746e-12
1.64693e-12
7.48895e-12
1.8392e-12
4.20453e-12
1.87399e-12
3.30044e-12
4.45771e-12
3.45329e-12
3.49962e-12
2.38529e-12
2.92853e-12
6.87715e-12
2.18324e-12
7.52116e-12
1.39251e-12
5.9459e-12
3.84507e-12
5.15053e-12
1.03873e-11
2.99432e-12
5.01358e-12
7.06142e-12
1.23225e-11
8.23135e-12
3.66501e-12
4.45596e-12
6.00986e-12
1.28149e-11
6.51808e-12
4.279e-12
5.05181e-12
7.83522e-12
1.38452e-11
6.55138e-12
4.84225e-12
3.86189e-12
9.52179e-12
1.33597e-11
5.68184e-12
6.06176e-12
2.59719e-12
1.46846e-11
8.2813e-12
1.09785e-11
3.18318e-12
3.60582e-12
9.20358e-12
1.13377e-11
8.52822e-12
3.50927e-12
3.08308e-12
1.14117e-11
7.9968e-12
1.44096e-11
2.12246e-12
5.27142e-12
7.21418e-12
1.26342e-11
6.21736e-11
1.26621e-11
5.76157e-12
1.00443e-11
2.42252e-11
4.82454e-11
1.50791e-11
5.24717e-12
7.88392e-12
2.46387e-11
3.53219e-11
1.57835e-11
5.33509e-12
9.63802e-12
2.6613e-11
4.34385e-11
1.97897e-11
6.52388e-12
1.10066e-11
2.97218e-11
3.87852e-11
2.29872e-11
7.53696e-12
1.3141e-11
2.21055e-11
7.01207e-11
1.5601e-11
6.43847e-12
1.07545e-11
2.7276e-11
5.66604e-11
1.75834e-11
5.89387e-12
1.18545e-11
2.22714e-11
8.04162e-11
1.33805e-11
6.15216e-12
9.45519e-12
2.46304e-11
1.7187e-10
2.94529e-10
2.8204e-11
1.28707e-10
1.01682e-10
1.56436e-10
2.60094e-10
1.82002e-11
9.05227e-11
1.43221e-10
9.74794e-11
3.01757e-10
8.49428e-12
1.16327e-10
1.46036e-10
1.11784e-10
3.05951e-10
9.23798e-12
1.00962e-10
1.42992e-10
1.1431e-10
3.16087e-10
1.63399e-11
1.38106e-10
1.10721e-10
1.99994e-10
2.48129e-10
1.88856e-11
6.88839e-11
1.3416e-10
1.51685e-10
3.24084e-10
2.51475e-11
1.14779e-10
1.094e-10
2.18068e-10
2.95716e-10
2.40241e-11
6.49661e-11
1.42984e-10
1.13647e-09
1.50275e-09
1.28647e-09
1.3782e-11
1.48519e-09
1.56545e-09
1.19137e-09
1.3652e-09
4.12289e-12
2.24061e-09
1.34815e-09
1.51283e-09
9.15878e-10
2.19309e-11
2.18546e-09
1.55822e-09
1.37649e-09
1.13471e-09
6.0656e-12
3.12737e-09
1.52103e-09
1.39039e-09
1.04344e-09
3.33217e-11
2.04878e-09
1.6743e-09
1.0431e-09
1.11557e-09
4.89257e-12
2.25535e-09
1.41262e-09
1.33717e-09
1.25803e-09
1.54309e-11
1.70698e-09
1.5619e-09
1.17071e-09
1.43036e-09
3.90643e-12
2.13161e-09
1.47275e-08
1.199e-08
8.42433e-09
1.28092e-09
1.8979e-09
1.84781e-08
1.10759e-08
1.01865e-08
1.28798e-09
2.93948e-09
1.75434e-08
1.03391e-08
8.59386e-09
1.25382e-09
2.59742e-09
2.78377e-08
9.78783e-09
1.04324e-08
1.46712e-09
4.52273e-09
2.16861e-08
1.5022e-08
8.15129e-09
1.19827e-09
4.10135e-09
2.59902e-08
1.06449e-08
9.27003e-09
1.3229e-09
3.84276e-09
1.81202e-08
1.3029e-08
9.32624e-09
1.21894e-09
2.86023e-09
2.52041e-08
9.67843e-09
1.03295e-08
1.49796e-09
2.94833e-09
6.03802e-08
1.2883e-07
5.01318e-08
2.07042e-08
1.5896e-10
6.59103e-08
1.02188e-07
6.48245e-08
1.91232e-08
2.14652e-10
5.96059e-08
1.08124e-07
5.5588e-08
2.24829e-08
2.90068e-10
1.04993e-07
9.67155e-08
6.38129e-08
2.15869e-08
1.0353e-10
7.08485e-08
1.79757e-07
5.84662e-08
2.58135e-08
1.97601e-10
1.06455e-07
1.25711e-07
6.51545e-08
2.18654e-08
1.10237e-10
6.86888e-08
1.57809e-07
6.39573e-08
2.34089e-08
1.12879e-10
1.07542e-07
1.1511e-07
7.1354e-08
1.97794e-08
1.39347e-10
8.64448e-08
7.97e-07
3.1587e-07
1.06733e-07
6.65388e-09
8.73484e-08
5.19343e-07
3.94154e-07
1.04553e-07
9.89009e-09
7.87015e-08
6.16163e-07
3.11032e-07
1.09392e-07
1.12099e-08
1.16114e-07
6.14676e-07
3.93254e-07
1.02638e-07
1.28652e-08
7.33937e-08
8.88351e-07
3.94602e-07
1.24166e-07
6.52171e-09
1.15836e-07
7.33166e-07
4.34657e-07
1.24195e-07
6.33027e-09
9.03035e-08
8.90328e-07
3.91399e-07
1.21389e-07
5.03974e-09
1.25139e-07
7.26276e-07
4.41887e-07
1.15514e-07
5.51581e-09
1.32628e-07
1.39183e-06
1.41717e-06
4.10071e-07
3.13407e-08
1.4144e-07
9.30267e-07
1.54784e-06
4.14087e-07
3.71124e-08
1.28442e-07
1.05791e-06
1.28857e-06
4.06257e-07
4.28998e-08
1.62168e-07
1.20805e-06
1.75531e-06
3.95945e-07
4.95075e-08
1.18915e-07
1.30863e-06
1.69746e-06
4.13892e-07
4.44041e-08
1.55531e-07
1.25608e-06
1.67541e-06
4.57811e-07
3.97255e-08
1.38812e-07
1.39624e-06
1.54611e-06
4.3812e-07
2.73806e-08
1.44158e-07
1.24992e-06
1.51133e-06
4.40402e-07
3.39383e-08
6.13851e-08
8.19352e-08
8.64837e-08
1.00984e-08
3.10169e-08
6.57695e-08
1.08202e-07
9.29077e-08
9.81745e-09
4.15449e-08
7.60504e-08
8.21477e-08
8.91688e-08
1.05536e-08
4.85055e-08
9.45018e-08
9.8959e-08
1.11532e-07
1.18987e-08
4.80615e-08
8.5622e-08
1.53642e-07
1.46006e-07
1.92015e-08
4.73358e-08
8.87077e-08
1.41044e-07
1.3423e-07
1.75257e-08
3.90585e-08
6.98914e-08
1.25293e-07
1.38371e-07
1.214e-08
2.88706e-08
7.80693e-08
1.14609e-07
1.13571e-07
1.36481e-08
3.90235e-08
3.52978e-09
6.10353e-10
6.08903e-10
6.64023e-11
1.77472e-09
3.67982e-09
1.06768e-09
5.97169e-10
3.62669e-11
2.54676e-09
3.77761e-09
7.91037e-10
6.25102e-10
5.97521e-11
2.7913e-09
5.20605e-09
9.17406e-10
7.26458e-10
5.60847e-11
2.76277e-09
4.37032e-09
1.61658e-09
9.12021e-10
7.76367e-11
2.68966e-09
4.42881e-09
1.46868e-09
8.93059e-10
9.09143e-11
2.6859e-09
3.98636e-09
1.05674e-09
1.06701e-09
6.66518e-11
1.75561e-09
4.3209e-09
9.33546e-10
8.84665e-10
8.46633e-11
2.64938e-09
1.29549e-10
2.81675e-11
8.02483e-13
5.45522e-12
7.17023e-11
1.35229e-10
3.86481e-11
1.396e-12
3.08516e-12
9.95816e-11
1.15813e-10
4.09469e-11
1.69088e-12
5.19085e-12
1.05204e-10
1.86959e-10
5.65822e-11
6.68661e-13
5.87416e-12
1.05619e-10
1.53452e-10
8.25016e-11
5.77216e-13
2.885e-12
1.15102e-10
1.68181e-10
8.44653e-11
9.01567e-13
3.60147e-12
1.39738e-10
1.61474e-10
4.3362e-11
1.13207e-12
4.66787e-12
7.96402e-11
1.48406e-10
3.08607e-11
1.24477e-12
3.51305e-12
1.3537e-10
3.9251e-12
1.3942e-12
1.88788e-13
4.70173e-13
2.20106e-12
4.12647e-12
1.45483e-12
3.88471e-13
4.86133e-13
2.77585e-12
2.8299e-12
2.1478e-12
3.71176e-13
7.09238e-13
3.07535e-12
5.86067e-12
3.48738e-12
4.72908e-13
8.26034e-13
2.96028e-12
4.95941e-12
4.85539e-12
3.36137e-13
2.81484e-13
3.87463e-12
5.4818e-12
6.09227e-12
5.73613e-14
3.79447e-13
6.53856e-12
5.56575e-12
2.20973e-12
3.09077e-13
4.40247e-13
3.53989e-12
4.16022e-12
1.25414e-12
2.64278e-13
2.27908e-13
6.01921e-12
1.27999e-13
4.47224e-14
1.25885e-14
2.07913e-14
6.67932e-14
1.33899e-13
3.35772e-14
4.2492e-14
4.92403e-14
6.29623e-14
6.70761e-14
7.10605e-14
4.02851e-14
9.36441e-14
8.56842e-14
2.07892e-13
1.37255e-13
6.82468e-14
9.41851e-14
6.32402e-14
1.88644e-13
2.2126e-13
3.95134e-14
1.5576e-14
1.03744e-13
1.91717e-13
4.17629e-13
5.80083e-15
3.90169e-14
3.33118e-13
1.92126e-13
6.75344e-14
3.23129e-14
2.72571e-14
2.32244e-13
1.00515e-13
3.46934e-14
2.5987e-14
7.13377e-15
2.95411e-13
6.06934e-15
1.52167e-15
1.63911e-16
8.03895e-16
3.73143e-15
5.17766e-15
6.77252e-16
2.74146e-15
4.71858e-15
2.08617e-15
1.53778e-15
1.6026e-15
3.59262e-15
1.63231e-14
4.10662e-15
7.78426e-15
3.72362e-15
5.83206e-15
1.59517e-14
1.58033e-15
1.03288e-14
9.49372e-15
2.16303e-15
6.64433e-16
1.77035e-15
1.19485e-14
4.18522e-14
1.81624e-15
4.96931e-15
1.85998e-14
7.1337e-15
1.58125e-15
1.48923e-15
1.67991e-15
2.55552e-14
1.91787e-15
9.03529e-16
7.18477e-16
1.26159e-16
2.06199e-14
6.10609e-16
1.03346e-16
9.76999e-18
1.00642e-16
4.17481e-16
2.41259e-16
1.87152e-17
2.43169e-16
6.52857e-16
3.43682e-16
6.20151e-17
4.85092e-17
5.5318e-16
4.04356e-15
7.91185e-16
2.75676e-16
7.66126e-17
8.05202e-16
4.99953e-15
2.96906e-16
8.44499e-16
4.4578e-16
1.41873e-16
7.03531e-17
2.59471e-17
1.84111e-15
7.64438e-15
9.99623e-16
9.46526e-16
7.73136e-16
2.38851e-16
9.24955e-17
2.05237e-16
1.29446e-16
4.20726e-15
3.12975e-17
7.36137e-17
4.63875e-17
8.42872e-18
2.35057e-15
9.15648e-17
2.55763e-17
1.25303e-17
2.11636e-17
8.70924e-17
1.45215e-17
5.87005e-19
4.03229e-17
1.64188e-16
9.64523e-17
4.86114e-18
2.65686e-17
1.79891e-16
1.15319e-15
2.14336e-16
7.28024e-18
2.47755e-18
2.1603e-16
2.18749e-15
1.09708e-16
6.81994e-17
2.04485e-17
1.72118e-17
3.02626e-17
3.83043e-18
3.75112e-16
2.87368e-15
4.79374e-16
2.36882e-16
9.39566e-18
1.28361e-17
4.56937e-17
1.42948e-16
3.23868e-17
7.57337e-16
2.65211e-18
4.31852e-17
8.43167e-17
8.08905e-18
3.52882e-16
1.48231e-17
1.87359e-17
2.92866e-18
6.17659e-18
3.24562e-17
3.75711e-18
4.5805e-18
1.60136e-17
4.97581e-17
1.9485e-17
1.24785e-18
4.18225e-17
1.34597e-16
2.57001e-16
5.00747e-17
5.91145e-19
2.9517e-18
1.2749e-16
8.75391e-16
2.41278e-17
4.51617e-18
2.39058e-18
4.95897e-18
1.25553e-17
2.50044e-18
9.42097e-17
1.26909e-15
1.83621e-16
4.96482e-17
4.46605e-19
6.07079e-18
7.64359e-17
1.21382e-16
3.52465e-17
9.82672e-17
1.30089e-18
7.22884e-17
1.64878e-16
1.98206e-17
4.73387e-17
4.88568e-18
2.60247e-17
1.76542e-18
1.60485e-17
2.30775e-17
3.11211e-18
6.88151e-18
7.53023e-18
1.57149e-17
9.38788e-18
1.38554e-17
5.51802e-17
9.32467e-17
4.19555e-17
9.3592e-18
3.40211e-19
2.25217e-17
1.27935e-16
2.76565e-16
1.70086e-18
8.90364e-20
1.37976e-18
3.00186e-18
4.93159e-18
2.34071e-18
3.22087e-17
4.20165e-16
3.8412e-17
4.19427e-18
3.45722e-20
7.17503e-18
7.48072e-17
4.00739e-17
7.99472e-18
4.6712e-18
1.95265e-18
2.40618e-16
2.32551e-16
2.34095e-17
4.61526e-18
6.18613e-18
8.94785e-17
3.18739e-17
7.28404e-17
2.69914e-17
3.19153e-18
3.95776e-18
2.87354e-18
7.54792e-18
1.39034e-17
2.69629e-17
5.24112e-17
4.26269e-17
1.17258e-17
2.74061e-18
5.59663e-18
4.3371e-17
6.09466e-17
2.35631e-17
8.82437e-20
1.53597e-18
8.95795e-18
5.7231e-18
3.16849e-18
1.75507e-18
1.21678e-17
9.85643e-17
4.21649e-18
6.85213e-20
4.18108e-19
7.58401e-18
2.42996e-17
1.85394e-18
1.28196e-19
1.1017e-19
3.07917e-17
3.94885e-16
1.37231e-16
6.59652e-18
4.15249e-19
6.64169e-17
3.29625e-16
1.41611e-16
1.57646e-16
3.91446e-17
1.04024e-18
1.84672e-18
1.11813e-18
5.55898e-18
2.80898e-17
3.2699e-17
2.77686e-17
1.42993e-17
5.13699e-18
1.41688e-18
3.89705e-18
8.03214e-18
9.76207e-19
9.23827e-19
3.53097e-18
4.41837e-17
4.2137e-17
9.14685e-18
1.31506e-18
4.03761e-19
1.563e-18
7.4149e-18
6.26983e-20
3.85737e-18
9.28801e-18
6.64141e-18
5.96781e-18
7.59172e-19
7.59628e-20
5.64335e-18
6.72731e-17
1.39283e-16
6.6795e-18
5.40087e-19
3.76185e-18
2.44674e-16
2.73059e-16
5.38909e-17
4.70041e-17
1.80564e-17
4.57114e-19
1.50252e-17
5.53153e-18
1.12354e-17
5.44624e-17
4.12671e-17
1.07588e-17
6.33468e-18
3.38669e-18
8.52041e-19
3.50337e-19
5.07557e-20
8.63769e-19
9.74252e-18
4.94295e-17
1.11834e-16
2.86478e-17
5.75248e-19
6.6006e-19
5.9219e-19
4.66395e-20
1.48494e-18
7.38193e-18
3.06829e-17
2.29089e-17
4.28033e-18
6.05093e-18
1.95444e-18
1.50067e-19
1.25437e-17
1.69931e-17
2.15905e-18
2.97822e-19
1.06206e-17
1.21636e-16
4.11462e-17
5.57473e-18
3.38096e-18
1.89797e-18
7.56844e-18
3.67638e-17
5.18412e-17
4.07415e-18
5.4228e-18
3.37176e-17
2.88833e-17
5.88723e-18
9.77062e-19
2.34103e-18
1.29548e-18
6.03925e-19
1.23955e-19
7.20889e-18
3.39228e-17
4.57522e-17
2.21631e-17
2.0419e-19
2.36841e-19
3.28295e-18
2.00869e-18