/*--------------------------------*- C++ -*----------------------------------*\
  =========                 |
  \\      /  F ield         | OpenFOAM: The Open Source CFD Toolbox
   \\    /   O peration     | Website:  https://openfoam.org
    \\  /    A nd           | Version:  10
     \\/     M anipulation  |
\*---------------------------------------------------------------------------*/
FoamFile
{
    format      ascii;
    class       surfaceScalarField;
    location    "25";
    object      phi;
}
// * * * * * * * * * * * * * * * * * * * * * * * * * * * * * * * * * * * * * //

dimensions      [0 3 -1 0 0 0 0];

internalField   nonuniform List<scalar> 
300480
(
2.82378e-05
4.00164e-08
-3.70174e-06
2.69627e-05
4.74038e-07
-5.47521e-06
2.68197e-05
-1.74878e-07
-1.81275e-06
2.69137e-05
2.68611e-06
1.89931e-07
2.73677e-05
5.58797e-06
1.70172e-06
2.67134e-05
4.59141e-06
2.47857e-06
2.49316e-05
-1.17289e-06
3.42025e-06
2.365e-05
-7.54336e-06
4.01529e-06
2.34938e-05
-9.07886e-06
3.02804e-06
2.27245e-05
-4.12562e-06
3.05676e-06
2.13253e-05
2.80383e-06
2.47044e-06
1.97349e-05
3.88166e-06
3.27731e-06
1.87001e-05
-3.9134e-06
6.92057e-06
1.90438e-05
-1.17399e-05
7.47841e-06
2.00985e-05
-1.09683e-05
5.06072e-06
2.11286e-05
-5.22376e-06
1.85794e-06
2.17773e-05
5.33511e-08
-5.7627e-07
2.29697e-05
1.87786e-07
-4.31225e-07
2.40723e-05
-4.83823e-06
2.28211e-06
2.49773e-05
-4.60548e-06
2.74984e-06
2.45742e-05
7.21001e-06
-1.65246e-06
2.52761e-05
9.34549e-06
-1.79166e-07
2.59143e-05
2.73279e-06
2.854e-06
2.54556e-05
-9.37953e-07
3.12132e-06
2.46713e-05
-2.9716e-06
2.70581e-06
2.26612e-05
-5.4842e-06
4.02593e-06
1.759e-05
-1.24695e-06
4.46074e-06
1.34838e-05
-1.45776e-06
5.88786e-06
1.22368e-05
-4.86829e-06
7.38596e-06
1.27162e-05
-5.24e-06
5.95157e-06
1.55845e-05
-3.08315e-06
1.85746e-06
1.86113e-05
2.29357e-06
-1.70456e-06
2.03696e-05
5.70953e-06
-1.2914e-06
2.14204e-05
3.85523e-06
-4.63255e-07
2.24726e-05
-8.0277e-07
-4.12623e-06
2.5341e-05
-6.43726e-06
-6.56911e-06
3.02466e-05
-6.24385e-06
-4.61784e-07
3.26288e-05
-5.22672e-06
1.16343e-05
3.25615e-05
-4.56595e-06
1.11071e-05
-6.13874e-06
4.26912e-06
0.000100855
-4.05488e-06
1.47544e-06
9.24092e-05
2.78749e-06
-9.39778e-06
8.6275e-05
3.9837e-06
-3.7659e-06
8.34612e-05
1.07261e-05
3.86725e-06
8.68685e-05
1.65165e-05
6.78244e-06
9.26539e-05
9.66386e-06
7.54493e-06
9.24355e-05
-4.88023e-06
9.26699e-06
8.59574e-05
-1.78655e-05
8.85714e-06
7.98042e-05
-2.13743e-05
4.74131e-06
7.39092e-05
-1.00574e-05
6.43441e-06
7.1031e-05
5.08718e-06
7.44033e-06
7.22638e-05
3.13432e-06
1.00324e-05
7.10933e-05
-1.53226e-05
1.76355e-05
6.68615e-05
-2.93523e-05
1.55579e-05
6.35086e-05
-2.51929e-05
8.45172e-06
6.30436e-05
-9.71522e-06
1.74754e-06
6.65858e-05
2.53832e-06
-3.82868e-06
7.55918e-05
-3.48621e-06
-2.4207e-06
8.15684e-05
-2.13777e-05
6.96512e-06
7.97566e-05
-1.41201e-05
9.72579e-06
7.88807e-05
1.8993e-05
1.94669e-06
8.53867e-05
2.25359e-05
2.65881e-06
8.96404e-05
5.75721e-06
7.74935e-06
9.04714e-05
-3.56148e-06
1.01743e-05
9.18201e-05
-1.06769e-05
9.1948e-06
8.48141e-05
-1.56326e-05
1.12911e-05
6.73256e-05
-1.54243e-06
1.2769e-05
5.1522e-05
-1.74452e-06
1.51192e-05
4.29267e-05
-8.66554e-06
1.60814e-05
4.17765e-05
-9.4552e-06
1.16458e-05
4.72946e-05
-2.66691e-06
3.88454e-06
5.4515e-05
1.07478e-05
-1.46377e-06
6.36889e-05
1.25244e-05
2.83218e-06
7.40664e-05
5.37692e-07
5.56597e-06
7.8819e-05
-1.24773e-05
-1.40676e-06
8.09567e-05
-2.0181e-05
-1.23354e-05
8.97817e-05
-1.83789e-05
-2.2894e-06
0.000101204
-1.86562e-05
2.22506e-05
0.000109857
-2.06513e-05
2.65029e-05
-2.31728e-05
1.7802e-05
0.000190003
-2.34893e-05
1.69298e-05
0.000176051
2.73658e-06
-2.71323e-06
0.000157609
1.45782e-05
-5.3104e-06
0.000145146
2.80173e-05
4.43498e-06
0.000146842
3.53703e-05
1.20233e-05
0.000162417
1.71249e-05
1.49604e-05
0.000174443
-5.7762e-06
1.55733e-05
0.000167139
-1.84629e-05
1.32193e-05
0.000151583
-2.59414e-05
4.41468e-06
0.000137359
-1.41292e-05
5.31159e-06
0.000131534
5.29304e-06
9.53979e-06
0.000138246
-4.44419e-06
1.32312e-05
0.000139464
-3.20842e-05
2.60002e-05
0.000127368
-4.38073e-05
2.50986e-05
0.000115245
-3.65677e-05
1.27266e-05
0.000110128
-1.31604e-05
3.25302e-06
0.0001127
1.20681e-05
-5.61847e-06
0.000125881
4.23822e-06
-8.69831e-06
0.000139007
-4.02338e-05
2.09688e-06
0.000139848
-4.22142e-05
1.2992e-05
0.000139713
1.61111e-05
8.30845e-06
0.000154059
2.8838e-05
8.43906e-06
0.000163872
6.18939e-06
1.3363e-05
0.000163967
-2.03356e-06
1.68396e-05
0.000175247
-1.81725e-05
1.50979e-05
0.000180345
-3.53304e-05
1.62112e-05
0.00015538
-3.21472e-07
1.89363e-05
0.000117409
1.29777e-05
2.21836e-05
8.80013e-05
2.73384e-06
2.30462e-05
7.66296e-05
-5.46255e-06
1.67124e-05
8.09865e-05
3.09033e-06
7.94866e-06
9.00856e-05
2.7603e-05
1.27973e-06
0.000106246
2.28965e-05
1.06085e-05
0.000132974
-1.33281e-05
2.19357e-05
0.000148832
-3.83947e-05
1.50499e-05
0.000146582
-3.82802e-05
-7.08197e-06
0.000150361
-3.56321e-05
-6.95331e-06
0.000163119
-3.30568e-05
2.29801e-05
0.000177588
-3.66162e-05
3.35265e-05
-5.29256e-05
3.18501e-05
0.000257603
-6.0311e-05
2.86185e-05
0.000256073
-1.3261e-05
8.22648e-06
0.00023351
2.64809e-05
-3.39086e-06
0.000209654
5.47284e-05
4.36774e-06
0.000201674
6.47854e-05
1.54557e-05
0.000215626
3.31092e-05
2.46216e-05
0.000242628
-7.56426e-06
2.72359e-05
0.000251144
-1.72369e-05
2.28071e-05
0.000233769
-1.63111e-05
6.27938e-06
0.000210245
-5.57293e-06
-8.22268e-07
0.000198636
8.79168e-06
7.83797e-06
0.00020992
-1.8719e-05
1.31763e-05
0.000217296
-5.85501e-05
2.98756e-05
0.000198137
-5.63053e-05
3.56781e-05
0.000174311
-3.95806e-05
1.93527e-05
0.00016299
-1.49869e-05
5.3322e-06
0.000162607
2.58663e-05
-4.38464e-06
0.000169613
3.49678e-05
-1.14938e-05
0.000177794
-3.3584e-05
-6.85192e-06
0.000186443
-7.34003e-05
4.90903e-07
0.00019805
-1.62944e-05
6.67178e-06
0.000224979
1.07967e-05
1.43346e-05
0.000245568
-9.68462e-06
2.23134e-05
0.000234073
4.8475e-06
2.5922e-05
0.000231292
-4.00793e-07
2.39039e-05
0.000262429
-6.0742e-05
1.79166e-05
0.000271959
-2.97514e-05
2.03472e-05
0.000225617
3.33875e-05
2.74704e-05
0.000160853
4.52942e-05
2.99522e-05
0.000122841
2.01926e-05
2.05071e-05
0.000120431
1.38362e-05
1.05903e-05
0.00013194
4.92376e-05
4.92362e-06
0.000149141
4.64372e-05
1.80855e-05
0.000184156
-2.40846e-05
4.10551e-05
0.000217652
-7.73492e-05
4.25623e-05
0.000222123
-6.79169e-05
1.39388e-05
0.000220108
-5.8872e-05
-5.61512e-06
0.00022686
-5.14976e-05
2.10861e-05
0.000230698
-4.05157e-05
3.72975e-05
-7.67602e-05
3.6345e-05
0.000291717
-9.04934e-05
2.77588e-05
0.000303689
-4.05142e-05
7.82733e-06
0.000292965
3.02452e-05
-5.73136e-06
0.000269372
8.04334e-05
4.99705e-06
0.000255506
9.58851e-05
1.88596e-05
0.000260682
5.35363e-05
3.13048e-05
0.000287908
-1.11713e-05
3.6197e-05
0.00031606
-2.91843e-05
3.4522e-05
0.000312738
-1.05044e-05
1.5686e-05
0.000285977
1.59424e-05
-4.64635e-06
0.000270883
2.52215e-05
7.6133e-08
0.000290799
-3.61099e-05
9.15523e-06
0.000308495
-0.000100184
2.9072e-05
0.000280981
-7.1824e-05
4.49978e-05
0.000238441
-3.06825e-05
2.89164e-05
0.000216162
-8.52404e-06
7.76036e-06
0.000214581
3.95996e-05
-3.10493e-06
0.000220418
7.5758e-05
-1.03271e-05
0.000214432
5.80597e-06
-8.86554e-06
0.000214112
-7.94049e-05
-7.878e-06
0.000232291
-5.31209e-05
-4.57658e-06
0.000268172
-2.10362e-05
1.08249e-05
0.000315152
-5.14389e-05
2.37795e-05
0.00032031
-1.98517e-05
3.15489e-05
0.000281492
3.61597e-05
3.49353e-05
0.000281238
-4.03505e-05
2.12073e-05
0.000333698
-8.54869e-05
1.43634e-05
0.000341328
6.76667e-07
2.7352e-05
0.000266696
9.42591e-05
3.73998e-05
0.000188361
8.02644e-05
2.53207e-05
0.00016457
3.90102e-05
8.79726e-06
0.000182253
6.34234e-05
3.19021e-06
0.00020777
7.24158e-05
1.92554e-05
0.000238448
-8.8506e-06
4.87422e-05
0.000273949
-0.000104399
5.83415e-05
0.000291747
-0.000111999
3.34931e-05
0.000295156
-9.17964e-05
6.2581e-07
0.000301084
-7.72791e-05
1.9943e-05
0.00029401
-4.0932e-05
4.13223e-05
-7.86605e-05
3.79245e-05
0.000318337
-9.93315e-05
2.09064e-05
0.00032822
-6.14973e-05
-2.10958e-06
0.000330733
2.49103e-05
-1.71691e-05
0.000321634
9.35225e-05
-4.09678e-06
0.000311905
0.00011367
2.14529e-05
0.000314019
6.53611e-05
3.56929e-05
0.000333201
-1.92162e-05
3.64278e-05
0.00036562
-5.6333e-05
3.40894e-05
0.000377735
-2.6227e-05
2.33714e-05
0.000354772
3.7669e-05
-3.0497e-06
0.00033959
5.4782e-05
-8.76361e-06
0.00037628
-5.27558e-05
-2.20561e-06
0.000418729
-0.000159321
1.66602e-05
0.000388601
-9.89599e-05
4.88772e-05
0.000316497
-8.97882e-06
4.09789e-05
0.000268816
1.74303e-05
1.27469e-05
0.00026106
5.67712e-05
-3.32978e-06
0.000275761
0.000111212
-7.60514e-06
0.000265768
6.53869e-05
-3.7283e-06
0.000245878
-4.27766e-05
-1.15937e-05
0.000257859
-6.95797e-05
-2.12307e-05
0.000286582
-4.99267e-05
1.61293e-06
0.000338985
-8.61832e-05
1.5592e-05
0.000386717
-8.43697e-05
2.65283e-05
0.000356499
3.93803e-05
4.16193e-05
0.000300095
2.36121e-05
2.57768e-05
0.000334616
-0.000112456
3.2698e-06
0.000404044
-8.65514e-05
1.58724e-05
0.000372865
9.79699e-05
3.96454e-05
0.000273283
0.000153813
3.29399e-05
0.000213529
9.32809e-05
6.69519e-06
0.000224903
8.03346e-05
-4.01932e-06
0.000263195
8.34712e-05
1.01298e-05
0.000297431
2.17264e-05
4.03489e-05
0.000327805
-9.59503e-05
5.59253e-05
0.000346419
-0.000149775
3.69167e-05
0.000356054
-0.000130442
-1.22799e-06
0.000371073
-0.000111375
1.28829e-05
0.000365981
-4.78434e-05
4.42797e-05
-6.01715e-05
4.08184e-05
0.000349267
-8.02927e-05
1.45338e-05
0.000353753
-6.87041e-05
-1.25564e-05
0.000357273
1.79233e-05
-2.86187e-05
0.00036069
8.50081e-05
-2.07002e-05
0.000365038
0.000106131
1.02873e-05
0.000370596
5.96465e-05
3.65072e-05
0.000386683
-3.56665e-05
3.94101e-05
0.000416034
-9.02411e-05
3.18269e-05
0.000432888
-6.42475e-05
2.40122e-05
0.000411028
4.38967e-05
-6.10125e-07
0.000388988
9.38287e-05
-1.11654e-05
0.000428771
-4.972e-05
-1.3886e-05
0.000506237
-0.000226248
-4.81654e-06
0.000505505
-0.000154019
3.76249e-05
0.000415095
1.19883e-05
5.01504e-05
0.00032932
6.92752e-05
2.09237e-05
0.000301236
9.00991e-05
-4.7494e-06
0.000328504
0.000135105
-5.45243e-06
0.000331333
0.000122004
8.56017e-06
0.000289987
3.23605e-05
-7.11038e-06
0.000283738
-4.77754e-05
-3.76915e-05
0.00030943
-6.9123e-05
-2.17216e-05
0.000349067
-0.000106608
1.8707e-06
0.000418812
-0.000161434
1.47646e-05
0.000426495
1.30115e-06
4.44514e-05
0.000341161
0.000102855
3.15614e-05
0.000319796
-8.62011e-05
-8.64027e-06
0.000411351
-0.00018678
-1.76981e-06
0.000448442
4.34467e-05
3.25296e-05
0.000363864
0.000206983
4.0771e-05
0.00027462
0.00016288
1.02879e-05
0.000267952
0.000111019
-1.21705e-05
0.000303397
9.05397e-05
-7.50459e-06
0.000339824
4.99584e-05
1.8301e-05
0.000377264
-6.93027e-05
4.42724e-05
0.000394456
-0.000170234
3.14248e-05
0.000395914
-0.000161108
-1.29483e-05
0.000416297
-0.000140927
-4.26599e-06
0.000425871
-7.06953e-05
4.47611e-05
-3.11332e-05
4.5264e-05
0.000389944
-4.38058e-05
1.3309e-05
0.000389365
-5.85105e-05
-1.91486e-05
0.000385887
2.206e-05
-3.35199e-05
0.000388177
7.19853e-05
-3.69394e-05
0.000401312
8.07426e-05
-1.33251e-05
0.000411926
4.1338e-05
2.41634e-05
0.000434984
-6.61219e-05
4.3192e-05
0.000470468
-0.000130306
3.85779e-05
0.000486409
-0.000106185
2.87274e-05
0.000458365
2.97531e-05
5.55247e-06
0.000429366
0.000121872
-9.7413e-06
0.000460365
-3.05413e-05
-1.6901e-05
0.000544007
-0.000270042
-1.56153e-05
0.000577995
-0.000223941
2.38719e-05
0.000507719
4.51268e-06
5.21694e-05
0.000401301
0.000127204
3.0749e-05
0.000342129
0.000146741
-4.84182e-06
0.000374186
0.000150889
-7.50009e-06
0.000405678
0.00014823
2.42208e-05
0.000355025
0.000123106
1.18838e-05
0.000319657
2.04399e-05
-4.60896e-05
0.000342554
-7.21135e-05
-5.17199e-05
0.000371794
-0.000127615
-1.82104e-05
0.000434891
-0.000229835
8.46573e-07
0.000471291
-6.47476e-05
4.34259e-05
0.000402871
0.000158771
3.62073e-05
0.000339129
-2.45237e-05
-6.59799e-06
0.000402201
-0.000257605
-1.5254e-05
0.000491304
-5.72207e-05
1.93216e-05
0.000455094
0.000213639
4.35228e-05
0.000357547
0.000221897
2.29268e-05
0.000328642
0.000141518
-1.53624e-05
0.000351258
9.92457e-05
-2.63384e-05
0.000380244
7.29892e-05
-3.42645e-06
0.000421345
-4.18108e-05
2.87429e-05
0.000442797
-0.000175526
2.25974e-05
0.000437608
-0.000176765
-2.70323e-05
0.000451524
-0.0001657
-1.9691e-05
0.000471271
-0.000108329
4.3724e-05
-1.44221e-05
5.51957e-05
0.000439203
-8.14886e-06
1.66567e-05
0.000437239
-4.84612e-05
-2.68411e-05
0.000421803
3.88115e-05
-3.75743e-05
0.000405324
7.81343e-05
-5.30128e-05
0.000416014
5.70011e-05
-4.34419e-05
0.000434072
1.55168e-05
-4.12306e-08
0.000472793
-9.94808e-05
2.29991e-05
0.000523357
-0.00017719
3.43735e-05
0.00053641
-0.00014106
4.08955e-05
0.000486751
1.9947e-05
2.22461e-05
0.000447867
0.000126868
-7.51571e-06
0.000489255
-4.29998e-05
-2.34049e-05
0.000575258
-0.00030547
-1.89593e-05
0.000610447
-0.000269913
1.41753e-05
0.000556982
-1.1272e-05
4.56686e-05
0.000459836
0.000168213
3.78514e-05
0.000382403
0.000216497
-5.83205e-06
0.00040882
0.000163196
-2.64799e-05
0.000471154
0.000131946
2.7011e-05
0.000437111
0.000188788
3.97936e-05
0.0003815
0.000116556
-3.88709e-05
0.000392855
-4.79125e-05
-8.20963e-05
0.000415689
-0.000150446
-3.9747e-05
0.000456759
-0.000286822
-4.13188e-06
0.000496522
-0.000140685
4.47978e-05
0.000464445
0.000170985
3.62973e-05
0.000402995
3.60631e-05
-6.23466e-06
0.00041758
-0.000281375
-1.46095e-05
0.000506853
-0.000162955
5.53688e-06
0.000528946
0.000170056
3.69504e-05
0.000456522
0.000249668
4.02191e-05
0.00041568
0.000148307
-2.7751e-06
0.000421929
9.09975e-05
-2.15037e-05
0.000435288
8.66274e-05
-7.89668e-06
0.000467486
-1.54802e-05
1.79192e-05
0.000489712
-0.000164835
1.51942e-05
0.000482981
-0.000173878
-3.6411e-05
0.000485549
-0.000176961
-3.79726e-05
0.000508897
-0.000151037
3.70546e-05
-1.16542e-05
6.6585e-05
0.000493769
3.85073e-05
1.39228e-05
0.000494873
-4.4834e-05
-4.5754e-05
0.000480648
4.10423e-05
-4.40804e-05
0.000444944
9.94515e-05
-6.22836e-05
0.000436166
5.31435e-05
-6.75808e-05
0.000455994
-9.23947e-06
-3.10972e-05
0.000514455
-0.000140347
-9.4119e-06
0.000578981
-0.00022314
4.76832e-06
0.000576294
-0.000148407
3.83266e-05
0.000495458
4.41977e-05
3.68398e-05
0.000458463
0.00010794
-7.8148e-06
0.000525145
-0.000109601
-3.33e-05
0.000615031
-0.000361316
-1.88332e-05
0.000640442
-0.000293846
6.26459e-06
0.00059137
-1.41404e-05
2.90199e-05
0.000509561
0.000199508
3.5749e-05
0.000425513
0.000292888
-1.11449e-06
0.000434481
0.000173097
-5.10243e-05
0.000513404
7.94327e-05
-4.38356e-06
0.000519406
0.000204798
5.06793e-05
0.000479338
0.000177301
1.51175e-06
0.000482446
-1.40665e-05
-8.90592e-05
0.000484628
-0.000147018
-6.40432e-05
0.000484079
-0.000306001
-1.02097e-05
0.000508039
-0.000207492
4.49229e-05
0.000513509
0.00014099
3.83042e-05
0.000485297
7.22252e-05
-1.03278e-05
0.000462808
-0.000250389
-2.50811e-05
0.00051651
-0.000227302
-1.58787e-05
0.000578396
9.12504e-05
2.30411e-05
0.000541342
0.000246533
5.05233e-05
0.000497275
0.000156477
8.2077e-06
0.000495918
7.38849e-05
-1.30571e-05
0.000499251
7.57963e-05
4.50346e-06
0.000520198
2.685e-06
1.9342e-05
0.000543401
-0.000140738
4.60156e-06
0.000538719
-0.00015538
-4.61598e-05
0.000524204
-0.000167285
-4.85965e-05
0.000540299
-0.00018175
3.01411e-05
-9.03309e-06
7.37386e-05
0.00055481
9.80934e-05
9.96306e-06
0.00056138
-2.97385e-05
-8.05746e-05
0.00056509
1.80611e-05
-6.36274e-05
0.000531902
0.000106051
-6.36084e-05
0.000502762
6.3185e-05
-8.19551e-05
0.000509483
-2.45321e-05
-5.36905e-05
0.000565447
-0.000183321
-2.30519e-05
0.000631926
-0.000277338
-1.37535e-05
0.000625109
-0.000144953
2.25328e-05
0.000538572
9.94588e-05
3.5944e-05
0.000515828
8.57857e-05
-1.00586e-05
0.000597724
-0.000196536
-4.229e-05
0.000675046
-0.000428835
-1.00252e-05
0.000681564
-0.000308259
1.18066e-05
0.000634294
-6.91666e-06
1.22718e-05
0.000563935
0.000238562
2.23099e-05
0.000470107
0.000378841
8.31881e-06
0.000446103
0.000192377
-7.10651e-05
0.000526602
3.9038e-06
-7.02126e-05
0.000582039
0.000141716
4.57307e-05
0.000584578
0.000148319
6.02892e-05
0.000596333
-2.33685e-05
-4.8487e-05
0.000578473
-0.000121478
-6.72683e-05
0.000524422
-0.000259604
-2.14971e-05
0.000516765
-0.000245006
4.08881e-05
0.000557503
5.48589e-05
5.69069e-05
0.000569297
6.19428e-05
1.78248e-07
0.000533177
-0.000188704
-3.66818e-05
0.000547345
-0.000242917
-3.30974e-05
0.000617316
-5.77099e-06
1.47999e-05
0.000605849
0.0002152
4.86166e-05
0.000558317
0.000186353
-7.71313e-06
0.000549778
8.61654e-05
-3.06232e-05
0.000554585
5.96874e-05
1.64619e-06
0.000579624
-6.01821e-06
2.86689e-05
0.000607948
-0.000125155
8.08142e-06
0.0006047
-0.000131982
-4.75117e-05
0.00057355
-0.000141837
-5.42954e-05
0.000571589
-0.00018933
1.58993e-05
1.01151e-06
7.30361e-05
0.000617357
0.000137255
3.23836e-05
0.000630401
-9.94405e-06
-8.41681e-05
0.000641808
3.01119e-06
-8.32905e-05
0.000633953
9.88298e-05
-7.743e-05
0.000613317
7.01879e-05
-0.000108186
0.000603335
-2.67976e-05
-7.72007e-05
0.000631603
-0.000206927
-2.61478e-05
0.000681976
-0.000322016
-2.2548e-05
0.00069237
-0.000156846
1.44684e-06
0.000632951
0.000148093
3.43674e-05
0.000614077
9.1154e-05
-3.47872e-06
0.000687126
-0.000259422
-5.30106e-05
0.000753373
-0.000467237
-3.49022e-05
0.000738959
-0.000292933
2.48844e-07
0.000651134
3.19321e-05
1.95585e-05
0.000546656
0.000303297
2.85605e-05
0.000469007
0.000464803
-1.79348e-05
0.000464041
0.000207472
-0.000121224
0.000544833
-0.000102047
-0.000110321
0.000629197
8.87167e-06
3.71772e-05
0.000667503
6.66927e-05
5.87339e-05
0.000689991
-6.95916e-05
-2.2748e-05
0.000675347
-0.00011653
-4.74786e-05
0.000607118
-0.000183841
-2.9865e-05
0.000569953
-0.000216613
-5.39869e-06
0.000605588
-3.70891e-06
1.58207e-05
0.000640132
5.31599e-05
-3.35111e-05
0.000617568
-0.000123797
-5.26087e-05
0.000596917
-0.000219418
-3.60036e-05
0.000632062
-7.98547e-05
1.23214e-05
0.000623806
0.000170965
3.95096e-05
0.000584211
0.000213052
-2.94315e-05
0.000581104
0.000123112
-6.0588e-05
0.000603794
5.37095e-05
-2.65987e-05
0.000654832
-4.50715e-05
2.48856e-05
0.00068643
-0.000134343
3.19723e-05
0.000667855
-0.000110253
-3.04728e-05
0.000625585
-0.000106402
-6.54244e-05
0.000607671
-0.000161745
-1.8463e-05
2.50719e-05
6.32524e-05
0.000682896
0.000139265
7.94387e-05
0.000702427
-8.70389e-06
-4.56656e-05
0.000710647
-3.81015e-06
-5.59387e-05
0.000707097
0.000103442
-6.61954e-05
0.000696786
8.42978e-05
-0.000133701
0.000690573
-1.21181e-05
-0.000124238
0.000711865
-0.000195468
-6.73322e-05
0.000748839
-0.00032608
-5.40721e-05
0.000762681
-0.000175049
-1.19933e-05
0.000733305
0.000144358
7.21014e-05
0.000723776
0.000125585
-1.4009e-05
0.000777833
-0.000254712
-0.000104076
0.000837222
-0.000480645
-6.46491e-05
0.000811778
-0.000264748
-1.97306e-06
0.000695347
9.03851e-05
2.87283e-05
0.000604885
0.000320382
4.60689e-05
0.000607016
0.000488272
-4.99464e-05
0.000616345
0.000304747
-0.000211144
0.000619132
-8.9672e-05
-0.000176169
0.000675651
-9.62274e-05
-2.25526e-05
0.000757854
-2.76419e-05
1.02171e-05
0.000809192
-0.000139683
-2.06512e-05
0.000799736
-0.000146149
-1.36592e-05
0.000730519
-0.000111797
-2.24116e-05
0.000650002
-0.000113465
-4.90654e-05
0.000642337
1.99967e-05
-4.65978e-05
0.000691525
4.21641e-05
-6.46969e-05
0.000705434
-8.63121e-05
-7.06862e-05
0.000668885
-0.000164135
-4.78953e-05
0.000651392
-0.000102304
1.13923e-05
0.000622885
0.000127355
4.53877e-05
0.000595897
0.000225378
-4.68889e-05
0.000620625
0.000163777
-9.61236e-05
0.000678733
4.50704e-05
-5.05222e-05
0.000757495
-0.000111108
3.04942e-05
0.000780179
-0.000158651
6.45055e-05
0.000731559
-7.09068e-05
-1.7958e-05
0.000691437
-6.08612e-05
-9.38929e-05
0.000677016
-0.000126479
-4.84513e-05
3.52921e-05
8.09942e-05
0.000760627
0.000132747
0.00010352
0.00075999
-1.58471e-05
4.35481e-06
0.00077005
-1.70456e-05
-1.87372e-05
0.000776773
0.000102313
-2.97153e-05
0.00076435
0.000104647
-0.000126223
0.000771841
1.52259e-05
-0.000175168
0.000806796
-0.000150728
-0.000140398
0.000828336
-0.000290343
-8.20067e-05
0.000830479
-0.000197429
5.64396e-06
0.00082543
0.000116203
7.50081e-05
0.000827158
0.000183207
-5.18623e-05
0.000863113
-0.000184379
-0.000158794
0.000901328
-0.000451647
-9.11164e-05
0.000865699
-0.000219962
-3.40829e-06
0.000760157
0.000167373
-3.88138e-06
0.00069333
0.000337002
5.78903e-06
0.000729982
0.000413511
1.75722e-05
0.000758803
0.000335227
-0.000127483
0.000733626
1.27919e-05
-0.000210166
0.000773786
-0.000115401
-9.39943e-05
0.000882082
-0.00010623
-1.29091e-05
0.000928541
-0.000190623
-1.20081e-05
0.000902198
-0.000181991
7.5774e-06
0.000848687
-7.89208e-05
-5.34658e-06
0.000750123
4.8511e-06
-5.1954e-05
0.000703249
0.000107509
-8.65768e-05
0.000762267
2.04308e-05
-6.86043e-05
0.00080326
-9.84928e-05
-4.29807e-05
0.000779699
-9.60652e-05
-6.17191e-05
0.000755946
-7.7484e-05
-1.18905e-05
0.000706923
7.21399e-05
8.40888e-05
0.000665741
0.000202285
-2.55719e-06
0.000699776
0.000183285
-9.36728e-05
0.000777582
4.61063e-05
-6.18848e-05
0.000866292
-0.00016155
2.88973e-05
0.000888024
-0.00018398
7.83396e-05
0.000825124
-1.26183e-05
-9.51551e-06
0.000780684
7.55975e-06
-0.000105023
0.000765557
-9.0207e-05
-6.21671e-05
2.93367e-05
8.08209e-05
0.000854109
0.000131046
0.000101602
0.000840035
3.4252e-06
2.04546e-05
0.000838076
-1.50173e-05
-2.20283e-05
0.000863193
8.4081e-05
-9.3266e-07
0.000859673
0.00011924
-6.69318e-05
0.00086886
5.2479e-05
-0.000148323
0.00091307
-9.60355e-05
-0.000153586
0.000924091
-0.000229151
-8.23015e-05
0.000908732
-0.000185419
-5.39125e-06
0.00091596
0.000110901
2.30675e-05
0.000925638
0.00023948
-4.5278e-05
0.000955045
-0.000103279
-0.0001367
0.000976611
-0.000403064
-8.80287e-05
0.000928246
-0.000155014
-1.69564e-05
0.000861946
0.000229367
-2.12124e-05
0.000819788
0.000319418
3.64783e-05
0.000814277
0.000302096
0.00012815
0.000809915
0.0002831
4.00349e-05
0.000798302
9.62189e-05
-0.000145433
0.000864358
-0.000121412
-7.91064e-05
0.000998834
-0.000199684
2.54601e-05
0.00103191
-0.000213734
1.2225e-05
0.00097213
-0.000173187
3.97359e-06
0.000948137
-8.8889e-05
-1.09353e-05
0.000886719
4.95159e-05
-2.27999e-05
0.000808741
0.000210647
-7.47375e-05
0.000835035
7.03925e-05
-0.000112515
0.000879921
-0.000127698
-3.69344e-05
0.000881016
-8.69945e-05
-2.39814e-05
0.000891656
-4.48509e-05
-2.66895e-05
0.000854258
5.12293e-05
6.81517e-05
0.000795384
0.000143996
7.05596e-05
0.000813727
0.000139933
-1.59564e-05
0.000882579
4.0371e-05
-4.17939e-05
0.000965135
-0.000168464
1.78616e-05
0.000992174
-0.000180338
6.06959e-05
0.000943472
5.15844e-05
-2.03665e-05
0.000907044
7.01166e-05
-8.14036e-05
0.000876272
-5.19433e-05
-3.15309e-05
3.67949e-05
6.43799e-05
0.000979559
0.000107693
0.000130206
0.000978903
2.55277e-05
3.88169e-05
0.000965552
1.5618e-05
-3.59875e-05
0.000973617
7.0556e-05
6.91498e-06
0.00100111
8.62751e-05
2.64055e-08
0.00103354
3.65496e-05
-2.64111e-05
0.0010525
-7.5421e-05
-3.69755e-05
0.00104232
-0.000168414
-2.95724e-05
0.00102504
-0.000142442
-1.40353e-05
0.00103939
7.77525e-05
3.57708e-05
0.00106554
0.000206647
4.80893e-05
0.00108571
-6.30403e-05
-5.45301e-05
0.00108353
-0.000349566
-6.34734e-05
0.00103112
-0.000102161
-5.21919e-06
0.00100071
0.000247624
-1.77565e-06
0.000988554
0.000262464
6.05418e-05
0.000952257
0.000201557
0.000169484
0.000932779
0.000203243
0.000133619
0.000943487
0.000127123
-7.16933e-05
0.00100007
-0.000103473
-6.97548e-05
0.00110491
-0.000257452
3.86819e-05
0.00112733
-0.00021503
1.08235e-05
0.00105514
-9.81303e-05
-4.94973e-05
0.00102213
-4.84525e-05
-6.70984e-05
0.0010014
5.3407e-05
-4.09619e-05
0.000956458
0.000220332
-9.81616e-06
0.000958884
0.000133332
-8.74952e-05
0.000975697
-6.99429e-05
-8.68701e-05
0.000967251
-6.62285e-05
-2.48699e-05
0.000991224
-3.14326e-05
-1.73038e-05
0.00101637
1.3686e-05
4.45164e-05
0.000991701
9.65413e-05
7.88203e-05
0.000972906
0.000121491
2.27041e-05
0.000991258
5.65349e-05
-2.11125e-05
0.00105459
-0.000152382
8.25668e-06
0.00109563
-0.000197743
6.62332e-05
0.00107409
7.70782e-05
-2.78695e-06
0.00106136
0.000122273
-7.41396e-05
0.00103817
-1.74768e-05
-2.55234e-05
3.64475e-05
6.74765e-05
0.00114229
6.61206e-05
0.000121976
0.00113892
2.3613e-05
6.45848e-05
0.00113291
4.01948e-05
-1.8703e-05
0.00113399
8.01517e-05
-3.52283e-06
0.00115728
6.58776e-05
8.65559e-06
0.0011932
-5.73587e-06
2.64584e-05
0.00120276
-8.04919e-05
1.63187e-05
0.0011797
-0.00011814
-1.30883e-05
0.00115818
-9.06755e-05
-9.77713e-06
0.00117209
4.07097e-05
4.40598e-05
0.00120825
0.000135221
7.0343e-05
0.00121864
-3.60112e-05
-2.16014e-05
0.00118512
-0.000270094
-5.72646e-05
0.00113104
-7.22182e-05
5.26792e-06
0.00113043
0.000219993
1.01643e-05
0.00116174
0.000211933
7.7611e-06
0.00115419
0.000136863
0.00010078
0.0011382
0.000130947
0.00013895
0.0011455
0.000112419
4.22716e-07
0.00117029
-6.33006e-05
-5.73177e-05
0.00121503
-0.0002456
8.41078e-06
0.0012314
-0.00022192
-1.03121e-05
0.00118768
-4.71507e-05
-6.98907e-05
0.00113564
2.51093e-05
-8.29362e-05
0.00110165
0.000100651
-7.2604e-05
0.00107987
0.000219726
-7.46386e-06
0.00108597
0.000138731
-9.65538e-06
0.00109706
-1.29783e-05
-6.75659e-05
0.00109123
-2.73082e-05
-3.56912e-05
0.00110267
-3.8511e-06
-2.03875e-05
0.00114129
-9.27673e-07
5.03318e-07
0.00116429
3.96865e-05
4.99414e-05
0.00116539
8.59417e-05
4.80435e-05
0.00116093
6.59171e-05
1.04523e-05
0.00117268
-8.17517e-05
-2.02559e-05
0.00119366
-0.00017033
2.45389e-05
0.00120552
3.27908e-05
3.06642e-05
0.00121426
0.000112983
-2.79362e-05
0.00120044
2.05275e-05
-3.22674e-05
4.49751e-05
3.43368e-05
0.00130651
3.3515e-05
8.40168e-05
0.00129889
7.73857e-06
6.17182e-05
0.00129639
3.60412e-05
8.51677e-06
0.00130381
7.50815e-05
1.11356e-05
0.00131951
6.60636e-05
-5.55227e-08
0.0013338
-2.21412e-05
1.88053e-05
0.00133024
-7.88427e-05
1.96842e-05
0.00131016
-7.62095e-05
-1.25704e-05
0.00129497
-4.86819e-05
-6.89185e-06
0.00130171
2.23526e-05
3.29634e-05
0.00132936
7.5649e-05
5.1958e-05
0.00134088
-2.12584e-05
-1.17755e-05
0.00130333
-0.000182781
-5.23643e-05
0.00125641
-4.89477e-05
3.34371e-06
0.00127263
0.000157508
2.06398e-05
0.00132029
0.000149731
-7.31224e-06
0.00133045
9.85875e-05
4.1717e-05
0.00131584
9.08268e-05
9.79564e-05
0.00131239
8.54179e-05
3.85132e-05
0.00131786
-3.66029e-05
-1.65899e-05
0.00132786
-0.000193665
-1.94248e-05
0.00133608
-0.00019802
-5.07139e-05
0.00131015
-3.78624e-05
-4.70761e-05
0.00125148
6.02394e-05
-2.04895e-05
0.0012052
0.000129109
-2.66542e-05
0.00119877
0.000203323
8.02902e-06
0.00121768
0.00011781
2.49973e-05
0.0012333
3.49007e-06
-1.45938e-05
0.00124149
-1.21813e-05
-1.77716e-05
0.0012524
8.14327e-06
-7.50137e-06
0.00127569
-3.17023e-06
-3.7529e-06
0.00130004
3.61657e-06
2.3668e-05
0.00131358
4.9227e-05
4.59128e-05
0.00131849
5.29543e-05
3.39807e-05
0.00131277
-3.08298e-05
-6.71928e-06
0.00130802
-0.000108889
-9.09027e-06
0.00132318
9.52375e-06
9.27174e-06
0.00134232
7.14544e-05
1.26529e-06
0.00133865
1.68615e-05
2.60171e-07
3.85234e-05
2.86862e-05
0.00145007
1.59128e-05
6.01066e-05
0.00144359
-1.18687e-07
4.35136e-05
0.00144417
2.32131e-05
1.67322e-05
0.00145679
5.42972e-05
2.60642e-05
0.00146944
6.4957e-05
3.20799e-06
0.00146882
-1.81294e-05
4.94626e-06
0.00145776
-7.39827e-05
1.65405e-05
0.0014441
-5.64957e-05
2.60407e-06
0.00143751
-2.48002e-05
2.90916e-06
0.0014402
1.59448e-05
2.7533e-05
0.00145477
3.7157e-05
3.45956e-05
0.00146487
-1.93407e-05
-9.29697e-06
0.00144184
-0.000117246
-4.25232e-05
0.00141201
-2.65886e-05
-7.39942e-06
0.00142537
0.000105168
1.54025e-05
0.00145778
9.78762e-05
-2.93345e-06
0.00146584
7.42146e-05
1.95562e-05
0.00145912
6.99493e-05
5.47106e-05
0.00145922
5.84492e-05
3.78585e-05
0.00145966
-3.12556e-05
1.32731e-05
0.00145515
-0.000136349
-2.48015e-05
0.00145118
-0.000141904
-7.48261e-05
0.00143108
-3.28888e-05
-3.40246e-05
0.00138864
5.5189e-05
2.21854e-05
0.00135747
0.000125493
8.8505e-07
0.00136337
0.000174117
8.6959e-06
0.00138703
9.0976e-05
2.32212e-05
0.00140068
6.26288e-07
7.01982e-06
0.00140959
-1.26529e-05
3.4159e-06
0.0014212
3.68281e-06
7.11561e-06
0.00143216
-1.0181e-05
7.4017e-06
0.00144121
-1.7653e-05
1.59494e-05
0.00144978
2.17092e-05
3.85551e-05
0.00145905
3.53939e-05
4.15911e-05
0.00145527
-8.15999e-06
9.62857e-06
0.00144477
-5.96153e-05
-1.42557e-05
0.00145293
5.78181e-06
-1.12885e-05
0.00146588
4.57615e-05
-4.58744e-06
0.00146553
2.56647e-06
1.27517e-05
2.20187e-05
3.20569e-05
0.00159252
1.04395e-05
4.2353e-05
0.00158709
1.1946e-06
2.82212e-05
0.00158926
1.74849e-05
9.559e-06
0.00160339
3.5734e-05
1.98472e-05
0.00161612
5.86305e-05
5.81021e-06
0.00161106
-8.50585e-06
1.8902e-06
0.00159812
-6.15936e-05
8.05657e-06
0.00158933
-4.37541e-05
7.0312e-06
0.00158832
-1.43659e-05
1.07046e-05
0.00159036
1.12039e-05
2.51114e-05
0.00159805
1.33257e-05
2.28897e-05
0.00160358
-1.65708e-05
-1.03713e-05
0.00159146
-7.14903e-05
-2.92074e-05
0.00157638
-1.14463e-05
-7.37491e-06
0.00158322
7.20844e-05
7.87973e-06
0.00159789
6.80127e-05
-5.98567e-06
0.00160385
6.09257e-05
4.33509e-06
0.0016076
5.40061e-05
2.81835e-05
0.00161152
4.08065e-05
2.21552e-05
0.00160661
-2.83815e-05
1.73849e-05
0.00159593
-9.27019e-05
-2.01844e-05
0.00158903
-8.72416e-05
-7.36939e-05
0.00157936
-2.34423e-05
-3.95359e-05
0.00156104
3.95659e-05
1.56483e-05
0.00155183
0.000101326
3.25259e-06
0.00156312
0.000137703
5.31191e-06
0.00157722
7.15092e-05
1.7312e-05
0.00158095
1.91011e-06
6.76922e-06
0.00158416
-1.35829e-05
5.10614e-06
0.00159221
-3.74358e-06
6.19079e-06
0.00159569
-1.75761e-05
1.20068e-05
0.00159431
-2.95528e-05
1.5045e-05
0.00159681
6.31966e-06
2.39797e-05
0.00160363
2.243e-05
3.16175e-05
0.00160246
7.74141e-07
1.37339e-05
0.00159376
-3.01597e-05
-2.53333e-06
0.00159871
5.69657e-06
-1.01209e-05
0.00160782
2.833e-05
-5.26099e-06
0.00160736
-4.1882e-06
5.85592e-06
1.53569e-05
1.91236e-05
0.00174899
7.46444e-06
3.0551e-05
0.0017453
3.44098e-06
2.06546e-05
0.00174789
1.51445e-05
6.08741e-06
0.00175981
2.30786e-05
1.18349e-05
0.00177282
5.01405e-05
3.46771e-06
0.00176816
4.07989e-07
1.95644e-06
0.00175611
-4.62719e-05
4.98943e-06
0.00175124
-3.41346e-05
8.34183e-06
0.00175311
-1.0217e-05
1.23561e-05
0.00175411
8.2205e-06
2.02838e-05
0.00175671
7.46143e-07
1.41512e-05
0.00175866
-1.30173e-05
-9.0314e-06
0.00175194
-4.23591e-05
-1.67113e-05
0.00174461