/*--------------------------------*- C++ -*----------------------------------*\
  =========                 |
  \\      /  F ield         | OpenFOAM: The Open Source CFD Toolbox
   \\    /   O peration     | Website:  https://openfoam.org
    \\  /    A nd           | Version:  10
     \\/     M anipulation  |
\*---------------------------------------------------------------------------*/
FoamFile
{
    format      ascii;
    class       volTensorField;
    location    "47.5";
    object      TauNN;
}
// * * * * * * * * * * * * * * * * * * * * * * * * * * * * * * * * * * * * * //

dimensions      [0 2 -2 0 0 0 0];

internalField   nonuniform List<tensor> 
25600
(
(0.00148649 -0.0129822 -0.0151349 -0.0129822 0.000160386 -0.0081537 -0.0151349 -0.0081537 0.000114056)
(0.00147869 -0.0129787 -0.0151365 -0.0129787 0.000159857 -0.00815155 -0.0151365 -0.00815155 0.000115173)
(0.00147207 -0.0129791 -0.0151369 -0.0129791 0.000160165 -0.00815185 -0.0151369 -0.00815185 0.000115003)
(0.00147762 -0.0129795 -0.0151367 -0.0129795 0.000160095 -0.00815204 -0.0151367 -0.00815204 0.000115185)
(0.00147393 -0.0129768 -0.0151368 -0.0129768 0.000159447 -0.00815044 -0.0151368 -0.00815044 0.000115685)
(0.00149386 -0.0129767 -0.0151321 -0.0129767 0.000157758 -0.00815004 -0.0151321 -0.00815004 0.000117055)
(0.00149085 -0.0129791 -0.0151339 -0.0129791 0.000159058 -0.00815162 -0.0151339 -0.00815162 0.000115831)
(0.00148301 -0.01298 -0.0151354 -0.01298 0.000159832 -0.00815227 -0.0151354 -0.00815227 0.000115164)
(0.00148674 -0.0129795 -0.0151346 -0.0129795 0.000159481 -0.00815197 -0.0151346 -0.00815197 0.000115325)
(0.00148124 -0.0129802 -0.0151363 -0.0129802 0.000160059 -0.00815237 -0.0151363 -0.00815237 0.000115358)
(0.00148781 -0.0129793 -0.0151349 -0.0129793 0.00015942 -0.00815177 -0.0151349 -0.00815177 0.000115523)
(0.0014726 -0.0129779 -0.0151375 -0.0129779 0.000159893 -0.00815107 -0.0151375 -0.00815107 0.00011553)
(0.00147802 -0.0129783 -0.0151369 -0.0129783 0.000159617 -0.00815118 -0.0151369 -0.00815118 0.000116273)
(0.00148396 -0.0129786 -0.0151357 -0.0129786 0.00015937 -0.00815136 -0.0151357 -0.00815136 0.000116111)
(0.00148158 -0.0129792 -0.0151356 -0.0129792 0.000159736 -0.0081518 -0.0151356 -0.0081518 0.000115152)
(0.00148301 -0.0129757 -0.0151348 -0.0129757 0.000158292 -0.00814953 -0.0151348 -0.00814953 0.000116974)
(0.00147535 -0.0129801 -0.0151369 -0.0129801 0.000160248 -0.00815237 -0.0151369 -0.00815237 0.000115407)
(0.00149592 -0.0129803 -0.0151339 -0.0129803 0.000159514 -0.00815249 -0.0151339 -0.00815249 0.000114887)
(0.00146691 -0.0129733 -0.0151401 -0.0129733 0.000159174 -0.00814835 -0.0151401 -0.00814835 0.000116924)
(0.00147379 -0.0129762 -0.0151364 -0.0129762 0.000158874 -0.00814984 -0.0151364 -0.00814984 0.000117011)
(0.00150178 -0.0129793 -0.0151324 -0.0129793 0.000158564 -0.0081517 -0.0151324 -0.0081517 0.00011624)
(0.00148078 -0.0129765 -0.0151361 -0.0129765 0.000158988 -0.00815013 -0.0151361 -0.00815013 0.000116225)
(0.00148563 -0.0129763 -0.0151352 -0.0129763 0.000158383 -0.00814982 -0.0151352 -0.00814982 0.000117366)
(0.00147972 -0.012977 -0.0151382 -0.012977 0.000159279 -0.00815023 -0.0151382 -0.00815023 0.000117458)
(0.00148748 -0.0129766 -0.0151345 -0.0129766 0.000158446 -0.00815007 -0.0151345 -0.00815007 0.000116686)
(0.00148997 -0.0129756 -0.0151334 -0.0129756 0.000157814 -0.00814942 -0.0151334 -0.00814942 0.000117042)
(0.00146311 -0.0129736 -0.0151406 -0.0129736 0.0001594 -0.00814853 -0.0151406 -0.00814853 0.000116931)
(0.00146344 -0.012971 -0.0151393 -0.012971 0.000158039 -0.00814677 -0.0151393 -0.00814677 0.000118228)
(0.00147297 -0.0129732 -0.0151364 -0.0129732 0.000157708 -0.00814787 -0.0151364 -0.00814787 0.000118591)
(0.00145466 -0.0129836 -0.0151387 -0.0129836 0.000161777 -0.00815457 -0.0151387 -0.00815457 0.000114347)
(0.00147235 -0.0129839 -0.0151365 -0.0129839 0.000161405 -0.00815495 -0.0151365 -0.00815495 0.000113035)
(0.0014565 -0.0129753 -0.0151437 -0.0129753 0.000161012 -0.00814987 -0.0151437 -0.00814987 0.000115427)
(0.00147093 -0.0129687 -0.0151354 -0.0129687 0.000156288 -0.00814523 -0.0151354 -0.00814523 0.000118732)
(0.00149686 -0.012975 -0.0151299 -0.012975 0.000156509 -0.00814892 -0.0151299 -0.00814892 0.000118113)
(0.00149036 -0.0129793 -0.0151346 -0.0129793 0.000159186 -0.00815171 -0.0151346 -0.00815171 0.000116205)
(0.00149601 -0.0129791 -0.0151333 -0.0129791 0.000158847 -0.00815159 -0.0151333 -0.00815159 0.000115886)
(0.00148369 -0.0129797 -0.015136 -0.0129797 0.000159864 -0.00815208 -0.015136 -0.00815208 0.000115387)
(0.00148301 -0.0129769 -0.0151363 -0.0129769 0.000159183 -0.00815046 -0.0151363 -0.00815046 0.000116029)
(0.00147951 -0.012977 -0.0151362 -0.012977 0.000159193 -0.00815043 -0.0151362 -0.00815043 0.000116087)
(0.00147104 -0.0129801 -0.0151365 -0.0129801 0.000160313 -0.00815241 -0.0151365 -0.00815241 0.000114809)
(-5.89412e-05 -0.0128155 -0.015457 -0.0128155 7.4718e-05 -0.00810961 -0.015457 -0.00810961 7.27721e-05)
(6.78956e-05 -0.0127984 -0.0154263 -0.0127984 2.85545e-05 -0.0081313 -0.0154263 -0.0081313 5.62764e-05)
(7.3196e-05 -0.0128017 -0.0154221 -0.0128017 2.87093e-05 -0.00813173 -0.0154221 -0.00813173 5.72081e-05)
(5.44818e-05 -0.0127965 -0.0154269 -0.0127965 2.2413e-05 -0.0081239 -0.0154269 -0.0081239 6.12635e-05)
(6.11869e-05 -0.0127983 -0.0154243 -0.0127983 2.58048e-05 -0.00811943 -0.0154243 -0.00811943 7.61205e-05)
(3.88066e-05 -0.0128006 -0.0154361 -0.0128006 3.61943e-05 -0.00811612 -0.0154361 -0.00811612 6.68154e-05)
(-5.33264e-05 -0.0128144 -0.0154553 -0.0128144 7.25825e-05 -0.00810966 -0.0154553 -0.00810966 7.57205e-05)
(2.26633e-05 -0.012805 -0.0154437 -0.012805 4.44457e-05 -0.00811224 -0.0154437 -0.00811224 7.04964e-05)
(3.04241e-05 -0.0128019 -0.0154397 -0.0128019 3.57992e-05 -0.00811621 -0.0154397 -0.00811621 6.1856e-05)
(6.20382e-05 -0.0127998 -0.0154291 -0.0127998 2.40568e-05 -0.00812594 -0.0154291 -0.00812594 5.10518e-05)
(2.25011e-05 -0.0128044 -0.0154443 -0.0128044 4.02797e-05 -0.00811374 -0.0154443 -0.00811374 6.83324e-05)
(7.73436e-05 -0.012803 -0.0154239 -0.012803 3.40219e-05 -0.00813382 -0.0154239 -0.00813382 5.48488e-05)
(0.000101422 -0.0128156 -0.0154232 -0.0128156 7.22606e-05 -0.00814358 -0.0154232 -0.00814358 4.04267e-05)
(6.66799e-05 -0.012799 -0.0154256 -0.012799 2.55675e-05 -0.0081299 -0.0154256 -0.0081299 5.14198e-05)
(2.11908e-05 -0.0128046 -0.0154435 -0.0128046 4.24933e-05 -0.00811122 -0.0154435 -0.00811122 7.39372e-05)
(0.000137879 -0.0128233 -0.015419 -0.0128233 0.000104789 -0.00814929 -0.015419 -0.00814929 4.39254e-05)
(7.18001e-05 -0.012802 -0.015425 -0.012802 2.48518e-05 -0.00812387 -0.015425 -0.00812387 5.40097e-05)
(-5.63935e-05 -0.0128122 -0.0154547 -0.0128122 6.52739e-05 -0.00811313 -0.0154547 -0.00811313 6.69193e-05)
(8.89634e-05 -0.0128008 -0.0154248 -0.0128008 5.74925e-05 -0.0081446 -0.0154248 -0.0081446 5.0155e-05)
(0.000123302 -0.0128307 -0.0154177 -0.0128307 0.000100771 -0.00814983 -0.0154177 -0.00814983 4.56946e-05)
(-7.11307e-05 -0.0128202 -0.0154584 -0.0128202 8.43052e-05 -0.0081137 -0.0154584 -0.0081137 7.31186e-05)
(0.000218257 -0.0128319 -0.0154261 -0.0128319 0.000126171 -0.00814755 -0.0154261 -0.00814755 3.15301e-05)
(0.00011576 -0.0128157 -0.0154252 -0.0128157 9.43851e-05 -0.00814709 -0.0154252 -0.00814709 3.45008e-05)
(0.000185946 -0.0128336 -0.0154283 -0.0128336 0.000120125 -0.00814625 -0.0154283 -0.00814625 3.27518e-05)
(8.92846e-05 -0.0128073 -0.0154216 -0.0128073 4.18154e-05 -0.00813659 -0.0154216 -0.00813659 6.04184e-05)
(6.22084e-05 -0.0127984 -0.0154281 -0.0127984 2.39217e-05 -0.0081254 -0.0154281 -0.0081254 5.95389e-05)
(8.11624e-05 -0.0128012 -0.0154241 -0.0128012 5.10856e-05 -0.00814598 -0.0154241 -0.00814598 5.47526e-05)
(0.00012663 -0.0128242 -0.0154215 -0.0128242 0.000106317 -0.00815143 -0.0154215 -0.00815143 3.89673e-05)
(0.000100308 -0.0128242 -0.0154221 -0.0128242 0.0001035 -0.00815582 -0.0154221 -0.00815582 4.08263e-05)
(-5.93115e-05 -0.0128272 -0.0154549 -0.0128272 9.86443e-05 -0.00810669 -0.0154549 -0.00810669 8.05428e-05)
(0.000147646 -0.0128589 -0.0153653 -0.0128589 0.000102651 -0.00811982 -0.0153653 -0.00811982 0.000100983)
(0.000226077 -0.0128265 -0.0154243 -0.0128265 0.000121676 -0.00814575 -0.0154243 -0.00814575 3.44244e-05)
(0.000146405 -0.0128282 -0.0154041 -0.0128282 0.000109996 -0.00815108 -0.0154041 -0.00815108 7.54414e-05)
(3.33379e-05 -0.0128 -0.0154341 -0.0128 4.32462e-05 -0.00811725 -0.0154341 -0.00811725 6.49773e-05)
(1.70742e-05 -0.0127967 -0.0154353 -0.0127967 3.19276e-05 -0.00811877 -0.0154353 -0.00811877 6.09391e-05)
(-1.02101e-05 -0.0128038 -0.015445 -0.0128038 4.88417e-05 -0.00811198 -0.015445 -0.00811198 7.50966e-05)
(2.53727e-05 -0.0128005 -0.01544 -0.0128005 3.21164e-05 -0.0081173 -0.01544 -0.0081173 5.90154e-05)
(4.8858e-05 -0.0127954 -0.0154283 -0.0127954 2.13901e-05 -0.00812533 -0.0154283 -0.00812533 5.54857e-05)
(4.66538e-05 -0.0128007 -0.0154342 -0.0128007 3.34545e-05 -0.00811404 -0.0154342 -0.00811404 7.52483e-05)
(4.74491e-06 -0.0128019 -0.0154396 -0.0128019 5.36746e-05 -0.00811008 -0.0154396 -0.00811008 7.68388e-05)
(8.05892e-05 -0.0128056 -0.0154249 -0.0128056 6.08197e-05 -0.00814557 -0.0154249 -0.00814557 4.36416e-05)
(4.61987e-05 -0.0127939 -0.0154287 -0.0127939 2.11984e-05 -0.0081242 -0.0154287 -0.0081242 6.22445e-05)
(9.25096e-05 -0.0128106 -0.0154204 -0.0128106 5.83912e-05 -0.00814706 -0.0154204 -0.00814706 5.85563e-05)
(5.53937e-05 -0.0127945 -0.0154227 -0.0127945 2.25818e-05 -0.00812499 -0.0154227 -0.00812499 6.81202e-05)
(6.51677e-07 -0.0128032 -0.0154398 -0.0128032 5.07676e-05 -0.00810408 -0.0154398 -0.00810408 9.50567e-05)
(7.34642e-05 -0.0128003 -0.0154221 -0.0128003 2.5981e-05 -0.00813005 -0.0154221 -0.00813005 5.45495e-05)
(-0.000125186 -0.0128295 -0.015449 -0.0128295 0.000103986 -0.00810909 -0.015449 -0.00810909 8.22552e-05)
(3.72464e-05 -0.0127962 -0.0154301 -0.0127962 2.57817e-05 -0.00811826 -0.0154301 -0.00811826 6.683e-05)
(7.16901e-05 -0.0128013 -0.0154267 -0.0128013 4.1211e-05 -0.00813807 -0.0154267 -0.00813807 3.84588e-05)
(5.73709e-05 -0.012796 -0.0154257 -0.012796 2.30119e-05 -0.00812889 -0.0154257 -0.00812889 5.25344e-05)
(1.84186e-05 -0.012804 -0.0154441 -0.012804 4.0594e-05 -0.00811414 -0.0154441 -0.00811414 6.82272e-05)
(5.22833e-05 -0.0127935 -0.0154252 -0.0127935 2.23867e-05 -0.00812875 -0.0154252 -0.00812875 5.71289e-05)
(8.1486e-05 -0.0128064 -0.015425 -0.0128064 5.56161e-05 -0.00814408 -0.015425 -0.00814408 4.20606e-05)
(5.42525e-05 -0.0127939 -0.0154241 -0.0127939 2.22406e-05 -0.00812518 -0.0154241 -0.00812518 5.86263e-05)
(-0.000105458 -0.0128187 -0.0154583 -0.0128187 8.25331e-05 -0.00810532 -0.0154583 -0.00810532 8.11508e-05)
(9.98326e-05 -0.0128092 -0.01542 -0.0128092 6.41201e-05 -0.00814851 -0.01542 -0.00814851 6.19322e-05)
(4.23223e-05 -0.012796 -0.0154287 -0.012796 3.65699e-05 -0.00811499 -0.0154287 -0.00811499 7.10345e-05)
(5.13521e-05 -0.0127947 -0.0154274 -0.0127947 2.64954e-05 -0.0081329 -0.0154274 -0.0081329 4.60127e-05)
(-0.000120448 -0.0128234 -0.0154562 -0.0128234 8.43824e-05 -0.00811664 -0.0154562 -0.00811664 6.77487e-05)
(8.96487e-05 -0.0128033 -0.015416 -0.0128033 2.93421e-05 -0.00813203 -0.015416 -0.00813203 6.4828e-05)
(6.78816e-05 -0.0128005 -0.0154305 -0.0128005 3.09987e-05 -0.00813074 -0.0154305 -0.00813074 4.04771e-05)
(0.000398751 -0.0128475 -0.0154371 -0.0128475 0.000125657 -0.00814355 -0.0154371 -0.00814355 2.57097e-05)
(7.86854e-05 -0.0128057 -0.0154282 -0.0128057 6.10492e-05 -0.00814189 -0.0154282 -0.00814189 3.17257e-05)
(9.46675e-05 -0.0128119 -0.0154247 -0.0128119 7.11272e-05 -0.00814389 -0.0154247 -0.00814389 4.12567e-05)
(0.000165911 -0.0128348 -0.0154127 -0.0128348 0.000118768 -0.00814814 -0.0154127 -0.00814814 5.22627e-05)
(4.73377e-05 -0.0127996 -0.0154325 -0.0127996 2.70608e-05 -0.00811799 -0.0154325 -0.00811799 6.65833e-05)
(-8.73394e-05 -0.0128116 -0.0154487 -0.0128116 6.70535e-05 -0.00810831 -0.0154487 -0.00810831 7.82247e-05)
(-9.35154e-06 -0.0128066 -0.0154454 -0.0128066 5.02528e-05 -0.00811756 -0.0154454 -0.00811756 6.23149e-05)
(0.000107377 -0.0128332 -0.0154206 -0.0128332 0.000117317 -0.00815725 -0.0154206 -0.00815725 4.3021e-05)
(-4.31152e-05 -0.0128014 -0.015442 -0.0128014 7.94542e-05 -0.00810636 -0.015442 -0.00810636 8.11468e-05)
(5.79176e-05 -0.0128529 -0.0153765 -0.0128529 0.000110057 -0.00811872 -0.0153765 -0.00811872 9.72259e-05)
(4.97679e-05 -0.0127868 -0.0154313 -0.0127868 2.13097e-05 -0.0081304 -0.0154313 -0.0081304 5.65807e-05)
(-9.49788e-05 -0.01282 -0.015465 -0.01282 9.46428e-05 -0.00809598 -0.015465 -0.00809598 8.83703e-05)
(9.32939e-05 -0.0128172 -0.0154214 -0.0128172 5.56226e-05 -0.00814272 -0.0154214 -0.00814272 3.94518e-05)
(-4.60474e-05 -0.0128026 -0.0154401 -0.0128026 5.4665e-05 -0.00811335 -0.0154401 -0.00811335 7.4317e-05)
(-5.53216e-06 -0.0127983 -0.0154367 -0.0127983 4.01503e-05 -0.00811172 -0.0154367 -0.00811172 8.11178e-05)
(2.27368e-06 -0.0128013 -0.015442 -0.0128013 3.93099e-05 -0.00811519 -0.015442 -0.00811519 6.38904e-05)
(-6.76146e-05 -0.0128149 -0.0154579 -0.0128149 7.61209e-05 -0.00810631 -0.0154579 -0.00810631 7.83583e-05)
(-5.91496e-05 -0.0128127 -0.0154553 -0.0128127 7.48838e-05 -0.00810344 -0.0154553 -0.00810344 8.56897e-05)
(3.75142e-05 -0.0127885 -0.015414 -0.0127885 2.96574e-05 -0.00812475 -0.015414 -0.00812475 6.82801e-05)
(9.96895e-05 -0.0128129 -0.0154201 -0.0128129 8.48123e-05 -0.00815287 -0.0154201 -0.00815287 5.44486e-05)
(1.52793e-05 -0.0127967 -0.0154352 -0.0127967 2.98051e-05 -0.00811585 -0.0154352 -0.00811585 7.14224e-05)
(9.85193e-05 -0.012809 -0.0154178 -0.012809 6.31776e-05 -0.00815081 -0.0154178 -0.00815081 7.28648e-05)
(4.71043e-05 -0.0127944 -0.0154235 -0.0127944 2.69859e-05 -0.00811779 -0.0154235 -0.00811779 7.99885e-05)
(6.64702e-05 -0.0127971 -0.0154198 -0.0127971 3.03251e-05 -0.00812644 -0.0154198 -0.00812644 0.000113426)
(0.000127424 -0.0128301 -0.0154195 -0.0128301 0.000108487 -0.00815075 -0.0154195 -0.00815075 4.16446e-05)
(-6.26924e-05 -0.0128336 -0.0154319 -0.0128336 0.000109064 -0.00811025 -0.0154319 -0.00811025 8.66324e-05)
(9.72381e-05 -0.0128026 -0.0154233 -0.0128026 6.67528e-05 -0.00814902 -0.0154233 -0.00814902 5.55342e-05)
(0.000102576 -0.0128129 -0.0154259 -0.0128129 8.80315e-05 -0.00814685 -0.0154259 -0.00814685 3.45449e-05)
(3.79894e-05 -0.0127916 -0.0154235 -0.0127916 2.4659e-05 -0.00812078 -0.0154235 -0.00812078 6.97213e-05)
(4.02919e-05 -0.0127942 -0.0154302 -0.0127942 2.23005e-05 -0.0081228 -0.0154302 -0.0081228 5.89855e-05)
(1.25477e-05 -0.0127932 -0.0154336 -0.0127932 2.63005e-05 -0.0081227 -0.0154336 -0.0081227 5.49792e-05)
(4.73778e-05 -0.0127907 -0.0154236 -0.0127907 2.33324e-05 -0.00813021 -0.0154236 -0.00813021 5.41983e-05)
(3.69259e-05 -0.0127944 -0.0154289 -0.0127944 3.35581e-05 -0.00811736 -0.0154289 -0.00811736 7.15335e-05)
(-8.66882e-05 -0.0128115 -0.0154516 -0.0128115 6.79719e-05 -0.00810671 -0.0154516 -0.00810671 8.20496e-05)
(4.53698e-05 -0.0127936 -0.0154228 -0.0127936 2.51219e-05 -0.00812057 -0.0154228 -0.00812057 8.66467e-05)
(-1.04254e-05 -0.0128015 -0.0154404 -0.0128015 5.65636e-05 -0.00811084 -0.0154404 -0.00811084 7.81168e-05)
(0.000147065 -0.0128255 -0.0154183 -0.0128255 0.000114536 -0.00814925 -0.0154183 -0.00814925 4.41074e-05)
(-2.9061e-05 -0.0128474 -0.0154219 -0.0128474 0.000117788 -0.00812699 -0.0154219 -0.00812699 7.98254e-05)
(4.23506e-05 -0.0127958 -0.0154254 -0.0127958 3.09988e-05 -0.00811487 -0.0154254 -0.00811487 8.1659e-05)
(0.000200148 -0.0128267 -0.0154304 -0.0128267 0.000118472 -0.00814475 -0.0154304 -0.00814475 3.15304e-05)
(8.12111e-05 -0.0128029 -0.0154281 -0.0128029 5.8706e-05 -0.00813963 -0.0154281 -0.00813963 2.94596e-05)
(7.03231e-05 -0.0128016 -0.0154274 -0.0128016 3.7779e-05 -0.00813719 -0.0154274 -0.00813719 3.64146e-05)
(6.413e-05 -0.0127946 -0.0154229 -0.0127946 3.23956e-05 -0.00813781 -0.0154229 -0.00813781 6.06885e-05)
(0.000489998 -0.0128586 -0.0154262 -0.0128586 0.000121686 -0.00814259 -0.0154262 -0.00814259 3.49966e-05)
(6.65262e-05 -0.0127984 -0.0154238 -0.0127984 2.40336e-05 -0.00812918 -0.0154238 -0.00812918 5.01093e-05)
(1.74362e-05 -0.0127949 -0.0154273 -0.0127949 3.14128e-05 -0.00811393 -0.0154273 -0.00811393 7.5665e-05)
(1.4564e-05 -0.0127936 -0.0154353 -0.0127936 2.61033e-05 -0.0081249 -0.0154353 -0.0081249 4.93786e-05)
(0.0001352 -0.0128379 -0.0154179 -0.0128379 0.000122455 -0.00815376 -0.0154179 -0.00815376 4.3166e-05)
(9.60373e-05 -0.0127903 -0.0154043 -0.0127903 3.70334e-05 -0.00811267 -0.0154043 -0.00811267 8.82232e-05)
(-0.000176736 -0.0128267 -0.0154572 -0.0128267 9.53706e-05 -0.00810739 -0.0154572 -0.00810739 7.62305e-05)
(-0.000103865 -0.0128205 -0.0154579 -0.0128205 7.23623e-05 -0.00810788 -0.0154579 -0.00810788 7.59502e-05)
(0.000133901 -0.012839 -0.0153952 -0.012839 0.000103982 -0.00811155 -0.0153952 -0.00811155 9.17178e-05)
(0.000108608 -0.0128247 -0.0154195 -0.0128247 8.29505e-05 -0.00814746 -0.0154195 -0.00814746 4.40198e-05)
(7.77409e-06 -0.0127938 -0.0154281 -0.0127938 3.66494e-05 -0.00811621 -0.0154281 -0.00811621 7.46827e-05)
(3.40036e-05 -0.0127909 -0.0154222 -0.0127909 2.49258e-05 -0.00812073 -0.0154222 -0.00812073 8.8665e-05)
(-0.000105847 -0.0128155 -0.0154554 -0.0128155 8.11275e-05 -0.00810708 -0.0154554 -0.00810708 7.81035e-05)
(-0.000129564 -0.0128209 -0.0154573 -0.0128209 9.39061e-05 -0.00810518 -0.0154573 -0.00810518 8.19337e-05)
(4.48626e-06 -0.0128015 -0.0154388 -0.0128015 4.19353e-05 -0.00810959 -0.0154388 -0.00810959 8.72812e-05)
(3.5419e-05 -0.012791 -0.0154195 -0.012791 2.60979e-05 -0.00811991 -0.0154195 -0.00811991 7.29828e-05)
(1.58566e-05 -0.0127931 -0.0154256 -0.0127931 3.0651e-05 -0.008113 -0.0154256 -0.008113 9.43562e-05)
(1.65403e-05 -0.0127924 -0.0154298 -0.0127924 2.56571e-05 -0.00811837 -0.0154298 -0.00811837 7.27568e-05)
(3.59631e-05 -0.0127935 -0.0154215 -0.0127935 3.0191e-05 -0.00811725 -0.0154215 -0.00811725 0.000102325)
(-2.89151e-05 -0.012803 -0.0154416 -0.012803 5.66334e-05 -0.00810551 -0.0154416 -0.00810551 8.95437e-05)
(7.6092e-05 -0.0127971 -0.0154187 -0.0127971 3.51836e-05 -0.0081412 -0.0154187 -0.0081412 0.000114556)
(0.000119222 -0.0128352 -0.015421 -0.0128352 0.000109972 -0.00815028 -0.015421 -0.00815028 3.89289e-05)
(-0.000133694 -0.0128209 -0.0154551 -0.0128209 9.71451e-05 -0.00810641 -0.0154551 -0.00810641 8.21374e-05)
(0.00010551 -0.012798 -0.0154244 -0.012798 7.44008e-05 -0.00815011 -0.0154244 -0.00815011 5.48456e-05)
(6.38583e-05 -0.0127985 -0.0154252 -0.0127985 3.59004e-05 -0.00813847 -0.0154252 -0.00813847 4.25739e-05)
(-3.06829e-06 -0.0127954 -0.0154289 -0.0127954 4.2421e-05 -0.00811043 -0.0154289 -0.00811043 8.97818e-05)
(5.61695e-05 -0.012793 -0.0154232 -0.012793 2.69945e-05 -0.00813435 -0.0154232 -0.00813435 5.49931e-05)
(-9.21085e-05 -0.0128209 -0.0154545 -0.0128209 7.74387e-05 -0.0081249 -0.0154545 -0.0081249 5.94447e-05)
(2.02289e-05 -0.0127918 -0.0154281 -0.0127918 2.88059e-05 -0.00811993 -0.0154281 -0.00811993 6.96602e-05)
(3.56365e-05 -0.0127944 -0.015429 -0.0127944 3.51183e-05 -0.00811583 -0.015429 -0.00811583 7.54665e-05)
(4.02225e-05 -0.0127885 -0.0154211 -0.0127885 2.36626e-05 -0.00812906 -0.0154211 -0.00812906 7.44015e-05)
(1.91236e-05 -0.0127961 -0.015429 -0.0127961 3.26817e-05 -0.00811294 -0.015429 -0.00811294 9.27273e-05)
(5.40967e-09 -0.0127978 -0.0154363 -0.0127978 4.18919e-05 -0.00811404 -0.0154363 -0.00811404 7.37644e-05)
(0.000163724 -0.012828 -0.0154102 -0.012828 0.000119334 -0.00814791 -0.0154102 -0.00814791 5.63401e-05)
(-0.000100644 -0.0128327 -0.0154501 -0.0128327 0.000104297 -0.00811905 -0.0154501 -0.00811905 7.53544e-05)
(-1.59258e-05 -0.012803 -0.0154396 -0.012803 4.54305e-05 -0.00810737 -0.0154396 -0.00810737 9.06289e-05)
(0.000188323 -0.0128249 -0.0154286 -0.0128249 0.000119292 -0.00814602 -0.0154286 -0.00814602 3.18091e-05)
(-0.000109896 -0.0128475 -0.015434 -0.0128475 0.000116147 -0.00812624 -0.015434 -0.00812624 7.44156e-05)
(0.000101229 -0.0128126 -0.0154231 -0.0128126 7.86209e-05 -0.00814884 -0.0154231 -0.00814884 4.46219e-05)
(8.98424e-05 -0.012797 -0.0154179 -0.012797 5.25026e-05 -0.00815032 -0.0154179 -0.00815032 0.00010102)
(0.000126934 -0.0128245 -0.0154077 -0.0128245 9.94722e-05 -0.00815176 -0.0154077 -0.00815176 7.45807e-05)
(8.11238e-05 -0.0128091 -0.0154259 -0.0128091 3.7326e-05 -0.00813575 -0.0154259 -0.00813575 3.30316e-05)
(5.11507e-05 -0.0127972 -0.0154235 -0.0127972 2.48517e-05 -0.00812024 -0.0154235 -0.00812024 7.39775e-05)
(9.34077e-05 -0.0128026 -0.015427 -0.0128026 7.5645e-05 -0.00814668 -0.015427 -0.00814668 3.6833e-05)
(8.38141e-05 -0.0127984 -0.0154154 -0.0127984 2.55867e-05 -0.00812841 -0.0154154 -0.00812841 6.00667e-05)
(0.000109393 -0.0127915 -0.0154013 -0.0127915 4.0345e-05 -0.00811134 -0.0154013 -0.00811134 0.000101026)
(3.03427e-05 -0.0127869 -0.0154264 -0.0127869 2.03785e-05 -0.00812921 -0.0154264 -0.00812921 5.90361e-05)
(-8.87751e-05 -0.0128145 -0.0154548 -0.0128145 6.5619e-05 -0.0081062 -0.0154548 -0.0081062 8.14959e-05)
(-0.000134348 -0.0128254 -0.0154524 -0.0128254 0.000102755 -0.00810646 -0.0154524 -0.00810646 8.30154e-05)
(6.50277e-05 -0.0127995 -0.0154247 -0.0127995 2.39978e-05 -0.0081275 -0.0154247 -0.0081275 5.33359e-05)
(7.65386e-05 -0.0128047 -0.0154229 -0.0128047 4.95739e-05 -0.00814499 -0.0154229 -0.00814499 5.02818e-05)
(5.82261e-05 -0.012792 -0.0154161 -0.012792 2.67272e-05 -0.00812927 -0.0154161 -0.00812927 9.95514e-05)
(-0.000150333 -0.0128182 -0.0154571 -0.0128182 9.45568e-05 -0.00810301 -0.0154571 -0.00810301 8.32762e-05)
(-0.000106217 -0.0128098 -0.0154522 -0.0128098 7.18937e-05 -0.00810677 -0.0154522 -0.00810677 8.15877e-05)
(4.84987e-05 -0.012791 -0.0154231 -0.012791 2.3481e-05 -0.00812679 -0.0154231 -0.00812679 7.96957e-05)
(-6.17198e-05 -0.012812 -0.0154539 -0.012812 7.18665e-05 -0.00810207 -0.0154539 -0.00810207 8.45367e-05)
(-8.52225e-05 -0.0128099 -0.015453 -0.0128099 6.56663e-05 -0.00809994 -0.015453 -0.00809994 9.56119e-05)
(6.65406e-05 -0.0127934 -0.0154228 -0.0127934 3.80317e-05 -0.00814277 -0.0154228 -0.00814277 6.83151e-05)
(-7.29991e-05 -0.0128098 -0.0154521 -0.0128098 7.0359e-05 -0.00809989 -0.0154521 -0.00809989 9.91866e-05)
(-2.90166e-05 -0.0128018 -0.0154392 -0.0128018 5.20424e-05 -0.00810542 -0.0154392 -0.00810542 9.3019e-05)
(2.44959e-05 -0.0127911 -0.0154258 -0.0127911 2.48753e-05 -0.00812017 -0.0154258 -0.00812017 9.08321e-05)
(9.12496e-05 -0.012803 -0.0154172 -0.012803 2.78078e-05 -0.00813075 -0.0154172 -0.00813075 5.92744e-05)
(3.90112e-05 -0.0127919 -0.0154241 -0.0127919 2.46943e-05 -0.00812069 -0.0154241 -0.00812069 7.16711e-05)
(8.11305e-07 -0.0127972 -0.0154381 -0.0127972 2.8962e-05 -0.00811547 -0.0154381 -0.00811547 7.21898e-05)
(3.31257e-05 -0.0127928 -0.0154274 -0.0127928 2.85795e-05 -0.00812046 -0.0154274 -0.00812046 6.54019e-05)
(-1.23369e-05 -0.0127977 -0.0154307 -0.0127977 4.57147e-05 -0.00810779 -0.0154307 -0.00810779 0.000100302)
(7.08549e-05 -0.0127971 -0.0154189 -0.0127971 3.65481e-05 -0.00814185 -0.0154189 -0.00814185 7.34609e-05)
(-6.1921e-05 -0.0128151 -0.0154536 -0.0128151 6.70658e-05 -0.00812707 -0.0154536 -0.00812707 5.67828e-05)
(1.15207e-05 -0.012794 -0.0154281 -0.012794 3.24351e-05 -0.00811469 -0.0154281 -0.00811469 8.53141e-05)
(4.43959e-05 -0.0127921 -0.0154226 -0.0127921 2.63233e-05 -0.00811935 -0.0154226 -0.00811935 7.59317e-05)
(9.45626e-05 -0.0128042 -0.0154213 -0.0128042 7.11817e-05 -0.00815284 -0.0154213 -0.00815284 6.39296e-05)
(6.30518e-05 -0.012793 -0.0154164 -0.012793 2.76867e-05 -0.00813297 -0.0154164 -0.00813297 9.34142e-05)
(1.43317e-05 -0.012793 -0.0154295 -0.012793 2.91956e-05 -0.00811742 -0.0154295 -0.00811742 7.28442e-05)
(0.00011037 -0.012815 -0.0154124 -0.012815 8.87402e-05 -0.00815226 -0.0154124 -0.00815226 7.36649e-05)
(4.60281e-05 -0.012794 -0.0154252 -0.012794 2.57706e-05 -0.0081198 -0.0154252 -0.0081198 7.55091e-05)
(-0.00014053 -0.0128182 -0.0154589 -0.0128182 8.04602e-05 -0.00810075 -0.0154589 -0.00810075 8.88138e-05)
(7.39161e-05 -0.0128012 -0.0154282 -0.0128012 4.8687e-05 -0.00813919 -0.0154282 -0.00813919 3.47292e-05)
(0.000291241 -0.0128623 -0.0153487 -0.0128623 0.000115175 -0.00813538 -0.0153487 -0.00813538 0.000100438)
(0.000164126 -0.0128177 -0.0154169 -0.0128177 0.000113959 -0.00814929 -0.0154169 -0.00814929 4.71031e-05)
(8.11554e-05 -0.0127974 -0.0154169 -0.0127974 4.03654e-05 -0.00814714 -0.0154169 -0.00814714 0.000129439)
(2.12336e-05 -0.0128281 -0.0154368 -0.0128281 0.000101558 -0.00810317 -0.0154368 -0.00810317 8.45279e-05)
(6.97949e-05 -0.0128003 -0.0154307 -0.0128003 2.38285e-05 -0.00812895 -0.0154307 -0.00812895 4.11905e-05)
(-4.68025e-05 -0.012816 -0.0154549 -0.012816 6.81492e-05 -0.00810518 -0.0154549 -0.00810518 7.92744e-05)
(5.25241e-05 -0.0127908 -0.0154279 -0.0127908 2.52424e-05 -0.00813312 -0.0154279 -0.00813312 4.39557e-05)
(5.84744e-05 -0.0127955 -0.015427 -0.0127955 4.05566e-05 -0.00811969 -0.015427 -0.00811969 7.1228e-05)
(0.000129764 -0.0128013 -0.0153976 -0.0128013 3.61132e-05 -0.0081378 -0.0153976 -0.0081378 0.000113955)
(6.6191e-05 -0.0127952 -0.0154265 -0.0127952 5.33607e-05 -0.0081482 -0.0154265 -0.0081482 5.6097e-05)
(-2.74569e-05 -0.0127996 -0.0154393 -0.0127996 4.02668e-05 -0.00811 -0.0154393 -0.00811 8.63729e-05)
(-1.33782e-05 -0.0128054 -0.015443 -0.0128054 5.54623e-05 -0.00810553 -0.015443 -0.00810553 8.93047e-05)
(3.02371e-05 -0.0127962 -0.0154312 -0.0127962 2.66869e-05 -0.00811831 -0.0154312 -0.00811831 6.65291e-05)
(0.00013379 -0.0128267 -0.0154201 -0.0128267 0.000113993 -0.00815139 -0.0154201 -0.00815139 4.11336e-05)
(5.53587e-05 -0.0127943 -0.0154169 -0.0127943 3.17779e-05 -0.00811881 -0.0154169 -0.00811881 0.000109356)
(-2.88381e-06 -0.0127975 -0.0154331 -0.0127975 4.4299e-05 -0.00810766 -0.0154331 -0.00810766 8.93663e-05)
(-2.49967e-05 -0.0127932 -0.0154324 -0.0127932 3.41175e-05 -0.00811434 -0.0154324 -0.00811434 8.01121e-05)
(5.95829e-05 -0.012792 -0.015422 -0.012792 3.20476e-05 -0.00813882 -0.015422 -0.00813882 6.94596e-05)
(-7.37261e-05 -0.0128148 -0.0154567 -0.0128148 7.93895e-05 -0.00810409 -0.0154567 -0.00810409 8.29709e-05)
(-6.04187e-05 -0.0128065 -0.015447 -0.0128065 5.255e-05 -0.00810366 -0.015447 -0.00810366 9.52637e-05)
(7.08089e-05 -0.0127951 -0.0154226 -0.0127951 4.36228e-05 -0.00814565 -0.0154226 -0.00814565 6.76637e-05)
(-1.3829e-05 -0.0128007 -0.0154344 -0.0128007 5.16081e-05 -0.00810656 -0.0154344 -0.00810656 0.000101009)
(3.61296e-05 -0.0127902 -0.0154186 -0.0127902 2.62435e-05 -0.00812142 -0.0154186 -0.00812142 9.19593e-05)
(-2.06945e-05 -0.012798 -0.0154367 -0.012798 3.74955e-05 -0.00811143 -0.0154367 -0.00811143 8.25796e-05)
(5.94205e-05 -0.0127939 -0.0154191 -0.0127939 3.44909e-05 -0.00811347 -0.0154191 -0.00811347 9.14905e-05)
(7.97149e-05 -0.012803 -0.0154202 -0.012803 4.32282e-05 -0.00814321 -0.0154202 -0.00814321 6.13019e-05)
(-7.07457e-05 -0.012812 -0.0154521 -0.012812 5.80971e-05 -0.00810586 -0.0154521 -0.00810586 8.36303e-05)
(1.03357e-06 -0.0127976 -0.0154359 -0.0127976 4.15441e-05 -0.00811562 -0.0154359 -0.00811562 7.4424e-05)
(4.60174e-05 -0.01279 -0.0154152 -0.01279 2.73261e-05 -0.00812736 -0.0154152 -0.00812736 0.000102235)
(8.38896e-05 -0.0128004 -0.0154162 -0.0128004 4.32765e-05 -0.00814685 -0.0154162 -0.00814685 9.62673e-05)
(2.83435e-05 -0.0127901 -0.0154331 -0.0127901 2.23326e-05 -0.0081282 -0.0154331 -0.0081282 4.67887e-05)
(6.66085e-06 -0.0127949 -0.0154275 -0.0127949 3.47052e-05 -0.00811269 -0.0154275 -0.00811269 9.8132e-05)
(1.75941e-05 -0.0127937 -0.0154272 -0.0127937 3.32258e-05 -0.00811379 -0.0154272 -0.00811379 8.41073e-05)
(6.11207e-05 -0.0127918 -0.0154226 -0.0127918 3.43108e-05 -0.00814117 -0.0154226 -0.00814117 7.11641e-05)
(8.11625e-05 -0.0127981 -0.0154142 -0.0127981 3.51506e-05 -0.00814052 -0.0154142 -0.00814052 9.40731e-05)
(1.53785e-05 -0.0127912 -0.0154267 -0.0127912 2.70875e-05 -0.00811796 -0.0154267 -0.00811796 7.71473e-05)
(5.53436e-05 -0.0127921 -0.015419 -0.0127921 2.87697e-05 -0.00813654 -0.015419 -0.00813654 8.59415e-05)
(0.00013016 -0.0128271 -0.0154069 -0.0128271 0.000106948 -0.00815224 -0.0154069 -0.00815224 7.07281e-05)
(-0.000141145 -0.0128177 -0.0154569 -0.0128177 8.13091e-05 -0.00810242 -0.0154569 -0.00810242 8.69502e-05)
(8.41847e-05 -0.0128098 -0.0154254 -0.0128098 6.42739e-05 -0.00814457 -0.0154254 -0.00814457 3.7481e-05)
(5.30656e-05 -0.012857 -0.0153935 -0.012857 0.000121314 -0.00813168 -0.0153935 -0.00813168 8.62685e-05)
(2.84197e-05 -0.0127924 -0.0154326 -0.0127924 2.34599e-05 -0.00812008 -0.0154326 -0.00812008 8.09415e-05)
(-9.33334e-06 -0.0128018 -0.0154314 -0.0128018 5.35348e-05 -0.00810862 -0.0154314 -0.00810862 0.000111558)
(5.32083e-05 -0.0128257 -0.0154359 -0.0128257 0.00010623 -0.00810389 -0.0154359 -0.00810389 8.17874e-05)
(2.7874e-05 -0.0127971 -0.0154392 -0.0127971 3.40253e-05 -0.00812351 -0.0154392 -0.00812351 5.71091e-05)
(2.09121e-05 -0.0127967 -0.0154344 -0.0127967 2.85721e-05 -0.00811787 -0.0154344 -0.00811787 6.72898e-05)
(-1.131e-05 -0.0128028 -0.0154418 -0.0128028 3.86571e-05 -0.00811571 -0.0154418 -0.00811571 6.61712e-05)
(5.0745e-05 -0.0127994 -0.0154338 -0.0127994 4.30561e-05 -0.0081161 -0.0154338 -0.0081161 7.58114e-05)
(0.000135194 -0.0128223 -0.0153992 -0.0128223 7.87637e-05 -0.00815594 -0.0153992 -0.00815594 0.000113518)
(6.36715e-05 -0.0127965 -0.0154247 -0.0127965 4.70515e-05 -0.00814662 -0.0154247 -0.00814662 6.00939e-05)
(-1.23428e-05 -0.0127964 -0.0154335 -0.0127964 3.71651e-05 -0.00811071 -0.0154335 -0.00811071 9.38096e-05)
(-9.59815e-06 -0.0128036 -0.0154413 -0.0128036 5.21622e-05 -0.00810449 -0.0154413 -0.00810449 9.41754e-05)
(-4.3329e-06 -0.0128005 -0.0154392 -0.0128005 3.54228e-05 -0.00811305 -0.0154392 -0.00811305 7.41716e-05)
(0.000127011 -0.0128224 -0.0154129 -0.0128224 0.000104514 -0.0081535 -0.0154129 -0.0081535 6.05637e-05)
(9.22325e-05 -0.0127983 -0.0154119 -0.0127983 3.2414e-05 -0.00812848 -0.0154119 -0.00812848 0.000119127)
(7.71588e-05 -0.0128022 -0.0154177 -0.0128022 3.95406e-05 -0.00814255 -0.0154177 -0.00814255 7.59246e-05)
(3.9649e-05 -0.0127868 -0.015423 -0.0127868 2.82842e-05 -0.00813794 -0.015423 -0.00813794 7.29494e-05)
(6.4214e-05 -0.0127943 -0.0154206 -0.0127943 3.82856e-05 -0.00814286 -0.0154206 -0.00814286 7.00835e-05)