/*--------------------------------*- C++ -*----------------------------------*\
  =========                 |
  \\      /  F ield         | OpenFOAM: The Open Source CFD Toolbox
   \\    /   O peration     | Website:  https://openfoam.org
    \\  /    A nd           | Version:  10
     \\/     M anipulation  |
\*---------------------------------------------------------------------------*/
FoamFile
{
    format      ascii;
    class       volScalarField;
    location    "12";
    object      nut;
}
// * * * * * * * * * * * * * * * * * * * * * * * * * * * * * * * * * * * * * //

dimensions      [0 2 -1 0 0 0 0];

internalField   nonuniform List<scalar> 
25600
(
4.10884e-11
3.0019e-14
1.33103e-13
2.04156e-10
7.84287e-12
1.88752e-11
1.83345e-13
1.54363e-13
2.05665e-12
1.46181e-13
1.03736e-10
1.08599e-10
7.39757e-14
5.26264e-11
8.99064e-11
5.48153e-13
6.77595e-11
1.8211e-10
1.53015e-12
1.0716e-10
1.10748e-10
3.50237e-11
2.60292e-10
1.75052e-13
6.88269e-14
6.40961e-11
1.65799e-12
1.42996e-10
1.90003e-10
5.79053e-11
2.0547e-10
1.10795e-10
3.49905e-11
1.77362e-10
3.33442e-11
2.12697e-11
3.78272e-11
8.0577e-14
1.93369e-14
2.33453e-14
9.59399e-11
5.98509e-15
1.25056e-13
5.81542e-13
1.35019e-13
2.9656e-11
7.59117e-11
8.88064e-11
1.09289e-13
4.21698e-14
1.14823e-10
1.62163e-13
4.24221e-12
1.10399e-10
1.00055e-10
1.66791e-10
3.41871e-10
1.24195e-10
2.48963e-13
1.20996e-13
2.8423e-14
8.16596e-14
6.67596e-13
4.13982e-13
1.85431e-12
1.42874e-10
6.77394e-11
2.23214e-11
1.16588e-10
7.68399e-11
4.12141e-13
1.26266e-13
1.17296e-13
2.10906e-11
5.52619e-11
2.03357e-13
6.44762e-11
5.06292e-11
1.31858e-14
9.51653e-11
3.53543e-13
5.23909e-14
1.78718e-10
1.83981e-10
3.1258e-10
4.04628e-10
1.91305e-10
1.49509e-10
3.59412e-13
2.50947e-10
2.99936e-10
4.91138e-13
2.62934e-13
2.02236e-13
2.61105e-13
7.42593e-13
5.11643e-12
2.01222e-13
1.30656e-10
1.13942e-10
2.83465e-13
1.23548e-10
1.34827e-10
3.52226e-13
6.21986e-13
8.97463e-11
6.06728e-11
2.90574e-13
1.32986e-10
1.24844e-10
1.49548e-11
7.61111e-11
8.3165e-11
1.33149e-10
1.02821e-10
9.6535e-14
1.35399e-13
6.3417e-14
2.78003e-14
8.0303e-11
1.29148e-10
9.74704e-13
1.73712e-10
7.69253e-14
5.12465e-14
2.32796e-13
2.61048e-10
1.67008e-10
4.27841e-13
1.61389e-10
7.79351e-13
1.85491e-13
1.69605e-12
2.02699e-12
7.09575e-13
3.61738e-10
1.64408e-10
6.81311e-14
9.48164e-12
1.59872e-13
9.09415e-11
3.82413e-10
1.1879e-10
1.15994e-10
1.99374e-10
2.63642e-10
1.56259e-10
5.77633e-11
5.90172e-11
9.98836e-11
1.21673e-10
1.50805e-10
1.00798e-10
4.67597e-11
4.41561e-11
1.4672e-13
1.35818e-10
7.49119e-11
1.46285e-11
3.26228e-10
1.93139e-13
1.00718e-13
8.44815e-13
5.90571e-14
1.47178e-13
2.38688e-10
3.34769e-10
1.1206e-10
4.36925e-13
2.35407e-10
2.21944e-10
2.73167e-11
2.18396e-10
1.37815e-10
1.7691e-10
7.56741e-10
3.46748e-10
2.03986e-10
3.56593e-10
7.26967e-14
1.21582e-13
4.27246e-11
2.45096e-13
2.66719e-11
4.20436e-12
9.54003e-14
1.07119e-12
8.3495e-12
1.46653e-13
9.78452e-13
3.64136e-12
9.10115e-14
4.46987e-14
3.16734e-13
2.95136e-13
4.57844e-13
3.68824e-12
1.44394e-13
9.23476e-14
5.20798e-13
1.50497e-13
8.47976e-14
1.63608e-10
1.53108e-10
1.98391e-10
1.63229e-10
2.30944e-10
3.38631e-10
3.76153e-10
4.18668e-10
1.3292e-10
1.67874e-10
3.06475e-10
9.81556e-14
9.29092e-14
1.6621e-13
9.07501e-14
2.67594e-13
1.66198e-11
4.9646e-14
5.84534e-11
2.98929e-11
3.33425e-13
1.85204e-10
2.12658e-10
9.51413e-11
5.14319e-11
2.02787e-12
7.78943e-14
1.50664e-10
1.68046e-10
7.20417e-11
2.20345e-10
1.62175e-10
2.10483e-13
8.70206e-14
8.54457e-14
8.95418e-14
1.06689e-13
3.50313e-13
6.36348e-13
1.47959e-13
1.57794e-10
8.06284e-14
4.09967e-11
1.73097e-10
1.35414e-10
1.36516e-10
2.28041e-10
4.09231e-10
1.47789e-10
3.72758e-11
1.82448e-10
2.51912e-13
1.50705e-10
4.0794e-10
1.16137e-13
5.36255e-14
6.86051e-14
1.03343e-13
6.11685e-10
3.63931e-10
2.88682e-10
2.49348e-10
2.73393e-13
8.11652e-14
2.64056e-13
1.29983e-10
4.66109e-10
6.10125e-10
8.67771e-11
8.96203e-14
1.08341e-12
2.01066e-12
1.78086e-13
2.23294e-10
4.24655e-10
3.2187e-10
3.3842e-10
4.46405e-10
1.94739e-13
2.52592e-10
4.71852e-10
1.02072e-10
4.91875e-11
6.04954e-13
9.73353e-13
1.06496e-12
2.28141e-10
6.1235e-10
4.67275e-10
4.31898e-10
4.34601e-10
3.18092e-13
3.30794e-10
4.93754e-10
1.05662e-10
4.38694e-10
1.29216e-10
6.855e-11
4.5176e-12
9.62701e-14
8.39193e-14
2.16209e-14
1.14984e-12
2.53182e-10
1.55263e-10
1.03219e-10
3.19021e-10
3.10052e-10
4.64763e-13
6.05149e-13
3.28151e-10
1.13832e-10
5.21596e-13
1.43454e-13
2.46087e-13
9.09141e-12
2.03835e-12
9.20404e-12
1.55774e-12
6.76093e-11
4.85394e-12
8.23624e-11
1.90996e-10
1.61971e-13
3.53621e-10
3.69895e-10
6.71692e-13
2.12302e-10
8.91091e-11
3.02868e-10
3.24617e-10
8.08224e-14
2.58069e-10
8.10657e-11
4.42566e-13
2.04656e-12
2.26215e-13
1.00481e-13
5.70776e-13
4.73274e-13
2.93758e-10
1.66763e-10
1.54026e-10
7.91571e-11
9.84633e-14
7.76902e-11
3.85779e-10
2.82054e-10
1.39191e-12
1.0304e-13
4.34343e-10
1.4466e-10
1.30927e-10
3.45156e-10
4.59592e-13
1.89332e-13
3.81322e-10
4.10244e-10
2.70667e-10
6.14327e-10
6.469e-10
4.01149e-11
6.52514e-14
1.58444e-13
3.92074e-11
2.97812e-10
7.72121e-10
7.33853e-10
1.13551e-12
3.70988e-10
7.04998e-10
9.63163e-14
1.61963e-10
3.45976e-10
3.52386e-10
2.69841e-10
7.47297e-14
2.03446e-13
4.12274e-10
4.47258e-10
4.32238e-10
8.39632e-11
5.29381e-11
2.41759e-10
2.68269e-10
3.45994e-10
2.1753e-13
4.69482e-11
1.26401e-10
9.4373e-12
1.801e-10
4.88128e-13
2.64895e-10
2.85233e-10
1.23465e-10
1.50742e-10
4.2024e-10
3.85561e-10
5.99488e-13
4.60927e-10
7.31836e-10
1.23903e-10
7.76281e-13
8.46903e-14
2.56769e-13
2.79362e-13
5.13181e-12
5.55613e-10
7.68719e-10
4.45709e-10
5.67568e-14
8.09293e-12
8.95369e-10
2.03091e-13
4.61479e-11
4.05852e-10
3.19234e-13
2.57835e-10
3.24606e-11
2.32731e-13
4.11233e-13
8.47177e-14
3.60836e-13
2.47306e-13
4.47756e-13
2.77229e-10
3.41479e-10
7.4627e-10
1.69695e-10
1.89422e-13
1.29656e-10
1.95323e-11
1.09438e-10
4.32235e-10
3.22741e-12
8.78892e-11
2.59466e-10
1.93639e-12
5.17779e-13
5.54585e-13
1.97707e-10
2.36031e-11
8.89598e-13
2.5956e-10
8.09875e-10
9.08906e-11
2.99446e-13
9.59076e-13
2.8694e-13
5.20434e-10
4.49742e-10
1.01426e-13
1.1439e-13
1.58809e-11
1.35215e-10
8.27967e-13
9.4403e-14
5.05988e-10
8.1423e-10
1.25633e-10
8.08524e-10
1.71945e-10
6.82297e-11
2.22086e-10
8.52153e-11
4.87763e-13
7.4575e-13
3.41248e-10
1.10788e-10
1.59793e-13
6.95928e-13
4.22219e-11
4.84312e-10
1.79991e-10
2.32402e-10
1.03473e-09
1.12859e-09
9.37922e-13
3.95834e-10
1.20246e-09
5.01787e-10
1.0854e-10
3.87431e-10
3.3493e-10
3.27608e-11
1.70698e-12
3.05434e-10
3.17151e-10
3.31638e-10
1.86551e-10
1.99536e-10
6.66043e-10
4.45223e-10
5.68794e-13
1.04079e-10
1.96095e-10
8.77298e-14
1.59761e-11
1.91771e-10
2.81517e-13
1.82886e-13
6.71328e-10
8.68634e-10
1.6447e-13
2.41511e-13
1.53386e-10
3.32417e-11
9.21012e-12
1.51674e-13
1.58384e-13
2.4666e-13
3.71261e-13
3.11457e-10
5.61073e-13
2.72777e-13
1.97881e-13
1.31816e-10
2.39098e-10
8.92222e-14
8.1744e-14
1.31723e-13
2.64205e-13
1.93501e-10
1.67679e-12
7.6621e-10
6.58279e-14
5.77189e-12
1.23597e-12
4.80797e-10
1.14699e-09
2.01672e-12
2.01007e-13
2.90636e-12
1.45562e-11
3.82162e-13
1.43577e-10
1.10215e-13
2.66534e-10
2.88283e-10
7.53847e-14
4.66651e-14
3.70483e-13
4.00341e-10
1.38398e-10
2.94914e-10
6.56708e-10
2.73255e-10
8.79845e-11
1.01951e-13
2.36338e-14
2.34494e-10
8.22429e-14
6.82593e-13
8.7532e-10
3.68925e-11
1.90113e-11
1.7005e-12
3.67291e-13
8.64167e-10
8.40611e-10
2.99406e-10
5.28543e-10
1.54382e-10
3.74173e-10
8.68209e-14
5.45438e-13
4.41897e-14
1.43056e-13
1.73751e-13
6.99132e-10
2.9363e-10
1.67014e-10
3.44664e-10
7.70493e-13
3.29376e-10
6.33225e-10
5.14179e-10
7.99482e-10
2.16562e-10
4.4135e-10
1.92954e-10
2.92338e-13
7.91667e-13
1.08868e-13
2.54676e-12
7.52267e-11
2.32732e-10
1.47574e-09
1.30296e-09
4.46164e-10
3.64553e-12
5.56967e-10
5.17785e-13
3.81903e-13
3.1703e-10
7.58305e-12
1.46071e-10
2.44527e-10
1.55519e-13
6.68299e-10
1.12396e-10
4.09827e-12
4.37738e-13
3.655e-10
4.1561e-10
4.25138e-10
2.32025e-10
2.6333e-10
2.73554e-10
2.12368e-10
2.0393e-12
1.77575e-10
1.11201e-13
6.27912e-13
2.46341e-13
2.58802e-13
6.34207e-13
4.19768e-10
3.81503e-10
1.60949e-13
2.44948e-11
5.82271e-10
3.5521e-11
3.64402e-13
7.63946e-10
3.7608e-12
3.64278e-12
5.36144e-13
1.67414e-13
6.49634e-11
1.89579e-13
6.61609e-10
8.65799e-10
4.84641e-13
3.78683e-13
2.99819e-10
3.77856e-12
1.37938e-13
1.37484e-13
7.63096e-13
2.79612e-13
1.90259e-13
1.38517e-12
1.39564e-13
9.11921e-11
2.20058e-13
4.96188e-10
3.51628e-10
1.72907e-13
1.62292e-10
4.24472e-10
1.39183e-10
7.91329e-10
4.2076e-10
3.36145e-13
8.6837e-11
1.70551e-12
1.08608e-10
4.02956e-10
5.96166e-11
8.48157e-14
3.68758e-10
8.23496e-10
3.3225e-13
2.1794e-12
5.49285e-10
2.35504e-13
5.02888e-10
3.88752e-13
2.13813e-13
5.358e-10
3.19237e-13
1.59112e-13
1.63018e-10
3.89743e-10
1.05799e-12
4.56026e-10
3.32104e-10
1.13937e-12
6.33277e-10
1.7949e-10
1.16705e-09
3.60048e-10
2.31746e-11
3.23197e-10
2.03727e-13
1.39644e-13
2.47841e-10
7.32004e-13
9.24239e-11
1.06003e-09
1.93819e-13
7.60486e-11
8.54592e-14
2.30693e-10
4.44804e-10
4.83646e-13
5.15422e-10
1.69513e-10
2.28041e-13
6.74012e-13
1.5799e-10
6.73498e-10
1.35562e-13
1.2705e-12
4.35213e-10
1.31996e-10
4.03606e-10
3.30981e-10
4.384e-10
5.86798e-10
9.66103e-10
4.59409e-13
2.44777e-13
7.56743e-12
1.50409e-13
9.3028e-10
9.9942e-10
3.93395e-13
7.77099e-11
1.68062e-10
4.84012e-14
3.96399e-12
6.802e-10
5.36797e-10
5.94631e-10
4.22806e-10
6.28795e-10
1.18047e-10
5.17426e-10
2.46556e-10
7.8998e-13
5.04848e-14
2.25779e-13
2.74163e-13
7.972e-10
1.49882e-12
3.06561e-10
5.94196e-10
1.62337e-13
1.21732e-13
7.12239e-10
1.04521e-09
6.73655e-10
6.61442e-10
6.10509e-11
7.06635e-14
2.04961e-10
4.22002e-13
3.17788e-13
3.04711e-10
5.02864e-10
1.96215e-10
6.36631e-13
3.72746e-10
7.99349e-14
6.08481e-13
5.90485e-14
1.45326e-13
4.8824e-10
1.41678e-10
1.89712e-13
3.79547e-13
4.24349e-11
1.93746e-13
2.39345e-13
3.49786e-12
4.46465e-10
1.1575e-10
1.85863e-10
3.22471e-12
2.10119e-10
6.07902e-10
4.27283e-10
2.14869e-10
7.36182e-13
1.17541e-13
9.43081e-10
9.80605e-14
1.07992e-11
5.54733e-10
1.65185e-12
4.86322e-14
4.95444e-13
1.0982e-12
2.12165e-10
4.14256e-10
5.00093e-13
3.20965e-13
3.91976e-13
4.30411e-10
8.80797e-14
8.28936e-14
6.79366e-10
4.21464e-10
5.2505e-10
9.3267e-10
8.83185e-10
2.97639e-13
2.95715e-10
4.23561e-10
3.28639e-10
7.30798e-10
1.42745e-13
9.26738e-14
3.51401e-10
9.57152e-14
1.51229e-10
7.32255e-13
4.59757e-10
4.78355e-10
2.13981e-13
6.08664e-10
1.78233e-10
9.18831e-13
1.33735e-12
6.52473e-13
6.35106e-10
9.15647e-10
5.46997e-13
3.01198e-13
2.54607e-13
2.94331e-13
5.35746e-13
3.00495e-11
2.59139e-13
1.85462e-10
6.68695e-13
1.17514e-11
4.40622e-10
7.12312e-13
3.76521e-13
6.40182e-10
6.7013e-10
6.37296e-13
1.5467e-13
3.92988e-10
3.06638e-13
4.72459e-12
6.23895e-10
2.16311e-10
4.0992e-14
5.814e-10
9.96962e-10
4.63307e-10
1.02918e-09
9.85014e-10
1.3407e-10
2.71748e-10
1.44501e-10
9.72548e-10
3.30591e-12
4.82257e-13
1.48066e-13
6.2103e-13
1.17601e-10
4.23907e-13
4.75413e-13
3.06773e-10
5.89534e-11
3.01955e-13
1.20181e-09
1.23143e-09
3.34728e-13
3.29142e-10
4.54317e-10
5.15708e-11
4.95209e-10
1.46728e-10
4.76353e-10
1.15237e-09
1.51898e-09
3.11889e-13
3.45771e-10
7.2241e-13
4.11311e-13
7.08543e-10
3.35477e-11
9.47365e-14
1.49146e-10
6.54301e-13
2.79953e-10
1.89411e-13
5.1099e-13
1.98982e-13
2.45337e-13
4.22078e-13
1.73699e-10
6.7911e-10
9.24933e-12
1.77631e-13
4.05743e-10
3.15092e-13
8.58275e-14
2.68964e-13
1.00452e-10
3.90679e-13
4.02365e-13
1.78867e-13
1.24928e-12
1.33487e-10
4.10405e-13
1.27543e-09
9.42126e-13
7.12524e-13
4.878e-10
1.59388e-13
1.90395e-13
3.42922e-13
2.58758e-13
3.81806e-13
5.61141e-11
1.19017e-13
1.35618e-13
6.68353e-13
1.52667e-12
3.55978e-10
4.11989e-13
6.33672e-12
6.47161e-10
5.63288e-10
6.45241e-11
9.35732e-10
1.88102e-12
1.13676e-09
3.27723e-13
2.48982e-13
6.04156e-10
2.19473e-13
9.36526e-10
4.28366e-10
3.86379e-13
1.31546e-09
2.1449e-09
6.35162e-10
1.08376e-10
3.60811e-12
1.09045e-09
9.01436e-10
7.44629e-13
4.67563e-10
4.96019e-13
2.04305e-11
5.52925e-10
7.68063e-10
7.11589e-10
5.29251e-10
2.21926e-10
2.46858e-10
7.05405e-10
3.11502e-10
3.33775e-13
9.7069e-10
1.49116e-09
4.75922e-10
1.55309e-13
1.3338e-09
5.46724e-11
2.51278e-13
3.90658e-10
2.6482e-10
1.00298e-12
1.64751e-10
1.4781e-12
1.50161e-13
4.53996e-10
2.58479e-10
6.74594e-13
4.14587e-12
1.69259e-12
1.15792e-09
7.06493e-14
8.4136e-14
1.36373e-13
5.97148e-11
3.91262e-13
2.54371e-13
5.28578e-14
3.19536e-13
2.51345e-13
1.39269e-13
1.44532e-10
9.70356e-11
8.32029e-14
3.61667e-13
2.88883e-11
7.61357e-14
1.74417e-13
2.52408e-13
1.16397e-13
2.55373e-12
9.01441e-10
5.86993e-14
1.46181e-10
1.77332e-13
4.69433e-13
8.58173e-11
3.79322e-10
9.47575e-13
9.53284e-10
4.9361e-10
8.35802e-10
1.04869e-09
3.37108e-10
5.51822e-10
1.11981e-09
2.37609e-10
9.56384e-10
6.54708e-10
6.26492e-10
8.97053e-10
1.52069e-09
1.40554e-09
2.43233e-10
7.71768e-13
1.04573e-09
4.7858e-10
1.11136e-09
4.79252e-10
3.52004e-10
8.7101e-10
1.06656e-09
1.2091e-09
1.84237e-09
8.26573e-10
7.73028e-10
4.71319e-10
4.49274e-10
8.01165e-10
1.12389e-09
1.59606e-09
5.52557e-13
1.64434e-13
7.49505e-10
2.65525e-10
1.29631e-09
7.90167e-10
6.9109e-10
8.84015e-14
3.2226e-13
1.93118e-13
2.37162e-13
5.4197e-13
5.5935e-14
4.14911e-13
6.01392e-14
3.00992e-13
1.12257e-12
3.70439e-12
8.08328e-13
2.16212e-14
5.09311e-14
1.27862e-13
3.89257e-14
7.49533e-14
1.51462e-13
1.58657e-13
1.19467e-13
1.54982e-13
5.22155e-14
1.41717e-13
4.45078e-13
1.07623e-13
3.83158e-14
3.38597e-13
5.76247e-14
8.19959e-14
2.08081e-13
1.50371e-13
1.84169e-13
2.40832e-13
1.2927e-13
2.41686e-13
3.32768e-13
1.4949e-13
6.56472e-14
9.39838e-13
2.94934e-13
5.94544e-10
1.49982e-09
2.31246e-09
1.55434e-09
1.52332e-09
1.5267e-09
1.09017e-09
2.18905e-09
1.67074e-09
1.37588e-09
8.43243e-10
1.45661e-09
2.40912e-09
2.05186e-09
7.46996e-10
9.34259e-10
1.4643e-09
1.57762e-09
1.17623e-09
8.74793e-10
1.3829e-09
7.73892e-10
9.17647e-10
1.62473e-09
2.48912e-09
2.21083e-09
9.42218e-13
1.92929e-09
1.04872e-09
1.15803e-09
1.0091e-09
1.13509e-09
1.13765e-09
2.96791e-09
7.78125e-10
1.69697e-09
1.06274e-09
9.58603e-10
1.69407e-09
1.12568e-09
1.29517e-13
1.02159e-12
7.59157e-14
1.24836e-13
2.59487e-13
3.13625e-14
9.94419e-13
9.26587e-13
2.68037e-13
4.63909e-13
2.25495e-13
4.48461e-14
9.55739e-14
8.51028e-14
3.84128e-14
1.78524e-14
6.54715e-14
1.50214e-13
1.27408e-13
2.50616e-13
1.10185e-13
7.98461e-14
5.19553e-13
1.33863e-13
2.54773e-14
1.37787e-13
2.92988e-14
2.70588e-14
1.73451e-14
2.15657e-14
7.0947e-14
1.35021e-13
4.00126e-13
5.38599e-14
8.45194e-14
2.98625e-13
8.8231e-14
3.872e-13
7.18164e-13
2.24308e-15
1.94376e-09
2.0652e-09
2.41647e-09
2.16772e-09
2.29252e-09
1.98449e-09
1.99908e-09
2.11077e-09
2.2812e-09
2.07776e-09
1.47959e-09
1.90626e-09
2.03279e-09
1.46639e-09
1.6932e-09
1.82345e-09
1.92459e-09
1.80625e-09
1.79209e-09
2.56485e-09
1.82194e-09
2.05183e-09
1.77627e-09
2.05716e-09
2.42835e-09
2.03454e-09
3.02553e-09
2.37883e-09
1.63038e-09
1.59684e-09
1.89948e-09
2.08524e-09
2.11589e-09
2.70835e-09
2.37733e-09
2.26278e-09
1.98541e-09
1.40183e-09
2.23509e-09
1.75921e-09
5.5846e-13
7.47876e-13
2.98928e-13
1.77345e-13
2.70717e-13
4.55167e-13
8.02705e-13
3.20942e-13
2.018e-13
2.05112e-13
2.2737e-14
1.05232e-13
2.55675e-13
2.24454e-13
3.46911e-13
3.62092e-13
2.24974e-13
2.96115e-13
8.05144e-13
6.04429e-13
6.17532e-13
7.43399e-13
5.33689e-13
1.61433e-13
1.58637e-13
3.60532e-14
2.06979e-13
7.30989e-13
4.96215e-13
5.01514e-13
8.1049e-13
4.17466e-13
3.19979e-13
8.42166e-14
1.12439e-13
3.95789e-13
2.70487e-13
2.7182e-13
2.24849e-13
3.67275e-13
1.0395e-09
1.29341e-09
1.35463e-09
1.16493e-09
1.31495e-09
1.22929e-09
1.1697e-09
1.33859e-09
1.1879e-09
1.14318e-09
1.09751e-09
1.19467e-09
1.20508e-09
9.2053e-10
1.30785e-09
1.16234e-09
1.15754e-09
1.20456e-09
1.08039e-09
1.11699e-09
1.02993e-09
1.02265e-09
1.01197e-09
1.30104e-09
1.47633e-09
1.00954e-09
1.0355e-09
1.16375e-09
1.12694e-09
1.17074e-09
1.12651e-09
1.2038e-09
1.31308e-09
1.25878e-09
1.08433e-09
1.37532e-09
1.20438e-09
9.31681e-10
1.16137e-09
1.22611e-09
1.6485e-10
4.80499e-11
6.5511e-11
2.27694e-10
3.06629e-13
7.04939e-13
1.23883e-13
6.93984e-14
1.01965e-10
1.55403e-13
1.15313e-10
1.30166e-10
2.73972e-11
3.38121e-11
2.01014e-13
8.48428e-14
1.03375e-13
1.39266e-13
7.07211e-14
1.69776e-13
8.00902e-14
3.055e-14
1.40213e-10
1.32892e-11
2.19541e-13
1.22564e-10
1.17754e-13
2.88021e-13
1.78298e-13
7.0756e-14
2.84071e-13
1.15265e-13
3.99384e-14
9.69941e-13
7.75534e-14
3.45207e-14
2.97079e-14
3.99161e-14
6.60934e-14
1.5865e-13
9.86043e-11
4.05713e-14
8.74992e-11
1.22598e-10
2.27499e-14
1.76407e-13
4.11828e-13
9.2654e-11
2.16664e-11
1.48514e-13
3.88963e-14
1.87209e-14
1.71976e-13
1.41942e-10
1.93498e-10
2.93049e-11
5.71424e-12
4.05813e-13
1.97872e-13
3.90973e-13
4.77868e-14
3.38619e-14
1.95817e-13
1.82989e-13
3.7193e-13
6.26354e-11
1.31915e-13
7.69265e-14
2.08784e-13
1.2157e-13
2.57852e-14
9.6242e-13
4.91866e-13
4.09408e-11
2.67905e-13
7.47192e-14
1.25258e-10
9.99754e-11
8.80961e-14
1.0224e-10
1.05104e-10
2.17317e-14
6.02358e-12
1.74593e-13
1.10823e-13
1.2841e-10
1.33644e-10
1.85211e-11
1.08034e-13
9.11547e-12
1.34482e-10
7.18921e-11
3.04915e-10
1.90198e-10
6.30429e-14
1.17575e-13
6.95466e-13
7.09601e-13
3.54107e-11
3.77257e-11
3.697e-14
2.34817e-10
2.48606e-10
5.48826e-13
1.09466e-13
2.39423e-11
1.81672e-13
1.39323e-13
3.55002e-13
2.35496e-13
1.27079e-11
8.93911e-12
2.42129e-13
4.5146e-13
3.19502e-13
7.74139e-15
2.0451e-13
1.40155e-13
1.35396e-14
2.10411e-10
4.31079e-11
7.07571e-11
3.25294e-10
5.27723e-11
5.38525e-11
1.12728e-12
5.49211e-13
3.77136e-11
2.72308e-13
4.26473e-13
1.15773e-13
1.06044e-14
5.53013e-14
1.41739e-13
1.3683e-13
9.84953e-12
1.515e-10
4.9677e-13
2.32832e-10
6.23379e-14
5.9106e-14
1.42336e-13
6.17195e-14
6.08111e-14
1.80713e-13
2.21499e-13
1.66674e-13
5.90471e-13
2.32305e-13
4.502e-13
2.39282e-13
4.87631e-14
7.44292e-14
6.3716e-13
2.89874e-14
1.37054e-14
2.1576e-14
2.11655e-13
6.64042e-13
1.32429e-10
2.44096e-13
2.42296e-13
1.29007e-11
1.7665e-12
9.03083e-14
1.02436e-13
2.62564e-11
1.32878e-13
7.40699e-14
1.37069e-10
1.59008e-11
3.04688e-13
2.65021e-10
3.777e-12
3.91556e-14
7.29479e-14
3.19188e-14
6.69355e-14
1.26036e-12
9.8453e-14
5.48482e-13
1.40344e-10
4.17861e-14
5.76587e-14
2.56303e-11
4.35594e-13
6.1237e-11
1.94797e-10
2.81106e-10
4.00826e-10
2.08301e-10
6.58581e-12
3.62297e-11
7.98174e-11
2.82568e-11
9.53076e-11
1.83547e-10
1.96589e-10
1.54638e-10
8.19081e-11
7.26146e-11
1.31517e-13
1.16504e-13
5.80134e-14
9.05562e-14
3.99239e-13
1.45974e-13
6.44505e-14
1.23493e-15
1.65923e-13
1.62122e-13
5.41516e-14
1.67387e-10
9.50894e-11
3.71421e-10
8.31513e-10
2.98853e-10
2.92362e-10
1.30769e-10
1.13103e-13
5.59534e-11
1.10987e-13
3.67349e-14
2.82522e-13
1.81387e-13
1.27459e-13
1.0387e-10
1.97542e-12
1.77396e-13
2.62199e-13
1.45627e-13
2.58459e-14
1.02895e-13
8.44278e-13
2.60281e-13
1.19093e-13
1.33767e-12
2.57357e-10
2.48059e-10
3.20045e-10
1.45008e-13
5.74522e-11
3.36942e-10
1.87571e-10
4.59449e-11
1.14497e-12
7.96341e-13
5.07376e-13
1.9274e-13
1.56755e-10
2.34113e-10
4.38938e-11
1.8523e-10
7.34596e-13
2.40616e-13
1.78395e-13
1.04616e-13
6.93305e-11
3.35949e-13
5.64816e-14
8.09949e-11
3.30694e-14
3.78049e-13
1.97361e-11
4.88919e-14
1.59041e-13
2.55625e-10
3.42454e-13
1.59592e-13
3.61999e-13
4.56247e-11
2.43317e-10
2.94063e-10
9.65034e-11
1.78766e-13
5.78099e-14
1.17721e-12
5.57635e-13
4.44363e-14
6.96352e-14
2.0166e-13
1.59886e-13
2.23262e-13
1.7824e-14
2.84976e-13
2.8985e-10
5.28616e-10
2.76275e-10
1.88317e-13
3.08584e-14
2.9357e-14
5.13058e-14
6.93794e-14
6.61721e-14
2.51628e-13
1.33807e-10
2.61573e-10
3.71077e-10
1.74228e-13
1.28169e-13
3.67248e-11
5.81997e-13
1.65845e-10
2.30075e-10
1.04072e-10
1.55371e-10
6.51909e-11
1.32267e-13
2.12793e-13
6.80807e-11
3.86693e-11
3.86545e-12
2.01512e-10
3.38344e-10
2.57492e-10
2.4693e-10
2.34602e-13
7.02213e-14
1.83352e-10
5.67272e-10
1.66518e-14
2.64183e-14
1.33512e-13
2.60845e-13
7.19204e-14
8.45072e-14
2.70142e-13
2.10285e-13
1.50368e-13
1.50341e-12
1.43958e-11
2.50052e-10
3.41519e-10
8.42218e-13
3.13671e-11
6.34016e-13
1.57836e-10
5.14523e-10
1.34545e-13
1.28233e-12
1.98747e-10
6.43768e-13
2.42277e-10
1.82974e-13
6.94448e-14
2.12506e-13
4.38147e-13
1.75087e-13
1.35665e-13
1.50937e-13
3.44422e-11
8.423e-14
1.484e-13
1.98331e-13
2.88898e-13
7.5453e-11
2.77924e-11
2.83628e-11
6.36069e-11
2.2855e-10
5.24961e-13
6.82433e-10
5.06583e-10
1.58533e-10
1.38289e-10
2.07963e-10
2.92931e-13
1.81258e-13
8.55774e-11
6.40171e-13
9.5811e-14
8.71581e-14
3.00867e-13
1.45461e-13
6.00406e-13
1.07959e-13
1.90912e-13
3.73106e-12
8.29876e-14
2.67303e-10
1.59408e-12
3.86188e-13
1.48791e-12
7.58049e-14
1.56915e-13
1.37916e-11
1.94407e-13
1.81031e-13
1.5628e-13
1.45037e-13
8.56193e-14
3.38032e-14
3.13222e-10
5.45384e-10
2.32771e-13
1.78747e-13
4.43363e-13
3.01676e-13
7.00469e-14
1.68258e-13
2.07754e-13
4.32437e-13
4.60029e-13
4.50319e-11
5.93066e-10
8.68934e-10
9.77765e-10
9.15624e-14
1.36518e-13
1.03718e-10
2.37364e-13
3.72839e-13
5.88425e-13
5.96941e-13
1.04248e-10
2.00908e-13
1.17102e-10
2.07705e-10
5.43383e-10
5.94521e-10
3.1957e-13
1.22495e-13
2.25097e-13
1.29308e-12
6.56611e-10
4.39366e-10
1.99078e-13
1.5058e-13
9.0014e-14
4.42718e-13
2.59377e-10
1.62273e-11
2.99735e-10
3.45068e-13
3.07024e-13
5.54019e-13
2.0521e-14
3.47938e-13
6.74071e-10
3.71886e-13
1.24489e-10
1.11625e-12
5.05081e-13
1.33405e-13
1.79587e-14
3.58716e-14
2.70998e-13
1.05304e-10
7.37304e-13
1.73695e-12
3.93276e-10
2.45107e-13
1.25807e-13
1.06584e-13
2.47945e-11
1.40022e-10
2.78882e-10
1.92777e-13
7.09092e-13
4.65129e-10
2.40274e-13
1.76019e-10
4.67492e-10
6.556e-14
3.05573e-13
2.48465e-10
1.42428e-12
2.47876e-10
1.8724e-13
7.72405e-14
1.75538e-13
7.38129e-11
1.02788e-09
5.27766e-10
4.76558e-11
2.39774e-10
2.0175e-11
5.21975e-14
1.07251e-13
6.13221e-13
2.42447e-13
8.3924e-14
6.87552e-13
3.99621e-10
1.10752e-09
8.15401e-10
1.27643e-10
1.77775e-10
2.76732e-10
2.31502e-10
9.01748e-14
6.37985e-13
3.15613e-14
1.31371e-13
5.98919e-13
1.11115e-12
2.97246e-10
2.66812e-13
6.02693e-13
5.57764e-13
3.87375e-14
2.70539e-13
5.36623e-10
1.32453e-13
8.50533e-14
7.34442e-14
9.5828e-14
1.37294e-12
5.38324e-11
4.94558e-10
5.56362e-10
6.19471e-10
6.62073e-10
1.76652e-13
1.43551e-13
2.94154e-11
3.31518e-10
3.98006e-10
2.26043e-10
4.82611e-10
1.08683e-10
7.16586e-10
8.82503e-13
1.10175e-12
1.95062e-13
8.85109e-14
1.62355e-13
6.53755e-13
4.64491e-13
4.98544e-10
1.52358e-12
1.40597e-13
2.65794e-10
5.15942e-11
1.50543e-12
1.1061e-12
3.10283e-11
5.37662e-12
5.91326e-10
3.92748e-10
2.10718e-13
4.19511e-11
3.46026e-10
4.11391e-10
1.44341e-09
1.5428e-10
5.13752e-14
1.18936e-13
4.72427e-14
1.53251e-10
2.10907e-13
1.10787e-13
5.60883e-10
4.55184e-13
5.50078e-10
3.98579e-13
3.65262e-14
1.97229e-12
4.39474e-10
3.25123e-13
6.59058e-14
3.57356e-10
2.93141e-10
4.38818e-13
4.77182e-10
6.33902e-13
8.34477e-13
2.0558e-10
1.6891e-11
1.21818e-10
1.00641e-13
1.16231e-13
4.07278e-13
1.59079e-13
2.64908e-10
7.82195e-10
7.18347e-10
3.32225e-10
2.11079e-13
5.00373e-10
2.83787e-14
8.37166e-10
9.25199e-10
9.59253e-14
4.02589e-13
3.73793e-10
8.27369e-10
4.09082e-10
5.41186e-11
2.86028e-10
1.32591e-13
1.14256e-13
5.9709e-10
7.51086e-14
2.00245e-13
6.2992e-10
2.58373e-10
3.73919e-13
2.87156e-13
5.20845e-14
4.64261e-10
4.18126e-13
1.48377e-13
2.00858e-10
4.32365e-10
1.34507e-13
3.45743e-13
6.56904e-14
1.16679e-13
2.10789e-13
1.75888e-10
3.34119e-11
4.04083e-10
4.38273e-12
4.59249e-10
7.12644e-13
4.02253e-10
6.2614e-13
3.88257e-14
2.17193e-12
1.09461e-11
3.0791e-10
6.72986e-13
1.27772e-12
5.5145e-10
1.83669e-13
7.50519e-14
6.4885e-14
4.90509e-13
8.64273e-10
2.46866e-12
5.11928e-10
1.466e-12
3.75078e-13
5.3669e-10
2.04958e-13
1.92004e-13
2.16982e-13
4.65929e-13
1.31619e-10
3.18332e-10
7.31058e-10
4.65623e-13
1.55684e-12
3.26894e-11
1.2785e-13
9.60072e-14
7.87097e-10
6.36342e-10
2.33323e-13
1.24514e-10
9.29944e-14
1.25192e-13
2.73774e-14
2.24132e-13
2.55938e-13
8.69574e-14
1.40395e-13
2.25994e-13
9.78532e-13
2.33701e-14
2.16794e-10
1.94198e-10
2.20173e-13
1.07892e-12
1.71275e-11
8.36645e-10
1.69249e-13
4.27446e-14
4.97339e-13
3.63322e-14
3.63272e-13
1.68149e-10
3.65924e-13
1.57601e-13
1.02204e-13
1.22939e-11
1.02126e-13
9.4986e-14
2.13061e-10
3.47943e-13
1.07091e-13
2.27082e-10
9.71787e-14
1.93063e-10
1.47781e-13
1.60611e-10
1.41379e-13
2.55627e-14
5.01939e-10
3.58232e-10
2.5424e-13
4.28041e-13
3.28532e-13
9.17287e-13
3.85454e-10
5.92949e-10
4.34937e-10
3.5761e-10
8.99866e-10
2.78374e-13
3.24181e-10
5.18221e-10
1.238e-12
8.6145e-13
4.01943e-13
5.6753e-13
3.60335e-13
2.2216e-10
1.36114e-13
5.70886e-13
7.82e-10
8.55599e-13
1.04628e-13
2.1751e-13
4.07538e-10
5.80691e-11
2.40927e-10
2.93166e-10
3.41788e-10
5.60851e-10
2.02912e-10
7.76026e-14
2.27612e-10
7.33251e-11
1.23586e-10
1.193e-13
7.84698e-11
6.10782e-11
1.2216e-13
1.16751e-13
1.00521e-11
5.41544e-10
1.11266e-09
1.20532e-09
8.17481e-10
4.07734e-13
6.38941e-13
9.70652e-13
5.91044e-14
1.56124e-13
2.66422e-13
5.7105e-11
1.66044e-11
4.38579e-11
6.21862e-14
2.11684e-13
4.48618e-10
2.39931e-12
1.43863e-09
1.61173e-10
6.37371e-10
3.0556e-10
1.18501e-13
1.28805e-13
3.75739e-14
8.53065e-13
1.59544e-13
1.3249e-10
1.01411e-12
3.53147e-13
1.11982e-11
5.0427e-13
8.40279e-10
1.8811e-13
9.24071e-14
1.61577e-13
3.40179e-11
4.33772e-10
3.73927e-10
2.29575e-10
1.02285e-13
4.67973e-13
1.32115e-13
2.12824e-13
5.15094e-13
1.17467e-11
8.50236e-13
1.07179e-10
5.8137e-10
1.64208e-13
4.43675e-11
1.13547e-10
1.07423e-13
1.25286e-10
6.83607e-11
7.88981e-10
1.24488e-12
1.65572e-13
3.89981e-10
4.93165e-15
1.73816e-10
1.59348e-12
9.19673e-14
2.10787e-13
9.27086e-14
3.083e-10
2.21594e-10
3.60945e-11
1.90943e-13
3.97369e-11
1.05773e-10
1.12601e-13
1.21365e-13
2.04474e-13
8.34589e-14
7.35889e-10
3.04689e-10
1.51786e-13
2.84688e-13
6.53204e-13
9.94834e-14
5.70628e-13
5.55615e-12
1.4062e-10
1.4005e-10
5.05754e-10
6.9232e-10
5.92013e-10
9.29956e-14
3.747e-10
8.17873e-13
5.38243e-10
3.24036e-10
4.18348e-10
2.15382e-13
2.32676e-13
1.53982e-13
2.07183e-10
1.47044e-13
1.40847e-12
4.73403e-10
2.16783e-13
1.62821e-13
8.63283e-10
5.41179e-10
3.45423e-10
2.54372e-10
3.99347e-10
2.24364e-10
6.22176e-12
3.39251e-10
4.64107e-10
1.14172e-12
4.6227e-10
1.41601e-12
2.48625e-14
7.00912e-13
2.82829e-13
1.01101e-10
2.35939e-13
3.07342e-10
6.97362e-13
4.37732e-10
1.23765e-09
8.97666e-10
7.48483e-11
3.00226e-13
2.54273e-13
2.95896e-14
1.82603e-13
5.46212e-13
3.63529e-14
2.23023e-13
2.20216e-11
5.32869e-13
1.33483e-11
6.54366e-10
4.89489e-10
2.92409e-10
3.74276e-10
1.3762e-13
1.25969e-10
2.23593e-12
2.49926e-13
2.41753e-12
4.20752e-13
2.27375e-13
2.87629e-10
6.4935e-10
2.54121e-13
5.63481e-14
3.90178e-10
1.77344e-10
1.06573e-10
3.8301e-13
2.76274e-13
4.18382e-14
5.3508e-12
5.65007e-10
1.22195e-12
1.85296e-13
2.36278e-10
8.72831e-13
2.52511e-13
2.68433e-13
5.54422e-13
3.38341e-10
8.24299e-11
3.50512e-10
1.73576e-13
1.12197e-09
4.80473e-10
2.26815e-13
4.10461e-13
7.34599e-11
2.01802e-13
8.89937e-14
2.61846e-13
6.25519e-13
6.46677e-13
9.00149e-13
3.56305e-13
1.44633e-10
4.52902e-14
3.79558e-13
5.34306e-13
2.8967e-11
4.26931e-13
2.86593e-13
8.53457e-13
2.63932e-10
1.20649e-11
8.0795e-13
3.90697e-11
5.27278e-13
2.61571e-10
1.01432e-09
4.69717e-13
2.62211e-10
3.80231e-10
2.16543e-12
9.62446e-13
8.63938e-12
1.1765e-09
4.11995e-10
3.80098e-10
4.444e-13
5.83832e-10
6.61783e-10
7.48666e-10
1.2825e-10
5.14587e-13
2.44825e-10
2.16651e-10
5.7077e-11
7.7744e-13
5.14416e-10
6.44965e-10
1.17429e-11
7.66646e-10
6.97832e-10
2.7857e-14
4.40643e-10
3.42097e-10
4.22223e-10
7.21605e-10
4.55604e-13
5.39513e-10
7.72059e-11
5.62664e-13
4.49825e-13
2.66508e-12
9.00178e-13
3.55444e-13
6.43098e-13
2.55807e-14
1.30407e-12
2.21077e-13
1.6458e-12
4.92318e-13
6.62108e-12
2.06718e-13
7.3503e-13
3.21851e-10
3.93656e-13
2.43422e-13
6.44967e-13
4.72846e-14
5.65445e-14
2.62165e-13
3.1563e-13
3.28053e-13
4.71624e-13
1.39275e-12
4.30552e-13
2.35359e-13
7.85057e-13
1.32325e-13
1.40327e-11
4.95967e-13
1.3931e-12
2.05226e-13
1.33207e-13
3.5818e-10
5.05227e-14
5.70957e-13
9.13446e-14
4.42893e-13
2.1125e-13
8.486e-10
2.1628e-10
1.16903e-09
6.09589e-10
3.2663e-10
1.09418e-09
5.86575e-10
7.9605e-10
5.76833e-10
1.15362e-09
9.20302e-10
8.40975e-11
9.04153e-10
1.04145e-09
3.14147e-10
8.58888e-10
2.94219e-10
1.54644e-09
3.75477e-10
1.35048e-09
7.77248e-10
8.39708e-10
6.53652e-10
3.29249e-10
6.42713e-10
4.96578e-10
7.70451e-13
4.59484e-10
6.90026e-10
5.50566e-10
6.43902e-10
5.84374e-10
9.87985e-10
1.04383e-09
2.54617e-13
4.62603e-12
7.62692e-10
3.72505e-10
6.96982e-10
1.06149e-12
4.79879e-14
4.18725e-13
1.71952e-13
1.43783e-13
5.129e-14
1.02729e-13
3.26253e-13
2.07325e-12
6.89617e-13
1.14448e-12
4.14139e-14
1.05958e-13
9.57488e-11
3.69437e-14
3.87069e-13
5.7294e-14
3.41414e-14
4.90224e-14
2.29674e-13
1.02706e-13
6.87829e-14
2.30501e-13
2.60265e-14
7.15439e-13
1.76386e-13
7.76792e-14
7.91082e-13
4.38066e-13
6.85793e-13
1.74488e-13
1.26923e-12
3.93995e-14
5.40725e-14
1.04736e-13
7.98719e-14
9.76853e-13
1.0009e-13
6.35183e-13
2.00164e-12
2.82424e-13
1.10427e-09
6.34639e-10
1.78387e-09
8.2723e-10
1.02674e-09
1.24012e-09
1.05718e-09
1.03968e-09
1.10961e-09
8.0465e-10
1.68972e-09
1.74598e-09
4.99271e-13
1.26535e-09
1.12641e-09
1.00744e-09
9.62573e-10
1.35357e-09
8.26863e-10
3.17883e-10
3.66804e-10
1.29633e-09
1.17488e-09
8.2524e-10
1.67591e-09
1.72049e-09
1.10019e-09
9.22567e-10
8.75405e-10
1.29305e-09
9.11308e-10
9.77546e-10
6.89345e-10
1.41141e-09
1.76931e-09
6.73255e-10
1.2598e-09
1.44934e-09
8.77341e-10
2.11006e-09
1.99826e-13
2.10338e-13
1.36294e-13
2.67804e-14
9.96211e-13
4.11681e-13
5.27202e-13
6.31037e-13
1.89756e-14
3.59786e-14
1.0298e-13
7.74696e-14
1.96261e-13
2.13486e-13
1.91085e-14
1.78763e-14
2.20821e-13
7.34881e-13
8.26972e-13
3.68455e-13
1.38963e-14
9.47576e-14
3.89034e-13
4.51148e-13
1.22939e-13
1.58934e-13
4.06174e-13
2.25033e-13
3.35896e-13
2.94504e-13
2.6182e-14
3.90672e-14
2.47686e-13
7.32365e-14
1.19776e-13
3.01294e-13
7.60478e-13
1.36256e-12
8.80062e-14
1.72992e-14
1.81255e-09
1.60101e-09
2.23982e-09
1.98484e-09
1.72014e-09
2.1783e-09
1.80424e-09
1.89828e-09
1.94269e-09
1.82922e-09
2.22991e-09
2.49449e-09
2.47591e-09
1.76771e-09
2.37403e-09
1.92303e-09
1.7547e-09
1.97615e-09
2.00222e-09
2.41299e-09
2.50482e-09
1.9389e-09
2.01224e-09
1.94738e-09
2.20348e-09
2.90563e-09