/*--------------------------------*- C++ -*----------------------------------*\
  =========                 |
  \\      /  F ield         | OpenFOAM: The Open Source CFD Toolbox
   \\    /   O peration     | Website:  https://openfoam.org
    \\  /    A nd           | Version:  10
     \\/     M anipulation  |
\*---------------------------------------------------------------------------*/
FoamFile
{
    format      ascii;
    class       volVectorField;
    location    "12";
    object      U;
}
// * * * * * * * * * * * * * * * * * * * * * * * * * * * * * * * * * * * * * //

dimensions      [0 1 -1 0 0 0 0];

internalField   nonuniform List<vector> 
25600
(
(1.09549 0.00697583 -0.0055777)
(1.10698 0.00830333 -0.0100251)
(1.12791 0.0185783 -0.0146244)
(1.13493 0.0112498 -0.0127147)
(1.13125 -0.00381818 -0.00681317)
(1.11901 -0.0229692 -0.00318444)
(1.09974 -0.0402097 -0.00256015)
(1.09363 -0.040439 -0.00358808)
(1.09896 -0.0292296 -0.00316212)
(1.11069 -0.00156447 0.0022624)
(1.11889 0.0200693 0.00563763)
(1.11483 0.0232214 0.000102928)
(1.11521 0.0255039 -0.00681141)
(1.12366 0.0177658 -0.00844601)
(1.12956 0.00467311 -0.00526098)
(1.13324 -0.00874407 -0.000805212)
(1.12107 -0.0258788 0.000694258)
(1.08666 -0.0383322 -0.000884157)
(1.05517 -0.0435667 0.00273254)
(1.03047 -0.0522378 0.0116473)
(1.01339 -0.0586508 0.0170409)
(1.01647 -0.052418 0.0124338)
(1.02571 -0.0397618 -0.000110621)
(1.03816 -0.0217642 -0.0136303)
(1.05711 -0.00262734 -0.0194229)
(1.06771 0.0105017 -0.0173137)
(1.07836 0.0186105 -0.0135838)
(1.09012 0.020688 -0.00836434)
(1.09173 0.0282815 -0.0038853)
(1.09453 0.0341368 -0.000939996)
(1.08832 0.0247296 0.00663435)
(1.07526 0.0124248 0.015922)
(1.07277 -0.00501157 0.0213569)
(1.07527 -0.0158594 0.0220603)
(1.0883 -0.00781831 0.0145275)
(1.10283 0.00393632 0.00353557)
(1.10357 0.0219248 -0.0059778)
(1.09763 0.0277041 -0.0118555)
(1.08813 0.015341 -0.00940595)
(1.08891 0.0117925 -0.00518305)
(1.09216 0.0070666 -0.0207885)
(1.09232 0.0130037 -0.0241135)
(1.11313 0.0264432 -0.0254708)
(1.14226 0.0361767 -0.0185837)
(1.17518 0.0493128 -0.00804402)
(1.17749 0.0357976 0.0040436)
(1.14747 0.00632048 0.010133)
(1.11536 -0.0146442 0.00624368)
(1.09906 -0.0148541 -0.00318782)
(1.10083 0.0156327 -0.0108648)
(1.10313 0.0323383 -0.0067162)
(1.11263 0.0167659 0.0106746)
(1.13866 -0.000432325 0.0308813)
(1.1793 -0.00107638 0.0436701)
(1.2231 0.0199595 0.0393507)
(1.23672 0.0436491 0.0240786)
(1.19288 0.0298184 0.00858387)
(1.11358 -0.00627716 -3.64767e-05)
(1.04588 -0.0317592 0.00124627)
(1.004 -0.051223 0.00177681)
(0.99121 -0.0539788 -0.0106533)
(1.00332 -0.0465959 -0.0340613)
(1.01464 -0.0440777 -0.054589)
(1.02565 -0.0347605 -0.0642887)
(1.03814 -0.0210845 -0.0605932)
(1.04236 -0.00783888 -0.044674)
(1.04835 0.00586211 -0.0248149)
(1.05702 0.00888849 -0.00413287)
(1.06643 0.00662249 0.011591)
(1.08633 0.00600426 0.0165743)
(1.11012 0.00266892 0.0175472)
(1.12681 0.00322644 0.014187)
(1.13127 -0.00224531 0.015807)
(1.11789 -0.0125241 0.0229979)
(1.10258 -0.00702628 0.0208496)
(1.09896 0.0110588 0.00970404)
(1.10245 0.0308881 -0.00860752)
(1.10718 0.0322342 -0.0213915)
(1.11291 0.0182723 -0.0200357)
(1.10916 0.0125192 -0.018997)
(1.08836 -0.00617534 -0.0482279)
(1.07533 -0.00390427 -0.0261894)
(1.0663 -0.00233354 0.0105878)
(1.08698 0.002542 0.0407432)
(1.1395 0.0160547 0.0504731)
(1.16106 0.0108893 0.0388524)
(1.14382 -0.00111182 0.0139301)
(1.09248 -0.0163534 -0.0128282)
(1.0453 -0.0187647 -0.0253868)
(1.03414 -0.00742508 -0.0155967)
(1.05073 -0.0144618 0.0102832)
(1.10473 -0.0275446 0.0397283)
(1.16746 -0.0273109 0.060367)
(1.19263 -0.014984 0.0586478)
(1.16975 0.00311448 0.0326809)
(1.11289 0.0105699 -0.00424881)
(1.05908 -0.00469255 -0.0306215)
(1.04354 -0.0120944 -0.0326556)
(1.04486 -0.0140679 -0.0196804)
(1.05177 -0.0334258 -0.00692619)
(1.07382 -0.0501937 -0.0105405)
(1.09063 -0.0627799 -0.024613)
(1.09705 -0.071625 -0.0345147)
(1.09386 -0.064131 -0.0433892)
(1.08371 -0.0516501 -0.0473558)
(1.07921 -0.0431542 -0.0437385)
(1.0858 -0.0345509 -0.0356667)
(1.09308 -0.029532 -0.0189661)
(1.09101 -0.020517 0.000372606)
(1.08017 -0.00389513 0.0163023)
(1.08411 0.00663309 0.0227381)
(1.11839 0.00951098 0.010082)
(1.16018 0.00212111 -0.0069456)
(1.17776 -0.00589838 -0.014227)
(1.15359 0.00316744 -0.00580669)
(1.12103 0.0232478 0.0187943)
(1.10606 0.0359573 0.0369467)
(1.1045 0.0286564 0.0321206)
(1.12172 0.016219 0.00407866)
(1.11786 0.00576122 -0.0341989)
(1.0346 0.00418185 -0.0234531)
(1.03827 -0.00431916 -0.00622943)
(1.0314 -0.0115599 0.0118653)
(1.03759 -0.00115164 0.0274676)
(1.07422 0.0254577 0.0235881)
(1.12298 0.047604 -0.000241014)
(1.14586 0.061697 -0.0199126)
(1.09984 0.0477523 -0.0177297)
(1.04817 0.0194473 0.00884796)
(1.02107 -0.00711306 0.0340444)
(1.02721 -0.0291238 0.0262153)
(1.07848 -0.047696 0.00483957)
(1.10357 -0.045733 -0.00031422)
(1.07931 -0.0194168 0.00924671)
(1.0506 0.00569987 0.0212243)
(1.02767 0.00725823 0.00787357)
(1.03262 -0.0265114 -0.0214742)
(1.08088 -0.0443841 -0.0381978)
(1.10251 -0.0461209 -0.0353601)
(1.08626 -0.0412101 -0.0313967)
(1.05836 -0.0243789 -0.0500631)
(1.0252 -0.0261029 -0.0756671)
(1.03294 -0.0314578 -0.0772055)
(1.05659 -0.0276832 -0.0519919)
(1.06435 -0.0238098 -0.0206798)
(1.06075 -0.022941 -0.00277941)
(1.05706 -0.0158346 -0.000514714)
(1.06833 -0.0056324 -0.000585613)
(1.08546 0.0079095 0.00189492)
(1.10934 0.0306704 0.00394096)
(1.13431 0.0367806 -0.00161306)
(1.14642 0.0241657 -0.014846)
(1.14092 0.00884631 -0.0169315)
(1.11667 -0.0046151 -0.00283184)
(1.08896 -0.00667582 0.0184346)
(1.0775 0.00552035 0.0282086)
(1.0727 0.0155638 0.0127902)
(1.06206 0.0242977 -0.0130721)
(1.0584 0.0319841 -0.0329038)
(1.04741 0.0215754 -0.0376439)
(1.02388 -0.00255085 0.0351611)
(1.02844 -0.0030034 0.0629273)
(1.03402 -0.0136526 0.0683097)
(1.05667 -0.00637244 0.038563)
(1.0761 0.0174571 -0.0137122)
(1.07149 0.0437556 -0.0347581)
(1.07616 0.0619219 -0.00703023)
(1.11643 0.0525582 0.0378398)
(1.18197 0.0358183 0.0607445)
(1.18871 0.0149358 0.0312033)
(1.13072 0.0030101 -0.0144913)
(1.07392 0.0096116 -0.0212713)
(0.994965 0.00947478 -0.0233802)
(0.928975 -0.00147152 -0.0337296)
(0.907856 -0.00577546 -0.0434055)
(0.904653 -0.0275815 -0.0633837)
(0.935109 -0.0517181 -0.0615652)
(0.981873 -0.0430375 -0.0398245)
(0.991855 -0.0388876 -0.0212466)
(0.969133 -0.0249558 -0.0240713)
(0.943441 -0.0109406 -0.0462153)
(0.927163 -0.0244092 -0.0487444)
(0.949399 -0.0332732 -0.0273599)
(0.998516 -0.0326428 -0.00744613)
(1.03676 -0.0272407 -0.00707687)
(1.05659 -0.021052 -0.0255929)
(1.05477 -0.0113002 -0.0383165)
(1.04922 -0.00930576 -0.0207311)
(1.06892 -0.00910379 0.0147228)
(1.10281 0.00538347 0.040827)
(1.14202 0.0237712 0.0334585)
(1.16719 0.0319501 -0.00604929)
(1.15907 0.0245536 -0.0229977)
(1.13799 0.00686312 -0.00187361)
(1.11895 0.00140685 0.0230032)
(1.11177 0.00862788 0.0155478)
(1.09679 -0.000786086 -0.0258632)
(1.06007 -0.0138297 -0.0527223)
(1.0306 -0.00908679 -0.0471882)
(1.02141 -0.00486815 -0.0116967)
(1.05545 -0.055635 0.031229)
(1.03749 -0.0344726 0.0601827)
(1.03338 -0.00649831 0.04826)
(1.04701 0.03217 -0.0005509)
(1.05473 0.0491229 -0.0426415)
(1.04586 0.0244477 -0.0272328)
(1.04339 -0.0119373 0.0325162)
(1.07783 -0.0406376 0.0763041)
(1.1367 -0.0262975 0.0596814)
(1.13991 -0.00555183 0.0143186)
(1.09867 -0.0161024 -0.0059728)
(1.06213 -0.024525 0.00376034)
(1.0118 -0.0260867 -0.00325418)
(0.98652 -0.0213868 -0.0272574)
(1.00248 -0.00736442 -0.0354603)
(1.02661 -0.0283736 -0.0363462)
(1.05454 -0.0473744 -0.0347852)
(1.06822 -0.0280921 -0.0279371)
(1.07079 -0.0114226 -0.0203784)
(1.07876 0.00532966 -0.0169229)
(1.07479 -0.00763162 -0.0183729)
(1.05966 -0.0410451 -0.00910887)
(1.04569 -0.0530204 0.00142511)
(1.04277 -0.0515546 0.00350252)
(1.0535 -0.0470069 -0.00374161)
(1.06427 -0.0456703 -0.0158587)
(1.04634 -0.0355564 -0.0152544)
(1.00758 -0.0251889 0.00295155)
(0.990112 -0.00279985 0.0212298)
(1.00986 0.0223524 0.0342003)
(1.07413 0.0289897 0.0395118)
(1.14665 0.0358931 0.0248275)
(1.16729 0.0373884 0.0128588)
(1.1331 0.0244224 0.0147609)
(1.1014 0.010541 0.0267368)
(1.12949 0.0065707 0.0316874)
(1.1796 0.0190228 0.00330704)
(1.16913 0.0360448 -0.0387897)
(1.11926 0.0221705 -0.0578667)
(1.08267 -0.0297608 -0.0255392)
(1.07653 0.00500798 -0.0317247)
(1.05501 -0.0164921 0.0299203)
(1.03046 -0.0335542 0.0585545)
(1.06361 -0.0201561 0.0227)
(1.08954 0.00270279 -0.0513478)
(1.05303 0.00398914 -0.0945626)
(1.00046 -0.0109411 -0.0803423)
(0.982145 -0.0295448 -0.028184)
(1.03807 -0.0204523 0.0342117)
(1.11369 -0.00574402 0.0759641)
(1.16711 -0.0110698 0.0767872)
(1.15785 -0.0136551 0.0395261)
(1.09204 -0.00244234 -0.0149668)
(1.07022 0.00477413 -0.0454928)
(1.09909 -0.00353619 -0.0305439)
(1.11312 -0.0446152 -0.00596095)
(1.09696 -0.0690291 -0.0123325)
(1.07713 -0.0515716 -0.0461914)
(1.05896 -0.031749 -0.0738992)
(1.04574 -0.00591031 -0.0735852)
(1.02261 -0.0148182 -0.0586612)
(1.00753 -0.0387579 -0.0336457)
(1.02215 -0.0401287 -0.0172142)
(1.04583 -0.0259655 -0.00983696)
(1.05412 -0.00751833 -0.00149184)
(1.04086 0.00505348 -0.00711578)
(1.00692 0.0111519 -0.0106556)
(0.979141 0.00488815 0.00207471)
(0.999032 0.00562728 0.0210683)
(1.04126 0.0095739 0.035067)
(1.09095 0.014584 0.0445492)
(1.14764 0.0293934 0.0348907)
(1.15842 0.0191806 0.0144608)
(1.12139 -0.0102987 0.000872694)
(1.09021 -0.0340425 -0.00100073)
(1.0886 -0.0388868 -0.00110618)
(1.11816 -0.00656671 -0.012275)
(1.14538 0.0457681 -0.0430056)
(1.14493 0.0687428 -0.0777601)
(1.1088 0.0419455 -0.0769447)
(1.15474 0.00351718 -0.00023443)
(1.12025 0.00460645 0.0226881)
(1.06091 -0.0161128 0.00404746)
(1.033 -0.00590254 -0.0402521)
(1.01921 0.0162877 -0.079643)
(1.00794 0.0161116 -0.076239)
(1.00116 -0.00379337 -0.0517562)
(0.996504 -0.0479341 -0.0358275)
(1.0326 -0.0459429 -0.0160658)
(1.06602 -0.0111944 0.0123674)
(1.06556 0.0150351 0.0312721)
(1.05629 0.0397734 0.0338332)
(1.063 0.0207978 0.0215574)
(1.13555 -0.00426364 0.0242952)
(1.22061 -0.0034345 0.0444995)
(1.23274 -0.02201 0.0314162)
(1.1757 -0.0266438 -0.00220764)
(1.11691 -0.0134636 -0.0287615)
(1.07497 -0.00317972 -0.0498708)
(1.02883 0.0140237 -0.0693896)
(1.0001 -0.00549105 -0.0708045)
(0.990314 -0.038143 -0.0539788)
(1.01458 -0.077489 -0.0352568)
(1.05189 -0.10259 -0.0165234)
(1.05592 -0.0824865 -0.0160085)
(1.03542 -0.0429447 -0.0408799)
(0.991109 0.00299452 -0.0551185)
(0.95567 0.0179919 -0.0237798)
(0.979992 0.0126953 0.0354548)
(1.02524 0.00658371 0.0681128)
(1.08651 -0.00305054 0.0651674)
(1.14928 0.005831 0.0382296)
(1.12051 0.0234219 0.00962432)
(1.0606 0.0247031 -0.0141914)
(1.06277 0.0157441 -0.0195864)
(1.11215 -0.00915526 -0.00284146)
(1.14141 -0.026398 -0.00960112)
(1.1285 -0.00242766 -0.0412548)
(1.12615 0.024562 -0.0535514)
(1.14106 0.0120752 -0.0391802)
(1.12513 0.034401 0.0170422)
(1.10656 0.00535899 -0.00231121)
(1.08764 -0.0499456 0.0131964)
(1.09419 -0.0511288 -0.0141674)
(1.10231 -0.0140524 -0.0682562)
(1.13493 0.0142002 -0.0670857)
(1.18181 0.00788113 -0.0304878)
(1.1624 -0.051871 -0.00621256)
(1.13385 -0.0657007 -0.0049288)
(1.10487 -0.0184503 -0.0176005)
(1.08864 0.016339 -0.02479)
(1.13675 0.0108233 -0.0120848)
(1.16164 -0.00198827 -0.00280714)
(1.15352 0.00405842 0.0185603)
(1.11425 -0.0040097 0.041864)
(1.07295 -0.0101774 0.032406)
(1.0462 -0.00236867 -0.00156424)
(1.03952 3.99411e-05 -0.0192312)
(1.0372 0.00629826 -0.0232077)
(1.0514 0.0215554 -0.0454439)
(1.13912 0.00273072 -0.0556848)
(1.19501 -0.0318392 -0.0367158)
(1.16914 -0.0647668 -0.00421193)
(1.0823 -0.05563 0.00800947)
(0.986045 -0.0361471 -0.0236091)
(0.956202 -0.0352366 -0.0595621)
(0.980381 -0.0190741 -0.0454528)
(1.00109 -0.0164441 0.00784204)
(1.01583 -0.000220396 0.0336147)
(1.00184 0.0260586 0.00804286)
(0.995246 0.036703 -0.0148613)
(1.02556 0.0560123 -0.00161711)
(1.01945 0.0402154 0.0293879)
(1.02813 -0.0203926 0.0428999)
(1.09333 -0.0704349 0.0564366)
(1.11056 -0.0618368 0.0426701)
(1.0596 -0.0122663 0.00511685)
(1.04432 0.0223371 0.00154148)
(1.06477 0.0493834 0.0235344)
(1.08083 0.0511716 0.0300745)
(1.16013 -0.0210181 -0.0193453)
(1.18324 -0.0357899 -0.0167407)
(1.19353 -0.0823765 0.0205066)
(1.19445 -0.0862688 0.00360067)
(1.15714 -0.051911 -0.0263915)
(1.12482 -0.0256095 -0.0207273)
(1.07338 -0.0507814 -0.0418069)
(1.05059 -0.0793143 -0.0248415)
(1.07545 -0.0488774 0.0251419)
(1.02967 0.0010013 0.0407716)
(1.02841 -0.00281999 0.0301889)
(1.07547 -0.0251682 0.0164028)
(1.08665 -0.0259862 0.0128262)
(1.08627 0.0139312 0.0225673)
(1.017 0.0355101 0.027974)
(0.93417 -0.00984287 0.00919871)
(0.901672 -0.0306135 -0.0144575)
(0.895922 -0.0201407 -0.0314653)
(0.93099 -0.0170398 -0.072191)
(0.999197 -0.0240369 -0.0866784)
(1.09684 -0.0458376 -0.0381781)
(1.14246 -0.0385725 -0.0171625)
(1.05465 -0.0340281 -0.0239231)
(1.00454 -0.0251884 -0.0228423)
(1.01831 -0.0213018 -0.00846691)
(1.03166 -0.042829 0.0207918)
(1.06813 -0.0242249 0.0247679)
(1.01669 -0.0267268 9.11255e-05)
(0.966089 -0.026702 -0.0110348)
(0.961447 -0.0176865 -0.0246354)
(1.01391 -0.0383624 -0.0357269)
(1.07579 -0.00787815 -0.0281807)
(1.07098 0.0134059 0.00448515)
(1.08724 -0.00875838 0.0514856)
(1.09342 -0.0297091 0.0632904)
(1.03562 -0.0451496 0.0217345)
(1.00071 -0.0579101 -0.0107136)
(1.00157 -0.0209566 -0.00544377)
(1.02806 0.0201071 -0.0124721)
(1.09075 0.00433653 -0.0252357)
(1.10411 -0.0250994 -0.0344771)
(1.13349 -0.0596872 0.00708328)
(1.09897 -0.0819512 0.0554175)
(1.07655 -0.0438913 0.00258982)
(1.0429 0.026255 -0.0340351)
(1.02772 0.0267138 0.013989)
(0.945289 0.00813 0.0355292)
(0.946402 -0.0544852 0.0486628)
(1.04493 -0.0874631 0.0726442)
(1.08079 -0.0685483 0.0953371)
(1.07134 -0.0445706 0.066231)
(1.06984 -0.0495745 0.00593963)
(1.14057 -0.068339 0.0166648)
(1.17334 0.0168832 0.0493157)
(1.02637 0.060233 0.0396796)
(0.993708 -0.00324733 0.0166995)
(0.971795 -0.04315 -0.00654118)
(0.871079 -0.0374139 -0.00474)
(0.964813 -0.0351229 -0.0352847)
(1.02337 -0.0121363 -0.0611322)
(0.9701 -0.0193266 0.0141448)
(1.0044 -0.00778662 0.036983)
(1.00049 -0.0138464 -0.000982078)
(1.04553 -0.0560997 0.0147508)
(1.14656 -0.0477709 0.0515854)
(1.16463 -0.0317273 0.0808582)
(1.12718 -0.0139801 0.0399223)
(1.05231 -0.0332089 -0.0298514)
(1.03403 -0.026241 -0.0217981)
(1.03103 -0.0155164 0.0104484)
(1.0009 -0.0319148 0.0197991)
(1.02178 0.000179386 -0.0099048)
(1.08724 -0.00813556 -0.016892)
(1.22025 -0.0294355 0.0191732)
(1.25421 -0.0550469 0.0418038)
(1.15696 -0.0698558 0.00870427)
(1.06026 -0.037783 -0.0314313)
(0.999898 -0.00389316 -0.0511634)
(0.95371 0.00459002 -0.0565875)
(0.995241 0.00281052 -0.0595394)
(0.842081 -0.0186105 -0.0212158)
(0.865256 -0.0325613 -0.00687675)
(0.869671 -0.0579126 0.0444054)
(0.968184 -0.0500673 0.0212151)
(1.0381 -0.0342118 0.00935866)
(1.09668 -0.00455677 0.0446386)
(1.01423 -0.0120786 0.0511865)
(0.945835 -0.0837249 0.0644746)
(0.955002 -0.0704809 0.0534765)
(0.951525 -0.00675107 0.0186596)
(0.991535 0.0369708 -0.0262446)
(1.012 0.0217398 -0.0546325)
(0.975742 -0.0259905 -0.0173022)
(0.925335 0.0306753 0.0662618)
(0.919059 0.0604825 0.0752058)
(1.03299 -0.00712522 0.0109093)
(1.02474 -0.00799219 0.0238791)
(0.923648 -0.0433993 0.0246375)
(1.04465 -0.115593 -0.00710785)
(1.1655 -0.0283945 -0.018545)
(1.00463 0.0184389 0.0121872)
(0.922848 -0.0014524 0.00361777)
(0.999682 -0.0390338 -0.0329123)
(1.01968 -0.0961114 -0.0101818)
(1.04247 -0.0640637 0.00747491)
(1.10401 0.00268423 0.0120356)
(1.0924 0.0234276 -0.00837532)
(1.07025 -0.0192425 -0.0282227)
(1.08086 -0.0240421 -0.0182574)
(1.04479 -0.032732 -0.0152274)
(0.99876 -0.0857618 0.0392917)
(1.05962 -0.0611416 0.093535)
(1.0315 -0.0814756 0.0782081)
(1.06831 -0.0779672 0.0559239)
(1.16587 -0.00591151 0.0648933)
(1.13323 0.00954116 0.0132556)
(1.05633 -0.0077416 -0.0247869)
(0.971344 0.0260941 -0.0682474)
(0.802458 0.045507 -0.116722)
(0.742676 0.0134403 -0.0608883)
(0.856553 -0.0377054 -0.00698476)
(0.888545 -0.0516662 -0.00394528)
(0.867999 -0.113318 0.0896386)
(0.990873 -0.0625781 0.0183997)
(1.03982 0.0205423 -0.0427241)
(1.0868 0.00865887 -0.00935518)
(1.05299 0.00748174 0.0307502)
(1.00809 -0.0527142 0.0319104)
(0.91191 -0.0447653 -0.0357975)
(0.867101 -0.0405882 -0.0998472)
(0.907021 -0.012375 -0.0387358)
(1.0158 -0.0071221 0.0127535)
(1.00692 -0.0352121 0.035009)
(1.02946 0.0363815 0.0953826)
(1.19474 0.0402363 0.024457)
(1.15958 -0.0162724 -0.0525079)
(1.07913 0.0335436 0.0110398)
(1.06946 -0.011201 -0.0214576)
(1.04393 -0.113175 -0.0196033)
(1.089 -0.0221885 0.0294724)
(0.969046 0.0629415 0.00612634)
(0.887283 0.0216012 -0.0334238)
(0.99365 -0.0530191 -0.00853565)
(1.01529 -0.0987489 0.0301463)
(1.01847 -0.0897681 0.0159844)
(1.06172 -0.0237972 0.0134123)
(1.12223 0.0312969 -0.0108942)
(1.13606 -0.0435646 0.00112278)
(1.06896 -0.0524841 -0.00800232)
(0.923908 -0.0481823 0.0106063)
(0.855971 -0.0942432 0.0918166)
(0.933302 -0.00577068 0.0990249)
(0.844936 0.0191712 0.0756009)
(0.856456 -0.0450285 0.0382516)
(1.03309 -0.0444611 0.0508043)
(1.11607 -0.0136522 0.103768)
(1.11303 0.00371479 0.0607774)
(1.09157 0.0741481 -0.090432)
(0.93966 0.0829124 -0.15612)
(0.797178 0.0143856 -0.0287394)
(0.846482 -0.0668086 0.0159635)
(0.958096 -0.098986 -0.0184444)
(0.816237 -0.0922847 0.0470304)
(0.82716 -0.0375274 -0.00306262)
(1.08002 -0.00947044 -0.0883014)
(1.0391 -0.00234951 -0.0753905)
(1.03149 0.001558 -0.0144287)
(1.10443 -0.0522377 -0.0111096)
(1.03343 -0.0054229 -0.0214868)
(0.930384 0.0156722 -0.016899)
(0.961228 0.0350284 0.0339554)
(1.03087 0.0270377 0.0886055)
(0.88763 -0.00225958 0.0623926)
(1.13483 -0.0228745 0.0371342)
(1.19652 -0.0344058 -0.0985156)
(1.00751 -0.0191086 -0.131682)
(1.08614 0.0089978 0.0918297)
(1.03437 -0.0510454 -0.00420012)
(0.948981 -0.109669 -0.0613313)
(0.981015 0.0419821 0.139778)
(0.940343 0.066494 0.103222)
(0.99021 -0.0627819 0.0314807)
(0.997493 -0.0765772 0.0624517)
(0.904196 -0.108132 0.0688471)
(1.06637 -0.10329 0.0775976)
(1.07712 0.00669286 0.0684568)
(1.08099 0.0314158 0.0677301)
(1.13852 -0.0428752 0.0637501)
(1.052 -0.0256183 -0.00309811)
(0.88871 -0.0486468 0.0526338)
(0.680905 -0.0946541 0.150745)
(0.806794 -0.0128534 0.104609)
(0.818948 -0.00253399 0.0441484)
(0.777976 -0.0901519 0.017109)
(0.965406 -0.0483531 0.0324747)
(1.01512 0.0405666 0.0610355)
(0.838457 0.00495312 -0.043398)
(0.859001 0.0387963 -0.123861)
(0.855838 0.107449 -0.0870731)
(0.803309 0.0136771 0.0361125)
(0.89767 -0.0676678 0.0283216)
(0.947332 -0.0177224 0.0273018)
(0.809984 -0.0105211 0.00728051)
(0.795444 0.00297426 -0.0448119)
(0.98961 0.00403687 0.00685153)
(0.904402 0.013298 0.0247677)
(1.06127 -0.0154902 -0.0060778)
(0.903489 -0.0302218 -0.0378917)
(0.89638 0.0425519 0.00195906)
(0.921795 0.0206107 0.0679391)
(1.01111 -0.00237939 -0.0222568)
(1.00852 0.0231472 -0.0181291)
(0.755131 -0.0275757 -0.00636913)
(0.924277 -0.0128715 0.0331498)
(0.763958 7.91663e-05 -0.0524364)
(0.728185 -0.00191933 -0.0917352)
(1.12181 -0.00315224 0.197213)
(1.09494 -0.0486134 0.0829157)
(0.882354 -0.0457738 -0.020854)
(1.01394 0.0460013 0.140734)
(1.05838 0.023223 0.0143765)
(1.04348 -0.040979 0.0129565)
(0.95271 -0.0194493 0.0875685)
(0.709207 -0.0955159 0.0355417)
(0.79659 -0.128938 0.067802)
(1.02822 0.00360555 0.129903)
(1.20562 0.0418408 0.145498)
(1.07712 -0.0280737 0.116104)
(1.04075 -0.00195041 0.0454731)
(0.974159 -0.0388225 0.0423161)
(0.716933 -0.0947009 0.173344)
(0.86486 0.011346 0.0761082)
(0.882119 0.0437347 -0.0623324)
(0.754104 -0.0652996 -0.0518871)
(0.805317 -0.0906798 -0.0357372)
(1.03547 0.00914611 0.0176951)
(0.855143 0.0296118 -0.0824512)
(0.858655 0.0581312 -0.123223)
(0.89384 0.110121 -0.0238794)
(0.885641 -5.39782e-05 0.0937967)
(0.867549 -0.13856 -0.00784928)
(0.988638 -0.0463141 0.0459733)
(0.993473 0.0135284 0.0121652)
(0.91569 0.00150587 -0.0930272)
(0.900451 -0.00200366 0.00265184)
(0.934375 -0.0285711 0.0107813)
(0.994182 0.0261143 -0.0377419)
(0.820161 -0.00335947 -0.0518899)
(0.958725 0.0291032 -0.0431104)
(0.988349 0.0224962 0.0290078)
(1.08717 -0.00127039 -0.004472)
(1.02715 0.0486987 -0.0911809)
(0.869119 -0.00824291 -0.0201516)
(0.847153 -0.00079599 0.0392908)
(0.671585 -0.0493739 -0.0715915)
(0.770773 -0.118474 -0.0393368)
(1.08276 -0.095646 0.153536)
(0.987134 -0.0635402 0.0881668)
(0.793076 -0.0777558 0.0430779)
(1.07252 0.0428281 -0.00389292)
(1.03278 0.0737678 -0.0693956)
(0.990051 -0.015906 0.085708)
(0.939567 -0.0248574 0.0620033)
(0.665222 -0.0688489 -0.0479782)
(0.614618 -0.135133 -0.00229363)
(0.876056 -0.0399406 0.141852)
(1.05081 0.0470857 0.123299)
(0.84206 -0.000430225 0.047242)
(0.902698 -0.0221278 0.00720579)
(0.900851 -0.0541125 0.0482034)
(0.683064 -0.104228 0.152526)
(0.988605 -0.015882 0.0488818)
(0.942682 0.0437016 -0.0931126)
(0.917619 -0.0947244 -0.0571172)
(0.863566 -0.125617 -0.00206722)
(0.788782 0.00319885 0.0737097)
(0.777895 0.0227315 -0.0435201)
(0.854571 0.016408 -0.117644)
(0.901424 0.0986135 0.0400774)
(0.962093 -0.0201452 0.109673)
(0.714192 -0.0961774 0.0380861)
(0.860751 -0.00360115 0.0271315)
(1.00118 0.0281786 -0.149229)
(0.991532 0.0424857 -0.15232)
(0.859916 0.00545813 -0.00317899)
(0.806613 -0.0229142 -0.00678757)
(0.913964 -0.00555659 -0.0276659)
(0.891817 -0.0499437 0.00760325)
(0.968697 0.0235759 -0.0273858)
(0.932435 0.00252282 0.013738)
(1.06702 -0.0440728 0.109996)
(1.10896 0.00844154 -0.103817)
(1.07268 -0.0277798 -0.0203823)
(0.966901 -0.00694714 -0.00535027)
(0.848972 -0.0289725 -0.146504)
(0.97542 -0.100547 0.0289019)
(0.958263 -0.0265428 0.0590893)
(0.854553 -0.00697632 0.040035)
(0.773951 -0.00389122 0.118729)
(1.13945 0.0317699 0.0424235)
(1.11406 0.00174566 -0.0906448)
(0.942686 0.00924345 0.0213388)
(0.89011 0.0299575 0.0753279)
(0.750584 -0.0293722 0.0524056)
(0.696866 -0.119162 -0.0349292)
(0.759453 -0.0347377 -0.124705)
(0.890638 0.0507528 -0.0700572)
(0.731409 -0.0109603 -0.0197485)
(0.87901 -0.0414671 -0.0859618)
(0.867683 -0.00485458 -0.0381013)
(0.623943 -0.0536881 0.0237487)
(0.920081 -0.0178851 -0.0305359)
(0.880436 0.0442801 -0.00376364)
(0.800631 -0.110651 -0.0367213)
(0.859198 -0.109979 0.0290823)
(0.691605 0.0338326 0.0806466)
(0.805436 -0.0313931 -0.0595088)
(0.832843 0.0214957 -0.105815)
(0.906837 0.104375 0.0199575)
(1.02699 -0.0361239 0.0249659)
(0.672438 -0.0620589 0.0178202)
(0.805144 0.00557459 -0.0429782)
(1.06857 -0.0284423 -0.138306)
(1.04144 0.0296749 -0.115251)
(0.835335 0.00746285 0.0328201)
(0.799748 -0.0550904 0.0498896)
(0.921771 0.00259082 0.00405268)
(0.616702 -0.0175712 -0.0648071)
(0.844672 0.0379709 -0.140694)
(1.00638 0.0138247 0.0375514)
(1.0032 0.000704327 0.126793)
(0.899322 0.0208991 -0.104328)
(0.872227 -0.0383596 0.0272765)
(0.824739 -0.0223404 -0.051753)
(0.79403 -0.08934 -0.141924)
(0.866639 -0.103906 0.0350293)
(0.863235 -0.0398037 0.0528118)
(0.798858 -0.00859906 0.00999014)
(0.792737 -0.0275187 0.198045)
(1.16066 -0.00568928 0.119533)
(1.02661 0.0599664 -0.0511032)
(0.909015 0.0182044 0.112862)
(0.952072 -0.0153743 0.0753079)
(0.777893 -0.000240569 -0.0359029)
(0.777199 -0.0869279 0.0324913)
(0.658009 -0.0834209 -0.132769)
(0.657425 0.0259995 -0.047434)
(0.749432 -0.0630565 0.0363881)
(0.840968 -0.0638413 -0.121569)
(0.794783 0.0211696 -0.094741)
(0.612605 -0.045302 0.0348985)
(0.849593 -0.0296892 0.00852021)
(0.865382 -0.00215786 0.134321)
(0.696828 -0.127296 -0.0219045)
(0.712647 -0.0972206 0.0140708)
(0.694585 0.022863 0.0410477)
(0.889958 -0.0418209 -0.140964)
(0.910764 0.0407292 -0.107248)
(0.889018 0.0813355 -0.0625625)
(0.98897 -0.0489119 -0.0794961)
(0.811099 -0.0669014 0.0301049)
(0.848017 -0.0488857 0.0614728)
(1.09048 -0.0314541 -0.0378634)
(0.989803 0.0404714 -0.0691235)
(0.980149 0.0105599 -0.0227351)
(0.871922 -0.0218634 0.0607438)
(0.845906 0.0398955 0.0160774)
(0.644706 -0.0440595 -0.0965733)
(0.908044 -0.0110047 -0.0638395)
(1.00705 -0.0123264 0.118248)
(0.845163 0.0123384 0.0893731)
(0.9027 0.0105976 -0.0573184)
(0.95002 -0.0775518 0.085285)
(0.863974 -0.0336971 0.0410798)
(0.708802 -0.0842871 -0.0522126)
(0.824963 -0.0790137 0.0937192)
(0.93847 -0.0276778 -0.0176044)
(0.841536 -0.0279682 0.00450473)
(0.914372 -0.0233031 0.163102)
(1.12221 0.000125929 -0.000514007)
(0.91715 0.0357871 0.0168797)
(1.05096 0.0426982 0.117379)
(0.93192 0.00644077 -0.00732792)
(0.692451 -0.0484653 -0.057952)
(0.801236 -0.12979 0.0475445)
(0.680017 -0.0400361 0.00701787)
(0.658383 0.0369191 0.0229196)
(0.845385 -0.0743506 0.0657567)
(0.798964 -0.0704118 -0.139168)
(0.6877 0.0519799 -0.0644764)
(0.666238 -0.0671025 0.15366)
(0.858301 -0.0757557 0.0809833)
(0.844836 0.0274028 0.0914289)
(0.659599 -0.151305 0.0221646)
(0.692 -0.10408 0.0170844)
(0.6774 0.00641802 -0.0760075)
(0.960266 -0.0783487 -0.176532)
(0.959955 0.0536496 -0.16561)
(0.886339 0.0912832 -0.145532)
(1.00237 -0.0419598 -0.067386)
(0.793865 -0.0305813 -0.0620506)
(0.751931 -0.00736096 0.195054)
(1.0049 -0.0497058 0.0242526)
(1.01626 0.0771162 -0.029169)
(1.06177 0.0345109 -0.137628)
(0.872036 -0.046146 -0.0569767)
(0.861746 0.0161041 0.0377566)
(0.819086 -0.0667345 -0.0819507)
(0.814555 -0.0234177 0.0180221)
(0.92627 0.0140887 0.107939)
(0.967421 0.0353786 0.0520285)
(1.04262 -0.0353677 0.00750662)
(0.829492 -0.0784061 0.0742232)
(0.775241 -0.0109085 0.0551248)
(0.694329 -0.0814198 -0.05311)
(0.865357 -0.110232 0.0224675)
(0.979354 -0.0303037 -0.0696571)
(0.820309 -0.0584768 0.0455318)
(1.02995 -0.0317403 0.00178247)
(1.23268 0.0201902 -0.0492863)
(0.957345 0.0440381 0.0491451)
(1.11377 0.0354809 -0.00473085)
(0.876806 0.0268682 0.0149763)
(0.86614 -0.0712004 0.044168)
(0.693244 -0.175198 0.0305454)
(0.696388 -0.0979452 -0.0121345)
(0.758384 0.0067863 0.00556779)
(0.920528 -0.107335 0.0399447)
(0.751698 -0.0487244 -0.0556278)
(0.69873 0.0365385 0.108753)
(0.823431 -0.0657228 0.0599436)
(0.786924 -0.0384914 -0.0332654)
(0.878645 0.00228081 0.0762859)
(0.682898 -0.155921 0.00568088)
(0.676641 -0.112415 -0.0224364)
(0.76419 -0.0434207 -0.103629)
(0.953819 -0.131807 -0.173418)
(0.989832 0.0222948 -0.0696183)
(1.02482 0.0460681 -0.0734245)
(1.06663 -0.0460549 -0.0966943)
(0.755872 0.00694511 -0.0780073)
(0.731369 -0.0200543 0.137771)
(1.11986 -0.0448923 0.0277105)
(1.05506 0.0538264 -0.139931)
(1.08439 0.00752512 -0.031921)
(0.911557 -0.0119783 -0.106674)
(0.956094 0.0247073 0.00902117)
(0.854183 -0.0383289 -0.0951494)
(0.807814 -0.03763 -0.0249285)
(1.10462 -0.0219598 0.0360507)
(1.08702 0.0106639 -0.0681034)
(0.795794 -0.00309533 -0.000485048)
(0.529529 -0.0561558 0.0754915)
(0.657867 -0.0447743 0.0232916)
(0.714083 -0.0899041 -0.0636535)
(0.854344 -0.0947573 -0.0939291)
(0.966438 -0.0529735 -0.0555689)
(0.687438 -0.0328286 0.165662)
(0.93511 -0.0364051 0.0964362)
(1.13554 0.011545 -0.0360105)
(1.01027 0.0502684 0.0666131)
(1.18725 0.0155461 0.0127561)
(0.910937 0.0304682 0.0742019)
(0.952631 -0.0529498 0.0327581)
(0.752485 -0.132887 -0.00685648)
(0.542868 -0.0671281 -0.0349158)
(0.755034 0.0248308 -0.0408999)
(0.907204 -0.069084 -0.0373303)
(0.726697 -0.0167086 -0.0125793)
(0.88406 0.0127167 0.144853)
(0.904156 -0.03147 -0.0897052)
(0.609239 -0.0215249 -0.0562996)
(0.928167 -0.0103024 0.088178)
(0.816186 -0.118434 0.0172358)
(0.702502 -0.0702968 -0.0429152)
(0.740212 -0.0493363 -0.0818003)
(0.773838 -0.121374 -0.0918112)
(0.988476 -0.00119345 -0.02541)
(1.00305 0.00689359 -0.100067)
(1.0293 -0.0691259 -0.0505265)
(0.605594 0.00524707 0.0519547)
(0.75566 -0.00609968 0.0908619)
(1.11697 -0.0715126 0.0162511)
(1.05306 0.0522145 -0.155616)
(1.12638 -0.014862 0.0646245)
(1.00292 -0.0335453 -0.0391169)
(0.949552 0.0062402 0.0186044)
(0.87145 -0.0733561 -0.0397205)
(0.940339 -0.0388041 -0.0149321)
(1.06552 0.0134923 0.0951464)
(1.05761 0.0666313 -0.0664536)
(0.860417 -0.0054176 0.00946207)
(0.549297 -0.0932845 0.0276801)
(0.618408 -0.0561541 -0.100937)
(0.583685 -0.0848402 -0.0247373)
(0.766775 -0.114455 -0.066192)
(0.836808 -0.0212597 -0.0821245)
(0.581242 0.00944279 0.247351)
(0.813579 -0.00718078 0.172366)
(1.04779 0.0422867 -0.0151228)
(1.02802 0.0294806 0.0709343)
(1.22828 -0.00229482 0.0097647)
(0.871002 0.0372915 0.0805692)
(0.954253 -0.0318806 0.0269337)
(0.843209 -0.109718 -0.05064)
(0.397452 -0.0771972 0.0545453)
(0.83522 -0.020807 -0.0215854)
(0.839849 -0.0271667 -0.0356283)
(0.639914 0.00264746 0.0239037)
(0.973588 0.0235586 0.0832303)
(0.795502 -0.00558178 -0.0662471)
(0.614851 -0.0309007 0.0636198)
(0.93596 -0.0558251 0.0564403)
(0.796264 -0.120099 -0.0275172)
(0.709612 -0.0713299 0.0365549)
(0.681929 -0.070163 -0.0526365)
(0.579285 -0.119435 -0.0208303)
(0.813533 0.00123213 -0.0962419)
(0.937743 0.0140559 -0.216207)
(0.918908 -0.0400142 -0.0314291)
(0.647346 0.0126432 0.0371948)
(0.916854 -0.0274941 0.0529706)
(0.918255 -0.0747784 -0.0162978)
(1.0074 0.034988 -0.120845)
(1.11242 -0.0302104 -0.0127179)
(0.860027 -0.0460513 -0.0504886)
(0.967917 -0.000253531 -0.0485146)
(0.774317 -0.0928679 -0.0608876)
(0.888667 -0.040568 -0.0100831)
(0.941431 0.01699 0.12704)
(1.04242 0.0257924 0.0103601)
(0.906565 -0.00820959 -0.0608687)
(0.522728 -0.0882945 0.0014003)
(0.462469 -0.0838628 -0.0830576)
(0.473942 -0.0642549 0.0153139)
(0.666264 -0.0807255 -0.016997)
(0.671748 -0.0237414 -0.00438734)
(0.572019 0.00722413 0.24015)
(0.750742 -0.0149292 0.052162)
(0.938114 0.0271642 0.020152)
(0.923977 -0.000482425 0.142748)
(1.05313 -0.00508365 0.0270932)
(0.789107 0.0214024 0.156113)
(0.912907 -0.067637 0.00162686)
(0.858149 -0.0964683 -0.0998917)
(0.267322 -0.030422 0.16002)
(0.919435 0.00481421 0.0865408)
(0.845439 0.0110495 -0.0190052)
(0.648424 -0.00992385 0.019384)
(0.972547 -0.00499761 0.0385218)
(0.938775 0.0170771 -0.0414458)
(0.80237 -0.0368048 0.0645983)
(0.880291 -0.0882144 0.0183064)
(0.635677 -0.115829 -0.108182)
(0.517026 -0.0146532 0.0836736)
(0.777277 -0.0600042 -0.0852716)
(0.475268 -0.0934499 -0.00373422)
(0.667452 -0.0271715 -0.149236)
(0.926392 -0.0316577 -0.282621)
(0.822094 -0.0543009 -0.000740164)
(0.752677 0.0130848 -0.032765)
(0.95627 0.0221459 0.0826229)
(0.829192 -0.0364402 -0.0699349)
(0.98657 0.0137149 -0.161667)
(1.07488 0.00971978 -0.0530257)
(0.688898 -0.02292 -0.0602683)
(0.9964 0.0252845 -0.0807659)
(0.630977 -0.0426469 0.00164742)
(0.881608 -0.00968453 -0.0510865)