/*--------------------------------*- C++ -*----------------------------------*\
  =========                 |
  \\      /  F ield         | OpenFOAM: The Open Source CFD Toolbox
   \\    /   O peration     | Website:  https://openfoam.org
    \\  /    A nd           | Version:  10
     \\/     M anipulation  |
\*---------------------------------------------------------------------------*/
FoamFile
{
    format      ascii;
    class       surfaceScalarField;
    location    "22.5";
    object      phi_0;
}
// * * * * * * * * * * * * * * * * * * * * * * * * * * * * * * * * * * * * * //

dimensions      [0 3 -1 0 0 0 0];

internalField   nonuniform List<scalar> 
74080
(
0.00496278
-2.13718e-07
-8.62697e-08
0.00496273
2.1352e-07
2.38681e-08
0.00496279
-1.40258e-07
1.88223e-09
0.00496276
5.72327e-08
2.58397e-08
0.00496271
9.45785e-08
1.23691e-08
0.00496286
-1.92689e-07
-5.9455e-08
0.00496265
2.89522e-07
1.78449e-07
0.00496284
-2.62729e-07
-2.80825e-07
0.00496272
2.42103e-07
3.44244e-07
0.00496272
-1.06485e-07
-2.61814e-07
0.00496283
3.07804e-08
1.50256e-07
0.00496267
7.36805e-08
5.67893e-10
0.00496283
-8.257e-08
-1.20989e-07
0.00496268
1.47325e-07
2.65311e-07
0.00496278
-1.39274e-07
-2.96275e-07
0.00496276
1.77922e-07
2.56734e-07
0.0049627
-1.48136e-07
-1.22849e-07
0.0049628
1.50271e-07
2.47386e-08
0.00496273
-9.30834e-08
5.91032e-08
0.00496271
8.26267e-08
-7.98052e-08
0.00496282
-4.64979e-08
9.7723e-08
0.00496267
2.20093e-08
-6.74514e-08
0.00496281
5.77144e-08
4.29418e-08
0.00496271
-1.47575e-07
-2.25925e-08
0.00496276
2.02689e-07
7.51003e-08
0.00496276
-1.90725e-07
-1.01447e-07
0.00496275
1.03766e-07
8.22074e-08
0.00496277
-3.27209e-08
5.41245e-09
0.00496274
-7.03249e-09
-3.90139e-08
0.0049628
-1.0049e-08
3.90795e-08
0.0049627
1.9878e-08
4.59945e-08
0.00496283
-4.41454e-08
-1.01968e-07
0.00496274
4.18673e-08
1.37071e-07
0.00496275
-5.51251e-08
-8.3415e-08
0.0049628
4.11899e-08
2.97479e-08
0.00496274
-3.55905e-08
9.83149e-08
0.00496277
-2.02867e-08
-1.81371e-07
0.00496279
7.40899e-08
2.6998e-07
0.00496274
-1.38067e-07
-2.59981e-07
1.84836e-07
2.08772e-07
0.00451131
-1.07717e-07
-2.4034e-08
0.00451133
1.86274e-07
-2.65618e-08
0.00451135
-1.52666e-07
5.37901e-08
0.00451132
1.06677e-07
-3.26641e-08
0.00451131
7.76577e-08
7.87353e-08
0.00451138
-2.02486e-07
-1.25578e-07
0.00451126
3.54044e-07
2.30948e-07
0.00451139
-3.3032e-07
-3.00876e-07
0.00451129
3.15465e-07
3.45429e-07
0.00451131
-1.33128e-07
-2.59175e-07
0.00451136
1.72723e-08
1.56084e-07
0.00451126
1.30581e-07
-1.70066e-09
0.00451139
-1.64989e-07
-1.24672e-07
0.00451123
2.75044e-07
2.79894e-07
0.00451138
-2.87875e-07
-3.3393e-07
0.00451128
3.02626e-07
3.35914e-07
0.00451131
-2.18107e-07
-2.2421e-07
0.00451135
1.48892e-07
1.24625e-07
0.00451128
-4.0494e-08
-1.99734e-08
0.00451133
5.90635e-09
-1.83133e-08
0.00451131
1.08937e-09
7.57961e-08
0.00451131
-3.5113e-09
-1.0161e-07
0.00451133
3.99978e-08
1.40346e-07
0.00451129
-1.08135e-07
-1.46596e-07
0.00451134
1.40905e-07
1.8962e-07
0.00451131
-1.52726e-07
-1.69183e-07
0.00451134
6.47377e-08
1.14291e-07
0.00451132
-6.92391e-09
-5.54502e-09
0.00451133
-2.74294e-08
-2.36884e-08
0.00451134
-1.55516e-08
2.07516e-08
0.00451131
3.50105e-08
5.62419e-08
0.00451136
-6.44605e-08
-8.6229e-08
0.00451135
2.99742e-08
8.96792e-08
0.00451128
1.88902e-09
5.37172e-09
0.0045114
-3.39384e-08
-9.30849e-08
0.00451131
-5.25418e-09
2.32286e-07
0.00451132
2.80384e-08
-2.91082e-07
0.0045114
-4.40158e-08
3.16158e-07
0.00451126
3.02539e-08
-2.30995e-07
3.15469e-08
1.42038e-07
0.00410093
2.33264e-08
-1.12976e-09
0.00410099
1.20179e-07
-5.58447e-08
0.00410096
-1.20631e-07
1.09762e-07
0.00410096
1.32661e-07
-1.0606e-07
0.00410097
5.81966e-08
1.50954e-07
0.00410096
-1.72202e-07
-1.61251e-07
0.00410095
3.5147e-07
2.17148e-07
0.00410097
-3.18978e-07
-2.27833e-07
0.00410094
3.35727e-07
2.52317e-07
0.00410096
-1.51355e-07
-1.72733e-07
0.00410095
4.77154e-08
1.10218e-07
0.00410095
1.04884e-07
2.05777e-08
0.00410097
-1.49911e-07
-1.07505e-07
0.00410092
3.03803e-07
2.3797e-07
0.00410098
-3.46822e-07
-2.84221e-07
0.00410093
3.65084e-07
3.19028e-07
0.00410095
-2.67115e-07
-2.42673e-07
0.00410097
1.58639e-07
1.68404e-07
0.00410091
-1.59412e-09
-6.71077e-08
0.00410099
-7.57084e-08
2.52742e-08
0.00410091
8.28185e-08
5.30268e-08
0.00410099
-7.82642e-08
-1.11834e-07
0.00410094
6.31081e-08
1.94694e-07
0.00410094
-8.71059e-08
-2.18521e-07
0.00410098
7.375e-08
2.48537e-07
0.00410094
-9.74086e-08
-1.84777e-07
0.00410098
-8.11146e-10
1.07162e-07
0.00410094
5.69843e-08
4.16136e-09
0.00410099
-9.94387e-08
-1.19873e-08
0.00410094
4.61224e-08
-4.0977e-09
0.00410098
-2.16343e-08
8.23002e-08
0.00410096
-2.49165e-08
-9.57603e-08
0.004101
-1.76934e-08
8.7559e-08
0.00410091
7.32086e-08
2.94351e-08
0.00410103
-1.1483e-07
-1.32213e-07
0.00410093
3.81904e-08
2.84626e-07
0.00410097
5.39945e-08
-3.38872e-07
0.00410101
-1.3788e-07
3.44074e-07
0.0041009
1.85968e-07
-2.24809e-07
-1.24983e-07
1.20107e-07
0.0037279
1.24462e-07
-2.19699e-09
0.00372797
5.33574e-08
-6.78881e-08
0.00372791
-6.06588e-08
1.52243e-07
0.00372793
1.37946e-07
-1.61857e-07
0.00372795
4.04339e-08
2.02927e-07
0.00372789
-1.09599e-07
-1.64325e-07
0.00372798
2.87355e-07
1.63491e-07
0.00372787
-2.24472e-07
-1.13271e-07
0.00372795
2.85446e-07
1.27013e-07
0.0037279
-1.2867e-07
-5.81182e-08
0.00372791
7.39808e-08
4.23905e-08
0.00372794
4.75875e-08
5.27662e-08
0.00372789
-7.01108e-08
-8.63907e-08
0.00372793
2.46264e-07
1.7698e-07
0.00372788
-3.06882e-07
-1.92346e-07
0.00372794
3.38755e-07
2.41285e-07
0.0037279
-2.60414e-07
-1.94254e-07
0.00372793
1.52838e-07
1.56474e-07
0.00372788
2.55134e-08
-6.805e-08
0.00372794
-1.30613e-07
4.23641e-08
0.00372787
1.40667e-07
3.03267e-08
0.00372795
-1.4589e-07
-8.76238e-08
0.00372789
9.32037e-08
1.85104e-07
0.0037279
-7.93851e-08
-2.13954e-07
0.00372793
2.29963e-08
2.41872e-07
0.00372791
-6.35122e-08
-1.54728e-07
0.00372793
-4.46672e-08
7.72157e-08
0.00372791
1.01342e-07
2.24318e-08
0.00372795
-1.60575e-07
-5.59276e-09
0.0037279
1.16976e-07
-2.35988e-08
0.00372795
-1.01249e-07
1.08902e-07
0.00372793
3.39117e-08
-1.22355e-07
0.00372794
-5.90664e-08
1.1915e-07
0.0037279
1.25163e-07
-4.60282e-09
0.00372797
-1.74421e-07
-9.43903e-08
0.0037279
8.18994e-08
2.59864e-07
0.00372796
4.21214e-08
-3.27033e-07
0.00372794
-1.61506e-07
3.47361e-07
0.0037279
2.67987e-07
-2.26447e-07
-2.18974e-07
1.23867e-07
0.00338881
1.91135e-07
-1.49315e-08
0.00338888
-7.66461e-09
-6.73417e-08
0.00338878
2.47072e-08
1.80692e-07
0.00338884
1.21593e-07
-1.99884e-07
0.00338884
3.67038e-08
2.4262e-07
0.00338877
-4.02011e-08
-1.62271e-07
0.00338891
1.95671e-07
1.20566e-07
0.00338872
-8.12288e-08
-1.64552e-08
0.00338888
1.87969e-07
2.43125e-08
0.00338877
-6.87953e-08
4.18475e-08
0.00338882
7.34223e-08
-1.52271e-08
0.00338883
7.2601e-10
8.1412e-08
0.00338877
2.19971e-08
-6.67847e-08
0.00338885
1.56882e-07
1.24202e-07
0.00338874
-2.13554e-07
-1.05085e-07
0.00338887
2.50215e-07
1.56138e-07
0.00338878
-2.11014e-07
-1.21459e-07
0.00338882
1.40512e-07
1.13014e-07
0.00338879
2.83559e-08
-3.88169e-08
0.0033888
-1.38811e-07
3.79423e-08
0.0033888
1.40115e-07
1.09089e-08
0.00338882
-1.65118e-07
-4.51939e-08
0.00338881
9.12911e-08
1.37227e-07
0.00338878
-5.62705e-08
-1.59192e-07
0.00338883
-2.82358e-08
1.88329e-07
0.00338881
-4.71556e-08
-9.55964e-08
0.00338881
-5.52621e-08
3.3643e-08
0.00338883
1.01967e-07
4.54701e-08
0.00338881
-1.70039e-07
-5.02511e-10
0.00338882
1.41233e-07
-3.61584e-08
0.00338882
-1.46071e-07
1.26455e-07
0.00338884
6.16199e-08
-1.37441e-07
0.0033888
-6.07333e-08
1.52192e-07
0.00338883
1.33258e-07
-4.95228e-08
0.00338883
-1.9415e-07
-2.8975e-08
0.0033888
1.09001e-07
2.00314e-07
0.00338887
9.59567e-09
-2.84086e-07
0.0033888
-1.2607e-07
3.34336e-07
0.00338883
2.85502e-07
-2.31005e-07
-2.5475e-07
1.41229e-07
0.00308056
2.34993e-07
-4.01464e-08
0.00308064
-6.88572e-08
-4.50097e-08
0.00308051
1.39217e-07
1.81447e-07
0.0030806
7.18233e-08
-2.03961e-07
0.00308056
6.81639e-08
2.5827e-07
0.00308052
1.47571e-09
-1.52074e-07
0.00308065
1.19795e-07
9.93746e-08
0.00308046
6.50786e-08
3.56716e-08
0.00308062
8.69343e-08
-2.27791e-08
0.0030805
-1.06553e-09
9.32504e-08
0.00308057
5.59091e-08
-3.88824e-08
0.00308057
-3.15783e-08
9.71505e-08
0.00308051
1.09461e-07
-4.47058e-08
0.00308061
6.13986e-08
8.8862e-08
0.00308046
-9.64893e-08
-3.78763e-08
0.00308064
1.18468e-07
9.23191e-08
0.0030805
-1.25641e-07
-5.90263e-08
0.00308057
1.14996e-07
7.51864e-08
0.00308055
1.96359e-08
-4.82124e-09
0.00308051
-1.07214e-07
2.43748e-08
0.00308058
7.92804e-08
2.25499e-09
0.00308052
-1.26414e-07
-6.6248e-09
0.00308058
4.33003e-08
8.497e-08
0.0030805
2.61322e-09
-9.23239e-08
0.00308059
-1.08053e-07
1.29543e-07
0.00308055
-2.01136e-08
-3.66986e-08
0.00308056
-6.72779e-08
2.53155e-09
0.00308059
8.69939e-08
5.73383e-08
0.00308053
-1.44152e-07
1.07225e-08
0.00308058
1.24507e-07
-4.54992e-08
0.00308055
-1.59518e-07
1.38386e-07
0.0030806
6.39488e-08
-1.44504e-07
0.00308052
-3.32668e-08
1.71654e-07
0.00308059
1.14635e-07
-7.87646e-08
0.00308056
-1.90756e-07
2.65253e-08
0.00308056
1.24255e-07
1.42128e-07
0.00308063
-3.88802e-08
-2.33832e-07
0.00308052
-4.47944e-08
3.14525e-07
0.0030806
2.57242e-07
-2.35887e-07
-2.49352e-07
1.66873e-07
0.00280036
2.42071e-07
-6.53509e-08
0.00280042
-1.10383e-07
-8.10108e-09
0.00280028
2.61702e-07
1.58633e-07
0.00280039
6.02863e-09
-1.69501e-07
0.00280033
1.25347e-07
2.44121e-07
0.00280033
8.24055e-09
-1.21989e-07
0.00280042
7.67013e-08
8.40842e-08
0.00280025
1.90846e-07
6.71372e-08
0.00280039
5.36318e-09
-3.19231e-08
0.00280028
5.50294e-08
1.1627e-07
0.00280037
2.68728e-08
-3.65569e-08
0.00280035
-4.88566e-08
1.02226e-07
0.00280029
1.84549e-07
-2.21844e-08
0.00280039
-2.6762e-08
6.98347e-08
0.00280022
2.41901e-08
9.19335e-09
0.00280045
-4.54422e-08
4.95196e-08
0.00280026
-6.67098e-09
-6.23987e-09
0.00280037
6.22351e-08
4.71118e-08
0.00280032
2.93762e-08
2.7117e-08
0.00280028
-8.0018e-08
1.34076e-08
0.00280039
-3.82054e-09
-1.31506e-11
0.00280029
-6.69393e-08
2.35048e-08
0.00280038
-2.26254e-08
4.64563e-08
0.00280026
7.43843e-08
-3.70296e-08
0.00280038
-2.04768e-07
8.9244e-08
0.00280033
1.09653e-08
3.36245e-09
0.00280035
-8.6995e-08
-3.69294e-09
0.00280037
7.34037e-08
5.52902e-08
0.0028003
-1.0309e-07
3.03564e-08
0.00280037
8.29587e-08
-5.55282e-08
0.00280033
-1.60062e-07
1.4758e-07
0.00280039
5.97448e-08
-1.44009e-07
0.0028003
-1.24216e-09
1.82705e-07
0.00280037
9.95948e-08
-9.54118e-08
0.00280034
-1.97614e-07
6.99601e-08
0.00280034
1.50814e-07
9.52356e-08
0.00280043
-1.13987e-07
-1.84577e-07
0.00280028
8.57659e-08
2.89192e-07
0.0028004
1.83187e-07
-2.30947e-07
-2.00275e-07
1.87493e-07
0.00254566
2.03723e-07
-7.5814e-08
0.00254568
-1.16106e-07
2.52295e-08
0.00254557
3.66508e-07
1.32077e-07
0.00254565
-5.01105e-08
-1.1938e-07
0.00254559
1.80484e-07
2.1873e-07
0.00254561
-4.95921e-09
-7.96587e-08
0.00254569
5.06951e-08
7.53173e-08
0.00254552
3.01993e-07
8.54687e-08
0.00254565
-6.35212e-08
-1.84335e-08
0.00254554
1.00548e-07
1.24669e-07
0.00254566
-2.53132e-08
-1.76466e-08
0.00254561
-4.3914e-08
1.08029e-07
0.00254558
2.30178e-07
-5.99364e-09
0.00254564
-8.42409e-08
7.51931e-08
0.0025455
1.15687e-07
3.24121e-08
0.00254573
-2.15155e-07
4.13237e-08
0.00254553
1.22658e-07
2.1175e-08
0.00254565
-8.28239e-09
4.13852e-08
0.00254557
6.24522e-08
4.88016e-08
0.00254556
-7.59573e-08
1.22779e-08
0.00254566
-8.73443e-08
4.03227e-10
0.00254556
-2.00144e-08
4.57016e-08
0.00254565
-7.78714e-08
2.53122e-08
0.00254554
1.28662e-07
5.46575e-09
0.00254564
-2.96097e-07
7.23624e-08
0.00254562
1.87471e-08
2.3435e-08
0.00254562
-1.01107e-07
9.35959e-09
0.00254565
4.89988e-08
4.69145e-08
0.00254555
-3.92534e-08
5.66264e-08
0.00254566
6.62869e-09
-6.3371e-08
0.0025456
-1.43452e-07
1.59467e-07
0.00254567
3.87689e-08
-1.41279e-07
0.00254557
3.57994e-08
1.91869e-07
0.00254563
8.58955e-08
-1.00662e-07
0.00254561
-2.1478e-07
1.04135e-07
0.00254561
1.78423e-07
5.88727e-08
0.00254572
-2.04462e-07
-1.34495e-07
0.00254553
2.47674e-07
2.55339e-07
0.00254569
7.66799e-08
-2.08685e-07
-1.15422e-07
1.93226e-07
0.00231413
1.39285e-07
-6.75924e-08
0.00231411
-1.04125e-07
5.71473e-08
0.00231402
4.50013e-07
1.14072e-07
0.00231407
-9.44633e-08
-6.02656e-08
0.00231403
2.26473e-07
1.93818e-07
0.00231407
-3.96032e-08
-3.03851e-08
0.00231412
3.42178e-08
7.72474e-08
0.00231397
3.95762e-07
9.63353e-08
0.00231407
-1.27085e-07
1.8468e-08
0.00231398
1.3432e-07
1.25039e-07
0.00231412
-1.07428e-07
1.67095e-08
0.00231404
-1.86369e-08
1.13831e-07
0.00231404
2.33496e-07
1.56198e-08
0.00231404
-1.01534e-07
9.58811e-08
0.00231396
1.51159e-07
4.544e-08
0.00231416
-3.63684e-07
5.74803e-08
0.00231399
2.22532e-07
3.88747e-08
0.00231408
-7.35892e-08
6.00843e-08
0.002314
9.26217e-08
5.99593e-08
0.002314
-8.973e-08
2.83828e-08
0.00231411
-1.80429e-07
7.46889e-10
0.00231401
1.17612e-08
6.94417e-08
0.00231408
-1.32663e-07
1.87224e-08
0.00231398
1.63295e-07
4.20049e-08
0.00231408
-3.90789e-07
7.39398e-08
0.00231407
5.50617e-09
3.95382e-08
0.00231406
-1.20293e-07
3.59479e-08
0.0023141
1.84483e-08
4.29309e-08
0.00231397
2.93168e-08
8.26101e-08
0.00231412
-1.0009e-07
-6.16963e-08
0.00231403
-1.17635e-07
1.72734e-07
0.00231413
-9.47246e-09
-1.29675e-07
0.002314
8.59333e-08
1.98627e-07
0.00231407
5.60096e-08
-9.53613e-08
0.00231405
-2.29833e-07
1.32284e-07
0.00231407
1.83412e-07
3.50367e-08
0.00231416
-2.85708e-07
-8.43186e-08
0.00231398
4.05675e-07
2.1935e-07
0.00231412
-3.13443e-08
-1.71843e-07
-2.68306e-08
1.86578e-07
0.00210365
5.63774e-08
-4.12005e-08
0.00210361
-9.35779e-08
8.78895e-08
0.00210353
5.09706e-07
1.119e-07
0.00210356
-1.36334e-07
1.74994e-09
0.00210353
2.63301e-07
1.80431e-07
0.00210359
-1.08483e-07
2.83867e-08
0.00210362
2.33284e-08
9.05877e-08
0.00210348
4.53009e-07
1.08708e-07
0.00210355
-1.83377e-07
7.29566e-08
0.00210349
1.38868e-07
1.2811e-07
0.00210363
-2.08932e-07
6.49504e-08
0.00210355
3.38624e-09
1.2237e-07
0.00210355
1.9797e-07
5.09013e-08
0.00210351
-9.68411e-08
1.28302e-07
0.00210348
1.2769e-07
6.33292e-08
0.00210365
-4.96798e-07
9.06742e-08
0.00210352
2.73135e-07
5.90162e-08
0.00210357
-1.34302e-07
9.67869e-08
0.0021035
1.05292e-07
7.52941e-08
0.0021035
-1.19921e-07
5.7288e-08
0.00210362
-2.94224e-07
8.40352e-09
0.00210352
1.86084e-08
9.70321e-08
0.00210358
-2.01898e-07
2.99018e-08
0.00210347
1.78009e-07
7.91334e-08
0.00210358
-5.05509e-07
9.49807e-08
0.00210359
-2.55694e-08
5.72482e-08
0.00210358
-1.69395e-07
7.33818e-08
0.00210359
-7.39713e-09
5.24268e-08
0.00210347
7.18823e-08
1.05872e-07
0.00210362
-2.1569e-07
-4.22265e-08
0.00210355
-1.12186e-07
1.85713e-07
0.00210364
-7.79242e-08
-1.06367e-07
0.0021035
1.26198e-07
2.06735e-07
0.00210357
9.47042e-09
-7.45246e-08
0.00210355
-2.4995e-07
1.59481e-07
0.0021036
1.57143e-07
2.75513e-08
0.00210366
-3.59886e-07
-3.28807e-08
0.00210349
5.35404e-07
1.91778e-07
0.0021036
-1.30919e-07
-1.23678e-07
4.45088e-08
1.79205e-07
0.00191231
-5.41102e-08
1.08137e-08
0.00191226
-1.02403e-07
1.27389e-07
0.00191218
5.20896e-07
1.28672e-07
0.00191219
-1.9071e-07
7.66544e-08
0.00191218
2.81262e-07
1.83593e-07
0.00191226
-2.05273e-07
9.43919e-08
0.00191226
-1.85641e-09
1.16538e-07
0.00191214
4.55941e-07
1.35947e-07
0.00191218
-2.46017e-07
1.40622e-07
0.00191215
1.08386e-07
1.44388e-07
0.00191228
-3.29716e-07
1.29076e-07
0.0019122
-1.10073e-08
1.45591e-07
0.00191221
1.16442e-07
1.01431e-07
0.00191214
-9.76936e-08
1.74469e-07
0.00191215
5.28439e-08
9.5975e-08
0.00191229
-6.27513e-07
1.42626e-07
0.00191219
2.62789e-07
9.33277e-08
0.00191221
-2.18698e-07
1.51061e-07
0.00191214
9.20901e-08
1.04228e-07
0.00191215
-1.78639e-07
1.00361e-07
0.00191227
-4.29221e-07
3.19942e-08
0.00191218
-2.71441e-08
1.33934e-07
0.00191222
-3.04018e-07
6.15456e-08
0.00191212
1.56414e-07
1.19426e-07
0.00191223
-6.40806e-07
1.40252e-07
0.00191224
-8.44333e-08
8.68919e-08
0.00191225
-2.65879e-07
1.2652e-07
0.00191223
-4.15314e-08
7.48067e-08
0.00191213
6.57714e-08
1.33938e-07
0.00191226
-3.27083e-07
-7.41423e-09
0.00191221
-1.50704e-07
2.09353e-07
0.00191229
-1.69504e-07
-6.92547e-08
0.00191215
1.24773e-07
2.2081e-07
0.00191221
-5.32544e-08
-3.97893e-08
0.00191219
-2.87654e-07
1.91891e-07
0.00191227
1.01331e-07
3.88348e-08
0.0019123
-4.45979e-07
2.02002e-08
0.00191216
6.2296e-07
1.78582e-07
0.00191223
-2.31927e-07
-6.77443e-08
9.79975e-08
1.80697e-07
0.00173837
-1.8863e-07
8.01677e-08
0.00173831
-1.56512e-07
1.83953e-07
0.00173825
4.45803e-07
1.67471e-07
0.00173823
-2.64083e-07
1.60997e-07
0.00173824
2.72802e-07
2.13624e-07
0.00173832
-3.29283e-07
1.80336e-07
0.00173831
-7.8093e-08
1.5999e-07
0.0017382
3.8076e-07
1.82391e-07
0.00173821
-3.39566e-07
2.20515e-07
0.00173821
4.71293e-08
1.86423e-07
0.00173834
-4.75041e-07
2.13258e-07
0.00173827
-9.27718e-08
1.8955e-07
0.00173826
-3.94854e-08
1.71531e-07
0.00173817
-1.30609e-07
2.40112e-07
0.00173822
-6.7234e-08
1.5137e-07
0.00173834
-7.6967e-07
2.17966e-07
0.00173827
1.68232e-07
1.48728e-07
0.00173826
-3.60906e-07
2.23869e-07
0.00173818
3.76055e-08
1.5139e-07
0.00173821
-2.68299e-07
1.6299e-07
0.00173832
-5.92238e-07
8.21652e-08
0.00173825
-1.60979e-07
1.88288e-07
0.00173826
-4.67931e-07
1.13222e-07
0.00173817
7.21706e-08
1.73148e-07
0.00173828
-7.9585e-07
2.11721e-07
0.00173831
-1.83877e-07
1.36372e-07
0.00173832
-4.30296e-07
2.01447e-07
0.00173827
-1.2182e-07
1.15765e-07
0.00173818
-4.67009e-09
1.72012e-07
0.0017383
-4.36066e-07
4.70006e-08
0.00173829
-2.4375e-07
2.53031e-07
0.00173834
-3.12253e-07
-1.28811e-08
0.00173821
4.22846e-08
2.49615e-07
0.00173825
-1.46757e-07
8.80331e-09
0.00173825
-3.44219e-07
2.41602e-07
0.00173834
1.3293e-08
7.16861e-08
0.00173835
-5.73098e-07
8.50992e-08
0.00173822
6.34365e-07
1.87224e-07
0.00173826
-3.48628e-07
-4.53001e-09
1.35956e-07
2.01851e-07
0.00158026
-3.56999e-07
1.97792e-07
0.00158019
-3.03948e-07
2.67179e-07
0.00158013
2.391e-07
2.20137e-07
0.00158008
-3.6998e-07
2.4792e-07
0.00158012
2.38434e-07
2.83217e-07
0.00158021
-4.8856e-07
3.08056e-07
0.00158019
-2.57857e-07
2.28236e-07
0.00158008
1.82377e-07
2.40902e-07
0.00158006
-4.87025e-07
3.04109e-07
0.00158009
-3.04011e-08
2.66693e-07
0.00158022
-6.58369e-07
3.38342e-07
0.00158016
-2.87431e-07
2.65285e-07
0.00158013
-3.16621e-07
2.52898e-07
0.00158003
-2.14233e-07
3.17318e-07
0.0015801
-2.19754e-07
2.41453e-07
0.00158021
-9.33859e-07
3.35711e-07
0.00158017
-5.44077e-08
2.35921e-07
0.00158012
-6.07641e-07
3.06056e-07
0.00158004
-7.56748e-08
2.1127e-07
0.00158008
-3.81056e-07
2.55789e-07
0.0015802
-7.9699e-07
1.77682e-07
0.00158015
-4.26574e-07
2.69906e-07
0.00158013
-7.44405e-07
1.72943e-07
0.00158005
-8.82619e-08
2.36232e-07
0.00158015
-9.64779e-07
3.20357e-07
0.0015802
-3.34517e-07
2.28887e-07
0.00158021
-7.02638e-07
3.01363e-07
0.00158013
-2.98346e-07
1.63681e-07
0.00158006
-1.50744e-07
2.14318e-07
0.00158016
-5.3833e-07
1.31319e-07
0.00158018
-4.0048e-07
3.37202e-07
0.00158022
-5.51927e-07
6.79675e-08
0.00158009
-1.67866e-07
2.84638e-07
0.00158011
-2.91616e-07
6.74178e-08
0.00158012
-4.11705e-07
3.19804e-07
0.00158024
-1.16839e-07
1.4627e-07
0.00158023
-7.82707e-07
1.69971e-07
0.00158011
5.25393e-07
2.08007e-07
0.00158012
-5.03864e-07
7.16426e-08
1.59659e-07
2.58892e-07
0.00143654
-5.67666e-07
4.13556e-07
0.00143648
-6.11698e-07
4.00899e-07
0.00143641
-1.70726e-07
2.57259e-07
0.00143633
-5.37345e-07
3.08848e-07
0.00143639
1.9104e-07
4.07228e-07
0.00143649
-6.88088e-07
5.26101e-07
0.00143649
-6.02707e-07
3.48707e-07
0.00143635
-2.06575e-07
2.74406e-07
0.00143631
-7.0748e-07
3.52897e-07
0.00143636
-1.0368e-07
4.02242e-07
0.0014365
-8.94149e-07
5.57565e-07
0.00143646
-6.51567e-07
3.9732e-07
0.0014364
-7.80829e-07
3.12353e-07
0.00143627
-3.76566e-07
3.70454e-07
0.00143638
-3.85321e-07
3.82178e-07
0.00143649
-1.13062e-06
5.46105e-07
0.00143648
-4.56304e-07
3.72187e-07
0.00143639
-1.02289e-06
3.61095e-07
0.00143629
-2.63007e-07
2.454e-07
0.00143635
-4.99703e-07
3.95437e-07
0.00143648
-1.05671e-06
3.7528e-07
0.00143645
-8.86102e-07
4.0857e-07
0.0014364
-1.20589e-06
2.12335e-07
0.00143631
-3.42878e-07
2.74274e-07
0.00143641
-1.13021e-06
4.74875e-07
0.00143649
-5.36321e-07
4.1415e-07
0.00143651
-1.13573e-06
4.53935e-07
0.0014364
-6.42608e-07
1.89126e-07
0.00143632
-3.956e-07
2.26967e-07
0.00143642
-6.21638e-07
2.6259e-07
0.00143648
-6.26967e-07
5.174e-07
0.0014365
-9.51072e-07
2.01571e-07
0.00143637
-5.75988e-07
3.00492e-07
0.00143636
-5.09599e-07
9.75515e-08
0.00143639
-4.76589e-07
4.42516e-07
0.00143654
-2.92887e-07
3.12024e-07
0.00143651
-1.13755e-06
3.01176e-07
0.00143639
2.23514e-07
2.14284e-07
0.00143635
-7.20403e-07
1.19473e-07
1.77164e-07
3.73456e-07
0.00130591
-8.38874e-07
8.55527e-07
0.00130584
-1.12349e-06
6.20096e-07
0.00130575
-8.32659e-07
1.73813e-07
0.00130564
-8.24898e-07
2.50105e-07
0.00130574
1.0557e-07
6.23659e-07
0.00130587
-9.40584e-07
9.62803e-07
0.00130586
-1.15777e-06
5.57133e-07
0.0013057
-8.45537e-07
1.69542e-07
0.00130563
-1.03902e-06
2.59912e-07
0.0013057
-1.86249e-07
6.35975e-07
0.00130586
-1.19787e-06
9.94293e-07
0.00130584
-1.22699e-06
6.18512e-07
0.00130573
-1.48088e-06
2.47193e-07
0.00130558
-6.63149e-07
2.96102e-07
0.00130572
-5.79234e-07
6.1016e-07
0.00130586
-1.37237e-06
9.68369e-07
0.00130587
-1.06809e-06
5.86455e-07
0.00130571
-1.65824e-06
2.7467e-07
0.0013056
-5.81464e-07
1.50143e-07
0.00130569
-6.45223e-07
6.20443e-07
0.00130585
-1.38372e-06
8.02755e-07
0.00130584
-1.57019e-06
6.50994e-07
0.00130574
-1.89836e-06
1.38034e-07
0.00130565
-7.2447e-07
1.92092e-07
0.00130574
-1.29773e-06
7.03079e-07
0.00130586
-7.87971e-07
8.08345e-07
0.00130587
-1.76601e-06
6.90627e-07
0.00130571
-1.21461e-06
8.81212e-08
0.00130565
-7.85869e-07
1.22187e-07
0.00130575
-7.01658e-07
4.87118e-07
0.00130586
-9.26292e-07
9.17957e-07
0.00130586
-1.54569e-06
4.33309e-07
0.00130571
-1.23786e-06
2.06624e-07
0.00130568
-8.49461e-07
4.47011e-09
0.00130573
-5.52409e-07
6.41762e-07
0.00130591
-5.24876e-07
6.91979e-07
0.00130586
-1.67396e-06
5.23085e-07
0.00130573
-3.28029e-07
1.05921e-07
0.00130565
-1.05749e-06
5.42462e-08
1.57059e-07
5.983e-07
0.00118692
-1.13716e-06
1.67327e-06
0.00118681
-1.79755e-06
8.82185e-07
0.00118672
-1.77843e-06
-2.21921e-07
0.00118664
-1.345e-06
-5.38453e-08
0.00118681
-8.1995e-08
1.02088e-06
0.00118691
-1.2127e-06
1.77144e-06
0.00118686
-1.87414e-06
8.15382e-07
0.00118671
-1.787e-06
-2.81762e-07
0.00118666
-1.59025e-06
-1.07536e-07
0.00118677
-3.36962e-07
1.07143e-06
0.00118688
-1.52687e-06
1.79473e-06
0.00118683
-1.96544e-06
8.87991e-07
0.00118668
-2.43942e-06
-1.57868e-07
0.00118657
-1.17823e-06
-4.75472e-08
0.00118677
-8.47595e-07
1.02033e-06
0.00118688
-1.62825e-06
1.74445e-06
0.00118689
-1.84476e-06
8.30143e-07
0.00118669
-2.54487e-06
-1.72764e-07
0.00118662
-1.13337e-06
-2.0605e-07
0.00118674
-8.72197e-07
1.03348e-06
0.00118687
-1.74125e-06
1.61336e-06
0.00118684
-2.402e-06
9.7177e-07
0.00118672
-2.83246e-06
-2.4749e-07
0.00118667
-1.30801e-06
-1.41685e-07
0.00118677
-1.5019e-06
1.06885e-06
0.00118688
-1.04699e-06
1.55325e-06
0.00118683
-2.54028e-06
9.64932e-07
0.00118666
-2.06524e-06
-3.44978e-07
0.00118666
-1.4078e-06
-2.11691e-07
0.0011868
-8.28623e-07
9.15332e-07
0.00118687
-1.2473e-06
1.6911e-06
0.00118682
-2.27941e-06
7.35435e-07
0.00118669
-2.16747e-06
-2.03599e-07
0.00118669
-1.40341e-06
-3.40188e-07
0.00118678
-6.84644e-07
1.00673e-06
0.00118694
-7.8117e-07
1.43261e-06
0.00118681
-2.34495e-06
8.06612e-07
0.00118671
-1.18956e-06
-3.08641e-07
0.00118666
-1.62259e-06
-2.37597e-07
3.71102e-08
1.03661e-06
0.00107762
-1.34407e-06
2.76431e-06
0.00107743
-2.52292e-06
8.05822e-07
0.0010775
-2.96809e-06
-1.17703e-06
0.00107762
-2.11632e-06
-5.15114e-07
0.0010778
-3.39061e-07
1.77293e-06
0.00107766
-1.39215e-06
2.85273e-06
0.00107756
-2.65568e-06
7.518e-07
0.00107758
-3.00413e-06
-1.34304e-06
0.00107772
-2.36801e-06
-6.28239e-07
0.00107775
-5.18994e-07
1.9103e-06
0.00107759
-1.7535e-06
2.84731e-06
0.00107746
-2.73053e-06
8.23555e-07
0.00107745
-3.61579e-06
-1.15752e-06
0.00107753
-1.92943e-06
-5.69172e-07
0.00107773
-1.1373e-06
1.77063e-06
0.00107764
-1.78226e-06
2.74534e-06
0.00107761
-2.68454e-06
7.07618e-07
0.00107756
-3.66426e-06
-1.2227e-06
0.00107767
-1.93668e-06
-7.24326e-07
0.0010777
-1.12402e-06
1.82001e-06
0.0010776
-1.95889e-06
2.68262e-06
0.0010775
-3.21574e-06
9.94277e-07
0.00107751
-3.9105e-06
-1.22212e-06
0.00107767
-2.08072e-06
-6.3856e-07
0.00107769
-1.67916e-06
1.70979e-06
0.0010776
-1.19428e-06
2.53444e-06
0.00107745
-3.3118e-06
8.76154e-07
0.00107743
-3.16464e-06
-1.37722e-06
0.00107765
-2.23158e-06
-6.77357e-07
0.00107773
-9.52792e-07
1.72597e-06
0.00107757
-1.45105e-06
2.71565e-06
0.00107744
-3.01482e-06
7.21291e-07
0.00107748
-3.2892e-06
-1.20328e-06
0.00107767
-2.16178e-06
-8.55016e-07
0.00107772
-8.21493e-07
1.70926e-06
0.00107767
-9.58499e-07
2.42834e-06
0.00107745
-3.04899e-06
7.92839e-07
0.00107755
-2.3484e-06
-1.28907e-06
0.00107766
-2.41708e-06
-6.48071e-07
-1.38548e-07
1.88564e-06
0.000975479
-1.52661e-06
3.37661e-06
0.000975363
-3.39309e-06
-1.9223e-07
0.000975844
-4.14988e-06
-2.4949e-06
0.000976188
-2.66921e-06
-5.57799e-07
0.000976176
-3.7041e-07
2.89263e-06
0.000975633
-1.5551e-06
3.44955e-06
0.000975663
-3.59571e-06
-2.99347e-07
0.000976094
-4.23552e-06
-2.77563e-06
0.000976413
-2.85516e-06
-6.53089e-07
0.000976094
-4.43294e-07
3.16162e-06
0.000975524
-1.91221e-06
3.37724e-06
0.000975465
-3.60052e-06
-1.93011e-07
0.000975852
-4.75877e-06
-2.57935e-06
0.000976157
-2.44589e-06
-6.76695e-07
0.000976139
-1.16208e-06
2.84226e-06
0.000975705
-1.89975e-06
3.21256e-06
0.000975803
-3.65379e-06
-4.16232e-07
0.000976119
-4.74645e-06
-2.65898e-06
0.000976362
-2.50658e-06
-7.88756e-07
0.000976029
-1.07313e-06
3.00816e-06
0.000975538
-2.05547e-06
3.26144e-06
0.000975508
-4.04221e-06
5.39175e-08
0.000975877
-4.87694e-06
-2.6272e-06
0.000976247
-2.58437e-06
-7.50077e-07
0.00097597
-1.54508e-06
2.6588e-06
0.000975549
-1.29204e-06
3.06474e-06
0.000975405
-4.15047e-06
-1.85743e-07
0.000975784
-4.2587e-06
-2.76372e-06
0.000976194
-2.74778e-06
-6.61946e-07
0.000975965
-8.01103e-07
2.90471e-06
0.000975426
-1.58114e-06
3.25396e-06
0.000975373
-3.83422e-06
-2.32971e-07
0.000975831
-4.3456e-06
-2.59928e-06
0.000976211
-2.66509e-06
-9.32031e-07
0.000975998
-7.03612e-07
2.79646e-06
0.000975621
-1.13695e-06
2.96239e-06
0.000975445
-3.87857e-06
-1.14621e-07
0.000975988
-3.55851e-06
-2.62279e-06
0.000976204
-2.93108e-06
-5.56139e-07
-7.25679e-08
3.11633e-06
0.000878089
-2.26228e-06
2.42428e-06
0.000878406
-4.38852e-06
-1.96799e-06
0.000879215
-4.5062e-06
-3.05912e-06
0.000879426
-2.26767e-06
3.91006e-07
0.000879063
-2.81971e-07
3.63017e-06
0.000878459
-2.29644e-06
2.49003e-06
0.000878947
-4.64538e-06
-2.19585e-06
0.000879608
-4.56246e-06
-3.3519e-06
0.000879694
-2.28838e-06
4.47939e-07
0.000878913
-2.87312e-07
3.96909e-06
0.000878342
-2.59917e-06
2.34183e-06
0.000878685
-4.57292e-06
-2.02494e-06
0.000879391
-5.06105e-06
-3.27959e-06
0.000879567
-2.01671e-06
2.29796e-07
0.000879205
-1.06959e-06
3.48593e-06
0.000878707
-2.55335e-06
2.15051e-06
0.000879163
-4.68575e-06
-2.33394e-06
0.000879631
-4.94976e-06
-3.25187e-06
0.000879596
-2.08207e-06
2.11929e-07
0.000878787
-7.96546e-07
3.85419e-06
0.000878262
-2.65195e-06
2.33883e-06
0.000878576
-4.91125e-06
-1.75294e-06
0.000879208
-4.97685e-06
-3.34188e-06
0.000879383
-2.1387e-06
1.31412e-07
0.000878674
-1.23981e-06
3.28038e-06
0.00087819
-1.91079e-06
2.20748e-06
0.000878348
-5.04815e-06
-2.03337e-06
0.000879031
-4.48491e-06
-3.307e-06
0.000879198
-2.23873e-06
3.88884e-07
0.00087855
-5.443e-07
3.66447e-06
0.000877983
-2.23152e-06
2.30624e-06
0.000878344
-4.7464e-06
-1.99627e-06
0.000879087
-4.54274e-06
-3.244e-06
0.000879282
-2.2288e-06
4.97004e-08
0.000878684
-4.73305e-07
3.52551e-06
0.000878288
-1.88579e-06
2.07114e-06
0.00087845
-4.79562e-06
-1.76296e-06
0.000879275
-3.95097e-06
-3.15449e-06
0.000879198
-2.40062e-06
5.96518e-07
5.51845e-08
3.91257e-06
0.000783798
-3.5179e-06
2.40943e-07
0.000784506
-4.48072e-06
-2.94716e-06
0.000785058
-3.31141e-06
-1.97655e-06
0.000784872
-1.43466e-06
1.52055e-06
0.000784514
-1.04296e-06
2.74553e-06
0.000784412
-3.58529e-06
2.33143e-07
0.000785164
-4.6572e-06
-3.23117e-06
0.000785419
-3.18216e-06
-2.10263e-06
0.000785053
-1.3225e-06
1.74113e-06
0.000784347
-1.11902e-06
3.0415e-06
0.000784368
-3.80825e-06
1.81539e-08
0.00078498
-4.61264e-06
-3.10917e-06
0.000785425
-3.80122e-06
-2.28952e-06
0.000785178
-1.16827e-06
1.34465e-06
0.000784788
-1.77119e-06
2.52846e-06
0.000784625
-3.66153e-06
-1.09643e-07
0.00078519
-4.68088e-06
-3.32004e-06
0.000785166
-3.50824e-06
-2.05353e-06
0.000784669
-1.21511e-06
1.50128e-06
0.000783887
-1.355e-06
3.1116e-06
0.000783879
-3.76054e-06
6.41915e-08
0.000784369
-4.83729e-06
-2.86155e-06
0.000784687
-3.57474e-06
-2.36021e-06
0.000784332
-1.25177e-06
1.31705e-06
0.000783623
-1.71553e-06
2.51507e-06
0.000783582
-3.07372e-06
2.01421e-07
0.000783993
-5.00873e-06
-3.07678e-06
0.000784408
-3.15751e-06
-2.04274e-06
0.000784068
-1.32999e-06
1.57031e-06
0.000783486
-1.19194e-06
2.82991e-06
0.000783468
-3.43417e-06
1.36965e-07
0.000784131
-4.75458e-06
-2.99615e-06
0.000784566
-3.21691e-06
-2.17603e-06
0.000784308
-1.40129e-06
1.29123e-06
0.000783739
-1.11248e-06
2.74217e-06
0.000783814
-3.14675e-06
5.64695e-08
0.000784198
-4.75619e-06
-2.60714e-06
0.000784745
-2.81355e-06
-2.01035e-06
0.000784208
-1.42732e-06
1.88157e-06
-8.09636e-07
2.94883e-06
0.000691281
-3.68931e-06
-1.18505e-06
0.000691857
-3.13257e-06
-2.27062e-06
0.000691886
-1.92097e-06
-4.45925e-07
0.00069167
-1.64018e-06
1.34693e-06
0.000691688
-2.28306e-06
7.45486e-07
0.000691912
-3.7688e-06
-1.29339e-06
0.000692295
-3.08498e-06
-2.41282e-06
0.000692059
-1.71904e-06
-3.51836e-07
0.000691728
-1.56089e-06
1.5511e-06
0.000691573
-2.49002e-06
8.5097e-07
0.0006919
-3.92848e-06
-1.56767e-06
0.000692167
-3.18944e-06
-2.42917e-06
0.000692089
-2.27811e-06
-7.60858e-07
0.00069171
-1.33193e-06
1.23032e-06
0.000691571
-2.83022e-06
5.47588e-07
0.000691505
-3.66787e-06
-1.50854e-06
0.000691628
-3.109e-06
-2.42808e-06
0.00069108
-1.95112e-06
-2.85961e-07
0.000690678
-1.443e-06
1.4555e-06
0.000690399
-2.45679e-06
1.14166e-06
0.000690701
-3.87512e-06
-1.55073e-06
0.000690791
-3.28784e-06
-2.17016e-06
0.000690651
-2.02891e-06
-7.65505e-07
0.000690199
-1.37672e-06