/*--------------------------------*- C++ -*----------------------------------*\
  =========                 |
  \\      /  F ield         | OpenFOAM: The Open Source CFD Toolbox
   \\    /   O peration     | Website:  https://openfoam.org
    \\  /    A nd           | Version:  10
     \\/     M anipulation  |
\*---------------------------------------------------------------------------*/
FoamFile
{
    format      ascii;
    class       surfaceScalarField;
    location    "11";
    object      phi;
}
// * * * * * * * * * * * * * * * * * * * * * * * * * * * * * * * * * * * * * //

dimensions      [0 3 -1 0 0 0 0];

internalField   nonuniform List<scalar> 
74080
(
0.00530274
0.000117128
-7.48996e-05
0.00517408
0.000136495
-0.000163267
0.00510355
0.000110792
-0.000171832
0.00508082
4.39375e-05
-0.000100243
0.00510115
-4.68688e-05
-2.10443e-05
0.00514684
-9.6822e-05
4.40705e-06
0.00520591
-0.000101255
1.58799e-05
0.00526468
-3.70858e-05
3.51308e-05
0.00530951
6.90989e-05
8.96186e-05
0.0053239
0.000130826
0.000168351
0.00533322
0.000145018
0.000166838
0.00537066
0.000114553
6.84431e-05
0.00543453
5.93745e-05
-7.49642e-05
0.00551159
7.87454e-06
-0.000210983
0.00555604
-1.50953e-05
-0.000268557
0.00555242
-3.21831e-05
-0.000223922
0.00551198
-7.2151e-05
-0.000129421
0.0054567
-8.70416e-05
-5.44626e-05
0.00545645
-9.37805e-05
-1.54162e-05
0.00551026
-0.000104597
-2.42221e-05
0.00557399
-8.24423e-05
-5.47409e-05
0.00559516
-2.88573e-05
-7.69103e-05
0.00552246
3.51991e-05
-7.28376e-05
0.0053875
8.38596e-05
-5.78464e-05
0.00523875
0.000142763
-4.34436e-05
0.00515094
0.00014973
-7.36095e-06
0.00514743
0.00011727
4.58323e-05
0.00521428
9.71667e-05
9.56666e-05
0.0053581
3.18598e-05
0.000121315
0.00549121
-1.49777e-05
0.00012156
0.00554331
-3.78129e-05
0.000141277
0.00549586
-5.1374e-05
0.000164856
0.00537356
-1.00361e-05
0.000195407
0.0052686
2.66959e-05
0.000219311
0.00524839
3.48542e-05
0.000194521
0.00531963
9.22425e-06
0.000174042
0.00544671
-6.48592e-05
0.000158499
0.00555464
-9.47164e-05
0.000144763
0.00556382
-5.81219e-05
0.000129592
2.63169e-05
4.52527e-05
0.00480318
9.69726e-05
-0.000172318
0.00477417
4.66294e-05
-0.000334171
0.00476397
3.89821e-06
-0.000439571
0.00478331
-6.19573e-05
-0.000428495
0.00482262
-0.000130998
-0.000367752
0.00483235
-0.000124953
-0.000226668
0.00478903
-7.97287e-05
-4.75581e-05
0.00470841
5.03144e-06
0.00012238
0.00465282
8.52296e-05
0.000272874
0.00467113
0.000113333
0.000282261
0.00480839
0.000101272
0.000130361
0.00500589
9.85517e-05
-6.23883e-05
0.00512066
9.21612e-05
-0.000199798
0.00507867
4.10312e-05
-0.0002021
0.00490427
-7.87102e-06
-0.00014665
0.00472012
-6.66973e-05
-0.000125214
0.004591
-0.000121667
-0.000127101
0.00452569
-0.000120124
-0.000136251
0.00455345
-0.000145287
-0.000104835
0.00462296
-0.000155442
-7.00596e-05
0.00471019
-0.000138837
-8.73655e-05
0.00479681
-0.000117709
-0.000138868
0.00482176
-6.00788e-05
-0.000161897
0.00477989
-6.69457e-06
-0.00014169
0.00471303
4.95186e-05
-9.63308e-05
0.00466889
5.61224e-05
-5.47129e-05
0.00466266
2.03435e-05
-4.93068e-05
0.00469713
-1.48373e-05
-6.47951e-05
0.0047354
-8.45842e-05
-9.18152e-05
0.00473727
-0.000128929
-7.9606e-05
0.00473462
-0.000186315
1.65702e-06
0.00475112
-0.000224165
9.73942e-05
0.00482084
-0.000176194
0.000237769
0.00492661
-8.24756e-05
0.000379235
0.00500591
2.89635e-05
0.000453898
0.00503243
8.1991e-05
0.000475236
0.00499457
6.01395e-05
0.0003988
0.00494051
3.76215e-05
0.000269975
0.00490078
3.74206e-05
0.000139733
7.65822e-05
-1.92505e-05
0.00437127
-2.9723e-06
-0.000234935
0.00438544
-3.01427e-05
-0.00038561
0.00436505
-2.43614e-05
-0.000418409
0.00430593
-5.31691e-05
-0.000363997
0.00422239
-0.000100964
-0.000338725
0.00413241
-8.8389e-05
-0.000299099
0.0040787
-7.27702e-05
-0.000223758
0.00413295
-6.36055e-05
-0.000104425
0.00430155
-5.53768e-05
6.23613e-05
0.00451193
-3.65301e-05
0.000147926
0.00463506
2.52457e-05
0.000142676
0.00457997
0.00013168
0.000130756
0.00440886
0.00015907
0.000111028
0.00424886
4.32929e-05
7.37416e-05
0.00413528
-6.85644e-05
1.06981e-05
0.00404667
-0.000156069
-8.33994e-05
0.00394847
-0.000172205
-0.000145488
0.00387551
-0.000138014
-0.000109639
0.00387124
-0.000184245
-1.25156e-05
0.0039114
-0.000220523
5.90101e-05
0.00398893
-0.000248693
3.19254e-05
0.00406859
-0.000268612
-6.50896e-05
0.00409918
-0.0001955
-0.00012845
0.00408257
-8.49798e-05
-0.000156567
0.00405934
1.72092e-05
-0.000161586
0.00404135
6.14155e-05
-0.000153159
0.00403071
2.56916e-05
-0.000133354
0.00405155
-5.35535e-05
-7.18861e-05
0.00408444
-0.000134605
7.78111e-07
0.00412516
-0.000181886
8.60035e-05
0.00416505
-0.000242143
0.000187387
0.00419697
-0.000263169
0.000259292
0.00426693
-0.000216069
0.000331006
0.00436156
-0.000113047
0.000344581
0.00445981
8.8597e-06
0.000287873
0.00452054
4.1776e-05
0.000261169
0.00448969
4.19666e-05
0.000242709
0.00441924
2.53268e-05
0.000215933
0.00436174
-1.22774e-05
0.000142276
-8.24628e-06
-3.28299e-05
0.00394302
2.68707e-05
-0.000175326
0.00395171
-1.32571e-05
-0.00019265
0.00393899
-4.22893e-05
-0.000237994
0.00390968
-8.19316e-05
-0.000346783
0.0038669
-9.51555e-05
-0.000456637
0.00386131
-7.05563e-05
-0.000410857
0.00390446
-8.20888e-05
-0.000230418
0.00397931
-9.68294e-05
-9.01241e-06
0.0040682
-8.24322e-05
0.000175208
0.00412504
-3.4324e-05
0.000233235
0.0041257
7.729e-05
0.000220367
0.0040522
0.000250406
0.000199223
0.00393572
0.000302725
0.000147043
0.00381952
0.000150021
7.11704e-05
0.00368261
9.46604e-06
-2.61543e-05
0.00354824
-0.000101995
-0.000107974
0.00346903
-0.000137063
-0.00012585
0.00348178
-0.000133144
-7.59153e-05
0.00353675
-0.000210912
-2.17835e-05
0.00357378
-0.000253327
-1.14864e-05
0.00358848
-0.000315869
-4.66265e-05
0.00360968
-0.000402656
-0.000125783
0.00365872
-0.000389938
-0.000207582
0.00372321
-0.00027476
-0.000290873
0.0038156
-0.000135413
-0.000302069
0.00390056
-4.5101e-05
-0.000158825
0.00394663
-4.94275e-05
7.30215e-05
0.00394918
-7.58536e-05
0.000292864
0.00389726
-7.55576e-05
0.000353966
0.00384839
-0.00011231
0.000274169
0.00385572
-0.000238512
0.000216181
0.00391555
-0.000320302
0.00023935
0.00400797
-0.000290859
0.000323723
0.004061
-0.000146308
0.000331612
0.00408416
2.61705e-06
0.00022282
0.00409494
3.1136e-05
0.000111772
0.00406252
2.55512e-05
-9.47046e-06
0.00400961
-3.11013e-05
-7.92732e-05
0.00395872
-6.72101e-05
-0.000100406
-5.98083e-06
-0.000142843
0.0035129
1.2125e-05
-0.000109846
0.00349187
9.9986e-06
-0.000124668
0.00348712
-5.44879e-05
-0.000174089
0.00354117
-0.00015822
-0.000234124
0.00361786
-0.000177335
-0.000257318
0.0036729
-7.55358e-05
-0.000212454
0.00364713
2.8267e-05
-9.05997e-05
0.00354867
4.64571e-05
4.88471e-05
0.00343334
-2.55349e-05
0.000112465
0.00333269
-0.000111096
0.000122964
0.00328897
-6.08319e-05
0.000174664
0.0033174
0.000194164
0.000230604
0.00339521
0.000297707
0.000208756
0.00346865
0.000107335
0.000118072
0.00347702
-3.84664e-05
3.07543e-05
0.00343536
-0.000123733
1.35577e-05
0.00345178
-0.000200873
5.02707e-05
0.0035537
-0.000312782
0.000110687
0.0035866
-0.000394201
8.90364e-05
0.00348545
-0.000351803
-2.162e-05
0.00332077
-0.000347061
-0.000155839
0.00320897
-0.000384445
-0.000290523
0.00321377
-0.000381206
-0.000302753
0.00329519
-0.000343999
-0.000183379
0.003399
-0.000303075
3.68724e-05
0.00347356
-0.000249913
0.000275289
0.00350838
-0.0002145
0.000405155
0.00351819
-0.00016479
0.000397167
0.00349655
-0.00010181
0.000336972
0.00348144
-9.79989e-05
0.000278884
0.00350378
-0.000202902
0.000224053
0.00357338
-0.000300371
0.000156536
0.00365324
-0.000298041
7.60669e-05
0.00365908
-0.000165634
1.38342e-05
0.00359564
-2.6806e-05
-2.77638e-06
0.00348164
3.10238e-05
2.23321e-05
0.00338529
5.37981e-05
-4.38863e-05
0.00337844
-5.44521e-05
-0.000139115
0.00342933
-0.000140499
-0.00015249
-7.01247e-05
-0.000131779
0.00319349
0.000146772
-0.000142216
0.003197
0.000165031
-9.16728e-05
0.00319873
2.29527e-05
-4.73669e-05
0.00319659
-0.000177576
-3.66349e-05
0.00320971
-0.000220781
-0.000128443
0.00321319
-3.53011e-05
-0.000233129
0.0031975
0.000137301
-0.000218851
0.00319487
0.000100208
-0.000150406
0.00313246
-1.04429e-05
-8.97338e-05
0.00296734
-6.66246e-05
6.3155e-06
0.0028671
5.99162e-06
0.000112098
0.0029609
0.000267851
0.000103912
0.00314233
0.000367573
-6.9992e-06
0.00327402
0.000144204
-8.36507e-05
0.00335943
-6.57799e-05
-5.54405e-05
0.00338258
-0.000200914
7.26448e-05
0.00336079
-0.000362462
0.000241327
0.00327383
-0.000474053
0.000300455
0.00306268
-0.000425984
0.000206244
0.00280578
-0.00034517
9.02201e-05
0.00260817
-0.000379497
1.5019e-06
0.00254799
-0.000451929
-5.51716e-05
0.00264951
-0.000448558
-0.000131944
0.00283482
-0.000379659
-0.000118856
0.00301662
-0.000296004
0.000115408
0.00308739
-0.000169357
0.000369371
0.0030263
-8.32116e-05
0.000387534
0.00295007
-2.93039e-05
0.000188693
0.00292083
1.19635e-05
-5.08235e-06
0.00293123
1.73357e-05
-2.25214e-05
0.00295873
-7.64254e-05
8.18819e-05
0.00303517
-0.000232679
0.000107798
0.003153
-0.000297863
1.40517e-05
0.00319996
-0.000180454
-0.000140798
0.00314838
-9.86144e-06
-0.000203764
0.00305536
7.80961e-05
-0.000152213
0.00302025
5.90937e-05
-0.000215029
0.00305896
-0.000136596
-0.000249448
0.00311298
-0.00022333
-0.000188181
-5.19365e-05
-0.000164866
0.00271479
0.000232171
-0.000303922
0.00290736
6.59534e-05
-0.000330381
0.00295551
-8.96453e-05
-0.00022104
0.00282464
-0.000197995
-9.40908e-05
0.00273169
-0.000134096
-0.000112818
0.00282179
6.79402e-05
-0.000142474
0.00298928
0.000151511
-6.89064e-05
0.0030039
0.000130727
-9.92113e-06
0.00276466
0.000159955
5.01626e-05
0.00256831
5.10663e-05
0.000159652
0.00267298
-4.71069e-05
0.000243858
0.00289228
0.000295638
0.000172754
0.00295135
0.000558132
6.07107e-05
0.00294075
0.00023581
4.17366e-05
0.00306388
-0.000162654
6.61627e-05
0.00317019
-0.000292095
0.000143837
0.00305737
-0.000346671
0.000253693
0.00276485
-0.000361446
0.000233391
0.00243495
-0.000298101
4.88774e-05
0.00219827
-0.000361169
-9.08799e-05
0.00211223
-0.000566825
-0.000102698
0.0021636
-0.000732591
5.9434e-06
0.00228801
-0.000699808
7.18488e-05
0.00240155
-0.000465403
7.04539e-05
0.00248772
-0.000242634
8.48746e-05
0.0025406
-8.11329e-05
2.31719e-05
0.00258036
-3.14878e-05
-9.91151e-05
0.00260203
3.51326e-05
-0.00024741
0.00259127
0.000137044
-0.000285809
0.00255696
0.000196033
-0.000101311
0.00248095
9.01306e-05
8.77327e-05
0.00244974
-0.000150181
5.70759e-05
0.00253733
-0.000368756
-1.93746e-05
0.00268246
-0.000384549
-7.59931e-05
0.00276873
-0.000215486
-7.42481e-05
0.00278304
-4.6102e-05
-8.98684e-05
0.00282906
1.2017e-05
-0.000198381
0.0028123
-8.42733e-05
-6.33603e-05
0.00268018
-9.06326e-05
5.92745e-05
0.000125652
-0.000114173
0.00281363
-2.45132e-05
-0.000298767
0.0027853
-0.000170257
-0.000163975
0.00244366
-6.64015e-05
-4.65043e-05
0.00218764
-0.000169513
5.05164e-05
0.00224302
-0.00031493
0.000221048
0.00246671
-0.000240136
0.000347111
0.00260661
-1.93209e-05
0.000224872
0.00258366
0.000154946
4.09854e-05
0.00243041
0.000220638
0.000216174
0.00237671
-2.83947e-05
0.000506363
0.00252617
-0.000212206
0.000399402
0.00267101
0.000259183
0.000106163
0.00268827
0.000600035
7.49765e-05
0.00264122
0.000171646
0.0001224
0.00271119
-0.000309284
3.98892e-05
0.0028779
-0.000346388
-2.3229e-05
0.00289985
-0.000248328
3.78928e-05
0.00271064
-0.000243354
9.04338e-05
0.0024761
-0.000290684
-2.74658e-06
0.00226194
-0.000361538
-6.62334e-05
0.0021179
-0.000493918
-0.000114015
0.00210335
-0.000655797
-0.000122693
0.002125
-0.00066404
-0.00010601
0.00210069
-0.000487295
-0.000141687
0.00212073
-0.000254196
-0.000167944
0.00223544
-5.1727e-05
-0.00019571
0.0024496
1.12589e-05
-0.00023232
0.00260172
0.000140056
-0.000261733
0.00254184
0.000306705
-0.000185291
0.00239083
0.000371398
3.73608e-05
0.00225982
0.000249004
0.000170699
0.0021846
-1.24846e-05
8.50859e-05
0.00223309
-0.000361863
-1.9732e-05
0.00241007
-0.000518731
-0.000135334
0.0025524
-0.000420549
-8.27405e-05
0.00263579
-0.000273863
1.07036e-05
0.00274872
-3.63193e-05
-5.06348e-05
0.00274336
9.71701e-05
7.58268e-05
0.00259368
0.000158764
7.61212e-05
0.000187933
-0.000199924
0.00241852
5.60648e-05
-0.000410004
0.00225197
-0.000127939
-0.000175015
0.00207446
-8.49249e-05
-9.37199e-07
0.00208871
-0.000261306
0.000222639
0.00226438
-0.000477856
0.00032632
0.0023193
-0.000286934
0.00019483
0.00221866
6.1604e-05
3.02206e-05
0.00221177
0.0001429
-1.72663e-05
0.00227845
9.36482e-05
0.000102203
0.0022368
-1.81185e-05
0.000168137
0.00228702
-9.41799e-05
-1.11095e-05
0.00259796
0.000219815
-0.000211475
0.00277561
0.000329241
-0.000104894
0.00259082
6.26585e-05
0.000107438
0.00241866
-0.000157993
-1.09033e-05
0.00248164
-0.000177489
-0.000232515
0.00253978
-0.00017361
-0.00011606
0.00240765
-0.000266452
9.91829e-05
0.00218462
-0.000341452
0.000112403
0.00197065
-0.000316337
-2.35433e-05
0.00187375
-0.000314846
-0.000202038
0.00189152
-0.000364668
-0.000239591
0.00194172
-0.000419459
-0.000125275
0.00194663
-0.000456385
-3.11454e-05
0.00194051
-0.000303317
-0.000138246
0.00198724
-2.4157e-05
-0.000387422
0.00214199
0.00010798
-0.000509518
0.00233855
0.000157505
-0.000345196
0.00236189
0.000403213
-8.70211e-05
0.00225154
0.000639031
0.000106722
0.00223302
0.000480161
8.64324e-05
0.00227187
0.000100232
-6.02516e-06
0.00215786
-0.000252559
6.31629e-05
0.00196796
-0.000370481
6.41199e-05
0.00194972
-0.00031665
-0.000108604
0.00215428
-0.000319362
-0.000198294
0.00231912
-0.000112537
-9.10643e-05
0.0022459
0.00022781
-2.10323e-05
0.00221333
0.000427986
-0.000296125
0.000339827
-0.000522562
0.00222214
6.12351e-05
-0.0002089
0.00213996
-0.000171703
-0.000100581
0.00218509
-0.000208837
7.85348e-05
0.00217873
-0.000232913
0.000184635
0.00207705
-0.000177152
9.62907e-06
0.00190008
-2.80035e-06
-0.000105488
0.00195559
1.65658e-05
-7.16262e-05
0.00209504
1.26456e-05
-6.57168e-05
0.00198185
6.52158e-05
3.6432e-05
0.00191395
-5.79254e-05
0.000178064
0.00219144
-0.000219126
0.000162409
0.0024856
8.4756e-05
8.92734e-05
0.00239845
0.000244472
0.000194316
0.00237753
-8.08594e-05
0.000156335
0.00245328
-0.000209481
-6.79156e-05
0.00208082
0.000115662
-0.000115118
0.00159679
0.000122042
6.18357e-05
0.00143171
-0.000231844
0.00012288
0.00144439
-0.000477032
0.00011397
0.00155447
-0.00050252
-4.66304e-05
0.00165051
-0.000311298
-0.000300859
0.00155852
-0.000152783
-0.000183956
0.00147621
-0.000341059
0.000136266
0.00157724
-0.000560602
0.000265319
0.00170908
-0.000370779
-0.000112421
0.00180559
-1.23721e-05
-0.000528653
0.00192885
0.000160458
-0.000477516
0.00200611
0.0002559
-0.000216138
0.00198681
0.000602805
-6.19307e-05
0.00199878
0.000811742
-0.00011149
0.00205773
0.000619531
-0.000156474
0.00202451
0.000365237
-7.66967e-05
0.0019557
-2.57252e-05
6.63076e-05
0.00192344
-0.000273904
6.66514e-06
0.00189652
-0.00029168
-6.59689e-05
0.00192099
-0.00035348
-9.49364e-05
0.00203303
-0.000192992
-6.3262e-05
0.0021418
0.000177958
-1.15291e-05
0.00230546
0.000329266
-0.000118252
0.000246887
-0.000217395
0.00190072
9.80559e-05
-8.68433e-05
0.0018519
-0.000186963
-8.98092e-05
0.00174631
-0.000198269
9.64778e-05
0.00165152
-0.000184663
0.000286924
0.00174104
-0.000104587
0.000114118
0.00175707
-1.04934e-05
-8.59313e-05
0.00160078
3.18044e-05
-0.000111572
0.00146261
7.87651e-05
1.23768e-06
0.00152301
-2.16575e-05
0.000227145
0.00162643
-0.00010308
0.000290222
0.00158942
-9.04781e-05
0.000185374
0.00173004
-4.36086e-05
0.000146513
0.00202626
-0.000231298
0.000197894
0.00215617
-0.000413075
0.000183527
0.00208663
-0.000258513
8.6228e-05
0.00185583
0.00023566
-2.37538e-05
0.0017564
0.000215888
-5.58488e-05
0.00173479
-0.000109111
-5.25186e-05
0.00160989
-0.000407651
-5.93945e-05
0.00157839
-0.000480216
-0.000101335
0.00164139
-0.000122508
-5.21117e-05
0.0015399
3.27893e-05
0.000173361
0.00138824
-0.000338674
0.000224252
0.00137641
-0.000613011
8.30872e-05
0.00147252
-0.000284612
-0.00026326
0.00160877
0.000110806
-0.000482336
0.00171465
0.000149135
-0.000262854
0.00169196
0.00032297
-9.14744e-06
0.00170348
0.000754084
-3.81131e-05
0.00186381
0.000765684
-0.000111419
0.00201097
0.000555989
-3.75504e-05
0.00201797
0.000374902
0.000219719
0.00197762
1.34741e-05
0.000161556
0.00204099
-0.000241498
-0.000204749
0.00198895
-0.00032114
8.06639e-05
0.00185676
-0.000319135
0.000200369
0.0018505
-0.000102199
3.15901e-05
0.00205021
0.000157738
-0.000168051
0.00221699
0.000231302
-0.000274711
0.000246535
-0.000148449
0.00182673
0.000143331
-4.75764e-05
0.0016984
-0.000194684
-0.000212091
0.00153675
-0.000290042
-9.46047e-05
0.0014731
-0.000268276
0.000204201
0.00156956
-0.000306632
0.000276901
0.00161218
-0.000287646
0.000167263
0.00150111
-2.40278e-05
-3.56474e-05
0.00141678
0.000142591
6.62328e-05
0.00148976
-2.30277e-05
0.000315133
0.00159286
-0.000173611
0.000373577
0.00157984
-0.000177896
0.000312268
0.00158408
-0.000140481
0.000228856
0.00153805
-0.000208482
0.000217545
0.0015157
-0.000277878
0.000275189
0.00155319
-0.000140561
0.000234105
0.00153064
0.000250914
2.56852e-05
0.00159341
0.000192476
-9.18482e-05
0.00166535
-5.1822e-05
1.61228e-05
0.00152188
-0.000416736
0.000222653
0.00137045
-0.000426147
4.32341e-05
0.00137962
-3.20612e-05
-5.63636e-05
0.00135639
-2.66276e-05
0.000207538
0.00126184
-0.000383913
0.000231615
0.00123742
-0.000599263
3.25444e-05
0.00130864
-0.000186959
-0.000164422
0.00149117
0.000140126
-0.000270663
0.0015499
0.000194129
-0.000132644
0.00143812
0.000454697
6.57468e-05
0.00139091
0.000800616
0.000119691
0.00144384
0.000792675
0.000186721
0.00164291
0.000435271
0.000207036
0.00186027
0.000119043
0.00036762
0.00188376
-3.25968e-05
9.32012e-05
0.00186324
-0.000240573
-0.000278006
0.00170218
-0.000267838
0.000109507
0.00152243
-0.00024036
0.000285098
0.00168297
-0.000153215
-0.000104375
0.00191093
2.32692e-05
-0.000330155
0.00192374
0.000132113
-0.000235665
0.000204881
-3.10786e-05
0.00163983
-6.54985e-05
0.00016343
0.00161894
-0.000354467
-0.000120715
0.00161725
-0.000341981
-0.000115345
0.00151414
-0.000186529
0.000177091
0.0014317
-0.000291261
0.000335584
0.00141606
-0.000361846
0.000240647
0.00142478
-0.000148991
4.34377e-05
0.00137294
0.000134257
5.05162e-05
0.00144269
-2.96273e-05
0.000218734
0.00166966
-0.000308898
0.000295295
0.00170314
-0.000141462
9.90702e-05
0.00136438
0.000159683
2.80444e-05
0.00102934
7.58215e-05
0.000137151
0.00105961
-0.000266134
0.000193172
0.00119587
-0.0002257
0.000289091
0.00122251
0.000219142
-4.91418e-06
0.00131001
0.0001492
-0.000134183
0.00146921
-0.000183195
0.000202878
0.00142886
-0.000425446
0.000408242
0.00141081
-0.000278574
9.94985e-05
0.00138797
2.73174e-05
-3.4726e-05
0.00127614
-6.23374e-05
0.000179066
0.00113811
-0.000405078
0.000324231
0.00112608
-0.000553354
0.000154592
0.00131066
-0.000121316
-0.000143623
0.00143852
0.000113433
-0.000234987
0.00137777
0.000222071
-0.000292397
0.00128206
0.000559044
-0.000191594
0.00123571
0.000846517
7.16305e-05
0.00129492
0.000745158
0.00025285
0.00149173
0.000309891
0.000190353
0.00159318
0.000103128
0.000309771
0.00147533
3.55841e-05
0.000240957
0.00140592
-0.000258507
-5.76843e-05
0.00147382
-0.000301317
-3.15256e-05
0.00153604
-0.000180811
6.00259e-05
0.00160445
-0.000123463
-0.000131913
0.00163582
-5.47708e-05
-0.000327898
0.00166628
-7.97012e-05
-0.000150175
-2.84847e-05
0.000149181
0.001058
-0.000106553
-2.3887e-05
0.00119526
-0.000493132
-0.000125991
0.00130271
-0.000428766
2.43933e-05
0.00125531
-0.000197223
0.000163812
0.00110061
-0.000141089
0.00024255
0.00103128
-0.000242775
0.00017272
0.00118383
-0.000305654
0.000129739
0.00129588
-6.56656e-06
0.000122417
0.00131476
-4.82333e-05
0.000128679
0.0013851
-0.000148115
-5.65284e-05
0.00138862
0.000126963
-0.000141742
0.00115724
0.000307868
8.91094e-05
0.00103373
5.78364e-05
0.000115503
0.00112786
-0.000338123
2.79392e-05
0.00115248
-0.000268124
0.00017472
0.00113033
0.000218591
1.48151e-05
0.00121182
2.54553e-05
-7.70806e-05
0.00126455
-0.000342148
0.000150589
0.00122104
-0.000374155
0.0001321
0.00121248
-6.88082e-05
-9.87179e-05
0.00108562
0.000184627
-3.78495e-05
0.00101041
-8.91439e-06
0.000188599
0.00110036
-0.000435479
0.000226379
0.00111526
-0.000479996
0.000141552
0.00120062
-2.8027e-05
-4.41506e-05
0.00124749
0.00017061
-0.000133052
0.00114886
0.000208774
-0.000196505
0.00112278
0.000454024
-0.000205464
0.00123687
0.00071671
7.89635e-05
0.00136946
0.00057425
0.000246235
0.00140375
0.000249721
0.000271168
0.00141024
0.000139624
0.000398028
0.00138168
-3.02039e-05
0.000178812
0.00131084
-0.000289042
-8.72759e-05
0.00134708
-0.000286851
5.63116e-05
0.00133962
-0.0001139
-7.49806e-05
0.00122173
-8.4869e-05
-0.00031627
0.00123069
-0.000139817
-0.000361352
0.00122593
-8.91302e-05
-3.0319e-05
0.000132472
0.000125844
0.000981657
-5.92986e-05
-2.1454e-05
0.00113892
-0.000474001
-0.000100538
0.00113111
-0.000383417
6.1511e-05
0.000936312
-7.89385e-05
0.000148808
0.000773464
-2.25169e-05
0.000162109
0.000766675
-0.0004031
0.000170171
0.000946334
-0.000490566
9.88401e-05
0.00110925
-0.000147275
0.000173602
0.00120351
-0.00011605
0.00037272
0.00129968
-7.51051e-05
0.000127183
0.00130223
0.000162842
6.1556e-05
0.00112668
0.000235622
0.000111582
0.00101147
4.54707e-05
1.86146e-05
0.00107683
-0.000250136
8.8728e-05
0.00114917
-0.000172593
0.000238148
0.00116813
0.000309456
0.000115075
0.00123038
-5.42003e-06
-2.05671e-05
0.00121058
-0.000320085
1.07235e-05
0.000991638
-0.00010544
1.22436e-05
0.000823792
0.000181573
-4.645e-05
0.000720609
0.000210704
-2.42353e-05
0.000757428
-0.000159985
2.81892e-05
0.000896788
-0.000491685
-4.75446e-05
0.000963713
-0.000386357
-2.22476e-05
0.00105859
5.18453e-06
-3.69136e-05
0.00107567
9.79055e-05
-0.000166283
0.00104361
8.39358e-05
-0.000102554
0.00117755
0.000277798
1.35938e-05
0.00122521
0.000650298
0.000147176
0.00123816
0.000513387
0.000243623
0.00143165
-3.27847e-05
0.00044606
0.00156193
-0.000107858
0.000570082
0.00133403
0.000112142
0.000224094
0.00114984
-6.38869e-05
-2.23435e-05
0.00108308
-0.000171134
5.8547e-06
0.000946304
-5.92875e-05
-0.000123833
0.000937141
-0.000151511
-0.000182578
0.00109578
-0.000290776
-0.000106377
0.00107273
-0.000162528
2.87471e-05
0.00020733
0.000168534
0.000964514
-8.10426e-06
-3.7934e-05
0.00104427
-0.000439203
-5.27364e-05
0.00100578
-0.000406505
8.1834e-05
0.000899531
-9.17383e-05
0.000147037
0.000920962
-0.000115438
0.000172651
0.000914354
-0.000409023
0.000114961
0.000962505
-0.000429209
0.000142905
0.00112623
-0.000212193
0.000107834
0.00119904
-0.000196857
0.000226535
0.00110966
-7.95797e-06
0.000131868
0.000981557
0.000199879
3.48794e-05
0.000884777
0.000113124
0.000126004
0.000887493
-6.80878e-05
0.000110008
0.000922689
-0.000244727
0.000201364
0.000986065
-0.000200162
0.000223755
0.00106403
0.000315439
1.18746e-05
0.00109879
-3.93559e-05
-4.40442e-05
0.00111231
-0.000268794
-1.93575e-05
0.000948186
0.000121303
2.20889e-05
0.000846845
0.00030112
6.99381e-05
0.000877971
0.000161443
2.807e-05
0.000801401
-0.000242634
-2.3836e-05
0.000752513
-0.000511686
8.03076e-06
0.000803953
-0.000345235
4.05818e-05
0.000874392
-2.30352e-05
-7.98869e-05
0.00095372
3.68093e-05
-0.000173739
0.000985363
4.70608e-05
6.45062e-05
0.00103391
0.00028051
0.000195463
0.00108324
0.000685956
0.000154874
0.0011535
0.000412764
0.000242762
0.00130133
-0.000203978
0.000396472
0.00131623
-0.000112167
0.000387345
0.00106163
0.000305392
0.000116384
0.00093245
6.1961e-06
-8.91984e-05
0.00104641
-0.000237152
-0.000156625
0.00112534
-0.00017566
-9.23579e-05
0.00107074
-0.000157342
-9.75713e-05
0.000997249
-0.000163913
-9.88398e-05
0.000966673
-0.000270144
3.57904e-05
0.00010249
0.000188801
0.000888909
5.82523e-06
2.09715e-05
0.00100558
-0.000399992
3.70829e-05
0.000892674
-0.000209748
-5.09777e-06
0.000801946
-1.41791e-05
4.6861e-05
0.00080276
-0.000236196
0.00017222
0.00080945
-0.000375373
4.89067e-05
0.000943872
-0.000453411
3.38312e-05
0.000968704
-6.75242e-05
-6.55022e-05
0.000816618
-3.27639e-06
-1.80151e-05
0.000760338
6.02467e-05
5.89286e-05
0.000795816
0.000181909
2.91355e-05
0.000781489
5.09732e-06
0.000153781
0.000837022
-0.000184334
0.000122732
0.000860866
-0.000249646
0.000102445
0.000870591
-0.000195503
1.67589e-05
0.000968008
0.000295402
-0.00010198
0.000999277
-5.20424e-05
-3.62298e-05
0.000978338
-0.000189133
6.43244e-05
0.000885609
0.000287218
-1.10588e-05
0.000810464
0.00040487
1.47001e-05
0.000889664
0.000102652
9.82102e-05
0.000860355
-0.00020666
2.76393e-05
0.000727661
-0.000272979
2.4033e-05
0.000756129
-0.000236045
-3.05345e-05
0.00079783
-8.88551e-05
-6.13014e-05
0.000807988
0.000123458
-0.000113139
0.00085938
7.92235e-05
0.00012126
0.000944006
0.000316268
0.000143051
0.00110221
0.000533934
0.000189225
0.00111367
0.000338003
0.000293988
0.00104179
8.18102e-05
8.67664e-05
0.000978218
0.000110007
4.71972e-05
0.000922311
0.000212104
3.02977e-07
0.000932191
-0.000131564
-0.000149868
0.000932918
-0.000223438
-0.000118835
0.000954173
-0.000260375
-6.56713e-05
0.000923173
-0.000171124
-9.58817e-05
0.000845891
-1.75553e-05
-9.51371e-05
0.000872516
-0.000352931
7.17242e-05
-2.8006e-05
9.66465e-05
0.000867405
6.85239e-05
2.09336e-05
0.000930752
-0.000398182
0.000103705
0.000831527
-0.000111473
-2.88462e-06
0.000764658
3.24036e-05
3.89359e-06
0.000698199
-0.000302794
0.000152125
0.000670132
-0.000433886
0.000183189
0.000766834
-0.000419737
3.12561e-05
0.000791965
0.000155381
-6.34303e-05
0.000766637
9.46914e-05
3.04985e-05
0.00079945
-1.39702e-05
0.000100773
0.000826552
0.00021352
4.09186e-06
0.00076504
6.71247e-05
9.74485e-05
0.000784352
-0.000171106
0.000110672
0.000844568
-0.000291595
0.000199531
0.000883908
-0.000126754
0.000119162
0.000939716
0.000207935
-1.54455e-05
0.000931574
-0.000106575
-8.61204e-05
0.000885448
-0.000224979
1.48986e-05
0.000809744
0.000361844
-6.44962e-05
0.000795552
0.000462645
-3.61477e-05
0.000861947
3.89729e-05
0.000125508
0.000837406
-0.000137698
3.25057e-05
0.000736136
-8.39512e-05
-4.9746e-05
0.000722919
-0.000138895
-3.02047e-05
0.00068656
3.48149e-05
-6.02985e-05
0.000720994
0.000245346
-8.1562e-05
0.000870965
-0.000106449
0.000160944
0.000983417
0.000159475
0.000239537
0.00104039
0.000489046
0.000189334
0.000953021
0.000334414
0.000256204
0.000872735
0.000121531
0.000219849
0.000801829
0.000107515
0.00024833
0.000806153
4.70302e-05
2.63556e-05
0.000856335
-0.000266142
-4.02193e-05
0.000858694
-0.000205359
-1.97541e-05
0.000885142
-0.000284449
-8.8979e-05
0.000850545
-0.000115413
-5.75725e-06
0.000782028
0.00016151
-0.0001021
0.000807347
-0.000278482
9.39474e-05
-5.71867e-05
3.99976e-05
0.000827538
0.000107486
-6.18206e-06
0.000800595
-0.00033376
9.8594e-05
0.000791486
-0.00014469
3.16791e-05
0.000730646
4.07069e-05
5.77941e-05
0.000608853
-0.000236972
0.000190581
0.000604087
-0.000485946
0.000151797
0.000645968
-0.00028442
-4.23258e-05
0.000723377
0.000298398
-3.79612e-05
0.000766707
6.28291e-05
9.36446e-05
0.000769284
-8.683e-05
0.000120439
0.000746786
0.000199017
-2.69496e-05
0.000655169
0.000142955
3.59463e-05
0.000633889
-0.000209647
0.000141806
0.000665932
-0.000289451
0.000121333
0.000717866
-8.47082e-05
0.00011435
0.0008539
1.38463e-05
9.1695e-05
0.000877093
-0.000161649
-2.69898e-05
0.000827882
-0.000202618
-7.26659e-05
0.000758497
0.000341569
-1.81785e-05
0.000761974
0.000517349
-1.03836e-06
0.000828296
-3.11419e-05
6.78435e-05
0.000772296
-0.000139307
0.000142596
0.000706525
3.63458e-05
-9.69752e-05
0.000647349
-3.06466e-05
-3.37124e-05
0.000601524
0.000217222
-5.27149e-05
0.000757192
0.000203191
-1.96601e-05
0.00091797
-0.000245481
0.000173454
0.000913914
0.000120453
0.000184578
0.000851048
0.000597231
7.57884e-05
0.000821039
0.000214698
0.000182746
0.000844619
-0.000102248
0.000267798
0.000725957
4.61657e-05
0.000303468
0.000725612
-0.000105586
-3.16656e-05
0.000824201
-0.000362407
-8.8981e-05
0.000811572
-0.000186922
-8.10627e-05
0.000784543
-0.000247958
-5.70836e-06
0.000784318
-9.23471e-05
9.33654e-06
0.000737051
0.000334408
-8.33273e-05
0.000699188
-0.000193991
6.73593e-05
-7.10877e-05
2.29774e-05
0.000734928
0.000114157
9.01865e-05
0.000652686
-0.000254346
0.000140063
0.000654599
-0.00016765
1.30261e-05
0.000649869
0.000108226
3.34962e-05
0.000614404
-0.000209678
0.000161256
0.000595994
-0.000484876
0.000121244
0.00056695
-0.000136237
-4.6092e-05
0.000654465
0.000320564
-2.41426e-05
0.000692774
8.0284e-05
0.000106224
0.000628947
-1.97101e-05
6.14095e-05
0.000658818
0.000148789
-7.58113e-05
0.000656562
0.000142871
-4.89906e-06
0.000609904
-0.000228345
0.000157458
0.00059988
-0.000222388
0.000112668
0.000646561
-0.000128892
0.00013959
0.000709739
-8.33458e-05
4.86906e-05
0.000686799
-7.35927e-05
-9.24306e-05
0.000696515
-0.000148218
-0.000112531
0.000699976
0.000326989
-2.30371e-05
0.000718759
0.00053986
3.72847e-05
0.000799974
-0.000143186
5.44218e-05
0.000768052
-0.000154379
4.67162e-05
0.000672568
8.52825e-05
6.44568e-05
0.000590735
-3.32033e-05
0.000131737
0.000609592
0.000241855
3.19835e-05
0.000699943
5.56187e-05
0.000107916
0.000775116
-0.000305595
0.00023011
0.000801612
0.000171902
4.7016e-05
0.000758796
0.000654794
9.97023e-05
0.000747369
0.000101695
0.000217458
0.000742263
-0.000152524
0.000129281
0.000647391
8.69369e-05
9.54132e-05
0.000640554
-0.000180331
-3.9592e-05
0.000671718
-0.000389467
-7.84071e-05
0.000663636
-0.000151861
-4.97168e-05
0.000641574
-0.000229635
1.1485e-05
0.000654429
-8.69421e-05
-1.8772e-05
0.000680654
0.000332384
7.62507e-06
0.000609355
-0.000217654
5.93853e-05
-7.27365e-05
-2.03778e-07
0.000641128
9.76231e-05
5.22946e-05
0.000571959
-0.000177855
8.6192e-05
0.000551729
-0.000145636
-5.78719e-05
0.000603634
7.88148e-05
-1.47693e-06
0.000571798
-0.000276296
0.000152871
0.000488093
-0.000407941
0.000120104
0.000549979
-7.81209e-05
-2.6281e-05
0.000661525
0.000275728
-0.000105061
0.000623993
0.000174141
7.12061e-05
0.000542191
0.000125277
-1.94567e-05
0.000606789
0.000149596
-0.000147463
0.00059257
0.000217344
-4.08188e-05
0.000533084
-0.000203755
9.13777e-05
0.000563056
-0.000248047
0.00010161
0.000631421
-0.000191149
0.000156713
0.000661903
-9.63991e-05
9.6408e-06
0.000557605
1.47502e-05
-8.15967e-05
0.000508834
-0.000173304
-4.24638e-05
0.000579012
0.000252769
5.82887e-05
0.000630101
0.000517856
-4.71868e-06
0.000686108