/*--------------------------------*- C++ -*----------------------------------*\
  =========                 |
  \\      /  F ield         | OpenFOAM: The Open Source CFD Toolbox
   \\    /   O peration     | Website:  https://openfoam.org
    \\  /    A nd           | Version:  10
     \\/     M anipulation  |
\*---------------------------------------------------------------------------*/
FoamFile
{
    format      ascii;
    class       volScalarField;
    location    "11";
    object      pPrime2Mean;
}
// * * * * * * * * * * * * * * * * * * * * * * * * * * * * * * * * * * * * * //

dimensions      [0 4 -4 0 0 0 0];

internalField   nonuniform List<scalar> 
25600
(
1.14672e-06
6.63263e-07
2.17354e-06
1.25673e-05
2.43693e-06
1.46912e-06
5.33132e-06
1.8e-06
2.93716e-06
2.70979e-06
1.16614e-06
3.21114e-06
1.8153e-06
4.3904e-07
8.68479e-07
3.59881e-07
5.08457e-06
3.82075e-07
5.41247e-07
4.06156e-06
3.99991e-07
8.16066e-07
6.72548e-06
1.05534e-06
1.37026e-06
5.05947e-06
4.87413e-07
9.66949e-07
8.54431e-07
7.80933e-06
1.51126e-06
5.35845e-06
5.49176e-07
2.4582e-06
3.77892e-06
2.12745e-06
2.12252e-06
3.16762e-06
1.76092e-06
1.833e-06
1.61956e-06
4.31701e-07
7.12553e-07
9.15518e-06
4.76212e-07
1.82796e-06
3.25239e-06
3.89959e-07
3.73222e-07
3.28192e-07
1.34914e-06
4.22275e-07
7.19859e-07
1.62228e-06
1.59576e-06
5.36767e-07
1.24021e-06
2.09703e-06
4.31541e-07
7.83747e-06
1.21069e-06
1.48818e-06
6.48679e-06
6.55766e-07
6.88808e-07
1.92888e-06
3.08389e-07
4.8354e-07
5.747e-07
4.96561e-06
4.47974e-06
7.03096e-06
8.33192e-07
1.44721e-05
3.19918e-06
4.40249e-07
2.32948e-06
4.03247e-07
2.39899e-06
1.90014e-06
1.35534e-05
2.26709e-06
1.671e-06
3.66508e-06
5.97713e-07
1.29988e-06
1.02612e-05
6.26432e-06
4.87839e-06
5.07499e-06
7.68248e-07
1.17029e-06
1.22905e-06
3.61007e-07
4.00383e-07
1.0916e-06
3.80626e-06
8.22005e-07
3.14217e-06
8.43956e-06
1.84988e-06
2.09982e-06
7.50498e-06
3.82314e-06
5.9234e-07
5.73314e-06
2.75533e-06
4.45085e-07
1.3e-06
6.67053e-06
4.10851e-07
8.4131e-07
6.2947e-07
1.81815e-05
1.89103e-06
7.93962e-07
7.55821e-06
5.99337e-07
4.12333e-06
2.71751e-06
9.60889e-06
6.7934e-07
5.63377e-07
1.3934e-06
4.14765e-06
1.77618e-06
1.25987e-06
4.50019e-06
9.17227e-06
1.14544e-05
3.53252e-06
6.23564e-06
5.0998e-06
1.94611e-06
8.42332e-07
1.15526e-06
1.04448e-06
2.7662e-06
7.71458e-06
9.92008e-06
3.51456e-06
6.30458e-07
5.48686e-07
5.16785e-07
1.85128e-06
2.35286e-06
4.71765e-06
5.40852e-07
1.02135e-06
1.41086e-06
1.03389e-06
7.81573e-07
3.56141e-06
1.35926e-05
9.09538e-07
7.30512e-07
6.36313e-06
7.46917e-07
4.84196e-07
1.10211e-05
8.0749e-06
6.89782e-07
3.68408e-06
6.45458e-06
5.64407e-06
3.04682e-06
7.14174e-07
8.42673e-06
1.79763e-05
7.79572e-06
1.77137e-06
6.20179e-07
6.58255e-07
6.15027e-06
7.73979e-07
6.19908e-06
4.14431e-06
8.20395e-06
6.17874e-06
2.49408e-06
8.34054e-07
6.69017e-07
8.53365e-07
3.76838e-06
7.59893e-07
5.06151e-06
3.90364e-06
3.55423e-06
5.03267e-06
2.31576e-06
1.70357e-06
3.87935e-06
7.73607e-07
4.01343e-06
9.81647e-07
1.59078e-06
1.8275e-06
3.44728e-06
5.09803e-07
1.07939e-05
2.54381e-06
4.61578e-06
9.42842e-06
8.275e-06
5.03809e-06
1.63377e-06
3.47715e-06
1.93554e-05
1.51551e-05
1.62518e-06
9.5416e-07
2.86667e-06
1.79429e-06
2.4874e-06
1.9951e-06
4.51635e-06
2.88776e-06
9.40893e-06
5.93286e-06
1.06405e-06
1.29111e-06
3.60821e-06
1.03114e-06
1.06408e-06
3.68794e-06
7.01666e-07
4.70372e-06
6.72823e-07
9.06952e-07
1.07545e-06
1.62505e-06
2.07272e-06
2.07963e-06
3.12577e-06
9.26738e-07
3.51769e-06
1.1057e-06
2.99895e-06
1.42203e-06
1.20029e-05
3.4697e-06
4.47941e-06
1.22793e-05
6.73796e-06
2.9429e-06
1.83941e-06
1.99533e-06
8.0601e-06
2.51215e-06
5.92349e-06
7.33565e-06
1.44004e-06
1.43957e-06
9.78608e-07
2.90834e-06
2.3803e-06
2.09996e-06
5.36319e-06
1.14625e-06
5.26015e-06
6.2937e-06
3.20613e-06
1.66563e-06
1.17034e-06
8.58834e-06
1.30422e-06
5.09739e-06
3.52531e-06
8.55225e-06
1.28265e-06
8.45532e-07
9.98346e-07
1.07348e-06
9.8858e-07
9.68901e-07
2.92471e-06
1.13978e-06
1.38293e-06
1.59803e-05
2.44536e-05
3.49902e-06
1.66614e-06
6.43925e-06
3.12931e-06
2.89094e-06
1.50671e-06
4.68618e-06
1.61887e-05
7.10192e-06
3.51813e-06
1.40972e-06
8.88619e-06
3.61133e-06
1.23934e-06
2.52485e-06
3.38948e-06
2.9331e-06
4.65776e-06
1.4552e-06
2.65087e-06
1.33278e-06
4.64179e-06
1.57769e-05
4.49563e-06
1.46077e-06
4.81647e-06
2.73146e-06
2.97127e-06
1.5351e-06
2.31374e-06
1.12145e-06
6.92625e-06
4.40704e-06
1.13916e-06
2.9664e-06
9.74642e-06
5.37242e-06
8.20124e-06
2.97263e-05
1.86964e-05
8.7009e-06
6.7239e-06
1.50269e-05
2.27357e-06
1.62204e-06
2.07178e-06
6.32649e-06
1.76594e-05
9.31691e-06
3.98446e-06
2.73881e-06
2.79851e-06
1.93364e-06
3.03431e-06
2.00412e-06
1.71945e-06
3.49012e-06
1.58706e-05
4.9301e-06
5.59946e-06
3.71098e-06
3.53524e-06
1.73558e-05
7.8926e-06
2.57713e-06
1.11142e-05
2.61739e-06
3.91749e-06
2.462e-06
1.97775e-06
7.69779e-07
9.18782e-06
3.36926e-06
1.33411e-06
4.77211e-06
9.10638e-06
1.3571e-06
1.26314e-06
2.24788e-05
3.98668e-05
3.06018e-06
4.65847e-06
1.25278e-06
1.11055e-05
2.40309e-06
1.99624e-06
1.66424e-06
6.99797e-06
5.73317e-06
1.76135e-06
1.54517e-06
4.91583e-06
1.8771e-06
3.42783e-06
1.9363e-06
2.76785e-06
7.05452e-06
2.16956e-05
3.35228e-06
9.45995e-06
2.36577e-06
1.25533e-05
1.25007e-05
3.87778e-06
3.20135e-06
9.28361e-06
1.42294e-06
1.34205e-05
1.46847e-05
1.15297e-06
1.83802e-06
4.31402e-06
1.86697e-06
4.682e-06
1.26407e-05
2.03007e-05
3.60404e-06
2.28818e-06
3.50033e-06
5.82193e-06
1.23875e-05
3.04702e-06
3.50285e-06
1.66854e-05
2.84761e-06
3.13584e-06
1.79139e-06
1.4528e-05
1.51733e-05
1.65288e-06
4.37737e-06
8.98466e-06
4.35418e-06
2.423e-06
3.94325e-06
2.34498e-06
6.60108e-06
4.27684e-05
7.97022e-06
1.29982e-05
2.46334e-06
1.55725e-05
1.35912e-05
4.6474e-06
3.66179e-06
4.80499e-06
4.16624e-06
1.29175e-05
1.11711e-05
4.98467e-06
6.7711e-06
6.11752e-06
3.13378e-06
2.62505e-06
8.81344e-06
2.22649e-05
7.2686e-06
5.33367e-06
3.65853e-06
1.08668e-05
8.49287e-06
3.64684e-06
7.57277e-06
2.78669e-05
5.27623e-06
3.12808e-06
2.64505e-06
1.03377e-05
8.02745e-06
2.44402e-06
5.88771e-06
7.96259e-06
2.88899e-06
2.7253e-06
3.96411e-06
3.46471e-06
4.16514e-06
4.2374e-05
1.12228e-05
6.28717e-06
6.1042e-06
2.20013e-05
1.32662e-05
4.73215e-06
5.50162e-06
7.41872e-06
3.34708e-06
6.35438e-06
2.35596e-06
1.33923e-05
3.49265e-06
1.42039e-05
5.62299e-06
2.39395e-06
1.74199e-05
3.67627e-05
7.32545e-06
2.93183e-06
2.41883e-06
1.14398e-05
7.64368e-06
4.13964e-06
1.62886e-05
3.33425e-05
4.39482e-06
4.11616e-06
3.17204e-06
8.15709e-06
5.04865e-06
4.53089e-06
1.34815e-05
7.35123e-06
3.50531e-06
9.40769e-06
6.94181e-06
5.20274e-06
4.0193e-06
4.68223e-05
1.14403e-05
8.07336e-06
4.76644e-06
1.05812e-05
6.10861e-06
4.32718e-06
9.13484e-06
5.48995e-06
1.24904e-05
1.58004e-05
3.58614e-06
8.12461e-06
2.1041e-06
1.24466e-05
8.1582e-06
3.60922e-06
2.23053e-05
4.16945e-05
7.72192e-06
3.35161e-06
2.6738e-06
7.0968e-06
1.06545e-05
3.58266e-06
1.93215e-05
4.07434e-05
6.99986e-06
5.51506e-06
4.73947e-06
9.94172e-06
7.52255e-06
7.18546e-06
1.24115e-05
4.40435e-06
8.3246e-06
2.37057e-05
9.17694e-06
6.92617e-06
6.62174e-06
5.5283e-05
1.36122e-05
7.6571e-06
6.68183e-06
1.62248e-05
8.72029e-06
6.55093e-06
1.00978e-05
4.01974e-06
2.43988e-05
2.00059e-05
2.50636e-06
1.30553e-05
4.29694e-06
6.79817e-06
7.27501e-06
3.43502e-06
2.9009e-05
4.33568e-05
6.98494e-06
3.85226e-06
3.14631e-06
9.35956e-06
1.24374e-05
4.65273e-06
1.85437e-05
4.39531e-05
8.12244e-06
8.42175e-06
6.43343e-06
1.86152e-05
6.92095e-06
3.85929e-06
5.26238e-06
3.02836e-06
5.41645e-06
1.21354e-05
4.28105e-06
1.46764e-05
5.2676e-06
4.74348e-05
1.11263e-05
6.51823e-06
9.28723e-06
1.86605e-05
8.37931e-06
6.69291e-06
9.2296e-06
4.44155e-06
2.34019e-05
1.65368e-05
4.2727e-06
3.54333e-05
1.45818e-05
3.22316e-06
3.28044e-06
2.76457e-06
5.58216e-05
4.27377e-05
4.59138e-06
4.67026e-06
3.81401e-06
1.02472e-05
1.64315e-05
7.16814e-06
1.52489e-05
3.84778e-05
7.29709e-06
6.74989e-06
5.60817e-06
2.06123e-05
8.18763e-06
4.24827e-06
3.85264e-06
3.73921e-06
2.8458e-06
5.81358e-06
4.46412e-06
1.63995e-05
4.38928e-06
4.2135e-05
1.33982e-05
4.9782e-06
1.6778e-05
2.18265e-05
7.65253e-06
7.81652e-06
1.3754e-05
4.35176e-06
2.06722e-05
1.29426e-05
1.42595e-05
5.28354e-05
2.61138e-05
3.18764e-06
5.14488e-06
3.93482e-06
6.51393e-05
2.46791e-05
2.79132e-06
5.55096e-06
4.55605e-06
1.17463e-05
2.02244e-05
8.85722e-06
1.95123e-05
4.58431e-05
1.37788e-05
6.24923e-06
6.22177e-06
1.69002e-05
9.81684e-06
5.20049e-06
4.66988e-06
4.92987e-06
4.28088e-06
7.63325e-06
6.94022e-06
1.59651e-05
6.67486e-06
6.55546e-05
2.18117e-05
4.53772e-06
2.70164e-05
2.51203e-05
6.96005e-06
7.61488e-06
2.12219e-05
7.82527e-06
2.30019e-05
1.25191e-05
2.34265e-05
5.14627e-05
3.33479e-05
8.88122e-06
5.58945e-06
4.29329e-06
5.75228e-05
1.55884e-05
4.25779e-06
8.76839e-06
5.58916e-06
1.3475e-05
1.69682e-05
1.14043e-05
1.11293e-05
3.3289e-05
1.528e-05
8.97205e-06
1.15003e-05
9.02871e-06
6.25596e-06
5.26542e-06
5.05612e-06
6.05129e-06
4.20457e-06
1.37718e-05
9.17085e-06
1.85083e-05
1.36687e-05
9.51447e-05
2.73258e-05
3.98585e-06
3.00441e-05
1.92828e-05
4.77204e-06
5.63875e-06
3.15083e-05
9.44676e-06
4.30852e-05
1.70234e-05
2.6821e-05
5.52354e-05
4.52217e-05
1.51792e-05
9.31537e-06
5.60903e-06
4.12695e-05
1.43558e-05
6.48619e-06
1.10303e-05
6.55827e-06
1.63703e-05
1.64313e-05
1.13234e-05
6.63019e-06
2.12053e-05
1.28203e-05
1.84758e-05
2.35129e-05
6.44344e-06
4.97876e-06
5.98792e-06
3.98022e-06
6.14973e-06
5.95787e-06
2.50468e-05
9.39415e-06
2.00496e-05
2.01192e-05
0.000114248
2.83651e-05
4.33048e-06
3.2261e-05
2.18267e-05
6.97497e-06
7.57214e-06
5.17854e-05
1.02411e-05
7.52212e-05
1.61999e-05
3.24439e-05
6.89159e-05
5.36081e-05
1.01338e-05
1.88464e-05
9.59838e-06
3.06826e-05
1.40077e-05
9.09624e-06
1.46258e-05
8.32282e-06
1.86354e-05
2.16724e-05
9.33844e-06
6.03656e-06
2.68817e-05
1.97598e-05
1.40527e-05
2.39063e-05
5.79898e-06
1.27165e-05
8.51147e-06
4.39444e-06
9.12353e-06
7.71098e-06
4.17937e-05
9.24492e-06
2.21882e-05
2.13781e-05
0.00010316
2.33164e-05
4.99165e-06
2.7189e-05
2.28816e-05
1.62334e-05
8.95388e-06
7.57235e-05
9.71751e-06
0.000121816
1.61042e-05
3.87789e-05
8.80105e-05
5.66771e-05
9.80837e-06
1.79345e-05
1.19775e-05
2.8629e-05
1.10601e-05
8.49191e-06
1.97676e-05
9.46101e-06
1.65553e-05
3.32301e-05
8.74246e-06
5.34345e-06
4.29543e-05
3.16936e-05
8.50938e-06
1.55985e-05
5.2204e-06
1.80186e-05
6.37867e-06
5.76344e-06
1.71501e-05
8.20962e-06
4.14661e-05
9.50878e-06
2.42743e-05
2.20869e-05
8.25593e-05
1.77474e-05
6.93414e-06
1.79757e-05
1.52252e-05
1.95148e-05
7.25921e-06
9.35741e-05
6.13553e-06
0.000170547
1.55981e-05
5.55001e-05
0.000111444
6.54335e-05
1.44877e-05
1.01645e-05
1.09899e-05
3.917e-05
1.50295e-05
8.50889e-06
2.18939e-05
9.80205e-06
1.36004e-05
4.74409e-05
1.04894e-05
5.26199e-06
4.89183e-05
3.81149e-05
1.02651e-05
1.21434e-05
5.16038e-06
1.97028e-05
4.99963e-06
6.47843e-06
3.88049e-05
6.74014e-06
3.49732e-05
9.69636e-06
2.68511e-05
2.19374e-05
7.85264e-05
1.35413e-05
9.59945e-06
1.62299e-05
1.6086e-05
1.6878e-05
9.11282e-06
9.39249e-05
5.63683e-06
0.000220537
1.99171e-05
6.84539e-05
0.000105803
6.38173e-05
2.52179e-05
9.56381e-06
1.08864e-05
3.93722e-05
1.42379e-05
8.69019e-06
1.94822e-05
9.22264e-06
1.26037e-05
6.67878e-05
1.19307e-05
5.1043e-06
5.84576e-05
4.20637e-05
1.20456e-05
1.16042e-05
4.58931e-06
1.97951e-05
5.33097e-06
5.1713e-06
7.06008e-05
8.65623e-06
4.80362e-05
1.08699e-05
2.59321e-05
2.64507e-05
9.40546e-05
1.47173e-05
1.05148e-05
1.93964e-05
1.92681e-05
1.96987e-05
1.24245e-05
0.00011197
6.74415e-06
0.000272406
2.53951e-05
7.62729e-05
8.66647e-05
6.08852e-05
4.60685e-05
9.76017e-06
1.02317e-05
3.14e-05
1.13274e-05
9.36429e-06
2.12651e-05
9.71018e-06
1.73659e-05
7.08864e-05
1.20845e-05
5.33017e-06
8.31533e-05
4.35676e-05
1.32441e-05
1.20354e-05
4.61752e-06
2.44059e-05
4.96795e-06
5.77213e-06
0.000107332
1.0819e-05
5.95129e-05
1.33369e-05
2.66472e-05
2.88836e-05
0.000101523
1.72892e-05
1.272e-05
1.95072e-05
1.60013e-05
2.39589e-05
1.25599e-05
0.000135338
9.16973e-06
0.00031053
2.83648e-05
6.06488e-05
6.73653e-05
7.92545e-05
5.49303e-05
1.10702e-05
1.14224e-05
2.9189e-05
1.0813e-05
1.03193e-05
2.13931e-05
1.0957e-05
2.24912e-05
6.28014e-05
8.96455e-06
6.66422e-06
0.000104757
4.29769e-05
1.31038e-05
1.28569e-05
6.81869e-06
2.94358e-05
5.40052e-06
9.38557e-06
0.000112978
9.86398e-06
6.25241e-05
1.39449e-05
2.7867e-05
3.064e-05
0.000112481
1.99244e-05
1.37774e-05
1.78183e-05
1.44774e-05
2.25819e-05
1.10039e-05
0.000154236
1.21764e-05
0.000331725
2.74879e-05
5.04968e-05
7.2015e-05
0.000124946
5.56335e-05
1.29707e-05
1.08254e-05
3.20221e-05
1.13412e-05
1.04207e-05
1.99353e-05
1.00656e-05
2.35234e-05
6.04635e-05
9.17964e-06
8.01306e-06
0.000104771
3.79413e-05
1.69044e-05
1.62047e-05
1.41389e-05
4.53737e-05
1.15507e-05
1.45212e-05
9.85558e-05
1.14946e-05
5.397e-05
1.72824e-05
3.9236e-05
2.31526e-05
0.000112917
1.70625e-05
1.80514e-05
1.28061e-05
1.37362e-05
2.95054e-05
9.41026e-06
0.000139709
1.62221e-05
0.000385315
4.09261e-05
5.2332e-05
7.47892e-05
0.000144265
5.34683e-05
1.60422e-05
1.29848e-05
2.79788e-05
1.01854e-05
8.00055e-06
1.5537e-05
1.12209e-05
1.77588e-05
7.45266e-05
7.13406e-06
9.63287e-06
0.000114873
4.40959e-05
1.36308e-05
1.19545e-05
1.43805e-05
4.46998e-05
9.66306e-06
8.51481e-06
6.79081e-05
1.23243e-05
5.71031e-05
1.69961e-05
3.73412e-05
1.9831e-05
0.000116004
2.0255e-05
1.86829e-05
1.32412e-05
1.53396e-05
3.06174e-05
9.66198e-06
0.000131445
1.12436e-05
0.000392128
4.65538e-05
7.78915e-05
9.44189e-05
0.000163595
6.3595e-05
1.31994e-05
1.23761e-05
2.87156e-05
9.91075e-06
7.77545e-06
1.58393e-05
8.37062e-06
1.61047e-05
6.18719e-05
9.05096e-06
6.84859e-06
9.88054e-05
3.37318e-05
1.77286e-05
1.65173e-05
1.90678e-05
5.63915e-05
9.65906e-06
8.952e-06
8.05471e-05
1.22088e-05
5.05165e-05
1.99842e-05
4.46919e-05
1.43487e-05
8.33812e-05
1.34704e-05
2.5765e-05
1.27986e-05
1.18052e-05
4.07424e-05
1.13282e-05
0.000106617
1.24719e-05
0.00042387
6.10077e-05
6.6986e-05
9.00366e-05
0.000157521
5.5207e-05
1.75644e-05
1.55156e-05
2.32975e-05
1.00519e-05
1.02845e-05
1.07342e-05
1.34196e-05
1.13675e-05
7.84528e-05
6.28592e-06
1.03299e-05
0.000121382
4.43908e-05
1.1835e-05
8.66803e-06
8.70922e-06
3.8117e-05
4.74447e-06
6.24847e-06
6.95705e-05
1.4677e-05
7.11111e-05
1.57349e-05
3.56768e-05
1.68696e-05
9.49706e-05
1.87059e-05
1.71341e-05
1.3547e-05
1.34005e-05
3.02157e-05
1.07415e-05
0.000134624
6.1256e-06
0.000365037
4.23697e-05
7.472e-05
0.000110476
0.00019163
6.71481e-05
1.17759e-05
9.24869e-06
3.29666e-05
1.0633e-05
8.93204e-06
1.65493e-05
9.01728e-06
1.82178e-05
4.84502e-05
1.29489e-05
4.45648e-06
8.59623e-05
2.65941e-05
2.00464e-05
1.62533e-05
1.89507e-05
6.025e-05
9.41027e-06
1.10908e-05
0.000106177
1.25219e-05
5.21027e-05
2.06574e-05
5.17014e-05
1.17544e-05
6.47227e-05
1.02578e-05
2.83614e-05
1.23496e-05
1.10483e-05
4.65225e-05
1.08888e-05
9.77308e-05
1.14717e-05
0.000419394
6.17613e-05
4.6148e-05
7.60759e-05
0.000143593
4.40176e-05
2.01619e-05
1.69243e-05
2.03631e-05
8.97567e-06
1.09377e-05
7.75519e-06
1.82129e-05
8.52247e-06
9.14817e-05
5.71255e-06
1.57606e-05
0.000139173
6.05862e-05
9.62014e-06
6.35551e-06
4.04057e-06
2.31809e-05
4.95805e-06
5.87505e-06
5.67107e-05
1.89794e-05
8.65687e-05
1.44906e-05
2.75989e-05
2.07924e-05
0.000110799
2.78582e-05
1.21835e-05
1.58208e-05
1.78357e-05
2.21024e-05
1.24879e-05
0.000149175
5.71229e-06
0.00030996
2.92676e-05
8.48329e-05
0.000124078
0.00019875
7.72081e-05
1.09115e-05
8.65626e-06
4.61752e-05
1.30496e-05
8.30586e-06
2.1631e-05
6.36369e-06
2.42428e-05
5.26957e-05
1.06423e-05
5.312e-06
9.11917e-05
3.07725e-05
1.66521e-05
1.30837e-05
1.38495e-05
4.85605e-05
7.13637e-06
9.54385e-06
9.46153e-05
1.10222e-05
5.27281e-05
1.8163e-05
4.90798e-05
1.19045e-05
6.84546e-05
1.11941e-05
2.58539e-05
1.12447e-05
1.01894e-05
4.30643e-05
1.0345e-05
9.99935e-05
8.77291e-06
0.000387153
5.27927e-05
5.08084e-05
7.85282e-05
0.000143339
4.65921e-05
1.74649e-05
1.29457e-05
2.36303e-05
8.06566e-06
9.67951e-06
8.48037e-06
1.55338e-05
9.20353e-06
2.79975e-06
5.25577e-07
2.41211e-06
6.82742e-06
5.01517e-07
4.9335e-06
4.2576e-06
3.03638e-06
6.08196e-06
5.90558e-06
2.8961e-06
4.52402e-06
3.69234e-07
2.63407e-06
2.04535e-06
3.47823e-07
3.83787e-06
6.71697e-07
3.70996e-07
3.60665e-06
4.02188e-07
1.11665e-06
7.36771e-06
1.49664e-06
2.63035e-06
6.86813e-06
4.87965e-07
3.53601e-06
1.47615e-06
4.95992e-06
2.50766e-06
4.02352e-06
4.60498e-07
2.91058e-06
3.8334e-06
2.28715e-06
2.19463e-06
5.18349e-06
2.84404e-06
7.73316e-07
1.67322e-06
9.86316e-07
9.95454e-07
5.23284e-06
1.70705e-06
4.09903e-06
1.73261e-06
3.71686e-07
5.96323e-07
6.315e-07
7.29619e-07
4.89774e-07
3.43314e-07
3.11523e-06
2.93102e-06
5.96762e-07
2.4503e-06
1.06172e-06
4.5597e-07
7.91211e-06
2.19133e-06
3.04572e-06
8.27774e-06
8.74084e-07
5.58848e-07
4.21107e-07
6.4506e-07
4.75881e-07
3.7445e-07
4.3486e-06
5.5526e-06
4.57807e-06
5.77278e-07
1.47076e-05
4.40524e-06
1.23691e-06
4.33063e-06
8.99284e-07
7.85764e-07
6.62712e-07
4.39756e-06
4.82926e-07
9.86244e-07
2.12465e-06
9.82549e-07
5.13756e-07
4.25886e-06
3.27211e-06
4.66836e-06
5.98295e-06
1.32343e-06
3.26255e-06
5.60257e-06
3.04231e-06
2.97736e-06
3.86943e-06
4.07481e-06
5.29483e-07
2.38509e-06
1.05103e-05
5.00623e-06
4.93548e-06
1.02674e-05
5.61102e-06
1.0935e-06
4.17255e-06
2.5379e-06
3.95153e-07
2.79991e-06
5.99328e-06
4.43793e-07
2.39953e-06
2.05043e-06
1.17518e-05
1.22808e-06
1.45627e-06
1.3969e-05
1.34395e-06
6.15333e-07
2.62261e-06
2.43408e-06
5.15165e-07
4.83542e-07
1.00216e-06
4.14256e-06
2.27366e-06
5.31857e-07
2.24604e-06
3.7333e-06
2.40693e-06
5.40544e-07
1.9983e-06
3.09091e-06
2.27779e-06
5.83114e-07
2.10265e-06
1.02901e-06
1.03064e-06
2.72142e-06
4.21845e-06
1.67947e-06
6.36333e-07
4.89518e-07
5.90428e-07
5.67791e-07
3.01714e-06
7.17607e-06
4.15432e-07
1.74119e-06
2.60727e-06
6.95104e-07
1.22221e-06
2.76927e-06
1.81581e-05
9.67956e-07
3.60783e-06
1.08551e-05
1.40262e-06
9.25082e-07
4.64286e-06
1.5809e-06
5.2701e-07
1.18334e-06
2.84589e-06
5.54527e-06
4.33499e-06
9.8254e-07
1.41818e-06
1.89959e-06
1.07646e-06
9.19927e-06
6.35979e-07
4.06668e-06
8.41462e-07
5.03115e-06
8.77698e-06
1.78192e-06
2.5678e-06
2.81101e-06
3.19477e-06
4.86676e-06
3.29474e-06
5.36398e-06
1.34645e-05
5.70886e-06
8.13897e-06
3.40766e-06
5.80434e-06
7.11164e-06
1.94989e-06
1.88614e-06
5.35857e-06
7.73824e-07
4.1526e-06
8.55988e-07
5.70876e-06
7.18422e-06
7.37921e-07
1.38521e-06
5.22306e-06
3.37371e-06
5.18955e-07
1.39161e-06
2.31486e-06
4.65098e-06
2.28254e-06
6.46217e-07
2.7605e-06
7.16141e-07
4.81944e-06
5.60189e-06
1.57733e-06
8.3444e-07
3.61662e-06
3.39992e-06
5.8014e-06
1.60313e-06
3.73433e-06
2.04389e-06
9.59907e-07
1.2239e-06
2.39437e-06
7.63875e-07
2.92654e-06
1.24987e-06
1.36952e-06
5.44315e-06
5.61826e-07
1.79809e-06
2.639e-06
6.49807e-06
5.18316e-06
4.02932e-06
8.62404e-06
3.83853e-06
1.2128e-05
2.18499e-06
1.87147e-06
1.56358e-06
5.7868e-06
4.03792e-06
1.76292e-06
8.19768e-06
4.99679e-06
3.6489e-06
9.91474e-07
7.76064e-06
7.45686e-06
9.51835e-07
1.28777e-05
8.11068e-06
9.72832e-07
1.4529e-06
1.2349e-06
5.75926e-06
3.58964e-06
1.99652e-06
2.29114e-06
1.73225e-06
5.84672e-06
3.45389e-06
2.32448e-06
3.10002e-06
4.38615e-06
1.36674e-06
4.76665e-06
6.05699e-06
2.61681e-06
6.71913e-06
2.44906e-06
1.83782e-06
1.86007e-06
2.40911e-06
1.99185e-06
2.7794e-06
1.09053e-05
1.3938e-06
8.08276e-07
6.82126e-06
7.66168e-06
5.76935e-06
6.83996e-06
5.68472e-06
1.47669e-06
1.2804e-06
6.68343e-06
3.26181e-05
3.20453e-05
7.2497e-06
2.85988e-06
1.49241e-06
4.92665e-06
1.49918e-06
2.00358e-06
2.14803e-06
4.49728e-06
2.85281e-06
4.80795e-06
2.53394e-06
1.60506e-06
3.1175e-06
8.96734e-06
3.0817e-05
1.6169e-05
1.49438e-06
7.78721e-06
3.93873e-06
2.41597e-06
2.08397e-06
1.20368e-06
8.9299e-07
4.78489e-06
1.02951e-06
3.36386e-06
1.30527e-05
2.28734e-05
1.50558e-06
7.88813e-07
4.37128e-06
1.04282e-05
2.50765e-06
1.35742e-05
2.4195e-06
8.86365e-06
3.77298e-06
1.41535e-05
4.53145e-05
4.30467e-05
8.21635e-06
7.31932e-06
8.44799e-06
1.31921e-06
1.87651e-06
3.21427e-06
8.72055e-06
2.15681e-06
1.67647e-06
9.80405e-06
2.31082e-06
4.10735e-06
3.19456e-06
2.19268e-05
3.69325e-05
7.3713e-06
2.10725e-06
5.4232e-06
2.80046e-06
1.36872e-06
1.21467e-06
2.11746e-06
8.93886e-07
7.27827e-06
1.22152e-06
2.61198e-06
9.89197e-06
1.85782e-05
1.73122e-06
3.53941e-06
2.16218e-05
2.10297e-05
1.08645e-05
2.41448e-06
7.75235e-06
1.89005e-05
2.32156e-06
3.4437e-06
1.18369e-05
1.11692e-05
1.7331e-06
1.4285e-05
3.52175e-06
2.03064e-06
4.19251e-06
3.14102e-06
2.54205e-06
2.13651e-06
4.35157e-06
1.95551e-05
5.49594e-06
1.99068e-06
1.16425e-05
3.16994e-05
2.32935e-05
2.92595e-06
2.17634e-06
1.31716e-05
7.6611e-06
1.20266e-06
2.79992e-06
4.05774e-06
5.84933e-06
1.89536e-06
5.69881e-06
1.07676e-05
2.61132e-05
3.45091e-05
4.29957e-06
3.8103e-06
7.32507e-06
1.40681e-05
4.08364e-05
3.39551e-06
1.98065e-05
3.12483e-05
3.44715e-06
5.30154e-06
1.76271e-05
3.21851e-05
8.20444e-06
1.0912e-05
6.33657e-06
3.59966e-06
4.44151e-06
1.97224e-06
1.02104e-05
6.3863e-06
8.02046e-06
3.4141e-05
1.51564e-05
2.80885e-06
1.29532e-05
4.98807e-05
3.01815e-05
5.03776e-06
4.09374e-06
1.10864e-05
2.76628e-06
3.81333e-06
5.87667e-06
5.36381e-06
4.19872e-06
4.16711e-06
4.87536e-06
7.94655e-06
2.49356e-05
2.76859e-05
3.03791e-06
3.0161e-06
7.18632e-06
3.8567e-05
2.63628e-05
5.73325e-06
9.08342e-06
1.9658e-05
3.49658e-06
4.12069e-06
1.09986e-05
2.69362e-05
5.23674e-06
9.27492e-06
3.5599e-06
2.90102e-06
3.74876e-06
1.90664e-06
7.87628e-06
2.45951e-06
4.24352e-06
3.23148e-05
1.9959e-05
3.34208e-06
1.96019e-05
5.12858e-05
1.28764e-05
4.55291e-06
4.13199e-06
1.81179e-05
4.60169e-06
4.95895e-06
4.78477e-06
1.4623e-05
6.45521e-06
4.09425e-06
5.81347e-06
5.99215e-06
2.8282e-05
3.38762e-05
4.48291e-06
4.78423e-06
1.01554e-05
4.45888e-05
3.50235e-05
3.60485e-06
1.23478e-05
2.29232e-05
3.49738e-06
3.53497e-06
6.30479e-06
2.3762e-05
6.91363e-06
2.00513e-06
2.86893e-06
3.16959e-06
3.96912e-06
3.83784e-06
1.2672e-05
1.8978e-06
3.38688e-06
5.89234e-05
3.22451e-05
3.22814e-06
1.36129e-05
4.27567e-05
7.18442e-06
3.84128e-06
8.45737e-06
2.72558e-05
3.58782e-06
1.43929e-05
7.5043e-06
2.14351e-05
1.13561e-05
3.31482e-06
3.89234e-06
5.15039e-06
1.84368e-05
2.51666e-05
5.05519e-06
5.25725e-06
6.75834e-06
3.98023e-05
5.96174e-05
3.74023e-06
8.02784e-06
2.96447e-05
8.39135e-06
2.92466e-06
2.98704e-06
2.4784e-05
1.26475e-05
3.2496e-06
5.87216e-06
4.84296e-06
3.87438e-06
2.01853e-05
2.12616e-05
2.34931e-06
3.89712e-06
5.2451e-05
2.01711e-05
5.00163e-06
1.79081e-05
4.30983e-05
5.31124e-06
4.44179e-06
1.36579e-05
3.04003e-05
3.11916e-06
2.64057e-05
1.34635e-05
2.06656e-05
1.23084e-05
4.26342e-06
4.04931e-06
4.78608e-06
1.17766e-05
1.309e-05
4.06541e-06
4.65572e-06
5.59805e-06
5.37333e-05
3.99487e-05
8.00799e-06
7.90113e-06
4.24389e-05
1.14999e-05
3.38677e-06
5.42356e-06
3.75366e-05
1.42211e-05
4.09134e-06
1.35493e-05
1.49779e-05
1.32772e-05
3.58988e-05
2.09084e-05
3.84271e-06
3.6798e-06
4.34664e-05
1.49228e-05
6.19567e-06
2.10247e-05
3.72104e-05
4.73122e-06
6.66418e-06
1.91164e-05
3.75543e-05
3.99374e-06
3.84639e-05
7.08621e-06
3.2479e-05
1.4428e-05
4.90245e-06
3.65333e-06
2.75719e-06
2.05506e-05
1.59703e-05
3.52402e-06
3.6247e-06
4.35257e-06
4.49233e-05
2.94345e-05
1.60488e-05
4.79101e-06
4.40842e-05
1.31832e-05
4.65151e-06
5.59065e-06
3.39898e-05
1.23838e-05
4.56462e-06
2.07385e-05
2.5422e-05
1.55102e-05
3.34278e-05
2.35437e-05
3.68263e-06
4.48365e-06
3.33192e-05
1.24108e-05
6.0415e-06
1.99563e-05
2.67597e-05
6.33057e-06
5.9867e-06
3.01948e-05
4.87397e-05
4.29862e-06
4.95521e-05
4.51599e-06
3.16522e-05
1.74161e-05
5.89311e-06
3.04272e-06
2.54302e-06
3.16706e-05
1.90169e-05
3.02132e-06
3.09661e-06
3.95834e-06
3.96683e-05
3.63318e-05
7.15308e-06
8.6392e-06
6.35605e-05
2.68955e-05
5.81137e-06
5.98262e-06
2.91188e-05
1.39615e-05
4.34426e-06
3.12571e-05
3.01342e-05
1.26133e-05
3.81234e-05
3.88412e-05
4.61106e-06
8.87285e-06
3.36684e-05
1.2816e-05
5.76324e-06
2.23094e-05
2.84717e-05
5.72791e-06
4.71222e-06
5.20857e-05
6.33695e-05
6.06986e-06
5.13827e-05
3.08556e-06
3.19318e-05
2.28283e-05
6.17125e-06
5.23566e-06
4.95055e-06
6.0739e-05
2.87076e-05
3.95805e-06
5.07865e-06
5.26049e-06
3.99176e-05
3.73183e-05
6.6704e-06
9.31341e-06
7.15952e-05
2.48948e-05
9.92554e-06
5.96442e-06
2.14483e-05
1.46689e-05
4.3226e-06
2.86769e-05
1.95543e-05
1.08058e-05
4.48793e-05
4.85729e-05
6.3299e-06
2.09608e-05
2.22903e-05
1.14399e-05
5.74175e-06
2.54506e-05
2.09561e-05
6.16289e-06
5.06892e-06
7.74295e-05
7.40333e-05
1.13589e-05
5.9531e-05
3.93644e-06
3.255e-05
3.66733e-05
7.6421e-06
8.59418e-06
4.63608e-06
7.28278e-05
3.0026e-05
4.62227e-06
5.17829e-06
3.93145e-06
2.9277e-05
4.3222e-05
8.63369e-06
8.07276e-06
8.43571e-05
2.30226e-05
1.54326e-05
6.12538e-06
3.22858e-05
1.47761e-05
6.19689e-06
2.28437e-05
1.75972e-05
1.81469e-05
6.50261e-05
6.79738e-05
5.23638e-06
3.5761e-05
1.9008e-05
1.75125e-05
5.82748e-06
2.62525e-05
1.43985e-05
8.5974e-06
1.22162e-05
0.000125371
9.7976e-05
1.66525e-05
6.6217e-05
5.45524e-06
2.94266e-05
5.22209e-05
7.90303e-06
1.76273e-05
4.35137e-06
8.07795e-05
3.62133e-05
5.12052e-06
5.55868e-06
4.78191e-06
2.53128e-05
4.4645e-05
8.94715e-06
5.6846e-06
9.1268e-05
2.34986e-05
2.03941e-05
6.77694e-06
4.45004e-05
1.45306e-05
9.29036e-06
2.22766e-05
1.83584e-05
2.55727e-05
9.0337e-05
8.60665e-05
5.95115e-06
5.31804e-05
1.47875e-05
1.89266e-05
7.02081e-06
2.18701e-05
6.53725e-06
1.26888e-05
2.12069e-05
0.000174798
0.000120699
2.56888e-05
9.20081e-05
1.0698e-05
2.56513e-05
6.06986e-05
8.03903e-06
2.52435e-05
5.90553e-06
8.87657e-05
3.86449e-05
5.73537e-06
6.9882e-06
6.13241e-06
2.26451e-05
4.24686e-05
8.47339e-06
4.45663e-06
9.50136e-05
2.29422e-05
2.5576e-05
6.01643e-06
5.21597e-05
1.74674e-05
1.15999e-05
2.22552e-05
1.92125e-05
2.7985e-05
0.000106614
0.000104471
8.37208e-06
7.36622e-05
7.55664e-06
1.43502e-05
8.05885e-06
1.78289e-05
5.01446e-06
1.11449e-05
2.48564e-05
0.000191743
0.000155321
3.31405e-05
0.000126319
2.38109e-05
3.22022e-05
8.85187e-05
8.87899e-06
2.68101e-05
8.71957e-06
0.000107156
4.16269e-05
6.7279e-06
6.6904e-06
7.14237e-06
2.16605e-05
4.26519e-05
9.46188e-06
4.34568e-06
9.12394e-05
1.98114e-05
3.83062e-05
5.64971e-06
4.55377e-05
1.81314e-05
1.39774e-05
3.05685e-05
2.03321e-05
2.7535e-05
0.000124878
0.000126014
9.34188e-06
6.56192e-05
7.27982e-06
1.36413e-05
7.57507e-06
1.74854e-05
6.79587e-06
1.09131e-05
2.04978e-05
0.000206717
0.000184676
4.58841e-05
0.000155485
4.03473e-05
3.30114e-05
0.000111051
1.10104e-05
3.33603e-05
9.32659e-06
0.000123425
4.03984e-05
8.67206e-06
5.90201e-06
6.28317e-06
1.84106e-05
5.2208e-05
1.06198e-05
4.67927e-06
8.49513e-05
1.69426e-05
4.28465e-05
5.79599e-06
3.2146e-05
1.84893e-05
1.78399e-05
3.9479e-05
1.94587e-05
2.76442e-05
0.000141237
0.000130522
9.80244e-06
4.7462e-05
1.52662e-05
2.18011e-05
7.30302e-06
1.82479e-05
6.78304e-06
1.26087e-05
2.42002e-05
0.000273334
0.000207366
6.72819e-05
0.000173087
4.88082e-05
2.26594e-05
0.000121214
1.14845e-05
4.34689e-05
6.09963e-06
0.000110744
3.28201e-05
8.98722e-06
5.2924e-06
6.6108e-06
1.53147e-05
5.08608e-05
1.75581e-05
9.43371e-06
7.17641e-05
1.2145e-05
3.86326e-05
6.18144e-06
1.93494e-05
1.52058e-05
1.99965e-05
4.09242e-05
2.10554e-05
2.06314e-05
0.000137029
0.000129905
1.55699e-05
5.15263e-05
1.96635e-05
2.13667e-05
1.02925e-05
2.22354e-05
6.44716e-06
2.03879e-05
2.35435e-05
0.000297905
0.000189464
8.5058e-05
0.000199586
6.85744e-05
1.68767e-05
0.000129093
1.09711e-05
6.99321e-05
6.78687e-06
9.76914e-05
2.43115e-05
7.80948e-06
5.1784e-06
9.61687e-06
1.20555e-05
4.75798e-05
1.74718e-05
1.04164e-05
7.12343e-05
1.17668e-05
2.74055e-05
5.37811e-06
1.52919e-05
1.13419e-05
1.83195e-05
4.77399e-05
2.12478e-05
1.54368e-05
0.000142616
0.00013829
2.04531e-05
5.73702e-05
2.24492e-05
1.67453e-05
1.16323e-05
2.60839e-05
6.97347e-06
2.25794e-05
3.22839e-05
0.000314143
0.000165922
7.96116e-05
0.000197185
7.29567e-05
1.99721e-05
0.000146235
1.36961e-05
7.13949e-05
6.13242e-06
0.000112981
1.99178e-05
7.76781e-06
8.21084e-06
1.13485e-05
9.61021e-06
4.59768e-05
2.09483e-05
1.49314e-05
5.98656e-05
9.47381e-06
2.64352e-05
5.74121e-06
9.76057e-06
7.19896e-06
1.50202e-05
4.63865e-05
1.13407e-05
1.07354e-05
0.000133033
0.000122276
2.8289e-05
6.52321e-05
2.04942e-05
1.02252e-05
1.24267e-05
1.76034e-05
1.21618e-05
2.58232e-05
3.84141e-05
0.000337538
0.000147448
8.66105e-05
0.000195612
6.99804e-05
2.28995e-05
0.00015813
1.68415e-05
7.06665e-05
9.35056e-06
0.000107883
1.53654e-05
1.14514e-05
9.89557e-06
1.43954e-05
7.74757e-06
6.13785e-05
1.7239e-05
1.31425e-05
6.08137e-05
1.14844e-05
1.82264e-05
5.23542e-06
1.01171e-05
9.4639e-06
2.14895e-05
4.6922e-05
1.18974e-05
1.22108e-05
0.000137902
0.000126631
2.46872e-05
5.58188e-05
2.36373e-05
1.15859e-05
1.08812e-05
1.50941e-05
1.19942e-05
2.25078e-05
4.44708e-05
0.000364799
0.000150832
8.1952e-05
0.000175616
5.72402e-05
3.21647e-05
0.000181998
1.96181e-05
6.68995e-05
9.14486e-06
0.000107779
1.75985e-05
1.07096e-05
1.17234e-05
1.29449e-05
9.1695e-06
5.54304e-05
2.21481e-05
2.0364e-05
4.40458e-05
8.309e-06
2.1448e-05
5.67482e-06
6.02966e-06
6.63354e-06
1.55499e-05
3.16348e-05
7.95572e-06
8.89795e-06
0.000116089
0.000105426
2.91432e-05
6.14882e-05
2.00368e-05
9.34577e-06
1.69365e-05
1.19741e-05
1.54604e-05
2.6267e-05
3.73289e-05
0.000306573
0.00013373
9.688e-05
0.000196204
7.43475e-05
2.82143e-05
0.000160138
1.77495e-05
8.11225e-05
7.23806e-06
9.26007e-05
1.34511e-05
1.14957e-05
1.00787e-05
1.70635e-05
7.79487e-06
7.34463e-05
1.21986e-05
1.24602e-05
5.86489e-05
1.59104e-05
1.18699e-05
5.16814e-06
9.97241e-06
1.29195e-05
2.55716e-05
4.66211e-05
1.17443e-05
1.21636e-05
0.000139869
0.000124779
2.08762e-05
4.3221e-05
3.56763e-05
1.69105e-05
1.18995e-05
1.64195e-05
8.78566e-06
1.73953e-05
5.23334e-05
0.000343594
0.000162024
7.2877e-05
0.000164088
6.06088e-05
3.67073e-05
0.00018415
2.03252e-05
6.2082e-05
9.11249e-06
0.000109692
1.9768e-05
8.98204e-06
1.44559e-05
1.13624e-05
9.76359e-06
5.0482e-05
2.55486e-05
2.57974e-05
3.61951e-05
7.18987e-06
2.33846e-05
7.27414e-06
3.97867e-06
5.20136e-06
1.14674e-05
2.48622e-05
6.06819e-06
7.15397e-06
9.43177e-05
8.37528e-05
3.8411e-05
6.70825e-05
2.01315e-05
8.20366e-06
2.08189e-05
1.13924e-05
1.83172e-05
3.65469e-05
3.01593e-05
0.000292515
0.000120166
0.000102552