/*--------------------------------*- C++ -*----------------------------------*\
  =========                 |
  \\      /  F ield         | OpenFOAM: The Open Source CFD Toolbox
   \\    /   O peration     | Website:  https://openfoam.org
    \\  /    A nd           | Version:  10
     \\/     M anipulation  |
\*---------------------------------------------------------------------------*/
FoamFile
{
    format      ascii;
    class       volVectorField;
    location    "11";
    object      U_0;
}
// * * * * * * * * * * * * * * * * * * * * * * * * * * * * * * * * * * * * * //

dimensions      [0 1 -1 0 0 0 0];

internalField   nonuniform List<vector> 
25600
(
(1.12649 0.0106665 -0.00793263)
(1.09143 0.0204657 -0.0162762)
(1.06944 0.0219529 -0.0151398)
(1.06597 0.0163129 -0.00731492)
(1.0653 0.00695373 -0.000168395)
(1.07164 -0.000882156 0.00127115)
(1.08632 -0.00331055 0.00107323)
(1.09892 0.00366317 0.00229036)
(1.10914 0.0127282 0.00702621)
(1.11522 0.015644 0.011614)
(1.11552 0.0155836 0.00842716)
(1.12014 0.0126757 -0.00162905)
(1.13316 0.00518086 -0.0135917)
(1.14829 -0.0043326 -0.0208342)
(1.16193 -0.0118499 -0.0214013)
(1.16726 -0.0182182 -0.014529)
(1.15812 -0.029718 -0.00523543)
(1.14632 -0.0370791 0.0011933)
(1.14112 -0.034976 0.005107)
(1.14649 -0.0298901 0.00435253)
(1.16337 -0.0178205 -0.000114028)
(1.17479 -0.000844657 -0.00597665)
(1.16698 0.00865591 -0.0101511)
(1.14117 0.0122006 -0.0114337)
(1.10963 0.0227597 -0.00994891)
(1.08233 0.0306762 -0.00354373)
(1.07149 0.0317334 0.00436501)
(1.08539 0.0327693 0.0111381)
(1.10864 0.0216924 0.0120796)
(1.13947 0.0081364 0.0053951)
(1.16515 0.00433791 -0.0016736)
(1.15913 0.00755403 -0.00329269)
(1.13643 0.0177489 0.00362437)
(1.11076 0.0181165 0.0154854)
(1.09468 0.00298711 0.0239058)
(1.10421 -0.0172579 0.0277621)
(1.12994 -0.0357888 0.0254408)
(1.15786 -0.0380332 0.0207719)
(1.17181 -0.02368 0.0149303)
(1.15586 -0.00564351 0.00448385)
(1.11381 0.0348717 -0.0298565)
(1.09982 0.0313371 -0.0533791)
(1.09568 0.0186485 -0.0636157)
(1.10144 -0.0019828 -0.0544741)
(1.10782 -0.0288456 -0.0381279)
(1.11373 -0.0389509 -0.0175862)
(1.111 -0.0357915 -0.00123)
(1.09501 -0.0144779 0.00923043)
(1.07317 0.0152977 0.0188412)
(1.06712 0.0341804 0.0184534)
(1.08958 0.038391 0.00867992)
(1.13705 0.029258 -0.00248002)
(1.17808 0.0157771 -0.012795)
(1.18312 0.0056443 -0.0185327)
(1.15138 0.00539713 -0.0248049)
(1.10147 0.00373823 -0.0314428)
(1.06261 -0.00300488 -0.0333791)
(1.04764 -0.00270103 -0.0309435)
(1.04509 -0.00675671 -0.0216429)
(1.05287 -0.0138959 -0.014111)
(1.07866 -0.0150875 -0.0151979)
(1.10138 -0.008386 -0.0228532)
(1.10987 0.0068956 -0.0285792)
(1.10923 0.0208439 -0.0273974)
(1.09504 0.0326628 -0.0216882)
(1.07534 0.0274368 -0.0162229)
(1.07093 0.0134474 -0.0156213)
(1.08154 0.00491009 -0.0181814)
(1.08796 -0.010006 -0.0228684)
(1.09169 -0.0151535 -0.023054)
(1.0922 -0.020084 -0.0139213)
(1.09059 -0.027096 0.000212791)
(1.10175 -0.0184941 0.0237208)
(1.12503 -0.0062774 0.0483996)
(1.14958 0.00962631 0.0610593)
(1.16157 0.0170035 0.0606462)
(1.15663 0.00488904 0.045945)
(1.14299 -0.00224169 0.0280724)
(1.13207 0.00183749 0.013301)
(1.12155 0.0176894 -0.00697064)
(1.10733 0.00501608 -0.0494948)
(1.10849 -0.0121009 -0.060347)
(1.11191 -0.0173263 -0.0544126)
(1.10151 -0.0223017 -0.0447031)
(1.07851 -0.0233575 -0.0439491)
(1.05611 -0.0108192 -0.0421838)
(1.03398 0.00504854 -0.0357538)
(1.03685 0.0196992 -0.0206822)
(1.06601 0.0239575 0.0010371)
(1.12199 0.0160404 0.0140211)
(1.17479 0.00681838 0.0210074)
(1.17882 0.0136164 0.0248849)
(1.13635 0.0217015 0.0147343)
(1.08702 0.0082146 -0.00787097)
(1.06062 -0.011507 -0.0332325)
(1.03295 -0.0330808 -0.052788)
(1.00729 -0.0439304 -0.0551905)
(0.991956 -0.0415095 -0.0397147)
(0.976996 -0.0467425 -0.0175624)
(0.980234 -0.0449261 -0.00298471)
(1.00519 -0.037326 -0.00508017)
(1.02593 -0.0346496 -0.0189057)
(1.03646 -0.027277 -0.0286277)
(1.04026 -0.0192338 -0.0329431)
(1.03363 -0.00816521 -0.0322129)
(1.02152 -0.00298972 -0.0294905)
(1.02177 -0.00610131 -0.0262575)
(1.02777 -0.0132779 -0.0179239)
(1.02784 -0.0267881 -0.00803876)
(1.04134 -0.0384271 0.00573813)
(1.0531 -0.0539413 0.0194169)
(1.05913 -0.059641 0.0298094)
(1.07415 -0.0459287 0.0431487)
(1.0917 -0.0203276 0.0491553)
(1.1221 0.00769518 0.0467072)
(1.14605 0.0177292 0.0440863)
(1.14456 0.0176858 0.0376058)
(1.12929 0.015588 0.0257165)
(1.10691 0.0126419 0.00489765)
(1.10103 0.0128691 -0.0246118)
(1.09525 -0.00552623 -0.0192607)
(1.10043 -0.00192017 -0.0292169)
(1.10335 0.00432777 -0.0497945)
(1.09381 -0.00241573 -0.0719636)
(1.08205 -0.017366 -0.0798594)
(1.07247 -0.0223879 -0.0590536)
(1.08064 -0.0318105 -0.0238607)
(1.10178 -0.0430697 0.0104292)
(1.12319 -0.0436655 0.0367957)
(1.14638 -0.0277435 0.0426311)
(1.15664 0.00470329 0.039193)
(1.14417 0.0378739 0.0307238)
(1.10916 0.0369188 0.0123698)
(1.07669 0.00408004 -0.00700804)
(1.0473 -0.0162286 -0.0225482)
(0.999271 -0.027115 -0.0273712)
(0.968259 -0.0228895 -0.0176227)
(0.968825 -0.0133783 -0.00300818)
(0.976934 -0.0268572 0.00137568)
(0.992219 -0.0418815 -0.0065861)
(1.00192 -0.05931 -0.0217309)
(1.00203 -0.0677545 -0.0354434)
(1.01214 -0.0447887 -0.0399568)
(1.03123 -0.0100828 -0.0417535)
(1.054 0.01634 -0.0347024)
(1.07614 0.0247262 -0.0101911)
(1.10034 0.0124669 0.0233095)
(1.10837 -0.0107073 0.0511906)
(1.09134 -0.027647 0.0501601)
(1.07598 -0.0342745 0.0280531)
(1.06961 -0.0434735 0.014054)
(1.08279 -0.0449674 0.0186176)
(1.10799 -0.0371112 0.0377908)
(1.12685 -0.020189 0.04597)
(1.1398 -0.00155719 0.0329642)
(1.14185 -0.000773545 0.012591)
(1.13972 -0.00122515 -0.0130543)
(1.12408 -0.00538827 -0.0264288)
(1.10684 -0.0161325 -0.0219529)
(1.10047 -0.0141086 -0.017865)
(1.07645 0.0163203 0.00748609)
(1.07381 -0.00389927 0.00210138)
(1.07008 -0.0207908 -0.0160058)
(1.07257 -0.0284649 -0.0346979)
(1.10024 -0.0203353 -0.0431252)
(1.12591 -0.00754656 -0.0333501)
(1.12852 -0.00248729 -0.00900164)
(1.10442 0.00258641 0.0118703)
(1.06566 0.00906481 0.0138195)
(1.03011 0.0157461 0.00657467)
(1.01096 0.0280853 0.0159101)
(1.00907 0.0646285 0.0346711)
(1.02836 0.0802334 0.0379264)
(1.05785 0.0468542 0.0222679)
(1.07319 0.0126419 0.00585971)
(1.05644 -0.0207825 0.000903316)
(1.04852 -0.0355713 0.0092494)
(1.07755 -0.0419545 0.0223402)
(1.10345 -0.0608591 0.0145171)
(1.09266 -0.0638139 -0.0213486)
(1.03836 -0.0723581 -0.0628346)
(0.990336 -0.096573 -0.0800681)
(0.976974 -0.106083 -0.0593328)
(0.998657 -0.088634 -0.0222712)
(1.03219 -0.0595286 0.0139622)
(1.05614 -0.0364407 0.0415171)
(1.0771 -0.0295312 0.0521096)
(1.08307 -0.0204722 0.0432787)
(1.07372 -0.0060897 0.0255831)
(1.0678 -0.0161728 0.0170334)
(1.06836 -0.0564317 0.0166028)
(1.08585 -0.0811733 0.0179572)
(1.11236 -0.0715132 0.0104439)
(1.12694 -0.0306932 -0.00720988)
(1.11795 0.00713935 -0.021792)
(1.08364 0.0138938 -0.0242438)
(1.04521 0.00972804 -0.0304102)
(1.0285 -0.00830346 -0.0343751)
(1.04352 -0.0108946 -0.0205978)
(1.06808 0.0126274 -0.00285487)
(1.07409 -0.00978278 0.00117434)
(1.07764 0.00549497 0.0307679)
(1.08417 -0.0031491 0.0355959)
(1.07315 -0.0361917 0.0111631)
(1.08269 -0.0479372 -0.0250963)
(1.08818 -0.0174565 -0.0429957)
(1.07862 0.0162896 -0.0317228)
(1.07943 0.0142901 -0.0313815)
(1.07347 -0.0195708 -0.0514288)
(1.02964 -0.0543004 -0.0462739)
(0.967024 -0.0408309 0.00330639)
(0.96778 0.023049 0.0413529)
(1.03963 0.0368207 0.028462)
(1.0939 -0.00901346 -0.00597985)
(1.12534 -0.028434 -0.0230979)
(1.13978 -0.0284441 -0.00997233)
(1.14342 -0.045246 0.0231975)
(1.12419 -0.0850406 0.0353212)
(1.06897 -0.0989332 0.0137879)
(0.986744 -0.0763489 -0.022733)
(0.89738 -0.0642348 -0.0437273)
(0.854899 -0.0588204 -0.0381967)
(0.86938 -0.0517429 -0.0252463)
(0.929009 -0.0545861 0.00217787)
(0.998244 -0.066159 0.0522321)
(1.0453 -0.0645878 0.0796491)
(1.03877 -0.0527742 0.0541745)
(1.00308 -0.0419419 0.00198235)
(0.982199 -0.0336917 -0.0308261)
(0.98552 -0.0275732 -0.0183607)
(0.995568 -0.0324965 0.0165291)
(1.00633 -0.0449498 0.0327195)
(1.04696 -0.0487438 0.0192664)
(1.08597 -0.0315892 -0.0195964)
(1.07666 -0.0134381 -0.0471289)
(1.04175 -0.000146748 -0.0444912)
(1.01728 0.00904374 -0.0538581)
(1.02089 -0.0187993 -0.0591279)
(1.04278 -0.0462923 -0.0450262)
(1.06712 -0.0372136 -0.0268723)
(0.972389 0.0715634 -0.0402592)
(1.05223 0.0574496 -0.0437826)
(1.1171 0.0040572 -0.0507731)
(1.07373 -0.0428803 -0.0545901)
(1.0147 -0.0394476 -0.0406612)
(1.01736 0.00981819 -0.00250532)
(1.08706 0.0424624 0.0253137)
(1.14074 0.02377 0.00177679)
(1.07671 0.01172 -0.0215487)
(0.958626 0.0266209 0.00612118)
(0.948113 0.0484906 0.0456001)
(1.04805 0.0931926 0.0419514)
(1.10933 0.108493 0.00213121)
(1.08464 0.0540466 -0.0227966)
(1.10473 -0.010299 -0.0229934)
(1.17461 -0.0597942 0.00566243)
(1.17834 -0.099732 0.0408384)
(1.07618 -0.0995043 0.0261649)
(0.946477 -0.0656575 -0.0382037)
(0.843533 -0.059162 -0.0863482)
(0.779081 -0.0911994 -0.0764976)
(0.785763 -0.123716 -0.0353782)
(0.829454 -0.124746 -0.0106278)
(0.877128 -0.0942326 0.00388855)
(0.913624 -0.0507361 0.0170083)
(0.938173 -0.00468458 0.00419911)
(0.952801 0.0156721 -0.0299915)
(0.969499 0.0269292 -0.0634867)
(0.961275 0.0369101 -0.061493)
(0.957974 0.0313515 -0.00695557)
(0.938824 -0.00122807 0.0329858)
(0.89968 -0.0499704 0.0208389)
(0.918135 -0.0680679 -0.00540143)
(0.977749 -0.0326683 -0.0318326)
(1.025 0.0148923 -0.0397947)
(1.03137 0.0346251 -0.0395533)
(1.03979 0.0105811 -0.0420299)
(1.05875 -0.0383568 -0.0041334)
(1.02101 -0.0383082 0.00542959)
(0.966764 0.0219544 -0.025511)
(1.11396 0.0253633 -0.0739651)
(1.18556 -0.0326589 -0.0877789)
(1.07118 -0.0434768 -0.0714857)
(0.9046 -0.0357016 -0.0245003)
(0.875905 -0.00758834 0.0267558)
(0.967312 0.0235463 0.058327)
(1.06205 0.0149877 0.039569)
(1.07682 0.0244828 -0.00491225)
(1.01701 0.0463839 0.0226414)
(0.957583 -0.0115459 0.0833266)
(0.999578 -0.0586875 0.0584668)
(1.07307 0.0337843 -0.00261473)
(1.11464 0.104475 0.0146635)
(1.08618 0.0236637 0.0310951)
(1.06988 -0.0644249 -0.0184715)
(1.15106 -0.0661667 -0.0414627)
(1.21375 -0.0438717 -0.0237408)
(1.14863 -0.0428442 -0.0214775)
(1.03992 -0.0498118 -0.0574403)
(0.960397 -0.0919173 -0.0664148)
(0.871695 -0.145632 -0.0537481)
(0.847722 -0.169524 -0.0387471)
(0.873242 -0.144545 -0.0371146)
(0.861491 -0.0814625 -0.0613116)
(0.853222 -0.0397314 -0.0596825)
(0.885179 -0.021879 -0.0469656)
(0.955133 -0.0217132 -0.0464019)
(1.06112 -0.00412509 -0.0543061)
(1.06657 0.0236207 -0.048523)
(1.00099 0.0428521 -0.0075125)
(0.942207 0.0284808 0.019135)
(0.893739 -0.017459 0.00589206)
(0.884451 -0.081721 -0.0176101)
(0.948855 -0.117417 -0.0519183)
(1.03504 -0.0948342 -0.0722614)
(1.0641 -0.0472114 -0.0613618)
(1.10133 -0.00673546 -0.00788254)
(1.14058 0.00194567 0.062037)
(1.09261 0.00566325 0.048917)
(1.02826 0.0361487 -0.020912)
(1.11171 -0.0454066 -0.108698)
(1.04815 -0.0425031 -0.0913337)
(0.956605 0.0129935 -0.0383153)
(0.903873 -0.0375408 0.0634041)
(0.977519 -0.120519 0.0903039)
(1.06876 -0.111065 0.0442669)
(1.01893 -0.0126092 0.00606678)
(0.967193 0.0482933 -0.0172415)
(1.01431 0.041629 -0.00145334)
(1.03784 -0.00530116 0.0290195)
(0.980502 -0.0113657 0.0264223)
(1.0819 0.0848682 0.00125135)
(1.28007 0.121624 -0.0143042)
(1.2254 0.0249096 -0.0258816)
(1.07881 -0.0572852 -0.0503459)
(1.07939 -0.0609935 -0.0767584)
(1.16257 -0.0487291 -0.0641155)
(1.12555 -0.0581912 -0.0498059)
(1.02526 -0.0741667 -0.0617977)
(0.922098 -0.0582871 -0.0805302)
(0.839245 -0.0552456 -0.0731133)
(0.838097 -0.0965582 -0.011496)
(0.869121 -0.118516 0.0314935)
(0.880469 -0.10039 -0.0168289)
(0.867077 -0.0497865 -0.0769386)
(0.875547 0.00437909 -0.110257)
(0.918255 0.0252276 -0.102837)
(1.02435 0.054416 -0.0653647)
(1.08804 0.0934302 -0.0259946)
(1.02749 0.101136 0.0121917)
(0.987958 0.0608276 0.0351212)
(1.02142 -0.00165995 0.0290233)
(1.01156 -0.0729037 0.0185487)
(0.910404 -0.0915213 -0.0221591)
(0.851825 -0.0710072 -0.0696781)
(0.916121 -0.0551428 -0.0554654)
(1.03515 0.000440461 -0.021513)
(1.04072 0.0405534 -0.0341202)
(0.976131 0.0534833 -0.0827526)
(1.0282 0.0309865 -0.112364)
(1.13851 0.0557318 -0.0825331)
(1.02718 -0.00721549 -0.0638963)
(1.08789 -0.0478317 -0.0283224)
(1.08019 -0.0788865 0.0135293)
(1.06559 -0.0781246 -0.000456173)
(0.970325 -0.00640301 -0.00479505)
(0.90689 0.0365026 -0.000601753)
(1.03392 0.00404269 -0.0444391)
(1.03341 -0.0103763 -0.0559133)
(0.92864 -0.00757117 0.00859098)
(0.968383 -0.0258139 0.0376603)
(1.22924 0.0113877 0.0632991)
(1.24695 0.0270753 0.0591891)
(1.10986 -0.00468964 -9.32127e-05)
(1.2402 -0.0210103 -0.0529329)
(1.16331 -0.0155394 -0.0428399)
(0.846324 -0.0276918 0.0213289)
(0.71273 -0.0611704 0.0328436)
(0.701964 -0.0708738 -0.0223409)
(0.730693 -0.0718181 -0.0837952)
(0.812234 -0.0698766 -0.0985823)
(0.813634 -0.0543265 -0.0415736)
(0.72132 -0.0637516 0.0342965)
(0.745617 -0.094428 0.0537951)
(0.825611 -0.0706079 -0.0606764)
(0.871645 -0.00555147 -0.145557)
(0.916361 0.0248551 -0.0955473)
(1.00094 0.0182491 -0.0339057)
(0.989761 0.084016 -0.0116037)
(0.967732 0.158649 -0.0365849)
(1.01014 0.119189 -0.023131)
(1.02427 0.0237945 0.0261189)
(0.978221 -0.0477513 0.0586186)
(0.943871 -0.0578612 0.000495681)
(0.95319 -0.0498 -0.0593658)
(0.926826 -0.0601732 -0.0542611)
(0.969364 -0.0304293 -0.0156978)
(1.03803 0.0535429 0.00921954)
(1.10748 0.109763 -0.0359641)
(1.19829 0.093807 -0.0840942)
(1.03896 -0.0348565 -0.0498021)
(0.994003 -0.0728022 -0.0342251)
(1.01666 -0.0465964 0.0225044)
(0.884817 -0.0214078 0.0660198)
(0.910656 0.0117684 0.0345176)
(0.984926 0.0126523 -0.0323167)
(0.917901 -0.0233925 -0.0469943)
(0.80117 0.00195101 -0.0272429)
(0.782178 0.026475 0.0377177)
(0.894506 -0.0178232 0.100701)
(0.865759 -0.0468028 0.0729635)
(0.863891 0.0287199 0.0421183)
(1.05281 0.0539843 0.0287864)
(1.16678 -0.0457432 0.00784423)
(1.18707 -0.057109 -0.00873494)
(1.05912 0.0638866 -0.0425104)
(0.93364 0.0667355 -0.0387979)
(0.969178 -0.0355971 -0.0236864)
(0.916329 -0.11134 -0.0576214)
(0.82191 -0.119196 -0.0284287)
(0.883682 -0.0558054 0.0487087)
(0.8995 -0.0119194 0.0611497)
(0.772061 -0.0677112 0.0425066)
(0.722397 -0.112941 0.0442604)
(0.774851 -0.0677029 -0.0258899)
(0.838662 0.0091218 -0.0732807)
(0.91434 0.044007 -0.0218189)
(0.957863 0.0824102 0.0295814)
(0.88703 0.149916 -0.0104412)
(0.967513 0.160942 -0.0544184)
(1.07052 0.125675 0.0142242)
(1.12055 0.110999 0.0826807)
(1.07037 0.0188285 0.00662056)
(1.08276 -0.0585784 -0.0970598)
(1.13373 -0.0713296 0.016134)
(1.02745 -0.0811643 0.0974948)
(0.972808 -0.0386931 0.0729794)
(1.0453 0.0329265 -0.0182027)
(1.22053 0.0350479 -0.0910868)
(1.20235 0.0104119 -0.0671217)
(1.11357 0.0611007 -0.0274882)
(1.04018 -0.000339678 -0.132168)
(0.975497 -0.0241028 -0.103609)
(0.86158 -0.0492584 0.032725)
(0.890651 -0.0500782 0.0697545)
(0.999469 -0.0148776 -0.0176672)
(0.927323 0.0341133 -0.0951698)
(0.84778 0.0312701 -0.00157768)
(0.845217 -0.0305578 0.108762)
(0.952711 -0.0200869 0.101895)
(0.947674 0.00967945 0.0663149)
(0.936464 -0.0391729 0.0505476)
(0.961069 -0.1292 0.0439567)
(0.887125 -0.10174 0.0721759)
(0.931427 -0.0353291 0.061331)
(0.932357 0.0423021 -0.0469296)
(0.894949 0.0176952 -0.0891596)
(1.01908 -0.0267357 -0.015613)
(0.977065 -0.0731197 0.0266475)
(0.825316 -0.0744071 -0.00238018)
(0.79241 0.0143851 -0.00234642)
(0.853886 0.0211555 0.0273927)
(0.772462 -0.0809466 0.0398414)
(0.728234 -0.125634 0.011116)
(0.750074 -0.0312816 -0.00857361)
(0.82883 0.0397931 -0.0438876)
(0.958524 0.0136699 -0.0233549)
(0.901654 0.0663058 0.0515332)
(0.805064 0.172489 0.0384573)
(0.846508 0.142901 0.0593213)
(0.897484 0.0921475 0.0621599)
(1.09602 0.0393005 0.0963142)
(1.13148 -0.0195662 0.00125856)
(1.11751 -0.0523172 -0.109191)
(1.11059 -0.0612916 0.0267505)
(0.902661 -0.0497031 0.0841325)
(0.905411 0.00156084 -0.027902)
(1.13068 0.0384573 -0.162155)
(1.18541 0.0579908 -0.146054)
(1.11601 0.084121 -0.0213429)
(1.10772 -0.0142107 0.00539391)
(1.02627 -0.0914815 -0.110581)
(1.11455 -0.0860293 -0.123397)
(1.01788 -0.0436514 -0.00567567)
(0.947134 -0.069614 0.0948717)
(0.938215 -0.0949556 0.0676722)
(0.934912 -0.0329794 -0.0542257)
(0.929592 0.0312137 -0.0258931)
(0.881998 0.0118937 0.0639635)
(1.03046 -0.0623129 0.0976347)
(1.19127 -0.0815605 0.0798389)
(1.02596 -0.0155406 0.00562352)
(0.714187 0.0205974 0.0459817)
(0.639347 -0.0245064 0.134936)
(0.762425 -0.0129155 0.152215)
(0.820834 0.0615354 -0.0554548)
(0.78161 0.0466399 -0.0999849)
(0.967565 -0.00796211 0.0674634)
(0.975324 -0.0895834 0.147887)
(0.889396 -0.0746043 0.0531514)
(0.941804 -0.0185275 -0.0471859)
(0.883452 -0.0406795 -0.0166046)
(0.791498 -0.0899188 0.0481661)
(0.690748 -0.11611 0.0412142)
(0.795373 -0.0311101 -0.0168396)
(0.948059 0.0208657 -0.0890846)
(0.941397 0.0735184 -0.159579)
(0.871792 0.133169 -0.0816598)
(0.800488 0.150693 0.0197601)
(0.821185 0.159653 0.0931378)
(0.911019 0.0628196 0.0770952)
(1.07538 -0.00563149 0.133277)
(1.01965 -0.00404265 0.100854)
(0.902772 -0.0382679 -0.0161987)
(0.957858 -0.040605 0.0145708)
(0.98509 -0.0369827 0.0707213)
(1.02168 -0.0564503 -0.0439317)
(1.10529 -0.0251562 -0.188767)
(1.07561 -0.00619821 -0.123275)
(1.11538 -0.00862825 0.00713531)
(0.746282 -0.0197572 -0.0686461)
(0.776002 -0.0645763 -0.0681213)
(0.977147 -0.0598816 0.0082245)
(0.924441 -0.0437483 0.0261525)
(0.879398 -0.0514251 0.0729966)
(0.70522 -0.0392559 0.0114182)
(0.800329 -0.0212172 -0.0246039)
(0.93588 0.018511 -0.00865889)
(0.940624 -0.0275996 -0.014774)
(0.971897 -0.0476228 -0.0515369)
(1.03974 0.0364499 -0.018204)
(0.95156 0.0772858 0.00907946)
(0.697482 0.00617042 0.0421868)
(0.798357 -0.0754104 0.0183934)
(0.848714 -0.0526911 0.0470973)
(0.80641 0.0359536 -0.0271399)
(0.828997 0.00652684 -0.0585932)
(0.948011 -0.0652141 0.0430473)
(0.889909 -0.0881783 0.0597575)
(0.859042 -0.0422558 -0.0284159)
(0.879487 0.0268557 -0.0231905)
(0.684403 0.0130447 0.0576652)
(0.785007 -0.0697552 0.0810397)
(0.800811 -0.0998627 0.0697952)
(0.817039 -0.00883748 0.0567959)
(0.932919 0.0365416 -0.0366819)
(0.859674 0.0295614 -0.164354)
(0.80481 0.0915965 -0.153964)
(0.826258 0.180215 0.0114768)
(0.981043 0.124614 0.0693437)
(1.02624 0.0459228 0.0976354)
(1.00705 0.0438227 0.1667)
(1.01929 0.0104764 0.0559852)
(0.976571 -0.0804028 -0.0362174)
(0.929285 -0.0867035 0.0398854)
(1.01785 -0.0375602 -0.0501981)
(0.894617 0.00274301 -0.202327)
(0.881833 0.00196449 -0.145239)
(0.927733 -0.0196731 0.0658349)
(0.832614 0.00127301 0.0764631)
(0.701102 -0.0259375 -0.0244576)
(0.860157 -0.120536 -0.0646542)
(0.969757 -0.0893195 -0.00838236)
(0.818174 -0.0245101 0.000211485)
(0.651002 -0.0104566 -0.0216022)
(0.568618 -0.0660845 -0.10956)
(0.669833 -0.093004 -0.0448019)
(0.861549 -0.0130896 0.0418519)
(0.902383 0.00575812 0.131938)
(1.03329 -0.0114052 0.0522192)
(1.05489 0.0188143 0.0376234)
(0.990665 0.0413893 -0.0505859)
(0.78506 0.000556967 -0.045594)
(0.829319 -0.0578174 0.045167)
(0.888779 -0.0374296 0.0839334)
(0.943538 0.0497501 0.0695468)
(0.925433 -0.00745531 -0.0175332)
(1.04719 -0.0793992 -0.0672898)
(0.871335 -0.0495014 -0.0195371)
(0.664646 0.0222191 0.00203726)
(0.63015 0.0490224 -0.0557357)
(0.524503 -0.0205535 -0.109604)
(0.69743 -0.114385 -0.0507257)
(0.73832 -0.0893553 0.0392609)
(0.804051 0.00366669 0.0317585)
(0.891279 0.0268289 -0.150136)
(0.809878 0.0419597 -0.142326)
(0.881554 0.099426 -0.011709)
(0.998825 0.116245 0.0270513)
(0.95904 0.0987782 0.0323492)
(1.02865 0.0472539 0.157801)
(1.28105 0.0127088 0.197745)
(1.17714 -0.024019 0.0294917)
(0.925917 -0.0324164 -0.00729272)
(0.897065 -0.0151666 0.0106929)
(0.802416 0.001161 -0.126437)
(0.671064 -0.0316795 -0.0752949)
(0.843461 -0.0510099 0.0452186)
(0.933652 -0.00694083 0.0576469)
(0.756304 0.0474487 0.081955)
(0.79534 -0.0144607 -0.0113363)
(0.891476 -0.0921081 -0.0467571)
(0.948334 -0.0676328 -0.0464364)
(0.803776 -0.000368155 -0.0110462)
(0.762728 -0.00134855 0.0580583)
(0.835138 -0.0936946 -0.00150221)
(0.772149 -0.0937892 0.0543557)
(0.936158 -0.0432113 0.0539427)
(1.03624 -0.0525866 0.0805014)
(1.06868 -0.0182054 0.0181418)
(0.86861 0.0468917 -0.0305933)
(0.81119 0.0437568 -0.0960581)
(0.74402 0.0140337 -0.0430654)
(0.798418 -0.0510135 0.130352)
(0.816276 -0.0321965 0.111412)
(0.940377 0.0750759 0.00213546)
(0.926434 0.000706103 -0.0406845)
(1.00629 -0.0563425 -0.060556)
(0.932832 0.00779992 -0.0357656)
(0.702647 0.05305 0.0870039)
(0.770249 0.0299212 0.0175056)
(0.767839 -0.0655826 -0.13192)
(0.636791 -0.102008 -0.0303501)
(0.674259 -0.0672101 0.0791911)
(0.741658 0.00601433 -0.029701)
(0.806175 0.0107977 -0.126973)
(0.863141 0.00522737 0.00796311)
(0.882002 0.0371682 0.147398)
(0.924647 0.147947 0.0364276)
(0.98904 0.0962882 0.0492913)
(1.05252 -0.0741119 0.205301)
(1.23503 -0.0582377 0.183223)
(1.049 0.0528626 0.0325142)
(0.786776 0.00504038 -0.0751489)
(0.852575 -0.0539349 -0.0901176)
(0.979196 -0.0257142 -0.0774735)
(0.96788 -0.0361639 -0.0312715)
(0.909801 -0.0655114 0.00298357)
(0.852627 -0.0497402 -0.00266676)
(0.824976 0.0333825 0.0722712)
(0.78553 -0.00241916 0.0193968)
(0.945638 -0.0730577 0.0653254)
(0.975641 -0.0774294 -0.0213725)
(0.741665 -0.0271882 0.0117409)
(0.795228 -0.0396624 0.0908266)
(0.738037 -0.0775848 0.035295)
(0.841783 -0.0777776 0.0409848)
(0.997538 -0.0411908 -0.00162157)
(0.844081 -0.0233178 -0.0402216)
(0.722559 0.024185 0.00713638)
(0.750097 0.0419293 -0.0472133)
(0.765486 -0.00785904 -0.0722985)
(0.754004 -0.0577991 -0.0473709)
(0.857123 -0.0482567 0.0928908)
(0.803862 -0.0252631 -0.00177387)
(0.886761 0.0593839 -0.111672)
(0.979507 -0.0314839 -0.0420263)
(0.949275 -0.0419213 0.0127064)
(0.925066 0.0530268 -0.027604)
(0.76647 0.062677 0.02965)
(0.783914 0.0230736 0.0687683)
(0.939519 -0.0344869 -0.0201246)
(0.705517 -0.08675 0.0169105)
(0.674164 -0.0541073 0.0119188)
(0.790924 -0.00743682 -0.0652422)
(0.744296 0.00782023 -0.0760387)
(0.816698 0.0120643 0.0778161)
(0.855923 0.0799258 0.0859122)
(0.995996 0.137752 0.0464217)
(1.14817 0.0543676 0.135666)
(0.992802 -0.0163349 0.0911837)
(1.00023 0.0228547 0.00953503)
(0.865386 0.0744718 -0.0576927)
(0.91181 -0.0159623 -0.13588)
(0.897029 -0.059052 -0.0820023)
(0.890809 -0.040494 -0.0344315)
(0.927819 -0.0234662 -0.0462117)
(0.854955 -0.00820534 -0.0250539)
(0.79412 -0.0554889 0.0319965)
(0.870187 0.00391169 -0.0143449)
(0.859961 -0.00142484 0.0537723)
(0.984645 -0.0866271 0.0547158)
(0.971142 -0.00292518 -0.0677502)
(0.791446 0.0154814 -0.0244016)
(0.814285 -0.0736854 0.0337726)
(0.654145 -0.0858731 0.0521457)
(0.783184 -0.107575 0.0591646)
(0.857288 0.0201951 0.0351157)
(0.802942 0.0243867 0.00115783)
(0.837315 0.00617914 0.0257383)
(0.878393 0.0258439 -0.0177481)
(0.855229 0.0071071 0.016496)
(0.763133 -0.0212072 0.0398001)
(0.911473 -0.0500127 0.168383)
(0.885586 -0.0342162 0.133546)
(0.988874 0.0562167 -0.0546606)
(0.997273 0.00375256 -0.148907)
(0.967486 -0.029284 -0.103342)
(0.909728 0.0666982 -0.0640083)
(0.790749 0.0954098 0.00880055)
(0.895896 0.00390046 0.0835184)
(0.950466 -0.0404014 0.0128209)
(0.795789 -0.0355975 -0.0386525)
(0.75517 -0.0482882 -0.0296679)
(0.780961 -0.0243739 -0.0722303)
(0.666767 0.0432142 -0.0115177)
(0.881029 0.0201422 0.11348)
(0.996343 0.061444 0.110998)
(1.11883 0.079601 0.126592)
(1.07531 0.0630922 0.146011)
(0.917269 0.0477852 0.0880125)
(0.920616 0.0385877 0.0460579)
(0.777939 0.022911 -0.117365)
(0.93313 -0.0277891 -0.0636904)
(0.895399 -0.0203889 -0.0306592)
(0.911908 -0.0627952 -0.0355433)
(0.947492 -0.0334445 0.0208451)
(0.862785 0.000629589 -0.0222001)
(0.799332 -0.0744462 0.131355)
(0.906021 -0.00611371 0.0118825)
(0.962444 0.0257898 2.73977e-05)
(0.945281 -0.0911092 0.0565168)
(0.919045 -0.0383872 -0.059043)
(0.939657 -0.00802816 -0.0787012)
(0.74257 -0.0674408 0.0423966)
(0.66427 -0.0794613 0.03237)
(0.739653 -0.058076 0.0153338)
(0.79327 0.0396279 0.0295715)
(0.889442 0.00817888 0.0261411)
(0.914284 -0.00905979 0.0220931)
(0.882219 0.0512424 -0.0892889)
(0.828838 0.0081032 -0.056045)
(0.691822 -0.054298 0.0412648)
(0.791772 -0.0745291 0.126285)
(0.762209 -0.0116483 0.13563)
(0.928983 0.0203446 0.0239758)
(1.06046 -0.0500745 -0.0744583)
(0.988417 -0.0530154 -0.124532)
(0.945324 0.0807908 -0.0794995)
(0.80815 0.0897424 0.0111133)
(0.975526 0.00502165 0.0233642)
(0.959167 -0.0263831 0.0824127)
(0.82149 -0.00335095 -0.0680777)
(0.809014 -0.00639999 -0.0601527)
(0.695101 0.039679 -0.0335778)
(0.72899 0.0482074 0.0227919)
(1.06866 -0.0508127 0.120832)
(1.0787 0.0181667 0.0939663)
(1.05239 0.102997 0.0807644)
(0.922482 0.0589197 0.0587949)
(0.971348 -0.00779773 0.0710864)
(0.972378 -0.00581307 0.0958694)
(0.741167 -0.0138573 -0.137548)
(0.945499 -0.09062 -0.127809)
(0.996917 -0.0492706 -0.104323)
(0.876539 -0.0547363 0.0182338)
(0.921553 -0.0165209 0.0316139)
(0.934798 0.0513 -0.0156306)
(0.766553 -0.055048 0.0785136)
(0.859391 -0.0166684 0.0219446)
(0.999358 0.0216907 0.0483948)
(0.852377 -0.043364 0.05253)
(0.805284 -0.0232249 -0.0706073)
(0.905491 0.0214029 -0.056217)
(0.748697 -0.0195172 0.0837587)
(0.805554 -0.0980902 0.0418084)
(0.726032 -0.0284721 0.0019421)
(0.733556 0.0758911 0.00328807)
(0.960175 0.00863001 0.0692126)
(0.826594 -0.0214988 0.0304214)
(0.779416 0.0397738 -0.123275)
(0.887413 0.0363303 -0.0844654)
(0.803222 -0.03183 0.0551439)
(0.750059 -0.0287883 0.166362)
(0.782385 -0.00833402 0.132546)
(0.888002 -0.0105044 -0.00491418)
(0.913346 -0.0244514 -0.0656333)
(0.860856 -0.0326569 -0.0667533)
(0.945854 0.0602142 -0.0505842)
(0.839478 0.108356 0.0371948)
(1.00455 -0.0250469 -0.00410479)
(1.04956 -0.0303759 -0.0404566)
(0.911021 0.0212361 -0.0275785)
(0.782479 -0.000778179 -0.00347765)
(0.736909 0.0408064 0.0428452)
(0.852421 0.0246034 0.0362619)
(0.960788 -0.0645598 0.15806)
(1.02583 0.0407914 0.0505256)
(1.04228 0.144952 0.0813796)
(0.904432 0.0204101 0.0892004)
(0.985282 -0.0368476 0.0317401)
(0.895204 0.0226721 -0.0226058)
(0.783438 -0.026288 -0.0977807)
(0.846361 -0.0553073 -0.0938728)
(0.879118 -0.040508 -0.0420742)
(0.828266 -0.0369469 0.000159354)
(0.777432 -0.0090538 0.0287251)
(0.947156 0.0870269 0.0343976)
(0.779341 -0.0281043 0.0395012)
(0.769882 -0.0099427 0.0283545)
(0.951832 0.00904185 0.0186989)
(0.837758 -0.0506412 0.0478514)
(0.746213 -0.0247104 -0.136567)
(0.829685 0.0247909 -0.0821878)
(0.886157 -0.0713417 0.0617488)
(0.693009 -0.106331 0.086102)
(0.703115 -0.0181921 0.0525854)
(0.873551 0.058591 -0.0736775)
(1.0068 0.0193958 0.0128028)
(0.745921 0.0156116 -0.0030683)
(0.787633 0.0300912 -0.129975)
(0.907067 0.0266566 -0.0795137)
(0.76205 -0.0555546 0.0360966)
(0.738391 -0.0544171 0.153697)
(0.847049 -0.0388853 0.134115)
(0.939275 -0.0206715 -0.00427442)
(0.898707 0.000394286 -0.0672766)
(0.667125 -0.0164856 -0.070326)
(0.788138 0.0730785 -0.0126443)
(0.84902 0.109071 -0.038431)
(0.928404 -0.0597069 0.100186)
(1.03242 -0.0362424 -0.0236873)
(0.950322 0.00510378 -0.0286138)
(0.782824 -0.0128047 0.0303305)
(0.901462 0.0643125 -0.0580819)
(0.902358 -0.0055155 -0.0499501)
(0.800717 -0.0542134 0.142465)
(0.987339 0.0330182 0.149293)
(1.07514 0.11608 0.0904813)
(0.852537 0.00104588 0.0982412)
(0.91994 -0.0413551 0.141414)
(0.762922 0.0139471 0.0170251)
(0.871296 -0.0608094 -0.0585104)
(0.828639 -0.0800795 -0.0738135)
(0.856132 -0.00501024 0.00952367)
(0.924426 -0.047737 -0.00241569)
(0.673478 -0.0165929 0.045794)
(1.07602 0.0403145 0.0600341)
(0.924492 -0.0527142 0.0461327)
(0.741732 -0.0168481 -0.0723522)
(0.87932 0.0410912 0.0299029)
(0.8055 -0.0275331 0.0171489)
(0.843577 -0.0383529 -0.20342)
(0.886929 -0.00337949 -0.0325355)
(0.818025 -0.060199 0.128439)
(0.522129 -0.0665939 0.139358)
(0.705101 -0.00847362 -0.0113186)
(0.939298 0.0625115 -0.154512)
(0.960837 0.0524197 -0.111995)
(0.658193 0.0375122 -0.0386459)
(0.726675 0.0280436 -0.103551)
(0.908626 0.0412074 -0.0564579)
(0.803543 -0.0467753 0.0421005)
(0.80355 -0.0515364 0.169002)
(0.874443 -0.0350834 0.20055)
(0.982255 -0.0223305 0.0066914)
(0.839988 2.1126e-05 -0.053334)
(0.62288 -0.0375815 0.0260666)
(0.617134 0.0628285 0.0169314)
(1.06954 0.105505 -0.0843968)
(0.815949 -0.0186402 0.202988)
(0.866068 -0.0138007 0.146619)
(0.942819 0.0093721 0.0430572)
(0.751723 -0.0270399 0.0450955)
(0.916988 0.0363285 -0.130862)
(1.03434 0.0119445 -0.0502643)
(0.82293 -0.0719431 0.0818797)
(0.938617 0.0473695 0.150899)
(1.1006 0.143663 0.0991754)
(0.819328 0.00853774 0.0602201)
(0.764961 -0.00111167 0.122511)
(0.729215 0.0674756 -0.000790701)
(0.839722 -0.0216905 -0.051947)
(0.800544 -0.118072 -0.019208)
(0.897488 -0.0423702 0.0698236)
(0.939421 -0.0259856 0.0823942)
(0.636012 -0.0228672 0.0135838)
(1.03547 0.0279662 0.123675)
(0.825039 -0.0312782 0.0144189)
(0.730475 0.00641452 -0.155689)
(0.914588 -0.00949955 -0.0402203)
(0.848769 -0.0554362 0.0304084)
(0.936269 -0.0435497 -0.147249)
(0.858253 0.00768745 0.105462)
(0.74903 -0.02447 0.15677)
(0.456217 -0.0538452 0.0264836)
(0.5309 -0.0304995 -0.0403164)
(0.995181 0.0353801 -0.113192)
(0.921032 0.0467684 -0.0834423)
(0.755337 0.0386943 -0.0632993)
(0.890434 0.00493898 -0.0987723)
(0.860452 0.0320711 -0.0313825)
(0.629492 -0.02119 0.0551715)
(0.827659 -0.0610535 0.167916)
(0.982639 -0.0375173 0.134633)
(0.85643 -0.00994268 0.0186684)
(0.658267 0.0155248 -0.0623828)
(0.625116 -0.0228363 0.0108365)
(0.722975 0.0164609 -0.0351077)
(1.01994 0.0666238 0.0154995)
(0.68301 -0.0257101 0.231501)
(0.730911 -0.0460585 0.0961019)
(1.05024 -0.00605124 -0.0852779)
(0.745788 -0.0150646 -0.0426606)
(0.842325 0.0426727 -0.0998729)
(1.04318 0.00656654 0.0434761)
(0.851138 -0.0788682 0.206025)
(0.885212 0.0425337 0.127215)
(1.10254 0.107393 0.0640636)
(0.828397 -0.00451469 0.0440813)
(0.702417 -0.0184084 0.00988675)
(0.956865 0.0285351 -0.0198657)
(0.826313 -0.0413153 -0.0174393)
(0.644006 -0.0834584 0.0134557)
(0.806771 -0.0272023 0.069922)
(0.811652 0.00458829 0.0152075)
(0.567456 -0.0137114 -0.0424878)
(0.846192 0.0304431 0.122538)
(0.698144 -0.0445047 0.0399198)
(0.799451 -0.0219147 -0.177341)
(0.84899 0.0382847 0.014521)
(0.833702 -0.0508005 0.0409987)
(0.848886 -0.0420147 -0.0826289)
(0.857649 0.0299359 0.10592)
(0.822903 -0.019774 0.177067)
(0.411475 -0.0530986 -0.0028973)
(0.389884 -0.0745147 -0.023844)
(1.1094 -0.0331787 -0.0504664)
(0.836259 0.0552012 -0.0251151)
(0.880771 0.0401165 -0.0226869)