/*--------------------------------*- C++ -*----------------------------------*\
  =========                 |
  \\      /  F ield         | OpenFOAM: The Open Source CFD Toolbox
   \\    /   O peration     | Website:  https://openfoam.org
    \\  /    A nd           | Version:  10
     \\/     M anipulation  |
\*---------------------------------------------------------------------------*/
FoamFile
{
    format      ascii;
    class       volVectorField;
    location    "8";
    object      U;
}
// * * * * * * * * * * * * * * * * * * * * * * * * * * * * * * * * * * * * * //

dimensions      [0 1 -1 0 0 0 0];

internalField   nonuniform List<vector> 
25600
(
(1.03134 0.000102146 -0.000205813)
(1.03049 -0.000145851 0.000459531)
(1.03137 0.000394069 -0.000492202)
(1.03154 -0.000170809 0.000228196)
(1.03062 0.000163203 0.000294522)
(1.03138 0.000443762 -0.000492135)
(1.03134 -0.000554041 0.000372209)
(1.03063 0.00021233 7.41751e-05)
(1.03156 0.00035446 -0.000216771)
(1.03105 -0.00095403 0.00023419)
(1.03068 0.000227342 -0.000135338)
(1.03165 4.41088e-06 0.000109207)
(1.03102 -0.0011214 1.48076e-05)
(1.03086 0.000267596 -0.000142723)
(1.03119 -0.000210919 0.00034086)
(1.03105 -0.00108114 -0.000209364)
(1.03097 0.000522459 -3.96414e-05)
(1.03077 -0.000491178 0.000429589)
(1.03102 -0.000814557 -0.000176586)
(1.03076 0.000822445 3.37893e-05)
(1.03078 -0.000842421 0.000251807)
(1.03104 7.86756e-06 -0.000118131)
(1.03059 0.00079713 0.000107674)
(1.03076 -0.000757544 2.40858e-05)
(1.03094 0.000553665 -0.000216637)
(1.03054 0.000492776 0.000233731)
(1.03052 -0.000207429 -0.000222998)
(1.03117 0.000428383 -0.000187942)
(1.03051 0.000272608 0.000415058)
(1.03005 0.000271747 -0.000458495)
(1.03124 1.09551e-05 2.76738e-05)
(1.03054 0.000214154 0.00024231)
(1.03 0.000290004 -0.000356797)
(1.03106 -0.000315899 0.000269614)
(1.03064 0.000446519 -0.000228041)
(1.03022 -7.48195e-05 9.10983e-05)
(1.03107 -0.000260108 0.000140652)
(1.03098 0.000500845 -0.000482307)
(1.03037 -0.000307242 0.000452063)
(1.03129 0.000133282 -0.000198)
(1.03119 -0.000279916 -1.41029e-06)
(1.03073 -4.13858e-05 0.000118081)
(1.03129 0.000427743 -0.000204303)
(1.0314 -0.000355983 0.000161626)
(1.03099 0.000311487 8.62905e-05)
(1.03101 0.000359482 -0.000202031)
(1.03125 -0.000502356 0.000200184)
(1.03105 0.000309733 2.82257e-05)
(1.03093 0.00016463 -8.51768e-05)
(1.03107 -0.000911019 -1.26056e-05)
(1.03112 0.000281902 -4.14539e-05)
(1.03096 -0.000166957 0.000135288)
(1.03128 -0.00100347 -0.000197221)
(1.03123 0.000384944 5.4049e-05)
(1.03055 -0.000363846 0.000253857)
(1.03149 -0.000710543 -0.000266334)
(1.0311 0.000451494 0.000146186)
(1.03021 -0.000592449 0.000320348)
(1.03162 -0.00040617 -6.45473e-05)
(1.0307 0.000206421 0.000106662)
(1.03055 -0.000371002 0.000211548)
(1.03165 0.000220874 -3.95064e-05)
(1.03026 0.000142773 0.000104625)
(1.03072 -0.000131639 6.03334e-05)
(1.0314 0.000250785 -0.000275442)
(1.03026 0.000319299 0.000253042)
(1.03049 0.00012417 -0.00013319)
(1.03132 0.000304288 -0.000328944)
(1.03048 0.000149779 0.000460389)
(1.03003 0.000336994 -0.000358201)
(1.03113 0.000273759 -0.000131299)
(1.03062 -7.97498e-05 0.000357871)
(1.02988 0.000375298 -0.000306229)
(1.03103 -0.000237001 4.47131e-05)
(1.03076 0.000122468 9.51342e-05)
(1.02996 -4.79941e-06 -4.21362e-05)
(1.03122 -0.000207895 -5.77394e-05)
(1.03094 0.000128856 -6.55065e-05)
(1.0303 -0.000356839 0.000124255)
(1.03142 0.00026487 -0.000153963)
(1.03107 -0.000610304 0.000250267)
(1.03109 0.000177873 -0.000244836)
(1.0311 0.000205737 0.000100787)
(1.03142 -0.000193193 8.11506e-05)
(1.03125 0.00033833 -0.000155351)
(1.03068 0.00016341 0.000125133)
(1.03129 -0.000116007 2.08852e-05)
(1.03121 0.000141322 -4.62023e-05)
(1.03049 8.1766e-06 6.99461e-05)
(1.03115 -0.000598318 -0.000251702)
(1.03133 2.34468e-06 7.85823e-05)
(1.03052 -0.00021641 0.000111591)
(1.0315 -0.000714036 -0.00040144)
(1.03143 0.000114608 0.000290553)
(1.03023 -0.000191904 7.65547e-05)
(1.03175 -0.000322478 -0.000198954)
(1.03108 8.13458e-05 0.000279183)
(1.03001 -0.000299224 0.000175254)
(1.03174 -0.000230026 0.000230025)
(1.03079 -0.000489656 3.06378e-05)
(1.03076 0.000470221 0.000246381)
(1.03152 3.38647e-05 0.000202654)
(1.03027 -0.0003095 -8.44231e-05)
(1.03084 0.000632912 0.000116502)
(1.03136 -0.000305397 -0.00023725)
(1.0304 0.000259474 9.87154e-05)
(1.0305 0.000442591 -3.3157e-05)
(1.03121 0.000251183 -0.000351476)
(1.03055 -1.11295e-05 0.000294216)
(1.03015 0.000438697 -0.000149713)
(1.03089 0.000400963 -0.000223161)
(1.03063 -0.000212911 0.000276023)
(1.02987 0.000349947 -0.000114783)
(1.03086 -0.000277218 -0.000176667)
(1.03084 9.32014e-06 0.000352724)
(1.02991 -0.000175724 -0.000109558)
(1.03119 9.34443e-06 -0.000309163)
(1.03084 -0.000298503 0.000417716)
(1.03047 -0.000388625 -0.000206355)
(1.03136 0.000332112 -0.000148571)
(1.03106 -0.000625982 0.000367677)
(1.03137 0.000257044 -0.000472106)
(1.03099 -4.09858e-05 0.000289294)
(1.0315 0.000227604 4.73949e-06)
(1.03128 5.86966e-05 -0.000276003)
(1.03064 0.000260714 0.000328092)
(1.03124 0.000192611 -9.3582e-05)
(1.03116 -0.000188878 -0.00014767)
(1.03033 6.316e-05 0.000207994)
(1.03107 -0.000487793 -0.000441645)
(1.03143 -0.000293465 0.000134799)
(1.03038 -0.000127476 4.8418e-05)
(1.03155 -0.000610837 -0.000527381)
(1.03164 -3.47978e-05 0.000424221)
(1.03019 8.35509e-05 -9.42204e-05)
(1.03172 -5.07046e-05 -4.09093e-05)
(1.03111 -0.000114521 0.000279039)
(1.02995 -6.73818e-05 0.000199759)
(1.03149 -0.000321311 0.000514367)
(1.03123 -0.000766534 -0.000103008)
(1.03096 0.00110321 0.000446676)
(1.03105 -0.000335295 0.000323896)
(1.03071 -0.000189048 -0.000249912)
(1.03074 0.000784184 0.000231353)
(1.03112 -0.000705406 -0.000251481)
(1.03083 0.000335667 -5.54663e-05)
(1.03048 0.000531098 7.34236e-05)
(1.03097 0.00037174 -0.000373747)
(1.03063 -0.000244425 0.000111049)
(1.03036 0.000624346 9.56388e-05)
(1.03062 0.000288868 -0.000325504)
(1.03058 -5.559e-05 0.000175439)
(1.02983 0.000130273 6.79354e-05)
(1.03076 -0.000371328 -0.000336977)
(1.03084 0.000103001 0.000592682)
(1.02995 -0.000562997 -0.000234595)
(1.03112 0.00029785 -0.000386423)
(1.03064 -0.000701904 0.000780074)
(1.03079 -0.000396148 -0.000537734)
(1.03124 0.000165807 -6.51588e-05)
(1.03113 -0.000346134 0.000354744)
(1.03151 2.51062e-05 -0.00054187)
(1.03107 1.26826e-05 0.000338412)
(1.03149 0.00053337 -4.42424e-05)
(1.03127 -0.00024638 -0.000336841)
(1.03077 0.000643911 0.000445956)
(1.03097 0.000124463 -0.00020194)
(1.03112 -0.000254154 -0.000242313)
(1.03027 8.44435e-05 0.000342925)
(1.0309 -0.00059928 -0.000680083)
(1.03158 -0.000359345 0.00021635)
(1.03029 -0.000181248 -1.66573e-05)
(1.03157 -0.00058658 -0.000659899)
(1.03192 0.000101868 0.000524676)
(1.03022 0.000114847 -0.000206726)
(1.03161 0.000349684 0.000113351)
(1.03107 -0.000120968 0.000292984)
(1.02986 -8.57678e-05 0.000344534)
(1.03124 -0.000322023 0.000687982)
(1.0318 -0.000802099 -5.53324e-05)
(1.03108 0.00132234 0.00072281)
(1.03059 -0.000397409 0.000307608)
(1.03108 6.94987e-05 -0.000298134)
(1.03047 0.000254809 0.00026563)
(1.03102 -0.000709779 -0.000323066)
(1.03129 0.000218059 -0.000155673)
(1.03052 0.00064841 0.000107472)
(1.03065 0.00045416 -0.000428827)
(1.03072 -0.000438298 5.75907e-05)
(1.03054 0.000801502 0.000229083)
(1.0304 -4.64872e-05 -0.000504131)
(1.03052 0.000455577 0.000138182)
(1.02965 -0.000448104 0.00014081)
(1.03083 -0.00033675 -0.000341387)
(1.03071 0.000154457 0.000741331)
(1.03005 -0.000961219 -0.000414141)
(1.03109 0.000536706 -0.000239886)
(1.03035 -0.00105607 0.000951855)
(1.0311 -0.000396386 -0.000762906)
(1.03119 -0.000138081 6.75016e-05)
(1.03117 -4.36891e-05 0.000305689)
(1.03161 -0.000320538 -0.000570762)
(1.03131 0.000400562 0.000308952)
(1.03133 0.000413581 -2.45786e-05)
(1.03135 -0.000159956 -0.000406777)
(1.03088 0.000967437 0.000531096)
(1.03065 -0.000120067 -0.000372048)
(1.03113 -1.9529e-06 -0.000240481)
(1.03011 -0.000141262 0.000424421)
(1.03078 -0.000685339 -0.00100992)
(1.0317 -0.000258191 0.000407374)
(1.03023 -0.000408526 -0.00018995)
(1.03173 -0.000417161 -0.000781507)
(1.0321 0.000307089 0.000613288)
(1.03035 7.8472e-05 -0.000376416)
(1.03156 0.00100287 0.000271055)
(1.03084 -0.000187926 0.000365955)
(1.02982 -8.33703e-05 0.000492301)
(1.03102 -0.000368479 0.000864328)
(1.0323 -0.000791143 0.000138716)
(1.03122 0.00146319 0.000899655)
(1.03022 -0.000116326 0.000318412)
(1.03114 0.000117769 -0.00029804)
(1.03022 -0.000536279 0.000208354)
(1.03108 -0.000512398 -0.00040271)
(1.03172 -2.15329e-05 -0.000277146)
(1.03063 0.000917661 6.61394e-05)
(1.03026 0.000262992 -0.000504854)
(1.03085 -0.000307147 0.000109897)
(1.03061 0.000666031 0.000259128)
(1.03038 -0.000261252 -0.000684702)
(1.03032 0.00117761 0.000122494)
(1.02931 -0.0013752 0.000133824)
(1.03113 -0.000145573 -0.000187029)
(1.03044 -2.60528e-05 0.000797851)
(1.0302 -0.00113913 -0.000552283)
(1.03106 0.000601838 4.4907e-05)
(1.03003 -0.00130669 0.000949917)
(1.03139 -0.000526261 -0.000888813)
(1.03127 -0.00038085 0.000183706)
(1.03116 1.81145e-06 0.000281691)
(1.03177 -0.000413026 -0.000610342)
(1.0315 0.000863561 0.000313855)
(1.03115 9.49139e-06 2.62713e-06)
(1.03158 0.000351342 -0.000526163)
(1.03079 0.000869164 0.000655618)
(1.03039 -0.000219666 -0.000584462)
(1.0311 0.000282071 -0.000146166)
(1.02986 -0.00048107 0.000387185)
(1.03081 -0.000684435 -0.00128581)
(1.03175 -0.000142153 0.000699522)
(1.03019 -0.000613387 -0.000500265)
(1.03198 -0.000113645 -0.000867317)
(1.03221 0.000463843 0.00060192)
(1.03061 0.000129336 -0.000562557)
(1.03145 0.00168263 0.000422204)
(1.03043 -0.000159082 0.000448435)
(1.02975 0.000112663 0.000662532)
(1.03081 -0.000705383 0.00117347)
(1.03288 -0.000667106 0.000377507)
(1.03146 0.00165434 0.000969327)
(1.02978 0.000347782 0.000355319)
(1.03083 -0.000113032 -0.000383543)
(1.03008 -0.00133785 0.000136806)
(1.03131 -0.000426761 -0.0005277)
(1.03213 -0.00018532 -0.000455876)
(1.03068 0.00128613 -2.61223e-05)
(1.02992 -7.64706e-05 -0.000616374)
(1.03095 9.04749e-05 0.000276684)
(1.03056 -1.76308e-05 0.000139954)
(1.03068 -1.0414e-05 -0.000973794)
(1.02986 0.00179138 0.000105735)
(1.02886 -0.00247263 0.00011291)
(1.03161 8.48695e-05 6.27205e-05)
(1.03011 -0.000347159 0.000833505)
(1.03041 -0.00104304 -0.000635606)
(1.03098 0.000451554 0.000359364)
(1.02967 -0.00146139 0.000943404)
(1.03164 -0.000769718 -0.000931417)
(1.03146 -0.000391385 0.000293283)
(1.03114 -0.000201413 0.000317693)
(1.03204 -6.5937e-05 -0.000680234)
(1.03153 0.00101378 0.000445261)
(1.03103 -0.000311406 -1.3874e-05)
(1.03179 0.00105808 -0.000636937)
(1.03056 0.000525731 0.000819175)
(1.03031 -7.60846e-05 -0.000872508)
(1.03097 0.000505159 5.60131e-06)
(1.02957 -0.000779124 0.000266114)
(1.03094 -0.000664991 -0.00147455)
(1.03173 0.000180047 0.000992407)
(1.03023 -0.000699761 -0.000864486)
(1.03229 0.000227179 -0.000972711)
(1.03222 0.000615175 0.000484513)
(1.03098 0.000387479 -0.000786611)
(1.03139 0.00231417 0.000568275)
(1.02998 7.87568e-05 0.000582839)
(1.02951 0.000268649 0.000849734)
(1.03057 -0.00129201 0.00164256)
(1.03355 -0.000287739 0.000534407)
(1.03175 0.00198723 0.00100284)
(1.02925 0.000918569 0.00045399)
(1.03022 -0.00069151 -0.00059563)
(1.03002 -0.0020585 6.61583e-05)
(1.03167 -0.000563527 -0.000764153)
(1.03261 -0.000159284 -0.000723266)
(1.03066 0.00156734 -0.000204544)
(1.02959 -0.000296688 -0.000797285)
(1.03087 0.000477377 0.000540522)
(1.03053 -0.00107026 -4.8535e-05)
(1.03131 0.000836185 -0.00138673)
(1.029 0.00202842 1.66947e-05)
(1.02837 -0.0034329 0.000115432)
(1.03225 0.00017598 0.000347452)
(1.02981 -0.000744127 0.000997142)
(1.0306 -0.000742137 -0.000670677)
(1.03082 0.000290964 0.000688761)
(1.02935 -0.00162142 0.000986286)
(1.03194 -0.00103769 -0.000999075)
(1.03166 -0.000287852 0.000455518)
(1.03122 -0.00046174 0.000372766)
(1.03232 0.000598935 -0.000632616)
(1.03135 0.000861033 0.000766094)
(1.03112 -0.000368658 -0.000111043)
(1.03195 0.00154069 -0.000688604)
(1.03021 0.000142867 0.00107523)
(1.03035 0.000118635 -0.00116982)
(1.03073 0.000601617 0.000228792)
(1.02925 -0.000946531 0.000115498)
(1.03123 -0.00058986 -0.0015806)
(1.03171 0.000626639 0.00135294)
(1.03021 -0.000678098 -0.00122822)
(1.0326 0.000619097 -0.00123353)
(1.03224 0.000596677 0.000302665)
(1.0314 0.000754264 -0.00117667)
(1.03129 0.00300807 0.000551516)
(1.02941 0.000738339 0.000649981)
(1.02904 0.000337669 0.00115812)
(1.03048 -0.00200336 0.00238581)
(1.03443 0.000163547 0.00056583)
(1.03202 0.0024696 0.000910995)
(1.02844 0.0015065 0.000404586)
(1.02934 -0.00142705 -0.000932669)
(1.03008 -0.00265793 5.54688e-06)
(1.03217 -0.00107238 -0.00118258)
(1.03311 0.000152394 -0.00111369)
(1.03056 0.00177852 -0.000466577)
(1.02932 -0.000356782 -0.0010404)
(1.03052 0.000527005 0.000863558)
(1.03066 -0.00222988 -0.000356747)
(1.03213 0.00208143 -0.00207956)
(1.02774 0.00177699 -0.00014451)
(1.0279 -0.00425746 0.000176168)
(1.03287 0.000195158 0.000774744)
(1.02961 -0.000977171 0.00126459)
(1.03087 -0.000330185 -0.00076314)
(1.03052 0.000178486 0.00108808)
(1.02899 -0.0017676 0.00115883)
(1.03224 -0.00108155 -0.000996076)
(1.03182 -0.000208362 0.000708069)
(1.03141 -0.000484549 0.000622167)
(1.03257 0.00139251 -0.000378077)
(1.03104 0.000647231 0.00115001)
(1.03125 -0.000115119 -0.000220937)
(1.03194 0.00188295 -0.000606744)
(1.02987 -8.54402e-05 0.00132269)
(1.03048 0.000326042 -0.00152791)
(1.03044 0.000621398 0.000449619)
(1.02895 -0.00104578 3.01426e-05)
(1.03155 -0.000242002 -0.00162387)
(1.03166 0.00134068 0.00183281)
(1.03022 -0.000499248 -0.00152246)
(1.03281 0.000993488 -0.00163298)
(1.0322 0.00059158 3.77878e-05)
(1.03196 0.00126635 -0.00178397)
(1.03134 0.00360286 0.000538327)
(1.02876 0.00162266 0.000645733)
(1.02822 0.000362364 0.00153856)
(1.0304 -0.00258472 0.00327463)
(1.03545 0.000725749 0.000266338)
(1.03227 0.00310586 0.00074859)
(1.02744 0.00194086 0.000269589)
(1.02828 -0.00215889 -0.00142635)
(1.03006 -0.00328825 -7.98625e-05)
(1.03279 -0.00175188 -0.00180238)
(1.03374 0.000740106 -0.00177)
(1.03032 0.00198447 -0.000987278)
(1.02892 -0.000107924 -0.00141998)
(1.0299 0.000111457 0.00131142)
(1.03107 -0.00321177 -0.000737552)
(1.03298 0.00342022 -0.00324408)
(1.0261 0.00136727 -0.000531724)
(1.02756 -0.004874 0.000342141)
(1.03358 -0.000184514 0.00147677)
(1.02947 -0.00108672 0.00185476)
(1.03104 0.000392667 -0.00081866)
(1.03012 0.000252113 0.00155956)
(1.02871 -0.00193826 0.00133875)
(1.03253 -0.00103989 -0.0010437)
(1.03185 -0.00027117 0.00107066)
(1.03175 -0.000526368 0.000991208)
(1.03269 0.00209927 0.000284113)
(1.03064 0.000528291 0.0017562)
(1.03145 0.000182715 -0.00019896)
(1.03178 0.00190647 -0.00039538)
(1.02948 -0.000285662 0.001676)
(1.03061 0.000183271 -0.0016799)
(1.03008 0.000626291 0.000785117)
(1.02873 -0.000958587 -6.62859e-05)
(1.03201 0.000215173 -0.00162818)
(1.03155 0.00217352 0.00264253)
(1.03009 -0.000215418 -0.00168729)
(1.03296 0.00106146 -0.00218193)
(1.03218 0.000228061 -0.000356224)
(1.03242 0.00193202 -0.00295065)
(1.03137 0.00459542 5.33526e-05)
(1.02806 0.00288162 0.000467121)
(1.02719 0.000302959 0.00235116)
(1.03042 -0.00313234 0.00452434)
(1.03654 0.00148405 -0.000404687)
(1.03237 0.00387508 0.000140526)
(1.02618 0.00229122 -0.00024322)
(1.02704 -0.00268021 -0.00199114)
(1.02999 -0.00400066 -0.000258866)
(1.03351 -0.0025034 -0.00276634)
(1.03432 0.00155279 -0.00275211)
(1.02996 0.00202819 -0.00180119)
(1.0283 3.74665e-05 -0.00205811)
(1.02896 -0.000507722 0.0018033)
(1.03167 -0.00392232 -0.00141628)
(1.03374 0.00441808 -0.00507675)
(1.0242 0.000690765 -0.00114037)
(1.02706 -0.00515784 0.000646383)
(1.03415 -0.000343818 0.00249211)
(1.02961 -0.00102628 0.00258556)
(1.03125 0.00114231 -0.000987359)
(1.02949 0.000553199 0.00224207)
(1.02835 -0.00176002 0.00182225)
(1.03274 -0.000613652 -0.000988228)
(1.03187 -0.00037226 0.00138655)
(1.03208 -6.46919e-05 0.00196269)
(1.03282 0.00307597 0.00123756)
(1.03019 0.000917717 0.00216248)
(1.03147 0.000802747 -0.00026989)
(1.03139 0.00204867 -0.000267713)
(1.02905 -0.000121714 0.00202872)
(1.03082 -0.000134515 -0.00180454)
(1.02987 0.000588632 0.00108742)
(1.0285 -0.000370874 -7.69684e-05)
(1.03232 0.00138087 -0.00173553)
(1.03139 0.00337237 0.0038539)
(1.02986 0.000168398 -0.00156197)
(1.03284 0.00107342 -0.00288617)
(1.03217 -0.000200882 -0.000990587)
(1.03309 0.00238191 -0.00467162)
(1.03152 0.00550915 -0.000669025)
(1.02715 0.00453084 -7.6242e-05)
(1.02578 0.000684417 0.00307085)
(1.03046 -0.00333111 0.00567298)
(1.03763 0.00226735 -0.00158429)
(1.03228 0.00467081 -0.000698455)
(1.02481 0.00267558 -0.000948311)
(1.02564 -0.0030081 -0.00282029)
(1.02967 -0.00490516 -0.000745667)
(1.03427 -0.00302189 -0.00427332)
(1.0348 0.00290462 -0.00452344)
(1.02926 0.00235902 -0.00338814)
(1.02744 0.000207701 -0.00321128)
(1.02779 -0.00130101 0.00228697)
(1.03219 -0.00437856 -0.00242353)
(1.03416 0.00541035 -0.00808096)
(1.02222 0.000132734 -0.00232515)
(1.02673 -0.00572398 0.00110808)
(1.03456 -0.000774538 0.00405916)
(1.02957 -0.00039788 0.00377456)
(1.03134 0.00262978 -0.00122432)
(1.02892 0.00115079 0.00292989)
(1.02809 -0.00141567 0.00214753)
(1.03273 -0.000119858 -0.00131528)
(1.03156 -0.000291812 0.00171256)
(1.03241 0.000275516 0.00300317)
(1.03283 0.00395611 0.00297937)
(1.02974 0.00187751 0.00321897)
(1.03152 0.00149125 -0.000403517)
(1.03076 0.0019046 -0.000825653)
(1.02829 -0.000172599 0.00281872)
(1.03096 -0.00106159 -0.00109098)
(1.02981 0.000679311 0.00114469)
(1.02837 0.000690036 -0.000557159)
(1.0324 0.00289361 -0.00227242)
(1.03084 0.00494009 0.00578505)
(1.02933 0.000600049 -0.000548007)
(1.03254 0.000346124 -0.00359927)
(1.03199 -0.00116805 -0.0025551)
(1.03333 0.00318103 -0.00835586)
(1.03157 0.00700406 -0.00221985)
(1.0264 0.00657185 -0.000265334)
(1.02433 0.00130065 0.00429329)
(1.03035 -0.0029808 0.00674985)
(1.03836 0.00331303 -0.00375093)
(1.0319 0.00537454 -0.00265578)
(1.02338 0.00306076 -0.00223777)
(1.02421 -0.00298273 -0.00401729)
(1.02942 -0.00571264 -0.00194651)
(1.03519 -0.00347605 -0.00666995)
(1.03502 0.00407606 -0.00735946)
(1.02812 0.00204338 -0.00603143)
(1.02611 0.000271262 -0.00555473)
(1.02622 -0.00164201 0.00191604)
(1.03256 -0.00488658 -0.00462958)
(1.03421 0.00535674 -0.012879)
(1.01983 -0.00042002 -0.00465451)
(1.026 -0.00506802 0.00108894)
(1.03492 -0.000782231 0.00551162)
(1.02982 0.000103407 0.00492997)
(1.03123 0.0040699 -0.00183078)
(1.02805 0.00232279 0.00406653)
(1.02779 -8.40638e-05 0.00306843)
(1.03269 0.00124895 -0.00210127)
(1.03133 0.000111054 0.00130281)
(1.03262 0.00258292 0.00497485)
(1.03295 0.00628982 0.00488083)
(1.02941 0.00420462 0.00341923)
(1.03222 0.00314713 -0.00160295)
(1.03007 0.00280196 -0.00249343)
(1.0266 0.000607392 0.00364506)
(1.03126 -0.00221962 -8.55874e-05)
(1.03015 0.00118829 0.000678831)
(1.02776 0.00331175 -0.00180556)
(1.03188 0.00567799 -0.00392687)
(1.02973 0.00739882 0.00841253)
(1.02782 0.00148046 0.00164258)
(1.03157 -0.000113172 -0.00435237)
(1.03258 -0.00220365 -0.00508704)
(1.03389 0.00383449 -0.0140374)
(1.03094 0.00934252 -0.00497497)
(1.0252 0.0101185 -0.0011446)
(1.02317 0.00311379 0.00474545)
(1.03058 -0.00205494 0.00752036)
(1.03844 0.00430846 -0.00641572)
(1.03098 0.00686854 -0.00539451)
(1.02223 0.00409354 -0.00414626)
(1.02364 -0.00292113 -0.00621419)
(1.03013 -0.00696233 -0.0041102)
(1.03678 -0.00320786 -0.00975921)
(1.03521 0.00662127 -0.0108113)
(1.02709 0.00204486 -0.00971069)
(1.02533 0.000329206 -0.00935463)
(1.02468 -0.00202412 0.000447999)
(1.03237 -0.00476535 -0.0084802)
(1.03402 0.00629431 -0.0202983)
(1.01806 -0.0016102 -0.00895704)
(1.02551 -0.00564582 -0.000189191)
(1.0347 -0.000530686 0.00590015)
(1.02941 0.00240449 0.00577409)
(1.03084 0.00707265 -0.00267304)
(1.02771 0.00419389 0.0048152)
(1.02807 0.0016214 0.00304912)
(1.03279 0.00330728 -0.00436557)
(1.03086 0.00230112 0.000577294)
(1.03327 0.00524714 0.006455)
(1.03242 0.00979364 0.00745947)
(1.02933 0.0083137 0.00341259)
(1.03601 0.00518536 -0.0036086)
(1.03064 0.00426692 -0.00532045)
(1.02304 0.00207211 0.00502613)
(1.03136 -0.00340523 0.00183213)
(1.03062 0.0025031 -0.00157588)
(1.02645 0.00782669 -0.00455436)
(1.03111 0.00981434 -0.00530118)
(1.02645 0.0109922 0.0119252)
(1.02332 0.00324476 0.0037923)
(1.03024 -0.00158202 -0.00523389)
(1.03653 -0.00454969 -0.0071296)
(1.03689 0.00474306 -0.0216768)
(1.02983 0.012693 -0.010081)
(1.02365 0.0145289 -0.00249412)
(1.02308 0.00572856 0.00684725)
(1.03183 -0.000264221 0.0110696)
(1.03848 0.00523898 -0.00818389)
(1.02997 0.0081585 -0.00930028)
(1.02143 0.00510675 -0.00685557)
(1.02525 -0.0032558 -0.00773045)
(1.03464 -0.00860051 -0.00491222)
(1.0424 -0.00315516 -0.0109871)
(1.03855 0.00862167 -0.0111164)
(1.02865 0.00117361 -0.00990923)
(1.02644 0.000610249 -0.0114387)
(1.02428 -0.00188394 -0.00058986)
(1.0335 -0.00553926 -0.012781)
(1.03472 0.00626935 -0.0286761)
(1.01586 -0.00177604 -0.0149427)
(1.02486 -0.00509471 -0.00393739)
(1.03563 -0.000449775 0.00398314)
(1.02926 0.00374661 0.00523604)
(1.02962 0.00981929 -0.0048168)
(1.02767 0.00724283 0.00535818)
(1.0295 0.00485316 0.00234534)
(1.03487 0.00670033 -0.00945786)
(1.03207 0.00522474 -0.00272236)
(1.03088 0.00898668 0.00771821)
(1.02801 0.0143162 0.00531437)
(1.02846 0.0120267 -0.001977)
(1.04186 0.00713239 -0.00553011)
(1.03356 0.00785892 -0.00600163)
(1.01827 0.00576202 0.00434358)
(1.02786 -0.00415066 -0.00027727)
(1.03072 0.00455704 -0.00556643)
(1.0265 0.0139902 -0.00607694)
(1.03089 0.0175304 -0.00373476)
(1.01902 0.0198992 0.0141364)
(1.01283 0.00645826 0.000329642)
(1.02586 -0.00489263 -0.00696008)
(1.04279 -0.00953539 -0.00299961)
(1.04819 0.00526015 -0.0242536)
(1.03349 0.0189681 -0.0183589)
(1.02388 0.0212853 -0.0105646)
(1.02383 0.00984764 0.00733489)
(1.03343 0.00215111 0.0194766)
(1.03963 0.00704124 -0.00441219)
(1.0308 0.0115455 -0.0097356)
(1.02259 0.0069569 -0.00784261)
(1.02892 -0.00569929 -0.00813495)
(1.04186 -0.0130728 -0.00436732)
(1.05304 -0.00192542 -0.00980153)
(1.0494 0.0141747 -0.00616113)
(1.03727 0.00369614 -0.00320146)
(1.033 0.00237986 -0.00710375)
(1.02545 -0.00072769 0.00359833)
(1.03608 -0.0037905 -0.013129)
(1.03892 0.00852308 -0.0331318)
(1.01482 -0.00380749 -0.0171026)
(1.0232 -0.00727809 -0.00673834)
(1.03485 0.00162255 0.00136762)
(1.02733 0.00908053 0.00517079)
(1.02774 0.013554 -0.00737834)
(1.0267 0.00848927 0.00137983)
(1.02994 0.00585997 -0.00486214)
(1.03656 0.00982016 -0.0207885)
(1.03219 0.00941794 -0.00831451)
(1.02127 0.0112162 0.00966833)
(1.01704 0.0186585 -0.00192282)
(1.03064 0.0154807 -0.0124243)
(1.04914 0.00732582 -0.00926613)
(1.04188 0.0115735 -0.00822702)
(1.0176 0.0109675 -0.00296648)
(1.01193 -0.00411468 -0.0149336)
(1.02617 0.00522217 -0.0170424)
(1.0317 0.0182665 -0.00707397)
(1.03415 0.0248669 0.00343336)
(1.01491 0.0308163 0.0142782)
(1.00079 0.00971393 -0.0127758)
(1.00542 -0.0124654 -0.012373)
(1.0174 -0.0195035 0.00593883)
(1.04176 0.00165665 -0.016097)
(1.03585 0.022224 -0.0206724)
(1.03135 0.0263651 -0.0247093)
(1.02903 0.0161144 -0.000288772)
(1.03043 0.00699653 0.0251928)
(1.03631 0.0074032 0.00116739)
(1.03043 0.0126861 -0.00639523)
(1.02622 0.00857517 -0.00877893)
(1.03061 -0.00760898 -0.00755678)
(1.04305 -0.019018 -0.00322761)
(1.05952 -0.00606318 -0.0114693)
(1.06281 0.0163882 -0.0032407)
(1.04774 0.00594724 0.00310685)
(1.038 0.00469565 0.00102509)
(1.02474 0.0021688 0.0137535)
(1.03902 -0.00164249 -0.00903982)
(1.04697 0.0125002 -0.0349111)
(1.0133 -0.00396369 -0.0161741)
(1.01673 -0.00932118 -0.00253874)
(1.02966 0.00613268 0.00931714)
(1.02842 0.0165734 0.0123404)
(1.0279 0.0196822 -0.00753378)
(1.01984 0.0128801 -0.00228465)
(1.02823 0.0067183 -0.0131253)
(1.04491 0.0125709 -0.0355965)
(1.03751 0.0139986 -0.0149347)
(1.00334 0.0167649 0.00683639)
(1.00811 0.0187808 -0.0163137)
(1.03333 0.0132725 -0.0185337)
(1.05243 0.00646325 -0.0144944)
(1.04816 0.0145004 -0.0154794)
(1.01406 0.0158821 -0.00555449)
(0.998095 -0.00355707 -0.0308646)
(1.01942 0.00469155 -0.0327907)
(1.02889 0.0227232 -0.0100039)
(1.02762 0.0328944 0.00892808)
(1.01812 0.0416851 0.0134357)
(1.00031 0.0109435 -0.0194506)
(0.967703 -0.0179753 -0.00888028)
(0.94462 -0.0279185 0.0142769)
(0.980023 -0.0051032 -0.00612278)
(0.996434 0.021261 -0.0137981)
(1.02593 0.0278237 -0.0315844)
(1.03781 0.0234941 -0.00823451)
(1.02433 0.0157242 0.0240462)
(1.01987 0.0117142 0.00378279)
(1.01279 0.0150512 -4.7341e-05)
(1.02679 0.00900846 -0.00837147)
(1.03505 -0.00899637 -0.00588892)
(1.0423 -0.0212117 0.000622486)
(1.05932 -0.0052855 -0.0126682)
(1.06561 0.0227945 -0.00546432)
(1.05293 0.0116593 0.00483418)
(1.03999 0.0070158 0.0106278)
(1.02911 0.00687698 0.0268106)
(1.04646 0.00459284 -0.00383071)
(1.05248 0.0173999 -0.0445934)
(1.01489 -0.00518666 -0.0183651)
(1.01541 -0.0103438 0.0126403)
(1.01786 0.0125255 0.0279061)
(1.01003 0.0235564 0.0269757)
(1.00987 0.0251193 -0.00155606)
(1.00305 0.0181853 -0.00370961)
(1.02616 0.00410311 -0.0195824)
(1.05558 0.0126399 -0.0476294)
(1.03809 0.0230225 -0.0194546)
(1.00602 0.0198577 0.00746411)
(0.991679 0.0174845 -0.0129622)
(1.00876 0.0108058 -0.0110824)
(1.05542 0.0070463 -0.0174822)
(1.06545 0.0172974 -0.0116946)
(1.01975 0.0143037 0.00822573)
(1.00998 -0.00986292 -0.0396146)
(1.03366 0.00395005 -0.041267)
(1.05032 0.0259782 -0.00943567)
(1.04648 0.031888 0.00651211)
(1.02373 0.0424251 0.0131739)
(1.00067 0.0132186 -0.0114796)
(0.960994 -0.0171124 0.00376656)
(0.887183 -0.0329379 0.00731894)
(0.894417 -0.0141827 -0.0174253)
(0.926281 0.0110653 -0.00936816)
(0.997672 0.020199 -0.0338235)
(1.03714 0.0283421 -0.0189165)
(1.02436 0.024419 0.0232737)
(0.999163 0.0164214 0.00606241)
(0.981922 0.0171416 -0.00187955)
(1.02544 0.00745435 -0.0146452)
(1.04743 -0.0141053 -0.00856515)
(1.03935 -0.0253842 0.00631798)
(1.05397 -0.00199307 -0.0157029)
(1.08259 0.0306348 -0.0129512)
(1.06242 0.0154128 0.00295862)
(1.03559 0.0104391 0.0166133)
(1.04255 0.0167389 0.037997)
(1.06501 0.0113572 -0.00326191)
(1.06278 0.022239 -0.0637514)
(1.02574 -0.00404646 -0.0239226)
(1.02119 -0.00772233 0.0245007)
(1.01268 0.0220355 0.038577)
(0.994485 0.0293104 0.0369486)
(1.00539 0.0270428 -0.00267003)
(1.00413 0.0224793 -0.0118225)
(1.02361 0.00318984 -0.0207671)
(1.06785 0.0163924 -0.0479649)
(1.0604 0.0315541 -0.0213772)
(1.01525 0.0264906 0.017467)
(0.963081 0.0131418 -0.0110125)
(0.970938 0.00667377 -0.012617)
(1.04062 0.00610455 -0.0250637)
(1.06513 0.0169656 -0.00771408)
(1.04148 0.00831947 0.0161064)
(0.999487 -0.0188555 -0.0458055)
(0.991624 0.0040762 -0.0426308)
(1.0556 0.0244157 -0.00831086)
(1.07317 0.0250587 0.00333982)
(1.03823 0.0455217 0.0115634)
(1.02287 0.0207027 0.00246741)
(1.01066 -0.00739405 0.00937422)
(0.868048 -0.0314252 -0.00155797)
(0.815592 -0.0195215 -0.0141456)
(0.847739 0.00408715 0.00309082)
(0.948913 0.011069 -0.0356811)
(1.03558 0.0287755 -0.0179069)
(1.01682 0.0335045 0.0316716)
(0.989296 0.0230848 -0.00534362)
(0.976714 0.0174701 -0.0210886)
(1.03747 0.00493716 -0.0271779)
(1.04711 -0.0192021 -0.0119812)
(1.0102 -0.0293476 0.0126904)
(1.04392 -0.00138257 -0.0124668)
(1.0902 0.0370308 -0.0157558)
(1.07105 0.0197458 -0.0107752)
(1.04916 0.0138343 0.0261474)
(1.0574 0.0260521 0.0613345)
(1.05758 0.0161062 -0.0072125)
(1.08932 0.0232792 -0.0868913)
(1.07473 -0.00160309 -0.0375208)
(1.02479 -0.00165708 0.0246568)
(1.00177 0.0267378 0.0544992)
(1.00289 0.0170099 0.0565258)
(1.03236 0.0154888 0.0107051)
(1.02194 0.0203012 0.00277426)
(1.00746 -0.0025825 0.00237868)
(1.0609 0.0181632 -0.0302733)
(1.08229 0.0427796 -0.0144657)
(1.02889 0.034382 0.0251889)
(0.936229 0.0139964 -0.0160792)
(0.972518 0.00486388 -0.0169748)
(1.03035 0.00371549 -0.0458507)
(1.05844 0.0110407 -0.0149676)
(1.03012 0.00439352 0.0144225)
(0.894475 -0.0197702 -0.051867)
(0.869252 0.00634834 -0.0226161)
(1.03343 0.0148393 0.015519)
(1.0617 0.0125829 0.0216367)
(1.06811 0.0416497 0.0237284)
(1.07073 0.0211135 0.020415)
(1.06815 0.0022362 0.0153084)
(0.825095 -0.026036 0.00776766)
(0.726971 -0.0222983 0.00437858)
(0.809338 -0.00282032 0.00818398)
(0.924289 -0.00236601 -0.023137)
(1.01722 0.0274515 -0.000157004)
(0.976252 0.0405356 0.0381864)
(1.01204 0.0207056 -0.0112953)
(0.981754 0.0123159 -0.0393796)
(1.04118 0.00458544 -0.0296108)
(1.04309 -0.018651 0.00390316)
(0.956641 -0.0328091 0.0270164)
(0.97803 0.00035643 -0.00732331)
(1.05891 0.0443763 -0.038892)
(1.12682 0.0159826 -0.0148274)
(1.03185 0.0176784 0.0488357)
(1.02784 0.0435016 0.0642872)
(1.05763 0.0104498 -0.0201604)
(1.14935 0.009909 -0.103005)
(1.10303 0.00502234 -0.0433396)
(0.957486 0.0147572 0.0262343)
(0.985198 0.0240601 0.0595459)
(0.996966 -0.00582349 0.0619084)
(1.01453 0.000130598 0.0247689)
(0.980399 0.0190633 0.0227039)
(0.946692 0.00137315 0.0229073)
(1.01732 0.0134967 -0.0373953)
(1.11413 0.0385666 -0.0227606)
(0.960732 0.0432655 0.04367)
(0.920672 0.0109602 -0.0167042)
(0.968594 0.00590598 -0.0150529)
(0.984929 0.00618829 -0.0472705)
(0.968978 0.0126008 0.012434)
(0.90622 0.00870688 0.0216806)
(0.794531 -0.011229 -0.0519067)
(0.813928 0.00648065 0.0151092)
(1.00909 -0.00782603 0.0398549)
(0.962851 -0.00562299 0.038332)
(0.998698 0.0389304 0.0527513)
(1.04565 0.0162163 0.0447392)
(1.06039 -0.00113493 0.0331748)
(0.760669 -0.0267694 0.0024073)
(0.676772 -0.0201873 0.00657879)
(0.835547 -0.00630345 0.000683361)
(0.910398 -0.0145912 -0.0179528)
(0.987442 0.0250904 0.0249509)
(0.955552 0.0387641 0.0534241)
(1.03468 0.0154472 -0.0151723)
(0.969517 0.0128776 -0.0411803)
(1.02715 -0.00170125 -0.00022235)
(1.01249 -0.0164433 0.0345716)
(0.893792 -0.0230244 0.025984)
(0.885348 -0.00358916 -0.0403382)
(1.08176 0.0218242 -0.0640053)
(1.12867 0.00229973 0.0158482)
(0.887773 0.0345981 0.0549963)
(1.07175 0.0533466 0.0509984)
(1.06254 -0.011674 -0.0387726)
(1.11364 -0.00866835 -0.111063)
(1.01056 0.0155778 -0.0264641)
(0.895333 0.0260052 0.0549935)
(1.01511 0.0162709 0.0892036)
(0.910547 -0.015164 0.0469505)
(0.877592 0.00315911 0.00162613)
(0.894951 0.0279714 0.0238493)
(0.901152 -0.00726843 0.010957)
(0.994365 -0.010447 -0.0569886)
(1.09336 0.0349884 0.0048266)
(0.916634 0.0481544 0.0481291)
(0.92073 0.0116584 -0.00139813)
(0.895058 0.00343998 -0.00246606)
(0.861875 -0.0024908 -0.024274)