/*--------------------------------*- C++ -*----------------------------------*\
  =========                 |
  \\      /  F ield         | OpenFOAM: The Open Source CFD Toolbox
   \\    /   O peration     | Website:  https://openfoam.org
    \\  /    A nd           | Version:  10
     \\/     M anipulation  |
\*---------------------------------------------------------------------------*/
FoamFile
{
    format      ascii;
    class       volVectorField;
    location    "8";
    object      UMean;
}
// * * * * * * * * * * * * * * * * * * * * * * * * * * * * * * * * * * * * * //

dimensions      [0 1 -1 0 0 0 0];

internalField   nonuniform List<vector> 
25600
(
(1.02063 -1.65147e-05 1.29072e-05)
(1.02065 -6.63418e-06 -1.83776e-06)
(1.02066 -1.6659e-05 -2.37895e-06)
(1.02063 -2.53525e-05 1.49963e-05)
(1.02064 -1.57106e-05 -1.09033e-05)
(1.02064 -3.53876e-05 2.7144e-06)
(1.02062 -3.44292e-05 9.25744e-06)
(1.02063 -1.56836e-05 -9.02151e-06)
(1.02063 -4.40606e-05 3.85044e-06)
(1.02061 -2.97705e-05 2.9792e-07)
(1.02062 -8.7069e-06 -1.61748e-06)
(1.02061 -3.63198e-05 5.87941e-06)
(1.02059 -5.94299e-06 -5.27311e-06)
(1.02059 7.48375e-06 4.86136e-06)
(1.02058 -1.09187e-05 1.2358e-08)
(1.02057 1.99756e-05 -6.45528e-06)
(1.02056 2.75514e-05 1.01709e-05)
(1.02056 3.53304e-06 -4.46559e-06)
(1.02056 4.58925e-05 -7.49868e-06)
(1.02055 2.94694e-05 3.60053e-06)
(1.02056 1.55863e-05 -8.15365e-06)
(1.02056 5.8042e-05 -5.40899e-06)
(1.02055 1.51117e-05 -1.70051e-06)
(1.02057 2.64576e-05 -1.03424e-05)
(1.02056 4.23126e-05 -2.13996e-06)
(1.02057 4.20453e-06 -1.30714e-06)
(1.02058 1.66901e-05 -9.91752e-06)
(1.02058 1.59317e-05 8.80728e-06)
(1.02057 3.88471e-06 -2.02337e-06)
(1.0206 3.18202e-07 -4.84343e-06)
(1.0206 -4.21191e-06 1.83115e-05)
(1.02059 4.71905e-06 -2.08283e-06)
(1.02062 -6.14445e-06 8.14045e-06)
(1.02062 -3.65478e-07 1.04439e-05)
(1.02061 7.1216e-06 3.50897e-07)
(1.02064 -1.35077e-05 1.57196e-05)
(1.02064 1.09223e-05 -6.42147e-06)
(1.02063 -1.08754e-06 8.63316e-06)
(1.02065 -9.87669e-06 1.12471e-05)
(1.02066 3.21011e-06 -1.08816e-05)
(1.02063 -1.94837e-05 6.42997e-06)
(1.02064 -2.87332e-07 6.89123e-07)
(1.02065 -2.37554e-05 3.49805e-06)
(1.02064 -2.11535e-05 8.97059e-06)
(1.02063 -1.52e-05 -1.0577e-06)
(1.02063 -3.67522e-05 6.26717e-06)
(1.02063 -2.87278e-05 7.4078e-06)
(1.02062 -1.81079e-05 -1.03206e-06)
(1.02062 -4.13828e-05 3.98826e-06)
(1.02062 -2.10966e-05 4.13019e-06)
(1.02061 -7.24624e-06 8.2652e-06)
(1.02061 -2.82199e-05 6.04921e-06)
(1.02061 4.24829e-06 2.77771e-06)
(1.02059 1.04432e-05 1.3128e-05)
(1.02059 -4.03084e-06 9.21762e-07)
(1.02059 2.74313e-05 4.77016e-06)
(1.02055 2.03899e-05 1.41672e-05)
(1.02057 1.01371e-05 -5.01611e-07)
(1.02057 3.82324e-05 1.09849e-06)
(1.02054 2.32763e-05 4.52475e-06)
(1.02057 2.79543e-05 -2.73699e-06)
(1.02055 3.0549e-05 -7.61642e-07)
(1.02054 1.41588e-05 1.1986e-06)
(1.02057 2.17524e-05 -6.78892e-06)
(1.02055 1.62341e-05 8.13834e-07)
(1.02055 4.7002e-06 4.28488e-06)
(1.02058 -2.2466e-06 -9.11324e-06)
(1.02057 6.43734e-08 1.09922e-05)
(1.02056 -1.05944e-05 3.99768e-06)
(1.02059 -6.01646e-06 -4.41742e-06)
(1.0206 -2.14683e-05 1.99569e-05)
(1.02059 -1.26023e-05 2.49651e-06)
(1.02061 -1.18937e-05 5.83874e-06)
(1.02062 -2.12169e-05 1.45817e-05)
(1.02061 -1.78161e-06 4.92074e-06)
(1.02063 -2.14408e-05 7.28283e-06)
(1.02065 -3.78644e-06 2.22672e-06)
(1.02062 -1.04261e-05 7.70832e-06)
(1.02065 -7.92304e-06 3.53017e-06)
(1.02065 -5.22961e-06 -1.37054e-06)
(1.02064 -1.54194e-05 1.42396e-06)
(1.02064 -5.31202e-08 4.13153e-06)
(1.02064 -2.67528e-05 1.04146e-05)
(1.02064 -1.25667e-05 2.61757e-06)
(1.02062 -2.30466e-05 9.98033e-06)
(1.02063 -2.82583e-05 1.04128e-05)
(1.02064 -2.72104e-05 5.53475e-06)
(1.02062 -2.52338e-05 8.83665e-06)
(1.02062 -3.14989e-05 7.68931e-06)
(1.02063 -1.89815e-05 1.06313e-05)
(1.02061 -9.49714e-06 1.98518e-05)
(1.02062 -1.37267e-05 8.56557e-06)
(1.02062 4.67853e-06 1.56531e-05)
(1.02058 1.4706e-05 2.2825e-05)
(1.02059 7.80387e-06 5.41116e-06)
(1.02059 2.16814e-05 1.95929e-05)
(1.02055 1.7684e-05 1.62332e-05)
(1.02057 1.50519e-05 9.96994e-06)
(1.02057 2.0392e-05 8.41719e-06)
(1.02054 2.23865e-05 3.78626e-06)
(1.02057 3.09107e-05 8.81375e-06)
(1.02055 -3.81066e-06 -1.84408e-06)
(1.02055 2.36514e-05 1.42207e-06)
(1.02057 3.49156e-06 -1.18816e-06)
(1.02055 -7.44416e-06 -3.77281e-07)
(1.02055 6.13955e-06 7.10046e-06)
(1.02058 -1.83692e-05 -4.76287e-06)
(1.02057 -1.36716e-05 9.56789e-06)
(1.02056 -2.48196e-05 9.40253e-06)
(1.02059 -9.48147e-06 1.99977e-06)
(1.0206 -3.98707e-05 1.71563e-05)
(1.02059 -2.30667e-05 1.07945e-05)
(1.02061 -2.46954e-05 8.56139e-06)
(1.02063 -3.30076e-05 1.76619e-05)
(1.02061 -1.38071e-05 1.42555e-05)
(1.02063 -2.78265e-05 8.51313e-08)
(1.02065 -1.08328e-05 1.35971e-05)
(1.02063 -2.39199e-05 9.82636e-06)
(1.02065 -3.79271e-07 -5.41039e-06)
(1.02064 -1.71733e-05 1.12469e-05)
(1.02065 -4.1977e-06 -1.78979e-06)
(1.02064 -1.04519e-05 9.24088e-06)
(1.02064 -1.70147e-05 1.39867e-05)
(1.02064 -1.19793e-05 2.91164e-06)
(1.02062 -2.90321e-05 1.85134e-05)
(1.02063 -1.60025e-05 1.53513e-05)
(1.02064 -3.62363e-05 6.92991e-06)
(1.02062 -2.6533e-05 1.94256e-05)
(1.02063 -2.43801e-05 1.59621e-05)
(1.02064 -2.20957e-05 1.75185e-05)
(1.02062 -6.4485e-06 3.33004e-05)
(1.02062 -3.81046e-06 1.42923e-05)
(1.02063 4.01705e-06 3.04337e-05)
(1.02059 2.36994e-05 3.19176e-05)
(1.02059 1.27203e-05 1.62669e-05)
(1.0206 1.63126e-05 3.3571e-05)
(1.02055 1.26954e-05 2.25273e-05)
(1.02057 1.336e-05 2.4967e-05)
(1.02057 6.23613e-06 1.14976e-05)
(1.02055 2.12721e-05 9.00439e-06)
(1.02055 2.0532e-05 1.95629e-05)
(1.02055 -2.44712e-05 -4.08663e-06)
(1.02055 2.81461e-05 6.76259e-06)
(1.02055 -2.54328e-05 4.36858e-06)
(1.02055 -1.30187e-05 1.11443e-06)
(1.02054 -4.16832e-06 1.27349e-05)
(1.02057 -2.32619e-05 2.27286e-06)
(1.02057 -2.88631e-05 1.08045e-05)
(1.02056 -3.49789e-05 1.84364e-05)
(1.02058 -1.49903e-05 1.16477e-05)
(1.02059 -5.82879e-05 1.63073e-05)
(1.0206 -2.6058e-05 2.3313e-05)
(1.02061 -4.58928e-05 1.40256e-05)
(1.02063 -3.1008e-05 2.366e-05)
(1.02061 -3.13874e-05 2.22538e-05)
(1.02064 -2.83596e-05 -3.43149e-06)
(1.02065 -1.31715e-05 2.64316e-05)
(1.02063 -3.4856e-05 8.30724e-06)
(1.02065 7.79274e-06 -8.81488e-06)
(1.02064 -2.64722e-05 2.14012e-05)
(1.02065 7.40246e-06 7.74323e-07)
(1.02063 -1.94225e-05 1.59536e-05)
(1.02064 5.35351e-06 1.8577e-05)
(1.02063 -2.15558e-05 1.11634e-05)
(1.02062 -1.87758e-05 2.49106e-05)
(1.02063 -1.19804e-05 2.37349e-05)
(1.02063 -4.32005e-05 1.16232e-05)
(1.02062 -2.11033e-05 3.34809e-05)
(1.02063 -2.52342e-05 2.59454e-05)
(1.02065 -1.93861e-05 2.75944e-05)
(1.02062 -1.27365e-06 5.15033e-05)
(1.02062 2.52911e-06 2.21194e-05)
(1.02064 1.19444e-05 4.8405e-05)
(1.02059 3.18717e-05 4.38657e-05)
(1.02059 1.27187e-05 3.05828e-05)
(1.02059 2.01042e-05 4.85132e-05)
(1.02054 -3.89331e-06 3.34102e-05)
(1.02057 1.6331e-05 3.89474e-05)
(1.02057 -8.4949e-06 1.79329e-05)
(1.02055 1.56113e-05 2.18184e-05)
(1.02054 4.65374e-06 2.51847e-05)
(1.02055 -3.17392e-05 -2.09114e-06)
(1.02054 1.06155e-05 1.44585e-05)
(1.02054 -4.90681e-05 8.20619e-06)
(1.02056 -1.2198e-05 6.69212e-06)
(1.02054 -2.51386e-05 1.83007e-05)
(1.02056 -1.9285e-05 1.09282e-05)
(1.02056 -5.41091e-05 1.55928e-05)
(1.02057 -3.67051e-05 2.97965e-05)
(1.02057 -3.47094e-05 1.85522e-05)
(1.02059 -6.76692e-05 2.11753e-05)
(1.0206 -3.01405e-05 3.53986e-05)
(1.0206 -6.89056e-05 2.13927e-05)
(1.02064 -1.72946e-05 3.17782e-05)
(1.02061 -5.25827e-05 2.6305e-05)
(1.02064 -1.59449e-05 4.7052e-07)
(1.02064 -1.73084e-05 3.79175e-05)
(1.02064 -3.34821e-05 5.21286e-06)
(1.02066 1.13256e-05 -4.04471e-06)
(1.02064 -2.41634e-05 2.79273e-05)
(1.02065 1.13227e-05 8.38529e-06)
(1.02063 -1.11778e-05 2.08621e-05)
(1.02063 2.60094e-05 2.68503e-05)
(1.02062 -2.85927e-05 2.11205e-05)
(1.02062 5.06269e-06 3.10121e-05)
(1.02061 -2.04815e-05 3.52693e-05)
(1.02063 -3.5105e-05 1.94315e-05)
(1.02063 -1.81238e-05 5.15533e-05)
(1.02063 -2.43959e-05 3.40196e-05)
(1.02065 -8.07829e-06 4.50907e-05)
(1.02063 7.06929e-06 7.08895e-05)
(1.02063 1.27079e-05 3.14757e-05)
(1.02065 2.97762e-05 7.25706e-05)
(1.02059 3.48567e-05 5.61234e-05)
(1.02058 1.94795e-05 4.95435e-05)
(1.02058 2.2439e-05 6.59333e-05)
(1.02054 -2.34841e-05 4.65854e-05)
(1.02057 2.20491e-05 5.27024e-05)
(1.02057 -3.12843e-05 2.83474e-05)
(1.02055 1.26104e-05 3.37845e-05)
(1.02052 -1.52271e-05 2.81317e-05)
(1.02055 -3.6916e-05 5.53953e-06)
(1.02054 -2.58825e-05 1.97663e-05)
(1.02053 -5.89734e-05 1.50826e-05)
(1.02057 -1.57674e-05 1.38476e-05)
(1.02054 -4.32771e-05 2.65134e-05)
(1.02055 -1.76288e-05 2.07361e-05)
(1.02056 -7.8819e-05 2.46579e-05)
(1.02057 -2.94603e-05 4.14996e-05)
(1.02056 -6.68358e-05 2.46619e-05)
(1.02059 -5.44636e-05 3.0422e-05)
(1.0206 -4.44833e-05 4.59572e-05)
(1.02061 -7.9733e-05 3.20197e-05)
(1.02064 -2.96572e-07 4.05089e-05)
(1.02061 -6.61095e-05 2.9267e-05)
(1.02066 6.46299e-06 1.03646e-05)
(1.02064 -2.38694e-05 4.63332e-05)
(1.02065 -1.89564e-05 3.35996e-06)
(1.02066 8.95473e-06 5.56006e-06)
(1.02063 -5.85539e-06 3.24205e-05)
(1.02064 1.35394e-05 1.86427e-05)
(1.02063 2.0714e-05 2.65652e-05)
(1.02062 3.59308e-05 4.13392e-05)
(1.02061 -1.49152e-05 2.89764e-05)
(1.02062 2.86858e-05 4.02623e-05)
(1.0206 -2.97768e-05 4.99718e-05)
(1.02063 -1.18032e-05 3.0575e-05)
(1.02063 -1.85854e-05 7.35023e-05)
(1.02063 -1.03689e-05 4.33703e-05)
(1.02066 6.85309e-06 7.24708e-05)
(1.02063 2.73138e-05 8.76606e-05)
(1.02063 2.71654e-05 4.5449e-05)
(1.02065 5.64155e-05 9.82467e-05)
(1.02058 3.44543e-05 6.96963e-05)
(1.02058 3.6043e-05 7.37299e-05)
(1.02056 1.52489e-05 8.40539e-05)
(1.02054 -3.42048e-05 6.44325e-05)
(1.02056 1.39837e-05 6.735e-05)
(1.02056 -5.5895e-05 4.39512e-05)
(1.02056 9.83684e-06 4.22627e-05)
(1.0205 -4.08279e-05 3.39878e-05)
(1.02054 -4.6382e-05 1.37285e-05)
(1.02053 -7.02005e-05 2.56131e-05)
(1.02054 -5.44758e-05 2.55471e-05)
(1.02057 -2.55969e-05 2.11876e-05)
(1.02053 -4.78686e-05 3.78364e-05)
(1.02053 -2.63979e-05 3.00825e-05)
(1.02055 -9.13723e-05 3.6339e-05)
(1.02057 -2.72395e-05 5.07596e-05)
(1.02055 -9.70989e-05 2.8306e-05)
(1.0206 -2.05461e-05 4.19161e-05)
(1.02058 -7.10832e-05 5.74044e-05)
(1.02063 -6.95709e-05 4.61706e-05)
(1.02064 1.26942e-05 5.24627e-05)
(1.02061 -6.11295e-05 3.56201e-05)
(1.02066 2.79235e-05 2.50064e-05)
(1.02062 -2.41806e-05 5.47133e-05)
(1.02066 2.55068e-06 6.85838e-06)
(1.02066 1.18447e-05 1.76331e-05)
(1.02063 2.3303e-05 3.9924e-05)
(1.02063 3.23004e-05 2.65953e-05)
(1.02063 6.95046e-05 3.45126e-05)
(1.0206 4.41299e-05 5.68737e-05)
(1.02061 2.70585e-05 3.2343e-05)
(1.0206 4.83471e-05 5.482e-05)
(1.02058 -1.79786e-05 6.64383e-05)
(1.02062 2.08525e-05 4.52347e-05)
(1.02062 -6.77775e-06 9.83706e-05)
(1.02063 1.38644e-05 5.68984e-05)
(1.02066 3.33288e-05 0.000103314)
(1.02063 5.69973e-05 9.96368e-05)
(1.02063 4.58291e-05 6.22734e-05)
(1.02064 8.75511e-05 0.000120111)
(1.02057 3.74625e-05 8.60317e-05)
(1.02056 5.64783e-05 9.79949e-05)
(1.02053 1.68225e-06 0.000104199)
(1.02053 -3.90041e-05 8.23622e-05)
(1.02054 -9.39079e-06 8.19493e-05)
(1.02056 -7.0763e-05 5.94584e-05)
(1.02055 4.31692e-06 4.41971e-05)
(1.02048 -6.66122e-05 4.16414e-05)
(1.02052 -6.27639e-05 1.66987e-05)
(1.02052 -0.000111155 3.05851e-05)
(1.02054 -3.78159e-05 3.41027e-05)
(1.02056 -3.75358e-05 2.55319e-05)
(1.02053 -3.3827e-05 4.84147e-05)
(1.02051 -4.16596e-05 3.76702e-05)
(1.02054 -8.23181e-05 5.00337e-05)
(1.02056 -3.70441e-05 5.92928e-05)
(1.02055 -0.000102314 3.08903e-05)
(1.02059 2.16906e-05 5.3753e-05)
(1.02056 -9.72693e-05 7.11613e-05)
(1.02065 -3.67316e-05 6.37378e-05)
(1.02064 2.27579e-05 6.90518e-05)
(1.02061 -3.23906e-05 4.87787e-05)
(1.02067 4.83579e-05 4.14574e-05)
(1.02061 -7.81546e-06 6.63954e-05)
(1.02066 2.65316e-05 1.41497e-05)
(1.02066 3.24499e-05 3.20162e-05)
(1.02062 5.55783e-05 5.26173e-05)
(1.02063 8.05929e-05 3.59879e-05)
(1.02062 0.00012397 5.10165e-05)
(1.02058 6.78322e-05 7.10928e-05)
(1.02059 8.49911e-05 3.65113e-05)
(1.02057 7.09322e-05 7.68775e-05)
(1.02056 2.0868e-05 8.3051e-05)
(1.02061 6.19266e-05 6.03378e-05)
(1.0206 2.64166e-05 0.000124406)
(1.02062 4.84966e-05 7.14564e-05)
(1.02066 7.69118e-05 0.000133423)
(1.02062 9.4838e-05 0.000108177)
(1.02062 7.62726e-05 7.60675e-05)
(1.02062 0.000123821 0.000135101)
(1.02054 4.89514e-05 0.000100926)
(1.02053 8.21925e-05 0.000113303)
(1.02049 -1.05178e-05 0.000123917)
(1.02051 -3.72851e-05 9.52774e-05)
(1.02052 -4.13547e-05 9.72981e-05)
(1.02054 -6.89014e-05 6.82991e-05)
(1.02053 -3.65669e-06 3.77099e-05)
(1.02044 -8.03259e-05 4.56308e-05)
(1.02049 -8.97262e-05 1.1281e-05)
(1.02051 -0.000134597 3.36659e-05)
(1.02055 -2.1655e-05 3.70752e-05)
(1.02054 -3.88195e-05 2.59851e-05)
(1.02051 -6.0778e-06 5.53792e-05)
(1.02048 -5.15796e-05 4.305e-05)
(1.02053 -5.67037e-05 6.18876e-05)
(1.02054 -4.71013e-05 6.81756e-05)
(1.02056 -7.11774e-05 3.07195e-05)
(1.02058 6.93918e-05 6.98878e-05)
(1.02053 -0.000103724 9.23864e-05)
(1.02066 2.53349e-05 8.96865e-05)
(1.02062 4.76636e-05 9.46669e-05)
(1.0206 2.43893e-05 7.00828e-05)
(1.02065 7.89207e-05 6.43503e-05)
(1.02059 3.5927e-05 8.77746e-05)
(1.02065 6.16421e-05 2.77177e-05)
(1.02065 8.114e-05 5.27251e-05)
(1.02061 9.35867e-05 7.09315e-05)
(1.0206 0.000167756 4.71022e-05)
(1.02058 0.000192175 6.65303e-05)
(1.02054 0.00012862 7.62796e-05)
(1.02056 0.00016019 3.66776e-05)
(1.02053 0.000118988 9.61967e-05)
(1.02053 8.81245e-05 8.89416e-05)
(1.02058 0.000125139 6.77081e-05)
(1.02057 8.29708e-05 0.000140066)
(1.02061 0.000107848 7.75764e-05)
(1.02064 0.000144 0.00014555)
(1.02059 0.00015094 0.000104917)
(1.0206 0.000122652 7.17789e-05)
(1.02058 0.000173439 0.000136737)
(1.0205 7.42996e-05 0.000102724)
(1.02049 0.000115314 0.000115401)
(1.02043 -1.62002e-05 0.000134813)
(1.02047 -2.06873e-05 9.12207e-05)
(1.02048 -6.2783e-05 0.000103857)
(1.02052 -4.56769e-05 5.79345e-05)
(1.02049 -5.45462e-06 1.47829e-05)
(1.02039 -7.71132e-05 3.76807e-05)
(1.02044 -0.000115575 -1.17818e-05)
(1.0205 -0.000126157 2.57563e-05)
(1.02053 -1.67517e-06 2.4069e-05)
(1.02051 -8.51284e-06 1.31978e-05)
(1.02047 3.57133e-05 5.14566e-05)
(1.02044 -3.49357e-05 4.28485e-05)
(1.0205 -1.7047e-05 7.13646e-05)
(1.02051 -3.83622e-05 7.71151e-05)
(1.02056 1.28444e-06 2.49345e-05)
(1.02054 0.00012407 8.90846e-05)
(1.02049 -7.14418e-05 0.000125299)
(1.02067 0.000106329 0.000127753)
(1.02059 0.000100574 0.000132786)
(1.02058 0.000107282 0.000100437)
(1.02063 0.000135315 8.88606e-05)
(1.02056 0.000101506 0.000114718)
(1.02063 0.000118321 4.12226e-05)
(1.02063 0.000158632 7.86381e-05)
(1.02058 0.000153899 8.89194e-05)
(1.02056 0.000291072 6.45053e-05)
(1.02052 0.000282302 7.87612e-05)
(1.02048 0.000223135 7.15234e-05)
(1.02051 0.000248846 2.903e-05)
(1.02046 0.000199188 0.000103994)
(1.02048 0.000182057 7.95204e-05)
(1.02052 0.000215353 5.92117e-05)
(1.02051 0.000172669 0.000135518)
(1.02056 0.000197652 6.01654e-05)
(1.02059 0.000242747 0.00012958)
(1.02052 0.000235757 7.23286e-05)
(1.02054 0.000193989 2.72808e-05)
(1.02051 0.000242857 9.95304e-05)
(1.02042 0.000125585 5.9814e-05)
(1.02041 0.000175397 7.41714e-05)
(1.02034 2.01361e-06 0.000110785)
(1.02039 2.17087e-05 5.19053e-05)
(1.02041 -5.68365e-05 8.37323e-05)
(1.02047 6.76844e-06 6.98779e-07)
(1.02042 1.592e-05 -4.6658e-05)
(1.0203 -5.4962e-05 -8.70534e-06)
(1.02037 -0.000115589 -6.49927e-05)
(1.02045 -7.80992e-05 -1.23245e-05)
(1.02049 4.3279e-05 -2.09609e-05)
(1.02046 6.61149e-05 -3.07942e-05)
(1.0204 0.000110207 2.48614e-05)
(1.02036 2.62083e-05 2.16269e-05)
(1.02043 6.36384e-05 6.48228e-05)
(1.02045 2.84801e-05 7.09256e-05)
(1.02053 0.000128353 4.36315e-07)
(1.02046 0.000217179 0.000107097)
(1.02043 3.19165e-05 0.000165302)
(1.02064 0.000238246 0.000173407)
(1.02054 0.000203651 0.000180445)
(1.02053 0.000225649 0.000137443)
(1.02057 0.000237069 0.000120243)
(1.0205 0.000200945 0.000153132)
(1.02059 0.000215009 5.80548e-05)
(1.02058 0.000268518 0.000107583)
(1.02053 0.000244348 0.000104578)
(1.02047 0.000507829 3.52602e-05)
(1.02041 0.000460887 1.89222e-05)
(1.02038 0.000400209 4.27918e-06)
(1.0204 0.000402495 -4.26077e-05)
(1.02036 0.000361118 4.82141e-05)
(1.02039 0.000346898 -6.23795e-07)
(1.02042 0.000370102 -2.04077e-05)
(1.0204 0.000335639 5.98658e-05)
(1.02047 0.000363506 -3.19094e-05)
(1.02049 0.000412537 3.37612e-05)
(1.0204 0.000378831 -3.20026e-05)
(1.02043 0.000323704 -0.00010669)
(1.02038 0.000363532 -2.38013e-05)
(1.0203 0.000227406 -8.0417e-05)
(1.02027 0.000278852 -5.73487e-05)
(1.0202 8.49765e-05 -6.32975e-06)
(1.02026 0.000127594 -8.21975e-05)
(1.02028 4.55444e-06 -2.69903e-05)
(1.02035 0.00010355 -0.000163133)
(1.02028 8.30251e-05 -0.000206257)
(1.02014 1.21733e-05 -0.000150446)
(1.02024 -5.60464e-05 -0.000212735)
(1.02035 2.79719e-05 -0.000145346)
(1.02039 0.000146631 -0.000160507)
(1.02034 0.00021086 -0.000165309)
(1.02027 0.000245882 -7.93815e-05)
(1.02024 0.000146751 -6.74445e-05)
(1.02032 0.000202857 2.09715e-06)
(1.02036 0.000173035 9.08775e-06)
(1.02045 0.000321541 -7.96981e-05)
(1.02034 0.000380454 8.10897e-05)
(1.02034 0.00022456 0.000176553)
(1.02057 0.000447578 0.000189407)
(1.02043 0.00039676 0.000199862)
(1.02044 0.000429981 0.000131761)
(1.02047 0.00042329 0.00010489)
(1.0204 0.00037544 0.000146448)
(1.02051 0.00040379 2.39985e-05)
(1.02049 0.000463376 9.05521e-05)
(1.02044 0.00043807 6.9881e-05)
(1.0203 0.00079813 -0.000118925)
(1.02021 0.000720611 -0.000190601)
(1.02019 0.000655757 -0.000222825)
(1.02022 0.000623258 -0.000289591)
(1.02016 0.000603298 -0.000181782)
(1.0202 0.000585336 -0.000254802)
(1.02023 0.00060788 -0.000295727)
(1.0202 0.000597094 -0.000218261)
(1.02028 0.000626179 -0.000331595)
(1.02029 0.000685604 -0.000275985)
(1.02019 0.000616221 -0.000350548)
(1.02022 0.000547743 -0.000491201)
(1.02015 0.0005715 -0.000406099)
(1.02007 0.000438604 -0.00049674)
(1.02003 0.000481173 -0.000447604)
(1.01997 0.000286388 -0.000364244)
(1.02003 0.000341373 -0.000457083)
(1.02005 0.000182665 -0.000391682)
(1.02014 0.000304166 -0.000599492)
(1.02003 0.000256739 -0.000631806)
(1.01989 0.000199356 -0.000549759)
(1.02001 0.000141705 -0.0006036)
(1.02016 0.000252862 -0.000529885)
(1.02019 0.000376679 -0.000542583)
(1.02013 0.000481968 -0.000540253)
(1.02003 0.000508622 -0.000405748)
(1.02001 0.000392776 -0.000373896)
(1.02011 0.000486589 -0.000264759)
(1.02017 0.000448093 -0.000245082)
(1.02029 0.000632909 -0.000340038)
(1.02013 0.000681493 -0.000105328)
(1.02016 0.00058551 5.09545e-05)
(1.02041 0.000788342 7.87034e-05)
(1.02025 0.000703348 0.000107893)
(1.02027 0.00073984 8.83264e-06)
(1.02028 0.000709717 -2.49614e-05)
(1.02022 0.000649706 2.79336e-05)
(1.02034 0.000682901 -0.000138566)
(1.02032 0.000732452 -6.14253e-05)
(1.02027 0.000711424 -9.25659e-05)
(1.02005 0.00142003 -0.000732872)
(1.01995 0.00129534 -0.000895842)
(1.01993 0.00121381 -0.000942461)
(1.01996 0.00115635 -0.00102952)
(1.01989 0.0011402 -0.000903671)
(1.01995 0.00109437 -0.00100462)
(1.01996 0.00111511 -0.0010689)
(1.01992 0.00116154 -0.000990236)
(1.02 0.0011874 -0.00111741)
(1.02 0.0012433 -0.00107185)
(1.01988 0.00112793 -0.00114805)
(1.01992 0.00103652 -0.00141212)
(1.01985 0.00104721 -0.00133342)
(1.01977 0.000908988 -0.00148335)
(1.01972 0.000959885 -0.00138605)
(1.01968 0.000756969 -0.0012583)
(1.01974 0.0008086 -0.00136107)
(1.01976 0.000590575 -0.00128439)
(1.01983 0.000730869 -0.00155759)
(1.0197 0.000669935 -0.00159199)
(1.01957 0.000656186 -0.0014761)
(1.01972 0.000601004 -0.00152084)
(1.01988 0.00073165 -0.00143451)
(1.0199 0.000866346 -0.00143498)
(1.01982 0.00103036 -0.00141047)
(1.01969 0.00103506 -0.00122863)
(1.0197 0.000905223 -0.00117984)
(1.01981 0.0010596 -0.00102278)
(1.01989 0.00101502 -0.000976011)
(1.02004 0.00124729 -0.00107948)
(1.01985 0.00128999 -0.000764227)
(1.01991 0.00126414 -0.000529761)
(1.02016 0.00147429 -0.000477571)
(1.01998 0.00138205 -0.000413734)
(1.02003 0.00141409 -0.000543518)
(1.02004 0.00133573 -0.000590005)
(1.01999 0.00128673 -0.000526724)
(1.02011 0.00131352 -0.000742637)
(1.02008 0.00136627 -0.000651628)
(1.02004 0.00134931 -0.000683933)
(1.01999 0.00236381 -0.00197769)
(1.01987 0.00221155 -0.00225097)
(1.01989 0.00211369 -0.00231772)
(1.0199 0.00203428 -0.00240615)
(1.01974 0.00203904 -0.00225995)
(1.01982 0.00193737 -0.00234713)
(1.01986 0.00196435 -0.00244619)
(1.01977 0.00210313 -0.00234307)
(1.01987 0.00210805 -0.00244509)
(1.01986 0.00213156 -0.00239954)
(1.01976 0.00194132 -0.00247734)
(1.01988 0.00178717 -0.00287278)
(1.01988 0.00180139 -0.00277367)
(1.01982 0.00170169 -0.00298036)
(1.01971 0.00181059 -0.00282822)
(1.01969 0.00159721 -0.00260862)
(1.01974 0.00162852 -0.00272901)
(1.01976 0.00132637 -0.00265198)
(1.01979 0.0014776 -0.00305392)
(1.01964 0.00139691 -0.00313233)
(1.01954 0.00145143 -0.00299113)
(1.01973 0.00139875 -0.00301702)
(1.01991 0.0015434 -0.00292889)
(1.01988 0.00169349 -0.00294076)
(1.01975 0.00193527 -0.00292147)
(1.01957 0.00190987 -0.00272531)
(1.01959 0.00178239 -0.00273894)
(1.0197 0.00201523 -0.00256677)
(1.0198 0.00193549 -0.00251489)
(1.01997 0.00222931 -0.00263246)
(1.01975 0.00228436 -0.00225912)
(1.01985 0.00231913 -0.00192759)
(1.02011 0.00248008 -0.0018347)
(1.01992 0.00237702 -0.00168915)
(1.01999 0.0023761 -0.00182907)
(1.02002 0.00227541 -0.00186933)
(1.02 0.0022404 -0.00177321)
(1.0201 0.00225666 -0.00204906)
(1.02006 0.00232839 -0.00190851)
(1.02 0.00231002 -0.00190426)
(1.02078 0.00402894 -0.00376314)
(1.02069 0.00382817 -0.00410299)
(1.02079 0.00372848 -0.00402885)
(1.02077 0.00361359 -0.00402345)
(1.0205 0.00362698 -0.00386521)
(1.0206 0.00343441 -0.00391344)
(1.02075 0.00346014 -0.00396938)
(1.02065 0.00368984 -0.00379815)
(1.02083 0.00364793 -0.00385863)
(1.02085 0.00364247 -0.00384331)
(1.02088 0.00330642 -0.00391639)
(1.02124 0.00299586 -0.00435115)
(1.02143 0.00302657 -0.00412162)
(1.02145 0.00299488 -0.00444274)
(1.02123 0.00327859 -0.00433694)
(1.02103 0.00306197 -0.0040909)
(1.02095 0.00306009 -0.00419475)
(1.02083 0.00267738 -0.00410251)
(1.02076 0.00284187 -0.00470439)
(1.02056 0.00275196 -0.00493889)
(1.02047 0.00286919 -0.00484576)
(1.02068 0.00278733 -0.00491706)
(1.02087 0.00298121 -0.00483844)
(1.02079 0.00319248 -0.0049011)
(1.02058 0.00359261 -0.004895)
(1.02029 0.00348025 -0.00476441)
(1.02028 0.00335204 -0.00490037)
(1.02035 0.00363765 -0.00481569)
(1.02048 0.00356263 -0.00483385)
(1.02075 0.00392145 -0.00505165)
(1.0205 0.00399988 -0.00468015)
(1.02061 0.00410593 -0.00428567)
(1.02092 0.0043215 -0.00418338)
(1.02077 0.0042226 -0.00393316)
(1.02088 0.00414458 -0.00405481)
(1.02096 0.00398796 -0.00408408)
(1.02094 0.0039481 -0.00390291)
(1.021 0.00399674 -0.00414785)
(1.02094 0.00413649 -0.00383096)
(1.0208 0.00402602 -0.00368444)
(1.02301 0.00575524 -0.00491146)
(1.02312 0.00551575 -0.00530864)
(1.02331 0.00536736 -0.00500223)
(1.02322 0.00522385 -0.00499957)
(1.0229 0.00519985 -0.00488965)
(1.02293 0.00488812 -0.00498833)
(1.02319 0.00487695 -0.00493246)
(1.0234 0.00516352 -0.00459991)
(1.02368 0.00507404 -0.0046454)
(1.02379 0.00506475 -0.00463905)
(1.02387 0.00458873 -0.00477378)
(1.02433 0.00413077 -0.00509908)
(1.02483 0.00417186 -0.00467983)
(1.02518 0.00424108 -0.00518351)
(1.02533 0.00471727 -0.00532885)
(1.02498 0.0045464 -0.00533349)
(1.02477 0.00457506 -0.00552731)
(1.02431 0.00416832 -0.0053707)
(1.02418 0.0042934 -0.0061646)
(1.02388 0.0041817 -0.00653898)
(1.02377 0.00437791 -0.00657899)
(1.02381 0.00417592 -0.00669043)
(1.02387 0.00441238 -0.00658424)
(1.02368 0.00469149 -0.00673106)
(1.02342 0.00530027 -0.00669945)
(1.02293 0.00519343 -0.00654959)
(1.02279 0.00510014 -0.00669477)
(1.02288 0.0053943 -0.00661713)
(1.02306 0.00533393 -0.00667877)
(1.02356 0.00569731 -0.00697208)
(1.02332 0.00583331 -0.00660481)
(1.0235 0.00591659 -0.00607519)
(1.02394 0.0062229 -0.00596158)
(1.02393 0.00609025 -0.00565379)
(1.02403 0.00598885 -0.00586151)
(1.02391 0.00581151 -0.00587572)
(1.02378 0.0057409 -0.00554893)
(1.02375 0.00584371 -0.00568528)
(1.02351 0.00611181 -0.00515878)
(1.02298 0.0058298 -0.00478391)
(1.02524 0.00776857 -0.0032581)
(1.02586 0.00739795 -0.00353208)
(1.02618 0.00733679 -0.0030972)
(1.02652 0.00713517 -0.00336269)
(1.02622 0.00703612 -0.00325742)
(1.02656 0.00647312 -0.00348667)
(1.02681 0.00636929 -0.00342887)
(1.02757 0.00666254 -0.00285282)
(1.02791 0.00644732 -0.00275187)
(1.02822 0.00631969 -0.00258685)
(1.02824 0.0058264 -0.00281572)
(1.02856 0.00531768 -0.00312484)
(1.02914 0.00565282 -0.00269726)
(1.03008 0.0057209 -0.00336329)
(1.03121 0.00647679 -0.00360261)
(1.0316 0.00633312 -0.0037007)
(1.03191 0.0065585 -0.00394967)
(1.03148 0.00621318 -0.00361192)
(1.03166 0.00649411 -0.00450141)
(1.03172 0.00641927 -0.00480956)
(1.03212 0.00676245 -0.00498478)
(1.03232 0.00646183 -0.00510687)
(1.03217 0.0067922 -0.00505622)
(1.03185 0.00701817 -0.00535544)
(1.03136 0.00769405 -0.0055656)
(1.03043 0.00752471 -0.00546959)
(1.02968 0.00752882 -0.00560465)
(1.02931 0.0077163 -0.00541476)
(1.02888 0.0077317 -0.00541362)
(1.02891 0.00807027 -0.00566122)
(1.02821 0.00828775 -0.00512589)
(1.02796 0.0083551 -0.00430756)
(1.02772 0.00875603 -0.00434525)
(1.02728 0.00846493 -0.00424978)
(1.02674 0.00830239 -0.00484279)
(1.02612 0.00800516 -0.00490596)
(1.02548 0.00783275 -0.00444123)
(1.02544 0.00788202 -0.00428235)
(1.02503 0.00839091 -0.00359161)
(1.02443 0.00789937 -0.00295531)
(1.03 0.00779095 0.000848647)
(1.03095 0.00743957 0.000628101)
(1.0321 0.00751894 0.000723049)
(1.03409 0.00735186 0.000511595)
(1.03407 0.00724161 0.000492559)
(1.03498 0.00661168 0.000109349)
(1.03542 0.00663062 3.59984e-05)
(1.03655 0.0070933 0.000778049)
(1.03664 0.00668508 0.000966021)
(1.03679 0.00654643 0.0013831)
(1.03676 0.00596971 0.000952521)
(1.03721 0.00544449 0.000495208)
(1.03753 0.00580825 0.000325898)
(1.03841 0.00593464 -0.000399945)
(1.04041 0.00692887 -0.000346069)
(1.04174 0.00686673 0.000360327)
(1.04314 0.0073903 0.000567975)
(1.04331 0.00717595 0.00193336)
(1.04426 0.00768418 0.00151929)
(1.04498 0.00775022 0.00138095)
(1.04667 0.00827 0.00114726)
(1.04759 0.00811926 0.00103716)
(1.04762 0.00864651 0.000935662)
(1.04751 0.00896767 0.000378205)
(1.0472 0.00953588 -0.000192464)
(1.04615 0.00914612 -8.088e-05)
(1.04457 0.00919373 -0.00017826)
(1.04343 0.00918753 0.00020604)
(1.04186 0.00897646 -0.000100819)
(1.04065 0.00915228 -0.000475044)
(1.03823 0.00946245 0.000104088)
(1.03644 0.00926959 0.00120017)
(1.03483 0.00981427 0.000677485)
(1.03353 0.00930724 0.000790249)
(1.0321 0.0089525 -0.000196731)
(1.03123 0.00843061 -0.000250933)
(1.02958 0.00801235 3.09549e-05)
(1.02943 0.00796978 0.00022609)
(1.02911 0.00860548 0.000661698)
(1.02887 0.00788728 0.00143383)
(1.04274 0.006664 0.00770907)
(1.0429 0.00626207 0.00791667)
(1.04429 0.00638702 0.00794918)
(1.04658 0.00599307 0.00857551)
(1.04582 0.00603715 0.00877449)
(1.04601 0.00557613 0.0087104)
(1.0445 0.00626349 0.00856694)
(1.04636 0.00678808 0.00946351)
(1.04628 0.00634393 0.00972493)
(1.04644 0.00641216 0.0104318)
(1.04595 0.00577708 0.00977182)
(1.04525 0.00500061 0.00963758)
(1.04389 0.0052092 0.00886063)
(1.04208 0.00534893 0.00872821)
(1.04417 0.00693877 0.00885481)
(1.04518 0.00705176 0.00978151)
(1.04817 0.00806356 0.00980414)
(1.04911 0.00811535 0.0118577)
(1.05124 0.0087227 0.0112815)
(1.05334 0.00846789 0.011094)
(1.05541 0.00892005 0.0108239)
(1.05705 0.00861577 0.0113036)
(1.05642 0.00920612 0.0116237)
(1.05676 0.00937563 0.0116519)
(1.05623 0.00991746 0.0114031)
(1.05497 0.00931566 0.0122837)
(1.05251 0.00930922 0.0122161)
(1.05064 0.00909492 0.012609)
(1.04826 0.00884614 0.0107589)
(1.04653 0.00869041 0.00941231)
(1.04376 0.00915557 0.00909546)
(1.04142 0.00859183 0.0103699)
(1.04013 0.00902072 0.00978451)
(1.04089 0.0079943 0.0104622)
(1.04144 0.00767933 0.00938084)
(1.04261 0.00718365 0.00921733)
(1.04175 0.00689012 0.00840724)
(1.04254 0.00695442 0.00826548)
(1.04298 0.00799949 0.0080866)
(1.04276 0.00703698 0.00882058)
(1.04059 0.00411861 0.0177701)
(1.04003 0.00338262 0.0179772)
(1.04114 0.00346225 0.0183532)
(1.0412 0.0025756 0.0193697)
(1.03982 0.00285603 0.0207565)
(1.03852 0.00249269 0.0206249)
(1.03663 0.00335073 0.0204368)
(1.04145 0.00331502 0.0219813)
(1.04141 0.00301272 0.021506)
(1.04079 0.00322622 0.0211235)
(1.03958 0.00314487 0.0188204)
(1.03541 0.00232142 0.0181816)
(1.03333 0.00274389 0.0178469)
(1.02775 0.0024994 0.0187036)
(1.03308 0.00421971 0.0194502)
(1.0345 0.0038908 0.0204325)
(1.04116 0.00496178 0.0210624)
(1.04192 0.00490488 0.0232176)
(1.04681 0.00517265 0.0228345)
(1.04882 0.00456072 0.0225067)
(1.05157 0.00501964 0.022491)
(1.05305 0.00440271 0.0235777)
(1.05169 0.00489563 0.0240701)
(1.05103 0.00471742 0.0242746)
(1.05146 0.00570701 0.0237835)
(1.05081 0.00488777 0.025112)
(1.04915 0.00468792 0.0258446)
(1.04616 0.00429953 0.0254215)
(1.04569 0.00403689 0.0232145)
(1.0425 0.00363379 0.0211372)
(1.04281 0.00436886 0.0207809)
(1.0385 0.00360275 0.0219065)
(1.04011 0.00367106 0.0215155)
(1.03996 0.00241116 0.0215552)
(1.04045 0.00302751 0.0197227)
(1.04038 0.00335056 0.0188137)
(1.04012 0.00408721 0.0175283)
(1.04007 0.00436272 0.0173774)
(1.04151 0.00564515 0.0170445)
(1.04148 0.0045384 0.0185197)
(1.02003 0.000792725 0.0214739)
(1.01967 0.000325757 0.0209698)
(1.01935 0.000309732 0.0219332)
(1.01772 -0.000458948 0.0226474)
(1.01709 -0.000220301 0.0248861)
(1.01621 -0.000551637 0.0227639)
(1.01759 8.35045e-05 0.0234875)
(1.02118 -0.000287218 0.024822)
(1.02019 -0.000230699 0.0232879)
(1.01739 0.000373642 0.0215748)
(1.01889 0.000652007 0.0184124)
(1.01377 0.000249928 0.0176906)
(1.01442 0.000872729 0.0178961)
(1.00827 0.000774501 0.0182541)
(1.01764 0.00245517 0.0200144)
(1.0179 0.00198038 0.0220726)
(1.02302 0.00256376 0.0257834)
(1.02035 0.00213619 0.028884)
(1.02492 0.00148835 0.0300423)
(1.02481 0.000264757 0.0298579)
(1.03025 -2.05567e-05 0.0312472)
(1.02991 -0.00111112 0.031399)
(1.03124 -0.000745007 0.0311787)
(1.02949 -0.00135022 0.0291558)
(1.03288 -0.000470212 0.0280511)
(1.03191 -0.00133017 0.0286297)
(1.0291 -0.00112856 0.0295516)
(1.02722 -0.00124042 0.0282232)
(1.02732 -0.00177195 0.0278282)
(1.02005 -0.00212169 0.0263561)
(1.0245 -0.000971011 0.0277938)
(1.01757 -0.00139332 0.0277114)
(1.02327 -0.00122788 0.0272415)
(1.01591 -0.00177983 0.0251872)
(1.01674 -0.000597582 0.0228744)