/*--------------------------------*- C++ -*----------------------------------*\
  =========                 |
  \\      /  F ield         | OpenFOAM: The Open Source CFD Toolbox
   \\    /   O peration     | Website:  https://openfoam.org
    \\  /    A nd           | Version:  10
     \\/     M anipulation  |
\*---------------------------------------------------------------------------*/
FoamFile
{
    format      ascii;
    class       volScalarField;
    location    "45";
    object      pMean;
}
// * * * * * * * * * * * * * * * * * * * * * * * * * * * * * * * * * * * * * //

dimensions      [0 2 -2 0 0 0 0];

internalField   nonuniform List<scalar> 
25600
(
-1.904e-07
-1.75512e-07
-1.54528e-07
-1.31392e-07
-1.74101e-07
-1.04871e-07
-1.28562e-07
-1.50072e-07
-7.34318e-08
-1.39116e-07
-1.02862e-07
-8.23102e-08
-1.20484e-07
-8.66885e-08
-9.52371e-08
-7.56428e-08
-1.06801e-07
-4.40889e-08
-1.01176e-07
-9.35371e-08
-3.97793e-09
-1.63404e-07
-3.91459e-11
-9.07155e-08
-1.31554e-07
-4.38864e-09
-1.52944e-07
-9.74051e-08
-8.41431e-08
-1.38519e-07
-1.32964e-07
-1.1421e-07
-1.54734e-07
-1.82346e-07
-1.09919e-07
-2.23092e-07
-1.55607e-07
-1.66115e-07
-2.31045e-07
-1.43559e-07
-1.98608e-07
-1.7825e-07
-1.78093e-07
-1.44674e-07
-1.95661e-07
-1.22176e-07
-1.69204e-07
-1.47807e-07
-1.18372e-07
-1.43589e-07
-1.15608e-07
-1.07866e-07
-1.07929e-07
-1.03888e-07
-8.36871e-08
-8.06564e-08
-8.22558e-08
-4.69427e-08
-8.44471e-08
-6.28282e-08
-1.1664e-08
-1.26029e-07
1.06731e-08
-8.61379e-08
-9.62812e-08
-4.28004e-09
-1.32026e-07
-7.70375e-08
-7.7815e-08
-1.28217e-07
-1.20444e-07
-1.15918e-07
-1.67287e-07
-1.6475e-07
-1.52036e-07
-2.19717e-07
-1.61352e-07
-2.12333e-07
-2.08243e-07
-1.78082e-07
-1.97853e-07
-1.83322e-07
-1.91662e-07
-1.66918e-07
-1.95456e-07
-1.46356e-07
-1.97979e-07
-1.41917e-07
-1.72047e-07
-1.47049e-07
-1.3137e-07
-1.45941e-07
-8.90334e-08
-1.31263e-07
-6.96171e-08
-8.25884e-08
-5.73245e-08
-4.85713e-08
-6.85858e-08
-2.79121e-08
-3.28054e-08
-6.66135e-08
1.13315e-08
-7.64765e-08
-4.36681e-08
-1.95173e-08
-9.5237e-08
-5.32717e-08
-7.93817e-08
-1.10045e-07
-1.13153e-07
-1.27463e-07
-1.82311e-07
-1.53717e-07
-2.1151e-07
-2.0611e-07
-1.89073e-07
-2.47234e-07
-1.85943e-07
-2.11941e-07
-1.96215e-07
-1.82946e-07
-1.98376e-07
-1.86025e-07
-1.88116e-07
-1.76348e-07
-2.23973e-07
-1.47984e-07
-2.29353e-07
-1.5665e-07
-1.51716e-07
-1.82945e-07
-7.38846e-08
-1.53282e-07
-6.45195e-08
-7.59341e-08
-4.32307e-08
-4.5704e-08
-4.48007e-08
5.20835e-09
-4.22752e-08
-2.45581e-09
7.99305e-09
-5.95594e-08
9.81656e-09
-3.81286e-08
-5.32572e-08
-3.40216e-08
-8.34752e-08
-9.52525e-08
-1.09629e-07
-1.486e-07
-1.90339e-07
-1.55308e-07
-2.64135e-07
-1.95912e-07
-2.26339e-07
-2.7191e-07
-1.76649e-07
-2.38627e-07
-2.03458e-07
-1.91245e-07
-2.077e-07
-2.09705e-07
-1.87867e-07
-2.14648e-07
-2.5132e-07
-1.66842e-07
-2.76615e-07
-1.70474e-07
-1.69004e-07
-2.12363e-07
-6.57553e-08
-1.66651e-07
-7.03144e-08
-5.97974e-08
-3.8624e-08
-3.29156e-08
-1.1749e-08
3.77836e-08
-3.39077e-08
5.9102e-08
7.81441e-09
-3.36953e-08
5.47571e-08
-4.84943e-08
-1.32422e-08
-1.46642e-08
-8.41141e-08
-7.85892e-08
-1.04568e-07
-1.67593e-07
-1.87779e-07
-1.63848e-07
-2.97646e-07
-1.94065e-07
-2.6439e-07
-2.96833e-07
-1.84469e-07
-2.69568e-07
-2.08976e-07
-2.00201e-07
-2.20114e-07
-2.38461e-07
-1.98948e-07
-2.60987e-07
-2.80654e-07
-1.9584e-07
-3.12189e-07
-1.86668e-07
-1.83986e-07
-2.37924e-07
-6.54182e-08
-1.72973e-07
-7.49816e-08
-3.61814e-08
-3.33738e-08
-1.76697e-08
1.58194e-08
5.19867e-08
-2.32651e-08
1.01905e-07
1.03562e-08
-2.71904e-09
9.68388e-08
-3.80932e-08
3.43169e-08
1.74638e-08
-7.26495e-08
-5.52851e-08
-9.97277e-08
-1.84768e-07
-1.91388e-07
-1.90401e-07
-3.2848e-07
-2.09494e-07
-3.05239e-07
-3.16934e-07
-1.97683e-07
-2.86662e-07
-2.16469e-07
-2.03816e-07
-2.30093e-07
-2.59127e-07
-2.12444e-07
-3.01373e-07
-3.03531e-07
-2.26461e-07
-3.38686e-07
-2.05291e-07
-1.99259e-07
-2.51605e-07
-6.84927e-08
-1.69913e-07
-7.79377e-08
-1.41899e-08
-3.05755e-08
-6.41986e-09
3.71154e-08
5.38451e-08
-8.67328e-09
1.28513e-07
1.82384e-08
2.89431e-08
1.34242e-07
-1.35028e-08
8.50122e-08
5.62482e-08
-4.87209e-08
-2.93799e-08
-9.4378e-08
-1.97689e-07
-1.95407e-07
-2.25311e-07
-3.55738e-07
-2.47788e-07
-3.52281e-07
-3.46288e-07
-2.25181e-07
-3.00973e-07
-2.31073e-07
-2.1279e-07
-2.46355e-07
-2.84771e-07
-2.35028e-07
-3.4418e-07
-3.25234e-07
-2.59151e-07
-3.51127e-07
-2.19402e-07
-2.1042e-07
-2.50513e-07
-6.85801e-08
-1.59859e-07
-8.58471e-08
-1.1214e-08
-4.11626e-08
-2.57361e-09
5.78545e-08
6.26391e-08
2.03739e-08
1.54299e-07
4.10756e-08
6.78822e-08
1.73572e-07
2.67152e-08
1.38735e-07
9.97392e-08
-1.47262e-08
-3.32579e-09
-9.08748e-08
-2.1062e-07
-2.07983e-07
-2.71741e-07
-3.85698e-07
-2.99767e-07
-3.96967e-07
-3.795e-07
-2.58002e-07
-3.16801e-07
-2.45582e-07
-2.227e-07
-2.65233e-07
-3.07337e-07
-2.56872e-07
-3.83523e-07
-3.45573e-07
-2.97903e-07
-3.61335e-07
-2.36116e-07
-2.18994e-07
-2.43248e-07
-7.40354e-08
-1.56809e-07
-9.85608e-08
-2.20829e-08
-5.01408e-08
-1.11536e-09
7.46786e-08
7.09982e-08
5.37223e-08
1.76328e-07
7.7048e-08
1.12927e-07
2.20057e-07
8.16481e-08
1.99795e-07
1.49508e-07
2.51452e-08
2.14491e-08
-8.38327e-08
-2.18101e-07
-2.24061e-07
-3.23264e-07
-4.1643e-07
-3.60855e-07
-4.41913e-07
-4.16555e-07
-2.91792e-07
-3.26797e-07
-2.55963e-07
-2.26146e-07
-2.75601e-07
-3.26406e-07
-2.82581e-07
-4.24532e-07
-3.70516e-07
-3.43498e-07
-3.72018e-07
-2.55377e-07
-2.31416e-07
-2.40026e-07
-8.93303e-08
-1.58776e-07
-1.03914e-07
-3.08927e-08
-4.43041e-08
2.53445e-09
8.90235e-08
7.69308e-08
9.08062e-08
2.03808e-07
1.2649e-07
1.61445e-07
2.7486e-07
1.45017e-07
2.63966e-07
1.98056e-07
6.66188e-08
4.53176e-08
-7.23714e-08
-2.1787e-07
-2.35738e-07
-3.73468e-07
-4.51679e-07
-4.32773e-07
-4.89604e-07
-4.63816e-07
-3.31248e-07
-3.37973e-07
-2.6267e-07
-2.26912e-07
-2.81675e-07
-3.42095e-07
-2.99898e-07
-4.50576e-07
-3.78792e-07
-3.83442e-07
-3.75732e-07
-2.72937e-07
-2.48441e-07
-2.53374e-07
-1.2696e-07
-1.76947e-07
-1.12667e-07
-4.97632e-08
-3.50436e-08
2.15911e-09
1.01358e-07
8.45304e-08
1.33294e-07
2.37623e-07
1.90976e-07
2.17495e-07
3.40688e-07
2.17936e-07
3.32619e-07
2.49819e-07
1.14721e-07
7.01517e-08
-5.06235e-08
-2.10191e-07
-2.44117e-07
-4.1729e-07
-4.75539e-07
-4.93552e-07
-5.29585e-07
-5.16818e-07
-3.7494e-07
-3.50237e-07
-2.63369e-07
-2.24139e-07
-2.7531e-07
-3.40556e-07
-3.0594e-07
-4.75665e-07
-3.79486e-07
-4.18746e-07
-3.7221e-07
-2.96403e-07
-2.75884e-07
-2.7757e-07
-1.77041e-07
-2.05666e-07
-1.20249e-07
-6.67787e-08
-1.00918e-08
7.13095e-09
1.1428e-07
8.76058e-08
1.73048e-07
2.72981e-07
2.52652e-07
2.53955e-07
3.9546e-07
2.91429e-07
4.19233e-07
3.21662e-07
1.81438e-07
9.98228e-08
-2.7745e-08
-2.02181e-07
-2.40947e-07
-4.43139e-07
-4.86122e-07
-5.49168e-07
-5.62287e-07
-5.7181e-07
-4.14222e-07
-3.60259e-07
-2.49115e-07
-2.14449e-07
-2.65211e-07
-3.33926e-07
-2.91455e-07
-4.77598e-07
-3.67703e-07
-4.55431e-07
-3.73506e-07
-3.33772e-07
-3.11306e-07
-3.16837e-07
-2.43737e-07
-2.53549e-07
-1.39811e-07
-9.11191e-08
2.48604e-08
1.09967e-08
1.29391e-07
9.42369e-08
2.13884e-07
3.11607e-07
3.25049e-07
2.9325e-07
4.55105e-07
3.707e-07
5.2199e-07
4.05319e-07
2.64415e-07
1.40093e-07
1.30257e-08
-1.78297e-07
-2.23575e-07
-4.6455e-07
-4.86658e-07
-5.90922e-07
-5.86833e-07
-6.22906e-07
-4.38833e-07
-3.56926e-07
-2.11254e-07
-1.90833e-07
-2.47599e-07
-3.34316e-07
-2.6938e-07
-4.6741e-07
-3.43764e-07
-4.99942e-07
-3.89251e-07
-3.87145e-07
-3.59831e-07
-3.85175e-07
-3.2887e-07
-3.03251e-07
-1.54993e-07
-1.17526e-07
6.44699e-08
1.17774e-08
1.41739e-07
9.36864e-08
2.5048e-07
3.42058e-07
3.74933e-07
3.02836e-07
5.05306e-07
4.57544e-07
6.53318e-07
5.03197e-07
3.43485e-07
1.73557e-07
7.04799e-08
-1.32328e-07
-1.85247e-07
-4.82786e-07
-4.83412e-07
-6.31681e-07
-6.07996e-07
-6.78301e-07
-4.62213e-07
-3.47113e-07
-1.44983e-07
-1.61467e-07
-2.46062e-07
-3.52685e-07
-2.30845e-07
-4.41385e-07
-3.27052e-07
-5.65213e-07
-4.30626e-07
-4.85528e-07
-4.60521e-07
-5.09336e-07
-4.52308e-07
-3.69112e-07
-1.70491e-07
-1.48644e-07
9.45575e-08
-1.57561e-08
1.136e-07
7.21586e-08
2.73206e-07
3.54417e-07
3.85231e-07
2.56903e-07
5.20747e-07
5.4466e-07
8.07323e-07
5.94185e-07
3.98331e-07
1.89794e-07
1.23292e-07
-7.78825e-08
-1.36988e-07
-4.98879e-07
-4.7555e-07
-6.68144e-07
-6.4297e-07
-7.59389e-07
-5.03576e-07
-3.24362e-07
-1.16328e-07
-2.05782e-07
-3.17613e-07
-4.18492e-07
-1.97014e-07
-4.37084e-07
-3.67022e-07
-7.33835e-07
-5.80454e-07
-6.67371e-07
-6.55025e-07
-7.54214e-07
-6.71482e-07
-4.90086e-07
-1.83846e-07
-2.04324e-07
7.60959e-08
-1.39655e-07
-1.48272e-08
-2.56209e-08
2.28667e-07
2.80959e-07
2.95326e-07
1.08972e-07
4.70775e-07
5.86853e-07
9.2905e-07
6.15754e-07
3.75421e-07
1.62075e-07
1.53681e-07
-4.57548e-08
-1.4156e-07
-5.81322e-07
-4.95187e-07
-6.9877e-07
-7.32522e-07
-9.25457e-07
-6.11635e-07
-3.46601e-07
-2.4992e-07
-4.68322e-07
-6.10405e-07
-6.4058e-07
-2.35781e-07
-5.85759e-07
-6.38791e-07
-1.10513e-06
-8.98348e-07
-1.00775e-06
-1.05134e-06
-1.23442e-06
-1.08411e-06
-7.54568e-07
-2.811e-07
-3.62408e-07
-9.87223e-08
-4.42878e-07
-3.15069e-07
-2.78736e-07
3.01067e-08
2.17553e-08
-4.06032e-08
-2.38352e-07
3.17089e-07
5.38346e-07
9.15183e-07
4.21985e-07
1.60757e-07
2.26284e-10
8.52285e-08
-1.49709e-07
-3.05512e-07
-8.05058e-07
-6.35784e-07
-8.15331e-07
-9.77748e-07
-1.2627e-06
-8.67486e-07
-4.72565e-07
-7.10356e-07
-1.1351e-06
-1.28933e-06
-1.15671e-06
-5.56413e-07
-1.06116e-06
-1.3545e-06
-1.90386e-06
-1.60028e-06
-1.73371e-06
-1.87222e-06
-2.15692e-06
-1.90271e-06
-1.3394e-06
-6.49067e-07
-8.85608e-07
-6.199e-07
-1.10939e-06
-9.7084e-07
-8.67278e-07
-5.94773e-07
-7.41062e-07
-8.81133e-07
-1.0132e-06
-1.35076e-07
1.60933e-07
5.57915e-07
-1.78889e-07
-3.70653e-07
-4.087e-07
-2.46452e-07
-5.92857e-07
-8.40672e-07
-1.35838e-06
-1.07989e-06
-1.22541e-06
-1.59467e-06
-1.94877e-06
-1.41828e-06
-8.70475e-07
-1.78441e-06
-2.40602e-06
-2.57749e-06
-2.15903e-06
-1.34203e-06
-2.23022e-06
-2.7321e-06
-3.27926e-06
-2.86329e-06
-2.98935e-06
-3.35116e-06
-3.70203e-06
-3.23124e-06
-2.36306e-06
-1.44049e-06
-1.9433e-06
-1.70447e-06
-2.37354e-06
-2.1271e-06
-1.90925e-06
-1.78498e-06
-2.20562e-06
-2.41054e-06
-2.38568e-06
-1.10392e-06
-7.22693e-07
-4.33986e-07
-1.49483e-06
-1.41185e-06
-1.24674e-06
-1.09317e-06
-1.6693e-06
-1.94394e-06
-2.4335e-06
-1.98072e-06
-2.20561e-06
-2.84196e-06
-3.17764e-06
-2.47733e-06
-1.72092e-06
-3.38934e-06
-4.37012e-06
-4.4921e-06
-3.53747e-06
-2.51316e-06
-4.06667e-06
-4.70815e-06
-5.2607e-06
-4.74631e-06
-4.86505e-06
-5.62889e-06
-5.95372e-06
-5.12696e-06
-3.81561e-06
-2.58906e-06
-3.52322e-06
-3.37332e-06
-4.20777e-06
-3.79932e-06
-3.46257e-06
-3.56681e-06
-4.30808e-06
-4.659e-06
-4.22905e-06
-2.51002e-06
-2.11364e-06
-1.86924e-06
-3.27213e-06
-2.76554e-06
-2.41316e-06
-2.39303e-06
-3.36251e-06
-3.6237e-06
-3.89482e-06
-3.12593e-06
-3.66148e-06
-4.71297e-06
-4.89037e-06
-3.98174e-06
-2.92751e-06
-5.45598e-06
-6.5063e-06
-6.6585e-06
-5.12638e-06
-3.9399e-06
-6.14339e-06
-6.97287e-06
-7.56182e-06
-6.81014e-06
-7.05197e-06
-8.39211e-06
-8.64505e-06
-7.46682e-06
-5.50223e-06
-3.89521e-06
-5.28202e-06
-5.37036e-06
-6.48572e-06
-5.55257e-06
-5.23258e-06
-5.7579e-06
-6.78035e-06
-7.15366e-06
-6.26152e-06
-4.09327e-06
-3.82903e-06
-3.89525e-06
-5.43388e-06
-4.15945e-06
-3.74764e-06
-3.88144e-06
-5.50288e-06
-5.67164e-06
-5.59736e-06
-4.18933e-06
-5.23529e-06
-6.82693e-06
-6.77923e-06
-5.61816e-06
-4.36196e-06
-7.96084e-06
-9.41818e-06
-9.25601e-06
-6.78942e-06
-6.00286e-06
-8.63703e-06
-9.69227e-06
-1.02688e-05
-9.00106e-06
-9.47801e-06
-1.17328e-05
-1.16839e-05
-1.00586e-05
-7.52612e-06
-5.63057e-06
-7.5025e-06
-7.77396e-06
-9.2488e-06
-7.5427e-06
-7.06232e-06
-8.08936e-06
-9.34746e-06
-9.81529e-06
-8.08752e-06
-5.82468e-06
-5.48011e-06
-6.10539e-06
-7.71709e-06
-5.54454e-06
-5.15841e-06
-5.51751e-06
-7.96941e-06
-8.10602e-06
-7.44614e-06
-5.54493e-06
-7.01849e-06
-8.86858e-06
-8.82254e-06
-7.38605e-06
-5.96583e-06
-1.11839e-05
-1.23725e-05
-1.22849e-05
-8.55872e-06
-8.1359e-06
-1.18463e-05
-1.28944e-05
-1.35042e-05
-1.13935e-05
-1.21482e-05
-1.55186e-05
-1.53844e-05
-1.38109e-05
-9.81949e-06
-7.68723e-06
-1.01445e-05
-1.07451e-05
-1.22714e-05
-9.82173e-06
-9.97307e-06
-1.11264e-05
-1.26188e-05
-1.27513e-05
-1.01394e-05
-7.75476e-06
-8.46337e-06
-9.47615e-06
-1.04892e-05
-7.24747e-06
-7.22346e-06
-7.97725e-06
-1.1088e-05
-1.10065e-05
-1.00536e-05
-7.30587e-06
-9.55428e-06
-1.15131e-05
-1.08906e-05
-9.24766e-06
-8.08844e-06
-1.38434e-05
-1.5361e-05
-1.44732e-05
-1.00531e-05
-1.01975e-05
-1.36982e-05
-1.54812e-05
-1.58244e-05
-1.30972e-05
-1.43607e-05
-1.79771e-05
-1.79733e-05
-1.61934e-05
-1.22983e-05
-9.77088e-06
-1.26274e-05
-1.25299e-05
-1.43245e-05
-1.1183e-05
-1.16903e-05
-1.37086e-05
-1.56466e-05
-1.50598e-05
-1.12459e-05
-8.8374e-06
-9.29621e-06
-1.24609e-05
-1.3271e-05
-8.73745e-06
-8.45581e-06
-9.50788e-06
-1.38417e-05
-1.3308e-05
-1.14933e-05
-9.00244e-06
-1.15832e-05
-1.37868e-05
-1.30869e-05
-9.98368e-06
-9.56292e-06
-1.27119e-05
-1.41969e-05
-1.32294e-05
-7.32872e-06
-8.10836e-06
-1.26532e-05
-1.40419e-05
-1.44356e-05
-1.08876e-05
-1.27711e-05
-1.71384e-05
-1.70442e-05
-1.5508e-05
-9.57824e-06
-7.98875e-06
-1.17681e-05
-1.19907e-05
-1.32178e-05
-9.07379e-06
-1.05334e-05
-1.28147e-05
-1.59149e-05
-1.40856e-05
-9.04756e-06
-6.5756e-06
-8.83253e-06
-1.14963e-05
-1.16783e-05
-6.68352e-06
-7.19422e-06
-8.56195e-06
-1.38803e-05
-1.22337e-05
-1.05523e-05
-7.17926e-06
-1.14645e-05
-1.3065e-05
-1.16947e-05
-8.43387e-06
-7.00436e-06
-8.97774e-06
-1.05904e-05
-9.2026e-06
-2.44171e-06
-3.80964e-06
-8.48652e-06
-1.03708e-05
-9.79864e-06
-6.01284e-06
-8.37267e-06
-1.37148e-05
-1.31329e-05
-1.15873e-05
-4.93429e-06
-4.36186e-06
-8.67487e-06
-7.80432e-06
-9.27643e-06
-4.77068e-06
-6.20362e-06
-8.91561e-06
-1.35173e-05
-1.08981e-05
-4.9313e-06
-1.62335e-06
-3.88796e-06
-8.83238e-06
-8.55164e-06
-2.23266e-06
-3.08697e-06
-4.54919e-06
-9.63118e-06
-7.89014e-06
-5.74898e-06
-2.97939e-06
-8.63484e-06
-1.00374e-05
-8.12527e-06
-4.42751e-06
-3.37622e-06
-4.25246e-06
-4.3282e-06
-4.00491e-06
3.15207e-06
9.89091e-07
-3.50255e-06
-5.6129e-06
-4.756e-06
-9.61367e-08
-3.04731e-06
-7.97007e-06
-8.27759e-06
-6.37641e-06
-2.74646e-07
2.15857e-07
-4.12398e-06
-4.55777e-06
-4.89163e-06
9.4388e-07
-8.27187e-07
-3.92706e-06
-8.88877e-06
-5.87901e-06
-8.13071e-07
2.72168e-06
-4.22259e-07
-4.7816e-06
-3.7836e-06
2.22723e-06
1.59871e-06
-2.15185e-07
-6.26244e-06
-3.1684e-06
-7.95776e-07
1.38644e-06
-4.49503e-06
-5.73567e-06
-3.69205e-06
1.18918e-06
2.58392e-06
-1.02621e-06
-1.7869e-06
-9.14747e-07
6.67027e-06
4.33852e-06
1.22394e-08
-2.16105e-06
-5.0468e-07
3.70212e-06
1.20586e-06
-4.46033e-06
-4.41615e-06
-3.35101e-06
3.9001e-06
3.3731e-06
-8.08469e-07
-6.04663e-07
-1.34762e-06
4.58e-06
3.06713e-06
-1.88934e-07
-5.28584e-06
-2.45231e-06
3.34564e-06
6.27833e-06
3.41524e-06
-1.09328e-06
-2.94823e-07
6.22768e-06
4.85883e-06
2.82491e-06
-2.49619e-06
3.3668e-07
2.43986e-06
4.27873e-06
-1.28322e-06
-2.82048e-06
-4.72474e-07
4.42482e-06
5.72812e-06
2.45969e-07
-1.06653e-07
7.94711e-07
7.89909e-06
5.3666e-06
1.14534e-06
-1.12228e-06
9.4915e-07
5.09139e-06
2.88149e-06
-3.20732e-06
-2.82907e-06
-1.58353e-06
4.49311e-06
4.53719e-06
3.12447e-07
4.28447e-07
-1.11279e-07
5.53795e-06
4.40805e-06
1.36273e-06
-3.78408e-06
-6.84101e-07
4.29395e-06
7.3645e-06
4.49494e-06
9.10435e-07
1.36045e-06
7.26596e-06
5.86487e-06
4.13744e-06
-1.37785e-06
1.70259e-06
3.04089e-06
5.65263e-06
-7.51607e-08
-1.57721e-06
8.47833e-07
5.08625e-06
6.57802e-06
1.98294e-07
-2.61008e-07
5.62937e-07
7.38752e-06
5.1467e-06
1.14665e-06
-1.13694e-06
1.04077e-06
4.57548e-06
2.77133e-06
-3.14565e-06
-3.23703e-06
-2.08262e-06
4.09269e-06
4.33402e-06
-2.77072e-08
4.26378e-07
-3.31398e-07
5.61552e-06
3.85427e-06
1.53194e-06
-3.84498e-06
-9.97839e-07
3.9087e-06
7.03892e-06
4.31022e-06
1.03715e-06
1.07318e-06
6.85926e-06
5.48051e-06
3.99648e-06
-1.69984e-06
1.46174e-06
2.57202e-06
5.00386e-06
-4.76091e-07
-1.78633e-06
5.39315e-07
4.50493e-06
6.23549e-06
9.66859e-09
-4.71964e-07
3.42116e-07
6.73234e-06
4.2499e-06
8.57581e-07
-1.0925e-06
7.39426e-07
3.85551e-06
2.43081e-06
-3.32459e-06
-3.43816e-06
-2.44798e-06
3.52801e-06
3.82948e-06
-5.34443e-08
1.30106e-07
-6.81535e-07
5.01153e-06
3.4924e-06
1.39842e-06
-3.96689e-06
-1.39922e-06
3.30751e-06
6.31675e-06
3.87149e-06
8.75465e-07
7.81085e-07
6.12196e-06
4.68285e-06
3.6256e-06
-1.93823e-06
1.1775e-06
2.09918e-06
4.64544e-06
-6.52283e-07
-1.99719e-06
2.56415e-07
3.95109e-06
5.67738e-06
-1.07579e-07
-5.72596e-07
5.17725e-08
6.34788e-06
4.12799e-06
7.6146e-07
-1.26161e-06
4.72856e-07
3.42848e-06
2.21835e-06
-3.52968e-06
-3.62336e-06
-2.82574e-06
3.15844e-06
3.54706e-06
-2.9573e-07
-8.36475e-08
-9.30408e-07
4.63362e-06
3.15558e-06
1.21191e-06
-4.10271e-06
-1.6839e-06
2.87634e-06
6.0099e-06
3.66165e-06
7.79872e-07
4.92836e-07
5.77562e-06
4.4748e-06
3.4913e-06
-2.17846e-06
9.47542e-07
1.698e-06
4.34759e-06
-9.21081e-07
-2.13186e-06
-4.81089e-09
3.53455e-06
5.41583e-06
-1.76819e-07
-1.79506e-07
-1.52054e-07
-1.28188e-07
-1.78741e-07
-9.95047e-08
-1.2914e-07
-1.45734e-07
-7.23109e-08
-1.32342e-07
-9.59425e-08
-7.6507e-08
-1.13482e-07
-7.89095e-08
-9.20891e-08
-7.07012e-08
-1.00811e-07
-4.60517e-08
-9.02527e-08
-9.18437e-08
4.89675e-09
-1.55723e-07
1.57866e-09
-8.15791e-08
-1.30307e-07
2.1435e-09
-1.50222e-07
-8.45912e-08
-8.21725e-08
-1.26539e-07
-1.29319e-07
-1.06504e-07
-1.44493e-07
-1.79858e-07
-9.34387e-08
-2.11528e-07
-1.43466e-07
-1.50366e-07
-2.16016e-07
-1.42139e-07
-1.84971e-07
-1.89958e-07
-1.77982e-07
-1.43331e-07
-2.02934e-07
-1.12687e-07
-1.69956e-07
-1.41579e-07
-1.18803e-07
-1.38597e-07
-1.13389e-07
-1.06636e-07
-1.04147e-07
-9.75576e-08
-8.00781e-08
-6.99791e-08
-7.127e-08
-4.08288e-08
-6.87321e-08
-5.61527e-08
1.14344e-09
-1.1773e-07
1.77254e-08
-7.7836e-08
-8.99523e-08
5.48327e-10
-1.24249e-07
-6.77963e-08
-7.30625e-08
-1.19291e-07
-1.17451e-07
-1.08093e-07
-1.60547e-07
-1.57149e-07
-1.42955e-07
-2.02558e-07
-1.54037e-07
-1.98781e-07
-1.93143e-07
-1.8361e-07
-1.9117e-07
-2.03618e-07
-1.94462e-07
-1.71163e-07
-2.03044e-07
-1.40448e-07
-1.9971e-07
-1.37058e-07
-1.72258e-07
-1.4058e-07
-1.27154e-07
-1.40288e-07
-7.7709e-08
-1.16441e-07
-5.73288e-08
-6.23356e-08
-3.95728e-08
-3.06197e-08
-4.67059e-08
-1.22333e-08
-1.68874e-08
-5.78718e-08
2.06799e-08
-7.03407e-08
-3.4878e-08
-1.58268e-08
-8.56348e-08
-4.87792e-08
-7.28073e-08
-1.04719e-07
-1.10589e-07
-1.1985e-07
-1.79541e-07
-1.42447e-07
-2.11906e-07
-1.88548e-07
-1.89567e-07
-2.40222e-07
-1.78129e-07
-2.26544e-07
-1.98011e-07
-2.04643e-07
-1.97444e-07
-1.87759e-07
-1.8617e-07
-1.68624e-07
-2.18286e-07
-1.40371e-07
-2.22631e-07
-1.45215e-07
-1.40445e-07
-1.69775e-07
-5.33683e-08
-1.28642e-07
-4.09321e-08
-4.7878e-08
-2.06493e-08
-2.45936e-08
-2.48063e-08
2.14546e-08
-2.91149e-08
5.7169e-09
1.90093e-08
-5.44804e-08
1.88466e-08
-3.82324e-08
-4.8844e-08
-3.93958e-08
-8.31749e-08
-9.66731e-08
-1.11191e-07
-1.45637e-07
-1.97399e-07
-1.49209e-07
-2.74388e-07
-1.81665e-07
-2.33065e-07
-2.69122e-07
-1.77006e-07
-2.56625e-07
-2.06034e-07
-2.08962e-07
-2.0373e-07
-2.09314e-07
-1.7392e-07
-1.9866e-07
-2.2844e-07
-1.44444e-07
-2.52859e-07
-1.45578e-07
-1.49061e-07
-1.9395e-07
-4.16687e-08
-1.36528e-07
-4.23444e-08
-3.3317e-08
-2.22309e-08
-2.10222e-08
-5.09243e-09
4.637e-08
-2.54005e-08
6.92773e-08
2.32028e-08
-2.76557e-08
6.33084e-08
-5.55563e-08
-1.96864e-08
-3.48262e-08
-9.73115e-08
-9.20204e-08
-1.14372e-07
-1.72145e-07
-2.06062e-07
-1.69713e-07
-3.20588e-07
-1.88215e-07
-2.72006e-07
-2.89688e-07
-1.82156e-07
-2.7775e-07
-2.0879e-07
-2.0447e-07
-2.05321e-07
-2.27417e-07
-1.70232e-07
-2.36861e-07
-2.43698e-07
-1.6621e-07
-2.83598e-07
-1.64245e-07
-1.69238e-07
-2.20879e-07
-4.45409e-08
-1.44999e-07
-5.50969e-08
-2.00635e-08
-2.86838e-08
-1.28892e-08
1.866e-08
6.55863e-08
-8.47772e-09
1.23195e-07
3.36143e-08
5.87742e-09
9.94104e-08
-5.88295e-08
8.97428e-09
-2.5122e-08
-1.04425e-07
-8.60995e-08
-1.21351e-07
-2.00462e-07
-2.19068e-07
-2.05249e-07
-3.55415e-07
-2.08588e-07
-3.08625e-07
-3.07512e-07
-1.95695e-07
-2.86451e-07
-2.13972e-07
-1.97587e-07
-2.09085e-07
-2.41705e-07
-1.73918e-07
-2.72968e-07
-2.6037e-07
-1.99097e-07
-3.11215e-07
-1.8833e-07
-1.89299e-07
-2.38603e-07
-5.6922e-08
-1.52438e-07
-7.50549e-08
-1.68307e-08
-4.0879e-08
-6.95856e-09
4.2135e-08
7.83754e-08
1.58209e-08
1.59232e-07
4.14685e-08
3.01036e-08
1.19118e-07
-5.8323e-08
3.08789e-08
-1.58229e-08
-1.03734e-07
-7.79212e-08
-1.26217e-07
-2.22242e-07
-2.3038e-07
-2.4739e-07
-3.80416e-07
-2.41286e-07
-3.39201e-07
-3.21445e-07
-2.1139e-07
-2.86419e-07
-2.23577e-07
-1.9164e-07
-2.10866e-07
-2.50605e-07
-1.85727e-07
-3.12328e-07
-2.88176e-07
-2.53491e-07
-3.49161e-07
-2.27555e-07
-2.19382e-07
-2.57897e-07
-8.22013e-08
-1.60725e-07
-9.18525e-08
-1.34673e-08
-4.3107e-08
6.96848e-10
5.88713e-08
8.01133e-08
3.55382e-08
1.77132e-07
4.64573e-08
4.63113e-08
1.26238e-07
-5.09785e-08
5.09015e-08
-2.14212e-09
-9.4284e-08
-6.59684e-08
-1.30627e-07
-2.40665e-07
-2.46853e-07
-2.92453e-07
-3.98874e-07
-2.81065e-07
-3.64705e-07
-3.39682e-07
-2.37591e-07
-2.9104e-07
-2.36671e-07
-1.85965e-07
-2.14918e-07
-2.63477e-07
-2.10648e-07
-3.59005e-07
-3.2372e-07
-3.16963e-07
-3.8661e-07
-2.71728e-07
-2.5465e-07
-2.78411e-07
-1.13812e-07
-1.71662e-07
-1.09313e-07
-2.02506e-08
-4.67181e-08
-1.48429e-09
6.44383e-08
7.35987e-08
5.39405e-08
1.88147e-07
5.60251e-08
5.81601e-08
1.26741e-07
-3.63301e-08
7.50747e-08
1.92593e-08
-7.88693e-08
-5.93766e-08
-1.46235e-07
-2.7042e-07
-2.78696e-07
-3.44133e-07
-4.17148e-07
-3.29757e-07
-3.94424e-07
-3.70161e-07
-2.75757e-07
-3.02836e-07
-2.59615e-07
-1.97863e-07
-2.35755e-07
-2.89175e-07
-2.45469e-07
-4.09132e-07
-3.66816e-07
-3.87706e-07
-4.30184e-07
-3.29972e-07
-3.04193e-07
-3.07495e-07
-1.57834e-07
-1.93625e-07
-1.34888e-07
-4.71734e-08
-6.06176e-08
-2.26102e-08
5.59538e-08
6.26792e-08
7.14674e-08
1.92452e-07
6.639e-08
5.94065e-08
1.17978e-07
-2.29834e-08
9.62522e-08
3.97006e-08
-6.16411e-08
-6.29874e-08
-1.78438e-07
-3.16199e-07
-3.30135e-07
-4.08168e-07
-4.41175e-07
-3.8571e-07
-4.2346e-07
-4.07926e-07
-3.18157e-07
-3.19562e-07
-2.95452e-07
-2.22732e-07
-2.68174e-07
-3.28174e-07
-2.90974e-07
-4.68345e-07
-4.19687e-07
-4.69702e-07
-4.81897e-07
-4.02501e-07
-3.64314e-07
-3.47332e-07
-2.15913e-07
-2.31649e-07
-1.77288e-07
-1.01228e-07
-8.85942e-08
-6.08226e-08
3.54051e-08
4.04543e-08
7.54468e-08
1.76277e-07
5.95312e-08
4.04262e-08
9.94598e-08
-1.54685e-08
1.12193e-07
4.80982e-08
-5.51674e-08
-8.49829e-08
-2.32066e-07
-3.85357e-07
-4.05373e-07
-4.83719e-07
-4.66905e-07
-4.44174e-07
-4.59261e-07
-4.63857e-07
-3.75824e-07
-3.52522e-07
-3.65926e-07
-2.91132e-07
-3.40095e-07
-4.0072e-07
-3.6532e-07
-5.51259e-07
-4.84766e-07
-5.57243e-07
-5.37756e-07
-4.93984e-07
-4.53216e-07
-4.20027e-07
-2.94466e-07
-2.87109e-07
-2.3818e-07
-1.87502e-07
-1.41168e-07
-1.25191e-07
-5.9934e-09
-9.34785e-09
4.90371e-08
1.29513e-07
3.90927e-08
2.18205e-09
6.94352e-08
-2.09669e-08
1.15645e-07
4.02211e-08
-7.02502e-08
-1.43019e-07
-3.30267e-07
-4.96311e-07
-5.11151e-07
-5.8326e-07
-5.08388e-07
-5.14235e-07
-5.12447e-07
-5.39563e-07
-4.47104e-07
-4.11801e-07
-4.75291e-07
-3.96736e-07
-4.47437e-07
-5.19347e-07
-4.80393e-07
-6.64125e-07
-5.75179e-07
-6.71279e-07
-6.13903e-07
-6.10649e-07
-5.69145e-07
-5.2644e-07
-4.02964e-07
-3.8274e-07
-3.30529e-07
-3.12105e-07
-2.24651e-07
-2.23925e-07
-8.73852e-08
-1.16821e-07
-3.21696e-08
4.84152e-08
-7.66539e-09
-7.09322e-08
1.76967e-08
-4.478e-08
1.07997e-07
-1.70866e-09
-1.40587e-07
-2.75589e-07
-4.88304e-07
-6.57602e-07
-6.44497e-07
-7.03726e-07
-5.6629e-07
-5.99452e-07
-5.9005e-07
-6.55051e-07
-5.60617e-07
-5.21839e-07
-6.42082e-07
-5.64503e-07
-6.14071e-07
-6.97478e-07
-6.40897e-07
-8.15512e-07
-7.01498e-07
-8.37431e-07
-7.52965e-07
-7.93998e-07
-7.3915e-07
-6.86116e-07
-5.68804e-07
-5.52258e-07
-4.91854e-07
-5.02977e-07
-3.53921e-07
-3.76175e-07
-2.41245e-07
-3.05616e-07
-1.80913e-07
-8.53699e-08
-9.99424e-08
-1.98629e-07
-7.71193e-08
-1.02738e-07
6.97356e-08
-1.10849e-07
-3.02464e-07
-5.10997e-07
-7.21471e-07
-8.86109e-07
-8.3454e-07
-8.82237e-07
-6.73424e-07
-7.22233e-07
-7.13661e-07
-8.40189e-07
-7.50898e-07
-7.08806e-07
-8.898e-07
-8.34692e-07
-8.90066e-07
-9.82733e-07
-8.73002e-07
-1.01715e-06
-8.93149e-07
-1.09004e-06
-9.81577e-07
-1.05864e-06
-9.92191e-07
-9.34888e-07
-8.1156e-07
-8.23181e-07
-7.4826e-07
-7.89817e-07
-5.49571e-07
-6.21803e-07
-4.98338e-07
-6.14298e-07
-4.30439e-07
-3.02111e-07
-2.81302e-07
-4.24906e-07
-2.35538e-07
-2.20234e-07
-3.17628e-08
-3.3047e-07
-5.99522e-07
-8.70758e-07
-1.04785e-06
-1.21003e-06
-1.12058e-06
-1.16281e-06
-8.56485e-07
-9.17993e-07
-9.26193e-07
-1.14438e-06
-1.03227e-06
-9.91038e-07
-1.27661e-06
-1.2761e-06
-1.34525e-06
-1.4305e-06
-1.20946e-06
-1.31587e-06
-1.2033e-06
-1.49292e-06
-1.34367e-06
-1.43366e-06
-1.37422e-06
-1.33046e-06
-1.20863e-06
-1.27777e-06
-1.15481e-06
-1.22578e-06
-8.878e-07
-1.06247e-06
-9.60395e-07
-1.11373e-06
-8.30178e-07
-6.72023e-07
-6.16655e-07
-8.07859e-07
-5.12891e-07
-4.57025e-07
-2.72704e-07
-7.32126e-07
-1.09732e-06
-1.39088e-06
-1.49082e-06
-1.70296e-06
-1.57388e-06
-1.6128e-06
-1.16304e-06
-1.2294e-06
-1.27687e-06
-1.64212e-06
-1.50799e-06
-1.43597e-06
-1.87831e-06
-2.00735e-06
-2.08983e-06
-2.12795e-06
-1.71811e-06
-1.81405e-06
-1.76564e-06
-2.17023e-06
-1.93821e-06
-2.01611e-06
-1.97281e-06
-1.9456e-06
-1.86276e-06
-1.98028e-06
-1.76709e-06
-1.8792e-06
-1.44499e-06
-1.79652e-06
-1.70071e-06
-1.85788e-06
-1.45095e-06
-1.29323e-06
-1.22279e-06
-1.44767e-06
-9.52129e-07
-8.89311e-07
-7.82699e-07
-1.47381e-06
-1.87411e-06
-2.13738e-06
-2.14178e-06
-2.43532e-06
-2.28722e-06
-2.3227e-06
-1.67068e-06
-1.76495e-06
-1.89465e-06
-2.42437e-06
-2.20219e-06
-2.08754e-06
-2.83436e-06
-3.16004e-06
-3.19924e-06
-3.17095e-06
-2.48496e-06
-2.64515e-06
-2.77351e-06
-3.34644e-06
-2.90657e-06
-2.8792e-06
-2.94869e-06
-2.93602e-06
-2.93111e-06
-3.06736e-06
-2.68646e-06
-2.86841e-06
-2.42444e-06
-3.02846e-06
-2.86839e-06
-2.97027e-06
-2.46756e-06
-2.33801e-06
-2.22175e-06
-2.42481e-06
-1.67901e-06
-1.68314e-06
-1.71954e-06
-2.75801e-06
-3.094e-06
-3.21354e-06
-3.12628e-06
-3.59005e-06
-3.40982e-06
-3.38613e-06
-2.4869e-06
-2.66176e-06
-2.95061e-06
-3.72906e-06
-3.28471e-06
-3.08066e-06
-4.3165e-06
-4.90723e-06
-4.79701e-06
-4.59541e-06
-3.57001e-06
-3.99394e-06
-4.32278e-06
-5.05983e-06
-4.31067e-06
-4.12443e-06
-4.40103e-06
-4.40686e-06
-4.56088e-06
-4.61197e-06
-3.96014e-06
-4.28798e-06
-3.87803e-06
-4.87831e-06
-4.57115e-06
-4.54844e-06
-3.96465e-06
-3.9247e-06
-3.73765e-06
-3.79341e-06
-2.71123e-06
-2.93756e-06
-3.23702e-06
-4.65336e-06
-4.81109e-06
-4.6914e-06
-4.60452e-06
-5.34963e-06
-5.07857e-06
-4.91324e-06
-3.65972e-06
-3.98512e-06
-4.58447e-06
-5.6423e-06
-4.83317e-06
-4.54377e-06
-6.35326e-06
-7.3822e-06
-7.02157e-06
-6.45194e-06
-4.95848e-06
-5.96188e-06
-6.56336e-06
-7.46437e-06
-6.02588e-06
-5.82064e-06
-6.39833e-06
-6.36796e-06
-6.68466e-06
-6.47797e-06
-5.64138e-06
-6.17239e-06
-5.94682e-06
-7.32845e-06
-6.83531e-06
-6.68748e-06
-6.09041e-06
-6.14419e-06
-5.70061e-06
-5.50972e-06
-4.08501e-06
-4.66243e-06
-5.38725e-06
-7.12353e-06
-6.96114e-06
-6.60726e-06
-6.65358e-06
-7.74799e-06
-7.34028e-06
-6.91341e-06
-5.34675e-06
-5.85293e-06
-6.89939e-06
-8.20206e-06
-6.75e-06
-6.41553e-06
-8.78514e-06
-1.03585e-05
-9.59167e-06
-8.57206e-06
-6.6701e-06
-8.39102e-06
-9.34353e-06
-1.02514e-05
-7.94748e-06
-7.85554e-06
-8.73998e-06
-8.75728e-06
-9.38276e-06
-8.4409e-06
-7.3389e-06
-8.34051e-06
-8.49274e-06
-1.04039e-05
-9.19649e-06
-9.02098e-06
-8.63807e-06
-8.88738e-06
-8.02857e-06
-7.30894e-06
-5.55573e-06
-6.69898e-06
-8.03058e-06
-1.00642e-05
-9.27966e-06
-8.78689e-06
-9.08886e-06
-1.06349e-05
-9.73139e-06
-8.99434e-06
-7.23898e-06
-8.12621e-06
-9.73157e-06
-1.11861e-05
-8.92396e-06
-8.58642e-06
-1.13237e-05
-1.34661e-05
-1.22397e-05
-1.06431e-05
-8.30937e-06
-1.09343e-05
-1.17172e-05
-1.26147e-05
-9.52528e-06
-9.81822e-06
-1.0933e-05
-1.14016e-05
-1.20826e-05
-1.05005e-05
-9.10126e-06
-1.03485e-05
-1.12449e-05
-1.32282e-05
-1.1792e-05
-1.1318e-05
-1.11003e-05
-1.15367e-05
-1.02843e-05
-8.75067e-06
-6.65803e-06
-8.58991e-06
-1.06179e-05
-1.29586e-05
-1.12406e-05
-1.06161e-05
-1.14792e-05
-1.36655e-05
-1.25462e-05
-1.09341e-05
-8.8053e-06
-9.93532e-06
-1.24635e-05
-1.38652e-05
-1.06775e-05
-1.05931e-05
-1.30113e-05
-1.54901e-05
-1.39219e-05
-1.1382e-05
-8.65551e-06
-1.21305e-05
-1.31277e-05
-1.38282e-05
-9.57594e-06
-1.06574e-05
-1.19126e-05
-1.29932e-05
-1.40745e-05
-1.09195e-05
-9.5553e-06
-1.12422e-05
-1.26325e-05
-1.51318e-05
-1.17481e-05
-1.19634e-05
-1.23402e-05
-1.31989e-05
-1.1304e-05
-9.34649e-06
-6.53266e-06
-9.44174e-06
-1.19343e-05
-1.41974e-05
-1.17784e-05
-1.11726e-05
-1.24091e-05
-1.53512e-05
-1.32635e-05
-1.20697e-05
-9.23397e-06
-1.11779e-05
-1.44783e-05
-1.51032e-05
-1.10384e-05
-1.14247e-05
-1.22894e-05
-1.5304e-05
-1.2885e-05
-1.00902e-05
-6.97416e-06
-1.13852e-05
-1.18508e-05
-1.231e-05
-7.08316e-06
-9.12403e-06
-1.06601e-05
-1.28081e-05
-1.33851e-05
-1.03928e-05
-8.63012e-06
-1.03639e-05
-1.23155e-05
-1.39869e-05
-1.05723e-05
-1.0148e-05
-1.13256e-05
-1.28431e-05
-1.0258e-05
-7.56053e-06
-5.08686e-06
-8.81586e-06
-1.13212e-05
-1.32876e-05
-9.8782e-06
-9.62362e-06
-1.2503e-05
-1.55314e-05
-1.29715e-05
-9.87741e-06
-7.24358e-06
-9.71009e-06
-1.33257e-05
-1.36116e-05
-8.66383e-06
-9.68451e-06
-1.01669e-05
-1.35737e-05
-1.08305e-05
-6.61561e-06
-3.62246e-06
-8.49117e-06
-9.07286e-06
-9.46892e-06
-3.73966e-06
-6.73477e-06
-8.52197e-06
-1.16011e-05
-1.20998e-05
-7.14623e-06
-6.34618e-06
-8.17178e-06
-1.09618e-05
-1.22762e-05
-7.10092e-06
-7.89688e-06
-9.57408e-06
-1.11093e-05
-8.85192e-06
-5.29464e-06
-1.81523e-06
-7.23217e-06
-9.41792e-06
-1.09583e-05
-6.11432e-06
-6.6801e-06
-9.75695e-06
-1.45389e-05
-1.06991e-05
-8.3893e-06
-4.34787e-06
-7.95732e-06
-1.21347e-05
-1.09344e-05
-5.27453e-06
-6.18482e-06
-8.34473e-06
-1.17002e-05
-8.50971e-06
-4.68419e-06
-1.87472e-06
-7.06975e-06
-7.74285e-06
-8.01021e-06
-1.71593e-06
-4.16631e-06
-7.05379e-06
-1.00645e-05
-1.028e-05
-6.538e-06
-4.80917e-06
-7.22947e-06
-1.05448e-05
-1.07031e-05
-5.50385e-06
-5.30624e-06
-8.57079e-06
-9.59117e-06
-6.85012e-06
-4.0474e-06