/*--------------------------------*- C++ -*----------------------------------*\
  =========                 |
  \\      /  F ield         | OpenFOAM: The Open Source CFD Toolbox
   \\    /   O peration     | Website:  https://openfoam.org
    \\  /    A nd           | Version:  10
     \\/     M anipulation  |
\*---------------------------------------------------------------------------*/
FoamFile
{
    format      ascii;
    class       volScalarField;
    location    "45";
    object      pPrime2Mean;
}
// * * * * * * * * * * * * * * * * * * * * * * * * * * * * * * * * * * * * * //

dimensions      [0 4 -4 0 0 0 0];

internalField   nonuniform List<scalar> 
25600
(
6.39058e-07
6.62093e-07
5.68411e-07
6.505e-07
6.35943e-07
5.74663e-07
7.14738e-07
7.15895e-07
6.26404e-07
6.90187e-07
7.90762e-07
7.66882e-07
6.77381e-07
7.28688e-07
8.16238e-07
7.14755e-07
6.5063e-07
7.00633e-07
7.29363e-07
6.90085e-07
5.7613e-07
6.29066e-07
7.07128e-07
6.84047e-07
7.07767e-07
7.23506e-07
7.73799e-07
8.32391e-07
8.19134e-07
7.27705e-07
7.22779e-07
8.04201e-07
7.28279e-07
6.69376e-07
7.13329e-07
7.08914e-07
6.76497e-07
6.85112e-07
6.887e-07
6.05248e-07
7.04373e-07
6.77471e-07
6.28223e-07
6.86829e-07
6.20976e-07
5.7667e-07
7.00402e-07
6.92396e-07
6.30478e-07
7.24481e-07
8.20853e-07
8.04256e-07
7.30675e-07
7.65358e-07
8.42767e-07
7.67612e-07
6.82428e-07
6.66175e-07
7.56204e-07
6.95227e-07
5.25423e-07
6.49585e-07
6.75742e-07
6.85469e-07
7.99549e-07
7.1172e-07
8.1114e-07
9.8167e-07
8.49322e-07
7.46075e-07
8.00865e-07
8.14078e-07
7.21011e-07
6.52406e-07
7.22484e-07
7.18351e-07
6.46241e-07
7.11847e-07
7.2105e-07
6.61111e-07
7.65938e-07
7.06953e-07
6.90711e-07
7.0271e-07
6.31522e-07
6.05837e-07
6.91966e-07
6.83566e-07
6.68721e-07
8.149e-07
8.74684e-07
8.48686e-07
8.47179e-07
8.46887e-07
8.52275e-07
8.32892e-07
7.34349e-07
6.48874e-07
7.76706e-07
6.92397e-07
5.22708e-07
6.45035e-07
6.30401e-07
7.49775e-07
8.80565e-07
7.21222e-07
9.33095e-07
1.13443e-06
9.02079e-07
8.21639e-07
8.83119e-07
8.36044e-07
7.26494e-07
6.44345e-07
7.31732e-07
7.20397e-07
6.43428e-07
7.50006e-07
7.73161e-07
7.50837e-07
8.29226e-07
7.80314e-07
7.85769e-07
7.50806e-07
6.90572e-07
6.80544e-07
7.10761e-07
6.71216e-07
7.44117e-07
9.46116e-07
9.13419e-07
9.29266e-07
1.03185e-06
9.25369e-07
8.62337e-07
9.21597e-07
7.89621e-07
6.66587e-07
7.97815e-07
6.94681e-07
5.5569e-07
6.13021e-07
6.24124e-07
8.58163e-07
9.31444e-07
8.07444e-07
1.12361e-06
1.26393e-06
1.00339e-06
9.57076e-07
9.74317e-07
8.78522e-07
7.47931e-07
6.5194e-07
7.37956e-07
7.18801e-07
6.61559e-07
7.94335e-07
8.43468e-07
8.437e-07
9.5008e-07
9.11537e-07
9.16324e-07
8.59591e-07
8.08333e-07
7.87708e-07
7.24094e-07
6.5165e-07
8.79569e-07
1.0939e-06
9.72171e-07
1.11334e-06
1.25418e-06
1.00515e-06
9.50436e-07
1.05564e-06
8.71456e-07
7.5586e-07
8.67008e-07
7.45308e-07
6.17995e-07
6.04208e-07
6.966e-07
9.92644e-07
1.02721e-06
1.03851e-06
1.37374e-06
1.40313e-06
1.17762e-06
1.1465e-06
1.09366e-06
9.49128e-07
7.90024e-07
6.78572e-07
7.41706e-07
7.3131e-07
7.30342e-07
8.84144e-07
9.43912e-07
9.68785e-07
1.10293e-06
1.07564e-06
1.11095e-06
1.04523e-06
9.60439e-07
9.14722e-07
7.53652e-07
6.91688e-07
1.05886e-06
1.21937e-06
1.1216e-06
1.40953e-06
1.45903e-06
1.1427e-06
1.12043e-06
1.16208e-06
9.7818e-07
9.28862e-07
1.00257e-06
8.60554e-07
7.09675e-07
6.31348e-07
7.8637e-07
1.09861e-06
1.18201e-06
1.35549e-06
1.63587e-06
1.58661e-06
1.42848e-06
1.39412e-06
1.2677e-06
1.07704e-06
8.97362e-07
7.33827e-07
7.43435e-07
7.62194e-07
8.25221e-07
9.84181e-07
1.06302e-06
1.12469e-06
1.28083e-06
1.28298e-06
1.36906e-06
1.28793e-06
1.16301e-06
1.08648e-06
8.52921e-07
8.47848e-07
1.31381e-06
1.4374e-06
1.4404e-06
1.73039e-06
1.63858e-06
1.37015e-06
1.38283e-06
1.35756e-06
1.17541e-06
1.15164e-06
1.19725e-06
1.03507e-06
8.38343e-07
7.06214e-07
9.24462e-07
1.26023e-06
1.38477e-06
1.61265e-06
1.81239e-06
1.74383e-06
1.67052e-06
1.64227e-06
1.45583e-06
1.22763e-06
1.02968e-06
8.3091e-07
8.3877e-07
9.03136e-07
9.74165e-07
1.09555e-06
1.21624e-06
1.32904e-06
1.48672e-06
1.55906e-06
1.66517e-06
1.53958e-06
1.40057e-06
1.29298e-06
1.00398e-06
1.05213e-06
1.56058e-06
1.71031e-06
1.83886e-06
2.06271e-06
1.85748e-06
1.66051e-06
1.65873e-06
1.60278e-06
1.46735e-06
1.47248e-06
1.44241e-06
1.20086e-06
9.57048e-07
8.5782e-07
1.21675e-06
1.65392e-06
1.76251e-06
1.85474e-06
1.84308e-06
1.75167e-06
1.79122e-06
1.80165e-06
1.56054e-06
1.27043e-06
1.07133e-06
8.94176e-07
9.36352e-07
1.02119e-06
1.06664e-06
1.19228e-06
1.39554e-06
1.53566e-06
1.78047e-06
1.86741e-06
1.94926e-06
1.85919e-06
1.78191e-06
1.66325e-06
1.31549e-06
1.37947e-06
1.89848e-06
2.10623e-06
2.31853e-06
2.37471e-06
2.12002e-06
2.05981e-06
2.00855e-06
1.81903e-06
1.65824e-06
1.62663e-06
1.54571e-06
1.29869e-06
1.12846e-06
1.22379e-06
1.79641e-06
2.28511e-06
2.35465e-06
2.36044e-06
2.21308e-06
2.09018e-06
2.16201e-06
2.18902e-06
1.98431e-06
1.73157e-06
1.47806e-06
1.24382e-06
1.24969e-06
1.30379e-06
1.35337e-06
1.5092e-06
1.71882e-06
1.82621e-06
1.98207e-06
2.22457e-06
2.41953e-06
2.40684e-06
2.31827e-06
2.08467e-06
1.64613e-06
1.75519e-06
2.32317e-06
2.67882e-06
3.05329e-06
3.00963e-06
2.67796e-06
2.62824e-06
2.45783e-06
2.19099e-06
2.0708e-06
2.06052e-06
1.93345e-06
1.67853e-06
1.54989e-06
1.67954e-06
2.24319e-06
2.74923e-06
2.89683e-06
2.914e-06
2.70871e-06
2.58957e-06
2.69688e-06
2.71431e-06
2.48483e-06
2.19833e-06
1.87902e-06
1.63672e-06
1.63734e-06
1.68483e-06
1.80564e-06
1.98146e-06
2.04823e-06
2.00236e-06
2.38158e-06
2.7092e-06
2.94818e-06
2.94053e-06
2.85109e-06
2.51174e-06
1.98552e-06
2.11361e-06
2.72436e-06
3.1585e-06
3.50479e-06
3.216e-06
2.87656e-06
2.97718e-06
2.80837e-06
2.52187e-06
2.4897e-06
2.65583e-06
2.66799e-06
2.33367e-06
2.10895e-06
2.21581e-06
2.77424e-06
3.34314e-06
3.56824e-06
3.62993e-06
3.44653e-06
3.35014e-06
3.48662e-06
3.51107e-06
3.29487e-06
2.98002e-06
2.52216e-06
2.12527e-06
2.00868e-06
1.98535e-06
2.09516e-06
2.27931e-06
2.34142e-06
2.31946e-06
2.7156e-06
3.02121e-06
3.33936e-06
3.3774e-06
3.26765e-06
2.83026e-06
2.36619e-06
2.6981e-06
3.36664e-06
3.76346e-06
3.97743e-06
3.64669e-06
3.53647e-06
3.82229e-06
3.61071e-06
3.31041e-06
3.32222e-06
3.51307e-06
3.56024e-06
3.28824e-06
3.13552e-06
3.23614e-06
3.76453e-06
4.41668e-06
4.55955e-06
4.38768e-06
4.11638e-06
4.08762e-06
4.37205e-06
4.47545e-06
4.20312e-06
3.75326e-06
3.20412e-06
2.76192e-06
2.52086e-06
2.37216e-06
2.46399e-06
2.7025e-06
2.78571e-06
2.7416e-06
3.17229e-06
3.57043e-06
3.92486e-06
3.96119e-06
3.88496e-06
3.46267e-06
3.09454e-06
3.50921e-06
4.11457e-06
4.53201e-06
4.86556e-06
4.77096e-06
5.0195e-06
5.35103e-06
4.86897e-06
4.3863e-06
4.30221e-06
4.48305e-06
4.69717e-06
4.58598e-06
4.51926e-06
4.60786e-06
5.08083e-06
5.71532e-06
5.61944e-06
5.1771e-06
4.77276e-06
4.73707e-06
5.08204e-06
5.08614e-06
4.64499e-06
4.15309e-06
3.55634e-06
3.09633e-06
2.86947e-06
2.79332e-06
3.05023e-06
3.37423e-06
3.40983e-06
3.23091e-06
4.27552e-06
4.70406e-06
5.06459e-06
5.13771e-06
5.0243e-06
4.46797e-06
4.04965e-06
4.57926e-06
5.18605e-06
5.68133e-06
6.373e-06
6.74669e-06
7.07515e-06
7.03372e-06
6.12931e-06
5.4788e-06
5.43338e-06
5.73307e-06
6.10663e-06
6.05971e-06
5.9228e-06
5.76877e-06
6.07093e-06
6.578e-06
6.32187e-06
5.78066e-06
5.40078e-06
5.44186e-06
5.80846e-06
5.79792e-06
5.36518e-06
4.93708e-06
4.27741e-06
3.82592e-06
3.68076e-06
3.71438e-06
4.11905e-06
4.48813e-06
4.51602e-06
4.30414e-06
5.70428e-06
6.06391e-06
6.32497e-06
6.30599e-06
6.17583e-06
5.69312e-06
5.50681e-06
6.19983e-06
6.62922e-06
6.88666e-06
7.52268e-06
8.02184e-06
8.35268e-06
8.12235e-06
7.14251e-06
6.57731e-06
6.67921e-06
7.10266e-06
7.35775e-06
7.16181e-06
6.98293e-06
6.77515e-06
7.0786e-06
7.48941e-06
7.11945e-06
6.52785e-06
6.23456e-06
6.313e-06
6.80146e-06
6.89363e-06
6.52439e-06
6.13538e-06
5.28564e-06
4.7582e-06
4.63664e-06
4.75818e-06
5.31099e-06
5.80379e-06
5.97608e-06
5.78736e-06
7.21995e-06
7.52464e-06
7.61249e-06
7.42671e-06
7.3499e-06
7.13628e-06
7.26821e-06
8.10895e-06
8.38367e-06
8.43515e-06
9.12437e-06
9.90039e-06
1.02983e-05
9.92548e-06
8.84935e-06
8.3833e-06
8.69415e-06
8.92111e-06
8.70279e-06
8.1978e-06
7.96292e-06
7.78694e-06
8.27498e-06
8.68525e-06
8.14849e-06
7.43361e-06
6.99324e-06
7.00008e-06
7.68842e-06
8.04911e-06
7.94589e-06
7.46106e-06
6.27315e-06
5.62745e-06
5.66503e-06
5.90165e-06
6.70249e-06
7.42994e-06
7.64602e-06
7.33828e-06
8.93116e-06
9.41397e-06
9.36003e-06
8.91347e-06
8.7634e-06
8.66115e-06
9.11415e-06
1.01882e-05
1.03862e-05
1.03223e-05
1.10541e-05
1.19335e-05
1.23786e-05
1.18877e-05
1.06785e-05
1.02602e-05
1.06491e-05
1.0676e-05
9.97957e-06
8.94382e-06
8.64137e-06
8.79669e-06
9.68855e-06
1.02146e-05
9.43972e-06
8.3148e-06
7.57987e-06
7.64592e-06
8.56467e-06
9.12089e-06
9.18085e-06
8.67636e-06
7.39931e-06
6.76026e-06
6.87769e-06
7.1839e-06
8.29865e-06
9.26018e-06
9.30843e-06
8.87436e-06
1.06806e-05
1.13241e-05
1.12568e-05
1.07401e-05
1.05231e-05
1.04111e-05
1.1184e-05
1.28008e-05
1.33246e-05
1.30803e-05
1.35656e-05
1.42332e-05
1.46305e-05
1.40348e-05
1.27489e-05
1.2225e-05
1.23742e-05
1.21259e-05
1.12272e-05
9.91036e-06
9.43336e-06
9.82756e-06
1.12049e-05
1.19147e-05
1.08085e-05
9.14468e-06
8.01172e-06
8.07405e-06
9.0747e-06
9.81334e-06
1.01798e-05
9.87649e-06
8.79648e-06
8.18542e-06
8.27344e-06
8.75605e-06
1.017e-05
1.12842e-05
1.11171e-05
1.05051e-05
1.30308e-05
1.36482e-05
1.34871e-05
1.27973e-05
1.25143e-05
1.24775e-05
1.34359e-05
1.52153e-05
1.58024e-05
1.53301e-05
1.57383e-05
1.62842e-05
1.64111e-05
1.57316e-05
1.4536e-05
1.40544e-05
1.4007e-05
1.3523e-05
1.24127e-05
1.08514e-05
1.03894e-05
1.1162e-05
1.27715e-05
1.35949e-05
1.23796e-05
1.05341e-05
9.41642e-06
9.5563e-06
1.04735e-05
1.1359e-05
1.21642e-05
1.20816e-05
1.11256e-05
1.04392e-05
1.03929e-05
1.07926e-05
1.22183e-05
1.34064e-05
1.32386e-05
1.26991e-05
1.55335e-05
1.60402e-05
1.55874e-05
1.46083e-05
1.44096e-05
1.44994e-05
1.54722e-05
1.72089e-05
1.77839e-05
1.73064e-05
1.78863e-05
1.82592e-05
1.80001e-05
1.73917e-05
1.65212e-05
1.59517e-05
1.55188e-05
1.48123e-05
1.35033e-05
1.19692e-05
1.17332e-05
1.2591e-05
1.43674e-05
1.54173e-05
1.42399e-05
1.24342e-05
1.16755e-05
1.17228e-05
1.22416e-05
1.32937e-05
1.48325e-05
1.49824e-05
1.36982e-05
1.28133e-05
1.2696e-05
1.29134e-05
1.41197e-05
1.53748e-05
1.52561e-05
1.50163e-05
1.75013e-05
1.80636e-05
1.74144e-05
1.63021e-05
1.61996e-05
1.6278e-05
1.72791e-05
1.91833e-05
1.98025e-05
1.93337e-05
1.99372e-05
1.99775e-05
1.93299e-05
1.89622e-05
1.83337e-05
1.75359e-05
1.68942e-05
1.61214e-05
1.47165e-05
1.32705e-05
1.31456e-05
1.42261e-05
1.64303e-05
1.77856e-05
1.6462e-05
1.46228e-05
1.41579e-05
1.41398e-05
1.44174e-05
1.54159e-05
1.73214e-05
1.75494e-05
1.62287e-05
1.53334e-05
1.518e-05
1.5203e-05
1.61556e-05
1.71965e-05
1.68125e-05
1.6706e-05
1.89258e-05
1.94936e-05
1.86845e-05
1.74508e-05
1.74311e-05
1.76257e-05
1.89341e-05
2.1073e-05
2.17037e-05
2.13353e-05
2.20144e-05
2.1876e-05
2.09487e-05
2.07168e-05
2.013e-05
1.91585e-05
1.82753e-05
1.74488e-05
1.60617e-05
1.45987e-05
1.45838e-05
1.59378e-05
1.84152e-05
1.99058e-05
1.86315e-05
1.68679e-05
1.65609e-05
1.64261e-05
1.65849e-05
1.73564e-05
1.92873e-05
1.92723e-05
1.80788e-05
1.72096e-05
1.69147e-05
1.69174e-05
1.78871e-05
1.87557e-05
1.80087e-05
1.79106e-05
2.00198e-05
2.06044e-05
1.96536e-05
1.83204e-05
1.84771e-05
1.87594e-05
2.0207e-05
2.25186e-05
2.33724e-05
2.32513e-05
2.37758e-05
2.33681e-05
2.21423e-05
2.21869e-05
2.19134e-05
2.09366e-05
1.97241e-05
1.87768e-05
1.73497e-05
1.57636e-05
1.56035e-05
1.70056e-05
1.95725e-05
2.13366e-05
2.0158e-05
1.8422e-05
1.83179e-05
1.81514e-05
1.82693e-05
1.91447e-05
2.12634e-05
2.1029e-05
1.9728e-05
1.87116e-05
1.83006e-05
1.83324e-05
1.95123e-05
2.03211e-05
1.9222e-05
1.89184e-05
2.10077e-05
2.14834e-05
2.03768e-05
1.90177e-05
1.959e-05
1.98286e-05
2.12625e-05
2.37509e-05
2.48311e-05
2.47925e-05
2.49589e-05
2.43476e-05
2.28301e-05
2.32576e-05
2.35228e-05
2.26466e-05
2.12303e-05
2.04144e-05
1.89161e-05
1.70805e-05
1.64787e-05
1.78177e-05
2.02879e-05
2.24004e-05
2.11442e-05
1.93076e-05
1.95763e-05
1.94213e-05
1.95474e-05
2.08254e-05
2.30686e-05
2.27012e-05
2.10757e-05
1.9813e-05
1.94635e-05
1.96032e-05
2.08933e-05
2.15738e-05
2.02785e-05
1.98554e-05
2.15112e-05
2.18561e-05
2.07566e-05
1.95155e-05
2.04533e-05
2.07319e-05
2.20031e-05
2.44961e-05
2.55172e-05
2.55616e-05
2.55426e-05
2.49346e-05
2.33723e-05
2.42034e-05
2.49085e-05
2.41073e-05
2.27456e-05
2.22274e-05
2.08054e-05
1.86427e-05
1.75624e-05
1.88641e-05
2.10875e-05
2.34168e-05
2.19609e-05
1.99314e-05
2.05073e-05
2.03445e-05
2.04712e-05
2.23138e-05
2.46378e-05
2.39912e-05
2.21538e-05
2.07748e-05
2.04028e-05
2.05956e-05
2.18604e-05
2.24103e-05
2.10407e-05
2.04841e-05
2.15192e-05
2.17097e-05
2.07931e-05
1.97411e-05
2.0803e-05
2.11412e-05
2.23703e-05
2.49741e-05
2.57585e-05
2.58933e-05
2.57705e-05
2.5291e-05
2.37465e-05
2.48523e-05
2.57251e-05
2.50219e-05
2.38687e-05
2.36099e-05
2.2437e-05
2.00195e-05
1.85498e-05
1.97165e-05
2.16718e-05
2.39686e-05
2.23151e-05
2.01713e-05
2.09149e-05
2.06109e-05
2.07317e-05
2.29353e-05
2.53742e-05
2.45538e-05
2.27334e-05
2.13414e-05
2.08979e-05
2.12165e-05
2.26796e-05
2.30642e-05
2.15763e-05
2.07809e-05
2.14556e-05
2.14228e-05
2.06197e-05
1.96293e-05
2.07369e-05
2.11648e-05
2.26058e-05
2.52983e-05
2.57898e-05
2.59925e-05
2.57342e-05
2.53422e-05
2.40597e-05
2.52441e-05
2.60091e-05
2.54824e-05
2.47159e-05
2.46341e-05
2.36507e-05
2.09333e-05
1.92455e-05
2.00807e-05
2.19683e-05
2.40012e-05
2.20727e-05
2.01911e-05
2.0856e-05
2.05134e-05
2.05569e-05
2.28963e-05
2.55331e-05
2.457e-05
2.2761e-05
2.14009e-05
2.10079e-05
2.15807e-05
2.32469e-05
2.34256e-05
2.19609e-05
2.08647e-05
2.13364e-05
2.12378e-05
2.03554e-05
1.94477e-05
2.05642e-05
2.10755e-05
2.26585e-05
2.54376e-05
2.57179e-05
2.58081e-05
2.54907e-05
2.51276e-05
2.40433e-05
2.53306e-05
2.59103e-05
2.55519e-05
2.5195e-05
2.52379e-05
2.43789e-05
2.15439e-05
1.97144e-05
2.01645e-05
2.19689e-05
2.38336e-05
2.17095e-05
2.00092e-05
2.05838e-05
2.03744e-05
2.03705e-05
2.28579e-05
2.54061e-05
2.42865e-05
2.25093e-05
2.0996e-05
2.06791e-05
2.15048e-05
2.34421e-05
2.34569e-05
2.20098e-05
2.08146e-05
2.10399e-05
2.0972e-05
2.01334e-05
1.92634e-05
2.04028e-05
2.09104e-05
2.24734e-05
2.53405e-05
2.54858e-05
2.54985e-05
2.51541e-05
2.48931e-05
2.3906e-05
2.51074e-05
2.56958e-05
2.54023e-05
2.52508e-05
2.53753e-05
2.45951e-05
2.18272e-05
1.98724e-05
2.00768e-05
2.17282e-05
2.33829e-05
2.12606e-05
1.96594e-05
2.01914e-05
2.01613e-05
2.01842e-05
2.26486e-05
2.50092e-05
2.38038e-05
2.20434e-05
2.04656e-05
2.01367e-05
2.10584e-05
2.31661e-05
2.32545e-05
2.17796e-05
2.05295e-05
2.07593e-05
2.07003e-05
1.9866e-05
1.90362e-05
2.01738e-05
2.05971e-05
2.21292e-05
2.49639e-05
2.51333e-05
2.51378e-05
2.48218e-05
2.45591e-05
2.36538e-05
2.47863e-05
2.53727e-05
2.50905e-05
2.49717e-05
2.51552e-05
2.44304e-05
2.17308e-05
1.97185e-05
1.98288e-05
2.13268e-05
2.29434e-05
2.0786e-05
1.92946e-05
1.97967e-05
1.99153e-05
2.00025e-05
2.24247e-05
2.46313e-05
2.33863e-05
2.16514e-05
2.00701e-05
1.97465e-05
2.05992e-05
2.26775e-05
2.28863e-05
2.15051e-05
2.02445e-05
2.05359e-05
2.04711e-05
1.96097e-05
1.88109e-05
1.9975e-05
2.03206e-05
2.18471e-05
2.4612e-05
2.48072e-05
2.47944e-05
2.45317e-05
2.42741e-05
2.33847e-05
2.44753e-05
2.50483e-05
2.47341e-05
2.46123e-05
2.48004e-05
2.41231e-05
2.15014e-05
1.9499e-05
1.95949e-05
2.10107e-05
2.26184e-05
2.04692e-05
1.90352e-05
1.95313e-05
1.97147e-05
1.98304e-05
2.22087e-05
2.42652e-05
2.30858e-05
2.13445e-05
1.97649e-05
1.94328e-05
2.0292e-05
2.23561e-05
2.2655e-05
2.1299e-05
2.00345e-05
2.03712e-05
2.03235e-05
1.94575e-05
1.86795e-05
1.98512e-05
2.01842e-05
2.17082e-05
2.44291e-05
2.46215e-05
2.45681e-05
2.43462e-05
2.41005e-05
2.32213e-05
2.43084e-05
2.48839e-05
2.45705e-05
2.44512e-05
2.46339e-05
2.39687e-05
2.13908e-05
1.93953e-05
1.94737e-05
2.08659e-05
2.24624e-05
2.03418e-05
1.89279e-05
1.94152e-05
1.95997e-05
1.97205e-05
2.2053e-05
2.40882e-05
2.29463e-05
2.11945e-05
1.96097e-05
1.92822e-05
2.01356e-05
2.21813e-05
2.25219e-05
2.11597e-05
1.98966e-05
6.51679e-07
6.43932e-07
5.60903e-07
6.47237e-07
6.21092e-07
5.70904e-07
7.21968e-07
7.21221e-07
6.30079e-07
7.06836e-07
7.89175e-07
7.59953e-07
6.92957e-07
7.17273e-07
7.93507e-07
7.18699e-07
6.56707e-07
6.96472e-07
7.28208e-07
7.0995e-07
5.94841e-07
6.13494e-07
7.19289e-07
7.14882e-07
6.80915e-07
7.11421e-07
7.98513e-07
8.23788e-07
8.06437e-07
7.32659e-07
7.30113e-07
8.13065e-07
7.22091e-07
6.77911e-07
7.38611e-07
7.09381e-07
6.87676e-07
7.08937e-07
6.81041e-07
6.11095e-07
7.17112e-07
6.59719e-07
6.21762e-07
6.87506e-07
6.00371e-07
5.73248e-07
7.19414e-07
6.92196e-07
6.3108e-07
7.48012e-07
8.08253e-07
7.89382e-07
7.51641e-07
7.393e-07
8.08544e-07
7.83559e-07
6.86555e-07
6.55469e-07
7.62906e-07
7.15673e-07
5.37859e-07
6.35489e-07
6.86166e-07
7.04849e-07
7.67837e-07
6.94694e-07
8.25268e-07
9.74146e-07
8.38223e-07
7.51839e-07
8.10753e-07
8.22067e-07
7.21663e-07
6.63797e-07
7.41865e-07
7.23617e-07
6.59088e-07
7.29542e-07
7.15897e-07
6.69892e-07
7.7093e-07
6.87864e-07
6.82771e-07
6.98413e-07
6.03679e-07
6.03847e-07
7.18667e-07
6.7998e-07
6.73713e-07
8.3753e-07
8.48042e-07
8.33094e-07
8.64499e-07
8.06968e-07
8.23045e-07
8.59549e-07
7.34999e-07
6.38227e-07
7.95175e-07
7.13142e-07
5.2193e-07
6.36915e-07
6.41986e-07
7.49488e-07
8.43997e-07
6.99355e-07
9.26483e-07
1.12185e-06
8.94087e-07
8.22643e-07
8.87205e-07
8.39556e-07
7.32993e-07
6.56128e-07
7.42075e-07
7.27247e-07
6.52634e-07
7.53647e-07
7.69717e-07
7.59295e-07
8.14806e-07
7.50772e-07
7.65365e-07
7.29949e-07
6.58284e-07
6.87437e-07
7.40293e-07
6.68694e-07
7.57013e-07
9.58093e-07
8.7554e-07
9.04876e-07
1.01682e-06
8.70296e-07
8.51858e-07
9.58123e-07
7.92305e-07
6.61133e-07
8.21756e-07
7.10541e-07
5.41224e-07
6.1096e-07
6.34645e-07
8.40643e-07
8.97466e-07
7.77076e-07
1.08895e-06
1.2453e-06
1.00064e-06
9.4758e-07
9.61913e-07
8.73886e-07
7.53615e-07
6.60713e-07
7.42356e-07
7.26582e-07
6.67104e-07
7.89135e-07
8.42787e-07
8.47165e-07
9.19643e-07
8.79676e-07
8.9441e-07
8.27488e-07
7.77881e-07
8.04098e-07
7.49253e-07
6.54853e-07
8.84092e-07
1.0684e-06
9.10512e-07
1.06837e-06
1.21246e-06
9.54774e-07
9.56087e-07
1.08489e-06
8.66678e-07
7.4288e-07
8.75593e-07
7.43507e-07
5.8689e-07
5.97414e-07
6.92851e-07
9.51526e-07
9.73429e-07
9.6508e-07
1.28652e-06
1.36309e-06
1.15956e-06
1.10989e-06
1.05915e-06
9.35596e-07
7.9585e-07
6.85407e-07
7.35482e-07
7.29183e-07
7.23996e-07
8.5786e-07
9.36567e-07
9.65585e-07
1.06882e-06
1.05028e-06
1.09736e-06
1.00858e-06
9.48591e-07
9.37076e-07
7.51209e-07
6.76663e-07
1.03614e-06
1.14958e-06
1.02259e-06
1.32463e-06
1.38743e-06
1.10082e-06
1.15289e-06
1.21808e-06
9.86465e-07
9.05986e-07
9.82997e-07
8.37117e-07
6.79638e-07
6.26206e-07
7.72207e-07
1.04665e-06
1.11057e-06
1.24444e-06
1.51513e-06
1.53854e-06
1.41968e-06
1.3547e-06
1.21769e-06
1.05486e-06
9.15599e-07
7.58608e-07
7.39195e-07
7.71182e-07
8.32752e-07
9.71128e-07
1.09385e-06
1.14815e-06
1.30642e-06
1.29888e-06
1.33571e-06
1.19844e-06
1.14424e-06
1.11897e-06
8.55088e-07
8.45954e-07
1.26247e-06
1.30135e-06
1.28975e-06
1.6381e-06
1.57443e-06
1.34781e-06
1.4136e-06
1.36353e-06
1.13862e-06
1.07963e-06
1.12038e-06
1.01596e-06
8.49088e-07
7.28014e-07
8.99695e-07
1.18252e-06
1.29979e-06
1.51601e-06
1.73798e-06
1.79246e-06
1.76638e-06
1.67921e-06
1.47015e-06
1.26863e-06
1.11308e-06
8.95693e-07
8.54796e-07
9.53502e-07
1.04288e-06
1.16665e-06
1.36162e-06
1.43863e-06
1.59588e-06
1.62791e-06
1.65111e-06
1.48132e-06
1.44628e-06
1.39103e-06
1.09016e-06
1.15711e-06
1.60489e-06
1.65848e-06
1.74607e-06
1.98048e-06
1.78624e-06
1.64195e-06
1.68078e-06
1.58395e-06
1.4237e-06
1.37472e-06
1.36603e-06
1.26552e-06
1.08185e-06
9.08093e-07
1.11566e-06
1.46229e-06
1.65308e-06
1.87825e-06
2.02301e-06
2.14428e-06
2.22425e-06
2.10595e-06
1.77813e-06
1.48218e-06
1.27944e-06
1.07675e-06
1.11412e-06
1.27175e-06
1.35701e-06
1.51281e-06
1.76848e-06
1.7871e-06
1.7774e-06
1.87582e-06
1.94786e-06
1.8552e-06
1.86662e-06
1.76301e-06
1.44064e-06
1.50196e-06
1.87914e-06
2.00582e-06
2.22749e-06
2.34532e-06
2.14678e-06
2.14768e-06
2.14208e-06
1.95633e-06
1.76851e-06
1.66382e-06
1.61664e-06
1.52199e-06
1.34151e-06
1.18441e-06
1.45682e-06
1.8481e-06
2.06014e-06
2.24168e-06
2.30807e-06
2.41519e-06
2.48721e-06
2.34177e-06
2.00516e-06
1.7292e-06
1.52049e-06
1.33332e-06
1.3988e-06
1.55499e-06
1.65977e-06
1.85767e-06
2.10014e-06
2.00928e-06
1.97735e-06
2.25123e-06
2.44831e-06
2.49403e-06
2.58236e-06
2.3895e-06
1.92295e-06
1.85615e-06
2.12898e-06
2.39971e-06
2.74926e-06
2.76821e-06
2.65656e-06
2.79636e-06
2.72515e-06
2.43547e-06
2.21829e-06
2.14511e-06
2.10405e-06
2.0045e-06
1.80774e-06
1.64923e-06
1.94711e-06
2.43003e-06
2.70504e-06
2.83608e-06
2.84902e-06
2.97107e-06
3.0066e-06
2.75852e-06
2.41353e-06
2.13543e-06
1.86953e-06
1.65543e-06
1.70779e-06
1.90837e-06
2.13516e-06
2.38566e-06
2.4587e-06
2.15243e-06
2.44801e-06
2.87906e-06
3.25133e-06
3.39346e-06
3.46573e-06
3.11829e-06
2.52753e-06
2.39822e-06
2.60197e-06
2.84007e-06
3.09411e-06
2.98292e-06
3.02741e-06
3.33837e-06
3.2859e-06
3.00908e-06
2.86674e-06
2.88702e-06
2.86839e-06
2.66136e-06
2.3581e-06
2.18928e-06
2.59345e-06
3.28449e-06
3.61529e-06
3.63385e-06
3.67047e-06
3.83293e-06
3.81931e-06
3.53205e-06
3.08652e-06
2.7734e-06
2.545e-06
2.34104e-06
2.31791e-06
2.55214e-06
2.84816e-06
3.07236e-06
3.03733e-06
2.59354e-06
3.13204e-06
3.68173e-06
4.10751e-06
4.28129e-06
4.27447e-06
3.70964e-06
3.02935e-06
2.97929e-06
3.18161e-06
3.38072e-06
3.51112e-06
3.30464e-06
3.46803e-06
3.92962e-06
3.9643e-06
3.72725e-06
3.69205e-06
3.91801e-06
3.99142e-06
3.76829e-06
3.43978e-06
3.24314e-06
3.67453e-06
4.41421e-06
4.67098e-06
4.61233e-06
4.69859e-06
4.81913e-06
4.86765e-06
4.61317e-06
4.08936e-06
3.73195e-06
3.48235e-06
3.18878e-06
3.13369e-06
3.33269e-06
3.51171e-06
3.68759e-06
3.62092e-06
3.17681e-06
3.99764e-06
4.66124e-06
5.15356e-06
5.46073e-06
5.38899e-06
4.58166e-06
3.75252e-06
3.61578e-06
3.76216e-06
4.07674e-06
4.32081e-06
4.29486e-06
4.63492e-06
5.19626e-06
5.12787e-06
4.82133e-06
4.88517e-06
5.32319e-06
5.61235e-06
5.50113e-06
5.06424e-06
4.70803e-06
5.08629e-06
5.86209e-06
5.99259e-06
5.70864e-06
5.52482e-06
5.50174e-06
5.65239e-06
5.58073e-06
5.1905e-06
4.89453e-06
4.5872e-06
4.30072e-06
4.38109e-06
4.5588e-06
4.59863e-06
4.67733e-06
4.4588e-06
3.9677e-06
5.2451e-06
5.98773e-06
6.38894e-06
6.58985e-06
6.33227e-06
5.2985e-06
4.3849e-06
4.27723e-06
4.47648e-06
4.93073e-06
5.30752e-06
5.51008e-06
5.94633e-06
6.29818e-06
5.89927e-06
5.64528e-06
6.01855e-06
6.69801e-06
7.11777e-06
6.91353e-06
6.2092e-06
5.88473e-06
6.61912e-06
7.50283e-06
7.25315e-06
6.51997e-06
5.96396e-06
5.74785e-06
6.21252e-06
6.52085e-06
6.27994e-06
6.07007e-06
5.74961e-06
5.61685e-06
5.90802e-06
6.11827e-06
6.07763e-06
5.99206e-06
5.62512e-06
5.11207e-06
6.67946e-06
7.40984e-06
7.52381e-06
7.34874e-06
6.81553e-06
5.85048e-06
5.16425e-06
5.10606e-06
5.35544e-06
5.9765e-06
6.4317e-06
6.6129e-06
6.90719e-06
7.12395e-06
6.69677e-06
6.82756e-06
7.58281e-06
8.29484e-06
8.54554e-06
8.09152e-06
7.41233e-06
7.39761e-06
8.4285e-06
9.2381e-06
8.55905e-06
7.28819e-06
6.3614e-06
6.06545e-06
6.81679e-06
7.43139e-06
7.35018e-06
7.21886e-06
6.8249e-06
6.78818e-06
7.32733e-06
7.68921e-06
7.60457e-06
7.34989e-06
6.90188e-06
6.40524e-06
7.94367e-06
8.58294e-06
8.56829e-06
8.30792e-06
7.74289e-06
6.85663e-06
6.32087e-06
6.17357e-06
6.01878e-06
6.47115e-06
7.21071e-06
7.69562e-06
8.24509e-06
8.54143e-06
7.99319e-06
8.18002e-06
8.936e-06
9.72499e-06
1.02449e-05
1.01049e-05
9.58225e-06
9.67358e-06
1.07288e-05
1.12298e-05
1.02987e-05
8.838e-06
7.64429e-06
7.1236e-06
7.79972e-06
8.47855e-06
8.5594e-06
8.40845e-06
7.84695e-06
7.76942e-06
8.46513e-06
8.96327e-06
9.13027e-06
9.08164e-06
8.48172e-06
7.76671e-06
8.88813e-06
9.59288e-06
9.5462e-06
9.30205e-06
8.80014e-06
8.13348e-06
7.83492e-06
7.59204e-06
7.04784e-06
7.39774e-06
8.37321e-06
9.19841e-06
1.01056e-05
1.02427e-05
9.49684e-06
9.60621e-06
1.03863e-05
1.13841e-05
1.21394e-05
1.19844e-05
1.1447e-05
1.19042e-05
1.29431e-05
1.31825e-05
1.21346e-05
1.06672e-05
9.32e-06
8.52531e-06
8.98314e-06
9.73653e-06
9.86252e-06
9.45637e-06
8.60671e-06
8.54166e-06
9.34816e-06
1.00335e-05
1.03486e-05
1.02969e-05
9.47905e-06
8.56627e-06
9.78486e-06
1.06359e-05
1.06649e-05
1.02726e-05
9.96312e-06
9.51347e-06
9.27276e-06
8.90425e-06
8.31785e-06
8.85171e-06
1.00768e-05
1.11396e-05
1.2008e-05
1.19e-05
1.11589e-05
1.12711e-05
1.20052e-05
1.30175e-05
1.37872e-05
1.35714e-05
1.34428e-05
1.4219e-05
1.46695e-05
1.46146e-05
1.37066e-05
1.22064e-05
1.07644e-05
9.8008e-06
1.00687e-05
1.08173e-05
1.10185e-05
1.05433e-05
9.57173e-06
9.38353e-06
1.01866e-05
1.10382e-05
1.13772e-05
1.13576e-05
1.05367e-05
9.47659e-06
1.11849e-05
1.18992e-05
1.17668e-05
1.13915e-05
1.14697e-05
1.10098e-05
1.0535e-05
1.02587e-05
9.95672e-06
1.04772e-05
1.1485e-05
1.22764e-05
1.32375e-05
1.3404e-05
1.28358e-05
1.27985e-05
1.32306e-05
1.40505e-05
1.49633e-05
1.49462e-05
1.51259e-05
1.57887e-05
1.55296e-05
1.55788e-05
1.51434e-05
1.37981e-05
1.25285e-05
1.16812e-05
1.17573e-05
1.23398e-05
1.24679e-05
1.20024e-05
1.09197e-05
1.06098e-05
1.14477e-05
1.25636e-05
1.30702e-05
1.33699e-05
1.24447e-05
1.11563e-05
1.30465e-05
1.35526e-05
1.3028e-05
1.26746e-05
1.29561e-05
1.26345e-05
1.20345e-05
1.18158e-05
1.15548e-05
1.1721e-05
1.25121e-05
1.31648e-05
1.43681e-05
1.46934e-05
1.41528e-05
1.39109e-05
1.4114e-05
1.51543e-05
1.65249e-05
1.66497e-05
1.62579e-05
1.60757e-05
1.55814e-05
1.62849e-05
1.66934e-05
1.57484e-05
1.48344e-05
1.42413e-05
1.39893e-05
1.4055e-05
1.41856e-05
1.39263e-05
1.2809e-05
1.24969e-05
1.34709e-05
1.48451e-05
1.56056e-05
1.6239e-05
1.50015e-05
1.32861e-05
1.48342e-05
1.51485e-05
1.42356e-05
1.38718e-05
1.43817e-05
1.42493e-05
1.34898e-05
1.33372e-05
1.30417e-05
1.29161e-05
1.36208e-05
1.39644e-05
1.49712e-05
1.54194e-05
1.51956e-05
1.50755e-05
1.52763e-05
1.66866e-05
1.83239e-05
1.82464e-05
1.74233e-05
1.68936e-05
1.63255e-05
1.76455e-05
1.87351e-05
1.79337e-05
1.71646e-05
1.65712e-05
1.58628e-05
1.56743e-05
1.61911e-05
1.62828e-05
1.51784e-05
1.51121e-05
1.62545e-05
1.77816e-05
1.87184e-05
1.90778e-05
1.67773e-05
1.48166e-05
1.60543e-05
1.63634e-05
1.54086e-05
1.5065e-05
1.57404e-05
1.56072e-05
1.47115e-05
1.47104e-05
1.42659e-05
1.40441e-05
1.46776e-05
1.45787e-05
1.5298e-05
1.59882e-05
1.63703e-05
1.64555e-05
1.66339e-05
1.82449e-05
1.98364e-05
1.9259e-05
1.81488e-05
1.78256e-05
1.78327e-05
1.99587e-05
2.14342e-05
2.05293e-05
1.94574e-05
1.85484e-05
1.74002e-05
1.75149e-05
1.859e-05
1.89713e-05
1.78092e-05
1.76954e-05
1.8788e-05
2.02921e-05
2.07069e-05
2.03795e-05
1.74064e-05
1.57786e-05
1.70973e-05
1.72662e-05
1.63256e-05
1.60746e-05
1.71417e-05
1.68268e-05
1.57956e-05
1.60517e-05
1.54445e-05
1.51708e-05
1.5754e-05
1.53511e-05
1.59238e-05
1.66957e-05
1.74413e-05
1.78043e-05
1.82118e-05
2.00149e-05
2.13551e-05
2.0109e-05
1.89375e-05
1.9024e-05
1.97733e-05
2.30047e-05
2.48419e-05
2.34033e-05
2.16012e-05
2.00182e-05
1.86354e-05
1.94376e-05
2.11482e-05
2.16156e-05
2.0164e-05
1.9875e-05
2.06591e-05
2.16504e-05
2.13882e-05
2.11303e-05
1.80337e-05
1.68596e-05
1.81232e-05
1.81819e-05
1.71435e-05
1.6991e-05
1.85538e-05
1.79425e-05
1.68555e-05
1.74218e-05
1.64467e-05
1.60613e-05
1.68404e-05
1.64584e-05
1.69629e-05
1.75527e-05
1.8233e-05
1.87989e-05
1.95431e-05
2.17208e-05
2.2819e-05
2.08894e-05
1.96552e-05
1.99918e-05
2.1547e-05
2.5575e-05
2.73785e-05
2.54968e-05
2.33132e-05
2.13086e-05
1.98584e-05
2.11839e-05
2.33586e-05
2.37567e-05
2.22425e-05
2.19562e-05
2.22196e-05
2.27425e-05
2.19016e-05
2.20021e-05
1.87832e-05
1.78659e-05
1.8993e-05
1.90169e-05
1.78611e-05
1.79293e-05
1.99903e-05
1.91976e-05
1.80865e-05
1.86883e-05
1.71284e-05
1.65625e-05
1.76537e-05
1.74798e-05
1.79768e-05
1.83617e-05
1.86222e-05
1.91058e-05
2.01014e-05
2.26357e-05
2.39393e-05
2.16246e-05
2.01272e-05
2.03965e-05
2.23784e-05
2.68954e-05
2.84863e-05
2.63432e-05
2.41783e-05
2.22993e-05
2.11e-05
2.26569e-05
2.49642e-05
2.51958e-05
2.37115e-05
2.36189e-05
2.35207e-05
2.38448e-05
2.22967e-05
2.26634e-05
1.93591e-05
1.85939e-05
1.95204e-05
1.95e-05
1.82502e-05
1.86289e-05
2.11755e-05
2.03059e-05
1.8968e-05
1.93844e-05
1.74962e-05
1.67379e-05
1.80416e-05
1.80838e-05
1.85194e-05
1.86983e-05
1.85507e-05
1.89405e-05
2.00742e-05
2.29527e-05
2.46896e-05
2.22334e-05
2.05757e-05
2.06448e-05
2.27021e-05
2.71923e-05
2.85144e-05
2.63208e-05
2.42785e-05
2.28046e-05
2.20898e-05
2.38791e-05
2.62073e-05
2.60838e-05
2.43945e-05
2.46893e-05
2.44548e-05
2.4879e-05
2.2636e-05
2.31312e-05
1.97629e-05
1.91354e-05
1.98876e-05
1.98091e-05
1.85971e-05
1.91517e-05
2.1887e-05
2.09595e-05
1.93819e-05
1.95418e-05
1.74787e-05
1.67303e-05
1.8083e-05
1.82279e-05
1.86524e-05
1.88315e-05
1.84593e-05
1.88473e-05
1.99881e-05
2.30066e-05
2.50735e-05
2.26858e-05
2.08911e-05
2.07738e-05
2.25915e-05
2.7082e-05
2.82341e-05
2.61935e-05
2.42684e-05
2.27973e-05
2.24143e-05
2.43129e-05
2.67079e-05
2.65731e-05
2.45357e-05
2.45469e-05
2.45394e-05
2.53683e-05
2.3015e-05
2.37821e-05
2.01872e-05
1.96467e-05
2.01058e-05
2.00243e-05
1.86912e-05
1.92499e-05
2.19956e-05
2.1105e-05
1.94458e-05
1.91451e-05
1.71836e-05
1.64678e-05
1.78779e-05
1.81674e-05
1.85863e-05
1.88224e-05
1.84539e-05
1.87991e-05
1.98664e-05
2.29171e-05
2.51358e-05
2.27559e-05
2.0956e-05
2.07543e-05
2.23466e-05
2.66681e-05
2.78511e-05
2.59722e-05
2.40912e-05
2.262e-05
2.23647e-05
2.42581e-05
2.67804e-05
2.66309e-05
2.45251e-05
2.40914e-05
2.41165e-05
2.50437e-05
2.3071e-05
2.38358e-05
2.05072e-05
1.99131e-05
2.01317e-05
2.00795e-05
1.86631e-05
1.9172e-05
2.18947e-05
2.11306e-05
1.93905e-05
1.87538e-05
1.69185e-05
1.61519e-05
1.76068e-05
1.80573e-05
1.83942e-05
1.87081e-05
1.83921e-05
1.86642e-05
1.96023e-05
2.26013e-05
2.49033e-05
2.25248e-05
2.06973e-05
2.05485e-05
2.19288e-05
2.63286e-05
2.74633e-05
2.5644e-05
2.37833e-05
2.22956e-05
2.20947e-05
2.39864e-05
2.64702e-05
2.62818e-05
2.41948e-05
2.36223e-05
2.3588e-05
2.4813e-05
2.2908e-05
2.34172e-05
2.03779e-05
1.98617e-05
1.99553e-05
1.98949e-05
1.84782e-05
1.89745e-05
2.162e-05
2.09827e-05
1.92514e-05
1.8466e-05
1.66819e-05
1.5918e-05
1.72959e-05
1.78853e-05
1.81891e-05
1.84868e-05
1.82169e-05
1.84227e-05
1.92645e-05
2.22226e-05
2.4556e-05
2.22016e-05
2.03367e-05
2.02319e-05
2.15036e-05
2.59838e-05