/*--------------------------------*- C++ -*----------------------------------*\
  =========                 |
  \\      /  F ield         | OpenFOAM: The Open Source CFD Toolbox
   \\    /   O peration     | Website:  https://openfoam.org
    \\  /    A nd           | Version:  10
     \\/     M anipulation  |
\*---------------------------------------------------------------------------*/
FoamFile
{
    format      ascii;
    class       volScalarField;
    location    "9";
    object      pPrime2Mean;
}
// * * * * * * * * * * * * * * * * * * * * * * * * * * * * * * * * * * * * * //

dimensions      [0 4 -4 0 0 0 0];

internalField   nonuniform List<scalar> 
25600
(
3.91122e-06
8.38476e-06
4.93805e-05
3.18121e-05
3.47774e-05
1.54568e-05
9.70631e-06
1.52622e-05
7.49412e-05
4.19372e-05
5.93833e-06
1.68583e-05
9.971e-06
1.58979e-05
9.09128e-06
1.43015e-05
1.11033e-05
1.05106e-05
1.26905e-05
4.43097e-05
8.13421e-06
9.47659e-06
8.5798e-06
6.99315e-06
4.14923e-05
2.33721e-05
3.77148e-05
4.13791e-05
8.45223e-06
5.98024e-06
4.50136e-06
6.1832e-06
8.28296e-06
4.03047e-05
3.27544e-05
5.70206e-06
0.000100554
4.59848e-05
4.61609e-05
3.69877e-05
8.42637e-06
1.9464e-05
7.82087e-05
1.70938e-05
1.85709e-05
3.07968e-05
6.90357e-06
9.86371e-06
0.000107594
6.70867e-05
1.16944e-05
7.41738e-06
5.6461e-06
2.85889e-05
1.70088e-05
9.97651e-06
1.39014e-05
1.2082e-05
2.35786e-05
6.68049e-05
1.56158e-05
1.87724e-05
1.73932e-05
5.72476e-06
6.47518e-05
4.06703e-05
2.17226e-05
2.4348e-05
7.15731e-06
6.88338e-06
6.36444e-06
3.80382e-06
2.01045e-05
6.73318e-05
1.79644e-05
9.5798e-06
0.000140913
2.41651e-05
2.57455e-05
6.24866e-05
3.88859e-06
7.41094e-06
4.73331e-05
3.18513e-05
3.52424e-05
1.44666e-05
1.02377e-05
1.5859e-05
7.17184e-05
3.90853e-05
6.34457e-06
1.82317e-05
1.17765e-05
1.39192e-05
9.54115e-06
1.57487e-05
1.10547e-05
1.08912e-05
1.18316e-05
4.1005e-05
7.29451e-06
7.77262e-06
7.63848e-06
8.76147e-06
3.74882e-05
2.09395e-05
4.25051e-05
4.60682e-05
9.19721e-06
6.2587e-06
4.94053e-06
8.22206e-06
7.4333e-06
3.78958e-05
3.60662e-05
5.20001e-06
9.58319e-05
5.03123e-05
5.50016e-05
3.39991e-05
4.56814e-06
1.29785e-05
6.4813e-05
2.09155e-05
2.2455e-05
2.54814e-05
7.49985e-06
1.17402e-05
8.72822e-05
5.06354e-05
9.15175e-06
1.04423e-05
7.76042e-06
2.08566e-05
1.35547e-05
1.15935e-05
1.1813e-05
1.13868e-05
1.81461e-05
6.04277e-05
1.16129e-05
1.35709e-05
1.39718e-05
5.76776e-06
5.55135e-05
3.2389e-05
3.04346e-05
3.41908e-05
7.62838e-06
7.00576e-06
4.94958e-06
4.51892e-06
1.27928e-05
5.38533e-05
2.23035e-05
7.31178e-06
0.000127691
3.0299e-05
4.06719e-05
4.77948e-05
4.2185e-06
8.22231e-06
5.14683e-05
2.94637e-05
3.16028e-05
1.96218e-05
8.77762e-06
1.61378e-05
7.3874e-05
3.90055e-05
6.59336e-06
1.33396e-05
9.1887e-06
1.58811e-05
1.02991e-05
1.43962e-05
1.25546e-05
1.22936e-05
1.73541e-05
5.08361e-05
9.42788e-06
9.84491e-06
9.43147e-06
7.3927e-06
5.12148e-05
2.93748e-05
3.98607e-05
4.90417e-05
1.08587e-05
6.40285e-06
4.32795e-06
5.72814e-06
7.29198e-06
4.13175e-05
2.43484e-05
6.49377e-06
0.000103895
3.96765e-05
4.85716e-05
3.89644e-05
3.90615e-06
1.00288e-05
5.47283e-05
2.70647e-05
2.91054e-05
2.01304e-05
6.42844e-06
1.13479e-05
8.40127e-05
4.76937e-05
7.93693e-06
1.09076e-05
7.51872e-06
1.8565e-05
1.00019e-05
1.32655e-05
1.41151e-05
1.31208e-05
2.62469e-05
4.71592e-05
1.21885e-05
1.59842e-05
1.30546e-05
6.46592e-06
5.6067e-05
3.51144e-05
3.18214e-05
5.061e-05
1.06138e-05
6.70695e-06
8.32128e-06
3.73601e-06
9.26428e-06
4.17337e-05
1.87184e-05
5.91783e-06
0.000115132
3.58766e-05
4.1414e-05
4.63809e-05
4.1e-06
8.87129e-06
5.27173e-05
2.72184e-05
3.0792e-05
1.40461e-05
6.04037e-06
9.52403e-06
7.67479e-05
4.16753e-05
7.89209e-06
1.12755e-05
7.53718e-06
1.72257e-05
9.9063e-06
1.55067e-05
1.37076e-05
1.34156e-05
2.86849e-05
3.61488e-05
7.97937e-06
1.88799e-05
1.67206e-05
6.3395e-06
4.12645e-05
2.93287e-05
2.89143e-05
5.65681e-05
1.52991e-05
6.29159e-06
9.01887e-06
4.62517e-06
1.00743e-05
3.36125e-05
1.90432e-05
4.97992e-06
0.000102533
3.19909e-05
3.62488e-05
4.4025e-05
4.10293e-06
1.01492e-05
5.44979e-05
2.04856e-05
2.12277e-05
1.35335e-05
5.12334e-06
7.29393e-06
8.47496e-05
3.92289e-05
1.0565e-05
8.22796e-06
6.57975e-06
1.68983e-05
8.37015e-06
1.55488e-05
1.31604e-05
1.30253e-05
3.07899e-05
4.0485e-05
7.57151e-06
2.32026e-05
2.56738e-05
5.30346e-06
3.23955e-05
2.67778e-05
2.21861e-05
4.58464e-05
1.49719e-05
6.5412e-06
1.18971e-05
3.79928e-06
1.252e-05
3.02709e-05
1.45024e-05
6.81604e-06
9.90301e-05
3.02109e-05
3.09064e-05
3.68972e-05
5.90346e-06
8.68525e-06
4.84084e-05
2.1101e-05
1.72747e-05
1.12582e-05
5.14304e-06
8.35144e-06
9.83947e-05
3.96305e-05
1.14811e-05
7.50797e-06
5.91091e-06
1.83255e-05
8.14821e-06
1.88057e-05
1.11723e-05
1.07574e-05
2.72273e-05
4.37693e-05
8.06904e-06
2.29853e-05
2.41961e-05
5.84048e-06
2.9017e-05
1.35762e-05
2.17219e-05
4.21119e-05
1.31063e-05
6.70302e-06
1.1216e-05
3.45928e-06
1.11044e-05
2.58137e-05
2.08847e-05
7.22432e-06
8.16648e-05
4.44487e-05
2.56662e-05
3.19199e-05
8.46022e-06
8.41312e-06
5.26932e-05
2.08132e-05
1.35862e-05
1.17666e-05
5.32399e-06
1.05243e-05
0.000119318
4.12273e-05
1.24066e-05
6.07194e-06
5.18244e-06
3.0022e-05
1.14032e-05
1.79915e-05
8.53813e-06
1.02351e-05
2.72751e-05
3.95114e-05
6.73048e-06
2.38163e-05
2.33791e-05
5.9784e-06
3.24558e-05
7.84986e-06
2.18884e-05
3.82504e-05
9.22239e-06
6.79121e-06
1.09448e-05
4.74786e-06
1.09197e-05
2.29786e-05
2.49154e-05
6.09434e-06
6.4068e-05
6.37594e-05
1.91475e-05
4.54955e-05
1.06928e-05
4.76962e-06
5.49383e-05
1.78652e-05
1.06573e-05
1.21546e-05
5.23101e-06
1.05405e-05
0.000137519
3.90364e-05
8.38389e-06
7.16944e-06
6.85487e-06
4.16641e-05
1.49357e-05
1.9055e-05
9.98606e-06
1.53771e-05
2.2119e-05
3.01833e-05
5.24992e-06
2.17455e-05
2.34218e-05
5.40335e-06
3.20735e-05
6.84671e-06
2.15686e-05
3.40352e-05
9.36015e-06
7.22357e-06
1.26861e-05
4.94016e-06
9.64283e-06
1.75785e-05
2.39455e-05
5.5283e-06
7.34223e-05
4.48131e-05
9.71892e-06
5.36692e-05
9.34873e-06
3.8008e-06
5.16962e-05
1.41881e-05
7.76465e-06
1.37585e-05
4.26739e-06
1.31454e-05
0.000133301
3.87293e-05
6.39064e-06
7.87412e-06
9.32995e-06
4.92479e-05
2.01034e-05
1.99377e-05
1.6625e-05
1.54816e-05
1.3962e-05
3.13941e-05
4.5423e-06
1.48381e-05
2.1038e-05
4.14978e-06
3.13415e-05
8.43449e-06
1.89897e-05
2.94527e-05
9.70631e-06
8.40309e-06
1.44807e-05
5.31581e-06
8.02102e-06
1.3283e-05
1.96726e-05
4.33757e-06
6.80725e-05
2.83126e-05
3.45283e-06
5.97513e-05
8.67435e-06
4.47222e-06
3.9709e-05
1.24221e-05
4.83833e-06
1.94556e-05
4.26663e-06
1.40699e-05
0.000125904
3.21271e-05
6.38508e-06
6.89458e-06
6.93709e-06
4.7511e-05
3.19249e-05
1.23207e-05
1.86953e-05
1.37244e-05
8.4594e-06
2.70384e-05
5.26962e-06
7.99522e-06
1.92574e-05
3.59204e-06
2.75389e-05
1.39248e-05
1.88234e-05
3.20543e-05
9.14619e-06
1.08905e-05
1.16825e-05
5.29989e-06
7.03763e-06
1.07373e-05
1.35599e-05
3.06336e-06
4.58428e-05
2.51763e-05
2.94878e-06
4.83315e-05
8.30473e-06
5.56783e-06
2.4915e-05
1.32945e-05
3.50244e-06
2.61696e-05
3.75198e-06
1.18106e-05
0.000130711
3.55561e-05
6.7316e-06
6.32864e-06
5.08867e-06
4.26399e-05
4.05583e-05
6.62312e-06
1.17302e-05
1.39995e-05
7.035e-06
2.17632e-05
7.97377e-06
3.82919e-06
1.76968e-05
4.02488e-06
2.30852e-05
1.57546e-05
1.66452e-05
3.23928e-05
7.45008e-06
1.54361e-05
9.37192e-06
4.48811e-06
6.22752e-06
7.80884e-06
7.956e-06
2.62061e-06
2.47971e-05
2.72826e-05
3.47703e-06
2.78781e-05
9.39878e-06
5.92927e-06
1.35456e-05
1.7135e-05
3.50239e-06
3.19381e-05
3.15825e-06
9.72774e-06
0.000112183
3.73361e-05
6.93361e-06
5.58114e-06
4.26701e-06
3.82392e-05
4.95596e-05
5.51604e-06
7.60125e-06
1.25274e-05
6.38668e-06
2.16761e-05
9.19503e-06
3.92228e-06
1.21931e-05
5.09277e-06
2.04049e-05
1.64818e-05
1.03992e-05
2.74582e-05
5.91207e-06
1.99601e-05
1.12107e-05
3.64478e-06
4.34783e-06
7.28444e-06
5.49122e-06
3.13078e-06
1.81003e-05
2.51664e-05
5.80444e-06
1.19249e-05
5.25714e-06
7.30976e-06
7.37945e-06
2.07337e-05
3.60773e-06
4.1766e-05
2.69328e-06
5.02719e-06
9.69429e-05
2.25267e-05
1.02012e-05
5.2315e-06
6.80186e-06
4.0598e-05
4.60249e-05
4.41589e-06
6.24752e-06
8.62838e-06
5.07836e-06
1.98552e-05
7.18729e-06
4.41975e-06
9.02547e-06
7.07986e-06
1.92884e-05
1.87718e-05
4.59932e-06
1.59943e-05
4.11231e-06
1.94507e-05
1.27158e-05
3.58582e-06
3.11939e-06
8.18434e-06
3.17831e-06
5.10247e-06
2.04473e-05
1.39028e-05
3.52308e-06
8.67341e-06
2.9446e-06
4.79585e-06
2.30828e-06
4.00218e-05
3.15525e-06
4.21701e-05
2.87416e-06
2.50031e-06
7.55588e-05
1.66894e-05
1.57304e-05
4.91926e-06
1.08625e-05
3.63159e-05
3.80889e-05
4.68639e-06
6.76567e-06
6.45743e-06
4.88356e-06
1.72595e-05
5.14408e-06
4.71041e-06
7.74857e-06
1.21175e-05
2.4481e-05
1.7331e-05
3.19069e-06
9.71838e-06
3.87702e-06
1.39593e-05
9.12558e-06
3.56549e-06
3.23179e-06
8.90047e-06
3.81051e-06
9.04654e-06
1.71543e-05
9.07719e-06
2.06059e-06
8.14579e-06
5.26927e-06
1.92436e-06
3.37848e-06
6.29835e-05
7.79308e-06
3.77418e-05
3.61936e-06
3.57805e-06
5.28927e-05
1.72622e-05
1.84048e-05
3.48367e-06
5.21697e-06
1.75114e-05
2.5022e-05
3.85533e-06
3.91353e-06
4.17095e-06
4.86912e-06
1.93411e-05
2.54466e-06
4.31339e-06
3.75623e-06
7.19442e-06
2.12051e-05
1.53469e-05
2.62431e-06
6.53569e-06
3.86745e-06
1.47044e-05
1.28747e-05
2.67653e-06
3.16311e-06
1.02101e-05
3.98884e-06
8.50428e-06
1.20405e-05
4.50357e-06
1.48304e-06
3.8142e-06
9.10355e-06
1.557e-06
6.20755e-06
8.87051e-05
2.1783e-05
2.76125e-05
5.7766e-06
3.61887e-06
3.09576e-05
1.36747e-05
2.02336e-05
3.74454e-06
3.12197e-06
6.7202e-06
1.54363e-05
2.68996e-06
1.9594e-06
2.22463e-06
3.59251e-06
1.59098e-05
4.1244e-06
1.61411e-06
1.93408e-06
1.69258e-06
7.49616e-06
1.03239e-05
2.16255e-06
2.97786e-06
4.67967e-06
1.43013e-05
1.60797e-05
2.3321e-06
2.26784e-06
5.78077e-06
2.85311e-06
6.14846e-06
6.53506e-06
1.38267e-06
1.24449e-06
1.55442e-06
1.28632e-05
2.10613e-06
1.11647e-05
0.000112517
4.17217e-05
1.62296e-05
9.77551e-06
3.75218e-06
1.22702e-05
7.722e-06
2.11231e-05
3.47844e-06
7.23604e-06
6.12395e-06
9.27697e-06
2.31755e-06
1.8689e-06
4.44674e-06
2.73143e-06
5.26094e-06
3.67551e-06
1.86861e-06
2.84245e-06
1.20684e-06
1.1823e-06
1.48246e-06
3.51928e-06
3.51433e-06
3.85322e-06
6.92147e-06
7.01118e-06
1.65606e-06
1.35958e-06
2.31464e-06
1.96112e-06
5.66538e-06
2.70289e-06
2.01429e-06
1.96504e-06
1.16134e-06
8.85667e-06
1.36285e-06
8.43591e-06
0.000123443
7.35317e-05
6.48819e-06
1.67329e-05
2.41431e-06
5.67207e-06
6.86264e-06
1.21703e-05
2.49997e-06
1.08945e-05
9.21911e-06
8.58597e-06
1.51566e-06
1.3632e-06
9.45722e-06
2.63301e-06
1.19056e-06
1.4048e-06
1.62909e-06
4.65116e-06
1.28701e-06
4.28375e-06
1.50484e-06
1.59949e-06
2.73311e-06
3.2579e-06
5.79723e-06
5.23642e-06
1.4752e-06
1.23323e-06
2.42736e-06
1.61851e-06
1.08046e-05
1.30211e-05
7.82453e-07
5.24722e-06
2.77656e-06
7.30693e-06
2.71175e-06
3.46849e-06
8.51529e-05
6.96717e-05
2.70134e-06
1.90626e-05
1.78983e-06
5.44703e-06
1.14149e-05
3.25133e-06
1.84073e-06
6.97033e-06
3.46517e-06
3.01128e-06
1.58706e-06
3.2357e-06
6.194e-06
3.1035e-06
5.85607e-06
2.35807e-06
1.44231e-06
3.14448e-06
1.52991e-06
3.38926e-06
1.41076e-06
4.32423e-06
2.14194e-06
5.35411e-06
1.05918e-05
8.42363e-06
1.20119e-06
1.75609e-06
3.19336e-06
1.8622e-06
1.17286e-05
2.06115e-05
1.29766e-06
1.05275e-05
8.93311e-06
4.5529e-06
1.95221e-06
8.25937e-07
5.91049e-05
6.36383e-05
1.24815e-06
1.6226e-05
2.19907e-06
2.92831e-06
1.16599e-05
1.24392e-06
2.16274e-06
3.18272e-06
2.89894e-06
3.63318e-06
9.36242e-07
3.44696e-06
5.58127e-06
1.0042e-05
1.76518e-06
1.77591e-06
9.99679e-07
1.02699e-06
1.88468e-06
7.70386e-07
1.94578e-06
5.99325e-06
1.55475e-06
1.7435e-06
6.18412e-06
7.84567e-06
1.33854e-06
1.29017e-06
1.0841e-06
3.62224e-06
6.83189e-06
1.12546e-05
6.16717e-07
1.42941e-05
1.58852e-05
2.87021e-06
2.29945e-06
6.57553e-07
4.52537e-05
6.64282e-05
2.15968e-06
9.7732e-06
5.77073e-06
4.76097e-06
9.06761e-06
1.32494e-06
3.47692e-06
1.8246e-06
3.84765e-06
5.50519e-06
1.81108e-06
2.97889e-06
7.72407e-06
2.01257e-05
9.76991e-07
1.99801e-06
8.95996e-07
2.35985e-06
6.70613e-06
1.66898e-06
3.20356e-06
9.23072e-06
1.05144e-06
7.59429e-07
5.04719e-06
1.09982e-05
2.88717e-06
2.43154e-06
1.67454e-06
5.12253e-06
2.01374e-06
8.8445e-06
1.78148e-06
2.75698e-05
2.77532e-05
9.1559e-06
1.33587e-05
6.18485e-07
1.87792e-05
2.39924e-05
1.29841e-06
7.68432e-06
4.75123e-06
3.77704e-06
1.10994e-05
8.03232e-06
8.64782e-07
1.8162e-06
4.2007e-06
7.48494e-06
4.98917e-06
1.08054e-06
1.02491e-05
3.49223e-05
1.13189e-06
1.6476e-06
1.35453e-06
7.17755e-07
1.71134e-06
6.05362e-07
8.68497e-07
7.7207e-06
1.57739e-06
5.67686e-07
3.14602e-06
6.47881e-06
1.68886e-06
4.31834e-06
7.16942e-06
1.59766e-06
3.35115e-06
1.85139e-05
3.00473e-06
1.32823e-05
1.37969e-05
2.9235e-06
4.50573e-06
3.20617e-06
3.6073e-06
1.07375e-05
1.64207e-06
4.335e-06
5.01522e-06
1.73537e-06
1.04428e-06
8.23228e-07
1.21278e-06
4.23473e-07
1.24079e-06
2.39988e-06
2.64438e-06
7.27498e-07
7.05036e-06
2.84934e-05
1.11777e-06
7.37583e-07
5.93292e-07
4.9634e-07
3.4368e-06
2.58894e-06
1.05442e-06
3.53882e-06
8.35798e-07
7.65551e-06
4.48768e-07
4.70248e-06
1.48183e-06
4.08266e-06
1.35387e-05
4.30996e-07
1.96921e-06
1.77356e-05
2.14081e-06
4.10343e-06
8.88929e-06
5.10638e-06
6.72712e-06
2.19403e-06
1.85716e-06
7.32374e-06
1.70911e-06
2.0181e-06
6.65656e-06
6.4945e-06
2.5721e-06
3.6923e-06
1.23715e-06
8.52686e-07
3.67554e-07
4.79472e-07
4.17928e-07
4.89632e-06
5.02624e-07
1.13131e-05
1.07108e-06
3.26541e-07
5.15863e-07
8.09482e-07
1.70386e-06
2.02085e-06
1.12637e-06
8.5582e-06
4.65855e-06
5.77122e-07
4.75005e-07
1.6101e-06
5.41554e-07
7.91969e-07
2.90369e-06
4.65998e-07
1.35041e-06
1.77156e-05
1.59526e-06
2.9902e-07
1.59283e-06
4.98548e-06
4.09178e-07
5.85165e-06
5.07104e-07
3.4205e-06
8.71863e-07
7.16251e-07
2.0368e-06
6.06642e-06
1.48791e-06
1.54779e-06
2.06983e-06
5.07636e-06
3.2161e-06
4.12207e-06
4.88862e-06
3.6021e-07
3.62882e-06
1.33028e-05
2.59366e-06
3.15462e-06
1.80532e-06
3.36625e-07
2.66723e-06
9.0644e-07
6.6477e-07
9.87697e-07
6.46908e-07
9.70402e-06
5.81388e-06
2.50716e-06
2.68366e-06
2.59313e-06
1.75704e-06
1.97994e-06
3.50685e-07
9.51306e-06
5.38336e-06
4.24708e-07
1.05732e-05
3.33534e-06
3.46308e-07
4.19599e-06
4.35758e-07
1.74618e-06
4.71701e-07
3.36636e-06
5.62489e-07
2.71888e-06
9.4893e-07
1.1651e-06
1.37583e-06
1.94239e-06
5.6327e-07
2.79133e-06
4.52843e-06
9.17354e-07
3.86979e-07
5.64364e-06
1.91691e-06
5.36408e-06
2.98617e-06
6.45586e-07
2.21074e-06
2.20934e-06
2.32913e-07
8.44697e-06
6.44516e-06
4.16451e-07
5.53372e-07
1.52037e-06
3.61055e-07
3.85218e-07
1.3402e-06
4.64234e-06
1.17311e-06
2.176e-06
5.79196e-06
4.90303e-07
3.2019e-06
2.00763e-06
2.21495e-06
6.38446e-06
5.25457e-06
2.58754e-06
5.89162e-06
3.32214e-06
7.74352e-06
1.20062e-05
8.54029e-07
1.16455e-06
1.36492e-06
6.2973e-07
1.59597e-06
3.71204e-07
3.41699e-06
8.13419e-07
1.29359e-06
5.77182e-07
3.72428e-07
3.28643e-06
4.52598e-06
7.65957e-07
1.11633e-06
3.6573e-06
1.50967e-06
1.36706e-06
4.84345e-06
2.8522e-07
5.73259e-07
6.21554e-07
3.90712e-07
1.0585e-06
3.58655e-07
9.96331e-06
3.8157e-07
2.86389e-07
1.82176e-06
5.8237e-07
7.79668e-07
6.30607e-07
8.43257e-07
5.17991e-07
4.32558e-06
1.7277e-06
7.30859e-07
1.57659e-06
5.66274e-07
6.82184e-06
5.99432e-06
1.79568e-06
5.33043e-07
5.44997e-07
6.19424e-07
6.60257e-07
1.79014e-06
1.39794e-06
3.77114e-07
6.03645e-07
4.48725e-07
4.10716e-07
8.15135e-07
5.09861e-07
4.51672e-07
7.12347e-06
5.0127e-07
9.94222e-07
7.41163e-06
3.60926e-07
2.92398e-07
4.45736e-07
3.82601e-06
1.6575e-06
3.77387e-07
1.26214e-05
4.03286e-06
6.69842e-07
3.05896e-06
3.37514e-07
1.12822e-06
2.73653e-06
2.55949e-06
5.9388e-07
7.11192e-06
2.15995e-06
2.58395e-06
3.82188e-07
6.67252e-07
1.46071e-06
1.56615e-06
1.49764e-06
4.4291e-06
3.7828e-07
2.14898e-06
8.62845e-07
4.55242e-07
2.67226e-06
3.10831e-07
1.60571e-06
4.86445e-06
1.67843e-06
3.99296e-06
2.98921e-06
2.42823e-07
1.87528e-06
6.76738e-07
8.00771e-07
2.94538e-06
1.55267e-06
6.01139e-07
3.67888e-06
1.0291e-05
2.05614e-06
1.55322e-06
9.89327e-06
4.59535e-06
2.29072e-07
1.03054e-06
6.6892e-07
1.04293e-06
1.16004e-05
3.71296e-05
7.84265e-06
0.000216341
3.44762e-05
3.98427e-05
7.66544e-06
8.54262e-06
5.62242e-05
1.47135e-05
6.10807e-05
0.000138622
5.86854e-06
8.16608e-05
1.28118e-05
7.93232e-06
4.86598e-06
5.52383e-05
4.36421e-06
2.85296e-05
4.30198e-06
3.79308e-06
1.84589e-05
3.42835e-05
9.51692e-06
1.59561e-05
6.44639e-06
4.39816e-05
0.000109577
3.98587e-05
1.5188e-05
5.0499e-06
7.96627e-06
3.21061e-05
5.64648e-05
1.59561e-05
5.97484e-05
0.000113495
8.31893e-06
1.74388e-05
2.45917e-05
6.30156e-05
4.57753e-06
0.00016736
1.71864e-05
6.60996e-05
1.83473e-05
2.02426e-05
8.60404e-05
2.67914e-05
4.03089e-05
0.000103793
9.78771e-06
0.000116312
2.61548e-05
6.62745e-06
7.52537e-06
3.32009e-05
9.06655e-06
5.02963e-05
1.31836e-05
1.17651e-05
8.53736e-06
1.96112e-05
1.7976e-05
2.91984e-05
1.04639e-05
6.99253e-05
0.00015029
6.42704e-05
3.05036e-05
1.01538e-05
1.66478e-05
5.39211e-05
8.83366e-05
3.38179e-05
3.56749e-05
8.08135e-05
7.51189e-06
3.41869e-05
1.15626e-05
3.6986e-05
8.89419e-06
0.000226948
3.35611e-05
3.77063e-05
6.8088e-06
9.17473e-06
5.70028e-05
1.38163e-05
6.41845e-05
0.00014149
5.93856e-06
8.11687e-05
1.30331e-05
7.27622e-06
5.37276e-06
5.70545e-05
4.46719e-06
2.64023e-05
4.12969e-06
4.33604e-06
2.12311e-05
3.89935e-05
8.58528e-06
1.4651e-05
6.44496e-06
4.29062e-05
0.000109155
3.93554e-05
1.56813e-05
4.97558e-06
8.14435e-06
2.98747e-05
5.7121e-05
1.8364e-05
5.99931e-05
0.000122266
7.98896e-06
1.89982e-05
2.16045e-05
5.14718e-05
6.68651e-06
0.000201914
1.8998e-05
5.53584e-05
1.1785e-05
1.70217e-05
8.06818e-05
2.09498e-05
4.49616e-05
0.000116308
8.6899e-06
0.000108046
1.9844e-05
6.5738e-06
7.98953e-06
3.85447e-05
8.01947e-06
4.4815e-05
7.44412e-06
7.02475e-06
1.32953e-05
2.74155e-05
1.3792e-05
2.40899e-05
8.47987e-06
5.87851e-05
0.000135495
5.32872e-05
2.51906e-05
7.37219e-06
1.28286e-05
4.21518e-05
7.31008e-05
2.77474e-05
4.88857e-05
0.000109782
7.00164e-06
2.72617e-05
2.01162e-05
4.27828e-05
1.05496e-05
0.000240262
2.18767e-05
5.74401e-05
7.85098e-06
1.41331e-05
7.38897e-05
1.78473e-05
5.07266e-05
0.000127401
7.98103e-06
0.000101184
1.53019e-05
6.42242e-06
6.57916e-06
3.70407e-05
6.5801e-06
4.17794e-05
5.49464e-06
4.05903e-06
1.60007e-05
2.76122e-05
1.18813e-05
2.17009e-05
7.74935e-06
5.07627e-05
0.000128693
5.12983e-05
2.45195e-05
5.31178e-06
1.26144e-05
3.90788e-05
6.35746e-05
2.3173e-05
6.2041e-05
0.000141676
8.41241e-06
1.78858e-05
2.55915e-05
5.16651e-05
8.93175e-06
0.000241016
1.94011e-05
7.65921e-05
1.22304e-05
1.7253e-05
8.69321e-05
2.0182e-05
5.21088e-05
0.000115597
8.16472e-06
0.000118001
1.85204e-05
6.31653e-06
7.87423e-06
2.69904e-05
7.53357e-06
4.3601e-05
8.73902e-06
4.46582e-06
1.08552e-05
1.35071e-05
1.61303e-05
2.70857e-05
1.01157e-05
6.08789e-05
0.000141145
6.1141e-05
3.4788e-05
6.92213e-06
1.30096e-05
5.22696e-05
7.65538e-05
3.12574e-05
5.20234e-05
0.000137679
7.36608e-06
2.09235e-05
2.3735e-05
5.2226e-05
8.94875e-06
0.000253402
2.50797e-05
7.82422e-05
1.21083e-05
1.46446e-05
8.64891e-05
2.03881e-05
6.35818e-05
0.0001202
7.30984e-06
0.000111404
1.61979e-05
5.62891e-06
8.72729e-06
3.14969e-05
7.64402e-06
3.54121e-05
3.71205e-06
3.28369e-06
1.02704e-05
8.28421e-06
2.0801e-05
2.28491e-05
8.10669e-06
5.68972e-05
0.000129137
5.76341e-05
3.33439e-05
8.08011e-06
1.10941e-05
4.88607e-05
7.22319e-05
3.38714e-05
5.50541e-05
0.000127228
7.34394e-06
2.41059e-05
2.24287e-05
5.5738e-05
5.28786e-06
0.000211273
2.36641e-05
8.59279e-05
1.01195e-05
1.50105e-05
8.67289e-05
2.16147e-05
6.73535e-05
0.000124613
6.61487e-06
0.00010838
1.35197e-05
5.2764e-06
9.77328e-06
2.98385e-05
1.18191e-05
4.12442e-05
2.86615e-06
2.48856e-06
7.42433e-06
6.17087e-06
2.66821e-05
2.20988e-05
7.21758e-06
4.72508e-05
0.000119329
5.79053e-05
3.21748e-05
7.50916e-06
1.26176e-05
5.19037e-05
8.03555e-05
3.24592e-05
6.22791e-05
0.00011711
5.99855e-06
2.7884e-05
1.61943e-05
4.68018e-05
4.25459e-06
0.000155494
1.79478e-05
8.28109e-05
1.08921e-05
1.28343e-05
8.1537e-05
1.81361e-05
6.6736e-05
0.000131212
4.77492e-06
9.85486e-05
1.00815e-05
5.81571e-06
9.32746e-06
2.8272e-05
1.29945e-05
5.16678e-05
3.22315e-06
5.62507e-06
6.58179e-06
6.72768e-06
2.798e-05
1.94917e-05
5.38211e-06
3.08844e-05
0.000111072
4.63709e-05
2.87569e-05
6.32828e-06
8.07776e-06
4.37793e-05
6.71164e-05
2.23425e-05
0.000103779
0.000153101
6.36363e-06
2.64123e-05
1.22229e-05
3.99063e-05
4.80791e-06
0.000108166
1.11348e-05
8.22984e-05
2.12572e-05
9.1081e-06
7.99151e-05
1.52815e-05
5.13139e-05
0.000114203
4.67324e-06
0.000105269
1.00809e-05
6.68853e-06
8.8379e-06
2.56221e-05
1.0544e-05
7.06503e-05
3.55682e-06
5.69515e-06
5.14107e-06
1.0492e-05
3.25057e-05
1.44918e-05
5.3753e-06
1.83462e-05
0.000102384
3.97371e-05
2.8868e-05
7.54989e-06
6.46489e-06
4.30498e-05
4.73182e-05
1.86145e-05
0.000146532
0.000164396
7.90891e-06
3.3074e-05
8.45548e-06
3.28198e-05
5.59363e-06
9.15155e-05
9.87649e-06
8.12814e-05
2.65447e-05
8.10398e-06
6.69385e-05
1.26106e-05
4.84305e-05
9.40964e-05
4.53313e-06
0.000100626
8.37682e-06
7.62011e-06
8.47024e-06
2.44279e-05
8.17615e-06
7.70118e-05
3.80307e-06
4.78505e-06
5.0379e-06
1.22082e-05
4.01759e-05
1.0047e-05
5.8558e-06
7.87367e-06
6.27343e-05
3.85689e-05
2.43487e-05
6.76357e-06
9.26591e-06
5.25379e-05
4.21211e-05
2.83563e-05
9.53646e-05
0.000116749
8.38055e-06
3.30471e-05
7.04649e-06
2.67072e-05
4.52211e-06
7.79791e-05
1.03845e-05
8.08714e-05
2.76679e-05
1.27252e-05
6.91043e-05
1.24319e-05
5.66135e-05
8.0531e-05
5.14631e-06
8.59821e-05
6.18097e-06
9.53811e-06
8.56396e-06
1.74458e-05
7.19442e-06
7.43496e-05
3.15706e-06
5.72543e-06
4.7424e-06
1.05342e-05
4.38139e-05
9.87774e-06
6.58063e-06
5.43473e-06
3.28612e-05
3.57666e-05
1.89732e-05
5.34155e-06
1.09235e-05
6.61437e-05
6.46597e-05
2.19735e-05
8.34329e-05
8.88911e-05
9.39387e-06
3.01415e-05
4.87975e-06
1.93224e-05
2.81269e-06
6.08209e-05
1.00833e-05
6.75418e-05
2.48823e-05
1.30503e-05
7.27286e-05
1.43432e-05
5.30651e-05
5.84224e-05
5.27624e-06
7.5821e-05
5.93015e-06
1.07179e-05
6.8703e-06
1.40439e-05
4.25262e-06
6.49971e-05
3.32136e-06
8.05845e-06
4.93621e-06
7.27597e-06
3.8319e-05
1.24125e-05
7.19552e-06
6.75956e-06
2.43873e-05
2.1909e-05
1.33697e-05
3.66686e-06
8.57034e-06
7.01372e-05
5.36584e-05
5.56404e-06
7.35029e-05
6.77035e-05
8.99846e-06
2.33707e-05
3.12746e-06
1.45414e-05
2.63322e-06
4.75422e-05
6.46549e-06
5.37491e-05
1.80735e-05
1.48004e-05
7.06701e-05
1.06979e-05
4.16784e-05
2.49813e-05
5.19964e-06
6.89157e-05
6.05116e-06
8.82594e-06
6.50219e-06
1.24871e-05
2.99126e-06
4.80325e-05
3.25801e-06
8.03007e-06
4.38184e-06
4.85703e-06
2.89214e-05
1.42484e-05
7.13649e-06
1.4247e-05
2.43052e-05
1.65416e-05
1.31585e-05
3.23759e-06
7.44398e-06
6.04813e-05
4.19941e-05
3.11413e-06
5.9902e-05
4.31968e-05
1.26407e-05
1.94632e-05
3.46477e-06
1.48926e-05
3.43102e-06
4.26208e-05
4.78032e-06
5.26582e-05
1.72366e-05
1.41892e-05
6.43831e-05
5.66651e-06
4.18775e-05
1.06294e-05
3.75477e-06
4.77817e-05
8.07226e-06
6.82877e-06
7.22973e-06
1.07013e-05
3.45923e-06
3.0938e-05
3.23161e-06
7.58678e-06
3.91062e-06
3.37838e-06
1.58468e-05
9.84687e-06
5.85432e-06
1.90274e-05
2.40472e-05
1.91378e-05
1.55453e-05
4.96328e-06
7.47539e-06
5.32811e-05
4.623e-05
3.37914e-06
3.48613e-05
3.10651e-05
1.4224e-05
2.24725e-05
3.17033e-06
1.30724e-05
4.37536e-06
3.13327e-05
4.26755e-06
4.38243e-05
1.61416e-05
6.61822e-06
4.13368e-05
4.75609e-06
3.87037e-05
7.02895e-06
3.39595e-06
2.47549e-05
8.39444e-06
7.04885e-06
6.29621e-06
5.71443e-06
2.99569e-06
2.37686e-05
2.67467e-06
4.84246e-06
4.13681e-06
3.75889e-06
7.0104e-06
6.44589e-06
4.1972e-06
1.64677e-05
3.04768e-05
2.0891e-05
1.59641e-05
5.37782e-06
6.72069e-06
5.3133e-05
5.87971e-05
8.47772e-06
1.20126e-05
1.94184e-05
1.46393e-05
2.36743e-05
2.78927e-06
6.24116e-06
2.29561e-06
4.27423e-05
7.16225e-06
3.076e-05
1.21939e-05
3.99213e-06
3.24957e-05
4.65227e-06
2.34589e-05
3.71018e-06
2.33566e-06
1.34896e-05
1.00009e-05
4.59228e-06
4.65778e-06
2.1981e-06
2.19471e-06
1.99818e-05
2.18315e-06
2.4614e-06
2.22655e-06
4.78419e-06
2.60087e-06
3.9651e-06
3.81006e-06
1.1583e-05
3.07227e-05
1.89389e-05
1.12992e-05
5.07668e-06
5.74168e-06
4.49274e-05
5.37911e-05
1.84072e-05
4.11538e-06
1.10319e-05
1.34807e-05
1.58348e-05
3.40461e-06
2.47103e-06
5.11062e-06
5.67784e-05
1.04348e-05
2.26702e-05
9.62137e-06
2.53253e-06
3.18431e-05
8.62445e-06
1.32886e-05
3.05987e-06
2.5974e-06
1.06454e-05
1.44699e-05
2.35971e-06
3.72945e-06
2.66821e-06
3.33549e-06
1.89318e-05
2.0309e-06
2.29836e-06
2.11662e-06
5.17647e-06
2.72313e-06
2.26262e-06
3.01578e-06
7.57336e-06
2.48401e-05
2.10058e-05
8.57496e-06
5.39325e-06
4.10294e-06
3.76649e-05
3.80546e-05
1.74245e-05
2.58964e-06
8.55211e-06
1.23921e-05
1.14277e-05
1.48687e-06
5.37077e-06
1.80427e-06
4.17752e-05
1.16666e-05
1.33494e-05
7.06605e-06
1.98981e-06
1.66643e-05
1.36928e-05
1.03502e-05
2.39816e-06
3.27507e-06
9.37454e-06
1.96446e-05
2.23212e-06
2.79514e-06
6.26548e-06
4.47896e-06
1.06265e-05
2.76519e-06
3.89146e-06
2.92987e-06
5.94478e-06
1.01935e-05
3.55842e-06
2.77668e-06
3.28347e-06
1.49547e-05
2.19364e-05
1.60025e-05
3.76579e-06
3.90436e-06
1.99105e-05
2.31936e-05
1.94913e-05
2.75481e-06
5.0478e-06
1.30381e-05
1.40719e-05
2.39488e-06
1.0193e-05
2.22765e-06
2.34976e-05
8.95656e-06
1.33243e-05
9.70963e-06
3.64006e-06
7.70645e-06
1.49813e-05
8.48494e-06
2.32918e-06
3.51229e-06
4.32491e-06
1.56336e-05
2.93497e-06
1.85681e-06
5.23047e-06
4.11926e-06
4.94146e-06
1.80397e-06
2.86065e-06
1.13391e-05
1.27467e-06
1.70505e-05
9.38322e-06
3.1513e-06
2.08096e-06
1.02906e-05
1.2394e-05
1.40977e-05
2.68196e-06
2.63995e-06
1.20884e-05
1.18906e-05
1.55717e-05
3.82423e-06
1.83131e-06
1.73444e-05
1.98801e-05
7.26898e-06
2.08533e-05
5.63166e-06
2.12808e-05
1.53554e-05
7.18689e-06
9.57627e-06
5.62276e-06
1.73889e-06
1.18061e-05
2.44637e-06
1.46317e-06
4.32418e-06
3.96341e-06
1.46493e-05
2.81179e-06
1.64068e-06
2.59104e-06
2.70122e-06
3.19698e-06
3.92644e-06
2.75529e-06
5.93048e-06
1.62359e-06
1.01742e-05
3.84562e-06
1.46929e-06
1.56457e-06
3.49658e-06
2.86999e-06
4.77825e-06
1.83073e-06
1.79349e-06
5.87002e-06
5.36747e-06
1.54822e-05
4.34957e-06
2.3903e-06
1.74237e-05
2.75974e-05
9.27231e-07
4.07227e-06
2.28311e-06
2.17621e-05
2.39084e-05
2.14149e-06
9.97391e-06
1.76893e-06
2.54823e-06
1.19306e-05
1.59806e-06
1.38505e-06
2.3644e-06
1.63477e-06
8.11634e-06
1.9163e-06
5.16103e-06
1.01001e-06
1.78602e-06
1.13578e-06
3.45009e-06
2.27322e-06
2.45647e-06
1.45759e-06
4.66278e-06
1.14162e-06
6.42205e-06
2.95878e-06
2.45345e-06
3.03627e-06
4.44728e-06
1.57129e-06
2.12371e-06
8.61367e-06
4.80518e-06
1.58115e-05
2.4599e-06
1.05633e-05
4.03403e-06
1.38431e-05
2.48543e-06
8.67741e-07
3.33689e-06
9.05957e-06
9.26254e-06
5.16823e-06
1.93783e-05
3.8937e-06
4.6543e-06
1.64809e-05
4.51107e-06
1.7984e-06
2.78237e-06
1.68293e-06
9.70052e-06
4.66267e-06
6.8769e-06
2.49393e-06
1.21609e-06
1.37435e-06
2.94827e-06
1.43035e-06
1.09696e-06
2.32687e-06
1.1338e-06
1.05862e-06
8.14288e-06
3.77114e-06
1.17022e-06
1.87022e-06
4.49084e-06
2.55952e-06
3.97042e-06
8.16339e-06
2.55846e-06
1.97626e-05
1.57924e-05
1.09283e-06
4.33563e-06
6.56974e-06
5.18832e-07
2.241e-06
3.30169e-06
1.87774e-05
2.69337e-05
9.97492e-07
1.28407e-05
9.67005e-06
5.87287e-06
1.02294e-05
3.1945e-06
8.90376e-07
6.91595e-07
1.18612e-06
2.01978e-06
1.37397e-06
1.02918e-05
1.0356e-06
2.51255e-06
1.85521e-06
1.55232e-06
1.93349e-06
1.30751e-06
2.82209e-06
1.04632e-06
1.09113e-06
7.4639e-06
1.75093e-06
1.91991e-06
1.08473e-06
1.24956e-06
7.08313e-07
1.29315e-06
3.90677e-06
6.87586e-07
9.12925e-06
1.24723e-05
1.03277e-06
1.69236e-05
1.74815e-05
3.1863e-06
1.07989e-06
2.36312e-06
6.83448e-06
5.46389e-06
8.7362e-06
2.05839e-05
1.64528e-05
9.56449e-06
1.09937e-05
9.06846e-06
3.76633e-06
3.29425e-06
6.44063e-07
3.03911e-06
2.5456e-06
1.00659e-05
1.75983e-06
2.86083e-06
2.48236e-06
5.11864e-07
1.13693e-06
8.5767e-07
6.03463e-07
1.10092e-06
8.12185e-07
1.24657e-05
4.49087e-06
8.61767e-07
5.95095e-07
9.37388e-07
6.21157e-07
3.53841e-06
9.63202e-06
6.57898e-07
5.52189e-06
1.2898e-05
1.52564e-06
1.40147e-05
1.05928e-05
3.61226e-06
1.38801e-06
3.17757e-06
6.21976e-06
1.15353e-05
1.98643e-06
7.47775e-06
1.52624e-05
1.16717e-05
5.51086e-06
3.76661e-06
8.71986e-07
4.58303e-07
1.02774e-06
4.17054e-07
4.28249e-07
1.43238e-05
2.31852e-06
5.2146e-06
6.70046e-07
4.81852e-07
1.81051e-06
6.34453e-07
3.3009e-06
1.17817e-06
6.76004e-07
4.21867e-06
6.37709e-07
9.12638e-06
1.95921e-06
3.00588e-06
2.70979e-06
2.95088e-06
7.57874e-06
7.4495e-07
3.26334e-07
6.17687e-06
5.38719e-07
3.05809e-06
5.22237e-06
1.14775e-06
1.08171e-06
4.39734e-06
1.66244e-06
6.41534e-06
1.41689e-06
2.1457e-06
9.26961e-06
9.8213e-06
2.67694e-06
3.92869e-06
4.32258e-06
1.79546e-06
1.62329e-06
1.27082e-06
4.49158e-07
1.00832e-05
2.48895e-06
6.41991e-06
5.42936e-07
6.20096e-07
2.07286e-06
8.2296e-07
5.08046e-06
4.3647e-06
2.38685e-06
1.2155e-05
7.67359e-06
5.77881e-07
1.11015e-06
4.35826e-07
5.15783e-07
6.16364e-07
3.39738e-06
5.17755e-07
4.99455e-07
7.80127e-06
8.10301e-07
1.24594e-06
5.93638e-06
2.18807e-06
6.58245e-07
5.99652e-06
6.19676e-07
1.73143e-06
2.60011e-06
1.09509e-06
4.2662e-06
8.99422e-06
2.881e-06
2.15451e-06
1.30415e-06
1.03941e-06
6.15903e-07
6.34687e-07
3.03715e-06
9.94523e-07
4.52567e-07
4.49065e-06
5.13503e-07
1.03895e-06
1.94921e-06
5.74537e-07
5.21306e-06
4.53433e-06
8.61885e-07
2.10377e-06
8.74641e-07
7.95051e-06
3.49165e-06
6.58416e-07
3.07208e-06
2.1947e-06
8.1162e-06
1.5997e-06
2.82661e-06
3.99487e-06
2.77608e-06
1.08911e-06
1.1146e-05
7.75906e-07
8.0947e-07
6.40545e-07
1.798e-06
3.8627e-06
6.64312e-07
5.45422e-07
1.9378e-06
4.30706e-06
5.70332e-07
1.30461e-06
4.51396e-06
6.78696e-06
1.19135e-06
5.7263e-07
1.14834e-06
1.59254e-06
4.81405e-07
2.90976e-06
5.02925e-07
2.05655e-06
2.5e-06
4.89041e-07
1.58079e-06
1.79718e-06
2.83213e-07
5.28084e-06
1.69538e-06
2.15922e-06
2.18978e-06
2.66903e-06
3.52484e-07
4.34729e-07
2.89052e-06
6.12617e-06
7.74988e-07
4.22444e-06
4.35011e-06
1.54991e-06
1.01929e-06
2.17557e-06
1.21545e-06
1.90589e-06
2.33047e-06
1.88367e-06
4.04078e-06
3.12193e-06
7.0834e-06
9.50377e-06
5.46072e-07
1.17967e-06
5.27386e-07
6.07972e-07
4.30001e-07
4.14929e-07
2.27057e-06
4.96874e-07
1.02096e-06
3.91966e-07
4.14377e-07
1.84421e-06
3.57737e-06
4.76244e-07
1.67895e-06
5.49056e-06
3.58627e-07