/*--------------------------------*- C++ -*----------------------------------*\
  =========                 |
  \\      /  F ield         | OpenFOAM: The Open Source CFD Toolbox
   \\    /   O peration     | Website:  https://openfoam.org
    \\  /    A nd           | Version:  10
     \\/     M anipulation  |
\*---------------------------------------------------------------------------*/
FoamFile
{
    format      ascii;
    class       volVectorField;
    location    "3";
    object      UMean;
}
// * * * * * * * * * * * * * * * * * * * * * * * * * * * * * * * * * * * * * //

dimensions      [0 1 -1 0 0 0 0];

internalField   nonuniform List<vector> 
25600
(
(0.171396 -4.00604e-05 0.00161268)
(0.167131 7.96847e-05 0.00144271)
(0.168237 2.18407e-05 0.00163723)
(0.16373 -6.02499e-05 0.0024533)
(0.16833 -3.01213e-05 0.00188432)
(0.16567 2.27635e-05 0.00224895)
(0.167797 6.03171e-05 0.0030322)
(0.165896 -4.17176e-06 0.00403409)
(0.168117 -7.53274e-05 0.00353513)
(0.167902 -9.62766e-05 0.00195686)
(0.171358 -6.97163e-05 0.00270627)
(0.167364 -1.05406e-05 0.00333198)
(0.169807 -4.40789e-05 0.00384947)
(0.165512 -7.98839e-05 0.00329989)
(0.172313 -7.695e-05 0.00330526)
(0.169209 9.64155e-06 0.00393715)
(0.171341 1.96778e-05 0.004398)
(0.166198 -6.35465e-05 0.00479724)
(0.168206 -0.000124367 0.00373558)
(0.167789 -8.11901e-05 0.00289862)
(0.168932 3.49793e-05 0.0021428)
(0.169056 6.49864e-05 0.00234001)
(0.165755 7.13327e-05 0.00307614)
(0.169925 -6.87823e-05 0.00343113)
(0.168913 -6.0791e-05 0.00299374)
(0.172646 -6.26063e-05 0.00401114)
(0.169577 -4.8343e-05 0.00483256)
(0.16925 1.38213e-06 0.00430867)
(0.169647 -7.88844e-05 0.00356352)
(0.169557 -5.24696e-05 0.00260872)
(0.168827 5.41441e-05 0.00257952)
(0.167855 3.7195e-05 0.00341182)
(0.166623 -3.95641e-05 0.00424851)
(0.16683 -9.29291e-05 0.00389939)
(0.167553 -2.80044e-05 0.0013631)
(0.168433 4.7546e-05 0.00113121)
(0.166112 1.66275e-05 0.00166107)
(0.166063 -5.10405e-05 0.00313798)
(0.168627 -0.000143142 0.00380264)
(0.169569 -0.00014301 0.00265125)
(0.486256 -0.000477929 0.00485774)
(0.474443 0.000229437 0.00326455)
(0.481325 0.000130814 0.00500861)
(0.466323 -0.000229107 0.00787797)
(0.479857 -0.000502075 0.00698771)
(0.471331 -8.28959e-05 0.00613424)
(0.477581 0.000142683 0.0058731)
(0.473119 -6.27751e-05 0.00897505)
(0.478968 -0.000395851 0.0103328)
(0.477839 -0.000744655 0.00777215)
(0.486876 -0.000554324 0.00804165)
(0.475895 -0.00028501 0.0081573)
(0.484856 -0.000331598 0.00978204)
(0.470634 -0.000534018 0.00938353)
(0.490068 -0.000792763 0.00912547)
(0.481326 -0.000329503 0.00980872)
(0.491226 -0.000190734 0.010927)
(0.474655 -8.6978e-05 0.0120541)
(0.478889 -0.000587939 0.0109686)
(0.474607 -0.000522312 0.00815985)
(0.477889 -4.19544e-05 0.00410268)
(0.480512 0.000337103 0.00367276)
(0.470946 0.000244836 0.00740018)
(0.484352 -0.000419168 0.0100666)
(0.480123 -0.000631019 0.00888397)
(0.492506 -0.000596543 0.00966279)
(0.483179 -0.000250295 0.0110071)
(0.481473 -0.000152753 0.0100086)
(0.483915 -0.000440259 0.0100974)
(0.481647 -0.000285659 0.00823119)
(0.480342 -9.87275e-05 0.0075655)
(0.480321 9.96718e-06 0.00891354)
(0.475575 -0.000137535 0.0111854)
(0.474548 -0.000485056 0.0122416)
(0.474053 -0.000390818 0.00626877)
(0.478538 -0.000176995 0.00435473)
(0.475018 0.000123419 0.00541373)
(0.473058 -0.000312185 0.00820745)
(0.481409 -0.000837071 0.0100886)
(0.479454 -0.000914441 0.00777356)
(0.75902 -0.000978591 0.00947711)
(0.74208 0.000409207 0.00431984)
(0.756789 0.000314664 0.00551585)
(0.732824 -0.000132349 0.00895541)
(0.751705 -0.000923934 0.0104199)
(0.733607 -0.000219628 0.00997877)
(0.748054 3.34843e-05 0.00728361)
(0.74179 -8.31815e-05 0.00897274)
(0.75372 -0.000627636 0.0126179)
(0.746096 -0.00142902 0.0113286)
(0.762887 -0.00130284 0.013478)
(0.748055 -0.000774203 0.012921)
(0.76223 -0.00060701 0.0131636)
(0.737088 -0.000632946 0.0118987)
(0.763084 -0.00155908 0.0117478)
(0.753382 -0.00077743 0.0139597)
(0.769644 -0.000436141 0.0149415)
(0.745105 0.000166509 0.0156156)
(0.754233 -0.000565136 0.014291)
(0.737874 -0.000465561 0.0115801)
(0.743591 -0.000205501 0.00555278)
(0.753083 0.000487972 0.00243008)
(0.743298 0.000534561 0.00696284)
(0.757929 -0.000559819 0.0122862)
(0.751628 -0.00092406 0.0132562)
(0.765951 -0.00132425 0.0123664)
(0.759597 -0.000623705 0.0164994)
(0.75889 -0.000178695 0.0117162)
(0.753331 -0.000637006 0.0128684)
(0.753659 -0.00021028 0.0118507)
(0.749664 -0.000400426 0.0117045)
(0.753141 -0.000179826 0.0130358)
(0.745729 -5.75279e-05 0.0141622)
(0.745082 -0.000732717 0.0170084)
(0.739927 -0.000510642 0.0121519)
(0.745081 -0.000714616 0.00759367)
(0.746559 -6.50347e-05 0.00960476)
(0.747461 -0.000686031 0.0102316)
(0.757616 -0.00134147 0.0131278)
(0.746482 -0.00131013 0.0107041)
(0.957642 -0.000736007 0.0128064)
(0.943105 0.0009165 0.00619759)
(0.965385 0.000490011 0.00512061)
(0.938979 0.000688688 0.00671631)
(0.956652 -0.000321305 0.00939389)
(0.937853 0.000473653 0.0122444)
(0.949812 0.000126207 0.00933455)
(0.947348 -0.000355939 0.00717762)
(0.967212 -0.000712716 0.0121028)
(0.94609 -0.00148157 0.00972819)
(0.969884 -0.00161971 0.0146316)
(0.94573 -0.00123726 0.0155118)
(0.973438 -0.00103493 0.0148918)
(0.941882 -0.000518095 0.0109441)
(0.966095 -0.00186605 0.0103579)
(0.947867 -0.000541403 0.012741)
(0.975602 -0.000445264 0.0167171)
(0.953403 0.000725858 0.0167285)
(0.964947 0.000181137 0.0146253)
(0.93856 0.000654433 0.0105401)
(0.946083 0.00042122 0.00680641)
(0.949446 0.00103399 0.000466217)
(0.948088 0.000903765 0.00317506)
(0.957854 -0.000176735 0.00721252)
(0.957095 -0.000596261 0.011162)
(0.96868 -0.00116917 0.00774523)
(0.959802 -0.000497295 0.0177159)
(0.966069 0.000334896 0.0102565)
(0.953832 -0.00027252 0.0105819)
(0.953554 0.000506098 0.00987617)
(0.951274 0.000150106 0.0113013)
(0.955445 4.6939e-05 0.0153972)
(0.953234 0.000487199 0.0142467)
(0.954884 -0.000574418 0.0167509)
(0.944167 0.000424977 0.0156027)
(0.94817 -0.000340809 0.0101027)
(0.95255 9.61482e-05 0.0121466)
(0.94568 -0.000571373 0.00833239)
(0.956803 -0.000818183 0.0125135)
(0.939864 -0.000378187 0.00765354)
(1.0798 0.00184357 0.0161256)
(1.0564 0.00305326 0.0107253)
(1.0871 0.0018633 0.00877418)
(1.06483 0.00259178 0.00598483)
(1.09013 0.00117895 0.00641511)
(1.06984 0.00276621 0.0106333)
(1.08697 0.00166633 0.0122276)
(1.07999 0.000405641 0.00763015)
(1.10246 0.000169616 0.0132329)
(1.08076 2.68522e-05 0.00748709)
(1.09648 -0.000562402 0.0127149)
(1.07611 -0.000156972 0.0146356)
(1.09314 -0.000252509 0.015657)
(1.07593 0.000829874 0.00952047)
(1.08285 -0.000916125 0.00480155)
(1.07315 0.00121545 0.00654291)
(1.08733 0.000633618 0.0127596)
(1.08783 0.00211472 0.0158819)
(1.09381 0.00218441 0.0148391)
(1.07076 0.00348546 0.0107554)
(1.07318 0.00232979 0.0101314)
(1.06838 0.00310124 0.00609375)
(1.07644 0.00215268 0.00352499)
(1.06856 0.00175177 0.00375941)
(1.07253 0.00120724 0.00761994)
(1.07098 0.000808627 0.00107457)
(1.07804 0.00128275 0.014414)
(1.07288 0.00198539 0.010806)
(1.07606 0.00146552 0.00736347)
(1.06184 0.00248274 0.0055386)
(1.06739 0.00197062 0.00731706)
(1.07245 0.0017387 0.0142035)
(1.07658 0.00229334 0.0136184)
(1.07465 0.00108165 0.0133194)
(1.07223 0.00255386 0.016535)
(1.07053 0.0015828 0.0106404)
(1.07857 0.00219542 0.0139348)
(1.06931 0.00127247 0.00840383)
(1.09068 0.00103239 0.0134117)
(1.06213 0.00261012 0.00610555)
(1.13642 0.00557819 0.0183396)
(1.11326 0.00675688 0.0179743)
(1.1381 0.00441564 0.0144172)
(1.13109 0.00605395 0.0111779)
(1.13153 0.00387002 0.00961352)
(1.13136 0.00554801 0.012883)
(1.14577 0.00385136 0.0187611)
(1.14591 0.00236018 0.0131827)
(1.16134 0.00192779 0.0183974)
(1.15417 0.00307084 0.011558)
(1.14915 0.00289478 0.0144949)
(1.14508 0.00318822 0.015066)
(1.14308 0.00294125 0.0181181)
(1.14767 0.00458151 0.0130816)
(1.13256 0.00322676 0.00537071)
(1.12651 0.00503796 0.0068733)
(1.13365 0.00361794 0.0113253)
(1.14066 0.00504089 0.0167084)
(1.13231 0.00608836 0.0178647)
(1.1307 0.0079023 0.0160653)
(1.11735 0.00643501 0.0174591)
(1.11631 0.00607532 0.0179982)
(1.1278 0.00493827 0.0147502)
(1.1152 0.00493867 0.00810974)
(1.12263 0.00471284 0.0119886)
(1.11042 0.00417637 0.00261485)
(1.12591 0.00449721 0.0137171)
(1.11615 0.00504333 0.0165615)
(1.1252 0.00456107 0.0115227)
(1.11237 0.00600742 0.00728346)
(1.10937 0.00478698 0.00808964)
(1.11697 0.00456402 0.012546)
(1.12255 0.0052259 0.0164519)
(1.12735 0.00393534 0.011587)
(1.12815 0.00587526 0.0169811)
(1.11957 0.00470106 0.0118894)
(1.13574 0.00500828 0.0174562)
(1.12982 0.00385667 0.0105811)
(1.14653 0.00388203 0.0177683)
(1.11934 0.00620936 0.0102269)
(1.15754 0.00881975 0.0237369)
(1.14187 0.00963061 0.0261313)
(1.16077 0.00656343 0.0242944)
(1.15057 0.00868022 0.0189797)
(1.16145 0.0065886 0.0186816)
(1.1447 0.00765344 0.0176683)
(1.16462 0.00553735 0.0285696)
(1.157 0.00406672 0.0234906)
(1.17353 0.00414232 0.0277139)
(1.16221 0.00626291 0.022379)
(1.16719 0.00651385 0.0244272)
(1.15535 0.00678453 0.0245275)
(1.15275 0.00616196 0.0257719)
(1.14858 0.00817859 0.023839)
(1.14751 0.00787393 0.0153702)
(1.13029 0.00907779 0.016162)
(1.14501 0.00681178 0.0200757)
(1.14228 0.00765996 0.0264738)
(1.14926 0.00944019 0.0265071)
(1.13947 0.0114546 0.0248629)
(1.13682 0.0105749 0.0274966)
(1.12985 0.00902283 0.030533)
(1.14569 0.00738817 0.0304256)
(1.14094 0.00758255 0.0210863)
(1.14621 0.00804168 0.024911)
(1.13839 0.0072958 0.018334)
(1.15094 0.00753256 0.024898)
(1.14654 0.00774165 0.0301875)
(1.15486 0.00763083 0.025247)
(1.13984 0.00965808 0.0219816)
(1.13972 0.00833378 0.0198078)
(1.13009 0.00773329 0.0245224)
(1.15054 0.00804984 0.0269191)
(1.1444 0.00727394 0.0236942)
(1.1486 0.00967515 0.0251757)
(1.13428 0.00799443 0.0207763)
(1.14848 0.00719085 0.0245493)
(1.14621 0.00608665 0.0190927)
(1.1623 0.006958 0.0234698)
(1.15049 0.00948847 0.0186213)
(1.15118 0.0109859 0.0339576)
(1.15071 0.0107285 0.0391579)
(1.15035 0.00804615 0.0375624)
(1.16024 0.00993524 0.0355395)
(1.15245 0.00811868 0.0330046)
(1.15737 0.0090114 0.033037)
(1.15156 0.00623598 0.0394998)
(1.15579 0.0053469 0.0390034)
(1.1502 0.00583364 0.0386178)
(1.17128 0.0083592 0.0373706)
(1.15614 0.00946296 0.0372234)
(1.16097 0.00999777 0.0403159)
(1.14564 0.00880051 0.0394439)
(1.15554 0.0100015 0.0399723)
(1.14585 0.0104683 0.0311976)
(1.15026 0.0108563 0.0318386)
(1.14693 0.00818632 0.0346261)
(1.1534 0.00843627 0.0399813)
(1.14203 0.0101811 0.0398869)
(1.1538 0.0132298 0.0391667)
(1.13585 0.0124012 0.0383333)
(1.14532 0.0104084 0.0421982)
(1.14124 0.0086112 0.0438206)
(1.14197 0.00909246 0.0361474)
(1.14499 0.00990052 0.0374645)
(1.14464 0.0085907 0.0356558)
(1.14874 0.00869512 0.0375953)
(1.14143 0.0079698 0.0420886)
(1.1466 0.00875349 0.0388712)
(1.14253 0.0108518 0.0366279)
(1.1439 0.00997448 0.0347763)
(1.13154 0.0088083 0.0385425)
(1.1414 0.00790029 0.0394714)
(1.14657 0.00839987 0.0380366)
(1.15037 0.0110867 0.0369832)
(1.14434 0.00972138 0.0347123)
(1.14819 0.00817343 0.0354083)
(1.14894 0.00746916 0.0320736)
(1.15139 0.00832165 0.0317822)
(1.15878 0.0109205 0.0306412)
(1.14438 0.0100658 0.0443907)
(1.14497 0.00991708 0.0486082)
(1.14107 0.00683481 0.0485082)
(1.1512 0.00842681 0.046997)
(1.14946 0.00744055 0.0445949)
(1.14811 0.00914165 0.0422028)
(1.14054 0.005767 0.044636)
(1.14544 0.00454716 0.0453877)
(1.13493 0.00397851 0.0428694)
(1.15429 0.00634733 0.0430645)
(1.14921 0.00903861 0.0443774)
(1.15731 0.0095516 0.0495433)
(1.14394 0.00805962 0.0481011)
(1.15493 0.00856028 0.0477337)
(1.14523 0.0101912 0.0441338)
(1.15317 0.0107568 0.044717)
(1.14661 0.00818663 0.0466774)
(1.15142 0.00782948 0.0486823)
(1.13825 0.00853192 0.0491703)
(1.15187 0.0116404 0.0505542)
(1.1449 0.012005 0.0498631)
(1.15173 0.00993624 0.0504842)
(1.14483 0.00831575 0.0533845)
(1.14648 0.00822958 0.0469969)
(1.14786 0.00896794 0.0472082)
(1.15242 0.00809516 0.0473323)
(1.14846 0.0085789 0.0478233)
(1.14412 0.00689185 0.0481692)
(1.14159 0.00688498 0.0440989)
(1.14248 0.00884849 0.0437825)
(1.14051 0.00871896 0.0430848)
(1.13922 0.00754131 0.0471455)
(1.13168 0.00460662 0.0463403)
(1.1403 0.00503513 0.0439674)
(1.14559 0.00820961 0.0456072)
(1.14879 0.00843261 0.0454965)
(1.14805 0.00728021 0.0476451)
(1.14029 0.00724554 0.0435505)
(1.13759 0.00750528 0.0429474)
(1.142 0.00993088 0.0411955)
(1.12801 0.0052892 0.0336329)
(1.13751 0.00577702 0.0399446)
(1.13198 0.00293363 0.0386148)
(1.13403 0.00339794 0.0392113)
(1.12827 0.00298875 0.0347987)
(1.13035 0.00564488 0.0348202)
(1.1321 0.00276964 0.0350434)
(1.13312 0.00109347 0.0353547)
(1.12463 -0.000236473 0.0316638)
(1.1313 0.0007355 0.0303678)
(1.13532 0.00372061 0.0314674)
(1.14423 0.0050699 0.0380592)
(1.13653 0.00369286 0.0373594)
(1.1369 0.00330387 0.0366072)
(1.1332 0.00492752 0.0341219)
(1.13639 0.0064354 0.0383867)
(1.1404 0.00576937 0.0393688)
(1.13231 0.00537638 0.0403899)
(1.13208 0.00483683 0.0383657)
(1.13009 0.00658679 0.041296)
(1.13456 0.00751496 0.0429584)
(1.1374 0.00636985 0.043949)
(1.13999 0.00472861 0.0445266)
(1.13713 0.00410337 0.0403575)
(1.13816 0.00432057 0.0373028)
(1.14559 0.00364156 0.0394598)
(1.14643 0.00536046 0.0414983)
(1.13817 0.00350782 0.0413657)
(1.13232 0.00267483 0.0344916)
(1.12964 0.00421811 0.0344352)
(1.13311 0.00474023 0.0335973)
(1.13374 0.0045302 0.0390553)
(1.12705 0.000598005 0.0369682)
(1.1267 -0.000243242 0.0339561)
(1.12799 0.00198733 0.0348855)
(1.13302 0.00324048 0.0366315)
(1.12942 0.00316514 0.0380592)
(1.12647 0.00367402 0.0383631)
(1.11621 0.00369684 0.0345726)
(1.12419 0.00531761 0.0343774)
(1.10406 0.000309725 0.0166818)
(1.11372 0.00166645 0.0205555)
(1.11252 0.00036269 0.0206964)
(1.11023 -0.000324041 0.0203801)
(1.10461 -0.000908632 0.0159489)
(1.10324 0.00100841 0.0170612)
(1.11072 2.30616e-05 0.0197552)
(1.11212 -0.000510595 0.0209671)
(1.1084 -0.00200194 0.0188481)
(1.10624 -0.00242149 0.0167883)
(1.10789 0.000121116 0.0168881)
(1.114 0.00199191 0.0213197)
(1.11594 0.00154011 0.0223922)
(1.11022 -3.05916e-05 0.0206355)
(1.1073 0.000206206 0.017636)
(1.10572 0.000729834 0.0196837)
(1.11704 0.00178513 0.0218973)
(1.11205 0.00216358 0.0225678)
(1.11143 0.000833181 0.0203674)
(1.10471 0.00159896 0.0204355)
(1.10942 0.00253102 0.0226125)
(1.11239 0.00215688 0.0242647)
(1.11737 0.000998144 0.0252145)
(1.11476 0.000277327 0.0228229)
(1.11087 -0.000184773 0.0193548)
(1.11674 -0.00090869 0.0205987)
(1.12261 0.00170325 0.0248794)
(1.12399 0.000407013 0.027364)
(1.1158 -0.000794298 0.022403)
(1.11231 -0.000862243 0.0214204)
(1.11633 0.000159095 0.0200342)
(1.11879 0.00169736 0.0238497)
(1.11766 -0.00156458 0.0233669)
(1.10976 -0.00336446 0.0202102)
(1.10865 -0.00259589 0.0196727)
(1.10905 -0.00105274 0.0202267)
(1.10805 -0.000499352 0.020055)
(1.10976 0.000377462 0.0213918)
(1.09929 -0.000120386 0.0177764)
(1.10256 2.10464e-05 0.0178775)
(1.07284 -0.00202311 0.006495)
(1.07985 -0.000126105 0.00867553)
(1.08289 -0.000117719 0.00915444)
(1.08064 -0.00114293 0.00811097)
(1.07493 -0.00200283 0.00511026)
(1.0733 -0.000830986 0.00536836)
(1.08066 -0.00103249 0.00883002)
(1.08357 -0.000419543 0.0100752)
(1.08231 -0.00206299 0.00942456)
(1.0768 -0.00327995 0.00713941)
(1.07584 -0.00136081 0.00731643)
(1.08075 0.000575949 0.00991032)
(1.08551 0.00107723 0.0112239)
(1.0834 -0.000458554 0.00967523)
(1.07819 -0.00120635 0.00648532)
(1.07693 -0.00154748 0.00645811)
(1.08483 6.21629e-05 0.00763628)
(1.08652 0.00119097 0.00848161)
(1.08465 -0.000220519 0.00644156)
(1.07693 -0.000755387 0.00568358)
(1.07851 -0.000213336 0.00679195)
(1.08221 0.000179221 0.00842259)
(1.08668 -0.000378381 0.00970358)
(1.0854 -0.00116485 0.0091827)
(1.07981 -0.00212626 0.00782709)
(1.08074 -0.0031493 0.00806976)
(1.08935 -4.61242e-05 0.0115303)
(1.09733 -0.000487015 0.0141793)
(1.09355 -0.00197082 0.0122048)
(1.08926 -0.00384859 0.0116153)
(1.09019 -0.00324215 0.010678)
(1.09664 -0.000277605 0.0138711)
(1.09811 -0.00195978 0.0138569)
(1.08808 -0.00374744 0.011332)
(1.08225 -0.00362634 0.0112441)
(1.08058 -0.00222367 0.0109761)
(1.07784 -0.00163841 0.0101557)
(1.08167 -0.000252073 0.0102769)
(1.07584 -0.00127243 0.00832833)
(1.07519 -0.00201068 0.00735103)
(1.04484 -0.00306674 -0.00100674)
(1.04714 -0.0013584 0.000161784)
(1.05011 -0.000483796 0.00050571)
(1.04854 -0.00118335 -0.000537376)
(1.04344 -0.00205009 -0.00209024)
(1.04268 -0.00179818 -0.0016203)
(1.04826 -0.00179062 0.000899593)
(1.05214 -0.000573337 0.00136796)
(1.05166 -0.00203688 0.00103443)
(1.04632 -0.00363565 -0.000418355)
(1.0444 -0.00263911 -0.00011066)
(1.0482 -0.000917745 0.00186925)
(1.05288 0.000298752 0.00278329)
(1.05201 -0.000558578 0.00166456)
(1.04733 -0.00173838 -0.00109398)
(1.04539 -0.0027267 -0.00178637)
(1.05 -0.00103087 -0.00191349)
(1.05489 0.000473492 -0.00141885)
(1.0533 -0.000449359 -0.00302701)
(1.04691 -0.0017682 -0.00295982)
(1.04637 -0.00186412 -0.00232833)
(1.04947 -0.000943704 -0.0015998)
(1.05329 -0.000973885 -0.00104429)
(1.05186 -0.00164385 -0.0012731)
(1.04705 -0.00286936 -0.001192)
(1.0448 -0.00428918 -0.000860238)
(1.05276 -0.00149065 0.00146723)
(1.06144 -0.00119662 0.00287901)
(1.0614 -0.00231552 0.00164076)
(1.05902 -0.00488136 0.00122983)
(1.05782 -0.00496687 0.000594262)
(1.06589 -0.0018098 0.00348186)
(1.06943 -0.00210384 0.00373532)
(1.0623 -0.00357725 0.0022706)
(1.055 -0.00423767 0.00303399)
(1.053 -0.00335166 0.00280938)
(1.05143 -0.00275029 0.00312661)
(1.05509 -0.00106749 0.00293935)
(1.05243 -0.00184857 0.00169717)
(1.04874 -0.0028012 -0.000238648)
(1.02512 -0.00311079 -0.00408916)
(1.02486 -0.00172164 -0.00339251)
(1.02692 -0.000428019 -0.00374148)
(1.02662 -0.000900935 -0.00392994)
(1.02361 -0.00190916 -0.00444749)
(1.02298 -0.00224551 -0.00382943)
(1.02595 -0.00223512 -0.00270386)
(1.02848 -0.00079933 -0.00331381)
(1.0291 -0.00166769 -0.00310904)
(1.02581 -0.00340317 -0.00303257)
(1.02399 -0.00316956 -0.00248332)
(1.02611 -0.00163229 -0.00124913)
(1.02969 -0.000182834 -0.00117343)
(1.02936 -0.000522579 -0.00177642)
(1.02647 -0.00188928 -0.00345627)
(1.02416 -0.00326207 -0.00406678)
(1.02614 -0.00208122 -0.0052634)
(1.03018 -0.000454719 -0.00563061)
(1.02999 -0.000930713 -0.00642853)
(1.02642 -0.00230006 -0.00570884)
(1.02513 -0.00284953 -0.00562996)
(1.0266 -0.00186409 -0.00595002)
(1.0292 -0.00131795 -0.00590257)
(1.02828 -0.00178479 -0.00581994)
(1.02521 -0.00306083 -0.00452665)
(1.02257 -0.00467966 -0.00403539)
(1.02647 -0.00261716 -0.0035919)
(1.03214 -0.00174923 -0.00357968)
(1.03315 -0.0023011 -0.00461597)
(1.03209 -0.00477032 -0.00429222)
(1.03053 -0.00541893 -0.00494319)
(1.03657 -0.00250881 -0.00409178)
(1.04136 -0.00182027 -0.00421938)
(1.03799 -0.00305363 -0.00439526)
(1.03344 -0.00420344 -0.00301211)
(1.03191 -0.00360489 -0.00331519)
(1.03162 -0.00309294 -0.00266457)
(1.03452 -0.00124357 -0.00297538)
(1.03281 -0.00168376 -0.00321796)
(1.02849 -0.00250125 -0.00393525)
(1.0154 -0.00258313 -0.00364513)
(1.01427 -0.00153313 -0.00306516)
(1.01544 -0.000250402 -0.00383531)
(1.0164 -0.000531502 -0.00366432)
(1.01509 -0.00151202 -0.00375459)
(1.0143 -0.00187926 -0.00321778)
(1.01502 -0.00206251 -0.0027643)
(1.01594 -0.000769747 -0.00393033)
(1.01721 -0.00113413 -0.00355136)
(1.016 -0.00270277 -0.00282816)
(1.0141 -0.00268534 -0.00213779)
(1.0148 -0.00147944 -0.00140047)
(1.01706 -0.000158892 -0.00186254)
(1.01762 -0.000350383 -0.00221674)
(1.01655 -0.0015493 -0.00294816)
(1.01466 -0.0029786 -0.00302953)
(1.01457 -0.00215524 -0.00416727)
(1.01683 -0.00067049 -0.00485862)
(1.01751 -0.000842468 -0.00509753)
(1.01612 -0.00209814 -0.00416195)
(1.01485 -0.00269776 -0.00418222)
(1.01483 -0.00184804 -0.00484448)
(1.01659 -0.000979485 -0.00514636)
(1.01692 -0.0013405 -0.00508741)
(1.01558 -0.00238398 -0.0034929)
(1.01366 -0.00388157 -0.0031461)
(1.01438 -0.00244921 -0.00392065)
(1.01704 -0.00159477 -0.00457746)
(1.01781 -0.00174488 -0.00528104)
(1.01757 -0.00377194 -0.00412977)
(1.01588 -0.00460759 -0.00450147)
(1.0183 -0.00222052 -0.00520951)
(1.02216 -0.00124514 -0.00596602)
(1.02132 -0.00204863 -0.00563663)
(1.01922 -0.0031642 -0.00405102)
(1.0182 -0.00284232 -0.00445838)
(1.01816 -0.00249735 -0.00417509)
(1.02035 -0.000956378 -0.00493956)
(1.02008 -0.00115465 -0.0044917)
(1.01752 -0.00183541 -0.00398888)
(1.0127 -0.00192129 -0.00235184)
(1.01153 -0.00115224 -0.00177108)
(1.01213 3.26599e-05 -0.00250993)
(1.01349 -0.000197305 -0.00238329)
(1.01305 -0.00111358 -0.00243963)
(1.0123 -0.00144976 -0.00208664)
(1.01214 -0.00166703 -0.00167353)
(1.01213 -0.000572034 -0.00275401)
(1.01349 -0.000653242 -0.00247557)
(1.01349 -0.0020065 -0.00182063)
(1.01174 -0.00208854 -0.001217)
(1.01151 -0.00119956 -0.000746391)
(1.01272 -0.000138997 -0.00132107)
(1.01357 -0.000298186 -0.00158216)
(1.01364 -0.00125365 -0.00185374)
(1.01243 -0.00245689 -0.00168064)
(1.01162 -0.00179369 -0.0023538)
(1.0127 -0.000578284 -0.00280447)
(1.01357 -0.000662613 -0.00285655)
(1.01316 -0.00172101 -0.00211421)
(1.01218 -0.00223951 -0.00200535)
(1.01149 -0.00141268 -0.00240525)
(1.01267 -0.000554763 -0.00277605)
(1.01365 -0.000916339 -0.00294459)
(1.01319 -0.00181606 -0.0017753)
(1.01186 -0.00297177 -0.00155535)
(1.01145 -0.001863 -0.00238988)
(1.01269 -0.00114354 -0.00295492)
(1.01333 -0.00118939 -0.0034718)
(1.01342 -0.00270454 -0.00231196)
(1.01187 -0.00353541 -0.00252051)
(1.01188 -0.00157563 -0.00334929)
(1.01433 -0.000743413 -0.00415393)
(1.01465 -0.00119043 -0.00396409)
(1.01377 -0.0022612 -0.00262905)
(1.01302 -0.00221995 -0.00303188)
(1.01265 -0.00202521 -0.00294772)
(1.01398 -0.000794591 -0.0037744)
(1.01461 -0.000836251 -0.0033665)
(1.01377 -0.00126041 -0.002689)
(1.01249 -0.00132265 -0.00147051)
(1.01152 -0.000746983 -0.000933046)
(1.01188 0.000218798 -0.00149716)
(1.01317 -2.66894e-05 -0.00142364)
(1.01298 -0.00082167 -0.00153488)
(1.01236 -0.00101233 -0.00139966)
(1.01206 -0.00115486 -0.000965744)
(1.0118 -0.000276456 -0.00171935)
(1.01295 -0.000245046 -0.00150243)
(1.0133 -0.00145019 -0.00108869)
(1.0118 -0.00151664 -0.000685287)
(1.01136 -0.000836959 -0.000347081)
(1.01211 1.78891e-05 -0.000801609)
(1.01287 -0.000154432 -0.00097284)
(1.01323 -0.000939117 -0.00110683)
(1.01242 -0.00181651 -0.000921)
(1.01163 -0.00127976 -0.00129533)
(1.01229 -0.000362104 -0.00144532)
(1.01301 -0.000470918 -0.00138683)
(1.01287 -0.0012953 -0.000931645)
(1.01212 -0.00167605 -0.000805726)
(1.01133 -0.000949991 -0.000933051)
(1.01218 -0.000235801 -0.00116433)
(1.01323 -0.000599149 -0.0014111)
(1.01299 -0.00131672 -0.00070631)
(1.01199 -0.00207594 -0.000587124)
(1.01147 -0.00113842 -0.00112097)
(1.01232 -0.000610235 -0.0013872)
(1.01285 -0.000667771 -0.00180962)
(1.01296 -0.00173496 -0.000957212)
(1.01168 -0.00245646 -0.00111259)
(1.01095 -0.000833788 -0.00162772)
(1.0126 -0.000256189 -0.00211337)
(1.01318 -0.000626925 -0.00216547)
(1.01277 -0.00158457 -0.00125029)
(1.01222 -0.00162696 -0.00167379)
(1.01165 -0.0013868 -0.00162859)
(1.01244 -0.000454283 -0.00218841)
(1.0132 -0.000497 -0.0020031)
(1.01303 -0.000815054 -0.00154728)
(1.01272 -0.00089939 -0.00100924)
(1.01193 -0.000462826 -0.000554743)
(1.0122 0.000319218 -0.000959563)
(1.01332 0.000127505 -0.000935524)
(1.01317 -0.000548187 -0.00101745)
(1.01264 -0.000627462 -0.00106862)
(1.01242 -0.000731997 -0.000665206)
(1.01214 -7.00372e-05 -0.00116067)
(1.01308 2.5645e-05 -0.000977025)
(1.01348 -0.00103088 -0.000682296)
(1.0122 -0.00105071 -0.000442068)
(1.01179 -0.000501434 -0.000170208)
(1.01238 0.000167329 -0.000485858)
(1.01297 -2.05642e-05 -0.000593049)
(1.01333 -0.000649872 -0.000677847)
(1.01271 -0.00126154 -0.000546696)
(1.01206 -0.000820287 -0.000768443)
(1.01261 -0.00019549 -0.000801836)
(1.01316 -0.000321497 -0.000695191)
(1.01304 -0.000957699 -0.000440531)
(1.01246 -0.00123775 -0.000331517)
(1.01175 -0.00060864 -0.000322088)
(1.01242 -3.80926e-05 -0.00046458)
(1.01337 -0.000403955 -0.000658885)
(1.01314 -0.000958774 -0.000239694)
(1.01233 -0.00142746 -0.000154871)
(1.01191 -0.000598203 -0.000487608)
(1.01262 -0.000312158 -0.000544794)
(1.01306 -0.000444069 -0.000884055)
(1.01312 -0.00114994 -0.000310659)
(1.01212 -0.00173213 -0.000447416)
(1.01136 -0.000325382 -0.000756135)
(1.01265 1.45826e-07 -0.000969058)
(1.01319 -0.000317545 -0.0011702)
(1.0129 -0.00108742 -0.0005661)
(1.01248 -0.00117435 -0.00096112)
(1.01188 -0.000864679 -0.000918861)
(1.01247 -0.000214781 -0.0012231)
(1.01314 -0.000251631 -0.00118567)
(1.01307 -0.000532995 -0.000885109)
(1.01292 -0.000626711 -0.000753728)
(1.01227 -0.000250565 -0.000388114)
(1.01248 0.000367249 -0.000666716)
(1.01342 0.000218916 -0.000688594)
(1.01329 -0.000359151 -0.000698381)
(1.01284 -0.000350966 -0.000855456)
(1.01269 -0.000432021 -0.000517037)
(1.01245 5.15472e-05 -0.000847262)
(1.01319 0.000192612 -0.000703526)
(1.01358 -0.000743705 -0.000445229)
(1.01249 -0.000723172 -0.000319383)
(1.01215 -0.000248184 -8.31777e-05)
(1.01265 0.000255697 -0.000301601)
(1.01309 0.000117653 -0.000377956)
(1.0134 -0.000419188 -0.000430487)
(1.01289 -0.000839027 -0.000335115)
(1.01237 -0.000494796 -0.000481548)
(1.01286 -6.7492e-05 -0.000495881)
(1.01328 -0.000233462 -0.000378832)
(1.01316 -0.000687302 -0.000248004)
(1.01271 -0.000906772 -0.000161091)
(1.0121 -0.000356409 -9.87741e-05)
(1.01264 0.000112022 -0.000214969)
(1.01347 -0.000257939 -0.000332265)
(1.01325 -0.000676104 -7.50376e-05)
(1.01259 -0.000965033 -9.23063e-06)
(1.01224 -0.000271746 -0.000214487)
(1.01286 -8.11198e-05 -0.000172419)
(1.01322 -0.00030347 -0.000445198)
(1.01324 -0.00072616 -5.78093e-05)
(1.01248 -0.00121613 -0.00017624)
(1.01181 4.11571e-06 -0.000393522)
(1.01289 0.000149734 -0.000461858)
(1.01333 -0.000122949 -0.00070986)
(1.01308 -0.000695669 -0.000292958)
(1.01277 -0.000865931 -0.000618075)
(1.01221 -0.000473013 -0.000599012)
(1.01271 -4.5013e-05 -0.000731267)
(1.01326 -0.000113345 -0.000781682)
(1.01316 -0.000348696 -0.000539388)
(1.01305 -0.000451801 -0.000560026)
(1.01251 -0.00011209 -0.000292744)
(1.01266 0.000369975 -0.000466954)
(1.01345 0.000254114 -0.000526843)
(1.01334 -0.000212806 -0.000480423)
(1.01296 -0.000186935 -0.000670761)
(1.01286 -0.000220946 -0.000415806)
(1.01266 0.000117073 -0.00061983)
(1.01322 0.000274387 -0.000539857)
(1.01359 -0.000524387 -0.000282997)
(1.01269 -0.000499499 -0.000238128)
(1.01241 -8.1353e-05 -3.18077e-05)
(1.01283 0.000266075 -0.00017283)
(1.01313 0.000216686 -0.000244131)
(1.0134 -0.000276317 -0.000260902)
(1.01301 -0.000546421 -0.00019938)
(1.01258 -0.000283647 -0.000293557)
(1.01301 -2.22952e-06 -0.000312902)
(1.01332 -0.000192904 -0.000212296)
(1.0132 -0.000505394 -0.000155933)
(1.01288 -0.000694825 -0.000101867)
(1.01237 -0.000217057 -1.24464e-05)
(1.01278 0.00019483 -0.000120572)
(1.01349 -0.000163919 -0.000187296)
(1.01328 -0.000481092 -1.74063e-05)
(1.01276 -0.000681658 2.7435e-05)
(1.01248 -0.000112059 -9.02039e-05)
(1.01298 9.91598e-05 -2.16741e-05)
(1.01329 -0.000218226 -0.000226926)
(1.01329 -0.000455273 1.85085e-05)
(1.01273 -0.000890439 -6.13784e-05)
(1.01214 0.000165665 -0.0002424)
(1.01303 0.000219951 -0.000234346)
(1.0134 -5.16901e-05 -0.000470963)
(1.01315 -0.000425847 -0.000185334)
(1.01296 -0.000669907 -0.000409904)
(1.01246 -0.000233601 -0.000433636)
(1.01288 6.31855e-05 -0.000458736)
(1.01334 -6.12645e-05 -0.000550353)
(1.01321 -0.000200744 -0.000341177)
(1.01313 -0.000333591 -0.000397181)
(1.01269 -4.22623e-05 -0.000232593)
(1.01278 0.000352204 -0.000314002)
(1.01344 0.000241403 -0.000401387)
(1.01335 -0.00011132 -0.000317623)
(1.01303 -0.000105212 -0.000504535)
(1.01298 -0.000104237 -0.000325728)
(1.0128 0.000131903 -0.000434019)
(1.0132 0.000280923 -0.00041741)
(1.01355 -0.000348152 -0.000168287)
(1.01283 -0.000371983 -0.000167047)
(1.01259 1.37434e-05 -3.43324e-06)
(1.01295 0.000221761 -7.13548e-05)
(1.01313 0.00026626 -0.000151755)
(1.01337 -0.000172883 -0.000143998)
(1.01308 -0.000373454 -0.000101994)
(1.01272 -0.000148281 -0.000166835)
(1.01308 2.22541e-05 -0.000192478)
(1.01332 -0.000137215 -0.000117027)
(1.0132 -0.000358529 -0.000101893)
(1.01299 -0.000516595 -8.52093e-05)
(1.01257 -0.00013869 1.95436e-05)
(1.01286 0.000243884 -7.8459e-05)
(1.01347 -9.71544e-05 -0.000113173)
(1.01329 -0.000321864 3.9702e-06)
(1.01289 -0.000477121 2.75147e-05)
(1.01267 -3.98135e-05 -4.02285e-05)
(1.01304 0.000208507 4.06173e-05)
(1.01329 -0.000142328 -0.000111656)
(1.01328 -0.000272658 3.32519e-05)
(1.0129 -0.000645005 -6.32615e-06)
(1.01239 0.000213816 -0.000176058)
(1.01309 0.000270185 -0.00012566)
(1.01341 -3.12567e-05 -0.000325787)
(1.01316 -0.000204525 -0.000142088)
(1.01307 -0.000502835 -0.000270608)
(1.01265 -8.562e-05 -0.000333694)
(1.01297 0.0001483 -0.000294345)
(1.01337 -3.82328e-05 -0.000393919)
(1.01322 -9.05024e-05 -0.000232108)
(1.01317 -0.00024289 -0.000263684)
(1.01284 -3.17987e-05 -0.000178235)
(1.01286 0.000320403 -0.000205054)
(1.0134 0.000189626 -0.000294327)
(1.01333 -6.15605e-05 -0.000203264)
(1.01307 -7.33036e-05 -0.000357765)
(1.01305 -5.77788e-05 -0.000251147)
(1.0129 0.00011332 -0.000283404)
(1.01317 0.000253916 -0.000323517)
(1.01348 -0.000226337 -9.16149e-05)
(1.01292 -0.000289985 -9.84657e-05)
(1.01272 5.99538e-05 5.55344e-06)
(1.01303 0.000163027 5.6821e-06)
(1.01311 0.000261976 -8.22095e-05)
(1.0133 -9.80334e-05 -6.96565e-05)
(1.01313 -0.000272778 -2.87271e-05)
(1.01282 -5.3274e-05 -7.98628e-05)
(1.01311 3.48781e-05 -0.000107855)
(1.0133 -9.90851e-05 -5.31487e-05)
(1.01318 -0.000239943 -5.63824e-05)
(1.01306 -0.000379377 -6.85718e-05)
(1.01273 -0.000102368 3.52896e-05)
(1.01291 0.000254602 -4.66028e-05)
(1.01342 -5.42363e-05 -7.15536e-05)
(1.01327 -0.000210491 2.00677e-05)
(1.01297 -0.000317928 1.96979e-05)
(1.01283 -3.08072e-05 -1.64195e-05)
(1.01307 0.000238462 5.83919e-05)
(1.01326 -7.6912e-05 -5.01816e-05)
(1.01326 -0.000155539 2.39172e-05)
(1.01302 -0.000465593 1.29597e-05)
(1.01258 0.00018715 -0.000136635)
(1.0131 0.000294029 -7.89779e-05)
(1.01339 -3.7065e-05 -0.000217721)
(1.01314 -5.50367e-05 -0.000124093)
(1.01314 -0.000364604 -0.000169824)
(1.0128 -3.38767e-05 -0.000254237)
(1.01301 0.00020483 -0.0001888)
(1.01337 -3.99596e-05 -0.000271906)
(1.01322 -2.39076e-05 -0.000163097)
(1.01318 -0.000161599 -0.000166225)
(1.01296 -5.55815e-05 -0.00013137)
(1.01292 0.000280245 -0.000133742)