/*--------------------------------*- C++ -*----------------------------------*\
  =========                 |
  \\      /  F ield         | OpenFOAM: The Open Source CFD Toolbox
   \\    /   O peration     | Website:  https://openfoam.org
    \\  /    A nd           | Version:  10
     \\/     M anipulation  |
\*---------------------------------------------------------------------------*/
FoamFile
{
    format      ascii;
    class       volScalarField;
    location    "15";
    object      nut;
}
// * * * * * * * * * * * * * * * * * * * * * * * * * * * * * * * * * * * * * //

dimensions      [0 2 -1 0 0 0 0];

internalField   nonuniform List<scalar> 
25600
(
5.62124e-08
3.67698e-09
4.63268e-08
2.41802e-08
1.87796e-08
1.19209e-08
1.86067e-08
1.02592e-08
3.70459e-08
2.51035e-08
1.05172e-08
3.30128e-08
1.17608e-08
1.34979e-08
9.31029e-09
1.79536e-08
3.21269e-09
3.30793e-08
1.37091e-08
2.79974e-08
1.63013e-08
2.4093e-09
4.80551e-08
1.24827e-08
2.77478e-08
9.09313e-09
4.05081e-08
4.5758e-09
8.51886e-09
4.83531e-08
1.04338e-08
2.47813e-08
1.84918e-08
2.92105e-08
8.80936e-09
7.48943e-08
3.6293e-09
9.43638e-09
3.6317e-08
1.92218e-08
1.01572e-08
6.24756e-08
9.03563e-09
3.15598e-08
2.1239e-08
4.88453e-09
2.12522e-08
4.98988e-09
5.27457e-08
1.2319e-08
5.29602e-08
1.43743e-08
1.7314e-08
1.4594e-08
3.93451e-09
2.32025e-08
8.75294e-09
3.31338e-08
7.09183e-09
3.66953e-08
1.6214e-08
8.48737e-09
3.04224e-08
9.74577e-09
1.49997e-08
1.35253e-08
2.34766e-08
1.15607e-08
1.20991e-08
3.79873e-08
1.4304e-08
2.13029e-09
5.47322e-08
5.17197e-09
1.69947e-08
5.16149e-08
3.81802e-09
1.59525e-08
3.56507e-08
2.83028e-08
1.30826e-09
9.9355e-08
1.9657e-09
3.8342e-08
1.23517e-08
6.39404e-09
1.38771e-08
1.22424e-08
3.89817e-08
3.86276e-09
7.27008e-08
7.36723e-09
2.97437e-08
1.03433e-08
7.27251e-09
1.76652e-08
8.14228e-09
3.04292e-08
3.45971e-09
2.77495e-08
1.43147e-08
1.00545e-08
2.20758e-08
7.6414e-09
5.23985e-09
2.02326e-08
4.72333e-09
2.38831e-08
1.34541e-08
2.01913e-08
3.23957e-08
1.69516e-09
7.54837e-08
3.82661e-09
3.74373e-08
2.39589e-08
6.27835e-09
2.2527e-08
2.96908e-08
3.2066e-08
8.00516e-10
8.0489e-08
2.31536e-09
2.9781e-08
1.48034e-08
1.00843e-08
8.7954e-09
3.055e-08
1.92653e-08
3.73475e-09
4.39635e-08
7.1096e-09
2.55198e-08
1.52931e-08
1.62432e-08
1.04217e-08
1.16492e-08
1.81799e-08
5.24971e-09
1.94188e-08
1.57656e-08
7.97517e-09
1.68869e-08
1.07058e-08
2.3466e-09
2.87941e-08
3.75956e-09
3.21971e-08
1.23272e-08
5.66811e-09
5.11908e-08
2.10171e-09
7.44862e-08
4.03074e-09
4.32499e-08
1.04546e-08
1.05247e-08
2.70053e-08
2.14875e-08
3.13519e-08
2.43421e-09
4.99842e-08
7.56795e-09
1.75685e-08
2.39613e-08
8.36338e-09
1.04541e-08
2.51183e-08
2.03427e-08
1.36007e-08
1.64755e-08
2.047e-08
1.05318e-08
2.86532e-08
9.17439e-09
1.18579e-08
1.28978e-08
1.34737e-08
5.10524e-09
9.54309e-09
1.65396e-08
8.17199e-09
1.58987e-08
1.73171e-08
1.87601e-09
4.08718e-08
4.81851e-09
3.45543e-08
1.32105e-08
1.45988e-09
5.911e-08
3.1118e-09
6.57352e-08
4.45321e-09
4.25848e-08
9.77536e-09
1.97671e-08
2.73147e-08
2.07214e-08
2.67321e-08
8.24699e-09
2.75562e-08
1.5246e-08
1.08319e-08
3.05579e-08
6.9345e-09
2.03719e-08
5.58703e-09
2.67861e-08
1.11536e-08
1.0495e-08
2.67344e-08
1.08165e-08
3.3488e-08
6.41207e-09
1.49244e-08
1.17876e-08
2.22755e-08
3.76878e-09
1.36451e-08
9.16096e-09
1.5266e-08
1.37519e-08
2.60453e-08
2.68156e-09
4.32669e-08
2.9638e-09
3.01914e-08
1.73333e-08
2.29587e-09
5.19832e-08
5.17264e-09
4.2023e-08
7.43802e-09
3.15837e-08
1.26072e-08
2.39965e-08
2.36616e-08
2.31108e-08
2.44468e-08
1.49768e-08
1.95706e-08
2.26059e-08
1.01382e-08
3.10516e-08
7.62986e-09
3.18495e-08
1.05367e-09
3.56657e-08
8.49548e-09
1.34438e-08
2.17496e-08
1.61929e-08
2.18373e-08
1.05558e-08
5.53254e-09
2.00259e-08
1.62614e-08
7.05656e-09
1.57327e-08
6.27184e-09
2.5787e-08
8.5837e-09
3.50446e-08
2.58831e-09
4.85599e-08
2.4002e-09
2.83573e-08
2.26555e-08
4.63778e-09
3.94254e-08
1.01128e-08
1.98887e-08
1.40367e-08
1.84922e-08
1.79542e-08
1.97842e-08
2.0404e-08
1.59199e-08
2.60343e-08
1.27811e-08
2.05516e-08
1.64173e-08
1.17228e-08
2.17451e-08
1.00723e-08
3.2924e-08
1.79956e-09
4.00285e-08
9.80856e-09
1.43983e-08
2.22593e-08
1.83114e-08
1.54671e-08
2.36126e-08
3.20831e-09
3.99234e-08
9.42257e-09
2.25547e-08
6.02373e-09
1.02625e-08
1.62411e-08
6.97949e-09
2.93565e-08
3.62829e-09
4.6e-08
3.22696e-09
2.69881e-08
2.58241e-08
6.84045e-09
2.85955e-08
1.77821e-08
1.17303e-08
2.31295e-08
1.37796e-08
2.42964e-08
1.7234e-08
1.92303e-08
5.22263e-09
2.87829e-08
1.1682e-08
2.32331e-08
1.01797e-08
1.77273e-08
9.0597e-09
1.50797e-08
2.55851e-08
4.38025e-09
3.38103e-08
1.29834e-08
9.63698e-09
2.6697e-08
1.41033e-08
1.34227e-08
2.31735e-08
3.30639e-09
4.21866e-08
8.49353e-09
3.33051e-08
7.04477e-09
2.32859e-08
6.26571e-09
1.26823e-08
1.61885e-08
1.07275e-08
3.10356e-08
7.88239e-09
1.61246e-08
3.4062e-08
5.23414e-09
2.48391e-08
2.21079e-08
9.5454e-09
2.82729e-08
1.32331e-08
2.52701e-08
1.89756e-08
1.88848e-08
2.03604e-09
2.8238e-08
1.33504e-08
2.27184e-08
8.65603e-09
2.30466e-08
8.79373e-09
1.87305e-08
2.478e-08
1.04193e-08
2.6941e-08
2.01187e-08
4.21908e-09
3.45857e-08
9.92705e-09
1.55658e-08
1.81033e-08
6.98118e-09
3.0697e-08
8.81659e-09
2.78453e-08
8.088e-09
2.63908e-08
7.07631e-09
1.74063e-08
1.67439e-08
1.78392e-08
2.57172e-08
1.95612e-08
1.02283e-08
4.72023e-08
4.68369e-09
2.92101e-08
2.04518e-08
1.25957e-08
2.05289e-08
1.43542e-08
2.02424e-08
2.25915e-08
1.96878e-08
3.68412e-09
2.15535e-08
5.38004e-08
5.75875e-08
3.55444e-08
5.94673e-08
5.41122e-08
3.81592e-08
6.81025e-08
4.41257e-08
4.71007e-08
6.54193e-08
3.66436e-08
6.70895e-08
4.64762e-08
4.91917e-08
5.33397e-08
5.44339e-08
5.02037e-08
4.93731e-08
5.71915e-08
4.04213e-08
6.40467e-08
4.58383e-08
4.65156e-08
5.92165e-08
4.57266e-08
5.48935e-08
5.80641e-08
3.8082e-08
6.90306e-08
4.46377e-08
5.77181e-08
4.74769e-08
5.81388e-08
3.78e-08
5.8141e-08
4.97538e-08
5.27918e-08
5.13559e-08
5.24871e-08
4.52313e-08
8.13173e-07
8.00451e-07
7.94729e-07
8.03099e-07
8.15236e-07
7.81712e-07
8.30017e-07
7.84845e-07
8.11023e-07
8.08881e-07
8.05423e-07
8.06031e-07
8.15129e-07
7.94055e-07
8.20885e-07
8.05348e-07
8.1377e-07
8.04034e-07
8.22103e-07
7.96602e-07
8.30399e-07
8.03104e-07
8.11578e-07
8.17305e-07
8.12395e-07
8.08846e-07
8.24504e-07
7.92396e-07
8.25582e-07
8.02797e-07
8.16062e-07
7.98769e-07
8.19206e-07
7.8865e-07
8.1885e-07
7.98348e-07
8.07861e-07
7.95313e-07
8.13579e-07
7.88663e-07
7.61436e-06
7.55764e-06
7.59907e-06
7.56391e-06
7.62192e-06
7.54489e-06
7.65017e-06
7.54041e-06
7.65253e-06
7.55635e-06
7.65969e-06
7.55706e-06
7.67543e-06
7.55185e-06
7.68888e-06
7.56895e-06
7.69021e-06
7.58253e-06
7.69858e-06
7.5916e-06
7.7069e-06
7.6026e-06
7.69358e-06
7.61269e-06
7.69447e-06
7.59732e-06
7.70198e-06
7.57338e-06
7.69685e-06
7.57552e-06
7.67287e-06
7.57419e-06
7.65299e-06
7.5634e-06
7.63547e-06
7.56183e-06
7.61829e-06
7.55204e-06
7.61802e-06
7.54377e-06
3.40842e-05
3.39532e-05
3.40611e-05
3.39798e-05
3.40782e-05
3.3967e-05
3.41292e-05
3.39427e-05
3.41656e-05
3.39463e-05
3.41873e-05
3.39599e-05
3.42094e-05
3.39653e-05
3.42474e-05
3.39807e-05
3.42739e-05
3.40051e-05
3.42824e-05
3.40326e-05
3.42833e-05
3.40439e-05
3.42732e-05
3.40443e-05
3.4263e-05
3.4025e-05
3.42579e-05
3.39814e-05
3.42549e-05
3.39532e-05
3.42216e-05
3.39489e-05
3.41597e-05
3.39464e-05
3.41126e-05
3.39393e-05
3.40934e-05
3.39228e-05
3.40905e-05
3.39217e-05
8.12892e-05
8.10941e-05
8.12445e-05
8.11564e-05
8.12243e-05
8.117e-05
8.12679e-05
8.11298e-05
8.13277e-05
8.112e-05
8.1356e-05
8.11478e-05
8.1368e-05
8.11716e-05
8.14125e-05
8.11744e-05
8.14551e-05
8.11741e-05
8.14663e-05
8.11884e-05
8.14573e-05
8.11864e-05
8.14441e-05
8.11776e-05
8.14204e-05
8.1171e-05
8.13889e-05
8.11307e-05
8.13921e-05
8.10718e-05
8.13885e-05
8.10353e-05
8.13348e-05
8.10465e-05
8.12811e-05
8.10714e-05
8.12591e-05
8.10639e-05
8.12766e-05
8.10598e-05
0.000130395
0.00013018
0.00013037
0.00013025
0.000130313
0.00013031
0.000130302
0.000130296
0.000130356
0.000130277
0.000130399
0.000130293
0.000130403
0.000130329
0.000130415
0.000130334
0.000130437
0.000130307
0.000130456
0.00013029
0.00013045
0.000130274
0.000130436
0.000130259
0.000130419
0.000130252
0.000130369
0.000130246
0.00013035
0.000130205
0.000130372
0.000130133
0.000130391
0.000130125
0.000130376
0.000130177
0.000130335
0.000130207
0.000130353
0.000130192
0.000169984
0.000169827
0.000170016
0.000169849
0.000169981
0.000169922
0.000169921
0.000169966
0.000169929
0.000169968
0.000169974
0.000169953
0.000169994
0.00016997
0.000169986
0.00016999
0.00016997
0.000169976
0.000169987
0.000169942
0.000169991
0.000169916
0.000169972
0.0001699
0.000169963
0.000169871
0.00016993
0.000169875
0.000169886
0.000169886
0.000169882
0.000169833
0.000169952
0.000169786
0.000169999
0.00016981
0.000169962
0.000169871
0.000169947
0.000169875
0.000200357
0.000200304
0.00020041
0.000200275
0.000200431
0.0002003
0.000200377
0.000200377
0.000200333
0.000200423
0.000200343
0.000200405
0.000200378
0.000200392
0.000200384
0.000200407
0.000200348
0.000200415
0.000200343
0.000200379
0.000200346
0.00020034
0.00020032
0.000200329
0.000200299
0.00020029
0.000200295
0.000200275
0.000200268
0.000200316
0.000200234
0.000200324
0.000200293
0.000200275
0.00020038
0.000200254
0.000200386
0.0002003
0.000200356
0.000200333
0.000222876
0.000222892
0.000222902
0.000222853
0.000222953
0.000222823
0.000222945
0.000222883
0.00022289
0.000222958
0.000222859
0.000222967
0.000222884
0.000222944
0.000222903
0.000222936
0.00022287
0.000222942
0.000222838
0.00022291
0.000222828
0.000222864
0.000222801
0.000222855
0.000222768
0.000222833
0.000222779
0.000222812
0.000222791
0.000222849
0.000222763
0.000222901
0.000222789
0.000222887
0.00022287
0.000222849
0.000222909
0.000222858
0.000222898
0.000222887
0.000238894
0.000238935
0.000238891
0.000238915
0.000238936
0.000238868
0.000238969
0.000238891
0.000238937
0.000238962
0.00023889
0.000238993
0.000238888
0.000238975
0.000238898
0.000238947
0.000238869
0.000238933
0.000238826
0.000238903
0.000238802
0.000238862
0.000238781
0.000238857
0.000238754
0.000238862
0.000238771
0.000238858
0.000238809
0.000238883
0.000238808
0.000238943
0.000238814
0.000238961
0.000238864
0.000238931
0.000238904
0.000238914
0.000238913
0.00023892
0.000249623
0.000249678
0.000249611
0.000249677
0.00024964
0.00024964
0.000249688
0.000249637
0.000249682
0.000249683
0.000249637
0.000249712
0.000249613
0.000249699
0.0002496
0.000249663
0.000249568
0.000249633
0.000249528
0.000249603
0.000249505
0.000249577
0.000249494
0.000249585
0.000249486
0.000249611
0.000249507
0.000249627
0.000249552
0.000249648
0.000249571
0.000249693
0.000249572
0.00024972
0.000249591
0.000249704
0.000249615
0.000249681
0.00024963
0.000249669
0.000256107
0.000256179
0.000256099
0.000256186
0.000256117
0.000256165
0.00025616
0.00025615
0.000256166
0.000256168
0.000256128
0.000256181
0.000256092
0.000256163
0.000256061
0.000256129
0.000256024
0.000256098
0.000255996
0.000256074
0.000255987
0.000256066
0.00025599
0.000256088
0.000255999
0.000256124
0.000256024
0.000256153
0.000256061
0.000256173
0.000256084
0.000256199
0.000256086
0.000256219
0.000256086
0.000256214
0.000256093
0.000256195
0.000256104
0.000256177
0.000259221
0.00025931
0.000259221
0.000259318
0.000259232
0.000259305
0.000259261
0.000259286
0.000259265
0.000259283
0.000259232
0.000259276
0.000259194
0.000259253
0.000259157
0.000259226
0.000259122
0.000259206
0.000259107
0.000259193
0.000259115
0.0002592
0.00025913
0.000259232
0.00025915
0.00025927
0.000259175
0.000259299
0.000259201
0.000259318
0.000259218
0.000259329
0.000259221
0.000259338
0.000259212
0.000259337
0.000259208
0.000259326
0.000259214
0.000259311
0.000259684
0.000259785
0.000259687
0.00025979
0.000259694
0.000259779
0.000259709
0.000259756
0.000259704
0.00025974
0.000259673
0.000259721
0.000259639
0.000259695
0.000259607
0.000259677
0.000259581
0.000259672
0.000259579
0.000259673
0.000259599
0.000259688
0.000259623
0.000259723
0.000259645
0.000259757
0.000259667
0.000259781
0.000259683
0.000259796
0.00025969
0.000259799
0.000259692
0.000259799
0.000259683
0.0002598
0.000259675
0.000259795
0.000259677
0.000259786
0.000258081
0.000258187
0.000258082
0.000258187
0.000258084
0.000258173
0.000258087
0.000258148
0.000258075
0.000258125
0.000258046
0.000258102
0.000258018
0.000258079
0.000257998
0.00025807
0.000257984
0.000258078
0.000257991
0.00025809
0.000258019
0.000258109
0.000258045
0.000258142
0.000258065
0.000258168
0.000258082
0.000258185
0.00025809
0.000258194
0.00025809
0.000258194
0.00025809
0.000258191
0.000258083
0.000258192
0.000258074
0.000258191
0.000258076
0.000258187
0.000254883
0.000254988
0.00025488
0.000254984
0.000254877
0.000254966
0.000254872
0.00025494
0.000254855
0.000254916
0.000254829
0.000254896
0.00025481
0.000254879
0.000254802
0.000254878
0.0002548
0.000254895
0.000254813
0.000254913
0.000254842
0.000254932
0.000254868
0.000254959
0.000254882
0.000254978
0.000254894
0.000254987
0.000254898
0.000254993
0.000254893
0.000254993
0.000254892
0.000254987
0.000254888
0.000254989
0.00025488
0.000254991
0.000254881
0.000254989
0.000250473
0.000250573
0.000250466
0.000250566
0.000250458
0.000250545
0.000250448
0.000250519
0.000250429
0.000250499
0.000250408
0.000250484
0.000250398
0.000250474
0.0002504
0.00025048
0.000250407
0.000250501
0.000250424
0.000250522
0.000250451
0.000250539
0.000250473
0.000250559
0.000250482
0.000250572
0.000250489
0.000250575
0.00025049
0.000250578
0.000250483
0.000250578
0.000250482
0.000250573
0.000250481
0.000250575
0.000250475
0.000250578
0.000250474
0.000250576
0.000245159
0.000245253
0.000245147
0.000245243
0.000245135
0.00024522
0.000245124
0.000245196
0.000245105
0.000245181
0.000245089
0.000245172
0.000245087
0.000245168
0.000245097
0.000245179
0.000245109
0.000245202
0.000245127
0.000245222
0.000245152
0.000245235
0.000245168
0.000245251
0.000245173
0.000245258
0.000245177
0.000245257
0.000245176
0.000245258
0.000245169
0.000245259
0.000245168
0.000245255
0.000245169
0.000245257
0.000245164
0.000245261
0.000245162
0.000245257
0.000239193
0.00023928
0.000239177
0.000239269
0.000239164
0.000239245
0.000239152
0.000239224
0.000239134
0.000239215
0.000239123
0.00023921
0.000239128
0.000239211
0.000239143
0.000239226
0.000239158
0.000239249
0.000239176
0.000239266
0.000239197
0.000239276
0.000239209
0.000239288
0.00023921
0.000239291
0.000239212
0.000239287
0.000239211
0.000239288
0.000239204
0.00023929
0.000239203
0.000239286
0.000239206
0.000239288
0.0002392
0.000239292
0.000239198
0.000239286
0.000232734
0.000232816
0.000232715
0.000232803
0.000232702
0.000232778
0.000232691
0.000232762
0.000232673
0.000232758
0.000232667
0.000232755
0.000232678
0.00023276
0.000232694
0.000232778
0.00023271
0.0002328
0.000232728
0.000232813
0.000232747
0.000232821
0.000232753
0.00023283
0.000232752
0.000232829
0.000232755
0.000232824
0.000232752
0.000232826
0.000232745
0.000232827
0.000232746
0.000232824
0.000232748
0.000232827
0.000232742
0.00023283
0.000232741
0.000232822
0.000226177
0.000226257
0.000226157
0.000226242
0.000226146
0.000226216
0.000226133
0.000226206
0.000226116
0.000226204
0.000226115
0.000226201
0.00022613
0.000226209
0.000226145
0.00022623
0.000226161
0.000226249
0.00022618
0.000226259
0.000226196
0.000226267
0.000226198
0.000226275
0.000226197
0.00022627
0.0002262
0.000226265
0.000226195
0.000226268
0.000226188
0.000226267
0.000226193
0.000226264
0.000226193
0.00022627
0.000226186
0.00022627
0.000226186
0.000226261
0.000218151
0.000218232
0.000218133
0.000218211
0.000218127
0.000218188
0.000218109
0.000218185
0.000218091
0.000218181
0.000218097
0.000218176
0.000218113
0.000218188
0.000218125
0.000218211
0.00021814
0.000218226
0.000218163
0.000218232
0.000218175
0.000218244
0.000218172
0.000218251
0.000218174
0.00021824
0.000218178
0.000218238
0.000218168
0.000218243
0.000218165
0.000218237
0.000218171
0.000218237
0.000218167
0.000218246
0.000218162
0.000218241
0.000218165
0.000218234
5.5374e-08
1.21245e-08
4.06845e-08
2.89398e-08
1.21345e-08
1.45138e-08
1.59636e-08
1.04444e-08
5.02782e-08
2.23203e-08
2.15827e-08
2.61464e-08
1.16527e-08
1.27863e-08
8.94932e-09
1.89338e-08
4.34336e-09
2.96881e-08
1.7291e-08
3.64414e-08
1.38243e-08
6.22089e-09
2.49852e-08
1.46602e-08
2.34127e-08
9.52011e-09
5.09841e-08
5.46338e-09
1.62709e-08
3.55991e-08
1.05562e-08
1.7436e-08
2.29985e-08
2.80836e-08
1.25255e-08
7.55379e-08
4.2871e-09
1.5063e-08
3.17733e-08
2.01665e-08
1.73301e-08
5.87983e-08
1.49588e-08
2.9585e-08
2.08449e-08
3.0865e-09
1.88038e-08
7.05443e-09
5.13119e-08
1.5605e-08
5.53792e-08
1.78209e-08
1.49447e-08
1.82611e-08
3.87754e-09
2.03887e-08
9.10813e-09
1.82548e-08
1.46293e-08
3.12317e-08
1.90129e-08
2.07619e-08
1.3816e-08
2.11016e-08
9.56128e-09
1.58302e-08
2.77235e-08
1.00695e-08
1.88906e-08
3.04084e-08
2.46461e-08
6.21418e-09
6.40119e-08
9.56346e-09
1.87533e-08
6.02756e-08
2.18393e-09
2.63188e-08
3.42168e-08
2.93806e-08
2.50358e-09
7.83458e-08
2.79784e-09
2.40665e-08
1.66201e-08
3.48616e-09
1.78922e-08
1.61488e-08
3.06982e-08
3.58196e-09
5.70312e-08
9.93386e-09
2.16776e-08
1.4279e-08
4.94428e-09
1.30361e-08
6.89051e-09
1.52775e-08
7.15016e-09
1.91608e-08
1.63136e-08
1.97676e-08
1.63861e-08
2.15164e-08
8.22193e-09
2.3792e-08
7.54011e-09
1.90207e-08
1.75818e-08
1.95382e-08
4.00356e-08
5.27827e-09
7.93102e-08
6.49581e-09
3.22419e-08
3.63174e-08
2.90289e-09
3.57838e-08
2.97874e-08
3.12722e-08
3.61557e-10
6.57518e-08
4.33561e-09
2.15353e-08
1.85998e-08
5.21403e-09
1.2365e-08
2.75935e-08
1.84959e-08
4.30813e-09
2.97973e-08
1.03985e-08
2.33844e-08
1.73495e-08
1.65664e-08
4.82041e-09
1.30828e-08
1.2649e-08
9.57475e-09
1.94206e-08
1.27071e-08
1.89225e-08
1.37945e-08
2.35347e-08
6.18328e-09
2.64862e-08
3.77989e-09
2.30727e-08
2.02916e-08
6.62726e-09
5.68109e-08
3.63399e-09
7.62518e-08
4.07673e-09
3.24022e-08
2.23638e-08
4.71546e-09
3.79601e-08
2.04166e-08
3.28246e-08
1.65053e-09
5.24157e-08
1.01502e-08
2.18554e-08
2.35443e-08
8.46005e-09
1.60018e-08
1.95806e-08
1.92011e-08
1.61149e-08
9.26507e-09
2.43424e-08
1.30278e-08
2.281e-08
1.40968e-08
4.30935e-09
2.09772e-08
1.11197e-08
8.31264e-09
1.18785e-08
9.27276e-09
1.69509e-08
1.46418e-08
2.8238e-08
3.60463e-09
4.41128e-08
2.41118e-09
2.84421e-08
1.96107e-08
1.73698e-09
7.04528e-08
3.36646e-09
6.80638e-08
3.16415e-09
3.74297e-08
1.63898e-08
1.39711e-08
2.8996e-08
1.74335e-08
2.93804e-08
4.63789e-09
3.57338e-08
1.32599e-08
1.65031e-08
2.07122e-08
8.35666e-09
2.17403e-08
6.20759e-09
2.26634e-08
1.57952e-08
5.53599e-09
3.30339e-08
1.23361e-08
2.53297e-08
1.14378e-08
6.07441e-09
2.15556e-08
1.95185e-08
6.79529e-09
1.45808e-08
5.66265e-09
1.90978e-08
1.55337e-08
2.78959e-08
3.56287e-09
5.36625e-08
1.34694e-09
3.19595e-08
1.74287e-08
2.00579e-09
6.15895e-08
4.82073e-09
4.23825e-08
4.29962e-09
3.0357e-08
1.60465e-08
3.03455e-08
1.77893e-08
2.38285e-08
2.09795e-08
1.35192e-08
2.38148e-08
1.72925e-08
1.28244e-08
2.07483e-08
8.19137e-09
3.10321e-08
2.16738e-09
2.84677e-08
1.3974e-08
5.83112e-09
3.18091e-08
1.40298e-08
1.88898e-08
1.76299e-08
4.81274e-09
2.95245e-08
1.92763e-08
9.6018e-09
2.09384e-08
4.43041e-09
2.22509e-08
1.03071e-08
2.9184e-08
2.65959e-09
5.55777e-08
1.3903e-09
2.93434e-08
2.13092e-08
4.26317e-09
5.03471e-08
9.11744e-09
1.46965e-08
1.36199e-08
1.2187e-08
1.71944e-08
3.04724e-08
1.20614e-08
2.51495e-08
1.74334e-08
1.41815e-08
2.36621e-08
1.48083e-08
1.43604e-08
1.92297e-08
9.48471e-09
3.85115e-08
2.3379e-09
3.53704e-08
1.44796e-08
9.39547e-09
3.40995e-08
1.36542e-08
1.39312e-08
2.33671e-08
2.49523e-09
3.91772e-08
1.24367e-08
1.48235e-08
1.22596e-08
8.36738e-09
1.54086e-08
9.60095e-09
2.6858e-08
4.53561e-09
5.60629e-08
2.63232e-09
2.77009e-08
2.6645e-08
4.54474e-09
3.97169e-08
1.43124e-08
8.76233e-09
3.31484e-08
6.19195e-09
2.12173e-08
2.55358e-08
9.32481e-09
1.33895e-08
1.70734e-08
1.27515e-08
2.77517e-08
1.01343e-08
2.09457e-08
1.14267e-08
1.13782e-08
3.6422e-08
2.89541e-09
3.55034e-08
1.40159e-08
1.0127e-08
3.7358e-08
1.2524e-08
1.22725e-08
2.29766e-08
2.86623e-09
3.81345e-08
1.15869e-08
2.10174e-08
1.21249e-08
1.85047e-08
9.09015e-09
1.67928e-08
1.88931e-08
8.73867e-09
4.56742e-08
4.76209e-09
1.89168e-08
3.46527e-08
3.48168e-09
3.50304e-08
1.67679e-08
7.52821e-09
3.95741e-08
5.40416e-09
2.24984e-08
2.57253e-08
1.09365e-08
8.9688e-09
1.66911e-08
1.38539e-08
2.83282e-08
8.64124e-09
2.77242e-08
9.98184e-09
1.36905e-08
3.55959e-08
6.69541e-09
2.99519e-08
1.63765e-08
7.44027e-09
4.05212e-08
1.28212e-08
1.28466e-08
2.34932e-08
5.74602e-09
3.22881e-08
1.3861e-08
2.0344e-08
1.50488e-08
2.43091e-08
1.05701e-08
2.21757e-08
2.07125e-08
1.11188e-08
3.92688e-08
9.35266e-09
1.27517e-08
4.59214e-08
3.91258e-09
3.69094e-08
1.84168e-08
1.03162e-08
3.49183e-08
4.74704e-09
1.96125e-08
2.84618e-08
1.56496e-08
1.60314e-08
1.36828e-08
5.00622e-08
6.02558e-08
3.06214e-08
6.21786e-08
4.74445e-08
2.97208e-08
7.17828e-08
3.95514e-08
4.7608e-08
5.84866e-08
3.17173e-08
6.49165e-08
4.94114e-08
4.27577e-08
5.2997e-08
4.47432e-08
4.88698e-08
5.15441e-08
5.34251e-08
3.81962e-08
6.10432e-08
4.31733e-08
4.99949e-08
6.11571e-08
3.66624e-08
6.04177e-08
4.80695e-08
4.17505e-08
7.00072e-08
3.7561e-08
5.8928e-08
4.74664e-08
5.30072e-08
5.23013e-08
4.11381e-08
5.07771e-08
5.03985e-08
4.5728e-08
6.10014e-08
3.1976e-08
7.67476e-07
7.57222e-07
7.46233e-07
7.58812e-07
7.63507e-07
7.2756e-07
7.86057e-07
7.35411e-07
7.64117e-07
7.57068e-07
7.51744e-07
7.58562e-07
7.72181e-07
7.47007e-07
7.7398e-07
7.55266e-07
7.68451e-07
7.64064e-07
7.78112e-07
7.48853e-07
7.87111e-07
7.56354e-07
7.74929e-07
7.74319e-07
7.6445e-07
7.66073e-07
7.77392e-07
7.54533e-07
7.85343e-07
7.49447e-07
7.74669e-07
7.53934e-07
7.73482e-07
7.54684e-07
7.60262e-07
7.56625e-07
7.60417e-07
7.46485e-07
7.76643e-07
7.30567e-07
7.31607e-06
7.23789e-06
7.29702e-06
7.23762e-06
7.31835e-06
7.21077e-06
7.35079e-06
7.21105e-06
7.34832e-06
7.23649e-06
7.35116e-06
7.25701e-06
7.37654e-06
7.26433e-06
7.39323e-06
7.28812e-06
7.40002e-06
7.30849e-06
7.41023e-06
7.306e-06
7.4219e-06
7.31374e-06
7.41341e-06
7.32207e-06
7.40605e-06
7.30557e-06
7.41417e-06
7.28081e-06
7.40773e-06
7.26522e-06
7.38079e-06
7.26126e-06
7.3563e-06
7.25488e-06
7.327e-06
7.25177e-06
7.31337e-06
7.23628e-06
7.32046e-06
7.21925e-06
3.33188e-05
3.3147e-05
3.33059e-05
3.31684e-05
3.33386e-05
3.31534e-05
3.34051e-05
3.31417e-05
3.34587e-05
3.31792e-05
3.3488e-05
3.3236e-05
3.35158e-05
3.32721e-05
3.35575e-05
3.32992e-05
3.35759e-05
3.33253e-05
3.35699e-05
3.334e-05
3.35653e-05
3.33349e-05
3.35492e-05
3.33212e-05
3.35264e-05
3.32872e-05
3.35089e-05
3.32241e-05
3.34949e-05
3.31683e-05
3.34532e-05
3.31455e-05
3.33947e-05
3.31407e-05
3.33448e-05
3.31364e-05
3.33179e-05
3.31271e-05
3.33195e-05
3.31261e-05
8.04005e-05
8.02133e-05
8.03996e-05
8.02899e-05
8.04154e-05
8.03108e-05
8.05026e-05
8.02962e-05
8.06111e-05
8.0308e-05
8.06496e-05
8.03571e-05
8.0651e-05
8.03919e-05
8.06673e-05
8.03728e-05
8.06698e-05
8.03614e-05
8.06338e-05
8.036e-05
8.0586e-05
8.03323e-05
8.05486e-05
8.02989e-05
8.04896e-05
8.02652e-05
8.04338e-05
8.02062e-05
8.04323e-05
8.01204e-05
8.04327e-05
8.00806e-05
8.04102e-05
8.0095e-05
8.03746e-05
8.01217e-05
8.03622e-05
8.01515e-05
8.03849e-05
8.01682e-05
0.000129842
0.000129689
0.000129864
0.00012978
0.000129834
0.000129851
0.000129867
0.00012985
0.000129946
0.000129791
0.000129972
0.000129765
0.000129942
0.000129757
0.000129885
0.000129701
0.000129859
0.000129642
0.000129818
0.000129601
0.000129756
0.000129573
0.000129713
0.000129538
0.000129656
0.000129529
0.000129601
0.000129545
0.000129595
0.000129508
0.000129652
0.000129475
0.000129724
0.000129486
0.000129747
0.000129545
0.000129762
0.000129619
0.000129793
0.000129643
0.000169802
0.000169693
0.000169839
0.000169717
0.000169795
0.000169783
0.000169737
0.000169802
0.000169702
0.000169714
0.000169701
0.000169616
0.000169676
0.000169552
0.000169592
0.000169514
0.000169545
0.00016946
0.000169529
0.000169403
0.000169509
0.000169394
0.000169481
0.000169386
0.000169467
0.000169397
0.000169467
0.000169461
0.000169449
0.000169518
0.000169497
0.000169533
0.000169613
0.000169519
0.000169701
0.000169563
0.00016974
0.000169639
0.000169751
0.000169675
0.000200426
0.000200375
0.000200435
0.000200322
0.000200409
0.000200313
0.000200309
0.000200327
0.000200176
0.000200281
0.000200128
0.00020018
0.000200128
0.000200086
0.000200088
0.000200074
0.000200046
0.000200068
0.000200049
0.000200029
0.000200083
0.000200028
0.000200082
0.000200058
0.000200094
0.000200087
0.000200148
0.000200136
0.000200157
0.00020024
0.000200169
0.000200317
0.000200251
0.00020031
0.000200358
0.000200314
0.000200418
0.000200346
0.000200419
0.000200379
0.000223065
0.000223049
0.000223021
0.000222968
0.000222999
0.000222886
0.000222922
0.000222869
0.000222776
0.000222879
0.000222695
0.000222837
0.000222706
0.000222764
0.000222726
0.000222763
0.000222716
0.000222796
0.000222726
0.000222791
0.000222783
0.000222789
0.000222812
0.000222835
0.000222831
0.000222883
0.000222898
0.000222911
0.000222947
0.000222997
0.000222951
0.000223098
0.000222975
0.000223119
0.000223045
0.0002231
0.000223098
0.000223079
0.0002231
0.00022307
0.000239115
0.000239115
0.000239038
0.000239044
0.000239008
0.000238944
0.000238975
0.000238905
0.000238879
0.000238946
0.000238807
0.000238969
0.000238817
0.000238945
0.000238866
0.000238952
0.000238888
0.000238992
0.000238902
0.000239009
0.000238953
0.000239012
0.000238997
0.000239053
0.000239022
0.000239109
0.000239076
0.000239132
0.00023914
0.000239179
0.000239156
0.000239258
0.000239142
0.000239291
0.000239154
0.000239268
0.000239172
0.000239213
0.000239165
0.000239157
0.00024984
0.00024986
0.000249765
0.000249811
0.000249735
0.000249736
0.000249738
0.000249701
0.000249705
0.00024975
0.000249666
0.000249809
0.000249676
0.000249825
0.000249722
0.000249839
0.000249753
0.000249871
0.00024977
0.000249893
0.000249808
0.000249902
0.000249852
0.000249934
0.000249881
0.000249983
0.00024992
0.000250008
0.000249972
0.000250025
0.000249992
0.00025006
0.000249965
0.00025008
0.000249931
0.000250058
0.000249908
0.000249993
0.000249886
0.000249913
0.000256318
0.000256365
0.000256267
0.00025634
0.000256249
0.000256303
0.000256275
0.000256287
0.000256287
0.000256334
0.00025628
0.000256397
0.000256291
0.000256429
0.000256321
0.000256448
0.000256345
0.00025647
0.00025636
0.000256486
0.00025639
0.0002565
0.000256426
0.000256526
0.000256454
0.000256562
0.00025648
0.000256581
0.000256509
0.000256581
0.00025652
0.000256578
0.00025649
0.000256573
0.000256435
0.000256549
0.000256385
0.00025649
0.000256352
0.000256415
0.000259438
0.000259514
0.000259415
0.000259509
0.000259417
0.000259503
0.000259454
0.000259506
0.000259486
0.000259546
0.000259497
0.000259596
0.000259508
0.000259625
0.000259522
0.000259643
0.000259533
0.000259659
0.000259545
0.00025967
0.00025957
0.000259684
0.000259596
0.000259706
0.000259618
0.000259727
0.000259634
0.000259735
0.00025964
0.000259723
0.000259635
0.000259697
0.000259605
0.000259671
0.000259549
0.000259647
0.000259492
0.000259603
0.000259458
0.000259547
0.000259921
0.000260018
0.00025992
0.000260028
0.000259937
0.00026004
0.000259977
0.000260054
0.000260012
0.000260085
0.000260027
0.000260118
0.000260035
0.000260135
0.00026004
0.000260149
0.000260041
0.000260163
0.000260049
0.000260171
0.00026007
0.000260182
0.000260087
0.000260198
0.000260099
0.000260206
0.000260104
0.000260201
0.000260096
0.000260182
0.000260077
0.000260148
0.000260049
0.000260112
0.000260002
0.00026009
0.000259952
0.000260063
0.000259926
0.000260031
0.000258345
0.000258453
0.000258357
0.000258473
0.000258383
0.000258492
0.00025842
0.000258508
0.000258448
0.000258529
0.000258459
0.000258547
0.000258463
0.000258553
0.000258463
0.000258562
0.00025846
0.000258574
0.000258464
0.000258581
0.00025848
0.000258587
0.000258489
0.000258597
0.000258491
0.000258594
0.000258487
0.000258579
0.00025847
0.000258557
0.000258444
0.000258524
0.000258419
0.000258489
0.000258386
0.000258472
0.000258351
0.000258461
0.000258338
0.000258449
0.000255176
0.000255287
0.000255195
0.000255312
0.000255221
0.00025533
0.000255252
0.000255343
0.000255271
0.000255356
0.000255275
0.000255363
0.000255275
0.000255362
0.000255275
0.000255366
0.00025527
0.000255377
0.000255271
0.000255381
0.000255281
0.000255382
0.000255284
0.000255384
0.000255276
0.000255375
0.000255266
0.000255354
0.000255246
0.000255331
0.000255219
0.000255304
0.000255199
0.000255276
0.00025518
0.000255267
0.000255161
0.000255269
0.000255159
0.000255272
0.000250791
0.0002509
0.000250811
0.000250926
0.000250834
0.00025094
0.000250858
0.000250947
0.000250868
0.000250954
0.000250866
0.000250955
0.000250864
0.000250949
0.000250863
0.00025095
0.000250859
0.000250959
0.000250857
0.000250961
0.000250862
0.000250956
0.000250859
0.000250953
0.000250845
0.000250939
0.00025083
0.000250915
0.000250811
0.000250894
0.000250788
0.000250876
0.000250773
0.000250857
0.000250767
0.000250855
0.00025076
0.000250867
0.000250769
0.00025088
0.000245494
0.0002456
0.000245513
0.000245623
0.000245532
0.000245632
0.000245549
0.000245634
0.000245551
0.000245637
0.000245545
0.000245634
0.000245542
0.000245626
0.000245542
0.000245625
0.000245537
0.000245632
0.000245533
0.00024563
0.000245534
0.000245621
0.000245526
0.000245614
0.000245507
0.000245598
0.000245492
0.000245574
0.000245475
0.000245557
0.000245456
0.000245546
0.000245448
0.000245536
0.000245451
0.000245541
0.000245455
0.000245559
0.00024547
0.000245577
0.000239539
0.000239639
0.000239554
0.00023966
0.000239569
0.000239663
0.000239581
0.000239662
0.000239577
0.000239663
0.000239568
0.000239658
0.000239567
0.000239648
0.000239567
0.000239647
0.000239561
0.000239651
0.000239556
0.000239646
0.000239554
0.000239634
0.000239542
0.000239625
0.00023952
0.000239608
0.000239506
0.000239585
0.000239491
0.000239572
0.000239476
0.000239567
0.000239475
0.000239564
0.000239484
0.000239576
0.000239494
0.000239597
0.000239514
0.000239616
0.000233083
0.000233179
0.000233094
0.000233196
0.000233107
0.000233194
0.000233115
0.000233192
0.000233106
0.000233193
0.000233097
0.000233185
0.000233098
0.000233175
0.000233096
0.000233175
0.00023309
0.000233177
0.000233085
0.000233168
0.000233081
0.000233155
0.000233064
0.000233146
0.000233043
0.000233127
0.000233031
0.000233105