/*--------------------------------*- C++ -*----------------------------------*\
  =========                 |
  \\      /  F ield         | OpenFOAM: The Open Source CFD Toolbox
   \\    /   O peration     | Website:  https://openfoam.org
    \\  /    A nd           | Version:  10
     \\/     M anipulation  |
\*---------------------------------------------------------------------------*/
FoamFile
{
    format      ascii;
    class       surfaceScalarField;
    location    "15";
    object      phi;
}
// * * * * * * * * * * * * * * * * * * * * * * * * * * * * * * * * * * * * * //

dimensions      [0 3 -1 0 0 0 0];

internalField   nonuniform List<scalar> 
74080
(
0.00520034
-6.98538e-08
-4.12108e-08
0.00520029
9.73037e-08
3.66417e-08
0.00520033
-7.75438e-08
-5.00151e-08
0.00520031
4.47456e-08
4.27428e-08
0.00520032
-5.70096e-09
-4.60941e-08
0.00520032
1.1468e-09
2.90051e-08
0.00520032
-6.56691e-09
-1.58447e-08
0.00520031
1.55814e-08
-2.24933e-08
0.00520032
1.23511e-08
5.19859e-08
0.00520032
-4.01627e-08
-7.67606e-08
0.00520031
5.85287e-08
6.25918e-08
0.00520032
-4.60069e-08
-4.96348e-08
0.00520031
2.54014e-08
3.61306e-08
0.00520032
-3.0711e-09
-3.12432e-08
0.00520031
-6.27847e-10
2.0937e-08
0.00520033
-6.69561e-09
-1.97075e-08
0.0052003
1.39377e-08
2.19465e-08
0.00520033
-8.72586e-09
-1.72359e-08
0.00520031
-3.23147e-09
-3.26225e-09
0.00520032
8.42121e-09
3.39671e-08
0.00520033
-1.1926e-08
-6.45261e-08
0.0052003
1.08657e-08
8.99762e-08
0.00520034
-1.91451e-08
-9.52286e-08
0.0052003
2.68856e-08
8.45026e-08
0.00520033
-3.58269e-08
-5.86781e-08
0.0052003
3.49949e-08
3.20673e-08
0.00520034
-3.4551e-08
-1.17681e-08
0.00520031
2.75457e-08
-1.25812e-08
0.0052003
-1.59247e-08
4.51424e-08
0.00520034
-6.09482e-09
-7.83386e-08
0.0052003
3.32243e-08
9.21417e-08
0.00520033
-5.34526e-08
-1.00119e-07
0.0052003
6.34553e-08
8.43951e-08
0.00520034
-6.45216e-08
-7.18539e-08
0.00520028
5.61873e-08
3.66575e-08
0.00520034
-3.41397e-08
-2.267e-09
0.0052003
2.06314e-08
-4.53183e-08
0.00520031
-1.6367e-08
5.36933e-08
0.00520033
1.19933e-08
-5.71452e-08
2.63351e-08
3.80438e-08
0.00472727
-4.53206e-08
6.09551e-09
0.00472731
6.25822e-08
-1.52661e-08
0.00472727
-4.65764e-08
-1.47206e-09
0.00472729
2.98108e-08
3.66174e-09
0.0047273
-4.95973e-09
-1.4471e-08
0.00472728
6.76958e-09
8.71743e-09
0.0047273
-9.387e-09
-1.35327e-08
0.00472727
1.98413e-08
9.17514e-09
0.00472732
-4.41386e-10
-8.51532e-09
0.00472726
-1.64225e-08
4.50358e-10
0.00472731
2.82644e-08
-3.82196e-09
0.00472728
-1.92062e-08
-1.71601e-09
0.00472729
9.7355e-09
1.05816e-08
0.0047273
3.19086e-10
-1.93704e-08
0.00472728
-2.51074e-10
2.35817e-08
0.00472731
-8.66168e-09
-3.27649e-08
0.00472728
1.31621e-08
4.56844e-08
0.00472731
-8.74464e-09
-5.31963e-08
0.00472728
9.68327e-10
4.97786e-08
0.0047273
-3.06454e-09
-2.05892e-08
0.00472729
-1.50703e-09
-2.69254e-08
0.00472729
4.46444e-09
7.39826e-08
0.0047273
-1.56719e-08
-9.23427e-08
0.00472729
1.96393e-08
8.85733e-08
0.0047273
-2.75628e-08
-7.27823e-08
0.00472729
3.41829e-08
5.11187e-08
0.0047273
-4.09362e-08
-2.65649e-08
0.0047273
3.11943e-08
-8.63737e-09
0.00472728
-6.48425e-09
3.90881e-08
0.0047273
-1.99399e-08
-6.55175e-08
0.0047273
4.05109e-08
7.11611e-08
0.00472728
-4.43989e-08
-8.00202e-08
0.00472731
4.64688e-08
6.04158e-08
0.00472728
-4.57289e-08
-4.40287e-08
0.00472728
5.18151e-08
4.57505e-09
0.00472731
-4.00193e-08
1.99816e-08
0.00472728
2.78104e-08
-5.29468e-08
0.00472729
-8.73802e-09
4.37066e-08
0.00472729
8.97376e-10
-3.49593e-08
2.57878e-08
1.88508e-09
0.00429726
-7.89185e-09
3.22572e-08
0.00429734
1.3287e-08
-4.22974e-08
0.00429727
-1.69103e-09
2.29512e-08
0.00429731
4.23665e-09
-1.69166e-08
0.0042973
7.07995e-09
6.08047e-09
0.0042973
1.20267e-10
-1.1614e-08
0.0042973
2.75481e-09
3.35127e-09
0.00429729
9.47855e-09
1.28495e-08
0.00429732
-5.38591e-09
-3.49738e-08
0.00429726
1.10806e-08
4.77815e-08
0.00429733
-1.28298e-08
-5.00228e-08
0.00429727
2.01083e-08
3.50441e-08
0.00429731
-1.71772e-08
-7.38576e-09
0.0042973
1.20601e-08
-1.22903e-08
0.00429729
-3.01485e-09
2.74298e-08
0.00429731
-8.47107e-09
-3.63749e-08
0.00429729
1.0793e-08
4.91894e-08
0.00429731
-8.43014e-09
-5.49261e-08
0.00429729
2.08071e-09
5.98594e-08
0.00429731
-7.41749e-09
-3.7221e-08
0.00429729
2.15872e-09
-5.02276e-09
0.0042973
1.74567e-09
4.8918e-08
0.0042973
-1.58274e-08
-6.1793e-08
0.0042973
1.81814e-08
5.80645e-08
0.0042973
-2.43499e-08
-5.07311e-08
0.0042973
3.21894e-08
4.05109e-08
0.0042973
-3.67884e-08
-2.47276e-08
0.00429731
2.28416e-08
-5.15695e-09
0.0042973
8.12109e-09
2.29182e-08
0.00429729
-2.80687e-08
-3.9581e-08
0.00429732
3.69296e-08
3.43944e-08
0.00429727
-2.46827e-08
-4.12126e-08
0.00429733
2.1249e-08
1.92753e-08
0.00429728
-1.76196e-08
-6.42842e-09
0.00429731
3.49082e-08
-2.54232e-08
0.0042973
-3.22475e-08
2.81109e-08
0.00429729
2.79933e-08
-4.27745e-08
0.0042973
-1.8997e-09
2.06921e-08
0.00429729
-3.37573e-09
-1.03207e-08
1.63465e-08
-2.35623e-08
0.00390639
2.07741e-08
3.0764e-08
0.00390645
-1.97731e-08
-3.55861e-08
0.0039064
2.7766e-08
1.34027e-08
0.00390643
-1.15791e-08
-4.96951e-09
0.00390642
1.81954e-08
2.45312e-10
0.00390643
-1.16566e-08
-1.29191e-08
0.00390641
2.61254e-08
1.44375e-08
0.00390643
-1.69175e-08
2.21027e-09
0.00390643
1.06945e-08
-3.04752e-08
0.0039064
1.59344e-08
5.30223e-08
0.00390644
-3.03301e-08
-5.47259e-08
0.00390641
3.97702e-08
3.69251e-08
0.00390643
-3.1291e-08
4.41242e-10
0.00390642
1.90863e-08
-2.43764e-08
0.00390642
-5.74354e-09
4.30424e-08
0.00390642
-5.74217e-09
-4.4097e-08
0.00390642
4.85529e-09
4.62562e-08
0.00390643
-4.23557e-09
-3.67795e-08
0.00390642
-1.36767e-09
3.60016e-08
0.00390642
-2.80212e-09
-1.56524e-08
0.00390642
-2.63406e-09
-1.31096e-08
0.00390642
4.30179e-09
4.21203e-08
0.00390642
-1.90769e-08
-3.99719e-08
0.00390643
2.00034e-08
3.26045e-08
0.00390642
-2.35757e-08
-2.96038e-08
0.00390643
3.08674e-08
2.70173e-08
0.00390641
-3.04788e-08
-1.44565e-08
0.00390643
1.38375e-08
-1.34313e-08
0.00390643
1.52841e-08
2.68061e-08
0.00390641
-2.32538e-08
-3.48946e-08
0.00390645
2.14413e-08
1.98139e-08
0.00390639
2.44803e-09
-1.86249e-08
0.00390645
-5.75491e-09
-1.08648e-08
0.0039064
9.97498e-09
2.29018e-08
0.00390644
1.67692e-08
-4.71444e-08
0.00390642
-2.06744e-08
3.0206e-08
0.00390642
2.69971e-08
-2.61662e-08
0.00390643
1.17521e-09
-3.84824e-09
0.00390641
-1.29388e-09
7.77427e-09
6.33752e-09
-3.09756e-08
0.00355109
3.56708e-08
1.95227e-08
0.00355111
-3.16292e-08
-1.3237e-08
0.0035511
3.6125e-08
-1.3784e-08
0.0035511
-9.6231e-09
2.25913e-08
0.00355111
1.8047e-08
-2.13048e-08
0.0035511
-1.43192e-08
8.95367e-10
0.00355109
4.27837e-08
1.12555e-08
0.00355111
-3.79133e-08
4.28537e-10
0.0035511
2.95771e-08
-2.49234e-08
0.0035511
7.857e-09
5.23738e-08
0.0035511
-2.63151e-08
-5.28907e-08
0.0035511
3.57535e-08
3.492e-08
0.0035511
-2.24533e-08
1.21554e-08
0.00355111
6.1976e-09
-4.02466e-08
0.0035511
7.58984e-09
6.37113e-08
0.00355111
-1.46225e-08
-5.89692e-08
0.0035511
8.23739e-09
5.36609e-08
0.00355111
-6.45429e-09
-2.74355e-08
0.0035511
-3.24392e-09
2.0755e-08
0.0035511
3.31021e-09
1.25866e-09
0.0035511
-1.12816e-08
-1.39456e-08
0.00355111
9.80604e-09
3.16257e-08
0.0035511
-2.22791e-08
-2.20862e-08
0.00355111
2.08662e-08
1.98681e-08
0.00355109
-2.2391e-08
-2.35885e-08
0.00355112
2.86535e-08
2.99861e-08
0.00355109
-2.2647e-08
-1.94443e-08
0.00355111
6.5638e-09
-9.17129e-09
0.00355111
1.71204e-08
2.51736e-08
0.00355108
-9.49288e-09
-3.84727e-08
0.00355113
-1.02133e-09
2.16255e-08
0.00355107
3.34473e-08
-1.27121e-08
0.00355113
-3.2306e-08
-2.52757e-08
0.00355108
3.64367e-08
3.52539e-08
0.00355112
-1.67018e-09
-5.23311e-08
0.00355109
-2.47051e-09
1.89906e-08
0.0035511
1.92091e-08
-3.38721e-09
0.00355111
7.73272e-09
-3.30654e-08
0.00355109
2.21132e-10
2.8038e-08
2.80889e-09
-3.70728e-08
0.0032281
3.44323e-08
1.59014e-08
0.0032281
-2.16987e-08
1.53632e-09
0.00322811
2.4363e-08
-3.29741e-08
0.0032281
9.59346e-09
4.22014e-08
0.00322812
5.1194e-09
-3.70934e-08
0.0032281
-3.84885e-09
1.44567e-08
0.00322811
4.49504e-08
5.46726e-09
0.00322811
-4.43945e-08
3.24643e-09
0.00322811
3.78467e-08
-2.20913e-08
0.0032281
5.98037e-09
5.28777e-08
0.00322811
-2.26653e-08
-5.33218e-08
0.00322811
2.98086e-08
4.17444e-08
0.0032281
-1.11246e-08
8.1933e-09
0.00322812
-9.98706e-09
-3.66074e-08
0.0032281
2.66751e-08
6.66613e-08
0.00322811
-3.0545e-08
-5.81291e-08
0.0032281
2.12472e-08
5.23727e-08
0.00322811
-1.90101e-08
-1.80841e-08
0.0032281
6.00277e-09
1.21941e-08
0.00322811
-2.90525e-09
6.01211e-09
0.0032281
-6.43139e-09
-3.47964e-09
0.00322812
3.4856e-09
1.33891e-08
0.0032281
-1.50088e-08
1.99675e-09
0.00322812
1.4012e-08
3.67371e-09
0.0032281
-1.52861e-08
-1.47365e-08
0.00322812
2.16896e-08
3.36471e-08
0.0032281
-1.18023e-08
-2.6778e-08
0.00322811
-1.08435e-09
1.6945e-10
0.00322812
1.78963e-08
2.15933e-08
0.00322809
4.34846e-09
-3.80054e-08
0.00322813
-1.77461e-08
2.16053e-08
0.00322809
5.4873e-08
-8.6548e-09
0.00322812
-4.72913e-08
-3.35257e-08
0.0032281
5.23855e-08
4.10637e-08
0.00322812
-1.19175e-08
-5.28878e-08
0.0032281
1.48419e-08
7.35159e-09
0.00322811
8.44619e-09
2.03781e-08
0.00322811
2.12252e-08
-6.34833e-08
0.0032281
-5.60552e-09
5.23683e-08
1.09999e-08
-4.88019e-08
0.00293449
2.9382e-08
2.02507e-08
0.00293449
-4.8512e-09
5.7151e-09
0.00293451
5.88432e-09
-3.97275e-08
0.00293448
3.68732e-08
4.88618e-08
0.00293451
-1.41969e-08
-4.07766e-08
0.00293448
1.44191e-08
1.82657e-08
0.0029345
3.64334e-08
5.42188e-09
0.00293448
-3.61029e-08
1.71168e-09
0.0029345
3.24836e-08
-1.44559e-08
0.00293448
1.58528e-08
4.83329e-08
0.0029345
-2.90128e-08
-4.99304e-08
0.00293449
3.47901e-08
4.73683e-08
0.00293449
-1.30302e-08
6.58061e-10
0.00293449
-1.08665e-08
-2.3438e-08
0.00293449
2.96881e-08
5.71835e-08
0.00293449
-3.11939e-08
-4.41155e-08
0.0029345
2.03795e-08
4.05777e-08
0.00293449
-2.11462e-08
-6.71863e-10
0.00293449
9.53701e-09
-1.31369e-09
0.0029345
-1.13411e-08
1.73792e-08
0.00293448
6.45759e-09
2.74206e-09
0.00293451
-1.54361e-08
1.45592e-09
0.00293448
5.14922e-09
1.92795e-08
0.00293451
-4.06136e-09
-4.97845e-09
0.00293448
4.82238e-10
-7.86702e-09
0.00293451
7.65804e-09
3.28938e-08
0.00293448
5.12434e-09
-2.42792e-08
0.0029345
-1.24767e-08
-2.90296e-10
0.0029345
2.44837e-08
2.47066e-08
0.00293448
1.07506e-08
-4.30411e-08
0.00293451
-2.40726e-08
2.78317e-08
0.00293449
6.38376e-08
-8.88031e-09
0.00293449
-4.68045e-08
-3.99268e-08
0.0029345
5.37978e-08
4.68677e-08
0.00293449
-6.9263e-09
-5.60934e-08
0.00293449
2.14373e-08
3.35641e-09
0.00293449
5.11051e-09
3.05342e-08
0.0029345
3.04304e-08
-8.0852e-08
0.00293449
-6.87423e-09
6.9698e-08
1.87899e-08
-6.12332e-08
0.00266759
3.25594e-08
2.42983e-08
0.00266759
4.95789e-09
3.24339e-09
0.0026676
-3.58702e-09
-3.72821e-08
0.00266758
5.55101e-08
4.64684e-08
0.0026676
-2.4487e-08
-3.63333e-08
0.00266758
2.6673e-08
1.55961e-08
0.0026676
3.04795e-08
1.08651e-08
0.00266758
-2.68384e-08
-3.74698e-09
0.0026676
2.54378e-08
-3.59472e-09
0.00266758
2.90291e-08
3.86869e-08
0.00266759
-3.96474e-08
-3.93836e-08
0.00266758
4.58823e-08
4.60365e-08
0.00266759
-2.30293e-08
-1.30425e-09
0.00266758
-4.17216e-10
-1.39401e-08
0.0026676
1.92153e-08
4.97852e-08
0.00266758
-1.68679e-08
-2.99033e-08
0.0026676
9.8244e-10
3.00909e-08
0.00266758
-3.86663e-09
1.52939e-08
0.0026676
-6.58917e-09
-1.05829e-08
0.00266759
-3.98742e-09
2.66539e-08
0.00266758
7.45776e-09
6.59108e-09
0.0026676
-2.52565e-08
-4.57632e-10
0.00266758
1.79437e-08
2.36956e-08
0.0026676
-1.48272e-08
-3.51241e-10
0.00266758
1.1115e-08
-1.06563e-08
0.00266761
-3.20239e-09
4.15352e-08
0.00266758
2.14299e-08
-2.73077e-08
0.0026676
-2.56575e-08
3.46375e-09
0.0026676
3.58673e-08
2.84509e-08
0.00266759
1.01512e-08
-4.79245e-08
0.00266759
-1.97806e-08
3.54922e-08
0.00266759
6.07913e-08
-1.23286e-08
0.00266758
-3.22882e-08
-3.82368e-08
0.0026676
4.19956e-08
4.64918e-08
0.00266758
1.18349e-08
-5.5677e-08
0.00266759
1.69196e-08
3.47456e-09
0.00266759
1.16746e-08
3.12948e-08
0.0026676
3.2473e-08
-8.51154e-08
0.00266758
5.91721e-10
7.56888e-08
1.93697e-08
-6.77883e-08
0.00242496
4.19449e-08
2.67819e-08
0.00242497
5.94667e-09
-7.48901e-10
0.00242497
-1.49035e-09
-3.17569e-08
0.00242496
6.20986e-08
4.02152e-08
0.00242496
-2.17607e-08
-2.91501e-08
0.00242496
2.5758e-08
1.18481e-08
0.00242496
3.65212e-08
1.60737e-08
0.00242496
-2.78095e-08
-8.72377e-09
0.00242497
2.71749e-08
8.07886e-09
0.00242496
3.41051e-08
2.8391e-08
0.00242496
-4.398e-08
-2.60465e-08
0.00242496
5.08207e-08
4.05274e-08
0.00242497
-2.9909e-08
3.35904e-09
0.00242496
6.87874e-09
-9.75924e-09
0.00242497
9.05764e-09
4.78635e-08
0.00242495
-2.59212e-09
-2.06907e-08
0.00242498
-2.31175e-08
2.60868e-08
0.00242495
2.0435e-08
2.42955e-08
0.00242498
-3.30273e-08
-1.09519e-08
0.00242496
1.35834e-08
3.02947e-08
0.00242497
-2.99878e-09
1.39517e-08
0.00242497
-2.44368e-08
-1.67138e-09
0.00242497
1.62841e-08
2.7329e-08
0.00242497
-8.95789e-09
8.24351e-09
0.00242497
3.05669e-09
-1.52422e-08
0.00242497
3.76751e-09
5.23297e-08
0.00242497
2.06424e-08
-3.07271e-08
0.00242496
-2.43938e-08
1.03934e-08
0.00242498
3.69455e-08
2.76792e-08
0.00242496
1.60366e-08
-4.57576e-08
0.00242497
-1.93683e-08
3.90161e-08
0.00242497
6.02417e-08
-1.48524e-08
0.00242496
-1.75879e-08
-3.43972e-08
0.00242498
2.94545e-08
4.31958e-08
0.00242496
3.44704e-08
-5.43504e-08
0.00242497
8.67635e-09
6.32517e-09
0.00242496
2.17425e-08
2.45503e-08
0.00242497
3.22497e-08
-7.89386e-08
0.00242496
1.17042e-08
7.20844e-08
1.57043e-08
-6.80154e-08
0.0022044
4.92772e-08
2.74429e-08
0.00220441
6.40958e-09
-4.76818e-09
0.00220441
2.91978e-09
-2.60594e-08
0.00220441
6.47197e-08
3.58766e-08
0.00220441
-1.4175e-08
-2.51707e-08
0.00220441
1.80488e-08
1.27489e-08
0.00220441
4.92592e-08
1.61178e-08
0.00220441
-3.66666e-08
-8.04346e-09
0.00220441
3.55678e-08
1.41989e-08
0.00220441
3.13914e-08
2.27578e-08
0.0022044
-4.213e-08
-1.47905e-08
0.00220441
4.75345e-08
3.49282e-08
0.00220441
-2.89908e-08
1.03724e-08
0.00220441
3.49987e-09
-8.82419e-09
0.00220441
7.79166e-09
5.13179e-08
0.0022044
6.09749e-10
-1.59002e-08
0.00220442
-3.99261e-08
2.77851e-08
0.0022044
3.71535e-08
2.83622e-08
0.00220442
-5.54701e-08
-5.09649e-09
0.00220441
2.53236e-08
2.97387e-08
0.00220441
-1.0679e-08
2.50143e-08
0.00220442
-2.7112e-08
-3.39726e-09
0.00220441
1.35231e-08
3.34551e-08
0.00220441
-1.28503e-10
1.59668e-08
0.00220442
-1.21301e-08
-1.54358e-08
0.00220441
1.97787e-08
5.97292e-08
0.00220442
8.47738e-09
-2.96792e-08
0.0022044
-1.16305e-08
1.54242e-08
0.00220443
2.72375e-08
2.94221e-08
0.0022044
3.34665e-08
-4.26717e-08
0.00220442
-3.16369e-08
4.15091e-08
0.00220441
7.34014e-08
-1.54252e-08
0.00220441
-1.5587e-08
-2.95964e-08
0.00220442
2.88271e-08
4.01578e-08
0.00220441
4.86872e-08
-5.30644e-08
0.00220441
7.88965e-09
1.19231e-08
0.00220441
2.54724e-08
1.31132e-08
0.00220441
3.93161e-08
-6.57269e-08
0.0022044
1.73022e-08
6.16335e-08
1.61587e-08
-6.31061e-08
0.00200391
4.79974e-08
2.78936e-08
0.00200392
1.1823e-08
-8.56711e-09
0.00200392
1.08678e-09
-1.93455e-08
0.00200391
7.04262e-08
3.20808e-08
0.00200391
-1.11009e-08
-2.25174e-08
0.00200392
1.06431e-08
1.7167e-08
0.00200391
5.95558e-08
1.27295e-08
0.00200392
-4.67299e-08
-1.40353e-09
0.00200391
4.14199e-08
1.4305e-08
0.00200392
2.84713e-08
2.46291e-08
0.00200391
-4.4107e-08
-9.24008e-09
0.00200392
4.29217e-08
3.46207e-08
0.00200391
-2.88114e-08
1.57377e-08
0.00200392
-5.48466e-09
-6.38509e-09
0.00200391
1.05443e-08
5.4714e-08
0.00200391
-6.16977e-09
-1.05935e-08
0.00200392
-5.17577e-08
3.16212e-08
0.00200391
4.43994e-08
3.18273e-08
0.00200392
-7.35603e-08
4.56507e-09
0.00200392
2.83524e-08
2.85725e-08
0.00200391
-1.31325e-08
3.82793e-08
0.00200393
-3.91532e-08
-4.67718e-09
0.00200392
1.60727e-08
4.17931e-08
0.00200392
1.63085e-09
2.1924e-08
0.00200392
-2.36851e-08
-1.08814e-08
0.00200391
3.05288e-08
6.411e-08
0.00200393
-1.4585e-09
-2.23002e-08
0.00200391
-2.64283e-09
1.68121e-08
0.00200393
2.01224e-08
3.55695e-08
0.00200391
4.97222e-08
-4.07522e-08
0.00200393
-4.69703e-08
4.63166e-08
0.00200391
9.18585e-08
-1.71708e-08
0.00200392
-2.15273e-08
-2.12146e-08
0.00200392
3.69044e-08
3.46258e-08
0.00200392
5.41177e-08
-4.83938e-08
0.00200391
1.51492e-08
1.65195e-08
0.00200392
1.95709e-08
2.14149e-09
0.00200391
5.56656e-08
-5.04099e-08
0.00200392
1.24637e-08
4.93636e-08
2.53188e-08
-5.63251e-08
0.0018216
4.08874e-08
3.10037e-08
0.0018216
1.88256e-08
-1.33456e-08
0.00182161
-7.76405e-09
-1.05285e-08
0.0018216
7.85274e-08
2.82097e-08
0.0018216
-1.55166e-08
-1.85907e-08
0.0018216
4.10742e-09
2.24647e-08
0.0018216
6.30524e-08
1.0226e-08
0.0018216
-5.61631e-08
6.46025e-09
0.0018216
3.89189e-08
1.28475e-08
0.0018216
2.8846e-08
3.12864e-08
0.0018216
-5.75906e-08
-6.77873e-09
0.0018216
4.15157e-08
3.94739e-08
0.0018216
-3.80875e-08
1.84901e-08
0.00182161
-1.51042e-08
1.34246e-10
0.0018216
8.25742e-09
5.78363e-08
0.0018216
-1.74304e-08
-1.71172e-09
0.0018216
-6.71042e-08
3.46717e-08
0.0018216
4.67739e-08
3.88132e-08
0.00182161
-9.44381e-08
1.36082e-08
0.0018216
2.66542e-08
3.10498e-08
0.00182159
-1.71671e-08
5.1713e-08
0.00182161
-5.72429e-08
-2.18257e-09
0.0018216
1.86416e-08
5.1489e-08
0.00182161
-2.80746e-09
2.93706e-08
0.00182161
-3.39626e-08
-2.83912e-09
0.0018216
3.42562e-08
6.86043e-08
0.00182161
-7.55037e-09
-1.10152e-08
0.0018216
-3.26379e-09
1.80566e-08
0.00182161
1.9952e-08
4.55512e-08
0.0018216
5.65437e-08
-3.8314e-08
0.00182161
-5.86822e-08
5.47227e-08
0.0018216
1.06716e-07
-1.92149e-08
0.0018216
-2.75433e-08
-9.5696e-09
0.00182161
4.33668e-08
2.83827e-08
0.0018216
5.96394e-08
-4.00926e-08
0.0018216
1.9729e-08
1.99764e-08
0.00182161
1.2757e-08
-5.55234e-09
0.0018216
7.17092e-08
-3.60913e-08
0.0018216
3.32788e-09
3.91931e-08
3.57993e-08
-4.98158e-08
0.00165507
3.20129e-08
4.0074e-08
0.00165507
1.75495e-08
-1.69554e-08
0.00165508
-1.94026e-08
-3.62426e-11
0.00165507
7.85144e-08
2.60736e-08
0.00165508
-2.38029e-08
-1.00119e-08
0.00165507
-9.63162e-09
3.06618e-08
0.00165507
6.05304e-08
1.00462e-08
0.00165507
-7.05461e-08
1.46552e-08
0.00165507
2.73348e-08
1.24479e-08
0.00165506
2.62938e-08
4.30781e-08
0.00165507
-8.27916e-08
-2.64551e-09
0.00165507
3.85432e-08
4.64284e-08
0.00165507
-5.91358e-08
2.03483e-08
0.00165507
-2.77971e-08
8.35658e-09
0.00165506
-4.81825e-09
6.36185e-08
0.00165506
-3.33649e-08
1.15478e-08
0.00165507
-9.11946e-08
3.71605e-08
0.00165506
4.37718e-08
4.7601e-08
0.00165507
-1.23846e-07
2.1823e-08
0.00165506
2.12812e-08
4.05122e-08
0.00165505
-3.13311e-08
6.609e-08
0.00165507
-7.77138e-08
4.32514e-09
0.00165506
1.13891e-08
6.04098e-08
0.00165506
-1.0849e-08
4.048e-08
0.00165507
-5.20708e-08
1.05963e-08
0.00165506
3.28974e-08
7.76831e-08
0.00165507
-1.81192e-08
3.95507e-09
0.00165507
-1.11623e-08
2.06579e-08
0.00165507
1.87943e-08
5.94313e-08
0.00165506
5.43937e-08
-2.98981e-08
0.00165507
-7.11306e-08
6.83243e-08
0.00165507
1.14943e-07
-1.69768e-08
0.00165507
-3.51342e-08
3.37228e-09
0.00165508
4.38475e-08
2.56175e-08
0.00165507
6.42528e-08
-2.61949e-08
0.00165507
1.59843e-08
2.72577e-08
0.00165508
6.71966e-09
-7.98585e-09
0.00165507
7.8713e-08
-2.33048e-08
0.00165507
-6.252e-09
3.47233e-08
3.8178e-08
-4.10286e-08
0.00149769
1.8931e-08
5.66439e-08
0.00149769
5.45711e-09
-2.77396e-08
0.00149769
-3.38972e-08
1.11068e-08
0.00149768
6.47755e-08
2.55504e-08
0.00149769
-3.56108e-08
8.30866e-09
0.00149767
-3.25601e-08
3.773e-08
0.00149768
4.87013e-08
5.50244e-09
0.00149767
-8.97269e-08
1.65789e-08
0.00149767
5.50604e-09
1.22847e-08
0.00149766
1.45285e-08
6.11944e-08
0.00149766
-1.14134e-07
-4.59022e-09
0.00149766
2.56784e-08
4.74615e-08
0.00149766
-8.65847e-08
1.28607e-08
0.00149765
-4.88246e-08
1.70113e-08
0.00149764
-2.78617e-08
7.20145e-08
0.00149764
-5.79427e-08
2.41936e-08
0.00149763
-1.19503e-07
2.75713e-08
0.00149763
2.86621e-08
5.43064e-08
0.00149763
-1.56494e-07
2.79465e-08
0.00149762
6.0113e-09
5.99197e-08
0.00149761
-5.64353e-08
7.96015e-08
0.00149762
-9.93279e-08
7.12809e-09
0.00149762
-1.01149e-08
6.65692e-08
0.00149762
-2.46514e-08
5.88921e-08
0.00149763
-8.05961e-08
3.08583e-08
0.00149762
2.43339e-08
9.53878e-08
0.00149763
-3.83797e-08
1.54057e-08
0.00149764
-2.51019e-08
2.60206e-08
0.00149764
8.15216e-09
8.31052e-08
0.00149765
4.1923e-08
-9.31415e-09
0.00149765
-8.66133e-08
9.12243e-08
0.00149766
1.11146e-07
-1.41754e-08
0.00149766
-4.85814e-08
1.72283e-08
0.00149768
3.50905e-08
3.55087e-08
0.00149767
5.85602e-08
-4.8105e-09
0.00149768
4.33654e-09
4.36934e-08
0.00149769
-4.71296e-09
-1.38912e-08
0.00149769
7.30703e-08
-1.12047e-08
0.00149769
-2.01652e-08
3.95135e-08
2.88041e-08
-2.64056e-08
0.0013372
1.68505e-09
5.10222e-08
0.00133722
-9.59208e-09
-6.50024e-08
0.0013372
-4.82086e-08
2.06861e-08
0.0013372
4.1805e-08
1.07236e-08
0.0013372
-4.76679e-08
7.17227e-09
0.00133718
-5.51045e-08
3.17049e-09
0.00133719
3.13912e-08
-1.24278e-08
0.00133717
-1.04419e-07
-4.89048e-10
0.00133717
-2.24185e-08
5.45909e-09
0.00133716
-6.70122e-10
5.69643e-08
0.00133715
-1.3985e-07
-4.59861e-08
0.00133714
6.08749e-09
4.01314e-08
0.00133713
-1.10495e-07
-1.98119e-09
0.00133712
-7.29055e-08
2.2006e-08
0.00133711
-5.2599e-08
7.13718e-08
0.0013371
-8.26745e-08
1.28402e-08
0.00133708
-1.40109e-07
7.99304e-09
0.00133708
4.57587e-09
8.24418e-08
0.00133707
-1.78909e-07
2.84963e-08
0.00133707
-1.56955e-08
8.48436e-08
0.00133706
-7.98055e-08
7.65996e-08
0.00133707
-1.1592e-07
9.28716e-09
0.00133707
-3.57989e-08
9.01758e-08
0.00133707
-3.9354e-08
9.17071e-08
0.00133708
-1.05971e-07
4.20965e-08
0.00133708
1.3247e-08
1.15595e-07
0.0013371
-5.72223e-08
1.27895e-08
0.00133711
-3.84496e-08
5.37299e-08
0.00133712
-6.71714e-09
1.1398e-07
0.00133714
2.54364e-08
3.41318e-10
0.00133713
-9.63098e-08
1.03633e-07
0.00133717
9.71494e-08
-2.9518e-08
0.00133716
-6.03308e-08
4.05375e-08
0.0013372
2.16326e-08
4.36821e-08
0.0013372
4.40156e-08
-3.47188e-09
0.0013372
-8.47157e-09
4.49195e-08
0.00133721
-1.92212e-08
-4.68986e-08
0.00133722
6.00134e-08
9.18947e-09
0.00133721
-3.65633e-08
3.41952e-08
1.46122e-08
-3.19997e-08
0.00117268
-1.59944e-08
9.98108e-09
0.00117269
-1.76153e-08
-1.10503e-07
0.00117267
-5.99348e-08
1.50764e-08
0.00117268
2.01365e-08
-4.25654e-08
0.00117267
-5.16621e-08
-3.94063e-08
0.00117264
-7.26543e-08
-4.3061e-08
0.00117266
1.70407e-08
-1.61554e-08
0.00117263
-1.10725e-07
-4.12972e-08
0.00117264
-4.63048e-08
4.17109e-09
0.00117262
-9.70913e-09
1.12475e-08
0.0011726
-1.55192e-07
-7.13844e-08
0.0011726
-1.16929e-08
7.51292e-08
0.00117258
-1.22975e-07
-1.40228e-08
0.00117256
-9.19882e-08
3.51951e-08
0.00117256
-6.8511e-08
7.88114e-08
0.00117254
-9.85088e-08
3.88391e-09
0.00117252
-1.4681e-07
5.35789e-08
0.00117253
-1.731e-08
1.30092e-07
0.00117251
-1.82815e-07
1.87515e-08
0.00117251
-3.29302e-08
1.2631e-07
0.00117251
-9.02115e-08
7.65499e-08
0.00117251
-1.18138e-07
4.57218e-08
0.00117252
-5.39808e-08
1.39436e-07
0.00117253
-4.48602e-08
9.48863e-08
0.00117253
-1.16616e-07
3.68848e-08
0.00117255
6.97123e-09
1.40525e-07
0.00117257
-6.63112e-08
-1.14486e-09
0.00117257
-4.59175e-08
9.9229e-08
0.0011726
-1.54984e-08
8.2222e-08
0.00117261
1.18286e-08
-2.22749e-08
0.00117262
-9.58621e-08
8.78895e-08
0.00117266
8.14685e-08
-6.04951e-08
0.00117265
-6.70137e-08
5.63005e-08
0.00117269
1.10874e-08
-1.38722e-08
0.00117268
2.77356e-08
-3.5298e-08
0.00117269
-1.75851e-08
1.10261e-08
0.0011727
-3.03118e-08
-9.39803e-08
0.0011727
4.45474e-08
2.55392e-08
0.00117269
-4.95723e-08
-4.21616e-08
4.06183e-09
-6.64049e-08
0.00101248
-2.71879e-08
-5.21318e-08
0.0010125
-1.74913e-08
-1.3882e-07
0.00101246
-6.99857e-08
-2.32278e-09
0.00101248
9.88028e-09
-9.69154e-08
0.00101246
-5.24398e-08
-5.5979e-08
0.00101244
-8.24971e-08
-3.34854e-08
0.00101246
9.58204e-09
-2.26509e-08
0.00101242
-1.11854e-07
-4.98845e-08
0.00101244
-5.94033e-08
4.24519e-08
0.00101241
-1.62316e-08
-1.33109e-08
0.00101239
-1.58952e-07
-2.34634e-09
0.00101239
-2.33102e-08
1.18002e-07
0.00101237
-1.26064e-07
-1.41507e-08
0.00101235
-1.0034e-07
1.03805e-07
0.00101234
-7.47763e-08
1.01402e-07
0.00101232
-1.03822e-07
3.57649e-08
0.00101232
-1.4157e-07
1.38792e-07
0.00101232
-3.23128e-08
1.27193e-07
0.0010123
-1.71588e-07
3.76121e-08
0.00101231
-4.37078e-08
1.79562e-07
0.00101231
-8.97406e-08
6.42844e-08
0.00101231
-1.12305e-07
8.78275e-08
0.00101233
-6.12933e-08
1.42137e-07
0.00101233
-4.25448e-08
5.03004e-08
0.00101234
-1.15685e-07
4.86611e-08
0.00101236
4.12439e-09
1.22815e-07
0.00101238
-6.74379e-08
-4.45362e-08
0.00101239
-4.7042e-08
1.00832e-07
0.00101242
-1.82485e-08
-1.68602e-08
0.00101242
2.29533e-09
-3.51615e-08
0.00101244
-8.97857e-08
3.11986e-08
0.00101247
6.41124e-08
-1.04392e-07
0.00101247
-6.81983e-08
1.80058e-08
0.0010125
4.35655e-09
-1.09256e-07
0.00101249
1.20189e-08
-5.31868e-08
0.0010125
-1.86387e-08
-6.17108e-08
0.0010125
-3.80195e-08
-1.30349e-07
0.0010125
2.99709e-08
-6.70878e-09
0.0010125
-5.24128e-08
-1.44908e-07
-4.51135e-09
-6.66896e-08
0.000862438
-2.99045e-08
-1.0615e-07
0.00086244
-1.62929e-08
-1.08304e-07
0.000862413
-7.37221e-08
-5.49938e-09
0.000862433
7.09939e-09
-9.75877e-08
0.0008624
-5.38626e-08
-9.72905e-09
0.000862397
-8.21698e-08
1.54267e-09
0.000862404
2.52404e-09
-4.51052e-09
0.000862366
-1.07976e-07
1.70725e-08
0.00086238
-6.23201e-08
8.69373e-08
0.000862348
-2.12254e-08
1.50678e-08
0.000862337
-1.51431e-07
1.03325e-07
0.000862328
-3.00178e-08
1.23504e-07
0.000862308
-1.20968e-07
3.80287e-08
0.000862297
-9.89775e-08
1.74262e-07
0.000862287
-7.55994e-08
9.88536e-08
0.00086227
-1.00517e-07
9.08086e-08
0.000862267
-1.30587e-07
1.71253e-07
0.000862264
-4.07006e-08
9.00664e-08
0.000862255
-1.52765e-07
7.96345e-08
0.000862264
-5.05587e-08
1.65759e-07
0.000862267
-8.29692e-08
2.64472e-08
0.00086227
-1.02728e-07
9.84814e-08
0.000862291
-6.07038e-08
7.94393e-08
0.000862298
-3.75111e-08
2.73082e-10
0.00086231
-1.08304e-07
3.97699e-08
0.000862335
1.33922e-09
3.64362e-08
0.000862348
-6.37257e-08
-8.52986e-08
0.000862366
-4.2691e-08
4.98532e-08
0.000862389
-1.96859e-08
-1.16251e-07
0.000862394
-2.99494e-09
-4.44169e-08
0.000862417
-7.85061e-08
-6.67663e-08
0.000862431
4.7176e-08
-1.37143e-07
0.000862436
-6.1337e-08
-5.11197e-08
0.000862453
-1.21e-09
-1.69286e-07
0.000862443
1.2113e-09
-7.31554e-08
0.000862458
-1.51304e-08
-1.37923e-07
0.000862447
-4.368e-08
-1.34216e-07
0.000862452
2.16476e-08
-6.30912e-08
0.000862449
-4.98678e-08
-1.81222e-07
-1.16578e-08
-4.43345e-08
0.000725785
-2.84063e-08
-1.02692e-07
0.000725779
-1.68073e-08
-3.27857e-08
0.000725762
-6.96716e-08
8.80733e-09
0.000725774
5.64572e-09
-3.87183e-08
0.000725744
-5.30521e-08
5.82795e-08
0.000725747
-7.40924e-08
4.14933e-08
0.000725742
-3.24325e-09
5.10665e-08
0.000725716
-9.7303e-08
9.38968e-08
0.00072572
-6.09135e-08
1.13119e-07
0.000725693
-2.36744e-08
7.60621e-08
0.000725683
-1.37008e-07
1.60287e-07
0.00072567
-3.39899e-08
1.13169e-07
0.000725655
-1.09834e-07
9.99397e-08
0.000725643
-9.35868e-08
1.75711e-07
0.000725634
-7.32817e-08
8.2023e-08
0.000725622
-9.25487e-08
1.17556e-07
0.000725618
-1.18801e-07
1.30903e-07
0.000725619
-4.37533e-08
5.2902e-08
0.000725614
-1.33496e-07
8.27386e-08
0.000725623
-5.4311e-08
8.88791e-08
0.000725632
-7.32272e-08
-1.03059e-08
0.000725638
-9.17729e-08
6.12794e-08
0.000725659
-5.67637e-08
-7.11817e-09
0.000725669
-3.22472e-08
-3.7826e-08
0.000725685
-9.60921e-08
-1.07435e-08
0.000725707
-2.78072e-10
-5.64432e-08
0.000725722
-5.58372e-08
-1.08138e-07
0.000725739
-3.71399e-08
-2.87191e-08
0.000725756
-1.92481e-08
-1.71358e-07
0.000725764
-3.41204e-09
-6.65808e-08
0.00072578
-6.76422e-08
-1.48834e-07
0.000725787
3.45248e-08
-1.42221e-07
0.000725796
-5.11546e-08
-1.11465e-07
0.000725799
-6.72248e-09
-1.80113e-07
0.000725796
-3.29547e-09
-9.30959e-08
0.000725805
-1.25813e-08
-1.6531e-07
0.000725791
-4.57356e-08
-1.11055e-07
0.000725799
1.76464e-08
-9.26313e-08
0.000725791
-4.69476e-08
-1.43607e-07
-1.53887e-08
-2.07661e-08
0.000603925
-2.642e-08
-4.77834e-08
0.000603918
-1.57824e-08
4.07298e-08
0.000603907
-6.18625e-08
3.92678e-08
0.000603912
3.72666e-09
3.91074e-08
0.00060389
-4.79105e-08
1.06215e-07
0.00060389
-6.40783e-08
8.06395e-08
0.000603881
-6.91248e-09
1.05668e-07
0.000603863
-8.31886e-08
1.31078e-07
0.000603857
-5.80121e-08
1.22917e-07
0.000603838
-2.3016e-08
1.15769e-07
0.000603826
-1.21059e-07
1.54538e-07
0.000603813
-3.5712e-08
9.88495e-08
0.000603802
-9.68627e-08
1.14892e-07
0.000603788
-8.71575e-08
1.25252e-07
0.000603783
-6.86213e-08
5.86585e-08
0.000603775
-8.34301e-08
9.19971e-08
0.000603772
-1.06929e-07
6.20245e-08
0.000603777
-4.29713e-08
1.74492e-08
0.000603777
-1.15233e-07
3.85884e-08
0.000603787
-5.32784e-08
7.43076e-09
0.0006038
-6.19831e-08
-4.19263e-08
0.000603808
-8.07185e-08
-1.39481e-09
0.00060383
-4.95711e-08
-7.25243e-08
0.000603843
-2.60292e-08
-6.89551e-08
0.000603858
-8.15361e-08
-7.03466e-08
0.000603877
-6.51865e-10
-1.10267e-07
0.000603892
-4.55459e-08
-1.22631e-07
0.000603904
-3.15534e-08
-9.32658e-08
0.000603916
-1.68667e-08
-1.80745e-07
0.000603925
-2.49957e-09
-9.21832e-08
0.000603932
-5.80185e-08
-1.8139e-07
0.000603937
2.6031e-08
-1.27062e-07
0.000603944
-4.22463e-08
-1.39471e-07
0.000603939
-1.08194e-08
-1.52171e-07
0.000603942
-4.60785e-09
-9.39758e-08
0.000603943
-1.22343e-08
-1.39841e-07
0.000603932
-4.36489e-08
-7.27972e-08
0.000603939
1.40785e-08
-7.57499e-08
0.000603929
-4.31931e-08
-7.37044e-08
-1.59925e-08
8.82918e-09
0.000497025
-2.32453e-08
1.62437e-08
0.00049702
-1.31246e-08
8.89939e-08
0.000497011
-5.27063e-08
7.14229e-08
0.000497012
2.58116e-09
9.42243e-08
0.000496996
-4.0342e-08
1.23961e-07
0.000496992
-5.46605e-08
1.04982e-07
0.000496982
-7.99041e-09
1.26132e-07
0.000496968
-6.95654e-08
1.2851e-07
0.000496957
-5.39318e-08
1.14344e-07
0.000496944
-2.09906e-08
1.12856e-07
0.000496929
-1.06012e-07
1.14631e-07
0.000496919
-3.53224e-08
7.43402e-08
0.00049691
-8.44968e-08
8.38288e-08
0.000496898
-7.95289e-08
6.40363e-08
0.000496897
-6.22604e-08
2.63353e-08
0.000496892
-7.4085e-08
3.91358e-08
0.000496893
-9.43031e-08
1.95174e-09
0.000496902
-3.91818e-08
-1.88976e-08
0.000496905
-9.69778e-08
-1.63837e-08
0.000496918
-4.77074e-08
-4.74287e-08
0.000496933
-5.0148e-08
-6.86678e-08
0.000496942
-6.70738e-08
-5.6227e-08
0.000496962
-4.06907e-08
-1.0452e-07
0.000496975
-1.94728e-08
-9.1975e-08
0.000496988
-6.68091e-08
-1.08425e-07
0.000497003
-1.05685e-10