/*--------------------------------*- C++ -*----------------------------------*\
  =========                 |
  \\      /  F ield         | OpenFOAM: The Open Source CFD Toolbox
   \\    /   O peration     | Website:  https://openfoam.org
    \\  /    A nd           | Version:  10
     \\/     M anipulation  |
\*---------------------------------------------------------------------------*/
FoamFile
{
    format      ascii;
    class       volVectorField;
    location    "15";
    object      U;
}
// * * * * * * * * * * * * * * * * * * * * * * * * * * * * * * * * * * * * * //

dimensions      [0 1 -1 0 0 0 0];

internalField   nonuniform List<vector> 
25600
(
(0.136971 -1.20118e-06 5.80451e-07)
(0.13697 1.37849e-06 7.75819e-07)
(0.13697 1.1009e-06 5.93858e-07)
(0.136969 2.73744e-06 1.34335e-06)
(0.136967 2.78315e-06 7.82896e-07)
(0.136967 2.47413e-06 5.46737e-07)
(0.136964 3.42691e-06 1.05611e-06)
(0.136964 2.99149e-06 1.20862e-06)
(0.136964 4.43221e-06 1.65761e-06)
(0.136961 3.0488e-06 1.60995e-06)
(0.136962 4.77058e-06 1.44039e-06)
(0.13696 5.66007e-06 1.4509e-06)
(0.136962 5.83226e-06 1.87958e-06)
(0.136961 8.47402e-06 1.57016e-06)
(0.136965 8.22482e-06 1.43498e-06)
(0.136964 1.03491e-05 1.46295e-06)
(0.136966 1.01801e-05 1.18688e-06)
(0.136965 1.07896e-05 9.52561e-07)
(0.136965 9.20431e-06 1.17342e-06)
(0.136966 1.07337e-05 7.81807e-07)
(0.13696 8.89756e-06 6.17415e-07)
(0.136967 6.91762e-06 7.46064e-07)
(0.136956 8.2177e-06 -4.33012e-08)
(0.136966 4.04017e-06 3.46386e-07)
(0.136956 2.50793e-06 -1.43858e-08)
(0.136965 1.99961e-06 -4.8773e-07)
(0.136963 -1.66006e-06 3.59114e-07)
(0.13696 -3.03553e-06 -4.18234e-07)
(0.13697 -4.88252e-06 -5.19852e-09)
(0.136963 -6.15466e-06 2.71718e-07)
(0.136969 -8.24135e-06 -4.22033e-08)
(0.13697 -6.28181e-06 5.16285e-07)
(0.136968 -9.03746e-06 7.06335e-07)
(0.136971 -8.4779e-06 4.40506e-07)
(0.136971 -7.08345e-06 7.88361e-07)
(0.136973 -7.77321e-06 8.63223e-07)
(0.13697 -5.09547e-06 8.84205e-07)
(0.136971 -5.77111e-06 2.54686e-07)
(0.136974 -2.95624e-06 1.04908e-06)
(0.136971 -1.58065e-06 1.07942e-06)
(0.138073 1.41885e-06 1.00582e-06)
(0.138072 4.03293e-06 8.60759e-07)
(0.138072 2.41239e-06 8.94147e-07)
(0.138069 5.74418e-06 2.4809e-06)
(0.138066 3.85362e-06 8.62411e-07)
(0.138068 6.98123e-06 4.85487e-07)
(0.138065 5.67974e-06 7.8678e-07)
(0.138065 4.03149e-06 1.24963e-06)
(0.138063 6.87652e-06 2.54388e-06)
(0.138059 2.3445e-06 1.76132e-06)
(0.138063 6.49219e-06 1.37807e-06)
(0.138061 6.07761e-06 1.11613e-06)
(0.138065 5.30526e-06 1.96306e-06)
(0.138064 8.17479e-06 1.82113e-06)
(0.138067 5.89838e-06 2.42388e-06)
(0.138064 1.16693e-05 2.29013e-06)
(0.138063 9.99976e-06 2.17421e-06)
(0.13806 1.2217e-05 1.67405e-06)
(0.138062 9.81465e-06 1.98072e-06)
(0.138061 1.20467e-05 1.23282e-06)
(0.138058 9.64659e-06 1.16431e-06)
(0.138063 7.40941e-06 1.10633e-06)
(0.138057 1.0174e-05 -1.60675e-07)
(0.138061 2.68912e-06 3.56388e-07)
(0.138057 1.31338e-06 -6.05369e-07)
(0.138064 2.30033e-06 -1.28265e-06)
(0.13806 -3.86044e-06 -1.00033e-07)
(0.13806 -3.75156e-06 -1.67137e-06)
(0.138069 -6.76603e-06 -8.87694e-07)
(0.138062 -9.39809e-06 -3.57221e-07)
(0.138071 -8.67275e-06 -9.019e-07)
(0.13807 -7.41232e-06 -2.21197e-08)
(0.138067 -1.16986e-05 4.46341e-07)
(0.138073 -7.60824e-06 7.77949e-08)
(0.138072 -9.64045e-06 4.37631e-07)
(0.138075 -8.86527e-06 1.12564e-06)
(0.138072 -3.92292e-06 1.02049e-06)
(0.138073 -6.77396e-06 -2.90109e-08)
(0.138077 -1.82914e-06 1.53389e-06)
(0.138072 -2.06486e-06 1.83112e-06)
(0.138319 4.75973e-06 1.97386e-06)
(0.138316 7.20971e-06 1.69727e-06)
(0.138316 5.25527e-06 1.2087e-06)
(0.138313 9.8584e-06 3.59364e-06)
(0.138311 4.16623e-06 7.48579e-07)
(0.138313 1.25207e-05 1.23709e-06)
(0.138307 8.25043e-06 8.77204e-07)
(0.13831 7.13214e-06 1.19147e-06)
(0.138305 1.00204e-05 3.38126e-06)
(0.138302 3.3196e-07 1.86595e-06)
(0.138308 8.95873e-06 1.76399e-06)
(0.138305 5.36311e-06 1.34088e-06)
(0.13831 5.74456e-06 2.53605e-06)
(0.138308 8.5431e-06 1.8679e-06)
(0.138312 3.86971e-06 3.15058e-06)
(0.13831 1.52348e-05 2.80664e-06)
(0.138307 1.01284e-05 2.88826e-06)
(0.138303 1.50175e-05 2.43954e-06)
(0.138305 9.99928e-06 2.92327e-06)
(0.138305 1.31795e-05 1.90376e-06)
(0.1383 1.01731e-05 2.01233e-06)
(0.138307 7.80671e-06 1.40616e-06)
(0.138299 1.35739e-05 -2.49544e-08)
(0.1383 -1.32937e-07 5.18222e-08)
(0.138302 -8.42713e-08 -9.54635e-07)
(0.138306 4.01897e-06 -2.14972e-06)
(0.138301 -7.86317e-06 -7.49235e-07)
(0.138303 -3.16055e-06 -2.60996e-06)
(0.13831 -9.21127e-06 -1.88716e-06)
(0.138305 -1.42583e-05 -1.08114e-06)
(0.138316 -8.55382e-06 -1.03039e-06)
(0.138312 -8.26273e-06 -6.65205e-07)
(0.13831 -1.5106e-05 4.65005e-08)
(0.138318 -6.57866e-06 5.2893e-07)
(0.138314 -1.31324e-05 3.07444e-07)
(0.138321 -9.28975e-06 1.02415e-06)
(0.138316 -3.32611e-06 1.63519e-06)
(0.138318 -8.10101e-06 2.03008e-07)
(0.138322 6.92603e-07 2.17948e-06)
(0.138316 -3.50163e-06 2.25814e-06)
(0.138466 1.07169e-05 3.50948e-06)
(0.138458 1.03339e-05 2.98491e-06)
(0.138459 9.52068e-06 1.94725e-06)
(0.138454 1.42e-05 5.42334e-06)
(0.138454 4.28748e-06 4.96355e-07)
(0.138456 2.07006e-05 2.67483e-06)
(0.138446 1.04422e-05 8.604e-07)
(0.138453 1.22574e-05 1.49103e-06)
(0.138444 1.22022e-05 4.81163e-06)
(0.138444 -2.48093e-06 1.95315e-06)
(0.138453 1.40458e-05 2.34355e-06)
(0.138445 4.08474e-06 1.61241e-06)
(0.138454 8.10181e-06 3.45231e-06)
(0.138449 7.46059e-06 1.97482e-06)
(0.138458 6.07931e-07 4.24837e-06)
(0.138455 2.03576e-05 3.30689e-06)
(0.138449 9.51853e-06 3.76017e-06)
(0.138445 2.06952e-05 3.25056e-06)
(0.138446 8.95102e-06 4.29329e-06)
(0.138447 1.57161e-05 2.64681e-06)
(0.13844 1.088e-05 3.03432e-06)
(0.138451 1.0007e-05 1.62437e-06)
(0.138437 1.93091e-05 1.71277e-07)
(0.138436 -5.65041e-06 -4.00541e-07)
(0.138446 6.5656e-07 -1.31674e-06)
(0.138445 5.49062e-06 -3.21865e-06)
(0.138441 -1.28457e-05 -1.52292e-06)
(0.138445 3.17131e-07 -3.72441e-06)
(0.138446 -1.52848e-05 -2.9872e-06)
(0.138448 -1.95821e-05 -1.90097e-06)
(0.138461 -7.29886e-06 -9.80507e-07)
(0.138451 -1.08724e-05 -1.44989e-06)
(0.138454 -1.77288e-05 -1.39775e-07)
(0.13846 -5.50687e-06 1.45299e-06)
(0.138455 -1.98838e-05 4.50823e-09)
(0.138468 -8.12482e-06 9.68819e-07)
(0.138458 -2.96251e-06 2.61074e-06)
(0.138461 -9.76664e-06 4.40361e-07)
(0.138466 3.07258e-06 3.37329e-06)
(0.138461 -6.30936e-06 2.80572e-06)
(0.138601 1.97059e-05 5.84869e-06)
(0.138586 1.34007e-05 4.80982e-06)
(0.138589 1.7192e-05 3.41123e-06)
(0.138579 1.78939e-05 8.04747e-06)
(0.138586 4.30722e-06 3.31246e-08)
(0.138587 3.18046e-05 5.28677e-06)
(0.138572 1.28515e-05 5.21547e-07)
(0.138581 2.12665e-05 2.49631e-06)
(0.138565 1.20751e-05 6.74228e-06)
(0.138574 -5.32137e-06 1.98142e-06)
(0.138584 2.14124e-05 3.3214e-06)
(0.138571 1.93067e-06 1.99679e-06)
(0.138583 1.35609e-05 4.85299e-06)
(0.138574 3.71523e-06 1.86125e-06)
(0.138592 -2.29607e-06 5.47106e-06)
(0.138587 2.74387e-05 3.41564e-06)
(0.138578 9.02746e-06 4.72994e-06)
(0.138573 3.01044e-05 4.07065e-06)
(0.138572 4.94691e-06 6.17779e-06)
(0.138577 1.98318e-05 3.35464e-06)
(0.138566 1.11756e-05 4.3622e-06)
(0.138583 1.46952e-05 1.81609e-06)
(0.138558 2.67161e-05 5.0725e-07)
(0.138558 -1.45635e-05 -1.15343e-06)
(0.13858 3.77362e-06 -1.50872e-06)
(0.138568 5.5929e-06 -4.6479e-06)
(0.138568 -1.78591e-05 -2.45971e-06)
(0.138572 6.70263e-06 -4.75514e-06)
(0.138566 -2.67679e-05 -4.12481e-06)
(0.138581 -2.44714e-05 -2.86603e-06)
(0.138593 -5.65492e-06 -6.56489e-07)
(0.138575 -1.47275e-05 -2.39811e-06)
(0.138585 -1.83279e-05 1.48249e-07)
(0.138587 -6.31471e-06 2.90707e-06)
(0.138584 -2.93594e-05 -7.23459e-07)
(0.138604 -3.92723e-06 1.10046e-06)
(0.138585 -4.07497e-06 3.97198e-06)
(0.138592 -1.07015e-05 5.84493e-07)
(0.138595 5.06302e-06 5.25576e-06)
(0.138593 -1.04164e-05 3.34232e-06)
(0.13873 3.175e-05 9.25112e-06)
(0.138705 1.67791e-05 7.36313e-06)
(0.138711 2.93658e-05 6.22272e-06)
(0.138694 1.88463e-05 1.16219e-05)
(0.138713 5.44504e-06 -5.12851e-07)
(0.13871 4.54531e-05 9.33252e-06)
(0.138689 1.65439e-05 -3.35739e-07)
(0.138701 3.46698e-05 4.72151e-06)
(0.138676 7.63211e-06 9.01237e-06)
(0.1387 -6.4391e-06 2.18794e-06)
(0.138707 3.01414e-05 4.76697e-06)
(0.13869 2.67083e-07 2.55473e-06)
(0.138704 2.29889e-05 6.93846e-06)
(0.138688 -4.64858e-06 1.52791e-06)
(0.138722 -3.61754e-06 6.72061e-06)
(0.138712 3.50993e-05 3.10686e-06)
(0.1387 1.02096e-05 6.00387e-06)
(0.138692 4.36711e-05 4.746e-06)
(0.138689 -3.68777e-06 8.69753e-06)
(0.138701 2.70403e-05 3.76128e-06)
(0.138685 1.04335e-05 6.13077e-06)
(0.13871 2.40265e-05 2.04674e-06)
(0.138667 3.52974e-05 8.33734e-07)
(0.138672 -2.67882e-05 -2.29781e-06)
(0.138709 1.03039e-05 -1.42399e-06)
(0.138681 2.44181e-06 -6.61794e-06)
(0.138692 -2.00145e-05 -3.32963e-06)
(0.138689 1.53553e-05 -5.75844e-06)
(0.138676 -4.57922e-05 -5.37288e-06)
(0.138712 -2.6854e-05 -4.13008e-06)
(0.138717 -5.70792e-06 -6.7138e-08)
(0.138693 -1.84724e-05 -3.37902e-06)
(0.138709 -1.56253e-05 1.19122e-06)
(0.138703 -1.12863e-05 4.77196e-06)
(0.138707 -4.03651e-05 -2.26086e-06)
(0.138734 3.48408e-06 1.60185e-06)
(0.138703 -7.23323e-06 5.55304e-06)
(0.138717 -9.90428e-06 6.29021e-07)
(0.138715 4.88463e-06 8.16493e-06)
(0.13872 -1.48817e-05 3.67324e-06)
(0.138854 4.53488e-05 1.41133e-05)
(0.138819 2.23577e-05 1.11223e-05)
(0.138825 4.65138e-05 1.11134e-05)
(0.138799 1.51819e-05 1.60718e-05)
(0.138837 8.76813e-06 -1.03478e-06)
(0.138827 6.02095e-05 1.52351e-05)
(0.138801 2.42071e-05 -1.76561e-06)
(0.138811 5.20127e-05 8.8671e-06)
(0.138776 -2.48942e-06 1.14471e-05)
(0.138822 -4.1877e-06 2.88814e-06)
(0.138822 3.8326e-05 6.74193e-06)
(0.138803 2.16195e-06 3.55293e-06)
(0.138815 3.60349e-05 9.87564e-06)
(0.138793 -1.88027e-05 1.05278e-06)
(0.13885 -2.47414e-06 7.95908e-06)
(0.13883 4.12744e-05 2.38127e-06)
(0.138818 1.61784e-05 7.76969e-06)
(0.1388 6.03088e-05 5.14039e-06)
(0.138797 -1.78734e-05 1.19918e-05)
(0.13882 3.85202e-05 3.56264e-06)
(0.138799 7.46259e-06 8.68247e-06)
(0.138832 4.03605e-05 2.42957e-06)
(0.138763 4.35805e-05 1.05905e-06)
(0.138779 -4.1461e-05 -3.98537e-06)
(0.138832 1.91877e-05 -1.24649e-06)
(0.138786 -5.33953e-06 -9.3669e-06)
(0.138812 -1.55374e-05 -3.9845e-06)
(0.138792 2.36106e-05 -6.57511e-06)
(0.138777 -7.21993e-05 -6.65874e-06)
(0.138841 -2.57814e-05 -5.91163e-06)
(0.138833 -1.00967e-05 9.57649e-07)
(0.138806 -1.83341e-05 -3.99937e-06)
(0.138825 -1.041e-05 3.33206e-06)
(0.138808 -2.23666e-05 6.81209e-06)
(0.138829 -5.05331e-05 -4.9106e-06)
(0.138859 1.28316e-05 2.78205e-06)
(0.138813 -1.20363e-05 6.89477e-06)
(0.138835 -6.57231e-06 8.72253e-07)
(0.138827 9.88535e-07 1.2577e-05)
(0.138844 -1.83709e-05 3.42562e-06)
(0.138972 5.84447e-05 2.07165e-05)
(0.138927 3.34979e-05 1.69378e-05)
(0.138928 6.74667e-05 1.90191e-05)
(0.138894 6.21724e-06 2.14493e-05)
(0.138958 1.45903e-05 -1.28666e-06)
(0.138939 7.41935e-05 2.32399e-05)
(0.138907 3.92332e-05 -3.15895e-06)
(0.138908 7.13893e-05 1.58954e-05)
(0.138867 -1.81044e-05 1.4014e-05)
(0.138942 1.72333e-06 4.71771e-06)
(0.138932 4.39776e-05 9.27775e-06)
(0.138911 1.18862e-05 5.64984e-06)
(0.138914 5.08662e-05 1.40377e-05)
(0.13889 -3.86894e-05 7.01473e-07)
(0.138976 3.7388e-07 8.92392e-06)
(0.138944 4.40114e-05 1.37225e-06)
(0.138932 3.10493e-05 1.03649e-05)
(0.138895 7.75446e-05 5.2524e-06)
(0.138899 -3.69429e-05 1.61463e-05)
(0.138936 5.4481e-05 2.51531e-06)
(0.138908 1.34274e-06 1.25356e-05)
(0.13895 6.65267e-05 3.12246e-06)
(0.138844 5.00303e-05 1.06496e-06)
(0.138881 -5.67805e-05 -6.2445e-06)
(0.13895 2.768e-05 -1.22595e-06)
(0.138886 -1.73918e-05 -1.29371e-05)
(0.13893 -1.05738e-06 -4.00661e-06)
(0.13888 2.78673e-05 -6.88742e-06)
(0.138872 -0.000103845 -7.96169e-06)
(0.138968 -2.26778e-05 -8.79551e-06)
(0.138943 -2.07498e-05 2.64893e-06)
(0.138916 -9.41269e-06 -3.54164e-06)
(0.138929 -5.23378e-06 7.04888e-06)
(0.138903 -3.98676e-05 8.77394e-06)
(0.13895 -5.84516e-05 -9.05381e-06)
(0.138978 2.21626e-05 4.63059e-06)
(0.138915 -1.61538e-05 7.75461e-06)
(0.138946 -1.24944e-06 2.09472e-06)
(0.13893 -7.83122e-06 1.88588e-05)
(0.138966 -2.01476e-05 1.93682e-06)
(0.139087 6.90376e-05 2.93272e-05)
(0.139031 5.41688e-05 2.62779e-05)
(0.139019 9.01117e-05 3.13845e-05)
(0.138981 -7.2775e-06 2.80017e-05)
(0.139078 2.11026e-05 -1.06493e-06)
(0.139046 8.59885e-05 3.37097e-05)
(0.139009 6.53494e-05 -3.16974e-06)
(0.13899 8.99768e-05 2.68513e-05)
(0.13895 -3.76541e-05 1.72101e-05)
(0.13906 8.93007e-06 8.58616e-06)
(0.139036 4.60716e-05 1.26035e-05)
(0.139015 3.35902e-05 1.01194e-05)
(0.138998 6.46782e-05 2.00371e-05)
(0.138977 -6.28926e-05 1.03736e-06)
(0.139098 1.83978e-06 9.22508e-06)
(0.139055 4.31007e-05 1.06957e-08)
(0.139042 5.85771e-05 1.43167e-05)
(0.138976 9.23524e-05 5.31957e-06)
(0.138995 -5.88966e-05 2.13211e-05)
(0.139049 7.25499e-05 3.34829e-07)
(0.139014 -7.47928e-06 1.83618e-05)
(0.139063 0.000104891 4.78034e-06)
(0.138911 5.34318e-05 1.07864e-06)
(0.138978 -7.11929e-05 -9.0134e-06)
(0.13906 3.091e-05 -1.84496e-06)
(0.138983 -3.08257e-05 -1.71229e-05)
(0.139044 2.48461e-05 -2.43365e-06)
(0.138951 2.52241e-05 -6.03723e-06)
(0.138962 -0.000137446 -9.14073e-06)
(0.139091 -2.27928e-05 -1.35887e-05)
(0.139049 -3.72269e-05 5.44462e-06)
(0.139023 1.2394e-05 -7.49109e-07)
(0.139019 -3.96615e-06 1.32224e-05)
(0.138991 -6.13727e-05 1.05689e-05)
(0.139071 -6.46316e-05 -1.50959e-05)
(0.13909 3.00011e-05 6.98995e-06)
(0.139011 -1.62736e-05 8.06233e-06)
(0.139048 4.3445e-06 5.68711e-06)
(0.139026 -2.17212e-05 2.78057e-05)
(0.139085 -2.12559e-05 -1.42431e-06)
(0.139201 7.59462e-05 4.00956e-05)
(0.139131 8.78976e-05 4.16753e-05)
(0.139095 0.000112134 5.02409e-05)
(0.139058 -2.38175e-05 3.66101e-05)
(0.139196 2.35179e-05 -2.12298e-07)
(0.139152 9.53367e-05 4.75541e-05)
(0.139106 0.000104859 5.28141e-07)
(0.139057 0.000105659 4.30943e-05)
(0.139026 -5.90502e-05 2.23817e-05)
(0.139173 1.22811e-05 1.53446e-05)
(0.139139 4.56652e-05 1.72049e-05)
(0.139115 7.0232e-05 1.95023e-05)
(0.139066 7.51196e-05 2.85918e-05)
(0.139057 -9.01304e-05 3.1531e-06)
(0.139218 -4.07625e-06 8.24381e-06)
(0.139166 4.06638e-05 -1.11889e-06)
(0.139148 0.000100635 2.1416e-05)
(0.13904 0.000102345 6.08111e-06)
(0.139086 -8.16253e-05 2.76135e-05)
(0.139157 8.76786e-05 -3.12013e-06)
(0.139119 -1.65905e-05 2.71633e-05)
(0.139171 0.000156668 8.86e-06)
(0.138963 5.41885e-05 1.75373e-06)
(0.13907 -8.43936e-05 -1.20625e-05)
(0.139164 2.24256e-05 -3.97156e-06)
(0.139082 -4.09024e-05 -2.13033e-05)
(0.139152 6.13011e-05 2.36412e-06)
(0.139004 1.6355e-05 -2.67716e-06)
(0.139047 -0.00017145 -1.03513e-05)
(0.13921 -3.36692e-05 -2.17012e-05)
(0.139155 -5.5191e-05 1.01314e-05)
(0.139128 4.84411e-05 6.59404e-06)
(0.139092 -9.45639e-06 2.29849e-05)
(0.139073 -8.38465e-05 1.24695e-05)
(0.13919 -7.32245e-05 -2.36176e-05)
(0.139198 3.62782e-05 9.81804e-06)
(0.139101 -9.92798e-06 8.91601e-06)
(0.13914 8.0133e-06 1.37841e-05)
(0.139114 -4.03529e-05 4.04406e-05)
(0.139202 -2.54477e-05 -7.37754e-06)
(0.139316 7.95535e-05 5.29719e-05)
(0.139227 0.00013702 6.74072e-05)
(0.139155 0.000132462 7.83464e-05)
(0.139126 -4.27636e-05 4.8728e-05)
(0.13931 1.46937e-05 1.37263e-06)
(0.13926 0.000103293 6.61333e-05)
(0.139197 0.000157799 1.19384e-05)
(0.139106 0.000118324 6.69756e-05)
(0.139094 -8.20437e-05 3.21354e-05)
(0.139282 4.30781e-06 2.60476e-05)
(0.139244 4.58572e-05 2.48018e-05)
(0.13921 0.000122759 3.78451e-05)
(0.139116 8.15671e-05 4.1633e-05)
(0.139128 -0.000121174 9.05856e-06)
(0.139334 -2.5254e-05 5.13112e-06)
(0.139281 4.01296e-05 -7.49739e-07)
(0.139249 0.000156831 3.47702e-05)
(0.139086 0.000107794 9.05991e-06)
(0.139172 -0.000106122 3.56476e-05)
(0.139261 9.31059e-05 -8.14601e-06)
(0.139226 -2.19495e-05 4.02937e-05)
(0.139272 0.000221825 1.84054e-05)
(0.138999 5.50774e-05 4.34314e-06)
(0.139152 -9.89389e-05 -1.51463e-05)
(0.139263 -3.61594e-06 -8.92514e-06)
(0.139186 -4.33559e-05 -2.40142e-05)
(0.139252 0.000105281 1.32401e-05)
(0.139041 6.68643e-06 4.76782e-06)
(0.139126 -0.000207693 -1.12529e-05)
(0.139324 -6.28959e-05 -3.49446e-05)
(0.139266 -6.93575e-05 1.75335e-05)
(0.139226 9.69928e-05 2.18083e-05)
(0.139149 -2.11694e-05 3.81167e-05)
(0.139149 -0.000106749 1.52327e-05)
(0.139308 -9.05136e-05 -3.58953e-05)
(0.139303 4.32509e-05 1.26764e-05)
(0.139185 4.09283e-06 1.22629e-05)
(0.139221 8.13267e-06 2.92348e-05)
(0.139193 -6.42393e-05 5.84561e-05)
(0.139316 -3.91697e-05 -1.70327e-05)
(0.139437 8.00528e-05 6.80363e-05)
(0.139318 0.000201977 0.000109887)
(0.139197 0.000152592 0.000119672)
(0.139183 -6.64706e-05 6.69842e-05)
(0.139421 -1.39425e-05 2.9864e-06)
(0.139374 0.000110776 9.19665e-05)
(0.139282 0.000222129 3.63492e-05)
(0.139138 0.000131456 0.000101699)
(0.139152 -0.00010988 5.03786e-05)
(0.139387 -2.31836e-05 4.13727e-05)
(0.139354 4.93135e-05 3.80459e-05)
(0.139297 0.000189617 7.10205e-05)
(0.139146 8.61457e-05 6.1438e-05)
(0.139186 -0.000160309 2.11889e-05)
(0.139447 -6.91949e-05 -1.58618e-06)
(0.139405 4.43727e-05 3.04473e-06)
(0.139342 0.000225248 5.97334e-05)
(0.139115 0.000112447 1.62441e-05)
(0.13925 -0.00013756 4.60297e-05)
(0.139363 8.11552e-05 -1.51445e-05)
(0.139338 -1.95564e-05 5.93645e-05)
(0.139366 0.000298894 3.8702e-05)
(0.139017 6.12453e-05 1.05924e-05)
(0.139222 -0.000121428 -1.7738e-05)
(0.139358 -5.06652e-05 -1.86885e-05)
(0.139298 -3.72205e-05 -2.34195e-05)
(0.139344 0.000154849 3.46914e-05)
(0.139062 4.17357e-06 1.89409e-05)
(0.139194 -0.000254087 -1.25274e-05)
(0.139435 -0.000116003 -5.65354e-05)
(0.139386 -7.66038e-05 2.87802e-05)
(0.139316 0.000154433 4.99827e-05)
(0.139188 -3.41545e-05 6.06187e-05)
(0.139219 -0.000133869 2.01199e-05)
(0.139423 -0.000123368 -5.39681e-05)
(0.139409 5.31402e-05 1.59312e-05)
(0.139261 2.39694e-05 2.22183e-05)
(0.139288 5.47008e-06 5.52466e-05)
(0.139263 -9.7399e-05 8.48671e-05)
(0.139426 -7.05556e-05 -3.228e-05)
(0.139567 7.64275e-05 8.43744e-05)
(0.139405 0.000283074 0.000178218)
(0.139221 0.000176379 0.000178631)
(0.139226 -0.00010133 9.28813e-05)
(0.13953 -7.14768e-05 1.67942e-06)
(0.139496 0.000116067 0.000128653)
(0.139361 0.00029455 8.19596e-05)
(0.139152 0.00015029 0.000151442)
(0.139198 -0.000150719 8.04199e-05)
(0.139489 -7.77497e-05 6.01617e-05)
(0.139474 5.65654e-05 6.05403e-05)
(0.139377 0.000268353 0.000128638)
(0.139156 9.28168e-05 9.17527e-05)
(0.139231 -0.000216874 4.09227e-05)
(0.13956 -0.000141538 -1.57234e-05)
(0.139539 5.42792e-05 1.25327e-05)
(0.139426 0.000303724 0.00010535)
(0.139124 0.000121904 3.03558e-05)
(0.13932 -0.000186919 5.77282e-05)
(0.139464 4.62783e-05 -2.77166e-05)
(0.139458 -7.79457e-06 8.60321e-05)
(0.139452 0.00038804 7.79294e-05)
(0.139018 7.82799e-05 2.32291e-05)
(0.139277 -0.000161902 -2.14223e-05)
(0.139453 -0.000121664 -3.85179e-05)
(0.139419 -2.43998e-05 -1.71468e-05)
(0.139426 0.000210774 7.42177e-05)
(0.139065 1.52999e-05 4.34061e-05)
(0.139247 -0.000322965 -1.73289e-05)
(0.139546 -0.000196366 -9.30871e-05)
(0.139517 -7.83474e-05 4.37792e-05)
(0.139397 0.000217857 9.8829e-05)
(0.13921 -4.32587e-05 9.18491e-05)
(0.139279 -0.000174336 2.56404e-05)
(0.139538 -0.000177622 -8.29824e-05)
(0.139517 6.67925e-05 2.00391e-05)
(0.139329 4.67889e-05 4.55182e-05)
(0.13934 1.73582e-06 9.64396e-05)
(0.139322 -0.000147529 0.000121189)
(0.139534 -0.000128449 -5.90701e-05)
(0.13971 6.44932e-05 9.64676e-05)
(0.139496 0.000381187 0.000287147)
(0.139232 0.000208211 0.000262477)
(0.139264 -0.00015844 0.000120038)
(0.13964 -0.000165729 -1.87026e-05)
(0.139629 0.000115268 0.000176837)
(0.139442 0.00037248 0.000164026)
(0.139153 0.00018057 0.000224974)
(0.139242 -0.000216467 0.000117335)
(0.139597 -0.00016565 6.79909e-05)
(0.139601 6.52889e-05 9.37681e-05)
(0.139452 0.00035769 0.000227653)
(0.139149 0.000104978 0.000140381)
(0.139274 -0.000302899 6.34038e-05)
(0.139684 -0.000247916 -5.32096e-05)
(0.139688 6.82572e-05 2.74727e-05)
(0.13951 0.000391981 0.000187354)
(0.139115 0.000140333 5.83713e-05)
(0.139394 -0.000269607 6.19351e-05)
(0.139569 -1.56577e-05 -6.13387e-05)
(0.139589 1.16222e-05 0.000118202)
(0.139536 0.000492118 0.000149573)
(0.138999 0.000109414 4.97088e-05)
(0.139327 -0.000232627 -3.41242e-05)
(0.139553 -0.000221116 -8.78806e-05)
(0.139547 -9.60893e-06 -5.60639e-06)
(0.139509 0.0002767 0.000147803)
(0.139053 4.22454e-05 8.72477e-05)
(0.139298 -0.000428168 -3.60991e-05)
(0.139667 -0.000307563 -0.000165423)
(0.139664 -8.08319e-05 5.82613e-05)
(0.139475 0.000288495 0.000184188)
(0.139218 -4.40889e-05 0.000136767)
(0.13934 -0.000242522 2.16981e-05)
(0.13966 -0.000257595 -0.000140726)
(0.13963 8.12621e-05 2.51554e-05)
(0.139395 7.01255e-05 9.98002e-05)
(0.139384 -1.48203e-06 0.000163292)
(0.13938 -0.00022636 0.000161954)
(0.139647 -0.00022182 -0.00011883)
(0.139866 3.5865e-05 8.28052e-05)
(0.139615 0.000499702 0.000472574)
(0.139263 0.000249197 0.000398445)
(0.139337 -0.000250138 0.000115976)
(0.139755 -0.000305959 -0.000123903)
(0.13977 9.92315e-05 0.000221202)
(0.139556 0.000456751 0.000324313)
(0.139167 0.000224678 0.000360316)
(0.139327 -0.000321315 0.000134982)
(0.139725 -0.000289833 -2.05481e-06)
(0.139728 7.13798e-05 0.000123929)
(0.139545 0.000460039 0.000410493)
(0.139151 0.000121113 0.000242395)
(0.139361 -0.000433274 6.91801e-05)
(0.139834 -0.000387857 -0.000172412)
(0.139851 8.55162e-05 3.21034e-05)
(0.139624 0.000495683 0.000344802)
(0.139116 0.000160758 0.000136266)
(0.139525 -0.000403129 2.94838e-05)
(0.139685 -0.00010534 -0.000177201)
(0.139733 3.43834e-05 0.000140289)
(0.139645 0.000620358 0.000283072)
(0.138976 0.000150862 0.000123705)
(0.139414 -0.000347616 -8.21688e-05)
(0.139662 -0.000352181 -0.000233889)
(0.139676 1.77259e-06 -5.74794e-06)
(0.139618 0.00036045 0.000302588)
(0.139056 7.99042e-05 0.000197615)
(0.139394 -0.00058265 -9.57383e-05)
(0.139805 -0.000452294 -0.000343044)
(0.139827 -9.03612e-05 5.20781e-05)
(0.139574 0.000373383 0.000353668)
(0.139235 -3.89769e-05 0.000227645)
(0.139439 -0.000354915 -2.64279e-05)
(0.139799 -0.000367261 -0.000294296)
(0.13975 8.96805e-05 2.65353e-05)
(0.139495 9.41729e-05 0.000245448)
(0.139451 -7.13879e-06 0.000304114)
(0.139485 -0.00034546 0.00017598)
(0.139772 -0.000357352 -0.000291265)
(0.139961 -2.64623e-05 3.7417e-06)
(0.139772 0.000643014 0.000851653)
(0.139363 0.000301986 0.000691222)
(0.139457 -0.00039344 -1.2083e-05)
(0.139798 -0.000502085 -0.000502101)
(0.139851 4.83486e-05 0.000216751)
(0.139727 0.000554115 0.000693266)
(0.139234 0.000284146 0.000693467)
(0.139464 -0.00047678 5.88836e-05)
(0.139809 -0.000448996 -0.000343824)
(0.139786 6.16045e-05 0.000109172)
(0.139678 0.000581767 0.000799559)
(0.139218 0.000136303 0.000520652)
(0.139522 -0.000617366 1.09529e-05)
(0.139954 -0.00055589 -0.000540177)
(0.139985 9.51233e-05 -1.77928e-05)
(0.139814 0.000618365 0.000696191)
(0.139201 0.000170773 0.000395631)
(0.139733 -0.000601812 -0.000111779)
(0.139763 -0.000222816 -0.000552734)
(0.139836 4.45067e-05 0.000113935)
(0.139813 0.000782215 0.00056797)
(0.138993 0.000195612 0.000362649)
(0.139575 -0.000520945 -0.000223537)
(0.139729 -0.00051637 -0.000654817)
(0.139747 -1.50537e-06 -6.19895e-05)
(0.139793 0.000470024 0.000679018)
(0.139159 0.00012203 0.000530995)
(0.139562 -0.00079466 -0.000256705)
(0.13989 -0.000628662 -0.000811662)
(0.139947 -0.000119854 -1.63241e-05)
(0.139722 0.000487339 0.000754113)
(0.139304 -3.28913e-05 0.000493178)
(0.139575 -0.000526348 -0.000206733)
(0.139887 -0.000511709 -0.00072702)
(0.139863 7.24206e-05 1.72728e-05)
(0.139681 0.000121447 0.00066564)
(0.139588 -1.38833e-05 0.000683284)
(0.139639 -0.000515312 6.91473e-05)
(0.139826 -0.000538085 -0.000801451)
(0.139562 -0.000169225 -4.12599e-05)
(0.139661 0.000813012 0.00172322)
(0.139374 0.00037584 0.00131433)
(0.139265 -0.000593312 -0.000493019)
(0.139325 -0.000787966 -0.00143156)
(0.139457 -9.14199e-05 0.000204354)
(0.139687 0.000679581 0.00158302)
(0.139214 0.000378381 0.00144781)
(0.139246 -0.000681131 -0.000321104)
(0.139451 -0.000649104 -0.00127602)
(0.139471 -2.70939e-06 8.69514e-05)
(0.139653 0.000731023 0.00166722)
(0.13928 0.000161861 0.00116414)
(0.139412 -0.000850524 -0.000266519)
(0.139643 -0.000758842 -0.00144196)
(0.139787 4.79507e-05 -9.24405e-05)
(0.139896 0.000755338 0.00152566)
(0.139348 0.000170192 0.00104126)
(0.139569 -0.000853219 -0.000562762)
(0.139488 -0.000380285 -0.00148523)
(0.139528 -5.1476e-06 7.25273e-05)
(0.139862 0.000977519 0.0012288)
(0.138994 0.000245821 0.000960146)
(0.139521 -0.000749128 -0.000604649)
(0.139447 -0.000729544 -0.00160472)
(0.139453 -6.83374e-05 -0.000130423)
(0.139856 0.00060639 0.00159321)
(0.139344 0.000181381 0.00131699)
(0.139439 -0.00104417 -0.000711039)
(0.139532 -0.000849517 -0.00184699)
(0.139625 -0.000212327 -7.11262e-05)
(0.139712 0.000641839 0.00171144)
(0.13929 -1.25608e-05 0.001137)
(0.139334 -0.000758448 -0.000731051)
(0.139509 -0.000725925 -0.00169582)
(0.139728 -2.62384e-05 0.000116077)
(0.13976 0.0001649 0.00171844)
(0.139622 -1.53705e-06 0.00151537)
(0.139403 -0.000729793 -0.000440254)
(0.139344 -0.000794059 -0.00199214)
(0.1375 -0.00044042 0.000647309)
(0.138219 0.000981077 0.00342451)
(0.138518 0.000480713 0.00203311)
(0.137721 -0.000864372 -0.00174593)
(0.137356 -0.00123391 -0.00275411)
(0.137461 -0.000357283 0.000733423)
(0.138384 0.000830138 0.00334499)
(0.138366 0.000529499 0.00242909)
(0.137622 -0.000922956 -0.00148672)
(0.137867 -0.000949958 -0.00276763)
(0.137941 -0.000165754 0.000567896)
(0.138627 0.000889064 0.00327722)
(0.138746 0.000218985 0.00196602)
(0.138006 -0.0011018 -0.00118705)
(0.138051 -0.0010665 -0.00285522)
(0.138283 -0.000138364 0.000341211)
(0.13891 0.000870054 0.00315002)
(0.138882 0.000194825 0.00184361)
(0.137811 -0.00112549 -0.0017928)
(0.138107 -0.000648329 -0.00291676)
(0.137726 -0.000164578 0.000487524)
(0.138958 0.00116637 0.00257589)
(0.13842 0.00032112 0.00179311)
(0.138322 -0.00100433 -0.00157331)
(0.13805 -0.00104298 -0.00295549)
(0.137871 -0.000253085 0.000323308)
(0.138954 0.000746846 0.00338696)
(0.138968 0.000283975 0.00231073)
(0.138001 -0.00129914 -0.00193238)
(0.137906 -0.00117034 -0.00329543)
(0.137777 -0.000411621 0.000518797)
(0.138643 0.000817048 0.00354884)
(0.138455 4.89804e-05 0.00192274)
(0.137671 -0.00105001 -0.0019951)
(0.13783 -0.00109587 -0.00298916)
(0.138383 -0.000267635 0.000922188)
(0.138701 0.000233235 0.0036368)
(0.138714 6.37636e-05 0.00242778)
(0.137679 -0.00100001 -0.00192476)
(0.137385 -0.00121186 -0.00367666)
(0.132548 -0.000707204 0.00299702)
(0.134384 0.00107936 0.00536017)
(0.135762 0.00046723 0.00169077)
(0.133948 -0.0012863 -0.00384957)
(0.133073 -0.00177876 -0.00327247)
(0.132735 -0.000613328 0.00262972)
(0.13469 0.000959071 0.00547453)
(0.135708 0.000599863 0.00238436)
(0.133964 -0.00127285 -0.00372344)
(0.134508 -0.00134119 -0.00365321)
(0.134094 -0.000336809 0.00240132)
(0.135536 0.000995952 0.00509278)
(0.136546 0.000211042 0.00181463)
(0.134442 -0.0014054 -0.00302362)
(0.134461 -0.00146604 -0.00369459)
(0.134135 -0.000377487 0.00219528)
(0.135551 0.000914869 0.00504437)
(0.136466 0.000190266 0.00156524)
(0.13368 -0.0014505 -0.00402471)
(0.134791 -0.00104363 -0.00363653)
(0.133239 -0.000349475 0.002194)
(0.136062 0.00126614 0.00433274)
(0.136212 0.000341664 0.00189712)
(0.135092 -0.00130714 -0.00333633)
(0.134652 -0.00142221 -0.00360441)
(0.133824 -0.000457349 0.00215182)
(0.13593 0.000843007 0.00555962)
(0.136761 0.000341596 0.00219251)
(0.134425 -0.00160793 -0.00415037)
(0.134232 -0.00156263 -0.00386718)
(0.133282 -0.000616233 0.00266129)
(0.135406 0.000933809 0.00568478)
(0.135707 4.63656e-05 0.00165544)
(0.133923 -0.00144593 -0.00405858)
(0.134201 -0.00158194 -0.00332779)
(0.134387 -0.000546309 0.00313352)
(0.135153 0.000287361 0.00560005)
(0.135766 5.22193e-05 0.00200844)
(0.133712 -0.0014276 -0.00448832)
(0.133166 -0.00176273 -0.00432084)
(0.124792 -0.000802726 0.0061666)
(0.128591 0.000926402 0.00561593)
(0.130891 8.23865e-05 -0.000430827)
(0.127916 -0.00178487 -0.0056733)
(0.126344 -0.00209762 -0.00184206)
(0.125393 -0.000678035 0.00527811)
(0.128949 0.000887717 0.0061053)
(0.131122 0.000300718 0.000281384)
(0.128524 -0.00171044 -0.00596203)
(0.129056 -0.00153871 -0.00249395)
(0.127561 -0.000347365 0.00507903)
(0.130421 0.000897437 0.00539403)
(0.132106 -7.47367e-05 -6.45445e-05)
(0.128664 -0.00175093 -0.00484796)
(0.128489 -0.0016909 -0.00263217)
(0.127002 -0.000467271 0.00497368)
(0.12992 0.000781293 0.0053511)
(0.131565 -8.63709e-05 -0.000637157)
(0.127504 -0.00183236 -0.00607485)
(0.129006 -0.00130957 -0.00222543)
(0.126108 -0.000405472 0.00480906)
(0.131237 0.00114963 0.00499119)
(0.13177 0.000110175 0.000396674)
(0.129661 -0.0016407 -0.00503753)
(0.128735 -0.00162324 -0.00237373)
(0.127084 -0.000515767 0.00485818)
(0.130711 0.000762731 0.00623828)
(0.13217 9.72168e-05 -1.31211e-07)
(0.128677 -0.00196625 -0.0061936)
(0.128107 -0.00177513 -0.00224036)
(0.126146 -0.000678975 0.00569458)
(0.130074 0.000821245 0.00623117)
(0.13077 -0.000254062 -0.000442448)
(0.128286 -0.00187929 -0.00575039)
(0.128286 -0.00186486 -0.00162824)
(0.127361 -0.000693491 0.0058342)
(0.129274 0.000149782 0.00571901)
(0.130573 -0.000298247 -0.000416991)
(0.127499 -0.00196984 -0.00668131)
(0.126389 -0.00210798 -0.00251239)
(0.115588 -0.000875319 0.00774799)
(0.121836 0.00037234 0.00329165)
(0.123889 -0.000532608 -0.00313984)
(0.119709 -0.00202254 -0.00581923)
(0.117487 -0.00201797 0.000905504)
(0.116615 -0.00069077 0.00657144)
(0.12222 0.000435583 0.00409315)
(0.124659 -0.000296017 -0.0028528)
(0.121205 -0.00191391 -0.00646274)
(0.121262 -0.00137066 0.000328448)
(0.11915 -0.000334359 0.00650758)
(0.123989 0.000454659 0.00328793)
(0.12526 -0.000559013 -0.00263436)
(0.120702 -0.00189831 -0.00523089)
(0.120108 -0.00159304 -5.97958e-05)
(0.117958 -0.000519783 0.00655115)
(0.123007 0.000327503 0.00308028)
(0.124276 -0.000596508 -0.00352522)
(0.119468 -0.00201192 -0.00624229)
(0.120746 -0.00127205 0.000852695)
(0.117522 -0.000442559 0.00634405)
(0.125078 0.000716165 0.00345617)
(0.124955 -0.000327967 -0.00194901)
(0.121985 -0.00179142 -0.00534187)
(0.120343 -0.0015261 0.000269518)
(0.118576 -0.000546495 0.00640163)
(0.124023 0.000360547 0.00432366)
(0.125212 -0.000407758 -0.00310417)
(0.120742 -0.00210662 -0.00639446)
(0.119592 -0.00167312 0.000962422)
(0.117428 -0.00072415 0.00736068)
(0.123431 0.000356697 0.00418561)