/*--------------------------------*- C++ -*----------------------------------*\
  =========                 |
  \\      /  F ield         | OpenFOAM: The Open Source CFD Toolbox
   \\    /   O peration     | Website:  https://openfoam.org
    \\  /    A nd           | Version:  10
     \\/     M anipulation  |
\*---------------------------------------------------------------------------*/
FoamFile
{
    format      ascii;
    class       volVectorField;
    location    "3";
    object      UMean;
}
// * * * * * * * * * * * * * * * * * * * * * * * * * * * * * * * * * * * * * //

dimensions      [0 1 -1 0 0 0 0];

internalField   nonuniform List<vector> 
25600
(
(1.05878 0.00961179 0.00110115)
(1.06743 0.0110258 -0.000425218)
(1.08844 0.0184363 0.00215553)
(1.10787 0.0264979 0.00703626)
(1.1137 0.0273792 0.0115632)
(1.10739 0.0161618 0.011065)
(1.09391 0.000121453 0.00418163)
(1.08546 -0.00967358 -0.00497861)
(1.08543 -0.00982832 -0.0143096)
(1.08667 -0.00214639 -0.0201037)
(1.0855 0.00410087 -0.0227086)
(1.07941 0.00703119 -0.0242332)
(1.0783 0.00572522 -0.0261511)
(1.09006 -0.000331067 -0.0297547)
(1.1154 -0.00600065 -0.0297276)
(1.14858 -0.0105075 -0.0260869)
(1.16786 -0.0120706 -0.020838)
(1.16313 -0.0117562 -0.0158171)
(1.13881 -0.0100123 -0.0141688)
(1.10802 -0.00791438 -0.0123043)
(1.08789 -0.00873183 -0.0111356)
(1.08623 -0.0124868 -0.00840142)
(1.10031 -0.0161616 -0.00349604)
(1.11904 -0.0182744 -0.000801848)
(1.13051 -0.0185829 -0.000819206)
(1.12316 -0.0153989 -0.00668929)
(1.10356 -0.0133727 -0.0144)
(1.08672 -0.0103482 -0.016865)
(1.07576 -0.00477401 -0.0106539)
(1.07772 -0.00102643 0.00747947)
(1.08861 0.00402109 0.0276235)
(1.09964 0.00722236 0.0391778)
(1.11528 0.0110847 0.0396953)
(1.13175 0.0168733 0.0270308)
(1.14509 0.0196184 0.0122299)
(1.15116 0.0227372 0.00183436)
(1.13964 0.0229819 -0.00457464)
(1.11319 0.0201183 -0.00365162)
(1.08384 0.0164236 -0.00199052)
(1.06016 0.0121558 -1.83728e-05)
(1.13901 0.00618177 -0.0172721)
(1.12223 -0.00326134 -0.0149757)
(1.11175 0.00137718 -0.00707293)
(1.10857 0.0099504 -0.00407197)
(1.1097 0.0161159 -0.00760556)
(1.11307 0.0128088 -0.0133857)
(1.10958 0.00478302 -0.0207317)
(1.10367 0.00137083 -0.0227807)
(1.09658 0.00361074 -0.0179254)
(1.09038 0.0166092 -0.00893359)
(1.09071 0.033132 0.00551574)
(1.09061 0.0455811 0.0237326)
(1.09453 0.0491782 0.0399969)
(1.10391 0.0340042 0.0472788)
(1.11783 0.0161292 0.0368146)
(1.13696 0.00740515 0.0132945)
(1.14437 0.00859723 -0.00805928)
(1.13977 0.0180233 -0.0187383)
(1.12993 0.0233493 -0.0166257)
(1.11812 0.0208328 -0.00679206)
(1.11528 0.0117319 0.00117664)
(1.11886 -0.00210083 0.00657056)
(1.11991 -0.0126409 0.00773458)
(1.11072 -0.0175473 0.00523464)
(1.0912 -0.0203459 0.00338445)
(1.06988 -0.0189698 -0.0043629)
(1.05564 -0.0158308 -0.014994)
(1.05647 -0.0116242 -0.026168)
(1.06945 -0.00509753 -0.034406)
(1.09193 -0.000752942 -0.0297433)
(1.11468 0.00278189 -0.017654)
(1.12343 0.00637821 -0.00306257)
(1.11906 0.00914679 0.0118789)
(1.105 0.00884089 0.0193701)
(1.09065 0.00531072 0.0218811)
(1.08692 0.0085045 0.0204834)
(1.09296 0.0206756 0.0147424)
(1.10982 0.0334908 0.00820643)
(1.1312 0.0376012 -0.00358346)
(1.14221 0.0260853 -0.0140427)
(1.16434 0.0156578 -0.0265691)
(1.12444 0.0101985 -0.0159606)
(1.09736 0.00615679 -0.0142724)
(1.0907 0.00325142 -0.0263849)
(1.10264 0.00655739 -0.0392986)
(1.118 0.0104839 -0.0408359)
(1.11873 0.0149131 -0.0324088)
(1.10059 0.0226026 -0.0196069)
(1.07252 0.0244621 -0.0063574)
(1.05038 0.0188386 0.00904138)
(1.05036 0.00783104 0.0283445)
(1.06777 -0.00362274 0.049989)
(1.0918 -0.0111066 0.0679907)
(1.10818 -0.0174692 0.0683389)
(1.10745 -0.0138229 0.0480906)
(1.09757 -0.00436327 0.0220454)
(1.08441 0.00287585 0.00655083)
(1.08158 0.00882231 0.00762203)
(1.09126 0.00860608 0.0167814)
(1.10234 0.0064436 0.0244347)
(1.10924 0.00269834 0.0254802)
(1.10788 -0.00406178 0.0204218)
(1.10118 -0.00721031 0.0106713)
(1.08588 -0.00721141 0.00157074)
(1.06606 -0.00664927 0.000355449)
(1.04772 -0.00595175 0.00378439)
(1.03244 -0.00654152 0.00885612)
(1.03025 -0.00682327 0.00514001)
(1.03556 -0.0043276 -0.0105518)
(1.04765 0.00248708 -0.0251773)
(1.06846 0.0124826 -0.0294788)
(1.08924 0.0245345 -0.0160258)
(1.10714 0.0357161 0.00815225)
(1.1111 0.0422305 0.0246532)
(1.10437 0.0445136 0.0291378)
(1.10764 0.0442766 0.0223098)
(1.12793 0.0421475 0.00634114)
(1.16221 0.0378626 -0.0128331)
(1.19198 0.032111 -0.0304159)
(1.19823 0.0247067 -0.0352453)
(1.07343 0.0154464 0.00183396)
(1.05039 0.00601251 -0.0058402)
(1.04057 0.00202834 -0.0335108)
(1.04847 0.00683234 -0.0654155)
(1.06929 0.0194633 -0.0804476)
(1.09128 0.0323057 -0.0714797)
(1.10058 0.0443042 -0.0458738)
(1.09414 0.0507652 -0.0114911)
(1.07664 0.0395655 0.0199323)
(1.05109 0.00931551 0.0393835)
(1.03089 -0.0247931 0.0426064)
(1.02328 -0.040212 0.0315645)
(1.02999 -0.0276775 0.0134649)
(1.04443 0.000434838 -0.0107586)
(1.05338 0.0261131 -0.0301983)
(1.05533 0.0335743 -0.0306884)
(1.0508 0.0248236 -0.0113378)
(1.04806 0.0106551 0.0147921)
(1.05084 -0.00401792 0.029083)
(1.05357 -0.0126455 0.0267916)
(1.05279 -0.0185389 0.013095)
(1.04754 -0.0255998 -0.00241524)
(1.04525 -0.0266766 -0.0142215)
(1.04488 -0.0223683 -0.018758)
(1.04532 -0.0171107 -0.0144261)
(1.04322 -0.0135466 -0.0059569)
(1.0364 -0.0157929 0.00605055)
(1.03643 -0.0217738 0.0162934)
(1.04239 -0.0270084 0.024142)
(1.05795 -0.0244818 0.033842)
(1.07647 -0.0100618 0.0457481)
(1.0834 0.0163726 0.0618622)
(1.08537 0.0421422 0.0731576)
(1.08574 0.0486473 0.0650244)
(1.09442 0.0379852 0.0402106)
(1.11552 0.0208293 0.00982165)
(1.13367 0.0110377 -0.0161196)
(1.1427 0.015255 -0.0289345)
(1.13352 0.0242771 -0.0257249)
(1.10721 0.0252008 -0.010271)
(1.04654 0.0278662 0.00978853)
(1.03359 0.0164686 -0.0196717)
(1.03107 -0.00403026 -0.0615284)
(1.04113 -0.0205933 -0.0861688)
(1.05705 -0.0214753 -0.0823927)
(1.06778 -0.00516427 -0.0578594)
(1.06821 0.024121 -0.0199016)
(1.065 0.0501182 0.0230852)
(1.05923 0.0513903 0.0536808)
(1.0495 0.0184046 0.0592169)
(1.03893 -0.0244184 0.0325378)
(1.02545 -0.0423392 -0.0127666)
(1.01214 -0.0283751 -0.0468284)
(1.01054 -0.00207533 -0.0599298)
(1.02566 0.0170916 -0.0491303)
(1.04845 0.0222424 -0.0211198)
(1.05962 0.0140809 0.00666004)
(1.05228 -0.00250714 0.0209644)
(1.03268 -0.0200083 0.0149064)
(1.01289 -0.0302825 -0.00485321)
(1.00385 -0.0366816 -0.0218666)
(1.00383 -0.0437936 -0.0280097)
(1.00922 -0.0442129 -0.0247523)
(1.01075 -0.0354345 -0.0178091)
(1.01188 -0.0200118 -0.0148859)
(1.01941 -0.00814341 -0.0107209)
(1.02318 -0.0104909 0.00202746)
(1.01616 -0.0240615 0.0180969)
(1.00031 -0.0386062 0.0369766)
(0.995173 -0.0383829 0.0552418)
(1.00047 -0.0239311 0.0681772)
(1.00811 -0.00508231 0.0740804)
(1.02077 0.00776529 0.0652109)
(1.02949 0.0094633 0.0428867)
(1.03827 0.00886253 0.0179025)
(1.04865 0.00751674 -0.00512402)
(1.0576 0.00989052 -0.0231689)
(1.06957 0.0191697 -0.026662)
(1.07181 0.028485 -0.0124601)
(1.06241 0.031527 0.00758707)
(1.06964 0.033923 0.0254051)
(1.07078 0.0246974 -0.0235616)
(1.07701 0.00776757 -0.0680734)
(1.07618 -0.00692245 -0.0767451)
(1.07156 -0.0103198 -0.0540806)
(1.06409 0.00234094 -0.0183412)
(1.05965 0.0237404 0.0228087)
(1.06157 0.0416929 0.0604046)
(1.06311 0.0436816 0.0765891)
(1.05507 0.0221324 0.0636972)
(1.03847 -0.00540187 0.0275908)
(1.03093 -0.0176729 -0.00200104)
(1.02701 -0.0137229 -0.01189)
(1.01855 -0.0114041 -0.0179793)
(1.01457 -0.0176788 -0.02135)
(1.02673 -0.0163981 -0.0150399)
(1.04938 -0.00533918 0.00103722)
(1.0522 -0.00333351 0.0195274)
(1.02827 -0.0164037 0.0230806)
(0.997722 -0.0328296 0.00961598)
(0.980526 -0.0468579 -0.00423784)
(0.980333 -0.0579752 -0.00743325)
(0.994208 -0.057892 -0.00013809)
(1.01287 -0.0448978 0.00754243)
(1.03547 -0.02467 0.0102946)
(1.05643 -0.00691879 0.0200387)
(1.04562 -0.000273381 0.0359714)
(0.999026 -0.011578 0.0448485)
(0.949065 -0.0415254 0.0417238)
(0.929164 -0.0660966 0.0306071)
(0.938352 -0.0666686 0.0272869)
(0.963928 -0.0440389 0.0347803)
(0.99226 -0.0164535 0.0393083)
(1.00278 -0.003074 0.0359199)
(1.00192 -0.00195779 0.0204546)
(1.00163 -0.00511409 -0.00732065)
(1.01207 -0.00455618 -0.0315575)
(1.03901 0.00318659 -0.0296388)
(1.0645 0.0164068 0.00253795)
(1.07098 0.029757 0.0347706)
(1.07622 0.0512214 0.018796)
(1.11801 0.0295885 -0.0195426)
(1.14745 0.0078104 -0.0443158)
(1.13008 -0.00728844 -0.0447888)
(1.08647 -0.0159365 -0.0164485)
(1.05025 -0.0141358 0.0324473)
(1.04521 0.00359211 0.0791788)
(1.06387 0.0350796 0.0958994)
(1.07914 0.0552131 0.0845338)
(1.06524 0.0378766 0.0474848)
(1.03122 0.00196845 -0.0066283)
(1.02724 -0.0159293 -0.0348588)
(1.04726 -0.0117148 -0.0366022)
(1.06036 -0.00889716 -0.0387875)
(1.05065 -0.0189342 -0.0377233)
(1.02944 -0.0264756 -0.018996)
(1.01587 -0.022346 0.0155817)
(0.994207 -0.0241372 0.0363841)
(0.974086 -0.0347036 0.0218481)
(0.961008 -0.0410974 -0.00906883)
(0.950122 -0.0497917 -0.0207018)
(0.948272 -0.0648387 -0.00657309)
(0.962399 -0.0728867 0.0118499)
(0.988334 -0.0645925 0.0195439)
(1.01795 -0.0352208 0.0309918)
(1.0226 -0.000874321 0.0545156)
(0.986906 0.0151526 0.0638817)
(0.94561 0.000971886 0.0435455)
(0.918115 -0.0387663 0.00954428)
(0.907806 -0.0753945 -0.0114316)
(0.913323 -0.0854796 -0.00372331)
(0.929095 -0.0645244 0.0161645)
(0.942643 -0.0311834 0.0261429)
(0.951973 -0.0109563 0.0266761)
(0.974225 -0.00463186 0.0245)
(0.998862 -0.00604115 0.0217412)
(1.01352 -0.0044848 0.0186802)
(1.01808 0.00920862 0.0196162)
(1.02346 0.0335747 0.031194)
(1.0426 0.0542516 0.0399989)
(1.126 0.00672751 0.00327257)
(1.15814 -0.00150727 -0.0252719)
(1.14244 -0.000705809 -0.0289608)
(1.08611 0.00516813 -0.0194606)
(1.0397 0.0146036 0.00550934)
(1.01312 0.0280724 0.0464884)
(1.0202 0.0491454 0.08069)
(1.05655 0.0690535 0.0834169)
(1.08237 0.0583708 0.0711365)
(1.06551 0.0198044 0.0360319)
(1.02039 -0.00496471 -0.0178983)
(1.01774 -0.000113172 -0.046599)
(1.06125 0.0176907 -0.063107)
(1.09599 0.0257369 -0.0769607)
(1.07726 0.0123253 -0.0667783)
(1.02831 -0.0086403 -0.0234597)
(1.00492 -0.0178551 0.0252433)
(1.00185 -0.0235915 0.0298601)
(1.00436 -0.0283559 0.000161809)
(0.993876 -0.0285015 -0.0228735)
(0.971457 -0.0392716 -0.0246506)
(0.960766 -0.057665 -0.0117878)
(0.960342 -0.0635077 0.000325814)
(0.959471 -0.0523153 0.0131238)
(0.965822 -0.0235819 0.0397457)
(0.97107 0.0067861 0.0598543)
(0.9702 0.02431 0.0448899)
(0.959298 0.0160812 0.0134537)
(0.933384 -0.0246529 -0.00981908)
(0.910451 -0.0613357 -0.0154103)
(0.897555 -0.0693304 0.00120809)
(0.89502 -0.0557571 0.0179868)
(0.895263 -0.0371229 0.0149466)
(0.906674 -0.0264444 0.00775087)
(0.943828 -0.015234 0.0159872)
(0.970308 0.00252379 0.0285252)
(0.975132 0.0257342 0.0358467)
(0.978704 0.0421881 0.0432029)
(1.0104 0.0387508 0.0526437)
(1.06659 0.0231341 0.042051)
(1.01896 0.0376945 -0.0447962)
(1.02908 0.0264816 -0.0403029)
(1.01374 -0.00977624 -0.000981258)
(0.987148 -0.0308528 0.0301562)
(0.986947 -0.0156731 0.0452241)
(0.996488 0.0090559 0.0705739)
(1.02834 0.0352896 0.089115)
(1.06537 0.0482897 0.0774488)
(1.06883 0.0282187 0.0507503)
(1.02347 -0.0146847 0.0190996)
(0.98447 -0.0426979 -0.0142099)
(1.02787 -0.0273413 -0.0411616)
(1.07998 0.011295 -0.0774927)
(1.07769 0.0436406 -0.101718)
(1.03796 0.038277 -0.0685235)
(0.983344 -0.00134837 -0.00137877)
(0.95745 -0.0261736 0.0277321)
(0.959306 -0.0315126 0.00734249)
(0.975124 -0.0331789 -0.0187279)
(0.987195 -0.0265578 -0.0305191)
(0.98593 -0.0302579 -0.0160585)
(0.988642 -0.0384629 0.0155207)
(0.980917 -0.0344972 0.0310766)
(0.959522 -0.0343082 0.0309025)
(0.950287 -0.0310248 0.034628)
(0.951362 -0.00712621 0.0356414)
(0.947085 0.0268932 0.0342755)
(0.926414 0.0297487 0.0377536)
(0.904058 -0.0150374 0.0207478)
(0.898522 -0.064524 -0.0102342)
(0.90402 -0.0893348 -0.023501)
(0.912907 -0.0777688 -0.0278516)
(0.906147 -0.0395577 -0.0378941)
(0.904189 -0.00661588 -0.031412)
(0.91784 0.00574695 0.00437564)
(0.916384 0.00135436 0.0305472)
(0.941246 -0.0023944 0.0357152)
(0.999009 -0.00348959 0.0387116)
(1.04121 0.00578873 0.0258513)
(1.03115 0.0263597 -0.0106251)
(0.968491 -0.00465622 -0.0350616)
(0.987943 -0.033236 -0.00759354)
(0.946009 -0.0435924 0.0108435)
(0.914583 -0.0143065 0.00514484)
(0.940592 0.0205804 0.0149958)
(0.98957 0.031503 0.0462889)
(1.04408 0.0452014 0.0519226)
(1.0757 0.0591567 0.0145807)
(1.05808 0.0436935 -0.0223348)
(1.0027 -0.00317751 -0.0394371)
(0.959462 -0.0330351 -0.0500957)
(0.96773 -0.0115164 -0.0478414)
(0.966829 0.0242812 -0.0577501)
(0.954609 0.0381444 -0.0720093)
(0.959217 0.0138497 -0.0392206)
(0.957485 -0.0162106 0.0103016)
(0.959425 -0.0160466 0.0270652)
(0.972765 -0.0220867 0.0209761)
(0.988391 -0.0362389 0.000254334)
(0.993651 -0.0350269 -0.00933358)
(1.00071 -0.0406379 0.0193414)
(1.00477 -0.0361401 0.0449391)
(0.990785 -0.012342 0.0418507)
(0.980296 -0.0168207 0.0350388)
(0.970132 -0.0319233 0.0253535)
(0.962526 -0.00857658 0.0195871)
(0.960877 0.0340126 0.0386022)
(0.960377 0.0325068 0.0629611)
(0.961589 -0.0267316 0.0529866)
(0.929205 -0.0826069 0.015272)
(0.891921 -0.107187 -0.0139225)
(0.89497 -0.105144 -0.026404)
(0.916616 -0.0759514 -0.0342082)
(0.949567 -0.0432429 -0.0265752)
(0.973066 -0.0174629 -0.00389444)
(0.969768 0.0019207 -0.00126664)
(0.961969 0.00997258 -0.0121239)
(0.91851 0.0143903 -0.0248885)
(0.874351 0.0245427 -0.0464509)
(0.908181 0.0207669 -0.0511319)
(0.960305 -0.0428242 0.00427195)
(0.921175 -0.020865 -0.00332552)
(0.889549 0.00565319 -0.0286586)
(0.903912 0.0290171 -0.0474657)
(0.972262 0.033388 -0.0264837)
(1.03197 0.0268229 -7.03183e-05)
(1.06296 0.0451366 -0.0174188)
(1.04549 0.0618713 -0.0513258)
(0.987702 0.0319592 -0.0499155)
(0.93695 -0.0196905 -0.0401331)
(0.925302 -0.0375497 -0.0430782)
(0.943155 -0.0118999 -0.0398161)
(0.941883 0.0203801 -0.0520127)
(0.946672 0.0227053 -0.0547805)
(0.961286 -0.00818017 -0.0160059)
(0.956997 -0.0263543 0.018613)
(0.955789 -0.0107392 0.0283936)
(0.971163 -0.00465211 0.0214419)
(0.999919 -0.0215472 -0.0059243)
(1.03505 -0.0416539 -0.00461625)
(1.05549 -0.0472821 0.0514611)
(1.0251 -0.0220055 0.0741712)
(0.985347 -0.00221854 0.0564845)
(0.990562 -0.0213803 0.0493124)
(0.985609 -0.0273859 0.0252532)
(0.963683 0.00853796 0.00482364)
(0.957267 0.0452328 0.0279794)
(0.983811 0.0341106 0.0618683)
(1.02483 -0.00874437 0.0586902)
(1.00742 -0.0448234 0.0219957)
(0.972229 -0.0825166 -0.0017598)
(0.974951 -0.115193 -0.0113891)
(0.969813 -0.0987837 -0.0308474)
(0.952803 -0.0382392 -0.0388481)
(0.944916 0.0166934 -0.0212249)
(0.932284 0.0197183 -0.0125842)
(0.912243 0.000467922 -0.0267103)
(0.886851 0.00749842 -0.0512246)
(0.89951 0.00423206 -0.053725)
(0.954811 -0.0296685 -0.0187339)
(0.91642 -0.0129031 -0.0168166)
(0.889632 0.00019822 -0.0106434)
(0.912104 0.00225316 -0.0248381)
(0.974829 0.00714138 -0.0388129)
(1.02323 0.00619532 -0.0175335)
(1.01619 0.00716932 -0.00720698)
(1.0047 0.0326343 -0.0403526)
(0.985306 0.0526206 -0.067184)
(0.943247 0.0243486 -0.0465929)
(0.906496 -0.0251489 -0.0282622)
(0.907164 -0.0399487 -0.045666)
(0.923721 -0.0129829 -0.0697897)
(0.937286 0.0171112 -0.0748648)
(0.97072 0.0133902 -0.0300894)
(0.968033 -0.0180023 0.0287985)
(0.928941 -0.0158416 0.0256493)
(0.923109 0.00869619 -0.00393965)
(0.954761 -0.0115719 0.00272233)
(0.999921 -0.0523671 0.0315743)
(1.02342 -0.0651497 0.0696689)
(1.01764 -0.0364619 0.0903413)
(0.99861 0.0106879 0.053401)
(0.985544 0.0200935 0.0229555)
(0.964594 -0.00479208 0.0239909)
(0.927487 -0.0048555 0.00377493)
(0.911915 0.0264881 -0.0132561)
(0.925626 0.0478868 0.00429839)
(0.971518 0.0249293 0.034862)
(1.01237 -0.0173288 0.0368896)
(1.00635 -0.0492579 0.0101587)
(0.971916 -0.0801433 -0.0083636)
(0.947612 -0.0891315 -0.0337824)
(0.93216 -0.0569002 -0.0672422)
(0.941167 -0.0165337 -0.055561)
(0.964353 0.0109284 -0.0153777)
(0.940672 0.00897695 -0.0145292)
(0.887357 -0.00570193 -0.0518496)
(0.873083 -0.00772308 -0.0826905)
(0.919859 -0.0199012 -0.0718088)
(0.95281 -0.0291442 -0.036828)
(0.88878 -0.00323789 -0.0253456)
(0.910072 0.00428668 0.018356)
(0.943953 -0.000163282 0.00252344)
(1.00632 -0.00538636 -0.0359843)
(1.03879 0.00207505 -0.0160447)
(0.994841 0.0149634 0.00246894)
(0.965114 0.0327926 -0.0354123)
(0.97651 0.0413365 -0.0594436)
(0.975336 0.0146851 -0.0282875)
(0.948895 -0.0205859 -0.00900774)
(0.935205 -0.0312847 -0.0482986)
(0.934898 -0.0176105 -0.0922079)
(0.96612 0.00469872 -0.0705708)
(1.00513 0.00681921 0.00627434)
(0.96332 -0.00718535 0.0427095)
(0.925711 0.00740271 0.00944884)
(0.946728 0.0124756 -0.00547265)
(0.962879 -0.0365815 0.0319758)
(0.969191 -0.0756198 0.0687151)
(0.961469 -0.0668862 0.0918665)
(0.959255 -0.0199861 0.0854438)
(0.988839 0.0293948 0.0348922)
(0.996573 0.0358314 0.0082585)
(0.946724 0.0136344 0.0139906)
(0.902037 0.00875893 0.00977417)
(0.888745 0.034173 0.00393945)
(0.923103 0.0518099 -0.000390936)
(0.988838 0.0222607 0.00408653)
(1.00906 -0.0203356 0.00010851)
(0.987145 -0.0428328 -0.0175224)
(0.922885 -0.0692322 -0.0285566)
(0.877534 -0.0894971 -0.0472268)
(0.906288 -0.0730881 -0.0528281)
(0.956442 -0.031721 -0.0271512)
(0.96125 0.00968499 -0.0202787)
(0.917406 0.0143485 -0.0450528)
(0.888792 -0.00438328 -0.0585853)
(0.890517 -0.0156696 -0.0654135)
(0.893233 -0.0266872 -0.0708102)
(0.889143 -0.0216577 -0.0617953)
(0.905734 0.000165154 -0.0373855)
(0.930071 0.00356578 -0.0056398)
(0.951323 -0.00191811 -0.0216549)
(0.989317 -0.00762558 -0.053665)
(0.981873 0.00184638 -0.0359104)
(0.925249 0.00976418 -0.0178283)
(0.938988 0.0128846 -0.0263085)
(1.00385 0.0147348 -0.0158121)
(0.992282 0.00355088 0.00774444)
(0.931244 -0.00550249 -0.0159742)
(0.914416 -0.0110639 -0.0734431)
(0.952494 -0.0120987 -0.0812254)
(1.00894 0.0105828 -0.0242158)
(0.985661 0.0294115 0.0288542)
(0.914334 0.00780958 0.0340266)
(0.93728 -0.0020839 0.0180701)
(0.977095 -0.00552897 0.0318781)
(0.963538 -0.0491027 0.0670869)
(0.959098 -0.0753199 0.0824245)
(0.946088 -0.0559081 0.0825248)
(0.948791 -0.0167512 0.0533418)
(0.992854 0.021108 -0.000106919)
(0.99741 0.0347122 -0.011215)
(0.939671 0.0206256 0.00500297)
(0.894713 0.0188948 0.00276385)
(0.881917 0.0447111 -0.0104613)
(0.934014 0.0453253 -0.0290139)
(0.997067 -0.00252039 -0.0293985)
(0.998607 -0.0357656 -0.0328842)
(0.998823 -0.039663 -0.0412462)
(0.969562 -0.0623429 -0.0331157)
(0.908443 -0.0868737 -0.028088)
(0.868352 -0.0690005 -0.0174545)
(0.855533 -0.0223903 -0.0090297)
(0.867371 0.0117261 -0.0315654)
(0.866243 0.00437059 -0.0603672)
(0.872753 -0.00528713 -0.0564395)
(0.906706 -0.00142648 -0.042315)
(0.90896 -0.00927786 -0.0443856)
(0.891246 -0.00981191 -0.0534136)
(0.926576 0.00849251 -0.0494921)
(0.925867 0.00982843 -0.00453304)
(0.900063 -0.00323988 -0.0128028)
(0.920436 -0.00698322 -0.0468839)
(0.927762 0.00653024 -0.0258049)
(0.909145 0.00158718 0.0100118)
(0.93406 -0.0150506 0.0208623)
(0.974439 -0.00930558 0.0262247)
(0.953747 0.0124898 0.0201413)
(0.908136 0.0260423 -0.0294025)
(0.891624 0.0049249 -0.0780934)
(0.939869 -0.016576 -0.0524195)
(0.993456 0.0219921 0.0043618)
(0.946001 0.0587324 0.0144402)
(0.908601 0.0186764 0.0241446)
(0.971506 -0.00655764 0.0509813)
(0.985538 -0.0139595 0.0688137)
(0.935347 -0.0650473 0.0785024)
(0.922655 -0.0836461 0.0661692)
(0.913198 -0.0503371 0.0471448)
(0.93517 -0.0206424 0.0208538)
(0.999795 0.00560439 -0.0197117)
(0.998444 0.0290823 -0.0222079)
(0.93111 0.0260462 -0.00457972)
(0.894594 0.0317164 -0.0104899)
(0.896518 0.0511803 -0.0243362)
(0.962823 0.0263931 -0.0401713)
(1.01092 -0.0334126 -0.0509227)
(0.982375 -0.059532 -0.0648707)
(0.986068 -0.0458402 -0.0465921)
(0.979675 -0.0443053 -0.0294202)
(0.914054 -0.0603187 -0.0475059)
(0.852501 -0.0614781 -0.0322882)
(0.822566 -0.0357391 -0.0207423)
(0.834332 -0.00464201 -0.0542633)
(0.846993 0.004987 -0.0688317)
(0.873066 0.00830619 -0.0405435)
(0.922108 0.0108965 -0.0225818)
(0.914582 -0.000340481 -0.0326689)
(0.896711 -0.00241717 -0.0594471)
(0.962511 0.0161927 -0.0383672)
(0.923119 0.0263538 0.00708831)
(0.854876 0.0140538 0.0206034)
(0.871136 0.00666222 -0.00287098)
(0.910444 0.0108969 0.01904)
(0.946232 -0.00334841 0.0640657)
(0.965498 -0.0209639 0.067436)
(0.958498 -0.0113596 0.0369797)
(0.923678 0.0193054 0.0118301)
(0.889067 0.0329688 -0.022498)
(0.876682 0.00208739 -0.0574278)
(0.918139 -0.0154923 -0.031523)
(0.951384 0.0402992 0.00902418)
(0.915269 0.0737121 0.00377234)
(0.938904 0.0148318 0.0219585)
(1.02121 -0.0109971 0.0558212)
(1.02828 -0.0144148 0.0751224)
(0.955966 -0.0679923 0.0805404)
(0.900321 -0.0800578 0.0477128)
(0.890573 -0.0402119 0.0204679)
(0.93914 -0.0226907 0.00828741)
(0.999664 0.000889411 -0.0186848)
(0.975628 0.0393513 -0.0204667)
(0.908475 0.0390746 -0.0105589)
(0.896759 0.0353267 -0.0165137)
(0.912229 0.0420634 -0.0200182)
(0.969168 0.00887111 -0.0353329)
(1.01473 -0.0435567 -0.0702957)
(1.0046 -0.0618562 -0.0824507)
(1.00787 -0.042845 -0.034447)
(0.977712 -0.0264483 -0.0376311)
(0.914581 -0.041799 -0.0867993)
(0.873745 -0.0633334 -0.0371126)
(0.853679 -0.0392304 0.00192773)
(0.855359 0.00887328 -0.0494657)
(0.85331 0.0271886 -0.0614129)
(0.888502 0.0248035 -0.0140002)
(0.94204 0.0237502 0.00114104)
(0.91652 0.0083731 -0.0140436)
(0.914732 -0.000233837 -0.0384929)
(0.978479 0.0279441 -0.0088825)
(0.877918 0.0421699 0.0246074)
(0.763616 0.0201827 0.0421901)
(0.767564 0.00170385 0.0353801)
(0.863294 -0.0153997 0.0546135)
(0.972854 -0.0339813 0.0914501)
(0.994973 -0.0372047 0.0769502)
(0.958593 -0.0150091 0.017643)
(0.929993 0.0213434 -0.0087753)
(0.905459 0.0289675 -0.00904642)
(0.877654 -0.00415745 -0.0204314)
(0.882959 -0.0045876 0.00249641)
(0.888841 0.0645124 0.0291312)
(0.913868 0.081613 0.0200426)
(0.987918 0.00852789 0.0364876)
(1.0482 -0.0131717 0.0498004)
(1.06098 -0.0156513 0.077716)
(0.981556 -0.0656992 0.0892633)
(0.902893 -0.0694441 0.0284645)
(0.909146 -0.0296071 0.00311533)
(0.955945 -0.0222788 0.00414899)
(0.980548 0.00506646 -0.0237391)
(0.937842 0.0542349 -0.0281835)
(0.88374 0.044044 -0.016218)
(0.90507 0.0287771 -0.0173452)
(0.93387 0.0327836 -0.0192265)
(0.973961 -0.00191569 -0.0355779)
(1.01502 -0.0552656 -0.0815818)
(1.02373 -0.0722991 -0.0752885)
(1.01379 -0.047686 -0.00831469)
(0.979195 -0.0109531 -0.0488611)
(0.95747 -0.0210022 -0.119023)
(0.90829 -0.069639 -0.0313728)
(0.867392 -0.0530447 0.046578)
(0.885682 0.0202316 -0.0143195)
(0.887699 0.0488136 -0.0365079)
(0.920433 0.0334029 0.00584474)
(0.94985 0.0300256 0.00698401)
(0.914258 0.0136404 -0.00854121)
(0.939676 0.000322616 -0.0132707)
(0.958571 0.0375952 0.0124942)
(0.835528 0.0619009 0.0271204)
(0.745593 0.0345773 0.0239891)
(0.764846 -0.0140179 0.00776302)
(0.854333 -0.0607034 0.0247006)
(0.956172 -0.0711122 0.0630211)
(0.966936 -0.0480622 0.0428234)
(0.922806 -0.0122279 -0.018492)
(0.930812 0.0277514 -0.0335479)
(0.927886 0.0288155 -0.00782557)
(0.878824 -0.0059854 0.00548111)
(0.839913 0.00889856 0.0326829)
(0.829573 0.0790295 0.0494087)
(0.934251 0.0734036 0.0382886)
(1.02663 0.00525203 0.0628379)
(1.05807 -0.0111555 0.060605)
(1.06975 -0.0214766 0.0840258)
(0.974148 -0.0592722 0.0988308)
(0.896397 -0.0528394 0.0194537)
(0.934909 -0.019734 -0.00646482)
(0.963185 -0.0195561 -0.00509347)
(0.94922 0.0144139 -0.0411178)
(0.902405 0.0697742 -0.0392233)
(0.876694 0.0490125 -0.00527236)
(0.927325 0.0173238 -0.00890888)
(0.949415 0.0216655 -0.0360324)
(0.983786 0.00486047 -0.0526363)
(1.04503 -0.0437901 -0.0757569)
(1.03773 -0.0687705 -0.0493872)
(0.97862 -0.0414123 -0.000276818)
(0.947855 0.00245732 -0.0684649)
(0.970878 -0.0150331 -0.122619)
(0.912922 -0.0751037 -0.0291784)
(0.842312 -0.052584 0.0495375)
(0.868076 0.0361936 0.00990686)
(0.898896 0.0633952 0.000921337)
(0.936133 0.0403635 0.0260288)
(0.9424 0.0405367 0.0103933)
(0.936385 0.0190902 -0.0111945)
(0.974518 -0.000380637 -0.00365643)
(0.946798 0.0449087 0.0196809)
(0.838748 0.072715 0.0322913)
(0.804184 0.0393725 0.0162654)
(0.844852 -0.0235289 -0.00764789)
(0.867548 -0.0752081 0.0172851)
(0.891677 -0.0781898 0.0473598)
(0.882062 -0.045808 0.006855)
(0.860167 -0.0065409 -0.054818)
(0.914213 0.0326718 -0.0494406)
(0.924767 0.0281883 -0.00658935)
(0.865655 -0.00707736 0.010732)
(0.807829 0.0180653 0.044116)
(0.812794 0.0785543 0.0588958)
(0.981095 0.0573727 0.0604667)
(1.0527 0.00664928 0.0940785)
(1.03783 -0.00417419 0.064198)
(1.02956 -0.0204041 0.0742998)
(0.941945 -0.0448209 0.103112)
(0.891812 -0.0389372 0.0208746)
(0.961048 -0.0146061 -0.00783774)
(0.971165 -0.0118385 -0.00906129)
(0.909636 0.0268431 -0.0629628)
(0.869747 0.0797592 -0.0465372)
(0.914703 0.0455413 0.0268429)
(0.974646 0.00176587 0.0119843)
(0.96374 0.0170921 -0.0434774)
(1.01004 0.0154055 -0.0544101)
(1.07828 -0.0368845 -0.0589395)
(1.02158 -0.0641455 -0.040861)
(0.935434 -0.024284 -0.00820025)
(0.925105 0.022286 -0.0639284)
(0.941431 -0.0199695 -0.0912923)
(0.874933 -0.0882495 -0.0126906)
(0.823185 -0.0484918 0.0409969)
(0.842575 0.0480994 0.0193797)
(0.890434 0.0645139 0.0262836)
(0.932013 0.0430607 0.0503467)
(0.949506 0.0466304 0.0345139)
(0.980975 0.0199352 0.000799873)
(1.00308 0.0017828 -0.000520864)
(0.925402 0.0480524 0.0188451)
(0.862118 0.0750382 0.0352104)
(0.875467 0.0371898 0.014927)
(0.895257 -0.0266442 0.00834812)
(0.85103 -0.071587 0.0459813)
(0.793705 -0.0756914 0.0319643)
(0.764972 -0.0487958 -0.0436836)
(0.785786 -0.00782007 -0.090511)
(0.873099 0.0333419 -0.0506681)
(0.88034 0.0242061 -0.00236592)
(0.835292 -0.00869767 -0.00109545)
(0.809245 0.0221089 0.0301908)
(0.865862 0.068783 0.0642873)
(1.02471 0.0452632 0.102477)
(1.02796 0.0192378 0.109154)
(0.979618 0.011779 0.0335678)
(0.959005 -0.0189347 0.0511486)
(0.90302 -0.0386734 0.0983381)
(0.892847 -0.0295172 0.0248525)
(0.961631 -0.00855789 0.000872813)
(0.955568 0.00238196 -0.00364215)
(0.871972 0.0473677 -0.0678046)
(0.888329 0.0866079 -0.0243473)
(1.00741 0.0341688 0.0668853)
(1.04289 -0.00988436 0.0360447)
(1.00571 0.0172076 -0.032588)
(1.05783 0.0265497 -0.0509816)
(1.0883 -0.0226106 -0.0490106)
(0.962098 -0.0507251 -0.0290004)
(0.882884 -0.000655594 -0.0146097)
(0.929954 0.0432584 -0.0550655)
(0.935531 -0.0217734 -0.0446078)
(0.808469 -0.0935439 0.0126401)
(0.751919 -0.0386035 0.0404741)
(0.801429 0.0545599 0.0328786)
(0.879732 0.0559798 0.0459344)
(0.917293 0.0385279 0.0673939)
(0.965581 0.0436308 0.0520744)
(1.01934 0.0184089 0.014566)
(1.00042 0.00515969 0.00186263)
(0.866087 0.0463748 0.0129084)
(0.881132 0.0719286 0.0356943)
(0.936425 0.0384047 0.0127503)
(0.925526 -0.0210198 0.0174369)
(0.854056 -0.0588385 0.0602863)
(0.759806 -0.073023 0.0176411)
(0.705535 -0.0586752 -0.0733293)
(0.732399 -0.0118458 -0.0937806)
(0.808449 0.030825 -0.0352436)
(0.820599 0.0156835 -0.00879945)
(0.822161 -0.0103672 -0.0168431)
(0.836287 0.0242512 0.0329606)
(0.914248 0.0623392 0.100332)
(1.01642 0.0479465 0.13578)
(0.99839 0.0360047 0.0927372)
(0.961998 0.0234327 0.00549247)
(0.918802 -0.021697 0.0431465)
(0.869539 -0.0433924 0.0815871)
(0.889323 -0.0246028 0.0143657)
(0.944906 0.00304917 -0.0157895)
(0.904791 0.0237594 -0.0334861)
(0.849028 0.0655605 -0.0551004)
(0.95903 0.0783996 0.0308787)
(1.08696 0.0153779 0.0871422)
(1.05918 -0.0171042 0.0308283)
(1.00766 0.0230927 -0.0418318)
(1.09518 0.0411817 -0.0615111)
(1.09633 -0.00718351 -0.0467918)
(0.924323 -0.0383449 -0.0238485)
(0.864363 0.0176765 -0.0195467)
(0.941811 0.0583873 -0.0418817)
(0.970819 -0.0176567 -0.000953158)
(0.811956 -0.085354 0.0256908)
(0.714546 -0.0280426 0.0335803)
(0.807973 0.047596 0.0409898)
(0.902742 0.0388115 0.048337)
(0.903507 0.02682 0.054007)
(0.958582 0.0357246 0.0380186)
(1.03987 0.0187635 0.014981)
(0.971671 0.00993514 -0.00068915)
(0.807538 0.0405548 0.000482076)
(0.893825 0.0627893 0.0405348)
(0.954692 0.0408017 0.0179223)
(0.955814 -0.0167398 0.0201305)
(0.89529 -0.0534444 0.068827)
(0.791472 -0.0706873 0.0261295)
(0.711984 -0.059786 -0.061439)
(0.70781 -0.00889228 -0.0697391)
(0.761933 0.0266071 -0.0241405)
(0.813104 0.00732181 -0.0187294)
(0.828964 -0.005808 -0.00542719)
(0.833729 0.0346666 0.0661354)
(0.918286 0.0686433 0.136411)
(0.97905 0.0546835 0.1461)
(0.984313 0.0408923 0.0783172)
(0.981731 0.0278273 0.00187164)
(0.898947 -0.0223214 0.0429291)
(0.821341 -0.0431882 0.0322627)
(0.852751 -0.0121303 -0.0448258)
(0.904447 0.0214877 -0.0617279)
(0.871477 0.0375135 -0.0498384)
(0.861892 0.0602974 -0.0141989)
(0.999575 0.0536235 0.0591193)
(1.09854 0.00290107 0.0549812)
(1.00418 -0.0137643 -0.0117913)
(0.974896 0.0282294 -0.0751289)
(1.12946 0.0467242 -0.0859544)
(1.10372 0.00327293 -0.0536887)
(0.908579 -0.0250649 -0.0167825)
(0.848772 0.0351062 -0.0238822)
(0.933943 0.0700389 -0.0355197)
(1.0226 -0.0148144 0.0337179)
(0.85647 -0.0741848 0.0537822)
(0.742326 -0.0231182 0.0243443)
(0.860766 0.029407 0.0283495)
(0.926894 0.0224692 0.0306595)
(0.866771 0.0204706 0.0135661)
(0.926547 0.0290759 0.00050747)
(1.03505 0.0199668 0.00681809)
(0.914262 0.0186961 -0.0106452)
(0.80599 0.0288036 -0.00505152)
(0.884936 0.0536134 0.0575154)
(0.962568 0.0438781 0.0326347)
(1.02371 -0.0180562 0.0233191)
(0.917438 -0.0525849 0.0621533)
(0.770689 -0.0621315 0.0104261)
(0.690832 -0.0486892 -0.0607745)
(0.685832 -0.00264815 -0.040511)
(0.753544 0.0184567 0.00252548)
(0.828922 0.00692658 -0.00571816)
(0.815696 0.0115294 0.0168847)
(0.813278 0.0471795 0.099589)
(0.898664 0.0729632 0.144579)
(0.930555 0.05544 0.141527)
(0.985826 0.0385658 0.0683224)
(1.00846 0.0297719 -0.00134407)
(0.871049 -0.0155279 0.0376533)
(0.756373 -0.0332157 -0.0282939)
(0.780885 0.00262453 -0.119773)
(0.862511 0.0318558 -0.0914505)
(0.869406 0.0376451 -0.037331)
(0.856766 0.0489504 0.00666528)
(1.00898 0.038199 0.0457508)
(1.09995 0.000856724 0.0165406)
(0.94764 -0.00794042 -0.0563567)
(0.951584 0.0257042 -0.102668)
(1.14368 0.0433496 -0.103545)
(1.11977 0.010354 -0.06289)
(0.926381 -0.00796758 -0.0043021)
(0.811767 0.0549787 -0.011621)
(0.946763 0.0743625 -0.0300499)
(1.07438 -0.0135843 0.0356193)
(0.874496 -0.0586198 0.0723783)
(0.764454 -0.0208775 0.0214304)
(0.858484 0.0164676 -0.000605498)
(0.89604 0.0187782 -0.00447676)
(0.829077 0.0222283 -0.0390528)
(0.892673 0.024505 -0.0453691)
(0.989582 0.024649 -0.0102938)
(0.871396 0.0266237 -0.0277275)
(0.826796 0.0193902 0.00659391)
(0.834141 0.0496224 0.0829658)
(1.00251 0.0396085 0.0462476)