/*--------------------------------*- C++ -*----------------------------------*\
  =========                 |
  \\      /  F ield         | OpenFOAM: The Open Source CFD Toolbox
   \\    /   O peration     | Website:  https://openfoam.org
    \\  /    A nd           | Version:  10
     \\/     M anipulation  |
\*---------------------------------------------------------------------------*/
FoamFile
{
    format      ascii;
    class       volScalarField;
    location    "17";
    object      pMean;
}
// * * * * * * * * * * * * * * * * * * * * * * * * * * * * * * * * * * * * * //

dimensions      [0 2 -2 0 0 0 0];

internalField   nonuniform List<scalar> 
25600
(
0.00361415
0.00264849
-0.00280757
0.011003
0.00508481
-0.0019314
0.00733015
0.00435561
0.0055371
0.00535906
0.00356479
0.00574008
-0.00258725
0.00197673
0.00299531
0.000388714
0.00712551
0.0010244
0.00221339
0.0064665
0.000305822
0.00295877
0.00821291
0.00345957
0.00397365
0.00728724
-0.000141119
0.0033707
0.0030884
-0.00673231
0.00413691
0.00738728
0.000130138
0.0051202
0.00626636
0.00480348
0.00482571
0.0058447
0.00447067
-0.00245572
0.00371679
0.000447135
-0.00100964
0.0089617
0.001052
-0.00286533
0.00534655
0.00108186
0.000586685
0.000668158
-0.00244183
0.000330385
-0.00129259
0.00362531
0.00350903
-0.000655939
0.00292151
-0.00337818
0.000340474
0.00814022
0.00285231
0.00338293
0.00751439
0.00206529
-0.00122286
0.00420977
0.000686284
0.00163866
0.00192153
-0.00560876
0.00632109
0.00785671
0.00232727
0.011206
0.00523025
0.000964418
0.00447568
0.000101216
-0.0035746
-0.00308391
0.0111297
0.00458148
0.00388664
0.00586059
0.00135311
0.00321667
0.00965489
0.00761003
0.00669216
0.00683383
0.00243544
0.00306013
0.00322263
0.000958683
0.000785925
0.00285502
0.00576649
0.00235419
0.00524668
0.00861624
0.00387283
0.00425128
0.00828549
0.00600892
0.00211012
0.00744143
0.00521461
-1.12842e-05
-0.00195103
-0.00634843
0.00070251
-0.000984127
6.05414e-05
0.0126942
0.0038523
0.00189736
0.00826778
-0.000213328
-0.00477426
0.00510153
0.00896611
0.00129038
-3.74836e-06
-0.00220985
-0.00499561
-0.00265969
0.00260018
0.00589393
0.00856673
0.0096089
0.0051342
0.00701468
0.00634286
-0.00339813
-0.00155095
0.00238025
0.00228043
0.00440977
0.0077496
0.00884477
0.00499522
0.000441682
-0.000213968
-0.00035551
-0.00311575
0.00431904
0.00624547
-0.000383329
-0.00171748
-0.00227585
0.00229121
0.00167064
0.00528333
0.0105903
-0.00103511
0.00100689
0.00714729
-0.000913325
-6.91876e-05
0.00962993
0.00770249
-0.000730637
-0.00514441
-0.0070394
-0.00651584
-0.00451684
8.18209e-05
0.00766285
0.0115759
0.00732998
-0.00347064
-0.000752844
0.000625516
-0.0070157
0.000969278
0.00653776
0.00523842
0.00776123
0.00665289
0.00392379
0.00138243
-0.000995895
0.00184616
0.00526289
0.00162953
0.00626073
0.00540109
-0.00468876
-0.00582565
-0.0035533
-0.00278947
-0.00508487
0.00106562
0.00511177
-0.0013983
0.00253391
0.00296934
-0.00496441
-0.000751837
0.0090779
0.00367924
-0.00583542
-0.00866958
-0.00808927
-0.00606667
-0.00272478
0.00451891
0.0121024
0.0106059
0.00266444
-0.00223888
0.00403281
0.00282864
-0.00422026
0.00296905
0.0053145
0.00401787
0.00817225
0.0062502
0.00129836
-0.00184007
-0.00484882
-0.00145954
0.00144385
-0.00492601
0.000816647
0.00588607
0.00116285
-0.00149555
-0.00144093
-0.00257276
-0.0034154
0.00303462
0.00401137
0.000435367
0.0044646
0.00165912
-0.00470138
0.002517
0.0094743
0.00377764
-0.00598706
-0.0102792
-0.00748163
-0.00437276
-0.00279058
0.00215384
0.00706531
0.00311644
-0.00714634
-0.00800071
0.00176312
0.00159973
-0.00155874
0.00327799
0.00277838
0.00250309
0.00533924
-3.74747e-05
-0.00634389
-0.00693268
-0.00463528
0.00161966
-0.000126649
-0.00818881
0.00165849
0.00580926
-0.00502814
-0.00821182
-0.00229203
0.000180363
-0.00161649
0.00041044
-6.70961e-05
0.000337104
0.00355419
-0.00239231
-0.00303157
0.0104648
0.0132173
0.00330395
-0.00363602
-0.00789026
-0.00532965
-0.00484461
-0.00258437
0.00434435
0.010078
0.00583282
-0.00553688
-0.00264429
0.00681424
0.0032929
-0.00198814
0.00191316
0.00283191
0.00243653
0.00406268
0.000125399
-0.00458719
-0.00177567
0.00404455
0.00971624
0.00403381
-0.0028284
0.00459411
0.00296114
-0.00514441
-0.00333453
0.00227433
0.000223233
-0.00825783
-0.00658176
-0.0016867
0.00244743
0.00708479
0.00471403
0.00646103
0.0141321
0.0108852
0.00635419
-0.0084194
-0.0123178
-0.00438496
-0.00103442
0.00082147
0.00511945
0.0102316
0.00659988
-0.00618295
-0.00478108
0.00143756
-0.00442772
-0.00578698
-3.3952e-05
-0.000703699
0.0021808
0.00903539
0.00367448
-0.00769721
-0.00598379
0.00231889
0.00954218
0.00524292
0.000954775
0.00697688
0.00158623
-0.00679733
-0.0053563
0.00114788
-0.00138514
-0.0101021
-0.00613555
-0.00103323
0.00344774
0.00616535
-0.00149658
-0.00119357
0.0115523
0.0162763
0.00115252
-0.00834732
-0.00173181
0.00613143
-0.000387333
-0.00386088
-0.00240036
0.00433403
0.00372733
-0.00481685
-0.000548686
0.00308258
-0.00465348
-0.0065327
-0.00103406
0.000301765
0.00421055
0.0105607
0.00174819
-0.0101665
-0.00289717
0.00676007
0.00675966
0.00131555
0.000850699
0.00565362
-0.00335373
-0.0123083
-0.0128454
-0.00151163
-7.4061e-05
-0.00738891
-0.00114726
0.00266745
0.00700933
0.00964299
0.000784317
-0.00089176
0.00169808
0.00371234
0.00590861
-0.00614632
0.00123004
0.00856341
-0.000381492
-0.00532458
-0.00318822
0.00750856
0.00768089
-0.0012549
0.00222692
0.00505797
0.00206453
-0.000287299
0.00100994
-0.0023775
0.00325849
0.0157379
0.00493187
-0.0118765
-0.00348266
0.00774805
0.00700516
0.00174223
0.000738985
0.00230811
-0.00658365
-0.0117973
-0.0111551
0.00247335
0.00377234
-0.00860624
-0.00516522
-0.00238696
0.00380044
0.00900164
0.00234765
0.00114377
-9.22438e-05
0.00513892
0.00459207
-0.00719089
0.00443615
0.0119854
0.00191617
-0.00436658
-0.00378295
0.00573945
0.0043129
-0.00408751
0.00208093
0.00345487
-0.000355004
-0.000806391
2.37725e-05
-0.00539635
0.000364973
0.015373
0.00602237
-0.00769798
0.00270843
0.00992279
0.00668413
0.001068
0.00165775
0.0037369
-0.00477658
-0.00844561
-0.00402101
0.00657647
0.00111904
-0.0125724
-0.00812825
-0.00413122
0.00689894
0.0123122
0.00207069
-0.00148947
-0.00303788
0.00565056
0.00264227
-0.0067398
0.00690866
0.0121279
-0.00121968
-0.00660003
-0.00453897
0.00290681
0.00010326
-0.00276628
0.00409627
0.000919719
-0.00224092
0.00272404
0.00128718
-0.00763426
-0.00012675
0.0160363
0.00548183
-0.00900868
-0.000271743
0.00460873
0.0022347
0.000544149
0.00477281
0.0026118
-0.0105414
-0.0125861
-0.00645481
0.00469899
-0.000957934
-0.0117742
-0.0103395
-0.00784212
0.0074179
0.0123944
0.00100523
-0.001817
-0.00522172
0.00235988
0.00377088
-0.00506478
0.00704309
0.0126991
-0.000740846
-0.00714461
-0.00610756
0.00328791
0.0014881
0.000439647
0.00341231
-0.00244934
0.00143377
0.00779767
0.00178542
-0.00908113
0.000828911
0.0166261
0.00507591
-0.00889644
0.0007073
0.00677347
0.003391
0.00160912
0.00426341
-0.00234581
-0.0149126
-0.01442
-0.00582437
0.00611762
0.000419113
-0.0088384
-0.0099789
-0.00774019
0.00943874
0.012678
0.000431783
-0.00182049
-0.00491281
0.00320877
0.00330181
-0.0059162
0.00446165
0.0112645
-0.00262193
-0.00935654
-0.00630122
0.00580979
0.000250463
-0.00382976
-0.00119153
-0.00513926
0.00038131
0.00382276
-0.00299366
-0.0131928
-0.00117706
0.0153244
0.00410552
-0.00784665
0.00259194
0.00689872
0.00132398
-0.000390651
0.00235407
-0.00350853
-0.0152915
-0.0138906
0.000640544
0.0123807
0.00580641
-0.00323547
-0.00637736
-0.00343436
0.0151746
0.0125026
-0.0011852
-0.000591526
-0.00434341
0.00264165
0.00369404
-0.00752762
0.00184651
0.00987429
-0.00164758
-0.00950566
-0.00616736
0.00670726
0.00139613
-0.00651111
-0.00435106
-0.00631893
-0.00363209
-6.34008e-05
-0.00785415
-0.0145494
-0.00305736
0.0133123
0.00384804
-0.00579563
0.00479907
0.00637909
-0.000824778
-0.000235947
0.00479341
-0.000465989
-0.0147077
-0.0121528
0.00650805
0.0165033
0.0100463
-0.0028168
-0.00897717
-0.0028881
0.0169477
0.0083249
-0.00359308
0.000384911
-0.00412093
0.00233944
0.00399013
-0.00714117
0.00266933
0.0112974
0.00175203
-0.00791801
-0.00682303
0.0044735
0.0010108
-0.00847672
-0.00503475
-0.00765276
-0.00675788
-0.000386348
-0.0109138
-0.015198
-0.00123249
0.0168687
0.00626775
-0.00484427
0.00738851
0.00637877
-0.00256614
-0.000456039
0.00792899
0.00272517
-0.0159051
-0.0126547
0.00847172
0.0146109
0.00965388
-0.000486039
-0.0103723
-0.00466202
0.0141126
0.00285282
-0.00535551
0.000534064
-0.00478895
0.00146141
0.00220458
-0.0109513
-0.00161576
0.00816596
0.00229783
-0.0110881
-0.0123297
-0.00116024
-0.00295499
-0.00940365
-0.00532383
-0.00974282
-0.00626411
0.001461
-0.0109105
-0.0155634
0.0023858
0.0219688
0.00854754
-0.00540284
0.00783957
0.0042709
-0.00583738
-0.00356511
0.0109144
0.00327164
-0.0213945
-0.0152882
0.0081617
0.0141365
0.0112679
0.00169662
-0.0127117
-0.00728626
0.00898766
0.000386947
-0.00424248
0.000163698
-0.0062792
0.00237933
0.00247735
-0.0122344
-0.00699368
0.00414462
0.00121753
-0.0160627
-0.0171558
-0.0053239
-0.00847803
-0.0105094
-0.00517405
-0.0101569
-0.00375739
0.00457524
-0.00851664
-0.0161513
0.00329975
0.0242997
0.00856344
-0.00593371
0.00751953
0.00386584
-0.0109516
-0.00839362
0.0140782
0.00204899
-0.0288064
-0.0157219
0.00906943
0.0164364
0.0126409
-0.00131018
-0.017606
-0.0123152
0.00545172
-0.000129136
-0.00407012
0.00074601
-0.00663913
0.00270702
0.00462554
-0.0109586
-0.00887555
0.0059039
0.0039063
-0.013176
-0.017002
-0.00773388
-0.0144361
-0.0124524
-0.0049832
-0.0124135
-0.00161564
0.00970884
-0.00755531
-0.0167989
0.00289705
0.0226389
0.00704116
-0.00612431
0.00622532
0.00326959
-0.0170231
-0.0105787
0.0179806
0.000648506
-0.035576
-0.0152407
0.0110707
0.0197253
0.0133715
-0.00254276
-0.0168246
-0.0126182
0.0049048
-0.0015339
-0.00427363
0.00347294
-0.00476986
0.00107079
0.0071072
-0.0103107
-0.00854965
0.00944306
0.00721058
-0.00871968
-0.0147152
-0.00819087
-0.0170971
-0.0111187
-0.00386741
-0.0164399
-0.00156562
0.0103814
-0.00937519
-0.0170786
0.00312773
0.0193539
0.00488195
-0.00871377
0.00251662
0.00057784
-0.0183625
-0.00811091
0.0208731
-0.00277118
-0.0423103
-0.0152113
0.0145371
0.0225953
0.0144713
-0.000588477
-0.0116341
-0.00765324
0.00698599
-0.000849317
-0.0050266
0.00397918
-0.00369702
-0.00102241
0.0111314
-0.0108148
-0.0079945
0.0113277
0.00910982
-0.0092835
-0.0126464
-0.00808295
-0.0176823
-0.00781336
-0.00329043
-0.0229383
-0.00508291
0.00974414
-0.00913612
-0.0177685
0.00340955
0.0190236
0.0029825
-0.0118315
0.00125195
0.00143547
-0.0164629
-0.00456066
0.0206652
-0.00691615
-0.0477279
-0.0162815
0.0165958
0.0214462
0.0133151
0.00366597
-0.00968147
-0.0073434
0.00650355
-0.00136921
-0.00698271
0.00247751
-0.00610397
-0.000456881
0.0158089
-0.0129472
-0.00850902
0.0131226
0.00987854
-0.0111317
-0.0126446
-0.00898212
-0.0180964
-0.00629734
-0.00569508
-0.0303071
-0.00883038
0.0122003
-0.00992435
-0.018241
0.00410055
0.0209275
0.00270609
-0.013135
0.00153024
0.00135711
-0.0186378
-0.00302614
0.0222184
-0.00903717
-0.0529446
-0.0183764
0.0173731
0.0178839
0.0124801
0.00905591
-0.0103703
-0.0106188
0.00379023
-0.0038742
-0.00566083
0.00339402
-0.0096906
0.00203072
0.0167543
-0.0131626
-0.00804244
0.0168969
0.00932448
-0.0115747
-0.0125434
-0.0102697
-0.0194015
-0.00694349
-0.00958947
-0.0354828
-0.00896218
0.0145628
-0.0103227
-0.0175371
0.00532508
0.0224545
0.00344784
-0.0135403
0.00118772
-0.000584834
-0.0195449
-0.002704
0.0261568
-0.0109137
-0.0558154
-0.0188269
0.015336
0.015363
0.0162821
0.0112004
-0.0119571
-0.0132683
0.00347973
-0.00490965
-0.00351367
0.00433659
-0.0111997
0.00388702
0.0143783
-0.011428
-0.00575858
0.0197965
0.00906845
-0.0123845
-0.0134031
-0.0130339
-0.0216815
-0.0101835
-0.0143485
-0.0376171
-0.00630739
0.0138224
-0.0111899
-0.0184308
0.00531653
0.0229953
0.0029329
-0.0145233
-0.000489587
-0.00207831
-0.0193163
-0.00472838
0.0285561
-0.0135724
-0.058376
-0.0197029
0.0126251
0.0153715
0.0222179
0.0104847
-0.0136003
-0.0137554
0.00415353
-0.0057132
-0.00425801
0.00343472
-0.0120259
0.00341781
0.0148724
-0.0104963
-0.00306772
0.0209257
0.00924713
-0.0128624
-0.0142432
-0.015801
-0.0248167
-0.0145189
-0.0162932
-0.0349613
-0.00362395
0.0129738
-0.0125341
-0.020213
0.00376596
0.024326
0.00280529
-0.0154042
-0.00297659
-0.00194544
-0.0206736
-0.00691753
0.0284183
-0.0138028
-0.0608976
-0.0221469
0.0132933
0.0163298
0.0256256
0.0110237
-0.0139555
-0.013335
0.00418878
-0.00594217
-0.00527521
0.0028569
-0.0118732
0.00171047
0.0161225
-0.0106307
-0.00304823
0.0208172
0.00860929
-0.0131971
-0.0149205
-0.017822
-0.0269385
-0.0153458
-0.0146059
-0.0316805
-0.00319388
0.012423
-0.013308
-0.0213339
0.00115047
0.0234839
0.00266018
-0.017212
-0.00487334
-0.00238437
-0.0219578
-0.00807923
0.0254856
-0.0129597
-0.063111
-0.0247914
0.015537
0.0172825
0.0261333
0.0117756
-0.0143684
-0.0139262
0.00413171
-0.00586703
-0.00674234
0.00178445
-0.0121218
0.000122391
0.0158775
-0.0106024
-0.00316411
0.021144
0.00874992
-0.0128597
-0.0143987
-0.0172787
-0.0264894
-0.0124915
-0.0121837
-0.031103
-0.0033724
0.0133468
-0.0119689
-0.0209077
-0.000325955
0.0212364
0.00227908
-0.0177333
-0.00511437
-0.00306941
-0.0218334
-0.00758345
0.0244716
-0.0109443
-0.0630319
-0.0254355
0.0161451
0.0188196
0.0273506
0.011841
-0.0142818
-0.013437
0.00461557
-0.0056435
-0.00734178
0.00171039
-0.0130529
3.80593e-05
0.014437
-0.0117813
-0.00375165
0.0205249
0.00802539
-0.0133551
-0.0142643
-0.0171731
-0.0266873
-0.0114544
-0.0127874
-0.0330715
-0.00385735
0.0138286
-0.0111718
-0.0211727
-0.00162458
0.0189142
0.0011174
-0.0180255
-0.00646334
-0.00405448
-0.0219457
-0.00694084
0.0246305
-0.00995543
-0.0626801
-0.0254419
0.0140929
0.0181829
0.0269694
0.0107511
-0.0146619
-0.0134884
0.00437919
-0.00618284
-0.00828229
0.00109434
-0.0143064
-0.000596839
0.0153611
-0.0111137
-0.00291508
0.0212705
0.00877829
-0.01222
-0.0126664
-0.0155747
-0.0251482
-0.0100609
-0.0117109
-0.0326063
-0.00273695
0.0154025
-0.00954238
-0.0205602
-0.000996966
0.0196855
0.00228123
-0.0167177
-0.00571295
-0.00330991
-0.0206973
-0.00526562
0.0254936
-0.00848616
-0.0607789
-0.0239912
0.0141902
0.018947
0.02763
0.0113238
-0.0137054
-0.0121649
0.00588538
-0.00482001
-0.00717475
0.00199748
-0.0132192
0.000516249
0.0141815
-0.0124487
-0.00413559
0.0201166
0.00762151
-0.0133393
-0.0134713
-0.0163183
-0.0258363
-0.0113508
-0.0127021
-0.0336231
-0.00391195
0.0142454
-0.0104157
-0.0216333
-0.00202222
0.0187342
0.00129253
-0.0178728
-0.00682032
-0.00463418
-0.0219555
-0.00680181
0.0238296
-0.0092015
-0.0610838
-0.0245214
0.0132938
0.0175287
0.0260446
0.010271
-0.0147312
-0.012838
0.00541222
-0.00552042
-0.00819533
0.000918713
-0.0142356
-0.000651017
0.0209464
-0.0056538
0.00261386
0.0269511
0.0146011
-0.00644771
-0.00660694
-0.00915231
-0.0186003
-0.00462081
-0.00593122
-0.0266794
0.00263472
0.0207799
-0.00358043
-0.0150652
0.00453134
0.0251885
0.00776877
-0.0113369
-0.000254603
0.00194797
-0.0154131
-0.000220821
0.0305933
-0.00209172
-0.0538087
-0.0174758
0.0199224
0.0239126
0.0325947
0.0170545
-0.00792633
-0.00585444
0.0124134
0.00133999
-0.00144497
0.00770191
-0.0074043
0.00591676
0.00533192
0.00213299
-0.00328649
0.0080489
0.0002742
-0.00527877
0.006366
0.00536708
0.00752813
0.00742147
0.00523146
0.00648521
7.86443e-05
0.00504787
0.00441739
0.00121522
0.00602122
-0.000903595
0.00109861
0.00585417
0.000136615
0.00321852
0.00830774
0.00386505
0.00513663
0.00811714
0.00193581
0.00594753
0.00387919
-0.00529563
0.00502943
0.00625808
0.000286575
0.00533299
0.00608742
0.00474136
0.00466694
0.00710758
0.00537947
-0.0011339
0.00371036
-0.0017429
-0.00173782
0.00665538
-0.00279279
-0.00511139
0.0037173
0.000917203
0.00171336
0.00187608
-0.0015057
0.0011279
0.000574575
0.00503482
0.00480595
0.00151266
0.00430245
-0.00206241
0.000808969
0.00810576
0.0041066
0.00501814
0.00843206
0.00257878
-0.00107459
0.00157007
-0.00117363
0.00147205
0.000433697
-0.00523935
0.00693831
0.00624267
0.00148754
0.0111862
0.00605697
0.00295162
0.00602367
0.00241621
-0.00154298
-0.00132109
0.00623545
0.00104543
0.00255696
0.00413877
-0.00143125
0.000416115
0.00601225
0.00524602
0.00625225
0.00708702
0.0030753
0.00511874
0.00683048
0.00495739
0.00484872
0.00558329
0.00574969
0.00140685
0.00434816
0.00941285
0.00645695
0.00648195
0.00945752
0.00706247
0.00303852
0.00620905
0.00483348
-7.33377e-05
-0.00384284
-0.00616086
0.00100542
-0.00341718
-0.00291645
0.0100149
0.0026209
0.00308916
0.0109241
0.00309564
-0.000809219
0.00477367
0.00411957
-0.000393801
5.20344e-05
-0.00190535
-0.00536963
-0.00375669
0.000873406
0.00373549
0.00495607
0.00373203
-0.000770427
0.00325921
0.00441935
-0.00416525
-0.00115939
0.00332008
0.00179739
0.0018422
0.00403399
0.00529568
0.00280591
-0.000320613
-5.16696e-05
0.00115142
-0.00103464
0.00474198
0.00756075
0.00069962
-0.00309351
-0.00397151
-0.000832439
-0.00218565
0.00426182
0.0119914
0.00154598
0.00495345
0.00918225
-0.0025922
-0.00192687
0.00596867
0.00262269
-0.00108524
-0.00285753
-0.004783
-0.00680188
-0.00598968
-0.00241261
0.0019751
0.00255919
-0.00279165
-0.00915737
-0.00049899
0.00453527
-0.00218961
0.00527344
0.00745136
0.00243963
0.00340562
0.003722
0.00414492
0.00542995
0.00428968
0.00601839
0.0100951
0.00639977
0.00782699
0.00481888
-0.00662939
-0.00742324
-0.00349453
-0.00339509
-0.00645551
0.000775163
0.00493264
-0.00111207
0.00594307
0.00685351
-0.00134098
0.00227313
0.00585993
0.00435204
-0.00023042
-0.00320937
-0.00427866
-0.00626974
-0.00428669
8.67575e-06
0.00342936
-0.000281005
-0.0066182
-0.00714627
0.0018598
0.00027659
-0.00570994
0.0038113
0.00562112
0.0019064
0.00424374
0.00247222
-0.000597928
-0.00155236
-0.00395317
3.37886e-05
0.00389484
-0.00257504
0.00232212
0.0060606
-0.000747574
-0.00341357
-0.00424294
-0.00721793
-0.00649163
0.00461595
0.00741159
0.00447468
0.00910162
0.00301182
-0.00372946
0.00241724
0.00610946
0.00390723
-0.00423026
-0.00912463
-0.0070718
-0.00587604
-0.00113721
0.00606884
0.0058576
-0.00261133
-0.0115198
-0.00934532
-0.000165868
0.000591235
-0.00017848
0.00453649
0.00290511
0.00125731
0.0018064
-0.00369892
-0.00739131
-0.00529036
-0.00412381
0.00297292
0.0041584
-0.00276086
0.00479208
0.0058714
-0.00471147
-0.00765319
-0.00422729
-0.00354396
-0.00367319
0.00237003
0.00190244
0.00293403
0.0079515
0.00101581
-0.00137301
0.00583965
0.00630838
0.00429961
-0.00911587
-0.00843963
-0.000422718
-0.00140345
0.00460814
0.0139481
0.0138582
0.00512174
-0.0064331
-0.00488136
0.00353913
-0.000159122
-0.00515752
0.000145077
0.00269586
0.00138764
0.00320898
0.00101182
-0.00151333
0.00159268
0.00611322
0.0139123
0.00949661
-0.000170616
0.00631748
0.00406934
-0.00467087
-0.00419149
0.000349409
-0.00119114
-0.00675605
-0.000985029
0.00310391
0.00842626
0.0118056
0.000774139
-0.00210971
0.00374306
0.00703342
0.000665413
-0.0123612
-0.00542114
0.00533449
0.00173399
0.00766333
0.0163681
0.0158053
0.00481132
-0.0102208
-0.010892
-0.0012684
-0.0005974
0.000843128
0.00466717
-0.000344286
-0.00125796
0.00546834
-7.47644e-05
-0.00721394
0.000927001
0.0102777
0.0143159
0.0040209
-0.00457796
0.00348423
0.00175152
-0.0040327
-0.00353136
0.00132586
-0.00167069
-0.00895637
-0.00148671
0.0016783
0.0064865
0.00989394
-0.00100817
0.00168576
0.0106637
0.0105104
0.00583751
-0.00470281
0.00376239
0.00864828
-0.00331539
0.00012132
0.00609147
0.00585513
-0.00211604
-0.0131596
-0.00697114
-0.0012827
-0.00738658
-0.00616762
-0.000290358
-0.000532031
0.00211599
0.00954039
0.00304906
-0.00412676
0.00588031
0.0123437
0.00974197
-0.00174062
-0.00413769
0.00658816
0.00409382
-0.00351236
-0.00635997
0.00152592
0.00285882
-0.00401285
0.00243815
0.0054035
0.0109793
0.0133386
0.00119925
0.000852652
0.0040155
0.00741145
0.0136911
-0.00251075
0.00734616
0.0107368
-0.00339728
0.000437208
0.00770022
0.0122084
0.00339091
-0.0122003
-0.00976608
-0.00766422
-0.00840079
-0.00330334
0.00457632
0.00265854
0.00364091
0.0130946
0.00722396
-0.00436497
0.00531365
0.0156817
0.0106507
-0.00127526
-0.000798947
0.00514877
-0.000541136
-0.00774376
-0.00931907
0.00205952
0.00120267
-0.00777175
0.00129935
0.0033812
0.00996634
0.0107128
-0.0034256
-0.0020363
0.00275763
0.0135859
0.00888524
-0.00938361
0.00255977
0.00710345
-0.00345597
-0.000553464
0.00531046
0.0110061
0.00176383
-0.0116298
-0.00733301
-0.00641927
-0.00836125
-0.00541446
0.00257379
-0.00226561
-6.69939e-05
0.0116416
0.00792427
-0.00293086
0.00638994
0.0144744
0.00344069
-0.00795397
-0.00175505
0.00689912
0.000379396
-0.00927898
-0.00931274
0.00513322
0.0015583
-0.00793235
0.000848331
0.000562563
0.00924134
0.010399
-0.00485986
-0.00195284
0.00287508
0.0137275
0.0102617
-0.00758621
0.00357706
0.00769729
-0.00315055
-0.00279337
0.00102948
0.00840804
0.00180513
-0.0069265
-0.00295731
-0.00505789
-0.00839296
-0.00147123
0.00417147
-0.0055978
-0.00151756
0.0164966
0.0101689
-0.0063817
0.00324265
0.0117664
-0.000302721
-0.00769982
0.00149822
0.00936258
-0.00187214
-0.0149832
-0.0121599
0.00693758
0.00343766
-0.00676866
-0.00732744
-0.0101217
0.00416286
0.00585238
-0.00724696
-0.00232971
5.39758e-05
0.0117353
0.0146766
-0.00788363
6.35799e-05
0.0086439
0.000397936
-0.00443012
-0.00316894
0.00740978
0.00317714
-0.00491792
-0.0034634
-0.00550471
-0.00486259
0.00506296
0.00551786
-0.00637061
-0.00392185
0.0137308
0.00562639
-0.00883469
0.00495813
0.0119871
-0.00246077
-0.0071102
0.00441052
0.0103931
-0.00334844
-0.0189878
-0.0151155
0.00663797
0.00384559
-0.00296459
-0.00497449
-0.0103727
0.000936458
0.00171812
-0.00823483
-0.00274184
-0.00122269
0.0141915
0.00927357
-0.0137574
-0.00262168
0.00975137
0.000116846
-0.00623513
-0.00321265
0.00918274
0.00173458
-0.0074177
-0.000166175
0.000191735
0.000386265
0.00818675
0.00443506
-0.00974097
-0.00856311
0.0104784
0.00244853
-0.0102063
0.00528855
0.0102175
-0.00670666
-0.0094148
0.00615602
0.0117832
-0.00533199
-0.0230077
-0.0130439
0.0088154
0.00355052
-0.00273661
-0.00495803
-0.00613229
0.00504138
0.00346319
-0.00806509
-0.00421663
-0.00368971
0.0108937
0.00601144
-0.0185282
-0.00631378
0.00972255
0.000591638
-0.00943925
-0.00570945
0.00694352
-0.000452469
-0.00908534
0.00222069
0.00432689
0.0016148
0.00736012
0.00504865
-0.00888346
-0.0106309
0.00802631
-1.40483e-05
-0.0103407
0.00388938
0.00648375
-0.0101111
-0.00929032
0.00930618
0.0138932
-0.00851391
-0.0259238
-0.0111448
0.00803565
0.00395421
-0.00221253
-0.00806057
-0.00619968
0.0084476
0.0047606
-0.00796862
-0.00528607
-0.00529821
0.00910525
0.00684232
-0.0142112
-0.00329799
0.0131392
0.00475327
-0.0109299
-0.00780658
0.00423854
-0.000381685
-0.00909396
0.0050561
0.00575239
0.000132642
0.00777664
0.00813337
-0.00960721
-0.0145863
0.00716942
-0.000358841
-0.0111279
0.00357615
0.00550608
-0.0104328
-0.00632412
0.0128789
0.0150926
-0.0118437
-0.0273682
-0.0098471
0.00684336
0.00422104
-0.00442041
-0.0113538
-0.00523238
0.0129213
0.00583055
-0.00753255
-0.0051624
-0.00561195
0.00804799
0.00767783
-0.0134472
-0.00247645
0.0146102
0.0044509
-0.0144503
-0.0108126
0.00272083
0.000358989
-0.00778798
0.00481755
0.00194522
-0.00140385
0.00923297
0.00999585
-0.0116869
-0.0202084
0.00427724
-0.000644542
-0.0116212
0.0042789
0.00224069
-0.0135861
-0.00416232
0.0170685
0.016484
-0.0152936
-0.0295565
-0.0107812
0.00623587
0.00704039
-0.00599274
-0.0155104
-0.0060266
0.0147415
0.0059625
-0.00727843
-0.00449538
-0.00718382
0.00588094
0.00943525
-0.0140113
-0.00285196
0.0174323
0.00442177
-0.0171418
-0.00915415
0.00635387
0.000408132
-0.00596545
0.00260504
0.000835637
0.00133061
0.0128532
0.013078
-0.010879
-0.0254942
0.00253906
0.00118045
-0.0115274
0.00351785
-0.00158834
-0.0161756
-0.000528916
0.0232803
0.0191338
-0.0185358
-0.0318403
-0.0132105
0.00415272
0.00884108
-0.00920634
-0.0210692
-0.00772898
0.0152753
0.00644908
-0.00667739
-0.00405779
-0.00874194
0.00487376
0.00979141
-0.0141801
-0.00424041
0.0188896
0.00453865
-0.0191317
-0.00792758
0.00882012
7.27631e-05
-0.00447917
0.00146958
0.000833323
0.00315586
0.0161602
0.0151986
-0.0112215
-0.0300747
-0.000340737
0.000777256
-0.0119386
0.00168756
-0.0069681
-0.0188457
0.00286207
0.028731
0.0223177
-0.0212632
-0.035947
-0.0163471
0.00227272
0.00937453
-0.0111774
-0.0239113
-0.00864339
0.0160343
0.00656608
-0.00743469
-0.00396466
-0.00936805
0.00346241
0.00887354
-0.0150769
-0.00605437
0.0182241
0.00325479
-0.0220057
-0.00878183
0.00952206
0.000642449
-0.0035222
0.000511182
-0.000381616
0.00302663
0.0184098
0.0177033
-0.0136573
-0.0340324
-0.00481842
-0.0017679
-0.0138099
-0.000638365
-0.0116402
-0.019174
0.00336102
0.0299679
0.0262068
-0.0236668
-0.0413398
-0.0225621
0.00265344
0.0127825
-0.01168
-0.0253506
-0.00772737
0.0179095
0.00669386
-0.0107752
-0.00505995
-0.00945366
0.00226377
0.00900054
-0.0153044
-0.00793389
0.0171736
0.00198281
-0.0248397
-0.00992736
0.00809139
0.00110466
-0.00157829
0.00302844
-0.000393601
0.00345711
0.0216019
0.0214372
-0.0140862
-0.0324007
-0.00492128
-0.00138434
-0.0138804
-0.00112085
-0.0127044
-0.0185954
0.00174881
0.0317276
0.029361
-0.0270118
-0.0451431
-0.0274224
0.00189167
0.0160599
-0.0106558
-0.026835
-0.00759193
0.0196029
0.00619803
-0.0141916
-0.00609714
-0.00996368
0.00100382
0.010443
-0.017151
-0.0120237
0.0152328
0.000152963
-0.0258719
-0.010121
0.00458946
0.000439592
-0.000214268
0.00492838
-0.000182227
0.00369887
0.0230545
0.0217026
-0.0156336
-0.0293052
-0.00149243
0.00114398
-0.0139754
-0.000993523
-0.012191
-0.0194748
0.00159453
0.036695
0.0304667
-0.032122
-0.047527
-0.0292181
-0.00233793
0.0169234
-0.0109224
-0.029817
-0.0101438
0.0172661
0.00396038
-0.0154705
-0.00799528
-0.0128931
-0.000540689
0.0105116
-0.0201133
-0.0161523
0.0129554
-0.00151654
-0.0241306
-0.00945702
0.000880514
-0.0015608
-0.000621771
0.00475
0.000512632
0.000850524
0.0224426
0.0212576
-0.018602
-0.029589
0.000953134
0.00136607
-0.015905
0.000380525
-0.01051
-0.0214384
0.00224264
0.0392994
0.0287691
-0.03506
-0.0496747
-0.0321368
-0.00498707
0.0177767
-0.0124705
-0.0350889
-0.014098
0.0156967
0.00132175
-0.0138323
-0.0072227
-0.0153035
-0.00195232
0.00924903
-0.0212881
-0.0183911
0.011451
-0.00270334
-0.0225782
-0.00991803
-0.00175491
-0.00381462
-0.00211101
0.00581738
-0.000355317
-0.00285081
0.0213624
0.0203485
-0.0212305
-0.0313044
0.00180431
-0.00148145
-0.0174686
0.000317129
-0.0121929
-0.0229145
0.00394627
0.0399823
0.025471
-0.0346844
-0.0502144
-0.0339008
-0.00457652
0.018326
-0.0120751
-0.0366605
-0.0118978
0.0168001
-0.00220051
-0.0132378
-0.00537328
-0.0171698
-0.00469136
0.00934225
-0.0209391
-0.0191742
0.0110351
-0.00317001
-0.0216457
-0.0103933
-0.00340865
-0.00487684
-0.00193108
0.00723597
-0.0031979
-0.00454932
0.0206609
0.0188834
-0.0221909
-0.0314004
0.00173432
-0.00427483
-0.0174695
-0.00216493
-0.0159424
-0.0229649
0.00558677
0.0421929
0.0238601
-0.0347356
-0.0489824
-0.0324716
-0.00301599
0.0199465
-0.010542
-0.0359299
-0.00793453
0.0160897
-0.00496472
-0.0147258
-0.00526815
-0.0184819
-0.00688561
0.0100624
-0.0212701
-0.0200336
0.00988722
-0.00388139
-0.0208402
-0.0110101
-0.00509869
-0.00527594
-0.0011963
0.00549612
-0.00549428
-0.00617476
0.0194357
0.0173351
-0.0228387
-0.0310305
0.00124507
-0.00513962
-0.0180562
-0.00466236
-0.0177665
-0.0230897
0.00513815
0.0423421
0.0229682
-0.0358225
-0.0490283
-0.0324119
-0.0017742
0.0209721
-0.0101277
-0.0365453
-0.00990306
0.0143569
-0.00590937
-0.0158677
-0.00623325
-0.0195797
-0.00778944
0.0107561
-0.0209635
-0.0200745
0.00920585
-0.00327664
-0.0191822
-0.0111681
-0.00592746
-0.00458194
-0.000409835
0.00432851
-0.00581983
-0.00659939
0.0189438
0.0167565
-0.0229604
-0.0301344
0.00252766
-0.00409596
-0.0182911
-0.00516355
-0.0172103
-0.0216019
0.00585666
0.0403567
0.023081
-0.0354304
-0.0484539
-0.0329166
-0.0012097
0.0210124
-0.0100411
-0.0364176
-0.0113113
0.0146513
-0.00526213
-0.0156332
-0.0059027
-0.0192195
-0.00748029
0.0103601
-0.0214524
-0.0210349
0.00813199
-0.00293829
-0.0191194
-0.0122301
-0.00698393
-0.00519988
-0.00121688
0.00373604
-0.00730035
-0.00787352
0.0174127
0.0152842
-0.0240396
-0.0302232
0.0030509
-0.00433066
-0.0191246
-0.00582461
-0.0175575
-0.0224337
0.00572345
0.0392985
0.0227385
-0.0354823
-0.0486519
-0.0341982
-0.00222442
0.0199714
-0.0107144
-0.0365332
-0.0118101
0.0140492
-0.00565376
-0.0161754
-0.00616869
-0.0195774
-0.00805599
0.0114257
-0.0206092
-0.0203024
0.00911171
-0.0014555
-0.0179625
-0.0116034
-0.00608578
-0.00408293
-0.000333929
0.00422047
-0.00756049
-0.00795822
0.017755
0.0157358
-0.0235508
-0.0291123
0.00432453
-0.00329211
-0.0180301
-0.00475895
-0.0168072
-0.0227784
0.00618407
0.0411518
0.0232203
-0.0343739
-0.047528
-0.0331297
-0.00144008
0.0203059
-0.00963828
-0.0349432
-0.0109348
0.0147267
-0.00440476
-0.0150938
-0.00520494
-0.0185893
-0.0072648
0.0105968
-0.0214964
-0.0212861
0.00801437
-0.00264889
-0.0191492
-0.0128409
-0.00753356
-0.00546299
-0.00156945
0.00295029
-0.00914296
-0.0095124
0.0164255
0.014298
-0.0247195
-0.0300552
0.00346265
-0.00400579
-0.018781
-0.00562485
-0.0177555
-0.0242083
0.00531628
0.0396383
0.0210075
-0.0354737
-0.0480063
-0.0339727
-0.00275968
0.0186411
-0.0106747
-0.0356172
-0.0120334
0.0135639
-0.00541496
-0.0161911
-0.0063055
-0.0196282
-0.0082374
0.0174415
-0.0147341
-0.0146702
0.0145042
0.00390568
-0.0123747
-0.0060152
-0.000874453
0.00126305
0.00526715
0.00980653
-0.00245966
-0.00266176
0.0232937
0.0209078
-0.0180253
-0.0230428
0.0107345
0.0030892
-0.0118594
0.00124524
-0.0105846
-0.0176994
0.0115848
0.0455581
0.0273764
-0.0284506
-0.0410175
-0.0270945
0.00384985
0.0252712
-0.00350791
-0.0283581
-0.00521512
0.020231
0.00130652
-0.00942848
0.00045792
-0.0127602
-0.00141195
0.00665228
0.00281929
-0.00169722
0.0086541
0.00070832
-0.00368422
0.00762837
0.00564545
0.00602737
0.00584923
0.00424419
0.00545563
0.000766904
0.00479775
0.00251636
0.000238025
0.00491696
-0.00161084
0.00151672
0.00621683
4.36066e-05
0.00273471
0.00738586
0.00333302
0.00500832
0.00755773
0.00312406
0.00703779
0.00351248
-0.00363571
0.00600958
0.00527881
0.00140794
0.00630889
0.00599737
0.00517945
0.00418282
0.0053112
0.00260613
-0.0016078
0.00579503
-0.0011979
-0.000504986
0.0065879
-0.00299345
-0.0038727
0.00397101
0.000649149
0.00193814
0.00372588
0.00226855
0.00504012
0.00410959
0.00577111
0.00396569
0.00188771
0.00506665
-5.69098e-05
0.00270725
0.00843981
0.00278008
0.00311334
0.00745149
0.00389747
0.0012985