/*--------------------------------*- C++ -*----------------------------------*\
  =========                 |
  \\      /  F ield         | OpenFOAM: The Open Source CFD Toolbox
   \\    /   O peration     | Website:  https://openfoam.org
    \\  /    A nd           | Version:  10
     \\/     M anipulation  |
\*---------------------------------------------------------------------------*/
FoamFile
{
    format      ascii;
    class       volTensorField;
    location    "17";
    object      TauNN;
}
// * * * * * * * * * * * * * * * * * * * * * * * * * * * * * * * * * * * * * //

dimensions      [0 2 -2 0 0 0 0];

internalField   nonuniform List<tensor> 
25600
(
(0.00108278 0.000279491 0.000588195 0.000279491 0.000355681 -1.14646e-06 0.000588195 -1.14646e-06 0.00162118)
(0.000943122 0.00019386 0.00061186 0.00019386 0.000267348 3.54834e-07 0.00061186 3.54834e-07 0.00104308)
(0.000594855 4.13153e-05 0.000389431 4.13153e-05 0.000164856 -7.23125e-05 0.000389431 -7.23125e-05 0.000407903)
(0.000386611 -1.03768e-05 0.000221414 -1.03768e-05 0.000208514 -0.000108485 0.000221414 -0.000108485 0.000106981)
(0.000334086 7.02012e-05 0.000163876 7.02012e-05 0.000220686 -0.000100756 0.000163876 -0.000100756 6.66024e-05)
(0.000312048 0.000104225 0.000118063 0.000104225 0.000170095 -7.8626e-05 0.000118063 -7.8626e-05 0.000103113)
(0.000256751 6.90864e-05 0.000107164 6.90864e-05 0.000146646 -1.3466e-05 0.000107164 -1.3466e-05 0.000111003)
(0.000187695 2.42172e-05 0.000109843 2.42172e-05 0.000161181 2.01939e-05 0.000109843 2.01939e-05 6.63706e-05)
(0.000145947 1.41999e-05 9.55649e-05 1.41999e-05 0.000147699 -4.99003e-06 9.55649e-05 -4.99003e-06 4.10171e-05)
(0.000157992 1.47047e-05 0.000110443 1.47047e-05 0.000135005 -2.56859e-06 0.000110443 -2.56859e-06 3.48742e-05)
(0.000272935 4.81904e-05 0.000176202 4.81904e-05 0.000155153 -7.30995e-06 0.000176202 -7.30995e-06 0.00017948)
(0.000447353 0.000119797 0.000267297 0.000119797 0.000183886 5.29271e-06 0.000267297 5.29271e-06 0.000602805)
(0.000524487 0.000173653 0.000280693 0.000173653 0.000215128 5.42365e-05 0.000280693 5.42365e-05 0.000860463)
(0.000418434 0.00013588 0.000151985 0.00013588 0.000222629 7.33882e-06 0.000151985 7.33882e-06 0.000446851)
(0.000235337 5.06938e-05 9.42815e-05 5.06938e-05 0.000203496 -4.01028e-06 9.42815e-05 -4.01028e-06 4.44274e-05)
(0.000137324 5.23869e-06 9.39807e-05 5.23869e-06 0.000210437 9.70159e-06 9.39807e-05 9.70159e-06 1.5927e-05)
(0.000111348 8.10623e-06 6.90771e-05 8.10623e-06 0.000202682 1.12401e-05 6.90771e-05 1.12401e-05 4.49665e-05)
(0.000130807 4.51664e-05 5.77942e-05 4.51664e-05 0.000146794 -5.59818e-06 5.77942e-05 -5.59818e-06 -1.74844e-05)
(0.00022876 8.71588e-05 0.00013003 8.71588e-05 0.000126173 -7.81752e-06 0.00013003 -7.81752e-06 3.73914e-05)
(0.000317965 9.95183e-05 0.000231154 9.95183e-05 0.000102054 -6.50622e-06 0.000231154 -6.50622e-06 0.000170731)
(0.000278237 9.84482e-05 0.00019897 9.84482e-05 9.22528e-05 -3.76347e-06 0.00019897 -3.76347e-06 0.000147877)
(0.000176278 6.98334e-05 0.000118665 6.98334e-05 0.000110834 8.41916e-06 0.000118665 8.41916e-06 2.92937e-05)
(0.000129146 2.75811e-05 0.000109211 2.75811e-05 0.000139521 1.68765e-05 0.000109211 1.68765e-05 -1.31509e-05)
(0.000162267 -4.14439e-07 0.000109024 -4.14439e-07 0.00024391 2.43876e-05 0.000109024 2.43876e-05 4.99447e-05)
(0.000268972 1.50129e-06 0.00016283 1.50129e-06 0.000422176 0.000111208 0.00016283 0.000111208 0.000219257)
(0.000459545 9.43365e-05 0.000296323 9.43365e-05 0.000518321 0.000252198 0.000296323 0.000252198 0.000564488)
(0.000626968 0.000184925 0.000365231 0.000184925 0.000409101 0.000254079 0.000365231 0.000254079 0.000935239)
(0.000635127 0.00023032 0.000273075 0.00023032 0.000278753 6.81607e-05 0.000273075 6.81607e-05 0.00096586)
(0.000538815 0.000168119 0.000150931 0.000168119 0.000276034 -0.000131131 0.000150931 -0.000131131 0.000649662)
(0.000409149 8.9163e-05 0.000121098 8.9163e-05 0.000285434 -0.000149417 0.000121098 -0.000149417 0.000296689)
(0.000329922 4.50108e-05 0.000129242 4.50108e-05 0.00023642 -7.71238e-05 0.000129242 -7.71238e-05 0.000197747)
(0.00029892 2.77525e-05 0.000145244 2.77525e-05 0.000242078 3.72529e-06 0.000145244 3.72529e-06 0.000168536)
(0.000298947 8.29948e-05 0.000131262 8.29948e-05 0.000318904 2.00206e-05 0.000131262 2.00206e-05 0.000112695)
(0.000250739 0.00012484 6.2393e-05 0.00012484 0.00027333 -2.55639e-05 6.2393e-05 -2.55639e-05 3.74257e-05)
(0.00011757 1.14832e-05 3.86368e-05 1.14832e-05 0.000149143 9.31323e-10 3.86368e-05 9.31323e-10 1.38131e-05)
(0.000191211 -6.98632e-05 0.0001309 -6.98632e-05 0.000330617 9.86364e-05 0.0001309 9.86364e-05 6.17394e-05)
(0.000364486 2.1412e-05 0.000146632 2.1412e-05 0.000582952 -6.65803e-06 0.000146632 -6.65803e-06 5.96515e-05)
(0.000579856 0.000120632 -1.60551e-05 0.000120632 0.00058965 -0.000269891 -1.60551e-05 -0.000269891 0.000294046)
(0.000812952 0.000204585 -4.63324e-05 0.000204585 0.000464985 -0.000355153 -4.63324e-05 -0.000355153 0.00100096)
(0.000979979 0.000258381 0.000298899 0.000258381 0.000371313 -0.000142722 0.000298899 -0.000142722 0.00157749)
(0.0023158 0.00049798 0.000799017 0.00049798 0.000743558 0.00016355 0.000799017 0.00016355 0.00465918)
(0.00141875 0.000336872 0.000534263 0.000336872 0.000429599 -0.000148945 0.000534263 -0.000148945 0.00237445)
(0.000686476 0.00011944 0.000164012 0.00011944 0.000425248 -0.000327287 0.000164012 -0.000327287 0.000577699)
(0.000474821 4.55379e-05 0.000130302 4.55379e-05 0.000624277 -0.0002141 0.000130302 -0.0002141 0.000126576)
(0.00040432 4.8019e-05 0.000125307 4.8019e-05 0.000485193 -0.000167158 0.000125307 -0.000167158 7.80212e-05)
(0.000408153 6.62766e-05 0.000152017 6.62766e-05 0.000244137 -0.000137538 0.000152017 -0.000137538 0.000248421)
(0.000512584 0.00016195 0.000291163 0.00016195 0.000174831 -1.29156e-05 0.000291163 -1.29156e-05 0.000670331)
(0.000580163 0.000200341 0.000361443 0.000200341 0.000184527 6.95093e-05 0.000361443 6.95093e-05 0.000995483)
(0.000600455 0.000213167 0.000296589 0.000213167 0.000191031 3.32044e-05 0.000296589 3.32044e-05 0.00106494)
(0.000594563 0.000219165 0.000215277 0.000219165 0.000205588 -4.80385e-05 0.000215277 -4.80385e-05 0.000930523)
(0.000521608 0.000142246 0.000137444 0.000142246 0.000248061 -0.000133487 0.000137444 -0.000133487 0.000613196)
(0.000460725 5.43678e-05 0.000102081 5.43678e-05 0.00029185 -0.000120586 0.000102081 -0.000120586 0.000292535)
(0.000333088 2.28472e-05 9.5428e-05 2.28472e-05 0.000287246 -4.91254e-05 9.5428e-05 -4.91254e-05 8.45825e-05)
(0.000212139 2.73678e-05 8.57897e-05 2.73678e-05 0.000274319 -2.47611e-05 8.57897e-05 -2.47611e-05 3.79415e-05)
(0.000177032 5.83418e-05 8.05343e-05 5.83418e-05 0.000233646 -1.90781e-05 8.05343e-05 -1.90781e-05 -4.15057e-06)
(0.000322633 0.000124387 0.000111319 0.000124387 0.000266791 2.20733e-05 0.000111319 2.20733e-05 0.000101486)
(0.000462247 0.000152333 0.000202624 0.000152333 0.000255681 7.97212e-06 0.000202624 7.97212e-06 0.000352192)
(0.000486892 0.000158791 0.000248715 0.000158791 0.000198283 -1.81906e-05 0.000248715 -1.81906e-05 0.000530241)
(0.000309815 0.000102411 0.000154435 0.000102411 0.000143431 -2.22428e-05 0.000154435 -2.22428e-05 0.000219795)
(0.000156639 -1.26846e-06 0.000118457 -1.26846e-06 0.00013116 -5.14276e-06 0.000118457 -5.14276e-06 -2.65506e-05)
(0.000183487 -0.000124041 5.56633e-05 -0.000124041 0.000267292 0.000205233 5.56633e-05 0.000205233 0.000317935)
(0.000455742 -0.000263171 -0.000155034 -0.000263171 0.000629568 0.000603286 -0.000155034 0.000603286 0.00110734)
(0.000539032 -0.000245412 -0.000225986 -0.000245412 0.000463856 0.000592037 -0.000225986 0.000592037 0.00133453)
(0.000326613 -3.72157e-05 -0.000100761 -3.72157e-05 7.71668e-05 8.24435e-05 -0.000100761 8.24435e-05 0.000848671)
(0.000130758 4.35999e-05 -2.83206e-05 4.35999e-05 0.000245892 -0.00014086 -2.83206e-05 -0.00014086 0.000207366)
(0.000238984 -1.34092e-05 0.000158467 -1.34092e-05 0.000438713 0.000184653 0.000158467 0.000184653 0.000184674)
(0.000661487 0.000133925 0.00010114 0.000133925 0.00032319 0.000170797 0.00010114 0.000170797 0.00119506)
(0.00105208 0.000369211 -7.43363e-05 0.000369211 0.000370544 -0.000106025 -7.43363e-05 -0.000106025 0.00188494)
(0.00109296 0.000377634 -1.70227e-05 0.000377634 0.000509886 -0.000190798 -1.70227e-05 -0.000190798 0.00167214)
(0.000939588 0.000291766 0.000158059 0.000291766 0.000555134 -0.000135388 0.000158059 -0.000135388 0.00116806)
(0.000678359 0.000309275 0.000275338 0.000309275 0.000536766 6.27441e-05 0.000275338 6.27441e-05 0.000651898)
(0.000365917 0.000304895 0.000161834 0.000304895 0.000662433 0.00014052 0.000161834 0.00014052 0.000200853)
(0.00014843 0.00013415 1.87512e-05 0.00013415 0.000648721 -4.19775e-05 1.87512e-05 -4.19775e-05 5.58489e-05)
(0.00014121 -8.83164e-05 9.55975e-05 -8.83164e-05 0.000468967 -0.000121799 9.55975e-05 -0.000121799 0.000102992)
(0.000287527 -8.49478e-05 0.000133984 -8.49478e-05 0.000239894 9.5889e-06 0.000133984 9.5889e-06 5.84196e-05)
(0.000507783 0.000148352 -9.58517e-06 0.000148352 0.000335395 -0.000112976 -9.58517e-06 -0.000112976 0.000335312)
(0.000780901 0.000270978 -6.52038e-05 0.000270978 0.00054509 -0.000309613 -6.52038e-05 -0.000309613 0.000844215)
(0.00123483 0.000394319 0.000151502 0.000394319 0.000641082 -0.000276045 0.000151502 -0.000276045 0.00194433)
(0.00204736 0.000592039 0.000658685 0.000592039 0.000756429 2.77478e-05 0.000658685 2.77478e-05 0.00368473)
(0.00254673 0.000606281 0.000844572 0.000606281 0.000883042 0.000262101 0.000844572 0.000262101 0.0049978)
(0.000974727 0.000346793 0.000170444 0.000346793 0.000531697 4.0669e-05 0.000170444 4.0669e-05 0.00168367)
(0.000886126 0.000291578 0.000155693 0.000291578 0.000391654 -2.12993e-06 0.000155693 -2.12993e-06 0.00136071)
(0.000663079 0.000195144 0.00018841 0.000195144 0.000307378 -5.66859e-05 0.00018841 -5.66859e-05 0.000852729)
(0.000482423 6.33281e-05 0.000206826 6.33281e-05 0.000273205 -0.000126466 0.000206826 -0.000126466 0.000399914)
(0.000416606 -8.00872e-05 0.000224218 -8.00872e-05 0.000274742 -0.000138851 0.000224218 -0.000138851 0.000156264)
(0.000378222 -0.000176365 0.000165017 -0.000176365 0.000326922 -3.28869e-05 0.000165017 -3.28869e-05 6.89139e-05)
(0.000340661 -8.58214e-05 0.000164944 -8.58214e-05 0.000305709 2.85245e-05 0.000164944 2.85245e-05 0.000106321)
(0.000255826 3.3156e-05 0.000138952 3.3156e-05 0.000165736 -8.34092e-06 0.000138952 -8.34092e-06 9.87613e-05)
(0.000320239 7.4856e-05 9.77004e-05 7.4856e-05 0.000236822 5.83138e-05 9.77004e-05 5.83138e-05 0.000291229)
(0.000457315 0.000137566 0.000100597 0.000137566 0.000297188 8.04896e-05 0.000100597 8.04896e-05 0.000514132)
(0.000506661 0.000151859 0.000162822 0.000151859 0.000275383 -4.90211e-05 0.000162822 -4.90211e-05 0.000510339)
(0.000500786 6.63074e-05 0.000248905 6.63074e-05 0.000281761 -0.000115776 0.000248905 -0.000115776 0.000426739)
(0.000423473 1.03889e-05 0.000213122 1.03889e-05 0.000276582 -7.21086e-05 0.000213122 -7.21086e-05 0.000208448)
(0.000237731 -8.59704e-06 9.97614e-05 -8.59704e-06 0.000231358 -1.83387e-05 9.97614e-05 -1.83387e-05 -3.38785e-06)
(0.00010879 -3.39746e-06 6.58864e-05 -3.39746e-06 0.000170568 2.96887e-05 6.58864e-05 2.96887e-05 9.72511e-06)
(0.000208554 -4.68921e-06 0.00012505 -4.68921e-06 0.00023852 0.000143016 0.00012505 0.000143016 0.000313137)
(0.000237023 -1.63e-05 9.94103e-05 -1.63e-05 0.000255005 0.000131238 9.94103e-05 0.000131238 0.000348205)
(0.000197061 -7.27437e-05 9.4478e-05 -7.27437e-05 0.000230716 4.41186e-05 9.4478e-05 4.41186e-05 0.000161116)
(0.000181258 -7.57482e-05 0.000118141 -7.57482e-05 0.000196478 1.46031e-05 0.000118141 1.46031e-05 1.07197e-05)
(0.0001495 -2.38167e-05 0.000127884 -2.38167e-05 0.000174004 4.20641e-05 0.000127884 4.20641e-05 3.86123e-05)
(0.000239708 -7.41333e-06 0.000196081 -7.41333e-06 0.000217703 9.98592e-05 0.000196081 9.98592e-05 0.000270076)
(0.0002012 -5.08381e-05 9.85395e-05 -5.08381e-05 0.000177888 5.43287e-05 9.85395e-05 5.43287e-05 0.000299205)
(0.000380397 -2.50237e-05 -0.000159214 -2.50237e-05 0.000145902 4.22541e-06 -0.000159214 4.22541e-06 0.000389971)
(0.000613771 -7.62558e-05 -0.000318549 -7.62558e-05 0.000133033 0.000119319 -0.000318549 0.000119319 0.000513818)
(0.000284124 -0.000106681 -1.5879e-06 -0.000106681 0.000210331 0.000204341 -1.5879e-06 0.000204341 0.000173911)
(0.000382073 0.000303023 0.000118763 0.000303023 0.000387801 -0.000127492 0.000118763 -0.000127492 6.64611e-05)
(0.00100073 0.000472138 -0.000378433 0.000472138 0.000377927 -0.000314324 -0.000378433 -0.000314324 0.00106646)
(0.00109997 0.000412617 -0.000218069 0.000412617 0.000411902 -0.000164076 -0.000218069 -0.000164076 0.00162)
(0.000940054 0.00035299 0.000109716 0.00035299 0.000475019 -0.000153352 0.000109716 -0.000153352 0.00128733)
(0.000927147 8.44058e-05 0.000228398 8.44058e-05 0.000657481 -0.000310006 0.000228398 -0.000310006 0.000878149)
(0.000764951 -0.00018927 0.000265047 -0.00018927 0.000585599 -0.000275301 0.000265047 -0.000275301 0.000355396)
(0.000372423 -0.000117313 0.00013351 -0.000117313 0.000255355 -7.83e-05 0.00013351 -7.83e-05 2.91689e-05)
(0.000163517 6.53928e-05 -5.2481e-05 6.53928e-05 0.000134982 -5.9125e-05 -5.2481e-05 -5.9125e-05 0.0001428)
(7.35664e-06 -1.12131e-05 -8.40984e-07 -1.12131e-05 0.000359971 -0.000172296 -8.40984e-07 -0.000172296 0.000173524)
(0.000198673 -0.000165977 8.87271e-05 -0.000165977 0.000429501 -8.32509e-06 8.87271e-05 -8.32509e-06 2.83239e-05)
(0.000450372 -2.57548e-05 5.92107e-05 -2.57548e-05 0.000299956 5.5328e-05 5.92107e-05 5.5328e-05 0.000183988)
(0.000610904 0.000189131 0.000157455 0.000189131 0.000424458 0.000118124 0.000157455 0.000118124 0.000745943)
(0.000960258 0.00045977 0.000423547 0.00045977 0.000653008 0.000286334 0.000423547 0.000286334 0.00150678)
(0.00112926 0.000524678 0.000508033 0.000524678 0.000770175 0.000344017 0.000508033 0.000344017 0.00184101)
(0.00113284 0.000462192 0.000378476 0.000462192 0.000735378 0.000250212 0.000378476 0.000250212 0.00208945)
(0.000830331 0.000346447 0.000308368 0.000346447 0.000489087 0.000212878 0.000308368 0.000212878 0.00113414)
(0.000837709 0.000340277 0.000254201 0.000340277 0.000398316 0.000175687 0.000254201 0.000175687 0.0012355)
(0.000765581 0.000225018 -1.54069e-05 0.000225018 0.000444343 -0.000369332 -1.54069e-05 -0.000369332 0.000907707)
(0.000751294 0.000196442 1.56621e-05 0.000196442 0.000937425 -0.000666756 1.56621e-05 -0.000666756 0.000730411)
(0.000646989 8.77855e-05 0.000141273 8.77855e-05 0.000940534 -0.000595794 0.000141273 -0.000595794 0.000575787)
(0.000690726 -6.56033e-05 0.000179045 -6.56033e-05 0.000594464 -0.000405481 0.000179045 -0.000405481 0.000539801)
(0.000895133 -2.3121e-05 0.000378756 -2.3121e-05 0.000415421 -0.000182467 0.000378756 -0.000182467 0.000765557)
(0.000853185 0.00012794 0.000408122 0.00012794 0.000336678 -2.22912e-05 0.000408122 -2.22912e-05 0.000647037)
(0.00036674 8.8674e-05 0.000129445 8.8674e-05 0.000221794 -5.77029e-05 0.000129445 -5.77029e-05 0.000113294)
(0.000307416 0.000162844 0.000155915 0.000162844 0.000369689 8.49552e-06 0.000155915 8.49552e-06 3.8209e-05)
(0.000269883 8.88854e-05 0.00016046 8.88854e-05 0.000241843 -5.57592e-05 0.00016046 -5.57592e-05 0.000127086)
(0.000391235 0.000140651 0.000174231 0.000140651 0.00049893 3.5014e-05 0.000174231 3.5014e-05 0.000326827)
(0.000508066 0.000234175 0.000258008 0.000234175 0.000423119 0.000116243 0.000258008 0.000116243 0.000440799)
(0.000313085 -8.51229e-07 0.000126818 -8.51229e-07 0.000266442 -9.42592e-05 0.000126818 -9.42592e-05 5.1514e-05)
(0.000333873 -1.2001e-05 0.000176383 -1.2001e-05 0.000725374 0.000109117 0.000176383 0.000109117 0.000111695)
(0.00052063 5.60842e-05 0.000191588 5.60842e-05 0.000913543 0.000504518 0.000191588 0.000504518 0.000617656)
(0.00048441 -0.000115334 0.000107368 -0.000115334 0.000346111 0.000395196 0.000107368 0.000395196 0.000867876)
(0.000394979 -0.000190854 -2.07424e-05 -0.000190854 0.000274988 0.00036985 -2.07424e-05 0.00036985 0.00101351)
(0.000425464 -0.000217666 -0.000112901 -0.000217666 0.000702261 0.000615835 -0.000112901 0.000615835 0.00103647)
(0.000428855 -0.000176395 -0.000104195 -0.000176395 0.0011009 0.000598814 -0.000104195 0.000598814 0.000725891)
(0.000291135 -0.000165218 5.46975e-05 -0.000165218 0.000307083 0.000158613 5.46975e-05 0.000158613 0.000297747)
(0.000434359 8.35126e-05 0.00017397 8.35126e-05 0.000306245 0.000129972 0.00017397 0.000129972 0.000401604)
(0.00041427 8.87746e-05 0.000234345 8.87746e-05 0.000395704 0.000240015 0.000234345 0.000240015 0.000474484)
(0.00027841 4.41382e-05 0.000201913 4.41382e-05 0.000176961 1.86814e-05 0.000201913 1.86814e-05 9.97188e-05)
(0.000597121 0.000230758 0.000133241 0.000230758 0.00142558 -0.000266648 0.000133241 -0.000266648 0.000252037)
(0.0014774 0.000131901 -0.000321105 0.000131901 0.0013238 -0.000991951 -0.000321105 -0.000991951 0.00167358)
(0.00222483 0.000378186 -0.000384032 0.000378186 0.00104242 -0.000528884 -0.000384032 -0.000528884 0.00409011)
(0.00162081 0.000514925 -0.000390799 0.000514925 0.000853659 -0.000464228 -0.000390799 -0.000464228 0.00257177)
(0.000698853 0.000223048 3.30154e-05 0.000223048 0.000786663 -0.000323944 3.30154e-05 -0.000323944 0.000465356)
(0.000271622 -7.0869e-05 0.000111236 -7.0869e-05 0.00131913 0.000128144 0.000111236 0.000128144 0.00028331)
(0.000359857 -0.000378196 0.00018556 -0.000378196 0.000820869 -0.000210445 0.00018556 -0.000210445 0.00019077)
(0.00110356 -0.000276987 0.000737641 -0.000276987 0.000423023 -0.000331164 0.000737641 -0.000331164 0.000836654)
(0.00160364 -0.000121043 0.000826418 -0.000121043 0.00050683 -0.000470246 0.000826418 -0.000470246 0.00153926)
(0.00119831 0.000238678 0.000129111 0.000238678 0.000673643 -0.000645373 0.000129111 -0.000645373 0.00133375)
(0.00104266 0.000572511 -0.000393185 0.000572511 0.000738494 -0.00058154 -0.000393185 -0.00058154 0.00105245)
(0.000905205 0.00031789 -0.000274889 0.00031789 0.00035082 -0.000140216 -0.000274889 -0.000140216 0.00120418)
(0.0011113 0.000370562 0.000343673 0.000370562 0.000789521 0.000528168 0.000343673 0.000528168 0.00206391)
(0.00136012 0.000585347 0.000580957 0.000585347 0.000690543 0.000366715 0.000580957 0.000366715 0.00233222)
(0.00123613 0.00043078 0.000444397 0.00043078 0.000510341 -3.31281e-05 0.000444397 -3.31281e-05 0.00189746)
(0.000911115 0.000270607 0.000312146 0.000270607 0.000422229 -2.79145e-05 0.000312146 -2.79145e-05 0.00128416)
(0.00158902 0.000700274 0.000774411 0.000700274 0.00107875 0.00074018 0.000774411 0.00074018 0.0027403)
(0.00110936 0.000429085 -0.000347542 0.000429085 0.00050692 -2.91197e-05 -0.000347542 -2.91197e-05 0.00184172)
(0.00118914 0.000533765 -0.000470703 0.000533765 0.00091845 -0.000506897 -0.000470703 -0.000506897 0.00108175)
(0.000964225 0.000191705 -0.000137726 0.000191705 0.000887452 -0.000528036 -0.000137726 -0.000528036 0.00089199)
(0.00135614 0.000109807 0.000519687 0.000109807 0.000607427 -0.000252631 0.000519687 -0.000252631 0.00186441)
(0.00212313 0.000289022 0.00115811 0.000289022 0.000597071 1.74986e-05 0.00115811 1.74986e-05 0.00294014)
(0.00169902 0.000244072 0.000962095 0.000244072 0.000488767 -4.75906e-06 0.000962095 -4.75906e-06 0.00201116)
(0.000610513 -1.94032e-05 0.000129847 -1.94032e-05 0.000573406 -0.000202896 0.000129847 -0.000202896 0.000310797)
(0.000760697 0.000343324 0.000221672 0.000343324 0.0016904 0.000360308 0.000221672 0.000360308 0.000324707)
(0.000540186 9.95714e-05 0.000191385 9.95714e-05 0.00102611 0.000201413 0.000191385 0.000201413 0.000228902)
(0.000955646 0.000369393 0.000583766 0.000369393 0.000680473 0.000256456 0.000583766 0.000256456 0.000974802)
(0.0014151 0.000716425 0.000931237 0.000716425 0.000830123 0.000561173 0.000931237 0.000561173 0.0018944)
(0.000441303 0.000117151 0.000140211 0.000117151 0.000367714 -0.000129597 0.000140211 -0.000129597 0.0001565)
(0.000899488 0.000649082 0.000387017 0.000649082 0.00192208 0.000664563 0.000387017 0.000664563 0.000852778)
(0.000602287 0.000235578 0.000172764 0.000235578 0.00182511 0.00068608 0.000172764 0.00068608 0.000828961)
(0.000431429 -0.000173867 9.67085e-06 -0.000173867 0.000719247 0.000458424 9.67085e-06 0.000458424 0.000695744)
(0.000535596 -0.000200637 -0.000360713 -0.000200637 0.000194278 0.000301812 -0.000360713 0.000301812 0.00153598)
(0.0006476 -0.000278207 -8.48295e-05 -0.000278207 0.000283476 0.000189348 -8.48295e-05 0.000189348 0.00246624)
(0.000530553 -6.14068e-05 0.000217633 -6.14068e-05 0.000435036 0.000361634 0.000217633 0.000361634 0.00104576)
(0.000486397 -5.54081e-05 0.000237629 -5.54081e-05 0.00066895 -0.000240779 0.000237629 -0.000240779 0.000276332)
(0.00129433 -0.000130404 0.000553394 -0.000130404 0.00082266 -0.000456555 0.000553394 -0.000456555 0.00121011)
(0.000994545 -0.000108153 0.000417447 -0.000108153 0.000649678 -0.000211562 0.000417447 -0.000211562 0.000629022)
(0.000333636 -1.92281e-05 0.000122176 -1.92281e-05 0.000326279 -4.41642e-05 0.000122176 -4.41642e-05 7.07219e-05)
(0.000331488 0.000175774 -7.55116e-06 0.000175774 0.000224256 -1.42669e-05 -7.55116e-06 -1.42669e-05 0.000290302)
(0.00102694 0.000337185 0.000243945 0.000337185 0.000894344 0.000688703 0.000243945 0.000688703 0.00242518)
(0.00208734 0.000652858 -3.54396e-05 0.000652858 0.00242977 0.00171806 -3.54396e-05 0.00171806 0.00580056)
(0.00200273 0.000613471 -7.77878e-05 0.000613471 0.00166151 0.00114541 -7.77878e-05 0.00114541 0.00509232)
(0.00136099 0.000579529 -0.000392378 0.000579529 0.000690076 -0.000296677 -0.000392378 -0.000296677 0.00201469)
(0.000964897 0.000472112 9.74722e-06 0.000472112 0.0023065 -0.000483034 9.74722e-06 -0.000483034 0.000839964)
(0.000748451 -0.000431804 0.000220785 -0.000431804 0.00362663 -0.00026445 0.000220785 -0.00026445 0.000670322)
(0.000831714 -0.000884542 0.000392824 -0.000884542 0.00162399 -0.000539646 0.000392824 -0.000539646 0.000378669)
(0.000664991 -0.000507248 0.000256188 -0.000507248 0.000728828 -0.000231385 0.000256188 -0.000231385 0.000115392)
(0.000605981 -0.000244742 0.000162695 -0.000244742 0.00104929 -0.00015063 0.000162695 -0.00015063 9.00765e-05)
(0.000716552 2.54838e-05 0.00017236 2.54838e-05 0.00172376 -0.000213695 0.00017236 -0.000213695 0.000221427)
(0.000753566 4.93499e-05 3.55588e-05 4.93499e-05 0.00103875 -0.000535128 3.55588e-05 -0.000535128 0.000478504)
(0.00086844 0.000260942 0.000349777 0.000260942 0.000329415 7.73417e-05 0.000349777 7.73417e-05 0.00151503)
(0.000813591 0.000291488 0.000313783 0.000291488 0.00102943 0.000655816 0.000313783 0.000655816 0.00132413)
(0.000829492 0.000137188 0.000174304 0.000137188 0.00143614 0.000618909 0.000174304 0.000618909 0.000849239)
(0.00100414 0.000596647 0.000526398 0.000596647 0.0019019 0.000815765 0.000526398 0.000815765 0.00131767)
(0.00168565 0.00108402 0.0010047 0.00108402 0.00188906 0.000949677 0.0010047 0.000949677 0.00217175)
(0.000691963 0.000605943 0.00026354 0.000605943 0.00282105 5.90179e-06 0.00026354 5.90179e-06 0.000544196)
(0.00091826 0.000572562 -3.34438e-06 0.000572562 0.00145077 -0.000211336 -3.34438e-06 -0.000211336 0.000422485)
(0.000753219 0.000150476 -8.81916e-05 0.000150476 0.000614042 0.000141468 -8.81916e-05 0.000141468 0.0006694)
(0.00144933 0.000656776 0.000427371 0.000656776 0.00155909 0.000940376 0.000427371 0.000940376 0.00269528)
(0.00152752 0.000553822 0.000628855 0.000553822 0.000676808 0.000255929 0.000628855 0.000255929 0.00282564)
(0.000784173 -0.000334384 0.00036251 -0.000334384 0.0012048 -0.000772601 0.00036251 -0.000772601 0.000814291)
(0.000322333 -0.000306325 0.000367777 -0.000306325 0.00282724 -0.0005214 0.000367777 -0.0005214 0.000719245)
(0.000599471 -0.000195913 0.000206796 -0.000195913 0.00391637 0.000260271 0.000206796 0.000260271 0.000957926)
(0.000646924 -0.000148963 0.000205562 -0.000148963 0.00283351 0.000307876 0.000205562 0.000307876 0.000410215)
(0.000630322 -0.000229727 0.000268009 -0.000229727 0.000515575 -0.000181527 0.000268009 -0.000181527 0.00024235)
(0.000910057 -0.000124689 0.000550369 -0.000124689 0.000375736 -0.000292894 0.000550369 -0.000292894 0.000914813)
(0.000825429 0.000224384 0.000266014 0.000224384 0.00219793 -8.74456e-05 0.000266014 -8.74456e-05 0.000408898)
(0.00269821 0.000855536 0.000335906 0.000855536 0.00403591 0.00197555 0.000335906 0.00197555 0.00268661)
(0.0013473 -0.00017708 -3.40138e-05 -0.00017708 0.00150734 0.00132783 -3.40138e-05 0.00132783 0.00280433)
(0.000373411 -0.000229766 -0.000217011 -0.000229766 0.000387606 0.000320185 -0.000217011 0.000320185 0.00122009)
(0.00034873 -0.000303664 -0.000400419 -0.000303664 0.000485753 0.000340734 -0.000400419 0.000340734 0.000988185)
(0.000477726 -0.000297179 -0.000559811 -0.000297179 0.000483224 0.000505533 -0.000559811 0.000505533 0.00177723)
(0.000371151 -8.23764e-05 4.21712e-05 -8.23764e-05 0.0001578 0.000132693 4.21712e-05 0.000132693 0.00109207)
(0.000478574 -0.000148338 0.000246109 -0.000148338 0.000341737 7.22082e-05 0.000246109 7.22082e-05 0.000622188)
(0.000690282 0.000119521 0.000407185 0.000119521 0.00049389 0.00020866 0.000407185 0.00020866 0.000962733)
(0.00150456 6.41327e-05 0.000486264 6.41327e-05 0.000780961 -0.000470236 0.000486264 -0.000470236 0.00200103)
(0.00207809 -0.000345821 0.000605665 -0.000345821 0.00123651 -0.000718093 0.000605665 -0.000718093 0.00227982)
(0.00159999 -0.000161159 0.000380088 -0.000161159 0.000971787 -0.000673216 0.000380088 -0.000673216 0.001792)
(0.00102771 -3.86639e-05 0.000209382 -3.86639e-05 0.000672059 -0.000436661 0.000209382 -0.000436661 0.000959723)
(0.00040778 0.000216777 0.000289731 0.000216777 0.000306083 0.000133268 0.000289731 0.000133268 0.000214521)
(0.000260466 0.000443736 0.000108819 0.000443736 0.00286228 0.000578039 0.000108819 0.000578039 0.000412212)
(0.00102529 -0.000712478 -0.000132764 -0.000712478 0.00431824 0.000177005 -0.000132764 0.000177005 0.000925991)
(0.00219006 -0.00115562 -0.000237788 -0.00115562 0.00198462 0.000337407 -0.000237788 0.000337407 0.000522625)
(0.00221358 0.000630125 -0.000118616 0.000630125 0.000920054 -0.000179779 -0.000118616 -0.000179779 0.00123603)
(0.00232005 0.000498125 0.000334742 0.000498125 0.00192397 -0.000550047 0.000334742 -0.000550047 0.00163344)
(0.00191408 -0.000932276 0.00087399 -0.000932276 0.00235025 -0.000886414 0.00087399 -0.000886414 0.00142846)
(0.00090345 -0.000612752 0.000523999 -0.000612752 0.000924861 -0.00044867 0.000523999 -0.00044867 0.000551629)
(0.000794544 0.000333585 0.000571724 0.000333585 0.000790487 3.35686e-05 0.000571724 3.35686e-05 0.000985784)
(0.000811148 0.000278878 0.000591269 0.000278878 0.000718797 0.000350599 0.000591269 0.000350599 0.00129041)
(0.000882867 0.000305877 0.000414075 0.000305877 0.000341554 -1.34995e-05 0.000414075 -1.34995e-05 0.00159779)
(0.000991642 7.1153e-06 0.000495814 7.1153e-06 0.000518165 -0.000273309 0.000495814 -0.000273309 0.00106915)
(0.00041601 -0.0002955 -8.37976e-05 -0.0002955 0.000547068 0.000291487 -8.37976e-05 0.000291487 0.000374994)
(0.000602515 -0.000149358 -0.000527831 -0.000149358 0.000337073 6.40946e-05 -0.000527831 6.40946e-05 0.00257362)
(0.000544978 -3.80808e-05 -0.000383023 -3.80808e-05 0.000217209 -0.000336327 -0.000383023 -0.000336327 0.00210647)
(0.000560065 -1.80807e-05 0.000127357 -1.80807e-05 0.000530896 0.000491097 0.000127357 0.000491097 0.000650957)
(0.000466704 8.23103e-06 0.000429841 8.23103e-06 0.00442462 -0.000546929 0.000429841 -0.000546929 0.00135157)
(0.000638648 -0.000758858 0.000433045 -0.000758858 0.00376133 -0.000699626 0.000433045 -0.000699626 0.000801794)
(0.000573702 -0.000148941 0.000358306 -0.000148941 0.000539895 -0.000468433 0.000358306 -0.000468433 0.00061437)
(0.000960548 0.000134394 0.000238704 0.000134394 0.00130024 0.00079095 0.000238704 0.00079095 0.00183643)
(0.000959359 -0.000342363 -7.08858e-05 -0.000342363 0.00169532 0.000467616 -7.08858e-05 0.000467616 0.00071929)
(0.000741252 -0.000300545 0.000355138 -0.000300545 0.000655723 -0.000609329 0.000355138 -0.000609329 0.00213171)
(0.00191583 -0.000587508 -0.000278768 -0.000587508 0.00114738 -0.000837525 -0.000278768 -0.000837525 0.0068328)
(0.00146437 -0.000326105 -0.000575778 -0.000326105 0.00114023 -0.000634663 -0.000575778 -0.000634663 0.00570865)
(0.000618607 0.000103327 -0.000487696 0.000103327 0.000505299 -0.000308266 -0.000487696 -0.000308266 0.00159861)
(0.000452709 -0.000262948 -3.45223e-05 -0.000262948 0.000478685 0.000302522 -3.45223e-05 0.000302522 0.000659283)
(0.00110224 -9.38065e-05 -0.000161362 -9.38065e-05 0.00238094 0.00132108 -0.000161362 0.00132108 0.00168741)
(0.000719245 0.000172785 0.000229767 0.000172785 0.00164018 0.000651418 0.000229767 0.000651418 0.000977603)
(0.000318629 -5.62053e-05 0.000164888 -5.62053e-05 0.000388396 -0.00011755 0.000164888 -0.00011755 0.000408132)
(0.00045904 0.000567497 4.48106e-05 0.000567497 0.00166114 -6.85593e-05 4.48106e-05 -6.85593e-05 0.000897356)
(0.000348827 0.000592087 0.000159254 0.000592087 0.00320741 6.79828e-05 0.000159254 6.79828e-05 0.000853673)
(0.000649223 0.000367951 0.000318224 0.000367951 0.000937526 0.000333266 0.000318224 0.000333266 0.000701892)
(0.000640961 -9.7408e-05 0.000408497 -9.7408e-05 0.000417085 -0.000161836 0.000408497 -0.000161836 0.000603005)
(0.000402369 -0.000194835 0.000177852 -0.000194835 0.000358135 -0.00010029 0.000177852 -0.00010029 7.85356e-05)
(0.000192384 -6.38291e-05 0.00011514 -6.38291e-05 0.000209673 1.79857e-05 0.00011514 1.79857e-05 0.00021407)
(0.000546792 -0.000230282 0.000125969 -0.000230282 0.00108272 0.000297861 0.000125969 0.000297861 0.000419245)
(0.00130127 0.00046095 0.000467474 0.00046095 0.000695807 0.000227189 0.000467474 0.000227189 0.00180934)
(0.00141382 9.34303e-05 0.000946382 9.34303e-05 0.000668941 -0.000605849 0.000946382 -0.000605849 0.0024887)
(0.000390003 -0.000126781 0.000289656 -0.000126781 0.000484143 -0.000417103 0.000289656 -0.000417103 0.00048476)
(0.000562156 0.000225424 -0.000424396 0.000225424 0.000561207 -0.000111531 -0.000424396 -0.000111531 0.000871024)
(0.00100648 0.000307376 -0.000331138 0.000307376 0.000475034 -0.000204073 -0.000331138 -0.000204073 0.000503989)