/*--------------------------------*- C++ -*----------------------------------*\
  =========                 |
  \\      /  F ield         | OpenFOAM: The Open Source CFD Toolbox
   \\    /   O peration     | Website:  https://openfoam.org
    \\  /    A nd           | Version:  10
     \\/     M anipulation  |
\*---------------------------------------------------------------------------*/
FoamFile
{
    format      ascii;
    class       volScalarField;
    location    "20";
    object      nut;
}
// * * * * * * * * * * * * * * * * * * * * * * * * * * * * * * * * * * * * * //

dimensions      [0 2 -1 0 0 0 0];

internalField   nonuniform List<scalar> 
25600
(
3.10167e-08
2.19467e-09
2.74541e-08
7.06419e-09
1.37547e-08
1.45951e-08
3.25397e-08
3.46998e-09
2.2233e-08
1.97253e-08
4.74256e-09
2.94809e-08
2.48783e-09
9.34072e-09
2.06069e-08
9.75754e-09
1.76138e-08
1.86427e-08
3.62609e-09
3.41899e-08
9.44261e-09
1.64838e-08
3.93623e-08
4.00302e-09
3.77069e-08
1.14696e-08
1.04062e-08
3.96687e-08
4.79168e-10
1.68827e-08
2.66351e-08
1.79456e-08
1.3007e-09
4.89651e-08
4.26461e-09
4.33674e-08
6.83005e-09
6.02682e-09
4.02903e-08
5.64405e-09
9.8497e-09
1.76824e-08
8.18465e-09
3.01015e-08
2.90081e-09
2.46538e-08
1.41022e-08
6.8534e-09
2.13345e-08
1.67372e-08
1.44394e-08
5.45737e-09
2.556e-08
7.5148e-09
3.32693e-08
8.32796e-09
1.93286e-08
8.46408e-09
5.25723e-09
3.58054e-08
1.21149e-08
2.56026e-08
1.9083e-08
5.22791e-09
1.76492e-08
1.95476e-08
8.81955e-09
2.11672e-08
7.80053e-09
8.50501e-09
2.99889e-08
1.00925e-08
4.30746e-09
3.51201e-08
6.3476e-09
1.58028e-08
2.29991e-08
4.71517e-09
3.25143e-08
8.00381e-09
1.2971e-08
2.28609e-08
8.30682e-09
3.56963e-08
4.2081e-09
4.42798e-08
3.50795e-09
1.69578e-08
1.37607e-08
1.1878e-08
2.38663e-08
3.09016e-09
3.0518e-08
9.26357e-09
2.47708e-08
1.21167e-08
1.0925e-08
9.33467e-09
1.52194e-08
2.84858e-08
1.61738e-08
1.57727e-08
1.02643e-08
3.61812e-09
1.87511e-08
1.68075e-08
1.17283e-08
2.93869e-09
2.73213e-08
7.39989e-09
1.91221e-08
1.5346e-08
3.13089e-09
3.26729e-08
4.441e-09
4.60282e-09
3.27888e-08
4.12625e-09
2.22955e-08
1.16277e-08
1.43367e-08
1.6013e-08
1.50682e-08
1.64567e-08
5.96568e-09
4.55274e-08
2.51167e-09
2.56497e-08
9.56017e-09
6.53603e-09
3.30767e-08
4.35032e-09
2.14958e-08
1.02787e-08
5.86897e-09
2.72689e-08
2.64325e-09
2.02188e-08
1.17808e-08
2.54812e-08
1.00959e-08
8.93738e-09
9.20055e-09
3.63898e-09
2.4674e-08
9.69302e-09
2.84324e-08
2.33979e-09
4.90639e-08
3.75833e-09
1.51372e-08
1.92891e-08
2.08943e-09
2.70779e-08
2.45688e-09
6.83498e-09
2.51114e-08
4.73357e-09
1.08154e-08
2.02196e-08
1.29155e-08
6.76999e-09
3.21794e-08
4.66659e-09
9.29915e-09
4.05709e-08
3.37415e-09
3.06642e-08
6.65971e-09
2.25778e-09
4.1202e-08
4.79706e-09
1.86151e-08
1.31558e-08
1.47006e-09
3.4887e-08
3.2877e-09
2.65038e-08
9.40536e-09
2.48548e-08
5.33865e-09
1.90025e-08
5.73778e-09
6.45414e-09
1.46557e-08
5.57325e-09
2.91548e-08
1.70996e-09
5.15149e-08
2.85224e-09
1.72381e-08
1.90766e-08
5.33826e-09
1.15146e-08
6.22594e-09
9.09701e-09
1.71472e-08
4.55507e-09
5.34036e-09
2.48754e-08
1.07693e-08
2.33576e-09
5.07123e-08
3.1825e-09
1.70872e-08
3.2521e-08
3.4719e-09
3.4466e-08
3.58747e-09
1.28212e-09
3.95006e-08
5.18408e-09
1.71472e-08
1.75773e-08
1.28706e-09
2.61827e-08
5.89078e-09
1.69245e-08
1.18589e-08
1.18069e-08
5.70407e-09
1.91759e-08
7.15094e-09
1.04958e-08
7.28492e-09
3.93703e-09
2.09575e-08
2.71417e-09
3.46496e-08
3.24799e-09
8.21092e-09
2.2928e-08
7.1067e-09
5.73648e-09
8.48098e-09
1.37299e-08
8.09357e-09
4.6419e-09
3.66699e-09
2.49244e-08
5.03788e-09
7.38818e-10
5.55655e-08
2.9408e-09
2.35732e-08
2.58461e-08
2.41996e-09
3.66652e-08
3.3827e-09
3.13746e-09
3.00784e-08
6.55594e-09
1.42592e-08
2.37154e-08
2.31916e-09
2.15556e-08
1.06884e-08
1.23876e-08
2.03113e-08
3.63506e-09
8.73137e-09
1.1484e-08
8.16068e-09
6.44691e-09
8.74813e-09
2.79889e-09
2.50864e-08
3.04527e-09
2.71785e-08
8.04989e-09
7.51333e-09
2.33228e-08
1.01555e-08
5.95578e-09
9.87806e-09
2.28614e-08
4.5687e-09
1.69695e-08
3.02871e-09
2.94647e-08
5.43845e-09
2.47078e-09
5.06107e-08
2.51288e-09
2.37032e-08
2.3378e-08
1.54711e-09
3.78679e-08
4.2508e-09
8.68935e-09
1.85926e-08
9.46207e-09
1.08314e-08
2.97905e-08
3.18768e-09
2.09304e-08
1.21655e-08
1.20104e-08
2.46811e-08
4.13782e-09
1.1514e-08
9.26272e-09
8.20956e-09
9.19135e-09
1.03865e-08
4.31004e-09
2.89967e-08
3.39617e-09
2.43766e-08
1.1426e-08
1.23313e-08
1.93857e-08
2.04819e-08
2.52189e-09
1.31294e-08
1.91394e-08
3.72947e-09
2.08065e-08
4.35786e-09
3.02169e-08
8.67484e-09
6.53231e-09
5.05572e-08
3.44339e-09
2.98288e-08
2.04234e-08
4.05443e-09
3.16584e-08
4.48339e-09
1.45472e-08
1.22746e-08
1.24621e-08
9.41297e-09
3.28587e-08
3.90686e-09
2.34837e-08
1.08596e-08
1.14707e-08
2.6346e-08
5.295e-09
1.28907e-08
1.27435e-08
5.00314e-09
1.47786e-08
8.73698e-09
6.08625e-09
2.56209e-08
7.75099e-09
1.51304e-08
1.73349e-08
1.4055e-08
1.69442e-08
3.04187e-08
2.5097e-09
2.09875e-08
1.31241e-08
3.00956e-09
1.74644e-08
7.63039e-09
2.35895e-08
5.4045e-08
6.05537e-08
7.34618e-08
4.4892e-08
8.16102e-08
4.84947e-08
6.04015e-08
6.58409e-08
5.1057e-08
6.19106e-08
6.22008e-08
5.3186e-08
5.63665e-08
7.30199e-08
4.08667e-08
7.38609e-08
5.64033e-08
4.71476e-08
8.02458e-08
4.2366e-08
6.23624e-08
6.74193e-08
4.42611e-08
6.75273e-08
5.88127e-08
5.45839e-08
6.41711e-08
6.23418e-08
4.85703e-08
7.21341e-08
5.79899e-08
4.79976e-08
8.28496e-08
3.97595e-08
6.88067e-08
6.6589e-08
4.9847e-08
6.25261e-08
6.15972e-08
6.36972e-08
8.83863e-07
8.83769e-07
8.91711e-07
8.65545e-07
9.0687e-07
8.6125e-07
8.92486e-07
8.78915e-07
8.79519e-07
8.78067e-07
8.89645e-07
8.66915e-07
8.86299e-07
8.83963e-07
8.68827e-07
8.89132e-07
8.83162e-07
8.6225e-07
9.0936e-07
8.56298e-07
8.93071e-07
8.84179e-07
8.74145e-07
8.85617e-07
8.88743e-07
8.74111e-07
8.91481e-07
8.8401e-07
8.76565e-07
8.95921e-07
8.83272e-07
8.73025e-07
9.10281e-07
8.62538e-07
8.97247e-07
8.90179e-07
8.79168e-07
8.84269e-07
8.93063e-07
8.81863e-07
7.73287e-06
7.66668e-06
7.73631e-06
7.64602e-06
7.74297e-06
7.63933e-06
7.72436e-06
7.65606e-06
7.70523e-06
7.65757e-06
7.71334e-06
7.64357e-06
7.71793e-06
7.65492e-06
7.70547e-06
7.66459e-06
7.71598e-06
7.64806e-06
7.74056e-06
7.64438e-06
7.73184e-06
7.67091e-06
7.71802e-06
7.67739e-06
7.73187e-06
7.67163e-06
7.73757e-06
7.68426e-06
7.72588e-06
7.70165e-06
7.72792e-06
7.69015e-06
7.74838e-06
7.68101e-06
7.73759e-06
7.7009e-06
7.72221e-06
7.68901e-06
7.73798e-06
7.67367e-06
3.28757e-05
3.2725e-05
3.2883e-05
3.26956e-05
3.28813e-05
3.26925e-05
3.28565e-05
3.27129e-05
3.28348e-05
3.27219e-05
3.28435e-05
3.27109e-05
3.28622e-05
3.27155e-05
3.28633e-05
3.27331e-05
3.28682e-05
3.27376e-05
3.28876e-05
3.27381e-05
3.28958e-05
3.27567e-05
3.28945e-05
3.27683e-05
3.29073e-05
3.27716e-05
3.2916e-05
3.27847e-05
3.29054e-05
3.28087e-05
3.28925e-05
3.28115e-05
3.28943e-05
3.28022e-05
3.28806e-05
3.28098e-05
3.28611e-05
3.27908e-05
3.28711e-05
3.27563e-05
7.65224e-05
7.64137e-05
7.65433e-05
7.63819e-05
7.65603e-05
7.63797e-05
7.65538e-05
7.64067e-05
7.65417e-05
7.64339e-05
7.65504e-05
7.64375e-05
7.658e-05
7.64379e-05
7.65997e-05
7.64551e-05
7.66013e-05
7.64763e-05
7.661e-05
7.6483e-05
7.66268e-05
7.64857e-05
7.66378e-05
7.64872e-05
7.6651e-05
7.64826e-05
7.66558e-05
7.64816e-05
7.66384e-05
7.64985e-05
7.66021e-05
7.65033e-05
7.658e-05
7.64902e-05
7.65603e-05
7.64858e-05
7.653e-05
7.64742e-05
7.652e-05
7.6449e-05
0.000121762
0.000121764
0.000121783
0.000121755
0.000121827
0.000121749
0.000121859
0.000121768
0.00012187
0.000121805
0.000121872
0.000121831
0.000121892
0.000121835
0.000121919
0.000121835
0.000121929
0.000121849
0.000121926
0.000121861
0.000121923
0.000121857
0.000121926
0.000121839
0.000121935
0.000121807
0.000121934
0.00012178
0.000121914
0.000121773
0.00012187
0.000121769
0.000121836
0.00012176
0.000121812
0.000121753
0.000121787
0.000121751
0.000121773
0.000121759
0.000158634
0.000158672
0.00015864
0.000158704
0.000158678
0.000158706
0.000158732
0.000158706
0.000158768
0.000158725
0.000158772
0.000158756
0.000158766
0.000158775
0.000158772
0.000158762
0.00015879
0.000158742
0.000158788
0.000158741
0.000158755
0.000158744
0.000158728
0.000158719
0.000158724
0.00015867
0.00015872
0.000158627
0.000158706
0.000158598
0.000158682
0.000158582
0.000158662
0.000158582
0.000158639
0.000158593
0.000158628
0.000158602
0.000158637
0.000158625
0.00018718
0.000187204
0.000187185
0.000187258
0.000187199
0.000187281
0.000187235
0.000187275
0.000187276
0.000187263
0.000187292
0.00018727
0.00018727
0.000187293
0.000187239
0.000187285
0.000187242
0.000187236
0.00018725
0.000187203
0.000187212
0.000187207
0.000187157
0.000187194
0.000187135
0.00018715
0.00018713
0.000187113
0.000187123
0.000187084
0.000187129
0.000187059
0.000187142
0.00018706
0.000187137
0.000187095
0.000187133
0.000187127
0.000187158
0.000187153
0.000208494
0.000208514
0.000208507
0.000208553
0.000208509
0.000208581
0.000208512
0.000208582
0.000208527
0.000208554
0.000208543
0.000208527
0.000208524
0.000208533
0.000208471
0.000208534
0.000208446
0.000208484
0.000208457
0.000208428
0.000208435
0.000208423
0.000208378
0.000208427
0.000208347
0.000208403
0.000208344
0.000208385
0.000208343
0.000208376
0.000208366
0.000208355
0.000208412
0.000208351
0.000208436
0.000208393
0.000208441
0.000208443
0.000208465
0.000208477
0.00022378
0.00022381
0.00022379
0.000223823
0.00022379
0.00022383
0.000223773
0.000223832
0.000223756
0.000223806
0.000223757
0.000223762
0.000223744
0.000223747
0.000223692
0.00022375
0.000223652
0.000223716
0.000223657
0.000223661
0.000223654
0.000223648
0.000223616
0.000223662
0.00022359
0.00022366
0.000223591
0.000223662
0.000223596
0.000223677
0.000223623
0.000223671
0.000223685
0.000223665
0.000223731
0.000223699
0.000223747
0.000223747
0.000223764
0.000223783
0.000234149
0.000234183
0.000234143
0.000234178
0.000234139
0.000234161
0.000234118
0.000234154
0.000234084
0.000234135
0.000234067
0.000234093
0.000234057
0.000234069
0.000234019
0.00023407
0.000233982
0.000234053
0.000233983
0.000234014
0.000233992
0.000234002
0.000233976
0.000234019
0.000233962
0.000234034
0.00023397
0.00023405
0.000233982
0.00023408
0.000234006
0.000234091
0.000234065
0.000234087
0.000234118
0.000234108
0.000234139
0.000234141
0.000234151
0.000234166
0.000240552
0.000240585
0.00024053
0.000240571
0.000240519
0.000240541
0.000240502
0.000240522
0.000240467
0.00024051
0.000240443
0.00024048
0.000240434
0.000240458
0.00024041
0.00024046
0.000240384
0.000240455
0.000240387
0.000240434
0.000240401
0.000240429
0.000240402
0.000240448
0.000240403
0.00024047
0.000240415
0.000240494
0.000240432
0.000240529
0.000240451
0.00024055
0.000240497
0.000240547
0.000240544
0.000240555
0.000240561
0.00024057
0.000240566
0.000240578
0.000243791
0.00024382
0.000243761
0.000243805
0.000243743
0.000243773
0.00024373
0.00024375
0.000243704
0.000243741
0.000243682
0.000243724
0.000243677
0.00024371
0.000243664
0.000243715
0.00024365
0.000243718
0.000243657
0.000243711
0.000243674
0.000243715
0.000243684
0.000243733
0.000243694
0.000243757
0.00024371
0.000243784
0.000243727
0.000243815
0.000243741
0.000243837
0.000243771
0.000243834
0.000243803
0.000243832
0.000243812
0.000243831
0.00024381
0.000243823
0.00024453
0.000244558
0.000244499
0.000244545
0.00024448
0.000244518
0.000244471
0.000244498
0.000244456
0.000244491
0.000244442
0.000244484
0.00024444
0.000244479
0.000244435
0.000244488
0.000244431
0.000244496
0.000244442
0.000244497
0.000244459
0.000244507
0.000244472
0.000244526
0.000244488
0.000244547
0.000244503
0.000244571
0.000244517
0.000244595
0.000244527
0.000244611
0.000244542
0.000244607
0.000244559
0.000244597
0.000244558
0.000244585
0.00024455
0.000244568
0.000243315
0.000243345
0.000243289
0.000243335
0.000243272
0.000243316
0.000243267
0.000243302
0.000243261
0.000243298
0.000243254
0.000243297
0.000243256
0.000243299
0.000243258
0.000243311
0.000243259
0.000243322
0.000243272
0.000243327
0.00024329
0.00024334
0.000243303
0.000243358
0.000243319
0.000243374
0.000243332
0.000243393
0.00024334
0.000243409
0.000243345
0.000243417
0.000243349
0.000243409
0.000243353
0.000243395
0.000243345
0.000243379
0.000243333
0.000243358
0.000240588
0.000240622
0.000240569
0.000240615
0.000240557
0.000240604
0.000240555
0.000240596
0.000240555
0.000240596
0.000240555
0.000240599
0.000240561
0.000240605
0.000240565
0.000240618
0.00024057
0.00024063
0.000240584
0.000240637
0.000240601
0.00024065
0.000240612
0.000240665
0.000240625
0.000240677
0.000240635
0.000240689
0.000240637
0.000240698
0.000240636
0.000240698
0.000240633
0.000240687
0.000240629
0.000240671
0.000240616
0.000240654
0.000240603
0.000240635
0.000236707
0.000236745
0.000236694
0.000236741
0.000236687
0.000236736
0.000236688
0.000236733
0.000236692
0.000236736
0.000236696
0.000236741
0.000236704
0.000236749
0.000236711
0.000236763
0.000236718
0.000236774
0.000236731
0.000236782
0.000236746
0.000236793
0.000236754
0.000236805
0.000236763
0.000236812
0.000236769
0.000236818
0.000236767
0.00023682
0.000236761
0.000236815
0.000236753
0.000236802
0.000236744
0.000236786
0.000236731
0.000236771
0.000236718
0.000236754
0.000231957
0.000231997
0.000231949
0.000231997
0.000231946
0.000231996
0.00023195
0.000231996
0.000231956
0.000232002
0.000231963
0.000232009
0.000231972
0.000232017
0.00023198
0.00023203
0.000231987
0.000232041
0.000231999
0.000232047
0.000232012
0.000232056
0.000232017
0.000232066
0.000232022
0.000232068
0.000232024
0.000232068
0.000232018
0.000232067
0.000232009
0.000232057
0.000231999
0.000232043
0.000231989
0.000232028
0.000231975
0.000232016
0.000231965
0.000232003
0.000226567
0.000226609
0.000226562
0.000226611
0.000226563
0.000226612
0.000226569
0.000226615
0.000226576
0.000226622
0.000226583
0.000226629
0.000226593
0.000226638
0.000226601
0.00022665
0.000226608
0.00022666
0.000226619
0.000226664
0.000226629
0.000226671
0.000226632
0.000226678
0.000226633
0.000226676
0.000226633
0.000226673
0.000226623
0.000226668
0.000226612
0.000226657
0.000226602
0.000226642
0.000226592
0.00022663
0.000226579
0.000226621
0.000226571
0.000226611
0.000220724
0.000220767
0.000220722
0.000220771
0.000220725
0.000220773
0.000220733
0.000220778
0.000220739
0.000220786
0.000220747
0.000220793
0.000220758
0.000220801
0.000220765
0.000220813
0.000220771
0.00022082
0.000220782
0.000220823
0.00022079
0.000220829
0.000220789
0.000220833
0.000220788
0.000220828
0.000220786
0.000220822
0.000220774
0.000220817
0.000220762
0.000220804
0.000220753
0.000220789
0.000220743
0.00022078
0.000220731
0.000220773
0.000220726
0.000220766
0.00021454
0.000214583
0.000214539
0.000214588
0.000214545
0.00021459
0.000214554
0.000214597
0.000214559
0.000214606
0.000214568
0.000214612
0.000214578
0.00021462
0.000214583
0.000214632
0.00021459
0.000214636
0.000214601
0.000214638
0.000214605
0.000214644
0.000214602
0.000214645
0.000214602
0.000214638
0.000214597
0.000214632
0.000214583
0.000214625
0.000214572
0.00021461
0.000214564
0.000214596
0.000214554
0.000214591
0.000214543
0.000214585
0.000214541
0.00021458
0.000208347
0.000208391
0.000208347
0.000208395
0.000208355
0.000208397
0.000208363
0.000208405
0.000208368
0.000208415
0.000208377
0.000208419
0.000208387
0.000208429
0.000208391
0.000208439
0.000208399
0.000208441
0.00020841
0.000208443
0.00020841
0.00020845
0.000208406
0.000208448
0.000208407
0.000208439
0.0002084
0.000208434
0.000208385
0.000208426
0.000208375
0.00020841
0.000208369
0.000208398
0.000208357
0.000208395
0.000208348
0.000208389
0.000208348
0.000208386
0.000200871
0.000200918
0.000200873
0.000200918
0.000200884
0.000200921
0.00020089
0.000200932
0.000200893
0.000200939
0.000200904
0.000200943
0.000200912
0.000200954
0.000200914
0.000200962
0.000200925
0.00020096
0.000200935
0.000200966
0.00020093
0.000200974
0.000200928
0.000200967
0.000200931
0.000200959
0.00020092
0.000200957
0.000200906
0.000200945
0.000200901
0.000200928
0.000200893
0.000200921
0.000200878
0.00020092
0.000200872
0.000200911
0.000200875
0.00020091
2.87707e-08
2.95492e-09
2.3381e-08
1.3007e-08
8.83835e-09
2.00546e-08
2.81879e-08
2.9635e-09
3.42446e-08
9.62246e-09
7.34135e-09
2.47433e-08
4.8507e-09
4.92883e-09
3.21065e-08
7.44446e-09
1.2036e-08
3.09934e-08
1.48139e-09
5.93244e-08
3.29842e-09
1.88467e-08
4.06554e-08
4.0127e-09
4.61527e-08
7.96443e-09
9.65468e-09
3.6034e-08
6.81752e-10
1.32622e-08
3.14266e-08
1.11861e-08
2.02364e-09
3.53639e-08
5.34633e-09
4.55109e-08
7.27234e-09
8.71041e-09
3.09114e-08
4.28026e-09
1.16421e-08
1.58075e-08
9.4566e-09
3.46863e-08
4.62821e-09
3.5448e-08
1.24644e-08
4.3826e-09
2.80101e-08
1.26422e-08
1.90176e-08
9.14814e-09
2.96389e-08
6.55485e-09
3.91287e-08
6.43401e-09
1.14964e-08
2.02692e-08
2.44944e-09
5.23262e-08
8.10355e-09
2.55561e-08
2.39036e-08
2.90426e-09
2.52891e-08
1.35674e-08
1.12727e-08
1.77589e-08
9.8721e-09
9.36483e-09
3.00442e-08
1.16872e-08
5.15611e-09
3.22138e-08
9.99839e-09
1.6999e-08
1.85063e-08
4.27523e-09
2.74781e-08
8.61784e-09
1.36284e-08
1.98492e-08
9.11531e-09
3.00129e-08
3.97383e-09
4.57293e-08
4.55183e-09
9.67384e-09
1.88588e-08
1.22563e-08
2.14098e-08
5.24831e-09
2.53295e-08
8.69016e-09
1.86632e-08
1.04015e-08
8.38179e-09
1.86684e-08
1.20571e-08
2.92273e-08
1.47803e-08
1.16019e-08
1.96952e-08
1.70604e-09
2.10848e-08
1.55995e-08
1.53556e-08
4.74848e-09
2.90888e-08
7.19213e-09
1.68777e-08
2.26297e-08
1.62525e-09
3.6898e-08
5.73645e-09
4.7106e-09
3.12031e-08
3.09322e-09
2.30894e-08
1.07702e-08
1.37562e-08
1.49643e-08
1.86583e-08
1.28868e-08
6.04136e-09
4.33045e-08
3.06245e-09
1.56627e-08
1.71626e-08
8.07483e-09
2.85245e-08
5.80855e-09
1.54606e-08
1.67037e-08
1.51089e-09
3.45117e-08
2.87905e-09
2.56915e-08
1.27556e-08
1.98323e-08
1.49639e-08
6.47021e-09
1.90244e-08
2.45548e-09
2.34919e-08
1.07361e-08
2.60693e-08
3.20979e-09
5.00547e-08
3.3759e-09
1.21794e-08
2.51884e-08
1.13159e-09
3.58099e-08
1.5639e-09
5.06164e-09
2.68888e-08
4.37373e-09
1.52738e-08
1.7283e-08
1.27915e-08
6.65295e-09
3.31344e-08
5.5624e-09
9.58305e-09
4.02461e-08
3.73998e-09
2.23108e-08
1.52e-08
3.63674e-09
3.97202e-08
5.16996e-09
1.26343e-08
2.19646e-08
5.41291e-10
4.46447e-08
2.31889e-09
2.57263e-08
9.67211e-09
1.48434e-08
9.06526e-09
1.26209e-08
9.00082e-09
5.34241e-09
1.19625e-08
7.29398e-09
2.14306e-08
1.74001e-09
5.02614e-08
2.85711e-09
1.73151e-08
2.14921e-08
3.55518e-09
2.11126e-08
3.62384e-09
7.8253e-09
2.04638e-08
3.18265e-09
9.84802e-09
2.06855e-08
1.24015e-08
2.07992e-09
5.03603e-08
3.2624e-09
1.5434e-08
3.41204e-08
3.35958e-09
2.92659e-08
7.15591e-09
2.01317e-09
4.31064e-08
6.48563e-09
1.37253e-08
2.42008e-08
5.13743e-10
3.51379e-08
4.00721e-09
1.42102e-08
1.52124e-08
5.29601e-09
1.09176e-08
1.54889e-08
7.2411e-09
1.28153e-08
4.85521e-09
8.8349e-09
1.38617e-08
3.57385e-09
3.3151e-08
3.25331e-09
1.02975e-08
2.39261e-08
5.89976e-09
1.31141e-08
5.85324e-09
1.36867e-08
1.13187e-08
1.37092e-09
7.40148e-09
2.0217e-08
8.55243e-09
5.25504e-10
5.58541e-08
2.73856e-09
1.99305e-08
2.85229e-08
2.41801e-09
3.39059e-08
1.76565e-09
1.83657e-09
3.86426e-08
7.47321e-09
1.40049e-08
2.86402e-08
1.67458e-09
2.85207e-08
7.8445e-09
9.27797e-09
2.62725e-08
2.01694e-09
1.59645e-08
1.05136e-08
6.1797e-09
9.63502e-09
4.35692e-09
7.47193e-09
1.73191e-08
5.44795e-09
2.45866e-08
7.52152e-09
8.78314e-09
2.51039e-08
9.43288e-09
1.136e-08
7.76877e-09
2.34166e-08
6.02177e-09
7.55638e-09
5.31447e-09
2.35641e-08
7.92602e-09
1.79161e-09
5.17303e-08
2.35393e-09
1.82963e-08
2.66977e-08
1.50957e-09
3.73789e-08
2.99765e-09
3.60594e-09
2.83032e-08
7.48247e-09
1.13535e-08
3.1869e-08
2.60458e-09
2.66609e-08
1.01304e-08
8.92335e-09
3.0992e-08
2.27266e-09
1.89384e-08
7.4496e-09
5.6028e-09
1.18957e-08
7.71183e-09
9.52112e-09
2.45653e-08
7.03063e-09
2.1766e-08
1.17358e-08
1.22756e-08
2.29158e-08
1.81021e-08
6.44553e-09
9.98456e-09
2.3414e-08
5.35575e-09
1.6049e-08
6.47155e-09
2.56091e-08
1.04677e-08
5.42536e-09
4.99363e-08
3.45999e-09
2.24852e-08
2.45181e-08
2.70395e-09
3.45124e-08
3.60458e-09
8.44391e-09
2.0456e-08
6.90125e-09
1.0297e-08
3.23019e-08
3.03857e-09
2.88131e-08
9.31095e-09
9.04695e-09
3.10736e-08
3.44359e-09
1.97765e-08
1.03671e-08
3.96314e-09
1.66603e-08
9.15012e-09
1.13113e-08
2.66062e-08
1.2054e-08
1.65847e-08
1.78989e-08
1.45768e-08
2.05455e-08
2.90538e-08
5.54987e-09
1.6459e-08
1.94848e-08
4.79535e-09
1.77574e-08
9.73084e-09
2.14609e-08
5.47923e-08
5.65145e-08
7.25867e-08
4.43125e-08
7.32019e-08
5.14521e-08
5.33471e-08
6.84832e-08
4.73276e-08
5.65089e-08
6.51313e-08
4.59847e-08
5.78764e-08
7.02616e-08
3.5712e-08
7.55356e-08
5.15518e-08
4.54732e-08
7.99896e-08
3.5812e-08
6.43731e-08
6.32601e-08
4.28835e-08
6.44622e-08
5.67198e-08
5.12505e-08
6.18392e-08
6.3519e-08
4.29603e-08
7.01284e-08
5.75231e-08
4.3744e-08
8.36266e-08
3.80013e-08
6.24602e-08
6.9079e-08
4.35767e-08
6.34629e-08
5.98709e-08
5.81029e-08
8.57857e-07
8.51871e-07
8.64284e-07
8.37136e-07
8.72475e-07
8.3613e-07
8.57744e-07
8.53824e-07
8.47113e-07
8.46689e-07
8.62673e-07
8.33576e-07
8.59595e-07
8.53921e-07
8.34917e-07
8.62818e-07
8.49546e-07
8.33937e-07
8.79319e-07
8.22572e-07
8.65194e-07
8.53371e-07
8.44486e-07
8.55296e-07
8.59318e-07
8.42388e-07
8.62144e-07
8.57402e-07
8.44397e-07
8.6693e-07
8.56229e-07
8.39983e-07
8.86473e-07
8.311e-07
8.66209e-07
8.63935e-07
8.47323e-07
8.57395e-07
8.6459e-07
8.48458e-07
7.56585e-06
7.49171e-06
7.56538e-06
7.47441e-06
7.56553e-06
7.4713e-06
7.54637e-06
7.48858e-06
7.52894e-06
7.48537e-06
7.54205e-06
7.46998e-06
7.54653e-06
7.48406e-06
7.52721e-06
7.498e-06
7.5372e-06
7.48045e-06
7.56519e-06
7.47325e-06
7.56095e-06
7.50279e-06
7.54844e-06
7.51005e-06
7.56647e-06
7.50235e-06
7.57477e-06
7.51789e-06
7.55992e-06
7.53337e-06
7.56444e-06
7.51723e-06
7.58823e-06
7.50574e-06
7.57402e-06
7.52726e-06
7.5573e-06
7.51462e-06
7.57224e-06
7.49596e-06
3.24946e-05
3.23244e-05
3.24971e-05
3.23015e-05
3.24907e-05
3.2306e-05
3.24651e-05
3.23314e-05
3.24438e-05
3.23406e-05
3.24567e-05
3.23295e-05
3.24754e-05
3.2337e-05
3.24715e-05
3.23615e-05
3.24747e-05
3.23695e-05
3.2498e-05
3.23703e-05
3.25133e-05
3.23903e-05
3.25165e-05
3.24006e-05
3.25349e-05
3.2396e-05
3.25462e-05
3.24041e-05
3.25305e-05
3.24249e-05
3.2513e-05
3.2424e-05
3.25145e-05
3.2407e-05
3.25034e-05
3.24058e-05
3.24872e-05
3.23818e-05
3.2495e-05
3.23488e-05
7.61279e-05
7.599e-05
7.61516e-05
7.59671e-05
7.61701e-05
7.59744e-05
7.61639e-05
7.601e-05
7.61484e-05
7.60421e-05
7.61557e-05
7.6047e-05
7.61848e-05
7.60473e-05
7.6201e-05
7.60707e-05
7.61972e-05
7.61001e-05
7.62003e-05
7.61079e-05
7.62161e-05
7.6106e-05
7.62263e-05
7.60973e-05
7.62358e-05
7.60765e-05
7.62408e-05
7.60635e-05
7.62198e-05
7.60747e-05
7.61769e-05
7.60834e-05
7.61496e-05
7.60694e-05
7.6134e-05
7.60564e-05
7.61193e-05
7.6037e-05
7.61205e-05
7.60139e-05
0.000121537
0.000121521
0.000121565
0.000121514
0.000121612
0.000121506
0.000121645
0.000121524
0.000121646
0.000121561
0.000121638
0.000121585
0.00012165
0.000121583
0.000121673
0.000121579
0.000121674
0.000121594
0.000121651
0.000121607
0.000121633
0.000121599
0.000121627
0.000121567
0.000121628
0.000121527
0.000121631
0.000121496
0.000121617
0.000121486
0.000121583
0.000121494
0.000121549
0.0001215
0.000121527
0.000121506
0.000121521
0.000121503
0.00012153
0.000121509
0.000158547
0.000158587
0.000158552
0.000158607
0.000158584
0.000158593
0.000158633
0.000158575
0.000158658
0.000158582
0.000158648
0.000158607
0.000158627
0.000158615
0.000158626
0.00015859
0.00015864
0.000158562
0.000158623
0.000158566
0.000158574
0.000158577
0.000158538
0.000158555
0.000158538
0.000158516
0.000158546
0.000158487
0.000158546
0.000158469
0.00015855
0.000158463
0.000158544
0.000158481
0.000158522
0.000158519
0.000158515
0.000158535
0.000158538
0.000158548
0.000187169
0.000187203
0.00018716
0.000187237
0.000187157
0.000187239
0.000187183
0.000187208
0.000187215
0.000187177
0.000187223
0.000187175
0.00018719
0.000187194
0.000187153
0.000187181
0.000187163
0.000187125
0.000187179
0.0001871
0.000187141
0.000187128
0.000187086
0.000187139
0.000187079
0.000187118
0.000187092
0.000187106
0.000187099
0.000187096
0.000187127
0.000187074
0.000187159
0.00018708
0.000187152
0.000187131
0.000187133
0.000187166
0.00018715
0.000187175
0.000208512
0.000208543
0.000208508
0.000208563
0.000208489
0.000208575
0.00020848
0.000208559
0.000208494
0.000208517
0.000208515
0.000208485
0.000208498
0.000208496
0.000208448
0.000208508
0.000208438
0.000208463
0.000208474
0.000208416
0.000208474
0.000208437
0.000208428
0.000208473
0.000208411
0.000208476
0.000208422
0.000208479
0.000208427
0.000208483
0.000208456
0.000208458
0.000208507
0.000208442
0.000208522
0.00020848
0.0002085
0.000208522
0.000208499
0.000208534
0.000223811
0.000223849
0.000223807
0.000223848
0.000223793
0.000223852
0.000223769
0.000223852
0.000223757
0.000223824
0.000223774
0.000223782
0.000223778
0.00022378
0.00022374
0.000223804
0.00022372
0.000223786
0.000223755
0.000223743
0.000223783
0.000223747
0.00022376
0.000223785
0.000223741
0.000223802
0.000223745
0.000223814
0.000223743
0.000223828
0.000223759
0.000223809
0.000223811
0.00022378
0.000223839
0.000223797
0.000223824
0.000223831
0.000223812
0.000223846
0.000234193
0.000234235
0.000234183
0.000234225
0.000234176
0.000234216
0.000234156
0.00023422
0.000234132
0.000234212
0.000234138
0.00023418
0.000234152
0.000234172
0.000234135
0.000234197
0.000234117
0.000234198
0.000234142
0.000234169
0.000234176
0.000234163
0.000234173
0.000234188
0.000234159
0.000234207
0.000234156
0.00023422
0.000234149
0.000234239
0.000234153
0.000234229
0.000234193
0.000234198
0.000234224
0.0002342
0.000234218
0.00023422
0.000234206
0.000234231
0.000240618
0.000240658
0.000240602
0.000240649
0.000240598
0.000240633
0.000240588
0.000240635
0.000240567
0.00024064
0.000240565
0.000240624
0.000240581
0.000240618
0.000240578
0.000240639
0.000240566
0.000240648
0.000240583
0.000240631
0.000240611
0.000240622
0.000240615
0.000240633
0.000240608
0.000240646
0.000240603
0.000240658
0.000240594
0.000240676
0.00024059
0.000240675
0.000240618
0.000240649
0.000240646
0.000240643
0.000240644
0.000240651
0.000240634
0.000240654
0.000243886
0.000243923
0.000243868
0.000243918
0.000243864
0.000243903
0.000243863
0.000243902
0.00024385
0.000243912
0.000243847
0.000243909
0.00024386
0.000243907
0.000243862
0.000243923
0.000243855
0.000243932
0.000243866
0.000243921
0.000243884
0.000243913
0.000243889
0.000243916
0.000243887
0.000243922
0.000243883
0.000243932
0.000243875
0.000243948
0.00024387
0.000243951
0.000243886
0.000243932
0.000243908
0.000243923
0.000243907
0.000243923
0.0002439
0.00024392
0.000244655
0.000244691
0.000244639
0.00024469
0.000244635
0.00024468
0.00024464
0.000244678
0.000244635
0.000244688
0.000244633
0.000244691
0.000244642
0.000244692
0.000244645
0.000244704
0.00024464
0.00024471
0.000244646
0.000244701
0.000244657
0.000244696
0.000244659
0.000244695
0.00024466
0.000244697
0.000244659
0.000244705
0.000244654
0.000244718
0.000244649
0.000244723
0.000244658
0.00024471
0.000244672
0.0002447
0.000244671
0.000244697
0.000244665
0.00024469
0.000243466
0.000243503
0.000243454
0.000243504
0.000243452
0.000243499
0.000243458
0.000243498
0.000243458
0.000243506
0.000243457
0.00024351
0.000243464
0.000243512
0.000243464
0.00024352
0.00024346
0.000243524
0.000243463
0.000243516
0.00024347
0.000243512
0.00024347
0.000243512
0.000243473
0.000243512
0.000243474
0.000243519
0.00024347
0.000243529
0.000243467
0.000243533
0.000243472
0.000243524
0.00024348
0.000243515
0.000243477
0.000243511
0.000243473
0.000243503
0.000240759
0.000240797
0.000240752
0.0002408
0.00024075
0.000240798
0.000240756
0.000240798
0.000240758
0.000240803
0.000240758
0.000240807
0.000240762
0.000240808
0.000240761
0.000240813
0.000240756
0.000240815
0.000240757
0.000240809
0.000240762
0.000240806
0.000240762
0.000240808
0.000240765
0.000240808
0.000240768
0.000240813
0.000240766
0.000240821
0.000240764
0.000240823
0.000240766
0.000240816
0.00024077
0.000240809
0.000240767
0.000240805
0.000240763
0.000240798
0.00023689
0.000236929
0.000236886
0.000236933
0.000236885
0.000236933
0.00023689
0.000236932
0.000236893
0.000236936
0.000236892
0.000236937
0.000236894
0.000236937
0.000236892
0.00023694
0.000236887
0.000236941
0.000236888
0.000236936
0.000236892
0.000236935
0.000236892
0.000236938
0.000236895
0.000236939
0.000236899
0.000236943
0.000236897
0.00023695
0.000236895
0.00023695
0.000236897
0.000236944
0.000236898
0.000236938
0.000236894
0.000236935
0.000236892
0.000236929
0.000232146
0.000232186
0.000232143
0.00023219
0.000232143
0.00023219
0.000232147
0.000232189
0.000232149
0.000232191
0.000232148
0.00023219
0.000232149
0.000232189
0.000232146
0.000232191
0.000232141
0.000232192
0.000232142
0.000232188
0.000232146
0.000232188
0.000232146
0.000232193
0.000232149
0.000232194
0.000232154
0.000232197
0.000232152
0.000232202
0.00023215
0.000232201
0.000232151
0.000232195
0.000232151
0.000232191
0.000232147
0.000232189
0.000232146
0.000232185
0.000226756
0.000226796
0.000226754
0.000226799
0.000226755
0.000226799
0.000226758
0.000226798
0.000226758
0.000226799
0.000226756
0.000226797
0.000226757
0.000226795
0.000226753
0.000226797
0.000226749
0.000226797
0.000226751
0.000226794
0.000226755
0.000226796
0.000226755
0.000226801
0.000226758
0.000226802
0.000226762
0.000226804
0.00022676
0.000226809
0.000226758
0.000226807
0.000226759
0.0002268
0.00022676
0.000226798
0.000226755
0.000226798
0.000226755
0.000226795
0.000220911
0.00022095
0.000220909
0.000220953
0.00022091
0.000220952
0.000220912
0.000220951
0.000220911
0.000220951
0.000220909
0.000220948
0.000220909
0.000220945
0.000220905
0.000220948
0.000220901
0.000220948
0.000220905
0.000220945
0.000220909
0.000220948
0.000220908
0.000220954
0.000220912
0.000220954
0.000220916
0.000220956
0.000220913
0.00022096
0.00022091
0.000220957
0.000220913
0.00022095
0.000220912
0.00022095
0.000220908
0.000220951
0.000220908
0.000220948
0.000214722
0.000214762
0.00021472
0.000214764
0.000214722
0.000214761
0.000214724
0.00021476
0.000214721
0.00021476
0.000214719
0.000214756
0.000214719
0.000214754
0.000214714
0.000214757
0.000214712
0.000214755
0.000214718
0.000214753
0.00021472
0.000214759
0.000214718
0.000214764
0.000214723
0.000214762
0.000214726
0.000214765
0.000214722