/*--------------------------------*- C++ -*----------------------------------*\
  =========                 |
  \\      /  F ield         | OpenFOAM: The Open Source CFD Toolbox
   \\    /   O peration     | Website:  https://openfoam.org
    \\  /    A nd           | Version:  10
     \\/     M anipulation  |
\*---------------------------------------------------------------------------*/
FoamFile
{
    format      ascii;
    class       surfaceScalarField;
    location    "20";
    object      phi;
}
// * * * * * * * * * * * * * * * * * * * * * * * * * * * * * * * * * * * * * //

dimensions      [0 3 -1 0 0 0 0];

internalField   nonuniform List<scalar> 
74080
(
0.00503505
-2.25147e-06
2.73277e-06
0.00503249
1.07585e-06
5.98822e-06
0.00503415
3.29685e-06
-1.05127e-05
0.00503234
-1.4232e-06
4.68954e-06
0.0050295
1.60494e-06
-1.84967e-06
0.00502815
7.63059e-06
-5.13544e-06
0.0050303
-2.97611e-06
1.4795e-06
0.00502377
3.77404e-06
-1.86663e-06
0.00502748
-1.95896e-06
7.0812e-07
0.00502885
-7.66734e-07
1.72839e-06
0.00502573
2.26357e-06
3.38951e-06
0.00503167
-7.72354e-06
7.99234e-07
0.00502746
2.25175e-06
5.8142e-06
0.00503161
2.07582e-06
6.86016e-06
0.00503191
-6.34423e-06
-5.11559e-06
0.00502959
-1.55221e-07
1.01062e-05
0.00503437
-5.58033e-07
3.81949e-06
0.00503349
-7.86206e-06
-6.95346e-06
0.00503455
-1.85493e-06
8.85592e-06
0.00503579
-3.37667e-06
-2.41734e-06
0.00503863
-3.09057e-06
-5.35703e-07
0.00503972
-1.29516e-06
4.18338e-06
0.00503694
2.14285e-06
-4.41656e-06
0.00504265
1.79588e-06
1.0169e-06
0.00503976
-3.96284e-06
4.65445e-06
0.00503799
7.78598e-06
-4.8278e-06
0.00504271
1.03491e-06
-1.4277e-06
0.00503752
-4.29476e-06
4.49116e-06
0.0050406
6.27718e-06
-3.41776e-06
0.00504109
-6.11091e-07
3.41653e-06
0.0050376
4.03493e-06
-2.34179e-06
0.0050385
5.62465e-06
2.1486e-06
0.00504076
-1.88868e-06
4.66582e-06
0.00503564
6.53641e-06
-5.94287e-06
0.00503587
-2.18768e-06
5.19807e-06
0.00504056
1.34145e-06
4.59704e-06
0.00503351
4.54601e-06
-5.67708e-06
0.00503709
-4.44207e-06
1.35203e-06
0.00503546
6.47697e-06
9.01423e-06
9.6351e-07
-8.95927e-06
0.00457699
-4.06097e-06
6.4567e-06
0.00457366
3.09346e-06
4.34758e-06
0.00457789
-1.73152e-08
-8.80581e-06
0.00457494
-3.85258e-07
4.60731e-06
0.00457107
5.18686e-06
-3.85257e-06
0.00457207
7.78646e-06
-2.32544e-06
0.00457083
-2.75636e-06
-1.01631e-06
0.00456646
8.71801e-06
-2.75986e-06
0.00456885
-4.39737e-06
6.28439e-06
0.00457103
-2.30433e-06
-1.822e-06
0.00456994
3.17668e-06
4.82263e-06
0.00457274
-1.04894e-05
4.86456e-06
0.00457024
4.82948e-06
3.84738e-06
0.00457416
-1.39365e-06
8.45147e-06
0.00457401
-5.53861e-06
-4.80515e-06
0.0045699
3.20419e-06
1.06871e-05
0.00457652
-5.80497e-06
2.56195e-06
0.00457713
-8.44734e-06
-6.58232e-06
0.00457515
3.04034e-07
9.70894e-06
0.00457842
-6.73618e-06
-3.52738e-06
0.00458265
-6.77686e-06
-1.30204e-06
0.00458112
8.91671e-07
4.3929e-06
0.00457954
2.39564e-06
-3.02568e-06
0.00458553
-1.93456e-06
-1.05701e-07
0.00457983
-1.02066e-09
2.89085e-06
0.00457946
8.55204e-06
-3.82839e-06
0.00458525
-1.7208e-06
-1.33669e-06
0.00457864
-3.51702e-07
2.95278e-06
0.00458296
3.7963e-06
-2.7384e-06
0.00458324
6.90833e-07
2.92135e-06
0.00457847
7.63107e-06
-1.63385e-06
0.00458179
4.72801e-06
1.4767e-06
0.00458
-3.89697e-07
5.07434e-06
0.00457727
9.1803e-06
-5.07021e-06
0.00457894
-2.39612e-06
4.29236e-06
0.0045801
-2.01136e-08
6.18829e-06
0.00457769
7.14358e-06
-6.62307e-06
0.00457853
-5.72574e-06
3.14987e-06
0.00457596
8.45682e-06
8.86869e-06
5.11052e-08
-8.82853e-06
0.0041596
-4.58832e-06
1.13353e-05
0.00415769
3.39027e-06
9.92187e-07
0.00416371
-5.83825e-06
-5.47932e-06
0.00415856
2.6574e-06
4.99163e-06
0.00415535
8.4463e-06
-6.53791e-06
0.00415765
6.54177e-06
-5.02059e-07
0.00415135
2.70017e-06
-3.35652e-06
0.00415181
9.30996e-06
-2.45532e-06
0.00415192
-4.79969e-06
9.55733e-06
0.00415371
-3.0001e-06
-4.70617e-06
0.00415656
3.95709e-07
7.84735e-06
0.00415488
-9.05163e-06
7.83811e-06
0.004156
3.97399e-06
1.85517e-06
0.00415836
-2.86591e-06
1.06387e-05
0.00415609
-2.83614e-06
-2.55051e-06
0.00415372
5.13302e-06
9.71244e-06
0.00416068
-1.09771e-05
1.72626e-06
0.00415994
-7.8002e-06
-4.60244e-06
0.00415853
1.86365e-06
8.61814e-06
0.00416391
-1.18367e-05
-4.37991e-06
0.00416619
-8.29732e-06
-1.06033e-06
0.00416498
1.61361e-06
4.16015e-06
0.00416496
1.98432e-06
-1.21341e-06
0.0041691
-4.2122e-06
-5.41313e-07
0.00416167
5.05824e-06
6.44333e-07
0.00416369
8.07763e-06
-2.02703e-06
0.00416825
-3.93464e-06
-1.58735e-06
0.00416188
3.71788e-06
9.14879e-07
0.00416768
9.91323e-08
-5.86661e-07
0.00416549
4.14119e-06
1.99115e-06
0.00416341
8.85848e-06
-8.65886e-07
0.00416576
4.74825e-06
1.96903e-06
0.00415955
5.39341e-06
4.10758e-06
0.00416251
6.34221e-06
-3.31019e-06
0.00416256
-1.17236e-06
4.16976e-06
0.00416123
8.83985e-07
5.88004e-06
0.00416416
4.74296e-06
-6.24975e-06
0.00416046
-3.12786e-06
6.43398e-06
0.00415843
1.00681e-05
6.26856e-06
-3.42332e-06
-6.81028e-06
0.00377971
-5.35562e-06
1.49596e-05
0.00378136
-6.58088e-07
-8.81518e-07
0.00378649
-1.16897e-05
-1.72427e-06
0.00378031
6.71563e-06
4.18924e-06
0.0037792
9.91248e-06
-8.39651e-06
0.00377938
7.27429e-06
-1.57916e-07
0.00377033
1.12051e-05
-4.70266e-06
0.00377447
6.15567e-06
-1.15629e-06
0.00377199
-2.32941e-06
1.05134e-05
0.00377473
-4.37406e-06
-4.69384e-06
0.00378003
-4.7271e-06
1.10906e-05
0.00377602
-4.92486e-06
8.99194e-06
0.00378019
5.0944e-07
1.63116e-06
0.00377951
-9.79706e-07
1.32206e-05
0.00377562
1.32629e-06
-2.32383e-07
0.00377687
4.34429e-06
8.56673e-06
0.00378195
-1.41635e-05
1.497e-06
0.00377935
-5.63665e-06
-2.7082e-06
0.00378134
4.88759e-07
6.60442e-06
0.00378684
-1.67072e-05
-4.97605e-06
0.00378686
-7.97132e-06
-1.01475e-07
0.00378745
-4.20474e-08
3.83733e-06
0.00378878
1.15432e-06
2.68414e-07
0.00378926
-3.67965e-06
-6.9352e-07
0.00378197
1.0053e-05
-1.51295e-06
0.00378628
6.43099e-06
-3.54688e-07
0.00378787
-4.11654e-06
-2.51253e-06
0.00378401
6.00012e-06
-4.74071e-07
0.00378951
-3.80502e-06
2.10281e-06
0.00378663
7.32684e-06
5.98127e-07
0.00378751
7.86345e-06
6.96505e-07
0.00378472
8.9523e-06
3.37264e-06
0.00377906
1.02967e-05
2.1391e-06
0.00378506
5.33942e-07
1.14032e-07
0.00378249
1.97972e-06
4.23709e-06
0.00378259
2.48042e-07
4.2118e-06
0.00378725
6.67737e-07
-3.59148e-06
0.00377997
2.71292e-06
8.18793e-06
0.00377977
9.88978e-06
2.98832e-06
-7.59317e-06
-2.88154e-06
0.0034347
-9.83631e-06
1.77568e-05
0.00344077
-1.0283e-05
5.93535e-07
0.00344246
-1.53729e-05
1.67278e-06
0.00343819
8.84589e-06
2.77089e-06
0.00343803
1.06232e-05
-9.07266e-06
0.00343345
1.28941e-05
-1.48826e-06
0.00342564
1.87521e-05
-5.22079e-06
0.00343
2.37786e-06
-4.1883e-08
0.00342643
2.16827e-06
1.0138e-05
0.00343102
-7.13413e-06
-2.67038e-06
0.00343624
-9.18309e-06
1.30364e-05
0.0034337
-1.20154e-06
9.2027e-06
0.00343816
-2.94229e-06
4.18679e-06
0.00343402
4.88132e-06
1.48367e-05
0.00343075
5.06674e-06
2.2165e-06
0.00343366
2.64644e-06
8.41494e-06
0.00343664
-1.5251e-05
1.1607e-06
0.00343374
-3.35194e-06
-1.39251e-06
0.0034384
-2.83082e-06
4.53691e-06
0.00344334
-2.10298e-05
-5.42725e-06
0.00344245
-7.3507e-06
8.0314e-07
0.00344498
-3.64596e-06
4.19372e-06
0.00344685
-2.16154e-07
1.64515e-06
0.00344315
2.91309e-07
-6.16518e-07
0.00343789
1.39299e-05
-2.72839e-06
0.00344271
4.47506e-06
2.08187e-08
0.00344139
-2.07634e-06
-4.00009e-06
0.00344115
5.26916e-06
-5.26532e-07
0.00344494
-7.52705e-06
4.71907e-06
0.00344456
7.80347e-06
-1.05182e-06
0.00344456
7.81306e-06
3.9358e-06
0.00343723
1.6642e-05
4.12913e-06
0.00343525
1.14608e-05
-1.29073e-07
0.00343945
-4.68017e-06
5.32919e-06
0.00343765
3.75947e-06
3.04773e-06
0.0034402
-3.3037e-06
3.31196e-06
0.00344269
-1.59151e-06
6.02152e-07
0.00343469
9.48997e-06
7.6058e-06
0.00343577
7.95719e-06
1.37211e-06
-1.16436e-05
2.70778e-06
0.00312261
-2.26986e-05
2.16205e-05
0.00313097
-2.45364e-05
5.77651e-06
0.00313001
-1.78247e-05
3.4284e-06
0.00312939
7.25081e-06
2.12342e-06
0.00312728
1.34566e-05
-8.93881e-06
0.00311864
2.25535e-05
-3.37898e-06
0.00311343
2.41463e-05
-5.38391e-06
0.00311508
1.11841e-06
4.12884e-07
0.00311263
6.9331e-06
1.03699e-05
0.00311849
-1.03843e-05
1.01136e-06
0.00312356
-1.22906e-05
1.35107e-05
0.0031244
5.48719e-07
9.95154e-06
0.00312533
-2.68446e-06
7.95112e-06
0.00312076
1.20034e-05
1.53116e-05
0.00311818
8.40544e-06
5.55677e-06
0.00312027
2.33734e-06
8.56976e-06
0.00312249
-1.53e-05
5.59898e-07
0.00312006
-1.33933e-06
-1.09391e-06
0.00312605
-6.67454e-06
1.88783e-06
0.00313057
-2.52673e-05
-5.96239e-06
0.00312967
-7.29347e-06
1.62931e-06
0.00313421
-9.32839e-06
5.28723e-06
0.0031358
-2.05152e-06
2.62648e-06
0.00312845
7.3838e-06
1.94936e-07
0.00312592
1.63663e-05
-3.40548e-06
0.00312925
3.64327e-06
-1.46902e-06
0.00312624
1.3354e-06
-5.11738e-06
0.00312895
1.28359e-06
7.2336e-07
0.00313226
-1.2486e-05
6.2215e-06
0.00313533
4.59426e-06
-1.3055e-06
0.00313073
1.18345e-05
8.35338e-06
0.00312236
2.50008e-05
3.41074e-06
0.0031227
9.14274e-06
-5.16155e-07
0.00312319
-7.42383e-06
1.02943e-05
0.00312616
1.65812e-07
1.06081e-06
0.00312921
-8.49966e-06
3.98754e-06
0.00312832
-5.27468e-07
4.37494e-06
0.00312199
1.52908e-05
5.35118e-06
0.00312191
5.69571e-06
1.55838e-06
-1.68843e-05
7.88514e-06
0.00283994
-4.77649e-05
2.81866e-05
0.00284872
-4.34671e-05
1.33907e-05
0.00284776
-2.20162e-05
4.75324e-06
0.00284999
2.21974e-06
2.62239e-06
0.00284399
2.01833e-05
-8.62862e-06
0.00283318
3.42695e-05
-5.28745e-06
0.00282955
2.83721e-05
-5.76889e-06
0.0028277
3.29193e-06
1.02137e-06
0.00282779
1.07602e-05
1.12518e-05
0.00283416
-1.26288e-05
3.8665e-06
0.00284033
-1.44636e-05
1.31044e-05
0.0028434
1.8516e-06
1.1738e-05
0.00284025
2.48607e-06
1.12541e-05
0.00283733
1.86132e-05
1.61256e-05
0.00283338
1.34418e-05
9.93349e-06
0.00283446
3.41999e-06
8.7097e-06
0.00283704
-1.51389e-05
1.50548e-07
0.00283484
1.19243e-06
-1.56539e-06
0.0028417
-1.06846e-05
-7.6689e-07
0.00284555
-2.94563e-05
-6.74905e-06
0.0028458
-8.86874e-06
2.14889e-06
0.00285225
-1.74491e-05
7.21831e-06
0.00285262
-3.90546e-06
4.17482e-06
0.00284304
1.67662e-05
2.05209e-06
0.00284228
1.77859e-05
-4.00005e-06
0.00284322
5.02779e-06
-4.93529e-06
0.0028394
5.50204e-06
-5.83953e-06
0.00284426
-6.442e-06
3.43113e-06
0.00284933
-2.08367e-05
7.67219e-06
0.00285435
-1.36869e-06
7.77249e-07
0.00284468
2.02636e-05
1.27191e-05
0.00283736
3.23896e-05
1.98851e-06
0.0028361
5.68794e-06
1.36596e-06
0.00283576
-1.15192e-05
1.44403e-05
0.00284449
-1.11464e-05
-4.25608e-07
0.00284569
-1.36102e-05
6.27019e-06
0.00284311
2.68124e-06
7.42908e-06
0.00283787
2.09593e-05
2.61297e-06
0.00283416
4.43723e-06
2.6098e-06
-2.76884e-05
1.30246e-05
0.00258216
-8.79791e-05
3.80367e-05
0.00259211
-6.88706e-05
2.2336e-05
0.00259304
-2.99716e-05
6.36734e-06
0.00259588
-4.38978e-06
4.20309e-06
0.00258641
3.00647e-05
-7.26101e-06
0.00257441
4.72459e-05
-7.0377e-06
0.00257058
3.33067e-05
-7.27789e-06
0.00256602
7.68069e-06
2.59192e-06
0.00256919
1.33556e-05
1.33054e-05
0.0025758
-1.2462e-05
5.45767e-06
0.00258332
-1.4933e-05
1.25763e-05
0.00258706
5.15171e-06
1.39188e-05
0.00258209
1.05757e-05
1.36573e-05
0.00258003
2.52799e-05
1.80017e-05
0.00257364
2.12709e-05
1.42602e-05
0.00257452
5.51904e-06
8.52053e-06
0.00257726
-1.43723e-05
2.61178e-07
0.00257575
4.53996e-06
-3.98498e-06
0.00258297
-1.43373e-05
-4.45733e-06
0.0025858
-3.35361e-05
-7.28553e-06
0.00258817
-1.30103e-05
2.41722e-06
0.00259606
-2.85741e-05
9.57795e-06
0.00259509
-6.06021e-06
7.0347e-06
0.00258433
2.80829e-05
4.62077e-06
0.00258375
1.95072e-05
-5.72963e-06
0.00258228
9.14471e-06
-9.39897e-06
0.00257785
9.65192e-06
-5.45549e-06
0.00258473
-1.87163e-05
6.41842e-06
0.00259337
-3.43353e-05
9.89443e-06
0.00259878
-8.978e-06
5.06774e-06
0.00258578
3.18003e-05
1.66386e-05
0.00257789
4.03752e-05
1.67093e-06
0.00257304
2.49893e-06
4.63829e-06
0.00257536
-2.14844e-05
1.76142e-05
0.00258779
-2.90786e-05
-9.10894e-07
0.00258723
-1.89366e-05
9.52245e-06
0.00258529
6.28511e-06
9.99278e-06
0.0025782
2.96147e-05
-2.2763e-07
0.00256954
4.3174e-06
3.31594e-06
-5.02912e-05
1.90442e-05
0.00234335
-0.000146709
5.15237e-05
0.00235687
-0.000102714
3.27804e-05
0.0023608
-4.28397e-05
8.6523e-06
0.00236361
-1.13895e-05
6.61817e-06
0.0023518
4.22007e-05
-4.8624e-06
0.00233908
6.14322e-05
-9.36365e-06
0.00233397
3.94739e-05
-9.23305e-06
0.00232826
1.20322e-05
5.72912e-06
0.00233432
1.52592e-05
1.46999e-05
0.00234087
-8.61326e-06
5.02611e-06
0.00234954
-1.25588e-05
1.19045e-05
0.00235381
1.06387e-05
1.57721e-05
0.00234826
2.12268e-05
1.47867e-05
0.00234537
3.39817e-05
2.09675e-05
0.00233687
3.18842e-05
1.82959e-05
0.00233833
7.45628e-06
8.60802e-06
0.00234099
-1.22994e-05
5.73228e-07
0.00234011
9.34895e-06
-6.83702e-06
0.00234662
-1.66833e-05
-7.98628e-06
0.00234906
-3.82944e-05
-8.43131e-06
0.0023547
-2.10736e-05
1.89219e-06
0.00236336
-4.33583e-05
1.32219e-05
0.00236172
-9.7108e-06
1.25568e-05
0.00234996
4.20954e-05
7.85593e-06
0.00234799
2.32337e-05
-8.82977e-06
0.00234416
1.61522e-05
-1.49713e-05
0.00233866
1.35086e-05
-5.27986e-06
0.00234764
-3.6287e-05
1.0824e-05
0.00236119
-5.41182e-05
1.46742e-05
0.00236734
-1.83561e-05
1.03743e-05
0.00235256
4.52027e-05
2.05427e-05
0.00234054
5.21496e-05
2.79336e-06
0.00233209
-1.30721e-06
8.53101e-06
0.0023384
-4.02184e-05
1.99872e-05
0.00235161
-5.18194e-05
-1.59326e-07
0.00235137
-2.58809e-05
1.38279e-05
0.00235036
1.16411e-05
1.26211e-05
0.00233842
4.59503e-05
-4.49118e-06
0.0023247
2.5156e-06
3.22964e-06
-9.06567e-05
2.63489e-05
0.00210949
-0.000224099
6.70456e-05
0.00213045
-0.00014731
4.38797e-05
0.00214056
-6.14504e-05
1.06003e-05
0.00214643
-2.00159e-05
9.32286e-06
0.00213565
5.44049e-05
-1.27746e-06
0.00212324
7.73422e-05
-1.24953e-05
0.00211718
4.682e-05
-1.18998e-05
0.00211208
1.43267e-05
1.03514e-05
0.00212048
1.74528e-05
1.59229e-05
0.00212655
6.63652e-07
2.69852e-06
0.00213613
-6.2974e-06
1.14146e-05
0.00214133
1.90061e-05
1.64542e-05
0.00213606
3.43271e-05
1.50589e-05
0.00213173
4.5159e-05
2.46193e-05
0.00212164
4.4595e-05
2.13942e-05
0.00212312
9.59931e-06
8.85124e-06
0.00212577
-8.37078e-06
4.98541e-07
0.00212565
1.63431e-05
-1.20626e-05
0.00213041
-1.72153e-05
-1.19639e-05
0.00213302
-4.55359e-05
-8.59359e-06
0.0021427
-3.5072e-05
4.96593e-07
0.00215232
-6.30383e-05
1.71334e-05
0.0021513
-1.52811e-05
2.03817e-05
0.00213757
5.93794e-05
1.16605e-05
0.00213285
3.02302e-05
-1.34553e-05
0.00212672
2.67541e-05
-2.13942e-05
0.00211851
1.96265e-05
-6.79277e-06
0.00212929
-5.79116e-05
1.53035e-05
0.00214947
-8.05233e-05
2.0781e-05
0.00215838
-3.10056e-05
1.66385e-05
0.00214349
5.85538e-05
2.47683e-05
0.00212609
6.89343e-05
5.06109e-06
0.00211409
-6.45578e-06
1.282e-05
0.00212159
-6.72665e-05
2.24304e-05
0.00213262
-7.64059e-05
1.35287e-06
0.00213441
-3.43183e-05
1.90064e-05
0.0021344
2.23196e-05
1.52311e-05
0.00211658
7.33127e-05
-9.68388e-06
0.00209373
1.16269e-06
2.06e-06
-0.000145779
3.45641e-05
0.00186029
-0.000309452
8.11e-05
0.00189237
-0.000200142
5.03086e-05
0.00191629
-8.77787e-05
7.22638e-06
0.00193307
-3.366e-05
8.93778e-06
0.0019302
6.38952e-05
5.5781e-07
0.001921
9.3959e-05
-1.88381e-05
0.00191648
5.30155e-05
-1.529e-05
0.00191475
1.16781e-05
1.56066e-05
0.00192458
2.07974e-05
1.53648e-05
0.00192994
1.53079e-05
-1.94939e-06
0.00194079
3.3754e-06
9.59386e-06
0.00194785
3.05341e-05
1.44391e-05
0.00194278
5.11877e-05
1.30407e-05
0.00193679
5.97553e-05
2.73981e-05
0.00192622
5.72966e-05
2.3741e-05
0.00192731
1.21717e-05
8.64043e-06
0.00192943
-7.19683e-07
1.94439e-07
0.00192871
2.67981e-05
-1.66726e-05
0.00193082
-1.63512e-05
-1.57196e-05
0.00193524
-5.87389e-05
-9.16192e-06
0.00194994
-5.84849e-05
-9.9437e-07
0.00196259
-9.17465e-05
2.37019e-05
0.00196237
-2.18642e-05
3.13745e-05
0.0019436
8.3259e-05
1.60185e-05
0.00193561
4.06981e-05
-1.89665e-05
0.00192851
4.21206e-05
-3.11796e-05
0.00191603
3.50241e-05
-1.21181e-05
0.001926
-7.58792e-05
1.98017e-05
0.00195202
-0.000106362
2.63214e-05
0.0019641
-4.49713e-05
2.05967e-05
0.00195195
6.72326e-05
2.78547e-05
0.00193401
8.54512e-05
7.93548e-06
0.00192282
-1.7918e-05
1.70188e-05
0.00192858
-0.000100594
2.26509e-05
0.00193423
-9.79813e-05
2.18168e-07
0.00193706
-4.00635e-05
2.41422e-05
0.00194042
4.1079e-05
1.73267e-05
0.00191943
0.000111276
-1.63478e-05
0.00187489
9.21631e-06
5.44811e-07
-0.000198946
4.36988e-05
0.0015931
-0.000387551
9.5463e-05
0.00163633
-0.000258783
4.67743e-05
0.00168031
-0.000122417
-1.20415e-05
0.00171648
-5.65318e-05
-5.14232e-07
0.00172906
6.76164e-05
-2.12181e-06
0.00172772
0.000109747
-2.88121e-05
0.00172859
5.6479e-05
-2.1079e-05
0.00173292
3.21335e-06
2.06806e-05
0.00174413
2.78722e-05
1.19798e-05
0.00174863
3.70056e-05
-1.01283e-05
0.0017609
1.7317e-05
6.47339e-06
0.00177011
4.78116e-05
9.98563e-06
0.00176621
7.11621e-05
9.23897e-06
0.00175992
7.53916e-05
2.86702e-05
0.0017488
6.86531e-05
2.42102e-05
0.00174837
1.70621e-05
7.10897e-06
0.00175017
1.19571e-05
-2.01101e-06
0.00174812
4.09589e-05
-2.41628e-05
0.00174646
-1.56406e-05
-1.89842e-05
0.00175352
-8.26575e-05
-5.32764e-06
0.00177337
-9.34784e-05
-9.97782e-07
0.0017872
-0.000125948
3.02927e-05
0.00178702
-2.98135e-05
4.73258e-05
0.00176513
0.000106314
2.50698e-05
0.00175795
4.8803e-05
-2.49715e-05
0.00175103
6.79046e-05
-4.75972e-05
0.00173009
7.57947e-05
-2.55793e-05
0.00173479
-7.28177e-05
1.86093e-05
0.00176282
-0.00011634
2.9783e-05
0.00177503
-5.43506e-05
2.10865e-05
0.00177061
6.38545e-05
2.74461e-05
0.00176203
9.06656e-05
1.09896e-05
0.00174993
-3.90393e-05
2.44767e-05
0.00174544
-0.000135263
2.11349e-05
0.00174369
-0.000111915
-6.36818e-06
0.001755
-4.32163e-05
2.55662e-05
0.00177874
5.72215e-05
1.71738e-05
0.00176098
0.000154475
-2.34387e-05
0.00167501
4.54996e-05
5.5196e-07
-0.000221779
5.63463e-05
0.00135889
-0.00044319
0.000118209
0.00139779
-0.000313793
3.92824e-05
0.00145284
-0.000161478
-4.25627e-05
0.00150515
-8.95146e-05
-2.09578e-05
0.00153287
6.43564e-05
-1.25458e-05
0.00154281
0.000118991
-4.45836e-05
0.00155363
5.15693e-05
-3.11252e-05
0.00156416
-1.21768e-05
2.18138e-05
0.00157809
3.82532e-05
3.58679e-06
0.00158467
6.2546e-05
-2.06686e-05
0.00159675
3.79062e-05
3.3656e-06
0.00160501
7.62074e-05
3.62085e-06
0.00160442
9.34374e-05
6.40612e-07
0.00160055
8.67866e-05
2.65037e-05
0.00158642
7.79845e-05
2.42335e-05
0.00158385
2.58067e-05
6.00288e-06
0.00158894
2.4317e-05
-2.79646e-06
0.00158721
5.19637e-05
-3.25823e-05
0.00158118
-1.694e-05
-2.59426e-05
0.00158818
-0.000117186
-2.35937e-06
0.00160865
-0.000138023
1.16598e-06
0.00161607
-0.000159011
4.07093e-05
0.00161463
-3.87905e-05
6.98968e-05
0.00160208
0.000116475
4.17392e-05
0.00160261
4.70781e-05
-2.89468e-05
0.00159306
0.000108953
-7.34504e-05
0.00155925
0.000150804
-5.12797e-05
0.00155869
-3.79388e-05
1.13324e-05
0.00159082
-9.84473e-05
2.59042e-05
0.00160003
-5.49783e-05
1.3501e-05
0.00160608
3.75195e-05
2.87668e-05
0.00160825
7.40981e-05
2.46444e-05
0.00157287
-5.5603e-05
3.63995e-05
0.00153421
-0.000150156
1.23627e-05
0.00152446
-0.000114888
-2.08663e-05
0.00156767
-6.40791e-05
2.65713e-05
0.00163664
4.66135e-05
1.61547e-05
0.00162347
0.000193835
-3.31314e-05
0.00150137
9.99738e-05
7.47416e-07
-0.000217855
7.76712e-05
0.00122047
-0.000462275
0.000141724
0.00123121
-0.000336079
2.58312e-05
0.00126959
-0.000181222
-7.38944e-05
0.00131823
-0.000116966
-3.28261e-05
0.00134888
5.26435e-05
-1.30967e-05
0.00136961
0.00011562
-6.08157e-05
0.00139233
3.60856e-05
-4.48606e-05
0.00140455
-2.83598e-05
1.8081e-05
0.00142415
5.35691e-05
-1.06111e-05
0.00144028
8.78345e-05
-3.12295e-05
0.00144662
7.55282e-05
1.41416e-06
0.00144425
0.000126613
4.6197e-07
0.00145283
0.000108986
-4.51094e-06
0.00145995
8.6832e-05
1.9804e-05
0.00143384
9.51682e-05
2.17082e-05
0.00142669
3.8406e-05
1.2525e-05
0.00144404
1.94428e-05
1.85658e-06
0.00144921
4.89554e-05
-5.0725e-05
0.00144274
-2.45478e-05
-3.56439e-05
0.00144331
-0.000158556
1.04312e-05
0.0014521
-0.000175627
-1.15381e-06
0.00143598
-0.000180202
5.00889e-05
0.00142358
-5.68915e-05
0.000113922
0.00142734
0.000104542
7.65324e-05
0.00144104
4.11183e-05
-3.95202e-05
0.00143991
0.00015961
-0.000109437
0.00140733
0.000235229
-7.56603e-05
0.00140108
1.87538e-05
1.39939e-05
0.00143568
-6.56149e-05
2.2484e-05
0.00144518
-7.54195e-05
1.02707e-05
0.00146579
-2.96865e-05
4.75169e-05
0.0014743
4.08189e-05
4.07882e-05
0.00139769
-4.5376e-05
3.60196e-05
0.00132117
-0.000121314
-1.56421e-05
0.00131475
-9.73117e-05
-3.82274e-05
0.00138999
-0.000106741
3.98818e-05
0.00148984
-3.41323e-06
1.71938e-05
0.00147696
0.000204436
-4.48102e-05
0.00136096
0.000131328
-7.35658e-08
-0.00021581
0.000101409
0.00110927
-0.000447277
0.000136425
0.00111557
-0.0003074
-2.85982e-05
0.00113883
-0.000153107
-0.000123574
0.0011645
-0.000101392
-5.53413e-05
0.00118225
5.38689e-05
-2.19999e-05
0.00121293
0.000103583
-8.1342e-05
0.00124393
1.52197e-05
-5.46405e-05
0.00125447
-3.7754e-05
1.40064e-05
0.00128748
7.05333e-05
-2.42725e-05
0.00131508
0.00010964
-4.22114e-05
0.0013072
0.000126647
7.10335e-07
0.00129064
0.000185734
5.5865e-06
0.00131425
0.00011151
-1.27992e-05
0.00133088
7.88718e-05
9.82496e-06
0.00128646
0.000119903
3.1321e-05
0.00128193
4.54829e-05
3.48977e-05
0.00131149
-3.76065e-06
-2.83875e-06
0.00132722
1.28416e-05
-8.69087e-05
0.00132423
-5.03091e-05
-3.34097e-05
0.00128394
-0.000165415
2.84228e-05
0.00123496
-0.00017149
-2.50341e-06
0.0011756
-0.000205855
7.94699e-05
0.00115777
-0.000102677
0.000161125
0.00118637
6.95528e-05
7.72737e-05
0.00122692
3.16137e-05
-8.39755e-05
0.00127221
0.00018432
-0.000139645
0.00125475
0.000314255
-7.63147e-05
0.00123375
9.47247e-05
2.96204e-05
0.0012749
-8.15262e-05
3.66544e-05
0.00128524
-0.000176153
4.2229e-05
0.0013207
-0.000136264
7.39051e-05
0.00134313
1.35811e-06
2.79398e-05
0.00125318
-2.72334e-05
1.17311e-05
0.00118881
-7.84715e-05
-6.01413e-05
0.00119198
-6.12703e-05
-3.86723e-05
0.00123516
-0.000133051
8.80055e-05
0.00130947
-6.17101e-05
2.63245e-05
0.00129461
0.0001671
-4.95958e-05
0.00120147
0.000117568
6.80897e-06
-0.000225642
0.000116461
0.000960378
-0.00042741
0.000113786
0.000997555
-0.000260928
-9.13573e-05
0.00102068
-7.42921e-05
-0.000172023
0.00103889
-5.84137e-05
-6.81948e-05
0.0010685
3.16965e-05
-3.77539e-05
0.00109215
9.5694e-05
-0.000119587
0.00109744
1.38194e-05
-6.33084e-05
0.00110997
-4.24081e-05
8.76408e-07
0.00117302
7.23627e-05
-4.68652e-05
0.00120511
0.000128092
-4.59961e-05
0.001185
0.000176505
7.12894e-06
0.00117685
0.000238288
-1.15479e-05
0.00120115
0.000134241
-4.206e-05
0.00118716
0.000102437
1.20488e-05
0.00115207
0.000120085
5.98845e-05
0.00118438
2.56511e-05
4.25446e-05
0.00119251
-1.67804e-05
-4.2948e-05
0.00121082
-5.81023e-05
-0.000101369
0.00118365
-6.30361e-05
3.35203e-05
0.00100116
-1.68147e-05
4.47928e-05
0.000872651
-0.000123465
-1.86816e-05
0.000865328
-0.000327325
0.000108718
0.000919033
-0.000221478
0.000158267
0.000971104
9.12874e-06
-1.21812e-05
0.00103684
1.35459e-05
-0.000163335
0.00112789
0.00021946
-0.000159195
0.0011201
0.000415592
-5.20257e-05
0.00110537
0.000140444
5.89468e-05
0.00111073
-0.000154688
6.34188e-05
0.00105879
-0.000310658
9.92647e-05
0.0010945
-0.000249547
8.47203e-05
0.00112771
-5.81617e-05
2.00454e-05
0.00106803
-6.86049e-05
2.36146e-05
0.00107685
-8.42497e-05
-9.19408e-05
0.0011128
-4.16248e-05
-2.62649e-05
0.0010967
-0.000127176
0.000137674
0.00109593
-9.44063e-05
2.29107e-05
0.00106774
0.000107141
-5.26772e-05
0.00100323
8.36503e-05
1.31125e-05
-0.000237529
0.000124391
0.000845364
-0.000433568
0.000128699
0.000880457
-0.000191512
-0.000118742
0.00088597
-1.62839e-05
-0.000137286
0.000905059
-8.26694e-05
-2.69862e-05
0.000916585
2.59632e-05
-9.1459e-05
0.000899371
0.000120273
-0.000166475
0.000912336
-1.93976e-05
-6.04545e-05
0.000975293
-0.000110629
2.04631e-05
0.00106627
4.00785e-05
-1.55191e-05
0.00106449
0.000168099
-1.41815e-05
0.00104665
0.000229642
4.80993e-06
0.00108353
0.000266243
-2.95392e-05
0.00106697
0.000202311
-4.15803e-05
0.000996066
0.000139411
6.2795e-05
0.0010387
4.00133e-05
9.90054e-05
0.00112292
-9.15351e-06
1.09046e-06
0.00107954
-1.62098e-05
-7.16726e-05
0.00104627
-0.000130897
-8.98292e-06
0.000939001
2.08214e-05
9.84776e-05
0.00076284
0.000148324
-1.48075e-05
0.000742123
-0.00017556
-3.87101e-05
0.000798633
-0.000483109
0.000107926
0.000839564
-0.000322244
6.89422e-05
0.000847325
-4.05906e-05
-0.000108038
0.000901871
2.01259e-05
-0.000157438
0.000990342
0.000315848
-0.000127411
0.0010394
0.000443968
-2.9218e-05
0.00104841
0.000104638
6.16764e-05
0.000916355
-0.00016338
6.6195e-05
0.000778595
-0.000387736
0.00012707
0.000825511
-0.000357335
9.52836e-05
0.000860049
-0.000140714
7.37602e-05
0.000844361
-0.000150208
4.7614e-05
0.000921686
-0.000134322
-0.000125761
0.00102118
-5.35358e-05
-4.78555e-05
0.00102127
-9.44717e-05
0.000102855
0.00097208
-8.54548e-05
-2.45818e-05
0.000919989
7.30135e-05
-8.8433e-05
0.000878674
5.756e-05
-2.06537e-05
-0.000299353
0.000150493
0.000766447
-0.000431369
8.15728e-05
0.000763027
-6.67781e-05
-0.000165654
0.000727334
-1.1551e-05
-9.79699e-05
0.000717236
-0.00014548
1.48046e-05
0.000707815
4.10578e-05
-6.39575e-05
0.000731292
9.38803e-05
-0.000117111
0.000809202
-0.000177367
1.08086e-05
0.000909704
-0.000283434
0.000117561
0.0009568
2.27421e-06
4.4171e-05
0.000906056
0.000202766
1.39754e-05
0.000940834
0.000246241
1.15435e-05
0.0010069
0.000303167
-2.90794e-05
0.000931127
0.000276632
-5.02346e-06
0.000860074
0.000125921
0.000116064
0.000961602
-1.38814e-05
5.79665e-05
0.00102464
-7.25358e-06
-4.31697e-05
0.000931777
-4.90295e-05
-2.35236e-05
0.00086019
-0.000128316
1.05654e-05
0.000800743
0.000128974
2.92575e-05
0.000776588
0.000142667
-4.18748e-05
0.000785491
-0.000200498
-3.17785e-05
0.000762236
-0.000479644
2.28073e-05
0.000760161
-0.000395666
-7.92588e-05
0.000790237
-0.000124956
-0.000155667
0.000840052
5.96241e-05
-0.000109928
0.000878593
0.000412901
-8.50555e-05
0.000971145
0.000357698
-6.23864e-06
0.00100926
5.7492e-06
6.26811e-05
0.000835077
-0.000177629
7.45398e-05
0.000692267
-0.000462168
0.000147683
0.000713187
-0.000436442
0.000131769
0.000720049
-0.000174648
8.42381e-05
0.000736705
-0.000179181
-6.2117e-05
0.00080786
-0.000177339
-0.000169249
0.000886746
-6.11594e-05
-4.278e-05
0.000915676
-6.6562e-05
5.53607e-05
0.000872193
-7.32907e-05
-8.8766e-05
0.000796042
9.37398e-05
-0.000138784
0.000762671
2.92838e-05
-2.00043e-05
-0.00042614
0.00017971
0.000642008
-0.000376379
2.07666e-05
0.00064063
1.74704e-05
-0.000181597
0.000667781
-4.79379e-05
-0.000122384
0.00063922
-0.000221806
6.12487e-05
0.000629333
3.02972e-05
4.80688e-06
0.00068895
8.13251e-05
-8.24573e-05
0.000731306
-0.00030482
8.66177e-05
0.000781376
-0.00045273
0.000188383
0.00079527
-8.60917e-05
7.52379e-05
0.000792192
0.00017703
-4.88442e-06
0.000869356
0.000291621
2.70145e-06
0.00090197
0.000387716
-1.59151e-05
0.000816044
0.000280249
4.57905e-05
0.00076469
0.000133335
0.000114963
0.000850135
-5.42227e-06
1.4006e-05
0.000900684
-5.08774e-05
-2.99801e-05
0.000810706
-3.93824e-05
-3.33335e-05
0.000719206
1.92244e-05
-5.90412e-05
0.000725002
0.000165918
-2.50551e-05
0.000766023
6.23945e-05
-4.2851e-05
0.000725047
-0.000129454
-6.94393e-05
0.000654488
-0.000426358
-5.32429e-05
0.000683887
-0.000531362
-9.91681e-05
0.000753465
-0.000197609
-0.000134091
0.000750151
0.00018935
-7.80881e-05
0.000773756
0.000440744
-5.63902e-05
0.000931905
0.000112359
5.49113e-05
0.00101949
-0.000161373
8.83212e-05
0.000864221
-0.000190938
7.00882e-05
0.000693957
-0.000422651
0.000125328
0.000646241
-0.00036214
6.5693e-05
0.000636709
-0.000125215
-5.01976e-05
0.000674577
-0.000236197
-0.000142141
0.000706659
-0.000298413
-9.68254e-05
0.000749969
-0.000152724
6.25727e-05
0.000787722
-7.35983e-05
3.18663e-06
0.00072415
-3.62471e-05
-0.000147586
0.000650862
0.000107386
-0.000100295
0.000671726
-7.02011e-05
5.15886e-05
-0.000494217
0.000142375
0.000588671
-0.000353596
-6.06371e-06
0.000621008
-1.66299e-05
-0.000200415
0.000663338
-5.86754e-05
-0.000181294
0.000630999
-0.000254015
4.70267e-05
0.000625509
2.02406e-05
-2.72155e-05
0.000652849
0.000116568
-7.64421e-05
0.000633073
-0.000341252
0.000115855
0.000631278
-0.000612887
0.000170991
0.000641963
-0.000214048
4.84772e-05
0.00069182
0.00017868
-6.38227e-05
0.000781872
0.000344674
1.17348e-05
0.000805914
0.000381385
3.62756e-05
0.000729257
0.00027147
7.13598e-05
0.000673145
0.000178304
8.8702e-05
0.000745534
-5.79408e-05
3.19366e-05
0.000785037
-0.000100201
-2.71724e-05
0.000691108
6.1682e-05
-0.00011416
0.000641767
0.000149744
-8.32666e-05
0.000673582
0.000182977
-4.66306e-06
0.000683612
4.14465e-05
-9.94602e-06
0.000649775
-0.000129612
-2.30574e-05
0.000599387
-0.000455088
-1.11055e-05
0.000602042
-0.000597525
-4.26411e-05
0.000618072
-0.000163985
-8.60049e-05
0.000638247
0.000278796
-6.80819e-05
0.000748184
0.000344725
-4.72325e-05
0.000851566
-7.36516e-05
8.32262e-05
0.000815663
-0.000174856
7.77528e-05
0.000680406
-0.000161049
7.13468e-05
0.000592075
-0.000399556
0.000122522
0.000568694
-0.000256901
-1.08851e-05
0.000564051
-9.13534e-05
-0.000110287
0.000613923
-0.000353176
-8.61509e-05
0.000672872
-0.000486212
3.30965e-05
0.000703791
-0.00031565
0.000176638
0.000676403
-0.000135425
3.70031e-05
0.000596051
-3.24098e-05
-9.55523e-05
0.000576073
2.04221e-05
1.90721e-05
0.000609382
-0.000196816
8.78072e-05
-0.000459781
6.8989e-05
0.000557161
-0.000325339
-8.2676e-05
0.000577776
-8.4905e-05
-0.000176867
0.000594504
-5.12876e-05
-0.000145933
0.000585168
-0.000208248
-1.69601e-06
0.000581709
3.88177e-05
-5.18089e-05
0.000575734
0.000135125
-3.48254e-05
0.000568751
-0.000345867
8.55513e-05
0.000581142
-0.000723533
9.10568e-05
0.000568241
-0.000270202
-3.75742e-05
0.000607124
0.000234578
-9.42496e-05
0.000711022
0.000323979
2.60652e-05
0.000739029
0.00031451
5.3913e-05
0.000672431
0.000299318
6.31302e-05
0.000635829
0.000180033
6.9804e-05
0.000663702
-0.000122878
2.8935e-05
0.000634697
-0.000108656
-4.89281e-05
0.000587635
0.000110979
-0.000140028
0.000609179
0.000215245
-8.00385e-05
0.000614084
0.000234711
2.25975e-05
0.000602685
6.0665e-05
5.09917e-06
0.000598344
-0.000179697
2.7436e-06
0.000549647
-0.000502664
1.12348e-05
0.000517767
-0.000580275
-3.07445e-05
0.000532228
-0.000112247
-7.29005e-05
0.00058994
0.000336256
-0.000128172
0.000681479
0.000285535
-5.13049e-05