/*--------------------------------*- C++ -*----------------------------------*\
  =========                 |
  \\      /  F ield         | OpenFOAM: The Open Source CFD Toolbox
   \\    /   O peration     | Website:  https://openfoam.org
    \\  /    A nd           | Version:  10
     \\/     M anipulation  |
\*---------------------------------------------------------------------------*/
FoamFile
{
    format      ascii;
    class       volVectorField;
    location    "20";
    object      UMean;
}
// * * * * * * * * * * * * * * * * * * * * * * * * * * * * * * * * * * * * * //

dimensions      [0 1 -1 0 0 0 0];

internalField   nonuniform List<vector> 
25600
(
(0.135284 1.44835e-06 5.4487e-08)
(0.135285 2.29297e-06 -5.02362e-08)
(0.135285 3.29695e-06 2.08121e-07)
(0.135283 4.08666e-06 1.40481e-07)
(0.135284 4.95607e-06 2.02893e-07)
(0.135282 5.63987e-06 2.06116e-07)
(0.135283 6.42191e-06 2.41561e-07)
(0.135281 6.89121e-06 2.49634e-07)
(0.135281 7.28893e-06 2.68952e-07)
(0.135281 7.78423e-06 1.98738e-07)
(0.135281 7.68423e-06 2.51245e-07)
(0.13528 7.93431e-06 2.04885e-07)
(0.13528 7.58766e-06 1.90167e-07)
(0.13528 7.29968e-06 1.62342e-07)
(0.13528 6.64505e-06 1.55087e-07)
(0.13528 6.12315e-06 7.53394e-08)
(0.13528 5.11144e-06 1.17972e-07)
(0.135281 4.28887e-06 1.19835e-07)
(0.13528 3.28548e-06 1.03126e-07)
(0.135282 2.16124e-06 1.9434e-07)
(0.135281 1.22172e-06 2.38019e-07)
(0.135283 2.46737e-07 2.92199e-07)
(0.135282 -1.09487e-06 4.11208e-07)
(0.135284 -1.53013e-06 4.15596e-07)
(0.135283 -2.72133e-06 4.82559e-07)
(0.135284 -3.22737e-06 4.79685e-07)
(0.135284 -3.93925e-06 4.73959e-07)
(0.135286 -4.13202e-06 3.88658e-07)
(0.135285 -4.76676e-06 3.76293e-07)
(0.135287 -4.37671e-06 2.39692e-07)
(0.135286 -4.72528e-06 1.74395e-07)
(0.135288 -4.37872e-06 5.00885e-08)
(0.135286 -4.04296e-06 7.66673e-10)
(0.135288 -3.744e-06 -2.16345e-07)
(0.135286 -3.19528e-06 -1.55947e-07)
(0.135288 -2.35343e-06 -1.95845e-07)
(0.135285 -1.94226e-06 -2.13012e-07)
(0.135287 -9.72656e-07 -1.66848e-07)
(0.135284 -3.67796e-07 -1.58928e-07)
(0.135287 7.63183e-07 -4.49503e-08)
(0.13654 2.44874e-06 3.56536e-07)
(0.136541 3.69139e-06 2.62528e-07)
(0.13654 4.28172e-06 5.3055e-07)
(0.136539 5.24135e-06 4.49753e-07)
(0.136539 6.1267e-06 5.40527e-07)
(0.136538 6.50239e-06 4.64279e-07)
(0.136538 7.49088e-06 5.76462e-07)
(0.136537 7.61564e-06 5.6133e-07)
(0.136537 7.97587e-06 5.80127e-07)
(0.136536 8.61439e-06 4.66686e-07)
(0.136536 8.01572e-06 5.73236e-07)
(0.136535 8.50242e-06 4.50177e-07)
(0.136535 7.62469e-06 5.12441e-07)
(0.136535 7.53374e-06 3.94323e-07)
(0.136535 6.58682e-06 3.79032e-07)
(0.136535 6.1121e-06 1.72421e-07)
(0.136535 4.92374e-06 2.22976e-07)
(0.136535 4.10239e-06 9.01707e-08)
(0.136536 2.92975e-06 7.26265e-08)
(0.136536 2.01363e-06 4.95926e-08)
(0.136536 8.31509e-07 9.52453e-08)
(0.136537 7.36444e-08 -7.56674e-09)
(0.136537 -1.74771e-06 1.52997e-07)
(0.136538 -1.74987e-06 -1.33896e-08)
(0.136539 -3.38822e-06 1.01711e-07)
(0.136539 -3.77702e-06 1.98245e-08)
(0.136541 -4.46169e-06 1.02514e-07)
(0.136541 -4.62183e-06 -3.80072e-08)
(0.136542 -5.37404e-06 1.0675e-07)
(0.136543 -4.2329e-06 -7.48116e-08)
(0.136543 -5.14976e-06 1.45425e-08)
(0.136544 -3.89197e-06 -9.38759e-08)
(0.136543 -3.78813e-06 -4.41781e-08)
(0.136544 -3.19756e-06 -3.08235e-07)
(0.136544 -2.25443e-06 -6.0911e-08)
(0.136543 -1.42258e-06 -1.29315e-07)
(0.136543 -8.21408e-07 -5.37516e-08)
(0.136543 2.01463e-07 1.36933e-08)
(0.136542 7.20574e-07 7.06807e-08)
(0.136542 2.02247e-06 4.87567e-07)
(0.136772 3.70843e-06 7.88205e-07)
(0.136772 5.72583e-06 7.64653e-07)
(0.136772 5.43213e-06 9.78353e-07)
(0.136771 6.94712e-06 8.64023e-07)
(0.136771 7.54908e-06 9.99841e-07)
(0.13677 7.84531e-06 7.87615e-07)
(0.13677 9.01461e-06 9.99762e-07)
(0.136768 8.61274e-06 8.97238e-07)
(0.136769 9.23868e-06 9.36175e-07)
(0.136767 9.79219e-06 7.63141e-07)
(0.136767 8.7871e-06 9.36719e-07)
(0.136766 9.61894e-06 6.76892e-07)
(0.136766 7.94297e-06 8.33684e-07)
(0.136765 8.26834e-06 6.13754e-07)
(0.136766 6.79287e-06 5.92526e-07)
(0.136765 6.50716e-06 2.44128e-07)
(0.136766 5.02489e-06 3.35007e-07)
(0.136766 4.17808e-06 1.00714e-08)
(0.136766 2.88889e-06 6.15717e-08)
(0.136767 2.08512e-06 -9.84254e-08)
(0.136767 6.39328e-07 1.93485e-08)
(0.136767 -2.23174e-08 -2.50272e-07)
(0.136768 -2.50883e-06 1.64989e-08)
(0.136769 -1.85516e-06 -3.29531e-07)
(0.136769 -4.46434e-06 -1.08916e-07)
(0.13677 -4.2854e-06 -3.12191e-07)
(0.136772 -5.27413e-06 -6.52562e-08)
(0.136772 -5.32428e-06 -3.44748e-07)
(0.136774 -6.09257e-06 3.76354e-08)
(0.136774 -4.11822e-06 -2.43745e-07)
(0.136774 -5.77866e-06 7.25503e-08)
(0.136775 -3.09744e-06 -1.15198e-07)
(0.136775 -3.78645e-06 8.82782e-08)
(0.136775 -2.33868e-06 -3.11671e-07)
(0.136776 -1.13598e-06 2.3232e-07)
(0.136775 -3.17239e-07 3.12732e-08)
(0.136774 6.13739e-07 3.0611e-07)
(0.136775 1.65428e-06 3.44564e-07)
(0.136774 2.24522e-06 5.0527e-07)
(0.136774 3.91928e-06 9.3134e-07)
(0.136926 5.31407e-06 1.4934e-06)
(0.136927 8.15133e-06 1.57198e-06)
(0.136926 6.64557e-06 1.64004e-06)
(0.136925 9.38959e-06 1.51694e-06)
(0.136925 9.16422e-06 1.65439e-06)
(0.136924 9.91087e-06 1.24687e-06)
(0.136924 1.09358e-05 1.5919e-06)
(0.136922 9.98286e-06 1.32218e-06)
(0.136923 1.12612e-05 1.41121e-06)
(0.136921 1.13065e-05 1.12005e-06)
(0.136921 1.02268e-05 1.35779e-06)
(0.13692 1.12912e-05 8.98491e-07)
(0.136919 8.56938e-06 1.21433e-06)
(0.136919 9.72884e-06 8.11596e-07)
(0.136919 7.23599e-06 8.39914e-07)
(0.136918 7.68991e-06 2.69257e-07)
(0.136919 5.32834e-06 4.63954e-07)
(0.136919 4.70095e-06 -1.43869e-07)
(0.136919 3.16775e-06 8.41942e-08)
(0.136919 2.45595e-06 -2.68745e-07)
(0.13692 7.86313e-07 6.02158e-09)
(0.136919 4.80541e-08 -5.04887e-07)
(0.136921 -3.15408e-06 -1.16163e-08)
(0.136922 -1.65016e-06 -6.32353e-07)
(0.136922 -5.94432e-06 -1.84779e-07)
(0.136923 -4.38858e-06 -6.04733e-07)
(0.136925 -6.57135e-06 -7.77822e-08)
(0.136925 -6.16759e-06 -6.24054e-07)
(0.136928 -6.95366e-06 1.51927e-07)
(0.136928 -4.13561e-06 -3.46928e-07)
(0.136928 -6.66995e-06 3.51631e-07)
(0.13693 -1.92794e-06 -4.36162e-08)
(0.136929 -4.32593e-06 4.48994e-07)
(0.13693 -8.89237e-07 -1.92104e-07)
(0.13693 -1.58072e-07 8.32624e-07)
(0.136929 1.13206e-06 3.19016e-07)
(0.136929 2.34211e-06 9.86603e-07)
(0.136929 3.28998e-06 8.9301e-07)
(0.136928 4.12312e-06 1.24097e-06)
(0.136928 5.89946e-06 1.64646e-06)
(0.137068 7.62588e-06 2.59269e-06)
(0.137069 1.10643e-05 2.7558e-06)
(0.137068 8.14775e-06 2.58494e-06)
(0.137068 1.27925e-05 2.51779e-06)
(0.137066 1.09789e-05 2.55062e-06)
(0.137066 1.31062e-05 1.92941e-06)
(0.137065 1.30868e-05 2.40835e-06)
(0.137064 1.19824e-05 1.85306e-06)
(0.137065 1.40018e-05 2.03958e-06)
(0.137062 1.31402e-05 1.51933e-06)
(0.137062 1.26688e-05 1.82122e-06)
(0.13706 1.33463e-05 1.09714e-06)
(0.13706 9.71932e-06 1.65945e-06)
(0.13706 1.18985e-05 9.70339e-07)
(0.13706 7.93653e-06 1.1284e-06)
(0.137059 9.84601e-06 2.38711e-07)
(0.137059 5.63958e-06 6.22421e-07)
(0.13706 5.84777e-06 -3.63694e-07)
(0.13706 3.64232e-06 1.69552e-07)
(0.13706 3.2556e-06 -4.87795e-07)
(0.13706 1.3045e-06 5.75114e-08)
(0.137059 2.50198e-07 -7.89066e-07)
(0.137062 -3.62988e-06 1.20544e-07)
(0.137062 -1.35738e-06 -9.27627e-07)
(0.137063 -7.82619e-06 -8.30507e-08)
(0.137065 -4.02755e-06 -8.67592e-07)
(0.137066 -8.78178e-06 1.10179e-07)
(0.137067 -6.94287e-06 -8.75076e-07)
(0.13707 -8.17374e-06 5.43625e-07)
(0.137069 -4.31787e-06 -3.82358e-07)
(0.137071 -7.56566e-06 9.51982e-07)
(0.137072 -4.46059e-07 1.48496e-07)
(0.137071 -5.41255e-06 1.15223e-06)
(0.137074 1.56758e-06 1.05341e-07)
(0.137072 5.13352e-07 1.84611e-06)
(0.137072 3.415e-06 7.58694e-07)
(0.137071 4.42527e-06 2.17016e-06)
(0.137071 5.32604e-06 1.68979e-06)
(0.137071 6.60396e-06 2.39081e-06)
(0.13707 8.22896e-06 2.65081e-06)
(0.137203 1.07857e-05 4.3057e-06)
(0.137202 1.41652e-05 4.46587e-06)
(0.137202 1.01241e-05 3.9911e-06)
(0.137202 1.70305e-05 4.03988e-06)
(0.1372 1.30205e-05 3.76666e-06)
(0.1372 1.76796e-05 2.98102e-06)
(0.137198 1.51218e-05 3.50906e-06)
(0.137197 1.50009e-05 2.57922e-06)
(0.137198 1.71994e-05 2.87366e-06)
(0.137194 1.55056e-05 1.97985e-06)
(0.137196 1.64019e-05 2.32415e-06)
(0.137192 1.55765e-05 1.30751e-06)
(0.137193 1.18458e-05 2.19105e-06)
(0.137192 1.46713e-05 1.11406e-06)
(0.137192 9.23352e-06 1.45928e-06)
(0.137192 1.31281e-05 1.1744e-07)
(0.137191 5.79432e-06 8.431e-07)
(0.137192 7.9776e-06 -6.2902e-07)
(0.137192 4.14957e-06 3.55793e-07)
(0.137193 4.87762e-06 -7.5816e-07)
(0.137193 2.27092e-06 1.73865e-07)
(0.137191 7.17182e-07 -1.094e-06)
(0.137195 -3.72804e-06 4.72607e-07)
(0.137194 -1.05738e-06 -1.19541e-06)
(0.137195 -9.78378e-06 2.94388e-07)
(0.137198 -3.21081e-06 -1.08814e-06)
(0.137198 -1.22137e-05 5.83321e-07)
(0.137201 -7.30017e-06 -1.09772e-06)
(0.137205 -1.02413e-05 1.31565e-06)
(0.137203 -4.44376e-06 -3.40668e-07)
(0.137206 -8.39195e-06 2.04974e-06)
(0.137206 1.14046e-06 5.16464e-07)
(0.137205 -6.93048e-06 2.34187e-06)
(0.137209 5.15318e-06 6.28817e-07)
(0.137206 5.76901e-07 3.41025e-06)
(0.137207 7.03692e-06 1.41918e-06)
(0.137205 6.51244e-06 4.08865e-06)
(0.137205 8.01779e-06 2.80214e-06)
(0.137205 9.5751e-06 4.19759e-06)
(0.137204 1.09338e-05 4.09447e-06)
(0.137329 1.47367e-05 6.94841e-06)
(0.137327 1.72865e-05 6.93671e-06)
(0.137328 1.28363e-05 6.13066e-06)
(0.137328 2.18674e-05 6.28404e-06)
(0.137325 1.5589e-05 5.43603e-06)
(0.137326 2.37551e-05 4.62708e-06)
(0.137322 1.67952e-05 4.99111e-06)
(0.137323 1.94792e-05 3.65e-06)
(0.137324 2.04214e-05 3.94237e-06)
(0.13732 1.9006e-05 2.51918e-06)
(0.137321 2.14115e-05 2.84879e-06)
(0.137316 1.79708e-05 1.53871e-06)
(0.137318 1.5427e-05 2.82086e-06)
(0.137317 1.77515e-05 1.28476e-06)
(0.137317 1.16626e-05 1.94128e-06)
(0.137316 1.73873e-05 -3.66092e-08)
(0.137315 5.76948e-06 1.19595e-06)
(0.137317 1.14119e-05 -8.86192e-07)
(0.137317 4.49189e-06 6.54275e-07)
(0.137318 7.8941e-06 -1.03586e-06)
(0.137317 3.53864e-06 4.10504e-07)
(0.137315 1.69926e-06 -1.31893e-06)
(0.13732 -3.42166e-06 1.16309e-06)
(0.137317 -8.42514e-07 -1.36235e-06)
(0.13732 -1.14548e-05 1.05824e-06)
(0.137323 -2.39017e-06 -1.22116e-06)
(0.137322 -1.69833e-05 1.48637e-06)
(0.137327 -7.17488e-06 -1.22342e-06)
(0.137331 -1.37706e-05 2.61866e-06)
(0.13733 -4.06089e-06 -1.76967e-07)
(0.137334 -9.44949e-06 3.80833e-06)
(0.137332 2.7409e-06 1.14097e-06)
(0.137332 -8.65251e-06 4.18912e-06)
(0.137337 9.75233e-06 1.434e-06)
(0.137332 2.37283e-08 5.70322e-06)
(0.137334 1.24024e-05 2.48289e-06)
(0.137331 8.15483e-06 7.02397e-06)
(0.137332 1.17934e-05 4.36523e-06)
(0.137331 1.27467e-05 6.94316e-06)
(0.13733 1.43615e-05 6.13996e-06)
(0.137448 1.88996e-05 1.09932e-05)
(0.137444 2.03638e-05 1.06038e-05)
(0.137448 1.62197e-05 9.44052e-06)
(0.137447 2.70116e-05 9.57436e-06)
(0.137444 1.90621e-05 7.88709e-06)
(0.137444 3.1075e-05 7.2111e-06)
(0.137439 1.80199e-05 7.08207e-06)
(0.137443 2.54901e-05 5.37914e-06)
(0.137441 2.31339e-05 5.34641e-06)
(0.137439 2.43426e-05 3.32996e-06)
(0.137439 2.72415e-05 3.48307e-06)
(0.137433 2.0809e-05 2.00681e-06)
(0.137436 2.05387e-05 3.6692e-06)
(0.137434 2.0879e-05 1.73509e-06)
(0.137436 1.58106e-05 2.725e-06)
(0.137432 2.21439e-05 -1.17479e-08)
(0.137431 5.86149e-06 1.81644e-06)
(0.137435 1.6069e-05 -9.50799e-07)
(0.137434 4.68581e-06 1.18531e-06)
(0.137436 1.2892e-05 -1.0904e-06)
(0.137433 4.84074e-06 8.91123e-07)
(0.137431 3.6752e-06 -1.13916e-06)
(0.137437 -2.90468e-06 2.44044e-06)
(0.137434 -5.36911e-07 -1.12045e-06)
(0.137438 -1.26657e-05 2.39961e-06)
(0.137439 -2.18085e-06 -1.03974e-06)
(0.137439 -2.29599e-05 3.09818e-06)
(0.137446 -7.01028e-06 -9.98494e-07)
(0.13745 -1.9142e-05 4.70399e-06)
(0.13745 -2.65645e-06 3.42177e-07)
(0.137454 -1.14448e-05 6.53251e-06)
(0.137451 4.4834e-06 2.21545e-06)
(0.137453 -1.07465e-05 7.01454e-06)
(0.137458 1.50137e-05 2.70592e-06)
(0.137452 -9.65814e-07 9.03662e-06)
(0.137455 1.94347e-05 4.30936e-06)
(0.137448 8.90194e-06 1.13507e-05)
(0.137451 1.69528e-05 6.70787e-06)
(0.13745 1.5575e-05 1.10362e-05)
(0.137448 1.88919e-05 9.10471e-06)
(0.137559 2.2244e-05 1.71427e-05)
(0.137555 2.34468e-05 1.62577e-05)
(0.13756 1.96498e-05 1.46112e-05)
(0.137558 3.22387e-05 1.45675e-05)
(0.137556 2.35876e-05 1.16658e-05)
(0.137554 3.90246e-05 1.13722e-05)
(0.137548 1.88866e-05 1.02164e-05)
(0.137555 3.26313e-05 8.36548e-06)
(0.137552 2.4978e-05 7.33216e-06)
(0.137551 3.18806e-05 4.8598e-06)
(0.137548 3.31839e-05 4.48693e-06)
(0.137542 2.45913e-05 3.15585e-06)
(0.137548 2.67607e-05 5.07542e-06)
(0.137544 2.40306e-05 2.8774e-06)
(0.137547 2.1898e-05 4.18142e-06)
(0.137541 2.67637e-05 5.03477e-07)
(0.137541 6.41869e-06 3.01848e-06)
(0.137546 2.13906e-05 -4.13576e-07)
(0.137545 4.91505e-06 2.25788e-06)
(0.137548 2.01325e-05 -4.46673e-07)
(0.137542 5.81029e-06 1.94143e-06)
(0.137541 7.1213e-06 -1.94058e-08)
(0.137547 -2.66792e-06 4.75532e-06)
(0.137543 3.51702e-07 2.99006e-08)
(0.137549 -1.37832e-05 4.67601e-06)
(0.137547 -3.01467e-06 -1.18645e-07)
(0.137549 -3.01695e-05 5.95347e-06)
(0.137559 -7.7081e-06 4.302e-08)
(0.137563 -2.65171e-05 7.97697e-06)
(0.137563 -3.43146e-07 1.53798e-06)
(0.137567 -1.52982e-05 1.06181e-05)
(0.137563 6.66306e-06 4.12295e-06)
(0.137567 -1.40172e-05 1.12589e-05)
(0.137572 2.07033e-05 4.8127e-06)
(0.137564 -2.49041e-06 1.38563e-05)
(0.137569 2.75645e-05 7.37688e-06)
(0.137559 8.46432e-06 1.76404e-05)
(0.137564 2.33588e-05 1.04898e-05)
(0.137561 1.73827e-05 1.70221e-05)
(0.137561 2.46481e-05 1.35846e-05)
(0.137662 2.33623e-05 2.65364e-05)
(0.137658 2.64153e-05 2.52235e-05)
(0.137667 2.1846e-05 2.28181e-05)
(0.137663 3.73739e-05 2.24477e-05)
(0.137662 2.85466e-05 1.77811e-05)
(0.137657 4.68435e-05 1.81269e-05)
(0.137651 1.91737e-05 1.53086e-05)
(0.13766 3.99726e-05 1.36627e-05)
(0.137656 2.57584e-05 1.04506e-05)
(0.137657 4.10393e-05 7.921e-06)
(0.137651 3.84483e-05 6.40832e-06)
(0.137645 2.95952e-05 5.83876e-06)
(0.137652 3.31601e-05 7.704e-06)
(0.137647 2.73525e-05 5.58529e-06)
(0.137652 2.92532e-05 6.89436e-06)
(0.137641 3.06777e-05 2.25971e-06)
(0.137645 7.38376e-06 5.38923e-06)
(0.137651 2.65107e-05 1.55629e-06)
(0.13765 5.42191e-06 4.44704e-06)
(0.137653 2.90357e-05 1.73416e-06)
(0.137643 6.22602e-06 4.15313e-06)
(0.137644 1.20269e-05 3.06647e-06)
(0.13765 -3.28509e-06 8.94679e-06)
(0.137645 2.28167e-06 3.05286e-06)
(0.137653 -1.58629e-05 8.43253e-06)
(0.137648 -5.05163e-06 2.50327e-06)
(0.137653 -3.94126e-05 1.09228e-05)
(0.137664 -1.01961e-05 2.91992e-06)
(0.13767 -3.60158e-05 1.31545e-05)
(0.137671 1.84634e-06 4.1835e-06)
(0.137673 -2.18534e-05 1.67838e-05)
(0.137668 9.10634e-06 7.75884e-06)
(0.137675 -1.99484e-05 1.77437e-05)
(0.137679 2.66588e-05 8.54673e-06)
(0.13767 -5.5158e-06 2.10132e-05)
(0.137676 3.59018e-05 1.26302e-05)
(0.137662 6.37121e-06 2.68383e-05)
(0.137671 3.02119e-05 1.68817e-05)
(0.137666 1.72273e-05 2.57394e-05)
(0.137666 3.10129e-05 2.06993e-05)
(0.137758 2.05284e-05 4.08031e-05)
(0.137756 2.83937e-05 3.97211e-05)
(0.137767 2.09649e-05 3.59322e-05)
(0.137762 4.20964e-05 3.52124e-05)
(0.137762 3.23339e-05 2.77531e-05)
(0.137752 5.37049e-05 2.92716e-05)
(0.137747 1.78147e-05 2.39305e-05)
(0.137759 4.61395e-05 2.3243e-05)
(0.137754 2.47883e-05 1.58236e-05)
(0.137758 5.0295e-05 1.39916e-05)
(0.137746 4.2196e-05 1.03536e-05)
(0.137742 3.5311e-05 1.15909e-05)
(0.137749 3.82169e-05 1.30552e-05)
(0.137744 3.06388e-05 1.13171e-05)
(0.137751 3.60466e-05 1.20245e-05)
(0.137734 3.33334e-05 6.51292e-06)
(0.137742 7.60829e-06 1.01134e-05)
(0.137748 3.03598e-05 6.43812e-06)
(0.137749 5.96986e-06 8.76495e-06)
(0.137751 3.79853e-05 6.77372e-06)
(0.137738 6.00827e-06 8.62725e-06)
(0.13774 1.76252e-05 9.65914e-06)
(0.137746 -5.16894e-06 1.64236e-05)
(0.137741 5.03565e-06 9.38943e-06)
(0.137749 -2.0316e-05 1.45799e-05)
(0.137741 -8.55597e-06 8.25405e-06)
(0.13775 -5.24385e-05 1.93623e-05)
(0.137764 -1.52802e-05 9.21756e-06)
(0.137771 -4.8693e-05 2.14246e-05)
(0.137772 2.21171e-06 9.42371e-06)
(0.137773 -3.19118e-05 2.6161e-05)
(0.137766 1.04923e-05 1.44237e-05)
(0.137777 -3.04374e-05 2.78528e-05)
(0.13778 3.22013e-05 1.51924e-05)
(0.13777 -1.21913e-05 3.17145e-05)
(0.137776 4.33308e-05 2.14472e-05)
(0.137759 1.46332e-06 4.04847e-05)
(0.137771 3.60488e-05 2.781e-05)
(0.137764 1.38346e-05 3.84813e-05)
(0.137765 3.63314e-05 3.22599e-05)
(0.137847 1.1334e-05 6.23281e-05)
(0.137847 2.75557e-05 6.30829e-05)
(0.13786 1.45998e-05 5.67529e-05)
(0.137856 4.53017e-05 5.57875e-05)
(0.137855 3.21099e-05 4.37316e-05)
(0.137839 5.84307e-05 4.75522e-05)
(0.137837 1.25098e-05 3.85419e-05)
(0.137851 4.94909e-05 3.99269e-05)
(0.137847 2.01143e-05 2.51961e-05)
(0.137852 5.76063e-05 2.52152e-05)
(0.137834 4.32902e-05 1.8155e-05)
(0.137832 4.02595e-05 2.26797e-05)
(0.137839 4.01167e-05 2.33804e-05)
(0.137835 3.28598e-05 2.23205e-05)
(0.137842 3.94783e-05 2.11424e-05)
(0.13782 3.36695e-05 1.52395e-05)
(0.137833 4.77876e-06 1.88939e-05)
(0.13784 3.174e-05 1.6531e-05)
(0.137842 5.07317e-06 1.67235e-05)
(0.137843 4.48118e-05 1.6517e-05)
(0.137825 4.33555e-06 1.70615e-05)
(0.13783 2.21675e-05 2.2233e-05)
(0.137836 -8.79537e-06 2.92588e-05)
(0.137829 7.14762e-06 2.1165e-05)
(0.137837 -2.85505e-05 2.44505e-05)
(0.137826 -1.48963e-05 1.9565e-05)
(0.13784 -7.15412e-05 3.32402e-05)
(0.137856 -2.41471e-05 2.16312e-05)
(0.137866 -6.76399e-05 3.447e-05)
(0.137867 -1.47008e-06 1.91454e-05)
(0.137866 -4.7583e-05 4.03983e-05)
(0.137858 8.05753e-06 2.64269e-05)
(0.137873 -4.77327e-05 4.35378e-05)
(0.137875 3.53744e-05 2.68951e-05)
(0.137864 -2.54423e-05 4.7595e-05)
(0.13787 4.81144e-05 3.60727e-05)
(0.137848 -8.57607e-06 6.07434e-05)
(0.137864 3.85766e-05 4.62417e-05)
(0.137855 5.03799e-06 5.71887e-05)
(0.137858 3.78477e-05 5.09144e-05)
(0.13793 -8.016e-06 9.39911e-05)
(0.137931 2.07294e-05 9.93232e-05)
(0.137948 -3.95566e-07 8.86308e-05)
(0.137943 4.44195e-05 8.74866e-05)
(0.137941 2.41183e-05 6.7881e-05)
(0.137919 5.8457e-05 7.64658e-05)
(0.13792 -8.63338e-08 6.18112e-05)
(0.137936 4.73692e-05 6.72911e-05)
(0.137933 8.03812e-06 4.03436e-05)
(0.13794 5.99448e-05 4.38994e-05)
(0.137915 3.92825e-05 3.18304e-05)
(0.137916 4.17353e-05 4.21114e-05)
(0.137922 3.66834e-05 4.14091e-05)
(0.13792 3.13274e-05 4.11966e-05)
(0.137927 3.61192e-05 3.60083e-05)
(0.137898 2.89712e-05 3.09035e-05)
(0.137918 -4.51614e-06 3.40931e-05)
(0.137925 2.87967e-05 3.44388e-05)
(0.13793 -5.36022e-07 2.99187e-05)
(0.137927 4.71307e-05 3.27519e-05)
(0.137907 -1.14602e-06 3.12663e-05)
(0.137912 2.3377e-05 4.32427e-05)
(0.137918 -1.53064e-05 4.96472e-05)
(0.137911 5.84052e-06 4.0123e-05)
(0.137918 -4.25656e-05 3.90917e-05)
(0.137903 -2.71504e-05 3.8815e-05)
(0.137924 -9.93761e-05 5.44818e-05)
(0.137942 -3.91849e-05 4.29653e-05)
(0.137956 -9.70372e-05 5.35994e-05)
(0.137956 -1.17608e-05 3.50399e-05)
(0.137953 -7.3519e-05 6.11724e-05)
(0.137943 -1.51801e-06 4.61667e-05)
(0.137963 -7.5253e-05 6.69359e-05)
(0.137965 3.23916e-05 4.52919e-05)
(0.137951 -4.92025e-05 7.01367e-05)
(0.137957 4.66756e-05 5.87488e-05)
(0.137931 -2.74507e-05 9.00814e-05)
(0.137951 3.42361e-05 7.53343e-05)
(0.13794 -1.28454e-05 8.37646e-05)
(0.137943 3.17532e-05 7.94455e-05)
(0.138008 -4.2735e-05 0.000138465)
(0.138013 4.61847e-06 0.000152383)
(0.138032 -2.75616e-05 0.000133506)
(0.138026 3.61248e-05 0.000131423)
(0.138023 3.8656e-06 0.000100461)
(0.137995 4.97813e-05 0.000118453)
(0.137998 -2.43926e-05 9.54752e-05)
(0.138017 3.63071e-05 0.000107424)
(0.138014 -1.63364e-05 6.02202e-05)
(0.138024 5.3537e-05 7.07335e-05)
(0.137992 2.53738e-05 5.24574e-05)
(0.137995 3.64664e-05 7.22045e-05)
(0.138001 2.44807e-05 6.87702e-05)
(0.137998 2.26374e-05 6.82614e-05)
(0.138006 2.11139e-05 5.68437e-05)
(0.137971 1.51636e-05 5.52538e-05)
(0.137999 -2.47269e-05 5.74822e-05)
(0.138007 1.85691e-05 6.15792e-05)
(0.138014 -1.53659e-05 4.76362e-05)
(0.138008 4.20484e-05 5.55407e-05)
(0.137984 -1.51687e-05 5.22071e-05)
(0.137991 1.89754e-05 7.46084e-05)
(0.137997 -2.71981e-05 7.85329e-05)
(0.137986 -2.12371e-06 6.61143e-05)
(0.137993 -6.56286e-05 5.76122e-05)
(0.137973 -5.06053e-05 6.81986e-05)
(0.138003 -0.000138797 8.43194e-05)
(0.138023 -6.53526e-05 7.51943e-05)
(0.138041 -0.000141014 7.78055e-05)
(0.13804 -3.31411e-05 5.75616e-05)
(0.138035 -0.00011668 8.95915e-05)
(0.138024 -2.15368e-05 7.62284e-05)
(0.138051 -0.000118335 9.87046e-05)
(0.138049 1.90638e-05 7.06525e-05)
(0.138034 -8.84624e-05 9.91063e-05)
(0.138041 3.35854e-05 9.17871e-05)
(0.13801 -5.97415e-05 0.000130622)
(0.138034 1.83426e-05 0.000117454)
(0.13802 -4.42593e-05 0.000118041)
(0.138023 1.27404e-05 0.000119747)
(0.138092 -0.000100244 0.000196483)
(0.138099 -2.53567e-05 0.000222626)
(0.138122 -7.24457e-05 0.000186498)
(0.13811 1.66646e-05 0.00018011)
(0.138105 -3.45792e-05 0.000135359)
(0.138072 2.71152e-05 0.000171827)
(0.138079 -6.4652e-05 0.000137007)
(0.138101 1.12203e-05 0.000155603)
(0.138096 -5.72117e-05 7.57655e-05)
(0.13811 3.34542e-05 0.000101245)
(0.138071 -4.14602e-06 7.81923e-05)
(0.138078 2.12427e-05 0.000112749)
(0.138083 -1.00556e-06 0.00010103)
(0.138077 3.29338e-06 9.75577e-05)
(0.138087 -1.08969e-05 7.77593e-05)
(0.138046 -1.33296e-05 8.7636e-05)
(0.138085 -6.01138e-05 8.78647e-05)
(0.138093 -4.17079e-06 9.38304e-05)
(0.1381 -4.27599e-05 6.21489e-05)
(0.13809 2.50271e-05 7.93631e-05)
(0.138066 -4.39219e-05 7.75762e-05)
(0.138072 6.59583e-06 0.000114175)
(0.13808 -4.86895e-05 0.00011113)
(0.13806 -1.94526e-05 9.14386e-05)
(0.138068 -0.000102547 7.3323e-05)
(0.138044 -9.08758e-05 0.00010628)
(0.138086 -0.000193985 0.000120812)
(0.138107 -0.000109424 0.000114756)
(0.138128 -0.000204195 9.88287e-05)
(0.138125 -7.28387e-05 8.21785e-05)
(0.138122 -0.000185524 0.000124914)
(0.138109 -5.67819e-05 0.000116887)
(0.138145 -0.000185103 0.00013347)
(0.138136 -8.47796e-06 9.62006e-05)
(0.138122 -0.000150693 0.000129285)
(0.138128 1.24007e-06 0.000134908)
(0.138094 -0.000111314 0.000181793)
(0.13812 -1.56527e-05 0.000168745)
(0.138103 -9.41179e-05 0.000152706)
(0.138106 -2.62829e-05 0.000169227)
(0.138183 -0.000185608 0.000265812)
(0.138187 -7.22208e-05 0.000300308)
(0.138211 -0.000139504 0.000229375)
(0.138181 -1.72863e-05 0.000215375)
(0.138178 -9.8729e-05 0.000162123)
(0.138148 -1.51405e-05 0.000232237)
(0.13816 -0.000125154 0.000178045)
(0.138179 -3.41798e-05 0.000196014)
(0.138171 -0.000119425 6.9253e-05)
(0.138189 -6.79723e-06 0.000128006)
(0.138152 -5.54466e-05 0.000106383)
(0.138164 -5.8656e-06 0.000158292)
(0.138164 -4.51316e-05 0.000124406)
(0.138156 -2.98979e-05 0.000114232)
(0.138162 -6.78892e-05 8.95968e-05)
(0.138133 -6.25946e-05 0.000125347)
(0.138174 -0.000115486 0.000119417)
(0.138186 -4.49155e-05 0.000116215)
(0.138185 -8.69937e-05 5.77147e-05)
(0.138174 -1.13546e-05 9.5015e-05)
(0.138156 -9.51907e-05 0.00010526)
(0.138162 -1.60023e-05 0.00015491)
(0.138169 -8.56291e-05 0.000135705)
(0.138133 -4.85823e-05 0.000101174)
(0.138145 -0.000160419 7.81286e-05)
(0.138122 -0.000153709 0.000153101)
(0.138182 -0.00026881 0.000159689)
(0.138196 -0.000177163 0.000152997)
(0.13822 -0.000291468 0.000103048)
(0.138213 -0.000140411 0.000104472)
(0.138221 -0.000287964 0.000167451)
(0.138207 -0.000111888 0.000165191)
(0.138246 -0.000282718 0.000158719)
(0.138224 -5.32616e-05 0.0001111)
(0.138212 -0.000244124 0.000154023)
(0.138223 -5.72393e-05 0.000188754)
(0.138185 -0.000187324 0.000237761)
(0.138207 -7.56783e-05 0.000214217)
(0.138188 -0.000166718 0.000172061)
(0.138185 -9.46906e-05 0.000220923)
(0.138179 -0.000308682 0.00034602)
(0.13816 -0.000142777 0.000364542)
(0.138177 -0.000233035 0.000249721)
(0.138122 -7.13194e-05 0.000239789)
(0.138127 -0.000199006 0.000201906)
(0.138121 -8.42006e-05 0.000309828)
(0.138135 -0.000212809 0.000217169)
(0.138134 -0.00010492 0.000220012)
(0.138135 -0.000208751 4.86058e-05)
(0.138151 -7.75509e-05 0.000168118)
(0.13815 -0.000136773 0.000146439)
(0.138165 -5.1064e-05 0.000200465)
(0.138154 -0.000112931 0.000125782)
(0.138159 -8.2935e-05 0.000118161)
(0.13814 -0.000161647 0.000100152)
(0.138174 -0.000142509 0.000174381)
(0.138171 -0.000197808 0.000139142)
(0.138213 -0.000109859 0.000115825)
(0.13817 -0.000155242 3.30156e-05)
(0.138188 -7.9966e-05 0.000112889)
(0.138173 -0.000177169 0.000143183)
(0.138192 -5.49122e-05 0.000189133)
(0.138171 -0.000142855 0.00014827)
(0.138135 -9.62813e-05 9.76324e-05)
(0.138142 -0.00024906 9.33767e-05)
(0.138148 -0.000250527 0.000220877)
(0.138216 -0.000372185 0.000202798)
(0.138213 -0.000274402 0.000185467)
(0.138237 -0.000410846 9.94024e-05)
(0.138226 -0.000248485 0.000144938)
(0.13826 -0.000434959 0.000228986)
(0.138238 -0.000196077 0.000217093)
(0.138254 -0.000418144 0.000168553)
(0.138227 -0.000123618 0.000123908)
(0.138203 -0.000383272 0.000187802)
(0.138237 -0.000152086 0.000258611)
(0.138176 -0.000297359 0.000283703)
(0.13819 -0.000170302 0.000235308)
(0.138166 -0.000271109 0.000174375)
(0.138149 -0.000206043 0.000283794)
(0.137703 -0.000485968 0.000446332)
(0.137644 -0.000261114 0.000425998)
(0.137648 -0.000374073 0.000311575)
(0.137573 -0.000164738 0.000350821)
(0.137593 -0.000354491 0.000338033)
(0.137644 -0.000199213 0.000440895)
(0.137647 -0.000348276 0.000281996)
(0.137633 -0.000222511 0.000277479)
(0.137677 -0.00034044 0.000104251)
(0.137686 -0.000201192 0.000276667)
(0.137782 -0.000270995 0.000216808)
(0.137774 -0.000138407 0.000235051)
(0.137775 -0.000230929 0.000139691)
(0.137789 -0.000174129 0.000172043)
(0.137727 -0.000315824 0.000167258)
(0.137864 -0.000273495 0.000254436)
(0.137752 -0.000327423 0.000151306)
(0.137876 -0.000220231 0.000139876)
(0.137735 -0.000264377 6.28647e-05)
(0.137846 -0.000203521 0.000203801)
(0.137788 -0.000305594 0.000222395)
(0.13789 -0.000127947 0.000243194)
(0.137758 -0.00023832 0.000207883)
(0.13781 -0.000178653 0.000165531)
(0.13774 -0.000387397 0.000203827)
(0.137847 -0.000397765 0.000341808)
(0.137863 -0.000519212 0.000274706)
(0.13786 -0.000423311 0.000259636)
(0.137876 -0.000580326 0.000178975)
(0.137849 -0.000419991 0.00027494)
(0.137924 -0.000646716 0.00034085)
(0.137864 -0.000331328 0.000287961)
(0.137823 -0.000613249 0.000214983)
(0.137814 -0.00023645 0.000210712)
(0.13773 -0.00059028 0.000280374)
(0.137831 -0.000305989 0.000345807)
(0.137694 -0.000465276 0.000304617)
(0.137716 -0.000323994 0.00025956)
(0.137661 -0.000423322 0.000226365)
(0.137624 -0.000386066 0.000407041)
(0.136173 -0.000755237 0.000565768)
(0.136063 -0.000458645 0.000557667)
(0.136061 -0.00057258 0.000540224)
(0.135982 -0.000318101 0.000645709)
(0.13602 -0.000588184 0.00058083)
(0.136211 -0.000395566 0.000619628)
(0.136179 -0.00056483 0.00040593)
(0.136221 -0.000415577 0.000464257)
(0.13631 -0.000544623 0.00031183)
(0.136298 -0.000422284 0.000437405)
(0.136581 -0.000500474 0.000305467)
(0.136464 -0.000314789 0.000277114)
(0.136516 -0.000423748 0.000268291)
(0.136453 -0.000331821 0.000353913)
(0.136375 -0.000559682 0.000325177)
(0.136616 -0.000485107 0.000365975)
(0.136411 -0.000537825 0.000211705)
(0.136618 -0.000399411 0.000316864)
(0.136361 -0.000443012 0.000248168)
(0.136566 -0.000414777 0.000413036)
(0.1365 -0.00051577 0.000354836)
(0.136728 -0.000270429 0.000395021)
(0.136384 -0.000389733 0.000413875)
(0.136648 -0.00032561 0.00042665)
(0.136316 -0.000596867 0.000435436)
(0.136724 -0.000635078 0.000511434)
(0.136514 -0.000738936 0.00040875)
(0.136624 -0.000654194 0.000472331)
(0.136532 -0.000828007 0.000447145)
(0.136477 -0.000694475 0.000497439)
(0.136645 -0.000956798 0.000499659)
(0.136459 -0.000554023 0.00038998)
(0.136387 -0.00089347 0.000375051)
(0.136369 -0.000428803 0.000419381)
(0.136181 -0.000900469 0.000412138)
(0.136441 -0.000555965 0.000412344)
(0.136124 -0.000728751 0.000318806)
(0.136199 -0.000558825 0.000382413)
(0.136026 -0.000650659 0.000403329)
(0.135994 -0.000668716 0.000591919)
(0.133154 -0.00110575 0.000644187)
(0.132959 -0.000739828 0.000745193)
(0.133016 -0.000828689 0.000886593)
(0.132794 -0.000538494 0.00095007)
(0.132994 -0.000924996 0.000730186)
(0.133429 -0.000700217 0.000731046)
(0.133313 -0.000857605 0.000516551)
(0.133514 -0.000685915 0.000755717)
(0.13342 -0.000820398 0.000510093)
(0.133508 -0.000777677 0.000520409)
(0.134019 -0.000839497 0.000350846)
(0.133657 -0.00056871 0.000337058)
(0.133838 -0.000672267 0.000525853)
(0.133457 -0.000542228 0.000570963)
(0.133557 -0.000905605 0.000495099)
(0.133901 -0.000791173 0.000450829)
(0.133656 -0.000815918 0.000372964)
(0.133899 -0.000638107 0.000650409)
(0.133459 -0.00068714 0.000522458)
(0.133743 -0.000738368 0.000621683)
(0.133886 -0.000830644 0.000484807)
(0.134049 -0.000481975 0.000636228)
(0.13361 -0.000596378 0.000737202)
(0.13391 -0.000529986 0.00078898)
(0.133311 -0.000899048 0.00061513)
(0.134256 -0.000982346 0.000660639)
(0.133591 -0.00101842 0.000562757)
(0.134054 -0.000958075 0.000812864)
(0.133437 -0.00112138 0.000747991)
(0.133579 -0.00109232 0.000633556)
(0.133854 -0.00137234 0.000597086)
(0.133502 -0.000856225 0.00046608)
(0.133509 -0.00124266 0.000629739)
(0.133198 -0.000687999 0.000594545)
(0.13306 -0.0013254 0.000456094)
(0.13353 -0.000911797 0.000381858)
(0.132951 -0.00105865 0.000353992)
(0.133156 -0.000853492 0.000602034)
(0.132623 -0.000923255 0.0005849)
(0.1328 -0.0010672 0.000699172)
(0.128576 -0.00147845 0.000494713)
(0.128275 -0.00101471 0.000809715)
(0.12824 -0.00103382 0.00110679)
(0.127752 -0.000790341 0.000949727)
(0.128601 -0.00133435 0.000537584)
(0.129133 -0.00107411 0.000531416)
(0.128951 -0.00115018 0.000496093)
(0.129043 -0.000941709 0.00102908)
(0.128594 -0.00110842 0.000513986)
(0.129262 -0.00122097 0.000394249)
(0.129762 -0.00120862 0.000185282)
(0.129137 -0.000836712 0.000368819)
(0.129324 -0.000875562 0.000771445)
(0.128436 -0.000752637 0.000664149)
(0.129209 -0.0013123 0.00048936)
(0.129494 -0.00114018 0.000307256)
(0.129274 -0.00109405 0.000546586)
(0.129279 -0.000851422 0.000968285)
(0.128673 -0.000948061 0.000695682)
(0.129347 -0.00114953 0.000564138)
(0.129745 -0.00121165 0.000409517)
(0.129543 -0.00070316 0.000794396)
(0.129134 -0.000789168 0.00103262)
(0.129016 -0.000721802 0.000976616)
(0.128784 -0.00126287 0.000471827)
(0.130131 -0.00139339 0.00057346)
(0.128997 -0.00129893 0.000579747)
(0.129681 -0.00123518 0.00112019)
(0.128236 -0.00138837 0.000769278)
(0.129238 -0.00156662 0.000427198)
(0.129342 -0.00181348 0.000415939)