/*--------------------------------*- C++ -*----------------------------------*\
  =========                 |
  \\      /  F ield         | OpenFOAM: The Open Source CFD Toolbox
   \\    /   O peration     | Website:  https://openfoam.org
    \\  /    A nd           | Version:  10
     \\/     M anipulation  |
\*---------------------------------------------------------------------------*/
FoamFile
{
    format      ascii;
    class       volSymmTensorField;
    location    "20";
    object      UPrime2Mean;
}
// * * * * * * * * * * * * * * * * * * * * * * * * * * * * * * * * * * * * * //

dimensions      [0 2 -2 0 0 0 0];

internalField   nonuniform List<symmTensor> 
25600
(
(0.000448771 3.35095e-09 6.53842e-09 3.94041e-11 -2.52137e-12 3.39131e-11)
(0.000448776 -2.95824e-09 8.5449e-09 3.60037e-11 3.2716e-13 2.803e-11)
(0.000448777 -4.65396e-09 7.02699e-09 3.51445e-11 3.14363e-12 2.58876e-11)
(0.000448779 -7.68926e-09 8.34727e-09 3.67062e-11 5.90254e-12 2.61893e-11)
(0.000448783 -1.29256e-08 6.15739e-09 3.87396e-11 8.38406e-12 2.59698e-11)
(0.000448782 -1.31662e-08 9.79434e-09 4.09371e-11 9.95578e-12 2.38681e-11)
(0.000448786 -1.94537e-08 5.76941e-09 4.30874e-11 1.01659e-11 2.14963e-11)
(0.000448792 -1.77842e-08 9.47813e-09 4.48887e-11 9.39461e-12 2.09668e-11)
(0.000448791 -2.37005e-08 8.24092e-09 4.68516e-11 7.75001e-12 2.06982e-11)
(0.000448795 -1.99537e-08 7.00453e-09 4.89105e-11 6.01103e-12 1.96103e-11)
(0.0004488 -2.31609e-08 1.03154e-08 5.41613e-11 5.01467e-12 1.85161e-11)
(0.000448799 -2.10026e-08 6.16937e-09 6.19103e-11 5.08765e-12 1.87338e-11)
(0.000448802 -1.82232e-08 9.76774e-09 6.83285e-11 5.269e-12 2.03016e-11)
(0.000448803 -1.88557e-08 5.33562e-09 7.05683e-11 5.55539e-12 2.06917e-11)
(0.0004488 -1.11114e-08 1.00069e-08 6.75349e-11 4.55113e-12 2.09912e-11)
(0.0004488 -1.23975e-08 2.79065e-09 6.22215e-11 2.54277e-12 2.21118e-11)
(0.000448797 -4.3965e-09 9.20491e-09 5.62849e-11 -5.72777e-13 2.40773e-11)
(0.000448794 -3.63749e-09 2.77986e-09 5.03881e-11 -3.01429e-12 2.61271e-11)
(0.000448792 2.88582e-09 4.54128e-09 4.48154e-11 -3.51827e-12 2.8216e-11)
(0.000448784 4.99855e-09 4.81163e-09 4.00913e-11 -3.35108e-12 3.03232e-11)
(0.000448781 8.35639e-09 -1.28354e-09 3.62889e-11 -4.21073e-12 3.22788e-11)
(0.000448779 1.27905e-08 6.07444e-09 3.57757e-11 -6.357e-12 3.4013e-11)
(0.000448768 1.1316e-08 -3.70058e-09 4.04734e-11 -8.89686e-12 3.53262e-11)
(0.000448771 1.83984e-08 3.26874e-09 4.87814e-11 -1.1402e-11 3.5859e-11)
(0.00044876 1.29873e-08 -2.47977e-09 5.62583e-11 -1.43281e-11 3.48845e-11)
(0.000448759 2.08919e-08 6.32255e-11 5.96734e-11 -1.68894e-11 3.32973e-11)
(0.000448758 1.3681e-08 -1.16477e-09 6.02714e-11 -1.84646e-11 3.27206e-11)
(0.000448748 2.00773e-08 -5.44218e-10 6.26259e-11 -1.94357e-11 3.32577e-11)
(0.000448754 1.53174e-08 -6.37686e-11 6.6803e-11 -2.0256e-11 3.40788e-11)
(0.000448748 1.58826e-08 9.35297e-10 7.21596e-11 -2.10081e-11 3.45537e-11)
(0.000448747 1.66714e-08 2.06728e-09 7.42226e-11 -2.14608e-11 3.58615e-11)
(0.000448748 1.30625e-08 2.48074e-09 7.1008e-11 -2.21054e-11 3.84616e-11)
(0.000448753 1.46627e-08 5.58094e-09 6.62989e-11 -2.35003e-11 4.22009e-11)
(0.000448747 1.21202e-08 3.29711e-09 6.27905e-11 -2.50357e-11 4.73192e-11)
(0.00044876 1.2166e-08 9.15227e-09 6.14066e-11 -2.55685e-11 5.28959e-11)
(0.000448754 9.25208e-09 4.53446e-09 6.08545e-11 -2.53755e-11 5.77306e-11)
(0.000448761 1.13349e-08 9.3446e-09 5.87032e-11 -2.37142e-11 5.97075e-11)
(0.000448769 5.10428e-09 7.63163e-09 5.46356e-11 -1.94554e-11 5.69236e-11)
(0.000448762 9.28857e-09 7.51999e-09 4.97612e-11 -1.31706e-11 5.04979e-11)
(0.000448777 1.03944e-09 9.40914e-09 4.40666e-11 -7.00151e-12 4.23464e-11)
(0.000448768 1.45012e-09 6.5288e-09 4.37872e-11 -1.10594e-11 3.52966e-11)
(0.000448768 -4.50338e-09 8.75128e-09 4.17343e-11 -6.94218e-12 3.30271e-11)
(0.000448773 -5.10951e-09 6.89381e-09 3.99148e-11 -3.34201e-12 3.22325e-11)
(0.00044877 -1.01256e-08 7.11342e-09 3.82842e-11 -4.48966e-13 3.12688e-11)
(0.000448779 -1.28303e-08 6.54914e-09 3.53074e-11 1.93503e-12 2.93672e-11)
(0.000448775 -1.57207e-08 7.84918e-09 3.33838e-11 2.37313e-12 2.72854e-11)
(0.000448782 -2.06506e-08 6.00086e-09 3.2715e-11 9.74614e-13 2.67502e-11)
(0.000448787 -1.85081e-08 7.76974e-09 3.43439e-11 -9.73814e-13 2.6373e-11)
(0.000448789 -2.63378e-08 8.22987e-09 3.76839e-11 -2.98656e-12 2.37409e-11)
(0.000448796 -1.95822e-08 5.77208e-09 4.02217e-11 -4.00925e-12 2.00706e-11)
(0.000448798 -2.51144e-08 9.69882e-09 4.55717e-11 -4.74962e-12 1.78197e-11)
(0.000448804 -2.02007e-08 5.59573e-09 5.1989e-11 -4.05788e-12 1.76798e-11)
(0.000448804 -1.9198e-08 8.66112e-09 5.55958e-11 -2.89058e-12 1.88514e-11)
(0.000448809 -1.67754e-08 5.47297e-09 5.38074e-11 -1.91035e-12 1.83355e-11)
(0.000448806 -1.23113e-08 8.61582e-09 4.94771e-11 -2.87064e-12 1.84407e-11)
(0.000448806 -8.59153e-09 3.75257e-09 4.74561e-11 -5.38241e-12 2.14909e-11)
(0.000448805 -5.33331e-09 7.41007e-09 4.77266e-11 -7.99751e-12 2.68712e-11)
(0.000448801 8.02739e-10 4.21376e-09 4.66332e-11 -8.15633e-12 3.27519e-11)
(0.000448798 2.71996e-09 3.13863e-09 4.51047e-11 -6.40914e-12 3.64002e-11)
(0.00044879 8.49481e-09 6.11859e-09 4.35748e-11 -4.55955e-12 3.71791e-11)
(0.000448787 9.7664e-09 -1.5206e-09 4.36147e-11 -3.65468e-12 3.71119e-11)
(0.000448782 1.4575e-08 6.80077e-09 4.66744e-11 -3.5196e-12 3.76688e-11)
(0.000448773 1.345e-08 -2.63312e-09 5.10808e-11 -2.3318e-12 3.94191e-11)
(0.000448772 1.9413e-08 3.75204e-09 5.67243e-11 -6.78512e-13 4.07738e-11)
(0.000448762 1.50717e-08 -8.31116e-10 6.12412e-11 -4.33227e-13 3.96034e-11)
(0.000448758 2.14129e-08 6.67314e-10 6.38559e-11 -1.20109e-12 3.66155e-11)
(0.000448757 1.59596e-08 8.20271e-10 6.74908e-11 -2.71297e-12 3.33641e-11)
(0.000448749 1.89825e-08 -8.97223e-11 7.5643e-11 -5.22021e-12 3.11041e-11)
(0.000448749 1.75625e-08 2.45085e-09 8.59894e-11 -9.15044e-12 3.04473e-11)
(0.000448748 1.35391e-08 1.25736e-09 9.43828e-11 -1.40721e-11 3.03113e-11)
(0.000448744 1.66992e-08 4.37477e-09 9.5596e-11 -1.84093e-11 3.13196e-11)
(0.000448744 1.04239e-08 3.57775e-09 8.82623e-11 -2.05955e-11 3.31811e-11)
(0.000448751 1.23992e-08 7.06667e-09 7.78875e-11 -2.12731e-11 3.44399e-11)
(0.000448745 8.17932e-09 5.3955e-09 6.86708e-11 -2.19593e-11 3.59855e-11)
(0.000448756 9.55335e-09 9.9858e-09 6.38965e-11 -2.3126e-11 3.78033e-11)
(0.000448754 4.24619e-09 6.58738e-09 6.12381e-11 -2.39789e-11 3.99562e-11)
(0.000448757 9.24394e-09 1.02662e-08 5.82787e-11 -2.4168e-11 4.3076e-11)
(0.000448767 9.16086e-10 9.20299e-09 5.32219e-11 -2.29162e-11 4.46217e-11)
(0.000448759 7.35791e-09 7.97232e-09 4.79434e-11 -1.92085e-11 4.34696e-11)
(0.000448771 -9.37637e-10 1.03773e-08 4.50408e-11 -1.5248e-11 3.98848e-11)
(0.000448765 -2.1726e-09 6.71037e-09 3.22187e-11 -9.61648e-12 3.82259e-11)
(0.000448764 -4.28051e-09 9.06936e-09 3.25453e-11 -5.91419e-12 4.01413e-11)
(0.000448767 -6.41005e-09 6.46803e-09 3.36282e-11 -2.33801e-12 4.00312e-11)
(0.000448765 -1.29261e-08 6.48067e-09 3.2151e-11 4.29489e-13 3.84595e-11)
(0.000448774 -1.21942e-08 6.85625e-09 2.74505e-11 1.72693e-12 3.71967e-11)
(0.000448768 -2.08367e-08 6.20979e-09 2.55479e-11 -2.02323e-15 3.71102e-11)
(0.00044878 -1.99297e-08 7.13804e-09 2.54864e-11 -1.3122e-12 3.85226e-11)
(0.000448782 -2.36439e-08 5.72493e-09 2.79682e-11 -1.84339e-12 3.69697e-11)
(0.000448789 -2.57908e-08 9.52979e-09 2.98981e-11 -1.66447e-12 3.23821e-11)
(0.000448797 -2.43117e-08 4.08126e-09 3.08372e-11 -2.03529e-12 2.83776e-11)
(0.000448798 -2.41174e-08 1.05589e-08 3.45446e-11 -3.82895e-12 2.56489e-11)
(0.000448809 -2.35502e-08 4.86418e-09 4.03862e-11 -3.41842e-12 2.39255e-11)
(0.000448808 -1.85327e-08 8.9037e-09 4.31498e-11 -2.18272e-12 2.23766e-11)
(0.000448815 -1.76148e-08 6.10994e-09 4.2867e-11 -2.4037e-12 1.86718e-11)
(0.000448814 -1.282e-08 7.51833e-09 4.26416e-11 -4.95842e-12 1.74382e-11)
(0.000448812 -6.70631e-09 6.05037e-09 4.5381e-11 -7.93112e-12 2.04234e-11)
(0.000448813 -6.23056e-09 5.25787e-09 4.95715e-11 -8.32037e-12 2.5555e-11)
(0.000448808 4.60715e-09 6.8442e-09 4.83296e-11 -4.36815e-12 3.16235e-11)
(0.000448805 1.50854e-09 2.05668e-09 4.42899e-11 -1.01147e-12 3.44831e-11)
(0.000448796 1.28794e-08 7.31599e-09 3.83005e-11 5.35562e-13 3.45047e-11)
(0.000448792 8.98718e-09 -2.07101e-10 3.40015e-11 1.62348e-12 3.4598e-11)
(0.000448786 1.84828e-08 6.08853e-09 3.40085e-11 2.56169e-12 3.54025e-11)
(0.000448776 1.32863e-08 1.67747e-10 3.66138e-11 5.633e-12 3.77537e-11)
(0.000448774 2.25789e-08 2.87195e-09 4.2078e-11 8.94585e-12 3.96022e-11)
(0.000448763 1.56358e-08 1.66345e-09 4.83632e-11 1.00195e-11 3.88867e-11)
(0.00044876 2.34863e-08 7.52965e-10 5.58675e-11 9.04016e-12 3.70818e-11)
(0.000448754 1.76659e-08 2.66899e-09 6.39483e-11 6.66156e-12 3.40039e-11)
(0.000448751 1.93933e-08 6.66151e-10 7.79073e-11 3.38726e-12 3.15577e-11)
(0.000448744 1.92724e-08 4.50751e-09 9.49778e-11 -3.636e-13 3.10601e-11)
(0.000448747 1.28345e-08 1.99957e-09 1.08805e-10 -4.70708e-12 3.07701e-11)
(0.000448742 1.61782e-08 6.71115e-09 1.14314e-10 -7.69715e-12 3.22604e-11)
(0.00044874 8.49387e-09 4.94205e-09 1.07017e-10 -8.61869e-12 3.44728e-11)
(0.000448749 1.00579e-08 8.72021e-09 9.14528e-11 -8.82578e-12 3.49108e-11)
(0.000448742 4.43954e-09 8.29699e-09 7.37232e-11 -9.41192e-12 3.45211e-11)
(0.000448753 6.25415e-09 1.03542e-08 5.79679e-11 -1.03923e-11 3.29781e-11)
(0.000448754 7.31099e-10 1.01458e-08 4.60474e-11 -9.64115e-12 3.30921e-11)
(0.000448755 4.90134e-09 1.06491e-08 3.99769e-11 -9.21541e-12 3.55073e-11)
(0.000448766 -5.46398e-10 1.17865e-08 3.54858e-11 -1.01239e-11 3.73255e-11)
(0.000448759 2.69306e-09 8.59394e-09 3.26395e-11 -1.05761e-11 3.81763e-11)
(0.000448766 -5.9211e-10 1.13889e-08 3.21763e-11 -1.10401e-11 3.82494e-11)
(0.000448762 -5.85561e-09 7.34604e-09 3.41352e-11 -1.13881e-11 4.78688e-11)
(0.000448761 -3.81435e-09 8.71038e-09 3.93811e-11 -7.40337e-12 5.03893e-11)
(0.000448759 -8.89699e-09 5.84805e-09 4.80935e-11 -3.25054e-12 5.02394e-11)
(0.000448761 -1.47528e-08 5.95872e-09 4.65722e-11 8.91663e-13 5.12756e-11)
(0.000448766 -1.37178e-08 6.28011e-09 3.90026e-11 2.23871e-13 5.32311e-11)
(0.000448763 -2.49531e-08 5.71345e-09 3.73127e-11 -3.299e-12 5.54147e-11)
(0.000448778 -2.108e-08 7.14138e-09 3.6783e-11 -2.09223e-12 5.6781e-11)
(0.000448778 -2.8678e-08 5.31074e-09 3.82739e-11 -4.62841e-13 5.26352e-11)
(0.000448788 -2.62087e-08 9.79918e-09 3.6236e-11 1.34684e-12 4.86814e-11)
(0.000448799 -2.9405e-08 3.78831e-09 3.29929e-11 -9.72424e-13 4.55211e-11)
(0.000448799 -2.40127e-08 1.12445e-08 3.51163e-11 -4.09046e-12 4.02555e-11)
(0.000448813 -2.77496e-08 4.64671e-09 4.14982e-11 -1.95437e-12 3.66616e-11)
(0.000448813 -1.84723e-08 9.99648e-09 4.52987e-11 9.23974e-13 3.23426e-11)
(0.000448819 -2.04737e-08 6.56087e-09 5.11612e-11 1.4455e-12 2.60304e-11)
(0.000448823 -1.26261e-08 7.64962e-09 5.57665e-11 -1.6852e-13 2.3458e-11)
(0.000448817 -8.43762e-09 8.09475e-09 6.33715e-11 -2.22785e-12 2.30838e-11)
(0.000448823 -4.96656e-09 4.38428e-09 7.16702e-11 9.45006e-13 2.48343e-11)
(0.000448813 3.65629e-09 9.2456e-09 6.85258e-11 7.68898e-12 2.83523e-11)
(0.000448812 3.23282e-09 2.15123e-09 5.92519e-11 9.34958e-12 2.95601e-11)
(0.000448802 1.24173e-08 8.33962e-09 4.48653e-11 8.83476e-12 2.93995e-11)
(0.000448796 1.05036e-08 1.6665e-09 3.22568e-11 7.41795e-12 3.01602e-11)
(0.000448789 1.87571e-08 5.55946e-09 3.02215e-11 7.42862e-12 3.04228e-11)
(0.000448779 1.43666e-08 2.91485e-09 3.64085e-11 9.65521e-12 3.18118e-11)
(0.000448776 2.38596e-08 2.51649e-09 4.53238e-11 1.13337e-11 3.24849e-11)
(0.000448764 1.62457e-08 3.86914e-09 5.48885e-11 1.21435e-11 3.16539e-11)
(0.000448762 2.57016e-08 1.11048e-09 6.13141e-11 1.07639e-11 3.16677e-11)
(0.000448751 1.8047e-08 3.93102e-09 6.52976e-11 8.33299e-12 3.0057e-11)
(0.000448752 2.21226e-08 2.04655e-09 8.35788e-11 6.3471e-12 2.93862e-11)
(0.000448739 1.83388e-08 5.5971e-09 1.10447e-10 4.63742e-12 2.9976e-11)
(0.000448744 1.56984e-08 3.95307e-09 1.39193e-10 2.0051e-12 3.03978e-11)
(0.000448738 1.23587e-08 8.53239e-09 1.57819e-10 1.21838e-12 3.4366e-11)
(0.000448735 9.15619e-09 7.13556e-09 1.561e-10 1.10031e-12 3.93637e-11)
(0.000448745 4.83416e-09 1.0886e-08 1.39918e-10 1.61042e-12 4.25642e-11)
(0.000448739 1.66582e-09 1.12689e-08 1.16999e-10 1.19914e-12 4.53766e-11)
(0.00044875 9.41743e-10 1.19993e-08 8.99886e-11 1.1357e-12 4.5923e-11)
(0.000448752 -2.46695e-09 1.34443e-08 7.02168e-11 4.56387e-12 4.73195e-11)
(0.000448755 -7.7985e-10 1.19734e-08 6.00942e-11 4.48653e-12 4.7991e-11)
(0.000448764 -1.65949e-09 1.37714e-08 4.98417e-11 3.23916e-13 4.70362e-11)
(0.000448759 -2.45382e-09 9.85511e-09 4.24379e-11 -4.43313e-12 4.76083e-11)
(0.000448763 -1.36876e-10 1.16569e-08 3.61609e-11 -9.67531e-12 4.70258e-11)
(0.000448759 -9.17845e-09 7.85248e-09 4.56577e-11 -9.12143e-12 5.35986e-11)
(0.00044876 -3.29127e-09 7.30286e-09 5.88155e-11 -4.3573e-12 5.48257e-11)
(0.000448751 -1.19835e-08 5.42076e-09 7.8072e-11 -1.33501e-12 5.61128e-11)
(0.000448758 -1.52994e-08 5.09957e-09 7.17495e-11 3.23825e-12 6.10481e-11)
(0.000448759 -1.74032e-08 5.67349e-09 6.25276e-11 -2.94639e-12 6.51725e-11)
(0.000448758 -2.71282e-08 5.66506e-09 6.35302e-11 -7.03695e-12 6.85592e-11)
(0.000448775 -2.49089e-08 6.70226e-09 6.13716e-11 -3.59154e-12 7.10514e-11)
(0.000448775 -3.17166e-08 6.16115e-09 6.36138e-11 -2.39756e-12 6.82145e-11)
(0.000448788 -2.95255e-08 9.15678e-09 5.97227e-11 -3.28249e-12 6.84366e-11)
(0.0004488 -3.22089e-08 5.02381e-09 5.11846e-11 -1.05212e-11 6.50343e-11)
(0.000448801 -2.75417e-08 1.13028e-08 5.29399e-11 -1.2866e-11 5.77932e-11)
(0.000448817 -2.94855e-08 5.55657e-09 5.6094e-11 -9.24861e-12 5.68863e-11)
(0.000448819 -2.19715e-08 1.14376e-08 6.03545e-11 -5.4333e-12 5.20135e-11)
(0.000448823 -2.13836e-08 7.57629e-09 7.1978e-11 -3.35293e-12 4.41203e-11)
(0.000448831 -1.48626e-08 9.14016e-09 7.48562e-11 -3.94277e-12 3.79151e-11)
(0.000448823 -9.71925e-09 1.0187e-08 8.7623e-11 -4.81154e-12 3.17936e-11)
(0.000448831 -4.93739e-09 5.52095e-09 9.98732e-11 4.03575e-12 2.98177e-11)
(0.000448819 1.29015e-09 1.15094e-08 9.19375e-11 1.26664e-11 3.0475e-11)
(0.000448817 4.91099e-09 3.99524e-09 7.86846e-11 1.35685e-11 3.04185e-11)
(0.000448807 8.63431e-09 9.63357e-09 5.64419e-11 1.19894e-11 2.99682e-11)
(0.000448801 1.33236e-08 4.47145e-09 3.94639e-11 7.26099e-12 3.10152e-11)
(0.000448791 1.43882e-08 6.03348e-09 4.39079e-11 6.75318e-12 3.05377e-11)
(0.000448783 1.81112e-08 5.69977e-09 5.64497e-11 6.35902e-12 3.10885e-11)
(0.000448776 2.01829e-08 3.42265e-09 6.7676e-11 8.42393e-12 3.0509e-11)
(0.000448766 2.04103e-08 5.79796e-09 7.87799e-11 1.06461e-11 2.93814e-11)
(0.000448762 2.4186e-08 2.25658e-09 7.36032e-11 8.92064e-12 2.95874e-11)
(0.000448749 2.21909e-08 5.31619e-09 6.97287e-11 7.09301e-12 2.86686e-11)
(0.000448751 2.31378e-08 4.10738e-09 9.02417e-11 7.71067e-12 2.92619e-11)
(0.000448735 1.99728e-08 6.97594e-09 1.24042e-10 6.413e-12 2.95547e-11)
(0.000448738 1.77267e-08 6.81912e-09 1.68376e-10 4.89841e-12 3.00403e-11)
(0.000448733 9.18654e-09 1.04062e-08 1.98708e-10 7.10228e-12 3.61465e-11)
(0.000448729 9.39393e-09 9.99312e-09 2.05464e-10 1.00075e-11 4.32578e-11)
(0.000448738 -1.55264e-09 1.32812e-08 1.97616e-10 1.60446e-11 4.9491e-11)
(0.000448736 -1.01142e-09 1.42927e-08 1.7734e-10 1.76952e-11 5.66862e-11)
(0.000448747 -6.49207e-09 1.43649e-08 1.47387e-10 2.13508e-11 6.11191e-11)
(0.000448751 -5.47514e-09 1.63785e-08 1.28903e-10 2.79437e-11 6.56837e-11)
(0.000448756 -7.9884e-09 1.3995e-08 1.12325e-10 2.45369e-11 6.34888e-11)
(0.000448763 -2.56279e-09 1.51538e-08 8.73174e-11 1.5753e-11 5.99704e-11)
(0.000448761 -7.87293e-09 1.14841e-08 6.64926e-11 7.31188e-12 5.92227e-11)
(0.000448762 3.25078e-10 1.11201e-08 4.98487e-11 -4.16529e-12 5.48994e-11)
(0.000448757 -1.05165e-08 7.18525e-09 7.28661e-11 1.80646e-12 6.21604e-11)
(0.000448758 -3.55732e-09 5.10435e-09 9.89213e-11 6.30816e-12 6.03712e-11)
(0.000448744 -1.45772e-08 4.51354e-09 1.24714e-10 7.07133e-12 6.1216e-11)
(0.000448754 -1.55144e-08 3.36536e-09 1.07504e-10 1.23806e-11 6.57256e-11)
(0.000448751 -2.23561e-08 5.19078e-09 1.02725e-10 -5.45135e-13 6.85657e-11)
(0.000448753 -2.82148e-08 5.00146e-09 1.07508e-10 -5.52533e-13 7.31706e-11)
(0.000448772 -3.06218e-08 6.4384e-09 1.03786e-10 2.19272e-12 7.83762e-11)
(0.000448772 -3.37896e-08 6.63469e-09 1.12915e-10 2.72583e-12 7.75977e-11)
(0.000448788 -3.49305e-08 8.42395e-09 1.03773e-10 -3.63258e-12 8.40969e-11)
(0.000448801 -3.40408e-08 6.31026e-09 8.38815e-11 -1.39026e-11 7.95973e-11)
(0.000448803 -3.38185e-08 1.15376e-08 8.291e-11 -1.61173e-11 7.56785e-11)
(0.00044882 -3.00028e-08 7.11185e-09 7.64054e-11 -1.6431e-11 8.1407e-11)
(0.000448824 -2.84124e-08 1.34529e-08 8.71398e-11 -1.38127e-11 7.62554e-11)
(0.000448828 -2.11416e-08 9.19722e-09 1.02253e-10 -1.18588e-11 6.81044e-11)
(0.000448838 -2.0369e-08 1.15814e-08 9.61209e-11 -1.43059e-11 5.58992e-11)
(0.00044883 -9.58332e-09 1.25624e-08 1.15666e-10 -1.5175e-11 4.6332e-11)
(0.000448837 -9.09692e-09 8.03551e-09 1.25832e-10 2.03684e-12 4.04933e-11)
(0.000448826 4.08646e-10 1.41183e-08 1.11468e-10 1.03607e-11 3.81474e-11)
(0.000448821 1.25417e-09 7.08312e-09 1.01615e-10 1.41174e-11 3.72708e-11)
(0.000448813 6.36568e-09 1.18354e-08 7.31439e-11 1.24433e-11 3.46419e-11)
(0.000448804 1.1153e-08 7.80096e-09 5.98849e-11 7.29216e-12 3.65183e-11)
(0.000448795 1.09618e-08 7.79557e-09 7.92927e-11 7.78888e-12 3.51603e-11)
(0.000448787 1.79238e-08 8.17223e-09 9.24778e-11 4.43715e-12 3.57201e-11)
(0.000448778 1.65427e-08 5.42325e-09 1.13218e-10 1.1625e-11 3.49873e-11)
(0.000448769 2.28063e-08 7.11724e-09 1.28723e-10 1.35779e-11 3.41295e-11)
(0.000448764 2.23066e-08 4.33971e-09 1.04598e-10 9.98095e-12 3.31846e-11)
(0.000448749 2.72951e-08 6.8142e-09 9.15393e-11 7.52401e-12 3.40299e-11)
(0.000448749 2.31712e-08 7.10077e-09 1.0152e-10 9.08063e-12 3.56691e-11)
(0.000448732 2.40983e-08 8.73478e-09 1.29444e-10 2.48144e-12 3.44702e-11)
(0.00044873 1.70389e-08 1.06405e-08 1.7865e-10 2.8502e-12 3.43587e-11)
(0.000448727 9.0548e-09 1.26197e-08 2.15804e-10 7.63281e-12 4.20954e-11)
(0.000448721 5.67735e-09 1.4e-08 2.36387e-10 1.82015e-11 5.06656e-11)
(0.000448731 -5.80967e-09 1.61174e-08 2.47553e-10 3.24963e-11 5.76633e-11)
(0.000448733 -7.9403e-09 1.80656e-08 2.39326e-10 3.46507e-11 7.02277e-11)
(0.000448744 -1.27807e-08 1.72351e-08 2.2017e-10 4.85648e-11 7.99e-11)
(0.00044875 -1.2329e-08 1.93501e-08 2.13299e-10 5.8859e-11 8.72324e-11)
(0.000448759 -1.36683e-08 1.61048e-08 1.88075e-10 5.14107e-11 8.16877e-11)
(0.000448764 -6.39508e-09 1.63017e-08 1.44124e-10 3.7996e-11 7.86321e-11)
(0.000448763 -1.12534e-08 1.23449e-08 1.07206e-10 2.58739e-11 7.6172e-11)
(0.000448761 -9.36115e-10 1.00879e-08 8.14592e-11 5.22171e-12 6.48366e-11)
(0.000448756 -7.63186e-09 4.78986e-09 1.29879e-10 1.97494e-11 8.43892e-11)
(0.000448755 -5.71378e-09 1.87431e-09 1.79275e-10 1.72607e-11 7.59426e-11)
(0.000448737 -1.34832e-08 2.1941e-09 1.94763e-10 1.62391e-11 7.57263e-11)
(0.000448749 -1.72343e-08 5.5354e-10 1.62849e-10 2.18572e-11 7.44846e-11)
(0.000448744 -2.49623e-08 4.28124e-09 1.7233e-10 4.01339e-12 7.3065e-11)
(0.000448748 -2.96555e-08 3.52285e-09 1.815e-10 1.11509e-11 7.94013e-11)
(0.000448769 -3.44241e-08 6.10968e-09 1.82227e-10 1.49775e-11 8.32828e-11)
(0.00044877 -3.58327e-08 6.2559e-09 2.02626e-10 1.82192e-11 8.39075e-11)
(0.000448788 -3.8517e-08 7.99621e-09 1.72152e-10 4.20001e-12 9.62408e-11)
(0.000448802 -3.59658e-08 7.1055e-09 1.37054e-10 -1.33999e-12 8.96299e-11)
(0.000448806 -3.83988e-08 1.29263e-08 1.31593e-10 -1.01718e-11 9.27942e-11)
(0.000448823 -3.10237e-08 9.17041e-09 1.06373e-10 -1.51631e-11 1.02846e-10)
(0.000448829 -3.32135e-08 1.76006e-08 1.35416e-10 -1.39528e-11 1.00336e-10)
(0.000448833 -2.18504e-08 1.17551e-08 1.42406e-10 -1.54759e-11 9.30121e-11)
(0.000448845 -2.50309e-08 1.6708e-08 1.17172e-10 -2.53718e-11 7.4796e-11)
(0.000448837 -1.06274e-08 1.56435e-08 1.43059e-10 -2.608e-11 6.90906e-11)
(0.000448843 -1.428e-08 1.33747e-08 1.40677e-10 -4.68491e-14 5.50738e-11)
(0.000448832 -9.81228e-10 1.76193e-08 1.28588e-10 3.66069e-12 5.31498e-11)
(0.000448825 -5.08018e-09 1.26892e-08 1.28328e-10 1.39035e-11 5.00153e-11)
(0.000448819 4.71682e-09 1.50816e-08 9.04616e-11 1.17826e-11 4.41601e-11)
(0.000448806 4.95995e-09 1.2935e-08 9.37388e-11 1.27383e-11 4.72237e-11)
(0.000448799 9.58776e-09 1.0501e-08 1.25502e-10 1.06643e-11 4.35242e-11)
(0.00044879 1.30244e-08 1.18635e-08 1.35377e-10 9.25893e-12 4.55693e-11)
(0.000448782 1.63126e-08 7.8042e-09 1.86457e-10 2.73259e-11 4.6199e-11)
(0.000448773 2.05351e-08 9.42422e-09 2.02773e-10 2.73187e-11 4.5652e-11)
(0.000448768 2.50119e-08 6.15529e-09 1.61948e-10 2.13665e-11 4.1959e-11)
(0.00044875 2.86431e-08 9.25774e-09 1.39702e-10 1.88121e-11 4.81152e-11)
(0.000448748 2.79447e-08 9.625e-09 1.25826e-10 1.58699e-11 4.98541e-11)
(0.000448728 2.61807e-08 1.16921e-08 1.40007e-10 -3.3109e-12 4.5698e-11)
(0.00044872 1.99107e-08 1.4337e-08 1.82688e-10 2.30733e-12 4.30486e-11)
(0.000448719 7.33639e-09 1.5629e-08 2.16773e-10 5.56072e-12 5.3971e-11)
(0.000448712 2.70657e-09 1.79998e-08 2.47734e-10 2.80607e-11 6.29433e-11)
(0.000448723 -1.21616e-08 1.90497e-08 2.82644e-10 4.42611e-11 6.88444e-11)
(0.000448728 -1.59573e-08 2.16361e-08 2.90432e-10 4.67193e-11 8.75483e-11)
(0.000448742 -2.03941e-08 2.00595e-08 2.93687e-10 7.65607e-11 1.01282e-10)
(0.00044875 -2.12878e-08 2.20253e-08 3.0506e-10 8.9423e-11 1.12702e-10)
(0.000448763 -1.86469e-08 1.78286e-08 2.75091e-10 7.7556e-11 1.02218e-10)
(0.000448766 -1.29802e-08 1.68605e-08 2.18653e-10 6.09535e-11 1.06084e-10)
(0.000448767 -1.18878e-08 1.19202e-08 1.75656e-10 4.58903e-11 9.95155e-11)
(0.000448762 -4.33671e-09 8.15365e-09 1.42443e-10 1.36654e-11 8.34138e-11)
(0.000448756 -4.74338e-09 -5.90895e-10 2.34574e-10 4.54893e-11 1.20889e-10)
(0.000448751 -6.69377e-09 -3.21184e-09 3.05544e-10 2.037e-11 1.02216e-10)
(0.000448731 -1.18422e-08 -2.44304e-09 2.86406e-10 2.2026e-11 1.06384e-10)
(0.000448742 -1.84913e-08 -3.14785e-09 2.52141e-10 2.40029e-11 9.29359e-11)
(0.000448738 -2.61707e-08 2.34077e-09 2.84123e-10 -2.82336e-13 8.8736e-11)
(0.000448743 -3.03862e-08 1.99276e-09 3.02388e-10 1.73547e-11 9.55045e-11)
(0.000448765 -3.61755e-08 5.51027e-09 3.23831e-10 2.98587e-11 9.15456e-11)
(0.000448768 -3.75479e-08 5.90389e-09 3.57236e-10 3.06946e-11 9.40645e-11)
(0.000448788 -3.98039e-08 7.41754e-09 2.83331e-10 1.62979e-11 1.10452e-10)
(0.000448802 -3.88353e-08 8.20989e-09 2.4866e-10 2.31072e-11 1.01055e-10)
(0.000448808 -4.06362e-08 1.47737e-08 2.1986e-10 -4.10915e-12 1.12955e-10)
(0.000448826 -3.41934e-08 1.27717e-08 1.68104e-10 2.03482e-12 1.22845e-10)
(0.000448834 -3.56049e-08 2.31067e-08 2.34092e-10 -3.75087e-12 1.32378e-10)
(0.000448837 -2.56008e-08 1.64376e-08 2.02854e-10 -1.14582e-11 1.19496e-10)
(0.000448851 -2.78378e-08 2.39937e-08 1.46068e-10 -3.62974e-11 1.02693e-10)
(0.000448842 -1.54808e-08 2.07604e-08 1.69027e-10 -3.12913e-11 1.05223e-10)
(0.000448848 -1.92475e-08 2.13881e-08 1.43012e-10 2.25129e-12 7.39519e-11)
(0.000448836 -6.06649e-09 2.31155e-08 1.45396e-10 -5.98572e-12 8.37956e-11)
(0.000448828 -1.18421e-08 2.04065e-08 1.51426e-10 1.33706e-11 7.13038e-11)
(0.000448824 -2.69185e-10 2.00754e-08 1.03074e-10 8.65071e-12 6.55487e-11)
(0.000448809 -2.44465e-09 1.92735e-08 1.38779e-10 1.92133e-11 6.93271e-11)
(0.000448804 5.40104e-09 1.39703e-08 1.66783e-10 8.25203e-12 6.0779e-11)
(0.000448794 6.62274e-09 1.59324e-08 1.8544e-10 2.01652e-11 6.75053e-11)
(0.000448787 1.45184e-08 9.47375e-09 2.82256e-10 5.05086e-11 7.06877e-11)
(0.000448779 1.68792e-08 1.20209e-08 2.86967e-10 4.92488e-11 6.78054e-11)
(0.000448773 2.90473e-08 7.21652e-09 2.51424e-10 4.31396e-11 6.20753e-11)
(0.000448752 2.95107e-08 1.32437e-08 2.1522e-10 4.5902e-11 8.05857e-11)
(0.000448747 3.63932e-08 1.19919e-08 1.77658e-10 2.93555e-11 7.54559e-11)
(0.000448723 2.72998e-08 1.68881e-08 1.81629e-10 -5.467e-12 6.63159e-11)
(0.00044871 2.58325e-08 1.74023e-08 2.05323e-10 1.08349e-11 5.72535e-11)
(0.000448709 2.30088e-09 2.03327e-08 2.19427e-10 8.82062e-12 7.83152e-11)
(0.000448701 2.18093e-09 2.14381e-08 2.55574e-10 4.89603e-11 8.37468e-11)
(0.000448711 -2.3682e-08 2.31907e-08 3.13633e-10 5.47626e-11 9.32526e-11)
(0.000448724 -2.12223e-08 2.43046e-08 3.3146e-10 6.22986e-11 1.17514e-10)
(0.000448739 -3.32335e-08 2.34874e-08 3.60227e-10 1.04327e-10 1.31417e-10)
(0.000448752 -2.72694e-08 2.33199e-08 3.87589e-10 1.14914e-10 1.4658e-10)
(0.000448768 -2.72386e-08 1.91213e-08 3.61675e-10 9.71401e-11 1.24261e-10)
(0.000448772 -1.66301e-08 1.59776e-08 3.07525e-10 8.45625e-11 1.46353e-10)
(0.000448773 -1.39661e-08 9.56436e-09 2.75971e-10 6.34712e-11 1.23498e-10)
(0.000448766 -5.23127e-09 4.3464e-09 2.32794e-10 1.97889e-11 1.11302e-10)
(0.000448755 -1.76807e-09 -8.7147e-09 4.08661e-10 8.53646e-11 1.69938e-10)
(0.000448748 -2.07365e-09 -1.25833e-08 4.67324e-10 1.92053e-11 1.39084e-10)
(0.000448725 -1.02193e-08 -9.29935e-09 4.05415e-10 3.70871e-11 1.60773e-10)
(0.000448735 -1.38366e-08 -1.01285e-08 3.97539e-10 2.31146e-11 1.22087e-10)
(0.000448732 -2.6877e-08 -1.3918e-09 4.44167e-10 -1.49923e-11 1.29521e-10)
(0.000448738 -2.49565e-08 -1.98315e-09 4.88151e-10 2.31109e-11 1.28098e-10)
(0.000448761 -3.75007e-08 3.71103e-09 5.56039e-10 3.78986e-11 1.09552e-10)
(0.000448766 -3.3912e-08 3.90455e-09 5.77261e-10 2.25691e-11 1.21774e-10)
(0.000448786 -4.04264e-08 6.46426e-09 4.6234e-10 3.35179e-11 1.30574e-10)
(0.000448801 -3.72404e-08 9.20674e-09 4.57191e-10 4.04027e-11 1.19889e-10)
(0.00044881 -4.11558e-08 1.76725e-08 3.46511e-10 -8.05767e-12 1.37001e-10)
(0.000448828 -3.37959e-08 1.82733e-08 2.9959e-10 3.29123e-11 1.47156e-10)
(0.000448837 -3.65195e-08 3.08457e-08 4.23281e-10 3.49508e-12 1.78952e-10)
(0.00044884 -2.89055e-08 2.42189e-08 2.9987e-10 -7.12421e-12 1.47149e-10)
(0.000448855 -2.96062e-08 3.37506e-08 2.19631e-10 -5.3865e-11 1.53068e-10)
(0.000448845 -2.13788e-08 2.8812e-08 2.21893e-10 -2.58399e-11 1.55246e-10)
(0.000448852 -2.34557e-08 3.20111e-08 1.55916e-10 7.81732e-12 1.02166e-10)
(0.000448839 -1.30877e-08 3.16553e-08 1.82244e-10 -1.89035e-11 1.39049e-10)
(0.00044883 -1.79515e-08 3.02584e-08 1.79139e-10 1.5133e-11 1.0485e-10)
(0.000448828 -7.47192e-09 2.73655e-08 1.34274e-10 2.74781e-12 1.12071e-10)
(0.000448812 -8.93804e-09 2.62066e-08 2.05278e-10 2.19346e-11 1.08507e-10)
(0.000448808 -1.86416e-09 1.82436e-08 2.0142e-10 -1.16941e-12 9.69737e-11)
(0.000448799 1.05836e-09 1.95795e-08 2.60699e-10 3.07729e-11 1.10233e-10)
(0.000448792 9.27388e-09 1.11016e-08 3.84287e-10 6.89982e-11 1.17718e-10)
(0.000448787 1.52107e-08 1.44205e-08 3.90315e-10 6.73759e-11 1.06893e-10)
(0.00044878 3.12234e-08 8.55322e-09 3.86115e-10 6.36267e-11 1.04698e-10)
(0.000448757 3.54037e-08 1.78861e-08 3.23453e-10 8.22123e-11 1.41421e-10)
(0.000448745 4.5224e-08 1.45515e-08 2.87214e-10 3.74589e-11 1.2527e-10)
(0.000448717 3.29709e-08 2.2794e-08 2.79719e-10 -1.53569e-12 1.01762e-10)
(0.000448696 3.07592e-08 2.00902e-08 2.68692e-10 3.05819e-11 8.12861e-11)
(0.000448696 -1.93054e-10 2.60828e-08 2.45958e-10 2.0147e-11 1.23916e-10)
(0.000448686 1.98381e-10 2.44288e-08 2.90789e-10 8.89e-11 1.15797e-10)
(0.000448699 -3.42233e-08 2.82587e-08 3.64066e-10 7.44152e-11 1.44571e-10)
(0.000448719 -2.70396e-08 2.57956e-08 3.7902e-10 9.48579e-11 1.58684e-10)
(0.000448736 -4.61074e-08 2.73736e-08 4.25217e-10 1.36304e-10 1.76885e-10)
(0.000448756 -3.24046e-08 2.2324e-08 4.6544e-10 1.40975e-10 1.90085e-10)
(0.000448774 -3.61255e-08 2.01436e-08 4.52349e-10 1.2258e-10 1.5472e-10)
(0.000448779 -1.73799e-08 1.15261e-08 4.19505e-10 1.19921e-10 2.08782e-10)
(0.000448778 -1.60718e-08 5.1488e-09 4.06392e-10 8.13671e-11 1.45481e-10)
(0.000448771 -1.0405e-09 -4.2104e-09 3.56272e-10 3.4446e-11 1.61296e-10)
(0.000448746 7.6071e-09 -2.02276e-08 6.74565e-10 1.47301e-10 2.29211e-10)
(0.000448736 5.9413e-09 -2.66884e-08 6.42326e-10 2.37034e-11 2.06923e-10)
(0.000448712 -2.12155e-09 -1.85374e-08 5.75966e-10 8.46107e-11 2.42131e-10)
(0.000448719 -5.47041e-09 -2.08254e-08 6.07512e-10 2.64587e-11 1.67283e-10)
(0.000448719 -2.16338e-08 -6.16218e-09 6.54609e-10 -2.70068e-11 2.16567e-10)
(0.000448725 -1.41526e-08 -8.95528e-09 7.75152e-10 4.90848e-11 1.80196e-10)
(0.000448749 -3.35475e-08 1.20446e-09 8.85375e-10 2.05705e-11 1.58276e-10)
(0.000448757 -2.48474e-08 -1.36874e-09 8.64026e-10 -2.36157e-12 1.8495e-10)
(0.000448776 -3.7045e-08 5.35012e-09 7.86512e-10 6.41896e-11 1.70345e-10)
(0.000448793 -2.89981e-08 8.706e-09 7.72379e-10 1.391e-11 1.59342e-10)
(0.000448803 -3.71756e-08 2.23793e-08 4.96343e-10 -2.7289e-11 1.71278e-10)
(0.000448822 -2.70331e-08 2.51452e-08 5.64044e-10 5.99078e-11 1.92058e-10)
(0.00044883 -3.59753e-08 4.20251e-08 7.25669e-10 -1.91944e-11 2.48873e-10)
(0.000448835 -2.95863e-08 3.48568e-08 4.52411e-10 -1.9755e-11 1.87901e-10)
(0.000448849 -3.20609e-08 4.664e-08 3.96594e-10 -1.01046e-10 2.45113e-10)
(0.000448839 -2.539e-08 3.93459e-08 3.25677e-10 -8.47831e-12 2.23602e-10)
(0.000448846 -2.77604e-08 4.56307e-08 2.12656e-10 1.3017e-11 1.4925e-10)
(0.000448833 -1.82643e-08 4.20378e-08 2.70259e-10 -3.07052e-11 2.22761e-10)
(0.000448824 -2.39792e-08 4.15924e-08 2.35386e-10 2.64171e-11 1.5716e-10)
(0.000448823 -1.34179e-08 3.48238e-08 2.17347e-10 -6.74026e-12 1.96846e-10)
(0.000448806 -1.48953e-08 3.24787e-08 2.99103e-10 3.02232e-11 1.74553e-10)
(0.000448804 -8.96669e-09 2.08669e-08 2.61735e-10 -1.43556e-11 1.62892e-10)
(0.000448795 -4.36128e-09 2.09646e-08 3.7523e-10 3.37297e-11 1.87377e-10)
(0.000448791 3.69407e-09 1.00568e-08 4.92852e-10 7.28309e-11 1.9582e-10)
(0.000448789 1.50338e-08 1.46416e-08 5.46734e-10 6.78321e-11 1.69967e-10)
(0.000448782 3.42001e-08 8.24134e-09 5.71081e-10 7.21611e-11 1.81732e-10)
(0.000448756 4.66777e-08 2.16677e-08 4.78617e-10 1.17301e-10 2.43696e-10)
(0.000448736 5.51059e-08 1.58993e-08 4.86261e-10 2.36951e-11 2.13379e-10)
(0.000448702 4.36211e-08 2.74988e-08 4.55471e-10 1.05239e-11 1.55295e-10)
(0.000448672 3.43289e-08 2.157e-08 3.92045e-10 5.21591e-11 1.35096e-10)
(0.000448673 1.75399e-09 3.09907e-08 3.10346e-10 3.00805e-11 2.01464e-10)
(0.000448662 -4.11467e-09 2.59162e-08 3.96645e-10 1.46214e-10 1.69769e-10)
(0.000448679 -4.02695e-08 3.17092e-08 4.63614e-10 1.01454e-10 2.45068e-10)