/*--------------------------------*- C++ -*----------------------------------*\
  =========                 |
  \\      /  F ield         | OpenFOAM: The Open Source CFD Toolbox
   \\    /   O peration     | Website:  https://openfoam.org
    \\  /    A nd           | Version:  10
     \\/     M anipulation  |
\*---------------------------------------------------------------------------*/
FoamFile
{
    format      ascii;
    class       volScalarField;
    location    "9";
    object      nut;
}
// * * * * * * * * * * * * * * * * * * * * * * * * * * * * * * * * * * * * * //

dimensions      [0 2 -1 0 0 0 0];

internalField   nonuniform List<scalar> 
102400
(
5.06593e-09
3.40903e-08
1.79789e-08
3.23124e-10
9.58693e-09
8.11056e-09
1.12883e-08
3.90822e-09
1.65261e-09
1.39831e-09
3.1071e-10
4.13186e-10
4.28667e-11
5.36838e-12
1.01504e-10
3.305e-11
7.85457e-11
2.02173e-09
2.64549e-10
7.11004e-11
5.04804e-10
9.64563e-10
1.34429e-11
2.90741e-10
1.20641e-10
8.57133e-10
6.79908e-10
2.93968e-09
7.80259e-11
1.25345e-09
2.21123e-10
8.19928e-10
2.67741e-09
3.86587e-09
2.27221e-10
1.12881e-10
1.37897e-10
9.70274e-11
5.59442e-10
9.39259e-10
1.20125e-08
1.50444e-07
2.43273e-07
1.32954e-09
6.08366e-08
6.15864e-08
4.38413e-08
1.38259e-09
3.92505e-09
3.10612e-09
4.76869e-09
1.71548e-08
5.65015e-09
2.97025e-09
7.25336e-09
3.3366e-10
2.79289e-09
5.86194e-08
2.90274e-08
5.61484e-09
1.2638e-09
1.33838e-08
6.72809e-11
1.9729e-09
1.01591e-09
3.24339e-09
1.11275e-08
8.88519e-08
6.68718e-09
1.58495e-08
5.23659e-09
2.78974e-09
1.85252e-08
3.32379e-08
1.41614e-08
1.17545e-09
2.94536e-10
1.56939e-09
7.18252e-09
4.41019e-09
6.00842e-09
3.56325e-08
5.62514e-07
8.04348e-08
9.58017e-08
7.11505e-08
1.26493e-07
5.43801e-09
1.68924e-08
9.81064e-09
2.19726e-09
6.25944e-08
5.81135e-08
3.58729e-08
1.28743e-07
2.71077e-08
1.32019e-08
3.9077e-07
2.98617e-07
4.64388e-07
3.75728e-07
4.42637e-09
8.68164e-10
1.15838e-08
1.02235e-09
8.68431e-09
4.78186e-09
2.85521e-07
4.41974e-07
2.65854e-07
5.34996e-08
1.12943e-08
1.43369e-08
2.05872e-08
2.65425e-08
2.46628e-08
2.57469e-09
1.33912e-07
1.31449e-07
3.72179e-08
2.91393e-07
1.3269e-08
2.74634e-07
1.33848e-06
1.45432e-07
1.91105e-07
1.38448e-07
5.09607e-08
4.74261e-08
1.22024e-07
1.34282e-11
4.15952e-08
1.12815e-07
9.54429e-08
5.56075e-07
9.43125e-07
1.28706e-07
1.65626e-06
1.82271e-06
1.37296e-06
2.05316e-05
2.59421e-06
6.69339e-09
8.65324e-08
1.01832e-09
3.04935e-08
5.12595e-09
1.66171e-07
3.63995e-07
4.60134e-05
2.42767e-06
3.31826e-07
9.98822e-09
5.456e-08
9.06931e-08
4.82207e-08
6.88e-08
1.12146e-06
3.37389e-06
7.96389e-07
2.76348e-06
9.67559e-07
5.13917e-08
1.63281e-06
8.87474e-07
2.61969e-06
4.07969e-07
1.11236e-07
6.13325e-08
5.08187e-07
2.12246e-08
3.3052e-08
7.77403e-08
1.34712e-07
6.32907e-07
3.10607e-06
1.37355e-06
2.73871e-06
1.50279e-05
5.0083e-06
1.85381e-05
3.12092e-05
2.46801e-06
2.70326e-06
9.32194e-09
2.52054e-07
4.93288e-08
1.40664e-07
2.36165e-07
5.07886e-06
0.00011989
3.47068e-06
2.41432e-06
4.47778e-07
1.17061e-06
5.12495e-07
3.26893e-07
1.50725e-06
1.00405e-05
3.38711e-06
2.85669e-06
2.67551e-05
3.15225e-07
9.55736e-07
2.55942e-06
1.1073e-05
6.83357e-06
4.74763e-07
1.25339e-07
3.58844e-07
2.28092e-07
2.31641e-08
9.31126e-08
7.0546e-07
1.08702e-06
3.00177e-06
3.39132e-06
3.95245e-06
2.24941e-05
2.51954e-05
2.21182e-05
3.18339e-05
4.26356e-06
1.19943e-05
4.17468e-06
7.44733e-06
1.31812e-06
3.87829e-07
5.58704e-07
2.26728e-07
0.000105328
0.000134223
4.1962e-06
4.36546e-07
6.53327e-06
1.87351e-06
1.47157e-06
1.853e-06
1.56386e-06
3.93422e-06
2.1764e-06
3.64559e-05
1.1222e-05
6.75063e-07
2.29965e-06
6.3254e-06
7.4197e-05
1.52802e-06
6.10066e-07
3.38911e-07
1.00298e-07
2.91834e-08
7.67126e-08
3.3392e-06
8.74195e-06
4.57005e-06
2.78356e-06
4.78093e-06
1.04531e-05
3.35146e-05
2.82275e-05
2.72103e-05
9.63024e-06
5.01525e-06
2.58186e-05
1.84887e-06
1.96472e-05
2.69167e-05
1.54695e-05
1.89906e-07
4.97257e-05
0.000116718
7.31465e-05
4.25585e-05
9.52862e-06
2.84903e-06
2.57543e-06
9.50611e-07
5.33608e-06
7.18185e-07
3.70944e-07
6.09825e-06
4.32972e-05
1.38958e-06
1.62209e-06
3.22775e-06
0.000188238
5.10856e-05
4.45645e-06
1.43811e-06
1.43454e-07
4.36151e-07
5.20967e-08
1.13865e-06
2.19336e-05
2.29001e-05
3.19631e-06
9.51413e-07
2.52075e-06
8.21063e-06
1.97989e-05
1.63454e-05
1.70681e-05
6.6314e-06
2.33883e-05
4.95721e-06
2.78018e-05
4.92591e-05
0.00011342
2.18353e-05
5.81721e-06
0.000132584
4.71658e-05
4.22893e-07
8.49665e-06
2.58556e-06
2.3043e-06
3.27327e-07
4.547e-06
4.5905e-06
6.85409e-07
6.69076e-07
8.75925e-05
8.17779e-06
1.70269e-06
1.90961e-06
0.00018363
3.25335e-05
2.15454e-05
1.72666e-05
2.98192e-07
3.01008e-06
9.44417e-07
2.35072e-07
5.37603e-06
4.20131e-05
1.73037e-05
4.06747e-07
3.48666e-06
4.63875e-06
8.72435e-06
8.61598e-06
8.20236e-06
3.37854e-05
7.69939e-06
1.73597e-05
3.16647e-05
2.47557e-05
9.44066e-05
8.7571e-05
8.14987e-06
3.20379e-05
6.26497e-05
1.22968e-05
1.51241e-05
1.1934e-05
2.9264e-06
1.4493e-06
3.73609e-07
6.83586e-06
4.42568e-06
2.30772e-05
1.76188e-05
3.43815e-05
3.45395e-06
1.53241e-06
8.30808e-05
4.58352e-05
6.99515e-08
1.611e-05
6.7863e-06
4.44703e-06
9.16771e-06
2.32344e-06
7.76055e-06
7.19855e-06
9.20966e-05
1.06399e-05
4.52805e-06
4.89927e-06
6.82492e-06
6.42772e-06
7.15692e-06
3.89623e-05
2.23413e-05
1.54868e-05
1.97087e-05
5.1859e-06
7.40623e-05
9.00788e-05
2.25661e-06
9.69295e-07
8.32847e-05
3.25763e-06
1.50123e-06
1.69507e-05
2.63306e-05
1.28975e-05
1.12687e-07
3.65181e-05
7.71212e-05
5.17827e-05
7.97795e-06
4.80192e-05
1.79477e-05
2.80378e-06
6.84168e-05
4.3214e-05
6.99538e-07
9.72717e-06
1.0109e-05
4.86807e-06
1.70764e-05
1.04062e-05
9.71651e-06
6.46931e-06
5.49076e-05
2.35091e-05
9.8083e-06
5.81116e-06
2.22719e-06
2.47822e-06
9.65231e-06
6.31979e-05
3.82624e-05
9.69447e-06
2.18022e-05
5.37765e-06
2.10175e-05
2.50339e-05
3.62086e-06
1.39539e-05
4.50609e-05
4.55528e-05
1.5056e-05
1.07516e-05
1.95708e-05
1.59481e-05
2.57346e-05
3.44234e-06
1.98143e-05
5.30517e-05
2.43642e-05
3.55098e-05
7.87563e-06
1.95876e-06
4.57393e-05
8.34468e-05
4.61346e-06
2.38124e-06
3.88412e-06
2.50822e-06
3.48824e-05
1.83504e-05
9.30813e-06
7.64363e-05
0.000147086
1.479e-05
3.2608e-05
9.94197e-06
4.54352e-07
3.75269e-07
3.3177e-07
0.000157891
4.71961e-05
6.56426e-06
1.94791e-05
9.55674e-06
8.61575e-06
3.51257e-07
8.67374e-06
1.33484e-05
7.0664e-06
3.01414e-05
4.78307e-06
1.21326e-05
6.00812e-05
4.59135e-06
6.18374e-07
1.57754e-05
7.54467e-05
4.25054e-05
1.6346e-05
4.11755e-05
1.06998e-05
4.95583e-06
1.9501e-05
9.41414e-05
3.93853e-06
1.60144e-05
1.01202e-05
2.0691e-05
2.73003e-05
4.65751e-05
2.79511e-05
2.49261e-05
0.000277287
7.88603e-05
2.2796e-05
1.20176e-05
4.73477e-06
1.37931e-07
1.37222e-07
4.29656e-05
9.03212e-05
4.22787e-06
1.53617e-05
2.37581e-05
8.14582e-05
1.14037e-05
1.69172e-05
8.64766e-06
1.04948e-05
1.30009e-05
6.49543e-06
2.42251e-05
1.3144e-06
1.39443e-05
2.83045e-07
2.46513e-07
5.17725e-05
1.2266e-05
1.13921e-05
5.89715e-05
4.67758e-05
0.000105206
3.83701e-05
0.000112121
1.99625e-05
6.50391e-05
2.6712e-06
7.72317e-06
7.3655e-06
3.51703e-05
4.17879e-06
6.98396e-06
0.000115134
0.000105496
3.65559e-05
1.98457e-05
2.80907e-06
9.22401e-06
7.7305e-07
9.42706e-06
0.000158854
1.18386e-05
8.57958e-06
3.57159e-05
2.30381e-05
2.39767e-05
2.81157e-05
1.84988e-05
1.9535e-05
1.19702e-05
1.37357e-05
2.11168e-05
6.71347e-07
1.39769e-05
3.24258e-05
1.75267e-06
2.04651e-05
2.70884e-05
1.36845e-05
7.94635e-06
3.98085e-05
5.19617e-05
3.7832e-05
2.58536e-05
1.34318e-05
9.16698e-06
2.06831e-06
1.29749e-05
8.03502e-06
4.51157e-06
8.50703e-06
1.45284e-06
7.2544e-05
0.000203126
6.33113e-05
4.81013e-05
1.44345e-05
3.36492e-05
1.07017e-05
6.87413e-06
0.000110827
1.08273e-05
8.97957e-06
3.4451e-05
4.42977e-06
3.01226e-05
2.56825e-05
1.37302e-05
1.45436e-05
1.23971e-05
2.84153e-05
3.71916e-05
2.31375e-05
2.92686e-05
1.42512e-05
9.00365e-06
3.08962e-05
4.4901e-05
7.54617e-05
1.42285e-05
1.64078e-05
5.11484e-06
3.33901e-05
1.28536e-05
2.30264e-05
4.61426e-07
2.01393e-06
2.28656e-05
8.12377e-05
1.35483e-05
3.09935e-05
1.4952e-05
4.15689e-05
3.5482e-05
1.71939e-05
9.37717e-06
1.41171e-06
6.13864e-06
3.91133e-06
2.16554e-05
7.89401e-05
8.29996e-05
1.5475e-05
2.89137e-05
3.63148e-05
3.72283e-05
1.25651e-05
8.05998e-06
1.75031e-05
2.06476e-05
6.78325e-06
7.39277e-06
1.25409e-05
1.90312e-05
4.38418e-06
8.79715e-06
2.27592e-05
6.41924e-05
0.000136121
3.56403e-05
2.82978e-05
6.97372e-05
1.71056e-05
2.40021e-05
1.74e-05
9.37688e-06
3.1754e-06
1.97915e-05
0.000105227
1.86336e-05
2.86664e-05
1.36323e-05
4.26733e-05
3.99661e-05
2.82428e-05
2.02952e-05
5.24576e-07
7.69404e-06
3.70637e-06
1.16752e-05
1.0253e-05
7.62005e-05
1.83661e-05
1.94002e-05
6.36518e-05
8.79341e-05
3.13333e-05
1.00721e-05
6.7358e-06
6.20932e-06
1.19256e-05
9.59142e-06
4.05179e-05
5.64429e-05
9.56808e-06
5.53381e-06
1.53859e-05
8.14925e-05
5.70572e-05
1.60007e-05
2.59345e-05
2.02549e-05
1.15543e-05
8.52803e-06
8.78154e-06
9.97789e-06
9.47709e-06
9.64946e-06
2.84193e-05
3.88932e-05
3.92514e-05
1.20755e-05
3.43628e-05
6.93313e-05
2.64792e-05
2.18864e-05
8.66176e-06
2.92292e-05
2.14463e-05
2.09823e-05
1.62519e-05
4.24432e-05
7.8581e-06
5.37012e-06
1.24343e-05
6.43363e-05
0.000102113
1.73032e-05
7.37458e-06
4.99539e-05
7.83924e-05
5.97511e-05
9.69363e-06
0.000152921
7.03885e-05
4.02668e-06
1.13149e-05
5.33715e-05
2.39734e-05
2.6829e-05
2.6537e-05
2.59028e-05
1.28484e-06
0.000155511
6.63828e-05
2.60405e-05
7.85624e-06
2.6956e-05
1.87382e-05
3.27366e-05
8.03738e-06
3.73916e-05
0.000101831
0.000298417
7.49326e-05
7.10415e-06
9.88817e-06
3.78627e-05
1.83392e-05
2.15086e-06
2.16775e-05
5.29016e-05
5.36844e-05
3.13098e-06
2.75898e-05
5.51906e-05
3.18712e-05
4.59045e-05
2.32651e-05
7.40219e-05
0.000134787
2.61552e-05
3.50437e-06
9.39932e-05
3.10702e-05
6.74294e-06
4.1393e-05
4.75682e-05
2.42653e-05
7.67789e-05
8.00796e-05
2.93635e-05
1.725e-05
0.000216184
0.000127288
2.45271e-05
8.33091e-06
3.19802e-06
7.72691e-05
1.22775e-05
1.59133e-05
2.74177e-05
1.00322e-05
0.000105947
3.03157e-05
5.56477e-06
2.82795e-06
1.66628e-05
4.70156e-06
8.85917e-07
8.64874e-06
5.40233e-05
1.44575e-05
3.38232e-05
0.00010971
3.32707e-05
2.87024e-06
2.2197e-05
1.17695e-05
3.18133e-05
5.61911e-05
7.65259e-06
2.41717e-05
2.97069e-06
5.04858e-05
1.74653e-05
1.43834e-05
6.33895e-05
0.00015688
0.000164296
7.72101e-05
6.15035e-07
1.50581e-05
0.000229068
0.000196524
1.32245e-05
7.30641e-07
1.87633e-05
3.6689e-05
9.38179e-06
2.29103e-05
2.92353e-05
1.82878e-05
2.1583e-05
3.70378e-05
4.44808e-05
1.95297e-05
7.3968e-06
3.80379e-06
9.65521e-06
1.29275e-05
4.88239e-05
1.35123e-05
4.59682e-05
8.19867e-05
9.81582e-05
1.57959e-05
1.76866e-05
3.29207e-06
1.30114e-05
5.59716e-05
4.27046e-06
3.72903e-05
1.49719e-05
2.61178e-06
2.53299e-06
2.34664e-05
5.74169e-06
0.000120875
0.000173015
6.69692e-06
1.62069e-05
2.48295e-05
7.20541e-05
0.000135235
5.07819e-05
3.40661e-05
7.10197e-05
6.93121e-05
2.27163e-05
4.96664e-06
6.99737e-06
2.32769e-05
6.09254e-05
0.000108266
1.85782e-05
2.88212e-05
1.95768e-05
1.13766e-05
2.18521e-05
4.78319e-05
4.1017e-05
1.688e-05
1.50223e-05
9.8565e-05
4.16312e-05
1.22852e-05
1.12896e-05
9.48783e-06
5.5901e-06
0.000181379
1.78723e-05
8.57621e-06
1.42727e-05
1.57456e-05
4.96268e-05
3.69804e-05
4.47315e-06
1.58012e-05
8.02857e-05
7.34921e-05
1.85589e-05
1.54233e-05
5.84633e-05
5.7785e-05
1.64794e-05
9.02009e-05
8.19729e-06
0.000129838
0.000112904
3.01933e-06
6.80825e-06
2.10163e-05
2.36604e-05
0.00011784
6.28786e-06
7.55343e-06
2.10065e-05
1.99874e-05
3.53459e-05
2.54743e-05
2.21897e-05
4.43445e-05
3.09002e-05
1.40789e-05
2.94222e-05
2.15583e-05
7.99874e-06
2.51032e-05
2.10283e-05
0.000244247
4.19324e-05
1.72176e-05
2.06828e-05
1.4279e-05
0.000105361
1.02499e-05
5.74862e-06
1.1332e-05
5.45454e-05
0.000110878
1.22018e-06
3.42925e-05
1.63335e-05
5.75981e-05
3.4667e-05
1.98016e-05
1.46128e-05
1.51517e-05
6.63016e-05
1.10406e-05
3.00704e-05
2.86841e-05
1.88391e-05
3.88635e-05
3.79733e-05
1.09521e-05
1.74985e-05
1.99595e-05
5.38567e-05
4.90604e-05
7.92751e-06
3.33917e-05
5.10108e-05
6.28896e-05
6.20338e-05
4.15758e-05
4.41697e-05
1.50748e-05
5.63308e-06
0.000147025
9.49872e-05
1.80837e-05
0.00010086
0.000110414
8.6007e-05
4.39936e-05
7.341e-06
1.61552e-05
0.000165193
6.07909e-05
2.58996e-05
2.90823e-05
7.7158e-06
2.21457e-05
2.58929e-05
1.75742e-05
4.59761e-06
1.74401e-05
3.9551e-05
5.86921e-05
8.51154e-05
7.83679e-05
0.000191514
3.2874e-05
6.52371e-06
0.000207446
5.47207e-05
2.15088e-05
4.83662e-05
0.000209979
0.000144394
3.88783e-05
5.71142e-05
7.46566e-05
0.000166191
4.34095e-05
4.25202e-05
3.39733e-05
1.87602e-05
9.32838e-06
1.19156e-05
2.42279e-05
0.000214746
0.000156638
0.000111453
0.000141803
6.43235e-05
2.75577e-05
2.71423e-05
7.58477e-06
1.84809e-05
0.000146666
1.05535e-05
2.74688e-05
3.91926e-05
8.77662e-06
2.0311e-06
5.92105e-05
4.63815e-05
7.249e-05
3.35417e-05
1.27568e-05
5.15264e-06
1.31945e-05
1.22384e-05
4.83216e-05
7.48068e-05
2.58749e-05
7.57498e-06
8.02831e-05
0.000207002
0.000154131
1.62863e-05
1.73303e-05
5.13418e-05
0.000185435
1.91068e-05
1.59879e-05
8.89861e-06
3.50778e-05
0.000132819
0.000184695
0.000209684
0.000215843
0.000143121
7.90342e-05
0.000120217
6.85054e-05
6.9424e-05
3.30735e-05
6.96914e-06
0.000145461
0.000160352
5.47719e-05
3.81559e-05
1.89316e-05
2.61804e-05
8.6809e-06
0.000106408
3.77574e-05
2.17864e-05
3.81729e-05
3.20583e-05
1.23144e-05
0.000164856
4.86516e-05
1.41631e-05
1.63136e-05
1.91862e-05
2.22695e-05
0.000115124
0.000192963
0.000190334
0.000165392
0.000147728
0.00016478
0.00017171
1.63386e-05
9.82627e-06
1.60325e-05
2.90521e-05
3.6261e-05
1.82225e-05
8.56369e-05
4.56047e-05
2.94799e-05
5.85528e-05
0.000122151
1.87632e-05
3.3071e-05
1.80159e-05
2.5993e-05
0.000107107
6.47765e-05
3.36445e-06
1.55126e-07
4.33152e-07
8.67642e-06
3.40693e-06
0.000114978
3.61331e-05
2.37124e-05
2.62697e-05
2.2756e-05
4.14365e-05
7.69101e-05
1.05838e-05
3.58537e-06
1.8396e-06
5.54164e-06
3.01291e-05
6.82476e-05
0.000183219
0.000212256
9.29064e-05
2.29565e-05
6.30883e-05
1.84379e-05
9.99205e-06
2.21615e-05
8.16464e-05
3.82359e-05
2.9684e-05
6.18849e-05
0.00010462
0.000100041
5.95653e-05
1.4866e-05
1.48847e-05
8.12529e-06
2.32011e-05
5.51426e-05
1.43274e-05
1.99441e-05
5.84699e-05
7.32106e-05
3.65722e-05
1.09187e-05
2.36878e-05
7.81737e-05
4.04254e-05
1.24012e-05
2.27354e-05
2.70999e-05
1.95421e-05
1.87763e-05
2.6856e-05
4.97304e-06
8.80018e-06
2.47774e-05
2.26343e-05
2.97798e-05
8.54686e-05
1.31084e-05
7.8804e-06
1.1852e-05
7.4221e-06
3.09616e-05
8.95604e-05
3.47561e-05
1.629e-05
1.74587e-05
1.84579e-05
1.98605e-05
2.77093e-05
8.45977e-05
1.89923e-05
3.15058e-05
2.47694e-05
1.16227e-05
4.15538e-05
3.89626e-05
1.33267e-05
6.73107e-05
5.80961e-05
2.79113e-05
4.83287e-06
2.23119e-05
8.21094e-06
7.87445e-06
4.38653e-05
3.10514e-05
4.94966e-06
3.75612e-06
1.17051e-05
7.79954e-05
1.85968e-05
1.69313e-05
4.63737e-05
4.29794e-05
7.01532e-06
1.61678e-05
0.000137235
0.00023546
0.000118014
2.95751e-06
8.3643e-06
6.74664e-05
2.61021e-05
1.47472e-05
2.00093e-05
1.40772e-05
7.60364e-06
0.000170117
0.000219122
9.47289e-05
2.91707e-05
1.48116e-05
1.74461e-05
1.44612e-05
1.75326e-05
2.07928e-05
1.29508e-05
1.96068e-05
3.88777e-05
4.75521e-05
4.9805e-05
7.59726e-05
4.11535e-05
1.37904e-05
4.44272e-06
6.36145e-06
1.52594e-05
3.77698e-05
2.42489e-05
7.02623e-06
1.85098e-05
4.42166e-05
0.000101264
0.000152152
6.56363e-05
5.80648e-06
9.10678e-06
6.62034e-05
8.33839e-05
3.47258e-05
6.74943e-06
9.39693e-05
0.000136069
0.000122048
4.11848e-05
2.8991e-05
1.34411e-05
2.23938e-05
9.43985e-05
0.000102384
2.29726e-05
9.91238e-06
4.55551e-05
4.99591e-05
1.99829e-05
4.21474e-06
6.59653e-05
2.26037e-05
1.96084e-05
2.17208e-05
2.69022e-05
3.25762e-05
1.78903e-05
4.0212e-05
4.15919e-05
2.79417e-05
1.9165e-05
6.64608e-05
1.21307e-05
4.50765e-06
1.77343e-05
6.78635e-05
0.000161333
0.000126011
7.29444e-05
3.83309e-05
8.39317e-06
1.96457e-05
7.28997e-06
1.24082e-05
1.96867e-05
1.69902e-05
2.76992e-05
8.73369e-05
4.71611e-05
2.65805e-05
1.16266e-05
1.66762e-05
5.38861e-05
2.63566e-10
2.53339e-09
6.63932e-09
7.79272e-09
8.63709e-09
4.80498e-10
1.40358e-09
4.01845e-09
3.22638e-09
1.47849e-09
8.5843e-12
4.06006e-11
1.22771e-10
1.48365e-09
3.35022e-09
3.80528e-10
8.91562e-11
2.06699e-10
1.10861e-09
1.23912e-08
8.39265e-09
5.18477e-10
5.88768e-13
5.63985e-10
5.1102e-09
1.84231e-09
1.37414e-09
3.74656e-09
1.51404e-09
6.48227e-10
2.85098e-08
2.0051e-08
4.13378e-11
7.72857e-09
1.38594e-08
8.14093e-09
4.22452e-08
9.89751e-08
6.47433e-09
8.25757e-12
2.121e-08
3.58998e-08
5.17694e-08
3.37197e-08
2.46748e-08
8.53235e-10
3.25858e-08
8.38132e-08
6.70772e-08
8.41486e-09
5.11897e-11
4.0328e-11
1.99896e-09
1.34608e-08
2.27392e-08
7.09396e-10
2.77812e-09
3.79591e-10
4.49146e-08
2.30065e-07
1.31417e-07
1.34664e-08
3.7466e-11
1.61343e-09
1.52918e-08
8.37437e-09
1.29099e-08
4.20025e-08
4.51533e-08
4.44627e-10
9.93135e-08
1.12303e-07
1.69822e-10
2.13679e-07
2.41119e-07
1.12689e-07
5.44334e-07
1.24683e-06
1.65722e-07
1.71134e-09
4.37955e-07
4.41769e-07
3.46238e-07
1.01162e-07
3.42666e-08
6.00265e-09
5.60349e-08
2.47428e-07
1.31073e-06
2.65677e-07
2.454e-09
5.42281e-10
5.0974e-09
2.48889e-08
7.72523e-08
1.35902e-08
9.74182e-09
2.11872e-09
2.04286e-07
9.64967e-07
1.99913e-06
6.70101e-07
2.90708e-08
9.75171e-10
7.4693e-09
4.52816e-09
2.93493e-08
1.45544e-07
2.06507e-06
6.43706e-08
2.932e-08
3.06036e-07
4.02349e-08
7.40773e-07
1.84092e-06
5.53839e-07
1.30246e-06
3.05005e-06
2.01214e-06
8.66294e-08
3.62615e-06
1.07452e-05
2.8221e-06
6.74808e-07
1.12374e-07
2.76713e-08
1.06471e-07
1.80925e-07
2.08876e-06
7.77484e-06
1.44352e-07
7.40769e-09
1.49349e-08
8.93884e-08
9.9684e-08
9.80841e-08
2.40109e-08
7.33733e-09
6.899e-07
1.98593e-06
1.65827e-06
9.51881e-06
2.85669e-06
7.90552e-08
1.5872e-08
3.85574e-07
2.53615e-07
7.67514e-08
3.9413e-05
1.17232e-05
1.14134e-08
1.74683e-07
1.09386e-06
1.65805e-07
5.31254e-06
3.41633e-06
2.16878e-06
2.01575e-06
9.72664e-07
4.12454e-07
6.66522e-08
6.71703e-06
1.14969e-05
5.60525e-06
4.68296e-07
7.03674e-08
6.0223e-07
8.90208e-07
2.57316e-07
2.43095e-05
5.96049e-06
3.96328e-08
4.15337e-08
4.36287e-07
4.83855e-07
1.67781e-07
2.39219e-08
2.15645e-07
2.73355e-07
4.91051e-06
1.59459e-06
6.9586e-07
2.3791e-05
1.93097e-06
2.41002e-07
7.68156e-06
2.55194e-05
8.79022e-07
2.151e-06
3.70622e-06
4.86868e-06
2.90404e-08
1.15379e-06
1.5662e-06
9.7497e-07
5.73939e-06
4.22796e-06
1.16979e-06
1.3921e-07
7.86416e-08
3.00571e-07
2.16444e-06
1.65223e-05
3.90753e-05
2.45874e-06
1.91126e-07
1.63941e-06
9.59726e-06
8.28723e-07
1.96775e-06
4.39446e-05
3.99e-08
1.4863e-08
2.73463e-06
5.47852e-06
3.82556e-07
4.51701e-08
5.42566e-07
1.11429e-07
9.73241e-06
6.5113e-06
4.08273e-07
1.43476e-06
9.91179e-06
6.66859e-07
3.54615e-06
5.05341e-05
1.8814e-05
1.87419e-06
1.73724e-05
1.36781e-06
6.24838e-07
3.35017e-07
3.49292e-06
5.74435e-07
1.00957e-06
4.53449e-06
2.57667e-06
4.38529e-06
2.4746e-06
3.29e-05
3.27212e-06
9.50102e-06
1.16914e-05
1.61928e-05
7.78802e-07
2.70134e-06
2.6913e-05
1.18313e-05
1.48584e-06
7.32846e-05
2.5738e-06
8.46526e-07
1.81474e-05
3.73839e-06
6.07635e-06
2.07301e-07
4.51188e-07
8.2591e-07
2.88935e-05
5.27423e-05
4.62335e-06
3.74636e-07
9.96949e-06
9.36388e-07
8.84876e-07
2.11269e-05
7.78065e-05
1.0155e-05
3.28511e-06
1.53244e-06
4.67848e-05
2.90028e-07
2.07486e-06
3.93135e-06
3.58391e-08
3.31772e-06
8.01134e-06
1.89563e-05
8.87664e-05
8.63969e-05
3.13673e-05
1.12305e-06
4.16567e-05
1.9226e-05
3.81509e-06
3.68688e-06
3.57315e-06
1.00625e-05
1.13145e-05
7.82967e-05
6.90733e-05
3.72759e-07
4.81475e-06
1.6612e-06
6.41354e-06
5.1992e-06
1.75298e-06
1.67547e-06
6.92658e-06
0.000117185
5.61975e-05
8.57727e-06
1.11642e-05
3.9302e-06
4.63435e-07
4.38527e-06
3.85969e-05
7.9586e-05
4.95167e-06
9.99658e-06
3.75045e-06
2.49753e-06
1.43956e-06
4.05614e-06
2.17953e-06
8.83821e-08
5.77183e-06
2.19043e-05
6.86511e-05
4.24085e-05
2.54644e-05
1.41759e-05
7.57002e-05
4.00044e-06
1.00619e-05
3.99516e-06
8.36447e-07
2.88796e-06
0.000130703
5.8371e-05
1.37569e-06
3.90678e-06
1.40153e-06
1.85018e-06
7.02151e-06
1.63057e-05
1.70575e-05
4.84802e-06
2.42853e-06
0.000107632
6.79088e-05
4.16821e-06
1.63959e-05
1.71559e-05
4.23245e-07
3.5127e-06
1.83215e-05
0.00011132
1.39341e-05
1.59997e-06
2.84489e-05
2.16269e-05
4.01872e-07
1.46056e-06
2.78744e-06
7.12708e-07
1.55441e-06
1.04772e-05
2.9586e-05
1.98997e-05
1.49593e-05
2.27168e-05
2.28712e-05
3.53549e-06
1.55321e-05
1.0164e-05
3.21979e-05
3.36898e-06
6.52621e-05
2.73671e-05
1.67226e-05
3.97267e-06
3.62377e-06
7.60452e-06
1.52983e-05
1.22391e-05
7.59773e-06
1.87504e-05
2.99573e-06
9.19735e-05
6.43299e-05
1.85575e-05
5.06636e-05
1.88931e-05
4.61598e-07
3.96967e-06
1.46691e-05
2.49656e-05
0.000142644
5.00828e-06
1.32677e-05
1.50782e-05
7.59864e-05
6.04235e-06
2.93233e-07
1.78324e-07
4.01739e-07
2.03782e-06
1.07404e-05
1.47681e-05
6.47297e-05
1.19622e-05
6.23791e-07
2.90756e-06
1.93313e-05
1.80541e-05
0.000171742
4.20452e-06
0.000186361
1.31857e-05
8.65386e-07
1.26918e-05
1.22908e-05
1.70518e-05
8.01835e-05
3.53678e-05
1.12731e-05
2.39698e-05
1.06316e-05
6.66615e-05
5.59484e-05
6.87605e-05
3.37625e-05
2.24105e-05
5.16386e-07
6.25177e-06
3.33814e-05
3.58036e-06
0.000117559
9.2449e-05
2.13193e-05
2.88562e-05
1.08917e-06
6.34491e-05
5.34689e-05
2.04472e-05
6.60981e-07
2.19543e-06
1.05022e-05
2.91083e-05
4.39672e-05
6.53428e-06
5.90013e-07
4.89817e-06
2.85668e-05
4.33998e-05
0.00017133
4.72498e-06
0.000132714
4.3335e-05
2.02292e-05
2.04515e-05
2.09617e-05
5.96254e-06
4.01138e-06
1.81759e-05
7.74267e-06
3.08123e-05
1.97748e-05
9.71426e-07
6.3412e-05
6.43051e-05
2.1836e-06
2.25119e-05
7.54482e-06
1.2609e-05
3.47012e-05
5.64467e-06
7.57504e-05
0.000258521
2.62413e-05
3.1836e-05
1.23481e-06
2.38148e-05
6.7039e-05
0.000176606
0.000107285
1.33548e-05
1.99028e-05
1.98066e-05
1.41923e-05
7.54742e-06
3.62604e-06
2.69692e-05
4.37598e-05
2.65631e-05
6.8914e-05
1.15754e-05
2.4295e-05
0.00013788
8.77456e-05
5.78097e-05
3.88436e-05
5.60072e-06
9.81508e-06
6.20096e-06
4.63571e-06
3.03924e-05
3.88335e-05
2.13354e-05
3.25898e-06
2.42028e-05
1.49864e-05
1.37031e-05
9.93761e-05
6.91413e-05
2.47558e-05
6.55241e-06
5.28306e-05
0.000131274
1.08673e-05
1.85194e-05
7.9251e-06
1.34737e-05
2.19599e-06
0.000140228
3.22703e-05
8.36182e-06
1.88188e-05
4.65919e-06
4.20889e-06
8.85519e-06
5.13688e-05
4.37377e-05
3.40163e-05
2.21024e-05
6.53579e-05
7.77467e-05
8.03418e-06
4.18351e-05
2.2969e-05
6.50139e-05
8.21363e-05
6.81513e-06
1.76616e-05
7.54865e-06
1.01378e-05
3.24164e-05
2.71161e-05
2.12778e-05
2.75522e-06
2.195e-05
2.82433e-06
1.72685e-05
5.8098e-06
0.000242213
2.9131e-05
1.05282e-05
4.53302e-06
5.12113e-05
2.04989e-05
1.98264e-06
2.00765e-05
2.2828e-06
5.53585e-06
0.000125713
0.000109873
9.73187e-06
1.85346e-05
2.82945e-06
2.83294e-05
3.10842e-06
3.18857e-05
6.18796e-05
2.42952e-05
9.59275e-06
0.000135186
0.000219
1.66154e-06
1.20858e-05
3.11524e-05
1.15127e-05
6.056e-07
3.93266e-05
4.29567e-05
4.02821e-05
4.27259e-05
8.52353e-06
7.89991e-06
1.59627e-05
2.18901e-05
3.14425e-05
5.89387e-06
2.86993e-05
4.68323e-06
0.000254023
8.98122e-05
1.36316e-05
5.70172e-05
1.95252e-05
7.90096e-06
2.09244e-05
6.82257e-06
8.66917e-06
6.98257e-06
6.52504e-06
7.82535e-05
3.93916e-06
1.82207e-05
5.50556e-05
6.69649e-05
3.31147e-06
6.99312e-05
5.79487e-05
5.67972e-05
1.51102e-05
0.000138597
0.000322872
3.07099e-05
4.4714e-06
3.61511e-05
2.03688e-05
1.29575e-06
0.000115157
5.74797e-05
2.24597e-05
4.32643e-05
2.51954e-05
1.58425e-05
2.93142e-06
5.27453e-06
9.27022e-06
4.84258e-05
3.8086e-05
1.61326e-05
0.00018241
7.9334e-05
2.36488e-05
8.13964e-05
1.38236e-05
5.99828e-05
3.30782e-05
1.66647e-05
2.93552e-05
4.60465e-06
7.47579e-06
1.19468e-06
1.22118e-05
3.51317e-05
0.000155784
8.7455e-05
1.88728e-06
8.12013e-05
0.000117902
0.000128634
6.34162e-05
5.30469e-05
8.1634e-05
8.20075e-05
7.48234e-05
8.70263e-05
4.82318e-05
5.76002e-06
0.000193061
3.36231e-05
4.64751e-05
5.55357e-07
2.92102e-05
1.01669e-05
9.77712e-06
1.20055e-05
1.24028e-05
8.05967e-06
3.44562e-06
1.23807e-05
2.97042e-05
5.78968e-05
2.44415e-05
3.22295e-05
5.11876e-06
0.000116278
0.000113181
4.86902e-05
1.4732e-05
6.58622e-06
1.36937e-05
3.01936e-06
4.33754e-05
4.30129e-05
0.000171043
0.000201859
1.97538e-05
3.55114e-05
4.4321e-06
8.95362e-06
1.52981e-05
1.85592e-05
2.60682e-05
4.80508e-06
7.74356e-05
0.000203915
0.000185851
5.53176e-05
5.0501e-05
3.90276e-05
4.84084e-05
6.94764e-05
9.5336e-06
8.15438e-06
1.23322e-05
1.51597e-05
1.94276e-05
7.96733e-06
1.14328e-06
1.24832e-05
3.37468e-05
5.09149e-05
2.55244e-05
2.80344e-05
1.45575e-05
0.000126574
0.000163219
0.00013649
1.64852e-05
7.74792e-06
6.15216e-05
8.12952e-06
4.41577e-05
5.15007e-05
0.00015399
0.000238028
3.44385e-05
1.03828e-05
2.21726e-05
1.42028e-05
6.47383e-05
9.54897e-06
1.77246e-05
2.27993e-05
0.000114853
0.000140548
0.00020175
2.31299e-05
9.1986e-05
5.18772e-05
3.34031e-05
4.57207e-05
1.51461e-05
2.7319e-06
4.91695e-06
4.76413e-05
1.98386e-05
2.23653e-05
1.14478e-05
2.4142e-05
3.36891e-05
6.89462e-05
1.24738e-05
9.28904e-06
4.19567e-05
9.11989e-06
6.68644e-05
5.62465e-05
6.27873e-05
1.26528e-05
3.66412e-05
1.67133e-05
8.20032e-06
6.62552e-05
0.000138766
0.000223679
2.92707e-06
1.04444e-05
3.73354e-05
5.54534e-05
3.22683e-05
8.48713e-05
0.000108672
2.05489e-05
0.000142181
0.000105246
6.6958e-05
1.80802e-05
3.70346e-05
7.33103e-05
2.92144e-05
8.53442e-05
8.86353e-05
5.39598e-06
2.11402e-05
3.96538e-05
1.88983e-05
1.61364e-05
6.13616e-06
2.46487e-05
7.0689e-05
1.4078e-05
2.01067e-05
2.20497e-05
2.7189e-05
3.17959e-06
6.10181e-06
8.93947e-06
6.15962e-05
6.49427e-06
1.75125e-05
1.4897e-05
1.26682e-05
0.000112579
9.90428e-05
8.69198e-05
4.62748e-05
2.52695e-05
0.000104945
8.76412e-05
3.61723e-05
8.8175e-05
0.00015008
3.73719e-06
2.89401e-05
9.0531e-05
8.53079e-05
1.78849e-05
2.15618e-05
5.48097e-05
2.07006e-05
3.65851e-05
0.00016706
4.77265e-05
1.27832e-05
3.47589e-05
0.000108315
2.0906e-05
1.04777e-05
4.78731e-05
9.80464e-05
1.15905e-05
1.79477e-05
4.3616e-05
2.79007e-05
2.53464e-06
1.33256e-05
1.82841e-05
9.29579e-05
2.26574e-05
9.15526e-06
1.00187e-05
1.2885e-06
0.000160567
0.000202422
5.04748e-05
9.65006e-05
6.33482e-05
4.20255e-05
2.46077e-06
1.78476e-05
7.9715e-06
0.000132657
6.74984e-05
3.98007e-05
6.14052e-06
0.000172238
6.58729e-05
1.35264e-05
1.76282e-06
4.51554e-05
4.8473e-05
8.39709e-05
1.77312e-05
2.58517e-05
2.38798e-05
1.59446e-05
1.00675e-05
1.2624e-05
0.000111342
6.26966e-05
8.19438e-06
5.24564e-05
0.00011387
9.18633e-05
6.56769e-06
1.65376e-05
7.58368e-05
0.000147735
0.000122194
1.2917e-05
2.7553e-06
1.48762e-06
0.000154756
5.12187e-05
1.142e-05
8.02782e-06
7.32462e-05
8.28024e-05
5.16586e-05
3.00673e-05
1.52958e-05
8.48308e-05
6.73802e-05
9.45361e-06
2.45646e-05
0.000139842
6.72051e-05
2.5902e-05
1.64495e-05
1.40926e-05
1.04701e-05
4.21909e-05
2.09404e-05
2.79742e-05
2.83143e-05
2.79904e-05
2.87929e-05
2.76811e-05
3.29664e-05
2.25418e-05
2.42293e-05
1.14284e-05
0.000101704
6.63997e-05
3.16082e-05
2.92919e-05
8.20583e-06
0.000124381
0.000151326
7.31812e-06
8.68612e-07
3.07177e-06
0.000150526
1.4859e-05
1.36502e-05
1.60267e-05
0.000112643
0.000122696
5.40763e-05
2.13485e-05
5.37696e-05
3.44831e-05
4.32697e-05
1.57219e-05
2.27389e-05
4.71958e-05
2.00786e-05
1.31363e-05
3.58422e-05
5.17228e-05
2.90789e-05
2.31316e-05
1.35263e-05
4.36636e-05
2.06262e-05
3.48779e-05
3.54999e-05
1.39154e-05
2.68203e-06
2.92877e-05
6.72391e-05
8.05768e-06
5.39537e-05
0.000193833
6.51704e-05
3.20335e-05
2.46578e-05
2.98606e-05
5.39731e-05
2.14593e-05
1.90139e-05
2.4021e-05
1.47535e-05
2.08164e-05
1.16597e-05
1.5367e-05
1.16829e-05
2.41602e-05
1.1572e-05
9.93575e-06
1.18526e-06
1.73983e-05
6.58764e-05
1.35822e-05
1.56752e-05
8.51818e-05
6.89787e-05
3.41808e-05
2.32953e-05
1.88823e-05
6.84382e-06
3.83012e-05
7.06802e-06
3.1777e-05
9.17726e-05
5.11979e-05
9.03839e-06
7.05214e-06
6.94012e-06
8.9065e-06
3.80081e-05
4.05555e-05
2.2422e-05
1.08133e-05
1.49455e-05
2.9541e-05
3.55354e-05
3.28657e-05
2.53096e-05
1.46903e-05
0.000143976
7.79788e-05
3.16526e-05
4.14953e-05
1.85694e-05
2.34567e-05
7.31328e-05
3.26422e-05
2.11683e-05
7.25906e-06
1.13609e-05
1.95418e-05
4.49399e-05
9.41578e-06
4.86307e-06
2.12176e-05
3.17816e-05
7.63994e-06
1.08114e-05
6.04242e-06
7.62975e-06
7.04287e-06
1.06535e-05
5.99942e-05
0.000148712
0.000124362
5.78707e-05
2.35608e-05
3.95607e-05
5.08878e-05
2.67461e-05
3.38559e-05
3.09708e-05
2.79618e-05
2.87368e-05
1.05286e-05
9.21974e-06
4.16452e-06
6.372e-06
1.95823e-05
0.000168767
0.000168847
7.01747e-05
7.69068e-06
3.38267e-05
7.27227e-05
0.0001764
0.000225818
1.27244e-05
0.000173872
9.64297e-05
5.76516e-06
8.11369e-06
1.52855e-06
1.10943e-05
3.30923e-05
7.20656e-06
5.26481e-06
1.02767e-05
6.97017e-06
6.94679e-06
1.19931e-05
8.45259e-05
0.000196003
0.00013616
1.08777e-05
1.52009e-05
2.02784e-05
7.58203e-05
0.000136825
0.000105067
9.45305e-06
1.99515e-05
2.14499e-05
3.26493e-05
8.95537e-05
1.66535e-05
1.23527e-05
2.61564e-05
2.13746e-05
1.28752e-05
1.95506e-05
1.43428e-05
0.000126901
5.98152e-05
4.79336e-05
0.000121951
0.000109879
6.558e-05
9.43854e-05
0.000152442
0.000161864
4.24188e-05
8.0312e-07
1.18647e-05
2.04864e-05
1.82528e-05
2.61865e-05
1.211e-05
1.27101e-05
8.0821e-06
7.32056e-06
0.000117213
0.000237064
0.000180324
6.06356e-05
5.90944e-06
7.75431e-06
2.40177e-05
4.99981e-05
0.000142137
8.56991e-05
8.5652e-06
1.57845e-05
2.55514e-05
3.09115e-05
3.07674e-05
2.90648e-05
6.23161e-05
4.35418e-05
0.000106218
0.000132847
8.47019e-05
0.000156252
9.67476e-05
2.9138e-05
1.45569e-05
5.20096e-05
8.39079e-05
8.98678e-05
5.98456e-05
0.000130596
0.000111035
6.88775e-05
3.85974e-05
3.52923e-05
4.76442e-05
6.28343e-05
1.40101e-05
2.57606e-05
2.99341e-05
2.70946e-05
4.25916e-05
8.14449e-05
0.000106009
9.28092e-05
5.33799e-05
4.61066e-06
3.93493e-05
2.75482e-05
2.76492e-05
3.04182e-05
1.8606e-05
1.78574e-05
3.87236e-06
8.27729e-05
0.000116017
3.24829e-05
1.32265e-05
1.09194e-05
1.51556e-05
2.29526e-05
0.000103104
7.71331e-07
1.48685e-05
1.27675e-05
1.93382e-05
1.11124e-05
1.32164e-05
6.39869e-05
0.000125313
0.000183086
0.000105889
3.53241e-05
1.62795e-05
2.71239e-05
1.38848e-05
8.73099e-06
5.65611e-06
1.79567e-05
2.45948e-05
1.37545e-05
5.6141e-06
2.56079e-05
0.000135572
0.000111376
1.54222e-05
2.64007e-06
1.55379e-05