/*--------------------------------*- C++ -*----------------------------------*\
  =========                 |
  \\      /  F ield         | OpenFOAM: The Open Source CFD Toolbox
   \\    /   O peration     | Website:  https://openfoam.org
    \\  /    A nd           | Version:  10
     \\/     M anipulation  |
\*---------------------------------------------------------------------------*/
FoamFile
{
    format      ascii;
    class       surfaceScalarField;
    location    "9";
    object      phi;
}
// * * * * * * * * * * * * * * * * * * * * * * * * * * * * * * * * * * * * * //

dimensions      [0 3 -1 0 0 0 0];

internalField   nonuniform List<scalar> 
300480
(
1.27072e-05
-2.11529e-06
-1.47407e-06
1.22177e-05
-8.53075e-06
-7.5437e-07
1.29552e-05
-9.14294e-06
-3.38115e-07
1.35375e-05
4.21837e-07
-5.20023e-06
1.46043e-05
5.98209e-06
-7.47556e-06
1.43922e-05
6.83153e-06
-5.56467e-06
1.22816e-05
7.21796e-06
-1.13433e-06
1.23919e-05
3.5118e-06
3.67442e-06
1.36564e-05
2.21315e-06
2.25849e-06
1.32344e-05
3.77799e-06
-3.83811e-06
1.3641e-05
2.33671e-06
-6.25791e-06
1.63482e-05
-9.28359e-08
-3.31562e-06
1.89298e-05
-7.75781e-07
-1.58414e-06
2.0044e-05
-2.31504e-07
-2.46548e-06
2.05515e-05
1.13797e-06
-2.08017e-06
2.06482e-05
8.53607e-07
-1.83678e-06
2.17289e-05
2.35281e-07
-2.50833e-06
2.45347e-05
1.84113e-06
-2.82507e-06
2.8163e-05
-7.51591e-07
-5.11441e-07
3.02666e-05
-2.88302e-06
2.82537e-06
2.97697e-05
-3.72198e-06
6.54746e-06
2.77878e-05
-3.9145e-06
6.66897e-06
2.63235e-05
-5.9066e-07
5.06857e-06
2.55948e-05
2.52673e-06
5.4027e-06
2.40577e-05
-1.32109e-06
5.42934e-06
2.34198e-05
-3.16536e-06
1.84401e-06
2.62716e-05
8.28765e-07
-3.57729e-06
3.08155e-05
1.99315e-06
-3.23354e-06
2.95512e-05
1.4052e-06
1.64502e-06
2.18888e-05
3.22975e-06
-3.98516e-07
1.69411e-05
3.74299e-06
-8.45944e-06
1.7035e-05
-2.9518e-07
-7.82799e-06
1.89112e-05
-5.53301e-06
3.76219e-07
2.02435e-05
-4.95748e-06
3.77542e-06
1.92907e-05
2.64669e-07
3.26113e-06
1.81503e-05
3.13133e-06
4.39122e-06
1.82695e-05
7.01162e-07
7.81202e-06
1.82502e-05
1.84532e-07
7.90347e-06
1.74528e-05
8.32023e-07
3.27471e-06
3.45355e-07
-2.48265e-07
5.01176e-05
-3.04011e-06
-8.87927e-06
4.48454e-05
-2.25231e-05
-4.63414e-06
4.27865e-05
-2.81937e-05
-5.58938e-09
4.3702e-05
-5.12345e-08
-8.4838e-06
4.53171e-05
1.98071e-05
-1.11226e-05
4.47537e-05
2.14889e-05
-5.97608e-06
4.25127e-05
1.85269e-05
1.68503e-06
4.39908e-05
4.42978e-06
1.0055e-05
4.62616e-05
3.62831e-06
2.30493e-06
4.46036e-05
1.27437e-05
-1.29378e-05
4.49188e-05
1.05774e-05
-1.52131e-05
5.13696e-05
2.34208e-06
-6.44243e-06
5.75078e-05
1.05205e-07
-5.18294e-06
6.05252e-05
2.20298e-06
-1.04797e-05
6.4765e-05
4.20348e-06
-9.68658e-06
6.72064e-05
1.75846e-06
-7.11091e-06
6.8547e-05
3.18608e-06
-7.13834e-06
7.54273e-05
9.62555e-06
-6.03503e-06
8.60794e-05
2.64566e-06
-3.50623e-06
9.55391e-05
-5.744e-06
7.84912e-07
9.88765e-05
-1.21989e-05
1.17196e-05
9.20658e-05
-9.59138e-06
1.52664e-05
8.58825e-05
2.13813e-06
1.07586e-05
8.81927e-05
3.62705e-06
1.17288e-05
8.47963e-05
-5.86512e-06
1.41762e-05
7.50194e-05
-1.63446e-06
6.44063e-06
7.64028e-05
8.41761e-06
-5.84982e-06
9.38193e-05
-2.95444e-07
-3.07463e-06
0.000102348
-1.01234e-05
1.2884e-05
8.45567e-05
4.73172e-06
6.9381e-06
6.61118e-05
1.24644e-05
-1.52371e-05
6.27163e-05
-2.79047e-06
-1.72378e-05
6.44439e-05
-1.9105e-05
-5.438e-07
6.58286e-05
-1.6776e-05
7.11774e-06
6.41037e-05
-1.63082e-06
8.81808e-06
6.10222e-05
9.01951e-06
1.13887e-05
6.03891e-05
5.30339e-06
1.36899e-05
6.19216e-05
3.33757e-06
1.0639e-05
6.21582e-05
4.65095e-06
7.17829e-07
3.68854e-06
-6.11576e-06
0.000111707
8.75015e-06
-2.82385e-05
9.55372e-05
-1.86016e-05
-2.2727e-05
8.06211e-05
-4.43353e-05
-4.40172e-06
7.99792e-05
-1.23296e-05
-8.11365e-06
8.48367e-05
3.07263e-05
-1.22868e-05
8.46396e-05
4.35402e-05
-3.74186e-06
8.19005e-05
3.88578e-05
4.02672e-06
8.28437e-05
5.37102e-06
1.74841e-05
8.59095e-05
-2.95445e-06
1.15319e-05
8.4005e-05
1.97176e-05
-1.59289e-05
8.07873e-05
2.60127e-05
-2.48334e-05
8.69274e-05
1.1299e-05
-1.06268e-05
9.63663e-05
3.80206e-06
-7.05906e-06
0.000100648
9.6467e-06
-1.87063e-05
0.000107554
1.44859e-05
-2.08995e-05
0.000113237
7.7172e-06
-1.45902e-05
0.000114352
9.46684e-06
-1.2072e-05
0.000122558
2.31661e-05
-8.38555e-06
0.000134853
1.88298e-05
-5.08456e-06
0.000148968
7.47201e-06
-7.46091e-06
0.000165361
-1.17367e-05
-1.23431e-06
0.000163925
-1.62927e-05
1.48195e-05
0.00015321
7.78621e-06
1.417e-05
0.000160631
3.38677e-06
1.3884e-05
0.00016169
-1.49422e-05
2.07205e-05
0.000141855
4.81108e-06
1.36969e-05
0.000127578
3.10502e-05
-4.35885e-06
0.000138323
1.29686e-05
-5.2478e-06
0.000168774
-3.91717e-05
2.89082e-05
0.000173669
-2.25421e-05
3.7708e-05
0.000149111
1.47838e-05
-1.33655e-06
0.000133263
-1.66649e-06
-2.47005e-05
0.000124334
-2.78978e-05
-1.11424e-05
0.000118505
-2.9626e-05
2.31311e-06
0.000117251
-1.46884e-05
8.48544e-06
0.000112573
1.05505e-05
1.58661e-05
0.00010695
1.81892e-05
1.62985e-05
0.000109509
1.55146e-05
5.61382e-06
0.000117098
1.33161e-05
-8.10858e-06
1.25686e-05
-1.85437e-05
0.000188483
1.92137e-05
-4.63047e-05
0.000173492
7.58093e-06
-5.51054e-05
0.000136076
-3.15607e-05
-2.5317e-05
0.000122128
-2.72409e-05
-1.13223e-05
0.000133552
2.50266e-05
-1.65989e-05
0.000138655
6.16727e-05
-2.21385e-06
0.000134375
7.43643e-05
7.77684e-06
0.000130466
2.1882e-05
2.41172e-05
0.000130509
-1.10173e-05
2.68013e-05
0.000130249
1.65312e-05
-9.15779e-06
0.00012378
4.22701e-05
-3.28063e-05
0.000124924
2.82168e-05
-1.62199e-05
0.00013589
9.06417e-06
-4.95816e-06
0.000140838
2.01107e-05
-2.32378e-05
0.000146699
3.75869e-05
-3.65108e-05
0.000154639
2.84075e-05
-2.76253e-05
0.000155912
2.28649e-05
-1.87792e-05
0.000164602
3.73218e-05
-1.27057e-05
0.0001768
3.85484e-05
-4.51404e-06
0.000184794
3.95311e-05
-9.49644e-06
0.000207444
1.2906e-05
-1.79155e-05
0.000222516
-1.06617e-05
-5.84145e-06
0.000216416
1.64001e-05
8.39557e-06
0.000228918
5.7107e-06
1.41878e-05
0.000239439
-2.85904e-05
2.65848e-05
0.000220147
8.75164e-06
1.84954e-05
0.000200072
5.65163e-05
-3.75141e-06
0.000190578
5.05847e-05
-9.85216e-06
0.000199596
-3.39376e-05
2.32315e-05
0.000227764
-7.04714e-05
5.92725e-05
0.000240254
-2.51635e-05
3.73205e-05
0.000230702
-1.82341e-05
-1.18231e-05
0.000208607
-2.66183e-05
-2.47614e-05
0.000181739
-1.59163e-05
-1.29527e-05
0.000170966
-1.87256e-05
-3.81693e-06
0.00016732
-3.24628e-06
1.46683e-05
0.00015643
3.23516e-05
2.1023e-05
0.000152653
4.53651e-05
-1.97757e-06
0.000163378
3.59775e-05
-2.73173e-05
2.60412e-05
-3.5102e-05
0.000245943
2.04767e-05
-5.30446e-05
0.000257403
2.15458e-05
-7.19148e-05
0.00021415
1.67626e-06
-5.18125e-05
0.000173745
-2.65868e-05
-2.18327e-05
0.000182666
8.30993e-06
-2.56631e-05
0.000200204
6.5071e-05
-7.93956e-06
0.000201243
0.00011342
1.19811e-05
0.000192429
6.24268e-05
3.10714e-05
0.000182854
-8.22979e-07
4.2408e-05
0.000179543
9.97884e-06
5.84543e-06
0.00017207
4.98543e-05
-3.40364e-05
0.000167675
4.97893e-05
-2.24775e-05
0.000178837
1.21015e-05
1.40269e-06
0.000185734
2.3093e-05
-1.70319e-05
0.00018814
7.2747e-05
-5.16749e-05
0.000195617
7.6829e-05
-5.10369e-05
0.000196178
5.61474e-05
-3.06557e-05
0.000201511
5.65141e-05
-1.83069e-05
0.000214517
5.51395e-05
-1.08924e-05
0.000219181
7.13067e-05
-1.1257e-05
0.000237826
5.21011e-05
-2.61682e-05
0.000261941
1.04736e-05
-2.90068e-05
0.00026556
3.00448e-05
-1.22576e-05
0.000283064
1.50596e-05
9.1692e-06
0.000302576
-3.84616e-05
3.38837e-05
0.000289254
8.58227e-06
2.30355e-05
0.000276139
7.29236e-05
-9.31001e-06
0.000271244
8.04529e-05
-1.82932e-05
0.000253421
7.46096e-06
1.04158e-05
0.000254986
-7.83843e-05
5.53686e-05
0.000287407
-8.28129e-05
5.94924e-05
0.000308165
-7.35729e-05
2.34699e-05
0.000295155
-4.60497e-05
-2.04338e-05
0.000257737
1.67889e-05
-2.93403e-05
0.000228152
1.63383e-05
-2.62065e-05
0.000216745
-1.11514e-05
2.0881e-06
0.000203845
3.69228e-05
2.31849e-05
0.000195325
8.66171e-05
-4.5913e-06
0.000203256
7.45208e-05
-4.70913e-05
5.28955e-05
-5.79006e-05
0.000287391
2.27694e-05
-5.64928e-05
0.00032344
8.66594e-06
-6.48829e-05
0.000301911
2.57461e-05
-6.64229e-05
0.000241735
-1.02621e-05
-3.48593e-05
0.000229511
-4.16965e-06
-3.48794e-05
0.000252021
6.14284e-05
-2.09759e-05
0.000266775
0.000141854
1.20597e-05
0.000265943
0.00011009
3.82374e-05
0.000249995
3.54211e-05
5.54956e-05
0.000236391
1.63206e-05
2.83307e-05
0.000224828
4.77032e-05
-2.484e-05
0.000215035
6.69651e-05
-2.8275e-05
0.000224382
1.56521e-05
5.39983e-06
0.000235234
1.33181e-05
-1.6572e-06
0.000237442
0.00010213
-5.40235e-05
0.000242893
0.000151172
-8.34136e-05
0.000241193
0.00012075
-5.78393e-05
0.0002395
8.87359e-05
-2.58598e-05
0.000248066
7.01138e-05
-1.42953e-05
0.000253584
9.67751e-05
-1.69462e-05
0.000272512
9.05566e-05
-3.40607e-05
0.000298601
3.97647e-05
-4.42604e-05
0.000305626
5.38134e-05
-3.69096e-05
0.000323403
3.11524e-05
-5.79333e-06
0.000346023
-3.76721e-05
3.60435e-05
0.000339256
1.25881e-05
2.88148e-05
0.000335691
8.22649e-05
-1.88719e-05
0.000347331
8.91721e-05
-3.48502e-05
0.000329847
4.50541e-05
-9.88575e-07
0.000300935
-4.91387e-05
4.66637e-05
0.000314949
-0.000111528
5.5773e-05
0.000349504
-0.000132926
4.35791e-05
0.000356357
-9.88439e-05
3.30307e-06
0.000329401
2.37477e-05
-3.19782e-05
0.000294781
6.88052e-05
-4.31528e-05
0.000268253
1.0191e-05
-1.61719e-05
0.000247262
4.03695e-05
1.62976e-05
0.000239475
0.000122076
5.17858e-07
0.000249452
0.000107354
-4.23567e-05
8.29882e-05
-7.02566e-05
0.000333939
2.55026e-05
-4.8723e-05
0.000375257
-1.73422e-05
-4.80804e-05
0.000383975
2.5821e-05
-6.42139e-05
0.00032435
1.0002e-05
-4.49699e-05
0.000283879
-3.32808e-06
-4.24266e-05
0.000294922
5.80392e-05
-3.51244e-05
0.000316802
0.000160352
9.85389e-06
0.000333908
0.000142839
5.08622e-05
0.000330924
7.24337e-05
6.84486e-05
0.000311021
4.42034e-05
4.93667e-05
0.000288627
5.19691e-05
-4.68621e-06
0.000270464
6.81681e-05
-2.8277e-05
0.000271693
2.45942e-05
8.815e-07
0.000282783
7.36465e-06
1.06048e-05
0.000291036
0.000112306
-4.00915e-05
0.000297812
0.000217601
-0.000110859
0.000292928
0.000198623
-0.000107371
0.00028367
0.000128042
-5.09289e-05
0.000283387
8.05423e-05
-1.67108e-05
0.000286983
0.000109722
-1.22063e-05
0.000309624
0.000120519
-3.71772e-05
0.000340233
6.85857e-05
-5.48334e-05
0.00035071
8.10786e-05
-5.65159e-05
0.000361977
5.54588e-05
-2.67644e-05
0.000375926
-2.7887e-05
2.94664e-05
0.000373196
2.28217e-05
3.09861e-05
0.000380088
9.38068e-05
-2.79037e-05
0.000402263
9.23295e-05
-5.94888e-05
0.000394269
6.98803e-05
-1.86306e-05
0.000355475
-1.95806e-05
4.78761e-05
0.000348627
-0.000115272
4.64794e-05
0.000380132
-0.000169707
3.62243e-05
0.00039901
-0.000147864
2.23609e-05
0.000390957
-8.8553e-06
-2.39677e-05
0.000371585
8.08886e-05
-4.92503e-05
0.000337456
4.0356e-05
-2.74758e-05
0.000299513
5.79553e-05
1.0885e-05
0.00028705
0.000135927
2.53767e-05
0.000300312
0.000118306
-3.97657e-06
9.72689e-05
-4.97724e-05
0.000396789
2.92702e-05
-1.89397e-05
0.000428055
-3.78489e-05
-2.62595e-05
0.00045641
7.88981e-06
-4.7935e-05
0.000413126
2.27383e-05
-4.73192e-05
0.000352261
1.26355e-05
-4.98902e-05
0.000340309
6.3484e-05
-4.94101e-05
0.000354186
0.000175664
5.79866e-06
0.000378846
0.000158526
7.46615e-05
0.000404106
7.73266e-05
9.45171e-05
0.000403967
6.41859e-05
6.97148e-05
0.000375468
7.31792e-05
2.25068e-05
0.000342649
6.21633e-05
-1.41736e-05
0.000326646
3.32899e-05
-3.93136e-06
0.000326766
2.06446e-05
1.34737e-05
0.000340065
0.000115901
-1.97261e-05
0.000355753
0.00026247
-0.000106031
0.000352985
0.000287119
-0.000147796
0.000337614
0.000186892
-9.18431e-05
0.000325607
9.21447e-05
-2.53629e-05
0.000321929
0.000112463
-5.89146e-06
0.000344166
0.000136123
-3.01597e-05
0.000380761
8.73408e-05
-5.64964e-05
0.00040366
9.56069e-05
-6.97269e-05
0.000409629
7.57175e-05
-4.14436e-05
0.000403471
-6.68382e-06
2.16123e-05
0.000400229
3.26863e-05
2.75838e-05
0.000419608
0.000101521
-3.7997e-05
0.000445327
0.000104166
-8.19511e-05
0.00044099
9.50197e-05
-4.19323e-05
0.00040351
1.51225e-07
4.61984e-05
0.000390461
-0.000120521
4.78264e-05
0.000420607
-0.000195775
1.88201e-05
0.000440184
-0.000172718
2.55427e-05
0.000440344
-4.75273e-05
-8.54336e-06
0.000449077
3.23576e-05
-4.77392e-05
0.000431652
2.71675e-05
-3.87511e-05
0.000379888
7.51927e-05
9.5489e-06
0.000353816
0.000129465
5.71187e-05
0.000364095
0.000102124
5.17752e-05
9.65865e-05
-9.60051e-07
0.000483122
2.63032e-05
2.40809e-05
0.000494873
-3.88208e-05
-4.77669e-06
0.000527313
-1.43949e-05
-2.89455e-05
0.000504485
2.39617e-05
-4.37629e-05
0.000433663
4.2047e-05
-5.70961e-05
0.000394581
9.02906e-05
-6.59501e-05
0.00039399
0.000191811
-3.9891e-06
0.000413642
0.000156437
0.000105545
0.00045309
4.45171e-05
0.000143481
0.000486624
5.18989e-05
9.32506e-05
0.000473906
9.44243e-05
4.56919e-05
0.000431493
5.96657e-05
1.41676e-05
0.00039522
3.23574e-05
1.81093e-06
0.000376209
4.54286e-05
1.5291e-05
0.000385633
0.00011871
4.05159e-06
0.000409928
0.000270527
-6.71544e-05
0.000415314
0.00036265
-0.000149695
0.000399642
0.000261836
-0.00012413
0.000376878
0.000113679
-3.84271e-05
0.000361361
0.000109361
1.08994e-06
0.000378125
0.000141442
-2.18748e-05
0.000418189
8.87784e-05
-4.76296e-05
0.000453514
8.62218e-05
-6.81283e-05
0.0004624
8.18231e-05
-4.77141e-05
0.000442694
1.79827e-05
2.15732e-05
0.000433981
4.48934e-05
2.42219e-05
0.000460573
0.000102534
-5.07108e-05
0.000489056
0.000123333
-0.00010316
0.000485074
0.000126766
-6.57772e-05
0.000451558
1.44306e-05
3.69251e-05
0.000439623
-0.000130137
5.39008e-05
0.000473468
-0.000229285
6.44885e-06
0.000499258
-0.000200553
1.46627e-05
0.000493677
-6.42046e-05
2.22592e-06
0.000508444
-1.95022e-05
-3.81094e-05
0.000520107
-3.83946e-05
-3.91722e-05
0.000480162
5.27092e-05
3.5598e-06
0.000443836
0.000112837
6.03331e-05
0.000448225
7.14303e-05
7.43816e-05
6.95852e-05
4.94363e-05
0.000565862
1.12181e-05
3.76141e-05
0.000561628
-2.12643e-05
-4.98843e-06
0.000596177
-3.42213e-05
-2.8069e-05
0.000597189
1.13828e-05
-4.54095e-05
0.000525562
8.27231e-05
-6.95441e-05
0.000459645
0.000149242
-8.82089e-05
0.000451078
0.000211359
-2.50732e-05
0.000472348
0.000129103
0.000124119
0.000501278
-1.54123e-05
0.000200425
0.000549092
1.51224e-05
0.0001205
0.00056617
0.000102922
5.58413e-05
0.000527918
5.93216e-05
4.45263e-05
0.000472339
1.69151e-05
2.6146e-05
0.000430694
6.04962e-05
2.6865e-05
0.00043124
0.000105731
3.71424e-05
0.000459242
0.000236666
-1.32366e-05
0.000472277
0.000407311
-0.000120658
0.000464198
0.00033778
-0.000139517
0.000436315
0.000142046
-5.38891e-05
0.000406511
0.000101349
1.00558e-05
0.000415772
0.000137696
-1.36238e-05
0.000457233
7.54029e-05
-3.90728e-05
0.000496643
5.35304e-05
-5.61739e-05
0.000511966
6.87047e-05
-4.62976e-05
0.000494468
3.00874e-05
2.8135e-05
0.000480816
5.39894e-05
3.08477e-05
0.000503708
0.000103999
-6.06516e-05
0.000534429
0.000146696
-0.000126518
0.000534985
0.000163223
-9.35751e-05
0.000510618
2.98541e-05
1.90587e-05
0.000505121
-0.000140084
6.2845e-05
0.000534911
-0.000257717
-3.17064e-07
0.000566133
-0.000238896
-9.07457e-06
0.00056458
-7.27823e-05
-4.77025e-06
0.000565914
-2.62195e-05
-4.05079e-05
0.000584177
-9.85539e-05
-3.76382e-05
0.000566299
-1.43173e-05
8.28839e-06
0.00052367
8.7981e-05
5.36642e-05
0.000515916
5.23957e-05
4.88433e-05
2.51258e-05
4.3881e-05
0.000617893
1.86135e-06
1.79487e-05
0.000605295
6.34025e-06
-1.94828e-05
0.000653619
-5.98217e-05
-5.02407e-05
0.00068121
-1.61909e-05
-6.34761e-05
0.000611802
0.000136416
-8.63532e-05
0.000527804
0.000233657
-0.000108168
0.000528459
0.000224141
-6.22238e-05
0.000574433
6.36681e-05
0.000100923
0.000579199
-8.02426e-05
0.000229368
0.000596312
-8.03299e-06
0.00014939
0.000639194
9.78842e-05
5.5351e-05
0.000635068
3.99816e-05
5.93221e-05
0.000575148
-1.71939e-05
5.78513e-05
0.000505099
5.52547e-05
4.96629e-05
0.00048165
8.85176e-05
6.15046e-05
0.000502294
0.000179974
3.42205e-05
0.000523069
0.000409906
-6.33598e-05
0.00053221
0.000394898
-0.000131356
0.000508753
0.000169269
-7.95023e-05
0.000468424
8.78912e-05
4.42768e-07
0.000470112
0.000126284
-1.12323e-05
0.000506407
5.94519e-05
-3.59776e-05
0.000539009
1.49213e-05
-4.88606e-05
0.000560005
4.0951e-05
-4.33868e-05
0.000556974
1.92872e-05
3.74505e-05
0.000542153
5.115e-05
4.97553e-05
0.000549724
0.000115642
-6.07155e-05
0.000577821
0.000174435
-0.000145272
0.000588173
0.000197009
-0.000121646
0.000575465
6.0265e-05
-1.42079e-05
0.000579867
-0.000135115
6.23991e-05
0.000602337
-0.000259204
4.14016e-08
0.000623835
-0.000254579
-3.6821e-05
0.000627718
-8.49748e-05
-2.31674e-05
0.000624397
-2.82412e-08
-6.2805e-05
0.000639322
-0.00010051
-7.05408e-05
0.000636689
-6.59086e-05
-9.00084e-06
0.000594272
6.05357e-05
4.9296e-05
0.000572073
4.33159e-05
2.52262e-05
-1.3562e-05
5.83115e-06
0.000652638
1.93478e-06
-8.78987e-06
0.000646297
1.48701e-05
-2.68163e-05
0.000701922
-0.000100983
-6.27805e-05
0.000742182
-5.08836e-05
-8.70288e-05
0.000692232
0.000190007
-0.000102083
0.000610978
0.000326274
-0.000111842
0.000607849
0.000241089
-9.98007e-05
0.000678291
-3.85093e-05
4.09271e-05
0.000681957
-0.000165437
0.000219124
0.000644263
-1.19055e-06
0.000177354
0.000675264
0.000105015
5.5292e-05
0.000723437
-1.23597e-05
5.44387e-05
0.00069038
-7.50802e-05
7.60244e-05
0.000599598
4.33562e-05
7.25077e-05
0.000543498
9.20284e-05
8.04203e-05
0.000536369
0.000154498
6.75711e-05
0.000553031
0.000385636
-6.33604e-07
0.000587217
0.000399869
-9.63833e-05
0.000590823
0.000156089
-9.36124e-05
0.00055955
4.92767e-05
-2.76074e-05
0.00055983
9.66902e-05
-1.9754e-05
0.000584071
4.85907e-05
-3.0956e-05
0.000596273
-7.44231e-06
-4.45708e-05
0.000617148
1.28707e-05
-4.60703e-05
0.000629289
-5.37753e-06
4.30154e-05
0.000611729
4.45786e-05
6.95849e-05
0.000601607
0.000141319
-5.2427e-05
0.000621823
0.000202921
-0.0001487
0.000636582
0.000217835
-0.000140146
0.00063491
9.48566e-05
-5.10108e-05
0.000651715
-0.000102879
3.70163e-05
0.000674177
-0.00022321
-3.13536e-06
0.00067982
-0.000232651
-4.52393e-05
0.000670851
-8.55163e-05
-3.80753e-05
0.000667203
3.96287e-05
-9.74918e-05
0.000693958
-6.01587e-05
-0.000118221
0.000716187
-9.2152e-05
-3.59043e-05
0.000691413
2.82163e-05
4.09851e-05
0.00065202
4.81134e-05
1.85036e-05
-1.80459e-05
-2.19374e-05
0.00069752
-3.39052e-06
-2.62246e-05
0.000715578
-2.75443e-05
-3.34678e-05
0.000757335
-0.00014933
-6.45563e-05
0.000776336
-6.82561e-05
-0.000101686
0.000762178
0.00021867
-0.000110575
0.000723112
0.000380276
-0.000100824
0.000710868
0.000257758
-0.000125828
0.000766921
-0.00012981
-2.64983e-05
0.000778023
-0.000268672
0.000179771
0.000716999
-4.13829e-06
0.000192376
0.000715197
0.000134825
5.53019e-05
0.000781611
-5.28146e-05
3.12891e-05
0.000802604
-0.000163533
8.10092e-05
0.000746191
-1.4297e-05
0.00010693
0.000666328
0.000117719
0.00011567
0.000601498
0.000217075
9.51446e-05
0.000588508
0.000389864
2.93535e-05
0.000639629
0.000363438
-6.93038e-05
0.000678703
0.000111177
-8.30428e-05
0.000670837
2.60637e-06
-3.74938e-05
0.000677351
5.26823e-05
-2.04968e-05
0.00069637
3.14567e-05
-8.51196e-06
0.000684149
-3.84771e-06
-2.97518e-05
0.00069095
7.272e-06
-5.36148e-05
0.000709169
-3.01022e-05
5.02168e-05
0.000685912
3.60054e-05
0.000100339
0.000662407
0.000173098
-4.03301e-05
0.000675703
0.000233209
-0.000154554
0.00069512
0.00022021
-0.000158142
0.000707881
0.000115754
-9.45435e-05
0.000734086
-5.31549e-05
-1.26082e-05
0.000759704
-0.000152248
-3.57502e-05
0.00074934
-0.000169466
-5.78206e-05
0.000712447
-5.62994e-05
-4.71069e-05
0.000704124
8.52859e-05
-0.000120278
0.000747112
-3.55889e-06
-0.000152696
0.000794154
-0.000104583
-6.08027e-05
0.000801451
-2.58643e-05
3.35274e-05
0.000757349
5.57523e-05
3.02232e-05
2.48142e-05
-2.2765e-05
0.00078201
-1.364e-05
-2.76441e-05
0.00081081
-0.000109539
-4.22119e-05
0.000827889
-0.000196631
-7.85683e-05
0.000813126
-6.18444e-05
-0.000102261
0.000818931
0.000223351
-0.000100289
0.000824015
0.000383742
-9.75973e-05
0.00082937
0.000250818
-0.000153868
0.000864728
-0.000166719
-8.97204e-05
0.000847332
-0.000313816
0.000124137
0.000792482
-2.71854e-05
0.000174539
0.000828903
0.000107566
5.32585e-05
0.000917123
-0.000109156
2.42636e-05
0.00093758
-0.00023907
9.61293e-05
0.000878126
-6.93691e-05
0.000146501
0.000783699
0.000155688
0.000152253
0.000684459
0.000319388
0.000117938
0.0006353
0.000431268
3.14557e-05
0.000674469
0.000339531
-6.11455e-05
0.000733804
8.14464e-05
-5.27658e-05
0.000754951
-2.11189e-05
-9.31499e-07
0.000779596
9.33934e-06
5.3671e-06
0.000814451
-1.03007e-05
2.70423e-05
0.000798162
4.93637e-06
9.83243e-06
0.000783672
3.21488e-05
-4.66578e-05
0.000792792
-3.88911e-05
5.02745e-05
0.000767753
1.87836e-05
0.000141848
0.000743344
0.000190286
-7.94234e-06
0.000756731
0.000264536
-0.000170258
0.000779511
0.00022482
-0.000196011
0.000798282
0.00011752
-0.000134688
0.000820508
-1.29989e-05
-5.05617e-05
0.000847209
-7.71806e-05
-6.51149e-05
0.000835475
-8.79793e-05
-8.3112e-05
0.00076732
6.32258e-06
-5.06667e-05
0.000734431
0.000132798
-0.000104537
0.000787695
3.55906e-05
-0.00016073
0.000850498
-0.000111289
-9.98424e-05
0.000877942
-8.21571e-05
-1.74689e-06
0.000852743
4.63301e-05
3.07317e-05
7.78894e-05
-1.43994e-05
0.000900827
-1.8891e-05
-2.64127e-05
0.000914709
-0.00017005
-5.25181e-05
0.000918544
-0.000244795
-9.75617e-05
0.000879211
-5.70626e-05
-9.69677e-05
0.000879539
0.000217411
-8.59891e-05
0.000913032
0.000352637
-9.66254e-05
0.000936151
0.000233194
-0.000172729
0.000964132
-0.000138664
-0.000159323
0.000920942
-0.000243017
2.59261e-05
0.00086719
-1.74472e-05
0.000121168
0.000959947
-1.05764e-06
5.45268e-05
0.00108081
-0.000229605
3.99417e-05
0.00104745
-0.000255057
0.000111748
0.00089031
8.89377e-06
0.000135683
0.000738948
0.000261786
0.000110631
0.000647947
0.000382923
8.90249e-05
0.000629247
0.000409477
3.76829e-05
0.000692601
0.000283984
-3.95487e-05
0.000784704
3.94869e-05
-2.84745e-05
0.000836921
-5.52472e-05
5.34651e-05
0.000877984
-4.25704e-05
5.23516e-05
0.000933406
-7.24132e-05
4.97056e-05
0.000931879
-7.50487e-06
6.1126e-05
0.000902702
6.46754e-05
-3.95919e-06
0.000887985
-2.60017e-05
4.70967e-05
0.000853799
1.18203e-05
0.000159285
0.000840947
0.000189879
4.56352e-05
0.000871903
0.000269282
-0.000146445
0.000892235
0.000234404
-0.000225036
0.000895394
0.000116872
-0.000176561
0.000908395
-7.47029e-06
-6.84627e-05
0.000940061
-3.96334e-05
-5.73171e-05
0.000937527
-1.47098e-05
-8.71993e-05
0.000851024
9.14838e-05
-5.28707e-05
0.000783778
0.000174828
-7.68171e-05
0.000834444
2.78323e-05
-0.000146258
0.00091319
-0.000133709
-0.000147508
0.000937509
-0.000104582
-7.78779e-05
0.000921827
4.58949e-05
-1.05529e-05
9.86389e-05
-1.85799e-05
0.00101797
-7.18006e-06
-1.82682e-05
0.00100902
-0.000180152
-5.65465e-05
0.00100845
-0.000287195
-0.000104733
0.000980361
-8.77443e-05
-9.92571e-05
0.000975888
0.000198137
-0.000107853
0.00100926
0.000320841
-0.000111451
0.00101549
0.000228413
-0.0001403
0.00102531
-8.84658e-05
-0.000160924
0.00102369
-0.000179714
-4.70363e-05
0.00102015
-1.43548e-05
5.57158e-05
0.0010902
-7.91009e-05
5.02196e-05
0.00114298
-0.00029845
5.16439e-05
0.00106869
-0.000242816
0.000129466
0.000913796
7.4751e-05
0.000172418
0.000790736
0.000304286
0.000137293
0.000734112
0.000360702
9.95366e-05
0.000738891
0.000324809
6.87532e-05
0.000806113
0.00018853
2.46964e-06
0.000890861
-2.13583e-06
-2.1818e-05
0.000941026
-8.246e-05
7.55857e-05
0.000972519
-8.30239e-05
9.1477e-05
0.00102287
-0.000121282
5.42594e-05
0.00104834
-3.80132e-05
7.84539e-05
0.00103496
6.66938e-05
4.8755e-05
0.000996117
-2.20629e-06
6.08663e-05
0.000935584
3.72604e-05
0.00015157
0.000933059
0.000183628
8.62238e-05
0.000998606
0.000234272
-9.65915e-05
0.00102575
0.000216538
-0.000208781
0.00100133
0.000117518
-0.000198403
0.000994189
-1.29664e-05
-9.32808e-05
0.00102528
-3.22952e-05
-4.02166e-05
0.00103818
4.25284e-05
-7.72525e-05
0.000982245
0.000159044
-6.4715e-05
0.00092752
0.000179357
-6.30023e-05
0.000961673
-1.51563e-05
-0.000116752
0.00102898
-0.000161815
-0.000165526
0.00104502
-9.31272e-05
-0.000154952
0.00102614
6.92311e-05
-6.7697e-05
0.000108627
-2.05749e-05
0.00112091
1.68659e-05
1.00095e-05
0.00110309
-0.000162788
-4.32551e-05
0.00109135
-0.000307715
-0.000100153
0.00108931
-0.000148268
-0.000107058
0.00110095
0.000137765
-0.000120407
0.00111409
0.000282138
-0.000102568
0.00109179
0.000252444
-0.000113191
0.00107749
-4.70276e-06
-0.000153862
0.00110866
-0.000152266
-8.5523e-05
0.00116122
-7.90475e-05
5.72111e-06
0.00121829
-0.00013885
3.36402e-05
0.00121114
-0.0002888
4.95279e-05
0.00111749
-0.000201684
0.000110526
0.00102868
5.69679e-05
0.000204474
0.00100094
0.000206973
0.000240386
0.00101022
0.000232395
0.000201131
0.00102641
0.000205063
0.000128682
0.00104396
0.000107912
3.67107e-05
0.00106106
-1.1859e-05
-1.97328e-05
0.00106905
-6.50247e-05
6.28461e-05
0.00107087
-8.14525e-05
0.000100581
0.00108465
-0.000124455
5.01739e-05
0.00110614
-5.09066e-05
6.8259e-05
0.00111995
4.78013e-05
7.07401e-05
0.00109427
7.84471e-06
7.18809e-05
0.0010361
6.71303e-05
0.000127831
0.00103792
0.000187642
7.90652e-05
0.00110693
0.000204431
-7.43907e-05
0.00113691
0.000184708
-0.000185295
0.00110658
0.000103576
-0.000196255
0.00108172
-1.79145e-05
-9.87451e-05
0.00109469
-2.54325e-05
-1.14796e-05
0.00111733
8.4931e-05
-4.43824e-05
0.00112332
0.000185327
-7.64982e-05
0.00112054
0.000144824
-8.91891e-05
0.00113494
-4.86973e-05
-0.000127234
0.00117106
-0.000165067
-0.000170488
0.00118705
-7.78578e-05
-0.000174878
0.00116342
8.93708e-05
-8.00052e-05
0.000125701
4.07337e-06
0.00121296
4.37667e-05
5.11134e-05
0.00121312
-0.000145318
-7.04416e-06
0.00121206
-0.00031738
-8.10069e-05
0.00121306
-0.000208457
-9.24911e-05
0.00122294
6.34736e-05
-0.000104768
0.00122702
0.000246281
-0.000108168
0.00120051
0.000286155
-0.000139288
0.00116389
8.87788e-05
-0.000169038
0.00118012
-0.000120678
-9.94081e-05
0.0012558
-0.000159894
-3.61028e-05
0.00133449
-0.000202206
-7.38177e-06
0.00133505
-0.000256105
3.82525e-05
0.00126076
-0.000175382
9.80172e-05
0.00120798
3.82382e-07
0.000190944
0.00119855
9.75532e-05
0.000277795
0.00120708
9.9064e-05
0.000274506
0.00121634
8.49105e-05
0.000174708
0.00121119
3.35462e-05
4.94842e-05
0.00119997
-2.71439e-05
-1.61484e-05
0.00119074
-4.43271e-05
5.92898e-05
0.00118238
-5.66303e-05
0.000111106
0.00117428
-9.51117e-05
5.26826e-05
0.00118224
-4.81982e-05
5.44184e-05
0.00120488
2.19801e-05
8.00549e-05
0.0011951
7.50039e-06
8.30467e-05
0.00115514
9.00702e-05
0.00010268
0.0011581
0.000209463
5.327e-05
0.00120626
0.000207586
-5.48338e-05
0.00123192
0.000155291
-0.000142844
0.00121552
7.06086e-05
-0.000160182
0.0011828
-2.16552e-05
-7.12283e-05
0.00116054
-1.53676e-06
2.79451e-05
0.00117722
0.000101448
2.08112e-05
0.0012311
0.000158678
-4.77797e-05
0.00126756
0.000103765
-0.000113206
0.00126155
-3.01581e-05
-0.000144987
0.00126567
-0.000122044
-0.000150544
0.00129564
-7.57558e-05
-0.000143774
0.00129056
7.39995e-05
-6.0288e-05
0.000140038
2.80511e-05
0.00137125
5.30054e-05
6.74367e-05
0.00136313
-0.000137333
4.68059e-05
0.00137804
-0.00031794
-4.047e-05
0.00138546
-0.000254432
-7.58099e-05
0.00137107
1.42054e-05
-0.000120199
0.0013423
0.000244036
-0.000159908
0.00132089
0.000305307
-0.000175247
0.00130936
0.000114225
-0.000159132
0.0013119
-0.000111816
-8.13001e-05
0.00135035
-0.000196133
-5.59766e-05
0.001428
-0.000230779
-6.73271e-05
0.00147835
-0.000228342
3.85917e-06
0.0014402
-0.000153567
8.64789e-05
0.00136744
-2.69753e-05
0.000167435
0.00131719
4.43186e-05
0.000268316
0.00130365
3.16222e-06
0.000308294
0.00131637
-3.81803e-05
0.000239967
0.00132991
-5.73337e-05
9.65467e-05
0.00132709
-5.23501e-05
-8.18624e-06
0.00130925
-2.30511e-05
4.2387e-05
0.00129488
-2.75794e-05
0.000122232
0.00128102
-6.12877e-05
7.79531e-05
0.00128204
-3.98187e-05
4.95039e-05
0.00131137
7.09948e-07
7.0756e-05
0.0013192
1.12843e-05
8.00012e-05
0.00128396
0.00012709
7.23678e-05
0.00125871
0.000268924
1.816e-05
0.00127108
0.000244528
-3.56071e-05
0.00129516
0.000124605
-7.21318e-05
0.00130395
6.13629e-06
-7.77322e-05
0.00128459
-4.85913e-05
-2.35497e-05
0.001253
8.3235e-06
4.72123e-05
0.00127084
7.43861e-05
6.24372e-05
0.00133944
8.57222e-05
9.75082e-06
0.00138272
7.51137e-05
-9.12303e-05
0.00137084
1.95088e-05
-0.00013475
0.00136153
-5.36578e-05
-0.000114973
0.00140713
-6.85562e-05
-0.000105442
0.00144938
3.68344e-05
-6.76326e-05
0.00012803
1.51756e-06
0.00161506
5.80782e-06
6.29721e-05
0.00159184
-0.000159408
0.000101641
0.00157544
-0.000298111
2.87034e-05
0.00156712
-0.000260703
-3.51259e-05
0.00154804
-3.50932e-05
-9.16827e-05
0.00150936
0.000217297
-0.000165621
0.00147993
0.000308971
-0.000190586
0.00147767
0.000117363
-0.000156379
0.00149137
-0.000123768
-8.05478e-05
0.0015147
-0.000210914
-7.67623e-05
0.00155971
-0.000219323
-0.000113881
0.00160369
-0.000190777
-2.9157e-05
0.00158354
-0.00014164
8.19879e-05
0.0015
-3.92864e-05
0.000150901
0.0014282
3.74414e-05
0.000232944
0.00141582
-3.67087e-05
0.000292949
0.00144062
-0.000131461
0.000280287
0.00146849
-0.000155488
0.0001686
0.00147982
-0.000114204
3.31156e-05
0.00146697
-3.84546e-05
3.68082e-05
0.0014514
-1.82373e-05
0.000121647
0.00142991
-3.97042e-05
0.000103379
0.00140725
-2.5556e-05
5.09078e-05
0.00141608
3.49239e-06
5.26361e-05
0.00142816
2.52511e-05
6.44298e-05
0.00140586
0.000146273
4.20988e-05
0.00138173
0.000298578
-4.50099e-06
0.00138189
0.000272598
9.15532e-07
0.00139034
0.000112902
2.26825e-05
0.00139385
-5.88091e-05
2.94446e-05
0.00138885
-0.000124658
4.83109e-05
0.00139037
-3.06562e-05
6.4042e-05
0.00143234
3.38976e-05
6.39309e-05
0.00148488
3.46883e-05
3.37518e-05
0.00149756
6.46902e-05
-5.51994e-05
0.00148968
5.52103e-05
-0.00011472
0.00149745
2.28156e-06
-8.82243e-05
0.00154271
-2.36434e-05
-5.87905e-05
0.00160536
4.03134e-05
-4.68814e-05
9.76398e-05
-1.87593e-05
0.00179888
-7.08759e-05
0.000109563
0.00179399
-0.000201596
0.000174714
0.00176641
-0.000274971
0.000130896
0.00173968
-0.000239856
4.8813e-05
0.00171358
-8.39113e-05
-8.14073e-06
0.00168067
0.000122357
-9.95443e-05
0.00166015
0.000238081
-0.00020137
0.00166757
9.86054e-05
-0.000218285
0.00168173
-0.000122323
-0.000128934
0.00168849
-0.000206706
-9.57038e-05
0.00170244
-0.000196791
-0.000134911
0.00171859
-0.000156169
-4.57084e-05
0.00170453