/*--------------------------------*- C++ -*----------------------------------*\
  =========                 |
  \\      /  F ield         | OpenFOAM: The Open Source CFD Toolbox
   \\    /   O peration     | Website:  https://openfoam.org
    \\  /    A nd           | Version:  10
     \\/     M anipulation  |
\*---------------------------------------------------------------------------*/
FoamFile
{
    format      ascii;
    class       volVectorField;
    location    "9";
    object      U;
}
// * * * * * * * * * * * * * * * * * * * * * * * * * * * * * * * * * * * * * //

dimensions      [0 1 -1 0 0 0 0];

internalField   nonuniform List<vector> 
102400
(
(0.0553731 -2.89169e-05 -0.011861)
(0.04958 -0.000418719 -0.0181988)
(0.0497192 -0.000529205 -0.0183742)
(0.0533334 -8.93616e-05 -0.0171172)
(0.0570613 0.000253202 -0.0143644)
(0.0585491 0.000417907 -0.00710637)
(0.0528762 0.000640309 0.00250889)
(0.0489068 0.00041263 0.0110483)
(0.0533152 0.000122047 0.00840021)
(0.0542286 0.000122634 -0.00482177)
(0.0516772 7.29582e-05 -0.0113897)
(0.0600292 -4.76075e-05 -0.00475736)
(0.0726 -0.000138189 -0.000794742)
(0.0775733 -0.00011058 -0.00208856)
(0.0811914 6.89738e-05 -0.00237093)
(0.0852133 0.000103943 -0.00793696)
(0.0828526 -7.33582e-05 -0.0110965)
(0.0910685 4.98493e-05 -0.00648111)
(0.106899 -1.61479e-05 0.00277758)
(0.119452 -9.85741e-05 0.0115867)
(0.123912 -0.000137535 0.018538)
(0.117013 -0.000308067 0.0155504)
(0.104541 -0.000167207 0.011084)
(0.104643 0.000282636 0.0139391)
(0.104354 -4.52615e-05 0.00890971)
(0.0916665 -0.000394253 -0.000448954)
(0.0940657 1.87191e-05 -0.00131798)
(0.116858 0.000426065 0.00684761)
(0.131685 -8.45289e-05 0.00694228)
(0.103959 8.15274e-05 -0.0120571)
(0.071422 0.000292423 -0.030159)
(0.0667894 0.000228966 -0.0232402)
(0.0727504 -0.000210828 -0.00230706)
(0.0795406 -0.000313323 0.00992221)
(0.0801947 -1.56034e-05 0.0123362)
(0.0745983 0.000257964 0.0164584)
(0.0726692 9.51288e-06 0.0253078)
(0.0739686 -4.66327e-05 0.027644)
(0.0736132 2.74782e-05 0.0142583)
(0.0660954 7.51146e-05 -0.00185001)
(0.196918 -0.00101252 -0.0297154)
(0.174203 -0.00343674 -0.0417901)
(0.154323 -0.00343075 -0.0366073)
(0.156635 0.000374796 -0.0257967)
(0.164115 0.00245554 -0.0137393)
(0.163925 0.00261904 -0.000140629)
(0.158902 0.00248393 0.0108611)
(0.157497 0.00103234 0.0162281)
(0.166414 0.000846718 0.00328771)
(0.168187 0.00154303 -0.021398)
(0.158297 0.00095734 -0.0256339)
(0.173047 -4.9961e-06 -0.00615573)
(0.203021 -0.000184387 -0.00139023)
(0.214011 2.4009e-05 -0.011278)
(0.226137 0.00037308 -0.015569)
(0.25013 0.00022692 -0.0276471)
(0.243133 0.000199185 -0.0295358)
(0.25684 0.000843401 -0.0114031)
(0.296037 -0.000349004 0.00599865)
(0.332898 -0.00126352 0.0196068)
(0.365644 -0.00162885 0.0386409)
(0.359082 -0.00120533 0.039529)
(0.311098 -1.44976e-05 0.0268214)
(0.314527 0.000697072 0.0313739)
(0.335686 -0.00058694 0.0261526)
(0.286328 -0.000944823 0.00329824)
(0.257988 0.000367126 4.93924e-05)
(0.301125 0.000251291 0.0307905)
(0.385554 0.000883364 0.0472774)
(0.36023 0.00163973 -0.00492512)
(0.257918 0.00113812 -0.060669)
(0.228533 -0.000474699 -0.0525092)
(0.233305 -0.00241012 -0.00689114)
(0.237268 -0.00186667 0.0249974)
(0.239907 0.000240954 0.0329674)
(0.228962 0.00113326 0.0363269)
(0.218501 0.000310454 0.0459964)
(0.222636 0.000158316 0.047701)
(0.231905 0.000391732 0.023623)
(0.22113 8.23956e-05 -0.00832139)
(0.391653 0.000150068 -0.0359705)
(0.356384 -0.00534225 -0.0565312)
(0.278997 -0.00788516 -0.0529483)
(0.254613 -0.000601977 -0.0336012)
(0.278172 0.00539903 -0.00876387)
(0.282035 0.00620248 0.0133092)
(0.276508 0.00510658 0.0232742)
(0.274637 0.00070993 0.0244837)
(0.277923 0.000534437 0.00512924)
(0.289051 0.00364149 -0.0320509)
(0.270159 0.00346309 -0.0422604)
(0.269931 0.00101685 -0.0127069)
(0.308055 0.000250336 -0.000561373)
(0.328655 0.000993403 -0.0170061)
(0.338194 0.00143496 -0.0232312)
(0.380012 0.000513404 -0.0372256)
(0.374426 0.00111372 -0.0444182)
(0.384426 0.00316846 -0.016253)
(0.431908 0.00163077 0.0103592)
(0.46385 -0.000851179 0.0140335)
(0.526419 -0.00344715 0.0279171)
(0.574623 -0.00290211 0.0507778)
(0.511744 0.000829175 0.043385)
(0.504568 0.000654309 0.0433164)
(0.569315 -0.00169807 0.0470715)
(0.507039 0.000461924 0.0154819)
(0.431219 0.00340063 -0.00596413)
(0.417582 -0.000438406 0.0340273)
(0.502354 -0.00597434 0.113091)
(0.617213 0.000272236 0.0920408)
(0.537248 0.00474609 -0.0295345)
(0.457375 -0.00085432 -0.0800621)
(0.431937 -0.00560046 -0.0389381)
(0.393582 -0.00526127 0.0180119)
(0.389675 -0.00109176 0.0421262)
(0.390035 0.00246649 0.048797)
(0.359587 0.00205275 0.0529976)
(0.351121 0.00131266 0.0493867)
(0.378917 0.00152661 0.0278069)
(0.397676 0.00154457 -0.00555652)
(0.560333 0.00330151 -0.0360372)
(0.584759 -0.00108987 -0.0649608)
(0.463661 -0.0088942 -0.0706371)
(0.356035 -0.00412612 -0.0531986)
(0.383042 0.00626988 -0.0176813)
(0.420139 0.0109779 0.0254617)
(0.41403 0.0107016 0.047344)
(0.405614 0.00138067 0.0492217)
(0.384286 -0.00188058 0.023695)
(0.400024 0.00428903 -0.0288351)
(0.38826 0.00724635 -0.0578624)
(0.362923 0.00376569 -0.0264107)
(0.39188 0.00128355 -0.00111103)
(0.425176 0.00305474 -0.0207182)
(0.423958 0.00481699 -0.0309363)
(0.466158 0.00278077 -0.038043)
(0.469968 0.00276263 -0.0519179)
(0.470883 0.00590186 -0.0255469)
(0.525631 0.00570087 0.0161078)
(0.542133 0.00423856 0.0229844)
(0.574642 -0.000626328 0.00938593)
(0.680773 -0.00342867 0.0273532)
(0.660444 0.0022171 0.0485837)
(0.645498 0.000604054 0.0552849)
(0.744424 -0.00447914 0.0681354)
(0.703698 0.00175932 0.0354918)
(0.621702 0.00945813 -0.00745185)
(0.588271 0.00581603 0.0142848)
(0.56359 -0.010257 0.101596)
(0.639943 -0.0110493 0.158286)
(0.736917 0.000464995 0.0841917)
(0.718619 0.000662695 -0.0522677)
(0.678899 -0.00469149 -0.0867143)
(0.580495 -0.00598247 -0.0238574)
(0.513046 -0.00476199 0.0283313)
(0.520444 0.00112599 0.0533781)
(0.49216 0.00535581 0.0618276)
(0.453203 0.00563314 0.0421047)
(0.471483 0.00422776 0.0123182)
(0.513711 0.00357256 -0.00881248)
(0.626097 0.00401062 -0.0356764)
(0.731359 0.00408165 -0.0651474)
(0.682483 -0.00296871 -0.0812661)
(0.49121 -0.00636406 -0.0769672)
(0.464234 0.00349654 -0.0451217)
(0.535303 0.0134524 0.0190038)
(0.561049 0.0194758 0.0693185)
(0.552907 0.00768996 0.0855906)
(0.505303 -0.00280549 0.0601157)
(0.494689 0.00237177 -0.00519839)
(0.493165 0.00993204 -0.0612766)
(0.455416 0.00795379 -0.0409228)
(0.465382 0.00216731 -0.00333933)
(0.512732 0.00481976 -0.0208997)
(0.505871 0.0109294 -0.0435742)
(0.531592 0.00973634 -0.0441019)
(0.544644 0.00723185 -0.0536053)
(0.531761 0.00905292 -0.0360297)
(0.577128 0.00944675 0.00683341)
(0.600649 0.0111686 0.0303733)
(0.603676 0.00620444 0.00937173)
(0.70455 -0.000479841 -0.00313693)
(0.730952 0.00436695 0.0255643)
(0.726324 0.0018225 0.0591625)
(0.835338 -0.00706998 0.0871547)
(0.827788 0.00134402 0.0557286)
(0.756272 0.0132848 -0.00185876)
(0.761784 0.0144941 -0.00832212)
(0.728231 -0.00255483 0.0617828)
(0.660815 -0.0171195 0.146347)
(0.740607 -0.0124244 0.144006)
(0.842135 -0.00875737 0.0402781)
(0.853867 -0.00509223 -0.0918698)
(0.766173 0.00068892 -0.0799425)
(0.64514 -0.00169038 -0.0133394)
(0.60835 -0.00265686 0.039787)
(0.583927 0.00681294 0.0685615)
(0.536304 0.0132173 0.040608)
(0.539058 0.0107751 -0.0152923)
(0.575225 0.0072256 -0.0316034)
(0.668424 0.00404523 -0.0382242)
(0.7729 0.00371398 -0.0495467)
(0.842078 0.00375082 -0.0777671)
(0.66298 -0.00417557 -0.0910561)
(0.545227 -0.000127199 -0.0749249)
(0.596863 0.0126654 -0.00691336)
(0.658062 0.0262839 0.0723266)
(0.683362 0.018077 0.111706)
(0.645495 0.00277147 0.0980043)
(0.598206 0.00112834 0.0340463)
(0.584221 0.00977552 -0.0450508)
(0.542039 0.0121175 -0.0484642)
(0.531512 0.00267085 -0.00495607)
(0.584426 0.00391254 -0.013587)
(0.588572 0.0178394 -0.0521187)
(0.601289 0.0219224 -0.0616299)
(0.613618 0.0162356 -0.0595742)
(0.589732 0.0137307 -0.043227)
(0.608243 0.0125047 -0.00628404)
(0.629757 0.0171791 0.0262509)
(0.637014 0.0144851 0.0120692)
(0.725655 0.00492114 -0.0181082)
(0.762038 0.00815011 -0.00544871)
(0.762771 0.00425995 0.0438843)
(0.858793 -0.00802587 0.0925634)
(0.869872 0.00164712 0.0686868)
(0.81972 0.0153641 0.000111029)
(0.85799 0.0179619 -0.0264552)
(0.876114 0.00621964 0.0257349)
(0.767657 -0.0128384 0.106061)
(0.736344 -0.020536 0.133812)
(0.840375 -0.0228598 0.0987107)
(0.907802 -0.0145705 -0.0488335)
(0.870218 0.00578505 -0.115213)
(0.770963 0.00887395 -0.0613136)
(0.701471 -0.00112597 0.0124672)
(0.639139 0.00729095 0.064346)
(0.596312 0.0207136 0.0491424)
(0.602344 0.018334 -0.0223877)
(0.641036 0.0136359 -0.0568199)
(0.734079 0.00462791 -0.0297019)
(0.787661 -0.000841996 -0.0187195)
(0.915503 0.00596546 -0.052913)
(0.825388 0.000165004 -0.0893489)
(0.648297 -0.00149144 -0.0946725)
(0.636046 0.0114628 -0.0362296)
(0.698548 0.0304701 0.0628601)
(0.749174 0.0268125 0.126147)
(0.767389 0.0123105 0.121436)
(0.729772 0.00539634 0.0707583)
(0.684421 0.00897185 -0.0106554)
(0.629581 0.014018 -0.0445181)
(0.598332 0.0039474 -0.00734059)
(0.630115 0.00143505 -0.00021206)
(0.651463 0.0218983 -0.0461832)
(0.673709 0.037439 -0.0909952)
(0.681021 0.0316514 -0.0912888)
(0.648025 0.0210187 -0.0623484)
(0.641659 0.014879 -0.0194358)
(0.643698 0.0208696 0.0199091)
(0.659746 0.0216526 0.0123122)
(0.747733 0.011149 -0.0231975)
(0.79331 0.013494 -0.0276037)
(0.797566 0.00838049 0.0224057)
(0.85206 -0.007434 0.0825403)
(0.855152 0.00337495 0.069151)
(0.834952 0.0178756 -0.00424087)
(0.891941 0.0180122 -0.0465919)
(0.933692 0.0120077 -0.00486146)
(0.85279 -0.00577184 0.0766252)
(0.76308 -0.0226058 0.0964965)
(0.823585 -0.0310604 0.0932449)
(0.904576 -0.0268358 0.0084978)
(0.905089 0.00278077 -0.11955)
(0.866916 0.0178675 -0.110909)
(0.820999 0.00578218 -0.0249731)
(0.711036 0.00930188 0.0521081)
(0.649174 0.025991 0.0663029)
(0.657363 0.0228259 0.0117049)
(0.7036 0.0180331 -0.0457447)
(0.818575 0.00526634 0.0134146)
(0.824591 -0.00613943 0.0244378)
(0.941101 0.00359743 -0.00533602)
(0.940866 0.00381031 -0.065983)
(0.765667 0.000300883 -0.102906)
(0.68316 0.0115062 -0.0637901)
(0.716082 0.0335897 0.0482347)
(0.755174 0.0311221 0.143748)
(0.809295 0.0174933 0.142016)
(0.852799 0.0127126 0.0923123)
(0.816687 0.0121267 0.0275739)
(0.73696 0.0131593 -0.0205395)
(0.677542 0.00606194 -0.00901685)
(0.665215 0.00215744 0.0105651)
(0.68059 0.0228196 -0.0256834)
(0.726019 0.0493236 -0.0983051)
(0.746131 0.0499317 -0.126059)
(0.710489 0.031792 -0.0925738)
(0.68428 0.0174593 -0.0351935)
(0.657871 0.0225881 0.0133843)
(0.671499 0.0260767 0.0120746)
(0.750849 0.0161732 -0.0259955)
(0.817058 0.018592 -0.0401404)
(0.84788 0.0137121 0.007907)
(0.848758 -0.00391708 0.0692272)
(0.816972 0.00557223 0.0579945)
(0.831047 0.0200643 -0.0161032)
(0.90215 0.019554 -0.0619862)
(0.935209 0.0162199 -0.0278886)
(0.881454 -0.0012269 0.0552767)
(0.786815 -0.0228817 0.0699918)
(0.82921 -0.0355379 0.0544859)
(0.908449 -0.0323598 0.0384744)
(0.905986 -0.00711888 -0.0753303)
(0.909628 0.0136576 -0.14062)
(0.94525 0.0109495 -0.0849815)
(0.835405 0.0145105 0.0142712)
(0.732924 0.0278559 0.0723679)
(0.731237 0.0241845 0.0679357)
(0.768845 0.0205847 0.0178501)
(0.923528 0.00700703 0.069835)
(0.894566 -0.00818554 0.0625196)
(0.960644 -0.000726395 0.0390153)
(1.01664 0.00555495 -0.0287341)
(0.878195 0.00544974 -0.0966788)
(0.743519 0.0143383 -0.0850562)
(0.730553 0.0357047 0.0298183)
(0.757604 0.0320305 0.159051)
(0.795912 0.0137905 0.166981)
(0.89783 0.013669 0.099888)
(0.929828 0.0176779 0.0464306)
(0.853033 0.0125903 0.0138209)
(0.766242 0.00695355 0.00175366)
(0.710877 0.0056786 0.0174373)
(0.697589 0.0228126 -0.00195083)
(0.75127 0.0542712 -0.0809777)
(0.791789 0.0666066 -0.140736)
(0.767434 0.0454137 -0.120266)
(0.73259 0.0206873 -0.0494104)
(0.679199 0.0227762 0.01105)
(0.677284 0.0284036 0.013059)
(0.743389 0.0186176 -0.0256006)
(0.822348 0.0196258 -0.0445783)
(0.878487 0.0171804 0.00286772)
(0.861913 0.00165927 0.0647229)
(0.799478 0.00778032 0.0462712)
(0.825194 0.020508 -0.0320159)
(0.904609 0.0224755 -0.0740111)
(0.929608 0.021836 -0.0429849)
(0.887011 0.00151153 0.034893)
(0.81093 -0.0253157 0.0557278)
(0.843706 -0.0425543 0.0209367)
(0.933736 -0.0362392 0.0280989)
(0.936619 -0.0121171 -0.0231682)
(0.914735 -0.00163623 -0.109458)
(0.994713 -5.28444e-05 -0.113788)
(0.955403 0.0162087 -0.0422113)
(0.846991 0.0258568 0.0321113)
(0.822296 0.0185877 0.0744029)
(0.856574 0.0195731 0.0766174)
(0.991227 0.00375093 0.0769228)
(0.944098 -0.00656236 0.0556279)
(0.969614 -0.0048463 0.0450075)
(1.06284 0.00412989 -0.00360232)
(0.976893 0.0122098 -0.0842995)
(0.8106 0.0230659 -0.0984363)
(0.749644 0.0398843 0.00593747)
(0.799798 0.0286798 0.141302)
(0.813919 0.00273301 0.168587)
(0.889255 0.0069 0.0981741)
(0.984673 0.0195639 0.0447628)
(0.952062 0.0114297 0.0362818)
(0.849126 0.00638265 0.0209604)
(0.755794 0.0124297 0.0239271)
(0.710307 0.0234469 0.0186932)
(0.761661 0.0510367 -0.0559043)
(0.810013 0.0768086 -0.133917)
(0.803897 0.0603102 -0.134768)
(0.779284 0.0253774 -0.0658877)
(0.706006 0.0211496 0.00956005)
(0.680881 0.0282709 0.0155668)
(0.739416 0.0170035 -0.0236393)
(0.817305 0.0148754 -0.0445049)
(0.876175 0.0160098 -0.00165477)
(0.874792 0.00594687 0.0665768)
(0.812072 0.0102354 0.046361)
(0.824571 0.020045 -0.0443361)
(0.895543 0.0267974 -0.0871068)
(0.926431 0.0293463 -0.0569621)
(0.894994 0.0038967 0.018441)
(0.851098 -0.029355 0.0537265)
(0.877112 -0.0515256 0.00659261)
(0.947853 -0.0452289 3.28556e-05)
(0.980248 -0.0132837 -0.00593034)
(0.94491 -0.00705855 -0.0644712)
(0.987195 -0.0175254 -0.0944461)
(1.00449 0.00412421 -0.0584034)
(0.927941 0.0204926 -0.0055597)
(0.862061 0.0112221 0.0218829)
(0.894736 0.00937554 0.0600594)
(0.991982 0.000449896 0.0431311)
(0.928721 -0.00120641 0.0216814)
(0.946129 -0.00875325 0.00815058)
(1.07946 4.11708e-05 -0.0126915)
(1.03632 0.020662 -0.0729598)
(0.856301 0.0370503 -0.103758)
(0.771946 0.0442607 -0.0392767)
(0.877769 0.0219084 0.0705666)
(0.907477 -0.00909409 0.133112)
(0.881653 -0.0014451 0.0955237)
(0.967572 0.0210989 0.0451706)
(1.02038 0.0119911 0.0444798)
(0.950086 5.0304e-05 0.0351609)
(0.826857 0.0107246 0.0268381)
(0.736637 0.0184656 0.0294343)
(0.757337 0.0418406 -0.0242988)
(0.804131 0.0808554 -0.0968825)
(0.823661 0.0731176 -0.12729)
(0.826239 0.0323504 -0.0945256)
(0.747548 0.0199376 -0.0143518)
(0.704537 0.0264738 0.00632151)
(0.755735 0.0126706 -0.0257396)
(0.812552 0.00627917 -0.047235)
(0.85834 0.0111975 -0.0123957)
(0.882144 0.00585382 0.0650373)
(0.845181 0.0107486 0.0569997)
(0.832862 0.0213023 -0.0448197)
(0.873814 0.0324106 -0.0971454)
(0.916915 0.03706 -0.0729599)
(0.90378 0.00901678 0.00409329)
(0.884977 -0.0285219 0.0587221)
(0.918409 -0.0540905 0.0113904)
(0.949263 -0.0515644 -0.0149955)
(0.982463 -0.0159004 -0.0150759)
(0.963996 -0.00325662 -0.0555225)
(0.973519 -0.0229359 -0.0752206)
(1.0087 -0.0103165 -0.0384996)
(0.96618 0.0141307 -0.00659308)
(0.879751 0.00861064 -0.0205057)
(0.891686 -0.000410047 0.00626832)
(0.947453 -1.06078e-05 0.00146768)
(0.896612 0.00377685 -0.00465784)
(0.923293 -0.0161619 -0.0232583)
(1.0539 -0.00721974 -0.0397758)
(1.04223 0.0322484 -0.0668365)
(0.905463 0.056121 -0.0938643)
(0.808375 0.0455806 -0.08585)
(0.915058 0.00176088 -0.0233701)
(1.00269 -0.0233193 0.0690576)
(0.912825 -0.00142582 0.0847366)
(0.902859 0.0193411 0.0437849)
(1.00609 0.00382087 0.0421118)
(1.03576 -0.00697447 0.0370883)
(0.904083 0.0129973 0.0240365)
(0.783337 0.0185003 0.0316768)
(0.749526 0.0324874 0.00986423)
(0.763932 0.0815378 -0.0459925)
(0.80282 0.0829013 -0.109983)
(0.852496 0.0353883 -0.125668)
(0.808798 0.0161871 -0.0648783)
(0.76728 0.0242417 -0.0240477)
(0.813683 0.0106472 -0.0319069)
(0.83186 -0.000816721 -0.0520867)
(0.848325 0.00496401 -0.0281805)
(0.894894 0.00196149 0.0579618)
(0.879376 0.0096393 0.0682511)
(0.842302 0.0248065 -0.036013)
(0.855609 0.0379417 -0.0987134)
(0.896177 0.0426271 -0.0877609)
(0.895379 0.0158736 -0.0163442)
(0.898511 -0.0233651 0.0529858)
(0.943861 -0.0484412 0.0147876)
(0.95582 -0.0503554 -0.0162709)
(0.958206 -0.0181174 -0.0238865)
(0.933872 0.00382643 -0.0716201)
(0.94748 -0.0171165 -0.0785017)
(1.00862 -0.0175109 -0.0219263)
(1.01126 0.009487 0.00647363)
(0.940304 0.00845104 -0.0282962)
(0.895683 -0.00578081 -0.0319416)
(0.897531 0.000756264 -0.0266976)
(0.893691 0.00196591 -0.0241076)
(0.938543 -0.0255798 -0.033613)
(1.00045 -0.0137699 -0.0570842)
(0.993236 0.0415384 -0.0632781)
(0.956929 0.0732586 -0.07602)
(0.888369 0.0511358 -0.114413)
(0.941482 -0.0199525 -0.0863883)
(1.03088 -0.0455792 0.0127698)
(0.956396 0.000203934 0.0587454)
(0.879928 0.0222364 0.0282494)
(0.957157 -0.0110437 0.0312389)
(1.05005 -0.0255265 0.03702)
(1.00141 0.0078959 0.0296128)
(0.907563 0.0213608 0.0540358)
(0.801841 0.0340353 0.0534441)
(0.739133 0.0778876 -0.0135124)
(0.777132 0.0782725 -0.0999751)
(0.862679 0.0258154 -0.118967)
(0.872435 0.00288481 -0.0777278)
(0.844879 0.0145247 -0.0395077)
(0.894028 0.00884244 -0.026593)
(0.890554 -0.00215952 -0.046195)
(0.861298 7.04608e-05 -0.0399402)
(0.912668 -0.00443553 0.0524177)
(0.905627 0.00923578 0.0826485)
(0.849451 0.0323778 -0.0248098)
(0.849752 0.0430659 -0.101092)
(0.881076 0.0439971 -0.103892)
(0.897555 0.0223757 -0.0439766)
(0.920468 -0.0144062 0.0307643)
(0.966113 -0.0369726 0.00381028)
(0.979187 -0.0409164 -0.0225377)
(0.938996 -0.0156021 -0.0292698)
(0.888546 0.0127764 -0.0825556)
(0.916157 -0.00576704 -0.0849036)
(0.997652 -0.0206965 -0.020467)
(1.03929 0.00160921 0.0139945)
(1.01656 0.0114913 -0.00709673)
(0.922504 -0.000817838 -0.0299995)
(0.903837 -0.00166484 -0.0364152)
(0.920995 -0.0130285 -0.0433703)
(0.967075 -0.0337875 -0.0468845)
(0.959606 -0.0132207 -0.0575307)
(0.938942 0.0477117 -0.052549)
(0.966286 0.081231 -0.0681344)
(0.946606 0.0528362 -0.126157)
(0.99244 -0.0332981 -0.0900668)
(1.0293 -0.0656591 0.00637017)
(0.939141 -0.00368099 0.0337827)
(0.905706 0.0312612 0.00658362)
(1.02805 -0.0101959 0.0190522)
(1.11282 -0.0437928 0.0459009)
(1.0673 -0.0162996 0.0565044)
(0.975429 0.0220142 0.0860371)
(0.852441 0.0532957 0.0796688)
(0.741296 0.0830783 -0.0051809)
(0.746374 0.0709518 -0.0809866)
(0.826458 0.0196104 -0.0670881)
(0.878753 -0.00197507 -0.0229568)
(0.878057 0.00637156 -0.00662469)
(0.941356 0.00378898 0.000727455)
(0.956913 0.00124974 -0.0162553)
(0.900275 0.00298272 -0.0349672)
(0.92783 -0.00847452 0.0426565)
(0.921259 0.00526046 0.0986971)
(0.865063 0.0381379 -0.00190891)
(0.867565 0.0503114 -0.104141)
(0.895137 0.0433328 -0.123014)
(0.918548 0.0233318 -0.0733826)
(0.944574 -0.0053066 0.00048692)
(0.972631 -0.0211235 -0.0133481)
(0.999233 -0.0248226 -0.0358186)
(0.944962 -0.0061498 -0.0285602)
(0.844706 0.0218465 -0.0704326)
(0.866659 0.00595534 -0.0890947)
(0.967123 -0.0207837 -0.0438517)
(1.01679 -0.0126273 0.00316893)
(1.03001 0.0101376 0.00806416)
(0.955059 0.0114748 -0.0178197)
(0.957169 -0.00441779 -0.0316799)
(0.953009 -0.0312409 -0.0440456)
(0.984011 -0.0443394 -0.0574359)
(0.959942 -0.0106739 -0.0608845)
(0.905471 0.0441687 -0.0477231)
(0.954896 0.0739184 -0.0538482)
(0.973939 0.0491325 -0.102012)
(1.01415 -0.0287077 -0.0730599)
(1.03457 -0.0563338 0.0169435)
(0.911719 -0.00643586 0.0298188)
(0.923792 0.0116713 -0.00754365)
(1.11081 -0.0318103 0.00243391)
(1.18259 -0.0485728 0.0565207)
(1.0325 -0.00866142 0.0645099)
(0.849347 0.0387449 0.0523331)
(0.71805 0.0697135 0.0346997)
(0.653155 0.0832859 -0.0132947)
(0.686544 0.0613521 -0.05142)
(0.783629 0.0127606 -0.0293821)
(0.873678 -0.00679411 0.0252217)
(0.896449 -0.00270353 0.0336344)
(0.966046 -0.00833233 0.0238866)
(1.01247 0.000972117 0.0144298)
(0.958957 0.0109862 -0.0146126)
(0.953732 -0.00676964 0.027645)
(0.929662 0.00141442 0.0974758)
(0.876966 0.0385894 0.0324077)
(0.904215 0.0558448 -0.0844066)
(0.942994 0.0467194 -0.133501)
(0.94471 0.0234214 -0.101811)
(0.953989 -0.000877983 -0.0313942)
(0.975574 -0.00993112 -0.0227136)
(1.01415 -0.00867438 -0.0370412)
(0.968894 0.00992616 -0.0246229)
(0.835146 0.0304554 -0.0549497)
(0.8256 0.0079956 -0.0879075)
(0.940572 -0.0229368 -0.0737666)
(0.996429 -0.0203185 -0.0279264)
(0.989838 0.00783035 0.000133634)
(0.960564 0.0188806 -0.0160718)
(0.990345 -0.00341425 -0.017571)
(0.971773 -0.0375306 -0.0272353)
(0.971109 -0.0547045 -0.0529451)
(0.969598 -0.012647 -0.0699912)
(0.92046 0.0421728 -0.0700779)
(0.95664 0.0658288 -0.0545889)
(0.983244 0.0435864 -0.0529213)
(0.976459 -0.0233018 -0.0408486)
(1.0025 -0.0381362 0.00587549)
(0.965007 -2.44325e-05 0.027016)
(0.998598 -0.0133839 0.00804152)
(1.10187 -0.0622659 -0.00771986)
(1.10295 -0.0543694 0.0378558)
(0.952751 0.0115313 0.0699269)
(0.802292 0.0652197 0.0442359)
(0.7226 0.081607 0.017238)
(0.689867 0.0768788 -0.00090345)
(0.738455 0.0470386 -0.02735)
(0.818622 0.00132433 -0.0245962)
(0.892297 -0.0173525 0.0328133)
(0.916802 -0.0154774 0.0520694)
(0.958047 -0.0216432 0.0320331)
(1.01355 -0.00452492 0.0265248)
(1.00347 0.0140173 0.00436493)
(0.989212 -0.00298711 0.0202352)
(0.931075 0.00295124 0.0801023)
(0.868934 0.0357259 0.0506538)
(0.927252 0.0505623 -0.0529553)
(0.996817 0.0464809 -0.121599)
(0.976739 0.0236776 -0.11396)
(0.952087 -0.00239863 -0.0543934)
(0.96737 -0.00644575 -0.0239375)
(1.00632 0.0030216 -0.0287538)
(0.989935 0.0257573 -0.0223671)
(0.902617 0.0377425 -0.0429671)
(0.884142 0.00226303 -0.0706703)
(0.966808 -0.0302038 -0.075847)
(1.0173 -0.0205883 -0.0551083)
(0.994967 0.0115598 -0.0196057)
(0.978558 0.0213328 -0.0151444)
(0.98833 0.00154587 -0.00366977)
(0.976163 -0.0334402 -0.0118205)
(0.954747 -0.060454 -0.0439314)
(0.954877 -0.0234965 -0.0758787)
(0.953325 0.0363551 -0.082916)
(0.972605 0.0617697 -0.0489335)
(0.974901 0.0466314 -0.0231909)
(0.940294 -0.0127956 -0.0214008)
(0.948913 -0.0343699 -0.013631)
(0.98757 -0.00643769 -0.0052157)
(1.04549 -0.020958 0.00911535)
(1.08974 -0.0590412 0.00373309)
(1.03323 -0.0416821 0.0107715)
(0.921145 0.0204845 0.0609239)
(0.874985 0.0589489 0.0946223)
(0.879086 0.0655322 0.0887293)
(0.88947 0.0571233 0.0537439)
(0.911716 0.0315015 -0.000564205)
(0.920603 -0.000307771 -0.0226114)
(0.932644 -0.0150447 0.0245519)
(0.936042 -0.0185094 0.049114)
(0.940375 -0.027669 0.0281964)
(0.960276 -0.010936 0.0238688)
(0.97513 0.0116947 0.0121599)
(0.98496 0.00216499 0.0171061)
(0.932379 0.0126302 0.0574665)
(0.879938 0.0372966 0.0430538)
(0.935924 0.0418551 -0.0349454)
(1.00318 0.0388231 -0.100463)
(0.985924 0.0225615 -0.108237)
(0.95086 -0.00330278 -0.0590753)
(0.947207 -0.00693822 -0.0123668)
(0.969181 0.012995 -0.0106254)
(0.984072 0.0371701 -0.0217646)
(0.983504 0.0339966 -0.046949)
(0.979 -0.00850195 -0.0683929)
(1.00643 -0.0355941 -0.0669525)
(1.04586 -0.0171828 -0.0528484)
(1.03277 0.0153226 -0.0226434)
(1.00077 0.0222217 -0.00804543)
(0.969631 0.00487593 0.00683239)
(0.963767 -0.0322538 0.000904523)
(0.966547 -0.0620328 -0.0250229)
(0.962111 -0.0358342 -0.0572667)
(0.968569 0.0189289 -0.0698855)
(0.976444 0.0509381 -0.0476864)
(0.974274 0.0543157 -0.0360264)
(0.939675 0.0111993 -0.034315)
(0.914425 -0.0269947 -0.022847)
(0.959932 -0.0253363 -0.0272774)
(1.03939 -0.0344818 -0.0110544)
(1.08769 -0.0540944 0.0113786)
(1.03836 -0.0378474 0.00750566)
(0.965946 0.0039329 0.0404214)
(0.952221 0.0257836 0.100295)
(0.956233 0.0280226 0.118224)
(0.965989 0.0251959 0.0775713)
(0.973464 0.0124592 0.0130092)
(0.958199 -0.00459294 -0.017834)
(0.947614 -0.0108462 0.0178513)
(0.944843 -0.0136493 0.0465209)
(0.938671 -0.0212467 0.0285681)
(0.931921 -0.00888069 0.0163006)
(0.948633 0.00798268 0.0107077)
(0.96874 0.00164703 0.0175654)
(0.934429 0.0153175 0.0413174)
(0.902758 0.0385508 0.028753)
(0.938418 0.0403538 -0.0232234)
(0.982673 0.0348046 -0.0733955)
(0.977571 0.0183962 -0.0837554)
(0.956339 -0.00447719 -0.0435527)
(0.929702 -0.00322241 0.00390058)
(0.917541 0.0216643 0.01156)
(0.953519 0.0381562 -0.0105523)
(1.00703 0.0248263 -0.0480933)
(1.01114 -0.0105696 -0.0677734)
(0.994417 -0.0310629 -0.0542634)
(1.02189 -0.0139159 -0.0337209)
(1.04126 0.0204625 -0.0100522)
(1.00902 0.0280434 0.00150946)
(1.0077 0.0134301 0.00842833)
(0.980074 -0.0283297 0.0105575)
(0.991508 -0.0670454 -0.00329614)
(1.00266 -0.0491441 -0.0306097)
(1.00196 0.00575431 -0.0658454)
(0.979953 0.0465747 -0.074794)
(0.960216 0.059188 -0.0676944)
(0.953763 0.0239961 -0.0477326)
(0.942275 -0.02043 -0.0167917)
(0.952895 -0.0376722 -0.0231672)
(1.00092 -0.0462113 -0.0275721)
(1.06814 -0.0494344 0.00416838)
(1.07185 -0.0335567 0.0164398)
(1.01017 -0.00545789 0.0333333)
(0.964036 0.0105149 0.0838287)
(0.94203 0.00947361 0.115394)
(0.945568 0.00583139 0.0942899)
(0.962419 -0.00089829 0.0407295)
(0.965743 -0.00658807 -0.000980328)
(0.950435 -0.00709754 0.0120772)
(0.940949 -0.00973514 0.0416754)
(0.934817 -0.0164228 0.0343459)
(0.9201 -0.010494 0.0169537)
(0.933608 -0.000371403 0.0114693)
(0.963513 0.000330726 0.018562)
(0.946496 0.0201445 0.025237)
(0.91041 0.0459795 0.0106529)
(0.90805 0.0434838 -0.01157)
(0.932044 0.0276473 -0.0346826)
(0.942881 0.00984385 -0.0429433)
(0.943239 -0.00382627 -0.0221198)
(0.918067 0.003511 0.00860109)
(0.895266 0.0200905 0.023048)
(0.940972 0.0244185 0.0103548)
(0.998341 0.016261 -0.0274828)
(1.00323 -7.83729e-05 -0.0503428)
(0.977645 -0.01597 -0.0382361)
(0.99359 -0.0160169 -0.019035)
(1.04405 0.0088784 -0.00531726)
(1.04939 0.0284089 -0.000585154)
(1.07391 0.00794188 0.00631215)
(1.05373 -0.026933 0.0170178)
(1.03936 -0.0619869 0.00951665)
(1.03375 -0.0540538 -0.00842191)
(1.02859 -0.00233655 -0.0460803)
(1.00511 0.0487826 -0.0802565)
(0.977935 0.0618349 -0.0801866)
(0.97148 0.0210771 -0.0510727)
(0.974089 -0.0251404 -0.0134744)
(0.985251 -0.0422293 -0.0169371)
(1.00667 -0.047085 -0.0351202)
(1.04611 -0.0420684 -0.00902906)
(1.06537 -0.0273736 0.0144356)
(1.01704 -0.00515744 0.0262079)
(0.952132 0.00611131 0.0667303)
(0.925841 -0.008894 0.107933)
(0.937498 -0.0220403 0.11075)
(0.96057 -0.0226528 0.0721564)
(0.975398 -0.0142068 0.0215399)
(0.9679 -0.0014442 0.010319)
(0.95842 -0.000456492 0.0343167)
(0.952703 -0.00767991 0.0371914)
(0.929719 -0.00507352 0.0200699)
(0.920085 0.00109214 0.0156656)
(0.941792 0.00473794 0.0209664)
(0.938235 0.0301079 0.0104041)
(0.910833 0.0613508 -0.00621394)
(0.903525 0.0540565 0.000522075)
(0.914797 0.0213265 0.00643003)
(0.91625 -0.00811599 0.00069764)
(0.916711 -0.0158674 0.00244171)
(0.911737 -0.000363831 0.0151201)
(0.917564 0.00953693 0.028551)
(0.964626 0.0098124 0.0234825)
(0.989391 0.0133504 -0.0103013)
(0.981086 0.00820295 -0.0334121)
(0.976596 -0.00415388 -0.0214586)
(0.993575 -0.0106446 -0.00223436)
(1.03745 0.0048661 0.00458201)
(1.07157 0.022057 -0.000323442)
(1.07366 -0.00507926 0.0186025)
(1.07956 -0.0347523 0.0355903)
(1.0646 -0.0567629 0.0325113)
(1.04884 -0.0505152 0.0138917)
(1.03357 -0.0118877 -0.0102307)
(1.01296 0.0384848 -0.0493095)
(0.993753 0.0612186 -0.0781695)
(0.993972 0.0252014 -0.0675301)
(1.00253 -0.0240665 -0.0264566)
(1.00681 -0.0411462 -0.018934)
(1.01167 -0.0398893 -0.0414991)
(1.02357 -0.0350535 -0.0225787)
(1.03353 -0.0301811 0.0111687)
(1.00634 -0.0106672 0.0246998)
(0.963468 0.010068 0.0462947)
(0.951781 -0.00482572 0.0782191)
(0.959429 -0.0323041 0.0977485)
(0.975194 -0.0424923 0.0761722)
(0.991408 -0.0333687 0.0209615)
(1.00305 -0.0147083 -0.00482456)
(1.01003 -0.00730622 0.0192249)
(1.00395 -0.00875609 0.0321075)
(0.975528 -0.00558362 0.0170607)
(0.941386 0.000212311 0.0141173)
(0.935321 0.00592016 0.0239519)
(0.928052 0.0283777 0.0206336)
(0.907459 0.0569687 0.0173907)
(0.912961 0.0540652 0.034882)
(0.940799 0.0232407 0.0413183)
(0.953643 -0.0165603 0.0212678)
(0.949244 -0.0342654 0.00803322)
(0.944575 -0.0122617 0.0117385)
(0.955975 0.00426453 0.0233672)
(0.984438 0.00366552 0.0219833)
(0.994392 0.0123373 -0.018125)
(0.997526 0.0137679 -0.0474189)
(1.01489 0.00532515 -0.0202322)
(1.02827 0.0016905 0.0222644)
(1.03218 0.0123239 0.037142)
(1.04567 0.0178875 0.0222251)
(1.05369 -0.0249579 0.05063)
(1.06053 -0.0449343 0.0627107)
(1.05423 -0.0507644 0.0648633)
(1.06165 -0.0433774 0.042701)
(1.0567 -0.0215742 0.0145626)
(1.02704 0.010614 -0.0269697)
(0.99008 0.0347815 -0.0829828)
(0.983823 0.0143814 -0.0940877)
(1.01757 -0.0249427 -0.0420082)
(1.03728 -0.0421678 -0.0124215)
(1.02281 -0.037685 -0.0326595)
(1.00466 -0.0245694 -0.0287586)
(1.01004 -0.0257335 0.00819919)
(1.01182 -0.0296744 0.0366383)
(0.996191 -0.0138126 0.0492529)
(0.992295 -0.00316041 0.0581018)
(1.00158 -0.0115836 0.0758313)
(1.01489 -0.0354649 0.0720579)
(1.01362 -0.0525042 0.0248269)
(1.00323 -0.0406288 -0.0194256)
(1.00055 -0.0153074 -0.00885927)
(0.997872 0.00151624 0.0195598)
(0.973591 0.00864841 0.0164519)
(0.923504 0.0150654 0.0156206)
(0.894601 0.0156631 0.0336702)
(0.895633 0.0230147 0.032471)
(0.90272 0.0458949 0.00904812)
(0.930169 0.0514944 -0.000559496)
(0.959304 0.0301536 0.003657)
(0.974444 -0.00724657 0.00227083)
(0.984291 -0.0402497 0.00791669)
(0.989815 -0.0329431 0.010572)
(0.998185 -0.00767008 0.00892923)
(1.00189 0.00173098 0.0148447)
(0.996637 0.0102392 -0.0172269)
(1.00571 0.0143758 -0.0528824)
(1.02779 0.0121039 -0.0188526)
(1.03817 0.0162525 0.0425863)
(1.02728 0.024312 0.07154)
(1.02752 0.0106418 0.0607582)
(1.0606 -0.0423475 0.0762625)
(1.05329 -0.0597013 0.0796772)
(1.04106 -0.0571099 0.0784264)
(1.05228 -0.0494353 0.0494482)
(1.05777 -0.0301929 0.00400023)
(1.0279 -0.00510014 -0.0423756)
(0.982477 0.0105891 -0.0902033)
(0.967379 -0.00703818 -0.0958302)
(1.00368 -0.035068 -0.0392056)
(1.04637 -0.0413926 0.00662829)
(1.04784 -0.0406722 -0.00605286)
(1.01834 -0.0326094 -0.0219866)
(1.01423 -0.0232041 0.00234241)
(1.0375 -0.0211772 0.0404446)
(1.03864 -0.0186613 0.0581326)
(1.02676 -0.0201952 0.0481647)
(1.02598 -0.0189244 0.0436107)
(1.05689 -0.0222475 0.0570457)
(1.08544 -0.0394976 0.0530573)
(1.05829 -0.0502111 0.0124257)
(1.00456 -0.0388369 -0.018647)
(0.977561 -0.0184538 -0.00454195)
(0.969894 -0.00187043 0.0159264)
(0.946516 0.0188339 0.0290391)
(0.935845 0.0331538 0.0564766)
(0.947197 0.0295997 0.0713113)
(0.954446 0.0263086 0.0404326)
(0.983546 0.0266354 -0.00609973)
(1.00812 0.0192726 -0.0233357)
(1.00359 -0.00476517 -0.0159312)
(0.993293 -0.0301806 0.0078456)
(0.979648 -0.0245929 0.0270865)