/*--------------------------------*- C++ -*----------------------------------*\
  =========                 |
  \\      /  F ield         | OpenFOAM: The Open Source CFD Toolbox
   \\    /   O peration     | Website:  https://openfoam.org
    \\  /    A nd           | Version:  10
     \\/     M anipulation  |
\*---------------------------------------------------------------------------*/
FoamFile
{
    format      ascii;
    class       volScalarField;
    location    "37.5";
    object      pMean;
}
// * * * * * * * * * * * * * * * * * * * * * * * * * * * * * * * * * * * * * //

dimensions      [0 2 -2 0 0 0 0];

internalField   nonuniform List<scalar> 
25600
(
-2.26773e-07
-2.19184e-07
-1.94637e-07
-2.08597e-07
-1.91646e-07
-1.89537e-07
-1.8222e-07
-1.67542e-07
-1.53553e-07
-1.40662e-07
-1.23721e-07
-1.05964e-07
-9.15855e-08
-7.90381e-08
-7.24972e-08
-5.88971e-08
-7.50503e-08
-6.97341e-08
-8.07853e-08
-9.85481e-08
-1.0785e-07
-1.24408e-07
-1.44923e-07
-1.59629e-07
-1.71486e-07
-1.88859e-07
-1.91202e-07
-2.12403e-07
-2.06626e-07
-2.17198e-07
-2.26998e-07
-2.1781e-07
-2.30468e-07
-2.24403e-07
-2.37812e-07
-2.29433e-07
-2.41271e-07
-2.34103e-07
-2.25595e-07
-2.30402e-07
-2.4237e-07
-2.38841e-07
-2.0507e-07
-2.2286e-07
-1.99652e-07
-1.9847e-07
-1.95702e-07
-1.77293e-07
-1.67082e-07
-1.43434e-07
-1.29304e-07
-9.81462e-08
-8.44083e-08
-6.52714e-08
-5.68142e-08
-4.52548e-08
-5.49214e-08
-5.93806e-08
-6.78576e-08
-9.08246e-08
-1.04219e-07
-1.17322e-07
-1.44787e-07
-1.52769e-07
-1.7149e-07
-1.83761e-07
-1.90091e-07
-2.11027e-07
-2.01139e-07
-2.1878e-07
-2.17187e-07
-2.14937e-07
-2.20033e-07
-2.13084e-07
-2.27518e-07
-2.19172e-07
-2.37575e-07
-2.40002e-07
-2.47123e-07
-2.53014e-07
-2.44115e-07
-2.46225e-07
-2.23396e-07
-2.44942e-07
-2.1846e-07
-2.18735e-07
-2.14175e-07
-1.90208e-07
-1.80815e-07
-1.49784e-07
-1.33883e-07
-9.60498e-08
-7.73118e-08
-5.4052e-08
-4.37882e-08
-3.26366e-08
-3.63824e-08
-5.02797e-08
-5.47653e-08
-8.53909e-08
-1.0038e-07
-1.17128e-07
-1.47476e-07
-1.53939e-07
-1.78945e-07
-1.83002e-07
-1.97453e-07
-2.09656e-07
-2.00402e-07
-2.16655e-07
-2.05394e-07
-2.11507e-07
-2.04554e-07
-2.03454e-07
-2.14568e-07
-2.08792e-07
-2.28764e-07
-2.29833e-07
-2.39266e-07
-2.40284e-07
-2.64599e-07
-2.61543e-07
-2.46741e-07
-2.63264e-07
-2.34806e-07
-2.35541e-07
-2.30026e-07
-2.03723e-07
-1.94237e-07
-1.56993e-07
-1.34084e-07
-9.49406e-08
-6.63426e-08
-3.89024e-08
-2.62513e-08
-1.21635e-08
-1.72003e-08
-3.5895e-08
-4.10511e-08
-7.86048e-08
-9.60022e-08
-1.21275e-07
-1.49687e-07
-1.59932e-07
-1.86207e-07
-1.83364e-07
-2.02133e-07
-2.02799e-07
-1.9949e-07
-2.10804e-07
-1.94396e-07
-2.0467e-07
-1.85569e-07
-1.90188e-07
-1.96186e-07
-1.96246e-07
-2.19571e-07
-2.26447e-07
-2.44697e-07
-2.46983e-07
-2.77286e-07
-2.68969e-07
-2.62489e-07
-2.75381e-07
-2.50723e-07
-2.53797e-07
-2.50156e-07
-2.20245e-07
-2.10272e-07
-1.69411e-07
-1.34796e-07
-9.31833e-08
-4.87844e-08
-1.78348e-08
-4.54898e-09
1.39928e-08
2.47201e-09
-1.6968e-08
-3.04077e-08
-7.57729e-08
-9.83233e-08
-1.34743e-07
-1.5798e-07
-1.72962e-07
-1.94451e-07
-1.86173e-07
-2.04239e-07
-1.95366e-07
-1.96653e-07
-2.01305e-07
-1.83764e-07
-1.92525e-07
-1.63894e-07
-1.72752e-07
-1.75886e-07
-1.83813e-07
-2.12056e-07
-2.25208e-07
-2.49157e-07
-2.52402e-07
-2.90963e-07
-2.7889e-07
-2.76908e-07
-2.86513e-07
-2.65712e-07
-2.71092e-07
-2.69981e-07
-2.38868e-07
-2.29794e-07
-1.83663e-07
-1.35686e-07
-9.08416e-08
-2.869e-08
6.36341e-09
2.17225e-08
4.46464e-08
2.42231e-08
6.58765e-09
-2.19991e-08
-7.49416e-08
-1.06683e-07
-1.53809e-07
-1.7116e-07
-1.90859e-07
-2.04964e-07
-1.92842e-07
-2.06197e-07
-1.89879e-07
-1.94297e-07
-1.91279e-07
-1.73057e-07
-1.73583e-07
-1.37916e-07
-1.46315e-07
-1.5064e-07
-1.6945e-07
-2.05517e-07
-2.26903e-07
-2.5744e-07
-2.61844e-07
-3.03104e-07
-2.87539e-07
-2.85644e-07
-2.94135e-07
-2.78514e-07
-2.87788e-07
-2.92574e-07
-2.62056e-07
-2.51204e-07
-1.99851e-07
-1.36147e-07
-8.4041e-08
-2.02468e-09
3.83544e-08
5.7429e-08
8.08709e-08
4.66909e-08
2.63786e-08
-2.11033e-08
-8.28346e-08
-1.24779e-07
-1.76437e-07
-1.90552e-07
-2.10896e-07
-2.18973e-07
-2.01365e-07
-2.06178e-07
-1.82445e-07
-1.88038e-07
-1.78035e-07
-1.62278e-07
-1.4942e-07
-1.07199e-07
-1.11602e-07
-1.22214e-07
-1.52746e-07
-1.97791e-07
-2.29528e-07
-2.66037e-07
-2.74414e-07
-3.16126e-07
-2.95591e-07
-2.90559e-07
-2.9874e-07
-2.91427e-07
-3.07897e-07
-3.21862e-07
-2.87984e-07
-2.7394e-07
-2.13283e-07
-1.34224e-07
-7.02602e-08
3.3119e-08
8.0175e-08
1.01515e-07
1.19751e-07
7.11428e-08
4.36236e-08
-2.45072e-08
-9.79541e-08
-1.51104e-07
-2.06128e-07
-2.16158e-07
-2.34212e-07
-2.37903e-07
-2.15183e-07
-2.09117e-07
-1.78059e-07
-1.8179e-07
-1.65842e-07
-1.47475e-07
-1.15546e-07
-6.90555e-08
-6.91006e-08
-9.18786e-08
-1.37654e-07
-1.93724e-07
-2.32755e-07
-2.75604e-07
-2.88671e-07
-3.29217e-07
-3.00969e-07
-2.87505e-07
-2.94077e-07
-3.02665e-07
-3.30857e-07
-3.53092e-07
-3.11769e-07
-2.96118e-07
-2.23559e-07
-1.32158e-07
-5.13343e-08
7.55395e-08
1.30689e-07
1.49583e-07
1.554e-07
8.71656e-08
4.98166e-08
-4.07839e-08
-1.22934e-07
-1.83633e-07
-2.34533e-07
-2.41221e-07
-2.55346e-07
-2.6008e-07
-2.32107e-07
-2.09005e-07
-1.72517e-07
-1.76262e-07
-1.58255e-07
-1.27483e-07
-6.62673e-08
-1.55283e-08
-1.55015e-08
-6.21189e-08
-1.28029e-07
-1.93754e-07
-2.37264e-07
-2.84831e-07
-3.05037e-07
-3.46202e-07
-3.09972e-07
-2.82214e-07
-2.85759e-07
-3.15631e-07
-3.5753e-07
-3.85382e-07
-3.35788e-07
-3.1651e-07
-2.30216e-07
-1.24804e-07
-2.26681e-08
1.29407e-07
1.95002e-07
2.0711e-07
1.95167e-07
1.02744e-07
4.86081e-08
-7.19667e-08
-1.60866e-07
-2.27125e-07
-2.68003e-07
-2.73942e-07
-2.83341e-07
-2.91209e-07
-2.50063e-07
-2.04974e-07
-1.65102e-07
-1.70158e-07
-1.52217e-07
-1.03341e-07
-6.58167e-09
5.41203e-08
5.01274e-08
-2.97431e-08
-1.22451e-07
-1.96593e-07
-2.4252e-07
-2.97681e-07
-3.25797e-07
-3.66404e-07
-3.21677e-07
-2.76392e-07
-2.77498e-07
-3.31897e-07
-3.8822e-07
-4.18785e-07
-3.57458e-07
-3.34599e-07
-2.3676e-07
-1.19462e-07
1.18714e-08
1.98356e-07
2.77703e-07
2.75922e-07
2.35377e-07
1.1284e-07
3.50261e-08
-1.14954e-07
-2.08701e-07
-2.79179e-07
-3.05747e-07
-3.12353e-07
-3.14668e-07
-3.28174e-07
-2.69138e-07
-1.98204e-07
-1.536e-07
-1.6487e-07
-1.4514e-07
-7.18202e-08
7.02462e-08
1.41328e-07
1.25664e-07
4.27644e-09
-1.20629e-07
-2.01691e-07
-2.47441e-07
-3.07052e-07
-3.43682e-07
-3.93066e-07
-3.35081e-07
-2.619e-07
-2.59277e-07
-3.46133e-07
-4.23045e-07
-4.57401e-07
-3.79059e-07
-3.44166e-07
-2.35859e-07
-1.07547e-07
5.4448e-08
2.84865e-07
3.76321e-07
3.43826e-07
2.67836e-07
1.13643e-07
1.3775e-08
-1.67407e-07
-2.68181e-07
-3.41639e-07
-3.49184e-07
-3.59131e-07
-3.58852e-07
-3.77931e-07
-2.86886e-07
-1.85179e-07
-1.37245e-07
-1.64214e-07
-1.39645e-07
-2.84985e-08
1.72185e-07
2.50282e-07
2.03988e-07
3.10919e-08
-1.26981e-07
-2.05316e-07
-2.46508e-07
-3.10514e-07
-3.63032e-07
-4.29989e-07
-3.49486e-07
-2.39902e-07
-2.365e-07
-3.67972e-07
-4.6909e-07
-5.02951e-07
-3.99697e-07
-3.39442e-07
-2.25022e-07
-8.63425e-08
1.06475e-07
3.97837e-07
4.9476e-07
4.14514e-07
2.91113e-07
1.01733e-07
-1.37022e-08
-2.25519e-07
-3.36182e-07
-4.11068e-07
-3.89335e-07
-4.11814e-07
-4.10444e-07
-4.39551e-07
-3.02526e-07
-1.64185e-07
-1.20163e-07
-1.81218e-07
-1.38854e-07
2.93621e-08
3.03482e-07
3.83504e-07
2.85726e-07
4.98626e-08
-1.3848e-07
-2.05687e-07
-2.41689e-07
-3.19851e-07
-3.96011e-07
-4.78055e-07
-3.65656e-07
-2.12331e-07
-2.14577e-07
-3.99712e-07
-5.25889e-07
-5.4655e-07
-4.05732e-07
-3.15452e-07
-2.06384e-07
-5.48961e-08
1.69611e-07
5.3281e-07
6.19644e-07
4.77473e-07
3.0192e-07
8.18311e-08
-4.43114e-08
-2.87698e-07
-4.05157e-07
-4.8108e-07
-4.22127e-07
-4.74025e-07
-4.76429e-07
-5.24606e-07
-3.1963e-07
-1.33655e-07
-1.02865e-07
-2.18916e-07
-1.37085e-07
1.12172e-07
4.72778e-07
5.42712e-07
3.61097e-07
5.77759e-08
-1.55196e-07
-2.00259e-07
-2.31565e-07
-3.20914e-07
-4.36249e-07
-5.38622e-07
-3.84131e-07
-1.85403e-07
-2.01946e-07
-4.47837e-07
-5.89016e-07
-5.88558e-07
-3.91089e-07
-2.67652e-07
-1.82643e-07
-1.7632e-08
2.41347e-07
6.87e-07
7.41874e-07
5.35819e-07
3.06454e-07
6.81362e-08
-7.83248e-08
-3.53769e-07
-4.74195e-07
-5.44567e-07
-4.47812e-07
-5.49975e-07
-5.5391e-07
-6.2322e-07
-3.16844e-07
-8.77687e-08
-9.41277e-08
-2.92351e-07
-1.32521e-07
2.26158e-07
6.86012e-07
7.04331e-07
4.19472e-07
4.87844e-08
-1.79829e-07
-1.89752e-07
-2.26323e-07
-3.28445e-07
-4.95062e-07
-6.00348e-07
-4.06173e-07
-1.5712e-07
-2.04565e-07
-5.11585e-07
-6.54161e-07
-6.15633e-07
-3.3809e-07
-2.05797e-07
-1.72712e-07
2.15127e-08
3.14809e-07
8.60472e-07
8.65174e-07
5.81614e-07
2.98598e-07
5.28239e-08
-1.24172e-07
-4.25603e-07
-5.34349e-07
-5.91278e-07
-4.59762e-07
-6.49337e-07
-6.33798e-07
-7.11846e-07
-2.70033e-07
-2.14192e-08
-1.13532e-07
-4.14259e-07
-1.08583e-07
3.87903e-07
9.47068e-07
8.62678e-07
4.52189e-07
4.65732e-08
-1.87974e-07
-1.55387e-07
-2.30909e-07
-3.48331e-07
-5.82884e-07
-6.59579e-07
-4.47822e-07
-1.39542e-07
-2.45456e-07
-5.83402e-07
-7.30398e-07
-6.35671e-07
-2.45332e-07
-1.33845e-07
-1.77733e-07
7.37754e-08
3.90054e-07
1.08136e-06
9.85949e-07
6.29635e-07
2.79389e-07
1.95008e-08
-1.95951e-07
-4.97269e-07
-5.70259e-07
-6.07906e-07
-4.86644e-07
-8.09782e-07
-7.18389e-07
-7.9416e-07
-1.46004e-07
2.19772e-08
-1.9582e-07
-6.04426e-07
-5.8529e-08
5.91943e-07
1.25036e-06
9.5909e-07
4.61782e-07
5.99549e-08
-1.74806e-07
-1.06578e-07
-2.65012e-07
-3.93915e-07
-6.98826e-07
-7.01943e-07
-5.10048e-07
-1.58887e-07
-3.28195e-07
-6.46904e-07
-8.12364e-07
-6.47932e-07
-1.51542e-07
-5.93028e-08
-2.16908e-07
1.52773e-07
4.22462e-07
1.33122e-06
1.06359e-06
6.93161e-07
2.54001e-07
-3.62802e-08
-3.35665e-07
-5.43114e-07
-5.44665e-07
-5.54142e-07
-5.40397e-07
-1.03055e-06
-7.60919e-07
-7.88885e-07
7.49816e-08
2.08084e-08
-3.74156e-07
-8.44353e-07
5.96205e-08
8.40555e-07
1.57676e-06
9.38745e-07
4.69301e-07
1.1407e-07
-1.0611e-07
-6.90752e-08
-3.38523e-07
-4.87025e-07
-8.05837e-07
-7.54617e-07
-6.14322e-07
-2.62919e-07
-4.43557e-07
-6.90809e-07
-8.74705e-07
-6.74638e-07
9.91579e-09
-3.60033e-08
-2.5999e-07
2.41116e-07
4.35319e-07
1.59931e-06
1.09707e-06
7.76772e-07
1.88964e-07
-1.24979e-07
-5.9999e-07
-5.64195e-07
-5.15662e-07
-4.29805e-07
-6.98207e-07
-1.30502e-06
-7.90074e-07
-6.9478e-07
3.67552e-07
-1.32457e-07
-6.90779e-07
-1.13781e-06
2.44247e-07
1.12992e-06
1.87963e-06
7.40536e-07
5.26277e-07
2.57527e-07
4.4775e-08
-8.14261e-08
-4.96273e-07
-6.63362e-07
-8.80422e-07
-8.11511e-07
-7.97376e-07
-4.18897e-07
-6.27139e-07
-7.55103e-07
-9.67783e-07
-7.56081e-07
2.74136e-07
-7.777e-08
-2.48946e-07
3.49534e-07
3.74906e-07
1.88488e-06
1.10289e-06
1.03101e-06
1.53358e-07
-2.61187e-07
-8.9535e-07
-4.9331e-07
-3.26175e-07
-2.0334e-07
-1.00592e-06
-1.55938e-06
-7.2358e-07
-3.5508e-07
7.53721e-07
-3.80454e-07
-1.13593e-06
-1.38772e-06
5.25687e-07
1.45313e-06
2.0866e-06
3.56994e-07
6.8576e-07
5.18624e-07
2.49468e-07
-1.3888e-07
-7.2293e-07
-8.61158e-07
-9.33591e-07
-9.06751e-07
-9.81146e-07
-5.93813e-07
-6.52468e-07
-5.81696e-07
-9.92764e-07
-7.74237e-07
6.53222e-07
-1.33751e-07
-3.24493e-08
4.70292e-07
3.49962e-07
2.08784e-06
1.17233e-06
1.14563e-06
1.47942e-07
-5.07137e-07
-1.25218e-06
-3.16874e-07
-3.85626e-08
1.90136e-07
-1.48264e-06
-1.70572e-06
-6.04011e-07
1.12142e-07
1.13648e-06
-7.68951e-07
-1.65237e-06
-1.50388e-06
9.38638e-07
1.86016e-06
2.16235e-06
-1.34795e-07
1.14516e-06
8.892e-07
5.72753e-07
-1.92371e-07
-9.45394e-07
-9.68205e-07
-7.5457e-07
-6.72717e-07
-1.05434e-06
-4.29836e-07
-5.95737e-07
-2.80389e-07
-1.07044e-06
-5.63443e-07
1.1532e-06
-1.78657e-07
6.0093e-07
7.47535e-07
5.55579e-07
2.5138e-06
1.31578e-06
2.1333e-06
2.50272e-07
-6.1608e-07
-1.14619e-06
3.24985e-07
7.91648e-07
6.0396e-07
-1.78539e-06
-1.52005e-06
4.81929e-08
1.25823e-06
1.59376e-06
-1.2034e-06
-2.0875e-06
-1.20279e-06
1.72326e-06
2.65954e-06
2.25895e-06
-4.43739e-07
2.09875e-06
1.57666e-06
1.05522e-06
-1.22562e-07
-1.09815e-06
-8.3734e-07
-1.64129e-07
-6.51867e-07
-9.53626e-07
-1.83988e-07
4.24265e-07
7.54443e-07
-8.52681e-07
-5.58408e-08
1.97559e-06
1.08482e-07
1.40509e-06
1.24382e-06
1.07441e-06
3.43155e-06
1.95804e-06
2.49186e-06
7.39285e-07
-9.30821e-07
-1.23354e-06
8.93902e-07
1.91596e-06
1.26754e-06
-2.42218e-06
-1.11906e-06
7.27105e-07
2.75029e-06
2.62466e-06
-1.36997e-06
-2.11294e-06
-7.71375e-07
2.64826e-06
3.79466e-06
2.45129e-06
-3.25989e-07
3.43071e-06
2.47936e-06
2.01949e-06
3.34773e-08
-1.08746e-06
-3.21207e-07
5.58249e-07
-4.73495e-07
-6.24281e-07
5.33814e-07
8.62041e-07
1.67287e-06
-2.9121e-07
1.16224e-06
2.39574e-06
4.37696e-07
2.71739e-06
1.94108e-06
1.76573e-06
4.06516e-06
2.71171e-06
4.34598e-06
7.70281e-07
-8.72479e-07
-5.83793e-07
2.23645e-06
3.17179e-06
1.92855e-06
-2.49236e-06
-4.93899e-07
1.89285e-06
4.42809e-06
3.31322e-06
-1.36158e-06
-2.05472e-06
5.19421e-07
4.13717e-06
5.26377e-06
2.57214e-06
-1.96375e-07
5.36548e-06
3.43557e-06
2.70288e-06
6.13412e-07
-1.22481e-06
5.86096e-07
1.55638e-06
-1.04042e-06
-4.59042e-07
4.92895e-07
3.34788e-06
3.88027e-06
-7.68105e-07
1.87038e-06
3.14125e-06
1.39024e-06
3.78764e-06
2.23659e-06
1.97808e-06
4.91263e-06
3.25722e-06
5.14344e-06
5.26331e-07
-1.62022e-06
-7.4799e-07
2.81291e-06
5.22617e-06
2.42074e-06
-2.8924e-06
-1.37857e-07
2.87046e-06
6.05081e-06
4.08598e-06
-2.23146e-06
-1.98693e-06
5.70264e-07
5.38498e-06
6.31553e-06
1.63041e-06
-1.59029e-08
6.95945e-06
4.57642e-06
2.99926e-06
-1.87994e-07
-1.62622e-06
2.75511e-07
2.26998e-06
-1.93618e-06
-1.13327e-06
9.82818e-07
3.4328e-06
3.91503e-06
-2.07114e-07
1.66429e-06
3.20708e-06
1.92736e-06
4.53479e-06
1.72285e-06
2.53451e-06
5.65099e-06
3.87801e-06
6.37487e-06
4.19282e-07
-2.99049e-06
-9.01524e-07
4.37506e-06
6.67405e-06
1.41581e-06
-4.6381e-06
-1.3858e-08
2.92392e-06
7.37118e-06
4.31619e-06
-2.01225e-06
-2.16139e-06
9.14508e-07
6.84351e-06
6.68838e-06
1.09159e-06
2.70326e-07
8.73601e-06
4.39414e-06
2.98729e-06
-5.91512e-07
-1.88191e-06
2.07434e-06
2.43892e-06
-3.01987e-06
-7.44321e-07
7.20175e-07
4.04861e-06
5.23474e-06
-6.68869e-07
1.94255e-06
3.66291e-06
2.11678e-06
5.00333e-06
1.51847e-06
1.61352e-06
5.60703e-06
3.42788e-06
6.38604e-06
-3.57629e-07
-2.87967e-06
-1.08397e-06
4.21063e-06
7.85372e-06
1.67616e-06
-5.19279e-06
1.91654e-09
3.0334e-06
7.95175e-06
4.55272e-06
-2.98523e-06
-2.54119e-06
8.87557e-07
6.94933e-06
6.78521e-06
5.35831e-07
4.47467e-07
9.66764e-06
3.80963e-06
2.65309e-06
2.00819e-07
-1.83366e-06
1.44254e-06
2.48478e-06
-3.78657e-06
-9.12036e-07
5.12887e-07
4.02403e-06
4.69513e-06
-1.59662e-06
1.58048e-06
3.5244e-06
2.20547e-06
5.35377e-06
4.94516e-07
1.342e-06
5.77039e-06
3.16992e-06
6.60445e-06
-3.18694e-07
-4.38683e-06
-1.59479e-06
4.22552e-06
8.42185e-06
7.56724e-07
-6.07827e-06
-2.18414e-07
3.10649e-06
7.98654e-06
4.44667e-06
-2.79068e-06
-2.56049e-06
3.31258e-07
7.10401e-06
6.12763e-06
-5.39354e-08
5.42919e-07
1.03794e-05
3.31509e-06
2.21555e-06
-3.53247e-07
-1.92433e-06
2.26976e-06
2.48513e-06
-4.22197e-06
-9.01395e-07
5.57818e-07
3.57756e-06
4.42816e-06
-1.4768e-06
1.78596e-06
3.6196e-06
2.18119e-06
4.97321e-06
2.50118e-07
1.19106e-06
5.83872e-06
3.03351e-06
6.25889e-06
-8.56093e-07
-4.60916e-06
-1.76498e-06
3.9498e-06
8.41661e-06
9.93899e-07
-6.47674e-06
-2.50696e-07
2.29412e-06
7.74667e-06
4.46928e-06
-2.67788e-06
-2.79749e-06
-3.00578e-07
6.83798e-06
6.61879e-06
-2.94172e-07
5.44877e-07
1.06853e-05
2.82127e-06
1.80151e-06
2.61183e-07
-1.81663e-06
1.92143e-06
2.34957e-06
-4.42816e-06
-5.53028e-07
4.63904e-07
3.33841e-06
4.25839e-06
-1.89687e-06
1.89615e-06
3.64151e-06
1.57511e-06
4.73238e-06
2.92809e-07
1.19825e-06
5.83985e-06
2.60048e-06
6.0881e-06
-9.74337e-07
-4.67281e-06
-1.81277e-06
3.68542e-06
8.27527e-06
8.3748e-07
-6.7237e-06
-2.35919e-07
1.99266e-06
7.62205e-06
4.53692e-06
-2.48878e-06
-2.79248e-06
-6.08971e-07
6.70451e-06
6.47906e-06
-3.633e-07
6.55636e-07
1.07211e-05
2.51328e-06
1.53435e-06
2.07552e-07
-1.81939e-06
1.81996e-06
2.14483e-06
-4.58856e-06
-5.53167e-07
5.34839e-07
3.0701e-06
4.18461e-06
-1.85465e-06
2.04349e-06
3.74073e-06
1.56512e-06
4.59544e-06
1.63211e-07
1.29596e-06
5.82063e-06
2.40813e-06
5.88457e-06
-1.07658e-06
-4.42744e-06
-1.97136e-06
3.51497e-06
8.30112e-06
7.86755e-07
-6.5359e-06
-1.20195e-07
1.79219e-06
7.5453e-06
4.60862e-06
-2.3828e-06
-3.028e-06
-6.85879e-07
6.7393e-06
6.56005e-06
-3.68716e-07
7.31022e-07
1.06025e-05
2.36115e-06
1.47361e-06
1.70476e-07
-1.94257e-06
1.83681e-06
1.86455e-06
-4.67885e-06
-5.54817e-07
4.57671e-07
2.95279e-06
4.19741e-06
-1.87866e-06
2.13383e-06
3.79138e-06
1.59303e-06
4.50133e-06
1.00912e-07
1.34751e-06
5.83073e-06
2.36949e-06
5.88382e-06
-1.21124e-06
-4.37585e-06
-1.99262e-06
3.58966e-06
8.36502e-06
7.34297e-07
-6.41454e-06
-4.25388e-08
1.7216e-06
7.62692e-06
4.74762e-06
-2.3663e-06
-3.17597e-06
-6.81098e-07
6.73275e-06
6.65281e-06
-3.66832e-07
7.24867e-07
1.04774e-05
2.38798e-06
1.45877e-06
7.37372e-08
-2.06605e-06
1.8862e-06
1.64168e-06
-2.25399e-07
-2.23468e-07
-1.979e-07
-2.10402e-07
-1.91432e-07
-1.88002e-07
-1.81379e-07
-1.66018e-07
-1.53189e-07
-1.41004e-07
-1.22024e-07
-1.06785e-07
-8.90648e-08
-7.82804e-08
-7.10846e-08
-5.60813e-08
-7.31173e-08
-6.56375e-08
-7.65559e-08
-9.4135e-08
-1.04534e-07
-1.2028e-07
-1.42363e-07
-1.5596e-07
-1.70932e-07
-1.87322e-07
-1.92068e-07
-2.14529e-07
-2.09569e-07
-2.23548e-07
-2.32723e-07
-2.25755e-07
-2.38166e-07
-2.31599e-07
-2.44652e-07
-2.34132e-07
-2.44733e-07
-2.35629e-07
-2.27089e-07
-2.29077e-07
-2.37138e-07
-2.3984e-07
-2.07012e-07
-2.24653e-07
-1.99447e-07
-1.98144e-07
-1.94608e-07
-1.75003e-07
-1.65891e-07
-1.43331e-07
-1.29073e-07
-9.87041e-08
-8.23117e-08
-6.36888e-08
-5.42486e-08
-4.28765e-08
-5.21588e-08
-5.64855e-08
-6.30652e-08
-8.78958e-08
-1.01818e-07
-1.15053e-07
-1.4323e-07
-1.51459e-07
-1.71357e-07
-1.84534e-07
-1.92785e-07
-2.1565e-07
-2.08053e-07
-2.26881e-07
-2.25568e-07
-2.2396e-07
-2.28458e-07
-2.19715e-07
-2.35029e-07
-2.23737e-07
-2.415e-07
-2.38333e-07
-2.41224e-07
-2.42408e-07
-2.45689e-07
-2.45681e-07
-2.20424e-07
-2.43365e-07
-2.1591e-07
-2.17004e-07
-2.10913e-07
-1.85345e-07
-1.77496e-07
-1.4532e-07
-1.31284e-07
-9.26944e-08
-7.48161e-08
-4.95328e-08
-3.80102e-08
-2.68829e-08
-3.11873e-08
-4.63151e-08
-5.11727e-08
-8.44917e-08
-9.88889e-08
-1.1602e-07
-1.44513e-07
-1.53797e-07
-1.77348e-07
-1.84316e-07
-1.98858e-07
-2.13027e-07
-2.08323e-07
-2.25376e-07
-2.1552e-07
-2.21344e-07
-2.13202e-07
-2.11701e-07
-2.22128e-07
-2.15176e-07
-2.33637e-07
-2.33294e-07
-2.43401e-07
-2.40583e-07
-2.63781e-07
-2.56495e-07
-2.41103e-07
-2.61352e-07
-2.31715e-07
-2.34444e-07
-2.25883e-07
-1.98256e-07
-1.89082e-07
-1.5121e-07
-1.29845e-07
-8.82826e-08
-6.08489e-08
-3.03059e-08
-1.7233e-08
-3.76712e-09
-1.10233e-08
-3.28114e-08
-4.19481e-08
-8.10738e-08
-9.70433e-08
-1.22199e-07
-1.4729e-07
-1.61645e-07
-1.84226e-07
-1.86142e-07
-2.0619e-07
-2.09489e-07
-2.12106e-07
-2.20922e-07
-2.06845e-07
-2.14474e-07
-1.92926e-07
-1.98398e-07
-2.03276e-07
-2.04601e-07
-2.25704e-07
-2.31453e-07
-2.49368e-07
-2.46584e-07
-2.76829e-07
-2.61361e-07
-2.54928e-07
-2.71068e-07
-2.43797e-07
-2.5099e-07
-2.44161e-07
-2.15068e-07
-2.04821e-07
-1.61518e-07
-1.27083e-07
-8.35045e-08
-4.11254e-08
-7.77267e-09
7.03316e-09
2.29639e-08
7.45003e-09
-1.88886e-08
-3.89015e-08
-8.36008e-08
-1.0192e-07
-1.34764e-07
-1.52951e-07
-1.72283e-07
-1.89832e-07
-1.8814e-07
-2.09779e-07
-2.0336e-07
-2.13568e-07
-2.11992e-07
-1.9577e-07
-2.01207e-07
-1.69938e-07
-1.82e-07
-1.84318e-07
-1.94843e-07
-2.20162e-07
-2.32829e-07
-2.56518e-07
-2.53009e-07
-2.9108e-07
-2.68958e-07
-2.66003e-07
-2.76953e-07
-2.54277e-07
-2.66716e-07
-2.6433e-07
-2.35075e-07
-2.23524e-07
-1.70743e-07
-1.21636e-07
-7.50002e-08
-1.57224e-08
1.8722e-08
3.50346e-08
5.17454e-08
2.30437e-08
-8.1522e-09
-4.27608e-08
-9.01438e-08
-1.13161e-07
-1.51297e-07
-1.6196e-07
-1.85629e-07
-1.96046e-07
-1.9305e-07
-2.12086e-07
-2.00074e-07
-2.13614e-07
-2.01331e-07
-1.81534e-07
-1.78877e-07
-1.4163e-07
-1.57625e-07
-1.63109e-07
-1.85798e-07
-2.18681e-07
-2.3807e-07
-2.66034e-07
-2.64055e-07
-3.02289e-07
-2.77845e-07
-2.73123e-07
-2.78914e-07
-2.63532e-07
-2.82248e-07
-2.87797e-07
-2.57389e-07
-2.42282e-07
-1.81261e-07
-1.14588e-07
-6.23984e-08
1.4738e-08
5.10558e-08
6.71055e-08
7.822e-08
3.09504e-08
-6.63436e-09
-5.64417e-08
-1.04152e-07
-1.30724e-07
-1.68915e-07
-1.75919e-07
-1.99058e-07
-2.02127e-07
-1.94313e-07
-2.07863e-07
-1.93668e-07
-2.08927e-07
-1.88903e-07
-1.65604e-07
-1.50017e-07
-1.09453e-07
-1.26677e-07
-1.41102e-07
-1.74651e-07
-2.14646e-07
-2.40181e-07
-2.72138e-07
-2.74539e-07
-3.16566e-07
-2.89439e-07
-2.76437e-07
-2.75103e-07
-2.70491e-07
-2.97761e-07
-3.17762e-07
-2.86055e-07
-2.66649e-07
-1.90834e-07
-1.04507e-07
-4.19376e-08
5.53433e-08
9.35935e-08
1.07038e-07
1.07378e-07
3.91379e-08
-8.16389e-09
-7.62972e-08
-1.2675e-07
-1.5523e-07
-1.91269e-07
-1.93445e-07
-2.12712e-07
-2.06694e-07
-1.91987e-07
-1.98024e-07
-1.84541e-07
-1.98227e-07
-1.73272e-07
-1.47528e-07
-1.16972e-07
-7.70797e-08
-9.53716e-08
-1.20741e-07
-1.66775e-07
-2.15895e-07
-2.47847e-07
-2.82947e-07
-2.8909e-07
-3.25933e-07
-2.94295e-07
-2.6906e-07
-2.6409e-07
-2.75688e-07
-3.15748e-07
-3.52729e-07
-3.18511e-07
-2.9272e-07
-1.99346e-07
-9.19394e-08
-1.21753e-08
1.04145e-07
1.43767e-07
1.47053e-07
1.3413e-07
4.00514e-08
-1.78199e-08
-1.04868e-07
-1.60049e-07
-1.90323e-07
-2.19389e-07
-2.15818e-07
-2.26486e-07
-2.10279e-07
-1.85598e-07
-1.79738e-07
-1.70391e-07
-1.8337e-07
-1.5704e-07
-1.22854e-07
-7.11313e-08
-3.21439e-08
-5.20226e-08
-1.0057e-07
-1.66143e-07
-2.25386e-07
-2.62006e-07
-2.97509e-07
-3.0527e-07
-3.35471e-07
-2.98568e-07
-2.55286e-07
-2.52004e-07
-2.84912e-07
-3.44989e-07
-4.00867e-07
-3.57468e-07
-3.14396e-07
-1.95193e-07
-6.5087e-08
3.26227e-08
1.67897e-07
2.05683e-07
1.90031e-07
1.55824e-07
3.29452e-08
-3.50845e-08
-1.39865e-07
-2.01245e-07
-2.33642e-07
-2.51276e-07
-2.40287e-07
-2.35682e-07
-2.10211e-07
-1.71127e-07
-1.5153e-07
-1.48392e-07
-1.67271e-07
-1.47437e-07
-1.01243e-07
-2.16785e-08
2.31316e-08
-1.78014e-09
-8.17211e-08
-1.71268e-07
-2.45074e-07
-2.86428e-07
-3.21654e-07
-3.25822e-07
-3.35223e-07
-2.90405e-07
-2.3012e-07
-2.35392e-07
-3.00125e-07
-3.91519e-07
-4.66209e-07
-4.06675e-07
-3.40268e-07
-1.89116e-07
-2.94202e-08
9.09474e-08
2.4567e-07
2.77772e-07
2.36398e-07
1.69147e-07
1.47518e-08
-6.54098e-08
-1.83141e-07
-2.53108e-07
-2.88379e-07
-2.89325e-07
-2.68288e-07
-2.40609e-07
-2.08897e-07
-1.50885e-07
-1.14214e-07
-1.18716e-07
-1.52111e-07
-1.38816e-07
-7.63816e-08
3.9867e-08
9.27899e-08
5.69919e-08
-6.4629e-08
-1.85376e-07
-2.7012e-07
-3.10521e-07
-3.3931e-07
-3.34583e-07
-3.29816e-07
-2.69349e-07
-1.92795e-07
-2.10214e-07
-3.22279e-07
-4.54453e-07
-5.41324e-07
-4.57969e-07
-3.64057e-07
-1.79604e-07
1.16058e-08
1.60468e-07
3.41351e-07
3.61666e-07
2.88064e-07
1.78367e-07
-1.23611e-08
-1.07069e-07
-2.38342e-07
-3.14757e-07
-3.47604e-07
-3.23561e-07
-2.92128e-07
-2.3885e-07
-2.02778e-07
-1.1779e-07
-6.74915e-08
-8.83429e-08
-1.50822e-07
-1.42477e-07
-4.97341e-08
1.16222e-07
1.74269e-07
1.12538e-07
-6.14977e-08
-2.17127e-07
-3.02901e-07
-3.41454e-07
-3.57671e-07
-3.41064e-07
-3.20817e-07
-2.40038e-07
-1.45788e-07
-1.80308e-07
-3.56619e-07
-5.36864e-07
-6.25468e-07
-5.0769e-07
-3.80881e-07
-1.61719e-07
6.08718e-08
2.42088e-07
4.59335e-07
4.60694e-07
3.4151e-07
1.75361e-07
-4.45156e-08
-1.61866e-07
-3.16231e-07
-3.95589e-07
-4.15204e-07
-3.57108e-07
-3.23031e-07
-2.35312e-07
-1.95067e-07
-7.38126e-08
-1.32897e-08
-6.24949e-08
-1.67191e-07
-1.51518e-07
-8.12917e-09
2.15817e-07
2.74979e-07
1.72366e-07
-6.18754e-08
-2.598e-07
-3.43672e-07
-3.79235e-07
-3.78197e-07
-3.47007e-07
-3.13013e-07
-2.1063e-07
-1.05127e-07
-1.60298e-07
-4.13608e-07
-6.45889e-07
-7.11721e-07
-5.49309e-07
-3.86196e-07
-1.32262e-07
1.28017e-07
3.44124e-07
6.1033e-07
5.7864e-07
4.03177e-07
1.61469e-07
-8.17258e-08
-2.39087e-07
-4.19404e-07
-4.96648e-07
-4.88067e-07
-3.91034e-07
-3.64152e-07
-2.32216e-07
-1.85021e-07
-6.60687e-09
4.12914e-08
-4.96383e-08
-2.14953e-07
-1.6296e-07
5.41346e-08
3.43797e-07
3.89862e-07
2.2647e-07
-7.0825e-08
-3.08397e-07
-3.87076e-07
-4.20336e-07
-4.01613e-07
-3.54513e-07
-2.9695e-07
-1.81039e-07
-6.72661e-08
-1.41049e-07
-4.94708e-07
-7.85247e-07
-8.09407e-07
-5.93274e-07
-3.99959e-07
-9.91823e-08
2.07646e-07
4.58319e-07
7.91064e-07
7.15013e-07
4.73824e-07
1.44243e-07
-1.13203e-07
-3.4841e-07
-5.40597e-07
-6.03517e-07
-5.51919e-07
-4.34789e-07
-4.32002e-07
-2.3888e-07
-1.77956e-07
8.15613e-08
8.32709e-08
-7.07145e-08
-3.06047e-07
-1.67325e-07
1.53159e-07
4.9927e-07
5.04694e-07
2.64519e-07
-8.61065e-08
-3.59096e-07
-4.3432e-07
-4.75126e-07
-4.3269e-07
-3.54108e-07
-2.7275e-07
-1.69737e-07
-4.99036e-08
-1.31753e-07
-5.98079e-07
-9.47127e-07
-9.10646e-07
-6.41339e-07
-4.00443e-07
-3.73411e-08
3.10709e-07
5.88634e-07
9.95267e-07
8.59472e-07
5.4078e-07
1.07109e-07
-1.53888e-07
-5.24682e-07
-6.93245e-07
-7.0602e-07
-5.83399e-07
-4.83667e-07
-5.21402e-07
-2.39776e-07
-1.60516e-07
2.04024e-07
9.02766e-08
-1.3863e-07
-4.46893e-07
-1.39415e-07
2.96626e-07
6.77636e-07
5.8677e-07
2.71604e-07
-9.52049e-08
-4.03804e-07
-4.90088e-07
-5.59135e-07
-4.6247e-07
-3.39371e-07
-2.66415e-07
-2.03083e-07
-6.96805e-08
-1.30109e-07
-7.17316e-07
-1.13049e-06
-1.02179e-06
-7.14758e-07
-4.00829e-07
5.83041e-08
4.34646e-07
7.2079e-07
1.22852e-06
1.01155e-06
6.25699e-07
8.2057e-08
-1.93346e-07
-7.98088e-07
-8.76162e-07
-8.08864e-07
-5.88232e-07
-6.05261e-07
-6.80111e-07
-2.46855e-07
-1.23201e-07
3.49226e-07
6.45939e-10
-2.88293e-07
-6.31901e-07
-2.001e-08
4.96044e-07
8.56388e-07
6.07679e-07
2.62202e-07
-7.299e-08
-4.3977e-07
-5.89238e-07
-6.97401e-07
-4.93722e-07
-3.09743e-07
-3.0952e-07
-3.1397e-07
-1.54989e-07
-1.10323e-07
-8.57525e-07
-1.33586e-06
-1.15832e-06
-8.27189e-07
-3.84586e-07
2.29964e-07
5.85054e-07
8.20191e-07
1.45739e-06
1.14752e-06
7.37626e-07
5.0638e-08
-2.44512e-07
-1.24039e-06
-1.02047e-06
-8.40689e-07
-5.22973e-07
-8.42218e-07
-8.93019e-07
-2.38086e-07
-2.4827e-08
5.21228e-07
-2.28989e-07
-5.26639e-07
-8.44633e-07
2.49581e-07
7.21278e-07
9.94993e-07
5.27781e-07
2.71817e-07
2.13861e-08
-4.61131e-07
-7.73609e-07
-8.78853e-07
-4.95035e-07
-2.32488e-07
-4.35975e-07
-5.22883e-07
-3.15764e-07
-4.90735e-08
-1.064e-06
-1.57477e-06
-1.37175e-06
-9.77279e-07
-3.12564e-07
4.97543e-07
7.03027e-07
9.1193e-07
1.65225e-06
1.32448e-06
8.90461e-07
5.56471e-08
-4.03636e-07
-1.93344e-06
-1.14844e-06
-8.43051e-07
-4.25377e-07
-1.34547e-06
-1.14067e-06
-2.69282e-07
1.77575e-07
6.64608e-07
-6.80796e-07
-8.69013e-07
-1.07383e-06
7.07466e-07
9.26912e-07
9.87045e-07
3.1097e-07
2.91225e-07
2.25617e-07
-5.4621e-07
-1.07484e-06
-1.1321e-06
-4.34923e-07
-1.33879e-07
-6.882e-07
-9.28482e-07
-5.90123e-07
7.48997e-08
-1.34255e-06
-1.85344e-06
-1.69714e-06
-1.2083e-06
-2.38654e-07
8.06133e-07
7.40424e-07
9.12332e-07
1.7585e-06
1.49458e-06
1.04129e-06
1.36414e-07
-7.88627e-07
-2.94843e-06
-1.09751e-06
-7.09138e-07
-3.44214e-07
-2.21824e-06
-1.35794e-06
-3.42894e-07
5.72626e-07
6.66456e-07
-1.36031e-06
-1.30027e-06
-1.22587e-06
1.40595e-06
9.95589e-07
9.15956e-07
-1.33272e-07
4.51647e-07
5.12127e-07
-7.50911e-07
-1.60048e-06
-1.46729e-06
-3.00808e-07
-8.05837e-08
-1.09966e-06
-1.63088e-06
-1.04797e-06
6.81788e-08
-1.81438e-06
-2.3189e-06
-2.36434e-06
-1.73879e-06
-1.2335e-08
1.14325e-06
6.02101e-07
7.62707e-07
1.64718e-06
1.72602e-06
1.02898e-06
2.38786e-07
-1.57653e-06
-4.22246e-06
-1.36189e-06
-7.04999e-07
-5.05975e-07
-3.47802e-06
-1.69112e-06
-7.23316e-07
9.32632e-07
1.83621e-07
-2.43568e-06
-2.00186e-06
-1.45433e-06
2.07802e-06
6.96227e-07
4.50045e-07
-8.53189e-07
5.63265e-07
7.64887e-07
-1.28185e-06
-2.4132e-06
-2.04827e-06
-1.76485e-07
-2.4621e-07
-1.87706e-06
-2.65102e-06
-1.69159e-06
-2.67897e-07
-2.67261e-06
-3.17702e-06
-3.51875e-06
-2.51057e-06
-3.2758e-07
1.10694e-06
1.36607e-07
1.56408e-07
1.25501e-06
1.58357e-06
1.05082e-06
-1.17523e-07
-3.29044e-06
-5.88167e-06
-1.2782e-06
-7.79714e-07
-1.39052e-06
-5.25462e-06
-1.96601e-06
-1.06065e-06
1.48935e-06
-9.50457e-07
-3.89943e-06
-3.10524e-06
-1.41552e-06
2.7847e-06
7.57605e-08
-2.61285e-07
-2.05363e-06
9.3864e-07
8.05897e-07
-2.24554e-06
-3.61486e-06
-2.58663e-06
-3.3884e-07
-6.26642e-07
-2.68925e-06
-4.18812e-06
-2.464e-06
-7.26669e-07
-3.64686e-06
-4.29277e-06
-4.95882e-06
-3.68147e-06
1.19255e-07
9.95311e-07
-5.51969e-07
-5.55291e-07
7.83897e-07
1.71967e-06
9.38211e-07
2.30158e-07
-5.3253e-06
-7.64018e-06
-1.89035e-06
-1.07448e-06
-2.5397e-06
-7.66928e-06
-3.12989e-06
-1.70542e-06
2.01336e-06
-2.28071e-06
-5.54291e-06
-4.23482e-06
-1.69161e-06
3.15533e-06
-8.61644e-07
-1.3222e-06
-3.21618e-06
1.16616e-06
7.81558e-07
-3.45902e-06
-5.24523e-06
-3.43604e-06
-4.46123e-07
-1.41985e-06
-3.92368e-06
-4.95626e-06
-2.58801e-06
-1.04139e-06
-4.69925e-06
-5.39054e-06
-7.02099e-06
-4.49765e-06
-3.14021e-07
4.86746e-07
-1.60538e-06
-1.83454e-06
1.95996e-07
1.69312e-06
8.82192e-07
-9.85174e-07
-7.30433e-06
-8.95318e-06
-9.20176e-07
-7.99881e-07
-3.93621e-06
-8.94531e-06
-3.03537e-06
-2.2208e-06
2.34776e-06
-3.92818e-06
-6.9663e-06
-5.31775e-06
-1.02809e-06
3.7962e-06
-1.98724e-06
-2.14762e-06
-4.22724e-06
2.34839e-06
1.08008e-06
-4.59898e-06
-6.65181e-06
-3.90102e-06
-4.14727e-07
-2.07226e-06
-4.84064e-06
-6.80188e-06
-2.59227e-06
-1.66508e-07
-5.25173e-06
-6.61151e-06
-8.10429e-06
-5.026e-06
1.17777e-06
1.06731e-06
-1.55518e-06
-2.40298e-06
-3.13243e-08
2.17772e-06
1.97878e-06
-1.05669e-07
-9.14103e-06
-9.93886e-06
-3.68913e-07
-3.21166e-07
-5.14511e-06
-1.07107e-05
-3.77372e-06
-1.02303e-06
4.05821e-06
-5.49624e-06
-8.07322e-06
-5.59876e-06
-4.56775e-07
4.67423e-06
-2.83799e-06
-3.26945e-06
-4.851e-06
3.46735e-06
1.62111e-06
-5.99788e-06
-7.88417e-06
-4.02881e-06
-1.04887e-06
-2.78956e-06
-5.74298e-06
-6.9024e-06
-1.90135e-06
3.48071e-07
-5.69281e-06
-6.8709e-06
-9.56761e-06
-5.00939e-06
1.09567e-06
7.92742e-07
-2.32116e-06
-3.22507e-06
6.09669e-07
2.77609e-06
1.77533e-06
-1.54938e-06
-9.87601e-06
-1.00135e-05
1.30765e-06
7.77615e-07
-6.5915e-06
-1.16885e-05
-3.44794e-06
-4.24525e-07
4.54196e-06
-7.0137e-06
-9.30923e-06
-6.07893e-06
5.66598e-07
5.54629e-06
-3.6983e-06
-3.70705e-06
-5.0264e-06
5.56387e-06
2.09122e-06
-6.36112e-06
-7.74836e-06
-3.89773e-06
-1.73946e-07
-3.02184e-06
-6.36767e-06
-7.98436e-06
-1.61871e-06
2.21381e-06
-5.86648e-06
-7.47332e-06
-9.82868e-06
-4.92722e-06