/*--------------------------------*- C++ -*----------------------------------*\
  =========                 |
  \\      /  F ield         | OpenFOAM: The Open Source CFD Toolbox
   \\    /   O peration     | Website:  https://openfoam.org
    \\  /    A nd           | Version:  10
     \\/     M anipulation  |
\*---------------------------------------------------------------------------*/
FoamFile
{
    format      ascii;
    class       volSymmTensorField;
    location    "37.5";
    object      UPrime2Mean;
}
// * * * * * * * * * * * * * * * * * * * * * * * * * * * * * * * * * * * * * //

dimensions      [0 2 -2 0 0 0 0];

internalField   nonuniform List<symmTensor> 
25600
(
(0.000794563 1.3542e-08 -1.01829e-08 2.63027e-10 2.84117e-12 1.97599e-11)
(0.000794588 2.70927e-09 -9.97415e-09 1.83787e-10 3.27116e-12 2.04243e-11)
(0.000794563 -1.38529e-10 -9.62279e-09 1.89285e-10 8.84104e-12 2.13165e-11)
(0.00079459 -7.85246e-09 -1.01196e-08 1.97028e-10 1.0498e-11 2.22631e-11)
(0.000794565 -2.726e-09 -9.27788e-09 1.93954e-10 4.79613e-12 2.27676e-11)
(0.000794587 -1.12782e-08 -1.01656e-08 1.84636e-10 4.11052e-12 2.25172e-11)
(0.000794571 -6.81015e-09 -9.35208e-09 1.76501e-10 8.74562e-12 2.19032e-11)
(0.000794591 -1.23734e-08 -9.85282e-09 1.88007e-10 4.92594e-12 2.18387e-11)
(0.000794576 -9.32481e-09 -9.79135e-09 1.9974e-10 1.80567e-12 2.20445e-11)
(0.000794596 -1.21819e-08 -9.62906e-09 1.79119e-10 2.91073e-12 2.19513e-11)
(0.000794583 -1.07649e-08 -9.40507e-09 1.93193e-10 -4.38651e-12 2.16889e-11)
(0.0007946 -1.07061e-08 -9.96448e-09 2.19428e-10 -6.9216e-12 2.15029e-11)
(0.00079459 -1.00722e-08 -8.32412e-09 1.91169e-10 -7.36738e-13 2.12601e-11)
(0.000794603 -7.77595e-09 -1.01246e-08 1.84462e-10 3.50393e-13 2.03363e-11)
(0.000794597 -7.13185e-09 -7.40633e-09 1.95224e-10 -2.02895e-13 1.84981e-11)
(0.000794602 -2.80942e-09 -9.32896e-09 1.75074e-10 4.6793e-13 1.68658e-11)
(0.000794596 -3.82056e-09 -7.05119e-09 1.82134e-10 -1.91577e-12 1.66585e-11)
(0.000794603 -1.03084e-10 -7.80926e-09 1.72671e-10 -2.06863e-12 1.83775e-11)
(0.000794587 4.20888e-10 -6.37226e-09 2.07308e-10 1.68452e-12 2.1106e-11)
(0.000794599 7.21306e-10 -6.40796e-09 2.8879e-10 -1.24135e-12 2.37044e-11)
(0.000794581 1.17464e-09 -5.35827e-09 2.287e-10 -9.77207e-12 2.48188e-11)
(0.000794591 2.0974e-09 -4.79585e-09 1.62089e-10 -7.22152e-12 2.39807e-11)
(0.000794573 1.73413e-09 -4.47342e-09 1.64914e-10 -3.80825e-13 2.23247e-11)
(0.000794581 2.10406e-09 -3.1198e-09 1.74499e-10 -3.12496e-12 2.17613e-11)
(0.000794563 -1.42857e-09 -4.10858e-09 1.843e-10 7.96186e-15 2.31073e-11)
(0.000794576 -8.07184e-10 -1.63784e-09 1.57106e-10 5.58859e-12 2.53378e-11)
(0.00079456 -4.35697e-09 -4.21928e-09 1.61477e-10 -1.74979e-12 2.69984e-11)
(0.000794576 -2.34913e-09 -1.46049e-09 1.76852e-10 -3.00166e-12 2.76337e-11)
(0.000794562 -4.65619e-09 -4.68008e-09 1.57216e-10 1.93097e-12 2.77438e-11)
(0.000794576 -3.44378e-09 -3.05566e-09 1.68469e-10 -4.63007e-12 2.71913e-11)
(0.000794566 -2.16362e-09 -5.60255e-09 1.78277e-10 -9.31873e-12 2.57426e-11)
(0.000794576 -3.3694e-09 -5.67621e-09 1.72314e-10 -6.51539e-12 2.34463e-11)
(0.000794565 5.10837e-10 -7.08302e-09 1.89853e-10 -9.10531e-12 2.1364e-11)
(0.000794575 -1.24524e-09 -8.06428e-09 1.88728e-10 -1.22743e-11 2.03073e-11)
(0.000794564 -7.72211e-10 -8.79511e-09 1.9302e-10 -9.91982e-12 1.99327e-11)
(0.000794575 2.31477e-09 -9.64176e-09 2.20297e-10 -6.32447e-12 1.95358e-11)
(0.000794563 -8.47603e-10 -9.964e-09 2.19258e-10 -6.97391e-12 1.89562e-11)
(0.000794579 6.22559e-09 -1.04821e-08 1.9452e-10 -7.89612e-12 1.84926e-11)
(0.000794561 4.27554e-09 -1.03771e-08 2.55132e-10 -2.97827e-13 1.84956e-11)
(0.000794584 1.9418e-08 -1.02489e-08 3.40163e-10 5.07668e-12 1.90858e-11)
(0.000794544 -3.57087e-10 -1.12522e-08 5.48844e-11 6.95542e-12 3.54155e-11)
(0.000794554 -3.05141e-09 -9.79329e-09 4.71269e-11 8.11285e-12 3.60242e-11)
(0.000794545 -3.85842e-09 -1.03446e-08 4.72743e-11 9.40402e-12 3.60581e-11)
(0.00079456 -7.38395e-09 -9.64766e-09 4.98943e-11 9.14068e-12 3.52582e-11)
(0.00079455 -6.29052e-09 -9.34087e-09 5.06286e-11 8.1499e-12 3.34897e-11)
(0.000794559 -1.12826e-08 -9.88338e-09 4.79102e-11 7.76823e-12 3.09715e-11)
(0.00079456 -1.00787e-08 -8.85303e-09 4.46266e-11 7.54802e-12 2.84669e-11)
(0.000794563 -1.31545e-08 -9.80385e-09 4.67619e-11 6.84148e-12 2.66425e-11)
(0.000794568 -1.34477e-08 -9.07854e-09 4.84604e-11 5.43284e-12 2.50228e-11)
(0.000794572 -1.30119e-08 -9.47269e-09 4.79029e-11 3.35749e-12 2.30821e-11)
(0.000794576 -1.45446e-08 -8.99729e-09 4.96507e-11 1.76478e-12 2.13318e-11)
(0.000794582 -1.11689e-08 -9.23775e-09 5.06563e-11 2.46577e-12 2.0625e-11)
(0.000794582 -1.21348e-08 -8.55e-09 5.08263e-11 4.021e-12 2.06366e-11)
(0.000794587 -7.59657e-09 -8.82503e-09 5.14551e-11 4.36741e-12 2.02509e-11)
(0.000794587 -7.56061e-09 -8.06622e-09 5.32286e-11 3.77473e-12 1.91865e-11)
(0.000794586 -2.86298e-09 -8.08576e-09 5.81286e-11 2.70176e-12 1.85733e-11)
(0.000794586 -2.55521e-09 -7.73389e-09 6.51884e-11 1.724e-12 1.93337e-11)
(0.000794583 2.43697e-10 -7.0414e-09 7.00678e-11 6.61819e-13 2.1096e-11)
(0.000794577 1.90618e-09 -6.90856e-09 7.39144e-11 -2.12226e-12 2.24592e-11)
(0.000794578 1.56096e-09 -6.30934e-09 7.73473e-11 -5.26853e-12 2.2506e-11)
(0.000794568 3.45984e-09 -5.91421e-09 7.77678e-11 -5.80227e-12 2.1261e-11)
(0.000794567 1.7921e-09 -5.30699e-09 7.44256e-11 -3.94911e-12 1.97384e-11)
(0.000794562 2.98296e-09 -4.83852e-09 6.94332e-11 -1.66678e-12 1.93884e-11)
(0.000794559 1.14504e-09 -4.23577e-09 6.47661e-11 -1.28187e-12 2.086e-11)
(0.000794555 -1.74804e-10 -3.83608e-09 5.72029e-11 -3.53282e-12 2.33662e-11)
(0.000794555 -5.16978e-11 -3.23302e-09 5.2097e-11 -6.8285e-12 2.53026e-11)
(0.000794548 -3.93923e-09 -3.66051e-09 5.32824e-11 -9.01364e-12 2.57396e-11)
(0.000794555 -8.10051e-10 -2.9977e-09 5.35638e-11 -9.69529e-12 2.51826e-11)
(0.000794545 -5.3952e-09 -4.61027e-09 5.15398e-11 -9.43405e-12 2.43883e-11)
(0.000794553 -1.56622e-09 -4.12722e-09 5.22929e-11 -8.70767e-12 2.3485e-11)
(0.000794548 -3.05786e-09 -6.32336e-09 5.49273e-11 -7.93555e-12 2.2523e-11)
(0.000794551 -2.05103e-09 -6.64796e-09 5.789e-11 -6.99728e-12 2.17816e-11)
(0.000794551 8.7773e-10 -8.12357e-09 5.99805e-11 -5.93453e-12 2.15764e-11)
(0.000794549 -9.91835e-10 -9.56056e-09 5.84705e-11 -5.36894e-12 2.19686e-11)
(0.000794552 2.87228e-09 -9.84538e-09 5.84128e-11 -5.2524e-12 2.2921e-11)
(0.000794545 8.33938e-10 -1.14827e-08 6.07708e-11 -4.4851e-12 2.41717e-11)
(0.000794549 3.41783e-09 -1.10369e-08 6.39795e-11 -3.83386e-12 2.58911e-11)
(0.000794545 1.14245e-09 -1.20109e-08 6.4787e-11 -2.78796e-12 2.84074e-11)
(0.000794542 2.46224e-09 -1.15106e-08 6.41248e-11 8.89085e-13 3.13398e-11)
(0.000794548 4.67184e-10 -1.081e-08 6.2963e-11 5.14687e-12 3.38683e-11)
(0.000794543 4.13958e-10 -1.54732e-08 6.77892e-11 1.32792e-11 3.8174e-11)
(0.000794547 -2.61158e-09 -1.3731e-08 5.89514e-11 1.24838e-11 3.75468e-11)
(0.00079454 -4.95587e-09 -1.40486e-08 5.76272e-11 1.22357e-11 3.67161e-11)
(0.000794553 -6.93104e-09 -1.27911e-08 5.20322e-11 9.16014e-12 3.59532e-11)
(0.000794545 -9.50183e-09 -1.21617e-08 5.25705e-11 7.42448e-12 3.48458e-11)
(0.000794552 -1.1946e-08 -1.2696e-08 5.06324e-11 8.74406e-12 3.30411e-11)
(0.000794557 -1.4293e-08 -1.10331e-08 4.78673e-11 1.02499e-11 3.06266e-11)
(0.000794556 -1.50586e-08 -1.24715e-08 5.02668e-11 1.08035e-11 2.8461e-11)
(0.000794567 -1.834e-08 -1.10443e-08 4.68877e-11 8.76262e-12 2.60701e-11)
(0.000794568 -1.57339e-08 -1.16962e-08 4.63352e-11 6.88559e-12 2.362e-11)
(0.000794576 -1.87525e-08 -1.11365e-08 5.07086e-11 6.4827e-12 2.24486e-11)
(0.000794581 -1.45236e-08 -1.06062e-08 5.1793e-11 5.45935e-12 2.28338e-11)
(0.000794585 -1.454e-08 -1.09401e-08 5.87599e-11 5.15466e-12 2.3705e-11)
(0.000794588 -1.06218e-08 -9.43418e-09 6.25436e-11 3.98933e-12 2.34372e-11)
(0.00079459 -8.52131e-09 -1.0617e-08 6.38027e-11 1.76504e-12 2.24427e-11)
(0.000794587 -4.49757e-09 -8.44406e-09 7.08477e-11 5.03033e-14 2.20519e-11)
(0.000794588 -2.97069e-09 -1.02792e-08 7.74172e-11 -9.13743e-13 2.29937e-11)
(0.000794584 -9.34281e-11 -7.58581e-09 7.87538e-11 -1.36103e-12 2.3932e-11)
(0.000794577 1.405e-09 -9.513e-09 7.91825e-11 -3.3372e-12 2.41315e-11)
(0.000794576 1.5944e-09 -7.22825e-09 8.35835e-11 -4.3943e-12 2.34396e-11)
(0.000794567 3.13152e-09 -8.54714e-09 8.10425e-11 -2.52789e-12 2.27596e-11)
(0.000794563 7.0327e-10 -6.6751e-09 7.34449e-11 -2.12851e-12 2.31032e-11)
(0.00079456 2.76763e-09 -7.03999e-09 7.46343e-11 -4.33556e-12 2.52662e-11)
(0.000794553 -1.7081e-09 -6.16372e-09 7.48771e-11 -6.06125e-12 2.81477e-11)
(0.000794553 -7.40057e-10 -5.07469e-09 6.71783e-11 -9.44266e-12 3.01425e-11)
(0.000794548 -3.8184e-09 -5.73691e-09 6.85816e-11 -1.26669e-11 3.02956e-11)
(0.000794547 -5.57036e-09 -4.34024e-09 6.95036e-11 -1.13315e-11 2.86104e-11)
(0.000794549 -4.38159e-09 -5.46916e-09 6.49185e-11 -1.02194e-11 2.63449e-11)
(0.000794544 -8.10358e-09 -5.76322e-09 6.64323e-11 -9.73656e-12 2.42632e-11)
(0.000794552 -3.89601e-09 -6.1944e-09 6.81377e-11 -8.20198e-12 2.2935e-11)
(0.000794547 -6.11616e-09 -8.38985e-09 7.28133e-11 -6.61263e-12 2.26171e-11)
(0.000794552 -3.09708e-09 -9.00069e-09 7.84194e-11 -5.02416e-12 2.33587e-11)
(0.000794551 -1.1262e-09 -1.07828e-08 7.65137e-11 -3.61337e-12 2.46932e-11)
(0.000794548 -1.72795e-09 -1.30493e-08 7.64894e-11 -4.11645e-12 2.58811e-11)
(0.000794552 2.69678e-09 -1.28895e-08 8.27435e-11 -6.07043e-12 2.70449e-11)
(0.000794543 -5.17267e-10 -1.59636e-08 8.62061e-11 -6.0528e-12 2.84305e-11)
(0.000794548 4.18227e-09 -1.43959e-08 8.79158e-11 -3.682e-12 3.03029e-11)
(0.000794541 -7.03698e-10 -1.67951e-08 8.21241e-11 -3.07785e-13 3.28542e-11)
(0.000794542 3.37129e-09 -1.53857e-08 8.11496e-11 5.84736e-12 3.57519e-11)
(0.000794543 -6.42134e-10 -1.54713e-08 8.35372e-11 1.2408e-11 3.78369e-11)
(0.00079454 -3.19379e-09 -1.95443e-08 9.52742e-11 1.63333e-11 3.62023e-11)
(0.000794541 -6.51735e-09 -1.71137e-08 7.8772e-11 1.33871e-11 3.44787e-11)
(0.000794537 -8.96451e-09 -1.72344e-08 6.53834e-11 8.63603e-12 3.31367e-11)
(0.000794549 -1.01365e-08 -1.53508e-08 6.09317e-11 6.00199e-12 3.34847e-11)
(0.000794542 -1.40289e-08 -1.46834e-08 6.37317e-11 7.38401e-12 3.45626e-11)
(0.000794548 -1.52766e-08 -1.5038e-08 6.61745e-11 9.82945e-12 3.4031e-11)
(0.000794554 -1.95616e-08 -1.33174e-08 6.23211e-11 1.13087e-11 3.22031e-11)
(0.000794553 -1.92165e-08 -1.49257e-08 5.60906e-11 1.17616e-11 3.03528e-11)
(0.000794566 -2.43593e-08 -1.33527e-08 5.29245e-11 1.09986e-11 2.81152e-11)
(0.000794568 -2.04531e-08 -1.40481e-08 5.35993e-11 9.56754e-12 2.61935e-11)
(0.000794577 -2.39641e-08 -1.33416e-08 5.64708e-11 9.18006e-12 2.58588e-11)
(0.000794585 -1.93998e-08 -1.25595e-08 5.99477e-11 7.51978e-12 2.68269e-11)
(0.000794588 -1.71984e-08 -1.29508e-08 6.43848e-11 5.84322e-12 2.75155e-11)
(0.000794593 -1.45616e-08 -1.10807e-08 6.73043e-11 2.98843e-12 2.69048e-11)
(0.000794596 -8.89383e-09 -1.25783e-08 6.96482e-11 1.0794e-12 2.58042e-11)
(0.000794592 -6.75016e-09 -1.00791e-08 7.00122e-11 4.95856e-13 2.54594e-11)
(0.000794592 -2.77517e-09 -1.24746e-08 7.21335e-11 -2.8484e-13 2.56927e-11)
(0.000794587 -5.65215e-10 -9.32263e-09 7.3921e-11 -5.21345e-13 2.55565e-11)
(0.000794579 7.98987e-10 -1.22154e-08 7.52011e-11 -1.23496e-12 2.49366e-11)
(0.000794577 1.73858e-09 -9.11668e-09 7.56474e-11 -9.81919e-13 2.43393e-11)
(0.000794566 1.72398e-09 -1.15876e-08 7.54397e-11 -1.09265e-12 2.48552e-11)
(0.000794563 -4.58416e-10 -8.64821e-09 7.94299e-11 -3.20085e-12 2.65112e-11)
(0.000794558 6.29897e-10 -9.61766e-09 8.3231e-11 -6.54665e-12 2.96165e-11)
(0.000794551 -4.86066e-09 -8.16755e-09 8.4697e-11 -8.69519e-12 3.22347e-11)
(0.000794551 -3.09355e-09 -6.65153e-09 8.51268e-11 -1.07785e-11 3.34631e-11)
(0.000794545 -8.32559e-09 -7.85347e-09 8.42095e-11 -1.1066e-11 3.31639e-11)
(0.000794546 -7.97331e-09 -5.32877e-09 7.95327e-11 -9.91843e-12 3.11549e-11)
(0.000794547 -9.36741e-09 -7.3899e-09 7.8664e-11 -9.70918e-12 2.8626e-11)
(0.000794545 -1.05735e-08 -7.25586e-09 8.03322e-11 -8.7437e-12 2.63324e-11)
(0.000794553 -7.95539e-09 -7.99557e-09 8.55343e-11 -8.22363e-12 2.53373e-11)
(0.000794548 -8.77987e-09 -1.10114e-08 9.048e-11 -5.79807e-12 2.59608e-11)
(0.000794555 -5.2866e-09 -1.15028e-08 9.23429e-11 -3.30769e-12 2.76929e-11)
(0.000794552 -3.15503e-09 -1.42835e-08 9.89854e-11 -3.47938e-12 2.996e-11)
(0.000794551 -2.23214e-09 -1.69514e-08 1.05703e-10 -5.23004e-12 3.18265e-11)
(0.000794553 2.09792e-09 -1.69702e-08 1.12065e-10 -7.47786e-12 3.25079e-11)
(0.000794544 -7.29879e-10 -2.09633e-08 1.16374e-10 -8.31256e-12 3.30931e-11)
(0.000794547 3.86963e-09 -1.89754e-08 1.1644e-10 -5.00991e-12 3.31178e-11)
(0.000794539 -1.93872e-09 -2.20306e-08 1.14136e-10 1.27062e-12 3.38923e-11)
(0.000794541 1.70044e-09 -2.00063e-08 1.12863e-10 8.66265e-12 3.60382e-11)
(0.000794539 -4.0811e-09 -1.99777e-08 1.08774e-10 1.55544e-11 3.70687e-11)
(0.000794539 -5.83755e-09 -2.52613e-08 1.26442e-10 2.29875e-11 3.82807e-11)
(0.000794538 -9.00006e-09 -2.15838e-08 1.02769e-10 1.71174e-11 3.52049e-11)
(0.000794535 -1.06747e-08 -2.20036e-08 8.46904e-11 8.49321e-12 3.28095e-11)
(0.000794545 -1.24633e-08 -1.89706e-08 8.26801e-11 4.98216e-12 3.36604e-11)
(0.000794538 -1.61959e-08 -1.90921e-08 9.08733e-11 6.26326e-12 3.63512e-11)
(0.000794544 -1.8409e-08 -1.82842e-08 9.47938e-11 9.02686e-12 3.63418e-11)
(0.000794551 -2.34319e-08 -1.77927e-08 8.67434e-11 9.60464e-12 3.57686e-11)
(0.000794549 -2.36666e-08 -1.8154e-08 7.67659e-11 1.00197e-11 3.43201e-11)
(0.000794565 -2.96454e-08 -1.78307e-08 6.82531e-11 8.92585e-12 3.23652e-11)
(0.000794568 -2.57323e-08 -1.73515e-08 6.39956e-11 7.90669e-12 3.1299e-11)
(0.000794578 -2.88604e-08 -1.74368e-08 6.32562e-11 8.47934e-12 3.12555e-11)
(0.000794591 -2.44578e-08 -1.58801e-08 6.7251e-11 6.17128e-12 3.22301e-11)
(0.000794592 -1.95422e-08 -1.64365e-08 7.14736e-11 5.89192e-12 3.28931e-11)
(0.0007946 -1.82057e-08 -1.44574e-08 7.32059e-11 2.81757e-12 3.19402e-11)
(0.000794602 -8.58391e-09 -1.56205e-08 7.35704e-11 2.21717e-12 3.16337e-11)
(0.000794596 -8.6085e-09 -1.35394e-08 7.15778e-11 1.10594e-12 3.19004e-11)
(0.000794597 -1.72549e-09 -1.55528e-08 7.44563e-11 6.55929e-13 3.13751e-11)
(0.000794589 -8.0543e-10 -1.28855e-08 7.255e-11 2.18635e-12 3.10526e-11)
(0.000794581 1.03506e-09 -1.58345e-08 7.15356e-11 1.42787e-12 2.93457e-11)
(0.000794577 1.63403e-09 -1.2889e-08 7.34865e-11 1.11957e-12 2.84413e-11)
(0.000794564 2.27492e-10 -1.56621e-08 7.32573e-11 -7.53077e-13 2.83658e-11)
(0.000794561 -2.16478e-09 -1.24836e-08 7.92405e-11 -3.28617e-12 2.90994e-11)
(0.000794554 -2.74501e-09 -1.32427e-08 8.52005e-11 -5.38362e-12 3.19881e-11)
(0.000794548 -8.59571e-09 -1.15754e-08 8.6336e-11 -5.06351e-12 3.39538e-11)
(0.000794548 -7.58376e-09 -9.19906e-09 8.82642e-11 -7.57015e-12 3.52509e-11)
(0.000794541 -1.39901e-08 -1.07565e-08 8.73724e-11 -7.20442e-12 3.52834e-11)
(0.000794545 -1.27596e-08 -7.13272e-09 8.36467e-11 -6.52301e-12 3.36688e-11)
(0.000794546 -1.64857e-08 -9.81673e-09 8.78512e-11 -6.6324e-12 3.10156e-11)
(0.000794546 -1.51971e-08 -9.52705e-09 8.97628e-11 -6.67159e-12 2.91124e-11)
(0.000794554 -1.46414e-08 -1.05838e-08 9.31703e-11 -6.69303e-12 2.84851e-11)
(0.000794551 -1.30578e-08 -1.45008e-08 9.75199e-11 -1.97685e-12 2.93689e-11)
(0.000794559 -9.40081e-09 -1.51194e-08 1.05275e-10 1.99464e-13 3.14442e-11)
(0.000794555 -6.43709e-09 -1.90847e-08 1.19667e-10 5.10531e-13 3.50291e-11)
(0.000794555 -3.32733e-09 -2.22613e-08 1.27063e-10 -1.09665e-12 3.81974e-11)
(0.000794554 1.43821e-10 -2.27575e-08 1.3365e-10 -2.47735e-12 3.91626e-11)
(0.000794545 -9.54106e-10 -2.74879e-08 1.40627e-10 -2.07741e-12 3.93677e-11)
(0.000794546 1.8672e-09 -2.54397e-08 1.43956e-10 2.4748e-12 3.73566e-11)
(0.000794537 -3.27432e-09 -2.85948e-08 1.48371e-10 9.07859e-12 3.73021e-11)
(0.000794539 -1.11891e-09 -2.64962e-08 1.52214e-10 1.69841e-11 3.97374e-11)
(0.000794536 -6.58987e-09 -2.576e-08 1.45214e-10 2.44917e-11 4.02804e-11)
(0.000794537 -1.00744e-08 -3.18039e-08 1.60582e-10 3.91906e-11 4.98688e-11)
(0.000794535 -1.36875e-08 -2.76178e-08 1.3259e-10 2.90787e-11 4.53239e-11)
(0.000794533 -1.3731e-08 -2.75599e-08 1.15668e-10 1.49603e-11 3.95012e-11)
(0.000794541 -1.72768e-08 -2.41997e-08 1.16455e-10 1.0484e-11 4.00175e-11)
(0.000794534 -1.95443e-08 -2.45739e-08 1.30543e-10 1.01262e-11 4.27884e-11)
(0.000794539 -2.40273e-08 -2.30671e-08 1.34082e-10 1.30879e-11 4.16028e-11)
(0.000794547 -2.87081e-08 -2.35804e-08 1.22289e-10 1.34827e-11 4.33621e-11)
(0.000794544 -3.05961e-08 -2.28277e-08 1.09421e-10 1.38138e-11 4.1297e-11)
(0.000794563 -3.68405e-08 -2.37998e-08 9.20137e-11 9.17733e-12 3.94135e-11)
(0.000794569 -3.32043e-08 -2.20867e-08 7.85414e-11 9.29009e-12 3.96146e-11)
(0.000794579 -3.57025e-08 -2.2744e-08 7.42744e-11 8.71066e-12 3.85456e-11)
(0.000794597 -3.07439e-08 -2.05013e-08 8.02337e-11 5.97697e-12 3.98109e-11)
(0.000794596 -2.34851e-08 -2.08727e-08 8.08272e-11 7.97475e-12 3.99202e-11)
(0.000794608 -2.21441e-08 -1.91111e-08 8.27838e-11 3.62015e-12 3.77143e-11)
(0.000794608 -9.16944e-09 -1.96581e-08 8.29381e-11 5.16728e-12 3.90406e-11)
(0.0007946 -1.02448e-08 -1.83487e-08 8.31722e-11 1.63592e-12 3.97836e-11)
(0.000794602 -9.76852e-10 -1.97613e-08 8.82255e-11 4.07307e-12 3.89224e-11)
(0.00079459 -1.38494e-09 -1.78559e-08 8.21679e-11 7.0998e-12 4.02241e-11)
(0.000794582 5.39606e-10 -2.07513e-08 8.00642e-11 5.82763e-12 3.75079e-11)
(0.000794576 1.7308e-10 -1.8249e-08 8.02395e-11 5.53189e-12 3.71359e-11)
(0.000794561 -2.78441e-09 -2.10598e-08 7.69108e-11 7.42775e-13 3.49564e-11)
(0.000794559 -5.78057e-09 -1.78724e-08 8.10181e-11 -1.58011e-12 3.32976e-11)
(0.000794549 -8.23301e-09 -1.81572e-08 8.45586e-11 -2.5269e-12 3.60155e-11)
(0.000794544 -1.40106e-08 -1.61723e-08 8.41936e-11 -2.39496e-12 3.72093e-11)
(0.000794544 -1.474e-08 -1.28547e-08 8.65752e-11 -5.36627e-12 3.91727e-11)
(0.000794538 -2.14046e-08 -1.42691e-08 8.36995e-11 -2.79349e-12 3.95554e-11)
(0.000794543 -2.04089e-08 -9.81473e-09 8.54873e-11 -5.00472e-12 3.80353e-11)
(0.000794544 -2.57694e-08 -1.27408e-08 9.00653e-11 -3.92952e-12 3.52818e-11)
(0.000794548 -2.21111e-08 -1.25795e-08 9.14862e-11 -5.34137e-12 3.39595e-11)
(0.000794556 -2.38148e-08 -1.40021e-08 9.38834e-11 -5.01301e-12 3.26515e-11)
(0.000794555 -1.86719e-08 -1.8734e-08 9.72235e-11 2.232e-12 3.32196e-11)
(0.000794564 -1.55461e-08 -2.01674e-08 1.12088e-10 3.47609e-12 3.54797e-11)
(0.00079456 -1.0353e-08 -2.49796e-08 1.25962e-10 5.51995e-12 4.09533e-11)
(0.00079456 -5.38419e-09 -2.93975e-08 1.33808e-10 4.9943e-12 4.591e-11)
(0.000794556 -2.23815e-09 -3.00649e-08 1.41963e-10 7.28156e-12 4.79142e-11)
(0.000794546 -1.83475e-09 -3.60453e-08 1.57182e-10 9.50991e-12 4.86186e-11)
(0.000794544 -8.7834e-10 -3.35508e-08 1.72098e-10 1.65397e-11 4.52957e-11)
(0.000794535 -5.5055e-09 -3.71345e-08 1.7878e-10 2.43218e-11 4.70549e-11)
(0.000794536 -5.14842e-09 -3.42666e-08 1.84771e-10 3.49157e-11 5.06769e-11)
(0.000794533 -1.05356e-08 -3.31548e-08 1.80609e-10 4.31345e-11 5.20815e-11)
(0.000794533 -1.57076e-08 -4.02401e-08 1.94071e-10 5.84847e-11 7.25048e-11)
(0.000794531 -1.92744e-08 -3.52636e-08 1.6544e-10 4.45648e-11 6.63839e-11)
(0.000794528 -1.71875e-08 -3.51384e-08 1.54929e-10 2.66218e-11 5.35213e-11)
(0.000794536 -2.24745e-08 -3.15176e-08 1.63065e-10 2.06561e-11 5.51317e-11)
(0.000794528 -2.27328e-08 -3.21419e-08 1.80026e-10 1.97707e-11 5.49687e-11)
(0.000794531 -3.03264e-08 -3.01399e-08 1.81924e-10 2.48165e-11 5.07543e-11)
(0.000794541 -3.45651e-08 -3.16553e-08 1.755e-10 2.71822e-11 5.72326e-11)
(0.000794537 -3.88962e-08 -3.00912e-08 1.60179e-10 2.64747e-11 5.21521e-11)
(0.00079456 -4.49148e-08 -3.2053e-08 1.33253e-10 1.64851e-11 5.32531e-11)
(0.000794568 -4.15572e-08 -2.93103e-08 1.08726e-10 1.97467e-11 5.46303e-11)
(0.000794579 -4.31413e-08 -3.01555e-08 1.04507e-10 1.22728e-11 5.00272e-11)
(0.000794603 -3.683e-08 -2.72797e-08 1.07924e-10 1.12713e-11 5.32794e-11)
(0.0007946 -2.71414e-08 -2.71446e-08 9.82166e-11 1.38911e-11 5.05534e-11)
(0.000794615 -2.44859e-08 -2.57029e-08 1.04894e-10 8.74537e-12 4.47464e-11)
(0.000794613 -8.4023e-09 -2.54533e-08 1.05287e-10 1.21639e-11 4.93037e-11)
(0.000794603 -9.79888e-09 -2.50029e-08 1.10867e-10 4.33245e-12 4.76579e-11)
(0.000794605 1.25433e-09 -2.60181e-08 1.17229e-10 1.44121e-11 4.69104e-11)
(0.000794588 -6.1645e-10 -2.51591e-08 1.07964e-10 1.69301e-11 5.0195e-11)
(0.000794581 7.36158e-10 -2.83359e-08 1.12382e-10 1.70878e-11 4.62605e-11)
(0.000794571 -1.39977e-09 -2.62997e-08 1.09828e-10 1.65478e-11 4.97489e-11)
(0.000794555 -6.14867e-09 -2.94258e-08 9.96898e-11 8.09036e-12 4.37367e-11)
(0.000794553 -1.03945e-08 -2.58147e-08 1.06963e-10 3.87383e-12 3.9811e-11)
(0.000794542 -1.48734e-08 -2.54147e-08 1.05231e-10 2.23187e-12 4.20401e-11)
(0.000794538 -2.06364e-08 -2.24448e-08 1.03624e-10 2.74482e-13 4.22791e-11)
(0.000794537 -2.37922e-08 -1.83812e-08 1.01379e-10 -3.08164e-12 4.49737e-11)
(0.000794532 -3.02342e-08 -1.85351e-08 9.52004e-11 1.46161e-12 4.61547e-11)
(0.000794538 -3.06725e-08 -1.40132e-08 9.93712e-11 -5.12775e-12 4.50735e-11)
(0.000794541 -3.6942e-08 -1.61741e-08 9.97392e-11 -2.3396e-12 4.26971e-11)
(0.000794547 -3.16867e-08 -1.71877e-08 1.06385e-10 -8.70978e-12 4.15093e-11)
(0.000794556 -3.50382e-08 -1.83976e-08 1.01024e-10 -6.02719e-12 3.71645e-11)
(0.000794559 -2.61007e-08 -2.4799e-08 1.07417e-10 3.89846e-13 3.7639e-11)
(0.000794567 -2.27675e-08 -2.65721e-08 1.21437e-10 2.37963e-12 4.06857e-11)
(0.000794565 -1.45153e-08 -3.29088e-08 1.29566e-10 5.90319e-12 4.90227e-11)
(0.000794563 -7.65894e-09 -3.82048e-08 1.3755e-10 4.92547e-12 5.58641e-11)
(0.000794556 -4.82814e-09 -3.98966e-08 1.40884e-10 1.20451e-11 6.00731e-11)
(0.000794544 -3.38045e-09 -4.64834e-08 1.68406e-10 1.44689e-11 6.14297e-11)
(0.00079454 -4.72633e-09 -4.43475e-08 1.88533e-10 2.88772e-11 5.93147e-11)
(0.00079453 -9.08137e-09 -4.72818e-08 1.9853e-10 3.85611e-11 6.34919e-11)
(0.000794531 -1.06849e-08 -4.42594e-08 2.0483e-10 5.29175e-11 6.91551e-11)
(0.000794528 -1.57213e-08 -4.19303e-08 2.05457e-10 6.27933e-11 7.27512e-11)
(0.000794483 -2.28744e-08 -5.1995e-08 2.1694e-10 7.05491e-11 1.09284e-10)
(0.000794482 -2.4931e-08 -4.57848e-08 1.91422e-10 5.53084e-11 9.76725e-11)
(0.000794478 -2.1498e-08 -4.60154e-08 1.99849e-10 3.5966e-11 7.55527e-11)
(0.000794484 -2.72551e-08 -4.18824e-08 2.16051e-10 2.77645e-11 8.35911e-11)
(0.000794474 -2.62832e-08 -4.33447e-08 2.31251e-10 2.96238e-11 7.21512e-11)
(0.000794475 -3.70753e-08 -4.08276e-08 2.39278e-10 3.8242e-11 6.41965e-11)
(0.000794487 -4.19793e-08 -4.38303e-08 2.42276e-10 4.58869e-11 7.73723e-11)
(0.000794482 -4.80541e-08 -4.09955e-08 2.23063e-10 4.16749e-11 6.52809e-11)
(0.00079451 -5.46018e-08 -4.43437e-08 1.88061e-10 3.16928e-11 7.4707e-11)
(0.00079452 -5.03524e-08 -3.99617e-08 1.59225e-10 3.79012e-11 7.66831e-11)
(0.000794533 -5.17173e-08 -4.12161e-08 1.65933e-10 1.69495e-11 6.70546e-11)
(0.000794563 -4.24721e-08 -3.72053e-08 1.52783e-10 2.19681e-11 7.62145e-11)
(0.000794559 -3.10405e-08 -3.68033e-08 1.31591e-10 2.12118e-11 6.56628e-11)
(0.000794577 -2.50748e-08 -3.52155e-08 1.44401e-10 1.89292e-11 5.64288e-11)
(0.000794573 -6.99275e-09 -3.42916e-08 1.41335e-10 1.90189e-11 6.65372e-11)
(0.00079456 -7.50495e-09 -3.42305e-08 1.55678e-10 9.85942e-12 5.68267e-11)
(0.000794561 3.46736e-09 -3.51174e-08 1.59586e-10 3.13774e-11 5.70975e-11)
(0.000794539 6.63085e-10 -3.50374e-08 1.51156e-10 2.99853e-11 6.00098e-11)
(0.000794531 -2.77582e-10 -3.89888e-08 1.71766e-10 3.69124e-11 5.67094e-11)
(0.000794518 -4.27246e-09 -3.75764e-08 1.6174e-10 3.66845e-11 6.79745e-11)
(0.000794501 -1.14955e-08 -4.09568e-08 1.51611e-10 2.43806e-11 5.51705e-11)
(0.000794498 -1.69521e-08 -3.66693e-08 1.6658e-10 1.75357e-11 4.92483e-11)
(0.000794487 -2.37064e-08 -3.51853e-08 1.60409e-10 1.42846e-11 5.09555e-11)
(0.000794484 -2.90779e-08 -3.07463e-08 1.62961e-10 6.29507e-12 4.91006e-11)
(0.000794483 -3.5401e-08 -2.55971e-08 1.48082e-10 7.04721e-12 5.24468e-11)
(0.000794479 -4.09898e-08 -2.3894e-08 1.46284e-10 1.20502e-11 5.60987e-11)
(0.000794485 -4.39914e-08 -1.95158e-08 1.38694e-10 4.14962e-13 5.62882e-11)
(0.000794492 -4.99521e-08 -2.05278e-08 1.35528e-10 6.22558e-12 5.62534e-11)
(0.000794499 -4.4542e-08 -2.30189e-08 1.47487e-10 -8.8416e-12 5.237e-11)
(0.00079451 -4.84761e-08 -2.4005e-08 1.26306e-10 -6.75767e-12 4.2726e-11)
(0.000794517 -3.64985e-08 -3.2103e-08 1.4742e-10 -5.23403e-12 4.41436e-11)
(0.000794525 -3.06767e-08 -3.45601e-08 1.50317e-10 7.55747e-14 4.86658e-11)
(0.000794525 -1.89922e-08 -4.26701e-08 1.63654e-10 -1.93449e-13 5.96108e-11)
(0.000794519 -9.03473e-09 -4.93377e-08 1.61393e-10 -1.7168e-12 6.81927e-11)
(0.000794509 -7.21919e-09 -5.25229e-08 1.42049e-10 6.7766e-12 7.53516e-11)
(0.000794495 -5.00831e-09 -5.96618e-08 1.85113e-10 9.04969e-12 7.76114e-11)
(0.000794488 -9.69569e-09 -5.82388e-08 2.0076e-10 3.31933e-11 7.93418e-11)
(0.000794478 -1.36647e-08 -5.99715e-08 2.13572e-10 4.10277e-11 8.61913e-11)
(0.000794478 -1.7775e-08 -5.7409e-08 2.0889e-10 5.80663e-11 9.40731e-11)
(0.000794476 -2.16171e-08 -5.33606e-08 2.15272e-10 7.29935e-11 1.0228e-10)
(0.00079364 -3.15532e-08 -6.7993e-08 2.43054e-10 7.10548e-11 1.67289e-10)
(0.000793639 -2.94883e-08 -6.06549e-08 2.19733e-10 6.07731e-11 1.39923e-10)
(0.000793637 -2.69877e-08 -6.08089e-08 2.61826e-10 3.9059e-11 1.11945e-10)
(0.000793638 -3.06371e-08 -5.70467e-08 2.79746e-10 2.87456e-11 1.34861e-10)
(0.000793628 -3.10597e-08 -5.92132e-08 2.899e-10 3.73417e-11 9.52313e-11)
(0.000793622 -4.36613e-08 -5.75681e-08 3.14275e-10 5.03592e-11 8.84149e-11)
(0.00079364 -5.11718e-08 -6.1554e-08 3.10296e-10 6.31522e-11 1.06934e-10)
(0.000793632 -5.68712e-08 -5.83648e-08 2.79283e-10 5.55004e-11 8.04399e-11)
(0.000793667 -6.58429e-08 -6.21206e-08 2.40613e-10 5.53365e-11 1.09556e-10)
(0.000793677 -5.8176e-08 -5.62819e-08 2.28874e-10 5.63265e-11 1.06712e-10)
(0.000793697 -6.13484e-08 -5.7364e-08 2.55716e-10 2.28376e-11 9.37081e-11)
(0.000793729 -4.5899e-08 -5.2221e-08 2.09376e-10 3.6195e-11 1.1473e-10)
(0.000793727 -3.45537e-08 -5.12191e-08 1.8783e-10 3.03187e-11 8.65022e-11)
(0.000793744 -2.19233e-08 -4.96335e-08 1.99626e-10 3.1998e-11 8.01209e-11)
(0.000793741 -4.1243e-09 -4.80201e-08 1.90216e-10 2.06731e-11 9.76097e-11)
(0.00079372 -9.54609e-10 -4.83e-08 2.11142e-10 1.86315e-11 7.14602e-11)
(0.000793723 7.04513e-09 -4.91926e-08 2.00493e-10 4.76101e-11 7.42139e-11)
(0.000793691 5.25577e-09 -5.02983e-08 2.09568e-10 4.11049e-11 7.24032e-11)
(0.000793686 -1.39524e-09 -5.53333e-08 2.48074e-10 6.07083e-11 7.20328e-11)
(0.000793667 -6.1895e-09 -5.48304e-08 2.29507e-10 6.15542e-11 9.60315e-11)
(0.000793653 -1.81318e-08 -5.79378e-08 2.33173e-10 4.68749e-11 7.33026e-11)
(0.000793647 -2.3558e-08 -5.27691e-08 2.52757e-10 3.58758e-11 6.5382e-11)
(0.00079364 -3.42542e-08 -4.91196e-08 2.60228e-10 3.07018e-11 6.74551e-11)
(0.000793633 -3.8479e-08 -4.30996e-08 2.62245e-10 1.36522e-11 6.01585e-11)
(0.000793636 -5.00362e-08 -3.58673e-08 2.39491e-10 2.68485e-11 6.40404e-11)
(0.00079363 -5.33981e-08 -3.25413e-08 2.53049e-10 3.12778e-11 7.15084e-11)
(0.00079364 -6.05358e-08 -2.77412e-08 2.13402e-10 1.85625e-11 7.5775e-11)
(0.000793647 -6.41531e-08 -2.82096e-08 2.22286e-10 2.81994e-11 8.05525e-11)
(0.000793658 -6.09206e-08 -3.17859e-08 2.17004e-10 7.04932e-13 6.79984e-11)
(0.00079367 -6.309e-08 -3.29067e-08 1.84002e-10 -3.34562e-12 5.10162e-11)
(0.000793686 -4.94845e-08 -4.18151e-08 2.31328e-10 -7.1373e-12 5.50267e-11)
(0.00079369 -3.83003e-08 -4.55695e-08 2.15533e-10 2.49343e-12 6.12939e-11)
(0.000793696 -2.38751e-08 -5.47974e-08 2.61172e-10 -8.33534e-12 7.45435e-11)
(0.000793681 -8.4733e-09 -6.42744e-08 2.23766e-10 -7.31887e-12 8.52598e-11)
(0.00079367 -9.44308e-09 -6.84614e-08 1.84336e-10 -1.4213e-12 9.54794e-11)
(0.000793648 -5.47148e-09 -7.732e-08 2.41165e-10 1.07627e-12 1.00022e-10)
(0.000793642 -1.54401e-08 -7.58168e-08 2.42921e-10 3.53384e-11 1.07596e-10)
(0.000793629 -1.76063e-08 -7.7256e-08 2.60937e-10 3.0771e-11 1.17221e-10)
(0.000793633 -2.61391e-08 -7.47402e-08 2.14397e-10 5.03402e-11 1.27788e-10)
(0.000793629 -2.71833e-08 -6.9721e-08 2.30782e-10 7.54174e-11 1.45499e-10)
(0.000783485 -4.06433e-08 -8.94685e-08 3.04871e-10 6.00171e-11 2.52003e-10)
(0.000783452 -3.10958e-08 -8.16343e-08 2.82094e-10 6.41055e-11 1.9154e-10)
(0.000783482 -3.29642e-08 -8.15684e-08 3.74749e-10 3.03761e-11 1.75856e-10)
(0.000783448 -3.11958e-08 -7.969e-08 3.77052e-10 2.44216e-11 2.18023e-10)
(0.000783466 -3.76046e-08 -8.28485e-08 3.88196e-10 4.12427e-11 1.29513e-10)
(0.000783427 -4.869e-08 -8.32059e-08 4.32263e-10 5.51021e-11 1.37377e-10)
(0.000783476 -6.2309e-08 -8.77061e-08 3.81226e-10 7.27052e-11 1.54057e-10)
(0.000783441 -6.3896e-08 -8.4688e-08 3.21184e-10 6.9449e-11 1.06914e-10)
(0.000783509 -7.8226e-08 -8.76992e-08 2.85807e-10 8.57552e-11 1.69358e-10)
(0.000783494 -6.33135e-08 -8.06455e-08 3.20606e-10 6.96857e-11 1.50819e-10)
(0.000783547 -7.15528e-08 -8.01538e-08 3.59659e-10 3.42016e-11 1.41261e-10)
(0.000783554 -4.5739e-08 -7.40655e-08 2.80918e-10 5.33462e-11 1.75389e-10)
(0.000783584 -3.66607e-08 -7.16111e-08 2.81811e-10 5.0148e-11 1.1777e-10)
(0.00078357 -1.26833e-08 -7.01692e-08 2.68407e-10 4.71573e-11 1.24432e-10)
(0.000783595 1.90362e-09 -6.74981e-08 2.57701e-10 2.32828e-11 1.49711e-10)
(0.000783538 1.24721e-08 -6.8647e-08 2.68866e-10 3.33643e-11 9.79386e-11)
(0.000783569 1.33329e-08 -6.94164e-08 2.33876e-10 5.50959e-11 1.05502e-10)
(0.0007835 1.5752e-08 -7.25216e-08 2.76976e-10 4.80299e-11 9.45275e-11)
(0.000783522 -1.39643e-09 -7.84689e-08 3.21045e-10 8.15912e-11 9.93028e-11)
(0.000783471 -4.00279e-09 -7.90616e-08 3.14753e-10 9.07466e-11 1.44744e-10)
(0.000783488 -2.4814e-08 -8.10841e-08 3.27169e-10 6.86869e-11 1.05342e-10)
(0.000783451 -2.74209e-08 -7.50586e-08 3.63799e-10 5.39119e-11 9.64158e-11)
(0.000783477 -4.6049e-08 -6.83301e-08 4.02778e-10 4.53662e-11 1.01749e-10)
(0.000783436 -4.70007e-08 -6.06585e-08 3.83414e-10 1.81273e-11 8.29305e-11)
(0.000783473 -6.72755e-08 -5.01647e-08 3.85269e-10 5.51421e-11 8.72288e-11)
(0.000783436 -6.52061e-08 -4.53684e-08 4.05116e-10 5.79007e-11 9.95739e-11)
(0.00078348 -7.9477e-08 -3.93688e-08 3.35107e-10 4.94019e-11 1.13692e-10)
(0.000783456 -7.77058e-08 -3.99602e-08 3.6851e-10 6.59031e-11 1.23367e-10)