/*--------------------------------*- C++ -*----------------------------------*\
  =========                 |
  \\      /  F ield         | OpenFOAM: The Open Source CFD Toolbox
   \\    /   O peration     | Website:  https://openfoam.org
    \\  /    A nd           | Version:  10
     \\/     M anipulation  |
\*---------------------------------------------------------------------------*/
FoamFile
{
    format      ascii;
    class       volScalarField;
    location    "50";
    object      nut;
}
// * * * * * * * * * * * * * * * * * * * * * * * * * * * * * * * * * * * * * //

dimensions      [0 2 -1 0 0 0 0];

internalField   nonuniform List<scalar> 
25600
(
3.14674e-08
3.76638e-08
5.02176e-09
3.08717e-08
1.66109e-08
3.54173e-08
3.2056e-08
1.347e-08
2.15354e-08
4.57417e-09
1.478e-08
2.54101e-08
2.13018e-08
1.55069e-08
2.66204e-08
4.5626e-09
1.05347e-08
1.37895e-08
5.60185e-09
3.43438e-08
9.54771e-09
2.46522e-08
1.73627e-08
5.30057e-09
3.31797e-08
2.77024e-09
3.19469e-08
2.12372e-08
1.95154e-08
4.25525e-08
4.53603e-09
3.64146e-08
6.33749e-09
1.58113e-08
3.92325e-08
1.63048e-08
4.04015e-08
3.92451e-09
2.4455e-08
2.77339e-08
2.05842e-08
5.41767e-08
4.7073e-09
5.43403e-08
7.68299e-09
2.35389e-08
4.09301e-08
8.52017e-09
5.11403e-08
9.49381e-10
2.11839e-08
1.93767e-08
1.91062e-08
2.87408e-08
9.73015e-09
1.66836e-08
1.99736e-09
2.40117e-08
6.01084e-09
2.47362e-08
1.09599e-08
9.93511e-09
2.6125e-08
2.22394e-09
4.43045e-08
1.97678e-09
3.00917e-08
1.16976e-08
9.93589e-09
4.74098e-08
4.84492e-09
5.15604e-08
1.64912e-09
1.318e-08
2.72083e-08
1.40073e-08
5.29368e-08
5.50095e-09
4.05157e-08
1.69974e-08
1.32569e-08
5.32212e-08
5.35217e-09
6.60482e-08
2.96092e-09
1.51347e-08
3.53306e-08
6.69036e-09
6.69101e-08
3.11022e-09
3.92641e-08
4.46334e-09
1.47895e-08
3.38972e-08
7.38321e-09
4.25051e-08
1.14961e-09
3.24616e-08
2.74608e-09
1.95886e-08
1.28129e-08
6.36869e-09
3.04064e-08
1.69542e-09
4.72189e-08
1.87466e-09
3.28898e-08
3.81515e-09
4.95305e-09
3.7397e-08
4.23543e-09
5.26984e-08
3.62399e-09
2.58638e-08
9.92204e-09
1.25058e-08
4.70103e-08
7.1298e-09
5.583e-08
7.47284e-09
1.03649e-08
3.95997e-08
5.30443e-09
6.57569e-08
3.33598e-09
2.00852e-08
1.51631e-08
3.99832e-09
6.13304e-08
4.59679e-09
5.56276e-08
7.86541e-10
1.14009e-08
2.52625e-08
6.01262e-09
5.26556e-08
2.38598e-09
4.02673e-08
1.17655e-09
1.92643e-08
1.10704e-08
5.40891e-09
2.77235e-08
1.62579e-09
4.51638e-08
1.92043e-09
3.63436e-08
2.0911e-09
5.07973e-09
2.21417e-08
3.52627e-09
4.34483e-08
4.75833e-09
3.64724e-08
5.07341e-09
1.47115e-08
3.22156e-08
7.67092e-09
6.16878e-08
5.12985e-09
1.50843e-08
2.53047e-08
5.28232e-09
5.78531e-08
3.61728e-09
3.20377e-08
4.10501e-09
3.01579e-09
4.38145e-08
3.99946e-09
5.86375e-08
3.43539e-09
2.3129e-08
1.32224e-08
4.70315e-09
5.06354e-08
3.67785e-09
4.57342e-08
2.55994e-09
2.40495e-08
7.35326e-09
5.2496e-09
2.27355e-08
1.87465e-09
4.15078e-08
1.67598e-09
3.78411e-08
1.88686e-09
1.31774e-08
1.33796e-08
4.46638e-09
3.27361e-08
4.49291e-09
3.90855e-08
5.24487e-09
2.0805e-08
2.19143e-08
7.40917e-09
6.11512e-08
4.67704e-09
3.11156e-08
2.61435e-08
1.20808e-08
5.37648e-08
5.54467e-09
4.77083e-08
6.51339e-09
2.51151e-08
3.25967e-08
6.15282e-09
6.29454e-08
2.17709e-09
4.90665e-08
7.8605e-09
1.57193e-08
4.95813e-08
2.76623e-09
5.92205e-08
1.8888e-09
4.17916e-08
1.30462e-08
1.53754e-08
3.09186e-08
5.83281e-09
4.65777e-08
5.40569e-09
4.4981e-08
8.23896e-09
2.82587e-08
2.21143e-08
1.39269e-08
3.63774e-08
8.77255e-09
4.38721e-08
1.3157e-08
2.95441e-08
2.88998e-08
1.11539e-08
6.26582e-08
9.06736e-09
2.66894e-07
2.54936e-07
2.48746e-07
2.70354e-07
2.37595e-07
2.77908e-07
2.34531e-07
2.71956e-07
2.5123e-07
2.44247e-07
2.83972e-07
2.19505e-07
2.91573e-07
2.32107e-07
2.60458e-07
2.70563e-07
2.27406e-07
2.90828e-07
2.24112e-07
2.7883e-07
2.45301e-07
2.54779e-07
2.64714e-07
2.40978e-07
2.74383e-07
2.36882e-07
2.73785e-07
2.42116e-07
2.63698e-07
2.54533e-07
2.51391e-07
2.64795e-07
2.45146e-07
2.67737e-07
2.45992e-07
2.61585e-07
2.59512e-07
2.42638e-07
2.77627e-07
2.37672e-07
2.53622e-06
2.52084e-06
2.5257e-06
2.52975e-06
2.51663e-06
2.54045e-06
2.50618e-06
2.54502e-06
2.51288e-06
2.52424e-06
2.54354e-06
2.49372e-06
2.56177e-06
2.49546e-06
2.54024e-06
2.52863e-06
2.50714e-06
2.55157e-06
2.49946e-06
2.54438e-06
2.51673e-06
2.52448e-06
2.53322e-06
2.5133e-06
2.54039e-06
2.50944e-06
2.54117e-06
2.5122e-06
2.53491e-06
2.52127e-06
2.52512e-06
2.52976e-06
2.51955e-06
2.53294e-06
2.51814e-06
2.53126e-06
2.52586e-06
2.51775e-06
2.53972e-06
2.51113e-06
1.39695e-05
1.39498e-05
1.39646e-05
1.3954e-05
1.39589e-05
1.39633e-05
1.39461e-05
1.39743e-05
1.39429e-05
1.39648e-05
1.39642e-05
1.39381e-05
1.39862e-05
1.39288e-05
1.39802e-05
1.39464e-05
1.39592e-05
1.39634e-05
1.3951e-05
1.39624e-05
1.39588e-05
1.39531e-05
1.39659e-05
1.39489e-05
1.39696e-05
1.39448e-05
1.39741e-05
1.3942e-05
1.39738e-05
1.39467e-05
1.39656e-05
1.39569e-05
1.39557e-05
1.39657e-05
1.39487e-05
1.39688e-05
1.39526e-05
1.39571e-05
1.39671e-05
1.39467e-05
4.1649e-05
4.16387e-05
4.16493e-05
4.16365e-05
4.16515e-05
4.16376e-05
4.16445e-05
4.16493e-05
4.16326e-05
4.16561e-05
4.16348e-05
4.16462e-05
4.16485e-05
4.16343e-05
4.1656e-05
4.16319e-05
4.16563e-05
4.16315e-05
4.16588e-05
4.1628e-05
4.16623e-05
4.16277e-05
4.16581e-05
4.1635e-05
4.16517e-05
4.16375e-05
4.16544e-05
4.16312e-05
4.16611e-05
4.16273e-05
4.16598e-05
4.16341e-05
4.16483e-05
4.16478e-05
4.16345e-05
4.16575e-05
4.16321e-05
4.16506e-05
4.16441e-05
4.16395e-05
7.85237e-05
7.85421e-05
7.8522e-05
7.85367e-05
7.85342e-05
7.85227e-05
7.85451e-05
7.85198e-05
7.85402e-05
7.8531e-05
7.85276e-05
7.8543e-05
7.85186e-05
7.85498e-05
7.85151e-05
7.85495e-05
7.85212e-05
7.85371e-05
7.85394e-05
7.85157e-05
7.85597e-05
7.85014e-05
7.85635e-05
7.85084e-05
7.85486e-05
7.85252e-05
7.85345e-05
7.85324e-05
7.85343e-05
7.85266e-05
7.85417e-05
7.85204e-05
7.85435e-05
7.85234e-05
7.85354e-05
7.85328e-05
7.8528e-05
7.85356e-05
7.8528e-05
7.85363e-05
0.000112515
0.000112538
0.000112498
0.000112546
0.000112503
0.000112532
0.000112524
0.00011251
0.000112542
0.000112499
0.000112545
0.000112505
0.00011253
0.000112529
0.000112501
0.000112557
0.00011248
0.000112565
0.000112488
0.000112542
0.000112522
0.000112504
0.000112553
0.000112484
0.000112557
0.000112494
0.000112537
0.000112518
0.000112515
0.000112532
0.000112511
0.000112526
0.000112523
0.000112512
0.000112534
0.000112505
0.000112537
0.000112506
0.000112532
0.000112518
0.00014002
0.000140007
0.000139994
0.00014003
0.000139978
0.000140037
0.000139982
0.000140023
0.000140006
0.000139992
0.000140038
0.000139967
0.000140048
0.000139976
0.00014002
0.000140018
0.000139973
0.000140058
0.000139948
0.000140061
0.000139965
0.000140029
0.000140005
0.000139989
0.000140036
0.000139971
0.000140038
0.000139983
0.000140015
0.000140009
0.000139993
0.000140023
0.000139991
0.000140014
0.000140008
0.000139994
0.000140027
0.00013998
0.000140034
0.000139984
0.000161406
0.000161362
0.000161392
0.000161382
0.00016137
0.000161405
0.00016135
0.000161416
0.000161353
0.000161395
0.000161389
0.000161352
0.000161427
0.000161331
0.000161423
0.000161358
0.00016138
0.000161406
0.000161337
0.000161434
0.000161328
0.000161426
0.000161349
0.000161396
0.000161381
0.000161368
0.000161402
0.000161357
0.000161401
0.000161368
0.000161383
0.000161388
0.000161368
0.000161394
0.000161371
0.000161384
0.000161387
0.000161365
0.000161404
0.000161355
0.000177471
0.000177436
0.000177474
0.000177438
0.000177464
0.000177457
0.000177439
0.000177483
0.000177421
0.000177485
0.000177439
0.00017745
0.000177481
0.000177414
0.000177499
0.000177418
0.000177475
0.000177454
0.000177436
0.000177486
0.000177415
0.000177493
0.000177419
0.000177482
0.000177435
0.000177463
0.000177453
0.000177448
0.000177463
0.000177443
0.000177462
0.00017745
0.000177453
0.000177459
0.000177447
0.000177461
0.00017745
0.000177452
0.000177462
0.000177441
0.0001891
0.000189087
0.000189108
0.00018908
0.000189112
0.000189084
0.000189098
0.000189107
0.000189073
0.000189124
0.000189072
0.000189106
0.000189102
0.000189073
0.000189128
0.000189063
0.00018912
0.000189084
0.000189092
0.000189109
0.000189073
0.000189119
0.000189069
0.000189117
0.000189075
0.000189109
0.000189083
0.000189101
0.000189091
0.000189095
0.000189095
0.000189092
0.000189097
0.000189092
0.000189095
0.000189096
0.000189092
0.000189097
0.000189095
0.000189093
0.000197091
0.000197093
0.000197096
0.000197085
0.000197105
0.000197081
0.000197102
0.000197092
0.000197084
0.000197109
0.000197074
0.000197105
0.00019709
0.000197083
0.00019711
0.00019707
0.000197111
0.000197079
0.000197094
0.000197096
0.00019708
0.000197104
0.000197076
0.000197105
0.000197077
0.000197103
0.00019708
0.0001971
0.000197082
0.000197098
0.000197085
0.000197095
0.000197091
0.000197089
0.000197095
0.000197089
0.000197093
0.000197093
0.000197091
0.000197095
0.000202124
0.00020213
0.000202126
0.000202125
0.000202132
0.000202119
0.000202134
0.000202123
0.000202124
0.000202134
0.000202115
0.000202134
0.000202122
0.000202122
0.000202134
0.000202112
0.000202137
0.000202115
0.000202128
0.000202125
0.000202119
0.000202131
0.000202116
0.000202132
0.000202115
0.000202132
0.000202116
0.000202132
0.000202117
0.000202133
0.000202117
0.000202132
0.000202121
0.000202127
0.000202128
0.000202123
0.000202129
0.000202125
0.000202126
0.000202129
0.000204768
0.000204774
0.000204768
0.000204771
0.000204772
0.000204767
0.000204774
0.000204768
0.000204769
0.000204773
0.000204763
0.000204774
0.000204767
0.000204766
0.000204774
0.00020476
0.000204775
0.000204763
0.00020477
0.000204769
0.000204765
0.000204772
0.000204764
0.000204773
0.000204764
0.000204774
0.000204764
0.000204775
0.000204764
0.000204776
0.000204763
0.000204778
0.000204764
0.000204774
0.00020477
0.000204769
0.000204773
0.000204769
0.000204771
0.000204772
0.000205501
0.000205505
0.0002055
0.000205504
0.000205502
0.000205501
0.000205503
0.000205501
0.0002055
0.000205504
0.000205497
0.000205503
0.0002055
0.000205498
0.000205504
0.000205495
0.000205505
0.000205497
0.000205501
0.000205502
0.000205498
0.000205504
0.000205498
0.000205504
0.000205499
0.000205505
0.000205499
0.000205506
0.000205498
0.000205507
0.000205497
0.000205509
0.000205497
0.000205507
0.000205501
0.000205503
0.000205504
0.000205502
0.000205504
0.000205504
0.000204715
0.000204719
0.000204714
0.000204718
0.000204715
0.000204716
0.000204715
0.000204716
0.000204713
0.000204718
0.000204711
0.000204716
0.000204715
0.000204712
0.000204718
0.000204711
0.000204718
0.000204713
0.000204715
0.000204717
0.000204713
0.000204718
0.000204714
0.000204718
0.000204715
0.000204718
0.000204715
0.000204719
0.000204714
0.000204721
0.000204713
0.000204722
0.000204713
0.000204722
0.000204715
0.000204718
0.000204718
0.000204716
0.000204717
0.000204717
0.000202734
0.000202737
0.000202733
0.000202737
0.000202734
0.000202735
0.000202734
0.000202736
0.000202732
0.000202737
0.000202731
0.000202736
0.000202735
0.000202733
0.000202738
0.000202732
0.000202737
0.000202735
0.000202735
0.000202738
0.000202733
0.000202739
0.000202734
0.000202738
0.000202736
0.000202738
0.000202736
0.000202739
0.000202735
0.00020274
0.000202734
0.000202741
0.000202733
0.00020274
0.000202735
0.000202738
0.000202736
0.000202736
0.000202736
0.000202736
0.000199824
0.000199826
0.000199823
0.000199826
0.000199823
0.000199825
0.000199823
0.000199826
0.000199822
0.000199827
0.000199822
0.000199826
0.000199824
0.000199823
0.000199827
0.000199823
0.000199827
0.000199825
0.000199825
0.000199828
0.000199824
0.000199829
0.000199825
0.000199828
0.000199826
0.000199828
0.000199826
0.000199828
0.000199825
0.000199829
0.000199824
0.000199829
0.000199823
0.000199829
0.000199824
0.000199827
0.000199825
0.000199826
0.000199825
0.000199826
0.000196198
0.000196201
0.000196197
0.000196201
0.000196198
0.0001962
0.000196198
0.000196201
0.000196197
0.000196202
0.000196197
0.000196201
0.000196199
0.000196199
0.000196202
0.000196198
0.000196202
0.000196201
0.0001962
0.000196203
0.000196199
0.000196203
0.0001962
0.000196203
0.0001962
0.000196202
0.0001962
0.000196202
0.0001962
0.000196203
0.000196199
0.000196203
0.000196198
0.000196203
0.000196199
0.000196201
0.000196199
0.0001962
0.000196199
0.0001962
0.000192033
0.000192035
0.000192032
0.000192035
0.000192033
0.000192035
0.000192033
0.000192035
0.000192032
0.000192037
0.000192032
0.000192036
0.000192034
0.000192034
0.000192036
0.000192034
0.000192036
0.000192036
0.000192034
0.000192037
0.000192034
0.000192038
0.000192034
0.000192037
0.000192035
0.000192036
0.000192035
0.000192036
0.000192034
0.000192037
0.000192033
0.000192037
0.000192033
0.000192036
0.000192033
0.000192035
0.000192033
0.000192034
0.000192033
0.000192034
0.000187468
0.00018747
0.000187468
0.000187471
0.000187468
0.00018747
0.000187469
0.000187471
0.000187468
0.000187472
0.000187468
0.000187472
0.00018747
0.00018747
0.000187472
0.00018747
0.000187471
0.000187471
0.00018747
0.000187473
0.000187469
0.000187473
0.00018747
0.000187472
0.00018747
0.000187472
0.00018747
0.000187472
0.000187469
0.000187472
0.000187469
0.000187472
0.000187468
0.000187471
0.000187468
0.00018747
0.000187469
0.00018747
0.000187469
0.00018747
0.000182619
0.000182621
0.000182619
0.000182621
0.000182619
0.000182621
0.00018262
0.000182622
0.000182619
0.000182623
0.000182619
0.000182623
0.000182621
0.000182621
0.000182622
0.000182621
0.000182622
0.000182622
0.000182621
0.000182624
0.00018262
0.000182623
0.00018262
0.000182623
0.000182621
0.000182622
0.00018262
0.000182622
0.00018262
0.000182622
0.000182619
0.000182622
0.000182619
0.000182622
0.000182619
0.000182621
0.000182619
0.00018262
0.00018262
0.000182621
0.000177576
0.000177578
0.000177576
0.000177579
0.000177577
0.000177579
0.000177577
0.000177579
0.000177576
0.00017758
0.000177576
0.00017758
0.000177578
0.000177578
0.000177579
0.000177578
0.000177579
0.000177579
0.000177577
0.00017758
0.000177577
0.00017758
0.000177577
0.000177579
0.000177577
0.000177579
0.000177577
0.000177579
0.000177577
0.000177579
0.000177576
0.000177579
0.000177576
0.000177579
0.000177576
0.000177578
0.000177576
0.000177577
0.000177577
0.000177578
0.000172417
0.000172419
0.000172416
0.000172419
0.000172417
0.000172419
0.000172417
0.00017242
0.000172417
0.000172421
0.000172417
0.00017242
0.000172418
0.000172419
0.00017242
0.000172418
0.000172419
0.00017242
0.000172417
0.000172421
0.000172417
0.00017242
0.000172417
0.000172419
0.000172418
0.000172419
0.000172417
0.000172419
0.000172417
0.000172419
0.000172416
0.000172419
0.000172416
0.000172419
0.000172416
0.000172418
0.000172417
0.000172418
0.000172417
0.000172418
0.000167175
0.000167177
0.000167175
0.000167177
0.000167175
0.000167177
0.000167176
0.000167178
0.000167175
0.000167179
0.000167175
0.000167178
0.000167177
0.000167176
0.000167178
0.000167177
0.000167176
0.000167178
0.000167175
0.000167179
0.000167175
0.000167178
0.000167176
0.000167177
0.000167176
0.000167177
0.000167175
0.000167177
0.000167175
0.000167177
0.000167174
0.000167177
0.000167174
0.000167177
0.000167175
0.000167176
0.000167175
0.000167176
0.000167175
0.000167176
0.000162054
0.000162056
0.000162054
0.000162056
0.000162055
0.000162056
0.000162055
0.000162057
0.000162054
0.000162058
0.000162054
0.000162056
0.000162056
0.000162055
0.000162056
0.000162056
0.000162055
0.000162058
0.000162053
0.000162058
0.000162054
0.000162056
0.000162055
0.000162055
0.000162055
0.000162056
0.000162054
0.000162056
0.000162054
0.000162056
0.000162053
0.000162056
0.000162053
0.000162055
0.000162054
0.000162055
0.000162054
0.000162055
0.000162054
0.000162056
0.00015606
0.000156063
0.000156061
0.000156062
0.000156062
0.000156063
0.000156061
0.000156065
0.00015606
0.000156064
0.000156062
0.000156062
0.000156064
0.000156062
0.000156063
0.000156064
0.00015606
0.000156065
0.00015606
0.000156064
0.000156062
0.000156062
0.000156062
0.000156062
0.000156061
0.000156063
0.000156061
0.000156063
0.00015606
0.000156063
0.00015606
0.000156063
0.000156061
0.000156062
0.000156061
0.000156062
0.000156061
0.000156062
0.000156061
0.000156063
3.12358e-08
3.60093e-08
5.62068e-09
3.1323e-08
1.57212e-08
3.6734e-08
3.06625e-08
1.32496e-08
2.10399e-08
4.62999e-09
1.59104e-08
2.3761e-08
2.15005e-08
1.3682e-08
2.65457e-08
4.81964e-09
1.01133e-08
1.48432e-08
4.52599e-09
3.3406e-08
8.32445e-09
2.55195e-08
1.70292e-08
7.65082e-09
3.16484e-08
2.19955e-09
3.17088e-08
1.89926e-08
1.98684e-08
4.2451e-08
5.28488e-09
3.77141e-08
4.82905e-09
1.26251e-08
3.87558e-08
1.49016e-08
4.03389e-08
4.42987e-09
2.25921e-08
2.54493e-08
2.05016e-08
5.16104e-08
4.59608e-09
5.52764e-08
7.41645e-09
2.43949e-08
3.90372e-08
8.27259e-09
5.00532e-08
9.57914e-10
2.15537e-08
1.90033e-08
1.91344e-08
2.64296e-08
9.37185e-09
1.57054e-08
2.51332e-09
2.41625e-08
5.37179e-09
2.38861e-08
9.60408e-09
1.0955e-08
2.32858e-08
3.03701e-09
4.23626e-08
1.96443e-09
3.19456e-08
9.13429e-09
9.77615e-09
4.5016e-08
5.18832e-09
5.13115e-08
2.42096e-09
1.06981e-08
2.53584e-08
1.28846e-08
5.06278e-08
6.03356e-09
3.91439e-08
1.55472e-08
1.35296e-08
5.04469e-08
5.0758e-09
6.64165e-08
2.9168e-09
1.54812e-08
3.45051e-08
6.70642e-09
6.57138e-08
3.10906e-09
3.74737e-08
4.90335e-09
1.4987e-08
3.27265e-08
7.49996e-09
4.07594e-08
1.08731e-09
3.14997e-08
2.85591e-09
1.95803e-08
1.20906e-08
7.24843e-09
2.65827e-08
1.78605e-09
4.49531e-08
1.96471e-09
3.4916e-08
3.32404e-09
5.02821e-09
3.33084e-08
4.21752e-09
4.98317e-08
4.80416e-09
2.55547e-08
8.6496e-09
1.19655e-08
4.28191e-08
7.49022e-09
5.41988e-08
7.31977e-09
1.17171e-08
3.71618e-08
4.97803e-09
6.5596e-08
3.3517e-09
1.97555e-08
1.60486e-08
4.32282e-09
6.0852e-08
4.86039e-09
5.38371e-08
7.96683e-10
1.19955e-08
2.5496e-08
6.69637e-09
5.11503e-08
2.32576e-09
3.90134e-08
1.55017e-09
2.01809e-08
1.10347e-08
6.59504e-09
2.43685e-08
1.49536e-09
4.26694e-08
1.83261e-09
3.69065e-08
2.66702e-09
8.03776e-09
1.86717e-08
3.50933e-09
3.81198e-08
5.54482e-09
3.54524e-08
5.31685e-09
1.68237e-08
2.68094e-08
7.8507e-09
5.91306e-08
5.50108e-09
1.70579e-08
2.35439e-08
4.91986e-09
5.7397e-08
3.74047e-09
3.14702e-08
5.09116e-09
3.42272e-09
4.36407e-08
4.517e-09
5.7228e-08
3.65569e-09
2.31456e-08
1.46272e-08
5.79333e-09
4.97734e-08
3.85226e-09
4.48578e-08
2.8983e-09
2.49775e-08
7.75304e-09
6.69603e-09
2.07038e-08
1.89949e-09
3.96209e-08
1.54375e-09
3.69255e-08
2.38306e-09
1.61838e-08
1.26207e-08
5.85335e-09
2.62685e-08
4.84408e-09
3.65545e-08
5.5777e-09
2.49834e-08
1.72598e-08
7.47722e-09
5.79295e-08
5.0521e-09
3.27337e-08
2.42353e-08
1.23521e-08
5.2897e-08
5.30963e-09
4.76513e-08
5.71568e-09
2.55448e-08
3.21045e-08
6.20138e-09
6.25574e-08
1.93162e-09
4.92498e-08
9.10375e-09
1.61014e-08
5.00046e-08
2.44562e-09
5.95178e-08
2.03921e-09
4.21808e-08
1.38897e-08
1.47404e-08
3.09318e-08
6.11088e-09
4.52454e-08
6.71027e-09
4.21094e-08
9.48541e-09
2.88667e-08
2.11166e-08
1.80134e-08
3.05976e-08
1.07413e-08
4.03181e-08
1.32235e-08
3.332e-08
2.50309e-08
1.21183e-08
5.92553e-08
9.16945e-09
2.67075e-07
2.5203e-07
2.49085e-07
2.68718e-07
2.36105e-07
2.77887e-07
2.32155e-07
2.71956e-07
2.49815e-07
2.42737e-07
2.83954e-07
2.17178e-07
2.91523e-07
2.30702e-07
2.59038e-07
2.70796e-07
2.24627e-07
2.91292e-07
2.22324e-07
2.77931e-07
2.4506e-07
2.5251e-07
2.64877e-07
2.39518e-07
2.72535e-07
2.38167e-07
2.69421e-07
2.4395e-07
2.612e-07
2.52705e-07
2.53617e-07
2.58883e-07
2.48746e-07
2.63319e-07
2.45648e-07
2.62409e-07
2.5496e-07
2.44958e-07
2.74074e-07
2.36999e-07
2.52958e-06
2.51194e-06
2.51964e-06
2.522e-06
2.50869e-06
2.53453e-06
2.49702e-06
2.53952e-06
2.50451e-06
2.51714e-06
2.53691e-06
2.48564e-06
2.55529e-06
2.48813e-06
2.53228e-06
2.52295e-06
2.49791e-06
2.5462e-06
2.49102e-06
2.53744e-06
2.51009e-06
2.51589e-06
2.52737e-06
2.50505e-06
2.53272e-06
2.50398e-06
2.53072e-06
2.5082e-06
2.52513e-06
2.51434e-06
2.51964e-06
2.51864e-06
2.51635e-06
2.52236e-06
2.51172e-06
2.52519e-06
2.5154e-06
2.51372e-06
2.52976e-06
2.50454e-06
1.39447e-05
1.39251e-05
1.39412e-05
1.39293e-05
1.39347e-05
1.394e-05
1.39207e-05
1.39524e-05
1.39169e-05
1.39429e-05
1.39386e-05
1.39158e-05
1.39609e-05
1.39065e-05
1.39546e-05
1.39243e-05
1.39333e-05
1.3941e-05
1.39257e-05
1.39389e-05
1.39346e-05
1.39284e-05
1.39426e-05
1.39237e-05
1.39455e-05
1.39215e-05
1.39474e-05
1.39205e-05
1.39465e-05
1.39239e-05
1.3941e-05
1.39309e-05
1.39333e-05
1.39393e-05
1.39246e-05
1.39456e-05
1.39253e-05
1.39361e-05
1.39396e-05
1.39241e-05
4.16094e-05
4.16029e-05
4.16113e-05
4.15994e-05
4.16149e-05
4.15997e-05
4.16083e-05
4.16119e-05
4.1595e-05
4.16206e-05
4.1595e-05
4.16126e-05
4.16072e-05
4.16011e-05
4.1615e-05
4.15973e-05
4.16168e-05
4.15951e-05
4.16204e-05
4.15907e-05
4.16241e-05
4.159e-05
4.16203e-05
4.15965e-05
4.16144e-05
4.15989e-05
4.16161e-05
4.1594e-05
4.16216e-05
4.15908e-05
4.16204e-05
4.15969e-05
4.16099e-05
4.16102e-05
4.15958e-05
4.16214e-05
4.15918e-05
4.16161e-05
4.16032e-05
4.16051e-05
7.8488e-05
7.8511e-05
7.84855e-05
7.85058e-05
7.84985e-05
7.84895e-05
7.85122e-05
7.84836e-05
7.85092e-05
7.8494e-05
7.84951e-05
7.85088e-05
7.84818e-05
7.85193e-05
7.84756e-05
7.85196e-05
7.84826e-05
7.85048e-05
7.85036e-05
7.8481e-05
7.85251e-05
7.84665e-05
7.85285e-05
7.84738e-05
7.85139e-05
7.849e-05
7.85008e-05
7.84964e-05
7.85014e-05
7.84907e-05
7.85084e-05
7.84858e-05
7.85088e-05
7.84906e-05
7.84995e-05
7.85014e-05
7.84917e-05
7.85042e-05
7.84923e-05
7.85047e-05
0.000112492
0.000112514
0.000112473
0.000112525
0.000112474
0.000112512
0.000112496
0.000112488
0.000112519
0.000112471
0.000112526
0.000112475
0.000112509
0.000112503
0.000112474
0.000112536
0.00011245
0.000112545
0.00011246
0.000112519
0.000112497
0.000112479
0.00011253
0.00011246
0.000112532
0.000112472
0.000112511
0.000112495
0.000112493
0.000112505
0.000112492
0.000112498
0.000112503
0.000112487
0.00011251
0.000112484
0.000112511
0.000112485
0.000112507
0.000112494
0.000140006
0.000139989
0.000139982
0.000140014
0.000139961
0.000140026
0.000139961
0.000140012
0.000139987
0.000139977
0.000140025
0.000139946
0.000140039
0.000139955
0.000140008
0.000140002
0.000139956
0.000140047
0.000139929
0.00014005
0.000139949
0.000140014
0.000139992
0.000139974
0.000140021
0.000139959
0.00014002
0.000139973
0.000139999
0.000139995
0.000139982
0.000140003
0.000139984
0.000139994
0.000139997
0.000139979
0.00014001
0.000139969
0.000140016
0.000139969
0.000161398
0.000161353
0.000161387
0.000161371
0.000161363
0.000161398
0.000161339
0.000161412
0.000161341
0.000161391
0.000161381
0.000161343
0.000161423
0.000161319
0.000161421
0.000161348
0.000161374
0.0001614
0.000161328
0.00016143
0.000161319
0.000161419
0.000161343
0.000161388
0.000161375
0.000161362
0.000161392
0.000161356
0.000161388
0.000161366
0.000161375
0.000161378
0.000161367
0.000161381
0.00016137
0.000161373
0.000161381
0.000161359
0.000161394
0.000161349
0.00017747
0.000177433
0.000177475
0.000177435
0.000177465
0.000177455
0.000177437
0.000177484
0.000177417
0.000177487
0.000177437
0.000177449
0.000177482
0.00017741
0.000177502
0.000177414
0.000177476
0.000177454
0.000177434
0.000177487
0.000177414
0.000177493
0.000177419
0.00017748
0.000177436
0.000177462
0.000177451
0.000177451
0.000177458
0.000177448
0.000177457
0.00017745
0.000177454
0.000177453
0.000177452
0.000177455
0.000177452
0.000177451
0.00017746
0.000177441
0.000189104
0.00018909
0.000189113
0.000189082
0.000189118
0.000189087
0.000189102
0.000189112
0.000189076
0.000189129
0.000189076
0.00018911
0.000189108
0.000189075
0.000189135
0.000189065
0.000189126
0.000189088
0.000189097
0.000189115
0.000189077
0.000189125
0.000189075
0.000189121
0.000189081
0.000189113
0.000189088
0.000189108
0.000189091
0.000189104
0.000189096
0.000189099
0.000189101
0.000189095
0.000189103
0.000189097
0.000189099
0.0001891
0.000189099
0.000189097
0.0001971
0.0001971
0.000197106
0.000197091
0.000197114
0.000197087
0.00019711
0.000197101
0.000197091
0.000197118
0.000197082
0.000197114
0.000197099
0.00019709
0.000197121
0.000197076
0.000197121
0.000197087
0.000197104
0.000197105
0.000197089
0.000197113
0.000197085
0.000197113
0.000197086
0.000197111
0.000197088
0.00019711
0.000197088
0.00019711
0.00019709
0.000197106
0.000197098
0.000197097
0.000197104
0.000197095
0.000197103
0.0001971
0.000197099
0.000197102
0.000202135
0.00020214
0.000202138
0.000202135
0.000202144
0.000202129
0.000202145
0.000202134
0.000202135
0.000202145
0.000202126
0.000202146
0.000202134
0.000202132
0.000202148
0.000202122
0.00020215
0.000202126
0.00020214
0.000202137
0.000202131
0.000202143
0.000202128
0.000202143
0.000202128
0.000202143
0.000202128
0.000202144
0.000202127
0.000202146
0.000202126
0.000202145
0.000202131
0.000202138
0.000202139
0.000202133
0.000202141
0.000202135
0.000202137
0.000202139
0.000204782
0.000204786
0.000204782
0.000204784
0.000204786
0.000204779
0.000204788
0.000204781
0.000204782
0.000204787
0.000204777
0.000204787
0.000204781
0.000204779
0.000204789
0.000204773
0.00020479
0.000204776
0.000204784
0.000204782
0.000204779
0.000204785
0.000204778
0.000204786
0.000204778
0.000204786
0.000204777
0.000204788
0.000204776
0.00020479
0.000204774
0.000204792
0.000204776
0.000204787
0.000204783
0.000204782
0.000204787
0.000204782
0.000204785
0.000204785
0.000205516
0.00020552
0.000205515
0.000205518
0.000205517
0.000205515
0.000205518
0.000205516
0.000205515
0.000205519
0.000205512
0.000205518
0.000205516
0.000205512
0.000205521
0.000205509
0.000205521
0.000205512
0.000205516
0.000205516
0.000205514
0.000205518
0.000205514
0.000205518
0.000205514
0.000205519
0.000205514
0.00020552
0.000205512
0.000205522
0.000205511
0.000205524
0.000205511
0.000205522
0.000205516
0.000205517
0.000205519
0.000205516
0.000205518
0.000205518
0.000204731
0.000204734
0.00020473
0.000204733
0.000204731
0.000204731
0.000204731
0.000204732
0.000204729
0.000204734
0.000204728
0.000204732
0.000204731
0.000204728
0.000204735
0.000204726
0.000204734
0.000204729
0.000204731
0.000204732
0.000204729
0.000204733
0.00020473
0.000204733
0.000204731
0.000204733
0.00020473
0.000204735
0.000204729
0.000204736
0.000204728
0.000204738
0.000204728
0.000204737
0.000204731
0.000204733
0.000204733
0.000204732
0.000204733
0.000204733
0.000202751
0.000202753
0.00020275
0.000202753
0.000202751
0.000202752
0.000202751
0.000202752
0.000202749
0.000202754
0.000202748
0.000202752
0.000202752
0.000202748
0.000202755
0.000202747
0.000202754
0.00020275
0.000202751
0.000202753
0.00020275
0.000202754
0.000202751
0.000202753
0.000202752
0.000202753
0.000202752
0.000202754
0.000202751
0.000202756
0.00020275
0.000202757
0.000202749
0.000202756
0.000202751
0.000202754
0.000202753
0.000202752
0.000202753
0.000202753
0.000199841
0.000199843
0.00019984
0.000199842
0.00019984
0.000199842
0.00019984
0.000199842
0.000199838
0.000199844
0.000199838
0.000199842
0.000199841
0.000199839
0.000199844
0.000199838
0.000199844
0.000199841
0.000199841
0.000199844
0.00019984
0.000199844
0.000199841
0.000199843
0.000199842
0.000199843
0.000199842
0.000199844
0.000199841
0.000199845
0.00019984
0.000199845
0.00019984
0.000199845
0.000199841
0.000199843
0.000199842
0.000199842
0.000199842
0.000199842
0.000196215
0.000196217
0.000196215
0.000196217
0.000196215
0.000196216
0.000196215
0.000196217
0.000196213
0.000196218
0.000196213
0.000196217
0.000196216
0.000196215
0.000196219
0.000196214
0.000196218
0.000196216
0.000196216
0.000196219
0.000196215
0.000196219
0.000196216
0.000196218
0.000196217
0.000196218
0.000196217
0.000196218
0.000196216
0.000196219
0.000196215
0.000196219
0.000196215
0.000196219
0.000196215
0.000196217
0.000196216
0.000196216
0.000196216
0.000196216
0.000192049
0.000192051
0.000192049
0.000192051
0.000192049
0.000192051
0.000192049
0.000192051
0.000192048
0.000192053
0.000192048
0.000192052
0.00019205
0.00019205
0.000192053
0.000192049
0.000192052
0.000192051
0.00019205
0.000192053
0.00019205
0.000192053
0.00019205
0.000192052
0.000192051
0.000192052
0.000192051
0.000192052
0.00019205
0.000192053
0.000192049
0.000192053
0.000192049
0.000192052
0.000192049
0.000192051
0.00019205
0.00019205
0.00019205
0.00019205
0.000187484
0.000187486
0.000187484
0.000187486
0.000187485
0.000187486
0.000187485
0.000187487
0.000187484
0.000187488
0.000187484
0.000187487
0.000187486
0.000187485
0.000187488
0.000187485
0.000187487
0.000187486
0.000187486
0.000187488
0.000187485
0.000187488
0.000187485
0.000187487
0.000187486
0.000187487
0.000187486
0.000187487
0.000187485
0.000187487
0.000187485
0.000187487
0.000187484
0.000187487
0.000187485
0.000187486
0.000187485
0.000187485
0.000187485
0.000187486
0.000182635
0.000182636
0.000182635
0.000182636
0.000182635
0.000182636
0.000182635
0.000182637
0.000182634
0.000182638
0.000182634
0.000182638
0.000182636
0.000182636
0.000182638
0.000182635
0.000182637
0.000182637
0.000182636
0.000182638
0.000182635
0.000182638
0.000182636
0.000182637
0.000182636
0.000182637
0.000182636
0.000182637
0.000182635
0.000182637
0.000182635
0.000182637
0.000182635
0.000182637
0.000182635
0.000182636
0.000182635
0.000182636
0.000182635
0.000182636
0.000177591
0.000177593
0.000177591
0.000177593
0.000177592
0.000177593
0.000177592
0.000177594
0.000177591
0.000177595
0.000177591
0.000177594
0.000177593
0.000177593
0.000177594
0.000177592
0.000177594
0.000177594
0.000177592
0.000177595
0.000177592
0.000177595
0.000177592
0.000177594
0.000177593
0.000177593
0.000177592
0.000177593
0.000177592
0.000177594
0.000177591
0.000177594
0.000177591
0.000177593
0.000177591
0.000177593
0.000177592
0.000177592
0.000177592
0.000177592
0.000172431
0.000172433
0.000172431
0.000172433
0.000172432
0.000172433
0.000172432
0.000172434
0.000172431
0.000172435
0.000172431
0.000172434
0.000172433
0.000172432
0.000172434
0.000172432
0.000172433
0.000172434
0.000172432
0.000172435
0.000172431
0.000172434
0.000172432
0.000172433
0.000172432
0.000172433
0.000172432
0.000172433
0.000172431
0.000172433
0.000172431
0.000172433
0.000172431
0.000172433
0.000172431
0.000172432
0.000172432
0.000172432
0.000172432
0.000172432
0.000167189
0.000167191
0.000167189
0.000167191
0.000167189
0.00016719
0.000167189
0.000167191
0.000167189
0.000167192
0.000167189
0.000167191
0.000167191
0.00016719
0.000167192
0.00016719
0.00016719
0.000167192
0.000167189
0.000167192
0.000167189
0.000167191
0.00016719
0.00016719
0.00016719