/*--------------------------------*- C++ -*----------------------------------*\
  =========                 |
  \\      /  F ield         | OpenFOAM: The Open Source CFD Toolbox
   \\    /   O peration     | Website:  https://openfoam.org
    \\  /    A nd           | Version:  10
     \\/     M anipulation  |
\*---------------------------------------------------------------------------*/
FoamFile
{
    format      ascii;
    class       volScalarField;
    location    "50";
    object      p;
}
// * * * * * * * * * * * * * * * * * * * * * * * * * * * * * * * * * * * * * //

dimensions      [0 2 -2 0 0 0 0];

internalField   nonuniform List<scalar> 
25600
(
1.11518e-06
2.58165e-06
1.46567e-06
1.68231e-06
2.56283e-06
7.34944e-07
2.93657e-06
1.38918e-06
1.43374e-06
2.76531e-06
1.1113e-06
1.86473e-06
2.55415e-06
1.01861e-06
2.18912e-06
2.28855e-06
7.92447e-07
2.95572e-06
1.13749e-06
1.90924e-06
2.32643e-06
7.49339e-07
3.19156e-06
7.30732e-07
2.29798e-06
2.22295e-06
8.28805e-07
3.21496e-06
4.4251e-07
2.92113e-06
1.63045e-06
9.4692e-07
3.47527e-06
4.12854e-07
2.7362e-06
1.69907e-06
1.72464e-06
2.25938e-06
1.19142e-06
2.70709e-06
-8.95016e-07
3.52969e-06
1.3451e-06
8.95452e-07
3.83495e-06
-6.18911e-07
3.8523e-06
8.92125e-07
1.43142e-06
3.12117e-06
3.67628e-07
2.91383e-06
1.31124e-06
1.94224e-06
1.74492e-06
2.01386e-06
1.52855e-06
2.09003e-06
1.92848e-06
1.31179e-06
2.88868e-06
6.3812e-07
3.14899e-06
8.51689e-07
2.12972e-06
2.48232e-06
4.39444e-07
3.70736e-06
-8.54603e-08
3.29385e-06
1.42056e-06
1.00451e-06
3.55272e-06
1.18204e-07
3.28695e-06
7.04889e-07
2.68078e-06
1.83662e-06
6.32466e-07
3.95759e-06
-1.62082e-06
4.33018e-06
9.87725e-07
8.2055e-07
4.20222e-06
-1.16285e-06
4.46529e-06
2.70169e-07
1.99223e-06
2.78251e-06
1.95827e-07
3.68752e-06
1.70753e-07
3.04363e-06
1.08523e-06
1.99319e-06
2.07228e-06
1.37001e-06
2.57937e-06
8.40506e-07
3.03127e-06
6.47805e-07
3.053e-06
9.07009e-07
2.1429e-06
2.44006e-06
4.5802e-07
3.74135e-06
-1.56093e-07
3.44762e-06
1.12281e-06
1.46725e-06
2.98881e-06
5.06944e-07
3.36925e-06
6.58204e-10
3.80513e-06
9.93592e-07
7.91109e-07
4.55477e-06
-1.82185e-06
4.694e-06
5.41475e-07
1.26219e-06
3.80116e-06
-9.47587e-07
4.58426e-06
-2.33163e-07
2.79132e-06
1.97472e-06
6.07738e-07
3.87569e-06
-5.28753e-07
3.90366e-06
4.57525e-07
2.22166e-06
2.21766e-06
1.05807e-06
2.9005e-06
5.93807e-07
3.10659e-06
6.69216e-07
2.99619e-06
8.62464e-07
2.28532e-06
2.24232e-06
6.84768e-07
3.53286e-06
1.08975e-08
3.42587e-06
9.54831e-07
2.0066e-06
2.24824e-06
1.18954e-06
3.06871e-06
-3.22109e-07
4.38771e-06
1.32484e-07
1.32902e-06
4.48521e-06
-1.65028e-06
4.77266e-06
2.36349e-07
1.83127e-06
3.10643e-06
-3.35093e-07
4.29408e-06
-4.31057e-07
3.41318e-06
1.17439e-06
1.24948e-06
3.57436e-06
-6.34157e-07
4.28811e-06
2.61672e-08
2.55879e-06
1.98248e-06
1.13872e-06
2.86687e-06
5.70236e-07
3.13557e-06
6.44441e-07
3.03641e-06
7.5458e-07
2.46202e-06
2.00674e-06
9.58578e-07
3.25675e-06
2.58594e-07
3.30002e-06
8.29398e-07
2.42104e-06
1.62696e-06
1.80005e-06
2.71677e-06
-3.73066e-07
4.86922e-06
-4.42467e-07
1.85011e-06
4.14381e-06
-1.30115e-06
4.62398e-06
1.23621e-07
2.24883e-06
2.44728e-06
3.26876e-07
3.80392e-06
-2.98539e-07
3.68677e-06
6.16529e-07
1.8787e-06
2.97252e-06
-3.20149e-07
4.17987e-06
-9.78887e-08
2.86156e-06
1.59763e-06
1.54465e-06
2.57954e-06
7.34888e-07
3.09925e-06
5.92324e-07
3.1349e-06
6.28606e-07
2.61475e-06
1.81427e-06
1.17542e-06
3.0065e-06
5.01114e-07
3.13804e-06
8.06184e-07
2.64105e-06
1.23227e-06
2.19581e-06
2.44406e-06
-2.99761e-07
4.91885e-06
-6.98199e-07
2.21036e-06
3.75291e-06
-9.10068e-07
4.33576e-06
2.12238e-07
2.41952e-06
2.06368e-06
8.70916e-07
3.26589e-06
9.85625e-08
3.56876e-06
4.04244e-07
2.37538e-06
2.32181e-06
3.0554e-07
3.70036e-06
5.59244e-08
3.06751e-06
1.12947e-06
2.09614e-06
2.11359e-06
1.01671e-06
3.01838e-06
5.31071e-07
3.24537e-06
5.28274e-07
2.70697e-06
1.7108e-06
1.32679e-06
2.83015e-06
6.94284e-07
2.98627e-06
8.70946e-07
2.70661e-06
1.08948e-06
2.33838e-06
2.31408e-06
-1.36925e-07
4.8047e-06
-6.35515e-07
2.34039e-06
3.44362e-06
-5.96567e-07
3.99736e-06
4.49533e-07
2.3409e-06
1.94144e-06
1.21217e-06
2.75804e-06
6.52472e-07
3.14293e-06
5.29155e-07
2.66338e-06
1.6859e-06
1.25442e-06
2.98808e-06
4.13128e-07
3.17492e-06
6.63259e-07
2.69796e-06
1.57917e-06
1.34243e-06
2.92836e-06
4.5689e-07
3.35814e-06
4.653e-07
2.72792e-06
1.69543e-06
1.3853e-06
2.7313e-06
8.24712e-07
2.87e-06
9.49602e-07
2.65841e-06
1.1544e-06
2.24558e-06
2.35607e-06
-4.72657e-09
4.52382e-06
-3.45657e-07
2.24537e-06
3.28161e-06
-3.66963e-07
3.68087e-06
7.87228e-07
2.06856e-06
2.07409e-06
1.33935e-06
2.32662e-06
1.29015e-06
2.50339e-06
9.10072e-07
2.74881e-06
1.09184e-06
2.10416e-06
2.13374e-06
9.06488e-07
3.18873e-06
2.30135e-07
3.30564e-06
1.03638e-06
1.68078e-06
2.84303e-06
3.72657e-07
3.46804e-06
4.36082e-07
2.68371e-06
1.74636e-06
1.37786e-06
2.69374e-06
9.00822e-07
2.79429e-06
1.02444e-06
2.55903e-06
1.34013e-06
1.99636e-06
2.53248e-06
7.85831e-08
4.18958e-06
7.18806e-08
1.99739e-06
3.26903e-06
-2.26145e-07
3.41117e-06
1.13822e-06
1.67313e-06
2.36302e-06
1.3014e-06
2.00017e-06
1.91806e-06
1.78237e-06
1.41743e-06
2.71028e-06
5.9266e-07
2.9359e-06
1.29301e-06
1.41501e-06
3.17031e-06
-1.58395e-07
3.86101e-06
5.45263e-07
1.97399e-06
2.79304e-06
2.68065e-07
3.57611e-06
4.36392e-07
2.60617e-06
1.84346e-06
1.32836e-06
2.69481e-06
9.39141e-07
2.75499e-06
1.0843e-06
2.44087e-06
1.58737e-06
1.66823e-06
2.78797e-06
1.15637e-07
3.8423e-06
5.45018e-07
1.67356e-06
3.34386e-06
-1.43551e-07
3.21097e-06
1.44082e-06
1.30722e-06
2.6857e-06
1.18006e-06
1.79682e-06
2.41202e-06
1.1411e-06
1.8999e-06
2.60047e-06
2.48967e-07
3.57713e-06
6.30496e-07
1.82182e-06
3.14569e-06
-4.47116e-07
4.26816e-06
1.72207e-07
2.16699e-06
2.78625e-06
1.64267e-07
3.66113e-06
4.67027e-07
2.50237e-06
1.95658e-06
1.26391e-06
2.70648e-06
9.62922e-07
2.72727e-06
1.13485e-06
2.33234e-06
1.81975e-06
1.36245e-06
3.02831e-06
1.37785e-07
3.53502e-06
9.76901e-07
1.36589e-06
3.45222e-06
-7.75551e-08
3.07819e-06
1.63837e-06
1.05628e-06
2.92921e-06
1.05414e-06
1.71243e-06
2.69885e-06
7.38721e-07
2.24707e-06
2.47489e-06
8.85272e-08
3.93397e-06
2.40058e-07
2.06743e-06
3.11879e-06
-5.94796e-07
4.46941e-06
1.19696e-08
2.24959e-06
2.7996e-06
1.063e-07
3.68754e-06
5.268e-07
2.39996e-06
2.05454e-06
1.2243e-06
2.70138e-06
9.94353e-07
2.69405e-06
1.1804e-06
2.25379e-06
1.98223e-06
1.14879e-06
3.18731e-06
1.86219e-07
3.28483e-06
1.29727e-06
1.15225e-06
3.50658e-06
1.21994e-09
2.99143e-06
1.71754e-06
9.58044e-07
3.03785e-06
9.84948e-07
1.70227e-06
2.78983e-06
5.81317e-07
2.41377e-06
2.38993e-06
6.08605e-08
4.03547e-06
1.10321e-07
2.1506e-06
3.10364e-06
-6.19225e-07
4.50409e-06
-1.63394e-10
2.25232e-06
2.81166e-06
1.01124e-07
3.65355e-06
5.99961e-07
2.31942e-06
2.11062e-06
1.21677e-06
2.67791e-06
1.03886e-06
2.65157e-06
1.22705e-06
2.20169e-06
2.06762e-06
1.04925e-06
3.23987e-06
2.71258e-07
3.09343e-06
1.49276e-06
1.06296e-06
3.48298e-06
1.06505e-07
2.9118e-06
1.7253e-06
9.85553e-07
3.01188e-06
1.00407e-06
1.69744e-06
2.77798e-06
5.81343e-07
2.43367e-06
2.3597e-06
9.56833e-08
4.00658e-06
1.25915e-07
2.15257e-06
3.07338e-06
-5.55653e-07
4.42075e-06
5.45813e-08
2.24443e-06
2.77704e-06
1.64359e-07
3.57511e-06
6.75274e-07
2.2778e-06
2.10704e-06
1.25628e-06
2.6223e-06
1.10659e-06
2.60397e-06
1.26419e-06
2.18313e-06
2.08008e-06
1.04951e-06
3.19708e-06
3.85741e-07
2.95053e-06
1.58232e-06
1.08735e-06
3.33722e-06
4.24412e-07
2.81752e-06
1.71424e-06
1.0739e-06
2.87682e-06
1.0965e-06
1.67884e-06
2.72876e-06
6.51252e-07
2.38807e-06
2.34371e-06
1.70188e-07
3.90095e-06
2.05971e-07
2.13856e-06
3.00058e-06
-4.16571e-07
4.26174e-06
1.55366e-07
2.24116e-06
2.69297e-06
2.94495e-07
3.44331e-06
7.72865e-07
2.24708e-06
2.07514e-06
1.33079e-06
2.53148e-06
1.20188e-06
2.53234e-06
1.31488e-06
2.17256e-06
2.04734e-06
1.12298e-06
3.06278e-06
5.3832e-07
2.82337e-06
1.61376e-06
1.18359e-06
3.14873e-06
5.94726e-07
2.70468e-06
1.71137e-06
1.17338e-06
2.7445e-06
1.19902e-06
1.65436e-06
2.6716e-06
7.37051e-07
2.3321e-06
2.3172e-06
2.74428e-07
3.75918e-06
3.0879e-07
2.13149e-06
2.89209e-06
-2.28017e-07
4.06197e-06
2.80413e-07
2.23991e-06
2.58318e-06
4.6157e-07
3.28174e-06
8.83598e-07
2.21624e-06
2.03762e-06
1.41215e-06
2.43636e-06
1.29911e-06
2.44815e-06
1.37934e-06
2.15145e-06
2.00999e-06
1.22235e-06
2.90759e-06
7.0778e-07
2.69961e-06
1.62886e-06
1.29774e-06
2.95557e-06
7.62048e-07
2.597e-06
1.71202e-06
1.26407e-06
2.6206e-06
1.28948e-06
1.64031e-06
2.60856e-06
8.21915e-07
2.28812e-06
2.27039e-06
4.03216e-07
3.6007e-06
4.15579e-07
2.13858e-06
2.75897e-06
-1.38412e-08
3.84734e-06
4.09853e-07
2.24273e-06
2.46402e-06
6.3958e-07
3.11398e-06
9.93496e-07
2.18794e-06
2.00013e-06
1.48846e-06
2.35021e-06
1.38624e-06
2.36933e-06
1.44241e-06
2.1265e-06
1.97896e-06
1.31912e-06
2.75903e-06
8.67111e-07
2.58947e-06
1.63779e-06
1.40482e-06
2.77647e-06
9.1107e-07
2.50409e-06
1.71034e-06
1.34619e-06
2.51179e-06
1.36279e-06
1.64052e-06
2.54007e-06
9.05687e-07
2.25552e-06
2.21041e-06
5.43762e-07
3.43793e-06
5.20522e-07
2.15348e-06
2.61804e-06
2.03972e-07
3.63615e-06
5.34003e-07
2.24776e-06
2.34714e-06
8.11478e-07
2.95465e-06
1.09448e-06
2.16392e-06
1.96448e-06
1.5572e-06
2.27503e-06
1.45975e-06
2.30315e-06
1.4955e-06
2.10463e-06
1.95244e-06
1.4039e-06
2.63074e-06
1.0038e-06
2.49774e-06
1.64216e-06
1.49875e-06
2.62114e-06
1.03766e-06
2.4275e-06
1.70598e-06
1.41978e-06
2.41802e-06
1.42129e-06
1.6508e-06
2.47108e-06
9.84156e-07
2.23048e-06
2.14711e-06
6.82366e-07
3.28285e-06
6.17335e-07
2.17137e-06
2.48269e-06
4.0873e-07
3.44171e-06
6.45593e-07
2.25457e-06
2.23928e-06
9.67458e-07
2.81213e-06
1.18243e-06
2.1448e-06
1.93187e-06
1.61718e-06
2.21063e-06
1.52109e-06
2.2492e-06
1.53755e-06
2.08861e-06
1.92787e-06
1.47672e-06
2.52376e-06
1.11592e-06
2.42522e-06
1.6424e-06
1.57896e-06
2.49049e-06
1.14248e-06
2.36592e-06
1.69988e-06
1.48425e-06
2.33875e-06
1.46803e-06
1.66593e-06
2.40654e-06
1.05415e-06
2.21124e-06
2.08671e-06
8.09626e-07
3.14364e-06
7.01882e-07
2.19044e-06
2.35992e-06
5.91234e-07
3.27119e-06
7.41071e-07
2.26331e-06
2.14335e-06
1.10362e-06
2.68972e-06
1.25618e-06
2.13063e-06
1.90266e-06
1.66837e-06
2.15674e-06
1.57161e-06
2.20558e-06
1.57074e-06
2.07773e-06
1.90502e-06
1.53883e-06
2.43572e-06
1.20609e-06
2.36948e-06
1.63956e-06
1.64668e-06
2.38281e-06
1.22782e-06
2.3173e-06
1.69286e-06
1.53949e-06
2.27308e-06
1.50494e-06
1.68259e-06
2.34931e-06
1.11408e-06
2.19709e-06
2.03198e-06
9.21142e-07
3.02418e-06
7.724e-07
2.20993e-06
2.25241e-06
7.47986e-07
3.1271e-06
8.19677e-07
2.2737e-06
2.06026e-06
1.21928e-06
2.58762e-06
1.31581e-06
2.12096e-06
1.8769e-06
1.71139e-06
2.11247e-06
1.61259e-06
2.17077e-06
1.59677e-06
2.07061e-06
1.88447e-06
1.59119e-06
2.36406e-06
1.27787e-06
2.32726e-06
1.63491e-06
1.70321e-06
2.29519e-06
1.29626e-06
2.27956e-06
1.68552e-06
1.58594e-06
2.21965e-06
1.53359e-06
1.69898e-06
2.30037e-06
1.16377e-06
2.18736e-06
1.98401e-06
1.01579e-06
2.92498e-06
8.2903e-07
2.2293e-06
2.16057e-06
8.79035e-07
3.00895e-06
8.82241e-07
2.28521e-06
1.98955e-06
1.31539e-06
2.50451e-06
1.36275e-06
2.11512e-06
1.85453e-06
1.74708e-06
2.07672e-06
1.64536e-06
2.14351e-06
1.61698e-06
2.06618e-06
1.86653e-06
1.63459e-06
2.30651e-06
1.33435e-06
2.29567e-06
1.6294e-06
1.7498e-06
2.22475e-06
1.35027e-06
2.25082e-06
1.67822e-06
1.62437e-06
2.17692e-06
1.55542e-06
1.71417e-06
2.25969e-06
1.20389e-06
2.18122e-06
1.94303e-06
1.09411e-06
2.84482e-06
8.73069e-07
2.24801e-06
2.08383e-06
9.86171e-07
2.91448e-06
9.30516e-07
2.29733e-06
1.93044e-06
1.39377e-06
2.4384e-06
1.39893e-06
2.11235e-06
1.83542e-06
1.7763e-06
2.04835e-06
1.67114e-06
2.12258e-06
1.63255e-06
2.06367e-06
1.85133e-06
1.66997e-06
2.26099e-06
1.37821e-06
2.27244e-06
1.62363e-06
1.78773e-06
2.16887e-06
1.39212e-06
2.22946e-06
1.67122e-06
1.65565e-06
2.14336e-06
1.57171e-06
1.7277e-06
2.22671e-06
1.23549e-06
2.17783e-06
1.90885e-06
1.15746e-06
2.78164e-06
9.0628e-07
2.2655e-06
2.02096e-06
1.07192e-06
2.84074e-06
9.66626e-07
2.30953e-06
1.88196e-06
1.45648e-06
2.38699e-06
1.42612e-06
2.11186e-06
1.81938e-06
1.79989e-06
2.02626e-06
1.69106e-06
2.10688e-06
1.64402e-06
2.06258e-06
1.83906e-06
1.69828e-06
2.2256e-06
1.41172e-06
2.25576e-06
1.61796e-06
1.81821e-06
2.12518e-06
1.42387e-06
2.21404e-06
1.66473e-06
1.68068e-06
2.11753e-06
1.58357e-06
1.73939e-06
2.20059e-06
1.25978e-06
2.17646e-06
1.88101e-06
1.20751e-06
2.73314e-06
9.30523e-07
2.28138e-06
1.97055e-06
1.13906e-06
2.78465e-06
9.92765e-07
2.32131e-06
1.84297e-06
1.50563e-06
2.34798e-06
1.44599e-06
2.11296e-06
1.80618e-06
1.81861e-06
2.00944e-06
1.70614e-06
2.0954e-06
1.65236e-06
2.06248e-06
1.82907e-06
1.72053e-06
2.19863e-06
1.43682e-06
2.24416e-06
1.61263e-06
1.84237e-06
2.09161e-06
1.44737e-06
2.20333e-06
1.65892e-06
1.70033e-06
2.09814e-06
1.59209e-06
1.74921e-06
2.18045e-06
1.27797e-06
2.17651e-06
1.85889e-06
1.24609e-06
2.69695e-06
9.47563e-07
2.29537e-06
1.9311e-06
1.19036e-06
2.74321e-06
1.01096e-06
2.3322e-06
1.81232e-06
1.54327e-06
2.31923e-06
1.46002e-06
2.11505e-06
1.79558e-06
1.83313e-06
1.99696e-06
1.71729e-06
2.08728e-06
1.65824e-06
2.06301e-06
1.82113e-06
1.73764e-06
2.17855e-06
1.45517e-06
2.23644e-06
1.6078e-06
1.8612e-06
2.06633e-06
1.46426e-06
2.19625e-06
1.65389e-06
1.71538e-06
2.08405e-06
1.59776e-06
1.75725e-06
2.16538e-06
1.29115e-06
2.17748e-06
1.8418e-06
1.27497e-06
2.67099e-06
9.58965e-07
2.30736e-06
1.90108e-06
1.22842e-06
2.71369e-06
1.02299e-06
2.34188e-06
1.78888e-06
1.57128e-06
2.29878e-06
1.46953e-06
2.11761e-06
1.78734e-06
1.84411e-06
1.98802e-06
1.72529e-06
2.08177e-06
1.66223e-06
2.06391e-06
1.81497e-06
1.75048e-06
2.16404e-06
1.46818e-06
2.23162e-06
1.6036e-06
1.87556e-06
2.04782e-06
1.47586e-06
2.19192e-06
1.64972e-06
1.72653e-06
2.07425e-06
1.60138e-06
1.76361e-06
2.15456e-06
1.3003e-06
2.179e-06
1.82905e-06
1.29579e-06
2.65318e-06
9.66064e-07
2.31728e-06
1.87904e-06
1.25561e-06
2.69365e-06
1.03039e-06
2.35015e-06
1.77159e-06
1.59137e-06
2.28491e-06
1.47562e-06
2.12027e-06
1.78118e-06
1.85212e-06
1.9819e-06
1.73082e-06
2.07824e-06
1.66482e-06
2.06496e-06
1.81037e-06
1.75981e-06
2.15399e-06
1.47705e-06
2.22891e-06
1.60011e-06
1.8862e-06
2.03474e-06
1.48338e-06
2.18961e-06
1.64643e-06
1.73441e-06
2.06788e-06
1.60348e-06
1.76845e-06
2.14723e-06
1.30626e-06
2.18076e-06
1.82e-06
1.31005e-06
2.6418e-06
9.70005e-07
2.32515e-06
1.86367e-06
1.27405e-06
2.68098e-06
1.03443e-06
2.35686e-06
1.75949e-06
1.60506e-06
2.27613e-06
1.47922e-06
2.12272e-06
1.77685e-06
1.85768e-06
1.978e-06
1.73447e-06
2.07617e-06
1.6664e-06
2.06604e-06
1.8071e-06
1.76629e-06
2.14744e-06
1.48275e-06
2.22767e-06
1.59737e-06
1.89375e-06
2.026e-06
1.48782e-06
2.18873e-06
1.64404e-06
1.73959e-06
2.06419e-06
1.60449e-06
1.77192e-06
2.14274e-06
1.30973e-06
2.18251e-06
1.81405e-06
1.31911e-06
2.63539e-06
9.71711e-07
2.33106e-06
1.85376e-06
1.28554e-06
2.67392e-06
1.03617e-06
2.36201e-06
1.75166e-06
1.6137e-06
2.27119e-06
1.48111e-06
2.12479e-06
1.77408e-06
1.86129e-06
1.97579e-06
1.73664e-06
2.07517e-06
1.66729e-06
2.06704e-06
1.80497e-06
1.77049e-06
2.14359e-06
1.48606e-06
2.2274e-06
1.59536e-06
1.89877e-06
2.02066e-06
1.48994e-06
2.18891e-06
1.64239e-06
1.74265e-06
2.06252e-06
1.60477e-06
1.77416e-06
2.14056e-06
1.31124e-06
2.18423e-06
1.81061e-06
1.32396e-06
2.63289e-06
9.7163e-07
2.33547e-06
1.8481e-06
1.29167e-06
2.67113e-06
1.03612e-06
2.36598e-06
1.74709e-06
1.61849e-06
2.2691e-06
1.48177e-06
2.12653e-06
1.77251e-06
1.86345e-06
1.97481e-06
1.73784e-06
2.07499e-06
1.66763e-06
2.06802e-06
1.80372e-06
1.77292e-06
2.14183e-06
1.48754e-06
2.2279e-06
1.5939e-06
1.90186e-06
2.01792e-06
1.49029e-06
2.18995e-06
1.6411e-06
1.74422e-06
2.06219e-06
1.60454e-06
1.77534e-06
2.14022e-06
1.31102e-06
2.18605e-06
1.80895e-06
1.32544e-06
2.63367e-06
9.69638e-07
2.3392e-06
1.84518e-06
1.29381e-06
2.67182e-06
1.03416e-06
2.3696e-06
1.74436e-06
1.62078e-06
2.26904e-06
1.48127e-06
2.12827e-06
1.77145e-06
1.86471e-06
1.97461e-06
1.73818e-06
2.07551e-06
1.66734e-06
2.0691e-06
1.80297e-06
1.77403e-06
2.14167e-06
1.48743e-06
2.22917e-06
1.59253e-06
1.90369e-06
2.01696e-06
9.67212e-07
2.59932e-06
1.33117e-06
1.79848e-06
2.50095e-06
7.38693e-07
2.97486e-06
1.31084e-06
1.52447e-06
2.698e-06
1.15871e-06
1.83307e-06
2.56337e-06
1.06894e-06
2.09505e-06
2.37856e-06
7.53984e-07
2.92786e-06
1.19429e-06
1.88895e-06
2.31976e-06
8.3955e-07
3.119e-06
7.23394e-07
2.39568e-06
2.07675e-06
9.41246e-07
3.18805e-06
3.26426e-07
3.02348e-06
1.57268e-06
8.99344e-07
3.57514e-06
3.38098e-07
2.68139e-06
1.80319e-06
1.64846e-06
2.27371e-06
1.24402e-06
2.58395e-06
-7.78721e-07
3.59285e-06
1.18103e-06
1.01282e-06
3.79629e-06
-6.3008e-07
3.88047e-06
8.50868e-07
1.46873e-06
3.1022e-06
4.06035e-07
2.84699e-06
1.39065e-06
1.92665e-06
1.69704e-06
2.08914e-06
1.48751e-06
2.08954e-06
1.92248e-06
1.35896e-06
2.72616e-06
7.55044e-07
3.10212e-06
7.88865e-07
2.28925e-06
2.28337e-06
5.87255e-07
3.65986e-06
-1.48765e-07
3.3942e-06
1.36793e-06
9.95194e-07
3.56337e-06
1.5843e-07
3.16435e-06
8.02797e-07
2.61998e-06
1.77679e-06
7.75566e-07
3.78537e-06
-1.53699e-06
4.40184e-06
8.33234e-07
9.06331e-07
4.20021e-06
-1.18089e-06
4.4698e-06
2.82117e-07
1.96807e-06
2.81866e-06
2.06068e-07
3.61155e-06
2.88069e-07
2.96749e-06
1.08543e-06
2.03124e-06
2.05017e-06
1.37953e-06
2.52965e-06
9.42749e-07
2.88278e-06
7.64174e-07
3.01941e-06
8.30865e-07
2.29431e-06
2.26076e-06
6.12748e-07
3.65212e-06
-1.42744e-07
3.44919e-06
1.12925e-06
1.48592e-06
2.90066e-06
6.81641e-07
3.14595e-06
1.50211e-07
3.71498e-06
8.67896e-07
1.00634e-06
4.3387e-06
-1.72832e-06
4.77074e-06
4.17408e-07
1.30511e-06
3.83364e-06
-9.73394e-07
4.56821e-06
-1.85526e-07
2.73322e-06
2.03873e-06
5.9486e-07
3.8217e-06
-4.06143e-07
3.80971e-06
4.9077e-07
2.23615e-06
2.20571e-06
1.07289e-06
2.81603e-06
7.13708e-07
2.9725e-06
7.59183e-07
2.99008e-06
8.03324e-07
2.38138e-06
2.12218e-06
8.10535e-07
3.40891e-06
1.17855e-07
3.31553e-06
1.01741e-06
2.01789e-06
2.08315e-06
1.48009e-06
2.74782e-06
-1.06146e-07
4.4084e-06
-2.57699e-08
1.58965e-06
4.23856e-06
-1.54714e-06
4.83068e-06
1.46041e-07
1.84566e-06
3.14581e-06
-3.53583e-07
4.26191e-06
-3.80481e-07
3.34806e-06
1.24022e-06
1.22806e-06
3.53798e-06
-5.21547e-07
4.19895e-06
6.00549e-08
2.56693e-06
1.97653e-06
1.1545e-06
2.78512e-06
6.8476e-07
3.03371e-06
6.87521e-07
3.0553e-06
7.13505e-07
2.48995e-06
1.96796e-06
1.0285e-06
3.1249e-06
4.34211e-07
3.08749e-06
9.90969e-07
2.3955e-06
1.43357e-06
2.15423e-06
2.33185e-06
-1.10488e-07
4.80461e-06
-5.98599e-07
2.11715e-06
3.8948e-06
-1.18937e-06
4.65438e-06
6.92428e-08
2.24826e-06
2.50055e-06
3.32602e-07
3.74767e-06
-2.23093e-07
3.63018e-06
6.60716e-07
1.86932e-06
2.90137e-06
-2.21992e-07
4.11064e-06
-8.1197e-08
2.88235e-06
1.58343e-06
1.59189e-06
2.50144e-06
8.24056e-07
3.05073e-06
5.7699e-07
3.18504e-06
5.99338e-07
2.58525e-06
1.86318e-06
1.18322e-06
2.90041e-06
7.06265e-07
2.85787e-06
1.0259e-06
2.56087e-06
1.05844e-06
2.55307e-06
2.04509e-06
-7.02378e-09
4.87022e-06
-8.18786e-07
2.45618e-06
3.51544e-06
-7.92804e-07
4.33108e-06
1.95577e-07
2.41247e-06
2.08399e-06
9.12187e-07
3.17782e-06
1.8283e-07
3.52888e-06
4.12388e-07
2.40275e-06
2.23021e-06
4.31172e-07
3.65056e-06
4.13673e-08
3.12305e-06
1.07984e-06
2.15996e-06
2.04187e-06
1.07079e-06
3.03031e-06
4.53516e-07
3.33536e-06
4.99022e-07
2.62952e-06
1.83185e-06
1.25343e-06
2.77626e-06
8.84421e-07
2.6908e-06
1.16992e-06
2.57974e-06
9.71571e-07
2.64892e-06
1.94082e-06
1.51807e-07
4.69466e-06
-7.11596e-07
2.54835e-06
3.22146e-06
-4.54355e-07
3.93595e-06
4.70519e-07
2.33635e-06
1.92358e-06
1.30435e-06
2.62874e-06
7.48888e-07
3.12306e-06
4.88315e-07
2.74271e-06
1.53618e-06
1.3133e-06
2.95128e-06
3.66805e-07
3.2697e-06
5.70099e-07
2.79057e-06
1.51072e-06
1.3597e-06
2.99792e-06
3.21276e-07
3.4849e-06
4.32278e-07
2.61978e-06
1.86943e-06
1.23968e-06
2.74396e-06
9.69891e-07
2.58587e-06
1.25631e-06
2.48011e-06
1.11072e-06
2.48488e-06
2.02921e-06
2.80484e-07
4.37887e-06
-3.66507e-07
2.40455e-06
3.09125e-06
-1.98373e-07
3.57368e-06
8.37826e-07
2.06752e-06
2.01234e-06
1.48924e-06
2.15211e-06
1.40566e-06
2.49642e-06
8.253e-07
2.89098e-06
9.18707e-07
2.21548e-06
2.10241e-06
8.31688e-07
3.32906e-06
8.56147e-08
3.43551e-06
9.59891e-07
1.66687e-06
2.96361e-06
1.82417e-07
3.6312e-06
3.88634e-07
2.56809e-06
1.96374e-06
1.17053e-06
2.77691e-06
9.81817e-07
2.55005e-06
1.32871e-06
2.33305e-06
1.3791e-06
2.14557e-06
2.26886e-06
3.45573e-07
4.00989e-06
1.10649e-07
2.10568e-06
3.09157e-06
-2.6937e-08
3.25696e-06
1.229e-06
1.68344e-06
2.25885e-06
1.50947e-06
1.78214e-06
2.05256e-06
1.78508e-06
1.29055e-06
2.91653e-06
3.73951e-07
3.09056e-06
1.25959e-06
1.31678e-06
3.35655e-06
-3.5781e-07
4.03076e-06
4.56362e-07
1.93482e-06
2.95691e-06
3.37154e-08
3.77087e-06
3.74565e-07
2.48823e-06
2.08749e-06
1.06897e-06
2.8448e-06
9.50124e-07
2.56071e-06
1.37702e-06
2.17602e-06
1.70733e-06
1.72429e-06
2.58724e-06
3.6689e-07
3.6316e-06
6.4027e-07
1.73012e-06
3.18497e-06
7.79884e-08
3.01714e-06
1.56042e-06
1.31151e-06
2.54279e-06
1.43293e-06
1.54819e-06
2.56287e-06
1.16212e-06
1.74218e-06
2.85438e-06
-6.5541e-09
3.76137e-06
5.91512e-07
1.71086e-06
3.36684e-06
-6.89847e-07
4.47036e-06
9.3256e-08
2.11012e-06
2.9781e-06
-9.59807e-08
3.87648e-06
3.90677e-07
2.38854e-06
2.20894e-06
9.74748e-07
2.90728e-06
9.16049e-07
2.57889e-06
1.41041e-06
2.04175e-06
2.00403e-06
1.34174e-06
2.88209e-06
3.75817e-07
3.29966e-06
1.11649e-06
1.38199e-06
3.29667e-06
1.59122e-07
2.85884e-06
1.77387e-06
1.06964e-06
2.76307e-06
1.32758e-06
1.4528e-06
2.85584e-06
7.71447e-07
2.07474e-06
2.75075e-06
-1.85072e-07
4.11999e-06
2.00002e-07
1.94876e-06
3.35497e-06
-8.55489e-07
4.67935e-06
-7.32829e-08
2.18137e-06
3.00257e-06
-1.5891e-07
3.90174e-06
4.46307e-07
2.29262e-06
2.29771e-06
9.26793e-07
2.92825e-06
9.11383e-07
2.58023e-06
1.43586e-06
1.95274e-06
2.20435e-06
1.0795e-06
3.07671e-06
4.09929e-07
3.03647e-06
1.46663e-06
1.14372e-06
3.35742e-06
2.50241e-07
2.76464e-06
1.85537e-06
9.81038e-07
2.86152e-06
1.25867e-06
1.44785e-06
2.93757e-06
6.24113e-07
2.23673e-06
2.66843e-06
-2.11498e-07
4.22531e-06
7.73855e-08
2.03011e-06
3.33902e-06
-8.78931e-07
4.70278e-06
-8.15669e-08
2.17792e-06
3.01311e-06
-1.55474e-07
3.85678e-06
5.2387e-07
2.21757e-06
2.34096e-06
9.26224e-07
2.90655e-06
9.40129e-07
2.55616e-06
1.46339e-06
1.90477e-06
2.30144e-06
9.56664e-07
3.14868e-06
4.82236e-07
2.84579e-06
1.67335e-06
1.04049e-06
3.33544e-06
3.8318e-07
2.69005e-06
1.86055e-06
1.01288e-06
2.83628e-06
1.26431e-06
1.45802e-06
2.91567e-06
6.23506e-07
2.26217e-06
2.62705e-06
-1.62163e-07
4.18368e-06
9.77937e-08
2.03761e-06
3.29711e-06
-8.0458e-07
4.60897e-06
-1.82741e-08
2.1684e-06
2.96739e-06
-7.54683e-08
3.75982e-06
6.05324e-07
2.18178e-06
2.3222e-06
9.8062e-07
2.84144e-06
1.01299e-06
2.51984e-06
1.48408e-06
1.89674e-06
2.31216e-06
9.48341e-07
3.11901e-06
5.87182e-07
2.70836e-06
1.76385e-06
1.05678e-06
3.22294e-06
5.91165e-07
2.60683e-06
1.8431e-06
1.10174e-06
2.7313e-06
1.34981e-06
1.46277e-06
2.85469e-06
6.90004e-07
2.23148e-06
2.59072e-06
-6.49813e-08
4.06146e-06
1.80464e-07
2.0338e-06
3.20584e-06
-6.45134e-07
4.43491e-06
9.13887e-08
2.16792e-06
2.86659e-06
7.62511e-08
3.60818e-06
7.10572e-07
2.15863e-06
2.27184e-06
1.07482e-06
2.73673e-06
1.11186e-06
2.4581e-06
1.51712e-06
1.90238e-06
2.27164e-06
1.01927e-06
3.00835e-06
7.27276e-07
2.59263e-06
1.78963e-06
1.14678e-06
3.05171e-06
7.68824e-07
2.51143e-06
1.83179e-06
1.19863e-06
2.60909e-06
1.42605e-06
1.46113e-06
2.78555e-06
7.71009e-07
2.19218e-06
2.54041e-06
6.38386e-08
3.90324e-06
2.85858e-07
2.03874e-06
3.0763e-06
-4.33319e-07
4.2181e-06
2.23267e-07
2.17286e-06
2.7385e-06
2.65549e-07
3.429e-06
8.26664e-07
2.13639e-06
2.21409e-06
1.17765e-06
2.62633e-06
1.21047e-06
2.38463e-06
1.5615e-06
1.90134e-06
2.22185e-06
1.11948e-06
2.86632e-06
8.78959e-07
2.486e-06
1.79532e-06
1.25818e-06
2.86765e-06
9.25943e-07
2.4228e-06
1.82347e-06
1.28539e-06
2.5001e-06
1.49072e-06
1.46913e-06
2.71219e-06
8.49113e-07
2.16606e-06
2.4689e-06
2.16646e-07
3.73058e-06
3.93619e-07
2.0589e-06
2.9209e-06
-1.95844e-07
3.98719e-06
3.57482e-07
2.18433e-06
2.60013e-06
4.65378e-07
3.2453e-06
9.39279e-07
2.11861e-06
2.15558e-06
1.27648e-06
2.52429e-06
1.29883e-06
2.31801e-06
1.60236e-06
1.89965e-06
2.1761e-06
1.21854e-06
2.72895e-06
1.01782e-06
2.39673e-06
1.79227e-06
1.36414e-06
2.70045e-06
1.05927e-06
2.34868e-06
1.81319e-06
1.36283e-06
2.40739e-06
1.54012e-06
1.48964e-06
2.63523e-06
9.27226e-07
2.15134e-06
2.38545e-06
3.79306e-07
3.5553e-06
4.98131e-07
2.0868e-06
2.75866e-06
4.38001e-08
3.76107e-06
4.85001e-07
2.19883e-06
2.46462e-06
6.57604e-07
3.0715e-06
1.04226e-06
2.10589e-06
2.09943e-06
1.367e-06
2.43368e-06
1.37393e-06
2.26404e-06
1.63316e-06
1.90161e-06
2.13297e-06
1.30642e-06
2.61026e-06
1.13427e-06
2.3264e-06
1.78348e-06
1.45781e-06
2.5576e-06
1.1694e-06
2.28928e-06
1.80129e-06
1.43155e-06
2.32921e-06
1.57757e-06
1.51742e-06
2.55949e-06
9.99961e-07
2.14264e-06
2.30106e-06
5.37003e-07
3.38991e-06
5.9384e-07
2.11696e-06
2.60435e-06
2.67817e-07
3.55363e-06
5.99024e-07
2.21481e-06
2.3399e-06
8.31747e-07
2.91657e-06
1.13177e-06
2.09731e-06
2.04793e-06
1.44712e-06
2.35536e-06
1.4371e-06
2.22143e-06
1.65455e-06
1.90808e-06
2.09247e-06
1.38269e-06
2.51201e-06
1.22743e-06
2.27395e-06
1.77125e-06
1.53821e-06
2.43887e-06
1.25894e-06
2.24268e-06
1.78884e-06
1.49133e-06
2.26401e-06
1.60608e-06
1.54725e-06
2.48966e-06
1.06445e-06
2.13788e-06
2.22244e-06
6.80372e-07
3.2425e-06
6.76908e-07
2.14709e-06
2.46514e-06
4.66693e-07
3.37254e-06
6.96199e-07
2.23173e-06
2.22939e-06
9.835e-07
2.78395e-06
1.20613e-06
2.09239e-06
2.00227e-06
1.51609e-06
2.28924e-06
1.48937e-06
2.18788e-06
1.66934e-06
1.91736e-06
2.05526e-06
1.44814e-06
2.43185e-06
1.30074e-06
2.23611e-06
1.7573e-06
1.60608e-06
2.34183e-06
1.33085e-06
2.20671e-06
1.77671e-06
1.54223e-06
2.21054e-06
1.62775e-06
1.57598e-06
2.42839e-06
1.11942e-06
2.1362e-06
2.15246e-06
8.05171e-07
3.11665e-06
7.4579e-07
2.17622e-06
2.34382e-06
6.37137e-07
3.22013e-06
7.75772e-07
2.24924e-06
2.13394e-06
1.11212e-06
2.67367e-06
1.26616e-06
2.09084e-06
1.96261e-06
1.57418e-06
2.23472e-06
1.53179e-06
2.16177e-06
1.6796e-06
1.92761e-06
2.02245e-06
1.50337e-06
2.36717e-06
1.35792e-06
2.20926e-06
1.74317e-06
1.66262e-06
2.26349e-06
1.38789e-06
2.17936e-06
1.76539e-06
1.58481e-06
2.16744e-06
1.64397e-06
1.60206e-06
2.37654e-06
1.16472e-06
2.1369e-06
2.09202e-06
9.10517e-07
3.01267e-06
8.00748e-07
2.20377e-06
2.24068e-06
7.7935e-07
3.09546e-06
8.38729e-07
2.26698e-06
2.05309e-06
1.21877e-06
2.58414e-06
1.31342e-06
2.09201e-06
1.92872e-06
1.62229e-06
2.19068e-06
1.56555e-06
2.1419e-06
1.68661e-06
1.93768e-06
1.99455e-06
1.54902e-06
2.31572e-06
1.40212e-06
2.19053e-06
1.72989e-06
1.70905e-06
2.20099e-06
1.43252e-06
2.159e-06
1.75514e-06
1.61986e-06
2.13328e-06
1.65589e-06
1.62487e-06
2.33385e-06
1.20103e-06
2.13935e-06
2.04108e-06
9.97277e-07
2.92903e-06
8.43153e-07
2.22931e-06
2.15481e-06
8.95365e-07
2.996e-06
8.87027e-07
2.28445e-06
1.98581e-06
1.30552e-06
2.51311e-06
1.34962e-06
2.09512e-06
1.90024e-06
1.66156e-06
2.15578e-06
1.59193e-06
2.12719e-06
1.69121e-06
1.94704e-06
1.97153e-06
1.58602e-06
2.27546e-06
1.43588e-06
2.1778e-06
1.71796e-06
1.74667e-06
2.15179e-06
1.46683e-06
2.14423e-06
1.74604e-06
1.64827e-06
2.1067e-06
1.66443e-06
1.64428e-06
2.29955e-06
1.22943e-06
2.14293e-06
1.9991e-06
1.06713e-06
2.86344e-06
8.74842e-07
2.25243e-06
2.08474e-06
9.88023e-07
2.91858e-06
9.22934e-07
2.30112e-06
1.93084e-06
1.37477e-06
2.45805e-06
1.3766e-06
2.09949e-06
1.87672e-06
1.69309e-06
2.12869e-06
1.61213e-06
2.11666e-06
1.6941e-06
1.9554e-06
1.95263e-06
1.61544e-06
2.24456e-06
1.46125e-06
2.16948e-06
1.70756e-06
1.77672e-06
2.11362e-06
1.49269e-06
2.13391e-06
1.73816e-06
1.67091e-06
2.08643e-06
1.67036e-06
1.66039e-06
2.27265e-06
1.25109e-06
2.14709e-06
1.96528e-06
1.12209e-06
2.81335e-06
8.97722e-07
2.27282e-06
2.02877e-06
1.06042e-06
2.85986e-06
9.48712e-07
2.31652e-06
1.88681e-06
1.42893e-06
2.41643e-06
1.39612e-06
2.10454e-06
1.85769e-06
1.71794e-06
2.10816e-06
1.62726e-06
2.10942e-06
1.69565e-06
1.96265e-06
1.93771e-06
1.63837e-06
2.22132e-06
1.47994e-06
2.16439e-06
1.69872e-06
1.80039e-06
2.08453e-06
1.51171e-06
2.12701e-06
1.73149e-06
1.68861e-06
2.07139e-06
1.67431e-06
1.67346e-06
2.25212e-06
1.26716e-06
2.15142e-06
1.9387e-06
1.16428e-06
2.77622e-06
9.13576e-07
2.29037e-06
1.98512e-06
1.11563e-06
2.81662e-06
9.66466e-07
2.3303e-06
1.85234e-06
1.47029e-06
2.38587e-06
1.40974e-06
2.10975e-06
1.84266e-06
1.73709e-06
2.09305e-06
1.63829e-06
2.1047e-06
1.69634e-06
1.96877e-06
1.92624e-06
1.65586e-06
2.2043e-06
1.49338e-06
2.16161e-06
1.6914e-06
1.81871e-06
2.06283e-06
1.52529e-06
2.12273e-06
1.72601e-06
1.70211e-06
2.0606e-06
1.67679e-06
1.68379e-06
2.23694e-06
1.27867e-06
2.15565e-06
1.91838e-06
1.19575e-06
2.74961e-06
9.23982e-07
2.30505e-06
1.95202e-06
1.15651e-06
2.78591e-06
9.7805e-07
2.34223e-06
1.82611e-06
1.50101e-06
2.36424e-06
1.41883e-06
2.11475e-06
1.83115e-06
1.75144e-06
2.08231e-06
1.64608e-06
2.10186e-06
1.69649e-06
1.97379e-06
1.91766e-06
1.66886e-06
2.19224e-06
1.50274e-06
2.16043e-06
1.68552e-06
1.83258e-06
2.0471e-06
1.5346e-06
2.12037e-06
1.72168e-06
1.71208e-06
2.05322e-06
1.67819e-06
1.69168e-06
2.22618e-06
1.28655e-06
2.15955e-06
1.9034e-06
1.21837e-06
2.73149e-06
9.30283e-07
2.31697e-06
1.92781e-06
1.18565e-06
2.76513e-06
9.85037e-07
2.35219e-06
1.80686e-06
1.52301e-06
2.34966e-06
1.42455e-06
2.11924e-06
1.82267e-06
1.76182e-06
2.07506e-06
1.65135e-06
2.10038e-06
1.69634e-06
1.97778e-06
1.9115e-06
1.67819e-06
2.18408e-06
1.50899e-06
2.1603e-06
1.68096e-06
1.84277e-06
2.03612e-06
1.54063e-06
2.11937e-06
1.71844e-06
1.71912e-06
2.04855e-06
1.67884e-06
1.6975e-06
2.21902e-06
1.2916e-06
2.16297e-06
1.89291e-06
1.23382e-06
2.72003e-06
9.33619e-07
2.32625e-06
1.91099e-06
1.20536e-06
2.75207e-06
9.88748e-07
2.36012e-06
1.79345e-06
1.53796e-06
2.34052e-06
1.42785e-06
2.12302e-06
1.8168e-06
1.76897e-06
2.07053e-06
1.65474e-06
2.09982e-06
1.69609e-06
1.98085e-06
1.90733e-06
1.68459e-06
2.17895e-06
1.51292e-06
2.16079e-06
1.67763e-06
1.84996e-06
2.02889e-06
1.5442e-06
2.11929e-06
1.71621e-06
1.72373e-06
2.04598e-06
1.67903e-06
1.70153e-06
2.21475e-06
1.29447e-06
2.16582e-06
1.88613e-06
1.24352e-06
2.71367e-06
9.34899e-07
2.33311e-06
1.90021e-06
1.21763e-06