/*--------------------------------*- C++ -*----------------------------------*\
  =========                 |
  \\      /  F ield         | OpenFOAM: The Open Source CFD Toolbox
   \\    /   O peration     | Website:  https://openfoam.org
    \\  /    A nd           | Version:  10
     \\/     M anipulation  |
\*---------------------------------------------------------------------------*/
FoamFile
{
    format      ascii;
    class       volScalarField;
    location    "75";
    object      pMean;
}
// * * * * * * * * * * * * * * * * * * * * * * * * * * * * * * * * * * * * * //

dimensions      [0 2 -2 0 0 0 0];

internalField   nonuniform List<scalar> 
25600
(
0.000326585
0.000327206
0.000328407
0.000330209
0.000329193
0.000326365
0.000325129
0.000323415
0.00032219
0.000322318
0.000320839
0.000319516
0.000320161
0.000319129
0.000317069
0.000316285
0.000315591
0.000314836
0.000314367
0.000314481
0.000315489
0.000318189
0.000320064
0.000320327
0.000322357
0.000322363
0.000320791
0.000321844
0.000320137
0.00031765
0.00031743
0.000317069
0.000320979
0.000322203
0.000319693
0.00032145
0.000322681
0.000323011
0.000324863
0.000325945
0.000318214
0.000319427
0.000321387
0.000322554
0.000319333
0.00031571
0.000314008
0.000310723
0.000307979
0.000306935
0.000303828
0.000299937
0.000298059
0.000294841
0.000291712
0.000290811
0.000289191
0.000287924
0.000287465
0.000288523
0.000292601
0.000296687
0.000298389
0.000299326
0.000301283
0.000302606
0.000301595
0.000302577
0.000302346
0.000299585
0.000297975
0.0002976
0.000300624
0.000302853
0.000301284
0.000303947
0.000307524
0.000307966
0.000311357
0.000315799
0.000290956
0.000293751
0.000296873
0.000296821
0.000293141
0.000290223
0.0002875
0.000282442
0.000279085
0.00027747
0.000273436
0.000268518
0.000264952
0.000260655
0.000257349
0.000255323
0.000252802
0.000251727
0.000251871
0.000255469
0.000263045
0.00026825
0.000270188
0.000271482
0.000272611
0.000272535
0.000270889
0.000271304
0.000272528
0.00027122
0.000270342
0.000271367
0.000274246
0.000275524
0.000273587
0.000276326
0.000280005
0.000279317
0.000283132
0.000288706
0.000237234
0.000240637
0.000241067
0.000237872
0.000234659
0.00023238
0.000228303
0.000222509
0.00021874
0.000214837
0.000209117
0.000203246
0.00019736
0.000191875
0.000189441
0.000187792
0.000186753
0.000187542
0.000189248
0.000196913
0.00020768
0.000211834
0.000211824
0.000212719
0.000213166
0.000212804
0.000212046
0.00021158
0.00021185
0.00021186
0.000211648
0.000213295
0.000214984
0.000215595
0.000216078
0.000220504
0.000224411
0.000225619
0.000231152
0.00023564
0.000199451
0.000205218
0.000205189
0.000202874
0.000200724
0.000196102
0.000188311
0.000180374
0.000174737
0.000166349
0.000155739
0.000144925
0.000132375
0.000122708
0.000119965
0.000118446
0.000117263
0.000118546
0.000125543
0.000142839
0.000159039
0.000164886
0.000167566
0.000170621
0.00017206
0.000172178
0.000171092
0.000169357
0.000169536
0.00017106
0.000171583
0.000173996
0.000174955
0.000173832
0.00017546
0.000180052
0.000183859
0.000186559
0.000191172
0.000194669
0.000105962
0.00010791
0.00010512
0.000103241
0.000102358
9.93845e-05
9.28056e-05
8.84505e-05
8.60418e-05
7.71942e-05
6.4466e-05
5.13538e-05
3.54064e-05
2.40877e-05
2.17875e-05
2.13831e-05
2.21769e-05
2.69949e-05
3.94989e-05
6.00055e-05
7.25456e-05
7.52455e-05
7.72239e-05
7.88604e-05
7.65922e-05
7.20983e-05
6.71476e-05
6.465e-05
6.64707e-05
6.94583e-05
7.10542e-05
7.62613e-05
7.98949e-05
8.14745e-05
8.67259e-05
9.11948e-05
9.58452e-05
0.000100941
0.000102206
0.000102192
5.47654e-05
5.99078e-05
6.13004e-05
6.17741e-05
6.06143e-05
5.47518e-05
4.36203e-05
3.54577e-05
3.1175e-05
2.23059e-05
1.00147e-05
-3.4665e-06
-2.0242e-05
-3.0062e-05
-3.02532e-05
-2.76164e-05
-2.23146e-05
-1.29467e-05
1.15346e-06
1.66668e-05
2.45656e-05
2.38461e-05
2.34253e-05
2.26172e-05
1.62711e-05
6.22039e-06
-2.31975e-06
-6.36941e-06
-6.52389e-06
-5.5654e-06
-5.57021e-06
-2.67917e-06
-2.76971e-06
-1.35841e-06
6.32698e-06
1.34978e-05
2.35412e-05
3.50181e-05
3.95526e-05
4.47572e-05
-2.07114e-05
-1.625e-05
-1.08584e-05
-8.32636e-06
-1.13242e-05
-2.04925e-05
-3.61842e-05
-4.77888e-05
-5.28557e-05
-6.23302e-05
-7.50789e-05
-9.03514e-05
-0.000104743
-0.000106128
-9.97442e-05
-9.62763e-05
-9.13777e-05
-8.0164e-05
-6.34258e-05
-4.94585e-05
-4.44712e-05
-4.60931e-05
-4.47761e-05
-4.34957e-05
-5.09551e-05
-6.41125e-05
-7.52614e-05
-7.98741e-05
-7.60417e-05
-7.03692e-05
-6.71353e-05
-6.38243e-05
-6.54477e-05
-6.41276e-05
-5.6274e-05
-5.02045e-05
-4.21651e-05
-3.26603e-05
-3.19341e-05
-2.81884e-05
-0.000152732
-0.00014985
-0.000144968
-0.000141703
-0.00014469
-0.000156972
-0.000169401
-0.00017091
-0.000170143
-0.000179269
-0.000193772
-0.000210755
-0.000220653
-0.000213946
-0.000202761
-0.000196222
-0.000189998
-0.000178969
-0.00016111
-0.000143308
-0.000134767
-0.000133301
-0.000132978
-0.000138316
-0.000151888
-0.000166649
-0.00017687
-0.000180659
-0.000178372
-0.000176586
-0.000174887
-0.000169987
-0.000166589
-0.000159285
-0.000149185
-0.000145454
-0.00014289
-0.000144115
-0.000155532
-0.000157293
-0.000279564
-0.00027384
-0.000261243
-0.000253086
-0.000257206
-0.000268886
-0.000274561
-0.000270956
-0.000276176
-0.000295499
-0.000323499
-0.000354166
-0.000373409
-0.00037791
-0.000377989
-0.000374041
-0.000362047
-0.000340098
-0.000314501
-0.000293769
-0.000279017
-0.000272776
-0.000270098
-0.000275492
-0.000289988
-0.000306179
-0.000314122
-0.000314117
-0.000313101
-0.000318437
-0.000321267
-0.000315939
-0.000310862
-0.000301638
-0.00028815
-0.000274599
-0.000259172
-0.000255476
-0.000268377
-0.000276883
-0.000367043
-0.000346794
-0.000316499
-0.000286985
-0.000274095
-0.000276694
-0.000283871
-0.000299951
-0.000334507
-0.000383502
-0.000433581
-0.000471235
-0.000489017
-0.000494513
-0.000498957
-0.00050082
-0.000493797
-0.000468684
-0.00043354
-0.000402301
-0.0003835
-0.000378979
-0.0003828
-0.000396285
-0.000415222
-0.00042967
-0.000433017
-0.000427047
-0.000422029
-0.000429991
-0.000434234
-0.000426244
-0.000417972
-0.000407952
-0.000392339
-0.000375459
-0.000356571
-0.000349656
-0.000361074
-0.000370964
-0.000453156
-0.000416691
-0.000362161
-0.000313167
-0.000298501
-0.000310791
-0.000340714
-0.000389656
-0.000450157
-0.000504078
-0.000546414
-0.000570449
-0.000578748
-0.000581406
-0.000582913
-0.000581394
-0.000577148
-0.000564284
-0.000540213
-0.000510258
-0.000489728
-0.000492588
-0.000518416
-0.000555504
-0.00058673
-0.00060082
-0.000599483
-0.000583014
-0.00056584
-0.00055765
-0.000543707
-0.000523948
-0.000512387
-0.000504085
-0.000493395
-0.000474324
-0.000443981
-0.000431839
-0.000445563
-0.00046161
-0.000557479
-0.000533467
-0.000512616
-0.000508621
-0.000522273
-0.000539228
-0.000563495
-0.000597027
-0.000638483
-0.000671986
-0.000684315
-0.000674377
-0.000662888
-0.000659165
-0.000646657
-0.000631242
-0.000631841
-0.000630573
-0.000610624
-0.000582452
-0.000573343
-0.000596715
-0.000631229
-0.000660136
-0.000684195
-0.00069764
-0.000694246
-0.000672727
-0.000655613
-0.000649236
-0.000633432
-0.000611985
-0.000601271
-0.000603313
-0.000604944
-0.000586123
-0.000548427
-0.000528519
-0.000541911
-0.000562133
-0.000711704
-0.000706104
-0.000718306
-0.00074745
-0.000778948
-0.000791795
-0.000787319
-0.000780918
-0.00078412
-0.000782211
-0.000764954
-0.000740097
-0.000731957
-0.000726009
-0.000698783
-0.000683277
-0.000695738
-0.00069022
-0.000652264
-0.000615775
-0.000618319
-0.000655459
-0.000680625
-0.000689363
-0.000699864
-0.000710352
-0.000714727
-0.00071205
-0.000720914
-0.00073928
-0.000740404
-0.00072057
-0.000705118
-0.00070669
-0.000699782
-0.000673517
-0.000644945
-0.00064518
-0.000678033
-0.00071
-0.000847688
-0.000827224
-0.000830902
-0.000847632
-0.000868138
-0.00088834
-0.000888398
-0.000862238
-0.000837553
-0.000823524
-0.000812349
-0.000798999
-0.000790605
-0.000766326
-0.000727208
-0.000723228
-0.000742586
-0.000728355
-0.000694628
-0.000679956
-0.000702478
-0.000735755
-0.000730581
-0.000710221
-0.000710252
-0.000719075
-0.00072169
-0.000726934
-0.000773046
-0.00084583
-0.000886457
-0.000870014
-0.000843071
-0.000827444
-0.000804661
-0.000782588
-0.000781777
-0.000811256
-0.000849753
-0.000863783
-0.000860563
-0.000816131
-0.000798977
-0.000810366
-0.000852629
-0.000901761
-0.000921795
-0.000912556
-0.000897741
-0.000892084
-0.000896036
-0.000895901
-0.000882886
-0.00085061
-0.000824536
-0.00083178
-0.000832477
-0.000800415
-0.000776623
-0.000776553
-0.000790848
-0.000783885
-0.000738074
-0.000700793
-0.000705992
-0.000724795
-0.000730729
-0.000754194
-0.000838863
-0.000937968
-0.000978558
-0.000945402
-0.000891258
-0.000856451
-0.000838499
-0.000837887
-0.000852647
-0.000875896
-0.000898884
-0.00089753
-0.000877065
-0.000804794
-0.000767077
-0.000777739
-0.000837966
-0.000903271
-0.000936335
-0.00093382
-0.000914436
-0.000915104
-0.000944992
-0.000983114
-0.000995292
-0.000976358
-0.000964983
-0.000972738
-0.000950104
-0.000880943
-0.000817742
-0.000792237
-0.000798939
-0.00078721
-0.000750215
-0.00074254
-0.000780159
-0.000809096
-0.000814811
-0.000850558
-0.000938098
-0.00101335
-0.00101695
-0.000958218
-0.000902587
-0.000891291
-0.00090089
-0.000901436
-0.000894576
-0.000902838
-0.00092393
-0.000925952
-0.000959461
-0.000860481
-0.000802642
-0.000814138
-0.000891266
-0.000960261
-0.000976231
-0.000955018
-0.000941529
-0.000967919
-0.00102132
-0.00107752
-0.00109187
-0.00106634
-0.0010464
-0.00103827
-0.00100506
-0.000910504
-0.000820976
-0.000797176
-0.000828077
-0.000841923
-0.000837721
-0.000864038
-0.000906972
-0.00091896
-0.00090877
-0.000933381
-0.00100247
-0.00104698
-0.00103246
-0.000983087
-0.000957763
-0.000983861
-0.00101416
-0.00100141
-0.000974918
-0.00097972
-0.00101171
-0.00102026
-0.000978983
-0.000875872
-0.000830656
-0.000874351
-0.000977762
-0.00103298
-0.00101419
-0.000976376
-0.000981175
-0.0010379
-0.00110498
-0.00114797
-0.00112966
-0.00107683
-0.00104101
-0.00103379
-0.00101094
-0.000931564
-0.000864522
-0.000869766
-0.000922393
-0.000929008
-0.000910794
-0.000923073
-0.000948633
-0.000949701
-0.000939932
-0.000968794
-0.00102624
-0.00104822
-0.00103446
-0.00101711
-0.00101373
-0.00103068
-0.00103281
-0.00100085
-0.000978769
-0.00100273
-0.00105294
-0.00105745
-0.000951792
-0.000872503
-0.000849312
-0.000910013
-0.00100266
-0.0010153
-0.000968096
-0.000937505
-0.000973162
-0.00104923
-0.0011077
-0.00112197
-0.00106975
-0.0010103
-0.000995044
-0.00102093
-0.00101839
-0.000956837
-0.000915131
-0.000931594
-0.000969172
-0.000937018
-0.000886724
-0.000895664
-0.000937919
-0.000946227
-0.000937822
-0.000950495
-0.000979237
-0.000978525
-0.000978974
-0.000994893
-0.000991672
-0.000971875
-0.000944069
-0.000918286
-0.000933418
-0.000992533
-0.0010492
-0.00103303
-0.000887579
-0.00082721
-0.000805006
-0.000858646
-0.000924245
-0.000908719
-0.000859868
-0.000851031
-0.000910984
-0.000997761
-0.00104707
-0.00103594
-0.000970928
-0.000923728
-0.000928619
-0.000976979
-0.000990719
-0.000943058
-0.000903408
-0.000903171
-0.000921008
-0.000867885
-0.000806906
-0.000828164
-0.0008829
-0.000892976
-0.000872621
-0.000854124
-0.000847979
-0.00084514
-0.000887118
-0.000936708
-0.000920707
-0.000864609
-0.000813367
-0.000804296
-0.00085791
-0.000936289
-0.000973985
-0.000944872
-0.000757462
-0.000723717
-0.000695195
-0.000744865
-0.000793816
-0.000770769
-0.000732841
-0.00073564
-0.0008102
-0.000900851
-0.000939322
-0.000898237
-0.000819349
-0.000781182
-0.000803685
-0.000867508
-0.000882093
-0.000842089
-0.000811755
-0.0008175
-0.000829905
-0.000753289
-0.00067412
-0.0007029
-0.000764449
-0.000770307
-0.000742699
-0.000712469
-0.000700292
-0.000715244
-0.000791497
-0.000847812
-0.000804019
-0.000714032
-0.000635578
-0.000621506
-0.000689249
-0.000764485
-0.000776476
-0.000758541
-0.00057789
-0.000571209
-0.000551417
-0.000597985
-0.000637079
-0.000612651
-0.000579133
-0.000593812
-0.000676574
-0.000767613
-0.000799693
-0.000731241
-0.000628517
-0.000592116
-0.000631216
-0.000691389
-0.000691829
-0.000661238
-0.000650271
-0.000669914
-0.000677301
-0.000574891
-0.00048763
-0.000525612
-0.000593815
-0.000600605
-0.000567371
-0.000533464
-0.000527782
-0.000569371
-0.000656976
-0.000679983
-0.000609705
-0.000512681
-0.000426134
-0.000404496
-0.000460367
-0.000512418
-0.000511609
-0.000526173
-0.000380303
-0.000385007
-0.000387797
-0.000437272
-0.000471012
-0.00045866
-0.00042917
-0.000447456
-0.000530947
-0.000615657
-0.00064671
-0.000569565
-0.000457146
-0.000423473
-0.000467488
-0.00050714
-0.000469482
-0.000436569
-0.000440599
-0.000463926
-0.000463036
-0.000352592
-0.000265928
-0.00030182
-0.000359093
-0.000373735
-0.000349235
-0.000317963
-0.000322839
-0.000382298
-0.000458739
-0.000444368
-0.000368067
-0.00029498
-0.000230174
-0.000211976
-0.000246653
-0.000264875
-0.000258724
-0.000306808
-0.000160011
-0.000166834
-0.000190542
-0.000241655
-0.000275583
-0.000288087
-0.000278131
-0.000297413
-0.000374758
-0.000455333
-0.000477295
-0.000385911
-0.000273937
-0.000253312
-0.000298666
-0.000314362
-0.000247738
-0.00020981
-0.00021331
-0.000230834
-0.000228427
-0.000126284
-4.66097e-05
-6.37161e-05
-0.000101678
-0.000123718
-0.000114346
-9.55615e-05
-0.000111161
-0.000176205
-0.000240235
-0.000207923
-0.000144078
-0.000104392
-6.93071e-05
-5.46444e-05
-6.30666e-05
-4.44753e-05
-2.61891e-05
-8.54868e-05
6.02209e-05
5.13409e-05
3.23845e-05
-1.09113e-05
-4.99479e-05
-9.26521e-05
-0.000121479
-0.000152751
-0.000221387
-0.000292444
-0.000298299
-0.000192507
-8.28032e-05
-6.70606e-05
-0.000108604
-0.000115653
-4.87646e-05
-3.43698e-06
9.98128e-06
-5.5536e-07
-6.94153e-06
8.11121e-05
0.000156937
0.000153649
0.000130308
0.000109797
0.000105708
0.000106499
7.58787e-05
7.71445e-06
-4.75604e-05
-6.71192e-06
4.94459e-05
6.76593e-05
8.2756e-05
9.71135e-05
0.000107553
0.000151522
0.00018691
0.000130758
0.000260873
0.000239056
0.000228117
0.000200742
0.000155026
8.70744e-05
2.6628e-05
-2.05167e-05
-8.31796e-05
-0.000141002
-0.000136544
-2.68501e-05
8.21704e-05
0.000102955
7.08579e-05
6.92273e-05
0.000132539
0.000175826
0.000204145
0.000200641
0.000184429
0.00025331
0.000328017
0.000336948
0.000317012
0.000298411
0.000294083
0.000283599
0.000231163
0.000150713
9.66221e-05
0.000145001
0.000201539
0.000214798
0.000228631
0.000252207
0.000280743
0.000340433
0.000385922
0.000337852
0.000427261
0.000392893
0.00037644
0.000356178
0.000307501
0.000230832
0.000158928
9.96813e-05
3.37777e-05
-1.45202e-05
4.39971e-07
0.00010854
0.000210376
0.000233632
0.000214716
0.000222436
0.000279835
0.000320239
0.000357251
0.000357745
0.000327865
0.000383174
0.000456102
0.000470093
0.000449348
0.000435137
0.000437979
0.000428812
0.000366841
0.000276188
0.000218218
0.000274545
0.00032928
0.000337832
0.00035792
0.000393614
0.000432529
0.000504798
0.000555102
0.000507915
0.000549769
0.000505896
0.000482727
0.000460979
0.000416876
0.000343357
0.000266431
0.000193525
0.00011873
7.88469e-05
0.000106991
0.000214815
0.000306573
0.000326152
0.000311304
0.00032336
0.000381796
0.000419618
0.000461105
0.000467239
0.00043432
0.000477539
0.000548009
0.000563639
0.00053996
0.000524524
0.000529305
0.000521886
0.0004612
0.000370039
0.000316001
0.00037448
0.000425952
0.000433645
0.00045862
0.000498659
0.000543272
0.000621326
0.000672389
0.000628179
0.00061835
0.000572656
0.000545309
0.00052387
0.000484904
0.000416609
0.000339485
0.000257925
0.00017567
0.000137913
0.000172991
0.000280297
0.000365682
0.000379577
0.000366117
0.000382255
0.000440416
0.000478894
0.000523117
0.00053104
0.000496844
0.000537521
0.00060688
0.000622968
0.00059716
0.000578415
0.000580073
0.000569942
0.000510505
0.000423008
0.000374298
0.000434243
0.000482068
0.000490102
0.000517426
0.000556834
0.000601394
0.000678996
0.000729463
0.000690507
0.000644466
0.000598239
0.000569647
0.000548113
0.000512711
0.000446825
0.00036847
0.000285734
0.000203318
0.00016499
0.000200517
0.00030692
0.000388185
0.000400436
0.000388295
0.000406193
0.000465153
0.000504094
0.000547074
0.000554781
0.000521487
0.000560501
0.000630022
0.000647015
0.000621704
0.000602118
0.000600946
0.000587292
0.000527922
0.000444472
0.000398498
0.000457384
0.00050401
0.000512476
0.000542251
0.00058343
0.00062726
0.000702162
0.000751504
0.000714821
0.000651211
0.000603798
0.000573524
0.000551369
0.000516829
0.000452692
0.000374822
0.000291249
0.000207453
0.000169091
0.000204877
0.000310674
0.00039149
0.000404051
0.000393339
0.000411766
0.000470855
0.000509018
0.000550864
0.000558671
0.000525774
0.000564858
0.000633901
0.00065054
0.000626237
0.000606524
0.000604173
0.000590184
0.000531045
0.000448257
0.000402925
0.000462581
0.000508598
0.000517005
0.000548008
0.000590692
0.000634937
0.000709
0.000757845
0.000721208
0.000327108
0.000327861
0.000329077
0.000331009
0.000330249
0.000327308
0.000325934
0.000324391
0.000323509
0.000324312
0.000323698
0.000323318
0.000324442
0.000323867
0.000322593
0.000322336
0.000322035
0.000321669
0.00032178
0.000322307
0.000323365
0.000326249
0.000328657
0.000328938
0.000330757
0.000330929
0.000329441
0.000329719
0.000326805
0.000323019
0.000321377
0.000320573
0.00032364
0.000324284
0.000321747
0.000323291
0.000324002
0.000324096
0.000325817
0.000326599
0.000319379
0.000320679
0.000323005
0.000324747
0.000322138
0.00031917
0.000317995
0.000315286
0.000313666
0.000314468
0.000313458
0.000311443
0.000310334
0.0003074
0.000304528
0.000303409
0.000301577
0.000300441
0.000299984
0.000300453
0.000303871
0.00030757
0.000308945
0.000309119
0.000310706
0.00031122
0.000309257
0.000308171
0.000305342
0.000301316
0.000299439
0.000299162
0.000301443
0.000303249
0.000301916
0.000304554
0.000307919
0.000308193
0.000311672
0.000316738
0.000303478
0.00030602
0.00030892
0.000308928
0.000305547
0.000303013
0.000300533
0.000295831
0.000293002
0.000292133
0.000288917
0.000284421
0.000280215
0.000275034
0.000271764
0.000269854
0.000267571
0.000267338
0.000267464
0.000270172
0.000277209
0.0002822
0.000284078
0.000285248
0.000286847
0.000287306
0.000286089
0.000285302
0.000285327
0.000283721
0.000283581
0.000285285
0.000287529
0.00028867
0.000287232
0.000290197
0.000294136
0.000293257
0.000296398
0.000301528
0.000255247
0.000258086
0.000258367
0.000255562
0.00025209
0.000249867
0.000246834
0.000242514
0.000240086
0.000237426
0.000232803
0.000227598
0.00022201
0.000216605
0.000214471
0.000213212
0.00021192
0.000212689
0.000214126
0.000220133
0.000230326
0.000235166
0.000236035
0.000237537
0.000238455
0.000238142
0.000237225
0.000236062
0.000235444
0.000234522
0.000234292
0.000237003
0.000239295
0.000239093
0.000238055
0.000241399
0.000245331
0.000245581
0.000249671
0.000253891
0.000193551
0.000199271
0.000200593
0.000200603
0.000200253
0.000198439
0.000193786
0.000189761
0.000188397
0.000183539
0.000175251
0.000167286
0.000157831
0.000150157
0.000147998
0.000146108
0.000145679
0.000147154
0.0001518
0.000164323
0.000178064
0.00018338
0.000184694
0.000186202
0.000186423
0.000186049
0.000185017
0.000181728
0.000179645
0.000177918
0.000175256
0.000175077
0.000174381
0.000171737
0.000171238
0.000175432
0.000180467
0.000183433
0.000187354
0.00018993
9.48437e-05
9.84602e-05
9.91511e-05
0.000101477
0.000103704
0.000102919
9.81854e-05
9.55848e-05
9.54433e-05
8.82521e-05
7.8331e-05
7.06136e-05
6.03733e-05
5.33396e-05
5.37775e-05
5.6229e-05
6.09644e-05
6.80147e-05
7.82379e-05
9.32154e-05
0.00010562
0.000108961
0.00010964
0.000110961
0.000109344
0.000105655
0.000100563
9.56203e-05
9.4207e-05
9.32815e-05
9.07045e-05
9.15958e-05
9.05464e-05
8.6428e-05
8.46249e-05
8.41239e-05
8.66332e-05
9.08423e-05
9.16764e-05
9.10935e-05
-2.05811e-06
4.74644e-06
9.80226e-06
1.62742e-05
2.05287e-05
1.731e-05
9.04009e-06
4.16557e-06
1.90586e-06
-7.25233e-06
-1.72664e-05
-2.4648e-05
-3.5734e-05
-4.14922e-05
-3.82518e-05
-3.57905e-05
-3.31307e-05
-2.55483e-05
-1.17937e-05
7.87481e-06
2.32323e-05
2.85052e-05
3.11127e-05
3.22749e-05
2.84384e-05
1.88788e-05
7.75675e-06
-2.45533e-06
-8.33324e-06
-1.31041e-05
-1.85764e-05
-2.12923e-05
-2.71141e-05
-3.30939e-05
-3.43244e-05
-3.30582e-05
-2.74882e-05
-1.87913e-05
-1.54688e-05
-1.18836e-05
-0.00010321
-9.80369e-05
-9.14504e-05
-8.58779e-05
-8.67691e-05
-9.29655e-05
-9.99832e-05
-0.000101554
-0.000104084
-0.000116757
-0.00013063
-0.000142279
-0.000152682
-0.000153132
-0.000148283
-0.000146583
-0.000140355
-0.000128033
-0.000108687
-8.68131e-05
-7.2111e-05
-6.5448e-05
-5.85435e-05
-5.36511e-05
-5.72311e-05
-6.60926e-05
-7.46173e-05
-8.22394e-05
-8.87891e-05
-9.65215e-05
-0.000103278
-0.000107826
-0.000118799
-0.00012821
-0.000128264
-0.000124994
-0.000118936
-0.000112075
-0.000114711
-0.000112211
-0.000216418
-0.000208521
-0.000196302
-0.000187408
-0.000186245
-0.0001913
-0.000197296
-0.000197656
-0.000201106
-0.000214303
-0.000229066
-0.000244781
-0.000256963
-0.000256602
-0.000253375
-0.000250282
-0.0002414
-0.000228173
-0.000210697
-0.000193281
-0.000181342
-0.000175194
-0.000170302
-0.000171044
-0.000179765
-0.000186811
-0.000188506
-0.000191994
-0.000198919
-0.000207214
-0.000213034
-0.000218394
-0.000229784
-0.000237197
-0.000235319
-0.000230072
-0.000222913
-0.000220292
-0.000228236
-0.00022594
-0.000286991
-0.000273371
-0.000262293
-0.000260707
-0.000270241
-0.000285763
-0.000300016
-0.000309055
-0.000322635
-0.000342702
-0.000357474
-0.000366474
-0.000366946
-0.000358156
-0.000349624
-0.000337739
-0.000318783
-0.000296108
-0.000274568
-0.000258315
-0.000250978
-0.000251213
-0.000257623
-0.00027306
-0.000288076
-0.000295117
-0.000299827
-0.000306161
-0.000311685
-0.000315424
-0.000315195
-0.000315583
-0.000321558
-0.000323697
-0.000318274
-0.000310232
-0.000300932
-0.000297468
-0.000303787
-0.000299361
-0.000351743
-0.000324168
-0.000302535
-0.000298195
-0.000314261
-0.000335921
-0.000351835
-0.000365201
-0.000393403
-0.000424653
-0.000437534
-0.000428876
-0.000409983
-0.000396074
-0.000381657
-0.000356152
-0.000324844
-0.00029494
-0.000271861
-0.000257136
-0.000249447
-0.000252822
-0.000266936
-0.000291695
-0.000312955
-0.000325046
-0.000339848
-0.000359669
-0.000374036
-0.000379206
-0.000381043
-0.000384348
-0.000394569
-0.000403344
-0.000403635
-0.000399577
-0.000390605
-0.000384463
-0.000385907
-0.000374908
-0.000410237
-0.000371742
-0.000339258
-0.000334069
-0.000362383
-0.000398185
-0.000423908
-0.000451206
-0.000492863
-0.000524338
-0.000521333
-0.0004914
-0.000460234
-0.000434527
-0.000408407
-0.000380003
-0.000357055
-0.000343812
-0.000335303
-0.000331292
-0.00032957
-0.000330869
-0.000330316
-0.000331415
-0.00033707
-0.000353036
-0.000383035
-0.00041348
-0.000432242
-0.000444938
-0.000453722
-0.000455804
-0.000460222
-0.000472613
-0.000480831
-0.000478163
-0.000462726
-0.00045029
-0.000448691
-0.000438347
-0.000514845
-0.00048291
-0.000467082
-0.000475917
-0.000510032
-0.000544998
-0.000565674
-0.000579361
-0.000598761
-0.000599104
-0.00056681
-0.000524112
-0.000491175
-0.000464314
-0.000435285
-0.000415824
-0.000411079
-0.00040998
-0.00041068
-0.000417202
-0.000428372
-0.000438934
-0.000432662
-0.000414111
-0.000394681
-0.000395562
-0.000422789
-0.00046115
-0.000501026
-0.000541326
-0.000564116
-0.000559024
-0.000554107
-0.000567825
-0.000584926
-0.000585198
-0.000569905
-0.000561335
-0.000564833
-0.000549626
-0.000617049
-0.000582903
-0.000585798
-0.000608344
-0.000636068
-0.000658729
-0.000670128
-0.000664829
-0.000655366
-0.000626796
-0.000579901
-0.000547969
-0.000529256
-0.000503556
-0.000476573
-0.000472467
-0.000490253
-0.000504002
-0.000508031
-0.000519272
-0.000542229
-0.000557527
-0.000543325
-0.000510968
-0.000482642
-0.000476556
-0.000491022
-0.000519111
-0.000569295
-0.000627129
-0.000659413
-0.000648239
-0.000628809
-0.000632996
-0.000645991
-0.000655135
-0.000661463
-0.00067609
-0.000692527
-0.000670982
-0.000650801
-0.00062022
-0.000632857
-0.000657746
-0.00067654
-0.000687131
-0.000693091
-0.000690016
-0.000677249
-0.000642096
-0.00060414
-0.000592135
-0.000594289
-0.000579544
-0.000557947
-0.000571077
-0.000608807
-0.000625466
-0.000617611
-0.000619349
-0.000640315
-0.000656522
-0.000640325
-0.000609738
-0.000590013
-0.000593793
-0.000606698
-0.000626902
-0.00067588
-0.000734598
-0.00075851
-0.000737863
-0.000711445
-0.000703184
-0.000698424
-0.000701483
-0.000720567
-0.000754509
-0.000768718
-0.000720961
-0.000644328
-0.000638189
-0.00065601
-0.000662875
-0.000659913
-0.000668052
-0.000699439
-0.000731521
-0.000739522
-0.000706229
-0.000666133
-0.00066569
-0.000684311
-0.000681712
-0.000673528
-0.000701087
-0.000740754
-0.000739877
-0.000709221
-0.000695208
-0.000709252
-0.000730363
-0.000734931
-0.000724279
-0.000716204
-0.000721103
-0.000726758
-0.000744852
-0.000792627
-0.000843935
-0.000858207
-0.000839203
-0.000812712
-0.000784782
-0.000752913
-0.000739294
-0.000755822
-0.000786637
-0.00077807
-0.000707695
-0.00067934
-0.000682891
-0.000683248
-0.000662282
-0.000651961
-0.000670337
-0.000725999
-0.000787241
-0.000809474
-0.000781693
-0.000744932
-0.0007461
-0.000752139
-0.000731302
-0.00072367
-0.000770128
-0.00081387
-0.000798533
-0.000760983
-0.000745785
-0.000763893
-0.000798773
-0.000819
-0.000821716
-0.000821606
-0.000814544
-0.000805621
-0.000812282
-0.000842299
-0.000874965
-0.000891863
-0.000879655
-0.00084665
-0.000803319
-0.000762942
-0.000753577
-0.000779979
-0.000816026
-0.000800293
-0.000729427
-0.000750173
-0.000741783
-0.000717028
-0.000682102
-0.000682111
-0.000716098
-0.000785808
-0.000861382
-0.000894709
-0.000879484
-0.00085639
-0.000843994
-0.000802591
-0.000739741
-0.000729026
-0.000790799
-0.000831782
-0.000808883
-0.00079275
-0.00081194
-0.000860007
-0.000907411
-0.000914524
-0.000900816
-0.000883412
-0.000865773
-0.000851885
-0.000852303
-0.000869182
-0.000892434
-0.000919494
-0.000919133
-0.000887904
-0.000846965
-0.000821897
-0.000838052
-0.000886836
-0.000928935
-0.000897484
-0.000808167
-0.000785935
-0.000758408
-0.000703359
-0.000655945
-0.000660347
-0.000708776
-0.000798121
-0.000877579
-0.000904413
-0.000896229
-0.000896309
-0.000887319
-0.00081654
-0.000730755
-0.000730248
-0.00080712
-0.000836113
-0.000807531
-0.00081679
-0.000868981
-0.000939344
-0.000981878
-0.000960156
-0.000926872
-0.000905249
-0.000894124
-0.000893027
-0.00089456
-0.000895195
-0.000910243
-0.000964273
-0.000994599
-0.000968286
-0.000916185
-0.000887681
-0.000913347
-0.000970047
-0.00100056
-0.000947622
-0.000849761
-0.000779765
-0.000742958
-0.0006646
-0.000608642
-0.000613266
-0.000674342
-0.000788052
-0.000866255
-0.000871098
-0.000859251
-0.000884317
-0.00088662
-0.000807792
-0.000723473
-0.000741841
-0.000818087
-0.000830789
-0.000804636
-0.000835075
-0.000895675
-0.000959125
-0.000980015
-0.000926799
-0.000881621
-0.000875988
-0.000901311
-0.000921957
-0.000910693
-0.000880282
-0.000897366
-0.00100433
-0.00108032
-0.00105776
-0.000982813
-0.000925456
-0.000933081
-0.000978251
-0.00098716
-0.000919403
-0.000831323
-0.000770465
-0.000744511
-0.000652008
-0.000579252
-0.00056779
-0.000643281
-0.000784333
-0.000857856
-0.000831956
-0.000808904
-0.000858113
-0.000872186
-0.000796134
-0.000720376
-0.000748891
-0.000816136
-0.000809196
-0.000793723
-0.000831232
-0.000877975
-0.000924978
-0.000915312
-0.000835761
-0.000796359
-0.000831372
-0.000901102
-0.00093387
-0.000899229
-0.000843819
-0.000872723
-0.00102244
-0.00112048
-0.00109253
-0.00100098
-0.000916503
-0.000898584
-0.000915924
-0.000897946
-0.000834841
-0.00078337
-0.000749392
-0.000729211
-0.000616756
-0.000513701
-0.000489797
-0.000589434
-0.000745031
-0.000801124
-0.000747328
-0.000735152
-0.00081958
-0.000853363
-0.000779034
-0.000707042
-0.000740204
-0.000800416
-0.000776576
-0.000755375
-0.000784843
-0.000826564
-0.000857834
-0.000818628
-0.00072633
-0.000708014
-0.000778829
-0.000870784
-0.00089849
-0.000856401
-0.000801076
-0.000848183
-0.0010056
-0.00109139
-0.0010612
-0.000967976
-0.000871601
-0.000836553
-0.000828242
-0.000790724
-0.00074243
-0.000731485
-0.000695956
-0.000673961
-0.000539066
-0.000419567
-0.000404703
-0.000521636
-0.000668671
-0.000702272
-0.000637778
-0.000651793
-0.000780417
-0.000832286
-0.00075648
-0.000685175
-0.000726485
-0.000769199
-0.000721953
-0.000683828
-0.000705232
-0.000741452
-0.000758031
-0.00070705
-0.000621232
-0.000622787
-0.000712741
-0.000811
-0.000835754
-0.000803155
-0.000752794
-0.000796788
-0.000931273
-0.000999312
-0.000984366
-0.000904245
-0.000811598
-0.000775448
-0.000750048
-0.000691558
-0.000649371
-0.000662988
-0.00059865
-0.000563184
-0.000415563
-0.00028846
-0.000284328
-0.000417065
-0.000560634
-0.000583024
-0.000509348
-0.000541561
-0.000699649
-0.000762564
-0.00069544
-0.000633588
-0.000674775
-0.000695817
-0.000628065
-0.000579276
-0.0005875
-0.000604949
-0.000614036
-0.000571585
-0.000508395
-0.000521047
-0.000616286
-0.00072767
-0.000772668
-0.000752083
-0.000695321
-0.000715783
-0.000815724
-0.000858545
-0.00084371
-0.000778781
-0.000711998
-0.000698744
-0.000663991
-0.000577972
-0.000534099
-0.000563787
-0.000470469
-0.000428919
-0.000268448
-0.000128585
-0.000132795
-0.000272768
-0.000417056
-0.000434442
-0.000354893
-0.000388748
-0.00054597
-0.000613036
-0.000572055
-0.000532921
-0.000571779
-0.000576214
-0.000503688
-0.000454214
-0.000442884
-0.00043718
-0.000441499
-0.000415268
-0.000365003
-0.000379303
-0.000476687
-0.000606177
-0.000673896
-0.000658272
-0.000586103
-0.000590389
-0.000670644
-0.000680918
-0.000651277
-0.000595283
-0.00055723
-0.000578669
-0.000553904
-0.000457276
-0.000414094
-0.00044419
-0.000342419
-0.000292617
-0.000120625
2.43424e-05
1.91205e-05
-0.000113172
-0.000248682
-0.000264533
-0.000184654
-0.000212492
-0.000353046
-0.000418683
-0.0003956
-0.000382969
-0.000436293
-0.000439458
-0.000368231
-0.000319893
-0.000293844
-0.000271374
-0.000276609
-0.00026189
-0.000219878
-0.000228846
-0.000319497
-0.000457734
-0.000530099
-0.000506502
-0.000419758
-0.0004193
-0.000496608
-0.000494372
-0.000458926
-0.000408265
-0.000386412
-0.000435655
-0.000430215
-0.000341724
-0.000302538
-0.00032478
-0.000210467
-0.000158134
1.82819e-05
0.000166658
0.000158335
3.60401e-05
-8.64221e-05
-0.000103259
-2.66816e-05
-4.6946e-05
-0.000169877
-0.000222757
-0.000206896
-0.000212387
-0.000282606
-0.00029811
-0.000236582
-0.000187513
-0.000146409
-0.000114366
-0.000127376