/*--------------------------------*- C++ -*----------------------------------*\
  =========                 |
  \\      /  F ield         | OpenFOAM: The Open Source CFD Toolbox
   \\    /   O peration     | Website:  https://openfoam.org
    \\  /    A nd           | Version:  10
     \\/     M anipulation  |
\*---------------------------------------------------------------------------*/
FoamFile
{
    format      ascii;
    class       volVectorField;
    location    "75";
    object      U;
}
// * * * * * * * * * * * * * * * * * * * * * * * * * * * * * * * * * * * * * //

dimensions      [0 1 -1 0 0 0 0];

internalField   nonuniform List<vector> 
25600
(
(1.10373 0.0110827 0.00246473)
(1.11314 0.0108034 -0.000265154)
(1.11471 0.0122962 -8.1494e-05)
(1.1124 0.0183939 0.00134574)
(1.11296 0.0203518 0.000249991)
(1.12334 0.0171488 -0.00286114)
(1.14317 0.0095565 -0.00576396)
(1.15724 -0.00504884 -0.00257299)
(1.15721 -0.0188738 0.00587271)
(1.14098 -0.0261852 0.0118823)
(1.11836 -0.0258571 0.00904142)
(1.1061 -0.0194878 -0.00132255)
(1.10752 -0.0107425 -0.0100117)
(1.12008 -0.00456501 -0.00923124)
(1.14078 -0.00132822 -0.00201807)
(1.15608 -0.000691387 0.00195637)
(1.15514 -0.00298571 -0.00249592)
(1.13856 -0.00639927 -0.0149941)
(1.11144 -0.0164437 -0.0274258)
(1.08456 -0.028988 -0.0288469)
(1.06832 -0.0364905 -0.0177956)
(1.06246 -0.0390782 0.000166627)
(1.06758 -0.0293862 0.0151982)
(1.08384 -0.015927 0.018061)
(1.09961 -0.00605189 0.00709201)
(1.1065 0.00267987 -0.0126351)
(1.1045 0.00530348 -0.0323437)
(1.09308 0.00764057 -0.0408147)
(1.07746 0.00828559 -0.0311876)
(1.06093 -0.00285723 -0.00912011)
(1.04017 -0.0194941 0.012823)
(1.02479 -0.0358087 0.0241703)
(1.01671 -0.0450916 0.0213338)
(1.01374 -0.0388828 0.0124135)
(1.02408 -0.0238166 0.00493308)
(1.04026 -0.00311388 0.00186629)
(1.0545 0.0150071 0.004284)
(1.06914 0.0212098 0.00837762)
(1.08321 0.0223587 0.00939208)
(1.09406 0.0169442 0.00619148)
(1.06827 -0.00949986 0.0105583)
(1.06832 0.00199776 0.00596271)
(1.05742 0.0156471 -0.000273879)
(1.05259 0.0241701 -0.00654166)
(1.06573 0.0200102 -0.010449)
(1.103 0.00585357 -0.0105857)
(1.14395 -0.0107784 -0.00899106)
(1.15802 -0.0215637 -0.00171456)
(1.13699 -0.0241634 0.00696887)
(1.09449 -0.0227626 0.00953289)
(1.06221 -0.0202824 0.00537639)
(1.06323 -0.017997 0.000113521)
(1.08964 -0.0172884 0.00162758)
(1.12151 -0.0180436 0.00651016)
(1.14447 -0.0138898 0.00748811)
(1.14162 -0.00671241 -0.00183547)
(1.12197 -0.00015339 -0.0199693)
(1.10175 0.00322699 -0.0393075)
(1.08993 -0.00240308 -0.0496346)
(1.09333 -0.0132956 -0.041094)
(1.09913 -0.0244213 -0.016695)
(1.09913 -0.0314433 0.0133785)
(1.09376 -0.0266993 0.0325774)
(1.08983 -0.0151596 0.0302184)
(1.08893 -0.00475297 0.0101088)
(1.08315 0.00327856 -0.0187899)
(1.0789 0.00710298 -0.0432544)
(1.08002 0.0102949 -0.0493857)
(1.08427 0.0135264 -0.0324559)
(1.08702 0.00500013 -0.00541041)
(1.07973 -0.0160731 0.0191457)
(1.07143 -0.0385899 0.0350799)
(1.06907 -0.0536345 0.0388237)
(1.06762 -0.0505665 0.0379932)
(1.06977 -0.0332588 0.0352281)
(1.07015 -0.0128091 0.0316468)
(1.06029 0.00185214 0.029407)
(1.05258 0.00218409 0.0236131)
(1.05469 -0.00351059 0.0173746)
(1.06033 -0.00982732 0.0135004)
(1.03664 0.00375329 0.013413)
(1.01274 0.0144787 -0.0034981)
(1.00465 0.0169567 -0.0087166)
(1.02539 0.0121519 -0.00133684)
(1.06289 0.00158582 0.00687469)
(1.09738 -0.0112977 0.00862731)
(1.10483 -0.0205623 0.004795)
(1.08547 -0.0228587 0.00284152)
(1.05997 -0.0216474 0.00542656)
(1.04515 -0.0224347 0.0112451)
(1.0534 -0.0234617 0.0163938)
(1.08145 -0.0210448 0.0175502)
(1.10231 -0.0179728 0.0126064)
(1.09765 -0.0122928 -6.32367e-05)
(1.08471 -0.000637949 -0.0117826)
(1.07154 0.00651621 -0.0199946)
(1.06945 0.0100423 -0.0292678)
(1.07316 0.0112135 -0.0424528)
(1.07548 0.00382957 -0.0527884)
(1.08921 -0.00832221 -0.0442664)
(1.10185 -0.0213637 -0.0173951)
(1.1087 -0.0245466 0.0149831)
(1.10473 -0.0114792 0.0344041)
(1.09052 0.00585734 0.0301608)
(1.0762 0.0149081 0.00848579)
(1.06377 0.0137554 -0.0184807)
(1.06171 0.00898578 -0.0365964)
(1.06344 0.00316528 -0.0321542)
(1.05785 -0.0076478 -0.00930372)
(1.0449 -0.0270479 0.0136816)
(1.03598 -0.0526654 0.0308033)
(1.03942 -0.0716822 0.0388982)
(1.05006 -0.0760485 0.0369051)
(1.05888 -0.0624433 0.0359598)
(1.06545 -0.0358557 0.0367012)
(1.07708 -0.0120197 0.0428057)
(1.08557 0.00171438 0.0517666)
(1.09036 0.00114342 0.0536715)
(1.08726 -0.00456009 0.049166)
(1.06466 -0.00467994 0.0340915)
(1.03995 0.0175203 0.0342542)
(1.03069 0.023798 0.0347019)
(1.0387 0.0290234 0.0367837)
(1.05948 0.0306562 0.0380062)
(1.07047 0.0208924 0.034582)
(1.06846 0.000322458 0.029435)
(1.05592 -0.0216683 0.020543)
(1.04299 -0.0327442 0.00608263)
(1.03558 -0.0343038 -0.00736942)
(1.03583 -0.0342255 -0.0107985)
(1.05106 -0.0297006 -0.00443608)
(1.06988 -0.0173607 -0.000280154)
(1.07413 -0.00109647 -0.00802725)
(1.06379 0.0129104 -0.022201)
(1.05591 0.0166042 -0.0286932)
(1.05471 0.00505589 -0.0301881)
(1.06591 -0.00447858 -0.0387006)
(1.08083 -0.00232973 -0.0532191)
(1.09542 -0.000497282 -0.0508553)
(1.11578 -0.00179335 -0.0213184)
(1.12088 -0.00466691 0.0153177)
(1.10919 -0.00312007 0.0386928)
(1.08465 0.00530136 0.0358555)
(1.05511 0.0128449 0.0144992)
(1.04176 0.0145544 -0.00799986)
(1.0528 0.013889 -0.0196233)
(1.08196 0.01399 -0.0109139)
(1.09387 0.0024535 0.0154005)
(1.06384 -0.0173805 0.0363463)
(1.01118 -0.0317842 0.0366956)
(0.975556 -0.0433749 0.0270233)
(0.967994 -0.0453783 0.00884071)
(0.978641 -0.0413688 -0.00884905)
(1.00193 -0.0357769 -0.0103761)
(1.02792 -0.0283149 -0.000142477)
(1.05265 -0.0309892 0.0184981)
(1.06708 -0.0314844 0.0359311)
(1.07373 -0.0213216 0.0455942)
(1.07246 -0.00764942 0.0478118)
(1.05679 0.0070492 0.0401218)
(1.08453 0.0247539 0.0427448)
(1.07477 0.0353677 0.0509402)
(1.0706 0.0409979 0.0527557)
(1.06485 0.0352244 0.058954)
(1.04897 0.0119389 0.0626974)
(1.03273 -0.0200178 0.051318)
(1.02495 -0.0423165 0.0203596)
(1.02878 -0.0414858 -0.0208939)
(1.03715 -0.0290816 -0.0478214)
(1.03734 -0.026114 -0.0456928)
(1.03041 -0.0290744 -0.0290762)
(1.02684 -0.0252 -0.0188189)
(1.0364 -0.014047 -0.0160858)
(1.05394 -0.00440368 -0.00999361)
(1.06807 -0.00208542 -0.00182487)
(1.06566 -0.00896532 -0.00802214)
(1.06183 -0.0130184 -0.039916)
(1.07459 -0.00896835 -0.069187)
(1.10145 -0.00661597 -0.0523604)
(1.12608 -0.00677558 0.00303375)
(1.1209 -0.00801083 0.05394)
(1.10169 -0.00207217 0.0659098)
(1.08778 0.0185496 0.0371045)
(1.0775 0.0379492 -0.000527301)
(1.08194 0.0376715 -0.0199616)
(1.09265 0.0145123 -0.0139917)
(1.09168 -0.0116361 0.0105454)
(1.06662 -0.021843 0.039285)
(1.02977 -0.00674536 0.0486469)
(0.999553 0.0140969 0.0429313)
(0.982253 0.0116464 0.035925)
(0.977156 -0.00131532 0.010063)
(0.980972 -0.0145324 -0.0159358)
(1.00368 -0.0258218 -0.0158263)
(1.03762 -0.0303313 0.00262171)
(1.06 -0.0383949 0.0289721)
(1.06056 -0.0375534 0.0426878)
(1.05927 -0.0252485 0.0432892)
(1.07154 -0.0125923 0.0392529)
(1.08496 0.00639412 0.0349496)
(1.12172 0.0589044 0.0521022)
(1.12673 0.0729504 0.0642735)
(1.10967 0.0692621 0.070957)
(1.07837 0.048456 0.0827867)
(1.0534 0.0159295 0.0769328)
(1.03784 -0.0189993 0.0449333)
(1.03093 -0.0396271 0.00277449)
(1.02863 -0.0358325 -0.0411454)
(1.01645 -0.0265927 -0.0583497)
(0.993181 -0.0254451 -0.042492)
(0.984454 -0.025567 -0.0264786)
(1.00232 -0.023413 -0.0255219)
(1.03523 -0.0203922 -0.0245565)
(1.06594 -0.0129171 -0.0078783)
(1.07735 0.00148891 0.00942184)
(1.0562 0.00514325 -0.00346643)
(1.02687 -0.00735327 -0.0479537)
(1.01922 -0.02389 -0.0704575)
(1.04365 -0.0277985 -0.0283851)
(1.0844 -0.00744335 0.0426581)
(1.1078 0.0139541 0.0826278)
(1.11781 0.0230518 0.0697962)
(1.11721 0.0254377 0.0316774)
(1.10195 0.0223049 0.00412976)
(1.08634 0.0146324 -0.00591758)
(1.06817 -0.00528985 -0.000953583)
(1.05864 -0.0273503 0.0192847)
(1.0558 -0.0291158 0.0461737)
(1.04867 -0.00336223 0.0619284)
(1.01685 0.0103436 0.063381)
(0.965913 -0.0146523 0.0453802)
(0.945165 -0.0392025 0.0116436)
(0.963593 -0.0454115 -0.00758468)
(0.99848 -0.0401672 -0.00770617)
(1.02259 -0.0312297 0.00908866)
(1.01606 -0.039664 0.0437346)
(1.00478 -0.0534816 0.0683059)
(1.01326 -0.0540409 0.0685658)
(1.04773 -0.032595 0.051049)
(1.09462 0.0167323 0.0399175)
(1.07916 0.0463922 0.085608)
(1.09004 0.0812834 0.0836591)
(1.10771 0.0986209 0.0738853)
(1.11011 0.0807174 0.0615778)
(1.09769 0.0453186 0.026609)
(1.07662 0.00293902 -0.00607548)
(1.04536 -0.0284433 -0.0194777)
(1.00841 -0.0203881 -0.0311282)
(0.970214 -0.000596698 -0.0253745)
(0.953414 0.00350636 0.00994366)
(0.984867 -0.0029766 0.0420013)
(1.02916 -0.0134847 0.0441395)
(1.05414 -0.0151826 0.0322982)
(1.05854 0.000871152 0.0284236)
(1.05742 0.0245653 0.0166047)
(1.04888 0.0214368 -0.0194791)
(1.03781 -0.0113406 -0.0582129)
(1.04613 -0.0325345 -0.0480809)
(1.06883 -0.0224353 0.0161126)
(1.08294 0.00759982 0.0731465)
(1.06607 0.0199445 0.082889)
(1.0393 0.0110959 0.0609084)
(1.03679 0.00774121 0.0341151)
(1.06158 0.0223805 0.00942199)
(1.07452 0.0339962 -0.009787)
(1.05672 0.0132039 -0.00855786)
(1.04955 -0.0206644 0.0303184)
(1.04768 -0.0268591 0.0877705)
(1.03581 0.00281088 0.113312)
(1.00666 0.0145718 0.0831126)
(0.969829 -0.0254278 0.0147035)
(0.969419 -0.0620003 -0.0353518)
(0.999794 -0.0554431 -0.0357476)
(1.0151 -0.032392 -0.0108431)
(0.991677 -0.0245822 0.025396)
(0.950198 -0.0479576 0.0480587)
(0.9606 -0.072058 0.0327386)
(1.01689 -0.0724445 0.0164939)
(1.0607 -0.0499125 0.0289208)
(1.07883 -0.00148843 0.0608311)
(1.01499 0.0641107 0.0865446)
(1.03069 0.0749051 0.0619851)
(1.06539 0.0721186 0.0478977)
(1.08518 0.0544938 0.0334971)
(1.07825 0.0322916 -0.00151976)
(1.05237 -0.0050554 -0.0378804)
(1.0169 -0.0369573 -0.0596377)
(0.993812 -0.0311154 -0.0563824)
(0.991266 -0.0202117 -0.00715403)
(1.00831 -0.0191499 0.0617872)
(1.03563 -0.0105048 0.0877247)
(1.03654 -0.00127688 0.0497468)
(1.02523 0.00880724 0.00715226)
(1.02367 0.0215143 -0.00135868)
(1.03006 0.0253699 -0.0128737)
(1.02838 -0.000648025 -0.0436287)
(1.03493 -0.0385828 -0.058576)
(1.06889 -0.0461524 -0.0151144)
(1.08753 -0.0285251 0.0619668)
(1.07037 -0.00924603 0.0972062)
(1.03919 -0.00593138 0.0778852)
(1.02749 -0.0133047 0.0434616)
(1.03499 -0.0114872 0.0139785)
(1.03018 0.00162233 0.00264072)
(1.0088 0.0074666 0.00735735)
(0.995372 -0.00588073 0.0225312)
(1.00919 -0.0177482 0.0583747)
(1.02258 -0.00965649 0.0941868)
(1.01758 0.011499 0.0942501)
(0.996197 0.00462347 0.0507656)
(0.971281 -0.0438639 -0.0092996)
(0.974763 -0.0765901 -0.0344241)
(0.997916 -0.0677124 -0.0115421)
(1.01189 -0.0495804 0.0240663)
(1.00716 -0.0438299 0.0401914)
(0.985168 -0.0604048 0.01469)
(0.989166 -0.0698937 -0.0206515)
(1.01767 -0.0487539 0.00230733)
(1.02503 -0.0133932 0.0614841)
(1.02039 0.0317759 0.0943137)
(0.977196 0.0502184 0.0683414)
(0.997739 0.0481695 0.0358774)
(1.02006 0.048385 0.0268905)
(1.02929 0.0455757 0.0201751)
(1.03477 0.0329563 -0.0122674)
(1.03251 -0.00646342 -0.0433095)
(1.00678 -0.0464778 -0.0608785)
(0.985608 -0.0442939 -0.0566532)
(0.999575 -0.0219634 0.00492516)
(1.02586 -0.00639612 0.0832224)
(1.03457 -0.00240776 0.0965614)
(1.02162 -0.00183355 0.0360296)
(1.02324 0.0186856 -0.00898685)
(1.04485 0.0373028 -0.00615143)
(1.06182 0.030918 -0.0182199)
(1.05069 -0.000464284 -0.0519521)
(1.0524 -0.0297764 -0.0537681)
(1.09723 -0.0228951 0.00880869)
(1.1024 -0.0121435 0.0725984)
(1.04573 -0.0208674 0.0670101)
(1.001 -0.0347917 0.029323)
(0.994234 -0.0343604 0.00778753)
(0.978524 -0.0163338 0.00948049)
(0.938632 -0.00445548 0.0313922)
(0.925236 -0.00698998 0.0467103)
(0.943948 -0.0140292 0.0506761)
(0.979971 -0.0111728 0.0566773)
(1.01675 0.00701704 0.0479102)
(1.0311 0.0286524 0.024392)
(1.01343 0.0163098 0.00476166)
(0.988053 -0.0343527 -0.0124067)
(0.986204 -0.0661355 -0.0124638)
(0.998 -0.0573785 0.0190648)
(1.01537 -0.0340222 0.0451798)
(1.03383 -0.0254347 0.0355048)
(1.02475 -0.0491867 -0.00967835)
(1.00694 -0.0589905 -0.0288801)
(0.989153 -0.0254834 0.0299211)
(0.96329 0.0132789 0.0932109)
(0.962931 0.0412714 0.0994816)
(0.9803 0.0468028 0.0497458)
(0.964666 0.0507365 0.018409)
(0.970431 0.0545626 0.0136093)
(0.983851 0.0506791 0.0104256)
(0.976389 0.0188835 -0.0232418)
(0.970084 -0.0259412 -0.0523758)
(0.959147 -0.0583385 -0.0635699)
(0.950281 -0.0629794 -0.0456841)
(0.974417 -0.0418951 0.0227817)
(1.01209 -0.0180245 0.0909774)
(1.03582 -0.00931387 0.0916717)
(1.02281 0.00154835 0.0285924)
(1.01403 0.029467 -0.0161075)
(1.03349 0.0360528 -0.0149242)
(1.0476 0.0177485 -0.0130351)
(1.03159 -0.0192142 -0.0342099)
(1.03085 -0.0456798 -0.0433277)
(1.0628 -0.0220991 0.000480209)
(1.03957 -0.00634248 0.0354624)
(0.968047 -0.0273242 0.0176614)
(0.935514 -0.0473656 0.00421473)
(0.933846 -0.0374026 0.0213033)
(0.915654 -0.00706572 0.0489915)
(0.905099 0.00619074 0.0583419)
(0.927439 -0.00347161 0.0407016)
(0.952307 -0.0184473 0.0377285)
(0.982812 -0.0189585 0.0493917)
(1.01118 0.0034311 0.0280387)
(1.01675 0.0316557 -0.0054212)
(1.00614 0.01979 -0.0129791)
(1.00269 -0.0286423 -0.0292721)
(1.0169 -0.0514638 -0.0326294)
(1.03645 -0.0365722 0.0174625)
(1.04634 -0.0261239 0.0580162)
(1.03819 -0.0387957 0.0485399)
(1.00375 -0.0590897 0.00972631)
(0.97219 -0.0413617 0.00514696)
(0.961152 0.00477328 0.0606131)
(0.960552 0.0235837 0.0934531)
(0.97589 0.0324514 0.0800363)
(0.989375 0.0515925 0.0276089)
(0.941716 0.0496641 0.00200608)
(0.967234 0.0626308 0.00573021)
(1.00646 0.0596557 -0.00244453)
(0.989401 0.00903225 -0.0395455)
(0.966832 -0.0368997 -0.0552607)
(0.956664 -0.0558759 -0.0573495)
(0.952074 -0.058592 -0.0338305)
(0.966258 -0.045393 0.0302552)
(0.992037 -0.0252197 0.0805223)
(1.02299 0.00168845 0.0698833)
(1.01654 0.0300897 -0.00177908)
(0.988318 0.0379025 -0.050157)
(0.999554 0.018329 -0.0206772)
(1.00892 -0.00572228 0.0127622)
(0.975151 -0.0372354 -0.0177262)
(0.95134 -0.0513341 -0.0549853)
(0.967419 -0.0175201 -0.0301059)
(0.969134 0.00360779 0.00182365)
(0.936646 -0.0161667 0.000965686)
(0.915233 -0.0379705 0.0024931)
(0.918529 -0.0285137 0.0262191)
(0.918231 -0.00475049 0.0504914)
(0.92257 -0.00580357 0.0422849)
(0.935488 -0.0233288 0.0227172)
(0.936849 -0.0345264 0.0339462)
(0.959406 -0.0278043 0.0453954)
(0.997233 0.00207714 0.0231362)
(1.01472 0.0356935 0.00444899)
(1.02063 0.0252413 0.00134046)
(1.03346 -0.0210162 -0.0367538)
(1.03824 -0.038745 -0.055262)
(1.04773 -0.0182275 0.00356235)
(1.05987 -0.00239909 0.0439842)
(1.03755 -0.00790329 0.027175)
(0.985759 -0.0281083 0.00163604)
(0.95201 -0.0313121 0.0105017)
(0.966388 -0.00800421 0.0496742)
(1.00955 0.0102367 0.0580829)
(1.03034 0.0333377 0.0467081)
(0.98114 0.061642 0.00446933)
(0.945526 0.0615091 -0.0185792)
(0.985352 0.070826 -0.0082963)
(1.03786 0.0538308 -0.0142606)
(1.02503 9.67552e-05 -0.0355862)
(0.984042 -0.033242 -0.0433686)
(0.958617 -0.0406865 -0.0501704)
(0.968432 -0.0366049 -0.0212134)
(0.999678 -0.0252702 0.0427313)
(1.00753 -0.014272 0.0699527)
(1.00556 0.0105275 0.0308145)
(1.00311 0.0423438 -0.0492076)
(0.994318 0.041866 -0.0650073)
(0.99382 0.0156803 0.00216119)
(0.983048 -0.00496343 0.0242028)
(0.947312 -0.0269801 -0.036095)
(0.917918 -0.0282335 -0.086497)
(0.910018 0.00569564 -0.0705772)
(0.902624 0.0222185 -0.037322)
(0.897713 0.00334595 -0.0227664)
(0.904972 -0.0268808 -0.0109306)
(0.926636 -0.0310311 0.0138002)
(0.942509 -0.00981905 0.0286349)
(0.946043 -0.00501755 0.00971686)
(0.938782 -0.0188672 0.00326872)
(0.922338 -0.0347795 0.0259969)
(0.943579 -0.0343196 0.0191016)
(0.988804 -0.00595983 -0.00703446)
(1.01878 0.0268825 -0.000932731)
(1.03393 0.0157446 0.00657184)
(1.0517 -0.0217458 -0.0311082)
(1.04971 -0.0248125 -0.0444629)
(1.0453 0.00113291 0.00128657)
(1.05767 0.0176188 0.0148464)
(1.0243 0.0100926 0.00249093)
(0.955229 -0.015232 0.00739747)
(0.923035 -0.0307593 0.0225161)
(0.947359 -0.0219896 0.0417027)
(0.999731 -0.000750707 0.0402629)
(1.02079 0.0366314 0.0302779)
(0.973888 0.0624969 -0.0103898)
(0.949443 0.074427 -0.0368109)
(0.997977 0.0794947 -0.027359)
(1.05381 0.0444518 -0.0264972)
(1.03037 -0.00510703 -0.0425129)
(0.984042 -0.0286507 -0.0575401)
(0.959778 -0.0367734 -0.058675)
(0.974218 -0.0295888 -0.0129777)
(1.0133 -0.00988757 0.0535912)
(1.02109 0.004996 0.0648579)
(1.00732 0.0210996 0.00814053)
(1.00323 0.0389859 -0.0663192)
(1.00064 0.0391674 -0.0581451)
(1.00575 0.0286624 0.00982457)
(1.00658 0.00770824 0.0199808)
(0.972483 -0.0241251 -0.0289125)
(0.927659 -0.0231553 -0.0662394)
(0.897324 0.015312 -0.0586545)
(0.881765 0.035906 -0.037365)
(0.888623 0.0195738 -0.0280641)
(0.89857 -0.0147236 -0.0152756)
(0.918772 -0.0239564 0.00872377)
(0.946367 -0.00353219 0.0180368)
(0.965064 0.00321076 -0.00440231)
(0.959572 -0.0109389 -0.00762289)
(0.934377 -0.0358442 0.0109683)
(0.945969 -0.0446212 -0.0103146)
(0.980309 -0.0156033 -0.0368043)
(1.01413 0.0213002 -0.0207617)
(1.04836 0.0116291 -0.0151589)
(1.07218 -0.0159697 -0.0507322)
(1.05317 -0.00522485 -0.0470686)
(1.03155 0.0183336 0.00234315)
(1.05406 0.0238102 0.00777968)
(1.03687 0.0165454 0.00122153)
(0.976939 -0.0067922 0.00943961)
(0.934544 -0.029555 0.0172539)
(0.928612 -0.027837 0.0375729)
(0.962256 -0.00403629 0.0440661)
(0.992818 0.034855 0.0280215)
(0.971144 0.0678592 -0.0217341)
(0.953798 0.0866562 -0.0609399)
(1.0137 0.0763143 -0.0496965)
(1.05932 0.0380974 -0.0370632)
(1.0165 0.00031731 -0.0501371)
(0.976872 -0.027327 -0.0593037)
(0.967437 -0.0361994 -0.0369751)
(0.982483 -0.0156361 0.0158019)
(1.01315 0.0141833 0.0566754)
(1.01206 0.0242794 0.043024)
(0.99761 0.0255902 -0.015917)
(1.00012 0.0358593 -0.0720215)
(1.00101 0.0447866 -0.0489449)
(1.01014 0.0393411 0.0128292)
(1.02049 0.0117838 0.0150656)
(0.993202 -0.019758 -0.0207577)
(0.939928 -0.0145454 -0.0375525)
(0.890551 0.0186564 -0.0293043)
(0.877144 0.0383107 -0.0205365)
(0.896611 0.0259115 -0.0163081)
(0.897853 -0.0112357 0.0072206)
(0.916567 -0.0227303 0.0336169)
(0.96688 -0.000856492 0.0281493)
(0.988735 0.00415665 0.00248649)
(0.962099 -0.0130496 0.00637265)
(0.918598 -0.0416157 0.0148558)
(0.916206 -0.0519277 -0.0245716)
(0.944704 -0.0175529 -0.0582911)
(0.989792 0.0140051 -0.0399094)
(1.03976 -0.00630115 -0.0257969)
(1.06507 -0.0205281 -0.0493555)
(1.04296 0.00548707 -0.038928)
(1.02667 0.0208111 0.00138955)
(1.05403 0.016704 0.000427065)
(1.04873 0.0121248 -0.00417053)
(1.01241 -0.00809531 -0.00496702)
(0.97425 -0.0269987 -0.00415165)
(0.94361 -0.01858 0.0241831)
(0.953963 0.00323549 0.0431844)
(0.982293 0.0345631 0.0281646)
(0.971375 0.0758983 -0.0359518)
(0.954382 0.0852341 -0.0820496)
(1.02924 0.0596265 -0.0623517)
(1.06523 0.0360539 -0.0420532)
(1.00193 0.00873754 -0.0504389)
(0.965748 -0.0287411 -0.0478569)
(0.971599 -0.0357606 -0.0208776)
(0.992944 -0.00389717 0.0179605)
(1.01222 0.0322511 0.0392079)
(0.996494 0.0392774 0.0147405)
(0.98725 0.0301489 -0.040032)
(1.00393 0.0352535 -0.0786195)
(1.00667 0.0496932 -0.0403655)
(1.01658 0.0500734 0.0178674)
(1.02995 0.0212393 0.00936065)
(1.00867 -0.0104064 -0.0176662)
(0.959693 -0.00705216 -0.0181713)
(0.902682 0.0147293 -0.0118066)
(0.893574 0.0300247 -0.0164074)
(0.915827 0.0211046 -0.0135485)
(0.90484 -0.0153489 0.0247316)
(0.923096 -0.0246379 0.0610312)
(0.985722 0.00149704 0.0479917)
(1.00208 0.00954586 0.0158622)
(0.959112 -0.00821432 0.0125912)
(0.897186 -0.0389747 0.00626382)
(0.873891 -0.0519623 -0.0361277)
(0.902426 -0.026032 -0.0630155)
(0.95309 -0.0117716 -0.0379226)
(0.98184 -0.0307418 -0.012007)
(0.999952 -0.02285 -0.0286663)
(1.01041 0.0116081 -0.0279353)
(1.03324 0.0255183 -0.00453436)
(1.05571 0.0295102 -0.0032586)
(1.03143 0.0253692 0.00185083)
(1.00476 -0.00640894 -0.000760449)
(0.980028 -0.0218511 -0.0043149)
(0.946769 -0.00189565 0.0206366)
(0.948735 0.0166687 0.039908)
(0.980385 0.0400965 0.0248008)
(0.967628 0.0793588 -0.0597477)
(0.965653 0.0753008 -0.105538)
(1.06083 0.0460642 -0.0741165)
(1.07117 0.0415046 -0.0463586)
(0.986112 0.0191757 -0.0454458)
(0.947746 -0.0267467 -0.0274722)
(0.957476 -0.0340404 -0.00126648)
(0.998265 0.00126034 0.0226864)
(1.0259 0.0418646 0.0272692)
(0.993701 0.0469874 -0.0143524)
(0.983109 0.0293842 -0.0671491)
(1.00847 0.032884 -0.0767018)
(1.01306 0.0542518 -0.0173182)
(1.03313 0.0573231 0.0255581)
(1.02385 0.0280615 0.00321994)
(0.975377 -0.0022138 -0.00816663)
(0.944587 -0.00491272 -0.00527583)
(0.915859 0.00586434 -0.0108772)
(0.920037 0.0214919 -0.0141778)
(0.933049 0.016986 0.00106957)
(0.909103 -0.0220803 0.0392354)
(0.927548 -0.0303818 0.078695)
(0.993224 0.00234655 0.0705472)
(1.00791 0.0106952 0.0289449)
(0.947987 -0.00813964 0.0115675)
(0.87247 -0.0337237 -0.00528741)
(0.852499 -0.043464 -0.043691)
(0.890222 -0.023505 -0.0552101)
(0.917397 -0.014887 -0.018933)
(0.896717 -0.0257132 0.0193371)
(0.908504 -0.00892315 0.00979383)
(0.958467 0.0197657 0.000878061)
(1.00594 0.033366 0.00960375)
(1.0189 0.0464369 0.00800536)
(1.00587 0.0363968 0.0116746)
(1.00367 -0.00653166 0.00401869)
(0.978036 -0.0133961 -0.00344976)
(0.936116 0.0184426 0.00863063)
(0.942573 0.0310088 0.0202472)
(0.984598 0.0463153 0.00616351)
(0.963239 0.0763942 -0.0853102)
(1.00081 0.0604848 -0.124535)
(1.09703 0.0408106 -0.0870169)
(1.07093 0.0566959 -0.0520669)
(0.976561 0.0350541 -0.0404646)
(0.944471 -0.0199129 -0.012288)
(0.977155 -0.0350155 0.0174244)
(1.04564 -0.00154077 0.0349666)
(1.05801 0.0443901 0.0158203)
(0.988695 0.0480281 -0.0504474)
(0.970603 0.0271711 -0.0876265)
(0.992488 0.034894 -0.055387)
(1.01613 0.0521938 0.0192082)
(1.05154 0.0544952 0.035554)
(0.996701 0.0387115 0.0111383)
(0.918769 0.0113068 0.0160722)
(0.917325 -0.000220656 0.0117097)
(0.928843 0.00785418 0.000421816)
(0.948986 0.0286249 0.0131159)
(0.951245 0.0231461 0.0327879)
(0.905595 -0.0209675 0.0447788)
(0.916991 -0.0355691 0.0794885)
(0.98926 -0.00720802 0.0866617)
(1.00751 0.0045723 0.0416213)
(0.93497 -0.00534057 0.0123018)
(0.85628 -0.0262818 -0.012158)
(0.840878 -0.033636 -0.0458586)
(0.871025 -0.0118445 -0.0430847)
(0.882036 -0.00255757 5.20419e-06)
(0.85548 -0.0138543 0.0430458)
(0.873946 -0.00327898 0.0357502)
(0.929688 0.0202692 0.0195987)
(0.963706 0.0410412 0.0259024)
(0.984766 0.0595316 0.0207816)
(1.01534 0.0388813 0.00895439)
(1.01946 -0.00768635 -0.00698346)
(0.964209 -0.00183764 -0.0149678)
(0.909508 0.0357873 -0.0101301)
(0.937275 0.0379063 -0.00186989)
(0.983616 0.0489369 -0.0184571)
(0.948504 0.0697261 -0.115361)
(1.01508 0.0472477 -0.144161)
(1.09385 0.043855 -0.090997)
(1.04691 0.0718161 -0.0425939)
(0.957121 0.0441971 -0.0373598)
(0.940854 -0.0173368 -0.0109168)
(1.00683 -0.0388825 0.033009)
(1.08955 -0.0043378 0.0505215)
(1.07125 0.0498697 0.0026776)
(0.979653 0.0502785 -0.0863182)
(0.967942 0.0244924 -0.103404)
(0.992417 0.0236438 -0.0246549)
(1.01263 0.0267805 0.0587796)
(1.01756 0.0447019 0.0523253)
(0.953805 0.0468619 0.0279127)
(0.905875 0.0150989 0.0214144)
(0.920838 -0.00166729 0.00489304)
(0.938529 0.0121725 0.00803955)
(0.965232 0.0369272 0.0425177)
(0.959796 0.0327483 0.0507981)
(0.889396 -0.00946747 0.0404347)
(0.897632 -0.0377901 0.0727652)
(0.985589 -0.0235473 0.0802822)
(1.00108 -0.00549786 0.0317448)
(0.923066 -0.00298362 0.00668772)
(0.849216 -0.0201502 -0.0138734)
(0.830293 -0.024253 -0.0416006)
(0.850789 -0.000993364 -0.0326378)
(0.86738 0.00546246 0.00559427)
(0.862955 -0.00967054 0.0418253)
(0.882572 -0.00602625 0.0346283)
(0.906949 0.016719 0.0244486)
(0.92008 0.043642 0.0377156)
(0.973513 0.0615112 0.0261062)
(1.04205 0.0357852 -0.00146977)
(1.01799 -0.0060202 -0.0238434)
(0.928805 0.0107982 -0.0244945)
(0.894389 0.0443054 -0.0109727)
(0.94513 0.036913 -0.00876351)
(0.968207 0.0498962 -0.0438154)
(0.925197 0.0635866 -0.143855)
(0.996274 0.0415206 -0.149368)
(1.06322 0.0505491 -0.0770861)
(1.02171 0.0788211 -0.0277209)
(0.940157 0.0476986 -0.0373307)
(0.941255 -0.016859 -0.00952139)
(1.02872 -0.0450606 0.0390166)
(1.1013 -0.00644214 0.0495759)
(1.05433 0.0547823 -0.0130172)
(0.974052 0.0516497 -0.104447)
(1.00499 0.0174641 -0.10394)
(1.04369 -0.000946924 -0.0085617)
(1.00995 -0.000996503 0.0598095)
(0.967848 0.0339195 0.0501659)
(0.930618 0.0457849 0.0312405)
(0.911236 0.0154387 0.00593437)
(0.916247 0.000735841 -0.0160034)
(0.929814 0.0165567 0.00938908)
(0.972441 0.0403778 0.0527789)
(0.962518 0.0423429 0.0504856)
(0.887968 0.00441819 0.0471547)
(0.896233 -0.0414147 0.0768907)
(0.968764 -0.0371708 0.0605035)
(0.965105 -0.00923345 0.00651991)
(0.898913 0.00198076 -0.0018925)
(0.847316 -0.0138691 -0.0143032)
(0.824717 -0.0174812 -0.0354769)
(0.835659 0.00338341 -0.0196418)
(0.855935 0.00705172 0.0115504)
(0.866841 -0.00691929 0.0352683)
(0.882561 -0.00266867 0.0249003)
(0.882634 0.0197825 0.0237092)
(0.891869 0.0450099 0.0391146)
(0.975817 0.058421 0.0168546)
(1.06096 0.0323289 -0.0147013)
(1.00753 -0.00389266 -0.0367029)
(0.905996 0.0179268 -0.0294613)
(0.902447 0.044251 -0.00151229)
(0.9532 0.0338439 -0.0133737)
(0.943118 0.0517243 -0.0760478)
(0.907353 0.0606272 -0.15304)
(0.971997 0.0382936 -0.128459)
(1.03354 0.0523708 -0.0506857)
(1.00309 0.0795722 -0.0165395)
(0.93403 0.0485814 -0.0310499)
(0.956667 -0.0188757 0.000350599)
(1.03964 -0.0492647 0.0370817)
(1.07696 -0.00465225 0.032632)
(1.0155 0.0582006 -0.0332284)
(0.979695 0.0461888 -0.0998631)
(1.05695 0.00331349 -0.0792239)
(1.09342 -0.0175459 -0.000871214)
(1.00051 -0.0110181 0.0428832)
(0.933084 0.0279748 0.038143)
(0.927116 0.0428154 0.0162001)
(0.922923 0.0168136 -0.0178044)
(0.906391 0.00601404 -0.0218359)
(0.91292 0.0183388 0.0174992)
(0.963179 0.0385077 0.0511188)
(0.960692 0.0455666 0.0479457)
(0.927965 0.0105764 0.0550357)
(0.934055 -0.0416333 0.0735501)
(0.94232 -0.0452451 0.0339394)
(0.896205 -0.0152557 -0.0143323)
(0.857668 -0.00118564 -0.000408826)
(0.834897 -0.0130401 -0.0115531)
(0.808791 -0.0139356 -0.0327258)
(0.823329 0.00270151 -0.0121343)
(0.851136 0.00611824 0.0172112)
(0.85748 -0.00225907 0.0317909)
(0.866031 0.00384816 0.0184342)
(0.866757 0.0226265 0.0220986)
(0.884068 0.0428988 0.0315256)
(0.98009 0.0549541 -0.000645562)
(1.06268 0.0284865 -0.0295557)
(0.999585 -0.00602793 -0.0467912)
(0.900483 0.0205645 -0.0322449)
(0.917432 0.0434193 0.00280643)
(0.960626 0.0327988 -0.0293371)
(0.922995 0.0553424 -0.111239)
(0.899003 0.0574563 -0.140982)
(0.954994 0.0338126 -0.0958608)
(1.00231 0.0505258 -0.0245947)
(0.980026 0.0766962 -0.00612096)
(0.945003 0.0456175 -0.0179812)
(0.983348 -0.0199919 0.00683424)
(1.02975 -0.0453644 0.0227749)
(1.02156 0.00318375 0.00348214)
(0.983351 0.0602154 -0.0520937)
(1.02159 0.0357761 -0.0796628)
(1.09552 -0.0109487 -0.0424968)
(1.07 -0.0244427 0.0140985)
(0.941974 -0.0131797 0.034025)
(0.899405 0.0216964 0.0223875)
(0.928979 0.0386529 -0.0131939)
(0.929036 0.0179765 -0.0355678)
(0.887107 0.008798 -0.0108313)
(0.896062 0.0202742 0.0199972)
(0.928567 0.0382192 0.0437142)
(0.957861 0.0389351 0.0450368)
(1.01976 0.00250507 0.0399763)
(1.00001 -0.0389444 0.0468226)
(0.907849 -0.0386322 0.00636821)
(0.808057 -0.0139157 -0.018464)
(0.801703 -0.00571915 0.0100437)
(0.801602 -0.00898781 -0.0116758)
(0.772266 -0.00849391 -0.0338209)
(0.80936 -0.00205972 -0.00640036)
(0.846506 0.0043412 0.0275785)
(0.82957 0.00568991 0.0307758)
(0.836125 0.0103163 0.0087361)
(0.869246 0.0213726 0.0162689)
(0.897695 0.0389646 0.0223287)
(0.968896 0.0525953 -0.0136884)
(1.03988 0.0222422 -0.0469344)
(0.993854 -0.00997047 -0.0625587)
(0.907264 0.0234682 -0.034578)
(0.955819 0.0425865 0.00121924)
(0.977354 0.0332461 -0.0560925)
(0.898632 0.0599689 -0.139137)
(0.902167 0.0517168 -0.113114)
(0.947432 0.0294127 -0.0691624)
(0.967809 0.0481907 -0.0091575)
(0.962878 0.0698863 0.00590137)
(0.985544 0.0381652 0.000686309)
(1.01247 -0.0177489 0.00758623)
(0.994325 -0.0328168 -0.00543703)
(0.951913 0.0126532 -0.0350106)
(0.987359 0.054417 -0.0666184)
(1.09774 0.0213176 -0.0549951)
(1.10126 -0.0164713 -0.0137744)
(0.983602 -0.0187531 0.0197548)
(0.85959 -0.0128671 0.024162)
(0.856747 0.013698 -0.00328682)
(0.908192 0.0353438 -0.0511489)
(0.924155 0.0208473 -0.0460352)
(0.887097 0.0113059 -0.00380192)
(0.889265 0.0249478 0.0128117)
(0.861054 0.0386475 0.0410733)
(0.928059 0.0245944 0.041569)
(1.06109 -0.0154783 0.0214888)
(1.00315 -0.0408392 0.0223429)
(0.85517 -0.0257047 -0.00347781)
(0.720961 -0.0120871 -0.00294069)
(0.724832 -0.0140771 0.0174445)
(0.756051 -0.00440543 -0.0174755)
(0.752603 -0.00447416 -0.0300301)
(0.795122 -0.0115433 0.00373285)
(0.819271 0.00283675 0.0367882)
(0.784864 0.0148096 0.0288717)
(0.810583 0.00971689 0.000762589)
(0.871119 0.0144329 0.0160254)
(0.897758 0.0378957 0.0261026)
(0.94863 0.0495691 -0.0176204)
(1.00822 0.0116595 -0.061245)
(0.965003 -0.0110221 -0.0777421)
(0.926452 0.0285706 -0.045079)
(1.03961 0.0415097 -0.0148527)
(0.996287 0.0384698 -0.0863407)
(0.863312 0.066243 -0.145158)
(0.933375 0.0389663 -0.0875894)
(0.964624 0.0239893 -0.0594957)
(0.953518 0.0446439 -0.00263734)
(0.973309 0.0570933 0.0130959)
(1.03844 0.0266207 0.0122108)
(1.03009 -0.0104616 0.00558215)
(0.953278 -0.015032 -0.0321763)
(0.906042 0.0152542 -0.0663664)
(1.03521 0.0359957 -0.0718515)
(1.16087 0.00765789 -0.034266)
(1.06064 -0.013349 -3.01335e-05)
(0.905367 -0.0110697 0.0213783)
(0.809832 -0.0133481 0.0229693)
(0.800944 0.00662716 -0.0277671)
(0.859385 0.0284586 -0.0833255)
(0.907002 0.0224327 -0.0513957)
(0.893399 0.0183692 -0.00148069)
(0.875246 0.0295685 0.0149859)
(0.82508 0.0345843 0.0353345)
(0.920562 0.0110329 0.000660899)
(1.01403 -0.0246607 -0.00732982)
(0.907394 -0.0374713 0.025237)
(0.766586 -0.0163814 0.0141142)
(0.636547 -0.0143304 0.0094782)
(0.640282 -0.0241529 0.000367452)
(0.717807 -0.00227142 -0.0313534)
(0.760485 -0.0025675 -0.0228944)
(0.770855 -0.0194612 0.00878515)
(0.772321 0.00284956 0.0353813)
(0.766018 0.0188325 0.036275)
(0.805425 0.00143655 0.0140867)
(0.83449 0.0050288 0.033967)
(0.864585 0.0366806 0.032891)
(0.940671 0.0455714 -0.0296139)
(0.981421 0.00581614 -0.0675053)
(0.916082 -0.00779982 -0.081174)
(0.961034 0.0292106 -0.0619189)
(1.12672 0.0396276 -0.0449937)
(0.961184 0.0514543 -0.109044)
(0.82121 0.0713776 -0.123304)
(0.996139 0.0179541 -0.0805213)
(0.992335 0.0182973 -0.0664493)
(0.961057 0.038642 -0.00196044)
(0.996091 0.0384823 0.0130859)
(1.05827 0.0149674 0.0188064)
(1.01658 6.93441e-05 0.00323873)
(0.919753 0.000952033 -0.0538395)