# y+ ()       
# Time        	patch         	min           	max           	average       
34            	bottomWall	2.716601e+00	4.788538e+00	3.488614e+00
34            	topWall	2.650749e+00	4.903461e+00	3.564845e+00
