/*--------------------------------*- C++ -*----------------------------------*\
  =========                 |
  \\      /  F ield         | OpenFOAM: The Open Source CFD Toolbox
   \\    /   O peration     | Website:  https://openfoam.org
    \\  /    A nd           | Version:  10
     \\/     M anipulation  |
\*---------------------------------------------------------------------------*/
FoamFile
{
    format      ascii;
    class       surfaceScalarField;
    location    "37.5";
    object      phi_0;
}
// * * * * * * * * * * * * * * * * * * * * * * * * * * * * * * * * * * * * * //

dimensions      [0 3 -1 0 0 0 0];

internalField   nonuniform List<scalar> 
74080
(
8.33831e-06
2.61644e-09
-5.75325e-09
8.33874e-06
5.59036e-09
-9.25874e-09
8.33784e-06
6.54065e-09
-6.1069e-09
8.33699e-06
6.81977e-09
-8.02754e-09
8.33992e-06
2.27249e-09
-7.8234e-09
8.33883e-06
7.4365e-09
-7.19734e-09
8.33487e-06
9.27481e-09
-7.9009e-09
8.34426e-06
-3.13236e-09
-7.78947e-09
8.33477e-06
1.54913e-08
-8.90025e-09
8.33918e-06
5.13919e-10
-4.92794e-09
8.34242e-06
3.34696e-09
-1.11876e-08
8.33527e-06
1.27009e-08
-5.37251e-09
8.34208e-06
-1.23542e-09
-8.73016e-09
8.3379e-06
1.06341e-08
-8.43855e-09
8.34196e-06
6.68102e-10
-6.73834e-09
8.33624e-06
1.2032e-08
-7.53543e-09
8.34284e-06
-1.42517e-09
-8.83304e-09
8.33847e-06
1.0754e-08
-5.96569e-09
8.33883e-06
4.55639e-09
-8.74724e-09
8.34165e-06
2.66732e-09
-6.42299e-09
8.3373e-06
1.00261e-08
-7.33351e-09
8.34204e-06
1.80799e-10
-7.13791e-09
8.33582e-06
1.22522e-08
-7.07724e-09
8.34391e-06
-2.92094e-09
-6.7669e-09
8.33333e-06
1.50784e-08
-6.05346e-09
8.34347e-06
-4.3467e-09
-7.20722e-09
8.33748e-06
1.09519e-08
-6.11021e-09
8.3341e-06
8.33088e-09
-6.14187e-09
8.34707e-06
-7.11099e-09
-7.09756e-09
8.32841e-06
2.30689e-08
-5.21523e-09
8.34413e-06
-1.06084e-08
-6.49027e-09
8.33728e-06
1.28061e-08
-6.18626e-09
8.33354e-06
7.9609e-09
-6.8159e-09
8.34381e-06
-4.11865e-09
-4.73451e-09
8.33226e-06
1.6341e-08
-8.6705e-09
8.34058e-06
-3.32392e-09
-3.73878e-09
8.33745e-06
9.01731e-09
-8.89583e-09
8.33561e-06
7.07689e-09
-5.65248e-09
8.34063e-06
4.27928e-10
-7.11671e-09
1.05288e-08
-7.70126e-09
2.82739e-05
1.44176e-08
-2.15701e-08
2.82732e-05
2.47187e-08
-2.57851e-08
2.82727e-05
2.42252e-08
-2.10323e-08
2.82721e-05
2.57988e-08
-2.51013e-08
2.82763e-05
1.46992e-08
-2.38744e-08
2.82737e-05
2.93002e-08
-2.34949e-08
2.82708e-05
2.87355e-08
-2.47102e-08
2.82826e-05
4.34875e-09
-2.45052e-08
2.82685e-05
4.72496e-08
-2.6056e-08
2.82787e-05
7.29963e-09
-1.9827e-08
2.82792e-05
2.22117e-08
-3.1271e-08
2.8272e-05
3.71661e-08
-1.85334e-08
2.82818e-05
6.88359e-09
-2.84585e-08
2.82752e-05
3.62232e-08
-2.34313e-08
2.82818e-05
9.97023e-09
-2.38278e-08
2.82735e-05
3.96305e-08
-2.34081e-08
2.82843e-05
4.01989e-09
-2.62393e-08
2.82754e-05
3.89131e-08
-2.02304e-08
2.82795e-05
1.60152e-08
-2.65952e-08
2.82804e-05
1.97858e-08
-2.00629e-08
2.8276e-05
3.10924e-08
-2.42164e-08
2.82818e-05
1.09621e-08
-2.12215e-08
2.82731e-05
3.8541e-08
-2.29032e-08
2.82842e-05
2.06688e-09
-2.04618e-08
2.82683e-05
4.61467e-08
-2.1039e-08
2.82846e-05
-3.18039e-09
-2.12581e-08
2.8271e-05
3.98647e-08
-2.00731e-08
2.82726e-05
2.29273e-08
-1.98044e-08
2.82843e-05
-1.92831e-09
-2.13404e-08
2.82603e-05
6.18188e-08
-1.76473e-08
2.82846e-05
-1.86804e-08
-2.07682e-08
2.82682e-05
4.65749e-08
-1.93501e-08
2.82701e-05
2.06192e-08
-2.09346e-08
2.82789e-05
5.17028e-09
-1.71777e-08
2.82645e-05
4.57964e-08
-2.4664e-08
2.82774e-05
5.83691e-10
-1.48047e-08
2.82697e-05
3.39943e-08
-2.68362e-08
2.82707e-05
2.27955e-08
-1.71275e-08
2.82753e-05
1.27501e-08
-2.44063e-08
3.42761e-08
-2.16193e-08
5.38399e-05
3.86495e-08
-4.00498e-08
5.38388e-05
5.8292e-08
-4.30591e-08
5.38387e-05
5.44796e-08
-3.91045e-08
5.38382e-05
5.87715e-08
-4.33546e-08
5.38428e-05
3.96641e-08
-4.26562e-08
5.38399e-05
6.59219e-08
-4.17039e-08
5.38379e-05
6.02731e-08
-4.38975e-08
5.38502e-05
2.60814e-08
-4.34078e-08
5.38352e-05
9.29031e-08
-4.56337e-08
5.38476e-05
2.61193e-08
-3.7506e-08
5.3847e-05
5.62779e-08
-5.30323e-08
5.3841e-05
7.42936e-08
-3.50939e-08
5.38515e-05
2.82951e-08
-5.03152e-08
5.38448e-05
7.63294e-08
-4.09494e-08
5.38527e-05
3.14366e-08
-4.44244e-08
5.38439e-05
8.24258e-08
-4.13094e-08
5.38565e-05
2.09829e-08
-4.69042e-08
5.38464e-05
8.30615e-08
-3.74195e-08
5.38523e-05
3.84135e-08
-4.71685e-08
5.38523e-05
5.25024e-08
-3.68393e-08
5.38488e-05
6.40432e-08
-4.4156e-08
5.38542e-05
3.62009e-08
-3.81368e-08
5.38452e-05
7.80947e-08
-4.19922e-08
5.38571e-05
1.98034e-08
-3.68215e-08
5.38392e-05
9.16847e-08
-3.9511e-08
5.38574e-05
9.67911e-09
-3.76293e-08
5.38407e-05
8.40846e-08
-3.7563e-08
5.38441e-05
4.87899e-08
-3.56798e-08
5.38539e-05
1.76841e-08
-3.8744e-08
5.38289e-05
1.1406e-07
-3.25167e-08
5.38546e-05
-1.57299e-08
-3.76748e-08
5.38348e-05
9.6882e-08
-3.4569e-08
5.38387e-05
4.32393e-08
-3.7535e-08
5.38457e-05
2.98551e-08
-3.1806e-08
5.38309e-05
8.74854e-08
-4.21882e-08
5.38441e-05
1.74851e-08
-2.85892e-08
5.3835e-05
7.31942e-08
-4.58991e-08
5.3837e-05
5.08404e-08
-3.0823e-08
5.38408e-05
3.86732e-08
-4.34514e-08
7.16425e-08
-3.70001e-08
8.60205e-05
7.72344e-08
-5.93417e-08
8.6019e-05
1.07866e-07
-6.12835e-08
8.60189e-05
9.88007e-08
-5.80873e-08
8.60184e-05
1.07517e-07
-6.23676e-08
8.60231e-05
7.8695e-08
-6.31866e-08
8.602e-05
1.18929e-07
-6.07002e-08
8.60183e-05
1.05306e-07
-6.45468e-08
8.60312e-05
6.40508e-08
-6.37925e-08
8.60155e-05
1.53434e-07
-6.7058e-08
8.60295e-05
5.91306e-08
-5.6317e-08
8.60281e-05
1.06843e-07
-7.72391e-08
8.60235e-05
1.25447e-07
-5.31461e-08
8.60345e-05
6.5069e-08
-7.44884e-08
8.60281e-05
1.32226e-07
-6.08001e-08
8.60374e-05
6.67294e-08
-6.73519e-08
8.60286e-05
1.42173e-07
-6.18924e-08
8.60432e-05
5.11509e-08
-7.03136e-08
8.60328e-05
1.44756e-07
-5.74658e-08
8.60407e-05
7.37284e-08
-7.08928e-08
8.60404e-05
1.02561e-07
-5.67092e-08
8.60384e-05
1.10383e-07
-6.7082e-08
8.60438e-05
7.83168e-08
-5.87281e-08
8.60355e-05
1.32214e-07
-6.44561e-08
8.6048e-05
5.28501e-08
-5.63165e-08
8.6029e-05
1.53107e-07
-6.16664e-08
8.60491e-05
3.67895e-08
-5.7307e-08
8.60298e-05
1.452e-07
-5.86817e-08
8.6035e-05
8.83308e-08
-5.45506e-08
8.60429e-05
5.3829e-08
-5.99174e-08
8.60172e-05
1.81483e-07
-5.0071e-08
8.60432e-05
1.06579e-09
-5.76087e-08
8.60205e-05
1.65035e-07
-5.21356e-08
8.60256e-05
7.81756e-08
-5.69013e-08
8.60302e-05
7.22632e-08
-4.8352e-08
8.60152e-05
1.42754e-07
-6.15994e-08
8.60276e-05
4.99786e-08
-4.37742e-08
8.60172e-05
1.27942e-07
-6.65433e-08
8.60193e-05
9.34473e-08
-4.59143e-08
8.6022e-05
7.98669e-08
-6.31039e-08
1.24164e-07
-5.35873e-08
0.000125803
1.32041e-07
-7.84671e-08
0.000125801
1.75231e-07
-8.00637e-08
0.0001258
1.58601e-07
-7.57176e-08
0.000125799
1.73535e-07
-8.10727e-08
0.000125803
1.33183e-07
-8.35288e-08
0.0001258
1.90021e-07
-7.939e-08
0.000125797
1.64587e-07
-8.43097e-08
0.00012581
1.20446e-07
-8.45077e-08
0.000125794
2.29411e-07
-8.84661e-08
0.000125808
1.07876e-07
-7.41398e-08
0.000125807
1.75532e-07
-1.03405e-07
0.000125803
1.91141e-07
-6.96148e-08
0.000125814
1.18955e-07
-1.00324e-07
0.000125808
2.05239e-07
-8.13988e-08
0.000125819
1.1658e-07
-9.01529e-08
0.000125811
2.20572e-07
-8.50064e-08
0.000125827
9.5696e-08
-9.42635e-08
0.000125817
2.25096e-07
-7.92835e-08
0.000125827
1.2363e-07
-9.69418e-08
0.000125828
1.71324e-07
-7.86756e-08
0.000125828
1.71403e-07
-9.19146e-08
0.000125834
1.39014e-07
-8.22081e-08
0.000125828
2.02269e-07
-9.02544e-08
0.000125841
1.03246e-07
-7.80454e-08
0.000125823
2.31486e-07
-8.73291e-08
0.000125845
8.05695e-08
-8.03031e-08
0.000125824
2.2443e-07
-8.3138e-08
0.000125831
1.43848e-07
-7.68915e-08
0.000125838
1.08443e-07
-8.46153e-08
0.000125812
2.65568e-07
-7.12345e-08
0.000125838
3.45373e-08
-8.09005e-08
0.000125813
2.5259e-07
-7.25892e-08
0.000125819
1.27249e-07
-7.89298e-08
0.000125821
1.3525e-07
-6.80345e-08
0.000125806
2.12918e-07
-8.29993e-08
0.000125816
1.00527e-07
-5.99046e-08
0.000125804
1.99981e-07
-8.94028e-08
0.000125806
1.52561e-07
-6.16786e-08
0.000125806
1.38586e-07
-8.35242e-08
1.93156e-07
-7.00525e-08
0.000174092
2.0448e-07
-9.63858e-08
0.000174089
2.62668e-07
-1.0043e-07
0.000174086
2.35087e-07
-9.05464e-08
0.000174084
2.58542e-07
-9.85763e-08
0.000174086
2.04024e-07
-1.01358e-07
0.000174082
2.81107e-07
-9.74758e-08
0.000174078
2.38269e-07
-9.982e-08
0.000174089
1.97518e-07
-1.04142e-07
0.000174075
3.21136e-07
-1.08053e-07
0.000174085
1.73015e-07
-8.66246e-08
0.000174085
2.64194e-07
-1.31456e-07
0.00017408
2.71494e-07
-8.05939e-08
0.000174091
1.90339e-07
-1.24148e-07
0.000174086
2.97401e-07
-1.02554e-07
0.000174095
1.80476e-07
-1.06906e-07
0.000174089
3.18471e-07
-1.09322e-07
0.000174105
1.56038e-07
-1.15961e-07
0.000174098
3.23369e-07
-9.87156e-08
0.000174108
1.89929e-07
-1.23259e-07
0.000174112
2.58745e-07
-9.98039e-08
0.000174114
2.48292e-07
-1.16481e-07
0.00017412
2.18809e-07
-1.04675e-07
0.000174119
2.88747e-07
-1.18333e-07
0.000174132
1.72456e-07
-9.92364e-08
0.000174116
3.26771e-07
-1.14424e-07
0.000174141
1.43132e-07
-1.05273e-07
0.000174121
3.21199e-07
-1.08499e-07
0.000174131
2.17854e-07
-1.02763e-07
0.000174138
1.82376e-07
-1.10569e-07
0.000174114
3.66582e-07
-9.56246e-08
0.000174141
8.71893e-08
-1.07354e-07
0.000174115
3.61093e-07
-9.71212e-08
0.000174122
1.91037e-07
-1.01446e-07
0.000174121
2.21412e-07
-9.28145e-08
0.000174106
2.9959e-07
-1.07448e-07
0.000174114
1.70419e-07
-7.60706e-08
0.000174101
2.91948e-07
-1.16699e-07
0.000174102
2.28807e-07
-7.68348e-08
0.000174099
2.17869e-07
-1.0701e-07
2.79971e-07
-8.59026e-08
0.000231594
2.93792e-07
-1.09459e-07
0.000231589
3.72828e-07
-1.25802e-07
0.000231584
3.28156e-07
-1.01936e-07
0.000231581
3.64947e-07
-1.16753e-07
0.000231577
2.91264e-07
-1.13731e-07
0.000231574
3.93823e-07
-1.17164e-07
0.000231569
3.26742e-07
-1.08898e-07
0.000231571
2.96398e-07
-1.19591e-07
0.000231565
4.29453e-07
-1.286e-07
0.000231564
2.54856e-07
-8.66368e-08
0.000231567
3.72746e-07
-1.60669e-07
0.00023156
3.68635e-07
-8.69778e-08
0.000231566
2.77317e-07
-1.36161e-07
0.000231565
4.10242e-07
-1.27107e-07
0.000231568
2.59342e-07
-1.11867e-07
0.000231565
4.3318e-07
-1.28555e-07
0.000231577
2.35717e-07
-1.35807e-07
0.000231576
4.35781e-07
-1.07689e-07
0.000231579
2.75151e-07
-1.46852e-07
0.000231587
3.63193e-07
-1.14441e-07
0.000231593
3.41102e-07
-1.37739e-07
0.000231593
3.18239e-07
-1.19712e-07
0.000231603
3.8982e-07
-1.44481e-07
0.000231613
2.61514e-07
-1.15661e-07
0.000231602
4.36225e-07
-1.36572e-07
0.00023163
2.27683e-07
-1.3101e-07
0.000231613
4.31054e-07
-1.26426e-07
0.000231625
3.12139e-07
-1.30631e-07
0.000231637
2.75877e-07
-1.34171e-07
0.000231615
4.8285e-07
-1.18696e-07
0.000231644
1.58487e-07
-1.31689e-07
0.00023162
4.92016e-07
-1.28615e-07
0.000231629
2.69451e-07
-1.18809e-07
0.000231629
3.28698e-07
-1.19376e-07
0.000231615
4.06891e-07
-1.39922e-07
0.000231623
2.56209e-07
-8.50765e-08
0.000231609
4.07187e-07
-1.53926e-07
0.00023161
3.21632e-07
-8.82925e-08
0.000231603
3.18387e-07
-1.34111e-07
3.87416e-07
-1.05408e-07
0.00029867
3.95172e-07
-1.09729e-07
0.000298662
5.07996e-07
-1.59295e-07
0.000298657
4.34121e-07
-1.06219e-07
0.000298654
4.92961e-07
-1.40997e-07
0.000298645
3.96332e-07
-1.17475e-07
0.000298639
5.2473e-07
-1.382e-07
0.000298642
4.3163e-07
-1.18523e-07
0.000298622
4.17436e-07
-1.21054e-07
0.000298633
5.50625e-07
-1.5758e-07
0.000298617
3.57301e-07
-7.40233e-08
0.000298617
4.97134e-07
-1.81058e-07
0.000298619
4.82988e-07
-9.94897e-08
0.000298605
3.82226e-07
-1.27767e-07
0.000298615
5.37908e-07
-1.5131e-07
0.000298607
3.59038e-07
-1.12063e-07
0.000298607
5.57318e-07
-1.28411e-07
0.000298607
3.39494e-07
-1.58357e-07
0.000298615
5.57517e-07
-1.00119e-07
0.000298609
3.79318e-07
-1.61974e-07
0.000298613
4.83598e-07
-1.1891e-07
0.000298632
4.45344e-07
-1.50043e-07
0.000298615
4.38557e-07
-1.21902e-07
0.000298637
5.01025e-07
-1.60936e-07
0.000298643
3.73475e-07
-1.26345e-07
0.000298633
5.50558e-07
-1.37741e-07
0.000298662
3.3958e-07
-1.60113e-07
0.000298654
5.48836e-07
-1.26972e-07
0.000298661
4.23617e-07
-1.49525e-07
0.000298682
3.88219e-07
-1.52425e-07
0.000298663
6.13883e-07
-1.37204e-07
0.000298692
2.43934e-07
-1.36365e-07
0.00029868
6.39715e-07
-1.65797e-07
0.000298685
3.71035e-07
-1.33017e-07
0.000298696
4.41328e-07
-1.22887e-07
0.000298681
5.41897e-07
-1.94338e-07
0.000298693
3.531e-07
-7.07126e-08
0.00029868
5.4011e-07
-1.981e-07
0.000298687
4.35238e-07
-1.00593e-07
0.000298675
4.32777e-07
-1.5022e-07
5.18385e-07
-1.38555e-07
0.000375195
4.97462e-07
-8.49907e-08
0.000375184
6.65618e-07
-2.00755e-07
0.000375182
5.53641e-07
-9.42779e-08
0.000375184
6.25766e-07
-1.6447e-07
0.000375176
5.27606e-07
-1.22742e-07
0.000375156
6.67409e-07
-1.40259e-07
0.000375186
5.39909e-07
-1.42014e-07
0.000375134
5.68333e-07
-1.02451e-07
0.00037516
6.73409e-07
-1.86758e-07
0.000375148
4.74135e-07
-6.24285e-08
0.00037512
6.44724e-07
-1.82448e-07
0.00037515
5.97812e-07
-1.15991e-07
0.00037511
5.11451e-07
-1.1159e-07
0.000375126
6.71053e-07
-1.56165e-07
0.000375109
4.80396e-07
-1.23187e-07
0.000375116
6.86022e-07
-1.02984e-07
0.000375096
4.63586e-07
-1.76619e-07
0.000375111
6.88369e-07
-8.6178e-08
0.000375107
4.94781e-07
-1.5774e-07
0.000375084
6.21684e-07
-1.13277e-07
0.000375126
5.53903e-07
-1.50871e-07
0.000375087
5.81504e-07
-1.11305e-07
0.000375113
6.08625e-07
-1.49063e-07
0.000375118
5.16808e-07
-1.46592e-07
0.000375108
6.59169e-07
-9.93605e-08
0.000375123
4.74293e-07
-1.82233e-07
0.000375133
6.75539e-07
-1.2001e-07
0.000375126
5.4815e-07
-1.42514e-07
0.000375149
5.12109e-07
-1.49925e-07
0.000375145
7.55071e-07
-1.59775e-07
0.000375153
3.56004e-07
-1.11897e-07
0.000375173
7.70034e-07
-1.70486e-07
0.000375158
5.18479e-07
-1.803e-07
0.000375186
5.4624e-07
-5.93576e-08
0.000375178
6.8865e-07
-2.67235e-07
0.000375187
4.78044e-07
-4.42026e-08
0.000375184
6.66057e-07
-2.06597e-07
0.000375199
5.75439e-07
-1.34271e-07
0.000375187
5.50362e-07
-1.27234e-07
6.72927e-07
-1.88483e-07
0.000460465
6.11243e-07
-2.97739e-08
0.000460461
8.07683e-07
-2.21996e-07
0.000460458
7.07397e-07
-8.5956e-08
0.000460465
7.43033e-07
-1.38611e-07
0.00046048
6.6161e-07
-1.46178e-07
0.000460431
8.41433e-07
-1.11143e-07
0.000460496
6.31056e-07
-1.64946e-07
0.000460435
7.29881e-07
-6.58052e-08
0.000460443
8.1272e-07
-2.03597e-07
0.00046047
5.72696e-07
-4.10765e-08
0.000460402
8.18426e-07
-1.75551e-07
0.000460455
7.0998e-07
-1.18777e-07
0.000460406
6.43816e-07
-9.34363e-08
0.000460421
8.06997e-07
-1.36064e-07
0.000460394
6.08625e-07
-1.29943e-07
0.000460416
8.17631e-07
-7.666e-08
0.000460382
5.98703e-07
-1.69303e-07
0.000460385
8.20451e-07
-7.24292e-08
0.000460403
6.10612e-07
-1.36711e-07
0.000460345
7.75639e-07
-9.35605e-08
0.000460405
6.47109e-07
-1.27796e-07
0.000460354
7.56493e-07
-1.17284e-07
0.000460376
6.94577e-07
-7.97306e-08
0.000460369
6.77738e-07
-1.72387e-07
0.000460374
7.66444e-07
-5.12823e-08
0.000460358
6.18533e-07
-1.58893e-07
0.000460382
7.9928e-07
-1.13032e-07
0.000460376
6.79033e-07
-1.24358e-07
0.000460363
6.56824e-07
-1.05201e-07
0.00046041
8.55647e-07
-1.60091e-07
0.000460357
5.38624e-07
-1.22552e-07
0.000460417
8.56939e-07
-6.84987e-08
0.000460392
6.79177e-07
-2.72254e-07
0.000460405
6.86733e-07
3.71704e-08
0.000460426
7.9525e-07
-2.76664e-07
0.000460419
6.51938e-07
-6.90548e-08
0.000460427
7.73478e-07
-1.30099e-07
0.000460444
7.35527e-07
-1.92756e-07
0.000460446
6.56906e-07
-4.6374e-08
8.44901e-07
-2.46398e-07
0.000553235
7.70809e-07
-7.04691e-09
0.000553245
9.25499e-07
-1.6237e-07
0.000553254
8.66061e-07
-1.11432e-07
0.000553248
8.66438e-07
-4.48607e-08
0.000553298
7.57159e-07
-1.46138e-07
0.000553242
1.02539e-06
-5.54305e-08
0.000553309
7.42789e-07
-1.93017e-07
0.000553278
8.71424e-07
3.28307e-09
0.000553252
9.50609e-07
-1.94721e-07
0.000553309
6.58088e-07
-6.88329e-10
0.000553234
9.73048e-07
-1.31546e-07
0.000553289
8.38552e-07
-1.30838e-07
0.000553237
7.69261e-07
-5.04833e-08
0.000553261
9.17851e-07
-9.68907e-08
0.000553213
7.29018e-07
-9.43297e-08
0.000553248
9.26126e-07
-4.58984e-08
0.000553223
7.40807e-07
-1.50322e-07
0.000553197
9.58013e-07
-5.11753e-08
0.000553245
6.87302e-07
-8.14992e-08
0.000553159
9.4098e-07
-7.82217e-08
0.000553231
7.07016e-07
-4.79353e-08
0.000553174
9.43663e-07
-1.44754e-07
0.000553204
7.70694e-07
-2.68947e-10
0.000553172
8.21504e-07
-1.30798e-07
0.000553199
8.43673e-07
-1.94601e-08
0.000553171
7.629e-07
-1.03456e-07
0.000553168
9.35741e-07
-8.1564e-08
0.000553216
7.53844e-07
-9.14419e-08
0.000553121
8.56636e-07
-7.02747e-08
0.000553233
8.69891e-07
-4.57329e-08
0.000553141
7.38915e-07
-2.04504e-07
0.000553184
9.81392e-07
6.65317e-08
0.000553195
7.67242e-07
-2.86334e-07
0.00055315
8.84462e-07
5.14514e-08
0.000553211
8.373e-07
-1.43553e-07
0.000553178
8.53247e-07
-1.63686e-07
0.000553196
8.8106e-07
5.37553e-09
0.000553204
8.94675e-07
-2.58568e-07
0.00055321
7.71972e-07
7.44448e-08
9.63786e-07
-2.43065e-07
0.000651914
8.73425e-07
1.1224e-09
0.000651928
1.03984e-06
-4.70941e-08
0.000651955
1.03289e-06
-1.69658e-07
0.000651938
1.01344e-06
5.31515e-08
0.000651992
7.96065e-07
-8.04913e-08
0.000651958
1.14346e-06
8.25804e-08
0.000652028
8.36462e-07
-2.01083e-07
0.000652031
1.05939e-06
1.5743e-08
0.00065199
1.08495e-06
-1.33041e-07
0.000652054
7.07343e-07
4.97007e-08
0.00065197
1.0678e-06
1.37291e-08
0.000652053
9.29823e-07
-1.3209e-07
0.000651984
9.40317e-07
-3.35327e-08
0.00065202
1.01873e-06
-5.00233e-08
0.000651953
8.01373e-07
1.04716e-09
0.000651968
9.66606e-07
5.1486e-08
0.000651978
8.32922e-07
-9.52943e-08
0.000651921
1.133e-06
-7.47759e-08
0.000651989
7.47691e-07
8.92969e-10
0.000651881
1.06213e-06
-2.53778e-08
0.000651958
6.94086e-07
7.98001e-08
0.000651896
1.11054e-06
-1.21151e-07
0.00065194
8.57025e-07
7.41075e-09
0.000651898
9.64716e-07
-5.0933e-08
0.000651905
8.69453e-07
7.20988e-08
0.000651925
7.90051e-07
1.37819e-08
0.000651858
1.10583e-06
-5.92398e-08
0.000651979
7.84899e-07
-2.21709e-08
0.000651835
1.07148e-06
-8.40624e-08
0.000651945
8.44994e-07
1.52858e-07
0.000651902
7.89504e-07
-1.55484e-07
0.000651882
1.15419e-06
8.25611e-08
0.000651957
8.09609e-07
-1.84606e-07
0.000651852
1.10116e-06
-3.8425e-08
0.000651921
8.26869e-07
1.02648e-07
0.000651886
9.45558e-07
-2.00999e-07
0.000651896
1.01594e-06
1.01432e-07
0.00065191
1.03563e-06
-3.02191e-07
0.000651892
9.44966e-07
9.298e-08
1.00825e-06
-8.69244e-08
0.000754824
8.54916e-07
1.09803e-07
0.000754829
1.00225e-06
1.8166e-07
0.000754883
1.11714e-06
-2.05543e-07
0.00075488
1.26206e-06
-6.81834e-09
0.000754914
8.73981e-07
-3.84399e-08
0.000754873
1.16448e-06
3.03443e-07
0.000754939
7.50963e-07
9.83936e-09
0.000755012
1.17961e-06
-2.65327e-08
0.000754977
1.32592e-06
-1.56656e-07
0.00075506
7.92327e-07
3.88686e-08
0.000754936
1.09527e-06
2.48478e-07
0.000755038
8.38494e-07
4.62086e-08
0.000754996
1.04752e-06
-2.30677e-08
0.000755046
1.21493e-06
-1.26765e-07
0.000754985
9.28505e-07
4.94245e-08
0.000754934
9.2253e-07
2.55911e-07
0.000754962
7.25302e-07
1.3884e-07
0.000754896
1.23684e-06
-8.32001e-08
0.000754985
8.77099e-07
-5.03504e-08
0.000754849
1.24059e-06
4.509e-09
0.000754896
5.77702e-07
2.90871e-07
0.000754833
1.09272e-06
8.09888e-08
0.000754884
8.93328e-07
-1.75259e-09
0.000754879
1.15899e-06
-9.35168e-08
0.000754816
9.81172e-07
1.118e-07
0.000754858
6.70584e-07
2.76556e-07
0.000754756
1.10183e-06
1.0645e-07
0.000754903
7.61755e-07
3.82222e-08
0.000754808
1.31283e-06
-1.58021e-07
0.00075484
9.24859e-07
2.06695e-07
0.000754847
6.76856e-07
1.61669e-07
0.000754785
1.1401e-06
1.82752e-07
0.000754925
7.86772e-07
-3.21378e-08
0.000754842
1.33847e-06
-2.22345e-07
0.000754873
9.06338e-07
2.25756e-07
0.000754831
8.62844e-07
3.10189e-09
0.000754824
9.67078e-07
2.55946e-07
0.000754874
1.07991e-06
-2.50981e-07
0.000754865
1.18992e-06
-1.16694e-07
1.12561e-06
2.48041e-08
0.000860714
9.4865e-07
1.05066e-07
0.000860638
8.48335e-07
5.46143e-07
0.000860659
8.75552e-07
8.00331e-08
0.000860722
1.35887e-06
-1.5525e-07
0.000860791
1.09336e-06
-2.63805e-07
0.000860733
1.303e-06
3.39664e-07
0.000860695
5.56733e-07
4.71858e-07
0.000860801
9.46596e-07
2.31831e-07
0.00086083
1.44294e-06
-2.23514e-07
0.000861002
9.91407e-07
-2.20453e-07
0.000860868
1.25738e-06
3.06257e-07
0.000860895
6.55337e-07
4.25563e-07
0.000860862
8.31035e-07
2.80759e-07
0.000860964
1.26508e-06
-2.28389e-07
0.00086101
1.18826e-06
-2.03151e-07
0.000860915
1.05494e-06
2.96116e-07
0.000860886
5.07558e-07
5.73402e-07
0.000860775
1.02335e-06
2.36989e-07
0.000860923
8.37482e-07
-1.24365e-07
0.000860836
1.54037e-06
-2.41892e-07
0.00086083
6.25861e-07
3.34262e-07
0.000860702
9.38471e-07
4.95058e-07
0.000860704
6.37717e-07
2.79154e-07
0.00086079
1.18901e-06
-1.79067e-07
0.000860746
1.24249e-06
-1.40807e-07
0.000860749
7.00937e-07
3.55999e-07
0.000860577
9.63551e-07
5.32772e-07
0.000860655
4.48908e-07
3.30794e-07
0.000860666
1.37717e-06
-1.97839e-07
0.000860695
1.15048e-06
-8.0267e-08
0.000860696
7.27794e-07
3.261e-07
0.000860545
9.80308e-07
5.62286e-07
0.00086066
4.78679e-07
3.59916e-07
0.000860683
1.37624e-06
-2.92731e-07
0.000860765
1.12855e-06
-2.30369e-08
0.000860713
9.17611e-07
1.53873e-07
0.000860619
7.50871e-07
6.21989e-07
0.000860657
7.85773e-07
1.52552e-07
0.000860728
1.22122e-06
-3.16705e-07
1.37448e-06
-2.10479e-07
0.000969059
1.11718e-06
-2.93137e-07
0.000968962
8.57084e-07
6.62681e-07
0.000968839
5.53079e-07
7.02597e-07
0.000968861
1.06563e-06
9.21045e-08
0.000969009
1.09055e-06
-5.82685e-07
0.000969066
1.50524e-06
-9.99848e-08
0.000968944
5.77191e-07
6.8753e-07
0.000968931
6.01982e-07
8.47178e-07
0.000968929
1.19516e-06
9.6581e-08
0.000969201
9.62079e-07
-5.20361e-07
0.000969213
1.47146e-06
-7.61377e-08
0.0009692
6.73545e-07
5.76314e-07
0.000969074
5.38072e-07
8.88101e-07
0.000969109
9.58129e-07
9.49465e-08
0.000969297
1.19142e-06
-5.27369e-07
0.000969319
1.28898e-06
-1.41936e-07
0.000969297
5.13055e-07
7.43876e-07
0.000969059
7.48713e-07
8.77212e-07
0.000969155
4.48229e-07
2.23749e-07
0.000969183
1.56971e-06
-5.36914e-07
0.000969259
7.81107e-07
-8.53135e-08
0.000969111
9.75278e-07
6.59052e-07
0.000968953
3.34338e-07
8.84381e-07
0.000969015
8.51971e-07
1.14737e-07
0.000969075
1.27734e-06
-4.55392e-07
0.000969162
8.29047e-07
-6.79646e-08
0.000968974
1.02343e-06
7.30125e-07
0.000968878
7.77619e-08
9.37302e-07
0.000968857
1.08158e-06
1.31386e-07
0.000968952
1.14272e-06
-4.14766e-07
0.000969049
8.88629e-07
-6.18558e-08
0.000968859
1.02861e-06
7.51721e-07
0.0009688
1.25516e-07
1.00552e-06
0.000968788
1.06597e-06
9.30189e-08
0.000968966
1.1107e-06
-3.403e-07
0.000969046
1.09895e-06
-1.64872e-07
0.000968911
7.35802e-07
8.07033e-07
0.000968808
4.16528e-07
8.94261e-07
0.000968837
8.52307e-07
9.26816e-09
1.35191e-06
-5.29466e-07
0.00108029
1.01548e-06
-7.11528e-07
0.00108033
8.51432e-07
2.72455e-07
0.00108017
4.19787e-07
1.04464e-06
0.00108006
7.27642e-07
7.10752e-07
0.00108014
7.96423e-07
-4.38076e-07
0.00108032
1.41157e-06
-6.0864e-07
0.00108028
6.21361e-07
3.20114e-07
0.0010802
4.34352e-07
1.17934e-06
0.00108007
9.06908e-07
7.44122e-07
0.00108026
6.5847e-07
-3.61491e-07
0.0010804
1.39071e-06
-5.05797e-07
0.00108048
6.98363e-07
2.10602e-07
0.00108036
4.19515e-07
1.17793e-06
0.00108024
6.44302e-07
7.53671e-07
0.00108039
8.92918e-07
-3.63823e-07
0.00108051
1.23542e-06
-6.36194e-07
0.00108064
5.38189e-07
3.38763e-07
0.0010804
6.76124e-07
1.17882e-06
0.00108035
7.72992e-08
8.88652e-07
0.00108036
1.28931e-06
-3.54652e-07
0.00108053
6.7269e-07
-5.54044e-07
0.00108052
1.00749e-06
2.67619e-07
0.00108031
2.48485e-07
1.19202e-06
0.00108025
4.99086e-07
7.27767e-07
0.00108027
1.03436e-06
-3.22102e-07
0.00108046
6.87757e-07
-5.62649e-07
0.00108041
1.09589e-06
3.24158e-07
0.00108027
-8.04359e-08
1.25637e-06
0.00108013
7.7259e-07
7.48733e-07
0.00108016
8.60032e-07
-2.80217e-07
0.00108035
7.70862e-07
-5.64168e-07
0.00108029
1.09713e-06
3.5485e-07
0.00108016
-1.36501e-08
1.30209e-06
0.00108
7.64397e-07
7.58163e-07
0.0010801
8.12941e-07
-1.8831e-07
0.00108029
1.03663e-06
-6.11271e-07
0.00108028
7.68846e-07
4.32579e-07
0.00108013
2.74651e-07
1.28589e-06
0.00108001
4.85333e-07
7.38857e-07
1.0108e-06
-3.56426e-07
0.00119622
7.22035e-07
-6.60653e-07
0.00119634
6.55207e-07
-1.40914e-07
0.00119627
3.3329e-07
8.31397e-07
0.00119615
5.16292e-07
1.0181e-06
0.00119611
4.88843e-07
2.13333e-08
0.00119625
1.09327e-06
-6.30642e-07
0.00119629
4.84773e-07
-1.27289e-07
0.00119628
3.08763e-07
9.30351e-07
0.00119613
7.31942e-07
1.04957e-06
0.00119617
3.47697e-07
7.08876e-08
0.00119628
1.09542e-06
-4.97883e-07
0.0011964
5.40429e-07
-1.77451e-07
0.00119638
3.24815e-07
9.06403e-07
0.00119624
4.66654e-07
1.05502e-06
0.00119627
5.76429e-07
1.01181e-07
0.00119634
9.61781e-07
-6.31553e-07
0.00119653
3.7511e-07
-1.09751e-07
0.00119641
6.40843e-07
8.88127e-07
0.00119634
-1.20426e-07
1.16756e-06
0.00119628
9.91357e-07
9.75697e-08
0.00119639
3.76317e-07
-5.49665e-07
0.00119649
8.33945e-07
-1.68814e-07
0.00119637
2.20948e-07
9.26652e-07
0.00119628
2.87816e-07
1.00936e-06
0.00119622
7.90144e-07
7.99536e-08
0.00119637
3.50744e-07
-5.77064e-07
0.00119641
9.75571e-07
-1.63922e-07
0.00119636
-1.76824e-07
9.89184e-07
0.00119623
5.96482e-07
1.01624e-06
0.00119616
5.84308e-07
1.3376e-07
0.0011963
4.48296e-07
-6.02485e-07
0.00119633
9.74857e-07
-1.30868e-07
0.0011963
-1.06988e-07
1.00755e-06
0.00119613
6.08747e-07
1.01947e-06
0.0011961
5.10096e-07
2.37585e-07
0.00119624
7.71603e-07
-6.30113e-07
0.00119631
6.40821e-07
-3.60652e-08
0.00119625
2.00661e-07
1.02176e-06
0.00119609
3.0591e-07
1.08383e-06
6.58524e-07
1.19929e-07
0.00131948
4.34969e-07
-3.47789e-07
0.00131957
3.81297e-07
-2.17999e-07
0.00131957
2.27532e-07
4.62496e-07
0.00131953
3.63811e-07
8.3173e-07
0.00131945
2.58983e-07
2.71582e-07
0.00131952
7.54313e-07
-3.42719e-07
0.00131954
2.68795e-07
-2.33911e-07
0.00131958
1.58769e-07
5.1288e-07
0.0013195
5.99515e-07
8.53583e-07
0.00131948
1.10844e-07
2.85263e-07
0.00131952
7.73798e-07
-2.38922e-07
0.00131958
3.14047e-07
-2.43478e-07
0.00131962
1.93699e-07
4.94345e-07
0.00131954
3.49486e-07
8.4909e-07
0.00131954
3.2877e-07
3.33407e-07
0.00131953
6.68436e-07
-3.30913e-07
0.00131966
1.30291e-07
-1.98253e-07
0.00131962
5.64131e-07
4.53476e-07
0.0013196
-2.33265e-07
9.34054e-07
0.00131954
7.61619e-07
3.03947e-07
0.00131956
9.53834e-08
-2.71157e-07
0.00131966
5.63178e-07
-2.61394e-07
0.00131961
1.68769e-07
5.06169e-07
0.00131959
1.38581e-07
8.07181e-07
0.0013195
6.19659e-07
2.63645e-07
0.00131957
2.25372e-08
-2.98677e-07
0.0013196
7.70095e-07
-3.05704e-07
0.00131961
-2.85707e-07
5.56919e-07
0.00131957
4.73372e-07
7.8927e-07
0.00131948
3.93134e-07
3.25851e-07
0.00131955
1.18927e-07
-3.39011e-07
0.00131957
7.67022e-07
-2.75799e-07
0.0013196
-2.28007e-07
5.61149e-07
0.00131952
5.09754e-07
7.62265e-07
0.00131946
2.80788e-07
4.32967e-07
0.00131951
4.83865e-07
-3.72758e-07
0.00131956
4.35068e-07
-1.7869e-07
0.00131957
1.02438e-07
5.62603e-07
0.00131948
2.11647e-07
8.64676e-07
3.9143e-07
3.59798e-07
0.00145278
2.35759e-07
-1.15599e-07
0.00145283
1.5171e-07
-1.12942e-07
0.00145282
1.42072e-07
2.22471e-07
0.00145284
2.25005e-07
4.79406e-07
0.00145278
9.78102e-08
2.40468e-07
0.00145282
4.84652e-07
-1.08978e-07
0.00145279
1.00467e-07
-1.3704e-07
0.00145283
2.73511e-08
2.33876e-07
0.00145282
4.7355e-07
4.93307e-07
0.00145279
-5.82145e-08
2.32846e-07
0.00145281
5.12342e-07
-5.5234e-08
0.0014528
1.40505e-07
-1.30674e-07
0.00145285
7.00076e-08
2.24681e-07
0.00145282
2.52325e-07
4.89122e-07
0.00145284
1.4054e-07
2.79983e-07
0.00145279
4.43765e-07
-1.01466e-07
0.00145285
-7.09244e-08
-8.45743e-08
0.00145284
4.81052e-07
1.73425e-07
0.00145284
-3.14309e-07
5.54526e-07
0.00145283
5.81959e-07
2.28939e-07
0.00145279
-8.65782e-08
-5.9858e-08
0.00145286
3.28749e-07
-1.55959e-07
0.00145283
1.24276e-07
2.27406e-07
0.00145286
3.41809e-09
4.61399e-07
0.0014528
5.0098e-07
1.82844e-07
0.00145282
-2.13006e-07
-7.29729e-08
0.00145283
6.03185e-07
-2.29747e-07
0.00145283
-3.6721e-07
2.71744e-07
0.00145286
3.54859e-07
4.16805e-07
0.00145279
2.66061e-07
2.50077e-07
0.00145282
-1.2706e-07
-1.20429e-07
0.00145281
6.05281e-07
-2.12602e-07
0.00145284
-3.35748e-07
2.7927e-07
0.00145283
4.18646e-07
3.62372e-07
0.0014528
1.11448e-07
3.56792e-07
0.0014528
2.60293e-07
-1.68195e-07
0.00145282
2.62409e-07
-1.18215e-07
0.00145283
1.19636e-08
2.60166e-07
0.00145281
1.4009e-07
4.58098e-07
1.91665e-07
3.09943e-07
0.00159843
1.27456e-07
-3.28593e-08
0.00159846
-9.11525e-09
-3.14391e-08
0.00159844
1.05504e-07
1.08667e-07
0.00159849
1.04398e-07
2.09506e-07
0.00159843
4.13869e-09
1.24573e-07
0.00159847
2.90312e-07
-1.73529e-08
0.00159843
5.37266e-09
-4.80096e-08
0.00159845
-5.37417e-08
9.56062e-08
0.00159848
3.60928e-07
2.24402e-07
0.00159843
-1.54922e-07
1.11497e-07
0.00159847
3.14826e-07
-2.36576e-09
0.00159843
4.64626e-08
-3.61685e-08
0.00159847
-1.59188e-08
8.76674e-08
0.00159845
1.8008e-07
2.26157e-07
0.00159848
1.07488e-08
1.51029e-07
0.00159844
2.96239e-07
-2.30472e-08
0.00159847
-1.97989e-07
1.31577e-08
0.00159846
4.19134e-07
3.42944e-08
0.00159846
-3.59708e-07
2.82711e-07
0.00159848
4.39273e-07
8.68647e-08
0.00159842
-1.70248e-07
1.34112e-08
0.00159848
1.59077e-07
-6.27277e-08
0.00159844
1.1149e-07
8.53942e-08
0.00159848
-1.07634e-07
2.1304e-07
0.00159846
4.20665e-07
3.97828e-08
0.00159846
-3.52618e-07
2.06362e-08
0.00159846
4.93292e-07
-1.51883e-07
0.00159844
-3.94287e-07
1.35097e-07
0.0015985
2.46876e-07
1.4927e-07
0.00159844
1.93817e-07
1.08286e-07
0.00159846
-2.88169e-07
-2.38225e-08
0.00159844
5.07968e-07
-1.45706e-07
0.00159845
-3.97134e-07
1.54768e-07
0.00159847
3.44252e-07
7.61015e-08
0.00159845
-1.69966e-09
2.13843e-07
0.00159845
1.13493e-07
-8.61128e-08
0.00159845
1.45289e-07
-6.04975e-08
0.00159846
-4.31963e-08
1.26605e-07
0.00159845
8.70965e-08
1.52478e-07
5.01923e-08
1.84341e-07
0.00175834
9.21314e-08
-2.83628e-08
0.00175838
-1.1771e-07
-1.60428e-08
0.00175833
1.12767e-07
5.83178e-08
0.0017584
-1.76611e-11
6.07454e-08
0.00175833
-2.47807e-08
4.32665e-08
0.00175839
1.5768e-07
-7.26407e-09
0.00175835
-3.31408e-08
-1.95623e-08
0.00175835
-8.73749e-08
2.87085e-08
0.0017584
2.6021e-07
8.33874e-08
0.00175833
-1.76308e-07
2.91715e-08
0.0017584
1.7048e-07
-1.6999e-08
0.00175834
1.69259e-08
1.06909e-10
0.00175837
-6.84312e-08
1.72908e-08
0.00175836
1.29663e-07
9.072e-08
0.00175838
-6.29483e-08
6.29906e-08
0.00175836
2.10845e-07
-2.62878e-08
0.00175837