/*--------------------------------*- C++ -*----------------------------------*\
  =========                 |
  \\      /  F ield         | OpenFOAM: The Open Source CFD Toolbox
   \\    /   O peration     | Website:  https://openfoam.org
    \\  /    A nd           | Version:  10
     \\/     M anipulation  |
\*---------------------------------------------------------------------------*/
FoamFile
{
    format      ascii;
    class       surfaceScalarField;
    location    "32.5";
    object      phi;
}
// * * * * * * * * * * * * * * * * * * * * * * * * * * * * * * * * * * * * * //

dimensions      [0 3 -1 0 0 0 0];

internalField   nonuniform List<scalar> 
74080
(
0.00536691
-5.09769e-09
-4.52719e-08
0.00536692
-1.73057e-08
2.92859e-08
0.0053669
3.5213e-08
-8.82946e-09
0.00536692
-3.96181e-08
-1.63866e-08
0.00536691
3.40178e-08
3.00739e-08
0.0053669
-2.69728e-08
-3.595e-08
0.00536692
2.69512e-08
2.49148e-08
0.00536691
-2.99027e-08
-1.74012e-08
0.0053669
2.75884e-08
8.48915e-09
0.00536692
-1.05106e-08
-1.01393e-08
0.0053669
-1.55219e-08
1.63128e-09
0.00536692
4.21482e-08
2.00501e-09
0.00536692
-5.23412e-08
-1.06246e-08
0.0053669
4.35844e-08
3.13298e-09
0.00536693
-1.7074e-08
3.71383e-09
0.0053669
-8.33419e-09
-2.12294e-08
0.00536691
2.58113e-08
2.34967e-08
0.00536692
-2.62599e-08
-2.36411e-08
0.0053669
2.08198e-08
8.36654e-09
0.00536692
-1.04905e-08
1.71197e-09
0.0053669
7.56752e-10
-1.44095e-08
0.00536691
1.55967e-08
6.34599e-09
0.00536692
-3.11195e-08
9.87953e-09
0.00536689
4.48701e-08
-3.70043e-08
0.00536693
-4.72241e-08
4.23975e-08
0.00536689
4.30027e-08
-2.99836e-08
0.00536692
-2.96289e-08
-4.39029e-09
0.00536691
1.62483e-08
3.25268e-08
0.00536689
1.84088e-10
-5.32589e-08
0.00536693
-1.23382e-08
5.39406e-08
0.00536689
2.09162e-08
-4.18082e-08
0.00536692
-2.04767e-08
1.28735e-08
0.0053669
1.66643e-08
1.28534e-08
0.00536691
-1.16202e-08
-2.82595e-08
0.00536691
1.22048e-08
2.48387e-08
0.0053669
-1.20049e-08
-1.36348e-08
0.00536692
6.69762e-09
-4.19251e-09
0.0053669
7.27171e-09
1.96539e-08
0.00536692
-1.94583e-08
-3.65596e-08
2.0214e-08
4.47984e-08
0.00487873
-1.90936e-08
-4.30286e-08
0.00487872
-8.59674e-09
1.45066e-08
0.00487873
3.02728e-08
1.8566e-08
0.00487872
-3.32525e-08
-5.13458e-08
0.00487873
2.35975e-08
6.27926e-08
0.00487871
-1.16392e-08
-5.86814e-08
0.00487873
1.1902e-08
3.07182e-08
0.00487872
-1.92929e-08
-5.65787e-09
0.00487872
2.74477e-08
-1.68707e-08
0.00487873
-1.9906e-08
1.77494e-08
0.00487871
-4.82668e-10
-1.89164e-08
0.00487873
3.20582e-08
1.16724e-08
0.00487873
-5.3424e-08
-1.29753e-08
0.00487871
5.79956e-08
3.96442e-09
0.00487874
-3.59878e-08
-1.02786e-09
0.00487872
4.84766e-09
-9.06268e-09
0.00487872
2.7719e-08
4.08842e-09
0.00487874
-4.24431e-08
2.1333e-10
0.0048787
4.51827e-08
-1.42938e-08
0.00487874
-3.24472e-08
1.84669e-08
0.00487871
1.42164e-08
-2.157e-08
0.00487873
1.27995e-08
3.20102e-09
0.00487872
-3.61501e-08
2.24812e-08
0.00487872
5.62404e-08
-5.35774e-08
0.00487873
-6.25533e-08
5.90177e-08
0.00487871
5.90385e-08
-4.13097e-08
0.00487873
-4.07689e-08
2.29791e-09
0.00487873
1.64892e-08
3.10151e-08
0.00487871
1.40476e-08
-5.61822e-08
0.00487874
-3.87272e-08
6.37446e-08
0.0048787
5.47512e-08
-5.64551e-08
0.00487874
-5.50312e-08
2.91681e-08
0.00487871
4.6117e-08
1.07261e-09
0.00487873
-3.06581e-08
-2.63395e-08
0.00487873
1.78573e-08
3.50434e-08
0.00487871
-4.28689e-09
-3.29554e-08
0.00487874
-1.04776e-08
1.53205e-08
0.00487871
2.88541e-08
8.88279e-09
0.00487874
-4.07751e-08
-3.67714e-08
3.92873e-08
4.83815e-08
0.00443495
-2.60974e-08
-4.1719e-08
0.00443494
-3.14409e-10
8.14709e-09
0.00443495
2.08804e-08
2.91304e-08
0.00443494
-2.14741e-08
-6.48354e-08
0.00443496
1.13663e-08
7.5708e-08
0.00443493
1.83855e-09
-6.75972e-08
0.00443496
-2.36762e-10
3.27714e-08
0.00443494
-8.29548e-09
-1.38368e-10
0.00443495
2.16429e-08
-2.85016e-08
0.00443495
-1.92182e-08
3.0507e-08
0.00443494
4.8194e-09
-2.80014e-08
0.00443495
2.7108e-08
1.48833e-08
0.00443495
-5.18975e-08
-1.40005e-08
0.00443494
6.422e-08
7.95214e-09
0.00443495
-4.51392e-08
-1.11156e-08
0.00443494
1.2212e-08
7.99383e-09
0.00443494
3.00455e-08
-1.70772e-08
0.00443496
-5.39272e-08
2.1266e-08
0.00443493
6.35388e-08
-2.97078e-08
0.00443496
-4.93863e-08
2.61973e-08
0.00443493
2.63919e-08
-2.11294e-08
0.00443495
6.86644e-09
-1.5483e-09
0.00443494
-3.27428e-08
3.07735e-08
0.00443495
5.50654e-08
-6.25514e-08
0.00443494
-6.27311e-08
6.96418e-08
0.00443494
6.17865e-08
-5.28956e-08
0.00443494
-4.39866e-08
1.62195e-08
0.00443495
1.76415e-08
1.76898e-08
0.00443494
1.82737e-08
-4.56806e-08
0.00443495
-4.88876e-08
6.05791e-08
0.00443494
7.07246e-08
-6.10389e-08
0.00443495
-7.422e-08
4.10156e-08
0.00443494
6.55205e-08
-1.13218e-08
0.00443495
-4.50788e-08
-1.8998e-08
0.00443495
2.29819e-08
3.72683e-08
0.00443494
2.33741e-09
-4.2592e-08
0.00443495
-2.39761e-08
2.72914e-08
0.00443494
4.42147e-08
5.8502e-10
0.00443495
-5.31312e-08
-3.41737e-08
4.85819e-08
4.91428e-08
0.00403153
-2.05739e-08
-4.34406e-08
0.00403153
6.08994e-10
1.05223e-08
0.00403155
1.41638e-08
2.67077e-08
0.00403152
-9.51777e-09
-6.23816e-08
0.00403155
-4.15652e-11
7.41065e-08
0.00403153
1.26964e-08
-6.69525e-08
0.00403154
-7.96843e-09
3.31465e-08
0.00403153
-4.86477e-10
-4.09305e-10
0.00403154
1.71523e-08
-2.90987e-08
0.00403154
-1.72479e-08
3.12403e-08
0.00403153
9.00532e-09
-2.65923e-08
0.00403154
2.09254e-08
1.12775e-08
0.00403153
-4.41112e-08
-1.0291e-08
0.00403154
6.09447e-08
8.06744e-09
0.00403154
-4.51297e-08
-1.68784e-08
0.00403153
1.62292e-08
1.94972e-08
0.00403154
2.84237e-08
-2.9974e-08
0.00403154
-5.5053e-08
3.22375e-08
0.00403153
6.95167e-08
-3.49734e-08
0.00403154
-5.528e-08
2.68935e-08
0.00403153
3.25628e-08
-1.83191e-08
0.00403154
1.8725e-09
-3.01627e-09
0.00403153
-2.56957e-08
3.0539e-08
0.00403154
4.72092e-08
-5.986e-08
0.00403153
-5.37571e-08
6.94147e-08
0.00403154
5.60197e-08
-5.70768e-08
0.00403153
-4.13205e-08
2.69706e-08
0.00403153
1.98377e-08
4.7742e-09
0.00403154
1.3442e-08
-3.34991e-08
0.00403153
-4.18148e-08
5.42892e-08
0.00403154
6.54414e-08
-6.05136e-08
0.00403153
-7.15844e-08
4.70476e-08
0.00403154
6.74859e-08
-1.88369e-08
0.00403153
-4.80363e-08
-1.34936e-08
0.00403154
2.40563e-08
3.86306e-08
0.00403153
6.42603e-09
-4.86657e-08
0.00403154
-2.97871e-08
3.61647e-08
0.00403154
4.83361e-08
-5.49679e-09
0.00403153
-5.09095e-08
-3.15911e-08
4.30606e-08
4.99706e-08
0.00366482
-7.5584e-09
-4.62259e-08
0.00366482
-2.77456e-09
1.70624e-08
0.00366483
8.86144e-09
1.80849e-08
0.00366481
3.56817e-09
-5.19346e-08
0.00366483
-1.28182e-08
6.52388e-08
0.00366481
2.48329e-08
-6.09746e-08
0.00366483
-1.54253e-08
3.21114e-08
0.00366482
5.89553e-09
-2.46115e-09
0.00366482
1.54802e-08
-2.50465e-08
0.00366483
-1.77631e-08
2.74578e-08
0.00366481
1.69056e-08
-2.22793e-08
0.00366483
9.37478e-09
7.23012e-09
0.00366481
-2.78201e-08
-5.77115e-09
0.00366483
4.83762e-08
5.19521e-09
0.00366482
-3.69388e-08
-1.56867e-08
0.00366482
1.78985e-08
2.12654e-08
0.00366483
2.26061e-08
-3.18036e-08
0.00366482
-4.59286e-08
3.32409e-08
0.00366482
6.38073e-08
-3.26465e-08
0.00366482
-5.03496e-08
2.35341e-08
0.00366482
3.28353e-08
-1.50773e-08
0.00366483
-1.24807e-09
-2.35699e-09
0.00366481
-1.57758e-08
2.62699e-08
0.00366483
3.41779e-08
-5.14568e-08
0.00366481
-3.75715e-08
6.31293e-08
0.00366483
4.27458e-08
-5.45196e-08
0.00366482
-3.2345e-08
3.17344e-08
0.00366482
2.02792e-08
-2.46662e-09
0.00366483
4.68251e-09
-2.51729e-08
0.00366481
-2.41604e-08
4.95111e-08
0.00366484
4.52047e-08
-5.82871e-08
0.00366481
-5.21781e-08
4.91826e-08
0.00366483
5.46522e-08
-2.10338e-08
0.00366482
-4.01717e-08
-1.18899e-08
0.00366483
2.06176e-08
4.11615e-08
0.00366482
9.71982e-09
-5.28332e-08
0.00366482
-2.97418e-08
4.17223e-08
0.00366483
4.3926e-08
-8.67818e-09
0.00366481
-3.88046e-08
-2.97107e-08
2.8648e-08
5.09178e-08
0.00333146
9.65929e-09
-4.78577e-08
0.00333146
-8.07653e-09
2.33347e-08
0.00333148
4.44859e-09
9.02306e-09
0.00333145
1.82538e-08
-4.01088e-08
0.00333148
-2.81083e-08
5.49684e-08
0.00333146
4.07115e-08
-5.31887e-08
0.00333147
-2.56975e-08
2.98855e-08
0.00333146
1.45207e-08
-3.76764e-09
0.00333147
1.33323e-08
-2.12249e-08
0.00333147
-1.83194e-08
2.47384e-08
0.00333146
2.61118e-08
-1.97984e-08
0.00333148
-3.89217e-09
5.58183e-09
0.00333145
-7.81321e-09
-2.57431e-09
0.00333148
3.14505e-08
1.88355e-09
0.00333147
-2.43448e-08
-1.09679e-08
0.00333146
1.82863e-08
1.70988e-08
0.00333148
1.46137e-08
-2.61095e-08
0.00333146
-2.99317e-08
2.75733e-08
0.00333147
4.91637e-08
-2.57563e-08
0.00333146
-3.62532e-08
1.9028e-08
0.00333147
2.68879e-08
-1.22323e-08
0.00333147
-9.53957e-10
3.39923e-10
0.00333146
-5.90872e-09
2.00147e-08
0.00333148
1.96572e-08
-4.12783e-08
0.00333145
-1.72532e-08
5.51737e-08
0.00333148
2.43896e-08
-4.9858e-08
0.00333146
-1.70477e-08
3.35132e-08
0.00333146
1.5953e-08
-5.82965e-09
0.00333148
-1.5371e-09
-2.02271e-08
0.00333145
-4.91212e-09
4.68874e-08
0.00333149
2.0496e-08
-5.55294e-08
0.00333145
-2.56305e-08
4.89236e-08
0.00333148
3.48998e-08
-1.97971e-08
0.00333146
-2.68322e-08
-1.25714e-08
0.00333147
1.5298e-08
4.45978e-08
0.00333147
1.12292e-08
-5.56615e-08
0.00333146
-2.48315e-08
4.57496e-08
0.00333148
3.38598e-08
-1.1176e-08
0.00333145
-2.06237e-08
-2.67901e-08
9.22286e-09
5.06501e-08
0.00302843
2.86145e-08
-4.70185e-08
0.00302843
-1.54079e-08
2.74953e-08
0.00302844
2.66574e-09
2.78399e-09
0.00302842
3.13227e-08
-3.02621e-08
0.00302845
-4.25836e-08
4.61874e-08
0.00302842
5.74807e-08
-4.53128e-08
0.00302844
-3.68253e-08
2.70781e-08
0.00302843
2.40352e-08
-3.39126e-09
0.00302843
1.13318e-08
-1.85446e-08
0.00302844
-1.85953e-08
2.37849e-08
0.00302843
3.50087e-08
-1.91376e-08
0.00302845
-1.58178e-08
6.6199e-09
0.00302842
1.17957e-08
-8.9077e-10
0.00302844
1.45779e-08
-1.66477e-09
0.00302843
-1.0314e-08
-3.35857e-09
0.00302843
1.79946e-08
8.49398e-09
0.00302844
6.70746e-09
-1.5413e-08
0.00302842
-1.12166e-08
1.8615e-08
0.00302844
3.03753e-08
-1.80144e-08
0.00302843
-1.64525e-08
1.61161e-08
0.00302844
1.59475e-08
-1.19634e-08
0.00302844
4.15258e-09
5.36445e-09
0.00302842
6.65491e-10
1.27582e-08
0.00302845
8.0004e-09
-3.05525e-08
0.00302842
1.94474e-09
4.67436e-08
0.00302845
6.21724e-09
-4.33191e-08
0.00302842
1.75689e-10
3.25739e-08
0.00302843
9.0208e-09
-5.66236e-09
0.00302844
-4.0696e-09
-1.80092e-08
0.00302842
1.15758e-08
4.60439e-08
0.00302845
-2.04923e-09
-5.25484e-08
0.00302841
6.15945e-10
4.72666e-08
0.00302845
1.48222e-08
-1.60218e-08
0.00302843
-1.23206e-08
-1.52843e-08
0.00302844
1.00021e-08
4.89751e-08
0.00302844
1.22335e-08
-5.79216e-08
0.00302843
-1.80551e-08
4.88996e-08
0.00302845
2.24389e-08
-1.276e-08
0.00302842
-8.41574e-10
-2.3266e-08
-1.11177e-08
4.92034e-08
0.00275295
4.61387e-08
-4.43974e-08
0.00275296
-2.2795e-08
2.92084e-08
0.00275297
3.18369e-09
-1.77834e-10
0.00275295
4.21282e-08
-2.34412e-08
0.00275297
-5.49426e-08
4.0046e-08
0.00275295
7.33784e-08
-3.83934e-08
0.00275297
-4.6871e-08
2.4134e-08
0.00275296
3.30626e-08
-1.58728e-09
0.00275296
1.06076e-08
-1.75699e-08
0.00275297
-1.86866e-08
2.48244e-08
0.00275295
4.30862e-08
-2.02832e-08
0.00275297
-2.47584e-08
9.44214e-09
0.00275295
2.84707e-08
-3.60818e-10
0.00275297
4.24051e-10
-4.70082e-09
0.00275296
3.86411e-09
5.42768e-09
0.00275296
1.60218e-08
-2.08382e-09
0.00275297
2.0849e-09
-2.08674e-09
0.00275295
5.35085e-09
8.03907e-09
0.00275297
1.29259e-08
-9.38337e-09
0.00275295
4.4197e-09
1.37319e-08
0.00275297
3.22822e-09
-1.22921e-08
0.00275296
1.27454e-08
1.08714e-08
0.00275296
3.65544e-09
6.264e-09
0.00275297
8.34814e-10
-2.09503e-08
0.00275295
1.74221e-08
3.96631e-08
0.00275297
-8.66969e-09
-3.68038e-08
0.00275295
1.61843e-08
3.05231e-08
0.00275296
1.6493e-09
-3.04356e-09
0.00275297
-3.56088e-09
-1.78767e-08
0.00275295
2.38448e-08
4.67961e-08
0.00275298
-1.93573e-08
-4.9791e-08
0.00275295
2.25976e-08
4.52835e-08
0.00275297
-1.89698e-09
-1.14366e-08
0.00275296
8.83098e-10
-1.76679e-08
0.00275296
5.32424e-09
5.24383e-08
0.00275296
1.41728e-08
-5.83061e-08
0.00275295
-1.27726e-08
5.06327e-08
0.00275297
1.3942e-08
-1.32552e-08
0.00275295
1.55797e-08
-1.95613e-08
-2.79855e-08
4.69264e-08
0.00250247
6.04127e-08
-4.07739e-08
0.00250249
-2.94267e-08
2.99243e-08
0.00250249
5.42504e-09
-3.99601e-10
0.00250248
5.03627e-08
-1.8871e-08
0.00250249
-6.44597e-08
3.64952e-08
0.00250247
8.76445e-08
-3.26524e-08
0.00250249
-5.52522e-08
2.17426e-08
0.00250248
4.11531e-08
1.32928e-09
0.00250248
1.06214e-08
-1.75347e-08
0.00250249
-1.76535e-08
2.75735e-08
0.00250248
4.84883e-08
-2.23449e-08
0.00250249
-2.85534e-08
1.37214e-08
0.00250248
3.97519e-08
-4.93117e-10
0.00250249
-8.83082e-09
-6.94659e-09
0.00250248
1.65609e-08
1.42299e-08
0.00250248
1.26308e-08
-1.28245e-08
0.00250249
2.39624e-09
1.17124e-08
0.00250247
1.6942e-08
-2.32449e-09
0.00250249
2.46414e-11
-1.45415e-09
0.00250247
2.31636e-08
1.27176e-08
0.00250249
-9.05252e-09
-1.34472e-08
0.00250248
2.33165e-08
1.66963e-08
0.00250248
3.5343e-09
7.85686e-10
0.00250249
-1.86585e-09
-1.28589e-08
0.00250247
2.84204e-08
3.44627e-08
0.00250249
-1.91273e-08
-3.1219e-08
0.00250247
2.96965e-08
2.87381e-08
0.00250248
-5.45199e-09
1.01247e-10
0.00250249
-1.19176e-10
-1.81776e-08
0.00250247
3.08806e-08
4.8222e-08
0.0025025
-2.94973e-08
-4.70832e-08
0.00250247
3.74322e-08
4.3545e-08
0.00250249
-1.24414e-08
-6.46128e-09
0.00250248
1.00912e-08
-1.98948e-08
0.00250248
2.4769e-09
5.59961e-08
0.00250248
1.67436e-08
-5.75902e-08
0.00250248
-1.00501e-08
5.16697e-08
0.00250249
1.02241e-08
-1.2499e-08
0.00250247
2.64591e-08
-1.6188e-08
-3.95017e-08
4.51097e-08
0.00227398
7.03981e-08
-3.64493e-08
0.00227399
-3.46565e-08
2.98734e-08
0.00227398
9.24868e-09
1.43294e-09
0.00227398
5.52675e-08
-1.62316e-08
0.00227399
-6.98208e-08
3.56003e-08
0.00227398
9.7899e-08
-2.78724e-08
0.00227399
-6.00627e-08
2.03474e-08
0.00227398
4.67085e-08
4.97853e-09
0.00227398
1.19894e-08
-1.79527e-08
0.00227399
-1.57115e-08
3.14631e-08
0.00227398
5.07607e-08
-2.44176e-08
0.00227399
-2.67108e-08
1.87381e-08
0.00227398
4.48508e-08
-7.57461e-10
0.00227399
-1.25982e-08
-8.19376e-09
0.00227398
2.70885e-08
2.26881e-08
0.00227398
8.12894e-09
-2.22549e-08
0.00227398
7.30179e-09
2.50625e-08
0.00227398
2.27573e-08
-1.13569e-08
0.00227399
-7.1945e-09
5.89764e-09
0.00227398
3.81442e-08
1.26576e-08
0.00227399
-1.95375e-08
-1.42898e-08
0.00227398
3.43977e-08
2.23318e-08
0.00227398
9.92468e-10
-2.98655e-09
0.00227399
-4.83456e-10
-6.2511e-09
0.00227398
3.45932e-08
3.12365e-08
0.00227399
-2.47349e-08
-2.61316e-08
0.00227398
3.94335e-08
2.75298e-08
0.00227398
-1.11016e-08
3.9606e-09
0.00227399
4.96915e-09
-1.86631e-08
0.00227398
3.30001e-08
5.06066e-08
0.00227399
-3.26948e-08
-4.45611e-08
0.00227397
4.4693e-08
4.26323e-08
0.00227399
-1.65723e-08
-1.51903e-09
0.00227398
1.47934e-08
-2.14193e-08
0.00227398
1.64606e-09
5.93357e-08
0.00227398
1.95018e-08
-5.59091e-08
0.00227398
-9.90968e-09
5.2475e-08
0.00227399
1.09644e-08
-1.08109e-08
0.00227398
3.14736e-08
-1.31488e-08
-4.51194e-08
4.41436e-08
0.00206049
7.42476e-08
-3.36879e-08
0.0020605
-3.66625e-08
3.09957e-08
0.0020605
1.33063e-08
4.61343e-09
0.0020605
5.58158e-08
-1.55597e-08
0.0020605
-6.84417e-08
3.82624e-08
0.0020605
1.00394e-07
-2.54382e-08
0.0020605
-5.845e-08
2.09854e-08
0.0020605
4.77027e-08
8.54134e-09
0.0020605
1.45972e-08
-1.9152e-08
0.0020605
-1.25814e-08
3.79587e-08
0.0020605
4.89486e-08
-2.84441e-08
0.0020605
-1.97516e-08
2.62082e-08
0.0020605
4.39126e-08
-2.57856e-09
0.0020605
-1.18467e-08
-7.95127e-09
0.0020605
3.48527e-08
3.09782e-08
0.0020605
2.7712e-09
-3.10997e-08
0.0020605
1.51744e-08
3.86299e-08
0.0020605
2.36524e-08
-2.00207e-08
0.00206051
-9.73543e-09
1.30295e-08
0.0020605
4.84616e-08
1.39541e-08
0.00206051
-2.72177e-08
-1.53693e-08
0.0020605
4.39138e-08
2.80955e-08
0.0020605
-2.31798e-09
-5.46621e-09
0.00206051
2.97041e-09
-1.84555e-09
0.0020605
3.6832e-08
3.17191e-08
0.00206051
-2.62853e-08
-2.36267e-08
0.0020605
4.53158e-08
2.83769e-08
0.0020605
-1.51907e-08
7.91764e-09
0.0020605
1.09566e-08
-2.0715e-08
0.0020605
3.08293e-08
5.67509e-08
0.00206051
-3.00813e-08
-4.55574e-08
0.0020605
4.56151e-08
4.54026e-08
0.00206051
-1.61208e-08
1.57392e-09
0.0020605
1.6509e-08
-2.22217e-08
0.0020605
1.71395e-09
6.42201e-08
0.0020605
2.22709e-08
-5.53761e-08
0.0020605
-1.13601e-08
5.47416e-08
0.0020605
1.47876e-08
-8.76017e-09
0.0020605
3.10364e-08
-1.11176e-08
-4.43449e-08
4.59865e-08
0.00184837
7.02136e-08
-4.17972e-08
0.00184838
-3.30644e-08
3.95731e-08
0.00184837
1.5999e-08
2.88735e-09
0.00184838
5.1886e-08
-1.7065e-08
0.00184837
-5.90672e-08
4.64809e-08
0.00184838
9.25654e-08
-3.38761e-08
0.00184837
-4.81995e-08
2.90288e-08
0.00184838
4.27677e-08
5.09206e-09
0.00184838
1.83257e-08
-2.03757e-08
0.00184838
-7.81602e-09
4.702e-08
0.00184838
4.2631e-08
-4.3035e-08
0.00184838
-7.99734e-09
4.27294e-08
0.00184839
3.73469e-08
-1.65524e-08
0.00184838
-6.99575e-09
-1.34021e-09
0.00184839
3.94718e-08
3.47435e-08
0.00184839
-2.79843e-09
-4.37452e-08
0.00184839
2.43648e-08
5.57969e-08
0.00184839
2.057e-08
-3.59805e-08
0.00184839
-8.10611e-09
2.2514e-08
0.00184839
5.37341e-08
1.44152e-08
0.00184839
-3.13045e-08
-2.2634e-08
0.00184839
5.0701e-08
3.82354e-08
0.00184839
-5.52566e-09
-1.24323e-08
0.00184839
8.02829e-09
5.07353e-11
0.00184838
3.50087e-08
3.92881e-08
0.00184839
-2.34142e-08
-3.48301e-08
0.00184838
4.68184e-08
4.05976e-08
0.00184839
-1.72008e-08
3.43161e-09
0.00184838
1.76477e-08
-2.33007e-08
0.00184838
2.45475e-08
7.1104e-08
0.00184838
-2.19604e-08
-6.20574e-08
0.00184838
4.09775e-08
6.2899e-08
0.00184838
-1.20421e-08
-6.64304e-09
0.00184838
1.65813e-08
-2.02335e-08
0.00184838
2.05077e-09
7.37655e-08
0.00184838
2.46822e-08
-6.57672e-08
0.00184838
-1.28264e-08
6.64407e-08
0.00184837
1.99095e-08
-1.26659e-08
0.00184838
2.63329e-08
-1.04722e-08
-3.69112e-08
5.42861e-08
0.00163319
5.91277e-08
-6.09746e-08
0.00163319
-2.27582e-08
6.5716e-08
0.00163318
1.43864e-08
-2.30869e-08
0.00163319
4.7803e-08
-4.80926e-09
0.00163318
-4.58137e-08
4.46815e-08
0.00163319
7.77443e-08
-4.98697e-08
0.00163318
-3.09533e-08
4.91788e-08
0.00163319
3.20382e-08
-2.11879e-08
0.00163319
2.46609e-08
-4.01535e-09
0.00163319
-3.39014e-09
3.70066e-08
0.00163319
3.36558e-08
-5.44982e-08
0.00163319
7.26101e-09
6.42381e-08
0.0016332
2.54536e-08
-5.15895e-08
0.00163319
2.34277e-09
2.88786e-08
0.0016332
3.96588e-08
1.13082e-08
0.0016332
-7.23452e-09
-4.3546e-08
0.0016332
3.41278e-08
7.1276e-08
0.0016332
1.33996e-08
-6.64616e-08
0.0016332
-1.75178e-09
5.0649e-08
0.0016332
5.25325e-08
-4.44166e-09
0.0016332
-3.06001e-08
-2.55271e-08
0.0016332
5.35461e-08
5.77168e-08
0.0016332
-8.36467e-09
-4.13972e-08
0.00163319
1.46127e-08
2.41708e-08
0.00163319
2.82252e-08
3.17232e-08
0.00163319
-1.45949e-08
-5.09786e-08
0.00163319
4.13508e-08
7.58448e-08
0.00163319
-1.44403e-08
-3.60748e-08
0.00163319
2.20263e-08
6.25608e-09
0.00163319
1.6287e-08
6.61934e-08
0.00163319
-9.62056e-09
-8.40955e-08
0.00163319
3.08173e-08
1.05585e-07
0.00163319
-3.98707e-09
-5.11831e-08
0.00163318
1.3931e-08
1.18182e-08
0.00163319
3.68536e-09
6.68851e-08
0.00163318
2.5307e-08
-8.39957e-08
0.00163319
-1.26241e-08
1.00171e-07
0.00163318
2.37389e-08
-4.61714e-08
0.00163319
2.01702e-08
9.39972e-09
-2.50763e-08
5.31378e-08
0.00142321
4.74438e-08
-4.5805e-08
0.0014232
-1.08379e-08
7.63668e-08
0.0014232
9.22664e-09
-6.11141e-08
0.00142321
4.67974e-08
3.19783e-08
0.0014232
-3.57817e-08
1.05701e-08
0.00142322
6.36882e-08
-3.94018e-08
0.0014232
-1.35251e-08
5.19243e-08
0.00142321
1.82938e-08
-4.58494e-08
0.00142321
3.39997e-08
2.48916e-08
0.00142321
-3.54867e-09
4.43207e-10
0.00142321
2.70035e-08
-2.98577e-08
0.00142321
2.08522e-08
5.17862e-08
0.00142322
1.07059e-08
-6.53458e-08
0.00142321
1.54336e-08
6.06683e-08
0.00142322
3.34954e-08
-3.66802e-08
0.00142321
-7.85587e-09
-5.94812e-10
0.00142321
4.11066e-08
4.49201e-08
0.00142321
4.36467e-09
-7.05618e-08
0.00142321
7.43033e-09
8.034e-08
0.00142321
4.53659e-08
-4.98679e-08
0.00142321
-2.51016e-08
1.40352e-08
0.00142321
5.08212e-08
4.09668e-08
0.00142321
-8.38446e-09
-5.72314e-08
0.00142321
1.86756e-08
6.61161e-08
0.00142321
2.05369e-08
-1.95086e-08
0.00142321
-3.64857e-09
-1.47735e-08
0.00142321
3.02868e-08
7.30781e-08
0.00142321
-5.95967e-09
-7.26199e-08
0.0014232
2.01309e-08
6.90165e-08
0.00142321
1.11098e-08
8.44817e-11
0.0014232
1.52856e-09
-4.44139e-08
0.00142321
1.88395e-08
1.08035e-07
0.0014232
6.05348e-09
-9.90075e-08
0.0014232
8.8648e-09
8.15608e-08
0.0014232
6.57178e-09
-1.03956e-09
0.0014232
2.41167e-08
-5.05617e-08
0.00142321
-1.0706e-08
1.06423e-07
0.0014232
2.47237e-08
-9.24538e-08
0.00142321
1.61021e-08
6.47219e-08
-1.49747e-08
3.91788e-09
0.00122558
3.86011e-08
1.05356e-08
0.00122557
-2.87904e-09
3.60153e-08
0.00122557
5.34975e-09
-5.67465e-08
0.00122558
4.56513e-08
5.22452e-08
0.00122556
-2.97434e-08
-2.78844e-08
0.00122558
5.4139e-08
-5.26473e-09
0.00122557
-2.6629e-09
2.70342e-08
0.00122557
7.65049e-09
-4.003e-08
0.00122557
4.18691e-08
3.22997e-08
0.00122557
-8.01502e-09
-2.17954e-08
0.00122557
2.5595e-08
-8.48523e-10
0.00122557
2.69829e-08
1.83872e-08
0.00122557
-9.39208e-10
-3.97623e-08
0.00122557
2.77224e-08
4.97763e-08
0.00122558
2.24587e-08
-5.08453e-08
0.00122557
-3.43446e-09
3.48977e-08
0.00122557
4.18023e-08
-4.34476e-09
0.00122557
-2.3516e-09
-2.83354e-08
0.00122557
1.57034e-08
5.86135e-08
0.00122558
3.53775e-08
-6.12904e-08
0.00122557
-1.72793e-08
5.07024e-08
0.00122557
4.4335e-08
-8.668e-09
0.00122557
-5.94598e-09
-2.10116e-08
0.00122557
1.89188e-08
5.62897e-08
0.00122557
1.57149e-08
-4.69201e-08
0.00122557
3.89653e-09
3.50651e-08
0.00122557
1.99032e-08
1.67272e-08
0.00122557
3.49468e-09
-4.10486e-08
0.00122557
1.39237e-08
7.34491e-08
0.00122557
1.09322e-08
-4.91346e-08
0.00122556
7.25452e-09
2.54903e-08
0.00122557
9.89292e-09
3.9042e-08
0.00122557
1.43933e-08
-6.8073e-08
0.00122557
3.09809e-09
9.56849e-08
0.00122557
1.0125e-08
-6.26825e-08
0.00122557
2.15326e-08
2.45351e-08
0.00122557
-8.47054e-09
4.19051e-08
0.00122556
2.45186e-08
-7.26954e-08
0.00122558
1.30966e-08
8.59826e-08
-7.92275e-09
-5.25419e-08
0.00104447
3.07608e-08
3.95373e-08
0.00104446
1.82355e-09
-9.02065e-09
0.00104446
3.43767e-09
-1.84908e-08
0.00104447
4.16663e-08
3.33495e-08
0.00104446
-2.46029e-08
-3.38527e-08
0.00104447
4.646e-08
1.56542e-08
0.00104446
2.2345e-09
-1.86689e-10
0.00104447
2.26358e-09
-2.01931e-08
0.00104446
4.40672e-08
2.05293e-08
0.00104447
-1.19775e-08
-2.30975e-08
0.00104447
2.64191e-08
7.01256e-09
0.00104447
2.60865e-08
-6.88329e-10
0.00104447
-6.06602e-09
-1.81897e-08
0.00104446
3.41245e-08
2.35122e-08
0.00104447
1.22088e-08
-3.52022e-08
0.00104446
2.88773e-09
3.05216e-08
0.00104447
3.71361e-08
-2.37006e-08
0.00104447
-4.50873e-09
3.04364e-09
0.00104447
1.99639e-08
1.81784e-08
0.00104447
2.64394e-08
-3.51324e-08
0.00104446
-9.79176e-09
4.23015e-08
0.00104447
3.6583e-08
-2.89943e-08
0.00104447
-2.56714e-09
1.20909e-08
0.00104447
1.70098e-08
1.84138e-08
0.00104447
1.33454e-08
-2.78601e-08
0.00104446
7.49332e-09
3.84729e-08
0.00104447
1.30761e-08
-1.4944e-08
0.00104447
9.92108e-09
1.40091e-09
0.00104447
7.94418e-09
3.38407e-08
0.00104447
1.25736e-08
-3.5394e-08
0.00104446
8.54161e-09
4.28904e-08
0.00104447
5.23227e-09
-8.70727e-09
0.00104446
1.86674e-08
-1.13304e-08
0.00104447
-1.13703e-09
5.11438e-08
0.00104446
1.29364e-08
-5.25407e-08
0.00104447
1.77675e-08
5.18068e-08
0.00104446
-5.79639e-09
-1.32623e-08
0.00104446
2.29736e-08
-1.552e-08
0.00104447
1.01269e-08
4.91181e-08
-2.55474e-09
-5.10593e-08
0.000881844
2.35592e-08
2.79055e-08
0.000881835
4.78903e-09
-2.02353e-08
0.000881838
1.69594e-09
3.90718e-09
0.00088184
3.64255e-08
6.25299e-09
0.000881834
-1.99131e-08
-1.99255e-08
0.000881841
3.89007e-08
1.14448e-08
0.000881837
4.40182e-09
-1.22218e-08
0.000881839
-1.24419e-10
-8.62406e-09
0.00088184
4.17049e-08
5.21567e-09
0.000881839
-1.32211e-08
-1.89709e-08
0.00088184
2.60886e-08
2.84697e-09
0.000881842
2.25e-08
-7.67908e-09
0.000881841
-6.76649e-09
-1.24232e-08
0.000881842
3.47907e-08
7.81291e-09
0.000881845
5.83338e-09
-2.26736e-08
0.000881842
7.47571e-09
1.47478e-08
0.000881846
3.09996e-08
-2.02246e-08
0.000881845
-3.79644e-09
7.30074e-09
0.000881844
2.04982e-08
-1.47548e-09
0.000881849
2.03176e-08
-1.22714e-08
0.000881843
-4.41012e-09
2.01093e-08
0.000881849
2.96506e-08
-2.00529e-08
0.000881846
4.33789e-10
1.75806e-08
0.000881846
1.44198e-08
-1.8903e-10
0.000881849
1.21409e-08
-4.51224e-09
0.000881844
8.51609e-09
2.16649e-08
0.000881849
9.12206e-09
-1.09453e-08
0.000881844
1.29361e-08
1.5539e-08
0.000881846
3.76773e-09
9.79892e-09
0.000881846
1.35744e-08
-7.7924e-09
0.000881842
7.86405e-09
2.81798e-08
0.000881846
2.96041e-09
-1.0925e-08
0.000881842
1.94232e-08
1.29289e-08
0.000881844
-3.36312e-09
1.71493e-08
0.00088184
1.37096e-08
-1.93814e-08
0.000881844
1.39402e-08
3.64833e-08
0.000881838
-3.42218e-09
-2.06954e-08
0.00088184
1.98228e-08
1.27818e-08
0.000881842
7.9204e-09
1.24077e-08
6.39464e-10
-2.22249e-08
0.000738091
1.77742e-08
8.13315e-09
0.000738085
6.18562e-09
-1.47992e-08
0.000738088
-4.06006e-11
2.48126e-09
0.00073809
3.13639e-08
-7.72119e-09
0.000738085
-1.61973e-08
-1.11968e-08
0.000738091
3.20058e-08
-1.12022e-09
0.000738089
5.42913e-09
-1.4112e-08
0.000738089
-1.25297e-09
-8.10934e-09
0.000738093
3.73697e-08
-4.93555e-09
0.000738091
-1.24224e-08
-1.65372e-08
0.000738093
2.42185e-08
-2.51278e-09
0.000738096
1.89435e-08
-1.08181e-08
0.000738094
-5.74653e-09
-1.1399e-08
0.000738097
3.23732e-08
1.41771e-09
0.000738098
2.74586e-09
-1.736e-08
0.000738097
9.70527e-09
6.63661e-09
0.000738101
2.56362e-08
-1.34303e-08
0.000738099
-2.38176e-09
4.2684e-09
0.0007381
1.91939e-08
-3.18247e-09
0.000738103
1.63216e-08
-2.16434e-09
0.000738099
-1.19195e-09
9.23778e-09
0.000738103
2.41407e-08
-6.48531e-09
0.0007381
2.3129e-09
1.35187e-08
0.000738101
1.19471e-08
7.90031e-10
0.000738102
1.10798e-08
6.3382e-09
0.000738099
8.11365e-09
1.26175e-08
0.000738101
6.75772e-09
1.19606e-09
0.000738097
1.33746e-08
1.47268e-08
0.000738098
1.10715e-09
6.68018e-09
0.000738097
1.33143e-08
6.14386e-09
0.000738095
6.39502e-09
1.57802e-08
0.000738095
1.5868e-09
-2.75861e-10
0.000738093
1.80764e-08
1.35691e-08
0.000738093
-4.50715e-09
6.84306e-09
0.00073809
1.2763e-08
-1.94669e-09
0.000738093
1.06438e-08
1.79345e-08
0.000738087
-2.07786e-09
-1.13172e-08
0.00073809
1.60354e-08
1.21861e-08
0.00073809
6.36778e-09
-2.07545e-09
1.7455e-09
-6.424e-09
0.000612612
1.3512e-08
-4.07115e-09
0.000612608
6.37456e-09
-1.14433e-08
0.00061261
-1.24862e-09
-6.2639e-09
0.000612613
2.6764e-08
-1.17664e-08
0.00061261
-1.33121e-08
-1.10162e-08
0.000612614
2.6248e-08
-9.42542e-09
0.000612614
5.78885e-09
-1.36026e-08
0.000612613
-1.69971e-09
-1.06477e-08
0.000612619
3.25757e-08
-9.08814e-09
0.000612616
-1.06824e-08
-1.45739e-08
0.000612619
2.15003e-08
-5.05222e-09
0.000612622
1.60865e-08
-1.0989e-08
0.00061262
-4.40333e-09
-8.64617e-09
0.000612624
2.87658e-08
-4.12064e-10
0.000612624
1.5106e-09
-1.2474e-08
0.000612623
1.02003e-08
5.75143e-09
0.000612627
2.12861e-08
-7.71581e-09
0.000612625
-1.19785e-09
4.66237e-09
0.000612626
1.7124e-08
9.91314e-10
0.000612627
1.33749e-08
2.95073e-09
0.000612625
5.13717e-10
8.42005e-09
0.000612628
1.96342e-08
2.59455e-09
0.000612625
3.11271e-09
1.18772e-08
0.000612625
9.70398e-09
6.61131e-09
0.000612624
9.70209e-09
9.70137e-09
0.000612622
7.02796e-09
1.17023e-08
0.000612623
5.03119e-09
8.00232e-09
0.00061262
1.22111e-08
1.218e-08
0.00061262
-5.48875e-10
8.99678e-09
0.000612618
1.19758e-08
8.72269e-09
0.000612617
4.68114e-09
1.02945e-08
0.000612616
5.53866e-10
4.89732e-09
0.000612614
1.56227e-08
7.99435e-09
0.000612613
-5.08286e-09
4.52721e-09
0.000612611
1.09039e-08
4.24256e-10
0.000612613
7.92754e-09
6.74886e-09
0.000612609
-1.57754e-09
-6.85526e-09
0.000612611
1.24617e-08
3.46232e-09
0.00061261
5.15114e-09
-6.28706e-09
1.63999e-09
-5.79762e-09
0.00050421
1.04626e-08
-9.55419e-09
0.000504209
5.89558e-09
-1.19795e-08
0.00050421
-1.80962e-09
-1.19725e-08
0.000504213
2.26244e-08
-1.2191e-08
0.000504211
-1.09074e-08
-1.27928e-08
0.000504215
2.15331e-08
-1.17136e-08
0.000504216
5.73695e-09
-1.24315e-08
0.000504215
-1.73997e-09
-1.09678e-08
0.00050422
2.78963e-08
-8.87832e-09
0.000504218
-8.68939e-09
-1.13949e-08
0.000504221
1.84576e-08
-4.40787e-09
0.000504223
1.37943e-08
-8.03849e-09
0.000504221
-3.27676e-09
-4.29726e-09
0.000504225
2.47977e-08
5.98393e-10
0.000504225
1.10903e-09
-6.16531e-09
0.000504225
9.56739e-09
7.61417e-09
0.000504227
1.76707e-08
-2.38155e-09
0.000504225
-4.71699e-10
7.65608e-09
0.000504226
1.4678e-08
5.33375e-09
0.000504226
1.09599e-08
6.81635e-09
0.000504224
1.17157e-09
1.03878e-08
0.000504226
1.57572e-08
7.49313e-09
0.000504223
3.16316e-09
1.21391e-08
0.000504223
7.58632e-09
1.00236e-08
0.000504222
8.07946e-09
1.02203e-08
0.00050422
5.65543e-09
1.19564e-08
0.000504219
3.54344e-09
9.06096e-09
0.000504217
1.03113e-08
9.86986e-09
0.000504216
-1.57997e-09
8.77361e-09
0.000504215
1.00238e-08
6.35643e-09
0.000504213
3.10601e-09
6.68063e-09
0.000504212
-2.87651e-10
3.64624e-09
0.000504212
1.28238e-08
2.21582e-09
0.00050421
-5.22569e-09
1.65065e-09
0.000504209
8.76108e-09
-3.18285e-09
0.00050421
5.81161e-09
-2.05594e-10
0.000504207
-1.4855e-09
-8.07609e-09
0.000504209
9.47252e-09
-3.91459e-09
0.000504208
4.17199e-09
-9.07553e-09
1.14107e-09
-9.77077e-09
0.000411378
8.26025e-09
-1.1365e-08
0.000411378
5.15319e-09
-1.27301e-08
0.000411379
-1.90463e-09
-1.31445e-08
0.000411382
1.89165e-08
-1.11472e-08
0.00041138
-8.83335e-09
-1.25577e-08
0.000411384
1.75958e-08
-1.022e-08
0.000411385
5.42309e-09
-1.01114e-08
0.000411384
-1.62665e-09
-8.57054e-09
0.000411389
2.35148e-08
-6.25115e-09
0.000411387
-6.85472e-09
-7.11593e-09
0.00041139
1.53734e-08
-1.73654e-09
0.000411391
1.18255e-08
-3.57107e-09
0.00041139
-2.53442e-09
1.06754e-10
0.000411393
2.08568e-08
3.16312e-09
0.000411392
9.58891e-10
-1.85581e-10
0.000411392
8.26614e-09
9.55678e-09
0.000411394
1.45601e-08
2.17017e-09
0.000411391
-2.04681e-10
1.03424e-08
0.000411392
1.21099e-08
8.06488e-09
0.000411392
8.87412e-09
9.15384e-09
0.00041139
1.13361e-09
1.14036e-08
0.00041139
1.24178e-08
9.27071e-09
0.000411388
2.76478e-09
1.1636e-08
0.000411387
5.63006e-09
1.01717e-08
0.000411386
6.44423e-09
8.98781e-09
0.000411385
4.23985e-09
1.03084e-08
0.000411383
2.27254e-09