/*--------------------------------*- C++ -*----------------------------------*\
  =========                 |
  \\      /  F ield         | OpenFOAM: The Open Source CFD Toolbox
   \\    /   O peration     | Website:  https://openfoam.org
    \\  /    A nd           | Version:  10
     \\/     M anipulation  |
\*---------------------------------------------------------------------------*/
FoamFile
{
    format      ascii;
    class       volScalarField;
    location    "2.5";
    object      pMean;
}
// * * * * * * * * * * * * * * * * * * * * * * * * * * * * * * * * * * * * * //

dimensions      [0 2 -2 0 0 0 0];

internalField   nonuniform List<scalar> 
25600
(
4.18625e-05
7.91188e-05
9.01659e-05
0.000114795
7.30191e-05
0.000150928
8.45483e-05
0.000107284
5.30549e-05
9.20831e-05
7.50764e-05
0.000147719
0.000129593
0.000153666
8.36103e-05
0.000100979
0.000104103
0.000145082
0.000100613
8.83739e-05
8.95335e-05
0.000118814
0.000151422
0.000198201
0.000200181
0.000129383
0.000148522
0.000174401
0.000206781
0.000139752
0.000169795
9.08851e-05
0.000162966
0.000104612
0.000118447
2.92284e-05
9.11183e-05
0.000121503
0.000123809
0.000104947
3.95309e-05
7.83487e-05
9.11246e-05
0.000114739
7.33035e-05
0.000148907
8.25994e-05
0.000107595
5.36285e-05
9.21368e-05
7.36505e-05
0.000145279
0.000127702
0.000155086
8.38661e-05
9.92327e-05
0.000102014
0.00014459
0.000100308
8.72074e-05
8.51626e-05
0.0001155
0.000149969
0.000198418
0.000199789
0.000125861
0.000147455
0.000173345
0.000207919
0.000139304
0.000169577
8.68235e-05
0.000159266
0.000105741
0.000117025
2.80338e-05
8.97371e-05
0.000122847
0.000125161
0.00010679
4.16398e-05
7.39523e-05
9.15271e-05
0.000124854
7.91997e-05
0.000151727
7.77756e-05
0.000107795
6.08046e-05
0.000100145
7.60148e-05
0.000148717
0.000132807
0.000155948
8.50886e-05
0.000102591
0.000104946
0.000147309
0.000105363
9.23548e-05
9.06099e-05
0.000114259
0.000152336
0.000206138
0.000207427
0.000123677
0.000143728
0.000176916
0.000212949
0.000147363
0.000166797
9.01866e-05
0.000163766
0.000109875
0.000123401
2.88728e-05
8.61354e-05
0.000124255
0.000127711
0.000109745
4.35875e-05
7.27271e-05
0.000104186
0.000133067
8.52709e-05
0.000157294
7.92591e-05
0.000109316
6.45207e-05
0.000102904
7.96745e-05
0.000148308
0.000134368
0.000169713
9.46036e-05
0.000109504
0.000112676
0.000155995
0.000110519
9.11569e-05
8.65237e-05
0.000118328
0.000152821
0.00021976
0.000218194
0.000122418
0.000144388
0.00017589
0.000221694
0.000156688
0.000174643
8.24926e-05
0.000159152
0.000120026
0.000126736
3.29533e-05
8.09745e-05
0.000128564
0.000139895
0.000120238
3.12864e-05
4.64715e-05
8.17556e-05
0.000125478
8.40462e-05
0.000138992
6.54539e-05
0.000100285
5.76309e-05
9.70532e-05
6.18558e-05
0.000123857
0.000122913
0.000153092
8.72274e-05
0.000106336
9.91678e-05
0.000146107
0.00010978
9.43749e-05
8.79898e-05
0.000103357
0.000145517
0.000202267
0.000212541
0.000112744
0.000128435
0.00016332
0.000198041
0.000139709
0.000153625
7.40308e-05
0.000144455
0.000108761
0.000113542
2.83723e-05
5.99419e-05
0.000112694
0.000115856
0.00010587
-3.44083e-06
9.06949e-06
5.84493e-05
9.3934e-05
4.83136e-05
0.000101181
6.8435e-06
4.90567e-05
2.17511e-05
5.74719e-05
2.59912e-05
8.03696e-05
8.23691e-05
0.000125375
6.02954e-05
7.0317e-05
6.53966e-05
0.000110893
7.52865e-05
4.59776e-05
4.76528e-05
6.26571e-05
0.000101553
0.000176025
0.00015979
5.20085e-05
7.34966e-05
0.000111331
0.00015055
8.66282e-05
0.000108216
5.05974e-06
8.85085e-05
6.94353e-05
6.96175e-05
-1.90814e-05
3.04271e-05
7.3779e-05
8.16747e-05
5.74415e-05
-7.14721e-05
-5.05033e-05
-1.50336e-05
5.54954e-05
-6.53891e-07
3.88435e-05
-4.6068e-05
-6.48262e-06
-4.45056e-05
-1.03331e-05
-4.00831e-05
-2.82994e-06
1.31219e-05
6.20173e-05
1.68035e-05
1.06682e-05
1.71409e-05
4.40778e-05
2.55428e-05
7.86302e-06
2.94563e-06
3.14758e-06
4.81475e-05
9.20484e-05
9.06235e-05
-2.59819e-05
-3.5913e-06
2.59607e-05
6.72309e-05
1.40289e-05
2.39105e-05
-3.79353e-05
1.62202e-05
2.11739e-06
1.53058e-05
-7.5069e-05
-6.48221e-05
4.26938e-06
2.39747e-05
-8.63441e-06
-0.00012386
-0.000102336
-6.37353e-05
-2.12221e-05
-7.3024e-05
-3.19714e-05
-0.000107345
-7.61953e-05
-0.000113648
-8.47144e-05
-9.43265e-05
-5.97651e-05
-4.66042e-05
-9.63817e-06
-5.00713e-05
-5.10386e-05
-4.53955e-05
-2.62674e-05
-4.31829e-05
-4.60815e-05
-6.05776e-05
-4.66577e-05
-2.27002e-05
1.04933e-05
8.43878e-07
-0.000104734
-9.30606e-05
-6.54367e-05
-2.07016e-05
-6.53161e-05
-3.70158e-05
-0.000110062
-6.67771e-05
-6.38454e-05
-6.14099e-05
-0.000128698
-0.000125471
-6.2535e-05
-5.7891e-05
-7.05762e-05
-0.000156978
-0.000141416
-0.000120415
-6.49088e-05
-0.000126199
-8.37369e-05
-0.000144623
-0.000120134
-0.000143493
-0.000127302
-0.00012969
-0.000113133
-9.90379e-05
-5.72284e-05
-7.69855e-05
-9.65753e-05
-9.51181e-05
-7.63152e-05
-7.7471e-05
-9.12538e-05
-8.23645e-05
-7.60583e-05
-6.00987e-05
-5.01291e-05
-5.29643e-05
-0.000147062
-0.000150125
-0.000136111
-7.69007e-05
-0.000122981
-9.84448e-05
-0.000139495
-0.000118263
-0.000110247
-0.000108273
-0.000161742
-0.000172987
-0.000117996
-0.000106762
-0.000114031
-0.000152272
-0.00013319
-0.00011612
-9.05846e-05
-0.000132207
-8.90948e-05
-0.000129851
-0.0001144
-0.000139577
-0.000135663
-0.000127456
-0.000103916
-9.19562e-05
-7.06607e-05
-9.00696e-05
-9.95763e-05
-0.000101782
-8.17603e-05
-0.000103645
-9.857e-05
-9.02765e-05
-7.72439e-05
-6.77665e-05
-6.61995e-05
-6.32713e-05
-0.000133805
-0.000147982
-0.000145018
-9.52688e-05
-0.000132074
-9.9764e-05
-0.000131707
-0.000130009
-0.000116069
-0.000114852
-0.000141922
-0.000162901
-0.000123679
-0.000116228
-0.000118361
-0.000117259
-0.000105046
-9.84692e-05
-7.21515e-05
-9.98579e-05
-6.7591e-05
-8.84812e-05
-8.29148e-05
-0.00011009
-0.000111348
-9.68011e-05
-8.15779e-05
-7.41798e-05
-5.66259e-05
-6.49501e-05
-7.12942e-05
-7.1067e-05
-6.06526e-05
-7.09204e-05
-8.02646e-05
-6.30053e-05
-5.55186e-05
-4.2846e-05
-4.73582e-05
-3.75559e-05
-9.01934e-05
-0.00010911
-0.000114001
-7.46514e-05
-0.000100969
-7.41799e-05
-8.88243e-05
-9.76545e-05
-9.04822e-05
-9.23143e-05
-0.000105383
-0.000124917
-9.64843e-05
-9.49517e-05
-9.34034e-05
-8.00341e-05
-7.14116e-05
-6.08764e-05
-4.45633e-05
-6.65372e-05
-4.2292e-05
-5.4011e-05
-4.89498e-05
-7.33154e-05
-7.83064e-05
-6.3684e-05
-4.71078e-05
-3.99882e-05
-3.2619e-05
-4.17967e-05
-3.85039e-05
-4.36786e-05
-3.10374e-05
-4.40416e-05
-5.5634e-05
-3.95251e-05
-3.27172e-05
-1.46017e-05
-2.15241e-05
-1.37705e-05
-4.97074e-05
-6.57999e-05
-7.81942e-05
-4.61032e-05
-6.66971e-05
-4.53138e-05
-4.83656e-05
-6.2208e-05
-5.53061e-05
-6.13297e-05
-6.40708e-05
-8.24661e-05
-6.14018e-05
-6.50008e-05
-6.1886e-05
-5.17824e-05
-4.69454e-05
-3.62501e-05
-2.72142e-05
-4.23451e-05
-2.55202e-05
-3.18817e-05
-2.392e-05
-4.42861e-05
-5.2982e-05
-3.99705e-05
-2.55254e-05
-2.08472e-05
-1.62473e-05
-2.35699e-05
-1.71029e-05
-2.0637e-05
-1.05964e-05
-1.74473e-05
-3.42959e-05
-1.9419e-05
-1.5792e-05
4.93584e-06
-2.90014e-06
1.06795e-06
-2.19039e-05
-3.52707e-05
-4.98176e-05
-2.75317e-05
-4.16717e-05
-2.76551e-05
-2.08778e-05
-3.4476e-05
-2.81266e-05
-3.84811e-05
-3.65824e-05
-5.17458e-05
-3.72128e-05
-4.14644e-05
-3.91314e-05
-3.40554e-05
-3.35326e-05
-2.14302e-05
-1.76152e-05
-2.74429e-05
-1.55323e-05
-2.18636e-05
-1.10029e-05
-2.6494e-05
-3.53e-05
-2.67095e-05
-1.5357e-05
-9.17512e-06
-5.16147e-06
-1.35486e-05
-4.99529e-06
-8.17907e-06
-8.08944e-07
-2.88181e-06
-2.16549e-05
-8.43209e-06
-8.92683e-06
1.0355e-05
5.62909e-06
6.2428e-06
-7.66313e-06
-1.827e-05
-3.3358e-05
-2.01162e-05
-2.7927e-05
-1.82237e-05
-6.94634e-06
-1.86977e-05
-1.19269e-05
-2.51918e-05
-2.17668e-05
-3.18783e-05
-2.22743e-05
-2.6529e-05
-2.59311e-05
-2.30431e-05
-2.6509e-05
-1.40616e-05
-1.33562e-05
-1.95812e-05
-1.03343e-05
-1.89363e-05
-5.94853e-06
-1.631e-05
-2.39208e-05
-1.83106e-05
-1.10831e-05
-4.38995e-06
-9.95018e-07
-7.46655e-06
7.90133e-08
-2.12903e-06
2.22672e-06
3.70568e-06
-1.37036e-05
-2.34743e-06
-6.14208e-06
9.60714e-06
9.22932e-06
8.05753e-06
-6.45474e-07
-1.06116e-05
-2.33263e-05
-1.7436e-05
-1.96473e-05
-1.27806e-05
-3.42148e-07
-1.09198e-05
-4.11249e-06
-1.64257e-05
-1.43017e-05
-2.0159e-05
-1.46483e-05
-1.8628e-05
-1.96345e-05
-1.6019e-05
-2.28355e-05
-1.1e-05
-1.14568e-05
-1.58106e-05
-6.57743e-06
-1.82154e-05
-4.94867e-06
-1.06765e-05
-1.5718e-05
-1.24139e-05
-1.00034e-05
-4.36088e-06
8.00908e-08
-3.31899e-06
1.79128e-06
7.44465e-07
2.2104e-06
6.34265e-06
-8.11856e-06
1.21407e-06
-4.82781e-06
5.98412e-06
9.50822e-06
7.98675e-06
2.21984e-06
-7.83838e-06
-1.7522e-05
-1.64277e-05
-1.54011e-05
-9.65202e-06
2.22715e-06
-7.61751e-06
-8.0688e-07
-1.04918e-05
-1.08648e-05
-1.37295e-05
-1.09137e-05
-1.42665e-05
-1.60572e-05
-1.16029e-05
-1.98822e-05
-1.04384e-05
-9.98041e-06
-1.42926e-05
-3.96817e-06
-1.7649e-05
-6.56253e-06
-8.05518e-06
-1.0259e-05
-7.67906e-06
-9.90289e-06
-5.44804e-06
-6.78086e-07
-7.01377e-07
2.87073e-06
2.01313e-06
1.39358e-06
6.57704e-06
-4.59083e-06
3.0174e-06
-3.7485e-06
1.82819e-06
7.84664e-06
6.98431e-06
4.10625e-06
-6.36053e-06
-1.38511e-05
-1.51174e-05
-1.32098e-05
-7.46462e-06
2.75159e-06
-6.41438e-06
3.55763e-07
-6.30113e-06
-9.04946e-06
-9.8332e-06
-9.19799e-06
-1.13021e-05
-1.43482e-05
-9.06886e-06
-1.68358e-05
-1.08463e-05
-8.82043e-06
-1.38119e-05
-2.86373e-06
-1.62697e-05
-8.51339e-06
-7.30844e-06
-7.25952e-06
-3.79349e-06
-9.51247e-06
-6.56564e-06
-2.50777e-06
4.85662e-07
3.78865e-06
2.37659e-06
3.67531e-07
5.36975e-06
-2.75125e-06
3.92564e-06
-2.16989e-06
-1.62939e-06
5.56373e-06
5.6577e-06
5.41903e-06
-5.27998e-06
-1.16659e-05
-1.32868e-05
-1.21518e-05
-6.17038e-06
2.73931e-06
-5.94729e-06
-6.52336e-08
-3.50659e-06
-7.73953e-06
-7.49015e-06
-8.53137e-06
-9.50439e-06
-1.32308e-05
-7.89667e-06
-1.35222e-05
-1.14867e-05
-7.95511e-06
-1.34447e-05
-2.69317e-06
-1.38264e-05
-1.01007e-05
-7.64416e-06
-6.3382e-06
-1.0153e-06
-8.36232e-06
-7.03745e-06
-4.52943e-06
-1.38531e-07
4.62357e-06
2.7512e-06
-5.9368e-07
3.74941e-06
-1.87766e-06
4.20754e-06
-2.21386e-07
-3.93358e-06
3.27644e-06
4.30417e-06
6.16199e-06
-3.68638e-06
-1.04534e-05
-1.14151e-05
-1.12776e-05
-5.51728e-06
2.7588e-06
-5.35346e-06
-1.14416e-06
-1.93119e-06
-6.70595e-06
-5.72232e-06
-8.29522e-06
-8.51765e-06
-1.21488e-05
-7.59133e-06
-1.04823e-05
-1.17798e-05
-7.33669e-06
-1.25855e-05
-3.62062e-06
-1.15099e-05
-1.0865e-05
-8.0945e-06
-6.60856e-06
5.15249e-07
-6.73445e-06
-6.94046e-06
-6.10027e-06
-2.09415e-06
5.10547e-06
3.5476e-06
-1.46276e-06
2.10445e-06
-1.53433e-06
3.7124e-06
1.4902e-06
-5.05499e-06
1.18051e-06
2.9909e-06
6.12629e-06
-1.60831e-06
-9.61193e-06
-9.82515e-06
-1.02578e-05
-5.47648e-06
2.52844e-06
-4.57493e-06
-2.1616e-06
-1.13186e-06
-6.11394e-06
-4.39291e-06
-7.86583e-06
-8.16809e-06
-1.09879e-05
-7.77038e-06
-8.13091e-06
-1.13989e-05
-7.09399e-06
-1.13472e-05
-5.09653e-06
-9.67519e-06
-1.0562e-05
-8.17583e-06
-7.55131e-06
6.5694e-07
-4.98912e-06
-6.5467e-06
-6.52636e-06
-4.65011e-06
4.29662e-06
4.77649e-06
-1.75719e-06
4.4163e-07
-1.49007e-06
2.56535e-06
2.70244e-06
-4.91193e-06
-5.3301e-07
1.79999e-06
5.08699e-06
4.71698e-07
-8.30106e-06
-8.81305e-06
-9.04711e-06
-5.72718e-06
1.94339e-06
-3.51014e-06
-2.86588e-06
-8.73572e-07
-5.94329e-06
-3.65138e-06
-7.04144e-06
-8.16141e-06
-9.84168e-06
-7.90221e-06
-6.60275e-06
-1.04286e-05
-7.26161e-06
-9.93117e-06
-6.40431e-06
-8.61335e-06
-9.66939e-06
-7.68264e-06
-8.51579e-06
-4.29509e-07
-3.55974e-06
-5.97133e-06
-6.04681e-06
-6.80278e-06
2.07167e-06
5.83286e-06
-1.31448e-06
-1.26564e-06
-1.67728e-06
1.21879e-06
3.19699e-06
-4.12877e-06
-1.89066e-06
9.03835e-07
3.47646e-06
1.97332e-06
-6.33082e-06
-8.07854e-06
-7.89319e-06
-5.94393e-06
9.73595e-07
-2.54104e-06
-3.29522e-06
-9.07962e-07
-6.03184e-06
-3.73008e-06
-5.93907e-06
-8.19587e-06
-8.89346e-06
-7.75741e-06
-5.93387e-06
-9.23358e-06
-7.56629e-06
-8.77052e-06
-6.89596e-06
-8.17642e-06
-8.77568e-06
-6.68952e-06
-8.97116e-06
-2.2795e-06
-2.74827e-06
-5.43277e-06
-5.11565e-06
-7.77265e-06
-1.04569e-06
6.00737e-06
-2.42527e-08
-2.52885e-06
-2.10316e-06
7.83232e-10
2.90499e-06
-3.08613e-06
-2.87057e-06
2.46671e-07
1.86632e-06
2.24823e-06
-4.1166e-06
-7.26456e-06
-6.97219e-06
-5.88704e-06
-2.78883e-07
-1.96801e-06
-3.455e-06
-9.53475e-07
-5.98013e-06
-4.52694e-06
-4.8523e-06
-7.90877e-06
-8.17198e-06
-7.48813e-06
-5.82305e-06
-8.02392e-06
-7.75906e-06
-7.94572e-06
-6.80321e-06
-7.88298e-06
-8.18811e-06
-5.61623e-06
-8.54653e-06
-4.24343e-06
-2.6422e-06
-5.00859e-06
-4.25968e-06
-7.35537e-06
-4.0247e-06
4.65068e-06
1.52842e-06
-3.06307e-06
-2.78028e-06
-1.00034e-06
2.09359e-06
-2.01733e-06
-3.46614e-06
-4.76652e-07
5.11335e-07
1.50011e-06
-2.24245e-06
-6.06029e-06
-6.30757e-06
-5.66554e-06
-1.48955e-06
-1.82723e-06
-3.44796e-06
-1.07439e-06
-5.6131e-06
-5.62225e-06
-4.25507e-06
-7.20793e-06
-7.71466e-06
-7.17754e-06
-5.92857e-06
-6.95129e-06
-7.60465e-06
-7.51032e-06
-6.51e-06
-7.4636e-06
-7.91836e-06
-4.89378e-06
-7.46816e-06
-5.76343e-06
-3.10257e-06
-4.66954e-06
-3.78579e-06
-6.06219e-06
-5.93848e-06
2.05423e-06
2.57533e-06
-2.63022e-06
-3.44928e-06
-1.81415e-06
1.07662e-06
-1.22512e-06
-3.60691e-06
-1.29853e-06
-4.60012e-07
2.66663e-07
-1.16149e-06
-4.68409e-06
-5.80373e-06
-5.3909e-06
-2.44654e-06
-2.0018e-06
-3.42152e-06
-1.3781e-06
-4.94395e-06
-6.51222e-06
-4.26348e-06
-6.27028e-06
-7.35582e-06
-6.98777e-06
-6.01422e-06
-6.15139e-06
-7.10459e-06
-7.26321e-06
-6.25408e-06
-6.9044e-06
-7.76022e-06
-4.75373e-06
-6.15361e-06
-6.46437e-06
-3.81709e-06
-4.38955e-06
-3.66095e-06
-4.63802e-06
-6.40727e-06
-8.2897e-07
2.48883e-06
-1.62163e-06
-3.88945e-06
-2.57389e-06
4.95528e-08
-8.93778e-07
-3.41744e-06
-2.10911e-06
-1.18824e-06
-9.70874e-07
-9.83571e-07
-3.41606e-06
-5.2087e-06
-5.15079e-06
-3.13031e-06
-2.34237e-06
-3.43741e-06
-1.89404e-06
-4.23387e-06
-6.80172e-06
-4.71043e-06
-5.41289e-06
-6.97428e-06
-6.74138e-06
-5.98726e-06
-5.6747e-06
-6.4391e-06
-6.91909e-06
-6.06558e-06
-6.26703e-06
-7.45566e-06
-5.04895e-06
-5.08556e-06
-6.3361e-06
-4.47408e-06
-4.20705e-06
-3.70966e-06
-3.63574e-06
-5.7883e-06
-3.12112e-06
1.25516e-06
-6.93996e-07
-3.81934e-06
-3.23688e-06
-9.29217e-07
-9.08792e-07
-3.06693e-06
-2.74379e-06
-1.7849e-06
-1.89861e-06
-1.46125e-06
-2.61371e-06
-4.52963e-06
-4.95962e-06
-3.61821e-06
-2.72551e-06
-3.51508e-06
-2.52304e-06
-3.70022e-06
-6.49318e-06
-5.24868e-06
-4.89655e-06
-6.50022e-06
-6.43445e-06
-5.95019e-06
-5.5087e-06
-5.83977e-06
-6.38316e-06
-5.86753e-06
-5.6997e-06
-6.90384e-06
-5.49287e-06
-4.56694e-06
-5.72401e-06
-4.85904e-06
-4.17733e-06
-3.80904e-06
-3.20647e-06
-4.74391e-06
-4.2757e-06
-5.17838e-07
-3.62583e-07
-3.29666e-06
-3.63648e-06
-1.85962e-06
-1.20105e-06
-2.7346e-06
-3.09066e-06
-2.28271e-06
-2.50031e-06
-2.18553e-06
-2.41894e-06
-3.8808e-06
-4.7264e-06
-3.97068e-06
-3.11841e-06
-3.6282e-06
-3.11841e-06
-3.46996e-06
-5.88482e-06
-5.61271e-06
-4.75547e-06
-5.92533e-06
-5.95725e-06
-5.7877e-06
-5.45242e-06
-5.35238e-06
-5.737e-06
-5.58704e-06
-5.25919e-06
-6.21226e-06
-5.7424e-06
-4.4811e-06
-4.9895e-06
-4.88362e-06
-4.24413e-06
-3.88259e-06
-3.15314e-06
-3.82041e-06
-4.41723e-06
-2.09811e-06
-8.03504e-07
-2.66571e-06
-3.70375e-06
-2.64901e-06
-1.7319e-06
-2.59108e-06
-3.21058e-06
-2.73423e-06
-2.87328e-06
-2.87025e-06
-2.70508e-06
-3.49007e-06
-4.46479e-06
-4.199e-06
-3.50383e-06
-3.79316e-06
-3.58977e-06
-3.5378e-06
-5.26329e-06
-5.66228e-06
-4.83668e-06
-5.36475e-06
-5.67772e-06
-5.65731e-06
-5.3729e-06
-4.99993e-06
-5.10449e-06
-5.19342e-06
-4.96071e-06
-5.57249e-06
-5.64162e-06
-4.53921e-06
-4.45477e-06
-4.63894e-06
-4.28291e-06
-3.88682e-06
-3.26506e-06
-3.28542e-06
-4.04757e-06
-3.05444e-06
-1.62615e-06
-2.33722e-06
-3.44982e-06
-3.1581e-06
-2.26716e-06
-2.61835e-06
-3.17722e-06
-3.06074e-06
-3.11804e-06
-3.32011e-06
-3.17249e-06
-3.42647e-06
-4.24873e-06
-4.3529e-06
-3.86788e-06
-3.94045e-06
-3.90559e-06
-3.75737e-06
-4.87026e-06
-5.54538e-06
-5.04947e-06
-5.21908e-06
-5.32247e-06
-5.364e-06
-5.0884e-06
-4.68994e-06
-4.74401e-06
-4.99567e-06
-4.92178e-06
-5.11339e-06
-5.20682e-06
-4.49031e-06
-4.17345e-06
-4.36887e-06
-4.22008e-06
-3.85779e-06
-3.34617e-06
-3.10834e-06
-3.58479e-06
-3.40134e-06
-2.40842e-06
-2.37146e-06
-3.22956e-06
-3.36715e-06
-2.84006e-06
-2.81746e-06
-3.24082e-06
-3.31333e-06
-3.37752e-06
-3.66064e-06
-3.58722e-06
-3.59794e-06
-4.16266e-06
-4.48336e-06
-4.25226e-06
-4.18741e-06
-4.14969e-06
-4.04509e-06
-4.5614e-06
-5.02832e-06
-4.75601e-06
-4.87058e-06
-5.73417e-06
-3.8544e-06
-3.02186e-06
-3.19507e-06
-4.13845e-06
-4.88542e-06
-4.93659e-06
-4.74746e-06
-4.60406e-06
-4.22836e-06
-4.01391e-06
-4.07895e-06
-4.04018e-06
-3.65475e-06
-3.32063e-06
-3.00831e-06
-3.32727e-06
-3.33423e-06
-2.91903e-06
-2.50021e-06
-3.09941e-06
-3.38265e-06
-3.16147e-06
-3.05531e-06
-3.27788e-06
-3.45318e-06
-3.61161e-06
-3.93212e-06
-3.85122e-06
-3.89498e-06
-4.18675e-06
-4.66446e-06
-4.45432e-06
-4.42356e-06
-4.30514e-06
-4.57236e-06
-5.1917e-06
-5.84801e-06
-5.68577e-06
-6.20284e-06
-0.000215297
-0.00024831
-0.000185207
-0.000181053
-0.000251466
-0.000255382
-0.000250296
-0.000167922
-0.000151431
-0.000156259
-0.00021099
-0.000193518
-0.000176857
-9.00358e-05
-0.000145276
-0.000155645
-0.000183154
-0.000117538
-0.000160156
-0.000155966
-0.000208278
-0.000146607
-0.000195428
-0.000108298
-0.00018382
-0.000208405
-0.000300595
-0.000224818
-0.000211759
-0.000219449
-0.000234987
-0.000242104
-0.000214761
-0.000195595
-0.000237306
-0.000219108
-0.000251688
-0.000175151
-0.000170153
-0.000243217
-0.000215451
-0.000251688
-0.000184309
-0.000180279
-0.00025233
-0.00025691
-0.000250757
-0.000165764
-0.000150374
-0.000156661
-0.000212342
-0.000195405
-0.000175604
-8.71987e-05
-0.000144871
-0.000156391
-0.000187274
-0.000117239
-0.000156804
-0.000154853
-0.000209899
-0.000146318
-0.000192895
-0.000104358
-0.000181963
-0.000209581
-0.000301938
-0.000224719
-0.00020878
-0.000218412
-0.000236541
-0.000243632
-0.000213587
-0.000194811
-0.000238359
-0.000221775
-0.000253291
-0.000175017
-0.000165626
-0.000243027
-0.000221821
-0.000253072
-0.000185391
-0.00017925
-0.000255918
-0.000264071
-0.000259513
-0.000171865
-0.000147027
-0.000157039
-0.00021893
-0.000204333
-0.000179494
-8.40526e-05
-0.00014584
-0.000163632
-0.000187556
-0.000116195
-0.000160135
-0.000158134
-0.000212839
-0.000158544
-0.000200377
-0.000104928
-0.000182823
-0.000220741
-0.000307574
-0.000224715
-0.000210273
-0.000218596
-0.000242267
-0.000249304
-0.000217476
-0.000193221
-0.000235937
-0.000226524
-0.000260123
-0.000175557
-0.000170414
-0.000246053
-0.000232173
-0.000262053
-0.000190745
-0.000182107
-0.000260048
-0.00026763
-0.000270086
-0.000177453
-0.000156442
-0.000171583
-0.000228139
-0.000214808
-0.000186604
-8.28865e-05
-0.000153332
-0.000170179
-0.000211407
-0.000127798
-0.000161731
-0.000164044
-0.000227391
-0.000165596
-0.00020219
-0.000110986
-0.000190653
-0.000230827
-0.000326048
-0.000232146
-0.000217212
-0.000220507
-0.000255887
-0.000254778
-0.000215737
-0.000202344
-0.000247076
-0.000237335
-0.000277956
-0.000189013
-0.000166441
-0.000252087
-0.000228758
-0.000271988
-0.00019791
-0.000187246
-0.000270838
-0.000287039
-0.000279496
-0.000189278
-0.000153813
-0.000166524
-0.000247999
-0.000223218
-0.000195029
-8.21719e-05
-0.000166971
-0.000186717
-0.000206205
-0.00012923
-0.000171376
-0.000179348
-0.000238982
-0.000188592
-0.000225355
-0.000123373
-0.000195277
-0.00025012
-0.000326074
-0.000242099
-0.000220002
-0.00022514
-0.000259851
-0.000271371
-0.000230494
-0.000195933
-0.000240388
-0.000243964
-0.000267458
-0.000191844
-0.000175315
-0.000260956
-0.000256311
-0.000270224
-0.00020187
-0.000182669
-0.000259272
-0.000278936
-0.000288496
-0.000197294
-0.000180293
-0.000183914
-0.000252425
-0.000236488
-0.000207018
-8.79761e-05
-0.000178987
-0.000202883
-0.000244995
-0.000149553
-0.000176807
-0.000179772
-0.000234654
-0.000194931
-0.000229595
-0.000136431
-0.000203113
-0.000266148
-0.000361237
-0.000253307
-0.000229027
-0.000224443
-0.000281565
-0.000268468
-0.000221116
-0.000197758
-0.000242531
-0.000241377
-0.000290569
-0.000204386
-0.000176042
-0.000263551
-0.000230984
-0.000287547
-0.000212994
-0.000192577
-0.000280945
-0.000301831
-0.000289259
-0.000206363
-0.000183846
-0.000174624
-0.000254717
-0.000234237
-0.000212906
-9.94706e-05
-0.000177979
-0.000202973
-0.000265608
-0.000157429
-0.000178887
-0.000184866
-0.000233422
-0.000203647
-0.000249154
-0.000161724
-0.000217459
-0.000281916
-0.000349171
-0.000268109
-0.000236099
-0.000231015
-0.000263243
-0.000280135
-0.000222311
-0.000195367
-0.000213663
-0.000255809
-0.000253653
-0.000199269
-0.000175978
-0.000262462
-0.000256953
-0.000274912
-0.000223307
-0.000198016
-0.000271599
-0.000291692
-0.000312729
-0.000234831
-0.00020295
-0.000197881
-0.00025423
-0.000220192
-0.000212393
-0.000114317
-0.000194215
-0.000203666
-0.000267023
-0.00016526
-0.00019643
-0.000170024
-0.000222618
-0.00020177
-0.00024681
-0.000191769
-0.00023297
-0.000278805
-0.000338523
-0.00027434
-0.000242214
-0.000224946
-0.000270845
-0.000259048
-0.000213248
-0.00018432
-0.000209868
-0.00021733
-0.000260147
-0.000213528
-0.000181491
-0.000248783
-0.000216447
-0.00025332
-0.000215778
-0.000201722
-0.000262444
-0.000278598
-0.000276726
-0.000210022
-0.000213173
-0.000195088
-0.000232784
-0.000196729
-0.000196771
-0.000120387
-0.000173488
-0.000194437
-0.000245182
-0.000160883
-0.000164842
-0.000158075
-0.000203965
-0.000192856
-0.000232144
-0.000204227
-0.000222162
-0.000254847
-0.000323132
-0.000271532
-0.000236962
-0.000228181
-0.000245195
-0.00025019
-0.000203688
-0.000185584
-0.000197361
-0.000221007
-0.000227286
-0.000198122
-0.000160926
-0.000225174
-0.000188042
-0.000201622
-0.000179223
-0.000164749
-0.000220042
-0.000231683
-0.000242212
-0.000184465
-0.000181163
-0.000159334
-0.000191149
-0.000154818
-0.000156476
-9.54992e-05
-0.000143353
-0.000150766
-0.000195916
-0.000123753
-0.000142222
-0.000131422
-0.000169516
-0.000167779
-0.000200753
-0.000172217
-0.000181819
-0.000197841
-0.000253256
-0.000221112
-0.000204862
-0.000189531
-0.000195962
-0.000207315
-0.000172329
-0.000156458
-0.000162958
-0.000177032
-0.000183754
-0.000161658
-0.000138911
-0.000182674
-0.000136982
-0.000143439
-0.000125665
-0.000124328
-0.000169482
-0.000176361
-0.000182301
-0.000124832
-0.000128234
-0.000117313
-0.000135966
-0.000100516
-0.000101604
-6.18508e-05
-9.69328e-05
-0.000101002
-0.000132823
-7.95036e-05
-8.92303e-05
-9.49155e-05
-0.000125997
-0.00011948
-0.000136953
-0.000126175
-0.000131417
-0.000145392
-0.000183874
-0.000164262
-0.000146872
-0.000137793
-0.000135955
-0.000146968
-0.000122188
-0.000117123
-0.000115302
-0.000131587
-0.000129767
-0.00011474
-0.000100862
-0.000135085
-9.79053e-05
-9.49705e-05
-8.00225e-05
-8.10272e-05
-0.000122525
-0.000124302
-0.000131066
-7.83087e-05
-8.76732e-05
-7.64089e-05
-9.22822e-05
-6.01323e-05
-5.90698e-05
-3.17746e-05
-5.97194e-05
-5.58609e-05
-7.93926e-05
-3.50306e-05
-5.4877e-05
-6.49975e-05
-8.65241e-05
-7.75201e-05
-8.74073e-05
-8.23735e-05
-8.83137e-05
-9.54265e-05
-0.000120592
-0.000108684
-9.66039e-05
-9.46235e-05
-8.65987e-05
-9.68488e-05
-7.83602e-05
-7.39488e-05
-6.99145e-05
-8.65663e-05
-8.32108e-05
-6.9541e-05
-6.60995e-05
-8.89122e-05
-6.92893e-05
-6.42716e-05
-4.82109e-05
-5.21173e-05
-8.96304e-05
-8.74313e-05
-9.41213e-05
-4.56429e-05
-5.38659e-05
-4.98037e-05
-6.2463e-05
-3.71864e-05
-3.25817e-05
-1.22594e-05
-3.40523e-05
-2.86611e-05
-4.23519e-05
-1.17739e-05
-2.98073e-05
-4.29848e-05
-5.65428e-05
-4.90184e-05
-4.86789e-05
-5.12416e-05
-5.88762e-05
-6.66523e-05
-7.98264e-05
-7.39959e-05
-6.2943e-05
-6.5936e-05
-5.49239e-05
-5.95308e-05
-4.61227e-05
-4.66268e-05
-4.16286e-05
-5.66966e-05
-5.32385e-05
-3.92653e-05
-4.33673e-05
-6.20537e-05
-5.08041e-05
-4.61679e-05
-2.97641e-05
-3.35891e-05
-6.76772e-05
-6.2289e-05
-7.09384e-05
-2.76757e-05
-3.51971e-05
-3.48295e-05
-4.57359e-05
-2.679e-05
-1.80742e-05
-1.43212e-06
-1.99994e-05
-1.4173e-05
-2.33383e-05
3.40138e-07
-1.59025e-05
-3.0183e-05
-3.86733e-05
-3.34823e-05
-2.68714e-05
-3.14462e-05
-4.00637e-05
-4.8269e-05
-5.38223e-05
-5.13347e-05
-4.19466e-05
-4.77708e-05
-3.50899e-05
-3.64237e-05
-2.72108e-05
-3.00178e-05
-2.55185e-05
-3.72965e-05
-3.70205e-05
-2.04487e-05
-3.07639e-05
-4.36333e-05
-3.8592e-05
-3.62575e-05
-2.04427e-05
-2.23531e-05
-5.21543e-05
-4.57793e-05
-5.60775e-05
-2.00784e-05
-2.36339e-05
-2.53446e-05
-3.41923e-05
-2.20085e-05
-1.08506e-05
3.43429e-06
-1.16626e-05
-7.47348e-06
-1.26555e-05
5.65605e-06
-7.78132e-06
-2.26529e-05
-2.64517e-05
-2.55468e-05
-1.42582e-05
-1.86533e-05
-2.68919e-05
-3.62864e-05
-3.88002e-05
-3.74903e-05
-3.01595e-05
-3.69339e-05
-2.35202e-05
-2.26592e-05
-1.58258e-05
-1.9397e-05
-1.70445e-05
-2.49116e-05
-2.8277e-05
-1.06955e-05
-2.24417e-05
-3.41149e-05
-2.94448e-05
-2.95025e-05
-1.63365e-05
-1.50866e-05
-4.06956e-05
-3.3885e-05
-4.56784e-05
-1.7102e-05
-1.62467e-05
-1.88165e-05
-2.5714e-05
-1.9332e-05
-8.29868e-06
4.55343e-06
-6.60902e-06
-4.40978e-06
-7.2674e-06
6.23086e-06
-3.43906e-06
-1.80002e-05
-1.82382e-05
-2.08218e-05
-8.77038e-06
-1.06907e-05
-1.71057e-05
-2.77553e-05
-2.9832e-05
-2.85634e-05
-2.28464e-05
-2.8838e-05
-1.63e-05
-1.40064e-05
-9.59519e-06
-1.21337e-05
-1.29074e-05
-1.67427e-05
-2.29513e-05
-6.42665e-06
-1.67117e-05
-2.83179e-05
-2.30931e-05
-2.44639e-05
-1.52699e-05
-1.13646e-05
-3.22593e-05
-2.56528e-05
-3.75195e-05
-1.65638e-05
-1.24761e-05
-1.46039e-05
-1.93855e-05
-1.79141e-05
-8.17199e-06
3.61428e-06
-3.62186e-06
-2.49295e-06
-4.40635e-06
4.82946e-06
-1.03219e-06
-1.45782e-05
-1.21867e-05
-1.74511e-05
-6.82525e-06
-5.66689e-06
-1.01916e-05
-2.10123e-05
-2.40423e-05
-2.27168e-05
-1.78257e-05
-2.30367e-05
-1.23435e-05
-8.56329e-06
-6.66753e-06
-7.07823e-06
-1.06754e-05
-1.16578e-05
-1.86881e-05
-6.21579e-06
-1.25213e-05
-2.4518e-05
-1.88022e-05
-1.99142e-05
-1.51583e-05
-9.70147e-06
-2.59786e-05
-1.96543e-05
-3.04281e-05
-1.67016e-05
-1.06961e-05
-1.19242e-05
-1.44214e-05
-1.59788e-05
-8.65614e-06
1.30524e-06
-2.04946e-06
-8.48139e-07
-2.58542e-06
2.19659e-06
-4.02189e-07
-1.18868e-05
-7.96741e-06
-1.42517e-05
-6.75627e-06
-3.25965e-06
-5.83336e-06
-1.51816e-05
-1.96248e-05
-1.86679e-05
-1.43471e-05
-1.89282e-05
-1.03251e-05
-4.62706e-06
-5.30328e-06
-4.00825e-06
-9.20505e-06
-9.02551e-06
-1.49179e-05
-7.44139e-06
-9.76037e-06
-2.15424e-05
-1.61572e-05
-1.60131e-05
-1.51939e-05
-9.66541e-06
-2.14877e-05
-1.56462e-05
-2.41622e-05
-1.65317e-05
-1.04286e-05
-1.05464e-05
-1.03186e-05
-1.36837e-05
-9.18943e-06
-1.4166e-06
-1.7602e-06
3.1123e-07
-1.11233e-06
8.14866e-08
-7.36417e-07
-9.66941e-06
-4.96786e-06
-1.08576e-05
-7.28648e-06
-2.66574e-06
-3.33032e-06
-1.02913e-05
-1.5822e-05
-1.57524e-05
-1.1829e-05
-1.55093e-05
-9.17717e-06
-2.05362e-06
-4.57478e-06
-2.23523e-06
-7.78324e-06
-8.05352e-06
-1.11645e-05
-8.62503e-06
-8.53266e-06
-1.88886e-05
-1.45816e-05
-1.28838e-05
-1.45758e-05
-1.03073e-05
-1.82972e-05
-1.31339e-05
-1.89159e-05
-1.55113e-05
-1.06199e-05
-1.02981e-05
-7.53063e-06
-1.09837e-05
-8.86189e-06
-3.66172e-06
-2.69467e-06
7.43705e-07
5.83378e-07
-1.28855e-06
-1.89675e-06
-7.93699e-06
-3.11985e-06
-7.57379e-06
-7.59848e-06
-3.12914e-06
-2.31619e-06
-6.64647e-06
-1.22427e-05
-1.35548e-05
-1.01409e-05
-1.27231e-05
-8.74734e-06
-5.58178e-07
-3.88517e-06
-1.59132e-06
-6.34115e-06
-8.26749e-06
-8.19649e-06
-9.05685e-06
-8.17024e-06
-1.6165e-05
-1.35882e-05
-1.07355e-05
-1.31984e-05
-1.1143e-05
-1.59889e-05
-1.15127e-05
-1.48663e-05
-1.38045e-05
-1.06207e-05
-1.09671e-05
-6.08515e-06
-8.32573e-06
-7.88365e-06
-4.97486e-06
-4.34668e-06
3.61792e-07
2.24429e-06
-1.55753e-06
-3.27611e-06
-7.00972e-06
-2.13813e-06
-4.51209e-06
-7.31817e-06
-4.04351e-06
-2.17181e-06
-4.22926e-06
-8.84167e-06
-1.12606e-05
-9.1186e-06
-1.04806e-05
-8.37997e-06
-2.11324e-09
-3.14483e-06
-1.64849e-06
-4.84039e-06
-8.7009e-06
-6.1278e-06
-8.46051e-06
-8.79617e-06
-1.37073e-05
-1.27019e-05
-9.66259e-06
-1.13203e-05
-1.15177e-05
-1.4276e-05
-1.05067e-05
-1.23208e-05
-1.19551e-05
-1.00041e-05
-1.16631e-05
-5.84062e-06
-6.28129e-06
-6.59738e-06
-5.00066e-06
-5.81059e-06
-1.08666e-06
3.2533e-06
-5.67047e-07
-4.34842e-06
-6.73254e-06
-1.75959e-06
-2.13805e-06
-6.30918e-06
-4.85127e-06
-2.53309e-06
-3.10486e-06
-6.17439e-06
-8.91546e-06
-8.35367e-06
-8.78124e-06
-7.94666e-06
-3.44213e-07
-2.39465e-06
-1.99254e-06
-3.6626e-06
-8.91805e-06
-5.28122e-06
-7.09003e-06
-9.23862e-06
-1.16234e-05
-1.15331e-05
-9.18443e-06
-9.46136e-06
-1.1207e-05
-1.29574e-05
-9.74772e-06
-1.08274e-05
-1.03807e-05
-8.68613e-06
-1.18945e-05
-6.5317e-06
-4.83592e-06
-5.33086e-06
-4.35723e-06
-6.49342e-06
-3.10584e-06
3.16847e-06
9.65194e-07
-4.61313e-06
-6.81331e-06
-1.90508e-06
-5.89074e-07
-4.77801e-06
-5.19768e-06
-3.09959e-06
-2.82208e-06
-4.40174e-06
-6.63811e-06
-7.48785e-06
-7.58805e-06
-7.39602e-06
-1.25965e-06
-1.81972e-06
-2.31428e-06
-2.87363e-06
-8.6149e-06
-5.39864e-06
-5.40946e-06
-9.11931e-06
-1.02596e-05
-1.03261e-05
-9.01196e-06
-8.03883e-06
-1.01549e-05
-1.17973e-05
-9.08426e-06
-9.93946e-06
-9.48636e-06
-7.17542e-06
-1.11592e-05
-7.51506e-06
-4.15307e-06
-4.51582e-06
-3.53977e-06
-6.11093e-06
-4.99366e-06
1.89946e-06
2.34138e-06
-3.96741e-06
-7.00537e-06
-2.45259e-06
1.56897e-07
-3.20692e-06
-5.0618e-06
-3.5409e-06
-2.87079e-06
-3.5818e-06
-4.77777e-06
-6.41625e-06
-6.87927e-06
-6.81041e-06
-2.34685e-06
-1.6766e-06
-2.54501e-06
-2.5159e-06
-7.85705e-06
-5.9473e-06
-4.09729e-06
-8.37099e-06
-9.47905e-06
-9.12945e-06
-8.64125e-06
-7.36985e-06
-8.7676e-06
-1.05937e-05
-8.33443e-06
-9.00277e-06
-9.11735e-06
-5.99777e-06
-9.58672e-06
-8.33141e-06
-4.2183e-06
-3.99426e-06
-2.95611e-06
-5.01582e-06
-6.15201e-06
-2.44295e-07
2.91254e-06
-2.68627e-06
-6.90609e-06
-3.24824e-06
1.86877e-07
-1.94892e-06
-4.53824e-06
-3.7176e-06
-2.92712e-06
-3.38034e-06
-3.62016e-06
-5.2399e-06
-6.39181e-06
-6.31376e-06
-3.23201e-06
-1.99302e-06
-2.75889e-06
-2.44254e-06
-6.76071e-06
-6.55041e-06
-3.58132e-06
-7.11841e-06
-8.88769e-06
-8.17023e-06
-8.09038e-06
-7.1189e-06
-7.5348e-06
-9.34239e-06
-7.63739e-06
-7.90736e-06
-8.82269e-06
-5.56044e-06
-7.70021e-06
-8.48075e-06
-4.73691e-06
-3.77891e-06
-2.83896e-06
-3.86631e-06
-6.20226e-06
-2.43805e-06
2.32216e-06
-1.32902e-06
-6.2738e-06
-4.05807e-06
-3.37687e-07
-1.17878e-06