/*--------------------------------*- C++ -*----------------------------------*\
  =========                 |
  \\      /  F ield         | OpenFOAM: The Open Source CFD Toolbox
   \\    /   O peration     | Website:  https://openfoam.org
    \\  /    A nd           | Version:  10
     \\/     M anipulation  |
\*---------------------------------------------------------------------------*/
FoamFile
{
    format      ascii;
    class       volScalarField;
    location    "32.5";
    object      pPrime2Mean;
}
// * * * * * * * * * * * * * * * * * * * * * * * * * * * * * * * * * * * * * //

dimensions      [0 4 -4 0 0 0 0];

internalField   nonuniform List<scalar> 
25600
(
0.000210995
0.00023309
0.000257482
0.0002307
0.000240711
0.000236003
0.000228198
0.000213465
0.000248617
0.000288406
0.000245083
0.000234191
0.000233177
0.000236192
0.00024181
0.000246405
0.000229518
0.000243421
0.000289059
0.00026166
0.000207475
0.000215445
0.000254346
0.000246474
0.000232955
0.000241058
0.000230079
0.000227438
0.000205175
0.000184181
0.000220678
0.000248752
0.000313569
0.000296716
0.000268377
0.000248806
0.000256942
0.000232805
0.000214821
0.000219782
0.00021002
0.000232959
0.000258621
0.000231462
0.000241305
0.000236388
0.000228715
0.000213709
0.00024872
0.000287848
0.000243423
0.000233737
0.000233162
0.000236148
0.000241147
0.000246675
0.000229751
0.000242809
0.000288331
0.000262455
0.000207362
0.000215002
0.000254915
0.000247717
0.000233506
0.000241007
0.000231037
0.000227849
0.000206058
0.000184754
0.000221769
0.000249463
0.000313672
0.000296765
0.000268877
0.000249432
0.000257392
0.000233462
0.00021487
0.000219077
0.000208315
0.000233069
0.000259393
0.000231597
0.000239941
0.000236277
0.000228775
0.000214757
0.00024837
0.000287202
0.000240404
0.000231382
0.000232269
0.000234154
0.000237678
0.000245394
0.000229346
0.000241072
0.000285092
0.000263423
0.000206906
0.000213426
0.00025399
0.000249492
0.000233782
0.000239557
0.000231123
0.000228594
0.000207898
0.000186169
0.000223343
0.00024923
0.000315322
0.000296692
0.000268352
0.000250975
0.000256713
0.000234946
0.000214515
0.000217277
0.000206687
0.0002341
0.000260839
0.000232752
0.000236708
0.000235781
0.000228739
0.000217348
0.000247916
0.000286815
0.000238268
0.000229027
0.000233325
0.000233233
0.000234359
0.000244396
0.00022987
0.000239725
0.000281311
0.000264748
0.000206673
0.000211621
0.000253433
0.000252342
0.00023405
0.000240219
0.00023146
0.000230673
0.000210809
0.000188266
0.000224474
0.000246855
0.000318327
0.000297832
0.000267034
0.000252502
0.000257441
0.000238076
0.000213804
0.000215922
0.000205046
0.000234908
0.000262389
0.000237032
0.000233038
0.000234331
0.000229982
0.00022272
0.000247045
0.000285785
0.000236703
0.000227006
0.000234531
0.00023366
0.000230677
0.000245394
0.000232608
0.000240668
0.00027787
0.000265424
0.000206464
0.000211251
0.00025423
0.000255877
0.000235919
0.000242309
0.000231907
0.000232331
0.00021416
0.000190501
0.000224932
0.000243756
0.000316533
0.000303707
0.000267065
0.000253207
0.000261077
0.000240012
0.000214279
0.000213504
0.000203242
0.000236279
0.000263552
0.000243815
0.000230746
0.000233174
0.000235686
0.000230516
0.000245347
0.000284903
0.000235874
0.000224644
0.000236879
0.00023538
0.00022657
0.000249763
0.000236656
0.000246392
0.000276966
0.00026603
0.00020627
0.000211695
0.000255782
0.000259463
0.000237263
0.00024391
0.00023145
0.000234146
0.00021824
0.000193489
0.000225758
0.000241076
0.000309741
0.000315447
0.000270028
0.000255626
0.00026234
0.000240542
0.000216786
0.000208731
0.000202088
0.000239205
0.000263424
0.000251345
0.000229554
0.000234283
0.000243696
0.000237922
0.000244038
0.000282493
0.000236315
0.00022171
0.000242419
0.000237387
0.000224645
0.000254702
0.00024198
0.000253878
0.000279933
0.000269713
0.00020444
0.000211282
0.000257929
0.000264642
0.000239048
0.000245965
0.00022977
0.000238058
0.000221372
0.000197239
0.000225821
0.000235984
0.000303309
0.000327141
0.000276354
0.000259211
0.000256323
0.000240501
0.000220098
0.000201284
0.000205168
0.000241694
0.000263147
0.000259156
0.000227828
0.000234962
0.000246541
0.000242447
0.000243945
0.000279059
0.000239047
0.000220894
0.000247868
0.00024126
0.000227688
0.000260214
0.00025595
0.000259448
0.000287059
0.000274263
0.000203485
0.000213631
0.000257641
0.000270467
0.000241433
0.000249172
0.000229099
0.000240659
0.000224247
0.000200135
0.000223017
0.000229731
0.000292113
0.000330809
0.000284086
0.000258729
0.000247931
0.000239032
0.000221446
0.000194816
0.00020888
0.000239077
0.000262604
0.000264811
0.000225196
0.000233828
0.000243142
0.000241814
0.00024575
0.000280344
0.000245329
0.000224762
0.000252558
0.000251062
0.000237764
0.000262529
0.000271078
0.000258653
0.00029304
0.000274896
0.000209529
0.000221786
0.00025587
0.000277065
0.000243186
0.000250623
0.000229483
0.000239207
0.000232348
0.000203037
0.000221478
0.00022676
0.000278276
0.000329443
0.000288661
0.000252917
0.000235857
0.000232828
0.000219853
0.000193429
0.000207346
0.000233344
0.000256838
0.000267871
0.000224374
0.000229568
0.000240968
0.000240946
0.000253758
0.000282195
0.000249084
0.000227126
0.000253319
0.000262761
0.000252304
0.00026186
0.000277356
0.000255458
0.000291671
0.000281383
0.000225364
0.00023083
0.000253704
0.000285139
0.000246554
0.000248845
0.00022776
0.000240763
0.00024199
0.000208638
0.000224395
0.000224928
0.000274837
0.000331766
0.000287796
0.000243894
0.000226204
0.000226998
0.000217009
0.000193296
0.000198621
0.000225799
0.000252778
0.000271702
0.000221866
0.000224083
0.000236349
0.00023699
0.000258114
0.000276165
0.000249913
0.000229144
0.000245874
0.000270216
0.000267596
0.00026397
0.000277108
0.000247926
0.000286799
0.000297194
0.000242382
0.000237995
0.000251937
0.000291406
0.000254108
0.000247448
0.000224902
0.000241632
0.000251721
0.000223087
0.000231129
0.000225828
0.000275607
0.000338559
0.000285441
0.000230652
0.000225284
0.000225118
0.000212331
0.000192671
0.000194723
0.000215334
0.000256213
0.000276033
0.000225623
0.000216023
0.000229302
0.000232049
0.000253911
0.000268979
0.000246708
0.000230525
0.000238714
0.00028004
0.000286247
0.000255975
0.000261166
0.000242129
0.000288253
0.000306149
0.00025634
0.000241331
0.000259301
0.000297444
0.000262687
0.000240801
0.000223372
0.000249888
0.000268734
0.000245106
0.000244732
0.000228277
0.000272855
0.000331549
0.000284686
0.000220614
0.000227262
0.000223129
0.000203638
0.000199067
0.000196806
0.000214878
0.000258804
0.000270846
0.000226952
0.000213574
0.000223821
0.00022326
0.000248334
0.000258583
0.000244053
0.000234993
0.000238854
0.00029169
0.000288343
0.000238104
0.000237761
0.000232098
0.000279661
0.00029824
0.000261502
0.000234289
0.000257623
0.000290915
0.000261637
0.000230816
0.000222124
0.000254667
0.000274765
0.000247365
0.000253246
0.000235664
0.000265235
0.000324082
0.000283832
0.000223809
0.000230023
0.000216029
0.000197264
0.000205761
0.000200753
0.000213307
0.000255706
0.00026336
0.000231881
0.000227365
0.000217894
0.000212022
0.000237366
0.000256856
0.000246153
0.000232555
0.000245816
0.000289944
0.000277018
0.000222099
0.00023223
0.00023345
0.000271267
0.000289473
0.000250826
0.000231204
0.000248783
0.000279952
0.000264033
0.00022614
0.000220728
0.000249369
0.000265749
0.000254692
0.000260312
0.00024045
0.000264568
0.000321968
0.000282986
0.000238297
0.000241984
0.000220594
0.00019211
0.000213708
0.00020275
0.000205513
0.000244662
0.000247369
0.000229998
0.000229265
0.000218254
0.000212148
0.000226125
0.000253047
0.00024596
0.000220306
0.000240163
0.000264065
0.000254737
0.000206394
0.000214945
0.000228892
0.00027198
0.000284499
0.00023627
0.000221035
0.000244042
0.000264798
0.00025877
0.000222098
0.0002114
0.000234546
0.000256933
0.000247627
0.000252734
0.000243131
0.000262339
0.00030718
0.000274478
0.000229792
0.000245282
0.000220643
0.000188077
0.000216437
0.000203548
0.000199366
0.000238885
0.00023308
0.000222985
0.000211461
0.000206655
0.000210906
0.000220282
0.000250798
0.000245404
0.000216686
0.00024083
0.000238861
0.000226605
0.000204731
0.000222269
0.000240148
0.000264914
0.000260828
0.000217957
0.000201676
0.000232648
0.000233905
0.000222859
0.000205342
0.000200964
0.000217501
0.000235209
0.000237808
0.000246529
0.000239109
0.000251828
0.000288322
0.000262087
0.00021235
0.000231863
0.000227647
0.000195532
0.000218053
0.00021253
0.000205736
0.000237225
0.000220975
0.000209928
0.000220881
0.000222924
0.000217892
0.000219213
0.000241398
0.000226959
0.000216411
0.000235121
0.000237379
0.000210872
0.000196487
0.000227403
0.00025217
0.000251553
0.000250892
0.000206665
0.000196167
0.000231885
0.000218292
0.000210719
0.0002054
0.000198999
0.000215699
0.000225889
0.000216547
0.000244035
0.000246266
0.000246496
0.000255365
0.000229725
0.000192407
0.000223833
0.000228801
0.000197691
0.000206305
0.000239646
0.000210949
0.000223479
0.000226018
0.000213976
0.000206653
0.000223018
0.000212977
0.000208348
0.000231537
0.000226193
0.000218223
0.000228589
0.000224408
0.000199921
0.000192547
0.0002318
0.000265503
0.000255928
0.000230112
0.000203687
0.000197733
0.000235637
0.000231223
0.000212722
0.000201098
0.000204552
0.000230019
0.000233596
0.000231689
0.000268484
0.000261643
0.000254283
0.00024402
0.000222922
0.000205234
0.00023702
0.000217157
0.000210482
0.000245314
0.000213559
0.000211292
0.000214547
0.000204711
0.000216022
0.00021223
0.000226225
0.000215464
0.000216436
0.00023268
0.000217093
0.000221886
0.000233733
0.000220123
0.000209469
0.000207636
0.000229882
0.000253175
0.000237161
0.000220212
0.000218373
0.000212691
0.000226742
0.000231404
0.000233599
0.000211717
0.000218092
0.000239718
0.000219896
0.000215542
0.000262856
0.000257336
0.000212495
0.000224158
0.000236721
0.000199185
0.000242313
0.000239212
0.000217213
0.000216008
0.000241751
0.000226974
0.000239724
0.00023521
0.000228558
0.000205524
0.000230757
0.000237605
0.000227459
0.00023406
0.000226145
0.000252852
0.000250828
0.000218895
0.000225725
0.000229627
0.000237369
0.00026578
0.000262866
0.000215797
0.000224062
0.000243912
0.000246167
0.000250102
0.000230279
0.0001921
0.000223335
0.000244512
0.000213021
0.000204886
0.00023969
0.000230164
0.000216503
0.000244571
0.000251737
0.000217016
0.000236836
0.000215912
0.000221807
0.000265493
0.000241991
0.000233758
0.000239053
0.000263953
0.00024708
0.000224914
0.000233032
0.000227796
0.000214582
0.000237759
0.000241451
0.000231986
0.000244611
0.000233131
0.000227671
0.000253284
0.000245723
0.000242767
0.000276863
0.000236151
0.000217996
0.00022945
0.000261848
0.000246064
0.000212961
0.000200643
0.000219798
0.000246247
0.000208016
0.000208794
0.000252674
0.000246794
0.000219113
0.000256961
0.000242071
0.000204773
0.000206496
0.000212312
0.000234167
0.000254634
0.000216741
0.000242095
0.000232495
0.000244813
0.000247144
0.000210485
0.000238986
0.000268822
0.000254914
0.000252056
0.00024624
0.000247015
0.000250236
0.000247669
0.00025047
0.000256247
0.000227261
0.000300833
0.000317948
0.000219478
0.000195848
0.000270025
0.000301408
0.000244741
0.000209329
0.000225744
0.000266252
0.000296589
0.000243859
0.000209597
0.000235965
0.000242478
0.00022877
0.000283982
0.000266116
0.000225027
0.000260074
0.000280644
0.000260027
0.000230684
0.000229942
0.000256369
0.00023616
0.000252178
0.000275371
0.000223284
0.000242224
0.000237233
0.000254902
0.000290793
0.00025031
0.000202307
0.000204109
0.000243079
0.00024275
0.000227076
0.000233399
0.000276301
0.000271255
0.000249588
0.000236466
0.00027496
0.000308119
0.000264117
0.000243592
0.00026957
0.00028846
0.00030775
0.00026932
0.000263487
0.000269243
0.000219837
0.000205434
0.000268996
0.000277778
0.00023546
0.000240897
0.000236906
0.000258008
0.000238744
0.000271907
0.000241892
0.000242622
0.000269668
0.000291641
0.000230013
0.000215386
0.000248222
0.000299988
0.000298273
0.00023592
0.000205065
0.000230808
0.000272394
0.000296595
0.000243486
0.000229235
0.000240445
0.000253331
0.000221094
0.000241483
0.000276735
0.000269018
0.000278122
0.00028065
0.000281937
0.000293017
0.000301574
0.00025943
0.000278827
0.000291633
0.000244048
0.000240644
0.000286998
0.000294717
0.000231149
0.000205955
0.000241441
0.0002822
0.000293797
0.000263123
0.000232182
0.000241738
0.000275461
0.000309327
0.000279612
0.000216208
0.000238942
0.000318523
0.000336831
0.000272875
0.000238632
0.000265869
0.000288018
0.000282162
0.000261394
0.00022785
0.000235906
0.000265458
0.000272186
0.000265282
0.000251115
0.000286268
0.000281288
0.000263605
0.000272666
0.000269564
0.00032298
0.000316761
0.000308757
0.00030061
0.000242083
0.000262325
0.000346366
0.000331892
0.000264547
0.000229084
0.000254942
0.000319285
0.000340983
0.000265401
0.000239448
0.000283899
0.000329576
0.000327139
0.000241652
0.000203548
0.00026895
0.000316813
0.000297924
0.000228548
0.000197326
0.000259645
0.000255165
0.000299383
0.000277799
0.000192926
0.000304475
0.000351241
0.000266899
0.000233805
0.000345625
0.000362254
0.000285975
0.000337293
0.000337729
0.000297613
0.000307181
0.000322775
0.000314084
0.000293537
0.000233153
0.000288462
0.00034715
0.000290781
0.000240302
0.000232238
0.000248413
0.000283274
0.000313486
0.000262548
0.000299114
0.000336986
0.00038161
0.000370607
0.00028435
0.000255462
0.000305303
0.000336483
0.000340235
0.000273904
0.000284135
0.000360013
0.00037021
0.000297714
0.000199617
0.000283083
0.000370505
0.000292049
0.000267036
0.000309792
0.000340147
0.0002976
0.000314395
0.000367111
0.000301646
0.00026937
0.000327853
0.000355408
0.00027732
0.000276195
0.000295066
0.000292464
0.000333142
0.000305752
0.000273754
0.000252402
0.000289529
0.000336215
0.000299733
0.000294557
0.000308812
0.000379056
0.000455995
0.000462206
0.000340339
0.000282521
0.0004378
0.00049733
0.000422975
0.000330822
0.000345944
0.000379297
0.000384623
0.000284997
0.000232474
0.00033957
0.000388824
0.000356983
0.000293728
0.000262228
0.000359192
0.000355294
0.000314516
0.000323234
0.000334012
0.000350393
0.000373345
0.000369128
0.000354092
0.00034635
0.000360164
0.000357389
0.000358949
0.000316635
0.000328539
0.000367892
0.000362448
0.00034798
0.000322911
0.000434477
0.000486774
0.000487022
0.000458724
0.00044789
0.000392116
0.000376249
0.000378239
0.000406117
0.000382206
0.000365195
0.000365888
0.000380497
0.000385182
0.000341425
0.00038816
0.000419091
0.000384921
0.000390474
0.000363828
0.000359462
0.000339512
0.000274871
0.000294954
0.000365016
0.000374386
0.000326518
0.000362487
0.000362632
0.000370971
0.00038237
0.000336716
0.000313913
0.000323679
0.000387233
0.000442459
0.000429993
0.000394706
0.000362776
0.000381589
0.000503121
0.000405386
0.000367519
0.000414865
0.000435912
0.00044592
0.000419523
0.000383454
0.000411378
0.000388131
0.000416907
0.000375646
0.000393353
0.000429499
0.000426315
0.000432631
0.000432309
0.000404046
0.000406732
0.00042445
0.000418468
0.000378062
0.00042761
0.000510537
0.000503904
0.000439965
0.000406524
0.000382296
0.000395153
0.000442735
0.00040611
0.000318442
0.000413185
0.000553455
0.000525019
0.000410594
0.000332971
0.000367456
0.000454435
0.000522825
0.000741149
0.000717917
0.000680773
0.000783772
0.000824978
0.000811742
0.000700309
0.000582147
0.000587734
0.000594514
0.000552575
0.000549406
0.000642626
0.000593119
0.000556281
0.00062993
0.000696838
0.000563902
0.000523042
0.000662233
0.000711577
0.000701828
0.000678671
0.000692813
0.000656039
0.000635284
0.000777418
0.000785113
0.000693253
0.000649559
0.000600525
0.000502237
0.000541643
0.000607875
0.00063522
0.000650534
0.000730899
0.000747651
0.000649585
0.000633488
0.000789906
0.000943675
0.00103819
0.00104048
0.00112026
0.00115036
0.00107203
0.000940898
0.00086373
0.000753397
0.000758938
0.000860064
0.000896408
0.000850892
0.000853577
0.000953888
0.00104344
0.00100818
0.000984909
0.000886195
0.000797185
0.000891343
0.000992224
0.00095072
0.000977719
0.00107309
0.00108757
0.000970139
0.000970863
0.00094978
0.000948199
0.000927079
0.000926044
0.000930963
0.000982752
0.000881597
0.000974655
0.00109642
0.00105017
0.000855549
0.000225784
0.00021552
0.000241877
0.000243899
0.000222721
0.000211077
0.000241581
0.00024082
0.000232892
0.000286074
0.000250365
0.000207766
0.000196177
0.00020642
0.000225058
0.000241006
0.000233357
0.000238113
0.000259018
0.000260109
0.00024768
0.00023772
0.000268943
0.000265818
0.000236166
0.000240977
0.00022092
0.00023828
0.000222101
0.000198812
0.000236098
0.000228778
0.000240134
0.000287092
0.00028832
0.000271605
0.000296884
0.000243251
0.000216593
0.000233026
0.000226058
0.000215451
0.000241889
0.000244539
0.000222946
0.000210819
0.000241623
0.000241099
0.000232993
0.000286169
0.000250276
0.00020771
0.000196445
0.000206718
0.000225133
0.000241192
0.00023383
0.000238529
0.000258812
0.000259733
0.000247492
0.000237447
0.000269075
0.000266165
0.000236497
0.000241126
0.000221109
0.000238954
0.000222576
0.000198746
0.000235964
0.000228909
0.000239801
0.000286514
0.000287556
0.000270904
0.000296968
0.00024359
0.000216797
0.000233453
0.000226355
0.000215942
0.000242486
0.000245692
0.00022389
0.00021089
0.000242367
0.000242083
0.000232685
0.000285563
0.000249772
0.000206748
0.000196517
0.000206586
0.000224779
0.000241422
0.00023491
0.000239282
0.0002597
0.000259918
0.000246887
0.000236904
0.000268141
0.000266247
0.000236375
0.000241689
0.000221969
0.000240154
0.000224235
0.000199101
0.000236106
0.000229369
0.00024026
0.0002858
0.00028572
0.000269319
0.000296722
0.000244314
0.000218047
0.00023428
0.000227389
0.000217414
0.000243712
0.000247559
0.000224243
0.00021121
0.000243624
0.00024416
0.000232099
0.000285014
0.00025007
0.000206116
0.00019767
0.000206177
0.000224313
0.000241942
0.000236937
0.000241856
0.000261746
0.000260933
0.000246481
0.000236978
0.000267343
0.00026651
0.000236173
0.000242812
0.000223976
0.000242574
0.000226957
0.000200851
0.000236801
0.000230166
0.000242274
0.000285651
0.0002836
0.000267617
0.000297152
0.000246563
0.000221019
0.000237148
0.00022849
0.000219416
0.000245596
0.000250031
0.000224307
0.000211463
0.000244641
0.000246719
0.000231769
0.000283597
0.000250816
0.000205939
0.000199083
0.000205707
0.00022467
0.000242636
0.000239344
0.000243732
0.000264569
0.000261959
0.000245602
0.000238413
0.000268102
0.000267394
0.000236175
0.000245628
0.000227005
0.000244931
0.000229744
0.000203591
0.000238447
0.000231741
0.000244198
0.00028514
0.000282236
0.000267484
0.000297578
0.000250519
0.000225612
0.000241557
0.000229574
0.000220442
0.000247341
0.000252729
0.000225486
0.000213085
0.000246221
0.000249505
0.000232276
0.000282098
0.000252387
0.000204926
0.000199169
0.000204717
0.000224407
0.000242862
0.000242483
0.00024538
0.000265855
0.000262139
0.000244618
0.000241322
0.000269684
0.000267466
0.000236759
0.000249583
0.000230714
0.000247256
0.000233652
0.000207969
0.000241801
0.000234284
0.00024534
0.000285746
0.000281543
0.000268635
0.000297386
0.00025537
0.000231377
0.000246863
0.000231663
0.000220747
0.000248578
0.000255638
0.000227508
0.000216142
0.000249531
0.000252529
0.000231875
0.000279832
0.0002552
0.00020279
0.000197905
0.000203975
0.00022325
0.000241198
0.000247341
0.000247271
0.000264575
0.000261163
0.000244048
0.000245816
0.000271874
0.000267196
0.000237992
0.000252145
0.000234331
0.000250685
0.000236873
0.000214386
0.000244854
0.000235718
0.000245291
0.000285652
0.000281121
0.000268881
0.000294122
0.000258032
0.00023647
0.000250365
0.000234244
0.00022055
0.000250226
0.000258783
0.000225884
0.000219626
0.000251328
0.000253456
0.000229941
0.000275543
0.000257729
0.000200909
0.000196261
0.00020409
0.000221865
0.000239268
0.000253588
0.000248913
0.000260585
0.000258746
0.000241777
0.000250825
0.000274851
0.000267971
0.000240924
0.000252556
0.000238493
0.000252598
0.000236069
0.000221185
0.000246297
0.00023755
0.000245436
0.000283722
0.000280111
0.000265947
0.000286321
0.000257808
0.000239199
0.000249624
0.000235533
0.000219516
0.000250081
0.000260303
0.000223449
0.000221571
0.000246455
0.000248945
0.000227138
0.000270319
0.000259053
0.000199579
0.000194996
0.00020466
0.000220442
0.000238527
0.000260372
0.000248444
0.000253239
0.000253096
0.00024001
0.000254141
0.000277369
0.000270229
0.000244638
0.00025215
0.000240883
0.000250505
0.000232991
0.000227342
0.000245243
0.000242222
0.000246624
0.000280028
0.000275949
0.000258747
0.000275173
0.000253115
0.000238936
0.000247366
0.000232134
0.000218465
0.000249708
0.00025665
0.000218266
0.000216639
0.00023909
0.000244836
0.000224296
0.000265522
0.000257477
0.000197051
0.000193187
0.000207101
0.000217695
0.00023495
0.000261979
0.000243956
0.000239033
0.000244908
0.000236796
0.000247517
0.000274131
0.000273515
0.000249662
0.000250819
0.000239151
0.0002453
0.000227117
0.000229944
0.000240302
0.000247889
0.000249265
0.000273502
0.000267167
0.000248733
0.000263694
0.000245542
0.000236741
0.00024485
0.000229817
0.000220808
0.000248212
0.000249794
0.000210543
0.000210066
0.000232121
0.000244828
0.000228256
0.000261331
0.000254214
0.000195051
0.000193881
0.000210536
0.000214573
0.000229179
0.000251202
0.000237758
0.00022709
0.00024089
0.000234669
0.000232685
0.000266033
0.000272136
0.000249264
0.000244365
0.000232706
0.00023744
0.000224258
0.000230723
0.000231214
0.00024814
0.000249818
0.000263849
0.000259876
0.000239886
0.000249681
0.000238672
0.000235293
0.000242999
0.00022691
0.000220025
0.000244897
0.000246672
0.000208896
0.000200131
0.000223876
0.000242392
0.000235302
0.000263657
0.000253924
0.000200151
0.000193071
0.000212795
0.000212522
0.000214848
0.000231996
0.000223794
0.000217663
0.000243375
0.00022815
0.000221765
0.000261661
0.000265659
0.000241171
0.000228085
0.000221311
0.000235155
0.000226274
0.000226571
0.000220572
0.000245655
0.000246531
0.000254346
0.00025533
0.000234206
0.000238681
0.000227474
0.000232842
0.000241732
0.000230778
0.000218424
0.000235588
0.000230624
0.000206238
0.000197125
0.000217309
0.000225999
0.000238821
0.000261675
0.000249145
0.000204398
0.000190423
0.000215994
0.000209415
0.000202012
0.000227405
0.000216252
0.00021027
0.000250928
0.000228318
0.000202416
0.00023835
0.000253192
0.000230787
0.000210926
0.000208756
0.000232713
0.000226786
0.000217328
0.000212926
0.000241646
0.000241905
0.000257549
0.000245783
0.000229514
0.000235251
0.000220796
0.000223516
0.000239796
0.000226338
0.000216562
0.000225142
0.000214976
0.00019662
0.00020224
0.00021609
0.000223339
0.000241896
0.000253799
0.000241508
0.00020382
0.000195153
0.000215438
0.000204526
0.000193699
0.000221288
0.000223159
0.00021018
0.000253027
0.000223963
0.000188019
0.000225576
0.000247144
0.000226494
0.00020741
0.000205177
0.000228907
0.000221655
0.000199283
0.000197853
0.000234067
0.000253273
0.00027161
0.000234427
0.000223928
0.000228311
0.000212372
0.000207441
0.0002311
0.000226711
0.000218325
0.000226652
0.000214908
0.000192012
0.000205723
0.000207484
0.000224059
0.000237391
0.000252921
0.000240265
0.000200481
0.000209711
0.000219651
0.000197303
0.000187145
0.000220043
0.000232782
0.000212088
0.00023625
0.000205997
0.000184703
0.000224689
0.000246965
0.000229117
0.000207185
0.000202589
0.000223435
0.000210768
0.000181057
0.00018394
0.000216918
0.000247071
0.000265343
0.000220266
0.00021644
0.000220899
0.00021112
0.000202135
0.000221909
0.000218625
0.000219467
0.000234445
0.000213896
0.00018733
0.000205593
0.000210785
0.000217209
0.000236754
0.000253984
0.000235668
0.000198511
0.000209721
0.000212116
0.000191191
0.000195263
0.000226755
0.000240876
0.000219428
0.000235568
0.000202228
0.000187405
0.000223906
0.000228893
0.000218649
0.00020124
0.000204949
0.000218909
0.0002019
0.000179219
0.000188191
0.000207478
0.000225571
0.000235677
0.000206891
0.000194392
0.000213972
0.000220241
0.000206087
0.000211673
0.000211205
0.000209588
0.00022115
0.000202699
0.000180464
0.000195659
0.000211406
0.000205498
0.000229462
0.000242888
0.000223841
0.000196673
0.000215532
0.000210031
0.000182519
0.000184149
0.000218122
0.000228476
0.000218028
0.000218635
0.000190542
0.000179521
0.000214388
0.000202791
0.000188358
0.000196855
0.000199969
0.000195011
0.0001882
0.000178175
0.000189719
0.000218061
0.000221278
0.000216668
0.000202814
0.000212247
0.000225963
0.000215857
0.00020289
0.000205427
0.000203277
0.000192725
0.000195426
0.000193186
0.00018318
0.000182781
0.000190431
0.000192338
0.000214935
0.000223043
0.000194403
0.000175039
0.000201433
0.000205791
0.000181311
0.000179488
0.000201553
0.000213771
0.00021079
0.00021407
0.000183582
0.000173619
0.000209259
0.000205872
0.000189888
0.000176341
0.000179021
0.000189319
0.000182436
0.000175064
0.000197707
0.000223663
0.000215241
0.00020647
0.000193556
0.000203285
0.000224956
0.000196617
0.000179058
0.000199081
0.000199127
0.000189065
0.000194191
0.000191677
0.000175916
0.000175302
0.000185924
0.000177058
0.000201607
0.000218322
0.000189866
0.000166777
0.000196087
0.000211727
0.000187841
0.000172433
0.000184239
0.000197295
0.000202527
0.00020483
0.000181371
0.000189131
0.000206554
0.000193019
0.000176498
0.000170019
0.000185348
0.000199147
0.000182489
0.000166748
0.000188171
0.000214616
0.0002098
0.000198218
0.000187748
0.000195012
0.000217985
0.000186679
0.000183189
0.000202447
0.000203789
0.000186274
0.000185616
0.00019776
0.000179695
0.000171395
0.000175027
0.000164908
0.000188738
0.000208433
0.000184725
0.000167337
0.000185165
0.000207234
0.000186257
0.000177949
0.000189946
0.000190516
0.000195659
0.000197456
0.000183889
0.000195802
0.00019975
0.0001817
0.000179852
0.000162514
0.000190067
0.000209541
0.000177128
0.000168528
0.000189136
0.000193823
0.000202586
0.000204324
0.00019581
0.000190219
0.000205763
0.000183553
0.000179892
0.000198965
0.000192177
0.000175821
0.000186812
0.000205922
0.000193538
0.000181967
0.000181798
0.000178998
0.000188584
0.000204472
0.000198381
0.000163088
0.000167707
0.000198874
0.000190392
0.000183192
0.000204455
0.000216376
0.000199714
0.00019172
0.000190632
0.000224671
0.000221892
0.000186039
0.000182641
0.000183318
0.00020248
0.000206962
0.000190529
0.000175165
0.000193134
0.00020398
0.000196614
0.000195478
0.000191194
0.000186178
0.000193568
0.000184987
0.00018193
0.000184129
0.00017973
0.000192659
0.000188567
0.000197856
0.000202762
0.000193063
0.000179369
0.000171787
0.000176604
0.000210785
0.000205931
0.000179638
0.000186693
0.000202828
0.000184538
0.00021525
0.000223035
0.000216071
0.000217456
0.000193292
0.000179969
0.000219219
0.000234677
0.000216304
0.000197875
0.000174401
0.000209228
0.000208514
0.000193446
0.000183779
0.000184617
0.000194075
0.000198537
0.000199227
0.000204211
0.000187261
0.000174561
0.000187562
0.000188573
0.000176156
0.000186231
0.00020509
0.000205079
0.00020484
0.000220138
0.000187564
0.000185868
0.000198588
0.000186835
0.000223708
0.000215563
0.000195534
0.000191013
0.000212407
0.000207225
0.000183623
0.000204086
0.000227854
0.000220686
0.000203659
0.000178779
0.000204005
0.000232112
0.000212872
0.000198609
0.000197639
0.000211121
0.000222749
0.000203132
0.00019737
0.000186273
0.000186901
0.000199122
0.000211437
0.000221421
0.000186154
0.000181603
0.000202941
0.000212006
0.000198012
0.000207408
0.000192539
0.000161707
0.000172313
0.000213051
0.000196496
0.000197628
0.000174371
0.000180635
0.000214958
0.000210518
0.000200908
0.000192695
0.000204183
0.000222383
0.000224252
0.000216253
0.000211304
0.000221492
0.000208672
0.000205294
0.000202481
0.000208923
0.000208463
0.000194573
0.000196889
0.000209538
0.000199922
0.000213977
0.000213763
0.000195321
0.000208533
0.000194051
0.000196232
0.000202653
0.000176305
0.000191767
0.000206028
0.000203004
0.000193445
0.000182865
0.00014558
0.000157682
0.000173154
0.000198661
0.000202454
0.000194233
0.000170121
0.000166212
0.00020275
0.000202889
0.000191017
0.000189397
0.000215034
0.000214881
0.000188891
0.000191367
0.000207164
0.000201317
0.000190283
0.000184102
0.000183016
0.000194934
0.000183856
0.000206841
0.000218789
0.000205079
0.000202797
0.000235721
0.000224891
0.000204955
0.000207535
0.000199028
0.000211704
0.000224581
0.00020639
0.000206367
0.00020562
0.000207126
0.000206568
0.000211605
0.000179058
0.000192732
0.000217139
0.000229007
0.000216824
0.000199401
0.000218195
0.000214365
0.000224554
0.000211255
0.000208769
0.000210781
0.000212494
0.000186818
0.000194487
0.000213165
0.000200148
0.000195229
0.00020363
0.000194583
0.000208246
0.000200068
0.000211064
0.000260175
0.000238919
0.000210015
0.000232993
0.000256496
0.0002267
0.000212326
0.000222646
0.000215819
0.000234227
0.000223871
0.000198993
0.000201121
0.000199872
0.000243035
0.000244923
0.000230645
0.00021561
0.000248538
0.000276597
0.000229003
0.000219625
0.000248993
0.000275505
0.000246656
0.000244225
0.000272149
0.000272745
0.000252695
0.000254716
0.000234924
0.000211913
0.000238028
0.000277412
0.000291446
0.000259672
0.000204909
0.000225369
0.000245459
0.000301757
0.00029045
0.000236777
0.000254704
0.00028309
0.000268276
0.000260499
0.000241563
0.000247106
0.000269362
0.000271783
0.000244026
0.000220067
0.000230724
0.00026338
0.000281174
0.000245988
0.000272521
0.000202704
0.000208297
0.000258738
0.000326405
0.000290768
0.00022083
0.000251104
0.000271768
0.000312121
0.000307713
0.000268771
0.00027936
0.000274003
0.000258341
0.000257488
0.00027474
0.000299368
0.000279571
0.000243257
0.000254033
0.000246949
0.000253624
0.000264933
0.00023987
0.000278386
0.000302792
0.000253294
0.000259061
0.000280076
0.000240304
0.000244684
0.000294195
0.000298456
0.000281264
0.000235237
0.00024358
0.000264186
0.000267878
0.00028718
0.000237738
0.000311233
0.000311788
0.000313444
0.000341094
0.000364159
0.000383675
0.00033408
0.000313447
0.000300308
0.000319374
0.000350467
0.000316127
0.000310814
0.000326893
0.000294373
0.000295557
0.000326985
0.000338654
0.000268755
0.000265436
0.000322124
0.00034316
0.000286219
0.000281747
0.000328545
0.000367695
0.000341313
0.000312904
0.000276702
0.000316865
0.000337089
0.000300274
0.000270309
0.00026852
0.000336853
0.000339245
0.000326845
0.000348291
0.000297261
0.000381669
0.000372862
0.000304321
0.00032286
0.000356058
0.000408088
0.000397297
0.000360809
0.000376293
0.000356553
0.00037071
0.000372593
0.000348239
0.000394023
0.000393596
0.000348441
0.000326032
0.00032153
0.000343351
0.000323428
0.000324384
0.000392426
0.000399187
0.000443686
0.000448568