/*--------------------------------*- C++ -*----------------------------------*\
  =========                 |
  \\      /  F ield         | OpenFOAM: The Open Source CFD Toolbox
   \\    /   O peration     | Website:  https://openfoam.org
    \\  /    A nd           | Version:  10
     \\/     M anipulation  |
\*---------------------------------------------------------------------------*/
FoamFile
{
    format      ascii;
    class       volSymmTensorField;
    location    "7.5";
    object      UPrime2Mean;
}
// * * * * * * * * * * * * * * * * * * * * * * * * * * * * * * * * * * * * * //

dimensions      [0 2 -2 0 0 0 0];

internalField   nonuniform List<symmTensor> 
25600
(
(0.000337907 -6.76808e-09 -3.33106e-06 2.55304e-11 -1.54006e-09 1.35393e-06)
(0.000334996 -2.60476e-08 9.73471e-06 3.90162e-11 -5.52098e-10 1.8107e-06)
(0.000333529 4.49491e-08 1.09659e-05 7.63518e-11 -6.81069e-10 1.62983e-06)
(0.000332917 4.02815e-08 -4.16441e-06 4.39008e-11 -1.69735e-09 1.35167e-06)
(0.000336766 -5.65191e-08 -1.11143e-05 4.8688e-11 1.37698e-09 1.55338e-06)
(0.000335006 -4.3569e-08 -3.57758e-06 5.59638e-11 1.60989e-09 1.04828e-06)
(0.000334489 2.34646e-08 9.81898e-06 5.79477e-11 2.76193e-09 1.57094e-06)
(0.000332219 4.60258e-08 1.12657e-05 6.24099e-11 2.57253e-09 1.70037e-06)
(0.000339383 -2.07477e-08 -4.31919e-06 3.11786e-11 7.22902e-10 1.75327e-06)
(0.000335572 2.34502e-09 -1.483e-05 2.29408e-11 -3.50756e-10 2.33492e-06)
(0.000344013 -5.80723e-09 -2.51706e-06 1.91877e-11 8.28054e-10 1.2839e-06)
(0.000334198 -2.32733e-08 1.2146e-05 4.13173e-11 -4.08917e-10 1.84261e-06)
(0.000336078 -2.83462e-08 1.03436e-05 1.73951e-11 -1.59901e-09 1.3643e-06)
(0.000332217 -1.22497e-08 -3.99149e-06 1.13034e-11 6.72134e-10 1.28802e-06)
(0.000336893 -5.3962e-10 -1.27235e-05 2.04412e-11 -5.78263e-10 1.8421e-06)
(0.000336053 -5.02226e-09 -4.61993e-06 2.28355e-11 -2.01103e-09 1.35961e-06)
(0.000335708 1.80261e-09 1.11067e-05 2.15185e-11 -2.07759e-09 1.8478e-06)
(0.000335158 1.33972e-08 1.09806e-05 2.47195e-11 -9.96759e-10 1.53715e-06)
(0.000337408 -3.8903e-08 -5.21368e-06 3.22322e-11 1.06585e-09 1.4184e-06)
(0.000334782 -2.42441e-08 -1.2498e-05 2.75288e-11 4.43451e-10 1.81185e-06)
(0.000338041 7.37787e-09 -3.90652e-06 3.55232e-11 3.29896e-09 1.21641e-06)
(0.000331306 9.85561e-09 1.12241e-05 4.82121e-11 3.33942e-09 1.76154e-06)
(0.000336664 -1.97193e-08 1.0262e-05 6.50369e-11 3.54837e-09 1.43062e-06)
(0.000330573 -2.61797e-08 -1.24388e-06 7.0683e-11 2.78636e-09 1.13857e-06)
(0.000337869 -6.06354e-09 -1.29228e-05 6.90433e-11 6.70455e-10 1.82247e-06)
(0.000335359 -2.29533e-10 -3.59741e-06 8.93515e-11 -2.85044e-09 1.16345e-06)
(0.000334064 -1.27329e-08 1.03617e-05 6.36615e-11 -3.62476e-09 1.77568e-06)
(0.00033049 -4.95407e-08 1.13175e-05 6.05077e-11 -3.30802e-09 1.7106e-06)
(0.000333368 -1.15353e-08 -3.60222e-06 4.24573e-11 -2.88029e-10 1.57698e-06)
(0.000337001 1.55225e-08 -1.35216e-05 3.88913e-11 -1.72411e-09 2.21886e-06)
(0.000335969 -2.17119e-08 -4.88824e-06 2.84183e-11 -7.99224e-10 1.44747e-06)
(0.000335084 4.02998e-08 1.1665e-05 3.45072e-11 2.31525e-09 1.83244e-06)
(0.000330362 4.16551e-09 9.55892e-06 2.7582e-11 2.85342e-10 1.40824e-06)
(0.000332383 -4.25876e-09 -2.14489e-06 3.5722e-11 9.91458e-10 1.36121e-06)
(0.000333834 2.40138e-08 -1.39562e-05 3.03571e-11 -1.74402e-09 1.97508e-06)
(0.000341501 1.54386e-08 -1.95176e-06 2.44995e-11 -5.09374e-10 1.15148e-06)
(0.000335504 -6.82601e-08 1.03618e-05 4.39491e-11 -2.44507e-09 1.74817e-06)
(0.000331348 -2.11673e-08 1.09084e-05 2.32189e-11 6.571e-10 1.55461e-06)
(0.000337108 -1.97178e-08 -5.72309e-06 2.42899e-11 2.20943e-09 1.4159e-06)
(0.0003326 -1.29809e-08 -1.21659e-05 2.08381e-11 6.03137e-10 1.8004e-06)
(0.00299909 -4.63817e-07 -3.01787e-05 2.31927e-10 4.93779e-09 1.2409e-05)
(0.00296179 1.25327e-06 8.93125e-05 1.19377e-09 1.00608e-07 1.63033e-05)
(0.00295205 -4.38344e-08 0.000102809 3.17074e-10 3.28441e-08 1.49213e-05)
(0.00295393 -1.84647e-07 -4.16543e-05 2.99274e-10 2.48299e-08 1.26683e-05)
(0.00299073 -1.09403e-06 -0.000107369 8.58225e-10 7.04205e-08 1.45336e-05)
(0.00297081 -1.74491e-09 -3.45e-05 9.94014e-10 3.72782e-08 9.86151e-06)
(0.00296487 6.3908e-07 9.32191e-05 1.52219e-09 6.2397e-08 1.45664e-05)
(0.00294437 2.03681e-07 0.000106125 8.47235e-10 1.95271e-08 1.57533e-05)
(0.00301275 -1.04756e-06 -4.31479e-05 7.47364e-10 2.52382e-08 1.61067e-05)
(0.0029748 -3.86454e-07 -0.00014121 3.22122e-10 4.35074e-08 2.14045e-05)
(0.00305735 -5.48275e-07 -2.369e-05 4.92703e-10 3.16028e-08 1.17425e-05)
(0.00296177 1.17924e-06 0.000114159 1.27157e-09 8.01411e-08 1.67712e-05)
(0.0029803 -2.70545e-07 9.57533e-05 2.25282e-10 4.51283e-09 1.24214e-05)
(0.00294335 4.79077e-07 -3.90691e-05 5.24653e-10 2.72298e-08 1.18837e-05)
(0.00298709 -8.8481e-07 -0.000121213 6.94819e-10 7.75472e-08 1.6913e-05)
(0.00298098 -3.83573e-07 -4.31478e-05 6.5948e-10 -2.00643e-08 1.23152e-05)
(0.00297285 -4.82405e-07 0.000105508 2.56871e-10 -2.58875e-08 1.67888e-05)
(0.00297029 -1.66587e-07 0.000103233 2.184e-10 9.32387e-09 1.41176e-05)
(0.00299056 -1.0681e-06 -4.9013e-05 1.18029e-09 4.82827e-08 1.31053e-05)
(0.00296534 -3.21938e-07 -0.000119009 6.42648e-10 3.99633e-08 1.67265e-05)
(0.00299426 -7.46454e-07 -3.75891e-05 9.85905e-10 7.6372e-08 1.1135e-05)
(0.0029388 4.98499e-07 0.000105912 1.396e-09 8.74378e-08 1.60624e-05)
(0.00298299 4.00743e-07 9.48267e-05 1.26752e-09 6.90639e-08 1.28223e-05)
(0.00292912 -4.70927e-07 -1.00815e-05 1.26954e-09 4.39005e-08 1.02305e-05)
(0.00299234 -1.09002e-06 -0.000122493 1.12277e-09 3.76738e-08 1.66403e-05)
(0.00297396 1.0491e-06 -3.45769e-05 1.45082e-09 -6.20044e-08 1.07425e-05)
(0.00295103 4.38365e-07 9.58442e-05 7.37362e-10 -3.60845e-08 1.6178e-05)
(0.00293594 -9.57314e-07 0.000106635 1.22103e-09 -6.39765e-08 1.57092e-05)
(0.00295018 -4.2067e-08 -3.55485e-05 6.35763e-10 -1.53623e-11 1.42488e-05)
(0.00299098 -4.01405e-07 -0.000129027 9.87802e-10 -7.0271e-09 2.01726e-05)
(0.00297516 -3.25959e-09 -4.68284e-05 2.9267e-10 -5.41498e-09 1.33232e-05)
(0.00296648 5.68079e-07 0.000106932 6.68732e-10 6.13907e-08 1.67001e-05)
(0.00292881 2.7881e-07 8.99184e-05 3.27715e-10 2.3191e-08 1.30289e-05)
(0.00294775 -7.98458e-07 -2.09908e-05 8.61323e-10 3.82564e-08 1.25068e-05)
(0.00296539 -7.23352e-07 -0.000133797 6.52829e-10 6.05284e-08 1.82664e-05)
(0.00303094 -1.134e-07 -1.72447e-05 6.28189e-10 3.43672e-08 1.05491e-05)
(0.00297869 8.55271e-07 9.75184e-05 8.92295e-10 8.1595e-08 1.60452e-05)
(0.0029388 -2.12357e-07 0.000103158 7.57012e-10 3.45574e-08 1.44583e-05)
(0.0029815 -1.56877e-07 -5.29027e-05 6.07946e-10 4.06137e-08 1.29701e-05)
(0.00295029 -5.49134e-07 -0.000115111 3.60242e-10 4.48881e-08 1.65778e-05)
(0.00836434 -2.48957e-06 -8.90792e-05 1.58303e-09 7.45652e-09 3.62002e-05)
(0.00828079 4.10862e-06 0.000298253 6.09667e-09 4.52524e-07 5.20426e-05)
(0.00827588 -5.96971e-07 0.000300787 1.59843e-09 1.31866e-07 4.32343e-05)
(0.00825168 1.24414e-06 -0.000107647 1.83096e-09 -2.53372e-08 3.6935e-05)
(0.00835947 -4.81245e-06 -0.000321137 5.28343e-09 2.73235e-07 4.36725e-05)
(0.00830025 2.62986e-07 -0.000102907 4.61104e-09 8.9444e-08 2.95632e-05)
(0.00825365 7.24756e-07 0.000275292 6.68659e-09 8.69993e-08 4.46566e-05)
(0.00824632 2.30785e-07 0.00031188 3.88528e-09 -2.37301e-08 4.6111e-05)
(0.0083991 -3.56825e-06 -0.000145665 3.71839e-09 -4.54551e-08 5.08237e-05)
(0.00832057 -9.83515e-07 -0.000434512 1.94161e-09 1.20537e-07 6.44131e-05)
(0.00855864 -3.73174e-06 -5.38198e-05 3.50207e-09 6.86223e-08 3.58795e-05)
(0.00827547 5.55421e-06 0.000335953 8.02089e-09 3.16002e-07 5.09212e-05)
(0.00835094 -9.84491e-07 0.000274068 1.72983e-09 1.71225e-08 3.55275e-05)
(0.00821173 1.56965e-06 -0.000116799 3.60688e-09 1.90797e-07 3.64289e-05)
(0.00835705 -4.22952e-06 -0.000372187 5.05673e-09 3.7392e-07 5.08877e-05)
(0.00833824 -1.8427e-06 -0.000115758 4.13767e-09 -1.34648e-07 3.65239e-05)
(0.00832377 -4.05602e-06 0.000321043 3.94785e-09 -2.68021e-07 5.18773e-05)
(0.00833254 -9.00663e-07 0.000302011 1.14953e-09 3.33457e-08 4.08763e-05)
(0.0083577 -3.51396e-06 -0.000160398 6.59177e-09 1.02378e-07 4.21421e-05)
(0.00830508 1.33422e-07 -0.000369931 4.85205e-09 6.60843e-08 5.09163e-05)
(0.00840948 -3.03212e-06 -8.92239e-05 5.1473e-09 3.00658e-07 3.39839e-05)
(0.00818188 6.08768e-07 0.000290634 8.07091e-09 1.9142e-07 4.6176e-05)
(0.00839412 1.71497e-06 0.00027229 6.13e-09 1.98354e-07 3.64997e-05)
(0.00815538 -1.411e-06 -3.70047e-05 6.59671e-09 1.01321e-07 3.06147e-05)
(0.00839104 -3.69313e-06 -0.00038037 5.70206e-09 5.4228e-08 5.09226e-05)
(0.00829036 4.49792e-06 -9.84055e-05 9.00844e-09 -3.46957e-07 3.19104e-05)
(0.00828688 -1.96907e-07 0.000325833 4.3245e-09 -3.28195e-07 5.4673e-05)
(0.0081491 -3.44924e-06 0.000315968 6.02524e-09 -3.31012e-07 4.56763e-05)
(0.00822043 1.19465e-06 -0.000154865 3.71412e-09 -1.41767e-07 4.72199e-05)
(0.00837352 -2.09649e-06 -0.000388362 4.90169e-09 -6.11618e-08 5.97401e-05)
(0.00835235 -7.83728e-07 -0.000133409 2.02249e-09 -1.17406e-07 3.94472e-05)
(0.00828944 3.47857e-06 0.000332925 4.26698e-09 3.17554e-07 5.29369e-05)
(0.00816601 1.45615e-06 0.000262942 1.52887e-09 5.56802e-08 3.78779e-05)
(0.00820709 -4.37543e-06 -6.86001e-05 4.79363e-09 1.37417e-07 3.82019e-05)
(0.00825913 -1.60661e-06 -0.0003931 3.52148e-09 1.67653e-07 5.41035e-05)
(0.00848444 -2.02019e-06 -2.43806e-05 3.78226e-09 9.3597e-08 3.31477e-05)
(0.00829484 3.24808e-06 0.000270727 4.46464e-09 3.11721e-07 4.69802e-05)
(0.00819392 -1.08569e-06 0.000303552 3.9148e-09 1.23796e-07 4.23554e-05)
(0.00834412 -5.50978e-07 -0.000199996 2.88827e-09 1.51179e-07 4.49434e-05)
(0.00824607 -2.01208e-06 -0.000344675 1.80731e-09 1.54442e-07 4.91118e-05)
(0.0142233 -6.48848e-06 -0.000205516 8.7509e-09 2.07361e-08 7.60992e-05)
(0.0140504 6.18616e-06 0.00046368 1.96849e-08 1.05407e-06 0.00010345)
(0.0140257 1.23956e-07 0.000571056 5.49792e-09 3.94843e-07 8.85876e-05)
(0.013933 4.47319e-06 -9.58235e-05 7.18063e-09 -1.97968e-07 7.29705e-05)
(0.0141776 -1.57086e-05 -0.000574635 2.26915e-08 8.62869e-07 9.13208e-05)
(0.0140655 3.74382e-06 -0.000264127 1.65939e-08 1.61655e-07 6.10346e-05)
(0.0140624 -3.97412e-07 0.000482373 1.91595e-08 -1.56952e-07 9.98063e-05)
(0.0139243 -9.34059e-07 0.000601518 1.27802e-08 -3.83387e-07 9.55862e-05)
(0.0143403 -1.06562e-05 -0.000200261 1.47915e-08 -1.15826e-07 0.000109003)
(0.0141143 -3.74985e-06 -0.000779014 1.44754e-08 4.13638e-07 0.000131761)
(0.0146266 -9.04243e-06 -0.000172316 1.24312e-08 2.34774e-07 7.36659e-05)
(0.0140119 1.66783e-05 0.000488493 3.51563e-08 9.70206e-07 9.37876e-05)
(0.0141355 -2.46496e-06 0.000493274 9.5906e-09 8.60541e-08 7.0496e-05)
(0.0138874 9.12537e-06 -0.000105922 2.02569e-08 3.87002e-07 7.09079e-05)
(0.014172 -1.29331e-05 -0.000670755 2.30236e-08 1.24845e-06 0.00010507)
(0.0141684 -2.5738e-06 -0.000283134 1.28624e-08 -3.21678e-07 7.48808e-05)
(0.0140503 -6.57551e-06 0.000470007 9.5489e-09 -3.48874e-07 9.72866e-05)
(0.0140689 -1.93467e-06 0.0005615 5.05812e-09 8.67339e-08 8.25377e-05)
(0.0141353 -1.21022e-05 -0.000181779 2.20991e-08 5.86773e-07 8.33261e-05)
(0.0140126 -5.09734e-06 -0.000623665 9.12127e-09 5.01928e-07 0.000100498)
(0.0142022 -1.01536e-05 -0.000272854 1.54876e-08 6.91806e-07 6.59978e-05)
(0.0139092 5.64958e-06 0.000471548 2.00725e-08 5.53812e-07 9.49413e-05)
(0.0141377 3.2709e-06 0.000515165 1.72175e-08 2.40628e-07 7.38782e-05)
(0.0138928 3.71238e-06 -6.02318e-05 2.00845e-08 -2.56391e-07 7.00052e-05)
(0.0141399 -6.38851e-06 -0.000621762 2.31939e-08 -1.16565e-07 9.80592e-05)
(0.0141198 7.19381e-06 -0.000208516 3.34084e-08 -1.15396e-06 6.9056e-05)
(0.0139357 -4.82525e-06 0.000421332 2.6936e-08 -1.25755e-06 9.58054e-05)
(0.0139576 -1.05039e-05 0.000596911 2.20792e-08 -9.96101e-07 9.35009e-05)
(0.0140208 6.28139e-06 -0.000236888 1.83574e-08 -7.73439e-07 0.000102738)
(0.014201 1.72387e-07 -0.000665046 1.54641e-08 -6.51297e-07 0.000118444)
(0.0139836 -1.59037e-06 -0.000360355 1.13428e-08 -4.32277e-07 7.77238e-05)
(0.0140677 2.74042e-06 0.000518708 8.13924e-09 3.55838e-07 0.000105353)
(0.0138787 3.09529e-06 0.000493136 5.94653e-09 2.85126e-08 7.70802e-05)
(0.013975 -1.04543e-05 -8.63144e-05 1.72233e-08 3.0728e-07 8.55795e-05)
(0.0140634 -3.757e-06 -0.000739888 1.17101e-08 3.07319e-07 0.000116053)
(0.014441 -8.68176e-06 -0.000127739 1.53839e-08 1.50404e-07 6.70168e-05)
(0.0141357 3.77806e-06 0.00044979 8.85262e-09 4.67364e-07 0.000100656)
(0.0139337 -2.20051e-06 0.000574399 1.21524e-08 3.07041e-07 8.71345e-05)
(0.0141273 3.77928e-06 -0.000218974 1.21944e-08 1.44665e-08 8.19514e-05)
(0.0139913 -4.55542e-06 -0.000632914 6.61997e-09 3.55631e-07 0.000102427)
(0.0196585 -1.41915e-05 -0.000404211 4.54931e-08 1.46203e-07 0.000129992)
(0.0195237 -4.94944e-07 0.00056924 4.00202e-08 1.49717e-06 0.000179409)
(0.0192921 -2.12883e-06 0.000843486 2.02435e-08 8.424e-07 0.000152155)
(0.0193472 1.12379e-07 -5.76209e-05 9.84234e-09 3.3878e-07 0.000134641)
(0.0196439 -2.93418e-05 -0.000776918 6.34787e-08 1.76917e-06 0.000157591)
(0.0194002 3.55093e-06 -0.000484126 3.01559e-08 7.20246e-08 0.0001039)
(0.0195298 8.48674e-06 0.000566405 4.98438e-08 7.34354e-07 0.000170809)
(0.0192732 4.10445e-06 0.00085327 2.91093e-08 -7.20491e-07 0.000161684)
(0.0196705 -1.63355e-05 1.52956e-05 4.10307e-08 -7.78948e-07 0.000151031)
(0.0195204 1.30667e-06 -0.00101109 4.51665e-08 2.26583e-07 0.0002099)
(0.0199423 -2.20101e-05 -0.000491368 4.71877e-08 5.3726e-07 0.000109219)
(0.0192255 2.7186e-05 0.000407333 8.44352e-08 1.34002e-06 0.000122519)
(0.0194734 -7.70013e-06 0.000636169 3.75325e-08 2.4703e-07 0.000112453)
(0.0190745 2.37084e-05 6.01009e-05 8.5442e-08 1.02537e-06 0.000106114)
(0.0196681 -2.13838e-05 -0.00093286 6.59238e-08 2.78641e-06 0.000179913)
(0.0194593 1.80679e-06 -0.000598208 3.21004e-08 -2.59503e-07 0.000119561)
(0.0197245 -1.59871e-05 0.00072092 4.45574e-08 -1.04766e-06 0.000204847)
(0.0194618 -1.81021e-06 0.000800288 1.95366e-08 3.63231e-07 0.00013634)
(0.0194751 -2.09342e-05 -2.34005e-05 6.70795e-08 1.39752e-06 0.000123665)
(0.0194404 -4.248e-06 -0.000835247 2.08015e-08 5.80729e-07 0.000168132)
(0.0196104 -1.69497e-05 -0.000496745 3.23444e-08 1.2956e-06 0.000109302)
(0.0191337 1.8051e-05 0.000469225 5.76774e-08 1.52672e-06 0.000143422)
(0.0196122 8.19546e-06 0.000711649 4.42602e-08 1.55e-07 0.00012314)
(0.0190602 4.20889e-06 0.000140709 6.23584e-08 -4.9935e-07 9.79174e-05)
(0.0195618 3.38044e-06 -0.000759193 7.61467e-08 -1.3595e-06 0.000151268)
(0.0193177 2.10487e-05 -0.000490606 1.21637e-07 -2.16962e-06 0.000112567)
(0.0193082 -9.00952e-06 0.000470207 9.46709e-08 -2.47341e-06 0.000163376)
(0.0191879 -2.05326e-05 0.000849832 6.90816e-08 -1.94372e-06 0.000157968)
(0.0192267 8.90079e-06 -8.73058e-05 4.27335e-08 -9.71759e-07 0.000148662)
(0.0195479 2.92668e-06 -0.000891858 4.52909e-08 -1.66616e-06 0.000199159)
(0.0196874 8.57738e-06 -0.000495515 2.75653e-08 -8.27302e-07 0.000142729)
(0.0193167 7.79163e-06 0.000489234 4.35069e-08 1.29626e-06 0.000150374)
(0.0192662 4.91595e-06 0.000651502 2.5638e-08 -1.07161e-08 0.000125426)
(0.0190741 -1.69239e-05 0.000210262 4.89097e-08 -6.25951e-09 0.000110457)
(0.0193989 -1.17391e-05 -0.000942257 3.86131e-08 1.25445e-06 0.000183127)
(0.0198204 -9.78286e-06 -0.000375937 4.55255e-08 8.19644e-07 0.000104662)
(0.0194007 -3.06367e-06 0.000356131 3.28406e-08 -2.07333e-07 0.000138982)
(0.019199 -4.32243e-06 0.000806842 3.56597e-08 6.38814e-07 0.0001468)
(0.0195012 3.98095e-06 -0.000143414 2.79319e-08 6.51429e-07 0.000132218)
(0.0193116 -2.59749e-06 -0.000828115 2.10428e-08 4.14383e-07 0.000168157)
(0.0230544 -4.5962e-06 -0.000731324 1.00379e-07 1.33741e-06 0.000180329)
(0.023469 -1.40544e-05 0.00054767 1.24355e-07 1.9938e-06 0.0002729)
(0.0234891 7.54404e-06 0.000920986 9.9702e-08 3.0581e-06 0.000212964)
(0.0231231 -1.52307e-05 0.00028105 1.04437e-07 1.81678e-06 0.000156882)
(0.0230887 -4.0134e-05 -0.000605018 1.38759e-07 2.24288e-06 0.00018508)
(0.0233182 1.97655e-06 -0.000493017 6.07506e-08 6.7185e-08 0.000156151)
(0.0232362 2.35727e-06 0.00032709 8.5949e-08 7.63965e-08 0.000206018)
(0.023191 -5.47182e-06 0.000940891 8.8311e-08 -2.23316e-06 0.000232494)
(0.0238821 -1.11972e-05 8.17294e-05 1.26927e-07 -2.84585e-06 0.000235544)
(0.0232891 2.73232e-05 -0.0010085 1.30292e-07 -2.24016e-06 0.000282238)
(0.0240878 -3.29015e-05 -0.0005843 1.28517e-07 1.20381e-06 0.00016045)
(0.0231206 3.95201e-05 0.000201582 2.05806e-07 2.23363e-06 0.000149862)
(0.0231363 -1.22508e-05 0.000625897 1.25293e-07 1.39759e-06 0.000156632)
(0.0228747 3.9455e-05 0.000160346 2.57488e-07 2.94653e-06 0.000162463)
(0.0233935 -3.28959e-05 -0.000974686 2.19754e-07 6.29185e-06 0.000248396)
(0.0234287 1.79618e-05 -0.000669264 1.08187e-07 5.63286e-07 0.000163198)
(0.0232297 -2.76677e-05 0.000288439 1.5513e-07 -9.88002e-07 0.000177423)
(0.0232023 3.13857e-07 0.000670528 7.87963e-08 1.28068e-06 0.000158407)
(0.0229932 -1.49237e-05 0.000351722 1.09625e-07 1.78924e-06 0.000141196)
(0.0227811 -1.26082e-05 -0.000720461 6.53806e-08 2.48072e-06 0.000208794)
(0.0237194 -1.36262e-05 -0.000478054 6.91087e-08 2.47398e-06 0.000168664)
(0.0231471 3.16775e-05 0.00034129 1.54495e-07 2.54327e-06 0.000197941)
(0.0232557 4.6758e-06 0.00081048 1.09274e-07 -6.14082e-07 0.000187076)
(0.0230139 1.56272e-05 0.000109935 2.17271e-07 -1.66807e-06 0.000167791)
(0.0232309 2.02119e-05 -0.000640621 2.89451e-07 -2.59323e-06 0.000186472)
(0.0229177 3.55387e-05 -0.000678308 3.50932e-07 -2.74877e-06 0.000169673)
(0.023182 -1.10965e-05 0.000371592 2.60016e-07 -2.86705e-06 0.000241327)
(0.0231638 -1.73772e-05 0.00094666 1.39199e-07 -1.30329e-06 0.000228147)
(0.022854 6.31586e-06 0.000130281 1.16753e-07 5.04289e-07 0.000195789)
(0.0236579 -1.15174e-05 -0.000858817 9.22454e-08 9.59337e-08 0.000256876)
(0.0229539 3.2338e-05 -0.000898351 1.29073e-07 -1.3018e-06 0.000199092)
(0.0234071 -1.28044e-05 0.000566457 9.10906e-08 3.64332e-07 0.000267397)
(0.0233119 7.93573e-06 0.000770077 9.94838e-08 1.13825e-07 0.000188587)
(0.0229547 -1.94517e-05 0.000367202 1.36657e-07 -3.86099e-08 0.000156915)
(0.0231285 -2.63665e-05 -0.000887863 2.05424e-07 4.32269e-06 0.000234119)
(0.0237517 -2.21398e-05 -0.000511135 1.65858e-07 2.78032e-06 0.000160186)
(0.0234109 2.41874e-05 0.000205364 1.41173e-07 3.05798e-06 0.000194109)
(0.0229098 8.80576e-06 0.000905558 1.13543e-07 3.12848e-06 0.000216943)
(0.0233999 -4.85453e-06 -4.1866e-05 1.45082e-07 3.75175e-06 0.000200548)
(0.0231353 -7.05827e-06 -0.000748648 9.32962e-08 1.98007e-06 0.000210758)
(0.0248052 -8.43588e-07 -0.0004712 3.18457e-07 3.28696e-06 0.000190098)
(0.0246038 -2.31811e-05 -3.23089e-05 3.91196e-07 4.09532e-06 0.000205316)
(0.024558 1.90552e-06 0.000577937 2.91132e-07 4.83773e-06 0.000210953)
(0.0246475 -3.91355e-06 0.000189861 1.92587e-07 2.97301e-06 0.000203334)
(0.0248486 -3.71077e-05 -0.000571114 2.41612e-07 2.42527e-06 0.000245079)
(0.0247568 1.93243e-05 -0.000603245 2.12307e-07 -2.78449e-07 0.000201285)
(0.0250227 -1.76617e-05 0.000174583 2.19349e-07 -1.54396e-06 0.000259891)
(0.0246733 -2.20471e-05 0.00070024 2.93917e-07 -3.77653e-06 0.000256217)
(0.025192 -2.62428e-05 0.000279844 2.98766e-07 -2.49738e-06 0.000235955)
(0.0246731 4.37476e-05 -0.000490509 3.5168e-07 -2.10944e-06 0.00023505)
(0.0250169 -3.04996e-05 -0.00065396 2.58417e-07 2.55878e-06 0.000173836)
(0.0244581 3.34636e-05 6.73266e-05 3.03812e-07 3.07849e-06 0.000183059)
(0.0248651 -3.12812e-05 0.000427857 3.18328e-07 2.26916e-06 0.000185997)
(0.0248605 5.33301e-05 0.000263412 5.84471e-07 5.25103e-06 0.000183842)
(0.0243063 -1.61507e-05 -0.000478692 3.71293e-07 6.5447e-06 0.000192782)
(0.0246786 2.4117e-05 -0.000386907 2.74212e-07 2.80881e-06 0.000154211)
(0.0246341 -1.6611e-05 -2.5758e-07 2.89226e-07 2.00732e-06 0.000176027)
(0.0243675 -1.33455e-06 0.000464518 2.59211e-07 3.30682e-06 0.000180554)
(0.0245623 1.21581e-05 0.000212718 2.96774e-07 4.6911e-06 0.000186752)
(0.0245576 -3.00647e-05 -0.000596204 4.0823e-07 8.03472e-06 0.000247868)
(0.0248389 -6.86085e-06 -0.000601847 1.8197e-07 3.97919e-06 0.000211566)
(0.0248793 2.14743e-05 0.000181898 1.91017e-07 1.46928e-06 0.000260608)
(0.0249193 -1.30164e-05 0.000622554 3.22031e-07 -2.85436e-06 0.000220748)
(0.0244681 3.41074e-05 0.00029812 8.19588e-07 -2.81695e-06 0.000179921)
(0.0248482 5.3029e-05 -0.000480328 1.02703e-06 -3.63366e-06 0.000218868)
(0.0245211 3.14869e-05 -0.000606245 8.78825e-07 -5.15403e-07 0.000202663)
(0.0246735 -6.88022e-06 5.62722e-05 6.41973e-07 2.82844e-07 0.000257528)
(0.0246279 -9.56998e-06 0.000745587 3.77857e-07 1.64325e-06 0.000261187)
(0.0245201 1.60527e-05 0.000136191 3.70119e-07 3.16017e-06 0.000235616)
(0.0247896 -1.66394e-05 -0.000491621 2.99425e-07 2.64523e-06 0.000244141)
(0.0244536 3.88159e-05 -0.000610564 3.372e-07 5.73413e-07 0.000194401)
(0.0243589 -4.77741e-05 -5.96899e-05 4.80896e-07 1.33711e-07 0.000195137)
(0.0242985 2.55306e-06 0.000519126 2.84972e-07 4.47257e-08 0.000202069)
(0.0244953 -3.77272e-05 0.000124728 3.87338e-07 8.7384e-07 0.000191455)
(0.0247619 1.66293e-06 -0.000457857 3.08401e-07 2.84496e-06 0.000200065)
(0.0241258 -5.13936e-05 -0.000725203 5.21654e-07 6.45162e-06 0.000201868)
(0.0248931 4.13677e-05 0.000145019 5.42013e-07 8.25689e-06 0.000267996)
(0.02446 9.67444e-06 0.000719016 3.22239e-07 5.47798e-06 0.000252235)
(0.0248276 2.92334e-05 0.000246098 3.64569e-07 4.69509e-06 0.000217419)
(0.0245093 -8.58778e-06 -0.000564191 3.64642e-07 5.22132e-06 0.000243507)
(0.0233569 -3.94508e-06 -0.000186796 9.02641e-07 5.7557e-06 0.000150241)
(0.0232862 -1.74296e-05 -9.74461e-05 8.87916e-07 6.34362e-06 0.000169759)
(0.0231004 -2.72693e-05 0.000259021 5.92762e-07 4.89532e-06 0.000179593)
(0.023333 -4.16071e-06 9.83807e-06 4.29776e-07 3.35549e-06 0.000175597)
(0.0235204 -2.42757e-05 -0.000329307 5.199e-07 1.13345e-06 0.000194398)
(0.0234566 3.6363e-05 -0.000328537 6.36583e-07 5.86483e-07 0.000167175)
(0.0234676 -1.33164e-05 -6.29617e-05 5.82516e-07 2.49282e-06 0.000181138)
(0.023217 5.83806e-06 0.000191366 5.62658e-07 2.49087e-06 0.000181745)
(0.0235216 -3.93743e-05 0.00015256 6.47166e-07 2.25656e-06 0.000176922)
(0.0234294 2.31476e-05 -0.000201438 5.56451e-07 2.6765e-06 0.000193415)
(0.023727 -1.90156e-05 -0.000322583 5.38841e-07 4.25689e-06 0.000147722)
(0.0234656 2.11479e-05 7.92654e-05 5.85727e-07 4.93543e-06 0.000148565)
(0.0233986 -2.52978e-05 4.81711e-05 7.19201e-07 6.13819e-06 0.000151067)
(0.0234023 3.00914e-05 0.00032785 9.09011e-07 9.17781e-06 0.00016103)
(0.0233462 -3.56338e-06 -0.000411343 8.72768e-07 1.03022e-05 0.000190617)
(0.0237473 8.33809e-06 -9.52245e-05 7.11276e-07 7.4e-06 0.000129493)
(0.0235532 8.3724e-06 -0.000189618 6.6329e-07 7.08884e-06 0.000152675)
(0.0231796 -2.50753e-06 0.000288777 6.12508e-07 6.63568e-06 0.00018461)
(0.023552 8.90762e-06 -0.000130295 6.23224e-07 7.09922e-06 0.000191401)
(0.0237477 6.54094e-07 -0.000378933 5.34689e-07 6.83012e-06 0.000197938)
(0.0233157 7.94557e-06 -0.00040003 4.06162e-07 4.28495e-06 0.000184959)
(0.0234818 -1.26127e-06 -0.000145405 5.32869e-07 7.14118e-07 0.000212165)
(0.0232143 -2.10667e-05 0.0002674 9.38953e-07 -2.59846e-06 0.000201945)
(0.023434 1.20635e-06 -3.14224e-05 1.59048e-06 -3.1839e-06 0.00017332)
(0.0235568 6.42339e-05 -0.00027328 2.35784e-06 -1.714e-06 0.000178245)
(0.0232769 4.35829e-05 -0.000294282 1.99371e-06 3.7372e-06 0.000171509)
(0.0233775 1.21957e-05 -4.5756e-05 1.43717e-06 6.42545e-06 0.00020452)
(0.0230828 1.28538e-05 0.000283035 1.00636e-06 7.17835e-06 0.000193555)
(0.0230248 1.41704e-05 7.86841e-05 8.80258e-07 5.19402e-06 0.000160685)
(0.0232289 9.16168e-09 -6.61544e-05 6.8975e-07 3.46571e-06 0.000151996)
(0.0228645 5.55776e-05 -0.000217676 8.97438e-07 3.54414e-06 0.000144022)
(0.0229605 -2.77762e-05 -7.61567e-06 8.51353e-07 3.50213e-06 0.000169793)
(0.0228102 1.34635e-05 0.000260931 6.78609e-07 2.2246e-06 0.000168673)
(0.0233061 -5.43605e-05 8.15805e-05 9.33551e-07 1.62957e-06 0.000149397)
(0.0230477 2.77847e-05 -0.000135842 6.78911e-07 2.43074e-06 0.000149881)
(0.0231235 -2.94017e-05 -0.000140476 7.43146e-07 4.70396e-06 0.00014279)
(0.0233604 2.08971e-05 4.74359e-05 6.1603e-07 5.5087e-06 0.000179234)
(0.023006 -1.83169e-05 0.000302279 6.68436e-07 4.05642e-06 0.000197781)
(0.023479 2.33318e-05 0.000155575 7.49301e-07 4.77987e-06 0.000189153)
(0.0233469 7.7921e-06 -0.000279935 8.41785e-07 5.80337e-06 0.00018861)
(0.0199031 -3.70041e-08 -3.05882e-05 1.30475e-06 5.87825e-06 9.3e-05)
(0.019749 7.38389e-06 1.30908e-06 1.24534e-06 6.01342e-06 9.55055e-05)
(0.0196014 -2.05773e-05 0.000122624 9.79713e-07 4.81125e-06 9.7999e-05)
(0.0195715 -4.86273e-06 -8.17419e-06 8.50452e-07 4.04749e-06 9.47744e-05)
(0.0197404 -3.4895e-05 -0.000181515 1.13376e-06 3.04042e-06 0.000104851)
(0.019787 2.87946e-05 -0.000145073 1.28759e-06 3.13986e-06 0.000102759)
(0.0198389 -6.3754e-06 -1.55773e-06 1.26141e-06 5.0745e-06 0.000117386)
(0.0197627 9.41479e-06 0.000172726 1.15547e-06 5.71632e-06 0.000119124)
(0.0198651 -3.08649e-05 -4.75488e-05 1.21901e-06 6.25662e-06 0.000113999)
(0.0199616 -9.3894e-06 -0.000145356 9.63361e-07 6.16802e-06 0.00012012)
(0.0200476 -8.26317e-06 -0.000212046 9.62761e-07 6.57392e-06 0.000111688)
(0.0200061 1.48418e-05 7.41666e-05 1.06031e-06 7.84066e-06 0.00012413)
(0.0200095 5.10983e-07 0.000148117 1.18026e-06 7.99465e-06 0.000116512)
(0.0199411 6.35761e-06 4.46949e-05 1.4712e-06 9.38389e-06 0.00010457)
(0.0201698 3.14707e-06 -0.000166148 1.60792e-06 1.11355e-05 0.000109595)
(0.0200463 -2.32917e-06 -0.000144528 1.3983e-06 1.06369e-05 0.00010796)
(0.0200516 2.8252e-05 1.74229e-05 1.23371e-06 1.00481e-05 0.000123662)
(0.0198798 7.7864e-06 0.00014525 1.03102e-06 7.51379e-06 0.000120279)
(0.0198973 7.48405e-06 2.81996e-05 1.05001e-06 6.6979e-06 0.000105073)
(0.0200264 1.23358e-05 -0.000182488 1.01889e-06 6.12015e-06 0.000107539)
(0.0199243 1.42369e-05 -8.62961e-05 9.81227e-07 5.17656e-06 0.000105476)
(0.0200088 1.07942e-05 -5.20273e-05 1.1471e-06 2.64271e-06 0.000117204)
(0.0196227 -5.06776e-06 0.000124028 1.82018e-06 -5.08604e-07 0.000118514)
(0.0198162 -9.31869e-06 -6.71608e-05 2.77626e-06 1.04934e-07 0.000106019)
(0.0197261 3.45353e-05 -0.00020972 3.50437e-06 2.67869e-06 0.000106383)
(0.0199455 3.1595e-05 -0.000151108 3.09157e-06 6.995e-06 0.000105533)
(0.0196972 2.66264e-05 -2.82373e-05 2.3506e-06 8.68724e-06 0.000113456)
(0.0197549 2.49029e-05 0.000118766 1.75172e-06 8.53576e-06 0.000110677)
(0.0195912 2.4348e-05 -1.88564e-05 1.51747e-06 6.68439e-06 0.000100796)
(0.0197838 2.99729e-06 -0.000172311 1.32802e-06 5.08233e-06 0.000105986)
(0.0197142 7.03344e-05 -0.000129341 1.52809e-06 4.69782e-06 0.000102077)
(0.0197366 4.85593e-06 1.48085e-05 1.16892e-06 4.3988e-06 0.000112809)
(0.0195705 3.29075e-05 0.000179834 1.21563e-06 3.45641e-06 0.0001115)
(0.0196698 -2.92379e-05 -1.08248e-05 1.47677e-06 3.56855e-06 0.000106217)
(0.0197251 1.98365e-05 -0.000132403 1.34716e-06 4.70686e-06 0.000113498)
(0.0197638 -1.74349e-05 -0.000173772 1.4977e-06 6.21859e-06 0.000104449)
(0.019802 1.4398e-05 8.67536e-05 1.30116e-06 6.09885e-06 0.000111116)
(0.0196395 -4.67337e-06 8.33921e-05 1.34855e-06 5.33279e-06 0.000108324)
(0.0197672 -2.91974e-06 0.000122249 1.27297e-06 5.34516e-06 0.000103671)
(0.0197002 -1.61983e-07 -0.000158835 1.34446e-06 5.87943e-06 0.000106028)
(0.0148891 -2.59786e-06 -2.87359e-05 1.58973e-06 4.59416e-06 4.76261e-05)
(0.0148635 1.64723e-05 8.65594e-06 1.38027e-06 4.42364e-06 4.93957e-05)
(0.014896 -1.38441e-05 8.51658e-05 1.2427e-06 3.6638e-06 4.8696e-05)
(0.0148163 8.43402e-06 2.34272e-05 1.09924e-06 4.02933e-06 4.68151e-05)
(0.0148767 -2.13146e-05 -3.3852e-05 1.49625e-06 3.78188e-06 5.08512e-05)
(0.014854 1.38965e-05 -7.4606e-05 1.61296e-06 3.70609e-06 5.00364e-05)
(0.0148795 -1.29206e-06 1.85187e-05 1.66345e-06 4.62358e-06 5.07046e-05)
(0.0149195 -5.08134e-07 5.74689e-05 1.54378e-06 5.03703e-06 4.74155e-05)
(0.0149128 -1.2963e-05 5.09438e-05 1.53794e-06 4.97524e-06 4.63345e-05)
(0.0148818 -1.28059e-05 -3.917e-05 1.34112e-06 5.35482e-06 5.02321e-05)
(0.0149783 -4.46078e-06 -4.87305e-05 1.2323e-06 5.38398e-06 4.88187e-05)
(0.0149195 -4.18234e-07 -2.66857e-06 1.27083e-06 5.66309e-06 4.84186e-05)
(0.0150094 3.83384e-06 7.44763e-05 1.33134e-06 5.52139e-06 4.51762e-05)
(0.0149178 -2.451e-06 3.29401e-05 1.5358e-06 6.14591e-06 4.27548e-05)
(0.0150245 7.90652e-06 -1.36593e-05 1.63632e-06 7.1666e-06 4.8398e-05)
(0.0149801 -2.39486e-06 -5.88547e-05 1.51042e-06 7.43128e-06 5.25357e-05)
(0.015074 1.99341e-05 4.18237e-05 1.34726e-06 7.10309e-06 5.97612e-05)
(0.0150198 1.10171e-05 8.45936e-05 1.29864e-06 5.77782e-06 5.93135e-05)
(0.0150157 1.39422e-05 6.97753e-05 1.41466e-06 5.37664e-06 5.57819e-05)
(0.0150273 1.19303e-05 -4.58972e-05 1.37848e-06 5.13278e-06 5.44398e-05)
(0.0150124 1.3681e-05 -2.75806e-05 1.31062e-06 4.27624e-06 4.73668e-05)
(0.0150648 1.57996e-05 3.56698e-06 1.59189e-06 3.41886e-06 4.61711e-05)
(0.0149073 1.2741e-05 2.30785e-05 2.34814e-06 2.84077e-06 4.50024e-05)
(0.0150102 4.78874e-06 3.95181e-05 3.18284e-06 3.46464e-06 4.41532e-05)
(0.0148089 3.12414e-05 -8.34745e-05 3.55691e-06 4.40853e-06 4.79937e-05)
(0.0149978 1.76038e-05 -5.34749e-05 3.01177e-06 6.07927e-06 4.53994e-05)
(0.0148692 2.74999e-05 -3.32052e-05 2.40995e-06 6.38428e-06 4.75725e-05)
(0.0149292 1.33746e-05 4.13738e-05 1.97667e-06 5.76083e-06 4.86606e-05)
(0.0148993 2.92266e-05 -2.23028e-06 1.96512e-06 5.33143e-06 4.72427e-05)
(0.0148646 1.04919e-05 -7.89255e-05 1.78511e-06 4.56615e-06 4.83097e-05)
(0.0148587 4.92997e-05 -6.5468e-05 1.70996e-06 4.22492e-06 4.68397e-05)
(0.0148274 1.57546e-05 -2.58857e-05 1.3956e-06 4.0847e-06 4.84269e-05)
(0.0148722 3.68647e-05 6.73763e-05 1.50205e-06 3.63351e-06 4.76112e-05)
(0.0147928 -4.31566e-07 3.95333e-06 1.70988e-06 3.60567e-06 4.75289e-05)
(0.0148366 2.6471e-05 -2.70574e-05 1.75238e-06 4.47053e-06 5.24945e-05)
(0.0147999 3.47664e-06 -9.56585e-05 1.9237e-06 5.32039e-06 5.23506e-05)
(0.0148711 1.42523e-05 2.59488e-05 1.75507e-06 4.93836e-06 5.46955e-05)
(0.0148266 9.0715e-06 4.8459e-05 1.81075e-06 4.40773e-06 5.21388e-05)
(0.0149103 2.60519e-06 5.49326e-05 1.6844e-06 4.62841e-06 4.98526e-05)
(0.0148045 1.16347e-05 -4.56512e-05 1.68695e-06 4.82242e-06 5.00808e-05)
(0.00970747 7.7549e-06 5.21696e-06 1.5699e-06 2.76501e-06 1.74684e-05)