/*--------------------------------*- C++ -*----------------------------------*\
  =========                 |
  \\      /  F ield         | OpenFOAM: The Open Source CFD Toolbox
   \\    /   O peration     | Website:  https://openfoam.org
    \\  /    A nd           | Version:  10
     \\/     M anipulation  |
\*---------------------------------------------------------------------------*/
FoamFile
{
    format      ascii;
    class       surfaceScalarField;
    location    "2";
    object      phi;
}
// * * * * * * * * * * * * * * * * * * * * * * * * * * * * * * * * * * * * * //

dimensions      [0 3 -1 0 0 0 0];

internalField   nonuniform List<scalar> 
74080
(
0.00533222
6.83995e-05
-0.000268519
0.0054476
0.000128777
-0.000231724
0.00550235
0.000171801
-0.000185734
0.00547869
0.000182463
-0.000118807
0.00540423
0.000150822
-1.95472e-05
0.00532088
0.000110878
7.51522e-05
0.00527361
0.000106005
0.000103121
0.0052625
0.000130051
3.73676e-05
0.00527203
0.000135188
-9.23382e-05
0.00528971
7.64171e-05
-0.00021814
0.0052976
-4.18516e-05
-0.000288652
0.00529753
-0.000143164
-0.000316467
0.00527514
-0.000152414
-0.00032511
0.00523346
-7.42186e-05
-0.000326168
0.00521252
3.60163e-05
-0.000311246
0.00521523
0.000116935
-0.000235647
0.00523374
0.000134037
-9.63989e-05
0.00525659
0.000103737
7.12551e-05
0.00526379
4.25106e-05
0.00017273
0.0052646
-2.07887e-05
0.000140484
0.00526756
-5.44993e-05
-1.78411e-05
0.00526971
-3.16482e-05
-0.000238249
0.00527408
4.20033e-05
-0.000389581
0.00528589
9.74488e-05
-0.000424793
0.0053065
0.000107709
-0.00034528
0.00534077
6.8396e-05
-0.000188568
0.00539004
-3.73613e-06
-2.66052e-05
0.00544229
-2.24956e-05
7.8115e-05
0.005484
-6.76335e-06
7.14454e-05
0.00550149
8.59024e-07
-8.00551e-06
0.00549546
-1.65683e-05
-5.82843e-05
0.00547059
-7.14928e-05
-3.98248e-05
0.00543094
-0.000120822
5.10323e-05
0.00537699
-0.000152302
0.00014906
0.00530074
-0.000168418
0.000192529
0.00521961
-0.000164663
0.00015763
0.00516054
-0.000143356
4.7358e-05
0.00513018
-0.000109974
-8.61776e-05
0.0051476
-5.92511e-05
-0.000211393
3.434e-06
-0.000274691
0.00492351
7.96422e-05
-0.000174508
0.00496898
0.000160281
-0.000259067
0.00499058
0.000198403
-0.000249099
0.00499098
0.000192843
-0.000141841
0.00497539
0.000168373
-9.71793e-06
0.00496711
0.000149299
5.22566e-05
0.00500429
0.000154544
1.28338e-05
0.00507512
0.000164267
-4.95568e-05
0.00511603
0.000132434
-8.11616e-05
0.00507762
5.03601e-05
-7.34984e-05
0.00496318
-6.35366e-05
-8.86494e-05
0.00483111
-0.000146454
-0.000169449
0.00473573
-0.000144161
-0.000264505
0.00470233
-8.40768e-05
-0.000294797
0.00474096
-3.0062e-05
-0.000200022
0.00481781
-3.72675e-06
1.91587e-05
0.0048872
-6.13157e-06
0.000267358
0.0049052
8.58234e-07
0.000446326
0.00485797
3.08742e-05
0.000439005
0.00479554
5.55767e-05
0.000215925
0.00477093
6.22703e-05
-7.56805e-05
0.00480668
6.46372e-05
-0.000299839
0.00487921
8.03651e-05
-0.000353962
0.00492867
8.82068e-05
-0.000252825
0.00492192
6.92509e-05
-7.50229e-05
0.00488396
-3.15286e-06
0.000128183
0.00486527
-0.000111031
0.000285317
0.00489639
-0.00013058
0.000309248
0.00495607
-6.61161e-05
0.000160082
0.00497247
7.49225e-06
-3.81306e-05
0.00491571
2.85001e-05
-0.000120603
0.00480711
-2.93182e-05
-2.91703e-05
0.00469542
-0.000108783
0.000154599
0.00462097
-0.000177766
0.000277346
0.00458795
-0.000202517
0.000243275
0.00459026
-0.000196473
0.000117285
0.00462327
-0.000191763
8.62112e-06
0.00468347
-0.000178802
-2.87059e-05
0.00476809
-0.000134287
-3.34026e-05
-3.84058e-05
-7.78414e-05
0.00416583
-2.29609e-05
-0.000376346
0.00427299
0.000110684
-0.000333967
0.00435123
0.000168212
-0.000124802
0.00438866
0.000163891
0.000168358
0.00440479
0.000107026
0.000356238
0.00445099
5.42494e-05
0.000320623
0.00451623
5.10849e-05
0.000169216
0.00453307
5.87732e-05
3.71717e-05
0.00447544
3.67546e-05
-1.75662e-05
0.00437501
-2.64178e-05
-2.69242e-05
0.0042842
-0.000137387
-5.3658e-05
0.00424656
-0.000243432
-0.000108337
0.00425112
-0.000248993
-0.000107493
0.00426111
-0.000155569
-2.30479e-05
0.00426327
-6.8534e-05
0.000112767
0.00427476
-3.92942e-05
0.000210695
0.00431224
-3.8829e-05
0.000195193
0.00435237
4.19554e-06
0.000119224
0.00436583
0.000111481
2.9587e-05
0.00435359
0.000197689
-6.86354e-05
0.0043483
0.000196977
-0.000173717
0.00438394
0.000136718
-0.000238117
0.00443628
8.84076e-05
-0.00018198
0.00445759
6.74238e-05
-8.48521e-06
0.00442215
6.19803e-05
0.000198201
0.00435449
1.60834e-05
0.000289299
0.00428451
-8.53955e-05
0.000213144
0.00424887
-0.000126033
5.7745e-05
0.0042463
-8.04381e-05
-5.24212e-05
0.00425515
-1.85368e-06
-1.85554e-05
0.00425559
2.92935e-05
0.000128638
0.004251
-2.23296e-05
0.000257643
0.00424108
-9.47727e-05
0.00029448
0.00421882
-0.000155481
0.00019559
0.00418398
-0.000162482
1.94096e-06
0.00412951
-0.00016025
-0.000127005
0.00405175
-0.000209611
-0.000154681
0.00399544
-0.000292986
-0.000151801
0.00400269
-0.000320884
-0.000181207
-0.000207166
-0.000284822
0.00377397
-0.000237475
-0.00020181
0.00387784
-5.20496e-05
2.50353e-05
0.00393431
9.99328e-05
0.000208747
0.00393047
0.000158446
0.000263589
0.00390752
8.9279e-05
0.000166844
0.00389711
-1.70732e-05
7.32382e-05
0.00387553
-6.72474e-05
9.53316e-05
0.00382034
-6.89233e-05
0.00012824
0.00373976
-3.49813e-05
5.31168e-05
0.00366598
-3.0115e-05
-0.000115243
0.00364146
-0.000124136
-0.000273416
0.00367732
-0.000287016
-0.000253035
0.00372569
-0.00034479
-9.44494e-06
0.0037309
-0.000235094
0.000270358
0.00371055
-0.000100378
0.000348456
0.00372795
-3.59819e-05
0.000166922
0.0038003
-6.27913e-06
-0.000121825
0.00388518
6.31813e-05
-0.000270955
0.00393037
0.000185116
-0.000240759
0.00394092
0.000237353
-0.000155012
0.00396812
0.00017431
-0.000100718
0.00402687
8.63955e-05
-3.52155e-05
0.00406115
8.14562e-05
7.92148e-05
0.00401506
0.000156812
0.000184192
0.00388567
0.000207058
0.00023213
0.00376518
0.000118132
0.000149309
0.00372606
-6.375e-05
3.01012e-06
0.00375832
-0.00015219
-3.0706e-05
0.00381714
-0.000123084
9.14961e-05
0.00386555
-3.82373e-05
0.000228907
0.0038919
1.27479e-05
0.000209107
0.00389571
-1.00768e-06
7.28673e-05
0.00387833
-4.15092e-05
-3.60896e-05
0.00385331
-9.92249e-05
-6.65e-05
0.00382627
-0.000125254
-6.668e-05
0.0037804
-0.000125058
-9.79081e-05
0.00370982
-0.000158829
-0.00021016
0.0036414
-0.000275079
-0.000352588
0.00361867
-0.000393877
-0.000412399
-0.00037776
-0.000366337
0.00348328
-0.000174039
-8.20452e-05
0.00346735
8.41857e-06
6.56173e-05
0.00342721
0.00012583
0.000140425
0.00340954
0.000105581
0.000150709
0.00343604
-8.18045e-06
8.8023e-05
0.00349748
-0.000123771
8.49152e-05
0.00355403
-0.000150785
0.000152145
0.00356562
-8.85866e-05
0.000162725
0.00351997
3.01662e-05
7.18335e-05
0.00344574
9.19084e-05
-8.51207e-05
0.00337906
-3.30395e-06
-0.000195724
0.00335365
-0.000204307
-0.000216993
0.00335451
-0.000326768
-0.000108192
0.00335648
-0.000261981
1.78449e-05
0.0033751
-0.000115541
-1.81344e-05
0.00341919
6.69e-07
-0.000180487
0.00346775
8.72882e-05
-0.000280042
0.00348853
0.000175774
-0.000179409
0.00348694
0.000243972
3.90918e-05
0.00350137
0.000214995
0.00018613
0.00355887
9.12667e-05
0.000211248
0.0036498
3.82089e-06
0.00018884
0.00371745
7.52004e-05
0.00017564
0.00369812
0.000227305
0.00021559
0.00359422
0.000263303
0.00032368
0.00349679
0.000107562
0.000347961
0.00348013
-9.44479e-05
0.000241167
0.00355672
-0.000191706
0.000178619
0.00366087
-0.000180868
0.000260595
0.00370009
-9.17714e-05
0.000363879
0.0036558
-7.97159e-06
0.000312077
0.00357131
1.48126e-05
0.000131371
0.00349015
-6.24654e-06
-3.1184e-05
0.00342083
-5.85155e-05
-9.3151e-05
0.00337254
-9.35451e-05
-0.000146701
0.00336402
-0.000102667
-0.000251122
0.00337379
-0.000132959
-0.000351853
0.0033896
-0.000233197
-0.00039547
0.00341719
-0.000333922
-0.000347164
-0.000314939
-0.000239501
0.00324459
-3.77412e-05
-0.000168023
0.00332737
7.27364e-05
-5.82401e-05
0.0032984
0.000115701
0.000151141
0.00318926
8.49337e-05
0.000273988
0.00310457
-1.89309e-06
0.000181611
0.00311612
-9.04805e-05
8.79271e-06
0.00321682
-0.000132254
-0.000119659
0.00334182
-8.64675e-05
-0.000191136
0.00339821
8.50789e-05
-0.000179983
0.00334997
0.000219344
-7.76839e-05
0.00323721
0.000167235
7.33042e-05
0.00312807
-2.31604e-05
0.000127651
0.00306343
-0.000218764
6.47839e-05
0.0030508
-0.00024519
-8.32201e-05
0.00307445
-0.000117483
-0.000258205
0.00309262
2.89321e-05
-0.000340902
0.00308214
0.00017343
-0.000293668
0.0030809
0.000270126
-0.000171744
0.00313202
0.000259206
-5.63417e-05
0.00320014
0.000135286
3.97258e-05
0.00323518
-1.79487e-05
0.000119057
0.00325
-6.46396e-05
0.000156262
0.00327978
5.08354e-05
0.000163057
0.00330985
0.000206917
0.000217416
0.00329329
0.000232619
0.000331148
0.00323659
0.000100364
0.000296966
0.00319863
-8.27254e-05
0.000144645
0.00322908
-0.000212584
8.09162e-05
0.00329809
-0.000234238
0.000138943
0.00331857
-0.000141895
0.000204029
0.00326017
-6.07353e-05
0.00019405
0.00317375
-3.98179e-05
0.000131348
0.00310742
-3.38618e-05
4.17693e-05
0.00305893
-1.99381e-05
-7.0739e-05
0.00302694
-5.70684e-08
-0.000239026
0.0030137
-4.15959e-05
-0.000292914
0.00299459
-0.000138231
-0.000177923
0.00297895
-0.000241268
-6.51391e-05
0.00300927
-0.000259446
-7.03159e-05
-0.000166463
-0.000155198
0.00297479
2.22261e-05
-0.000108765
0.00300812
3.94949e-05
0.000112691
0.0029302
6.63878e-05
0.000351712
0.00280844
0.000100311
0.000336492
0.00272274
5.45925e-05
0.000114241
0.00268743
-4.0413e-05
-8.27064e-05
0.00268913
-0.00010764
-0.000259107
0.00277712
-0.000132098
-0.000386871
0.00294321
5.24865e-06
-0.00037571
0.0030536
0.000194049
-0.000187336
0.00304786
0.000256933
8.88221e-05
0.00295996
0.0001643
0.000285564
0.00284818
-1.78446e-05
0.000270437
0.00276766
-0.000101822
4.16835e-05
0.00274365
-4.81125e-05
-0.000194103
0.00277733
6.44355e-05
-0.000318443
0.0028609
0.000201082
-0.000333212
0.00294805
0.000265449
-0.000253414
0.00297245
0.000206227
-0.000136164
0.00291127
7.38874e-05
-6.20325e-05
0.00284636
-6.50036e-05
-8.07296e-05
0.00287156
-0.000101603
-0.000120096
0.00297603
4.2987e-06
-5.65401e-05
0.00305578
0.00016563
0.000127158
0.00305169
0.000254633
0.000209991
0.00300604
0.000176707
5.39493e-05
0.00294302
-8.09005e-06
-0.000102836
0.00286376
-0.000164954
-0.000145998
0.00279306
-0.000220343
-0.000121691
0.00274529
-0.00020269
-5.5241e-05
0.0027157
-0.000183905
3.5983e-05
0.00269271
-0.000156379
9.07989e-05
0.00266661
-0.000110109
7.98904e-05
0.00263975
-4.8726e-05
-1.54775e-05
0.00262831
-3.09524e-05
-0.000189299
0.00262693
-0.000119841
-0.000222623
0.0026172
-0.000220987
-7.54225e-05
0.00262169
-0.000230725
4.24447e-05
0.00269194
-0.00012744
2.26748e-06
-2.09832e-05
-0.000121046
0.00262556
3.85092e-05
-2.41235e-05
0.00262344
-5.04987e-06
8.15416e-05
0.00257669
1.2889e-05
0.000165256
0.00254633
9.25593e-05
0.0001466
0.00253672
0.000108994
9.8783e-05
0.00247683
8.83707e-05
3.96039e-05
0.00234245
3.49422e-05
-0.000118785
0.00224611
-4.46049e-05
-0.000359966
0.00226658
-1.49218e-07
-0.000457847
0.0023722
9.80368e-05
-0.00035223
0.00253199
0.000124755
-0.000157858
0.00268744
6.16157e-05
0.000101254
0.00272738
-2.48435e-05
0.000270847
0.00264626
1.66225e-05
0.000202514
0.00254844
0.000120874
1.98845e-06
0.00254309
0.000167097
-0.000169414
0.00263465
0.000207935
-0.000214864
0.00270668
0.000216095
-0.000123257
0.00266404
0.000192514
-4.39573e-05
0.00254166
0.000146874
-7.64112e-05
0.00246922
3.02484e-05
-0.000135907
0.00252245
-6.0205e-05
-0.000102436
0.00264094
2.791e-06
2.55658e-05
0.00272337
0.000164458
0.00015916
0.00274416
0.000259856
0.000144351
0.00274283
0.000161858
-9.39582e-06
0.00270039
-3.13229e-05
-9.1512e-05
0.00259353
-0.000177254
-7.89969e-05
0.00247531
-0.000251869
-3.89895e-05
0.00241189
-0.000312836
1.76735e-05
0.00240628
-0.000310093
3.92306e-05
0.00241599
-0.00022003
8.54399e-06
0.00240434
-0.000147111
1.22116e-05
0.00236273
-9.41822e-05
1.44487e-05
0.00231598
-0.000103514
-7.75397e-05
0.00228554
-0.000168665
-0.00014143
0.00227608
-0.000164616
-0.000117736
0.0023072
-7.29942e-05
-6.98672e-05
0.00240711
5.07178e-05
-3.54879e-05
8.20647e-05
-4.45245e-05
0.00243604
-3.80254e-06
-5.46518e-05
0.0024209
-1.9525e-06
-5.16929e-05
0.00236124
4.55959e-05
5.58405e-06
0.00236159
0.000101002
5.40835e-05
0.0023935
9.73748e-05
0.000101227
0.00232996
0.000130364
0.000104904
0.00217784
0.000122568
-4.64529e-05
0.00205734
2.3608e-05
-0.00025198
0.00202755
1.85932e-05
-0.000312623
0.00208098
5.70176e-05
-0.000238341
0.0021955
4.39985e-05
-0.000127953
0.00230909
-8.50132e-06
1.31653e-05
0.00234261
-2.35312e-05
0.000126064
0.00229777
0.000100272
0.000151464
0.00227755
0.000190593
0.000125428
0.00235591
0.000152214
7.01941e-05
0.00247528
0.000125016
2.40125e-05
0.0025071
0.000147217
1.00913e-05
0.00242601
0.000216944
-1.26809e-05
0.00232517
0.000234417
-3.39772e-05
0.00228112
9.22137e-05
4.11465e-05
0.00230774
-1.16612e-05
0.000130818
0.00236343
6.99071e-05
0.000151935
0.00239474
0.000223196
0.000160413
0.00240793
0.000262178
0.000139413
0.00243802
0.000117493
5.24514e-05
0.00247554
-7.21069e-05
-3.45146e-05
0.00247808
-0.00016575
-0.000102897
0.00241754
-0.000206101
-0.000149359
0.00233553
-0.000292067
-0.000145247
0.00228321
-0.000302658
-9.86691e-05
0.00225873
-0.000199068
-5.62172e-05
0.00223715
-0.000135027
1.45684e-05
0.00220329
-9.41233e-05
1.68736e-05
0.00216541
-0.000113286
-9.69888e-05
0.00212765
-0.000153098
-0.00011539
0.00208652
-9.46471e-05
1.22561e-05
0.002084
2.79961e-05
0.000138805
0.00217871
0.000102252
0.000157173
5.62602e-05
4.52098e-05
0.00215155
4.00165e-05
-9.92857e-05
0.00212225
0.000103393
-6.98809e-05
0.0020937
0.000147164
1.03975e-05
0.00211108
0.000147914
3.422e-05
0.00211976
0.00011883
1.15474e-05
0.00203914
0.000170816
-2.6586e-05
0.0019385
0.000166692
-0.00011137
0.00189136
4.73089e-05
-0.000163018
0.00190901
1.3523e-05
-0.00013294
0.00197868
9.46048e-06
-7.96492e-05
0.00207385
-1.39376e-05
-1.74529e-05
0.00212484
-3.01932e-06
6.04997e-05
0.00210334
4.4474e-05
0.000129815
0.00207449
0.000153399
0.000182122
0.00211131
0.000148837
0.000205148
0.00218769
6.15215e-05
0.000161814
0.0022195
7.44484e-05
6.85106e-05
0.00219174
0.000141433
1.71976e-05
0.0021641
0.000212756
3.13633e-05
0.00215039
0.000209901
9.4233e-05
0.00211866
9.62951e-05
0.000185001
0.00208536
6.72163e-05
0.00019932
0.00209299
0.000175398
0.000146387
0.00214923
0.000269644
0.000124153
0.00221729
0.00024196
9.4699e-05
0.00223567
8.68367e-05
2.59138e-05
0.00216882
-4.00323e-05
-5.50542e-05
0.00203616
-4.63291e-05
-0.000121477
0.00189945
-7.85138e-05
-0.000163748
0.00183397
-0.000221398
-0.000204325
0.00185378
-0.000286152
-0.000187127
0.00191462
-0.000213674
-9.82704e-05
0.00196061
-0.000161194
3.10007e-05
0.00196078
-0.000130319
7.34121e-05
0.00193962
-0.000170376
8.76411e-06
0.00192022
-0.00020016
2.32744e-05
0.00190683
-9.79308e-05
0.000114196
0.00193514
4.44059e-05
0.000158718
0.00202705
9.24883e-05
0.000101285
4.0711e-05
-1.90098e-05
0.00191129
0.000106886
-0.000122705
0.00187844
0.000186129
-4.5874e-05
0.00185867
0.000187117
6.04257e-05
0.00188447
0.000140616
8.89912e-05
0.00189714
0.000136274
1.92341e-05
0.00184756
0.000243956
-8.72e-05
0.00178973
0.000223882
-0.000169376
0.00176054
2.35783e-05
-0.000129319
0.00177587
-5.32458e-05
-3.78178e-05
0.00183939
-5.67434e-05
1.90367e-06
0.00189834
-1.25084e-05
1.28761e-06
0.0019073
5.30157e-05
4.33058e-05
0.00189601
6.92922e-05
0.000154059
0.00190283
8.32458e-05
0.00024471
0.00189827
3.37551e-05
0.000222837
0.00186196
-3.85624e-06
9.23371e-05
0.00185152
4.59533e-05
-2.16751e-05
0.00191356
8.07902e-05
1.74694e-06
0.00198731
0.000138709
9.13006e-05
0.00195738
0.000199082
0.000152323
0.00182961
0.000174771
0.000183349
0.00174322
0.000158683
0.000166263
0.00180331
0.000180874
0.000134098
0.00198119
0.000182459
9.79036e-05
0.00213027
0.000146758
4.66302e-05
0.00210358
8.69461e-05
8.23746e-06
0.00192192
4.05029e-05
-1.17134e-05
0.00173338
7.63322e-06
-3.66156e-05
0.00163072
-9.87339e-05
-7.52252e-05
0.00161206
-0.000265476
-0.000110898
0.00164895
-0.000296873
-0.000130083
0.00172142
-0.000212153
-0.000126493
0.00179208
-0.00019166
-3.06662e-05
0.00181799
-0.000184951
7.78612e-05
0.00180755
-0.000239302
0.000108604
0.00178522
-0.000268947
0.00014237
0.00176559
-0.000132645
0.000169602
0.00178112
3.26297e-05
0.000134646
0.00184466
7.9527e-05
4.3031e-05
4.96429e-05
-7.39793e-05
0.00173576
9.15074e-05
-9.55387e-05
0.00171672
0.000177484
-3.02343e-05
0.00168293
0.000175789
0.000110132
0.00166405
0.000116492
0.000108948
0.00165044
0.000129758
-2.64063e-05
0.00162915
0.000271065
-0.000129105
0.00161434
0.000198395
-0.000116299
0.00162632
-0.000125539
-3.09006e-05
0.00167261
-0.000272969
4.4674e-05
0.00171672
-0.000174264
5.64436e-05
0.00172977
2.89272e-05
3.90943e-05
0.00173777
0.000106417
6.47063e-05
0.0017604
7.33394e-06
0.000156591
0.00176608
-5.01052e-05
0.000200751
0.00172317
-9.53656e-05
0.000163769
0.00168692
-0.000132235
0.000125723
0.00171801
-6.19721e-05
0.000112491
0.00178906
6.26968e-06
0.000127429
0.00180064
0.000119541
0.000132383
0.0017088
0.000230389
0.000142444
0.00158025
0.000214784
0.000177092
0.0015494
0.000139507
0.000156016
0.00168129
5.38711e-05
9.97244e-05
0.00187767
2.91435e-05
3.27117e-05
0.00195265
0.000126088
-1.2995e-05
0.00182932
0.000200789
-1.16928e-05
0.00162898
0.000118177
-2.84689e-05
0.00148765
-8.98661e-06
-0.000102055
0.00142604
-0.00016163
-0.000161623
0.00143784
-0.000339225
-0.000189266
0.0015171
-0.000340278
-0.000201404
0.00161464
-0.000222571
-0.000164597
0.00166131
-0.000164361
-3.54264e-05
0.00163828
-0.000137443
8.17092e-05
0.00158849
-0.000220037
8.71029e-05
0.00156172
-0.000316811
0.000112693
0.00157709
-0.000211819
0.000161733
0.00162269
-1.32964e-05
0.000149988
0.00167883
7.32319e-05
7.92173e-05
4.52606e-05
-2.6911e-05
0.00156875
9.02394e-05
-0.000164102
0.00158142
0.000222977
-6.43057e-05
0.00155264
0.000230949
6.16405e-05
0.00150873
0.000128648
3.50289e-05
0.00147233
0.000142014
-3.94767e-05
0.00146706
0.000262951
-2.87409e-05
0.00148882
0.000126505
3.01865e-05
0.00151159
-0.000216435
6.57191e-05
0.00153977
-0.000361502
0.000117522
0.00158495
-0.000247535
0.00011491
0.00164209
-4.01657e-05
9.11065e-05
0.00166555
1.12147e-05
0.000132927
0.00163305
-9.95035e-05
0.000186518
0.00157394
-0.000121054
0.000151231
0.00153716
-0.000204708
7.33015e-05
0.00155716
-0.000305234
7.30118e-05
0.00158575
-0.000148667
0.000113601
0.00158787
3.74533e-05
8.01287e-05
0.00157244
0.000144609
5.99744e-05
0.00151698
0.000200923
0.000162867
0.00143647
0.000175927
0.000218215
0.0014409
9.13879e-05
0.000104927
0.00157884
-4.85303e-05
-7.66863e-06
0.00172122
-4.25649e-05
-2.72098e-05
0.00172188
0.000186241
-4.60267e-06
0.00159075
0.00032379
1.86451e-06
0.00145109
0.000165527
-3.074e-05
0.00137189
-4.18568e-05
-6.42383e-05
0.00133462
-0.000162195
-9.48455e-05
0.00134675
-0.00030588
-0.000142451
0.00141936
-0.000316459
-0.000176561
0.00150497
-0.000231167
-9.03498e-05
0.00152322
-0.000158039
8.33291e-05
0.00147498
-6.50557e-05
0.000128039
0.00141343
-0.000156536
7.25123e-05
0.00139169
-0.000357823
7.45372e-05
0.00142223
-0.000277463
8.24537e-05
0.00146375
-1.24971e-05
7.93341e-05
0.00149221
0.000100162
3.3918e-05
5.30963e-05
-8.8675e-05
0.00140764
0.000120946
-0.000148573
0.00145414
0.000234962
-7.41557e-05
0.0014393
0.00021373
1.36593e-05
0.00135116
0.000167745
2.10101e-05
0.00130546
0.000199252
-1.54766e-05
0.00136479
0.000227384
-1.31218e-05
0.00144165
5.43439e-05
-3.17317e-05
0.00144045
-0.000211677
-2.09016e-05
0.00141584
-0.000286961
5.07973e-05
0.00144923
-0.000229386
6.79798e-05
0.00152878
-0.000168688
0.000110515
0.00156617
-0.000139825
0.000168306
0.00150344
-0.000120448
0.000118762
0.00139646
-7.52831e-05
5.60601e-05
0.00134839
-0.000232604
3.05867e-05
0.00136555
-0.000356341
1.65005e-05
0.00139571
-0.000107974
-3.76274e-05
0.00142719
9.84623e-05
-8.03045e-05
0.00143887
0.000133369
8.6627e-06
0.00139024
0.000165724
0.000188081
0.00134145
0.000182351
0.000197419
0.00138547
9.94646e-05
2.67166e-05
0.00148736
-9.09338e-05
-9.33012e-05
0.00153645
-8.76589e-05
-9.32656e-05
0.0015003
0.000190068
-3.8693e-05
0.00143257
0.000317522
7.10686e-06
0.00136042
0.000151484
3.36962e-05
0.00129811
-7.38212e-06
5.94855e-05
0.00127757
-9.9457e-05
4.77631e-05
0.00130185
-0.000250993
-1.87901e-05
0.00135205
-0.000282357
-7.01979e-05
0.00138762
-0.000240489
-2.4534e-05
0.00138067
-0.000141615
5.95672e-05
0.00136957
1.48132e-05
7.99524e-05
0.001345
-8.92497e-05
0.000117618
0.00132982
-0.000383513
0.00018524
0.00132563
-0.000305213
0.000145706
0.00132775
-1.71939e-05
4.50919e-05
0.00135339
5.03198e-05
-5.35877e-05
1.55784e-05
-0.000132935
0.00123866
5.14546e-05
-3.72122e-05
0.00130929
7.21497e-05
1.22497e-05
0.00124754
0.000127951
7.63827e-05
0.00114765
0.000193901
8.79665e-05
0.001188
0.000163779
4.18992e-05
0.00130553
0.000133537
-3.03469e-05
0.00133582
1.78778e-05
-9.61664e-05
0.00130653
-0.000198701
-5.16802e-05
0.0013031
-0.000269416
1.90977e-05
0.00132954
-0.000231673
3.98146e-06
0.00135422
-0.000192083
1.1356e-05
0.00136477
-0.000203805
0.000149219
0.00135447
-0.000156535
0.000179376
0.00130777
-6.22595e-05
6.54683e-05
0.00122279
-0.000206497
6.04252e-05
0.00114769
-0.000305473
5.55401e-05
0.00115745
-5.21466e-05
-5.39696e-05
0.00126137
4.65877e-05
-8.92974e-05
0.00134557
4.48672e-05
-5.64477e-06
0.00131573
0.000161456
0.000142414
0.0012729
0.000205669
0.000193404
0.00131895
6.29247e-05
0.000128492
0.00138689
-0.000136354
1.70618e-05
0.00139947
-9.19964e-05
-8.88212e-05
0.00138407
0.000200484
-7.4335e-05
0.00134935
0.000325428
1.94864e-05
0.00126954
0.000197921
7.43228e-05
0.00121343
2.10696e-05
7.61481e-05
0.00120919
-0.000134505
6.37218e-05
0.00121601
-0.000249395
-1.11001e-05
0.00123915
-0.000274727
-6.47064e-05
0.00123985
-0.000247282
-3.81684e-05
0.00123763
-0.000112162
-1.27017e-06
0.00128215
7.63971e-05
3.19616e-05
0.00127357
-2.3731e-05
0.000121746
0.0012207
-0.000335251
0.000173831
0.00121901
-0.000312605
0.000122592
0.00124125
-3.71189e-05
-3.37997e-06
0.00122315
5.4711e-05
-7.84513e-05
-7.83517e-06
-6.15318e-05
0.00122331
-8.62891e-05
-0.000138513
0.00119856
1.30394e-05
-1.59459e-05
0.00109229
0.000144896
5.54238e-05
0.00108226
0.000166931
2.12667e-05
0.001139
5.96048e-05
4.62109e-05
0.00115529
0.000111507
4.59563e-05
0.00107311
0.000115436
-1.60613e-05
0.00101466
-0.000202915
1.61315e-05
0.00108146
-0.00035646
2.88658e-05
0.00115642
-0.000196603
-1.2846e-05
0.00119161
-0.000155246
4.42695e-05
0.0012582
-0.000301453
0.000182461
0.00133114
-0.000269271
0.000182345
0.00127156
-5.40031e-05
6.85326e-05
0.00107906
-0.000126211
0.000144279
0.000967681
-0.000260896
0.000218943
0.00101991
-5.24755e-05
6.19249e-05
0.0011408
8.05379e-06
-5.72911e-05
0.00123671
-3.3649e-05
-1.40673e-05
0.00121907
0.000124978
0.000109124
0.00116423
0.000212858
0.000147555
0.00117192
6.49564e-05
0.000104517
0.00119152
-0.000101083
2.0087e-05
0.00121626
-9.26243e-05
-6.05246e-05
0.00121869
0.000215721
-8.86971e-05
0.00120477
0.000357632
-5.20213e-05
0.00120076
0.000175169
-3.28254e-06
0.0011674
-4.6492e-06
-3.56335e-05
0.00109214
-0.000129943
-4.20989e-05
0.00103263
-0.000186675
-3.62406e-05
0.00104257
-0.000206671
-6.85795e-05
0.00106844
-0.000194011
-5.34146e-05
0.00111273
-6.78944e-05
-3.21581e-05
0.00122757
1.94957e-05
5.17179e-05
0.00124859
-8.59672e-05
0.000153496
0.00114368
-0.000328991
0.000133867
0.0010666
-0.000330534
6.17211e-05
0.00103716
-1.0303e-05
-7.89873e-06
0.00102742
0.000105134
-7.13057e-05
-5.4826e-05
-0.000140851
0.00106625
-0.0001563
-2.91696e-05
0.00100127
6.46498e-06
6.1394e-05
0.000993752
0.000115766
-2.17019e-05
0.00104414
9.00154e-05
-5.30174e-05
0.00103354
-7.27601e-06
5.75752e-05
0.00102234
9.39794e-05
3.59434e-05
0.000953795
0.000223446
-6.95188e-05
0.000829752
-9.32617e-05
-3.93964e-05
0.000844005
-0.000420328
1.5453e-06
0.000981868
-0.000257227
-4.62025e-05
0.00109603
-0.00018155
2.27237e-05
0.00117492
-0.000355978
0.000147682
0.00116914
-0.000255776
9.42371e-05
0.00100332
0.0001097
6.10879e-06
0.000793364
5.77254e-05
7.62875e-05
0.000756266
-0.000278158
0.000212038
0.00089977
-0.000227324
0.000218431
0.00106317
-0.000158144
0.00013363
0.00114276
-0.000147293
9.60807e-05
0.0011232
0.000140419
0.000122925
0.00108729
0.000296936
0.000147845
0.00107475
0.000123581
0.000132691
0.00104824
-3.6792e-05
1.16756e-05
0.00105697
-6.08361e-05
-7.21791e-05
0.00110438
0.000213126
-7.07088e-05
0.00116637
0.000302878
-3.4491e-05
0.00119912
9.03201e-05
2.18783e-06
0.00111983
-3.81917e-06
-3.55849e-05
0.000976207
-5.14946e-05
2.69658e-06
0.000851107
-7.06783e-05
5.25698e-05
0.000845253
-0.000116439
-6.91829e-05
0.000919475
-0.000151689
-0.000140162
0.000984656
-4.70401e-05
-8.83231e-05
0.00110246
-0.000101903
6.28508e-05
0.00114691
-0.000214776
0.000220516
0.00103543
-0.00026797
0.00014409
0.00089514
-0.000228145
-5.10268e-05
0.000869136
6.59117e-06
-0.000112531
0.000950194
1.76784e-05
-0.000112923
-0.000136835
-0.000146624
0.000722168
-0.000236808
7.56197e-05
0.000806703
-6.49585e-05
3.47468e-05
0.000871492
0.00010583
-4.37422e-05
0.000881788
9.03123e-05
1.97792e-05
0.000903472
-5.92369e-05
6.25889e-05
0.000982551
1.69007e-05
1.85749e-06
0.000974959
0.000294022
-4.65397e-05
0.000854467
6.37714e-05
-4.79658e-05
0.000803525
-0.000386415
-6.70857e-05
0.000891457
-0.000350932
-2.51521e-05
0.000972417
-0.000229524
6.63116e-05
0.000959867
-0.000290542
0.000112239
0.000907244
-0.000139143
7.7167e-05
0.000811965
0.0002275
4.58007e-05
0.000712944
0.000120421
5.09783e-06
0.000724499
-0.00034314
8.09166e-05
0.00083832
-0.000353475
0.000186914
0.000958754
-0.000250664
0.000128757
0.00101157
-0.000162121
0.000101507
0.00100403
0.000242715
0.000117931
0.00101134
0.000345951
0.000148086
0.000984931
0.000161497
0.000125416
0.00092118
2.87434e-05
1.12128e-05
0.000913213
8.78121e-06
-6.79835e-05
0.000983705
0.00024704
-8.23691e-05
0.00101614
0.000319688
-4.9961e-06
0.00100456
9.8757e-05
6.57207e-06
0.000986444
-3.2885e-06
7.82344e-06
0.000859969
8.58034e-05
4.52083e-05
0.000711797
7.71904e-05
2.14983e-05
0.000703184
-0.000170691
-3.66536e-05
0.00076542
-0.000236936
-5.64649e-05
0.000877916
-0.000159753
6.59869e-05
0.00096466
-0.000206634
0.000146626
0.000926763
-0.000215696
0.000117275
0.000839966
-0.0001854
1.48886e-05
0.00085975
-0.000173049
-0.000102689
0.000934474
-4.35347e-05
-3.68447e-05
0.000875074
-2.52209e-05
-1.3608e-05
-0.000127567
-7.30662e-06
0.000668604
-0.000283531
7.96931e-05
0.000681492
-5.24964e-05
8.71115e-06
0.000701984
8.80283e-05
-1.78659e-05
0.000742881
6.26723e-05
7.31192e-05
0.000795446
-7.83355e-05
3.90829e-05
0.000872749
-1.02361e-05
-2.93493e-05
0.000913704
0.000216882
2.61014e-05
0.000890281
3.67428e-05
4.04401e-05
0.000815722
-0.000267965
-4.91412e-05
0.000748266
-0.000276936
2.74395e-06
0.000735672
-0.000262634
0.000144248
0.00073103
-0.000303371
0.000185675
0.000713769
-9.52436e-05
0.000104538
0.000712304
0.00017463
3.60785e-06
0.000709298
-9.07915e-06
-2.41243e-05
0.000700376
-0.000336017
5.04578e-05
0.000698772
-0.0001975
5.45622e-05
0.000746425
-0.00016795
-6.96555e-06
0.000816558
-0.000137352
1.84009e-05
0.000897796
0.000216929
0.000107001
0.000955464
0.00023896
0.000197763
0.000899779
0.000123082
0.000119136
0.000797317
8.11335e-05
-1.53394e-06
0.000782972
8.67208e-05
-1.11172e-05
0.000828403
0.000350893
-3.63384e-05
0.000812411
0.000412228
-4.16704e-05
0.000846769
3.68042e-05
3.54032e-06
0.0008907
-2.23097e-05
7.97022e-05
0.00076806
0.000232229
4.57519e-05
0.00068725
0.00013105
-1.2634e-05
0.000698458
-0.000241883
4.46837e-05
0.000704026
-0.000341242
3.44375e-05
0.000833646
-0.000301212
7.4157e-05
0.00090062
-0.000231498
9.26273e-05
0.000773939
-0.000140614
1.92407e-05
0.000706634
-0.000170875
-7.37946e-06
0.000768849
-0.000243465
5.96945e-05
0.000799695
-0.000129888
0.00016456
0.000743955
-7.72292e-05
0.000125767
-0.00020992
7.76312e-05
0.000645826
-0.000198005
6.26889e-05
0.000591515
4.93301e-05
-3.46483e-05
0.00061527
0.000127223
-0.000100633
0.000708698
-3.35398e-05
2.18555e-05
0.000761482
-0.000186971
5.37564e-05
0.0007931
-5.12527e-05
-1.09495e-05
0.000805724
0.000156399
9.04175e-05
0.000745195
5.36977e-06
0.000176037
0.000679963
-0.000177949
6.09539e-05
0.000675359
-0.000227575
3.25808e-05
0.000658792
-0.00022988
0.000133909
0.00058929
-0.000185963
9.68787e-05
0.000553557
-3.85971e-05
-6.25571e-05
0.000621019
3.51434e-05
-0.000147928
0.000665458
-0.000231295
-9.60498e-06
0.000634696
-0.000350765
0.000120336
0.000623967
-8.22543e-05
9.39468e-05
0.000654052
-0.000137956
6.3808e-05
0.000694537
-0.000145721
0.000103288
0.000791984
0.000120055
0.000155697
0.000852466
0.000144734
0.000167465
0.000801496
0.000120067
4.17416e-05
0.000729332
0.000120544
-7.28901e-05
0.000704068
0.000139111
-1.29285e-05
0.000721489
0.000408111
8.28703e-05
0.000759784
0.000340607
9.61351e-05
0.000802039
-7.75591e-05
0.000105021
0.000748924
4.48889e-05
8.43025e-05
0.000679278
0.000248661
1.92086e-05
0.000681269
8.80874e-05
4.60979e-05
0.000666131
-0.00017743
1.46435e-05
0.000641568
-0.000310738
-5.0529e-05
0.000706171
-0.000285682
-3.93325e-05
0.000762022
-0.000211072
-7.46968e-07
0.000708891
-0.000123809
5.78554e-06
0.000681651
-0.000181668
2.71358e-05
0.000705533
-0.000280784
7.82527e-05
0.000729225
-0.000185654
0.00010876
0.000745226
-0.000115762
0.000109918
-0.000241906
0.000109305
0.000542467
-0.000137537
2.15222e-05
0.000580436
5.23451e-05
-5.18973e-05
0.000632279
0.000121619
-0.000115458
0.000676006
-7.46231e-05
6.39686e-06
0.000706902
-0.000249678
3.38291e-05
0.000767249
-0.000111928
-7.10969e-05
0.000795671
0.000152029
-4.81762e-06
0.00073511
2.60619e-05
0.000136083
0.000671776
-0.000136362
9.88282e-05
0.000622153
-0.000128942
4.03299e-06
0.000555501
-0.000154075
5.61837e-05
0.000534259
-0.000123998
1.35563e-05
0.00057903
-9.85601e-05
-6.90609e-05
0.000622447
-0.000130811
-0.000110626
0.000621685
-0.000371872
4.82124e-05
0.000640339
-0.000414243
0.000159573
0.00066825
-9.209e-05
0.000117762
0.000656461
-0.000119333
8.80628e-05
0.000643469
-0.000131573
0.000116924
0.000707734
2.14679e-05
0.00015566
0.000758042
3.06172e-05
5.31212e-05
0.000708311
8.66002e-05
-7.88055e-05
0.000653201
0.000137813
-0.000101438
0.000678965
0.000124673
-1.08097e-05
0.000715895