/*--------------------------------*- C++ -*----------------------------------*\
  =========                 |
  \\      /  F ield         | OpenFOAM: The Open Source CFD Toolbox
   \\    /   O peration     | Website:  https://openfoam.org
    \\  /    A nd           | Version:  10
     \\/     M anipulation  |
\*---------------------------------------------------------------------------*/
FoamFile
{
    format      ascii;
    class       volVectorField;
    location    "2";
    object      U_0;
}
// * * * * * * * * * * * * * * * * * * * * * * * * * * * * * * * * * * * * * //

dimensions      [0 1 -1 0 0 0 0];

internalField   nonuniform List<vector> 
25600
(
(1.10641 0.0302076 -0.0241845)
(1.13287 0.0433593 -0.0220036)
(1.1533 0.0438671 -0.0214678)
(1.15373 0.0307885 -0.0161872)
(1.13866 0.00872051 -0.0042003)
(1.12071 -0.00762539 0.00770201)
(1.10697 -0.00731829 0.0122792)
(1.10111 0.00494954 0.00468763)
(1.10254 0.0153994 -0.0116152)
(1.10734 0.00972536 -0.027538)
(1.10982 -0.00997977 -0.0373136)
(1.1101 -0.025452 -0.0408475)
(1.10807 -0.0250859 -0.0410882)
(1.10043 -0.0103428 -0.0391028)
(1.09217 0.00956845 -0.0330064)
(1.09088 0.0251236 -0.0203887)
(1.09418 0.0318753 -0.00294113)
(1.10018 0.0298742 0.0143204)
(1.1026 0.0192673 0.0216636)
(1.10206 0.00675889 0.0143387)
(1.10352 -0.00183403 -0.00494963)
(1.10392 -0.00138437 -0.0285435)
(1.10334 0.00747944 -0.0430522)
(1.10664 0.0134495 -0.0456073)
(1.10916 0.0168967 -0.0371999)
(1.11536 0.016719 -0.0208095)
(1.1247 0.0125352 -0.00371026)
(1.135 0.0137423 0.0078171)
(1.14703 0.0124565 0.00776041)
(1.1527 0.00482607 -0.000576382)
(1.15241 -0.00553513 -0.00643411)
(1.1486 -0.0160702 -0.00557652)
(1.1422 -0.0220472 0.00336598)
(1.13155 -0.0268532 0.0127193)
(1.11706 -0.0319026 0.0156877)
(1.10024 -0.0319585 0.0102729)
(1.08443 -0.0245352 -0.00275104)
(1.07524 -0.0141044 -0.0169402)
(1.07372 -0.00137317 -0.0265133)
(1.08458 0.0133694 -0.0278245)
(1.13095 0.00325585 -0.0241802)
(1.14143 0.0138878 -0.0391281)
(1.15015 0.0281413 -0.0399872)
(1.15176 0.0424212 -0.0241263)
(1.14732 0.0498696 -0.00244221)
(1.14433 0.0501996 0.0097316)
(1.14678 0.0483971 0.00793206)
(1.16209 0.0450901 -0.00166324)
(1.17891 0.0351404 -0.0114765)
(1.17908 0.0158325 -0.0175231)
(1.15762 -0.0107858 -0.0240741)
(1.12385 -0.0324704 -0.0336133)
(1.09628 -0.0330079 -0.0405789)
(1.0833 -0.0146296 -0.0381291)
(1.08575 0.00806902 -0.0221281)
(1.10222 0.0222446 0.00380307)
(1.12168 0.0204977 0.0296602)
(1.13275 0.00951522 0.0467897)
(1.12714 -0.00416813 0.0448874)
(1.10893 -0.0152889 0.0230407)
(1.09795 -0.0181692 -0.00452663)
(1.10187 -0.00838046 -0.0255947)
(1.1165 0.0113954 -0.032094)
(1.1341 0.0252257 -0.0258466)
(1.1387 0.0236803 -0.0120171)
(1.12939 0.00732666 0.00673486)
(1.11958 -0.0152892 0.0241229)
(1.12223 -0.021928 0.0302637)
(1.13771 -0.0136205 0.0186999)
(1.14843 -0.00429707 -0.000830971)
(1.14196 -0.00337778 -0.010642)
(1.11896 -0.0158366 -0.00438126)
(1.0915 -0.0287967 0.0111028)
(1.06827 -0.0360489 0.0216905)
(1.05768 -0.0371386 0.0188986)
(1.05727 -0.0341181 0.0079287)
(1.06017 -0.031276 -0.00217397)
(1.07242 -0.0274131 -0.00484168)
(1.08974 -0.018883 -0.00409069)
(1.11146 -0.00736262 -0.00945917)
(1.04622 0.028216 -0.0732812)
(1.07309 0.0461933 -0.0542955)
(1.09905 0.0460991 -0.0151471)
(1.11145 0.0318404 0.0258262)
(1.11292 0.0158823 0.0458691)
(1.12124 0.00943541 0.0382587)
(1.13967 0.015041 0.0176926)
(1.15167 0.0221932 -0.00208855)
(1.14434 0.0177863 -0.0137447)
(1.12014 0.00177759 -0.0164373)
(1.09231 -0.0171919 -0.0186668)
(1.07668 -0.0286902 -0.023087)
(1.07586 -0.0249984 -0.0189964)
(1.08036 -0.0173931 -0.00391185)
(1.08149 -0.0175611 0.0143788)
(1.08091 -0.0211754 0.0256346)
(1.08738 -0.0204783 0.024131)
(1.10011 -0.0073117 0.0165975)
(1.10863 0.0160974 0.00889782)
(1.10527 0.0348851 -0.00142172)
(1.09988 0.0393531 -0.0149316)
(1.10624 0.0313405 -0.0231671)
(1.11962 0.0207906 -0.0154948)
(1.13027 0.0117367 0.00630946)
(1.12882 0.0035577 0.0297045)
(1.11212 -0.010092 0.0358157)
(1.08999 -0.0278777 0.0199716)
(1.07883 -0.0271765 -0.00121551)
(1.07559 -0.00981023 -0.0103305)
(1.07734 0.00828807 0.00269206)
(1.08004 0.0127027 0.0258214)
(1.07761 -0.00126729 0.0400363)
(1.07735 -0.0201413 0.038728)
(1.07141 -0.0377814 0.0211078)
(1.06498 -0.0434948 -0.00313721)
(1.05537 -0.0422545 -0.019473)
(1.03436 -0.0425324 -0.028106)
(1.0158 -0.0401572 -0.0377198)
(1.00894 -0.0295095 -0.0515327)
(1.02159 -0.0030674 -0.0680267)
(1.04016 -0.0266473 -0.032999)
(1.07167 0.00682317 0.0046759)
(1.09615 0.0273693 0.0323357)
(1.09964 0.0354794 0.0335547)
(1.09044 0.0265607 0.0131933)
(1.08776 0.0128518 -9.0851e-06)
(1.08532 0.00730318 0.00443957)
(1.0727 0.0020029 0.00850369)
(1.05289 -0.00416961 -0.00144999)
(1.02836 -0.0174201 -0.0230548)
(1.01317 -0.0432258 -0.0402047)
(1.01849 -0.0705321 -0.034399)
(1.0355 -0.0710233 -0.00118926)
(1.04418 -0.0397837 0.0348212)
(1.03675 -0.00824991 0.0456502)
(1.0335 0.00388917 0.0247497)
(1.04809 0.0036665 -0.0107003)
(1.07567 0.0114138 -0.0317027)
(1.09612 0.0332729 -0.032664)
(1.09737 0.0471155 -0.0251223)
(1.10004 0.0397721 -0.0147769)
(1.11664 0.0237337 0.00295966)
(1.13213 0.0153162 0.0237925)
(1.13089 0.0155146 0.0340364)
(1.10278 0.0200082 0.0281787)
(1.05856 0.011972 0.00507788)
(1.03532 -0.0130496 -0.0157284)
(1.04294 -0.0251315 -0.011045)
(1.05693 -0.0193088 0.0154591)
(1.07387 -0.00577641 0.0365705)
(1.08498 -0.000149416 0.0298988)
(1.08688 -0.00828014 0.00829236)
(1.08496 -0.0180051 -0.007374)
(1.0757 -0.02386 -0.0125042)
(1.07133 -0.0216462 -0.0142321)
(1.06173 -0.0247312 -0.0188706)
(1.04251 -0.0459419 -0.0331882)
(1.02166 -0.0790897 -0.0523256)
(1.00534 -0.0943216 -0.0616128)
(1.01261 -0.0692153 -0.0569364)
(1.06845 -0.0564345 0.0168308)
(1.06832 -0.0185484 0.0284516)
(1.05672 0.0164533 0.0218554)
(1.0446 0.0254266 0.00916422)
(1.04725 0.00448909 -0.00188687)
(1.06446 -0.0227103 0.00652504)
(1.08544 -0.0332914 0.0273249)
(1.09617 -0.0261688 0.0337549)
(1.08858 -0.00798469 0.0181197)
(1.06661 0.00294666 -0.00890309)
(1.04234 -0.0132345 -0.027561)
(1.02902 -0.049229 -0.0270354)
(1.02862 -0.0657587 -0.0113775)
(1.0291 -0.0496233 -0.000708881)
(1.03193 -0.0277449 -0.00820537)
(1.04216 -0.0151974 -0.024933)
(1.05747 -0.00338637 -0.0309786)
(1.07142 0.0200069 -0.0162197)
(1.07067 0.0457473 0.00752953)
(1.06851 0.0483703 0.0249511)
(1.08097 0.0273935 0.031472)
(1.10803 0.00869157 0.0354022)
(1.13641 0.0170477 0.0388272)
(1.14409 0.0461576 0.0382923)
(1.12063 0.0578882 0.0372605)
(1.07947 0.0278904 0.0320719)
(1.06043 -0.0160056 0.0261065)
(1.07727 -0.0335072 0.031571)
(1.11121 -0.0244743 0.0471298)
(1.13802 -0.00577084 0.0516751)
(1.13289 0.00522774 0.0306995)
(1.10596 0.00556072 0.000499934)
(1.07916 -0.00282354 -0.0182657)
(1.05664 -0.0190745 -0.0237849)
(1.03792 -0.0300271 -0.0321948)
(1.03 -0.028334 -0.0476428)
(1.03308 -0.0257071 -0.0612176)
(1.03683 -0.0418227 -0.0593097)
(1.04315 -0.0683877 -0.0379695)
(1.05619 -0.0763973 -0.0105238)
(1.07684 -0.00986682 -0.00250595)
(1.1206 0.0234127 -0.00946383)
(1.12773 0.0315125 0.00623946)
(1.09371 0.0141023 0.0275335)
(1.05241 -0.00951363 0.022326)
(1.04016 -0.0255893 0.00504591)
(1.06566 -0.025816 -0.0121272)
(1.11342 -0.00623168 -0.0242371)
(1.14893 0.024311 -0.0245714)
(1.14413 0.0335127 -0.0167707)
(1.10937 0.00245349 0.00016467)
(1.06843 -0.0435385 0.0137744)
(1.03744 -0.0662776 0.00753148)
(1.02619 -0.0495959 -0.014283)
(1.03398 -0.0134099 -0.0352501)
(1.04387 0.0169334 -0.0414196)
(1.04212 0.0371741 -0.0328209)
(1.03716 0.049496 -0.0216771)
(1.04566 0.0501757 -0.0147405)
(1.07212 0.0331745 -0.00635292)
(1.09077 0.00452668 0.00930672)
(1.09483 -0.00696059 0.0290036)
(1.10031 0.0166766 0.0412881)
(1.11414 0.0485872 0.0447138)
(1.12095 0.046148 0.0484941)
(1.1005 0.00788475 0.0390753)
(1.07888 -0.0295576 0.0219321)
(1.08017 -0.0473523 0.0174937)
(1.10293 -0.0473184 0.0213332)
(1.12658 -0.0264794 0.0166197)
(1.11367 -0.00508015 0.00460157)
(1.0805 0.00177195 -0.000232802)
(1.05526 -0.000664606 -0.00377228)
(1.03747 -0.00689584 -0.0170009)
(1.02404 -0.00909742 -0.0425149)
(1.01841 -0.0125915 -0.0532825)
(1.01399 -0.0260266 -0.034679)
(1.0056 -0.0498673 -0.00537741)
(1.00682 -0.0624032 0.0130654)
(1.03028 -0.0452306 0.010247)
(1.0902 -0.000733376 -0.0118242)
(1.12395 0.0130027 0.0137191)
(1.1072 0.0182754 0.0531983)
(1.06006 0.016806 0.0514544)
(1.01842 0.00264573 0.0123967)
(0.999271 -0.0180928 -0.0254926)
(0.991851 -0.0299418 -0.0628926)
(1.00525 -0.0256268 -0.0922588)
(1.06874 0.0101119 -0.0916234)
(1.13017 0.0504689 -0.0583776)
(1.14044 0.0578631 -0.00297699)
(1.11522 0.025569 0.0462049)
(1.07223 -0.0257084 0.0501178)
(1.03312 -0.0448377 0.0122085)
(1.01838 -0.0261089 -0.0272861)
(1.01974 0.00335109 -0.0471682)
(1.04528 0.0361002 -0.0550993)
(1.08605 0.0576046 -0.0541192)
(1.10813 0.0489664 -0.0411212)
(1.09628 0.0146887 -0.0244035)
(1.0607 -0.0163921 -0.0213236)
(1.05175 -0.0175175 -0.0217815)
(1.08548 0.0118285 -0.00711858)
(1.1299 0.0405685 0.0236917)
(1.14252 0.0453444 0.0412145)
(1.12247 0.0251703 0.0174702)
(1.10386 -0.00970456 -0.0198077)
(1.07552 -0.0401877 -0.0451595)
(1.04407 -0.0463858 -0.053071)
(1.02698 -0.0292792 -0.0431521)
(1.01167 -0.018977 -0.0169001)
(1.0022 -0.018419 0.00584838)
(0.994623 -0.0134116 0.00605614)
(0.982829 -0.00115106 -0.0182536)
(0.975905 0.00725868 -0.055802)
(0.974841 -0.00941454 -0.0630282)
(0.974213 -0.0382202 -0.026387)
(0.970414 -0.0537454 0.0174304)
(0.980442 -0.0425671 0.0251051)
(1.02696 -0.0186823 -0.000665155)
(1.06809 0.0100303 0.0236314)
(1.07968 0.00509962 0.0361551)
(1.06092 0.010664 0.0398381)
(1.04104 0.0238565 0.0323115)
(1.03877 0.017099 0.0265069)
(1.03014 0.000954599 0.0120301)
(0.982929 -0.01123 -0.0323624)
(0.918545 -0.0199409 -0.0847766)
(0.913448 0.000295869 -0.102021)
(0.949257 0.0304314 -0.0828563)
(1.00135 0.041424 -0.0434991)
(1.0787 0.0322686 0.00864279)
(1.12283 0.0107939 0.0458266)
(1.10096 0.00214301 0.0429804)
(1.05185 0.0102017 0.00893717)
(1.02385 0.0268145 -0.0308034)
(1.05693 0.0499652 -0.0470279)
(1.10451 0.0528672 -0.0328795)
(1.10657 0.0330643 -0.011269)
(1.0612 0.0103459 -0.0104248)
(1.00806 -0.0103568 -0.0212545)
(1.00853 -0.0180218 -0.0125466)
(1.05795 -0.00269001 0.0153405)
(1.10704 0.0291904 0.0376683)
(1.12245 0.052437 0.0228491)
(1.12102 0.0361918 -0.0185544)
(1.11573 -0.000589238 -0.0399345)
(1.08142 -0.0269042 -0.0312663)
(1.02604 -0.0368647 -0.00967476)
(0.988055 -0.0432613 0.0109217)
(0.979836 -0.0466663 0.0217255)
(0.985689 -0.0382786 0.0149255)
(0.986988 -0.0262658 0.0010533)
(0.9745 -0.0154246 -0.0175436)
(0.952098 -0.0185848 -0.0491015)
(0.934647 -0.0373735 -0.0566749)
(0.929439 -0.0463384 -0.0301056)
(0.932239 -0.0331138 0.00242158)
(0.957653 -0.00446204 0.0184418)
(1.01712 0.011661 0.0178163)
(1.09029 0.003173 -0.0058088)
(1.10274 -0.00805729 -0.0165297)
(1.06881 -0.00434656 -0.00758189)
(1.05142 0.0134445 0.00854664)
(1.07363 0.0239863 0.0225479)
(1.07275 0.0291897 0.0151654)
(1.00978 0.0199612 -0.0257332)
(0.9338 0.00019636 -0.0701865)
(0.90716 0.00386554 -0.0797846)
(0.920238 0.0152275 -0.0623356)
(0.959896 0.00901053 -0.0356799)
(1.02236 -0.00990643 -0.00570899)
(1.0587 -0.02007 0.0200317)
(1.04477 0.0054533 0.0322859)
(1.01693 0.034958 0.0331597)
(1.03069 0.0386747 0.0258629)
(1.09633 0.0334634 0.0120712)
(1.1377 0.0315325 0.000587023)
(1.11063 0.0402127 -0.00846989)
(1.05971 0.0438616 -0.0114262)
(1.02359 0.0170111 0.01713)
(1.02458 -0.00869493 0.0567477)
(1.05334 0.00668535 0.0681415)
(1.07483 0.0431354 0.0485269)
(1.08035 0.0548551 0.0142851)
(1.08683 0.025811 -0.0138956)
(1.10402 -0.0192272 -0.0217696)
(1.1207 -0.0528149 -0.0236801)
(1.10425 -0.0720151 -0.0373666)
(1.06146 -0.086351 -0.0441978)
(1.03171 -0.0772928 -0.0247378)
(1.01772 -0.048317 -0.00191468)
(1.00979 -0.0318243 0.0102499)
(0.998087 -0.0227915 -0.00521783)
(0.977865 -0.0255755 -0.0441427)
(0.961416 -0.0328424 -0.0423709)
(0.946169 -0.0200054 0.00443039)
(0.928845 0.00590913 0.0462642)
(0.947417 0.0245091 0.0528807)
(1.02072 0.019299 0.0252124)
(1.06856 -0.00495017 -0.0328476)
(1.05927 0.00798503 -0.0221848)
(1.03527 0.0241716 -0.00707077)
(1.03591 0.0283774 0.00109841)
(1.05316 0.0193055 0.00113248)
(1.03264 0.0272485 -0.0182431)
(0.974391 0.0269077 -0.0516303)
(0.933423 0.0060474 -0.0648349)
(0.934474 0.00431006 -0.0521446)
(0.96018 0.0111193 -0.0305611)
(1.00478 0.00897489 -0.0104986)
(1.05034 0.00344191 0.00553472)
(1.05208 0.010401 0.0260569)
(1.02573 0.0383771 0.0458149)
(1.02492 0.0450168 0.0529703)
(1.06436 0.0227658 0.0406573)
(1.10455 0.0145376 0.00838459)
(1.0927 0.0288541 -0.0149851)
(1.06805 0.0503295 -0.0114693)
(1.06817 0.048384 0.0159232)
(1.05621 0.0152652 0.0562988)
(1.03383 0.00340922 0.0725943)
(1.02679 0.0278015 0.0548729)
(1.04556 0.0489904 0.0348064)
(1.08727 0.0451857 0.0200489)
(1.11034 0.0143327 0.0046258)
(1.09251 -0.0161253 -0.00996897)
(1.03999 -0.0201358 -0.0294372)
(0.962 -0.0203146 -0.0545697)
(0.906699 -0.0415901 -0.0662705)
(0.905549 -0.0505087 -0.0459427)
(0.933268 -0.0333792 -0.00951882)
(0.964738 -0.0218475 0.0204083)
(0.975115 -0.0150499 0.0136923)
(0.961071 -0.0211425 -0.0136442)
(0.950586 -0.0285709 -0.00470085)
(0.945527 -0.0156317 0.0304097)
(0.943388 0.00780602 0.0435426)
(0.975912 0.0175577 0.0229333)
(1.03563 0.00276138 -0.0145139)
(1.04663 0.0213238 -0.0452288)
(1.03131 0.0354508 -0.0283013)
(1.00874 0.0364663 0.000478504)
(1.01501 0.0305268 0.0198888)
(1.03398 0.0266828 0.0140861)
(1.02167 0.0392342 -0.0161879)
(0.983851 0.0378026 -0.0501266)
(0.956161 0.0117703 -0.0594272)
(0.956329 0.00182778 -0.0393574)
(0.983345 -0.00727022 -0.0135289)
(1.02291 -0.0125097 0.000892585)
(1.04281 -0.00249561 0.0152778)
(1.03283 0.0127025 0.0380947)
(1.03078 0.0261676 0.0463136)
(1.03566 0.0127955 0.0246244)
(1.02169 -0.00120332 -0.0157518)
(1.00426 0.0175596 -0.0370274)
(1.01479 0.031517 -0.010429)
(1.06988 0.0340047 0.0292981)
(1.09343 0.0294766 0.0440193)
(1.02749 0.0173184 0.0445708)
(0.949006 0.0231424 0.0342753)
(0.944671 0.0449716 0.0253319)
(1.03092 0.0612635 0.0216664)
(1.14492 0.0520962 0.0100756)
(1.17699 0.0158992 0.00288106)
(1.09301 -0.0051076 -0.0112678)
(0.976541 -0.00172652 -0.0348084)
(0.896714 -0.0121583 -0.0574012)
(0.870509 -0.0439438 -0.0620423)
(0.882796 -0.0556108 -0.046345)
(0.91614 -0.044244 -0.0297173)
(0.962971 -0.0380137 -0.0047237)
(0.990805 -0.0350297 0.0168176)
(0.984817 -0.0455544 0.0249523)
(0.974488 -0.0471268 0.0416208)
(0.965176 -0.0171697 0.0527229)
(0.958062 0.0146782 0.0427249)
(0.983597 0.0191496 0.0155569)
(1.02657 0.0107381 -0.0275412)
(1.0408 0.0249745 -0.0492026)
(1.03589 0.0389598 -0.0221352)
(1.01554 0.0357281 0.0314886)
(0.996666 0.0240235 0.0203062)
(0.987578 0.0280779 -0.026631)
(0.983127 0.0616801 -0.0442143)
(0.96601 0.049073 -0.0340766)
(0.959998 -0.00691657 -0.0263004)
(0.990015 -0.0256358 -0.019185)
(1.02102 -0.0133096 -0.000149677)
(1.03209 0.00852475 0.0115202)
(1.03815 0.0206698 0.0198381)
(1.04687 0.0137861 0.0435587)
(1.06162 0.00918263 0.0456951)
(1.04359 0.00148378 0.0204688)
(1.00948 0.000527464 0.0124309)
(1.01294 0.00563173 0.0354646)
(1.05139 0.00468783 0.0594099)
(1.08935 0.0251008 0.0472185)
(1.06004 0.0532614 0.028675)
(0.971629 0.055485 0.0373961)
(0.907726 0.0443416 0.0349909)
(0.9527 0.0324684 0.00916076)
(1.08074 0.0177573 -0.0276738)
(1.18219 0.00788411 -0.0336673)
(1.14896 0.0173331 -0.0167306)
(1.01537 0.020748 -0.0385298)
(0.911895 0.0028679 -0.0819273)
(0.85767 -0.0285556 -0.104166)
(0.844295 -0.0668198 -0.104968)
(0.879388 -0.06518 -0.0862729)
(0.945101 -0.0421772 -0.0599229)
(0.994197 -0.0423718 -0.0162448)
(0.995561 -0.0412006 0.0216417)
(0.957998 -0.0489496 0.0218007)
(0.932165 -0.057746 0.0311545)
(0.937067 -0.0308078 0.0561437)
(0.95709 0.00460445 0.0639056)
(0.989386 0.0143898 0.0435585)
(1.02322 0.0114267 -0.0074575)
(1.02352 0.0133683 -0.0627539)
(1.04663 0.0343239 -0.00271781)
(1.03389 0.0366872 0.0324806)
(1.00396 0.02096 -0.0143921)
(0.971723 0.0271006 -0.0380079)
(0.963572 0.0440686 -0.0010971)
(0.970824 0.0191618 0.0388008)
(0.985086 -0.0495384 0.0511005)
(1.00773 -0.0798351 0.0600189)
(1.02466 -0.0492543 0.046648)
(1.06375 0.00563901 0.0167855)
(1.10501 0.0199169 0.021823)
(1.08961 -0.0119315 0.0504891)
(1.05045 -0.0297036 0.0382388)
(1.00769 -0.0439569 -0.0135448)
(1.01241 -0.0527329 -0.0100931)
(1.0468 -0.0267965 0.0459344)
(1.04434 0.00100927 0.0470661)
(1.03918 0.0285014 0.0135319)
(1.02497 0.0433657 0.0345892)
(0.962972 0.0287388 0.0584291)
(0.920542 0.00739526 0.0170174)
(0.988932 -0.0121684 -0.0367738)
(1.10756 -0.00590768 -0.048383)
(1.1635 0.0381087 -0.0145284)
(1.0918 0.0564243 0.000977401)
(0.979574 0.0194928 -0.0346253)
(0.916222 -0.0156224 -0.0695131)
(0.881825 -0.0488369 -0.0831291)
(0.871057 -0.0797531 -0.095179)
(0.903892 -0.0736864 -0.0938655)
(0.972989 -0.0429668 -0.0456015)
(1.01189 -0.0195475 0.026925)
(0.990669 -0.0125919 0.0508352)
(0.940329 -0.0395683 0.0147211)
(0.909006 -0.0658819 -8.75034e-05)
(0.923062 -0.0469141 0.0186608)
(0.955876 -0.00563925 0.0389736)
(0.975401 0.0152188 0.0198319)
(0.989406 0.00552434 -0.0387851)
(1.00686 0.0268419 -0.0324461)
(1.03828 0.0609591 0.0129639)
(1.06968 0.0568456 -0.00156204)
(1.00835 0.0330293 -0.0241822)
(0.931384 0.035897 -0.0066524)
(0.961006 0.0577374 0.0296046)
(1.0292 0.0216927 0.0118219)
(1.05408 -0.0390799 -0.00855265)
(1.03043 -0.0599549 0.0174438)
(1.01847 -0.0415186 0.0161242)
(1.08277 -0.015496 0.0193622)
(1.14418 -0.0154242 0.0483429)
(1.12336 -0.0333522 0.0292315)
(1.03595 -0.0231488 -0.000643968)
(0.964437 -0.0444759 -0.0216852)
(0.982395 -0.0759811 -0.0259254)
(1.00974 -0.0309268 -0.0142979)
(1.01869 0.0198911 -0.0252833)
(1.04385 0.0318472 -0.00861199)
(1.03287 0.0324494 0.0646779)
(0.973946 0.0331456 0.0787628)
(0.968582 0.0214175 0.00354684)
(1.0494 -0.00910843 -0.0641771)
(1.11354 -0.00457006 -0.0652244)
(1.10854 0.0510296 -0.0187465)
(1.05525 0.0767668 0.00742481)
(1.00691 0.0401713 0.0119096)
(0.952209 -0.00398121 0.0157565)
(0.922586 -0.0203742 0.00170521)
(0.92728 -0.0407914 -0.037076)
(0.958928 -0.0448943 -0.0623174)
(1.0037 -0.0405542 -0.0370855)
(1.00367 -0.0382318 0.0155901)
(0.992507 -0.013731 0.0390544)
(0.98381 -0.0341949 0.0513915)
(0.958019 -0.0783365 0.0661537)
(0.964759 -0.0525281 0.0415021)
(0.956542 0.00755433 -0.00805206)
(0.967546 0.0263611 -0.0592989)
(0.993983 0.0156097 -0.0752128)
(0.950328 0.0278748 0.0162095)
(1.03049 0.0339394 0.00331014)
(1.05286 0.018549 -0.00225689)
(0.924906 0.0266155 0.0283389)
(0.891946 0.0399425 0.0430926)
(1.01918 0.0355876 0.0235056)
(1.06962 -0.00600609 -0.0404016)
(1.04792 -0.0553609 -0.0487946)
(1.03839 -0.0511165 -0.0155152)
(1.04085 -0.0441615 -0.0369268)
(1.07855 -0.049039 -0.0311026)
(1.08534 -0.0354536 0.0705328)
(1.08876 -0.0127069 0.0953617)
(1.06212 -0.00779007 0.00916136)
(0.998411 -0.052412 0.00312624)
(0.932872 -0.0686202 0.0233139)
(0.902682 -0.0072551 -0.0202567)
(0.954741 0.0210925 -0.0641779)
(1.06035 0.0248074 -0.0385333)
(1.08038 0.0367077 0.0376425)
(1.01423 0.0436406 0.0731067)
(1.01595 0.016151 0.0627745)
(1.09364 -0.0281243 0.0294221)
(1.11966 -0.0242762 -0.0210266)
(1.10753 0.0293143 -0.0287465)
(1.09417 0.0465544 0.0055496)
(1.04038 0.011036 0.042193)
(0.969402 -0.0081721 0.0312717)
(0.962426 -0.0223243 -0.00443897)
(0.963807 -0.0561603 -0.0261042)
(0.972432 -0.0608229 -0.0413082)
(1.00189 -0.0500906 -0.0517091)
(0.972846 -0.0154869 -0.0330566)
(1.00224 0.0174433 0.0112402)
(1.04061 -0.0157537 0.0605286)
(0.976809 -0.0778467 0.084082)
(0.962798 -0.0631184 0.0420238)
(0.986648 -0.00743697 -0.031872)
(0.987168 -0.00517285 -0.0480665)
(0.959037 -0.00540708 -0.0157258)
(1.04157 -0.000462787 -0.0668357)
(1.10515 0.00115055 -0.025987)
(0.986585 0.0407908 0.00614911)
(0.915924 0.058432 -0.00894049)
(0.977111 0.0294711 0.0144784)
(1.03415 0.0148071 0.0600959)
(0.980583 0.00806846 0.0307904)
(0.877022 -0.0358784 0.00708294)
(0.913526 -0.0684198 0.0181296)
(1.00427 -0.0553476 0.0110268)
(1.03139 -0.0271101 0.0304054)
(1.06178 -0.0424201 0.097107)
(1.15296 -0.0395435 0.0971609)
(1.17731 -0.016347 0.00584922)
(1.01878 -0.0439464 0.0301622)
(0.846857 -0.0510962 0.0899053)
(0.855559 -0.00689017 0.0188183)
(0.949354 0.002092 -0.0503843)
(1.05961 -0.00058285 -0.0315791)
(1.1064 0.034582 0.0448852)
(1.02759 0.0399331 0.0637509)
(1.01181 0.00453995 0.0386294)
(1.04086 -0.0307621 0.0237067)
(1.0539 -0.00520727 -0.0171562)
(1.07492 0.0655119 -0.0584392)
(1.05766 0.0811678 -0.0563658)
(1.05086 0.056188 -0.0283036)
(1.05014 0.0100803 -0.0535601)
(0.987709 -0.0351203 -0.0679854)
(0.910446 -0.0543954 -0.0245411)
(0.896354 -0.0618371 0.00485625)
(0.937962 -0.0546775 -0.0158085)
(0.939988 -0.0248633 -0.0259996)
(1.03148 0.0191144 0.026265)
(1.12401 0.00302683 0.0639361)
(1.04742 -0.0633994 0.0190789)
(0.937845 -0.0668296 -0.0139563)
(0.928478 -0.00663463 0.00977812)
(0.889341 0.0231411 0.00207334)
(0.907158 0.00036745 -0.0482983)
(1.04811 -0.0388657 -0.0632911)
(1.00653 0.0022873 0.0139197)
(0.920251 0.0235062 -0.028355)
(0.996776 0.0131788 -0.0483772)
(1.01054 -0.000291907 0.00439669)
(0.985345 0.030734 0.0130943)
(0.976425 0.0278851 -0.0363518)
(0.833132 -0.0432722 -0.0404601)
(0.758314 -0.064986 -0.0166687)
(0.894079 -0.0160904 -0.037048)
(1.01747 -0.0255578 -0.00532824)
(1.10658 -0.0787884 0.0733077)
(1.16577 -0.0688978 0.0459878)
(1.073 -0.00603319 -0.016228)
(0.822622 -0.00617127 0.024025)
(0.68225 -0.0428341 0.111859)
(0.793656 -0.00791281 0.120032)
(0.968422 0.00467995 0.0682344)
(1.08889 -0.00998385 0.047381)
(1.11083 0.0206887 0.092891)
(1.04993 0.0379352 0.0764472)
(1.0473 0.0109156 0.0301225)
(1.01907 -0.0177974 -0.0107527)
(0.999858 -0.0271749 -0.0355623)
(1.0384 0.027612 -0.04592)
(1.09853 0.0622625 -0.0407504)
(1.16259 0.0144907 -0.037596)
(1.13725 -0.0133779 -0.092677)
(0.998755 -0.0199798 -0.069302)
(0.859079 -0.0241894 -0.00738567)
(0.772442 -0.0193055 -0.0257371)
(0.867324 -0.0209069 -0.0209134)
(0.916619 0.00101451 -0.0159141)
(1.0073 -0.0100248 0.0260132)
(1.1269 -0.0455989 0.0887669)
(1.07837 -0.0743479 0.0466947)
(0.899324 -0.0490873 -0.0506876)
(0.810562 0.0163542 -0.0706381)
(0.873473 0.0218151 -0.0899722)
(0.960713 -0.0290888 -0.138311)
(0.730415 -0.0269664 0.0216903)
(0.815976 0.00615327 0.0197017)
(0.908755 0.0208971 -0.025245)
(0.943882 0.0174174 0.00618272)
(0.920961 -0.00260279 0.0242055)
(1.01506 0.0103974 -0.00163413)
(1.07231 0.0509557 -0.048971)
(0.967087 -0.0137154 -0.072628)
(0.827062 -0.0954112 -0.0667944)
(0.878523 -0.0813713 -0.0547393)
(1.02913 -0.0608074 -0.0262402)
(1.03683 -0.0697257 0.0350618)
(0.998142 -0.0287012 0.044126)
(0.915671 0.0591323 0.0205999)
(0.777383 0.022855 0.00064839)
(0.72198 -0.0796081 0.0770638)
(0.833811 -0.0826287 0.147755)
(0.964471 -0.0705562 0.0875773)
(1.07275 -0.0459615 0.0639966)
(1.06575 0.0389128 0.0691454)
(1.06738 0.0761713 0.0540846)
(1.08617 0.033976 0.0537949)
(0.99558 0.000207668 -0.00270824)
(0.939999 0.00712679 -0.0517745)
(0.998825 0.0613838 -0.0540083)
(1.09686 0.0518254 0.0240559)
(1.06218 0.0113727 -0.0121367)
(1.05774 0.00853972 -0.0373556)
(1.01313 -0.000442345 -0.00835949)
(0.792835 -0.00145202 -0.0713206)
(0.703228 -0.0195309 -0.112518)
(0.780601 -0.0308981 -0.0523814)
(0.874745 -0.0139482 0.0495967)
(1.00638 -0.0310238 0.0680131)
(1.03459 -0.048635 0.0193114)
(0.918979 -0.0398856 -0.034367)
(0.865873 -0.0418108 -0.0675657)
(0.968048 -0.0110759 -0.0262887)
(1.01223 -0.0153418 -0.0847932)
(0.816548 -0.0319004 -0.0811391)
(0.764806 -0.0506224 0.0838876)
(0.793581 -0.0197072 -0.0167173)
(0.808341 0.0171186 -0.0579593)
(0.836823 0.0210194 0.0336526)
(0.895669 -0.0159511 0.0205937)
(0.984443 0.00629621 0.000956124)
(1.05793 0.062856 0.00056574)
(1.06701 0.0197313 -0.0072997)
(1.00839 -0.0665865 -0.0533643)
(0.878012 -0.049466 -0.028477)
(0.85716 -0.0351606 0.0366438)
(0.862694 -0.0565616 0.0500672)
(0.843707 -0.0218614 0.0232499)
(0.820444 0.0411644 -0.0255289)
(0.831377 0.0100072 -0.0381293)
(0.824331 -0.0681434 0.0672843)
(0.813173 -0.0551798 0.0920861)
(0.819318 -0.0326242 0.0101635)
(0.921625 -0.0148928 0.0239019)
(0.998629 0.0696829 0.0876805)
(1.1198 0.0685961 0.125882)
(1.11571 0.0213122 0.0074995)
(0.965249 0.00611805 -0.0524435)
(0.869721 0.00405313 -0.0186498)
(0.955557 0.0501009 -0.0433436)
(0.986898 0.0734123 -0.0430508)
(0.90642 0.0256587 -0.0375274)
(1.06705 -0.010158 0.0732993)
(1.00538 0.0264023 -0.0161332)
(0.76854 0.0224993 -0.116704)
(0.828459 -0.0598976 -0.0212439)
(0.788735 -0.0586269 -0.0269417)
(0.879826 -0.0547876 0.044666)
(1.09326 -0.0420238 0.0286379)
(0.98507 -0.0298009 -0.102615)
(0.792803 -0.0289541 -0.0867288)
(0.86264 -0.0249368 0.00173132)
(0.9526 -0.00232548 0.0292343)
(0.907824 0.00411022 -0.0351444)
(0.806662 -0.0145339 0.0149309)
(0.860472 -0.0685126 0.09805)
(0.780627 0.00205489 -0.0688674)
(0.741715 0.0239271 -0.142992)
(0.849444 0.000545714 0.00498233)
(0.973675 -0.0166266 0.0430183)
(0.996568 -0.0034801 -0.00196357)
(1.04146 0.0310288 0.0669191)
(1.01372 -0.00830394 0.0828696)
(0.893729 -0.0366464 -0.0147094)
(0.846006 -0.0512247 -0.00779363)
(0.876819 -0.0601584 0.0867623)
(0.808246 -0.0503493 0.0363533)
(0.69212 -0.00252705 -0.106686)
(0.729988 0.0343336 -0.122466)
(0.869294 -0.0203455 -0.0394116)
(0.84573 -0.0640643 0.0764418)
(0.783582 -0.0201844 0.0896424)
(0.816137 -0.0219278 0.0646953)
(0.847126 -0.022215 0.109374)
(0.948665 0.0298996 0.147946)
(1.11828 0.0216697 0.129534)
(1.07848 0.0218757 -0.0323148)
(0.960054 0.0314637 -0.0853931)
(0.886276 0.0302421 -0.00879048)
(0.921558 0.089324 0.0498789)
(0.959574 0.0893657 -0.0156083)
(0.998021 -0.0158908 0.0310932)
(1.03878 0.00251949 0.0711084)
(0.880493 0.0663339 -0.109439)
(0.859356 0.024321 -0.0511992)
(0.887669 -0.0449569 0.0422827)
(0.807491 -0.0754627 -0.0564037)
(0.845158 -0.0680961 -0.0567971)
(1.00223 -0.0622054 -0.0287366)
(0.950192 -0.0238894 -0.0584283)
(0.846201 -0.0357908 -0.0223578)
(0.906368 -0.0696706 0.0140461)
(0.918385 -0.0457202 0.00716557)
(0.952187 -0.0285198 0.0189656)
(0.945943 -0.0721729 0.0390601)
(0.733624 -0.0105909 0.0238396)
(0.796643 0.0238342 -0.120143)
(0.860596 0.0318201 -0.166067)
(0.930155 -0.0205365 0.022845)
(0.974201 -0.0630884 0.0494358)
(1.04299 -0.0135548 -0.0802)
(1.13461 0.0337469 0.00553278)
(1.095 -0.00204348 0.0818075)
(0.966107 -0.0458821 0.0405819)
(0.916587 -0.041315 -0.0358171)
(0.818991 -0.0303228 -0.0195348)
(0.733383 -0.014189 -0.0370455)
(0.77005 -0.00647287 -0.106494)
(0.870742 -0.022933 -0.136037)
(0.88868 -0.0876883 0.00199552)
(0.882033 -0.0731767 0.106247)
(0.935005 -0.0112417 0.101775)
(0.952941 -0.0420751 0.0858836)
(0.87517 -0.0269815 0.114886)
(0.936982 0.0137293 0.148852)
(1.092 0.0214213 0.00427979)
(1.05395 0.0237598 -0.129316)
(0.917836 0.0121218 -0.0879108)
(0.913206 0.0307993 -0.0300982)
(1.01067 0.0781905 0.0408575)
(1.04424 0.0396752 0.0548781)
(1.08084 -0.0252164 0.00948218)
(0.988172 0.0176587 -0.047327)
(0.860926 0.0377527 -0.0577679)
(0.988452 0.00181787 0.0261544)
(0.880144 -0.0375465 -0.035079)
(0.706592 -0.0658413 -0.112671)
(0.782099 -0.0497062 -0.0885748)
(0.759998 -0.0236116 -0.0242199)
(0.768011 -0.0291516 -0.0105151)
(0.835507 -0.0354411 0.00834927)
(0.897922 -0.051313 0.000733797)
(0.899882 -0.0299401 0.0360462)
(0.877324 -0.0248474 0.07843)
(0.826976 -0.041219 0.0553617)
(0.728282 -0.0335221 0.0218088)
(0.858712 0.004392 -0.0502862)
(0.926578 0.0178041 -0.0302733)
(0.994525 -0.00510105 0.0784352)
(0.941467 -0.0350231 -0.0354222)
(0.886928 -0.0289869 -0.138611)
(0.968274 0.0196664 -0.0859871)
(1.09378 0.0100181 0.0129496)
(0.999602 -0.0166565 0.0235982)
(0.913959 -0.0127706 -0.112448)
(0.946199 -0.021123 -0.101269)
(0.903691 -0.0280789 -0.00206798)
(0.85626 -0.0386229 -0.027453)
(0.8577 -0.039551 -0.039058)
(0.756268 -0.0673128 0.0778412)
(0.775065 -0.0984343 0.173978)
(0.944238 -0.0190863 0.168381)
(0.885809 -0.0107423 0.118804)
(0.79295 -0.0304695 0.104795)
(0.91098 -0.0028352 0.0761869)
(0.994291 -0.0032924 -0.102612)
(0.959539 0.0202096 -0.184161)
(0.942026 0.0392851 -0.135708)
(0.922863 0.0273008 0.00761059)
(0.995368 0.0551049 0.108239)
(0.997834 0.0100626 0.0444214)
(0.998472 -0.0186877 -0.0876793)
(0.861308 0.0501046 -0.146426)
(0.864587 0.0598873 -0.03006)
(1.06625 0.0341467 -0.00897945)
(0.895596 0.00236515 -0.095447)
(0.519391 -0.0345952 -0.0706129)
(0.624901 -0.0170257 -0.0430244)
(0.705865 -0.0113065 -0.0252944)
(0.659916 -0.0433843 -0.0273503)
(0.814151 -0.0724134 -0.0144831)
(0.878855 -0.0510482 0.034095)
(0.808003 -0.0209442 0.106656)
(0.732143 -0.0322709 0.0873628)
(0.745941 -0.0530085 0.0288275)
(0.779118 -0.0192838 -0.0714161)
(0.773974 -0.00837215 -0.0785007)
(0.80101 -0.0106607 0.0747447)
(1.03424 -0.019951 -0.0155297)
(0.902352 -0.0335159 -0.131008)
(0.626357 -0.0116806 -0.0364773)
(0.80369 0.0222496 -0.00209475)
(1.09765 -0.00805679 0.00538381)
(0.942397 -0.0356403 -0.0678365)
(0.777962 -0.0541568 -0.0897859)
(0.86683 -0.0567193 -0.0185225)
(0.84216 -0.0510327 0.0285694)
(0.715834 -0.0250554 -0.0225541)
(0.65842 -0.0445234 0.0839324)
(0.67201 -0.0739882 0.109349)
(0.686851 -0.0803656 0.106642)
(0.832048 -0.0281247 0.137815)
(0.811528 -0.0197801 0.0978823)
(0.73869 -0.0271386 0.00945459)
(0.851846 -0.022656 0.00684223)
(0.951132 -0.0272759 -0.00696611)
(0.950546 -0.00716378 -0.138592)
(1.02963 0.0104415 -0.290234)
(1.06508 0.0369217 -0.0895385)
(1.02847 0.0843565 0.00764568)
(1.01524 0.013685 -0.100786)
(0.885755 -0.0502435 -0.0316684)
(0.888274 -0.0038248 0.0321798)
(0.994608 0.0224878 0.0373833)
(1.13935 0.00593969 0.0491383)
(0.922165 0.00831726 -0.0532862)
(0.457997 -0.0363379 -0.0316787)
(0.558945 -0.0435561 -0.0217552)
(0.778918 -0.0338307 -0.0259202)
(0.64326 -0.053672 0.00206011)
(0.69767 -0.0598485 0.00349004)
(0.76716 -0.0254523 0.0534587)
(0.724382 -0.00445699 0.12995)
(0.652559 -0.0367353 0.0755323)
(0.670858 -0.0433654 0.00344799)
(0.648573 -0.0243605 -0.169797)
(0.646574 -0.00600133 -0.127392)
(0.755326 -0.000979239 -0.0142699)
(0.875929 0.0146055 -0.120236)
(0.746491 0.0102149 -0.107804)
(0.556271 -0.0145547 -0.0184404)
(0.806578 -0.0286579 -0.0327612)
(0.989375 -0.0036387 -0.005174)
(0.841669 0.0112462 0.0132506)
(0.759149 0.00906222 0.0385931)
(0.733161 -0.00783444 0.0739751)