/*--------------------------------*- C++ -*----------------------------------*\
  =========                 |
  \\      /  F ield         | OpenFOAM: The Open Source CFD Toolbox
   \\    /   O peration     | Website:  https://openfoam.org
    \\  /    A nd           | Version:  10
     \\/     M anipulation  |
\*---------------------------------------------------------------------------*/
FoamFile
{
    format      ascii;
    class       volVectorField;
    location    "85";
    object      U;
}
// * * * * * * * * * * * * * * * * * * * * * * * * * * * * * * * * * * * * * //

dimensions      [0 1 -1 0 0 0 0];

internalField   nonuniform List<vector> 
25600
(
(1.13802 -0.00136882 0.0111601)
(1.13801 0.0105961 0.00999552)
(1.13214 0.0218518 0.000506731)
(1.12755 0.0266939 -0.0101679)
(1.12408 0.0176239 -0.014969)
(1.12197 0.00253845 -0.0152649)
(1.12295 -0.0144408 -0.00902051)
(1.12116 -0.0275572 0.000381572)
(1.11637 -0.0288272 0.00780306)
(1.10754 -0.0238598 0.0127031)
(1.09495 -0.0083158 0.0132904)
(1.0841 0.0131694 0.0116185)
(1.08171 0.0295814 0.0121963)
(1.09103 0.036084 0.0108588)
(1.11345 0.0261182 0.0063948)
(1.14266 0.00314616 0.000887646)
(1.16301 -0.0181193 -0.00574947)
(1.1654 -0.0264089 -0.00894185)
(1.15116 -0.0206609 -0.0120776)
(1.13064 0.000478356 -0.0166695)
(1.11474 0.0237341 -0.0200344)
(1.10761 0.0391506 -0.0215453)
(1.10966 0.0465393 -0.019083)
(1.11289 0.0326899 -0.0138288)
(1.10628 0.00707086 -0.00492878)
(1.09086 -0.0190285 0.00432673)
(1.07284 -0.0398397 0.00605308)
(1.05456 -0.0462936 0.00197034)
(1.04401 -0.0422248 -0.00657045)
(1.03995 -0.0349106 -0.0150855)
(1.03556 -0.0312862 -0.0151994)
(1.04299 -0.029406 -0.00859077)
(1.05471 -0.029086 0.000302786)
(1.06431 -0.0258624 0.00648885)
(1.07838 -0.0156958 0.00717553)
(1.08477 -0.00267132 0.00373141)
(1.09054 0.007477 -0.000361183)
(1.10302 0.007106 -0.00168508)
(1.11625 0.00124763 0.00188498)
(1.12997 -0.00431942 0.00759425)
(1.12263 -0.00408222 0.00177864)
(1.1422 0.0144274 -0.00614946)
(1.14975 0.0314192 -0.0117754)
(1.13921 0.0388127 -0.00694549)
(1.12119 0.0312815 0.00184894)
(1.10829 0.0156182 0.00333082)
(1.11102 -0.00133844 -0.00423974)
(1.12108 -0.0169129 -0.0167185)
(1.1254 -0.0243197 -0.0232414)
(1.11808 -0.0239359 -0.0136876)
(1.10385 -0.0151159 0.00770926)
(1.09185 -0.00202619 0.0316817)
(1.09811 0.0127231 0.0454154)
(1.11645 0.024845 0.0340898)
(1.12997 0.0265802 0.00886303)
(1.13367 0.0129559 -0.0136373)
(1.12531 -0.00597284 -0.0261979)
(1.11495 -0.0138992 -0.0281433)
(1.11059 -0.00855054 -0.0288352)
(1.11427 0.0127125 -0.0283097)
(1.12794 0.0400657 -0.0266802)
(1.14444 0.0595021 -0.0235767)
(1.15396 0.0624913 -0.0152919)
(1.14674 0.0393972 -0.0074166)
(1.12265 0.00459383 -0.00234334)
(1.09268 -0.0213679 -0.0039592)
(1.06437 -0.033379 -0.0120242)
(1.04786 -0.0339126 -0.0154396)
(1.04531 -0.0311038 -0.0131016)
(1.04364 -0.0379404 -0.00714139)
(1.03892 -0.0500106 0.00214086)
(1.03816 -0.0546159 0.0101832)
(1.03621 -0.0542485 0.0150488)
(1.04042 -0.041177 0.0183143)
(1.05941 -0.0196219 0.0182559)
(1.07671 -0.00517408 0.0160546)
(1.09111 0.00117554 0.014419)
(1.09921 -0.00435793 0.0130176)
(1.09999 -0.0121783 0.0125511)
(1.10798 -0.0126294 0.00873702)
(1.0977 0.00931464 -0.0288552)
(1.08776 0.0275648 -0.0281185)
(1.07594 0.0395586 -0.0131838)
(1.07827 0.0411491 0.00543154)
(1.10054 0.0282523 0.00535163)
(1.12483 0.00774468 -0.01391)
(1.13622 -0.00397493 -0.0330866)
(1.12536 -0.011419 -0.0323946)
(1.10169 -0.015182 -0.00556476)
(1.08028 -0.0155529 0.032648)
(1.07211 -0.0138358 0.0592864)
(1.07692 -0.00293664 0.062281)
(1.08622 0.0225598 0.0430331)
(1.08521 0.0421998 0.0147226)
(1.07613 0.0379635 -0.00557194)
(1.07432 0.010703 -0.0177645)
(1.08314 -0.0238828 -0.0259756)
(1.10236 -0.0382667 -0.0317125)
(1.12788 -0.0277572 -0.0355811)
(1.15176 0.00304789 -0.0344673)
(1.16043 0.0416219 -0.0333378)
(1.15108 0.0669578 -0.0270726)
(1.13353 0.0683458 -0.0118042)
(1.11492 0.0406115 0.00428623)
(1.11008 -0.00275337 0.016263)
(1.11475 -0.0366794 0.0171293)
(1.11917 -0.0561207 0.00909998)
(1.12496 -0.0585767 0.00220725)
(1.12108 -0.0453277 -0.00357829)
(1.10195 -0.0390327 -0.00630071)
(1.07631 -0.0412724 -0.00392985)
(1.05101 -0.0453914 -0.00130548)
(1.02978 -0.0549568 -0.00142555)
(1.02797 -0.0542613 -0.00148287)
(1.04113 -0.0438397 0.00109588)
(1.05001 -0.0343641 0.00868648)
(1.05938 -0.0245724 0.0165563)
(1.07212 -0.0218552 0.0156072)
(1.08964 -0.0156635 0.00418658)
(1.10208 -0.00308585 -0.0148894)
(1.03434 0.0083403 -0.0378516)
(1.05746 0.0276331 -0.0225355)
(1.07882 0.0375219 -0.00311174)
(1.08904 0.0375908 0.00419047)
(1.09157 0.0239624 -0.00473019)
(1.0882 0.00746523 -0.018277)
(1.08119 0.00315471 -0.0186079)
(1.07195 -0.00514152 0.000406976)
(1.06294 -0.0155106 0.0252319)
(1.05715 -0.0208928 0.0404973)
(1.06618 -0.0239112 0.0466041)
(1.08309 -0.0128342 0.0429519)
(1.09286 0.0153904 0.0325677)
(1.09938 0.0276346 0.0226286)
(1.10371 0.012697 0.00562568)
(1.10728 -0.0142381 -0.024955)
(1.11255 -0.0328026 -0.0589084)
(1.12398 -0.0295067 -0.0782443)
(1.14495 -0.0145988 -0.0746135)
(1.15881 0.0178586 -0.0598519)
(1.14819 0.065326 -0.0458985)
(1.12681 0.0932558 -0.0294096)
(1.11161 0.0768977 -0.00807093)
(1.09972 0.017881 0.0170022)
(1.0956 -0.0475488 0.0456364)
(1.09878 -0.0791165 0.0609107)
(1.11272 -0.0755353 0.0542192)
(1.13407 -0.0480282 0.0335758)
(1.13576 -0.0191168 0.00942556)
(1.11428 -0.0139755 -0.00488717)
(1.08694 -0.0182916 -0.00937644)
(1.05623 -0.0222506 -0.0143459)
(1.03425 -0.0321406 -0.0183975)
(1.03784 -0.0353504 -0.0111025)
(1.05202 -0.0319092 0.00158525)
(1.06121 -0.0279322 0.00759317)
(1.06345 -0.0223782 0.00433749)
(1.05706 -0.0216566 -0.00596519)
(1.04406 -0.0146433 -0.0191499)
(1.03093 -0.0037191 -0.0343781)
(1.05849 -0.00675653 -0.0302023)
(1.08219 0.0100554 -0.0179303)
(1.09903 0.0399092 -0.00842981)
(1.10423 0.0590153 0.00474435)
(1.10176 0.0420091 0.0168542)
(1.10057 0.00967826 0.0173787)
(1.10204 -0.0122872 0.0114907)
(1.09609 -0.0262984 0.00941323)
(1.07912 -0.025289 0.00758265)
(1.06223 -0.020613 0.0125652)
(1.06534 -0.0248544 0.0284871)
(1.07974 -0.0152665 0.0298153)
(1.09878 0.0106223 0.0158522)
(1.11638 0.0162993 -0.000194318)
(1.11533 -0.00577052 -0.0252184)
(1.10386 -0.0348915 -0.0600822)
(1.09844 -0.0480483 -0.0933777)
(1.10932 -0.037219 -0.10131)
(1.1298 -0.00347195 -0.0780941)
(1.13256 0.0525302 -0.0456292)
(1.10881 0.0944671 -0.0190246)
(1.08367 0.0810031 0.00388142)
(1.07055 0.018567 0.0175878)
(1.06013 -0.0517252 0.017628)
(1.06378 -0.0914718 0.0154365)
(1.07516 -0.0943876 0.0157561)
(1.08229 -0.0829178 0.020012)
(1.09012 -0.0606878 0.0145185)
(1.09258 -0.0242051 -0.00855654)
(1.09272 0.00117618 -0.0294262)
(1.09438 0.0101449 -0.0380795)
(1.08949 0.00574106 -0.0366857)
(1.09211 -0.0170047 -0.0232424)
(1.1074 -0.0327512 -0.00824167)
(1.10536 -0.0210992 -0.0103279)
(1.08892 -0.000153767 -0.02085)
(1.07696 0.00072335 -0.0223616)
(1.07032 -0.0172342 -0.0196746)
(1.06465 -0.0189914 -0.0235989)
(1.05388 -0.0103386 -0.0331683)
(1.06964 0.0119355 -0.0439234)
(1.07964 0.0287142 -0.0314667)
(1.07807 0.0562774 -0.0120034)
(1.08749 0.0577839 0.0242625)
(1.09382 0.0262499 0.0440226)
(1.09861 -0.00540996 0.0341301)
(1.08843 -0.0186218 0.015819)
(1.0581 -0.0152765 0.00464035)
(1.03577 -0.00193233 0.003422)
(1.03857 0.00396199 0.0202787)
(1.05686 0.00608931 0.0356011)
(1.06923 0.0139423 0.0267598)
(1.08374 0.0157974 0.00968904)
(1.08853 -0.0044577 -0.0142335)
(1.07796 -0.0398584 -0.052376)
(1.07316 -0.0633058 -0.085684)
(1.07238 -0.0582407 -0.0930316)
(1.07286 -0.0242377 -0.0725544)
(1.06805 0.0296643 -0.047604)
(1.05991 0.0758852 -0.0274195)
(1.05933 0.0870644 0.00317921)
(1.06985 0.0620195 0.0420891)
(1.06602 0.0157986 0.0552651)
(1.03546 -0.0363442 0.0341408)
(1.02249 -0.0734862 0.0020095)
(1.03446 -0.0794512 -0.0261274)
(1.05886 -0.0592345 -0.0447376)
(1.07473 -0.019364 -0.070592)
(1.07025 0.0189684 -0.0918951)
(1.06279 0.0297396 -0.0807442)
(1.05992 0.020976 -0.054242)
(1.06893 0.00334237 -0.0276671)
(1.08488 -0.00785389 -0.00664749)
(1.09223 0.0169164 -0.00400235)
(1.08331 0.052936 -0.00927635)
(1.07383 0.0486871 -0.00183586)
(1.06179 0.0131009 0.00196611)
(1.04732 -0.00576017 -0.0200833)
(1.04161 0.0101175 -0.0518079)
(1.04755 0.0182931 -0.0603941)
(1.06349 0.00766963 -0.0526775)
(1.03671 0.0373517 -0.0595863)
(1.03796 0.0525731 -0.0220448)
(1.05735 0.034859 0.0327663)
(1.07 4.78388e-05 0.0532016)
(1.08532 -0.0194654 0.0382421)
(1.08597 -0.0118789 0.0135727)
(1.06132 0.00285153 0.00522837)
(1.04471 0.00324335 0.0259573)
(1.05152 -0.0078744 0.0518001)
(1.05186 -0.0176166 0.0430286)
(1.05489 -0.0116587 0.021215)
(1.07683 0.0101569 0.00701955)
(1.06693 0.00715361 -0.0212721)
(1.03467 -0.0298594 -0.0571175)
(1.03321 -0.0565335 -0.0743095)
(1.05968 -0.0477485 -0.0677061)
(1.09259 -0.0058882 -0.0544088)
(1.10867 0.0397482 -0.0537572)
(1.10477 0.0558526 -0.0461254)
(1.10122 0.0500974 0.0017071)
(1.09984 0.0406844 0.0574624)
(1.08525 0.0237363 0.0674187)
(1.05038 -0.0118216 0.03931)
(1.01094 -0.0462728 -0.0110689)
(0.977496 -0.0539372 -0.0663021)
(0.964852 -0.0359283 -0.103286)
(0.97734 -0.00314538 -0.119535)
(1.00935 0.0260621 -0.0979312)
(1.03876 0.0366056 -0.0449276)
(1.05244 0.0284124 0.00336172)
(1.06572 0.0190256 0.0336722)
(1.06943 0.0277952 0.0321166)
(1.06815 0.0518914 0.0137021)
(1.08644 0.0658082 0.0184502)
(1.11054 0.0567955 0.0400528)
(1.10265 0.0409635 0.0325849)
(1.07874 0.0324953 -0.00543166)
(1.0716 0.0245101 -0.0366204)
(1.07487 0.00601602 -0.0438625)
(1.06812 0.0322288 -0.0724406)
(1.05723 0.0486953 -0.0576744)
(1.06281 0.0327262 0.0114317)
(1.0576 0.00326925 0.0496552)
(1.03804 -0.0244417 0.0383265)
(1.02442 -0.0369867 0.0148591)
(1.01806 -0.0248033 -0.000569933)
(1.01658 -0.00675174 0.00649102)
(1.02997 -0.00210111 0.0362229)
(1.05263 -0.00524328 0.0456962)
(1.05135 -0.0189971 0.0250973)
(1.04366 -0.0252721 0.0173867)
(1.05458 -0.00722498 0.0104272)
(1.05545 -0.000624868 -0.0135835)
(1.04455 -0.0215827 -0.036131)
(1.03644 -0.0469648 -0.0544232)
(1.04654 -0.0546153 -0.0616422)
(1.08665 -0.0353423 -0.0545509)
(1.11275 -0.0151635 -0.0396684)
(1.09595 -0.00640886 -0.00700863)
(1.06545 0.0116936 0.0370213)
(1.037 0.0342511 0.0583408)
(1.00911 0.0339613 0.0470314)
(0.98457 0.00484102 0.0118117)
(0.972663 -0.0242115 -0.0444863)
(0.959439 -0.0296949 -0.0975313)
(0.945686 -0.0164078 -0.120914)
(0.952338 0.00446387 -0.103425)
(0.978485 0.0244742 -0.0477295)
(1.00884 0.0352735 0.00886712)
(1.03608 0.0302211 0.0390527)
(1.05167 0.0252754 0.0421981)
(1.05294 0.0344935 0.0273867)
(1.06286 0.0431457 0.0300296)
(1.08298 0.0444503 0.0554722)
(1.09385 0.0458969 0.0608185)
(1.09602 0.0438887 0.0347317)
(1.10769 0.0294431 0.0120323)
(1.11968 0.00967182 -0.00219919)
(1.10086 0.0070845 -0.0333023)
(1.09758 0.0363532 -0.0765636)
(1.10602 0.0378704 -0.0318106)
(1.09093 0.0322976 0.02291)
(1.05067 0.0152554 0.0306628)
(1.00974 -0.0209187 0.0233447)
(0.988382 -0.0434805 0.0155209)
(0.991146 -0.0334503 0.00513906)
(1.01078 -0.0105064 0.0178865)
(1.04151 0.00318181 0.0500181)
(1.07086 0.0033783 0.0573454)
(1.07091 -0.0155524 0.0436017)
(1.07043 -0.0283735 0.0286459)
(1.07804 -0.0208966 -0.0103278)
(1.05756 -0.01713 -0.0471746)
(1.01994 -0.0206298 -0.0517252)
(0.965203 -0.0337607 -0.0427005)
(0.91117 -0.0467312 -0.0146547)
(0.894822 -0.0399322 0.0190781)
(0.9001 -0.0223663 0.0451562)
(0.906905 -0.00419076 0.0739763)
(0.918273 0.0192336 0.0887593)
(0.933935 0.0372559 0.073247)
(0.953276 0.0328736 0.0403215)
(0.967084 0.00707293 -0.00621064)
(0.977285 -0.0159858 -0.0601789)
(0.974817 -0.0211285 -0.0941825)
(0.959962 -0.0164383 -0.0910035)
(0.957621 -0.00617589 -0.0569572)
(0.977492 0.0149834 -0.0134352)
(1.00768 0.0356524 0.0139975)
(1.03615 0.0387746 0.0239946)
(1.04554 0.0333485 0.0200051)
(1.04146 0.0226201 0.0166702)
(1.05353 0.00946002 0.0399936)
(1.07439 0.0165172 0.0628495)
(1.09042 0.0364513 0.0484891)
(1.10868 0.0392172 0.0292831)
(1.12523 0.0260548 0.0273586)
(1.1211 0.0184118 0.00123764)
(1.09947 0.0247366 -0.0536343)
(1.1262 0.0299761 -0.0528603)
(1.11303 0.0331655 -0.0174978)
(1.08969 0.04471 0.0183762)
(1.06155 0.0264903 0.0383578)
(1.01728 -0.0285075 0.0354794)
(0.982947 -0.0594178 0.0135245)
(0.986962 -0.0466698 0.00869202)
(1.02614 -0.0210404 0.0495222)
(1.08314 -0.00706666 0.0900541)
(1.11095 -0.00584285 0.0790646)
(1.07049 -0.0232004 0.0427608)
(1.02897 -0.0366115 0.00199667)
(1.02153 -0.0234286 -0.0448941)
(1.01292 -0.00225284 -0.0667058)
(0.98798 0.00560904 -0.0667768)
(0.942489 -0.0111903 -0.0572803)
(0.900081 -0.0400635 -0.0166504)
(0.883129 -0.0557881 0.0301373)
(0.877062 -0.0527667 0.0629912)
(0.870142 -0.0324626 0.0869716)
(0.877324 0.00329569 0.0868213)
(0.907297 0.0315076 0.060619)
(0.941934 0.0321103 0.0184021)
(0.962517 0.0101925 -0.0393827)
(0.980436 -0.00709143 -0.087606)
(0.988552 -0.00867105 -0.0928853)
(0.975771 -0.0139022 -0.0525425)
(0.972307 -0.0253385 -0.00626977)
(1.0054 -0.00689612 0.0112859)
(1.05163 0.0312638 0.0113112)
(1.06563 0.0440141 0.0180266)
(1.0336 0.0317359 0.0281909)
(1.00572 0.00536205 0.0405144)
(1.01677 -0.0163373 0.0492654)
(1.0378 -0.00644482 0.0387749)
(1.06064 0.0153991 0.0232201)
(1.09586 0.0209786 0.0240901)
(1.12141 0.0185971 0.019079)
(1.12193 0.0225918 -0.0215829)
(1.12116 0.0284843 -0.0591443)
(1.09677 0.0132885 -0.058025)
(1.08698 0.0403611 -0.0309817)
(1.09817 0.069986 0.0304866)
(1.1019 0.0443706 0.0584977)
(1.05991 -0.0170033 0.0214206)
(1.01368 -0.049844 -0.0110773)
(0.998697 -0.0448399 0.0131958)
(1.01143 -0.0266502 0.069433)
(1.0438 -0.00557161 0.0785936)
(1.05167 0.00953471 0.036324)
(1.0054 -0.00628416 0.00227393)
(0.967746 -0.0341232 -0.0190017)
(0.971569 -0.0354062 -0.0386066)
(0.97881 -0.0142188 -0.047328)
(0.968754 0.00806661 -0.0553385)
(0.944226 0.00476016 -0.0469059)
(0.912087 -0.0255855 -0.00790545)
(0.885956 -0.0488568 0.0250199)
(0.861192 -0.0463001 0.045263)
(0.844318 -0.0251928 0.0660283)
(0.865605 0.00433307 0.0673831)
(0.917063 0.0299804 0.0373701)
(0.949758 0.0373201 -0.0142392)
(0.959144 0.0183175 -0.0638577)
(0.974665 -0.00446398 -0.0824984)
(0.990419 -0.0129261 -0.0550749)
(0.99079 -0.0296783 0.0069535)
(0.998056 -0.0521806 0.0460952)
(1.0401 -0.0315516 0.0312306)
(1.0761 0.0188558 0.0143513)
(1.05636 0.0427557 0.034954)
(1.01182 0.03414 0.0632558)
(0.998187 0.0109425 0.0662052)
(1.00772 -0.00602433 0.0419912)
(1.00691 -0.00404131 0.0144655)
(1.01971 -0.00271586 0.00220955)
(1.06199 -0.00272154 -0.0015435)
(1.09644 0.0102836 -0.0121372)
(1.10765 0.0214495 -0.0375273)
(1.10616 0.0147604 -0.0563481)
(1.04476 0.0312006 -0.0863456)
(1.04363 0.0646042 -0.0277927)
(1.09511 0.0742565 0.0653187)
(1.11417 0.0441889 0.0506203)
(1.06496 -0.00858196 -0.0169843)
(1.02254 -0.046534 -0.00781745)
(0.989931 -0.0524076 0.058211)
(0.969888 -0.0396387 0.0909309)
(0.992716 -0.0126316 0.0501092)
(1.01318 0.00888536 0.00175704)
(0.978066 -0.0077435 -0.00928339)
(0.931922 -0.043591 -0.00834534)
(0.928062 -0.0501621 -0.0067258)
(0.940587 -0.0209856 -0.0156912)
(0.945776 0.0113198 -0.0359359)
(0.927487 0.00990728 -0.0295897)
(0.887081 -0.0296428 0.00543842)
(0.856015 -0.0649531 0.0303362)
(0.839422 -0.0655427 0.0441458)
(0.848118 -0.0394347 0.0568287)
(0.888557 -0.000691474 0.0451002)
(0.928607 0.0388074 -0.000305584)
(0.946612 0.0503428 -0.0538127)
(0.961683 0.0180964 -0.076355)
(0.986098 -0.0151061 -0.049234)
(0.998985 -0.0247427 0.00809112)
(0.977789 -0.036939 0.0520632)
(0.975918 -0.0550097 0.0524976)
(1.0301 -0.0313022 0.0281905)
(1.05488 0.0191531 0.0342148)
(1.02084 0.0385993 0.0698507)
(1.00153 0.0349166 0.08073)
(1.01364 0.026902 0.0614655)
(1.00767 0.0087673 0.026627)
(0.972041 -0.0115759 -0.00453247)
(0.969342 -0.0212422 -0.0201279)
(1.0039 -0.00853878 -0.0251733)
(1.03987 0.0139814 -0.0238301)
(1.07131 0.0170945 -0.0383234)
(1.0735 0.0120404 -0.0700456)
(0.975181 0.037263 -0.0923096)
(1.0247 0.0534452 0.0123172)
(1.10955 0.0669659 0.0913936)
(1.09694 0.0598999 0.0275271)
(1.03608 -0.00454426 -0.0284065)
(1.02245 -0.0633035 0.0257185)
(0.990563 -0.0666089 0.0946918)
(0.935684 -0.0417065 0.0776332)
(0.925212 -0.0108334 0.00665757)
(0.946212 0.00829785 -0.024027)
(0.938603 -0.00612409 -0.0227881)
(0.908456 -0.0459422 -0.0204314)
(0.904322 -0.0658706 -0.00676142)
(0.922458 -0.0385306 -0.00722077)
(0.943517 0.00579337 -0.0241332)
(0.934163 0.0167569 -0.0198758)
(0.895778 -0.0297043 0.00459017)
(0.85393 -0.078473 0.0319501)
(0.82619 -0.0751846 0.0613129)
(0.841096 -0.033952 0.0798695)
(0.886182 0.0184328 0.04812)
(0.931897 0.0573018 -0.0161958)
(0.96956 0.0464596 -0.0540034)
(0.983737 -0.00112431 -0.0411235)
(0.984818 -0.022985 0.00390668)
(0.977534 -0.0118026 0.0363711)
(0.954398 -0.0214294 0.0426502)
(0.966211 -0.0499665 0.0464954)
(1.02183 -0.0302808 0.0530701)
(1.02413 0.0199105 0.0772449)
(0.992086 0.0393105 0.0884922)
(0.996719 0.0395497 0.067678)
(1.01891 0.0388717 0.0418927)
(1.00569 0.0244552 0.00571794)
(0.959904 -3.78142e-05 -0.0253749)
(0.956833 -0.0165427 -0.0370028)
(1.00076 -0.00443123 -0.0352811)
(1.04917 0.0232531 -0.0277338)
(1.06179 0.0343095 -0.0535092)
(1.01319 0.0304618 -0.0997717)
(0.963447 0.0228037 -0.0683625)
(1.04952 0.0311851 0.0522299)
(1.11449 0.0668358 0.0908059)
(1.0683 0.0634529 0.00329521)
(1.00283 -0.023538 -0.0186144)
(0.968758 -0.0808826 0.0416201)
(0.920335 -0.0581989 0.07068)
(0.866948 -0.0221445 0.0289922)
(0.865898 -0.000272511 -0.0168734)
(0.918951 0.00803003 -0.0170154)
(0.947042 0.000549528 -0.019907)
(0.921693 -0.0330755 -0.0310044)
(0.903478 -0.0630657 -0.0166371)
(0.921068 -0.0408793 -0.00402189)
(0.949561 0.0116324 -0.0076712)
(0.959459 0.0262569 -0.0134939)
(0.952053 -0.0261461 -0.00354727)
(0.901437 -0.0754025 0.0414242)
(0.84071 -0.0629864 0.0900783)
(0.847266 -0.0173719 0.0962483)
(0.90263 0.0280008 0.0433667)
(0.964783 0.0559719 -0.0111767)
(0.989565 0.0389708 -0.0200324)
(0.970086 -0.00564366 -0.00399796)
(0.972457 -0.0166319 0.0130526)
(0.990222 0.00344108 0.0209912)
(0.95476 -0.00999029 0.0342193)
(0.921696 -0.0420069 0.0644222)
(0.949191 -0.0196765 0.0947065)
(0.957875 0.0303474 0.106869)
(0.95895 0.046986 0.0793004)
(0.989065 0.045272 0.046467)
(1.02348 0.0490182 0.0297972)
(1.01513 0.0349183 -0.00689553)
(0.961332 0.00243353 -0.0492855)
(0.954673 -0.0163791 -0.0655818)
(1.00681 0.00867984 -0.0610932)
(1.04372 0.0503589 -0.0521812)
(1.02685 0.0651734 -0.0775032)
(0.972073 0.0434943 -0.108394)
(1.00358 0.00658198 -0.0315351)
(1.05698 0.0208119 0.0616305)
(1.06073 0.0696814 0.0477945)
(1.02367 0.0592693 -0.0192564)
(0.982724 -0.0283992 0.0045881)
(0.927166 -0.0830195 0.0491898)
(0.875286 -0.0529593 0.0354136)
(0.830765 -0.013339 -0.0107386)
(0.849781 -0.00180564 -0.027115)
(0.923464 0.00384265 -0.0159329)
(0.950942 0.0118889 -0.027597)
(0.914499 -0.0143785 -0.0339618)
(0.886288 -0.0523156 -0.00610456)
(0.901656 -0.036185 0.00975888)
(0.933062 0.0161559 0.00595262)
(0.965139 0.0297635 -0.00905976)
(0.979957 -0.022966 -0.00533026)
(0.942489 -0.0605978 0.0514613)
(0.898965 -0.039777 0.0935223)
(0.90698 -0.0135212 0.0681438)
(0.939766 0.0138466 0.0188533)
(0.979497 0.0460081 -0.00783334)
(0.978418 0.0284807 -0.0122004)
(0.961321 -0.025388 -0.00797223)
(0.993623 -0.0257981 -0.00551474)
(1.01087 0.0201077 0.00568647)
(0.932701 0.0163248 0.0321985)
(0.879053 -0.0365996 0.0689219)
(0.897033 -0.0256012 0.100923)
(0.913129 0.0368266 0.0918396)
(0.936622 0.0476952 0.0544531)
(0.976327 0.0264943 0.0415131)
(1.01866 0.0378483 0.0278356)
(1.0056 0.043095 -0.0262578)
(0.940648 0.0141251 -0.0703831)
(0.925493 -0.00771816 -0.0711806)
(0.965693 0.0197078 -0.0640888)
(1.00535 0.0732137 -0.0655944)
(1.02207 0.0932257 -0.0945973)
(0.998159 0.0491854 -0.102695)
(1.02404 -0.00327359 -0.00348615)
(1.03085 0.0243727 0.0574773)
(1.01225 0.0701888 0.0226749)
(1.0332 0.048344 -0.00687296)
(1.01727 -0.0321717 0.0462978)
(0.913993 -0.073808 0.0665231)
(0.833123 -0.0306177 0.00329491)
(0.796944 0.00749129 -0.0536628)
(0.836049 0.00127681 -0.0591545)
(0.907608 0.00649433 -0.0502869)
(0.936468 0.0282085 -0.0581581)
(0.920791 0.00756738 -0.0429756)
(0.881652 -0.0357072 0.000582855)
(0.866181 -0.0289843 0.0196335)
(0.897459 0.0167046 0.0190508)
(0.942323 0.0249123 0.000255893)
(0.95268 -0.0317798 0.00276976)
(0.928501 -0.055125 0.0654179)
(0.918871 -0.0196057 0.0959879)
(0.924991 -0.0120547 0.0476357)
(0.931995 0.00287968 -0.00387198)
(0.952139 0.0447561 -0.0299089)
(0.960467 0.0163049 -0.0283112)
(0.973722 -0.0474303 -0.00720889)
(1.0033 -0.0255146 0.000205672)
(0.986809 0.0450862 0.0120435)
(0.940504 0.0333764 0.0312811)
(0.928936 -0.0439897 0.0637818)
(0.904783 -0.0300607 0.0857044)
(0.907518 0.0382191 0.0593121)
(0.946287 0.023754 0.0410902)
(0.971252 0.00556698 0.0464429)
(0.986007 0.0402773 0.007749)
(0.959305 0.0477232 -0.0743196)
(0.917098 0.0080359 -0.0972388)
(0.885245 -0.0102736 -0.0605559)
(0.893863 0.0194234 -0.0497815)
(0.969129 0.076133 -0.0656675)
(1.02367 0.0987498 -0.107049)
(1.01628 0.0431046 -0.0964554)
(0.989796 0.00966887 0.00451126)
(0.974571 0.0451064 0.0498002)
(0.994338 0.0723646 0.0275008)
(1.05923 0.0434122 0.0185162)
(1.04997 -0.0237532 0.0800527)
(0.918115 -0.0566906 0.0864474)
(0.814185 -0.0134441 0.00719643)
(0.779522 0.00997439 -0.0528171)
(0.802278 -0.00530731 -0.0817668)
(0.85544 0.00961695 -0.0906337)
(0.907494 0.0381785 -0.0780854)
(0.905557 0.0239752 -0.048353)
(0.853043 -0.014099 -0.00775212)
(0.836722 -0.0251174 0.0311973)
(0.871006 0.00434217 0.0386369)
(0.917266 0.0189797 -0.000904871)
(0.944348 -0.029959 0.0196628)
(0.921076 -0.0438143 0.0978213)
(0.91947 -0.00510032 0.100066)
(0.907789 -0.00804939 0.0299929)
(0.866056 0.0107237 -0.0257548)
(0.882369 0.0486852 -0.0531337)
(0.940611 -0.0080005 -0.026688)
(0.969054 -0.0707085 0.0108017)
(0.991363 -0.0184987 0.00708799)
(0.975522 0.0630353 0.00496279)
(1.00121 0.02944 0.0311455)
(1.00614 -0.0493974 0.0649591)
(0.930306 -0.0208651 0.0669052)
(0.927712 0.0311231 0.0347608)
(0.958643 0.000629959 0.0325786)
(0.980119 -0.00470477 0.0387927)
(1.00728 0.039912 -0.0137437)
(0.964804 0.0465457 -0.0998622)
(0.894467 0.0102689 -0.100096)
(0.82218 -0.000894254 -0.0425172)
(0.81168 0.0243781 -0.0201)
(0.904497 0.0798085 -0.0331819)
(1.0035 0.0997914 -0.083395)
(1.02378 0.0416754 -0.0732649)
(0.937293 0.0345833 0.000819984)
(0.923486 0.0643591 0.0388811)
(0.968623 0.0697276 0.0237151)
(1.0317 0.0430445 0.0221908)
(1.0184 -0.0133851 0.0886147)
(0.907578 -0.0416374 0.101057)
(0.830431 -0.00461987 0.0322629)
(0.796247 0.00294553 -0.0323897)
(0.766576 -0.0125397 -0.0871954)
(0.808098 0.0104171 -0.096414)
(0.887209 0.0417367 -0.069666)
(0.878688 0.0355313 -0.0492957)
(0.84067 0.000973066 -0.00775503)
(0.855221 -0.023871 0.0602597)
(0.869687 -0.00246101 0.0543464)
(0.902113 0.0141484 -0.00764648)
(0.955402 -0.0271833 0.0500601)
(0.938469 -0.030572 0.143252)
(0.934488 0.0074905 0.0985977)
(0.882845 0.00330343 0.00954965)
(0.809391 0.024078 -0.0412621)
(0.89941 0.0373275 -0.0594879)
(0.962397 -0.0370001 0.00429765)
(0.911339 -0.084786 0.045485)
(0.93861 -0.0201191 0.00796271)
(0.993192 0.0596773 -0.0051637)
(1.06396 0.0220017 0.0350731)
(1.03816 -0.0488555 0.057689)
(0.955864 -0.019587 0.0417681)
(0.973271 0.0200858 0.0248784)
(0.993213 -0.0169593 0.0312241)
(1.00168 -0.0207368 0.0208346)
(1.03684 0.0245554 -0.0350812)
(0.969911 0.0335925 -0.0980742)
(0.874396 0.0121476 -0.0868504)
(0.812803 0.0134246 -0.0355831)
(0.786844 0.0375369 -0.00550315)
(0.862242 0.0758545 -0.0207828)
(0.987428 0.0796482 -0.0737673)
(1.00718 0.0403655 -0.0633822)
(0.901265 0.0587082 0.00826038)
(0.88708 0.0764742 0.0380541)
(0.948264 0.0712587 0.0261538)
(1.00928 0.0490666 0.0250495)
(0.97637 -0.00481332 0.0873383)
(0.873107 -0.0307484 0.103748)
(0.824916 -0.0044974 0.0383275)
(0.787115 -0.00492315 -0.0250263)
(0.75392 -0.0153702 -0.0703053)
(0.810051 0.00769907 -0.0724349)
(0.875923 0.041478 -0.048781)
(0.860497 0.0398327 -0.0405829)
(0.85874 0.00434221 0.000688239)
(0.868543 -0.0196279 0.0751714)
(0.859832 0.00203857 0.0589075)
(0.913082 0.014037 -0.00121951)
(0.964765 -0.0211224 0.0791135)
(0.941192 -0.0140795 0.167557)
(0.934962 0.0246973 0.0867142)
(0.848722 0.0195285 -0.0104748)
(0.824556 0.0278538 -0.0559239)
(0.976068 0.0215278 -0.0531774)
(0.963055 -0.0457181 0.038128)
(0.84349 -0.0825122 0.0642396)
(0.874249 -0.0284776 0.00316662)
(1.01284 0.0430195 -0.0108479)
(1.10665 0.0167643 0.0222744)
(1.01798 -0.0475067 0.04367)
(0.932183 -0.029178 0.0404903)
(1.02731 0.00857641 0.0468623)
(1.06193 -0.0217909 0.0430979)
(0.97907 -0.0277651 -0.00320337)
(0.976042 0.0215553 -0.059936)
(0.930895 0.0249394 -0.0959092)
(0.851989 0.0126536 -0.0699544)
(0.817608 0.0304656 -0.0207307)
(0.813913 0.0457191 0.00378139)
(0.87715 0.0542894 -0.0287448)
(0.967875 0.0556369 -0.0869548)
(0.976167 0.045159 -0.0597887)
(0.88364 0.0712153 0.0225655)
(0.873293 0.079391 0.0493451)
(0.946889 0.0676761 0.0382498)
(1.00369 0.0471975 0.0329616)
(0.959586 0.000561323 0.0864854)
(0.847645 -0.0237749 0.0926075)
(0.802206 -0.00710038 0.0267307)
(0.764116 -0.00898213 -0.0316185)
(0.749419 -0.01773 -0.0674355)
(0.816262 0.00263787 -0.0557453)
(0.870936 0.0414757 -0.0305971)
(0.855203 0.0406299 -0.0314998)
(0.86827 0.00134736 0.00674274)
(0.870438 -0.0186009 0.0655268)
(0.841708 0.0044716 0.0366316)
(0.905073 0.0148318 -0.00659916)
(0.951587 -0.0165168 0.0925892)
(0.936726 -0.00279871 0.167476)
(0.919678 0.0393458 0.0587862)
(0.821108 0.0251211 -0.0348291)
(0.884077 0.0253726 -0.0567136)
(1.00436 0.0185248 -0.0314771)
(0.913931 -0.0517573 0.0613985)
(0.829246 -0.088469 0.0565911)
(0.881025 -0.0494912 -0.0305473)
(1.05954 0.0144692 -0.0394197)
(1.11785 0.0144623 0.0138561)
(0.967365 -0.037115 0.0470415)
(0.920932 -0.0373114 0.0538276)
(1.08207 -0.00547418 0.0731477)
(1.07221 -0.0197223 0.0479804)
(0.929061 -0.0168427 -0.031687)
(0.882314 0.0278529 -0.0865782)
(0.827626 0.0124741 -0.112234)
(0.79394 0.00481256 -0.0753177)
(0.824117 0.0371467 0.0022499)
(0.878434 0.0441635 0.0329998)
(0.920475 0.0378694 -0.0146567)
(0.974648 0.0431895 -0.0780428)
(0.975554 0.051942 -0.0428348)
(0.876879 0.0770796 0.038575)
(0.896219 0.0723155 0.0654483)
(0.965763 0.0547326 0.0508163)
(0.997621 0.0382032 0.0364946)
(0.937794 -0.00250341 0.0686228)
(0.823689 -0.0235962 0.0657634)
(0.776133 -0.00519512 0.019816)
(0.736088 -0.00393479 -0.0312875)
(0.735468 -0.0155987 -0.068625)
(0.815042 -0.0018571 -0.0446201)
(0.872108 0.0394751 -0.021724)
(0.851839 0.0423545 -0.0343071)
(0.893718 0.0044767 0.00543203)
(0.884859 -0.0192468 0.0533337)
(0.815967 -0.000123537 0.0197253)
(0.892701 0.0132145 -0.00840477)
(0.942036 -0.0134668 0.102413)
(0.926316 0.00645605 0.15827)
(0.903762 0.0481114 0.0253135)
(0.835777 0.0214213 -0.0504744)
(0.920528 0.0236304 -0.0477437)
(0.99208 0.0207682 -0.00632289)
(0.907868 -0.047384 0.0685045)
(0.853653 -0.0908459 0.0246244)
(0.908757 -0.0715203 -0.0678145)
(1.0475 -0.00564049 -0.0497845)
(1.07631 0.0225733 0.0304214)
(0.973854 -0.0227446 0.0664159)
(0.945689 -0.041064 0.0715579)
(1.04321 -0.00741601 0.0762836)
(0.989019 -0.0134541 0.0198066)
(0.905239 -0.0045907 -0.059981)
(0.816444 0.0406603 -0.102085)
(0.717308 0.00138696 -0.114184)
(0.726994 -0.019401 -0.0734076)
(0.855666 0.0253439 0.00615981)
(0.960912 0.0383376 0.0394055)
(0.967293 0.0341322 -0.00889002)
(1.0016 0.0399968 -0.067307)
(0.983047 0.0583321 -0.0259903)
(0.895546 0.077011 0.0548813)
(0.942894 0.0555522 0.076923)
(0.964119 0.0350212 0.0468067)
(0.983442 0.0237361 0.034771)
(0.933945 -0.0075922 0.0582361)
(0.79201 -0.0195379 0.0412818)
(0.730578 0.00451627 0.00625907)
(0.713593 0.00848708 -0.0279135)
(0.731336 -0.00837851 -0.0533498)
(0.818495 -0.00246007 -0.0230604)
(0.868375 0.0375875 -0.0131331)
(0.854353 0.0414129 -0.0401119)
(0.93624 0.00808261 0.00324772)
(0.881898 -0.0151094 0.0521897)
(0.778936 0.000663285 0.0160482)
(0.886989 0.0102014 -0.005699)
(0.925722 -0.0117919 0.112427)
(0.899687 0.0151822 0.143826)
(0.910768 0.0497571 -0.00144341)
(0.874463 0.0189408 -0.0573366)
(0.930036 0.0258883 -0.0423043)
(0.996445 0.0214617 0.0119926)
(0.949945 -0.0445401 0.0550497)
(0.877757 -0.0809809 -0.0247489)
(0.836631 -0.064619 -0.0761547)
(0.895348 -0.00852576 -0.00896296)
(1.02068 0.0221054 0.0715581)
(1.02138 -0.0169828 0.098748)
(0.910228 -0.0373228 0.082914)
(0.896322 -0.00775214 0.0438051)
(0.872231 -0.0143607 -0.0233692)
(0.821594 0.00252183 -0.0726912)
(0.714377 0.0547126 -0.105667)
(0.710318 -0.00302086 -0.0842601)
(0.723236 -0.0515441 -0.0121468)
(0.860046 -0.0040719 0.0566346)
(0.986862 0.0224898 0.0623328)
(0.995845 0.0302569 -0.00572572)
(1.0324 0.0421327 -0.0628673)
(0.982801 0.0671115 -0.0149932)
(0.937939 0.0707286 0.071595)
(0.954617 0.0389747 0.0753246)
(0.943152 0.0184659 0.0510411)
(0.99838 0.0154883 0.0617527)
(0.942944 -0.00445694 0.0711416)
(0.774069 -0.010237 0.0348599)
(0.722348 0.0122864 0.00895238)
(0.722569 0.0171366 -0.0145786)
(0.751167 -0.00134974 -0.0277458)
(0.829896 -0.00114276 0.00396834)
(0.856956 0.0370397 -0.00525934)
(0.875603 0.0406366 -0.0351827)
(0.978764 0.0124332 0.00715449)
(0.875376 -0.00621508 0.0513211)
(0.762573 0.00137513 0.0122685)
(0.880199 0.00369938 -0.00827684)
(0.910334 -0.00931585 0.108197)
(0.883586 0.0228221 0.119535)
(0.920346 0.0510438 -0.0218665)
(0.906225 0.0176706 -0.0641235)
(0.927069 0.0227175 -0.0406212)
(1.02952 0.0197214 0.0117642)
(0.985042 -0.0398161 0.0285526)
(0.865731 -0.0702817 -0.039261)
(0.818055 -0.0551704 -0.0453157)
(0.843438 -0.0160269 0.0488666)
(1.04114 0.00765234 0.124093)
(1.02473 -0.0103147 0.114586)
(0.780106 -0.0282584 0.0480184)
(0.74373 -0.015139 -0.00571936)
(0.764656 -0.0153422 -0.0407586)
(0.690451 0.0160477 -0.0700808)
(0.638044 0.0559686 -0.109932)
(0.742975 -0.00901401 -0.055826)
(0.750676 -0.0731425 0.0490979)
(0.792902 -0.036599 0.109545)
(0.875139 -0.00119359 0.0855395)
(0.908798 0.0213951 -0.00146109)
(0.977727 0.0463868 -0.0595819)
(0.971019 0.0737998 -0.00405627)
(0.955545 0.0634061 0.0725906)
(0.957298 0.0325774 0.0672543)
(0.946174 0.0110302 0.0638774)
(1.02592 0.0137228 0.0919409)
(0.954232 0.00418196 0.088436)
(0.758336 -0.00107867 0.0348755)
(0.723742 0.0172735 0.0160346)
(0.740182 0.024366 0.00268533)
(0.776761 0.00664443 0.0014097)