/*--------------------------------*- C++ -*----------------------------------*\
  =========                 |
  \\      /  F ield         | OpenFOAM: The Open Source CFD Toolbox
   \\    /   O peration     | Website:  https://openfoam.org
    \\  /    A nd           | Version:  10
     \\/     M anipulation  |
\*---------------------------------------------------------------------------*/
FoamFile
{
    format      ascii;
    class       volSymmTensorField;
    location    "85";
    object      UPrime2Mean;
}
// * * * * * * * * * * * * * * * * * * * * * * * * * * * * * * * * * * * * * //

dimensions      [0 2 -2 0 0 0 0];

internalField   nonuniform List<symmTensor> 
25600
(
(0.00138968 2.17796e-05 -6.68624e-06 8.41611e-05 5.38988e-07 2.98048e-05)
(0.00138742 2.06119e-05 -8.28946e-06 8.38136e-05 6.75802e-07 3.00606e-05)
(0.00138658 2.00289e-05 -8.58947e-06 8.43772e-05 5.95412e-07 3.0372e-05)
(0.00138616 1.9585e-05 -7.91916e-06 8.47087e-05 1.77934e-07 3.02509e-05)
(0.00138423 1.86688e-05 -7.54812e-06 8.62129e-05 1.10554e-06 3.03215e-05)
(0.00138364 1.83504e-05 -7.27036e-06 8.64731e-05 1.57306e-06 3.0189e-05)
(0.0013843 1.81757e-05 -6.25191e-06 8.53967e-05 5.74552e-07 2.98782e-05)
(0.00138416 1.93842e-05 -5.92465e-06 8.83499e-05 9.46154e-07 3.0427e-05)
(0.00138331 2.16835e-05 -6.71459e-06 8.84364e-05 1.14997e-06 3.07034e-05)
(0.00138329 2.41473e-05 -7.38966e-06 8.46272e-05 1.08004e-06 3.04553e-05)
(0.0013854 2.47139e-05 -7.84641e-06 8.84596e-05 2.0195e-06 3.04011e-05)
(0.00138801 2.38533e-05 -7.76225e-06 9.02094e-05 1.28067e-06 3.02781e-05)
(0.00138874 2.47581e-05 -7.80065e-06 8.67514e-05 4.11358e-07 3.0469e-05)
(0.00139031 2.56903e-05 -8.92759e-06 8.81214e-05 1.14721e-06 3.09126e-05)
(0.00139249 2.48028e-05 -9.33112e-06 8.78383e-05 3.37251e-07 3.04557e-05)
(0.00139096 2.44185e-05 -8.74143e-06 8.65061e-05 -1.21418e-06 3.01196e-05)
(0.00138603 2.50192e-05 -8.83321e-06 8.81931e-05 -1.01442e-07 3.08501e-05)
(0.00137977 2.74852e-05 -8.98849e-06 8.84107e-05 -2.66303e-08 3.09856e-05)
(0.00137401 3.16567e-05 -8.23627e-06 8.64548e-05 -1.81532e-06 3.05156e-05)
(0.00137135 3.28756e-05 -6.8231e-06 8.80668e-05 -1.57597e-06 3.03764e-05)
(0.00137132 3.11133e-05 -6.30585e-06 8.84512e-05 -9.12565e-07 3.01585e-05)
(0.00137202 3.08792e-05 -5.79516e-06 8.58455e-05 -8.53964e-07 2.99585e-05)
(0.00137318 3.00672e-05 -5.38896e-06 8.5548e-05 4.73363e-07 2.97926e-05)
(0.00137524 2.77664e-05 -4.92326e-06 8.39085e-05 8.71416e-07 2.88041e-05)
(0.00137562 2.78497e-05 -4.02242e-06 8.31018e-05 9.59473e-07 2.85595e-05)
(0.00137548 2.82308e-05 -4.1633e-06 8.42207e-05 1.70793e-06 2.94271e-05)
(0.00137822 2.77814e-05 -4.76309e-06 8.26715e-05 1.17744e-06 2.92576e-05)
(0.00138103 2.78772e-05 -4.78546e-06 8.10294e-05 1.24364e-06 2.8812e-05)
(0.00138128 2.57924e-05 -4.8034e-06 8.02686e-05 1.75005e-06 2.90508e-05)
(0.00138194 2.43997e-05 -5.13463e-06 7.84245e-05 8.41015e-07 2.90393e-05)
(0.00138178 2.42157e-05 -5.64693e-06 7.81461e-05 5.02108e-09 2.87421e-05)
(0.00138132 2.1986e-05 -6.398e-06 7.69499e-05 -4.23235e-07 2.88529e-05)
(0.00138347 2.1076e-05 -7.26291e-06 7.77649e-05 -3.98028e-07 2.89611e-05)
(0.00138473 2.07936e-05 -6.87284e-06 7.9404e-05 1.34226e-07 2.89136e-05)
(0.00138576 2.00431e-05 -6.09585e-06 7.66533e-05 -2.10149e-07 2.91788e-05)
(0.00138853 2.1165e-05 -6.06204e-06 7.71747e-05 -4.8862e-07 2.92945e-05)
(0.00138983 2.11432e-05 -6.32427e-06 8.07505e-05 5.09514e-07 2.92451e-05)
(0.00139075 1.97504e-05 -6.78805e-06 8.11315e-05 5.8806e-07 2.96631e-05)
(0.00139325 2.02307e-05 -6.54295e-06 7.99306e-05 -9.2973e-09 3.00886e-05)
(0.00139287 2.15405e-05 -5.71692e-06 8.2085e-05 2.7792e-07 2.99433e-05)
(0.00130536 8.25511e-05 -1.83023e-05 9.42767e-05 8.60103e-06 5.90527e-05)
(0.00130196 8.25296e-05 -1.98829e-05 9.35584e-05 7.40677e-06 5.94953e-05)
(0.00129905 8.36454e-05 -1.94102e-05 9.58599e-05 8.04113e-06 5.99918e-05)
(0.00129575 8.15964e-05 -1.89004e-05 9.49062e-05 8.43565e-06 6.04973e-05)
(0.00129144 7.91762e-05 -1.95383e-05 9.3546e-05 8.48804e-06 6.1763e-05)
(0.00129133 7.98185e-05 -1.99677e-05 9.47072e-05 8.6741e-06 6.24717e-05)
(0.0012913 7.95781e-05 -2.06501e-05 9.37579e-05 7.45664e-06 6.22416e-05)
(0.00128898 8.1024e-05 -2.05943e-05 9.53036e-05 7.4864e-06 6.32289e-05)
(0.00128749 8.34361e-05 -1.98367e-05 9.72407e-05 7.40487e-06 6.40421e-05)
(0.00128658 8.436e-05 -1.90492e-05 9.4575e-05 5.69202e-06 6.37494e-05)
(0.00128579 8.75224e-05 -1.8399e-05 9.59523e-05 5.93567e-06 6.36855e-05)
(0.00128497 8.77907e-05 -1.93681e-05 9.79641e-05 6.28195e-06 6.34913e-05)
(0.00128414 8.56414e-05 -2.03237e-05 9.69685e-05 4.94611e-06 6.22209e-05)
(0.00128602 8.75683e-05 -2.16093e-05 9.84124e-05 4.41113e-06 6.04425e-05)
(0.00128573 8.66197e-05 -2.33997e-05 9.86007e-05 3.99328e-06 5.94084e-05)
(0.00128103 8.31008e-05 -2.31939e-05 9.74402e-05 3.03689e-06 5.89054e-05)
(0.00127975 8.45496e-05 -2.12199e-05 9.94713e-05 3.35829e-06 5.90451e-05)
(0.00127917 8.55185e-05 -2.06186e-05 0.000100941 2.84049e-06 5.85441e-05)
(0.00127905 8.57051e-05 -1.99648e-05 0.000100123 1.554e-06 5.7325e-05)
(0.00128019 8.65417e-05 -1.79195e-05 0.000101633 2.45995e-06 5.68119e-05)
(0.00127974 8.50808e-05 -1.70313e-05 0.000101941 3.13493e-06 5.59316e-05)
(0.00127899 8.18785e-05 -1.55441e-05 9.88246e-05 3.32794e-06 5.493e-05)
(0.00127454 7.71081e-05 -1.34494e-05 9.53921e-05 5.49243e-06 5.53946e-05)
(0.00126952 7.26568e-05 -1.32965e-05 9.29914e-05 6.5051e-06 5.52355e-05)
(0.00126814 7.14228e-05 -1.31903e-05 9.2892e-05 6.30315e-06 5.46242e-05)
(0.00127031 7.25052e-05 -1.25584e-05 9.39119e-05 6.14625e-06 5.49663e-05)
(0.00127339 7.30102e-05 -1.33824e-05 9.33871e-05 5.19258e-06 5.53524e-05)
(0.00127496 7.29876e-05 -1.41069e-05 9.26121e-05 5.39659e-06 5.59088e-05)
(0.00127681 7.35929e-05 -1.4433e-05 9.3556e-05 5.30117e-06 5.57107e-05)
(0.00128066 7.38205e-05 -1.55004e-05 9.39666e-05 3.83343e-06 5.47882e-05)
(0.00128412 7.35194e-05 -1.53096e-05 9.24697e-05 3.85907e-06 5.53612e-05)
(0.00128574 7.26875e-05 -1.5019e-05 8.95794e-05 4.49791e-06 5.66945e-05)
(0.00128739 7.28185e-05 -1.53765e-05 8.85445e-05 5.47772e-06 5.68984e-05)
(0.00128985 7.24677e-05 -1.50966e-05 8.79887e-05 6.96795e-06 5.60986e-05)
(0.00129197 7.13894e-05 -1.46908e-05 8.62845e-05 6.85052e-06 5.58445e-05)
(0.00129588 7.39702e-05 -1.43861e-05 8.71414e-05 6.96591e-06 5.68016e-05)
(0.00130076 7.73298e-05 -1.48138e-05 9.06382e-05 8.37418e-06 5.75824e-05)
(0.00130004 7.64102e-05 -1.6888e-05 9.13272e-05 7.72701e-06 5.73681e-05)
(0.0013021 7.84635e-05 -1.83179e-05 9.09183e-05 6.76961e-06 5.73326e-05)
(0.00130712 8.25496e-05 -1.76259e-05 9.39065e-05 8.35057e-06 5.82615e-05)
(0.00116924 0.00010876 -2.82592e-05 0.000145568 1.75438e-05 0.000112732)
(0.00116399 0.000103694 -2.96891e-05 0.000144347 1.67826e-05 0.000112683)
(0.0011666 0.000106607 -2.86285e-05 0.00014756 1.8426e-05 0.000112748)
(0.00116609 0.00010458 -2.79873e-05 0.00014421 1.81933e-05 0.000112794)
(0.00115927 9.82575e-05 -2.88226e-05 0.000140363 1.77355e-05 0.000114407)
(0.00116147 9.91999e-05 -2.74191e-05 0.000142558 1.94521e-05 0.00011535)
(0.00115958 9.90644e-05 -2.61046e-05 0.000142547 1.7505e-05 0.000113196)
(0.00115076 9.68396e-05 -2.37219e-05 0.000143161 1.64645e-05 0.000111742)
(0.00115031 9.81885e-05 -2.0507e-05 0.00014499 1.84547e-05 0.000112062)
(0.00115524 9.81925e-05 -2.11496e-05 0.000144276 1.78103e-05 0.00011108)
(0.00116057 9.92059e-05 -2.1551e-05 0.000145973 1.82928e-05 0.00010727)
(0.00116194 0.000100826 -2.13191e-05 0.000148426 1.96364e-05 0.000102218)
(0.00116122 9.91765e-05 -2.23357e-05 0.000148733 1.85611e-05 9.8392e-05)
(0.00116799 0.000100467 -2.36565e-05 0.000149591 1.79141e-05 9.65117e-05)
(0.00117729 0.000104942 -2.46755e-05 0.000150135 1.76165e-05 9.61019e-05)
(0.00118035 0.000105142 -2.48588e-05 0.000149814 1.70987e-05 9.58177e-05)
(0.00118684 0.000106509 -2.46257e-05 0.000152749 1.71487e-05 9.53563e-05)
(0.00119205 0.00011056 -2.54205e-05 0.000154211 1.50939e-05 9.4676e-05)
(0.00119311 0.000115147 -2.50737e-05 0.000154212 1.21909e-05 9.30445e-05)
(0.00119665 0.000119784 -2.17764e-05 0.000156904 1.22421e-05 9.22455e-05)
(0.00119384 0.000118624 -1.89191e-05 0.000157047 1.28563e-05 9.18211e-05)
(0.00118866 0.000114023 -1.70865e-05 0.000154269 1.31576e-05 9.05286e-05)
(0.00119089 0.000111685 -1.56708e-05 0.00015197 1.44505e-05 9.05679e-05)
(0.00119493 0.000110467 -1.64651e-05 0.000150355 1.46848e-05 9.15559e-05)
(0.00119433 0.000109636 -1.89268e-05 0.00014999 1.41023e-05 9.2702e-05)
(0.00119894 0.000113584 -2.01368e-05 0.000150979 1.38411e-05 9.31481e-05)
(0.00120109 0.00011635 -2.14884e-05 0.000150774 1.30221e-05 9.37595e-05)
(0.0011996 0.000119687 -2.2879e-05 0.000148412 1.43299e-05 9.62322e-05)
(0.0012009 0.000126909 -2.38977e-05 0.000147427 1.50464e-05 9.76992e-05)
(0.00119763 0.000128748 -2.56968e-05 0.000147168 1.30843e-05 9.77656e-05)
(0.00119626 0.000129207 -2.51155e-05 0.000147344 1.33284e-05 9.97307e-05)
(0.00119851 0.000130638 -2.50413e-05 0.000147657 1.37369e-05 0.000102598)
(0.00119583 0.000127872 -2.68378e-05 0.000146309 1.36834e-05 0.000104089)
(0.00119143 0.00012441 -2.77317e-05 0.000145318 1.45647e-05 0.000104586)
(0.0011876 0.000122111 -2.84912e-05 0.000144347 1.3795e-05 0.000105841)
(0.00118255 0.000119361 -2.84414e-05 0.000143119 1.38904e-05 0.000108122)
(0.00118355 0.000118764 -2.75443e-05 0.000145575 1.63238e-05 0.000109983)
(0.00118053 0.000114168 -2.98059e-05 0.000145056 1.6218e-05 0.00011026)
(0.00117356 0.000111782 -3.21376e-05 0.000144508 1.53835e-05 0.000110548)
(0.00117344 0.000114387 -2.95595e-05 0.00014819 1.72872e-05 0.000112124)
(0.0009716 9.23317e-05 -6.6407e-06 0.000199717 2.01515e-05 0.000162297)
(0.000969194 9.1147e-05 -8.26609e-06 0.00019986 2.05938e-05 0.000161294)
(0.000981338 9.6819e-05 -9.24504e-06 0.000204215 2.08755e-05 0.000161734)
(0.000988259 9.66116e-05 -9.31952e-06 0.000199524 1.94685e-05 0.000161724)
(0.000987796 9.44893e-05 -8.14947e-06 0.000195694 1.94782e-05 0.000163522)
(0.000996376 0.000100874 -7.33782e-06 0.000200546 2.17458e-05 0.000164209)
(0.00100315 0.00010849 -7.9102e-06 0.000203276 1.92346e-05 0.000162087)
(0.00101249 0.000113227 -7.60571e-06 0.000203517 1.74696e-05 0.000162659)
(0.00102044 0.000118567 -5.71819e-06 0.000207376 2.04327e-05 0.000163508)
(0.00102715 0.00012602 -5.74058e-06 0.000211364 1.9269e-05 0.00016175)
(0.00104145 0.000134296 -7.05645e-06 0.000214223 1.77419e-05 0.000160023)
(0.00105062 0.000141559 -7.58179e-06 0.000218028 1.96104e-05 0.000158021)
(0.0010525 0.000147062 -8.24073e-06 0.000221205 1.91426e-05 0.000156192)
(0.00106085 0.00015429 -1.10629e-05 0.000225956 1.67305e-05 0.000156038)
(0.00107433 0.000162247 -1.26566e-05 0.000230406 1.44248e-05 0.000157428)
(0.00107399 0.000163274 -1.16752e-05 0.000231693 1.26847e-05 0.00015784)
(0.00107394 0.000169327 -9.22237e-06 0.000237364 1.01828e-05 0.000157246)
(0.00107839 0.000177922 -6.61071e-06 0.000241189 6.43173e-06 0.000153303)
(0.00107043 0.000178812 -1.33252e-06 0.000242127 3.10283e-06 0.000146254)
(0.00106432 0.000181345 7.21798e-06 0.000246018 1.51871e-06 0.000142685)
(0.00105389 0.000177449 1.27979e-05 0.000244435 3.81361e-06 0.000141286)
(0.00104366 0.000168977 1.55966e-05 0.000237623 7.88692e-06 0.00013992)
(0.00104594 0.00016277 1.65798e-05 0.000230032 9.7819e-06 0.000140439)
(0.00103782 0.000153946 1.61183e-05 0.000226403 9.19243e-06 0.000142376)
(0.00102401 0.000149114 1.43379e-05 0.000226783 9.7108e-06 0.000143835)
(0.00102153 0.000150016 1.10146e-05 0.000221201 1.41458e-05 0.000142546)
(0.00101334 0.000146936 9.66012e-06 0.000212917 1.92444e-05 0.000141594)
(0.00100303 0.000144221 7.92174e-06 0.000209484 2.42349e-05 0.000143305)
(0.000989824 0.000141793 2.94181e-06 0.000208706 2.57211e-05 0.00014535)
(0.000975923 0.000135849 3.18904e-07 0.000205848 2.41255e-05 0.00014729)
(0.000970429 0.000130201 1.47076e-06 0.000205982 2.5114e-05 0.000151004)
(0.000967743 0.000125036 1.54566e-06 0.00020758 2.50312e-05 0.000154895)
(0.000964541 0.000118427 -9.5386e-07 0.000204906 2.31624e-05 0.000155833)
(0.000960544 0.000111197 -4.12082e-06 0.000203682 2.33102e-05 0.000156105)
(0.000960016 0.000106234 -5.2843e-06 0.000203936 2.25595e-05 0.00015824)
(0.000958889 0.000101905 -5.09603e-06 0.000202773 2.11059e-05 0.000159483)
(0.000960892 9.94048e-05 -4.58645e-06 0.000203557 2.13433e-05 0.000160965)
(0.000964332 9.50787e-05 -5.94868e-06 0.00020047 2.12241e-05 0.000161589)
(0.00096421 9.17336e-05 -7.56466e-06 0.000200581 2.01052e-05 0.000160763)
(0.000971214 9.46438e-05 -6.22858e-06 0.000204383 1.98171e-05 0.000162334)
(0.000953548 0.000219914 5.31915e-06 0.000329877 -1.26551e-05 0.000236848)
(0.00095978 0.000225682 6.15551e-06 0.000336607 -1.30767e-05 0.000234484)
(0.000965311 0.000234569 6.6822e-06 0.00034746 -1.30112e-05 0.000235065)
(0.00096183 0.000233516 5.71734e-06 0.000342721 -1.12178e-05 0.000234283)
(0.000963298 0.000231426 7.07075e-06 0.000336906 -9.21565e-06 0.000233146)
(0.000968379 0.000239695 5.62782e-06 0.000346429 -7.6515e-06 0.000232157)
(0.000969177 0.000248074 2.92392e-06 0.000351318 -9.5033e-06 0.000231575)
(0.000973303 0.000253768 3.73381e-06 0.000349122 -9.41451e-06 0.000233287)
(0.000969973 0.000257545 5.15975e-06 0.00035295 -5.74372e-06 0.000234866)
(0.000968871 0.000258698 3.67095e-06 0.000357256 -7.35202e-06 0.000235294)
(0.000969299 0.0002607 3.31262e-07 0.000359349 -9.15029e-06 0.000236212)
(0.000966926 0.000262828 1.54192e-06 0.000361675 -4.38465e-06 0.000236633)
(0.000965269 0.000260726 1.76226e-06 0.000360807 -9.90312e-07 0.000237256)
(0.000957957 0.000257918 -1.71534e-06 0.000361733 -2.33622e-06 0.000240587)
(0.000952463 0.00025349 -3.64869e-07 0.000362277 -3.46909e-06 0.000244049)
(0.00094583 0.000243189 3.34341e-06 0.000358822 -2.58753e-06 0.000243661)
(0.000942612 0.000243025 6.97279e-06 0.00036043 -4.75173e-06 0.000241629)
(0.000936652 0.000243779 9.1417e-06 0.000359427 -1.0843e-05 0.000233977)
(0.000925482 0.000235624 1.24323e-05 0.000355438 -1.49237e-05 0.000225895)
(0.000925264 0.000230991 1.85696e-05 0.000354603 -1.33933e-05 0.000226274)
(0.000915931 0.000220525 1.84707e-05 0.000345657 -1.00583e-05 0.000229043)
(0.000906933 0.000208742 1.68132e-05 0.000334198 -1.03745e-05 0.0002318)
(0.000914503 0.000204588 1.52548e-05 0.000331373 -1.28414e-05 0.000236426)
(0.000917811 0.000198917 1.09252e-05 0.000331169 -1.26618e-05 0.00024093)
(0.000914909 0.000191832 9.25936e-06 0.000324881 -1.15858e-05 0.000244914)
(0.000911634 0.000189697 7.85316e-06 0.000312645 -1.09804e-05 0.000249729)
(0.000914218 0.000188788 6.71048e-06 0.000301618 -9.32895e-06 0.00025403)
(0.000925056 0.000187987 3.50773e-06 0.000297031 -7.37643e-06 0.000256033)
(0.00092371 0.000185426 4.46472e-07 0.000295827 -8.308e-06 0.000258882)
(0.000922493 0.000182398 1.29167e-06 0.000292033 -9.4515e-06 0.000261065)
(0.000927356 0.000182759 5.65755e-07 0.000295388 -9.02069e-06 0.000260951)
(0.000934287 0.000184154 2.42946e-06 0.000302824 -9.32217e-06 0.000260162)
(0.000941021 0.000183643 4.09172e-06 0.000301851 -1.06675e-05 0.000256202)
(0.000940955 0.000186767 1.4967e-06 0.000303597 -1.0743e-05 0.000253207)
(0.000945352 0.0001947 1.82142e-06 0.000310335 -1.14777e-05 0.000253172)
(0.000945974 0.000197056 2.56509e-06 0.000313875 -1.3479e-05 0.000248911)
(0.000945084 0.000201054 4.14974e-06 0.000318926 -1.27707e-05 0.000244906)
(0.000949842 0.00020751 5.00592e-06 0.000321836 -1.19494e-05 0.00024226)
(0.000949125 0.000210577 2.21892e-06 0.000324907 -1.43301e-05 0.00023971)
(0.000950661 0.000216291 3.81937e-06 0.00033013 -1.4564e-05 0.000239652)
(0.00123467 0.000350787 -1.55865e-05 0.000383678 6.31083e-06 0.000355822)
(0.00123798 0.000356015 -1.47405e-05 0.000390657 8.41053e-06 0.000355114)
(0.0012389 0.000360644 -1.39216e-05 0.000395675 1.15969e-05 0.000358992)
(0.00122456 0.000350673 -2.20362e-05 0.000387482 1.31553e-05 0.000361815)
(0.00121723 0.000341482 -2.5875e-05 0.000381982 1.54297e-05 0.000361344)
(0.00122443 0.000344103 -2.61303e-05 0.000386095 1.96222e-05 0.000362448)
(0.00121805 0.000343077 -3.09813e-05 0.000388443 1.77298e-05 0.000363631)
(0.00121496 0.000340829 -3.14248e-05 0.000388384 1.53115e-05 0.000368984)
(0.00120553 0.000336702 -3.19413e-05 0.000385879 1.64771e-05 0.000375902)
(0.00119311 0.000327513 -3.67425e-05 0.000383022 1.52333e-05 0.000377493)
(0.00119306 0.000323571 -3.94905e-05 0.000384927 1.35083e-05 0.000378673)
(0.0011892 0.000318855 -3.96226e-05 0.000385435 1.43276e-05 0.000382339)
(0.00118429 0.000308634 -4.10468e-05 0.000379857 1.24278e-05 0.000384443)
(0.00118987 0.000307218 -4.43238e-05 0.000379457 7.67467e-06 0.000386933)
(0.00119036 0.000301903 -4.50885e-05 0.000377604 2.54004e-06 0.000388989)
(0.00117452 0.000289246 -4.37876e-05 0.000368729 -3.70505e-06 0.000387582)
(0.00117392 0.00029234 -3.9386e-05 0.000367233 -1.12051e-05 0.000386288)
(0.00117867 0.000293571 -3.72511e-05 0.000367592 -1.90364e-05 0.000382315)
(0.00117633 0.000288209 -4.06673e-05 0.000365979 -2.33833e-05 0.000380968)
(0.00117917 0.000289298 -3.99171e-05 0.000363485 -2.18916e-05 0.000387671)
(0.00117088 0.000285244 -3.92148e-05 0.000357341 -1.97318e-05 0.000390333)
(0.00116605 0.000284462 -3.92123e-05 0.00035444 -2.33452e-05 0.000387464)
(0.00118679 0.000294038 -4.02017e-05 0.000358513 -3.1274e-05 0.000386237)
(0.00118893 0.000294574 -4.70709e-05 0.000360889 -3.54967e-05 0.00038727)
(0.00117281 0.000288275 -4.5446e-05 0.000358535 -3.44785e-05 0.000390289)
(0.00117506 0.000290687 -3.8634e-05 0.00035397 -3.41e-05 0.000391654)
(0.00118457 0.000296045 -4.1263e-05 0.000351111 -3.91208e-05 0.000386972)
(0.00119359 0.000299795 -4.27067e-05 0.000356026 -4.51123e-05 0.000384623)
(0.00118747 0.000299448 -3.68749e-05 0.000358963 -4.43222e-05 0.000381806)
(0.00118288 0.000300461 -3.2877e-05 0.000354777 -3.84149e-05 0.000371827)
(0.00119722 0.000310347 -3.12865e-05 0.000359182 -3.22445e-05 0.000362402)
(0.00120422 0.000316173 -2.75063e-05 0.000365416 -2.76645e-05 0.000360404)
(0.00119695 0.000313116 -2.39441e-05 0.000363599 -2.50484e-05 0.000360403)
(0.00120019 0.000324429 -2.22204e-05 0.000370907 -2.0452e-05 0.000360639)
(0.00121167 0.000335419 -2.12162e-05 0.000377954 -1.62537e-05 0.000360659)
(0.001208 0.000329841 -2.09627e-05 0.00037402 -1.37717e-05 0.000359224)
(0.00121787 0.000338604 -1.43777e-05 0.000378097 -9.18655e-06 0.000361718)
(0.00123589 0.000351077 -1.10458e-05 0.000384446 -6.53808e-06 0.000361508)
(0.00122981 0.00034766 -1.77225e-05 0.000386325 -6.4135e-06 0.000356921)
(0.00122641 0.000347685 -1.73739e-05 0.000384861 2.98129e-07 0.000356239)
(0.00167717 0.000370865 -8.18243e-05 0.000416517 2.20403e-05 0.000516327)
(0.0016706 0.000370973 -8.37827e-05 0.000421174 2.65331e-05 0.000516461)
(0.00165403 0.000369869 -8.29116e-05 0.000422853 3.36351e-05 0.000515908)
(0.00163887 0.00035993 -9.31208e-05 0.000416534 3.32737e-05 0.000516739)
(0.0016207 0.000348531 -0.000102849 0.000410057 3.53842e-05 0.000517067)
(0.00161425 0.000347502 -0.000105869 0.000411506 4.05032e-05 0.000517012)
(0.00161219 0.000352475 -0.000110105 0.000414762 3.61993e-05 0.000515703)
(0.00160406 0.000349744 -0.000104549 0.000408107 3.17712e-05 0.000521711)
(0.00158523 0.000340317 -0.000102989 0.000395355 3.15977e-05 0.000527157)
(0.00157908 0.000336025 -0.000112596 0.000388955 3.0624e-05 0.000523801)
(0.00156838 0.00033275 -0.000113924 0.00038757 3.19773e-05 0.000521441)
(0.00154985 0.00032965 -0.000103728 0.000385854 3.4386e-05 0.000521775)
(0.00155555 0.000331432 -8.90635e-05 0.000385661 3.41192e-05 0.000520716)
(0.0015648 0.000333837 -8.27856e-05 0.000391233 3.17442e-05 0.00052346)
(0.00155149 0.000327907 -8.59308e-05 0.000392608 2.73847e-05 0.000525143)
(0.00154121 0.000317492 -7.92711e-05 0.00038529 2.01727e-05 0.000524633)
(0.00154092 0.000316377 -5.91978e-05 0.000383142 1.51806e-05 0.000528346)
(0.00154436 0.000316124 -4.31963e-05 0.000384459 1.32488e-05 0.00052838)
(0.00155284 0.000313245 -3.88886e-05 0.000385001 1.12665e-05 0.000525402)
(0.00154344 0.000309239 -2.89746e-05 0.000383593 1.22999e-05 0.000526503)
(0.00154609 0.000307097 -1.51464e-05 0.000384476 1.37226e-05 0.000523457)
(0.00156087 0.000312397 -6.50658e-06 0.000390221 1.13226e-05 0.000514974)
(0.00158406 0.000320223 -5.43299e-06 0.000398073 4.82241e-06 0.000508379)
(0.00159851 0.000323282 -1.16112e-05 0.000405005 -2.32569e-06 0.000510362)
(0.00159252 0.000322646 -3.96697e-06 0.000406741 -3.18845e-06 0.000520776)
(0.00160643 0.000325801 8.87771e-06 0.000404163 -4.5876e-06 0.000523931)
(0.00163636 0.000333483 1.09328e-06 0.000402891 -1.38837e-05 0.000515063)
(0.0016491 0.000339438 -1.1037e-05 0.000405643 -1.75916e-05 0.000509346)
(0.00163988 0.000344605 -2.40379e-05 0.000406471 -1.17877e-05 0.000498825)
(0.00165417 0.000356448 -3.49835e-05 0.000405595 -7.3291e-06 0.000486962)
(0.00167924 0.000370487 -3.522e-05 0.000408686 -3.20695e-06 0.000483947)
(0.00168265 0.000373947 -3.27468e-05 0.000407482 1.49685e-06 0.000486829)
(0.00169231 0.000374753 -2.56283e-05 0.00040534 5.45002e-06 0.00048857)
(0.00171404 0.000389291 -2.53251e-05 0.000415714 8.40734e-06 0.000487919)
(0.00171325 0.000392631 -4.11703e-05 0.000418295 7.89984e-06 0.000484172)
(0.00170089 0.00038043 -5.35475e-05 0.000414285 6.31946e-06 0.000484769)
(0.00169889 0.000384228 -5.55759e-05 0.000420354 8.57764e-06 0.000493259)
(0.00169887 0.000386039 -5.8157e-05 0.000422928 1.07461e-05 0.000497865)
(0.00169324 0.000376575 -6.87265e-05 0.000420819 1.25011e-05 0.000497852)
(0.00167659 0.000371771 -7.62578e-05 0.000417631 1.8604e-05 0.00050695)
(0.00195875 0.000379168 -7.92965e-05 0.000421148 9.46863e-06 0.000614768)
(0.00196453 0.000384497 -7.19868e-05 0.000423362 2.51893e-05 0.000598567)
(0.00197243 0.00038538 -5.79795e-05 0.000425688 4.0693e-05 0.000588773)
(0.00200416 0.000383276 -5.93788e-05 0.000423011 4.51928e-05 0.000584343)
(0.00202505 0.000387238 -6.3944e-05 0.000421533 5.09737e-05 0.000583043)
(0.00204187 0.000403236 -5.81538e-05 0.000430782 5.74377e-05 0.000582847)
(0.00205031 0.000418545 -5.01034e-05 0.000438423 5.59393e-05 0.000577287)
(0.00203261 0.000413648 -3.53976e-05 0.000428418 5.42158e-05 0.000573467)
(0.00201953 0.00040243 -1.99162e-05 0.000412786 5.27974e-05 0.000571544)
(0.00202618 0.000399833 -1.4435e-05 0.000406598 5.0505e-05 0.000567164)
(0.00201703 0.000404091 -5.90189e-06 0.000408639 5.36816e-05 0.000567262)
(0.0020059 0.000415754 1.33931e-05 0.000413845 6.01337e-05 0.000571423)
(0.00201705 0.00042433 4.13296e-05 0.000419148 6.76393e-05 0.000576442)
(0.00203305 0.000427558 6.05807e-05 0.000422868 7.37302e-05 0.000579289)
(0.0020296 0.00042713 6.50286e-05 0.00042023 7.09912e-05 0.000581372)
(0.00203716 0.000429352 7.51756e-05 0.000416892 6.13012e-05 0.000590705)
(0.00205283 0.000438813 9.4216e-05 0.000419636 5.71931e-05 0.000604823)
(0.00205484 0.000440954 0.000110501 0.000418699 5.79412e-05 0.000615203)
(0.00205508 0.000438306 0.000120141 0.000415406 5.63778e-05 0.000619408)
(0.00202035 0.000436194 0.000129269 0.000416022 5.31175e-05 0.000628778)
(0.002009 0.000441882 0.000130166 0.000424466 4.76291e-05 0.000643478)
(0.00200499 0.00045316 0.000125948 0.000439078 4.47441e-05 0.00064511)
(0.00198831 0.000456898 0.000123369 0.000453781 4.37551e-05 0.000640072)
(0.00198314 0.000452941 0.000118466 0.000462401 3.76625e-05 0.000650294)
(0.00195469 0.000440799 0.000116006 0.000463679 3.39145e-05 0.000666831)
(0.00192995 0.000435013 0.000106517 0.000467603 3.22658e-05 0.000663912)
(0.00192091 0.000436224 8.0207e-05 0.000472924 2.58552e-05 0.00064422)
(0.001912 0.000430487 5.82093e-05 0.00047199 2.32644e-05 0.000626114)
(0.00191393 0.000427319 3.92191e-05 0.000469839 2.47141e-05 0.000610568)
(0.00192355 0.000434138 1.47959e-05 0.000473938 2.28118e-05 0.000599423)
(0.00192084 0.000439012 -1.79783e-06 0.000478154 1.99133e-05 0.00059614)
(0.0019027 0.000428818 -4.44242e-06 0.000472734 1.89578e-05 0.000592621)
(0.00190032 0.00042077 -2.60372e-07 0.000468736 2.0041e-05 0.000594168)
(0.00192215 0.000429579 -9.76488e-06 0.000473218 1.65299e-05 0.00060128)
(0.00192004 0.000419822 -3.00986e-05 0.000467757 5.06415e-06 0.000602306)
(0.00191674 0.00040272 -4.7069e-05 0.00045997 -7.29076e-06 0.000601297)
(0.00192801 0.00040341 -5.94614e-05 0.000461816 -1.11207e-05 0.000609078)
(0.00193283 0.00039788 -6.28415e-05 0.00045984 -5.11755e-06 0.000614156)
(0.00195148 0.000387577 -6.63384e-05 0.000448603 2.20195e-06 0.000613671)
(0.00194847 0.000380231 -7.33248e-05 0.000430505 5.67972e-06 0.00061765)
(0.00215302 0.000526797 2.84383e-07 0.000483365 3.14617e-05 0.000653531)
(0.00218779 0.000552887 3.501e-05 0.000499275 4.25262e-05 0.000638436)
(0.00218845 0.000554761 5.86525e-05 0.000510679 5.52266e-05 0.00063609)
(0.00222909 0.000546591 6.094e-05 0.000510832 5.58116e-05 0.000644775)
(0.00225414 0.00054365 6.79343e-05 0.000507616 5.46167e-05 0.000657467)
(0.00226603 0.000553167 7.85649e-05 0.000510974 5.67585e-05 0.000669494)
(0.00230205 0.000569891 7.59971e-05 0.000516138 5.44356e-05 0.00067562)
(0.00233414 0.000575303 7.10652e-05 0.00051345 4.71199e-05 0.000673929)
(0.00235702 0.000574971 7.40714e-05 0.000508517 3.70836e-05 0.000669191)
(0.00239435 0.000581998 8.07072e-05 0.000506267 2.78767e-05 0.00066984)
(0.00242535 0.000594425 8.4204e-05 0.000509484 2.48454e-05 0.000667818)
(0.00241285 0.000603926 8.21343e-05 0.000513788 2.98657e-05 0.00065787)
(0.00239447 0.000606513 8.40345e-05 0.000509835 4.06974e-05 0.000660956)
(0.00239516 0.000610424 8.88433e-05 0.000502853 4.80242e-05 0.000662155)
(0.00237689 0.000611957 8.59923e-05 0.000498655 4.22493e-05 0.000658439)
(0.00235749 0.000612142 8.02039e-05 0.000501292 2.94067e-05 0.000669557)
(0.00234801 0.000610775 7.45793e-05 0.000506345 2.84853e-05 0.000688192)
(0.00233101 0.000607321 8.55336e-05 0.000506425 4.14924e-05 0.00070724)
(0.00232182 0.000603877 9.64794e-05 0.000500475 5.09133e-05 0.000715491)
(0.00225776 0.000590595 9.17052e-05 0.00049472 5.12081e-05 0.000714813)
(0.00222751 0.00059777 8.70479e-05 0.000508066 4.50703e-05 0.000713993)
(0.00221243 0.000618982 9.30364e-05 0.000533123 4.5461e-05 0.00070018)
(0.00217265 0.000620862 9.65165e-05 0.000545498 5.34842e-05 0.000683285)
(0.00215518 0.000609307 9.56287e-05 0.000540342 5.65408e-05 0.000689891)
(0.00211966 0.000589226 9.79078e-05 0.000528489 6.04142e-05 0.000701812)
(0.00207812 0.000573692 8.96913e-05 0.000519523 6.67344e-05 0.000694813)
(0.00205915 0.0005663 6.8408e-05 0.000511021 6.65165e-05 0.000682781)
(0.00203581 0.000553764 5.82104e-05 0.000501068 6.22906e-05 0.000681096)
(0.00201866 0.00054298 6.0084e-05 0.000494949 6.23874e-05 0.000678402)
(0.00204113 0.000544838 5.32489e-05 0.000494411 6.09276e-05 0.000671899)
(0.00207012 0.000542189 3.73451e-05 0.000494341 5.12057e-05 0.000667458)
(0.0020486 0.000526435 3.38078e-05 0.000494337 4.5508e-05 0.00067227)
(0.00204709 0.000526403 4.41683e-05 0.000499651 4.86741e-05 0.000704004)
(0.00210286 0.000544538 4.18397e-05 0.000507134 4.1568e-05 0.000734463)
(0.0021308 0.000543273 2.87647e-05 0.000505869 2.45766e-05 0.000730606)
(0.00212815 0.000531524 1.55511e-05 0.00050279 9.30014e-06 0.000707711)
(0.00213018 0.000533009 5.90998e-06 0.000506145 5.34394e-06 0.000690055)
(0.00213624 0.000538699 9.65138e-06 0.000510305 1.78842e-05 0.000681297)
(0.00214201 0.000533209 6.1264e-06 0.000502091 3.17222e-05 0.000674647)
(0.00211519 0.000516286 -6.3919e-06 0.000484232 3.27871e-05 0.000667325)
(0.00325466 0.000766256 0.000138086 0.000578081 -2.51283e-06 0.000792659)
(0.00332433 0.00078717 0.000197923 0.000592836 6.42211e-06 0.00079584)
(0.003302 0.000765953 0.000227432 0.000590903 2.36011e-05 0.000800346)
(0.00326673 0.000741349 0.000231435 0.000580235 2.60736e-05 0.000821667)
(0.0032202 0.000722232 0.000243549 0.000573918 2.69774e-05 0.000839509)
(0.00321729 0.000724542 0.000249703 0.000573648 3.35092e-05 0.000838644)
(0.00326867 0.000745814 0.000228355 0.000577825 2.92499e-05 0.00083811)
(0.00327345 0.000750724 0.000204801 0.000582022 1.98074e-05 0.000840777)
(0.00324686 0.000739841 0.000204306 0.000582857 1.667e-05 0.000839709)
(0.00325644 0.000738739 0.000199167 0.000579406 1.55605e-05 0.000833626)
(0.00326292 0.000749356 0.000172435 0.000581096 1.55841e-05 0.00080509)
(0.00322544 0.000753843 0.000145694 0.000587688 2.08593e-05 0.000774901)
(0.00319555 0.000760035 0.000140071 0.000590661 2.61292e-05 0.000782328)
(0.00314966 0.000764744 0.000149427 0.000589205 2.82482e-05 0.000800422)
(0.00306808 0.000746954 0.000157783 0.000588503 2.24436e-05 0.000818396)
(0.00301059 0.000721671 0.000139026 0.000593829 4.06924e-06 0.000833738)
(0.00298588 0.000705703 0.000108579 0.000596143 -4.88906e-06 0.000839915)
(0.00296099 0.000695158 0.000107552 0.000587292 5.42601e-06 0.000845573)
(0.00293816 0.000673703 9.94081e-05 0.000564466 1.1171e-05 0.000838164)
(0.00288716 0.000651001 7.60194e-05 0.000544247 9.35902e-06 0.000817492)
(0.00288728 0.000671754 7.19656e-05 0.000564399 9.32078e-06 0.000805268)
(0.0028554 0.000692759 8.46744e-05 0.000606216 1.79671e-05 0.000793906)
(0.00282166 0.000692213 9.70122e-05 0.000622287 3.25502e-05 0.000779262)
(0.00286259 0.000702032 0.000102785 0.000615531 3.76069e-05 0.000785873)
(0.00285272 0.00070132 9.36775e-05 0.000609842 3.52038e-05 0.000787498)
(0.00280518 0.00070101 8.29266e-05 0.000613575 3.71844e-05 0.000763404)
(0.00281935 0.000718964 8.05076e-05 0.000616804 3.89537e-05 0.00076265)
(0.00285448 0.00073276 9.48178e-05 0.000612378 4.07942e-05 0.000795606)
(0.00284841 0.000725992 0.000115066 0.000608607 4.98117e-05 0.00081512)
(0.00285158 0.000721752 0.000105051 0.000608826 5.08657e-05 0.000817538)
(0.00287825 0.000720882 8.44825e-05 0.000599597 3.98876e-05 0.000813697)
(0.00289066 0.000710383 9.11498e-05 0.000588061 3.3688e-05 0.000817703)
(0.00293691 0.000715042 0.000108691 0.000589386 2.95686e-05 0.000849134)
(0.00299772 0.000726574 0.000110467 0.000592162 1.94548e-05 0.000869409)
(0.00301278 0.000714255 0.000113502 0.000581947 1.34285e-05 0.000856034)
(0.00302636 0.000696617 0.000126314 0.000569364 8.77301e-06 0.000828018)
(0.00307854 0.000703798 0.000135896 0.000570771 5.04678e-06 0.00079819)
(0.00313257 0.000735911 0.000140592 0.000585503 8.86915e-06 0.000780708)
(0.00316935 0.000750627 0.000124428 0.000587677 1.00709e-05 0.000779058)