/*--------------------------------*- C++ -*----------------------------------*\
  =========                 |
  \\      /  F ield         | OpenFOAM: The Open Source CFD Toolbox
   \\    /   O peration     | Website:  https://openfoam.org
    \\  /    A nd           | Version:  10
     \\/     M anipulation  |
\*---------------------------------------------------------------------------*/
FoamFile
{
    format      ascii;
    class       volVectorField;
    location    "17";
    object      U;
}
// * * * * * * * * * * * * * * * * * * * * * * * * * * * * * * * * * * * * * //

dimensions      [0 1 -1 0 0 0 0];

internalField   nonuniform List<vector> 
25600
(
(1.04878 0.000639721 -0.000527345)
(1.04931 0.000165518 0.000197368)
(1.04879 0.000778665 3.26087e-05)
(1.04777 0.000437583 -0.000236964)
(1.04922 0.000169386 -0.000307043)
(1.04818 -0.000129626 0.000348712)
(1.04744 -0.000440364 -0.000155013)
(1.04915 0.00102622 -0.000433982)
(1.04739 -0.00194196 0.0003881)
(1.04921 0.00069283 -6.65682e-05)
(1.04912 0.000411132 -9.44863e-05)
(1.04728 -0.00184191 0.000150516)
(1.04973 0.00131998 7.47555e-05)
(1.0481 -0.00103473 0.000368499)
(1.04861 -0.000332597 0.00015287)
(1.04935 -0.000483757 0.000264368)
(1.04802 -0.000382733 0.000539922)
(1.04838 -0.000267497 5.11756e-05)
(1.04902 -0.0008369 0.000425495)
(1.04861 0.00028335 2.73212e-05)
(1.04683 -0.000449961 0.000192315)
(1.04862 0.000118693 0.000231408)
(1.0479 -0.000465843 -0.000595986)
(1.04684 -0.000432348 0.000490742)
(1.04794 0.0012666 -0.000434832)
(1.04674 -0.000449367 -0.000175313)
(1.04774 -0.000812682 0.00029045)
(1.0467 0.00164193 -0.000476577)
(1.04742 -0.00114839 0.000335338)
(1.04803 0.000172065 -0.000253679)
(1.04615 -0.000118258 0.000321804)
(1.04932 -0.00100604 -4.48556e-05)
(1.04783 0.00162001 -0.000362545)
(1.04781 -0.00154749 0.000967183)
(1.04987 0.000577983 -0.000484835)
(1.0477 0.00116063 5.93087e-05)
(1.04937 -0.000646383 0.000652055)
(1.04929 0.000881185 -0.000742795)
(1.04885 0.000561809 0.000410072)
(1.04966 0.000450986 0.000120523)
(1.04855 0.000800095 -0.000231268)
(1.04949 5.65279e-05 3.57718e-05)
(1.04899 0.00152446 0.000150569)
(1.04727 0.000125952 -0.000261232)
(1.04909 0.000387441 -0.000422893)
(1.04781 6.06241e-05 0.000639875)
(1.04791 -0.00070991 -0.000625287)
(1.04841 0.00078898 6.08145e-05)
(1.04735 -0.00211082 0.000301124)
(1.05028 0.00119811 -0.000542232)
(1.04778 -0.000446675 0.000531587)
(1.04799 -0.0012794 -0.000458751)
(1.04991 0.00152241 0.000301664)
(1.04736 -0.00149629 0.000502319)
(1.04897 0.000142033 -0.000160242)
(1.04908 -0.000697408 0.000831865)
(1.04832 -0.000449176 8.94786e-05)
(1.04824 0.000107968 0.000296549)
(1.04913 -0.00068586 0.000620431)
(1.04889 0.000405209 -0.000321147)
(1.04683 2.50717e-05 0.00053537)
(1.04842 0.000183586 3.303e-05)
(1.0477 -0.000119711 -0.000689674)
(1.04769 -5.12667e-05 0.000567668)
(1.04774 0.00122818 -0.000652983)
(1.04585 -0.000378712 -3.54954e-05)
(1.0487 -0.000412198 0.000256064)
(1.04649 0.00138023 -0.000559816)
(1.04667 -0.000936246 0.000608155)
(1.04836 -0.000516331 -0.000421972)
(1.04582 -0.000449534 0.000316902)
(1.0499 -0.000576977 0.000107739)
(1.04757 -6.05793e-05 -0.000516351)
(1.04767 -0.000749634 0.00111848)
(1.05084 0.000555653 -0.000482921)
(1.04712 0.000139091 7.393e-05)
(1.04944 -0.000296705 0.000630967)
(1.04975 0.000654631 -0.000547225)
(1.04865 0.000375278 0.000443567)
(1.04988 0.000493101 -9.9182e-05)
(1.04841 0.000568073 9.63949e-05)
(1.04993 0.000677347 -3.94188e-05)
(1.04887 0.00168836 6.1414e-05)
(1.04678 -0.000144688 -0.000188312)
(1.04915 0.00107711 -0.000415793)
(1.04723 -0.000288641 0.000603791)
(1.04808 -0.000660065 -0.000779482)
(1.04792 -9.2597e-05 0.000484407)
(1.04772 -0.00150543 2.30864e-05)
(1.05068 0.00109079 -0.000710499)
(1.04693 -0.00126452 0.000881821)
(1.04896 -4.94112e-05 -0.000906767)
(1.04956 0.00096681 0.00054103)
(1.04688 -0.00129287 0.000507234)
(1.04929 -6.84071e-05 -0.000100799)
(1.04882 -0.000674528 0.00122244)
(1.04871 -0.000348951 -0.000217604)
(1.04816 -8.28159e-05 0.000753225)
(1.04927 -0.00030588 0.000619344)
(1.04922 0.000774512 -0.000494261)
(1.04663 0.000104853 0.000890372)
(1.04847 0.000231414 -0.000308083)
(1.04767 0.000816306 -0.000601841)
(1.04801 -0.00017169 0.000522604)
(1.04765 0.00113837 -0.000829038)
(1.04529 -4.14639e-05 5.16551e-05)
(1.04928 7.80442e-05 0.000215239)
(1.04623 0.0011085 -0.000481968)
(1.04578 -0.000818908 0.000575174)
(1.04845 -0.00131548 -0.000448552)
(1.04606 -0.000563848 0.000336362)
(1.04968 -0.000618406 -2.41413e-05)
(1.04766 -0.00175399 -0.000402475)
(1.0483 0.000498947 0.00121385)
(1.05069 2.46879e-06 -0.000709001)
(1.04694 -0.000704615 0.000354673)
(1.04979 0.000185878 0.00053839)
(1.04988 5.2369e-05 -0.000463303)
(1.0487 0.000272389 0.000596424)
(1.05006 0.000590384 -0.000367613)
(1.0486 0.000227773 0.000383883)
(1.05038 0.00180886 -9.90576e-05)
(1.04836 0.00119957 -6.37679e-05)
(1.04677 0.000202606 -0.000114503)
(1.04899 0.00179283 -0.000389352)
(1.04644 -0.00101356 0.000416755)
(1.04808 -0.000464683 -0.000671246)
(1.04773 -0.00107616 0.000720269)
(1.04827 -0.000731069 -0.00027315)
(1.0505 0.000381904 -0.000621659)
(1.04684 -0.00143315 0.000823163)
(1.04976 0.00113395 -0.00112044)
(1.04894 0.000257412 0.000657187)
(1.04654 -0.000904146 0.000559687)
(1.04947 -0.000653058 0.000198626)
(1.04885 -0.000500047 0.00129488)
(1.04881 -0.000334739 -9.71989e-05)
(1.04827 -0.000593122 0.00111803)
(1.04979 0.000376618 0.000466565)
(1.04923 0.00115865 -0.000283705)
(1.0464 -0.000115957 0.00105074)
(1.04896 0.000935051 -0.000651532)
(1.04738 0.00133686 -0.00034345)
(1.04796 -0.000335685 0.000314774)
(1.04783 0.0012855 -0.000986062)
(1.04499 0.000211743 0.000127591)
(1.04961 0.000906429 0.000177218)
(1.04578 0.00081619 -0.000350147)
(1.04475 -0.00101844 0.00036065)
(1.04855 -0.00192394 -0.000330316)
(1.04635 -0.000878303 0.000302595)
(1.04897 -0.00150885 -0.000385302)
(1.04842 -0.00264492 4.53033e-05)
(1.04904 0.00130409 0.0010948)
(1.0499 -0.000777967 -0.000940044)
(1.04724 -0.00108891 0.000975043)
(1.05003 0.000359206 0.000296219)
(1.04982 -0.000755156 -0.000366098)
(1.04906 0.000235218 0.000797714)
(1.05011 0.000683936 -0.000546764)
(1.04918 3.53064e-05 0.000629717)
(1.05063 0.00293044 -0.000218458)
(1.04771 0.000623894 -0.000138457)
(1.04718 0.0012036 -7.90349e-05)
(1.0483 0.00222502 -0.00041061)
(1.0456 -0.00184066 0.000195099)
(1.04803 -0.000366689 -0.00035046)
(1.04771 -0.00187525 0.000756721)
(1.04876 -0.000407622 -0.000446246)
(1.05018 -0.000345982 -0.000452183)
(1.04743 -0.00088428 0.000437199)
(1.0502 0.00194652 -0.00119138)
(1.04812 -0.000246967 0.000694258)
(1.04623 -0.000761852 0.000888653)
(1.04959 -0.00133226 0.000486321)
(1.04905 -0.000537739 0.00132643)
(1.04866 -0.000583611 0.000446171)
(1.04867 -0.000987083 0.00114865)
(1.05053 0.00109522 0.000378298)
(1.04889 0.00131065 0.000174659)
(1.04646 -3.70624e-06 0.000880201)
(1.04952 0.00196637 -0.000825169)
(1.04677 0.00119218 -6.40202e-05)
(1.04798 -4.34289e-05 -0.000100293)
(1.04804 0.00127178 -0.00111806)
(1.045 0.000525653 0.000230073)
(1.04973 0.0021288 0.000161458)
(1.04487 0.000359067 -0.000259777)
(1.04379 -0.00129288 0.000142239)
(1.04855 -0.00242668 -0.000221635)
(1.04635 -0.0018406 8.8968e-05)
(1.04839 -0.00270624 -0.000763123)
(1.04965 -0.00297983 0.000584988)
(1.04963 0.00149123 0.000617121)
(1.04897 -0.00127854 -0.000919216)
(1.04773 -0.00123734 0.00172907)
(1.05002 9.30607e-05 -0.000175728)
(1.04977 -0.00165929 -0.000127528)
(1.0497 0.000342889 0.000967964)
(1.05004 0.000625339 -0.00056589)
(1.05006 0.000110128 0.000866806)
(1.05075 0.00385364 -0.000381861)
(1.0472 0.000468722 -0.000110493)
(1.04779 0.00252366 -8.81937e-05)
(1.04702 0.00238368 -0.00058711)
(1.04474 -0.00265021 7.28025e-05)
(1.04804 -0.0003308 4.71156e-05)
(1.04768 -0.00261055 0.000654661)
(1.04924 -0.000615158 -0.000336612)
(1.05015 -0.000546601 -0.000360846)
(1.0483 -9.90238e-05 -0.000211765)
(1.05019 0.00236607 -0.00124552)
(1.04717 -0.000291126 0.000758335)
(1.04582 -0.00101365 0.0014024)
(1.04962 -0.0020789 0.000657802)
(1.04933 -0.000883448 0.0016279)
(1.04851 -0.00095036 0.00117602)
(1.04935 -0.00119074 0.000890572)
(1.05129 0.0014951 0.000634369)
(1.04851 0.0015233 0.000662997)
(1.04682 0.000618772 0.000521245)
(1.04977 0.00280178 -0.000639972)
(1.04607 0.000904255 9.06808e-05)
(1.04802 0.00042236 -0.000600807)
(1.0482 0.000888045 -0.00120168)
(1.04552 0.00129414 0.000334709)
(1.04954 0.00345127 0.000201055)
(1.04355 -4.65081e-05 -0.000194591)
(1.04291 -0.00145379 -8.28864e-07)
(1.0482 -0.00335358 -0.000223868)
(1.04616 -0.00338536 -0.000323699)
(1.04819 -0.00408745 -0.00106212)
(1.05113 -0.00322384 0.000971365)
(1.05013 0.00136454 -5.19417e-05)
(1.04811 -0.00121118 -0.000442574)
(1.04812 -0.00127866 0.0023566)
(1.04974 -0.000770501 -0.000744568)
(1.04995 -0.00250157 0.000306457)
(1.05052 0.000510052 0.00115315)
(1.04989 0.000513149 -0.000417657)
(1.05111 0.000334382 0.00104235)
(1.05082 0.00462026 -0.000597191)
(1.04688 0.00101948 4.17371e-05)
(1.0483 0.0039995 -0.000200714)
(1.04523 0.00226822 -0.000829502)
(1.04396 -0.00323275 0.000190197)
(1.04803 -0.000528263 0.000327673)
(1.04751 -0.00367457 0.000606828)
(1.04992 -0.000844682 1.73174e-05)
(1.05042 -0.000135037 -0.000595191)
(1.04911 0.000398629 -0.000996284)
(1.05005 0.00301033 -0.00136295)
(1.04606 0.000129672 0.00101248)
(1.04512 -0.00203586 0.00203619)
(1.04962 -0.00285354 0.000780061)
(1.04968 -0.00157232 0.00226986)
(1.04844 -0.00128423 0.00180209)
(1.0501 -0.00148731 0.000559091)
(1.05211 0.00160793 0.00112274)
(1.04833 0.00210491 0.000913236)
(1.04722 0.0014189 0.000245166)
(1.0497 0.00340859 -0.000119403)
(1.04534 0.00077365 -5.34461e-05)
(1.04798 0.000430647 -0.00112739)
(1.04853 0.0003348 -0.00126769)
(1.04649 0.00255905 0.000490537)
(1.04897 0.00462645 0.000309375)
(1.04194 -1.55989e-05 -0.00018557)
(1.04182 -0.00176966 -5.40178e-05)
(1.0474 -0.0050326 -0.000423446)
(1.04588 -0.00544591 -0.000926953)
(1.04846 -0.00570453 -0.00137961)
(1.05285 -0.00354137 0.0010832)
(1.05079 0.00127112 -0.00070636)
(1.04738 -0.000393087 0.000348466)
(1.04799 -0.00167261 0.00284358)
(1.04928 -0.00211508 -0.00128281)
(1.05049 -0.0031191 0.000980314)
(1.05145 0.000438573 0.00134385)
(1.04976 0.000488912 -0.000116551)
(1.0522 0.000518117 0.00119278)
(1.05106 0.0053568 -0.000812696)
(1.04679 0.00228868 0.000231058)
(1.04843 0.0052891 -0.000378812)
(1.04308 0.00213313 -0.000979644)
(1.04318 -0.00326395 0.000433916)
(1.04777 -0.00136355 0.000511382)
(1.04745 -0.00517691 0.000896851)
(1.05104 -0.000617273 0.000573001)
(1.05072 0.000333202 -0.00114205)
(1.04992 0.000603245 -0.00192815)
(1.04998 0.0046123 -0.00156373)
(1.04436 0.000430613 0.00146247)
(1.04411 -0.00373978 0.00269932)
(1.04975 -0.00358447 0.00113898)
(1.05007 -0.00250759 0.00326675)
(1.04845 -0.00162585 0.00227654)
(1.05084 -0.00209158 0.000390845)
(1.05314 0.00170624 0.00173246)
(1.04833 0.00307425 0.000957025)
(1.04751 0.00232769 0.00036226)
(1.04939 0.00412048 0.000723617)
(1.04442 0.000595677 -0.000408104)
(1.04777 -0.000307651 -0.00160334)
(1.04927 -4.46688e-05 -0.0013433)
(1.0478 0.00412452 0.000726244)
(1.04817 0.00590747 0.000493878)
(1.04005 0.000682425 -0.000144012)
(1.04018 -0.00260596 -2.37961e-05)
(1.04617 -0.00760561 -0.000830572)
(1.04571 -0.00813358 -0.00175829)
(1.04917 -0.00751369 -0.00185371)
(1.05483 -0.00424095 0.000883968)
(1.05177 0.00185115 -0.00130796)
(1.0465 0.00130546 0.00132547)
(1.04717 -0.0026915 0.0032198)
(1.04891 -0.00357111 -0.00165281)
(1.05124 -0.00360523 0.00184293)
(1.05238 0.000178793 0.00170106)
(1.04975 0.000752071 0.000357063)
(1.05317 0.000426763 0.00125566)
(1.05156 0.00644078 -0.00107373)
(1.04672 0.00422187 0.00047964)
(1.04811 0.00617889 -0.000424006)
(1.04093 0.00249905 -0.000962022)
(1.04216 -0.00303488 0.000820545)
(1.04704 -0.00313585 0.000726615)
(1.04775 -0.0063553 0.0015563)
(1.05246 0.000198806 0.00110046)
(1.05086 0.000104698 -0.00187175)
(1.05107 0.00129249 -0.0028274)
(1.0499 0.00741719 -0.00177825)
(1.04182 -6.49165e-05 0.00211382)
(1.04294 -0.005815 0.00355942)
(1.04999 -0.00431279 0.00184908)
(1.05042 -0.00373912 0.00444567)
(1.04843 -0.00225757 0.00281872)
(1.05156 -0.0030001 0.000411496)
(1.05446 0.00190347 0.002189)
(1.04848 0.00420012 0.000866034)
(1.04765 0.00335469 0.00111725)
(1.04875 0.0051935 0.00168409)
(1.04308 0.000127158 -0.00104039)
(1.04758 -0.00174316 -0.00196064)
(1.05053 -0.000417589 -0.00145341)
(1.04936 0.00569729 0.00106481)
(1.04727 0.00774414 0.000764696)
(1.03768 0.00194903 -7.75788e-05)
(1.03769 -0.00421922 0.00011014)
(1.04453 -0.0112757 -0.00148329)
(1.04574 -0.0112878 -0.00304853)
(1.05028 -0.00961405 -0.00259984)
(1.0573 -0.0054734 0.000373003)
(1.05339 0.00344307 -0.00199779)
(1.0451 0.00355143 0.00230325)
(1.0455 -0.00424789 0.00362559)
(1.04869 -0.00497837 -0.00187202)
(1.05214 -0.00428108 0.00283728)
(1.05338 -5.001e-05 0.00228886)
(1.04975 0.00135277 0.000880973)
(1.05401 0.000246147 0.00110592)
(1.05247 0.00809409 -0.00160507)
(1.04643 0.0061863 0.000703172)
(1.04737 0.00677431 -0.000205608)
(1.03875 0.00377876 -0.000812592)
(1.04048 -0.00297411 0.00125409)
(1.04615 -0.00581868 0.00113263)
(1.04867 -0.00691351 0.00263534)
(1.05364 0.00127121 0.00171254)
(1.0509 -0.000965998 -0.00271423)
(1.05294 0.00301813 -0.00378931)
(1.04935 0.0111478 -0.00208343)
(1.03823 -0.00126998 0.00297256)
(1.04182 -0.00785505 0.00478019)
(1.05024 -0.00527652 0.00314852)
(1.05056 -0.00548376 0.00593304)
(1.04834 -0.00327649 0.00355727)
(1.05229 -0.00447934 0.000766622)
(1.05597 0.00216282 0.00245207)
(1.04869 0.00546574 0.000883781)
(1.04771 0.0048556 0.00272267)
(1.0477 0.00647217 0.00281916)
(1.04115 -0.000833191 -0.00175971)
(1.04733 -0.00373936 -0.00225122)
(1.05224 -0.00114225 -0.00168377)
(1.05128 0.00738127 0.00157943)
(1.04645 0.0106207 0.00114233)
(1.03459 0.00352849 8.34803e-05)
(1.0341 -0.00703847 0.000593409)
(1.04255 -0.0161244 -0.00236735)
(1.046 -0.0147502 -0.00492257)
(1.05156 -0.0121159 -0.00360672)
(1.06037 -0.00685422 -0.000368954)
(1.05559 0.00633267 -0.00292547)
(1.04289 0.00636457 0.00318026)
(1.04301 -0.00630064 0.00415499)
(1.04849 -0.00649837 -0.0019489)
(1.05295 -0.00496716 0.0039705)
(1.0544 3.94434e-05 0.00306182)
(1.04955 0.0021434 0.00138247)
(1.05452 0.000252575 0.000355151)
(1.05341 0.0103466 -0.00252285)
(1.04568 0.00780078 0.00110758)
(1.04649 0.00732302 0.000447419)
(1.03641 0.00592958 -0.000416574)
(1.03779 -0.00333328 0.00194049)
(1.04517 -0.00856511 0.001834)
(1.05012 -0.00636715 0.0038565)
(1.05434 0.00199477 0.00224553)
(1.05094 -0.00257317 -0.00331099)
(1.05555 0.00615463 -0.00441374)
(1.04826 0.0154637 -0.00239867)
(1.0338 -0.00311006 0.00415252)
(1.04063 -0.0095537 0.00663749)
(1.05011 -0.00679444 0.00490867)
(1.05029 -0.00788325 0.00772663)
(1.04782 -0.00486117 0.0047656)
(1.05273 -0.00663454 0.00133487)
(1.05759 0.00226911 0.00222979)
(1.04898 0.00668899 0.00130482)
(1.04755 0.00676529 0.0054086)
(1.04596 0.0078059 0.00394528)
(1.03854 -0.00211382 -0.00244679)
(1.04689 -0.00666112 -0.00237247)
(1.05422 -0.00280604 -0.00215647)
(1.0537 0.00936555 0.0021432)
(1.04575 0.0153188 0.00140544)
(1.03036 0.00515857 0.000276347)
(1.02876 -0.011691 0.00208636)
(1.03949 -0.0222955 -0.00290433)
(1.0458 -0.0187796 -0.00747306)
(1.0528 -0.0149924 -0.00458219)
(1.06422 -0.00816757 -0.00115226)
(1.05845 0.0102068 -0.00427222)
(1.03952 0.00989319 0.00384899)
(1.03919 -0.00855037 0.00479672)
(1.04806 -0.0083126 -0.00191646)
(1.05348 -0.00560043 0.0051087)
(1.05505 0.000674317 0.00388505)
(1.04881 0.00301472 0.00149579)
(1.05442 0.000559299 -0.00150382)
(1.05413 0.0129054 -0.00419669)
(1.04414 0.00854674 0.00167071)
(1.04532 0.00820518 0.00145464)
(1.03354 0.00866016 9.96672e-05)
(1.03413 -0.00465557 0.00310916)
(1.04458 -0.0113723 0.00296217)
(1.05148 -0.00481458 0.0052816)
(1.05406 0.00229 0.00297921)
(1.05105 -0.00440126 -0.00349613)
(1.05865 0.0108689 -0.00472839)
(1.04652 0.0206467 -0.00280475)
(1.02871 -0.00478682 0.00588594)
(1.0392 -0.0108002 0.00933579)
(1.04893 -0.00932886 0.00743701)
(1.04876 -0.0108845 0.0100835)
(1.04584 -0.00717089 0.00637776)
(1.05146 -0.0098795 0.00194105)
(1.05823 0.00233525 0.00133591)
(1.04895 0.00843974 0.00234737)
(1.04714 0.00884197 0.00934826)
(1.04364 0.0092214 0.00506147)
(1.0348 -0.00318992 -0.00271437)
(1.04536 -0.0107168 -0.0020111)
(1.056 -0.00623857 -0.00294016)
(1.05708 0.0119042 0.00247401)
(1.04631 0.0220765 0.00116559)
(1.02478 0.0064841 0.00095112)
(1.01845 -0.0176663 0.0059663)
(1.03047 -0.0294361 -0.00221807)
(1.04126 -0.023767 -0.0102109)
(1.05184 -0.0181927 -0.0046747)
(1.06811 -0.00984192 -0.00103669)
(1.0624 0.0149915 -0.00589012)
(1.0353 0.0144062 0.00419601)
(1.03321 -0.0115572 0.00557893)
(1.04656 -0.0105179 -0.00165423)
(1.05337 -0.00581915 0.00629781)
(1.055 0.0013401 0.00471638)
(1.04706 0.00354107 0.00103449)
(1.0534 0.00130772 -0.00472185)
(1.05426 0.0151238 -0.00617608)
(1.04163 0.00783842 0.00276561)
(1.04372 0.00904137 0.00277718)
(1.02928 0.0119011 0.00135771)
(1.02882 -0.00596995 0.00508714)
(1.04417 -0.0125074 0.00385805)
(1.05179 -0.00239005 0.00544458)
(1.05258 0.00192857 0.00310531)
(1.05056 -0.00651876 -0.00261832)
(1.06157 0.0171343 -0.00409421)
(1.04546 0.0267504 -0.00309436)
(1.02329 -0.00613977 0.00852173)
(1.03671 -0.0114968 0.0126826)
(1.0459 -0.0123798 0.0102978)
(1.04444 -0.0140656 0.0129737)
(1.03911 -0.00986294 0.00746031)
(1.04427 -0.0141727 0.00111671)
(1.05601 0.0017972 -0.000643417)
(1.04769 0.0104222 0.00407281)
(1.04532 0.0111182 0.0137026)
(1.041 0.0113307 0.00593156)
(1.03013 -0.00364572 -0.000358529)
(1.04065 -0.0168672 6.72673e-05)
(1.05434 -0.0125557 -0.00469553)
(1.06141 0.0147872 0.0020899)
(1.05306 0.0321204 0.00125728)
(1.02018 0.00887613 0.00326903)
(0.995723 -0.0243137 0.0110274)
(1.00151 -0.0382879 -0.0037561)
(1.01959 -0.0313552 -0.0153735)
(1.03967 -0.0228841 -0.00308812)
(1.06749 -0.0139352 0.00116462)
(1.06762 0.0194579 -0.00735225)
(1.03096 0.0201781 0.00402551)
(1.02317 -0.0156339 0.00573076)
(1.04239 -0.0139533 -0.00128266)
(1.05187 -0.00556656 0.00836118)
(1.05376 0.00214227 0.00654718)
(1.04429 0.00363353 6.82128e-06)
(1.05 0.00257005 -0.00990191)
(1.05281 0.0172026 -0.00815073)
(1.03779 0.00577998 0.00469527)
(1.04104 0.0093348 0.00408487)
(1.02205 0.0137088 0.00447865)
(1.01909 -0.00861449 0.00825915)
(1.04158 -0.0115642 0.0024556)
(1.04779 0.00237811 0.00209985)
(1.04804 0.00149551 0.00237647)
(1.04674 -0.00840648 -0.00139704)
(1.06228 0.0248729 -0.00425324)
(1.04771 0.0343436 -0.0033276)
(1.01811 -0.00661246 0.0108543)
(1.03247 -0.0123048 0.0153961)
(1.04223 -0.0158507 0.014886)
(1.03651 -0.0167038 0.0159599)
(1.02347 -0.0123398 0.00433343)
(1.02522 -0.0190436 -0.00349009)
(1.04859 0.00065995 -0.00244916)
(1.04372 0.0121561 0.00623873)
(1.0393 0.0120194 0.0142759)
(1.03853 0.0141132 0.00672123)
(1.02652 -0.00168691 0.0101468)
(1.02538 -0.0254912 0.00319605)
(1.03663 -0.024084 -0.0118211)
(1.06404 0.0155438 0.00133842)
(1.07239 0.0445609 0.00581801)
(1.01977 0.0160019 0.00963966)
(0.960973 -0.026026 0.0122042)
(0.947988 -0.0474181 -0.0182035)
(0.970575 -0.041936 -0.0297769)
(1.00414 -0.0296362 -0.000878124)
(1.05008 -0.0225337 0.00430373)
(1.06831 0.021714 -0.00956932)
(1.02736 0.0260419 0.00324475)
(1.00787 -0.0216778 0.00294449)
(1.03232 -0.0185468 -0.00391558)
(1.04673 -0.00473482 0.0114374)
(1.04916 0.00307936 0.0107127)
(1.04 0.00348444 -0.00123934)
(1.04165 0.00712116 -0.0178343)
(1.04846 0.0191597 -0.00769867)
(1.03264 0.00178226 0.00903801)
(1.03581 0.00978342 0.00649087)
(1.01104 0.0164764 0.0104173)
(1.00026 -0.0103882 0.0102656)
(1.03251 -0.00855085 -0.00508811)
(1.03533 0.00820485 -0.00870136)
(1.03375 0.000898689 -0.000597128)
(1.03107 -0.0101323 -0.000244173)
(1.05689 0.0333617 -0.0040859)
(1.05603 0.0431302 -0.00172144)
(1.01122 -0.00455014 0.0103589)
(1.02684 -0.0118861 0.0161355)
(1.04344 -0.0188004 0.0196762)
(1.02513 -0.0185582 0.0140196)
(1.00044 -0.0135743 -0.00699367)
(0.997147 -0.0243121 -0.010542)
(1.03137 -0.00331668 0.00014726)
(1.02663 0.0119551 0.00751272)
(1.0233 0.0130349 0.00704072)
(1.04235 0.0181744 0.0136879)
(1.02755 0.000701153 0.0272274)
(0.980791 -0.0335862 -0.00775552)
(0.984301 -0.0404217 -0.0286196)
(1.05866 0.00971872 0.00384154)
(1.09258 0.05748 0.0135886)
(1.02426 0.0291936 0.0193661)
(0.945033 -0.0224617 0.0129899)
(0.909061 -0.0524234 -0.0391367)
(0.921415 -0.0498012 -0.0455262)
(0.959871 -0.0368921 0.00443042)
(1.01414 -0.0348166 0.00395643)
(1.05432 0.0226339 -0.0164412)
(1.02185 0.0315579 0.00395929)
(0.991119 -0.0279195 -0.000141587)
(1.01931 -0.0204957 -0.00995845)
(1.03852 0.000390739 0.0156063)
(1.04135 0.00458072 0.0168883)
(1.03518 0.00387829 -0.00466879)
(1.02088 0.01806 -0.028343)
(1.04577 0.0229958 -0.00442926)
(1.02944 -0.00597381 0.0139029)
(1.03258 0.00701476 0.0106955)
(1.00835 0.0182356 0.0177292)
(0.979045 -0.0128431 0.00999187)
(1.01625 -0.00693891 -0.0164458)
(1.01229 0.0123921 -0.0243916)
(1.0088 -0.00293011 -0.00787305)
(1.00066 -0.0145494 -0.00120117)
(1.04195 0.0380521 -0.000470774)
(1.06585 0.0491487 0.00125507)
(1.00185 -0.00215864 0.00881185)
(1.02905 -0.0137005 0.0182041)
(1.04594 -0.0245276 0.0161533)
(1.00079 -0.0225542 -0.00155818)
(0.976885 -0.0149632 -0.0249236)
(0.964154 -0.0286808 -0.0129806)
(0.991054 -0.00871437 0.00882074)
(0.984928 0.00882063 0.00423579)
(0.999343 0.0113972 0.00444092)
(1.05417 0.0210068 0.039154)
(1.01865 0.00986375 0.0271884)
(0.907418 -0.0382188 -0.0445107)
(0.917527 -0.0642978 -0.0367502)
(1.03745 -0.00175198 0.0140303)
(1.08303 0.0707609 0.0134684)
(1.0409 0.0406746 0.0355858)
(0.98031 -0.0177142 0.0319389)
(0.919204 -0.0483695 -0.040554)
(0.90901 -0.0522615 -0.0374438)
(0.940165 -0.0464188 0.0248073)
(0.977876 -0.0455415 -0.000183337)
(1.02282 0.0267413 -0.0300744)
(1.00932 0.0373265 0.0105131)
(0.972273 -0.0338774 0.00336458)
(1.00183 -0.0178422 -0.0144083)
(1.03078 0.0102031 0.0246497)
(1.04408 0.00762601 0.0258557)
(1.03047 0.00724984 -0.01344)
(0.995975 0.0334909 -0.0364282)
(1.04983 0.0165527 -0.00510846)
(1.01225 -0.0206033 0.0133962)
(1.02585 0.00826937 0.0155167)
(1.01859 0.0288882 0.0230693)
(0.975936 -0.00583564 0.0131978)
(1.00591 -0.00233067 -0.0251031)
(0.977401 0.0142657 -0.0454296)
(0.973937 -0.0100229 -0.0176323)
(0.955917 -0.0188905 0.00219343)
(1.01656 0.0407058 0.00711224)
(1.07206 0.0537775 0.00425343)
(1.00344 0.00402906 0.0128064)
(1.04271 -0.016252 0.016685)
(1.02395 -0.0331397 -0.00102034)
(0.952026 -0.0272449 -0.021478)
(0.945231 -0.0149302 -0.0363706)
(0.915781 -0.0298881 -0.00649378)
(0.929606 -0.0147976 0.017486)
(0.932405 0.00206432 -0.00619936)
(0.982391 0.00616768 0.0174269)
(1.05505 0.0255685 0.0675953)
(0.989161 0.0241641 -0.00719922)
(0.866022 -0.0420215 -0.0734981)
(0.886585 -0.0910287 -0.00828553)
(0.998747 -0.0115935 0.0325893)
(1.04734 0.0835634 0.0110773)
(1.0653 0.0417955 0.0584331)
(1.01895 -0.00946939 0.0483182)
(0.940842 -0.0352535 -0.038635)
(0.937678 -0.0543989 -0.0109687)
(0.957694 -0.0531032 0.0575089)
(0.94916 -0.0435551 -0.00200235)
(0.988267 0.0348057 -0.0388472)
(1.00392 0.0373147 0.0359861)
(0.947598 -0.0425111 0.0196995)
(0.970363 -0.016358 -0.0149914)
(1.02843 0.0124608 0.036934)
(1.05845 0.00767277 0.032177)
(1.00954 0.0195573 -0.0261367)
(0.999475 0.0386995 -0.0440057)
(1.03663 0.00421701 -0.00822528)
(0.947632 -0.0398414 0.011571)
(0.991958 -0.00814626 0.0212853)
(1.0188 0.0263982 0.0258362)
(0.997441 -0.00213229 0.0157672)
(1.00585 0.00284199 -0.0385211)
(0.940536 0.0190749 -0.0669803)
(0.948045 -0.0104638 -0.0132101)
(0.917182 -0.0222328 0.00874003)
(0.990449 0.03053 0.00798538)
(1.06143 0.0512722 0.00832673)
(1.00879 0.0110337 0.00769225)
(1.0438 -0.0177495 0.00928862)
(0.969482 -0.0369747 -0.0115283)
(0.895461 -0.0238943 -0.0349443)
(0.903153 -0.0072066 -0.036197)
(0.870394 -0.0298362 0.000219127)
(0.886894 -0.0237817 0.00880885)
(0.895498 -0.00489979 -0.0265106)
(0.963753 0.000635255 0.0408035)
(1.02743 0.0217308 0.0817148)
(0.975481 0.0297631 -0.0443145)
(0.892803 -0.0464207 -0.0666382)
(0.88705 -0.105253 0.0336214)
(0.951846 -0.00590077 0.0489255)
(1.02115 0.0908437 0.0204019)
(1.06867 0.0340401 0.0689737)
(1.00944 0.000841654 0.0270252)
(0.944463 -0.0262192 -0.0671671)
(0.977593 -0.0562198 0.00918247)
(0.977459 -0.0532215 0.0920227)
(0.920964 -0.0336273 -0.00345143)
(0.980201 0.0378749 -0.0258663)
(1.03137 0.0268392 0.0844165)
(0.921891 -0.0485242 0.0247111)
(0.92082 -0.0194351 -0.0228806)
(1.01744 0.00925091 0.0555851)
(1.04675 0.0149531 0.0412276)
(0.976204 0.0387729 -0.0348391)
(1.0308 0.0367728 -0.0590248)
(1.01424 0.00069722 -0.0192781)
(0.870085 -0.0506767 0.00831256)
(0.926225 -0.0196545 -0.000376021)
(1.00136 0.0309534 -0.00551075)
(1.02709 0.00378395 0.00121688)
(1.0091 0.0114489 -0.0640723)
(0.926925 0.0313697 -0.0845957)
(0.942625 -0.000812753 -0.00321239)
(0.893038 -0.0178458 -0.00615483)
(0.966521 0.021553 -0.012481)
(1.02801 0.0491512 -1.42851e-05)
(1.00151 0.0158294 -0.00293677)
(1.0276 -0.0202232 0.00903651)
(0.919829 -0.0269776 -0.0277432)
(0.868621 -0.00391497 -0.0463159)
(0.886922 0.00279304 -0.025807)
(0.880351 -0.025741 0.00209985)
(0.882242 -0.0235438 -0.01296)
(0.86559 -0.00509151 -0.0451049)
(0.938894 -0.00424796 0.0586951)
(0.999468 0.0191194 0.0681116)
(0.988415 0.0377617 -0.0628189)
(0.929753 -0.0512547 -0.0492039)
(0.884332 -0.112053 0.0507987)
(0.915978 0.00423332 0.0641899)
(1.01571 0.0897004 0.0471803)
(1.04173 0.0329092 0.069566)
(0.979796 0.0155308 -0.00878403)
(0.935659 -0.0176288 -0.090521)
(0.979692 -0.0648095 0.0320513)
(0.985373 -0.0525787 0.102035)
(0.886429 -0.0156324 -0.0343626)
(0.972877 0.0245755 0.0104387)
(1.06598 -0.00251988 0.142187)
(0.862351 -0.0453617 -0.000542884)
(0.85149 -0.00740836 -0.0457229)
(1.01954 0.0119809 0.0696417)
(1.01762 0.0229878 0.0433745)
(0.948107 0.0466064 -0.0478924)
(1.03662 0.0314163 -0.0695804)
(1.00917 -0.00443914 -0.0410168)
(0.850192 -0.0556428 0.0103259)
(0.868167 -0.0178332 -0.035768)
(0.967398 0.0319665 -0.047315)
(1.02183 0.00268396 -0.0261187)
(0.972333 0.0219999 -0.0996517)
(0.90564 0.0364054 -0.0792446)
(0.926895 0.00744965 0.00665264)
(0.876066 -0.00453934 -0.0335708)
(0.941255 0.0181962 -0.0354379)
(0.976205 0.0475016 -0.0139127)
(0.990108 0.0165962 -0.00391716)
(0.98749 -0.0172566 0.00190818)
(0.861692 -0.0159333 -0.0473821)
(0.837713 0.00446613 -0.0409389)
(0.882068 0.000529239 -0.0217727)
(0.920467 -0.0183435 0.00248216)
(0.881489 -0.0100259 -0.0136026)
(0.854501 -0.00187208 -0.0341314)
(0.93265 -0.00645685 0.0741894)
(0.986082 0.0272858 0.0490277)
(0.991579 0.0464833 -0.0671627)
(0.919777 -0.0491916 -0.0480786)
(0.886848 -0.110411 0.0457378)
(0.91834 0.0101665 0.0845356)
(1.01274 0.0855602 0.077005)
(1.0149 0.0333186 0.0673541)
(0.972885 0.0303923 -0.03209)
(0.943906 -0.00557916 -0.0828715)
(0.962277 -0.0778431 0.0554304)
(0.973911 -0.0539328 0.0760481)
(0.862464 0.000108006 -0.0659935)
(0.97813 3.93751e-05 0.0546626)
(1.05215 -0.0166367 0.151872)
(0.776488 -0.0239119 -0.0450341)
(0.811695 0.00109336 -0.058442)
(1.03303 0.00773234 0.0615328)
(0.983594 0.0292366 0.0220535)
(0.935118 0.0482405 -0.04998)
(1.01322 0.0393353 -0.0567928)
(1.03273 -0.0166718 -0.0284196)
(0.884945 -0.0708398 0.0244076)
(0.814744 -0.0249637 -0.0453977)
(0.888691 0.0103137 -0.0537813)
(0.944843 -0.00279375 -0.0245006)
(0.898793 0.034384 -0.101262)
(0.90954 0.0260339 -0.0633849)
(0.910763 0.0130607 0.00400528)
(0.848466 0.00487192 -0.0503782)
(0.919878 0.0142743 -0.0453091)
(0.946528 0.0491065 -0.0196737)
(0.991688 0.0177445 0.00260293)
(0.939451 -0.00495717 -0.00881916)
(0.802916 -0.00286958 -0.0534011)
(0.802919 -0.00148894 -0.0285276)
(0.878363 -0.00783774 -0.0118835)
(0.94446 -0.0125791 0.0143277)
(0.886721 -0.00517912 -0.0145776)
(0.867386 -0.000783436 -0.0190301)
(0.933839 0.000310697 0.0908183)
(0.987201 0.036044 0.0349199)
(0.989597 0.0468923 -0.0613471)
(0.902496 -0.0443131 -0.0488779)
(0.861898 -0.0984365 0.0128346)
(0.895185 0.0169255 0.0967895)
(1.01531 0.082613 0.104123)
(1.02758 0.0332056 0.0557052)
(1.01211 0.0410427 -0.0526164)
(1.00164 -0.00159144 -0.07022)
(0.953827 -0.0713474 0.0626765)
(0.946521 -0.0385355 0.046046)
(0.854732 0.00705993 -0.0801257)
(0.942311 -0.0154553 0.0411613)
(0.972317 -0.0142277 0.107886)
(0.756727 -0.00841848 -0.0454077)
(0.817497 -0.00322698 -0.0575648)
(0.999978 -0.00075337 0.0278448)
(0.994877 0.0271506 0.0113592)
(0.97607 0.0539048 -0.0359557)
(1.00411 0.0460816 -0.0454722)
(0.966319 -0.0177864 0.0179302)
(0.840014 -0.0710089 0.0128578)
(0.777154 -0.0216011 -0.0667716)
(0.822961 0.00239893 -0.0478751)
(0.838218 0.00103596 -0.0176289)
(0.872845 0.0283607 -0.0976355)
(0.954291 0.0071672 -0.0487013)
(0.896176 0.00758926 -0.00370064)
(0.851399 -0.00608694 -0.0559515)
(0.917955 0.0106338 -0.02766)
(0.927408 0.0479793 0.00489848)
(0.997659 0.0225786 0.0270142)
(0.909648 0.0178218 -0.00591679)
(0.800487 0.0105631 -0.0477813)
(0.826426 -0.00504397 -0.0140166)
(0.880089 -0.00662223 0.00393982)
(0.954087 -0.0143953 0.0170468)
(0.909629 -0.0107278 -0.0280139)
(0.871663 0.000452499 -0.00474405)
(0.913275 0.00849665 0.10883)
(1.00513 0.0368676 0.0343227)
(1.03444 0.0429554 -0.0470677)
(0.905036 -0.036014 -0.0412826)
(0.78917 -0.0747578 -0.0311856)
(0.836952 0.0375684 0.0709469)
(1.01543 0.0778711 0.111288)
(1.02967 0.027563 0.040376)
(1.05031 0.0458004 -0.0591192)
(1.06295 -0.00193456 -0.055802)
(0.927567 -0.0520074 0.050923)
(0.926133 -0.0208441 0.0202389)
(0.867824 0.00315185 -0.0938363)
(0.867849 -0.0144899 0.0149138)
(0.868552 -0.0102108 0.0726987)
(0.769915 0.00621559 -0.0640542)
(0.849458 0.00180386 -0.0789786)
(0.929737 -0.0127172 0.0160803)
(0.985228 0.00362743 0.0340915)
(1.02654 0.0374553 -0.0330066)
(0.989843 0.0544992 -0.0460453)
(0.902095 -0.00809582 0.0304697)
(0.797946 -0.0655243 -0.0462629)
(0.773819 -0.0164117 -0.120139)
(0.804466 0.00631812 -0.0597011)
(0.767661 0.00213549 -0.0349911)
(0.862326 0.00855687 -0.0880881)
(0.948577 0.0010574 -0.0127784)
(0.851267 0.00454331 0.00317776)
(0.848191 -0.0164406 -0.0428532)
(0.909134 0.00909295 0.00079461)
(0.932996 0.0446659 0.0320773)
(1.00112 0.0321656 0.0380726)
(0.904444 0.0353867 -0.00205555)