/*--------------------------------*- C++ -*----------------------------------*\
  =========                 |
  \\      /  F ield         | OpenFOAM: The Open Source CFD Toolbox
   \\    /   O peration     | Website:  https://openfoam.org
    \\  /    A nd           | Version:  10
     \\/     M anipulation  |
\*---------------------------------------------------------------------------*/
FoamFile
{
    format      ascii;
    class       volScalarField;
    location    "5";
    object      pPrime2Mean;
}
// * * * * * * * * * * * * * * * * * * * * * * * * * * * * * * * * * * * * * //

dimensions      [0 4 -4 0 0 0 0];

internalField   nonuniform List<scalar> 
25600
(
8.46215e-08
8.93725e-08
9.7062e-08
8.63321e-08
7.51817e-08
7.84262e-08
7.66993e-08
6.21218e-08
5.18272e-08
4.75784e-08
4.53654e-08
4.2128e-08
3.4917e-08
3.28746e-08
3.85413e-08
3.63724e-08
3.40649e-08
3.79676e-08
3.46308e-08
3.83197e-08
4.89265e-08
4.58583e-08
4.932e-08
6.44358e-08
7.11711e-08
7.29314e-08
8.13961e-08
9.22111e-08
9.03638e-08
8.52389e-08
9.76981e-08
1.01399e-07
8.52849e-08
9.09151e-08
1.0545e-07
9.53351e-08
8.81545e-08
9.66631e-08
1.01627e-07
9.33228e-08
9.49519e-08
1.00096e-07
1.03904e-07
9.35182e-08
8.48447e-08
8.64752e-08
8.13954e-08
6.44547e-08
5.37093e-08
4.91592e-08
4.31381e-08
3.77011e-08
3.26015e-08
3.0693e-08
3.40198e-08
3.47438e-08
3.35897e-08
2.99073e-08
3.50681e-08
4.47006e-08
3.74468e-08
4.31341e-08
6.45727e-08
6.17312e-08
6.84488e-08
9.0662e-08
8.8743e-08
8.9877e-08
9.33517e-08
8.77981e-08
9.64231e-08
9.52513e-08
7.97579e-08
9.19334e-08
1.05406e-07
9.22875e-08
9.09161e-08
1.03364e-07
1.05356e-07
9.83198e-08
1.05817e-07
1.12501e-07
1.11767e-07
1.01986e-07
1.00025e-07
9.77935e-08
8.50764e-08
6.72315e-08
5.6904e-08
5.07091e-08
4.11558e-08
3.39147e-08
2.95776e-08
3.02594e-08
3.41619e-08
3.68879e-08
3.45425e-08
2.55795e-08
4.36373e-08
5.38942e-08
2.92605e-08
5.24157e-08
8.33987e-08
6.25326e-08
7.97558e-08
1.12782e-07
9.64772e-08
9.47934e-08
9.70873e-08
9.10045e-08
9.76176e-08
8.48473e-08
7.47068e-08
9.70332e-08
1.02075e-07
8.89431e-08
9.74429e-08
1.09325e-07
1.09957e-07
1.06302e-07
1.17146e-07
1.2487e-07
1.18808e-07
1.15688e-07
1.21557e-07
1.10319e-07
8.97849e-08
7.18173e-08
6.18864e-08
5.23853e-08
3.98028e-08
3.05693e-08
2.557e-08
3.33775e-08
3.99171e-08
4.17218e-08
3.47806e-08
2.64902e-08
5.85947e-08
5.88464e-08
2.52052e-08
6.98144e-08
9.26119e-08
6.44068e-08
1.02017e-07
1.28269e-07
1.02179e-07
1.05939e-07
1.00487e-07
9.65452e-08
9.96419e-08
7.1706e-08
7.38318e-08
1.031e-07
9.69617e-08
9.0902e-08
1.05323e-07
1.13312e-07
1.18881e-07
1.17777e-07
1.29423e-07
1.34966e-07
1.24824e-07
1.38976e-07
1.48776e-07
1.23808e-07
9.73909e-08
7.87274e-08
6.97951e-08
5.55517e-08
4.02219e-08
2.69502e-08
2.16762e-08
4.36403e-08
5.24597e-08
4.75711e-08
3.41514e-08
3.46282e-08
7.70116e-08
5.72373e-08
2.91334e-08
8.82012e-08
8.81064e-08
7.30582e-08
1.32816e-07
1.36574e-07
1.13257e-07
1.24543e-07
1.06444e-07
1.08215e-07
9.90045e-08
5.785e-08
7.80901e-08
1.06967e-07
9.50785e-08
9.89202e-08
1.10687e-07
1.19727e-07
1.35949e-07
1.31763e-07
1.44477e-07
1.40467e-07
1.35134e-07
1.76852e-07
1.81588e-07
1.41369e-07
1.09598e-07
8.87832e-08
8.31033e-08
6.29182e-08
4.45788e-08
2.29423e-08
2.2344e-08
6.51341e-08
7.3499e-08
5.65572e-08
3.41858e-08
5.1184e-08
9.84462e-08
5.44653e-08
4.33011e-08
1.02215e-07
7.82784e-08
9.59053e-08
1.70226e-07
1.47478e-07
1.36573e-07
1.50272e-07
1.21301e-07
1.27255e-07
9.24681e-08
4.6947e-08
8.58892e-08
1.10422e-07
1.02351e-07
1.10244e-07
1.14772e-07
1.36917e-07
1.63098e-07
1.49297e-07
1.62312e-07
1.43105e-07
1.61267e-07
2.35662e-07
2.24759e-07
1.68745e-07
1.27739e-07
1.05344e-07
1.0616e-07
8.0091e-08
5.6934e-08
2.14467e-08
3.5288e-08
1.03257e-07
1.07963e-07
7.39596e-08
3.91208e-08
7.8552e-08
1.26932e-07
6.01875e-08
6.7804e-08
1.10352e-07
7.62004e-08
1.38981e-07
2.14428e-07
1.71283e-07
1.76714e-07
1.85443e-07
1.49943e-07
1.51569e-07
8.22133e-08
4.29684e-08
9.7918e-08
1.22932e-07
1.23516e-07
1.26189e-07
1.27473e-07
1.72956e-07
2.02717e-07
1.7559e-07
1.85174e-07
1.53948e-07
2.19228e-07
3.23143e-07
2.88091e-07
2.13701e-07
1.56701e-07
1.35649e-07
1.47813e-07
1.16432e-07
8.41305e-08
3.05973e-08
7.21278e-08
1.68333e-07
1.66713e-07
1.0884e-07
5.77545e-08
1.23704e-07
1.71314e-07
8.69836e-08
1.05135e-07
1.20215e-07
9.59017e-08
2.07849e-07
2.72584e-07
2.16515e-07
2.39614e-07
2.41531e-07
1.98231e-07
1.83101e-07
7.83258e-08
5.23932e-08
1.20601e-07
1.55821e-07
1.65208e-07
1.57794e-07
1.62925e-07
2.3574e-07
2.62784e-07
2.19236e-07
2.26159e-07
1.95178e-07
3.32848e-07
4.57228e-07
3.89401e-07
2.8829e-07
2.05914e-07
1.93642e-07
2.21368e-07
1.87401e-07
1.39703e-07
6.68895e-08
1.51964e-07
2.80456e-07
2.68455e-07
1.75099e-07
1.07414e-07
2.01086e-07
2.47525e-07
1.53279e-07
1.67522e-07
1.51624e-07
1.56444e-07
3.16135e-07
3.62221e-07
2.94139e-07
3.391e-07
3.36217e-07
2.76976e-07
2.3273e-07
9.59795e-08
8.59706e-08
1.68763e-07
2.23931e-07
2.42837e-07
2.26949e-07
2.38646e-07
3.40021e-07
3.57878e-07
2.93276e-07
3.14293e-07
3.04117e-07
5.34803e-07
6.69766e-07
5.59563e-07
4.16414e-07
2.99045e-07
3.04641e-07
3.52397e-07
3.19807e-07
2.48785e-07
1.58752e-07
3.07663e-07
4.74956e-07
4.48454e-07
3.01446e-07
2.19918e-07
3.40101e-07
3.87103e-07
2.90976e-07
2.8027e-07
2.36991e-07
2.85134e-07
4.88248e-07
5.10374e-07
4.26178e-07
5.00978e-07
4.95068e-07
4.05101e-07
3.22105e-07
1.56896e-07
1.62307e-07
2.65071e-07
3.49829e-07
3.87008e-07
3.64783e-07
3.81557e-07
5.15246e-07
5.15961e-07
4.17661e-07
5.01471e-07
5.41662e-07
8.72203e-07
1.00875e-06
8.44421e-07
6.35541e-07
4.76576e-07
5.06461e-07
5.76838e-07
5.60024e-07
4.52853e-07
3.53006e-07
5.93815e-07
8.08547e-07
7.64063e-07
5.42695e-07
4.46762e-07
5.91515e-07
6.44995e-07
5.51253e-07
4.92134e-07
4.22172e-07
5.25095e-07
7.62412e-07
7.47576e-07
6.48131e-07
7.6882e-07
7.57711e-07
6.1344e-07
4.85177e-07
2.93322e-07
3.11649e-07
4.41333e-07
5.71948e-07
6.46626e-07
6.1057e-07
6.37414e-07
8.07348e-07
7.7694e-07
6.31964e-07
8.66568e-07
9.92034e-07
1.42339e-06
1.55354e-06
1.3147e-06
1.01194e-06
8.03243e-07
8.55415e-07
9.55411e-07
9.72337e-07
8.13846e-07
7.32069e-07
1.09891e-06
1.37677e-06
1.30802e-06
9.8472e-07
8.69804e-07
1.03543e-06
1.1066e-06
1.01309e-06
8.79847e-07
7.81122e-07
9.3804e-07
1.20077e-06
1.12884e-06
1.0139e-06
1.21155e-06
1.18271e-06
9.55208e-07
7.75936e-07
5.55461e-07
5.81759e-07
7.43628e-07
9.52531e-07
1.08825e-06
1.01985e-06
1.07613e-06
1.28305e-06
1.20133e-06
1.0091e-06
1.52256e-06
1.7649e-06
2.2939e-06
2.40925e-06
2.07061e-06
1.63867e-06
1.37092e-06
1.43149e-06
1.57824e-06
1.6464e-06
1.42539e-06
1.4138e-06
1.94649e-06
2.31977e-06
2.21932e-06
1.76141e-06
1.62433e-06
1.80104e-06
1.90805e-06
1.79113e-06
1.54555e-06
1.41203e-06
1.6051e-06
1.89095e-06
1.72591e-06
1.60417e-06
1.92183e-06
1.85151e-06
1.50767e-06
1.27229e-06
1.01521e-06
1.04187e-06
1.24367e-06
1.57316e-06
1.79403e-06
1.68189e-06
1.80484e-06
2.03639e-06
1.8739e-06
1.65678e-06
2.63618e-06
3.02437e-06
3.64422e-06
3.7503e-06
3.25152e-06
2.6553e-06
2.30928e-06
2.35583e-06
2.59262e-06
2.72073e-06
2.43937e-06
2.57921e-06
3.3376e-06
3.87151e-06
3.70182e-06
3.0769e-06
2.90918e-06
3.08359e-06
3.25547e-06
3.05171e-06
2.64106e-06
2.45246e-06
2.65647e-06
2.96861e-06
2.65262e-06
2.53099e-06
3.02647e-06
2.88616e-06
2.37638e-06
2.0852e-06
1.77349e-06
1.79013e-06
2.0479e-06
2.55196e-06
2.88319e-06
2.71516e-06
2.97e-06
3.20904e-06
2.92842e-06
2.74618e-06
4.41557e-06
4.96013e-06
5.66891e-06
5.7937e-06
5.03859e-06
4.25659e-06
3.78437e-06
3.76615e-06
4.1544e-06
4.36058e-06
4.04915e-06
4.48851e-06
5.56102e-06
6.3278e-06
6.04919e-06
5.22347e-06
5.01679e-06
5.16847e-06
5.4039e-06
4.98988e-06
4.35539e-06
4.04883e-06
4.25482e-06
4.58426e-06
4.05309e-06
3.94762e-06
4.72462e-06
4.46671e-06
3.72015e-06
3.35694e-06
2.95504e-06
2.93107e-06
3.2556e-06
3.99178e-06
4.46771e-06
4.26967e-06
4.74677e-06
4.96978e-06
4.54428e-06
4.4766e-06
7.17574e-06
7.91e-06
8.69637e-06
8.85293e-06
7.67825e-06
6.6721e-06
6.02149e-06
5.9426e-06
6.54678e-06
6.83906e-06
6.56693e-06
7.4946e-06
9.05776e-06
1.01235e-05
9.68225e-06
8.6366e-06
8.31817e-06
8.48695e-06
8.67546e-06
7.86375e-06
6.90641e-06
6.43989e-06
6.61985e-06
6.89859e-06
6.11733e-06
6.03437e-06
7.25871e-06
6.81553e-06
5.71151e-06
5.24053e-06
4.73401e-06
4.65818e-06
5.04551e-06
6.09319e-06
6.72541e-06
6.55863e-06
7.39882e-06
7.55615e-06
6.968e-06
7.11445e-06
1.11741e-05
1.21564e-05
1.30658e-05
1.32845e-05
1.14985e-05
1.01963e-05
9.22615e-06
9.02549e-06
9.968e-06
1.04022e-05
1.03753e-05
1.20647e-05
1.43335e-05
1.5765e-05
1.51735e-05
1.3785e-05
1.32847e-05
1.34474e-05
1.3333e-05
1.1852e-05
1.04566e-05
9.7579e-06
9.92897e-06
1.00573e-05
8.96793e-06
8.96218e-06
1.09217e-05
1.02218e-05
8.56774e-06
7.91055e-06
7.17658e-06
7.00297e-06
7.46245e-06
8.97617e-06
9.80061e-06
9.78838e-06
1.11502e-05
1.12285e-05
1.05069e-05
1.09059e-05
1.69196e-05
1.81535e-05
1.92407e-05
1.94342e-05
1.67215e-05
1.4967e-05
1.34675e-05
1.3098e-05
1.44991e-05
1.51506e-05
1.57629e-05
1.85575e-05
2.17352e-05
2.36799e-05
2.30815e-05
2.15674e-05
2.07832e-05
2.07415e-05
1.98994e-05
1.72606e-05
1.52417e-05
1.41776e-05
1.42506e-05
1.41236e-05
1.27399e-05
1.28774e-05
1.59981e-05
1.50611e-05
1.26769e-05
1.16337e-05
1.06759e-05
1.0386e-05
1.09725e-05
1.30809e-05
1.41664e-05
1.43616e-05
1.63269e-05
1.62873e-05
1.55353e-05
1.62607e-05
2.42535e-05
2.55393e-05
2.71898e-05
2.7525e-05
2.3584e-05
2.11037e-05
1.86233e-05
1.81457e-05
2.00291e-05
2.11985e-05
2.30349e-05
2.73438e-05
3.16843e-05
3.43852e-05
3.42172e-05
3.33112e-05
3.23424e-05
3.15181e-05
2.91848e-05
2.4848e-05
2.20515e-05
2.03262e-05
2.0014e-05
1.94307e-05
1.76877e-05
1.8009e-05
2.27226e-05
2.14224e-05
1.81134e-05
1.65656e-05
1.54031e-05
1.50585e-05
1.57012e-05
1.86529e-05
2.0134e-05
2.05465e-05
2.30731e-05
2.27779e-05
2.1968e-05
2.30472e-05
3.29459e-05
3.42618e-05
3.65658e-05
3.65172e-05
3.15489e-05
2.84527e-05
2.51586e-05
2.48955e-05
2.69903e-05
2.89698e-05
3.24276e-05
3.89018e-05
4.44546e-05
4.81767e-05
4.80363e-05
4.81288e-05
4.64089e-05
4.41624e-05
3.99363e-05
3.38809e-05
3.01885e-05
2.74426e-05
2.65506e-05
2.5649e-05
2.37728e-05
2.42741e-05
3.0758e-05
2.90795e-05
2.45514e-05
2.21197e-05
2.09793e-05
2.03865e-05
2.12109e-05
2.53808e-05
2.7306e-05
2.77669e-05
3.15058e-05
3.07236e-05
2.94412e-05
3.07133e-05
4.20521e-05
4.3998e-05
4.7002e-05
4.59896e-05
4.03173e-05
3.68233e-05
3.35404e-05
3.30653e-05
3.46818e-05
3.70316e-05
4.20472e-05
5.14797e-05
5.73519e-05
6.16877e-05
6.03647e-05
6.10358e-05
5.80912e-05
5.48508e-05
4.92648e-05
4.19288e-05
3.75487e-05
3.40897e-05
3.21559e-05
3.06673e-05
2.86928e-05
2.91393e-05
3.79679e-05
3.59116e-05
2.95036e-05
2.6744e-05
2.54242e-05
2.44506e-05
2.62003e-05
3.16586e-05
3.42386e-05
3.54566e-05
4.1109e-05
3.91092e-05
3.72473e-05
3.87211e-05
5.04793e-05
5.33743e-05
5.64785e-05
5.47856e-05
4.90569e-05
4.54311e-05
4.21284e-05
4.05934e-05
4.13983e-05
4.41287e-05
5.09341e-05
6.34257e-05
6.85883e-05
7.29437e-05
7.03051e-05
7.18712e-05
6.70089e-05
6.3831e-05
5.69939e-05
4.84815e-05
4.30613e-05
3.92698e-05
3.59308e-05
3.47157e-05
3.34059e-05
3.385e-05
4.56884e-05
4.28796e-05
3.47096e-05
3.17568e-05
3.01733e-05
2.86096e-05
3.04269e-05
3.6413e-05
4.03568e-05
4.3365e-05
5.09947e-05
4.73725e-05
4.50462e-05
4.66598e-05
5.51758e-05
5.88891e-05
6.19789e-05
6.05122e-05
5.58103e-05
5.28254e-05
4.90464e-05
4.61411e-05
4.66245e-05
4.95967e-05
5.80434e-05
7.32689e-05
7.76667e-05
8.16569e-05
7.90039e-05
8.05971e-05
7.34521e-05
7.03421e-05
6.24422e-05
5.37581e-05
4.79376e-05
4.45309e-05
3.9672e-05
3.88545e-05
3.7988e-05
3.76985e-05
5.24364e-05
4.76686e-05
3.78248e-05
3.56949e-05
3.38732e-05
3.11159e-05
3.20098e-05
3.84467e-05
4.29272e-05
4.79323e-05
5.66579e-05
5.23904e-05
4.92409e-05
5.04754e-05
5.73519e-05
6.18819e-05
6.45966e-05
6.36019e-05
5.9945e-05
5.7716e-05
5.32211e-05
4.96793e-05
5.02793e-05
5.34357e-05
6.24224e-05
8.03884e-05
8.27666e-05
8.6953e-05
8.39604e-05
8.4917e-05
7.58223e-05
7.28842e-05
6.45451e-05
5.66824e-05
5.17559e-05
4.96118e-05
4.27163e-05
4.16878e-05
4.04215e-05
3.91378e-05
5.5649e-05
4.86997e-05
3.7608e-05
3.83592e-05
3.62765e-05
3.17358e-05
3.22091e-05
3.93008e-05
4.37014e-05
4.99782e-05
5.87542e-05
5.47778e-05
5.05356e-05
5.1509e-05
5.94163e-05
6.37209e-05
6.63999e-05
6.58877e-05
6.24908e-05
6.066e-05
5.55144e-05
5.26434e-05
5.30703e-05
5.63966e-05
6.49571e-05
8.67252e-05
8.5475e-05
8.87389e-05
8.46822e-05
8.51075e-05
7.50572e-05
7.19275e-05
6.51826e-05
5.7153e-05
5.33512e-05
5.3435e-05
4.40749e-05
4.25532e-05
4.02726e-05
3.86689e-05
5.69276e-05
5.01745e-05
3.81473e-05
4.26314e-05
3.91582e-05
3.24335e-05
3.28467e-05
4.05728e-05
4.4642e-05
5.14816e-05
6.00214e-05
5.60569e-05
5.13785e-05
5.2696e-05
6.10996e-05
6.44925e-05
6.7715e-05
6.797e-05
6.38731e-05
6.16171e-05
5.73018e-05
5.44829e-05
5.4888e-05
5.76479e-05
6.62572e-05
8.96641e-05
8.60348e-05
8.87049e-05
8.42388e-05
8.4569e-05
7.41735e-05
7.16537e-05
6.55266e-05
5.74428e-05
5.45157e-05
5.77939e-05
4.48157e-05
4.23277e-05
4.03838e-05
3.75958e-05
5.7536e-05
5.29602e-05
3.89831e-05
4.75679e-05
4.07789e-05
3.25294e-05
3.31511e-05
4.17736e-05
4.54467e-05
5.236e-05
6.06053e-05
5.55913e-05
5.23576e-05
5.42456e-05
6.16779e-05
6.47885e-05
6.85145e-05
6.96296e-05
6.49441e-05
6.32252e-05
5.93092e-05
5.62819e-05
5.66772e-05
5.84034e-05
6.72771e-05
8.86855e-05
8.48972e-05
8.85132e-05
8.44626e-05
8.46123e-05
7.36108e-05
7.15773e-05
6.55581e-05
5.80798e-05
5.50529e-05
6.00186e-05
4.51003e-05
4.20996e-05
4.0153e-05
3.7842e-05
5.72809e-05
5.3946e-05
3.90854e-05
5.00732e-05
4.12641e-05
3.27054e-05
3.34235e-05
4.28544e-05
4.57143e-05
5.3555e-05
6.15842e-05
5.47362e-05
5.23893e-05
5.49609e-05
6.14744e-05
6.46669e-05
6.87667e-05
7.0708e-05
6.60165e-05
6.50145e-05
6.09615e-05
5.7626e-05
5.81358e-05
5.9488e-05
6.85009e-05
8.69368e-05
8.42635e-05
8.79428e-05
8.41098e-05
8.34178e-05
7.27888e-05
7.13326e-05
6.55927e-05
5.85748e-05
5.67707e-05
6.07912e-05
4.53671e-05
4.17735e-05
3.95947e-05
3.73565e-05
5.57877e-05
5.42716e-05
3.80889e-05
5.00751e-05
4.00048e-05
3.24672e-05
3.34775e-05
4.3974e-05
4.55146e-05
5.46677e-05
6.32859e-05
5.36327e-05
5.18202e-05
5.51433e-05
6.04698e-05
6.39891e-05
6.83783e-05
7.11775e-05
6.65906e-05
6.54318e-05
6.16309e-05
5.8053e-05
5.84506e-05
5.96561e-05
6.79532e-05
8.36988e-05
8.3436e-05
8.71962e-05
8.35298e-05
8.26493e-05
7.2205e-05
7.11943e-05
6.541e-05
5.90805e-05
5.65999e-05
6.11676e-05
4.52164e-05
4.13637e-05
3.88227e-05
3.64732e-05
5.451e-05
5.58971e-05
3.75852e-05
4.95536e-05
3.9416e-05
3.24083e-05
3.35136e-05
4.45971e-05
4.51395e-05
5.48142e-05
6.33302e-05
5.32782e-05
5.12712e-05
5.44377e-05
5.94017e-05
6.3116e-05
6.72636e-05
7.06184e-05
6.62325e-05
6.51632e-05
6.13976e-05
5.76687e-05
5.80142e-05
5.9653e-05
6.72796e-05
8.19096e-05
8.23124e-05
8.60193e-05
8.24812e-05
8.12409e-05
7.13958e-05
7.0164e-05
6.49523e-05
5.86452e-05
5.62419e-05
6.04072e-05
4.4981e-05
4.09751e-05
3.82329e-05
3.57809e-05
5.31452e-05
5.6036e-05
3.75435e-05
4.82746e-05
3.96276e-05
3.24452e-05
3.35407e-05
4.4692e-05
4.50121e-05
5.49503e-05
6.2855e-05
5.26081e-05
5.07707e-05
5.35169e-05
5.88684e-05
6.25723e-05
6.65122e-05
7.00424e-05
6.58116e-05
6.4691e-05
6.09247e-05
5.69905e-05
5.75532e-05
5.93167e-05
6.65848e-05
8.09194e-05
8.12718e-05
8.49834e-05
8.17175e-05
8.03863e-05
7.08299e-05
6.934e-05
6.43802e-05
5.81633e-05
5.54203e-05
5.94466e-05
4.46538e-05
4.0658e-05
3.7827e-05
3.54805e-05
5.23767e-05
5.51242e-05
3.71356e-05
4.72754e-05
3.93996e-05
3.21339e-05
3.32614e-05
4.41866e-05
4.47096e-05
5.44196e-05
6.24837e-05
5.19918e-05
5.01401e-05
5.29788e-05
5.8551e-05
6.22419e-05
6.61393e-05
6.95949e-05
6.54317e-05
6.43e-05
6.05687e-05
5.65855e-05
5.70935e-05
5.894e-05
6.61274e-05
8.03432e-05
8.07188e-05
8.44119e-05
8.11763e-05
7.9767e-05
7.02962e-05
6.87486e-05
6.38833e-05
5.76511e-05
5.49876e-05
5.89868e-05
4.43714e-05
4.03396e-05
3.75185e-05
3.51933e-05
5.19133e-05
5.45142e-05
3.68732e-05
4.67353e-05
3.91741e-05
3.19314e-05
3.3048e-05
4.38195e-05
4.44306e-05
5.41117e-05
6.2203e-05
5.166e-05
4.97446e-05
5.27258e-05
8.46704e-08
8.78142e-08
9.62785e-08
8.71398e-08
7.3622e-08
7.67548e-08
7.80488e-08
6.39776e-08
5.2051e-08
4.81869e-08
4.64269e-08
4.30736e-08
3.70014e-08
3.32671e-08
3.80213e-08
3.74503e-08
3.4588e-08
3.92645e-08
3.60348e-08
3.87988e-08
4.93521e-08
4.53047e-08
5.10566e-08
6.74483e-08
6.85351e-08
7.0316e-08
8.3587e-08
9.32669e-08
8.89429e-08
8.46545e-08
9.72574e-08
1.02303e-07
8.71666e-08
9.22914e-08
1.04294e-07
9.32313e-08
8.91923e-08
9.74996e-08
9.76528e-08
9.13436e-08
9.52965e-08
9.77729e-08
1.02902e-07
9.49964e-08
8.21176e-08
8.53569e-08
8.38129e-08
6.65937e-08
5.5027e-08
4.98715e-08
4.33732e-08
4.0684e-08
3.66247e-08
3.004e-08
3.24988e-08
3.61835e-08
3.34949e-08
3.1361e-08
3.67242e-08
4.41546e-08
3.6576e-08
4.3659e-08
6.95737e-08
6.42323e-08
6.3816e-08
9.03771e-08
9.28202e-08
8.92162e-08
9.20373e-08
8.70134e-08
9.48922e-08
9.70144e-08
8.19729e-08
9.2839e-08
1.02624e-07
8.86817e-08
9.39537e-08
1.04735e-07
9.82842e-08
9.49054e-08
1.04789e-07
1.10616e-07
1.11679e-07
1.0141e-07
9.362e-08
9.71992e-08
8.9301e-08
7.11567e-08
5.91588e-08
4.93088e-08
4.0812e-08
4.12249e-08
3.58988e-08
2.70006e-08
3.11361e-08
3.78553e-08
3.40321e-08
2.88323e-08
4.52214e-08
5.14838e-08
2.81819e-08
5.71254e-08
9.45687e-08
6.39417e-08
7.46599e-08
1.18414e-07
1.029e-07
9.45662e-08
9.71446e-08
8.81547e-08
9.58994e-08
8.92545e-08
7.76429e-08
9.62093e-08
9.542e-08
8.54211e-08
1.04585e-07
1.0947e-07
9.92083e-08
1.00511e-07
1.14245e-07
1.2712e-07
1.21127e-07
1.08633e-07
1.09125e-07
1.10617e-07
9.8969e-08
7.9931e-08
6.31178e-08
4.66719e-08
4.03744e-08
4.56691e-08
3.43731e-08
2.48324e-08
3.47654e-08
4.16524e-08
3.58612e-08
3.39055e-08
5.94093e-08
5.32381e-08
2.54302e-08
8.30419e-08
1.10533e-07
6.15387e-08
9.5044e-08
1.39306e-07
1.10329e-07
1.06934e-07
9.8968e-08
8.81922e-08
9.96346e-08
8.00795e-08
7.77736e-08
9.93264e-08
8.41913e-08
9.03678e-08
1.18177e-07
1.10372e-07
1.03209e-07
1.06993e-07
1.28153e-07
1.46857e-07
1.30106e-07
1.19826e-07
1.26569e-07
1.25741e-07
1.17531e-07
9.22304e-08
6.45878e-08
4.3811e-08
4.38782e-08
5.44685e-08
3.28682e-08
2.56623e-08
4.25534e-08
4.61971e-08
4.25689e-08
4.87133e-08
7.43538e-08
4.73756e-08
3.24312e-08
1.14056e-07
1.11583e-07
6.08838e-08
1.19299e-07
1.47717e-07
1.25661e-07
1.26895e-07
9.61053e-08
9.22107e-08
1.03707e-07
7.09981e-08
8.4082e-08
9.77941e-08
7.47164e-08
1.05364e-07
1.30118e-07
1.12598e-07
1.11691e-07
1.11755e-07
1.51449e-07
1.67407e-07
1.3989e-07
1.36471e-07
1.43142e-07
1.4797e-07
1.4764e-07
1.06042e-07
6.52975e-08
4.29365e-08
5.449e-08
6.94197e-08
3.33684e-08
3.16411e-08
5.30312e-08
5.32674e-08
5.98736e-08
7.45909e-08
8.61312e-08
3.96003e-08
5.25689e-08
1.46701e-07
1.05114e-07
6.69189e-08
1.4235e-07
1.57543e-07
1.58704e-07
1.5243e-07
9.4411e-08
1.01069e-07
1.03376e-07
6.67146e-08
9.53791e-08
9.0128e-08
7.31264e-08
1.2642e-07
1.39672e-07
1.22972e-07
1.22128e-07
1.1666e-07
1.85441e-07
1.87944e-07
1.55908e-07
1.57927e-07
1.61797e-07
1.87523e-07
1.91308e-07
1.24362e-07
7.09281e-08
4.67808e-08
7.86473e-08
9.47252e-08
3.97215e-08
4.47875e-08
6.64199e-08
6.96171e-08
9.31751e-08
1.10716e-07
9.56951e-08
3.90707e-08
8.83805e-08
1.81479e-07
1.02966e-07
8.17007e-08
1.62848e-07
1.85553e-07
2.16089e-07
1.82042e-07
9.99671e-08
1.11289e-07
1.0023e-07
7.49814e-08
1.11569e-07
8.14607e-08
8.35041e-08
1.50965e-07
1.56155e-07
1.46695e-07
1.33738e-07
1.29468e-07
2.30565e-07
2.14464e-07
1.85941e-07
1.86809e-07
1.94923e-07
2.56971e-07
2.52327e-07
1.57088e-07
8.84931e-08
6.42267e-08
1.26737e-07
1.36556e-07
5.97411e-08
6.71898e-08
8.63753e-08
1.04012e-07
1.49756e-07
1.59426e-07
1.09812e-07
5.49978e-08
1.47132e-07
2.27044e-07
1.18547e-07
1.0781e-07
1.89866e-07
2.46036e-07
3.02563e-07
2.22911e-07
1.17195e-07
1.22647e-07
1.06205e-07
1.05079e-07
1.36207e-07
8.20048e-08
1.06936e-07
1.84183e-07
1.93573e-07
1.88791e-07
1.53061e-07
1.59925e-07
2.94656e-07
2.64251e-07
2.4169e-07
2.32771e-07
2.60981e-07
3.69774e-07
3.47047e-07
2.23466e-07
1.31293e-07
1.13043e-07
2.12183e-07
2.07552e-07
1.06054e-07
1.05384e-07
1.24993e-07
1.70709e-07
2.42025e-07
2.29121e-07
1.41785e-07
9.98488e-08
2.44459e-07
3.0102e-07
1.68305e-07
1.54709e-07
2.43209e-07
3.56267e-07
4.31059e-07
2.95188e-07
1.53346e-07
1.45969e-07
1.41499e-07
1.70924e-07
1.83925e-07
1.05936e-07
1.5232e-07
2.4336e-07
2.70268e-07
2.61396e-07
1.9607e-07
2.18022e-07
3.97289e-07
3.63095e-07
3.44274e-07
3.1967e-07
3.86102e-07
5.46177e-07
5.0442e-07
3.51914e-07
2.24771e-07
2.23754e-07
3.55451e-07
3.31123e-07
1.97659e-07
1.75994e-07
2.05163e-07
2.90614e-07
3.92252e-07
3.44141e-07
2.12527e-07
1.97691e-07
4.08914e-07
4.3357e-07
2.79234e-07
2.44035e-07
3.53644e-07
5.38567e-07
6.32704e-07
4.29864e-07
2.2673e-07
2.06665e-07
2.3369e-07
2.97326e-07
2.81507e-07
1.73541e-07
2.44626e-07
3.61491e-07
4.12207e-07
3.93476e-07
2.88956e-07
3.18616e-07
5.78007e-07
5.55973e-07
5.26165e-07
4.90529e-07
6.10688e-07
8.27268e-07
7.78487e-07
5.87569e-07
4.11989e-07
4.42087e-07
5.93563e-07
5.43747e-07
3.62668e-07
3.11264e-07
3.63466e-07
5.01615e-07
6.37284e-07
5.45997e-07
3.59163e-07
3.91483e-07
6.86471e-07
6.78123e-07
4.95767e-07
4.17061e-07
5.70029e-07
8.33909e-07
9.64898e-07
6.72773e-07
3.74079e-07
3.45797e-07
4.25789e-07
5.2904e-07
4.71506e-07
3.23751e-07
4.24502e-07
5.82085e-07
6.6636e-07
6.32803e-07
4.67241e-07
4.93498e-07
9.01955e-07
9.02584e-07
8.40848e-07
8.10955e-07
9.93044e-07
1.28258e-06
1.24315e-06
1.00155e-06
7.67099e-07
8.33372e-07
9.88059e-07
9.03182e-07
6.50103e-07
5.71952e-07
6.56555e-07
8.61437e-07
1.04378e-06
8.99122e-07
6.46115e-07
7.50658e-07
1.1404e-06
1.11073e-06
8.79844e-07
7.42638e-07
9.56098e-07
1.30941e-06
1.51397e-06
1.09324e-06
6.52515e-07
6.23949e-07
7.83628e-07
9.38125e-07
8.20068e-07
6.24557e-07
7.63423e-07
9.72477e-07
1.11088e-06
1.04966e-06
7.84427e-07
8.01257e-07
1.47224e-06
1.49228e-06
1.37198e-06
1.37702e-06
1.6194e-06
2.01994e-06
2.00804e-06
1.69857e-06
1.40327e-06
1.48762e-06
1.62961e-06
1.48372e-06
1.12972e-06
1.04604e-06
1.17378e-06
1.45463e-06
1.71536e-06
1.4966e-06
1.17021e-06
1.37794e-06
1.87575e-06
1.84095e-06
1.51445e-06
1.32793e-06
1.60027e-06
2.07569e-06
2.40631e-06
1.78923e-06
1.14889e-06
1.13318e-06
1.40658e-06
1.62775e-06
1.42322e-06
1.17544e-06
1.3568e-06
1.62707e-06
1.86584e-06
1.75078e-06
1.33546e-06
1.33811e-06
2.45026e-06
2.45594e-06
2.24622e-06
2.32292e-06
2.62913e-06
3.18796e-06
3.24193e-06
2.8332e-06
2.47565e-06
2.53786e-06
2.64828e-06
2.39396e-06
1.90171e-06
1.84821e-06
2.03426e-06
2.40351e-06
2.78576e-06
2.46479e-06
2.07066e-06
2.41247e-06
3.03553e-06
3.01155e-06
2.52008e-06
2.31505e-06
2.63846e-06
3.29291e-06
3.81376e-06
2.89514e-06
1.98836e-06
2.00161e-06
2.43618e-06
2.74486e-06
2.42684e-06
2.11774e-06
2.33721e-06
2.67624e-06
3.08039e-06
2.8678e-06
2.25557e-06
2.24161e-06
4.01919e-06
3.93273e-06
3.61814e-06
3.80302e-06
4.19887e-06
4.97535e-06
5.134e-06
4.59422e-06
4.17198e-06
4.14902e-06
4.18156e-06
3.75342e-06
3.08966e-06
3.10408e-06
3.37021e-06
3.86474e-06
4.42607e-06
3.96093e-06
3.51861e-06
4.04862e-06
4.81852e-06
4.80211e-06
4.05504e-06
3.88483e-06
4.25003e-06
5.1615e-06
5.93795e-06
4.57523e-06
3.33033e-06
3.40898e-06
4.05546e-06
4.48066e-06
4.00668e-06
3.63469e-06
3.86734e-06
4.30027e-06
4.95575e-06
4.58369e-06
3.7398e-06
3.6927e-06
6.45128e-06
6.08739e-06
5.68421e-06
6.04736e-06
6.58339e-06
7.63363e-06
7.9315e-06
7.24239e-06
6.71965e-06
6.52869e-06
6.36729e-06
5.65677e-06
4.78768e-06
4.89738e-06
5.27752e-06
5.95045e-06
6.77426e-06
6.10702e-06
5.71996e-06
6.51651e-06
7.47413e-06
7.44804e-06
6.34386e-06
6.29718e-06
6.74539e-06
7.97641e-06
9.04836e-06
7.06242e-06
5.39323e-06
5.59076e-06
6.48229e-06
7.03734e-06
6.3484e-06
5.93875e-06
6.1517e-06
6.70714e-06
7.7136e-06
7.10948e-06
6.0331e-06
5.93943e-06
9.9097e-06
9.04421e-06
8.64313e-06
9.29718e-06
1.00167e-05
1.13562e-05
1.17892e-05
1.09708e-05
1.0247e-05
9.82441e-06
9.28022e-06
8.20278e-06
7.03224e-06
7.25633e-06
7.77858e-06
8.78682e-06
9.94642e-06
9.02557e-06
8.89359e-06
1.00784e-05
1.12749e-05
1.12165e-05
9.70798e-06
9.84968e-06
1.04517e-05
1.20178e-05
1.34212e-05
1.06257e-05
8.49741e-06
8.84392e-06
9.94665e-06
1.06576e-05
9.63961e-06
9.28596e-06
9.40213e-06
1.01026e-05
1.15607e-05
1.06628e-05
9.40306e-06
9.26486e-06
1.46627e-05
1.29626e-05
1.27133e-05
1.37234e-05
1.47111e-05
1.61701e-05
1.67452e-05
1.58001e-05
1.47548e-05
1.40911e-05
1.28284e-05
1.12558e-05
9.70487e-06
1.0192e-05
1.09635e-05
1.26661e-05
1.4174e-05
1.3049e-05
1.33796e-05
1.49661e-05
1.63492e-05
1.61803e-05
1.42959e-05
1.46866e-05
1.56055e-05
1.73944e-05
1.92586e-05
1.54803e-05
1.29773e-05
1.34099e-05
1.47317e-05
1.55247e-05
1.40485e-05
1.38637e-05
1.37187e-05
1.45217e-05
1.6518e-05
1.54135e-05
1.41181e-05
1.40707e-05
2.11416e-05
1.82622e-05
1.81803e-05
1.95501e-05
2.06759e-05
2.20016e-05
2.26611e-05
2.15597e-05
2.01265e-05
1.92133e-05
1.6867e-05
1.482e-05
1.29219e-05
1.36687e-05
1.49446e-05
1.75493e-05
1.92333e-05
1.79335e-05
1.87224e-05
2.05599e-05
2.18801e-05
2.19581e-05
1.99495e-05
2.09325e-05
2.2456e-05
2.42409e-05
2.68599e-05
2.20624e-05
1.93201e-05
1.96272e-05
2.11552e-05
2.19607e-05
1.99768e-05
2.01022e-05
1.94104e-05
2.02914e-05
2.29606e-05
2.16399e-05
2.06047e-05
2.09054e-05
2.91787e-05
2.46041e-05
2.42835e-05
2.59955e-05
2.72011e-05
2.82164e-05
2.89984e-05
2.76191e-05
2.60483e-05
2.48764e-05
2.13055e-05
1.89743e-05
1.67707e-05
1.74836e-05
1.95385e-05
2.30418e-05
2.43962e-05
2.33721e-05
2.47164e-05
2.6915e-05
2.82569e-05
2.9048e-05
2.70854e-05
2.90399e-05
3.11708e-05
3.26888e-05
3.65203e-05
3.09719e-05
2.79681e-05
2.76221e-05
2.92521e-05
2.98225e-05
2.74729e-05
2.79109e-05
2.6478e-05
2.7391e-05
3.07576e-05
2.92857e-05
2.88624e-05
2.9758e-05
3.79769e-05
3.11111e-05
3.00866e-05
3.21805e-05
3.30147e-05
3.3792e-05
3.46111e-05
3.30913e-05
3.19768e-05
3.05239e-05
2.59296e-05
2.35554e-05
2.08079e-05
2.11009e-05
2.41931e-05
2.82087e-05
2.93855e-05
2.92642e-05
3.15151e-05
3.40096e-05
3.60582e-05
3.8042e-05
3.64791e-05
3.9811e-05
4.19997e-05
4.34375e-05
4.90757e-05
4.25808e-05
3.8558e-05
3.73263e-05
3.90561e-05
3.94463e-05
3.69102e-05
3.71219e-05
3.45177e-05
3.53697e-05
3.95015e-05
3.83583e-05
3.87495e-05
4.00731e-05
4.60935e-05
3.69881e-05
3.48617e-05
3.77468e-05
3.69845e-05
3.77677e-05
3.87319e-05
3.78592e-05
3.73035e-05
3.53765e-05
3.05678e-05
2.78516e-05
2.43731e-05
2.39038e-05
2.75183e-05
3.2064e-05
3.37093e-05
3.44694e-05
3.74336e-05
4.01614e-05
4.38469e-05
4.7778e-05
4.74943e-05
5.27301e-05
5.45632e-05
5.63497e-05
6.38568e-05
5.70539e-05
5.10829e-05
4.8783e-05
5.04588e-05
5.09916e-05
4.79549e-05
4.70592e-05
4.299e-05
4.37549e-05
4.90723e-05
4.82205e-05
4.8821e-05
5.02524e-05
5.30411e-05
4.22653e-05
3.8936e-05
4.30705e-05
3.96936e-05
4.14057e-05
4.30081e-05
4.3176e-05
4.24324e-05
3.96137e-05
3.44613e-05
3.13139e-05
2.77225e-05
2.60483e-05
2.9468e-05
3.46364e-05
3.72596e-05
3.86136e-05
4.23196e-05
4.46744e-05
5.05154e-05
5.62971e-05
5.68587e-05
6.4389e-05
6.62499e-05
6.92447e-05
7.84032e-05
7.06364e-05
6.24607e-05
5.94312e-05
6.13284e-05
6.22166e-05
5.88826e-05
5.70411e-05
5.17154e-05
5.22275e-05
6.01921e-05
5.85993e-05
5.86012e-05
5.93527e-05
5.86796e-05
4.78262e-05
4.27511e-05
4.867e-05
4.22035e-05
4.51859e-05
4.77137e-05
4.87588e-05
4.73613e-05
4.30362e-05
3.76853e-05
3.44647e-05
3.04018e-05
2.79144e-05
3.05946e-05
3.68315e-05
4.04644e-05
4.26092e-05
4.72211e-05
4.80297e-05
5.64077e-05
6.27127e-05
6.36537e-05
7.36725e-05
7.45948e-05
7.91303e-05
8.84059e-05
7.94482e-05
6.96484e-05
6.64138e-05
6.86991e-05
6.99132e-05
6.71486e-05
6.56059e-05
5.93581e-05
5.96209e-05
7.044e-05
6.77902e-05
6.65046e-05
6.68677e-05
6.28821e-05
5.23144e-05
4.61133e-05
5.37146e-05
4.51111e-05
4.83693e-05
5.14793e-05
5.26782e-05
5.09857e-05
4.53812e-05
4.01602e-05
3.75952e-05
3.29933e-05
2.97959e-05
3.16901e-05
3.86562e-05
4.34039e-05
4.57326e-05
5.13187e-05
5.01319e-05
6.04519e-05
6.86918e-05
6.70895e-05
8.05679e-05
7.90121e-05
8.58479e-05
9.43449e-05
8.40555e-05
7.27216e-05
6.99897e-05
7.26946e-05
7.37956e-05
7.11753e-05
7.03824e-05
6.3219e-05
6.40423e-05
7.72134e-05
7.382e-05
7.11617e-05
7.21352e-05
6.60768e-05
5.54378e-05
4.80874e-05
5.60307e-05
4.69282e-05
5.02202e-05
5.40663e-05
5.53357e-05
5.32656e-05
4.71211e-05
4.25084e-05
3.97139e-05
3.60099e-05
3.1512e-05
3.30873e-05
4.02315e-05
4.53748e-05
4.71959e-05
5.41785e-05
5.18207e-05
6.3324e-05
7.20224e-05
6.80706e-05
8.34746e-05
8.05075e-05
8.97479e-05
9.72813e-05
8.55433e-05
7.3657e-05
7.16e-05
7.44547e-05
7.55772e-05
7.2846e-05
7.31694e-05
6.46243e-05
6.67424e-05
8.00972e-05
7.62406e-05
7.32688e-05
7.57188e-05
6.78239e-05
5.65598e-05
4.92688e-05
5.64204e-05
4.83782e-05
5.18595e-05
5.56432e-05
5.67559e-05
5.40335e-05
4.78449e-05
4.35818e-05
4.00206e-05
3.51462e-05
3.18355e-05
3.3425e-05
4.07306e-05
4.58528e-05
4.71592e-05
5.53463e-05
5.32955e-05
6.54428e-05
7.34447e-05
6.75636e-05
8.11499e-05
8.03384e-05
8.99849e-05
9.79832e-05
8.61122e-05
7.38349e-05
7.36476e-05
7.68664e-05
7.84894e-05
7.45382e-05
7.56659e-05
6.54631e-05
7.01958e-05
8.22534e-05
7.69237e-05
7.36623e-05
7.72021e-05
6.88152e-05
5.74797e-05
4.942e-05
5.64826e-05
4.80718e-05
5.20694e-05
5.66989e-05
5.74935e-05
5.45515e-05
4.85872e-05
4.48402e-05
4.07275e-05
3.58091e-05
3.17985e-05
3.4034e-05
4.1273e-05
4.54834e-05
4.77013e-05
5.52631e-05
5.40137e-05
6.66638e-05
7.40703e-05
6.72562e-05
7.92957e-05
8.02892e-05
8.94784e-05
9.96701e-05
8.68345e-05
7.36383e-05
7.52795e-05
7.87038e-05
8.08073e-05
7.61052e-05
7.68022e-05
6.55849e-05
7.25126e-05
8.43649e-05
7.66915e-05
7.32739e-05
7.78957e-05
6.93963e-05
5.85276e-05
4.96263e-05
5.70827e-05
4.82917e-05
5.28925e-05
5.70947e-05
5.77255e-05
5.4239e-05
4.88599e-05
4.51864e-05
4.10589e-05
3.6103e-05
3.21021e-05
3.41669e-05
4.1271e-05
4.52031e-05
4.81401e-05
5.44219e-05
5.43774e-05
6.67452e-05
7.48684e-05
6.73757e-05
7.87752e-05
8.04959e-05
8.91047e-05
0.000100194
8.75638e-05
7.33643e-05
7.61825e-05
7.97938e-05
8.18288e-05
7.65711e-05
7.67628e-05
6.48391e-05
7.37403e-05
8.57274e-05
7.59942e-05
7.28153e-05
7.8016e-05
6.89457e-05
5.86755e-05
4.96072e-05
5.71249e-05
4.83088e-05
5.26372e-05
5.6806e-05
5.71373e-05
5.37135e-05
4.87724e-05
4.52487e-05
4.11276e-05
3.5816e-05
3.18551e-05
3.38987e-05
4.08503e-05
4.47048e-05
4.80451e-05
5.40608e-05
5.45393e-05
6.62954e-05
7.49907e-05
6.73387e-05
7.83948e-05
8.03193e-05
8.83015e-05
9.97638e-05
8.77027e-05